<?xml version="1.0" encoding="utf-8"?>
<VTKFile byte_order="LittleEndian" type="UnstructuredGrid" version="0.1">
   <UnstructuredGrid>
      <Piece NumberOfCells="78804" NumberOfPoints="39701">
         <Points>
            <DataArray Name="Points" NumberOfComponents="3" format="ascii" type="Float32">
0.0000 0.0000 0.0000
0.0000 0.0101 0.0000
0.0000 0.0201 0.0000
0.0000 0.0302 0.0000
0.0000 0.0402 0.0000
0.0000 0.0503 0.0000
0.0000 0.0603 0.0000
0.0000 0.0704 0.0000
0.0000 0.0804 0.0000
0.0000 0.0905 0.0000
0.0000 0.1005 0.0000
0.0000 0.1106 0.0000
0.0000 0.1206 0.0000
0.0000 0.1307 0.0000
0.0000 0.1407 0.0000
0.0000 0.1508 0.0000
0.0000 0.1608 0.0000
0.0000 0.1709 0.0000
0.0000 0.1809 0.0000
0.0000 0.1910 0.0000
0.0000 0.2010 0.0000
0.0000 0.2111 0.0000
0.0000 0.2211 0.0000
0.0000 0.2312 0.0000
0.0000 0.2412 0.0000
0.0000 0.2513 0.0000
0.0000 0.2613 0.0000
0.0000 0.2714 0.0000
0.0000 0.2814 0.0000
0.0000 0.2915 0.0000
0.0000 0.3015 0.0000
0.0000 0.3116 0.0000
0.0000 0.3216 0.0000
0.0000 0.3317 0.0000
0.0000 0.3417 0.0000
0.0000 0.3518 0.0000
0.0000 0.3618 0.0000
0.0000 0.3719 0.0000
0.0000 0.3819 0.0000
0.0000 0.3920 0.0000
0.0000 0.4020 0.0000
0.0000 0.4121 0.0000
0.0000 0.4221 0.0000
0.0000 0.4322 0.0000
0.0000 0.4422 0.0000
0.0000 0.4523 0.0000
0.0000 0.4623 0.0000
0.0000 0.4724 0.0000
0.0000 0.4824 0.0000
0.0000 0.4925 0.0000
0.0000 0.5025 0.0000
0.0000 0.5126 0.0000
0.0000 0.5226 0.0000
0.0000 0.5327 0.0000
0.0000 0.5427 0.0000
0.0000 0.5528 0.0000
0.0000 0.5628 0.0000
0.0000 0.5729 0.0000
0.0000 0.5829 0.0000
0.0000 0.5930 0.0000
0.0000 0.6030 0.0000
0.0000 0.6131 0.0000
0.0000 0.6231 0.0000
0.0000 0.6332 0.0000
0.0000 0.6432 0.0000
0.0000 0.6533 0.0000
0.0000 0.6633 0.0000
0.0000 0.6734 0.0000
0.0000 0.6834 0.0000
0.0000 0.6935 0.0000
0.0000 0.7035 0.0000
0.0000 0.7136 0.0000
0.0000 0.7236 0.0000
0.0000 0.7337 0.0000
0.0000 0.7437 0.0000
0.0000 0.7538 0.0000
0.0000 0.7638 0.0000
0.0000 0.7739 0.0000
0.0000 0.7839 0.0000
0.0000 0.7940 0.0000
0.0000 0.8040 0.0000
0.0000 0.8141 0.0000
0.0000 0.8241 0.0000
0.0000 0.8342 0.0000
0.0000 0.8442 0.0000
0.0000 0.8543 0.0000
0.0000 0.8643 0.0000
0.0000 0.8744 0.0000
0.0000 0.8844 0.0000
0.0000 0.8945 0.0000
0.0000 0.9045 0.0000
0.0000 0.9146 0.0000
0.0000 0.9246 0.0000
0.0000 0.9347 0.0000
0.0000 0.9447 0.0000
0.0000 0.9548 0.0000
0.0000 0.9648 0.0000
0.0000 0.9749 0.0000
0.0000 0.9849 0.0000
0.0000 0.9950 0.0000
0.0000 1.0050 0.0000
0.0000 1.0151 0.0000
0.0000 1.0251 0.0000
0.0000 1.0352 0.0000
0.0000 1.0452 0.0000
0.0000 1.0553 0.0000
0.0000 1.0653 0.0000
0.0000 1.0754 0.0000
0.0000 1.0854 0.0000
0.0000 1.0955 0.0000
0.0000 1.1055 0.0000
0.0000 1.1156 0.0000
0.0000 1.1256 0.0000
0.0000 1.1357 0.0000
0.0000 1.1457 0.0000
0.0000 1.1558 0.0000
0.0000 1.1658 0.0000
0.0000 1.1759 0.0000
0.0000 1.1859 0.0000
0.0000 1.1960 0.0000
0.0000 1.2060 0.0000
0.0000 1.2161 0.0000
0.0000 1.2261 0.0000
0.0000 1.2362 0.0000
0.0000 1.2462 0.0000
0.0000 1.2563 0.0000
0.0000 1.2663 0.0000
0.0000 1.2764 0.0000
0.0000 1.2864 0.0000
0.0000 1.2965 0.0000
0.0000 1.3065 0.0000
0.0000 1.3166 0.0000
0.0000 1.3266 0.0000
0.0000 1.3367 0.0000
0.0000 1.3467 0.0000
0.0000 1.3568 0.0000
0.0000 1.3668 0.0000
0.0000 1.3769 0.0000
0.0000 1.3869 0.0000
0.0000 1.3970 0.0000
0.0000 1.4070 0.0000
0.0000 1.4171 0.0000
0.0000 1.4271 0.0000
0.0000 1.4372 0.0000
0.0000 1.4472 0.0000
0.0000 1.4573 0.0000
0.0000 1.4673 0.0000
0.0000 1.4774 0.0000
0.0000 1.4874 0.0000
0.0000 1.4975 0.0000
0.0000 1.5075 0.0000
0.0000 1.5176 0.0000
0.0000 1.5276 0.0000
0.0000 1.5377 0.0000
0.0000 1.5477 0.0000
0.0000 1.5578 0.0000
0.0000 1.5678 0.0000
0.0000 1.5779 0.0000
0.0000 1.5879 0.0000
0.0000 1.5980 0.0000
0.0000 1.6080 0.0000
0.0000 1.6181 0.0000
0.0000 1.6281 0.0000
0.0000 1.6382 0.0000
0.0000 1.6482 0.0000
0.0000 1.6583 0.0000
0.0000 1.6683 0.0000
0.0000 1.6784 0.0000
0.0000 1.6884 0.0000
0.0000 1.6985 0.0000
0.0000 1.7085 0.0000
0.0000 1.7186 0.0000
0.0000 1.7286 0.0000
0.0000 1.7387 0.0000
0.0000 1.7487 0.0000
0.0000 1.7588 0.0000
0.0000 1.7688 0.0000
0.0000 1.7789 0.0000
0.0000 1.7889 0.0000
0.0000 1.7990 0.0000
0.0000 1.8090 0.0000
0.0000 1.8191 0.0000
0.0000 1.8291 0.0000
0.0000 1.8392 0.0000
0.0000 1.8492 0.0000
0.0000 1.8593 0.0000
0.0000 1.8693 0.0000
0.0000 1.8794 0.0000
0.0000 1.8894 0.0000
0.0000 1.8995 0.0000
0.0000 1.9095 0.0000
0.0000 1.9196 0.0000
0.0000 1.9296 0.0000
0.0000 1.9397 0.0000
0.0000 1.9497 0.0000
0.0000 1.9598 0.0000
0.0000 1.9698 0.0000
0.0000 1.9799 0.0000
0.0000 1.9899 0.0000
0.0000 2.0000 0.0000
0.0101 0.0000 0.0000
0.0101 0.0101 0.0000
0.0101 0.0201 0.0000
0.0101 0.0302 0.0000
0.0101 0.0402 0.0000
0.0101 0.0503 0.0000
0.0101 0.0603 0.0000
0.0101 0.0704 0.0000
0.0101 0.0804 0.0000
0.0101 0.0905 0.0000
0.0101 0.1005 0.0000
0.0101 0.1106 0.0000
0.0101 0.1206 0.0000
0.0101 0.1307 0.0000
0.0101 0.1407 0.0000
0.0101 0.1508 0.0000
0.0101 0.1608 0.0000
0.0101 0.1709 0.0000
0.0101 0.1809 0.0000
0.0101 0.1910 0.0000
0.0101 0.2010 0.0000
0.0101 0.2111 0.0000
0.0101 0.2211 0.0000
0.0101 0.2312 0.0000
0.0101 0.2412 0.0000
0.0101 0.2513 0.0000
0.0101 0.2613 0.0000
0.0101 0.2714 0.0000
0.0101 0.2814 0.0000
0.0101 0.2915 0.0000
0.0101 0.3015 0.0000
0.0101 0.3116 0.0000
0.0101 0.3216 0.0000
0.0101 0.3317 0.0000
0.0101 0.3417 0.0000
0.0101 0.3518 0.0000
0.0101 0.3618 0.0000
0.0101 0.3719 0.0000
0.0101 0.3819 0.0000
0.0101 0.3920 0.0000
0.0101 0.4020 0.0000
0.0101 0.4121 0.0000
0.0101 0.4221 0.0000
0.0101 0.4322 0.0000
0.0101 0.4422 0.0000
0.0101 0.4523 0.0000
0.0101 0.4623 0.0000
0.0101 0.4724 0.0000
0.0101 0.4824 0.0000
0.0101 0.4925 0.0000
0.0101 0.5025 0.0000
0.0101 0.5126 0.0000
0.0101 0.5226 0.0000
0.0101 0.5327 0.0000
0.0101 0.5427 0.0000
0.0101 0.5528 0.0000
0.0101 0.5628 0.0000
0.0101 0.5729 0.0000
0.0101 0.5829 0.0000
0.0101 0.5930 0.0000
0.0101 0.6030 0.0000
0.0101 0.6131 0.0000
0.0101 0.6231 0.0000
0.0101 0.6332 0.0000
0.0101 0.6432 0.0000
0.0101 0.6533 0.0000
0.0101 0.6633 0.0000
0.0101 0.6734 0.0000
0.0101 0.6834 0.0000
0.0101 0.6935 0.0000
0.0101 0.7035 0.0000
0.0101 0.7136 0.0000
0.0101 0.7236 0.0000
0.0101 0.7337 0.0000
0.0101 0.7437 0.0000
0.0101 0.7538 0.0000
0.0101 0.7638 0.0000
0.0101 0.7739 0.0000
0.0101 0.7839 0.0000
0.0101 0.7940 0.0000
0.0101 0.8040 0.0000
0.0101 0.8141 0.0000
0.0101 0.8241 0.0000
0.0101 0.8342 0.0000
0.0101 0.8442 0.0000
0.0101 0.8543 0.0000
0.0101 0.8643 0.0000
0.0101 0.8744 0.0000
0.0101 0.8844 0.0000
0.0101 0.8945 0.0000
0.0101 0.9045 0.0000
0.0101 0.9146 0.0000
0.0101 0.9246 0.0000
0.0101 0.9347 0.0000
0.0101 0.9447 0.0000
0.0101 0.9548 0.0000
0.0101 0.9648 0.0000
0.0101 0.9749 0.0000
0.0101 0.9849 0.0000
0.0101 0.9950 0.0000
0.0101 1.0050 0.0000
0.0101 1.0151 0.0000
0.0101 1.0251 0.0000
0.0101 1.0352 0.0000
0.0101 1.0452 0.0000
0.0101 1.0553 0.0000
0.0101 1.0653 0.0000
0.0101 1.0754 0.0000
0.0101 1.0854 0.0000
0.0101 1.0955 0.0000
0.0101 1.1055 0.0000
0.0101 1.1156 0.0000
0.0101 1.1256 0.0000
0.0101 1.1357 0.0000
0.0101 1.1457 0.0000
0.0101 1.1558 0.0000
0.0101 1.1658 0.0000
0.0101 1.1759 0.0000
0.0101 1.1859 0.0000
0.0101 1.1960 0.0000
0.0101 1.2060 0.0000
0.0101 1.2161 0.0000
0.0101 1.2261 0.0000
0.0101 1.2362 0.0000
0.0101 1.2462 0.0000
0.0101 1.2563 0.0000
0.0101 1.2663 0.0000
0.0101 1.2764 0.0000
0.0101 1.2864 0.0000
0.0101 1.2965 0.0000
0.0101 1.3065 0.0000
0.0101 1.3166 0.0000
0.0101 1.3266 0.0000
0.0101 1.3367 0.0000
0.0101 1.3467 0.0000
0.0101 1.3568 0.0000
0.0101 1.3668 0.0000
0.0101 1.3769 0.0000
0.0101 1.3869 0.0000
0.0101 1.3970 0.0000
0.0101 1.4070 0.0000
0.0101 1.4171 0.0000
0.0101 1.4271 0.0000
0.0101 1.4372 0.0000
0.0101 1.4472 0.0000
0.0101 1.4573 0.0000
0.0101 1.4673 0.0000
0.0101 1.4774 0.0000
0.0101 1.4874 0.0000
0.0101 1.4975 0.0000
0.0101 1.5075 0.0000
0.0101 1.5176 0.0000
0.0101 1.5276 0.0000
0.0101 1.5377 0.0000
0.0101 1.5477 0.0000
0.0101 1.5578 0.0000
0.0101 1.5678 0.0000
0.0101 1.5779 0.0000
0.0101 1.5879 0.0000
0.0101 1.5980 0.0000
0.0101 1.6080 0.0000
0.0101 1.6181 0.0000
0.0101 1.6281 0.0000
0.0101 1.6382 0.0000
0.0101 1.6482 0.0000
0.0101 1.6583 0.0000
0.0101 1.6683 0.0000
0.0101 1.6784 0.0000
0.0101 1.6884 0.0000
0.0101 1.6985 0.0000
0.0101 1.7085 0.0000
0.0101 1.7186 0.0000
0.0101 1.7286 0.0000
0.0101 1.7387 0.0000
0.0101 1.7487 0.0000
0.0101 1.7588 0.0000
0.0101 1.7688 0.0000
0.0101 1.7789 0.0000
0.0101 1.7889 0.0000
0.0101 1.7990 0.0000
0.0101 1.8090 0.0000
0.0101 1.8191 0.0000
0.0101 1.8291 0.0000
0.0101 1.8392 0.0000
0.0101 1.8492 0.0000
0.0101 1.8593 0.0000
0.0101 1.8693 0.0000
0.0101 1.8794 0.0000
0.0101 1.8894 0.0000
0.0101 1.8995 0.0000
0.0101 1.9095 0.0000
0.0101 1.9196 0.0000
0.0101 1.9296 0.0000
0.0101 1.9397 0.0000
0.0101 1.9497 0.0000
0.0101 1.9598 0.0000
0.0101 1.9698 0.0000
0.0101 1.9799 0.0000
0.0101 1.9899 0.0000
0.0101 2.0000 0.0000
0.0202 0.0000 0.0000
0.0202 0.0101 0.0000
0.0202 0.0201 0.0000
0.0202 0.0302 0.0000
0.0202 0.0402 0.0000
0.0202 0.0503 0.0000
0.0202 0.0603 0.0000
0.0202 0.0704 0.0000
0.0202 0.0804 0.0000
0.0202 0.0905 0.0000
0.0202 0.1005 0.0000
0.0202 0.1106 0.0000
0.0202 0.1206 0.0000
0.0202 0.1307 0.0000
0.0202 0.1407 0.0000
0.0202 0.1508 0.0000
0.0202 0.1608 0.0000
0.0202 0.1709 0.0000
0.0202 0.1809 0.0000
0.0202 0.1910 0.0000
0.0202 0.2010 0.0000
0.0202 0.2111 0.0000
0.0202 0.2211 0.0000
0.0202 0.2312 0.0000
0.0202 0.2412 0.0000
0.0202 0.2513 0.0000
0.0202 0.2613 0.0000
0.0202 0.2714 0.0000
0.0202 0.2814 0.0000
0.0202 0.2915 0.0000
0.0202 0.3015 0.0000
0.0202 0.3116 0.0000
0.0202 0.3216 0.0000
0.0202 0.3317 0.0000
0.0202 0.3417 0.0000
0.0202 0.3518 0.0000
0.0202 0.3618 0.0000
0.0202 0.3719 0.0000
0.0202 0.3819 0.0000
0.0202 0.3920 0.0000
0.0202 0.4020 0.0000
0.0202 0.4121 0.0000
0.0202 0.4221 0.0000
0.0202 0.4322 0.0000
0.0202 0.4422 0.0000
0.0202 0.4523 0.0000
0.0202 0.4623 0.0000
0.0202 0.4724 0.0000
0.0202 0.4824 0.0000
0.0202 0.4925 0.0000
0.0202 0.5025 0.0000
0.0202 0.5126 0.0000
0.0202 0.5226 0.0000
0.0202 0.5327 0.0000
0.0202 0.5427 0.0000
0.0202 0.5528 0.0000
0.0202 0.5628 0.0000
0.0202 0.5729 0.0000
0.0202 0.5829 0.0000
0.0202 0.5930 0.0000
0.0202 0.6030 0.0000
[...]
         <PointData>
            <DataArray Name="fValues" NumberOfComponents="1" format="ascii" type="Float64">
 1.00000e+00 
 1.00000e+00 
 1.00000e+00 
 1.00000e+00 
 1.00000e+00 
       00001 
 1.00000e+00 
       00001 
       00001 
 1.00000e+00 
 1.00000e+00 
       00001 
 1.00000e+00 
       00001 
 1.00000e+00 
 1.00000e+00 
 1.00000e+00 
 1.00000e+00 
 1.00000e+00 
 1.00000e+00 
 1.00000e+00 
 1.00000e+00 
 1.00000e+00 
 1.00000e+00 
 1.00000e+00 
 1.00000e+00 
 1.00000e+00 
 1.00000e+00 
 1.00000e+00 
 1.00000e+00 
 1.00000e+00 
 1.00000e+00 
 1.00000e+00 
 1.00000e+00 
 1.00000e+00 
 1.00000e+00 
 1.00000e+00 
 1.00000e+00 
 1.00000e+00 
 1.00000e+00 
 1.00000e+00 
       00001 
 1.00000e+00 
 1.00000e+00 
 1.00000e+00 
 1.00000e+00 
       00001 
 1.00000e+00 
 1.00000e+00 
 1.00000e+00 
 1.00000e+00 
       00001 
       00001 
 1.00000e+00 
 1.00000e+00 
 1.00000e+00 
       00001 
 1.00000e+00 
 1.00000e+00 
 1.00000e+00 
 1.00000e+00 
 1.00000e+00 
 1.00000e+00 
 1.00000e+00 
 1.00000e+00 
 1.00000e+00 
       00001 
 1.00000e+00 
 1.00000e+00 
 1.00000e+00 
 1.00000e+00 
 1.00000e+00 
 1.00000e+00 
 1.00000e+00 
       00001 
 1.00000e+00 
 1.00000e+00 
 1.00000e+00 
 1.00000e+00 
 1.00000e+00 
 1.00000e+00 
 1.00000e+00 
 1.00000e+00 
 1.00000e+00 
       00001 
 1.00000e+00 
       00001 
 1.00000e+00 
 1.00000e+00 
 1.00000e+00 
 1.00000e+00 
 1.00000e+00 
 1.00000e+00 
 1.00000e+00 
       00001 
 1.00000e+00 
       00001 
 1.00000e+00 
       00001 
 1.00000e+00 
 1.00000e+00 
 1.00000e+00 
 1.00000e+00 
 1.00000e+00 
 1.00000e+00 
 1.00000e+00 
 1.00000e+00 
 6.32178e-01 
 3.52226e-18 
 1.06595e-17 
-7.60031e-18 
 4.69639e-18 
-2.31757e-18 
 9.01860e-19 
-1.70654e-19 
-7.68486e-20 
 1.17709e-19 
-8.43219e-20 
 4.23749e-20 
-1.33667e-20 
 2.90623e-21 
-1.04325e-22 
-3.36106e-22 
 3.60292e-22 
-3.09313e-22 
 2.52163e-22 
-1.44735e-22 
 9.22203e-23 
-6.52619e-23 
 4.41920e-23 
-2.66582e-23 
 1.39992e-23 
-6.36775e-24 
 2.47925e-24 
-7.81541e-25 
 1.53152e-25 
 2.83840e-26 
-5.33529e-26 
 3.80578e-26 
-2.07576e-26 
 9.78574e-27 
-4.31037e-27 
 1.60689e-27 
-4.85370e-28 
 9.40574e-29 
 2.03064e-29 
-3.91751e-29 
 3.16891e-29 
-2.06710e-29 
 1.21143e-29 
-6.59209e-30 
 3.36049e-30 
-1.60552e-30 
 7.18484e-31 
-3.02643e-31 
 1.22427e-31 
-4.99385e-32 
 2.17850e-32 
-1.12336e-32 
 6.30961e-33 
-3.65735e-33 
 2.07399e-33 
-1.11758e-33 
 5.67039e-34 
-2.71099e-34 
 1.22824e-34 
-5.31216e-35 
 2.20322e-35 
-8.70446e-36 
 3.16561e-36 
-9.49707e-37 
 1.29809e-37 
 1.19160e-37 
-1.52151e-37 
 1.18956e-37 
-7.75193e-38 
 4.55633e-38 
-2.50153e-38 
 1.30785e-38 
-6.57669e-39 
 3.18587e-39 
-1.47514e-39 
 6.39754e-40 
-2.48758e-40 
 7.72304e-41 
-9.79491e-42 
-1.13936e-41 
 1.42044e-41 
-1.11853e-41 
 7.37011e-42 
-4.36556e-42 
 2.39302e-42 
-1.23128e-42 
 5.99074e-43 
-2.76669e-43 
 1.21565e-43 
-5.10520e-44 
 2.09013e-44 
-9.17910e-45 
 6.17430e-45 
 1.00000e+00 
 1.00000e+00 
 1.00000e+00 
       00001 
 1.00000e+00 
 1.00000e+00 
 1.00000e+00 
       00001 
 1.00000e+00 
 1.00000e+00 
 1.00000e+00 
       00001 
 1.00000e+00 
 1.00000e+00 
 1.00000e+00 
 1.00000e+00 
       00001 
 1.00000e+00 
 1.00000e+00 
 1.00000e+00 
 1.00000e+00 
 1.00000e+00 
 1.00000e+00 
 1.00000e+00 
 1.00000e+00 
 1.00000e+00 
 1.00000e+00 
 1.00000e+00 
 1.00000e+00 
       00001 
 1.00000e+00 
 1.00000e+00 
       00001 
 1.00000e+00 
 1.00000e+00 
 1.00000e+00 
 1.00000e+00 
 1.00000e+00 
 1.00000e+00 
 1.00000e+00 
 1.00000e+00 
       00001 
 1.00000e+00 
 1.00000e+00 
 1.00000e+00 
 1.00000e+00 
 1.00000e+00 
 1.00000e+00 
       00001 
 1.00000e+00 
       00001 
 1.00000e+00 
 1.00000e+00 
 1.00000e+00 
 1.00000e+00 
 1.00000e+00 
 1.00000e+00 
 1.00000e+00 
 1.00000e+00 
 1.00000e+00 
 1.00000e+00 
 1.00000e+00 
       00001 
 1.00000e+00 
 1.00000e+00 
 1.00000e+00 
 1.00000e+00 
 1.00000e+00 
 1.00000e+00 
 1.00000e+00 
 1.00000e+00 
       00001 
       00001 
       00001 
 1.00000e+00 
       00001 
 1.00000e+00 
 1.00000e+00 
       00001 
 1.00000e+00 
 1.00000e+00 
 1.00000e+00 
       00001 
       00001 
 1.00000e+00 
 1.00000e+00 
 1.00000e+00 
 1.00000e+00 
 1.00000e+00 
 1.00000e+00 
 1.00000e+00 
       00001 
 1.00000e+00 
 1.00000e+00 
 1.00000e+00 
 1.00000e+00 
 1.00000e+00 
 1.00000e+00 
       00001 
 1.00000e+00 
 1.00000e+00 
 1.00000e+00 
 1.00000e+00 
 1.00000e+00 
 1.00000e+00 
       00001 
 1.00000e+00 
 1.00000e+00 
 4.81328e-17 
-2.87311e-17 
 2.50768e-17 
-1.21637e-17 
 6.42735e-18 
-1.82930e-18 
 6.59291e-20 
 3.97024e-19 
-4.00707e-19 
 2.88315e-19 
-9.15669e-20 
 2.41105e-20 
-2.06460e-21 
-1.02348e-21 
 1.12722e-21 
-1.17160e-21 
 9.28248e-22 
-6.89829e-22 
 3.65449e-22 
-2.61173e-22 
 1.93293e-22 
-1.29496e-22 
 7.44829e-23 
-3.65626e-23 
 1.53548e-23 
-5.39794e-24 
 1.40958e-24 
-9.20733e-26 
-2.02755e-25 
 1.83739e-25 
-1.10265e-25 
 5.44302e-26 
-2.36381e-26 
 1.02260e-26 
-3.30481e-27 
 8.65053e-28 
-5.93160e-29 
-1.31944e-28 
 1.34600e-28 
-9.53120e-29 
 5.85774e-29 
-3.31238e-29 
 1.75119e-29 
-8.66692e-30 
 4.00355e-30 
-1.72430e-30 
 6.98458e-31 
-2.74877e-31 
 1.13183e-31 
-5.36843e-32 
 2.91951e-32 
-1.71020e-32 
 1.00445e-32 
-5.62839e-33 
 2.95967e-33 
-1.45738e-33 
 6.75450e-34 
-2.97250e-34 
 1.25371e-34 
-5.08539e-35 
 1.95468e-35 
-6.71709e-36 
 1.68338e-36 
 8.33639e-38 
-5.29862e-37 
 5.02813e-37 
-3.56510e-37 
 2.19880e-37 
-1.24482e-37 
 6.65087e-38 
-3.40727e-38 
 1.68533e-38 
-8.02987e-39 
 3.63732e-39 
-1.52188e-39 
 5.51580e-40 
-1.40592e-40 
-1.00927e-41 
 4.91150e-41 
-4.67778e-41 
 3.36126e-41 
-2.10163e-41 
 1.19855e-41 
-6.36745e-42 
 3.18510e-42 
-1.50819e-42 
 6.77621e-43 
-2.89303e-43 
 1.17962e-43 
-4.70334e-44 
 2.03575e-44 
-1.36835e-44 
 1.00000e+00 
 1.00000e+00 
 1.00000e+00 
 1.00000e+00 
 1.00000e+00 
 1.00000e+00 
 1.00000e+00 
       00001 
 1.00000e+00 
 1.00000e+00 
       00001 
 1.00000e+00 
       00001 
 1.00000e+00 
 1.00000e+00 
 1.00000e+00 
       00001 
 1.00000e+00 
 1.00000e+00 
 1.00000e+00 
 1.00000e+00 
 1.00000e+00 
 1.00000e+00 
 1.00000e+00 
 1.00000e+00 
 1.00000e+00 
 1.00000e+00 
 1.00000e+00 
       00001 
 1.00000e+00 
 1.00000e+00 
       00001 
 1.00000e+00 
 1.00000e+00 
 1.00000e+00 
 1.00000e+00 
 1.00000e+00 
 1.00000e+00 
       00001 
 1.00000e+00 
 1.00000e+00 
 1.00000e+00 
 1.00000e+00 
       00001 
 1.00000e+00 
 1.00000e+00 
 1.00000e+00 
 1.00000e+00 
 1.00000e+00 
 1.00000e+00 
 1.00000e+00 
 1.00000e+00 
 1.00000e+00 
 1.00000e+00 
 1.00000e+00 
 1.00000e+00 
 1.00000e+00 
       00001 
 1.00000e+00 
 1.00000e+00 
 1.00000e+00 
 1.00000e+00 
       00001 
 1.00000e+00 
       00001 
 1.00000e+00 
       00001 
 1.00000e+00 
 1.00000e+00 
 1.00000e+00 
 1.00000e+00 
 1.00000e+00 
 1.00000e+00 
 1.00000e+00 
 1.00000e+00 
 1.00000e+00 
       00001 
 1.00000e+00 
 1.00000e+00 
       00001 
 1.00000e+00 
 1.00000e+00 
       00001 
 1.00000e+00 
       00001 
       00001 
 1.00000e+00 
       00001 
 1.00000e+00 
 1.00000e+00 
 1.00000e+00 
 1.00000e+00 
 1.00000e+00 
 1.00000e+00 
 1.00000e+00 
 1.00000e+00 
       00001 
 1.00000e+00 
 1.00000e+00 
 1.00000e+00 
 1.00000e+00 
 1.00000e+00 
 1.00000e+00 
       00001 
 1.00000e+00 
 1.00000e+00 
 1.00000e+00 
 1.00000e+00 
       00001 
 9.83888e-01 
-5.03408e-17 
 8.71717e-17 
-2.53509e-17 
 3.19282e-18 
 9.77848e-19 
-3.42199e-18 
 2.52454e-18 
-9.81460e-19 
 3.72934e-19 
-2.92550e-20 
-1.56264e-20 
 5.65105e-21 
-6.38244e-21 
 7.82777e-21 
-5.28995e-21 
 2.62934e-21 
-1.81287e-21 
 1.44164e-21 
-1.10477e-21 
 7.12763e-22 
-3.79726e-22 
 1.69683e-22 
-6.39610e-23 
 1.91934e-23 
-3.15806e-24 
-1.21672e-24 
 1.61968e-24 
-1.08075e-24 
 5.64328e-25 
-2.51434e-25 
 9.96846e-26 
-3.71124e-26 
 1.16576e-26 
-1.91552e-27 
-6.67124e-28 
 1.03982e-27 
-8.11364e-28 
 5.21383e-28 
-3.05026e-28 
 1.66717e-28 
-8.53364e-29 
 4.07021e-29 
-1.79839e-29 
 7.35689e-30 
-2.83357e-30 
 1.08825e-30 
-4.65778e-31 
 2.48091e-31 
-1.44444e-31 
 8.83489e-32 
-5.17254e-32 
 2.82865e-32 
-1.43654e-32 
 6.80574e-33 
-3.03668e-33 
 1.29219e-33 
-5.30438e-34 
 2.10015e-34 
-7.77148e-35 
 2.41181e-35 
-3.68169e-36 
-2.80929e-36 
 3.79449e-36 
-3.00485e-36 
 1.95942e-36 
-1.14562e-36 
 6.24432e-37 
-3.24563e-37 
 1.62906e-37 
-7.91873e-38 
 3.69902e-38 
-1.62636e-38 
 6.44819e-39 
-2.07145e-39 
 3.13702e-40 
 2.58256e-40 
-3.48167e-40 
 2.79693e-40 
-1.85785e-40 
 1.10356e-40 
-6.04718e-41 
 3.10326e-41 
-1.50275e-41 
 6.88917e-42 
-2.99188e-42 
 1.23150e-42 
-4.83580e-43 
 1.87043e-43 
-8.05973e-44 
 5.49040e-44 
 1.00000e+00 
 1.00000e+00 
       00001 
 1.00000e+00 
 1.00000e+00 
 1.00000e+00 
 1.00000e+00 
 1.00000e+00 
 1.00000e+00 
       00001 
 1.00000e+00 
 1.00000e+00 
 1.00000e+00 
 1.00000e+00 
 1.00000e+00 
 1.00000e+00 
       00001 
 1.00000e+00 
 1.00000e+00 
 1.00000e+00 
       00001 
 1.00000e+00 
       00001 
       00001 
 1.00000e+00 
 1.00000e+00 
 1.00000e+00 
 1.00000e+00 
 1.00000e+00 
 1.00000e+00 
 1.00000e+00 
 1.00000e+00 
 1.00000e+00 
 1.00000e+00 
 1.00000e+00 
 1.00000e+00 
 1.00000e+00 
 1.00000e+00 
 1.00000e+00 
 1.00000e+00 
       00001 
 1.00000e+00 
 1.00000e+00 
 1.00000e+00 
 1.00000e+00 
 1.00000e+00 
 1.00000e+00 
 1.00000e+00 
       00001 
 1.00000e+00 
 1.00000e+00 
 1.00000e+00 
 1.00000e+00 
 1.00000e+00 
 1.00000e+00 
 1.00000e+00 
 1.00000e+00 
 1.00000e+00 
 1.00000e+00 
 1.00000e+00 
 1.00000e+00 
       00001 
 1.00000e+00 
 1.00000e+00 
       00001 
 1.00000e+00 
 1.00000e+00 
 1.00000e+00 
 1.00000e+00 
 1.00000e+00 
 1.00000e+00 
 1.00000e+00 
       00001 
       00001 
 1.00000e+00 
 1.00000e+00 
       00001 
 1.00000e+00 
 1.00000e+00 
       00001 
 1.00000e+00 
       00001 
       00001 
 1.00000e+00 
       00001 
 1.00000e+00 
 1.00000e+00 
 1.00000e+00 
 1.00000e+00 
       00001 
 1.00000e+00 
       00001 
 1.00000e+00 
 1.00000e+00 
 1.00000e+00 
 1.00000e+00 
 1.00000e+00 
 1.00000e+00 
 1.00000e+00 
 1.00000e+00 
 1.00000e+00 
 1.00000e+00 
 1.00000e+00 
 1.00000e+00 
 1.00000e+00 
 1.00000e+00 
 1.00000e+00 
 1.00000e+00 
 1.00000e+00 
 1.00000e+00 
 1.00000e+00 
 1.00000e+00 
 2.98873e-17 
 1.23839e-18 
-1.19462e-17 
 2.54413e-17 
-1.08862e-17 
 6.77328e-18 
-7.51293e-19 
-3.50714e-19 
 8.71925e-20 
 1.31364e-20 
 5.21825e-20 
-5.60726e-20 
 2.71063e-20 
-1.32013e-20 
 9.54717e-21 
-8.64096e-21 
 6.62034e-21 
-3.96585e-21 
 1.90956e-21 
-7.67443e-22 
 2.56332e-22 
-6.03776e-23 
-1.47048e-24 
 1.32735e-23 
-1.05184e-23 
 5.94854e-24 
-2.79708e-24 
 1.13542e-24 
-4.01464e-25 
 1.63798e-25 
-3.32650e-26 
 3.28735e-28 
 7.36307e-27 
-6.88521e-27 
 4.68539e-27 
-2.84336e-27 
 1.61005e-27 
-8.55472e-28 
 4.24015e-28 
-1.94263e-28 
 8.16275e-29 
-3.15154e-29 
 1.15491e-29 
-4.43977e-30 
 2.08237e-30 
-1.20965e-30 
 7.77321e-31 
-4.78074e-31 
 2.74519e-31 
-1.45109e-31 
 7.08424e-32 
-3.22462e-32 
 1.38720e-32 
-5.73555e-33 
 2.30854e-33 
-8.96389e-34 
 3.16157e-34 
-8.23813e-35 
-3.07021e-36 
 2.57717e-35 
-2.48079e-35 
 1.75841e-35 
-1.07599e-35 
 6.02298e-36 
-3.18309e-36 
 1.61921e-36 
-8.00006e-37 
 3.83140e-37 
-1.75357e-37 
 7.44192e-38 
-2.74814e-38 
 7.26453e-39 
 2.99242e-40 
-2.33146e-39 
 2.27137e-39 
-1.64348e-39 
 1.02889e-39 
-5.85590e-40 
 3.09756e-40 
-1.53977e-40 
 7.22990e-41 
-3.21058e-41 
 1.34684e-41 
-5.33604e-42 
 2.01639e-42 
-7.62077e-43 
 3.35901e-43 
-2.37520e-43 
 1.00000e+00 
       00001 
 1.00000e+00 
 1.00000e+00 
       00001 
 1.00000e+00 
 1.00000e+00 
 1.00000e+00 
 1.00000e+00 
       00001 
 1.00000e+00 
 1.00000e+00 
       00001 
 1.00000e+00 
 1.00000e+00 
       00001 
 1.00000e+00 
 1.00000e+00 
 1.00000e+00 
 1.00000e+00 
 1.00000e+00 
 1.00000e+00 
 1.00000e+00 
       00001 
 1.00000e+00 
 1.00000e+00 
 1.00000e+00 
 1.00000e+00 
 1.00000e+00 
 1.00000e+00 
 1.00000e+00 
 1.00000e+00 
 1.00000e+00 
 1.00000e+00 
 1.00000e+00 
 1.00000e+00 
       00001 
 1.00000e+00 
 1.00000e+00 
 1.00000e+00 
       00001 
 1.00000e+00 
       00001 
 1.00000e+00 
 1.00000e+00 
 1.00000e+00 
       00001 
       00001 
 1.00000e+00 
 1.00000e+00 
 1.00000e+00 
       00001 
 1.00000e+00 
 1.00000e+00 
 1.00000e+00 
 1.00000e+00 
       00001 
 1.00000e+00 
       00001 
 1.00000e+00 
 1.00000e+00 
 1.00000e+00 
 1.00000e+00 
 1.00000e+00 
 1.00000e+00 
 1.00000e+00 
 1.00000e+00 
 1.00000e+00 
 1.00000e+00 
 1.00000e+00 
       00001 
 1.00000e+00 
 1.00000e+00 
 1.00000e+00 
 1.00000e+00 
 1.00000e+00 
 1.00000e+00 
 1.00000e+00 
 1.00000e+00 
       00001 
 1.00000e+00 
 1.00000e+00 
 1.00000e+00 
 1.00000e+00 
       00001 
 1.00000e+00 
 1.00000e+00 
 1.00000e+00 
       00001 
 1.00000e+00 
 1.00000e+00 
 1.00000e+00 
 1.00000e+00 
 1.00000e+00 
       00001 
 1.00000e+00 
       00001 
 1.00000e+00 
       00001 
 1.00000e+00 
 1.00000e+00 
       00001 
       00001 
 1.00000e+00 
 1.00000e+00 
 1.00000e+00 
 1.00000e+00 
 1.00000e+00 
 1.00000e+00 
 1.00000e+00 
 1.00000e+00 
       00001 
 1.00000e+00 
 1.00000e+00 
 1.00000e+00 
 7.03423e-17 
 1.40551e-16 
-2.01733e-17 
-5.01561e-18 
 3.70758e-18 
 8.66746e-19 
-2.15506e-19 
-6.17876e-19 
 3.28748e-19 
-1.08757e-19 
 5.31293e-20 
-5.38607e-20 
 5.50890e-20 
-3.97725e-20 
 2.11580e-20 
-8.98558e-21 
 3.23004e-21 
-9.27895e-22 
 1.19032e-22 
 9.06155e-23 
-9.74757e-23 
 6.12182e-23 
-3.06235e-23 
 1.31173e-23 
-4.83128e-24 
 1.44780e-24 
-4.27771e-25 
 7.56849e-26 
 3.83169e-26 
-5.64720e-26 
 4.13337e-26 
-2.59913e-26 
 1.52334e-26 
-8.40580e-27 
 4.34060e-27 
-2.07430e-27 
 9.05655e-28 
-3.57748e-28 
 1.28836e-28 
-4.51271e-29 
 1.82632e-29 
-9.92127e-30 
 6.63387e-30 
-4.26505e-30 
 2.60025e-30 
-1.44398e-30 
 7.31860e-31 
-3.41973e-31 
 1.49246e-31 
-6.19872e-32 
 2.50603e-32 
-9.97504e-33 
 3.80185e-33 
-1.24258e-33 
 2.18292e-34 
 1.28297e-34 
-1.89555e-34 
 1.52712e-34 
-9.95277e-35 
 5.76882e-35 
-3.10909e-35 
 1.60121e-35 
-8.00807e-36 
 3.90685e-36 
-1.84413e-36 
 8.23815e-37 
-3.33679e-37 
 1.10924e-37 
-1.93548e-38 
-1.14961e-38 
 1.70482e-38 
-1.39963e-38 
 9.37326e-39 
-5.58066e-39 
 3.05468e-39 
-1.56225e-39 
 7.52523e-40 
-3.42371e-40 
 1.46966e-40 
-5.93275e-41 
 2.25068e-41 
-8.15985e-42 
 3.05055e-42 
-1.43437e-42 
 1.08361e-42 
       00001 
 1.00000e+00 
 1.00000e+00 
 1.00000e+00 
 1.00000e+00 
       00001 
 1.00000e+00 
 1.00000e+00 
 1.00000e+00 
       00001 
 1.00000e+00 
 1.00000e+00 
 1.00000e+00 
 1.00000e+00 
       00001 
       00001 
       00001 
 1.00000e+00 
 1.00000e+00 
       00001 
       00001 
 1.00000e+00 
 1.00000e+00 
 1.00000e+00 
 1.00000e+00 
 1.00000e+00 
 1.00000e+00 
 1.00000e+00 
 1.00000e+00 
 1.00000e+00 
 1.00000e+00 
 1.00000e+00 
 1.00000e+00 
 1.00000e+00 
 1.00000e+00 
       00001 
       00001 
 1.00000e+00 
       00001 
 1.00000e+00 
 1.00000e+00 
 1.00000e+00 
 1.00000e+00 
       00001 
       00001 
 1.00000e+00 
       00001 
 1.00000e+00 
       00001 
       00001 
 1.00000e+00 
       00001 
 1.00000e+00 
 1.00000e+00 
 1.00000e+00 
 1.00000e+00 
 1.00000e+00 
 1.00000e+00 
       00001 
       00001 
 1.00000e+00 
       00001 
 1.00000e+00 
       00001 
       00001 
       00001 
 1.00000e+00 
       00001 
       00001 
 1.00000e+00 
       00001 
 1.00000e+00 
       00001 
       00001 
 1.00000e+00 
 1.00000e+00 
 1.00000e+00 
 1.00000e+00 
       00001 
       00001 
       00001 
 1.00000e+00 
 1.00000e+00 
 1.00000e+00 
       00001 
       00001 
 1.00000e+00 
 1.00000e+00 
       00001 
 1.00000e+00 
 1.00000e+00 
 1.00000e+00 
 1.00000e+00 
 1.00000e+00 
       00001 
 1.00000e+00 
 1.00000e+00 
       00001 
       00001 
       00001 
 1.00000e+00 
 1.00000e+00 
 1.00000e+00 
 1.00000e+00 
 1.00000e+00 
 1.00000e+00 
 1.00000e+00 
 1.00000e+00 
       00001 
 1.00000e+00 
 1.00000e+00 
 1.00000e+00 
 1.00000e+00 
 1.00000e+00 
 1.00000e+00 
 1.00000e+00 
 1.00000e+00 
 7.62459e-01 
 7.00948e-17 
-5.00683e-18 
-4.62359e-18 
-5.24518e-18 
 4.70759e-18 
-1.16483e-18 
 4.07728e-19 
-1.74685e-19 
 3.53943e-19 
-3.68155e-19 
 2.31522e-19 
-1.04088e-19 
 3.87490e-20 
-1.26821e-20 
 2.80023e-21 
 3.40092e-22 
-8.37315e-22 
 6.09788e-22 
-3.30226e-22 
 1.47412e-22 
-5.85250e-23 
 1.92353e-23 
-3.68078e-24 
 1.32131e-24 
-1.18239e-25 
-4.48174e-25 
 3.59751e-25 
-2.32954e-25 
 1.40939e-25 
-8.06904e-26 
 4.34393e-26 
-2.17265e-26 
 9.93921e-27 
-4.08525e-27 
 1.49035e-27 
-4.92970e-28 
 1.69154e-28 
-7.90291e-29 
 5.15480e-29 
-3.60621e-29 
 2.37930e-29 
-1.40626e-29 
 7.46267e-30 
-3.60722e-30 
 1.60746e-30 
-6.71837e-31 
 2.70626e-31 
-1.08215e-31 
 4.30566e-32 
-1.59998e-32 
 4.54273e-33 
-5.57257e-35 
-1.24844e-33 
 1.25911e-33 
-8.99448e-34 
 5.46788e-34 
-3.02217e-34 
 1.57684e-34 
-7.95707e-35 
 3.93080e-35 
-1.89799e-35 
 8.81735e-36 
-3.81819e-36 
 1.44919e-36 
-4.05283e-37 
 3.40252e-39 
 1.10720e-37 
-1.12801e-37 
 8.28110e-38 
-5.21131e-38 
 2.96728e-38 
-1.56570e-38 
 7.74842e-39 
-3.61576e-39 
 1.59145e-39 
-6.58060e-40 
 2.54098e-40 
-9.15883e-41 
 3.17854e-41 
-1.20710e-41 
 6.42313e-42 
-5.30529e-42 
 1.00000e+00 
 1.00000e+00 
 1.00000e+00 
 1.00000e+00 
 1.00000e+00 
 1.00000e+00 
 1.00000e+00 
 1.00000e+00 
 1.00000e+00 
 1.00000e+00 
 1.00000e+00 
 1.00000e+00 
 1.00000e+00 
 1.00000e+00 
       00001 
 1.00000e+00 
 1.00000e+00 
 1.00000e+00 
 1.00000e+00 
 1.00000e+00 
 1.00000e+00 
 1.00000e+00 
 1.00000e+00 
 1.00000e+00 
 1.00000e+00 
 1.00000e+00 
 1.00000e+00 
 1.00000e+00 
       00001 
 1.00000e+00 
 1.00000e+00 
 1.00000e+00 
 1.00000e+00 
 1.00000e+00 
 1.00000e+00 
 1.00000e+00 
 1.00000e+00 
 1.00000e+00 
 1.00000e+00 
 1.00000e+00 
 1.00000e+00 
 1.00000e+00 
 1.00000e+00 
       00001 
       00001 
 1.00000e+00 
 1.00000e+00 
 1.00000e+00 
 1.00000e+00 
 1.00000e+00 
       00001 
 1.00000e+00 
 1.00000e+00 
 1.00000e+00 
 1.00000e+00 
 1.00000e+00 
 1.00000e+00 
 1.00000e+00 
 1.00000e+00 
 1.00000e+00 
 1.00000e+00 
 1.00000e+00 
 1.00000e+00 
 1.00000e+00 
 1.00000e+00 
 1.00000e+00 
 1.00000e+00 
       00001 
       00001 
 1.00000e+00 
 1.00000e+00 
       00001 
 1.00000e+00 
 1.00000e+00 
 1.00000e+00 
 1.00000e+00 
 1.00000e+00 
 1.00000e+00 
 1.00000e+00 
 1.00000e+00 
 1.00000e+00 
 1.00000e+00 
 1.00000e+00 
 1.00000e+00 
 1.00000e+00 
 1.00000e+00 
 1.00000e+00 
 1.00000e+00 
 1.00000e+00 
 1.00000e+00 
 1.00000e+00 
 1.00000e+00 
 1.00000e+00 
 1.00000e+00 
 1.00000e+00 
       00001 
 1.00000e+00 
 1.00000e+00 
 1.00000e+00 
 1.00000e+00 
 1.00000e+00 
 1.00000e+00 
 1.00000e+00 
 1.00000e+00 
 1.00000e+00 
 1.00000e+00 
 1.00000e+00 
       00001 
 1.00000e+00 
 1.00000e+00 
 1.00000e+00 
 1.00000e+00 
       00001 
 1.00000e+00 
       00001 
 1.00000e+00 
 1.00000e+00 
 1.00000e+00 
       00001 
 1.00000e+00 
 7.03488e-17 
 1.02366e-16 
-2.83692e-18 
 9.60341e-18 
 1.04317e-18 
 6.20900e-19 
-2.75812e-18 
 2.47165e-18 
-1.23218e-18 
 4.46337e-19 
-1.57983e-19 
 4.67702e-20 
-4.10281e-21 
-6.45836e-21 
 5.70984e-21 
-3.50735e-21 
 1.66766e-21 
-6.38715e-22 
 2.69347e-22 
-6.63076e-23 
-1.20132e-23 
-1.15128e-23 
-3.67352e-24 
 3.14218e-24 
-2.05054e-24 
 1.27493e-24 
-7.55808e-25 
 4.23906e-25 
-2.22092e-25 
 1.06991e-25 
-4.63497e-26 
 1.75885e-26 
-5.75772e-27 
 1.71940e-27 
-6.27097e-28 
 3.81375e-28 
-2.89988e-28 
 2.07072e-28 
-1.33198e-28 
 7.47236e-29 
-3.76855e-29 
 1.73007e-29 
-7.32549e-30 
 2.93418e-30 
-1.15894e-30 
 4.67079e-31 
-1.87473e-31 
 6.63171e-32 
-1.38679e-32 
-5.47286e-33 
 9.50126e-33 
-7.84628e-33 
 5.10527e-33 
-2.92142e-33 
 1.54917e-33 
-7.87393e-34 
 3.91738e-34 
-1.92004e-34 
 9.18427e-35 
-4.18312e-35 
 1.73656e-35 
-5.98830e-36 
 1.18601e-36 
 4.92467e-37 
-8.33075e-37 
 7.02053e-37 
-4.74586e-37 
 2.83243e-37 
-1.54803e-37 
 7.88602e-38 
-3.77772e-38 
 1.70639e-38 
-7.24696e-39 
 2.87079e-39 
-1.05044e-39 
 3.55665e-40 
-1.18438e-40 
 4.82543e-41 
-3.09281e-41 
 2.79818e-41 
 1.00000e+00 
       00001 
 1.00000e+00 
 1.00000e+00 
       00001 
 1.00000e+00 
       00001 
 1.00000e+00 
 1.00000e+00 
       00001 
 1.00000e+00 
 1.00000e+00 
 1.00000e+00 
 1.00000e+00 
 1.00000e+00 
 1.00000e+00 
 1.00000e+00 
 1.00000e+00 
       00001 
 1.00000e+00 