<?xml version="1.0" encoding="utf-8"?>
<VTKFile byte_order="LittleEndian" type="UnstructuredGrid" version="0.1">
   <UnstructuredGrid>
      <Piece NumberOfCells="720" NumberOfPoints="768">
         <Points>
            <DataArray Name="Points" NumberOfComponents="3" format="ascii" type="Float32">
0.2121 0.2121 0.0000
0.2647 0.2647 0.0000
0.3172 0.3172 0.0000
0.3697 0.3697 0.0000
0.4222 0.4222 0.0000
0.4748 0.4748 0.0000
0.5273 0.5273 0.0000
0.5798 0.5798 0.0000
0.6323 0.6323 0.0000
0.6849 0.6849 0.0000
0.7374 0.7374 0.0000
0.7899 0.7899 0.0000
0.8424 0.8424 0.0000
0.8950 0.8950 0.0000
0.9475 0.9475 0.0000
1.0000 1.0000 0.0000
0.1921 0.2305 0.0000
0.2348 0.2818 0.0000
0.2776 0.3331 0.0000
0.3203 0.3844 0.0000
0.3631 0.4357 0.0000
0.4058 0.4870 0.0000
0.4486 0.5383 0.0000
0.4913 0.5896 0.0000
0.5341 0.6409 0.0000
0.5768 0.6922 0.0000
0.6196 0.7435 0.0000
0.6623 0.7948 0.0000
0.7051 0.8461 0.0000
0.7478 0.8974 0.0000
0.7906 0.9487 0.0000
0.8333 1.0000 0.0000
0.1664 0.2496 0.0000
0.1998 0.2996 0.0000
0.2331 0.3497 0.0000
0.2665 0.3997 0.0000
0.2998 0.4497 0.0000
0.3332 0.4997 0.0000
0.3665 0.5498 0.0000
0.3999 0.5998 0.0000
0.4332 0.6498 0.0000
0.4666 0.6998 0.0000
0.4999 0.7499 0.0000
0.5333 0.7999 0.0000
0.5666 0.8499 0.0000
0.6000 0.8999 0.0000
0.6333 0.9500 0.0000
0.6667 1.0000 0.0000
0.1342 0.2683 0.0000
0.1586 0.3171 0.0000
0.1829 0.3659 0.0000
0.2073 0.4147 0.0000
0.2317 0.4634 0.0000
0.2561 0.5122 0.0000
0.2805 0.5610 0.0000
0.3049 0.6098 0.0000
0.3293 0.6586 0.0000
0.3537 0.7073 0.0000
0.3781 0.7561 0.0000
0.4024 0.8049 0.0000
0.4268 0.8537 0.0000
0.4512 0.9024 0.0000
0.4756 0.9512 0.0000
0.5000 1.0000 0.0000
0.0949 0.2846 0.0000
0.1108 0.3323 0.0000
0.1267 0.3800 0.0000
0.1426 0.4277 0.0000
0.1585 0.4754 0.0000
0.1744 0.5231 0.0000
0.1903 0.5708 0.0000
0.2062 0.6185 0.0000
0.2220 0.6661 0.0000
0.2379 0.7138 0.0000
0.2538 0.7615 0.0000
0.2697 0.8092 0.0000
0.2856 0.8569 0.0000
0.3015 0.9046 0.0000
0.3174 0.9523 0.0000
0.3333 1.0000 0.0000
0.0493 0.2959 0.0000
0.0571 0.3429 0.0000
0.0650 0.3898 0.0000
0.0728 0.4367 0.0000
0.0806 0.4837 0.0000
0.0884 0.5306 0.0000
0.0963 0.5776 0.0000
0.1041 0.6245 0.0000
0.1119 0.6714 0.0000
0.1197 0.7184 0.0000
0.1276 0.7653 0.0000
0.1354 0.8122 0.0000
0.1432 0.8592 0.0000
0.1510 0.9061 0.0000
0.1588 0.9531 0.0000
0.1667 1.0000 0.0000
0.0000 0.3000 0.0000
0.0000 0.3467 0.0000
0.0000 0.3933 0.0000
0.0000 0.4400 0.0000
0.0000 0.4867 0.0000
0.0000 0.5333 0.0000
0.0000 0.5800 0.0000
0.0000 0.6267 0.0000
0.0000 0.6733 0.0000
0.0000 0.7200 0.0000
0.0000 0.7667 0.0000
0.0000 0.8133 0.0000
0.0000 0.8600 0.0000
0.0000 0.9067 0.0000
0.0000 0.9533 0.0000
0.0000 1.0000 0.0000
-0.0493 0.2959 0.0000
-0.0571 0.3429 0.0000
-0.0650 0.3898 0.0000
-0.0728 0.4367 0.0000
-0.0806 0.4837 0.0000
-0.0884 0.5306 0.0000
-0.0963 0.5776 0.0000
-0.1041 0.6245 0.0000
-0.1119 0.6714 0.0000
-0.1197 0.7184 0.0000
-0.1276 0.7653 0.0000
-0.1354 0.8122 0.0000
-0.1432 0.8592 0.0000
-0.1510 0.9061 0.0000
-0.1588 0.9531 0.0000
-0.1667 1.0000 0.0000
-0.0949 0.2846 0.0000
-0.1108 0.3323 0.0000
-0.1267 0.3800 0.0000
-0.1426 0.4277 0.0000
-0.1585 0.4754 0.0000
-0.1744 0.5231 0.0000
-0.1903 0.5708 0.0000
-0.2062 0.6185 0.0000
-0.2220 0.6661 0.0000
-0.2379 0.7138 0.0000
-0.2538 0.7615 0.0000
-0.2697 0.8092 0.0000
-0.2856 0.8569 0.0000
-0.3015 0.9046 0.0000
-0.3174 0.9523 0.0000
-0.3333 1.0000 0.0000
-0.1342 0.2683 0.0000
-0.1586 0.3171 0.0000
-0.1829 0.3659 0.0000
-0.2073 0.4147 0.0000
-0.2317 0.4634 0.0000
-0.2561 0.5122 0.0000
-0.2805 0.5610 0.0000
-0.3049 0.6098 0.0000
-0.3293 0.6586 0.0000
-0.3537 0.7073 0.0000
-0.3781 0.7561 0.0000
-0.4024 0.8049 0.0000
-0.4268 0.8537 0.0000
-0.4512 0.9024 0.0000
-0.4756 0.9512 0.0000
-0.5000 1.0000 0.0000
-0.1664 0.2496 0.0000
-0.1998 0.2996 0.0000
-0.2331 0.3497 0.0000
-0.2665 0.3997 0.0000
-0.2998 0.4497 0.0000
-0.3332 0.4997 0.0000
-0.3665 0.5498 0.0000
-0.3999 0.5998 0.0000
-0.4332 0.6498 0.0000
-0.4666 0.6998 0.0000
-0.4999 0.7499 0.0000
-0.5333 0.7999 0.0000
-0.5666 0.8499 0.0000
-0.6000 0.8999 0.0000
-0.6333 0.9500 0.0000
-0.6667 1.0000 0.0000
-0.1921 0.2305 0.0000
-0.2348 0.2818 0.0000
-0.2776 0.3331 0.0000
-0.3203 0.3844 0.0000
-0.3631 0.4357 0.0000
-0.4058 0.4870 0.0000
-0.4486 0.5383 0.0000
-0.4913 0.5896 0.0000
-0.5341 0.6409 0.0000
-0.5768 0.6922 0.0000
-0.6196 0.7435 0.0000
-0.6623 0.7948 0.0000
-0.7051 0.8461 0.0000
-0.7478 0.8974 0.0000
-0.7906 0.9487 0.0000
-0.8333 1.0000 0.0000
-0.2121 0.2121 0.0000
-0.2647 0.2647 0.0000
-0.3172 0.3172 0.0000
-0.3697 0.3697 0.0000
-0.4222 0.4222 0.0000
-0.4748 0.4748 0.0000
-0.5273 0.5273 0.0000
-0.5798 0.5798 0.0000
-0.6323 0.6323 0.0000
-0.6849 0.6849 0.0000
-0.7374 0.7374 0.0000
-0.7899 0.7899 0.0000
-0.8424 0.8424 0.0000
-0.8950 0.8950 0.0000
-0.9475 0.9475 0.0000
-1.0000 1.0000 0.0000
-0.2305 0.1921 0.0000
-0.2818 0.2348 0.0000
-0.3331 0.2776 0.0000
-0.3844 0.3203 0.0000
-0.4357 0.3631 0.0000
-0.4870 0.4058 0.0000
-0.5383 0.4486 0.0000
-0.5896 0.4913 0.0000
-0.6409 0.5341 0.0000
-0.6922 0.5768 0.0000
-0.7435 0.6196 0.0000
-0.7948 0.6623 0.0000
-0.8461 0.7051 0.0000
-0.8974 0.7478 0.0000
-0.9487 0.7906 0.0000
-1.0000 0.8333 0.0000
-0.2496 0.1664 0.0000
-0.2996 0.1998 0.0000
-0.3497 0.2331 0.0000
-0.3997 0.2665 0.0000
-0.4497 0.2998 0.0000
-0.4997 0.3332 0.0000
-0.5498 0.3665 0.0000
-0.5998 0.3999 0.0000
-0.6498 0.4332 0.0000
-0.6998 0.4666 0.0000
-0.7499 0.4999 0.0000
-0.7999 0.5333 0.0000
-0.8499 0.5666 0.0000
-0.8999 0.6000 0.0000
-0.9500 0.6333 0.0000
-1.0000 0.6667 0.0000
-0.2683 0.1342 0.0000
-0.3171 0.1586 0.0000
-0.3659 0.1829 0.0000
-0.4147 0.2073 0.0000
-0.4634 0.2317 0.0000
-0.5122 0.2561 0.0000
-0.5610 0.2805 0.0000
-0.6098 0.3049 0.0000
-0.6586 0.3293 0.0000
-0.7073 0.3537 0.0000
-0.7561 0.3781 0.0000
-0.8049 0.4024 0.0000
-0.8537 0.4268 0.0000
-0.9024 0.4512 0.0000
-0.9512 0.4756 0.0000
-1.0000 0.5000 0.0000
-0.2846 0.0949 0.0000
-0.3323 0.1108 0.0000
-0.3800 0.1267 0.0000
-0.4277 0.1426 0.0000
-0.4754 0.1585 0.0000
-0.5231 0.1744 0.0000
-0.5708 0.1903 0.0000
-0.6185 0.2062 0.0000
-0.6661 0.2220 0.0000
-0.7138 0.2379 0.0000
-0.7615 0.2538 0.0000
-0.8092 0.2697 0.0000
-0.8569 0.2856 0.0000
-0.9046 0.3015 0.0000
-0.9523 0.3174 0.0000
-1.0000 0.3333 0.0000
-0.2959 0.0493 0.0000
-0.3429 0.0571 0.0000
-0.3898 0.0650 0.0000
-0.4367 0.0728 0.0000
-0.4837 0.0806 0.0000
-0.5306 0.0884 0.0000
-0.5776 0.0963 0.0000
-0.6245 0.1041 0.0000
-0.6714 0.1119 0.0000
-0.7184 0.1197 0.0000
-0.7653 0.1276 0.0000
-0.8122 0.1354 0.0000
-0.8592 0.1432 0.0000
-0.9061 0.1510 0.0000
-0.9531 0.1588 0.0000
-1.0000 0.1667 0.0000
-0.3000 0.0000 0.0000
-0.3467 0.0000 0.0000
-0.3933 0.0000 0.0000
-0.4400 0.0000 0.0000
-0.4867 0.0000 0.0000
-0.5333 0.0000 0.0000
-0.5800 0.0000 0.0000
-0.6267 0.0000 0.0000
-0.6733 0.0000 0.0000
-0.7200 0.0000 0.0000
-0.7667 0.0000 0.0000
-0.8133 0.0000 0.0000
-0.8600 0.0000 0.0000
-0.9067 0.0000 0.0000
-0.9533 0.0000 0.0000
-1.0000 0.0000 0.0000
-0.2959 -0.0493 0.0000
-0.3429 -0.0571 0.0000
-0.3898 -0.0650 0.0000
-0.4367 -0.0728 0.0000
-0.4837 -0.0806 0.0000
-0.5306 -0.0884 0.0000
-0.5776 -0.0963 0.0000
-0.6245 -0.1041 0.0000
-0.6714 -0.1119 0.0000
-0.7184 -0.1197 0.0000
-0.7653 -0.1276 0.0000
-0.8122 -0.1354 0.0000
-0.8592 -0.1432 0.0000
-0.9061 -0.1510 0.0000
-0.9531 -0.1588 0.0000
-1.0000 -0.1667 0.0000
-0.2846 -0.0949 0.0000
-0.3323 -0.1108 0.0000
-0.3800 -0.1267 0.0000
-0.4277 -0.1426 0.0000
-0.4754 -0.1585 0.0000
-0.5231 -0.1744 0.0000
-0.5708 -0.1903 0.0000
-0.6185 -0.2062 0.0000
-0.6661 -0.2220 0.0000
-0.7138 -0.2379 0.0000
-0.7615 -0.2538 0.0000
-0.8092 -0.2697 0.0000
-0.8569 -0.2856 0.0000
-0.9046 -0.3015 0.0000
-0.9523 -0.3174 0.0000
-1.0000 -0.3333 0.0000
-0.2683 -0.1342 0.0000
-0.3171 -0.1586 0.0000
-0.3659 -0.1829 0.0000
-0.4147 -0.2073 0.0000
-0.4634 -0.2317 0.0000
-0.5122 -0.2561 0.0000
-0.5610 -0.2805 0.0000
-0.6098 -0.3049 0.0000
-0.6586 -0.3293 0.0000
-0.7073 -0.3537 0.0000
-0.7561 -0.3781 0.0000
-0.8049 -0.4024 0.0000
-0.8537 -0.4268 0.0000
-0.9024 -0.4512 0.0000
-0.9512 -0.4756 0.0000
-1.0000 -0.5000 0.0000
-0.2496 -0.1664 0.0000
-0.2996 -0.1998 0.0000
-0.3497 -0.2331 0.0000
-0.3997 -0.2665 0.0000
-0.4497 -0.2998 0.0000
-0.4997 -0.3332 0.0000
-0.5498 -0.3665 0.0000
-0.5998 -0.3999 0.0000
-0.6498 -0.4332 0.0000
-0.6998 -0.4666 0.0000
-0.7499 -0.4999 0.0000
-0.7999 -0.5333 0.0000
-0.8499 -0.5666 0.0000
-0.8999 -0.6000 0.0000
-0.9500 -0.6333 0.0000
-1.0000 -0.6667 0.0000
-0.2305 -0.1921 0.0000
-0.2818 -0.2348 0.0000
-0.3331 -0.2776 0.0000
-0.3844 -0.3203 0.0000
-0.4357 -0.3631 0.0000
-0.4870 -0.4058 0.0000
-0.5383 -0.4486 0.0000
-0.5896 -0.4913 0.0000
-0.6409 -0.5341 0.0000
-0.6922 -0.5768 0.0000
-0.7435 -0.6196 0.0000
-0.7948 -0.6623 0.0000
-0.8461 -0.7051 0.0000
-0.8974 -0.7478 0.0000
-0.9487 -0.7906 0.0000
-1.0000 -0.8333 0.0000
-0.2121 -0.2121 0.0000
-0.2647 -0.2647 0.0000
-0.3172 -0.3172 0.0000
-0.3697 -0.3697 0.0000
-0.4222 -0.4222 0.0000
-0.4748 -0.4748 0.0000
-0.5273 -0.5273 0.0000
-0.5798 -0.5798 0.0000
-0.6323 -0.6323 0.0000
-0.6849 -0.6849 0.0000
-0.7374 -0.7374 0.0000
-0.7899 -0.7899 0.0000
-0.8424 -0.8424 0.0000
-0.8950 -0.8950 0.0000
-0.9475 -0.9475 0.0000
-1.0000 -1.0000 0.0000
-0.1921 -0.2305 0.0000
-0.2348 -0.2818 0.0000
-0.2776 -0.3331 0.0000
-0.3203 -0.3844 0.0000
-0.3631 -0.4357 0.0000
-0.4058 -0.4870 0.0000
-0.4486 -0.5383 0.0000
-0.4913 -0.5896 0.0000
-0.5341 -0.6409 0.0000
-0.5768 -0.6922 0.0000
-0.6196 -0.7435 0.0000
-0.6623 -0.7948 0.0000
-0.7051 -0.8461 0.0000
-0.7478 -0.8974 0.0000
-0.7906 -0.9487 0.0000
-0.8333 -1.0000 0.0000
-0.1664 -0.2496 0.0000
-0.1998 -0.2996 0.0000
-0.2331 -0.3497 0.0000
-0.2665 -0.3997 0.0000
-0.2998 -0.4497 0.0000
-0.3332 -0.4997 0.0000
-0.3665 -0.5498 0.0000
-0.3999 -0.5998 0.0000
-0.4332 -0.6498 0.0000
-0.4666 -0.6998 0.0000
-0.4999 -0.7499 0.0000
-0.5333 -0.7999 0.0000
-0.5666 -0.8499 0.0000
-0.6000 -0.8999 0.0000
-0.6333 -0.9500 0.0000
-0.6667 -1.0000 0.0000
-0.1342 -0.2683 0.0000
-0.1586 -0.3171 0.0000
-0.1829 -0.3659 0.0000
-0.2073 -0.4147 0.0000
-0.2317 -0.4634 0.0000
-0.2561 -0.5122 0.0000
-0.2805 -0.5610 0.0000
[...]
         <PointData>
            <DataArray Name="fValues" NumberOfComponents="3" format="ascii" type="Float64">
 4.91840e-01  1.12994e-01        00000 
 5.03710e-01  1.10477e-01        00000 
 5.13054e-01  1.04289e-01        00000 
 5.25501e-01  9.52798e-02        00000 
 5.50045e-01  8.65941e-02        00000 
 5.80959e-01  7.70567e-02        00000 
 6.16440e-01  6.88953e-02        00000 
 6.51436e-01  6.06560e-02        00000 
 6.85629e-01  5.08003e-02        00000 
 7.23878e-01  3.88335e-02        00000 
 7.65369e-01  3.02936e-02        00000 
 8.10396e-01  2.21424e-02        00000 
 8.56204e-01  1.39192e-02        00000 
 9.00078e-01  5.33329e-03        00000 
 9.50798e-01  3.23347e-03        00000 
 9.97721e-01  1.70334e-03        00000 
 4.87253e-01  1.09431e-01        00000 
 4.97396e-01  1.06991e-01        00000 
 5.05803e-01  1.00927e-01        00000 
 5.18747e-01  9.36271e-02        00000 
 5.35510e-01  8.53641e-02        00000 
 5.60457e-01  7.79632e-02        00000 
 5.90508e-01  7.08865e-02        00000 
 6.21449e-01  6.29794e-02        00000 
 6.53755e-01  5.64059e-02        00000 
 6.87375e-01  4.89653e-02        00000 
 7.23828e-01  4.04183e-02        00000 
 7.57116e-01  3.39320e-02        00000 
 7.95831e-01  2.54544e-02        00000 
 8.34664e-01  1.22454e-02        00000 
 8.72775e-01  4.32439e-03        00000 
 9.15303e-01  1.50328e-04        00000 
 4.77366e-01  1.03769e-01        00000 
 4.86720e-01  1.01233e-01        00000 
 4.93549e-01  9.56447e-02        00000 
 5.06452e-01  8.87038e-02        00000 
 5.19651e-01  8.10025e-02        00000 
 5.39453e-01  7.36586e-02        00000 
 5.64527e-01  6.79940e-02        00000 
 5.89657e-01  6.19557e-02        00000 
 6.15956e-01  5.64647e-02        00000 
 6.42717e-01  4.92899e-02        00000 
 6.71318e-01  4.21371e-02        00000 
 7.06528e-01  3.61870e-02        00000 
 7.37846e-01  2.75275e-02        00000 
 7.66797e-01  1.60285e-02        00000 
 7.98557e-01  5.27831e-03        00000 
 8.30985e-01  2.21351e-04        00000 
 4.62659e-01  9.63067e-02        00000 
 4.70998e-01  9.36157e-02        00000 
 4.77035e-01  8.87029e-02        00000 
 4.87314e-01  8.17730e-02        00000 
 4.99945e-01  7.40806e-02        00000 
 5.14416e-01  6.67005e-02        00000 
 5.35709e-01  6.18587e-02        00000 
 5.55488e-01  5.64620e-02        00000 
 5.76885e-01  5.19392e-02        00000 
 5.98495e-01  4.66401e-02        00000 
 6.18944e-01  4.03322e-02        00000 
 6.43229e-01  3.36448e-02        00000 
 6.69438e-01  2.50354e-02        00000 
 6.94959e-01  1.43397e-02        00000 
 7.20136e-01  5.10188e-03        00000 
 7.50558e-01  1.92311e-03        00000 
 4.42748e-01  8.76721e-02        00000 
 4.49537e-01  8.47069e-02        00000 
 4.55712e-01  8.00211e-02        00000 
 4.62206e-01  7.32342e-02        00000 
 4.72606e-01  6.54061e-02        00000 
 4.84670e-01  6.01488e-02        00000 
 4.99482e-01  5.50609e-02        00000 
 5.15922e-01  5.06372e-02        00000 
 5.33695e-01  4.48177e-02        00000 
 5.49847e-01  3.95081e-02        00000 
 5.68229e-01  3.38765e-02        00000 
 5.88122e-01  2.75453e-02        00000 
 6.05488e-01  1.95936e-02        00000 
 6.24777e-01  1.18796e-02        00000 
 6.44461e-01  4.96940e-03        00000 
 6.67604e-01  3.99425e-03        00000 
 4.14427e-01  7.84668e-02        00000 
 4.20395e-01  7.48703e-02        00000 
 4.28170e-01  7.03926e-02        00000 
 4.33930e-01  6.45746e-02        00000 
 4.39625e-01  5.80726e-02        00000 
 4.49913e-01  5.28916e-02        00000 
 4.58405e-01  4.83710e-02        00000 
 4.66987e-01  4.35047e-02        00000 
 4.81098e-01  3.82614e-02        00000 
 4.94778e-01  3.28567e-02        00000 
 5.10227e-01  2.77082e-02        00000 
 5.25245e-01  2.17124e-02        00000 
 5.38469e-01  1.55854e-02        00000 
 5.51305e-01  9.49216e-03        00000 
 5.64574e-01  3.91120e-03        00000 
 5.85705e-01  2.91812e-03        00000 
 3.78272e-01  6.84614e-02        00000 
 3.85651e-01  6.56020e-02        00000 
 3.91539e-01  6.22731e-02        00000 
 3.95256e-01  5.71085e-02        00000 
 3.99353e-01  5.21610e-02        00000 
 4.05282e-01  4.74407e-02        00000 
 4.12999e-01  4.36494e-02        00000 
 4.19343e-01  3.93588e-02        00000 
 4.27265e-01  3.46029e-02        00000 
 4.35396e-01  2.89207e-02        00000 
 4.46165e-01  2.36051e-02        00000 
 4.59227e-01  1.98352e-02        00000 
 4.69419e-01  1.53122e-02        00000 
 4.81015e-01  1.05434e-02        00000 
 4.86241e-01  4.82214e-03        00000 
 4.99331e-01 -3.58131e-04        00000 
 3.38541e-01  6.20020e-02        00000 
 3.42524e-01  5.90954e-02        00000 
 3.47370e-01  5.61447e-02        00000 
 3.49542e-01  5.20959e-02        00000 
 3.53001e-01  4.82130e-02        00000 
 3.58586e-01  4.46047e-02        00000 
 3.63689e-01  4.16592e-02        00000 
 3.67254e-01  3.80825e-02        00000 
 3.72791e-01  3.28970e-02        00000 
 3.79692e-01  2.79279e-02        00000 
 3.85687e-01  2.30439e-02        00000 
 3.93204e-01  1.88867e-02        00000 
 3.98538e-01  1.48913e-02        00000 
 4.03156e-01  1.07684e-02        00000 
 4.11492e-01  6.43731e-03        00000 
 4.12963e-01 -3.01090e-03        00000 
 2.98799e-01  5.71172e-02        00000 
 3.00793e-01  5.46722e-02        00000 
 3.03389e-01  5.18862e-02        00000 
 3.09532e-01  5.04415e-02        00000 
 3.12606e-01  4.78093e-02        00000 
 3.16838e-01  4.50078e-02        00000 
 3.18463e-01  4.17303e-02        00000 
 3.18848e-01  3.70407e-02        00000 
 3.20326e-01  3.31803e-02        00000 
 3.21910e-01  2.89057e-02        00000 
 3.23066e-01  2.36884e-02        00000 
 3.23292e-01  1.85218e-02        00000 
 3.27021e-01  1.46787e-02        00000 
 3.28671e-01  1.10692e-02        00000 
 3.34374e-01  5.92650e-03        00000 
 3.33984e-01 -9.59516e-04        00000 
 2.62344e-01  5.24268e-02        00000 
 2.64378e-01  5.25998e-02        00000 
 2.67389e-01  5.16280e-02        00000 
 2.72108e-01  5.10150e-02        00000 
 2.76695e-01  4.94768e-02        00000 
 2.78071e-01  4.69833e-02        00000 
 2.75730e-01  4.26902e-02        00000 
 2.73889e-01  3.95544e-02        00000 
 2.71209e-01  3.55492e-02        00000 
 2.69482e-01  3.03976e-02        00000 
 2.65853e-01  2.57325e-02        00000 
 2.62912e-01  2.07820e-02        00000 
 2.62461e-01  1.69025e-02        00000 
 2.54930e-01  1.19751e-02        00000 
 2.52552e-01  6.82374e-03        00000 
 2.49424e-01 -1.29937e-04        00000 
 2.30240e-01  4.95153e-02        00000 
 2.32201e-01  5.14630e-02        00000 
 2.36041e-01  5.28892e-02        00000 
 2.37311e-01  5.30607e-02        00000 
 2.41725e-01  5.27081e-02        00000 
 2.39407e-01  4.98419e-02        00000 
 2.32885e-01  4.63500e-02        00000 
 2.26926e-01  4.15823e-02        00000 
 2.22029e-01  3.70620e-02        00000 
 2.13928e-01  3.19305e-02        00000 
 2.08643e-01  2.77213e-02        00000 
 2.04045e-01  2.33023e-02        00000 
 1.95474e-01  1.81090e-02        00000 
 1.83738e-01  1.00724e-02        00000 
 1.73106e-01  5.54793e-03        00000 
 1.63352e-01 -1.65308e-03        00000 
 2.05418e-01  4.77994e-02        00000 
 2.05543e-01  5.05709e-02        00000 
 2.07234e-01  5.33656e-02        00000 
 2.12610e-01  5.59491e-02        00000 
 2.11950e-01  5.55472e-02        00000 
 2.06997e-01  5.31137e-02        00000 
 1.96871e-01  4.85434e-02        00000 
 1.86047e-01  4.25455e-02        00000 
 1.73765e-01  3.63811e-02        00000 
 1.66409e-01  3.15515e-02        00000 
 1.58163e-01  2.74769e-02        00000 
 1.44389e-01  2.10150e-02        00000 
 1.27280e-01  1.48592e-02        00000 
 1.03317e-01  7.38690e-03        00000 
 9.63115e-02  4.97487e-03        00000 
 8.24203e-02  1.29352e-03        00000 
 1.86723e-01  4.63310e-02        00000 
 1.85017e-01  5.03111e-02        00000 
 1.88215e-01  5.51733e-02        00000 
 1.88937e-01  5.73357e-02        00000 
 1.84877e-01  5.73184e-02        00000 
 1.75155e-01  5.36667e-02        00000 
 1.63079e-01  4.81570e-02        00000 
 1.48707e-01  4.06545e-02        00000 
 1.38872e-01  3.48656e-02        00000 
 1.21797e-01  2.88947e-02        00000 
 1.04907e-01  2.19028e-02        00000 
 8.79998e-02  1.66137e-02        00000 
 6.67762e-02  1.14436e-02        00000 
 4.43188e-02  9.10026e-03        00000 
 2.30417e-02  2.22146e-03        00000 
-1.82668e-03 -1.01286e-03        00000 
 1.68806e-01  4.47842e-02        00000 
 1.68156e-01  4.96960e-02        00000 
 1.69571e-01  5.48244e-02        00000 
 1.67984e-01  5.79026e-02        00000 
 1.64635e-01  5.88179e-02        00000 
 1.57372e-01  5.67585e-02        00000 
 1.46608e-01  5.25934e-02        00000 
 1.34141e-01  4.68887e-02        00000 
 1.22116e-01  4.12475e-02        00000 
 1.09825e-01  3.54910e-02        00000 
 9.29792e-02  2.89097e-02        00000 
 7.33928e-02  2.19918e-02        00000 
 5.98528e-02  1.86197e-02        00000 
 4.05494e-02  1.14689e-02        00000 
 1.77643e-02  3.26442e-03        00000 
-2.45610e-03 -1.82663e-03        00000 
 1.48738e-01  4.27186e-02        00000 
 1.48162e-01  4.74807e-02        00000 
 1.48526e-01  5.30015e-02        00000 
 1.46579e-01  5.70904e-02        00000 
 1.44304e-01  5.86649e-02        00000 
 1.37729e-01  5.73587e-02        00000 
 1.26114e-01  5.40341e-02        00000 
 1.17668e-01  5.04591e-02        00000 
 1.05184e-01  4.58032e-02        00000 
 9.39393e-02  4.06848e-02        00000 
 8.01782e-02  3.53203e-02        00000 
 6.17020e-02  2.84286e-02        00000 
 4.73490e-02  2.18186e-02        00000 
 2.93378e-02  1.58395e-02        00000 
 1.67415e-02  9.71316e-03        00000 
-2.71185e-04 -5.34039e-04        00000 
 1.27237e-01  3.97051e-02        00000 
 1.24930e-01  4.38428e-02        00000 
 1.26672e-01  4.97942e-02        00000 
 1.25632e-01  5.37398e-02        00000 
 1.22681e-01  5.61234e-02        00000 
 1.16625e-01  5.58190e-02        00000 
 1.07626e-01  5.34314e-02        00000 
 9.96136e-02  5.02327e-02        00000 
 9.00502e-02  4.66537e-02        00000 
 7.95174e-02  4.26308e-02        00000 
 6.79579e-02  3.76751e-02        00000 
 5.54463e-02  3.20989e-02        00000 
 4.27830e-02  2.61371e-02        00000 
 2.69844e-02  1.75006e-02        00000 
 1.11246e-02  8.76832e-03        00000 
-2.40210e-03 -5.55639e-04        00000 
 1.05892e-01  3.56525e-02        00000 
 1.02229e-01  3.93854e-02        00000 
 1.03371e-01  4.45634e-02        00000 
 1.04470e-01  4.85882e-02        00000 
 1.03297e-01  5.19439e-02        00000 
 9.78570e-02  5.29326e-02        00000 
 9.08275e-02  5.17434e-02        00000 
 8.39992e-02  4.93440e-02        00000 
 7.71733e-02  4.56970e-02        00000 
 6.74160e-02  4.20423e-02        00000 
 5.75480e-02  3.81390e-02        00000 
 4.90635e-02  3.33489e-02        00000 
 3.97371e-02  2.60295e-02        00000 
 2.35270e-02  1.76612e-02        00000 
 9.14857e-03  9.52458e-03        00000 
-4.51042e-03  1.70538e-03        00000 
 8.71336e-02  3.21336e-02        00000 
 8.47977e-02  3.52139e-02        00000 
 8.58053e-02  3.97416e-02        00000 
 8.76654e-02  4.38070e-02        00000 
 8.46309e-02  4.69859e-02        00000 
 8.11325e-02  4.90897e-02        00000 
 7.63289e-02  5.05131e-02        00000 
 7.15363e-02  4.91595e-02        00000 
 6.47916e-02  4.66709e-02        00000 
 5.63077e-02  4.35633e-02        00000 
 4.62711e-02  3.95377e-02        00000 
 3.93838e-02  3.34453e-02        00000 
 3.03574e-02  2.49410e-02        00000 
 1.86024e-02  1.75590e-02        00000 
 8.71266e-03  1.04957e-02        00000 
-1.39398e-03  3.09553e-03        00000 
 7.15946e-02  2.95494e-02        00000 
 7.13805e-02  3.18991e-02        00000 
 7.21703e-02  3.50747e-02        00000 
 7.43737e-02  3.90388e-02        00000 
 7.21348e-02  4.16920e-02        00000 
 6.84798e-02  4.37241e-02        00000 
 6.31768e-02  4.45933e-02        00000 
 5.86201e-02  4.56863e-02        00000 
 5.43612e-02  4.53968e-02        00000 
 4.69584e-02  4.26063e-02        00000 
 3.96424e-02  3.81175e-02        00000 
 3.12455e-02  3.12286e-02        00000 
 2.29964e-02  2.24775e-02        00000 
 1.85138e-02  1.51947e-02        00000 
 1.01343e-02  8.41244e-03        00000 
-4.29410e-03  1.38747e-03        00000 
 6.09368e-02  2.68585e-02        00000 
 6.03693e-02  2.92305e-02        00000 
 6.02123e-02  3.13002e-02        00000 
 6.27689e-02  3.46445e-02        00000 
 6.30826e-02  3.68531e-02        00000 
 6.03045e-02  3.83561e-02        00000 
 5.59105e-02  3.90323e-02        00000 
 5.23169e-02  3.94420e-02        00000 
 4.67145e-02  3.86140e-02        00000 
 3.95063e-02  3.58705e-02        00000 
 3.34990e-02  3.20749e-02        00000 
 2.65084e-02  2.63540e-02        00000 
 2.05053e-02  2.00787e-02        00000 
 1.63412e-02  1.40528e-02        00000 
 8.90175e-03  6.87385e-03        00000 
-1.56214e-03 -7.04914e-04        00000 
 5.45970e-02  2.50284e-02        00000 
 5.30519e-02  2.68916e-02        00000 
 5.31910e-02  2.88355e-02        00000 
 5.43427e-02  3.08148e-02        00000 
 5.48223e-02  3.29363e-02        00000 
 5.39232e-02  3.38872e-02        00000 
 5.21412e-02  3.37812e-02        00000 
 4.68338e-02  3.31779e-02        00000 
 4.06779e-02  3.16370e-02        00000 
 3.35829e-02  2.95035e-02        00000 
 2.90811e-02  2.59255e-02        00000 
 2.41600e-02  2.24782e-02        00000 
 1.82702e-02  1.76833e-02        00000 
 1.11713e-02  1.26097e-02        00000 
 5.16650e-03  7.02143e-03        00000 
-1.44954e-03  8.59831e-04        00000 
 5.20306e-02  2.43337e-02        00000 
 5.01687e-02  2.54923e-02        00000 
 5.12149e-02  2.71367e-02        00000 
 5.36839e-02  2.91419e-02        00000 
 5.23464e-02  3.03287e-02        00000 
 4.97646e-02  3.01863e-02        00000 
 4.59394e-02  2.94647e-02        00000 
 4.17335e-02  2.81445e-02        00000 
 3.64052e-02  2.64929e-02        00000 
 3.13609e-02  2.40621e-02        00000 
 2.63007e-02  2.14847e-02        00000 
 2.04893e-02  1.71500e-02        00000 
 1.64670e-02  1.35663e-02        00000 
 9.82099e-03  1.01777e-02        00000 
 2.87657e-03  5.94892e-03        00000 
-7.30445e-04  2.76058e-03        00000 
 5.25500e-02  2.43827e-02        00000 
 5.12470e-02  2.49993e-02        00000 
 5.19721e-02  2.63176e-02        00000 
 5.33571e-02  2.84104e-02        00000 
 5.02141e-02  2.90094e-02        00000 
 4.71273e-02  2.87225e-02        00000 
 4.18424e-02  2.78382e-02        00000 
 3.62573e-02  2.62886e-02        00000 
 3.16940e-02  2.34571e-02        00000 
 2.68371e-02  2.02918e-02        00000 
 2.20152e-02  1.69687e-02        00000 
 1.82082e-02  1.44562e-02        00000 
 1.38534e-02  1.09815e-02        00000 
 7.32320e-03  6.47476e-03        00000 
 1.58810e-03  2.30253e-03        00000 
 3.53645e-04  1.25639e-03        00000 
 5.40079e-02  2.57545e-02        00000 
 5.32266e-02  2.57911e-02        00000 
 5.41265e-02  2.67262e-02        00000 
 5.49566e-02  2.82864e-02        00000 
 5.10835e-02  2.88956e-02        00000 
 4.56099e-02  2.87250e-02        00000 
 3.98009e-02  2.78707e-02        00000 
 3.33780e-02  2.53580e-02        00000 
 2.74061e-02  2.24355e-02        00000 
 2.14315e-02  1.85007e-02        00000 
 1.54690e-02  1.37126e-02        00000 
 1.40128e-02  1.13720e-02        00000 
 1.06642e-02  7.74848e-03        00000 
 4.67465e-03  3.62987e-03        00000 
 1.73492e-03  1.58114e-03        00000 
-3.03609e-03  3.34215e-04        00000 
 5.70053e-02  2.72564e-02        00000 
 5.60018e-02  2.71453e-02        00000 
 5.70222e-02  2.83850e-02        00000 
 5.62855e-02  2.98496e-02        00000 
 5.25158e-02  2.96766e-02        00000 
 4.57770e-02  2.82135e-02        00000 
 3.74051e-02  2.52821e-02        00000 
 2.92854e-02  2.31157e-02        00000 
 2.32866e-02  1.98021e-02        00000 
 1.65314e-02  1.58491e-02        00000 
 1.25466e-02  1.20772e-02        00000 
 1.20071e-02  7.40654e-03        00000 
 6.95190e-03  6.45200e-03        00000 
 4.42322e-03  5.22846e-03        00000 
 1.68454e-03  3.27781e-03        00000 
-3.99998e-04  1.34855e-03        00000 
 6.14388e-02  2.96893e-02        00000 
 5.85302e-02  2.86043e-02        00000 
 6.00782e-02  2.98321e-02        00000 
 5.95444e-02  3.05366e-02        00000 
 5.61784e-02  3.10586e-02        00000 
 5.13157e-02  3.02973e-02        00000 
 4.26255e-02  2.74247e-02        00000 
 3.50218e-02  2.43259e-02        00000 
 2.81140e-02  2.19717e-02        00000 
 2.28895e-02  1.88046e-02        00000 
 1.94732e-02  1.52172e-02        00000 
 1.51932e-02  1.07734e-02        00000 
 9.63684e-03  7.20324e-03        00000 
 6.62964e-03  5.37634e-03        00000 
 3.69399e-04  3.70274e-03        00000 
-1.71448e-03  2.87053e-03        00000 
 6.71416e-02  3.28641e-02        00000 
 6.27053e-02  3.12861e-02        00000 
 6.36235e-02  3.12343e-02        00000 
 6.27153e-02  3.18928e-02        00000 
 5.97063e-02  3.25951e-02        00000 
 5.50220e-02  3.24117e-02        00000 
 4.76700e-02  3.06112e-02        00000 
 4.01090e-02  2.69783e-02        00000 
 3.43374e-02  2.41069e-02        00000 
 2.99952e-02  2.07423e-02        00000 
 2.68155e-02  1.70135e-02        00000 
 2.14022e-02  1.08819e-02        00000 
 1.47853e-02  7.03501e-03        00000 
 7.21999e-03  5.03692e-03        00000 
 3.28820e-03  4.15202e-03        00000 
 2.80165e-03  1.77628e-03        00000 
 7.45966e-02  3.74499e-02        00000 
 7.11668e-02  3.56779e-02        00000 
 6.89188e-02  3.44591e-02        00000 
 6.74372e-02  3.42096e-02        00000 
 6.40822e-02  3.44151e-02        00000 
 6.01624e-02  3.42519e-02        00000 
 5.49117e-02  3.29270e-02        00000 
 4.64038e-02  2.96608e-02        00000 
 3.92184e-02  2.59684e-02        00000 
 3.38064e-02  2.24733e-02        00000 
 2.97558e-02  1.90173e-02        00000 
 2.29440e-02  1.45423e-02        00000 
 1.56050e-02  9.78513e-03        00000 
 1.20055e-02  6.17895e-03        00000 
 2.69045e-03  3.11424e-03        00000 
-1.26865e-03  1.60980e-03        00000 
 8.58473e-02  4.30139e-02        00000 
 8.25114e-02  4.13083e-02        00000 
 7.90050e-02  3.97035e-02        00000 
 7.58092e-02  3.78648e-02        00000 
 7.21466e-02  3.67785e-02        00000 
 6.68687e-02  3.64816e-02        00000 
 6.11725e-02  3.49342e-02        00000 
 5.33057e-02  3.25773e-02        00000 
 4.63688e-02  2.87529e-02        00000 
 3.99627e-02  2.40929e-02        00000 
 3.30473e-02  2.01484e-02        00000 
 2.71078e-02  1.67561e-02        00000 
 1.90986e-02  1.30918e-02        00000 
 1.36092e-02  8.81190e-03        00000 
 2.91755e-03  4.76050e-03        00000 
 1.77041e-03  3.10011e-03        00000 
 1.00306e-01  4.95575e-02        00000 
 9.59297e-02  4.75928e-02        00000 
 9.28045e-02  4.60230e-02        00000 
 8.94922e-02  4.40578e-02        00000 
 8.50171e-02  4.23778e-02        00000 
 7.85139e-02  4.00848e-02        00000 
 7.19574e-02  3.81835e-02        00000 
 6.29452e-02  3.52032e-02        00000 
 5.38416e-02  3.05390e-02        00000 
 4.54706e-02  2.56580e-02        00000 
 3.98546e-02  2.09080e-02        00000 
 3.39717e-02  1.77410e-02        00000 
 2.61677e-02  1.31814e-02        00000 
 1.71208e-02  8.43766e-03        00000 
 5.44477e-03  4.06539e-03        00000 
 1.82904e-03  1.04088e-03        00000 
 1.18988e-01  5.73567e-02        00000 
 1.14523e-01  5.59468e-02        00000 
 1.10567e-01  5.42144e-02        00000 
 1.05755e-01  5.15049e-02        00000 
 9.93714e-02  4.82328e-02        00000 
 9.38723e-02  4.58394e-02        00000 
 8.63398e-02  4.30758e-02        00000 
 7.83252e-02  4.02248e-02        00000 
 6.84333e-02  3.57931e-02        00000 
 5.87105e-02  3.03797e-02        00000 
 4.74324e-02  2.47484e-02        00000 
 3.76734e-02  1.95522e-02        00000 
 2.94386e-02  1.49835e-02        00000 
 2.05253e-02  1.04803e-02        00000 
 9.95622e-03  5.28228e-03        00000 
-1.53176e-04  1.72674e-03        00000 
 1.43819e-01  6.75923e-02        00000 