<?xml version="1.0" encoding="utf-8"?>
<VTKFile byte_order="LittleEndian" type="UnstructuredGrid" version="0.1">
   <UnstructuredGrid>
      <Piece NumberOfCells="720" NumberOfPoints="768">
         <Points>
            <DataArray Name="Points" NumberOfComponents="3" format="ascii" type="Float32">
0.2121 0.2121 0.0000
0.2647 0.2647 0.0000
0.3172 0.3172 0.0000
0.3697 0.3697 0.0000
0.4222 0.4222 0.0000
0.4748 0.4748 0.0000
0.5273 0.5273 0.0000
0.5798 0.5798 0.0000
0.6323 0.6323 0.0000
0.6849 0.6849 0.0000
0.7374 0.7374 0.0000
0.7899 0.7899 0.0000
0.8424 0.8424 0.0000
0.8950 0.8950 0.0000
0.9475 0.9475 0.0000
1.0000 1.0000 0.0000
0.1921 0.2305 0.0000
0.2348 0.2818 0.0000
0.2776 0.3331 0.0000
0.3203 0.3844 0.0000
0.3631 0.4357 0.0000
0.4058 0.4870 0.0000
0.4486 0.5383 0.0000
0.4913 0.5896 0.0000
0.5341 0.6409 0.0000
0.5768 0.6922 0.0000
0.6196 0.7435 0.0000
0.6623 0.7948 0.0000
0.7051 0.8461 0.0000
0.7478 0.8974 0.0000
0.7906 0.9487 0.0000
0.8333 1.0000 0.0000
0.1664 0.2496 0.0000
0.1998 0.2996 0.0000
0.2331 0.3497 0.0000
0.2665 0.3997 0.0000
0.2998 0.4497 0.0000
0.3332 0.4997 0.0000
0.3665 0.5498 0.0000
0.3999 0.5998 0.0000
0.4332 0.6498 0.0000
0.4666 0.6998 0.0000
0.4999 0.7499 0.0000
0.5333 0.7999 0.0000
0.5666 0.8499 0.0000
0.6000 0.8999 0.0000
0.6333 0.9500 0.0000
0.6667 1.0000 0.0000
0.1342 0.2683 0.0000
0.1586 0.3171 0.0000
0.1829 0.3659 0.0000
0.2073 0.4147 0.0000
0.2317 0.4634 0.0000
0.2561 0.5122 0.0000
0.2805 0.5610 0.0000
0.3049 0.6098 0.0000
0.3293 0.6586 0.0000
0.3537 0.7073 0.0000
0.3781 0.7561 0.0000
0.4024 0.8049 0.0000
0.4268 0.8537 0.0000
0.4512 0.9024 0.0000
0.4756 0.9512 0.0000
0.5000 1.0000 0.0000
0.0949 0.2846 0.0000
0.1108 0.3323 0.0000
0.1267 0.3800 0.0000
0.1426 0.4277 0.0000
0.1585 0.4754 0.0000
0.1744 0.5231 0.0000
0.1903 0.5708 0.0000
0.2062 0.6185 0.0000
0.2220 0.6661 0.0000
0.2379 0.7138 0.0000
0.2538 0.7615 0.0000
0.2697 0.8092 0.0000
0.2856 0.8569 0.0000
0.3015 0.9046 0.0000
0.3174 0.9523 0.0000
0.3333 1.0000 0.0000
0.0493 0.2959 0.0000
0.0571 0.3429 0.0000
0.0650 0.3898 0.0000
0.0728 0.4367 0.0000
0.0806 0.4837 0.0000
0.0884 0.5306 0.0000
0.0963 0.5776 0.0000
0.1041 0.6245 0.0000
0.1119 0.6714 0.0000
0.1197 0.7184 0.0000
0.1276 0.7653 0.0000
0.1354 0.8122 0.0000
0.1432 0.8592 0.0000
0.1510 0.9061 0.0000
0.1588 0.9531 0.0000
0.1667 1.0000 0.0000
0.0000 0.3000 0.0000
0.0000 0.3467 0.0000
0.0000 0.3933 0.0000
0.0000 0.4400 0.0000
0.0000 0.4867 0.0000
0.0000 0.5333 0.0000
0.0000 0.5800 0.0000
0.0000 0.6267 0.0000
0.0000 0.6733 0.0000
0.0000 0.7200 0.0000
0.0000 0.7667 0.0000
0.0000 0.8133 0.0000
0.0000 0.8600 0.0000
0.0000 0.9067 0.0000
0.0000 0.9533 0.0000
0.0000 1.0000 0.0000
-0.0493 0.2959 0.0000
-0.0571 0.3429 0.0000
-0.0650 0.3898 0.0000
-0.0728 0.4367 0.0000
-0.0806 0.4837 0.0000
-0.0884 0.5306 0.0000
-0.0963 0.5776 0.0000
-0.1041 0.6245 0.0000
-0.1119 0.6714 0.0000
-0.1197 0.7184 0.0000
-0.1276 0.7653 0.0000
-0.1354 0.8122 0.0000
-0.1432 0.8592 0.0000
-0.1510 0.9061 0.0000
-0.1588 0.9531 0.0000
-0.1667 1.0000 0.0000
-0.0949 0.2846 0.0000
-0.1108 0.3323 0.0000
-0.1267 0.3800 0.0000
-0.1426 0.4277 0.0000
-0.1585 0.4754 0.0000
-0.1744 0.5231 0.0000
-0.1903 0.5708 0.0000
-0.2062 0.6185 0.0000
-0.2220 0.6661 0.0000
-0.2379 0.7138 0.0000
-0.2538 0.7615 0.0000
-0.2697 0.8092 0.0000
-0.2856 0.8569 0.0000
-0.3015 0.9046 0.0000
-0.3174 0.9523 0.0000
-0.3333 1.0000 0.0000
-0.1342 0.2683 0.0000
-0.1586 0.3171 0.0000
-0.1829 0.3659 0.0000
-0.2073 0.4147 0.0000
-0.2317 0.4634 0.0000
-0.2561 0.5122 0.0000
-0.2805 0.5610 0.0000
-0.3049 0.6098 0.0000
-0.3293 0.6586 0.0000
-0.3537 0.7073 0.0000
-0.3781 0.7561 0.0000
-0.4024 0.8049 0.0000
-0.4268 0.8537 0.0000
-0.4512 0.9024 0.0000
-0.4756 0.9512 0.0000
-0.5000 1.0000 0.0000
-0.1664 0.2496 0.0000
-0.1998 0.2996 0.0000
-0.2331 0.3497 0.0000
-0.2665 0.3997 0.0000
-0.2998 0.4497 0.0000
-0.3332 0.4997 0.0000
-0.3665 0.5498 0.0000
-0.3999 0.5998 0.0000
-0.4332 0.6498 0.0000
-0.4666 0.6998 0.0000
-0.4999 0.7499 0.0000
-0.5333 0.7999 0.0000
-0.5666 0.8499 0.0000
-0.6000 0.8999 0.0000
-0.6333 0.9500 0.0000
-0.6667 1.0000 0.0000
-0.1921 0.2305 0.0000
-0.2348 0.2818 0.0000
-0.2776 0.3331 0.0000
-0.3203 0.3844 0.0000
-0.3631 0.4357 0.0000
-0.4058 0.4870 0.0000
-0.4486 0.5383 0.0000
-0.4913 0.5896 0.0000
-0.5341 0.6409 0.0000
-0.5768 0.6922 0.0000
-0.6196 0.7435 0.0000
-0.6623 0.7948 0.0000
-0.7051 0.8461 0.0000
-0.7478 0.8974 0.0000
-0.7906 0.9487 0.0000
-0.8333 1.0000 0.0000
-0.2121 0.2121 0.0000
-0.2647 0.2647 0.0000
-0.3172 0.3172 0.0000
-0.3697 0.3697 0.0000
-0.4222 0.4222 0.0000
-0.4748 0.4748 0.0000
-0.5273 0.5273 0.0000
-0.5798 0.5798 0.0000
-0.6323 0.6323 0.0000
-0.6849 0.6849 0.0000
-0.7374 0.7374 0.0000
-0.7899 0.7899 0.0000
-0.8424 0.8424 0.0000
-0.8950 0.8950 0.0000
-0.9475 0.9475 0.0000
-1.0000 1.0000 0.0000
-0.2305 0.1921 0.0000
-0.2818 0.2348 0.0000
-0.3331 0.2776 0.0000
-0.3844 0.3203 0.0000
-0.4357 0.3631 0.0000
-0.4870 0.4058 0.0000
-0.5383 0.4486 0.0000
-0.5896 0.4913 0.0000
-0.6409 0.5341 0.0000
-0.6922 0.5768 0.0000
-0.7435 0.6196 0.0000
-0.7948 0.6623 0.0000
-0.8461 0.7051 0.0000
-0.8974 0.7478 0.0000
-0.9487 0.7906 0.0000
-1.0000 0.8333 0.0000
-0.2496 0.1664 0.0000
-0.2996 0.1998 0.0000
-0.3497 0.2331 0.0000
-0.3997 0.2665 0.0000
-0.4497 0.2998 0.0000
-0.4997 0.3332 0.0000
-0.5498 0.3665 0.0000
-0.5998 0.3999 0.0000
-0.6498 0.4332 0.0000
-0.6998 0.4666 0.0000
-0.7499 0.4999 0.0000
-0.7999 0.5333 0.0000
-0.8499 0.5666 0.0000
-0.8999 0.6000 0.0000
-0.9500 0.6333 0.0000
-1.0000 0.6667 0.0000
-0.2683 0.1342 0.0000
-0.3171 0.1586 0.0000
-0.3659 0.1829 0.0000
-0.4147 0.2073 0.0000
-0.4634 0.2317 0.0000
-0.5122 0.2561 0.0000
-0.5610 0.2805 0.0000
-0.6098 0.3049 0.0000
-0.6586 0.3293 0.0000
-0.7073 0.3537 0.0000
-0.7561 0.3781 0.0000
-0.8049 0.4024 0.0000
-0.8537 0.4268 0.0000
-0.9024 0.4512 0.0000
-0.9512 0.4756 0.0000
-1.0000 0.5000 0.0000
-0.2846 0.0949 0.0000
-0.3323 0.1108 0.0000
-0.3800 0.1267 0.0000
-0.4277 0.1426 0.0000
-0.4754 0.1585 0.0000
-0.5231 0.1744 0.0000
-0.5708 0.1903 0.0000
-0.6185 0.2062 0.0000
-0.6661 0.2220 0.0000
-0.7138 0.2379 0.0000
-0.7615 0.2538 0.0000
-0.8092 0.2697 0.0000
-0.8569 0.2856 0.0000
-0.9046 0.3015 0.0000
-0.9523 0.3174 0.0000
-1.0000 0.3333 0.0000
-0.2959 0.0493 0.0000
-0.3429 0.0571 0.0000
-0.3898 0.0650 0.0000
-0.4367 0.0728 0.0000
-0.4837 0.0806 0.0000
-0.5306 0.0884 0.0000
-0.5776 0.0963 0.0000
-0.6245 0.1041 0.0000
-0.6714 0.1119 0.0000
-0.7184 0.1197 0.0000
-0.7653 0.1276 0.0000
-0.8122 0.1354 0.0000
-0.8592 0.1432 0.0000
-0.9061 0.1510 0.0000
-0.9531 0.1588 0.0000
-1.0000 0.1667 0.0000
-0.3000 0.0000 0.0000
-0.3467 0.0000 0.0000
-0.3933 0.0000 0.0000
-0.4400 0.0000 0.0000
-0.4867 0.0000 0.0000
-0.5333 0.0000 0.0000
-0.5800 0.0000 0.0000
-0.6267 0.0000 0.0000
-0.6733 0.0000 0.0000
-0.7200 0.0000 0.0000
-0.7667 0.0000 0.0000
-0.8133 0.0000 0.0000
-0.8600 0.0000 0.0000
-0.9067 0.0000 0.0000
-0.9533 0.0000 0.0000
-1.0000 0.0000 0.0000
-0.2959 -0.0493 0.0000
-0.3429 -0.0571 0.0000
-0.3898 -0.0650 0.0000
-0.4367 -0.0728 0.0000
-0.4837 -0.0806 0.0000
-0.5306 -0.0884 0.0000
-0.5776 -0.0963 0.0000
-0.6245 -0.1041 0.0000
-0.6714 -0.1119 0.0000
-0.7184 -0.1197 0.0000
-0.7653 -0.1276 0.0000
-0.8122 -0.1354 0.0000
-0.8592 -0.1432 0.0000
-0.9061 -0.1510 0.0000
-0.9531 -0.1588 0.0000
-1.0000 -0.1667 0.0000
-0.2846 -0.0949 0.0000
-0.3323 -0.1108 0.0000
-0.3800 -0.1267 0.0000
-0.4277 -0.1426 0.0000
-0.4754 -0.1585 0.0000
-0.5231 -0.1744 0.0000
-0.5708 -0.1903 0.0000
-0.6185 -0.2062 0.0000
-0.6661 -0.2220 0.0000
-0.7138 -0.2379 0.0000
-0.7615 -0.2538 0.0000
-0.8092 -0.2697 0.0000
-0.8569 -0.2856 0.0000
-0.9046 -0.3015 0.0000
-0.9523 -0.3174 0.0000
-1.0000 -0.3333 0.0000
-0.2683 -0.1342 0.0000
-0.3171 -0.1586 0.0000
-0.3659 -0.1829 0.0000
-0.4147 -0.2073 0.0000
-0.4634 -0.2317 0.0000
-0.5122 -0.2561 0.0000
-0.5610 -0.2805 0.0000
-0.6098 -0.3049 0.0000
-0.6586 -0.3293 0.0000
-0.7073 -0.3537 0.0000
-0.7561 -0.3781 0.0000
-0.8049 -0.4024 0.0000
-0.8537 -0.4268 0.0000
-0.9024 -0.4512 0.0000
-0.9512 -0.4756 0.0000
-1.0000 -0.5000 0.0000
-0.2496 -0.1664 0.0000
-0.2996 -0.1998 0.0000
-0.3497 -0.2331 0.0000
-0.3997 -0.2665 0.0000
-0.4497 -0.2998 0.0000
-0.4997 -0.3332 0.0000
-0.5498 -0.3665 0.0000
-0.5998 -0.3999 0.0000
-0.6498 -0.4332 0.0000
-0.6998 -0.4666 0.0000
-0.7499 -0.4999 0.0000
-0.7999 -0.5333 0.0000
-0.8499 -0.5666 0.0000
-0.8999 -0.6000 0.0000
-0.9500 -0.6333 0.0000
-1.0000 -0.6667 0.0000
-0.2305 -0.1921 0.0000
-0.2818 -0.2348 0.0000
-0.3331 -0.2776 0.0000
-0.3844 -0.3203 0.0000
-0.4357 -0.3631 0.0000
-0.4870 -0.4058 0.0000
-0.5383 -0.4486 0.0000
-0.5896 -0.4913 0.0000
-0.6409 -0.5341 0.0000
-0.6922 -0.5768 0.0000
-0.7435 -0.6196 0.0000
-0.7948 -0.6623 0.0000
-0.8461 -0.7051 0.0000
-0.8974 -0.7478 0.0000
-0.9487 -0.7906 0.0000
-1.0000 -0.8333 0.0000
-0.2121 -0.2121 0.0000
-0.2647 -0.2647 0.0000
-0.3172 -0.3172 0.0000
-0.3697 -0.3697 0.0000
-0.4222 -0.4222 0.0000
-0.4748 -0.4748 0.0000
-0.5273 -0.5273 0.0000
-0.5798 -0.5798 0.0000
-0.6323 -0.6323 0.0000
-0.6849 -0.6849 0.0000
-0.7374 -0.7374 0.0000
-0.7899 -0.7899 0.0000
-0.8424 -0.8424 0.0000
-0.8950 -0.8950 0.0000
-0.9475 -0.9475 0.0000
-1.0000 -1.0000 0.0000
-0.1921 -0.2305 0.0000
-0.2348 -0.2818 0.0000
-0.2776 -0.3331 0.0000
-0.3203 -0.3844 0.0000
-0.3631 -0.4357 0.0000
-0.4058 -0.4870 0.0000
-0.4486 -0.5383 0.0000
-0.4913 -0.5896 0.0000
-0.5341 -0.6409 0.0000
-0.5768 -0.6922 0.0000
-0.6196 -0.7435 0.0000
-0.6623 -0.7948 0.0000
-0.7051 -0.8461 0.0000
-0.7478 -0.8974 0.0000
-0.7906 -0.9487 0.0000
-0.8333 -1.0000 0.0000
-0.1664 -0.2496 0.0000
-0.1998 -0.2996 0.0000
-0.2331 -0.3497 0.0000
-0.2665 -0.3997 0.0000
-0.2998 -0.4497 0.0000
-0.3332 -0.4997 0.0000
-0.3665 -0.5498 0.0000
-0.3999 -0.5998 0.0000
-0.4332 -0.6498 0.0000
-0.4666 -0.6998 0.0000
-0.4999 -0.7499 0.0000
-0.5333 -0.7999 0.0000
-0.5666 -0.8499 0.0000
-0.6000 -0.8999 0.0000
-0.6333 -0.9500 0.0000
-0.6667 -1.0000 0.0000
-0.1342 -0.2683 0.0000
-0.1586 -0.3171 0.0000
-0.1829 -0.3659 0.0000
-0.2073 -0.4147 0.0000
-0.2317 -0.4634 0.0000
-0.2561 -0.5122 0.0000
-0.2805 -0.5610 0.0000
[...]
         <PointData>
            <DataArray Name="fValues" NumberOfComponents="3" format="ascii" type="Float64">
 1.88642e-01 -5.15374e-02        00000 
 1.93066e-01 -5.48982e-02        00000 
 1.98729e-01 -5.81591e-02        00000 
 2.02187e-01 -5.88954e-02        00000 
 1.97685e-01 -5.67338e-02        00000 
 1.87259e-01 -5.11296e-02        00000 
 1.74843e-01 -4.61380e-02        00000 
 1.60075e-01 -4.17639e-02        00000 
 1.46858e-01 -3.67929e-02        00000 
 1.27675e-01 -3.05496e-02        00000 
 1.09267e-01 -2.43974e-02        00000 
 9.11183e-02 -1.83949e-02        00000 
 6.90762e-02 -1.30336e-02        00000 
 4.44161e-02 -7.34438e-03        00000 
 2.25630e-02 -3.78178e-03        00000 
-1.78069e-03 -9.24750e-04        00000 
 2.10052e-01 -5.32749e-02        00000 
 2.15321e-01 -5.51073e-02        00000 
 2.19633e-01 -5.63310e-02        00000 
 2.21900e-01 -5.55071e-02        00000 
 2.23256e-01 -5.44232e-02        00000 
 2.16882e-01 -5.16012e-02        00000 
 2.08190e-01 -4.62026e-02        00000 
 1.99546e-01 -4.23291e-02        00000 
 1.89114e-01 -3.96030e-02        00000 
 1.77360e-01 -3.54437e-02        00000 
 1.61221e-01 -3.03663e-02        00000 
 1.49996e-01 -2.62916e-02        00000 
 1.32205e-01 -1.86935e-02        00000 
 1.14816e-01 -1.03905e-02        00000 
 9.99426e-02 -5.04367e-03        00000 
 8.36389e-02 -2.26956e-03        00000 
 2.35488e-01 -5.46923e-02        00000 
 2.40176e-01 -5.42104e-02        00000 
 2.44921e-01 -5.39698e-02        00000 
 2.46548e-01 -5.17563e-02        00000 
 2.49751e-01 -5.02911e-02        00000 
 2.47559e-01 -4.77866e-02        00000 
 2.41891e-01 -4.41214e-02        00000 
 2.37235e-01 -4.05778e-02        00000 
 2.31638e-01 -3.75212e-02        00000 
 2.26602e-01 -3.42929e-02        00000 
 2.22618e-01 -3.02278e-02        00000 
 2.07667e-01 -2.50964e-02        00000 
 1.96648e-01 -1.81759e-02        00000 
 1.90422e-01 -1.14246e-02        00000 
 1.78383e-01 -7.24771e-03        00000 
 1.68895e-01 -6.13193e-03        00000 
 2.65793e-01 -5.63621e-02        00000 
 2.70109e-01 -5.41806e-02        00000 
 2.73141e-01 -5.20133e-02        00000 
 2.75225e-01 -4.88351e-02        00000 
 2.78532e-01 -4.62702e-02        00000 
 2.81289e-01 -4.37293e-02        00000 
 2.79814e-01 -4.00914e-02        00000 
 2.78797e-01 -3.64513e-02        00000 
 2.77096e-01 -3.28590e-02        00000 
 2.76828e-01 -2.97502e-02        00000 
 2.77145e-01 -2.65768e-02        00000 
 2.72640e-01 -2.21374e-02        00000 
 2.67226e-01 -1.58568e-02        00000 
 2.62028e-01 -1.02227e-02        00000 
 2.58145e-01 -5.05042e-03        00000 
 2.48201e-01 -2.33706e-03        00000 
 2.98516e-01 -5.83168e-02        00000 
 3.01588e-01 -5.51854e-02        00000 
 3.04455e-01 -5.09763e-02        00000 
 3.07322e-01 -4.66739e-02        00000 
 3.11821e-01 -4.35537e-02        00000 
 3.16956e-01 -4.01430e-02        00000 
 3.22128e-01 -3.70331e-02        00000 
 3.23767e-01 -3.32597e-02        00000 
 3.26075e-01 -2.86677e-02        00000 
 3.28212e-01 -2.44858e-02        00000 
 3.31869e-01 -2.08623e-02        00000 
 3.33632e-01 -1.68960e-02        00000 
 3.34038e-01 -1.27317e-02        00000 
 3.32249e-01 -8.13013e-03        00000 
 3.34284e-01 -4.49889e-03        00000 
 3.35942e-01 -1.10504e-03        00000 
 3.33150e-01 -6.28643e-02        00000 
 3.35473e-01 -5.81646e-02        00000 
 3.37277e-01 -5.21418e-02        00000 
 3.41394e-01 -4.71407e-02        00000 
 3.48537e-01 -4.30842e-02        00000 
 3.55479e-01 -3.91260e-02        00000 
 3.62795e-01 -3.59973e-02        00000 
 3.71662e-01 -3.32491e-02        00000 
 3.75641e-01 -2.81035e-02        00000 
 3.81211e-01 -2.30061e-02        00000 
 3.87241e-01 -1.84784e-02        00000 
 3.95265e-01 -1.49202e-02        00000 
 4.02460e-01 -1.17238e-02        00000 
 4.06964e-01 -7.66454e-03        00000 
 4.14458e-01 -4.72110e-03        00000 
 4.19844e-01 -1.13903e-03        00000 
 3.69448e-01 -7.00401e-02        00000 
 3.69112e-01 -6.35576e-02        00000 
 3.71188e-01 -5.70006e-02        00000 
 3.76511e-01 -5.15958e-02        00000 
 3.86036e-01 -4.76113e-02        00000 
 3.95980e-01 -4.43906e-02        00000 
 4.05923e-01 -4.13614e-02        00000 
 4.15529e-01 -3.79280e-02        00000 
 4.24825e-01 -3.39471e-02        00000 
 4.37025e-01 -2.91714e-02        00000 
 4.47844e-01 -2.40582e-02        00000 
 4.57122e-01 -1.95958e-02        00000 
 4.68135e-01 -1.51703e-02        00000 
 4.76550e-01 -9.97637e-03        00000 
 4.91566e-01 -5.74565e-03        00000 
 5.03008e-01  3.15066e-04        00000 
 4.06257e-01 -7.86320e-02        00000 
 4.09328e-01 -7.25769e-02        00000 
 4.09394e-01 -6.56032e-02        00000 
 4.14697e-01 -6.03118e-02        00000 
 4.25018e-01 -5.65876e-02        00000 
 4.35391e-01 -5.29053e-02        00000 
 4.48156e-01 -4.89467e-02        00000 
 4.61188e-01 -4.52697e-02        00000 
 4.73283e-01 -4.05378e-02        00000 
 4.87482e-01 -3.61008e-02        00000 
 5.03772e-01 -3.11360e-02        00000 
 5.18093e-01 -2.58968e-02        00000 
 5.29809e-01 -2.01875e-02        00000 
 5.42975e-01 -1.40877e-02        00000 
 5.61394e-01 -7.56309e-03        00000 
 5.84505e-01  9.38691e-04        00000 
 4.39631e-01 -8.90121e-02        00000 
 4.45348e-01 -8.38619e-02        00000 
 4.47411e-01 -7.75419e-02        00000 
 4.48720e-01 -7.03862e-02        00000 
 4.59490e-01 -6.59619e-02        00000 
 4.71339e-01 -6.15470e-02        00000 
 4.85821e-01 -5.70741e-02        00000 
 5.04897e-01 -5.29464e-02        00000 
 5.22807e-01 -4.90118e-02        00000 
 5.42930e-01 -4.34756e-02        00000 
 5.62125e-01 -3.67679e-02        00000 
 5.80309e-01 -3.00643e-02        00000 
 5.98123e-01 -2.36829e-02        00000 
 6.16592e-01 -1.76587e-02        00000 
 6.38554e-01 -1.04026e-02        00000 
 6.67130e-01 -1.50068e-03        00000 
 4.65077e-01 -9.85413e-02        00000 
 4.72857e-01 -9.38628e-02        00000 
 4.74811e-01 -8.72315e-02        00000 
 4.78464e-01 -8.00513e-02        00000 
 4.87201e-01 -7.40265e-02        00000 
 5.01501e-01 -6.97987e-02        00000 
 5.22305e-01 -6.56727e-02        00000 
 5.44164e-01 -6.16342e-02        00000 
 5.66754e-01 -5.55776e-02        00000 
 5.91798e-01 -4.86555e-02        00000 
 6.16346e-01 -4.15047e-02        00000 
 6.42139e-01 -3.41857e-02        00000 
 6.69117e-01 -2.62214e-02        00000 
 6.93980e-01 -1.87951e-02        00000 
 7.23504e-01 -1.15686e-02        00000 
 7.50487e-01 -3.22340e-03        00000 
 4.77538e-01 -1.06110e-01        00000 
 4.87767e-01 -1.01970e-01        00000 
 4.93423e-01 -9.49780e-02        00000 
 5.00548e-01 -8.82754e-02        00000 
 5.10483e-01 -8.12426e-02        00000 
 5.31127e-01 -7.69817e-02        00000 
 5.57628e-01 -7.25038e-02        00000 
 5.84122e-01 -6.58744e-02        00000 
 6.12139e-01 -5.81891e-02        00000 
 6.41053e-01 -5.12925e-02        00000 
 6.70638e-01 -4.38997e-02        00000 
 7.01485e-01 -3.51175e-02        00000 
 7.31030e-01 -2.53082e-02        00000 
 7.64539e-01 -1.72711e-02        00000 
 8.02695e-01 -1.07023e-02        00000 
 8.33862e-01 -1.46826e-03        00000 
 4.86780e-01 -1.12297e-01        00000 
 4.98270e-01 -1.08290e-01        00000 
 5.07347e-01 -1.01872e-01        00000 
 5.18028e-01 -9.35608e-02        00000 
 5.35739e-01 -8.71201e-02        00000 
 5.58260e-01 -8.07455e-02        00000 
 5.86943e-01 -7.26994e-02        00000 
 6.19112e-01 -6.39165e-02        00000 
 6.51873e-01 -5.66117e-02        00000 
 6.86378e-01 -4.96054e-02        00000 
 7.21168e-01 -4.08956e-02        00000 
 7.55835e-01 -3.06415e-02        00000 
 7.91942e-01 -2.16881e-02        00000 
 8.37035e-01 -1.61869e-02        00000 
 8.72986e-01 -9.34418e-03        00000 
 9.15808e-01 -4.65287e-03        00000 
 4.92070e-01 -1.16423e-01        00000 
 5.04926e-01 -1.12616e-01        00000 
 5.15728e-01 -1.05310e-01        00000 
 5.30185e-01 -9.65722e-02        00000 
 5.52907e-01 -8.88036e-02        00000 
 5.83047e-01 -7.90336e-02        00000 
 6.16128e-01 -6.91702e-02        00000 
 6.51928e-01 -6.06276e-02        00000 
 6.86832e-01 -5.20059e-02        00000 
 7.25941e-01 -4.26694e-02        00000 
 7.65639e-01 -3.20699e-02        00000 
 8.10290e-01 -2.33680e-02        00000 
 8.56019e-01 -1.59916e-02        00000 
 9.03511e-01 -1.08944e-02        00000 
 9.51579e-01 -4.12920e-03        00000 
 9.99011e-01 -2.53151e-04        00000 
 4.94756e-01 -1.19456e-01        00000 
 5.06348e-01 -1.16606e-01        00000 
 5.15853e-01 -1.10249e-01        00000 
 5.25997e-01 -1.02190e-01        00000 
 5.44861e-01 -9.51203e-02        00000 
 5.68306e-01 -8.54807e-02        00000 
 5.98606e-01 -7.67338e-02        00000 
 6.28849e-01 -6.77016e-02        00000 
 6.58009e-01 -5.87989e-02        00000 
 6.86491e-01 -4.96774e-02        00000 
 7.20118e-01 -4.18263e-02        00000 
 7.58427e-01 -3.32091e-02        00000 
 7.94624e-01 -2.19440e-02        00000 
 8.33896e-01 -1.18255e-02        00000 
 8.72645e-01 -2.23892e-03        00000 
 9.15798e-01  3.37557e-03        00000 
 4.94411e-01 -1.22056e-01        00000 
 5.05081e-01 -1.19046e-01        00000 
 5.11954e-01 -1.13187e-01        00000 
 5.21267e-01 -1.06193e-01        00000 
 5.34106e-01 -9.89104e-02        00000 
 5.54705e-01 -9.00899e-02        00000 
 5.77558e-01 -8.18752e-02        00000 
 6.01937e-01 -7.31375e-02        00000 
 6.27051e-01 -6.40035e-02        00000 
 6.51454e-01 -5.49253e-02        00000 
 6.78403e-01 -4.57981e-02        00000 
 7.08847e-01 -3.70409e-02        00000 
 7.36675e-01 -2.73603e-02        00000 
 7.67610e-01 -1.88754e-02        00000 
 7.97424e-01 -9.97455e-03        00000 
 8.31470e-01  1.45588e-03        00000 
 4.91182e-01 -1.23382e-01        00000 
 5.00473e-01 -1.19683e-01        00000 
 5.03333e-01 -1.14116e-01        00000 
 5.10948e-01 -1.07998e-01        00000 
 5.19944e-01 -1.00692e-01        00000 
 5.36999e-01 -9.34335e-02        00000 
 5.55002e-01 -8.45326e-02        00000 
 5.71656e-01 -7.56397e-02        00000 
 5.90457e-01 -6.60708e-02        00000 
 6.10615e-01 -5.67485e-02        00000 
 6.30986e-01 -4.72589e-02        00000 
 6.54072e-01 -3.76894e-02        00000 
 6.74859e-01 -2.87319e-02        00000 
 6.96573e-01 -1.83859e-02        00000 
 7.23324e-01 -1.04775e-02        00000 
 7.46739e-01  1.68240e-04        00000 
 4.81609e-01 -1.22115e-01        00000 
 4.88501e-01 -1.18226e-01        00000 
 4.92289e-01 -1.13578e-01        00000 
 4.95627e-01 -1.07044e-01        00000 
 5.00421e-01 -9.92969e-02        00000 
 5.10053e-01 -9.14200e-02        00000 
 5.24273e-01 -8.30490e-02        00000 
 5.37106e-01 -7.46208e-02        00000 
 5.52360e-01 -6.58017e-02        00000 
 5.68327e-01 -5.63885e-02        00000 
 5.81820e-01 -4.80354e-02        00000 
 5.96137e-01 -4.04337e-02        00000 
 6.10481e-01 -2.91892e-02        00000 
 6.28461e-01 -1.94491e-02        00000 
 6.44626e-01 -1.17542e-02        00000 
 6.64473e-01 -4.79136e-03        00000 
 4.62714e-01 -1.18203e-01        00000 
 4.65375e-01 -1.13100e-01        00000 
 4.66943e-01 -1.07436e-01        00000 
 4.68758e-01 -1.00614e-01        00000 
 4.72936e-01 -9.33574e-02        00000 
 4.77771e-01 -8.62046e-02        00000 
 4.85817e-01 -7.93072e-02        00000 
 4.95128e-01 -7.11400e-02        00000 
 5.02018e-01 -6.35516e-02        00000 
 5.11950e-01 -5.58473e-02        00000 
 5.21580e-01 -4.87885e-02        00000 
 5.32937e-01 -4.00654e-02        00000 
 5.45453e-01 -2.87639e-02        00000 
 5.56758e-01 -1.91831e-02        00000 
 5.67811e-01 -1.26303e-02        00000 
 5.79405e-01 -3.53757e-03        00000 
 4.37476e-01 -1.14313e-01        00000 
 4.34819e-01 -1.07684e-01        00000 
 4.32308e-01 -1.00492e-01        00000 
 4.31110e-01 -9.28594e-02        00000 
 4.34167e-01 -8.60830e-02        00000 
 4.38763e-01 -7.92175e-02        00000 
 4.42693e-01 -7.25111e-02        00000 
 4.47553e-01 -6.62136e-02        00000 
 4.49896e-01 -5.94655e-02        00000 
 4.56089e-01 -5.40839e-02        00000 
 4.61628e-01 -4.62024e-02        00000 
 4.69088e-01 -3.67775e-02        00000 
 4.76982e-01 -2.63177e-02        00000 
 4.83977e-01 -1.68214e-02        00000 
 4.87075e-01 -9.21377e-03        00000 
 4.96746e-01  4.35004e-05        00000 
 4.03252e-01 -1.10126e-01        00000 
 4.00025e-01 -1.03298e-01        00000 
 3.96287e-01 -9.48574e-02        00000 
 3.89953e-01 -8.58312e-02        00000 
 3.89747e-01 -7.88754e-02        00000 
 3.91229e-01 -7.28893e-02        00000 
 3.93599e-01 -6.66067e-02        00000 
 3.94265e-01 -5.97080e-02        00000 
 3.93931e-01 -5.25091e-02        00000 
 3.96213e-01 -4.70945e-02        00000 
 3.98424e-01 -4.07860e-02        00000 
 3.99779e-01 -3.19771e-02        00000 
 4.04622e-01 -2.42492e-02        00000 
 4.09076e-01 -1.47070e-02        00000 
 4.07774e-01 -5.01811e-03        00000 
 4.07323e-01  3.86499e-03        00000 
 3.66106e-01 -1.06163e-01        00000 
 3.61796e-01 -9.91960e-02        00000 
 3.55519e-01 -9.05305e-02        00000 
 3.50224e-01 -8.15755e-02        00000 
 3.46554e-01 -7.47243e-02        00000 
 3.42792e-01 -6.78612e-02        00000 
 3.39562e-01 -6.03721e-02        00000 
 3.38333e-01 -5.29231e-02        00000 
 3.37947e-01 -4.63257e-02        00000 
 3.37796e-01 -4.09284e-02        00000 
 3.34977e-01 -3.47381e-02        00000 
 3.33020e-01 -2.87048e-02        00000 
 3.34016e-01 -2.25942e-02        00000 
 3.33213e-01 -1.52739e-02        00000 
 3.33374e-01 -5.41924e-03        00000 
 3.29105e-01  4.35661e-03        00000 
 3.33008e-01 -1.02440e-01        00000 
 3.25236e-01 -9.50964e-02        00000 
 3.16091e-01 -8.64367e-02        00000 
 3.08480e-01 -7.78137e-02        00000 
 3.04130e-01 -7.12068e-02        00000 
 2.98131e-01 -6.39478e-02        00000 
 2.92123e-01 -5.66889e-02        00000 
 2.87299e-01 -4.90274e-02        00000 
 2.84734e-01 -4.21490e-02        00000 
 2.80417e-01 -3.67225e-02        00000 
 2.74271e-01 -3.15588e-02        00000 
 2.68656e-01 -2.68402e-02        00000 
 2.65277e-01 -2.10991e-02        00000 
 2.59748e-01 -1.37194e-02        00000 
 2.56143e-01 -6.25314e-03        00000 
 2.48662e-01  2.92569e-03        00000 
 3.05208e-01 -9.88653e-02        00000 
 2.93146e-01 -9.13344e-02        00000 
 2.83961e-01 -8.34723e-02        00000 
 2.73001e-01 -7.46499e-02        00000 
 2.64172e-01 -6.80063e-02        00000 
 2.56691e-01 -6.05660e-02        00000 
 2.48913e-01 -5.32414e-02        00000 
 2.42032e-01 -4.58705e-02        00000 
 2.34247e-01 -3.89088e-02        00000 
 2.23845e-01 -3.48294e-02        00000 
 2.13120e-01 -3.02435e-02        00000 
 2.05511e-01 -2.52459e-02        00000 
 1.94327e-01 -2.02171e-02        00000 
 1.86627e-01 -1.41393e-02        00000 
 1.78929e-01 -4.45551e-03        00000 
 1.63365e-01  2.41153e-03        00000 
 2.82364e-01 -9.43204e-02        00000 
 2.67747e-01 -8.69294e-02        00000 
 2.56100e-01 -7.92954e-02        00000 
 2.40864e-01 -7.20214e-02        00000 
 2.26366e-01 -6.45001e-02        00000 
 2.14511e-01 -5.59455e-02        00000 
 2.02817e-01 -4.86284e-02        00000 
 1.91326e-01 -4.19216e-02        00000 
 1.82629e-01 -3.73909e-02        00000 
 1.72438e-01 -3.31161e-02        00000 
 1.58483e-01 -2.73546e-02        00000 
 1.45105e-01 -2.21476e-02        00000 
 1.30192e-01 -1.73981e-02        00000 
 1.17033e-01 -1.17912e-02        00000 
 9.95282e-02 -4.86924e-03        00000 
 8.33549e-02  2.84062e-03        00000 
 2.61979e-01 -9.01175e-02        00000 
 2.46228e-01 -8.27835e-02        00000 
 2.30153e-01 -7.54225e-02        00000 
 2.12412e-01 -6.88533e-02        00000 
 1.94080e-01 -6.10481e-02        00000 
 1.79075e-01 -5.27288e-02        00000 
 1.66104e-01 -4.55240e-02        00000 
 1.53132e-01 -4.08623e-02        00000 
 1.38620e-01 -3.47261e-02        00000 
 1.23425e-01 -2.85449e-02        00000 
 1.09498e-01 -2.28188e-02        00000 
 8.58205e-02 -1.47490e-02        00000 
 6.90699e-02 -8.23790e-03        00000 
 4.76582e-02 -5.17939e-03        00000 
 2.36587e-02 -5.42062e-04        00000 
-3.99704e-05  4.65583e-03        00000 
 2.41083e-01 -8.61446e-02        00000 
 2.28802e-01 -8.09592e-02        00000 
 2.13757e-01 -7.45716e-02        00000 
 1.97927e-01 -6.91182e-02        00000 
 1.81200e-01 -6.35366e-02        00000 
 1.66538e-01 -5.70545e-02        00000 
 1.53057e-01 -5.16817e-02        00000 
 1.40623e-01 -4.72463e-02        00000 
 1.27357e-01 -4.30109e-02        00000 
 1.13316e-01 -3.64298e-02        00000 
 9.73418e-02 -2.87825e-02        00000 
 7.72420e-02 -2.08931e-02        00000 
 5.85546e-02 -1.32530e-02        00000 
 3.84055e-02 -6.37703e-03        00000 
 1.97503e-02 -1.88201e-03        00000 
 1.90847e-03  1.91048e-03        00000 
 2.16949e-01 -8.08360e-02        00000 
 2.09189e-01 -7.78597e-02        00000 
 1.97320e-01 -7.32891e-02        00000 
 1.82084e-01 -6.87165e-02        00000 
 1.67507e-01 -6.44228e-02        00000 
 1.53918e-01 -5.93721e-02        00000 
 1.39276e-01 -5.44226e-02        00000 
 1.25153e-01 -4.98149e-02        00000 
 1.13551e-01 -4.53727e-02        00000 
 9.87265e-02 -3.93847e-02        00000 
 8.43309e-02 -3.28425e-02        00000 
 6.79345e-02 -2.57043e-02        00000 
 5.25435e-02 -1.79992e-02        00000 
 3.65660e-02 -1.16427e-02        00000 
 1.76394e-02 -6.34159e-03        00000 
 1.74336e-03 -4.55141e-04        00000 
 1.93027e-01 -7.48512e-02        00000 
 1.85884e-01 -7.33960e-02        00000 
 1.77992e-01 -7.05623e-02        00000 
 1.65385e-01 -6.67069e-02        00000 
 1.54038e-01 -6.46500e-02        00000 
 1.42190e-01 -6.06966e-02        00000 
 1.28225e-01 -5.58827e-02        00000 
 1.15796e-01 -5.12658e-02        00000 
 1.02525e-01 -4.60248e-02        00000 
 8.81795e-02 -4.07355e-02        00000 
 7.45638e-02 -3.48236e-02        00000 
 6.29041e-02 -2.86814e-02        00000 
 4.69696e-02 -1.99211e-02        00000 
 2.94509e-02 -1.13851e-02        00000 
 1.53049e-02 -6.92926e-03        00000 
 4.94068e-04 -1.44420e-03        00000 
 1.69531e-01 -6.76013e-02        00000 
 1.62076e-01 -6.63322e-02        00000 
 1.56344e-01 -6.51321e-02        00000 
 1.49044e-01 -6.34103e-02        00000 
 1.38330e-01 -6.12748e-02        00000 
 1.27485e-01 -5.92019e-02        00000 
 1.17158e-01 -5.55897e-02        00000 
 1.06812e-01 -5.14566e-02        00000 
 9.49187e-02 -4.58717e-02        00000 
 8.07593e-02 -4.00746e-02        00000 
 6.78556e-02 -3.55423e-02        00000 
 5.51067e-02 -2.92594e-02        00000 
 4.09694e-02 -2.23207e-02        00000 
 2.37445e-02 -1.25642e-02        00000 
 1.53138e-02 -7.57756e-03        00000 
 8.04699e-05 -1.61336e-04        00000 
 1.49621e-01 -6.03497e-02        00000 
 1.42689e-01 -5.93390e-02        00000 
 1.36254e-01 -5.81340e-02        00000 
 1.29564e-01 -5.69329e-02        00000 
 1.19925e-01 -5.47593e-02        00000 
 1.10916e-01 -5.32801e-02        00000 
 1.02180e-01 -5.17100e-02        00000 
 9.37318e-02 -4.91731e-02        00000 
 8.42966e-02 -4.50161e-02        00000 
 7.38600e-02 -3.91251e-02        00000 
 6.09815e-02 -3.35300e-02        00000 
 4.74916e-02 -2.78811e-02        00000 
 3.48306e-02 -2.18692e-02        00000 
 2.20764e-02 -1.36299e-02        00000 
 1.31538e-02 -6.37083e-03        00000 
-1.52509e-03 -1.75534e-03        00000 
 1.31658e-01 -5.13334e-02        00000 
 1.25116e-01 -5.02921e-02        00000 
 1.20649e-01 -5.03815e-02        00000 
 1.16483e-01 -5.03398e-02        00000 
 1.08324e-01 -4.85595e-02        00000 
 9.95111e-02 -4.67463e-02        00000 
 9.31102e-02 -4.57060e-02        00000 
 8.25594e-02 -4.28008e-02        00000 
 7.16210e-02 -3.79954e-02        00000 
 6.28657e-02 -3.27136e-02        00000 
 5.41299e-02 -2.78717e-02        00000 
 4.58673e-02 -2.40729e-02        00000 
 3.50707e-02 -1.92135e-02        00000 
 2.21828e-02 -1.19515e-02        00000 
 9.62583e-03 -5.69726e-03        00000 
-3.32225e-03 -2.52522e-03        00000 
 1.12121e-01 -4.29088e-02        00000 