<?xml version="1.0" encoding="utf-8"?>
<VTKFile byte_order="LittleEndian" type="UnstructuredGrid" version="0.1">
   <UnstructuredGrid>
      <Piece NumberOfCells="720" NumberOfPoints="768">
         <Points>
            <DataArray Name="Points" NumberOfComponents="3" format="ascii" type="Float32">
0.2121 0.2121 0.0000
0.2647 0.2647 0.0000
0.3172 0.3172 0.0000
0.3697 0.3697 0.0000
0.4222 0.4222 0.0000
0.4748 0.4748 0.0000
0.5273 0.5273 0.0000
0.5798 0.5798 0.0000
0.6323 0.6323 0.0000
0.6849 0.6849 0.0000
0.7374 0.7374 0.0000
0.7899 0.7899 0.0000
0.8424 0.8424 0.0000
0.8950 0.8950 0.0000
0.9475 0.9475 0.0000
1.0000 1.0000 0.0000
0.1921 0.2305 0.0000
0.2348 0.2818 0.0000
0.2776 0.3331 0.0000
0.3203 0.3844 0.0000
0.3631 0.4357 0.0000
0.4058 0.4870 0.0000
0.4486 0.5383 0.0000
0.4913 0.5896 0.0000
0.5341 0.6409 0.0000
0.5768 0.6922 0.0000
0.6196 0.7435 0.0000
0.6623 0.7948 0.0000
0.7051 0.8461 0.0000
0.7478 0.8974 0.0000
0.7906 0.9487 0.0000
0.8333 1.0000 0.0000
0.1664 0.2496 0.0000
0.1998 0.2996 0.0000
0.2331 0.3497 0.0000
0.2665 0.3997 0.0000
0.2998 0.4497 0.0000
0.3332 0.4997 0.0000
0.3665 0.5498 0.0000
0.3999 0.5998 0.0000
0.4332 0.6498 0.0000
0.4666 0.6998 0.0000
0.4999 0.7499 0.0000
0.5333 0.7999 0.0000
0.5666 0.8499 0.0000
0.6000 0.8999 0.0000
0.6333 0.9500 0.0000
0.6667 1.0000 0.0000
0.1342 0.2683 0.0000
0.1586 0.3171 0.0000
0.1829 0.3659 0.0000
0.2073 0.4147 0.0000
0.2317 0.4634 0.0000
0.2561 0.5122 0.0000
0.2805 0.5610 0.0000
0.3049 0.6098 0.0000
0.3293 0.6586 0.0000
0.3537 0.7073 0.0000
0.3781 0.7561 0.0000
0.4024 0.8049 0.0000
0.4268 0.8537 0.0000
0.4512 0.9024 0.0000
0.4756 0.9512 0.0000
0.5000 1.0000 0.0000
0.0949 0.2846 0.0000
0.1108 0.3323 0.0000
0.1267 0.3800 0.0000
0.1426 0.4277 0.0000
0.1585 0.4754 0.0000
0.1744 0.5231 0.0000
0.1903 0.5708 0.0000
0.2062 0.6185 0.0000
0.2220 0.6661 0.0000
0.2379 0.7138 0.0000
0.2538 0.7615 0.0000
0.2697 0.8092 0.0000
0.2856 0.8569 0.0000
0.3015 0.9046 0.0000
0.3174 0.9523 0.0000
0.3333 1.0000 0.0000
0.0493 0.2959 0.0000
0.0571 0.3429 0.0000
0.0650 0.3898 0.0000
0.0728 0.4367 0.0000
0.0806 0.4837 0.0000
0.0884 0.5306 0.0000
0.0963 0.5776 0.0000
0.1041 0.6245 0.0000
0.1119 0.6714 0.0000
0.1197 0.7184 0.0000
0.1276 0.7653 0.0000
0.1354 0.8122 0.0000
0.1432 0.8592 0.0000
0.1510 0.9061 0.0000
0.1588 0.9531 0.0000
0.1667 1.0000 0.0000
0.0000 0.3000 0.0000
0.0000 0.3467 0.0000
0.0000 0.3933 0.0000
0.0000 0.4400 0.0000
0.0000 0.4867 0.0000
0.0000 0.5333 0.0000
0.0000 0.5800 0.0000
0.0000 0.6267 0.0000
0.0000 0.6733 0.0000
0.0000 0.7200 0.0000
0.0000 0.7667 0.0000
0.0000 0.8133 0.0000
0.0000 0.8600 0.0000
0.0000 0.9067 0.0000
0.0000 0.9533 0.0000
0.0000 1.0000 0.0000
-0.0493 0.2959 0.0000
-0.0571 0.3429 0.0000
-0.0650 0.3898 0.0000
-0.0728 0.4367 0.0000
-0.0806 0.4837 0.0000
-0.0884 0.5306 0.0000
-0.0963 0.5776 0.0000
-0.1041 0.6245 0.0000
-0.1119 0.6714 0.0000
-0.1197 0.7184 0.0000
-0.1276 0.7653 0.0000
-0.1354 0.8122 0.0000
-0.1432 0.8592 0.0000
-0.1510 0.9061 0.0000
-0.1588 0.9531 0.0000
-0.1667 1.0000 0.0000
-0.0949 0.2846 0.0000
-0.1108 0.3323 0.0000
-0.1267 0.3800 0.0000
-0.1426 0.4277 0.0000
-0.1585 0.4754 0.0000
-0.1744 0.5231 0.0000
-0.1903 0.5708 0.0000
-0.2062 0.6185 0.0000
-0.2220 0.6661 0.0000
-0.2379 0.7138 0.0000
-0.2538 0.7615 0.0000
-0.2697 0.8092 0.0000
-0.2856 0.8569 0.0000
-0.3015 0.9046 0.0000
-0.3174 0.9523 0.0000
-0.3333 1.0000 0.0000
-0.1342 0.2683 0.0000
-0.1586 0.3171 0.0000
-0.1829 0.3659 0.0000
-0.2073 0.4147 0.0000
-0.2317 0.4634 0.0000
-0.2561 0.5122 0.0000
-0.2805 0.5610 0.0000
-0.3049 0.6098 0.0000
-0.3293 0.6586 0.0000
-0.3537 0.7073 0.0000
-0.3781 0.7561 0.0000
-0.4024 0.8049 0.0000
-0.4268 0.8537 0.0000
-0.4512 0.9024 0.0000
-0.4756 0.9512 0.0000
-0.5000 1.0000 0.0000
-0.1664 0.2496 0.0000
-0.1998 0.2996 0.0000
-0.2331 0.3497 0.0000
-0.2665 0.3997 0.0000
-0.2998 0.4497 0.0000
-0.3332 0.4997 0.0000
-0.3665 0.5498 0.0000
-0.3999 0.5998 0.0000
-0.4332 0.6498 0.0000
-0.4666 0.6998 0.0000
-0.4999 0.7499 0.0000
-0.5333 0.7999 0.0000
-0.5666 0.8499 0.0000
-0.6000 0.8999 0.0000
-0.6333 0.9500 0.0000
-0.6667 1.0000 0.0000
-0.1921 0.2305 0.0000
-0.2348 0.2818 0.0000
-0.2776 0.3331 0.0000
-0.3203 0.3844 0.0000
-0.3631 0.4357 0.0000
-0.4058 0.4870 0.0000
-0.4486 0.5383 0.0000
-0.4913 0.5896 0.0000
-0.5341 0.6409 0.0000
-0.5768 0.6922 0.0000
-0.6196 0.7435 0.0000
-0.6623 0.7948 0.0000
-0.7051 0.8461 0.0000
-0.7478 0.8974 0.0000
-0.7906 0.9487 0.0000
-0.8333 1.0000 0.0000
-0.2121 0.2121 0.0000
-0.2647 0.2647 0.0000
-0.3172 0.3172 0.0000
-0.3697 0.3697 0.0000
-0.4222 0.4222 0.0000
-0.4748 0.4748 0.0000
-0.5273 0.5273 0.0000
-0.5798 0.5798 0.0000
-0.6323 0.6323 0.0000
-0.6849 0.6849 0.0000
-0.7374 0.7374 0.0000
-0.7899 0.7899 0.0000
-0.8424 0.8424 0.0000
-0.8950 0.8950 0.0000
-0.9475 0.9475 0.0000
-1.0000 1.0000 0.0000
-0.2305 0.1921 0.0000
-0.2818 0.2348 0.0000
-0.3331 0.2776 0.0000
-0.3844 0.3203 0.0000
-0.4357 0.3631 0.0000
-0.4870 0.4058 0.0000
-0.5383 0.4486 0.0000
-0.5896 0.4913 0.0000
-0.6409 0.5341 0.0000
-0.6922 0.5768 0.0000
-0.7435 0.6196 0.0000
-0.7948 0.6623 0.0000
-0.8461 0.7051 0.0000
-0.8974 0.7478 0.0000
-0.9487 0.7906 0.0000
-1.0000 0.8333 0.0000
-0.2496 0.1664 0.0000
-0.2996 0.1998 0.0000
-0.3497 0.2331 0.0000
-0.3997 0.2665 0.0000
-0.4497 0.2998 0.0000
-0.4997 0.3332 0.0000
-0.5498 0.3665 0.0000
-0.5998 0.3999 0.0000
-0.6498 0.4332 0.0000
-0.6998 0.4666 0.0000
-0.7499 0.4999 0.0000
-0.7999 0.5333 0.0000
-0.8499 0.5666 0.0000
-0.8999 0.6000 0.0000
-0.9500 0.6333 0.0000
-1.0000 0.6667 0.0000
-0.2683 0.1342 0.0000
-0.3171 0.1586 0.0000
-0.3659 0.1829 0.0000
-0.4147 0.2073 0.0000
-0.4634 0.2317 0.0000
-0.5122 0.2561 0.0000
-0.5610 0.2805 0.0000
-0.6098 0.3049 0.0000
-0.6586 0.3293 0.0000
-0.7073 0.3537 0.0000
-0.7561 0.3781 0.0000
-0.8049 0.4024 0.0000
-0.8537 0.4268 0.0000
-0.9024 0.4512 0.0000
-0.9512 0.4756 0.0000
-1.0000 0.5000 0.0000
-0.2846 0.0949 0.0000
-0.3323 0.1108 0.0000
-0.3800 0.1267 0.0000
-0.4277 0.1426 0.0000
-0.4754 0.1585 0.0000
-0.5231 0.1744 0.0000
-0.5708 0.1903 0.0000
-0.6185 0.2062 0.0000
-0.6661 0.2220 0.0000
-0.7138 0.2379 0.0000
-0.7615 0.2538 0.0000
-0.8092 0.2697 0.0000
-0.8569 0.2856 0.0000
-0.9046 0.3015 0.0000
-0.9523 0.3174 0.0000
-1.0000 0.3333 0.0000
-0.2959 0.0493 0.0000
-0.3429 0.0571 0.0000
-0.3898 0.0650 0.0000
-0.4367 0.0728 0.0000
-0.4837 0.0806 0.0000
-0.5306 0.0884 0.0000
-0.5776 0.0963 0.0000
-0.6245 0.1041 0.0000
-0.6714 0.1119 0.0000
-0.7184 0.1197 0.0000
-0.7653 0.1276 0.0000
-0.8122 0.1354 0.0000
-0.8592 0.1432 0.0000
-0.9061 0.1510 0.0000
-0.9531 0.1588 0.0000
-1.0000 0.1667 0.0000
-0.3000 0.0000 0.0000
-0.3467 0.0000 0.0000
-0.3933 0.0000 0.0000
-0.4400 0.0000 0.0000
-0.4867 0.0000 0.0000
-0.5333 0.0000 0.0000
-0.5800 0.0000 0.0000
-0.6267 0.0000 0.0000
-0.6733 0.0000 0.0000
-0.7200 0.0000 0.0000
-0.7667 0.0000 0.0000
-0.8133 0.0000 0.0000
-0.8600 0.0000 0.0000
-0.9067 0.0000 0.0000
-0.9533 0.0000 0.0000
-1.0000 0.0000 0.0000
-0.2959 -0.0493 0.0000
-0.3429 -0.0571 0.0000
-0.3898 -0.0650 0.0000
-0.4367 -0.0728 0.0000
-0.4837 -0.0806 0.0000
-0.5306 -0.0884 0.0000
-0.5776 -0.0963 0.0000
-0.6245 -0.1041 0.0000
-0.6714 -0.1119 0.0000
-0.7184 -0.1197 0.0000
-0.7653 -0.1276 0.0000
-0.8122 -0.1354 0.0000
-0.8592 -0.1432 0.0000
-0.9061 -0.1510 0.0000
-0.9531 -0.1588 0.0000
-1.0000 -0.1667 0.0000
-0.2846 -0.0949 0.0000
-0.3323 -0.1108 0.0000
-0.3800 -0.1267 0.0000
-0.4277 -0.1426 0.0000
-0.4754 -0.1585 0.0000
-0.5231 -0.1744 0.0000
-0.5708 -0.1903 0.0000
-0.6185 -0.2062 0.0000
-0.6661 -0.2220 0.0000
-0.7138 -0.2379 0.0000
-0.7615 -0.2538 0.0000
-0.8092 -0.2697 0.0000
-0.8569 -0.2856 0.0000
-0.9046 -0.3015 0.0000
-0.9523 -0.3174 0.0000
-1.0000 -0.3333 0.0000
-0.2683 -0.1342 0.0000
-0.3171 -0.1586 0.0000
-0.3659 -0.1829 0.0000
-0.4147 -0.2073 0.0000
-0.4634 -0.2317 0.0000
-0.5122 -0.2561 0.0000
-0.5610 -0.2805 0.0000
-0.6098 -0.3049 0.0000
-0.6586 -0.3293 0.0000
-0.7073 -0.3537 0.0000
-0.7561 -0.3781 0.0000
-0.8049 -0.4024 0.0000
-0.8537 -0.4268 0.0000
-0.9024 -0.4512 0.0000
-0.9512 -0.4756 0.0000
-1.0000 -0.5000 0.0000
-0.2496 -0.1664 0.0000
-0.2996 -0.1998 0.0000
-0.3497 -0.2331 0.0000
-0.3997 -0.2665 0.0000
-0.4497 -0.2998 0.0000
-0.4997 -0.3332 0.0000
-0.5498 -0.3665 0.0000
-0.5998 -0.3999 0.0000
-0.6498 -0.4332 0.0000
-0.6998 -0.4666 0.0000
-0.7499 -0.4999 0.0000
-0.7999 -0.5333 0.0000
-0.8499 -0.5666 0.0000
-0.8999 -0.6000 0.0000
-0.9500 -0.6333 0.0000
-1.0000 -0.6667 0.0000
-0.2305 -0.1921 0.0000
-0.2818 -0.2348 0.0000
-0.3331 -0.2776 0.0000
-0.3844 -0.3203 0.0000
-0.4357 -0.3631 0.0000
-0.4870 -0.4058 0.0000
-0.5383 -0.4486 0.0000
-0.5896 -0.4913 0.0000
-0.6409 -0.5341 0.0000
-0.6922 -0.5768 0.0000
-0.7435 -0.6196 0.0000
-0.7948 -0.6623 0.0000
-0.8461 -0.7051 0.0000
-0.8974 -0.7478 0.0000
-0.9487 -0.7906 0.0000
-1.0000 -0.8333 0.0000
-0.2121 -0.2121 0.0000
-0.2647 -0.2647 0.0000
-0.3172 -0.3172 0.0000
-0.3697 -0.3697 0.0000
-0.4222 -0.4222 0.0000
-0.4748 -0.4748 0.0000
-0.5273 -0.5273 0.0000
-0.5798 -0.5798 0.0000
-0.6323 -0.6323 0.0000
-0.6849 -0.6849 0.0000
-0.7374 -0.7374 0.0000
-0.7899 -0.7899 0.0000
-0.8424 -0.8424 0.0000
-0.8950 -0.8950 0.0000
-0.9475 -0.9475 0.0000
-1.0000 -1.0000 0.0000
-0.1921 -0.2305 0.0000
-0.2348 -0.2818 0.0000
-0.2776 -0.3331 0.0000
-0.3203 -0.3844 0.0000
-0.3631 -0.4357 0.0000
-0.4058 -0.4870 0.0000
-0.4486 -0.5383 0.0000
-0.4913 -0.5896 0.0000
-0.5341 -0.6409 0.0000
-0.5768 -0.6922 0.0000
-0.6196 -0.7435 0.0000
-0.6623 -0.7948 0.0000
-0.7051 -0.8461 0.0000
-0.7478 -0.8974 0.0000
-0.7906 -0.9487 0.0000
-0.8333 -1.0000 0.0000
-0.1664 -0.2496 0.0000
-0.1998 -0.2996 0.0000
-0.2331 -0.3497 0.0000
-0.2665 -0.3997 0.0000
-0.2998 -0.4497 0.0000
-0.3332 -0.4997 0.0000
-0.3665 -0.5498 0.0000
-0.3999 -0.5998 0.0000
-0.4332 -0.6498 0.0000
-0.4666 -0.6998 0.0000
-0.4999 -0.7499 0.0000
-0.5333 -0.7999 0.0000
-0.5666 -0.8499 0.0000
-0.6000 -0.8999 0.0000
-0.6333 -0.9500 0.0000
-0.6667 -1.0000 0.0000
-0.1342 -0.2683 0.0000
-0.1586 -0.3171 0.0000
-0.1829 -0.3659 0.0000
-0.2073 -0.4147 0.0000
-0.2317 -0.4634 0.0000
-0.2561 -0.5122 0.0000
-0.2805 -0.5610 0.0000
[...]
         <PointData>
            <DataArray Name="fValues" NumberOfComponents="3" format="ascii" type="Float64">
-1.01133e-01  2.62292e-01        00000 
-9.24326e-02  2.39503e-01        00000 
-8.27634e-02  2.24382e-01        00000 
-7.34883e-02  2.11295e-01        00000 
-6.47333e-02  1.98430e-01        00000 
-5.64407e-02  1.85109e-01        00000 
-4.85640e-02  1.71051e-01        00000 
-4.10877e-02  1.56136e-01        00000 
-3.40188e-02  1.40308e-01        00000 
-2.73772e-02  1.23535e-01        00000 
-2.11910e-02  1.05788e-01        00000 
-1.54998e-02  8.70293e-02        00000 
-1.03673e-02  6.72000e-02        00000 
-5.90665e-03  4.62065e-02        00000 
-2.32534e-03  2.38946e-02        00000 
-5.35248e-19  4.91204e-10        00000 
-1.06877e-01  2.82457e-01        00000 
-9.46837e-02  2.60891e-01        00000 
-8.41512e-02  2.47171e-01        00000 
-7.49491e-02  2.36217e-01        00000 
-6.66338e-02  2.26058e-01        00000 
-5.89372e-02  2.15910e-01        00000 
-5.17027e-02  2.05427e-01        00000 
-4.48484e-02  1.94448e-01        00000 
-3.83342e-02  1.82892e-01        00000 
-3.21410e-02  1.70713e-01        00000 
-2.62556e-02  1.57882e-01        00000 
-2.06608e-02  1.44373e-01        00000 
-1.53268e-02  1.30166e-01        00000 
-1.01998e-02  1.15251e-01        00000 
-5.17397e-03  9.96303e-02        00000 
 8.39524e-19  8.33349e-02        00000 
-1.13257e-01  3.06849e-01        00000 
-9.71938e-02  2.87188e-01        00000 
-8.53581e-02  2.75228e-01        00000 
-7.58705e-02  2.66326e-01        00000 
-6.77227e-02  2.58662e-01        00000 
-6.03823e-02  2.51421e-01        00000 
-5.35631e-02  2.44219e-01        00000 
-4.71050e-02  2.36870e-01        00000 
-4.09158e-02  2.29275e-01        00000 
-3.49378e-02  2.21386e-01        00000 
-2.91267e-02  2.13174e-01        00000 
-2.34342e-02  2.04619e-01        00000 
-1.77942e-02  1.95707e-01        00000 
-1.21082e-02  1.86423e-01        00000 
-6.23514e-03  1.76751e-01        00000 
 1.72518e-19  1.66670e-01        00000 
-1.19936e-01  3.35578e-01        00000 
-1.00061e-01  3.19058e-01        00000 
-8.67147e-02  3.09295e-01        00000 
-7.66812e-02  3.02542e-01        00000 
-6.84474e-02  2.97242e-01        00000 
-6.12337e-02  2.92659e-01        00000 
-5.46161e-02  2.88420e-01        00000 
-4.83534e-02  2.84326e-01        00000 
-4.23017e-02  2.80270e-01        00000 
-3.63711e-02  2.76195e-01        00000 
-3.05002e-02  2.72071e-01        00000 
-2.46392e-02  2.67878e-01        00000 
-1.87367e-02  2.63601e-01        00000 
-1.27287e-02  2.59218e-01        00000 
-6.52629e-03  2.54699e-01        00000 
 2.52232e-18  2.50005e-01        00000 
-1.26254e-01  3.67961e-01        00000 
-1.03504e-01  3.56045e-01        00000 
-8.88396e-02  3.49111e-01        00000 
-7.82257e-02  3.44721e-01        00000 
-6.97744e-02  3.41768e-01        00000 
-6.25181e-02  3.39681e-01        00000 
-5.59250e-02  3.38144e-01        00000 
-4.96859e-02  3.36971e-01        00000 
-4.36135e-02  3.36053e-01        00000 
-3.75913e-02  3.35322e-01        00000 
-3.15467e-02  3.34740e-01        00000 
-2.54358e-02  3.34285e-01        00000 
-1.92343e-02  3.33939e-01        00000 
-1.29314e-02  3.33685e-01        00000 
-6.52234e-03  3.33500e-01        00000 
-4.36545e-18  3.33340e-01        00000 
-1.31364e-01  4.02083e-01        00000 
-1.07674e-01  3.95872e-01        00000 
-9.24823e-02  3.92365e-01        00000 
-8.15828e-02  3.90610e-01        00000 
-7.29719e-02  3.90089e-01        00000 
-6.56124e-02  3.90470e-01        00000 
-5.89273e-02  3.91532e-01        00000 
-5.25752e-02  3.93118e-01        00000 
-4.63439e-02  3.95122e-01        00000 
-4.00985e-02  3.97465e-01        00000 
-3.37539e-02  4.00097e-01        00000 
-2.72624e-02  4.02981e-01        00000 
-2.06077e-02  4.06095e-01        00000 
-1.38049e-02  4.09423e-01        00000 
-6.90456e-03  4.12954e-01        00000 
 1.75219e-18  4.16675e-01        00000 
-1.34421e-01  4.34815e-01        00000 
-1.12368e-01  4.34365e-01        00000 
-9.79060e-02  4.34429e-01        00000 
-8.72963e-02  4.35452e-01        00000 
-7.87490e-02  4.37501e-01        00000 
-7.13251e-02  4.40485e-01        00000 
-6.44926e-02  4.44277e-01        00000 
-5.79279e-02  4.48752e-01        00000 
-5.14216e-02  4.53803e-01        00000 
-4.48319e-02  4.59340e-01        00000 
-3.80598e-02  4.65293e-01        00000 
-3.10373e-02  4.71609e-01        00000 
-2.37222e-02  4.78250e-01        00000 
-1.60970e-02  4.85196e-01        00000 
-8.17330e-03  4.92443e-01        00000 
 3.35047e-18  5.00009e-01        00000 
-1.34967e-01  4.62565e-01        00000 
-1.16960e-01  4.66591e-01        00000 
-1.04383e-01  4.69698e-01        00000 
-9.45812e-02  4.73408e-01        00000 
-8.62908e-02  4.78183e-01        00000 
-7.88307e-02  4.84078e-01        00000 
-7.17982e-02  4.91005e-01        00000 
-6.49341e-02  4.98845e-01        00000 
-5.80572e-02  5.07476e-01        00000 
-5.10306e-02  5.16792e-01        00000 
-4.37423e-02  5.26700e-01        00000 
-3.60940e-02  5.37131e-01        00000 
-2.79936e-02  5.48031e-01        00000 
-1.93480e-02  5.59368e-01        00000 
-1.00565e-02  5.71133e-01        00000 
-1.10289e-18  5.83344e-01        00000 
-1.33161e-01  4.82853e-01        00000 
-1.20587e-01  4.89131e-01        00000 
-1.10340e-01  4.94388e-01        00000 
-1.01434e-01  5.00633e-01        00000 
-9.33462e-02  5.08393e-01        00000 
-8.57430e-02  5.17692e-01        00000 
-7.83928e-02  5.28400e-01        00000 
-7.11236e-02  5.40354e-01        00000 
-6.37957e-02  5.53401e-01        00000 
-5.62858e-02  5.67404e-01        00000 
-4.84755e-02  5.82252e-01        00000 
-4.02426e-02  5.97855e-01        00000 
-3.14523e-02  6.14144e-01        00000 
-2.19483e-02  6.31066e-01        00000 
-1.15421e-02  6.48586e-01        00000 
-2.10957e-18  6.66679e-01        00000 
-1.29657e-01  4.95251e-01        00000 
-1.22513e-01  5.01512e-01        00000 
-1.14219e-01  5.08237e-01        00000 
-1.05858e-01  5.17084e-01        00000 
-9.76987e-02  5.28268e-01        00000 
-8.97461e-02  5.41611e-01        00000 
-8.19299e-02  5.56853e-01        00000 
-7.41574e-02  5.73753e-01        00000 
-6.63305e-02  5.92105e-01        00000 
-5.83474e-02  6.11740e-01        00000 
-5.00991e-02  6.32521e-01        00000 
-4.14646e-02  6.54332e-01        00000 
-3.23057e-02  6.77076e-01        00000 
-2.24641e-02  7.00663e-01        00000 
-1.17613e-02  7.25008e-01        00000 
-1.40311e-18  7.50014e-01        00000 
-1.25256e-01  5.00867e-01        00000 
-1.22469e-01  5.05545e-01        00000 
-1.15297e-01  5.13566e-01        00000 
-1.06954e-01  5.25369e-01        00000 
-9.83976e-02  5.40550e-01        00000 
-8.98933e-02  5.58588e-01        00000 
-8.14778e-02  5.79051e-01        00000 
-7.31169e-02  6.01602e-01        00000 
-6.47528e-02  6.25980e-01        00000 
-5.63204e-02  6.51981e-01        00000 
-4.77504e-02  6.79435e-01        00000 
-3.89683e-02  7.08190e-01        00000 
-2.98924e-02  7.38105e-01        00000 
-2.04323e-02  7.69035e-01        00000 
-1.04925e-02  8.00832e-01        00000 
-4.01150e-19  8.33349e-01        00000 
-1.20666e-01  5.01528e-01        00000 
-1.20724e-01  5.03923e-01        00000 
-1.13762e-01  5.13492e-01        00000 
-1.04968e-01  5.28811e-01        00000 
-9.57693e-02  5.48545e-01        00000 
-8.65519e-02  5.71800e-01        00000 
-7.74109e-02  5.97967e-01        00000 
-6.83526e-02  6.26622e-01        00000 
-5.93665e-02  6.57454e-01        00000 
-5.04484e-02  6.90219e-01        00000 
-4.16103e-02  7.24713e-01        00000 
-3.28842e-02  7.60750e-01        00000 
-2.43221e-02  7.98149e-01        00000 
-1.59880e-02  8.36728e-01        00000 
-7.91974e-03  8.76301e-01        00000 
 1.67844e-18  9.16684e-01        00000 
-1.16478e-01  4.99171e-01        00000 
-1.17705e-01  4.98918e-01        00000 
-1.10260e-01  5.10755e-01        00000 
-1.00744e-01  5.30128e-01        00000 
-9.07402e-02  5.54833e-01        00000 
-8.06743e-02  5.83618e-01        00000 
-7.06584e-02  6.15726e-01        00000 
-6.07338e-02  6.50652e-01        00000 
-5.09469e-02  6.88030e-01        00000 
-4.13774e-02  7.27567e-01        00000 
-3.21504e-02  7.69016e-01        00000 
-2.34454e-02  8.12165e-01        00000 
-1.55046e-02  8.56848e-01        00000 
-8.64672e-03  9.02975e-01        00000 
-3.28970e-03  9.50598e-01        00000 
-3.54222e-18  1.00002e+00        00000 
-1.11563e-01  4.94696e-01        00000 
-1.13766e-01  4.90266e-01        00000 
-1.08428e-01  4.99024e-01        00000 
-1.00632e-01  5.15243e-01        00000 
-9.20629e-02  5.36425e-01        00000 
-8.32308e-02  5.61288e-01        00000 
-7.43025e-02  5.89081e-01        00000 
-6.53403e-02  6.19322e-01        00000 
-5.63841e-02  6.51671e-01        00000 
-4.74821e-02  6.85864e-01        00000 
-3.87005e-02  7.21673e-01        00000 
-3.01260e-02  7.58884e-01        00000 
-2.18619e-02  7.97279e-01        00000 
-1.40191e-02  8.36617e-01        00000 
-6.70346e-03  8.76589e-01        00000 
 3.16491e-18  9.16684e-01        00000 
-1.05091e-01  4.85708e-01        00000 
-1.07170e-01  4.77637e-01        00000 
-1.03236e-01  4.83258e-01        00000 
-9.70761e-02  4.96279e-01        00000 
-8.99891e-02  5.13974e-01        00000 
-8.24667e-02  5.34978e-01        00000 
-7.46862e-02  5.58530e-01        00000 
-6.67142e-02  5.84157e-01        00000 
-5.85803e-02  6.11537e-01        00000 
-5.03070e-02  6.40425e-01        00000 
-4.19216e-02  6.70615e-01        00000 
-3.34613e-02  7.01908e-01        00000 
-2.49741e-02  7.34093e-01        00000 
-1.65183e-02  7.66927e-01        00000 
-8.16374e-03  8.00120e-01        00000 
-5.78603e-19  8.33349e-01        00000 
-9.71531e-02  4.70578e-01        00000 
-9.74681e-02  4.59983e-01        00000 
-9.41929e-02  4.62836e-01        00000 
-8.93303e-02  4.72804e-01        00000 
-8.36630e-02  4.87113e-01        00000 
-7.75019e-02  5.04373e-01        00000 
-7.09752e-02  5.23817e-01        00000 
-6.41325e-02  5.44981e-01        00000 
-5.69919e-02  5.67563e-01        00000 
-4.95614e-02  5.91343e-01        00000 
-4.18493e-02  6.16148e-01        00000 
-3.38698e-02  6.41825e-01        00000 
-2.56479e-02  6.68224e-01        00000 
-1.72225e-02  6.95183e-01        00000 
-8.64937e-03  7.22521e-01        00000 
 2.08681e-19  7.50014e-01        00000 
-8.80190e-02  4.47746e-01        00000 
-8.51484e-02  4.36705e-01        00000 
-8.16669e-02  4.37676e-01        00000 
-7.76513e-02  4.45044e-01        00000 
-7.31955e-02  4.56243e-01        00000 
-6.83456e-02  4.69972e-01        00000 
-6.31207e-02  4.85509e-01        00000 
-5.75271e-02  5.02426e-01        00000 
-5.15654e-02  5.20450e-01        00000 
-4.52342e-02  5.39394e-01        00000 
-3.85343e-02  5.59127e-01        00000 
-3.14704e-02  5.79549e-01        00000 
-2.40547e-02  6.00579e-01        00000 
-1.63094e-02  6.22151e-01        00000 
-8.27184e-03  6.44204e-01        00000 
-3.43988e-18  6.66679e-01        00000 
-7.82917e-02  4.16678e-01        00000 
-7.17913e-02  4.07930e-01        00000 
-6.75314e-02  4.08439e-01        00000 
-6.39405e-02  4.13987e-01        00000 
-6.04179e-02  4.22554e-01        00000 
-5.67097e-02  4.33083e-01        00000 
-5.27025e-02  4.44986e-01        00000 
-4.83436e-02  4.57910e-01        00000 
-4.36096e-02  4.71636e-01        00000 
-3.84915e-02  4.86024e-01        00000 
-3.29883e-02  5.00981e-01        00000 
-2.71044e-02  5.16451e-01        00000 
-2.08482e-02  5.32406e-01        00000 
-1.42322e-02  5.48847e-01        00000 
-7.27421e-03  5.65804e-01        00000 
 2.49953e-18  5.83344e-01        00000 
-6.88420e-02  3.78688e-01        00000 
-5.96923e-02  3.74818e-01        00000 
-5.47958e-02  3.76380e-01        00000 
-5.14950e-02  3.81008e-01        00000 
-4.86875e-02  3.87506e-01        00000 
-4.58892e-02  3.95223e-01        00000 
-4.28794e-02  4.03785e-01        00000 
-3.95571e-02  4.12967e-01        00000 
-3.58788e-02  4.22628e-01        00000 
-3.18296e-02  4.32682e-01        00000 
-2.74094e-02  4.43078e-01        00000 
-2.26253e-02  4.53789e-01        00000 
-1.74868e-02  4.64810e-01        00000 
-1.20024e-02  4.76157e-01        00000 
-6.17557e-03  4.87868e-01        00000 
 7.15519e-19  5.00009e-01        00000 
-6.05912e-02  3.37185e-01        00000 
-5.09005e-02  3.39687e-01        00000 
-4.61906e-02  3.43209e-01        00000 
-4.33888e-02  3.47481e-01        00000 
-4.12111e-02  3.52282e-01        00000 
-3.90929e-02  3.57445e-01        00000 
-3.67781e-02  3.62859e-01        00000 
-3.41513e-02  3.68450e-01        00000 
-3.11645e-02  3.74172e-01        00000 
-2.78026e-02  3.79998e-01        00000 
-2.40666e-02  3.85914e-01        00000 
-1.99645e-02  3.91914e-01        00000 
-1.55055e-02  3.97997e-01        00000 
-1.06951e-02  4.04160e-01        00000 
-5.53151e-03  4.10395e-01        00000 
-6.86871e-20  4.16675e-01        00000 
-5.39879e-02  2.96362e-01        00000 
-4.60925e-02  3.05224e-01        00000 
-4.25333e-02  3.10648e-01        00000 
-4.05198e-02  3.14536e-01        00000 
-3.89222e-02  3.17633e-01        00000 
-3.72555e-02  3.20244e-01        00000 
-3.53070e-02  3.22507e-01        00000 
-3.29863e-02  3.24496e-01        00000 
-3.02598e-02  3.26251e-01        00000 
-2.71199e-02  3.27803e-01        00000 
-2.35711e-02  3.29172e-01        00000 
-1.96218e-02  3.30373e-01        00000 
-1.52816e-02  3.31411e-01        00000 
-1.05589e-02  3.32277e-01        00000 
-5.46172e-03  3.32940e-01        00000 
-1.67461e-18  3.33340e-01        00000 
-4.90191e-02  2.59475e-01        00000 
-4.46148e-02  2.73506e-01        00000 
-4.27796e-02  2.80053e-01        00000 
-4.16477e-02  2.83094e-01        00000 
-4.04926e-02  2.84198e-01        00000 
-3.90165e-02  2.84059e-01        00000 
-3.71048e-02  2.83018e-01        00000 
-3.47206e-02  2.81261e-01        00000 
-3.18601e-02  2.78903e-01        00000 
-2.85341e-02  2.76017e-01        00000 
-2.47589e-02  2.72659e-01        00000 
-2.05539e-02  2.68872e-01        00000 
-1.59413e-02  2.64687e-01        00000 
-1.09494e-02  2.60133e-01        00000 
-5.61722e-03  2.55230e-01        00000 
-1.67099e-18  2.50005e-01        00000 
-4.54090e-02  2.28191e-01        00000 
-4.52180e-02  2.45695e-01        00000 
-4.51732e-02  2.52363e-01        00000 
-4.47755e-02  2.53957e-01        00000 
-4.38124e-02  2.52688e-01        00000 
-4.22315e-02  2.49529e-01        00000 
-4.00378e-02  2.44965e-01        00000 
-3.72615e-02  2.39263e-01        00000 
-3.39427e-02  2.32588e-01        00000 
-3.01263e-02  2.25052e-01        00000 
-2.58606e-02  2.16741e-01        00000 
-2.11992e-02  2.07732e-01        00000 
-1.62022e-02  1.98104e-01        00000 
-1.09407e-02  1.87957e-01        00000 
-5.50161e-03  1.77422e-01        00000 
 1.30323e-18  1.66670e-01        00000 
-4.27870e-02  2.02752e-01        00000 
-4.67800e-02  2.22104e-01        00000 
-4.82854e-02  2.27986e-01        00000 
-4.82965e-02  2.27613e-01        00000 
-4.72163e-02  2.23638e-01        00000 
-4.52218e-02  2.17215e-01        00000 
-4.24374e-02  2.08925e-01        00000 
-3.89652e-02  1.99092e-01        00000 
-3.49027e-02  1.87919e-01        00000 
-3.03519e-02  1.75553e-01        00000 
-2.54257e-02  1.62109e-01        00000 
-2.02515e-02  1.47696e-01        00000 
-1.49711e-02  1.32427e-01        00000 
-9.73661e-03  1.16443e-01        00000 
-4.70019e-03  9.99515e-02        00000 
 2.22479e-19  8.33349e-02        00000 
-4.07088e-02  1.82678e-01        00000 
-4.87373e-02  2.02393e-01        00000 
-5.12552e-02  2.06856e-01        00000 
-5.13255e-02  2.04158e-01        00000 
-4.98078e-02  1.97231e-01        00000 
-4.70907e-02  1.87359e-01        00000 
-4.33995e-02  1.75189e-01        00000 
-3.89068e-02  1.61093e-01        00000 
-3.37783e-02  1.45320e-01        00000 
-2.81967e-02  1.28057e-01        00000 
-2.23749e-02  1.09466e-01        00000 
-1.65640e-02  8.96851e-02        00000 
-1.10566e-02  6.88317e-02        00000 
-6.18957e-03  4.69758e-02        00000 
-2.35061e-03  2.40971e-02        00000 
-4.15564e-19  4.91204e-10        00000 
-3.84660e-02  1.63290e-01        00000 
-4.92533e-02  1.80480e-01        00000 
-5.33029e-02  1.85445e-01        00000 
-5.43148e-02  1.83695e-01        00000 
-5.35602e-02  1.77848e-01        00000 
-5.15533e-02  1.69131e-01        00000 
-4.85612e-02  1.58196e-01        00000 
-4.47472e-02  1.45428e-01        00000 
-4.02358e-02  1.31079e-01        00000 
-3.51425e-02  1.15338e-01        00000 
-2.95901e-02  9.83647e-02        00000 
-2.37172e-02  8.03037e-02        00000 
-1.76802e-02  6.12973e-02        00000 
-1.16440e-02  4.14864e-02        00000 
-5.74730e-03  2.10102e-02        00000 
 1.59160e-18 -3.22295e-12        00000 
-3.61803e-02  1.42034e-01        00000 
-4.89732e-02  1.56301e-01        00000 
-5.45252e-02  1.61066e-01        00000 
-5.65794e-02  1.60176e-01        00000 
-5.66111e-02  1.55547e-01        00000 
-5.52742e-02  1.48242e-01        00000 
-5.28840e-02  1.38868e-01        00000 
-4.96110e-02  1.27797e-01        00000 
-4.55553e-02  1.15279e-01        00000 
-4.07837e-02  1.01496e-01        00000 
-3.53478e-02  8.65985e-02        00000 
-2.92952e-02  7.07194e-02        00000 
-2.26751e-02  5.39894e-02        00000 
-1.55418e-02  3.65405e-02        00000 
-7.95631e-03  1.85043e-02        00000 
-2.13672e-18  8.63574e-13        00000 
-3.37847e-02  1.19977e-01        00000 
-4.75926e-02  1.30631e-01        00000 
-5.42876e-02  1.34660e-01        00000 
-5.73081e-02  1.34277e-01        00000 
-5.81241e-02  1.30775e-01        00000 
-5.74398e-02  1.24942e-01        00000 
-5.56106e-02  1.17279e-01        00000 
-5.28196e-02  1.08116e-01        00000 
-4.91594e-02  9.76784e-02        00000 
-4.46711e-02  8.61333e-02        00000 
-3.93645e-02  7.36103e-02        00000 
-3.32298e-02  6.02192e-02        00000 
-2.62458e-02  4.60609e-02        00000 
-1.83882e-02  3.12346e-02        00000 
-9.63968e-03  1.58436e-02        00000 
-2.73259e-18 -2.31323e-13        00000 
-3.13717e-02  9.86243e-02        00000 
-4.48235e-02  1.05319e-01        00000 
-5.20276e-02  1.08089e-01        00000 
-5.57123e-02  1.07791e-01        00000 
-5.71756e-02  1.05122e-01        00000 
-5.70796e-02  1.00589e-01        00000 
-5.57749e-02  9.45532e-02        00000 
-5.34470e-02  8.72746e-02        00000 
-5.01869e-02  7.89420e-02        00000 
-4.60274e-02  6.96964e-02        00000 
-4.09614e-02  5.96461e-02        00000 
-3.49528e-02  4.88771e-02        00000 
-2.79413e-02  3.74620e-02        00000 
-1.98465e-02  2.54660e-02        00000 
-1.05699e-02  1.29545e-02        00000 
 3.91846e-18  6.16870e-14        00000 
-2.90793e-02  7.98061e-02        00000 
-4.07894e-02  8.28814e-02        00000 
-4.76498e-02  8.41369e-02        00000 
-5.14967e-02  8.35494e-02        00000 
-5.33090e-02  8.13401e-02        00000 
-5.36254e-02  7.77676e-02        00000 
-5.27463e-02  7.30591e-02        00000 
-5.08368e-02  6.73987e-02        00000 
-4.79812e-02  6.09319e-02        00000 
-4.42107e-02  5.37722e-02        00000 
-3.95190e-02  4.60080e-02        00000 
-3.38699e-02  3.77072e-02        00000 
-2.72006e-02  2.89218e-02        00000 
-1.94203e-02  1.96908e-02        00000 
-1.04073e-02  1.00429e-02        00000 
-3.76365e-18 -1.54201e-14        00000 
-2.70623e-02  6.51944e-02        00000 
-3.60816e-02  6.56440e-02        00000 
-4.18293e-02  6.55808e-02        00000 
-4.52981e-02  6.45573e-02        00000 
-4.70878e-02  6.25085e-02        00000 
-4.75624e-02  5.95241e-02        00000 
-4.69392e-02  5.57323e-02        00000 
-4.53453e-02  5.12572e-02        00000 
-4.28501e-02  4.62066e-02        00000 
-3.94853e-02  4.06695e-02        00000 
-3.52555e-02  3.47162e-02        00000 
-3.01448e-02  2.84004e-02        00000 
-2.41206e-02  2.17591e-02        00000 
-1.71347e-02  1.48133e-02        00000 
-9.12242e-03  7.56624e-03        00000 
 2.20467e-18 -5.06635e-18        00000 
-2.54767e-02  5.55647e-02        00000 