<?xml version="1.0" encoding="utf-8"?>
<VTKFile byte_order="LittleEndian" type="UnstructuredGrid" version="0.1">
   <UnstructuredGrid>
      <Piece NumberOfCells="720" NumberOfPoints="768">
         <Points>
            <DataArray Name="Points" NumberOfComponents="3" format="ascii" type="Float32">
0.2121 0.2121 0.0000
0.2647 0.2647 0.0000
0.3172 0.3172 0.0000
0.3697 0.3697 0.0000
0.4222 0.4222 0.0000
0.4748 0.4748 0.0000
0.5273 0.5273 0.0000
0.5798 0.5798 0.0000
0.6323 0.6323 0.0000
0.6849 0.6849 0.0000
0.7374 0.7374 0.0000
0.7899 0.7899 0.0000
0.8424 0.8424 0.0000
0.8950 0.8950 0.0000
0.9475 0.9475 0.0000
1.0000 1.0000 0.0000
0.1921 0.2305 0.0000
0.2348 0.2818 0.0000
0.2776 0.3331 0.0000
0.3203 0.3844 0.0000
0.3631 0.4357 0.0000
0.4058 0.4870 0.0000
0.4486 0.5383 0.0000
0.4913 0.5896 0.0000
0.5341 0.6409 0.0000
0.5768 0.6922 0.0000
0.6196 0.7435 0.0000
0.6623 0.7948 0.0000
0.7051 0.8461 0.0000
0.7478 0.8974 0.0000
0.7906 0.9487 0.0000
0.8333 1.0000 0.0000
0.1664 0.2496 0.0000
0.1998 0.2996 0.0000
0.2331 0.3497 0.0000
0.2665 0.3997 0.0000
0.2998 0.4497 0.0000
0.3332 0.4997 0.0000
0.3665 0.5498 0.0000
0.3999 0.5998 0.0000
0.4332 0.6498 0.0000
0.4666 0.6998 0.0000
0.4999 0.7499 0.0000
0.5333 0.7999 0.0000
0.5666 0.8499 0.0000
0.6000 0.8999 0.0000
0.6333 0.9500 0.0000
0.6667 1.0000 0.0000
0.1342 0.2683 0.0000
0.1586 0.3171 0.0000
0.1829 0.3659 0.0000
0.2073 0.4147 0.0000
0.2317 0.4634 0.0000
0.2561 0.5122 0.0000
0.2805 0.5610 0.0000
0.3049 0.6098 0.0000
0.3293 0.6586 0.0000
0.3537 0.7073 0.0000
0.3781 0.7561 0.0000
0.4024 0.8049 0.0000
0.4268 0.8537 0.0000
0.4512 0.9024 0.0000
0.4756 0.9512 0.0000
0.5000 1.0000 0.0000
0.0949 0.2846 0.0000
0.1108 0.3323 0.0000
0.1267 0.3800 0.0000
0.1426 0.4277 0.0000
0.1585 0.4754 0.0000
0.1744 0.5231 0.0000
0.1903 0.5708 0.0000
0.2062 0.6185 0.0000
0.2220 0.6661 0.0000
0.2379 0.7138 0.0000
0.2538 0.7615 0.0000
0.2697 0.8092 0.0000
0.2856 0.8569 0.0000
0.3015 0.9046 0.0000
0.3174 0.9523 0.0000
0.3333 1.0000 0.0000
0.0493 0.2959 0.0000
0.0571 0.3429 0.0000
0.0650 0.3898 0.0000
0.0728 0.4367 0.0000
0.0806 0.4837 0.0000
0.0884 0.5306 0.0000
0.0963 0.5776 0.0000
0.1041 0.6245 0.0000
0.1119 0.6714 0.0000
0.1197 0.7184 0.0000
0.1276 0.7653 0.0000
0.1354 0.8122 0.0000
0.1432 0.8592 0.0000
0.1510 0.9061 0.0000
0.1588 0.9531 0.0000
0.1667 1.0000 0.0000
0.0000 0.3000 0.0000
0.0000 0.3467 0.0000
0.0000 0.3933 0.0000
0.0000 0.4400 0.0000
0.0000 0.4867 0.0000
0.0000 0.5333 0.0000
0.0000 0.5800 0.0000
0.0000 0.6267 0.0000
0.0000 0.6733 0.0000
0.0000 0.7200 0.0000
0.0000 0.7667 0.0000
0.0000 0.8133 0.0000
0.0000 0.8600 0.0000
0.0000 0.9067 0.0000
0.0000 0.9533 0.0000
0.0000 1.0000 0.0000
-0.0493 0.2959 0.0000
-0.0571 0.3429 0.0000
-0.0650 0.3898 0.0000
-0.0728 0.4367 0.0000
-0.0806 0.4837 0.0000
-0.0884 0.5306 0.0000
-0.0963 0.5776 0.0000
-0.1041 0.6245 0.0000
-0.1119 0.6714 0.0000
-0.1197 0.7184 0.0000
-0.1276 0.7653 0.0000
-0.1354 0.8122 0.0000
-0.1432 0.8592 0.0000
-0.1510 0.9061 0.0000
-0.1588 0.9531 0.0000
-0.1667 1.0000 0.0000
-0.0949 0.2846 0.0000
-0.1108 0.3323 0.0000
-0.1267 0.3800 0.0000
-0.1426 0.4277 0.0000
-0.1585 0.4754 0.0000
-0.1744 0.5231 0.0000
-0.1903 0.5708 0.0000
-0.2062 0.6185 0.0000
-0.2220 0.6661 0.0000
-0.2379 0.7138 0.0000
-0.2538 0.7615 0.0000
-0.2697 0.8092 0.0000
-0.2856 0.8569 0.0000
-0.3015 0.9046 0.0000
-0.3174 0.9523 0.0000
-0.3333 1.0000 0.0000
-0.1342 0.2683 0.0000
-0.1586 0.3171 0.0000
-0.1829 0.3659 0.0000
-0.2073 0.4147 0.0000
-0.2317 0.4634 0.0000
-0.2561 0.5122 0.0000
-0.2805 0.5610 0.0000
-0.3049 0.6098 0.0000
-0.3293 0.6586 0.0000
-0.3537 0.7073 0.0000
-0.3781 0.7561 0.0000
-0.4024 0.8049 0.0000
-0.4268 0.8537 0.0000
-0.4512 0.9024 0.0000
-0.4756 0.9512 0.0000
-0.5000 1.0000 0.0000
-0.1664 0.2496 0.0000
-0.1998 0.2996 0.0000
-0.2331 0.3497 0.0000
-0.2665 0.3997 0.0000
-0.2998 0.4497 0.0000
-0.3332 0.4997 0.0000
-0.3665 0.5498 0.0000
-0.3999 0.5998 0.0000
-0.4332 0.6498 0.0000
-0.4666 0.6998 0.0000
-0.4999 0.7499 0.0000
-0.5333 0.7999 0.0000
-0.5666 0.8499 0.0000
-0.6000 0.8999 0.0000
-0.6333 0.9500 0.0000
-0.6667 1.0000 0.0000
-0.1921 0.2305 0.0000
-0.2348 0.2818 0.0000
-0.2776 0.3331 0.0000
-0.3203 0.3844 0.0000
-0.3631 0.4357 0.0000
-0.4058 0.4870 0.0000
-0.4486 0.5383 0.0000
-0.4913 0.5896 0.0000
-0.5341 0.6409 0.0000
-0.5768 0.6922 0.0000
-0.6196 0.7435 0.0000
-0.6623 0.7948 0.0000
-0.7051 0.8461 0.0000
-0.7478 0.8974 0.0000
-0.7906 0.9487 0.0000
-0.8333 1.0000 0.0000
-0.2121 0.2121 0.0000
-0.2647 0.2647 0.0000
-0.3172 0.3172 0.0000
-0.3697 0.3697 0.0000
-0.4222 0.4222 0.0000
-0.4748 0.4748 0.0000
-0.5273 0.5273 0.0000
-0.5798 0.5798 0.0000
-0.6323 0.6323 0.0000
-0.6849 0.6849 0.0000
-0.7374 0.7374 0.0000
-0.7899 0.7899 0.0000
-0.8424 0.8424 0.0000
-0.8950 0.8950 0.0000
-0.9475 0.9475 0.0000
-1.0000 1.0000 0.0000
-0.2305 0.1921 0.0000
-0.2818 0.2348 0.0000
-0.3331 0.2776 0.0000
-0.3844 0.3203 0.0000
-0.4357 0.3631 0.0000
-0.4870 0.4058 0.0000
-0.5383 0.4486 0.0000
-0.5896 0.4913 0.0000
-0.6409 0.5341 0.0000
-0.6922 0.5768 0.0000
-0.7435 0.6196 0.0000
-0.7948 0.6623 0.0000
-0.8461 0.7051 0.0000
-0.8974 0.7478 0.0000
-0.9487 0.7906 0.0000
-1.0000 0.8333 0.0000
-0.2496 0.1664 0.0000
-0.2996 0.1998 0.0000
-0.3497 0.2331 0.0000
-0.3997 0.2665 0.0000
-0.4497 0.2998 0.0000
-0.4997 0.3332 0.0000
-0.5498 0.3665 0.0000
-0.5998 0.3999 0.0000
-0.6498 0.4332 0.0000
-0.6998 0.4666 0.0000
-0.7499 0.4999 0.0000
-0.7999 0.5333 0.0000
-0.8499 0.5666 0.0000
-0.8999 0.6000 0.0000
-0.9500 0.6333 0.0000
-1.0000 0.6667 0.0000
-0.2683 0.1342 0.0000
-0.3171 0.1586 0.0000
-0.3659 0.1829 0.0000
-0.4147 0.2073 0.0000
-0.4634 0.2317 0.0000
-0.5122 0.2561 0.0000
-0.5610 0.2805 0.0000
-0.6098 0.3049 0.0000
-0.6586 0.3293 0.0000
-0.7073 0.3537 0.0000
-0.7561 0.3781 0.0000
-0.8049 0.4024 0.0000
-0.8537 0.4268 0.0000
-0.9024 0.4512 0.0000
-0.9512 0.4756 0.0000
-1.0000 0.5000 0.0000
-0.2846 0.0949 0.0000
-0.3323 0.1108 0.0000
-0.3800 0.1267 0.0000
-0.4277 0.1426 0.0000
-0.4754 0.1585 0.0000
-0.5231 0.1744 0.0000
-0.5708 0.1903 0.0000
-0.6185 0.2062 0.0000
-0.6661 0.2220 0.0000
-0.7138 0.2379 0.0000
-0.7615 0.2538 0.0000
-0.8092 0.2697 0.0000
-0.8569 0.2856 0.0000
-0.9046 0.3015 0.0000
-0.9523 0.3174 0.0000
-1.0000 0.3333 0.0000
-0.2959 0.0493 0.0000
-0.3429 0.0571 0.0000
-0.3898 0.0650 0.0000
-0.4367 0.0728 0.0000
-0.4837 0.0806 0.0000
-0.5306 0.0884 0.0000
-0.5776 0.0963 0.0000
-0.6245 0.1041 0.0000
-0.6714 0.1119 0.0000
-0.7184 0.1197 0.0000
-0.7653 0.1276 0.0000
-0.8122 0.1354 0.0000
-0.8592 0.1432 0.0000
-0.9061 0.1510 0.0000
-0.9531 0.1588 0.0000
-1.0000 0.1667 0.0000
-0.3000 0.0000 0.0000
-0.3467 0.0000 0.0000
-0.3933 0.0000 0.0000
-0.4400 0.0000 0.0000
-0.4867 0.0000 0.0000
-0.5333 0.0000 0.0000
-0.5800 0.0000 0.0000
-0.6267 0.0000 0.0000
-0.6733 0.0000 0.0000
-0.7200 0.0000 0.0000
-0.7667 0.0000 0.0000
-0.8133 0.0000 0.0000
-0.8600 0.0000 0.0000
-0.9067 0.0000 0.0000
-0.9533 0.0000 0.0000
-1.0000 0.0000 0.0000
-0.2959 -0.0493 0.0000
-0.3429 -0.0571 0.0000
-0.3898 -0.0650 0.0000
-0.4367 -0.0728 0.0000
-0.4837 -0.0806 0.0000
-0.5306 -0.0884 0.0000
-0.5776 -0.0963 0.0000
-0.6245 -0.1041 0.0000
-0.6714 -0.1119 0.0000
-0.7184 -0.1197 0.0000
-0.7653 -0.1276 0.0000
-0.8122 -0.1354 0.0000
-0.8592 -0.1432 0.0000
-0.9061 -0.1510 0.0000
-0.9531 -0.1588 0.0000
-1.0000 -0.1667 0.0000
-0.2846 -0.0949 0.0000
-0.3323 -0.1108 0.0000
-0.3800 -0.1267 0.0000
-0.4277 -0.1426 0.0000
-0.4754 -0.1585 0.0000
-0.5231 -0.1744 0.0000
-0.5708 -0.1903 0.0000
-0.6185 -0.2062 0.0000
-0.6661 -0.2220 0.0000
-0.7138 -0.2379 0.0000
-0.7615 -0.2538 0.0000
-0.8092 -0.2697 0.0000
-0.8569 -0.2856 0.0000
-0.9046 -0.3015 0.0000
-0.9523 -0.3174 0.0000
-1.0000 -0.3333 0.0000
-0.2683 -0.1342 0.0000
-0.3171 -0.1586 0.0000
-0.3659 -0.1829 0.0000
-0.4147 -0.2073 0.0000
-0.4634 -0.2317 0.0000
-0.5122 -0.2561 0.0000
-0.5610 -0.2805 0.0000
-0.6098 -0.3049 0.0000
-0.6586 -0.3293 0.0000
-0.7073 -0.3537 0.0000
-0.7561 -0.3781 0.0000
-0.8049 -0.4024 0.0000
-0.8537 -0.4268 0.0000
-0.9024 -0.4512 0.0000
-0.9512 -0.4756 0.0000
-1.0000 -0.5000 0.0000
-0.2496 -0.1664 0.0000
-0.2996 -0.1998 0.0000
-0.3497 -0.2331 0.0000
-0.3997 -0.2665 0.0000
-0.4497 -0.2998 0.0000
-0.4997 -0.3332 0.0000
-0.5498 -0.3665 0.0000
-0.5998 -0.3999 0.0000
-0.6498 -0.4332 0.0000
-0.6998 -0.4666 0.0000
-0.7499 -0.4999 0.0000
-0.7999 -0.5333 0.0000
-0.8499 -0.5666 0.0000
-0.8999 -0.6000 0.0000
-0.9500 -0.6333 0.0000
-1.0000 -0.6667 0.0000
-0.2305 -0.1921 0.0000
-0.2818 -0.2348 0.0000
-0.3331 -0.2776 0.0000
-0.3844 -0.3203 0.0000
-0.4357 -0.3631 0.0000
-0.4870 -0.4058 0.0000
-0.5383 -0.4486 0.0000
-0.5896 -0.4913 0.0000
-0.6409 -0.5341 0.0000
-0.6922 -0.5768 0.0000
-0.7435 -0.6196 0.0000
-0.7948 -0.6623 0.0000
-0.8461 -0.7051 0.0000
-0.8974 -0.7478 0.0000
-0.9487 -0.7906 0.0000
-1.0000 -0.8333 0.0000
-0.2121 -0.2121 0.0000
-0.2647 -0.2647 0.0000
-0.3172 -0.3172 0.0000
-0.3697 -0.3697 0.0000
-0.4222 -0.4222 0.0000
-0.4748 -0.4748 0.0000
-0.5273 -0.5273 0.0000
-0.5798 -0.5798 0.0000
-0.6323 -0.6323 0.0000
-0.6849 -0.6849 0.0000
-0.7374 -0.7374 0.0000
-0.7899 -0.7899 0.0000
-0.8424 -0.8424 0.0000
-0.8950 -0.8950 0.0000
-0.9475 -0.9475 0.0000
-1.0000 -1.0000 0.0000
-0.1921 -0.2305 0.0000
-0.2348 -0.2818 0.0000
-0.2776 -0.3331 0.0000
-0.3203 -0.3844 0.0000
-0.3631 -0.4357 0.0000
-0.4058 -0.4870 0.0000
-0.4486 -0.5383 0.0000
-0.4913 -0.5896 0.0000
-0.5341 -0.6409 0.0000
-0.5768 -0.6922 0.0000
-0.6196 -0.7435 0.0000
-0.6623 -0.7948 0.0000
-0.7051 -0.8461 0.0000
-0.7478 -0.8974 0.0000
-0.7906 -0.9487 0.0000
-0.8333 -1.0000 0.0000
-0.1664 -0.2496 0.0000
-0.1998 -0.2996 0.0000
-0.2331 -0.3497 0.0000
-0.2665 -0.3997 0.0000
-0.2998 -0.4497 0.0000
-0.3332 -0.4997 0.0000
-0.3665 -0.5498 0.0000
-0.3999 -0.5998 0.0000
-0.4332 -0.6498 0.0000
-0.4666 -0.6998 0.0000
-0.4999 -0.7499 0.0000
-0.5333 -0.7999 0.0000
-0.5666 -0.8499 0.0000
-0.6000 -0.8999 0.0000
-0.6333 -0.9500 0.0000
-0.6667 -1.0000 0.0000
-0.1342 -0.2683 0.0000
-0.1586 -0.3171 0.0000
-0.1829 -0.3659 0.0000
-0.2073 -0.4147 0.0000
-0.2317 -0.4634 0.0000
-0.2561 -0.5122 0.0000
-0.2805 -0.5610 0.0000
[...]
         <PointData>
            <DataArray Name="fValues" NumberOfComponents="3" format="ascii" type="Float64">
-4.07020e-02  1.82661e-01        00000 
-4.87329e-02  2.02404e-01        00000 
-5.12552e-02  2.06852e-01        00000 
-5.13265e-02  2.04145e-01        00000 
-4.98072e-02  1.97214e-01        00000 
-4.70889e-02  1.87341e-01        00000 
-4.33969e-02  1.75172e-01        00000 
-3.89040e-02  1.61077e-01        00000 
-3.37759e-02  1.45306e-01        00000 
-2.81948e-02  1.28046e-01        00000 
-2.23738e-02  1.09457e-01        00000 
-1.65634e-02  8.96791e-02        00000 
-1.10565e-02  6.88279e-02        00000 
-6.18975e-03  4.69738e-02        00000 
-2.35078e-03  2.40963e-02        00000 
-1.07050e-18  4.91195e-10        00000 
-3.84528e-02  1.63267e-01        00000 
-4.92487e-02  1.80485e-01        00000 
-5.33008e-02  1.85444e-01        00000 
-5.43124e-02  1.83685e-01        00000 
-5.35569e-02  1.77834e-01        00000 
-5.15493e-02  1.69116e-01        00000 
-4.85569e-02  1.58182e-01        00000 
-4.47430e-02  1.45414e-01        00000 
-4.02321e-02  1.31066e-01        00000 
-3.51394e-02  1.15328e-01        00000 
-2.95878e-02  9.83560e-02        00000 
-2.37158e-02  8.02972e-02        00000 
-1.76797e-02  6.12928e-02        00000 
-1.16440e-02  4.14837e-02        00000 
-5.74755e-03  2.10090e-02        00000 
 3.32200e-18 -3.22290e-12        00000 
-3.61615e-02  1.42007e-01        00000 
-4.89698e-02  1.56301e-01        00000 
-5.45227e-02  1.61066e-01        00000 
-5.65744e-02  1.60170e-01        00000 
-5.66047e-02  1.55537e-01        00000 
-5.52673e-02  1.48230e-01        00000 
-5.28771e-02  1.38855e-01        00000 
-4.96046e-02  1.27785e-01        00000 
-4.55497e-02  1.15268e-01        00000 
-4.07790e-02  1.01486e-01        00000 
-3.53443e-02  8.65899e-02        00000 
-2.92928e-02  7.07125e-02        00000 
-2.26737e-02  5.39844e-02        00000 
-1.55413e-02  3.65374e-02        00000 
-7.95628e-03  1.85029e-02        00000 
-6.30200e-18  8.63538e-13        00000 
-3.37660e-02  1.19944e-01        00000 
-4.75950e-02  1.30621e-01        00000 
-5.42888e-02  1.34657e-01        00000 
-5.73038e-02  1.34271e-01        00000 
-5.81166e-02  1.30766e-01        00000 
-5.74310e-02  1.24931e-01        00000 
-5.56016e-02  1.17267e-01        00000 
-5.28110e-02  1.08103e-01        00000 
-4.91516e-02  9.76658e-02        00000 
-4.46644e-02  8.61216e-02        00000 
-3.93590e-02  7.35999e-02        00000 
-3.32255e-02  6.02106e-02        00000 
-2.62427e-02  4.60543e-02        00000 
-1.83863e-02  3.12302e-02        00000 
-9.63886e-03  1.58415e-02        00000 
-8.11905e-19 -2.31306e-13        00000 
-3.13604e-02  9.85925e-02        00000 
-4.48381e-02  1.05305e-01        00000 
-5.20381e-02  1.08090e-01        00000 
-5.57128e-02  1.07795e-01        00000 
-5.71690e-02  1.05124e-01        00000 
-5.70685e-02  1.00588e-01        00000 
-5.57611e-02  9.45494e-02        00000 
-5.34319e-02  8.72685e-02        00000 
-5.01713e-02  7.89343e-02        00000 
-4.60120e-02  6.96878e-02        00000 
-4.09469e-02  5.96373e-02        00000 
-3.49397e-02  4.88690e-02        00000 
-2.79304e-02  3.74550e-02        00000 
-1.98383e-02  2.54608e-02        00000 
-1.05652e-02  1.29517e-02        00000 
-6.08307e-19  6.16847e-14        00000 
-2.90589e-02  7.97994e-02        00000 
-4.08002e-02  8.28830e-02        00000 
-4.76604e-02  8.41650e-02        00000 
-5.14982e-02  8.35879e-02        00000 
-5.33026e-02  8.13802e-02        00000 
-5.36131e-02  7.78054e-02        00000 
-5.27294e-02  7.30929e-02        00000 
-5.08166e-02  6.74277e-02        00000 
-4.79588e-02  6.09558e-02        00000 
-4.41874e-02  5.37912e-02        00000 
-3.94960e-02  4.60223e-02        00000 
-3.38486e-02  3.77173e-02        00000 
-2.71823e-02  2.89284e-02        00000 
-1.94066e-02  1.96944e-02        00000 
-1.03996e-02  1.00443e-02        00000 
 1.95028e-18 -1.54254e-14        00000 
-2.70100e-02  6.52052e-02        00000 
-3.60587e-02  6.56505e-02        00000 
-4.18168e-02  6.56219e-02        00000 
-4.52849e-02  6.46151e-02        00000 
-4.70736e-02  6.25710e-02        00000 
-4.75479e-02  5.95856e-02        00000 
-4.69248e-02  5.57896e-02        00000 
-4.53310e-02  5.13089e-02        00000 
-4.28362e-02  4.62519e-02        00000 
-3.94722e-02  4.07079e-02        00000 
-3.52435e-02  3.47477e-02        00000 
-3.01345e-02  2.84249e-02        00000 
-2.41126e-02  2.17769e-02        00000 
-1.71292e-02  1.48247e-02        00000 
-9.11967e-03  7.57163e-03        00000 
 1.71325e-18  8.82983e-19        00000 
-2.54066e-02  5.55654e-02        00000 
-3.14484e-02  5.46624e-02        00000 
-3.57131e-02  5.38452e-02        00000 
-3.84699e-02  5.24970e-02        00000 
-3.99669e-02  5.04574e-02        00000 
-4.03889e-02  4.77530e-02        00000 
-3.98617e-02  4.44685e-02        00000 
-3.84683e-02  4.06972e-02        00000 
-3.62618e-02  3.65239e-02        00000 
-3.32754e-02  3.20191e-02        00000 
-2.95298e-02  2.72375e-02        00000 
-2.50392e-02  2.22182e-02        00000 
-1.98165e-02  1.69851e-02        00000 
-1.38793e-02  1.15464e-02        00000 
-7.25688e-03  5.89368e-03        00000 
 1.83773e-18  1.54215e-14        00000 
-2.44041e-02  5.05647e-02        00000 
-2.76791e-02  4.94963e-02        00000 
-3.04885e-02  4.84415e-02        00000 
-3.24765e-02  4.69035e-02        00000 
-3.35829e-02  4.47716e-02        00000 
-3.38396e-02  4.20911e-02        00000 
-3.32969e-02  3.89514e-02        00000 
-3.20033e-02  3.54433e-02        00000 
-3.00022e-02  3.16439e-02        00000 
-2.73331e-02  2.76130e-02        00000 
-2.40346e-02  2.33933e-02        00000 
-2.01490e-02  1.90116e-02        00000 
-1.57267e-02  1.44815e-02        00000 
-1.08324e-02  9.80605e-03        00000 
-5.55182e-03  4.98104e-03        00000 
-1.13486e-18 -6.16828e-14        00000 
-2.40203e-02  4.91821e-02        00000 
-2.50847e-02  4.87852e-02        00000 
-2.67526e-02  4.78307e-02        00000 
-2.81126e-02  4.61370e-02        00000 
-2.88610e-02  4.37587e-02        00000 
-2.89197e-02  4.08291e-02        00000 
-2.82922e-02  3.74848e-02        00000 
-2.70134e-02  3.38391e-02        00000 
-2.51303e-02  2.99772e-02        00000 
-2.26960e-02  2.59590e-02        00000 
-1.97676e-02  2.18233e-02        00000 
-1.64067e-02  1.75939e-02        00000 
-1.26790e-02  1.32844e-02        00000 
-8.65460e-03  8.90483e-03        00000 
-4.40568e-03  4.46875e-03        00000 
 2.00298e-19  2.31311e-13        00000 
-2.41542e-02  5.02295e-02        00000 
-2.36518e-02  5.09522e-02        00000 
-2.45666e-02  5.01607e-02        00000 
-2.54890e-02  4.81652e-02        00000 
-2.59336e-02  4.52790e-02        00000 
-2.57624e-02  4.17836e-02        00000 
-2.49695e-02  3.78928e-02        00000 
-2.35999e-02  3.37600e-02        00000 
-2.17195e-02  2.94916e-02        00000 
-1.94025e-02  2.51604e-02        00000 
-1.67255e-02  2.08157e-02        00000 
-1.37625e-02  1.64926e-02        00000 
-1.05781e-02  1.22188e-02        00000 
-7.21858e-03  8.02137e-03        00000 
-3.69947e-03  3.93282e-03        00000 
-3.68082e-20 -8.63558e-13        00000 
-2.46622e-02  5.26989e-02        00000 
-2.31770e-02  5.46959e-02        00000 
-2.36838e-02  5.39143e-02        00000 
-2.42975e-02  5.13099e-02        00000 
-2.44291e-02  4.75815e-02        00000 
-2.39427e-02  4.31889e-02        00000 
-2.28565e-02  3.84367e-02        00000 
-2.12457e-02  3.35275e-02        00000 
-1.92057e-02  2.85994e-02        00000 
-1.68367e-02  2.37517e-02        00000 
-1.42365e-02  1.90613e-02        00000 
-1.14947e-02  1.45935e-02        00000 
-8.68548e-03  1.04070e-02        00000 
-5.85613e-03  6.55434e-03        00000 
-3.00167e-03  3.07760e-03        00000 
 6.35183e-19  3.22292e-12        00000 
-2.53581e-02  5.58258e-02        00000 
-2.34389e-02  5.91807e-02        00000 
-2.37605e-02  5.80307e-02        00000 
-2.40789e-02  5.44473e-02        00000 
-2.38097e-02  4.95347e-02        00000 
-2.28641e-02  4.39412e-02        00000 
-2.13102e-02  3.80599e-02        00000 
-1.92644e-02  3.21430e-02        00000 
-1.68529e-02  2.63657e-02        00000 
-1.41984e-02  2.08630e-02        00000 
-1.14169e-02  1.57515e-02        00000 
-8.61942e-03  1.11411e-02        00000 
-5.91982e-03  7.14048e-03        00000 
-3.44981e-03  3.86193e-03        00000 
-1.38634e-03  1.42902e-03        00000 
-5.00651e-19  8.80521e-12        00000 
-2.64819e-02  5.96666e-02        00000 
-2.45663e-02  6.42491e-02        00000 
-2.45068e-02  6.38776e-02        00000 
-2.46393e-02  6.08224e-02        00000 
-2.43840e-02  5.62725e-02        00000 
-2.36092e-02  5.08994e-02        00000 
-2.23334e-02  4.51093e-02        00000 
-2.06248e-02  3.91595e-02        00000 
-1.85641e-02  3.32236e-02        00000 
-1.62301e-02  2.74278e-02        00000 
-1.36941e-02  2.18725e-02        00000 
-1.10195e-02  1.66434e-02        00000 
-8.26264e-03  1.18145e-02        00000 
-5.47472e-03  7.44161e-03        00000 
-2.70427e-03  3.53697e-03        00000 
 2.24445e-19  3.22292e-12        00000 
-2.83649e-02  6.54676e-02        00000 
-2.68167e-02  7.11011e-02        00000 
-2.66411e-02  7.14299e-02        00000 
-2.65727e-02  6.88031e-02        00000 
-2.61816e-02  6.44794e-02        00000 
-2.53458e-02  5.91698e-02        00000 
-2.40662e-02  5.32964e-02        00000 
-2.23864e-02  4.71227e-02        00000 
-2.03612e-02  4.08200e-02        00000 
-1.80436e-02  3.45051e-02        00000 
-1.54788e-02  2.82626e-02        00000 
-1.27034e-02  2.21572e-02        00000 
-9.74483e-03  1.62415e-02        00000 
-6.62501e-03  1.05577e-02        00000 
-3.36565e-03  5.13645e-03        00000 
 1.76400e-19 -8.63558e-13        00000 
-3.12901e-02  7.38782e-02        00000 
-3.06654e-02  8.02773e-02        00000 
-3.06560e-02  8.10673e-02        00000 
-3.04783e-02  7.86635e-02        00000 
-2.98812e-02  7.43716e-02        00000 
-2.88149e-02  6.89320e-02        00000 
-2.72994e-02  6.27843e-02        00000 
-2.53789e-02  5.61985e-02        00000 
-2.31019e-02  4.93457e-02        00000 
-2.05135e-02  4.23364e-02        00000 
-1.76518e-02  3.52433e-02        00000 
-1.45464e-02  2.81160e-02        00000 
-1.12183e-02  2.09916e-02        00000 
-7.68047e-03  1.39035e-02        00000 
-3.93995e-03  6.88990e-03        00000 
 5.20833e-19  2.31307e-13        00000 
-3.56557e-02  8.56573e-02        00000 
-3.65317e-02  9.22626e-02        00000 
-3.70051e-02  9.30641e-02        00000 
-3.68323e-02  9.05136e-02        00000 
-3.60067e-02  8.59431e-02        00000 
-3.45905e-02  8.01058e-02        00000 
-3.26558e-02  7.34465e-02        00000 
-3.02693e-02  6.62377e-02        00000 
-2.74885e-02  5.86490e-02        00000 
-2.43619e-02  5.07861e-02        00000 
-2.09296e-02  4.27133e-02        00000 
-1.72237e-02  3.44670e-02        00000 
-1.32678e-02  2.60653e-02        00000 
-9.07726e-03  1.75160e-02        00000 
-4.65692e-03  8.82367e-03        00000 
-8.09545e-19 -6.16795e-14        00000 
-4.18348e-02  1.01423e-01        00000 
-4.46282e-02  1.07315e-01        00000 
-4.57771e-02  1.07404e-01        00000 
-4.56438e-02  1.04147e-01        00000 
-4.45260e-02  9.88568e-02        00000 
-4.26349e-02  9.22655e-02        00000 
-4.01168e-02  8.48016e-02        00000 
-3.70748e-02  7.67251e-02        00000 
-3.35836e-02  6.81970e-02        00000 
-2.96994e-02  5.93162e-02        00000 
-2.54655e-02  5.01400e-02        00000 
-2.09161e-02  4.06955e-02        00000 
-1.60783e-02  3.09863e-02        00000 
-1.09727e-02  2.09952e-02        00000 
-5.61229e-03  1.06855e-02        00000 
 1.91924e-18  1.54185e-14        00000 
-4.99261e-02  1.21307e-01        00000 
-5.46453e-02  1.25195e-01        00000 
-5.63220e-02  1.23634e-01        00000 
-5.60318e-02  1.18999e-01        00000 
-5.44183e-02  1.12494e-01        00000 
-5.18586e-02  1.04772e-01        00000 
-4.85793e-02  9.62071e-02        00000 
-4.47218e-02  8.70238e-02        00000 
-4.03776e-02  7.73618e-02        00000 
-3.56084e-02  6.73076e-02        00000 
-3.04581e-02  5.69130e-02        00000 
-2.49598e-02  4.62040e-02        00000 
-1.91406e-02  3.51855e-02        00000 
-1.30247e-02  2.38420e-02        00000 
-6.63591e-03  1.21356e-02        00000 
-1.15275e-18 -6.49485e-19        00000 
-5.95036e-02  1.44690e-01        00000 
-6.55003e-02  1.45080e-01        00000 
-6.70862e-02  1.40966e-01        00000 
-6.61554e-02  1.34393e-01        00000 
-6.36899e-02  1.26309e-01        00000 
-6.02098e-02  1.17202e-01        00000 
-5.60020e-02  1.07346e-01        00000 
-5.12319e-02  9.69067e-02        00000 
-4.59983e-02  8.59865e-02        00000 
-4.03629e-02  7.46551e-02        00000 
-3.43668e-02  6.29607e-02        00000 
-2.80406e-02  5.09380e-02        00000 
-2.14103e-02  3.86128e-02        00000 
-1.45033e-02  2.60044e-02        00000 
-7.35210e-03  1.31287e-02        00000 
 2.60397e-18 -1.54163e-14        00000 
-6.96586e-02  1.70193e-01        00000 
-7.55817e-02  1.65795e-01        00000 
-7.61118e-02  1.58615e-01        00000 
-7.39239e-02  1.49910e-01        00000 
-7.02365e-02  1.40183e-01        00000 
-6.56387e-02  1.29680e-01        00000 
-6.04318e-02  1.18539e-01        00000 
-5.47776e-02  1.06843e-01        00000 
-4.87671e-02  9.46538e-02        00000 
-4.24547e-02  8.20221e-02        00000 
-3.58765e-02  6.89947e-02        00000 
-2.90605e-02  5.56212e-02        00000 
-2.20332e-02  4.19577e-02        00000 
-1.48235e-02  2.80721e-02        00000 
-7.46527e-03  1.40495e-02        00000 
-6.08951e-19  6.16836e-14        00000 
-7.94067e-02  1.96033e-01        00000 
-8.35262e-02  1.86213e-01        00000 
-8.20512e-02  1.76047e-01        00000 
-7.81278e-02  1.65447e-01        00000 
-7.30149e-02  1.54327e-01        00000 
-6.72657e-02  1.42646e-01        00000 
-6.11394e-02  1.30391e-01        00000 
-5.47653e-02  1.17570e-01        00000 
-4.82130e-02  1.04200e-01        00000 
-4.15246e-02  9.03163e-02        00000 
-3.47299e-02  7.59631e-02        00000 
-2.78535e-02  6.12023e-02        00000 
-2.09190e-02  4.61137e-02        00000 
-1.39501e-02  3.07979e-02        00000 
-6.97060e-03  1.53774e-02        00000 
 1.43351e-18 -2.31302e-13        00000 
-8.80413e-02  2.20609e-01        00000 
-8.87838e-02  2.05549e-01        00000 
-8.46905e-02  1.92958e-01        00000 
-7.88444e-02  1.80978e-01        00000 
-7.23269e-02  1.68879e-01        00000 
-6.55522e-02  1.56343e-01        00000 
-5.86899e-02  1.43228e-01        00000 
-5.18187e-02  1.29476e-01        00000 
-4.49826e-02  1.15074e-01        00000 
-3.82117e-02  1.00036e-01        00000 
-3.15303e-02  8.44002e-02        00000 
-2.49587e-02  6.82223e-02        00000 
-1.85121e-02  5.15809e-02        00000 
-1.21998e-02  3.45784e-02        00000 
-6.02653e-03  1.73408e-02        00000 
 5.24341e-19  8.63545e-13        00000 
-9.52641e-02  2.42872e-01        00000 
-9.15726e-02  2.23366e-01        00000 
-8.46393e-02  2.09128e-01        00000 
-7.69510e-02  1.96347e-01        00000 
-6.92063e-02  1.83692e-01        00000 
-6.15968e-02  1.70624e-01        00000 
-5.41809e-02  1.56910e-01        00000 
-4.69858e-02  1.42451e-01        00000 
-4.00346e-02  1.27209e-01        00000 
-3.33519e-02  1.11178e-01        00000 
-2.69628e-02  9.43664e-02        00000 
-2.08898e-02  7.67968e-02        00000 
-1.51506e-02  5.84989e-02        00000 
-9.75565e-03  3.95179e-02        00000 
-4.70684e-03  1.99423e-02        00000 
 4.38417e-19 -3.22288e-12        00000 
-1.01145e-01  2.62321e-01        00000 
-9.24314e-02  2.39498e-01        00000 
-8.27561e-02  2.24382e-01        00000 
-7.34794e-02  2.11299e-01        00000 
-6.47247e-02  1.98435e-01        00000 
-5.64327e-02  1.85112e-01        00000 
-4.85569e-02  1.71053e-01        00000 
-4.10817e-02  1.56137e-01        00000 
-3.40139e-02  1.40309e-01        00000 
-2.73733e-02  1.23535e-01        00000 
-2.11881e-02  1.05788e-01        00000 
-1.54978e-02  8.70294e-02        00000 
-1.03660e-02  6.72000e-02        00000 
-5.90595e-03  4.62063e-02        00000 
-2.32509e-03  2.38944e-02        00000 
 1.66886e-18  4.91195e-10        00000 
-1.06890e-01  2.82490e-01        00000 
-9.46771e-02  2.60894e-01        00000 
-8.41417e-02  2.47173e-01        00000 
-7.49403e-02  2.36222e-01        00000 
-6.66260e-02  2.26064e-01        00000 
-5.89303e-02  2.15916e-01        00000 
-5.16968e-02  2.05432e-01        00000 
-4.48435e-02  1.94452e-01        00000 
-3.83301e-02  1.82895e-01        00000 
-3.21376e-02  1.70715e-01        00000 
-2.62529e-02  1.57883e-01        00000 
-2.06587e-02  1.44373e-01        00000 
-1.53252e-02  1.30166e-01        00000 
-1.01987e-02  1.15250e-01        00000 
-5.17342e-03  9.96290e-02        00000 
-7.35118e-19  8.33333e-02        00000 
-1.13269e-01  3.06888e-01        00000 
-9.71806e-02  2.87200e-01        00000 
-8.53443e-02  2.75234e-01        00000 
-7.58608e-02  2.66332e-01        00000 
-6.77158e-02  2.58669e-01        00000 
-6.03775e-02  2.51428e-01        00000 
-5.35601e-02  2.44227e-01        00000 
-4.71033e-02  2.36876e-01        00000 
-4.09150e-02  2.29280e-01        00000 
-3.49376e-02  2.21389e-01        00000 
-2.91266e-02  2.13175e-01        00000 
-2.34341e-02  2.04619e-01        00000 
-1.77940e-02  1.95706e-01        00000 
-1.21080e-02  1.86421e-01        00000 
-6.23495e-03  1.76748e-01        00000 
 5.86251e-20  1.66667e-01        00000 
-1.19944e-01  3.35619e-01        00000 
-1.00040e-01  3.19077e-01        00000 
-8.66956e-02  3.09303e-01        00000 
-7.66696e-02  3.02547e-01        00000 
-6.84413e-02  2.97247e-01        00000 
-6.12318e-02  2.92665e-01        00000 
-5.46176e-02  2.88426e-01        00000 
-4.83573e-02  2.84330e-01        00000 
-4.23072e-02  2.80273e-01        00000 
-3.63773e-02  2.76197e-01        00000 
-3.05062e-02  2.72071e-01        00000 
-2.46443e-02  2.67877e-01        00000 
-1.87406e-02  2.63598e-01        00000 
-1.27312e-02  2.59215e-01        00000 
-6.52738e-03  2.54695e-01        00000 
 4.78310e-19  2.50000e-01        00000 
-1.26250e-01  3.67998e-01        00000 
-1.03471e-01  3.56070e-01        00000 
-8.88127e-02  3.49120e-01        00000 
-7.82099e-02  3.44724e-01        00000 
-6.97673e-02  3.41769e-01        00000 
-6.25176e-02  3.39682e-01        00000 
-5.59297e-02  3.38145e-01        00000 
-4.96944e-02  3.36972e-01        00000 
-4.36245e-02  3.36053e-01        00000 
-3.76035e-02  3.35320e-01        00000 
-3.15587e-02  3.34737e-01        00000 
-2.54465e-02  3.34280e-01        00000 
-1.92429e-02  3.33933e-01        00000 
-1.29372e-02  3.33679e-01        00000 
-6.52511e-03  3.33493e-01        00000 
-1.28638e-18  3.33333e-01        00000 
-1.31333e-01  4.02106e-01        00000 
-1.07624e-01  3.95894e-01        00000 
-9.24448e-02  3.92363e-01        00000 
-8.15617e-02  3.90597e-01        00000 
-7.29641e-02  3.90072e-01        00000 
-6.56149e-02  3.90454e-01        00000 
-5.89376e-02  3.91517e-01        00000 
-5.25911e-02  3.93105e-01        00000 
-4.63636e-02  3.95109e-01        00000 
-4.01200e-02  3.97453e-01        00000 
-3.37757e-02  4.00086e-01        00000 
-2.72829e-02  4.02970e-01        00000 
-2.06254e-02  4.06084e-01        00000 
-1.38183e-02  4.09413e-01        00000 
-6.91202e-03  4.12945e-01        00000 
-1.47344e-18  4.16667e-01        00000 
-1.34394e-01  4.34795e-01        00000 
-1.12334e-01  4.34349e-01        00000 
-9.78817e-02  4.34378e-01        00000 
-8.72865e-02  4.35385e-01        00000 
-7.87511e-02  4.37429e-01        00000 
-7.13361e-02  4.40414e-01        00000 
-6.45099e-02  4.44210e-01        00000 
-5.79493e-02  4.48691e-01        00000 
-5.14454e-02  4.53748e-01        00000 
-4.48564e-02  4.59292e-01        00000 
-3.80838e-02  4.65252e-01        00000 
-3.10596e-02  4.71575e-01        00000 
-2.37414e-02  4.78223e-01        00000 
-1.61118e-02  4.85175e-01        00000 
-8.18182e-03  4.92428e-01        00000 
 2.49358e-18  5.00000e-01        00000 
-1.34986e-01  4.62529e-01        00000 