<?xml version="1.0" encoding="utf-8"?>
<VTKFile byte_order="LittleEndian" type="UnstructuredGrid" version="0.1">
   <UnstructuredGrid>
      <Piece NumberOfCells="720" NumberOfPoints="768">
         <Points>
            <DataArray Name="Points" NumberOfComponents="3" format="ascii" type="Float32">
0.2121 0.2121 0.0000
0.2647 0.2647 0.0000
0.3172 0.3172 0.0000
0.3697 0.3697 0.0000
0.4222 0.4222 0.0000
0.4748 0.4748 0.0000
0.5273 0.5273 0.0000
0.5798 0.5798 0.0000
0.6323 0.6323 0.0000
0.6849 0.6849 0.0000
0.7374 0.7374 0.0000
0.7899 0.7899 0.0000
0.8424 0.8424 0.0000
0.8950 0.8950 0.0000
0.9475 0.9475 0.0000
1.0000 1.0000 0.0000
0.1921 0.2305 0.0000
0.2348 0.2818 0.0000
0.2776 0.3331 0.0000
0.3203 0.3844 0.0000
0.3631 0.4357 0.0000
0.4058 0.4870 0.0000
0.4486 0.5383 0.0000
0.4913 0.5896 0.0000
0.5341 0.6409 0.0000
0.5768 0.6922 0.0000
0.6196 0.7435 0.0000
0.6623 0.7948 0.0000
0.7051 0.8461 0.0000
0.7478 0.8974 0.0000
0.7906 0.9487 0.0000
0.8333 1.0000 0.0000
0.1664 0.2496 0.0000
0.1998 0.2996 0.0000
0.2331 0.3497 0.0000
0.2665 0.3997 0.0000
0.2998 0.4497 0.0000
0.3332 0.4997 0.0000
0.3665 0.5498 0.0000
0.3999 0.5998 0.0000
0.4332 0.6498 0.0000
0.4666 0.6998 0.0000
0.4999 0.7499 0.0000
0.5333 0.7999 0.0000
0.5666 0.8499 0.0000
0.6000 0.8999 0.0000
0.6333 0.9500 0.0000
0.6667 1.0000 0.0000
0.1342 0.2683 0.0000
0.1586 0.3171 0.0000
0.1829 0.3659 0.0000
0.2073 0.4147 0.0000
0.2317 0.4634 0.0000
0.2561 0.5122 0.0000
0.2805 0.5610 0.0000
0.3049 0.6098 0.0000
0.3293 0.6586 0.0000
0.3537 0.7073 0.0000
0.3781 0.7561 0.0000
0.4024 0.8049 0.0000
0.4268 0.8537 0.0000
0.4512 0.9024 0.0000
0.4756 0.9512 0.0000
0.5000 1.0000 0.0000
0.0949 0.2846 0.0000
0.1108 0.3323 0.0000
0.1267 0.3800 0.0000
0.1426 0.4277 0.0000
0.1585 0.4754 0.0000
0.1744 0.5231 0.0000
0.1903 0.5708 0.0000
0.2062 0.6185 0.0000
0.2220 0.6661 0.0000
0.2379 0.7138 0.0000
0.2538 0.7615 0.0000
0.2697 0.8092 0.0000
0.2856 0.8569 0.0000
0.3015 0.9046 0.0000
0.3174 0.9523 0.0000
0.3333 1.0000 0.0000
0.0493 0.2959 0.0000
0.0571 0.3429 0.0000
0.0650 0.3898 0.0000
0.0728 0.4367 0.0000
0.0806 0.4837 0.0000
0.0884 0.5306 0.0000
0.0963 0.5776 0.0000
0.1041 0.6245 0.0000
0.1119 0.6714 0.0000
0.1197 0.7184 0.0000
0.1276 0.7653 0.0000
0.1354 0.8122 0.0000
0.1432 0.8592 0.0000
0.1510 0.9061 0.0000
0.1588 0.9531 0.0000
0.1667 1.0000 0.0000
0.0000 0.3000 0.0000
0.0000 0.3467 0.0000
0.0000 0.3933 0.0000
0.0000 0.4400 0.0000
0.0000 0.4867 0.0000
0.0000 0.5333 0.0000
0.0000 0.5800 0.0000
0.0000 0.6267 0.0000
0.0000 0.6733 0.0000
0.0000 0.7200 0.0000
0.0000 0.7667 0.0000
0.0000 0.8133 0.0000
0.0000 0.8600 0.0000
0.0000 0.9067 0.0000
0.0000 0.9533 0.0000
0.0000 1.0000 0.0000
-0.0493 0.2959 0.0000
-0.0571 0.3429 0.0000
-0.0650 0.3898 0.0000
-0.0728 0.4367 0.0000
-0.0806 0.4837 0.0000
-0.0884 0.5306 0.0000
-0.0963 0.5776 0.0000
-0.1041 0.6245 0.0000
-0.1119 0.6714 0.0000
-0.1197 0.7184 0.0000
-0.1276 0.7653 0.0000
-0.1354 0.8122 0.0000
-0.1432 0.8592 0.0000
-0.1510 0.9061 0.0000
-0.1588 0.9531 0.0000
-0.1667 1.0000 0.0000
-0.0949 0.2846 0.0000
-0.1108 0.3323 0.0000
-0.1267 0.3800 0.0000
-0.1426 0.4277 0.0000
-0.1585 0.4754 0.0000
-0.1744 0.5231 0.0000
-0.1903 0.5708 0.0000
-0.2062 0.6185 0.0000
-0.2220 0.6661 0.0000
-0.2379 0.7138 0.0000
-0.2538 0.7615 0.0000
-0.2697 0.8092 0.0000
-0.2856 0.8569 0.0000
-0.3015 0.9046 0.0000
-0.3174 0.9523 0.0000
-0.3333 1.0000 0.0000
-0.1342 0.2683 0.0000
-0.1586 0.3171 0.0000
-0.1829 0.3659 0.0000
-0.2073 0.4147 0.0000
-0.2317 0.4634 0.0000
-0.2561 0.5122 0.0000
-0.2805 0.5610 0.0000
-0.3049 0.6098 0.0000
-0.3293 0.6586 0.0000
-0.3537 0.7073 0.0000
-0.3781 0.7561 0.0000
-0.4024 0.8049 0.0000
-0.4268 0.8537 0.0000
-0.4512 0.9024 0.0000
-0.4756 0.9512 0.0000
-0.5000 1.0000 0.0000
-0.1664 0.2496 0.0000
-0.1998 0.2996 0.0000
-0.2331 0.3497 0.0000
-0.2665 0.3997 0.0000
-0.2998 0.4497 0.0000
-0.3332 0.4997 0.0000
-0.3665 0.5498 0.0000
-0.3999 0.5998 0.0000
-0.4332 0.6498 0.0000
-0.4666 0.6998 0.0000
-0.4999 0.7499 0.0000
-0.5333 0.7999 0.0000
-0.5666 0.8499 0.0000
-0.6000 0.8999 0.0000
-0.6333 0.9500 0.0000
-0.6667 1.0000 0.0000
-0.1921 0.2305 0.0000
-0.2348 0.2818 0.0000
-0.2776 0.3331 0.0000
-0.3203 0.3844 0.0000
-0.3631 0.4357 0.0000
-0.4058 0.4870 0.0000
-0.4486 0.5383 0.0000
-0.4913 0.5896 0.0000
-0.5341 0.6409 0.0000
-0.5768 0.6922 0.0000
-0.6196 0.7435 0.0000
-0.6623 0.7948 0.0000
-0.7051 0.8461 0.0000
-0.7478 0.8974 0.0000
-0.7906 0.9487 0.0000
-0.8333 1.0000 0.0000
-0.2121 0.2121 0.0000
-0.2647 0.2647 0.0000
-0.3172 0.3172 0.0000
-0.3697 0.3697 0.0000
-0.4222 0.4222 0.0000
-0.4748 0.4748 0.0000
-0.5273 0.5273 0.0000
-0.5798 0.5798 0.0000
-0.6323 0.6323 0.0000
-0.6849 0.6849 0.0000
-0.7374 0.7374 0.0000
-0.7899 0.7899 0.0000
-0.8424 0.8424 0.0000
-0.8950 0.8950 0.0000
-0.9475 0.9475 0.0000
-1.0000 1.0000 0.0000
-0.2305 0.1921 0.0000
-0.2818 0.2348 0.0000
-0.3331 0.2776 0.0000
-0.3844 0.3203 0.0000
-0.4357 0.3631 0.0000
-0.4870 0.4058 0.0000
-0.5383 0.4486 0.0000
-0.5896 0.4913 0.0000
-0.6409 0.5341 0.0000
-0.6922 0.5768 0.0000
-0.7435 0.6196 0.0000
-0.7948 0.6623 0.0000
-0.8461 0.7051 0.0000
-0.8974 0.7478 0.0000
-0.9487 0.7906 0.0000
-1.0000 0.8333 0.0000
-0.2496 0.1664 0.0000
-0.2996 0.1998 0.0000
-0.3497 0.2331 0.0000
-0.3997 0.2665 0.0000
-0.4497 0.2998 0.0000
-0.4997 0.3332 0.0000
-0.5498 0.3665 0.0000
-0.5998 0.3999 0.0000
-0.6498 0.4332 0.0000
-0.6998 0.4666 0.0000
-0.7499 0.4999 0.0000
-0.7999 0.5333 0.0000
-0.8499 0.5666 0.0000
-0.8999 0.6000 0.0000
-0.9500 0.6333 0.0000
-1.0000 0.6667 0.0000
-0.2683 0.1342 0.0000
-0.3171 0.1586 0.0000
-0.3659 0.1829 0.0000
-0.4147 0.2073 0.0000
-0.4634 0.2317 0.0000
-0.5122 0.2561 0.0000
-0.5610 0.2805 0.0000
-0.6098 0.3049 0.0000
-0.6586 0.3293 0.0000
-0.7073 0.3537 0.0000
-0.7561 0.3781 0.0000
-0.8049 0.4024 0.0000
-0.8537 0.4268 0.0000
-0.9024 0.4512 0.0000
-0.9512 0.4756 0.0000
-1.0000 0.5000 0.0000
-0.2846 0.0949 0.0000
-0.3323 0.1108 0.0000
-0.3800 0.1267 0.0000
-0.4277 0.1426 0.0000
-0.4754 0.1585 0.0000
-0.5231 0.1744 0.0000
-0.5708 0.1903 0.0000
-0.6185 0.2062 0.0000
-0.6661 0.2220 0.0000
-0.7138 0.2379 0.0000
-0.7615 0.2538 0.0000
-0.8092 0.2697 0.0000
-0.8569 0.2856 0.0000
-0.9046 0.3015 0.0000
-0.9523 0.3174 0.0000
-1.0000 0.3333 0.0000
-0.2959 0.0493 0.0000
-0.3429 0.0571 0.0000
-0.3898 0.0650 0.0000
-0.4367 0.0728 0.0000
-0.4837 0.0806 0.0000
-0.5306 0.0884 0.0000
-0.5776 0.0963 0.0000
-0.6245 0.1041 0.0000
-0.6714 0.1119 0.0000
-0.7184 0.1197 0.0000
-0.7653 0.1276 0.0000
-0.8122 0.1354 0.0000
-0.8592 0.1432 0.0000
-0.9061 0.1510 0.0000
-0.9531 0.1588 0.0000
-1.0000 0.1667 0.0000
-0.3000 0.0000 0.0000
-0.3467 0.0000 0.0000
-0.3933 0.0000 0.0000
-0.4400 0.0000 0.0000
-0.4867 0.0000 0.0000
-0.5333 0.0000 0.0000
-0.5800 0.0000 0.0000
-0.6267 0.0000 0.0000
-0.6733 0.0000 0.0000
-0.7200 0.0000 0.0000
-0.7667 0.0000 0.0000
-0.8133 0.0000 0.0000
-0.8600 0.0000 0.0000
-0.9067 0.0000 0.0000
-0.9533 0.0000 0.0000
-1.0000 0.0000 0.0000
-0.2959 -0.0493 0.0000
-0.3429 -0.0571 0.0000
-0.3898 -0.0650 0.0000
-0.4367 -0.0728 0.0000
-0.4837 -0.0806 0.0000
-0.5306 -0.0884 0.0000
-0.5776 -0.0963 0.0000
-0.6245 -0.1041 0.0000
-0.6714 -0.1119 0.0000
-0.7184 -0.1197 0.0000
-0.7653 -0.1276 0.0000
-0.8122 -0.1354 0.0000
-0.8592 -0.1432 0.0000
-0.9061 -0.1510 0.0000
-0.9531 -0.1588 0.0000
-1.0000 -0.1667 0.0000
-0.2846 -0.0949 0.0000
-0.3323 -0.1108 0.0000
-0.3800 -0.1267 0.0000
-0.4277 -0.1426 0.0000
-0.4754 -0.1585 0.0000
-0.5231 -0.1744 0.0000
-0.5708 -0.1903 0.0000
-0.6185 -0.2062 0.0000
-0.6661 -0.2220 0.0000
-0.7138 -0.2379 0.0000
-0.7615 -0.2538 0.0000
-0.8092 -0.2697 0.0000
-0.8569 -0.2856 0.0000
-0.9046 -0.3015 0.0000
-0.9523 -0.3174 0.0000
-1.0000 -0.3333 0.0000
-0.2683 -0.1342 0.0000
-0.3171 -0.1586 0.0000
-0.3659 -0.1829 0.0000
-0.4147 -0.2073 0.0000
-0.4634 -0.2317 0.0000
-0.5122 -0.2561 0.0000
-0.5610 -0.2805 0.0000
-0.6098 -0.3049 0.0000
-0.6586 -0.3293 0.0000
-0.7073 -0.3537 0.0000
-0.7561 -0.3781 0.0000
-0.8049 -0.4024 0.0000
-0.8537 -0.4268 0.0000
-0.9024 -0.4512 0.0000
-0.9512 -0.4756 0.0000
-1.0000 -0.5000 0.0000
-0.2496 -0.1664 0.0000
-0.2996 -0.1998 0.0000
-0.3497 -0.2331 0.0000
-0.3997 -0.2665 0.0000
-0.4497 -0.2998 0.0000
-0.4997 -0.3332 0.0000
-0.5498 -0.3665 0.0000
-0.5998 -0.3999 0.0000
-0.6498 -0.4332 0.0000
-0.6998 -0.4666 0.0000
-0.7499 -0.4999 0.0000
-0.7999 -0.5333 0.0000
-0.8499 -0.5666 0.0000
-0.8999 -0.6000 0.0000
-0.9500 -0.6333 0.0000
-1.0000 -0.6667 0.0000
-0.2305 -0.1921 0.0000
-0.2818 -0.2348 0.0000
-0.3331 -0.2776 0.0000
-0.3844 -0.3203 0.0000
-0.4357 -0.3631 0.0000
-0.4870 -0.4058 0.0000
-0.5383 -0.4486 0.0000
-0.5896 -0.4913 0.0000
-0.6409 -0.5341 0.0000
-0.6922 -0.5768 0.0000
-0.7435 -0.6196 0.0000
-0.7948 -0.6623 0.0000
-0.8461 -0.7051 0.0000
-0.8974 -0.7478 0.0000
-0.9487 -0.7906 0.0000
-1.0000 -0.8333 0.0000
-0.2121 -0.2121 0.0000
-0.2647 -0.2647 0.0000
-0.3172 -0.3172 0.0000
-0.3697 -0.3697 0.0000
-0.4222 -0.4222 0.0000
-0.4748 -0.4748 0.0000
-0.5273 -0.5273 0.0000
-0.5798 -0.5798 0.0000
-0.6323 -0.6323 0.0000
-0.6849 -0.6849 0.0000
-0.7374 -0.7374 0.0000
-0.7899 -0.7899 0.0000
-0.8424 -0.8424 0.0000
-0.8950 -0.8950 0.0000
-0.9475 -0.9475 0.0000
-1.0000 -1.0000 0.0000
-0.1921 -0.2305 0.0000
-0.2348 -0.2818 0.0000
-0.2776 -0.3331 0.0000
-0.3203 -0.3844 0.0000
-0.3631 -0.4357 0.0000
-0.4058 -0.4870 0.0000
-0.4486 -0.5383 0.0000
-0.4913 -0.5896 0.0000
-0.5341 -0.6409 0.0000
-0.5768 -0.6922 0.0000
-0.6196 -0.7435 0.0000
-0.6623 -0.7948 0.0000
-0.7051 -0.8461 0.0000
-0.7478 -0.8974 0.0000
-0.7906 -0.9487 0.0000
-0.8333 -1.0000 0.0000
-0.1664 -0.2496 0.0000
-0.1998 -0.2996 0.0000
-0.2331 -0.3497 0.0000
-0.2665 -0.3997 0.0000
-0.2998 -0.4497 0.0000
-0.3332 -0.4997 0.0000
-0.3665 -0.5498 0.0000
-0.3999 -0.5998 0.0000
-0.4332 -0.6498 0.0000
-0.4666 -0.6998 0.0000
-0.4999 -0.7499 0.0000
-0.5333 -0.7999 0.0000
-0.5666 -0.8499 0.0000
-0.6000 -0.8999 0.0000
-0.6333 -0.9500 0.0000
-0.6667 -1.0000 0.0000
-0.1342 -0.2683 0.0000
-0.1586 -0.3171 0.0000
-0.1829 -0.3659 0.0000
-0.2073 -0.4147 0.0000
-0.2317 -0.4634 0.0000
-0.2561 -0.5122 0.0000
-0.2805 -0.5610 0.0000
[...]
         <PointData>
            <DataArray Name="fValues" NumberOfComponents="3" format="ascii" type="Float64">
 2.59579e-01 -9.19898e-02        00000 
 2.45312e-01 -8.37281e-02        00000 
 2.30876e-01 -7.42216e-02        00000 
 2.16699e-01 -6.47680e-02        00000 
 2.02561e-01 -5.74629e-02        00000 
 1.90065e-01 -5.12030e-02        00000 
 1.74208e-01 -4.56175e-02        00000 
 1.57007e-01 -3.90854e-02        00000 
 1.39969e-01 -3.18182e-02        00000 
 1.23554e-01 -2.51336e-02        00000 
 1.06195e-01 -2.03193e-02        00000 
 8.55236e-02 -1.57664e-02        00000 
 6.55192e-02 -9.11460e-03        00000 
 4.68844e-02 -3.64677e-03        00000 
 2.32455e-02 -2.32458e-04        00000 
 2.06815e-03  1.42252e-03        00000 
 2.39644e-01 -8.66817e-02        00000 
 2.26917e-01 -7.97838e-02        00000 
 2.14272e-01 -7.27250e-02        00000 
 2.02063e-01 -6.54290e-02        00000 
 1.88678e-01 -5.84149e-02        00000 
 1.76505e-01 -5.27352e-02        00000 
 1.62687e-01 -4.83384e-02        00000 
 1.44416e-01 -4.26147e-02        00000 
 1.27288e-01 -3.66892e-02        00000 
 1.11287e-01 -3.14329e-02        00000 
 9.50704e-02 -2.69584e-02        00000 
 7.76801e-02 -2.32058e-02        00000 
 6.28157e-02 -1.91944e-02        00000 
 4.26869e-02 -9.03650e-03        00000 
 2.25527e-02 -2.31634e-03        00000 
 2.68789e-04  5.07022e-03        00000 
 2.18795e-01 -8.05994e-02        00000 
 2.08111e-01 -7.57138e-02        00000 
 1.96947e-01 -6.99138e-02        00000 
 1.84951e-01 -6.47130e-02        00000 
 1.73114e-01 -5.83287e-02        00000 
 1.61316e-01 -5.32009e-02        00000 
 1.47752e-01 -4.92676e-02        00000 
 1.32843e-01 -4.52504e-02        00000 
 1.17863e-01 -4.10130e-02        00000 
 1.02243e-01 -3.58058e-02        00000 
 8.43271e-02 -3.06718e-02        00000 
 6.97792e-02 -2.66512e-02        00000 
 5.42089e-02 -2.04408e-02        00000 
 3.46387e-02 -1.35053e-02        00000 
 1.72338e-02 -5.19227e-03        00000 
-4.35194e-04  2.89879e-04        00000 
 1.95556e-01 -7.32020e-02        00000 
 1.87193e-01 -6.99461e-02        00000 
 1.79738e-01 -6.59913e-02        00000 
 1.68639e-01 -6.22569e-02        00000 
 1.56403e-01 -5.71220e-02        00000 
 1.44354e-01 -5.19976e-02        00000 
 1.32399e-01 -4.86588e-02        00000 
 1.21266e-01 -4.50902e-02        00000 
 1.08201e-01 -4.20236e-02        00000 
 9.47061e-02 -3.76954e-02        00000 
 7.99775e-02 -3.24718e-02        00000 
 6.53955e-02 -2.70040e-02        00000 
 4.95742e-02 -1.99664e-02        00000 
 3.43934e-02 -1.34384e-02        00000 
 1.60011e-02 -6.83820e-03        00000 
 2.15209e-03 -4.10735e-03        00000 
 1.72166e-01 -6.58732e-02        00000 
 1.65232e-01 -6.43635e-02        00000 
 1.59656e-01 -6.21658e-02        00000 
 1.52870e-01 -5.91997e-02        00000 
 1.40045e-01 -5.52759e-02        00000 
 1.30044e-01 -5.16542e-02        00000 
 1.18321e-01 -4.78327e-02        00000 
 1.09048e-01 -4.49823e-02        00000 
 9.72681e-02 -4.09528e-02        00000 
 8.52801e-02 -3.64763e-02        00000 
 7.10537e-02 -3.10032e-02        00000 
 5.69147e-02 -2.53788e-02        00000 
 4.34733e-02 -1.92126e-02        00000 
 3.19044e-02 -1.44246e-02        00000 
 1.64924e-02 -7.76772e-03        00000 
 1.43053e-03 -5.91216e-03        00000 
 1.48190e-01 -5.78870e-02        00000 
 1.43656e-01 -5.78725e-02        00000 
 1.38766e-01 -5.83070e-02        00000 
 1.34045e-01 -5.68154e-02        00000 
 1.25818e-01 -5.32339e-02        00000 
 1.15453e-01 -4.94010e-02        00000 
 1.07486e-01 -4.59053e-02        00000 
 9.76173e-02 -4.11226e-02        00000 
 8.95199e-02 -3.74843e-02        00000 
 7.90255e-02 -3.34442e-02        00000 
 6.64281e-02 -2.85896e-02        00000 
 5.07829e-02 -2.33193e-02        00000 
 3.73374e-02 -1.73209e-02        00000 
 2.66272e-02 -1.31199e-02        00000 
 1.42977e-02 -7.33050e-03        00000 
 4.06956e-05 -5.95219e-03        00000 
 1.24823e-01 -4.99552e-02        00000 
 1.23033e-01 -5.14778e-02        00000 
 1.21762e-01 -5.24007e-02        00000 
 1.18834e-01 -5.07649e-02        00000 
 1.12060e-01 -4.73130e-02        00000 
 1.03289e-01 -4.40563e-02        00000 
 9.49545e-02 -4.06330e-02        00000 
 8.71135e-02 -3.69737e-02        00000 
 7.81026e-02 -3.35855e-02        00000 
 6.71601e-02 -2.86482e-02        00000 
 5.62754e-02 -2.42495e-02        00000 
 4.63161e-02 -2.07643e-02        00000 
 3.38151e-02 -1.62253e-02        00000 
 2.55176e-02 -1.22996e-02        00000 
 1.47027e-02 -6.40675e-03        00000 
 9.67995e-04 -3.23904e-03        00000 
 1.06309e-01 -4.09658e-02        00000 
 1.05349e-01 -4.20281e-02        00000 
 1.06639e-01 -4.36046e-02        00000 
 1.04206e-01 -4.30664e-02        00000 
 9.77731e-02 -4.11384e-02        00000 
 9.01649e-02 -3.96825e-02        00000 
 8.27617e-02 -3.72698e-02        00000 
 7.56617e-02 -3.45189e-02        00000 
 6.76539e-02 -3.05121e-02        00000 
 5.85352e-02 -2.60781e-02        00000 
 4.77233e-02 -2.15743e-02        00000 
 3.71612e-02 -1.73860e-02        00000 
 2.97623e-02 -1.39659e-02        00000 
 2.40558e-02 -1.06050e-02        00000 
 1.41829e-02 -5.72735e-03        00000 
 9.73706e-04 -8.51817e-04        00000 
 9.00307e-02 -3.31680e-02        00000 
 8.73070e-02 -3.40940e-02        00000 
 8.86838e-02 -3.67596e-02        00000 
 8.98892e-02 -3.92226e-02        00000 
 8.41053e-02 -3.86523e-02        00000 
 7.74807e-02 -3.76864e-02        00000 
 7.22804e-02 -3.53397e-02        00000 
 6.45967e-02 -3.11863e-02        00000 
 5.62842e-02 -2.73217e-02        00000 
 4.79132e-02 -2.37835e-02        00000 
 4.01644e-02 -1.99932e-02        00000 
 3.35940e-02 -1.60383e-02        00000 
 2.60605e-02 -1.11580e-02        00000 
 1.95001e-02 -7.68870e-03        00000 
 1.09136e-02 -3.59133e-03        00000 
-5.64752e-04 -2.20675e-03        00000 
 7.67829e-02 -2.77474e-02        00000 
 7.54493e-02 -3.01370e-02        00000 
 7.63876e-02 -3.39516e-02        00000 
 7.69570e-02 -3.72445e-02        00000 
 7.34385e-02 -3.83718e-02        00000 
 6.65879e-02 -3.71801e-02        00000 
 5.89583e-02 -3.33803e-02        00000 
 5.15368e-02 -2.98702e-02        00000 
 4.54338e-02 -2.73541e-02        00000 
 3.79811e-02 -2.35102e-02        00000 
 3.18109e-02 -1.94857e-02        00000 
 2.38181e-02 -1.49628e-02        00000 
 1.58751e-02 -1.14581e-02        00000 
 1.31892e-02 -8.91254e-03        00000 
 7.09959e-03 -4.67532e-03        00000 
 1.79713e-03 -4.52518e-03        00000 
 6.67989e-02 -2.62502e-02        00000 
 6.51396e-02 -2.95060e-02        00000 
 6.66498e-02 -3.35200e-02        00000 
 6.61981e-02 -3.69818e-02        00000 
 6.27341e-02 -3.95662e-02        00000 
 5.45878e-02 -3.67902e-02        00000 
 4.74559e-02 -3.37586e-02        00000 
 4.15987e-02 -3.11999e-02        00000 
 3.62848e-02 -2.74832e-02        00000 
 3.12698e-02 -2.26652e-02        00000 
 2.46759e-02 -1.84848e-02        00000 
 1.81620e-02 -1.51898e-02        00000 
 1.49268e-02 -1.13927e-02        00000 
 9.83900e-03 -4.79952e-03        00000 
 4.20181e-03 -3.25988e-03        00000 
 1.98939e-03 -3.33505e-03        00000 
 5.90882e-02 -2.48235e-02        00000 
 5.71342e-02 -2.95868e-02        00000 
 5.80984e-02 -3.34005e-02        00000 
 5.78806e-02 -3.76812e-02        00000 
 5.10008e-02 -3.82880e-02        00000 
 4.58646e-02 -3.71266e-02        00000 
 4.21049e-02 -3.43240e-02        00000 
 3.70509e-02 -2.97397e-02        00000 
 3.16004e-02 -2.42025e-02        00000 
 2.40301e-02 -1.98462e-02        00000 
 1.89882e-02 -1.60038e-02        00000 
 1.52039e-02 -1.25265e-02        00000 
 1.36301e-02 -8.36561e-03        00000 
 1.07236e-02 -4.85075e-03        00000 
 5.40777e-03 -4.91429e-03        00000 
 2.81525e-03 -2.51396e-03        00000 
 5.41409e-02 -2.40898e-02        00000 
 5.16734e-02 -2.98104e-02        00000 
 5.34074e-02 -3.47671e-02        00000 
 5.21968e-02 -3.75969e-02        00000 
 4.59508e-02 -3.73755e-02        00000 
 4.03994e-02 -3.51725e-02        00000 
 3.61883e-02 -3.07553e-02        00000 
 3.07922e-02 -2.48218e-02        00000 
 2.50602e-02 -2.17677e-02        00000 
 2.09387e-02 -1.84767e-02        00000 
 1.50483e-02 -1.41707e-02        00000 
 8.48012e-03 -1.02450e-02        00000 
 1.86439e-03 -5.87226e-03        00000 
-1.98434e-03 -5.38583e-03        00000 
 9.65842e-04 -2.64719e-03        00000 
 5.79155e-03 -4.04744e-03        00000 
 5.00573e-02 -2.35715e-02        00000 
 4.76256e-02 -2.86332e-02        00000 
 4.87684e-02 -3.42995e-02        00000 
 5.04262e-02 -3.83116e-02        00000 
 4.57872e-02 -3.81684e-02        00000 
 4.15540e-02 -3.62456e-02        00000 
 3.51503e-02 -3.15507e-02        00000 
 2.99449e-02 -2.71935e-02        00000 
 2.58118e-02 -2.40725e-02        00000 
 2.37408e-02 -2.29416e-02        00000 
 1.91199e-02 -1.88459e-02        00000 
 1.36213e-02 -1.48945e-02        00000 
 8.64600e-03 -1.45968e-02        00000 
 1.78318e-03 -9.47421e-03        00000 
 1.78505e-03 -4.41641e-03        00000 
-2.82934e-04 -1.97665e-03        00000 
 4.67314e-02 -2.33060e-02        00000 
 4.55739e-02 -2.76418e-02        00000 
 4.67550e-02 -3.35918e-02        00000 
 4.79985e-02 -3.78035e-02        00000 
 4.64161e-02 -3.90653e-02        00000 
 4.06698e-02 -3.71823e-02        00000 
 3.51350e-02 -3.39460e-02        00000 
 3.06934e-02 -3.01623e-02        00000 
 2.69192e-02 -2.66894e-02        00000 
 2.44380e-02 -2.34121e-02        00000 
 2.09135e-02 -2.02440e-02        00000 
 1.67955e-02 -1.66424e-02        00000 
 1.28424e-02 -1.30309e-02        00000 
 6.55899e-03 -9.85280e-03        00000 
 2.86809e-03 -6.30783e-03        00000 
-1.31742e-04  1.43153e-04        00000 
 4.55365e-02 -2.30580e-02        00000 
 4.44545e-02 -2.69044e-02        00000 
 4.68419e-02 -3.34230e-02        00000 
 4.74854e-02 -3.71933e-02        00000 
 4.66109e-02 -3.85141e-02        00000 
 4.11450e-02 -3.69780e-02        00000 
 3.81671e-02 -3.52677e-02        00000 
 3.52027e-02 -3.30056e-02        00000 
 3.12849e-02 -2.98806e-02        00000 
 2.76139e-02 -2.73293e-02        00000 
 2.29446e-02 -2.38489e-02        00000 
 1.83087e-02 -2.01602e-02        00000 
 1.52302e-02 -1.62546e-02        00000 
 1.26162e-02 -1.02071e-02        00000 
 6.33716e-03 -4.11202e-03        00000 
 1.13260e-03  5.72992e-04        00000 
 4.72755e-02 -2.39816e-02        00000 
 4.69653e-02 -2.80682e-02        00000 
 4.82520e-02 -3.26506e-02        00000 
 4.99670e-02 -3.58294e-02        00000 
 5.05174e-02 -3.72903e-02        00000 
 4.80339e-02 -3.66469e-02        00000 
 4.43584e-02 -3.47319e-02        00000 
 4.11919e-02 -3.38124e-02        00000 
 3.64650e-02 -3.15207e-02        00000 
 3.24153e-02 -2.96919e-02        00000 
 2.59506e-02 -2.83211e-02        00000 
 1.93508e-02 -2.44222e-02        00000 
 1.44635e-02 -1.95362e-02        00000 
 1.15268e-02 -1.29289e-02        00000 
 6.88007e-03 -5.40020e-03        00000 
-1.16281e-03  3.23047e-04        00000 
 5.56089e-02 -2.59356e-02        00000 
 5.63284e-02 -2.97732e-02        00000 
 5.70664e-02 -3.28798e-02        00000 
 5.85261e-02 -3.43049e-02        00000 
 5.87768e-02 -3.45865e-02        00000 
 5.79024e-02 -3.50402e-02        00000 
 5.46227e-02 -3.43428e-02        00000 
 4.85957e-02 -3.29331e-02        00000 
 4.42948e-02 -3.24264e-02        00000 
 4.04467e-02 -3.24109e-02        00000 
 3.39324e-02 -3.09473e-02        00000 
 2.64170e-02 -2.74351e-02        00000 
 2.01483e-02 -2.01430e-02        00000 
 1.41364e-02 -1.34062e-02        00000 
 4.62746e-03 -7.34076e-03        00000 
-1.71580e-03 -3.23388e-04        00000 
 6.72738e-02 -2.82917e-02        00000 
 6.92683e-02 -3.23684e-02        00000 
 7.16539e-02 -3.52799e-02        00000 
 7.35312e-02 -3.75269e-02        00000 
 7.26083e-02 -3.74126e-02        00000 
 6.99241e-02 -3.61003e-02        00000 
 6.41345e-02 -3.44597e-02        00000 
 5.65859e-02 -3.35758e-02        00000 
 5.18680e-02 -3.36159e-02        00000 
 4.49940e-02 -3.27481e-02        00000 
 3.94406e-02 -3.07244e-02        00000 
 3.33235e-02 -2.68273e-02        00000 
 2.49618e-02 -2.13883e-02        00000 
 1.50076e-02 -1.53570e-02        00000 
 3.88513e-03 -9.36072e-03        00000 
 1.16765e-04  1.04254e-03        00000 
 8.59906e-02 -3.12971e-02        00000 
 8.68837e-02 -3.49740e-02        00000 
 8.90816e-02 -3.79881e-02        00000 
 9.21259e-02 -4.16259e-02        00000 
 9.00426e-02 -4.18860e-02        00000 
 8.55340e-02 -4.11275e-02        00000 
 7.75202e-02 -3.99656e-02        00000 
 6.94351e-02 -3.90794e-02        00000 
 6.34548e-02 -3.83124e-02        00000 
 5.59937e-02 -3.65543e-02        00000 
 4.72302e-02 -3.33469e-02        00000 
 4.08260e-02 -2.85660e-02        00000 
 2.92554e-02 -2.27790e-02        00000 
 1.60293e-02 -1.67441e-02        00000 
 4.75282e-03 -9.67408e-03        00000 
-6.75298e-06  1.30466e-03        00000 
 1.07612e-01 -3.49760e-02        00000 
 1.08477e-01 -3.85451e-02        00000 
 1.10809e-01 -4.23991e-02        00000 
 1.11351e-01 -4.53268e-02        00000 
 1.07985e-01 -4.60933e-02        00000 
 1.03486e-01 -4.62219e-02        00000 
 9.70869e-02 -4.51276e-02        00000 
 8.92237e-02 -4.33624e-02        00000 
 8.09201e-02 -4.17130e-02        00000 
 7.33955e-02 -4.01673e-02        00000 
 6.33246e-02 -3.65042e-02        00000 
 5.18647e-02 -3.12772e-02        00000 
 3.80834e-02 -2.36736e-02        00000 
 2.31617e-02 -1.64555e-02        00000 
 1.12820e-02 -8.27625e-03        00000 
 7.09764e-04 -7.31751e-04        00000 
 1.28064e-01 -3.90821e-02        00000 
 1.30041e-01 -4.26864e-02        00000 
 1.32923e-01 -4.66782e-02        00000 
 1.33141e-01 -4.95637e-02        00000 
 1.28561e-01 -5.04168e-02        00000 
 1.24106e-01 -4.99902e-02        00000 
 1.17431e-01 -4.81536e-02        00000 
 1.08750e-01 -4.47094e-02        00000 
 9.84172e-02 -4.24190e-02        00000 
 8.74184e-02 -3.97861e-02        00000 
 7.70554e-02 -3.70340e-02        00000 
 6.29838e-02 -3.18711e-02        00000 
 4.73619e-02 -2.46883e-02        00000 
 3.24379e-02 -1.67042e-02        00000 
 1.49853e-02 -6.23693e-03        00000 
-5.30672e-04 -2.21325e-03        00000 
 1.47245e-01 -4.26968e-02        00000 
 1.49472e-01 -4.64887e-02        00000 
 1.53004e-01 -4.91202e-02        00000 
 1.55056e-01 -5.24534e-02        00000 
 1.52009e-01 -5.32868e-02        00000 
 1.45727e-01 -5.16098e-02        00000 
 1.38612e-01 -4.92245e-02        00000 
 1.29114e-01 -4.64664e-02        00000 
 1.17007e-01 -4.34676e-02        00000 
 1.02592e-01 -3.99725e-02        00000 
 8.80048e-02 -3.57276e-02        00000 
 7.15204e-02 -3.08743e-02        00000 
 5.52689e-02 -2.43968e-02        00000 
 3.54150e-02 -1.42772e-02        00000 
 1.60537e-02 -5.06485e-03        00000 
 1.35600e-03 -1.31426e-03        00000 
 1.68406e-01 -4.61613e-02        00000 
 1.71201e-01 -4.94627e-02        00000 
 1.74317e-01 -5.17984e-02        00000 
 1.74649e-01 -5.45918e-02        00000 
 1.73292e-01 -5.50338e-02        00000 
 1.67977e-01 -5.29977e-02        00000 
 1.60989e-01 -5.01884e-02        00000 
 1.49438e-01 -4.68793e-02        00000 
 1.32616e-01 -4.16619e-02        00000 
 1.14356e-01 -3.62098e-02        00000 
 9.62741e-02 -3.01673e-02        00000 
 7.75634e-02 -2.42166e-02        00000 
 5.72136e-02 -1.92366e-02        00000 
 3.92777e-02 -1.10226e-02        00000 
 2.45952e-02 -6.66702e-03        00000 
 8.31959e-03 -1.99401e-03        00000 
 1.87786e-01 -4.90981e-02        00000 
 1.91797e-01 -5.19494e-02        00000 
 1.96187e-01 -5.40005e-02        00000 
 1.95968e-01 -5.62676e-02        00000 
 1.92705e-01 -5.58262e-02        00000 
 1.85510e-01 -5.17579e-02        00000 
 1.77025e-01 -4.72869e-02        00000 
 1.64406e-01 -4.18481e-02        00000 
 1.47738e-01 -3.62628e-02        00000 
 1.29181e-01 -3.05539e-02        00000 
 1.07969e-01 -2.41749e-02        00000 
 8.77086e-02 -1.89247e-02        00000 
 6.78668e-02 -1.23108e-02        00000 
 4.62173e-02 -7.36378e-03        00000 
 2.44949e-02 -5.86756e-03        00000 
-1.46016e-03 -4.24802e-03        00000 
 2.08976e-01 -5.26137e-02        00000 
 2.11159e-01 -5.33534e-02        00000 
 2.16066e-01 -5.51915e-02        00000 
 2.17663e-01 -5.66864e-02        00000 
 2.16873e-01 -5.66028e-02        00000 
 2.12031e-01 -5.30565e-02        00000 
 2.05605e-01 -4.84786e-02        00000 
 1.96543e-01 -4.46158e-02        00000 
 1.87684e-01 -3.86382e-02        00000 
 1.74411e-01 -3.30199e-02        00000 
 1.60098e-01 -2.84840e-02        00000 
 1.48543e-01 -2.16287e-02        00000 
 1.34345e-01 -1.67015e-02        00000 
 1.15679e-01 -9.77333e-03        00000 
 9.89541e-02 -3.82851e-03        00000 
 8.25581e-02 -3.37083e-04        00000 
 2.34614e-01 -5.69032e-02        00000 
 2.35635e-01 -5.49456e-02        00000 
 2.39012e-01 -5.51094e-02        00000 
 2.42466e-01 -5.62044e-02        00000 
 2.43591e-01 -5.67358e-02        00000 
 2.43115e-01 -5.38745e-02        00000 
 2.41856e-01 -4.93497e-02        00000 
 2.39092e-01 -4.45152e-02        00000 
 2.32231e-01 -4.00574e-02        00000 
 2.24354e-01 -3.55670e-02        00000 
 2.13748e-01 -3.08907e-02        00000 
 2.03167e-01 -2.50679e-02        00000 
 1.94717e-01 -1.83023e-02        00000 
 1.85234e-01 -1.30635e-02        00000 
 1.75706e-01 -7.88006e-03        00000 
 1.64664e-01 -1.22889e-03        00000 
 2.64031e-01 -6.12959e-02        00000 
 2.64292e-01 -5.86016e-02        00000 
 2.67709e-01 -5.59534e-02        00000 
 2.72607e-01 -5.47198e-02        00000 
 2.72629e-01 -5.47422e-02        00000 
 2.73288e-01 -5.27967e-02        00000 
 2.74892e-01 -4.96079e-02        00000 
 2.76425e-01 -4.42588e-02        00000 
 2.75577e-01 -3.95829e-02        00000 
 2.74755e-01 -3.46095e-02        00000 
 2.71311e-01 -3.08555e-02        00000 
 2.65465e-01 -2.56456e-02        00000 
 2.62744e-01 -1.90044e-02        00000 
 2.58274e-01 -1.41701e-02        00000 
 2.53105e-01 -6.95371e-03        00000 
 2.47725e-01 -1.25031e-03        00000 
 2.96774e-01 -6.52490e-02        00000 
 2.98805e-01 -6.25690e-02        00000 
 3.01258e-01 -5.86840e-02        00000 
 3.04126e-01 -5.46857e-02        00000 
 3.07062e-01 -5.29936e-02        00000 
 3.10634e-01 -5.12284e-02        00000 
 3.14720e-01 -4.76486e-02        00000 
 3.19384e-01 -4.33923e-02        00000 
 3.23489e-01 -3.92987e-02        00000 
 3.25641e-01 -3.49434e-02        00000 
 3.26271e-01 -3.02231e-02        00000 
 3.26782e-01 -2.56622e-02        00000 
 3.29089e-01 -1.94895e-02        00000 
 3.34351e-01 -1.31791e-02        00000 
 3.32480e-01 -5.14990e-03        00000 
 3.33184e-01 -8.57329e-04        00000 
 3.30865e-01 -6.95953e-02        00000 
 3.33809e-01 -6.53156e-02        00000 
 3.37736e-01 -6.10362e-02        00000 
 3.41999e-01 -5.65537e-02        00000 
 3.50232e-01 -5.24923e-02        00000 
 3.55422e-01 -4.95325e-02        00000 
 3.59397e-01 -4.69422e-02        00000 
 3.64464e-01 -4.32814e-02        00000 
 3.70955e-01 -3.87230e-02        00000 
 3.76251e-01 -3.39274e-02        00000 
 3.81242e-01 -3.03078e-02        00000 
 3.90004e-01 -2.60174e-02        00000 
 3.95572e-01 -1.95661e-02        00000 
 4.04632e-01 -1.39302e-02        00000 
 4.08838e-01 -5.25865e-03        00000 
 4.14324e-01 -1.46291e-03        00000 
 3.68889e-01 -7.52180e-02        00000 
 3.74132e-01 -7.02466e-02        00000 
 3.77153e-01 -6.53219e-02        00000 
 3.80346e-01 -5.99277e-02        00000 
 3.89875e-01 -5.47914e-02        00000 
 3.99422e-01 -5.11306e-02        00000 
 4.04627e-01 -4.66450e-02        00000 
 4.13117e-01 -4.34260e-02        00000 
 4.24314e-01 -3.90604e-02        00000 
 4.33318e-01 -3.41413e-02        00000 
 4.42775e-01 -2.92171e-02        00000 
 4.49330e-01 -2.39289e-02        00000 
 4.61835e-01 -1.92615e-02        00000 
 4.75707e-01 -1.32598e-02        00000 
 4.85704e-01 -6.88062e-03        00000 
 4.97068e-01 -3.26794e-03        00000 
 4.08606e-01 -8.43092e-02        00000 