<?xml version="1.0" encoding="utf-8"?>
<VTKFile byte_order="LittleEndian" type="UnstructuredGrid" version="0.1">
   <UnstructuredGrid>
      <Piece NumberOfCells="720" NumberOfPoints="768">
         <Points>
            <DataArray Name="Points" NumberOfComponents="3" format="ascii" type="Float32">
0.2121 0.2121 0.0000
0.2647 0.2647 0.0000
0.3172 0.3172 0.0000
0.3697 0.3697 0.0000
0.4222 0.4222 0.0000
0.4748 0.4748 0.0000
0.5273 0.5273 0.0000
0.5798 0.5798 0.0000
0.6323 0.6323 0.0000
0.6849 0.6849 0.0000
0.7374 0.7374 0.0000
0.7899 0.7899 0.0000
0.8424 0.8424 0.0000
0.8950 0.8950 0.0000
0.9475 0.9475 0.0000
1.0000 1.0000 0.0000
0.1921 0.2305 0.0000
0.2348 0.2818 0.0000
0.2776 0.3331 0.0000
0.3203 0.3844 0.0000
0.3631 0.4357 0.0000
0.4058 0.4870 0.0000
0.4486 0.5383 0.0000
0.4913 0.5896 0.0000
0.5341 0.6409 0.0000
0.5768 0.6922 0.0000
0.6196 0.7435 0.0000
0.6623 0.7948 0.0000
0.7051 0.8461 0.0000
0.7478 0.8974 0.0000
0.7906 0.9487 0.0000
0.8333 1.0000 0.0000
0.1664 0.2496 0.0000
0.1998 0.2996 0.0000
0.2331 0.3497 0.0000
0.2665 0.3997 0.0000
0.2998 0.4497 0.0000
0.3332 0.4997 0.0000
0.3665 0.5498 0.0000
0.3999 0.5998 0.0000
0.4332 0.6498 0.0000
0.4666 0.6998 0.0000
0.4999 0.7499 0.0000
0.5333 0.7999 0.0000
0.5666 0.8499 0.0000
0.6000 0.8999 0.0000
0.6333 0.9500 0.0000
0.6667 1.0000 0.0000
0.1342 0.2683 0.0000
0.1586 0.3171 0.0000
0.1829 0.3659 0.0000
0.2073 0.4147 0.0000
0.2317 0.4634 0.0000
0.2561 0.5122 0.0000
0.2805 0.5610 0.0000
0.3049 0.6098 0.0000
0.3293 0.6586 0.0000
0.3537 0.7073 0.0000
0.3781 0.7561 0.0000
0.4024 0.8049 0.0000
0.4268 0.8537 0.0000
0.4512 0.9024 0.0000
0.4756 0.9512 0.0000
0.5000 1.0000 0.0000
0.0949 0.2846 0.0000
0.1108 0.3323 0.0000
0.1267 0.3800 0.0000
0.1426 0.4277 0.0000
0.1585 0.4754 0.0000
0.1744 0.5231 0.0000
0.1903 0.5708 0.0000
0.2062 0.6185 0.0000
0.2220 0.6661 0.0000
0.2379 0.7138 0.0000
0.2538 0.7615 0.0000
0.2697 0.8092 0.0000
0.2856 0.8569 0.0000
0.3015 0.9046 0.0000
0.3174 0.9523 0.0000
0.3333 1.0000 0.0000
0.0493 0.2959 0.0000
0.0571 0.3429 0.0000
0.0650 0.3898 0.0000
0.0728 0.4367 0.0000
0.0806 0.4837 0.0000
0.0884 0.5306 0.0000
0.0963 0.5776 0.0000
0.1041 0.6245 0.0000
0.1119 0.6714 0.0000
0.1197 0.7184 0.0000
0.1276 0.7653 0.0000
0.1354 0.8122 0.0000
0.1432 0.8592 0.0000
0.1510 0.9061 0.0000
0.1588 0.9531 0.0000
0.1667 1.0000 0.0000
0.0000 0.3000 0.0000
0.0000 0.3467 0.0000
0.0000 0.3933 0.0000
0.0000 0.4400 0.0000
0.0000 0.4867 0.0000
0.0000 0.5333 0.0000
0.0000 0.5800 0.0000
0.0000 0.6267 0.0000
0.0000 0.6733 0.0000
0.0000 0.7200 0.0000
0.0000 0.7667 0.0000
0.0000 0.8133 0.0000
0.0000 0.8600 0.0000
0.0000 0.9067 0.0000
0.0000 0.9533 0.0000
0.0000 1.0000 0.0000
-0.0493 0.2959 0.0000
-0.0571 0.3429 0.0000
-0.0650 0.3898 0.0000
-0.0728 0.4367 0.0000
-0.0806 0.4837 0.0000
-0.0884 0.5306 0.0000
-0.0963 0.5776 0.0000
-0.1041 0.6245 0.0000
-0.1119 0.6714 0.0000
-0.1197 0.7184 0.0000
-0.1276 0.7653 0.0000
-0.1354 0.8122 0.0000
-0.1432 0.8592 0.0000
-0.1510 0.9061 0.0000
-0.1588 0.9531 0.0000
-0.1667 1.0000 0.0000
-0.0949 0.2846 0.0000
-0.1108 0.3323 0.0000
-0.1267 0.3800 0.0000
-0.1426 0.4277 0.0000
-0.1585 0.4754 0.0000
-0.1744 0.5231 0.0000
-0.1903 0.5708 0.0000
-0.2062 0.6185 0.0000
-0.2220 0.6661 0.0000
-0.2379 0.7138 0.0000
-0.2538 0.7615 0.0000
-0.2697 0.8092 0.0000
-0.2856 0.8569 0.0000
-0.3015 0.9046 0.0000
-0.3174 0.9523 0.0000
-0.3333 1.0000 0.0000
-0.1342 0.2683 0.0000
-0.1586 0.3171 0.0000
-0.1829 0.3659 0.0000
-0.2073 0.4147 0.0000
-0.2317 0.4634 0.0000
-0.2561 0.5122 0.0000
-0.2805 0.5610 0.0000
-0.3049 0.6098 0.0000
-0.3293 0.6586 0.0000
-0.3537 0.7073 0.0000
-0.3781 0.7561 0.0000
-0.4024 0.8049 0.0000
-0.4268 0.8537 0.0000
-0.4512 0.9024 0.0000
-0.4756 0.9512 0.0000
-0.5000 1.0000 0.0000
-0.1664 0.2496 0.0000
-0.1998 0.2996 0.0000
-0.2331 0.3497 0.0000
-0.2665 0.3997 0.0000
-0.2998 0.4497 0.0000
-0.3332 0.4997 0.0000
-0.3665 0.5498 0.0000
-0.3999 0.5998 0.0000
-0.4332 0.6498 0.0000
-0.4666 0.6998 0.0000
-0.4999 0.7499 0.0000
-0.5333 0.7999 0.0000
-0.5666 0.8499 0.0000
-0.6000 0.8999 0.0000
-0.6333 0.9500 0.0000
-0.6667 1.0000 0.0000
-0.1921 0.2305 0.0000
-0.2348 0.2818 0.0000
-0.2776 0.3331 0.0000
-0.3203 0.3844 0.0000
-0.3631 0.4357 0.0000
-0.4058 0.4870 0.0000
-0.4486 0.5383 0.0000
-0.4913 0.5896 0.0000
-0.5341 0.6409 0.0000
-0.5768 0.6922 0.0000
-0.6196 0.7435 0.0000
-0.6623 0.7948 0.0000
-0.7051 0.8461 0.0000
-0.7478 0.8974 0.0000
-0.7906 0.9487 0.0000
-0.8333 1.0000 0.0000
-0.2121 0.2121 0.0000
-0.2647 0.2647 0.0000
-0.3172 0.3172 0.0000
-0.3697 0.3697 0.0000
-0.4222 0.4222 0.0000
-0.4748 0.4748 0.0000
-0.5273 0.5273 0.0000
-0.5798 0.5798 0.0000
-0.6323 0.6323 0.0000
-0.6849 0.6849 0.0000
-0.7374 0.7374 0.0000
-0.7899 0.7899 0.0000
-0.8424 0.8424 0.0000
-0.8950 0.8950 0.0000
-0.9475 0.9475 0.0000
-1.0000 1.0000 0.0000
-0.2305 0.1921 0.0000
-0.2818 0.2348 0.0000
-0.3331 0.2776 0.0000
-0.3844 0.3203 0.0000
-0.4357 0.3631 0.0000
-0.4870 0.4058 0.0000
-0.5383 0.4486 0.0000
-0.5896 0.4913 0.0000
-0.6409 0.5341 0.0000
-0.6922 0.5768 0.0000
-0.7435 0.6196 0.0000
-0.7948 0.6623 0.0000
-0.8461 0.7051 0.0000
-0.8974 0.7478 0.0000
-0.9487 0.7906 0.0000
-1.0000 0.8333 0.0000
-0.2496 0.1664 0.0000
-0.2996 0.1998 0.0000
-0.3497 0.2331 0.0000
-0.3997 0.2665 0.0000
-0.4497 0.2998 0.0000
-0.4997 0.3332 0.0000
-0.5498 0.3665 0.0000
-0.5998 0.3999 0.0000
-0.6498 0.4332 0.0000
-0.6998 0.4666 0.0000
-0.7499 0.4999 0.0000
-0.7999 0.5333 0.0000
-0.8499 0.5666 0.0000
-0.8999 0.6000 0.0000
-0.9500 0.6333 0.0000
-1.0000 0.6667 0.0000
-0.2683 0.1342 0.0000
-0.3171 0.1586 0.0000
-0.3659 0.1829 0.0000
-0.4147 0.2073 0.0000
-0.4634 0.2317 0.0000
-0.5122 0.2561 0.0000
-0.5610 0.2805 0.0000
-0.6098 0.3049 0.0000
-0.6586 0.3293 0.0000
-0.7073 0.3537 0.0000
-0.7561 0.3781 0.0000
-0.8049 0.4024 0.0000
-0.8537 0.4268 0.0000
-0.9024 0.4512 0.0000
-0.9512 0.4756 0.0000
-1.0000 0.5000 0.0000
-0.2846 0.0949 0.0000
-0.3323 0.1108 0.0000
-0.3800 0.1267 0.0000
-0.4277 0.1426 0.0000
-0.4754 0.1585 0.0000
-0.5231 0.1744 0.0000
-0.5708 0.1903 0.0000
-0.6185 0.2062 0.0000
-0.6661 0.2220 0.0000
-0.7138 0.2379 0.0000
-0.7615 0.2538 0.0000
-0.8092 0.2697 0.0000
-0.8569 0.2856 0.0000
-0.9046 0.3015 0.0000
-0.9523 0.3174 0.0000
-1.0000 0.3333 0.0000
-0.2959 0.0493 0.0000
-0.3429 0.0571 0.0000
-0.3898 0.0650 0.0000
-0.4367 0.0728 0.0000
-0.4837 0.0806 0.0000
-0.5306 0.0884 0.0000
-0.5776 0.0963 0.0000
-0.6245 0.1041 0.0000
-0.6714 0.1119 0.0000
-0.7184 0.1197 0.0000
-0.7653 0.1276 0.0000
-0.8122 0.1354 0.0000
-0.8592 0.1432 0.0000
-0.9061 0.1510 0.0000
-0.9531 0.1588 0.0000
-1.0000 0.1667 0.0000
-0.3000 0.0000 0.0000
-0.3467 0.0000 0.0000
-0.3933 0.0000 0.0000
-0.4400 0.0000 0.0000
-0.4867 0.0000 0.0000
-0.5333 0.0000 0.0000
-0.5800 0.0000 0.0000
-0.6267 0.0000 0.0000
-0.6733 0.0000 0.0000
-0.7200 0.0000 0.0000
-0.7667 0.0000 0.0000
-0.8133 0.0000 0.0000
-0.8600 0.0000 0.0000
-0.9067 0.0000 0.0000
-0.9533 0.0000 0.0000
-1.0000 0.0000 0.0000
-0.2959 -0.0493 0.0000
-0.3429 -0.0571 0.0000
-0.3898 -0.0650 0.0000
-0.4367 -0.0728 0.0000
-0.4837 -0.0806 0.0000
-0.5306 -0.0884 0.0000
-0.5776 -0.0963 0.0000
-0.6245 -0.1041 0.0000
-0.6714 -0.1119 0.0000
-0.7184 -0.1197 0.0000
-0.7653 -0.1276 0.0000
-0.8122 -0.1354 0.0000
-0.8592 -0.1432 0.0000
-0.9061 -0.1510 0.0000
-0.9531 -0.1588 0.0000
-1.0000 -0.1667 0.0000
-0.2846 -0.0949 0.0000
-0.3323 -0.1108 0.0000
-0.3800 -0.1267 0.0000
-0.4277 -0.1426 0.0000
-0.4754 -0.1585 0.0000
-0.5231 -0.1744 0.0000
-0.5708 -0.1903 0.0000
-0.6185 -0.2062 0.0000
-0.6661 -0.2220 0.0000
-0.7138 -0.2379 0.0000
-0.7615 -0.2538 0.0000
-0.8092 -0.2697 0.0000
-0.8569 -0.2856 0.0000
-0.9046 -0.3015 0.0000
-0.9523 -0.3174 0.0000
-1.0000 -0.3333 0.0000
-0.2683 -0.1342 0.0000
-0.3171 -0.1586 0.0000
-0.3659 -0.1829 0.0000
-0.4147 -0.2073 0.0000
-0.4634 -0.2317 0.0000
-0.5122 -0.2561 0.0000
-0.5610 -0.2805 0.0000
-0.6098 -0.3049 0.0000
-0.6586 -0.3293 0.0000
-0.7073 -0.3537 0.0000
-0.7561 -0.3781 0.0000
-0.8049 -0.4024 0.0000
-0.8537 -0.4268 0.0000
-0.9024 -0.4512 0.0000
-0.9512 -0.4756 0.0000
-1.0000 -0.5000 0.0000
-0.2496 -0.1664 0.0000
-0.2996 -0.1998 0.0000
-0.3497 -0.2331 0.0000
-0.3997 -0.2665 0.0000
-0.4497 -0.2998 0.0000
-0.4997 -0.3332 0.0000
-0.5498 -0.3665 0.0000
-0.5998 -0.3999 0.0000
-0.6498 -0.4332 0.0000
-0.6998 -0.4666 0.0000
-0.7499 -0.4999 0.0000
-0.7999 -0.5333 0.0000
-0.8499 -0.5666 0.0000
-0.8999 -0.6000 0.0000
-0.9500 -0.6333 0.0000
-1.0000 -0.6667 0.0000
-0.2305 -0.1921 0.0000
-0.2818 -0.2348 0.0000
-0.3331 -0.2776 0.0000
-0.3844 -0.3203 0.0000
-0.4357 -0.3631 0.0000
-0.4870 -0.4058 0.0000
-0.5383 -0.4486 0.0000
-0.5896 -0.4913 0.0000
-0.6409 -0.5341 0.0000
-0.6922 -0.5768 0.0000
-0.7435 -0.6196 0.0000
-0.7948 -0.6623 0.0000
-0.8461 -0.7051 0.0000
-0.8974 -0.7478 0.0000
-0.9487 -0.7906 0.0000
-1.0000 -0.8333 0.0000
-0.2121 -0.2121 0.0000
-0.2647 -0.2647 0.0000
-0.3172 -0.3172 0.0000
-0.3697 -0.3697 0.0000
-0.4222 -0.4222 0.0000
-0.4748 -0.4748 0.0000
-0.5273 -0.5273 0.0000
-0.5798 -0.5798 0.0000
-0.6323 -0.6323 0.0000
-0.6849 -0.6849 0.0000
-0.7374 -0.7374 0.0000
-0.7899 -0.7899 0.0000
-0.8424 -0.8424 0.0000
-0.8950 -0.8950 0.0000
-0.9475 -0.9475 0.0000
-1.0000 -1.0000 0.0000
-0.1921 -0.2305 0.0000
-0.2348 -0.2818 0.0000
-0.2776 -0.3331 0.0000
-0.3203 -0.3844 0.0000
-0.3631 -0.4357 0.0000
-0.4058 -0.4870 0.0000
-0.4486 -0.5383 0.0000
-0.4913 -0.5896 0.0000
-0.5341 -0.6409 0.0000
-0.5768 -0.6922 0.0000
-0.6196 -0.7435 0.0000
-0.6623 -0.7948 0.0000
-0.7051 -0.8461 0.0000
-0.7478 -0.8974 0.0000
-0.7906 -0.9487 0.0000
-0.8333 -1.0000 0.0000
-0.1664 -0.2496 0.0000
-0.1998 -0.2996 0.0000
-0.2331 -0.3497 0.0000
-0.2665 -0.3997 0.0000
-0.2998 -0.4497 0.0000
-0.3332 -0.4997 0.0000
-0.3665 -0.5498 0.0000
-0.3999 -0.5998 0.0000
-0.4332 -0.6498 0.0000
-0.4666 -0.6998 0.0000
-0.4999 -0.7499 0.0000
-0.5333 -0.7999 0.0000
-0.5666 -0.8499 0.0000
-0.6000 -0.8999 0.0000
-0.6333 -0.9500 0.0000
-0.6667 -1.0000 0.0000
-0.1342 -0.2683 0.0000
-0.1586 -0.3171 0.0000
-0.1829 -0.3659 0.0000
-0.2073 -0.4147 0.0000
-0.2317 -0.4634 0.0000
-0.2561 -0.5122 0.0000
-0.2805 -0.5610 0.0000
[...]
         <PointData>
            <DataArray Name="fValues" NumberOfComponents="3" format="ascii" type="Float64">
-9.53054e-02  2.54203e-01        00000 
-9.25380e-02  2.40324e-01        00000 
-8.64886e-02  2.24936e-01        00000 
-7.73594e-02  2.11707e-01        00000 
-6.59349e-02  1.95452e-01        00000 
-5.51515e-02  1.81485e-01        00000 
-4.77196e-02  1.69622e-01        00000 
-4.12363e-02  1.54688e-01        00000 
-3.39192e-02  1.39161e-01        00000 
-2.61765e-02  1.21168e-01        00000 
-2.01285e-02  1.04820e-01        00000 
-1.54608e-02  8.84390e-02        00000 
-9.96075e-03  6.78808e-02        00000 
-5.27463e-03  4.59235e-02        00000 
-1.72651e-03  2.49972e-02        00000 
 1.38405e-03  2.43198e-03        00000 
-9.84939e-02  2.74806e-01        00000 
-9.54711e-02  2.63806e-01        00000 
-8.91402e-02  2.50572e-01        00000 
-8.06598e-02  2.39583e-01        00000 
-7.04558e-02  2.28851e-01        00000 
-6.00833e-02  2.15217e-01        00000 
-5.13629e-02  2.05354e-01        00000 
-4.50554e-02  1.96249e-01        00000 
-3.89202e-02  1.84796e-01        00000 
-3.24925e-02  1.71700e-01        00000 
-2.62078e-02  1.55679e-01        00000 
-2.29238e-02  1.47363e-01        00000 
-1.65591e-02  1.30366e-01        00000 
-8.14905e-03  1.14019e-01        00000 
-1.86317e-03  9.93497e-02        00000 
 3.46395e-03  8.30818e-02        00000 
-1.01041e-01  2.99851e-01        00000 
-9.74530e-02  2.91792e-01        00000 
-9.12831e-02  2.81687e-01        00000 
-8.25492e-02  2.72572e-01        00000 
-7.32252e-02  2.64681e-01        00000 
-6.31855e-02  2.54269e-01        00000 
-5.46450e-02  2.44239e-01        00000 
-4.72988e-02  2.37275e-01        00000 
-4.15322e-02  2.32053e-01        00000 
-3.52682e-02  2.25789e-01        00000 
-2.84872e-02  2.19042e-01        00000 
-2.26910e-02  2.04386e-01        00000 
-1.62343e-02  1.94773e-01        00000 
-9.27870e-03  1.87907e-01        00000 
-4.32184e-03  1.76530e-01        00000 
 1.79978e-03  1.63510e-01        00000 
-1.03972e-01  3.30453e-01        00000 
-9.96191e-02  3.24969e-01        00000 
-9.28461e-02  3.16292e-01        00000 
-8.41608e-02  3.09212e-01        00000 
-7.47302e-02  3.02815e-01        00000 
-6.55276e-02  2.96702e-01        00000 
-5.73255e-02  2.89925e-01        00000 
-5.01776e-02  2.85534e-01        00000 
-4.34720e-02  2.82541e-01        00000 
-3.66168e-02  2.78976e-01        00000 
-2.99758e-02  2.74733e-01        00000 
-2.39011e-02  2.69268e-01        00000 
-1.70367e-02  2.63072e-01        00000 
-1.04358e-02  2.58445e-01        00000 
-3.09946e-03  2.56557e-01        00000 
 1.40524e-03  2.48216e-01        00000 
-1.07442e-01  3.65127e-01        00000 
-1.02386e-01  3.61016e-01        00000 
-9.46482e-02  3.55820e-01        00000 
-8.56435e-02  3.50326e-01        00000 
-7.68567e-02  3.47135e-01        00000 
-6.83884e-02  3.44715e-01        00000 
-6.03632e-02  3.41665e-01        00000 
-5.39307e-02  3.40187e-01        00000 
-4.67753e-02  3.40886e-01        00000 
-3.95614e-02  3.39746e-01        00000 
-3.22673e-02  3.37438e-01        00000 
-2.51864e-02  3.35397e-01        00000 
-1.83719e-02  3.31871e-01        00000 
-1.14343e-02  3.30324e-01        00000 
-4.87455e-03  3.31883e-01        00000 
 6.45549e-04  3.32250e-01        00000 
-1.11071e-01  3.99432e-01        00000 
-1.05653e-01  3.99060e-01        00000 
-9.80641e-02  3.97855e-01        00000 
-8.89911e-02  3.96111e-01        00000 
-8.04503e-02  3.96975e-01        00000 
-7.25868e-02  3.98702e-01        00000 
-6.55609e-02  3.99259e-01        00000 
-5.99906e-02  4.01554e-01        00000 
-5.28278e-02  4.01646e-01        00000 
-4.61747e-02  4.04508e-01        00000 
-3.87779e-02  4.06451e-01        00000 
-3.06137e-02  4.09148e-01        00000 
-2.27004e-02  4.08315e-01        00000 
-1.49065e-02  4.09060e-01        00000 
-6.85858e-03  4.11263e-01        00000 
-2.61220e-04  4.14755e-01        00000 
-1.13969e-01  4.32390e-01        00000 
-1.07677e-01  4.32614e-01        00000 
-9.99235e-02  4.32829e-01        00000 
-9.17919e-02  4.34818e-01        00000 
-8.45520e-02  4.39520e-01        00000 
-7.77285e-02  4.43298e-01        00000 
-7.17850e-02  4.47561e-01        00000 
-6.57217e-02  4.51679e-01        00000 
-5.87822e-02  4.55217e-01        00000 
-5.22070e-02  4.63711e-01        00000 
-4.48018e-02  4.70632e-01        00000 
-3.50805e-02  4.73965e-01        00000 
-2.56851e-02  4.77743e-01        00000 
-1.60857e-02  4.82886e-01        00000 
-7.85425e-03  4.93202e-01        00000 
 1.47555e-03  4.99235e-01        00000 
-1.18670e-01  4.62192e-01        00000 
-1.12279e-01  4.64831e-01        00000 
-1.04042e-01  4.65032e-01        00000 
-9.64583e-02  4.69068e-01        00000 
-8.92200e-02  4.74418e-01        00000 
-8.22827e-02  4.79203e-01        00000 
-7.66296e-02  4.88733e-01        00000 
-7.04431e-02  4.97130e-01        00000 
-6.39683e-02  5.05573e-01        00000 
-5.69693e-02  5.14587e-01        00000 
-4.92567e-02  5.25591e-01        00000 
-4.06020e-02  5.35389e-01        00000 
-3.05220e-02  5.42502e-01        00000 
-2.16693e-02  5.55673e-01        00000 
-1.11132e-02  5.69941e-01        00000 
 2.07085e-03  5.83987e-01        00000 
-1.23028e-01  4.84435e-01        00000 
-1.17437e-01  4.89273e-01        00000 
-1.08881e-01  4.90221e-01        00000 
-1.00383e-01  4.93568e-01        00000 
-9.32136e-02  5.00971e-01        00000 
-8.62775e-02  5.09486e-01        00000 
-8.00432e-02  5.21962e-01        00000 
-7.42499e-02  5.37411e-01        00000 
-6.77437e-02  5.50029e-01        00000 
-5.92787e-02  5.64861e-01        00000 
-5.09134e-02  5.81248e-01        00000 
-4.24103e-02  5.96414e-01        00000 
-3.34033e-02  6.10510e-01        00000 
-2.48115e-02  6.29614e-01        00000 
-1.18257e-02  6.44577e-01        00000 
 2.58526e-03  6.67291e-01        00000 
-1.24822e-01  4.96396e-01        00000 
-1.20325e-01  5.03397e-01        00000 
-1.11991e-01  5.05732e-01        00000 
-1.03467e-01  5.11380e-01        00000 
-9.53430e-02  5.19697e-01        00000 
-8.87989e-02  5.31800e-01        00000 
-8.30520e-02  5.49661e-01        00000 
-7.66399e-02  5.67674e-01        00000 
-6.87888e-02  5.87325e-01        00000 
-5.99760e-02  6.08492e-01        00000 
-5.09144e-02  6.27888e-01        00000 
-4.18371e-02  6.48864e-01        00000 
-3.33434e-02  6.75690e-01        00000 
-2.32933e-02  7.01901e-01        00000 
-1.14707e-02  7.27906e-01        00000 
 1.09682e-03  7.49229e-01        00000 
-1.22943e-01  4.94748e-01        00000 
-1.19321e-01  5.04542e-01        00000 
-1.12524e-01  5.12432e-01        00000 
-1.04017e-01  5.20819e-01        00000 
-9.51288e-02  5.31920e-01        00000 
-8.82993e-02  5.48762e-01        00000 
-8.10300e-02  5.70624e-01        00000 
-7.35999e-02  5.94195e-01        00000 
-6.52173e-02  6.21230e-01        00000 
-5.59013e-02  6.45058e-01        00000 
-4.74908e-02  6.71450e-01        00000 
-3.86046e-02  7.02638e-01        00000 
-2.90298e-02  7.35436e-01        00000 
-2.05427e-02  7.72463e-01        00000 
-9.36174e-03  8.05368e-01        00000 
 2.32765e-03  8.34025e-01        00000 
-1.20981e-01  4.92087e-01        00000 
-1.16457e-01  5.02609e-01        00000 
-1.09331e-01  5.12370e-01        00000 
-1.01067e-01  5.26821e-01        00000 
-9.26795e-02  5.43472e-01        00000 
-8.46568e-02  5.63637e-01        00000 
-7.70450e-02  5.92615e-01        00000 
-6.83027e-02  6.24579e-01        00000 
-5.86921e-02  6.51932e-01        00000 
-5.05228e-02  6.82595e-01        00000 
-4.32335e-02  7.20370e-01        00000 
-3.30225e-02  7.57579e-01        00000 
-2.31537e-02  7.95218e-01        00000 
-1.54997e-02  8.43087e-01        00000 
-8.40740e-03  8.77577e-01        00000 
 5.33328e-04  9.12912e-01        00000 
-1.17987e-01  4.87641e-01        00000 
-1.12470e-01  4.98735e-01        00000 
-1.04527e-01  5.11267e-01        00000 
-9.60343e-02  5.29304e-01        00000 
-8.79948e-02  5.51024e-01        00000 
-7.92583e-02  5.80985e-01        00000 
-7.01809e-02  6.15183e-01        00000 
-6.03443e-02  6.47827e-01        00000 
-5.23673e-02  6.83136e-01        00000 
-4.36117e-02  7.24001e-01        00000 
-3.45188e-02  7.66515e-01        00000 
-2.44520e-02  8.11425e-01        00000 
-1.62634e-02  8.58308e-01        00000 
-7.13734e-03  9.01855e-01        00000 
 1.49220e-03  9.45460e-01        00000 
 1.07969e-03  9.97822e-01        00000 
-1.14114e-01  4.81144e-01        00000 
-1.09315e-01  4.91456e-01        00000 
-1.02327e-01  5.03040e-01        00000 
-9.35612e-02  5.14634e-01        00000 
-8.60510e-02  5.32554e-01        00000 
-8.00453e-02  5.58693e-01        00000 
-7.29495e-02  5.87562e-01        00000 
-6.45067e-02  6.17482e-01        00000 
-5.67885e-02  6.49108e-01        00000 
-5.00078e-02  6.81960e-01        00000 
-4.25991e-02  7.16956e-01        00000 
-3.35830e-02  7.55372e-01        00000 
-2.43992e-02  7.93587e-01        00000 
-1.58299e-02  8.35289e-01        00000 
-5.24472e-03  8.75233e-01        00000 
 1.72101e-03  9.16976e-01        00000 
-1.08611e-01  4.70653e-01        00000 
-1.03380e-01  4.80116e-01        00000 
-9.67233e-02  4.89896e-01        00000 
-8.92911e-02  4.99542e-01        00000 
-8.20612e-02  5.11641e-01        00000 
-7.61997e-02  5.34551e-01        00000 
-6.91696e-02  5.54775e-01        00000 
-6.25827e-02  5.78714e-01        00000 
-5.70140e-02  6.08070e-01        00000 
-5.12846e-02  6.38689e-01        00000 
-4.55594e-02  6.71523e-01        00000 
-3.68488e-02  7.01885e-01        00000 
-2.84267e-02  7.30532e-01        00000 
-2.17418e-02  7.64936e-01        00000 
-1.30689e-02  7.98224e-01        00000 
-2.94769e-03  8.33305e-01        00000 
-1.00630e-01  4.56351e-01        00000 
-9.54904e-02  4.64877e-01        00000 
-8.86048e-02  4.70624e-01        00000 
-8.24059e-02  4.78566e-01        00000 
-7.56653e-02  4.86598e-01        00000 
-7.01289e-02  5.03687e-01        00000 
-6.29335e-02  5.21657e-01        00000 
-5.58725e-02  5.38851e-01        00000 
-4.96411e-02  5.61235e-01        00000 
-4.52913e-02  5.87813e-01        00000 
-4.01631e-02  6.13509e-01        00000 
-3.43205e-02  6.41180e-01        00000 
-2.69719e-02  6.65383e-01        00000 
-1.89872e-02  6.94296e-01        00000 
-1.32667e-02  7.21865e-01        00000 
-3.53255e-03  7.49909e-01        00000 
-9.04522e-02  4.36816e-01        00000 
-8.48220e-02  4.42749e-01        00000 
-7.95764e-02  4.48690e-01        00000 
-7.38561e-02  4.53822e-01        00000 
-6.82030e-02  4.60602e-01        00000 
-6.21366e-02  4.70640e-01        00000 
-5.51879e-02  4.85523e-01        00000 
-4.91310e-02  5.02237e-01        00000 
-4.31501e-02  5.20941e-01        00000 
-3.80241e-02  5.42597e-01        00000 
-3.39752e-02  5.61142e-01        00000 
-2.92570e-02  5.78914e-01        00000 
-2.12910e-02  5.98274e-01        00000 
-1.50201e-02  6.23517e-01        00000 
-1.01409e-02  6.43761e-01        00000 
-4.21886e-03  6.65672e-01        00000 
-8.06289e-02  4.11479e-01        00000 
-7.43707e-02  4.15095e-01        00000 
-6.99281e-02  4.18843e-01        00000 
-6.61206e-02  4.23589e-01        00000 
-6.13020e-02  4.29908e-01        00000 
-5.60661e-02  4.38061e-01        00000 
-5.06239e-02  4.48527e-01        00000 
-4.41084e-02  4.59758e-01        00000 
-3.91057e-02  4.71522e-01        00000 
-3.47521e-02  4.87987e-01        00000 
-3.09476e-02  5.02634e-01        00000 
-2.55066e-02  5.17149e-01        00000 
-1.85497e-02  5.34061e-01        00000 
-1.23133e-02  5.52453e-01        00000 
-7.76576e-03  5.67983e-01        00000 
-2.99297e-03  5.84755e-01        00000 
-7.26354e-02  3.82027e-01        00000 
-6.53293e-02  3.81465e-01        00000 
-6.03210e-02  3.82678e-01        00000 
-5.68879e-02  3.87102e-01        00000 
-5.35596e-02  3.94419e-01        00000 
-4.97436e-02  4.02083e-01        00000 
-4.56060e-02  4.09076e-01        00000 
-4.15056e-02  4.17441e-01        00000 
-3.67197e-02  4.23873e-01        00000 
-3.23127e-02  4.32677e-01        00000 
-2.76829e-02  4.43001e-01        00000 
-2.33149e-02  4.56191e-01        00000 
-1.55343e-02  4.68661e-01        00000 
-9.09016e-03  4.81327e-01        00000 
-4.42011e-03  4.89307e-01        00000 
-2.85488e-03  5.05696e-01        00000 
-6.50772e-02  3.43228e-01        00000 
-5.89001e-02  3.45718e-01        00000 
-5.42426e-02  3.49431e-01        00000 
-5.03770e-02  3.52218e-01        00000 
-4.76426e-02  3.58335e-01        00000 
-4.43607e-02  3.62225e-01        00000 
-4.02961e-02  3.67208e-01        00000 
-3.67328e-02  3.72740e-01        00000 
-3.21689e-02  3.75608e-01        00000 
-2.85665e-02  3.80865e-01        00000 
-2.52943e-02  3.87884e-01        00000 
-2.05873e-02  3.94362e-01        00000 
-1.45459e-02  4.00695e-01        00000 
-6.75650e-03  4.05882e-01        00000 
-4.70174e-04  4.10125e-01        00000 
-1.59022e-03  4.18824e-01        00000 
-5.97621e-02  3.02620e-01        00000 
-5.46979e-02  3.08136e-01        00000 
-5.11610e-02  3.13508e-01        00000 
-4.71661e-02  3.18252e-01        00000 
-4.44507e-02  3.21433e-01        00000 
-4.08482e-02  3.21810e-01        00000 
-3.66112e-02  3.22557e-01        00000 
-3.26353e-02  3.25642e-01        00000 
-2.91006e-02  3.28351e-01        00000 
-2.55699e-02  3.30092e-01        00000 
-2.22952e-02  3.29677e-01        00000 
-1.89902e-02  3.29530e-01        00000 
-1.48301e-02  3.30284e-01        00000 
-9.86023e-03  3.30652e-01        00000 
-2.69086e-03  3.32033e-01        00000 
-2.68689e-03  3.35624e-01        00000 
-5.66599e-02  2.67221e-01        00000 
-5.24967e-02  2.72861e-01        00000 
-4.97431e-02  2.77827e-01        00000 
-4.66409e-02  2.82374e-01        00000 
-4.40683e-02  2.85963e-01        00000 
-4.04774e-02  2.85958e-01        00000 
-3.63216e-02  2.84203e-01        00000 
-3.18481e-02  2.82965e-01        00000 
-2.87236e-02  2.82900e-01        00000 
-2.61798e-02  2.80685e-01        00000 
-2.31235e-02  2.75210e-01        00000 
-1.99236e-02  2.69731e-01        00000 
-1.64769e-02  2.65029e-01        00000 
-1.10549e-02  2.60170e-01        00000 
-4.36065e-03  2.52647e-01        00000 
-3.72070e-03  2.48662e-01        00000 
-5.49274e-02  2.37369e-01        00000 
-5.15020e-02  2.41932e-01        00000 
-5.01582e-02  2.49064e-01        00000 
-4.74721e-02  2.52827e-01        00000 
-4.52822e-02  2.52806e-01        00000 
-4.23535e-02  2.51596e-01        00000 
-3.86556e-02  2.48029e-01        00000 
-3.45486e-02  2.45742e-01        00000 
-3.09450e-02  2.40027e-01        00000 
-2.81735e-02  2.28884e-01        00000 
-2.56494e-02  2.18285e-01        00000 
-2.22140e-02  2.06835e-01        00000 
-1.65018e-02  1.93355e-01        00000 
-1.11673e-02  1.83875e-01        00000 
-3.74823e-03  1.75283e-01        00000 
-5.53861e-03  1.64115e-01        00000 
-5.22427e-02  2.11813e-01        00000 
-5.02697e-02  2.16796e-01        00000 
-5.04968e-02  2.25614e-01        00000 
-4.99085e-02  2.26136e-01        00000 
-4.82352e-02  2.21984e-01        00000 
-4.52289e-02  2.16648e-01        00000 
-4.22219e-02  2.08175e-01        00000 
-3.82107e-02  1.99027e-01        00000 
-3.43920e-02  1.88307e-01        00000 
-3.07872e-02  1.75338e-01        00000 
-2.68599e-02  1.60998e-01        00000 
-2.16939e-02  1.45028e-01        00000 
-1.68400e-02  1.28659e-01        00000 
-1.21376e-02  1.15640e-01        00000 
-5.19017e-03  9.79834e-02        00000 
-5.44302e-03  8.93542e-02        00000 
-5.01704e-02  1.90194e-01        00000 
-4.94135e-02  1.96041e-01        00000 
-5.09427e-02  2.02477e-01        00000 
-5.15994e-02  2.00704e-01        00000 
-5.10103e-02  1.94087e-01        00000 
-4.87246e-02  1.84473e-01        00000 
-4.47811e-02  1.73030e-01        00000 
-4.05260e-02  1.57871e-01        00000 
-3.51353e-02  1.40205e-01        00000 
-3.09545e-02  1.25290e-01        00000 
-2.56587e-02  1.12111e-01        00000 
-1.77859e-02  9.00855e-02        00000 
-9.12721e-03  7.10642e-02        00000 
-5.46544e-03  4.64560e-02        00000 
-4.37473e-03  2.23411e-02        00000 
-3.37984e-03 -4.17491e-03        00000 
-4.86391e-02  1.69422e-01        00000 
-4.92130e-02  1.73813e-01        00000 
-5.05643e-02  1.79652e-01        00000 
-5.25251e-02  1.79602e-01        00000 
-5.33360e-02  1.74281e-01        00000 
-5.29185e-02  1.66672e-01        00000 
-5.13045e-02  1.56528e-01        00000 
-4.88124e-02  1.44904e-01        00000 
-4.48008e-02  1.28283e-01        00000 
-3.86887e-02  1.10068e-01        00000 
-3.30750e-02  9.48037e-02        00000 
-2.74377e-02  7.68389e-02        00000 
-1.83013e-02  6.07128e-02        00000 
-9.22355e-03  4.18285e-02        00000 
-3.85559e-03  1.99670e-02        00000 
-2.15292e-03 -1.54724e-04        00000 
-4.63514e-02  1.44934e-01        00000 
-4.87757e-02  1.49449e-01        00000 
-5.04966e-02  1.54199e-01        00000 
-5.26631e-02  1.54070e-01        00000 
-5.46331e-02  1.51063e-01        00000 
-5.47056e-02  1.44412e-01        00000 
-5.39726e-02  1.35454e-01        00000 
-5.17217e-02  1.23031e-01        00000 
-4.85993e-02  1.10926e-01        00000 
-4.41841e-02  9.66471e-02        00000 
-3.83780e-02  8.08104e-02        00000 
-3.09996e-02  6.27271e-02        00000 
-2.41106e-02  4.92657e-02        00000 
-1.54092e-02  3.35627e-02        00000 
-5.84334e-03  1.49411e-02        00000 
 2.27150e-04 -3.45718e-03        00000 
-4.37394e-02  1.19812e-01        00000 
-4.77573e-02  1.23067e-01        00000 
-5.12219e-02  1.27167e-01        00000 
-5.35266e-02  1.27262e-01        00000 
-5.58523e-02  1.25804e-01        00000 
-5.63472e-02  1.22015e-01        00000 
-5.49001e-02  1.13650e-01        00000 
-5.28757e-02  1.04414e-01        00000 
-5.01822e-02  9.35091e-02        00000 
-4.64627e-02  8.03639e-02        00000 
-4.17560e-02  6.80898e-02        00000 
-3.60243e-02  5.86792e-02        00000 
-2.72497e-02  4.41936e-02        00000 
-1.78164e-02  3.02958e-02        00000 
-9.33146e-03  1.47686e-02        00000 
 4.56689e-04 -4.32298e-03        00000 
-4.04294e-02  9.56136e-02        00000 
-4.44733e-02  9.71811e-02        00000 
-4.93675e-02  1.00957e-01        00000 
-5.35168e-02  1.03924e-01        00000 
-5.56512e-02  1.00654e-01        00000 
-5.68560e-02  9.71001e-02        00000 
-5.62069e-02  9.25016e-02        00000 
-5.41509e-02  8.59723e-02        00000 
-5.09459e-02  7.77793e-02        00000 
-4.71232e-02  6.69364e-02        00000 
-4.33060e-02  5.76950e-02        00000 
-3.72109e-02  4.90202e-02        00000 
-3.00908e-02  3.89607e-02        00000 
-2.08100e-02  2.58412e-02        00000 
-1.09289e-02  1.29055e-02        00000 
 4.79781e-04 -1.75622e-03        00000 
-3.66687e-02  7.77416e-02        00000 
-4.10391e-02  7.54900e-02        00000 
-4.57638e-02  7.59157e-02        00000 
-5.02332e-02  7.74223e-02        00000 
-5.33103e-02  7.51147e-02        00000 
-5.39432e-02  7.17822e-02        00000 
-5.34286e-02  6.79063e-02        00000 
-5.19761e-02  6.36580e-02        00000 
-4.91337e-02  5.82785e-02        00000 
-4.52429e-02  5.21494e-02        00000 
-4.04726e-02  4.39111e-02        00000 
-3.48819e-02  3.57459e-02        00000 
-2.84350e-02  2.80218e-02        00000 
-1.82704e-02  1.83734e-02        00000 
-8.49710e-03  9.09713e-03        00000 
-1.21971e-05 -1.24619e-03        00000 
-3.17349e-02  6.45852e-02        00000 
-3.56296e-02  6.14136e-02        00000 
-4.04382e-02  6.09849e-02        00000 
-4.50539e-02  6.21728e-02        00000 
-4.73554e-02  5.92046e-02        00000 
-4.82029e-02  5.50848e-02        00000 
-4.83642e-02  5.32422e-02        00000 
-4.68035e-02  4.91009e-02        00000 
-4.35305e-02  4.32840e-02        00000 
-3.95924e-02  3.71112e-02        00000 
-3.56114e-02  3.28962e-02        00000 
-3.11470e-02  2.87036e-02        00000 
-2.44215e-02  2.25091e-02        00000 
-1.47191e-02  1.12832e-02        00000 
-5.83260e-03  3.35593e-03        00000 
 1.33352e-03 -4.79568e-03        00000 
-2.81568e-02  5.37403e-02        00000 