<?xml version="1.0" encoding="utf-8"?>
<VTKFile byte_order="LittleEndian" type="UnstructuredGrid" version="0.1">
   <UnstructuredGrid>
      <Piece NumberOfCells="31250" NumberOfPoints="34476">
         <Points>
            <DataArray Name="Points" NumberOfComponents="3" format="ascii" type="Float32">
0.0000 0.0000 0.0000
0.0000 0.0400 0.0000
0.0000 0.0800 0.0000
0.0000 0.1200 0.0000
0.0000 0.1600 0.0000
0.0000 0.2000 0.0000
0.0000 0.2400 0.0000
0.0000 0.2800 0.0000
0.0000 0.3200 0.0000
0.0000 0.3600 0.0000
0.0000 0.4000 0.0000
0.0000 0.4400 0.0000
0.0000 0.4800 0.0000
0.0000 0.5200 0.0000
0.0000 0.5600 0.0000
0.0000 0.6000 0.0000
0.0000 0.6400 0.0000
0.0000 0.6800 0.0000
0.0000 0.7200 0.0000
0.0000 0.7600 0.0000
0.0000 0.8000 0.0000
0.0000 0.8400 0.0000
0.0000 0.8800 0.0000
0.0000 0.9200 0.0000
0.0000 0.9600 0.0000
0.0000 1.0000 0.0000
0.0400 0.0000 0.0000
0.0400 0.0400 0.0000
0.0400 0.0800 0.0000
0.0400 0.1200 0.0000
0.0400 0.1600 0.0000
0.0400 0.2000 0.0000
0.0400 0.2400 0.0000
0.0400 0.2800 0.0000
0.0400 0.3200 0.0000
0.0400 0.3600 0.0000
0.0400 0.4000 0.0000
0.0400 0.4400 0.0000
0.0400 0.4800 0.0000
0.0400 0.5200 0.0000
0.0400 0.5600 0.0000
0.0400 0.6000 0.0000
0.0400 0.6400 0.0000
0.0400 0.6800 0.0000
0.0400 0.7200 0.0000
0.0400 0.7600 0.0000
0.0400 0.8000 0.0000
0.0400 0.8400 0.0000
0.0400 0.8800 0.0000
0.0400 0.9200 0.0000
0.0400 0.9600 0.0000
0.0400 1.0000 0.0000
0.0800 0.0000 0.0000
0.0800 0.0400 0.0000
0.0800 0.0800 0.0000
0.0800 0.1200 0.0000
0.0800 0.1600 0.0000
0.0800 0.2000 0.0000
0.0800 0.2400 0.0000
0.0800 0.2800 0.0000
0.0800 0.3200 0.0000
0.0800 0.3600 0.0000
0.0800 0.4000 0.0000
0.0800 0.4400 0.0000
0.0800 0.4800 0.0000
0.0800 0.5200 0.0000
0.0800 0.5600 0.0000
0.0800 0.6000 0.0000
0.0800 0.6400 0.0000
0.0800 0.6800 0.0000
0.0800 0.7200 0.0000
0.0800 0.7600 0.0000
0.0800 0.8000 0.0000
0.0800 0.8400 0.0000
0.0800 0.8800 0.0000
0.0800 0.9200 0.0000
0.0800 0.9600 0.0000
0.0800 1.0000 0.0000
0.1200 0.0000 0.0000
0.1200 0.0400 0.0000
0.1200 0.0800 0.0000
0.1200 0.1200 0.0000
0.1200 0.1600 0.0000
0.1200 0.2000 0.0000
0.1200 0.2400 0.0000
0.1200 0.2800 0.0000
0.1200 0.3200 0.0000
0.1200 0.3600 0.0000
0.1200 0.4000 0.0000
0.1200 0.4400 0.0000
0.1200 0.4800 0.0000
0.1200 0.5200 0.0000
0.1200 0.5600 0.0000
0.1200 0.6000 0.0000
0.1200 0.6400 0.0000
0.1200 0.6800 0.0000
0.1200 0.7200 0.0000
0.1200 0.7600 0.0000
0.1200 0.8000 0.0000
0.1200 0.8400 0.0000
0.1200 0.8800 0.0000
0.1200 0.9200 0.0000
0.1200 0.9600 0.0000
0.1200 1.0000 0.0000
0.1600 0.0000 0.0000
0.1600 0.0400 0.0000
0.1600 0.0800 0.0000
0.1600 0.1200 0.0000
0.1600 0.1600 0.0000
0.1600 0.2000 0.0000
0.1600 0.2400 0.0000
0.1600 0.2800 0.0000
0.1600 0.3200 0.0000
0.1600 0.3600 0.0000
0.1600 0.4000 0.0000
0.1600 0.4400 0.0000
0.1600 0.4800 0.0000
0.1600 0.5200 0.0000
0.1600 0.5600 0.0000
0.1600 0.6000 0.0000
0.1600 0.6400 0.0000
0.1600 0.6800 0.0000
0.1600 0.7200 0.0000
0.1600 0.7600 0.0000
0.1600 0.8000 0.0000
0.1600 0.8400 0.0000
0.1600 0.8800 0.0000
0.1600 0.9200 0.0000
0.1600 0.9600 0.0000
0.1600 1.0000 0.0000
0.2000 0.0000 0.0000
0.2000 0.0400 0.0000
0.2000 0.0800 0.0000
0.2000 0.1200 0.0000
0.2000 0.1600 0.0000
0.2000 0.2000 0.0000
0.2000 0.2400 0.0000
0.2000 0.2800 0.0000
0.2000 0.3200 0.0000
0.2000 0.3600 0.0000
0.2000 0.4000 0.0000
0.2000 0.4400 0.0000
0.2000 0.4800 0.0000
0.2000 0.5200 0.0000
0.2000 0.5600 0.0000
0.2000 0.6000 0.0000
0.2000 0.6400 0.0000
0.2000 0.6800 0.0000
0.2000 0.7200 0.0000
0.2000 0.7600 0.0000
0.2000 0.8000 0.0000
0.2000 0.8400 0.0000
0.2000 0.8800 0.0000
0.2000 0.9200 0.0000
0.2000 0.9600 0.0000
0.2000 1.0000 0.0000
0.2400 0.0000 0.0000
0.2400 0.0400 0.0000
0.2400 0.0800 0.0000
0.2400 0.1200 0.0000
0.2400 0.1600 0.0000
0.2400 0.2000 0.0000
0.2400 0.2400 0.0000
0.2400 0.2800 0.0000
0.2400 0.3200 0.0000
0.2400 0.3600 0.0000
0.2400 0.4000 0.0000
0.2400 0.4400 0.0000
0.2400 0.4800 0.0000
0.2400 0.5200 0.0000
0.2400 0.5600 0.0000
0.2400 0.6000 0.0000
0.2400 0.6400 0.0000
0.2400 0.6800 0.0000
0.2400 0.7200 0.0000
0.2400 0.7600 0.0000
0.2400 0.8000 0.0000
0.2400 0.8400 0.0000
0.2400 0.8800 0.0000
0.2400 0.9200 0.0000
0.2400 0.9600 0.0000
0.2400 1.0000 0.0000
0.2800 0.0000 0.0000
0.2800 0.0400 0.0000
0.2800 0.0800 0.0000
0.2800 0.1200 0.0000
0.2800 0.1600 0.0000
0.2800 0.2000 0.0000
0.2800 0.2400 0.0000
0.2800 0.2800 0.0000
0.2800 0.3200 0.0000
0.2800 0.3600 0.0000
0.2800 0.4000 0.0000
0.2800 0.4400 0.0000
0.2800 0.4800 0.0000
0.2800 0.5200 0.0000
0.2800 0.5600 0.0000
0.2800 0.6000 0.0000
0.2800 0.6400 0.0000
0.2800 0.6800 0.0000
0.2800 0.7200 0.0000
0.2800 0.7600 0.0000
0.2800 0.8000 0.0000
0.2800 0.8400 0.0000
0.2800 0.8800 0.0000
0.2800 0.9200 0.0000
0.2800 0.9600 0.0000
0.2800 1.0000 0.0000
0.3200 0.0000 0.0000
0.3200 0.0400 0.0000
0.3200 0.0800 0.0000
0.3200 0.1200 0.0000
0.3200 0.1600 0.0000
0.3200 0.2000 0.0000
0.3200 0.2400 0.0000
0.3200 0.2800 0.0000
0.3200 0.3200 0.0000
0.3200 0.3600 0.0000
0.3200 0.4000 0.0000
0.3200 0.4400 0.0000
0.3200 0.4800 0.0000
0.3200 0.5200 0.0000
0.3200 0.5600 0.0000
0.3200 0.6000 0.0000
0.3200 0.6400 0.0000
0.3200 0.6800 0.0000
0.3200 0.7200 0.0000
0.3200 0.7600 0.0000
0.3200 0.8000 0.0000
0.3200 0.8400 0.0000
0.3200 0.8800 0.0000
0.3200 0.9200 0.0000
0.3200 0.9600 0.0000
0.3200 1.0000 0.0000
0.3600 0.0000 0.0000
0.3600 0.0400 0.0000
0.3600 0.0800 0.0000
0.3600 0.1200 0.0000
0.3600 0.1600 0.0000
0.3600 0.2000 0.0000
0.3600 0.2400 0.0000
0.3600 0.2800 0.0000
0.3600 0.3200 0.0000
0.3600 0.3600 0.0000
0.3600 0.4000 0.0000
0.3600 0.4400 0.0000
0.3600 0.4800 0.0000
0.3600 0.5200 0.0000
0.3600 0.5600 0.0000
0.3600 0.6000 0.0000
0.3600 0.6400 0.0000
0.3600 0.6800 0.0000
0.3600 0.7200 0.0000
0.3600 0.7600 0.0000
0.3600 0.8000 0.0000
0.3600 0.8400 0.0000
0.3600 0.8800 0.0000
0.3600 0.9200 0.0000
0.3600 0.9600 0.0000
0.3600 1.0000 0.0000
0.4000 0.0000 0.0000
0.4000 0.0400 0.0000
0.4000 0.0800 0.0000
0.4000 0.1200 0.0000
0.4000 0.1600 0.0000
0.4000 0.2000 0.0000
0.4000 0.2400 0.0000
0.4000 0.2800 0.0000
0.4000 0.3200 0.0000
0.4000 0.3600 0.0000
0.4000 0.4000 0.0000
0.4000 0.4400 0.0000
0.4000 0.4800 0.0000
0.4000 0.5200 0.0000
0.4000 0.5600 0.0000
0.4000 0.6000 0.0000
0.4000 0.6400 0.0000
0.4000 0.6800 0.0000
0.4000 0.7200 0.0000
0.4000 0.7600 0.0000
0.4000 0.8000 0.0000
0.4000 0.8400 0.0000
0.4000 0.8800 0.0000
0.4000 0.9200 0.0000
0.4000 0.9600 0.0000
0.4000 1.0000 0.0000
0.4400 0.0000 0.0000
0.4400 0.0400 0.0000
0.4400 0.0800 0.0000
0.4400 0.1200 0.0000
0.4400 0.1600 0.0000
0.4400 0.2000 0.0000
0.4400 0.2400 0.0000
0.4400 0.2800 0.0000
0.4400 0.3200 0.0000
0.4400 0.3600 0.0000
0.4400 0.4000 0.0000
0.4400 0.4400 0.0000
0.4400 0.4800 0.0000
0.4400 0.5200 0.0000
0.4400 0.5600 0.0000
0.4400 0.6000 0.0000
0.4400 0.6400 0.0000
0.4400 0.6800 0.0000
0.4400 0.7200 0.0000
0.4400 0.7600 0.0000
0.4400 0.8000 0.0000
0.4400 0.8400 0.0000
0.4400 0.8800 0.0000
0.4400 0.9200 0.0000
0.4400 0.9600 0.0000
0.4400 1.0000 0.0000
0.4800 0.0000 0.0000
0.4800 0.0400 0.0000
0.4800 0.0800 0.0000
0.4800 0.1200 0.0000
0.4800 0.1600 0.0000
0.4800 0.2000 0.0000
0.4800 0.2400 0.0000
0.4800 0.2800 0.0000
0.4800 0.3200 0.0000
0.4800 0.3600 0.0000
0.4800 0.4000 0.0000
0.4800 0.4400 0.0000
0.4800 0.4800 0.0000
0.4800 0.5200 0.0000
0.4800 0.5600 0.0000
0.4800 0.6000 0.0000
0.4800 0.6400 0.0000
0.4800 0.6800 0.0000
0.4800 0.7200 0.0000
0.4800 0.7600 0.0000
0.4800 0.8000 0.0000
0.4800 0.8400 0.0000
0.4800 0.8800 0.0000
0.4800 0.9200 0.0000
0.4800 0.9600 0.0000
0.4800 1.0000 0.0000
0.5200 0.0000 0.0000
0.5200 0.0400 0.0000
0.5200 0.0800 0.0000
0.5200 0.1200 0.0000
0.5200 0.1600 0.0000
0.5200 0.2000 0.0000
0.5200 0.2400 0.0000
0.5200 0.2800 0.0000
0.5200 0.3200 0.0000
0.5200 0.3600 0.0000
0.5200 0.4000 0.0000
0.5200 0.4400 0.0000
0.5200 0.4800 0.0000
0.5200 0.5200 0.0000
0.5200 0.5600 0.0000
0.5200 0.6000 0.0000
0.5200 0.6400 0.0000
0.5200 0.6800 0.0000
0.5200 0.7200 0.0000
0.5200 0.7600 0.0000
0.5200 0.8000 0.0000
0.5200 0.8400 0.0000
0.5200 0.8800 0.0000
0.5200 0.9200 0.0000
0.5200 0.9600 0.0000
0.5200 1.0000 0.0000
0.5600 0.0000 0.0000
0.5600 0.0400 0.0000
0.5600 0.0800 0.0000
0.5600 0.1200 0.0000
0.5600 0.1600 0.0000
0.5600 0.2000 0.0000
0.5600 0.2400 0.0000
0.5600 0.2800 0.0000
0.5600 0.3200 0.0000
0.5600 0.3600 0.0000
0.5600 0.4000 0.0000
0.5600 0.4400 0.0000
0.5600 0.4800 0.0000
0.5600 0.5200 0.0000
0.5600 0.5600 0.0000
0.5600 0.6000 0.0000
0.5600 0.6400 0.0000
0.5600 0.6800 0.0000
0.5600 0.7200 0.0000
0.5600 0.7600 0.0000
0.5600 0.8000 0.0000
0.5600 0.8400 0.0000
0.5600 0.8800 0.0000
0.5600 0.9200 0.0000
0.5600 0.9600 0.0000
0.5600 1.0000 0.0000
0.6000 0.0000 0.0000
0.6000 0.0400 0.0000
0.6000 0.0800 0.0000
0.6000 0.1200 0.0000
0.6000 0.1600 0.0000
0.6000 0.2000 0.0000
0.6000 0.2400 0.0000
0.6000 0.2800 0.0000
0.6000 0.3200 0.0000
0.6000 0.3600 0.0000
0.6000 0.4000 0.0000
0.6000 0.4400 0.0000
0.6000 0.4800 0.0000
0.6000 0.5200 0.0000
0.6000 0.5600 0.0000
0.6000 0.6000 0.0000
0.6000 0.6400 0.0000
0.6000 0.6800 0.0000
0.6000 0.7200 0.0000
0.6000 0.7600 0.0000
0.6000 0.8000 0.0000
0.6000 0.8400 0.0000
0.6000 0.8800 0.0000
0.6000 0.9200 0.0000
0.6000 0.9600 0.0000
0.6000 1.0000 0.0000
0.6400 0.0000 0.0000
0.6400 0.0400 0.0000
0.6400 0.0800 0.0000
0.6400 0.1200 0.0000
0.6400 0.1600 0.0000
0.6400 0.2000 0.0000
0.6400 0.2400 0.0000
0.6400 0.2800 0.0000
0.6400 0.3200 0.0000
0.6400 0.3600 0.0000
0.6400 0.4000 0.0000
0.6400 0.4400 0.0000
0.6400 0.4800 0.0000
0.6400 0.5200 0.0000
0.6400 0.5600 0.0000
0.6400 0.6000 0.0000
0.6400 0.6400 0.0000
0.6400 0.6800 0.0000
0.6400 0.7200 0.0000
0.6400 0.7600 0.0000
0.6400 0.8000 0.0000
0.6400 0.8400 0.0000
0.6400 0.8800 0.0000
0.6400 0.9200 0.0000
0.6400 0.9600 0.0000
0.6400 1.0000 0.0000
0.6800 0.0000 0.0000
0.6800 0.0400 0.0000
0.6800 0.0800 0.0000
0.6800 0.1200 0.0000
0.6800 0.1600 0.0000
0.6800 0.2000 0.0000
0.6800 0.2400 0.0000
0.6800 0.2800 0.0000
0.6800 0.3200 0.0000
0.6800 0.3600 0.0000
0.6800 0.4000 0.0000
0.6800 0.4400 0.0000
0.6800 0.4800 0.0000
0.6800 0.5200 0.0000
0.6800 0.5600 0.0000
0.6800 0.6000 0.0000
0.6800 0.6400 0.0000
0.6800 0.6800 0.0000
0.6800 0.7200 0.0000
[...]
         <PointData>
            <DataArray Name="fValues" NumberOfComponents="1" format="ascii" type="Float64">
 7.97339e+00 
 1.95353e+00 
 2.81025e+00 
 2.78502e+00 
 3.02581e+00 
 3.22086e+00 
 3.41655e+00 
 3.58722e+00 
 3.73202e+00 
 3.84804e+00 
 3.93496e+00 
 3.99272e+00 
 4.02153e+00 
 4.02153e+00 
 3.99272e+00 
 3.93496e+00 
 3.84804e+00 
 3.73202e+00 
 3.58722e+00 
 3.41655e+00 
 3.22086e+00 
 3.02581e+00 
 2.78502e+00 
 2.81025e+00 
 1.95353e+00 
 7.97339e+00 
-6.14808e+00 
-3.11291e+00 
-3.25092e+00 
-3.01654e+00 
-3.05048e+00 
-3.07401e+00 
-3.12796e+00 
-3.18199e+00 
-3.23422e+00 
-3.27918e+00 
-3.31471e+00 
-3.33913e+00 
-3.35156e+00 
-3.35156e+00 
-3.33913e+00 
-3.31471e+00 
-3.27918e+00 
-3.23422e+00 
-3.18199e+00 
-3.12796e+00 
-3.07401e+00 
-3.05048e+00 
-3.01654e+00 
-3.25092e+00 
-3.11291e+00 
-6.14808e+00 
-2.51550e+00 
-2.86796e+00 
-2.50798e+00 
-2.28247e+00 
-2.14547e+00 
-2.04766e+00 
-1.98509e+00 
-1.94340e+00 
-1.91663e+00 
-1.89966e+00 
-1.88933e+00 
-1.88350e+00 
-1.88089e+00 
-1.88089e+00 
-1.88350e+00 
-1.88933e+00 
-1.89966e+00 
-1.91663e+00 
-1.94340e+00 
-1.98509e+00 
-2.04766e+00 
-2.14547e+00 
-2.28247e+00 
-2.50798e+00 
-2.86796e+00 
-2.51550e+00 
-2.77900e+00 
-2.95271e+00 
-2.86996e+00 
-2.71982e+00 
-2.61811e+00 
-2.53854e+00 
-2.48438e+00 
-2.44782e+00 
-2.42426e+00 
-2.40960e+00 
-2.40091e+00 
-2.39617e+00 
-2.39410e+00 
-2.39410e+00 
-2.39617e+00 
-2.40091e+00 
-2.40960e+00 
-2.42426e+00 
-2.44782e+00 
-2.48438e+00 
-2.53854e+00 
-2.61811e+00 
-2.71982e+00 
-2.86996e+00 
-2.95271e+00 
-2.77900e+00 
-2.34041e+00 
-2.76064e+00 
-2.75417e+00 
-2.67003e+00 
-2.58226e+00 
-2.50528e+00 
-2.44353e+00 
-2.39631e+00 
-2.36147e+00 
-2.33667e+00 
-2.31988e+00 
-2.30955e+00 
-2.30464e+00 
-2.30464e+00 
-2.30955e+00 
-2.31988e+00 
-2.33667e+00 
-2.36147e+00 
-2.39631e+00 
-2.44353e+00 
-2.50528e+00 
-2.58226e+00 
-2.67003e+00 
-2.75417e+00 
-2.76064e+00 
-2.34041e+00 
-2.25421e+00 
-2.61035e+00 
-2.69518e+00 
-2.66602e+00 
-2.61101e+00 
-2.55205e+00 
-2.49877e+00 
-2.45433e+00 
-2.41920e+00 
-2.39274e+00 
-2.37399e+00 
-2.36205e+00 
-2.35626e+00 
-2.35626e+00 
-2.36205e+00 
-2.37399e+00 
-2.39274e+00 
-2.41920e+00 
-2.45433e+00 
-2.49877e+00 
-2.55205e+00 
-2.61101e+00 
-2.66602e+00 
-2.69518e+00 
-2.61035e+00 
-2.25421e+00 
-2.15550e+00 
-2.47362e+00 
-2.59333e+00 
-2.60719e+00 
-2.58088e+00 
-2.54072e+00 
-2.49845e+00 
-2.45976e+00 
-2.42705e+00 
-2.40114e+00 
-2.38206e+00 
-2.36957e+00 
-2.36341e+00 
-2.36341e+00 
-2.36957e+00 
-2.38206e+00 
-2.40114e+00 
-2.42705e+00 
-2.45976e+00 
-2.49845e+00 
-2.54072e+00 
-2.58088e+00 
-2.60719e+00 
-2.59333e+00 
-2.47362e+00 
-2.15550e+00 
-2.10133e+00 
-2.36484e+00 
-2.49612e+00 
-2.53822e+00 
-2.53673e+00 
-2.51531e+00 
-2.48629e+00 
-2.45639e+00 
-2.42922e+00 
-2.40659e+00 
-2.38932e+00 
-2.37775e+00 
-2.37196e+00 
-2.37196e+00 
-2.37775e+00 
-2.38932e+00 
-2.40659e+00 
-2.42922e+00 
-2.45639e+00 
-2.48629e+00 
-2.51531e+00 
-2.53673e+00 
-2.53822e+00 
-2.49612e+00 
-2.36484e+00 
-2.10133e+00 
-2.05460e+00 
-2.27264e+00 
-2.39951e+00 
-2.45702e+00 
-2.47365e+00 
-2.46813e+00 
-2.45175e+00 
-2.43129e+00 
-2.41084e+00 
-2.39277e+00 
-2.37845e+00 
-2.36861e+00 
-2.36361e+00 
-2.36361e+00 
-2.36861e+00 
-2.37845e+00 
-2.39277e+00 
-2.41084e+00 
-2.43129e+00 
-2.45175e+00 
-2.46813e+00 
-2.47365e+00 
-2.45702e+00 
-2.39951e+00 
-2.27264e+00 
-2.05460e+00 
-2.01286e+00 
-2.19104e+00 
-2.30670e+00 
-2.37016e+00 
-2.39858e+00 
-2.40539e+00 
-2.39995e+00 
-2.38844e+00 
-2.37488e+00 
-2.36188e+00 
-2.35106e+00 
-2.34340e+00 
-2.33945e+00 
-2.33945e+00 
-2.34340e+00 
-2.35106e+00 
-2.36188e+00 
-2.37488e+00 
-2.38844e+00 
-2.39995e+00 
-2.40539e+00 
-2.39858e+00 
-2.37016e+00 
-2.30670e+00 
-2.19104e+00 
-2.01286e+00 
-1.96967e+00 
-2.11460e+00 
-2.21627e+00 
-2.27955e+00 
-2.31440e+00 
-2.32980e+00 
-2.33297e+00 
-2.32910e+00 
-2.32184e+00 
-2.31373e+00 
-2.30643e+00 
-2.30104e+00 
-2.29820e+00 
-2.29820e+00 
-2.30104e+00 
-2.30643e+00 
-2.31373e+00 
-2.32184e+00 
-2.32910e+00 
-2.33297e+00 
-2.32980e+00 
-2.31440e+00 
-2.27955e+00 
-2.21627e+00 
-2.11460e+00 
-1.96967e+00 
-1.92292e+00 
-2.04010e+00 
-2.12740e+00 
-2.18690e+00 
-2.22416e+00 
-2.24486e+00 
-2.25423e+00 
-2.25638e+00 
-2.25440e+00 
-2.25057e+00 
-2.24648e+00 
-2.24322e+00 
-2.24143e+00 
-2.24143e+00 
-2.24322e+00 
-2.24648e+00 
-2.25057e+00 
-2.25440e+00 
-2.25638e+00 
-2.25423e+00 
-2.24486e+00 
-2.22416e+00 
-2.18690e+00 
-2.12740e+00 
-2.04010e+00 
-1.92292e+00 
-1.87136e+00 
-1.96557e+00 
-2.03924e+00 
-2.09310e+00 
-2.13000e+00 
-2.15335e+00 
-2.16674e+00 
-2.17324e+00 
-2.17535e+00 
-2.17500e+00 
-2.17361e+00 
-2.17217e+00 
-2.17130e+00 
-2.17130e+00 
-2.17217e+00 
-2.17361e+00 
-2.17500e+00 
-2.17535e+00 
-2.17324e+00 
-2.16674e+00 
-2.15335e+00 
-2.13000e+00 
-2.09310e+00 
-2.03924e+00 
-1.96557e+00 
-1.87136e+00 
-1.81476e+00 
-1.89004e+00 
-1.95136e+00 
-1.99880e+00 
-2.03360e+00 
-2.05761e+00 
-2.07320e+00 
-2.08256e+00 
-2.08759e+00 
-2.08987e+00 
-2.09059e+00 
-2.09061e+00 
-2.09049e+00 
-2.09049e+00 
-2.09061e+00 
-2.09059e+00 
-2.08987e+00 
-2.08759e+00 
-2.08256e+00 
-2.07320e+00 
-2.05761e+00 
-2.03360e+00 
-1.99880e+00 
-1.95136e+00 
-1.89004e+00 
-1.81476e+00 
-1.75340e+00 
-1.81313e+00 
-1.86356e+00 
-1.90449e+00 
-1.93617e+00 
-1.95948e+00 
-1.97587e+00 
-1.98682e+00 
-1.99375e+00 
-1.99785e+00 
-2.00010e+00 
-2.00120e+00 
-2.00164e+00 
-2.00164e+00 
-2.00120e+00 
-2.00010e+00 
-1.99785e+00 
-1.99375e+00 
-1.98682e+00 
-1.97587e+00 
-1.95948e+00 
-1.93617e+00 
-1.90449e+00 
-1.86356e+00 
-1.81313e+00 
-1.75340e+00 
-1.68782e+00 
-1.73485e+00 
-1.77584e+00 
-1.81055e+00 
-1.83864e+00 
-1.86038e+00 
-1.87655e+00 
-1.88812e+00 
-1.89607e+00 
-1.90130e+00 
-1.90456e+00 
-1.90641e+00 
-1.90724e+00 
-1.90724e+00 
-1.90641e+00 
-1.90456e+00 
-1.90130e+00 
-1.89607e+00 
-1.88812e+00 
-1.87655e+00 
-1.86038e+00 
-1.83864e+00 
-1.81055e+00 
-1.77584e+00 
-1.73485e+00 
-1.68782e+00 
-1.61873e+00 
-1.65541e+00 
-1.68834e+00 
-1.71735e+00 
-1.74173e+00 
-1.76138e+00 
-1.77665e+00 
-1.78812e+00 
-1.79643e+00 
-1.80223e+00 
-1.80607e+00 
-1.80837e+00 
-1.80945e+00 
-1.80945e+00 
-1.80837e+00 
-1.80607e+00 
-1.80223e+00 
-1.79643e+00 
-1.78812e+00 
-1.77665e+00 
-1.76138e+00 
-1.74173e+00 
-1.71735e+00 
-1.68834e+00 
-1.65541e+00 
-1.61873e+00 
-1.54686e+00 
-1.57517e+00 
-1.60129e+00 
-1.62518e+00 
-1.64596e+00 
-1.66329e+00 
-1.67725e+00 
-1.68812e+00 
-1.69632e+00 
-1.70225e+00 
-1.70633e+00 
-1.70886e+00 
-1.71007e+00 
-1.71007e+00 
-1.70886e+00 
-1.70633e+00 
-1.70225e+00 
-1.69632e+00 
-1.68812e+00 
-1.67725e+00 
-1.66329e+00 
-1.64596e+00 
-1.62518e+00 
-1.60129e+00 
-1.57517e+00 
-1.54686e+00 
-1.47296e+00 
-1.49450e+00 
-1.51493e+00 
-1.53433e+00 
-1.55174e+00 
-1.56671e+00 
-1.57915e+00 
-1.58913e+00 
-1.59687e+00 
-1.60265e+00 
-1.60672e+00 
-1.60930e+00 
-1.61055e+00 
-1.61055e+00 
-1.60930e+00 
-1.60672e+00 
-1.60265e+00 
-1.59687e+00 
-1.58913e+00 
-1.57915e+00 
-1.56671e+00 
-1.55174e+00 
-1.53433e+00 
-1.51493e+00 
-1.49450e+00 
-1.47296e+00 
-1.39771e+00 
-1.41380e+00 
-1.42951e+00 
-1.44502e+00 
-1.45939e+00 
-1.47210e+00 
-1.48293e+00 
-1.49186e+00 
-1.49897e+00 
-1.50439e+00 
-1.50829e+00 
-1.51080e+00 
-1.51202e+00 
-1.51202e+00 
-1.51080e+00 
-1.50829e+00 
-1.50439e+00 
-1.49897e+00 
-1.49186e+00 
-1.48293e+00 
-1.47210e+00 
-1.45939e+00 
-1.44502e+00 
-1.42951e+00 
-1.41380e+00 
-1.39771e+00 
-1.32173e+00 
-1.33347e+00 
-1.34528e+00 
-1.35748e+00 
-1.36915e+00 
-1.37976e+00 
-1.38905e+00 
-1.39688e+00 
-1.40325e+00 
-1.40821e+00 
-1.41184e+00 
-1.41420e+00 
-1.41537e+00 
-1.41537e+00 
-1.41420e+00 
-1.41184e+00 
-1.40821e+00 
-1.40325e+00 
-1.39688e+00 
-1.38905e+00 
-1.37976e+00 
-1.36915e+00 
-1.35748e+00 
-1.34528e+00 
-1.33347e+00 
-1.32173e+00 
-1.24560e+00 
-1.25385e+00 
-1.26248e+00 
-1.27188e+00 
-1.28121e+00 
-1.28994e+00 
-1.29778e+00 
-1.30455e+00 
-1.31018e+00 
-1.31464e+00 
-1.31795e+00 
-1.32014e+00 
-1.32123e+00 
-1.32123e+00 
-1.32014e+00 
-1.31795e+00 
-1.31464e+00 
-1.31018e+00 
-1.30455e+00 
-1.29778e+00 
-1.28994e+00 
-1.28121e+00 
-1.27188e+00 
-1.26248e+00 
-1.25385e+00 
-1.24560e+00 
-1.16980e+00 
-1.17527e+00 
-1.18130e+00 
-1.18837e+00 
-1.19570e+00 
-1.20280e+00 
-1.20935e+00 
-1.21515e+00 
-1.22008e+00 
-1.22406e+00 
-1.22706e+00 
-1.22906e+00 
-1.23006e+00 
-1.23006e+00 
-1.22906e+00 
-1.22706e+00 
-1.22406e+00 
-1.22008e+00 
-1.21515e+00 
-1.20935e+00 
-1.20280e+00 
-1.19570e+00 
-1.18837e+00 
-1.18130e+00 
-1.17527e+00 
-1.16980e+00 
-1.09476e+00 
-1.09799e+00 
-1.10193e+00 
-1.10708e+00 
-1.11274e+00 
-1.11845e+00 
-1.12390e+00 
-1.12885e+00 
-1.13316e+00 
-1.13672e+00 
-1.13944e+00 
-1.14127e+00 
-1.14220e+00 
-1.14220e+00 
-1.14127e+00 
-1.13944e+00 
-1.13672e+00 
-1.13316e+00 
-1.12885e+00 
-1.12390e+00 
-1.11845e+00 
-1.11274e+00 
-1.10708e+00 
-1.10193e+00 
-1.09799e+00 
-1.09476e+00 
-1.02083e+00 
-1.02226e+00 
-1.02452e+00 
-1.02811e+00 
-1.03240e+00 
-1.03696e+00 
-1.04151e+00 
-1.04578e+00 
-1.04959e+00 
-1.05280e+00 
-1.05529e+00 
-1.05700e+00 
-1.05787e+00 
-1.05787e+00 
-1.05700e+00 
-1.05529e+00 
-1.05280e+00 
-1.04959e+00 
-1.04578e+00 
-1.04151e+00 
-1.03696e+00 
-1.03240e+00 
-1.02811e+00 
-1.02452e+00 
-1.02226e+00 
-1.02083e+00 
-9.48302e-01 
-9.48277e-01 
-9.49188e-01 
-9.51525e-01 
-9.54727e-01 
-9.58399e-01 
-9.62237e-01 
-9.65985e-01 
-9.69431e-01 
-9.72400e-01 
-9.74752e-01 
-9.76380e-01 
-9.77213e-01 
-9.77213e-01 
-9.76380e-01 
-9.74752e-01 
-9.72400e-01 
-9.69431e-01 
-9.65985e-01 
-9.62237e-01 
-9.58399e-01 
-9.54727e-01 
-9.51525e-01 
-9.49188e-01 
-9.48277e-01 
-9.48302e-01 
-8.77429e-01 
-8.76203e-01 
-8.76047e-01 
-8.77402e-01 
-8.79770e-01 
-8.82776e-01 
-8.86118e-01 
-8.89521e-01 
-8.92750e-01 
-8.95598e-01 
-8.97892e-01 
-8.99499e-01 
-9.00326e-01 
-9.00326e-01 
-8.99499e-01 
-8.97892e-01 
-8.95598e-01 
-8.92750e-01 
-8.89521e-01 
-8.86118e-01 
-8.82776e-01 
-8.79770e-01 
-8.77402e-01 
-8.76047e-01 
-8.76203e-01 
-8.77429e-01 
-8.08400e-01 
-8.06168e-01 
-8.05171e-01 
-8.05781e-01 
-8.07549e-01 
-8.10110e-01 
-8.13158e-01 
-8.16399e-01 
-8.19567e-01 
-8.22421e-01 
-8.24756e-01 
-8.26407e-01 
-8.27262e-01 
-8.27262e-01 
-8.26407e-01 
-8.24756e-01 
-8.22421e-01 
-8.19567e-01 
-8.16399e-01 
-8.13158e-01 
-8.10110e-01 
-8.07549e-01 
-8.05781e-01 
-8.05171e-01 
-8.06168e-01 
-8.08400e-01 
-7.41362e-01 
-7.38272e-01 
-7.36621e-01 
-7.36694e-01 
-7.38076e-01 
-7.40405e-01 
-7.43360e-01 
-7.46621e-01 
-7.49889e-01 
-7.52883e-01 
-7.55361e-01 
-7.57128e-01 
-7.58046e-01 
-7.58046e-01 
-7.57128e-01 
-7.55361e-01 
-7.52883e-01 
-7.49889e-01 
-7.46621e-01 
-7.43360e-01 
-7.40405e-01 
-7.38076e-01 
-7.36694e-01 
-7.36621e-01 
-7.38272e-01 
-7.41362e-01 
-6.76431e-01 
-6.72592e-01 
-6.70444e-01 
-6.70166e-01 
-6.71360e-01 
-6.73658e-01 
-6.76715e-01 
-6.80180e-01 
-6.83710e-01 
-6.86982e-01 
-6.89711e-01 
-6.91666e-01 
-6.92686e-01 
-6.92686e-01 
-6.91666e-01 
-6.89711e-01 
-6.86982e-01 
-6.83710e-01 
-6.80180e-01 
-6.76715e-01 
-6.73658e-01 
-6.71360e-01 
-6.70166e-01 
-6.70444e-01 
-6.72592e-01 
-6.76431e-01 
-6.13688e-01 
-6.09186e-01 
-6.06675e-01 
-6.06212e-01 
-6.07405e-01 
-6.09864e-01 
-6.13214e-01 
-6.17062e-01 
-6.21017e-01 
-6.24706e-01 
-6.27795e-01 
-6.30015e-01 
-6.31174e-01 
-6.31174e-01 
-6.30015e-01 
-6.27795e-01 
-6.24706e-01 
-6.21017e-01 
-6.17062e-01 
-6.13214e-01 
-6.09864e-01 
-6.07405e-01 
-6.06212e-01 
-6.06675e-01 
-6.09186e-01 
-6.13688e-01 
-5.53195e-01 
-5.48100e-01 
-5.45343e-01 
-5.44851e-01 
-5.46218e-01 
-5.49021e-01 
-5.52847e-01 
-5.57254e-01 
-5.61795e-01 
-5.66038e-01 
-5.69596e-01 
-5.72155e-01 
-5.73492e-01 
-5.73492e-01 
-5.72155e-01 
-5.69596e-01 
-5.66038e-01 
-5.61795e-01 
-5.57254e-01 
-5.52847e-01 
-5.49021e-01 
-5.46218e-01 
-5.44851e-01 
-5.45343e-01 
-5.48100e-01 
-5.53195e-01 
-4.94998e-01 
-4.89374e-01 
-4.86482e-01 
-4.86108e-01 
-4.87812e-01 
-4.91134e-01 
-4.95610e-01 
-5.00743e-01 
-5.06023e-01 
-5.10953e-01 
-5.15086e-01 
-5.18057e-01 
-5.19609e-01 
-5.19609e-01 
-5.18057e-01 
-5.15086e-01 
-5.10953e-01 
-5.06023e-01 
-5.00743e-01 
-4.95610e-01 
-4.91134e-01 
-4.87812e-01 
-4.86108e-01 
-4.86482e-01 
-4.89374e-01 
-4.94998e-01 
-4.39140e-01 
-4.33055e-01 
-4.30136e-01 
-4.30020e-01 
-4.32216e-01 
-4.36217e-01 
-4.41505e-01 
-4.47520e-01 
-4.53683e-01 
-4.59424e-01 
-4.64230e-01 
-4.67681e-01 
-4.69483e-01 
-4.69483e-01 
-4.67681e-01 
-4.64230e-01 
-4.59424e-01 
-4.53683e-01 
-4.47520e-01 
-4.41505e-01 
-4.36217e-01 
-4.32216e-01 
-4.30020e-01 
-4.30136e-01 
-4.33055e-01 
-4.39140e-01 
-3.85669e-01 
-3.79202e-01 
-3.76369e-01 
-3.76648e-01 
-3.79479e-01 
-3.84304e-01 
-3.90547e-01 
-3.97582e-01 
-4.04756e-01 
-4.11419e-01 
-4.16986e-01 
-4.20979e-01 
-4.23062e-01 
-4.23062e-01 
-4.20979e-01 
-4.16986e-01 
-4.11419e-01 
-4.04756e-01 
-3.97582e-01 
-3.90547e-01 
-3.84304e-01 
-3.79479e-01 
-3.76648e-01 
-3.76369e-01 
-3.79202e-01 
-3.85669e-01 
-3.34650e-01 
-3.27905e-01 
-3.25278e-01 
-3.26083e-01 
-3.29678e-01 
-3.35451e-01 
-3.42767e-01 
-3.50936e-01 
-3.59228e-01 
-3.66906e-01 
-3.73308e-01 
-3.77893e-01 
-3.80283e-01 
-3.80283e-01 
-3.77893e-01 
-3.73308e-01 
-3.66906e-01 
-3.59228e-01 
-3.50936e-01 
-3.42767e-01 
-3.35451e-01 
-3.29678e-01 
-3.26083e-01 
-3.25278e-01 
-3.27905e-01 
-3.34650e-01 
-2.86181e-01 
-2.79294e-01 
-2.77006e-01 
-2.78465e-01 
-2.82932e-01 
-2.89746e-01 
-2.98222e-01 
-3.07606e-01 
-3.17092e-01 
-3.25853e-01 
-3.33143e-01 
-3.38357e-01 
-3.41073e-01 
-3.41073e-01 
-3.38357e-01 
-3.33143e-01 
-3.25853e-01 
-3.17092e-01 
-3.07606e-01 
-2.98222e-01 
-2.89746e-01 
-2.82932e-01 
-2.78465e-01 
-2.77006e-01 
-2.79294e-01 
-2.86181e-01 
-2.40407e-01 
-2.33554e-01 
-2.31754e-01 
-2.33982e-01 
-2.39400e-01 
-2.47313e-01 
-2.56992e-01 
-2.67633e-01 
-2.78354e-01 
-2.88234e-01 
-2.96441e-01 
-3.02305e-01 
-3.05357e-01 
-3.05357e-01 
-3.02305e-01 
-2.96441e-01 
-2.88234e-01 
-2.78354e-01 
-2.67633e-01 
-2.56992e-01 
-2.47313e-01 
-2.39400e-01 
-2.33982e-01 
-2.31754e-01 
-2.33554e-01 
-2.40407e-01 
-1.97528e-01 
-1.90941e-01 
-1.89788e-01 
-1.92881e-01 
-1.99293e-01 
-2.08313e-01 
-2.19189e-01 
-2.31082e-01 
-2.43035e-01 
-2.54035e-01 
-2.63161e-01 
-2.69676e-01 
-2.73065e-01 
-2.73065e-01 
-2.69676e-01 
-2.63161e-01 
-2.54035e-01 
-2.43035e-01 
-2.31082e-01 
-2.19189e-01 
-2.08313e-01 
-1.99293e-01 
-1.92881e-01 
-1.89788e-01 
-1.90941e-01 
-1.97528e-01 
-1.57820e-01 
-1.51781e-01 
-1.51442e-01 
-1.55465e-01 
-1.62863e-01 
-1.72943e-01 
-1.84956e-01 
-1.98041e-01 
-2.11181e-01 
-2.23263e-01 
-2.33282e-01 
-2.40433e-01 
-2.44152e-01 
-2.44152e-01 
-2.40433e-01 
-2.33282e-01 
-2.23263e-01 
-2.11181e-01 
-1.98041e-01 
-1.84956e-01 
-1.72943e-01 
-1.62863e-01 
-1.55465e-01 
-1.51442e-01 
-1.51781e-01 
-1.57820e-01 
-1.21632e-01 
-1.16476e-01 
-1.17104e-01 
-1.22074e-01 
-1.30390e-01 
-1.41421e-01 
-1.54454e-01 
-1.68626e-01 
-1.82862e-01 
-1.95959e-01 
-2.06823e-01 
-2.14579e-01 
-2.18615e-01 
-2.18615e-01 
-2.14579e-01 
-2.06823e-01 
-1.95959e-01 
-1.82862e-01 
-1.68626e-01 
-1.54454e-01 
-1.41421e-01 
-1.30390e-01 
-1.22074e-01 
-1.17104e-01 
-1.16476e-01 
-1.21632e-01 
-8.93866e-02 
-8.54757e-02 
-8.71877e-02 
-9.30486e-02 
-1.02147e-01 
-1.13962e-01 
-1.27849e-01 
-1.42962e-01 
-1.58179e-01 
-1.72202e-01 
-1.83855e-01 
-1.92186e-01 
-1.96525e-01 
-1.96525e-01 
-1.92186e-01 
-1.83855e-01 
-1.72202e-01 
-1.58179e-01 
-1.42962e-01 
-1.27849e-01 
-1.13962e-01 
-1.02147e-01 
-9.30486e-02 
-8.71877e-02 
-8.54757e-02 
-8.93866e-02 
-6.15615e-02 
-5.92305e-02 
-6.20652e-02 
-6.86713e-02 
-7.83448e-02 
-9.07271e-02 
-1.05274e-01 
-1.21170e-01 
-1.37248e-01 
-1.52121e-01 
-1.64525e-01 
-1.73418e-01 
-1.78056e-01 
-1.78056e-01 
-1.73418e-01 
-1.64525e-01 
-1.52121e-01 
-1.37248e-01 
-1.21170e-01 
-1.05274e-01 
-9.07271e-02 
-7.83448e-02 
-6.86713e-02 
-6.20652e-02 
-5.92305e-02 
-6.15615e-02 
-3.86379e-02 
-3.81071e-02 
-4.19738e-02 
-4.90734e-02 
-5.90532e-02 
-7.17582e-02 
-8.67718e-02 
-1.03317e-01 
-1.20177e-01 
-1.35880e-01 
-1.49059e-01 
-1.58548e-01 
-1.63512e-01 
-1.63512e-01 
-1.58548e-01 
-1.49059e-01 
-1.35880e-01 
-1.20177e-01 
-1.03317e-01 
-8.67718e-02 
-7.17582e-02 
-5.90532e-02 
-4.90734e-02 
-4.19738e-02 
-3.81071e-02 
-3.86379e-02 
-2.10168e-02 
-2.22654e-02 
-2.68928e-02 
-3.41319e-02 
-4.41112e-02 
-5.68989e-02 
-7.22233e-02 
-8.93489e-02 
-1.07012e-01 
-1.23644e-01 
-1.37735e-01 
-1.47949e-01 
-1.53311e-01 
-1.53311e-01 
-1.47949e-01 
-1.37735e-01 
-1.23644e-01 
-1.07012e-01 
-8.93489e-02 
-7.22233e-02 
-5.68989e-02 
-4.41112e-02 
-3.41319e-02 
-2.68928e-02 
-2.22654e-02 
-2.10168e-02 
-8.88006e-03 
-1.15127e-02 
-1.64193e-02 
-2.33669e-02 
-3.30205e-02 
-4.56670e-02 
-6.11953e-02 
-7.89263e-02 
-9.75730e-02 
-1.15428e-01 
-1.30758e-01 
-1.41973e-01 
-1.47896e-01 
-1.47896e-01 
-1.41973e-01 
-1.30758e-01 
-1.15428e-01 
-9.75730e-02 
-7.89264e-02 
-6.11953e-02 
-4.56670e-02 
-3.30205e-02 
-2.33669e-02 
-1.64193e-02 
-1.15127e-02 
-8.88006e-03 
-1.99046e-03 
-5.16936e-03 
-9.70000e-03 
-1.59164e-02 
-2.49402e-02 
-3.72465e-02 
-5.29091e-02 
-7.13604e-02 
-9.13469e-02 
-1.10951e-01 
-1.28063e-01 
-1.40723e-01 
-1.47466e-01 
-1.47466e-01 
-1.40723e-01 
-1.28063e-01 
-1.10951e-01 
-9.13469e-02 
-7.13604e-02 
-5.29091e-02 
-3.72465e-02 
-2.49402e-02 
-1.59164e-02 
-9.70000e-03 
-5.16936e-03 
-1.99046e-03 
 5.55310e-04 
-2.06669e-03 
-5.55156e-03 
-1.05890e-02 
-1.85300e-02 
-3.00917e-02 
-4.56041e-02 
-6.48113e-02 
-8.65882e-02 
-1.08724e-01 
-1.28436e-01 
-1.43247e-01 
-1.51176e-01 
-1.51176e-01 
-1.43247e-01 
-1.28436e-01 
-1.08724e-01 
-8.65882e-02 
-6.48113e-02 
-4.56041e-02 
-3.00917e-02 
-1.85300e-02 
-1.05890e-02 
-5.55156e-03 
-2.06669e-03 
 5.55310e-04 
 4.95365e-04 
-7.24616e-04 
-2.73201e-03 
-6.34140e-03 
-1.28339e-02 
-2.31755e-02 
-3.81355e-02 
-5.78498e-02 
-8.16268e-02 
-1.06670e-01 
-1.29594e-01 
-1.46893e-01 
-1.56166e-01 
-1.56166e-01 
-1.46893e-01 
-1.29594e-01 
-1.06670e-01 
-8.16268e-02 
-5.78498e-02 
-3.81355e-02 
-2.31755e-02 
-1.28339e-02 
-6.34140e-03 
-2.73201e-03 
-7.24616e-04 
 4.95365e-04 
 1.21848e-05 
-2.64684e-04 
-8.35756e-04 
-2.08284e-03 
-5.27416e-03 
-1.20402e-02 
-2.41497e-02 
-4.28359e-02 
-6.75710e-02 
-9.56230e-02 
-1.22127e-01 
-1.42545e-01 
-1.53564e-01 
-1.53564e-01 
-1.42545e-01 
-1.22127e-01 
-9.56230e-02 
-6.75710e-02 
-4.28359e-02 
-2.41497e-02 
-1.20402e-02 
-5.27416e-03 
-2.08284e-03 
-8.35756e-04 
-2.64684e-04 
 1.21848e-05 
-5.82578e-06 
-5.90383e-05 
 3.83595e-04 
 8.48198e-06 
-2.62236e-03 
-8.50607e-03 
-1.86685e-02 
-3.43056e-02 
-5.51288e-02 
-7.83372e-02 
-1.00029e-01 
-1.16340e-01 
-1.25043e-01 
-1.25043e-01 
-1.16340e-01 
-1.00029e-01 
-7.83372e-02 
-5.51288e-02 
-3.43056e-02 
-1.86685e-02 
-8.50607e-03 
-2.62236e-03 
 8.48186e-06 
 3.83595e-04 
-5.90383e-05 
-5.82579e-06 
 4.24020e+00 
-2.04448e-01 
 1.87147e-01 
-4.49514e-03 
-2.75823e-02 
-7.45533e-02 
-1.03360e-01 
-1.27380e-01 
-1.45289e-01 
-1.58861e-01 
-1.68570e-01 
-1.74867e-01 
-1.77964e-01 
-1.77964e-01 
-1.74867e-01 
-1.68570e-01 
-1.58861e-01 
-1.45289e-01 
-1.27380e-01 
-1.03360e-01 
-7.45533e-02 
-2.75823e-02 
-4.49515e-03 
 1.87147e-01 
-2.04448e-01 
 4.24020e+00 
-3.33782e+00 
-1.35634e+00 
-1.45365e+00 
-1.18892e+00 
-1.14396e+00 
-1.09270e+00 
-1.07239e+00 
-1.05970e+00 
-1.05408e+00 
-1.05169e+00 
-1.05113e+00 
-1.05126e+00 
-1.05148e+00 
-1.05148e+00 
-1.05126e+00 
-1.05113e+00 
-1.05169e+00 
-1.05408e+00 
-1.05970e+00 
-1.07239e+00 
-1.09270e+00 
-1.14396e+00 
-1.18892e+00 
-1.45365e+00 
-1.35634e+00 
-3.33782e+00 
-2.40816e+00 
-2.55410e+00 
-2.24144e+00 
-2.06726e+00 
-1.96849e+00 
-1.91093e+00 
-1.88134e+00 
-1.86745e+00 
-1.86273e+00 
-1.86270e+00 
-1.86461e+00 
-1.86672e+00 
-1.86801e+00 
-1.86801e+00 
-1.86672e+00 
-1.86461e+00 
-1.86270e+00 
-1.86273e+00 
-1.86745e+00 
-1.88134e+00 
-1.91093e+00 
-1.96849e+00 
-2.06726e+00 
-2.24144e+00 
-2.55410e+00 
-2.40816e+00 
-2.30877e+00 
-2.46251e+00 
-2.38202e+00 
-2.24804e+00 
-2.16185e+00 
-2.09675e+00 
-2.05356e+00 
-2.02518e+00 
-2.00741e+00 
-1.99666e+00 
-1.99049e+00 
-1.98723e+00 
-1.98584e+00 
-1.98584e+00 
-1.98723e+00 
-1.99049e+00 