<?xml version="1.0" encoding="utf-8"?>
<VTKFile byte_order="LittleEndian" type="UnstructuredGrid" version="0.1">
   <UnstructuredGrid>
      <Piece NumberOfCells="3364" NumberOfPoints="1741">
         <Points>
            <DataArray Name="Points" NumberOfComponents="3" format="ascii" type="Float32">
0.0000 1.0000 0.0000
0.0000 1.0345 0.0000
0.0000 1.0690 0.0000
0.0000 1.1034 0.0000
0.0000 1.1379 0.0000
0.0000 1.1724 0.0000
0.0000 1.2069 0.0000
0.0000 1.2414 0.0000
0.0000 1.2759 0.0000
0.0000 1.3103 0.0000
0.0000 1.3448 0.0000
0.0000 1.3793 0.0000
0.0000 1.4138 0.0000
0.0000 1.4483 0.0000
0.0000 1.4828 0.0000
0.0000 1.5172 0.0000
0.0000 1.5517 0.0000
0.0000 1.5862 0.0000
0.0000 1.6207 0.0000
0.0000 1.6552 0.0000
0.0000 1.6897 0.0000
0.0000 1.7241 0.0000
0.0000 1.7586 0.0000
0.0000 1.7931 0.0000
0.0000 1.8276 0.0000
0.0000 1.8621 0.0000
0.0000 1.8966 0.0000
0.0000 1.9310 0.0000
0.0000 1.9655 0.0000
0.0000 2.0000 0.0000
0.0690 1.0000 0.0000
0.0690 1.0345 0.0000
0.0690 1.0690 0.0000
0.0690 1.1034 0.0000
0.0690 1.1379 0.0000
0.0690 1.1724 0.0000
0.0690 1.2069 0.0000
0.0690 1.2414 0.0000
0.0690 1.2759 0.0000
0.0690 1.3103 0.0000
0.0690 1.3448 0.0000
0.0690 1.3793 0.0000
0.0690 1.4138 0.0000
0.0690 1.4483 0.0000
0.0690 1.4828 0.0000
0.0690 1.5172 0.0000
0.0690 1.5517 0.0000
0.0690 1.5862 0.0000
0.0690 1.6207 0.0000
0.0690 1.6552 0.0000
0.0690 1.6897 0.0000
0.0690 1.7241 0.0000
0.0690 1.7586 0.0000
0.0690 1.7931 0.0000
0.0690 1.8276 0.0000
0.0690 1.8621 0.0000
0.0690 1.8966 0.0000
0.0690 1.9310 0.0000
0.0690 1.9655 0.0000
0.0690 2.0000 0.0000
0.1379 1.0000 0.0000
0.1379 1.0345 0.0000
0.1379 1.0690 0.0000
0.1379 1.1034 0.0000
0.1379 1.1379 0.0000
0.1379 1.1724 0.0000
0.1379 1.2069 0.0000
0.1379 1.2414 0.0000
0.1379 1.2759 0.0000
0.1379 1.3103 0.0000
0.1379 1.3448 0.0000
0.1379 1.3793 0.0000
0.1379 1.4138 0.0000
0.1379 1.4483 0.0000
0.1379 1.4828 0.0000
0.1379 1.5172 0.0000
0.1379 1.5517 0.0000
0.1379 1.5862 0.0000
0.1379 1.6207 0.0000
0.1379 1.6552 0.0000
0.1379 1.6897 0.0000
0.1379 1.7241 0.0000
0.1379 1.7586 0.0000
0.1379 1.7931 0.0000
0.1379 1.8276 0.0000
0.1379 1.8621 0.0000
0.1379 1.8966 0.0000
0.1379 1.9310 0.0000
0.1379 1.9655 0.0000
0.1379 2.0000 0.0000
0.2069 1.0000 0.0000
0.2069 1.0345 0.0000
0.2069 1.0690 0.0000
0.2069 1.1034 0.0000
0.2069 1.1379 0.0000
0.2069 1.1724 0.0000
0.2069 1.2069 0.0000
0.2069 1.2414 0.0000
0.2069 1.2759 0.0000
0.2069 1.3103 0.0000
0.2069 1.3448 0.0000
0.2069 1.3793 0.0000
0.2069 1.4138 0.0000
0.2069 1.4483 0.0000
0.2069 1.4828 0.0000
0.2069 1.5172 0.0000
0.2069 1.5517 0.0000
0.2069 1.5862 0.0000
0.2069 1.6207 0.0000
0.2069 1.6552 0.0000
0.2069 1.6897 0.0000
0.2069 1.7241 0.0000
0.2069 1.7586 0.0000
0.2069 1.7931 0.0000
0.2069 1.8276 0.0000
0.2069 1.8621 0.0000
0.2069 1.8966 0.0000
0.2069 1.9310 0.0000
0.2069 1.9655 0.0000
0.2069 2.0000 0.0000
0.2759 1.0000 0.0000
0.2759 1.0345 0.0000
0.2759 1.0690 0.0000
0.2759 1.1034 0.0000
0.2759 1.1379 0.0000
0.2759 1.1724 0.0000
0.2759 1.2069 0.0000
0.2759 1.2414 0.0000
0.2759 1.2759 0.0000
0.2759 1.3103 0.0000
0.2759 1.3448 0.0000
0.2759 1.3793 0.0000
0.2759 1.4138 0.0000
0.2759 1.4483 0.0000
0.2759 1.4828 0.0000
0.2759 1.5172 0.0000
0.2759 1.5517 0.0000
0.2759 1.5862 0.0000
0.2759 1.6207 0.0000
0.2759 1.6552 0.0000
0.2759 1.6897 0.0000
0.2759 1.7241 0.0000
0.2759 1.7586 0.0000
0.2759 1.7931 0.0000
0.2759 1.8276 0.0000
0.2759 1.8621 0.0000
0.2759 1.8966 0.0000
0.2759 1.9310 0.0000
0.2759 1.9655 0.0000
0.2759 2.0000 0.0000
0.3448 1.0000 0.0000
0.3448 1.0345 0.0000
0.3448 1.0690 0.0000
0.3448 1.1034 0.0000
0.3448 1.1379 0.0000
0.3448 1.1724 0.0000
0.3448 1.2069 0.0000
0.3448 1.2414 0.0000
0.3448 1.2759 0.0000
0.3448 1.3103 0.0000
0.3448 1.3448 0.0000
0.3448 1.3793 0.0000
0.3448 1.4138 0.0000
0.3448 1.4483 0.0000
0.3448 1.4828 0.0000
0.3448 1.5172 0.0000
0.3448 1.5517 0.0000
0.3448 1.5862 0.0000
0.3448 1.6207 0.0000
0.3448 1.6552 0.0000
0.3448 1.6897 0.0000
0.3448 1.7241 0.0000
0.3448 1.7586 0.0000
0.3448 1.7931 0.0000
0.3448 1.8276 0.0000
0.3448 1.8621 0.0000
0.3448 1.8966 0.0000
0.3448 1.9310 0.0000
0.3448 1.9655 0.0000
0.3448 2.0000 0.0000
0.4138 1.0000 0.0000
0.4138 1.0345 0.0000
0.4138 1.0690 0.0000
0.4138 1.1034 0.0000
0.4138 1.1379 0.0000
0.4138 1.1724 0.0000
0.4138 1.2069 0.0000
0.4138 1.2414 0.0000
0.4138 1.2759 0.0000
0.4138 1.3103 0.0000
0.4138 1.3448 0.0000
0.4138 1.3793 0.0000
0.4138 1.4138 0.0000
0.4138 1.4483 0.0000
0.4138 1.4828 0.0000
0.4138 1.5172 0.0000
0.4138 1.5517 0.0000
0.4138 1.5862 0.0000
0.4138 1.6207 0.0000
0.4138 1.6552 0.0000
0.4138 1.6897 0.0000
0.4138 1.7241 0.0000
0.4138 1.7586 0.0000
0.4138 1.7931 0.0000
0.4138 1.8276 0.0000
0.4138 1.8621 0.0000
0.4138 1.8966 0.0000
0.4138 1.9310 0.0000
0.4138 1.9655 0.0000
0.4138 2.0000 0.0000
0.4828 1.0000 0.0000
0.4828 1.0345 0.0000
0.4828 1.0690 0.0000
0.4828 1.1034 0.0000
0.4828 1.1379 0.0000
0.4828 1.1724 0.0000
0.4828 1.2069 0.0000
0.4828 1.2414 0.0000
0.4828 1.2759 0.0000
0.4828 1.3103 0.0000
0.4828 1.3448 0.0000
0.4828 1.3793 0.0000
0.4828 1.4138 0.0000
0.4828 1.4483 0.0000
0.4828 1.4828 0.0000
0.4828 1.5172 0.0000
0.4828 1.5517 0.0000
0.4828 1.5862 0.0000
0.4828 1.6207 0.0000
0.4828 1.6552 0.0000
0.4828 1.6897 0.0000
0.4828 1.7241 0.0000
0.4828 1.7586 0.0000
0.4828 1.7931 0.0000
0.4828 1.8276 0.0000
0.4828 1.8621 0.0000
0.4828 1.8966 0.0000
0.4828 1.9310 0.0000
0.4828 1.9655 0.0000
0.4828 2.0000 0.0000
0.5517 1.0000 0.0000
0.5517 1.0345 0.0000
0.5517 1.0690 0.0000
0.5517 1.1034 0.0000
0.5517 1.1379 0.0000
0.5517 1.1724 0.0000
0.5517 1.2069 0.0000
0.5517 1.2414 0.0000
0.5517 1.2759 0.0000
0.5517 1.3103 0.0000
0.5517 1.3448 0.0000
0.5517 1.3793 0.0000
0.5517 1.4138 0.0000
0.5517 1.4483 0.0000
0.5517 1.4828 0.0000
0.5517 1.5172 0.0000
0.5517 1.5517 0.0000
0.5517 1.5862 0.0000
0.5517 1.6207 0.0000
0.5517 1.6552 0.0000
0.5517 1.6897 0.0000
0.5517 1.7241 0.0000
0.5517 1.7586 0.0000
0.5517 1.7931 0.0000
0.5517 1.8276 0.0000
0.5517 1.8621 0.0000
0.5517 1.8966 0.0000
0.5517 1.9310 0.0000
0.5517 1.9655 0.0000
0.5517 2.0000 0.0000
0.6207 1.0000 0.0000
0.6207 1.0345 0.0000
0.6207 1.0690 0.0000
0.6207 1.1034 0.0000
0.6207 1.1379 0.0000
0.6207 1.1724 0.0000
0.6207 1.2069 0.0000
0.6207 1.2414 0.0000
0.6207 1.2759 0.0000
0.6207 1.3103 0.0000
0.6207 1.3448 0.0000
0.6207 1.3793 0.0000
0.6207 1.4138 0.0000
0.6207 1.4483 0.0000
0.6207 1.4828 0.0000
0.6207 1.5172 0.0000
0.6207 1.5517 0.0000
0.6207 1.5862 0.0000
0.6207 1.6207 0.0000
0.6207 1.6552 0.0000
0.6207 1.6897 0.0000
0.6207 1.7241 0.0000
0.6207 1.7586 0.0000
0.6207 1.7931 0.0000
0.6207 1.8276 0.0000
0.6207 1.8621 0.0000
0.6207 1.8966 0.0000
0.6207 1.9310 0.0000
0.6207 1.9655 0.0000
0.6207 2.0000 0.0000
0.6897 1.0000 0.0000
0.6897 1.0345 0.0000
0.6897 1.0690 0.0000
0.6897 1.1034 0.0000
0.6897 1.1379 0.0000
0.6897 1.1724 0.0000
0.6897 1.2069 0.0000
0.6897 1.2414 0.0000
0.6897 1.2759 0.0000
0.6897 1.3103 0.0000
0.6897 1.3448 0.0000
0.6897 1.3793 0.0000
0.6897 1.4138 0.0000
0.6897 1.4483 0.0000
0.6897 1.4828 0.0000
0.6897 1.5172 0.0000
0.6897 1.5517 0.0000
0.6897 1.5862 0.0000
0.6897 1.6207 0.0000
0.6897 1.6552 0.0000
0.6897 1.6897 0.0000
0.6897 1.7241 0.0000
0.6897 1.7586 0.0000
0.6897 1.7931 0.0000
0.6897 1.8276 0.0000
0.6897 1.8621 0.0000
0.6897 1.8966 0.0000
0.6897 1.9310 0.0000
0.6897 1.9655 0.0000
0.6897 2.0000 0.0000
0.7586 1.0000 0.0000
0.7586 1.0345 0.0000
0.7586 1.0690 0.0000
0.7586 1.1034 0.0000
0.7586 1.1379 0.0000
0.7586 1.1724 0.0000
0.7586 1.2069 0.0000
0.7586 1.2414 0.0000
0.7586 1.2759 0.0000
0.7586 1.3103 0.0000
0.7586 1.3448 0.0000
0.7586 1.3793 0.0000
0.7586 1.4138 0.0000
0.7586 1.4483 0.0000
0.7586 1.4828 0.0000
0.7586 1.5172 0.0000
0.7586 1.5517 0.0000
0.7586 1.5862 0.0000
0.7586 1.6207 0.0000
0.7586 1.6552 0.0000
0.7586 1.6897 0.0000
0.7586 1.7241 0.0000
0.7586 1.7586 0.0000
0.7586 1.7931 0.0000
0.7586 1.8276 0.0000
0.7586 1.8621 0.0000
0.7586 1.8966 0.0000
0.7586 1.9310 0.0000
0.7586 1.9655 0.0000
0.7586 2.0000 0.0000
0.8276 1.0000 0.0000
0.8276 1.0345 0.0000
0.8276 1.0690 0.0000
0.8276 1.1034 0.0000
0.8276 1.1379 0.0000
0.8276 1.1724 0.0000
0.8276 1.2069 0.0000
0.8276 1.2414 0.0000
0.8276 1.2759 0.0000
0.8276 1.3103 0.0000
0.8276 1.3448 0.0000
0.8276 1.3793 0.0000
0.8276 1.4138 0.0000
0.8276 1.4483 0.0000
0.8276 1.4828 0.0000
0.8276 1.5172 0.0000
0.8276 1.5517 0.0000
0.8276 1.5862 0.0000
0.8276 1.6207 0.0000
0.8276 1.6552 0.0000
0.8276 1.6897 0.0000
0.8276 1.7241 0.0000
0.8276 1.7586 0.0000
0.8276 1.7931 0.0000
0.8276 1.8276 0.0000
0.8276 1.8621 0.0000
0.8276 1.8966 0.0000
0.8276 1.9310 0.0000
0.8276 1.9655 0.0000
0.8276 2.0000 0.0000
0.8966 1.0000 0.0000
0.8966 1.0345 0.0000
0.8966 1.0690 0.0000
0.8966 1.1034 0.0000
0.8966 1.1379 0.0000
0.8966 1.1724 0.0000
0.8966 1.2069 0.0000
0.8966 1.2414 0.0000
0.8966 1.2759 0.0000
0.8966 1.3103 0.0000
0.8966 1.3448 0.0000
0.8966 1.3793 0.0000
0.8966 1.4138 0.0000
0.8966 1.4483 0.0000
0.8966 1.4828 0.0000
0.8966 1.5172 0.0000
0.8966 1.5517 0.0000
0.8966 1.5862 0.0000
0.8966 1.6207 0.0000
0.8966 1.6552 0.0000
0.8966 1.6897 0.0000
0.8966 1.7241 0.0000
0.8966 1.7586 0.0000
0.8966 1.7931 0.0000
0.8966 1.8276 0.0000
0.8966 1.8621 0.0000
0.8966 1.8966 0.0000
0.8966 1.9310 0.0000
0.8966 1.9655 0.0000
0.8966 2.0000 0.0000
0.9655 1.0000 0.0000
0.9655 1.0345 0.0000
0.9655 1.0690 0.0000
0.9655 1.1034 0.0000
0.9655 1.1379 0.0000
0.9655 1.1724 0.0000
0.9655 1.2069 0.0000
0.9655 1.2414 0.0000
0.9655 1.2759 0.0000
0.9655 1.3103 0.0000
0.9655 1.3448 0.0000
0.9655 1.3793 0.0000
0.9655 1.4138 0.0000
0.9655 1.4483 0.0000
0.9655 1.4828 0.0000
0.9655 1.5172 0.0000
0.9655 1.5517 0.0000
0.9655 1.5862 0.0000
0.9655 1.6207 0.0000
0.9655 1.6552 0.0000
0.9655 1.6897 0.0000
0.9655 1.7241 0.0000
0.9655 1.7586 0.0000
0.9655 1.7931 0.0000
0.9655 1.8276 0.0000
0.9655 1.8621 0.0000
0.9655 1.8966 0.0000
0.9655 1.9310 0.0000
0.9655 1.9655 0.0000
0.9655 2.0000 0.0000
1.0345 1.0000 0.0000
1.0345 1.0345 0.0000
1.0345 1.0690 0.0000
1.0345 1.1034 0.0000
1.0345 1.1379 0.0000
1.0345 1.1724 0.0000
1.0345 1.2069 0.0000
1.0345 1.2414 0.0000
1.0345 1.2759 0.0000
1.0345 1.3103 0.0000
1.0345 1.3448 0.0000
[...]
         <PointData>
            <DataArray Name="fValues" NumberOfComponents="3" format="ascii" type="Float64">
 2.93795e-23 -8.11201e-23        00000 
       00000 -2.80733e-23        00000 
-1.24924e-23 -2.77610e-24        00000 
-3.38333e-23  1.80284e-23        00000 
 1.66566e-23 -1.28395e-23        00000 
-9.41356e-24  5.01887e-23        00000 
-1.11044e-23 -3.57423e-23        00000 
 8.02232e-24  5.51535e-23        00000 
 1.66566e-23 -3.88654e-23        00000 
 5.08676e-25  2.93719e-23        00000 
-1.11044e-23 -2.77610e-23        00000 
-2.94733e-23  1.74398e-25        00000 
-2.77610e-24 -1.38805e-24        00000 
 1.36508e-24  2.21786e-24        00000 
 1.38805e-23 -9.71635e-24        00000 
-2.45902e-23 -1.32543e-23        00000 
-8.15479e-24  2.49849e-23        00000 
 7.71133e-24 -1.13766e-22        00000 
 1.38805e-24  1.33253e-22        00000 
-2.14510e-23 -1.07429e-22        00000 
 2.77610e-24  7.21786e-23        00000 
-8.26210e-24 -1.13813e-22        00000 
-1.11044e-23  6.10742e-23        00000 
 1.04639e-23 -7.81304e-23        00000 
 1.52685e-23  3.88654e-23        00000 
-7.25130e-23  5.91314e-23        00000 
 3.47012e-23 -4.99698e-23        00000 
-3.84392e-24  2.02679e-23        00000 
 3.72738e-23  7.03478e-23        00000 
 4.94405e-23  1.17925e-23        00000 
 3.80008e-07  2.19342e-07        00000 
 2.03347e-07 -1.05015e-07        00000 
-1.75968e-07  3.73852e-08        00000 
 1.63302e-07  2.00704e-07        00000 
 1.61555e-07  4.70208e-07        00000 
 3.88304e-07 -2.27507e-08        00000 
 2.75483e-07 -1.89987e-08        00000 
-1.25737e-07 -4.90639e-07        00000 
 2.01020e-07  5.06039e-07        00000 
 5.79216e-07 -3.62878e-07        00000 
-1.69569e-07  9.94256e-08        00000 
-3.28847e-07 -4.80900e-07        00000 
-1.72984e-08  3.30522e-07        00000 
-1.56598e-07 -1.56540e-07        00000 
-2.73418e-07 -6.70990e-08        00000 
 2.70518e-07 -8.45230e-08        00000 
 1.53359e-07 -2.11875e-07        00000 
 1.39447e-08  2.32289e-07        00000 
 3.26313e-07 -6.19392e-07        00000 
 1.69098e-07 -6.12515e-08        00000 
-5.76786e-07 -5.12533e-07        00000 
-1.95848e-07  4.05957e-07        00000 
 1.32418e-07 -5.11906e-07        00000 
-2.69129e-07  4.66324e-08        00000 
-3.83970e-07  1.13647e-07        00000 
-1.60182e-07  6.43588e-07        00000 
-1.64904e-07  3.71501e-07        00000 
 1.72057e-07  1.71203e-07        00000 
-2.08593e-07 -3.12578e-08        00000 
-3.82532e-07  2.21721e-07        00000 
-7.22705e-08  3.83749e-07        00000 
-2.06573e-07 -2.49168e-07        00000 
-3.09572e-07  3.29871e-07        00000 
-1.77046e-07 -8.00699e-07        00000 
-4.79478e-07 -7.60926e-07        00000 
 8.85041e-08  9.87345e-08        00000 
-3.47374e-08  2.18475e-08        00000 
 4.35750e-07 -6.82842e-07        00000 
 2.56908e-08  4.04187e-07        00000 
-4.70807e-07 -1.72058e-07        00000 
 5.03749e-07  6.31693e-07        00000 
 1.28573e-07 -4.51557e-07        00000 
 3.34691e-07  2.12507e-07        00000 
 9.41383e-08  4.01337e-07        00000 
-2.47476e-07  1.01044e-08        00000 
 2.44747e-07 -2.36274e-08        00000 
-9.72310e-08  2.93921e-07        00000 
-3.37944e-07  2.11111e-08        00000 
-1.31067e-07 -7.22259e-07        00000 
-5.04249e-07  3.16923e-07        00000 
 4.73135e-07 -4.65623e-07        00000 
-2.06830e-08  2.07768e-07        00000 
-4.29275e-07 -7.24529e-07        00000 
 4.08764e-08  1.50700e-07        00000 
-8.43476e-08  3.66214e-07        00000 
 4.80757e-07 -4.21352e-07        00000 
 1.75464e-07 -4.66650e-07        00000 
 3.05796e-07  5.91275e-07        00000 
 2.01592e-07 -1.05484e-07        00000 
 6.98838e-08  3.88271e-07        00000 
-2.73043e-07 -1.83495e-07        00000 
 1.37892e-07 -2.86813e-07        00000 
 4.14542e-07 -6.28920e-07        00000 
 1.80595e-07 -1.30932e-06        00000 
 1.28581e-07 -1.67515e-07        00000 
 3.69471e-07 -2.33623e-07        00000 
 1.52338e-07  1.35430e-07        00000 
 1.38879e-07  3.32131e-07        00000 
-4.27602e-07  1.45584e-07        00000 
 1.75669e-07  6.56721e-07        00000 
 2.33474e-07  8.47514e-08        00000 
-4.63573e-07 -5.20665e-07        00000 
 1.56903e-07  2.61115e-07        00000 
 3.29909e-07 -4.34433e-07        00000 
-1.13666e-07  3.42417e-07        00000 
 1.11368e-07  2.94506e-07        00000 
-3.32598e-07 -5.87656e-07        00000 
-1.59829e-07 -1.34671e-08        00000 
 4.61261e-07 -9.10932e-07        00000 
-2.34009e-07 -3.70593e-07        00000 
-1.73630e-07  2.31225e-07        00000 
 4.32087e-07 -1.39285e-07        00000 
-1.33067e-07  2.71834e-07        00000 
-1.46860e-07  3.22484e-07        00000 
-3.65819e-07  1.53892e-07        00000 
-1.27528e-07  3.23432e-07        00000 
-1.82069e-07 -8.27438e-07        00000 
-4.17895e-07 -2.52638e-07        00000 
-1.42239e-07 -8.04256e-08        00000 
 2.70971e-07 -1.77014e-07        00000 
-2.40627e-08 -1.52689e-07        00000 
-5.66790e-08  8.26006e-07        00000 
 2.51465e-07  2.73996e-07        00000 
 7.32811e-08 -7.25854e-08        00000 
-3.78183e-08  1.96303e-07        00000 
-1.10999e-07 -9.23563e-07        00000 
 5.43833e-07  3.50643e-08        00000 
 2.73453e-07 -1.79146e-07        00000 
 1.02978e-07  3.54127e-07        00000 
 2.48351e-07 -3.67950e-07        00000 
 3.57501e-07 -3.25793e-07        00000 
-1.99754e-07  3.14793e-07        00000 
-6.15356e-07  5.39026e-07        00000 
 1.28318e-07 -2.02637e-07        00000 
 1.99533e-07 -1.23151e-07        00000 
-2.01252e-07 -1.82179e-07        00000 
-1.30466e-07 -3.92631e-07        00000 
 6.12873e-07  1.95641e-07        00000 
 1.97690e-07 -1.76788e-07        00000 
-3.58079e-07 -9.02171e-07        00000 
-2.46702e-07 -9.08049e-07        00000 
-9.91983e-08 -7.78109e-09        00000 
-2.68538e-07 -2.55434e-07        00000 
-5.39247e-07  2.73053e-07        00000 
 1.13973e-07 -4.31988e-07        00000 
 3.85695e-08  8.17202e-07        00000 
-7.46060e-08  5.34841e-07        00000 
-2.54250e-07  7.46821e-07        00000 
 5.31816e-08  1.08469e-06        00000 
 2.24146e-08 -1.44575e-07        00000 
 1.74561e-07  2.74306e-07        00000 
 5.56561e-08  7.76455e-07        00000 
 1.60394e-07 -7.78161e-07        00000 
 4.86361e-08  2.56495e-07        00000 
-5.73984e-08 -1.95915e-07        00000 
-1.99598e-07 -4.54416e-07        00000 
-3.52098e-07  1.50679e-07        00000 
-1.82054e-07 -8.75067e-07        00000 
-3.06711e-08  1.37033e-07        00000 
 5.11755e-07 -3.74887e-07        00000 
-1.52250e-07  1.92102e-07        00000 
 2.00122e-07  3.58629e-07        00000 
 1.97092e-07  3.82530e-07        00000 
-1.14600e-07 -6.09540e-07        00000 
 4.09548e-07  5.15728e-09        00000 
-4.10571e-07 -6.11397e-08        00000 
 1.13106e-07 -8.24940e-07        00000 
-1.99041e-07 -1.15428e-08        00000 
-2.01884e-07 -2.11242e-07        00000 
 1.51622e-07 -4.80632e-07        00000 
-5.10576e-07 -1.00768e-06        00000 
 3.35978e-08 -2.87485e-07        00000 
 1.85885e-07 -9.64038e-07        00000 
 3.55606e-07  4.30412e-07        00000 
 2.01753e-07  1.21027e-07        00000 
 5.77873e-08  5.27886e-07        00000 
-4.97793e-08  9.61359e-07        00000 
-1.62492e-07 -2.31897e-07        00000 
-5.81296e-08  1.07430e-06        00000 
-1.75699e-07  2.83638e-07        00000 
 3.18874e-07  2.96921e-08        00000 
 5.63999e-07  3.50523e-07        00000 
-3.06048e-07 -6.39918e-07        00000 
-4.60727e-08 -3.90732e-07        00000 
 5.48357e-07 -2.67687e-07        00000 
 8.15222e-08 -7.64181e-07        00000 
-4.86119e-07 -2.72782e-07        00000 
-1.79708e-07  1.52688e-07        00000 
 3.73015e-07  5.02246e-07        00000 
 3.39434e-07  3.98206e-07        00000 
-2.79837e-07  4.39636e-08        00000 
 6.38070e-08  7.26323e-07        00000 
 1.70929e-07  2.31847e-07        00000 
 5.51868e-08 -5.85366e-08        00000 
-7.84220e-08  3.05286e-07        00000 
 7.81780e-08  2.36166e-07        00000 
-5.59465e-08 -2.86198e-07        00000 
-1.72273e-07 -1.91916e-07        00000 
-6.52242e-08  1.04904e-07        00000 
 2.79156e-07 -6.96410e-07        00000 
-3.38782e-07 -3.01777e-07        00000 
-3.71051e-07  3.19327e-08        00000 
 1.82315e-07  5.48846e-08        00000 
 4.88411e-07  3.79766e-08        00000 
-8.02882e-08 -1.28383e-07        00000 
-5.48373e-07  5.27556e-07        00000 
 4.51371e-08  3.78913e-07        00000 
 3.04723e-07 -4.70307e-08        00000 
-5.65322e-07  6.72309e-07        00000 
-3.19439e-07  3.97586e-08        00000 
 3.48098e-07  3.87646e-08        00000 
-3.06925e-07  3.51467e-07        00000 
-1.33058e-07 -5.28806e-07        00000 
-2.93481e-07 -6.24347e-07        00000 
-2.03291e-07 -7.98969e-07        00000 
-8.21905e-07 -6.67455e-08        00000 
 1.37837e-07  2.32766e-07        00000 
 1.80671e-07 -1.05726e-07        00000 
 7.41129e-07 -3.06468e-07        00000 
 2.48187e-07  1.05719e-07        00000 
 9.36413e-08 -6.28278e-08        00000 
 6.81362e-07  5.29247e-08        00000 
 3.47392e-07  3.19287e-07        00000 
-2.22259e-07  1.69298e-07        00000 
 4.74632e-08  3.54533e-07        00000 
-4.68834e-08  2.87416e-07        00000 
 2.22280e-07 -5.63303e-08        00000 
-3.48087e-07 -1.11277e-07        00000 
-6.82405e-07 -5.90806e-07        00000 
-9.43726e-08 -8.39373e-07        00000 
-2.48097e-07 -6.33444e-07        00000 
-7.40196e-07 -8.04112e-07        00000 
-1.79375e-07 -2.08148e-07        00000 
-1.36846e-07  5.62769e-07        00000 
 8.22158e-07  6.03609e-07        00000 
 2.02848e-07  3.32513e-08        00000 
 2.92772e-07  1.74364e-07        00000 
 1.32561e-07  8.14220e-08        00000 
 3.06826e-07  6.80574e-07        00000 
-3.48053e-07  4.90386e-08        00000 
 3.15842e-07 -3.53091e-08        00000 
 5.43036e-07 -2.58193e-07        00000 
 4.02167e-07 -5.74098e-07        00000 
 5.85474e-07 -6.17685e-07        00000 
 9.21691e-09 -8.69740e-07        00000 
-8.49358e-08  1.30413e-08        00000 
-1.28369e-07 -6.85211e-07        00000 
-2.28355e-07  4.68258e-07        00000 
-1.22411e-07 -4.56546e-07        00000 
-1.25451e-07  4.98172e-07        00000 
 9.61407e-08  6.45074e-07        00000 
-4.40203e-08  7.16159e-07        00000 
-4.51026e-07  6.20461e-07        00000 
-1.29970e-07  1.35972e-07        00000 
-8.27929e-08 -7.82611e-09        00000 
 8.42016e-08 -6.79723e-08        00000 
 1.30781e-07 -7.28759e-08        00000 
 4.50993e-07  2.06803e-07        00000 
 4.33675e-08  8.05133e-08        00000 
-9.69158e-08 -1.34822e-07        00000 
 1.24971e-07 -2.50902e-07        00000 
 1.22290e-07 -9.62210e-07        00000 
 2.28309e-07  3.65614e-07        00000 
 1.28032e-07 -3.48302e-07        00000 
 8.41919e-08  6.91001e-07        00000 
-1.00883e-08 -3.64650e-08        00000 
-5.85946e-07  1.72944e-07        00000 
-4.01822e-07  2.30711e-08        00000 
-5.41894e-07  6.10030e-08        00000 
-3.15181e-07 -2.53744e-08        00000 
-2.71691e-07 -1.74606e-07        00000 
 3.67184e-07 -3.78204e-07        00000 
-3.06911e-07 -6.01736e-07        00000 
-3.49372e-07 -8.90212e-07        00000 
-2.82326e-07  3.83314e-08        00000 
 2.48786e-07 -3.03939e-07        00000 
-1.94381e-09 -6.78322e-07        00000 
-6.08724e-08 -1.68218e-07        00000 
 2.11346e-07  4.67253e-08        00000 
 4.12718e-07  8.57714e-08        00000 
 7.00789e-09 -3.43945e-07        00000 
-2.41107e-07  3.54787e-07        00000 
-4.28996e-07  5.50152e-07        00000 
-6.91665e-08 -1.00050e-07        00000 
 4.39710e-07  6.25642e-08        00000 
-4.37508e-07  1.42522e-08        00000 
 7.07410e-08 -2.77635e-07        00000 
 4.29615e-07  1.76798e-07        00000 
 2.40845e-07 -2.42611e-07        00000 
-7.81518e-09 -1.09448e-06        00000 
-4.13750e-07 -6.43961e-07        00000 
-2.12499e-07 -4.47642e-07        00000 
 5.95119e-08 -2.66709e-07        00000 
 3.10735e-10 -3.46871e-07        00000 
-2.50496e-07  3.54707e-07        00000 
 2.81047e-07  8.36890e-07        00000 
 3.49137e-07 -1.44546e-07        00000 
 3.08076e-07 -4.77316e-08        00000 
-3.64841e-07 -8.59554e-08        00000 
 2.72948e-07 -1.65550e-07        00000 
 1.03136e-07 -2.47754e-07        00000 
-1.23979e-07 -9.11497e-07        00000 
 1.26407e-07 -4.20223e-07        00000 
-1.16715e-07 -5.89877e-07        00000 
-4.35312e-07 -4.37405e-07        00000 
-5.19889e-07 -9.06460e-07        00000 
-3.56524e-07 -2.62441e-07        00000 
-4.04034e-08 -3.23952e-07        00000 
-2.28297e-07  5.38150e-07        00000 
-5.15220e-07  1.05433e-07        00000 
 6.90237e-08  3.36217e-07        00000 
-2.40874e-07  3.21827e-07        00000 
 3.09468e-07  9.86540e-08        00000 
 1.42692e-07  2.11312e-07        00000 
-6.78756e-07 -2.05999e-07        00000 
 6.81674e-07 -2.37964e-07        00000 
-1.40417e-07  7.84924e-08        00000 
-3.08239e-07 -2.12420e-07        00000 
 2.40991e-07 -2.08776e-07        00000 
-6.98473e-08 -3.53804e-07        00000 
 5.13679e-07 -5.76993e-07        00000 
 2.26181e-07  7.35684e-08        00000 
 3.78125e-08 -4.14127e-07        00000 
 3.53682e-07  5.16887e-08        00000 
 5.17287e-07 -2.92840e-07        00000 
 4.33667e-07  2.92415e-07        00000 
 1.16712e-07  7.58940e-08        00000 
-1.24480e-07  6.22034e-08        00000 
 1.27426e-07 -6.62234e-07        00000 
-1.01334e-07 -2.40086e-07        00000 
 5.67343e-07 -4.89921e-07        00000 
 7.81401e-09 -1.55091e-07        00000 
 2.19058e-07 -6.31183e-07        00000 
 2.17090e-08  1.87697e-07        00000 
-3.72972e-07 -5.05816e-07        00000 
 2.38601e-07 -3.78100e-07        00000 
 3.68670e-07 -2.45968e-07        00000 
 1.71169e-07  2.59526e-07        00000 
-2.14545e-07 -4.71626e-07        00000 
 1.15511e-07  2.88020e-08        00000 
-4.21950e-07 -1.56693e-07        00000 
-4.30107e-07  8.01059e-07        00000 
-3.73435e-07 -5.69030e-08        00000 
-5.36165e-07  4.79237e-07        00000 
-2.34311e-07  1.92353e-07        00000 
 2.37836e-07  1.80668e-07        00000 
 5.39044e-07  4.03033e-07        00000 
 3.75208e-07 -2.86194e-07        00000 
 4.30575e-07  3.62870e-07        00000 
 4.21130e-07 -7.57992e-07        00000 
-1.17494e-07 -5.80851e-07        00000 
 2.11573e-07 -8.89554e-07        00000 
-1.74854e-07  1.81431e-07        00000 
-3.72579e-07  3.99778e-08        00000 
-2.41979e-07  1.67111e-07        00000 
 3.71021e-07  1.24511e-07        00000 
-2.14946e-08  7.42186e-07        00000 
-2.16460e-07 -2.45729e-07        00000 
-3.41085e-09  3.69022e-08        00000 
-5.65070e-07 -4.84094e-07        00000 
 1.21695e-07 -2.76098e-07        00000 
 1.15370e-07  5.47216e-08        00000 
-3.97742e-07  2.29846e-07        00000 
-1.54695e-07 -2.79419e-07        00000 
 2.90013e-07 -1.82028e-07        00000 
-3.06351e-08  3.37870e-07        00000 
-2.67002e-08 -7.14725e-07        00000 
-7.26854e-08  1.35138e-07        00000 
-3.31954e-07  8.16710e-08        00000 
-9.32099e-08  8.07794e-07        00000 
-8.16744e-07  3.48793e-07        00000 
-2.14882e-09 -9.75554e-09        00000 
 2.77559e-07  2.84847e-07        00000 
 1.13073e-07  8.29640e-08        00000 
-7.78133e-08  3.27251e-07        00000 
 8.18003e-08  3.38990e-07        00000 
-1.09714e-07  7.29696e-08        00000 
-2.75330e-07  1.53422e-07        00000 
 2.93076e-09 -3.34015e-07        00000 
 8.15951e-07 -1.39761e-07        00000 
 9.08724e-08  2.92792e-07        00000 
 3.28271e-07 -2.75074e-07        00000 
 6.80880e-08  7.23213e-08        00000 
 2.19099e-08 -4.66369e-07        00000 
 2.66315e-08  7.94625e-07        00000 
-2.92191e-07  3.22686e-07        00000 
 1.55105e-07  1.37383e-07        00000 
 4.00890e-07  4.97144e-07        00000 
-1.10203e-07  1.77601e-07        00000 
-1.19050e-07 -2.72484e-07        00000 
 8.98138e-08 -3.13649e-07        00000 
 4.43459e-07 -7.43431e-07        00000 
-4.02072e-07  1.06419e-06        00000 
 3.77918e-07 -2.35741e-07        00000 
 8.08807e-08 -2.25417e-07        00000 
-3.01656e-07 -1.12395e-06        00000 
 1.89974e-07 -7.16679e-08        00000 
-4.00479e-08 -3.47270e-07        00000 
-3.04142e-07 -1.69501e-07        00000 
-3.23827e-07  4.93660e-07        00000 
 5.88653e-07  5.90777e-07        00000 
-5.53469e-07 -4.20049e-07        00000 
-3.91074e-07  7.61708e-08        00000 
 1.49286e-09 -3.85931e-07        00000 
-2.35501e-08  2.24295e-07        00000 
 2.78309e-08  2.61645e-07        00000 
 2.19873e-09 -3.22883e-07        00000 
 3.93650e-07  5.44811e-08        00000 
 5.54517e-07 -6.13965e-07        00000 
-5.89394e-07  2.33756e-07        00000 
 3.21240e-07  9.06702e-08        00000 
 2.99924e-07 -4.53483e-07        00000 
 3.47579e-08 -3.92320e-07        00000 
-1.95421e-07  1.31535e-07        00000 
 2.97207e-07 -7.71503e-07        00000 
-8.31965e-08  1.33355e-07        00000 
-3.77339e-07  2.31638e-08        00000 
 4.05623e-07  1.19736e-06        00000 
-4.37759e-07 -6.98498e-07        00000 
-8.69126e-08 -3.12527e-07        00000 
-9.97580e-08  1.15634e-07        00000 
-3.27367e-07 -3.09127e-07        00000 
-2.50811e-07 -4.96307e-07        00000 
-2.41899e-07 -6.68534e-07        00000 
 5.39384e-08  2.58574e-07        00000 
-2.53522e-07 -6.54258e-07        00000 
-1.92993e-07 -8.10632e-07        00000 
-2.62414e-07 -1.86376e-07        00000 
 7.07287e-08  4.44454e-08        00000 
 1.22793e-07  1.87124e-07        00000 
-9.57669e-08  2.42207e-07        00000 
-1.23459e-07 -2.12449e-07        00000 
 1.22375e-07  2.73644e-07        00000 
-1.03259e-07 -9.12474e-07        00000 
-4.82928e-08 -8.85957e-08        00000 
 5.26812e-08 -2.45397e-08        00000 
 1.07118e-07 -7.72696e-07        00000 
-1.19572e-07  3.68738e-07        00000 
 1.24718e-07 -2.65469e-07        00000 
 9.51056e-08  2.94553e-08        00000 
-1.25514e-07 -9.17286e-08        00000 
-7.52872e-08 -1.58610e-07        00000 
 2.56678e-07 -2.11986e-07        00000 
 1.87141e-07 -6.58005e-07        00000 
 2.48829e-07 -4.17128e-07        00000 
-5.62918e-08  4.57759e-07        00000 
 2.42615e-07 -5.80611e-07        00000 
 2.54603e-07 -5.07255e-07        00000 
 3.33345e-07 -3.47526e-07        00000 
 1.02786e-07  1.14096e-07        00000 
-3.78216e-07  3.01301e-07        00000 
-6.37751e-08  3.78193e-07        00000 
 2.09236e-07  2.05479e-07        00000 
 3.15250e-07  9.71273e-07        00000 
-1.49576e-07 -5.05469e-07        00000 
 2.35194e-08  8.84370e-08        00000 
-3.70463e-07  9.63559e-08        00000 
 2.65473e-07  4.07149e-07        00000 
 1.40703e-07  8.24005e-07        00000 
-3.09923e-08  3.84277e-07        00000 
 4.40563e-07  7.07946e-07        00000 
 8.24662e-08 -7.52044e-08        00000 
-8.38251e-08  9.75993e-09        00000 
-2.47630e-08 -1.97736e-07        00000 
-6.47670e-08 -6.93987e-09        00000 
 6.90673e-08  8.37487e-08        00000 
 2.86154e-08  1.90775e-08        00000 
 8.67271e-08  2.23480e-07        00000 
-8.10578e-08  1.68607e-08        00000 
-4.41117e-07  6.45612e-07        00000 
 2.82604e-08  2.35973e-07        00000 
-1.45393e-07  7.06302e-07        00000 
-2.71391e-07  4.01765e-07        00000 
 3.64472e-07  1.95329e-07        00000 
-2.82446e-08  2.04551e-07        00000 
 1.47290e-07 -4.72243e-07        00000 
-3.14431e-07  8.82862e-07        00000 
-2.05374e-07  4.69040e-08        00000 
 6.97615e-08  2.54810e-07        00000 
 3.81235e-07  2.97053e-07        00000 
-4.06749e-08  6.21522e-07        00000 
-3.60578e-07  2.90043e-07        00000 
 4.17926e-07 -3.83947e-07        00000 
 1.38271e-07  9.41884e-07        00000 
-1.38494e-07  7.57291e-07        00000 
-3.13749e-08  2.94697e-07        00000 
 3.08884e-07  3.25645e-07        00000 
-2.82092e-07 -4.35925e-07        00000 
-3.02263e-07  8.32348e-07        00000 
-3.97384e-07 -3.40948e-07        00000 
 7.46380e-08  4.22415e-09        00000 
 3.85402e-08 -7.99215e-08        00000 
-4.72314e-08 -8.52287e-07        00000 
-1.73463e-07 -4.16565e-07        00000 
 1.12440e-07 -1.49254e-07        00000 
-1.08424e-07 -3.32098e-08        00000 
 1.77134e-07 -1.25890e-07        00000 