<?xml version="1.0" encoding="utf-8"?>
<VTKFile byte_order="LittleEndian" type="UnstructuredGrid" version="0.1">
   <UnstructuredGrid>
      <Piece NumberOfCells="3364" NumberOfPoints="1741">
         <Points>
            <DataArray Name="Points" NumberOfComponents="3" format="ascii" type="Float32">
0.0000 1.0000 0.0000
0.0000 1.0345 0.0000
0.0000 1.0690 0.0000
0.0000 1.1034 0.0000
0.0000 1.1379 0.0000
0.0000 1.1724 0.0000
0.0000 1.2069 0.0000
0.0000 1.2414 0.0000
0.0000 1.2759 0.0000
0.0000 1.3103 0.0000
0.0000 1.3448 0.0000
0.0000 1.3793 0.0000
0.0000 1.4138 0.0000
0.0000 1.4483 0.0000
0.0000 1.4828 0.0000
0.0000 1.5172 0.0000
0.0000 1.5517 0.0000
0.0000 1.5862 0.0000
0.0000 1.6207 0.0000
0.0000 1.6552 0.0000
0.0000 1.6897 0.0000
0.0000 1.7241 0.0000
0.0000 1.7586 0.0000
0.0000 1.7931 0.0000
0.0000 1.8276 0.0000
0.0000 1.8621 0.0000
0.0000 1.8966 0.0000
0.0000 1.9310 0.0000
0.0000 1.9655 0.0000
0.0000 2.0000 0.0000
0.0690 1.0000 0.0000
0.0690 1.0345 0.0000
0.0690 1.0690 0.0000
0.0690 1.1034 0.0000
0.0690 1.1379 0.0000
0.0690 1.1724 0.0000
0.0690 1.2069 0.0000
0.0690 1.2414 0.0000
0.0690 1.2759 0.0000
0.0690 1.3103 0.0000
0.0690 1.3448 0.0000
0.0690 1.3793 0.0000
0.0690 1.4138 0.0000
0.0690 1.4483 0.0000
0.0690 1.4828 0.0000
0.0690 1.5172 0.0000
0.0690 1.5517 0.0000
0.0690 1.5862 0.0000
0.0690 1.6207 0.0000
0.0690 1.6552 0.0000
0.0690 1.6897 0.0000
0.0690 1.7241 0.0000
0.0690 1.7586 0.0000
0.0690 1.7931 0.0000
0.0690 1.8276 0.0000
0.0690 1.8621 0.0000
0.0690 1.8966 0.0000
0.0690 1.9310 0.0000
0.0690 1.9655 0.0000
0.0690 2.0000 0.0000
0.1379 1.0000 0.0000
0.1379 1.0345 0.0000
0.1379 1.0690 0.0000
0.1379 1.1034 0.0000
0.1379 1.1379 0.0000
0.1379 1.1724 0.0000
0.1379 1.2069 0.0000
0.1379 1.2414 0.0000
0.1379 1.2759 0.0000
0.1379 1.3103 0.0000
0.1379 1.3448 0.0000
0.1379 1.3793 0.0000
0.1379 1.4138 0.0000
0.1379 1.4483 0.0000
0.1379 1.4828 0.0000
0.1379 1.5172 0.0000
0.1379 1.5517 0.0000
0.1379 1.5862 0.0000
0.1379 1.6207 0.0000
0.1379 1.6552 0.0000
0.1379 1.6897 0.0000
0.1379 1.7241 0.0000
0.1379 1.7586 0.0000
0.1379 1.7931 0.0000
0.1379 1.8276 0.0000
0.1379 1.8621 0.0000
0.1379 1.8966 0.0000
0.1379 1.9310 0.0000
0.1379 1.9655 0.0000
0.1379 2.0000 0.0000
0.2069 1.0000 0.0000
0.2069 1.0345 0.0000
0.2069 1.0690 0.0000
0.2069 1.1034 0.0000
0.2069 1.1379 0.0000
0.2069 1.1724 0.0000
0.2069 1.2069 0.0000
0.2069 1.2414 0.0000
0.2069 1.2759 0.0000
0.2069 1.3103 0.0000
0.2069 1.3448 0.0000
0.2069 1.3793 0.0000
0.2069 1.4138 0.0000
0.2069 1.4483 0.0000
0.2069 1.4828 0.0000
0.2069 1.5172 0.0000
0.2069 1.5517 0.0000
0.2069 1.5862 0.0000
0.2069 1.6207 0.0000
0.2069 1.6552 0.0000
0.2069 1.6897 0.0000
0.2069 1.7241 0.0000
0.2069 1.7586 0.0000
0.2069 1.7931 0.0000
0.2069 1.8276 0.0000
0.2069 1.8621 0.0000
0.2069 1.8966 0.0000
0.2069 1.9310 0.0000
0.2069 1.9655 0.0000
0.2069 2.0000 0.0000
0.2759 1.0000 0.0000
0.2759 1.0345 0.0000
0.2759 1.0690 0.0000
0.2759 1.1034 0.0000
0.2759 1.1379 0.0000
0.2759 1.1724 0.0000
0.2759 1.2069 0.0000
0.2759 1.2414 0.0000
0.2759 1.2759 0.0000
0.2759 1.3103 0.0000
0.2759 1.3448 0.0000
0.2759 1.3793 0.0000
0.2759 1.4138 0.0000
0.2759 1.4483 0.0000
0.2759 1.4828 0.0000
0.2759 1.5172 0.0000
0.2759 1.5517 0.0000
0.2759 1.5862 0.0000
0.2759 1.6207 0.0000
0.2759 1.6552 0.0000
0.2759 1.6897 0.0000
0.2759 1.7241 0.0000
0.2759 1.7586 0.0000
0.2759 1.7931 0.0000
0.2759 1.8276 0.0000
0.2759 1.8621 0.0000
0.2759 1.8966 0.0000
0.2759 1.9310 0.0000
0.2759 1.9655 0.0000
0.2759 2.0000 0.0000
0.3448 1.0000 0.0000
0.3448 1.0345 0.0000
0.3448 1.0690 0.0000
0.3448 1.1034 0.0000
0.3448 1.1379 0.0000
0.3448 1.1724 0.0000
0.3448 1.2069 0.0000
0.3448 1.2414 0.0000
0.3448 1.2759 0.0000
0.3448 1.3103 0.0000
0.3448 1.3448 0.0000
0.3448 1.3793 0.0000
0.3448 1.4138 0.0000
0.3448 1.4483 0.0000
0.3448 1.4828 0.0000
0.3448 1.5172 0.0000
0.3448 1.5517 0.0000
0.3448 1.5862 0.0000
0.3448 1.6207 0.0000
0.3448 1.6552 0.0000
0.3448 1.6897 0.0000
0.3448 1.7241 0.0000
0.3448 1.7586 0.0000
0.3448 1.7931 0.0000
0.3448 1.8276 0.0000
0.3448 1.8621 0.0000
0.3448 1.8966 0.0000
0.3448 1.9310 0.0000
0.3448 1.9655 0.0000
0.3448 2.0000 0.0000
0.4138 1.0000 0.0000
0.4138 1.0345 0.0000
0.4138 1.0690 0.0000
0.4138 1.1034 0.0000
0.4138 1.1379 0.0000
0.4138 1.1724 0.0000
0.4138 1.2069 0.0000
0.4138 1.2414 0.0000
0.4138 1.2759 0.0000
0.4138 1.3103 0.0000
0.4138 1.3448 0.0000
0.4138 1.3793 0.0000
0.4138 1.4138 0.0000
0.4138 1.4483 0.0000
0.4138 1.4828 0.0000
0.4138 1.5172 0.0000
0.4138 1.5517 0.0000
0.4138 1.5862 0.0000
0.4138 1.6207 0.0000
0.4138 1.6552 0.0000
0.4138 1.6897 0.0000
0.4138 1.7241 0.0000
0.4138 1.7586 0.0000
0.4138 1.7931 0.0000
0.4138 1.8276 0.0000
0.4138 1.8621 0.0000
0.4138 1.8966 0.0000
0.4138 1.9310 0.0000
0.4138 1.9655 0.0000
0.4138 2.0000 0.0000
0.4828 1.0000 0.0000
0.4828 1.0345 0.0000
0.4828 1.0690 0.0000
0.4828 1.1034 0.0000
0.4828 1.1379 0.0000
0.4828 1.1724 0.0000
0.4828 1.2069 0.0000
0.4828 1.2414 0.0000
0.4828 1.2759 0.0000
0.4828 1.3103 0.0000
0.4828 1.3448 0.0000
0.4828 1.3793 0.0000
0.4828 1.4138 0.0000
0.4828 1.4483 0.0000
0.4828 1.4828 0.0000
0.4828 1.5172 0.0000
0.4828 1.5517 0.0000
0.4828 1.5862 0.0000
0.4828 1.6207 0.0000
0.4828 1.6552 0.0000
0.4828 1.6897 0.0000
0.4828 1.7241 0.0000
0.4828 1.7586 0.0000
0.4828 1.7931 0.0000
0.4828 1.8276 0.0000
0.4828 1.8621 0.0000
0.4828 1.8966 0.0000
0.4828 1.9310 0.0000
0.4828 1.9655 0.0000
0.4828 2.0000 0.0000
0.5517 1.0000 0.0000
0.5517 1.0345 0.0000
0.5517 1.0690 0.0000
0.5517 1.1034 0.0000
0.5517 1.1379 0.0000
0.5517 1.1724 0.0000
0.5517 1.2069 0.0000
0.5517 1.2414 0.0000
0.5517 1.2759 0.0000
0.5517 1.3103 0.0000
0.5517 1.3448 0.0000
0.5517 1.3793 0.0000
0.5517 1.4138 0.0000
0.5517 1.4483 0.0000
0.5517 1.4828 0.0000
0.5517 1.5172 0.0000
0.5517 1.5517 0.0000
0.5517 1.5862 0.0000
0.5517 1.6207 0.0000
0.5517 1.6552 0.0000
0.5517 1.6897 0.0000
0.5517 1.7241 0.0000
0.5517 1.7586 0.0000
0.5517 1.7931 0.0000
0.5517 1.8276 0.0000
0.5517 1.8621 0.0000
0.5517 1.8966 0.0000
0.5517 1.9310 0.0000
0.5517 1.9655 0.0000
0.5517 2.0000 0.0000
0.6207 1.0000 0.0000
0.6207 1.0345 0.0000
0.6207 1.0690 0.0000
0.6207 1.1034 0.0000
0.6207 1.1379 0.0000
0.6207 1.1724 0.0000
0.6207 1.2069 0.0000
0.6207 1.2414 0.0000
0.6207 1.2759 0.0000
0.6207 1.3103 0.0000
0.6207 1.3448 0.0000
0.6207 1.3793 0.0000
0.6207 1.4138 0.0000
0.6207 1.4483 0.0000
0.6207 1.4828 0.0000
0.6207 1.5172 0.0000
0.6207 1.5517 0.0000
0.6207 1.5862 0.0000
0.6207 1.6207 0.0000
0.6207 1.6552 0.0000
0.6207 1.6897 0.0000
0.6207 1.7241 0.0000
0.6207 1.7586 0.0000
0.6207 1.7931 0.0000
0.6207 1.8276 0.0000
0.6207 1.8621 0.0000
0.6207 1.8966 0.0000
0.6207 1.9310 0.0000
0.6207 1.9655 0.0000
0.6207 2.0000 0.0000
0.6897 1.0000 0.0000
0.6897 1.0345 0.0000
0.6897 1.0690 0.0000
0.6897 1.1034 0.0000
0.6897 1.1379 0.0000
0.6897 1.1724 0.0000
0.6897 1.2069 0.0000
0.6897 1.2414 0.0000
0.6897 1.2759 0.0000
0.6897 1.3103 0.0000
0.6897 1.3448 0.0000
0.6897 1.3793 0.0000
0.6897 1.4138 0.0000
0.6897 1.4483 0.0000
0.6897 1.4828 0.0000
0.6897 1.5172 0.0000
0.6897 1.5517 0.0000
0.6897 1.5862 0.0000
0.6897 1.6207 0.0000
0.6897 1.6552 0.0000
0.6897 1.6897 0.0000
0.6897 1.7241 0.0000
0.6897 1.7586 0.0000
0.6897 1.7931 0.0000
0.6897 1.8276 0.0000
0.6897 1.8621 0.0000
0.6897 1.8966 0.0000
0.6897 1.9310 0.0000
0.6897 1.9655 0.0000
0.6897 2.0000 0.0000
0.7586 1.0000 0.0000
0.7586 1.0345 0.0000
0.7586 1.0690 0.0000
0.7586 1.1034 0.0000
0.7586 1.1379 0.0000
0.7586 1.1724 0.0000
0.7586 1.2069 0.0000
0.7586 1.2414 0.0000
0.7586 1.2759 0.0000
0.7586 1.3103 0.0000
0.7586 1.3448 0.0000
0.7586 1.3793 0.0000
0.7586 1.4138 0.0000
0.7586 1.4483 0.0000
0.7586 1.4828 0.0000
0.7586 1.5172 0.0000
0.7586 1.5517 0.0000
0.7586 1.5862 0.0000
0.7586 1.6207 0.0000
0.7586 1.6552 0.0000
0.7586 1.6897 0.0000
0.7586 1.7241 0.0000
0.7586 1.7586 0.0000
0.7586 1.7931 0.0000
0.7586 1.8276 0.0000
0.7586 1.8621 0.0000
0.7586 1.8966 0.0000
0.7586 1.9310 0.0000
0.7586 1.9655 0.0000
0.7586 2.0000 0.0000
0.8276 1.0000 0.0000
0.8276 1.0345 0.0000
0.8276 1.0690 0.0000
0.8276 1.1034 0.0000
0.8276 1.1379 0.0000
0.8276 1.1724 0.0000
0.8276 1.2069 0.0000
0.8276 1.2414 0.0000
0.8276 1.2759 0.0000
0.8276 1.3103 0.0000
0.8276 1.3448 0.0000
0.8276 1.3793 0.0000
0.8276 1.4138 0.0000
0.8276 1.4483 0.0000
0.8276 1.4828 0.0000
0.8276 1.5172 0.0000
0.8276 1.5517 0.0000
0.8276 1.5862 0.0000
0.8276 1.6207 0.0000
0.8276 1.6552 0.0000
0.8276 1.6897 0.0000
0.8276 1.7241 0.0000
0.8276 1.7586 0.0000
0.8276 1.7931 0.0000
0.8276 1.8276 0.0000
0.8276 1.8621 0.0000
0.8276 1.8966 0.0000
0.8276 1.9310 0.0000
0.8276 1.9655 0.0000
0.8276 2.0000 0.0000
0.8966 1.0000 0.0000
0.8966 1.0345 0.0000
0.8966 1.0690 0.0000
0.8966 1.1034 0.0000
0.8966 1.1379 0.0000
0.8966 1.1724 0.0000
0.8966 1.2069 0.0000
0.8966 1.2414 0.0000
0.8966 1.2759 0.0000
0.8966 1.3103 0.0000
0.8966 1.3448 0.0000
0.8966 1.3793 0.0000
0.8966 1.4138 0.0000
0.8966 1.4483 0.0000
0.8966 1.4828 0.0000
0.8966 1.5172 0.0000
0.8966 1.5517 0.0000
0.8966 1.5862 0.0000
0.8966 1.6207 0.0000
0.8966 1.6552 0.0000
0.8966 1.6897 0.0000
0.8966 1.7241 0.0000
0.8966 1.7586 0.0000
0.8966 1.7931 0.0000
0.8966 1.8276 0.0000
0.8966 1.8621 0.0000
0.8966 1.8966 0.0000
0.8966 1.9310 0.0000
0.8966 1.9655 0.0000
0.8966 2.0000 0.0000
0.9655 1.0000 0.0000
0.9655 1.0345 0.0000
0.9655 1.0690 0.0000
0.9655 1.1034 0.0000
0.9655 1.1379 0.0000
0.9655 1.1724 0.0000
0.9655 1.2069 0.0000
0.9655 1.2414 0.0000
0.9655 1.2759 0.0000
0.9655 1.3103 0.0000
0.9655 1.3448 0.0000
0.9655 1.3793 0.0000
0.9655 1.4138 0.0000
0.9655 1.4483 0.0000
0.9655 1.4828 0.0000
0.9655 1.5172 0.0000
0.9655 1.5517 0.0000
0.9655 1.5862 0.0000
0.9655 1.6207 0.0000
0.9655 1.6552 0.0000
0.9655 1.6897 0.0000
0.9655 1.7241 0.0000
0.9655 1.7586 0.0000
0.9655 1.7931 0.0000
0.9655 1.8276 0.0000
0.9655 1.8621 0.0000
0.9655 1.8966 0.0000
0.9655 1.9310 0.0000
0.9655 1.9655 0.0000
0.9655 2.0000 0.0000
1.0345 1.0000 0.0000
1.0345 1.0345 0.0000
1.0345 1.0690 0.0000
1.0345 1.1034 0.0000
1.0345 1.1379 0.0000
1.0345 1.1724 0.0000
1.0345 1.2069 0.0000
1.0345 1.2414 0.0000
1.0345 1.2759 0.0000
1.0345 1.3103 0.0000
1.0345 1.3448 0.0000
[...]
         <PointData>
            <DataArray Name="fValues" NumberOfComponents="3" format="ascii" type="Float64">
 6.29699e-23  2.69072e-23        00000 
-1.68440e-23  1.34752e-22        00000 
 3.47012e-23  1.22148e-22        00000 
-5.88594e-24 -1.81374e-23        00000 
 3.47012e-25  3.33132e-23        00000 
 2.35270e-24  1.89144e-22        00000 
-1.28395e-23  1.44357e-22        00000 
 3.57516e-24  3.48797e-23        00000 
-2.77610e-24 -5.55220e-24        00000 
-6.30704e-23 -2.12113e-23        00000 
 5.82981e-23  2.22088e-23        00000 
-8.54551e-24 -6.60969e-23        00000 
 2.77610e-24  1.38805e-22        00000 
-3.48827e-23 -5.74650e-23        00000 
 2.22088e-23 -2.77610e-23        00000 
-1.93582e-23 -9.26055e-23        00000 
 3.05371e-23 -3.33132e-23        00000 
-1.47263e-23  1.07547e-22        00000 
 4.71937e-23 -3.33132e-23        00000 
-4.77851e-23  6.27834e-23        00000 
-2.22088e-23  1.11044e-23        00000 
 2.56797e-23  7.15599e-23        00000 
 2.77610e-23  2.77610e-23        00000 
 2.56365e-23  4.11580e-23        00000 
 5.55220e-24 -1.49909e-22        00000 
-4.64817e-24  1.19413e-22        00000 
 8.32830e-24 -1.88775e-22        00000 
-1.38032e-23 -1.53058e-22        00000 
 2.35368e-23  6.27355e-23        00000 
-1.08712e-22  3.02215e-23        00000 
 3.50999e-07  5.00339e-08        00000 
-1.06990e-07 -3.78379e-07        00000 
-1.52827e-07 -7.74737e-07        00000 
 1.12363e-07  1.39232e-06        00000 
-2.16077e-07 -4.66396e-07        00000 
-3.30275e-08  7.56141e-07        00000 
 7.28052e-08  9.53166e-07        00000 
-2.83095e-08  6.47490e-07        00000 
 1.81094e-07 -7.80512e-07        00000 
 3.15848e-07  4.31931e-07        00000 
-3.53625e-07 -3.83315e-07        00000 
 4.74899e-07  3.41727e-08        00000 
-2.75847e-07 -1.28797e-06        00000 
-1.87914e-07  2.58408e-07        00000 
-9.22378e-08  3.61751e-07        00000 
 9.53242e-08  3.80242e-07        00000 
 1.91393e-07  3.17376e-07        00000 
 2.79487e-07 -1.18268e-06        00000 
-4.72114e-07  1.83408e-07        00000 
 3.54186e-07 -2.09406e-07        00000 
-3.18440e-07  5.94536e-07        00000 
-1.86686e-07 -6.71263e-07        00000 
 2.10518e-08  6.71294e-07        00000 
-7.97278e-08  8.82422e-07        00000 
 2.82904e-08  6.08176e-07        00000 
 2.14561e-07 -6.54900e-07        00000 
-1.10632e-07  1.20639e-06        00000 
 1.57081e-07 -9.20535e-07        00000 
 1.12705e-07 -4.58778e-07        00000 
-3.48249e-07  4.74405e-08        00000 
 6.66967e-08  2.14287e-08        00000 
-1.77677e-09 -2.03608e-07        00000 
-5.93154e-07  2.75204e-07        00000 
 2.15863e-07  9.23520e-07        00000 
-4.06124e-07 -2.93430e-07        00000 
 1.74301e-07  7.58815e-07        00000 
 5.83920e-07 -3.53707e-07        00000 
-2.08309e-07  3.18697e-07        00000 
 3.32045e-07 -2.15490e-07        00000 
-5.84829e-07 -5.66855e-08        00000 
 5.84329e-08 -2.90436e-07        00000 
 6.22171e-07  2.08922e-07        00000 
 6.61326e-10 -7.22744e-07        00000 
-1.66230e-07  3.65631e-07        00000 
-6.65942e-08  4.95122e-08        00000 
 6.94974e-08  8.52974e-08        00000 
 1.69551e-07  4.80073e-07        00000 
 2.87040e-09 -5.17625e-07        00000 
-6.19430e-07  5.00616e-07        00000 
-5.78402e-08  5.02593e-08        00000 
 5.82346e-07  2.62288e-07        00000 
-3.37459e-07 -1.07443e-09        00000 
 2.01275e-07  3.65360e-07        00000 
-5.90609e-07 -4.92603e-07        00000 
-1.78844e-07  4.68646e-07        00000 
 4.04712e-07 -6.62630e-07        00000 
-2.14154e-07  5.59862e-07        00000 
 5.97261e-07 -9.60447e-09        00000 
 7.20427e-09 -3.60232e-07        00000 
-6.40951e-08  1.64984e-08        00000 
-6.31277e-07  3.55203e-07        00000 
-2.58359e-07 -3.18621e-07        00000 
-1.91522e-07  3.53838e-07        00000 
 3.54401e-07  2.42467e-08        00000 
-3.53741e-07  2.98352e-08        00000 
 2.68865e-07 -6.92340e-09        00000 
 2.73610e-08 -5.08219e-07        00000 
-8.25293e-08 -1.10159e-07        00000 
 1.94887e-07 -6.62896e-08        00000 
 6.39883e-07 -5.10593e-07        00000 
 1.31321e-07 -8.81771e-08        00000 
-3.14728e-07  1.58204e-07        00000 
 2.67424e-07 -3.70941e-07        00000 
 1.01615e-07 -4.70588e-08        00000 
-2.07407e-07  9.06400e-08        00000 
 2.09848e-07  1.41440e-07        00000 
-9.87278e-08  1.16129e-07        00000 
-2.64247e-07 -7.67159e-08        00000 
 3.17269e-07  5.78723e-07        00000 
-1.30696e-07  4.04680e-07        00000 
-6.42057e-07 -4.82545e-08        00000 
-1.99738e-07  2.44691e-07        00000 
 7.62157e-08 -4.26594e-08        00000 
-3.33300e-08 -7.09863e-07        00000 
-2.72857e-07 -4.27322e-07        00000 
 3.52576e-07 -5.03954e-07        00000 
-3.52809e-07 -5.00348e-07        00000 
 1.95170e-07 -5.61348e-08        00000 
 2.63096e-07 -5.43597e-07        00000 
 6.33536e-07  3.48138e-07        00000 
 6.11076e-08 -3.60879e-07        00000 
 4.82912e-08  6.25061e-07        00000 
 5.62359e-07  1.06332e-06        00000 
-3.40341e-07  1.75754e-07        00000 
 4.06695e-08  8.41652e-07        00000 
-2.74467e-07 -4.82593e-08        00000 
 9.86024e-07  3.83667e-07        00000 
 7.36087e-07  1.15542e-07        00000 
-1.49064e-07 -5.35456e-07        00000 
-9.48034e-08  4.15042e-07        00000 
 1.70648e-07 -9.09038e-07        00000 
-5.93465e-07  9.60921e-08        00000 
-2.81434e-07  4.42605e-07        00000 
 6.71675e-09 -5.05654e-07        00000 
-1.02201e-07 -3.39396e-07        00000 
 1.04021e-07 -2.76861e-07        00000 
-4.41332e-09 -3.03411e-07        00000 
 2.84132e-07  8.10474e-07        00000 
 5.95733e-07  6.25753e-07        00000 
-1.69982e-07 -2.85158e-07        00000 
 9.30457e-08  1.00193e-06        00000 
 1.44975e-07 -1.40360e-07        00000 
-7.41428e-07  2.00950e-07        00000 
-9.91022e-07  1.27094e-07        00000 
 2.71216e-07 -5.81568e-07        00000 
-4.15019e-08  1.66556e-07        00000 
 3.41773e-07 -4.85528e-07        00000 
-5.59330e-07  5.48151e-07        00000 
-4.44806e-08  3.43079e-07        00000 
-5.93110e-08 -3.69725e-07        00000 
 3.59295e-07  5.52829e-07        00000 
 1.28455e-07 -5.33991e-07        00000 
 2.82764e-07 -3.39051e-07        00000 
-3.09494e-07  3.27643e-07        00000 
 2.85064e-07  7.02648e-07        00000 
-4.71745e-07 -2.77155e-07        00000 
-6.99506e-07  8.46975e-07        00000 
-2.73397e-08  6.95268e-07        00000 
 2.49639e-09 -1.17424e-06        00000 
 3.64616e-07  7.61826e-07        00000 
 2.52602e-07 -2.48344e-07        00000 
-7.44978e-08 -2.40585e-07        00000 
-2.66809e-08 -3.41768e-07        00000 
 3.36576e-07 -6.07087e-08        00000 
 7.28126e-07  3.59116e-07        00000 
-7.27053e-07  4.29267e-07        00000 
-3.34976e-07  1.68404e-07        00000 
 2.87982e-08  8.02703e-08        00000 
 7.64326e-08  3.73392e-07        00000 
-2.51890e-07  4.79859e-07        00000 
-3.65871e-07  1.44949e-06        00000 
-5.66346e-09 -7.10763e-07        00000 
 2.31747e-08  7.94887e-07        00000 
 6.95682e-07  5.45364e-07        00000 
 4.69388e-07 -9.01485e-07        00000 
-2.85498e-07 -8.43573e-08        00000 
 3.10732e-07 -4.39732e-07        00000 
-2.80481e-07 -9.34241e-07        00000 
-1.25759e-07 -8.58672e-07        00000 
-3.58055e-07  5.42655e-07        00000 
 6.18055e-07 -1.43965e-08        00000 
 3.30378e-07 -5.01794e-07        00000 
 1.36408e-07  5.05254e-07        00000 
-2.12210e-07  5.60356e-07        00000 
 2.57162e-07  1.00760e-06        00000 
 4.01258e-07  2.07265e-07        00000 
-5.91822e-07 -1.97387e-07        00000 
-1.47676e-07  2.90821e-07        00000 
-1.22502e-07 -1.43525e-08        00000 
 8.61245e-07  1.76005e-07        00000 
-1.76867e-07 -1.72377e-07        00000 
-3.14745e-07 -4.12365e-07        00000 
 2.57211e-07  1.24945e-07        00000 
 9.92012e-08  8.46875e-08        00000 
 7.02853e-09 -1.59684e-07        00000 
-6.78930e-09 -8.66774e-08        00000 
-9.83908e-08  3.26575e-07        00000 
-2.55749e-07  5.78583e-07        00000 
 3.16301e-07  2.57092e-07        00000 
 1.77628e-07  6.29086e-07        00000 
-8.61936e-07  9.36745e-07        00000 
 1.20375e-07  4.99157e-07        00000 
 1.44839e-07  4.00350e-07        00000 
 5.89322e-07 -5.32499e-07        00000 
-4.02609e-07 -4.82596e-07        00000 
-2.57151e-07  1.42874e-07        00000 
 2.13226e-07 -2.77567e-07        00000 
-1.34966e-07 -1.40750e-07        00000 
-3.28936e-07 -8.52577e-07        00000 
-6.17439e-07 -2.53718e-08        00000 
 1.76030e-07 -2.63848e-08        00000 
-7.29367e-08 -6.71922e-07        00000 
-8.01763e-08  1.87335e-08        00000 
 1.39749e-07  8.05312e-07        00000 
-1.13635e-07  7.65144e-09        00000 
-3.70732e-07  3.91722e-07        00000 
 4.18544e-07  5.88848e-07        00000 
-1.70027e-07  3.77098e-08        00000 
 9.11341e-07 -3.90008e-07        00000 
 2.16193e-07 -4.15081e-07        00000 
 3.61735e-07  2.13537e-07        00000 
 7.26197e-07 -9.16688e-07        00000 
 1.77984e-07  1.82807e-07        00000 
-1.11052e-07  2.35353e-07        00000 
 1.81682e-07  3.33074e-07        00000 
-1.82325e-07  4.03771e-07        00000 
 1.11023e-07  4.74694e-07        00000 
-1.77225e-07  6.43440e-07        00000 
-7.25054e-07 -2.23277e-07        00000 
-3.60929e-07  1.05421e-06        00000 
-2.16284e-07  3.88330e-07        00000 
-9.12355e-07  1.53395e-07        00000 
 1.68614e-07  1.52437e-07        00000 
-4.19627e-07  2.32914e-07        00000 
 3.70453e-07 -3.35700e-07        00000 
 1.14116e-07 -8.97328e-07        00000 
-1.38976e-07 -6.42852e-08        00000 
 8.07194e-08 -6.46183e-07        00000 
 7.30452e-08 -1.03070e-06        00000 
-1.76078e-07 -3.75862e-08        00000 
 2.57289e-07 -1.29293e-07        00000 
 2.54752e-07  8.18624e-08        00000 
 4.22752e-08 -1.13388e-07        00000 
 6.27945e-07 -3.00277e-07        00000 
 4.05260e-07  7.69030e-07        00000 
-3.31630e-07  5.89068e-07        00000 
-2.81249e-07  4.70113e-07        00000 
-3.54741e-07 -3.63100e-07        00000 
 2.20829e-07  8.92299e-07        00000 
-1.90241e-08  2.88722e-07        00000 
-5.87772e-07  4.56904e-07        00000 
 8.39155e-08 -2.18431e-07        00000 
 3.83360e-08  2.06910e-07        00000 
 1.63868e-07 -1.42346e-08        00000 
-1.64145e-07  2.12429e-07        00000 
 1.62614e-07  2.75501e-07        00000 
-1.64748e-07  2.06753e-07        00000 
-3.82969e-08  6.49061e-07        00000 
-8.32014e-08  4.66160e-07        00000 
 5.88616e-07  1.30128e-06        00000 
 1.95433e-08  1.10303e-06        00000 
-2.20704e-07  1.44453e-06        00000 
 3.54784e-07 -2.48088e-07        00000 
 2.81611e-07  1.06639e-07        00000 
 3.32440e-07 -1.46697e-07        00000 
-4.04308e-07 -1.37165e-07        00000 
-6.27426e-07 -1.16112e-06        00000 
-4.26477e-08 -7.64100e-07        00000 
-2.55995e-07 -2.66120e-07        00000 
-2.58010e-07 -1.40125e-07        00000 
-3.36921e-07 -9.16706e-08        00000 
 5.10492e-07  5.55173e-07        00000 
-3.95536e-07  1.69766e-07        00000 
-5.17836e-07 -2.10792e-07        00000 
-5.99101e-07  2.77885e-07        00000 
 1.79795e-07  4.84804e-08        00000 
 2.72577e-08  1.28269e-06        00000 
 1.20272e-07 -2.58566e-07        00000 
 1.12450e-07 -4.42763e-07        00000 
 1.37117e-07 -2.66698e-07        00000 
 2.87751e-07 -3.80699e-07        00000 
-4.49411e-07  8.85051e-08        00000 
 3.43020e-08 -6.45869e-07        00000 
-1.11594e-07 -1.07951e-07        00000 
 1.33745e-07  4.46335e-07        00000 
-1.36126e-07  4.96580e-07        00000 
 1.09893e-07  7.91670e-08        00000 
-3.49686e-08 -2.47344e-07        00000 
 4.49694e-07  7.31755e-07        00000 
-2.86881e-07  4.31993e-07        00000 
-1.36008e-07  5.26739e-07        00000 
-1.11211e-07  9.72214e-08        00000 
-1.18802e-07 -1.48160e-07        00000 
-2.54841e-08  9.24986e-07        00000 
-1.77930e-07 -6.66442e-07        00000 
 6.00501e-07 -5.90646e-07        00000 
 5.18099e-07 -1.02273e-06        00000 
 3.94271e-07 -4.33945e-07        00000 
-5.13043e-07  2.36550e-07        00000 
 3.35552e-07 -1.01544e-07        00000 
-2.14459e-07 -5.27821e-07        00000 
-1.50483e-07  4.93185e-07        00000 
 5.06574e-07  3.08121e-07        00000 
 3.73684e-07  1.30191e-06        00000 
-6.33480e-07 -2.83794e-07        00000 
-8.16602e-07  3.09505e-07        00000 
 5.40256e-08 -7.69862e-08        00000 
-1.43286e-07 -5.03814e-07        00000 
-5.61264e-07 -8.11644e-07        00000 
-6.56475e-07 -1.41200e-07        00000 
 9.57443e-08  2.70135e-07        00000 
 2.54898e-07 -5.06298e-07        00000 
 1.24089e-07  2.41025e-07        00000 
-3.73725e-07  2.22253e-07        00000 
-6.23395e-07 -5.75086e-09        00000 
 6.20247e-07  2.68423e-08        00000 
 3.71271e-07  3.61038e-07        00000 
-1.25417e-07  5.72314e-07        00000 
-2.55030e-07  6.48321e-08        00000 
-9.48658e-08  1.01744e-06        00000 
 6.58128e-07  6.01005e-07        00000 
 5.63545e-07 -3.04078e-07        00000 
 1.46091e-07 -4.02667e-07        00000 
-5.09359e-08 -4.16148e-07        00000 
 8.19442e-07 -3.56698e-07        00000 
 6.35283e-07 -1.07768e-06        00000 
-3.73670e-07  5.76894e-07        00000 
-5.08668e-07 -2.17635e-07        00000 
 1.46728e-07  2.21403e-07        00000 
 2.12495e-07 -5.36182e-07        00000 
 6.84487e-07 -2.59138e-07        00000 
 1.34110e-08 -5.25062e-07        00000 
 3.25452e-08  2.96934e-07        00000 
-1.76429e-07  1.47996e-06        00000 
-5.67177e-07  3.63163e-07        00000 
 4.87772e-07 -3.40954e-07        00000 
 1.20108e-07  5.84657e-08        00000 
 4.96625e-07 -2.23773e-07        00000 
-4.42041e-07 -1.72923e-07        00000 
 3.78682e-08 -1.34978e-06        00000 
-1.12971e-07 -3.39939e-07        00000 
-4.25521e-07  2.32597e-07        00000 
-6.67665e-07  7.15981e-07        00000 
 9.12752e-08  4.38429e-07        00000 
-1.62975e-07  3.99445e-08        00000 
 1.59179e-07  5.06852e-08        00000 
-9.43800e-08  5.16195e-07        00000 
 6.65746e-07  9.59088e-07        00000 
 4.25002e-07  7.03987e-07        00000 
 1.13837e-07  3.11449e-07        00000 
-3.57431e-08 -6.86463e-07        00000 
 4.45246e-07  2.83821e-07        00000 
-4.92632e-07 -1.36095e-07        00000 
-1.15856e-07 -2.50457e-07        00000 
-4.84084e-07 -9.33082e-07        00000 
 5.69317e-07 -3.22651e-07        00000 
 1.76209e-07  8.76028e-07        00000 
-3.53681e-08 -1.23202e-07        00000 
-1.82066e-08 -7.34434e-07        00000 
-6.86964e-07 -2.65495e-07        00000 
 1.40260e-07 -1.35026e-07        00000 
-4.40637e-07 -6.41427e-08        00000 
-2.05848e-07 -3.27199e-07        00000 
 2.86668e-07 -3.09518e-07        00000 
 3.28001e-07 -4.20268e-07        00000 
-2.37618e-08  1.33146e-07        00000 
-1.83601e-07  3.17259e-08        00000 
 2.92650e-07  2.23119e-07        00000 
-2.83616e-07  4.20726e-07        00000 
-3.82445e-07 -1.00623e-07        00000 
-1.51716e-07 -6.06221e-08        00000 
 1.33461e-08  2.75228e-07        00000 
-5.74464e-07  3.48905e-07        00000 
-1.20414e-07  5.60204e-07        00000 
 1.00231e-07  1.29307e-07        00000 
-1.04521e-07  1.14842e-07        00000 
 1.16793e-07  5.66695e-07        00000 
 5.72051e-07  4.86564e-07        00000 
-1.42102e-08  6.23687e-07        00000 
 1.52547e-07  4.68855e-07        00000 
 3.84948e-07  4.60044e-07        00000 
 2.87588e-07  8.10794e-07        00000 
-2.87667e-07  2.93753e-07        00000 
 1.88813e-07 -2.36825e-07        00000 
 2.81329e-08 -3.63165e-07        00000 
-3.25610e-07 -9.69615e-07        00000 
-2.87099e-07 -7.63628e-07        00000 
 2.02427e-07 -6.18637e-07        00000 
 4.35010e-07 -1.98196e-07        00000 
-1.43143e-07 -1.38970e-07        00000 
-8.31357e-08 -7.25271e-07        00000 
 3.65956e-07  1.12211e-06        00000 
 3.19961e-07 -6.38670e-07        00000 
-1.45493e-07  3.27766e-07        00000 
 1.32341e-07 -4.00927e-07        00000 
-2.06373e-07  1.13676e-06        00000 
 2.49780e-07  1.96334e-07        00000 
-4.28377e-07  6.52719e-07        00000 
-2.66591e-08 -5.58921e-08        00000 
-1.30525e-07  9.91368e-08        00000 
-2.31059e-07  1.43112e-07        00000 
-6.92587e-07 -1.76211e-07        00000 
-3.87883e-07 -2.72715e-07        00000 
 1.92962e-07  1.52375e-07        00000 
-2.59945e-07  3.12361e-07        00000 
 2.55343e-07  2.70364e-07        00000 
-1.96939e-07  8.02990e-08        00000 
 3.85093e-07 -2.53231e-07        00000 
 6.91431e-07  3.16255e-08        00000 
 2.31828e-07  5.30347e-07        00000 
 1.33295e-07  5.38294e-07        00000 
 3.12108e-08  2.54859e-07        00000 
 4.34113e-07  7.03523e-07        00000 
-2.43852e-07 -2.36925e-08        00000 
 2.11231e-07  7.53459e-07        00000 
-1.29799e-07 -7.91706e-07        00000 
 1.44880e-07  4.54840e-08        00000 
-3.23821e-07 -7.84010e-07        00000 
-3.72165e-07  1.07300e-06        00000 
 7.99738e-08 -7.26498e-07        00000 
-3.34576e-07  4.29173e-08        00000 
 2.15125e-07  1.92211e-08        00000 
-5.02023e-07 -5.51654e-07        00000 
-2.64853e-07 -3.34674e-07        00000 
 2.86179e-07 -9.00679e-08        00000 
-6.84137e-08  6.09874e-07        00000 
 7.20020e-08  6.27522e-07        00000 
 8.47568e-08 -3.13698e-08        00000 
 4.47190e-07 -6.45536e-07        00000 
-3.87815e-08  1.29928e-07        00000 
 2.34235e-07 -2.48085e-07        00000 
-1.96357e-07  5.91919e-07        00000 
-1.62073e-07 -1.29690e-07        00000 
-3.30576e-07  4.09684e-08        00000 
-9.88643e-08 -7.31160e-07        00000 
 9.41498e-08 -8.01841e-07        00000 
 3.26420e-07 -1.13586e-07        00000 
 1.59036e-07 -2.35924e-07        00000 
 1.94970e-07  6.47769e-07        00000 
-2.33556e-07 -1.68823e-08        00000 
 4.16937e-08  4.34396e-07        00000 
-4.42270e-07 -4.23014e-07        00000 
-7.85361e-08 -2.27074e-09        00000 
-6.56319e-08  4.61867e-07        00000 
 7.35388e-08  3.51527e-07        00000 
-2.83595e-07 -3.07442e-07        00000 
 2.64090e-07 -4.30881e-07        00000 
 4.97901e-07 -5.40011e-07        00000 
-2.21637e-07  6.09330e-08        00000 
 3.31276e-07  4.45884e-08        00000 
-1.45488e-07  5.72527e-07        00000 
-1.38647e-08 -1.84782e-07        00000 
 8.62403e-09  3.59210e-08        00000 
 2.74692e-07 -8.21220e-07        00000 
 3.15185e-07  3.40842e-08        00000 
 2.76348e-07 -2.71633e-07        00000 
 1.51526e-08  3.95006e-07        00000 
-1.55700e-07  5.35373e-08        00000 
-8.70407e-08 -8.53166e-08        00000 
 1.75255e-07  8.50553e-07        00000 
 4.29250e-08 -1.88315e-07        00000 
 1.24465e-07  9.67057e-09        00000 
 3.43553e-07  7.24195e-07        00000 
-8.76743e-08  7.76179e-07        00000 
 8.51157e-08 -5.30886e-07        00000 
-8.97326e-08 -6.30148e-07        00000 
 8.35260e-08  5.38871e-07        00000 
-3.46698e-07  4.90305e-07        00000 
-1.26017e-07 -9.09722e-08        00000 
-4.23636e-08 -1.19805e-07        00000 
-1.72333e-07  1.01335e-06        00000 
 9.21034e-08  4.41411e-08        00000 
 1.62120e-07  6.00494e-08        00000 
-8.63120e-09  2.87047e-07        00000 
-2.71188e-07 -3.98833e-07        00000 
-3.12673e-07 -2.94851e-09        00000 
-2.75566e-07 -7.25525e-07        00000 
-1.28210e-08  2.08375e-07        00000 
 7.34390e-09 -5.04491e-08        00000 
 1.42198e-07  5.77151e-07        00000 
-5.71129e-08  6.80993e-07        00000 
-2.55229e-07  2.54130e-07        00000 
 1.86734e-07  4.82905e-07        00000 
-4.11932e-08  1.59072e-07        00000 
-5.21267e-07  4.37936e-07        00000 
-3.41644e-07 -7.45592e-07        00000 
 1.02745e-07 -2.00317e-07        00000 
-1.86418e-07 -1.24822e-07        00000 
-4.87299e-07 -1.54104e-07        00000 
 2.06204e-07  1.49208e-07        00000 
-3.03892e-07 -1.97503e-07        00000 
 5.23307e-08 -2.57167e-07        00000 
 5.08844e-07  7.01994e-08        00000 
-3.45268e-07 -3.55995e-07        00000 
 1.38608e-07 -2.83839e-07        00000 
-1.42917e-07 -4.10292e-07        00000 
 3.41316e-07 -6.72601e-07        00000 