<?xml version="1.0" encoding="utf-8"?>
<VTKFile byte_order="LittleEndian" type="UnstructuredGrid" version="0.1">
   <UnstructuredGrid>
      <Piece NumberOfCells="3364" NumberOfPoints="1741">
         <Points>
            <DataArray Name="Points" NumberOfComponents="3" format="ascii" type="Float32">
0.0000 1.0000 0.0000
0.0000 1.0345 0.0000
0.0000 1.0690 0.0000
0.0000 1.1034 0.0000
0.0000 1.1379 0.0000
0.0000 1.1724 0.0000
0.0000 1.2069 0.0000
0.0000 1.2414 0.0000
0.0000 1.2759 0.0000
0.0000 1.3103 0.0000
0.0000 1.3448 0.0000
0.0000 1.3793 0.0000
0.0000 1.4138 0.0000
0.0000 1.4483 0.0000
0.0000 1.4828 0.0000
0.0000 1.5172 0.0000
0.0000 1.5517 0.0000
0.0000 1.5862 0.0000
0.0000 1.6207 0.0000
0.0000 1.6552 0.0000
0.0000 1.6897 0.0000
0.0000 1.7241 0.0000
0.0000 1.7586 0.0000
0.0000 1.7931 0.0000
0.0000 1.8276 0.0000
0.0000 1.8621 0.0000
0.0000 1.8966 0.0000
0.0000 1.9310 0.0000
0.0000 1.9655 0.0000
0.0000 2.0000 0.0000
0.0690 1.0000 0.0000
0.0690 1.0345 0.0000
0.0690 1.0690 0.0000
0.0690 1.1034 0.0000
0.0690 1.1379 0.0000
0.0690 1.1724 0.0000
0.0690 1.2069 0.0000
0.0690 1.2414 0.0000
0.0690 1.2759 0.0000
0.0690 1.3103 0.0000
0.0690 1.3448 0.0000
0.0690 1.3793 0.0000
0.0690 1.4138 0.0000
0.0690 1.4483 0.0000
0.0690 1.4828 0.0000
0.0690 1.5172 0.0000
0.0690 1.5517 0.0000
0.0690 1.5862 0.0000
0.0690 1.6207 0.0000
0.0690 1.6552 0.0000
0.0690 1.6897 0.0000
0.0690 1.7241 0.0000
0.0690 1.7586 0.0000
0.0690 1.7931 0.0000
0.0690 1.8276 0.0000
0.0690 1.8621 0.0000
0.0690 1.8966 0.0000
0.0690 1.9310 0.0000
0.0690 1.9655 0.0000
0.0690 2.0000 0.0000
0.1379 1.0000 0.0000
0.1379 1.0345 0.0000
0.1379 1.0690 0.0000
0.1379 1.1034 0.0000
0.1379 1.1379 0.0000
0.1379 1.1724 0.0000
0.1379 1.2069 0.0000
0.1379 1.2414 0.0000
0.1379 1.2759 0.0000
0.1379 1.3103 0.0000
0.1379 1.3448 0.0000
0.1379 1.3793 0.0000
0.1379 1.4138 0.0000
0.1379 1.4483 0.0000
0.1379 1.4828 0.0000
0.1379 1.5172 0.0000
0.1379 1.5517 0.0000
0.1379 1.5862 0.0000
0.1379 1.6207 0.0000
0.1379 1.6552 0.0000
0.1379 1.6897 0.0000
0.1379 1.7241 0.0000
0.1379 1.7586 0.0000
0.1379 1.7931 0.0000
0.1379 1.8276 0.0000
0.1379 1.8621 0.0000
0.1379 1.8966 0.0000
0.1379 1.9310 0.0000
0.1379 1.9655 0.0000
0.1379 2.0000 0.0000
0.2069 1.0000 0.0000
0.2069 1.0345 0.0000
0.2069 1.0690 0.0000
0.2069 1.1034 0.0000
0.2069 1.1379 0.0000
0.2069 1.1724 0.0000
0.2069 1.2069 0.0000
0.2069 1.2414 0.0000
0.2069 1.2759 0.0000
0.2069 1.3103 0.0000
0.2069 1.3448 0.0000
0.2069 1.3793 0.0000
0.2069 1.4138 0.0000
0.2069 1.4483 0.0000
0.2069 1.4828 0.0000
0.2069 1.5172 0.0000
0.2069 1.5517 0.0000
0.2069 1.5862 0.0000
0.2069 1.6207 0.0000
0.2069 1.6552 0.0000
0.2069 1.6897 0.0000
0.2069 1.7241 0.0000
0.2069 1.7586 0.0000
0.2069 1.7931 0.0000
0.2069 1.8276 0.0000
0.2069 1.8621 0.0000
0.2069 1.8966 0.0000
0.2069 1.9310 0.0000
0.2069 1.9655 0.0000
0.2069 2.0000 0.0000
0.2759 1.0000 0.0000
0.2759 1.0345 0.0000
0.2759 1.0690 0.0000
0.2759 1.1034 0.0000
0.2759 1.1379 0.0000
0.2759 1.1724 0.0000
0.2759 1.2069 0.0000
0.2759 1.2414 0.0000
0.2759 1.2759 0.0000
0.2759 1.3103 0.0000
0.2759 1.3448 0.0000
0.2759 1.3793 0.0000
0.2759 1.4138 0.0000
0.2759 1.4483 0.0000
0.2759 1.4828 0.0000
0.2759 1.5172 0.0000
0.2759 1.5517 0.0000
0.2759 1.5862 0.0000
0.2759 1.6207 0.0000
0.2759 1.6552 0.0000
0.2759 1.6897 0.0000
0.2759 1.7241 0.0000
0.2759 1.7586 0.0000
0.2759 1.7931 0.0000
0.2759 1.8276 0.0000
0.2759 1.8621 0.0000
0.2759 1.8966 0.0000
0.2759 1.9310 0.0000
0.2759 1.9655 0.0000
0.2759 2.0000 0.0000
0.3448 1.0000 0.0000
0.3448 1.0345 0.0000
0.3448 1.0690 0.0000
0.3448 1.1034 0.0000
0.3448 1.1379 0.0000
0.3448 1.1724 0.0000
0.3448 1.2069 0.0000
0.3448 1.2414 0.0000
0.3448 1.2759 0.0000
0.3448 1.3103 0.0000
0.3448 1.3448 0.0000
0.3448 1.3793 0.0000
0.3448 1.4138 0.0000
0.3448 1.4483 0.0000
0.3448 1.4828 0.0000
0.3448 1.5172 0.0000
0.3448 1.5517 0.0000
0.3448 1.5862 0.0000
0.3448 1.6207 0.0000
0.3448 1.6552 0.0000
0.3448 1.6897 0.0000
0.3448 1.7241 0.0000
0.3448 1.7586 0.0000
0.3448 1.7931 0.0000
0.3448 1.8276 0.0000
0.3448 1.8621 0.0000
0.3448 1.8966 0.0000
0.3448 1.9310 0.0000
0.3448 1.9655 0.0000
0.3448 2.0000 0.0000
0.4138 1.0000 0.0000
0.4138 1.0345 0.0000
0.4138 1.0690 0.0000
0.4138 1.1034 0.0000
0.4138 1.1379 0.0000
0.4138 1.1724 0.0000
0.4138 1.2069 0.0000
0.4138 1.2414 0.0000
0.4138 1.2759 0.0000
0.4138 1.3103 0.0000
0.4138 1.3448 0.0000
0.4138 1.3793 0.0000
0.4138 1.4138 0.0000
0.4138 1.4483 0.0000
0.4138 1.4828 0.0000
0.4138 1.5172 0.0000
0.4138 1.5517 0.0000
0.4138 1.5862 0.0000
0.4138 1.6207 0.0000
0.4138 1.6552 0.0000
0.4138 1.6897 0.0000
0.4138 1.7241 0.0000
0.4138 1.7586 0.0000
0.4138 1.7931 0.0000
0.4138 1.8276 0.0000
0.4138 1.8621 0.0000
0.4138 1.8966 0.0000
0.4138 1.9310 0.0000
0.4138 1.9655 0.0000
0.4138 2.0000 0.0000
0.4828 1.0000 0.0000
0.4828 1.0345 0.0000
0.4828 1.0690 0.0000
0.4828 1.1034 0.0000
0.4828 1.1379 0.0000
0.4828 1.1724 0.0000
0.4828 1.2069 0.0000
0.4828 1.2414 0.0000
0.4828 1.2759 0.0000
0.4828 1.3103 0.0000
0.4828 1.3448 0.0000
0.4828 1.3793 0.0000
0.4828 1.4138 0.0000
0.4828 1.4483 0.0000
0.4828 1.4828 0.0000
0.4828 1.5172 0.0000
0.4828 1.5517 0.0000
0.4828 1.5862 0.0000
0.4828 1.6207 0.0000
0.4828 1.6552 0.0000
0.4828 1.6897 0.0000
0.4828 1.7241 0.0000
0.4828 1.7586 0.0000
0.4828 1.7931 0.0000
0.4828 1.8276 0.0000
0.4828 1.8621 0.0000
0.4828 1.8966 0.0000
0.4828 1.9310 0.0000
0.4828 1.9655 0.0000
0.4828 2.0000 0.0000
0.5517 1.0000 0.0000
0.5517 1.0345 0.0000
0.5517 1.0690 0.0000
0.5517 1.1034 0.0000
0.5517 1.1379 0.0000
0.5517 1.1724 0.0000
0.5517 1.2069 0.0000
0.5517 1.2414 0.0000
0.5517 1.2759 0.0000
0.5517 1.3103 0.0000
0.5517 1.3448 0.0000
0.5517 1.3793 0.0000
0.5517 1.4138 0.0000
0.5517 1.4483 0.0000
0.5517 1.4828 0.0000
0.5517 1.5172 0.0000
0.5517 1.5517 0.0000
0.5517 1.5862 0.0000
0.5517 1.6207 0.0000
0.5517 1.6552 0.0000
0.5517 1.6897 0.0000
0.5517 1.7241 0.0000
0.5517 1.7586 0.0000
0.5517 1.7931 0.0000
0.5517 1.8276 0.0000
0.5517 1.8621 0.0000
0.5517 1.8966 0.0000
0.5517 1.9310 0.0000
0.5517 1.9655 0.0000
0.5517 2.0000 0.0000
0.6207 1.0000 0.0000
0.6207 1.0345 0.0000
0.6207 1.0690 0.0000
0.6207 1.1034 0.0000
0.6207 1.1379 0.0000
0.6207 1.1724 0.0000
0.6207 1.2069 0.0000
0.6207 1.2414 0.0000
0.6207 1.2759 0.0000
0.6207 1.3103 0.0000
0.6207 1.3448 0.0000
0.6207 1.3793 0.0000
0.6207 1.4138 0.0000
0.6207 1.4483 0.0000
0.6207 1.4828 0.0000
0.6207 1.5172 0.0000
0.6207 1.5517 0.0000
0.6207 1.5862 0.0000
0.6207 1.6207 0.0000
0.6207 1.6552 0.0000
0.6207 1.6897 0.0000
0.6207 1.7241 0.0000
0.6207 1.7586 0.0000
0.6207 1.7931 0.0000
0.6207 1.8276 0.0000
0.6207 1.8621 0.0000
0.6207 1.8966 0.0000
0.6207 1.9310 0.0000
0.6207 1.9655 0.0000
0.6207 2.0000 0.0000
0.6897 1.0000 0.0000
0.6897 1.0345 0.0000
0.6897 1.0690 0.0000
0.6897 1.1034 0.0000
0.6897 1.1379 0.0000
0.6897 1.1724 0.0000
0.6897 1.2069 0.0000
0.6897 1.2414 0.0000
0.6897 1.2759 0.0000
0.6897 1.3103 0.0000
0.6897 1.3448 0.0000
0.6897 1.3793 0.0000
0.6897 1.4138 0.0000
0.6897 1.4483 0.0000
0.6897 1.4828 0.0000
0.6897 1.5172 0.0000
0.6897 1.5517 0.0000
0.6897 1.5862 0.0000
0.6897 1.6207 0.0000
0.6897 1.6552 0.0000
0.6897 1.6897 0.0000
0.6897 1.7241 0.0000
0.6897 1.7586 0.0000
0.6897 1.7931 0.0000
0.6897 1.8276 0.0000
0.6897 1.8621 0.0000
0.6897 1.8966 0.0000
0.6897 1.9310 0.0000
0.6897 1.9655 0.0000
0.6897 2.0000 0.0000
0.7586 1.0000 0.0000
0.7586 1.0345 0.0000
0.7586 1.0690 0.0000
0.7586 1.1034 0.0000
0.7586 1.1379 0.0000
0.7586 1.1724 0.0000
0.7586 1.2069 0.0000
0.7586 1.2414 0.0000
0.7586 1.2759 0.0000
0.7586 1.3103 0.0000
0.7586 1.3448 0.0000
0.7586 1.3793 0.0000
0.7586 1.4138 0.0000
0.7586 1.4483 0.0000
0.7586 1.4828 0.0000
0.7586 1.5172 0.0000
0.7586 1.5517 0.0000
0.7586 1.5862 0.0000
0.7586 1.6207 0.0000
0.7586 1.6552 0.0000
0.7586 1.6897 0.0000
0.7586 1.7241 0.0000
0.7586 1.7586 0.0000
0.7586 1.7931 0.0000
0.7586 1.8276 0.0000
0.7586 1.8621 0.0000
0.7586 1.8966 0.0000
0.7586 1.9310 0.0000
0.7586 1.9655 0.0000
0.7586 2.0000 0.0000
0.8276 1.0000 0.0000
0.8276 1.0345 0.0000
0.8276 1.0690 0.0000
0.8276 1.1034 0.0000
0.8276 1.1379 0.0000
0.8276 1.1724 0.0000
0.8276 1.2069 0.0000
0.8276 1.2414 0.0000
0.8276 1.2759 0.0000
0.8276 1.3103 0.0000
0.8276 1.3448 0.0000
0.8276 1.3793 0.0000
0.8276 1.4138 0.0000
0.8276 1.4483 0.0000
0.8276 1.4828 0.0000
0.8276 1.5172 0.0000
0.8276 1.5517 0.0000
0.8276 1.5862 0.0000
0.8276 1.6207 0.0000
0.8276 1.6552 0.0000
0.8276 1.6897 0.0000
0.8276 1.7241 0.0000
0.8276 1.7586 0.0000
0.8276 1.7931 0.0000
0.8276 1.8276 0.0000
0.8276 1.8621 0.0000
0.8276 1.8966 0.0000
0.8276 1.9310 0.0000
0.8276 1.9655 0.0000
0.8276 2.0000 0.0000
0.8966 1.0000 0.0000
0.8966 1.0345 0.0000
0.8966 1.0690 0.0000
0.8966 1.1034 0.0000
0.8966 1.1379 0.0000
0.8966 1.1724 0.0000
0.8966 1.2069 0.0000
0.8966 1.2414 0.0000
0.8966 1.2759 0.0000
0.8966 1.3103 0.0000
0.8966 1.3448 0.0000
0.8966 1.3793 0.0000
0.8966 1.4138 0.0000
0.8966 1.4483 0.0000
0.8966 1.4828 0.0000
0.8966 1.5172 0.0000
0.8966 1.5517 0.0000
0.8966 1.5862 0.0000
0.8966 1.6207 0.0000
0.8966 1.6552 0.0000
0.8966 1.6897 0.0000
0.8966 1.7241 0.0000
0.8966 1.7586 0.0000
0.8966 1.7931 0.0000
0.8966 1.8276 0.0000
0.8966 1.8621 0.0000
0.8966 1.8966 0.0000
0.8966 1.9310 0.0000
0.8966 1.9655 0.0000
0.8966 2.0000 0.0000
0.9655 1.0000 0.0000
0.9655 1.0345 0.0000
0.9655 1.0690 0.0000
0.9655 1.1034 0.0000
0.9655 1.1379 0.0000
0.9655 1.1724 0.0000
0.9655 1.2069 0.0000
0.9655 1.2414 0.0000
0.9655 1.2759 0.0000
0.9655 1.3103 0.0000
0.9655 1.3448 0.0000
0.9655 1.3793 0.0000
0.9655 1.4138 0.0000
0.9655 1.4483 0.0000
0.9655 1.4828 0.0000
0.9655 1.5172 0.0000
0.9655 1.5517 0.0000
0.9655 1.5862 0.0000
0.9655 1.6207 0.0000
0.9655 1.6552 0.0000
0.9655 1.6897 0.0000
0.9655 1.7241 0.0000
0.9655 1.7586 0.0000
0.9655 1.7931 0.0000
0.9655 1.8276 0.0000
0.9655 1.8621 0.0000
0.9655 1.8966 0.0000
0.9655 1.9310 0.0000
0.9655 1.9655 0.0000
0.9655 2.0000 0.0000
1.0345 1.0000 0.0000
1.0345 1.0345 0.0000
1.0345 1.0690 0.0000
1.0345 1.1034 0.0000
1.0345 1.1379 0.0000
1.0345 1.1724 0.0000
1.0345 1.2069 0.0000
1.0345 1.2414 0.0000
1.0345 1.2759 0.0000
1.0345 1.3103 0.0000
1.0345 1.3448 0.0000
[...]
         <PointData>
            <DataArray Name="fValues" NumberOfComponents="3" format="ascii" type="Float64">
-1.65285e-40  5.19197e-39        00000 
 8.98838e-41 -6.39972e-39        00000 
 1.63516e-40  1.02882e-38        00000 
-6.68864e-40 -1.76026e-38        00000 
 1.52313e-39  2.94047e-38        00000 
-2.80592e-39 -4.67765e-38        00000 
 4.52634e-39  7.04058e-38        00000 
-6.56971e-39 -1.00145e-37        00000 
 8.66465e-39  1.34705e-37        00000 
-1.03932e-38 -1.71654e-37        00000 
 1.12577e-38  2.07792e-37        00000 
-1.07983e-38 -2.39787e-37        00000 
 8.73184e-39  2.64813e-37        00000 
-5.06645e-39 -2.80936e-37        00000 
 1.47144e-40  2.87148e-37        00000 
 5.39213e-39 -2.83193e-37        00000 
-1.07624e-38  2.69430e-37        00000 
 1.52003e-38 -2.46851e-37        00000 
-1.81397e-38  2.17208e-37        00000 
 1.93233e-38 -1.83019e-37        00000 
-1.88251e-38  1.47290e-37        00000 
 1.69885e-38 -1.13004e-37        00000 
-1.43091e-38  8.25644e-38        00000 
 1.13039e-38 -5.74278e-38        00000 
-8.40737e-39  3.80435e-38        00000 
 5.91464e-39 -2.40508e-38        00000 
-3.97578e-39  1.46129e-38        00000 
 2.62797e-39 -8.75389e-39        00000 
-1.84581e-39  5.61895e-39        00000 
 1.59074e-39 -4.63988e-39        00000 
 6.32146e-40 -1.32988e-38        00000 
-4.34965e-40  1.66453e-38        00000 
-2.45470e-40 -2.75265e-38        00000 
 1.65427e-39  4.83336e-38        00000 
-4.12344e-39 -8.25493e-38        00000 
 7.94794e-39  1.33855e-37        00000 
-1.32140e-38 -2.04801e-37        00000 
 1.96171e-38  2.95302e-37        00000 
-2.63368e-38 -4.01513e-37        00000 
 3.20515e-38  5.15739e-37        00000 
-3.51426e-38 -6.27666e-37        00000 
 3.40794e-38  7.26579e-37        00000 
-2.78851e-38 -8.03591e-37        00000 
 1.65314e-38  8.52904e-37        00000 
-1.10338e-39 -8.71746e-37        00000 
-1.63525e-38  8.59540e-37        00000 
 3.32730e-38 -8.17304e-37        00000 
-4.71825e-38  7.47827e-37        00000 
 5.62636e-38 -6.56312e-37        00000 
-5.97225e-38  5.50592e-37        00000 
 5.78522e-38 -4.40268e-37        00000 
-5.18121e-38  3.34910e-37        00000 
 4.32291e-38 -2.42120e-37        00000 
-3.37649e-38  1.66321e-37        00000 
 2.47796e-38 -1.08621e-37        00000 
-1.71607e-38  6.75684e-38        00000 
 1.13208e-38 -4.02969e-38        00000 
-7.31601e-39  2.36143e-38        00000 
 5.01719e-39 -1.47971e-38        00000 
-4.27218e-39  1.20631e-38        00000 
-4.32243e-39  6.20850e-38        00000 
 3.40251e-39 -7.92157e-38        00000 
-9.66815e-41  1.35622e-37        00000 
-7.12443e-39 -2.45746e-37        00000 
 2.04051e-38  4.31178e-37        00000 
-4.17964e-38 -7.15712e-37        00000 
 7.22083e-38  1.11728e-36        00000 
-1.10222e-37 -1.63813e-36        00000 
 1.51193e-37  2.25689e-36        00000 
-1.87194e-37 -2.92717e-36        00000 
 2.08193e-37  3.58530e-36        00000 
-2.04445e-37 -4.16523e-36        00000 
 1.69498e-37  4.61375e-36        00000 
-1.02792e-37 -4.89849e-36        00000 
 1.08090e-38  5.00608e-36        00000 
 9.38417e-38 -4.93492e-36        00000 
-1.95256e-37  4.69015e-36        00000 
 2.78104e-37 -4.28567e-36        00000 
-3.31269e-37  3.75010e-36        00000 
 3.50127e-37 -3.12974e-36        00000 
-3.36864e-37  2.48330e-36        00000 
 2.98973e-37 -1.86957e-36        00000 
-2.46654e-37  1.33439e-36        00000 
 1.90068e-37 -9.02971e-37        00000 
-1.37284e-37  5.79696e-37        00000 
 9.33070e-38 -3.53678e-37        00000 
-6.01880e-38  2.06269e-37        00000 
 3.78517e-38 -1.17702e-37        00000 
-2.52034e-38  7.15988e-38        00000 
 2.11362e-38 -5.74318e-38        00000 
 2.84124e-38 -2.95817e-37        00000 
-2.42295e-38  3.84997e-37        00000 
 8.30384e-39 -6.82698e-37        00000 
 2.89760e-38  1.27708e-36        00000 
-1.01541e-37 -2.30369e-36        00000 
 2.23593e-37  3.91832e-36        00000 
-4.03111e-37 -6.24763e-36        00000 
 6.33989e-37  9.32378e-36        00000 
-8.89539e-37 -1.30271e-35        00000 
 1.12116e-36  1.70703e-35        00000 
-1.26520e-36 -2.10480e-35        00000 
 1.25814e-36  2.45396e-35        00000 
-1.05643e-36 -2.72168e-35        00000 
 6.54101e-37  2.88977e-35        00000 
-9.08771e-38 -2.95245e-35        00000 
-5.53489e-37  2.91008e-35        00000 
 1.17770e-36 -2.76509e-35        00000 
-1.68432e-36  2.52385e-35        00000 
 2.00362e-36 -2.20211e-35        00000 
-2.10808e-36  1.82802e-35        00000 
 2.01395e-36 -1.43868e-35        00000 
-1.77077e-36  1.07140e-35        00000 
 1.44402e-36 -7.54558e-36        00000 
-1.09737e-36  5.02735e-36        00000 
 7.79739e-37 -3.17134e-36        00000 
-5.19871e-37  1.89703e-36        00000 
 3.27750e-37 -1.08160e-36        00000 
-2.00458e-37  6.00767e-37        00000 
 1.29428e-37 -3.54471e-37        00000 
-1.06783e-37  2.79517e-37        00000 
-1.79405e-37  1.38658e-36        00000 
 1.62185e-37 -1.84357e-36        00000 
-8.99948e-38  3.39303e-36        00000 
-9.66460e-38 -6.56555e-36        00000 
 4.86999e-37  1.22029e-35        00000 
-1.17765e-36 -2.13172e-35        00000 
 2.23278e-36  3.47933e-35        00000 
-3.63229e-36 -5.29572e-35        00000 
 5.22518e-36  7.51585e-35        00000 
-6.71435e-36 -9.96169e-35        00000 
 7.69548e-36  1.23729e-34        00000 
-7.75373e-36 -1.44786e-34        00000 
 6.59503e-36  1.60748e-34        00000 
-4.16542e-36 -1.70623e-34        00000 
 7.08465e-37  1.74243e-34        00000 
 3.26959e-36 -1.71736e-34        00000 
-7.12122e-36  1.63191e-34        00000 
 1.02254e-35 -1.48827e-34        00000 
-1.21436e-35  1.29476e-34        00000 
 1.27131e-35 -1.06857e-34        00000 
-1.20529e-35  8.33454e-35        00000 
 1.04911e-35 -6.13281e-35        00000 
-8.44891e-36  4.25673e-35        00000 
 6.32508e-36 -2.78897e-35        00000 
-4.41569e-36  1.72654e-35        00000 
 2.88382e-36 -1.01122e-35        00000 
-1.77399e-36  5.62785e-36        00000 
 1.05302e-36 -3.03721e-36        00000 
-6.57340e-37  1.73380e-36        00000 
 5.32420e-37 -1.34148e-36        00000 
 1.09604e-36 -6.37356e-36        00000 
-1.03861e-36  8.67060e-36        00000 
 7.43952e-37 -1.65975e-35        00000 
 1.49599e-37  3.32936e-35        00000 
-2.20564e-36 -6.39184e-35        00000 
 6.07085e-36  1.14984e-34        00000 
-1.22354e-35 -1.92615e-34        00000 
 2.06926e-35  2.99713e-34        00000 
-3.06070e-35 -4.32934e-34        00000 
 4.01707e-35  5.81259e-34        00000 
-4.68151e-35 -7.27831e-34        00000 
 4.78267e-35  8.54980e-34        00000 
-4.12171e-35 -9.49916e-34        00000 
 2.65366e-35  1.00746e-33        00000 
-5.27913e-36 -1.02808e-33        00000 
-1.93318e-35  1.01341e-33        00000 
 4.31446e-35 -9.63466e-34        00000 
-6.21899e-35  8.78231e-34        00000 
 7.37068e-35 -7.61759e-34        00000 
-7.67404e-35  6.24654e-34        00000 
 7.21532e-35 -4.82330e-34        00000 
-6.21205e-35  3.50219e-34        00000 
 4.93543e-35 -2.39235e-34        00000 
-3.63518e-35  1.53928e-34        00000 
 2.48967e-35 -9.33826e-35        00000 
-1.58995e-35  5.34673e-35        00000 
 9.52457e-36 -2.89922e-35        00000 
-5.47357e-36  1.51682e-35        00000 
 3.29200e-36 -8.35239e-36        00000 
-2.61100e-36  6.32670e-36        00000 
-6.50444e-36  2.86822e-35        00000 
 6.42136e-36 -3.99763e-35        00000 
-5.46015e-36  7.97332e-35        00000 
 1.46545e-36 -1.66163e-34        00000 
 9.06615e-36  3.30403e-34        00000 
-3.04020e-35 -6.13902e-34        00000 
 6.61565e-35  1.05864e-33        00000 
-1.17074e-34 -1.68878e-33        00000 
 1.78681e-34  2.48882e-33        00000 
-2.40037e-34 -3.39090e-33        00000 
 2.84829e-34  4.28498e-33        00000 
-2.95273e-34 -5.05406e-33        00000 
 2.57908e-34  5.61678e-33        00000 
-1.69154e-34 -5.94824e-33        00000 
 3.81804e-35  6.06333e-33        00000 
 1.14421e-34 -5.97882e-33        00000 
-2.61946e-34  5.69050e-33        00000 
 3.78955e-34 -5.18699e-33        00000 
-4.48043e-34  4.48522e-33        00000 
 4.63663e-34 -3.65143e-33        00000 
-4.32019e-34  2.78752e-33        00000 
 3.67555e-34 -1.99415e-33        00000 
-2.87745e-34  1.33861e-33        00000 
 2.08216e-34 -8.44581e-34        00000 
-1.39656e-34  5.01353e-34        00000 
 8.70365e-35 -2.80105e-34        00000 
-5.06575e-35  1.47654e-34        00000 
 2.81056e-35 -7.46935e-35        00000 
-1.62208e-35  3.95435e-35        00000 
 1.25594e-35 -2.92503e-35        00000 
 3.75667e-35 -1.26198e-34        00000 
-3.85181e-35  1.80356e-34        00000 
 3.73489e-35 -3.75283e-34        00000 
-2.15178e-35  8.14171e-34        00000 
-3.03790e-35 -1.68155e-33        00000 
 1.46107e-34  3.23778e-33        00000 
-3.51635e-34 -5.76756e-33        00000 
 6.56819e-34  9.46372e-33        00000 
-1.03890e-33 -1.42709e-32        00000 
 1.43216e-33  1.97753e-32        00000 
-1.73304e-33 -2.52531e-32        00000 
 1.82474e-33  2.99163e-32        00000 
-1.61597e-33 -3.32368e-32        00000 
 1.07909e-33  3.51132e-32        00000 
-2.70404e-34 -3.57345e-32        00000 
-6.78079e-34  3.52600e-32        00000 
 1.59399e-33 -3.36265e-32        00000 
-2.31387e-33  3.06707e-32        00000 
 2.72782e-33 -2.64348e-32        00000 
-2.80411e-33  2.13425e-32        00000 
 2.58706e-33 -1.60814e-32        00000 
-2.17271e-33  1.13145e-32        00000 
 1.67377e-33 -7.45150e-33        00000 
-1.18790e-33  4.60350e-33        00000 
 7.78718e-34 -2.66939e-33        00000 
-4.72494e-34  1.45207e-33        00000 
 2.66470e-34 -7.42085e-34        00000 
-1.42270e-34  3.61864e-34        00000 
 7.84271e-35 -1.83528e-34        00000 
-5.90602e-35  1.32209e-34        00000 
-2.11259e-34  5.42458e-34        00000 
 2.24713e-34 -7.94940e-34        00000 
-2.43182e-34  1.72631e-33        00000 
 1.95813e-34 -3.90571e-33        00000 
 4.55738e-35  8.40293e-33        00000 
-6.59031e-34 -1.68271e-32        00000 
 1.82731e-33  3.10855e-32        00000 
-3.64648e-33 -5.26705e-32        00000 
 6.01060e-33  8.15558e-32        00000 
-8.52901e-33 -1.15267e-31        00000 
 1.05445e-32  1.49015e-31        00000 
-1.12883e-32 -1.77392e-31        00000 
 1.01402e-32  1.96869e-31        00000 
-6.89069e-33 -2.07206e-31        00000 
 1.88593e-33  2.10370e-31        00000 
 4.02434e-33 -2.07819e-31        00000 
-9.72367e-33  1.98839e-31        00000 
 1.41588e-32 -1.81637e-31        00000 
-1.66354e-32  1.55994e-31        00000 
 1.69749e-32 -1.24714e-31        00000 
-1.54928e-32  9.25574e-32        00000 
 1.28284e-32 -6.39170e-32        00000 
-9.70961e-33  4.12333e-32        00000 
 6.74552e-33 -2.49067e-32        00000 
-4.31165e-33  1.40805e-32        00000 
 2.53993e-33 -7.43664e-33        00000 
-1.38354e-33  3.67192e-33        00000 
 7.08144e-34 -1.71993e-33        00000 
-3.70840e-34  8.32605e-34        00000 
 2.70369e-34 -5.82473e-34        00000 
 1.15605e-33 -2.27881e-33        00000 
-1.27607e-33  3.41917e-33        00000 
 1.52295e-33 -7.74146e-33        00000 
-1.51135e-33  1.82882e-32        00000 
 4.91882e-34 -4.10983e-32        00000 
 2.65940e-33  8.59166e-32        00000 
-9.20594e-33 -1.65327e-31        00000 
 1.99762e-32  2.90592e-31        00000 
-3.45632e-32 -4.64015e-31        00000 
 5.06765e-32  6.71286e-31        00000 
-6.41497e-32 -8.80662e-31        00000 
 6.99114e-32  1.05429e-30        00000 
-6.37332e-32 -1.16765e-30        00000 
 4.40535e-32  1.22205e-30        00000 
-1.30023e-32 -1.23635e-30        00000 
-2.39266e-32  1.22371e-30        00000 
 5.94754e-32 -1.17686e-30        00000 
-8.68393e-32  1.07796e-30        00000 
 1.01626e-31 -9.21971e-31        00000 
-1.02859e-31  7.28358e-31        00000 
 9.27739e-32 -5.31010e-31        00000 
-7.56341e-32  3.59146e-31        00000 
 5.61429e-32 -2.26630e-31        00000 
-3.80932e-32  1.33657e-31        00000 
 2.36746e-32 -7.34866e-32        00000 
-1.34951e-32  3.75427e-32        00000 
 7.07280e-33 -1.78334e-32        00000 
-3.45471e-33  7.99301e-33        00000 
 1.70759e-33 -3.68030e-33        00000 
-1.19841e-33  2.49338e-33        00000 
-6.14608e-33  9.37877e-33        00000 
 7.05045e-33 -1.43488e-32        00000 
-9.22102e-33  3.37612e-32        00000 
 1.06684e-32 -8.33219e-32        00000 
-7.14125e-33  1.96043e-31        00000 
-8.32771e-33 -4.29397e-31        00000 
 4.43300e-32  8.64834e-31        00000 
-1.07547e-31 -1.58540e-30        00000 
 1.97239e-31  2.62428e-30        00000 
-3.00241e-31 -3.90366e-30        00000 
 3.90182e-31  5.21395e-30        00000 
-4.33505e-31 -6.28514e-30        00000 
 4.01301e-31  6.93847e-30        00000 
-2.82034e-31 -7.20102e-30        00000 
 8.88493e-32  7.24711e-30        00000 
 1.42562e-31 -7.19533e-30        00000 
-3.64839e-31  6.97498e-30        00000 
 5.33908e-31 -6.41632e-30        00000 
-6.21965e-31  5.45951e-30        00000 
 6.23880e-31 -4.24886e-30        00000 
-5.55443e-31  3.03286e-30        00000 
 4.45128e-31 -2.00494e-30        00000 
-3.23363e-31  1.23645e-30        00000 
 2.13698e-31 -7.10902e-31        00000 
-1.28701e-31  3.78793e-31        00000 
 7.07024e-32 -1.86231e-31        00000 
-3.54857e-32  8.46762e-32        00000 
 1.64500e-32 -3.61801e-32        00000 
-7.61470e-33  1.57961e-32        00000 
 5.10664e-33 -1.03356e-32        00000 
 3.16668e-32 -3.80489e-32        00000 
-3.78454e-32  5.88583e-32        00000 
 5.40899e-32 -1.42862e-31        00000 
-7.08926e-32  3.68198e-31        00000 
 6.50774e-32 -9.08731e-31        00000 
 5.60945e-33  2.09171e-30        00000 
-1.98624e-31 -4.43096e-30        00000 
 5.65585e-31  8.52496e-30        00000 
-1.11467e-30 -1.47215e-29        00000 
 1.77242e-30  2.26440e-29        00000 
-2.37233e-30 -3.09293e-29        00000 
 2.69163e-30  3.76236e-29        00000 
-2.53189e-30 -4.13458e-29        00000 
 1.80851e-30  4.23782e-29        00000 
-6.02926e-31 -4.23071e-29        00000 
-8.51655e-31  4.22154e-29        00000 
 2.24503e-30 -4.14265e-29        00000 
-3.29111e-30  3.83523e-29        00000 
 3.81380e-30 -3.24021e-29        00000 
-3.78779e-30  2.47292e-29        00000 
 3.32431e-30 -1.72131e-29        00000 
-2.61392e-30  1.11077e-29        00000 
 1.85365e-30 -6.69521e-30        00000 
-1.18926e-30  3.74469e-30        00000 
 6.91241e-31 -1.92277e-30        00000 
-3.64154e-31  9.03555e-31        00000 
 1.74007e-31 -3.91237e-31        00000 
-7.60305e-32  1.58882e-31        00000 
 3.26419e-32 -6.55992e-32        00000 
-2.07157e-32  4.13327e-32        00000 
-1.57582e-31  1.53761e-31        00000 
 1.96865e-31 -2.37479e-31        00000 
-3.07376e-31  5.85654e-31        00000 
 4.49262e-31 -1.57205e-30        00000 
-5.03058e-31  4.08014e-30        00000 
 2.19599e-31 -9.88753e-30        00000 
 7.78383e-31  2.21136e-29        00000 
-2.87738e-30 -4.49744e-29        00000 
 6.21996e-30  8.16716e-29        00000 
-1.04152e-29 -1.30808e-28        00000 
 1.44155e-29  1.83798e-28        00000 
-1.67367e-29 -2.26466e-28        00000 
 1.60099e-29  2.47457e-28        00000 
-1.16179e-29 -2.48936e-28        00000 
 4.06868e-30  2.45367e-28        00000 
 5.10417e-30 -2.46853e-28        00000 
-1.38613e-29  2.46878e-28        00000 
 2.03424e-29 -2.30636e-28        00000 
-2.34325e-29  1.92792e-28        00000 
 2.30196e-29 -1.43293e-28        00000 
-1.98852e-29  9.68177e-29        00000 
 1.53075e-29 -6.10449e-29        00000 
-1.05645e-29  3.60125e-29        00000 
 6.55390e-30 -1.95023e-29        00000 
-3.65785e-30  9.56106e-30        00000 
 1.83651e-30 -4.26183e-30        00000 
-8.29326e-31  1.75089e-30        00000 
 3.38549e-31 -6.74374e-31        00000 
-1.33130e-31  2.62540e-31        00000 
 7.88839e-32 -1.58787e-31        00000 
 7.54058e-31 -6.24955e-31        00000 
-9.88854e-31  9.55834e-31        00000 
 1.68909e-30 -2.33533e-30        00000 
-2.73032e-30  6.43998e-30        00000 
 3.54778e-30 -1.76827e-29        00000 
-2.72659e-30  4.52420e-29        00000 
-2.15679e-30 -1.06774e-28        00000 
 1.39237e-29  2.31188e-28        00000 
-3.41214e-29 -4.46362e-28        00000 
 6.08399e-29  7.50719e-28        00000 
-8.75220e-29 -1.09293e-27        00000 
 1.04238e-28  1.37308e-27        00000 
-1.01491e-28 -1.49193e-27        00000 
 7.47852e-29  1.45838e-27        00000 
-2.73301e-29 -1.40746e-27        00000 
-3.07126e-29  1.43619e-27        00000 
 8.58910e-29 -1.47937e-27        00000 
-1.26097e-28  1.39926e-27        00000 
 1.44274e-28 -1.15004e-27        00000 
-1.40034e-28  8.23095e-28        00000 
 1.18856e-28 -5.37685e-28        00000 
-8.93350e-29  3.33493e-28        00000 
 5.97786e-29 -1.92801e-28        00000 
-3.56807e-29  9.99185e-29        00000 
 1.90010e-29 -4.61719e-29        00000 
-9.02044e-30  1.94252e-29        00000 
 3.81262e-30 -7.56389e-30        00000 
-1.43713e-30  2.75475e-30        00000 
 5.08870e-31 -1.00762e-30        00000 
-2.75887e-31  5.83393e-31        00000 
-3.45101e-30  2.55036e-30        00000 
 4.77365e-30 -3.89611e-30        00000 
-8.94460e-30  9.28584e-30        00000 
 1.59325e-29 -2.51490e-29        00000 
-2.34565e-29  7.28898e-29        00000 
 2.39035e-29 -2.01202e-28        00000 
-2.13517e-30  4.96599e-28        00000 
-6.19551e-29 -1.14332e-27        00000 
 1.82779e-28  2.39002e-27        00000 
-3.52625e-28 -4.27184e-27        00000 
 5.30734e-28  6.48075e-27        00000 
-6.50385e-28 -8.39638e-27        00000 
 6.45230e-28  9.11872e-27        00000 
-4.82479e-28 -8.50687e-27        00000 
 1.82840e-28  7.91262e-27        00000 
 1.85713e-28 -8.30117e-27        00000 
-5.34243e-28  8.93887e-27        00000 
 7.83962e-28 -8.60123e-27        00000 
-8.90244e-28  6.87812e-27        00000 
 8.52724e-28 -4.63945e-27        00000 
-7.09655e-28  2.93798e-27        00000 
 5.19096e-28 -1.82862e-27        00000 
-3.35199e-28  1.02669e-27        00000 
 1.91285e-28 -4.97053e-28        00000 
-9.64031e-29  2.14401e-28        00000 
 4.28285e-29 -8.53861e-29        00000 
-1.67249e-29  3.14250e-29        00000 
 5.72621e-30 -1.07549e-29        00000 
-1.77976e-30  3.69303e-30        00000 
 8.52908e-31 -2.03790e-30        00000 
 1.50083e-29 -1.03176e-29        00000 
-2.20155e-29  1.60144e-29        00000 
 4.54108e-29 -3.82004e-29        00000 
-8.91018e-29  9.74317e-29        00000 
 1.46997e-28 -2.73858e-28        00000 
-1.81463e-28  8.56019e-28        00000 
 1.01348e-28 -2.29384e-27        00000 
 2.32759e-28  5.28204e-27        00000 
-9.45158e-28 -1.23663e-26        00000 
 2.02258e-27  2.42011e-26        00000 
-3.21283e-27 -3.80607e-26        00000 
 4.06618e-27  5.14923e-26        00000 
-4.11617e-27 -5.75233e-26        00000 
 3.12018e-27  4.91633e-26        00000 
-1.21836e-27 -4.24634e-26        00000 
-1.12963e-27  4.81375e-26        00000 
 3.33627e-27 -5.42322e-26        00000 
-4.88868e-27  5.40876e-26        00000 
 5.50598e-27 -4.13652e-26        00000 
-5.19814e-27  2.47656e-26        00000 
 4.23101e-27 -1.60420e-26        00000 
-2.99944e-27  1.02457e-26        00000 
 1.85776e-27 -5.34113e-27        00000 
-1.00527e-27  2.34889e-27        00000 
 4.74323e-28 -9.57594e-28        00000 
-1.94438e-28  3.62576e-28        00000 
 6.88867e-29 -1.23828e-28        00000 
-2.08942e-29  4.00783e-29        00000 
 5.45360e-30 -1.28342e-29        00000 
-2.14284e-30  6.71937e-30        00000 
-6.15685e-29  4.07563e-29        00000 
 9.62925e-29 -6.52147e-29        00000 
-2.19501e-28  1.60553e-28        00000 
 4.75379e-28 -4.08782e-28        00000 
-8.75508e-28  9.93382e-28        00000 
 1.26164e-27 -2.99344e-27        00000 
-1.11208e-27  1.08810e-26        00000 
-5.11697e-28 -2.48585e-26        00000 
 4.61377e-27  5.28058e-26        00000 
-1.14344e-26 -1.46624e-25        00000 
 1.94151e-26  2.13308e-25        00000 
-2.54525e-26 -3.15443e-25        00000 
 2.63982e-26  3.74030e-25        00000 
-2.02077e-26 -3.10698e-25        00000 
 8.08949e-27  1.47129e-25        00000 
 6.91625e-27 -3.56784e-25        00000 
-2.09280e-26  2.60307e-25        00000 