<?xml version="1.0" encoding="utf-8"?>
<VTKFile byte_order="LittleEndian" type="UnstructuredGrid" version="0.1">
   <UnstructuredGrid>
      <Piece NumberOfCells="1444" NumberOfPoints="761">
         <Points>
            <DataArray Name="Points" NumberOfComponents="3" format="ascii" type="Float32">
0.0000 0.0000 0.0000
0.0000 0.0526 0.0000
0.0000 0.1053 0.0000
0.0000 0.1579 0.0000
0.0000 0.2105 0.0000
0.0000 0.2632 0.0000
0.0000 0.3158 0.0000
0.0000 0.3684 0.0000
0.0000 0.4211 0.0000
0.0000 0.4737 0.0000
0.0000 0.5263 0.0000
0.0000 0.5789 0.0000
0.0000 0.6316 0.0000
0.0000 0.6842 0.0000
0.0000 0.7368 0.0000
0.0000 0.7895 0.0000
0.0000 0.8421 0.0000
0.0000 0.8947 0.0000
0.0000 0.9474 0.0000
0.0000 1.0000 0.0000
0.0526 0.0000 0.0000
0.0526 0.0526 0.0000
0.0526 0.1053 0.0000
0.0526 0.1579 0.0000
0.0526 0.2105 0.0000
0.0526 0.2632 0.0000
0.0526 0.3158 0.0000
0.0526 0.3684 0.0000
0.0526 0.4211 0.0000
0.0526 0.4737 0.0000
0.0526 0.5263 0.0000
0.0526 0.5789 0.0000
0.0526 0.6316 0.0000
0.0526 0.6842 0.0000
0.0526 0.7368 0.0000
0.0526 0.7895 0.0000
0.0526 0.8421 0.0000
0.0526 0.8947 0.0000
0.0526 0.9474 0.0000
0.0526 1.0000 0.0000
0.1053 0.0000 0.0000
0.1053 0.0526 0.0000
0.1053 0.1053 0.0000
0.1053 0.1579 0.0000
0.1053 0.2105 0.0000
0.1053 0.2632 0.0000
0.1053 0.3158 0.0000
0.1053 0.3684 0.0000
0.1053 0.4211 0.0000
0.1053 0.4737 0.0000
0.1053 0.5263 0.0000
0.1053 0.5789 0.0000
0.1053 0.6316 0.0000
0.1053 0.6842 0.0000
0.1053 0.7368 0.0000
0.1053 0.7895 0.0000
0.1053 0.8421 0.0000
0.1053 0.8947 0.0000
0.1053 0.9474 0.0000
0.1053 1.0000 0.0000
0.1579 0.0000 0.0000
0.1579 0.0526 0.0000
0.1579 0.1053 0.0000
0.1579 0.1579 0.0000
0.1579 0.2105 0.0000
0.1579 0.2632 0.0000
0.1579 0.3158 0.0000
0.1579 0.3684 0.0000
0.1579 0.4211 0.0000
0.1579 0.4737 0.0000
0.1579 0.5263 0.0000
0.1579 0.5789 0.0000
0.1579 0.6316 0.0000
0.1579 0.6842 0.0000
0.1579 0.7368 0.0000
0.1579 0.7895 0.0000
0.1579 0.8421 0.0000
0.1579 0.8947 0.0000
0.1579 0.9474 0.0000
0.1579 1.0000 0.0000
0.2105 0.0000 0.0000
0.2105 0.0526 0.0000
0.2105 0.1053 0.0000
0.2105 0.1579 0.0000
0.2105 0.2105 0.0000
0.2105 0.2632 0.0000
0.2105 0.3158 0.0000
0.2105 0.3684 0.0000
0.2105 0.4211 0.0000
0.2105 0.4737 0.0000
0.2105 0.5263 0.0000
0.2105 0.5789 0.0000
0.2105 0.6316 0.0000
0.2105 0.6842 0.0000
0.2105 0.7368 0.0000
0.2105 0.7895 0.0000
0.2105 0.8421 0.0000
0.2105 0.8947 0.0000
0.2105 0.9474 0.0000
0.2105 1.0000 0.0000
0.2632 0.0000 0.0000
0.2632 0.0526 0.0000
0.2632 0.1053 0.0000
0.2632 0.1579 0.0000
0.2632 0.2105 0.0000
0.2632 0.2632 0.0000
0.2632 0.3158 0.0000
0.2632 0.3684 0.0000
0.2632 0.4211 0.0000
0.2632 0.4737 0.0000
0.2632 0.5263 0.0000
0.2632 0.5789 0.0000
0.2632 0.6316 0.0000
0.2632 0.6842 0.0000
0.2632 0.7368 0.0000
0.2632 0.7895 0.0000
0.2632 0.8421 0.0000
0.2632 0.8947 0.0000
0.2632 0.9474 0.0000
0.2632 1.0000 0.0000
0.3158 0.0000 0.0000
0.3158 0.0526 0.0000
0.3158 0.1053 0.0000
0.3158 0.1579 0.0000
0.3158 0.2105 0.0000
0.3158 0.2632 0.0000
0.3158 0.3158 0.0000
0.3158 0.3684 0.0000
0.3158 0.4211 0.0000
0.3158 0.4737 0.0000
0.3158 0.5263 0.0000
0.3158 0.5789 0.0000
0.3158 0.6316 0.0000
0.3158 0.6842 0.0000
0.3158 0.7368 0.0000
0.3158 0.7895 0.0000
0.3158 0.8421 0.0000
0.3158 0.8947 0.0000
0.3158 0.9474 0.0000
0.3158 1.0000 0.0000
0.3684 0.0000 0.0000
0.3684 0.0526 0.0000
0.3684 0.1053 0.0000
0.3684 0.1579 0.0000
0.3684 0.2105 0.0000
0.3684 0.2632 0.0000
0.3684 0.3158 0.0000
0.3684 0.3684 0.0000
0.3684 0.4211 0.0000
0.3684 0.4737 0.0000
0.3684 0.5263 0.0000
0.3684 0.5789 0.0000
0.3684 0.6316 0.0000
0.3684 0.6842 0.0000
0.3684 0.7368 0.0000
0.3684 0.7895 0.0000
0.3684 0.8421 0.0000
0.3684 0.8947 0.0000
0.3684 0.9474 0.0000
0.3684 1.0000 0.0000
0.4211 0.0000 0.0000
0.4211 0.0526 0.0000
0.4211 0.1053 0.0000
0.4211 0.1579 0.0000
0.4211 0.2105 0.0000
0.4211 0.2632 0.0000
0.4211 0.3158 0.0000
0.4211 0.3684 0.0000
0.4211 0.4211 0.0000
0.4211 0.4737 0.0000
0.4211 0.5263 0.0000
0.4211 0.5789 0.0000
0.4211 0.6316 0.0000
0.4211 0.6842 0.0000
0.4211 0.7368 0.0000
0.4211 0.7895 0.0000
0.4211 0.8421 0.0000
0.4211 0.8947 0.0000
0.4211 0.9474 0.0000
0.4211 1.0000 0.0000
0.4737 0.0000 0.0000
0.4737 0.0526 0.0000
0.4737 0.1053 0.0000
0.4737 0.1579 0.0000
0.4737 0.2105 0.0000
0.4737 0.2632 0.0000
0.4737 0.3158 0.0000
0.4737 0.3684 0.0000
0.4737 0.4211 0.0000
0.4737 0.4737 0.0000
0.4737 0.5263 0.0000
0.4737 0.5789 0.0000
0.4737 0.6316 0.0000
0.4737 0.6842 0.0000
0.4737 0.7368 0.0000
0.4737 0.7895 0.0000
0.4737 0.8421 0.0000
0.4737 0.8947 0.0000
0.4737 0.9474 0.0000
0.4737 1.0000 0.0000
0.5263 0.0000 0.0000
0.5263 0.0526 0.0000
0.5263 0.1053 0.0000
0.5263 0.1579 0.0000
0.5263 0.2105 0.0000
0.5263 0.2632 0.0000
0.5263 0.3158 0.0000
0.5263 0.3684 0.0000
0.5263 0.4211 0.0000
0.5263 0.4737 0.0000
0.5263 0.5263 0.0000
0.5263 0.5789 0.0000
0.5263 0.6316 0.0000
0.5263 0.6842 0.0000
0.5263 0.7368 0.0000
0.5263 0.7895 0.0000
0.5263 0.8421 0.0000
0.5263 0.8947 0.0000
0.5263 0.9474 0.0000
0.5263 1.0000 0.0000
0.5789 0.0000 0.0000
0.5789 0.0526 0.0000
0.5789 0.1053 0.0000
0.5789 0.1579 0.0000
0.5789 0.2105 0.0000
0.5789 0.2632 0.0000
0.5789 0.3158 0.0000
0.5789 0.3684 0.0000
0.5789 0.4211 0.0000
0.5789 0.4737 0.0000
0.5789 0.5263 0.0000
0.5789 0.5789 0.0000
0.5789 0.6316 0.0000
0.5789 0.6842 0.0000
0.5789 0.7368 0.0000
0.5789 0.7895 0.0000
0.5789 0.8421 0.0000
0.5789 0.8947 0.0000
0.5789 0.9474 0.0000
0.5789 1.0000 0.0000
0.6316 0.0000 0.0000
0.6316 0.0526 0.0000
0.6316 0.1053 0.0000
0.6316 0.1579 0.0000
0.6316 0.2105 0.0000
0.6316 0.2632 0.0000
0.6316 0.3158 0.0000
0.6316 0.3684 0.0000
0.6316 0.4211 0.0000
0.6316 0.4737 0.0000
0.6316 0.5263 0.0000
0.6316 0.5789 0.0000
0.6316 0.6316 0.0000
0.6316 0.6842 0.0000
0.6316 0.7368 0.0000
0.6316 0.7895 0.0000
0.6316 0.8421 0.0000
0.6316 0.8947 0.0000
0.6316 0.9474 0.0000
0.6316 1.0000 0.0000
0.6842 0.0000 0.0000
0.6842 0.0526 0.0000
0.6842 0.1053 0.0000
0.6842 0.1579 0.0000
0.6842 0.2105 0.0000
0.6842 0.2632 0.0000
0.6842 0.3158 0.0000
0.6842 0.3684 0.0000
0.6842 0.4211 0.0000
0.6842 0.4737 0.0000
0.6842 0.5263 0.0000
0.6842 0.5789 0.0000
0.6842 0.6316 0.0000
0.6842 0.6842 0.0000
0.6842 0.7368 0.0000
0.6842 0.7895 0.0000
0.6842 0.8421 0.0000
0.6842 0.8947 0.0000
0.6842 0.9474 0.0000
0.6842 1.0000 0.0000
0.7368 0.0000 0.0000
0.7368 0.0526 0.0000
0.7368 0.1053 0.0000
0.7368 0.1579 0.0000
0.7368 0.2105 0.0000
0.7368 0.2632 0.0000
0.7368 0.3158 0.0000
0.7368 0.3684 0.0000
0.7368 0.4211 0.0000
0.7368 0.4737 0.0000
0.7368 0.5263 0.0000
0.7368 0.5789 0.0000
0.7368 0.6316 0.0000
0.7368 0.6842 0.0000
0.7368 0.7368 0.0000
0.7368 0.7895 0.0000
0.7368 0.8421 0.0000
0.7368 0.8947 0.0000
0.7368 0.9474 0.0000
0.7368 1.0000 0.0000
0.7895 0.0000 0.0000
0.7895 0.0526 0.0000
0.7895 0.1053 0.0000
0.7895 0.1579 0.0000
0.7895 0.2105 0.0000
0.7895 0.2632 0.0000
0.7895 0.3158 0.0000
0.7895 0.3684 0.0000
0.7895 0.4211 0.0000
0.7895 0.4737 0.0000
0.7895 0.5263 0.0000
0.7895 0.5789 0.0000
0.7895 0.6316 0.0000
0.7895 0.6842 0.0000
0.7895 0.7368 0.0000
0.7895 0.7895 0.0000
0.7895 0.8421 0.0000
0.7895 0.8947 0.0000
0.7895 0.9474 0.0000
0.7895 1.0000 0.0000
0.8421 0.0000 0.0000
0.8421 0.0526 0.0000
0.8421 0.1053 0.0000
0.8421 0.1579 0.0000
0.8421 0.2105 0.0000
0.8421 0.2632 0.0000
0.8421 0.3158 0.0000
0.8421 0.3684 0.0000
0.8421 0.4211 0.0000
0.8421 0.4737 0.0000
0.8421 0.5263 0.0000
0.8421 0.5789 0.0000
0.8421 0.6316 0.0000
0.8421 0.6842 0.0000
0.8421 0.7368 0.0000
0.8421 0.7895 0.0000
0.8421 0.8421 0.0000
0.8421 0.8947 0.0000
0.8421 0.9474 0.0000
0.8421 1.0000 0.0000
0.8947 0.0000 0.0000
0.8947 0.0526 0.0000
0.8947 0.1053 0.0000
0.8947 0.1579 0.0000
0.8947 0.2105 0.0000
0.8947 0.2632 0.0000
0.8947 0.3158 0.0000
0.8947 0.3684 0.0000
0.8947 0.4211 0.0000
0.8947 0.4737 0.0000
0.8947 0.5263 0.0000
0.8947 0.5789 0.0000
0.8947 0.6316 0.0000
0.8947 0.6842 0.0000
0.8947 0.7368 0.0000
0.8947 0.7895 0.0000
0.8947 0.8421 0.0000
0.8947 0.8947 0.0000
0.8947 0.9474 0.0000
0.8947 1.0000 0.0000
0.9474 0.0000 0.0000
0.9474 0.0526 0.0000
0.9474 0.1053 0.0000
0.9474 0.1579 0.0000
0.9474 0.2105 0.0000
0.9474 0.2632 0.0000
0.9474 0.3158 0.0000
0.9474 0.3684 0.0000
0.9474 0.4211 0.0000
0.9474 0.4737 0.0000
0.9474 0.5263 0.0000
0.9474 0.5789 0.0000
0.9474 0.6316 0.0000
0.9474 0.6842 0.0000
0.9474 0.7368 0.0000
0.9474 0.7895 0.0000
0.9474 0.8421 0.0000
0.9474 0.8947 0.0000
0.9474 0.9474 0.0000
0.9474 1.0000 0.0000
1.0000 0.0000 0.0000
1.0000 0.0526 0.0000
1.0000 0.1053 0.0000
1.0000 0.1579 0.0000
1.0000 0.2105 0.0000
1.0000 0.2632 0.0000
1.0000 0.3158 0.0000
1.0000 0.3684 0.0000
1.0000 0.4211 0.0000
1.0000 0.4737 0.0000
1.0000 0.5263 0.0000
1.0000 0.5789 0.0000
1.0000 0.6316 0.0000
1.0000 0.6842 0.0000
1.0000 0.7368 0.0000
1.0000 0.7895 0.0000
1.0000 0.8421 0.0000
1.0000 0.8947 0.0000
1.0000 0.9474 0.0000
1.0000 1.0000 0.0000
0.0263 0.0263 0.0000
0.0263 0.0789 0.0000
0.0263 0.1316 0.0000
0.0263 0.1842 0.0000
0.0263 0.2368 0.0000
0.0263 0.2895 0.0000
0.0263 0.3421 0.0000
0.0263 0.3947 0.0000
0.0263 0.4474 0.0000
0.0263 0.5000 0.0000
0.0263 0.5526 0.0000
0.0263 0.6053 0.0000
0.0263 0.6579 0.0000
0.0263 0.7105 0.0000
0.0263 0.7632 0.0000
0.0263 0.8158 0.0000
0.0263 0.8684 0.0000
0.0263 0.9211 0.0000
0.0263 0.9737 0.0000
0.0789 0.0263 0.0000
0.0789 0.0789 0.0000
0.0789 0.1316 0.0000
0.0789 0.1842 0.0000
0.0789 0.2368 0.0000
0.0789 0.2895 0.0000
0.0789 0.3421 0.0000
0.0789 0.3947 0.0000
0.0789 0.4474 0.0000
0.0789 0.5000 0.0000
0.0789 0.5526 0.0000
0.0789 0.6053 0.0000
0.0789 0.6579 0.0000
0.0789 0.7105 0.0000
0.0789 0.7632 0.0000
0.0789 0.8158 0.0000
0.0789 0.8684 0.0000
0.0789 0.9211 0.0000
0.0789 0.9737 0.0000
0.1316 0.0263 0.0000
0.1316 0.0789 0.0000
0.1316 0.1316 0.0000
0.1316 0.1842 0.0000
0.1316 0.2368 0.0000
0.1316 0.2895 0.0000
0.1316 0.3421 0.0000
0.1316 0.3947 0.0000
0.1316 0.4474 0.0000
0.1316 0.5000 0.0000
0.1316 0.5526 0.0000
0.1316 0.6053 0.0000
0.1316 0.6579 0.0000
0.1316 0.7105 0.0000
0.1316 0.7632 0.0000
0.1316 0.8158 0.0000
0.1316 0.8684 0.0000
0.1316 0.9211 0.0000
0.1316 0.9737 0.0000
0.1842 0.0263 0.0000
0.1842 0.0789 0.0000
0.1842 0.1316 0.0000
0.1842 0.1842 0.0000
[...]
         <PointData>
            <DataArray Name="fValues" NumberOfComponents="3" format="ascii" type="Float64">
 4.41472e-17  6.82484e-17 -2.22503e-18 
-7.33335e-18  5.55010e-17 -7.49396e-17 
 2.63365e-18  9.06937e-18 -1.07104e-16 
 8.53315e-18  9.86454e-19 -7.51250e-17 
 2.70842e-17 -1.45494e-17 -4.13707e-17 
 1.25890e-18 -2.06044e-17 -3.80930e-17 
 4.34235e-17 -6.22386e-17  1.52249e-17 
 3.60612e-17 -2.29966e-17  5.50797e-17 
 2.12860e-17  2.15274e-18  2.16685e-17 
 4.88167e-17 -2.36009e-17  1.33542e-17 
-1.71291e-17  3.39563e-18  2.77917e-17 
 2.63880e-17 -2.61900e-17  7.69521e-17 
 1.12291e-17 -5.13684e-18  8.40089e-17 
 5.80072e-18 -3.86697e-20  5.64737e-17 
 5.48252e-18  5.40818e-18  4.15736e-17 
-5.19156e-18  1.83922e-17  1.04457e-17 
 9.34718e-18  1.79109e-17 -5.70712e-18 
 7.88203e-18  2.29384e-17 -8.62812e-18 
 3.16851e-17  1.02007e-17  2.48664e-18 
 7.19538e-17 -9.44864e-18  1.80401e-17 
 7.04824e-17 -3.23936e-17 -7.17414e-17 
 2.29687e-17 -2.01524e-18 -8.89186e-17 
 4.07112e-18  8.15626e-18 -9.31825e-17 
 5.60244e-18  9.90136e-18 -5.79204e-17 
 1.43949e-17 -6.19889e-18 -5.32342e-17 
 1.43121e-17 -2.31735e-17 -3.63180e-17 
 1.13600e-17 -5.24775e-18  2.40925e-17 
 2.71938e-17 -1.52189e-17  3.10397e-17 
 2.41220e-17 -1.18752e-17  3.12128e-17 
 3.91021e-19  1.09558e-17  4.25753e-18 
 1.00934e-17 -7.25249e-18  2.97842e-17 
 1.57880e-17 -1.05879e-17  8.74063e-17 
 1.70563e-17 -1.29329e-17  7.20270e-17 
 1.40524e-17 -1.14545e-17  5.62214e-17 
 1.05028e-17 -2.18531e-18  4.12335e-17 
 2.81498e-18  1.27036e-17  1.39463e-17 
 6.65255e-18  2.21228e-17  4.23820e-18 
 4.81695e-18  3.04692e-17 -4.80687e-18 
 1.93425e-17  2.72204e-17  7.23847e-18 
 5.41323e-17  5.61988e-18  1.54937e-17 
 3.01194e-17 -2.64154e-17 -1.07585e-16 
 2.21646e-17 -1.19705e-17 -8.30533e-17 
 1.13540e-17 -5.88200e-19 -6.51497e-17 
 1.53589e-17 -1.05761e-17 -3.20614e-17 
 1.65407e-17 -9.27461e-18 -3.32835e-17 
 1.30445e-17 -2.38105e-18 -2.37545e-17 
 1.78929e-18  7.63980e-18  2.75812e-17 
 3.61066e-18  1.20565e-17  1.87250e-17 
 7.69034e-18  1.26967e-17  1.01213e-17 
-1.96532e-17  2.59098e-17 -2.09180e-18 
 2.70512e-17 -1.16698e-17  3.40379e-17 
 2.05082e-17 -1.53676e-17  7.03549e-17 
 2.10469e-17 -1.60023e-17  6.01902e-17 
 1.74210e-17 -9.11561e-18  5.08492e-17 
 1.74593e-17 -9.36059e-18  3.74099e-17 
 1.20770e-17  1.03893e-17  2.14261e-17 
 8.28458e-18  2.21931e-17  2.52841e-18 
 1.33843e-17  1.22901e-17 -6.80805e-18 
 2.15890e-17  9.29030e-18  4.40493e-18 
 3.30902e-17 -5.90303e-18  1.60695e-17 
 4.02951e-18 -1.27997e-17 -1.13131e-16 
-8.65550e-19 -2.82635e-18 -9.19288e-17 
 2.10113e-17 -1.60437e-17 -7.64881e-17 
 2.89358e-17 -2.10390e-17 -3.11438e-17 
 2.49723e-17 -1.51060e-17 -2.19277e-17 
 5.51239e-18  1.32861e-18 -2.31251e-17 
 1.30491e-17  8.93504e-18  2.35314e-17 
-5.16683e-18  2.16343e-17  1.99726e-17 
 3.41554e-18  1.96549e-17 -7.57195e-18 
 1.01296e-18  1.82977e-17 -8.61298e-18 
 2.77424e-17 -3.06741e-18  3.23419e-17 
 1.82239e-17 -5.28231e-18  5.00209e-17 
 1.94781e-17 -8.88466e-18  4.09162e-17 
 2.38385e-17 -1.01710e-17  2.92160e-17 
 1.54055e-17 -7.95071e-19  1.29930e-17 
 2.05440e-17  4.14470e-18  5.49545e-18 
 2.22407e-17  1.47738e-18 -5.50520e-18 
 1.44708e-17  4.29468e-18 -1.40737e-17 
 1.53695e-17  6.27510e-18 -6.07536e-18 
 4.21152e-18  7.14584e-18  7.77991e-18 
-2.53864e-17 -1.58162e-17 -1.08193e-16 
 9.44576e-18 -2.78787e-17 -8.08497e-17 
 9.68881e-18 -1.55175e-17 -6.21512e-17 
 2.65515e-17 -1.17587e-17 -3.02115e-17 
-8.73748e-18  5.65223e-18 -2.65345e-17 
 1.58000e-17 -3.29902e-18 -9.29180e-18 
 5.88158e-19  1.82130e-17  2.20162e-17 
-8.82725e-18  2.34973e-17  1.32177e-17 
-1.68506e-17  3.34638e-17 -5.68300e-18 
-1.34863e-18  3.13971e-17 -4.40677e-18 
 2.85677e-17 -7.75292e-18  1.58980e-17 
 2.19590e-17 -1.87435e-17  1.72999e-17 
 8.80100e-19 -7.98021e-18  1.27662e-17 
 1.30973e-17 -1.45654e-17  9.59506e-19 
 3.50458e-18 -4.20454e-18 -1.32238e-17 
-4.12325e-18  2.44852e-17 -1.87100e-17 
 2.17611e-17  3.81400e-18 -3.42960e-17 
 2.22747e-17 -2.07321e-17 -3.15135e-17 
 1.10565e-17 -6.90588e-18 -2.06909e-17 
-2.76827e-17  1.34480e-17 -1.48430e-17 
-2.92989e-17 -3.91572e-18 -3.89407e-17 
 5.90981e-18 -2.50087e-17 -3.17452e-17 
 4.36533e-18 -2.32037e-17 -2.42714e-17 
 6.70918e-18 -5.34931e-18 -1.42626e-17 
-1.49094e-17  9.77716e-18 -1.45185e-18 
 1.68702e-17 -1.14991e-17  1.59127e-17 
-1.16075e-17  1.58592e-17  2.22478e-17 
-1.77293e-17  2.80410e-17  1.28581e-17 
-1.69471e-17  2.04751e-17  1.69129e-18 
 1.74291e-17 -8.10408e-18 -6.80691e-18 
 6.40648e-18 -7.08684e-19 -2.95604e-19 
 5.73035e-18 -1.06096e-17 -1.53644e-17 
 3.59153e-18 -1.36606e-17 -9.87625e-18 
-1.57278e-17  5.69601e-18 -4.99235e-18 
 9.54359e-19 -3.30892e-18 -2.58279e-17 
-3.71836e-18  3.35914e-18 -1.88586e-17 
 9.10143e-18  3.28049e-18 -4.36160e-17 
 5.39722e-18  3.78596e-18 -4.87363e-17 
-5.13162e-18  4.98874e-18 -3.61721e-17 
-2.75746e-17  1.62954e-17 -3.69278e-17 
-1.33974e-17 -7.50403e-19 -4.08541e-17 
-6.17175e-18 -1.76471e-17 -3.76792e-17 
 6.18108e-18 -2.99782e-17 -2.65976e-17 
 4.41533e-19 -4.24606e-18 -2.29067e-17 
-8.34452e-18  8.52791e-18 -6.38019e-18 
 2.21494e-18 -2.51437e-18 -5.27887e-19 
 1.21488e-18 -4.84056e-19  3.16220e-18 
-1.35033e-17  1.12886e-17 -2.79523e-18 
-2.51028e-19 -9.95778e-19 -4.67607e-18 
 3.92530e-18 -1.80806e-18  5.58629e-18 
 3.77886e-18 -6.07453e-18  9.08264e-18 
 6.57321e-18 -1.52570e-17 -2.28540e-19 
-4.67815e-18  9.93417e-19  1.60174e-18 
-5.91668e-18  1.92417e-19  2.20739e-18 
 5.15877e-18 -5.67399e-18 -1.39515e-17 
 1.19416e-17  3.25059e-19 -1.97341e-17 
-6.99962e-18  1.31976e-17 -2.95199e-17 
-1.18423e-17  1.46519e-17 -4.97947e-17 
-2.56155e-17  2.52530e-17 -4.74960e-17 
-1.34365e-17  2.12488e-17 -4.58496e-17 
-3.40592e-17 -1.07412e-18 -4.29611e-17 
-1.34868e-17 -8.92703e-18 -4.26870e-17 
-9.62147e-18 -1.91218e-17 -4.15282e-17 
-8.89088e-18 -4.02619e-18 -4.32672e-17 
-7.86079e-18 -3.53987e-18 -1.50979e-17 
 3.66453e-18 -1.06686e-17 -1.06316e-17 
-3.10019e-18  4.16464e-18 -1.85041e-17 
-3.66206e-18 -3.71679e-18 -3.19985e-18 
-4.39174e-18  7.30228e-18  8.07585e-18 
-7.30850e-18  5.76908e-18  2.05093e-17 
-2.12199e-18 -5.84000e-18  3.27853e-17 
-8.05534e-18 -1.15684e-18  1.69002e-17 
-1.23279e-17 -1.27999e-19  1.68915e-17 
-3.26538e-18 -8.96378e-18  2.01100e-17 
-1.01114e-17 -9.51425e-19  3.91472e-18 
 1.57405e-17 -5.03025e-18 -8.87942e-18 
-5.36786e-18  1.01454e-17 -3.03236e-17 
-2.53123e-17  1.94089e-17 -5.44504e-17 
-2.36837e-17  1.53092e-17 -5.65809e-17 
-3.51242e-17  2.10163e-17 -5.82129e-17 
-4.13658e-17  9.10404e-18 -1.99692e-17 
-2.69067e-17 -8.03038e-18 -3.80059e-17 
-1.49859e-17 -2.22765e-17 -5.32343e-17 
-1.63283e-17  4.30345e-18 -3.85361e-17 
-3.18980e-18 -6.40829e-18 -1.59524e-17 
-1.25862e-17 -6.31476e-18  8.79702e-18 
-4.70904e-18  8.27533e-18 -5.01329e-18 
 3.20639e-18 -2.20386e-18  1.40005e-17 
-4.74155e-18  4.25550e-18  2.00239e-17 
-8.90297e-18  1.56834e-17  2.83830e-17 
-1.52283e-17  7.15407e-18  3.07085e-17 
-1.85218e-17 -2.41800e-18  2.19449e-17 
-1.77345e-18 -1.17959e-17  1.96888e-17 
-5.80990e-18 -1.70573e-17  1.93908e-17 
-7.26528e-18 -1.05980e-17  1.87222e-17 
-1.95189e-17  1.78204e-17  2.91229e-18 
 4.04249e-19  7.85931e-18 -4.12207e-17 
-8.97246e-18 -1.48137e-18 -6.36752e-17 
-1.96846e-17  9.60445e-18 -6.65324e-17 
-3.68428e-17  1.81529e-17 -7.51444e-17 
-1.46498e-17 -2.65004e-17 -2.29757e-17 
-2.70419e-17 -1.27748e-17 -3.81443e-17 
-3.18710e-17  4.72088e-18 -4.30823e-17 
-5.28665e-18 -5.18665e-19 -3.72891e-17 
-1.02989e-17  6.71580e-18 -1.97719e-17 
-1.66593e-17  7.86354e-18  1.96707e-18 
-6.85301e-18  4.60225e-18  9.92947e-18 
 1.15324e-17 -7.28021e-18  1.10804e-17 
-1.06022e-17  7.58977e-18  2.07163e-17 
-3.42602e-18  2.53861e-18  2.21700e-17 
-2.25595e-17  2.33339e-18  2.37138e-17 
-2.20672e-17  3.29949e-18  1.84487e-17 
-9.05538e-18 -1.07383e-17  1.26892e-17 
-8.69082e-18 -6.56407e-18  1.65408e-17 
 4.01570e-21 -7.03664e-18  6.71093e-18 
-2.95831e-18  2.17336e-18 -4.26424e-18 
 1.45031e-18 -3.41785e-18 -5.33437e-17 
-4.48968e-18  1.20433e-18 -8.64137e-17 
-2.43739e-17  1.21391e-17 -7.77671e-17 
-1.96646e-17  1.28005e-17 -7.99496e-17 
-2.08261e-17 -1.63065e-17 -1.04354e-18 
-1.03788e-17 -1.62886e-17 -3.69092e-18 
-9.78044e-18 -8.06733e-18 -5.15507e-18 
-1.99269e-17  1.76036e-17 -6.11797e-18 
-2.80301e-18  4.29009e-18 -1.08423e-18 
 2.78111e-18  2.46742e-18  3.78038e-18 
-5.30839e-18  1.93751e-17  1.97901e-17 
 6.34873e-18  5.01975e-18  1.89256e-17 
 1.01332e-17 -4.14880e-18  1.35473e-17 
-1.36962e-17  1.35263e-17  1.94506e-17 
-1.99125e-17  8.06055e-18  3.08027e-17 
-1.09109e-17 -2.41190e-17  3.39503e-17 
-1.98051e-18 -5.22567e-18  2.82620e-17 
 2.32017e-18 -1.41927e-17  1.89786e-17 
 1.05063e-17 -8.24545e-18  7.87847e-18 
 2.82231e-17 -2.09933e-17 -1.24582e-17 
-1.40379e-18  1.54961e-17 -7.23320e-17 
 2.05559e-19 -7.77245e-19 -9.22715e-17 
-1.32780e-17  1.83258e-17 -8.10410e-17 
-1.74774e-17  1.20935e-17 -5.79562e-17 
-2.01022e-17 -2.73015e-18  3.51888e-17 
-8.87843e-18 -8.25730e-18  2.77147e-17 
-5.97313e-18 -5.80918e-18  1.36731e-17 
-3.26135e-18 -6.57696e-19  1.85748e-17 
 4.76088e-19 -2.29192e-18  3.25021e-17 
 2.48656e-18  3.34612e-18  2.79248e-17 
 8.27779e-18  1.34877e-17  2.66868e-17 
 1.58080e-18  7.26758e-18  3.09306e-17 
 1.18962e-17  1.14460e-18  2.18189e-17 
 4.21201e-18  8.98905e-18  2.41218e-17 
-3.49487e-18  8.00228e-19  2.56133e-17 
-7.93254e-18 -9.45712e-18  5.78713e-17 
 1.38301e-17 -1.57706e-17  6.00569e-17 
 2.18883e-17 -2.92727e-17  3.55851e-17 
 1.70389e-17 -7.14920e-18  3.65802e-17 
 1.68738e-17 -1.56473e-17  7.98689e-18 
 1.64059e-17  4.89107e-18 -4.04411e-17 
 8.23214e-18  8.90337e-18 -6.85358e-17 
-1.26817e-17  2.87766e-17 -6.52129e-17 
-3.53821e-17  3.61437e-17 -4.06222e-17 
-1.15950e-17 -2.80020e-18  4.00931e-17 
-9.41685e-18 -4.40540e-18  2.17738e-17 
-9.93052e-18 -7.22317e-18  1.16544e-17 
-9.84887e-19  5.61389e-18  1.87543e-17 
 3.82266e-18 -3.99360e-18  3.04168e-17 
 7.07881e-18 -1.42753e-17  3.35851e-17 
 3.86756e-18  8.46286e-18  2.84442e-17 
-7.84502e-18  2.26070e-17  3.09205e-17 
-4.61407e-18  1.44353e-17  2.49894e-17 
 1.61779e-17 -7.39213e-19  1.82187e-17 
 2.30992e-17 -1.27691e-17  2.71920e-17 
 2.06674e-17 -3.00746e-17  4.28147e-17 
-8.48332e-18 -3.66795e-18  5.05716e-17 
 4.89557e-18 -2.25833e-17  4.27707e-17 
 1.20337e-18 -1.27772e-17  4.14650e-17 
 8.22142e-18 -1.26455e-17  1.39247e-17 
-4.61235e-18  2.05147e-17 -4.00774e-17 
-1.03879e-17  1.41578e-17 -7.13017e-17 
-1.08575e-18  2.88121e-17 -7.13734e-17 
 4.23681e-18  2.39014e-17 -4.11054e-17 
-4.04984e-18 -1.02149e-17  4.61470e-17 
-4.46656e-18 -1.03171e-17  2.49164e-17 
-1.04518e-18 -8.66088e-18  5.97707e-18 
-6.57508e-18  2.04105e-18  1.40109e-17 
 9.87889e-19 -5.42136e-18  2.33461e-17 
-1.20169e-18 -7.87123e-18  2.33038e-17 
-1.29570e-18  1.03391e-17  2.59434e-17 
-7.32141e-19  9.09466e-18  3.22333e-17 
 4.89761e-18  2.32645e-20  3.56573e-17 
 7.39266e-18  5.29593e-18  3.30732e-17 
-2.48658e-18 -2.20434e-18  2.81170e-17 
-7.10045e-18 -1.53772e-17  6.37345e-17 
 1.59093e-17 -9.05610e-18  7.87615e-17 
 9.20726e-18 -1.77825e-17  6.09283e-17 
 1.24169e-17 -9.37507e-18  6.63966e-17 
 8.98075e-18 -6.52890e-18  4.26645e-17 
 1.01878e-17  1.49487e-17 -1.89033e-17 
 3.88772e-18  1.05249e-17 -5.17343e-17 
-1.32191e-17  3.05111e-17 -5.58113e-17 
-2.03825e-17  2.98471e-17 -4.03806e-17 
-1.60761e-18 -1.19664e-17  4.56028e-17 
 4.87221e-18 -1.64482e-17  2.74126e-17 
 2.16237e-18 -2.09929e-17  7.20408e-18 
-8.07061e-18 -1.45246e-18  1.14429e-17 
-1.61403e-17 -8.22408e-20  1.71224e-17 
-3.47235e-18 -9.64145e-18  1.91729e-17 
-4.58738e-18  1.12996e-17  2.14200e-17 
-1.46397e-17  2.60055e-17  3.51850e-17 
-2.07148e-19  1.53283e-17  3.89260e-17 
 1.94311e-18  3.79344e-18  3.48976e-17 
 6.32176e-18 -1.05522e-17  3.55856e-17 
 5.44047e-18 -2.41665e-17  6.12022e-17 
-2.19511e-18 -7.40455e-18  7.14966e-17 
-5.63894e-18 -1.35006e-17  5.74633e-17 
-2.04300e-18 -2.19119e-18  6.26781e-17 
-9.79133e-18  3.39322e-18  3.71465e-17 
-1.27647e-17  1.96922e-17 -2.37659e-17 
-9.00427e-18  6.85652e-18 -5.85184e-17 
 6.63291e-18  1.96782e-17 -6.40665e-17 
 1.56129e-17  1.27368e-17 -3.55576e-17 
 8.12856e-18 -2.31277e-17  5.92464e-17 
 3.90638e-18 -2.16936e-17  2.75528e-17 
-7.41072e-19 -1.51726e-17  4.13860e-19 
 2.24243e-18 -1.87211e-17  7.55350e-18 
-6.31248e-18 -1.49930e-17  2.60025e-17 
-1.34371e-17  2.13159e-18  2.87344e-17 
-1.56166e-17  2.47392e-17  1.95545e-17 
-7.88432e-19  9.46102e-18  2.66009e-17 
-5.18923e-18  8.58162e-18  2.55113e-17 
-3.43196e-18  1.61332e-17  6.72458e-18 
-1.26724e-17  7.22282e-19  9.26522e-18 
-1.64792e-17 -1.51341e-17  6.44885e-17 
 1.91168e-18 -2.04881e-18  8.23300e-17 
 8.81234e-19 -1.12482e-17  7.03499e-17 
-4.59911e-18  8.80992e-18  7.54333e-17 
 2.90532e-18 -3.24654e-18  4.76314e-17 
-9.97493e-18  2.61070e-17 -9.79584e-18 
 1.42407e-17 -7.67213e-18 -3.17688e-17 
-2.95479e-18  1.52115e-17 -4.51806e-17 
-8.29783e-18  1.91932e-17 -2.91505e-17 
 2.01994e-17 -3.60422e-17  3.16913e-17 
 1.03455e-17 -2.80163e-17  1.73500e-17 
 1.66136e-17 -3.05305e-17 -5.53611e-19 
 6.05172e-18 -1.05903e-17  1.68251e-18 
-1.61892e-18 -8.73062e-18  3.23303e-17 
-1.71047e-17 -2.18415e-18  3.36812e-17 
-4.98957e-18  9.03004e-19  2.90208e-17 
 2.82997e-19  2.93984e-18  2.16549e-17 
-1.20664e-17  1.26521e-17  2.10296e-17 
-1.34909e-17  1.36776e-17  5.64516e-18 
-1.03197e-17  1.29767e-17  3.85953e-18 
 1.96876e-18 -4.72608e-19  4.98361e-17 
-2.82908e-17  2.73567e-18  6.44525e-17 
-2.16074e-17  1.28887e-17  4.55761e-17 
-2.37652e-17  4.07202e-18  5.26074e-17 
-2.26210e-17  2.51432e-17  2.62129e-17 
-8.96148e-18  2.00291e-18 -2.27288e-17 
-1.31644e-17  2.14542e-17 -5.05111e-17 
 2.32061e-17 -1.08230e-17 -5.11455e-17 
 3.31487e-17 -4.15493e-18 -3.94115e-17 
 2.19902e-17 -2.83594e-17  1.36848e-17 
 2.09175e-17 -2.75247e-17  3.12499e-18 
 1.23111e-17 -2.12220e-17 -6.71567e-18 
 2.47627e-18 -2.00355e-18  7.50926e-18 
-5.41076e-18 -7.54582e-18  3.11010e-17 
-4.05804e-18 -2.08796e-17  3.82599e-17 
-7.68961e-18 -6.42139e-19  4.03325e-17 
-7.80542e-18  1.46650e-18  4.14101e-17 
-2.53208e-18  2.48041e-18  2.18938e-17 
-1.56148e-17  1.84752e-17  6.60747e-18 
-2.05306e-17  7.34665e-18  1.14133e-18 
-2.83759e-17  9.69738e-18  1.84654e-17 
-2.32937e-18 -1.25668e-17  2.28195e-17 
-1.58035e-17  1.48461e-17 -2.94817e-18 
-1.29393e-17  5.84562e-18  6.47644e-19 
-1.66426e-17  2.85849e-17 -3.34806e-17 
-3.65292e-18  7.15034e-18 -7.40606e-17 
 6.61329e-18  1.30997e-17 -9.09764e-17 
 7.66661e-18 -2.22786e-18 -9.39701e-17 
 1.24755e-17 -4.01212e-19 -5.98644e-17 
 3.96038e-17 -2.55931e-17 -2.45075e-17 
 1.38847e-17 -8.49806e-18 -1.86703e-18 
-2.37846e-18 -2.65411e-18  4.39086e-18 
-1.69514e-17  1.19978e-17  1.93745e-17 
 3.41917e-18 -1.56560e-17  3.89834e-17 
-7.96047e-18 -2.27262e-17  5.51211e-17 
-7.63308e-18 -5.05804e-18  5.09658e-17 
 4.11687e-18 -1.29165e-17  2.97289e-17 
 4.38053e-18 -6.98339e-18  1.81557e-17 
 7.87627e-19  2.36738e-18 -1.11808e-17 
-6.42364e-18 -4.55003e-18 -1.88243e-17 
-7.41515e-18 -1.99875e-17  4.46373e-18 
-1.92126e-17  2.02798e-18  5.17927e-18 
-2.20923e-17 -4.13712e-18 -1.95479e-17 
-2.35578e-17  1.25523e-17 -2.10716e-17 
-3.08205e-17  1.65653e-17 -4.67242e-17 
-2.43266e-17  3.13052e-17 -9.06208e-17 
-1.25591e-17  9.06323e-18 -1.03782e-16 
 1.45033e-17  2.24734e-17 -1.03387e-16 
 3.40273e-17  1.52221e-17 -7.47391e-17 
-5.77439e-19  7.93093e-17 -5.72663e-17 
-6.27052e-18  4.86596e-17  1.65227e-18 
-5.49660e-18  7.51519e-18  6.58598e-18 
-2.47204e-17  6.24681e-18  3.84109e-17 
 1.49410e-17 -1.73131e-17  4.46234e-17 
-1.58293e-17 -2.06093e-17  6.63712e-17 
 2.30632e-17 -6.26207e-17  5.57620e-17 
 9.59252e-18 -2.11918e-17  9.74435e-18 
 2.42954e-18 -6.82994e-19  1.39339e-17 
 1.83865e-17 -1.77641e-17 -2.72305e-17 
-1.74928e-17 -4.49079e-18 -2.61579e-17 
-6.38972e-18 -3.34165e-17  1.86335e-17 
-1.79838e-17  8.45321e-18  1.75050e-17 
-1.18986e-17 -1.63215e-17  4.31989e-18 
-2.52301e-17  2.22427e-17 -9.92083e-18 
-3.10647e-17 -3.94398e-19 -1.87789e-17 
-4.61961e-17  3.76088e-17 -7.63992e-17 
-3.46398e-18  6.80474e-18 -7.04056e-17 
 1.29991e-17  2.03549e-17 -7.48409e-17 
 2.99063e-17 -5.47102e-18 -1.06870e-16 
 4.30487e-17  3.64539e-17 -3.74922e-17 
 4.75014e-18  7.99339e-18 -9.51375e-17 
 3.84043e-18 -8.28253e-19 -1.48830e-16 
 1.65039e-17  1.28000e-17  1.54204e-17 
 1.26850e-17 -2.29367e-17 -1.07410e-16 
 1.37766e-17 -3.72884e-17  2.73114e-17 
 3.25690e-17 -3.35983e-17  5.21434e-17 
 3.27885e-17  1.62975e-18  3.47610e-17 
 3.90449e-17 -9.72753e-18  4.80250e-17 
 1.47672e-17  1.03353e-17 -7.23713e-17 
 8.33548e-19 -3.08937e-17  1.04799e-16 
 1.67288e-17 -2.66363e-18  8.63203e-17 
 9.85028e-18 -1.41583e-17  7.48186e-17 
 6.69222e-18 -2.55525e-19  4.20373e-17 
 1.69210e-19  3.24122e-18  3.47662e-17 
 8.36058e-19  2.35317e-17 -1.52296e-17 
 6.79369e-18  2.13449e-17 -6.42202e-18 
 1.75578e-17  2.83808e-17 -6.36492e-18 
 5.06624e-17  6.63958e-18  3.66153e-17 
 3.56394e-17 -2.51283e-17 -1.30633e-16 
 1.90817e-17  1.08134e-17 -7.26759e-17 
 1.05658e-17 -6.47518e-18 -1.13744e-16 
 7.25707e-18  5.63772e-18  1.37997e-17 
 1.30729e-17 -1.86310e-17 -1.41804e-16 
 1.47223e-17 -1.23512e-17  3.47020e-17 
 1.02432e-17  1.24214e-17  1.98991e-17 
 1.13805e-17 -1.28281e-17  8.44493e-18 
-2.03880e-17  2.02485e-17  5.40216e-17 
-5.18350e-18  1.06564e-17 -4.20053e-17 
 2.64995e-17 -2.64152e-17  1.36872e-16 
 1.71448e-17 -1.75457e-18  7.52514e-17 
 1.80971e-17 -2.74823e-17  6.49557e-17 
 1.50694e-17  5.81606e-18  5.34705e-17 
 1.13750e-17 -2.07064e-17  3.47744e-17 
 7.58761e-18  4.39646e-17  1.21792e-17 
 8.23451e-18  4.41151e-18  3.54382e-18 
 1.56606e-17  3.49063e-17 -1.31724e-17 
 3.47544e-17  2.89632e-18  1.10483e-18 
 1.21869e-17 -2.27388e-17 -8.95950e-17 
 1.51447e-17  7.95884e-18 -1.60586e-17 
 1.45500e-17 -2.19238e-17 -5.36702e-17 
 2.11665e-17 -9.99526e-18  8.96494e-17 
 2.01186e-17 -1.29075e-17 -7.69328e-17 
 3.52328e-18  6.94079e-18  5.47134e-17 
-4.94367e-18  1.38505e-17  4.80616e-17 
 3.65770e-19  1.66106e-17  1.57720e-17 
 6.61208e-18  2.23336e-17 -3.50747e-17 
 9.47534e-18  1.50889e-17 -3.59965e-17 
 1.84892e-17 -2.13354e-17  6.77827e-17 
 2.16551e-17 -4.21730e-18  5.52570e-17 
 1.93071e-17 -2.25036e-17  5.67311e-17 
 1.83888e-17  4.06319e-18  4.40197e-17 
 1.71741e-17 -2.02310e-17  4.18716e-17 
 1.61626e-17  3.99130e-17  1.09576e-17 
 1.51940e-17 -1.19856e-17 -2.19825e-17 
 1.67925e-17  2.32894e-17 -1.21916e-17 
 1.42238e-17 -2.21058e-18  3.69317e-17 
-3.74010e-18 -2.14942e-17 -1.66674e-16 
 7.40838e-18 -7.88481e-18 -1.08616e-16 
 3.53041e-17 -2.41594e-17 -1.41617e-16 
 3.40199e-17  1.49014e-18  1.60249e-17 
 1.24465e-17 -1.76890e-17 -1.32066e-16 
 1.75923e-17  1.32491e-17  3.95260e-17 
 1.64790e-17  2.11607e-17  3.26295e-18 
 1.76357e-18  2.02524e-17  1.22312e-17 
 1.58826e-20  3.24933e-17 -4.87217e-17 
 2.30850e-17  1.92936e-17  4.92043e-17 
 3.58355e-17 -2.29282e-17  6.82375e-17 
 2.62547e-17 -5.09671e-18  3.91879e-17 
 3.42806e-17 -1.78769e-17  3.15485e-17 
 3.16445e-17 -3.96055e-18 -1.23405e-17 
 2.54847e-17 -8.52130e-18 -1.45023e-17 
 2.59168e-17  4.24782e-17 -4.92684e-18 
 2.24623e-17 -2.83660e-17 -1.27459e-17 
 1.78106e-17  4.52822e-18 -2.05392e-17 
 9.74218e-18  3.03135e-18 -1.50151e-17 
-2.48361e-17 -1.92254e-17 -6.74084e-17 
 8.32981e-18 -2.71242e-17 -1.56507e-17 
 5.36206e-18 -1.87750e-17 -2.44947e-17 
-1.34909e-17  1.72214e-17  2.83773e-17 
-3.82418e-18 -1.43924e-17 -3.51978e-17 
 3.67174e-18  5.63149e-18  5.61634e-17 
-2.13444e-17  2.88872e-17  1.54702e-17 
-2.47536e-17  2.42300e-17  3.19449e-17 
-7.59135e-18  2.32294e-17 -3.59023e-17 
 1.41795e-17  8.00267e-18 -5.69582e-18 
 1.54861e-17 -1.23548e-17 -2.17457e-17 
-6.27989e-18 -2.02359e-17 -3.25832e-17 
-2.54010e-17 -5.97915e-18  8.21381e-18 
-2.09606e-17 -3.97262e-18 -3.27218e-17 
-2.37717e-17 -6.89194e-18 -2.28818e-17 
-8.83824e-19  3.51710e-17 -3.15080e-17 
 1.82096e-17 -1.73787e-17 -9.61543e-17 
 5.07297e-18 -3.38766e-18 -2.89575e-17 
-3.55042e-17  7.34457e-18 -2.54264e-17 
 6.69261e-20 -4.53450e-18 -9.33559e-18 
-2.69996e-19 -3.64885e-17 -1.35855e-17 