<?xml version="1.0" encoding="utf-8"?>
<VTKFile byte_order="LittleEndian" type="UnstructuredGrid" version="0.1">
   <UnstructuredGrid>
      <Piece NumberOfCells="1444" NumberOfPoints="761">
         <Points>
            <DataArray Name="Points" NumberOfComponents="3" format="ascii" type="Float32">
0.0000 0.0000 0.0000
0.0000 0.0526 0.0000
0.0000 0.1053 0.0000
0.0000 0.1579 0.0000
0.0000 0.2105 0.0000
0.0000 0.2632 0.0000
0.0000 0.3158 0.0000
0.0000 0.3684 0.0000
0.0000 0.4211 0.0000
0.0000 0.4737 0.0000
0.0000 0.5263 0.0000
0.0000 0.5789 0.0000
0.0000 0.6316 0.0000
0.0000 0.6842 0.0000
0.0000 0.7368 0.0000
0.0000 0.7895 0.0000
0.0000 0.8421 0.0000
0.0000 0.8947 0.0000
0.0000 0.9474 0.0000
0.0000 1.0000 0.0000
0.0526 0.0000 0.0000
0.0526 0.0526 0.0000
0.0526 0.1053 0.0000
0.0526 0.1579 0.0000
0.0526 0.2105 0.0000
0.0526 0.2632 0.0000
0.0526 0.3158 0.0000
0.0526 0.3684 0.0000
0.0526 0.4211 0.0000
0.0526 0.4737 0.0000
0.0526 0.5263 0.0000
0.0526 0.5789 0.0000
0.0526 0.6316 0.0000
0.0526 0.6842 0.0000
0.0526 0.7368 0.0000
0.0526 0.7895 0.0000
0.0526 0.8421 0.0000
0.0526 0.8947 0.0000
0.0526 0.9474 0.0000
0.0526 1.0000 0.0000
0.1053 0.0000 0.0000
0.1053 0.0526 0.0000
0.1053 0.1053 0.0000
0.1053 0.1579 0.0000
0.1053 0.2105 0.0000
0.1053 0.2632 0.0000
0.1053 0.3158 0.0000
0.1053 0.3684 0.0000
0.1053 0.4211 0.0000
0.1053 0.4737 0.0000
0.1053 0.5263 0.0000
0.1053 0.5789 0.0000
0.1053 0.6316 0.0000
0.1053 0.6842 0.0000
0.1053 0.7368 0.0000
0.1053 0.7895 0.0000
0.1053 0.8421 0.0000
0.1053 0.8947 0.0000
0.1053 0.9474 0.0000
0.1053 1.0000 0.0000
0.1579 0.0000 0.0000
0.1579 0.0526 0.0000
0.1579 0.1053 0.0000
0.1579 0.1579 0.0000
0.1579 0.2105 0.0000
0.1579 0.2632 0.0000
0.1579 0.3158 0.0000
0.1579 0.3684 0.0000
0.1579 0.4211 0.0000
0.1579 0.4737 0.0000
0.1579 0.5263 0.0000
0.1579 0.5789 0.0000
0.1579 0.6316 0.0000
0.1579 0.6842 0.0000
0.1579 0.7368 0.0000
0.1579 0.7895 0.0000
0.1579 0.8421 0.0000
0.1579 0.8947 0.0000
0.1579 0.9474 0.0000
0.1579 1.0000 0.0000
0.2105 0.0000 0.0000
0.2105 0.0526 0.0000
0.2105 0.1053 0.0000
0.2105 0.1579 0.0000
0.2105 0.2105 0.0000
0.2105 0.2632 0.0000
0.2105 0.3158 0.0000
0.2105 0.3684 0.0000
0.2105 0.4211 0.0000
0.2105 0.4737 0.0000
0.2105 0.5263 0.0000
0.2105 0.5789 0.0000
0.2105 0.6316 0.0000
0.2105 0.6842 0.0000
0.2105 0.7368 0.0000
0.2105 0.7895 0.0000
0.2105 0.8421 0.0000
0.2105 0.8947 0.0000
0.2105 0.9474 0.0000
0.2105 1.0000 0.0000
0.2632 0.0000 0.0000
0.2632 0.0526 0.0000
0.2632 0.1053 0.0000
0.2632 0.1579 0.0000
0.2632 0.2105 0.0000
0.2632 0.2632 0.0000
0.2632 0.3158 0.0000
0.2632 0.3684 0.0000
0.2632 0.4211 0.0000
0.2632 0.4737 0.0000
0.2632 0.5263 0.0000
0.2632 0.5789 0.0000
0.2632 0.6316 0.0000
0.2632 0.6842 0.0000
0.2632 0.7368 0.0000
0.2632 0.7895 0.0000
0.2632 0.8421 0.0000
0.2632 0.8947 0.0000
0.2632 0.9474 0.0000
0.2632 1.0000 0.0000
0.3158 0.0000 0.0000
0.3158 0.0526 0.0000
0.3158 0.1053 0.0000
0.3158 0.1579 0.0000
0.3158 0.2105 0.0000
0.3158 0.2632 0.0000
0.3158 0.3158 0.0000
0.3158 0.3684 0.0000
0.3158 0.4211 0.0000
0.3158 0.4737 0.0000
0.3158 0.5263 0.0000
0.3158 0.5789 0.0000
0.3158 0.6316 0.0000
0.3158 0.6842 0.0000
0.3158 0.7368 0.0000
0.3158 0.7895 0.0000
0.3158 0.8421 0.0000
0.3158 0.8947 0.0000
0.3158 0.9474 0.0000
0.3158 1.0000 0.0000
0.3684 0.0000 0.0000
0.3684 0.0526 0.0000
0.3684 0.1053 0.0000
0.3684 0.1579 0.0000
0.3684 0.2105 0.0000
0.3684 0.2632 0.0000
0.3684 0.3158 0.0000
0.3684 0.3684 0.0000
0.3684 0.4211 0.0000
0.3684 0.4737 0.0000
0.3684 0.5263 0.0000
0.3684 0.5789 0.0000
0.3684 0.6316 0.0000
0.3684 0.6842 0.0000
0.3684 0.7368 0.0000
0.3684 0.7895 0.0000
0.3684 0.8421 0.0000
0.3684 0.8947 0.0000
0.3684 0.9474 0.0000
0.3684 1.0000 0.0000
0.4211 0.0000 0.0000
0.4211 0.0526 0.0000
0.4211 0.1053 0.0000
0.4211 0.1579 0.0000
0.4211 0.2105 0.0000
0.4211 0.2632 0.0000
0.4211 0.3158 0.0000
0.4211 0.3684 0.0000
0.4211 0.4211 0.0000
0.4211 0.4737 0.0000
0.4211 0.5263 0.0000
0.4211 0.5789 0.0000
0.4211 0.6316 0.0000
0.4211 0.6842 0.0000
0.4211 0.7368 0.0000
0.4211 0.7895 0.0000
0.4211 0.8421 0.0000
0.4211 0.8947 0.0000
0.4211 0.9474 0.0000
0.4211 1.0000 0.0000
0.4737 0.0000 0.0000
0.4737 0.0526 0.0000
0.4737 0.1053 0.0000
0.4737 0.1579 0.0000
0.4737 0.2105 0.0000
0.4737 0.2632 0.0000
0.4737 0.3158 0.0000
0.4737 0.3684 0.0000
0.4737 0.4211 0.0000
0.4737 0.4737 0.0000
0.4737 0.5263 0.0000
0.4737 0.5789 0.0000
0.4737 0.6316 0.0000
0.4737 0.6842 0.0000
0.4737 0.7368 0.0000
0.4737 0.7895 0.0000
0.4737 0.8421 0.0000
0.4737 0.8947 0.0000
0.4737 0.9474 0.0000
0.4737 1.0000 0.0000
0.5263 0.0000 0.0000
0.5263 0.0526 0.0000
0.5263 0.1053 0.0000
0.5263 0.1579 0.0000
0.5263 0.2105 0.0000
0.5263 0.2632 0.0000
0.5263 0.3158 0.0000
0.5263 0.3684 0.0000
0.5263 0.4211 0.0000
0.5263 0.4737 0.0000
0.5263 0.5263 0.0000
0.5263 0.5789 0.0000
0.5263 0.6316 0.0000
0.5263 0.6842 0.0000
0.5263 0.7368 0.0000
0.5263 0.7895 0.0000
0.5263 0.8421 0.0000
0.5263 0.8947 0.0000
0.5263 0.9474 0.0000
0.5263 1.0000 0.0000
0.5789 0.0000 0.0000
0.5789 0.0526 0.0000
0.5789 0.1053 0.0000
0.5789 0.1579 0.0000
0.5789 0.2105 0.0000
0.5789 0.2632 0.0000
0.5789 0.3158 0.0000
0.5789 0.3684 0.0000
0.5789 0.4211 0.0000
0.5789 0.4737 0.0000
0.5789 0.5263 0.0000
0.5789 0.5789 0.0000
0.5789 0.6316 0.0000
0.5789 0.6842 0.0000
0.5789 0.7368 0.0000
0.5789 0.7895 0.0000
0.5789 0.8421 0.0000
0.5789 0.8947 0.0000
0.5789 0.9474 0.0000
0.5789 1.0000 0.0000
0.6316 0.0000 0.0000
0.6316 0.0526 0.0000
0.6316 0.1053 0.0000
0.6316 0.1579 0.0000
0.6316 0.2105 0.0000
0.6316 0.2632 0.0000
0.6316 0.3158 0.0000
0.6316 0.3684 0.0000
0.6316 0.4211 0.0000
0.6316 0.4737 0.0000
0.6316 0.5263 0.0000
0.6316 0.5789 0.0000
0.6316 0.6316 0.0000
0.6316 0.6842 0.0000
0.6316 0.7368 0.0000
0.6316 0.7895 0.0000
0.6316 0.8421 0.0000
0.6316 0.8947 0.0000
0.6316 0.9474 0.0000
0.6316 1.0000 0.0000
0.6842 0.0000 0.0000
0.6842 0.0526 0.0000
0.6842 0.1053 0.0000
0.6842 0.1579 0.0000
0.6842 0.2105 0.0000
0.6842 0.2632 0.0000
0.6842 0.3158 0.0000
0.6842 0.3684 0.0000
0.6842 0.4211 0.0000
0.6842 0.4737 0.0000
0.6842 0.5263 0.0000
0.6842 0.5789 0.0000
0.6842 0.6316 0.0000
0.6842 0.6842 0.0000
0.6842 0.7368 0.0000
0.6842 0.7895 0.0000
0.6842 0.8421 0.0000
0.6842 0.8947 0.0000
0.6842 0.9474 0.0000
0.6842 1.0000 0.0000
0.7368 0.0000 0.0000
0.7368 0.0526 0.0000
0.7368 0.1053 0.0000
0.7368 0.1579 0.0000
0.7368 0.2105 0.0000
0.7368 0.2632 0.0000
0.7368 0.3158 0.0000
0.7368 0.3684 0.0000
0.7368 0.4211 0.0000
0.7368 0.4737 0.0000
0.7368 0.5263 0.0000
0.7368 0.5789 0.0000
0.7368 0.6316 0.0000
0.7368 0.6842 0.0000
0.7368 0.7368 0.0000
0.7368 0.7895 0.0000
0.7368 0.8421 0.0000
0.7368 0.8947 0.0000
0.7368 0.9474 0.0000
0.7368 1.0000 0.0000
0.7895 0.0000 0.0000
0.7895 0.0526 0.0000
0.7895 0.1053 0.0000
0.7895 0.1579 0.0000
0.7895 0.2105 0.0000
0.7895 0.2632 0.0000
0.7895 0.3158 0.0000
0.7895 0.3684 0.0000
0.7895 0.4211 0.0000
0.7895 0.4737 0.0000
0.7895 0.5263 0.0000
0.7895 0.5789 0.0000
0.7895 0.6316 0.0000
0.7895 0.6842 0.0000
0.7895 0.7368 0.0000
0.7895 0.7895 0.0000
0.7895 0.8421 0.0000
0.7895 0.8947 0.0000
0.7895 0.9474 0.0000
0.7895 1.0000 0.0000
0.8421 0.0000 0.0000
0.8421 0.0526 0.0000
0.8421 0.1053 0.0000
0.8421 0.1579 0.0000
0.8421 0.2105 0.0000
0.8421 0.2632 0.0000
0.8421 0.3158 0.0000
0.8421 0.3684 0.0000
0.8421 0.4211 0.0000
0.8421 0.4737 0.0000
0.8421 0.5263 0.0000
0.8421 0.5789 0.0000
0.8421 0.6316 0.0000
0.8421 0.6842 0.0000
0.8421 0.7368 0.0000
0.8421 0.7895 0.0000
0.8421 0.8421 0.0000
0.8421 0.8947 0.0000
0.8421 0.9474 0.0000
0.8421 1.0000 0.0000
0.8947 0.0000 0.0000
0.8947 0.0526 0.0000
0.8947 0.1053 0.0000
0.8947 0.1579 0.0000
0.8947 0.2105 0.0000
0.8947 0.2632 0.0000
0.8947 0.3158 0.0000
0.8947 0.3684 0.0000
0.8947 0.4211 0.0000
0.8947 0.4737 0.0000
0.8947 0.5263 0.0000
0.8947 0.5789 0.0000
0.8947 0.6316 0.0000
0.8947 0.6842 0.0000
0.8947 0.7368 0.0000
0.8947 0.7895 0.0000
0.8947 0.8421 0.0000
0.8947 0.8947 0.0000
0.8947 0.9474 0.0000
0.8947 1.0000 0.0000
0.9474 0.0000 0.0000
0.9474 0.0526 0.0000
0.9474 0.1053 0.0000
0.9474 0.1579 0.0000
0.9474 0.2105 0.0000
0.9474 0.2632 0.0000
0.9474 0.3158 0.0000
0.9474 0.3684 0.0000
0.9474 0.4211 0.0000
0.9474 0.4737 0.0000
0.9474 0.5263 0.0000
0.9474 0.5789 0.0000
0.9474 0.6316 0.0000
0.9474 0.6842 0.0000
0.9474 0.7368 0.0000
0.9474 0.7895 0.0000
0.9474 0.8421 0.0000
0.9474 0.8947 0.0000
0.9474 0.9474 0.0000
0.9474 1.0000 0.0000
1.0000 0.0000 0.0000
1.0000 0.0526 0.0000
1.0000 0.1053 0.0000
1.0000 0.1579 0.0000
1.0000 0.2105 0.0000
1.0000 0.2632 0.0000
1.0000 0.3158 0.0000
1.0000 0.3684 0.0000
1.0000 0.4211 0.0000
1.0000 0.4737 0.0000
1.0000 0.5263 0.0000
1.0000 0.5789 0.0000
1.0000 0.6316 0.0000
1.0000 0.6842 0.0000
1.0000 0.7368 0.0000
1.0000 0.7895 0.0000
1.0000 0.8421 0.0000
1.0000 0.8947 0.0000
1.0000 0.9474 0.0000
1.0000 1.0000 0.0000
0.0263 0.0263 0.0000
0.0263 0.0789 0.0000
0.0263 0.1316 0.0000
0.0263 0.1842 0.0000
0.0263 0.2368 0.0000
0.0263 0.2895 0.0000
0.0263 0.3421 0.0000
0.0263 0.3947 0.0000
0.0263 0.4474 0.0000
0.0263 0.5000 0.0000
0.0263 0.5526 0.0000
0.0263 0.6053 0.0000
0.0263 0.6579 0.0000
0.0263 0.7105 0.0000
0.0263 0.7632 0.0000
0.0263 0.8158 0.0000
0.0263 0.8684 0.0000
0.0263 0.9211 0.0000
0.0263 0.9737 0.0000
0.0789 0.0263 0.0000
0.0789 0.0789 0.0000
0.0789 0.1316 0.0000
0.0789 0.1842 0.0000
0.0789 0.2368 0.0000
0.0789 0.2895 0.0000
0.0789 0.3421 0.0000
0.0789 0.3947 0.0000
0.0789 0.4474 0.0000
0.0789 0.5000 0.0000
0.0789 0.5526 0.0000
0.0789 0.6053 0.0000
0.0789 0.6579 0.0000
0.0789 0.7105 0.0000
0.0789 0.7632 0.0000
0.0789 0.8158 0.0000
0.0789 0.8684 0.0000
0.0789 0.9211 0.0000
0.0789 0.9737 0.0000
0.1316 0.0263 0.0000
0.1316 0.0789 0.0000
0.1316 0.1316 0.0000
0.1316 0.1842 0.0000
0.1316 0.2368 0.0000
0.1316 0.2895 0.0000
0.1316 0.3421 0.0000
0.1316 0.3947 0.0000
0.1316 0.4474 0.0000
0.1316 0.5000 0.0000
0.1316 0.5526 0.0000
0.1316 0.6053 0.0000
0.1316 0.6579 0.0000
0.1316 0.7105 0.0000
0.1316 0.7632 0.0000
0.1316 0.8158 0.0000
0.1316 0.8684 0.0000
0.1316 0.9211 0.0000
0.1316 0.9737 0.0000
0.1842 0.0263 0.0000
0.1842 0.0789 0.0000
0.1842 0.1316 0.0000
0.1842 0.1842 0.0000
[...]
         <PointData>
            <DataArray Name="fValues" NumberOfComponents="3" format="ascii" type="Float64">
-1.41033e-16  4.68251e-17  1.37570e-17 
-8.98684e-17  1.99066e-17 -9.29724e-18 
-1.18878e-16  2.41544e-17 -2.89032e-17 
-7.89875e-17 -3.58438e-18  3.41115e-17 
-3.61131e-17 -1.76895e-17  4.25514e-17 
-1.23333e-16  3.96616e-17 -8.11877e-17 
 1.18040e-16 -6.15792e-17  8.02372e-17 
-1.16586e-16  5.50453e-17  6.33910e-17 
 1.19040e-16 -6.47179e-17  7.98008e-17 
-6.98908e-17  3.27945e-17  9.78159e-17 
 2.01496e-16 -7.48490e-17 -8.56516e-17 
 8.19964e-17 -1.62166e-17 -7.23299e-18 
 7.26881e-17 -1.73173e-17 -2.80843e-17 
 9.89876e-17 -2.00966e-17 -3.77118e-17 
 5.98291e-17 -1.05358e-17  2.39644e-17 
-1.36665e-17  2.79442e-17 -1.33750e-16 
 2.20329e-16 -2.38092e-17 -7.07540e-17 
 6.24744e-18  8.31258e-17 -7.21047e-17 
 1.78070e-16 -4.73559e-17  1.85915e-17 
-1.50162e-16  1.03412e-16  2.24484e-16 
-8.85883e-17  3.65818e-17  6.55461e-17 
-8.40133e-17  2.99010e-17  4.70288e-18 
-9.77654e-17  3.21672e-17 -2.33943e-17 
-7.46636e-17  1.80354e-17  6.26142e-17 
-5.53839e-17  1.16728e-17  2.10365e-17 
-8.01830e-17  2.82930e-17 -3.16735e-17 
 6.00315e-17 -4.07902e-17  6.70484e-17 
-5.09985e-17  2.16757e-17  6.10144e-17 
 8.69518e-17 -4.23861e-17  9.23641e-17 
-1.33239e-17  1.40070e-17  1.14295e-16 
 1.53602e-16 -7.26062e-17 -4.24573e-17 
 9.75119e-17 -3.74778e-17 -5.45318e-17 
 7.70402e-17 -1.93232e-17 -2.55767e-17 
 8.11599e-17 -2.05163e-17 -3.38811e-17 
 5.78223e-17 -3.01066e-18 -3.28462e-17 
-1.97012e-17  5.02129e-17 -4.93499e-17 
 1.78482e-16 -2.01662e-17 -5.41156e-17 
 6.95837e-17  4.97231e-18 -6.82692e-17 
 1.05766e-16 -1.30739e-17  1.43403e-17 
-8.60809e-17  8.02444e-17  2.58870e-17 
-8.62024e-19 -1.11274e-17  4.34166e-17 
-7.32715e-17  2.88962e-17 -8.81685e-18 
-2.18701e-17  9.75085e-18 -1.72067e-17 
-7.17892e-17  4.34046e-17  6.19138e-17 
-5.62600e-17  2.55598e-17  1.82209e-17 
-2.55638e-17 -1.29204e-18 -1.92438e-17 
-3.54518e-18 -4.49854e-18  5.77439e-17 
 8.33522e-18  2.83085e-19  5.97938e-17 
 4.80579e-17 -2.38357e-17  8.09659e-17 
 5.55455e-17 -3.38999e-17  1.10842e-16 
 8.41644e-17 -3.97644e-17 -3.10554e-17 
 9.67542e-17 -4.17358e-17 -6.93719e-17 
 8.42185e-17 -2.79341e-17 -5.28136e-17 
 6.34803e-17 -1.52224e-17 -4.37854e-17 
 4.87017e-17  1.10244e-17 -4.99441e-17 
 2.85440e-17  3.06401e-17 -1.11344e-17 
 7.57981e-17  2.08193e-17 -1.61847e-17 
 7.76106e-17  5.26124e-18 -7.41025e-17 
 6.43122e-17  4.42427e-18 -1.72091e-17 
 8.19692e-19  2.73654e-17 -5.54213e-17 
 5.03241e-17 -4.92921e-17 -4.74928e-17 
-1.94017e-17  7.44636e-18 -1.24484e-17 
-4.69948e-17  3.81986e-17 -1.38628e-17 
-5.05667e-17  3.82349e-17  4.05296e-17 
-3.87750e-17  2.05975e-17  1.57422e-17 
-1.42396e-17 -3.83473e-18 -1.25832e-17 
-2.56395e-18 -7.02590e-18  6.15827e-17 
 2.52431e-17 -1.92098e-17  5.75710e-17 
 2.54906e-17 -1.73364e-17  6.59613e-17 
 5.20216e-17 -2.64268e-17  1.06148e-16 
 4.94658e-17 -2.15823e-17 -2.34759e-17 
 1.06158e-16 -4.95543e-17 -7.43767e-17 
 7.45040e-17 -2.48829e-17 -5.77171e-17 
 5.32767e-17  1.34820e-17 -3.24145e-17 
 4.08647e-17  2.67822e-17 -3.08292e-17 
 7.39356e-17  5.70470e-18 -9.48432e-18 
 4.50530e-17  4.59709e-17 -3.24655e-17 
 7.29129e-17  3.16039e-18 -8.11541e-17 
 6.78401e-17 -4.88907e-18 -7.33475e-17 
 4.48646e-17 -3.78682e-19 -1.39005e-16 
 1.58166e-17  4.53137e-18 -9.82004e-17 
 2.44441e-18  2.45490e-18 -4.35645e-17 
-5.35554e-17  2.51672e-17 -1.90665e-17 
-2.72667e-17  1.23904e-17  5.86497e-17 
-4.16267e-17  1.81405e-17  2.18323e-17 
-7.62686e-18  2.57031e-18 -6.48061e-18 
 4.12021e-18 -8.27343e-18  6.75977e-17 
 3.28948e-17 -3.51672e-17  5.63453e-17 
 2.98033e-17 -2.28269e-17  7.80905e-17 
 6.46671e-17 -2.40857e-17  1.04582e-16 
 4.32400e-17 -1.16521e-17 -1.70904e-17 
 3.85503e-17 -9.29842e-18 -7.56835e-17 
 2.60552e-17  1.72834e-17 -8.50198e-17 
 2.88162e-17  1.77892e-17 -6.17371e-17 
 4.48960e-17 -4.82041e-18 -6.80521e-17 
 3.90961e-17 -1.24549e-17 -3.38174e-17 
 7.24042e-17  1.33069e-17 -4.60965e-17 
 5.14060e-17  1.76452e-17 -1.12964e-16 
 6.09923e-17 -7.94745e-18 -9.97165e-17 
 2.16203e-17  1.50255e-17 -1.20503e-16 
 8.49527e-17  1.36495e-17 -3.48013e-17 
 7.68390e-17  1.00799e-17 -3.53263e-17 
 9.46765e-17 -1.03659e-17 -1.19953e-17 
 6.57998e-17  2.60451e-18  6.20698e-17 
 6.67526e-17  3.58425e-19  4.27512e-17 
 7.52161e-17 -5.57862e-18  1.41169e-17 
 1.11769e-16 -2.45978e-17  6.21854e-17 
 1.07256e-16 -1.94758e-17  5.97610e-17 
 1.47125e-16 -3.06612e-17  9.43005e-17 
 1.26585e-16 -1.37940e-17  1.17632e-16 
 1.36515e-16 -1.61853e-17 -4.37740e-17 
 7.58760e-17  1.05819e-17 -1.02202e-16 
 8.22929e-17  5.05446e-18 -9.89691e-17 
 1.26436e-16 -1.31448e-17 -1.00637e-16 
 9.72120e-17  4.39508e-18 -1.08505e-16 
 1.08114e-16  8.03607e-18 -4.51449e-17 
 9.26943e-17  4.91504e-17 -3.14847e-17 
 1.51534e-16  7.01927e-18 -1.03878e-16 
 1.29498e-16  1.73266e-17 -1.01499e-16 
 9.90618e-17  2.47442e-17 -1.50622e-16 
 3.65688e-17 -3.04572e-17 -1.01178e-17 
 7.85503e-17 -3.93544e-17 -5.45224e-17 
 6.59988e-17 -2.34948e-17 -4.77255e-17 
 2.01354e-17 -1.67714e-17  4.14664e-17 
 4.11528e-17 -3.48219e-17  3.16761e-17 
 3.15427e-17 -3.10112e-17  2.28281e-17 
 3.92122e-17 -2.46033e-17  7.97232e-17 
 4.23790e-17 -2.14069e-17  7.75087e-17 
 5.48104e-17 -2.03926e-17  8.50082e-17 
 1.30858e-17  1.23659e-17  1.05947e-16 
 3.93635e-17 -7.51377e-18 -3.50975e-17 
 2.94885e-17 -9.72289e-18 -1.18223e-16 
 1.27151e-17  4.47900e-18 -7.12449e-17 
 6.43334e-17 -1.30243e-17 -7.33992e-17 
 3.01089e-17  1.41900e-17 -8.64000e-17 
 7.30945e-17  2.33530e-19 -3.37808e-17 
 2.22984e-17  5.88186e-17 -1.69306e-17 
 9.15225e-17  1.81243e-17 -8.63945e-17 
 9.06980e-18  8.85689e-17 -1.37954e-16 
 1.17504e-17  1.21132e-16 -2.22388e-16 
 6.08130e-18 -6.53174e-18 -1.84623e-17 
 2.70283e-17 -2.59864e-17 -9.13057e-17 
 2.80201e-17 -3.24640e-17 -1.20173e-16 
 7.79094e-18 -2.98146e-17 -1.74122e-17 
 1.24920e-17 -3.50022e-17  1.81491e-17 
-1.81908e-19 -3.40042e-17  9.94784e-19 
-1.12586e-17 -3.14508e-17  8.57356e-17 
-1.80186e-17 -2.09622e-17  8.73641e-17 
-2.67782e-17 -7.61795e-18  1.00324e-16 
-4.50707e-17  1.30451e-17  1.10642e-16 
-6.18921e-17  2.32196e-17 -3.15704e-17 
 1.63070e-17 -1.65471e-17 -1.10695e-16 
-1.91716e-17  1.28913e-18 -5.03451e-17 
 2.56675e-17 -1.34998e-17 -5.10507e-17 
-2.27842e-18  1.43789e-17 -7.07234e-17 
 1.89204e-17  1.15130e-17 -1.38003e-17 
 2.25901e-17  4.27116e-17  1.00995e-18 
-4.83616e-19  4.73350e-17 -8.94913e-17 
-2.00921e-17  6.86471e-17 -1.50699e-16 
 2.28647e-17  5.69514e-17 -2.57709e-16 
-1.65629e-17 -7.31120e-17 -1.11458e-16 
-4.97649e-17 -3.71402e-17 -1.19282e-16 
-6.11695e-17 -2.22485e-17 -1.37752e-16 
-4.00008e-17 -4.18111e-17 -3.50078e-17 
-5.67228e-17 -3.81222e-17 -2.53130e-17 
-7.19944e-17 -2.52903e-17 -3.65543e-17 
-9.27173e-17 -6.96373e-18  5.73822e-17 
-1.03852e-16  1.01832e-18  7.11353e-17 
-1.23419e-16  6.28031e-18  8.55447e-17 
-9.71513e-17 -1.30613e-17  9.29196e-17 
-1.07955e-16  1.75693e-17  1.16637e-17 
-7.64890e-17  2.50523e-18 -9.52444e-17 
-3.79683e-17 -1.31924e-17 -6.92449e-17 
-7.68874e-17  1.35234e-17 -4.96616e-17 
-3.42297e-17  1.30419e-18 -7.47789e-17 
-8.86557e-17  3.27150e-17 -1.03268e-17 
-3.48782e-17  3.86728e-17 -8.17189e-18 
-8.72436e-17  6.92461e-17 -9.78033e-17 
-5.17622e-17  3.95877e-17 -1.49525e-16 
-2.90273e-17  2.39267e-17 -1.73009e-16 
 5.77462e-17 -3.96499e-17 -1.00558e-16 
 5.97903e-17 -4.77572e-17 -1.17774e-16 
 3.35990e-17 -3.85324e-17 -1.42938e-16 
 5.42313e-17 -4.83185e-17 -5.37414e-17 
 4.72703e-17 -4.09481e-17 -5.34991e-17 
 4.19146e-18 -9.00707e-18 -6.68055e-17 
 9.77359e-18 -1.12235e-17  1.41719e-17 
-3.41184e-17  1.41255e-17  1.65547e-17 
-3.67226e-17  1.80825e-17  4.99395e-17 
-4.83250e-17  2.70856e-17  1.01936e-16 
 1.55062e-19 -8.14898e-19  3.96680e-18 
 1.69691e-17 -1.43817e-17 -5.46310e-17 
 3.10213e-17  1.21826e-18 -5.24799e-17 
 1.71078e-17  2.72888e-17 -4.77345e-17 
 4.00713e-17  1.13938e-17 -6.95527e-17 
 4.50584e-17  1.24149e-17 -1.17256e-17 
 1.73482e-17  8.05464e-17 -8.01201e-18 
 1.89978e-17  4.25757e-17 -1.23358e-16 
 6.79197e-17 -7.53349e-18 -1.46346e-16 
 6.08252e-17  7.22067e-18 -1.78142e-16 
 2.19823e-17 -8.66113e-17 -5.12146e-17 
-5.62135e-18 -6.32247e-17 -9.04793e-17 
 2.30662e-17 -7.19345e-17 -8.14590e-17 
 2.88936e-17 -6.93719e-17  1.07053e-17 
-2.45503e-17 -3.54022e-17 -3.74528e-17 
-3.99531e-17 -2.44578e-17 -4.23586e-17 
-9.16593e-17  1.44269e-17  3.32392e-17 
-8.69711e-17  1.33179e-17  3.20964e-17 
-1.34838e-16  3.51313e-17  5.87076e-17 
-1.24865e-16  2.53001e-17  1.04584e-16 
-1.48912e-16  7.00658e-17  1.05633e-16 
-8.35451e-18 -1.87145e-17 -3.32786e-17 
-6.94520e-17  1.87966e-18 -7.57336e-18 
-4.33180e-17  1.40059e-17 -4.35054e-17 
-9.14787e-17  4.38861e-17 -8.52968e-18 
 1.41720e-17 -3.04728e-18 -2.31299e-17 
-6.61093e-17  3.89912e-17 -2.84116e-17 
-3.02336e-17  3.22090e-17 -1.38911e-16 
-7.96306e-17  6.02128e-17 -5.17862e-17 
 8.95667e-17 -3.99362e-17 -1.00771e-16 
 2.55465e-17 -9.59893e-17 -1.25463e-16 
 4.86813e-17 -8.50394e-17 -6.23846e-17 
 7.84600e-17 -8.35876e-17 -5.02619e-17 
 6.71969e-17 -7.35240e-17  6.23787e-18 
 2.15922e-17 -4.35373e-17 -6.71685e-18 
 1.03585e-17 -1.51928e-17 -1.71146e-17 
-2.00697e-17 -2.08091e-17  6.97831e-17 
-2.78021e-17  1.55989e-17  4.76798e-17 
-8.31913e-17  2.41457e-17  6.47113e-17 
-9.90582e-17  4.73239e-17  1.05813e-16 
-1.06826e-16  4.54091e-17  1.04938e-16 
-9.42865e-17  1.99093e-17 -7.30807e-18 
-5.03775e-17  7.37652e-18 -1.45859e-17 
-8.56512e-17  3.30283e-17 -3.63961e-17 
-6.20034e-17  1.42408e-17  3.65662e-17 
-2.07476e-17 -1.49601e-17 -7.23098e-18 
-3.73774e-17  3.55538e-17 -2.73687e-18 
-6.24512e-17  4.99583e-17 -1.08065e-16 
-4.75945e-17  4.81754e-17 -5.41238e-17 
-6.13911e-17  8.78498e-17 -3.18156e-17 
-4.45871e-17 -3.13674e-17 -1.05851e-16 
-1.65831e-17 -5.74315e-17 -6.29467e-17 
 4.51856e-18 -7.23578e-17 -5.49226e-17 
-2.92798e-17 -2.96127e-17  6.54061e-18 
-1.38362e-17 -4.85626e-17 -1.45849e-17 
-3.29715e-17 -1.30380e-17 -1.53721e-17 
-3.48562e-17 -1.29456e-17  7.63000e-17 
-4.88422e-17 -4.15392e-19  5.26363e-17 
-8.16976e-17  1.67584e-18  4.93316e-17 
-1.13859e-16  3.86917e-17  1.41571e-16 
-8.02601e-17  4.87985e-17  1.55037e-16 
-8.79868e-17  4.35541e-17  1.04395e-17 
-8.22816e-17  2.63667e-17 -2.98230e-17 
-3.81121e-17  6.04658e-18 -8.49983e-17 
-4.49158e-17  1.12342e-17 -6.56900e-19 
-2.85476e-17  3.15579e-18 -3.05174e-17 
-6.61199e-17  4.01351e-17 -6.00254e-17 
-3.50007e-17  1.76421e-17 -1.42595e-16 
-2.75870e-17  1.45339e-17 -1.49866e-17 
 3.69759e-17 -3.57435e-18 -2.75975e-17 
 1.30579e-17 -5.07449e-17 -6.87791e-17 
 8.12318e-18 -4.23517e-17 -1.92197e-17 
 2.04393e-17 -4.14466e-17 -2.56245e-17 
 1.72445e-17 -2.91767e-17  2.14951e-17 
 1.80895e-17 -2.78648e-17  2.15195e-17 
 2.43336e-17 -1.87798e-17  6.07588e-18 
 2.18127e-17 -2.78764e-17  8.07289e-17 
 3.28105e-17 -3.76508e-18  3.09829e-17 
-3.49389e-18 -5.00181e-18  5.89096e-17 
 7.83863e-18  5.95153e-18  1.12927e-16 
-6.68331e-17  4.01441e-17  1.24517e-16 
-6.13378e-17  1.08496e-17 -2.39678e-18 
-7.35382e-17  2.38184e-17  6.22402e-18 
-4.63077e-17  1.22019e-17 -2.22865e-17 
-4.54296e-17  1.41978e-17  4.32820e-17 
-6.12833e-17  2.68450e-17 -3.29055e-18 
-1.85277e-17  2.09751e-17 -6.07557e-18 
-3.35525e-17  2.93104e-17 -7.14679e-17 
-3.29707e-18  1.23751e-17 -3.92307e-18 
-5.79378e-17  4.99331e-17  1.85717e-17 
-3.47963e-17 -3.53089e-17 -3.67518e-17 
-5.85125e-17 -2.70939e-17  1.04320e-17 
-5.40994e-17 -2.79199e-17  2.52806e-18 
-3.64018e-17 -8.67466e-18  4.12718e-17 
-2.14899e-17 -3.45169e-17  1.22639e-17 
 9.10353e-18 -3.74255e-17 -1.67760e-17 
-2.28451e-17 -2.29758e-17  7.86422e-17 
-9.14310e-18 -7.36218e-19  4.08030e-17 
 6.57082e-18 -2.39421e-17  3.94554e-17 
-3.30404e-17  2.85933e-18  1.39213e-16 
-2.10225e-17  2.16321e-17  1.41257e-16 
-8.37642e-17  4.61074e-17  1.91587e-17 
-6.24931e-17  3.31873e-17  1.85227e-17 
-4.26224e-17  1.26976e-17 -3.20220e-17 
-3.44323e-17  7.68192e-18  1.88950e-17 
-7.71174e-17  3.01253e-17 -3.45908e-18 
-9.09209e-18  1.83151e-17 -2.02537e-17 
-2.53760e-17  2.37961e-17 -8.72421e-17 
-9.67039e-18  5.58613e-18  5.26329e-17 
 3.04935e-17 -2.09757e-18  3.64941e-17 
-2.91038e-18 -2.87114e-17 -2.98940e-17 
 5.01196e-18 -2.94757e-17  2.63677e-17 
-4.85832e-18 -2.14508e-17  2.81944e-17 
 1.58235e-17 -2.87056e-17  5.79197e-17 
 2.93387e-17 -4.31776e-17  4.32875e-17 
 4.29950e-17 -2.96756e-17  1.48472e-17 
 9.14663e-17 -4.86743e-17  7.38363e-17 
 1.04023e-17  2.46933e-17  5.55298e-17 
 5.63952e-17 -1.87603e-17  6.73112e-17 
 5.66080e-17 -1.29942e-17  9.70279e-17 
-1.08383e-17  9.63840e-18  9.40324e-17 
-1.61256e-17 -6.10797e-18 -1.80027e-17 
-7.42024e-17  3.21447e-17  4.01450e-17 
-2.29105e-17  8.02239e-18 -1.66658e-17 
-7.41412e-17  2.10585e-17  2.03204e-17 
-1.16425e-17 -3.35486e-18 -1.04829e-18 
-1.29842e-16  9.15918e-17  4.16999e-17 
 1.03412e-17  1.58233e-17 -4.43773e-17 
-1.67584e-17  2.53584e-17  4.81518e-17 
-5.02539e-17  5.68037e-17  6.71641e-17 
-3.15472e-17 -4.42580e-17  3.75772e-17 
 3.21101e-17 -5.74413e-17  1.95846e-17 
 2.08483e-17 -3.79467e-17  4.45295e-19 
 3.06561e-17 -2.95742e-17  5.73928e-17 
 4.74992e-17 -4.01601e-17  3.41839e-17 
 2.72492e-17 -8.15598e-18  4.95656e-17 
 7.63957e-17 -4.97268e-17  8.29493e-17 
 2.05033e-17  1.63312e-17  5.26432e-17 
 5.91101e-17 -1.69474e-17  9.76558e-17 
 4.07200e-17 -2.09599e-17  1.22110e-16 
 4.69535e-17 -1.50203e-17  6.52919e-17 
-3.08793e-17  1.04566e-17  3.44073e-17 
-3.37870e-17  1.41955e-18  2.83847e-18 
-4.72366e-17  1.62291e-17  3.71893e-17 
-4.79093e-17  2.92619e-17 -2.17308e-17 
-3.72111e-17  1.95758e-17  2.84740e-17 
-3.72204e-17  4.52533e-17 -4.75937e-17 
-4.01778e-17  5.60316e-17  1.68866e-17 
-3.72927e-17  5.56918e-17 -1.89460e-17 
-1.01623e-16  9.56217e-17  8.10400e-17 
-7.68985e-17  1.70860e-17  5.08566e-17 
-3.05102e-17 -2.52982e-17  1.01253e-17 
-2.33727e-18 -4.17181e-17 -1.48399e-17 
-1.64058e-17 -1.33246e-17  6.00177e-17 
 7.47827e-18 -3.00457e-17  4.73063e-17 
 9.12633e-18 -2.59140e-17  1.12347e-17 
-5.64551e-17  3.27591e-18  6.65441e-17 
-6.63808e-18  4.07860e-18  7.49886e-17 
-2.01441e-18 -3.33446e-17  9.11724e-17 
 1.45388e-17 -2.73020e-17  1.06418e-16 
 2.09891e-17 -1.70472e-17  1.98753e-17 
-9.35467e-18 -3.21686e-18  1.24683e-18 
-7.27171e-18  5.30916e-18  2.49436e-17 
-4.62766e-17  8.01258e-18  8.87089e-17 
 1.98940e-17 -2.86966e-17  8.42710e-18 
-8.66519e-17  4.03926e-17  5.89093e-17 
-2.16921e-17  2.47236e-17 -4.63769e-18 
-1.05048e-16  6.92089e-17  8.86297e-18 
-9.33307e-17  6.59970e-17 -4.79153e-17 
-7.76217e-18  3.27326e-17  3.19661e-17 
 9.21691e-18 -5.71991e-17  7.83512e-18 
 1.84301e-18 -3.41474e-17  1.80620e-17 
-9.43151e-18 -1.34788e-17 -1.95295e-18 
 1.86712e-18 -1.47374e-18  7.76354e-17 
 5.17829e-18 -3.83745e-17  5.89869e-17 
 1.69287e-17 -1.47414e-17 -1.90555e-18 
-1.06634e-16  4.70117e-17  8.46155e-17 
 5.06392e-17 -2.97590e-17  8.35097e-17 
-6.77427e-17  2.78421e-18  1.25766e-16 
 7.40451e-17 -6.30930e-17  1.38761e-16 
-4.87121e-17  2.12725e-17  7.62302e-17 
-4.11606e-17  1.23096e-17 -8.23931e-19 
 3.95815e-17 -3.68594e-17  3.44269e-17 
-4.19815e-17  1.12879e-17  1.32863e-18 
-1.31841e-18  2.09254e-19  3.69808e-17 
 4.47547e-18 -2.55470e-17 -4.71756e-17 
-1.37335e-16  6.44884e-17 -1.64216e-17 
-1.03679e-16  4.73580e-17 -7.22516e-17 
-1.36248e-16  7.03093e-17  5.88102e-17 
 3.37246e-17  1.80857e-17  8.42779e-17 
 9.19523e-17  3.42573e-17 -5.08778e-17 
 8.43820e-17  3.03358e-17  4.26059e-17 
 8.37878e-17  2.49139e-17  5.39511e-17 
 1.52458e-16 -2.76822e-17  1.21435e-16 
 5.97148e-17  2.83212e-17  1.10002e-16 
 1.66672e-16 -4.58083e-17  2.38987e-17 
-6.19925e-17  6.33909e-17  1.30160e-16 
 2.28426e-16 -7.47753e-17  1.33165e-16 
-2.78740e-17  5.19036e-17  1.46532e-16 
 2.07965e-16 -7.75729e-17  1.76510e-16 
-4.38909e-17  1.22116e-17  1.99329e-17 
-1.77495e-17 -3.24172e-17  5.83783e-19 
 9.35413e-17 -6.28267e-17  7.42587e-17 
-3.69355e-17  3.00709e-17 -9.79847e-18 
 5.73024e-17 -3.23664e-17  1.06821e-16 
 6.59613e-17 -2.23705e-17 -1.15431e-16 
-1.57279e-16  5.97202e-17  5.12938e-18 
-4.75721e-17  1.76794e-17 -7.81276e-17 
-1.42338e-16  7.25101e-17  7.28508e-17 
 3.31795e-17 -6.47334e-17  1.39590e-16 
-1.28096e-16  3.67997e-17  4.12442e-17 
-1.15685e-16  2.71797e-17 -7.89736e-17 
-1.10486e-16  1.44500e-17 -2.68129e-17 
-6.80390e-17 -3.60632e-18  1.71946e-16 
-8.65626e-17  1.78265e-17 -8.01969e-17 
-2.34186e-18 -1.28895e-17 -1.33295e-16 
 2.40092e-18  4.81891e-18  3.57412e-16 
-2.49287e-18 -1.68078e-17 -2.32716e-16 
 1.92662e-17 -9.21708e-18  4.00975e-16 
 6.95139e-17 -3.88982e-17 -7.63300e-17 
 1.51979e-16 -2.72353e-17 -1.64546e-16 
 8.20149e-17 -4.37465e-17  1.52786e-16 
 8.99215e-17 -2.51070e-18 -2.11714e-16 
 8.26123e-17 -2.34133e-17  1.44343e-16 
 2.08493e-17  1.60362e-17 -9.44315e-17 
 1.07098e-16  1.55777e-17 -1.18480e-16 
 1.29311e-16  2.11557e-17 -2.24830e-17 
 1.04620e-16  2.77971e-18 -1.69601e-16 
 1.51253e-17  2.17006e-17  1.76259e-16 
-4.29141e-17  2.13185e-17  1.10453e-16 
-7.00332e-17  2.41479e-17 -6.35307e-17 
-6.77316e-17  2.60296e-17 -5.72169e-19 
-6.46199e-17  3.02142e-17  2.07809e-16 
-4.74395e-17  1.03292e-17 -1.73614e-16 
-1.88528e-17 -6.96571e-18  6.56314e-17 
 2.98933e-18 -7.12375e-18  1.02450e-16 
 3.93761e-17 -1.78673e-18  2.79895e-17 
 6.11605e-17 -3.04404e-17  1.72478e-16 
 7.29567e-17 -2.73069e-17  1.57279e-16 
 9.61304e-17 -5.54727e-17 -2.95421e-16 
 9.33408e-17 -2.61923e-17  1.45670e-16 
 6.83645e-17 -2.16535e-17 -1.98426e-16 
 5.33554e-17 -1.44424e-17  1.27345e-16 
 1.70121e-17  3.01444e-17 -2.36423e-16 
 5.50749e-17  4.38272e-17  1.78880e-16 
 1.14318e-16 -2.00868e-17 -2.39722e-16 
 6.30385e-17  7.80392e-18  7.95479e-17 
 3.71824e-18  1.76562e-17  9.14084e-18 
-2.88210e-17 -1.64683e-17 -2.62409e-17 
-1.86643e-17  3.23658e-17 -2.18703e-17 
-1.45569e-17  2.88273e-17 -6.65063e-17 
-5.51478e-17  4.85221e-17  2.12987e-16 
-3.32881e-17 -5.65111e-18 -1.83414e-16 
-1.10680e-17 -3.54129e-18  9.29527e-17 
 6.46348e-18 -9.55036e-18  4.33772e-17 
 2.51820e-17 -6.94002e-18  3.03230e-17 
 4.49607e-17 -3.35702e-17  8.41938e-17 
 6.43625e-17 -2.79384e-17  2.07869e-16 
 8.16754e-17 -3.81802e-17 -2.99337e-16 
 8.52549e-17 -4.19412e-17  9.97613e-17 
 7.25199e-17 -1.24142e-17 -2.46477e-16 
 5.17750e-17  9.47604e-18  1.35418e-16 
 5.87842e-17  2.76544e-17 -2.49591e-16 
 4.03510e-17  4.28135e-17  2.77930e-16 
 2.89755e-17 -6.66638e-19 -2.41111e-16 
 7.74659e-17  8.47970e-18  7.46710e-17 
 6.09351e-17 -1.27709e-18 -1.17653e-16 
 6.00216e-17 -1.31327e-17 -6.57510e-17 
-3.69404e-17  2.36646e-17  1.90468e-17 
-7.09611e-17  2.77572e-17 -6.76577e-17 
-2.58973e-17  2.91058e-17  1.99054e-16 
-1.72040e-17  1.94070e-18 -1.73636e-16 
-7.33194e-18 -1.40307e-18  9.65853e-17 
 1.51626e-17 -1.63746e-17  8.52879e-17 
 2.30237e-17 -3.52668e-17  2.54169e-17 
 2.64694e-17 -1.45786e-17  1.09273e-16 
 3.19787e-17 -2.26506e-17  1.66854e-16 
 7.53232e-17 -1.88329e-17 -2.36968e-16 
 9.95327e-17 -3.38866e-17  8.79255e-17 
 6.55893e-17  2.31862e-17 -1.56041e-16 
 6.37194e-17  1.21573e-17  1.92667e-16 
 7.97275e-17  8.58921e-18 -1.98467e-16 
 9.57593e-17  1.31913e-17  2.16408e-16 
 9.31468e-17  2.67047e-17 -2.96792e-16 
 6.42665e-17 -7.60870e-18  4.89774e-18 
 5.72966e-17 -2.56242e-18 -2.05539e-16 
 1.30410e-17  1.50218e-17 -7.96157e-17 
 2.58367e-17 -1.86156e-19 -5.26728e-17 
 2.55309e-17  8.70950e-18 -2.35357e-17 
-1.89729e-18  8.32465e-18  1.89630e-16 
 1.68420e-17  2.14489e-18 -1.19733e-16 
 5.42521e-17 -5.74841e-18  7.96976e-17 
 6.31958e-17 -2.28375e-17  7.60026e-17 
 7.67740e-17 -3.99554e-17  1.45386e-17 
 1.13649e-16 -1.16183e-17  1.69978e-16 
 1.25959e-16 -1.75167e-17  1.37386e-16 
 5.41141e-17 -1.52727e-18 -2.52092e-16 
 1.82641e-17 -1.07879e-17  2.50281e-17 
 4.41717e-17  2.79150e-17 -2.89392e-16 
 5.28671e-17 -1.08667e-17  2.12880e-17 
 3.60599e-17  6.47536e-18 -3.37166e-16 
 5.14084e-17  1.24350e-17  2.20408e-16 
 7.67408e-17  2.74193e-17 -2.76317e-16 
 8.90464e-17  2.30053e-18  3.91466e-17 
 6.25002e-17  1.02983e-17 -2.08183e-16 
 4.91531e-17 -1.23326e-17  9.69992e-18 
 4.15847e-17 -1.22260e-17  6.30231e-18 