<?xml version="1.0" encoding="utf-8"?>
<VTKFile byte_order="LittleEndian" type="UnstructuredGrid" version="0.1">
   <UnstructuredGrid>
      <Piece NumberOfCells="1444" NumberOfPoints="761">
         <Points>
            <DataArray Name="Points" NumberOfComponents="3" format="ascii" type="Float32">
0.0000 0.0000 0.0000
0.0000 0.0526 0.0000
0.0000 0.1053 0.0000
0.0000 0.1579 0.0000
0.0000 0.2105 0.0000
0.0000 0.2632 0.0000
0.0000 0.3158 0.0000
0.0000 0.3684 0.0000
0.0000 0.4211 0.0000
0.0000 0.4737 0.0000
0.0000 0.5263 0.0000
0.0000 0.5789 0.0000
0.0000 0.6316 0.0000
0.0000 0.6842 0.0000
0.0000 0.7368 0.0000
0.0000 0.7895 0.0000
0.0000 0.8421 0.0000
0.0000 0.8947 0.0000
0.0000 0.9474 0.0000
0.0000 1.0000 0.0000
0.0526 0.0000 0.0000
0.0526 0.0526 0.0000
0.0526 0.1053 0.0000
0.0526 0.1579 0.0000
0.0526 0.2105 0.0000
0.0526 0.2632 0.0000
0.0526 0.3158 0.0000
0.0526 0.3684 0.0000
0.0526 0.4211 0.0000
0.0526 0.4737 0.0000
0.0526 0.5263 0.0000
0.0526 0.5789 0.0000
0.0526 0.6316 0.0000
0.0526 0.6842 0.0000
0.0526 0.7368 0.0000
0.0526 0.7895 0.0000
0.0526 0.8421 0.0000
0.0526 0.8947 0.0000
0.0526 0.9474 0.0000
0.0526 1.0000 0.0000
0.1053 0.0000 0.0000
0.1053 0.0526 0.0000
0.1053 0.1053 0.0000
0.1053 0.1579 0.0000
0.1053 0.2105 0.0000
0.1053 0.2632 0.0000
0.1053 0.3158 0.0000
0.1053 0.3684 0.0000
0.1053 0.4211 0.0000
0.1053 0.4737 0.0000
0.1053 0.5263 0.0000
0.1053 0.5789 0.0000
0.1053 0.6316 0.0000
0.1053 0.6842 0.0000
0.1053 0.7368 0.0000
0.1053 0.7895 0.0000
0.1053 0.8421 0.0000
0.1053 0.8947 0.0000
0.1053 0.9474 0.0000
0.1053 1.0000 0.0000
0.1579 0.0000 0.0000
0.1579 0.0526 0.0000
0.1579 0.1053 0.0000
0.1579 0.1579 0.0000
0.1579 0.2105 0.0000
0.1579 0.2632 0.0000
0.1579 0.3158 0.0000
0.1579 0.3684 0.0000
0.1579 0.4211 0.0000
0.1579 0.4737 0.0000
0.1579 0.5263 0.0000
0.1579 0.5789 0.0000
0.1579 0.6316 0.0000
0.1579 0.6842 0.0000
0.1579 0.7368 0.0000
0.1579 0.7895 0.0000
0.1579 0.8421 0.0000
0.1579 0.8947 0.0000
0.1579 0.9474 0.0000
0.1579 1.0000 0.0000
0.2105 0.0000 0.0000
0.2105 0.0526 0.0000
0.2105 0.1053 0.0000
0.2105 0.1579 0.0000
0.2105 0.2105 0.0000
0.2105 0.2632 0.0000
0.2105 0.3158 0.0000
0.2105 0.3684 0.0000
0.2105 0.4211 0.0000
0.2105 0.4737 0.0000
0.2105 0.5263 0.0000
0.2105 0.5789 0.0000
0.2105 0.6316 0.0000
0.2105 0.6842 0.0000
0.2105 0.7368 0.0000
0.2105 0.7895 0.0000
0.2105 0.8421 0.0000
0.2105 0.8947 0.0000
0.2105 0.9474 0.0000
0.2105 1.0000 0.0000
0.2632 0.0000 0.0000
0.2632 0.0526 0.0000
0.2632 0.1053 0.0000
0.2632 0.1579 0.0000
0.2632 0.2105 0.0000
0.2632 0.2632 0.0000
0.2632 0.3158 0.0000
0.2632 0.3684 0.0000
0.2632 0.4211 0.0000
0.2632 0.4737 0.0000
0.2632 0.5263 0.0000
0.2632 0.5789 0.0000
0.2632 0.6316 0.0000
0.2632 0.6842 0.0000
0.2632 0.7368 0.0000
0.2632 0.7895 0.0000
0.2632 0.8421 0.0000
0.2632 0.8947 0.0000
0.2632 0.9474 0.0000
0.2632 1.0000 0.0000
0.3158 0.0000 0.0000
0.3158 0.0526 0.0000
0.3158 0.1053 0.0000
0.3158 0.1579 0.0000
0.3158 0.2105 0.0000
0.3158 0.2632 0.0000
0.3158 0.3158 0.0000
0.3158 0.3684 0.0000
0.3158 0.4211 0.0000
0.3158 0.4737 0.0000
0.3158 0.5263 0.0000
0.3158 0.5789 0.0000
0.3158 0.6316 0.0000
0.3158 0.6842 0.0000
0.3158 0.7368 0.0000
0.3158 0.7895 0.0000
0.3158 0.8421 0.0000
0.3158 0.8947 0.0000
0.3158 0.9474 0.0000
0.3158 1.0000 0.0000
0.3684 0.0000 0.0000
0.3684 0.0526 0.0000
0.3684 0.1053 0.0000
0.3684 0.1579 0.0000
0.3684 0.2105 0.0000
0.3684 0.2632 0.0000
0.3684 0.3158 0.0000
0.3684 0.3684 0.0000
0.3684 0.4211 0.0000
0.3684 0.4737 0.0000
0.3684 0.5263 0.0000
0.3684 0.5789 0.0000
0.3684 0.6316 0.0000
0.3684 0.6842 0.0000
0.3684 0.7368 0.0000
0.3684 0.7895 0.0000
0.3684 0.8421 0.0000
0.3684 0.8947 0.0000
0.3684 0.9474 0.0000
0.3684 1.0000 0.0000
0.4211 0.0000 0.0000
0.4211 0.0526 0.0000
0.4211 0.1053 0.0000
0.4211 0.1579 0.0000
0.4211 0.2105 0.0000
0.4211 0.2632 0.0000
0.4211 0.3158 0.0000
0.4211 0.3684 0.0000
0.4211 0.4211 0.0000
0.4211 0.4737 0.0000
0.4211 0.5263 0.0000
0.4211 0.5789 0.0000
0.4211 0.6316 0.0000
0.4211 0.6842 0.0000
0.4211 0.7368 0.0000
0.4211 0.7895 0.0000
0.4211 0.8421 0.0000
0.4211 0.8947 0.0000
0.4211 0.9474 0.0000
0.4211 1.0000 0.0000
0.4737 0.0000 0.0000
0.4737 0.0526 0.0000
0.4737 0.1053 0.0000
0.4737 0.1579 0.0000
0.4737 0.2105 0.0000
0.4737 0.2632 0.0000
0.4737 0.3158 0.0000
0.4737 0.3684 0.0000
0.4737 0.4211 0.0000
0.4737 0.4737 0.0000
0.4737 0.5263 0.0000
0.4737 0.5789 0.0000
0.4737 0.6316 0.0000
0.4737 0.6842 0.0000
0.4737 0.7368 0.0000
0.4737 0.7895 0.0000
0.4737 0.8421 0.0000
0.4737 0.8947 0.0000
0.4737 0.9474 0.0000
0.4737 1.0000 0.0000
0.5263 0.0000 0.0000
0.5263 0.0526 0.0000
0.5263 0.1053 0.0000
0.5263 0.1579 0.0000
0.5263 0.2105 0.0000
0.5263 0.2632 0.0000
0.5263 0.3158 0.0000
0.5263 0.3684 0.0000
0.5263 0.4211 0.0000
0.5263 0.4737 0.0000
0.5263 0.5263 0.0000
0.5263 0.5789 0.0000
0.5263 0.6316 0.0000
0.5263 0.6842 0.0000
0.5263 0.7368 0.0000
0.5263 0.7895 0.0000
0.5263 0.8421 0.0000
0.5263 0.8947 0.0000
0.5263 0.9474 0.0000
0.5263 1.0000 0.0000
0.5789 0.0000 0.0000
0.5789 0.0526 0.0000
0.5789 0.1053 0.0000
0.5789 0.1579 0.0000
0.5789 0.2105 0.0000
0.5789 0.2632 0.0000
0.5789 0.3158 0.0000
0.5789 0.3684 0.0000
0.5789 0.4211 0.0000
0.5789 0.4737 0.0000
0.5789 0.5263 0.0000
0.5789 0.5789 0.0000
0.5789 0.6316 0.0000
0.5789 0.6842 0.0000
0.5789 0.7368 0.0000
0.5789 0.7895 0.0000
0.5789 0.8421 0.0000
0.5789 0.8947 0.0000
0.5789 0.9474 0.0000
0.5789 1.0000 0.0000
0.6316 0.0000 0.0000
0.6316 0.0526 0.0000
0.6316 0.1053 0.0000
0.6316 0.1579 0.0000
0.6316 0.2105 0.0000
0.6316 0.2632 0.0000
0.6316 0.3158 0.0000
0.6316 0.3684 0.0000
0.6316 0.4211 0.0000
0.6316 0.4737 0.0000
0.6316 0.5263 0.0000
0.6316 0.5789 0.0000
0.6316 0.6316 0.0000
0.6316 0.6842 0.0000
0.6316 0.7368 0.0000
0.6316 0.7895 0.0000
0.6316 0.8421 0.0000
0.6316 0.8947 0.0000
0.6316 0.9474 0.0000
0.6316 1.0000 0.0000
0.6842 0.0000 0.0000
0.6842 0.0526 0.0000
0.6842 0.1053 0.0000
0.6842 0.1579 0.0000
0.6842 0.2105 0.0000
0.6842 0.2632 0.0000
0.6842 0.3158 0.0000
0.6842 0.3684 0.0000
0.6842 0.4211 0.0000
0.6842 0.4737 0.0000
0.6842 0.5263 0.0000
0.6842 0.5789 0.0000
0.6842 0.6316 0.0000
0.6842 0.6842 0.0000
0.6842 0.7368 0.0000
0.6842 0.7895 0.0000
0.6842 0.8421 0.0000
0.6842 0.8947 0.0000
0.6842 0.9474 0.0000
0.6842 1.0000 0.0000
0.7368 0.0000 0.0000
0.7368 0.0526 0.0000
0.7368 0.1053 0.0000
0.7368 0.1579 0.0000
0.7368 0.2105 0.0000
0.7368 0.2632 0.0000
0.7368 0.3158 0.0000
0.7368 0.3684 0.0000
0.7368 0.4211 0.0000
0.7368 0.4737 0.0000
0.7368 0.5263 0.0000
0.7368 0.5789 0.0000
0.7368 0.6316 0.0000
0.7368 0.6842 0.0000
0.7368 0.7368 0.0000
0.7368 0.7895 0.0000
0.7368 0.8421 0.0000
0.7368 0.8947 0.0000
0.7368 0.9474 0.0000
0.7368 1.0000 0.0000
0.7895 0.0000 0.0000
0.7895 0.0526 0.0000
0.7895 0.1053 0.0000
0.7895 0.1579 0.0000
0.7895 0.2105 0.0000
0.7895 0.2632 0.0000
0.7895 0.3158 0.0000
0.7895 0.3684 0.0000
0.7895 0.4211 0.0000
0.7895 0.4737 0.0000
0.7895 0.5263 0.0000
0.7895 0.5789 0.0000
0.7895 0.6316 0.0000
0.7895 0.6842 0.0000
0.7895 0.7368 0.0000
0.7895 0.7895 0.0000
0.7895 0.8421 0.0000
0.7895 0.8947 0.0000
0.7895 0.9474 0.0000
0.7895 1.0000 0.0000
0.8421 0.0000 0.0000
0.8421 0.0526 0.0000
0.8421 0.1053 0.0000
0.8421 0.1579 0.0000
0.8421 0.2105 0.0000
0.8421 0.2632 0.0000
0.8421 0.3158 0.0000
0.8421 0.3684 0.0000
0.8421 0.4211 0.0000
0.8421 0.4737 0.0000
0.8421 0.5263 0.0000
0.8421 0.5789 0.0000
0.8421 0.6316 0.0000
0.8421 0.6842 0.0000
0.8421 0.7368 0.0000
0.8421 0.7895 0.0000
0.8421 0.8421 0.0000
0.8421 0.8947 0.0000
0.8421 0.9474 0.0000
0.8421 1.0000 0.0000
0.8947 0.0000 0.0000
0.8947 0.0526 0.0000
0.8947 0.1053 0.0000
0.8947 0.1579 0.0000
0.8947 0.2105 0.0000
0.8947 0.2632 0.0000
0.8947 0.3158 0.0000
0.8947 0.3684 0.0000
0.8947 0.4211 0.0000
0.8947 0.4737 0.0000
0.8947 0.5263 0.0000
0.8947 0.5789 0.0000
0.8947 0.6316 0.0000
0.8947 0.6842 0.0000
0.8947 0.7368 0.0000
0.8947 0.7895 0.0000
0.8947 0.8421 0.0000
0.8947 0.8947 0.0000
0.8947 0.9474 0.0000
0.8947 1.0000 0.0000
0.9474 0.0000 0.0000
0.9474 0.0526 0.0000
0.9474 0.1053 0.0000
0.9474 0.1579 0.0000
0.9474 0.2105 0.0000
0.9474 0.2632 0.0000
0.9474 0.3158 0.0000
0.9474 0.3684 0.0000
0.9474 0.4211 0.0000
0.9474 0.4737 0.0000
0.9474 0.5263 0.0000
0.9474 0.5789 0.0000
0.9474 0.6316 0.0000
0.9474 0.6842 0.0000
0.9474 0.7368 0.0000
0.9474 0.7895 0.0000
0.9474 0.8421 0.0000
0.9474 0.8947 0.0000
0.9474 0.9474 0.0000
0.9474 1.0000 0.0000
1.0000 0.0000 0.0000
1.0000 0.0526 0.0000
1.0000 0.1053 0.0000
1.0000 0.1579 0.0000
1.0000 0.2105 0.0000
1.0000 0.2632 0.0000
1.0000 0.3158 0.0000
1.0000 0.3684 0.0000
1.0000 0.4211 0.0000
1.0000 0.4737 0.0000
1.0000 0.5263 0.0000
1.0000 0.5789 0.0000
1.0000 0.6316 0.0000
1.0000 0.6842 0.0000
1.0000 0.7368 0.0000
1.0000 0.7895 0.0000
1.0000 0.8421 0.0000
1.0000 0.8947 0.0000
1.0000 0.9474 0.0000
1.0000 1.0000 0.0000
0.0263 0.0263 0.0000
0.0263 0.0789 0.0000
0.0263 0.1316 0.0000
0.0263 0.1842 0.0000
0.0263 0.2368 0.0000
0.0263 0.2895 0.0000
0.0263 0.3421 0.0000
0.0263 0.3947 0.0000
0.0263 0.4474 0.0000
0.0263 0.5000 0.0000
0.0263 0.5526 0.0000
0.0263 0.6053 0.0000
0.0263 0.6579 0.0000
0.0263 0.7105 0.0000
0.0263 0.7632 0.0000
0.0263 0.8158 0.0000
0.0263 0.8684 0.0000
0.0263 0.9211 0.0000
0.0263 0.9737 0.0000
0.0789 0.0263 0.0000
0.0789 0.0789 0.0000
0.0789 0.1316 0.0000
0.0789 0.1842 0.0000
0.0789 0.2368 0.0000
0.0789 0.2895 0.0000
0.0789 0.3421 0.0000
0.0789 0.3947 0.0000
0.0789 0.4474 0.0000
0.0789 0.5000 0.0000
0.0789 0.5526 0.0000
0.0789 0.6053 0.0000
0.0789 0.6579 0.0000
0.0789 0.7105 0.0000
0.0789 0.7632 0.0000
0.0789 0.8158 0.0000
0.0789 0.8684 0.0000
0.0789 0.9211 0.0000
0.0789 0.9737 0.0000
0.1316 0.0263 0.0000
0.1316 0.0789 0.0000
0.1316 0.1316 0.0000
0.1316 0.1842 0.0000
0.1316 0.2368 0.0000
0.1316 0.2895 0.0000
0.1316 0.3421 0.0000
0.1316 0.3947 0.0000
0.1316 0.4474 0.0000
0.1316 0.5000 0.0000
0.1316 0.5526 0.0000
0.1316 0.6053 0.0000
0.1316 0.6579 0.0000
0.1316 0.7105 0.0000
0.1316 0.7632 0.0000
0.1316 0.8158 0.0000
0.1316 0.8684 0.0000
0.1316 0.9211 0.0000
0.1316 0.9737 0.0000
0.1842 0.0263 0.0000
0.1842 0.0789 0.0000
0.1842 0.1316 0.0000
0.1842 0.1842 0.0000
[...]
         <PointData>
            <DataArray Name="fValues" NumberOfComponents="3" format="ascii" type="Float64">
 1.98064e-34  1.98064e-34        00000 
 2.08922e-18  1.81510e-18        00000 
 1.75800e-18  3.11684e-18        00000 
 1.23412e-18  3.45093e-18        00000 
 5.46485e-18  2.74708e-18        00000 
 3.52798e-18  3.31675e-18        00000 
-7.30613e-18  2.63082e-18        00000 
 7.90531e-18  3.02855e-18        00000 
-2.91206e-18  2.22950e-18        00000 
 1.34390e-17  1.78952e-18        00000 
 4.04948e-18 -2.51543e-19        00000 
 8.56459e-19 -1.06977e-18        00000 
 4.75792e-18 -3.42100e-18        00000 
-1.94755e-18 -3.29753e-18        00000 
 2.88788e-18 -4.74931e-18        00000 
 1.13091e-18 -3.96690e-18        00000 
-1.13637e-17 -4.49091e-18        00000 
-9.37790e-18 -1.74666e-18        00000 
-1.61937e-17 -1.13146e-18        00000 
 7.92255e-34  1.48548e-34        00000 
-7.10679e-18 -1.62328e-18        00000 
-2.85514e-18  2.51269e-19        00000 
-4.52481e-18  1.77648e-18        00000 
-3.17041e-18  3.13413e-18        00000 
 3.06275e-18  3.75915e-18        00000 
-2.50760e-18  4.94269e-18        00000 
-1.72861e-18  4.49740e-18        00000 
 2.59214e-18  4.01582e-18        00000 
 2.77527e-18  3.53047e-18        00000 
 1.03811e-17  2.69188e-18        00000 
 1.43433e-17  1.36128e-18        00000 
 5.59577e-18 -1.90063e-18        00000 
 8.66725e-18 -3.04046e-18        00000 
 3.21631e-18 -4.31257e-18        00000 
 5.99045e-18 -4.80569e-18        00000 
 2.34676e-19 -3.89394e-18        00000 
-2.22844e-20 -2.10029e-18        00000 
-7.66822e-18 -3.15053e-18        00000 
-7.66467e-18 -3.25537e-18        00000 
-7.10679e-18 -1.62328e-18        00000 
-8.73063e-18 -3.90486e-19        00000 
-6.73644e-18 -3.44383e-20        00000 
-7.97315e-18  1.03649e-18        00000 
-6.78805e-18  2.40879e-18        00000 
-1.16663e-19  4.67232e-18        00000 
-4.68540e-18  4.87760e-18        00000 
-1.19122e-18  4.71565e-18        00000 
 2.39397e-18  4.51532e-18        00000 
 6.26096e-18  4.32422e-18        00000 
 1.24464e-17  2.42760e-18        00000 
 1.98020e-17  5.80685e-19        00000 
 1.08813e-17 -1.59786e-18        00000 
 1.29723e-17 -3.50067e-18        00000 
 6.53433e-18 -4.46027e-18        00000 
 8.78539e-18 -5.09207e-18        00000 
-1.46916e-19 -3.24798e-18        00000 
 6.72014e-18 -1.66248e-18        00000 
-3.11132e-18 -1.52619e-18        00000 
-4.72911e-18 -9.89783e-19        00000 
-8.73063e-18 -3.90486e-19        00000 
-7.62737e-18 -1.48126e-19        00000 
-9.92517e-18 -1.68773e-18        00000 
-7.89226e-18  5.39097e-20        00000 
-1.01512e-17  1.90396e-18        00000 
-2.51648e-18  3.87576e-18        00000 
-5.81178e-18  3.91293e-18        00000 
-1.25148e-18  3.66941e-18        00000 
 3.15585e-18  2.96641e-18        00000 
 8.23400e-18  2.00147e-18        00000 
 1.52228e-17  7.95726e-19        00000 
 2.35867e-17 -4.28763e-19        00000 
 1.58235e-17 -2.26808e-18        00000 
 1.72756e-17 -4.46885e-18        00000 
 9.67260e-18 -4.88049e-18        00000 
 1.10869e-17 -3.27539e-18        00000 
 3.17240e-18 -2.68832e-18        00000 
 8.46312e-18 -6.63432e-19        00000 
 2.41447e-19  1.54828e-19        00000 
-2.85306e-19  1.69413e-19        00000 
-7.62737e-18 -1.48126e-19        00000 
-4.74269e-18 -8.90713e-19        00000 
-9.00366e-18 -5.00984e-19        00000 
-1.23042e-17 -3.30735e-20        00000 
-1.18212e-17  1.07767e-18        00000 
-4.29148e-18  1.81358e-18        00000 
-6.28789e-18  2.37163e-18        00000 
-1.42850e-18  2.32336e-18        00000 
 4.91635e-18  1.24774e-18        00000 
 9.17780e-18 -8.87415e-19        00000 
 1.79351e-17 -1.64207e-18        00000 
 2.53127e-17 -2.71165e-18        00000 
 2.11857e-17 -3.07521e-18        00000 
 2.03792e-17 -3.53232e-18        00000 
 1.24245e-17 -1.58888e-18        00000 
 1.38973e-17 -1.85369e-18        00000 
 7.17387e-18 -1.78855e-18        00000 
 1.25344e-17 -2.42800e-18        00000 
 4.25394e-18 -7.87021e-19        00000 
 2.41559e-18 -1.09721e-18        00000 
-4.74269e-18 -8.90713e-19        00000 
-2.93485e-18 -4.64785e-20        00000 
-7.75602e-18  7.58566e-19        00000 
-1.06077e-17  6.40544e-19        00000 
-1.11259e-17  3.80254e-19        00000 
-4.24907e-18  5.23184e-19        00000 
-4.22394e-18  2.81849e-19        00000 
 1.77710e-18 -4.44527e-19        00000 
 8.40579e-18 -1.72239e-18        00000 
 1.39012e-17 -3.11292e-18        00000 
 2.40377e-17 -4.17197e-18        00000 
 3.07212e-17 -4.88902e-18        00000 
 2.24961e-17 -4.95524e-18        00000 
 2.29612e-17 -4.75511e-18        00000 
 1.56356e-17 -4.87430e-18        00000 
 1.73812e-17 -5.12591e-18        00000 
 9.39466e-18 -4.91398e-18        00000 
 1.71286e-17 -2.85639e-18        00000 
 8.54128e-18 -1.90791e-18        00000 
 7.99160e-18 -1.02870e-18        00000 
-2.93485e-18 -4.64785e-20        00000 
 9.89959e-20  5.49465e-18        00000 
-4.55930e-18  3.43417e-18        00000 
-7.45700e-18  2.07800e-18        00000 
-9.34086e-18  1.29436e-18        00000 
-1.68226e-18 -5.63609e-19        00000 
-2.66923e-18 -1.93624e-18        00000 
 5.36224e-18 -4.01641e-18        00000 
 1.19766e-17 -4.52400e-18        00000 
 1.96207e-17 -6.37999e-18        00000 
 2.65362e-17 -5.94222e-18        00000 
 3.46761e-17 -6.03098e-18        00000 
 2.52827e-17 -6.23345e-18        00000 
 2.42804e-17 -6.91407e-18        00000 
 2.05924e-17 -6.69131e-18        00000 
 1.95416e-17 -7.16555e-18        00000 
 1.42710e-17 -6.21441e-18        00000 
 1.81316e-17 -4.73944e-18        00000 
 1.52357e-17 -2.75176e-18        00000 
 1.06942e-17 -7.39377e-19        00000 
 9.89959e-20  5.49465e-18        00000 
 3.26852e-19  2.98683e-18        00000 
-5.02001e-19  2.28326e-18        00000 
-3.76306e-18  5.54003e-19        00000 
-8.95764e-18 -7.62689e-19        00000 
-4.44932e-19 -2.92249e-18        00000 
-1.17783e-18 -4.25601e-18        00000 
 6.01291e-18 -6.53878e-18        00000 
 1.28017e-17 -7.56291e-18        00000 
 1.95781e-17 -8.70486e-18        00000 
 2.59087e-17 -8.21899e-18        00000 
 3.44200e-17 -7.44065e-18        00000 
 2.55021e-17 -7.00647e-18        00000 
 2.43491e-17 -7.69219e-18        00000 
 2.23634e-17 -7.90533e-18        00000 
 2.07831e-17 -8.14252e-18        00000 
 1.66129e-17 -7.05755e-18        00000 
 2.01381e-17 -5.53402e-18        00000 
 1.75853e-17 -3.37050e-18        00000 
 1.03625e-17 -5.88171e-19        00000 
 3.26852e-19  2.98683e-18        00000 
 1.93562e-18  1.89759e-18        00000 
-1.38574e-18 -1.36360e-18        00000 
-4.78095e-18 -2.36800e-18        00000 
-8.50535e-18 -4.22566e-18        00000 
-3.54770e-19 -6.25348e-18        00000 
-2.86907e-18 -8.22864e-18        00000 
 3.79920e-18 -8.81491e-18        00000 
 9.79503e-18 -9.13789e-18        00000 
 1.67762e-17 -8.63171e-18        00000 
 2.20596e-17 -9.10852e-18        00000 
 2.89571e-17 -9.32974e-18        00000 
 2.62836e-17 -7.91990e-18        00000 
 2.26955e-17 -9.21162e-18        00000 
 2.26993e-17 -8.26004e-18        00000 
 1.96682e-17 -8.82026e-18        00000 
 1.60607e-17 -6.86347e-18        00000 
 2.02173e-17 -5.71659e-18        00000 
 1.54029e-17 -2.38684e-18        00000 
 8.77576e-18  2.92944e-19        00000 
 1.93562e-18  1.89759e-18        00000 
 1.70953e-18 -1.97342e-18        00000 
-1.00029e-18 -4.14557e-18        00000 
-5.20069e-18 -6.56991e-18        00000 
-8.72700e-18 -8.78580e-18        00000 
-1.69305e-18 -1.13110e-17        00000 
-4.31192e-18 -1.25885e-17        00000 
 1.33438e-18 -1.29738e-17        00000 
 6.50984e-18 -1.30491e-17        00000 
 1.14095e-17 -1.20310e-17        00000 
 1.92967e-17 -1.10099e-17        00000 
 2.78272e-17 -1.01707e-17        00000 
 2.27468e-17 -1.04472e-17        00000 
 2.42792e-17 -1.16091e-17        00000 
 1.94059e-17 -1.00889e-17        00000 
 2.11277e-17 -9.21800e-18        00000 
 1.28453e-17 -8.64741e-18        00000 
 2.02284e-17 -6.11210e-18        00000 
 1.38221e-17 -2.12220e-18        00000 
 9.69220e-18 -2.10584e-18        00000 
 1.70953e-18 -1.97342e-18        00000 
 4.58367e-18 -2.32824e-18        00000 
 1.50957e-19 -6.48535e-18        00000 
-5.48872e-18 -9.74798e-18        00000 
-7.17463e-18 -1.37464e-17        00000 
-2.81214e-19 -1.62248e-17        00000 
-6.45498e-18 -1.80784e-17        00000 
-4.06657e-19 -1.81196e-17        00000 
 1.97814e-18 -1.75608e-17        00000 
 8.04372e-18 -1.58428e-17        00000 
 1.30708e-17 -1.47856e-17        00000 
 2.29443e-17 -1.21834e-17        00000 
 2.35299e-17 -1.07335e-17        00000 
 2.12713e-17 -1.08913e-17        00000 
 2.04219e-17 -1.08972e-17        00000 
 1.87371e-17 -9.13228e-18        00000 
 1.63026e-17 -7.66396e-18        00000 
 1.83521e-17 -6.69803e-18        00000 
 1.28583e-17 -5.28535e-18        00000 
 9.38562e-18 -2.92736e-18        00000 
 4.58367e-18 -2.32824e-18        00000 
 7.89904e-18  1.10591e-18        00000 
 3.32927e-18 -4.15021e-18        00000 
 1.48961e-18 -7.96904e-18        00000 
-1.29701e-18 -1.24782e-17        00000 
 5.50276e-19 -1.57724e-17        00000 
-4.22703e-18 -1.69045e-17        00000 
-2.91445e-18 -1.79016e-17        00000 
 1.99966e-18 -1.79248e-17        00000 
 2.14161e-18 -1.70393e-17        00000 
 1.04703e-17 -1.45700e-17        00000 
 1.59773e-17 -1.26963e-17        00000 
 2.30478e-17 -1.01627e-17        00000 
 1.99086e-17 -1.09795e-17        00000 
 1.61558e-17 -8.45500e-18        00000 
 1.53026e-17 -8.25727e-18        00000 
 1.59483e-17 -7.25519e-18        00000 
 1.56643e-17 -8.28282e-18        00000 
 1.19437e-17 -4.11433e-18        00000 
 5.40778e-18 -3.45931e-18        00000 
 7.89904e-18  1.10591e-18        00000 
 4.19850e-18 -4.42821e-18        00000 
 2.23993e-18 -6.53101e-18        00000 
 1.13483e-19 -1.03291e-17        00000 
-3.18563e-18 -1.32895e-17        00000 
-1.73884e-19 -1.48314e-17        00000 
-7.77040e-18 -1.72716e-17        00000 
-5.12116e-18 -1.69615e-17        00000 
-3.30796e-18 -1.74893e-17        00000 
-2.62366e-18 -1.77694e-17        00000 
 4.52644e-19 -1.62357e-17        00000 
 1.14340e-17 -1.41275e-17        00000 
 1.41597e-17 -1.15256e-17        00000 
 1.51913e-17 -9.81907e-18        00000 
 1.24976e-17 -9.20500e-18        00000 
 1.15262e-17 -8.46873e-18        00000 
 1.40213e-17 -8.29537e-18        00000 
 1.39011e-17 -6.90920e-18        00000 
 7.37415e-18 -5.56883e-18        00000 
 4.07295e-18 -4.78089e-18        00000 
 4.19850e-18 -4.42821e-18        00000 
 6.66092e-18 -3.79375e-18        00000 
 4.02033e-18 -6.31747e-18        00000 
 3.98701e-18 -8.50221e-18        00000 
-1.34820e-18 -1.05782e-17        00000 
 9.22833e-19 -1.20577e-17        00000 
-5.13711e-18 -1.31109e-17        00000 
-4.16481e-18 -1.45259e-17        00000 
-8.24533e-19 -1.49619e-17        00000 
-4.54367e-18 -1.55314e-17        00000 
 1.69070e-18 -1.48786e-17        00000 
 7.18314e-18 -1.42196e-17        00000 
 1.45089e-17 -1.19193e-17        00000 
 1.17526e-17 -1.27558e-17        00000 
 1.14988e-17 -9.95699e-18        00000 
 1.05875e-17 -1.11558e-17        00000 
 1.26541e-17 -8.24410e-18        00000 
 9.35900e-18 -8.55524e-18        00000 
 7.43342e-18 -5.81167e-18        00000 
 2.63377e-18 -6.00428e-18        00000 
 6.66092e-18 -3.79375e-18        00000 
 2.81655e-18 -4.42921e-18        00000 
 7.87911e-19 -5.97242e-18        00000 
 1.45194e-19 -7.64284e-18        00000 
-3.93469e-18 -9.00189e-18        00000 
-2.22198e-19 -9.25100e-18        00000 
-7.32330e-18 -1.21877e-17        00000 
-5.35473e-18 -1.29158e-17        00000 
-2.42181e-18 -1.41099e-17        00000 
-4.86006e-18 -1.41277e-17        00000 
-2.12608e-18 -1.48068e-17        00000 
 5.17348e-18 -1.40349e-17        00000 
 6.63490e-18 -1.25204e-17        00000 
 7.35118e-18 -1.03660e-17        00000 
 7.68875e-18 -9.02199e-18        00000 
 6.86142e-18 -8.77977e-18        00000 
 7.94058e-18 -7.59562e-18        00000 
 1.15736e-17 -6.50894e-18        00000 
 4.23531e-18 -5.06956e-18        00000 
 3.18078e-18 -4.51419e-18        00000 
 2.81655e-18 -4.42921e-18        00000 
 5.23909e-18 -7.19646e-19        00000 
 5.03821e-19 -2.32110e-18        00000 
 7.58887e-19 -3.58160e-18        00000 
-2.40427e-18 -5.04464e-18        00000 
 1.07847e-18 -7.00867e-18        00000 
-2.45804e-18 -9.04212e-18        00000 
-3.53886e-18 -1.11100e-17        00000 
 1.35117e-19 -1.13216e-17        00000 
-2.07735e-18 -1.13942e-17        00000 
 1.34508e-18 -1.14530e-17        00000 
 4.21268e-18 -1.23140e-17        00000 
 7.19376e-18 -1.14591e-17        00000 
 5.06788e-18 -1.21803e-17        00000 
 7.29438e-18 -9.56197e-18        00000 
 6.34455e-18 -1.00887e-17        00000 
 5.58110e-18 -8.70459e-18        00000 
 6.82743e-18 -7.46511e-18        00000 
 5.06080e-18 -3.20517e-18        00000 
 1.67421e-18 -3.52062e-18        00000 
 5.23909e-18 -7.19646e-19        00000 
 3.85455e-19  3.57508e-18        00000 
-6.35085e-19  5.28369e-19        00000 
-2.35507e-18 -1.53951e-18        00000 
-4.82737e-18 -3.77810e-18        00000 
 4.15702e-19 -5.31170e-18        00000 
-5.16112e-18 -6.91705e-18        00000 
 1.29533e-18 -7.79247e-18        00000 
-2.96076e-18 -9.48861e-18        00000 
-1.11004e-18 -8.43394e-18        00000 
 9.21680e-19 -9.52119e-18        00000 
 4.77176e-18 -1.11498e-17        00000 
 3.63939e-18 -1.02820e-17        00000 
 2.83305e-19 -1.11277e-17        00000 
 4.72932e-18 -9.85891e-18        00000 
-3.71936e-19 -9.57293e-18        00000 
 5.21192e-18 -7.11294e-18        00000 
 4.14834e-19 -6.71369e-18        00000 
 4.10713e-18 -2.81570e-18        00000 
 1.25779e-18 -8.85575e-19        00000 
 3.85455e-19  3.57508e-18        00000 
-1.07259e-18  2.50171e-18        00000 
 5.67469e-19  2.64274e-18        00000 
 5.48217e-19  1.66134e-19        00000 
-1.75514e-18 -1.09203e-18        00000 
 3.61371e-18 -2.27214e-18        00000 
-1.16158e-18 -3.52958e-18        00000 
 1.19435e-18 -4.55554e-18        00000 
 2.35194e-19 -3.58572e-18        00000 
 1.87407e-18 -4.77332e-18        00000 
 3.49016e-18 -5.96676e-18        00000 
 8.59732e-18 -7.31684e-18        00000 
 4.57413e-18 -8.11158e-18        00000 
 9.74270e-19 -7.97350e-18        00000 
 2.58702e-18 -7.21751e-18        00000 
 2.21787e-18 -8.47227e-18        00000 
 1.71462e-18 -7.76347e-18        00000 
 2.40868e-18 -6.10276e-18        00000 
 1.31925e-18 -3.71360e-18        00000 
-2.40535e-18 -8.48400e-20        00000 
-1.07259e-18  2.50171e-18        00000 
-3.63931e-18  3.20980e-18        00000 
-8.89418e-19  4.71528e-19        00000 
-8.88798e-19 -3.85667e-19        00000 
-4.01415e-18 -1.25796e-18        00000 
 3.64686e-18 -1.28492e-18        00000 
-2.30358e-18 -4.45848e-18        00000 
-2.14987e-18 -1.84602e-18        00000 
-9.30094e-19 -2.02773e-18        00000 
 4.70002e-20 -2.58297e-18        00000 
 5.53316e-18 -3.92494e-18        00000 
 6.20068e-18 -5.31707e-18        00000 
 2.19286e-18 -4.36344e-18        00000 
 1.92839e-19 -5.14905e-18        00000 
-1.81693e-19 -6.01215e-18        00000 
 1.65124e-19 -5.40023e-18        00000 
-2.04832e-18 -5.86569e-18        00000 
-3.39678e-18 -5.21583e-18        00000 
-6.08267e-18 -2.18326e-18        00000 
-8.44493e-18  6.41978e-19        00000 
-3.63931e-18  3.20980e-18        00000 
-1.98064e-34  6.93223e-34        00000 
 2.08922e-18  1.81510e-18        00000 
 1.75800e-18  3.11684e-18        00000 
 1.23412e-18  3.45093e-18        00000 
 5.46485e-18  2.74708e-18        00000 
 3.52798e-18  3.31675e-18        00000 
-7.30613e-18  2.63082e-18        00000 
 7.90531e-18  3.02855e-18        00000 
-2.91206e-18  2.22950e-18        00000 
 1.34390e-17  1.78952e-18        00000 
 4.04948e-18 -2.51543e-19        00000 
 8.56459e-19 -1.06977e-18        00000 
 4.75792e-18 -3.42100e-18        00000 
-1.94755e-18 -3.29753e-18        00000 
 2.88788e-18 -4.74931e-18        00000 
 1.13091e-18 -3.96690e-18        00000 
-1.13637e-17 -4.49091e-18        00000 
-9.37790e-18 -1.74666e-18        00000 
-1.61937e-17 -1.13146e-18        00000 
-5.94191e-34 -7.92255e-34        00000 
-1.97293e-18  3.68890e-19        00000 
-8.67434e-19  1.56043e-18        00000 
-1.06001e-18  3.09219e-18        00000 
 1.80175e-18  3.51094e-18        00000 
 2.45154e-18  3.22505e-18        00000 
-1.98569e-18  5.28637e-18        00000 
 2.43576e-19  2.16962e-18        00000 
 2.61719e-18  4.56396e-18        00000 
 5.85881e-18  1.45501e-18        00000 
 1.06299e-17  3.05456e-18        00000 
 5.89362e-18 -1.17167e-18        00000 
 5.10859e-18 -2.47390e-18        00000 
 3.48685e-18 -3.37326e-18        00000 
 2.64442e-18 -4.56112e-18        00000 
 2.56496e-18 -4.86600e-18        00000 
-2.22758e-18 -2.67373e-18        00000 
-7.59453e-18 -4.08825e-18        00000 
-1.03283e-17 -1.48076e-18        00000 
-7.69091e-18 -3.46920e-18        00000 
-6.55925e-18 -7.43603e-19        00000 
-5.59136e-18  7.99385e-19        00000 
-5.62446e-18  2.05563e-18        00000 
-1.56046e-18  3.53619e-18        00000 
-1.19620e-18  4.67596e-18        00000 
-2.50498e-18  5.08555e-18        00000 
 5.39540e-19  4.33192e-18        00000 
 3.53018e-18  4.54476e-18        00000 
 7.82150e-18  3.05381e-18        00000 
 1.41665e-17  2.17734e-18        00000 
 1.27788e-17 -4.22950e-19        00000 
 9.42161e-18 -2.64465e-18        00000 
 7.87444e-18 -3.96406e-18        00000 
 6.10210e-18 -4.74522e-18        00000 
 3.82026e-18 -4.66917e-18        00000 
 1.65820e-18 -2.42610e-18        00000 
-8.84292e-19 -2.39525e-18        00000 
-5.72536e-18 -2.44532e-18        00000 
-7.19908e-18 -2.14684e-18        00000 
-8.50404e-18 -1.11388e-18        00000 
-8.06010e-18  2.38575e-19        00000 
-8.15362e-18  9.08103e-19        00000 
-4.94174e-18  3.32343e-18        00000 
-3.31578e-18  4.48165e-18        00000 
-3.25735e-18  4.41497e-18        00000 
 7.01757e-19  4.05728e-18        00000 
 4.90228e-18  3.59106e-18        00000 
 1.06152e-17  2.47549e-18        00000 
 1.78301e-17  9.57668e-19        00000 
 1.75536e-17 -7.96014e-19        00000 
 1.41888e-17 -3.05091e-18        00000 
 1.16700e-17 -4.48538e-18        00000 
 9.28724e-18 -4.54384e-18        00000 
 5.55513e-18 -3.46090e-18        00000 
 4.59492e-18 -2.85302e-18        00000 
 3.15141e-18 -7.35282e-19        00000 
-2.04849e-18 -4.23740e-19        00000 
-5.46990e-18 -7.69500e-19        00000 
-7.59574e-18 -1.06447e-18        00000 
-9.95271e-18 -1.22083e-18        00000 
-1.06468e-17  1.08116e-18        00000 
-7.36175e-18  2.14244e-18        00000 
-4.67398e-18  3.14365e-18        00000 
-3.68269e-18  3.09453e-18        00000 
 1.28929e-18  2.78173e-18        00000 
 6.21254e-18  1.21778e-18        00000 
 1.26866e-17  2.75799e-19        00000 
 2.05215e-17 -1.13216e-18        00000 
 2.16494e-17 -1.67859e-18        00000 
 1.88718e-17 -3.63064e-18        00000 
 1.52202e-17 -3.67378e-18        00000 
 1.15244e-17 -2.90448e-18        00000 
 8.75519e-18 -2.26479e-18        00000 
 7.49071e-18 -2.47378e-18        00000 
 6.46387e-18 -9.50436e-19        00000 
 1.60363e-18 -5.66132e-19        00000 
-2.50663e-18 -4.80872e-19        00000 
-7.22606e-18 -2.52114e-19        00000 
-1.11598e-17  2.60179e-19        00000 
-1.28048e-17  3.79024e-19        00000 
-9.11469e-18  8.54866e-19        00000 
-6.03169e-18  1.48807e-18        00000 
-3.79424e-18  1.26360e-18        00000 
 2.22374e-18  3.74340e-19        00000 
 8.02469e-18 -9.76688e-19        00000 
 1.50562e-17 -2.29338e-18        00000 
 2.33771e-17 -3.45263e-18        00000 
 2.37974e-17 -4.43222e-18        00000 
 2.06691e-17 -3.93270e-18        00000 
 1.64236e-17 -3.62120e-18        00000 
 1.36676e-17 -3.33879e-18        00000 
 1.08114e-17 -3.59061e-18        00000 
 1.07263e-17 -3.29047e-18        00000 
 9.35932e-18 -2.04538e-18        00000 
 4.78061e-18 -1.05631e-18        00000 
-3.89292e-19 -1.24898e-18        00000 
-3.00169e-18  2.41840e-18        00000 
-6.60548e-18  1.70988e-18        00000 