<?xml version="1.0" encoding="utf-8"?>
<VTKFile byte_order="LittleEndian" type="UnstructuredGrid" version="0.1">
   <UnstructuredGrid>
      <Piece NumberOfCells="18644" NumberOfPoints="9461">
         <Points>
            <DataArray Name="Points" NumberOfComponents="3" format="ascii" type="Float32">
0.0000 0.0000 0.0000
0.0000 0.0254 0.0000
0.0000 0.0508 0.0000
0.0000 0.0763 0.0000
0.0000 0.1017 0.0000
0.0000 0.1271 0.0000
0.0000 0.1525 0.0000
0.0000 0.1780 0.0000
0.0000 0.2034 0.0000
0.0000 0.2288 0.0000
0.0000 0.2542 0.0000
0.0000 0.2797 0.0000
0.0000 0.3051 0.0000
0.0000 0.3305 0.0000
0.0000 0.3559 0.0000
0.0000 0.3814 0.0000
0.0000 0.4068 0.0000
0.0000 0.4322 0.0000
0.0000 0.4576 0.0000
0.0000 0.4831 0.0000
0.0000 0.5085 0.0000
0.0000 0.5339 0.0000
0.0000 0.5593 0.0000
0.0000 0.5847 0.0000
0.0000 0.6102 0.0000
0.0000 0.6356 0.0000
0.0000 0.6610 0.0000
0.0000 0.6864 0.0000
0.0000 0.7119 0.0000
0.0000 0.7373 0.0000
0.0000 0.7627 0.0000
0.0000 0.7881 0.0000
0.0000 0.8136 0.0000
0.0000 0.8390 0.0000
0.0000 0.8644 0.0000
0.0000 0.8898 0.0000
0.0000 0.9153 0.0000
0.0000 0.9407 0.0000
0.0000 0.9661 0.0000
0.0000 0.9915 0.0000
0.0000 1.0169 0.0000
0.0000 1.0424 0.0000
0.0000 1.0678 0.0000
0.0000 1.0932 0.0000
0.0000 1.1186 0.0000
0.0000 1.1441 0.0000
0.0000 1.1695 0.0000
0.0000 1.1949 0.0000
0.0000 1.2203 0.0000
0.0000 1.2458 0.0000
0.0000 1.2712 0.0000
0.0000 1.2966 0.0000
0.0000 1.3220 0.0000
0.0000 1.3475 0.0000
0.0000 1.3729 0.0000
0.0000 1.3983 0.0000
0.0000 1.4237 0.0000
0.0000 1.4492 0.0000
0.0000 1.4746 0.0000
0.0000 1.5000 0.0000
0.0253 0.0000 0.0000
0.0253 0.0254 0.0000
0.0253 0.0508 0.0000
0.0253 0.0763 0.0000
0.0253 0.1017 0.0000
0.0253 0.1271 0.0000
0.0253 0.1525 0.0000
0.0253 0.1780 0.0000
0.0253 0.2034 0.0000
0.0253 0.2288 0.0000
0.0253 0.2542 0.0000
0.0253 0.2797 0.0000
0.0253 0.3051 0.0000
0.0253 0.3305 0.0000
0.0253 0.3559 0.0000
0.0253 0.3814 0.0000
0.0253 0.4068 0.0000
0.0253 0.4322 0.0000
0.0253 0.4576 0.0000
0.0253 0.4831 0.0000
0.0253 0.5085 0.0000
0.0253 0.5339 0.0000
0.0253 0.5593 0.0000
0.0253 0.5847 0.0000
0.0253 0.6102 0.0000
0.0253 0.6356 0.0000
0.0253 0.6610 0.0000
0.0253 0.6864 0.0000
0.0253 0.7119 0.0000
0.0253 0.7373 0.0000
0.0253 0.7627 0.0000
0.0253 0.7881 0.0000
0.0253 0.8136 0.0000
0.0253 0.8390 0.0000
0.0253 0.8644 0.0000
0.0253 0.8898 0.0000
0.0253 0.9153 0.0000
0.0253 0.9407 0.0000
0.0253 0.9661 0.0000
0.0253 0.9915 0.0000
0.0253 1.0169 0.0000
0.0253 1.0424 0.0000
0.0253 1.0678 0.0000
0.0253 1.0932 0.0000
0.0253 1.1186 0.0000
0.0253 1.1441 0.0000
0.0253 1.1695 0.0000
0.0253 1.1949 0.0000
0.0253 1.2203 0.0000
0.0253 1.2458 0.0000
0.0253 1.2712 0.0000
0.0253 1.2966 0.0000
0.0253 1.3220 0.0000
0.0253 1.3475 0.0000
0.0253 1.3729 0.0000
0.0253 1.3983 0.0000
0.0253 1.4237 0.0000
0.0253 1.4492 0.0000
0.0253 1.4746 0.0000
0.0253 1.5000 0.0000
0.0506 0.0000 0.0000
0.0506 0.0254 0.0000
0.0506 0.0508 0.0000
0.0506 0.0763 0.0000
0.0506 0.1017 0.0000
0.0506 0.1271 0.0000
0.0506 0.1525 0.0000
0.0506 0.1780 0.0000
0.0506 0.2034 0.0000
0.0506 0.2288 0.0000
0.0506 0.2542 0.0000
0.0506 0.2797 0.0000
0.0506 0.3051 0.0000
0.0506 0.3305 0.0000
0.0506 0.3559 0.0000
0.0506 0.3814 0.0000
0.0506 0.4068 0.0000
0.0506 0.4322 0.0000
0.0506 0.4576 0.0000
0.0506 0.4831 0.0000
0.0506 0.5085 0.0000
0.0506 0.5339 0.0000
0.0506 0.5593 0.0000
0.0506 0.5847 0.0000
0.0506 0.6102 0.0000
0.0506 0.6356 0.0000
0.0506 0.6610 0.0000
0.0506 0.6864 0.0000
0.0506 0.7119 0.0000
0.0506 0.7373 0.0000
0.0506 0.7627 0.0000
0.0506 0.7881 0.0000
0.0506 0.8136 0.0000
0.0506 0.8390 0.0000
0.0506 0.8644 0.0000
0.0506 0.8898 0.0000
0.0506 0.9153 0.0000
0.0506 0.9407 0.0000
0.0506 0.9661 0.0000
0.0506 0.9915 0.0000
0.0506 1.0169 0.0000
0.0506 1.0424 0.0000
0.0506 1.0678 0.0000
0.0506 1.0932 0.0000
0.0506 1.1186 0.0000
0.0506 1.1441 0.0000
0.0506 1.1695 0.0000
0.0506 1.1949 0.0000
0.0506 1.2203 0.0000
0.0506 1.2458 0.0000
0.0506 1.2712 0.0000
0.0506 1.2966 0.0000
0.0506 1.3220 0.0000
0.0506 1.3475 0.0000
0.0506 1.3729 0.0000
0.0506 1.3983 0.0000
0.0506 1.4237 0.0000
0.0506 1.4492 0.0000
0.0506 1.4746 0.0000
0.0506 1.5000 0.0000
0.0759 0.0000 0.0000
0.0759 0.0254 0.0000
0.0759 0.0508 0.0000
0.0759 0.0763 0.0000
0.0759 0.1017 0.0000
0.0759 0.1271 0.0000
0.0759 0.1525 0.0000
0.0759 0.1780 0.0000
0.0759 0.2034 0.0000
0.0759 0.2288 0.0000
0.0759 0.2542 0.0000
0.0759 0.2797 0.0000
0.0759 0.3051 0.0000
0.0759 0.3305 0.0000
0.0759 0.3559 0.0000
0.0759 0.3814 0.0000
0.0759 0.4068 0.0000
0.0759 0.4322 0.0000
0.0759 0.4576 0.0000
0.0759 0.4831 0.0000
0.0759 0.5085 0.0000
0.0759 0.5339 0.0000
0.0759 0.5593 0.0000
0.0759 0.5847 0.0000
0.0759 0.6102 0.0000
0.0759 0.6356 0.0000
0.0759 0.6610 0.0000
0.0759 0.6864 0.0000
0.0759 0.7119 0.0000
0.0759 0.7373 0.0000
0.0759 0.7627 0.0000
0.0759 0.7881 0.0000
0.0759 0.8136 0.0000
0.0759 0.8390 0.0000
0.0759 0.8644 0.0000
0.0759 0.8898 0.0000
0.0759 0.9153 0.0000
0.0759 0.9407 0.0000
0.0759 0.9661 0.0000
0.0759 0.9915 0.0000
0.0759 1.0169 0.0000
0.0759 1.0424 0.0000
0.0759 1.0678 0.0000
0.0759 1.0932 0.0000
0.0759 1.1186 0.0000
0.0759 1.1441 0.0000
0.0759 1.1695 0.0000
0.0759 1.1949 0.0000
0.0759 1.2203 0.0000
0.0759 1.2458 0.0000
0.0759 1.2712 0.0000
0.0759 1.2966 0.0000
0.0759 1.3220 0.0000
0.0759 1.3475 0.0000
0.0759 1.3729 0.0000
0.0759 1.3983 0.0000
0.0759 1.4237 0.0000
0.0759 1.4492 0.0000
0.0759 1.4746 0.0000
0.0759 1.5000 0.0000
0.1013 0.0000 0.0000
0.1013 0.0254 0.0000
0.1013 0.0508 0.0000
0.1013 0.0763 0.0000
0.1013 0.1017 0.0000
0.1013 0.1271 0.0000
0.1013 0.1525 0.0000
0.1013 0.1780 0.0000
0.1013 0.2034 0.0000
0.1013 0.2288 0.0000
0.1013 0.2542 0.0000
0.1013 0.2797 0.0000
0.1013 0.3051 0.0000
0.1013 0.3305 0.0000
0.1013 0.3559 0.0000
0.1013 0.3814 0.0000
0.1013 0.4068 0.0000
0.1013 0.4322 0.0000
0.1013 0.4576 0.0000
0.1013 0.4831 0.0000
0.1013 0.5085 0.0000
0.1013 0.5339 0.0000
0.1013 0.5593 0.0000
0.1013 0.5847 0.0000
0.1013 0.6102 0.0000
0.1013 0.6356 0.0000
0.1013 0.6610 0.0000
0.1013 0.6864 0.0000
0.1013 0.7119 0.0000
0.1013 0.7373 0.0000
0.1013 0.7627 0.0000
0.1013 0.7881 0.0000
0.1013 0.8136 0.0000
0.1013 0.8390 0.0000
0.1013 0.8644 0.0000
0.1013 0.8898 0.0000
0.1013 0.9153 0.0000
0.1013 0.9407 0.0000
0.1013 0.9661 0.0000
0.1013 0.9915 0.0000
0.1013 1.0169 0.0000
0.1013 1.0424 0.0000
0.1013 1.0678 0.0000
0.1013 1.0932 0.0000
0.1013 1.1186 0.0000
0.1013 1.1441 0.0000
0.1013 1.1695 0.0000
0.1013 1.1949 0.0000
0.1013 1.2203 0.0000
0.1013 1.2458 0.0000
0.1013 1.2712 0.0000
0.1013 1.2966 0.0000
0.1013 1.3220 0.0000
0.1013 1.3475 0.0000
0.1013 1.3729 0.0000
0.1013 1.3983 0.0000
0.1013 1.4237 0.0000
0.1013 1.4492 0.0000
0.1013 1.4746 0.0000
0.1013 1.5000 0.0000
0.1266 0.0000 0.0000
0.1266 0.0254 0.0000
0.1266 0.0508 0.0000
0.1266 0.0763 0.0000
0.1266 0.1017 0.0000
0.1266 0.1271 0.0000
0.1266 0.1525 0.0000
0.1266 0.1780 0.0000
0.1266 0.2034 0.0000
0.1266 0.2288 0.0000
0.1266 0.2542 0.0000
0.1266 0.2797 0.0000
0.1266 0.3051 0.0000
0.1266 0.3305 0.0000
0.1266 0.3559 0.0000
0.1266 0.3814 0.0000
0.1266 0.4068 0.0000
0.1266 0.4322 0.0000
0.1266 0.4576 0.0000
0.1266 0.4831 0.0000
0.1266 0.5085 0.0000
0.1266 0.5339 0.0000
0.1266 0.5593 0.0000
0.1266 0.5847 0.0000
0.1266 0.6102 0.0000
0.1266 0.6356 0.0000
0.1266 0.6610 0.0000
0.1266 0.6864 0.0000
0.1266 0.7119 0.0000
0.1266 0.7373 0.0000
0.1266 0.7627 0.0000
0.1266 0.7881 0.0000
0.1266 0.8136 0.0000
0.1266 0.8390 0.0000
0.1266 0.8644 0.0000
0.1266 0.8898 0.0000
0.1266 0.9153 0.0000
0.1266 0.9407 0.0000
0.1266 0.9661 0.0000
0.1266 0.9915 0.0000
0.1266 1.0169 0.0000
0.1266 1.0424 0.0000
0.1266 1.0678 0.0000
0.1266 1.0932 0.0000
0.1266 1.1186 0.0000
0.1266 1.1441 0.0000
0.1266 1.1695 0.0000
0.1266 1.1949 0.0000
0.1266 1.2203 0.0000
0.1266 1.2458 0.0000
0.1266 1.2712 0.0000
0.1266 1.2966 0.0000
0.1266 1.3220 0.0000
0.1266 1.3475 0.0000
0.1266 1.3729 0.0000
0.1266 1.3983 0.0000
0.1266 1.4237 0.0000
0.1266 1.4492 0.0000
0.1266 1.4746 0.0000
0.1266 1.5000 0.0000
0.1519 0.0000 0.0000
0.1519 0.0254 0.0000
0.1519 0.0508 0.0000
0.1519 0.0763 0.0000
0.1519 0.1017 0.0000
0.1519 0.1271 0.0000
0.1519 0.1525 0.0000
0.1519 0.1780 0.0000
0.1519 0.2034 0.0000
0.1519 0.2288 0.0000
0.1519 0.2542 0.0000
0.1519 0.2797 0.0000
0.1519 0.3051 0.0000
0.1519 0.3305 0.0000
0.1519 0.3559 0.0000
0.1519 0.3814 0.0000
0.1519 0.4068 0.0000
0.1519 0.4322 0.0000
0.1519 0.4576 0.0000
0.1519 0.4831 0.0000
0.1519 0.5085 0.0000
0.1519 0.5339 0.0000
0.1519 0.5593 0.0000
0.1519 0.5847 0.0000
0.1519 0.6102 0.0000
0.1519 0.6356 0.0000
0.1519 0.6610 0.0000
0.1519 0.6864 0.0000
0.1519 0.7119 0.0000
0.1519 0.7373 0.0000
0.1519 0.7627 0.0000
0.1519 0.7881 0.0000
0.1519 0.8136 0.0000
0.1519 0.8390 0.0000
0.1519 0.8644 0.0000
0.1519 0.8898 0.0000
0.1519 0.9153 0.0000
0.1519 0.9407 0.0000
0.1519 0.9661 0.0000
0.1519 0.9915 0.0000
0.1519 1.0169 0.0000
0.1519 1.0424 0.0000
0.1519 1.0678 0.0000
0.1519 1.0932 0.0000
0.1519 1.1186 0.0000
0.1519 1.1441 0.0000
0.1519 1.1695 0.0000
0.1519 1.1949 0.0000
0.1519 1.2203 0.0000
0.1519 1.2458 0.0000
0.1519 1.2712 0.0000
0.1519 1.2966 0.0000
0.1519 1.3220 0.0000
0.1519 1.3475 0.0000
0.1519 1.3729 0.0000
0.1519 1.3983 0.0000
0.1519 1.4237 0.0000
0.1519 1.4492 0.0000
0.1519 1.4746 0.0000
0.1519 1.5000 0.0000
0.1772 0.0000 0.0000
0.1772 0.0254 0.0000
0.1772 0.0508 0.0000
0.1772 0.0763 0.0000
0.1772 0.1017 0.0000
0.1772 0.1271 0.0000
0.1772 0.1525 0.0000
0.1772 0.1780 0.0000
0.1772 0.2034 0.0000
0.1772 0.2288 0.0000
0.1772 0.2542 0.0000
0.1772 0.2797 0.0000
0.1772 0.3051 0.0000
0.1772 0.3305 0.0000
0.1772 0.3559 0.0000
0.1772 0.3814 0.0000
0.1772 0.4068 0.0000
0.1772 0.4322 0.0000
0.1772 0.4576 0.0000
0.1772 0.4831 0.0000
0.1772 0.5085 0.0000
0.1772 0.5339 0.0000
0.1772 0.5593 0.0000
0.1772 0.5847 0.0000
0.1772 0.6102 0.0000
0.1772 0.6356 0.0000
0.1772 0.6610 0.0000
0.1772 0.6864 0.0000
0.1772 0.7119 0.0000
0.1772 0.7373 0.0000
0.1772 0.7627 0.0000
0.1772 0.7881 0.0000
0.1772 0.8136 0.0000
0.1772 0.8390 0.0000
0.1772 0.8644 0.0000
0.1772 0.8898 0.0000
0.1772 0.9153 0.0000
0.1772 0.9407 0.0000
0.1772 0.9661 0.0000
0.1772 0.9915 0.0000
0.1772 1.0169 0.0000
[...]
         <PointData>
            <DataArray Name="fValues" NumberOfComponents="1" format="ascii" type="Float64">
       00001 
       00001 
 1.00000e+00 
 1.00000e+00 
       00001 
       00001 
-4.79922e-17 
 1.33973e-17 
-3.22748e-18 
 3.89212e-19 
-2.85627e-20 
-3.35523e-21 
 3.42843e-21 
-1.45338e-21 
 4.71419e-22 
-1.33866e-22 
 3.55841e-23 
-1.04148e-23 
 2.39278e-24 
-5.92292e-25 
 1.40002e-25 
-3.23539e-26 
 7.40434e-27 
-1.68478e-27 
 3.81515e-28 
-8.60637e-29 
 1.93737e-29 
-4.36183e-30 
 9.94112e-31 
-2.69999e-31 
 2.22181e-31 
-5.98167e-31 
 1.96712e-30 
-6.53605e-30 
 2.19082e-29 
-7.48730e-29 
 2.58824e-28 
-8.54363e-28 
 2.21549e-27 
 1.13252e-28 
-6.30716e-26 
 6.39254e-25 
-4.62551e-24 
 2.77184e-23 
-1.42170e-22 
 6.26691e-22 
-2.35648e-21 
 7.44641e-21 
-1.98492e-20 
 6.99653e-20 
-6.32532e-19 
 3.00487e-18 
-8.54727e-18 
 4.25324e-17 
 1.00000e+00 
 1.00000e+00 
 1.00000e+00 
       00001 
 1.00000e+00 
 1.00000e+00 
 1.00000e+00 
 1.00000e+00 
 1.00000e+00 
 1.00000e+00 
 1.00000e+00 
 1.00000e+00 
 8.17282e-17 
-2.43260e-17 
 3.49830e-18 
-7.56751e-20 
-2.02176e-20 
 2.12197e-20 
-9.45034e-21 
 3.06902e-21 
-8.59099e-22 
 2.25397e-22 
-5.72344e-23 
 1.40303e-23 
-3.78877e-24 
 8.83976e-25 
-2.02588e-25 
 4.62259e-26 
-1.05091e-26 
 2.37807e-27 
-5.35894e-28 
 1.20505e-28 
-2.70989e-29 
 6.10244e-30 
-1.39415e-30 
 3.94975e-31 
-3.79582e-31 
 1.08823e-30 
-3.62900e-30 
 1.20593e-29 
-3.98818e-29 
 1.33483e-28 
-4.60641e-28 
 1.63953e-27 
-5.74707e-27 
 1.71421e-26 
-1.92393e-26 
-2.99256e-25 
 3.68170e-24 
-2.87369e-23 
 1.80106e-22 
-9.47019e-22 
 4.20088e-21 
-1.55689e-20 
 4.67055e-20 
-9.14965e-20 
 8.26090e-19 
-4.03694e-18 
 2.39884e-17 
-2.21109e-17 
 1.00000e+00 
 1.00000e+00 
 1.00000e+00 
       00001 
 1.00000e+00 
 1.00000e+00 
 1.00000e+00 
 1.00000e+00 
       00001 
 1.00000e+00 
 1.00000e+00 
 1.00000e+00 
 1.00000e+00 
 6.37734e-17 
 9.99573e-19 
-4.47982e-19 
 2.74583e-19 
-1.20839e-19 
 3.69793e-20 
-9.56881e-21 
 2.39022e-21 
-5.86594e-22 
 1.40312e-22 
-4.10423e-23 
 8.74288e-24 
-1.93602e-24 
 4.36334e-25 
-9.87183e-26 
 2.22457e-26 
-4.98888e-27 
 1.11718e-27 
-2.50761e-28 
 5.64518e-29 
-1.27150e-29 
 2.90928e-30 
-8.87907e-31 
 1.07044e-30 
-3.32058e-30 
 1.13559e-29 
-3.82159e-29 
 1.25903e-28 
-4.10357e-28 
 1.35939e-27 
-4.77589e-27 
 1.83972e-26 
-7.66123e-26 
 3.19467e-25 
-1.15289e-24 
 2.28760e-24 
 1.31347e-23 
-2.10843e-22 
 1.71789e-21 
-1.03559e-20 
 4.93771e-20 
-1.87907e-19 
 5.51322e-19 
-1.24954e-18 
 7.48335e-18 
-3.19998e-17 
 1.00000e+00 
 1.00000e+00 
 1.00000e+00 
 1.00000e+00 
 1.00000e+00 
 1.00000e+00 
 1.00000e+00 
 1.00000e+00 
 1.00000e+00 
 1.00000e+00 
 1.00000e+00 
 1.00000e+00 
 1.00000e+00 
 1.00000e+00 
 4.52851e-01 
 4.45255e-18 
 2.85228e-18 
-1.61632e-18 
 4.79786e-19 
-1.12371e-19 
 2.68871e-20 
-6.59537e-21 
 1.52480e-21 
-3.51477e-22 
 9.18042e-23 
-2.00107e-23 
 4.52637e-24 
-1.02749e-24 
 2.31164e-25 
-5.15912e-26 
 1.14971e-26 
-2.57647e-27 
 5.81218e-28 
-1.31146e-28 
 2.93828e-29 
-6.68787e-30 
 2.20989e-30 
-3.23063e-30 
 1.06418e-29 
-3.74242e-29 
 1.28997e-28 
-4.32479e-28 
 1.40889e-27 
-4.50165e-27 
 1.45841e-26 
-5.10554e-26 
 2.05374e-25 
-9.48343e-25 
 4.62764e-24 
-2.11242e-23 
 7.75399e-23 
-1.14398e-22 
-1.41192e-21 
 1.79831e-20 
-1.25479e-19 
 6.35049e-19 
-2.46394e-18 
 6.82804e-18 
 1.53289e-17 
 5.13246e-01 
 1.00000e+00 
 1.00000e+00 
 1.00000e+00 
 1.00000e+00 
 1.00000e+00 
 1.00000e+00 
 1.00000e+00 
 1.00000e+00 
 1.00000e+00 
 1.00000e+00 
 1.00000e+00 
 1.00000e+00 
 1.00000e+00 
 1.00000e+00 
 1.00000e+00 
 1.06800e-19 
-2.30340e-17 
 6.58215e-18 
-1.27653e-18 
 2.88185e-19 
-7.57637e-20 
 1.66863e-20 
-3.77445e-21 
 8.61930e-22 
-2.01561e-22 
 4.73566e-23 
-1.09014e-23 
 2.45108e-24 
-5.43515e-25 
 1.20299e-25 
-2.69204e-26 
 6.10231e-27 
-1.38553e-27 
 3.10355e-28 
-6.82548e-29 
 1.53962e-29 
-5.60640e-30 
 9.67542e-30 
-3.34475e-29 
 1.21024e-28 
-4.28856e-28 
 1.47970e-27 
-4.94499e-27 
 1.59050e-26 
-4.94002e-26 
 1.53226e-25 
-5.15602e-25 
 2.07615e-24 
-1.03512e-23 
 5.77374e-23 
-3.08722e-22 
 1.45972e-21 
-4.79648e-21 
-8.46652e-22 
 1.81041e-19 
-1.54740e-18 
 8.35019e-18 
-2.98789e-17 
 1.38273e-16 
 1.00000e+00 
 1.00000e+00 
 1.00000e+00 
 1.00000e+00 
 1.00000e+00 
 1.00000e+00 
 1.00000e+00 
 1.00000e+00 
 1.00000e+00 
 1.00000e+00 
 1.00000e+00 
 1.00000e+00 
 1.00000e+00 
 1.00000e+00 
 1.00000e+00 
       00001 
 1.00000e+00 
 9.14049e-17 
-1.21004e-17 
 3.23122e-18 
-7.43222e-19 
 1.98478e-19 
-4.20128e-20 
 9.18147e-21 
-2.12438e-21 
 5.03688e-22 
-1.17415e-22 
 2.61891e-23 
-5.74127e-24 
 1.25618e-24 
-2.80642e-25 
 6.42081e-26 
-1.47493e-26 
 3.31486e-27 
-7.20413e-28 
 1.53787e-28 
-3.50471e-29 
 1.45211e-29 
-2.84084e-29 
 1.02153e-28 
-3.80478e-28 
 1.38647e-27 
-4.92520e-27 
 1.70441e-26 
-5.69250e-26 
 1.80759e-25 
-5.41774e-25 
 1.57394e-24 
-4.87829e-24 
 1.83383e-23 
-9.73247e-23 
 6.41099e-22 
-3.93918e-21 
 2.32478e-20 
-1.03333e-19 
 2.61727e-19 
 1.69547e-18 
-1.92759e-17 
 1.10783e-16 
 1.00000e+00 
 1.00000e+00 
       00001 
       00001 
 1.00000e+00 
 1.00000e+00 
 1.00000e+00 
 1.00000e+00 
       00001 
 1.00000e+00 
 1.00000e+00 
 1.00000e+00 
 1.00000e+00 
 1.00000e+00 
 1.00000e+00 
 1.00000e+00 
 1.00000e+00 
 1.00000e+00 
 5.54693e-01 
 3.64624e-17 
-6.50161e-18 
 2.54121e-18 
-4.38149e-19 
 9.39093e-20 
-2.21622e-20 
 5.47618e-21 
-1.29781e-21 
 2.81129e-22 
-6.06219e-23 
 1.29987e-23 
-2.89870e-24 
 6.74635e-25 
-1.58191e-25 
 3.57848e-26 
-7.66363e-27 
 1.58081e-27 
-3.34545e-28 
 8.29481e-29 
-3.96093e-29 
 8.12276e-29 
-3.01617e-28 
 1.16046e-27 
-4.34926e-27 
 1.58923e-26 
-5.65774e-26 
 1.97213e-25 
-6.61136e-25 
 2.07645e-24 
-5.97476e-24 
 1.59438e-23 
-4.38862e-23 
 1.24833e-22 
-6.78116e-22 
 6.26180e-21 
-4.12928e-20 
 3.37342e-19 
-1.78533e-18 
 8.51494e-18 
 1.66338e-17 
 5.23966e-01 
 1.00000e+00 
 1.00000e+00 
 1.00000e+00 
 1.00000e+00 
 1.00000e+00 
 1.00000e+00 
 1.00000e+00 
 1.00000e+00 
 1.00000e+00 
 1.00000e+00 
 1.00000e+00 
 1.00000e+00 
 1.00000e+00 
 1.00000e+00 
 1.00000e+00 
 1.00000e+00 
 1.00000e+00 
 1.00000e+00 
 1.00000e+00 
-5.41206e-17 
 2.37393e-17 
-2.27383e-18 
 6.34268e-19 
-1.66185e-19 
 5.12750e-20 
-1.29504e-20 
 2.94179e-21 
-6.40062e-22 
 1.32065e-22 
-2.94309e-23 
 7.06727e-24 
-1.71722e-24 
 3.92619e-25 
-8.22427e-26 
 1.61394e-26 
-3.22931e-27 
 7.58710e-28 
-2.29983e-28 
 1.17162e-28 
-2.23898e-28 
 8.53473e-28 
-3.41792e-27 
 1.32505e-26 
-4.96836e-26 
 1.81051e-25 
-6.47837e-25 
 2.28019e-24 
-7.75771e-24 
 2.42899e-23 
-6.63371e-23 
 1.60045e-22 
-4.21960e-22 
 2.60605e-22 
 2.68778e-22 
 2.59898e-20 
-3.83544e-19 
 3.34429e-18 
-1.59075e-17 
 1.59398e-16 
 1.00000e+00 
       00001 
 1.00000e+00 
 1.00000e+00 
 1.00000e+00 
 1.00000e+00 
 1.00000e+00 
 1.00000e+00 
 1.00000e+00 
 1.00000e+00 
 1.00000e+00 
 1.00000e+00 
 1.00000e+00 
 1.00000e+00 
 1.00000e+00 
 1.00000e+00 
 1.00000e+00 
 1.00000e+00 
 1.00000e+00 
       00001 
 1.00000e+00 
-1.99903e-17 
 4.84262e-18 
-1.96024e-18 
 6.04947e-19 
-1.48084e-19 
 3.26056e-20 
-6.47047e-21 
 1.28988e-21 
-2.89967e-22 
 7.36453e-23 
-1.90268e-23 
 4.41776e-24 
-8.93825e-25 
 1.62210e-25 
-2.96091e-26 
 6.83922e-27 
-2.17709e-27 
 7.99046e-28 
-3.72557e-28 
 5.85207e-28 
-2.28123e-27 
 9.62100e-27 
-3.89988e-26 
 1.51442e-25 
-5.67057e-25 
 2.06257e-24 
-7.41262e-24 
 2.65505e-23 
-9.27733e-23 
 2.89861e-22 
-7.34526e-22 
 1.51719e-21 
-1.88710e-21 
-6.04368e-21 
 1.04321e-19 
-2.50340e-19 
-4.99757e-19 
 4.78858e-17 
 1.00000e+00 
 1.00000e+00 
 1.00000e+00 
 1.00000e+00 
       00001 
 1.00000e+00 
 1.00000e+00 
 1.00000e+00 
 1.00000e+00 
 1.00000e+00 
       00001 
 1.00000e+00 
 1.00000e+00 
 1.00000e+00 
 1.00000e+00 
       00001 
 1.00000e+00 
 1.00000e+00 
       00001 
 1.00000e+00 
 1.00000e+00 
 1.00000e+00 
 1.78586e-01 
-3.30947e-17 
 8.19632e-18 
-1.76661e-18 
 3.78139e-19 
-6.66661e-20 
 1.22590e-20 
-2.72410e-21 
 7.58039e-22 
-2.18211e-22 
 5.16260e-23 
-9.87738e-24 
 1.58105e-24 
-2.42959e-25 
 5.47930e-26 
-2.06603e-26 
 8.45543e-27 
-3.13422e-27 
 1.21429e-27 
-1.41208e-27 
 5.62133e-27 
-2.54586e-26 
 1.09350e-25 
-4.46081e-25 
 1.73974e-24 
-6.46439e-24 
 2.33672e-23 
-8.41625e-23 
 3.09265e-22 
-1.13946e-21 
 3.55631e-21 
-7.89215e-21 
 1.30166e-20 
-2.72920e-20 
-5.76692e-20 
 2.75542e-18 
-2.17610e-17 
 1.79849e-01 
 1.00000e+00 
 1.00000e+00 
 1.00000e+00 
       00001 
 1.00000e+00 
 1.00000e+00 
 1.00000e+00 
 1.00000e+00 
 1.00000e+00 
 1.00000e+00 
 1.00000e+00 
 1.00000e+00 
       00001 
 1.00000e+00 
 1.00000e+00 
 1.00000e+00 
 1.00000e+00 
 1.00000e+00 
 1.00000e+00 
 1.00000e+00 
 1.00000e+00 
 1.00000e+00 
 1.00000e+00 
 9.78146e-17 
-2.39898e-17 
 4.61227e-18 
-6.36024e-19 
 1.03319e-19 
-2.34275e-20 
 7.46045e-21 
-2.64998e-21 
 6.36612e-22 
-1.11105e-22 
 1.44125e-23 
-1.46642e-24 
 3.15890e-25 
-1.85115e-25 
 9.25762e-26 
-3.62580e-26 
 1.20786e-26 
-3.85577e-27 
 2.98814e-27 
-1.22108e-26 
 6.14774e-26 
-2.87210e-25 
 1.24376e-24 
-5.16204e-24 
 1.99759e-23 
-7.35705e-23 
 2.62472e-22 
-9.39482e-22 
 3.56878e-21 
-1.46897e-20 
 4.52890e-20 
-3.12385e-20 
 1.87084e-19 
-5.62596e-19 
 2.99427e-18 
 5.95673e-17 
 1.00000e+00 
 1.00000e+00 
 1.00000e+00 
 1.00000e+00 
 1.00000e+00 
       00001 
 1.00000e+00 
 1.00000e+00 
 1.00000e+00 
 1.00000e+00 
 1.00000e+00 
 1.00000e+00 
 1.00000e+00 
 1.00000e+00 
 1.00000e+00 
 1.00000e+00 
 1.00000e+00 
 1.00000e+00 
 7.42795e-01 
       00001 
 1.00000e+00 
       00001 
 1.00000e+00 
 1.00000e+00 
 7.67785e-01 
 4.22594e-17 
-3.51418e-18 
 5.43428e-19 
-2.51149e-19 
 1.06200e-19 
-3.54317e-20 
 8.42783e-21 
-1.25953e-21 
 1.09995e-22 
 1.97631e-24 
-5.97381e-25 
-1.49158e-24 
 1.03432e-24 
-4.32871e-25 
 1.44757e-25 
-4.28246e-26 
 1.16275e-26 
-4.77381e-27 
 2.06997e-26 
-1.28686e-25 
 6.78567e-25 
-3.25534e-24 
 1.44028e-23 
-5.96469e-23 
 2.30127e-22 
-8.37814e-22 
 2.90793e-21 
-1.01638e-20 
 3.92099e-20 
-2.08890e-19 
 2.93207e-19 
-2.95538e-19 
 2.10714e-18 
-8.60555e-18 
 7.24930e-01 
 1.00000e+00 
 1.00000e+00 
 1.00000e+00 
 1.00000e+00 
 1.00000e+00 
 1.00000e+00 
 1.00000e+00 
 1.00000e+00 
 1.00000e+00 
 1.00000e+00 
 1.00000e+00 
       00001 
 1.00000e+00 
       00001 
 1.00000e+00 
 1.00000e+00 
 1.00000e+00 
       00001 
-4.82461e-17 
 1.00000e+00 
 1.00000e+00 
 1.00000e+00 
 1.00000e+00 
 1.00000e+00 
 1.00000e+00 
 1.78431e-18 
-3.50508e-18 
-1.99903e-18 
 1.20471e-18 
-4.58382e-19 
 1.21339e-19 
-1.37559e-20 
 3.48834e-22 
 2.96567e-22 
-6.41884e-23 
-9.41603e-24 
 1.19379e-23 
-5.31512e-24 
 1.76521e-24 
-5.10164e-25 
 1.39102e-25 
-3.36788e-26 
 1.13450e-27 
-1.10215e-26 
 2.00608e-25 
-1.37006e-24 
 7.41144e-24 
-3.64163e-23 
 1.65686e-22 
-6.94580e-22 
 2.66421e-21 
-9.53870e-21 
 3.19671e-20 
-1.04110e-19 
 3.41347e-19 
-8.75815e-19 
 4.81312e-18 
 7.99567e-18 
 4.80693e-17 
 1.00000e+00 
 1.00000e+00 
 1.00000e+00 
 1.00000e+00 
       00001 
       00001 
-1.15937e-16 
 1.00000e+00 
       00001 
 1.00000e+00 
 1.00000e+00 
 1.00000e+00 
 1.00000e+00 
       00001 
 1.00000e+00 
 1.00000e+00 
 1.00000e+00 
 1.00000e+00 
 1.00000e+00 
 7.67385e-17 
 6.01137e-01 
 1.00000e+00 
 1.00000e+00 
 1.00000e+00 
       00001 
 1.00000e+00 
       00001 
-6.04917e-18 
 1.65230e-17 
-7.15403e-18 
 1.46003e-18 
-1.19563e-19 
-1.19786e-20 
 7.36505e-21 
-1.49943e-21 
-1.31898e-23 
 1.44629e-22 
-6.73826e-23 
 2.19858e-23 
-6.06973e-24 
 1.60511e-24 
-4.30816e-25 
 9.83996e-26 
 3.59365e-26 
-1.26036e-25 
-1.82638e-26 
 1.98775e-24 
-1.44026e-23 
 8.03911e-23 
-4.06567e-22 
 1.91987e-21 
-8.18445e-21 
 3.09935e-20 
-1.10832e-19 
 3.52678e-19 
-1.05479e-18 
 1.91997e-18 
-7.95377e-18 
 1.27177e-16 
 1.00000e+00 
 1.00000e+00 
 1.00000e+00 
       00001 
 1.00000e+00 
 1.00000e+00 
 1.00000e+00 
 6.32705e-17 
 1.00000e+00 
 1.00000e+00 
 1.00000e+00 
 1.00000e+00 
 1.00000e+00 
 1.00000e+00 
 9.13584e-01 
       00001 
       00001 
 1.00000e+00 
 1.00000e+00 
 1.00000e+00 
 5.92923e-17 
 3.27977e-17 
 1.00000e+00 
       00001 
 1.00000e+00 
 1.00000e+00 
 1.00000e+00 
 1.00000e+00 
 1.00000e+00 
-1.19956e-16 
 2.17304e-17 
-1.38230e-18 
-4.04120e-19 
 1.39159e-19 
-2.65580e-20 
 1.14737e-21 
 1.88101e-21 
-8.79785e-22 
 2.81291e-22 
-7.25111e-23 
 1.80509e-23 
-4.80219e-24 
 1.36217e-24 
-3.07253e-25 
-2.18842e-25 
 8.67488e-25 
-1.76363e-24 
 5.99597e-25 
 1.94261e-23 
-1.48214e-22 
 8.47225e-22 
-4.47834e-21 
 2.25513e-20 
-9.37154e-20 
 3.66094e-19 
-1.33247e-18 
 3.93119e-18 
-1.39441e-17 
-2.98338e-18 
 1.00000e+00 
 1.00000e+00 
 1.00000e+00 
 1.00000e+00 
       00001 
 1.00000e+00 
       00001 
 5.15705e-17 
 6.36442e-17 
 1.00000e+00 
 1.00000e+00 
 1.00000e+00 
 1.00000e+00 
 1.00000e+00 
 8.81843e-01 
-4.47632e-17 
       00001 
 1.00000e+00 
 1.00000e+00 
 1.00000e+00 
 1.00000e+00 
 1.15329e-16 
-3.16523e-17 
 9.21365e-01 
 1.00000e+00 
 1.00000e+00 
 1.00000e+00 
 1.00000e+00 
 1.00000e+00 
 1.00000e+00 
 9.35620e-01 
-3.97688e-18 
-3.67248e-18 
 2.22747e-18 
-4.65609e-19 
 2.05473e-20 
 2.15224e-20 
-1.15973e-20 
 3.73734e-21 
-8.67514e-22 
 1.97814e-22 
-5.10609e-23 
 1.51336e-23 
-4.59556e-24 
 1.03281e-24 
 9.34050e-25 
-4.07216e-24 
 1.09766e-23 
-2.23202e-23 
 1.48928e-23 
 1.77556e-22 
-1.46018e-21 
 8.60253e-21 
-4.78422e-20 
 2.69819e-19 
-1.17783e-18 
 4.27565e-18 
-1.73695e-17 
 3.16523e-17 
 8.04979e-01 
 1.00000e+00 
 1.00000e+00 
 1.00000e+00 
 1.00000e+00 
 1.00000e+00 
 1.00000e+00 
 1.00000e+00 
       00000 
 6.60248e-17 
 1.00000e+00 
       00001 
 1.00000e+00 
 1.00000e+00 
 1.00000e+00 
 1.79053e-16 
-2.24967e-17 
 1.00000e+00 
 1.00000e+00 
 1.00000e+00 
 1.00000e+00 
 1.00000e+00 
 6.48801e-02 
 2.19893e-17 
 7.98096e-17 
 1.00000e+00 
 1.00000e+00 
 1.00000e+00 
 3.18194e-01 
 1.00000e+00 
 1.00000e+00 
 1.00000e+00 
 6.75649e-01 
 4.39762e-17 
-7.70691e-18 
 1.98404e-19 
 2.71690e-19 
-1.61297e-19 
 5.32131e-20 
-1.02569e-20 
 2.06696e-21 
-5.14376e-22 
 1.61557e-22 
-5.29136e-23 
 1.60247e-23 
-3.54605e-24 
-3.27907e-24 
 1.60579e-23 
-5.10869e-23 
 1.31334e-22 
-2.75935e-22 
 2.18335e-22 
 1.63052e-21 
-1.39611e-20 
 8.03582e-20 
-4.74694e-19 
 3.49775e-18 
-1.42598e-17 
 4.36439e-17 
 4.36005e-01 
 1.00000e+00 
       00001 
       00001 
 3.05824e-01 
 1.00000e+00 
 1.00000e+00 
 1.00000e+00 
-1.18169e-16 
-9.89550e-18 
 2.00528e-02 
 1.00000e+00 
 1.00000e+00 
 1.00000e+00 
 1.00000e+00 
 1.00000e+00 
-8.95546e-17 
 6.71447e-17 
       00001 
 1.00000e+00 
 1.00000e+00 
 1.00000e+00 
 1.00000e+00 
 5.39473e-01 
-2.61503e-17 
 9.72282e-17 
 1.00000e+00 
 1.00000e+00 
 1.00000e+00 
 3.16495e-17 
 4.35017e-01 
       00001 
 1.00000e+00 
 1.00000e+00 
 3.68689e-01 
-5.00741e-18 
 2.46176e-18 
-2.56342e-18 
 5.78125e-19 
-1.12760e-19 
 1.96263e-20 
-4.68211e-21 
 1.67142e-21 
-6.06370e-22 
 1.89817e-22 
-5.44880e-23 
 1.16213e-23 
 9.65974e-24 
-5.40527e-23 
 2.03069e-22 
-6.27113e-22 
 1.49551e-21 
-3.21187e-21 
 2.70371e-21 
 1.50879e-20 
-1.32954e-19 
 8.06999e-19 
-2.86649e-18 
 4.88267e-17 
 2.05355e-02 
 1.00000e+00 
 1.00000e+00 
 1.00000e+00 
 2.51981e-02 
 5.63788e-01 
 1.00000e+00 
 1.00000e+00 
 1.00000e+00 
 2.88718e-17 
 4.12602e-17 
 4.60739e-01 
 1.00000e+00 
 1.00000e+00 
 1.00000e+00 
 1.00000e+00 
 1.00000e+00 
 8.95263e-17 
-1.12890e-16 
 7.70486e-01 
 1.00000e+00 
 1.00000e+00 
 1.00000e+00 
 1.00000e+00 
 1.00000e+00 
-2.75408e-17 
 2.19103e-17 
 8.09386e-01 
 1.00000e+00 
 1.00000e+00 
 6.21346e-01 
-6.34925e-18 
 7.72585e-01 
 1.00000e+00 
 1.00000e+00 
 1.00000e+00 
-4.24723e-17 
-4.79823e-17 
 8.12730e-18 
-9.52751e-19 
 1.54831e-19 
-3.39082e-20 
 1.62111e-20 
-7.26813e-21 
 2.21805e-21 
-6.61552e-22 
 1.68608e-22 
-3.55096e-23 
-2.37240e-23 
 1.54213e-22 
-6.69387e-22 
 2.58106e-21 
-7.74083e-21 
 2.14765e-20 
-3.17581e-20 
 3.14674e-20 
 1.46744e-19 
-1.49231e-18 
 8.93820e-18 
 7.99707e-17 
 1.00000e+00 
 1.00000e+00 
 1.00000e+00 
 4.24519e-01 
 4.56503e-17 
 1.00000e+00 
 1.00000e+00 
 1.00000e+00 
 1.00000e+00 
 6.39766e-17 
-6.38590e-17 
 1.00000e+00 
 1.00000e+00 
 1.00000e+00 
 1.00000e+00 
 1.00000e+00 
 7.50789e-01 
 4.18370e-18 
 3.01419e-17 
-5.52119e-17 
       00001 
 1.00000e+00 
 1.00000e+00 
 1.00000e+00 
 1.00000e+00 
 9.00240e-17 
 9.14689e-18 
 7.61072e-17 
 1.00000e+00 
 1.00000e+00 
 1.00000e+00 
 3.96508e-17 
 3.95412e-17 
 9.74805e-01 
 1.00000e+00 
 1.00000e+00 
 1.00000e+00 
 1.11351e-16 
-7.95377e-18 
 8.16933e-19 
-8.56720e-20 
 1.70876e-19 
-1.04820e-19 
 3.34950e-20 
-8.30254e-21 
 1.96704e-21 
-4.73035e-22 
 1.03376e-22 
 4.33579e-23 
-3.71661e-22 
 1.83168e-21 
-8.09170e-21 
 3.42813e-20 
-1.03783e-19 
 2.39822e-19 
-3.72417e-19 
 2.49228e-19 
-7.91308e-18 
-3.18151e-17 
       00001 
 1.00000e+00 
 1.00000e+00 
 7.46652e-01 
 2.37435e-17 
-2.20411e-17 
 1.00000e+00 
 1.00000e+00 
 1.00000e+00 
 8.44041e-17 
-2.37393e-17 
 1.59075e-17 
 1.00000e+00 
 1.00000e+00 
 1.00000e+00 
 1.00000e+00 
 1.00000e+00 
 1.07448e-17 
 1.11908e-17 
-4.02386e-18 
-5.80281e-18 
       00001 
 1.00000e+00 
 1.00000e+00 
 1.00000e+00 
 1.00000e+00 
-8.44590e-17 
 1.18045e-17 
 3.90861e-17 
       00001 
 1.00000e+00 
 1.00000e+00 
 9.99459e-19 
-3.32603e-17 
 1.07198e-16 
 1.00000e+00 
 1.00000e+00 
 1.00000e+00 
       00001 
-1.68448e-19 
 1.99892e-18 
 7.73902e-19 
-1.48093e-18 
 4.28926e-19 
-1.13842e-19 
 2.20378e-20 
-5.26286e-21 
 1.25279e-21 
-3.01425e-22 
-3.63597e-23 
 7.23667e-22 
-4.17120e-21 
 2.12202e-20 
-9.41577e-20 
 4.06495e-19 
-1.36812e-18 
 2.50343e-18 
-3.12663e-18 
-2.29888e-17 
 1.00000e+00 
 1.00000e+00 
 1.00000e+00 
 1.00000e+00 
 1.68448e-19 
-1.99892e-18 
 2.68200e-01 
 1.00000e+00 
 1.00000e+00 
 1.00000e+00 
 3.75580e-17 
 2.49879e-19 
-1.59619e-17 
 1.00000e+00 
 1.00000e+00 
 1.00000e+00 
 1.00000e+00 
 1.00000e+00 
 2.86869e-17 
 2.02086e-18 
-6.46575e-19 
 2.11148e-17 
 1.00000e+00 
 1.00000e+00 
 1.00000e+00 
 1.00000e+00 
       00001 
 1.58597e-17 
-1.12346e-17 
 4.59107e-17 
 1.00000e+00 
       00001 
 1.00000e+00 
 5.54087e-17 
 8.12581e-18 
-1.58262e-17 
 4.89835e-17 
 1.00000e+00 
       00001 
 1.00000e+00 
 1.00000e+00 
-6.33388e-17 
-2.65393e-17 
 5.30014e-18 
-1.38846e-18 
 3.29317e-19 
-5.84388e-20 
 1.30767e-20 
-3.47724e-21 
 9.01864e-22 
-8.96521e-23 
-9.81991e-22 
 7.35488e-21 
-4.50874e-20 
 2.47681e-19 
-1.08263e-18 
 4.45122e-18 
-1.63718e-17 
 1.60237e-17 
 8.80976e-01 
       00001 
 1.00000e+00 
 1.00000e+00 
 3.16523e-17 
-1.59075e-17 
 3.68939e-17 
 1.00000e+00 
 1.00000e+00 
 1.00000e+00 
 9.75116e-01 
-4.05126e-17 
 1.01031e-17 
-2.26271e-17 
       00001 
 1.00000e+00 
 1.00000e+00 
 1.00000e+00 
 1.00000e+00 
 9.06631e-17 
-1.60759e-17 
-8.82677e-18 
 2.61296e-17 
 1.00000e+00 
       00001 
 1.00000e+00 
 1.00000e+00 
 1.00000e+00 
 2.97841e-17 
 2.94490e-17 
-6.50972e-17 
 3.80865e-16 
 1.00000e+00 
       00001 
 1.00000e+00 
-1.13606e-17 
 9.61886e-18 
-8.72639e-18 
 2.59577e-17 
       00001 
 1.00000e+00 
 1.00000e+00 
 9.78565e-01 
 5.21223e-17 
-1.59941e-17 
 4.27331e-18 
-6.24744e-19 
 1.25614e-19 
-3.56314e-20 
 1.16235e-20 
-2.45707e-21 
-2.38560e-22 
 2.35710e-22 
-6.60041e-21 
 7.00751e-20 
-4.64855e-19 
 2.42098e-18 
-1.33338e-17 
 6.19996e-17 
 5.69681e-01 
 1.00000e+00 
 1.00000e+00 
 1.00000e+00 
 3.06790e-16 
-7.99705e-18 
 2.57301e-17 
-1.07540e-16 
 1.00000e+00 
       00001 
 1.00000e+00 
 8.59633e-17 
 9.49794e-18 
-1.65486e-17 
 9.29156e-17 
 1.00000e+00 
 1.00000e+00 
 1.00000e+00 
 1.00000e+00 
 1.00000e+00 
-5.60997e-17 
 1.43021e-17 
 1.39363e-17 
-6.75393e-17 
 6.69567e-01 
 1.00000e+00 
 1.00000e+00 
       00001 
 1.00000e+00 
 6.11149e-01 
-6.36302e-17 
 2.65069e-17 
-2.36297e-17 
 1.00000e+00 
 1.00000e+00 
 1.00000e+00 
 8.45370e-17 
-1.49219e-17 
 3.97688e-18 
-4.24061e-18 
 2.30119e-02 
 1.00000e+00 
 1.00000e+00 
       00001 
 7.44051e-01 
 7.17859e-17 
-7.95377e-18 
 3.71053e-19 
-2.97944e-19 
 1.51450e-19 
-3.78128e-20 
 3.46607e-21 
 2.42289e-21 
 5.85724e-22 
-1.75587e-20 
-1.91138e-20 
 6.53313e-19 
-3.02286e-18 
 7.95377e-18 
 1.84057e-01 
 1.00000e+00 
 1.00000e+00 