<?xml version="1.0" encoding="utf-8"?>
<VTKFile byte_order="LittleEndian" type="UnstructuredGrid" version="0.1">
   <UnstructuredGrid>
      <Piece NumberOfCells="512" NumberOfPoints="729">
         <Points>
            <DataArray Name="Points" NumberOfComponents="3" format="ascii" type="Float32">
0.0000 0.0000 0.0000
0.0000 0.1250 0.0000
0.0000 0.2500 0.0000
0.0000 0.3750 0.0000
0.0000 0.5000 0.0000
0.0000 0.6250 0.0000
0.0000 0.7500 0.0000
0.0000 0.8750 0.0000
0.0000 1.0000 0.0000
0.1250 0.0000 0.0000
0.1250 0.1250 0.0000
0.1250 0.2500 0.0000
0.1250 0.3750 0.0000
0.1250 0.5000 0.0000
0.1250 0.6250 0.0000
0.1250 0.7500 0.0000
0.1250 0.8750 0.0000
0.1250 1.0000 0.0000
0.2500 0.0000 0.0000
0.2500 0.1250 0.0000
0.2500 0.2500 0.0000
0.2500 0.3750 0.0000
0.2500 0.5000 0.0000
0.2500 0.6250 0.0000
0.2500 0.7500 0.0000
0.2500 0.8750 0.0000
0.2500 1.0000 0.0000
0.3750 0.0000 0.0000
0.3750 0.1250 0.0000
0.3750 0.2500 0.0000
0.3750 0.3750 0.0000
0.3750 0.5000 0.0000
0.3750 0.6250 0.0000
0.3750 0.7500 0.0000
0.3750 0.8750 0.0000
0.3750 1.0000 0.0000
0.5000 0.0000 0.0000
0.5000 0.1250 0.0000
0.5000 0.2500 0.0000
0.5000 0.3750 0.0000
0.5000 0.5000 0.0000
0.5000 0.6250 0.0000
0.5000 0.7500 0.0000
0.5000 0.8750 0.0000
0.5000 1.0000 0.0000
0.6250 0.0000 0.0000
0.6250 0.1250 0.0000
0.6250 0.2500 0.0000
0.6250 0.3750 0.0000
0.6250 0.5000 0.0000
0.6250 0.6250 0.0000
0.6250 0.7500 0.0000
0.6250 0.8750 0.0000
0.6250 1.0000 0.0000
0.7500 0.0000 0.0000
0.7500 0.1250 0.0000
0.7500 0.2500 0.0000
0.7500 0.3750 0.0000
0.7500 0.5000 0.0000
0.7500 0.6250 0.0000
0.7500 0.7500 0.0000
0.7500 0.8750 0.0000
0.7500 1.0000 0.0000
0.8750 0.0000 0.0000
0.8750 0.1250 0.0000
0.8750 0.2500 0.0000
0.8750 0.3750 0.0000
0.8750 0.5000 0.0000
0.8750 0.6250 0.0000
0.8750 0.7500 0.0000
0.8750 0.8750 0.0000
0.8750 1.0000 0.0000
1.0000 0.0000 0.0000
1.0000 0.1250 0.0000
1.0000 0.2500 0.0000
1.0000 0.3750 0.0000
1.0000 0.5000 0.0000
1.0000 0.6250 0.0000
1.0000 0.7500 0.0000
1.0000 0.8750 0.0000
1.0000 1.0000 0.0000
0.0000 0.0000 0.1250
0.0000 0.1250 0.1250
0.0000 0.2500 0.1250
0.0000 0.3750 0.1250
0.0000 0.5000 0.1250
0.0000 0.6250 0.1250
0.0000 0.7500 0.1250
0.0000 0.8750 0.1250
0.0000 1.0000 0.1250
0.1250 0.0000 0.1250
0.1250 0.1250 0.1250
0.1250 0.2500 0.1250
0.1250 0.3750 0.1250
0.1250 0.5000 0.1250
0.1250 0.6250 0.1250
0.1250 0.7500 0.1250
0.1250 0.8750 0.1250
0.1250 1.0000 0.1250
0.2500 0.0000 0.1250
0.2500 0.1250 0.1250
0.2500 0.2500 0.1250
0.2500 0.3750 0.1250
0.2500 0.5000 0.1250
0.2500 0.6250 0.1250
0.2500 0.7500 0.1250
0.2500 0.8750 0.1250
0.2500 1.0000 0.1250
0.3750 0.0000 0.1250
0.3750 0.1250 0.1250
0.3750 0.2500 0.1250
0.3750 0.3750 0.1250
0.3750 0.5000 0.1250
0.3750 0.6250 0.1250
0.3750 0.7500 0.1250
0.3750 0.8750 0.1250
0.3750 1.0000 0.1250
0.5000 0.0000 0.1250
0.5000 0.1250 0.1250
0.5000 0.2500 0.1250
0.5000 0.3750 0.1250
0.5000 0.5000 0.1250
0.5000 0.6250 0.1250
0.5000 0.7500 0.1250
0.5000 0.8750 0.1250
0.5000 1.0000 0.1250
0.6250 0.0000 0.1250
0.6250 0.1250 0.1250
0.6250 0.2500 0.1250
0.6250 0.3750 0.1250
0.6250 0.5000 0.1250
0.6250 0.6250 0.1250
0.6250 0.7500 0.1250
0.6250 0.8750 0.1250
0.6250 1.0000 0.1250
0.7500 0.0000 0.1250
0.7500 0.1250 0.1250
0.7500 0.2500 0.1250
0.7500 0.3750 0.1250
0.7500 0.5000 0.1250
0.7500 0.6250 0.1250
0.7500 0.7500 0.1250
0.7500 0.8750 0.1250
0.7500 1.0000 0.1250
0.8750 0.0000 0.1250
0.8750 0.1250 0.1250
0.8750 0.2500 0.1250
0.8750 0.3750 0.1250
0.8750 0.5000 0.1250
0.8750 0.6250 0.1250
0.8750 0.7500 0.1250
0.8750 0.8750 0.1250
0.8750 1.0000 0.1250
1.0000 0.0000 0.1250
1.0000 0.1250 0.1250
1.0000 0.2500 0.1250
1.0000 0.3750 0.1250
1.0000 0.5000 0.1250
1.0000 0.6250 0.1250
1.0000 0.7500 0.1250
1.0000 0.8750 0.1250
1.0000 1.0000 0.1250
0.0000 0.0000 0.2500
0.0000 0.1250 0.2500
0.0000 0.2500 0.2500
0.0000 0.3750 0.2500
0.0000 0.5000 0.2500
0.0000 0.6250 0.2500
0.0000 0.7500 0.2500
0.0000 0.8750 0.2500
0.0000 1.0000 0.2500
0.1250 0.0000 0.2500
0.1250 0.1250 0.2500
0.1250 0.2500 0.2500
0.1250 0.3750 0.2500
0.1250 0.5000 0.2500
0.1250 0.6250 0.2500
0.1250 0.7500 0.2500
0.1250 0.8750 0.2500
0.1250 1.0000 0.2500
0.2500 0.0000 0.2500
0.2500 0.1250 0.2500
0.2500 0.2500 0.2500
0.2500 0.3750 0.2500
0.2500 0.5000 0.2500
0.2500 0.6250 0.2500
0.2500 0.7500 0.2500
0.2500 0.8750 0.2500
0.2500 1.0000 0.2500
0.3750 0.0000 0.2500
0.3750 0.1250 0.2500
0.3750 0.2500 0.2500
0.3750 0.3750 0.2500
0.3750 0.5000 0.2500
0.3750 0.6250 0.2500
0.3750 0.7500 0.2500
0.3750 0.8750 0.2500
0.3750 1.0000 0.2500
0.5000 0.0000 0.2500
0.5000 0.1250 0.2500
0.5000 0.2500 0.2500
0.5000 0.3750 0.2500
0.5000 0.5000 0.2500
0.5000 0.6250 0.2500
0.5000 0.7500 0.2500
0.5000 0.8750 0.2500
0.5000 1.0000 0.2500
0.6250 0.0000 0.2500
0.6250 0.1250 0.2500
0.6250 0.2500 0.2500
0.6250 0.3750 0.2500
0.6250 0.5000 0.2500
0.6250 0.6250 0.2500
0.6250 0.7500 0.2500
0.6250 0.8750 0.2500
0.6250 1.0000 0.2500
0.7500 0.0000 0.2500
0.7500 0.1250 0.2500
0.7500 0.2500 0.2500
0.7500 0.3750 0.2500
0.7500 0.5000 0.2500
0.7500 0.6250 0.2500
0.7500 0.7500 0.2500
0.7500 0.8750 0.2500
0.7500 1.0000 0.2500
0.8750 0.0000 0.2500
0.8750 0.1250 0.2500
0.8750 0.2500 0.2500
0.8750 0.3750 0.2500
0.8750 0.5000 0.2500
0.8750 0.6250 0.2500
0.8750 0.7500 0.2500
0.8750 0.8750 0.2500
0.8750 1.0000 0.2500
1.0000 0.0000 0.2500
1.0000 0.1250 0.2500
1.0000 0.2500 0.2500
1.0000 0.3750 0.2500
1.0000 0.5000 0.2500
1.0000 0.6250 0.2500
1.0000 0.7500 0.2500
1.0000 0.8750 0.2500
1.0000 1.0000 0.2500
0.0000 0.0000 0.3750
0.0000 0.1250 0.3750
0.0000 0.2500 0.3750
0.0000 0.3750 0.3750
0.0000 0.5000 0.3750
0.0000 0.6250 0.3750
0.0000 0.7500 0.3750
0.0000 0.8750 0.3750
0.0000 1.0000 0.3750
0.1250 0.0000 0.3750
0.1250 0.1250 0.3750
0.1250 0.2500 0.3750
0.1250 0.3750 0.3750
0.1250 0.5000 0.3750
0.1250 0.6250 0.3750
0.1250 0.7500 0.3750
0.1250 0.8750 0.3750
0.1250 1.0000 0.3750
0.2500 0.0000 0.3750
0.2500 0.1250 0.3750
0.2500 0.2500 0.3750
0.2500 0.3750 0.3750
0.2500 0.5000 0.3750
0.2500 0.6250 0.3750
0.2500 0.7500 0.3750
0.2500 0.8750 0.3750
0.2500 1.0000 0.3750
0.3750 0.0000 0.3750
0.3750 0.1250 0.3750
0.3750 0.2500 0.3750
0.3750 0.3750 0.3750
0.3750 0.5000 0.3750
0.3750 0.6250 0.3750
0.3750 0.7500 0.3750
0.3750 0.8750 0.3750
0.3750 1.0000 0.3750
0.5000 0.0000 0.3750
0.5000 0.1250 0.3750
0.5000 0.2500 0.3750
0.5000 0.3750 0.3750
0.5000 0.5000 0.3750
0.5000 0.6250 0.3750
0.5000 0.7500 0.3750
0.5000 0.8750 0.3750
0.5000 1.0000 0.3750
0.6250 0.0000 0.3750
0.6250 0.1250 0.3750
0.6250 0.2500 0.3750
0.6250 0.3750 0.3750
0.6250 0.5000 0.3750
0.6250 0.6250 0.3750
0.6250 0.7500 0.3750
0.6250 0.8750 0.3750
0.6250 1.0000 0.3750
0.7500 0.0000 0.3750
0.7500 0.1250 0.3750
0.7500 0.2500 0.3750
0.7500 0.3750 0.3750
0.7500 0.5000 0.3750
0.7500 0.6250 0.3750
0.7500 0.7500 0.3750
0.7500 0.8750 0.3750
0.7500 1.0000 0.3750
0.8750 0.0000 0.3750
0.8750 0.1250 0.3750
0.8750 0.2500 0.3750
0.8750 0.3750 0.3750
0.8750 0.5000 0.3750
0.8750 0.6250 0.3750
0.8750 0.7500 0.3750
0.8750 0.8750 0.3750
0.8750 1.0000 0.3750
1.0000 0.0000 0.3750
1.0000 0.1250 0.3750
1.0000 0.2500 0.3750
1.0000 0.3750 0.3750
1.0000 0.5000 0.3750
1.0000 0.6250 0.3750
1.0000 0.7500 0.3750
1.0000 0.8750 0.3750
1.0000 1.0000 0.3750
0.0000 0.0000 0.5000
0.0000 0.1250 0.5000
0.0000 0.2500 0.5000
0.0000 0.3750 0.5000
0.0000 0.5000 0.5000
0.0000 0.6250 0.5000
0.0000 0.7500 0.5000
0.0000 0.8750 0.5000
0.0000 1.0000 0.5000
0.1250 0.0000 0.5000
0.1250 0.1250 0.5000
0.1250 0.2500 0.5000
0.1250 0.3750 0.5000
0.1250 0.5000 0.5000
0.1250 0.6250 0.5000
0.1250 0.7500 0.5000
0.1250 0.8750 0.5000
0.1250 1.0000 0.5000
0.2500 0.0000 0.5000
0.2500 0.1250 0.5000
0.2500 0.2500 0.5000
0.2500 0.3750 0.5000
0.2500 0.5000 0.5000
0.2500 0.6250 0.5000
0.2500 0.7500 0.5000
0.2500 0.8750 0.5000
0.2500 1.0000 0.5000
0.3750 0.0000 0.5000
0.3750 0.1250 0.5000
0.3750 0.2500 0.5000
0.3750 0.3750 0.5000
0.3750 0.5000 0.5000
0.3750 0.6250 0.5000
0.3750 0.7500 0.5000
0.3750 0.8750 0.5000
0.3750 1.0000 0.5000
0.5000 0.0000 0.5000
0.5000 0.1250 0.5000
0.5000 0.2500 0.5000
0.5000 0.3750 0.5000
0.5000 0.5000 0.5000
0.5000 0.6250 0.5000
0.5000 0.7500 0.5000
0.5000 0.8750 0.5000
0.5000 1.0000 0.5000
0.6250 0.0000 0.5000
0.6250 0.1250 0.5000
0.6250 0.2500 0.5000
0.6250 0.3750 0.5000
0.6250 0.5000 0.5000
0.6250 0.6250 0.5000
0.6250 0.7500 0.5000
0.6250 0.8750 0.5000
0.6250 1.0000 0.5000
0.7500 0.0000 0.5000
0.7500 0.1250 0.5000
0.7500 0.2500 0.5000
0.7500 0.3750 0.5000
0.7500 0.5000 0.5000
0.7500 0.6250 0.5000
0.7500 0.7500 0.5000
0.7500 0.8750 0.5000
0.7500 1.0000 0.5000
0.8750 0.0000 0.5000
0.8750 0.1250 0.5000
0.8750 0.2500 0.5000
0.8750 0.3750 0.5000
0.8750 0.5000 0.5000
0.8750 0.6250 0.5000
0.8750 0.7500 0.5000
0.8750 0.8750 0.5000
0.8750 1.0000 0.5000
1.0000 0.0000 0.5000
1.0000 0.1250 0.5000
1.0000 0.2500 0.5000
1.0000 0.3750 0.5000
1.0000 0.5000 0.5000
1.0000 0.6250 0.5000
1.0000 0.7500 0.5000
1.0000 0.8750 0.5000
1.0000 1.0000 0.5000
0.0000 0.0000 0.6250
0.0000 0.1250 0.6250
0.0000 0.2500 0.6250
0.0000 0.3750 0.6250
0.0000 0.5000 0.6250
0.0000 0.6250 0.6250
0.0000 0.7500 0.6250
0.0000 0.8750 0.6250
0.0000 1.0000 0.6250
0.1250 0.0000 0.6250
0.1250 0.1250 0.6250
0.1250 0.2500 0.6250
0.1250 0.3750 0.6250
0.1250 0.5000 0.6250
0.1250 0.6250 0.6250
0.1250 0.7500 0.6250
0.1250 0.8750 0.6250
0.1250 1.0000 0.6250
0.2500 0.0000 0.6250
0.2500 0.1250 0.6250
0.2500 0.2500 0.6250
0.2500 0.3750 0.6250
0.2500 0.5000 0.6250
0.2500 0.6250 0.6250
0.2500 0.7500 0.6250
0.2500 0.8750 0.6250
0.2500 1.0000 0.6250
0.3750 0.0000 0.6250
0.3750 0.1250 0.6250
0.3750 0.2500 0.6250
0.3750 0.3750 0.6250
0.3750 0.5000 0.6250
0.3750 0.6250 0.6250
0.3750 0.7500 0.6250
0.3750 0.8750 0.6250
0.3750 1.0000 0.6250
0.5000 0.0000 0.6250
0.5000 0.1250 0.6250
0.5000 0.2500 0.6250
0.5000 0.3750 0.6250
0.5000 0.5000 0.6250
0.5000 0.6250 0.6250
0.5000 0.7500 0.6250
0.5000 0.8750 0.6250
0.5000 1.0000 0.6250
0.6250 0.0000 0.6250
0.6250 0.1250 0.6250
0.6250 0.2500 0.6250
0.6250 0.3750 0.6250
0.6250 0.5000 0.6250
0.6250 0.6250 0.6250
0.6250 0.7500 0.6250
0.6250 0.8750 0.6250
0.6250 1.0000 0.6250
0.7500 0.0000 0.6250
0.7500 0.1250 0.6250
[...]
         <PointData>
            <DataArray Name="fValues" NumberOfComponents="3" format="ascii" type="Float64">
 1.82822e-19  3.94690e-04  3.83161e-04 
-2.23771e-19  2.96859e-04  4.00484e-04 
 1.37409e-19  1.97723e-04  4.14423e-04 
 1.42853e-19  9.86515e-05  4.22671e-04 
-7.97563e-20 -1.10896e-18  4.25322e-04 
 9.36217e-20 -9.86515e-05  4.22671e-04 
 1.55055e-19 -1.97723e-04  4.14423e-04 
-2.65585e-19 -2.96859e-04  4.00484e-04 
 1.38558e-19 -3.94690e-04  3.83161e-04 
 3.25358e-04  3.94927e-04  3.84400e-04 
 3.23348e-04  2.97310e-04  4.00051e-04 
 3.21818e-04  1.98324e-04  4.12749e-04 
 3.21188e-04  9.90623e-05  4.20374e-04 
 3.21049e-04 -1.38867e-18  4.22859e-04 
 3.21188e-04 -9.90623e-05  4.20374e-04 
 3.21818e-04 -1.98324e-04  4.12749e-04 
 3.23348e-04 -2.97310e-04  4.00051e-04 
 3.25358e-04 -3.94927e-04  3.84400e-04 
 6.47952e-04  3.95400e-04  3.87036e-04 
 6.45916e-04  2.98619e-04  3.98845e-04 
 6.44638e-04  1.99900e-04  4.09023e-04 
 6.44321e-04  1.00138e-04  4.15489e-04 
 6.44283e-04 -1.74423e-18  4.17684e-04 
 6.44321e-04 -1.00138e-04  4.15489e-04 
 6.44638e-04 -1.99900e-04  4.09023e-04 
 6.45916e-04 -2.98619e-04  3.98845e-04 
 6.47952e-04 -3.95400e-04  3.87036e-04 
 9.65853e-04  3.95301e-04  3.88415e-04 
 9.66695e-04  2.99619e-04  3.96651e-04 
 9.67938e-04  2.01197e-04  4.04635e-04 
 9.68995e-04  1.00941e-04  4.10037e-04 
 9.69401e-04 -1.80000e-18  4.11905e-04 
 9.68995e-04 -1.00941e-04  4.10037e-04 
 9.67938e-04 -2.01197e-04  4.04635e-04 
 9.66695e-04 -2.99619e-04  3.96651e-04 
 9.65853e-04 -3.95301e-04  3.88415e-04 
 1.27777e-03  3.92163e-04  3.86212e-04 
 1.28460e-03  2.97873e-04  3.92346e-04 
 1.29003e-03  1.99988e-04  3.98963e-04 
 1.29316e-03  1.00289e-04  4.03579e-04 
 1.29414e-03 -2.02489e-18  4.05208e-04 
 1.29316e-03 -1.00289e-04  4.03579e-04 
 1.29003e-03 -1.99988e-04  3.98963e-04 
 1.28460e-03 -2.97873e-04  3.92346e-04 
 1.27777e-03 -3.92163e-04  3.86212e-04 
 1.58266e-03  3.82722e-04  3.77602e-04 
 1.59883e-03  2.89890e-04  3.83016e-04 
 1.60903e-03  1.93759e-04  3.88831e-04 
 1.61401e-03  9.68672e-05  3.92875e-04 
 1.61543e-03 -2.05784e-18  3.94282e-04 
 1.61401e-03 -9.68672e-05  3.92875e-04 
 1.60903e-03 -1.93759e-04  3.88831e-04 
 1.59883e-03 -2.89890e-04  3.83016e-04 
 1.58266e-03 -3.82722e-04  3.77602e-04 
 1.88117e-03  3.60761e-04  3.56225e-04 
 1.90955e-03  2.70237e-04  3.61070e-04 
 1.92329e-03  1.79529e-04  3.66078e-04 
 1.92905e-03  8.95079e-05  3.69195e-04 
 1.93056e-03 -1.85917e-18  3.70222e-04 
 1.92905e-03 -8.95079e-05  3.69195e-04 
 1.92329e-03 -1.79529e-04  3.66078e-04 
 1.90955e-03 -2.70237e-04  3.61070e-04 
 1.88117e-03 -3.60761e-04  3.56225e-04 
 2.17699e-03  3.03661e-04  2.98927e-04 
 2.21466e-03  2.31955e-04  3.01052e-04 
 2.23099e-03  1.56309e-04  3.02564e-04 
 2.23713e-03  7.85933e-05  3.03382e-04 
 2.23862e-03 -2.28506e-18  3.03619e-04 
 2.23713e-03 -7.85933e-05  3.03382e-04 
 2.23099e-03 -1.56309e-04  3.02564e-04 
 2.21466e-03 -2.31955e-04  3.01052e-04 
 2.17699e-03 -3.03661e-04  2.98927e-04 
 2.34690e-03  2.45594e-04  2.39346e-04 
 2.38789e-03  1.93754e-04  2.39406e-04 
 2.40682e-03  1.34787e-04  2.37780e-04 
 2.41418e-03  6.92103e-05  2.36083e-04 
 2.41600e-03 -2.31866e-18  2.35416e-04 
 2.41418e-03 -6.92103e-05  2.36083e-04 
 2.40682e-03 -1.34787e-04  2.37780e-04 
 2.38789e-03 -1.93754e-04  2.39406e-04 
 2.34690e-03 -2.45594e-04  2.39346e-04 
-1.65359e-19  3.78403e-04  2.83243e-04 
 1.32081e-19  2.81856e-04  3.03918e-04 
 3.96467e-21  1.86179e-04  3.18660e-04 
-1.34761e-19  9.24564e-05  3.26557e-04 
 1.11128e-19 -1.12329e-18  3.28975e-04 
-3.05857e-19 -9.24564e-05  3.26557e-04 
 3.64558e-19 -1.86179e-04  3.18660e-04 
 9.42591e-21 -2.81856e-04  3.03918e-04 
 3.70494e-20 -3.78403e-04  2.83243e-04 
 3.27430e-04  3.80154e-04  2.85530e-04 
 3.24405e-04  2.83695e-04  3.03410e-04 
 3.23140e-04  1.87819e-04  3.16271e-04 
 3.22867e-04  9.35295e-05  3.23503e-04 
 3.22821e-04 -1.20237e-18  3.25836e-04 
 3.22867e-04 -9.35295e-05  3.23503e-04 
 3.23140e-04 -1.87819e-04  3.16271e-04 
 3.24405e-04 -2.83695e-04  3.03410e-04 
 3.27430e-04 -3.80154e-04  2.85530e-04 
 6.51878e-04  3.85077e-04  2.90156e-04 
 6.48640e-04  2.88660e-04  3.02131e-04 
 6.47914e-04  1.92199e-04  3.11949e-04 
 6.48012e-04  9.59447e-05  3.18049e-04 
 6.48162e-04 -1.47788e-18  3.20059e-04 
 6.48012e-04 -9.59447e-05  3.18049e-04 
 6.47914e-04 -1.92199e-04  3.11949e-04 
 6.48640e-04 -2.88660e-04  3.02131e-04 
 6.51878e-04 -3.85077e-04  2.90156e-04 
 9.72404e-04  3.89353e-04  2.93051e-04 
 9.72371e-04  2.93402e-04  3.00339e-04 
 9.74046e-04  1.95985e-04  3.07609e-04 
 9.75595e-04  9.80313e-05  3.12494e-04 
 9.76161e-04 -1.44099e-18  3.14195e-04 
 9.75595e-04 -9.80313e-05  3.12494e-04 
 9.74046e-04 -1.95985e-04  3.07609e-04 
 9.72371e-04 -2.93402e-04  3.00339e-04 
 9.72404e-04 -3.89353e-04  2.93051e-04 
 1.28915e-03  3.89698e-04  2.92330e-04 
 1.29528e-03  2.94260e-04  2.96714e-04 
 1.30121e-03  1.96558e-04  3.02243e-04 
 1.30478e-03  9.82554e-05  3.06261e-04 
 1.30594e-03 -1.82292e-18  3.07684e-04 
 1.30478e-03 -9.82554e-05  3.06261e-04 
 1.30121e-03 -1.96558e-04  3.02243e-04 
 1.29528e-03 -2.94260e-04  2.96714e-04 
 1.28915e-03 -3.89698e-04  2.92330e-04 
 1.60219e-03  3.83158e-04  2.85164e-04 
 1.61807e-03  2.88117e-04  2.87937e-04 
 1.62889e-03  1.91506e-04  2.92442e-04 
 1.63440e-03  9.54416e-05  2.95788e-04 
 1.63603e-03 -1.90332e-18  2.96982e-04 
 1.63440e-03 -9.54416e-05  2.95788e-04 
 1.62889e-03 -1.91506e-04  2.92442e-04 
 1.61807e-03 -2.88117e-04  2.87937e-04 
 1.60219e-03 -3.83158e-04  2.85164e-04 
 1.91216e-03  3.62893e-04  2.66049e-04 
 1.94103e-03  2.69576e-04  2.67899e-04 
 1.95568e-03  1.78147e-04  2.71400e-04 
 1.96221e-03  8.85989e-05  2.73886e-04 
 1.96402e-03 -1.79590e-18  2.74740e-04 
 1.96221e-03 -8.85989e-05  2.73886e-04 
 1.95568e-03 -1.78147e-04  2.71400e-04 
 1.94103e-03 -2.69576e-04  2.67899e-04 
 1.91216e-03 -3.62893e-04  2.66049e-04 
 2.21698e-03  3.04341e-04  2.27598e-04 
 2.25576e-03  2.31676e-04  2.28711e-04 
 2.27330e-03  1.55816e-04  2.30106e-04 
 2.28046e-03  7.82812e-05  2.31016e-04 
 2.28235e-03 -2.00556e-18  2.31317e-04 
 2.28046e-03 -7.82812e-05  2.31016e-04 
 2.27330e-03 -1.55816e-04  2.30106e-04 
 2.25576e-03 -2.31676e-04  2.28711e-04 
 2.21698e-03 -3.04341e-04  2.27598e-04 
 2.39010e-03  2.44652e-04  1.87868e-04 
 2.43234e-03  1.93206e-04  1.88354e-04 
 2.45270e-03  1.34535e-04  1.87976e-04 
 2.46127e-03  6.91185e-05  1.87486e-04 
 2.46357e-03 -2.06809e-18  1.87280e-04 
 2.46127e-03 -6.91185e-05  1.87486e-04 
 2.45270e-03 -1.34535e-04  1.87976e-04 
 2.43234e-03 -1.93206e-04  1.88354e-04 
 2.39010e-03 -2.44652e-04  1.87868e-04 
 6.68232e-20  3.52165e-04  1.76657e-04 
-1.60999e-19  2.57005e-04  2.07830e-04 
 1.60602e-19  1.66114e-04  2.22199e-04 
-1.06951e-20  8.18208e-05  2.28046e-04 
 1.70963e-21 -8.81187e-19  2.29777e-04 
 3.45339e-19 -8.18208e-05  2.28046e-04 
-4.18100e-19 -1.66114e-04  2.22199e-04 
 2.79777e-20 -2.57005e-04  2.07830e-04 
 1.33681e-19 -3.52165e-04  1.76657e-04 
 3.33615e-04  3.58504e-04  1.84009e-04 
 3.25213e-04  2.62026e-04  2.05610e-04 
 3.22978e-04  1.71752e-04  2.16967e-04 
 3.22271e-04  8.49166e-05  2.22948e-04 
 3.22222e-04 -9.51160e-19  2.24677e-04 
 3.22271e-04 -8.49166e-05  2.22948e-04 
 3.22978e-04 -1.71752e-04  2.16967e-04 
 3.25213e-04 -2.62026e-04  2.05610e-04 
 3.33615e-04 -3.58504e-04  1.84009e-04 
 6.60400e-04  3.73383e-04  1.91577e-04 
 6.52197e-04  2.77547e-04  2.03356e-04 
 6.49512e-04  1.83245e-04  2.11987e-04 
 6.49308e-04  9.11096e-05  2.16816e-04 
 6.49380e-04 -1.10461e-18  2.18425e-04 
 6.49308e-04 -9.11096e-05  2.16816e-04 
 6.49512e-04 -1.83245e-04  2.11987e-04 
 6.52197e-04 -2.77547e-04  2.03356e-04 
 6.60400e-04 -3.73383e-04  1.91577e-04 
 9.82747e-04  3.84670e-04  1.95459e-04 
 9.78924e-04  2.88586e-04  2.01831e-04 
 9.79314e-04  1.91919e-04  2.07593e-04 
 9.80493e-04  9.56584e-05  2.11447e-04 
 9.81038e-04 -1.27140e-18  2.12747e-04 
 9.80493e-04 -9.56584e-05  2.11447e-04 
 9.79314e-04 -1.91919e-04  2.07593e-04 
 9.78924e-04 -2.88586e-04  2.01831e-04 
 9.82747e-04 -3.84670e-04  1.95459e-04 
 1.30182e-03  3.89127e-04  1.95573e-04 
 1.30584e-03  2.93186e-04  1.98607e-04 
 1.31099e-03  1.95170e-04  2.02678e-04 
 1.31440e-03  9.73199e-05  2.05652e-04 
 1.31554e-03 -1.44171e-18  2.06720e-04 
 1.31440e-03 -9.73199e-05  2.05652e-04 
 1.31099e-03 -1.95170e-04  2.02678e-04 
 1.30584e-03 -2.93186e-04  1.98607e-04 
 1.30182e-03 -3.89127e-04  1.95573e-04 
 1.61785e-03  3.84928e-04  1.90080e-04 
 1.63287e-03  2.88957e-04  1.91413e-04 
 1.64339e-03  1.91482e-04  1.94361e-04 
 1.64886e-03  9.52098e-05  1.96700e-04 
 1.65049e-03 -1.61987e-18  1.97548e-04 
 1.64886e-03 -9.52098e-05  1.96700e-04 
 1.64339e-03 -1.91482e-04  1.94361e-04 
 1.63287e-03 -2.88957e-04  1.91413e-04 
 1.61785e-03 -3.84928e-04  1.90080e-04 
 1.93007e-03  3.65662e-04  1.76267e-04 
 1.95901e-03  2.71045e-04  1.76856e-04 
 1.97354e-03  1.78582e-04  1.78932e-04 
 1.98004e-03  8.86265e-05  1.80588e-04 
 1.98184e-03 -1.45710e-18  1.81185e-04 
 1.98004e-03 -8.86265e-05  1.80588e-04 
 1.97354e-03 -1.78582e-04  1.78932e-04 
 1.95901e-03 -2.71045e-04  1.76856e-04 
 1.93007e-03 -3.65662e-04  1.76267e-04 
 2.23668e-03  3.04654e-04  1.52912e-04 
 2.27617e-03  2.31908e-04  1.53518e-04 
 2.29371e-03  1.55804e-04  1.54469e-04 
 2.30084e-03  7.82025e-05  1.55183e-04 
 2.30273e-03 -1.88380e-18  1.55436e-04 
 2.30084e-03 -7.82025e-05  1.55183e-04 
 2.29371e-03 -1.55804e-04  1.54469e-04 
 2.27617e-03 -2.31908e-04  1.53518e-04 
 2.23668e-03 -3.04654e-04  1.52912e-04 
 2.41194e-03  2.42367e-04  1.30025e-04 
 2.45526e-03  1.92016e-04  1.30629e-04 
 2.47595e-03  1.33861e-04  1.30731e-04 
 2.48467e-03  6.87788e-05  1.30772e-04 
 2.48702e-03 -1.94213e-18  1.30788e-04 
 2.48467e-03 -6.87788e-05  1.30772e-04 
 2.47595e-03 -1.33861e-04  1.30731e-04 
 2.45526e-03 -1.92016e-04  1.30629e-04 
 2.41194e-03 -2.42367e-04  1.30025e-04 
-8.87930e-20  2.87290e-04  6.79914e-05 
 4.62361e-19  1.88455e-04  1.15137e-04 
-6.03710e-19  1.20115e-04  1.21238e-04 
 4.02097e-19  5.91586e-05  1.23906e-04 
-4.01172e-19 -5.50703e-19  1.24697e-04 
 1.67631e-19 -5.91586e-05  1.23906e-04 
-8.87616e-20 -1.20115e-04  1.21238e-04 
 5.28360e-19 -1.88455e-04  1.15137e-04 
-2.57481e-19 -2.87290e-04  6.79914e-05 
 3.42102e-04  3.18254e-04  8.65238e-05 
 3.25828e-04  2.26884e-04  1.04103e-04 
 3.19942e-04  1.45940e-04  1.12865e-04 
 3.19316e-04  7.17352e-05  1.15879e-04 
 3.19316e-04 -6.73071e-19  1.16768e-04 
 3.19316e-04 -7.17352e-05  1.15879e-04 
 3.19942e-04 -1.45940e-04  1.12865e-04 
 3.25828e-04 -2.26884e-04  1.04103e-04 
 3.42102e-04 -3.18254e-04  8.65238e-05 
 6.71134e-04  3.59642e-04  9.34353e-05 
 6.53397e-04  2.63372e-04  1.03065e-04 
 6.48487e-04  1.72715e-04  1.07980e-04 
 6.47506e-04  8.53656e-05  1.10897e-04 
 6.47588e-04 -8.47653e-19  1.11767e-04 
 6.47506e-04 -8.53656e-05  1.10897e-04 
 6.48487e-04 -1.72715e-04  1.07980e-04 
 6.53397e-04 -2.63372e-04  1.03065e-04 
 6.71134e-04 -3.59642e-04  9.34353e-05 
 9.92121e-04  3.80818e-04  9.73355e-05 
 9.83227e-04  2.84978e-04  1.01428e-04 
 9.81517e-04  1.88537e-04  1.04905e-04 
 9.82132e-04  9.37192e-05  1.07019e-04 
 9.82529e-04 -1.01364e-18  1.07754e-04 
 9.82132e-04 -9.37192e-05  1.07019e-04 
 9.81517e-04 -1.88537e-04  1.04905e-04 
 9.83227e-04 -2.84978e-04  1.01428e-04 
 9.92121e-04 -3.80818e-04  9.73355e-05 
 1.31074e-03  3.89068e-04  9.78075e-05 
 1.31259e-03  2.92940e-04  9.94652e-05 
 1.31655e-03  1.94627e-04  1.01691e-04 
 1.31948e-03  9.68587e-05  1.03305e-04 
 1.32052e-03 -1.15228e-18  1.03874e-04 
 1.31948e-03 -9.68587e-05  1.03305e-04 
 1.31655e-03 -1.94627e-04  1.01691e-04 
 1.31259e-03 -2.92940e-04  9.94652e-05 
 1.31074e-03 -3.89068e-04  9.78075e-05 
 1.62710e-03  3.86388e-04  9.48667e-05 
 1.64132e-03  2.90010e-04  9.54256e-05 
 1.65127e-03  1.91946e-04  9.69000e-05 
 1.65644e-03  9.53279e-05  9.81010e-05 
 1.65799e-03 -1.33650e-18  9.85427e-05 
 1.65644e-03 -9.53279e-05  9.81010e-05 
 1.65127e-03 -1.91946e-04  9.69000e-05 
 1.64132e-03 -2.90010e-04  9.54256e-05 
 1.62710e-03 -3.86388e-04  9.48667e-05 
 1.93914e-03  3.67362e-04  8.77351e-05 
 1.96811e-03  2.72253e-04  8.79066e-05 
 1.98233e-03  1.79203e-04  8.88649e-05 
 1.98857e-03  8.88504e-05  8.96826e-05 
 1.99029e-03 -1.30494e-18  8.99853e-05 
 1.98857e-03 -8.88504e-05  8.96826e-05 
 1.98233e-03 -1.79203e-04  8.88649e-05 
 1.96811e-03 -2.72253e-04  8.79066e-05 
 1.93914e-03 -3.67362e-04  8.77351e-05 
 2.24554e-03  3.04730e-04  7.67368e-05 
 2.28560e-03  2.32089e-04  7.70228e-05 
 2.30293e-03  1.55902e-04  7.74944e-05 
 2.30983e-03  7.82255e-05  7.78752e-05 
 2.31163e-03 -1.49893e-18  7.80150e-05 
 2.30983e-03 -7.82255e-05  7.78752e-05 
 2.30293e-03 -1.55902e-04  7.74944e-05 
 2.28560e-03 -2.32089e-04  7.70228e-05 
 2.24554e-03 -3.04730e-04  7.67368e-05 
 2.42169e-03  2.40382e-04  6.65375e-05 
 2.46586e-03  1.91085e-04  6.69203e-05 
 2.48656e-03  1.33443e-04  6.70552e-05 
 2.49517e-03  6.86044e-05  6.71723e-05 
 2.49747e-03 -1.84607e-18  6.72204e-05 
 2.49517e-03 -6.86044e-05  6.71723e-05 
 2.48656e-03 -1.33443e-04  6.70552e-05 
 2.46586e-03 -1.91085e-04  6.69203e-05 
 2.42169e-03 -2.40382e-04  6.65375e-05 
-2.36383e-19  2.98432e-19 -4.48479e-20 
 6.49019e-22 -2.27817e-19 -1.58238e-20 
 1.19197e-19  1.34792e-19  9.06531e-20 
-2.81034e-20  8.20681e-22  1.76174e-20 
 4.31661e-20 -7.17876e-21  4.97511e-20 
-5.97030e-20 -2.02768e-20 -1.89347e-20 
 5.98669e-20  1.00612e-19  1.27785e-20 
 1.01109e-19 -1.17947e-19 -4.22393e-20 
-6.62262e-20  6.46886e-20  6.24980e-20 
 3.61191e-04  2.87935e-04  6.81970e-19 
 3.15389e-04  1.89154e-04  2.24282e-19 
 3.12224e-04  1.20636e-04 -1.39372e-19 
 3.12002e-04  5.94202e-05 -1.98055e-19 
 3.12122e-04 -2.96831e-19 -5.69239e-19 
 3.12002e-04 -5.94202e-05 -5.60157e-19 
 3.12224e-04 -1.20636e-04 -8.41022e-19 
 3.15389e-04 -1.89154e-04 -8.17283e-19 
 3.61191e-04 -2.87935e-04 -1.28840e-18 
 6.79566e-04  3.53901e-04  5.42399e-20 
 6.52407e-04  2.59023e-04  4.65238e-20 
 6.44670e-04  1.67587e-04  1.67260e-19 
 6.43957e-04  8.25256e-05 -3.80029e-19 
 6.44083e-04 -5.67515e-19 -5.04779e-19 
 6.43957e-04 -8.25256e-05 -8.89636e-19 
 6.44670e-04 -1.67587e-04 -9.98726e-19 
 6.52407e-04 -2.59023e-04 -1.53194e-18 
 6.79566e-04 -3.53901e-04 -1.94467e-18 
 9.95964e-04  3.79628e-04 -3.69414e-20 
 9.84662e-04  2.83821e-04  5.44402e-20 
 9.81479e-04  1.87426e-04 -9.85405e-20 
 9.81662e-04  9.29182e-05 -2.96914e-19 
 9.82042e-04 -5.87199e-19 -5.98749e-19 
 9.81662e-04 -9.29182e-05 -1.05712e-18 
 9.81479e-04 -1.87426e-04 -1.26890e-18 
 9.84662e-04 -2.83821e-04 -1.86797e-18 
 9.95964e-04 -3.79628e-04 -2.39133e-18 
 1.31390e-03  3.89065e-04  4.18984e-19 
 1.31484e-03  2.92942e-04  8.44788e-20 
 1.31819e-03  1.94501e-04 -1.21589e-19 
 1.32083e-03  9.67357e-05 -4.72742e-19 
 1.32179e-03 -1.03287e-18 -8.53949e-19 
 1.32083e-03 -9.67357e-05 -1.12093e-18 
 1.31819e-03 -1.94501e-04 -1.53670e-18 
 1.31484e-03 -2.92942e-04 -1.80665e-18 
 1.31390e-03 -3.89065e-04 -2.06713e-18 
 1.63010e-03  3.86925e-04  3.50549e-19 
 1.64400e-03  2.90433e-04  2.06634e-20 
 1.65368e-03  1.92173e-04 -3.61813e-19 
 1.65869e-03  9.54074e-05 -6.63527e-19 
 1.66018e-03 -1.03655e-18 -1.07922e-18 
 1.65869e-03 -9.54074e-05 -1.38655e-18 
 1.65368e-03 -1.92173e-04 -1.92859e-18 
 1.64400e-03 -2.90433e-04 -2.22926e-18 
 1.63010e-03 -3.86925e-04 -2.42931e-18 
 1.94188e-03  3.67909e-04  5.51645e-20 
 1.97086e-03  2.72680e-04 -9.87816e-20 
 1.98494e-03  1.79452e-04 -4.87052e-19 
 1.99106e-03  8.89535e-05 -8.46416e-19 
 1.99273e-03 -1.03323e-18 -1.14836e-18 
 1.99106e-03 -8.89535e-05 -1.56374e-18 
 1.98494e-03 -1.79452e-04 -1.87706e-18 
 1.97086e-03 -2.72680e-04 -2.33852e-18 
 1.94188e-03 -3.67909e-04 -2.80802e-18 
 2.24806e-03  3.04722e-04 -4.67234e-19 
 2.28833e-03  2.32147e-04 -5.49519e-19 
 2.30558e-03  1.55948e-04 -9.26438e-19 
 2.31236e-03  7.82440e-05 -1.11185e-18 
 2.31412e-03 -1.24215e-18 -1.41413e-18 
 2.31236e-03 -7.82440e-05 -1.77337e-18 
 2.30558e-03 -1.55948e-04 -2.08163e-18 
 2.28833e-03 -2.32147e-04 -2.53871e-18 
 2.24806e-03 -3.04722e-04 -2.89187e-18 
 2.42442e-03  2.39645e-04 -7.89899e-19 
 2.46891e-03  1.90748e-04 -7.25915e-19 
 2.48960e-03  1.33312e-04 -9.97589e-19 
 2.49815e-03  6.85578e-05 -1.18913e-18 
 2.50042e-03 -1.50429e-18 -1.43387e-18 
 2.49815e-03 -6.85578e-05 -1.75234e-18 
 2.48960e-03 -1.33312e-04 -2.01814e-18 
 2.46891e-03 -1.90748e-04 -2.09830e-18 
 2.42442e-03 -2.39645e-04 -2.40269e-18 
 6.64462e-20  2.87290e-04 -6.79914e-05 
 7.38350e-20  1.88455e-04 -1.15137e-04 
 3.92686e-20  1.20115e-04 -1.21238e-04 
-2.04836e-19  5.91586e-05 -1.23906e-04 
 1.76333e-19  9.03872e-21 -1.24697e-04 
-1.75174e-19 -5.91586e-05 -1.23906e-04 
 1.98405e-19 -1.20115e-04 -1.21238e-04 
-4.04901e-19 -1.88455e-04 -1.15137e-04 
 2.92309e-19 -2.87290e-04 -6.79914e-05 
 3.42102e-04  3.18254e-04 -8.65238e-05 
 3.25828e-04  2.26884e-04 -1.04103e-04 
 3.19942e-04  1.45940e-04 -1.12865e-04 
 3.19316e-04  7.17352e-05 -1.15879e-04 
 3.19316e-04 -8.30381e-20 -1.16768e-04 
 3.19316e-04 -7.17352e-05 -1.15879e-04 
 3.19942e-04 -1.45940e-04 -1.12865e-04 
 3.25828e-04 -2.26884e-04 -1.04103e-04 
 3.42102e-04 -3.18254e-04 -8.65238e-05 
 6.71134e-04  3.59642e-04 -9.34353e-05 
 6.53397e-04  2.63372e-04 -1.03065e-04 
 6.48487e-04  1.72715e-04 -1.07980e-04 
 6.47506e-04  8.53656e-05 -1.10897e-04 
 6.47588e-04 -2.33004e-19 -1.11767e-04 
 6.47506e-04 -8.53656e-05 -1.10897e-04 
 6.48487e-04 -1.72715e-04 -1.07980e-04 
 6.53397e-04 -2.63372e-04 -1.03065e-04 
 6.71134e-04 -3.59642e-04 -9.34353e-05 
 9.92121e-04  3.80818e-04 -9.73355e-05 
 9.83227e-04  2.84978e-04 -1.01428e-04 
 9.81517e-04  1.88537e-04 -1.04905e-04 
 9.82132e-04  9.37192e-05 -1.07019e-04 
 9.82529e-04 -4.90940e-19 -1.07754e-04 
 9.82132e-04 -9.37192e-05 -1.07019e-04 
 9.81517e-04 -1.88537e-04 -1.04905e-04 
 9.83227e-04 -2.84978e-04 -1.01428e-04 
 9.92121e-04 -3.80818e-04 -9.73355e-05 
 1.31074e-03  3.89068e-04 -9.78075e-05 
 1.31259e-03  2.92940e-04 -9.94652e-05 
 1.31655e-03  1.94627e-04 -1.01691e-04 
 1.31948e-03  9.68587e-05 -1.03305e-04 
 1.32052e-03 -6.50431e-19 -1.03874e-04 
 1.31948e-03 -9.68587e-05 -1.03305e-04 
 1.31655e-03 -1.94627e-04 -1.01691e-04 
 1.31259e-03 -2.92940e-04 -9.94652e-05 
 1.31074e-03 -3.89068e-04 -9.78075e-05 
 1.62710e-03  3.86388e-04 -9.48667e-05 
 1.64132e-03  2.90010e-04 -9.54256e-05 
 1.65127e-03  1.91946e-04 -9.69000e-05 
 1.65644e-03  9.53279e-05 -9.81010e-05 
 1.65799e-03 -7.80194e-19 -9.85427e-05 
 1.65644e-03 -9.53279e-05 -9.81010e-05 
 1.65127e-03 -1.91946e-04 -9.69000e-05 
 1.64132e-03 -2.90010e-04 -9.54256e-05 
 1.62710e-03 -3.86388e-04 -9.48667e-05 
 1.93914e-03  3.67362e-04 -8.77351e-05 
 1.96811e-03  2.72253e-04 -8.79066e-05 
 1.98233e-03  1.79203e-04 -8.88649e-05 
 1.98857e-03  8.88504e-05 -8.96826e-05 
 1.99029e-03 -7.55998e-19 -8.99853e-05 
 1.98857e-03 -8.88504e-05 -8.96826e-05 
 1.98233e-03 -1.79203e-04 -8.88649e-05 
 1.96811e-03 -2.72253e-04 -8.79066e-05 
 1.93914e-03 -3.67362e-04 -8.77351e-05 
 2.24554e-03  3.04730e-04 -7.67368e-05 
 2.28560e-03  2.32089e-04 -7.70228e-05 
 2.30293e-03  1.55902e-04 -7.74944e-05 
 2.30983e-03  7.82255e-05 -7.78752e-05 
 2.31163e-03 -1.03366e-18 -7.80150e-05 
 2.30983e-03 -7.82255e-05 -7.78752e-05 
 2.30293e-03 -1.55902e-04 -7.74944e-05 
 2.28560e-03 -2.32089e-04 -7.70228e-05 
 2.24554e-03 -3.04730e-04 -7.67368e-05 
 2.42169e-03  2.40382e-04 -6.65375e-05 
 2.46586e-03  1.91085e-04 -6.69203e-05 
 2.48656e-03  1.33443e-04 -6.70552e-05 
 2.49517e-03  6.86044e-05 -6.71723e-05 
 2.49747e-03 -1.03618e-18 -6.72204e-05 
 2.49517e-03 -6.86044e-05 -6.71723e-05 
 2.48656e-03 -1.33443e-04 -6.70552e-05 
 2.46586e-03 -1.91085e-04 -6.69203e-05 
 2.42169e-03 -2.40382e-04 -6.65375e-05 
-7.79566e-20  3.52165e-04 -1.76657e-04 
-1.45647e-19  2.57005e-04 -2.07830e-04 
 4.28576e-20  1.66114e-04 -2.22199e-04 
-1.53842e-19  8.18208e-05 -2.28046e-04 
 1.95304e-19  1.36931e-19 -2.29777e-04 
 3.17416e-20 -8.18208e-05 -2.28046e-04 
 1.04095e-19 -1.66114e-04 -2.22199e-04 
 5.29300e-19 -2.57005e-04 -2.07830e-04 
-3.38261e-19 -3.52165e-04 -1.76657e-04 
 3.33615e-04  3.58504e-04 -1.84009e-04 
 3.25213e-04  2.62026e-04 -2.05610e-04 