<?xml version="1.0" encoding="utf-8"?>
<VTKFile byte_order="LittleEndian" type="UnstructuredGrid" version="0.1">
   <UnstructuredGrid>
      <Piece NumberOfCells="27000" NumberOfPoints="29791">
         <Points>
            <DataArray Name="Points" NumberOfComponents="3" format="ascii" type="Float32">
0.0000 0.0000 0.0000
0.0000 0.0333 0.0000
0.0000 0.0667 0.0000
0.0000 0.1000 0.0000
0.0000 0.1333 0.0000
0.0000 0.1667 0.0000
0.0000 0.2000 0.0000
0.0000 0.2333 0.0000
0.0000 0.2667 0.0000
0.0000 0.3000 0.0000
0.0000 0.3333 0.0000
0.0000 0.3667 0.0000
0.0000 0.4000 0.0000
0.0000 0.4333 0.0000
0.0000 0.4667 0.0000
0.0000 0.5000 0.0000
0.0000 0.5333 0.0000
0.0000 0.5667 0.0000
0.0000 0.6000 0.0000
0.0000 0.6333 0.0000
0.0000 0.6667 0.0000
0.0000 0.7000 0.0000
0.0000 0.7333 0.0000
0.0000 0.7667 0.0000
0.0000 0.8000 0.0000
0.0000 0.8333 0.0000
0.0000 0.8667 0.0000
0.0000 0.9000 0.0000
0.0000 0.9333 0.0000
0.0000 0.9667 0.0000
0.0000 1.0000 0.0000
0.0333 0.0000 0.0000
0.0333 0.0333 0.0000
0.0333 0.0667 0.0000
0.0333 0.1000 0.0000
0.0333 0.1333 0.0000
0.0333 0.1667 0.0000
0.0333 0.2000 0.0000
0.0333 0.2333 0.0000
0.0333 0.2667 0.0000
0.0333 0.3000 0.0000
0.0333 0.3333 0.0000
0.0333 0.3667 0.0000
0.0333 0.4000 0.0000
0.0333 0.4333 0.0000
0.0333 0.4667 0.0000
0.0333 0.5000 0.0000
0.0333 0.5333 0.0000
0.0333 0.5667 0.0000
0.0333 0.6000 0.0000
0.0333 0.6333 0.0000
0.0333 0.6667 0.0000
0.0333 0.7000 0.0000
0.0333 0.7333 0.0000
0.0333 0.7667 0.0000
0.0333 0.8000 0.0000
0.0333 0.8333 0.0000
0.0333 0.8667 0.0000
0.0333 0.9000 0.0000
0.0333 0.9333 0.0000
0.0333 0.9667 0.0000
0.0333 1.0000 0.0000
0.0667 0.0000 0.0000
0.0667 0.0333 0.0000
0.0667 0.0667 0.0000
0.0667 0.1000 0.0000
0.0667 0.1333 0.0000
0.0667 0.1667 0.0000
0.0667 0.2000 0.0000
0.0667 0.2333 0.0000
0.0667 0.2667 0.0000
0.0667 0.3000 0.0000
0.0667 0.3333 0.0000
0.0667 0.3667 0.0000
0.0667 0.4000 0.0000
0.0667 0.4333 0.0000
0.0667 0.4667 0.0000
0.0667 0.5000 0.0000
0.0667 0.5333 0.0000
0.0667 0.5667 0.0000
0.0667 0.6000 0.0000
0.0667 0.6333 0.0000
0.0667 0.6667 0.0000
0.0667 0.7000 0.0000
0.0667 0.7333 0.0000
0.0667 0.7667 0.0000
0.0667 0.8000 0.0000
0.0667 0.8333 0.0000
0.0667 0.8667 0.0000
0.0667 0.9000 0.0000
0.0667 0.9333 0.0000
0.0667 0.9667 0.0000
0.0667 1.0000 0.0000
0.1000 0.0000 0.0000
0.1000 0.0333 0.0000
0.1000 0.0667 0.0000
0.1000 0.1000 0.0000
0.1000 0.1333 0.0000
0.1000 0.1667 0.0000
0.1000 0.2000 0.0000
0.1000 0.2333 0.0000
0.1000 0.2667 0.0000
0.1000 0.3000 0.0000
0.1000 0.3333 0.0000
0.1000 0.3667 0.0000
0.1000 0.4000 0.0000
0.1000 0.4333 0.0000
0.1000 0.4667 0.0000
0.1000 0.5000 0.0000
0.1000 0.5333 0.0000
0.1000 0.5667 0.0000
0.1000 0.6000 0.0000
0.1000 0.6333 0.0000
0.1000 0.6667 0.0000
0.1000 0.7000 0.0000
0.1000 0.7333 0.0000
0.1000 0.7667 0.0000
0.1000 0.8000 0.0000
0.1000 0.8333 0.0000
0.1000 0.8667 0.0000
0.1000 0.9000 0.0000
0.1000 0.9333 0.0000
0.1000 0.9667 0.0000
0.1000 1.0000 0.0000
0.1333 0.0000 0.0000
0.1333 0.0333 0.0000
0.1333 0.0667 0.0000
0.1333 0.1000 0.0000
0.1333 0.1333 0.0000
0.1333 0.1667 0.0000
0.1333 0.2000 0.0000
0.1333 0.2333 0.0000
0.1333 0.2667 0.0000
0.1333 0.3000 0.0000
0.1333 0.3333 0.0000
0.1333 0.3667 0.0000
0.1333 0.4000 0.0000
0.1333 0.4333 0.0000
0.1333 0.4667 0.0000
0.1333 0.5000 0.0000
0.1333 0.5333 0.0000
0.1333 0.5667 0.0000
0.1333 0.6000 0.0000
0.1333 0.6333 0.0000
0.1333 0.6667 0.0000
0.1333 0.7000 0.0000
0.1333 0.7333 0.0000
0.1333 0.7667 0.0000
0.1333 0.8000 0.0000
0.1333 0.8333 0.0000
0.1333 0.8667 0.0000
0.1333 0.9000 0.0000
0.1333 0.9333 0.0000
0.1333 0.9667 0.0000
0.1333 1.0000 0.0000
0.1667 0.0000 0.0000
0.1667 0.0333 0.0000
0.1667 0.0667 0.0000
0.1667 0.1000 0.0000
0.1667 0.1333 0.0000
0.1667 0.1667 0.0000
0.1667 0.2000 0.0000
0.1667 0.2333 0.0000
0.1667 0.2667 0.0000
0.1667 0.3000 0.0000
0.1667 0.3333 0.0000
0.1667 0.3667 0.0000
0.1667 0.4000 0.0000
0.1667 0.4333 0.0000
0.1667 0.4667 0.0000
0.1667 0.5000 0.0000
0.1667 0.5333 0.0000
0.1667 0.5667 0.0000
0.1667 0.6000 0.0000
0.1667 0.6333 0.0000
0.1667 0.6667 0.0000
0.1667 0.7000 0.0000
0.1667 0.7333 0.0000
0.1667 0.7667 0.0000
0.1667 0.8000 0.0000
0.1667 0.8333 0.0000
0.1667 0.8667 0.0000
0.1667 0.9000 0.0000
0.1667 0.9333 0.0000
0.1667 0.9667 0.0000
0.1667 1.0000 0.0000
0.2000 0.0000 0.0000
0.2000 0.0333 0.0000
0.2000 0.0667 0.0000
0.2000 0.1000 0.0000
0.2000 0.1333 0.0000
0.2000 0.1667 0.0000
0.2000 0.2000 0.0000
0.2000 0.2333 0.0000
0.2000 0.2667 0.0000
0.2000 0.3000 0.0000
0.2000 0.3333 0.0000
0.2000 0.3667 0.0000
0.2000 0.4000 0.0000
0.2000 0.4333 0.0000
0.2000 0.4667 0.0000
0.2000 0.5000 0.0000
0.2000 0.5333 0.0000
0.2000 0.5667 0.0000
0.2000 0.6000 0.0000
0.2000 0.6333 0.0000
0.2000 0.6667 0.0000
0.2000 0.7000 0.0000
0.2000 0.7333 0.0000
0.2000 0.7667 0.0000
0.2000 0.8000 0.0000
0.2000 0.8333 0.0000
0.2000 0.8667 0.0000
0.2000 0.9000 0.0000
0.2000 0.9333 0.0000
0.2000 0.9667 0.0000
0.2000 1.0000 0.0000
0.2333 0.0000 0.0000
0.2333 0.0333 0.0000
0.2333 0.0667 0.0000
0.2333 0.1000 0.0000
0.2333 0.1333 0.0000
0.2333 0.1667 0.0000
0.2333 0.2000 0.0000
0.2333 0.2333 0.0000
0.2333 0.2667 0.0000
0.2333 0.3000 0.0000
0.2333 0.3333 0.0000
0.2333 0.3667 0.0000
0.2333 0.4000 0.0000
0.2333 0.4333 0.0000
0.2333 0.4667 0.0000
0.2333 0.5000 0.0000
0.2333 0.5333 0.0000
0.2333 0.5667 0.0000
0.2333 0.6000 0.0000
0.2333 0.6333 0.0000
0.2333 0.6667 0.0000
0.2333 0.7000 0.0000
0.2333 0.7333 0.0000
0.2333 0.7667 0.0000
0.2333 0.8000 0.0000
0.2333 0.8333 0.0000
0.2333 0.8667 0.0000
0.2333 0.9000 0.0000
0.2333 0.9333 0.0000
0.2333 0.9667 0.0000
0.2333 1.0000 0.0000
0.2667 0.0000 0.0000
0.2667 0.0333 0.0000
0.2667 0.0667 0.0000
0.2667 0.1000 0.0000
0.2667 0.1333 0.0000
0.2667 0.1667 0.0000
0.2667 0.2000 0.0000
0.2667 0.2333 0.0000
0.2667 0.2667 0.0000
0.2667 0.3000 0.0000
0.2667 0.3333 0.0000
0.2667 0.3667 0.0000
0.2667 0.4000 0.0000
0.2667 0.4333 0.0000
0.2667 0.4667 0.0000
0.2667 0.5000 0.0000
0.2667 0.5333 0.0000
0.2667 0.5667 0.0000
0.2667 0.6000 0.0000
0.2667 0.6333 0.0000
0.2667 0.6667 0.0000
0.2667 0.7000 0.0000
0.2667 0.7333 0.0000
0.2667 0.7667 0.0000
0.2667 0.8000 0.0000
0.2667 0.8333 0.0000
0.2667 0.8667 0.0000
0.2667 0.9000 0.0000
0.2667 0.9333 0.0000
0.2667 0.9667 0.0000
0.2667 1.0000 0.0000
0.3000 0.0000 0.0000
0.3000 0.0333 0.0000
0.3000 0.0667 0.0000
0.3000 0.1000 0.0000
0.3000 0.1333 0.0000
0.3000 0.1667 0.0000
0.3000 0.2000 0.0000
0.3000 0.2333 0.0000
0.3000 0.2667 0.0000
0.3000 0.3000 0.0000
0.3000 0.3333 0.0000
0.3000 0.3667 0.0000
0.3000 0.4000 0.0000
0.3000 0.4333 0.0000
0.3000 0.4667 0.0000
0.3000 0.5000 0.0000
0.3000 0.5333 0.0000
0.3000 0.5667 0.0000
0.3000 0.6000 0.0000
0.3000 0.6333 0.0000
0.3000 0.6667 0.0000
0.3000 0.7000 0.0000
0.3000 0.7333 0.0000
0.3000 0.7667 0.0000
0.3000 0.8000 0.0000
0.3000 0.8333 0.0000
0.3000 0.8667 0.0000
0.3000 0.9000 0.0000
0.3000 0.9333 0.0000
0.3000 0.9667 0.0000
0.3000 1.0000 0.0000
0.3333 0.0000 0.0000
0.3333 0.0333 0.0000
0.3333 0.0667 0.0000
0.3333 0.1000 0.0000
0.3333 0.1333 0.0000
0.3333 0.1667 0.0000
0.3333 0.2000 0.0000
0.3333 0.2333 0.0000
0.3333 0.2667 0.0000
0.3333 0.3000 0.0000
0.3333 0.3333 0.0000
0.3333 0.3667 0.0000
0.3333 0.4000 0.0000
0.3333 0.4333 0.0000
0.3333 0.4667 0.0000
0.3333 0.5000 0.0000
0.3333 0.5333 0.0000
0.3333 0.5667 0.0000
0.3333 0.6000 0.0000
0.3333 0.6333 0.0000
0.3333 0.6667 0.0000
0.3333 0.7000 0.0000
0.3333 0.7333 0.0000
0.3333 0.7667 0.0000
0.3333 0.8000 0.0000
0.3333 0.8333 0.0000
0.3333 0.8667 0.0000
0.3333 0.9000 0.0000
0.3333 0.9333 0.0000
0.3333 0.9667 0.0000
0.3333 1.0000 0.0000
0.3667 0.0000 0.0000
0.3667 0.0333 0.0000
0.3667 0.0667 0.0000
0.3667 0.1000 0.0000
0.3667 0.1333 0.0000
0.3667 0.1667 0.0000
0.3667 0.2000 0.0000
0.3667 0.2333 0.0000
0.3667 0.2667 0.0000
0.3667 0.3000 0.0000
0.3667 0.3333 0.0000
0.3667 0.3667 0.0000
0.3667 0.4000 0.0000
0.3667 0.4333 0.0000
0.3667 0.4667 0.0000
0.3667 0.5000 0.0000
0.3667 0.5333 0.0000
0.3667 0.5667 0.0000
0.3667 0.6000 0.0000
0.3667 0.6333 0.0000
0.3667 0.6667 0.0000
0.3667 0.7000 0.0000
0.3667 0.7333 0.0000
0.3667 0.7667 0.0000
0.3667 0.8000 0.0000
0.3667 0.8333 0.0000
0.3667 0.8667 0.0000
0.3667 0.9000 0.0000
0.3667 0.9333 0.0000
0.3667 0.9667 0.0000
0.3667 1.0000 0.0000
0.4000 0.0000 0.0000
0.4000 0.0333 0.0000
0.4000 0.0667 0.0000
0.4000 0.1000 0.0000
0.4000 0.1333 0.0000
0.4000 0.1667 0.0000
0.4000 0.2000 0.0000
0.4000 0.2333 0.0000
0.4000 0.2667 0.0000
0.4000 0.3000 0.0000
0.4000 0.3333 0.0000
0.4000 0.3667 0.0000
0.4000 0.4000 0.0000
0.4000 0.4333 0.0000
0.4000 0.4667 0.0000
0.4000 0.5000 0.0000
0.4000 0.5333 0.0000
0.4000 0.5667 0.0000
0.4000 0.6000 0.0000
0.4000 0.6333 0.0000
0.4000 0.6667 0.0000
0.4000 0.7000 0.0000
0.4000 0.7333 0.0000
0.4000 0.7667 0.0000
0.4000 0.8000 0.0000
0.4000 0.8333 0.0000
0.4000 0.8667 0.0000
0.4000 0.9000 0.0000
0.4000 0.9333 0.0000
0.4000 0.9667 0.0000
0.4000 1.0000 0.0000
0.4333 0.0000 0.0000
0.4333 0.0333 0.0000
0.4333 0.0667 0.0000
0.4333 0.1000 0.0000
0.4333 0.1333 0.0000
0.4333 0.1667 0.0000
0.4333 0.2000 0.0000
0.4333 0.2333 0.0000
0.4333 0.2667 0.0000
0.4333 0.3000 0.0000
0.4333 0.3333 0.0000
0.4333 0.3667 0.0000
0.4333 0.4000 0.0000
0.4333 0.4333 0.0000
0.4333 0.4667 0.0000
0.4333 0.5000 0.0000
0.4333 0.5333 0.0000
0.4333 0.5667 0.0000
0.4333 0.6000 0.0000
0.4333 0.6333 0.0000
0.4333 0.6667 0.0000
0.4333 0.7000 0.0000
0.4333 0.7333 0.0000
0.4333 0.7667 0.0000
0.4333 0.8000 0.0000
0.4333 0.8333 0.0000
0.4333 0.8667 0.0000
0.4333 0.9000 0.0000
0.4333 0.9333 0.0000
0.4333 0.9667 0.0000
0.4333 1.0000 0.0000
0.4667 0.0000 0.0000
0.4667 0.0333 0.0000
0.4667 0.0667 0.0000
0.4667 0.1000 0.0000
0.4667 0.1333 0.0000
0.4667 0.1667 0.0000
0.4667 0.2000 0.0000
0.4667 0.2333 0.0000
0.4667 0.2667 0.0000
0.4667 0.3000 0.0000
0.4667 0.3333 0.0000
0.4667 0.3667 0.0000
0.4667 0.4000 0.0000
0.4667 0.4333 0.0000
0.4667 0.4667 0.0000
0.4667 0.5000 0.0000
0.4667 0.5333 0.0000
0.4667 0.5667 0.0000
0.4667 0.6000 0.0000
0.4667 0.6333 0.0000
0.4667 0.6667 0.0000
0.4667 0.7000 0.0000
0.4667 0.7333 0.0000
0.4667 0.7667 0.0000
0.4667 0.8000 0.0000
0.4667 0.8333 0.0000
0.4667 0.8667 0.0000
[...]
         <PointData>
            <DataArray Name="fValues" NumberOfComponents="1" format="ascii" type="Float64">
 1.45592e-15 
-1.79106e-15 
 1.00000e+00 
 1.00000e+00 
 1.00000e+00 
 1.00000e+00 
 1.00000e+00 
 1.00000e+00 
 1.00000e+00 
 1.00000e+00 
 1.00000e+00 
 1.00000e+00 
 1.00000e+00 
 1.00000e+00 
 1.00000e+00 
       00001 
 1.00000e+00 
 1.00000e+00 
 1.00000e+00 
 1.00000e+00 
 1.00000e+00 
 1.00000e+00 
 1.00000e+00 
 1.00000e+00 
 1.00000e+00 
 1.00000e+00 
 1.00000e+00 
 1.00000e+00 
 1.00000e+00 
-3.57925e-17 
-6.06950e-16 
-1.21919e-15 
 6.69003e-01 
 7.16872e-01 
 1.00000e+00 
 1.00000e+00 
 1.00000e+00 
 1.00000e+00 
 1.00000e+00 
 1.00000e+00 
 1.00000e+00 
       00001 
 1.00000e+00 
 1.00000e+00 
 1.00000e+00 
 1.00000e+00 
 1.00000e+00 
 1.00000e+00 
 1.00000e+00 
 1.00000e+00 
 1.00000e+00 
 1.00000e+00 
 1.00000e+00 
 1.00000e+00 
 1.00000e+00 
 1.00000e+00 
 1.00000e+00 
 1.00000e+00 
 1.00000e+00 
 7.05048e-01 
 6.81557e-01 
 6.38660e-16 
 1.00000e+00 
 7.16872e-01 
 1.00000e+00 
       00001 
 1.00000e+00 
 1.00000e+00 
 1.00000e+00 
 1.00000e+00 
 1.00000e+00 
 1.00000e+00 
 1.00000e+00 
 1.00000e+00 
 1.00000e+00 
 1.00000e+00 
 1.00000e+00 
 1.00000e+00 
 1.00000e+00 
 1.00000e+00 
 1.00000e+00 
 1.00000e+00 
 1.00000e+00 
 1.00000e+00 
 1.00000e+00 
 1.00000e+00 
 1.00000e+00 
       00001 
       00001 
 1.00000e+00 
 1.00000e+00 
 7.02958e-01 
 1.00000e+00 
 1.00000e+00 
       00001 
       00001 
 1.00000e+00 
 1.00000e+00 
 1.00000e+00 
       00001 
 1.00000e+00 
 1.00000e+00 
 1.00000e+00 
 1.00000e+00 
 1.00000e+00 
 1.00000e+00 
 1.00000e+00 
 1.00000e+00 
 1.00000e+00 
 1.00000e+00 
 1.00000e+00 
 1.00000e+00 
 1.00000e+00 
 1.00000e+00 
 1.00000e+00 
 1.00000e+00 
 1.00000e+00 
 1.00000e+00 
 1.00000e+00 
 1.00000e+00 
 1.00000e+00 
 1.00000e+00 
 1.00000e+00 
       00001 
 1.00000e+00 
 1.00000e+00 
 1.00000e+00 
 1.00000e+00 
 1.00000e+00 
 1.00000e+00 
       00001 
 1.00000e+00 
 1.00000e+00 
 1.00000e+00 
 1.00000e+00 
 1.00000e+00 
 1.00000e+00 
 1.00000e+00 
       00001 
 1.00000e+00 
 1.00000e+00 
 1.00000e+00 
 1.00000e+00 
 1.00000e+00 
       00001 
 1.00000e+00 
 1.00000e+00 
 1.00000e+00 
 1.00000e+00 
 1.00000e+00 
 1.00000e+00 
       00001 
 1.00000e+00 
 1.00000e+00 
       00001 
 1.00000e+00 
 1.00000e+00 
 1.00000e+00 
 1.00000e+00 
 1.00000e+00 
       00001 
 1.00000e+00 
 1.00000e+00 
 1.00000e+00 
 1.00000e+00 
 1.00000e+00 
 1.00000e+00 
 1.00000e+00 
 1.00000e+00 
 1.00000e+00 
 1.00000e+00 
 1.00000e+00 
 1.00000e+00 
       00001 
 1.00000e+00 
 1.00000e+00 
 1.00000e+00 
 1.00000e+00 
 1.00000e+00 
 1.00000e+00 
 1.00000e+00 
 1.00000e+00 
 1.00000e+00 
 1.00000e+00 
 1.00000e+00 
 1.00000e+00 
       00001 
 1.00000e+00 
 1.00000e+00 
 1.00000e+00 
 1.00000e+00 
 1.00000e+00 
 1.00000e+00 
 1.00000e+00 
 1.00000e+00 
 1.00000e+00 
 1.00000e+00 
 1.00000e+00 
 1.00000e+00 
 1.00000e+00 
 1.00000e+00 
 1.00000e+00 
       00001 
 1.00000e+00 
 1.00000e+00 
 1.00000e+00 
 1.00000e+00 
 1.00000e+00 
 1.00000e+00 
 1.00000e+00 
 1.00000e+00 
 1.00000e+00 
 1.00000e+00 
 1.00000e+00 
 1.00000e+00 
 1.00000e+00 
 1.00000e+00 
 1.00000e+00 
 1.00000e+00 
 1.00000e+00 
 1.00000e+00 
 1.00000e+00 
 1.00000e+00 
 1.00000e+00 
 1.00000e+00 
 1.00000e+00 
 1.00000e+00 
 1.00000e+00 
 1.00000e+00 
 1.00000e+00 
 1.00000e+00 
 1.00000e+00 
 1.00000e+00 
 1.00000e+00 
       00001 
       00001 
 1.00000e+00 
       00001 
 1.00000e+00 
 1.00000e+00 
 1.00000e+00 
 1.00000e+00 
 1.00000e+00 
       00001 
 1.00000e+00 
 1.00000e+00 
 1.00000e+00 
 1.00000e+00 
 1.00000e+00 
 1.00000e+00 
 1.00000e+00 
 1.00000e+00 
 1.00000e+00 
 1.00000e+00 
       00001 
 1.00000e+00 
 1.00000e+00 
 1.00000e+00 
 1.00000e+00 
 1.00000e+00 
 1.00000e+00 
 1.00000e+00 
 1.00000e+00 
 1.00000e+00 
 1.00000e+00 
 1.00000e+00 
 1.00000e+00 
 1.00000e+00 
 1.00000e+00 
 1.00000e+00 
 1.00000e+00 
 1.00000e+00 
 1.00000e+00 
       00001 
 1.00000e+00 
       00001 
 1.00000e+00 
 1.00000e+00 
 1.00000e+00 
 1.00000e+00 
 1.00000e+00 
 1.00000e+00 
 1.00000e+00 
 1.00000e+00 
 1.00000e+00 
       00001 
 1.00000e+00 
       00001 
 1.00000e+00 
 1.00000e+00 
 1.00000e+00 
 1.00000e+00 
 1.00000e+00 
 1.00000e+00 
 1.00000e+00 
       00001 
 1.00000e+00 
 1.00000e+00 
 1.00000e+00 
 1.00000e+00 
 1.00000e+00 
 1.00000e+00 
 1.00000e+00 
 1.00000e+00 
 1.00000e+00 
 1.00000e+00 
 1.00000e+00 
 1.00000e+00 
 1.00000e+00 
 1.00000e+00 
 1.00000e+00 
 1.00000e+00 
 1.00000e+00 
 1.00000e+00 
 1.00000e+00 
       00001 
 1.00000e+00 
 1.00000e+00 
 1.00000e+00 
 1.00000e+00 
 1.00000e+00 
 1.00000e+00 
 1.00000e+00 
 1.00000e+00 
 1.00000e+00 
       00001 
 1.00000e+00 
 1.00000e+00 
 1.00000e+00 
 1.00000e+00 
 1.00000e+00 
 1.00000e+00 
 1.00000e+00 
       00001 
 1.00000e+00 
 1.00000e+00 
 1.00000e+00 
 1.00000e+00 
 1.00000e+00 
 1.00000e+00 
 1.00000e+00 
 1.00000e+00 
 1.00000e+00 
 1.00000e+00 
 1.00000e+00 
 1.00000e+00 
 1.00000e+00 
 1.00000e+00 
 1.00000e+00 
 1.00000e+00 
 1.00000e+00 
       00001 
 1.00000e+00 
 1.00000e+00 
 1.00000e+00 
 1.00000e+00 
 1.00000e+00 
 1.00000e+00 
 1.00000e+00 
 1.00000e+00 
 1.00000e+00 
 1.00000e+00 
       00001 
 1.00000e+00 
 1.00000e+00 
 1.00000e+00 
       00001 
 1.00000e+00 
       00001 
 1.00000e+00 
 1.00000e+00 
 1.00000e+00 
 1.00000e+00 
 1.00000e+00 
 1.00000e+00 
       00001 
 1.00000e+00 
 1.00000e+00 
 1.00000e+00 
 1.00000e+00 
 1.00000e+00 
 1.00000e+00 
 1.00000e+00 
 1.00000e+00 
 1.00000e+00 
 1.00000e+00 
 1.00000e+00 
 1.00000e+00 
 1.00000e+00 
 1.00000e+00 
 1.00000e+00 
 1.00000e+00 
 1.00000e+00 
 1.00000e+00 
 1.00000e+00 
       00001 
 1.00000e+00 
       00001 
 1.00000e+00 
 1.00000e+00 
 1.00000e+00 
 1.00000e+00 
 1.00000e+00 
       00001 
 1.00000e+00 
 1.00000e+00 
 1.00000e+00 
 1.00000e+00 
 1.00000e+00 
 1.00000e+00 
 1.00000e+00 
 1.00000e+00 
 1.00000e+00 
 1.00000e+00 
       00001 
 1.00000e+00 
 1.00000e+00 
 1.00000e+00 
 1.00000e+00 
 1.00000e+00 
       00001 
 1.00000e+00 
 1.00000e+00 
 1.00000e+00 
 1.00000e+00 
 1.00000e+00 
 1.00000e+00 
 1.00000e+00 
       00001 
 1.00000e+00 
 1.00000e+00 
 1.00000e+00 
 1.00000e+00 
       00001 
 1.00000e+00 
 1.00000e+00 
 1.00000e+00 
       00001 
 1.00000e+00 
 1.00000e+00 
 1.00000e+00 
 1.00000e+00 
 1.00000e+00 
 1.00000e+00 
       00001 
 1.00000e+00 
 1.00000e+00 
 1.00000e+00 
 1.00000e+00 
       00001 
 1.00000e+00 
 1.00000e+00 
 1.00000e+00 
 1.00000e+00 
 1.00000e+00 
 1.00000e+00 
 1.00000e+00 
       00001 
 1.00000e+00 
 1.00000e+00 
 1.00000e+00 
 1.00000e+00 
 1.00000e+00 
 1.00000e+00 
 1.00000e+00 
 1.00000e+00 
 1.00000e+00 
 1.00000e+00 
 1.00000e+00 
 1.00000e+00 
       00001 
 1.00000e+00 
 1.00000e+00 
 1.00000e+00 
 1.00000e+00 
 1.00000e+00 
 1.00000e+00 
 1.00000e+00 
 1.00000e+00 
 1.00000e+00 
 1.00000e+00 
 1.00000e+00 
 1.00000e+00 
 1.00000e+00 
 1.00000e+00 
 1.00000e+00 
 1.00000e+00 
 1.00000e+00 
 1.00000e+00 
 1.00000e+00 
 1.00000e+00 
 1.00000e+00 
 1.00000e+00 
 1.00000e+00 
 1.00000e+00 
 1.00000e+00 
 1.00000e+00 
 1.00000e+00 
       00001 
 1.00000e+00 
 1.00000e+00 
 1.00000e+00 
 1.00000e+00 
 1.00000e+00 
 1.00000e+00 
 1.00000e+00 
 1.00000e+00 
 1.00000e+00 
 1.00000e+00 
 1.00000e+00 
 1.00000e+00 
 1.00000e+00 
       00001 
       00001 
       00001 
 1.00000e+00 
 1.00000e+00 
       00001 
       00001 
       00001 
       00001 
 1.00000e+00 
 1.00000e+00 
 1.00000e+00 
 1.00000e+00 
 1.00000e+00 
 1.00000e+00 
 1.00000e+00 
 1.00000e+00 
 1.00000e+00 
 1.00000e+00 
 1.00000e+00 
 1.00000e+00 
 1.00000e+00 
 1.00000e+00 
 1.00000e+00 
 1.00000e+00 
 1.00000e+00 
 1.00000e+00 
 1.00000e+00 
 1.00000e+00 
 1.00000e+00 
 1.00000e+00 
       00001 
 1.00000e+00 
 1.00000e+00 
 1.00000e+00 
 1.00000e+00 
       00001 
 1.00000e+00 
       00001 
 1.00000e+00 
 1.00000e+00 
 1.00000e+00 
 1.00000e+00 
 1.00000e+00 
       00001 
       00001 
 1.00000e+00 
       00001 
 1.00000e+00 
       00001 
 1.00000e+00 
 1.00000e+00 
 1.00000e+00 
 1.00000e+00 
 1.00000e+00 
 1.00000e+00 
 1.00000e+00 
 1.00000e+00 
 1.00000e+00 
 1.00000e+00 
 1.00000e+00 
 1.00000e+00 
       00001 
 1.00000e+00 
 1.00000e+00 
 1.00000e+00 
 1.00000e+00 
 1.00000e+00 
       00001 
 1.00000e+00 
 1.00000e+00 
 1.00000e+00 
 1.00000e+00 
 1.00000e+00 
 1.00000e+00 
 1.00000e+00 
 1.00000e+00 
 1.00000e+00 
 1.00000e+00 
 1.00000e+00 
 1.00000e+00 
 1.00000e+00 
 1.00000e+00 
 1.00000e+00 
 1.00000e+00 
 1.00000e+00 
       00001 
 1.00000e+00 
       00001 
       00001 
 1.00000e+00 
 1.00000e+00 
 1.00000e+00 
 1.00000e+00 
 1.00000e+00 
 1.00000e+00 
 1.00000e+00 
 1.00000e+00 
 1.00000e+00 
 1.00000e+00 
 1.00000e+00 
 1.00000e+00 
 1.00000e+00 
 1.00000e+00 
 1.00000e+00 
 1.00000e+00 
 1.00000e+00 
 1.00000e+00 
 1.00000e+00 
 1.00000e+00 
 1.00000e+00 
 1.00000e+00 
 1.00000e+00 
 1.00000e+00 
 1.00000e+00 
 1.00000e+00 
 1.00000e+00 
 1.00000e+00 
 1.00000e+00 
 1.00000e+00 
 1.00000e+00 
 1.00000e+00 
 1.00000e+00 
 1.00000e+00 
 1.00000e+00 
 1.00000e+00 
 1.00000e+00 
 1.00000e+00 
 1.00000e+00 
 1.00000e+00 
 1.00000e+00 
 1.00000e+00 
 1.00000e+00 
 1.00000e+00 
 1.00000e+00 
 1.00000e+00 
 1.00000e+00 
 1.00000e+00 
       00001 
       00001 
       00001 
 1.00000e+00 
 1.00000e+00 
 1.00000e+00 
 1.00000e+00 
 1.00000e+00 
 1.00000e+00 
 1.00000e+00 
 1.00000e+00 
 1.00000e+00 
 1.00000e+00 
 1.00000e+00 
 1.00000e+00 
 1.00000e+00 
 1.00000e+00 
 1.00000e+00 
 1.00000e+00 
 1.00000e+00 
 1.00000e+00 
 1.00000e+00 
 1.00000e+00 
 1.00000e+00 
 1.00000e+00 
 1.00000e+00 
 1.00000e+00 
 1.00000e+00 
 1.00000e+00 
 1.00000e+00 
 1.00000e+00 
 1.00000e+00 
 1.00000e+00 
 1.00000e+00 
 1.00000e+00 
 1.00000e+00 
       00001 
 1.00000e+00 
 1.00000e+00 
 1.00000e+00 
       00001 
 1.00000e+00 
 1.00000e+00 
 1.00000e+00 
 1.00000e+00 
 1.00000e+00 
       00001 
 1.00000e+00 
 1.00000e+00 
 1.00000e+00 
 1.00000e+00 
 1.00000e+00 
       00001 
 1.00000e+00 
 1.00000e+00 
 1.00000e+00 
 1.00000e+00 
 1.00000e+00 
 1.00000e+00 
 1.00000e+00 
 1.00000e+00 
 1.00000e+00 
 1.00000e+00 
 1.00000e+00 
 1.00000e+00 
 1.00000e+00 
 1.00000e+00 
       00001 
 1.00000e+00 
 1.00000e+00 
 1.00000e+00 
       00001 
 1.00000e+00 
       00001 
 1.00000e+00 
 1.00000e+00 
 1.00000e+00 
 1.00000e+00 
 1.00000e+00 
 1.00000e+00 
 1.00000e+00 
       00001 
 1.00000e+00 
       00001 
 1.00000e+00 
 1.00000e+00 
 1.00000e+00 
 1.00000e+00 
 1.00000e+00 
 1.00000e+00 
 1.00000e+00 
 1.00000e+00 
 1.00000e+00 
 1.00000e+00 
 1.00000e+00 
 1.00000e+00 
 1.00000e+00 
 1.00000e+00 
 1.00000e+00 
 1.00000e+00 
 1.00000e+00 
 1.00000e+00 
       00001 
 1.00000e+00 
       00001 
 1.00000e+00 
 1.00000e+00 
       00001 
 1.00000e+00 
 1.00000e+00 
 1.00000e+00 
       00001 
 1.00000e+00 
 1.00000e+00 
 1.00000e+00 
       00001 
 1.00000e+00 
 1.00000e+00 
 1.00000e+00 
 1.00000e+00 
 1.00000e+00 
 1.00000e+00 
       00001 
 1.00000e+00 
 1.00000e+00 
 1.00000e+00 
 1.00000e+00 
 1.00000e+00 
 1.00000e+00 
 1.00000e+00 
 1.00000e+00 
 1.00000e+00 
 1.00000e+00 
 1.00000e+00 
 1.00000e+00 
 1.00000e+00 
 1.00000e+00 
 1.00000e+00 
 1.00000e+00 
 1.00000e+00 
 1.00000e+00 
 1.00000e+00 
 1.00000e+00 
 1.00000e+00 
 1.00000e+00 
 1.00000e+00 
 1.00000e+00 
 1.00000e+00 
 1.00000e+00 
 1.00000e+00 
 1.00000e+00 
 1.00000e+00 
 1.00000e+00 
 1.00000e+00 
 1.00000e+00 
 1.00000e+00 
 1.00000e+00 
 1.00000e+00 
 1.00000e+00 
 1.00000e+00 
 1.00000e+00 
 1.00000e+00 
 1.00000e+00 
 1.00000e+00 
 1.00000e+00 
 1.00000e+00 
 1.00000e+00 
 1.00000e+00 
 1.00000e+00 
 1.00000e+00 
 1.00000e+00 
 1.00000e+00 
 1.00000e+00 
 1.00000e+00 
 1.00000e+00 
       00001 
       00001 
 1.00000e+00 
 1.00000e+00 
 1.00000e+00 
 1.00000e+00 
 1.00000e+00 
 1.00000e+00 
 1.00000e+00 
 1.00000e+00 
 1.00000e+00 
 1.00000e+00 
       00001 
 1.00000e+00 
 1.00000e+00 
 1.00000e+00 
 1.00000e+00 
       00001 
       00001 
 1.00000e+00 
 1.00000e+00 
 1.00000e+00 
 1.00000e+00 
 1.00000e+00 
 1.00000e+00 
 1.00000e+00 
 1.00000e+00 
 1.00000e+00 
 1.00000e+00 
 1.00000e+00 
 1.00000e+00 
 1.00000e+00 
 1.00000e+00 
 1.00000e+00 
 1.00000e+00 
 1.00000e+00 
 1.00000e+00 
 1.00000e+00 
 1.00000e+00 
 1.00000e+00 
 1.00000e+00 
 1.00000e+00 
 1.00000e+00 
 1.00000e+00 
 7.05048e-01 
 1.00000e+00 
       00001 
 1.00000e+00 
 1.00000e+00 
 1.00000e+00 
       00001 
 1.00000e+00 
 1.00000e+00 
 1.00000e+00 
 1.00000e+00 
       00001 
 1.00000e+00 
 1.00000e+00 
 1.00000e+00 
 1.00000e+00 
 1.00000e+00 
 1.00000e+00 
 1.00000e+00 
 1.00000e+00 
 1.00000e+00 
 1.00000e+00 
       00001 
       00001 
 1.00000e+00 
 1.00000e+00 
 1.00000e+00 
 1.00000e+00 
 7.19595e-01 
 1.00000e+00 
-4.98742e-16 
 6.81557e-01 
 7.02958e-01 
 1.00000e+00 
 1.00000e+00 
 1.00000e+00 
 1.00000e+00 
 1.00000e+00 
 1.00000e+00 
 1.00000e+00 
 1.00000e+00 
 1.00000e+00 
 1.00000e+00 
 1.00000e+00 
 1.00000e+00 
 1.00000e+00 
 1.00000e+00 
 1.00000e+00 
 1.00000e+00 
 1.00000e+00 
 1.00000e+00 
 1.00000e+00 
 1.00000e+00 
 1.00000e+00 
 1.00000e+00 
 1.00000e+00 
 1.00000e+00 
 1.00000e+00 
 7.19595e-01 
 6.50546e-01 
-1.27983e-15 
 3.48280e-16 
-4.16545e-17 
 1.00000e+00 
 1.00000e+00 
 1.00000e+00 
 1.00000e+00 
       00001 
 1.00000e+00 
 1.00000e+00 
 1.00000e+00 
 1.00000e+00 
 1.00000e+00 
 1.00000e+00 
 1.00000e+00 
 1.00000e+00 
 1.00000e+00 
 1.00000e+00 
 1.00000e+00 
 1.00000e+00 
 1.00000e+00 
 1.00000e+00 
 1.00000e+00 
 1.00000e+00 
 1.00000e+00 
 1.00000e+00 
 1.00000e+00 
 1.00000e+00 
 1.00000e+00 
 1.00000e+00 
-4.49666e-16 
 9.09211e-16 
-1.08017e-15 
 6.69003e-01 
 7.16872e-01 
 1.00000e+00 
 1.00000e+00 
 1.00000e+00 
 1.00000e+00 
 1.00000e+00 
 1.00000e+00 
 1.00000e+00 
 1.00000e+00 
 1.00000e+00 
 1.00000e+00 
 1.00000e+00 
 1.00000e+00 
 1.00000e+00 
 1.00000e+00 
 1.00000e+00 
 1.00000e+00 
 1.00000e+00 
 1.00000e+00 
 1.00000e+00 
 1.00000e+00 
 1.00000e+00 
 1.00000e+00 
 1.00000e+00 
 1.00000e+00 
 1.00000e+00 
 7.05048e-01 
 6.81558e-01 
 6.21242e-16 
 6.69003e-01 
 1.00000e+00 
 9.21953e-01 
 7.81661e-01 
 8.55582e-01 
 9.75328e-01 
 1.00000e+00 
 1.00000e+00 
 1.00000e+00 
 1.00000e+00 
 1.00000e+00 
 1.00000e+00 
 1.00000e+00 
 1.00000e+00 
 1.00000e+00 
 1.00000e+00 
 1.00000e+00 
 1.00000e+00 
 1.00000e+00 
 1.00000e+00 
 1.00000e+00 
       00001 
 1.00000e+00 
 1.00000e+00 
 1.00000e+00 
 9.77384e-01 
 8.48376e-01 
 7.87450e-01 
 9.27920e-01 
 1.00000e+00 
 6.50545e-01 
 7.16872e-01 
 9.21953e-01 
 5.02022e-16 
-5.98272e-16 
-8.71026e-17 
 3.05995e-17 
-2.88815e-16 
-1.39673e-16 
 3.81726e-16 
-5.27500e-16 
-3.57443e-16 
 6.06549e-16 
 3.51370e-03 
-1.00404e-17 
 6.83602e-03 
-1.13115e-15 
 4.85807e-03 
-8.98766e-16 
 7.47047e-16 
-5.62273e-16 
 9.54457e-18 
-4.92121e-16 
 6.70743e-16 
-8.92624e-16 
-4.80079e-16 
 2.23223e-16 
-5.02521e-16 
 6.35784e-16 
-2.97751e-16 
 9.27318e-01 
 7.19595e-01 
 1.00000e+00 
 7.81661e-01 
-5.72840e-16 
 2.29879e-01 
 1.51763e-01 
 1.42806e-01 
 2.16263e-01 
 1.17478e-01 
 2.53603e-01 
 1.00942e-01 
 2.83269e-01 
 8.49779e-02 
 3.06165e-01 
 7.47922e-02 
 3.11389e-01 
 8.09320e-02 
 2.92582e-01 
 1.07773e-01 
 2.49435e-01 
 1.51335e-01 
 2.03222e-01 
 1.84304e-01 
 1.81063e-01 
 1.85734e-01 
 1.74452e-01 
 1.79341e-01 
 1.41783e-01 
 2.41634e-01 
-2.38360e-16 
 7.85921e-01 
 1.00000e+00 
 1.00000e+00 
 8.55582e-01 
 2.39626e-18 
 1.51763e-01 
 3.12509e-01 
 8.67075e-02 
 3.81361e-01 
 9.55165e-02 
 3.72348e-01 
 9.56027e-02 
 3.81056e-01 
 7.09270e-02 
 3.98075e-01 
 5.14212e-02 
 4.01190e-01 
 5.80504e-02 
 3.77847e-01 
 1.05279e-01 
 3.26390e-01 
 1.73269e-01 
 2.68729e-01 
 2.07721e-01 
 2.61589e-01 
 1.68978e-01 
 3.07630e-01 
 1.04438e-01 
 2.73781e-01 
 1.42091e-01 
 9.86607e-16 
 8.47509e-01 
 1.00000e+00 
 1.00000e+00 
 9.75328e-01 
-4.22961e-16 
 1.42806e-01 
 8.67075e-02 
 3.84073e-03 
 1.41827e-01 
-4.55770e-16 
 1.62942e-01 
-1.29714e-15 
 1.74401e-01 
-1.03373e-16 
 1.86882e-01 
 2.67065e-16 
 1.96181e-01 
-5.28975e-16 
 1.94782e-01 
-2.63713e-16 
 1.71867e-01 
 1.30546e-02 
 1.36920e-01 
 4.64625e-02 
 1.25751e-01 
 5.62782e-02 
 1.29195e-01 
 7.12327e-02 
 1.01003e-01 
 1.80151e-01 
-9.12190e-16 
 9.77986e-01 
 1.00000e+00 
 1.00000e+00 
 1.00000e+00 
 1.91457e-18 
 2.16263e-01 
 3.81361e-01 
 1.41827e-01 
 4.79173e-01 
 1.22447e-01 
 5.01587e-01 
 1.08982e-01 
 5.19437e-01 
 8.46650e-02 
 5.32190e-01 
 6.81294e-02 
 5.28130e-01 
 7.64706e-02 
 5.00247e-01 
 1.26911e-01 
 4.50511e-01 
 2.02457e-01 
 3.96857e-01 
 2.35028e-01 
 3.76747e-01 
 1.97699e-01 
 3.79428e-01 
 1.38268e-01 
 3.05932e-01 
 1.75823e-01 
-3.03849e-16 
 1.00000e+00 
 1.00000e+00 
 1.00000e+00 
 1.00000e+00 
-2.74461e-16 
 1.17478e-01 
 9.55164e-02 
 8.46060e-16 
 1.22447e-01 
-5.34952e-16 
 1.23259e-01 
-7.94569e-17 
 1.29235e-01 
 7.53477e-17 
 1.42042e-01 
 5.04148e-16 
 1.54879e-01 
-5.60565e-16 
 1.58518e-01 
-2.48666e-16 
 1.50640e-01 
-5.47217e-16 
 1.41915e-01 
 5.78053e-16 
 1.51548e-01 
 1.86484e-02 
 1.79386e-01 
 6.28064e-02 
 1.63300e-01 
 1.89441e-01 
 6.81335e-16 
 1.00000e+00 
 1.00000e+00 
 1.00000e+00 
 1.00000e+00 
-5.32720e-16 
 2.53604e-01 
 3.72348e-01 
 1.62942e-01 
 5.01587e-01 
 1.23259e-01 
 5.53025e-01 
 1.03342e-01 
 5.79152e-01 
 8.01990e-02 
 5.90443e-01 
 6.56091e-02 
 5.82244e-01 
 7.44009e-02 
 5.51581e-01 
 1.16405e-01 
 5.00364e-01 
 1.81546e-01 
 4.50419e-01 
 2.12697e-01 
 4.15619e-01 
 1.77844e-01 
 3.65770e-01 
 1.34353e-01 
 2.50553e-01 
 1.79577e-01 
-2.35205e-16 
 1.00000e+00 
 1.00000e+00 
 1.00000e+00 
 1.00000e+00 
 1.63940e-17 
 1.00942e-01 
 9.56024e-02 
 7.04743e-16 
 1.08982e-01 
-2.87971e-16 
 1.03342e-01 
-5.53958e-16 
 1.07369e-01 
 5.83240e-16 
 1.20644e-01 
-3.15738e-16 
 1.36106e-01 
-9.24465e-17 
 1.45260e-01 
 6.54880e-17 
 1.43969e-01 
 1.88358e-16 
 1.46577e-01 
 7.07770e-16 
 1.74386e-01 
 1.03624e-02 
 2.22101e-01 
 7.05005e-02 
 2.11699e-01 
 1.99241e-01 
-5.77375e-16 
 1.00000e+00 
 1.00000e+00 
 1.00000e+00 
 1.00000e+00 
-4.31518e-16 
 2.83270e-01 
 3.81057e-01 
 1.74402e-01 
 5.19438e-01 
 1.29236e-01 
 5.79152e-01 
 1.07370e-01 
 6.10904e-01 
 8.35101e-02 
 6.26308e-01 
 6.78829e-02 
 6.19151e-01 
 7.57654e-02 
 5.86631e-01 
 1.15411e-01 
 5.32581e-01 
 1.72570e-01 
 4.75777e-01 
 2.02905e-01 
 4.29141e-01 
 1.72566e-01 
 3.60869e-01 
 1.33710e-01 
 2.33529e-01 
 1.88475e-01 
 3.84222e-16 
 1.00000e+00 
 1.00000e+00 
 1.00000e+00 
 1.00000e+00 
 1.03219e-16 
 8.49777e-02 
 7.09265e-02 
-3.18452e-19 
 8.46645e-02 
 1.81473e-16 
 8.01985e-02 
 2.97179e-17 
 8.35095e-02 
 2.74068e-16 
 9.51339e-02 
-3.32420e-16 
 1.09911e-01 
-5.09667e-16 
 1.20140e-01 
 2.19938e-16 
 1.23572e-01 
 4.27798e-16 
 1.31461e-01 
 1.72704e-16 
 1.64602e-01 
 2.20228e-16 
 2.14570e-01 
 6.08745e-02 
 1.99948e-01 
 1.86332e-01 
-7.17586e-16 
 1.00000e+00 
 1.00000e+00 
 1.00000e+00 
 1.00000e+00 
 3.51370e-03 
 3.06165e-01 
 3.98076e-01 
 1.86882e-01 
 5.32190e-01 
 1.42043e-01 
 5.90443e-01 
 1.20645e-01 
 6.26308e-01 
 9.51348e-02 
 6.48277e-01 
 7.69276e-02 
 6.46080e-01 
 8.34749e-02 
 6.14551e-01 
 1.23097e-01 
 5.57210e-01 
 1.80937e-01 
 4.94228e-01 
 2.13327e-01 
 4.46340e-01 
 1.93139e-01 
 3.86915e-01 
 1.56394e-01 
 2.62641e-01 
 2.14887e-01 
 2.06788e-17 
 1.00000e+00 
 1.00000e+00 
 1.00000e+00 
 1.00000e+00 
-5.13062e-17 
 7.47917e-02 
 5.14205e-02 
 6.35505e-16 
 6.81286e-02 
-2.25365e-16 
 6.56084e-02 
-1.29642e-16 
 6.78821e-02 
-4.79879e-16 
 7.69263e-02 
-4.50302e-16 
 8.90869e-02 
-5.01753e-16 
 9.73265e-02 
 5.40699e-16 
 1.00585e-01 
 3.59883e-16 
 1.07437e-01 
 9.30739e-16 
 1.33598e-01 
-5.56773e-16 
 1.73689e-01 
 3.70617e-02 
 1.61210e-01 
 1.62370e-01 
-8.85709e-17 
 1.00000e+00 
 1.00000e+00 
 1.00000e+00 
 1.00000e+00 
 6.83599e-03 
 3.11390e-01 
 4.01190e-01 
 1.96182e-01 
 5.28131e-01 
 1.54879e-01 
 5.82244e-01 
 1.36107e-01 
 6.19151e-01 
 1.09912e-01 
 6.46080e-01 
 8.90887e-02 
 6.49380e-01 
 9.35885e-02 
 6.21583e-01 
 1.32683e-01 
 5.65388e-01 
 1.91929e-01 
 5.02621e-01 
 2.25737e-01 
 4.58345e-01 
 2.11359e-01 
 4.10814e-01 