<?xml version="1.0" encoding="utf-8"?>
<VTKFile byte_order="LittleEndian" type="UnstructuredGrid" version="0.1">
   <UnstructuredGrid>
      <Piece NumberOfCells="78804" NumberOfPoints="39701">
         <Points>
            <DataArray Name="Points" NumberOfComponents="3" format="ascii" type="Float32">
0.0000 0.0000 0.0000
0.0000 0.0101 0.0000
0.0000 0.0202 0.0000
0.0000 0.0303 0.0000
0.0000 0.0404 0.0000
0.0000 0.0505 0.0000
0.0000 0.0606 0.0000
0.0000 0.0707 0.0000
0.0000 0.0808 0.0000
0.0000 0.0909 0.0000
0.0000 0.1010 0.0000
0.0000 0.1111 0.0000
0.0000 0.1212 0.0000
0.0000 0.1313 0.0000
0.0000 0.1414 0.0000
0.0000 0.1515 0.0000
0.0000 0.1616 0.0000
0.0000 0.1717 0.0000
0.0000 0.1818 0.0000
0.0000 0.1919 0.0000
0.0000 0.2020 0.0000
0.0000 0.2121 0.0000
0.0000 0.2222 0.0000
0.0000 0.2323 0.0000
0.0000 0.2424 0.0000
0.0000 0.2525 0.0000
0.0000 0.2626 0.0000
0.0000 0.2727 0.0000
0.0000 0.2828 0.0000
0.0000 0.2929 0.0000
0.0000 0.3030 0.0000
0.0000 0.3131 0.0000
0.0000 0.3232 0.0000
0.0000 0.3333 0.0000
0.0000 0.3434 0.0000
0.0000 0.3535 0.0000
0.0000 0.3636 0.0000
0.0000 0.3737 0.0000
0.0000 0.3838 0.0000
0.0000 0.3939 0.0000
0.0000 0.4040 0.0000
0.0000 0.4141 0.0000
0.0000 0.4242 0.0000
0.0000 0.4343 0.0000
0.0000 0.4444 0.0000
0.0000 0.4545 0.0000
0.0000 0.4646 0.0000
0.0000 0.4747 0.0000
0.0000 0.4848 0.0000
0.0000 0.4949 0.0000
0.0000 0.5051 0.0000
0.0000 0.5152 0.0000
0.0000 0.5253 0.0000
0.0000 0.5354 0.0000
0.0000 0.5455 0.0000
0.0000 0.5556 0.0000
0.0000 0.5657 0.0000
0.0000 0.5758 0.0000
0.0000 0.5859 0.0000
0.0000 0.5960 0.0000
0.0000 0.6061 0.0000
0.0000 0.6162 0.0000
0.0000 0.6263 0.0000
0.0000 0.6364 0.0000
0.0000 0.6465 0.0000
0.0000 0.6566 0.0000
0.0000 0.6667 0.0000
0.0000 0.6768 0.0000
0.0000 0.6869 0.0000
0.0000 0.6970 0.0000
0.0000 0.7071 0.0000
0.0000 0.7172 0.0000
0.0000 0.7273 0.0000
0.0000 0.7374 0.0000
0.0000 0.7475 0.0000
0.0000 0.7576 0.0000
0.0000 0.7677 0.0000
0.0000 0.7778 0.0000
0.0000 0.7879 0.0000
0.0000 0.7980 0.0000
0.0000 0.8081 0.0000
0.0000 0.8182 0.0000
0.0000 0.8283 0.0000
0.0000 0.8384 0.0000
0.0000 0.8485 0.0000
0.0000 0.8586 0.0000
0.0000 0.8687 0.0000
0.0000 0.8788 0.0000
0.0000 0.8889 0.0000
0.0000 0.8990 0.0000
0.0000 0.9091 0.0000
0.0000 0.9192 0.0000
0.0000 0.9293 0.0000
0.0000 0.9394 0.0000
0.0000 0.9495 0.0000
0.0000 0.9596 0.0000
0.0000 0.9697 0.0000
0.0000 0.9798 0.0000
0.0000 0.9899 0.0000
0.0000 1.0000 0.0000
0.0101 0.0000 0.0000
0.0101 0.0101 0.0000
0.0101 0.0202 0.0000
0.0101 0.0303 0.0000
0.0101 0.0404 0.0000
0.0101 0.0505 0.0000
0.0101 0.0606 0.0000
0.0101 0.0707 0.0000
0.0101 0.0808 0.0000
0.0101 0.0909 0.0000
0.0101 0.1010 0.0000
0.0101 0.1111 0.0000
0.0101 0.1212 0.0000
0.0101 0.1313 0.0000
0.0101 0.1414 0.0000
0.0101 0.1515 0.0000
0.0101 0.1616 0.0000
0.0101 0.1717 0.0000
0.0101 0.1818 0.0000
0.0101 0.1919 0.0000
0.0101 0.2020 0.0000
0.0101 0.2121 0.0000
0.0101 0.2222 0.0000
0.0101 0.2323 0.0000
0.0101 0.2424 0.0000
0.0101 0.2525 0.0000
0.0101 0.2626 0.0000
0.0101 0.2727 0.0000
0.0101 0.2828 0.0000
0.0101 0.2929 0.0000
0.0101 0.3030 0.0000
0.0101 0.3131 0.0000
0.0101 0.3232 0.0000
0.0101 0.3333 0.0000
0.0101 0.3434 0.0000
0.0101 0.3535 0.0000
0.0101 0.3636 0.0000
0.0101 0.3737 0.0000
0.0101 0.3838 0.0000
0.0101 0.3939 0.0000
0.0101 0.4040 0.0000
0.0101 0.4141 0.0000
0.0101 0.4242 0.0000
0.0101 0.4343 0.0000
0.0101 0.4444 0.0000
0.0101 0.4545 0.0000
0.0101 0.4646 0.0000
0.0101 0.4747 0.0000
0.0101 0.4848 0.0000
0.0101 0.4949 0.0000
0.0101 0.5051 0.0000
0.0101 0.5152 0.0000
0.0101 0.5253 0.0000
0.0101 0.5354 0.0000
0.0101 0.5455 0.0000
0.0101 0.5556 0.0000
0.0101 0.5657 0.0000
0.0101 0.5758 0.0000
0.0101 0.5859 0.0000
0.0101 0.5960 0.0000
0.0101 0.6061 0.0000
0.0101 0.6162 0.0000
0.0101 0.6263 0.0000
0.0101 0.6364 0.0000
0.0101 0.6465 0.0000
0.0101 0.6566 0.0000
0.0101 0.6667 0.0000
0.0101 0.6768 0.0000
0.0101 0.6869 0.0000
0.0101 0.6970 0.0000
0.0101 0.7071 0.0000
0.0101 0.7172 0.0000
0.0101 0.7273 0.0000
0.0101 0.7374 0.0000
0.0101 0.7475 0.0000
0.0101 0.7576 0.0000
0.0101 0.7677 0.0000
0.0101 0.7778 0.0000
0.0101 0.7879 0.0000
0.0101 0.7980 0.0000
0.0101 0.8081 0.0000
0.0101 0.8182 0.0000
0.0101 0.8283 0.0000
0.0101 0.8384 0.0000
0.0101 0.8485 0.0000
0.0101 0.8586 0.0000
0.0101 0.8687 0.0000
0.0101 0.8788 0.0000
0.0101 0.8889 0.0000
0.0101 0.8990 0.0000
0.0101 0.9091 0.0000
0.0101 0.9192 0.0000
0.0101 0.9293 0.0000
0.0101 0.9394 0.0000
0.0101 0.9495 0.0000
0.0101 0.9596 0.0000
0.0101 0.9697 0.0000
0.0101 0.9798 0.0000
0.0101 0.9899 0.0000
0.0101 1.0000 0.0000
0.0201 0.0000 0.0000
0.0201 0.0101 0.0000
0.0201 0.0202 0.0000
0.0201 0.0303 0.0000
0.0201 0.0404 0.0000
0.0201 0.0505 0.0000
0.0201 0.0606 0.0000
0.0201 0.0707 0.0000
0.0201 0.0808 0.0000
0.0201 0.0909 0.0000
0.0201 0.1010 0.0000
0.0201 0.1111 0.0000
0.0201 0.1212 0.0000
0.0201 0.1313 0.0000
0.0201 0.1414 0.0000
0.0201 0.1515 0.0000
0.0201 0.1616 0.0000
0.0201 0.1717 0.0000
0.0201 0.1818 0.0000
0.0201 0.1919 0.0000
0.0201 0.2020 0.0000
0.0201 0.2121 0.0000
0.0201 0.2222 0.0000
0.0201 0.2323 0.0000
0.0201 0.2424 0.0000
0.0201 0.2525 0.0000
0.0201 0.2626 0.0000
0.0201 0.2727 0.0000
0.0201 0.2828 0.0000
0.0201 0.2929 0.0000
0.0201 0.3030 0.0000
0.0201 0.3131 0.0000
0.0201 0.3232 0.0000
0.0201 0.3333 0.0000
0.0201 0.3434 0.0000
0.0201 0.3535 0.0000
0.0201 0.3636 0.0000
0.0201 0.3737 0.0000
0.0201 0.3838 0.0000
0.0201 0.3939 0.0000
0.0201 0.4040 0.0000
0.0201 0.4141 0.0000
0.0201 0.4242 0.0000
0.0201 0.4343 0.0000
0.0201 0.4444 0.0000
0.0201 0.4545 0.0000
0.0201 0.4646 0.0000
0.0201 0.4747 0.0000
0.0201 0.4848 0.0000
0.0201 0.4949 0.0000
0.0201 0.5051 0.0000
0.0201 0.5152 0.0000
0.0201 0.5253 0.0000
0.0201 0.5354 0.0000
0.0201 0.5455 0.0000
0.0201 0.5556 0.0000
0.0201 0.5657 0.0000
0.0201 0.5758 0.0000
0.0201 0.5859 0.0000
0.0201 0.5960 0.0000
0.0201 0.6061 0.0000
0.0201 0.6162 0.0000
0.0201 0.6263 0.0000
0.0201 0.6364 0.0000
0.0201 0.6465 0.0000
0.0201 0.6566 0.0000
0.0201 0.6667 0.0000
0.0201 0.6768 0.0000
0.0201 0.6869 0.0000
0.0201 0.6970 0.0000
0.0201 0.7071 0.0000
0.0201 0.7172 0.0000
0.0201 0.7273 0.0000
0.0201 0.7374 0.0000
0.0201 0.7475 0.0000
0.0201 0.7576 0.0000
0.0201 0.7677 0.0000
0.0201 0.7778 0.0000
0.0201 0.7879 0.0000
0.0201 0.7980 0.0000
0.0201 0.8081 0.0000
0.0201 0.8182 0.0000
0.0201 0.8283 0.0000
0.0201 0.8384 0.0000
0.0201 0.8485 0.0000
0.0201 0.8586 0.0000
0.0201 0.8687 0.0000
0.0201 0.8788 0.0000
0.0201 0.8889 0.0000
0.0201 0.8990 0.0000
0.0201 0.9091 0.0000
0.0201 0.9192 0.0000
0.0201 0.9293 0.0000
0.0201 0.9394 0.0000
0.0201 0.9495 0.0000
0.0201 0.9596 0.0000
0.0201 0.9697 0.0000
0.0201 0.9798 0.0000
0.0201 0.9899 0.0000
0.0201 1.0000 0.0000
0.0302 0.0000 0.0000
0.0302 0.0101 0.0000
0.0302 0.0202 0.0000
0.0302 0.0303 0.0000
0.0302 0.0404 0.0000
0.0302 0.0505 0.0000
0.0302 0.0606 0.0000
0.0302 0.0707 0.0000
0.0302 0.0808 0.0000
0.0302 0.0909 0.0000
0.0302 0.1010 0.0000
0.0302 0.1111 0.0000
0.0302 0.1212 0.0000
0.0302 0.1313 0.0000
0.0302 0.1414 0.0000
0.0302 0.1515 0.0000
0.0302 0.1616 0.0000
0.0302 0.1717 0.0000
0.0302 0.1818 0.0000
0.0302 0.1919 0.0000
0.0302 0.2020 0.0000
0.0302 0.2121 0.0000
0.0302 0.2222 0.0000
0.0302 0.2323 0.0000
0.0302 0.2424 0.0000
0.0302 0.2525 0.0000
0.0302 0.2626 0.0000
0.0302 0.2727 0.0000
0.0302 0.2828 0.0000
0.0302 0.2929 0.0000
0.0302 0.3030 0.0000
0.0302 0.3131 0.0000
0.0302 0.3232 0.0000
0.0302 0.3333 0.0000
0.0302 0.3434 0.0000
0.0302 0.3535 0.0000
0.0302 0.3636 0.0000
0.0302 0.3737 0.0000
0.0302 0.3838 0.0000
0.0302 0.3939 0.0000
0.0302 0.4040 0.0000
0.0302 0.4141 0.0000
0.0302 0.4242 0.0000
0.0302 0.4343 0.0000
0.0302 0.4444 0.0000
0.0302 0.4545 0.0000
0.0302 0.4646 0.0000
0.0302 0.4747 0.0000
0.0302 0.4848 0.0000
0.0302 0.4949 0.0000
0.0302 0.5051 0.0000
0.0302 0.5152 0.0000
0.0302 0.5253 0.0000
0.0302 0.5354 0.0000
0.0302 0.5455 0.0000
0.0302 0.5556 0.0000
0.0302 0.5657 0.0000
0.0302 0.5758 0.0000
0.0302 0.5859 0.0000
0.0302 0.5960 0.0000
0.0302 0.6061 0.0000
0.0302 0.6162 0.0000
0.0302 0.6263 0.0000
0.0302 0.6364 0.0000
0.0302 0.6465 0.0000
0.0302 0.6566 0.0000
0.0302 0.6667 0.0000
0.0302 0.6768 0.0000
0.0302 0.6869 0.0000
0.0302 0.6970 0.0000
0.0302 0.7071 0.0000
0.0302 0.7172 0.0000
0.0302 0.7273 0.0000
0.0302 0.7374 0.0000
0.0302 0.7475 0.0000
0.0302 0.7576 0.0000
0.0302 0.7677 0.0000
0.0302 0.7778 0.0000
0.0302 0.7879 0.0000
0.0302 0.7980 0.0000
0.0302 0.8081 0.0000
0.0302 0.8182 0.0000
0.0302 0.8283 0.0000
0.0302 0.8384 0.0000
0.0302 0.8485 0.0000
0.0302 0.8586 0.0000
0.0302 0.8687 0.0000
0.0302 0.8788 0.0000
0.0302 0.8889 0.0000
0.0302 0.8990 0.0000
0.0302 0.9091 0.0000
0.0302 0.9192 0.0000
0.0302 0.9293 0.0000
0.0302 0.9394 0.0000
0.0302 0.9495 0.0000
0.0302 0.9596 0.0000
0.0302 0.9697 0.0000
0.0302 0.9798 0.0000
0.0302 0.9899 0.0000
0.0302 1.0000 0.0000
0.0402 0.0000 0.0000
0.0402 0.0101 0.0000
0.0402 0.0202 0.0000
0.0402 0.0303 0.0000
0.0402 0.0404 0.0000
0.0402 0.0505 0.0000
0.0402 0.0606 0.0000
0.0402 0.0707 0.0000
0.0402 0.0808 0.0000
0.0402 0.0909 0.0000
0.0402 0.1010 0.0000
0.0402 0.1111 0.0000
0.0402 0.1212 0.0000
0.0402 0.1313 0.0000
0.0402 0.1414 0.0000
0.0402 0.1515 0.0000
0.0402 0.1616 0.0000
0.0402 0.1717 0.0000
0.0402 0.1818 0.0000
0.0402 0.1919 0.0000
0.0402 0.2020 0.0000
0.0402 0.2121 0.0000
0.0402 0.2222 0.0000
0.0402 0.2323 0.0000
0.0402 0.2424 0.0000
0.0402 0.2525 0.0000
0.0402 0.2626 0.0000
0.0402 0.2727 0.0000
0.0402 0.2828 0.0000
0.0402 0.2929 0.0000
0.0402 0.3030 0.0000
0.0402 0.3131 0.0000
0.0402 0.3232 0.0000
0.0402 0.3333 0.0000
0.0402 0.3434 0.0000
0.0402 0.3535 0.0000
0.0402 0.3636 0.0000
0.0402 0.3737 0.0000
0.0402 0.3838 0.0000
0.0402 0.3939 0.0000
0.0402 0.4040 0.0000
0.0402 0.4141 0.0000
0.0402 0.4242 0.0000
0.0402 0.4343 0.0000
0.0402 0.4444 0.0000
0.0402 0.4545 0.0000
0.0402 0.4646 0.0000
0.0402 0.4747 0.0000
0.0402 0.4848 0.0000
0.0402 0.4949 0.0000
0.0402 0.5051 0.0000
0.0402 0.5152 0.0000
0.0402 0.5253 0.0000
0.0402 0.5354 0.0000
0.0402 0.5455 0.0000
0.0402 0.5556 0.0000
0.0402 0.5657 0.0000
0.0402 0.5758 0.0000
0.0402 0.5859 0.0000
0.0402 0.5960 0.0000
0.0402 0.6061 0.0000
[...]
         <PointData>
            <DataArray Name="fValues" NumberOfComponents="1" format="ascii" type="Float64">
 1.00000e+00 
 1.00000e+00 
       00001 
 1.00000e+00 
 1.00000e+00 
 1.00000e+00 
 1.00000e+00 
 1.00000e+00 
 1.00000e+00 
 1.00000e+00 
 1.00000e+00 
 1.00000e+00 
 1.00000e+00 
 2.97373e-18 
-1.78041e-18 
-1.78248e-19 
 9.51874e-20 
-3.17986e-20 
 6.62079e-21 
-1.62935e-21 
 3.94360e-22 
-8.96223e-23 
 1.91621e-23 
-3.86446e-24 
 7.35497e-25 
-1.31695e-25 
 2.19270e-26 
-3.28669e-27 
 4.02588e-28 
-2.39416e-29 
-7.39588e-30 
 4.03713e-30 
-1.33214e-30 
 3.71725e-31 
-9.50322e-32 
 2.29881e-32 
-5.34877e-33 
 1.20873e-33 
-2.66978e-34 
 5.78945e-35 
-1.23672e-35 
 2.60929e-36 
-5.44892e-37 
 1.12821e-37 
-2.31936e-38 
 4.73960e-39 
-9.63605e-40 
 1.95042e-40 
-3.92948e-41 
 7.72231e-42 
-5.45752e-43 
-5.13833e-42 
 2.82910e-41 
-1.46685e-40 
 7.58357e-40 
-3.93095e-39 
 2.04830e-38 
-1.07395e-37 
 5.65998e-37 
-2.98907e-36 
 1.57430e-35 
-8.22596e-35 
 4.24649e-34 
-2.16129e-33 
 1.08438e-32 
-5.36815e-32 
 2.62412e-31 
-1.26604e-30 
 6.01319e-30 
-2.80119e-29 
 1.27370e-28 
-5.60611e-28 
 2.35845e-27 
-9.33128e-27 
 3.39956e-26 
-1.10815e-25 
 3.16035e-25 
-8.90772e-25 
 4.53166e-24 
-4.44105e-23 
 4.54117e-22 
-3.99711e-21 
 3.65726e-20 
-2.11335e-19 
 1.02875e-18 
-4.79961e-18 
-3.33434e-17 
 1.00000e+00 
       00001 
 1.00000e+00 
 1.00000e+00 
 1.00000e+00 
 1.00000e+00 
 1.00000e+00 
 1.00000e+00 
 1.00000e+00 
 1.00000e+00 
       00001 
 1.00000e+00 
 1.00000e+00 
 1.00000e+00 
 1.00000e+00 
 1.00000e+00 
       00001 
 1.00000e+00 
       00001 
 1.00000e+00 
 1.00000e+00 
 1.00000e+00 
 1.00000e+00 
       00001 
 1.00000e+00 
       00001 
-2.79963e-17 
-2.58067e-18 
 7.04636e-19 
-1.90761e-19 
 3.64186e-20 
-1.01557e-20 
 2.53324e-21 
-5.73583e-22 
 1.21664e-22 
-2.42789e-23 
 4.56087e-24 
-8.04247e-25 
 1.31439e-25 
-1.91725e-26 
 2.21276e-27 
-8.59758e-29 
-5.91110e-29 
 2.77639e-29 
-8.80804e-30 
 2.41180e-30 
-6.09470e-31 
 1.46229e-31 
-3.38108e-32 
 7.60168e-33 
-1.67180e-33 
 3.61185e-34 
-7.69059e-35 
 1.61803e-35 
-3.37063e-36 
 6.96421e-37 
-1.42911e-37 
 2.91590e-38 
-5.92056e-39 
 1.19707e-39 
-2.41125e-40 
 4.83662e-41 
-9.50481e-42 
 7.42332e-43 
 5.93293e-42 
-3.30678e-41 
 1.72182e-40 
-8.89512e-40 
 4.58816e-39 
-2.37261e-38 
 1.23396e-37 
-6.46526e-37 
 3.41106e-36 
-1.80693e-35 
 9.56040e-35 
-5.01966e-34 
 2.60201e-33 
-1.32835e-32 
 6.68020e-32 
-3.31397e-31 
 1.62444e-30 
-7.86875e-30 
 3.75447e-29 
-1.75825e-28 
 8.05369e-28 
-3.57617e-27 
 1.51686e-26 
-6.03705e-26 
 2.19882e-25 
-7.01243e-25 
 1.80054e-24 
-3.32079e-24 
 9.69981e-24 
-1.40378e-22 
 2.02566e-21 
-3.14946e-20 
 2.31670e-19 
-1.39854e-18 
 6.36280e-18 
-1.00307e-16 
 1.00000e+00 
 1.00000e+00 
 1.00000e+00 
 1.00000e+00 
 1.00000e+00 
       00001 
 1.00000e+00 
 1.00000e+00 
 1.00000e+00 
       00001 
 1.00000e+00 
 1.00000e+00 
 1.00000e+00 
 1.00000e+00 
 1.00000e+00 
 1.00000e+00 
 1.00000e+00 
 1.00000e+00 
 1.00000e+00 
 1.00000e+00 
       00001 
 1.00000e+00 
 1.00000e+00 
 1.00000e+00 
 1.00000e+00 
 1.00000e+00 
-1.10550e-16 
 1.00682e-17 
-2.51238e-18 
 4.22766e-19 
-1.00869e-19 
 2.65948e-20 
-5.72648e-21 
 1.15060e-21 
-2.15131e-22 
 3.72499e-23 
-5.91551e-24 
 8.30827e-25 
-8.99828e-26 
 1.85963e-27 
 3.01050e-27 
-1.30152e-27 
 4.02233e-28 
-1.08620e-28 
 2.71889e-29 
-6.47346e-30 
 1.48649e-30 
-3.32016e-31 
 7.25470e-32 
-1.55729e-32 
 3.29479e-33 
-6.88885e-34 
 1.42652e-34 
-2.93099e-35 
 5.98409e-36 
-1.21545e-36 
 2.45821e-37 
-4.95353e-38 
 9.94966e-39 
-1.99259e-39 
 3.97934e-40 
-7.91969e-41 
 1.53128e-41 
-1.49073e-42 
-8.32822e-42 
 4.82834e-41 
-2.56367e-40 
 1.33490e-39 
-6.86512e-39 
 3.50690e-38 
-1.79069e-37 
 9.20094e-37 
-4.78610e-36 
 2.52985e-35 
-1.35793e-34 
 7.35047e-34 
-3.96108e-33 
 2.10369e-32 
-1.09565e-31 
 5.60309e-31 
-2.82189e-30 
 1.40724e-29 
-6.97156e-29 
 3.40954e-28 
-1.64228e-27 
 7.81378e-27 
-3.63062e-26 
 1.61386e-25 
-6.73056e-25 
 2.55431e-24 
-8.17861e-24 
 1.68303e-23 
 2.62222e-23 
-5.27658e-22 
 4.00836e-21 
-1.17948e-21 
-1.32349e-19 
 1.87518e-18 
-1.50189e-17 
-1.17324e-17 
 1.00000e+00 
 1.00000e+00 
 1.00000e+00 
 1.00000e+00 
 1.00000e+00 
 1.00000e+00 
 1.00000e+00 
 1.00000e+00 
       00001 
 1.00000e+00 
 1.00000e+00 
       00001 
 1.00000e+00 
 1.00000e+00 
 1.00000e+00 
 1.00000e+00 
       00001 
       00001 
 1.00000e+00 
 1.00000e+00 
       00001 
 1.00000e+00 
 1.00000e+00 
 1.00000e+00 
 1.00000e+00 
 1.00000e+00 
       00001 
-1.99249e-17 
 4.57524e-18 
-1.30866e-18 
 3.34292e-19 
-6.29545e-20 
 1.19999e-20 
-2.10059e-21 
 3.30381e-22 
-4.54447e-23 
 4.84969e-24 
-1.23840e-25 
-1.45990e-25 
 6.40135e-26 
-1.98547e-26 
 5.37135e-27 
-1.34536e-27 
 3.20157e-28 
-7.34005e-29 
 1.63520e-29 
-3.56047e-30 
 7.60984e-31 
-1.60196e-31 
 3.33089e-32 
-6.85727e-33 
 1.40061e-33 
-2.84322e-34 
 5.74421e-35 
-1.15618e-35 
 2.32013e-36 
-4.64377e-37 
 9.27238e-38 
-1.84714e-38 
 3.67108e-39 
-7.27919e-40 
 1.43960e-40 
-2.78187e-41 
 3.42573e-42 
 1.19554e-41 
-7.49286e-41 
 4.16481e-40 
-2.23708e-39 
 1.17042e-38 
-5.99781e-38 
 3.02968e-37 
-1.52064e-36 
 7.66052e-36 
-3.91940e-35 
 2.05997e-34 
-1.11909e-33 
 6.24184e-33 
-3.47742e-32 
 1.90219e-31 
-1.01164e-30 
 5.25819e-30 
-2.67707e-29 
 1.35245e-28 
-6.85940e-28 
 3.42104e-27 
-1.67836e-26 
 8.27743e-26 
-4.01556e-25 
 1.85841e-24 
-8.09442e-24 
 3.23473e-23 
-1.09820e-22 
 2.37207e-22 
 4.59899e-22 
-8.33877e-21 
 5.57786e-20 
-4.66495e-19 
 9.46845e-19 
 1.51712e-17 
 1.00000e+00 
 1.00000e+00 
 1.00000e+00 
 1.00000e+00 
 1.00000e+00 
 1.00000e+00 
 1.00000e+00 
 1.00000e+00 
 1.00000e+00 
 1.00000e+00 
 1.00000e+00 
 1.00000e+00 
       00001 
 1.00000e+00 
 1.00000e+00 
 1.00000e+00 
 1.00000e+00 
 1.00000e+00 
 1.00000e+00 
 1.00000e+00 
 1.00000e+00 
 1.00000e+00 
 1.00000e+00 
       00001 
 1.00000e+00 
 1.00000e+00 
 1.00000e+00 
 1.00000e+00 
 3.79623e-18 
-1.50900e-17 
 3.81595e-18 
-6.42859e-19 
 1.23686e-19 
-2.01274e-20 
 2.74723e-21 
-2.91170e-22 
 1.09220e-23 
 6.57033e-24 
-3.03873e-24 
 9.59239e-25 
-2.62835e-25 
 6.64699e-26 
-1.59233e-26 
 3.66552e-27 
-8.18235e-28 
 1.78220e-28 
-3.80498e-29 
 7.99142e-30 
-1.65610e-30 
 3.39541e-31 
-6.90341e-32 
 1.39472e-32 
-2.80474e-33 
 5.62142e-34 
-1.12392e-34 
 2.24273e-35 
-4.46740e-36 
 8.88276e-37 
-1.76273e-37 
 3.49057e-38 
-6.89676e-39 
 1.35980e-39 
-2.67620e-40 
 5.27108e-41 
-8.03945e-42 
-1.45621e-41 
 1.07211e-40 
-6.50879e-40 
 3.73255e-39 
-2.04896e-38 
 1.08442e-37 
-5.56595e-37 
 2.78694e-36 
-1.37151e-35 
 6.70573e-35 
-3.31111e-34 
 1.69013e-33 
-9.16055e-33 
 5.32797e-32 
-3.09435e-31 
 1.76066e-30 
-9.54638e-30 
 5.05349e-29 
-2.57275e-28 
 1.30189e-27 
-6.83879e-27 
 3.44314e-26 
-1.68273e-25 
 8.68212e-25 
-4.42438e-24 
 2.12648e-23 
-9.73181e-23 
 4.18252e-22 
-1.58641e-21 
 4.31415e-21 
 1.79884e-21 
-5.30113e-20 
 6.30293e-19 
-1.18817e-17 
 5.04289e-17 
 1.00000e+00 
 1.00000e+00 
 1.00000e+00 
 1.00000e+00 
 1.00000e+00 
 1.00000e+00 
 1.00000e+00 
 1.00000e+00 
 1.00000e+00 
 1.00000e+00 
 1.00000e+00 
       00001 
 1.00000e+00 
       00001 
 1.00000e+00 
       00001 
       00001 
 1.00000e+00 
 1.00000e+00 
 1.00000e+00 
 1.00000e+00 
 1.00000e+00 
       00001 
 1.00000e+00 
 1.00000e+00 
 1.00000e+00 
       00001 
 1.00000e+00 
 1.00000e+00 
 5.88303e-17 
-7.39980e-18 
 1.27876e-18 
-1.83852e-19 
 1.85639e-20 
-6.66921e-22 
-3.43762e-22 
 1.49736e-22 
-4.62714e-23 
 1.27250e-23 
-3.25520e-24 
 7.88074e-25 
-1.82749e-25 
 4.09729e-26 
-8.94322e-27 
 1.91004e-27 
-4.00704e-28 
 8.28386e-29 
-1.69246e-29 
 3.42632e-30 
-6.88986e-31 
 1.37901e-31 
-2.75183e-32 
 5.48124e-33 
-1.09051e-33 
 2.16756e-34 
-4.30363e-35 
 8.53239e-36 
-1.68849e-36 
 3.33408e-37 
-6.56814e-38 
 1.29110e-38 
-2.53355e-39 
 4.96774e-40 
-9.75873e-41 
 1.86177e-41 
 8.73044e-42 
-1.15137e-40 
 8.53738e-40 
-5.57750e-39 
 3.36269e-38 
-1.90905e-37 
 1.03215e-36 
-5.35212e-36 
 2.67498e-35 
-1.29448e-34 
 6.10261e-34 
-2.83648e-33 
 1.33711e-32 
-6.86003e-32 
 4.38059e-31 
-2.66473e-30 
 1.63476e-29 
-8.90490e-29 
 4.92844e-28 
-2.44090e-27 
 1.19579e-26 
-6.93511e-26 
 3.43433e-25 
-1.56624e-24 
 8.90443e-24 
-4.80288e-23 
 2.36572e-22 
-1.14209e-21 
 5.33365e-21 
-2.30209e-20 
 7.88670e-20 
-1.34526e-19 
-6.25854e-19 
-1.98802e-17 
 1.00000e+00 
 1.00000e+00 
 1.00000e+00 
 1.00000e+00 
 1.00000e+00 
 1.00000e+00 
 1.00000e+00 
 1.00000e+00 
 1.00000e+00 
       00001 
 1.00000e+00 
 1.00000e+00 
 1.00000e+00 
 1.00000e+00 
 1.00000e+00 
 1.00000e+00 
 1.00000e+00 
 1.00000e+00 
 1.00000e+00 
 1.00000e+00 
 1.00000e+00 
 1.00000e+00 
 1.00000e+00 
       00001 
 1.00000e+00 
 1.00000e+00 
 1.00000e+00 
 1.00000e+00 
 1.00000e+00 
 1.00000e+00 
-4.00000e-17 
 1.10130e-17 
-1.58553e-18 
 4.06077e-20 
 2.39151e-20 
-8.71367e-21 
 2.33709e-21 
-6.12346e-22 
 1.57199e-22 
-3.86771e-23 
 9.08516e-24 
-2.05207e-24 
 4.49500e-25 
-9.61111e-26 
 2.01516e-26 
-4.15752e-27 
 8.46551e-28 
-1.70615e-28 
 3.41300e-29 
-6.79402e-30 
 1.34874e-30 
-2.67449e-31 
 5.30249e-32 
-1.05144e-32 
 2.08476e-33 
-4.13097e-34 
 8.17432e-35 
-1.61421e-35 
 3.17961e-36 
-6.24653e-37 
 1.22427e-37 
-2.39544e-38 
 4.68422e-39 
-9.16955e-40 
 1.81520e-40 
-4.25265e-41 
 2.27824e-41 
 1.12084e-41 
-6.19408e-40 
 6.12784e-39 
-4.57281e-38 
 2.97849e-37 
-1.77838e-36 
 9.95108e-36 
-5.27691e-35 
 2.66631e-34 
-1.28555e-33 
 5.89831e-33 
-2.55047e-32 
 1.01318e-31 
-3.64652e-31 
 3.53554e-30 
-2.02283e-29 
 1.58926e-28 
-7.69017e-28 
 5.17581e-27 
-2.26233e-26 
 9.14051e-26 
-7.81641e-25 
 3.45108e-24 
-1.13461e-23 
 9.30089e-23 
-5.12216e-22 
 2.49219e-21 
-1.28213e-20 
 6.49762e-20 
-3.24994e-19 
 1.38183e-18 
-2.51017e-18 
-1.06681e-17 
 1.00000e+00 
 1.00000e+00 
 1.00000e+00 
 1.00000e+00 
 1.00000e+00 
 1.00000e+00 
 1.00000e+00 
 1.00000e+00 
       00001 
 1.00000e+00 
 1.00000e+00 
       00001 
 1.00000e+00 
 1.00000e+00 
       00001 
 1.00000e+00 
 1.00000e+00 
 1.00000e+00 
 1.00000e+00 
 1.00000e+00 
 1.00000e+00 
 1.00000e+00 
 1.00000e+00 
 1.00000e+00 
 1.00000e+00 
 1.00000e+00 
       00001 
 1.00000e+00 
 1.00000e+00 
 1.00000e+00 
 2.09211e-16 
-1.50205e-17 
-9.57751e-19 
 6.37996e-19 
-1.43472e-19 
 3.01172e-20 
-7.32586e-21 
 1.84723e-21 
-4.47274e-22 
 1.02743e-22 
-2.26538e-23 
 4.85197e-24 
-1.01685e-24 
 2.09407e-25 
-4.25022e-26 
 8.52618e-27 
-1.69567e-27 
 3.35366e-28 
-6.61499e-29 
 1.30424e-29 
-2.57419e-30 
 5.08900e-31 
-1.00747e-31 
 1.99566e-32 
-3.95097e-33 
 7.80873e-34 
-1.53926e-34 
 3.02462e-35 
-5.92455e-36 
 1.15745e-36 
-2.25777e-37 
 4.40401e-38 
-8.60614e-39 
 1.68839e-39 
-3.35656e-40 
 8.50744e-41 
-1.07917e-40 
 3.88344e-40 
-1.08755e-39 
-2.28648e-40 
 3.38792e-38 
-3.40711e-37 
 2.52865e-36 
-1.62915e-35 
 9.59375e-35 
-5.27904e-34 
 2.74138e-33 
-1.34683e-32 
 6.22399e-32 
-2.63571e-31 
 8.78589e-31 
 2.69365e-30 
 3.24177e-29 
-1.72701e-28 
 9.97185e-28 
-5.89101e-27 
 3.65796e-26 
-2.41391e-25 
 1.44714e-24 
-8.37746e-24 
 3.21985e-23 
-1.68023e-22 
 8.77897e-22 
-4.61913e-21 
 2.41136e-20 
-1.27945e-19 
 7.32520e-19 
-4.11132e-18 
 1.99249e-17 
-2.00273e-17 
 1.00000e+00 
 1.00000e+00 
 1.00000e+00 
       00001 
 1.00000e+00 
 1.00000e+00 
 1.00000e+00 
       00001 
       00001 
 1.00000e+00 
       00001 
 1.00000e+00 
       00001 
 1.00000e+00 
 1.00000e+00 
 1.00000e+00 
 1.00000e+00 
       00001 
 1.00000e+00 
 1.00000e+00 
 1.00000e+00 
 1.00000e+00 
 1.00000e+00 
 1.00000e+00 
 1.00000e+00 
 1.00000e+00 
 1.00000e+00 
 1.00000e+00 
 1.00000e+00 
 1.00000e+00 
       00001 
-5.02395e-17 
 8.80812e-18 
-1.95097e-18 
 3.17084e-19 
-7.99209e-20 
 2.10799e-20 
-5.11432e-21 
 1.14873e-21 
-2.46517e-22 
 5.15544e-23 
-1.05892e-23 
 2.14248e-24 
-4.27876e-25 
 8.45726e-26 
-1.66016e-26 
 3.24854e-27 
-6.35727e-28 
 1.24714e-28 
-2.45535e-29 
 4.85087e-30 
-9.60681e-31 
 1.90406e-31 
-3.77001e-32 
 7.44516e-33 
-1.46487e-33 
 2.87030e-34 
-5.60254e-35 
 1.09045e-35 
-2.11984e-36 
 4.12474e-37 
-8.05252e-38 
 1.58111e-38 
-3.12795e-39 
 6.24722e-40 
-1.51511e-40 
 2.59217e-40 
-1.32802e-39 
 6.18649e-39 
-2.38090e-38 
 6.39800e-38 
 2.30737e-38 
-2.01289e-36 
 1.96833e-35 
-1.43400e-34 
 9.09254e-34 
-5.27319e-33 
 2.85746e-32 
-1.46141e-31 
 7.09556e-31 
-3.34028e-30 
 1.77044e-29 
-5.46244e-29 
 2.37810e-28 
-1.13909e-27 
 6.40501e-27 
-4.21017e-26 
 2.97230e-25 
-2.16788e-24 
 1.35434e-23 
-5.72335e-23 
 3.01594e-22 
-1.51444e-21 
 8.06672e-21 
-4.33869e-20 
 2.22100e-19 
-1.11384e-18 
 7.48546e-18 
-3.83804e-17 
 1.00000e+00 
 1.00000e+00 
 1.00000e+00 
 1.00000e+00 
 1.00000e+00 
       00001 
 1.00000e+00 
       00001 
 1.00000e+00 
 1.00000e+00 
 1.00000e+00 
 1.00000e+00 
 1.00000e+00 
 1.00000e+00 
 1.00000e+00 
 1.00000e+00 
       00001 
       00001 
 1.00000e+00 
 1.00000e+00 
 1.00000e+00 
 1.00000e+00 
       00001 
 1.00000e+00 
 1.00000e+00 
 1.00000e+00 
 1.00000e+00 
       00001 
 1.00000e+00 
 1.00000e+00 
 1.00000e+00 
 1.00000e+00 
 7.39802e-17 
-1.26889e-17 
 2.00665e-18 
-8.06120e-19 
 2.42612e-19 
-5.90816e-20 
 1.27762e-20 
-2.64193e-21 
 5.38104e-22 
-1.08371e-22 
 2.15594e-23 
-4.23779e-24 
 8.25272e-25 
-1.59936e-25 
 3.09934e-26 
-6.02907e-27 
 1.17992e-27 
-2.32400e-28 
 4.60108e-29 
-9.13564e-30 
 1.81432e-30 
-3.59499e-31 
 7.09335e-32 
-1.39220e-32 
 2.71765e-33 
-5.28063e-34 
 1.02311e-34 
-1.98131e-35 
 3.84624e-36 
-7.50747e-37 
 1.47765e-37 
-2.93940e-38 
 5.90978e-39 
-1.17891e-39 
 2.20921e-40 
-3.42778e-40 
 2.70328e-39 
-1.65716e-38 
 8.47664e-38 
-3.73462e-37 
 1.36698e-36 
-3.38829e-36 
-3.40223e-36 
 1.25841e-34 
-1.16617e-33 
 8.27461e-33 
-5.14873e-32 
 2.94093e-31 
-1.57451e-30 
 7.98364e-30 
-3.98311e-29 
 1.26575e-28 
-4.90628e-28 
 1.78842e-27 
-6.48329e-27 
 2.87449e-26 
-1.87163e-25 
 1.53290e-24 
-1.82533e-23 
 8.37092e-23 
-5.45796e-22 
 2.87984e-21 
-1.28193e-20 
 7.33173e-20 
-4.14254e-19 
 1.99001e-18 
-5.67384e-18 
 5.97747e-17 
       00001 
 1.00000e+00 
 1.00000e+00 
 1.00000e+00 
       00001 
 1.00000e+00 
 1.00000e+00 
 1.00000e+00 
 1.00000e+00 
 1.00000e+00 
 1.00000e+00 
       00001 
       00001 
 1.00000e+00 
 1.00000e+00 
 1.00000e+00 
 1.00000e+00 
 1.00000e+00 
 1.00000e+00 
 1.00000e+00 
 1.00000e+00 
 1.00000e+00 
 1.00000e+00 
 1.00000e+00 
 1.00000e+00 
 1.00000e+00 
       00001 
 1.00000e+00 
       00001 
 1.00000e+00 
 1.00000e+00 
 1.00000e+00 
 1.00000e+00 
 2.39105e-17 
-8.68001e-18 
 3.01062e-18 
-7.06515e-19 
 1.41084e-19 
-2.76296e-20 
 5.48523e-21 
-1.08730e-21 
 2.13156e-22 
-4.12511e-23 
 7.91094e-24 
-1.51374e-24 
 2.90947e-25 
-5.64266e-26 
 1.10592e-26 
-2.18777e-27 
 4.35483e-28 
-8.68837e-29 
 1.73080e-29 
-3.43203e-30 
 6.76030e-31 
-1.32175e-31 
 2.56635e-32 
-4.95679e-33 
 9.54965e-34 
-1.84158e-34 
 3.56841e-35 
-6.97360e-36 
 1.37879e-36 
-2.76401e-37 
 5.62205e-38 
-1.15635e-38 
 2.28895e-39 
-7.76324e-41 
-3.53344e-40 
-2.38048e-39 
 2.83538e-38 
-1.92467e-37 
 1.06232e-36 
-5.10766e-36 
 2.14692e-35 
-7.46287e-35 
 1.63696e-34 
 3.70696e-34 
-8.03902e-33 
 6.99031e-32 
-4.80501e-31 
 2.92128e-30 
-1.63022e-29 
 8.01104e-29 
-3.28581e-28 
 1.38116e-27 
-5.14737e-27 
 1.55310e-26 
-2.82053e-26 
-4.22148e-26 
 6.30929e-25 
-1.08321e-23 
-5.00397e-23 
 6.96908e-22 
-5.73645e-21 
 3.03385e-20 
-7.90974e-20 
 6.93263e-19 
-4.40541e-18 
 2.41047e-17 
 1.00000e+00 
 1.00000e+00 
 1.00000e+00 
 1.00000e+00 
 1.00000e+00 
 1.00000e+00 
       00001 
 1.00000e+00 
 1.00000e+00 
 1.00000e+00 
 1.00000e+00 
 1.00000e+00 
 1.00000e+00 
 1.00000e+00 
 1.00000e+00 
 1.00000e+00 
 1.00000e+00 
       00001 
 1.00000e+00 
 1.00000e+00 
 1.00000e+00 
 1.00000e+00 
 1.00000e+00 
 1.00000e+00 
 1.00000e+00 
 1.00000e+00 
 1.00000e+00 
 1.00000e+00 
 1.00000e+00 
 1.00000e+00 
 1.00000e+00 
       00001 
 1.00000e+00 
 1.00000e+00 
-7.56350e-17 
 4.24717e-17 
-8.84267e-18 
 1.50581e-18 
-2.74297e-19 
 5.41166e-20 
-1.06832e-20 
 2.07165e-21 
-3.94435e-22 
 7.43458e-23 
-1.40432e-23 
 2.68406e-24 
-5.21518e-25 
 1.02951e-25 
-2.05592e-26 
 4.12919e-27 
-8.29270e-28 
 1.65739e-28 
-3.28548e-29 
 6.44856e-30 
-1.25309e-30 
 2.41441e-31 
-4.62634e-32 
 8.85234e-33 
-1.69978e-33 
 3.29147e-34 
-6.45514e-35 
 1.28603e-35 
-2.60653e-36 
 5.37301e-37 
-1.12401e-37 
 2.36799e-38 
-4.60570e-39 
-5.71550e-40 
 4.37709e-39 
-9.09387e-39 
-1.08964e-38 
 2.70900e-37 
-2.09545e-36 
 1.24843e-35 
-6.43915e-35 
 2.95658e-34 
-1.19282e-33 
 3.91557e-33 
-7.07996e-33 
-3.34178e-32 
 5.15109e-31 
-4.19384e-30 
 2.79010e-29 
-1.73030e-28 
 7.79334e-28 
-3.76243e-27 
 1.65200e-26 
-6.29489e-26 
 1.82245e-25 
-1.64539e-25 
-2.42386e-24 
 1.27405e-23 
-1.81384e-22 
 3.27000e-22 
 4.72067e-21 
-7.03109e-20 
 3.67284e-19 
-1.39285e-18 
 1.13444e-17 
-6.05210e-17 
 1.00000e+00 
 1.00000e+00 
 1.00000e+00 
 1.00000e+00 
 1.00000e+00 
 1.00000e+00 
 1.00000e+00 
 1.00000e+00 
 1.00000e+00 
 1.00000e+00 
 1.00000e+00 
 1.00000e+00 
 1.00000e+00 
 1.00000e+00 
 1.00000e+00 
       00001 
 1.00000e+00 
 1.00000e+00 
 1.00000e+00 
 1.00000e+00 
 1.00000e+00 
       00001 
 1.00000e+00 
 1.00000e+00 
 1.00000e+00 
 1.00000e+00 
       00001 
 1.00000e+00 
 1.00000e+00 
 1.00000e+00 
 1.00000e+00 
       00001 
 1.00000e+00 
 1.00000e+00 
 1.00000e+00 
-1.13760e-16 
 1.40321e-17 
-2.40773e-18 
 5.16407e-19 
-1.03591e-19 
 1.98852e-20 
-3.70518e-21 
 6.82469e-22 
-1.27195e-22 
 2.42988e-23 
-4.76988e-24 
 9.56297e-25 
-1.93943e-25 
 3.94241e-26 
-7.97447e-27 
 1.59697e-27 
-3.15689e-28 
 6.15455e-29 
-1.18461e-29 
 2.25791e-30 
-4.28200e-31 
 8.12888e-32 
-1.55509e-32 
 3.01651e-33 
-5.95917e-34 
 1.20145e-34 
-2.47194e-35 
 5.17970e-36 
-1.10130e-36 
 2.36431e-37 
-5.06999e-38 
 9.55622e-39 
 3.28850e-39 
-1.93669e-38 
 6.29570e-38 
-1.55148e-37 
 9.68143e-38 
 2.24567e-36 
-2.13429e-35 
 1.38908e-34 
-7.64845e-34 
 3.76096e-33 
-1.66585e-32 
 6.46292e-32 
-1.97678e-31 
 2.48720e-31 
 2.71149e-30 
-3.27957e-29 
 2.42841e-28 
-1.52273e-27 
 8.54371e-27 
-4.39008e-26 
 2.05586e-25 
-8.45549e-25 
 2.72148e-24 
-3.48898e-24 
-4.02795e-23 
 5.96321e-22 
-3.95250e-21 
 1.69136e-20 
-1.25177e-20 
-3.93242e-19 
 5.70189e-18 
-1.51038e-17 
 1.00000e+00 
 1.00000e+00 
 1.00000e+00 
 1.00000e+00 
 1.00000e+00 
 1.00000e+00 
 1.00000e+00 
 1.00000e+00 
 1.00000e+00 
 1.00000e+00 
 1.00000e+00 
 1.00000e+00 
 1.00000e+00 
 1.00000e+00 
 1.00000e+00 
 1.00000e+00 
 1.00000e+00 
 1.00000e+00 
 1.00000e+00 
 1.00000e+00 
 1.00000e+00 
 1.00000e+00 
 1.00000e+00 
 1.00000e+00 
 1.00000e+00 
 1.00000e+00 
 1.00000e+00 
 1.00000e+00 
       00001 
 1.00000e+00 
 1.00000e+00 
       00001 
 1.00000e+00 
 1.00000e+00 
 1.00000e+00 
 1.00000e+00 
 6.38526e-17 
-1.49752e-17 
 5.09784e-18 
-1.02006e-18 
 1.90276e-19 
-3.41495e-20 
 6.06158e-21 
-1.11616e-21 
 2.15601e-22 
-4.33916e-23 
 8.93549e-24 
-1.85094e-24 
 3.81256e-25 
-7.75386e-26 
 1.55068e-26 
-3.04392e-27 
 5.86706e-28 
-1.11344e-28 
 2.09108e-29 
-3.91452e-30 
 7.36859e-31 
-1.40720e-31 
 2.74650e-32 
-5.49732e-33 
 1.12791e-33 
-2.36610e-34 
 5.05371e-35 
-1.09310e-35 
 2.38034e-36 
-5.18956e-37 
 1.12020e-37 
-2.02604e-38 
-1.21088e-38 
 6.56940e-38 
-2.47865e-37 
 8.40674e-37 
-2.37898e-36 
 3.94136e-36 
 1.37020e-35 
-2.00377e-34 
 1.46566e-33 
-8.63568e-33 
 4.51262e-32 
-2.14666e-31 
 9.21830e-31 
-3.42483e-30 
 9.47775e-30 
-3.59579e-30 
-2.10818e-28 
 2.12199e-27 
-1.51143e-26 
 9.12020e-26 
-5.03693e-25 
 2.55426e-24 
-1.16171e-23 
 4.36565e-23 
-9.13012e-23 
-3.95665e-22 
 7.30889e-21 
-6.45220e-20 
 3.83711e-19 
-8.89948e-19 
-2.21862e-18 
 1.14992e-16 
 1.00000e+00 
       00001 
 1.00000e+00 
 1.00000e+00 
 1.00000e+00 
 1.00000e+00 
 1.00000e+00 
 1.00000e+00 
 1.00000e+00 
 1.00000e+00 
 1.00000e+00 
 1.00000e+00 
 1.00000e+00 
       00001 
 1.00000e+00 
 1.00000e+00 
 1.00000e+00 
 1.00000e+00 
       00001 
 1.00000e+00 
 1.00000e+00 
 1.00000e+00 
 1.00000e+00 
       00001 
 1.00000e+00 
 1.00000e+00 
       00001 
 1.00000e+00 
 1.00000e+00 
 1.00000e+00 
 1.00000e+00 
       00001 
 1.00000e+00 
 1.00000e+00 
 1.00000e+00 
 1.00000e+00 
 1.04453e-17 
 6.85547e-17 