<?xml version="1.0" encoding="utf-8"?>
<VTKFile byte_order="LittleEndian" type="UnstructuredGrid" version="0.1">
   <UnstructuredGrid>
      <Piece NumberOfCells="96000" NumberOfPoints="18081">
         <Points>
            <DataArray Name="Points" NumberOfComponents="3" format="ascii" type="Float32">
0.0000 0.0000 0.0000
0.0000 0.0375 0.0000
0.0000 0.0750 0.0000
0.0000 0.1125 0.0000
0.0000 0.1500 0.0000
0.0000 0.1875 0.0000
0.0000 0.2250 0.0000
0.0000 0.2625 0.0000
0.0000 0.3000 0.0000
0.0000 0.3375 0.0000
0.0000 0.3750 0.0000
0.0000 0.4125 0.0000
0.0000 0.4500 0.0000
0.0000 0.4875 0.0000
0.0000 0.5250 0.0000
0.0000 0.5625 0.0000
0.0000 0.6000 0.0000
0.0000 0.6375 0.0000
0.0000 0.6750 0.0000
0.0000 0.7125 0.0000
0.0000 0.7500 0.0000
0.0500 0.0000 0.0000
0.0500 0.0375 0.0000
0.0500 0.0750 0.0000
0.0500 0.1125 0.0000
0.0500 0.1500 0.0000
0.0500 0.1875 0.0000
0.0500 0.2250 0.0000
0.0500 0.2625 0.0000
0.0500 0.3000 0.0000
0.0500 0.3375 0.0000
0.0500 0.3750 0.0000
0.0500 0.4125 0.0000
0.0500 0.4500 0.0000
0.0500 0.4875 0.0000
0.0500 0.5250 0.0000
0.0500 0.5625 0.0000
0.0500 0.6000 0.0000
0.0500 0.6375 0.0000
0.0500 0.6750 0.0000
0.0500 0.7125 0.0000
0.0500 0.7500 0.0000
0.1000 0.0000 0.0000
0.1000 0.0375 0.0000
0.1000 0.0750 0.0000
0.1000 0.1125 0.0000
0.1000 0.1500 0.0000
0.1000 0.1875 0.0000
0.1000 0.2250 0.0000
0.1000 0.2625 0.0000
0.1000 0.3000 0.0000
0.1000 0.3375 0.0000
0.1000 0.3750 0.0000
0.1000 0.4125 0.0000
0.1000 0.4500 0.0000
0.1000 0.4875 0.0000
0.1000 0.5250 0.0000
0.1000 0.5625 0.0000
0.1000 0.6000 0.0000
0.1000 0.6375 0.0000
0.1000 0.6750 0.0000
0.1000 0.7125 0.0000
0.1000 0.7500 0.0000
0.1500 0.0000 0.0000
0.1500 0.0375 0.0000
0.1500 0.0750 0.0000
0.1500 0.1125 0.0000
0.1500 0.1500 0.0000
0.1500 0.1875 0.0000
0.1500 0.2250 0.0000
0.1500 0.2625 0.0000
0.1500 0.3000 0.0000
0.1500 0.3375 0.0000
0.1500 0.3750 0.0000
0.1500 0.4125 0.0000
0.1500 0.4500 0.0000
0.1500 0.4875 0.0000
0.1500 0.5250 0.0000
0.1500 0.5625 0.0000
0.1500 0.6000 0.0000
0.1500 0.6375 0.0000
0.1500 0.6750 0.0000
0.1500 0.7125 0.0000
0.1500 0.7500 0.0000
0.2000 0.0000 0.0000
0.2000 0.0375 0.0000
0.2000 0.0750 0.0000
0.2000 0.1125 0.0000
0.2000 0.1500 0.0000
0.2000 0.1875 0.0000
0.2000 0.2250 0.0000
0.2000 0.2625 0.0000
0.2000 0.3000 0.0000
0.2000 0.3375 0.0000
0.2000 0.3750 0.0000
0.2000 0.4125 0.0000
0.2000 0.4500 0.0000
0.2000 0.4875 0.0000
0.2000 0.5250 0.0000
0.2000 0.5625 0.0000
0.2000 0.6000 0.0000
0.2000 0.6375 0.0000
0.2000 0.6750 0.0000
0.2000 0.7125 0.0000
0.2000 0.7500 0.0000
0.2500 0.0000 0.0000
0.2500 0.0375 0.0000
0.2500 0.0750 0.0000
0.2500 0.1125 0.0000
0.2500 0.1500 0.0000
0.2500 0.1875 0.0000
0.2500 0.2250 0.0000
0.2500 0.2625 0.0000
0.2500 0.3000 0.0000
0.2500 0.3375 0.0000
0.2500 0.3750 0.0000
0.2500 0.4125 0.0000
0.2500 0.4500 0.0000
0.2500 0.4875 0.0000
0.2500 0.5250 0.0000
0.2500 0.5625 0.0000
0.2500 0.6000 0.0000
0.2500 0.6375 0.0000
0.2500 0.6750 0.0000
0.2500 0.7125 0.0000
0.2500 0.7500 0.0000
0.3000 0.0000 0.0000
0.3000 0.0375 0.0000
0.3000 0.0750 0.0000
0.3000 0.1125 0.0000
0.3000 0.1500 0.0000
0.3000 0.1875 0.0000
0.3000 0.2250 0.0000
0.3000 0.2625 0.0000
0.3000 0.3000 0.0000
0.3000 0.3375 0.0000
0.3000 0.3750 0.0000
0.3000 0.4125 0.0000
0.3000 0.4500 0.0000
0.3000 0.4875 0.0000
0.3000 0.5250 0.0000
0.3000 0.5625 0.0000
0.3000 0.6000 0.0000
0.3000 0.6375 0.0000
0.3000 0.6750 0.0000
0.3000 0.7125 0.0000
0.3000 0.7500 0.0000
0.3500 0.0000 0.0000
0.3500 0.0375 0.0000
0.3500 0.0750 0.0000
0.3500 0.1125 0.0000
0.3500 0.1500 0.0000
0.3500 0.1875 0.0000
0.3500 0.2250 0.0000
0.3500 0.2625 0.0000
0.3500 0.3000 0.0000
0.3500 0.3375 0.0000
0.3500 0.3750 0.0000
0.3500 0.4125 0.0000
0.3500 0.4500 0.0000
0.3500 0.4875 0.0000
0.3500 0.5250 0.0000
0.3500 0.5625 0.0000
0.3500 0.6000 0.0000
0.3500 0.6375 0.0000
0.3500 0.6750 0.0000
0.3500 0.7125 0.0000
0.3500 0.7500 0.0000
0.4000 0.0000 0.0000
0.4000 0.0375 0.0000
0.4000 0.0750 0.0000
0.4000 0.1125 0.0000
0.4000 0.1500 0.0000
0.4000 0.1875 0.0000
0.4000 0.2250 0.0000
0.4000 0.2625 0.0000
0.4000 0.3000 0.0000
0.4000 0.3375 0.0000
0.4000 0.3750 0.0000
0.4000 0.4125 0.0000
0.4000 0.4500 0.0000
0.4000 0.4875 0.0000
0.4000 0.5250 0.0000
0.4000 0.5625 0.0000
0.4000 0.6000 0.0000
0.4000 0.6375 0.0000
0.4000 0.6750 0.0000
0.4000 0.7125 0.0000
0.4000 0.7500 0.0000
0.4500 0.0000 0.0000
0.4500 0.0375 0.0000
0.4500 0.0750 0.0000
0.4500 0.1125 0.0000
0.4500 0.1500 0.0000
0.4500 0.1875 0.0000
0.4500 0.2250 0.0000
0.4500 0.2625 0.0000
0.4500 0.3000 0.0000
0.4500 0.3375 0.0000
0.4500 0.3750 0.0000
0.4500 0.4125 0.0000
0.4500 0.4500 0.0000
0.4500 0.4875 0.0000
0.4500 0.5250 0.0000
0.4500 0.5625 0.0000
0.4500 0.6000 0.0000
0.4500 0.6375 0.0000
0.4500 0.6750 0.0000
0.4500 0.7125 0.0000
0.4500 0.7500 0.0000
0.5000 0.0000 0.0000
0.5000 0.0375 0.0000
0.5000 0.0750 0.0000
0.5000 0.1125 0.0000
0.5000 0.1500 0.0000
0.5000 0.1875 0.0000
0.5000 0.2250 0.0000
0.5000 0.2625 0.0000
0.5000 0.3000 0.0000
0.5000 0.3375 0.0000
0.5000 0.3750 0.0000
0.5000 0.4125 0.0000
0.5000 0.4500 0.0000
0.5000 0.4875 0.0000
0.5000 0.5250 0.0000
0.5000 0.5625 0.0000
0.5000 0.6000 0.0000
0.5000 0.6375 0.0000
0.5000 0.6750 0.0000
0.5000 0.7125 0.0000
0.5000 0.7500 0.0000
0.5500 0.0000 0.0000
0.5500 0.0375 0.0000
0.5500 0.0750 0.0000
0.5500 0.1125 0.0000
0.5500 0.1500 0.0000
0.5500 0.1875 0.0000
0.5500 0.2250 0.0000
0.5500 0.2625 0.0000
0.5500 0.3000 0.0000
0.5500 0.3375 0.0000
0.5500 0.3750 0.0000
0.5500 0.4125 0.0000
0.5500 0.4500 0.0000
0.5500 0.4875 0.0000
0.5500 0.5250 0.0000
0.5500 0.5625 0.0000
0.5500 0.6000 0.0000
0.5500 0.6375 0.0000
0.5500 0.6750 0.0000
0.5500 0.7125 0.0000
0.5500 0.7500 0.0000
0.6000 0.0000 0.0000
0.6000 0.0375 0.0000
0.6000 0.0750 0.0000
0.6000 0.1125 0.0000
0.6000 0.1500 0.0000
0.6000 0.1875 0.0000
0.6000 0.2250 0.0000
0.6000 0.2625 0.0000
0.6000 0.3000 0.0000
0.6000 0.3375 0.0000
0.6000 0.3750 0.0000
0.6000 0.4125 0.0000
0.6000 0.4500 0.0000
0.6000 0.4875 0.0000
0.6000 0.5250 0.0000
0.6000 0.5625 0.0000
0.6000 0.6000 0.0000
0.6000 0.6375 0.0000
0.6000 0.6750 0.0000
0.6000 0.7125 0.0000
0.6000 0.7500 0.0000
0.6500 0.0000 0.0000
0.6500 0.0375 0.0000
0.6500 0.0750 0.0000
0.6500 0.1125 0.0000
0.6500 0.1500 0.0000
0.6500 0.1875 0.0000
0.6500 0.2250 0.0000
0.6500 0.2625 0.0000
0.6500 0.3000 0.0000
0.6500 0.3375 0.0000
0.6500 0.3750 0.0000
0.6500 0.4125 0.0000
0.6500 0.4500 0.0000
0.6500 0.4875 0.0000
0.6500 0.5250 0.0000
0.6500 0.5625 0.0000
0.6500 0.6000 0.0000
0.6500 0.6375 0.0000
0.6500 0.6750 0.0000
0.6500 0.7125 0.0000
0.6500 0.7500 0.0000
0.7000 0.0000 0.0000
0.7000 0.0375 0.0000
0.7000 0.0750 0.0000
0.7000 0.1125 0.0000
0.7000 0.1500 0.0000
0.7000 0.1875 0.0000
0.7000 0.2250 0.0000
0.7000 0.2625 0.0000
0.7000 0.3000 0.0000
0.7000 0.3375 0.0000
0.7000 0.3750 0.0000
0.7000 0.4125 0.0000
0.7000 0.4500 0.0000
0.7000 0.4875 0.0000
0.7000 0.5250 0.0000
0.7000 0.5625 0.0000
0.7000 0.6000 0.0000
0.7000 0.6375 0.0000
0.7000 0.6750 0.0000
0.7000 0.7125 0.0000
0.7000 0.7500 0.0000
0.7500 0.0000 0.0000
0.7500 0.0375 0.0000
0.7500 0.0750 0.0000
0.7500 0.1125 0.0000
0.7500 0.1500 0.0000
0.7500 0.1875 0.0000
0.7500 0.2250 0.0000
0.7500 0.2625 0.0000
0.7500 0.3000 0.0000
0.7500 0.3375 0.0000
0.7500 0.3750 0.0000
0.7500 0.4125 0.0000
0.7500 0.4500 0.0000
0.7500 0.4875 0.0000
0.7500 0.5250 0.0000
0.7500 0.5625 0.0000
0.7500 0.6000 0.0000
0.7500 0.6375 0.0000
0.7500 0.6750 0.0000
0.7500 0.7125 0.0000
0.7500 0.7500 0.0000
0.8000 0.0000 0.0000
0.8000 0.0375 0.0000
0.8000 0.0750 0.0000
0.8000 0.1125 0.0000
0.8000 0.1500 0.0000
0.8000 0.1875 0.0000
0.8000 0.2250 0.0000
0.8000 0.2625 0.0000
0.8000 0.3000 0.0000
0.8000 0.3375 0.0000
0.8000 0.3750 0.0000
0.8000 0.4125 0.0000
0.8000 0.4500 0.0000
0.8000 0.4875 0.0000
0.8000 0.5250 0.0000
0.8000 0.5625 0.0000
0.8000 0.6000 0.0000
0.8000 0.6375 0.0000
0.8000 0.6750 0.0000
0.8000 0.7125 0.0000
0.8000 0.7500 0.0000
0.8500 0.0000 0.0000
0.8500 0.0375 0.0000
0.8500 0.0750 0.0000
0.8500 0.1125 0.0000
0.8500 0.1500 0.0000
0.8500 0.1875 0.0000
0.8500 0.2250 0.0000
0.8500 0.2625 0.0000
0.8500 0.3000 0.0000
0.8500 0.3375 0.0000
0.8500 0.3750 0.0000
0.8500 0.4125 0.0000
0.8500 0.4500 0.0000
0.8500 0.4875 0.0000
0.8500 0.5250 0.0000
0.8500 0.5625 0.0000
0.8500 0.6000 0.0000
0.8500 0.6375 0.0000
0.8500 0.6750 0.0000
0.8500 0.7125 0.0000
0.8500 0.7500 0.0000
0.9000 0.0000 0.0000
0.9000 0.0375 0.0000
0.9000 0.0750 0.0000
0.9000 0.1125 0.0000
0.9000 0.1500 0.0000
0.9000 0.1875 0.0000
0.9000 0.2250 0.0000
0.9000 0.2625 0.0000
0.9000 0.3000 0.0000
0.9000 0.3375 0.0000
0.9000 0.3750 0.0000
0.9000 0.4125 0.0000
0.9000 0.4500 0.0000
0.9000 0.4875 0.0000
0.9000 0.5250 0.0000
0.9000 0.5625 0.0000
0.9000 0.6000 0.0000
0.9000 0.6375 0.0000
0.9000 0.6750 0.0000
0.9000 0.7125 0.0000
0.9000 0.7500 0.0000
0.9500 0.0000 0.0000
0.9500 0.0375 0.0000
0.9500 0.0750 0.0000
0.9500 0.1125 0.0000
0.9500 0.1500 0.0000
0.9500 0.1875 0.0000
0.9500 0.2250 0.0000
0.9500 0.2625 0.0000
0.9500 0.3000 0.0000
0.9500 0.3375 0.0000
0.9500 0.3750 0.0000
0.9500 0.4125 0.0000
0.9500 0.4500 0.0000
0.9500 0.4875 0.0000
0.9500 0.5250 0.0000
0.9500 0.5625 0.0000
0.9500 0.6000 0.0000
0.9500 0.6375 0.0000
0.9500 0.6750 0.0000
0.9500 0.7125 0.0000
0.9500 0.7500 0.0000
1.0000 0.0000 0.0000
1.0000 0.0375 0.0000
1.0000 0.0750 0.0000
1.0000 0.1125 0.0000
1.0000 0.1500 0.0000
1.0000 0.1875 0.0000
1.0000 0.2250 0.0000
1.0000 0.2625 0.0000
1.0000 0.3000 0.0000
1.0000 0.3375 0.0000
1.0000 0.3750 0.0000
1.0000 0.4125 0.0000
1.0000 0.4500 0.0000
1.0000 0.4875 0.0000
1.0000 0.5250 0.0000
1.0000 0.5625 0.0000
1.0000 0.6000 0.0000
1.0000 0.6375 0.0000
1.0000 0.6750 0.0000
1.0000 0.7125 0.0000
1.0000 0.7500 0.0000
1.0500 0.0000 0.0000
1.0500 0.0375 0.0000
1.0500 0.0750 0.0000
1.0500 0.1125 0.0000
1.0500 0.1500 0.0000
1.0500 0.1875 0.0000
1.0500 0.2250 0.0000
1.0500 0.2625 0.0000
1.0500 0.3000 0.0000
1.0500 0.3375 0.0000
1.0500 0.3750 0.0000
1.0500 0.4125 0.0000
1.0500 0.4500 0.0000
1.0500 0.4875 0.0000
1.0500 0.5250 0.0000
1.0500 0.5625 0.0000
1.0500 0.6000 0.0000
1.0500 0.6375 0.0000
1.0500 0.6750 0.0000
1.0500 0.7125 0.0000
[...]
         <PointData>
            <DataArray Name="fValues" NumberOfComponents="1" format="ascii" type="Float64">
 1.00000e+00 
 1.00000e+00 
 1.00000e+00 
 1.00000e+00 
       00001 
 1.00000e+00 
 1.00000e+00 
 1.00000e+00 
 1.00000e+00 
 1.00000e+00 
       00001 
       00001 
 1.00000e+00 
 1.00000e+00 
 1.00000e+00 
       00001 
       00001 
 1.00000e+00 
 1.00000e+00 
 1.00000e+00 
 1.00000e+00 
       00001 
 1.00000e+00 
 1.00000e+00 
 1.00000e+00 
 1.00000e+00 
 1.00000e+00 
       00001 
       00001 
 1.00000e+00 
 1.00000e+00 
       00001 
 1.00000e+00 
 1.00000e+00 
 1.00000e+00 
 1.00000e+00 
       00001 
       00001 
       00001 
 1.00000e+00 
 1.00000e+00 
 1.00000e+00 
 5.27732e-17 
       00001 
 1.00000e+00 
 1.00000e+00 
 1.00000e+00 
 1.00000e+00 
 1.00000e+00 
 1.00000e+00 
       00001 
 1.00000e+00 
 1.00000e+00 
       00001 
 1.00000e+00 
 1.00000e+00 
 1.00000e+00 
 1.00000e+00 
 1.00000e+00 
 1.00000e+00 
 1.00000e+00 
 1.00000e+00 
       00001 
 1.53196e-17 
       00001 
 1.00000e+00 
 1.00000e+00 
 1.00000e+00 
 1.00000e+00 
       00001 
 1.00000e+00 
       00001 
       00001 
 1.00000e+00 
       00001 
 1.00000e+00 
 1.00000e+00 
 1.00000e+00 
 1.00000e+00 
       00001 
 1.00000e+00 
       00001 
       00001 
 8.26523e-17 
-2.37287e-18 
-1.56869e-17 
 1.00000e+00 
 1.00000e+00 
 1.00000e+00 
       00001 
       00001 
 1.00000e+00 
 1.00000e+00 
 1.00000e+00 
       00001 
 1.00000e+00 
 1.00000e+00 
 1.00000e+00 
 1.00000e+00 
       00001 
 1.00000e+00 
 1.00000e+00 
 1.00000e+00 
 8.13969e-01 
 2.22546e-17 
 9.15930e-18 
-5.61586e-18 
       00001 
       00001 
 1.00000e+00 
 1.00000e+00 
 1.00000e+00 
 1.00000e+00 
 1.00000e+00 
 1.00000e+00 
 1.00000e+00 
 1.00000e+00 
       00001 
 1.00000e+00 
 1.00000e+00 
 1.00000e+00 
 1.00000e+00 
 1.00000e+00 
 1.00000e+00 
 6.26995e-17 
 3.41294e-17 
-1.35503e-18 
-1.23732e-17 
 7.87649e-17 
 1.00000e+00 
       00001 
 1.00000e+00 
       00001 
 1.00000e+00 
 1.00000e+00 
 1.00000e+00 
 1.00000e+00 
       00001 
       00001 
       00001 
 1.00000e+00 
 1.00000e+00 
 1.00000e+00 
       00001 
 9.33608e-17 
 7.37029e-18 
-1.86407e-17 
-6.88487e-19 
 7.12494e-18 
-2.20982e-17 
 1.00000e+00 
 1.00000e+00 
 1.00000e+00 
 1.00000e+00 
 1.00000e+00 
 1.00000e+00 
 1.00000e+00 
       00001 
 1.00000e+00 
 1.00000e+00 
 1.00000e+00 
 1.00000e+00 
 1.00000e+00 
 1.00000e+00 
 1.00000e+00 
 2.68966e-17 
-1.76078e-17 
 6.75124e-18 
 1.04525e-18 
-3.58798e-18 
 1.43677e-17 
-8.32803e-17 
 1.00000e+00 
 1.00000e+00 
 1.00000e+00 
 1.00000e+00 
 1.00000e+00 
 1.00000e+00 
 1.00000e+00 
 1.00000e+00 
       00001 
 1.00000e+00 
 1.00000e+00 
 1.00000e+00 
 1.00000e+00 
       00001 
 4.20062e-17 
-6.53465e-18 
 4.43242e-18 
-8.08025e-19 
 6.36016e-19 
 4.41361e-18 
-8.40913e-18 
 1.00000e+00 
       00001 
       00001 
 1.00000e+00 
 1.00000e+00 
 4.72411e-17 
 9.79543e-01 
 1.00000e+00 
 1.00000e+00 
 1.00000e+00 
 1.00000e+00 
 1.00000e+00 
 1.00000e+00 
 4.55603e-17 
 2.37868e-18 
-6.65395e-18 
 3.34829e-18 
-6.17575e-19 
 1.74775e-18 
-1.23390e-17 
 3.95321e-17 
 1.00000e+00 
 1.00000e+00 
 1.00000e+00 
 1.00000e+00 
 1.00000e+00 
-1.35544e-16 
 1.53300e-16 
 1.00000e+00 
 1.00000e+00 
 1.00000e+00 
 1.00000e+00 
       00001 
       00001 
 3.24937e-17 
-1.76197e-17 
 2.35397e-18 
 1.17739e-18 
-1.55451e-18 
 2.23247e-18 
-2.19269e-18 
 2.10635e-17 
       00001 
 1.00000e+00 
 1.00000e+00 
 1.00000e+00 
-1.01097e-16 
 2.43364e-17 
-7.24620e-17 
 7.49597e-01 
 1.00000e+00 
       00001 
 1.00000e+00 
 1.00000e+00 
 1.32911e-01 
-3.00605e-17 
 2.82445e-18 
 2.67606e-18 
-1.94734e-18 
-7.25275e-19 
 2.56452e-18 
-1.37689e-17 
 4.87617e-17 
 1.00000e+00 
 1.00000e+00 
 1.00000e+00 
 1.00000e+00 
 5.38374e-17 
-4.20690e-17 
 4.22478e-17 
-7.87775e-17 
 1.00000e+00 
       00001 
 1.00000e+00 
 1.00000e+00 
-3.33879e-17 
 5.90319e-18 
 6.45531e-18 
-2.54325e-18 
 3.84694e-19 
-3.60646e-18 
 3.40433e-18 
-4.38168e-18 
 1.34428e-17 
 1.00000e+00 
 1.00000e+00 
       00001 
 4.55414e-01 
-9.04531e-17 
 1.46593e-17 
 2.99739e-18 
 4.32126e-17 
 1.00000e+00 
 1.00000e+00 
 1.00000e+00 
       00001 
 4.78078e-17 
 4.73256e-18 
-1.06385e-18 
-7.46636e-19 
 1.04476e-18 
-3.05809e-19 
 8.89434e-18 
-3.07896e-17 
 5.74096e-17 
 1.00000e+00 
 1.00000e+00 
 1.00000e+00 
-1.39412e-17 
 1.70081e-16 
 1.04878e-17 
-2.78860e-18 
 1.07490e-16 
 1.00000e+00 
       00001 
 1.00000e+00 
       00001 
 3.50293e-17 
-3.49930e-19 
-1.82635e-18 
 4.67925e-19 
-2.12876e-20 
 2.81410e-18 
-6.49509e-18 
-1.75543e-17 
 1.70162e-16 
 1.00000e+00 
       00001 
 1.00000e+00 
-1.27591e-17 
-5.22309e-17 
 1.31933e-17 
 9.64079e-18 
-5.49263e-17 
-8.61031e-17 
 1.00000e+00 
 1.00000e+00 
 1.00000e+00 
 4.35071e-17 
-4.86443e-18 
-1.41847e-18 
 8.32316e-19 
-3.80894e-19 
-1.38663e-18 
-4.42694e-18 
 3.17166e-17 
 9.12058e-01 
       00001 
 1.00000e+00 
       00001 
 1.52170e-16 
 3.80969e-18 
 4.12413e-18 
-7.79791e-18 
-3.08851e-17 
 4.32343e-17 
 1.00000e+00 
 1.00000e+00 
 1.00000e+00 
-9.06865e-17 
 3.53206e-18 
 1.62068e-18 
 3.50531e-20 
-3.67324e-19 
-2.20821e-18 
 9.68821e-18 
 3.25388e-17 
       00001 
 1.00000e+00 
 1.00000e+00 
 1.00000e+00 
 8.77080e-17 
-5.21434e-17 
 2.43547e-18 
-1.26818e-18 
 3.40410e-17 
 6.97252e-17 
 1.00000e+00 
 1.00000e+00 
 1.00000e+00 
 4.30972e-17 
 2.32440e-17 
-6.94130e-18 
 6.94049e-19 
 2.56793e-20 
 8.08861e-18 
-5.06676e-18 
-6.86729e-17 
 1.00000e+00 
 1.00000e+00 
 1.00000e+00 
 1.00000e+00 
-9.00149e-17 
-3.19485e-17 
 2.52213e-18 
-5.57152e-18 
-4.58479e-18 
-4.99019e-17 
 1.00000e+00 
       00001 
       00001 
-9.62089e-17 
 5.33900e-18 
-3.64981e-18 
 2.22413e-18 
-9.94199e-19 
-9.93831e-18 
 1.04902e-18 
-1.42168e-17 
 1.00000e+00 
 1.00000e+00 
 1.00000e+00 
       00001 
 1.23829e-16 
 1.98769e-17 
 2.63354e-18 
-6.69457e-18 
 2.04837e-17 
-2.14908e-17 
 1.00000e+00 
 1.00000e+00 
 1.00000e+00 
-2.17138e-17 
 1.01020e-17 
-2.13946e-18 
 6.13568e-19 
-7.69454e-19 
-1.11303e-17 
 2.67702e-17 
-9.21825e-17 
 1.00000e+00 
 1.00000e+00 
       00001 
 1.00000e+00 
-5.18774e-17 
-2.71612e-17 
 9.39421e-18 
-6.12751e-18 
 1.44256e-17 
-4.19487e-17 
 1.00000e+00 
 1.00000e+00 
       00001 
 8.69228e-01 
-4.62926e-17 
 1.34170e-19 
 8.60648e-19 
-3.48360e-19 
 4.86329e-18 
 1.66700e-17 
 5.40781e-01 
       00001 
 1.00000e+00 
       00001 
       00001 
 7.47813e-17 
 1.24462e-17 
 4.30665e-18 
-8.31474e-18 
 3.71806e-17 
-1.36018e-16 
 1.00000e+00 
 1.00000e+00 
       00001 
 9.67682e-01 
-4.92042e-17 
 1.24726e-17 
-1.34938e-18 
-1.74338e-19 
-4.30958e-18 
-1.61683e-17 
 1.00000e+00 
 1.00000e+00 
       00001 
 1.00000e+00 
 1.00000e+00 
 1.55556e-17 
-2.88499e-17 
 7.57640e-19 
-1.31935e-18 
 2.06288e-17 
-1.10702e-16 
 1.00000e+00 
 1.00000e+00 
 1.00000e+00 
 1.00000e+00 
 1.97760e-18 
 4.16186e-18 
-2.41122e-18 
 1.09474e-18 
-2.15687e-17 
 2.79629e-17 
 1.00000e+00 
 1.00000e+00 
 1.00000e+00 
       00001 
       00001 
 3.68422e-17 
 9.65883e-19 
 8.23225e-18 
-4.17916e-18 
 2.15454e-18 
-1.17950e-16 
 1.00000e+00 
 1.00000e+00 
 1.00000e+00 
 1.00000e+00 
-9.76308e-17 
 1.44674e-17 
-1.71266e-18 
 6.67150e-19 
-4.50768e-17 
 7.92676e-17 
 1.00000e+00 
 1.00000e+00 
 1.00000e+00 
       00001 
 1.00000e+00 
 2.25791e-17 
-1.27504e-17 
 3.28380e-18 
-7.12055e-18 
 2.88597e-17 
-3.50586e-17 
 1.00000e+00 
 1.00000e+00 
 1.00000e+00 
 1.00000e+00 
-2.20097e-17 
 7.35636e-18 
-3.59910e-18 
 1.54468e-18 
-2.11197e-17 
 9.74986e-17 
 1.00000e+00 
       00001 
       00001 
 1.00000e+00 
       00001 
-1.41076e-17 
-2.38084e-19 
 1.85761e-18 
-2.09752e-18 
 1.29607e-17 
-7.38192e-17 
 1.00000e+00 
 1.00000e+00 
 1.00000e+00 
 1.00000e+00 
-8.94217e-17 
 2.06919e-17 
-2.03241e-18 
 7.81645e-19 
 1.83251e-17 
 1.88393e-17 
       00001 
 1.00000e+00 
 1.00000e+00 
 1.00000e+00 
 7.40023e-01 
 3.12503e-17 
-5.53315e-19 
 1.21289e-19 
-3.27583e-18 
 9.25557e-18 
-6.11005e-17 
       00001 
 1.00000e+00 
 1.00000e+00 
       00001 
-1.03171e-17 
 2.68339e-17 
-9.62817e-18 
 3.09937e-18 
-5.87434e-17 
-5.93664e-18 
 1.00000e+00 
 1.00000e+00 
 1.00000e+00 
 1.00000e+00 
 3.10445e-01 
 1.82178e-17 
-6.04739e-18 
 1.48629e-18 
-1.78077e-18 
 1.47658e-17 
-8.31750e-17 
 1.00000e+00 
 1.00000e+00 
 1.00000e+00 
       00001 
-1.06599e-16 
 3.17279e-17 
-8.98170e-18 
 4.99494e-18 
-5.24252e-17 
 1.52834e-16 
       00001 
 1.00000e+00 
 1.00000e+00 
 1.00000e+00 
 6.51844e-02 
 1.67102e-18 
 2.25103e-18 
 4.77948e-19 
-2.70740e-18 
 4.74665e-18 
-4.63019e-18 
 1.00000e+00 
 1.00000e+00 
 1.00000e+00 
 1.00000e+00 
 1.32712e-16 
 5.74680e-18 
-9.31380e-18 
 5.39533e-18 
-4.40121e-17 
 1.54690e-17 
 1.00000e+00 
 1.00000e+00 
 1.00000e+00 
 1.00000e+00 
 1.45368e-03 
-1.53171e-17 
 3.14301e-19 
 5.38053e-19 
-3.89200e-18 
 1.46061e-17 
-5.43464e-17 
       00001 
 1.00000e+00 
 1.00000e+00 
       00001 
-3.77603e-17 
-1.36725e-17 
 3.10553e-18 
 1.65520e-18 
-4.28759e-17 
 1.37100e-16 
 1.00000e+00 
 1.00000e+00 
 1.00000e+00 
 1.00000e+00 
 3.16954e-17 
-2.44565e-17 
 7.58225e-18 
 5.38858e-20 
-4.24467e-18 
 1.86523e-17 
-7.34062e-17 
       00001 
 1.00000e+00 
 1.00000e+00 
 1.00000e+00 
-5.46880e-17 
 1.38047e-17 
-1.18351e-18 
-1.13730e-18 
 2.19518e-17 
 4.85551e-17 
 1.00000e+00 
 1.00000e+00 
 1.00000e+00 
       00001 
 8.10241e-17 
-2.45179e-17 
 5.19251e-18 
-1.26056e-18 
-3.11432e-18 
 1.73312e-17 
-8.14899e-17 
       00001 
 1.00000e+00 
 1.00000e+00 
 1.00000e+00 
-6.70575e-17 
 2.34086e-17 
-5.74544e-18 
 2.11737e-18 
-2.39721e-17 
-3.96066e-17 
 1.00000e+00 
       00001 
 1.00000e+00 
 1.00000e+00 
-4.20467e-17 
-1.30105e-17 
 7.39953e-18 
-1.48289e-18 
-1.11345e-18 
 9.74908e-18 
-6.11276e-17 
 1.00000e+00 
 1.00000e+00 
 1.00000e+00 
 1.00000e+00 
-2.72253e-17 
 1.62445e-17 
-6.60181e-18 
 3.47214e-18 
-5.42414e-17 
 1.09885e-16 
       00001 
       00001 
       00001 
 1.00000e+00 
 6.97158e-17 
 2.52194e-18 
 4.85457e-19 
-5.30841e-19 
-2.42557e-18 
 8.02398e-18 
-2.68178e-17 
       00001 
       00001 
 1.00000e+00 
 1.00000e+00 
 3.61338e-17 
 1.80488e-17 
-6.27814e-18 
 3.05051e-18 
-3.45049e-17 
-2.96233e-18 
       00001 
 1.00000e+00 
 1.00000e+00 
 1.00000e+00 
 7.68143e-17 
-1.85890e-17 
 1.66333e-18 
 7.82099e-19 
-2.66491e-18 
 1.26965e-17 
-5.79410e-17 
       00001 
 1.00000e+00 
 1.00000e+00 
 1.00000e+00 
-2.72523e-17 
-1.10584e-17 
-1.59294e-18 
 2.85169e-18 
-5.65692e-17 
 1.73431e-16 
 1.00000e+00 
 1.00000e+00 
 1.00000e+00 
       00001 
 7.39715e-17 
-2.54591e-17 
 6.05383e-18 
-3.27957e-19 
-3.24994e-18 
 1.09435e-17 
-3.25084e-17 
       00001 
 1.00000e+00 
 1.00000e+00 
       00001 
-9.61444e-18 
 1.91120e-17 
-5.04862e-19 
-5.36830e-19 
 1.28531e-17 
 8.89100e-17 
 1.00000e+00 
 1.00000e+00 
 1.00000e+00 
 1.00000e+00 
 3.06374e-17 
-1.85262e-17 
 6.34802e-18 
-1.69313e-18 
-1.95149e-18 
 1.32633e-17 
-5.70188e-17 
       00001 
 1.00000e+00 
 1.00000e+00 
 1.00000e+00 
-2.73181e-17 
 2.00459e-17 
-8.65264e-18 
 2.86666e-18 
-2.43768e-17 
-3.28695e-17 
 1.00000e+00 
 1.00000e+00 
 1.00000e+00 
 1.00000e+00 
-2.23755e-17 
-8.03375e-18 
 3.69409e-18 
-1.85257e-18 
-5.58034e-19 
 5.76225e-18 
-4.43657e-17 
 1.00000e+00 
 1.00000e+00 
 1.00000e+00 
 1.00000e+00 
-5.49815e-17 
 1.15428e-17 
-8.14714e-18 
 5.12814e-18 
 7.30299e-17 
 1.02720e-16 
       00001 
 1.00000e+00 
       00001 
 1.00000e+00 
 7.11135e-17 
 7.28596e-18 
-4.64943e-18 
 2.04896e-17 
 1.11917e-17 
 4.23794e-18 
-5.27057e-18 
       00001 
 1.00000e+00 
 1.00000e+00 
 1.00000e+00 
-3.66895e-18 
 2.23630e-19 
 3.99339e-18 
 8.54307e-18 
 1.00000e+00 
 1.00000e+00 
 1.00000e+00 
 1.00000e+00 
 1.00000e+00 
       00001 
 1.00000e+00 
 5.09997e-01 
 1.43084e-16 
-5.04439e-17 
-2.06639e-16 
-3.28274e-17 
       00001 
 1.00000e+00 
 1.00000e+00 
 1.00000e+00 
 1.00000e+00 
 1.00000e+00 
       00001 
 1.00000e+00 
-1.27450e-16 
       00001 
 1.00000e+00 
       00001 
 1.00000e+00 
 1.00000e+00 
 1.00000e+00 
 1.00000e+00 
       00001 
 1.00000e+00 
 1.00000e+00 
 1.00000e+00 
 1.00000e+00 
 1.00000e+00 
 1.00000e+00 
 1.00000e+00 
 1.00000e+00 
 1.00000e+00 
 1.00000e+00 
 1.00000e+00 
 1.00000e+00 
       00001 
       00001 
       00001 
 1.00000e+00 
 1.00000e+00 
 1.00000e+00 
       00001 
 1.00000e+00 
       00001 
 1.00000e+00 
       00001 
 1.00000e+00 
 1.00000e+00 
       00001 
 1.00000e+00 
 1.00000e+00 
       00001 
 1.00000e+00 
 1.00000e+00 
       00001 
-1.10831e-16 
       00001 
 1.92551e-17 
 1.00000e+00 
 1.00000e+00 
 1.00000e+00 
 1.00000e+00 
 1.00000e+00 
 1.00000e+00 
       00001 
 1.00000e+00 
 1.00000e+00 
 1.00000e+00 
 1.00000e+00 
       00001 
 1.00000e+00 
 1.00000e+00 
 1.00000e+00 
 1.00000e+00 
       00001 
 5.31724e-01 
 1.30936e-16 
-1.68100e-17 
-1.14702e-17 
-8.66085e-17 
 1.00000e+00 
 1.00000e+00 
 1.00000e+00 
 1.00000e+00 
 1.00000e+00 
       00001 
 1.00000e+00 
 1.00000e+00 
 1.00000e+00 
 1.00000e+00 
       00001 
       00001 
 1.00000e+00 
 1.00000e+00 
 1.00000e+00 
 1.00000e+00 
 1.69637e-16 
 8.33941e-17 
 6.90018e-17 
-8.64756e-18 
 1.42985e-17 
 8.95808e-01 
       00001 
 1.00000e+00 
 1.00000e+00 
 1.00000e+00 
 1.00000e+00 
 1.00000e+00 
       00001 
 1.00000e+00 
 1.00000e+00 
       00001 
 1.00000e+00 
 1.00000e+00 
 1.00000e+00 
       00001 
 1.00000e+00 
 1.76519e-16 
-4.23605e-17 
-1.58009e-17 
-7.97254e-19 
 2.40596e-17 
-1.40324e-16 
 1.00000e+00 
 1.00000e+00 
       00001 
 1.00000e+00 
       00001 
 1.00000e+00 
       00001 
 1.00000e+00 
 1.00000e+00 
 1.00000e+00 
 1.00000e+00 
       00001 
 1.00000e+00 
 1.00000e+00 
 1.00000e+00 
 1.63610e-16 
-4.87047e-17 
 2.08544e-17 
 4.51942e-18 
-1.58458e-17 
 5.32813e-18 
 1.00000e+00 
       00001 
       00001 
 1.00000e+00 
       00001 
 1.00000e+00 
       00001 
 1.00000e+00 
 1.00000e+00 
 1.00000e+00 
       00001 
       00001 
       00001 
 1.00000e+00 
       00001 
 6.63454e-17 
-1.21678e-17 
 3.25681e-19 
-3.35487e-18 
 5.01014e-18 
 3.68653e-17 
 1.00000e+00 
       00001 
 1.00000e+00 
 1.00000e+00 
 1.00000e+00 
 1.00000e+00 
 1.00000e+00 
 1.00000e+00 
 1.00000e+00 
 1.00000e+00 
       00001 
 1.00000e+00 
 1.00000e+00 
 1.00000e+00 
 9.94108e-01 
 3.31278e-17 
-1.86580e-17 
 6.76428e-18 
 1.34401e-18 
 9.98325e-19 
-3.30964e-17 
 1.11199e-01 
 1.00000e+00 
 1.00000e+00 
 1.00000e+00 
       00001 
 1.00000e+00 
 1.00000e+00 
 1.00000e+00 
       00001 
       00001 
       00001 
 1.00000e+00 
 1.00000e+00 
 1.00000e+00 
-4.32933e-18 
 3.22583e-18 
-3.04961e-18 
 6.08164e-18 
 1.21914e-19 
-1.64709e-18 
 2.92294e-18 
 3.30121e-17 
 1.00000e+00 
 1.00000e+00 
 1.00000e+00 
 1.00000e+00 
 1.00000e+00 
 2.34754e-01 
 1.00000e+00 
 1.00000e+00 
 1.00000e+00 
 1.00000e+00 
 1.00000e+00 
 1.00000e+00 
 1.00000e+00 
-7.04170e-17 
 1.16905e-17 
-3.90403e-18 
 1.03074e-18 
-3.07872e-19 
 6.68798e-19 
 4.21569e-18 
-5.76852e-17 
 1.00000e+00 
       00001 
 1.00000e+00 
 1.00000e+00 
 1.00000e+00 
 4.43567e-17 
 9.74333e-01 
 1.00000e+00 
 1.00000e+00 
 1.00000e+00 
 1.00000e+00 
 1.00000e+00 
       00001 
 4.64987e-17 
-8.60304e-19 
-1.73565e-18 
 2.10012e-18 
-6.32389e-19 
 1.63389e-19 
-8.93159e-19 
 2.00366e-17 
       00001 
       00001 
 1.00000e+00 
 1.00000e+00 
       00001 
 1.63685e-17 
 5.50496e-17 
 1.00000e+00 
 1.00000e+00 
 1.00000e+00 
 1.00000e+00 
 1.00000e+00 
 9.91920e-01 
-2.01724e-17 
-4.71400e-18 
 2.66641e-18 
-6.62497e-19 
-5.78259e-19 
 2.30947e-18 
-5.02764e-18 
-2.04262e-17 
       00001 
 1.00000e+00 
 1.00000e+00 
 1.00000e+00 
 1.80002e-01 
 1.83446e-17 
-2.99671e-17 
 1.00000e+00 
 1.00000e+00 
 1.00000e+00 
 1.00000e+00 
       00001 
 1.93505e-01 
-3.75949e-17 
 1.03362e-17 
-1.54991e-18 
-6.54071e-19 
-4.53724e-19 
-2.36581e-19 
-5.41385e-18 
 4.90020e-17 
       00001 
       00001 
 1.00000e+00 
 1.00000e+00 
-7.06361e-17 
-5.22696e-17 
 8.76687e-17 
 4.30130e-01 
       00001 
 1.00000e+00 
 1.00000e+00 
 1.00000e+00 
-5.30117e-17 
-6.61918e-18 
 3.41961e-18 
-2.06557e-18 
 1.34988e-18 
-2.15277e-18 
 3.80803e-18 
-1.43163e-18 
 1.45817e-18 
 1.00000e+00 
 1.00000e+00 
 1.00000e+00 
 1.00000e+00 
-7.68765e-17 
 5.22503e-17 
 2.58051e-17 
-2.48125e-16 
 1.00000e+00 
 1.00000e+00 
       00001 
       00001 
-1.10444e-16 
 1.63935e-17 
-1.46898e-18 
-5.92196e-21 
 3.93906e-19 
 1.79021e-18 
-4.11997e-19 
-1.55699e-17 
 3.74969e-17 
 1.00000e+00 
 1.00000e+00 
 1.00000e+00 
 8.55887e-01 
-1.46987e-16 
-7.51930e-17 
-3.04228e-17 
-9.31944e-17 
 1.00000e+00 
 1.00000e+00 
 1.00000e+00 
 1.00000e+00 
-6.89496e-17 
 2.20599e-17 
-4.76427e-18 
 8.93464e-19 
-2.43439e-19 
 4.82242e-19 
-1.53199e-18 
 2.53597e-17 
-2.41019e-17 
 1.00000e+00 
 1.00000e+00 
 1.00000e+00 
 2.38247e-02 
-3.45924e-17 
 4.43169e-17 
 1.70657e-17 
 8.92749e-17 
       00001 
 1.00000e+00 
 1.00000e+00 
 1.00000e+00 
-5.22573e-17 
 4.80912e-18 
-2.81237e-18 
 1.17896e-18 
-5.94974e-19 
-2.05585e-18 
 1.24269e-18 
-2.43453e-17 
 1.11429e-16 
 1.00000e+00 
 1.00000e+00 
 1.00000e+00 
 4.69699e-17 
 2.49858e-17 
-1.00065e-17 
-6.31686e-18 
-3.31940e-17 
 1.10392e-01 
 1.00000e+00 
       00001 
 1.00000e+00 
-1.80685e-16 
 3.86777e-17 
-3.98007e-18 
 2.87762e-19 
-2.56640e-19 
 7.56766e-18 
-2.65082e-18 
-1.94177e-17 
 3.43070e-17 
 1.00000e+00 
 1.00000e+00 
 1.00000e+00 
 1.48657e-16 
 3.42451e-17 
 7.48658e-18 
 2.23821e-18 
 3.40641e-18 
-1.43581e-16 
 1.00000e+00 
 1.00000e+00 
 1.00000e+00 
-5.55134e-17 
 2.14396e-17 
-9.75571e-18 
 2.31761e-18 
-5.05021e-19 
 4.37491e-18 
-2.71728e-17 
 1.19957e-16 
 8.47223e-01 
       00001 
 1.00000e+00 
 1.00000e+00 
-6.80891e-17 
-4.56290e-19 
 6.34724e-18 
-3.94631e-19 
 1.15162e-17 
 3.42986e-17 
 1.00000e+00 
 1.00000e+00 
       00001 
-1.42701e-17 
 1.51333e-17 
-3.87731e-18 
 1.88357e-18 
-1.27858e-18 
-7.83039e-18 
 1.23026e-17 
 8.19714e-17 
 1.00000e+00 
 1.00000e+00 
 1.00000e+00 
 1.00000e+00 
 1.46750e-16 
-3.27548e-17 
-6.18235e-18 
-2.88018e-18 
 1.45332e-17 
-1.09723e-16 
 1.00000e+00 
 1.00000e+00 
 1.00000e+00 
-1.97598e-16 
 3.13406e-17 
-5.62995e-18 
 1.03579e-18 
-5.45213e-19 
-1.56811e-18 
 9.12851e-18 
-1.11822e-16 
 1.00000e+00 
 1.00000e+00 
 1.00000e+00 
 6.68058e-01 
-4.56301e-17 
-1.34269e-17 
 5.08818e-18 
-9.14443e-18 
 2.07635e-17 
-2.23589e-17 
       00001 
 1.00000e+00 
 1.00000e+00 
-1.54504e-16 
-4.05139e-18 
-1.69555e-18 
 1.18553e-18 
-6.02017e-19 
 4.94012e-18 
-1.36352e-17 
-1.03210e-16 
 1.00000e+00 
 1.00000e+00 
 1.00000e+00 
 3.60908e-01 
 1.17062e-16 
-5.53210e-19 
-1.04772e-18 
-5.28787e-18 
 1.65394e-17 
-9.15494e-17 
 1.00000e+00 
 1.00000e+00 
 1.00000e+00 
 3.36038e-01 
-5.09448e-18 
 3.28712e-18 
-8.76812e-19 
-4.14002e-20 
-3.85654e-18 
 7.44651e-18 
 4.70661e-17 
 1.00000e+00 
 1.00000e+00 
 1.00000e+00 
 2.36527e-01 
 8.37140e-18 
-1.84111e-17 
 3.28317e-18 
 2.81141e-18 
-1.96024e-18 
 1.86933e-17 
       00001 
 1.00000e+00 
 1.00000e+00 
 8.02097e-01 
-2.70262e-17 
 2.45317e-19 
-1.32474e-19 
 4.27825e-19 
-1.49878e-17 
 1.07630e-17 
 6.65042e-17 
 1.00000e+00 
 1.00000e+00 
 1.00000e+00 
 1.58907e-01 
 4.72166e-17 
-8.01394e-18 
-1.66427e-18 
-6.04360e-18 
 8.56981e-19 
 8.00522e-17 
 1.00000e+00 
 1.00000e+00 
 1.00000e+00 
 9.87131e-01 
 1.64655e-17 
 7.75476e-18 
-1.81373e-18 
 3.24271e-19 
-1.19075e-17 
 3.34992e-17 
-5.46438e-17 
       00001 
 1.00000e+00 
 1.00000e+00 
-6.27795e-17 
 8.24324e-18 
-7.08467e-18 
 3.14788e-18 
-3.20723e-18 
 2.13999e-17 
-1.17924e-16 
 9.06066e-01 
 1.00000e+00 
 1.00000e+00 
 1.00000e+00 
-1.07583e-16 
 2.94735e-18 
-2.82475e-19 
 7.44133e-19 
 1.30452e-17 
-1.80596e-17 
 2.22421e-01 
 1.00000e+00 
       00001 
 1.00000e+00 
 4.02434e-17 
-5.23257e-18 
 3.12458e-19 
 2.15759e-18 
 4.96391e-20 
-1.14643e-18 
-1.58914e-17 
 6.99876e-01 
 1.00000e+00 
 1.00000e+00 
 1.00000e+00 
-2.04254e-16 
 3.98239e-17 
-5.50125e-18 
 5.89420e-19 
-1.03606e-17 
-4.66999e-17 
 4.00464e-01 
 1.00000e+00 
 1.00000e+00 
 1.00000e+00 
 1.75079e-16 
-9.53997e-18 
-1.97130e-18 
 1.20683e-19 
-1.74355e-18 
 2.47722e-18 
 4.07942e-17 