<?xml version="1.0" encoding="utf-8"?>
<VTKFile byte_order="LittleEndian" type="UnstructuredGrid" version="0.1">
   <UnstructuredGrid>
      <Piece NumberOfCells="4704" NumberOfPoints="2426">
         <Points>
            <DataArray Name="Points" NumberOfComponents="3" format="ascii" type="Float32">
0.0000 0.0000 0.0000
0.0000 0.0417 0.0000
0.0000 0.0833 0.0000
0.0000 0.1250 0.0000
0.0000 0.1667 0.0000
0.0000 0.2083 0.0000
0.0000 0.2500 0.0000
0.0000 0.2917 0.0000
0.0000 0.3333 0.0000
0.0000 0.3750 0.0000
0.0000 0.4167 0.0000
0.0000 0.4583 0.0000
0.0000 0.5000 0.0000
0.0000 0.5417 0.0000
0.0000 0.5833 0.0000
0.0000 0.6250 0.0000
0.0000 0.6667 0.0000
0.0000 0.7083 0.0000
0.0000 0.7500 0.0000
0.0000 0.7917 0.0000
0.0000 0.8333 0.0000
0.0000 0.8750 0.0000
0.0000 0.9167 0.0000
0.0000 0.9583 0.0000
0.0000 1.0000 0.0000
0.0408 0.0000 0.0000
0.0408 0.0417 0.0000
0.0408 0.0833 0.0000
0.0408 0.1250 0.0000
0.0408 0.1667 0.0000
0.0408 0.2083 0.0000
0.0408 0.2500 0.0000
0.0408 0.2917 0.0000
0.0408 0.3333 0.0000
0.0408 0.3750 0.0000
0.0408 0.4167 0.0000
0.0408 0.4583 0.0000
0.0408 0.5000 0.0000
0.0408 0.5417 0.0000
0.0408 0.5833 0.0000
0.0408 0.6250 0.0000
0.0408 0.6667 0.0000
0.0408 0.7083 0.0000
0.0408 0.7500 0.0000
0.0408 0.7917 0.0000
0.0408 0.8333 0.0000
0.0408 0.8750 0.0000
0.0408 0.9167 0.0000
0.0408 0.9583 0.0000
0.0408 1.0000 0.0000
0.0816 0.0000 0.0000
0.0816 0.0417 0.0000
0.0816 0.0833 0.0000
0.0816 0.1250 0.0000
0.0816 0.1667 0.0000
0.0816 0.2083 0.0000
0.0816 0.2500 0.0000
0.0816 0.2917 0.0000
0.0816 0.3333 0.0000
0.0816 0.3750 0.0000
0.0816 0.4167 0.0000
0.0816 0.4583 0.0000
0.0816 0.5000 0.0000
0.0816 0.5417 0.0000
0.0816 0.5833 0.0000
0.0816 0.6250 0.0000
0.0816 0.6667 0.0000
0.0816 0.7083 0.0000
0.0816 0.7500 0.0000
0.0816 0.7917 0.0000
0.0816 0.8333 0.0000
0.0816 0.8750 0.0000
0.0816 0.9167 0.0000
0.0816 0.9583 0.0000
0.0816 1.0000 0.0000
0.1224 0.0000 0.0000
0.1224 0.0417 0.0000
0.1224 0.0833 0.0000
0.1224 0.1250 0.0000
0.1224 0.1667 0.0000
0.1224 0.2083 0.0000
0.1224 0.2500 0.0000
0.1224 0.2917 0.0000
0.1224 0.3333 0.0000
0.1224 0.3750 0.0000
0.1224 0.4167 0.0000
0.1224 0.4583 0.0000
0.1224 0.5000 0.0000
0.1224 0.5417 0.0000
0.1224 0.5833 0.0000
0.1224 0.6250 0.0000
0.1224 0.6667 0.0000
0.1224 0.7083 0.0000
0.1224 0.7500 0.0000
0.1224 0.7917 0.0000
0.1224 0.8333 0.0000
0.1224 0.8750 0.0000
0.1224 0.9167 0.0000
0.1224 0.9583 0.0000
0.1224 1.0000 0.0000
0.1633 0.0000 0.0000
0.1633 0.0417 0.0000
0.1633 0.0833 0.0000
0.1633 0.1250 0.0000
0.1633 0.1667 0.0000
0.1633 0.2083 0.0000
0.1633 0.2500 0.0000
0.1633 0.2917 0.0000
0.1633 0.3333 0.0000
0.1633 0.3750 0.0000
0.1633 0.4167 0.0000
0.1633 0.4583 0.0000
0.1633 0.5000 0.0000
0.1633 0.5417 0.0000
0.1633 0.5833 0.0000
0.1633 0.6250 0.0000
0.1633 0.6667 0.0000
0.1633 0.7083 0.0000
0.1633 0.7500 0.0000
0.1633 0.7917 0.0000
0.1633 0.8333 0.0000
0.1633 0.8750 0.0000
0.1633 0.9167 0.0000
0.1633 0.9583 0.0000
0.1633 1.0000 0.0000
0.2041 0.0000 0.0000
0.2041 0.0417 0.0000
0.2041 0.0833 0.0000
0.2041 0.1250 0.0000
0.2041 0.1667 0.0000
0.2041 0.2083 0.0000
0.2041 0.2500 0.0000
0.2041 0.2917 0.0000
0.2041 0.3333 0.0000
0.2041 0.3750 0.0000
0.2041 0.4167 0.0000
0.2041 0.4583 0.0000
0.2041 0.5000 0.0000
0.2041 0.5417 0.0000
0.2041 0.5833 0.0000
0.2041 0.6250 0.0000
0.2041 0.6667 0.0000
0.2041 0.7083 0.0000
0.2041 0.7500 0.0000
0.2041 0.7917 0.0000
0.2041 0.8333 0.0000
0.2041 0.8750 0.0000
0.2041 0.9167 0.0000
0.2041 0.9583 0.0000
0.2041 1.0000 0.0000
0.2449 0.0000 0.0000
0.2449 0.0417 0.0000
0.2449 0.0833 0.0000
0.2449 0.1250 0.0000
0.2449 0.1667 0.0000
0.2449 0.2083 0.0000
0.2449 0.2500 0.0000
0.2449 0.2917 0.0000
0.2449 0.3333 0.0000
0.2449 0.3750 0.0000
0.2449 0.4167 0.0000
0.2449 0.4583 0.0000
0.2449 0.5000 0.0000
0.2449 0.5417 0.0000
0.2449 0.5833 0.0000
0.2449 0.6250 0.0000
0.2449 0.6667 0.0000
0.2449 0.7083 0.0000
0.2449 0.7500 0.0000
0.2449 0.7917 0.0000
0.2449 0.8333 0.0000
0.2449 0.8750 0.0000
0.2449 0.9167 0.0000
0.2449 0.9583 0.0000
0.2449 1.0000 0.0000
0.2857 0.0000 0.0000
0.2857 0.0417 0.0000
0.2857 0.0833 0.0000
0.2857 0.1250 0.0000
0.2857 0.1667 0.0000
0.2857 0.2083 0.0000
0.2857 0.2500 0.0000
0.2857 0.2917 0.0000
0.2857 0.3333 0.0000
0.2857 0.3750 0.0000
0.2857 0.4167 0.0000
0.2857 0.4583 0.0000
0.2857 0.5000 0.0000
0.2857 0.5417 0.0000
0.2857 0.5833 0.0000
0.2857 0.6250 0.0000
0.2857 0.6667 0.0000
0.2857 0.7083 0.0000
0.2857 0.7500 0.0000
0.2857 0.7917 0.0000
0.2857 0.8333 0.0000
0.2857 0.8750 0.0000
0.2857 0.9167 0.0000
0.2857 0.9583 0.0000
0.2857 1.0000 0.0000
0.3265 0.0000 0.0000
0.3265 0.0417 0.0000
0.3265 0.0833 0.0000
0.3265 0.1250 0.0000
0.3265 0.1667 0.0000
0.3265 0.2083 0.0000
0.3265 0.2500 0.0000
0.3265 0.2917 0.0000
0.3265 0.3333 0.0000
0.3265 0.3750 0.0000
0.3265 0.4167 0.0000
0.3265 0.4583 0.0000
0.3265 0.5000 0.0000
0.3265 0.5417 0.0000
0.3265 0.5833 0.0000
0.3265 0.6250 0.0000
0.3265 0.6667 0.0000
0.3265 0.7083 0.0000
0.3265 0.7500 0.0000
0.3265 0.7917 0.0000
0.3265 0.8333 0.0000
0.3265 0.8750 0.0000
0.3265 0.9167 0.0000
0.3265 0.9583 0.0000
0.3265 1.0000 0.0000
0.3673 0.0000 0.0000
0.3673 0.0417 0.0000
0.3673 0.0833 0.0000
0.3673 0.1250 0.0000
0.3673 0.1667 0.0000
0.3673 0.2083 0.0000
0.3673 0.2500 0.0000
0.3673 0.2917 0.0000
0.3673 0.3333 0.0000
0.3673 0.3750 0.0000
0.3673 0.4167 0.0000
0.3673 0.4583 0.0000
0.3673 0.5000 0.0000
0.3673 0.5417 0.0000
0.3673 0.5833 0.0000
0.3673 0.6250 0.0000
0.3673 0.6667 0.0000
0.3673 0.7083 0.0000
0.3673 0.7500 0.0000
0.3673 0.7917 0.0000
0.3673 0.8333 0.0000
0.3673 0.8750 0.0000
0.3673 0.9167 0.0000
0.3673 0.9583 0.0000
0.3673 1.0000 0.0000
0.4082 0.0000 0.0000
0.4082 0.0417 0.0000
0.4082 0.0833 0.0000
0.4082 0.1250 0.0000
0.4082 0.1667 0.0000
0.4082 0.2083 0.0000
0.4082 0.2500 0.0000
0.4082 0.2917 0.0000
0.4082 0.3333 0.0000
0.4082 0.3750 0.0000
0.4082 0.4167 0.0000
0.4082 0.4583 0.0000
0.4082 0.5000 0.0000
0.4082 0.5417 0.0000
0.4082 0.5833 0.0000
0.4082 0.6250 0.0000
0.4082 0.6667 0.0000
0.4082 0.7083 0.0000
0.4082 0.7500 0.0000
0.4082 0.7917 0.0000
0.4082 0.8333 0.0000
0.4082 0.8750 0.0000
0.4082 0.9167 0.0000
0.4082 0.9583 0.0000
0.4082 1.0000 0.0000
0.4490 0.0000 0.0000
0.4490 0.0417 0.0000
0.4490 0.0833 0.0000
0.4490 0.1250 0.0000
0.4490 0.1667 0.0000
0.4490 0.2083 0.0000
0.4490 0.2500 0.0000
0.4490 0.2917 0.0000
0.4490 0.3333 0.0000
0.4490 0.3750 0.0000
0.4490 0.4167 0.0000
0.4490 0.4583 0.0000
0.4490 0.5000 0.0000
0.4490 0.5417 0.0000
0.4490 0.5833 0.0000
0.4490 0.6250 0.0000
0.4490 0.6667 0.0000
0.4490 0.7083 0.0000
0.4490 0.7500 0.0000
0.4490 0.7917 0.0000
0.4490 0.8333 0.0000
0.4490 0.8750 0.0000
0.4490 0.9167 0.0000
0.4490 0.9583 0.0000
0.4490 1.0000 0.0000
0.4898 0.0000 0.0000
0.4898 0.0417 0.0000
0.4898 0.0833 0.0000
0.4898 0.1250 0.0000
0.4898 0.1667 0.0000
0.4898 0.2083 0.0000
0.4898 0.2500 0.0000
0.4898 0.2917 0.0000
0.4898 0.3333 0.0000
0.4898 0.3750 0.0000
0.4898 0.4167 0.0000
0.4898 0.4583 0.0000
0.4898 0.5000 0.0000
0.4898 0.5417 0.0000
0.4898 0.5833 0.0000
0.4898 0.6250 0.0000
0.4898 0.6667 0.0000
0.4898 0.7083 0.0000
0.4898 0.7500 0.0000
0.4898 0.7917 0.0000
0.4898 0.8333 0.0000
0.4898 0.8750 0.0000
0.4898 0.9167 0.0000
0.4898 0.9583 0.0000
0.4898 1.0000 0.0000
0.5306 0.0000 0.0000
0.5306 0.0417 0.0000
0.5306 0.0833 0.0000
0.5306 0.1250 0.0000
0.5306 0.1667 0.0000
0.5306 0.2083 0.0000
0.5306 0.2500 0.0000
0.5306 0.2917 0.0000
0.5306 0.3333 0.0000
0.5306 0.3750 0.0000
0.5306 0.4167 0.0000
0.5306 0.4583 0.0000
0.5306 0.5000 0.0000
0.5306 0.5417 0.0000
0.5306 0.5833 0.0000
0.5306 0.6250 0.0000
0.5306 0.6667 0.0000
0.5306 0.7083 0.0000
0.5306 0.7500 0.0000
0.5306 0.7917 0.0000
0.5306 0.8333 0.0000
0.5306 0.8750 0.0000
0.5306 0.9167 0.0000
0.5306 0.9583 0.0000
0.5306 1.0000 0.0000
0.5714 0.0000 0.0000
0.5714 0.0417 0.0000
0.5714 0.0833 0.0000
0.5714 0.1250 0.0000
0.5714 0.1667 0.0000
0.5714 0.2083 0.0000
0.5714 0.2500 0.0000
0.5714 0.2917 0.0000
0.5714 0.3333 0.0000
0.5714 0.3750 0.0000
0.5714 0.4167 0.0000
0.5714 0.4583 0.0000
0.5714 0.5000 0.0000
0.5714 0.5417 0.0000
0.5714 0.5833 0.0000
0.5714 0.6250 0.0000
0.5714 0.6667 0.0000
0.5714 0.7083 0.0000
0.5714 0.7500 0.0000
0.5714 0.7917 0.0000
0.5714 0.8333 0.0000
0.5714 0.8750 0.0000
0.5714 0.9167 0.0000
0.5714 0.9583 0.0000
0.5714 1.0000 0.0000
0.6122 0.0000 0.0000
0.6122 0.0417 0.0000
0.6122 0.0833 0.0000
0.6122 0.1250 0.0000
0.6122 0.1667 0.0000
0.6122 0.2083 0.0000
0.6122 0.2500 0.0000
0.6122 0.2917 0.0000
0.6122 0.3333 0.0000
0.6122 0.3750 0.0000
0.6122 0.4167 0.0000
0.6122 0.4583 0.0000
0.6122 0.5000 0.0000
0.6122 0.5417 0.0000
0.6122 0.5833 0.0000
0.6122 0.6250 0.0000
0.6122 0.6667 0.0000
0.6122 0.7083 0.0000
0.6122 0.7500 0.0000
0.6122 0.7917 0.0000
0.6122 0.8333 0.0000
0.6122 0.8750 0.0000
0.6122 0.9167 0.0000
0.6122 0.9583 0.0000
0.6122 1.0000 0.0000
0.6531 0.0000 0.0000
0.6531 0.0417 0.0000
0.6531 0.0833 0.0000
0.6531 0.1250 0.0000
0.6531 0.1667 0.0000
0.6531 0.2083 0.0000
0.6531 0.2500 0.0000
0.6531 0.2917 0.0000
0.6531 0.3333 0.0000
0.6531 0.3750 0.0000
0.6531 0.4167 0.0000
0.6531 0.4583 0.0000
0.6531 0.5000 0.0000
0.6531 0.5417 0.0000
0.6531 0.5833 0.0000
0.6531 0.6250 0.0000
0.6531 0.6667 0.0000
0.6531 0.7083 0.0000
0.6531 0.7500 0.0000
0.6531 0.7917 0.0000
0.6531 0.8333 0.0000
0.6531 0.8750 0.0000
0.6531 0.9167 0.0000
0.6531 0.9583 0.0000
0.6531 1.0000 0.0000
0.6939 0.0000 0.0000
0.6939 0.0417 0.0000
0.6939 0.0833 0.0000
0.6939 0.1250 0.0000
0.6939 0.1667 0.0000
0.6939 0.2083 0.0000
0.6939 0.2500 0.0000
0.6939 0.2917 0.0000
0.6939 0.3333 0.0000
0.6939 0.3750 0.0000
0.6939 0.4167 0.0000
0.6939 0.4583 0.0000
0.6939 0.5000 0.0000
0.6939 0.5417 0.0000
0.6939 0.5833 0.0000
0.6939 0.6250 0.0000
0.6939 0.6667 0.0000
0.6939 0.7083 0.0000
0.6939 0.7500 0.0000
0.6939 0.7917 0.0000
0.6939 0.8333 0.0000
0.6939 0.8750 0.0000
0.6939 0.9167 0.0000
0.6939 0.9583 0.0000
0.6939 1.0000 0.0000
0.7347 0.0000 0.0000
0.7347 0.0417 0.0000
0.7347 0.0833 0.0000
0.7347 0.1250 0.0000
0.7347 0.1667 0.0000
0.7347 0.2083 0.0000
0.7347 0.2500 0.0000
0.7347 0.2917 0.0000
0.7347 0.3333 0.0000
0.7347 0.3750 0.0000
0.7347 0.4167 0.0000
[...]
         <PointData>
            <DataArray Name="displacement" NumberOfComponents="2" format="ascii" type="Float64">
 6.25048e+13  3.00040e+00 
 5.88634e+13  8.54851e+00 
 5.52220e+13  1.35096e+01 
 5.15806e+13  1.67002e+01 
 4.79392e+13  1.89535e+01 
 4.42979e+13  2.06817e+01 
 4.06565e+13  2.21045e+01 
 3.70151e+13  2.32997e+01 
 3.33737e+13  2.43091e+01 
 2.97323e+13  2.51730e+01 
 2.60909e+13  2.59296e+01 
 2.24495e+13  2.65551e+01 
 1.88081e+13  2.70757e+01 
 1.51667e+13  2.75034e+01 
 1.15253e+13  2.78430e+01 
 7.88393e+12  2.81132e+01 
 4.24254e+12  2.83134e+01 
 6.01148e+11  2.84633e+01 
-3.04024e+12  2.85653e+01 
-6.68164e+12  2.86259e+01 
-1.03230e+13  2.86543e+01 
-1.39644e+13  2.86739e+01 
-1.76058e+13  2.86839e+01 
-2.12472e+13  2.86847e+01 
-2.48886e+13  2.86867e+01 
 6.25048e+13  3.56708e+12 
 5.88634e+13  3.56708e+12 
 5.52220e+13  3.56708e+12 
 5.15806e+13  3.56708e+12 
 4.79392e+13  3.56708e+12 
 4.42979e+13  3.56708e+12 
 4.06565e+13  3.56708e+12 
 3.70151e+13  3.56708e+12 
 3.33737e+13  3.56708e+12 
 2.97323e+13  3.56708e+12 
 2.60909e+13  3.56708e+12 
 2.24495e+13  3.56708e+12 
 1.88081e+13  3.56708e+12 
 1.51667e+13  3.56708e+12 
 1.15253e+13  3.56708e+12 
 7.88393e+12  3.56708e+12 
 4.24254e+12  3.56708e+12 
 6.01148e+11  3.56708e+12 
-3.04024e+12  3.56708e+12 
-6.68164e+12  3.56708e+12 
-1.03230e+13  3.56708e+12 
-1.39644e+13  3.56708e+12 
-1.76058e+13  3.56708e+12 
-2.12472e+13  3.56708e+12 
-2.48886e+13  3.56708e+12 
 6.25048e+13  7.13416e+12 
 5.88634e+13  7.13416e+12 
 5.52220e+13  7.13416e+12 
 5.15806e+13  7.13416e+12 
 4.79392e+13  7.13416e+12 
 4.42979e+13  7.13416e+12 
 4.06565e+13  7.13416e+12 
 3.70151e+13  7.13416e+12 
 3.33737e+13  7.13416e+12 
 2.97323e+13  7.13416e+12 
 2.60909e+13  7.13416e+12 
 2.24495e+13  7.13416e+12 
 1.88081e+13  7.13416e+12 
 1.51667e+13  7.13416e+12 
 1.15253e+13  7.13416e+12 
 7.88393e+12  7.13416e+12 
 4.24254e+12  7.13416e+12 
 6.01148e+11  7.13416e+12 
-3.04024e+12  7.13416e+12 
-6.68164e+12  7.13416e+12 
-1.03230e+13  7.13416e+12 
-1.39644e+13  7.13416e+12 
-1.76058e+13  7.13416e+12 
-2.12472e+13  7.13416e+12 
-2.48886e+13  7.13416e+12 
 6.25048e+13  1.07012e+13 
 5.88634e+13  1.07012e+13 
 5.52220e+13  1.07012e+13 
 5.15806e+13  1.07012e+13 
 4.79392e+13  1.07012e+13 
 4.42979e+13  1.07012e+13 
 4.06565e+13  1.07012e+13 
 3.70151e+13  1.07012e+13 
 3.33737e+13  1.07012e+13 
 2.97323e+13  1.07012e+13 
 2.60909e+13  1.07012e+13 
 2.24495e+13  1.07012e+13 
 1.88081e+13  1.07012e+13 
 1.51667e+13  1.07012e+13 
 1.15253e+13  1.07012e+13 
 7.88393e+12  1.07012e+13 
 4.24254e+12  1.07012e+13 
 6.01148e+11  1.07012e+13 
-3.04024e+12  1.07012e+13 
-6.68164e+12  1.07012e+13 
-1.03230e+13  1.07012e+13 
-1.39644e+13  1.07012e+13 
-1.76058e+13  1.07012e+13 
-2.12472e+13  1.07012e+13 
-2.48886e+13  1.07012e+13 
 6.25048e+13  1.42683e+13 
 5.88634e+13  1.42683e+13 
 5.52220e+13  1.42683e+13 
 5.15806e+13  1.42683e+13 
 4.79392e+13  1.42683e+13 
 4.42979e+13  1.42683e+13 
 4.06565e+13  1.42683e+13 
 3.70151e+13  1.42683e+13 
 3.33737e+13  1.42683e+13 
 2.97323e+13  1.42683e+13 
 2.60909e+13  1.42683e+13 
 2.24495e+13  1.42683e+13 
 1.88081e+13  1.42683e+13 
 1.51667e+13  1.42683e+13 
 1.15253e+13  1.42683e+13 
 7.88393e+12  1.42683e+13 
 4.24254e+12  1.42683e+13 
 6.01148e+11  1.42683e+13 
-3.04024e+12  1.42683e+13 
-6.68164e+12  1.42683e+13 
-1.03230e+13  1.42683e+13 
-1.39644e+13  1.42683e+13 
-1.76058e+13  1.42683e+13 
-2.12472e+13  1.42683e+13 
-2.48886e+13  1.42683e+13 
 6.25048e+13  1.78354e+13 
 5.88634e+13  1.78354e+13 
 5.52220e+13  1.78354e+13 
 5.15806e+13  1.78354e+13 
 4.79392e+13  1.78354e+13 
 4.42979e+13  1.78354e+13 
 4.06565e+13  1.78354e+13 
 3.70151e+13  1.78354e+13 
 3.33737e+13  1.78354e+13 
 2.97323e+13  1.78354e+13 
 2.60909e+13  1.78354e+13 
 2.24495e+13  1.78354e+13 
 1.88081e+13  1.78354e+13 
 1.51667e+13  1.78354e+13 
 1.15253e+13  1.78354e+13 
 7.88393e+12  1.78354e+13 
 4.24254e+12  1.78354e+13 
 6.01148e+11  1.78354e+13 
-3.04024e+12  1.78354e+13 
-6.68164e+12  1.78354e+13 
-1.03230e+13  1.78354e+13 
-1.39644e+13  1.78354e+13 
-1.76058e+13  1.78354e+13 
-2.12472e+13  1.78354e+13 
-2.48886e+13  1.78354e+13 
 6.25048e+13  2.14025e+13 
 5.88634e+13  2.14025e+13 
 5.52220e+13  2.14025e+13 
 5.15806e+13  2.14025e+13 
 4.79392e+13  2.14025e+13 
 4.42979e+13  2.14025e+13 
 4.06565e+13  2.14025e+13 
 3.70151e+13  2.14025e+13 
 3.33737e+13  2.14025e+13 
 2.97323e+13  2.14025e+13 
 2.60909e+13  2.14025e+13 
 2.24495e+13  2.14025e+13 
 1.88081e+13  2.14025e+13 
 1.51667e+13  2.14025e+13 
 1.15253e+13  2.14025e+13 
 7.88393e+12  2.14025e+13 
 4.24254e+12  2.14025e+13 
 6.01148e+11  2.14025e+13 
-3.04024e+12  2.14025e+13 
-6.68164e+12  2.14025e+13 
-1.03230e+13  2.14025e+13 
-1.39644e+13  2.14025e+13 
-1.76058e+13  2.14025e+13 
-2.12472e+13  2.14025e+13 
-2.48886e+13  2.14025e+13 
 6.25048e+13  2.49695e+13 
 5.88634e+13  2.49695e+13 
 5.52220e+13  2.49695e+13 
 5.15806e+13  2.49695e+13 
 4.79392e+13  2.49695e+13 
 4.42979e+13  2.49695e+13 
 4.06565e+13  2.49695e+13 
 3.70151e+13  2.49695e+13 
 3.33737e+13  2.49695e+13 
 2.97323e+13  2.49695e+13 
 2.60909e+13  2.49695e+13 
 2.24495e+13  2.49695e+13 
 1.88081e+13  2.49695e+13 
 1.51667e+13  2.49695e+13 
 1.15253e+13  2.49695e+13 
 7.88393e+12  2.49695e+13 
 4.24254e+12  2.49695e+13 
 6.01148e+11  2.49695e+13 
-3.04024e+12  2.49695e+13 
-6.68164e+12  2.49695e+13 
-1.03230e+13  2.49695e+13 
-1.39644e+13  2.49695e+13 
-1.76058e+13  2.49695e+13 
-2.12472e+13  2.49695e+13 
-2.48886e+13  2.49695e+13 
 6.25048e+13  2.85366e+13 
 5.88634e+13  2.85366e+13 
 5.52220e+13  2.85366e+13 
 5.15806e+13  2.85366e+13 
 4.79392e+13  2.85366e+13 
 4.42979e+13  2.85366e+13 
 4.06565e+13  2.85366e+13 
 3.70151e+13  2.85366e+13 
 3.33737e+13  2.85366e+13 
 2.97323e+13  2.85366e+13 
 2.60909e+13  2.85366e+13 
 2.24495e+13  2.85366e+13 
 1.88081e+13  2.85366e+13 
 1.51667e+13  2.85366e+13 
 1.15253e+13  2.85366e+13 
 7.88393e+12  2.85366e+13 
 4.24254e+12  2.85366e+13 
 6.01148e+11  2.85366e+13 
-3.04024e+12  2.85366e+13 
-6.68164e+12  2.85366e+13 
-1.03230e+13  2.85366e+13 
-1.39644e+13  2.85366e+13 
-1.76058e+13  2.85366e+13 
-2.12472e+13  2.85366e+13 
-2.48886e+13  2.85366e+13 
 6.25048e+13  3.21037e+13 
 5.88634e+13  3.21037e+13 
 5.52220e+13  3.21037e+13 
 5.15806e+13  3.21037e+13 
 4.79392e+13  3.21037e+13 
 4.42979e+13  3.21037e+13 
 4.06565e+13  3.21037e+13 
 3.70151e+13  3.21037e+13 
 3.33737e+13  3.21037e+13 
 2.97323e+13  3.21037e+13 
 2.60909e+13  3.21037e+13 
 2.24495e+13  3.21037e+13 
 1.88081e+13  3.21037e+13 
 1.51667e+13  3.21037e+13 
 1.15253e+13  3.21037e+13 
 7.88393e+12  3.21037e+13 
 4.24254e+12  3.21037e+13 
 6.01148e+11  3.21037e+13 
-3.04024e+12  3.21037e+13 
-6.68164e+12  3.21037e+13 
-1.03230e+13  3.21037e+13 
-1.39644e+13  3.21037e+13 
-1.76058e+13  3.21037e+13 
-2.12472e+13  3.21037e+13 
-2.48886e+13  3.21037e+13 
 6.25048e+13  3.56708e+13 
 5.88634e+13  3.56708e+13 
 5.52220e+13  3.56708e+13 
 5.15806e+13  3.56708e+13 
 4.79392e+13  3.56708e+13 
 4.42979e+13  3.56708e+13 
 4.06565e+13  3.56708e+13 
 3.70151e+13  3.56708e+13 
 3.33737e+13  3.56708e+13 
 2.97323e+13  3.56708e+13 
 2.60909e+13  3.56708e+13 
 2.24495e+13  3.56708e+13 
 1.88081e+13  3.56708e+13 
 1.51667e+13  3.56708e+13 
 1.15253e+13  3.56708e+13 
 7.88393e+12  3.56708e+13 
 4.24254e+12  3.56708e+13 
 6.01148e+11  3.56708e+13 
-3.04024e+12  3.56708e+13 
-6.68164e+12  3.56708e+13 
-1.03230e+13  3.56708e+13 
-1.39644e+13  3.56708e+13 
-1.76058e+13  3.56708e+13 
-2.12472e+13  3.56708e+13 
-2.48886e+13  3.56708e+13 
 6.25048e+13  3.92379e+13 
 5.88634e+13  3.92379e+13 
 5.52220e+13  3.92379e+13 
 5.15806e+13  3.92379e+13 
 4.79392e+13  3.92379e+13 
 4.42979e+13  3.92379e+13 
 4.06565e+13  3.92379e+13 
 3.70151e+13  3.92379e+13 
 3.33737e+13  3.92379e+13 
 2.97323e+13  3.92379e+13 
 2.60909e+13  3.92379e+13 
 2.24495e+13 39237855661900 
 1.88081e+13  3.92379e+13 
 1.51667e+13  3.92379e+13 
 1.15253e+13  3.92379e+13 
 7.88393e+12  3.92379e+13 
 4.24254e+12  3.92379e+13 
 6.01148e+11  3.92379e+13 
-3.04024e+12  3.92379e+13 
-6.68164e+12  3.92379e+13 
-1.03230e+13  3.92379e+13 
-1.39644e+13  3.92379e+13 
-1.76058e+13  3.92379e+13 
-2.12472e+13  3.92379e+13 
-2.48886e+13  3.92379e+13 
 6.25048e+13  4.28049e+13 
 5.88634e+13  4.28049e+13 
 5.52220e+13  4.28049e+13 
 5.15806e+13  4.28049e+13 
 4.79392e+13  4.28049e+13 
 4.42979e+13  4.28049e+13 
 4.06565e+13  4.28049e+13 
 3.70151e+13  4.28049e+13 
 3.33737e+13  4.28049e+13 
 2.97323e+13  4.28049e+13 
 2.60909e+13  4.28049e+13 
 2.24495e+13  4.28049e+13 
 1.88081e+13  4.28049e+13 
 1.51667e+13  4.28049e+13 
 1.15253e+13  4.28049e+13 
 7.88393e+12  4.28049e+13 
 4.24254e+12  4.28049e+13 
 6.01148e+11  4.28049e+13 
-3.04024e+12  4.28049e+13 
-6.68164e+12  4.28049e+13 
-1.03230e+13  4.28049e+13 
-1.39644e+13  4.28049e+13 
-1.76058e+13  4.28049e+13 
-2.12472e+13  4.28049e+13 
-2.48886e+13  4.28049e+13 
 6.25048e+13  4.63720e+13 
 5.88634e+13  4.63720e+13 
 5.52220e+13  4.63720e+13 
 5.15806e+13  4.63720e+13 
 4.79392e+13  4.63720e+13 
 4.42979e+13  4.63720e+13 
 4.06565e+13  4.63720e+13 
 3.70151e+13  4.63720e+13 
 3.33737e+13  4.63720e+13 
 2.97323e+13  4.63720e+13 
 2.60909e+13  4.63720e+13 
 2.24495e+13  4.63720e+13 
18808107128486  4.63720e+13 
 1.51667e+13  4.63720e+13 
 1.15253e+13  4.63720e+13 
 7.88393e+12  4.63720e+13 
 4.24254e+12  4.63720e+13 
 6.01148e+11  4.63720e+13 
-3.04024e+12  4.63720e+13 
-6.68164e+12  4.63720e+13 
-1.03230e+13  4.63720e+13 
-1.39644e+13  4.63720e+13 
-1.76058e+13  4.63720e+13 
-2.12472e+13  4.63720e+13 
-2.48886e+13  4.63720e+13 
 6.25048e+13  4.99391e+13 
 5.88634e+13  4.99391e+13 
 5.52220e+13  4.99391e+13 
 5.15806e+13  4.99391e+13 
 4.79392e+13  4.99391e+13 
 4.42979e+13  4.99391e+13 
 4.06565e+13  4.99391e+13 
 3.70151e+13  4.99391e+13 
 3.33737e+13  4.99391e+13 
 2.97323e+13  4.99391e+13 
 2.60909e+13  4.99391e+13 
 2.24495e+13  4.99391e+13 
 1.88081e+13  4.99391e+13 
 1.51667e+13  4.99391e+13 
 1.15253e+13  4.99391e+13 
 7.88393e+12  4.99391e+13 
 4.24254e+12  4.99391e+13 
 6.01148e+11  4.99391e+13 
-3.04024e+12  4.99391e+13 
-6.68164e+12  4.99391e+13 
-1.03230e+13  4.99391e+13 
-1.39644e+13  4.99391e+13 
-1.76058e+13  4.99391e+13 
-2.12472e+13  4.99391e+13 
-2.48886e+13  4.99391e+13 
 6.25048e+13  5.35062e+13 
 5.88634e+13  5.35062e+13 
 5.52220e+13  5.35062e+13 
 5.15806e+13  5.35062e+13 
 4.79392e+13  5.35062e+13 
 4.42979e+13  5.35062e+13 
 4.06565e+13  5.35062e+13 
 3.70151e+13  5.35062e+13 
 3.33737e+13  5.35062e+13 
 2.97323e+13  5.35062e+13 
 2.60909e+13  5.35062e+13 
 2.24495e+13  5.35062e+13 
 1.88081e+13  5.35062e+13 
 1.51667e+13  5.35062e+13 
 1.15253e+13  5.35062e+13 
 7.88393e+12  5.35062e+13 
 4.24254e+12  5.35062e+13 
 6.01148e+11  5.35062e+13 
-3.04024e+12  5.35062e+13 
-6.68164e+12  5.35062e+13 
-1.03230e+13  5.35062e+13 
-1.39644e+13  5.35062e+13 
-1.76058e+13  5.35062e+13 
-2.12472e+13  5.35062e+13 
-2.48886e+13  5.35062e+13 
 6.25048e+13  5.70732e+13 
 5.88634e+13  5.70732e+13 
 5.52220e+13  5.70732e+13 
 5.15806e+13  5.70732e+13 
 4.79392e+13  5.70732e+13 
 4.42979e+13  5.70732e+13 
 4.06565e+13  5.70732e+13 
 3.70151e+13  5.70732e+13 
 3.33737e+13  5.70732e+13 
 2.97323e+13  5.70732e+13 
 2.60909e+13  5.70732e+13 
 2.24495e+13  5.70732e+13 
 1.88081e+13  5.70732e+13 
 1.51667e+13  5.70732e+13 
 1.15253e+13  5.70732e+13 
 7.88393e+12  5.70732e+13 
 4.24254e+12  5.70732e+13 
 6.01148e+11  5.70732e+13 
-3.04024e+12  5.70732e+13 
-6.68164e+12  5.70732e+13 
-1.03230e+13  5.70732e+13 
-1.39644e+13  5.70732e+13 
-1.76058e+13  5.70732e+13 
-2.12472e+13  5.70732e+13 
-2.48886e+13  5.70732e+13 
 6.25048e+13  6.06403e+13 
 5.88634e+13  6.06403e+13 
 5.52220e+13  6.06403e+13 
 5.15806e+13  6.06403e+13 
 4.79392e+13  6.06403e+13 
 4.42979e+13  6.06403e+13 
 4.06565e+13  6.06403e+13 
 3.70151e+13  6.06403e+13 
 3.33737e+13  6.06403e+13 
 2.97323e+13  6.06403e+13 
 2.60909e+13  6.06403e+13 
 2.24495e+13  6.06403e+13 
 1.88081e+13  6.06403e+13 
 1.51667e+13  6.06403e+13 
 1.15253e+13  6.06403e+13 
7883931404444  6.06403e+13 
 4.24254e+12  6.06403e+13 
 6.01148e+11  6.06403e+13 
-3.04024e+12  6.06403e+13 
-6.68164e+12 60640322386557 
-1.03230e+13  6.06403e+13 
-1.39644e+13  6.06403e+13 
-1.76058e+13  6.06403e+13 
-2.12472e+13  6.06403e+13 
-2.48886e+13  6.06403e+13 
 6.25048e+13  6.42074e+13 
 5.88634e+13  6.42074e+13 
 5.52220e+13  6.42074e+13 
 5.15806e+13  6.42074e+13 
 4.79392e+13  6.42074e+13 
 4.42979e+13  6.42074e+13 
 4.06565e+13  6.42074e+13 
37015066668556  6.42074e+13 
 3.33737e+13  6.42074e+13 
 2.97323e+13  6.42074e+13 
 2.60909e+13  6.42074e+13 
 2.24495e+13  6.42074e+13 
 1.88081e+13  6.42074e+13 
 1.51667e+13  6.42074e+13 
 1.15253e+13  6.42074e+13 
 7.88393e+12  6.42074e+13 
 4.24254e+12  6.42074e+13 
 6.01148e+11  6.42074e+13 
-3.04024e+12  6.42074e+13 
-6.68164e+12  6.42074e+13 
-1.03230e+13  6.42074e+13 
-1.39644e+13  6.42074e+13 
-1.76058e+13  6.42074e+13 
-2.12472e+13  6.42074e+13 
-2.48886e+13  6.42074e+13 
 6.25048e+13  6.77745e+13 
 5.88634e+13  6.77745e+13 
 5.52220e+13  6.77745e+13 
 5.15806e+13 67774477961440 
 4.79392e+13  6.77745e+13 
 4.42979e+13  6.77745e+13 
 4.06565e+13  6.77745e+13 
 3.70151e+13  6.77745e+13 
 3.33737e+13  6.77745e+13 
 2.97323e+13  6.77745e+13 
 2.60909e+13  6.77745e+13 
 2.24495e+13  6.77745e+13 
 1.88081e+13  6.77745e+13 
 1.51667e+13  6.77745e+13 
 1.15253e+13  6.77745e+13 
 7.88393e+12  6.77745e+13 
 4.24254e+12  6.77745e+13 
 6.01148e+11  6.77745e+13 
-3.04024e+12  6.77745e+13 
-6.68164e+12  6.77745e+13 
-1.03230e+13  6.77745e+13 
-1.39644e+13  6.77745e+13 
-1.76058e+13  6.77745e+13 
-2.12472e+13  6.77745e+13 
-2.48886e+13  6.77745e+13 
 6.25048e+13  7.13416e+13 
 5.88634e+13 71341555748882 
 5.52220e+13  7.13416e+13 
 5.15806e+13  7.13416e+13 
 4.79392e+13  7.13416e+13 
 4.42979e+13  7.13416e+13 
 4.06565e+13  7.13416e+13 
 3.70151e+13  7.13416e+13 
 3.33737e+13  7.13416e+13 
 2.97323e+13  7.13416e+13 
 2.60909e+13  7.13416e+13 
 2.24495e+13  7.13416e+13 
 1.88081e+13  7.13416e+13 
 1.51667e+13  7.13416e+13 
 1.15253e+13  7.13416e+13 
 7.88393e+12  7.13416e+13 
 4.24254e+12  7.13416e+13 
 6.01148e+11  7.13416e+13 
-3.04024e+12  7.13416e+13 
-6.68164e+12  7.13416e+13 
-1.03230e+13  7.13416e+13 
-1.39644e+13  7.13416e+13 
-1.76058e+13  7.13416e+13 
-2.12472e+13  7.13416e+13 
-2.48886e+13  7.13416e+13 
 6.25048e+13  7.49086e+13 
 5.88634e+13  7.49086e+13 
 5.52220e+13  7.49086e+13 
 5.15806e+13  7.49086e+13 
 4.79392e+13  7.49086e+13 
 4.42979e+13  7.49086e+13 
 4.06565e+13  7.49086e+13 
 3.70151e+13  7.49086e+13 
 3.33737e+13  7.49086e+13 
 2.97323e+13  7.49086e+13 
 2.60909e+13  7.49086e+13 
 2.24495e+13  7.49086e+13 
 1.88081e+13  7.49086e+13 
 1.51667e+13  7.49086e+13 
 1.15253e+13  7.49086e+13 
 7.88393e+12  7.49086e+13 
 4.24254e+12  7.49086e+13 
 6.01148e+11  7.49086e+13 
-3.04024e+12  7.49086e+13 
-6.68164e+12  7.49086e+13 
-1.03230e+13  7.49086e+13 
-1.39644e+13  7.49086e+13 
-1.76058e+13  7.49086e+13 
-2.12472e+13  7.49086e+13 
-2.48886e+13  7.49086e+13 
 6.25048e+13  7.84757e+13 
 5.88634e+13  7.84757e+13 
 5.52220e+13  7.84757e+13 
 5.15806e+13  7.84757e+13 
 4.79392e+13  7.84757e+13 
 4.42979e+13  7.84757e+13 
 4.06565e+13  7.84757e+13 
 3.70151e+13  7.84757e+13 
 3.33737e+13  7.84757e+13 
 2.97323e+13  7.84757e+13 
 2.60909e+13  7.84757e+13 
 2.24495e+13  7.84757e+13 
 1.88081e+13  7.84757e+13 
 1.51667e+13  7.84757e+13 
 1.15253e+13  7.84757e+13 
 7.88393e+12  7.84757e+13 
 4.24254e+12  7.84757e+13 
 6.01148e+11  7.84757e+13 
-3.04024e+12  7.84757e+13 
-6.68164e+12  7.84757e+13 
-1.03230e+13  7.84757e+13 
-1.39644e+13  7.84757e+13 
-1.76058e+13  7.84757e+13 
-2.12472e+13  7.84757e+13 
-2.48886e+13  7.84757e+13 
 6.25048e+13  8.20428e+13 
 5.88634e+13  8.20428e+13 
 5.52220e+13  8.20428e+13 
 5.15806e+13  8.20428e+13 
 4.79392e+13  8.20428e+13 
 4.42979e+13  8.20428e+13 
 4.06565e+13  8.20428e+13 
 3.70151e+13  8.20428e+13 
 3.33737e+13  8.20428e+13 
 2.97323e+13  8.20428e+13 
 2.60909e+13  8.20428e+13 
 2.24495e+13  8.20428e+13 
 1.88081e+13  8.20428e+13 
 1.51667e+13  8.20428e+13 
 1.15253e+13  8.20428e+13 
 7.88393e+12  8.20428e+13 
 4.24254e+12  8.20428e+13 
 6.01148e+11  8.20428e+13 
-3.04024e+12  8.20428e+13 
-6.68164e+12  8.20428e+13 
-1.03230e+13  8.20428e+13 
-1.39644e+13  8.20428e+13 
-1.76058e+13  8.20428e+13 
-2.12472e+13  8.20428e+13 
-2.48886e+13  8.20428e+13 
 6.25048e+13  8.56099e+13 
 5.88634e+13  8.56099e+13 
 5.52220e+13  8.56099e+13 
 5.15806e+13  8.56099e+13 
 4.79392e+13  8.56099e+13 
 4.42979e+13  8.56099e+13 
 4.06565e+13  8.56099e+13 
 3.70151e+13  8.56099e+13 
 3.33737e+13  8.56099e+13 
 2.97323e+13  8.56099e+13 
 2.60909e+13  8.56099e+13 
 2.24495e+13  8.56099e+13 
 1.88081e+13  8.56099e+13 
 1.51667e+13  8.56099e+13 
 1.15253e+13  8.56099e+13 
 7.88393e+12  8.56099e+13 
 4.24254e+12  8.56099e+13 
 6.01148e+11  8.56099e+13 
-3.04024e+12  8.56099e+13 
-6.68164e+12  8.56099e+13 
-1.03230e+13  8.56099e+13 
-1.39644e+13  8.56099e+13 
-1.76058e+13  8.56099e+13 
-2.12472e+13  8.56099e+13 
-2.48886e+13  8.56099e+13 
 6.25048e+13  8.91769e+13 
 5.88634e+13  8.91769e+13 
 5.52220e+13  8.91769e+13 
 5.15806e+13  8.91769e+13 
 4.79392e+13  8.91769e+13 
 4.42979e+13  8.91769e+13 
 4.06565e+13  8.91769e+13 
 3.70151e+13  8.91769e+13 
 3.33737e+13  8.91769e+13 
 2.97323e+13  8.91769e+13 
 2.60909e+13  8.91769e+13 
 2.24495e+13  8.91769e+13 
 1.88081e+13  8.91769e+13 
 1.51667e+13  8.91769e+13 
 1.15253e+13  8.91769e+13 
 7.88393e+12  8.91769e+13 
 4.24254e+12  8.91769e+13 
 6.01148e+11  8.91769e+13 
-3.04024e+12  8.91769e+13 
-6.68164e+12  8.91769e+13 
-1.03230e+13  8.91769e+13 
-1.39644e+13  8.91769e+13 
-1.76058e+13  8.91769e+13 
-2.12472e+13  8.91769e+13 
-2.48886e+13  8.91769e+13 
 6.25048e+13  9.27440e+13 
 5.88634e+13  9.27440e+13 
 5.52220e+13  9.27440e+13 
 5.15806e+13  9.27440e+13 
 4.79392e+13  9.27440e+13 
 4.42979e+13  9.27440e+13 
 4.06565e+13  9.27440e+13 
 3.70151e+13  9.27440e+13 
 3.33737e+13  9.27440e+13 
 2.97323e+13  9.27440e+13 
 2.60909e+13  9.27440e+13 
 2.24495e+13  9.27440e+13 
 1.88081e+13  9.27440e+13 
 1.51667e+13  9.27440e+13 
 1.15253e+13  9.27440e+13 
 7.88393e+12  9.27440e+13 
 4.24254e+12  9.27440e+13 
 6.01148e+11  9.27440e+13 
-3.04024e+12  9.27440e+13 
-6.68164e+12  9.27440e+13 
-1.03230e+13  9.27440e+13 
-1.39644e+13  9.27440e+13 
-1.76058e+13  9.27440e+13 
-2.12472e+13  9.27440e+13 
-2.48886e+13  9.27440e+13 
 6.25048e+13  9.63111e+13 
 5.88634e+13  9.63111e+13 
 5.52220e+13  9.63111e+13 
 5.15806e+13  9.63111e+13 
 4.79392e+13  9.63111e+13 
 4.42979e+13  9.63111e+13 
 4.06565e+13  9.63111e+13 
 3.70151e+13  9.63111e+13 
 3.33737e+13  9.63111e+13 
 2.97323e+13  9.63111e+13 
 2.60909e+13  9.63111e+13 
 2.24495e+13  9.63111e+13 
 1.88081e+13  9.63111e+13 
 1.51667e+13  9.63111e+13 
 1.15253e+13  9.63111e+13 
 7.88393e+12  9.63111e+13 
 4.24254e+12  9.63111e+13 
 6.01148e+11  9.63111e+13 
-3.04024e+12  9.63111e+13 
-6.68164e+12  9.63111e+13 
-1.03230e+13  9.63111e+13 
-1.39644e+13  9.63111e+13 
-1.76058e+13  9.63111e+13 
-2.12472e+13  9.63111e+13 
-2.48886e+13  9.63111e+13 
 6.25048e+13  9.98782e+13 
 5.88634e+13  9.98782e+13 
 5.52220e+13  9.98782e+13 
 5.15806e+13  9.98782e+13 
 4.79392e+13  9.98782e+13 
 4.42979e+13  9.98782e+13 
 4.06565e+13 99878178048418 
 3.70151e+13  9.98782e+13 
 3.33737e+13  9.98782e+13 
 2.97323e+13  9.98782e+13 
 2.60909e+13  9.98782e+13 
 2.24495e+13  9.98782e+13 
 1.88081e+13  9.98782e+13 
 1.51667e+13  9.98782e+13 
 1.15253e+13  9.98782e+13 
 7.88393e+12  9.98782e+13 
 4.24254e+12  9.98782e+13 
 6.01148e+11  9.98782e+13 
-3.04024e+12  9.98782e+13 
-6.68164e+12  9.98782e+13 
-1.03230e+13  9.98782e+13 
-1.39644e+13  9.98782e+13 
-1.76058e+13  9.98782e+13 
-2.12472e+13  9.98782e+13 
-2.48886e+13  9.98782e+13 
 6.25048e+13  1.03445e+14 
 5.88634e+13  1.03445e+14 
 5.52220e+13  1.03445e+14 
 5.15806e+13  1.03445e+14 
 4.79392e+13  1.03445e+14 
 4.42979e+13  1.03445e+14 
 4.06565e+13  1.03445e+14 
 3.70151e+13  1.03445e+14 
 3.33737e+13  1.03445e+14 
 2.97323e+13  1.03445e+14 