<?xml version="1.0" encoding="utf-8"?>
<VTKFile byte_order="LittleEndian" type="UnstructuredGrid" version="0.1">
   <UnstructuredGrid>
      <Piece NumberOfCells="1" NumberOfPoints="4">
         <Points>
            <DataArray Name="Points" NumberOfComponents="3" format="ascii" type="Float32">
0.0000 0.0000 0.0000
0.0000 1.0000 0.0000
1.0000 0.0000 0.0000
1.0000 1.0000 0.0000</DataArray>
         </Points>
         <Cells>
            <DataArray Name="connectivity" format="ascii" type="Int32">
 0 2 3 1</DataArray>
            <DataArray Name="offsets" format="ascii" type="Int32">4 </DataArray>
            <DataArray Name="types" format="ascii" type="UInt8">9 </DataArray>
         </Cells>
         <PointData>
            <DataArray Name="fValues" NumberOfComponents="3" format="ascii" type="Float64">
 7.70217e-17 -3.90313e-18        00000 
-2.91434e-17 -6.00000e-02        00000 
 2.00000e-01 -5.20417e-18        00000 
 2.00000e-01 -6.00000e-02        00000 </DataArray>
         </PointData>
         <CellData/>
      </Piece>
   </UnstructuredGrid>
</VTKFile>