<?xml version="1.0" encoding="utf-8"?>
<VTKFile byte_order="LittleEndian" type="UnstructuredGrid" version="0.1">
   <UnstructuredGrid>
      <Piece NumberOfCells="29204" NumberOfPoints="14801">
         <Points>
            <DataArray Name="Points" NumberOfComponents="3" format="ascii" type="Float32">
0.0000 0.0000 0.0000
0.0000 0.0204 0.0000
0.0000 0.0408 0.0000
0.0000 0.0612 0.0000
0.0000 0.0816 0.0000
0.0000 0.1020 0.0000
0.0000 0.1224 0.0000
0.0000 0.1429 0.0000
0.0000 0.1633 0.0000
0.0000 0.1837 0.0000
0.0000 0.2041 0.0000
0.0000 0.2245 0.0000
0.0000 0.2449 0.0000
0.0000 0.2653 0.0000
0.0000 0.2857 0.0000
0.0000 0.3061 0.0000
0.0000 0.3265 0.0000
0.0000 0.3469 0.0000
0.0000 0.3673 0.0000
0.0000 0.3878 0.0000
0.0000 0.4082 0.0000
0.0000 0.4286 0.0000
0.0000 0.4490 0.0000
0.0000 0.4694 0.0000
0.0000 0.4898 0.0000
0.0000 0.5102 0.0000
0.0000 0.5306 0.0000
0.0000 0.5510 0.0000
0.0000 0.5714 0.0000
0.0000 0.5918 0.0000
0.0000 0.6122 0.0000
0.0000 0.6327 0.0000
0.0000 0.6531 0.0000
0.0000 0.6735 0.0000
0.0000 0.6939 0.0000
0.0000 0.7143 0.0000
0.0000 0.7347 0.0000
0.0000 0.7551 0.0000
0.0000 0.7755 0.0000
0.0000 0.7959 0.0000
0.0000 0.8163 0.0000
0.0000 0.8367 0.0000
0.0000 0.8571 0.0000
0.0000 0.8776 0.0000
0.0000 0.8980 0.0000
0.0000 0.9184 0.0000
0.0000 0.9388 0.0000
0.0000 0.9592 0.0000
0.0000 0.9796 0.0000
0.0000 1.0000 0.0000
0.0403 0.0000 0.0000
0.0403 0.0204 0.0000
0.0403 0.0408 0.0000
0.0403 0.0612 0.0000
0.0403 0.0816 0.0000
0.0403 0.1020 0.0000
0.0403 0.1224 0.0000
0.0403 0.1429 0.0000
0.0403 0.1633 0.0000
0.0403 0.1837 0.0000
0.0403 0.2041 0.0000
0.0403 0.2245 0.0000
0.0403 0.2449 0.0000
0.0403 0.2653 0.0000
0.0403 0.2857 0.0000
0.0403 0.3061 0.0000
0.0403 0.3265 0.0000
0.0403 0.3469 0.0000
0.0403 0.3673 0.0000
0.0403 0.3878 0.0000
0.0403 0.4082 0.0000
0.0403 0.4286 0.0000
0.0403 0.4490 0.0000
0.0403 0.4694 0.0000
0.0403 0.4898 0.0000
0.0403 0.5102 0.0000
0.0403 0.5306 0.0000
0.0403 0.5510 0.0000
0.0403 0.5714 0.0000
0.0403 0.5918 0.0000
0.0403 0.6122 0.0000
0.0403 0.6327 0.0000
0.0403 0.6531 0.0000
0.0403 0.6735 0.0000
0.0403 0.6939 0.0000
0.0403 0.7143 0.0000
0.0403 0.7347 0.0000
0.0403 0.7551 0.0000
0.0403 0.7755 0.0000
0.0403 0.7959 0.0000
0.0403 0.8163 0.0000
0.0403 0.8367 0.0000
0.0403 0.8571 0.0000
0.0403 0.8776 0.0000
0.0403 0.8980 0.0000
0.0403 0.9184 0.0000
0.0403 0.9388 0.0000
0.0403 0.9592 0.0000
0.0403 0.9796 0.0000
0.0403 1.0000 0.0000
0.0805 0.0000 0.0000
0.0805 0.0204 0.0000
0.0805 0.0408 0.0000
0.0805 0.0612 0.0000
0.0805 0.0816 0.0000
0.0805 0.1020 0.0000
0.0805 0.1224 0.0000
0.0805 0.1429 0.0000
0.0805 0.1633 0.0000
0.0805 0.1837 0.0000
0.0805 0.2041 0.0000
0.0805 0.2245 0.0000
0.0805 0.2449 0.0000
0.0805 0.2653 0.0000
0.0805 0.2857 0.0000
0.0805 0.3061 0.0000
0.0805 0.3265 0.0000
0.0805 0.3469 0.0000
0.0805 0.3673 0.0000
0.0805 0.3878 0.0000
0.0805 0.4082 0.0000
0.0805 0.4286 0.0000
0.0805 0.4490 0.0000
0.0805 0.4694 0.0000
0.0805 0.4898 0.0000
0.0805 0.5102 0.0000
0.0805 0.5306 0.0000
0.0805 0.5510 0.0000
0.0805 0.5714 0.0000
0.0805 0.5918 0.0000
0.0805 0.6122 0.0000
0.0805 0.6327 0.0000
0.0805 0.6531 0.0000
0.0805 0.6735 0.0000
0.0805 0.6939 0.0000
0.0805 0.7143 0.0000
0.0805 0.7347 0.0000
0.0805 0.7551 0.0000
0.0805 0.7755 0.0000
0.0805 0.7959 0.0000
0.0805 0.8163 0.0000
0.0805 0.8367 0.0000
0.0805 0.8571 0.0000
0.0805 0.8776 0.0000
0.0805 0.8980 0.0000
0.0805 0.9184 0.0000
0.0805 0.9388 0.0000
0.0805 0.9592 0.0000
0.0805 0.9796 0.0000
0.0805 1.0000 0.0000
0.1208 0.0000 0.0000
0.1208 0.0204 0.0000
0.1208 0.0408 0.0000
0.1208 0.0612 0.0000
0.1208 0.0816 0.0000
0.1208 0.1020 0.0000
0.1208 0.1224 0.0000
0.1208 0.1429 0.0000
0.1208 0.1633 0.0000
0.1208 0.1837 0.0000
0.1208 0.2041 0.0000
0.1208 0.2245 0.0000
0.1208 0.2449 0.0000
0.1208 0.2653 0.0000
0.1208 0.2857 0.0000
0.1208 0.3061 0.0000
0.1208 0.3265 0.0000
0.1208 0.3469 0.0000
0.1208 0.3673 0.0000
0.1208 0.3878 0.0000
0.1208 0.4082 0.0000
0.1208 0.4286 0.0000
0.1208 0.4490 0.0000
0.1208 0.4694 0.0000
0.1208 0.4898 0.0000
0.1208 0.5102 0.0000
0.1208 0.5306 0.0000
0.1208 0.5510 0.0000
0.1208 0.5714 0.0000
0.1208 0.5918 0.0000
0.1208 0.6122 0.0000
0.1208 0.6327 0.0000
0.1208 0.6531 0.0000
0.1208 0.6735 0.0000
0.1208 0.6939 0.0000
0.1208 0.7143 0.0000
0.1208 0.7347 0.0000
0.1208 0.7551 0.0000
0.1208 0.7755 0.0000
0.1208 0.7959 0.0000
0.1208 0.8163 0.0000
0.1208 0.8367 0.0000
0.1208 0.8571 0.0000
0.1208 0.8776 0.0000
0.1208 0.8980 0.0000
0.1208 0.9184 0.0000
0.1208 0.9388 0.0000
0.1208 0.9592 0.0000
0.1208 0.9796 0.0000
0.1208 1.0000 0.0000
0.1611 0.0000 0.0000
0.1611 0.0204 0.0000
0.1611 0.0408 0.0000
0.1611 0.0612 0.0000
0.1611 0.0816 0.0000
0.1611 0.1020 0.0000
0.1611 0.1224 0.0000
0.1611 0.1429 0.0000
0.1611 0.1633 0.0000
0.1611 0.1837 0.0000
0.1611 0.2041 0.0000
0.1611 0.2245 0.0000
0.1611 0.2449 0.0000
0.1611 0.2653 0.0000
0.1611 0.2857 0.0000
0.1611 0.3061 0.0000
0.1611 0.3265 0.0000
0.1611 0.3469 0.0000
0.1611 0.3673 0.0000
0.1611 0.3878 0.0000
0.1611 0.4082 0.0000
0.1611 0.4286 0.0000
0.1611 0.4490 0.0000
0.1611 0.4694 0.0000
0.1611 0.4898 0.0000
0.1611 0.5102 0.0000
0.1611 0.5306 0.0000
0.1611 0.5510 0.0000
0.1611 0.5714 0.0000
0.1611 0.5918 0.0000
0.1611 0.6122 0.0000
0.1611 0.6327 0.0000
0.1611 0.6531 0.0000
0.1611 0.6735 0.0000
0.1611 0.6939 0.0000
0.1611 0.7143 0.0000
0.1611 0.7347 0.0000
0.1611 0.7551 0.0000
0.1611 0.7755 0.0000
0.1611 0.7959 0.0000
0.1611 0.8163 0.0000
0.1611 0.8367 0.0000
0.1611 0.8571 0.0000
0.1611 0.8776 0.0000
0.1611 0.8980 0.0000
0.1611 0.9184 0.0000
0.1611 0.9388 0.0000
0.1611 0.9592 0.0000
0.1611 0.9796 0.0000
0.1611 1.0000 0.0000
0.2013 0.0000 0.0000
0.2013 0.0204 0.0000
0.2013 0.0408 0.0000
0.2013 0.0612 0.0000
0.2013 0.0816 0.0000
0.2013 0.1020 0.0000
0.2013 0.1224 0.0000
0.2013 0.1429 0.0000
0.2013 0.1633 0.0000
0.2013 0.1837 0.0000
0.2013 0.2041 0.0000
0.2013 0.2245 0.0000
0.2013 0.2449 0.0000
0.2013 0.2653 0.0000
0.2013 0.2857 0.0000
0.2013 0.3061 0.0000
0.2013 0.3265 0.0000
0.2013 0.3469 0.0000
0.2013 0.3673 0.0000
0.2013 0.3878 0.0000
0.2013 0.4082 0.0000
0.2013 0.4286 0.0000
0.2013 0.4490 0.0000
0.2013 0.4694 0.0000
0.2013 0.4898 0.0000
0.2013 0.5102 0.0000
0.2013 0.5306 0.0000
0.2013 0.5510 0.0000
0.2013 0.5714 0.0000
0.2013 0.5918 0.0000
0.2013 0.6122 0.0000
0.2013 0.6327 0.0000
0.2013 0.6531 0.0000
0.2013 0.6735 0.0000
0.2013 0.6939 0.0000
0.2013 0.7143 0.0000
0.2013 0.7347 0.0000
0.2013 0.7551 0.0000
0.2013 0.7755 0.0000
0.2013 0.7959 0.0000
0.2013 0.8163 0.0000
0.2013 0.8367 0.0000
0.2013 0.8571 0.0000
0.2013 0.8776 0.0000
0.2013 0.8980 0.0000
0.2013 0.9184 0.0000
0.2013 0.9388 0.0000
0.2013 0.9592 0.0000
0.2013 0.9796 0.0000
0.2013 1.0000 0.0000
0.2416 0.0000 0.0000
0.2416 0.0204 0.0000
0.2416 0.0408 0.0000
0.2416 0.0612 0.0000
0.2416 0.0816 0.0000
0.2416 0.1020 0.0000
0.2416 0.1224 0.0000
0.2416 0.1429 0.0000
0.2416 0.1633 0.0000
0.2416 0.1837 0.0000
0.2416 0.2041 0.0000
0.2416 0.2245 0.0000
0.2416 0.2449 0.0000
0.2416 0.2653 0.0000
0.2416 0.2857 0.0000
0.2416 0.3061 0.0000
0.2416 0.3265 0.0000
0.2416 0.3469 0.0000
0.2416 0.3673 0.0000
0.2416 0.3878 0.0000
0.2416 0.4082 0.0000
0.2416 0.4286 0.0000
0.2416 0.4490 0.0000
0.2416 0.4694 0.0000
0.2416 0.4898 0.0000
0.2416 0.5102 0.0000
0.2416 0.5306 0.0000
0.2416 0.5510 0.0000
0.2416 0.5714 0.0000
0.2416 0.5918 0.0000
0.2416 0.6122 0.0000
0.2416 0.6327 0.0000
0.2416 0.6531 0.0000
0.2416 0.6735 0.0000
0.2416 0.6939 0.0000
0.2416 0.7143 0.0000
0.2416 0.7347 0.0000
0.2416 0.7551 0.0000
0.2416 0.7755 0.0000
0.2416 0.7959 0.0000
0.2416 0.8163 0.0000
0.2416 0.8367 0.0000
0.2416 0.8571 0.0000
0.2416 0.8776 0.0000
0.2416 0.8980 0.0000
0.2416 0.9184 0.0000
0.2416 0.9388 0.0000
0.2416 0.9592 0.0000
0.2416 0.9796 0.0000
0.2416 1.0000 0.0000
0.2819 0.0000 0.0000
0.2819 0.0204 0.0000
0.2819 0.0408 0.0000
0.2819 0.0612 0.0000
0.2819 0.0816 0.0000
0.2819 0.1020 0.0000
0.2819 0.1224 0.0000
0.2819 0.1429 0.0000
0.2819 0.1633 0.0000
0.2819 0.1837 0.0000
0.2819 0.2041 0.0000
0.2819 0.2245 0.0000
0.2819 0.2449 0.0000
0.2819 0.2653 0.0000
0.2819 0.2857 0.0000
0.2819 0.3061 0.0000
0.2819 0.3265 0.0000
0.2819 0.3469 0.0000
0.2819 0.3673 0.0000
0.2819 0.3878 0.0000
0.2819 0.4082 0.0000
0.2819 0.4286 0.0000
0.2819 0.4490 0.0000
0.2819 0.4694 0.0000
0.2819 0.4898 0.0000
0.2819 0.5102 0.0000
0.2819 0.5306 0.0000
0.2819 0.5510 0.0000
0.2819 0.5714 0.0000
0.2819 0.5918 0.0000
0.2819 0.6122 0.0000
0.2819 0.6327 0.0000
0.2819 0.6531 0.0000
0.2819 0.6735 0.0000
0.2819 0.6939 0.0000
0.2819 0.7143 0.0000
0.2819 0.7347 0.0000
0.2819 0.7551 0.0000
0.2819 0.7755 0.0000
0.2819 0.7959 0.0000
0.2819 0.8163 0.0000
0.2819 0.8367 0.0000
0.2819 0.8571 0.0000
0.2819 0.8776 0.0000
0.2819 0.8980 0.0000
0.2819 0.9184 0.0000
0.2819 0.9388 0.0000
0.2819 0.9592 0.0000
0.2819 0.9796 0.0000
0.2819 1.0000 0.0000
0.3221 0.0000 0.0000
0.3221 0.0204 0.0000
0.3221 0.0408 0.0000
0.3221 0.0612 0.0000
0.3221 0.0816 0.0000
0.3221 0.1020 0.0000
0.3221 0.1224 0.0000
0.3221 0.1429 0.0000
0.3221 0.1633 0.0000
0.3221 0.1837 0.0000
0.3221 0.2041 0.0000
0.3221 0.2245 0.0000
0.3221 0.2449 0.0000
0.3221 0.2653 0.0000
0.3221 0.2857 0.0000
0.3221 0.3061 0.0000
0.3221 0.3265 0.0000
0.3221 0.3469 0.0000
0.3221 0.3673 0.0000
0.3221 0.3878 0.0000
0.3221 0.4082 0.0000
0.3221 0.4286 0.0000
0.3221 0.4490 0.0000
0.3221 0.4694 0.0000
0.3221 0.4898 0.0000
0.3221 0.5102 0.0000
0.3221 0.5306 0.0000
0.3221 0.5510 0.0000
0.3221 0.5714 0.0000
0.3221 0.5918 0.0000
0.3221 0.6122 0.0000
0.3221 0.6327 0.0000
0.3221 0.6531 0.0000
0.3221 0.6735 0.0000
0.3221 0.6939 0.0000
0.3221 0.7143 0.0000
0.3221 0.7347 0.0000
0.3221 0.7551 0.0000
0.3221 0.7755 0.0000
0.3221 0.7959 0.0000
0.3221 0.8163 0.0000
0.3221 0.8367 0.0000
0.3221 0.8571 0.0000
0.3221 0.8776 0.0000
0.3221 0.8980 0.0000
0.3221 0.9184 0.0000
0.3221 0.9388 0.0000
0.3221 0.9592 0.0000
0.3221 0.9796 0.0000
0.3221 1.0000 0.0000
0.3624 0.0000 0.0000
0.3624 0.0204 0.0000
0.3624 0.0408 0.0000
0.3624 0.0612 0.0000
0.3624 0.0816 0.0000
0.3624 0.1020 0.0000
0.3624 0.1224 0.0000
0.3624 0.1429 0.0000
0.3624 0.1633 0.0000
0.3624 0.1837 0.0000
0.3624 0.2041 0.0000
[...]
         <PointData>
            <DataArray Name="fValues" NumberOfComponents="1" format="ascii" type="Float64">
       00001 
 1.00000e+00 
 1.00000e+00 
 1.00000e+00 
       00001 
       00001 
 1.00000e+00 
 1.00000e+00 
 1.00000e+00 
 1.00000e+00 
 1.00000e+00 
 6.90602e-17 
 1.28040e-16 
-5.08310e-17 
-9.92270e-18 
 1.67185e-17 
-7.02932e-18 
 1.33034e-18 
 2.41130e-19 
-3.16639e-19 
 1.43473e-19 
-4.32027e-20 
 1.02563e-20 
-2.26289e-21 
 4.69835e-22 
-9.19926e-23 
 1.87237e-23 
-3.65910e-24 
 7.10080e-25 
-1.37287e-25 
 2.64052e-26 
-5.04429e-27 
 9.56043e-28 
-1.79676e-28 
 3.34856e-29 
-6.19262e-30 
 1.13819e-30 
-2.08550e-31 
 3.83160e-32 
-7.13061e-33 
 1.36452e-33 
-2.72850e-34 
 5.73332e-35 
-1.24101e-35 
 2.61613e-36 
-4.81230e-37 
 5.79938e-38 
 2.04893e-39 
-5.30522e-40 
-2.68801e-39 
 1.00000e+00 
 1.00000e+00 
 1.00000e+00 
 1.00000e+00 
 1.00000e+00 
 1.00000e+00 
 1.00000e+00 
 1.00000e+00 
       00001 
 1.00000e+00 
 1.00000e+00 
 1.00000e+00 
 1.00000e+00 
 7.79079e-17 
 9.97040e-17 
-5.15302e-17 
 1.43420e-17 
-1.47441e-19 
-1.77419e-18 
 9.88583e-19 
-2.96990e-19 
 6.62117e-20 
-1.44822e-20 
 2.94633e-21 
-5.79482e-22 
 1.17509e-22 
-2.23276e-23 
 4.31594e-24 
-8.34213e-25 
 1.60360e-25 
-3.05968e-26 
 5.78832e-27 
-1.08530e-27 
 2.01720e-28 
-3.71966e-29 
 6.81573e-30 
-1.24488e-30 
 2.27997e-31 
-4.23245e-32 
 8.09793e-33 
-1.62760e-33 
 3.46758e-34 
-7.69180e-35 
 1.68106e-35 
-3.25237e-36 
 4.19251e-37 
 2.77835e-38 
-3.09519e-38 
-3.53889e-39 
 1.58077e-38 
       00001 
 1.00000e+00 
 1.00000e+00 
 1.00000e+00 
 1.00000e+00 
 1.00000e+00 
 1.00000e+00 
 1.00000e+00 
       00001 
 1.00000e+00 
       00001 
 1.00000e+00 
 1.00000e+00 
 1.00000e+00 
 1.00000e+00 
 2.14168e-16 
-2.65383e-17 
-1.66359e-17 
 1.40120e-17 
-3.86670e-18 
 7.74679e-19 
-1.43293e-19 
 2.65310e-20 
-4.85126e-21 
 8.88606e-22 
-1.74797e-22 
 3.35747e-23 
-6.47898e-24 
 1.23798e-24 
-2.33880e-25 
 4.36661e-26 
-8.06014e-27 
 1.47263e-27 
-2.66803e-28 
 4.80679e-29 
-8.65437e-30 
 1.57201e-30 
-2.93140e-31 
 5.76041e-32 
-1.22369e-32 
 2.81797e-33 
-6.78134e-34 
 1.58390e-34 
-3.17260e-35 
 3.74351e-36 
 7.29796e-37 
-6.30653e-37 
 1.58602e-37 
 7.63292e-38 
-1.35743e-37 
 1.00000e+00 
 1.00000e+00 
 1.00000e+00 
       00001 
 1.00000e+00 
 1.00000e+00 
 1.00000e+00 
 1.00000e+00 
 1.00000e+00 
 1.00000e+00 
 1.00000e+00 
 1.00000e+00 
 1.00000e+00 
 1.00000e+00 
 1.00000e+00 
 1.00000e+00 
 1.00000e+00 
 2.25054e-16 
-5.57515e-17 
 9.06443e-18 
-1.47463e-18 
 2.53904e-19 
-4.34737e-20 
 7.60575e-21 
-1.35651e-21 
 2.87255e-22 
-5.65392e-23 
 1.07268e-23 
-1.99969e-24 
 3.66887e-25 
-6.63444e-26 
 1.18525e-26 
-2.09840e-27 
 3.69720e-28 
-6.53026e-29 
 1.17319e-29 
-2.20313e-30 
 4.49763e-31 
-1.02834e-31 
 2.59871e-32 
-6.83385e-33 
 1.71831e-33 
-3.66528e-34 
 4.64314e-35 
 9.12246e-36 
-9.09508e-36 
 3.41046e-36 
-2.98208e-37 
-7.60811e-37 
 9.67589e-37 
 1.00000e+00 
 1.00000e+00 
 1.00000e+00 
 1.00000e+00 
 1.00000e+00 
 1.00000e+00 
 1.00000e+00 
 1.00000e+00 
       00001 
 1.00000e+00 
 1.00000e+00 
 1.00000e+00 
 1.00000e+00 
 1.00000e+00 
       00001 
       00001 
 1.00000e+00 
 1.00000e+00 
 8.82250e-17 
-1.20085e-17 
 2.36477e-18 
-3.55527e-19 
 6.37611e-20 
-9.98945e-21 
 2.43822e-21 
-5.27174e-22 
 9.69147e-23 
-1.77057e-23 
 3.17501e-24 
-5.59524e-25 
 9.72971e-26 
-1.67730e-26 
 2.88319e-27 
-4.99174e-28 
 8.89132e-29 
-1.69758e-29 
 3.66837e-30 
-9.20164e-31 
 2.56840e-31 
-7.34153e-32 
 1.97367e-32 
-4.49725e-33 
 6.48043e-34 
 8.66691e-35 
-1.15022e-34 
 5.18715e-35 
-1.24846e-35 
-2.28406e-36 
 5.73755e-36 
-6.07500e-36 
 1.00000e+00 
 1.00000e+00 
 1.00000e+00 
 1.00000e+00 
 1.00000e+00 
 1.00000e+00 
 1.00000e+00 
 1.00000e+00 
 1.00000e+00 
 1.00000e+00 
 1.00000e+00 
 1.00000e+00 
 1.00000e+00 
 1.00000e+00 
       00001 
 1.00000e+00 
 1.00000e+00 
       00001 
 1.00000e+00 
 2.64291e-17 
-2.00614e-18 
 3.48509e-19 
-7.47819e-20 
 1.78485e-20 
-5.27855e-21 
 8.72571e-22 
-1.56497e-22 
 2.72280e-23 
-4.63508e-24 
 7.78603e-25 
-1.29981e-25 
 2.17327e-26 
-3.68887e-27 
 6.55544e-28 
-1.29577e-28 
 3.05144e-29 
-8.58320e-30 
 2.65372e-30 
-8.18047e-31 
 2.33142e-31 
-5.65000e-32 
 9.28819e-33 
 5.59851e-34 
-1.34225e-33 
 6.98690e-34 
-2.22996e-34 
 2.19831e-35 
 3.27810e-35 
-3.71148e-35 
 3.47316e-35 
 1.00000e+00 
 1.00000e+00 
 1.00000e+00 
 1.00000e+00 
 1.00000e+00 
 1.00000e+00 
 1.00000e+00 
 1.00000e+00 
 1.00000e+00 
 1.00000e+00 
 1.00000e+00 
 1.00000e+00 
 1.00000e+00 
 1.00000e+00 
 1.00000e+00 
 1.00000e+00 
 1.00000e+00 
 1.00000e+00 
 1.00000e+00 
-1.59211e-17 
 1.30461e-18 
-4.91681e-19 
 1.68832e-19 
-3.87952e-20 
 7.03546e-21 
-1.35561e-21 
 2.25739e-22 
-3.65141e-23 
 5.85073e-24 
-9.38280e-25 
 1.52118e-25 
-2.53849e-26 
 4.56215e-27 
-9.64085e-28 
 2.57567e-28 
-8.28426e-29 
 2.82978e-29 
-9.32246e-30 
 2.79343e-30 
-7.15019e-31 
 1.32017e-31 
-7.00659e-34 
-1.46085e-32 
 8.75803e-33 
-3.30109e-33 
 7.04034e-34 
 1.37864e-34 
-2.67766e-34 
 2.16388e-34 
-1.83813e-34 
 1.00000e+00 
 1.00000e+00 
 1.00000e+00 
 1.00000e+00 
 1.00000e+00 
 1.00000e+00 
 1.00000e+00 
 1.00000e+00 
 1.00000e+00 
 1.00000e+00 
 1.00000e+00 
 1.00000e+00 
 1.00000e+00 
 1.26054e-16 
 1.00000e+00 
 1.00000e+00 
 1.00000e+00 
 1.00000e+00 
 1.00000e+00 
 1.00000e+00 
-3.25947e-18 
 2.16344e-18 
-4.55883e-19 
 7.52134e-20 
-1.24648e-20 
 1.76483e-21 
-2.59985e-22 
 3.88587e-23 
-5.92398e-24 
 9.32413e-25 
-1.55068e-25 
 2.91228e-26 
-6.96848e-27 
 2.21655e-27 
-8.23838e-28 
 3.08566e-28 
-1.07706e-28 
 3.36950e-29 
-9.04219e-30 
 1.83869e-30 
-1.09229e-31 
-1.47537e-31 
 1.03870e-31 
-4.44729e-32 
 1.26471e-32 
-7.76624e-34 
-1.98049e-33 
 1.78257e-33 
-1.16263e-33 
 9.06130e-34 
 1.00000e+00 
 1.00000e+00 
 1.00000e+00 
 1.00000e+00 
 1.00000e+00 
       00001 
 1.00000e+00 
 1.00000e+00 
 1.00000e+00 
 1.00000e+00 
       00001 
 1.00000e+00 
 1.00000e+00 
 1.00000e+00 
 7.93193e-01 
 1.00000e+00 
 1.00000e+00 
 1.00000e+00 
 1.00000e+00 
 1.00000e+00 
 3.82051e-17 
-5.87934e-18 
 7.25015e-19 
-8.99198e-20 
 1.09672e-20 
-1.41703e-21 
 1.91968e-22 
-2.76379e-23 
 4.36342e-24 
-7.70608e-25 
 1.65424e-25 
-4.94665e-26 
 1.95592e-26 
-8.38063e-27 
 3.41045e-27 
-1.25365e-27 
 4.07483e-28 
-1.13859e-28 
 2.50276e-29 
-2.57518e-30 
-1.35307e-30 
 1.17269e-30 
-5.62105e-31 
 1.90161e-31 
-3.43550e-32 
-1.13163e-32 
 1.58814e-32 
-1.05231e-32 
 5.80840e-33 
-4.15196e-33 
 1.00000e+00 
 1.00000e+00 
 1.00000e+00 
 1.00000e+00 
 1.00000e+00 
       00001 
 1.00000e+00 
 1.00000e+00 
 1.00000e+00 
 1.00000e+00 
 1.00000e+00 
 1.00000e+00 
 1.00000e+00 
 1.00000e+00 
       00001 
 1.00000e+00 
 1.00000e+00 
 1.00000e+00 
 1.00000e+00 
 1.00000e+00 
-6.45020e-17 
 2.44327e-18 
-1.56268e-19 
 1.19882e-20 
-9.36212e-22 
 8.71698e-23 
-2.22960e-23 
 7.80182e-24 
-2.55520e-24 
 8.32342e-25 
-3.55584e-25 
 1.76544e-25 
-8.61415e-26 
 3.78607e-26 
-1.46299e-26 
 4.93061e-27 
-1.42645e-27 
 3.33329e-28 
-4.57917e-29 
-1.06273e-29 
 1.26097e-29 
-6.75379e-30 
 2.59798e-30 
-6.63722e-31 
 7.05614e-34 
 1.31426e-31 
-1.03879e-31 
 5.68509e-32 
-2.69783e-32 
 1.74636e-32 
-6.22164e-18 
 9.74623e-18 
 1.00000e+00 
 1.00000e+00 
 1.00000e+00 
 1.00000e+00 
 1.00000e+00 
 1.00000e+00 
 1.00000e+00 
 1.00000e+00 
 1.00000e+00 
 1.66287e-16 
 8.12249e-17 
 3.89205e-17 
-2.82522e-17 
 1.00000e+00 
 1.00000e+00 
       00001 
 1.00000e+00 
 1.00000e+00 
-9.79837e-17 
 6.45135e-18 
-7.07430e-19 
 8.80877e-20 
-1.09549e-20 
 1.21064e-21 
-9.33294e-23 
-3.03832e-24 
 4.39441e-24 
-2.71022e-24 
 1.59908e-24 
-8.79289e-25 
 4.18208e-25 
-1.70480e-25 
 5.96586e-26 
-1.78019e-26 
 4.35679e-27 
-7.14840e-28 
-5.79870e-29 
 1.28591e-28 
-7.75831e-29 
 3.32497e-29 
-1.03476e-29 
 1.47644e-30 
 8.90388e-31 
-9.88052e-31 
 6.02920e-31 
-2.84555e-31 
 1.15344e-31 
-6.52293e-32 
 6.42284e-18 
-3.15123e-17 
 1.16768e-16 
 1.00000e+00 
 1.00000e+00 
 1.00000e+00 
 1.00000e+00 
 1.00000e+00 
 1.00000e+00 
 1.00000e+00 
       00001 
 1.00000e+00 
 1.27627e-16 
-7.00297e-17 
 5.10326e-17 
 1.00000e+00 
       00001 
 1.00000e+00 
 1.00000e+00 
 1.00000e+00 
 3.69322e-17 
-7.45230e-18 
 9.63433e-19 
-1.17790e-19 
 1.18540e-20 
-5.91502e-22 
-1.02720e-22 
 4.84759e-23 
-2.28164e-23 
 1.38966e-23 
-8.71404e-24 
 4.55050e-24 
-1.97565e-24 
 7.21817e-25 
-2.21937e-25 
 5.61337e-26 
-1.03007e-26 
 1.04605e-28 
 1.23093e-27 
-8.53160e-28 
 4.04089e-28 
-1.44706e-28 
 3.29144e-29 
 2.86842e-30 
-8.67790e-30 
 6.21713e-30 
-3.20064e-30 
 1.32209e-30 
-4.41629e-31 
 1.96450e-31 
-2.76107e-18 
 8.16607e-18 
-2.39621e-17 
 1.32671e-16 
 1.00000e+00 
 1.00000e+00 
 1.00000e+00 
 1.00000e+00 
 1.00000e+00 
 1.00000e+00 
 1.00000e+00 
       00001 
 1.00000e+00 
 1.00000e+00 
 1.00000e+00 
 1.00000e+00 
 1.00000e+00 
       00001 
 1.00000e+00 
 1.00000e+00 
-1.48627e-17 
 2.98783e-18 
-4.40788e-19 
 1.22621e-20 
 1.23369e-20 
-3.64781e-21 
 7.77395e-22 
-1.53868e-22 
 1.03979e-22 
-8.12151e-23 
 4.82207e-23 
-2.26548e-23 
 8.72855e-24 
-2.77536e-24 
 7.17598e-25 
-1.40186e-25 
 9.67851e-27 
 1.08293e-26 
-8.95900e-27 
 4.69192e-27 
-1.88286e-27 
 5.44109e-28 
-5.22567e-29 
-6.61148e-29 
 6.12259e-29 
-3.49512e-29 
 1.57249e-29 
-5.66005e-30 
 1.40154e-30 
-2.84935e-31 
 1.26554e-18 
-2.67241e-18 
 1.16040e-17 
-5.13481e-17 
 1.27851e-16 
       00001 
 1.00000e+00 
 1.00000e+00 
 1.00000e+00 
 1.00000e+00 
       00001 
 1.00000e+00 
 1.00000e+00 
 1.00000e+00 
 1.00000e+00 
       00001 
 1.00000e+00 
 1.00000e+00 
 1.00000e+00 
-1.40839e-17 
 2.96155e-18 
 9.68071e-19 
-9.04196e-19 
 3.46970e-19 
-8.58492e-20 
 1.25755e-20 
-9.40996e-22 
 4.90898e-22 
-6.73424e-22 
 4.90797e-22 
-2.55283e-22 
 1.05201e-22 
-3.49594e-23 
 9.19547e-24 
-1.82633e-24 
 1.91693e-25 
 8.35768e-26 
-8.90934e-26 
 5.21753e-26 
-2.31553e-26 
 7.86275e-27 
-1.56127e-27 
-3.46888e-28 
 5.67960e-28 
-3.68968e-28 
 1.79854e-28 
-7.17429e-29 
 2.17958e-29 
-2.60753e-30 
-2.05959e-30 
-4.54182e-19 
 9.91351e-19 
-3.59614e-18 
 9.64765e-18 
-5.54686e-18 
-3.35371e-17 
-9.88826e-17 
 1.00000e+00 
 1.00000e+00 
 1.00000e+00 
 1.00000e+00 
 1.00000e+00 
 1.00000e+00 
 1.00000e+00 
 1.00000e+00 
 1.00000e+00 
 1.00000e+00 
 1.00000e+00 
 1.00000e+00 
 1.41521e-17 
 1.86035e-17 
-1.41434e-17 
 5.60960e-18 
-1.20649e-18 
 1.65453e-19 
 1.77295e-21 
-3.78423e-21 
-4.20006e-21 
 4.71132e-21 
-2.80214e-21 
 1.25467e-21 
-4.44134e-22 
 1.19961e-22 
-2.31255e-23 
 2.69328e-24 
 4.99868e-25 
-8.19294e-25 
 5.55607e-25 
-2.71663e-25 
 1.04038e-25 
-2.83065e-26 
 1.07115e-27 
 4.78832e-27 
-3.77648e-27 
 1.98869e-27 
-8.58115e-28 
 3.02717e-28 
-6.98921e-29 
-9.36598e-30 
 2.63698e-29 
 1.51184e-19 
-2.86722e-19 
 7.18193e-19 
-1.06003e-18 
-3.19207e-19 
-1.99550e-18 
 9.06414e-18 
 1.43374e-17 
 9.15278e-17 
 1.00000e+00 
 1.00000e+00 
 1.00000e+00 
 1.00000e+00 
 1.00000e+00 
       00001 
 1.00000e+00 
 1.00000e+00 
 1.00000e+00 
 1.00000e+00 
 1.96083e-16 
-1.53696e-16 
 8.62675e-17 
-1.64300e-17 
 2.08764e-18 
 1.48818e-19 
-1.68343e-19 
-5.83191e-22 
 4.14160e-20 
-2.97361e-20 
 1.46179e-20 
-5.64578e-21 
 1.62213e-21 
-2.95830e-22 
 2.62758e-23 
 1.35192e-24 
-6.45129e-24 
 5.61591e-24 
-3.08163e-24 
 1.28197e-24 
-4.25117e-25 
 7.45770e-26 
 3.23496e-26 
-3.75602e-26 
 2.14920e-26 
-9.79157e-27 
 3.85309e-27 
-1.14624e-27 
 1.29346e-28 
 1.52596e-28 
-1.98398e-28 
-3.84324e-20 
 5.91633e-20 
-9.96747e-20 
 1.10926e-19 
-1.23077e-19 
 2.35260e-19 
-4.35341e-19 
 4.67524e-18 
 6.03987e-18 
-1.13768e-16 
       00000 
 1.00000e+00 
 1.00000e+00 
 1.00000e+00 
       00001 
 1.00000e+00 
 1.00000e+00 
 1.00000e+00 
 1.00000e+00 
 1.00000e+00 
 1.00000e+00 
-2.14762e-16 
 2.51346e-17 
 1.92902e-18 
-3.57283e-18 
 6.58065e-19 
 3.13693e-19 
-3.06005e-19 
 1.63978e-19 
-7.01379e-20 
 2.27125e-20 
-4.28325e-21 
-5.53950e-24 
-7.08877e-24 
-3.07781e-23 
 5.10476e-23 
-3.47014e-23 
 1.50352e-23 
-5.51613e-24 
 1.61113e-24 
 5.62564e-26 
-3.57719e-25 
 2.33789e-25 
-1.06422e-25 
 4.61090e-26 
-1.62220e-26 
 3.45039e-27 
 5.26401e-28 
-1.19633e-27 
 1.24031e-27 
 8.85827e-21 
-1.12389e-20 
 1.58319e-20 
-1.98015e-20 
 2.88559e-20 
-6.22578e-20 
 2.10198e-19 
 2.85960e-19 
-6.11644e-18 
 1.62128e-17 
-5.01527e-17 
 1.89080e-16 
 1.00000e+00 
 1.00000e+00 
 1.00000e+00 
 1.00000e+00 
 1.00000e+00 
 1.00000e+00 
 1.00000e+00 
 1.00000e+00 
 1.00000e+00 
       00001 
-2.72760e-17 
-5.72424e-17 
 1.88233e-17 
 9.08428e-19 
-3.13190e-18 
 2.01900e-18 
-8.07024e-19 
 2.39208e-19 
-3.13894e-20 
-8.79278e-21 
 6.94138e-21 
-2.72616e-21 
 1.07058e-21 
-4.71916e-22 
 1.65202e-22 
-6.81333e-23 
 2.38669e-23 
-3.15301e-24 
-2.30299e-24 
 2.26682e-24 
-1.26775e-24 
 5.49664e-25 
-2.09341e-25 
 6.26371e-26 
-1.83852e-27 
-7.36935e-27 
 7.59949e-27 
-7.02120e-27 
-1.82092e-21 
 2.12143e-21 
-2.81103e-21 
 4.02955e-21 
-9.59079e-21 
 4.19081e-20 
-1.42766e-19 
 2.24325e-19 
 5.31743e-19 
-1.12781e-17 
 8.47565e-17 
 1.00000e+00 
 1.00000e+00 
 1.00000e+00 
 1.00000e+00 
 1.00000e+00 
 1.00000e+00 
 1.00000e+00 
 1.00000e+00 
 1.00000e+00 
 1.00000e+00 
 1.00000e+00 
 1.00000e+00 
 1.00000e+00 
-1.41789e-17 
-2.68867e-17 
 2.17996e-17 
-1.10770e-17 
 3.61072e-18 
-5.90071e-19 
-9.68323e-20 
 9.81802e-20 
-3.31748e-20 
 1.10702e-20 
-4.97130e-21 
 2.46166e-21 
-6.79894e-22 
 3.50045e-22 
-7.93217e-23 
-1.06662e-23 
 2.15150e-23 
-1.37008e-23 
 6.40742e-24 
-2.41655e-24 
 7.03134e-25 
-1.05713e-25 
-4.79311e-26 
 5.50891e-26 
-4.40950e-26 
 3.65662e-26 
 4.76673e-22 
-6.76177e-22 
 1.13907e-21 
-7.48408e-22 
 1.09709e-21 
-3.74985e-20 
 4.29050e-19 
-2.37268e-18 
 8.36280e-18 
-2.10089e-17 
-3.12355e-17 
 1.00000e+00 
 1.00000e+00 
 1.00000e+00 
 1.00000e+00 
 1.00000e+00 
 6.32526e-01 
 5.15607e-01 
 1.00000e+00 
 1.00000e+00 
 1.00000e+00 
       00001 
 1.00000e+00 
 1.00000e+00 
 1.00000e+00 
 2.07681e-02 
-1.32962e-16 
 5.44617e-17 
-1.06942e-17 
-4.90678e-19 
 1.53551e-18 
-4.26575e-19 
 1.07230e-19 
-4.39553e-20 
 2.50682e-20 
-1.27020e-20 
 4.97221e-21 
-1.45284e-21 
 7.96202e-23 
 1.88848e-22 
-1.44060e-22 
 7.29989e-23 
-2.96167e-23 
 9.58875e-24 
-2.07173e-24 
-1.32409e-25 
 4.93822e-25 
-3.82210e-25 
 2.43319e-25 
-1.91087e-25 
-3.33838e-22 
 1.04489e-21 
-4.40305e-21 
 7.42074e-21 
 2.32223e-20 
-1.03791e-19 
-1.84295e-19 
 6.37648e-18 
-3.58543e-17 
 1.37802e-16 
 1.00000e+00 
 1.00000e+00 
 1.00000e+00 
 1.00000e+00 
 1.00000e+00 
 1.36140e-18 
 7.74508e-18 
 2.26113e-18 
 2.75576e-17 
-5.05493e-17 
 1.00000e+00 
 1.00000e+00 
 1.00000e+00 
 1.00000e+00 
 1.00000e+00 
 1.00000e+00 
 1.00000e+00 
-1.48624e-16 
 2.61797e-17 
 2.84662e-17 
-5.99773e-18 
 9.96409e-19 
-3.41708e-19 
 2.05951e-19 
-1.52254e-19 
 5.46590e-20 
-2.34292e-20 
 3.56761e-21 
 1.44791e-21 
-1.46843e-21 
 8.10577e-22 
-3.52996e-22 
 1.24722e-22 
-3.27213e-23 
 2.99991e-24 
 3.62407e-24 
-3.48166e-24 
 2.16515e-24 
-1.21344e-24 
 8.94475e-25 
-3.88669e-23 
-1.46998e-21 
 1.39138e-20 
-7.33540e-20 
 8.10646e-20 
 7.60263e-19 
-2.27017e-18 
-1.74256e-18 
 1.12826e-16 
 1.00000e+00 
 1.00000e+00 
 1.00000e+00 
 1.00000e+00 
 1.00000e+00 
 4.48735e-17 
-6.82360e-18 
 1.62262e-19 
 1.51651e-18 
-4.90857e-18 
 1.49659e-17 
 4.76846e-19 
 7.23157e-01 
 1.00000e+00 
 1.00000e+00 
 1.00000e+00 
 1.00000e+00 
 1.00000e+00 
 1.00000e+00 
 1.00000e+00 
-5.60238e-17 
-1.45179e-17 
 1.78978e-18 
 1.44810e-18 
-9.80404e-19 
 7.89185e-19 
-3.65967e-19 
 7.90941e-20 
 8.27407e-21 
-1.45729e-20 
 8.74312e-21 
-4.09774e-21 
 1.56474e-21 
-4.66387e-22 
 8.14411e-23 
 1.93819e-23 
-3.06326e-23 
 2.11764e-23 
-1.14203e-23 
 5.71539e-24 
-3.94597e-24 
 2.43746e-21 
-2.42536e-21 
-1.38711e-20 
 1.97350e-19 
-1.45936e-18 
-1.71383e-18 
 1.48944e-17 
-3.09759e-17 
 1.00000e+00 
 1.00000e+00 
 1.00000e+00 
       00001 
 1.00000e+00 
-1.25581e-17 
 5.21056e-18 
 1.10756e-18 
 1.57415e-19 
-3.73482e-19 
 1.28481e-18 
-3.22965e-18 
 2.78331e-17 
-3.46278e-17 
 2.82522e-17 
       00001 
 1.00000e+00 
 1.00000e+00 
 1.00000e+00 
 1.00000e+00 
 1.00000e+00 
 1.00000e+00 
 3.95036e-01 
 1.76902e-17 
-1.31903e-18 
 8.20258e-18 
-4.34667e-18 
 1.94338e-18 
 7.92748e-21 
-1.45627e-19 
 9.06515e-20 
-4.62810e-20 
 1.90570e-20 
-6.28344e-21 
 1.41934e-21 
-9.18845e-24 
-2.44542e-22 
 2.03094e-22 
-1.18136e-22 
 5.67166e-23 
-2.53905e-23 
 1.63145e-23 
-1.04422e-20 
 2.02626e-20 
-5.66247e-20 
-2.94009e-20 
 2.33548e-18 
-1.40059e-17 
-2.19968e-18 
 1.00000e+00 
 1.00000e+00 
       00001 
 1.00000e+00 
 1.00000e+00 
 5.50879e-17 
 1.86200e-17 
-3.48584e-18 
 5.02027e-19 
-7.17811e-20 
 1.21156e-19 
-3.68526e-19 
 1.63194e-18 
-3.99474e-18 
 5.12094e-18 
-4.11716e-18 
 1.08241e-18 
-1.39611e-17 
 1.00000e+00 
 1.00000e+00 
 1.00000e+00 
 1.00000e+00 
 1.00000e+00 
       00001 
 1.00000e+00 
 1.05845e-16 
-5.29150e-17 
 4.13602e-17 
 2.20678e-18 
-1.68856e-18 
 8.65315e-19 
-5.09175e-19 
 2.24598e-19 
-8.19234e-20 
 2.15185e-20 
-2.32973e-21 
-1.60061e-21 
 1.83071e-21 
-1.20614e-21 
 6.16464e-22 
-2.64703e-22 
 1.05410e-22 
-6.25509e-23 
 2.75890e-20 
-7.32144e-20 
 2.65785e-19 
-1.22165e-18 
 2.89333e-18 
 8.50849e-17 
 1.00000e+00 
       00001 
 1.00000e+00 
 1.00000e+00 
 1.00000e+00 
 1.00000e+00 
 1.96238e-16 
-2.01980e-17 
 2.73563e-18 
-4.76901e-19 
 9.92229e-20 
-4.46960e-20 
 1.33950e-19 
-3.27183e-19 
 6.02263e-19 
-8.07805e-19 
-3.96125e-19 
 4.97746e-19 
 3.77709e-18 
 4.07716e-17 
 2.45397e-01 
 1.00000e+00 
 1.00000e+00 
 1.00000e+00 
 1.00000e+00 
 1.00000e+00 
 1.00000e+00 
 1.00000e+00 
 8.70471e-17 
-2.83120e-17 
 5.68743e-18 
-5.61027e-18 
 2.53554e-18 
-1.02252e-18 
 3.23702e-19 
-4.10147e-20 
-4.76274e-21 
 1.52240e-20 
-1.17976e-20 
 6.64891e-21 
-3.01331e-21 
 1.14770e-21 
-4.02264e-22 
 2.20924e-22 
-4.32865e-20 
 2.06177e-19 
-8.57963e-19 
 2.54799e-18 
-1.98327e-17 
 1.00000e+00 
 1.00000e+00 
 1.00000e+00 
 1.00000e+00 
 1.00000e+00 
 1.00000e+00 
 1.05050e-16 
-7.18195e-17 
 1.46209e-17 
-2.25884e-18 
 3.57124e-19 
-6.32084e-20 
 2.04033e-20 
-2.97554e-20 
 5.99354e-20 
-9.40567e-20 
 7.10517e-20 
 2.01651e-20 
-5.92482e-20 
 1.70920e-18 
-7.00297e-18 
 8.35879e-18 
 1.05045e-16 
 1.00000e+00 
 1.00000e+00 
 1.00000e+00 
 1.00000e+00 
 1.00000e+00 
 1.00000e+00 
 1.00000e+00 
 8.76331e-01 
-6.24477e-17 
 2.80119e-17 
-1.23182e-17 
 5.33324e-18 
-1.29279e-18 
 1.69513e-19 
 2.89151e-20 
-6.94683e-20 
 6.95976e-20 
-3.42004e-20 
 1.36898e-20 
-4.49584e-21 
 1.37177e-21 
-7.48677e-22 
-1.30878e-19 
-2.23731e-19 
 3.21407e-18 
-1.05729e-17 
       00000 
 1.00000e+00 
 1.00000e+00 
 1.00000e+00 
 1.00000e+00 
 1.00000e+00 
 4.35708e-17 
-1.41521e-17 
 1.13172e-17 
-4.71634e-18 
 1.10964e-18 
-2.09472e-19 
 3.81429e-20 
-8.98036e-21 
 6.69570e-21 
-1.03240e-20 
 1.26443e-20 
-7.90333e-21 
-8.53365e-21 
 9.68744e-20 
-3.83401e-19 
 4.42279e-19 
 6.00820e-18 
-4.55475e-17 
 9.57999e-17 
-5.39580e-17 
       00001 
 1.00000e+00 
 1.00000e+00 
 1.00000e+00 
 1.00000e+00 
 1.00000e+00 
 1.00000e+00 
-7.51874e-17 
 8.08379e-17 
-1.71301e-17 
 2.10653e-18 
 3.61076e-20 
-2.16668e-19 
 5.56535e-19 
-3.71339e-19 
 1.68260e-19 
-5.74270e-20 
 1.37400e-20 
-4.89274e-21 
 2.22200e-21 
 7.36093e-19 
-1.79312e-18 
-3.10680e-18 
 3.50149e-17 
 1.00000e+00 
 1.00000e+00 
       00001 
 1.00000e+00 
 1.00000e+00 
 3.35111e-18 
-3.27496e-18 
 3.47381e-18 
-1.63748e-18 
 9.52029e-19 
-3.42099e-19 
 8.64464e-20 
-1.83558e-20 
 3.99378e-21 
-1.65925e-21 
 1.70921e-21 
-1.63029e-21 
 4.04361e-22 
 5.36220e-21 
-2.21533e-20 
 3.10800e-20 
 3.97794e-19 
-2.74618e-18 
 8.11039e-18 
-1.16567e-17 
 8.36339e-18 
-8.01562e-18 
-5.93225e-17 
 1.00000e+00 
 1.00000e+00 
       00001 
 1.00000e+00 
 1.00000e+00 
 1.00000e+00 
 1.00000e+00 
 3.50149e-17 
 2.00431e-18 
 3.92920e-18 
 4.29514e-18 
-3.86895e-18 
 2.06492e-18 
-7.15958e-19 
 2.05219e-19 
-5.14838e-20 
 1.45503e-20 
-7.65024e-21 
 2.46855e-18 
 9.28047e-18 
-4.23870e-17 
 1.00000e+00 
 1.00000e+00 
       00001 
 1.00000e+00 
 1.00000e+00 
 8.36380e-17 
-3.82580e-18 
 2.54143e-18 
-6.51402e-19 
 4.05406e-19 
-1.77871e-19 
 7.69759e-20 
-2.48940e-20 
 6.09631e-21 
-1.25680e-21 
 3.86658e-22 
-3.27083e-22 