<?xml version="1.0" encoding="utf-8"?>
<VTKFile byte_order="LittleEndian" type="UnstructuredGrid" version="0.1">
   <UnstructuredGrid>
      <Piece NumberOfCells="18304" NumberOfPoints="9293">
         <Points>
            <DataArray Name="Points" NumberOfComponents="3" format="ascii" type="Float32">
22.0000 13.0000 0.0000
21.8750 12.8750 0.0000
22.0000 12.7500 0.0000
21.7500 13.0000 0.0000
21.7500 12.7500 0.0000
21.6250 12.8750 0.0000
21.8750 12.6250 0.0000
22.0000 12.5000 0.0000
21.5000 13.0000 0.0000
21.6250 12.6250 0.0000
21.5000 12.7500 0.0000
21.7500 12.5000 0.0000
21.8750 12.3750 0.0000
21.3750 12.8750 0.0000
21.5000 12.5000 0.0000
21.6250 12.3750 0.0000
21.3750 12.6250 0.0000
22.0000 12.2500 0.0000
21.2500 13.0000 0.0000
21.7500 12.2500 0.0000
21.2500 12.7500 0.0000
21.8750 12.1250 0.0000
21.3750 12.3750 0.0000
21.1250 12.8750 0.0000
21.5000 12.2500 0.0000
21.2500 12.5000 0.0000
21.6250 12.1250 0.0000
21.1250 12.6250 0.0000
21.0000 13.0000 0.0000
22.0000 12.0000 0.0000
21.0000 12.7500 0.0000
21.7500 12.0000 0.0000
21.2500 12.2500 0.0000
21.3750 12.1250 0.0000
21.1250 12.3750 0.0000
21.0000 12.5000 0.0000
21.5000 12.0000 0.0000
20.8750 12.8750 0.0000
21.8750 11.8750 0.0000
21.6250 11.8750 0.0000
20.8750 12.6250 0.0000
21.1250 12.1250 0.0000
21.0000 12.2500 0.0000
20.7500 13.0000 0.0000
22.0000 11.7500 0.0000
21.2500 12.0000 0.0000
20.7500 12.7500 0.0000
21.7500 11.7500 0.0000
20.8750 12.3750 0.0000
21.3750 11.8750 0.0000
20.7500 12.5000 0.0000
21.5000 11.7500 0.0000
20.6250 12.8750 0.0000
21.8750 11.6250 0.0000
21.0000 12.0000 0.0000
20.8750 12.1250 0.0000
21.6250 11.6250 0.0000
20.6250 12.6250 0.0000
21.1250 11.8750 0.0000
20.7500 12.2500 0.0000
21.2500 11.7500 0.0000
20.5000 13.0000 0.0000
22.0000 11.5000 0.0000
20.6250 12.3750 0.0000
21.3750 11.6250 0.0000
21.7500 11.5000 0.0000
20.5000 12.7500 0.0000
21.5000 11.5000 0.0000
20.5000 12.5000 0.0000
20.8750 11.8750 0.0000
21.0000 11.7500 0.0000
20.7500 12.0000 0.0000
20.6250 12.1250 0.0000
20.3750 12.8750 0.0000
21.8750 11.3750 0.0000
21.1250 11.6250 0.0000
21.6250 11.3750 0.0000
20.3750 12.6250 0.0000
21.2500 11.5000 0.0000
20.5000 12.2500 0.0000
21.3750 11.3750 0.0000
20.3750 12.3750 0.0000
20.2500 13.0000 0.0000
22.0000 11.2500 0.0000
20.2500 12.7500 0.0000
21.7500 11.2500 0.0000
20.7500 11.7500 0.0000
20.8750 11.6250 0.0000
20.6250 11.8750 0.0000
21.0000 11.5000 0.0000
20.5000 12.0000 0.0000
21.5000 11.2500 0.0000
20.2500 12.5000 0.0000
20.3750 12.1250 0.0000
21.1250 11.3750 0.0000
20.1250 12.8750 0.0000
21.8750 11.1250 0.0000
20.2500 12.2500 0.0000
21.2500 11.2500 0.0000
21.6250 11.1250 0.0000
20.1250 12.6250 0.0000
20.6250 11.6250 0.0000
20.7500 11.5000 0.0000
20.5000 11.7500 0.0000
20.8750 11.3750 0.0000
20.3750 11.8750 0.0000
20.1250 12.3750 0.0000
21.3750 11.1250 0.0000
20.0000 13.0000 0.0000
22.0000 11.0000 0.0000
21.7500 11.0000 0.0000
21.0000 11.2500 0.0000
20.2500 12.0000 0.0000
20.0000 12.7500 0.0000
21.5000 11.0000 0.0000
20.0000 12.5000 0.0000
20.1250 12.1250 0.0000
21.1250 11.1250 0.0000
20.5000 11.5000 0.0000
21.8750 10.8750 0.0000
20.6250 11.3750 0.0000
20.3750 11.6250 0.0000
19.8750 12.8750 0.0000
21.2500 11.0000 0.0000
20.0000 12.2500 0.0000
20.7500 11.2500 0.0000
20.2500 11.7500 0.0000
21.6250 10.8750 0.0000
19.8750 12.6250 0.0000
20.8750 11.1250 0.0000
20.1250 11.8750 0.0000
21.3750 10.8750 0.0000
19.8750 12.3750 0.0000
21.0000 11.0000 0.0000
20.0000 12.0000 0.0000
19.7500 13.0000 0.0000
22.0000 10.7500 0.0000
19.7500 12.7500 0.0000
21.7500 10.7500 0.0000
21.1250 10.8750 0.0000
20.3750 11.3750 0.0000
19.8750 12.1250 0.0000
20.2500 11.5000 0.0000
20.5000 11.2500 0.0000
21.5000 10.7500 0.0000
19.7500 12.5000 0.0000
20.6250 11.1250 0.0000
20.1250 11.6250 0.0000
20.7500 11.0000 0.0000
20.0000 11.7500 0.0000
19.7500 12.2500 0.0000
21.2500 10.7500 0.0000
19.6250 12.8750 0.0000
21.8750 10.6250 0.0000
20.8750 10.8750 0.0000
19.8750 11.8750 0.0000
21.6250 10.6250 0.0000
19.6250 12.6250 0.0000
19.6250 12.3750 0.0000
21.3750 10.6250 0.0000
21.0000 10.7500 0.0000
19.7500 12.0000 0.0000
20.2500 11.2500 0.0000
20.1250 11.3750 0.0000
20.3750 11.1250 0.0000
20.5000 11.0000 0.0000
20.0000 11.5000 0.0000
19.5000 13.0000 0.0000
22.0000 10.5000 0.0000
19.5000 12.7500 0.0000
21.7500 10.5000 0.0000
20.6250 10.8750 0.0000
19.8750 11.6250 0.0000
19.6250 12.1250 0.0000
21.1250 10.6250 0.0000
21.5000 10.5000 0.0000
19.5000 12.5000 0.0000
20.7500 10.7500 0.0000
19.7500 11.7500 0.0000
19.5000 12.2500 0.0000
21.2500 10.5000 0.0000
20.8750 10.6250 0.0000
19.6250 11.8750 0.0000
19.3750 12.8750 0.0000
21.8750 10.3750 0.0000
20.1250 11.1250 0.0000
21.6250 10.3750 0.0000
19.3750 12.6250 0.0000
20.2500 11.0000 0.0000
20.0000 11.2500 0.0000
20.3750 10.8750 0.0000
19.8750 11.3750 0.0000
21.0000 10.5000 0.0000
19.5000 12.0000 0.0000
19.3750 12.3750 0.0000
21.3750 10.3750 0.0000
19.7500 11.5000 0.0000
20.5000 10.7500 0.0000
20.6250 10.6250 0.0000
19.6250 11.6250 0.0000
19.2500 13.0000 0.0000
22.0000 10.2500 0.0000
21.7500 10.2500 0.0000
19.2500 12.7500 0.0000
19.3750 12.1250 0.0000
21.1250 10.3750 0.0000
21.5000 10.2500 0.0000
20.7500 10.5000 0.0000
19.2500 12.5000 0.0000
19.5000 11.7500 0.0000
20.0000 11.0000 0.0000
20.1250 10.8750 0.0000
19.8750 11.1250 0.0000
21.2500 10.2500 0.0000
20.2500 10.7500 0.0000
19.7500 11.2500 0.0000
19.2500 12.2500 0.0000
20.8750 10.3750 0.0000
19.3750 11.8750 0.0000
19.6250 11.3750 0.0000
20.3750 10.6250 0.0000
19.1250 12.8750 0.0000
21.8750 10.1250 0.0000
19.1250 12.6250 0.0000
21.6250 10.1250 0.0000
19.5000 11.5000 0.0000
20.5000 10.5000 0.0000
21.0000 10.2500 0.0000
19.2500 12.0000 0.0000
19.1250 12.3750 0.0000
21.3750 10.1250 0.0000
20.6250 10.3750 0.0000
19.3750 11.6250 0.0000
19.0000 13.0000 0.0000
22.0000 10.0000 0.0000
19.8750 10.8750 0.0000
19.1250 12.1250 0.0000
21.1250 10.1250 0.0000
19.7500 11.0000 0.0000
19.0000 12.7500 0.0000
20.0000 10.7500 0.0000
21.7500 10.0000 0.0000
20.7500 10.2500 0.0000
19.2500 11.7500 0.0000
20.1250 10.6250 0.0000
19.6250 11.1250 0.0000
19.0000 12.5000 0.0000
21.5000 10.0000 0.0000
20.2500 10.5000 0.0000
19.5000 11.2500 0.0000
19.3750 11.3750 0.0000
20.3750 10.3750 0.0000
19.1250 11.8750 0.0000
20.8750 10.1250 0.0000
19.0000 12.2500 0.0000
21.2500 10.0000 0.0000
18.8750 12.8750 0.0000
21.8750 9.8750 0.0000
20.5000 10.2500 0.0000
19.2500 11.5000 0.0000
18.8750 12.6250 0.0000
21.6250 9.8750 0.0000
19.0000 12.0000 0.0000
21.0000 10.0000 0.0000
19.7500 10.7500 0.0000
18.8750 12.3750 0.0000
19.6250 10.8750 0.0000
20.6250 10.1250 0.0000
19.8750 10.6250 0.0000
19.1250 11.6250 0.0000
21.3750 9.8750 0.0000
19.5000 11.0000 0.0000
20.0000 10.5000 0.0000
20.1250 10.3750 0.0000
19.3750 11.1250 0.0000
18.8750 12.1250 0.0000
21.1250 9.8750 0.0000
19.0000 11.7500 0.0000
18.7500 13.0000 0.0000
22.0000 9.7500 0.0000
20.7500 10.0000 0.0000
21.7500 9.7500 0.0000
20.2500 10.2500 0.0000
18.7500 12.7500 0.0000
19.2500 11.2500 0.0000
21.5000 9.7500 0.0000
18.7500 12.5000 0.0000
20.3750 10.1250 0.0000
19.1250 11.3750 0.0000
18.8750 11.8750 0.0000
20.8750 9.8750 0.0000
18.7500 12.2500 0.0000
21.2500 9.7500 0.0000
19.0000 11.5000 0.0000
20.5000 10.0000 0.0000
19.6250 10.6250 0.0000
19.7500 10.5000 0.0000
19.5000 10.7500 0.0000
19.3750 10.8750 0.0000
18.6250 12.8750 0.0000
19.8750 10.3750 0.0000
21.8750 9.6250 0.0000
21.6250 9.6250 0.0000
18.6250 12.6250 0.0000
19.2500 11.0000 0.0000
20.0000 10.2500 0.0000
21.0000 9.7500 0.0000
18.7500 12.0000 0.0000
18.8750 11.6250 0.0000
20.6250 9.8750 0.0000
18.6250 12.3750 0.0000
20.1250 10.1250 0.0000
19.1250 11.1250 0.0000
21.3750 9.6250 0.0000
19.0000 11.2500 0.0000
20.2500 10.0000 0.0000
20.7500 9.7500 0.0000
18.7500 11.7500 0.0000
18.6250 12.1250 0.0000
21.1250 9.6250 0.0000
18.5000 13.0000 0.0000
22.0000 9.5000 0.0000
18.5000 12.7500 0.0000
21.7500 9.5000 0.0000
18.8750 11.3750 0.0000
20.3750 9.8750 0.0000
19.5000 10.5000 0.0000
21.5000 9.5000 0.0000
18.5000 12.5000 0.0000
19.6250 10.3750 0.0000
19.3750 10.6250 0.0000
19.7500 10.2500 0.0000
19.2500 10.7500 0.0000
20.8750 9.6250 0.0000
18.6250 11.8750 0.0000
19.1250 10.8750 0.0000
19.8750 10.1250 0.0000
20.5000 9.7500 0.0000
18.5000 12.2500 0.0000
18.7500 11.5000 0.0000
21.2500 9.5000 0.0000
19.0000 11.0000 0.0000
20.0000 10.0000 0.0000
18.3750 12.8750 0.0000
21.8750 9.3750 0.0000
21.0000 9.5000 0.0000
18.5000 12.0000 0.0000
18.8750 11.1250 0.0000
20.6250 9.6250 0.0000
18.6250 11.6250 0.0000
20.1250 9.8750 0.0000
18.3750 12.6250 0.0000
21.6250 9.3750 0.0000
18.3750 12.3750 0.0000
21.3750 9.3750 0.0000
20.2500 9.7500 0.0000
18.7500 11.2500 0.0000
19.3750 10.3750 0.0000
19.5000 10.2500 0.0000
20.7500 9.5000 0.0000
18.5000 11.7500 0.0000
19.2500 10.5000 0.0000
21.1250 9.3750 0.0000
18.3750 12.1250 0.0000
19.6250 10.1250 0.0000
19.1250 10.6250 0.0000
20.3750 9.6250 0.0000
18.6250 11.3750 0.0000
19.0000 10.7500 0.0000
18.2500 13.0000 0.0000
22.0000 9.2500 0.0000
19.7500 10.0000 0.0000
18.2500 12.7500 0.0000
21.7500 9.2500 0.0000
18.8750 10.8750 0.0000
19.8750 9.8750 0.0000
18.2500 12.5000 0.0000
21.5000 9.2500 0.0000
18.3750 11.8750 0.0000
20.8750 9.3750 0.0000
18.5000 11.5000 0.0000
20.5000 9.5000 0.0000
18.7500 11.0000 0.0000
20.0000 9.7500 0.0000
18.2500 12.2500 0.0000
21.2500 9.2500 0.0000
18.6250 11.1250 0.0000
20.1250 9.6250 0.0000
18.3750 11.6250 0.0000
18.1250 12.8750 0.0000
21.8750 9.1250 0.0000
20.6250 9.3750 0.0000
21.0000 9.2500 0.0000
18.2500 12.0000 0.0000
19.2500 10.2500 0.0000
19.3750 10.1250 0.0000
19.1250 10.3750 0.0000
21.6250 9.1250 0.0000
18.1250 12.6250 0.0000
19.0000 10.5000 0.0000
19.5000 10.0000 0.0000
18.5000 11.2500 0.0000
20.2500 9.5000 0.0000
18.8750 10.6250 0.0000
18.1250 12.3750 0.0000
21.3750 9.1250 0.0000
19.6250 9.8750 0.0000
18.7500 10.7500 0.0000
18.2500 11.7500 0.0000
20.7500 9.2500 0.0000
19.7500 9.7500 0.0000
18.3750 11.3750 0.0000
18.1250 12.1250 0.0000
21.1250 9.1250 0.0000
20.3750 9.3750 0.0000
18.6250 10.8750 0.0000
19.8750 9.6250 0.0000
18.0000 13.0000 0.0000
22.0000 9.0000 0.0000
18.0000 12.7500 0.0000
21.7500 9.0000 0.0000
18.0000 12.5000 0.0000
18.5000 11.0000 0.0000
20.0000 9.5000 0.0000
[...]
         <PointData>
            <DataArray Name="fValues" NumberOfComponents="3" format="ascii" type="Float64">
-1.26120e-47        00000        00000 
 3.30207e-48        00000        00000 
 1.20472e-47        00000        00000 
 3.17967e-47        00000        00000 
-4.44401e-47        00000        00000 
-1.81280e-47        00000        00000 
-1.16321e-47        00000        00000 
 2.17747e-47        00000        00000 
-1.23229e-46        00000        00000 
 7.26039e-47        00000        00000 
 2.08385e-46        00000        00000 
 5.71468e-47        00000        00000 
 1.59727e-47        00000        00000 
 7.05609e-47        00000        00000 
-5.11507e-46        00000        00000 
-1.66354e-46        00000        00000 
-3.13137e-46        00000        00000 
-3.09220e-46        00000        00000 
 4.32401e-46        00000        00000 
 1.66407e-46        00000        00000 
-7.99800e-46        00000        00000 
 6.14705e-47        00000        00000 
 9.24572e-46        00000        00000 
-2.43443e-46        00000        00000 
 9.53368e-46        00000        00000 
 2.35547e-45        00000        00000 
 1.23709e-46        00000        00000 
 1.15638e-45        00000        00000 
-1.39061e-45        00000        00000 
 1.96428e-45        00000        00000 
 2.73179e-45        00000        00000 
-2.06735e-45        00000        00000 
-6.49562e-45        00000        00000 
-2.12089e-45        00000        00000 
-3.89168e-45        00000        00000 
-8.91297e-45        00000        00000 
 4.52739e-46        00000        00000 
 7.69059e-46        00000        00000 
-6.96817e-46        00000        00000 
 1.57704e-45        00000        00000 
-3.83779e-45        00000        00000 
 1.15512e-44        00000        00000 
 2.86198e-44        00000        00000 
 4.17771e-45        00000        00000 
-9.99963e-45        00000        00000 
 1.35731e-44        00000        00000 
-8.59512e-45        00000        00000 
 1.28900e-44        00000        00000 
 1.40423e-44        00000        00000 
 1.92267e-45        00000        00000 
 3.01275e-44        00000        00000 
-1.75835e-44        00000        00000 
-2.26204e-45        00000        00000 
 4.24948e-45        00000        00000 
-8.19022e-44        00000        00000 
-4.73463e-44        00000        00000 
-1.35632e-44        00000        00000 
 1.17343e-44        00000        00000 
-2.78596e-44        00000        00000 
-1.06004e-43        00000        00000 
-4.13294e-45        00000        00000 
-1.18549e-44        00000        00000 
 4.51475e-44        00000        00000 
-4.56568e-44        00000        00000 
 1.75399e-44        00000        00000 
-6.50358e-44        00000        00000 
 2.53204e-44        00000        00000 
 1.23982e-43        00000        00000 
-9.37901e-44        00000        00000 
 1.44108e-43        00000        00000 
 1.83900e-43        00000        00000 
 3.48671e-43        00000        00000 
 1.67277e-43        00000        00000 
 6.26117e-45        00000        00000 
-2.10882e-44        00000        00000 
 3.39959e-44        00000        00000 
 7.69958e-44        00000        00000 
-3.35244e-44        00000        00000 
-1.72425e-43        00000        00000 
 3.52293e-43        00000        00000 
-1.59182e-43        00000        00000 
 1.36927e-43        00000        00000 
 3.20221e-44        00000        00000 
-1.87432e-43        00000        00000 
-7.05323e-44        00000        00000 
 2.91673e-43        00000        00000 
-1.02710e-42        00000        00000 
-3.64986e-43        00000        00000 
-5.74331e-43        00000        00000 
-1.43326e-43        00000        00000 
-1.26407e-42        00000        00000 
-6.58602e-43        00000        00000 
 2.73100e-43        00000        00000 
-5.33722e-43        00000        00000 
 1.66751e-43        00000        00000 
-1.64437e-44        00000        00000 
 9.29083e-44        00000        00000 
-1.07931e-42        00000        00000 
 1.34377e-42        00000        00000 
-3.67934e-43        00000        00000 
 9.03463e-44        00000        00000 
 1.79314e-42        00000        00000 
 2.44647e-42        00000        00000 
 4.23982e-42        00000        00000 
 5.47929e-43        00000        00000 
 1.98658e-42        00000        00000 
-3.83783e-43        00000        00000 
 9.17651e-43        00000        00000 
-8.28921e-44        00000        00000 
 7.27319e-43        00000        00000 
-1.20319e-42        00000        00000 
-1.69503e-42        00000        00000 
 4.12597e-42        00000        00000 
 1.87177e-43        00000        00000 
 3.04186e-42        00000        00000 
-7.51130e-43        00000        00000 
 1.57122e-42        00000        00000 
-1.75172e-42        00000        00000 
-1.28318e-41        00000        00000 
-3.75186e-43        00000        00000 
-4.74582e-42        00000        00000 
-6.95301e-42        00000        00000 
 4.13011e-44        00000        00000 
-7.39763e-42        00000        00000 
 3.09247e-42        00000        00000 
-2.79983e-42        00000        00000 
-1.50480e-41        00000        00000 
 1.57811e-42        00000        00000 
-2.31532e-43        00000        00000 
 1.44087e-42        00000        00000 
-6.21644e-42        00000        00000 
-4.41536e-42        00000        00000 
 1.01464e-42        00000        00000 
 1.47558e-41        00000        00000 
-1.24240e-41        00000        00000 
 2.07046e-43        00000        00000 
-2.66018e-42        00000        00000 
-4.76535e-43        00000        00000 
 4.63680e-42        00000        00000 
 1.04840e-41        00000        00000 
 2.22531e-41        00000        00000 
-4.32089e-42        00000        00000 
 5.14520e-41        00000        00000 
 3.21684e-41        00000        00000 
-1.27879e-41        00000        00000 
 1.96662e-42        00000        00000 
 8.26021e-42        00000        00000 
 2.35375e-41        00000        00000 
-1.60244e-41        00000        00000 
 4.82118e-41        00000        00000 
-8.36653e-42        00000        00000 
 3.48051e-41        00000        00000 
-1.00096e-43        00000        00000 
 1.40852e-42        00000        00000 
-1.90031e-41        00000        00000 
 1.79462e-41        00000        00000 
-6.22999e-42        00000        00000 
 5.69084e-43        00000        00000 
-2.55182e-42        00000        00000 
 1.89911e-41        00000        00000 
-8.40992e-41        00000        00000 
 3.49816e-41        00000        00000 
-1.59801e-40        00000        00000 
-8.40071e-41        00000        00000 
-6.12972e-41        00000        00000 
-4.63850e-41        00000        00000 
-1.78766e-40        00000        00000 
-5.02814e-43        00000        00000 
 9.21386e-42        00000        00000 
 1.17269e-42        00000        00000 
-1.68246e-41        00000        00000 
 1.05461e-41        00000        00000 
-7.21695e-41        00000        00000 
 1.12033e-41        00000        00000 
-5.13388e-41        00000        00000 
 4.98956e-41        00000        00000 
-4.93910e-42        00000        00000 
 1.61380e-40        00000        00000 
-1.42554e-40        00000        00000 
 2.15463e-41        00000        00000 
-1.47877e-40        00000        00000 
 1.19184e-40        00000        00000 
-4.83623e-41        00000        00000 
 2.36562e-43        00000        00000 
-4.94865e-42        00000        00000 
 2.75488e-40        00000        00000 
 2.28937e-41        00000        00000 
-1.35530e-42        00000        00000 
 4.19206e-40        00000        00000 
 6.23143e-40        00000        00000 
 1.19376e-40        00000        00000 
 2.78173e-40        00000        00000 
 4.02527e-40        00000        00000 
-9.29745e-41        00000        00000 
 6.16433e-42        00000        00000 
-7.49577e-41        00000        00000 
 5.61787e-40        00000        00000 
-1.41155e-40        00000        00000 
-2.03948e-40        00000        00000 
 2.04044e-40        00000        00000 
 1.19716e-42        00000        00000 
-3.03213e-41        00000        00000 
 5.77266e-41        00000        00000 
-2.81328e-42        00000        00000 
-2.76406e-41        00000        00000 
 2.22911e-40        00000        00000 
-1.82372e-40        00000        00000 
-9.56542e-40        00000        00000 
 1.20009e-41        00000        00000 
 3.93996e-40        00000        00000 
-1.98450e-39        00000        00000 
-7.87360e-40        00000        00000 
-1.01288e-39        00000        00000 
 5.80185e-40        00000        00000 
-7.09169e-40        00000        00000 
-2.11885e-39        00000        00000 
-5.32654e-41        00000        00000 
-5.95972e-40        00000        00000 
 1.22815e-40        00000        00000 
-8.34760e-40        00000        00000 
 4.53335e-41        00000        00000 
-5.51759e-43        00000        00000 
 1.63227e-41        00000        00000 
 3.16532e-42        00000        00000 
-7.87109e-41        00000        00000 
-1.62940e-39        00000        00000 
 1.75211e-39        00000        00000 
-1.72648e-39        00000        00000 
 2.35256e-40        00000        00000 
-1.44743e-41        00000        00000 
 2.74606e-40        00000        00000 
 1.35268e-39        00000        00000 
-5.37995e-40        00000        00000 
-2.81751e-42        00000        00000 
 9.51553e-41        00000        00000 
 3.40279e-39        00000        00000 
 6.56195e-41        00000        00000 
-8.83731e-40        00000        00000 
 7.53172e-39        00000        00000 
 6.64067e-42        00000        00000 
 5.42391e-39        00000        00000 
-1.87852e-40        00000        00000 
 4.66438e-39        00000        00000 
-1.02754e-39        00000        00000 
 1.67716e-39        00000        00000 
 3.27813e-39        00000        00000 
-2.84896e-41        00000        00000 
 6.27341e-40        00000        00000 
-1.08312e-39        00000        00000 
 6.52551e-39        00000        00000 
 2.30773e-39        00000        00000 
-2.15945e-39        00000        00000 
-2.96945e-40        00000        00000 
 2.61673e-39        00000        00000 
 1.27651e-40        00000        00000 
-2.12358e-39        00000        00000 
 1.28370e-42        00000        00000 
-5.06563e-41        00000        00000 
-1.08707e-38        00000        00000 
 4.41493e-39        00000        00000 
-7.34655e-42        00000        00000 
 2.53762e-40        00000        00000 
-5.72120e-40        00000        00000 
 6.80480e-39        00000        00000 
-2.45823e-38        00000        00000 
 3.34987e-41        00000        00000 
-1.21853e-38        00000        00000 
-6.92518e-39        00000        00000 
-1.00676e-38        00000        00000 
 1.33607e-39        00000        00000 
-9.38172e-40        00000        00000 
-2.50509e-38        00000        00000 
-1.03403e-38        00000        00000 
-4.40242e-40        00000        00000 
-9.61409e-39        00000        00000 
-1.52033e-40        00000        00000 
 3.23827e-39        00000        00000 
 2.55218e-39        00000        00000 
 6.59773e-42        00000        00000 
-2.86551e-40        00000        00000 
-2.02096e-38        00000        00000 
 5.81872e-40        00000        00000 
 1.88395e-38        00000        00000 
-1.55557e-41        00000        00000 
-1.85419e-38        00000        00000 
-2.03641e-39        00000        00000 
 6.67908e-41        00000        00000 
 1.53246e-38        00000        00000 
-5.94248e-39        00000        00000 
 6.92681e-40        00000        00000 
-1.04303e-38        00000        00000 
-2.99947e-40        00000        00000 
 7.28534e-39        00000        00000 
-1.12839e-38        00000        00000 
 5.41166e-38        00000        00000 
 4.19411e-38        00000        00000 
 6.97691e-38        00000        00000 
 9.08426e-38        00000        00000 
 3.85050e-38        00000        00000 
-3.00869e-42        00000        00000 
 2.30981e-38        00000        00000 
 1.48513e-40        00000        00000 
-7.68618e-40        00000        00000 
 1.70922e-41        00000        00000 
 7.55237e-38        00000        00000 
-5.65511e-39        00000        00000 
-2.49196e-38        00000        00000 
 1.35255e-39        00000        00000 
-3.16242e-39        00000        00000 
 3.07842e-38        00000        00000 
-7.75152e-41        00000        00000 
-2.24480e-38        00000        00000 
 2.59394e-38        00000        00000 
 2.99357e-39        00000        00000 
 4.91808e-38        00000        00000 
-1.23384e-37        00000        00000 
 8.00458e-38        00000        00000 
-6.10334e-39        00000        00000 
 3.49419e-40        00000        00000 
-1.10174e-38        00000        00000 
-1.54030e-41        00000        00000 
 8.37795e-40        00000        00000 
 3.63957e-41        00000        00000 
-1.72717e-39        00000        00000 
 1.44071e-38        00000        00000 
-8.05628e-38        00000        00000 
-3.03794e-37        00000        00000 
 6.25618e-39        00000        00000 
-1.55999e-40        00000        00000 
-1.28242e-37        00000        00000 
-1.46239e-37        00000        00000 
-1.46166e-37        00000        00000 
-2.95335e-37        00000        00000 
 3.82475e-38        00000        00000 
-1.58566e-39        00000        00000 
-1.10172e-37        00000        00000 
-1.72933e-38        00000        00000 
-2.37090e-37        00000        00000 
 6.99216e-40        00000        00000 
 2.74847e-38        00000        00000 
-2.34794e-38        00000        00000 
-2.09920e-37        00000        00000 
 1.99991e-37        00000        00000 
 7.02544e-42        00000        00000 
-4.15719e-40        00000        00000 
 8.51831e-38        00000        00000 
-3.14949e-39        00000        00000 
-6.50944e-38        00000        00000 
-1.23449e-37        00000        00000 
 7.24975e-39        00000        00000 
 1.73202e-37        00000        00000 
-4.00938e-41        00000        00000 
 2.19802e-39        00000        00000 
 1.80987e-40        00000        00000 
-8.92905e-39        00000        00000 
 6.28608e-37        00000        00000 
-1.23010e-37        00000        00000 
 5.15879e-37        00000        00000 
 8.93158e-37        00000        00000 
-2.93299e-37        00000        00000 
 1.42429e-38        00000        00000 
 1.09324e-36        00000        00000 
 3.48234e-38        00000        00000 
-8.09033e-40        00000        00000 
 3.13492e-37        00000        00000 
 4.50562e-37        00000        00000 
 3.63034e-37        00000        00000 
-3.33517e-38        00000        00000 
 8.70418e-37        00000        00000 
 3.59117e-41        00000        00000 
-2.42706e-39        00000        00000 
 2.10033e-38        00000        00000 
-8.50061e-41        00000        00000 
 4.97931e-39        00000        00000 
 2.89439e-37        00000        00000 
-2.27333e-37        00000        00000 
 3.64985e-40        00000        00000 
-1.83004e-38        00000        00000 
 3.62994e-39        00000        00000 
-1.29583e-37        00000        00000 
-6.46233e-38        00000        00000 
 9.44140e-37        00000        00000 
 5.44127e-37        00000        00000 
-1.39802e-36        00000        00000 
-1.63215e-39        00000        00000 
 7.12398e-38        00000        00000 
 1.53771e-37        00000        00000 
-9.38248e-37        00000        00000 
-1.64304e-38        00000        00000 
-1.64755e-41        00000        00000 
 1.13898e-39        00000        00000 
 4.53125e-37        00000        00000 
-2.72237e-37        00000        00000 
 7.31856e-39        00000        00000 
-3.74612e-36        00000        00000 
-1.62835e-36        00000        00000 
-1.75031e-36        00000        00000 
-6.01943e-39        00000        00000 
 9.43259e-41        00000        00000 
-3.47057e-36        00000        00000 
-2.02196e-36        00000        00000 
 2.93555e-37        00000        00000 
-2.78779e-36        00000        00000 
-1.25496e-36        00000        00000 
-4.26687e-40        00000        00000 
 2.49977e-38        00000        00000 
-3.55115e-37        00000        00000 
-2.36238e-36        00000        00000 
-3.29317e-38        00000        00000 
 9.98685e-37        00000        00000 
 2.08636e-36        00000        00000 
 7.52023e-38        00000        00000 
 1.90001e-39        00000        00000 
-1.02183e-37        00000        00000 
-1.46562e-36        00000        00000 
-7.06063e-37        00000        00000 
 1.95139e-36        00000        00000 
-8.29779e-41        00000        00000 
 7.17354e-39        00000        00000 
 1.97975e-40        00000        00000 
-1.42817e-38        00000        00000 
-8.55257e-40        00000        00000 
-1.32975e-36        00000        00000 
 7.31020e-36        00000        00000 
 5.16805e-38        00000        00000 
-8.44038e-39        00000        00000 
 4.05393e-37        00000        00000 
 1.49034e-37        00000        00000 
-3.46203e-36        00000        00000 
 6.33234e-36        00000        00000 
 3.82917e-39        00000        00000 
-2.04611e-37        00000        00000 
 1.31247e-35        00000        00000 
 1.13883e-35        00000        00000 
 5.24853e-36        00000        00000 
-3.47900e-37        00000        00000 
 4.20814e-36        00000        00000 
 4.29207e-36        00000        00000 
 9.98239e-36        00000        00000 
 1.33506e-36        00000        00000 
 3.76091e-38        00000        00000 
-1.52850e-36        00000        00000 
-1.71156e-38        00000        00000 
 8.14338e-37        00000        00000 
 3.20145e-36        00000        00000 
-3.19633e-39        00000        00000 
-2.21375e-36        00000        00000 
 3.80853e-41        00000        00000 
-6.78775e-37        00000        00000 
 1.11682e-35        00000        00000 
-2.20410e-40        00000        00000 
 1.63206e-38        00000        00000 
 5.97226e-36        00000        00000 
-1.58041e-35        00000        00000 
 1.00770e-39        00000        00000 
-6.66925e-38        00000        00000 
 7.64903e-38        00000        00000 
-3.16236e-36        00000        00000 
 1.62183e-36        00000        00000 
-1.69293e-37        00000        00000 
 5.38651e-36        00000        00000 
-1.09380e-35        00000        00000 
-4.51166e-39        00000        00000 
 2.78947e-37        00000        00000 
-4.60963e-35        00000        00000 
-2.08846e-35        00000        00000 
-2.06203e-35        00000        00000 
 3.10657e-36        00000        00000 
 1.88743e-40        00000        00000 
-2.22831e-38        00000        00000 
-3.28589e-35        00000        00000 
-4.06306e-35        00000        00000 
 4.21766e-38        00000        00000 
-2.75340e-35        00000        00000 
-4.56081e-40        00000        00000 
-3.43029e-37        00000        00000 
 1.17397e-35        00000        00000 
-1.41925e-35        00000        00000 
-1.16758e-36        00000        00000 
 2.00061e-38        00000        00000 
-6.08787e-36        00000        00000 
-1.44858e-37        00000        00000 
 1.99500e-39        00000        00000 
-2.63981e-35        00000        00000 
 2.12377e-35        00000        00000 
 7.73086e-37        00000        00000 
-1.74578e-35        00000        00000 
 5.64558e-37        00000        00000 
-8.99970e-39        00000        00000 
 2.18942e-35        00000        00000 
-7.56883e-36        00000        00000 
-8.82893e-38        00000        00000 
 4.72840e-36        00000        00000 
 1.54994e-36        00000        00000 
-4.09919e-35        00000        00000 
-2.29007e-36        00000        00000 
 4.03328e-38        00000        00000 