<?xml version="1.0" encoding="utf-8"?>
<VTKFile byte_order="LittleEndian" type="UnstructuredGrid" version="0.1">
   <UnstructuredGrid>
      <Piece NumberOfCells="8000" NumberOfPoints="9261">
         <Points>
            <DataArray Name="Points" NumberOfComponents="3" format="ascii" type="Float32">
0.0000 0.0000 0.0000
0.0000 0.0250 0.0000
0.0000 0.0500 0.0000
0.0000 0.0750 0.0000
0.0000 0.1000 0.0000
0.0000 0.1250 0.0000
0.0000 0.1500 0.0000
0.0000 0.1750 0.0000
0.0000 0.2000 0.0000
0.0000 0.2250 0.0000
0.0000 0.2500 0.0000
0.0000 0.2750 0.0000
0.0000 0.3000 0.0000
0.0000 0.3250 0.0000
0.0000 0.3500 0.0000
0.0000 0.3750 0.0000
0.0000 0.4000 0.0000
0.0000 0.4250 0.0000
0.0000 0.4500 0.0000
0.0000 0.4750 0.0000
0.0000 0.5000 0.0000
0.1000 0.0000 0.0000
0.1000 0.0250 0.0000
0.1000 0.0500 0.0000
0.1000 0.0750 0.0000
0.1000 0.1000 0.0000
0.1000 0.1250 0.0000
0.1000 0.1500 0.0000
0.1000 0.1750 0.0000
0.1000 0.2000 0.0000
0.1000 0.2250 0.0000
0.1000 0.2500 0.0000
0.1000 0.2750 0.0000
0.1000 0.3000 0.0000
0.1000 0.3250 0.0000
0.1000 0.3500 0.0000
0.1000 0.3750 0.0000
0.1000 0.4000 0.0000
0.1000 0.4250 0.0000
0.1000 0.4500 0.0000
0.1000 0.4750 0.0000
0.1000 0.5000 0.0000
0.2000 0.0000 0.0000
0.2000 0.0250 0.0000
0.2000 0.0500 0.0000
0.2000 0.0750 0.0000
0.2000 0.1000 0.0000
0.2000 0.1250 0.0000
0.2000 0.1500 0.0000
0.2000 0.1750 0.0000
0.2000 0.2000 0.0000
0.2000 0.2250 0.0000
0.2000 0.2500 0.0000
0.2000 0.2750 0.0000
0.2000 0.3000 0.0000
0.2000 0.3250 0.0000
0.2000 0.3500 0.0000
0.2000 0.3750 0.0000
0.2000 0.4000 0.0000
0.2000 0.4250 0.0000
0.2000 0.4500 0.0000
0.2000 0.4750 0.0000
0.2000 0.5000 0.0000
0.3000 0.0000 0.0000
0.3000 0.0250 0.0000
0.3000 0.0500 0.0000
0.3000 0.0750 0.0000
0.3000 0.1000 0.0000
0.3000 0.1250 0.0000
0.3000 0.1500 0.0000
0.3000 0.1750 0.0000
0.3000 0.2000 0.0000
0.3000 0.2250 0.0000
0.3000 0.2500 0.0000
0.3000 0.2750 0.0000
0.3000 0.3000 0.0000
0.3000 0.3250 0.0000
0.3000 0.3500 0.0000
0.3000 0.3750 0.0000
0.3000 0.4000 0.0000
0.3000 0.4250 0.0000
0.3000 0.4500 0.0000
0.3000 0.4750 0.0000
0.3000 0.5000 0.0000
0.4000 0.0000 0.0000
0.4000 0.0250 0.0000
0.4000 0.0500 0.0000
0.4000 0.0750 0.0000
0.4000 0.1000 0.0000
0.4000 0.1250 0.0000
0.4000 0.1500 0.0000
0.4000 0.1750 0.0000
0.4000 0.2000 0.0000
0.4000 0.2250 0.0000
0.4000 0.2500 0.0000
0.4000 0.2750 0.0000
0.4000 0.3000 0.0000
0.4000 0.3250 0.0000
0.4000 0.3500 0.0000
0.4000 0.3750 0.0000
0.4000 0.4000 0.0000
0.4000 0.4250 0.0000
0.4000 0.4500 0.0000
0.4000 0.4750 0.0000
0.4000 0.5000 0.0000
0.5000 0.0000 0.0000
0.5000 0.0250 0.0000
0.5000 0.0500 0.0000
0.5000 0.0750 0.0000
0.5000 0.1000 0.0000
0.5000 0.1250 0.0000
0.5000 0.1500 0.0000
0.5000 0.1750 0.0000
0.5000 0.2000 0.0000
0.5000 0.2250 0.0000
0.5000 0.2500 0.0000
0.5000 0.2750 0.0000
0.5000 0.3000 0.0000
0.5000 0.3250 0.0000
0.5000 0.3500 0.0000
0.5000 0.3750 0.0000
0.5000 0.4000 0.0000
0.5000 0.4250 0.0000
0.5000 0.4500 0.0000
0.5000 0.4750 0.0000
0.5000 0.5000 0.0000
0.6000 0.0000 0.0000
0.6000 0.0250 0.0000
0.6000 0.0500 0.0000
0.6000 0.0750 0.0000
0.6000 0.1000 0.0000
0.6000 0.1250 0.0000
0.6000 0.1500 0.0000
0.6000 0.1750 0.0000
0.6000 0.2000 0.0000
0.6000 0.2250 0.0000
0.6000 0.2500 0.0000
0.6000 0.2750 0.0000
0.6000 0.3000 0.0000
0.6000 0.3250 0.0000
0.6000 0.3500 0.0000
0.6000 0.3750 0.0000
0.6000 0.4000 0.0000
0.6000 0.4250 0.0000
0.6000 0.4500 0.0000
0.6000 0.4750 0.0000
0.6000 0.5000 0.0000
0.7000 0.0000 0.0000
0.7000 0.0250 0.0000
0.7000 0.0500 0.0000
0.7000 0.0750 0.0000
0.7000 0.1000 0.0000
0.7000 0.1250 0.0000
0.7000 0.1500 0.0000
0.7000 0.1750 0.0000
0.7000 0.2000 0.0000
0.7000 0.2250 0.0000
0.7000 0.2500 0.0000
0.7000 0.2750 0.0000
0.7000 0.3000 0.0000
0.7000 0.3250 0.0000
0.7000 0.3500 0.0000
0.7000 0.3750 0.0000
0.7000 0.4000 0.0000
0.7000 0.4250 0.0000
0.7000 0.4500 0.0000
0.7000 0.4750 0.0000
0.7000 0.5000 0.0000
0.8000 0.0000 0.0000
0.8000 0.0250 0.0000
0.8000 0.0500 0.0000
0.8000 0.0750 0.0000
0.8000 0.1000 0.0000
0.8000 0.1250 0.0000
0.8000 0.1500 0.0000
0.8000 0.1750 0.0000
0.8000 0.2000 0.0000
0.8000 0.2250 0.0000
0.8000 0.2500 0.0000
0.8000 0.2750 0.0000
0.8000 0.3000 0.0000
0.8000 0.3250 0.0000
0.8000 0.3500 0.0000
0.8000 0.3750 0.0000
0.8000 0.4000 0.0000
0.8000 0.4250 0.0000
0.8000 0.4500 0.0000
0.8000 0.4750 0.0000
0.8000 0.5000 0.0000
0.9000 0.0000 0.0000
0.9000 0.0250 0.0000
0.9000 0.0500 0.0000
0.9000 0.0750 0.0000
0.9000 0.1000 0.0000
0.9000 0.1250 0.0000
0.9000 0.1500 0.0000
0.9000 0.1750 0.0000
0.9000 0.2000 0.0000
0.9000 0.2250 0.0000
0.9000 0.2500 0.0000
0.9000 0.2750 0.0000
0.9000 0.3000 0.0000
0.9000 0.3250 0.0000
0.9000 0.3500 0.0000
0.9000 0.3750 0.0000
0.9000 0.4000 0.0000
0.9000 0.4250 0.0000
0.9000 0.4500 0.0000
0.9000 0.4750 0.0000
0.9000 0.5000 0.0000
1.0000 0.0000 0.0000
1.0000 0.0250 0.0000
1.0000 0.0500 0.0000
1.0000 0.0750 0.0000
1.0000 0.1000 0.0000
1.0000 0.1250 0.0000
1.0000 0.1500 0.0000
1.0000 0.1750 0.0000
1.0000 0.2000 0.0000
1.0000 0.2250 0.0000
1.0000 0.2500 0.0000
1.0000 0.2750 0.0000
1.0000 0.3000 0.0000
1.0000 0.3250 0.0000
1.0000 0.3500 0.0000
1.0000 0.3750 0.0000
1.0000 0.4000 0.0000
1.0000 0.4250 0.0000
1.0000 0.4500 0.0000
1.0000 0.4750 0.0000
1.0000 0.5000 0.0000
1.1000 0.0000 0.0000
1.1000 0.0250 0.0000
1.1000 0.0500 0.0000
1.1000 0.0750 0.0000
1.1000 0.1000 0.0000
1.1000 0.1250 0.0000
1.1000 0.1500 0.0000
1.1000 0.1750 0.0000
1.1000 0.2000 0.0000
1.1000 0.2250 0.0000
1.1000 0.2500 0.0000
1.1000 0.2750 0.0000
1.1000 0.3000 0.0000
1.1000 0.3250 0.0000
1.1000 0.3500 0.0000
1.1000 0.3750 0.0000
1.1000 0.4000 0.0000
1.1000 0.4250 0.0000
1.1000 0.4500 0.0000
1.1000 0.4750 0.0000
1.1000 0.5000 0.0000
1.2000 0.0000 0.0000
1.2000 0.0250 0.0000
1.2000 0.0500 0.0000
1.2000 0.0750 0.0000
1.2000 0.1000 0.0000
1.2000 0.1250 0.0000
1.2000 0.1500 0.0000
1.2000 0.1750 0.0000
1.2000 0.2000 0.0000
1.2000 0.2250 0.0000
1.2000 0.2500 0.0000
1.2000 0.2750 0.0000
1.2000 0.3000 0.0000
1.2000 0.3250 0.0000
1.2000 0.3500 0.0000
1.2000 0.3750 0.0000
1.2000 0.4000 0.0000
1.2000 0.4250 0.0000
1.2000 0.4500 0.0000
1.2000 0.4750 0.0000
1.2000 0.5000 0.0000
1.3000 0.0000 0.0000
1.3000 0.0250 0.0000
1.3000 0.0500 0.0000
1.3000 0.0750 0.0000
1.3000 0.1000 0.0000
1.3000 0.1250 0.0000
1.3000 0.1500 0.0000
1.3000 0.1750 0.0000
1.3000 0.2000 0.0000
1.3000 0.2250 0.0000
1.3000 0.2500 0.0000
1.3000 0.2750 0.0000
1.3000 0.3000 0.0000
1.3000 0.3250 0.0000
1.3000 0.3500 0.0000
1.3000 0.3750 0.0000
1.3000 0.4000 0.0000
1.3000 0.4250 0.0000
1.3000 0.4500 0.0000
1.3000 0.4750 0.0000
1.3000 0.5000 0.0000
1.4000 0.0000 0.0000
1.4000 0.0250 0.0000
1.4000 0.0500 0.0000
1.4000 0.0750 0.0000
1.4000 0.1000 0.0000
1.4000 0.1250 0.0000
1.4000 0.1500 0.0000
1.4000 0.1750 0.0000
1.4000 0.2000 0.0000
1.4000 0.2250 0.0000
1.4000 0.2500 0.0000
1.4000 0.2750 0.0000
1.4000 0.3000 0.0000
1.4000 0.3250 0.0000
1.4000 0.3500 0.0000
1.4000 0.3750 0.0000
1.4000 0.4000 0.0000
1.4000 0.4250 0.0000
1.4000 0.4500 0.0000
1.4000 0.4750 0.0000
1.4000 0.5000 0.0000
1.5000 0.0000 0.0000
1.5000 0.0250 0.0000
1.5000 0.0500 0.0000
1.5000 0.0750 0.0000
1.5000 0.1000 0.0000
1.5000 0.1250 0.0000
1.5000 0.1500 0.0000
1.5000 0.1750 0.0000
1.5000 0.2000 0.0000
1.5000 0.2250 0.0000
1.5000 0.2500 0.0000
1.5000 0.2750 0.0000
1.5000 0.3000 0.0000
1.5000 0.3250 0.0000
1.5000 0.3500 0.0000
1.5000 0.3750 0.0000
1.5000 0.4000 0.0000
1.5000 0.4250 0.0000
1.5000 0.4500 0.0000
1.5000 0.4750 0.0000
1.5000 0.5000 0.0000
1.6000 0.0000 0.0000
1.6000 0.0250 0.0000
1.6000 0.0500 0.0000
1.6000 0.0750 0.0000
1.6000 0.1000 0.0000
1.6000 0.1250 0.0000
1.6000 0.1500 0.0000
1.6000 0.1750 0.0000
1.6000 0.2000 0.0000
1.6000 0.2250 0.0000
1.6000 0.2500 0.0000
1.6000 0.2750 0.0000
1.6000 0.3000 0.0000
1.6000 0.3250 0.0000
1.6000 0.3500 0.0000
1.6000 0.3750 0.0000
1.6000 0.4000 0.0000
1.6000 0.4250 0.0000
1.6000 0.4500 0.0000
1.6000 0.4750 0.0000
1.6000 0.5000 0.0000
1.7000 0.0000 0.0000
1.7000 0.0250 0.0000
1.7000 0.0500 0.0000
1.7000 0.0750 0.0000
1.7000 0.1000 0.0000
1.7000 0.1250 0.0000
1.7000 0.1500 0.0000
1.7000 0.1750 0.0000
1.7000 0.2000 0.0000
1.7000 0.2250 0.0000
1.7000 0.2500 0.0000
1.7000 0.2750 0.0000
1.7000 0.3000 0.0000
1.7000 0.3250 0.0000
1.7000 0.3500 0.0000
1.7000 0.3750 0.0000
1.7000 0.4000 0.0000
1.7000 0.4250 0.0000
1.7000 0.4500 0.0000
1.7000 0.4750 0.0000
1.7000 0.5000 0.0000
1.8000 0.0000 0.0000
1.8000 0.0250 0.0000
1.8000 0.0500 0.0000
1.8000 0.0750 0.0000
1.8000 0.1000 0.0000
1.8000 0.1250 0.0000
1.8000 0.1500 0.0000
1.8000 0.1750 0.0000
1.8000 0.2000 0.0000
1.8000 0.2250 0.0000
1.8000 0.2500 0.0000
1.8000 0.2750 0.0000
1.8000 0.3000 0.0000
1.8000 0.3250 0.0000
1.8000 0.3500 0.0000
1.8000 0.3750 0.0000
1.8000 0.4000 0.0000
1.8000 0.4250 0.0000
1.8000 0.4500 0.0000
1.8000 0.4750 0.0000
1.8000 0.5000 0.0000
1.9000 0.0000 0.0000
1.9000 0.0250 0.0000
1.9000 0.0500 0.0000
1.9000 0.0750 0.0000
1.9000 0.1000 0.0000
1.9000 0.1250 0.0000
1.9000 0.1500 0.0000
1.9000 0.1750 0.0000
1.9000 0.2000 0.0000
1.9000 0.2250 0.0000
1.9000 0.2500 0.0000
1.9000 0.2750 0.0000
1.9000 0.3000 0.0000
1.9000 0.3250 0.0000
1.9000 0.3500 0.0000
1.9000 0.3750 0.0000
1.9000 0.4000 0.0000
1.9000 0.4250 0.0000
1.9000 0.4500 0.0000
1.9000 0.4750 0.0000
1.9000 0.5000 0.0000
2.0000 0.0000 0.0000
2.0000 0.0250 0.0000
2.0000 0.0500 0.0000
2.0000 0.0750 0.0000
2.0000 0.1000 0.0000
2.0000 0.1250 0.0000
2.0000 0.1500 0.0000
2.0000 0.1750 0.0000
2.0000 0.2000 0.0000
2.0000 0.2250 0.0000
2.0000 0.2500 0.0000
2.0000 0.2750 0.0000
2.0000 0.3000 0.0000
2.0000 0.3250 0.0000
2.0000 0.3500 0.0000
2.0000 0.3750 0.0000
2.0000 0.4000 0.0000
2.0000 0.4250 0.0000
2.0000 0.4500 0.0000
2.0000 0.4750 0.0000
2.0000 0.5000 0.0000
0.0000 0.0000 0.0250
0.0000 0.0250 0.0250
0.0000 0.0500 0.0250
0.0000 0.0750 0.0250
0.0000 0.1000 0.0250
0.0000 0.1250 0.0250
0.0000 0.1500 0.0250
0.0000 0.1750 0.0250
0.0000 0.2000 0.0250
0.0000 0.2250 0.0250
0.0000 0.2500 0.0250
0.0000 0.2750 0.0250
0.0000 0.3000 0.0250
0.0000 0.3250 0.0250
0.0000 0.3500 0.0250
0.0000 0.3750 0.0250
0.0000 0.4000 0.0250
0.0000 0.4250 0.0250
0.0000 0.4500 0.0250
0.0000 0.4750 0.0250
[...]
         <PointData>
            <DataArray Name="fValues" NumberOfComponents="1" format="ascii" type="Float64">
 1.00000e+00 
 1.00000e+00 
 1.00000e+00 
 1.00000e+00 
 1.00000e+00 
 1.00000e+00 
 1.00000e+00 
 1.00000e+00 
 1.00000e+00 
 1.00000e+00 
 1.00000e+00 
 1.00000e+00 
 1.00000e+00 
 1.00000e+00 
 1.00000e+00 
 1.00000e+00 
 1.00000e+00 
 1.00000e+00 
 1.00000e+00 
 1.00000e+00 
 1.00000e+00 
 9.99998e-01 
 9.99998e-01 
 9.99998e-01 
 9.99997e-01 
 9.99997e-01 
 9.99996e-01 
 9.99996e-01 
 9.99996e-01 
 9.99996e-01 
 9.99997e-01 
 9.99997e-01 
 9.99997e-01 
 9.99996e-01 
 9.99996e-01 
 9.99996e-01 
 9.99996e-01 
 9.99997e-01 
 9.99997e-01 
 9.99998e-01 
 9.99998e-01 
 9.99998e-01 
 9.99997e-01 
 9.99998e-01 
 9.99998e-01 
 9.99998e-01 
 9.99998e-01 
 9.99998e-01 
 9.99998e-01 
 9.99998e-01 
 9.99998e-01 
 9.99998e-01 
 9.99998e-01 
 9.99998e-01 
 9.99998e-01 
 9.99998e-01 
 9.99998e-01 
 9.99998e-01 
 9.99998e-01 
 9.99998e-01 
 9.99998e-01 
 9.99998e-01 
 9.99997e-01 
 9.99997e-01 
 9.99997e-01 
 9.99997e-01 
 9.99997e-01 
 9.99997e-01 
 9.99997e-01 
 9.99997e-01 
 9.99997e-01 
 9.99997e-01 
 9.99997e-01 
 9.99997e-01 
 9.99997e-01 
 9.99997e-01 
 9.99997e-01 
 9.99997e-01 
 9.99997e-01 
 9.99997e-01 
 9.99997e-01 
 9.99997e-01 
 9.99997e-01 
 9.99997e-01 
 9.99990e-01 
 9.99994e-01 
 9.99996e-01 
 9.99997e-01 
 9.99997e-01 
 9.99997e-01 
 9.99997e-01 
 9.99997e-01 
 9.99997e-01 
 9.99997e-01 
 9.99997e-01 
 9.99997e-01 
 9.99997e-01 
 9.99997e-01 
 9.99997e-01 
 9.99997e-01 
 9.99997e-01 
 9.99997e-01 
 9.99996e-01 
 9.99994e-01 
 9.99990e-01 
 9.78190e-01 
 9.80467e-01 
 9.84833e-01 
 9.89234e-01 
 9.92983e-01 
 9.95919e-01 
 9.98087e-01 
 9.99435e-01 
 9.99853e-01 
 9.99924e-01 
 9.99936e-01 
 9.99924e-01 
 9.99853e-01 
 9.99435e-01 
 9.98087e-01 
 9.95919e-01 
 9.92983e-01 
 9.89234e-01 
 9.84833e-01 
 9.80467e-01 
 9.78190e-01 
 9.41871e-01 
 9.43028e-01 
 9.45317e-01 
 9.47935e-01 
 9.50407e-01 
 9.52509e-01 
 9.54185e-01 
 9.55440e-01 
 9.56302e-01 
 9.56801e-01 
 9.56962e-01 
 9.56801e-01 
 9.56302e-01 
 9.55440e-01 
 9.54185e-01 
 9.52509e-01 
 9.50407e-01 
 9.47935e-01 
 9.45317e-01 
 9.43028e-01 
 9.41871e-01 
 9.01439e-01 
 9.02068e-01 
 9.03381e-01 
 9.04944e-01 
 9.06512e-01 
 9.07935e-01 
 9.09134e-01 
 9.10072e-01 
 9.10738e-01 
 9.11134e-01 
 9.11265e-01 
 9.11134e-01 
 9.10738e-01 
 9.10072e-01 
 9.09134e-01 
 9.07935e-01 
 9.06512e-01 
 9.04944e-01 
 9.03381e-01 
 9.02068e-01 
 9.01439e-01 
 8.57715e-01 
 8.58157e-01 
 8.59011e-01 
 8.60010e-01 
 8.61013e-01 
 8.61938e-01 
 8.62734e-01 
 8.63372e-01 
 8.63833e-01 
 8.64111e-01 
 8.64203e-01 
 8.64111e-01 
 8.63833e-01 
 8.63372e-01 
 8.62734e-01 
 8.61938e-01 
 8.61013e-01 
 8.60010e-01 
 8.59011e-01 
 8.58157e-01 
 8.57715e-01 
 8.11877e-01 
 8.12256e-01 
 8.12914e-01 
 8.13619e-01 
 8.14294e-01 
 8.14901e-01 
 8.15416e-01 
 8.15827e-01 
 8.16124e-01 
 8.16304e-01 
 8.16364e-01 
 8.16304e-01 
 8.16124e-01 
 8.15827e-01 
 8.15416e-01 
 8.14901e-01 
 8.14294e-01 
 8.13619e-01 
 8.12914e-01 
 8.12256e-01 
 8.11877e-01 
 7.63680e-01 
 7.64046e-01 
 7.64622e-01 
 7.65181e-01 
 7.65674e-01 
 7.66092e-01 
 7.66430e-01 
 7.66692e-01 
 7.66877e-01 
 7.66988e-01 
 7.67025e-01 
 7.66988e-01 
 7.66877e-01 
 7.66692e-01 
 7.66430e-01 
 7.66092e-01 
 7.65674e-01 
 7.65181e-01 
 7.64622e-01 
 7.64046e-01 
 7.63680e-01 
 7.13662e-01 
 7.14052e-01 
 7.14621e-01 
 7.15119e-01 
 7.15521e-01 
 7.15832e-01 
 7.16067e-01 
 7.16237e-01 
 7.16352e-01 
 7.16418e-01 
 7.16439e-01 
 7.16418e-01 
 7.16352e-01 
 7.16237e-01 
 7.16067e-01 
 7.15832e-01 
 7.15521e-01 
 7.15119e-01 
 7.14621e-01 
 7.14052e-01 
 7.13662e-01 
 6.60861e-01 
 6.61299e-01 
 6.61901e-01 
 6.62386e-01 
 6.62747e-01 
 6.63003e-01 
 6.63178e-01 
 6.63293e-01 
 6.63365e-01 
 6.63403e-01 
 6.63415e-01 
 6.63403e-01 
 6.63365e-01 
 6.63293e-01 
 6.63178e-01 
 6.63003e-01 
 6.62747e-01 
 6.62386e-01 
 6.61901e-01 
 6.61299e-01 
 6.60861e-01 
 6.05597e-01 
 6.06101e-01 
 6.06769e-01 
 6.07280e-01 
 6.07638e-01 
 6.07873e-01 
 6.08020e-01 
 6.08104e-01 
 6.08149e-01 
 6.08169e-01 
 6.08175e-01 
 6.08169e-01 
 6.08149e-01 
 6.08104e-01 
 6.08020e-01 
 6.07873e-01 
 6.07638e-01 
 6.07280e-01 
 6.06769e-01 
 6.06101e-01 
 6.05597e-01 
 5.47066e-01 
 5.47657e-01 
 5.48433e-01 
 5.49012e-01 
 5.49403e-01 
 5.49645e-01 
 5.49780e-01 
 5.49847e-01 
 5.49873e-01 
 5.49880e-01 
 5.49881e-01 
 5.49880e-01 
 5.49873e-01 
 5.49847e-01 
 5.49780e-01 
 5.49645e-01 
 5.49403e-01 
 5.49012e-01 
 5.48433e-01 
 5.47657e-01 
 5.47066e-01 
 4.85003e-01 
 4.85756e-01 
 4.86729e-01 
 4.87432e-01 
 4.87887e-01 
 4.88153e-01 
 4.88286e-01 
 4.88337e-01 
 4.88344e-01 
 4.88336e-01 
 4.88331e-01 
 4.88336e-01 
 4.88344e-01 
 4.88337e-01 
 4.88286e-01 
 4.88153e-01 
 4.87887e-01 
 4.87432e-01 
 4.86729e-01 
 4.85756e-01 
 4.85003e-01 
 4.18992e-01 
 4.19984e-01 
 4.21246e-01 
 4.22157e-01 
 4.22734e-01 
 4.23045e-01 
 4.23169e-01 
 4.23183e-01 
 4.23148e-01 
 4.23109e-01 
 4.23094e-01 
 4.23109e-01 
 4.23148e-01 
 4.23183e-01 
 4.23169e-01 
 4.23045e-01 
 4.22734e-01 
 4.22157e-01 
 4.21246e-01 
 4.19984e-01 
 4.18992e-01 
 3.46598e-01 
 3.47990e-01 
 3.49820e-01 
 3.51424e-01 
 3.52040e-01 
 3.52241e-01 
 3.52201e-01 
 3.52054e-01 
 3.51893e-01 
 3.51775e-01 
 3.51732e-01 
 3.51775e-01 
 3.51893e-01 
 3.52054e-01 
 3.52201e-01 
 3.52241e-01 
 3.52040e-01 
 3.51424e-01 
 3.49820e-01 
 3.47990e-01 
 3.46598e-01 
 2.77437e-01 
 2.79400e-01 
 2.81106e-01 
 2.81694e-01 
 2.81665e-01 
 2.81348e-01 
 2.80940e-01 
 2.80552e-01 
 2.80245e-01 
 2.80051e-01 
 2.79985e-01 
 2.80051e-01 
 2.80245e-01 
 2.80552e-01 
 2.80940e-01 
 2.81348e-01 
 2.81665e-01 
 2.81694e-01 
 2.81106e-01 
 2.79400e-01 
 2.77437e-01 
 2.26885e-01 
 2.24393e-01 
 2.22972e-01 
 2.22209e-01 
 2.21585e-01 
 2.21085e-01 
 2.20695e-01 
 2.20407e-01 
 2.20211e-01 
 2.20097e-01 
 2.20060e-01 
 2.20097e-01 
 2.20211e-01 
 2.20407e-01 
 2.20695e-01 
 2.21085e-01 
 2.21585e-01 
 2.22209e-01 
 2.22972e-01 
 2.24393e-01 
 2.26885e-01 
 2.06574e-01 
 1.98612e-01 
 1.94490e-01 
 1.92662e-01 
 1.91452e-01 
 1.90741e-01 
 1.90337e-01 
 1.90119e-01 
 1.90009e-01 
 1.89960e-01 
 1.89946e-01 
 1.89960e-01 
 1.90009e-01 
 1.90119e-01 
 1.90337e-01 
 1.90741e-01 
 1.91452e-01 
 1.92662e-01 
 1.94490e-01 
 1.98612e-01 
 2.06574e-01 
 1.00000e+00 
 1.00000e+00 
 1.00000e+00 
 1.00000e+00 
       00001 
 1.00000e+00 
 1.00000e+00 
 1.00000e+00 
 1.00000e+00 
 1.00000e+00 
 1.00000e+00 
 1.00000e+00 
 1.00000e+00 
 1.00000e+00 
 1.00000e+00 
 1.00000e+00 
 1.00000e+00 
       00001 
 1.00000e+00 
       00001 
 1.00000e+00 
 8.91477e-01 
 8.86076e-01 
 8.80908e-01 
 8.75468e-01 
 8.70837e-01 
 8.67724e-01 
 8.65954e-01 
 8.65099e-01 
 8.64770e-01 
 8.64677e-01 
 8.64661e-01 
 8.64677e-01 
 8.64770e-01 
 8.65099e-01 
 8.65954e-01 
 8.67724e-01 
 8.70837e-01 
 8.75468e-01 
 8.80908e-01 
 8.86076e-01 
 8.91477e-01 
 9.21392e-01 
 9.53485e-01 
 9.81726e-01 
 9.92681e-01 
 9.95223e-01 
 9.94506e-01 
 9.92889e-01 
 9.91322e-01 
 9.90142e-01 
 9.89427e-01 
 9.89189e-01 
 9.89427e-01 
 9.90142e-01 
 9.91322e-01 
 9.92889e-01 
 9.94506e-01 
 9.95223e-01 
 9.92681e-01 
 9.81726e-01 
 9.53485e-01 
 9.21392e-01 
 9.02500e-01 
 9.13559e-01 
 9.30745e-01 
 9.43329e-01 
 9.50483e-01 
 9.53960e-01 
 9.55381e-01 
 9.55781e-01 
 9.55757e-01 
 9.55637e-01 
 9.55580e-01 
 9.55637e-01 
 9.55757e-01 
 9.55781e-01 
 9.55381e-01 
 9.53960e-01 
 9.50483e-01 
 9.43329e-01 
 9.30745e-01 
 9.13559e-01 
 9.02500e-01 
 8.80614e-01 
 8.85123e-01 
 8.92161e-01 
 8.98709e-01 
 9.03887e-01 
 9.06958e-01 
 9.09360e-01 
 9.10855e-01 
 9.11714e-01 
 9.12145e-01 
 9.12274e-01 
 9.12145e-01 
 9.11714e-01 
 9.10855e-01 
 9.09360e-01 
 9.06958e-01 
 9.03887e-01 
 8.98709e-01 
 8.92161e-01 
 8.85123e-01 
 8.80614e-01 
 8.56901e-01 
 8.58766e-01 
 8.62437e-01 
 8.66184e-01 
 8.69425e-01 
 8.72011e-01 
 8.73975e-01 
 8.75377e-01 
 8.76295e-01 
 8.76806e-01 
 8.76965e-01 
 8.76806e-01 
 8.76295e-01 
 8.75377e-01 
 8.73975e-01 
 8.72011e-01 
 8.69425e-01 
 8.66184e-01 
 8.62437e-01 
 8.58766e-01 
 8.56901e-01 
 8.27627e-01 
 8.28508e-01 
 8.30335e-01 
 8.32470e-01 
 8.34526e-01 
 8.36303e-01 
 8.37739e-01 
 8.38828e-01 
 8.39581e-01 
 8.40015e-01 
 8.40151e-01 
 8.40015e-01 
 8.39581e-01 
 8.38828e-01 
 8.37739e-01 
 8.36303e-01 
 8.34526e-01 
 8.32470e-01 
 8.30335e-01 
 8.28508e-01 
 8.27627e-01 
 7.94397e-01 
 7.94823e-01 
 7.95802e-01 
 7.97015e-01 
 7.98269e-01 
 7.99434e-01 
 8.00430e-01 
 8.01219e-01 
 8.01784e-01 
 8.02120e-01 
 8.02228e-01 
 8.02120e-01 
 8.01784e-01 
 8.01219e-01 
 8.00430e-01 
 7.99434e-01 
 7.98269e-01 
 7.97015e-01 
 7.95802e-01 
 7.94823e-01 
 7.94397e-01 
 7.58176e-01 
 7.58445e-01 
 7.59038e-01 
 7.59773e-01 
 7.60544e-01 
 7.61276e-01 
 7.61920e-01 
 7.62442e-01 
 7.62824e-01 
 7.63054e-01 
 7.63131e-01 
 7.63054e-01 
 7.62824e-01 
 7.62442e-01 
 7.61920e-01 
 7.61276e-01 
 7.60544e-01 
 7.59773e-01 
 7.59038e-01 
 7.58445e-01 
 7.58176e-01 
 7.20109e-01 
 7.20330e-01 
 7.20763e-01 
 7.21258e-01 
 7.21757e-01 
 7.22222e-01 
 7.22627e-01 
 7.22956e-01 
 7.23198e-01 
 7.23344e-01 
 7.23393e-01 
 7.23344e-01 
 7.23198e-01 
 7.22956e-01 
 7.22627e-01 
 7.22222e-01 
 7.21757e-01 
 7.21258e-01 
 7.20763e-01 
 7.20330e-01 
 7.20109e-01 
 6.80344e-01 
 6.80557e-01 
 6.80931e-01 
 6.81314e-01 
 6.81669e-01 
 6.81981e-01 
 6.82241e-01 
 6.82446e-01 
 6.82594e-01 
 6.82683e-01 
 6.82712e-01 
 6.82683e-01 
 6.82594e-01 
 6.82446e-01 
 6.82241e-01 
 6.81981e-01 
 6.81669e-01 
 6.81314e-01 
 6.80930e-01 
 6.80557e-01 
 6.80344e-01 
 6.38166e-01 
 6.38399e-01 
 6.38768e-01 
 6.39108e-01 
 6.39393e-01 
 6.39621e-01 
 6.39797e-01 
 6.39927e-01 
 6.40016e-01 
 6.40068e-01 
 6.40085e-01 
 6.40068e-01 
 6.40016e-01 
 6.39927e-01 
 6.39797e-01 
 6.39621e-01 
 6.39393e-01 
 6.39108e-01 
 6.38768e-01 
 6.38399e-01 
 6.38166e-01 
 5.93951e-01 
 5.94222e-01 
 5.94623e-01 
 5.94960e-01 
 5.95218e-01 
 5.95405e-01 
 5.95535e-01 
 5.95622e-01 
 5.95676e-01 
 5.95705e-01 
 5.95714e-01 
 5.95705e-01 
 5.95676e-01 
 5.95622e-01 
 5.95535e-01 
 5.95405e-01 
 5.95218e-01 
 5.94960e-01 
 5.94623e-01 
 5.94222e-01 
 5.93951e-01 
 5.47497e-01 
 5.47817e-01 
 5.48272e-01 
 5.48636e-01 
 5.48897e-01 
 5.49072e-01 
 5.49181e-01 
 5.49244e-01 
 5.49278e-01 
 5.49293e-01 
 5.49297e-01 
 5.49293e-01 
 5.49278e-01 
 5.49244e-01 
 5.49181e-01 
 5.49072e-01 
 5.48897e-01 
 5.48636e-01 
 5.48272e-01 
 5.47817e-01 
 5.47497e-01 
 4.98277e-01 
 4.98666e-01 
 4.99209e-01 
 4.99636e-01 
 4.99930e-01 
 5.00115e-01 
 5.00219e-01 
 5.00269e-01 
 5.00288e-01 
 5.00292e-01 
 5.00293e-01 
 5.00292e-01 
 5.00288e-01 
 5.00269e-01 
 5.00219e-01 
 5.00115e-01 
 4.99930e-01 
 4.99636e-01 
 4.99209e-01 
 4.98666e-01 
 4.98277e-01 
 4.45412e-01 
 4.45917e-01 
 4.46612e-01 
 4.47143e-01 
 4.47495e-01 
 4.47702e-01 
 4.47806e-01 
 4.47844e-01 
 4.47848e-01 
 4.47840e-01 
 4.47836e-01 
 4.47840e-01 
 4.47848e-01 
 4.47844e-01 
 4.47806e-01 
 4.47702e-01 
 4.47495e-01 
 4.47143e-01 
 4.46612e-01 
 4.45917e-01 
 4.45412e-01 
 3.88326e-01 
 3.89051e-01 
 3.90012e-01 
 3.90723e-01 
 3.91177e-01 
 3.91422e-01 
 3.91519e-01 
 3.91526e-01 
 3.91495e-01 
 3.91461e-01 
 3.91448e-01 
 3.91461e-01 
 3.91495e-01 
 3.91526e-01 
 3.91519e-01 
 3.91422e-01 
 3.91177e-01 
 3.90723e-01 
 3.90012e-01 
 3.89051e-01 
 3.88326e-01 
 3.24144e-01 
 3.25168e-01 
 3.26393e-01 
 3.27299e-01 
 3.27771e-01 
 3.27920e-01 
 3.27877e-01 
 3.27746e-01 
 3.27603e-01 
 3.27499e-01 
 3.27462e-01 
 3.27499e-01 
 3.27603e-01 
 3.27746e-01 
 3.27877e-01 
 3.27920e-01 
 3.27771e-01 
 3.27299e-01 
 3.26393e-01 
 3.25168e-01 
 3.24144e-01 
 2.60588e-01 
 2.62152e-01 
 2.63552e-01 
 2.64043e-01 
 2.64015e-01 
 2.63741e-01 
 2.63386e-01 
 2.63046e-01 
 2.62775e-01 
 2.62604e-01 
 2.62545e-01 
 2.62604e-01 
 2.62775e-01 
 2.63046e-01 
 2.63386e-01 
 2.63741e-01 
 2.64015e-01 
 2.64043e-01 
 2.63552e-01 
 2.62152e-01 
 2.60588e-01 
 2.19383e-01 
 2.16338e-01 
 2.14355e-01 
 2.13629e-01 
 2.13151e-01 
 2.12768e-01 
 2.12461e-01 
 2.12230e-01 
 2.12069e-01 
 2.11975e-01 
 2.11945e-01 
 2.11975e-01 
 2.12069e-01 
 2.12230e-01 
 2.12461e-01 
 2.12768e-01 
 2.13151e-01 
 2.13629e-01 
 2.14355e-01 
 2.16338e-01 
 2.19383e-01 
 2.14717e-01 
 2.04271e-01 
 1.97773e-01 
 1.95917e-01 
 1.95041e-01 
 1.94543e-01 
 1.94260e-01 
 1.94109e-01 
 1.94035e-01 
 1.94003e-01 
 1.93995e-01 
 1.94003e-01 
 1.94035e-01 
 1.94109e-01 
 1.94260e-01 
 1.94543e-01 
 1.95041e-01 
 1.95917e-01 
 1.97773e-01 
 2.04271e-01 
 2.14717e-01 
 1.00000e+00 
 1.00000e+00 
 1.00000e+00 
 1.00000e+00 
 1.00000e+00 
 1.00000e+00 
 1.00000e+00 
 1.00000e+00 
 1.00000e+00 
 1.00000e+00 
       00001 
 1.00000e+00 
 1.00000e+00 
 1.00000e+00 
 1.00000e+00 
 1.00000e+00 
 1.00000e+00 
 1.00000e+00 
 1.00000e+00 
 1.00000e+00 
 1.00000e+00 
 6.87297e-01 
 6.83385e-01 
 6.79088e-01 
 6.74370e-01 
 6.70027e-01 
 6.66700e-01 
 6.64408e-01 
 6.62940e-01 
 6.62439e-01 
 6.61982e-01 
 6.61839e-01 
 6.61982e-01 
 6.62439e-01 
 6.62940e-01 
 6.64408e-01 
 6.66700e-01 
 6.70027e-01 
 6.74370e-01 
 6.79088e-01 
 6.83385e-01 
 6.87297e-01 
 7.29458e-01 
 7.54127e-01 
 7.76643e-01 
 7.86428e-01 
 7.89591e-01 
 7.89924e-01 
 7.89264e-01 
 7.88415e-01 
 7.87712e-01 
 7.87263e-01 
 7.87109e-01 
 7.87263e-01 
 7.87712e-01 
 7.88415e-01 
 7.89264e-01 
 7.89924e-01 
 7.89591e-01 
 7.86428e-01 
 7.76643e-01 
 7.54127e-01 
 7.29458e-01 
 7.20062e-01 
 7.28746e-01 
 7.42604e-01 
 7.53284e-01 
 7.59370e-01 
 7.63048e-01 
 7.64984e-01 
 7.65935e-01 
 7.66367e-01 
 7.66539e-01 
 7.66583e-01 
 7.66539e-01 
 7.66367e-01 
 7.65935e-01 
 7.64984e-01 
 7.63048e-01 
 7.59370e-01 
 7.53284e-01 
 7.42604e-01 
 7.28746e-01 
 7.20062e-01 
 7.04700e-01 
 7.07959e-01 
 7.13312e-01 
 7.18508e-01 
 7.22812e-01 
 7.26036e-01 
 7.28304e-01 
 7.29808e-01 
 7.30736e-01 
 7.31231e-01 
 7.31385e-01 
 7.31231e-01 
 7.30736e-01 
 7.29808e-01 
 7.28304e-01 
 7.26036e-01 
 7.22812e-01 
 7.18508e-01 
 7.13312e-01 
 7.07959e-01 
 7.04700e-01 
 6.90032e-01 
 6.91215e-01 
 6.93806e-01 
 6.96604e-01 
 6.99129e-01 
 7.01227e-01 
 7.02870e-01 
 7.04076e-01 
 7.04884e-01 
 7.05340e-01 
 7.05482e-01 
 7.05340e-01 
 7.04884e-01 
 7.04076e-01 
 7.02870e-01 
 7.01227e-01 
 6.99129e-01 
 6.96604e-01 
 6.93806e-01 
 6.91215e-01 
 6.90032e-01 
 6.70136e-01 
 6.70570e-01 
 6.71707e-01 
 6.73177e-01 
 6.74669e-01 
 6.76007e-01 
 6.77117e-01 
 6.77975e-01 
 6.78577e-01 
 6.78923e-01 
 6.78608e-01 
 6.78923e-01 
 6.78577e-01 
 6.77975e-01 
 6.77117e-01 
 6.76007e-01 
 6.74669e-01 
 6.73177e-01 
 6.71707e-01 
 6.70570e-01 
 6.70136e-01 
 6.46553e-01 
 6.46641e-01 
 6.47120e-01 
 6.47858e-01 
 6.48690e-01 
 6.49502e-01 
 6.50218e-01 
 6.50798e-01 
 6.51219e-01 
 6.51468e-01 
 6.51545e-01 
 6.51468e-01 
 6.51219e-01 
 6.50798e-01 
 6.50218e-01 
 6.49502e-01 
 6.48690e-01 
 6.47858e-01 
 6.47120e-01 
 6.46641e-01 
 6.46553e-01 
 6.21278e-01 
 6.21256e-01 
 6.21445e-01 
 6.21817e-01 
 6.22274e-01 
 6.22743e-01 
 6.23175e-01 
 6.23536e-01 
 6.23804e-01 
 6.23967e-01 
 6.24020e-01 
 6.23967e-01 
 6.23804e-01 
 6.23536e-01 
 6.23175e-01 
 6.22743e-01 
 6.22274e-01 
 6.21817e-01 
 6.21445e-01 
 6.21256e-01 
 6.21278e-01 
 5.94187e-01 
 5.94132e-01 
 5.94202e-01 
 5.94393e-01 
 5.94642e-01 
 5.94905e-01 
 5.95151e-01 
 5.95360e-01 
 5.95517e-01 
 5.95615e-01 
 5.95647e-01 
 5.95615e-01 
 5.95517e-01 
 5.95360e-01 
 5.95151e-01 
 5.94905e-01 
 5.94642e-01 
 5.94393e-01 
 5.94202e-01 
 5.94132e-01 
 5.94187e-01 
 5.65747e-01 
 5.65686e-01 
 5.65707e-01 
 5.65811e-01 
 5.65951e-01 
 5.66098e-01 
 5.66233e-01 
 5.66346e-01 
 5.66431e-01 
 5.66484e-01 
 5.66502e-01 
 5.66484e-01 
 5.66431e-01 
 5.66346e-01 
 5.66233e-01 
 5.66098e-01 
 5.65951e-01 
 5.65811e-01 
 5.65707e-01 
 5.65686e-01 
 5.65747e-01 
 5.35348e-01 
 5.35297e-01 
 5.35307e-01 
 5.35374e-01 
 5.35459e-01 
 5.35540e-01 
 5.35610e-01 
 5.35665e-01 
 5.35705e-01 
 5.35728e-01 
 5.35736e-01 
 5.35728e-01 
 5.35705e-01 
 5.35665e-01 
 5.35610e-01 
 5.35540e-01 
 5.35459e-01 
 5.35374e-01 
 5.35307e-01 
 5.35297e-01 
 5.35348e-01 
 5.03560e-01 
 5.03528e-01 
 5.03547e-01 
 5.03604e-01 
 5.03663e-01 
 5.03710e-01 
 5.03743e-01 
 5.03763e-01 
 5.03775e-01 
 5.03780e-01 
 5.03782e-01 
 5.03780e-01 
 5.03775e-01 
 5.03763e-01 
 5.03743e-01 
 5.03710e-01 
 5.03663e-01 
 5.03604e-01 
 5.03547e-01 
 5.03528e-01 
 5.03560e-01 
 4.69635e-01 
 4.69617e-01 
 4.69650e-01 
 4.69708e-01 
 4.69757e-01 
 4.69786e-01 
 4.69795e-01 
 4.69793e-01 
 4.69785e-01 
 4.69778e-01 
 4.69775e-01 
 4.69778e-01 
 4.69785e-01 
 4.69793e-01 
 4.69795e-01 
 4.69786e-01 
 4.69757e-01 
 4.69708e-01 
 4.69650e-01 
 4.69617e-01 
 4.69635e-01 
 4.33326e-01 
 4.33323e-01 
 4.33377e-01 
 4.33449e-01 
 4.33500e-01 
 4.33519e-01 
 4.33512e-01 
 4.33490e-01 
 4.33466e-01 
 4.33447e-01 
 4.33440e-01 
 4.33447e-01 
 4.33466e-01 
 4.33490e-01 
 4.33512e-01 
 4.33519e-01 
 4.33500e-01 
 4.33449e-01 
 4.33377e-01 
 4.33323e-01 
 4.33326e-01 
 3.93795e-01 
 3.93833e-01 
 3.93947e-01 
 3.94059e-01 
 3.94124e-01 
 3.94136e-01 
 3.94111e-01 
 3.94066e-01 
 3.94020e-01 
 3.93986e-01 
 3.93974e-01 
 3.93986e-01 
 3.94020e-01 
 3.94066e-01 
 3.94111e-01 
 3.94136e-01 
 3.94123e-01 
 3.94059e-01 
 3.93947e-01 
 3.93833e-01 
 3.93795e-01 
 3.48594e-01 
 3.48760e-01 
 3.49007e-01 
 3.49190e-01 
 3.49277e-01 
 3.49276e-01 
 3.49215e-01 
 3.49126e-01 
 3.49038e-01 
 3.48977e-01 
 3.48954e-01 
 3.48977e-01 
 3.49038e-01 
 3.49126e-01 
 3.49215e-01 
 3.49276e-01 
 3.49277e-01 
 3.49190e-01 
 3.49007e-01 
 3.48760e-01 
 3.48594e-01 
 2.98704e-01 
 2.99029e-01 
 2.99421e-01 
 2.99624e-01 
 2.99624e-01 
 2.99475e-01 
 2.99250e-01 
 2.99014e-01 
 2.98813e-01 
 2.98681e-01 
 2.98635e-01 
 2.98681e-01 
 2.98813e-01 
 2.99014e-01 
 2.99250e-01 
 2.99475e-01 
 2.99624e-01 
 2.99624e-01 
 2.99421e-01 
 2.99029e-01 
 2.98704e-01 
 2.46415e-01 
 2.47102e-01 
 2.47492e-01 
 2.47352e-01 
 2.46966e-01 
 2.46504e-01 
 2.46059e-01 
 2.45682e-01 
 2.45400e-01 
 2.45227e-01 
 2.45169e-01 
 2.45227e-01 
 2.45400e-01 
 2.45682e-01 
 2.46059e-01 
 2.46504e-01 
 2.46966e-01 
 2.47352e-01 
 2.47492e-01 
 2.47102e-01 
 2.46415e-01 
 2.21288e-01 
 2.17168e-01 
 2.13482e-01 
 2.11853e-01 
 2.11039e-01 
 2.10544e-01 
 2.10211e-01 
 2.09982e-01 
 2.09831e-01 
 2.09746e-01 
 2.09719e-01 
 2.09746e-01 
 2.09831e-01 
 2.09982e-01 
 2.10211e-01 
 2.10544e-01 
 2.11039e-01 
 2.11853e-01 
 2.13482e-01 
 2.17168e-01 
 2.21288e-01 
 2.35668e-01 
 2.24071e-01 
 2.14084e-01 
 2.10429e-01 
 2.09079e-01 
 2.08483e-01 
 2.08193e-01 
 2.08050e-01 
 2.07983e-01 
 2.07955e-01 
 2.07948e-01 
 2.07955e-01 
 2.07983e-01 
 2.08050e-01 
 2.08193e-01 
 2.08483e-01 
 2.09079e-01 
 2.10429e-01 
 2.14084e-01 
 2.24071e-01 
 2.35668e-01 
 1.00000e+00 
 1.00000e+00 
 1.00000e+00 
 1.00000e+00 
 1.00000e+00 
       00001 
 1.00000e+00 
 1.00000e+00 
 1.00000e+00 
 1.00000e+00 
 1.00000e+00 
 1.00000e+00 
 1.00000e+00 
 1.00000e+00 
 1.00000e+00 
 1.00000e+00 
 1.00000e+00 
 1.00000e+00 
 1.00000e+00 
 1.00000e+00 
 1.00000e+00 
 5.33235e-01 
 5.30484e-01 
 5.27301e-01 
 5.23786e-01 
 5.20503e-01 
 5.17897e-01 
 5.16252e-01 
 5.14952e-01 
 5.14131e-01 
 5.13679e-01 
 5.13535e-01 
 5.13679e-01 
 5.14131e-01 
 5.14952e-01 
 5.16252e-01 
 5.17897e-01 
 5.20503e-01 
 5.23787e-01 
 5.27301e-01 
 5.30484e-01 
 5.33235e-01 
 5.78585e-01 
 5.95925e-01 
 6.12232e-01 
 6.19831e-01 
 6.22770e-01 
 6.23587e-01 
 6.23548e-01 
 6.23238e-01 
 6.22923e-01 
 6.22706e-01 
 6.22629e-01 
 6.22706e-01 
 6.22923e-01 
 6.23238e-01 
 6.23548e-01 
 6.23587e-01 
 6.22770e-01 
 6.19831e-01 
 6.12232e-01 
 5.95925e-01 
 5.78585e-01 
 5.78324e-01 
 5.84849e-01 
 5.95375e-01 
 6.03810e-01 
 6.08985e-01 
 6.12396e-01 
 6.14427e-01 
 6.15607e-01 
 6.16272e-01 
 6.16605e-01 
 6.16704e-01 
 6.16605e-01 
 6.16272e-01 
 6.15607e-01 
 6.14427e-01 
 6.12396e-01 
 6.08985e-01 
 6.03810e-01 
 5.95375e-01 
 5.84849e-01 
 5.78324e-01 
 5.67542e-01 
 5.69819e-01 
 5.73775e-01 
 5.77411e-01 
 5.80863e-01 
 5.83585e-01 
 5.85589e-01 
 5.86980e-01 
 5.87881e-01 
 5.88378e-01 
 5.88535e-01 
 5.88378e-01 
 5.87881e-01 