<?xml version="1.0" encoding="utf-8"?>
<VTKFile byte_order="LittleEndian" type="UnstructuredGrid" version="0.1">
   <UnstructuredGrid>
      <Piece NumberOfCells="10459" NumberOfPoints="2735">
         <Points>
            <DataArray Name="Points" NumberOfComponents="3" format="ascii" type="Float32">
0.6521 0.5000 1.0000
0.6521 0.5000 0.9870
0.6500 0.4850 1.0000
0.6500 0.5150 1.0000
0.6355 0.5053 1.0000
0.6500 0.4850 0.9870
0.6500 0.5150 0.9870
0.6342 0.4893 1.0000
0.6479 0.5256 1.0000
0.6479 0.4744 1.0000
0.6385 0.4734 1.0000
0.6381 0.5264 1.0000
0.6521 0.5000 0.9700
0.6469 0.4697 0.9901
0.6469 0.5303 0.9901
0.6500 0.4850 0.9700
0.6500 0.5150 0.9700
0.6460 0.4650 1.0000
0.6460 0.5350 1.0000
0.6288 0.5206 0.9792
0.6144 0.4990 1.0000
0.6286 0.4772 0.9809
0.6390 0.5378 1.0000
0.6390 0.4622 1.0000
0.6190 0.4729 1.0000
0.6190 0.5271 1.0000
0.6442 0.5442 1.0000
0.6442 0.4558 1.0000
0.6294 0.4610 1.0000
0.6294 0.5390 1.0000
0.6442 0.5442 0.9897
0.6442 0.4558 0.9897
0.6192 0.5029 0.9674
0.6368 0.4529 1.0000
0.6368 0.5471 1.0000
0.6442 0.5442 0.9764
0.6442 0.4558 0.9764
0.6430 0.4500 1.0000
0.6430 0.5500 1.0000
0.6300 0.4556 0.9866
0.6521 0.5000 0.9484
0.6430 0.5500 0.9897
0.6430 0.4500 0.9897
0.6500 0.4850 0.9484
0.6500 0.5150 0.9484
0.6259 0.5435 0.9818
0.6323 0.4552 0.9747
0.6430 0.5500 0.9764
0.6430 0.4500 0.9764
0.6159 0.4563 1.0000
0.6159 0.5437 1.0000
0.6274 0.4482 1.0000
0.6274 0.5518 1.0000
0.6201 0.4576 0.9762
0.6378 0.4414 1.0000
0.6378 0.5586 1.0000
0.6442 0.5442 0.9593
0.6442 0.4558 0.9593
0.6286 0.5441 0.9641
0.5994 0.4679 1.0000
0.5994 0.5321 1.0000
0.6288 0.4559 0.9632
0.6131 0.5410 0.9679
0.6430 0.5500 0.9593
0.6430 0.4500 0.9593
0.6325 0.4325 1.0000
0.6325 0.5675 1.0000
0.6325 0.4325 0.9885
0.6325 0.5675 0.9885
0.6229 0.5657 1.0000
0.6229 0.4343 1.0000
0.6247 0.5433 0.9484
0.6234 0.4569 0.9484
0.6031 0.4610 0.9594
0.5775 0.4951 1.0000
0.6325 0.5675 0.9731
0.6325 0.4325 0.9731
0.6142 0.5022 0.9346
0.6442 0.5442 0.9375
0.6442 0.4558 0.9375
0.6521 0.5000 0.9208
0.5950 0.4441 1.0000
0.5950 0.5559 1.0000
0.6430 0.5500 0.9375
0.6430 0.4500 0.9375
0.6500 0.4850 0.9208
0.6500 0.5150 0.9208
0.6269 0.5769 1.0000
0.6269 0.4231 1.0000
0.6300 0.5444 0.9352
0.6269 0.5769 0.9885
0.6269 0.4231 0.9885
0.6114 0.4388 0.9633
0.6291 0.4558 0.9341
0.6169 0.5760 1.0000
0.6169 0.4240 1.0000
0.6325 0.5675 0.9534
0.6325 0.4325 0.9534
0.6269 0.5769 0.9731
0.6269 0.4231 0.9731
0.6036 0.4271 1.0000
0.6036 0.5729 1.0000
0.6022 0.5689 0.9744
0.6224 0.5843 1.0000
0.6224 0.4157 1.0000
0.5712 0.4608 1.0000
0.5951 0.5374 0.9408
0.6186 0.5421 0.9269
0.6124 0.4166 1.0000
0.6124 0.5834 1.0000
0.6269 0.5769 0.9534
0.6269 0.4231 0.9534
0.6181 0.4580 0.9235
0.6203 0.4121 0.9906
0.6203 0.5879 0.9906
0.6134 0.5624 0.9408
0.6211 0.4136 0.9772
0.6211 0.5864 0.9772
0.5708 0.5514 1.0000
0.6108 0.4392 0.9373
0.6179 0.4082 1.0000
0.6179 0.5918 1.0000
0.6298 0.4557 0.9142
0.6325 0.5675 0.9281
0.6325 0.4325 0.9281
0.5827 0.5729 1.0000
0.6442 0.5442 0.9095
0.6442 0.4558 0.9095
0.6255 0.5435 0.9096
0.6430 0.5500 0.9095
0.6430 0.4500 0.9095
0.5937 0.4133 0.9763
0.6130 0.4000 1.0000
0.6130 0.6000 1.0000
0.6130 0.4000 0.9871
0.6130 0.6000 0.9871
0.6269 0.5769 0.9281
0.6269 0.4231 0.9281
0.6030 0.4035 1.0000
0.6030 0.5965 1.0000
0.5900 0.4100 1.0000
0.5900 0.5900 1.0000
0.6155 0.5024 0.8965
0.5819 0.5765 0.9600
0.6130 0.5622 0.9162
0.6130 0.4000 0.9700
0.6130 0.6000 0.9699
0.6228 0.4571 0.9009
0.6521 0.5000 0.8859
0.5729 0.4173 1.0000
0.5877 0.4641 0.9121
0.6145 0.4369 0.9117
0.6500 0.4850 0.8859
0.6500 0.5150 0.8859
0.6093 0.5402 0.9009
0.5952 0.4118 0.9512
0.6065 0.3935 1.0000
0.6065 0.6065 1.0000
0.5370 0.4849 1.0000
0.6065 0.3935 0.9872
0.6065 0.6065 0.9872
0.5867 0.5937 0.9763
0.5965 0.6030 1.0000
0.5965 0.3970 1.0000
0.6436 0.5471 0.8917
0.6436 0.4529 0.8917
0.5765 0.4181 0.9600
0.6130 0.4000 0.9482
0.6130 0.6000 0.9479
0.6065 0.3935 0.9706
0.6065 0.6065 0.9706
0.5514 0.4292 1.0000
0.5886 0.5963 0.9551
0.6000 0.6130 1.0000
0.6000 0.3870 1.0000
0.6000 0.6130 0.9871
0.6000 0.3870 0.9871
0.6325 0.5675 0.8960
0.6325 0.4325 0.8960
0.6065 0.3935 0.9494
0.6065 0.6065 0.9494
0.6274 0.4562 0.8826
0.6000 0.6130 0.9700
0.6000 0.3870 0.9699
0.6247 0.5433 0.8826
0.5729 0.6036 1.0000
0.5729 0.3964 1.0000
0.6089 0.4599 0.8826
0.6269 0.5769 0.8960
0.6269 0.4231 0.8960
0.5834 0.6124 1.0000
0.5834 0.3876 1.0000
0.5918 0.6179 1.0000
0.5918 0.3821 1.0000
0.6108 0.5609 0.8898
0.6118 0.4385 0.8894
0.5823 0.5928 0.9343
0.5392 0.5712 1.0000
0.6130 0.4000 0.9204
0.6442 0.5442 0.8740
0.6442 0.4558 0.8740
0.6130 0.6000 0.9200
0.5689 0.3978 0.9744
0.5846 0.4042 0.9340
0.6000 0.6130 0.9482
0.6000 0.3870 0.9479
0.5559 0.5950 1.0000
0.5559 0.4050 1.0000
0.5753 0.5715 0.9139
0.6430 0.5500 0.8740
0.6430 0.4500 0.8740
0.5879 0.6203 0.9906
0.5879 0.3797 0.9906
0.6323 0.4552 0.8716
0.5929 0.5893 0.9132
0.5722 0.4223 0.9183
0.5968 0.4172 0.9028
0.6065 0.3935 0.9224
0.6065 0.6065 0.9224
0.5760 0.6169 1.0000
0.5760 0.3831 1.0000
0.5864 0.6211 0.9772
0.5864 0.3789 0.9772
0.5843 0.6224 1.0000
0.5843 0.3776 1.0000
0.5915 0.4039 0.9158
0.5151 0.5370 1.0000
0.5614 0.6118 0.9805
0.6241 0.4568 0.8630
0.6125 0.4980 0.8587
0.5769 0.6269 1.0000
0.5769 0.3731 1.0000
0.6166 0.5417 0.8630
0.6000 0.6130 0.9204
0.6000 0.3870 0.9200
0.5769 0.6269 0.9885
0.5769 0.3731 0.9885
0.5769 0.6269 0.9731
0.5769 0.3731 0.9731
0.5605 0.6102 0.9551
0.5657 0.6229 1.0000
0.5657 0.3771 1.0000
0.5154 0.4327 1.0000
0.5262 0.4179 0.9707
0.5769 0.6269 0.9534
0.5769 0.3731 0.9534
0.5000 0.4707 1.0000
0.5321 0.5994 1.0000
0.5321 0.4006 1.0000
0.6436 0.5471 0.8516
0.6436 0.4529 0.8516
0.5624 0.3866 0.9408
0.5675 0.3675 1.0000
0.5675 0.6325 1.0000
0.6130 0.4000 0.8851
0.5816 0.5908 0.8923
0.5675 0.3675 0.9885
0.5675 0.6325 0.9885
0.6130 0.6000 0.8846
0.6521 0.5000 0.8420
0.6500 0.4850 0.8420
0.6500 0.5150 0.8420
0.5437 0.6159 1.0000
0.5437 0.3841 1.0000
0.5675 0.3675 0.9731
0.5675 0.6325 0.9731
0.5374 0.5951 0.9408
0.5374 0.4049 0.9408
0.5927 0.4109 0.8805
0.6325 0.5675 0.8553
0.6325 0.4325 0.8553
0.6065 0.3935 0.8882
0.6065 0.6065 0.8882
0.5410 0.6131 0.9679
0.5410 0.3869 0.9679
0.5518 0.3726 1.0000
0.5518 0.6274 1.0000
0.5269 0.4458 0.9121
0.5675 0.3675 0.9534
0.5675 0.6325 0.9534
0.5769 0.6269 0.9281
0.5769 0.3731 0.9281
0.6092 0.4401 0.8525
0.6269 0.5769 0.8553
0.6269 0.4231 0.8553
0.5049 0.5775 1.0000
0.5586 0.3622 1.0000
0.5586 0.6378 1.0000
0.5622 0.3870 0.9162
0.5435 0.6259 0.9818
0.5435 0.3741 0.9818
0.6101 0.5605 0.8490
0.6221 0.4572 0.8402
0.5623 0.6131 0.9136
0.6000 0.6130 0.8851
0.6000 0.3870 0.8846
0.5790 0.5761 0.8666
0.6213 0.5426 0.8369
0.5441 0.3714 0.9641
0.5441 0.6286 0.9641
0.5390 0.3706 1.0000
0.5390 0.6294 1.0000
0.5000 0.4340 0.9535
0.5471 0.3632 1.0000
0.5471 0.6368 1.0000
0.5271 0.6190 1.0000
0.5271 0.3810 1.0000
0.5765 0.4206 0.8666
0.5675 0.3675 0.9281
0.5675 0.6325 0.9281
0.5979 0.5379 0.8402
0.5979 0.4621 0.8402
0.5433 0.6247 0.9484
0.5433 0.3753 0.9484
0.5500 0.3570 1.0000
0.5500 0.6430 1.0000
0.5500 0.3570 0.9897
0.5500 0.6430 0.9897
0.6442 0.5442 0.8291
0.6442 0.4558 0.8291
0.5500 0.3570 0.9764
0.5500 0.6430 0.9764
0.5421 0.6186 0.9269
0.5421 0.3814 0.9269
0.6430 0.5500 0.8291
0.6430 0.4500 0.8291
0.5378 0.6390 1.0000
0.5378 0.3610 1.0000
0.5442 0.3558 1.0000
0.5442 0.6442 1.0000
0.5500 0.3570 0.9593
0.5500 0.6430 0.9593
0.5442 0.3558 0.9897
0.5442 0.6442 0.9897
0.5769 0.6269 0.8960
0.5769 0.3731 0.8960
0.5610 0.6110 0.8907
0.4846 0.4327 1.0000
0.5444 0.3700 0.9352
0.5444 0.6300 0.9352
0.5609 0.3892 0.8898
0.5442 0.3558 0.9764
0.5442 0.6442 0.9764
0.6199 0.4970 0.8205
0.5442 0.3558 0.9593
0.5442 0.6442 0.9593
0.5402 0.6093 0.9009
0.5402 0.3907 0.9009
0.5500 0.3570 0.9375
0.5500 0.6430 0.9375
0.5264 0.3619 1.0000
0.5266 0.6385 1.0000
0.5350 0.3540 1.0000
0.5350 0.6460 1.0000
0.5336 0.5763 0.8757
0.5444 0.6300 0.9164
0.5675 0.3675 0.8960
0.5675 0.6325 0.8960
0.5435 0.3745 0.9096
0.5010 0.6144 1.0000
0.4630 0.5151 1.0000
0.5897 0.5840 0.8416
0.5442 0.3558 0.9375
0.5442 0.6442 0.9375
0.5303 0.6469 0.9901
0.5303 0.3531 0.9901
0.4990 0.3856 1.0000
0.6130 0.4000 0.8408
0.6130 0.6000 0.8400
0.6065 0.6065 0.8451
0.6065 0.3935 0.8451
0.6108 0.5405 0.8152
0.6108 0.4595 0.8152
0.5439 0.6276 0.9009
0.5256 0.6479 1.0000
0.5256 0.3521 1.0000
0.5841 0.4108 0.8409
0.5107 0.6342 1.0000
0.5590 0.5302 0.8298
0.5500 0.3570 0.9095
0.5500 0.6430 0.9095
0.4971 0.6190 0.9672
0.4970 0.3807 0.9673
0.4738 0.4179 0.9707
0.5022 0.6142 0.9346
0.5053 0.3645 1.0000
0.5442 0.3558 0.9095
0.5442 0.6442 0.9095
0.5430 0.6229 0.8826
0.6000 0.6130 0.8408
0.6000 0.3870 0.8400
0.4978 0.3858 0.9346
0.5433 0.3753 0.8826
0.5150 0.6500 1.0000
0.5150 0.3500 1.0000
0.5150 0.6500 0.9870
0.5150 0.3500 0.9870
0.5779 0.4316 0.8222
0.6436 0.5471 0.8010
0.6436 0.4529 0.8010
0.5150 0.6500 0.9700
0.5150 0.3500 0.9700
0.5061 0.6460 0.9958
0.5769 0.6269 0.8553
0.5769 0.3731 0.8553
0.5606 0.6104 0.8508
0.4947 0.6355 1.0000
0.6325 0.5675 0.8042
0.6325 0.4325 0.8042
0.5605 0.3899 0.8490
0.5471 0.3564 0.8917
0.5471 0.6436 0.8917
0.5404 0.6102 0.8630
0.4679 0.4006 1.0000
0.4679 0.5994 1.0000
0.5150 0.6500 0.9484
0.5150 0.3500 0.9484
0.4893 0.3658 1.0000
0.5417 0.3834 0.8630
0.5698 0.5795 0.8220
0.6269 0.5769 0.8042
0.6269 0.4231 0.8042
0.6521 0.5000 0.7872
0.6500 0.4850 0.7872
0.6500 0.5150 0.7872
0.5675 0.3675 0.8553
0.5675 0.6325 0.8553
0.4408 0.4682 1.0000
0.4806 0.6283 0.9804
0.4729 0.3810 1.0000
0.4729 0.6190 1.0000
0.5000 0.3479 1.0000
0.5000 0.6521 1.0000
0.4939 0.3540 0.9958
0.4486 0.5708 1.0000
0.4486 0.4292 1.0000
0.5000 0.3479 0.9870
0.5000 0.6521 0.9870
0.5038 0.6255 0.9062
0.5500 0.3570 0.8740
0.5500 0.6430 0.8740
0.5000 0.6521 0.9700
0.5000 0.3479 0.9700
0.5150 0.6500 0.9208
0.5150 0.3500 0.9208
0.5379 0.4021 0.8402
0.5442 0.3558 0.8740
0.5442 0.6442 0.8740
0.4626 0.4049 0.9408
0.4962 0.3748 0.9053
0.5000 0.6521 0.9484
0.5000 0.3479 0.9484
0.5014 0.3917 0.8795
0.5017 0.6107 0.8794
0.5989 0.5000 0.7824
0.4850 0.6500 1.0000
0.4850 0.3500 1.0000
0.4314 0.4864 0.9601
0.4850 0.6500 0.9870
0.4850 0.3500 0.9870
0.4641 0.5877 0.9121
[...]
         <PointData>
            <DataArray Name="fValues" NumberOfComponents="3" format="ascii" type="Float64">
 1.00000e+00  1.00000e+00        00001 
       00001        00001        00001 
 1.00000e+00  1.00000e+00  1.00000e+00 
 1.00000e+00        00001        00001 
 4.73192e-17  6.10520e-17  2.44442e-17 
 1.00000e+00  1.00000e+00  1.00000e+00 
 1.00000e+00  1.00000e+00  1.00000e+00 
 3.33612e-17 -4.62858e-17  6.18844e-17 
       00001  1.00000e+00        00001 
 1.00000e+00  1.00000e+00  1.00000e+00 
-2.02044e-17 -6.13082e-17 -7.08516e-17 
 1.52992e-16  1.53328e-16  9.87026e-17 
 1.00000e+00  1.00000e+00  1.00000e+00 
 1.00000e+00  1.00000e+00  1.00000e+00 
 1.00000e+00        00001        00001 
 1.00000e+00  1.00000e+00  1.00000e+00 
 1.00000e+00  1.00000e+00  1.00000e+00 
 1.00000e+00  1.00000e+00  1.00000e+00 
 1.00000e+00  1.00000e+00  1.00000e+00 
 9.74618e-18  3.47224e-17  1.64622e-16 
-1.44142e-18 -1.07722e-17 -5.05360e-17 
-1.25756e-16 -9.51079e-17 -9.59949e-17 
 2.62953e-16  2.97617e-16  1.70575e-16 
-3.58314e-17  7.52619e-17  8.55785e-17 
 3.45821e-17  4.34517e-17  4.03764e-17 
-1.54889e-17 -2.72005e-17 -5.52879e-17 
 1.00000e+00  1.00000e+00  1.00000e+00 
       00001        00001        00001 
 2.39588e-17  2.91587e-17  3.99792e-17 
-4.77544e-17 -4.88158e-17 -6.10326e-17 
       00001  1.00000e+00  1.00000e+00 
 1.00000e+00        00001  1.00000e+00 
 2.31276e-17  4.90944e-17  1.09332e-16 
-4.97657e-17 -9.24125e-17 -1.52128e-16 
 1.06681e-16  2.07063e-16  1.25706e-16 
 1.00000e+00        00001        00001 
 1.00000e+00        00001  1.00000e+00 
 1.00000e+00  1.00000e+00  1.00000e+00 
       00001  1.00000e+00  1.00000e+00 
 4.03006e-17  9.40306e-18 -3.57423e-18 
 1.00000e+00  1.00000e+00  1.00000e+00 
 1.00000e+00  1.00000e+00  1.00000e+00 
 1.00000e+00  1.00000e+00  1.00000e+00 
 1.00000e+00  1.00000e+00  1.00000e+00 
 1.00000e+00  1.00000e+00  1.00000e+00 
-8.93790e-18  8.95974e-18  1.30233e-17 
 1.30217e-17 -2.60630e-17 -3.39157e-17 
 1.00000e+00        00001  1.00000e+00 
 1.00000e+00  1.00000e+00  1.00000e+00 
-1.51529e-17 -1.43213e-17 -9.54697e-18 
 2.37073e-18  5.05996e-18  1.14850e-17 
-2.42302e-17 -1.35266e-17 -1.22381e-17 
 8.28696e-17 -1.59707e-17  5.18644e-18 
 1.16237e-17  1.08847e-17  4.26329e-18 
       00001  1.00000e+00        00001 
       00001        00001        00001 
       00001  1.00000e+00        00001 
 1.00000e+00  1.00000e+00  1.00000e+00 
 5.86378e-17  7.90382e-17  8.63432e-17 
 1.24106e-17  4.32189e-18 -1.80938e-18 
-4.21834e-18 -1.05373e-17 -2.58478e-17 
-8.72755e-18  5.63039e-17  1.19913e-16 
-6.67195e-18 -1.17581e-17 -3.35952e-17 
 1.00000e+00  1.00000e+00        00001 
 1.00000e+00        00001  1.00000e+00 
-1.50075e-18 -2.88689e-18 -8.31817e-18 
-4.89676e-17 -2.12788e-17 -2.52943e-17 
-3.57517e-17 -4.13779e-17  1.50025e-17 
 7.19243e-17  5.92814e-17  3.72269e-17 
-2.09698e-17 -1.71000e-17 -1.62063e-17 
 1.22027e-18  4.40189e-19 -7.23216e-18 
 1.57623e-17  1.72965e-17  7.58344e-17 
-7.95825e-17  6.40112e-17  9.81373e-17 
 4.92515e-18 -5.73128e-18 -1.47322e-17 
-2.35540e-18 -4.95246e-18 -1.43353e-17 
-4.70027e-17 -6.12157e-17 -6.01290e-17 
-3.06892e-17 -2.22474e-17 -6.72748e-18 
-1.19895e-17  1.79982e-18  3.91697e-17 
       00001        00001        00001 
 1.00000e+00        00001        00001 
 1.00000e+00  1.00000e+00  1.00000e+00 
-8.36839e-18  9.25716e-19  9.63803e-18 
-2.76432e-18  6.18005e-19  8.89502e-18 
 1.00000e+00  1.00000e+00        00001 
 1.00000e+00  1.00000e+00        00001 
 1.00000e+00  1.00000e+00  1.00000e+00 
       00001        00001  1.00000e+00 
-5.12145e-18 -1.19431e-17  1.20066e-18 
-3.59706e-18 -1.11831e-17  1.61809e-17 
 1.66791e-17  2.40589e-17  3.29409e-17 
-8.86002e-18 -1.47620e-18 -6.11112e-18 
 4.51974e-18  2.53353e-18 -1.18143e-17 
 1.25238e-17  3.20997e-18  8.11569e-18 
 7.25217e-17  7.19788e-17  1.46939e-16 
 9.84335e-18  1.12686e-17  6.44724e-18 
 1.58543e-18  1.41624e-17 -1.63530e-17 
-2.15158e-17 -1.64517e-17 -1.92832e-18 
 3.02590e-17  1.33961e-17 -7.15381e-17 
-1.41962e-18  2.75355e-17  1.15859e-17 
-5.02178e-18  5.75305e-18 -1.01899e-17 
-1.14427e-17  1.20799e-17  1.48561e-17 
-6.21793e-18  2.22839e-18 -1.04377e-18 
 2.04780e-17  1.28571e-17  9.50233e-18 
 2.06317e-17  3.93790e-17 -4.01847e-18 
 4.71589e-18  4.16151e-17 -6.43659e-18 
-1.70021e-18  3.58524e-19  1.56504e-18 
-9.00078e-20 -2.11248e-18 -5.57225e-18 
-1.23828e-17 -3.91868e-17 -5.01781e-17 
 1.81722e-17 -5.57518e-17  6.68066e-17 
-1.80006e-17 -8.17886e-17 -2.53473e-17 
 5.66369e-18 -3.62138e-17 -5.25466e-17 
 2.13213e-17  1.28685e-19  5.89093e-18 
 2.55870e-17  2.20679e-17  1.78525e-17 
-4.03003e-18 -5.94289e-17  1.44862e-17 
-4.23852e-17 -1.42110e-17 -6.58852e-18 
 5.15874e-18  1.23639e-17  2.09172e-17 
-2.47970e-18 -9.67748e-18  3.45664e-17 
 2.64969e-17 -5.22218e-17  4.21166e-17 
 5.73483e-19  2.89898e-18  6.95713e-18 
-3.36056e-18  6.09014e-18  3.53834e-18 
-8.08156e-17 -1.19867e-16 -4.88569e-17 
-1.58082e-17 -1.84469e-16  1.03334e-16 
 1.02797e-17 -2.60764e-17 -2.69645e-17 
 3.50409e-17 -5.59883e-17 -4.44332e-17 
-2.70149e-17 -5.39477e-17 -5.36615e-17 
 4.04044e-18 -2.39323e-19 -2.53891e-18 
 1.00000e+00  1.00000e+00  1.00000e+00 
 1.00000e+00  1.00000e+00  1.00000e+00 
 2.13483e-17  9.37457e-17  1.61269e-17 
       00001        00001        00001 
 1.00000e+00  1.00000e+00  1.00000e+00 
 2.37444e-17 -3.25034e-17 -9.69095e-17 
 1.00000e+00  1.00000e+00  1.00000e+00 
 1.00000e+00  1.00000e+00  1.00000e+00 
       00001  1.00000e+00        00001 
       00001  1.00000e+00        00001 
-4.61660e-17 -1.08698e-18 -4.61199e-17 
 8.17623e-17 -1.76226e-17  3.67051e-17 
-1.33735e-16 -1.52087e-16 -8.58373e-17 
 4.24503e-17  6.07935e-17 -3.65435e-18 
 1.30065e-17  4.86206e-17  4.68600e-17 
 2.90100e-18  1.58259e-17  3.19518e-19 
 1.66104e-17  2.20480e-17  1.08419e-18 
-3.21301e-18 -3.90764e-18  1.77427e-19 
 7.49603e-19  8.71565e-18 -1.04615e-17 
 1.00000e+00        00001        00001 
 1.00000e+00        00001  1.00000e+00 
 5.94793e-17  5.22566e-17  3.95009e-18 
 1.00000e+00  1.00000e+00  1.00000e+00 
-1.39229e-18  3.94508e-18  1.09752e-17 
-1.12612e-18 -1.17056e-18 -1.58750e-18 
-4.37293e-17 -2.52274e-17 -8.17169e-18 
 1.00000e+00  1.00000e+00  1.00000e+00 
 1.00000e+00  1.00000e+00  1.00000e+00 
-1.20470e-17 -3.44573e-18 -3.73163e-18 
-1.07372e-16 -4.88120e-17 -8.09572e-17 
 1.00000e+00  1.00000e+00  1.00000e+00 
 1.00000e+00  1.00000e+00  1.00000e+00 
 5.20614e-19  1.80931e-18  4.17107e-18 
 1.00000e+00  1.00000e+00  1.00000e+00 
       00001        00001        00001 
-3.56927e-17 -1.00454e-17 -9.20907e-18 
-6.76270e-17 -7.13857e-17 -5.29871e-17 
-4.81392e-17 -6.15330e-17 -5.16659e-17 
       00001        00001  1.00000e+00 
       00001        00001  1.00000e+00 
 4.00544e-18  4.17003e-18  6.41661e-18 
 1.00000e+00  1.00000e+00  1.00000e+00 
       00001        00001  1.00000e+00 
 1.00000e+00        00001  1.00000e+00 
 1.00000e+00  1.00000e+00  1.00000e+00 
 3.61745e-18  3.80602e-18 -5.47830e-19 
 8.89242e-18  8.84660e-17 -8.15262e-18 
 1.00000e+00  1.00000e+00  1.00000e+00 
 1.00000e+00  1.00000e+00  1.00000e+00 
       00001        00001  1.00000e+00 
 1.00000e+00  1.00000e+00  1.00000e+00 
 2.96363e-17  5.49486e-17  6.74873e-17 
-2.79190e-17 -6.53294e-17 -2.07297e-17 
 1.00000e+00  1.00000e+00  1.00000e+00 
       00001  1.00000e+00  1.00000e+00 
 1.74821e-16  1.11328e-16 -7.83223e-19 
 1.00000e+00        00001        00001 
       00001        00001        00001 
 2.73138e-17 -2.87074e-17 -6.19002e-17 
 9.23472e-18  5.68083e-18  6.83489e-18 
 1.11102e-17  7.97379e-18 -1.61361e-18 
-4.47273e-17 -2.71258e-17 -1.55656e-17 
 4.36912e-17  1.13924e-16  5.21963e-17 
 4.89370e-17 -4.11390e-17 -5.68808e-17 
 9.23200e-17 -1.80622e-17  9.14002e-17 
-3.25271e-17 -7.89723e-17 -4.96283e-17 
 3.94777e-17  2.94122e-17 -1.02036e-16 
-7.48152e-17  7.14035e-18 -6.10710e-17 
-7.52132e-19  4.37141e-18  1.15182e-17 
-7.46856e-18  2.49849e-18  3.85962e-17 
-8.43855e-19 -2.82991e-17 -2.00290e-17 
-8.20684e-18 -6.14310e-18 -3.51999e-18 
       00001        00001        00001 
 1.00000e+00  1.00000e+00  1.00000e+00 
 1.00000e+00        00001        00001 
 1.00000e+00        00001        00001 
-2.29962e-17 -2.71279e-17 -1.08549e-17 
 3.19001e-17  2.69598e-17  4.96445e-17 
 1.00000e+00        00001        00001 
 1.00000e+00  1.00000e+00        00001 
 4.45213e-18  1.53872e-19  5.17143e-18 
 1.17158e-17  6.51343e-18  1.03855e-17 
 5.39476e-19  3.12332e-18  4.87258e-18 
       00001        00001  1.00000e+00 
 1.00000e+00  1.00000e+00        00001 
-7.66955e-18  1.96162e-17 -1.66905e-17 
-1.41500e-17 -5.09694e-17 -4.98613e-17 
 3.91639e-17  8.21362e-17 -2.14500e-17 
-1.79355e-17 -1.11806e-16 -4.32327e-17 
-7.53489e-18  1.57673e-18 -9.34011e-19 
 5.03018e-17 -1.90206e-17  6.38057e-18 
       00001  1.00000e+00  1.00000e+00 
       00001        00001  1.00000e+00 
 6.26528e-19 -6.50144e-18  2.88437e-18 
 1.07254e-17  2.54135e-17  1.62281e-17 
 3.25174e-18 -2.26391e-17 -3.36102e-17 
-1.15064e-16 -4.07896e-17 -5.14874e-17 
-2.28531e-17 -4.60745e-18 -3.75264e-18 
 9.43703e-18  2.12117e-17  2.03340e-17 
 6.55437e-17 -1.55947e-17 -1.74604e-17 
-1.65815e-18 -8.42723e-19 -2.62262e-19 
-1.05635e-17 -4.15675e-18 -1.47056e-17 
 1.83065e-16  4.32046e-17  2.16279e-17 
 3.76555e-17  5.83974e-17  7.22393e-17 
 7.34662e-18 -1.22395e-17 -1.01058e-17 
-2.70083e-18 -8.24930e-18  7.19834e-18 
 7.29852e-17 -2.82454e-17  8.43114e-17 
 1.00000e+00  1.00000e+00  1.00000e+00 
       00001        00001        00001 
 3.58170e-18  7.12603e-18  5.86671e-18 
 2.29627e-17  1.61362e-17  2.70626e-17 
-1.12798e-17 -6.20573e-18  2.14452e-17 
 5.14477e-17  2.39125e-17  1.30494e-17 
 4.48205e-18  1.23935e-18  1.56487e-17 
-2.07503e-18  6.15128e-18  4.78403e-18 
-8.48721e-18  8.14286e-18 -1.26646e-17 
 2.39682e-18  1.90141e-18  1.57310e-18 
-3.32441e-18 -3.96688e-18 -3.03152e-18 
 4.39158e-17 -2.00234e-17 -3.36557e-17 
-7.18068e-17 -1.01806e-16 -2.63896e-17 
-3.62036e-19 -3.33096e-19 -7.86673e-19 
 5.34815e-18  1.17169e-17  9.38848e-18 
-9.24056e-18 -9.54779e-18 -1.60348e-17 
 1.00000e+00  1.00000e+00  1.00000e+00 
 1.00000e+00  1.00000e+00  1.00000e+00 
 2.20522e-17  1.46041e-18 -1.21344e-17 
 2.63722e-17 -3.71107e-18  3.40180e-17 
-3.11792e-17  5.22700e-17  2.85245e-17 
 1.00000e+00  1.00000e+00  1.00000e+00 
-4.39562e-17  6.24906e-18 -5.41380e-17 
-3.60296e-17 -3.36029e-17 -8.66816e-17 
 3.26816e-17 -3.98441e-17  1.46217e-17 
 1.00000e+00        00001        00001 
 1.00000e+00  1.00000e+00  1.00000e+00 
 1.00000e+00        00001  1.00000e+00 
 1.00000e+00        00001  1.00000e+00 
-3.09674e-17 -2.51304e-17 -2.17425e-17 
-2.28769e-17 -6.69929e-18 -4.03222e-17 
 8.09329e-18  3.05626e-17 -3.02432e-18 
-2.25671e-17 -1.09128e-17 -6.33175e-17 
 8.55696e-18  6.26773e-18  3.86312e-18 
-6.57937e-18 -3.86236e-18 -7.03779e-19 
-7.00311e-17 -1.67464e-17 -1.24806e-16 
-9.97799e-17  1.21075e-17 -6.79737e-18 
-7.20118e-17 -6.26324e-17 -7.15754e-18 
       00001  1.00000e+00        00001 
 1.00000e+00  1.00000e+00  1.00000e+00 
 2.27968e-17  1.93670e-17 -2.07784e-18 
 3.13101e-18  1.73629e-17  9.32574e-18 
-7.21824e-17 -6.09308e-17 -8.95411e-17 
 5.26608e-17  1.68547e-17 -4.44170e-18 
 3.94226e-19  1.37919e-19 -5.98579e-19 
-3.18550e-17  5.24298e-17  1.97637e-17 
-3.77887e-18  3.84839e-17 -2.75503e-17 
-1.17997e-17 -5.71598e-17 -2.46202e-17 
-3.77351e-17 -3.61519e-17  1.51711e-18 
-2.61997e-18 -2.01104e-17 -2.27255e-17 
 1.08575e-16  1.00016e-17  6.91665e-17 
 4.01337e-17 -6.32001e-18 -1.38071e-17 
 1.87457e-17  1.24561e-17  7.25324e-18 
       00001  1.00000e+00  1.00000e+00 
       00001  1.00000e+00  1.00000e+00 
 1.50717e-18  1.31161e-17  2.19276e-17 
 9.96195e-17  7.31836e-17  1.07346e-16 
 1.22685e-16  4.05248e-17  1.77354e-16 
 2.37280e-18 -1.19874e-17 -4.18933e-18 
 9.83788e-18  1.32567e-17  8.04325e-17 
-3.18502e-17  1.48652e-18 -1.48774e-17 
 1.00000e+00  1.00000e+00        00001 
 1.00000e+00  1.00000e+00  1.00000e+00 
 5.37839e-17  9.13032e-18  2.02297e-18 
 7.18102e-17 -3.49581e-20  5.64147e-17 
-2.48430e-17 -9.41788e-17 -5.81053e-17 
 5.88747e-17  3.58722e-17  1.96489e-16 
 5.28006e-18 -3.02871e-18 -6.97034e-17 
-3.10242e-17  9.41865e-17  1.52866e-17 
-1.33745e-18 -9.77333e-20  1.11686e-18 
-1.16338e-16  1.08415e-16 -3.81531e-17 
-5.44905e-17 -9.44172e-17 -1.10866e-16 
 3.74744e-17 -4.86710e-17 -1.23456e-17 
 1.49894e-18  1.72280e-17  7.08475e-17 
 7.80304e-18  6.50166e-18  8.53513e-18 
-5.65004e-17 -6.48342e-17 -5.36827e-17 
-2.54178e-17 -4.84743e-17 -2.94515e-17 
-2.74718e-17 -1.92237e-17 -2.81278e-17 
-9.84411e-18 -1.68176e-17 -1.75779e-17 
 2.42702e-17  3.76159e-18 -4.05239e-17 
-5.95148e-17 -7.70686e-17 -7.51778e-17 
 1.00000e+00  1.00000e+00        00001 
 1.00000e+00  1.00000e+00        00001 
       00001  1.00000e+00  1.00000e+00 
 1.00000e+00  1.00000e+00  1.00000e+00 
       00001  1.00000e+00  1.00000e+00 
 1.00000e+00  1.00000e+00        00001 
 1.00000e+00  1.00000e+00        00001 
       00001  1.00000e+00  1.00000e+00 
-5.84617e-17 -9.95514e-18 -6.72904e-17 
-1.18355e-17  5.59964e-17  6.13205e-17 
 1.00000e+00  1.00000e+00        00001 
 1.00000e+00  1.00000e+00        00001 
 9.59055e-17 -1.83097e-16 -2.11189e-16 
-7.24209e-17 -2.51359e-16 -4.29956e-16 
 1.00000e+00  1.00000e+00  1.00000e+00 
       00001        00001  1.00000e+00 
       00001        00001        00001 
       00001        00001        00001 
 1.00000e+00  1.00000e+00  1.00000e+00 
 1.00000e+00        00001  1.00000e+00 
 5.80508e-17  4.05181e-17  4.93911e-17 
-1.54630e-16 -1.19990e-16 -1.61243e-16 
 1.93539e-17  1.14675e-17 -7.63195e-18 
 3.42539e-18  3.17834e-18  6.29004e-19 
-4.49088e-17  1.82689e-16  1.64242e-16 
 2.12191e-19  9.97449e-17  4.17885e-17 
-1.31091e-18 -7.82736e-18  2.42850e-17 
 1.00000e+00  1.00000e+00  1.00000e+00 
       00001  1.00000e+00  1.00000e+00 
 5.94969e-17  1.55855e-16  1.04936e-16 
 1.00000e+00  1.00000e+00  1.00000e+00 
 1.00000e+00  1.00000e+00  1.00000e+00 
 1.00057e-17 -1.25064e-17 -1.04422e-17 
 2.57097e-17 -2.50426e-18 -5.62838e-18 
 1.00000e+00  1.00000e+00        00001 
       00001  1.00000e+00        00001 
-2.79182e-16 -1.78623e-16 -2.47454e-16 
-2.02712e-16 -1.35088e-16 -8.35684e-17 
       00001        00001  1.00000e+00 
       00001        00001        00001 
 9.73483e-19 -1.63714e-18 -1.97955e-18 
 1.07684e-16  1.08442e-16  1.77946e-16 
 6.98103e-17 -2.36306e-17  6.64604e-17 
-7.64261e-17 -2.04910e-17 -6.05998e-17 
 5.84563e-17 -1.87564e-17  9.68603e-18 
 4.91502e-17  3.70232e-17  2.29263e-17 
 2.03702e-19 -5.30145e-19  9.77058e-19 
 2.70064e-17 -2.51599e-17 -6.89791e-18 
 1.00000e+00  1.00000e+00  1.00000e+00 
 1.00000e+00  1.00000e+00        00001 
       00001  1.00000e+00  1.00000e+00 
 1.00000e+00  1.00000e+00  1.00000e+00 
-1.04825e-17 -9.79708e-18 -3.74100e-18 
 1.00000e+00        00001  1.00000e+00 
 1.00000e+00  1.00000e+00        00001 
 1.00000e+00  1.00000e+00  1.00000e+00 
 1.00000e+00  1.00000e+00  1.00000e+00 
-7.67542e-17 -4.57583e-17 -6.25123e-17 
 1.11559e-17  1.19648e-17  1.31421e-17 
 4.70463e-17  9.41468e-17  4.79149e-17 
       00001        00001  1.00000e+00 
 1.00000e+00  1.00000e+00  1.00000e+00 
 1.61223e-17  6.16043e-17  2.23172e-17 
-3.55266e-17 -1.32765e-17  8.18929e-18 
 1.59576e-18 -3.13920e-18 -2.97138e-18 
 1.00000e+00  1.00000e+00  1.00000e+00 
 1.00000e+00        00001        00001 
-1.23178e-16 -9.03414e-17 -6.23752e-17 
 4.68602e-17  4.09365e-17  8.24628e-18 
-1.44998e-18 -1.68157e-18  5.98202e-19 
-6.45559e-17 -3.82362e-17  1.07541e-17 
-3.37501e-17 -3.91796e-18 -3.80645e-17 
 1.00000e+00        00001  1.00000e+00 
       00001  1.00000e+00  1.00000e+00 
-3.10276e-17 -5.51058e-17  1.72419e-17 
       00001        00001        00001 
       00001        00001  1.00000e+00 
 1.74542e-17  5.25041e-18 -5.78146e-18 
-2.08498e-16 -1.63067e-16 -1.23361e-16 
 1.00000e+00  1.00000e+00  1.00000e+00 
 1.00000e+00  1.00000e+00  1.00000e+00 
 1.00000e+00  1.00000e+00  1.00000e+00 
 1.00000e+00  1.00000e+00  1.00000e+00 
 6.59546e-18 -9.18688e-21  5.85940e-18 
 1.00000e+00  1.00000e+00        00001 
 1.00000e+00        00001  1.00000e+00 
       00001  1.00000e+00        00001 
 1.00000e+00  1.00000e+00  1.00000e+00 
-8.74602e-17 -3.15863e-17 -9.45228e-17 
 8.91156e-17  9.41346e-17  1.24793e-16 
 1.00733e-17  2.81900e-17 -5.22330e-18 
-1.48478e-17 -1.28456e-17 -1.81928e-17 
-5.10093e-17 -1.13784e-16 -5.58647e-17 
 1.59024e-18  2.09902e-17  1.33533e-16 
 3.59139e-17 -1.04506e-17  2.21626e-17 
 8.80093e-18 -9.45513e-18  6.46027e-18 
 1.00000e+00        00001  1.00000e+00 
 1.00000e+00  1.00000e+00  1.00000e+00 
-4.87517e-17  3.52028e-17 -9.42198e-19 
-3.78444e-18 -2.69685e-18  9.52247e-20 
 1.30708e-17  5.04750e-18  9.24371e-18 
 1.00000e+00  1.00000e+00  1.00000e+00 
 1.00000e+00  1.00000e+00  1.00000e+00 
 5.30765e-17  3.44612e-17  4.76419e-17 
-1.52678e-16 -8.26055e-17 -5.52787e-17 
 9.61693e-18  1.04831e-17  1.07463e-17 
 2.37655e-17  4.02790e-19  1.94094e-17 
-2.49769e-17  1.60714e-17  3.35009e-18 
 1.00000e+00  1.00000e+00  1.00000e+00 
 1.00000e+00        00001        00001 
 1.00000e+00        00001        00001 
 4.94226e-17  6.89033e-17  8.28492e-17 
-9.85721e-18 -3.75948e-17  1.61495e-17 
-1.95008e-18 -8.18365e-19  1.00237e-18 
 1.52336e-17  9.60444e-17  3.81528e-17 
-2.64574e-18 -6.48598e-18  6.23780e-18 
-2.65110e-17 -3.00464e-17 -1.38902e-17 
 1.00000e+00  1.00000e+00  1.00000e+00 
 1.00000e+00  1.00000e+00  1.00000e+00 
-1.68562e-16  3.33764e-17 -9.00350e-17 
-5.35358e-18 -2.70855e-18  2.10727e-19 
 1.25856e-18  9.81330e-19  3.56411e-19 
 1.00000e+00  1.00000e+00  1.00000e+00 
 1.00000e+00  1.00000e+00  1.00000e+00 
 2.24568e-17  7.43683e-17  1.43483e-17 
       00001  1.00000e+00        00001 
       00001        00001  1.00000e+00 
 1.00000e+00  1.00000e+00  1.00000e+00 
       00001  1.00000e+00  1.00000e+00 
 1.00000e+00  1.00000e+00        00001 
       00001  1.00000e+00  1.00000e+00 
-6.06397e-18 -2.49752e-18  2.36692e-18 
 1.00000e+00        00001  1.00000e+00 
 1.00000e+00        00001  1.00000e+00 
-1.27254e-17 -4.86142e-18 -3.71049e-18 
-7.76565e-17  4.55196e-17  1.31611e-17 
 1.00000e+00        00001        00001 
 1.00000e+00  1.00000e+00        00001 
-4.06214e-17  4.57943e-17  4.28178e-17 
 1.96042e-17  2.25322e-17  2.86454e-17 
-3.93704e-17 -1.81069e-17 -1.17585e-17 
       00001        00001        00001 
       00001  1.00000e+00  1.00000e+00 
 3.31357e-18  1.40671e-18 -5.99863e-19 
       00001        00001        00001 
 1.00000e+00  1.00000e+00  1.00000e+00 
-1.02308e-18 -1.18339e-18 -1.53602e-18 
 1.32323e-16  1.10988e-16  5.05976e-17 
 7.60374e-17  3.47876e-17  9.96725e-17 
-1.20205e-17 -1.09427e-17 -2.02639e-18 
       00001  1.00000e+00  1.00000e+00 
 1.00000e+00  1.00000e+00  1.00000e+00 
-4.69725e-18 -2.99753e-18 -2.82243e-19 
 2.33175e-17  1.14767e-17  2.10137e-17 
-7.45743e-18  7.29628e-18 -1.51019e-18 
 3.64224e-17 -9.56953e-17 -8.97115e-18 
 2.37476e-18  1.56551e-18  9.52782e-20 
-5.21640e-18 -1.97948e-18 -5.95813e-18 
 2.03393e-17  8.36521e-18  1.64886e-17 
 8.55938e-18  4.84901e-18 -1.51965e-17 
       00001  1.00000e+00        00001 
 1.00000e+00  1.00000e+00  1.00000e+00 
 3.29326e-18  6.59097e-18 -9.26403e-18 
 1.00000e+00  1.00000e+00  1.00000e+00 
 1.00000e+00  1.00000e+00  1.00000e+00 
 6.31589e-18  8.39067e-17  4.70326e-17 
-3.14162e-17 -1.98315e-17 -1.32735e-16 
-8.66828e-19  1.15724e-17  3.75025e-18 
 1.00000e+00  1.00000e+00  1.00000e+00 
       00001  1.00000e+00        00001 
 1.00000e+00        00001  1.00000e+00 
       00001        00001        00001 
 1.00000e+00        00001  1.00000e+00 
 1.00000e+00  1.00000e+00  1.00000e+00 
-8.57908e-17 -3.69518e-17 -1.93494e-17 
 1.00000e+00  1.00000e+00  1.00000e+00 
       00001  1.00000e+00        00001 
 1.00000e+00  1.00000e+00  1.00000e+00 
 1.00000e+00  1.00000e+00        00001 
-9.45258e-17 -6.22765e-17 -9.15536e-17 
       00001  1.00000e+00  1.00000e+00 
 1.00000e+00  1.00000e+00  1.00000e+00 
 9.28497e-17  5.63570e-17 -4.31848e-17 