<?xml version="1.0" encoding="utf-8"?>
<VTKFile byte_order="LittleEndian" type="UnstructuredGrid" version="0.1">
   <UnstructuredGrid>
      <Piece NumberOfCells="55646" NumberOfPoints="15783">
         <Points>
            <DataArray Name="Points" NumberOfComponents="3" format="ascii" type="Float32">
0.0000 95.5430 -95.3100
0.0000 85.5430 -95.3100
0.0000 95.5430 -85.3100
10.0000 95.5430 -95.3100
10.2890 82.2350 -95.3100
0.0000 80.5430 -86.6490
10.2230 95.5430 -81.1430
9.9549 83.2540 -84.9000
0.0000 95.5430 -75.3100
0.0000 75.5430 -95.3100
20.0000 95.5430 -95.3100
13.8010 88.9430 -81.7970
13.8730 80.4880 -89.7640
0.0000 83.4570 -77.2000
20.0000 86.0940 -95.3100
20.0000 95.5430 -85.3100
5.8726 77.5540 -82.3980
20.0000 86.1830 -85.0730
11.7330 73.3550 -95.3100
13.3730 83.3810 -77.5190
11.9480 75.1490 -85.9630
20.0000 81.0090 -86.7890
8.9842 85.6980 -72.5410
0.0000 73.4850 -80.3100
20.0000 77.3360 -95.3100
11.3400 95.5430 -70.3100
20.0000 81.4710 -82.3320
20.0000 85.9710 -78.7120
13.6160 76.7630 -79.8800
20.0000 95.5430 -75.3100
20.0000 76.3070 -87.8850
20.0000 78.2020 -83.2960
6.2488 75.3140 -75.3100
9.0280 71.8810 -80.5940
13.5860 70.0980 -89.8800
20.0000 81.1430 -78.6300
0.0000 84.3160 -67.5490
0.0000 65.5430 -95.3100
0.0000 95.5430 -65.3100
20.0000 73.0560 -91.4580
20.0000 78.4510 -80.1660
20.0000 75.2010 -83.7200
20.0000 82.5180 -75.3370
20.0000 73.0420 -86.7370
20.0000 90.8880 -71.6630
20.0000 76.0910 -80.9710
12.9840 89.0100 -67.2980
16.4350 74.5150 -78.0210
20.0000 78.2240 -77.5880
10.3190 67.0010 -85.0560
14.1040 76.7250 -73.3870
0.0000 64.8250 -85.3100
12.4420 65.7170 -95.3100
20.0000 76.3380 -78.6710
20.0000 84.8720 -71.9610
20.0000 69.3750 -95.3100
20.0000 79.1400 -74.7270
8.0751 78.7410 -67.7610
17.9370 74.9790 -76.1770
0.0000 73.4850 -70.3100
20.0000 76.2020 -76.7900
20.0000 69.3560 -88.5240
17.0710 76.0790 -73.7710
20.0000 80.7770 -72.3790
20.3920 75.1480 -77.3900
20.9150 73.7600 -78.8060
20.0000 76.7930 -74.2990
20.0000 75.7910 -75.2000
21.2270 70.5120 -84.0860
20.3410 75.0490 -75.8810
20.0000 77.9300 -72.6710
16.8410 77.3570 -70.3000
17.8220 73.3440 -74.3930
8.1935 66.3220 -76.8790
5.6940 63.0310 -82.1950
20.0000 86.7240 -67.3110
20.0000 75.2030 -73.9120
20.0000 82.0230 -69.0300
21.9300 71.7160 -80.2170
20.8720 73.7670 -76.0990
16.7120 74.2850 -71.8580
20.0000 75.9570 -72.8920
19.2960 73.8630 -74.0570
9.4351 85.0160 -62.2070
16.1490 66.6240 -81.0840
20.0000 95.5430 -65.3100
14.6750 70.7860 -73.3140
20.0000 76.6680 -71.3580
20.0000 78.5740 -69.9630
18.1270 70.6690 -75.6410
20.4100 74.0620 -73.8800
20.0000 74.5450 -72.8950
0.0000 64.8250 -75.3100
21.7390 72.3500 -76.8540
12.7780 61.5800 -89.2950
11.3400 95.5430 -60.3100
18.7480 72.9870 -72.9420
20.0000 65.1620 -88.8240
20.0000 75.0410 -71.8180
20.1720 74.0100 -72.8230
9.7664 70.4940 -69.6710
19.1630 73.3080 -72.0680
20.0000 73.8900 -72.1020
20.7890 72.8840 -73.4850
20.0000 76.2220 -69.7460
15.4720 74.4250 -68.0550
20.4260 73.1350 -72.5870
17.7140 74.1920 -69.4090
24.1310 70.8220 -79.4500
20.1750 73.2530 -71.9510
24.2370 69.0570 -82.4400
20.0000 73.2780 -71.4860
21.7520 65.4390 -86.0050
20.0000 73.6900 -70.8890
20.0000 74.5810 -70.0510
18.0670 71.4350 -71.3520
20.0000 83.5550 -64.2800
10.4780 58.1250 -95.3100
19.5230 72.3430 -71.0070
20.0000 79.0200 -66.3650
20.0000 72.7270 -71.0080
20.0000 62.1890 -95.3100
14.7640 78.5070 -63.5930
22.3810 71.1190 -74.8450
18.6440 72.1640 -70.3090
20.1150 72.4800 -71.0830
20.0000 74.7670 -68.9280
20.0000 76.4170 -67.6960
16.4310 70.4550 -70.2240
21.3980 71.3990 -73.1680
19.2700 71.8330 -70.7820
20.3130 72.1520 -71.2840
24.0590 70.9830 -76.4660
20.0000 72.8730 -70.3210
18.8400 72.9590 -69.3530
20.0000 72.2450 -70.6360
20.0000 73.4420 -69.4380
19.1510 70.4770 -71.4860
19.0290 68.7400 -73.3080
20.6540 71.5080 -71.5250
20.1000 71.9080 -70.6110
18.2670 70.1650 -70.8050
19.5770 71.4970 -70.4710
26.5980 69.5960 -81.1950
20.2040 71.7110 -70.6930
17.2400 72.1280 -68.1120
20.0000 71.8290 -70.3450
18.1630 69.2060 -71.5050
20.0000 72.0420 -69.9960
20.0000 72.5100 -69.5500
19.2730 70.7120 -70.6280
20.3060 71.4250 -70.7050
0.0000 55.5430 -95.3100
0.0000 95.5430 -55.3100
19.9200 70.9010 -70.8740
0.0000 84.3820 -56.8570
24.5400 65.7190 -84.5510
20.0000 89.6810 -61.0470
20.1020 71.4520 -70.3050
19.4190 71.3820 -69.7900
19.7620 71.2090 -70.2190
20.0000 71.4750 -70.1170
19.9330 70.3350 -71.1620
20.0000 74.8620 -67.2250
20.0000 73.5110 -68.2650
20.0000 72.6050 -69.0130
19.5190 70.8920 -70.1440
19.7840 70.4770 -70.7310
20.9740 70.6650 -71.4900
20.4560 70.9920 -70.7080
19.4220 70.1660 -70.7050
20.0000 71.5730 -69.7520
20.2060 71.1510 -70.3190
8.4478 57.4960 -84.8640
20.0500 70.7900 -70.5130
16.3690 67.9850 -70.6590
19.7180 70.6690 -70.2460
19.7630 70.4770 -70.4490
20.0000 71.1760 -69.9370
18.0830 70.4410 -69.2220
19.9600 70.8150 -70.2460
5.7886 80.6510 -58.1230
19.7710 70.9210 -69.9860
20.0610 71.1190 -70.0190
20.0000 71.8510 -69.2830
20.0510 70.4770 -70.5970
18.7600 70.2710 -69.7610
19.7510 70.6660 -70.1140
18.9350 71.1030 -69.0420
20.3090 70.8470 -70.3280
20.0000 60.9130 -88.3970
20.1350 70.9460 -70.0580
19.5630 70.4530 -70.0750
20.0000 70.5430 -70.3100
19.8880 69.9660 -70.8030
19.4270 70.8130 -69.5640
26.0340 70.8560 -76.2060
19.8770 70.8370 -69.8780
20.1000 70.5430 -70.3100
19.7060 69.4530 -71.1150
20.0000 70.5430 -70.1820
20.0540 70.1590 -70.6120
20.0000 70.4120 -70.3100
20.0000 71.3200 -69.4270
20.0320 70.9050 -69.8410
20.0000 70.9250 -69.7940
20.1000 70.5430 -70.1890
20.1000 70.4110 -70.3100
20.2070 70.7340 -70.0670
19.8380 70.6760 -69.8280
20.0860 70.7970 -69.8800
20.6670 70.4160 -70.7230
20.0000 70.5430 -70.0470
20.0000 70.2570 -70.3100
20.0000 70.3940 -70.1490
20.0000 70.9640 -69.5750
19.5260 69.9660 -70.1880
20.1000 70.5430 -70.0590
23.2690 69.8590 -73.7120
20.1000 70.2550 -70.3100
20.1000 70.3930 -70.1550
20.0000 76.2860 -65.3280
23.9370 70.0290 -74.1870
20.0000 70.5430 -69.9040
20.0000 71.8320 -68.6760
19.4320 69.4530 -70.5450
20.1400 70.6340 -69.8890
20.0000 70.4140 -69.9900
20.0450 70.6880 -69.7460
20.0000 70.7160 -69.6800
20.0000 70.0740 -70.3100
20.1000 70.5430 -69.9190
19.6410 70.2890 -69.7400
20.1000 70.3970 -69.9890
20.1000 70.0700 -70.3100
20.0000 70.5430 -69.7520
20.0000 70.2320 -70.0500
20.4480 70.3400 -70.2770
20.0000 71.3360 -68.9640
20.1000 70.5430 -69.7670
18.3920 67.7050 -71.4590
20.0000 70.3850 -69.8280
20.0000 70.9750 -69.2540
20.1000 70.2090 -70.0720
18.9670 69.3370 -70.0670
20.0000 69.8580 -70.3100
19.9480 68.2890 -71.9730
20.0000 70.5430 -69.5900
20.0000 70.7000 -69.4380
20.1350 70.4400 -69.7740
20.1000 69.8490 -70.3100
20.1000 70.3260 -69.8270
20.0000 70.4000 -69.6710
20.1790 70.3380 -69.7980
20.1000 70.3880 -69.6860
20.0000 69.9410 -70.0270
20.1000 69.9590 -70.0810
20.0820 69.4340 -70.5920
16.5990 71.7540 -66.0540
20.0000 69.6030 -70.3100
20.0000 70.1590 -69.7350
20.1320 70.2900 -69.6910
24.5810 70.0170 -74.2320
20.2920 70.1500 -69.8950
20.0000 70.3700 -69.4480
20.1000 69.5880 -70.3100
19.5500 68.9710 -70.5170
20.0000 70.9450 -68.8530
20.1000 70.0230 -69.8180
20.0130 69.1250 -70.6500
21.4320 69.5270 -71.4150
20.1000 70.2080 -69.5940
20.1390 68.7010 -71.1890
20.0000 70.6300 -69.0800
20.0000 72.1070 -67.7170
20.0000 69.5820 -70.0670
0.0000 73.4850 -60.3100
19.3060 68.5440 -70.5840
27.4360 66.9200 -83.4250
20.0000 71.2630 -68.4020
20.0000 69.3020 -70.3100
19.0980 70.2110 -68.7120
20.1000 69.7010 -69.9660
20.1460 70.0750 -69.6080
20.1000 69.2800 -70.3100
28.8010 70.6560 -78.8740
20.0000 69.7750 -69.6840
19.9910 68.7530 -70.7410
20.1000 69.9980 -69.4930
20.1990 69.9330 -69.6280
20.4740 68.9510 -70.8570
20.0400 68.9010 -70.5490
20.1000 69.7920 -69.6540
20.0000 70.0070 -69.3350
20.0000 70.2820 -69.0470
22.4740 69.1170 -72.3890
20.1410 69.8700 -69.5020
18.8000 68.2890 -70.1180
20.0000 68.9480 -70.3100
16.4800 64.6550 -72.7780
24.0210 67.0090 -76.7890
20.1000 69.2630 -69.9860
20.1000 68.9150 -70.3100
19.9480 68.2890 -70.8310
20.1000 69.7540 -69.3800
20.0000 69.1250 -69.9420
20.0000 70.5210 -68.5640
20.0000 69.3860 -69.6680
20.1000 69.4850 -69.6130
20.0370 68.4800 -70.6090
18.2130 68.6060 -69.0740
20.1610 69.5870 -69.4060
20.0000 69.5590 -69.2490
20.0000 68.5320 -70.3100
20.4350 69.3510 -69.7390
20.0000 69.8950 -68.8450
20.2440 69.4340 -69.4720
20.9690 69.0680 -70.4330
20.1000 68.4860 -70.3100
20.1000 69.4710 -69.2570
20.1000 69.1680 -69.5330
19.8030 67.1460 -71.4960
20.1590 69.3220 -69.2890
20.1000 68.7010 -69.8640
24.1800 67.8850 -74.7460
20.0000 72.6650 -66.1550
20.0000 70.7100 -67.7670
0.0000 56.1640 -80.3100
20.0000 68.5130 -69.9050
12.9820 80.2620 -58.1980
20.0000 68.9430 -69.3900
20.0000 68.0460 -70.3100
20.7350 64.4800 -75.5140
20.1000 69.1420 -69.1240
20.1000 68.8040 -69.4500
20.1000 67.9820 -70.3100
18.2050 59.8760 -81.4680
25.6060 69.6680 -73.5840
19.8030 67.1460 -70.8400
20.1810 68.9370 -69.1690
20.0000 69.9410 -68.0510
23.8290 68.6900 -72.6980
17.9100 69.4080 -67.0710
20.1000 68.2340 -69.7860
18.5540 65.6060 -71.5970
20.0000 69.3090 -68.5340
20.2740 68.7260 -69.2310
28.0790 70.7810 -75.0870
18.4210 66.7220 -69.9600
20.0000 67.4770 -70.3100
20.1000 68.7600 -68.9820
20.1000 68.3860 -69.3670
8.8963 74.4980 -59.3500
20.0000 71.0940 -66.6890
20.0000 68.2380 -69.3540
20.1000 67.3920 -70.3100
20.1730 68.5650 -69.0230
20.0000 67.7610 -69.7190
13.4470 88.6530 -55.3100
20.0290 66.7410 -70.7720
19.6810 66.4320 -70.8360
23.2040 68.0410 -72.0650
20.7340 65.4400 -72.9410
20.0000 68.6300 -68.6130
19.8480 65.8370 -71.5980
12.9950 63.5660 -69.8470
24.6450 61.9560 -85.0160
0.0000 64.8250 -65.3100
20.1000 68.3180 -68.8350
20.1000 67.7820 -69.3970
23.7190 67.2480 -73.3220
20.0000 70.0250 -67.0960
20.0000 66.8160 -70.3100
20.0000 73.6770 -64.1290
22.1290 59.9380 -85.6610
24.3910 68.4090 -72.4960
20.6790 67.9470 -69.5390
19.3720 64.1470 -73.0160
20.2070 68.0770 -68.9130
20.1000 66.7030 -70.3100
20.3660 67.9490 -69.1000
20.0000 69.0990 -67.6040
20.5270 66.3030 -70.9430
20.0000 66.9820 -69.7070
20.0430 65.9710 -70.8920
20.0000 71.6520 -65.1430
20.1000 67.8080 -68.6860
22.5190 67.2370 -71.2730
20.0000 76.3200 -61.8160
[...]
         <PointData>
            <DataArray Name="fValues" NumberOfComponents="3" format="ascii" type="Float64">
-1.82595e-22  9.77250e-23 -9.54062e-23 
 2.13546e-22 -1.48548e-22  1.44717e-22 
 3.85257e-23  8.41159e-24  2.82518e-24 
 1.13119e-22 -5.53141e-23  4.32702e-23 
-4.78534e-22  3.32294e-22 -2.97467e-22 
-3.97247e-22  1.35624e-22 -2.54241e-22 
-3.29604e-23  1.55480e-23 -2.46472e-23 
-2.24076e-22  8.57267e-23 -7.02763e-23 
-3.73499e-23  3.69052e-23 -5.48328e-23 
 6.37569e-23  5.83074e-22 -3.46445e-22 
-1.02761e-22  4.16072e-23 -5.18047e-24 
 1.28278e-22  2.09279e-24 -2.93011e-23 
-7.09503e-22  2.10553e-22 -5.51435e-23 
 2.31263e-22 -1.22642e-22  1.47264e-22 
 2.22718e-22 -4.96955e-23 -4.13588e-23 
-1.30315e-22  2.17951e-23  8.44952e-24 
-8.76053e-22  2.57512e-22 -3.89904e-22 
 4.46294e-23 -1.09298e-23  7.88264e-24 
-1.29877e-21  3.29774e-22 -1.64791e-21 
-6.94442e-22 -1.76196e-22  3.64320e-22 
 3.74095e-21 -2.34677e-21  2.48558e-21 
 3.07668e-22  1.18908e-23  3.89014e-23 
-5.48797e-23 -2.53992e-23  5.90309e-23 
 3.74517e-22  5.60391e-22 -3.14610e-22 
-1.70635e-22 -4.73291e-22  9.62238e-22 
 1.77026e-24 -2.62122e-24  3.37631e-24 
-7.98163e-22 -1.05156e-22  1.84343e-22 
 2.44578e-22  4.62436e-23 -9.45775e-23 
 4.36255e-21  5.03423e-22 -1.15963e-21 
-6.55839e-23 -1.85234e-23  3.64290e-23 
 1.51394e-21  4.72178e-22 -2.81406e-21 
-9.76252e-22 -6.80305e-22  1.19010e-21 
-5.31852e-22  3.75486e-22 -6.41462e-22 
 7.43282e-21 -1.98051e-21  3.22700e-21 
 2.61296e-21 -1.19755e-21  6.66631e-21 
-1.30434e-21 -1.05297e-22  3.17472e-22 
 3.67207e-23  5.84183e-24 -1.09897e-23 
 3.24985e-22 -3.64288e-22  1.58203e-22 
-7.05305e-25 -3.22302e-24  2.83819e-24 
 1.59861e-21  4.31045e-22 -3.09140e-21 
 8.50813e-21  9.16241e-22 -2.52105e-21 
-2.91069e-20  8.84648e-21 -9.38250e-21 
 1.31352e-22  2.92973e-23 -6.22750e-23 
-7.12744e-21 -2.18777e-21  2.04549e-20 
 3.20533e-23  2.26757e-23 -3.99541e-23 
 4.29086e-20  7.70493e-22  2.30529e-21 
 2.98663e-23  7.84923e-24 -1.71745e-23 
-9.82895e-20 -6.93523e-21  1.60411e-20 
 1.01522e-21  6.61378e-23 -2.80098e-22 
-1.89880e-21 -5.27650e-22  1.27727e-22 
 4.43680e-21  5.32333e-22 -1.33548e-21 
 6.85192e-22 -2.51257e-22  9.40079e-22 
 7.46953e-23  1.48339e-21  1.78708e-21 
 2.20501e-20  2.63358e-21 -9.14023e-21 
 2.76827e-22  5.42562e-23 -1.25190e-22 
 7.40792e-21  2.62206e-21  4.65556e-21 
-1.61758e-21 -1.24991e-22  3.18383e-22 
-2.99031e-22 -1.01497e-22  2.02819e-22 
 1.79506e-20 -6.43784e-22  5.46091e-21 
 4.58676e-22  2.82588e-23 -6.46128e-23 
-1.20765e-20  4.66661e-22 -1.64174e-21 
-5.20081e-20 -4.07975e-21  7.12404e-22 
 3.76362e-21  3.68015e-22 -1.37616e-21 
-9.77805e-22 -1.03271e-22  3.07397e-22 
 4.60689e-20  5.05943e-22  9.30057e-21 
-9.87943e-20 -8.92709e-21 -4.37663e-20 
 2.06459e-22 -4.84274e-22  8.95299e-22 
-3.20253e-21  2.85346e-21 -3.65353e-21 
-3.54075e-04  6.06598e-04 -6.91332e-04 
-2.25869e-21 -1.11987e-20  2.60355e-21 
-6.90173e-22 -4.07822e-23  2.20312e-22 
-3.25951e-22 -1.12021e-23  5.54218e-23 
 1.18901e-20  2.52152e-21 -5.49379e-21 
-6.28340e-21 -2.99487e-21  3.04679e-21 
-2.46812e-21  1.37595e-22 -4.37950e-21 
-5.03993e-23 -1.24117e-23  2.64912e-23 
-1.74593e-21  6.25230e-22 -3.29262e-21 
 2.33641e-23 -5.13587e-24  6.92955e-24 
-1.04130e-03  7.25097e-04 -5.62087e-04 
-2.34480e-20  5.08705e-20 -3.76166e-20 
-3.28437e-22 -4.17966e-22  2.85174e-22 
-1.55955e-21 -2.23773e-22  7.52811e-22 
-1.58612e-20 -3.82636e-21  1.12012e-20 
 1.35041e-23  7.11470e-24 -1.33046e-23 
 2.74746e-20  2.36746e-20 -3.84858e-20 
-5.89293e-24 -3.48643e-24  6.67616e-24 
-2.66071e-21 -1.43115e-21  4.93655e-21 
-5.42442e-22  2.24936e-23  2.16544e-22 
 4.14519e-22  3.01515e-23 -1.17624e-22 
 7.20337e-20 -1.79311e-20  1.03174e-20 
 1.02734e-20 -5.16505e-21  6.27104e-21 
 2.20645e-21  3.20466e-22  1.41164e-21 
 3.78777e-22  3.68273e-22  6.88497e-22 
-6.05930e-04  3.51804e-04 -2.52726e-04 
 2.35009e-21  7.16517e-22 -6.38174e-22 
-8.40238e-24 -1.68800e-24  4.38516e-24 
 4.44838e-21  5.23852e-21 -3.14391e-20 
-1.80678e-20 -1.03900e-20 -3.20152e-20 
-8.72457e-22  1.26174e-22 -4.18847e-22 
 3.54614e-21 -9.48649e-23 -1.52685e-22 
 5.28663e-22  2.71726e-22 -5.22671e-22 
 1.11395e-21 -7.77582e-22  2.44357e-21 
-5.64926e-22  1.19476e-22 -9.12692e-22 
 2.62276e-20 -1.71334e-20 -2.79583e-20 
 1.99786e-23 -1.19109e-23 -3.08971e-23 
-5.96337e-22  1.08859e-23  1.10960e-22 
-5.67401e-21  2.77676e-21  1.48760e-20 
 5.45517e-22  3.87253e-24  5.84298e-23 
-2.82675e-03  1.56133e-03 -1.96482e-03 
-1.14154e-21  5.65634e-22 -3.99227e-21 
-3.57480e-03  6.37407e-04 -2.19859e-03 
-1.79058e-21  5.94164e-22  6.75355e-22 
-1.10205e-03  4.37423e-04 -2.05781e-03 
-9.27295e-22  2.98647e-22 -3.99382e-22 
 1.86229e-22 -8.07743e-23  1.35555e-22 
-1.84407e-20  3.02842e-21  6.26967e-21 
-4.31104e-23 -7.78269e-24  2.03076e-23 
-8.68078e-22 -8.20572e-22 -1.42653e-22 
 6.33156e-21 -1.73044e-21 -1.95512e-21 
 9.30858e-23 -6.45549e-24 -3.25089e-24 
-1.76773e-21  4.63590e-22  5.71350e-22 
 8.15708e-21  1.14513e-21  1.05997e-20 
 1.24409e-22  2.02405e-23 -5.78982e-23 
-1.01781e-03  3.56971e-04 -4.48255e-04 
 1.50112e-21 -1.86051e-22 -3.49812e-22 
-2.01154e-21  9.43838e-22  5.58262e-22 
-3.44199e-22  1.78642e-23  1.81150e-23 
 1.04739e-22 -1.93857e-24 -2.84244e-23 
 3.75753e-21 -9.62450e-23 -4.52779e-21 
-1.93110e-04  1.34279e-04 -5.94259e-06 
 5.98737e-21 -4.67708e-22 -8.46202e-21 
 1.85435e-21 -2.58796e-21  2.13007e-21 
-2.48210e-03  1.26572e-03 -1.34552e-03 
-7.05934e-22  1.46020e-22  2.28296e-22 
-1.20912e-22 -5.85235e-24  3.16052e-23 
-2.77213e-21  4.83548e-22  2.00141e-21 
 3.34675e-22 -5.30071e-23  2.01206e-23 
-1.83970e-20  1.03569e-21  3.69588e-20 
 1.79072e-19 -9.66178e-21 -4.01978e-19 
-5.50710e-22  2.65858e-21 -2.72183e-21 
-1.29563e-21  5.63980e-23  9.71815e-22 
 9.53952e-21 -1.41032e-21 -1.39651e-20 
-2.01103e-21  1.81427e-22  2.52024e-21 
-6.04582e-03  1.31759e-03 -4.87231e-03 
-3.98346e-21  1.28862e-21  4.30338e-21 
-7.24356e-22  3.95330e-23  7.00046e-22 
-8.38586e-22  3.53965e-23  1.82277e-21 
-3.45280e-20  5.23325e-21  5.74898e-20 
-3.91478e-22  3.63939e-24  4.22036e-22 
-1.77714e-22  2.67540e-23  1.46612e-23 
 2.91032e-21 -2.50254e-22 -1.77821e-21 
-1.39473e-21  8.97353e-22  2.60240e-21 
 1.02411e-21 -3.93717e-22  1.27469e-21 
 8.61793e-25  2.52668e-25 -7.49387e-26 
 4.24882e-21 -1.04337e-21 -9.17881e-21 
-6.89986e-24 -2.94551e-24  4.60956e-24 
-4.45160e-03  2.40092e-04 -2.91426e-03 
 1.86843e-24 -4.69708e-25  1.82597e-25 
 1.77298e-21 -3.07752e-22 -2.32302e-21 
-2.51552e-22  1.25435e-23 -2.14232e-22 
-8.19859e-22  2.18908e-22  1.55918e-21 
 8.34783e-22 -6.91810e-23 -9.82022e-22 
-2.38444e-20  7.69825e-21  4.51240e-20 
 2.25715e-22  3.04888e-24 -1.84351e-22 
 6.67636e-23 -1.46176e-23 -1.83078e-22 
-5.49822e-23  1.67202e-23  3.33958e-23 
-6.11709e-23 -5.91081e-24 -1.07127e-22 
 7.86277e-21 -1.27394e-21 -1.41111e-20 
-8.67835e-21 -2.92420e-21  4.72577e-20 
 2.52390e-21 -1.66387e-21 -4.40839e-21 
 2.77510e-21 -7.02479e-22 -6.81557e-21 
 6.86218e-23  3.89967e-24  6.66453e-23 
 2.77817e-22 -1.55582e-22  3.22392e-22 
-2.46920e-21  1.80075e-21 -4.33847e-21 
-1.22684e-21  4.27423e-22  2.63406e-21 
-7.01639e-21  2.27516e-22  9.39493e-21 
-2.13092e-21  3.56795e-22  3.56411e-21 
-2.07367e-21  3.51026e-22  2.42675e-21 
 2.94222e-23 -5.03579e-24  1.08667e-22 
-1.28683e-21  1.00464e-23  2.85546e-21 
 8.14789e-22 -2.05345e-22 -1.71143e-21 
 5.84068e-23  2.10563e-23 -4.28496e-23 
-4.86361e-23  2.06506e-23  2.07904e-22 
 2.71473e-22 -6.64126e-23 -3.95689e-22 
 1.11713e-22 -7.42951e-24  1.37910e-22 
 7.94268e-22 -7.19978e-22 -2.96266e-21 
-2.27604e-21  3.75240e-22  2.73277e-21 
 1.20939e-22 -1.21131e-23 -2.04025e-22 
 2.46165e-22 -1.45697e-24 -5.85518e-22 
 6.93566e-22 -6.86542e-23 -1.05715e-21 
-4.87773e-20  4.37266e-21 -3.37333e-20 
-1.43706e-22  2.68852e-23 -5.32223e-23 
-3.41566e-23 -3.99655e-23  3.67762e-23 
 1.39166e-21 -2.34106e-22 -2.02908e-21 
-1.23142e-21 -1.81711e-21 -2.92309e-20 
 4.21198e-22 -7.12515e-23 -3.62544e-22 
-4.29855e-03  1.67196e-03 -2.95961e-03 
-3.66388e-23 -8.95253e-25 -1.93302e-23 
-2.81763e-21  9.98808e-22  5.59458e-21 
-1.42675e-20  5.78600e-21  3.35649e-20 
 2.92036e-22 -5.96995e-23 -5.36845e-22 
 9.40447e-22 -3.28547e-22  5.86215e-21 
 4.83918e-22  3.78871e-23 -1.26108e-22 
-7.89295e-23  1.42757e-23  2.37471e-22 
-3.34582e-23  8.38222e-24 -4.53440e-24 
 3.65761e-23 -1.16643e-23 -1.33361e-22 
 1.04146e-21 -3.34205e-22 -1.52395e-21 
 7.75278e-22 -5.28639e-23  2.87733e-22 
 2.23981e-23 -5.02820e-23 -2.32840e-22 
-1.58256e-22  3.60338e-23  1.80323e-22 
-1.10634e-24  1.74542e-24  6.42380e-23 
 7.89924e-21 -1.07392e-21 -1.26235e-20 
-8.65900e-23  1.67691e-23  1.53047e-22 
 6.05890e-22 -1.47605e-22 -2.23636e-21 
 8.10991e-22 -1.14938e-22 -9.02861e-22 
-1.75328e-23  1.01372e-23  6.81071e-23 
-9.22086e-22  4.99387e-22  3.51197e-21 
 1.34532e-22 -1.82751e-23  7.38305e-22 
-1.34415e-03  4.32962e-04 -6.56158e-04 
 5.59575e-23  1.74249e-22 -9.13997e-22 
 6.17455e-22 -1.31314e-22 -4.39849e-22 
 1.21181e-22  1.45535e-24 -3.12049e-23 
-1.92087e-03  8.34417e-04 -9.49675e-04 
 6.12556e-23 -1.37640e-23 -7.47706e-23 
-1.25474e-22  6.65119e-24  2.07911e-22 
 6.35414e-21 -2.59599e-21 -9.79911e-21 
 5.75662e-24  5.94518e-24 -1.10953e-22 
-1.56519e-22  4.88388e-23  3.14740e-22 
 2.78297e-23 -3.59618e-24 -1.16150e-23 
-6.16427e-23  5.95336e-24  4.08791e-23 
 2.25284e-25  3.14657e-22  4.51278e-21 
-3.39498e-23 -1.70802e-24 -1.44147e-22 
 4.71228e-22 -7.88892e-23 -6.70554e-22 
 3.15530e-22 -3.11928e-23  1.97165e-22 
 6.22505e-22 -1.62574e-22 -3.01317e-21 
 1.22107e-22 -2.13461e-23 -1.50361e-22 
-2.38363e-23 -8.23359e-23 -6.56568e-22 
-2.03780e-21  3.31058e-22  6.96179e-22 
-6.40580e-23  1.38487e-24  1.72270e-22 
-1.74650e-23  3.49088e-24  4.89706e-23 
-2.81667e-20  3.50745e-21  5.94789e-20 
-9.06769e-23  1.59227e-23  1.77119e-22 
-1.59888e-22  2.21178e-23  1.44630e-22 
 3.19581e-22 -4.45022e-23  1.34983e-21 
 1.20145e-21 -4.08593e-22 -1.87283e-21 
-9.89232e-22  9.23348e-22  8.14704e-21 
-6.18369e-20 -3.12164e-20  1.14138e-19 
-2.30813e-22  3.70550e-23  2.85596e-22 
-6.87778e-23  1.39028e-23  1.62532e-23 
 4.05041e-23 -1.34604e-23 -2.00580e-22 
-9.15166e-22  3.42882e-22  7.74600e-21 
-1.98972e-22  3.85767e-23  3.19229e-22 
-4.79559e-23 -4.78147e-24  1.72440e-23 
-1.47864e-22  3.54297e-23  5.35339e-22 
 4.35659e-23 -4.92443e-24  1.39904e-23 
 7.12689e-22 -3.74472e-22 -2.61670e-21 
 3.61592e-22 -7.90433e-23 -9.69162e-22 
-9.58352e-21  7.91889e-22 -7.12162e-21 
-1.05309e-22 -5.53686e-23  1.55596e-22 
 4.31566e-22  9.29193e-22  1.12573e-20 
-2.31803e-22  9.58097e-23  7.42961e-22 
 1.30940e-22 -2.91969e-23 -3.13647e-22 
-2.35838e-03  1.07497e-03 -1.24325e-03 
 3.49518e-22 -1.03006e-22 -2.48536e-21 
-1.64722e-22  2.72252e-23  1.30158e-22 
-1.87550e-21  3.79168e-22 -3.20185e-20 
-4.04518e-21 -2.08479e-22  6.29466e-21 
-8.22681e-23  1.96013e-24  1.94881e-22 
-1.71762e-22  4.34157e-23  4.36698e-22 
 2.27128e-21 -6.41970e-22  1.84185e-21 
-7.96439e-05  5.97294e-05 -3.10794e-05 
 1.20286e-23 -4.91981e-24 -7.04513e-23 
 9.90628e-21  7.58889e-21 -1.14114e-20 
-1.46768e-22  1.45647e-23  2.32470e-22 
 2.69076e-22 -1.63765e-23 -1.78608e-22 
-2.00621e-21  5.26149e-22  1.66250e-21 
-7.37526e-23 -1.35623e-23  4.18072e-23 
 2.60545e-20  3.70777e-21 -5.00313e-20 
-7.40967e-03  2.28800e-04 -6.05519e-03 
-1.23113e-22  3.41279e-24  2.10627e-22 
-7.54527e-22  8.05252e-22  2.19059e-21 
-2.39520e-24  5.17731e-24 -1.11153e-22 
 9.70494e-23 -2.06206e-24  2.34959e-21 
 1.19988e-22 -2.92220e-23 -3.07632e-22 
 1.09055e-21  1.05619e-21  1.65416e-20 
-8.18885e-03  1.45542e-03 -6.55739e-03 
-3.27065e-22  5.52561e-23  1.76565e-22 
-8.28116e-21 -4.04600e-21  1.23046e-20 
 9.98833e-23 -1.33200e-23  1.03481e-22 
 6.36681e-23  4.22554e-24  6.32621e-22 
 1.24674e-20 -6.75134e-21 -5.63745e-20 
 8.37218e-22  2.93901e-21  2.41592e-21 
-3.45602e-22  4.60329e-23 -3.12380e-22 
-7.78005e-23 -3.95218e-24  1.57888e-22 
-1.90326e-22  3.27240e-23  2.51117e-22 
-7.40136e-04  2.95010e-04 -4.40551e-04 
 8.94740e-23 -2.67370e-24 -1.19621e-22 
 9.38553e-21 -1.54701e-21 -1.68774e-20 
 2.45921e-21 -3.81652e-22 -5.94330e-21 
 8.95966e-21  4.75865e-22  3.50455e-20 
-2.62093e-03  3.59123e-04 -1.47773e-03 
-4.42317e-22 -3.48909e-22  1.04506e-21 
-1.01502e-21  1.09911e-21  6.38746e-21 
 3.58106e-20  3.63272e-21 -5.79391e-20 
 6.11716e-23 -2.75832e-23  3.68315e-22 
 5.55871e-22  4.62862e-22 -9.89063e-22 
 5.71831e-23 -6.22016e-24 -4.04818e-23 
 3.54640e-22 -1.50698e-22 -6.10959e-22 
-5.89089e-23  1.04936e-22 -1.38890e-21 
-1.17998e-20 -1.44967e-21  3.15195e-20 
 5.86241e-22 -3.27663e-23 -5.99205e-22 
 8.42360e-23 -3.60423e-23  3.62423e-22 
-4.94437e-23  5.40469e-23  7.00738e-23 
-1.51115e-21 -7.01674e-22  1.29557e-21 
 6.78835e-22 -8.79195e-23  1.71136e-21 
 6.51805e-23 -6.08589e-24 -7.12293e-23 
-3.49794e-23  1.06071e-24 -1.01672e-22 
-5.63044e-21 -4.51829e-23 -3.00161e-21 
-7.91852e-22 -5.48432e-22  1.85086e-20 
 6.10501e-23 -2.45817e-23  2.24128e-22 
-4.63783e-22  3.96629e-23  1.20067e-22 
-5.61747e-20  9.71882e-21  7.08611e-20 
 1.06365e-22 -4.01642e-23  3.65009e-22 
 2.07750e-21  3.00527e-22 -5.34520e-21 
-2.27773e-03  5.61353e-04 -1.19281e-03 
 1.68892e-22  3.94018e-24 -1.80677e-22 
-8.99456e-23 -1.25804e-24  2.11990e-22 
-1.20278e-21 -6.10851e-22  2.09553e-21 
-3.56811e-21  3.04240e-22  6.90104e-21 
 8.10204e-24  5.93854e-24 -9.19852e-24 
-2.25791e-21  3.88668e-22  3.81235e-21 
-1.26803e-20 -1.12005e-21  2.34272e-20 
-1.01431e-19 -7.31617e-20 -1.28284e-19 
 1.40204e-22  2.34228e-23 -2.27435e-22 
-4.88331e-22 -1.09619e-22  8.24229e-22 
 6.90008e-21  7.95441e-21 -5.85431e-20 
-2.83599e-20 -3.20276e-20  1.16186e-19 
-2.86592e-03  1.05222e-03 -1.98179e-03 
 1.44216e-21 -2.35895e-21 -3.36856e-21 
 3.08179e-22  1.61263e-23 -4.62341e-22 
-1.51159e-22  6.32474e-24  2.69608e-22 
-1.42501e-03  5.34284e-04 -7.51689e-04 
 1.21082e-21 -6.12529e-23 -1.49079e-21 
-1.03998e-21 -1.79010e-21  8.15212e-21 
-3.42495e-20 -2.26117e-21  7.88043e-20 
-9.32346e-24 -3.61479e-23  6.86531e-23 
-2.28303e-22  1.96970e-23  4.37859e-22 
-6.03321e-03  1.38000e-03 -4.72973e-03 
 5.28737e-21  3.24357e-23 -9.95435e-21 
-5.42830e-21  6.23882e-22  1.06560e-20 
 4.18537e-23 -6.98527e-24  2.57932e-22 
-1.73474e-22  2.79648e-22 -2.02544e-21 
 2.40224e-23 -1.58412e-23  9.09690e-24 
-5.00500e-23  1.81490e-23  8.54143e-23 
-1.69456e-21  3.29852e-22  3.01094e-21 
 1.37401e-20 -1.03190e-20  5.91752e-21 
 1.40562e-23  1.87388e-24  5.27887e-22 
-2.32938e-21  4.26200e-22  4.26926e-21 
-5.42515e-24 -2.42456e-24  4.65158e-24 
 1.34381e-20 -2.45632e-21 -6.74929e-21 
 2.43216e-20 -1.16670e-21 -4.08305e-20 
-9.74992e-04  3.46875e-04 -5.34230e-04 
 6.25177e-20 -1.59595e-20 -1.98440e-19 
 1.12893e-21 -1.16801e-22 -2.36825e-21 
-1.63568e-20 -5.33830e-21  9.78223e-21 
 4.44451e-21  3.48454e-22 -3.78211e-21 
-4.56921e-03 -3.89541e-04 -3.44111e-03 
-8.18592e-24 -1.51989e-22 -9.86498e-23 
 5.84519e-22 -2.47337e-22 -5.47478e-22 
-2.72136e-21  9.63972e-22  3.92687e-21 
-1.64536e-03  4.32120e-04 -8.37356e-04 
-3.86176e-22  1.14928e-23  5.54668e-22 
-7.80716e-21  9.51033e-22  1.20665e-20 
-4.09082e-23  1.68456e-23 -5.43939e-24 
-1.20618e-03 -3.76059e-04 -2.43439e-03 
-1.66755e-03  5.77314e-04 -1.00133e-03 
-2.46145e-22 -5.72792e-22  4.75497e-21 
-2.27521e-20  3.34923e-20  5.31317e-20 
 5.35990e-22 -2.74757e-22  1.95621e-22 
 5.38144e-21 -2.26024e-21  7.94127e-21 
 7.89175e-22 -2.12455e-22 -2.34347e-21 
-4.68091e-22  4.24249e-23  2.96643e-22 
-2.65831e-20  9.25554e-21 -1.12916e-20 
-2.83582e-22 -1.68330e-22 -1.21520e-22 
-1.09163e-20  1.01554e-21 -1.58739e-20 
 6.19832e-23  1.32096e-23 -8.48104e-23 
 7.41023e-22 -2.41479e-22 -1.56169e-21 
-3.61490e-04  1.59035e-04 -2.00576e-04 
-3.89468e-23 -3.02104e-24  1.17500e-23 
-3.23878e-21  2.56307e-22  5.57185e-21 
-6.90771e-03 -9.63754e-04 -5.35080e-03 
 6.46191e-22 -1.37501e-22 -1.04348e-21 
-4.80539e-22  5.47571e-22 -9.38290e-21 
 1.14501e-20  7.64143e-22 -6.79902e-21 
 6.99702e-22  2.84365e-24 -1.39920e-22 
-1.04035e-21  1.02120e-21 -3.46652e-21 
-1.52824e-04  1.02338e-04 -1.06516e-04 
-1.16474e-02  6.50096e-04 -9.76183e-03 
-1.96575e-21 -5.51892e-21 -2.33040e-20 
 6.71708e-20  1.00589e-20 -2.36665e-20 
 5.41619e-21 -4.90478e-22  8.52615e-21 
-2.81225e-05  4.89518e-05 -4.16927e-05 
 1.53521e-19  3.77246e-21  4.85357e-20 
-1.08547e-03  3.42344e-04 -6.33362e-04 
-2.70972e-22  2.57484e-23  3.24801e-22 
 7.47556e-22 -3.62685e-22 -1.32608e-22 
-1.46592e-03  1.60585e-04 -7.59428e-04 
-1.15980e-21  1.53619e-22  6.06814e-22 
-1.14771e-22  4.23767e-22  6.42160e-22 
 7.14618e-22 -5.58681e-22 -4.31003e-22 
-8.54795e-22 -1.24297e-23  2.63038e-21 
 6.26146e-21  1.26040e-21 -1.03002e-20 
-2.32322e-22  1.79286e-23 -4.95317e-24 
-1.09104e-21 -7.04289e-23  3.08116e-21 
-6.20952e-04  1.39950e-04 -2.99063e-04 
-4.36931e-21  1.07971e-21 -7.29668e-21 
-7.12014e-23 -7.44181e-23 -1.36272e-21 
-2.61056e-20  4.39960e-21  1.71592e-20 
-4.16504e-20  5.93846e-23 -3.29337e-20 
-2.07728e-19  2.62832e-21 -8.70425e-21 
-3.97572e-21  1.33807e-22  2.00472e-21 
-1.74579e-21 -2.61111e-22  5.95050e-21 
 5.49900e-22 -1.87520e-22  2.28402e-21 
 1.25355e-21 -7.85660e-21  6.01699e-21 
-1.20327e-03  2.82153e-04 -8.17690e-04 
 1.64587e-20 -1.33169e-21 -1.90352e-20 
 1.71148e-21 -6.55302e-22  2.50519e-21 
 5.78730e-21 -8.97070e-22  3.25669e-21 
-1.60655e-03  3.16663e-04 -1.24409e-03 
 3.36086e-24  1.40396e-24 -2.79686e-24 
 1.16275e-21  1.10774e-21 -3.11191e-21 
-9.16461e-21  7.15695e-22  4.71879e-21 
-1.14211e-02  1.58524e-03 -1.03484e-02 
 9.74647e-22 -4.51457e-22  3.71974e-21 
 4.57211e-22  1.55282e-23 -1.54918e-21 
 1.18530e-21 -5.90128e-22  1.33423e-21 
-1.12792e-19  1.96186e-20 -1.14962e-19 
 7.39641e-21 -4.18532e-21 -2.95115e-21 
-5.52984e-23  2.07550e-23  1.27298e-22 
-1.68565e-20  7.22270e-21 -6.09218e-21 
-2.16748e-03 -2.93005e-04 -1.27095e-03 
-7.90765e-22  2.90695e-22  3.23530e-21 
 9.93432e-23  9.71851e-24 -1.11018e-22 
-8.18239e-04  6.34472e-05 -5.06959e-04 
-1.11354e-03 -4.41276e-05 -5.66234e-04 
-3.09937e-04 -4.74020e-05  7.67193e-06 
 5.34354e-21 -3.49910e-21 -1.08013e-21 
-1.99913e-22 -2.63512e-23  1.76433e-21 
 3.08665e-24 -5.29346e-23 -9.81806e-23 
-1.87512e-22 -9.24855e-24  1.19530e-22 
-2.31364e-22 -3.94696e-23  2.54075e-22 
 7.92465e-21 -4.85566e-20  5.22265e-22 
-7.21179e-22 -3.19334e-22  9.96927e-23 
-5.79952e-04  2.65900e-05 -2.41609e-04 
-1.04083e-03  3.57854e-05 -7.60217e-04 
-1.49538e-21  1.20132e-21  7.21984e-21 
-2.29853e-21  1.59566e-21  1.63246e-21 
-1.70348e-22  2.96766e-23  3.88933e-22 
-3.71309e-03 -9.82941e-04 -2.83392e-03 
-2.25236e-21  9.87170e-22  2.71393e-21 
-3.39725e-04 -4.32744e-06 -1.39812e-04 
-4.03358e-20  8.68237e-21 -7.91210e-21 
 9.15725e-21 -5.65069e-21  4.25622e-21 
-4.37702e-21  7.30735e-21 -2.88095e-20 
 1.46495e-21 -2.99655e-22  5.27783e-22 
-6.76835e-03 -1.70930e-03 -5.16076e-03 
-5.56116e-25 -1.62978e-24  1.56365e-24 
 8.05784e-22 -3.53610e-22  7.11546e-22 
-1.98064e-03 -7.86808e-04 -8.53075e-04 
 4.03038e-21  8.49271e-21 -4.89464e-21 
-6.45998e-21 -1.77334e-22 -1.60276e-21 
-1.49972e-21  1.86549e-21 -1.37170e-21 
-1.39066e-03 -5.52019e-04 -6.59644e-04 
 5.28951e-20 -1.13813e-20  3.32041e-20 
-8.30917e-21  1.23164e-21  5.74664e-22 
-1.27878e-19  5.03700e-21 -2.23285e-20 
 7.23320e-25  2.46877e-25 -6.22727e-25 
-1.33667e-03 -2.60415e-04 -7.45561e-04 
-2.39944e-03  1.38740e-04 -2.34336e-03 
-9.43970e-24 -1.65097e-24 -3.36514e-23 
-7.31382e-04 -1.03103e-04 -4.64579e-04 
 2.29335e-19 -6.46551e-20  2.53877e-19 
 3.68088e-20 -3.34552e-22  4.03320e-21 
 2.10643e-21 -1.17373e-21  7.53624e-21 
-3.68351e-22  5.57081e-23  1.44956e-22 
 1.08617e-19 -2.20732e-20  4.90630e-21 
-4.96752e-04 -1.09665e-04 -2.29259e-04 
-1.34467e-03 -4.83249e-04 -5.26587e-04 
 1.94319e-21  1.29953e-22 -6.87425e-22 
 2.87407e-20  7.15295e-21  3.15057e-21 
-5.94383e-24 -8.58958e-25  2.55828e-24 
-9.00956e-04 -1.94455e-04 -6.49571e-04 
 6.93274e-21  2.03234e-22  2.31079e-23 
 1.14258e-20 -3.33361e-21  2.99017e-21 
-1.27105e-03 -2.16800e-04 -1.07630e-03 
-1.03699e-19  4.66862e-20 -8.28120e-20 
-6.81242e-05 -6.51044e-05 -4.31339e-05 