<?xml version="1.0" encoding="utf-8"?>
<VTKFile byte_order="LittleEndian" type="UnstructuredGrid" version="0.1">
   <UnstructuredGrid>
      <Piece NumberOfCells="9204" NumberOfPoints="4704">
         <Points>
            <DataArray Name="Points" NumberOfComponents="3" format="ascii" type="Float32">
0.0000 0.0000 0.0000
0.0958 0.0000 0.0000
0.0000 0.1000 0.0000
0.1437 0.0866 0.0000
0.1916 0.0000 0.0000
0.0919 0.1718 0.0000
0.0000 0.2000 0.0000
0.2396 0.0866 0.0000
0.1916 0.1732 0.0000
0.2875 0.0000 0.0000
0.0000 0.3000 0.0000
0.0764 0.2946 0.0000
0.2914 0.1718 0.0000
0.2427 0.2591 0.0000
0.1744 0.3145 0.0000
0.3833 0.0000 0.0000
0.0000 0.4000 0.0000
0.3682 0.1665 0.0000
0.1082 0.3894 0.0000
0.4100 0.0767 0.0000
0.2720 0.3349 0.0000
0.2062 0.4091 0.0000
0.4717 0.0000 0.0000
0.4018 0.2811 0.0000
0.4665 0.1545 0.0000
0.0000 0.5000 0.0000
0.0000 0.5000 0.0000
0.1090 0.5000 0.0000
0.1090 0.5000 0.0000
0.5061 0.0809 0.0000
0.3636 0.3654 0.0000
0.3039 0.4260 0.0000
0.5431 0.0000 0.0000
0.2180 0.5000 0.0000
0.2180 0.5000 0.0000
0.4758 0.2809 0.0000
0.5160 0.2006 0.0000
0.5338 0.1598 0.0000
0.4289 0.3696 0.0000
0.5750 0.0687 0.0000
0.3748 0.4498 0.0000
0.3149 0.5000 0.0000
0.3149 0.5000 0.0000
0.5244 0.2778 0.0000
0.5646 0.1975 0.0000
0.5502 0.2352 0.0000
0.5100 0.3155 0.0000
0.5998 0.0000 0.0000
0.0000 0.6000 0.0000
0.4842 0.3582 0.0000
0.5824 0.1618 0.0000
0.1667 0.5856 0.0000
0.4530 0.4207 0.0000
0.6137 0.0992 0.0000
0.5564 0.2827 0.0000
0.5654 0.2648 0.0000
0.5475 0.3005 0.0000
0.6230 0.0575 0.0000
0.5835 0.2325 0.0000
0.5252 0.3452 0.0000
0.4231 0.4667 0.0000
0.5966 0.2023 0.0000
0.3845 0.5000 0.0000
0.3845 0.5000 0.0000
0.5162 0.3630 0.0000
0.5073 0.3809 0.0000
0.6086 0.1838 0.0000
0.6145 0.1666 0.0000
0.6440 0.0000 0.0000
0.2665 0.5866 0.0000
0.4850 0.4255 0.0000
0.5801 0.2833 0.0000
0.5711 0.3012 0.0000
0.5890 0.2655 0.0000
0.5622 0.3191 0.0000
0.6368 0.1220 0.0000
0.6113 0.2208 0.0000
0.4761 0.4434 0.0000
0.5399 0.3637 0.0000
0.6202 0.2030 0.0000
0.6075 0.2411 0.0000
0.6457 0.1041 0.0000
0.5539 0.3482 0.0000
0.0866 0.6500 0.0000
0.6292 0.1851 0.0000
0.5329 0.3827 0.0000
0.5220 0.3994 0.0000
0.5912 0.2945 0.0000
0.5956 0.2855 0.0000
0.5823 0.3123 0.0000
0.4557 0.4785 0.0000
0.6562 0.0800 0.0000
0.4325 0.5000 0.0000
0.4325 0.5000 0.0000
0.5873 0.3048 0.0000
0.6090 0.2588 0.0000
0.6017 0.2765 0.0000
0.5688 0.3391 0.0000
0.6052 0.2691 0.0000
0.5787 0.3226 0.0000
0.5748 0.3298 0.0000
0.5644 0.3480 0.0000
0.6180 0.2409 0.0000
0.6150 0.2495 0.0000
0.6224 0.2320 0.0000
0.5614 0.3566 0.0000
0.6431 0.1699 0.0000
0.5555 0.3659 0.0000
0.5510 0.3748 0.0000
0.6275 0.2245 0.0000
0.6515 0.1405 0.0000
0.6313 0.2141 0.0000
0.5132 0.4257 0.0000
0.6358 0.2052 0.0000
0.6666 0.0450 0.0000
0.5471 0.3852 0.0000
0.5421 0.3927 0.0000
0.5982 0.3036 0.0000
0.6027 0.2946 0.0000
0.5938 0.3125 0.0000
0.6418 0.1959 0.0000
0.6071 0.2857 0.0000
0.5376 0.4016 0.0000
0.5893 0.3214 0.0000
0.6116 0.2768 0.0000
0.6448 0.1873 0.0000
0.5025 0.4456 0.0000
0.5848 0.3304 0.0000
0.6161 0.2679 0.0000
0.5804 0.3393 0.0000
0.6205 0.2589 0.0000
0.5759 0.3482 0.0000
0.6250 0.2500 0.0000
0.6492 0.1784 0.0000
0.5346 0.4102 0.0000
0.5714 0.3571 0.0000
0.6625 0.1235 0.0000
0.6295 0.2411 0.0000
0.5287 0.4195 0.0000
0.5670 0.3661 0.0000
0.6339 0.2321 0.0000
0.5625 0.3750 0.0000
0.6543 0.1709 0.0000
0.6384 0.2232 0.0000
0.5242 0.4284 0.0000
0.5580 0.3839 0.0000
0.6581 0.1605 0.0000
0.6694 0.1048 0.0000
0.6429 0.2143 0.0000
0.6781 0.0000 0.0000
0.4932 0.4655 0.0000
0.5536 0.3929 0.0000
0.6473 0.2054 0.0000
0.5198 0.4373 0.0000
0.6082 0.3030 0.0000
0.6037 0.3119 0.0000
0.6127 0.2940 0.0000
0.5993 0.3208 0.0000
0.6171 0.2851 0.0000
0.5948 0.3298 0.0000
0.6216 0.2762 0.0000
0.5491 0.4018 0.0000
0.5903 0.3387 0.0000
0.6260 0.2673 0.0000
0.6518 0.1964 0.0000
0.6641 0.1512 0.0000
0.5859 0.3476 0.0000
0.6305 0.2583 0.0000
0.4776 0.4865 0.0000
0.5814 0.3565 0.0000
0.5446 0.4107 0.0000
0.6671 0.1427 0.0000
0.6350 0.2494 0.0000
0.6562 0.1875 0.0000
0.4648 0.5000 0.0000
0.4648 0.5000 0.0000
0.5769 0.3655 0.0000
0.5159 0.4477 0.0000
0.6394 0.2405 0.0000
0.5402 0.4196 0.0000
0.5725 0.3744 0.0000
0.5108 0.4552 0.0000
0.6439 0.2316 0.0000
0.6607 0.1786 0.0000
0.5680 0.3833 0.0000
0.6484 0.2226 0.0000
0.5357 0.4286 0.0000
0.6730 0.1334 0.0000
0.6859 0.0238 0.0000
0.6652 0.1696 0.0000
0.5635 0.3923 0.0000
0.5063 0.4641 0.0000
0.6528 0.2137 0.0000
0.6760 0.1248 0.0000
0.6136 0.3113 0.0000
0.6181 0.3024 0.0000
0.5591 0.4012 0.0000
0.5312 0.4375 0.0000
0.6092 0.3203 0.0000
0.6226 0.2935 0.0000
0.6573 0.2048 0.0000
0.6047 0.3292 0.0000
0.6270 0.2846 0.0000
0.6696 0.1607 0.0000
0.6002 0.3381 0.0000
0.6315 0.2756 0.0000
0.6834 0.0893 0.0000
0.5958 0.3471 0.0000
0.6360 0.2667 0.0000
0.5019 0.4730 0.0000
0.5546 0.4101 0.0000
0.6618 0.1958 0.0000
0.5913 0.3560 0.0000
0.6805 0.1159 0.0000
0.6404 0.2578 0.0000
0.5268 0.4464 0.0000
0.6741 0.1518 0.0000
0.5869 0.3649 0.0000
0.6449 0.2488 0.0000
0.5502 0.4190 0.0000
0.6662 0.1869 0.0000
0.5824 0.3738 0.0000
0.6494 0.2399 0.0000
0.4974 0.4820 0.0000
0.5223 0.4554 0.0000
0.5779 0.3828 0.0000
0.6849 0.1070 0.0000
0.6538 0.2310 0.0000
0.6786 0.1429 0.0000
0.5457 0.4280 0.0000
0.6707 0.1780 0.0000
0.6917 0.0601 0.0000
0.5735 0.3917 0.0000
0.6583 0.2221 0.0000
0.4569 0.5239 0.0000
0.5179 0.4643 0.0000
0.5412 0.4369 0.0000
0.6358 0.2827 0.0000
0.5690 0.4006 0.0000
0.6752 0.1691 0.0000
0.6830 0.1339 0.0000
0.6627 0.2131 0.0000
0.5996 0.3543 0.0000
0.4931 0.4919 0.0000
0.6236 0.3108 0.0000
0.6192 0.3197 0.0000
0.6102 0.3375 0.0000
0.4861 0.5000 0.0000
0.4861 0.5000 0.0000
0.5645 0.4096 0.0000
0.6048 0.3474 0.0000
0.6909 0.0977 0.0000
0.6672 0.2042 0.0000
0.5368 0.4458 0.0000
0.6415 0.2750 0.0000
0.5134 0.4732 0.0000
0.6796 0.1601 0.0000
0.6301 0.3018 0.0000
0.6875 0.1250 0.0000
0.6538 0.2477 0.0000
0.5601 0.4185 0.0000
0.5968 0.3643 0.0000
0.6166 0.3298 0.0000
0.6717 0.1953 0.0000
0.6938 0.0891 0.0000
0.6361 0.2920 0.0000
0.0000 0.7000 0.0000
0.5323 0.4548 0.0000
0.5924 0.3733 0.0000
0.6471 0.2674 0.0000
0.6841 0.1512 0.0000
0.5556 0.4274 0.0000
0.5089 0.4821 0.0000
0.5879 0.3822 0.0000
0.6761 0.1863 0.0000
0.6593 0.2393 0.0000
0.4366 0.5491 0.0000
0.6920 0.1161 0.0000
0.7006 0.0423 0.0000
0.6532 0.2579 0.0000
0.5834 0.3911 0.0000
0.5278 0.4637 0.0000
0.6638 0.2304 0.0000
0.6983 0.0802 0.0000
0.5511 0.4363 0.0000
0.6885 0.1423 0.0000
0.6806 0.1774 0.0000
0.6241 0.3252 0.0000
0.5045 0.4911 0.0000
0.7042 0.0000 0.0000
0.6964 0.1071 0.0000
0.5806 0.3997 0.0000
0.5467 0.4453 0.0000
0.5234 0.4726 0.0000
0.5745 0.4090 0.0000
0.6851 0.1685 0.0000
0.6727 0.2125 0.0000
0.6297 0.3186 0.0000
0.6084 0.3577 0.0000
0.6930 0.1333 0.0000
0.6463 0.2851 0.0000
0.6702 0.2236 0.0000
0.5700 0.4179 0.0000
0.5000 0.5000 0.0000
0.6772 0.2036 0.0000
0.5422 0.4542 0.0000
0.6148 0.3500 0.0000
0.7009 0.0982 0.0000
0.6895 0.1596 0.0000
0.7043 0.0709 0.0000
0.5189 0.4815 0.0000
0.6369 0.3099 0.0000
0.6975 0.1244 0.0000
0.6620 0.2527 0.0000
0.4930 0.5091 0.0000
0.4819 0.5202 0.0000
0.6527 0.2774 0.0000
0.6212 0.3423 0.0000
0.5932 0.3892 0.0000
0.5377 0.4631 0.0000
0.7095 0.0244 0.0000
0.7073 0.0623 0.0000
0.6940 0.1506 0.0000
0.5611 0.4358 0.0000
0.6831 0.1955 0.0000
0.5990 0.3824 0.0000
0.6433 0.3022 0.0000
0.5144 0.4905 0.0000
0.6861 0.1857 0.0000
0.7054 0.0893 0.0000
0.6276 0.3346 0.0000
0.5683 0.4277 0.0000
0.7019 0.1155 0.0000
0.6684 0.2450 0.0000
0.6054 0.3747 0.0000
0.6591 0.2697 0.0000
0.5333 0.4721 0.0000
0.5567 0.4447 0.0000
0.6985 0.1417 0.0000
0.6491 0.2944 0.0000
0.6906 0.1768 0.0000
0.6340 0.3269 0.0000
0.6118 0.3670 0.0000
0.5100 0.4994 0.0000
0.6792 0.2201 0.0000
0.7098 0.0804 0.0000
0.7064 0.1066 0.0000
0.6744 0.2357 0.0000
0.5522 0.4536 0.0000
0.4678 0.5403 0.0000
0.6651 0.2617 0.0000
0.5932 0.3986 0.0000
0.5288 0.4810 0.0000
0.6950 0.1679 0.0000
0.5769 0.4225 0.0000
0.6182 0.3594 0.0000
0.7132 0.0530 0.0000
0.7029 0.1328 0.0000
0.5818 0.4162 0.0000
0.6404 0.3192 0.0000
0.6561 0.2868 0.0000
0.6842 0.2126 0.0000
0.5045 0.5089 0.0000
0.5897 0.4072 0.0000
0.6246 0.3517 0.0000
0.4079 0.5895 0.0000
0.5477 0.4625 0.0000
0.6995 0.1590 0.0000
0.7109 0.0976 0.0000
0.7162 0.0445 0.0000
0.4980 0.5166 0.0000
0.5244 0.4899 0.0000
0.7143 0.0714 0.0000
0.6468 0.3116 0.0000
0.7074 0.1238 0.0000
0.6719 0.2544 0.0000
0.6025 0.3918 0.0000
0.6310 0.3440 0.0000
0.6891 0.2045 0.0000
0.6812 0.2296 0.0000
0.6625 0.2791 0.0000
0.6958 0.1835 0.0000
0.7040 0.1500 0.0000
0.6089 0.3841 0.0000
0.6532 0.3039 0.0000
0.5439 0.4724 0.0000
0.5199 0.4988 0.0000
0.6374 0.3363 0.0000
0.7153 0.0887 0.0000
0.7119 0.1149 0.0000
0.6153 0.3764 0.0000
0.7188 0.0625 0.0000
0.6783 0.2467 0.0000
0.5388 0.4804 0.0000
0.6689 0.2715 0.0000
0.5622 0.4530 0.0000
0.6957 0.1944 0.0000
0.7084 0.1411 0.0000
0.7006 0.1762 0.0000
0.6876 0.2220 0.0000
0.5675 0.4473 0.0000
0.6217 0.3688 0.0000
0.6438 0.3286 0.0000
0.5800 0.4315 0.0000
0.5739 0.4396 0.0000
0.6596 0.2962 0.0000
0.7222 0.0355 0.0000
0.7239 0.0000 0.0000
0.5867 0.4242 0.0000
0.5144 0.5095 0.0000
0.7163 0.1060 0.0000
0.7198 0.0798 0.0000
0.6281 0.3611 0.0000
0.5343 0.4893 0.0000
0.5589 0.4611 0.0000
0.7050 0.1673 0.0000
0.5931 0.4166 0.0000
0.6753 0.2638 0.0000
0.6502 0.3210 0.0000
0.6847 0.2390 0.0000
0.7232 0.0536 0.0000
0.5995 0.4089 0.0000
0.6660 0.2885 0.0000
0.5089 0.5179 0.0000
0.7141 0.1320 0.0000
0.7257 0.0280 0.0000
0.6345 0.3534 0.0000
0.6940 0.2143 0.0000
0.6059 0.4012 0.0000
0.7095 0.1583 0.0000
0.7208 0.0971 0.0000
0.5299 0.4983 0.0000
0.6566 0.3133 0.0000
0.7243 0.0708 0.0000
0.5019 0.5270 0.0000
0.6123 0.3935 0.0000
0.7174 0.1232 0.0000
0.6409 0.3457 0.0000
0.6817 0.2561 0.0000
0.6724 0.2808 0.0000
0.6911 0.2313 0.0000
0.7277 0.0446 0.0000
0.6187 0.3858 0.0000
0.7296 0.0177 0.0000
0.7061 0.1846 0.0000
0.6630 0.3056 0.0000
0.5561 0.4731 0.0000
0.6473 0.3380 0.0000
0.7004 0.2066 0.0000
0.7253 0.0881 0.0000
0.6251 0.3781 0.0000
0.7157 0.1477 0.0000
0.7218 0.1143 0.0000
0.5710 0.4567 0.0000
0.7287 0.0619 0.0000
0.5774 0.4490 0.0000
0.5244 0.5101 0.0000
0.6881 0.2484 0.0000
0.6788 0.2732 0.0000
0.5838 0.4413 0.0000
0.7105 0.1756 0.0000
[...]
         <PointData>
            <DataArray Name="fValues" NumberOfComponents="3" format="ascii" type="Float64">
 6.46907e-20  6.62580e-20        00000 
-6.94318e-20  1.73580e-20        00000 
 3.04805e-04  2.46887e-04        00000 
 2.46153e-04  1.04050e-04        00000 
 3.14032e-20 -3.23219e-21        00000 
 4.90145e-04  2.38901e-04        00000 
 5.79784e-04  3.91130e-04        00000 
 2.51057e-04  1.10027e-04        00000 
 4.94239e-04  1.98832e-04        00000 
 1.79957e-20  8.99785e-21        00000 
 7.94434e-04  4.38980e-04        00000 
 7.88007e-04  3.46036e-04        00000 
 4.91959e-04  2.36153e-04        00000 
 7.21504e-04  2.92423e-04        00000 
 8.37994e-04  3.09755e-04        00000 
-3.78679e-20 -1.33695e-20        00000 
 9.33503e-04  4.38285e-04        00000 
 4.59471e-04  2.57386e-04        00000 
 9.26385e-04  3.48826e-04        00000 
 1.91232e-04  1.15783e-04        00000 
 9.15208e-04  3.75898e-04        00000 
 9.74126e-04  3.41273e-04        00000 
 3.52553e-21  4.28815e-21        00000 
 8.27769e-04  4.78569e-04        00000 
 3.74432e-04  2.55699e-04        00000 
 1.00109e-03  4.35833e-04        00000 
 2.12704e-03  1.16942e-02        00000 
 9.97403e-04  3.50395e-04        00000 
 2.12473e-03  9.74931e-03        00000 
 1.56393e-04  1.15730e-04        00000 
 1.05591e-03  5.14350e-04        00000 
 1.06464e-03  4.25724e-04        00000 
-1.08216e-19 -5.72909e-20        00000 
 9.99599e-04  3.40072e-04        00000 
 2.10757e-03  7.80149e-03        00000 
 7.98938e-04  5.33379e-04        00000 
 4.86145e-04  3.28694e-04        00000 
 3.38128e-04  2.32219e-04        00000 
 1.13785e-03  6.94327e-04        00000 
 9.12124e-05  6.67872e-05        00000 
 1.18105e-03  5.67323e-04        00000 
 1.04550e-03  4.23063e-04        00000 
 2.07279e-03  6.04611e-03        00000 
 7.51027e-04  5.03671e-04        00000 
 4.30868e-04  2.69497e-04        00000 
 5.73901e-04  3.67145e-04        00000 
 9.17057e-04  6.20763e-04        00000 
-1.08204e-19 -5.78522e-20        00000 
 3.91807e-03  1.16926e-02        00000 
 1.10140e-03  7.48065e-04        00000 
 3.06798e-04  1.86550e-04        00000 
 3.66074e-03  8.72129e-03        00000 
 1.31293e-03  8.48483e-04        00000 
 1.32071e-04  6.91368e-05        00000 
 7.45442e-04  4.66559e-04        00000 
 6.69912e-04  4.07874e-04        00000 
 8.25819e-04  5.29956e-04        00000 
 5.62190e-05  3.05541e-05        00000 
 5.34352e-04  3.02754e-04        00000 
 1.03072e-03  7.01938e-04        00000 
 1.28291e-03  7.40864e-04        00000 
 4.20273e-04  2.24621e-04        00000 
 1.11835e-03  5.73947e-04        00000 
 2.03369e-03  4.73866e-03        00000 
 1.10932e-03  7.66722e-04        00000 
 1.19331e-03  8.37041e-04        00000 
 3.52587e-04  1.74794e-04        00000 
 2.97156e-04  1.42938e-04        00000 
 3.54491e-20  3.12312e-20        00000 
 3.68009e-03  6.93205e-03        00000 
 1.36568e-03  9.75382e-04        00000 
 7.31595e-04  4.14245e-04        00000 
 8.11613e-04  4.79229e-04        00000 
 6.54449e-04  3.53470e-04        00000 
 8.95324e-04  5.49825e-04        00000 
 1.69522e-04  6.17101e-05        00000 
 4.72750e-04  2.19599e-04        00000 
 1.42388e-03  1.00393e-03        00000 
 1.10341e-03  7.39648e-04        00000 
 4.05638e-04  1.74322e-04        00000 
 5.47834e-04  2.60332e-04        00000 
 1.25918e-04  3.92159e-05        00000 
 1.02704e-03  6.55634e-04        00000 
 4.81546e-03  1.01449e-02        00000 
 3.42476e-04  1.33418e-04        00000 
 1.19177e-03  8.24149e-04        00000 
 1.27316e-03  9.12241e-04        00000 
 7.71322e-04  4.06435e-04        00000 
 7.31038e-04  3.74336e-04        00000 
 8.53658e-04  4.74105e-04        00000 
 1.37910e-03  9.13839e-04        00000 
 7.64208e-05  1.62062e-05        00000 
 1.21050e-03  7.58273e-04        00000 
 1.97342e-03  3.78557e-03        00000 
 8.17772e-04  4.40844e-04        00000 
 6.15248e-04  2.85408e-04        00000 
 6.90424e-04  3.38263e-04        00000 
 9.80121e-04  5.86172e-04        00000 
 6.58434e-04  3.14464e-04        00000 
 9.01212e-04  5.10747e-04        00000 
 9.35417e-04  5.41672e-04        00000 
 1.02217e-03  6.25067e-04        00000 
 5.40661e-04  2.31265e-04        00000 
 5.75096e-04  2.52515e-04        00000 
 5.04904e-04  2.06236e-04        00000 
 1.06286e-03  6.59895e-04        00000 
 2.89089e-04  9.03643e-05        00000 
 1.10818e-03  7.07999e-04        00000 
 1.15133e-03  7.51202e-04        00000 
 4.74873e-04  1.82743e-04        00000 
 2.05431e-04  5.13703e-05        00000 
 4.36233e-04  1.59997e-04        00000 
 1.37738e-03  1.02665e-03        00000 
 4.03152e-04  1.38778e-04        00000 
 2.88753e-05  1.84106e-06        00000 
 1.20065e-03  7.98968e-04        00000 
 1.23737e-03  8.41829e-04        00000 
 8.07013e-04  4.01943e-04        00000 
 7.66017e-04  3.68976e-04        00000 
 8.48753e-04  4.36169e-04        00000 
 3.69166e-04  1.14758e-04        00000 
 7.25658e-04  3.37349e-04        00000 
 1.28074e-03  8.90450e-04        00000 
 8.90953e-04  4.71777e-04        00000 
 6.86086e-04  3.06909e-04        00000 
 3.40494e-04  1.00323e-04        00000 
 1.46674e-03  1.12697e-03        00000 
 9.33643e-04  5.08874e-04        00000 
 6.47244e-04  2.77766e-04        00000 
 9.76578e-04  5.47294e-04        00000 
 6.08967e-04  2.49618e-04        00000 
 1.01959e-03  5.86935e-04        00000 
 5.71277e-04  2.22791e-04        00000 
 3.10911e-04  8.27875e-05        00000 
 1.31983e-03  9.34156e-04        00000 
 1.06284e-03  6.27658e-04        00000 
 1.58791e-04  2.45726e-05        00000 
 5.34590e-04  1.97351e-04        00000 
 1.35987e-03  9.88737e-04        00000 
 1.10664e-03  6.70148e-04        00000 
 4.98891e-04  1.73226e-04        00000 
 1.15052e-03  7.14047e-04        00000 
 2.85979e-04  6.60584e-05        00000 
 4.64045e-04  1.50316e-04        00000 
 1.39623e-03  1.03594e-03        00000 
 1.19426e-03  7.59452e-04        00000 
 2.54798e-04  5.11981e-05        00000 
 1.15793e-04  8.30497e-06        00000 
 4.30211e-04  1.28689e-04        00000 
-6.06438e-21 -5.45794e-21        00000 
 1.52933e-03  1.20392e-03        00000 
 1.23818e-03  8.06538e-04        00000 
 3.97345e-04  1.08424e-04        00000 
 1.43814e-03  1.08961e-03        00000 
 8.00195e-04  3.64913e-04        00000 
 8.42065e-04  3.98586e-04        00000 
 7.58991e-04  3.32551e-04        00000 
 8.84528e-04  4.33705e-04        00000 
 7.18455e-04  3.01500e-04        00000 
 9.27516e-04  4.70174e-04        00000 
 6.78734e-04  2.71709e-04        00000 
 1.28200e-03  8.55573e-04        00000 
 9.70861e-04  5.08070e-04        00000 
 6.39740e-04  2.43197e-04        00000 
 3.65532e-04  8.94181e-05        00000 
 2.26454e-04  3.36932e-05        00000 
 1.01456e-03  5.47403e-04        00000 
 6.01371e-04  2.15915e-04        00000 
 1.47155e-03  1.09255e-03        00000 
 1.05849e-03  5.88056e-04        00000 
 1.32465e-03  9.06642e-04        00000 
 2.02875e-04  2.42094e-05        00000 
 5.63792e-04  1.89964e-04        00000 
 3.34883e-04  7.16996e-05        00000 
 1.30731e-03  9.51558e-04        00000 
 1.88690e-03  3.07495e-03        00000 
 1.10278e-03  6.30170e-04        00000 
 1.48317e-03  1.15128e-03        00000 
 5.27205e-04  1.65398e-04        00000 
 1.36609e-03  9.59316e-04        00000 
 1.14738e-03  6.73887e-04        00000 
 1.51353e-03  1.20003e-03        00000 
 4.91514e-04  1.42097e-04        00000 
 3.05340e-04  5.51907e-05        00000 
 1.19201e-03  7.19249e-04        00000 
 4.56779e-04  1.20123e-04        00000 
 1.40629e-03  1.01311e-03        00000 
 1.77126e-04  9.95178e-06        00000 
 7.03459e-06 -6.02499e-06        00000 
 2.76766e-04  3.98320e-05        00000 
 1.23674e-03  7.66342e-04        00000 
 1.54559e-03  1.25634e-03        00000 
 4.23041e-04  9.94617e-05        00000 
 1.55851e-04  2.87947e-06        00000 
 8.36252e-04  3.58942e-04        00000 
 7.94218e-04  3.25985e-04        00000 
 1.28142e-03  8.15273e-04        00000 
 1.44695e-03  1.06862e-03        00000 
 8.78961e-04  3.93290e-04        00000 
 7.52753e-04  2.94354e-04        00000 
 3.90381e-04  8.01404e-05        00000 
 9.22355e-04  4.29128e-04        00000 
 7.11999e-04  2.64070e-04        00000 
 2.49357e-04  2.56918e-05        00000 
 9.66159e-04  4.66316e-04        00000 
 6.72191e-04  2.35062e-04        00000 
 8.17559e-05 -1.06901e-05        00000 
 1.01050e-03  5.05020e-04        00000 
 6.32993e-04  2.07351e-04        00000 
 1.57118e-03  1.30775e-03        00000 
 1.32560e-03  8.66321e-04        00000 
 3.58771e-04  6.21218e-05        00000 
 1.05505e-03  5.45122e-04        00000 
 1.34116e-04 -5.95924e-06        00000 
 5.94582e-04  1.80990e-04        00000 
 1.48749e-03  1.12893e-03        00000 
 2.23007e-04  1.28606e-05        00000 
 1.10003e-03  5.86705e-04        00000 
 5.57024e-04  1.56002e-04        00000 
 1.36910e-03  9.19418e-04        00000 
 3.28235e-04  4.53477e-05        00000 
 1.14538e-03  6.29847e-04        00000 
 5.20566e-04  1.32344e-04        00000 
 1.57741e-03  1.34229e-03        00000 
 1.52622e-03  1.19318e-03        00000 
 1.19096e-03  6.74622e-04        00000 
 1.14224e-04 -1.29555e-05        00000 
 4.84869e-04  1.10024e-04        00000 
 1.97943e-04  1.43322e-06        00000 
 1.41191e-03  9.74486e-04        00000 
 2.98808e-04  2.98288e-05        00000 
 3.75220e-05 -1.68380e-05        00000 
 1.23657e-03  7.21135e-04        00000 
 4.50270e-04  8.90718e-05        00000 
 2.45283e-03  3.27316e-03        00000 
 1.56274e-03  1.26277e-03        00000 
 1.45443e-03  1.03175e-03        00000 
 7.00902e-04  2.27786e-04        00000 
 1.28256e-03  7.69595e-04        00000 
 2.70442e-04  1.55684e-05        00000 
 1.74039e-04 -8.66068e-06        00000 
 4.16608e-04  6.94128e-05        00000 
 1.04671e-03  5.04097e-04        00000 
 1.56239e-03  1.34998e-03        00000 
 8.31076e-04  3.16779e-04        00000 
 8.74215e-04  3.50233e-04        00000 
 9.62120e-04  4.21572e-04        00000 
 1.39178e-03  1.18068e-03        00000 
 1.82460e-03  2.49940e-03        00000 
 1.32826e-03  8.19971e-04        00000 
 1.01200e-03  4.65528e-04        00000 
 9.44771e-05 -2.10663e-05        00000 
 3.84076e-04  5.10964e-05        00000 
 1.49675e-03  1.09224e-03        00000 
 6.66066e-04  1.96445e-04        00000 
 1.59541e-03  1.33809e-03        00000 
 2.43217e-04  2.63370e-06        00000 
 7.88019e-04  2.76177e-04        00000 
 1.51437e-04 -1.74032e-05        00000 
 5.49356e-04  1.23879e-04        00000 
 1.37355e-03  8.72370e-04        00000 
 1.09794e-03  5.39576e-04        00000 
 9.23547e-04  3.79090e-04        00000 
 3.52628e-04  3.40807e-05        00000 
 7.85983e-05 -2.34752e-05        00000 
 7.42224e-04  2.38349e-04        00000 
 5.70892e-03  1.16830e-02        00000 
 1.53851e-03  1.15715e-03        00000 
 1.14432e-03  5.81763e-04        00000 
 6.31936e-04  1.66595e-04        00000 
 2.17160e-04 -8.96049e-06        00000 
 1.41893e-03  9.26996e-04        00000 
 1.62247e-03  1.42050e-03        00000 
 1.19093e-03  6.25629e-04        00000 
 3.22169e-04  1.83954e-05        00000 
 5.14357e-04  9.78253e-05        00000 
 2.97054e-03  3.72386e-03        00000 
 1.30262e-04 -2.46489e-05        00000 
 1.77234e-05 -1.82211e-05        00000 
 5.90379e-04  1.34696e-04        00000 
 1.23764e-03  6.71293e-04        00000 
 1.57917e-03  1.22705e-03        00000 
 4.78669e-04  7.66203e-05        00000 
 6.33298e-05 -2.69921e-05        00000 
 1.46384e-03  9.83787e-04        00000 
 1.92384e-04 -1.91656e-05        00000 
 2.92962e-04  3.99272e-06        00000 
 9.00464e-04  3.37144e-04        00000 
 1.64987e-03  1.51017e-03        00000 
 4.71317e-21  4.50340e-21        00000 
 1.10561e-04 -3.06259e-05        00000 
 1.28390e-03  7.09404e-04        00000 
 1.50914e-03  1.04337e-03        00000 
 1.61904e-03  1.30338e-03        00000 
 1.33230e-03  7.67740e-04        00000 
 2.64791e-04 -9.06603e-06        00000 
 4.10740e-04  3.80888e-05        00000 
 8.67696e-04  3.01939e-04        00000 
 1.06514e-03  4.69091e-04        00000 
 1.68820e-04 -2.80000e-05        00000 
 7.08828e-04  1.88251e-04        00000 
 4.51266e-04  5.15252e-05        00000 
 1.37987e-03  8.18768e-04        00000 
 1.70952e-03  1.74066e-03        00000 
 3.78248e-04  2.09124e-05        00000 
 1.55439e-03  1.10645e-03        00000 
 1.02570e-03  4.23306e-04        00000 
 9.22782e-05 -3.52463e-05        00000 
 2.37785e-04 -2.07844e-05        00000 
 4.81877e-05 -3.09413e-05        00000 
 1.65870e-03  1.38774e-03        00000 
 8.24784e-04  2.57552e-04        00000 
 1.46588e-04 -3.54389e-05        00000 
 5.66298e-04  9.75948e-05        00000 
 2.08864e-03  2.26118e-03        00000 
 2.37661e-03  2.64174e-03        00000 
 6.73341e-04  1.54361e-04        00000 
 9.86442e-04  3.78795e-04        00000 
 1.23258e-03  6.15478e-04        00000 
 1.59993e-03  1.17348e-03        00000 
 4.44935e-06 -1.40804e-05        00000 
 3.63343e-05 -3.05205e-05        00000 
 2.12012e-04 -3.11328e-05        00000 
 1.47481e-03  9.27470e-04        00000 
 3.49151e-04  9.53688e-07        00000 
 1.19693e-03  5.68895e-04        00000 
 7.87574e-04  2.19811e-04        00000 
 1.70707e-03  1.48465e-03        00000 
 3.16638e-04 -9.42641e-06        00000 
 7.55065e-05 -3.86180e-05        00000 
 9.47445e-04  3.35595e-04        00000 
 1.43524e-03  8.59796e-04        00000 
 1.25773e-04 -4.15006e-05        00000 
 5.33619e-04  6.89490e-05        00000 
 1.15674e-03  5.18674e-04        00000 
 6.38500e-04  1.21867e-04        00000 
 1.64757e-03  1.24490e-03        00000 
 1.52370e-03  9.84934e-04        00000 
 1.87484e-04 -4.00651e-05        00000 
 7.50401e-04  1.86049e-04        00000 
 2.87577e-04 -2.25997e-05        00000 
 9.08711e-04  2.93735e-04        00000 
 1.11664e-03  4.70056e-04        00000 
 1.81176e-03  1.61421e-03        00000 
 4.35518e-04  1.98623e-05        00000 
 6.02426e-05 -4.08060e-05        00000 
 1.06393e-04 -4.62224e-05        00000 
 4.95667e-04  4.24366e-05        00000 
 1.57269e-03  1.04543e-03        00000 
 2.80402e-03  3.03018e-03        00000 
 6.02703e-04  9.20627e-05        00000 
 1.28657e-03  6.37919e-04        00000 
 1.69852e-03  1.32157e-03        00000 
 2.59599e-04 -3.44684e-05        00000 
 1.41526e-03  7.93740e-04        00000 
 1.07650e-03  4.22536e-04        00000 
 2.51776e-05 -3.10498e-05        00000 
 1.64246e-04 -4.76198e-05        00000 
 1.38214e-03  7.47298e-04        00000 
 8.70340e-04  2.53400e-04        00000 
 7.14659e-04  1.48254e-04        00000 
 4.07133e-04  1.34813e-06        00000 
 2.04419e-03  1.85890e-03        00000 
 1.33499e-03  6.78725e-04        00000 
 1.03657e-03  3.76626e-04        00000 
 3.73872e-03  4.31492e-03        00000 
 1.62332e-03  1.10908e-03        00000 
 2.32840e-04 -4.48828e-05        00000 
 8.84394e-05 -4.96167e-05        00000 
 1.66883e-05 -2.83327e-05        00000 
 2.27402e-03  2.14979e-03        00000 
 1.76184e-03  1.40438e-03        00000 
 4.63318e-05 -4.16796e-05        00000 
 8.32401e-04  2.14423e-04        00000 
 1.42298e-04 -5.37749e-05        00000 
 5.70784e-04  6.09593e-05        00000 
 1.25327e-03  5.69997e-04        00000 
 9.96790e-04  3.32149e-04        00000 
 3.77476e-04 -1.58829e-05        00000 
 4.70508e-04  1.59651e-05        00000 
 6.79097e-04  1.14632e-04        00000 
 3.06874e-04 -3.70374e-05        00000 
 2.07358e-04 -5.39124e-05        00000 
 1.21227e-03  5.18374e-04        00000 
 7.94936e-04  1.76858e-04        00000 
 1.68739e-03  1.17452e-03        00000 
 1.86123e-03  1.50038e-03        00000 
 9.57315e-04  2.89119e-04        00000 
 7.19309e-05 -5.17389e-05        00000 
 1.21853e-04 -5.85649e-05        00000 
 1.17127e-03  4.68297e-04        00000 
 3.41517e-05 -4.10830e-05        00000 
 5.38054e-04  3.27086e-05        00000 
 1.73675e-03  1.24549e-03        00000 
 6.44094e-04  8.24230e-05        00000 
 1.59225e-03  9.77738e-04        00000 
 3.41521e-04 -3.68678e-05        00000 
 1.83092e-04 -6.15320e-05        00000 
 2.82769e-04 -4.98915e-05        00000 
 4.40154e-04 -8.44076e-06        00000 
 1.56297e-03  9.24461e-04        00000 
 1.13028e-03  4.19558e-04        00000 
 9.18190e-04  2.47529e-04        00000 
 1.47765e-03  7.99290e-04        00000 
 1.52225e-03  8.60311e-04        00000 
 7.57967e-04  1.40713e-04        00000 
 9.38019e-06 -2.59437e-05        00000 
-2.30784e-21  3.62014e-22        00000 
 1.43944e-03  7.37854e-04        00000 
 2.06715e-03  1.65823e-03        00000 
 1.02761e-04 -6.20005e-05        00000 
 5.69345e-05 -5.25412e-05        00000 
 1.08945e-03  3.72413e-04        00000 
 1.81025e-03  1.31846e-03        00000 
 1.64506e-03  1.02576e-03        00000 
 2.54974e-04 -6.03699e-05        00000 
 1.39770e-03  6.79792e-04        00000 
 6.09825e-04  5.16789e-05        00000 
 8.79420e-04  2.07422e-04        00000 
 5.06128e-04  5.94304e-06        00000 
 2.37171e-05 -3.91785e-05        00000 
 1.35556e-03  6.23251e-04        00000 
 7.21560e-04  1.05955e-04        00000 
 2.28108e-03  1.85553e-03        00000 
 1.59449e-04 -7.01185e-05        00000 
 4.96591e-06 -2.18630e-05        00000 
 1.04885e-03  3.26779e-04        00000 
 4.10672e-04 -3.12763e-05        00000 
 1.31362e-03  5.68657e-04        00000 
 2.28378e-04 -6.94327e-05        00000 
 8.50857e-05 -6.41058e-05        00000 
 1.90714e-03  1.39811e-03        00000 
 8.41141e-04  1.68771e-04        00000 
 4.34722e-05 -5.19471e-05        00000 
 2.50996e-03  2.11407e-03        00000 
 1.27144e-03  5.15576e-04        00000 
 1.38507e-04 -7.25283e-05        00000 
 1.00852e-03  2.82629e-04        00000 
 5.76238e-04  2.24044e-05        00000 
 6.85799e-04  7.27240e-05        00000 
 4.74932e-04 -1.93880e-05        00000 
 1.50543e-05 -3.58836e-05        00000 
 1.22931e-03  4.64203e-04        00000 
 1.32221e-06 -1.47516e-05        00000 
 3.07380e-04 -6.71154e-05        00000 
 8.03367e-04  1.31581e-04        00000 
 1.73746e-03  1.08474e-03        00000 
 9.68468e-04  2.39966e-04        00000 
 3.82037e-04 -5.25575e-05        00000 
 6.88377e-05 -6.48555e-05        00000 
 1.18731e-03  4.14404e-04        00000 
 1.98236e-04 -8.03992e-05        00000 
 1.18328e-04 -7.60270e-05        00000 
 1.64242e-03  9.26484e-04        00000 
 3.16649e-05 -4.99975e-05        00000 
 1.59786e-03  8.61119e-04        00000 
 2.10505e-03  1.52860e-03        00000 
 5.43396e-04 -5.35405e-06        00000 
 6.50642e-04  4.09703e-05        00000 
 1.55378e-03  7.97869e-04        00000 
 2.78578e-04 -7.75832e-05        00000 
 4.60558e-03  5.20695e-03        00000 
 1.81594e-03  1.16507e-03        00000 
 1.14548e-03  3.66154e-04        00000 
 1.50985e-03  7.36608e-04        00000 
 9.28862e-04  1.98798e-04        00000 
 4.44544e-04 -4.31703e-05        00000 
 7.66147e-04  9.58560e-05        00000 
 8.22844e-06 -3.12362e-05        00000 
 1.46594e-03  6.77339e-04        00000 
 1.71439e-03  9.99262e-04        00000 
 2.85135e-03  2.41897e-03        00000 
 2.28462e-03  1.67236e-03        00000 
 1.42214e-03  6.19837e-04        00000 
 1.10380e-03  3.19428e-04        00000 
 9.95417e-05 -7.80982e-05        00000 
 5.41717e-05 -6.42316e-05        00000 
-2.70363e-07 -8.11159e-06        00000 
 2.50949e-04 -8.66728e-05        00000 
 3.51484e-04 -7.35371e-05        00000 
 8.89701e-04  1.59112e-04        00000 
 1.37833e-03  5.64110e-04        00000 
 6.16229e-04  1.07196e-05        00000 
 5.11381e-04 -3.16509e-05        00000 
 2.15884e-05 -4.66723e-05        00000 
 7.29464e-04  6.16152e-05        00000 
 1.77289e-04 -9.12248e-05        00000 
 2.48032e-03  1.84918e-03        00000 
 1.06247e-03  2.74238e-04        00000 
 1.92240e-03  1.24029e-03        00000 
 1.33475e-03  5.10060e-04        00000 
 2.22922e-04 -9.31477e-05        00000 
 4.15074e-04 -6.53886e-05        00000 
 1.33902e-04 -9.01154e-05        00000 
 1.29126e-03  4.57660e-04        00000 
 3.29037e-06 -2.52938e-05        00000 
 8.50980e-04  1.20905e-04        00000 