<?xml version="1.0" encoding="utf-8"?>
<VTKFile byte_order="LittleEndian" type="UnstructuredGrid" version="0.1">
   <UnstructuredGrid>
      <Piece NumberOfCells="9204" NumberOfPoints="4704">
         <Points>
            <DataArray Name="Points" NumberOfComponents="3" format="ascii" type="Float32">
0.0000 0.0000 0.0000
0.0958 0.0000 0.0000
0.0000 0.1000 0.0000
0.1437 0.0866 0.0000
0.1916 0.0000 0.0000
0.0919 0.1718 0.0000
0.0000 0.2000 0.0000
0.2396 0.0866 0.0000
0.1916 0.1732 0.0000
0.2875 0.0000 0.0000
0.0000 0.3000 0.0000
0.0764 0.2946 0.0000
0.2914 0.1718 0.0000
0.2427 0.2591 0.0000
0.1744 0.3145 0.0000
0.3833 0.0000 0.0000
0.0000 0.4000 0.0000
0.3682 0.1665 0.0000
0.1082 0.3894 0.0000
0.4100 0.0767 0.0000
0.2720 0.3349 0.0000
0.2062 0.4091 0.0000
0.4717 0.0000 0.0000
0.4018 0.2811 0.0000
0.4665 0.1545 0.0000
0.0000 0.5000 0.0000
0.0000 0.5000 0.0000
0.1090 0.5000 0.0000
0.1090 0.5000 0.0000
0.5061 0.0809 0.0000
0.3636 0.3654 0.0000
0.3039 0.4260 0.0000
0.5431 0.0000 0.0000
0.2180 0.5000 0.0000
0.2180 0.5000 0.0000
0.4758 0.2809 0.0000
0.5160 0.2006 0.0000
0.5338 0.1598 0.0000
0.4289 0.3696 0.0000
0.5750 0.0687 0.0000
0.3748 0.4498 0.0000
0.3149 0.5000 0.0000
0.3149 0.5000 0.0000
0.5244 0.2778 0.0000
0.5646 0.1975 0.0000
0.5502 0.2352 0.0000
0.5100 0.3155 0.0000
0.5998 0.0000 0.0000
0.0000 0.6000 0.0000
0.4842 0.3582 0.0000
0.5824 0.1618 0.0000
0.1667 0.5856 0.0000
0.4530 0.4207 0.0000
0.6137 0.0992 0.0000
0.5564 0.2827 0.0000
0.5654 0.2648 0.0000
0.5475 0.3005 0.0000
0.6230 0.0575 0.0000
0.5835 0.2325 0.0000
0.5252 0.3452 0.0000
0.4231 0.4667 0.0000
0.5966 0.2023 0.0000
0.3845 0.5000 0.0000
0.3845 0.5000 0.0000
0.5162 0.3630 0.0000
0.5073 0.3809 0.0000
0.6086 0.1838 0.0000
0.6145 0.1666 0.0000
0.6440 0.0000 0.0000
0.2665 0.5866 0.0000
0.4850 0.4255 0.0000
0.5801 0.2833 0.0000
0.5711 0.3012 0.0000
0.5890 0.2655 0.0000
0.5622 0.3191 0.0000
0.6368 0.1220 0.0000
0.6113 0.2208 0.0000
0.4761 0.4434 0.0000
0.5399 0.3637 0.0000
0.6202 0.2030 0.0000
0.6075 0.2411 0.0000
0.6457 0.1041 0.0000
0.5539 0.3482 0.0000
0.0866 0.6500 0.0000
0.6292 0.1851 0.0000
0.5329 0.3827 0.0000
0.5220 0.3994 0.0000
0.5912 0.2945 0.0000
0.5956 0.2855 0.0000
0.5823 0.3123 0.0000
0.4557 0.4785 0.0000
0.6562 0.0800 0.0000
0.4325 0.5000 0.0000
0.4325 0.5000 0.0000
0.5873 0.3048 0.0000
0.6090 0.2588 0.0000
0.6017 0.2765 0.0000
0.5688 0.3391 0.0000
0.6052 0.2691 0.0000
0.5787 0.3226 0.0000
0.5748 0.3298 0.0000
0.5644 0.3480 0.0000
0.6180 0.2409 0.0000
0.6150 0.2495 0.0000
0.6224 0.2320 0.0000
0.5614 0.3566 0.0000
0.6431 0.1699 0.0000
0.5555 0.3659 0.0000
0.5510 0.3748 0.0000
0.6275 0.2245 0.0000
0.6515 0.1405 0.0000
0.6313 0.2141 0.0000
0.5132 0.4257 0.0000
0.6358 0.2052 0.0000
0.6666 0.0450 0.0000
0.5471 0.3852 0.0000
0.5421 0.3927 0.0000
0.5982 0.3036 0.0000
0.6027 0.2946 0.0000
0.5938 0.3125 0.0000
0.6418 0.1959 0.0000
0.6071 0.2857 0.0000
0.5376 0.4016 0.0000
0.5893 0.3214 0.0000
0.6116 0.2768 0.0000
0.6448 0.1873 0.0000
0.5025 0.4456 0.0000
0.5848 0.3304 0.0000
0.6161 0.2679 0.0000
0.5804 0.3393 0.0000
0.6205 0.2589 0.0000
0.5759 0.3482 0.0000
0.6250 0.2500 0.0000
0.6492 0.1784 0.0000
0.5346 0.4102 0.0000
0.5714 0.3571 0.0000
0.6625 0.1235 0.0000
0.6295 0.2411 0.0000
0.5287 0.4195 0.0000
0.5670 0.3661 0.0000
0.6339 0.2321 0.0000
0.5625 0.3750 0.0000
0.6543 0.1709 0.0000
0.6384 0.2232 0.0000
0.5242 0.4284 0.0000
0.5580 0.3839 0.0000
0.6581 0.1605 0.0000
0.6694 0.1048 0.0000
0.6429 0.2143 0.0000
0.6781 0.0000 0.0000
0.4932 0.4655 0.0000
0.5536 0.3929 0.0000
0.6473 0.2054 0.0000
0.5198 0.4373 0.0000
0.6082 0.3030 0.0000
0.6037 0.3119 0.0000
0.6127 0.2940 0.0000
0.5993 0.3208 0.0000
0.6171 0.2851 0.0000
0.5948 0.3298 0.0000
0.6216 0.2762 0.0000
0.5491 0.4018 0.0000
0.5903 0.3387 0.0000
0.6260 0.2673 0.0000
0.6518 0.1964 0.0000
0.6641 0.1512 0.0000
0.5859 0.3476 0.0000
0.6305 0.2583 0.0000
0.4776 0.4865 0.0000
0.5814 0.3565 0.0000
0.5446 0.4107 0.0000
0.6671 0.1427 0.0000
0.6350 0.2494 0.0000
0.6562 0.1875 0.0000
0.4648 0.5000 0.0000
0.4648 0.5000 0.0000
0.5769 0.3655 0.0000
0.5159 0.4477 0.0000
0.6394 0.2405 0.0000
0.5402 0.4196 0.0000
0.5725 0.3744 0.0000
0.5108 0.4552 0.0000
0.6439 0.2316 0.0000
0.6607 0.1786 0.0000
0.5680 0.3833 0.0000
0.6484 0.2226 0.0000
0.5357 0.4286 0.0000
0.6730 0.1334 0.0000
0.6859 0.0238 0.0000
0.6652 0.1696 0.0000
0.5635 0.3923 0.0000
0.5063 0.4641 0.0000
0.6528 0.2137 0.0000
0.6760 0.1248 0.0000
0.6136 0.3113 0.0000
0.6181 0.3024 0.0000
0.5591 0.4012 0.0000
0.5312 0.4375 0.0000
0.6092 0.3203 0.0000
0.6226 0.2935 0.0000
0.6573 0.2048 0.0000
0.6047 0.3292 0.0000
0.6270 0.2846 0.0000
0.6696 0.1607 0.0000
0.6002 0.3381 0.0000
0.6315 0.2756 0.0000
0.6834 0.0893 0.0000
0.5958 0.3471 0.0000
0.6360 0.2667 0.0000
0.5019 0.4730 0.0000
0.5546 0.4101 0.0000
0.6618 0.1958 0.0000
0.5913 0.3560 0.0000
0.6805 0.1159 0.0000
0.6404 0.2578 0.0000
0.5268 0.4464 0.0000
0.6741 0.1518 0.0000
0.5869 0.3649 0.0000
0.6449 0.2488 0.0000
0.5502 0.4190 0.0000
0.6662 0.1869 0.0000
0.5824 0.3738 0.0000
0.6494 0.2399 0.0000
0.4974 0.4820 0.0000
0.5223 0.4554 0.0000
0.5779 0.3828 0.0000
0.6849 0.1070 0.0000
0.6538 0.2310 0.0000
0.6786 0.1429 0.0000
0.5457 0.4280 0.0000
0.6707 0.1780 0.0000
0.6917 0.0601 0.0000
0.5735 0.3917 0.0000
0.6583 0.2221 0.0000
0.4569 0.5239 0.0000
0.5179 0.4643 0.0000
0.5412 0.4369 0.0000
0.6358 0.2827 0.0000
0.5690 0.4006 0.0000
0.6752 0.1691 0.0000
0.6830 0.1339 0.0000
0.6627 0.2131 0.0000
0.5996 0.3543 0.0000
0.4931 0.4919 0.0000
0.6236 0.3108 0.0000
0.6192 0.3197 0.0000
0.6102 0.3375 0.0000
0.4861 0.5000 0.0000
0.4861 0.5000 0.0000
0.5645 0.4096 0.0000
0.6048 0.3474 0.0000
0.6909 0.0977 0.0000
0.6672 0.2042 0.0000
0.5368 0.4458 0.0000
0.6415 0.2750 0.0000
0.5134 0.4732 0.0000
0.6796 0.1601 0.0000
0.6301 0.3018 0.0000
0.6875 0.1250 0.0000
0.6538 0.2477 0.0000
0.5601 0.4185 0.0000
0.5968 0.3643 0.0000
0.6166 0.3298 0.0000
0.6717 0.1953 0.0000
0.6938 0.0891 0.0000
0.6361 0.2920 0.0000
0.0000 0.7000 0.0000
0.5323 0.4548 0.0000
0.5924 0.3733 0.0000
0.6471 0.2674 0.0000
0.6841 0.1512 0.0000
0.5556 0.4274 0.0000
0.5089 0.4821 0.0000
0.5879 0.3822 0.0000
0.6761 0.1863 0.0000
0.6593 0.2393 0.0000
0.4366 0.5491 0.0000
0.6920 0.1161 0.0000
0.7006 0.0423 0.0000
0.6532 0.2579 0.0000
0.5834 0.3911 0.0000
0.5278 0.4637 0.0000
0.6638 0.2304 0.0000
0.6983 0.0802 0.0000
0.5511 0.4363 0.0000
0.6885 0.1423 0.0000
0.6806 0.1774 0.0000
0.6241 0.3252 0.0000
0.5045 0.4911 0.0000
0.7042 0.0000 0.0000
0.6964 0.1071 0.0000
0.5806 0.3997 0.0000
0.5467 0.4453 0.0000
0.5234 0.4726 0.0000
0.5745 0.4090 0.0000
0.6851 0.1685 0.0000
0.6727 0.2125 0.0000
0.6297 0.3186 0.0000
0.6084 0.3577 0.0000
0.6930 0.1333 0.0000
0.6463 0.2851 0.0000
0.6702 0.2236 0.0000
0.5700 0.4179 0.0000
0.5000 0.5000 0.0000
0.6772 0.2036 0.0000
0.5422 0.4542 0.0000
0.6148 0.3500 0.0000
0.7009 0.0982 0.0000
0.6895 0.1596 0.0000
0.7043 0.0709 0.0000
0.5189 0.4815 0.0000
0.6369 0.3099 0.0000
0.6975 0.1244 0.0000
0.6620 0.2527 0.0000
0.4930 0.5091 0.0000
0.4819 0.5202 0.0000
0.6527 0.2774 0.0000
0.6212 0.3423 0.0000
0.5932 0.3892 0.0000
0.5377 0.4631 0.0000
0.7095 0.0244 0.0000
0.7073 0.0623 0.0000
0.6940 0.1506 0.0000
0.5611 0.4358 0.0000
0.6831 0.1955 0.0000
0.5990 0.3824 0.0000
0.6433 0.3022 0.0000
0.5144 0.4905 0.0000
0.6861 0.1857 0.0000
0.7054 0.0893 0.0000
0.6276 0.3346 0.0000
0.5683 0.4277 0.0000
0.7019 0.1155 0.0000
0.6684 0.2450 0.0000
0.6054 0.3747 0.0000
0.6591 0.2697 0.0000
0.5333 0.4721 0.0000
0.5567 0.4447 0.0000
0.6985 0.1417 0.0000
0.6491 0.2944 0.0000
0.6906 0.1768 0.0000
0.6340 0.3269 0.0000
0.6118 0.3670 0.0000
0.5100 0.4994 0.0000
0.6792 0.2201 0.0000
0.7098 0.0804 0.0000
0.7064 0.1066 0.0000
0.6744 0.2357 0.0000
0.5522 0.4536 0.0000
0.4678 0.5403 0.0000
0.6651 0.2617 0.0000
0.5932 0.3986 0.0000
0.5288 0.4810 0.0000
0.6950 0.1679 0.0000
0.5769 0.4225 0.0000
0.6182 0.3594 0.0000
0.7132 0.0530 0.0000
0.7029 0.1328 0.0000
0.5818 0.4162 0.0000
0.6404 0.3192 0.0000
0.6561 0.2868 0.0000
0.6842 0.2126 0.0000
0.5045 0.5089 0.0000
0.5897 0.4072 0.0000
0.6246 0.3517 0.0000
0.4079 0.5895 0.0000
0.5477 0.4625 0.0000
0.6995 0.1590 0.0000
0.7109 0.0976 0.0000
0.7162 0.0445 0.0000
0.4980 0.5166 0.0000
0.5244 0.4899 0.0000
0.7143 0.0714 0.0000
0.6468 0.3116 0.0000
0.7074 0.1238 0.0000
0.6719 0.2544 0.0000
0.6025 0.3918 0.0000
0.6310 0.3440 0.0000
0.6891 0.2045 0.0000
0.6812 0.2296 0.0000
0.6625 0.2791 0.0000
0.6958 0.1835 0.0000
0.7040 0.1500 0.0000
0.6089 0.3841 0.0000
0.6532 0.3039 0.0000
0.5439 0.4724 0.0000
0.5199 0.4988 0.0000
0.6374 0.3363 0.0000
0.7153 0.0887 0.0000
0.7119 0.1149 0.0000
0.6153 0.3764 0.0000
0.7188 0.0625 0.0000
0.6783 0.2467 0.0000
0.5388 0.4804 0.0000
0.6689 0.2715 0.0000
0.5622 0.4530 0.0000
0.6957 0.1944 0.0000
0.7084 0.1411 0.0000
0.7006 0.1762 0.0000
0.6876 0.2220 0.0000
0.5675 0.4473 0.0000
0.6217 0.3688 0.0000
0.6438 0.3286 0.0000
0.5800 0.4315 0.0000
0.5739 0.4396 0.0000
0.6596 0.2962 0.0000
0.7222 0.0355 0.0000
0.7239 0.0000 0.0000
0.5867 0.4242 0.0000
0.5144 0.5095 0.0000
0.7163 0.1060 0.0000
0.7198 0.0798 0.0000
0.6281 0.3611 0.0000
0.5343 0.4893 0.0000
0.5589 0.4611 0.0000
0.7050 0.1673 0.0000
0.5931 0.4166 0.0000
0.6753 0.2638 0.0000
0.6502 0.3210 0.0000
0.6847 0.2390 0.0000
0.7232 0.0536 0.0000
0.5995 0.4089 0.0000
0.6660 0.2885 0.0000
0.5089 0.5179 0.0000
0.7141 0.1320 0.0000
0.7257 0.0280 0.0000
0.6345 0.3534 0.0000
0.6940 0.2143 0.0000
0.6059 0.4012 0.0000
0.7095 0.1583 0.0000
0.7208 0.0971 0.0000
0.5299 0.4983 0.0000
0.6566 0.3133 0.0000
0.7243 0.0708 0.0000
0.5019 0.5270 0.0000
0.6123 0.3935 0.0000
0.7174 0.1232 0.0000
0.6409 0.3457 0.0000
0.6817 0.2561 0.0000
0.6724 0.2808 0.0000
0.6911 0.2313 0.0000
0.7277 0.0446 0.0000
0.6187 0.3858 0.0000
0.7296 0.0177 0.0000
0.7061 0.1846 0.0000
0.6630 0.3056 0.0000
0.5561 0.4731 0.0000
0.6473 0.3380 0.0000
0.7004 0.2066 0.0000
0.7253 0.0881 0.0000
0.6251 0.3781 0.0000
0.7157 0.1477 0.0000
0.7218 0.1143 0.0000
0.5710 0.4567 0.0000
0.7287 0.0619 0.0000
0.5774 0.4490 0.0000
0.5244 0.5101 0.0000
0.6881 0.2484 0.0000
0.6788 0.2732 0.0000
0.5838 0.4413 0.0000
0.7105 0.1756 0.0000
[...]
         <PointData>
            <DataArray Name="fValues" NumberOfComponents="3" format="ascii" type="Float64">
 3.74685e-21  1.87342e-21        00000 
       00000        00000        00000 
 6.77173e-06  5.95800e-06        00000 
 5.34924e-06  2.11855e-06        00000 
-3.40611e-22 -6.94475e-22        00000 
 1.12448e-05  5.44776e-06        00000 
 1.36835e-05  9.83265e-06        00000 
 5.45950e-06  1.64570e-06        00000 
 1.13452e-05  3.48681e-06        00000 
-2.24946e-21  1.40591e-22        00000 
 1.99942e-05  1.14716e-05        00000 
 1.96058e-05  8.17823e-06        00000 
 1.14065e-05  2.93081e-06        00000 
 1.74347e-05  4.36272e-06        00000 
 2.09034e-05  5.85222e-06        00000 
-1.01190e-23 -2.94065e-22        00000 
 2.50350e-05  1.18557e-05        00000 
 1.11393e-05  2.54543e-06        00000 
 2.46150e-05  7.86237e-06        00000 
 4.81738e-06  1.04878e-06        00000 
 2.29262e-05  4.99010e-06        00000 
 2.61938e-05  5.80436e-06        00000 
 4.21747e-23 -3.81698e-22        00000 
 2.01464e-05  4.00991e-06        00000 
 1.02587e-05  1.77167e-06        00000 
 2.86893e-05  1.18651e-05        00000 
 7.10925e-05  1.22066e-05        00000 
 2.87034e-05  7.92701e-06        00000 
 7.09506e-05  8.09983e-06        00000 
 5.00385e-06  7.23862e-07        00000 
 2.63618e-05  4.90936e-06        00000 
 2.87290e-05  5.03613e-06        00000 
-1.98927e-22 -5.59481e-23        00000 
 2.92526e-05  5.43521e-06        00000 
 7.04803e-05  5.59374e-06        00000 
 2.05596e-05  3.15131e-06        00000 
 1.39817e-05  1.68160e-06        00000 
 1.06797e-05  1.09657e-06        00000 
 2.80221e-05  4.91307e-06        00000 
 4.08925e-06  2.28419e-07        00000 
 3.22324e-05  5.07119e-06        00000 
 3.11748e-05  4.45130e-06        00000 
 6.82805e-05  4.56986e-06        00000 
 2.05929e-05  2.16941e-06        00000 
 1.37689e-05  8.87859e-07        00000 
 1.69949e-05  1.35083e-06        00000 
 2.40359e-05  2.79194e-06        00000 
-2.22799e-21  1.32011e-22        00000 
 7.52756e-05  1.21123e-05        00000 
 2.77697e-05  3.82985e-06        00000 
 1.08495e-05  4.87684e-07        00000 
 7.39832e-05  6.62553e-06        00000 
 3.31370e-05  5.09152e-06        00000 
 6.19513e-06 -2.63908e-08        00000 
 2.13109e-05  1.41022e-06        00000 
 1.97067e-05  1.13805e-06        00000 
 2.29420e-05  1.70487e-06        00000 
 3.35541e-06 -6.73935e-08        00000 
 1.68569e-05  6.38109e-07        00000 
 2.71025e-05  2.55931e-06        00000 
 3.55866e-05  5.09600e-06        00000 
 1.42472e-05  3.20259e-07        00000 
 3.40476e-05  4.38590e-06        00000 
 6.56413e-05  4.15091e-06        00000 
 2.87904e-05  2.92888e-06        00000 
 3.05127e-05  3.33965e-06        00000 
 1.26996e-05  8.89882e-08        00000 
 1.12663e-05 -1.07985e-08        00000 
-9.76836e-23 -4.77137e-23        00000 
 7.29222e-05  5.17265e-06        00000 
 3.46061e-05  4.47178e-06        00000 
 2.15748e-05  7.75388e-07        00000 
 2.32437e-05  1.03452e-06        00000 
 1.99251e-05  5.33178e-07        00000 
 2.49417e-05  1.31494e-06        00000 
 7.85701e-06 -2.99310e-07        00000 
 1.59281e-05  8.55309e-09        00000 
 3.64002e-05  4.99685e-06        00000 
 2.92789e-05  2.10681e-06        00000 
 1.43758e-05 -1.60242e-07        00000 
 1.77606e-05  7.82248e-08        00000 
 6.52617e-06 -3.53793e-07        00000 
 2.78553e-05  1.60461e-06        00000 
 7.75112e-05  8.61540e-06        00000 
 1.28522e-05 -3.07729e-07        00000 
 3.12140e-05  2.39316e-06        00000 
 3.28437e-05  2.86391e-06        00000 
 2.27738e-05  4.49545e-07        00000 
 2.19245e-05  3.33015e-07        00000 
 2.44909e-05  6.92336e-07        00000 
 3.89039e-05  5.02183e-06        00000 
 4.81400e-06 -3.71259e-07        00000 
 3.74032e-05  4.35845e-06        00000 
 6.26658e-05  4.02730e-06        00000 
 2.37797e-05  5.48541e-07        00000 
 1.94291e-05  1.36539e-08        00000 
 2.10931e-05  1.77287e-07        00000 
 2.71155e-05  1.09519e-06        00000 
 2.03970e-05  9.61309e-08        00000 
 2.55138e-05  7.91034e-07        00000 
 2.62201e-05  9.07115e-07        00000 
 2.80057e-05  1.23472e-06        00000 
 1.77993e-05 -1.79361e-07        00000 
 1.85875e-05 -1.23188e-07        00000 
 1.69914e-05 -2.68105e-07        00000 
 2.88913e-05  1.32488e-06        00000 
 1.15991e-05 -5.18898e-07        00000 
 2.98059e-05  1.52635e-06        00000 
 3.07168e-05  1.67950e-06        00000 
 1.63252e-05 -3.68529e-07        00000 
 9.25759e-06 -5.54501e-07        00000 
 1.54012e-05 -4.27942e-07        00000 
 3.56426e-05  3.24984e-06        00000 
 1.46183e-05 -4.99634e-07        00000 
 2.55115e-06 -2.56491e-07        00000 
 3.18189e-05  1.80861e-06        00000 
 3.25788e-05  1.99945e-06        00000 
 2.37695e-05  2.15780e-07        00000 
 2.29042e-05  1.04639e-07        00000 
 2.46428e-05  3.29761e-07        00000 
 1.38197e-05 -5.94126e-07        00000 
 2.20474e-05 -1.32704e-09        00000 
 3.35066e-05  2.16498e-06        00000 
 2.55232e-05  4.47743e-07        00000 
 2.12004e-05 -1.03793e-07        00000 
 1.30837e-05 -6.21711e-07        00000 
 3.78232e-05  3.83072e-06        00000 
 2.64127e-05  5.70160e-07        00000 
 2.03582e-05 -2.01706e-07        00000 
 2.73067e-05  6.95586e-07        00000 
 1.95239e-05 -2.96116e-07        00000 
 2.82092e-05  8.24187e-07        00000 
 1.86975e-05 -3.85998e-07        00000 
 1.23323e-05 -6.72420e-07        00000 
 3.44650e-05  2.27390e-06        00000 
 2.91225e-05  9.55418e-07        00000 
 7.94890e-06 -6.40690e-07        00000 
 1.78767e-05 -4.71378e-07        00000 
 3.54086e-05  2.51790e-06        00000 
 3.00426e-05  1.08932e-06        00000 
 1.70637e-05 -5.51198e-07        00000 
 3.09729e-05  1.22523e-06        00000 
 1.17078e-05 -7.33633e-07        00000 
 1.62579e-05 -6.25339e-07        00000 
 3.64050e-05  2.68624e-06        00000 
 3.19165e-05  1.36435e-06        00000 
 1.08629e-05 -7.51355e-07        00000 
 6.55102e-06 -6.31147e-07        00000 
 1.54619e-05 -6.94312e-07        00000 
 1.51609e-22  1.89512e-23        00000 
 4.02769e-05  4.49702e-06        00000 
 3.28742e-05  1.50631e-06        00000 
 1.46746e-05 -7.56053e-07        00000 
 3.74343e-05  2.87267e-06        00000 
 2.38154e-05 -9.23525e-08        00000 
 2.46966e-05  1.37788e-08        00000 
 2.29428e-05 -1.94853e-07        00000 
 2.55856e-05  1.23407e-07        00000 
 2.20787e-05 -2.93244e-07        00000 
 2.64838e-05  2.36005e-07        00000 
 2.12232e-05 -3.88306e-07        00000 
 3.38387e-05  1.65073e-06        00000 
 2.73884e-05  3.51832e-07        00000 
 2.03755e-05 -4.79374e-07        00000 
 1.38975e-05 -8.11834e-07        00000 
 1.01183e-05 -8.09355e-07        00000 
 2.83033e-05  4.70223e-07        00000 
 1.95346e-05 -5.66143e-07        00000 
 4.18851e-05  4.98896e-06        00000 
 2.92277e-05  5.90427e-07        00000 
 3.48211e-05  1.79585e-06        00000 
 9.43590e-06 -8.12471e-07        00000 
 1.87016e-05 -6.48883e-07        00000 
 1.31295e-05 -8.60581e-07        00000 
 4.08791e-05  4.41798e-06        00000 
 5.93767e-05  4.08588e-06        00000 
 3.01618e-05  7.13202e-07        00000 
 3.87440e-05  3.03178e-06        00000 
 1.78760e-05 -7.26241e-07        00000 
 3.58200e-05  1.94130e-06        00000 
 3.11074e-05  8.36829e-07        00000 
 3.96454e-05  3.31006e-06        00000 
 1.70578e-05 -7.98760e-07        00000 
 1.23730e-05 -9.02555e-07        00000 
 3.20660e-05  9.61926e-07        00000 
 1.62481e-05 -8.65503e-07        00000 
 3.68527e-05  2.08470e-06        00000 
 8.70970e-06 -8.51663e-07        00000 
 1.28507e-06 -1.92923e-07        00000 
 1.16268e-05 -9.37283e-07        00000 
 3.30396e-05  1.08792e-06        00000 
 4.07877e-05  3.58179e-06        00000 
 1.54474e-05 -9.26122e-07        00000 
 8.04892e-06 -8.40750e-07        00000 
 2.47503e-05 -3.01575e-07        00000 
 2.38629e-05 -4.00213e-07        00000 
 3.40262e-05  1.21469e-06        00000 
 3.79254e-05  2.22855e-06        00000 
 2.56477e-05 -1.99864e-07        00000 
 2.29826e-05 -4.94711e-07        00000 
 1.46576e-05 -9.80252e-07        00000 
 2.65548e-05 -9.59522e-08        00000 
 2.21110e-05 -5.85649e-07        00000 
 1.08932e-05 -9.66802e-07        00000 
 2.74705e-05  1.07306e-08        00000 
 2.12487e-05 -6.74392e-07        00000 
 5.43437e-06 -6.82525e-07        00000 
 2.83966e-05  1.19640e-07        00000 
 2.03937e-05 -7.58342e-07        00000 
 4.20583e-05  3.89627e-06        00000 
 3.50330e-05  1.34067e-06        00000 
 1.38768e-05 -1.02794e-06        00000 
 2.93321e-05  2.30856e-07        00000 
 7.36937e-06 -8.43529e-07        00000 
 1.95464e-05 -8.37980e-07        00000 
 3.90497e-05  2.37792e-06        00000 
 1.01701e-05 -9.90539e-07        00000 
 3.02787e-05  3.42298e-07        00000 
 1.87077e-05 -9.12732e-07        00000 
 3.60618e-05  1.46359e-06        00000 
 1.31059e-05 -1.06911e-06        00000 
 3.12372e-05  4.55197e-07        00000 
 1.78783e-05 -9.83550e-07        00000 
 4.32879e-05  4.27319e-06        00000 
 4.02443e-05  2.53085e-06        00000 
 3.22108e-05  5.68283e-07        00000 
 6.70523e-06 -8.35112e-07        00000 
 1.70549e-05 -1.04843e-06        00000 
 9.45612e-06 -1.00626e-06        00000 
 3.71238e-05  1.58402e-06        00000 
 1.23461e-05 -1.10332e-06        00000 
 3.47376e-06 -5.28063e-07        00000 
 3.31997e-05  6.81592e-07        00000 
 1.62415e-05 -1.10746e-06        00000 
 6.18303e-05  4.68451e-06        00000 
 4.15030e-05  2.69237e-06        00000 
 3.82280e-05  1.70062e-06        00000 
 2.19950e-05 -8.38915e-07        00000 
 3.42067e-05  7.92631e-07        00000 
 1.15970e-05 -1.13127e-06        00000 
 8.75325e-06 -1.01460e-06        00000 
 1.54368e-05 -1.16015e-06        00000 
 2.92767e-05 -6.07444e-08        00000 
 4.51444e-05  4.58146e-06        00000 
 2.48011e-05 -6.20274e-07        00000 
 2.57069e-05 -5.26849e-07        00000 
 2.75471e-05 -3.30499e-07        00000 
 4.48117e-05  4.30036e-06        00000 
 5.56416e-05  3.99373e-06        00000 
 3.52343e-05  9.02941e-07        00000 
 2.85797e-05 -2.04269e-07        00000 
 6.02908e-06 -8.34393e-07        00000 
 1.46426e-05 -1.20692e-06        00000 
 3.93860e-05  1.81432e-06        00000 
 2.12703e-05 -9.64684e-07        00000 
 4.28902e-05  2.85309e-06        00000 
 1.08589e-05 -1.15267e-06        00000 
 2.39226e-05 -7.74987e-07        00000 
 8.06048e-06 -1.01496e-06        00000 
 1.86574e-05 -1.14990e-06        00000 
 3.62875e-05  1.01015e-06        00000 
 3.03863e-05 -2.53956e-08        00000 
 2.67804e-05 -5.00498e-07        00000 
 1.38586e-05 -1.24725e-06        00000 
 5.41981e-06 -7.92333e-07        00000 
 2.29639e-05 -9.03987e-07        00000 
 8.00870e-05  1.15469e-05        00000 
 4.06166e-05  1.92457e-06        00000 
 3.13599e-05  7.61231e-08        00000 
 2.05508e-05 -1.08431e-06        00000 
 1.01316e-05 -1.16721e-06        00000 
 3.73750e-05  1.10886e-06        00000 
 4.44529e-05  3.00272e-06        00000 
 3.23468e-05  1.78264e-07        00000 
 1.30839e-05 -1.28041e-06        00000 
 1.78773e-05 -1.24585e-06        00000 
 6.52624e-05  4.92373e-06        00000 
 7.38025e-06 -1.00587e-06        00000 
 2.35588e-06 -4.22545e-07        00000 
 1.96487e-05 -1.19900e-06        00000 
 3.33501e-05  2.81797e-07        00000 
 4.19316e-05  2.02763e-06        00000 
 1.70493e-05 -1.30272e-06        00000 
 4.80249e-06 -7.57601e-07        00000 
 3.85034e-05  1.20598e-06        00000 
 9.41578e-06 -1.17409e-06        00000 
 1.23219e-05 -1.30748e-06        00000 
 2.63718e-05 -7.25830e-07        00000 
 4.64924e-05  3.11801e-06        00000 
 1.33188e-22  1.66363e-24        00000 
 6.71406e-06 -9.87956e-07        00000 
 3.43669e-05  3.20460e-07        00000 
 3.96890e-05  1.29606e-06        00000 
 4.33820e-05  2.11885e-06        00000 
 3.54199e-05  4.78205e-07        00000 
 1.15693e-05 -1.32759e-06        00000 
 1.54250e-05 -1.40082e-06        00000 
 2.57176e-05 -8.67701e-07        00000 
 2.98060e-05 -4.00387e-07        00000 
 8.71022e-06 -1.17309e-06        00000 
 2.23401e-05 -1.17318e-06        00000 
 1.64416e-05 -1.41926e-06        00000 
 3.64918e-05  5.70680e-07        00000 
 5.02603e-05  3.38415e-06        00000 
 1.46265e-05 -1.43955e-06        00000 
 4.09452e-05  1.37967e-06        00000 
 2.90192e-05 -5.73634e-07        00000 
 6.06237e-06 -9.60783e-07        00000 
 1.08278e-05 -1.34066e-06        00000 
 4.16968e-06 -7.27861e-07        00000 
 4.50368e-05  2.18842e-06        00000 
 2.48544e-05 -1.04569e-06        00000 
 8.01618e-06 -1.16363e-06        00000 
 1.91898e-05 -1.41259e-06        00000 
 5.55079e-05  4.53724e-06        00000 
 5.87858e-05  4.82099e-06        00000 
 2.16048e-05 -1.31516e-06        00000 
 2.82369e-05 -7.43445e-07        00000 
 3.33242e-05 -8.90742e-08        00000 
 4.22950e-05  1.45429e-06        00000 
 1.30492e-06 -2.74987e-07        00000 
 3.60119e-06 -6.66427e-07        00000 
 1.00974e-05 -1.34646e-06        00000 
 3.87485e-05  7.41918e-07        00000 
 1.39179e-05 -1.51300e-06        00000 
 3.25962e-05 -2.51454e-07        00000 
 2.41008e-05 -1.19875e-06        00000 
 4.70879e-05  2.24013e-06        00000 
 1.30611e-05 -1.49758e-06        00000 
 5.42493e-06 -9.24669e-07        00000 
 2.74595e-05 -9.09263e-07        00000 
 3.77933e-05  5.30807e-07        00000 
 7.33523e-06 -1.14507e-06        00000 
 1.84786e-05 -1.53512e-06        00000 
 3.17798e-05 -4.27467e-07        00000 
 2.08739e-05 -1.45197e-06        00000 
 4.37701e-05  1.51417e-06        00000 
 3.99539e-05  8.13727e-07        00000 
 9.37815e-06 -1.34424e-06        00000 
 2.33321e-05 -1.32633e-06        00000 
 1.22947e-05 -1.51686e-06        00000 
 2.66842e-05 -1.07071e-06        00000 
 3.09696e-05 -6.01436e-07        00000 
 5.00076e-05  2.38716e-06        00000 
 1.61517e-05 -1.62433e-06        00000 
 4.80280e-06 -8.80678e-07        00000 
 6.66813e-06 -1.11748e-06        00000 
 1.76163e-05 -1.62768e-06        00000 
 4.12254e-05  8.83211e-07        00000 
 6.25252e-05  4.86349e-06        00000 
 2.01039e-05 -1.56822e-06        00000 
 3.45131e-05 -1.79951e-07        00000 
 4.54357e-05  1.56462e-06        00000 
 1.15396e-05 -1.52912e-06        00000 
 3.73151e-05  2.25264e-07        00000 
 3.01641e-05 -7.71214e-07        00000 
 3.00778e-06 -6.10035e-07        00000 
 8.67048e-06 -1.33396e-06        00000 
 3.65748e-05  9.27783e-08        00000 
 2.59122e-05 -1.22794e-06        00000 
 2.26044e-05 -1.49093e-06        00000 
 1.54761e-05 -1.68734e-06        00000 
 5.38198e-05  3.05749e-06        00000 
 3.55503e-05 -1.27805e-07        00000 
 2.93645e-05 -9.38090e-07        00000 
 6.94864e-05  4.94017e-06        00000 
 4.25890e-05  9.43187e-07        00000 
 1.07950e-05 -1.53354e-06        00000 
 6.01537e-06 -1.08082e-06        00000 
 2.47450e-06 -5.31015e-07        00000 
 5.66355e-05  4.04581e-06        00000 
 4.73947e-05  1.61640e-06        00000 
 4.19446e-06 -8.27451e-07        00000 
 2.51459e-05 -1.38135e-06        00000 
 7.97468e-06 -1.31479e-06        00000 
 1.94234e-05 -1.70860e-06        00000 
 3.38364e-05 -4.71793e-07        00000 
 2.85696e-05 -1.10166e-06        00000 
 1.47517e-05 -1.73742e-06        00000 
 1.70679e-05 -1.76020e-06        00000 
 2.18624e-05 -1.62957e-06        00000 
 1.28967e-05 -1.69729e-06        00000 
 1.00621e-05 -1.53036e-06        00000 
 3.29957e-05 -6.42641e-07        00000 
 2.43836e-05 -1.53061e-06        00000 
 4.42746e-05  9.44239e-07        00000 
 4.98379e-05  1.75396e-06        00000 
 2.77804e-05 -1.26211e-06        00000 
 5.37678e-06 -1.03539e-06        00000 
 7.29363e-06 -1.28679e-06        00000 
 3.21635e-05 -8.11340e-07        00000 
 3.60284e-06 -7.62654e-07        00000 
 1.87052e-05 -1.82772e-06        00000 
 4.57059e-05  1.04558e-06        00000 
 2.11233e-05 -1.76296e-06        00000 
 4.14548e-05  4.34107e-07        00000 
 1.38579e-05 -1.80055e-06        00000 
 9.34027e-06 -1.51915e-06        00000 
 1.22687e-05 -1.73100e-06        00000 
 1.63695e-05 -1.86260e-06        00000 
 4.07017e-05  2.87148e-07        00000 
 3.13382e-05 -9.77901e-07        00000 
 2.69955e-05 -1.41958e-06        00000 
 3.86737e-05 -2.36439e-08        00000 
 3.97057e-05  1.20536e-07        00000 
 2.36247e-05 -1.67546e-06        00000 
 1.93488e-06 -4.53147e-07        00000 
-4.52518e-23  3.95953e-23        00000 
 3.78081e-05 -2.07036e-07        00000 
 5.32458e-05  2.23445e-06        00000 
 6.62527e-06 -1.24956e-06        00000 
 4.75361e-06 -9.80605e-07        00000 
 3.05200e-05 -1.14204e-06        00000 
 4.75569e-05  1.10972e-06        00000 
 4.27101e-05  4.50008e-07        00000 
 1.15090e-05 -1.73451e-06        00000 
 3.68930e-05 -3.72717e-07        00000 
 2.03900e-05 -1.89102e-06        00000 
 2.62140e-05 -1.57306e-06        00000 
 1.79926e-05 -1.94044e-06        00000 
 3.02999e-06 -6.87969e-07        00000 
 3.59960e-05 -5.36831e-07        00000 
 2.28708e-05 -1.81623e-06        00000 
 5.58719e-05  2.95917e-06        00000 
 8.61850e-06 -1.51798e-06        00000 
 1.50407e-06 -3.70663e-07        00000 
 2.97082e-05 -1.30364e-06        00000 
 1.56771e-05 -1.95739e-06        00000 
 3.51166e-05 -7.02926e-07        00000 
 1.07598e-05 -1.73013e-06        00000 
 5.97088e-06 -1.20317e-06        00000 
 4.96914e-05  1.23713e-06        00000 
 2.54384e-05 -1.72293e-06        00000 
 4.14606e-06 -9.15399e-07        00000 
 5.82977e-05  3.81092e-06        00000 
 3.42482e-05 -8.66956e-07        00000 
 7.93327e-06 -1.47004e-06        00000 
 2.89027e-05 -1.46266e-06        00000 
 1.96606e-05 -2.01340e-06        00000 
 2.21212e-05 -1.95187e-06        00000 
 1.72839e-05 -2.04671e-06        00000 
 2.47505e-06 -6.01766e-07        00000 
 3.33899e-05 -1.03028e-06        00000 
 9.29845e-07 -2.42380e-07        00000 
 1.30174e-05 -1.94682e-06        00000 
 2.46675e-05 -1.86896e-06        00000 
 4.47886e-05  3.73057e-07        00000 
 2.81014e-05 -1.61898e-06        00000 
 1.49897e-05 -2.04451e-06        00000 
 5.33114e-06 -1.14715e-06        00000 
 3.25429e-05 -1.19254e-06        00000 
 9.88565e-06 -1.73136e-06        00000 
 7.25012e-06 -1.43264e-06        00000 
 4.23107e-05 -1.28275e-09        00000 
 3.55553e-06 -8.39725e-07        00000 
 4.12449e-05 -1.55743e-07        00000 
 5.29437e-05  1.62148e-06        00000 
 1.89353e-05 -2.12949e-06        00000 
 2.13751e-05 -2.08239e-06        00000 
 4.02245e-05 -3.09827e-07        00000 
 1.22428e-05 -1.94924e-06        00000 
 7.39498e-05  4.84327e-06        00000 
 4.66073e-05  4.90876e-07        00000 
 3.17046e-05 -1.35352e-06        00000 
 3.92388e-05 -4.65023e-07        00000 
 2.73065e-05 -1.77252e-06        00000 
 1.65795e-05 -2.14579e-06        00000 
 2.39013e-05 -2.01097e-06        00000 
 1.94013e-06 -5.04415e-07        00000 
 3.82808e-05 -6.21680e-07        00000 
 4.39577e-05  9.54371e-08        00000 
 6.12836e-05  4.26851e-06        00000 
 5.52907e-05  2.16990e-06        00000 
 3.73465e-05 -7.79055e-07        00000 
 3.08728e-05 -1.51283e-06        00000 
 6.58124e-06 -1.38528e-06        00000 
 4.70761e-06 -1.08112e-06        00000 
 4.51404e-07 -1.27722e-07        00000 
 1.14792e-05 -1.94414e-06        00000 
 1.42363e-05 -2.12634e-06        00000 
 2.65168e-05 -1.92292e-06        00000 
 3.64309e-05 -9.37412e-07        00000 
 2.06348e-05 -2.20774e-06        00000 
 1.82163e-05 -2.23978e-06        00000 
 2.98335e-06 -7.53036e-07        00000 
 2.31385e-05 -2.14862e-06        00000 
 9.26669e-06 -1.75986e-06        00000 
 5.74370e-05  2.80992e-06        00000 
 3.00494e-05 -1.67037e-06        00000 
 4.87979e-05  5.77644e-07        00000 
 3.55335e-05 -1.09601e-06        00000 
 1.06724e-05 -1.91551e-06        00000 
 1.58819e-05 -2.23765e-06        00000 
 7.83925e-06 -1.61111e-06        00000 
 3.46497e-05 -1.25481e-06        00000 
 1.42457e-06 -3.95694e-07        00000 
 2.57312e-05 -2.06990e-06        00000 