<?xml version="1.0" encoding="utf-8"?>
<VTKFile byte_order="LittleEndian" type="UnstructuredGrid" version="0.1">
   <UnstructuredGrid>
      <Piece NumberOfCells="53116" NumberOfPoints="13461">
         <Points>
            <DataArray Name="Points" NumberOfComponents="3" format="ascii" type="Float32">
220.0000 20.5430 -20.3100
219.0000 20.5430 -20.3100
220.0000 20.5430 -21.8100
220.0000 22.0560 -20.3100
219.0000 21.8340 -20.3100
219.0000 20.5430 -21.8100
219.0000 23.0010 -20.3100
219.0000 22.4380 -22.0830
220.0000 22.8290 -21.9160
219.0000 23.0660 -21.0560
220.0000 20.5430 -23.3100
220.0000 23.6030 -20.3100
219.0000 20.5430 -23.3100
220.0000 22.0520 -23.3100
219.0000 21.8770 -23.3100
219.3400 23.7810 -21.4490
219.5100 23.9990 -20.7310
217.9500 21.9520 -22.9490
219.0000 24.0290 -20.5450
219.0000 24.0510 -20.3100
218.0700 23.7120 -21.0000
217.5400 23.0140 -21.8020
219.9600 23.2550 -23.3100
218.4300 23.8030 -22.1770
218.5600 23.1430 -23.2620
220.0000 24.5400 -21.5780
220.0000 23.6070 -23.3100
219.1600 24.8030 -21.2530
217.1700 21.7830 -23.5140
218.3700 24.5800 -21.2700
219.0000 25.0310 -20.3100
220.0000 25.1850 -20.3100
216.5700 22.9630 -22.3050
219.2900 24.5480 -22.7750
217.0000 24.1930 -21.0320
219.5500 25.3150 -21.0880
218.0600 21.0810 -24.7700
220.0700 22.7940 -24.7330
219.4500 25.2870 -22.2000
219.6500 25.7280 -20.3100
217.2100 24.5010 -22.3260
218.2600 25.0130 -22.4430
216.2300 24.0790 -21.3600
217.8400 25.4360 -20.1820
219.6800 25.8700 -20.8830
219.9200 24.9930 -23.3100
216.9600 25.1510 -20.4110
220.0000 25.2140 -23.3100
218.8000 26.0300 -20.8560
218.3800 22.6520 -25.3170
219.4800 24.1600 -24.7360
219.1900 21.4070 -25.9750
219.6500 26.3890 -21.3780
219.8100 25.9270 -22.8800
216.8000 25.4610 -21.5640
219.9200 26.4530 -21.5170
219.0900 25.9280 -23.0520
218.9700 26.3380 -22.2320
215.9700 25.2480 -20.5160
219.7800 26.7780 -20.3100
216.6300 23.7300 -24.5020
220.0000 26.8010 -20.3100
214.9200 22.9550 -23.0690
220.2700 24.2550 -25.3550
216.8500 20.9080 -25.7350
219.7100 25.6290 -24.2270
218.9100 26.9080 -19.9260
219.1900 26.9050 -21.2450
219.1500 24.7130 -25.2550
218.4300 25.3630 -24.4940
218.3500 26.2340 -23.2240
219.9300 25.1100 -25.1050
219.5900 27.1650 -20.4430
217.5700 26.3670 -22.3610
217.7300 26.8440 -21.1210
214.6200 24.5180 -21.3860
219.9300 22.8580 -26.7150
219.4800 27.1800 -21.8430
219.4800 26.8260 -23.0400
217.9700 27.0690 -19.5610
219.8900 26.7400 -23.3100
216.5800 26.4920 -19.6950
219.7400 27.3580 -21.4570
215.8000 24.6630 -24.0200
216.6700 26.2710 -22.5610
220.0000 26.8740 -23.3100
219.1900 25.5430 -25.3100
217.9200 26.3730 -23.8600
217.9300 24.3160 -26.0910
219.4800 25.2220 -25.8030
219.0400 26.4800 -24.3820
215.7800 26.4550 -19.7950
218.7700 27.6800 -21.3140
219.8700 27.8540 -20.3100
218.1900 27.6260 -20.6470
214.6100 21.8050 -25.0980
218.3500 27.4900 -22.2050
217.7500 25.5430 -25.3100
218.0900 27.0550 -23.3830
216.8800 27.3090 -19.2640
219.7500 27.9780 -21.4830
215.5500 26.5910 -21.3760
219.7800 24.6310 -26.7600
218.7000 28.1070 -19.5300
214.4400 25.9030 -20.3140
215.9100 24.2930 -25.7150
219.4300 27.8720 -22.7960
215.5800 20.9290 -26.6760
218.5300 25.5430 -26.0810
218.8800 28.1450 -21.8950
214.5500 24.6780 -24.1670
218.0300 26.2710 -25.3100
216.1000 27.3740 -20.5820
220.0000 28.4530 -20.3100
218.7600 27.2310 -24.3560
219.3700 28.4120 -21.0210
216.3800 25.5430 -25.3100
217.2900 28.0080 -20.2130
213.2300 23.0080 -23.7430
216.3300 22.7370 -27.0830
218.9100 28.5040 -20.3430
213.0000 23.8400 -22.5200
216.2700 27.6350 -21.2880
219.8400 28.5520 -21.4110
217.4900 28.1940 -18.9190
218.2000 21.4650 -28.2770
217.9300 28.2230 -22.6920
213.0600 25.0910 -21.0640
217.5800 28.5340 -21.2910
219.5500 28.7460 -22.2110
219.7100 28.4330 -23.3100
215.6400 27.7060 -19.2070
219.9300 29.0290 -20.3100
217.2600 26.9250 -25.3100
220.0000 28.5870 -23.3100
217.6800 25.5430 -26.9090
215.1000 25.5430 -25.3100
219.8200 29.0410 -22.0650
219.4100 29.1400 -21.4830
215.3300 27.4930 -22.7100
214.3100 27.1300 -19.7780
214.6600 26.3080 -24.2000
217.3800 28.9180 -19.8730
216.2600 25.5430 -26.5270
217.9100 29.1260 -21.1610
216.1300 28.5590 -19.4020
218.9700 28.8830 -23.3950
218.5300 29.3680 -19.9200
216.2000 20.7690 -28.4670
218.8300 29.4530 -21.0320
219.2400 29.4310 -21.7370
218.8600 23.4470 -28.8020
215.6700 23.0510 -27.8640
214.0100 22.4740 -26.9020
213.9600 27.2510 -21.6260
218.7900 29.1780 -23.0220
217.1500 23.3360 -28.5770
216.1700 28.6630 -22.3820
211.6800 23.6630 -23.0490
213.3600 26.5210 -22.8750
215.7100 28.7790 -20.7690
211.6700 24.3750 -21.9250
219.6900 29.7740 -21.5440
213.8900 25.5430 -25.3100
214.2100 21.0330 -27.6310
216.1300 24.8300 -27.7190
212.8900 26.6850 -20.1390
218.6400 29.8410 -20.2460
218.0700 25.0170 -28.3560
213.3300 24.4370 -25.6980
216.8000 25.5430 -27.6860
216.2200 27.6490 -25.3100
216.7500 29.4170 -21.0440
214.9000 26.7800 -25.3100
215.6400 28.0270 -24.2830
212.2700 22.4820 -25.5410
217.3500 29.7080 -20.0020
218.6200 29.8140 -22.1480
218.1500 29.7520 -18.5450
220.0000 30.1390 -20.3100
211.6000 23.1150 -24.2770
217.5100 29.4690 -23.0080
216.1800 29.1860 -18.3000
211.5800 25.2580 -20.9640
219.5500 30.0120 -22.3840
216.9600 28.4520 -25.0560
212.2500 24.9120 -24.3650
219.9700 30.3460 -20.3100
219.3600 30.4040 -19.9060
213.9800 26.6020 -25.3100
219.5200 30.3850 -21.3070
212.6900 21.8040 -26.9490
214.5200 25.5430 -26.9860
213.7700 27.2220 -24.3810
217.2000 30.0440 -21.9620
214.4900 27.9770 -24.2170
211.3400 24.9450 -23.0350
212.7700 25.5430 -25.3100
210.7400 24.0560 -22.3930
218.0200 30.4670 -20.8530
212.9000 26.3270 -24.6750
219.5000 30.2440 -23.3100
214.9100 29.2960 -19.3050
215.1200 27.9520 -25.3100
219.2000 30.6690 -21.0910
214.5900 24.6030 -27.9700
212.2400 24.6330 -25.5960
220.0000 30.3540 -23.3100
211.2700 22.9160 -25.2650
215.1000 22.7400 -29.1210
213.3300 25.5430 -26.4760
211.4100 26.3840 -20.3390
219.9700 30.9230 -20.8440
211.1900 25.7570 -22.1800
215.7600 24.5140 -28.9640
218.3900 30.6610 -22.3940
216.3100 25.4420 -28.7950
215.6500 28.7590 -25.2210
214.1200 27.6810 -25.3100
219.1400 30.7800 -22.7270
210.4500 24.9820 -21.2010
215.6000 25.5430 -28.6030
214.0500 22.6600 -28.8750
212.8800 24.2720 -27.2940
219.3900 31.2500 -20.8670
210.2400 23.4080 -23.8460
218.6500 31.2140 -19.8420
214.7500 29.3830 -23.5300
211.0400 23.6560 -25.5750
215.3400 30.2310 -21.7410
211.1400 26.6910 -21.4780
213.2200 27.3830 -25.3100
219.4800 31.3480 -21.4200
211.7300 25.5430 -25.3100
210.6400 23.1060 -25.2320
212.4200 28.3900 -20.4280
216.1900 30.3420 -23.2760
212.2400 25.5430 -26.1690
214.3000 20.7310 -29.6530
219.1800 31.2180 -22.6300
216.7700 29.9360 -25.0200
212.2500 22.6680 -27.8110
217.7800 30.9050 -23.2440
211.2500 24.5940 -25.6430
210.5400 26.2780 -20.4130
213.5700 29.5580 -20.3920
212.7100 21.1690 -28.6300
216.5500 30.6590 -17.2730
212.3400 27.8160 -23.7930
218.2400 31.5460 -21.1950
210.6600 22.9960 -25.9420
211.7900 26.9950 -24.3100
215.8000 21.2670 -30.6630
217.2300 31.4170 -20.2210
219.9000 31.7420 -21.1230
214.1000 28.8050 -25.1250
212.2000 28.4890 -22.0760
220.0000 31.8600 -20.3100
211.1700 27.6310 -20.4470
213.1900 28.9770 -23.6080
214.2700 25.5430 -28.7130
210.0800 25.5120 -22.6380
219.9800 31.8950 -20.3100
213.2000 25.5430 -27.9660
218.7300 31.7410 -22.1730
209.3500 24.3800 -21.8270
210.7900 22.7730 -26.7250
218.9800 31.8400 -18.7790
213.3300 24.2940 -28.8390
212.0500 27.1320 -25.3100
215.6900 25.3840 -29.8350
209.9000 23.2900 -25.1760
211.4400 24.5070 -26.9640
210.5200 23.7250 -26.0910
216.6000 22.8420 -31.1550
210.7600 25.5430 -25.3100
216.6300 24.5180 -30.7860
211.9800 27.7040 -24.9330
214.5000 30.8830 -20.1110
211.2500 25.5430 -26.3110
212.1100 25.5430 -27.4410
219.5200 32.3290 -20.5410
212.5400 28.6130 -24.7290
217.9800 31.8500 -17.3880
214.9200 24.1820 -30.3870
210.7500 26.7890 -24.3270
211.1100 27.8430 -23.2580
215.9500 31.5040 -22.6060
208.9100 23.5560 -23.4450
214.0700 30.3080 -23.7420
218.5300 32.4140 -20.9160
209.8100 23.3200 -25.9660
220.0000 32.1750 -23.3100
214.7400 30.1880 -25.1690
219.3200 32.1690 -23.3100
210.6900 27.9000 -22.3050
211.1300 27.0220 -25.3100
209.6000 24.1300 -25.2830
210.9500 28.5930 -21.0990
215.4800 31.6830 -18.5140
209.8500 23.2870 -26.4570
209.3600 25.6110 -23.4960
209.1400 23.4490 -25.0920
210.9800 27.5420 -24.8730
212.8000 25.4460 -29.0350
212.1400 29.9150 -21.9140
209.6500 24.0770 -26.0170
211.3600 28.4190 -24.3020
212.9500 29.7160 -24.6500
209.8700 27.6340 -20.6580
210.9700 25.5430 -27.1410
213.6500 25.4880 -29.7170
209.8100 25.5430 -25.3100
209.2800 23.5080 -25.8370
213.2700 30.9310 -21.6530
209.3100 26.7170 -22.1000
216.5800 31.6270 -25.0360
218.1000 32.2840 -24.2550
211.0100 21.6840 -28.9780
209.9400 27.5040 -23.1570
212.0000 29.5670 -23.9020
219.0600 33.0770 -20.9610
218.5900 33.0500 -19.5280
208.5700 25.9880 -20.5570
216.7800 32.1450 -16.2810
216.7800 32.7080 -22.1440
210.2300 26.9830 -25.3100
211.7200 25.3720 -28.6950
210.8100 29.2060 -22.0800
209.1800 23.6370 -26.4890
210.9100 29.1060 -23.3610
209.6600 25.0280 -26.5130
214.7300 25.3140 -31.0300
210.3800 28.2930 -24.1120
211.4400 21.0130 -30.0530
210.0000 27.4910 -24.8540
209.9800 25.5430 -26.9370
219.9800 33.5590 -20.3100
219.8600 33.5810 -20.9690
207.6100 23.6290 -23.1150
220.0000 33.6150 -20.3100
209.9400 22.6420 -28.3980
212.4400 24.5210 -30.2520
212.7300 31.0100 -23.5780
213.2600 30.9960 -24.6360
209.1100 23.7120 -27.0490
209.2500 24.3570 -26.9750
208.8000 25.5430 -25.3100
213.0300 20.7540 -31.5710
210.1100 25.3270 -27.7120
214.2400 32.4370 -21.2340
210.7300 23.1120 -29.4300
212.2700 22.2880 -30.9470
219.0200 33.7660 -21.0030
209.1000 24.8860 -26.5400
215.5100 32.8690 -22.5770
209.6500 28.7790 -21.8420
218.7800 33.6190 -22.6330
208.0800 24.8990 -24.5380
215.1800 24.3280 -32.2040
217.3100 33.5350 -22.1940
209.3700 27.0040 -25.3100
208.9100 27.2510 -23.7830
209.2200 23.5000 -27.7680
208.4900 24.0010 -26.3400
209.8100 28.9080 -22.9910
214.9400 32.0090 -25.2040
207.7900 23.7890 -25.2310
208.5300 25.0160 -26.0170
217.4200 33.8700 -20.8750
215.9500 33.0840 -16.9890
208.6400 24.0980 -26.9200
[...]
         <PointData>
            <DataArray Name="fValues" NumberOfComponents="3" format="ascii" type="Float64">
 7.63156e-01 -1.44701e+00 -3.83630e+00 
 7.62766e-01 -1.44797e+00 -3.79668e+00 
 7.05041e-01 -1.53099e+00 -3.83505e+00 
 7.60490e-01 -1.44621e+00 -3.91966e+00 
 7.60867e-01 -1.44760e+00 -3.86845e+00 
 7.04955e-01 -1.53220e+00 -3.79633e+00 
 7.58769e-01 -1.44600e+00 -3.93485e+00 
 6.92304e-01 -1.54625e+00 -3.90071e+00 
 6.99125e-01 -1.53628e+00 -3.96077e+00 
 7.29996e-01 -1.48820e+00 -3.93827e+00 
 6.48177e-01 -1.61342e+00 -3.83539e+00 
 7.58138e-01 -1.44564e+00 -4.00814e+00 
 6.47835e-01 -1.61414e+00 -3.79650e+00 
 6.48695e-01 -1.61469e+00 -3.91555e+00 
 6.47838e-01 -1.61520e+00 -3.86739e+00 
 7.15049e-01 -1.51040e+00 -3.99248e+00 
 7.41605e-01 -1.46983e+00 -4.01250e+00 
 6.59399e-01 -1.59369e+00 -3.83462e+00 
 7.48300e-01 -1.45921e+00 -3.99511e+00 
 7.57107e-01 -1.44542e+00 -3.99620e+00 
 7.29790e-01 -1.48522e+00 -3.94189e+00 
 6.99588e-01 -1.52936e+00 -3.88202e+00 
 6.49034e-01 -1.61418e+00 -3.98012e+00 
 6.87263e-01 -1.55101e+00 -3.95871e+00 
 6.49674e-01 -1.61198e+00 -3.92331e+00 
 7.10519e-01 -1.51691e+00 -4.06101e+00 
 6.48887e-01 -1.61395e+00 -4.00189e+00 
 7.21764e-01 -1.49970e+00 -4.04569e+00 
 6.39039e-01 -1.62490e+00 -3.79761e+00 
 7.20017e-01 -1.50082e+00 -4.00315e+00 
 7.57541e-01 -1.44694e+00 -4.05367e+00 
 7.59465e-01 -1.44865e+00 -4.10135e+00 
 6.80012e-01 -1.55763e+00 -3.84459e+00 
 6.65893e-01 -1.58371e+00 -4.03264e+00 
 7.26382e-01 -1.48725e+00 -3.93100e+00 
 7.28775e-01 -1.49110e+00 -4.09123e+00 
 5.97816e-01 -1.69573e+00 -3.78718e+00 
 6.01880e-01 -1.69436e+00 -3.95278e+00 
 6.86840e-01 -1.55205e+00 -4.08375e+00 
 7.59553e-01 -1.44830e+00 -4.12043e+00 
 6.79635e-01 -1.55888e+00 -3.95464e+00 
 6.76333e-01 -1.56544e+00 -4.02251e+00 
 7.12573e-01 -1.50564e+00 -3.89659e+00 
 7.60358e-01 -1.44211e+00 -4.03401e+00 
 7.37600e-01 -1.48064e+00 -4.12968e+00 
 6.47002e-01 -1.61229e+00 -4.08055e+00 
 7.49871e-01 -1.45457e+00 -3.98444e+00 
 6.46297e-01 -1.61173e+00 -4.09740e+00 
 7.36929e-01 -1.47944e+00 -4.10469e+00 
 5.81252e-01 -1.72598e+00 -3.88545e+00 
 6.01350e-01 -1.69310e+00 -4.01092e+00 
 5.59614e-01 -1.76395e+00 -3.84204e+00 
 7.19217e-01 -1.50823e+00 -4.15862e+00 
 6.62149e-01 -1.58890e+00 -4.13411e+00 
 7.06325e-01 -1.51754e+00 -3.99534e+00 
 7.14660e-01 -1.51605e+00 -4.17250e+00 
 6.55258e-01 -1.59836e+00 -4.10613e+00 
 6.85185e-01 -1.55425e+00 -4.12766e+00 
 7.43324e-01 -1.46042e+00 -3.95487e+00 
 7.60745e-01 -1.45114e+00 -4.18811e+00 
 6.07139e-01 -1.67849e+00 -3.88611e+00 
 7.61303e-01 -1.45166e+00 -4.19801e+00 
 6.51115e-01 -1.59761e+00 -3.78798e+00 
 5.82544e-01 -1.72763e+00 -4.04094e+00 
 5.66055e-01 -1.74755e+00 -3.73656e+00 
 6.14736e-01 -1.66268e+00 -4.10842e+00 
 7.73915e-01 -1.43133e+00 -4.16115e+00 
 7.23058e-01 -1.50193e+00 -4.17141e+00 
 5.84202e-01 -1.72134e+00 -4.02990e+00 
 6.06664e-01 -1.67787e+00 -4.04427e+00 
 6.48152e-01 -1.60773e+00 -4.09609e+00 
 5.88730e-01 -1.71219e+00 -4.08057e+00 
 7.54891e-01 -1.45913e+00 -4.20356e+00 
 6.78549e-01 -1.56139e+00 -4.07574e+00 
 7.25118e-01 -1.49557e+00 -4.11065e+00 
 7.08781e-01 -1.50671e+00 -3.86523e+00 
 5.38522e-01 -1.80538e+00 -3.94695e+00 
 7.00265e-01 -1.53422e+00 -4.19870e+00 
 6.54442e-01 -1.59788e+00 -4.17601e+00 
 7.86201e-01 -1.41308e+00 -4.13393e+00 
 6.44816e-01 -1.61227e+00 -4.18670e+00 
 7.76777e-01 -1.41903e+00 -4.04754e+00 
 7.15437e-01 -1.51379e+00 -4.22003e+00 
 6.21217e-01 -1.65050e+00 -3.91093e+00 
 6.70539e-01 -1.57114e+00 -4.03566e+00 
 6.44299e-01 -1.61207e+00 -4.19895e+00 
 5.80754e-01 -1.72320e+00 -4.08048e+00 
 6.25141e-01 -1.64228e+00 -4.08680e+00 
 5.57499e-01 -1.76737e+00 -3.96108e+00 
 5.67637e-01 -1.75136e+00 -4.06955e+00 
 6.06485e-01 -1.67079e+00 -4.13493e+00 
 7.70862e-01 -1.42385e+00 -4.01587e+00 
 7.19402e-01 -1.50693e+00 -4.20000e+00 
 7.60030e-01 -1.45315e+00 -4.25568e+00 
 7.44521e-01 -1.47188e+00 -4.17408e+00 
 5.84904e-01 -1.70858e+00 -3.71304e+00 
 6.84428e-01 -1.55350e+00 -4.17118e+00 
 5.78731e-01 -1.72286e+00 -4.02785e+00 
 6.40084e-01 -1.61607e+00 -4.13409e+00 
 7.95391e-01 -1.39901e+00 -4.10561e+00 
 7.13508e-01 -1.51577e+00 -4.25733e+00 
 7.11302e-01 -1.50748e+00 -4.01354e+00 
 5.38687e-01 -1.80630e+00 -4.04159e+00 
 7.90429e-01 -1.41495e+00 -4.22208e+00 
 7.47724e-01 -1.45025e+00 -3.93547e+00 
 5.68408e-01 -1.74394e+00 -3.89082e+00 
 6.61976e-01 -1.58586e+00 -4.23702e+00 
 5.36207e-01 -1.79597e+00 -3.69684e+00 
 5.58479e-01 -1.76568e+00 -4.05166e+00 
 6.96843e-01 -1.53799e+00 -4.23096e+00 
 6.15340e-01 -1.65694e+00 -3.86797e+00 
 5.74301e-01 -1.72273e+00 -4.08266e+00 
 7.42653e-01 -1.46698e+00 -4.07784e+00 
 7.59488e-01 -1.45396e+00 -4.29643e+00 
 6.02954e-01 -1.66871e+00 -4.17000e+00 
 7.31269e-01 -1.49243e+00 -4.26702e+00 
 5.77382e-01 -1.72054e+00 -3.97907e+00 
 7.60265e-01 -1.45030e+00 -4.16006e+00 
 6.26094e-01 -1.63217e+00 -3.73455e+00 
 5.26909e-01 -1.81949e+00 -3.81822e+00 
 7.58026e-01 -1.45803e+00 -4.25344e+00 
 6.66141e-01 -1.56580e+00 -3.77299e+00 
 7.16485e-01 -1.50420e+00 -4.09810e+00 
 7.16225e-01 -1.51259e+00 -4.29447e+00 
 8.13127e-01 -1.38610e+00 -4.17843e+00 
 4.88794e-01 -1.88971e+00 -3.80934e+00 
 6.65201e-01 -1.57882e+00 -4.19538e+00 
 7.15828e-01 -1.48904e+00 -3.84440e+00 
 7.18900e-01 -1.50651e+00 -4.20019e+00 
 6.84828e-01 -1.55543e+00 -4.29254e+00 
 6.41329e-01 -1.61341e+00 -4.28094e+00 
 7.95813e-01 -1.39629e+00 -4.07935e+00 
 7.60769e-01 -1.45649e+00 -4.32550e+00 
 5.71457e-01 -1.71963e+00 -4.09120e+00 
 6.41421e-01 -1.61308e+00 -4.30165e+00 
 5.35945e-01 -1.80932e+00 -4.01811e+00 
 5.78428e-01 -1.71949e+00 -3.93262e+00 
 6.91272e-01 -1.54862e+00 -4.32051e+00 
 7.13272e-01 -1.51781e+00 -4.30994e+00 
 6.62052e-01 -1.57792e+00 -4.05406e+00 
 7.69221e-01 -1.42336e+00 -3.99751e+00 
 6.11963e-01 -1.65770e+00 -3.96158e+00 
 7.75173e-01 -1.43538e+00 -4.21413e+00 
 5.46238e-01 -1.78629e+00 -3.97005e+00 
 7.24356e-01 -1.50046e+00 -4.24637e+00 
 7.91474e-01 -1.40924e+00 -4.14447e+00 
 6.37119e-01 -1.61662e+00 -4.27545e+00 
 7.75930e-01 -1.43956e+00 -4.28583e+00 
 4.81723e-01 -1.89426e+00 -3.70773e+00 
 7.31155e-01 -1.49560e+00 -4.30283e+00 
 7.03148e-01 -1.53102e+00 -4.31858e+00 
 4.77777e-01 -1.91772e+00 -3.93865e+00 
 5.05087e-01 -1.85926e+00 -3.81263e+00 
 5.31920e-01 -1.80389e+00 -3.72873e+00 
 7.00495e-01 -1.52033e+00 -3.98982e+00 
 6.51707e-01 -1.59700e+00 -4.28446e+00 
 4.85301e-01 -1.90138e+00 -3.87533e+00 
 6.75383e-01 -1.56139e+00 -4.15003e+00 
 6.45266e-01 -1.59203e+00 -3.72158e+00 
 6.55974e-01 -1.58614e+00 -3.92868e+00 
 7.36723e-01 -1.47807e+00 -4.13873e+00 
 6.82102e-01 -1.53344e+00 -3.75960e+00 
 7.11688e-01 -1.52228e+00 -4.35632e+00 
 5.78290e-01 -1.71713e+00 -3.89116e+00 
 5.07312e-01 -1.84323e+00 -3.65898e+00 
 5.13038e-01 -1.85077e+00 -3.92330e+00 
 7.50076e-01 -1.44194e+00 -3.92435e+00 
 7.63503e-01 -1.45684e+00 -4.31621e+00 
 4.94496e-01 -1.88938e+00 -3.99817e+00 
 5.68254e-01 -1.73765e+00 -3.81209e+00 
 5.15064e-01 -1.84917e+00 -3.98502e+00 
 5.67901e-01 -1.71829e+00 -4.09289e+00 
 7.28206e-01 -1.49425e+00 -4.21466e+00 
 5.72176e-01 -1.71777e+00 -3.99569e+00 
 6.04031e-01 -1.66076e+00 -4.09334e+00 
 5.69540e-01 -1.72691e+00 -3.67579e+00 
 7.71678e-01 -1.44334e+00 -4.25471e+00 
 6.85709e-01 -1.55166e+00 -4.31283e+00 
 8.34174e-01 -1.37525e+00 -4.29104e+00 
 7.62791e-01 -1.46033e+00 -4.38941e+00 
 6.07074e-01 -1.65751e+00 -3.68922e+00 
 6.51418e-01 -1.59477e+00 -4.24747e+00 
 8.40022e-01 -1.35947e+00 -4.18022e+00 
 7.14124e-01 -1.48379e+00 -3.80458e+00 
 6.76306e-01 -1.56497e+00 -4.36300e+00 
 5.73354e-01 -1.70212e+00 -4.16658e+00 
 6.06564e-01 -1.66420e+00 -3.80392e+00 
 7.63365e-01 -1.46116e+00 -4.39912e+00 
 7.79834e-01 -1.44251e+00 -4.37667e+00 
 5.73507e-01 -1.71693e+00 -3.95335e+00 
 7.21695e-01 -1.51113e+00 -4.38230e+00 
 5.28410e-01 -1.80278e+00 -3.65306e+00 
 5.34895e-01 -1.80750e+00 -3.90841e+00 
 6.03674e-01 -1.66566e+00 -3.98015e+00 
 6.92665e-01 -1.54116e+00 -4.26617e+00 
 6.07414e-01 -1.65639e+00 -4.04686e+00 
 6.45528e-01 -1.59231e+00 -3.77818e+00 
 5.77911e-01 -1.71530e+00 -3.85388e+00 
 6.63192e-01 -1.55734e+00 -3.71422e+00 
 7.38642e-01 -1.48709e+00 -4.32268e+00 
 5.95725e-01 -1.68117e+00 -3.90126e+00 
 6.37389e-01 -1.61120e+00 -4.37240e+00 
 7.95768e-01 -1.40311e+00 -4.13360e+00 
 5.67553e-01 -1.71547e+00 -4.06842e+00 
 7.30356e-01 -1.50031e+00 -4.38430e+00 
 5.06276e-01 -1.86033e+00 -3.85918e+00 
 5.70154e-01 -1.72927e+00 -3.78784e+00 
 6.37677e-01 -1.61156e+00 -4.40023e+00 
 5.76893e-01 -1.70883e+00 -3.66798e+00 
 4.69461e-01 -1.92416e+00 -3.77606e+00 
 5.48943e-01 -1.77789e+00 -3.86945e+00 
 7.36768e-01 -1.45244e+00 -3.85876e+00 
 7.42174e-01 -1.48996e+00 -4.42944e+00 
 6.73559e-01 -1.54785e+00 -3.81664e+00 
 4.79252e-01 -1.91629e+00 -3.89097e+00 
 6.75395e-01 -1.56352e+00 -4.34781e+00 
 4.85639e-01 -1.90726e+00 -3.95934e+00 
 5.67327e-01 -1.70846e+00 -4.13209e+00 
 5.69950e-01 -1.71526e+00 -4.01692e+00 
 6.61841e-01 -1.58142e+00 -4.38581e+00 
 7.01404e-01 -1.49595e+00 -3.75520e+00 
 4.91663e-01 -1.89512e+00 -3.94074e+00 
 4.76856e-01 -1.90763e+00 -3.73845e+00 
 5.24521e-01 -1.82046e+00 -3.78706e+00 
 7.41156e-01 -1.49145e+00 -4.42226e+00 
 6.16890e-01 -1.63142e+00 -3.66440e+00 
 7.83651e-01 -1.44236e+00 -4.38832e+00 
 6.31734e-01 -1.61845e+00 -4.13141e+00 
 5.68719e-01 -1.72462e+00 -3.69916e+00 
 7.00791e-01 -1.52740e+00 -4.19905e+00 
 6.97838e-01 -1.51195e+00 -3.86382e+00 
 5.71749e-01 -1.71473e+00 -3.96874e+00 
 7.18003e-01 -1.51837e+00 -4.43123e+00 
 5.77070e-01 -1.71282e+00 -3.81974e+00 
 5.76856e-01 -1.70512e+00 -3.65923e+00 
 7.42648e-01 -1.45848e+00 -3.99601e+00 
 6.39992e-01 -1.60473e+00 -4.23838e+00 
 5.56660e-01 -1.75873e+00 -3.83473e+00 
 4.47523e-01 -1.94959e+00 -3.64711e+00 
 6.66333e-01 -1.57661e+00 -4.41011e+00 
 5.71940e-01 -1.69577e+00 -4.23772e+00 
 5.06740e-01 -1.84588e+00 -3.68418e+00 
 6.40113e-01 -1.60423e+00 -4.33389e+00 
 5.67343e-01 -1.72888e+00 -3.75487e+00 
 7.30055e-01 -1.45674e+00 -3.82499e+00 
 7.50360e-01 -1.45734e+00 -4.09546e+00 
 4.78551e-01 -1.89068e+00 -3.62201e+00 
 8.89852e-01 -1.31888e+00 -4.27011e+00 
 6.23649e-01 -1.63324e+00 -3.96080e+00 
 7.26103e-01 -1.50499e+00 -4.38696e+00 
 5.57514e-01 -1.74251e+00 -3.65385e+00 
 6.06569e-01 -1.66018e+00 -3.89908e+00 
 4.20523e-01 -2.00859e+00 -3.72016e+00 
 7.65897e-01 -1.45694e+00 -4.33751e+00 
 7.31585e-01 -1.50569e+00 -4.46946e+00 
 5.72841e-01 -1.70221e+00 -4.07560e+00 
 6.82973e-01 -1.54398e+00 -3.99177e+00 
 7.66804e-01 -1.46697e+00 -4.47996e+00 
 7.35330e-01 -1.45939e+00 -3.91446e+00 
 6.28882e-01 -1.62249e+00 -4.05161e+00 
 4.90300e-01 -1.89632e+00 -3.89616e+00 
 6.55478e-01 -1.57029e+00 -3.76933e+00 
 7.66877e-01 -1.46707e+00 -4.48078e+00 
 5.10290e-01 -1.85421e+00 -3.86244e+00 
 6.85630e-01 -1.55325e+00 -4.41788e+00 
 6.76156e-01 -1.52697e+00 -3.69188e+00 
 5.36307e-01 -1.78387e+00 -3.64605e+00 
 8.31317e-01 -1.39630e+00 -4.43398e+00 
 4.84082e-01 -1.90102e+00 -3.80043e+00 
 5.73023e-01 -1.71328e+00 -3.91551e+00 
 4.58947e-01 -1.95985e+00 -3.93239e+00 
 5.76660e-01 -1.70003e+00 -3.64701e+00 
 5.33784e-01 -1.79849e+00 -3.75388e+00 
 5.54286e-01 -1.75018e+00 -3.68711e+00 
 4.12082e-01 -2.03606e+00 -3.82755e+00 
 5.75930e-01 -1.71041e+00 -3.78941e+00 
 4.28581e-01 -2.01479e+00 -3.91689e+00 
 5.85138e-01 -1.69309e+00 -3.94267e+00 
 7.66950e-01 -1.44501e+00 -4.19803e+00 
 5.52539e-01 -1.76332e+00 -3.80297e+00 
 5.24633e-01 -1.82383e+00 -3.82780e+00 
 7.57480e-01 -1.47873e+00 -4.48183e+00 
 5.90000e-01 -1.68182e+00 -4.00885e+00 
 8.91402e-01 -1.33286e+00 -4.39024e+00 
 4.40956e-01 -1.98742e+00 -3.84379e+00 
 6.04496e-01 -1.65926e+00 -3.85449e+00 
 6.40008e-01 -1.60470e+00 -3.92109e+00 
 6.68086e-01 -1.57004e+00 -4.28652e+00 
 6.24194e-01 -1.60780e+00 -3.63447e+00 
 6.24111e-01 -1.62717e+00 -4.15168e+00 
 7.40414e-01 -1.49389e+00 -4.44236e+00 
 5.55771e-01 -1.74091e+00 -3.64572e+00 
 6.37636e-01 -1.60997e+00 -4.49526e+00 
 5.67642e-01 -1.69993e+00 -4.17083e+00 
 6.37486e-01 -1.60875e+00 -4.46519e+00 
 6.71232e-01 -1.55536e+00 -3.91066e+00 
 5.73745e-01 -1.71177e+00 -3.87831e+00 
 5.73930e-01 -1.70528e+00 -3.68148e+00 
 7.13803e-01 -1.49405e+00 -3.95577e+00 
 8.38241e-01 -1.37293e+00 -4.27486e+00 
 5.43154e-01 -1.76670e+00 -3.64506e+00 
 6.27078e-01 -1.61337e+00 -3.75200e+00 
 5.76947e-01 -1.69321e+00 -3.63369e+00 
 5.87826e-01 -1.68851e+00 -3.90055e+00 
 4.83609e-01 -1.90779e+00 -3.84270e+00 
 6.92651e-01 -1.53621e+00 -4.06140e+00 
 5.55285e-01 -1.74322e+00 -3.67984e+00 
 6.06252e-01 -1.65913e+00 -3.95847e+00 
 5.91235e-01 -1.67470e+00 -4.07875e+00 
 7.22662e-01 -1.47074e+00 -3.87241e+00 
 5.31606e-01 -1.80520e+00 -3.79273e+00 
 4.65343e-01 -1.94605e+00 -3.87109e+00 
 5.74380e-01 -1.70798e+00 -3.76038e+00 
 5.58435e-01 -1.73231e+00 -3.64036e+00 
 7.04839e-01 -1.52075e+00 -4.15153e+00 
 6.72210e-01 -1.54319e+00 -3.80690e+00 
 5.68051e-01 -1.68923e+00 -4.31849e+00 
 5.98104e-01 -1.65206e+00 -4.41625e+00 
 4.72505e-01 -1.90072e+00 -3.59794e+00 
 6.40943e-01 -1.59861e+00 -3.86607e+00 
 6.19062e-01 -1.63737e+00 -4.03848e+00 
 7.41054e-01 -1.49877e+00 -4.49817e+00 
 8.02789e-01 -1.43256e+00 -4.47577e+00 
 7.16520e-01 -1.46481e+00 -3.75038e+00 
 9.39816e-01 -1.28261e+00 -4.35158e+00 
 6.87876e-01 -1.54752e+00 -4.38173e+00 
 5.73182e-01 -1.70921e+00 -3.84767e+00 
 4.93609e-01 -1.88592e+00 -3.80453e+00 
 6.81727e-01 -1.54444e+00 -3.98113e+00 
 5.41921e-01 -1.76587e+00 -3.64377e+00 
 6.37501e-01 -1.61024e+00 -3.97872e+00 
 5.44288e-01 -1.76904e+00 -3.72825e+00 
 4.29990e-01 -2.01693e+00 -3.89449e+00 
 6.11819e-01 -1.64821e+00 -3.91987e+00 
 4.39084e-01 -1.95684e+00 -3.57762e+00 
 5.87539e-01 -1.68518e+00 -3.86634e+00 
 5.35928e-01 -1.79149e+00 -3.76283e+00 
 7.71580e-01 -1.47195e+00 -4.56205e+00 
 7.42198e-01 -1.50198e+00 -4.55813e+00 
 6.29312e-01 -1.58848e+00 -3.60157e+00 
 7.71772e-01 -1.47226e+00 -4.56571e+00 
 4.92059e-01 -1.86715e+00 -3.61394e+00 
 4.49906e-01 -1.96917e+00 -3.78269e+00 
 6.31974e-01 -1.61838e+00 -4.13396e+00 
 5.89818e-01 -1.66912e+00 -4.15198e+00 
 5.28380e-01 -1.79492e+00 -3.64515e+00 
 5.31680e-01 -1.79160e+00 -3.68172e+00 
 5.72434e-01 -1.70509e+00 -3.73030e+00 
 3.95828e-01 -2.04127e+00 -3.60997e+00 
 5.17531e-01 -1.83082e+00 -3.75438e+00 
 7.25798e-01 -1.50015e+00 -4.26263e+00 
 4.67118e-01 -1.92143e+00 -3.65977e+00 
 4.21275e-01 -2.00482e+00 -3.66418e+00 
 7.40452e-01 -1.50098e+00 -4.53043e+00 
 5.42417e-01 -1.76874e+00 -3.70488e+00 
 6.70696e-01 -1.56530e+00 -4.33499e+00 
 6.85200e-01 -1.53215e+00 -3.92214e+00 
 6.68165e-01 -1.57500e+00 -4.51262e+00 
 5.91587e-01 -1.66262e+00 -3.67762e+00 
 3.93929e-01 -2.08077e+00 -3.85758e+00 
 6.87722e-01 -1.55107e+00 -4.44437e+00 
 5.72180e-01 -1.70723e+00 -3.82158e+00 
 6.18587e-01 -1.62846e+00 -3.82061e+00 
 5.10425e-01 -1.83210e+00 -3.63673e+00 
 5.44580e-01 -1.75576e+00 -3.64300e+00 
 6.48361e-01 -1.59088e+00 -3.93277e+00 
 5.63205e-01 -1.69385e+00 -4.26805e+00 
 5.69564e-01 -1.69558e+00 -3.61274e+00 
 5.53868e-01 -1.74016e+00 -3.69548e+00 
 7.45386e-01 -1.49114e+00 -4.46466e+00 
 9.11237e-01 -1.31252e+00 -4.36040e+00 
 5.31803e-01 -1.78646e+00 -3.65216e+00 
 5.40659e-01 -1.77509e+00 -3.73646e+00 
 7.91762e-01 -1.43162e+00 -4.33501e+00 
 5.90556e-01 -1.67211e+00 -3.78654e+00 
 6.11013e-01 -1.64541e+00 -3.88343e+00 
 6.30596e-01 -1.59305e+00 -3.68222e+00 
 5.29323e-01 -1.79995e+00 -3.72535e+00 
 8.03926e-01 -1.44180e+00 -4.54728e+00 
 5.85279e-01 -1.68448e+00 -3.83706e+00 
 4.68906e-01 -1.90817e+00 -3.58790e+00 
 8.01517e-01 -1.43044e+00 -4.43398e+00 
 6.38901e-01 -1.60856e+00 -4.58702e+00 
 8.91169e-01 -1.34556e+00 -4.45747e+00 
 4.95626e-01 -1.87737e+00 -3.74401e+00 
 4.87512e-01 -1.88757e+00 -3.68894e+00 
 4.64720e-01 -1.94473e+00 -3.78643e+00 
 6.23590e-01 -1.61215e+00 -3.75634e+00 
 6.60670e-01 -1.54861e+00 -3.73638e+00 
 5.16159e-01 -1.82098e+00 -3.65692e+00 
 7.00200e-01 -1.49875e+00 -3.84780e+00 
 5.38509e-01 -1.77476e+00 -3.70580e+00 
 6.39498e-01 -1.60612e+00 -4.55676e+00 
 5.27850e-01 -1.79793e+00 -3.68490e+00 
 5.84833e-01 -1.65979e+00 -3.58466e+00 
 5.12264e-01 -1.83737e+00 -3.71250e+00 
 6.58997e-01 -1.57962e+00 -4.24816e+00 
 5.70495e-01 -1.70464e+00 -3.79755e+00 
 4.32131e-01 -2.01351e+00 -3.83056e+00 
 6.73096e-01 -1.51233e+00 -3.60744e+00 
 5.67160e-01 -1.68208e+00 -4.39313e+00 
 5.88576e-01 -1.66786e+00 -3.72118e+00 
 5.69396e-01 -1.70135e+00 -3.69957e+00 
 5.46931e-01 -1.75507e+00 -3.71185e+00 
 5.69461e-01 -1.70274e+00 -3.74356e+00 
 6.32564e-01 -1.57370e+00 -3.56838e+00 
 5.42964e-01 -1.75664e+00 -3.66935e+00 
 5.97960e-01 -1.64777e+00 -4.49116e+00 
 4.02725e-01 -2.07026e+00 -3.85364e+00 
 8.62774e-01 -1.36433e+00 -4.38895e+00 
 5.10320e-01 -1.83745e+00 -3.68690e+00 
 5.88534e-01 -1.66286e+00 -4.23571e+00 
 6.34478e-01 -1.60577e+00 -3.88123e+00 
 6.02696e-01 -1.65389e+00 -3.84658e+00 
 4.94521e-01 -1.86580e+00 -3.63813e+00 
 7.04946e-01 -1.46859e+00 -3.67247e+00 
 3.94576e-01 -2.07241e+00 -3.75764e+00 
 5.81313e-01 -1.68552e+00 -3.80796e+00 
 5.87458e-01 -1.65584e+00 -3.62311e+00 
 6.01248e-01 -1.62374e+00 -3.55985e+00 
 3.55843e-01 -2.13533e+00 -3.71964e+00 
 5.64531e-01 -1.69534e+00 -3.59996e+00 
 4.94771e-01 -1.87329e+00 -3.70077e+00 
 7.19153e-01 -1.51142e+00 -4.33907e+00 
 7.78315e-01 -1.47799e+00 -4.63985e+00 
 9.36063e-01 -1.31560e+00 -4.53703e+00 
 4.78595e-01 -1.91215e+00 -3.73034e+00 
 4.23272e-01 -2.01173e+00 -3.69578e+00 
 5.67308e-01 -1.70025e+00 -3.71839e+00 
 5.53177e-01 -1.72153e+00 -3.63193e+00 
 3.84321e-01 -2.07090e+00 -3.63309e+00 
 5.68529e-01 -1.70222e+00 -3.77272e+00 
 5.51910e-01 -1.73344e+00 -3.68499e+00 
 4.66676e-01 -1.91500e+00 -3.59008e+00 
 5.85646e-01 -1.67086e+00 -3.74921e+00 
 7.79012e-01 -1.47843e+00 -4.64917e+00 
 6.89021e-01 -1.55322e+00 -4.53286e+00 
 6.40173e-01 -1.56517e+00 -3.62989e+00 
 4.21612e-01 -1.99596e+00 -3.59235e+00 
 8.06734e-01 -1.42408e+00 -4.40501e+00 
 9.43557e-01 -1.29342e+00 -4.42842e+00 
 5.75274e-01 -1.66762e+00 -3.57089e+00 
 4.00087e-01 -2.01978e+00 -3.52750e+00 
 3.69083e-01 -2.12962e+00 -3.81332e+00 
 4.73082e-01 -1.91692e+00 -3.67835e+00 
 7.05840e-01 -1.47509e+00 -3.75646e+00 
 1.00185e+00 -1.24469e+00 -4.46249e+00 
 5.64684e-01 -1.69724e+00 -3.66583e+00 
 6.64080e-01 -1.51918e+00 -3.56667e+00 
 4.85750e-01 -1.88777e+00 -3.66707e+00 
 5.99682e-01 -1.63690e+00 -3.67784e+00 
 6.09430e-01 -1.60981e+00 -3.59305e+00 
 6.20117e-01 -1.58387e+00 -3.53558e+00 
 5.75762e-01 -1.68813e+00 -3.77724e+00 
 5.69831e-01 -1.67831e+00 -4.33537e+00 
 6.24419e-01 -1.61469e+00 -4.41626e+00 
 4.76800e-01 -1.91015e+00 -3.68602e+00 
 5.57417e-01 -1.70028e+00 -3.60220e+00 
 5.66241e-01 -1.69930e+00 -3.74587e+00 
 4.34097e-01 -2.00624e+00 -3.76283e+00 
 6.23574e-01 -1.60527e+00 -3.75691e+00 
 5.98004e-01 -1.65280e+00 -3.80903e+00 
 7.33611e-01 -1.50644e+00 -4.49735e+00 
 5.91209e-01 -1.63144e+00 -3.53678e+00 
 5.89257e-01 -1.65772e+00 -3.72125e+00 
 5.52971e-01 -1.71369e+00 -3.65079e+00 
 6.75063e-01 -1.53081e+00 -3.81942e+00 
 6.45814e-01 -1.60898e+00 -4.67491e+00 
 5.88676e-01 -1.64219e+00 -3.59908e+00 
 8.69635e-01 -1.36814e+00 -4.45867e+00 
 6.31894e-01 -1.59984e+00 -3.83254e+00 
 6.24799e-01 -1.61454e+00 -4.32617e+00 
 3.76498e-01 -2.12056e+00 -3.80881e+00 
 4.05913e-01 -2.06472e+00 -3.78661e+00 
 4.66464e-01 -1.92301e+00 -3.61096e+00 
 5.68830e-01 -1.67220e+00 -4.46846e+00 
 3.77862e-01 -2.08113e+00 -3.61231e+00 
 5.75886e-01 -1.68108e+00 -3.75901e+00 
 6.98965e-01 -1.55528e+00 -4.66193e+00 
 3.42548e-01 -2.12615e+00 -3.55169e+00 
 6.00774e-01 -1.64242e+00 -4.56902e+00 
 5.59292e-01 -1.69275e+00 -3.62973e+00 
 3.70240e-01 -2.11549e+00 -3.70739e+00 
 8.31693e-01 -1.41825e+00 -4.55494e+00 
 6.46928e-01 -1.60460e+00 -4.65269e+00 
 7.17156e-01 -1.51769e+00 -4.41178e+00 
 7.04790e-01 -1.46422e+00 -3.67629e+00 
 5.62774e-01 -1.69592e+00 -3.71535e+00 
 9.27730e-01 -1.33156e+00 -4.56085e+00 
 4.57247e-01 -1.94992e+00 -3.66466e+00 
 4.05052e-01 -2.02364e+00 -3.56628e+00 
 5.57635e-01 -1.68548e+00 -3.57232e+00 
 5.52107e-01 -1.70132e+00 -3.61987e+00 
 6.81067e-01 -1.51327e+00 -3.77132e+00 
 7.85713e-01 -1.48187e+00 -4.72429e+00 
 8.77228e-01 -1.39283e+00 -4.68476e+00 
 5.99523e-01 -1.64287e+00 -3.78617e+00 