<?xml version="1.0" encoding="utf-8"?>
<VTKFile byte_order="LittleEndian" type="UnstructuredGrid" version="0.1">
   <UnstructuredGrid>
      <Piece NumberOfCells="1188" NumberOfPoints="697">
         <Points>
            <DataArray Name="Points" NumberOfComponents="3" format="ascii" type="Float32">
0.6875 0.0000 0.0000
0.6875 0.0051 0.0000
0.6875 0.0101 0.0000
0.6875 0.0152 0.0000
0.6875 0.0202 0.0000
0.6875 0.0253 0.0000
0.6875 0.0303 0.0000
0.6875 0.0354 0.0000
0.6875 0.0404 0.0000
0.6875 0.0455 0.0000
0.6875 0.0505 0.0000
0.6875 0.0556 0.0000
0.6875 0.0606 0.0000
0.6875 0.0657 0.0000
0.6875 0.0707 0.0000
0.6875 0.0758 0.0000
0.6875 0.0808 0.0000
0.6875 0.0859 0.0000
0.6875 0.0909 0.0000
0.6875 0.0960 0.0000
0.6875 0.1010 0.0000
0.6875 0.1061 0.0000
0.6875 0.1111 0.0000
0.6875 0.1162 0.0000
0.6875 0.1212 0.0000
0.6875 0.1263 0.0000
0.6875 0.1313 0.0000
0.6875 0.1364 0.0000
0.6875 0.1414 0.0000
0.6875 0.1465 0.0000
0.6875 0.1515 0.0000
0.6875 0.1566 0.0000
0.6875 0.1616 0.0000
0.6875 0.1667 0.0000
0.6875 0.1717 0.0000
0.6875 0.1768 0.0000
0.6875 0.1818 0.0000
0.6875 0.1869 0.0000
0.6875 0.1919 0.0000
0.6875 0.1970 0.0000
0.6875 0.2020 0.0000
0.6875 0.2071 0.0000
0.6875 0.2121 0.0000
0.6875 0.2172 0.0000
0.6875 0.2222 0.0000
0.6875 0.2273 0.0000
0.6875 0.2323 0.0000
0.6875 0.2374 0.0000
0.6875 0.2424 0.0000
0.6875 0.2475 0.0000
0.6875 0.2525 0.0000
0.6875 0.2576 0.0000
0.6875 0.2626 0.0000
0.6875 0.2677 0.0000
0.6875 0.2727 0.0000
0.6875 0.2778 0.0000
0.6875 0.2828 0.0000
0.6875 0.2879 0.0000
0.6875 0.2929 0.0000
0.6875 0.2980 0.0000
0.6875 0.3030 0.0000
0.6875 0.3081 0.0000
0.6875 0.3131 0.0000
0.6875 0.3182 0.0000
0.6875 0.3232 0.0000
0.6875 0.3283 0.0000
0.6875 0.3333 0.0000
0.6875 0.3384 0.0000
0.6875 0.3434 0.0000
0.6875 0.3485 0.0000
0.6875 0.3535 0.0000
0.6875 0.3586 0.0000
0.6875 0.3636 0.0000
0.6875 0.3687 0.0000
0.6875 0.3737 0.0000
0.6875 0.3788 0.0000
0.6875 0.3838 0.0000
0.6875 0.3889 0.0000
0.6875 0.3939 0.0000
0.6875 0.3990 0.0000
0.6875 0.4040 0.0000
0.6875 0.4091 0.0000
0.6875 0.4141 0.0000
0.6875 0.4192 0.0000
0.6875 0.4242 0.0000
0.6875 0.4293 0.0000
0.6875 0.4343 0.0000
0.6875 0.4394 0.0000
0.6875 0.4444 0.0000
0.6875 0.4495 0.0000
0.6875 0.4545 0.0000
0.6875 0.4596 0.0000
0.6875 0.4646 0.0000
0.6875 0.4697 0.0000
0.6875 0.4747 0.0000
0.6875 0.4798 0.0000
0.6875 0.4848 0.0000
0.6875 0.4899 0.0000
0.6875 0.4949 0.0000
0.6875 0.5000 0.0000
0.7083 0.0000 0.0000
0.7083 0.0051 0.0000
0.7083 0.0101 0.0000
0.7083 0.0152 0.0000
0.7083 0.0202 0.0000
0.7083 0.0253 0.0000
0.7083 0.0303 0.0000
0.7083 0.0354 0.0000
0.7083 0.0404 0.0000
0.7083 0.0455 0.0000
0.7083 0.0505 0.0000
0.7083 0.0556 0.0000
0.7083 0.0606 0.0000
0.7083 0.0657 0.0000
0.7083 0.0707 0.0000
0.7083 0.0758 0.0000
0.7083 0.0808 0.0000
0.7083 0.0859 0.0000
0.7083 0.0909 0.0000
0.7083 0.0960 0.0000
0.7083 0.1010 0.0000
0.7083 0.1061 0.0000
0.7083 0.1111 0.0000
0.7083 0.1162 0.0000
0.7083 0.1212 0.0000
0.7083 0.1263 0.0000
0.7083 0.1313 0.0000
0.7083 0.1364 0.0000
0.7083 0.1414 0.0000
0.7083 0.1465 0.0000
0.7083 0.1515 0.0000
0.7083 0.1566 0.0000
0.7083 0.1616 0.0000
0.7083 0.1667 0.0000
0.7083 0.1717 0.0000
0.7083 0.1768 0.0000
0.7083 0.1818 0.0000
0.7083 0.1869 0.0000
0.7083 0.1919 0.0000
0.7083 0.1970 0.0000
0.7083 0.2020 0.0000
0.7083 0.2071 0.0000
0.7083 0.2121 0.0000
0.7083 0.2172 0.0000
0.7083 0.2222 0.0000
0.7083 0.2273 0.0000
0.7083 0.2323 0.0000
0.7083 0.2374 0.0000
0.7083 0.2424 0.0000
0.7083 0.2475 0.0000
0.7083 0.2525 0.0000
0.7083 0.2576 0.0000
0.7083 0.2626 0.0000
0.7083 0.2677 0.0000
0.7083 0.2727 0.0000
0.7083 0.2778 0.0000
0.7083 0.2828 0.0000
0.7083 0.2879 0.0000
0.7083 0.2929 0.0000
0.7083 0.2980 0.0000
0.7083 0.3030 0.0000
0.7083 0.3081 0.0000
0.7083 0.3131 0.0000
0.7083 0.3182 0.0000
0.7083 0.3232 0.0000
0.7083 0.3283 0.0000
0.7083 0.3333 0.0000
0.7083 0.3384 0.0000
0.7083 0.3434 0.0000
0.7083 0.3485 0.0000
0.7083 0.3535 0.0000
0.7083 0.3586 0.0000
0.7083 0.3636 0.0000
0.7083 0.3687 0.0000
0.7083 0.3737 0.0000
0.7083 0.3788 0.0000
0.7083 0.3838 0.0000
0.7083 0.3889 0.0000
0.7083 0.3939 0.0000
0.7083 0.3990 0.0000
0.7083 0.4040 0.0000
0.7083 0.4091 0.0000
0.7083 0.4141 0.0000
0.7083 0.4192 0.0000
0.7083 0.4242 0.0000
0.7083 0.4293 0.0000
0.7083 0.4343 0.0000
0.7083 0.4394 0.0000
0.7083 0.4444 0.0000
0.7083 0.4495 0.0000
0.7083 0.4545 0.0000
0.7083 0.4596 0.0000
0.7083 0.4646 0.0000
0.7083 0.4697 0.0000
0.7083 0.4747 0.0000
0.7083 0.4798 0.0000
0.7083 0.4848 0.0000
0.7083 0.4899 0.0000
0.7083 0.4949 0.0000
0.7083 0.5000 0.0000
0.7292 0.0000 0.0000
0.7292 0.0051 0.0000
0.7292 0.0101 0.0000
0.7292 0.0152 0.0000
0.7292 0.0202 0.0000
0.7292 0.0253 0.0000
0.7292 0.0303 0.0000
0.7292 0.0354 0.0000
0.7292 0.0404 0.0000
0.7292 0.0455 0.0000
0.7292 0.0505 0.0000
0.7292 0.0556 0.0000
0.7292 0.0606 0.0000
0.7292 0.0657 0.0000
0.7292 0.0707 0.0000
0.7292 0.0758 0.0000
0.7292 0.0808 0.0000
0.7292 0.0859 0.0000
0.7292 0.0909 0.0000
0.7292 0.0960 0.0000
0.7292 0.1010 0.0000
0.7292 0.1061 0.0000
0.7292 0.1111 0.0000
0.7292 0.1162 0.0000
0.7292 0.1212 0.0000
0.7292 0.1263 0.0000
0.7292 0.1313 0.0000
0.7292 0.1364 0.0000
0.7292 0.1414 0.0000
0.7292 0.1465 0.0000
0.7292 0.1515 0.0000
0.7292 0.1566 0.0000
0.7292 0.1616 0.0000
0.7292 0.1667 0.0000
0.7292 0.1717 0.0000
0.7292 0.1768 0.0000
0.7292 0.1818 0.0000
0.7292 0.1869 0.0000
0.7292 0.1919 0.0000
0.7292 0.1970 0.0000
0.7292 0.2020 0.0000
0.7292 0.2071 0.0000
0.7292 0.2121 0.0000
0.7292 0.2172 0.0000
0.7292 0.2222 0.0000
0.7292 0.2273 0.0000
0.7292 0.2323 0.0000
0.7292 0.2374 0.0000
0.7292 0.2424 0.0000
0.7292 0.2475 0.0000
0.7292 0.2525 0.0000
0.7292 0.2576 0.0000
0.7292 0.2626 0.0000
0.7292 0.2677 0.0000
0.7292 0.2727 0.0000
0.7292 0.2778 0.0000
0.7292 0.2828 0.0000
0.7292 0.2879 0.0000
0.7292 0.2929 0.0000
0.7292 0.2980 0.0000
0.7292 0.3030 0.0000
0.7292 0.3081 0.0000
0.7292 0.3131 0.0000
0.7292 0.3182 0.0000
0.7292 0.3232 0.0000
0.7292 0.3283 0.0000
0.7292 0.3333 0.0000
0.7292 0.3384 0.0000
0.7292 0.3434 0.0000
0.7292 0.3485 0.0000
0.7292 0.3535 0.0000
0.7292 0.3586 0.0000
0.7292 0.3636 0.0000
0.7292 0.3687 0.0000
0.7292 0.3737 0.0000
0.7292 0.3788 0.0000
0.7292 0.3838 0.0000
0.7292 0.3889 0.0000
0.7292 0.3939 0.0000
0.7292 0.3990 0.0000
0.7292 0.4040 0.0000
0.7292 0.4091 0.0000
0.7292 0.4141 0.0000
0.7292 0.4192 0.0000
0.7292 0.4242 0.0000
0.7292 0.4293 0.0000
0.7292 0.4343 0.0000
0.7292 0.4394 0.0000
0.7292 0.4444 0.0000
0.7292 0.4495 0.0000
0.7292 0.4545 0.0000
0.7292 0.4596 0.0000
0.7292 0.4646 0.0000
0.7292 0.4697 0.0000
0.7292 0.4747 0.0000
0.7292 0.4798 0.0000
0.7292 0.4848 0.0000
0.7292 0.4899 0.0000
0.7292 0.4949 0.0000
0.7292 0.5000 0.0000
0.7500 0.0000 0.0000
0.7500 0.0051 0.0000
0.7500 0.0101 0.0000
0.7500 0.0152 0.0000
0.7500 0.0202 0.0000
0.7500 0.0253 0.0000
0.7500 0.0303 0.0000
0.7500 0.0354 0.0000
0.7500 0.0404 0.0000
0.7500 0.0455 0.0000
0.7500 0.0505 0.0000
0.7500 0.0556 0.0000
0.7500 0.0606 0.0000
0.7500 0.0657 0.0000
0.7500 0.0707 0.0000
0.7500 0.0758 0.0000
0.7500 0.0808 0.0000
0.7500 0.0859 0.0000
0.7500 0.0909 0.0000
0.7500 0.0960 0.0000
0.7500 0.1010 0.0000
0.7500 0.1061 0.0000
0.7500 0.1111 0.0000
0.7500 0.1162 0.0000
0.7500 0.1212 0.0000
0.7500 0.1263 0.0000
0.7500 0.1313 0.0000
0.7500 0.1364 0.0000
0.7500 0.1414 0.0000
0.7500 0.1465 0.0000
0.7500 0.1515 0.0000
0.7500 0.1566 0.0000
0.7500 0.1616 0.0000
0.7500 0.1667 0.0000
0.7500 0.1717 0.0000
0.7500 0.1768 0.0000
0.7500 0.1818 0.0000
0.7500 0.1869 0.0000
0.7500 0.1919 0.0000
0.7500 0.1970 0.0000
0.7500 0.2020 0.0000
0.7500 0.2071 0.0000
0.7500 0.2121 0.0000
0.7500 0.2172 0.0000
0.7500 0.2222 0.0000
0.7500 0.2273 0.0000
0.7500 0.2323 0.0000
0.7500 0.2374 0.0000
0.7500 0.2424 0.0000
0.7500 0.2475 0.0000
0.7500 0.2525 0.0000
0.7500 0.2576 0.0000
0.7500 0.2626 0.0000
0.7500 0.2677 0.0000
0.7500 0.2727 0.0000
0.7500 0.2778 0.0000
0.7500 0.2828 0.0000
0.7500 0.2879 0.0000
0.7500 0.2929 0.0000
0.7500 0.2980 0.0000
0.7500 0.3030 0.0000
0.7500 0.3081 0.0000
0.7500 0.3131 0.0000
0.7500 0.3182 0.0000
0.7500 0.3232 0.0000
0.7500 0.3283 0.0000
0.7500 0.3333 0.0000
0.7500 0.3384 0.0000
0.7500 0.3434 0.0000
0.7500 0.3485 0.0000
0.7500 0.3535 0.0000
0.7500 0.3586 0.0000
0.7500 0.3636 0.0000
0.7500 0.3687 0.0000
0.7500 0.3737 0.0000
0.7500 0.3788 0.0000
0.7500 0.3838 0.0000
0.7500 0.3889 0.0000
0.7500 0.3939 0.0000
0.7500 0.3990 0.0000
0.7500 0.4040 0.0000
0.7500 0.4091 0.0000
0.7500 0.4141 0.0000
0.7500 0.4192 0.0000
0.7500 0.4242 0.0000
0.7500 0.4293 0.0000
0.7500 0.4343 0.0000
0.7500 0.4394 0.0000
0.7500 0.4444 0.0000
0.7500 0.4495 0.0000
0.7500 0.4545 0.0000
0.7500 0.4596 0.0000
0.7500 0.4646 0.0000
0.7500 0.4697 0.0000
0.7500 0.4747 0.0000
0.7500 0.4798 0.0000
0.7500 0.4848 0.0000
0.7500 0.4899 0.0000
0.7500 0.4949 0.0000
0.7500 0.5000 0.0000
0.6979 0.0025 0.0000
0.6979 0.0076 0.0000
0.6979 0.0126 0.0000
0.6979 0.0177 0.0000
0.6979 0.0227 0.0000
0.6979 0.0278 0.0000
0.6979 0.0328 0.0000
0.6979 0.0379 0.0000
0.6979 0.0429 0.0000
0.6979 0.0480 0.0000
0.6979 0.0530 0.0000
0.6979 0.0581 0.0000
0.6979 0.0631 0.0000
0.6979 0.0682 0.0000
0.6979 0.0732 0.0000
0.6979 0.0783 0.0000
0.6979 0.0833 0.0000
0.6979 0.0884 0.0000
0.6979 0.0934 0.0000
0.6979 0.0985 0.0000
0.6979 0.1035 0.0000
0.6979 0.1086 0.0000
0.6979 0.1136 0.0000
0.6979 0.1187 0.0000
0.6979 0.1237 0.0000
0.6979 0.1288 0.0000
0.6979 0.1338 0.0000
0.6979 0.1389 0.0000
0.6979 0.1439 0.0000
0.6979 0.1490 0.0000
0.6979 0.1540 0.0000
0.6979 0.1591 0.0000
0.6979 0.1641 0.0000
0.6979 0.1692 0.0000
0.6979 0.1742 0.0000
0.6979 0.1793 0.0000
0.6979 0.1843 0.0000
0.6979 0.1894 0.0000
0.6979 0.1944 0.0000
0.6979 0.1995 0.0000
0.6979 0.2045 0.0000
0.6979 0.2096 0.0000
0.6979 0.2146 0.0000
0.6979 0.2197 0.0000
0.6979 0.2247 0.0000
0.6979 0.2298 0.0000
0.6979 0.2348 0.0000
0.6979 0.2399 0.0000
0.6979 0.2449 0.0000
0.6979 0.2500 0.0000
0.6979 0.2551 0.0000
0.6979 0.2601 0.0000
0.6979 0.2652 0.0000
0.6979 0.2702 0.0000
0.6979 0.2753 0.0000
0.6979 0.2803 0.0000
0.6979 0.2854 0.0000
0.6979 0.2904 0.0000
0.6979 0.2955 0.0000
0.6979 0.3005 0.0000
0.6979 0.3056 0.0000
[...]
         <PointData>
            <DataArray Name="fValues" NumberOfComponents="2" format="ascii" type="Float64">
 1.08949e+01  2.20061e+01 
 1.06509e+01  2.19891e+01 
 1.04084e+01  2.19724e+01 
 1.01672e+01  2.19562e+01 
 9.92749e+00  2.19402e+01 
 9.68902e+00  2.19247e+01 
 9.45194e+00  2.19094e+01 
 9.21608e+00  2.18946e+01 
 8.98154e+00  2.18801e+01 
 8.74816e+00  2.18659e+01 
 8.51606e+00  2.18521e+01 
 8.28506e+00  2.18387e+01 
 8.05528e+00  2.18257e+01 
 7.82656e+00  2.18130e+01 
 7.59900e+00  2.18006e+01 
 7.37244e+00  2.17887e+01 
 7.14699e+00  2.17771e+01 
 6.92248e+00  2.17658e+01 
 6.69903e+00  2.17550e+01 
 6.47647e+00  2.17444e+01 
 6.25492e+00  2.17343e+01 
 6.03420e+00  2.17245e+01 
 5.81442e+00  2.17151e+01 
 5.59543e+00  2.17060e+01 
 5.37733e+00  2.16973e+01 
 5.15995e+00  2.16889e+01 
 4.94340e+00  2.16809e+01 
 4.72752e+00  2.16732e+01 
 4.51242e+00  2.16659e+01 
 4.29792e+00  2.16590e+01 
 4.08414e+00  2.16523e+01 
 3.87091e+00  2.16461e+01 
 3.65833e+00  2.16401e+01 
 3.44624e+00  2.16345e+01 
 3.23475e+00  2.16293e+01 
 3.02369e+00  2.16244e+01 
 2.81315e+00  2.16198e+01 
 2.60299e+00  2.16156e+01 
 2.39329e+00  2.16116e+01 
 2.18390e+00  2.16081e+01 
 1.97491e+00  2.16048e+01 
 1.76617e+00  2.16019e+01 
 1.55776e+00  2.15993e+01 
 1.34954e+00  2.15970e+01 
 1.14159e+00  2.15951e+01 
 9.33754e-01  2.15935e+01 
 7.26130e-01  2.15922e+01 
 5.18555e-01  2.15912e+01 
 3.11126e-01  2.15905e+01 
 1.03682e-01  2.15902e+01 
-1.03682e-01  2.15902e+01 
-3.11126e-01  2.15905e+01 
-5.18555e-01  2.15912e+01 
-7.26130e-01  2.15922e+01 
-9.33754e-01  2.15935e+01 
-1.14159e+00  2.15951e+01 
-1.34954e+00  2.15970e+01 
-1.55776e+00  2.15993e+01 
-1.76617e+00  2.16019e+01 
-1.97491e+00  2.16048e+01 
-2.18390e+00  2.16081e+01 
-2.39329e+00  2.16116e+01 
-2.60299e+00  2.16156e+01 
-2.81315e+00  2.16198e+01 
-3.02369e+00  2.16244e+01 
-3.23475e+00  2.16293e+01 
-3.44624e+00  2.16345e+01 
-3.65833e+00  2.16401e+01 
-3.87091e+00  2.16461e+01 
-4.08414e+00  2.16523e+01 
-4.29792e+00  2.16590e+01 
-4.51242e+00  2.16659e+01 
-4.72752e+00  2.16732e+01 
-4.94340e+00  2.16809e+01 
-5.15995e+00  2.16889e+01 
-5.37733e+00  2.16973e+01 
-5.59543e+00  2.17060e+01 
-5.81442e+00  2.17151e+01 
-6.03420e+00  2.17245e+01 
-6.25492e+00  2.17343e+01 
-6.47647e+00  2.17444e+01 
-6.69903e+00  2.17550e+01 
-6.92248e+00  2.17658e+01 
-7.14699e+00  2.17771e+01 
-7.37244e+00  2.17887e+01 
-7.59900e+00  2.18006e+01 
-7.82656e+00  2.18130e+01 
-8.05528e+00  2.18257e+01 
-8.28506e+00  2.18387e+01 
-8.51606e+00  2.18521e+01 
-8.74816e+00  2.18659e+01 
-8.98154e+00  2.18801e+01 
-9.21608e+00  2.18946e+01 
-9.45194e+00  2.19094e+01 
-9.68902e+00  2.19247e+01 
-9.92749e+00  2.19402e+01 
-1.01672e+01  2.19562e+01 
-1.04084e+01  2.19724e+01 
-1.06509e+01  2.19891e+01 
-1.08949e+01  2.20061e+01 
 1.10467e+01  2.30218e+01 
 1.07997e+01  2.30059e+01 
 1.05541e+01  2.29903e+01 
 1.03099e+01  2.29751e+01 
 1.00670e+01  2.29602e+01 
 9.82546e+00  2.29456e+01 
 9.58524e+00  2.29314e+01 
 9.34626e+00  2.29175e+01 
 9.10857e+00  2.29039e+01 
 8.87206e+00  2.28907e+01 
 8.63678e+00  2.28778e+01 
 8.40264e+00  2.28653e+01 
 8.16968e+00  2.28532e+01 
 7.93781e+00  2.28413e+01 
 7.70707e+00  2.28299e+01 
 7.47735e+00  2.28187e+01 
 7.24872e+00  2.28080e+01 
 7.02107e+00  2.27975e+01 
 6.79445e+00  2.27874e+01 
 6.56875e+00  2.27777e+01 
 6.34403e+00  2.27683e+01 
 6.12018e+00  2.27592e+01 
 5.89726e+00  2.27505e+01 
 5.67515e+00  2.27421e+01 
 5.45392e+00  2.27341e+01 
 5.23344e+00  2.27264e+01 
 5.01378e+00  2.27190e+01 
 4.79483e+00  2.27119e+01 
 4.57663e+00  2.27052e+01 
 4.35907e+00  2.26988e+01 
 4.14222e+00  2.26927e+01 
 3.92595e+00  2.26870e+01 
 3.71032e+00  2.26816e+01 
 3.49521e+00  2.26764e+01 
 3.28068e+00  2.26716e+01 
 3.06662e+00  2.26671e+01 
 2.85307e+00  2.26629e+01 
 2.63993e+00  2.26591e+01 
 2.42723e+00  2.26555e+01 
 2.21487e+00  2.26522e+01 
 2.00290e+00  2.26492e+01 
 1.79121e+00  2.26466e+01 
 1.57983e+00  2.26442e+01 
 1.36866e+00  2.26421e+01 
 1.15775e+00  2.26404e+01 
 9.46984e-01  2.26389e+01 
 7.36404e-01  2.26377e+01 
 5.25904e-01  2.26368e+01 
 3.15524e-01  2.26362e+01 
 1.05157e-01  2.26360e+01 
-1.05157e-01  2.26360e+01 
-3.15524e-01  2.26362e+01 
-5.25904e-01  2.26368e+01 
-7.36404e-01  2.26377e+01 
-9.46984e-01  2.26389e+01 
-1.15775e+00  2.26404e+01 
-1.36866e+00  2.26421e+01 
-1.57983e+00  2.26442e+01 
-1.79121e+00  2.26466e+01 
-2.00290e+00  2.26492e+01 
-2.21487e+00  2.26522e+01 
-2.42723e+00  2.26555e+01 
-2.63993e+00  2.26591e+01 
-2.85307e+00  2.26629e+01 
-3.06662e+00  2.26671e+01 
-3.28068e+00  2.26716e+01 
-3.49521e+00  2.26764e+01 
-3.71032e+00  2.26816e+01 
-3.92595e+00  2.26870e+01 
-4.14222e+00  2.26927e+01 
-4.35907e+00  2.26988e+01 
-4.57663e+00  2.27052e+01 
-4.79483e+00  2.27119e+01 
-5.01378e+00  2.27190e+01 
-5.23344e+00  2.27264e+01 
-5.45392e+00  2.27341e+01 
-5.67515e+00  2.27421e+01 
-5.89726e+00  2.27505e+01 
-6.12018e+00  2.27592e+01 
-6.34403e+00  2.27683e+01 
-6.56875e+00  2.27777e+01 
-6.79445e+00  2.27874e+01 
-7.02107e+00  2.27975e+01 
-7.24872e+00  2.28080e+01 
-7.47735e+00  2.28187e+01 
-7.70707e+00  2.28299e+01 
-7.93781e+00  2.28413e+01 
-8.16968e+00  2.28532e+01 
-8.40264e+00  2.28653e+01 
-8.63678e+00  2.28778e+01 
-8.87206e+00  2.28907e+01 
-9.10857e+00  2.29039e+01 
-9.34626e+00  2.29175e+01 
-9.58524e+00  2.29314e+01 
-9.82546e+00  2.29456e+01 
-1.00670e+01  2.29602e+01 
-1.03099e+01  2.29751e+01 
-1.05541e+01  2.29903e+01 
-1.07997e+01  2.30059e+01 
-1.10467e+01  2.30218e+01 
 1.11886e+01  2.40496e+01 
 1.09387e+01  2.40348e+01 
 1.06902e+01  2.40203e+01 
 1.04431e+01  2.40061e+01 
 1.01973e+01  2.39922e+01 
 9.95284e+00  2.39786e+01 
 9.70968e+00  2.39654e+01 
 9.46773e+00  2.39525e+01 
 9.22707e+00  2.39399e+01 
 8.98758e+00  2.39276e+01 
 8.74932e+00  2.39157e+01 
 8.51218e+00  2.39040e+01 
 8.27623e+00  2.38928e+01 
 8.04134e+00  2.38818e+01 
 7.80761e+00  2.38712e+01 
 7.57489e+00  2.38609e+01 
 7.34327e+00  2.38510e+01 
 7.11262e+00  2.38414e+01 
 6.88302e+00  2.38321e+01 
 6.65434e+00  2.38231e+01 
 6.42665e+00  2.38145e+01 
 6.19984e+00  2.38062e+01 
 5.97397e+00  2.37982e+01 
 5.74892e+00  2.37905e+01 
 5.52476e+00  2.37832e+01 
 5.30137e+00  2.37761e+01 
 5.07881e+00  2.37694e+01 
 4.85696e+00  2.37630e+01 
 4.63589e+00  2.37568e+01 
 4.41547e+00  2.37510e+01 
 4.19577e+00  2.37455e+01 
 3.97666e+00  2.37403e+01 
 3.75820e+00  2.37353e+01 
 3.54029e+00  2.37307e+01 
 3.32296e+00  2.37264e+01 
 3.10611e+00  2.37223e+01 
 2.88979e+00  2.37185e+01 
 2.67387e+00  2.37150e+01 
 2.45842e+00  2.37118e+01 
 2.24332e+00  2.37088e+01 
 2.02861e+00  2.37061e+01 
 1.81418e+00  2.37037e+01 
 1.60009e+00  2.37016e+01 
 1.38621e+00  2.36998e+01 
 1.17259e+00  2.36982e+01 
 9.59113e-01  2.36968e+01 
 7.45837e-01  2.36958e+01 
 5.32636e-01  2.36950e+01 
 3.19566e-01  2.36944e+01 
 1.06501e-01  2.36942e+01 
-1.06501e-01  2.36942e+01 
-3.19566e-01  2.36944e+01 
-5.32636e-01  2.36950e+01 
-7.45837e-01  2.36958e+01 
-9.59113e-01  2.36968e+01 
-1.17259e+00  2.36982e+01 
-1.38621e+00  2.36998e+01 
-1.60009e+00  2.37016e+01 
-1.81418e+00  2.37037e+01 
-2.02861e+00  2.37061e+01 
-2.24332e+00  2.37088e+01 
-2.45842e+00  2.37118e+01 
-2.67387e+00  2.37150e+01 
-2.88979e+00  2.37185e+01 
-3.10611e+00  2.37223e+01 
-3.32296e+00  2.37264e+01 
-3.54029e+00  2.37307e+01 
-3.75820e+00  2.37353e+01 
-3.97666e+00  2.37403e+01 
-4.19577e+00  2.37455e+01 
-4.41547e+00  2.37510e+01 
-4.63589e+00  2.37568e+01 
-4.85696e+00  2.37630e+01 
-5.07881e+00  2.37694e+01 
-5.30137e+00  2.37761e+01 
-5.52476e+00  2.37832e+01 
-5.74892e+00  2.37905e+01 
-5.97397e+00  2.37982e+01 
-6.19984e+00  2.38062e+01 
-6.42665e+00  2.38145e+01 
-6.65434e+00  2.38231e+01 
-6.88302e+00  2.38321e+01 
-7.11262e+00  2.38414e+01 
-7.34327e+00  2.38510e+01 
-7.57489e+00  2.38609e+01 
-7.80761e+00  2.38712e+01 
-8.04134e+00  2.38818e+01 
-8.27623e+00  2.38928e+01 
-8.51218e+00  2.39040e+01 
-8.74932e+00  2.39157e+01 
-8.98758e+00  2.39276e+01 
-9.22707e+00  2.39399e+01 
-9.46773e+00  2.39525e+01 
-9.70968e+00  2.39654e+01 
-9.95284e+00  2.39786e+01 
-1.01973e+01  2.39922e+01 
-1.04431e+01  2.40061e+01 
-1.06902e+01  2.40203e+01 
-1.09387e+01  2.40348e+01 
-1.11886e+01  2.40496e+01 
 1.13206e+01  2.50888e+01 
 1.10681e+01  2.50750e+01 
 1.08169e+01  2.50615e+01 
 1.05670e+01  2.50484e+01 
 1.03185e+01  2.50355e+01 
 1.00713e+01  2.50229e+01 
 9.82531e+00  2.50106e+01 
 9.58057e+00  2.49986e+01 
 9.33708e+00  2.49870e+01 
 9.09476e+00  2.49757e+01 
 8.85365e+00  2.49646e+01 
 8.61368e+00  2.49539e+01 
 8.37487e+00  2.49436e+01 
 8.13715e+00  2.49335e+01 
 7.90056e+00  2.49238e+01 
 7.66501e+00  2.49144e+01 
 7.43054e+00  2.49052e+01 
 7.19707e+00  2.48965e+01 
 6.96464e+00  2.48880e+01 
 6.73316e+00  2.48798e+01 
 6.50267e+00  2.48720e+01 
 6.27308e+00  2.48644e+01 
 6.04444e+00  2.48572e+01 
 5.81664e+00  2.48502e+01 
 5.58974e+00  2.48436e+01 
 5.36363e+00  2.48372e+01 
 5.13836e+00  2.48312e+01 
 4.91383e+00  2.48254e+01 
 4.69008e+00  2.48199e+01 
 4.46701e+00  2.48147e+01 
 4.24466e+00  2.48097e+01 
 4.02294e+00  2.48050e+01 
 3.80188e+00  2.48006e+01 
 3.58138e+00  2.47965e+01 
 3.36147e+00  2.47926e+01 
 3.14207e+00  2.47889e+01 
 2.92319e+00  2.47856e+01 
 2.70476e+00  2.47825e+01 
 2.48678e+00  2.47796e+01 
 2.26918e+00  2.47770e+01 
 2.05197e+00  2.47746e+01 
 1.83506e+00  2.47724e+01 
 1.61848e+00  2.47706e+01 
 1.40214e+00  2.47689e+01 
 1.18605e+00  2.47675e+01 
 9.70129e-01  2.47663e+01 
 7.54390e-01  2.47654e+01 
 5.38752e-01  2.47647e+01 
 3.23225e-01  2.47642e+01 
 1.07728e-01  2.47640e+01 
-1.07728e-01  2.47640e+01 
-3.23225e-01  2.47642e+01 
-5.38752e-01  2.47647e+01 
-7.54390e-01  2.47654e+01 
-9.70129e-01  2.47663e+01 
-1.18605e+00  2.47675e+01 
-1.40214e+00  2.47689e+01 
-1.61848e+00  2.47706e+01 
-1.83506e+00  2.47724e+01 
-2.05197e+00  2.47746e+01 
-2.26918e+00  2.47770e+01 
-2.48678e+00  2.47796e+01 
-2.70476e+00  2.47825e+01 
-2.92319e+00  2.47856e+01 
-3.14207e+00  2.47889e+01 
-3.36147e+00  2.47926e+01 
-3.58138e+00  2.47965e+01 
-3.80188e+00  2.48006e+01 
-4.02294e+00  2.48050e+01 
-4.24466e+00  2.48097e+01 
-4.46701e+00  2.48147e+01 
-4.69008e+00  2.48199e+01 
-4.91383e+00  2.48254e+01 
-5.13836e+00  2.48312e+01 
-5.36363e+00  2.48372e+01 
-5.58974e+00  2.48436e+01 
-5.81664e+00  2.48502e+01 
-6.04444e+00  2.48572e+01 
-6.27308e+00  2.48644e+01 
-6.50267e+00  2.48720e+01 
-6.73316e+00  2.48798e+01 
-6.96464e+00  2.48880e+01 
-7.19707e+00  2.48965e+01 
-7.43054e+00  2.49052e+01 
-7.66501e+00  2.49144e+01 
-7.90056e+00  2.49238e+01 
-8.13715e+00  2.49335e+01 
-8.37487e+00  2.49436e+01 
-8.61368e+00  2.49539e+01 
-8.85365e+00  2.49646e+01 
-9.09476e+00  2.49757e+01 
-9.33708e+00  2.49870e+01 
-9.58057e+00  2.49986e+01 
-9.82531e+00  2.50106e+01 
-1.00713e+01  2.50229e+01 
-1.03185e+01  2.50355e+01 
-1.05670e+01  2.50484e+01 
-1.08169e+01  2.50615e+01 
-1.10681e+01  2.50750e+01 
-1.13206e+01  2.50888e+01 
 1.08482e+01  2.25056e+01 
 1.06034e+01  2.24893e+01 
 1.03601e+01  2.24734e+01 
 1.01180e+01  2.24578e+01 
 9.87741e+00  2.24426e+01 
 9.63805e+00  2.24276e+01 
 9.40004e+00  2.24131e+01 
 9.16324e+00  2.23989e+01 
 8.92773e+00  2.23850e+01 
 8.69339e+00  2.23715e+01 
 8.46028e+00  2.23584e+01 
 8.22829e+00  2.23456e+01 
 7.99747e+00  2.23332e+01 
 7.76772e+00  2.23211e+01 
 7.53910e+00  2.23094e+01 
 7.31148e+00  2.22980e+01 
 7.08495e+00  2.22870e+01 
 6.85936e+00  2.22763e+01 
 6.63480e+00  2.22660e+01 
 6.41114e+00  2.22561e+01 
 6.18845e+00  2.22465e+01 
 5.96661e+00  2.22372e+01 
 5.74568e+00  2.22283e+01 
 5.52555e+00  2.22198e+01 
 5.30627e+00  2.22116e+01 
 5.08773e+00  2.22037e+01 
 4.86999e+00  2.21962e+01 
 4.65293e+00  2.21890e+01 
 4.43661e+00  2.21821e+01 
 4.22091e+00  2.21756e+01 
 4.00589e+00  2.21694e+01 
 3.79144e+00  2.21636e+01 
 3.57761e+00  2.21581e+01 
 3.36428e+00  2.21529e+01 
 3.15151e+00  2.21480e+01 
 2.93919e+00  2.21435e+01 
 2.72735e+00  2.21392e+01 
 2.51590e+00  2.21353e+01 
 2.30489e+00  2.21317e+01 
 2.09418e+00  2.21285e+01 
 1.88385e+00  2.21255e+01 
 1.67377e+00  2.21229e+01 
 1.46400e+00  2.21206e+01 
 1.25441e+00  2.21185e+01 
 1.04506e+00  2.21168e+01 
 8.35833e-01  2.21155e+01 
 6.26780e-01  2.21144e+01 
 4.17785e-01  2.21136e+01 
 2.08897e-01  2.21131e+01 
-5.15197e-13  2.21130e+01 
-2.08897e-01  2.21131e+01 
-4.17785e-01  2.21136e+01 
-6.26780e-01  2.21144e+01 
-8.35833e-01  2.21155e+01 
-1.04506e+00  2.21168e+01 
-1.25441e+00  2.21185e+01 
-1.46400e+00  2.21206e+01 
-1.67377e+00  2.21229e+01 
-1.88385e+00  2.21255e+01 
-2.09418e+00  2.21285e+01 
-2.30489e+00  2.21317e+01 
-2.51590e+00  2.21353e+01 
-2.72735e+00  2.21392e+01 
-2.93919e+00  2.21435e+01 
-3.15151e+00  2.21480e+01 
-3.36428e+00  2.21529e+01 
-3.57761e+00  2.21581e+01 
-3.79144e+00  2.21636e+01 
-4.00589e+00  2.21694e+01 
-4.22091e+00  2.21756e+01 
-4.43661e+00  2.21821e+01 
-4.65293e+00  2.21890e+01 
-4.86999e+00  2.21962e+01 
-5.08773e+00  2.22037e+01 
-5.30627e+00  2.22116e+01 
-5.52555e+00  2.22198e+01 
-5.74568e+00  2.22283e+01 
-5.96661e+00  2.22372e+01 
-6.18845e+00  2.22465e+01 
-6.41114e+00  2.22561e+01 
-6.63480e+00  2.22660e+01 
-6.85936e+00  2.22763e+01 
-7.08495e+00  2.22870e+01 
-7.31148e+00  2.22980e+01 
-7.53910e+00  2.23094e+01 
-7.76772e+00  2.23211e+01 
-7.99747e+00  2.23332e+01 
-8.22829e+00  2.23456e+01 
-8.46028e+00  2.23584e+01 
-8.69339e+00  2.23715e+01 
-8.92773e+00  2.23850e+01 
-9.16324e+00  2.23989e+01 
-9.40004e+00  2.24131e+01 
-9.63805e+00  2.24276e+01 
-9.87741e+00  2.24426e+01 
-1.01180e+01  2.24578e+01 
-1.03601e+01  2.24734e+01 
-1.06034e+01  2.24893e+01 
-1.08482e+01  2.25056e+01 
 1.09936e+01  2.35279e+01 
 1.07458e+01  2.35127e+01 
 1.04995e+01  2.34978e+01 
 1.02545e+01  2.34833e+01 
 1.00108e+01  2.34690e+01 
 9.76844e+00  2.34551e+01 
 9.52738e+00  2.34415e+01 
 9.28753e+00  2.34283e+01 
 9.04897e+00  2.34154e+01 
 8.81156e+00  2.34028e+01 
 8.57537e+00  2.33906e+01 
 8.34030e+00  2.33787e+01 
 8.10640e+00  2.33671e+01 
 7.87357e+00  2.33559e+01 
 7.64186e+00  2.33451e+01 
 7.41117e+00  2.33345e+01 
 7.18155e+00  2.33243e+01 
 6.95289e+00  2.33145e+01 
 6.72526e+00  2.33050e+01 
 6.49854e+00  2.32958e+01 
 6.27280e+00  2.32869e+01 
 6.04791e+00  2.32784e+01 
 5.82394e+00  2.32702e+01 
 5.60078e+00  2.32624e+01 
 5.37848e+00  2.32548e+01 
 5.15694e+00  2.32476e+01 
 4.93620e+00  2.32407e+01 
 4.71615e+00  2.32341e+01 
 4.49686e+00  2.32279e+01 
 4.27820e+00  2.32219e+01 
 4.06024e+00  2.32163e+01 
 3.84285e+00  2.32109e+01 
 3.62609e+00  2.32059e+01 
 3.40985e+00  2.32012e+01 
 3.19417e+00  2.31967e+01 
 2.97895e+00  2.31926e+01 
 2.76423e+00  2.31888e+01 
 2.54991e+00  2.31852e+01 
 2.33602e+00  2.31820e+01 
 2.12246e+00  2.31790e+01 
 1.90928e+00  2.31763e+01 
 1.69636e+00  2.31739e+01 
 1.48374e+00  2.31718e+01 
 1.27133e+00  2.31700e+01 
 1.05915e+00  2.31684e+01 
 8.47100e-01  2.31672e+01 
 6.35228e-01  2.31662e+01 
 4.23415e-01  2.31655e+01 
 2.11712e-01  2.31651e+01 
-4.99624e-13  2.31650e+01 
-2.11712e-01  2.31651e+01 
-4.23415e-01  2.31655e+01 
-6.35228e-01  2.31662e+01 
-8.47100e-01  2.31672e+01 
-1.05915e+00  2.31684e+01 
-1.27133e+00  2.31700e+01 
-1.48374e+00  2.31718e+01 
-1.69636e+00  2.31739e+01 
-1.90928e+00  2.31763e+01 
-2.12246e+00  2.31790e+01 
-2.33602e+00  2.31820e+01 
-2.54991e+00  2.31852e+01 
-2.76423e+00  2.31888e+01 
-2.97895e+00  2.31926e+01 
-3.19417e+00  2.31967e+01 
-3.40985e+00  2.32012e+01 
-3.62609e+00  2.32059e+01 
-3.84285e+00  2.32109e+01 
-4.06024e+00  2.32163e+01 
-4.27820e+00  2.32219e+01 
-4.49686e+00  2.32279e+01 
-4.71615e+00  2.32341e+01 
-4.93620e+00  2.32407e+01 
-5.15694e+00  2.32476e+01 
-5.37848e+00  2.32548e+01 
-5.60078e+00  2.32624e+01 
-5.82394e+00  2.32702e+01 
-6.04791e+00  2.32784e+01 
-6.27280e+00  2.32869e+01 
-6.49854e+00  2.32958e+01 
-6.72526e+00  2.33050e+01 
-6.95289e+00  2.33145e+01 
-7.18155e+00  2.33243e+01 
-7.41117e+00  2.33345e+01 
-7.64186e+00  2.33451e+01 
-7.87357e+00  2.33559e+01 
-8.10640e+00  2.33671e+01 
-8.34030e+00  2.33787e+01 
-8.57537e+00  2.33906e+01 
-8.81156e+00  2.34028e+01 
-9.04897e+00  2.34154e+01 
-9.28753e+00  2.34283e+01 
-9.52738e+00  2.34415e+01 
-9.76844e+00  2.34551e+01 
-1.00108e+01  2.34690e+01 
-1.02545e+01  2.34833e+01 
-1.04995e+01  2.34978e+01 
-1.07458e+01  2.35127e+01 
-1.09936e+01  2.35279e+01 
 1.11291e+01  2.45619e+01 
 1.08786e+01  2.45478e+01 
 1.06295e+01  2.45339e+01 
 1.03816e+01  2.45204e+01 
 1.01351e+01  2.45072e+01 
 9.88990e+00  2.44942e+01 
 9.64597e+00  2.44816e+01 
 9.40324e+00  2.44693e+01 
 9.16177e+00  2.44574e+01 
 8.92145e+00  2.44457e+01 
 8.68235e+00  2.44344e+01 
 8.44435e+00  2.44234e+01 
 8.20753e+00  2.44128e+01 
 7.97178e+00  2.44024e+01 
 7.73715e+00  2.43924e+01 
 7.50353e+00  2.43827e+01 
 7.27100e+00  2.43734e+01 
 7.03944e+00  2.43643e+01 
 6.80891e+00  2.43556e+01 
 6.57931e+00  2.43472e+01 
 6.35068e+00  2.43391e+01 
 6.12293e+00  2.43314e+01 
 5.89611e+00  2.43239e+01 
 5.67011e+00  2.43167e+01 
 5.44499e+00  2.43099e+01 
 5.22063e+00  2.43033e+01 
 4.99709e+00  2.42971e+01 
 4.77427e+00  2.42911e+01 
 4.55221e+00  2.42855e+01 
 4.33080e+00  2.42801e+01 
 4.11010e+00  2.42750e+01 
 3.88999e+00  2.42702e+01 
 3.67052e+00  2.42656e+01 
 3.45159e+00  2.42614e+01 
 3.23323e+00  2.42574e+01 
 3.01534e+00  2.42537e+01 
 2.79797e+00  2.42502e+01 
 2.58100e+00  2.42471e+01 
 2.36449e+00  2.42442e+01 
 2.14831e+00  2.42415e+01 
 1.93251e+00  2.42391e+01 
 1.71699e+00  2.42370e+01 
 1.50178e+00  2.42351e+01 
 1.28677e+00  2.42334e+01 
 1.07201e+00  2.42321e+01 
 8.57383e-01  2.42309e+01 
 6.42937e-01  2.42301e+01 
 4.28552e-01  2.42294e+01 
 2.14280e-01  2.42291e+01 
-4.44257e-13  2.42289e+01 
-2.14280e-01  2.42291e+01 
-4.28552e-01  2.42294e+01 
-6.42937e-01  2.42301e+01 
-8.57383e-01  2.42309e+01 
-1.07201e+00  2.42321e+01 
-1.28677e+00  2.42334e+01 
-1.50178e+00  2.42351e+01 
-1.71699e+00  2.42370e+01 
-1.93251e+00  2.42391e+01 
-2.14831e+00  2.42415e+01 
-2.36449e+00  2.42442e+01 
-2.58100e+00  2.42471e+01 
-2.79797e+00  2.42502e+01 
-3.01534e+00  2.42537e+01 
-3.23323e+00  2.42574e+01 
-3.45159e+00  2.42614e+01 
-3.67052e+00  2.42656e+01 
-3.88999e+00  2.42702e+01 
-4.11010e+00  2.42750e+01 
-4.33080e+00  2.42801e+01 
-4.55221e+00  2.42855e+01 
-4.77427e+00  2.42911e+01 
-4.99709e+00  2.42971e+01 
-5.22063e+00  2.43033e+01 
-5.44499e+00  2.43099e+01 
-5.67011e+00  2.43167e+01 
-5.89611e+00  2.43239e+01 
-6.12293e+00  2.43314e+01 
-6.35068e+00  2.43391e+01 
-6.57931e+00  2.43472e+01 
-6.80891e+00  2.43556e+01 
-7.03944e+00  2.43643e+01 
-7.27100e+00  2.43734e+01 
-7.50353e+00  2.43827e+01 
-7.73715e+00  2.43924e+01 
-7.97178e+00  2.44024e+01 
-8.20753e+00  2.44128e+01 
-8.44435e+00  2.44234e+01 
-8.68235e+00  2.44344e+01 
-8.92145e+00  2.44457e+01 
-9.16177e+00  2.44574e+01 
-9.40324e+00  2.44693e+01 
-9.64597e+00  2.44816e+01 
-9.88990e+00  2.44942e+01 
-1.01351e+01  2.45072e+01 
-1.03816e+01  2.45204e+01 
-1.06295e+01  2.45339e+01 
-1.08786e+01  2.45478e+01 
-1.11291e+01  2.45619e+01 </DataArray>
         </PointData>
         <CellData/>
      </Piece>
   </UnstructuredGrid>
</VTKFile>