<?xml version="1.0" encoding="utf-8"?>
<VTKFile byte_order="LittleEndian" type="UnstructuredGrid" version="0.1">
   <UnstructuredGrid>
      <Piece NumberOfCells="1188" NumberOfPoints="697">
         <Points>
            <DataArray Name="Points" NumberOfComponents="3" format="ascii" type="Float32">
0.8750 0.0000 0.0000
0.8750 0.0051 0.0000
0.8750 0.0101 0.0000
0.8750 0.0152 0.0000
0.8750 0.0202 0.0000
0.8750 0.0253 0.0000
0.8750 0.0303 0.0000
0.8750 0.0354 0.0000
0.8750 0.0404 0.0000
0.8750 0.0455 0.0000
0.8750 0.0505 0.0000
0.8750 0.0556 0.0000
0.8750 0.0606 0.0000
0.8750 0.0657 0.0000
0.8750 0.0707 0.0000
0.8750 0.0758 0.0000
0.8750 0.0808 0.0000
0.8750 0.0859 0.0000
0.8750 0.0909 0.0000
0.8750 0.0960 0.0000
0.8750 0.1010 0.0000
0.8750 0.1061 0.0000
0.8750 0.1111 0.0000
0.8750 0.1162 0.0000
0.8750 0.1212 0.0000
0.8750 0.1263 0.0000
0.8750 0.1313 0.0000
0.8750 0.1364 0.0000
0.8750 0.1414 0.0000
0.8750 0.1465 0.0000
0.8750 0.1515 0.0000
0.8750 0.1566 0.0000
0.8750 0.1616 0.0000
0.8750 0.1667 0.0000
0.8750 0.1717 0.0000
0.8750 0.1768 0.0000
0.8750 0.1818 0.0000
0.8750 0.1869 0.0000
0.8750 0.1919 0.0000
0.8750 0.1970 0.0000
0.8750 0.2020 0.0000
0.8750 0.2071 0.0000
0.8750 0.2121 0.0000
0.8750 0.2172 0.0000
0.8750 0.2222 0.0000
0.8750 0.2273 0.0000
0.8750 0.2323 0.0000
0.8750 0.2374 0.0000
0.8750 0.2424 0.0000
0.8750 0.2475 0.0000
0.8750 0.2525 0.0000
0.8750 0.2576 0.0000
0.8750 0.2626 0.0000
0.8750 0.2677 0.0000
0.8750 0.2727 0.0000
0.8750 0.2778 0.0000
0.8750 0.2828 0.0000
0.8750 0.2879 0.0000
0.8750 0.2929 0.0000
0.8750 0.2980 0.0000
0.8750 0.3030 0.0000
0.8750 0.3081 0.0000
0.8750 0.3131 0.0000
0.8750 0.3182 0.0000
0.8750 0.3232 0.0000
0.8750 0.3283 0.0000
0.8750 0.3333 0.0000
0.8750 0.3384 0.0000
0.8750 0.3434 0.0000
0.8750 0.3485 0.0000
0.8750 0.3535 0.0000
0.8750 0.3586 0.0000
0.8750 0.3636 0.0000
0.8750 0.3687 0.0000
0.8750 0.3737 0.0000
0.8750 0.3788 0.0000
0.8750 0.3838 0.0000
0.8750 0.3889 0.0000
0.8750 0.3939 0.0000
0.8750 0.3990 0.0000
0.8750 0.4040 0.0000
0.8750 0.4091 0.0000
0.8750 0.4141 0.0000
0.8750 0.4192 0.0000
0.8750 0.4242 0.0000
0.8750 0.4293 0.0000
0.8750 0.4343 0.0000
0.8750 0.4394 0.0000
0.8750 0.4444 0.0000
0.8750 0.4495 0.0000
0.8750 0.4545 0.0000
0.8750 0.4596 0.0000
0.8750 0.4646 0.0000
0.8750 0.4697 0.0000
0.8750 0.4747 0.0000
0.8750 0.4798 0.0000
0.8750 0.4848 0.0000
0.8750 0.4899 0.0000
0.8750 0.4949 0.0000
0.8750 0.5000 0.0000
0.8958 0.0000 0.0000
0.8958 0.0051 0.0000
0.8958 0.0101 0.0000
0.8958 0.0152 0.0000
0.8958 0.0202 0.0000
0.8958 0.0253 0.0000
0.8958 0.0303 0.0000
0.8958 0.0354 0.0000
0.8958 0.0404 0.0000
0.8958 0.0455 0.0000
0.8958 0.0505 0.0000
0.8958 0.0556 0.0000
0.8958 0.0606 0.0000
0.8958 0.0657 0.0000
0.8958 0.0707 0.0000
0.8958 0.0758 0.0000
0.8958 0.0808 0.0000
0.8958 0.0859 0.0000
0.8958 0.0909 0.0000
0.8958 0.0960 0.0000
0.8958 0.1010 0.0000
0.8958 0.1061 0.0000
0.8958 0.1111 0.0000
0.8958 0.1162 0.0000
0.8958 0.1212 0.0000
0.8958 0.1263 0.0000
0.8958 0.1313 0.0000
0.8958 0.1364 0.0000
0.8958 0.1414 0.0000
0.8958 0.1465 0.0000
0.8958 0.1515 0.0000
0.8958 0.1566 0.0000
0.8958 0.1616 0.0000
0.8958 0.1667 0.0000
0.8958 0.1717 0.0000
0.8958 0.1768 0.0000
0.8958 0.1818 0.0000
0.8958 0.1869 0.0000
0.8958 0.1919 0.0000
0.8958 0.1970 0.0000
0.8958 0.2020 0.0000
0.8958 0.2071 0.0000
0.8958 0.2121 0.0000
0.8958 0.2172 0.0000
0.8958 0.2222 0.0000
0.8958 0.2273 0.0000
0.8958 0.2323 0.0000
0.8958 0.2374 0.0000
0.8958 0.2424 0.0000
0.8958 0.2475 0.0000
0.8958 0.2525 0.0000
0.8958 0.2576 0.0000
0.8958 0.2626 0.0000
0.8958 0.2677 0.0000
0.8958 0.2727 0.0000
0.8958 0.2778 0.0000
0.8958 0.2828 0.0000
0.8958 0.2879 0.0000
0.8958 0.2929 0.0000
0.8958 0.2980 0.0000
0.8958 0.3030 0.0000
0.8958 0.3081 0.0000
0.8958 0.3131 0.0000
0.8958 0.3182 0.0000
0.8958 0.3232 0.0000
0.8958 0.3283 0.0000
0.8958 0.3333 0.0000
0.8958 0.3384 0.0000
0.8958 0.3434 0.0000
0.8958 0.3485 0.0000
0.8958 0.3535 0.0000
0.8958 0.3586 0.0000
0.8958 0.3636 0.0000
0.8958 0.3687 0.0000
0.8958 0.3737 0.0000
0.8958 0.3788 0.0000
0.8958 0.3838 0.0000
0.8958 0.3889 0.0000
0.8958 0.3939 0.0000
0.8958 0.3990 0.0000
0.8958 0.4040 0.0000
0.8958 0.4091 0.0000
0.8958 0.4141 0.0000
0.8958 0.4192 0.0000
0.8958 0.4242 0.0000
0.8958 0.4293 0.0000
0.8958 0.4343 0.0000
0.8958 0.4394 0.0000
0.8958 0.4444 0.0000
0.8958 0.4495 0.0000
0.8958 0.4545 0.0000
0.8958 0.4596 0.0000
0.8958 0.4646 0.0000
0.8958 0.4697 0.0000
0.8958 0.4747 0.0000
0.8958 0.4798 0.0000
0.8958 0.4848 0.0000
0.8958 0.4899 0.0000
0.8958 0.4949 0.0000
0.8958 0.5000 0.0000
0.9167 0.0000 0.0000
0.9167 0.0051 0.0000
0.9167 0.0101 0.0000
0.9167 0.0152 0.0000
0.9167 0.0202 0.0000
0.9167 0.0253 0.0000
0.9167 0.0303 0.0000
0.9167 0.0354 0.0000
0.9167 0.0404 0.0000
0.9167 0.0455 0.0000
0.9167 0.0505 0.0000
0.9167 0.0556 0.0000
0.9167 0.0606 0.0000
0.9167 0.0657 0.0000
0.9167 0.0707 0.0000
0.9167 0.0758 0.0000
0.9167 0.0808 0.0000
0.9167 0.0859 0.0000
0.9167 0.0909 0.0000
0.9167 0.0960 0.0000
0.9167 0.1010 0.0000
0.9167 0.1061 0.0000
0.9167 0.1111 0.0000
0.9167 0.1162 0.0000
0.9167 0.1212 0.0000
0.9167 0.1263 0.0000
0.9167 0.1313 0.0000
0.9167 0.1364 0.0000
0.9167 0.1414 0.0000
0.9167 0.1465 0.0000
0.9167 0.1515 0.0000
0.9167 0.1566 0.0000
0.9167 0.1616 0.0000
0.9167 0.1667 0.0000
0.9167 0.1717 0.0000
0.9167 0.1768 0.0000
0.9167 0.1818 0.0000
0.9167 0.1869 0.0000
0.9167 0.1919 0.0000
0.9167 0.1970 0.0000
0.9167 0.2020 0.0000
0.9167 0.2071 0.0000
0.9167 0.2121 0.0000
0.9167 0.2172 0.0000
0.9167 0.2222 0.0000
0.9167 0.2273 0.0000
0.9167 0.2323 0.0000
0.9167 0.2374 0.0000
0.9167 0.2424 0.0000
0.9167 0.2475 0.0000
0.9167 0.2525 0.0000
0.9167 0.2576 0.0000
0.9167 0.2626 0.0000
0.9167 0.2677 0.0000
0.9167 0.2727 0.0000
0.9167 0.2778 0.0000
0.9167 0.2828 0.0000
0.9167 0.2879 0.0000
0.9167 0.2929 0.0000
0.9167 0.2980 0.0000
0.9167 0.3030 0.0000
0.9167 0.3081 0.0000
0.9167 0.3131 0.0000
0.9167 0.3182 0.0000
0.9167 0.3232 0.0000
0.9167 0.3283 0.0000
0.9167 0.3333 0.0000
0.9167 0.3384 0.0000
0.9167 0.3434 0.0000
0.9167 0.3485 0.0000
0.9167 0.3535 0.0000
0.9167 0.3586 0.0000
0.9167 0.3636 0.0000
0.9167 0.3687 0.0000
0.9167 0.3737 0.0000
0.9167 0.3788 0.0000
0.9167 0.3838 0.0000
0.9167 0.3889 0.0000
0.9167 0.3939 0.0000
0.9167 0.3990 0.0000
0.9167 0.4040 0.0000
0.9167 0.4091 0.0000
0.9167 0.4141 0.0000
0.9167 0.4192 0.0000
0.9167 0.4242 0.0000
0.9167 0.4293 0.0000
0.9167 0.4343 0.0000
0.9167 0.4394 0.0000
0.9167 0.4444 0.0000
0.9167 0.4495 0.0000
0.9167 0.4545 0.0000
0.9167 0.4596 0.0000
0.9167 0.4646 0.0000
0.9167 0.4697 0.0000
0.9167 0.4747 0.0000
0.9167 0.4798 0.0000
0.9167 0.4848 0.0000
0.9167 0.4899 0.0000
0.9167 0.4949 0.0000
0.9167 0.5000 0.0000
0.9375 0.0000 0.0000
0.9375 0.0051 0.0000
0.9375 0.0101 0.0000
0.9375 0.0152 0.0000
0.9375 0.0202 0.0000
0.9375 0.0253 0.0000
0.9375 0.0303 0.0000
0.9375 0.0354 0.0000
0.9375 0.0404 0.0000
0.9375 0.0455 0.0000
0.9375 0.0505 0.0000
0.9375 0.0556 0.0000
0.9375 0.0606 0.0000
0.9375 0.0657 0.0000
0.9375 0.0707 0.0000
0.9375 0.0758 0.0000
0.9375 0.0808 0.0000
0.9375 0.0859 0.0000
0.9375 0.0909 0.0000
0.9375 0.0960 0.0000
0.9375 0.1010 0.0000
0.9375 0.1061 0.0000
0.9375 0.1111 0.0000
0.9375 0.1162 0.0000
0.9375 0.1212 0.0000
0.9375 0.1263 0.0000
0.9375 0.1313 0.0000
0.9375 0.1364 0.0000
0.9375 0.1414 0.0000
0.9375 0.1465 0.0000
0.9375 0.1515 0.0000
0.9375 0.1566 0.0000
0.9375 0.1616 0.0000
0.9375 0.1667 0.0000
0.9375 0.1717 0.0000
0.9375 0.1768 0.0000
0.9375 0.1818 0.0000
0.9375 0.1869 0.0000
0.9375 0.1919 0.0000
0.9375 0.1970 0.0000
0.9375 0.2020 0.0000
0.9375 0.2071 0.0000
0.9375 0.2121 0.0000
0.9375 0.2172 0.0000
0.9375 0.2222 0.0000
0.9375 0.2273 0.0000
0.9375 0.2323 0.0000
0.9375 0.2374 0.0000
0.9375 0.2424 0.0000
0.9375 0.2475 0.0000
0.9375 0.2525 0.0000
0.9375 0.2576 0.0000
0.9375 0.2626 0.0000
0.9375 0.2677 0.0000
0.9375 0.2727 0.0000
0.9375 0.2778 0.0000
0.9375 0.2828 0.0000
0.9375 0.2879 0.0000
0.9375 0.2929 0.0000
0.9375 0.2980 0.0000
0.9375 0.3030 0.0000
0.9375 0.3081 0.0000
0.9375 0.3131 0.0000
0.9375 0.3182 0.0000
0.9375 0.3232 0.0000
0.9375 0.3283 0.0000
0.9375 0.3333 0.0000
0.9375 0.3384 0.0000
0.9375 0.3434 0.0000
0.9375 0.3485 0.0000
0.9375 0.3535 0.0000
0.9375 0.3586 0.0000
0.9375 0.3636 0.0000
0.9375 0.3687 0.0000
0.9375 0.3737 0.0000
0.9375 0.3788 0.0000
0.9375 0.3838 0.0000
0.9375 0.3889 0.0000
0.9375 0.3939 0.0000
0.9375 0.3990 0.0000
0.9375 0.4040 0.0000
0.9375 0.4091 0.0000
0.9375 0.4141 0.0000
0.9375 0.4192 0.0000
0.9375 0.4242 0.0000
0.9375 0.4293 0.0000
0.9375 0.4343 0.0000
0.9375 0.4394 0.0000
0.9375 0.4444 0.0000
0.9375 0.4495 0.0000
0.9375 0.4545 0.0000
0.9375 0.4596 0.0000
0.9375 0.4646 0.0000
0.9375 0.4697 0.0000
0.9375 0.4747 0.0000
0.9375 0.4798 0.0000
0.9375 0.4848 0.0000
0.9375 0.4899 0.0000
0.9375 0.4949 0.0000
0.9375 0.5000 0.0000
0.8854 0.0025 0.0000
0.8854 0.0076 0.0000
0.8854 0.0126 0.0000
0.8854 0.0177 0.0000
0.8854 0.0227 0.0000
0.8854 0.0278 0.0000
0.8854 0.0328 0.0000
0.8854 0.0379 0.0000
0.8854 0.0429 0.0000
0.8854 0.0480 0.0000
0.8854 0.0530 0.0000
0.8854 0.0581 0.0000
0.8854 0.0631 0.0000
0.8854 0.0682 0.0000
0.8854 0.0732 0.0000
0.8854 0.0783 0.0000
0.8854 0.0833 0.0000
0.8854 0.0884 0.0000
0.8854 0.0934 0.0000
0.8854 0.0985 0.0000
0.8854 0.1035 0.0000
0.8854 0.1086 0.0000
0.8854 0.1136 0.0000
0.8854 0.1187 0.0000
0.8854 0.1237 0.0000
0.8854 0.1288 0.0000
0.8854 0.1338 0.0000
0.8854 0.1389 0.0000
0.8854 0.1439 0.0000
0.8854 0.1490 0.0000
0.8854 0.1540 0.0000
0.8854 0.1591 0.0000
0.8854 0.1641 0.0000
0.8854 0.1692 0.0000
0.8854 0.1742 0.0000
0.8854 0.1793 0.0000
0.8854 0.1843 0.0000
0.8854 0.1894 0.0000
0.8854 0.1944 0.0000
0.8854 0.1995 0.0000
0.8854 0.2045 0.0000
0.8854 0.2096 0.0000
0.8854 0.2146 0.0000
0.8854 0.2197 0.0000
0.8854 0.2247 0.0000
0.8854 0.2298 0.0000
0.8854 0.2348 0.0000
0.8854 0.2399 0.0000
0.8854 0.2449 0.0000
0.8854 0.2500 0.0000
0.8854 0.2551 0.0000
0.8854 0.2601 0.0000
0.8854 0.2652 0.0000
0.8854 0.2702 0.0000
0.8854 0.2753 0.0000
0.8854 0.2803 0.0000
0.8854 0.2854 0.0000
0.8854 0.2904 0.0000
0.8854 0.2955 0.0000
0.8854 0.3005 0.0000
0.8854 0.3056 0.0000
[...]
         <PointData>
            <DataArray Name="fValues" NumberOfComponents="2" format="ascii" type="Float64">
 1.19252e+01  3.15281e+01 
 1.16587e+01  3.15197e+01 
 1.13932e+01  3.15116e+01 
 1.11286e+01  3.15039e+01 
 1.08651e+01  3.14965e+01 
 1.06026e+01  3.14894e+01 
 1.03413e+01  3.14826e+01 
 1.00811e+01  3.14762e+01 
 9.82211e+00  3.14701e+01 
 9.56431e+00  3.14644e+01 
 9.30784e+00  3.14589e+01 
 9.05258e+00  3.14537e+01 
 8.79868e+00  3.14488e+01 
 8.54601e+00  3.14441e+01 
 8.29472e+00  3.14397e+01 
 8.04465e+00  3.14355e+01 
 7.79595e+00  3.14315e+01 
 7.54847e+00  3.14277e+01 
 7.30231e+00  3.14241e+01 
 7.05733e+00  3.14206e+01 
 6.81364e+00  3.14173e+01 
 6.57107e+00  3.14141e+01 
 6.32973e+00  3.14111e+01 
 6.08945e+00  3.14081e+01 
 5.85034e+00  3.14053e+01 
 5.61222e+00  3.14027e+01 
 5.37519e+00  3.14001e+01 
 5.13909e+00  3.13976e+01 
 4.90400e+00  3.13953e+01 
 4.66975e+00  3.13930e+01 
 4.43644e+00  3.13909e+01 
 4.20389e+00  3.13888e+01 
 3.97219e+00  3.13869e+01 
 3.74118e+00  3.13850e+01 
 3.51093e+00  3.13833e+01 
 3.28129e+00  3.13816e+01 
 3.05232e+00  3.13801e+01 
 2.82387e+00  3.13786e+01 
 2.59602e+00  3.13773e+01 
 2.36860e+00  3.13761e+01 
 2.14169e+00  3.13750e+01 
 1.91513e+00  3.13740e+01 
 1.68899e+00  3.13730e+01 
 1.46311e+00  3.13723e+01 
 1.23757e+00  3.13716e+01 
 1.01221e+00  3.13710e+01 
 7.87103e-01  3.13706e+01 
 5.62082e-01  3.13702e+01 
 3.37232e-01  3.13700e+01 
 1.12382e-01  3.13699e+01 
-1.12382e-01  3.13699e+01 
-3.37232e-01  3.13700e+01 
-5.62082e-01  3.13702e+01 
-7.87103e-01  3.13706e+01 
-1.01221e+00  3.13710e+01 
-1.23757e+00  3.13716e+01 
-1.46311e+00  3.13723e+01 
-1.68899e+00  3.13730e+01 
-1.91513e+00  3.13740e+01 
-2.14169e+00  3.13750e+01 
-2.36860e+00  3.13761e+01 
-2.59602e+00  3.13773e+01 
-2.82387e+00  3.13786e+01 
-3.05232e+00  3.13801e+01 
-3.28129e+00  3.13816e+01 
-3.51093e+00  3.13833e+01 
-3.74118e+00  3.13850e+01 
-3.97219e+00  3.13869e+01 
-4.20389e+00  3.13888e+01 
-4.43644e+00  3.13909e+01 
-4.66975e+00  3.13930e+01 
-4.90400e+00  3.13953e+01 
-5.13909e+00  3.13976e+01 
-5.37519e+00  3.14001e+01 
-5.61222e+00  3.14027e+01 
-5.85034e+00  3.14053e+01 
-6.08945e+00  3.14081e+01 
-6.32973e+00  3.14111e+01 
-6.57107e+00  3.14141e+01 
-6.81364e+00  3.14173e+01 
-7.05733e+00  3.14206e+01 
-7.30231e+00  3.14241e+01 
-7.54847e+00  3.14277e+01 
-7.79595e+00  3.14315e+01 
-8.04465e+00  3.14355e+01 
-8.29472e+00  3.14397e+01 
-8.54601e+00  3.14441e+01 
-8.79868e+00  3.14488e+01 
-9.05258e+00  3.14537e+01 
-9.30784e+00  3.14589e+01 
-9.56431e+00  3.14644e+01 
-9.82211e+00  3.14701e+01 
-1.00811e+01  3.14762e+01 
-1.03413e+01  3.14826e+01 
-1.06026e+01  3.14894e+01 
-1.08651e+01  3.14965e+01 
-1.11286e+01  3.15039e+01 
-1.13932e+01  3.15116e+01 
-1.16587e+01  3.15197e+01 
-1.19252e+01  3.15281e+01 
 1.20001e+01  3.26343e+01 
 1.17308e+01  3.26265e+01 
 1.14625e+01  3.26192e+01 
 1.11949e+01  3.26122e+01 
 1.09284e+01  3.26055e+01 
 1.06629e+01  3.25993e+01 
 1.03986e+01  3.25934e+01 
 1.01355e+01  3.25879e+01 
 9.87373e+00  3.25827e+01 
 9.61323e+00  3.25779e+01 
 9.35416e+00  3.25733e+01 
 9.09644e+00  3.25689e+01 
 8.84019e+00  3.25648e+01 
 8.58533e+00  3.25609e+01 
 8.33195e+00  3.25572e+01 
 8.07996e+00  3.25537e+01 
 7.82941e+00  3.25503e+01 
 7.58022e+00  3.25470e+01 
 7.33243e+00  3.25438e+01 
 7.08594e+00  3.25407e+01 
 6.84080e+00  3.25377e+01 
 6.59688e+00  3.25348e+01 
 6.35424e+00  3.25320e+01 
 6.11274e+00  3.25292e+01 
 5.87245e+00  3.25265e+01 
 5.63322e+00  3.25239e+01 
 5.39511e+00  3.25214e+01 
 5.15798e+00  3.25189e+01 
 4.92187e+00  3.25165e+01 
 4.68667e+00  3.25142e+01 
 4.45240e+00  3.25120e+01 
 4.21894e+00  3.25098e+01 
 3.98634e+00  3.25078e+01 
 3.75446e+00  3.25058e+01 
 3.52333e+00  3.25039e+01 
 3.29285e+00  3.25021e+01 
 3.06303e+00  3.25005e+01 
 2.83377e+00  3.24989e+01 
 2.60509e+00  3.24974e+01 
 2.37687e+00  3.24961e+01 
 2.14914e+00  3.24948e+01 
 1.92179e+00  3.24937e+01 
 1.69485e+00  3.24927e+01 
 1.46819e+00  3.24918e+01 
 1.24186e+00  3.24910e+01 
 1.01572e+00  3.24904e+01 
 7.89822e-01  3.24899e+01 
 5.64033e-01  3.24895e+01 
 3.38393e-01  3.24892e+01 
 1.12777e-01  3.24891e+01 
-1.12777e-01  3.24891e+01 
-3.38393e-01  3.24892e+01 
-5.64033e-01  3.24895e+01 
-7.89822e-01  3.24899e+01 
-1.01572e+00  3.24904e+01 
-1.24186e+00  3.24910e+01 
-1.46819e+00  3.24918e+01 
-1.69485e+00  3.24927e+01 
-1.92179e+00  3.24937e+01 
-2.14914e+00  3.24948e+01 
-2.37687e+00  3.24961e+01 
-2.60509e+00  3.24974e+01 
-2.83377e+00  3.24989e+01 
-3.06303e+00  3.25005e+01 
-3.29285e+00  3.25021e+01 
-3.52333e+00  3.25039e+01 
-3.75446e+00  3.25058e+01 
-3.98634e+00  3.25078e+01 
-4.21894e+00  3.25098e+01 
-4.45240e+00  3.25120e+01 
-4.68667e+00  3.25142e+01 
-4.92187e+00  3.25165e+01 
-5.15798e+00  3.25189e+01 
-5.39511e+00  3.25214e+01 
-5.63322e+00  3.25239e+01 
-5.87245e+00  3.25265e+01 
-6.11274e+00  3.25292e+01 
-6.35424e+00  3.25320e+01 
-6.59688e+00  3.25348e+01 
-6.84080e+00  3.25377e+01 
-7.08594e+00  3.25407e+01 
-7.33243e+00  3.25438e+01 
-7.58022e+00  3.25470e+01 
-7.82941e+00  3.25503e+01 
-8.07996e+00  3.25537e+01 
-8.33195e+00  3.25572e+01 
-8.58533e+00  3.25609e+01 
-8.84019e+00  3.25648e+01 
-9.09644e+00  3.25689e+01 
-9.35416e+00  3.25733e+01 
-9.61323e+00  3.25779e+01 
-9.87373e+00  3.25827e+01 
-1.01355e+01  3.25879e+01 
-1.03986e+01  3.25934e+01 
-1.06629e+01  3.25993e+01 
-1.09284e+01  3.26055e+01 
-1.11949e+01  3.26122e+01 
-1.14625e+01  3.26192e+01 
-1.17308e+01  3.26265e+01 
-1.20001e+01  3.26343e+01 
 1.20701e+01  3.37528e+01 
 1.17974e+01  3.37455e+01 
 1.15255e+01  3.37388e+01 
 1.12543e+01  3.37325e+01 
 1.09842e+01  3.37267e+01 
 1.07152e+01  3.37213e+01 
 1.04475e+01  3.37163e+01 
 1.01812e+01  3.37117e+01 
 9.91641e+00  3.37074e+01 
 9.65311e+00  3.37033e+01 
 9.39147e+00  3.36995e+01 
 9.13139e+00  3.36958e+01 
 8.87300e+00  3.36923e+01 
 8.61617e+00  3.36889e+01 
 8.36101e+00  3.36856e+01 
 8.10738e+00  3.36823e+01 
 7.85536e+00  3.36791e+01 
 7.60479e+00  3.36759e+01 
 7.35575e+00  3.36727e+01 
 7.10809e+00  3.36695e+01 
 6.86187e+00  3.36664e+01 
 6.61694e+00  3.36632e+01 
 6.37336e+00  3.36601e+01 
 6.13096e+00  3.36571e+01 
 5.88982e+00  3.36540e+01 
 5.64977e+00  3.36510e+01 
 5.41088e+00  3.36480e+01 
 5.17299e+00  3.36451e+01 
 4.93615e+00  3.36423e+01 
 4.70023e+00  3.36395e+01 
 4.46526e+00  3.36367e+01 
 4.23111e+00  3.36341e+01 
 3.99783e+00  3.36316e+01 
 3.76526e+00  3.36291e+01 
 3.53348e+00  3.36268e+01 
 3.30233e+00  3.36245e+01 
 3.07186e+00  3.36224e+01 
 2.84193e+00  3.36204e+01 
 2.61260e+00  3.36186e+01 
 2.38372e+00  3.36168e+01 
 2.15535e+00  3.36152e+01 
 1.92734e+00  3.36138e+01 
 1.69975e+00  3.36125e+01 
 1.47244e+00  3.36114e+01 
 1.24546e+00  3.36104e+01 
 1.01866e+00  3.36096e+01 
 7.92113e-01  3.36089e+01 
 5.65664e-01  3.36084e+01 
 3.39376e-01  3.36081e+01 
 1.13101e-01  3.36079e+01 
-1.13101e-01  3.36079e+01 
-3.39376e-01  3.36081e+01 
-5.65664e-01  3.36084e+01 
-7.92113e-01  3.36089e+01 
-1.01866e+00  3.36096e+01 
-1.24546e+00  3.36104e+01 
-1.47244e+00  3.36114e+01 
-1.69975e+00  3.36125e+01 
-1.92734e+00  3.36138e+01 
-2.15535e+00  3.36152e+01 
-2.38372e+00  3.36168e+01 
-2.61260e+00  3.36186e+01 
-2.84193e+00  3.36204e+01 
-3.07186e+00  3.36224e+01 
-3.30233e+00  3.36245e+01 
-3.53348e+00  3.36268e+01 
-3.76526e+00  3.36291e+01 
-3.99783e+00  3.36316e+01 
-4.23111e+00  3.36341e+01 
-4.46526e+00  3.36367e+01 
-4.70023e+00  3.36395e+01 
-4.93615e+00  3.36423e+01 
-5.17299e+00  3.36451e+01 
-5.41088e+00  3.36480e+01 
-5.64977e+00  3.36510e+01 
-5.88982e+00  3.36540e+01 
-6.13096e+00  3.36571e+01 
-6.37336e+00  3.36601e+01 
-6.61694e+00  3.36632e+01 
-6.86187e+00  3.36664e+01 
-7.10809e+00  3.36695e+01 
-7.35575e+00  3.36727e+01 
-7.60479e+00  3.36759e+01 
-7.85536e+00  3.36791e+01 
-8.10738e+00  3.36823e+01 
-8.36101e+00  3.36856e+01 
-8.61617e+00  3.36889e+01 
-8.87300e+00  3.36923e+01 
-9.13139e+00  3.36958e+01 
-9.39147e+00  3.36995e+01 
-9.65311e+00  3.37033e+01 
-9.91641e+00  3.37074e+01 
-1.01812e+01  3.37117e+01 
-1.04475e+01  3.37163e+01 
-1.07152e+01  3.37213e+01 
-1.09842e+01  3.37267e+01 
-1.12543e+01  3.37325e+01 
-1.15255e+01  3.37388e+01 
-1.17974e+01  3.37455e+01 
-1.20701e+01  3.37528e+01 
 1.21366e+01  3.48873e+01 
 1.18592e+01  3.48805e+01 
 1.15825e+01  3.48743e+01 
 1.13066e+01  3.48688e+01 
 1.10319e+01  3.48638e+01 
 1.07587e+01  3.48594e+01 
 1.04871e+01  3.48553e+01 
 1.02174e+01  3.48515e+01 
 9.94953e+00  3.48478e+01 
 9.68363e+00  3.48443e+01 
 9.41968e+00  3.48408e+01 
 9.15765e+00  3.48373e+01 
 8.89752e+00  3.48338e+01 
 8.63924e+00  3.48302e+01 
 8.38277e+00  3.48265e+01 
 8.12803e+00  3.48228e+01 
 7.87499e+00  3.48190e+01 
 7.62356e+00  3.48150e+01 
 7.37370e+00  3.48111e+01 
 7.12533e+00  3.48070e+01 
 6.87841e+00  3.48029e+01 
 6.63288e+00  3.47988e+01 
 6.38867e+00  3.47947e+01 
 6.14574e+00  3.47906e+01 
 5.90402e+00  3.47864e+01 
 5.66346e+00  3.47823e+01 
 5.42402e+00  3.47783e+01 
 5.18563e+00  3.47743e+01 
 4.94826e+00  3.47703e+01 
 4.71184e+00  3.47665e+01 
 4.47633e+00  3.47627e+01 
 4.24168e+00  3.47591e+01 
 4.00785e+00  3.47556e+01 
 3.77478e+00  3.47522e+01 
 3.54243e+00  3.47490e+01 
 3.31076e+00  3.47459e+01 
 3.07972e+00  3.47430e+01 
 2.84926e+00  3.47402e+01 
 2.61935e+00  3.47377e+01 
 2.38992e+00  3.47353e+01 
 2.16096e+00  3.47331e+01 
 1.93239e+00  3.47311e+01 
 1.70420e+00  3.47293e+01 
 1.47632e+00  3.47278e+01 
 1.24873e+00  3.47264e+01 
 1.02136e+00  3.47253e+01 
 7.94197e-01  3.47244e+01 
 5.67176e-01  3.47237e+01 
 3.40264e-01  3.47232e+01 
 1.13414e-01  3.47230e+01 
-1.13414e-01  3.47230e+01 
-3.40264e-01  3.47232e+01 
-5.67176e-01  3.47237e+01 
-7.94197e-01  3.47244e+01 
-1.02136e+00  3.47253e+01 
-1.24873e+00  3.47264e+01 
-1.47632e+00  3.47278e+01 
-1.70420e+00  3.47293e+01 
-1.93239e+00  3.47311e+01 
-2.16096e+00  3.47331e+01 
-2.38992e+00  3.47353e+01 
-2.61935e+00  3.47377e+01 
-2.84926e+00  3.47402e+01 
-3.07972e+00  3.47430e+01 
-3.31076e+00  3.47459e+01 
-3.54243e+00  3.47490e+01 
-3.77478e+00  3.47522e+01 
-4.00785e+00  3.47556e+01 
-4.24168e+00  3.47591e+01 
-4.47633e+00  3.47627e+01 
-4.71184e+00  3.47665e+01 
-4.94826e+00  3.47703e+01 
-5.18563e+00  3.47743e+01 
-5.42402e+00  3.47783e+01 
-5.66346e+00  3.47823e+01 
-5.90402e+00  3.47864e+01 
-6.14574e+00  3.47906e+01 
-6.38867e+00  3.47947e+01 
-6.63288e+00  3.47988e+01 
-6.87841e+00  3.48029e+01 
-7.12533e+00  3.48070e+01 
-7.37370e+00  3.48111e+01 
-7.62356e+00  3.48150e+01 
-7.87499e+00  3.48190e+01 
-8.12803e+00  3.48228e+01 
-8.38277e+00  3.48265e+01 
-8.63924e+00  3.48302e+01 
-8.89752e+00  3.48338e+01 
-9.15765e+00  3.48373e+01 
-9.41968e+00  3.48408e+01 
-9.68363e+00  3.48443e+01 
-9.94953e+00  3.48478e+01 
-1.02174e+01  3.48515e+01 
-1.04871e+01  3.48553e+01 
-1.07587e+01  3.48594e+01 
-1.10319e+01  3.48638e+01 
-1.13066e+01  3.48688e+01 
-1.15825e+01  3.48743e+01 
-1.18592e+01  3.48805e+01 
-1.21366e+01  3.48873e+01 
 1.18288e+01  3.20771e+01 
 1.15614e+01  3.20692e+01 
 1.12949e+01  3.20616e+01 
 1.10294e+01  3.20544e+01 
 1.07649e+01  3.20476e+01 
 1.05015e+01  3.20411e+01 
 1.02393e+01  3.20349e+01 
 9.97822e+00  3.20291e+01 
 9.71849e+00  3.20237e+01 
 9.46000e+00  3.20185e+01 
 9.20289e+00  3.20136e+01 
 8.94708e+00  3.20090e+01 
 8.69268e+00  3.20046e+01 
 8.43960e+00  3.20004e+01 
 8.18793e+00  3.19965e+01 
 7.93757e+00  3.19927e+01 
 7.68861e+00  3.19891e+01 
 7.44092e+00  3.19856e+01 
 7.19458e+00  3.19822e+01 
 6.94947e+00  3.19790e+01 
 6.70565e+00  3.19759e+01 
 6.46301e+00  3.19729e+01 
 6.22158e+00  3.19701e+01 
 5.98126e+00  3.19673e+01 
 5.74209e+00  3.19646e+01 
 5.50394e+00  3.19620e+01 
 5.26686e+00  3.19595e+01 
 5.03073e+00  3.19571e+01 
 4.79559e+00  3.19547e+01 
 4.56130e+00  3.19525e+01 
 4.32793e+00  3.19504e+01 
 4.09533e+00  3.19483e+01 
 3.86355e+00  3.19463e+01 
 3.63246e+00  3.19445e+01 
 3.40211e+00  3.19427e+01 
 3.17235e+00  3.19411e+01 
 2.94325e+00  3.19395e+01 
 2.71467e+00  3.19381e+01 
 2.48665e+00  3.19367e+01 
 2.25906e+00  3.19355e+01 
 2.03194e+00  3.19343e+01 
 1.80517e+00  3.19333e+01 
 1.57880e+00  3.19324e+01 
 1.35267e+00  3.19316e+01 
 1.12685e+00  3.19310e+01 
 9.01207e-01  3.19304e+01 
 6.75776e-01  3.19300e+01 
 4.50431e-01  3.19297e+01 
 2.25216e-01  3.19295e+01 
 6.85903e-13  3.19295e+01 
-2.25216e-01  3.19295e+01 
-4.50431e-01  3.19297e+01 
-6.75776e-01  3.19300e+01 
-9.01207e-01  3.19304e+01 
-1.12685e+00  3.19310e+01 
-1.35267e+00  3.19316e+01 
-1.57880e+00  3.19324e+01 
-1.80517e+00  3.19333e+01 
-2.03194e+00  3.19343e+01 
-2.25906e+00  3.19355e+01 
-2.48665e+00  3.19367e+01 
-2.71467e+00  3.19381e+01 
-2.94325e+00  3.19395e+01 
-3.17235e+00  3.19411e+01 
-3.40211e+00  3.19427e+01 
-3.63246e+00  3.19445e+01 
-3.86355e+00  3.19463e+01 
-4.09533e+00  3.19483e+01 
-4.32793e+00  3.19504e+01 
-4.56130e+00  3.19525e+01 
-4.79559e+00  3.19547e+01 
-5.03073e+00  3.19571e+01 
-5.26686e+00  3.19595e+01 
-5.50394e+00  3.19620e+01 
-5.74209e+00  3.19646e+01 
-5.98126e+00  3.19673e+01 
-6.22158e+00  3.19701e+01 
-6.46301e+00  3.19729e+01 
-6.70565e+00  3.19759e+01 
-6.94947e+00  3.19790e+01 
-7.19458e+00  3.19822e+01 
-7.44092e+00  3.19856e+01 
-7.68861e+00  3.19891e+01 
-7.93757e+00  3.19927e+01 
-8.18793e+00  3.19965e+01 
-8.43960e+00  3.20004e+01 
-8.69268e+00  3.20046e+01 
-8.94708e+00  3.20090e+01 
-9.20289e+00  3.20136e+01 
-9.46000e+00  3.20185e+01 
-9.71849e+00  3.20237e+01 
-9.97822e+00  3.20291e+01 
-1.02393e+01  3.20349e+01 
-1.05015e+01  3.20411e+01 
-1.07649e+01  3.20476e+01 
-1.10294e+01  3.20544e+01 
-1.12949e+01  3.20616e+01 
-1.15614e+01  3.20692e+01 
-1.18288e+01  3.20771e+01 
 1.18997e+01  3.31896e+01 
 1.16291e+01  3.31824e+01 
 1.13594e+01  3.31755e+01 
 1.10906e+01  3.31691e+01 
 1.08228e+01  3.31630e+01 
 1.05562e+01  3.31574e+01 
 1.02909e+01  3.31522e+01 
 1.00268e+01  3.31473e+01 
 9.76426e+00  3.31427e+01 
 9.50309e+00  3.31384e+01 
 9.24348e+00  3.31343e+01 
 8.98533e+00  3.31304e+01 
 8.72876e+00  3.31267e+01 
 8.47367e+00  3.31231e+01 
 8.22014e+00  3.31196e+01 
 7.96805e+00  3.31163e+01 
 7.71748e+00  3.31130e+01 
 7.46830e+00  3.31098e+01 
 7.22057e+00  3.31066e+01 
 6.97416e+00  3.31035e+01 
 6.72912e+00  3.31005e+01 
 6.48532e+00  3.30975e+01 
 6.24281e+00  3.30946e+01 
 6.00145e+00  3.30917e+01 
 5.76129e+00  3.30888e+01 
 5.52219e+00  3.30860e+01 
 5.28420e+00  3.30833e+01 
 5.04719e+00  3.30807e+01 
 4.81119e+00  3.30781e+01 
 4.57607e+00  3.30756e+01 
 4.34189e+00  3.30731e+01 
 4.10849e+00  3.30708e+01 
 3.87593e+00  3.30685e+01 
 3.64407e+00  3.30664e+01 
 3.41296e+00  3.30643e+01 
 3.18246e+00  3.30624e+01 
 2.95262e+00  3.30605e+01 
 2.72330e+00  3.30588e+01 
 2.49454e+00  3.30572e+01 
 2.26623e+00  3.30557e+01 
 2.03839e+00  3.30544e+01 
 1.81090e+00  3.30531e+01 
 1.58380e+00  3.30521e+01 
 1.35696e+00  3.30511e+01 
 1.13042e+00  3.30503e+01 
 9.04060e-01  3.30496e+01 
 6.77916e-01  3.30491e+01 
 4.51857e-01  3.30488e+01 
 2.25929e-01  3.30485e+01 
 9.26714e-13  3.30485e+01 
-2.25929e-01  3.30485e+01 
-4.51857e-01  3.30488e+01 
-6.77916e-01  3.30491e+01 
-9.04060e-01  3.30496e+01 
-1.13042e+00  3.30503e+01 
-1.35696e+00  3.30511e+01 
-1.58380e+00  3.30521e+01 
-1.81090e+00  3.30531e+01 
-2.03839e+00  3.30544e+01 
-2.26623e+00  3.30557e+01 
-2.49454e+00  3.30572e+01 
-2.72330e+00  3.30588e+01 
-2.95262e+00  3.30605e+01 
-3.18246e+00  3.30624e+01 
-3.41296e+00  3.30643e+01 
-3.64407e+00  3.30664e+01 
-3.87593e+00  3.30685e+01 
-4.10849e+00  3.30708e+01 
-4.34189e+00  3.30731e+01 
-4.57607e+00  3.30756e+01 
-4.81119e+00  3.30781e+01 
-5.04719e+00  3.30807e+01 
-5.28420e+00  3.30833e+01 
-5.52219e+00  3.30860e+01 
-5.76129e+00  3.30888e+01 
-6.00145e+00  3.30917e+01 
-6.24281e+00  3.30946e+01 
-6.48532e+00  3.30975e+01 
-6.72912e+00  3.31005e+01 
-6.97416e+00  3.31035e+01 
-7.22057e+00  3.31066e+01 
-7.46830e+00  3.31098e+01 
-7.71748e+00  3.31130e+01 
-7.96805e+00  3.31163e+01 
-8.22014e+00  3.31196e+01 
-8.47367e+00  3.31231e+01 
-8.72876e+00  3.31267e+01 
-8.98533e+00  3.31304e+01 
-9.24348e+00  3.31343e+01 
-9.50309e+00  3.31384e+01 
-9.76426e+00  3.31427e+01 
-1.00268e+01  3.31473e+01 
-1.02909e+01  3.31522e+01 
-1.05562e+01  3.31574e+01 
-1.08228e+01  3.31630e+01 
-1.10906e+01  3.31691e+01 
-1.13594e+01  3.31755e+01 
-1.16291e+01  3.31824e+01 
-1.18997e+01  3.31896e+01 
 1.19659e+01  3.43163e+01 
 1.16912e+01  3.43096e+01 
 1.14173e+01  3.43034e+01 
 1.11444e+01  3.42977e+01 
 1.08727e+01  3.42926e+01 
 1.06023e+01  3.42879e+01 
 1.03334e+01  3.42835e+01 
 1.00662e+01  3.42794e+01 
 9.80077e+00  3.42756e+01 
 9.53702e+00  3.42719e+01 
 9.27509e+00  3.42683e+01 
 9.01489e+00  3.42647e+01 
 8.75649e+00  3.42612e+01 
 8.49976e+00  3.42577e+01 
 8.24476e+00  3.42542e+01 
 7.99136e+00  3.42507e+01 
 7.73960e+00  3.42472e+01 
 7.48934e+00  3.42436e+01 
 7.24063e+00  3.42400e+01 
 6.99330e+00  3.42364e+01 
 6.74742e+00  3.42328e+01 
 6.50283e+00  3.42292e+01 
 6.25957e+00  3.42256e+01 
 6.01749e+00  3.42220e+01 
 5.77665e+00  3.42184e+01 
 5.53689e+00  3.42149e+01 
 5.29826e+00  3.42114e+01 
 5.06062e+00  3.42079e+01 
 4.82400e+00  3.42046e+01 
 4.58828e+00  3.42013e+01 
 4.35348e+00  3.41981e+01 
 4.11949e+00  3.41950e+01 
 3.88633e+00  3.41921e+01 
 3.65387e+00  3.41892e+01 
 3.42216e+00  3.41865e+01 
 3.19106e+00  3.41839e+01 
 2.96062e+00  3.41815e+01 
 2.73069e+00  3.41792e+01 
 2.50133e+00  3.41770e+01 
 2.27241e+00  3.41751e+01 
 2.04396e+00  3.41733e+01 
 1.81586e+00  3.41716e+01 
 1.58814e+00  3.41702e+01 
 1.36069e+00  3.41689e+01 
 1.13353e+00  3.41679e+01 
 9.06551e-01  3.41670e+01 
 6.79785e-01  3.41663e+01 
 4.53104e-01  3.41658e+01 
 2.26553e-01  3.41655e+01 
 1.24994e-12  3.41654e+01 
-2.26553e-01  3.41655e+01 
-4.53104e-01  3.41658e+01 
-6.79785e-01  3.41663e+01 
-9.06551e-01  3.41670e+01 
-1.13353e+00  3.41679e+01 
-1.36069e+00  3.41689e+01 
-1.58814e+00  3.41702e+01 
-1.81586e+00  3.41716e+01 
-2.04396e+00  3.41733e+01 
-2.27241e+00  3.41751e+01 
-2.50133e+00  3.41770e+01 
-2.73069e+00  3.41792e+01 
-2.96062e+00  3.41815e+01 
-3.19106e+00  3.41839e+01 
-3.42216e+00  3.41865e+01 
-3.65387e+00  3.41892e+01 
-3.88633e+00  3.41921e+01 
-4.11949e+00  3.41950e+01 
-4.35348e+00  3.41981e+01 
-4.58828e+00  3.42013e+01 
-4.82400e+00  3.42046e+01 
-5.06062e+00  3.42079e+01 
-5.29826e+00  3.42114e+01 
-5.53689e+00  3.42149e+01 
-5.77665e+00  3.42184e+01 
-6.01749e+00  3.42220e+01 
-6.25957e+00  3.42256e+01 
-6.50283e+00  3.42292e+01 
-6.74742e+00  3.42328e+01 
-6.99330e+00  3.42364e+01 
-7.24063e+00  3.42400e+01 
-7.48934e+00  3.42436e+01 
-7.73960e+00  3.42472e+01 
-7.99136e+00  3.42507e+01 
-8.24476e+00  3.42542e+01 
-8.49976e+00  3.42577e+01 
-8.75649e+00  3.42612e+01 
-9.01489e+00  3.42647e+01 
-9.27509e+00  3.42683e+01 
-9.53702e+00  3.42719e+01 
-9.80077e+00  3.42756e+01 
-1.00662e+01  3.42794e+01 
-1.03334e+01  3.42835e+01 
-1.06023e+01  3.42879e+01 
-1.08727e+01  3.42926e+01 
-1.11444e+01  3.42977e+01 
-1.14173e+01  3.43034e+01 
-1.16912e+01  3.43096e+01 
-1.19659e+01  3.43163e+01 </DataArray>
         </PointData>
         <CellData/>
      </Piece>
   </UnstructuredGrid>
</VTKFile>