<?xml version="1.0" encoding="utf-8"?>
<VTKFile byte_order="LittleEndian" type="UnstructuredGrid" version="0.1">
   <UnstructuredGrid>
      <Piece NumberOfCells="3000" NumberOfPoints="1566">
         <Points>
            <DataArray Name="Points" NumberOfComponents="3" format="ascii" type="Float32">
0.8890 0.0000 0.0000
0.8890 0.0100 0.0000
0.8890 0.0200 0.0000
0.8890 0.0300 0.0000
0.8890 0.0400 0.0000
0.8890 0.0500 0.0000
0.8890 0.0600 0.0000
0.8890 0.0700 0.0000
0.8890 0.0800 0.0000
0.8890 0.0900 0.0000
0.8890 0.1000 0.0000
0.8890 0.1100 0.0000
0.8890 0.1200 0.0000
0.8890 0.1300 0.0000
0.8890 0.1400 0.0000
0.8890 0.1500 0.0000
0.8890 0.1600 0.0000
0.8890 0.1700 0.0000
0.8890 0.1800 0.0000
0.8890 0.1900 0.0000
0.8890 0.2000 0.0000
0.8890 0.2100 0.0000
0.8890 0.2200 0.0000
0.8890 0.2300 0.0000
0.8890 0.2400 0.0000
0.8890 0.2500 0.0000
0.8890 0.2600 0.0000
0.8890 0.2700 0.0000
0.8890 0.2800 0.0000
0.8890 0.2900 0.0000
0.8890 0.3000 0.0000
0.8890 0.3100 0.0000
0.8890 0.3200 0.0000
0.8890 0.3300 0.0000
0.8890 0.3400 0.0000
0.8890 0.3500 0.0000
0.8890 0.3600 0.0000
0.8890 0.3700 0.0000
0.8890 0.3800 0.0000
0.8890 0.3900 0.0000
0.8890 0.4000 0.0000
0.8890 0.4100 0.0000
0.8890 0.4200 0.0000
0.8890 0.4300 0.0000
0.8890 0.4400 0.0000
0.8890 0.4500 0.0000
0.8890 0.4600 0.0000
0.8890 0.4700 0.0000
0.8890 0.4800 0.0000
0.8890 0.4900 0.0000
0.8890 0.5000 0.0000
0.8973 0.0000 0.0000
0.8973 0.0100 0.0000
0.8973 0.0200 0.0000
0.8973 0.0300 0.0000
0.8973 0.0400 0.0000
0.8973 0.0500 0.0000
0.8973 0.0600 0.0000
0.8973 0.0700 0.0000
0.8973 0.0800 0.0000
0.8973 0.0900 0.0000
0.8973 0.1000 0.0000
0.8973 0.1100 0.0000
0.8973 0.1200 0.0000
0.8973 0.1300 0.0000
0.8973 0.1400 0.0000
0.8973 0.1500 0.0000
0.8973 0.1600 0.0000
0.8973 0.1700 0.0000
0.8973 0.1800 0.0000
0.8973 0.1900 0.0000
0.8973 0.2000 0.0000
0.8973 0.2100 0.0000
0.8973 0.2200 0.0000
0.8973 0.2300 0.0000
0.8973 0.2400 0.0000
0.8973 0.2500 0.0000
0.8973 0.2600 0.0000
0.8973 0.2700 0.0000
0.8973 0.2800 0.0000
0.8973 0.2900 0.0000
0.8973 0.3000 0.0000
0.8973 0.3100 0.0000
0.8973 0.3200 0.0000
0.8973 0.3300 0.0000
0.8973 0.3400 0.0000
0.8973 0.3500 0.0000
0.8973 0.3600 0.0000
0.8973 0.3700 0.0000
0.8973 0.3800 0.0000
0.8973 0.3900 0.0000
0.8973 0.4000 0.0000
0.8973 0.4100 0.0000
0.8973 0.4200 0.0000
0.8973 0.4300 0.0000
0.8973 0.4400 0.0000
0.8973 0.4500 0.0000
0.8973 0.4600 0.0000
0.8973 0.4700 0.0000
0.8973 0.4800 0.0000
0.8973 0.4900 0.0000
0.8973 0.5000 0.0000
0.9057 0.0000 0.0000
0.9057 0.0100 0.0000
0.9057 0.0200 0.0000
0.9057 0.0300 0.0000
0.9057 0.0400 0.0000
0.9057 0.0500 0.0000
0.9057 0.0600 0.0000
0.9057 0.0700 0.0000
0.9057 0.0800 0.0000
0.9057 0.0900 0.0000
0.9057 0.1000 0.0000
0.9057 0.1100 0.0000
0.9057 0.1200 0.0000
0.9057 0.1300 0.0000
0.9057 0.1400 0.0000
0.9057 0.1500 0.0000
0.9057 0.1600 0.0000
0.9057 0.1700 0.0000
0.9057 0.1800 0.0000
0.9057 0.1900 0.0000
0.9057 0.2000 0.0000
0.9057 0.2100 0.0000
0.9057 0.2200 0.0000
0.9057 0.2300 0.0000
0.9057 0.2400 0.0000
0.9057 0.2500 0.0000
0.9057 0.2600 0.0000
0.9057 0.2700 0.0000
0.9057 0.2800 0.0000
0.9057 0.2900 0.0000
0.9057 0.3000 0.0000
0.9057 0.3100 0.0000
0.9057 0.3200 0.0000
0.9057 0.3300 0.0000
0.9057 0.3400 0.0000
0.9057 0.3500 0.0000
0.9057 0.3600 0.0000
0.9057 0.3700 0.0000
0.9057 0.3800 0.0000
0.9057 0.3900 0.0000
0.9057 0.4000 0.0000
0.9057 0.4100 0.0000
0.9057 0.4200 0.0000
0.9057 0.4300 0.0000
0.9057 0.4400 0.0000
0.9057 0.4500 0.0000
0.9057 0.4600 0.0000
0.9057 0.4700 0.0000
0.9057 0.4800 0.0000
0.9057 0.4900 0.0000
0.9057 0.5000 0.0000
0.9140 0.0000 0.0000
0.9140 0.0100 0.0000
0.9140 0.0200 0.0000
0.9140 0.0300 0.0000
0.9140 0.0400 0.0000
0.9140 0.0500 0.0000
0.9140 0.0600 0.0000
0.9140 0.0700 0.0000
0.9140 0.0800 0.0000
0.9140 0.0900 0.0000
0.9140 0.1000 0.0000
0.9140 0.1100 0.0000
0.9140 0.1200 0.0000
0.9140 0.1300 0.0000
0.9140 0.1400 0.0000
0.9140 0.1500 0.0000
0.9140 0.1600 0.0000
0.9140 0.1700 0.0000
0.9140 0.1800 0.0000
0.9140 0.1900 0.0000
0.9140 0.2000 0.0000
0.9140 0.2100 0.0000
0.9140 0.2200 0.0000
0.9140 0.2300 0.0000
0.9140 0.2400 0.0000
0.9140 0.2500 0.0000
0.9140 0.2600 0.0000
0.9140 0.2700 0.0000
0.9140 0.2800 0.0000
0.9140 0.2900 0.0000
0.9140 0.3000 0.0000
0.9140 0.3100 0.0000
0.9140 0.3200 0.0000
0.9140 0.3300 0.0000
0.9140 0.3400 0.0000
0.9140 0.3500 0.0000
0.9140 0.3600 0.0000
0.9140 0.3700 0.0000
0.9140 0.3800 0.0000
0.9140 0.3900 0.0000
0.9140 0.4000 0.0000
0.9140 0.4100 0.0000
0.9140 0.4200 0.0000
0.9140 0.4300 0.0000
0.9140 0.4400 0.0000
0.9140 0.4500 0.0000
0.9140 0.4600 0.0000
0.9140 0.4700 0.0000
0.9140 0.4800 0.0000
0.9140 0.4900 0.0000
0.9140 0.5000 0.0000
0.9223 0.0000 0.0000
0.9223 0.0100 0.0000
0.9223 0.0200 0.0000
0.9223 0.0300 0.0000
0.9223 0.0400 0.0000
0.9223 0.0500 0.0000
0.9223 0.0600 0.0000
0.9223 0.0700 0.0000
0.9223 0.0800 0.0000
0.9223 0.0900 0.0000
0.9223 0.1000 0.0000
0.9223 0.1100 0.0000
0.9223 0.1200 0.0000
0.9223 0.1300 0.0000
0.9223 0.1400 0.0000
0.9223 0.1500 0.0000
0.9223 0.1600 0.0000
0.9223 0.1700 0.0000
0.9223 0.1800 0.0000
0.9223 0.1900 0.0000
0.9223 0.2000 0.0000
0.9223 0.2100 0.0000
0.9223 0.2200 0.0000
0.9223 0.2300 0.0000
0.9223 0.2400 0.0000
0.9223 0.2500 0.0000
0.9223 0.2600 0.0000
0.9223 0.2700 0.0000
0.9223 0.2800 0.0000
0.9223 0.2900 0.0000
0.9223 0.3000 0.0000
0.9223 0.3100 0.0000
0.9223 0.3200 0.0000
0.9223 0.3300 0.0000
0.9223 0.3400 0.0000
0.9223 0.3500 0.0000
0.9223 0.3600 0.0000
0.9223 0.3700 0.0000
0.9223 0.3800 0.0000
0.9223 0.3900 0.0000
0.9223 0.4000 0.0000
0.9223 0.4100 0.0000
0.9223 0.4200 0.0000
0.9223 0.4300 0.0000
0.9223 0.4400 0.0000
0.9223 0.4500 0.0000
0.9223 0.4600 0.0000
0.9223 0.4700 0.0000
0.9223 0.4800 0.0000
0.9223 0.4900 0.0000
0.9223 0.5000 0.0000
0.9307 0.0000 0.0000
0.9307 0.0100 0.0000
0.9307 0.0200 0.0000
0.9307 0.0300 0.0000
0.9307 0.0400 0.0000
0.9307 0.0500 0.0000
0.9307 0.0600 0.0000
0.9307 0.0700 0.0000
0.9307 0.0800 0.0000
0.9307 0.0900 0.0000
0.9307 0.1000 0.0000
0.9307 0.1100 0.0000
0.9307 0.1200 0.0000
0.9307 0.1300 0.0000
0.9307 0.1400 0.0000
0.9307 0.1500 0.0000
0.9307 0.1600 0.0000
0.9307 0.1700 0.0000
0.9307 0.1800 0.0000
0.9307 0.1900 0.0000
0.9307 0.2000 0.0000
0.9307 0.2100 0.0000
0.9307 0.2200 0.0000
0.9307 0.2300 0.0000
0.9307 0.2400 0.0000
0.9307 0.2500 0.0000
0.9307 0.2600 0.0000
0.9307 0.2700 0.0000
0.9307 0.2800 0.0000
0.9307 0.2900 0.0000
0.9307 0.3000 0.0000
0.9307 0.3100 0.0000
0.9307 0.3200 0.0000
0.9307 0.3300 0.0000
0.9307 0.3400 0.0000
0.9307 0.3500 0.0000
0.9307 0.3600 0.0000
0.9307 0.3700 0.0000
0.9307 0.3800 0.0000
0.9307 0.3900 0.0000
0.9307 0.4000 0.0000
0.9307 0.4100 0.0000
0.9307 0.4200 0.0000
0.9307 0.4300 0.0000
0.9307 0.4400 0.0000
0.9307 0.4500 0.0000
0.9307 0.4600 0.0000
0.9307 0.4700 0.0000
0.9307 0.4800 0.0000
0.9307 0.4900 0.0000
0.9307 0.5000 0.0000
0.9390 0.0000 0.0000
0.9390 0.0100 0.0000
0.9390 0.0200 0.0000
0.9390 0.0300 0.0000
0.9390 0.0400 0.0000
0.9390 0.0500 0.0000
0.9390 0.0600 0.0000
0.9390 0.0700 0.0000
0.9390 0.0800 0.0000
0.9390 0.0900 0.0000
0.9390 0.1000 0.0000
0.9390 0.1100 0.0000
0.9390 0.1200 0.0000
0.9390 0.1300 0.0000
0.9390 0.1400 0.0000
0.9390 0.1500 0.0000
0.9390 0.1600 0.0000
0.9390 0.1700 0.0000
0.9390 0.1800 0.0000
0.9390 0.1900 0.0000
0.9390 0.2000 0.0000
0.9390 0.2100 0.0000
0.9390 0.2200 0.0000
0.9390 0.2300 0.0000
0.9390 0.2400 0.0000
0.9390 0.2500 0.0000
0.9390 0.2600 0.0000
0.9390 0.2700 0.0000
0.9390 0.2800 0.0000
0.9390 0.2900 0.0000
0.9390 0.3000 0.0000
0.9390 0.3100 0.0000
0.9390 0.3200 0.0000
0.9390 0.3300 0.0000
0.9390 0.3400 0.0000
0.9390 0.3500 0.0000
0.9390 0.3600 0.0000
0.9390 0.3700 0.0000
0.9390 0.3800 0.0000
0.9390 0.3900 0.0000
0.9390 0.4000 0.0000
0.9390 0.4100 0.0000
0.9390 0.4200 0.0000
0.9390 0.4300 0.0000
0.9390 0.4400 0.0000
0.9390 0.4500 0.0000
0.9390 0.4600 0.0000
0.9390 0.4700 0.0000
0.9390 0.4800 0.0000
0.9390 0.4900 0.0000
0.9390 0.5000 0.0000
0.9473 0.0000 0.0000
0.9473 0.0100 0.0000
0.9473 0.0200 0.0000
0.9473 0.0300 0.0000
0.9473 0.0400 0.0000
0.9473 0.0500 0.0000
0.9473 0.0600 0.0000
0.9473 0.0700 0.0000
0.9473 0.0800 0.0000
0.9473 0.0900 0.0000
0.9473 0.1000 0.0000
0.9473 0.1100 0.0000
0.9473 0.1200 0.0000
0.9473 0.1300 0.0000
0.9473 0.1400 0.0000
0.9473 0.1500 0.0000
0.9473 0.1600 0.0000
0.9473 0.1700 0.0000
0.9473 0.1800 0.0000
0.9473 0.1900 0.0000
0.9473 0.2000 0.0000
0.9473 0.2100 0.0000
0.9473 0.2200 0.0000
0.9473 0.2300 0.0000
0.9473 0.2400 0.0000
0.9473 0.2500 0.0000
0.9473 0.2600 0.0000
0.9473 0.2700 0.0000
0.9473 0.2800 0.0000
0.9473 0.2900 0.0000
0.9473 0.3000 0.0000
0.9473 0.3100 0.0000
0.9473 0.3200 0.0000
0.9473 0.3300 0.0000
0.9473 0.3400 0.0000
0.9473 0.3500 0.0000
0.9473 0.3600 0.0000
0.9473 0.3700 0.0000
0.9473 0.3800 0.0000
0.9473 0.3900 0.0000
0.9473 0.4000 0.0000
0.9473 0.4100 0.0000
0.9473 0.4200 0.0000
0.9473 0.4300 0.0000
0.9473 0.4400 0.0000
0.9473 0.4500 0.0000
0.9473 0.4600 0.0000
0.9473 0.4700 0.0000
0.9473 0.4800 0.0000
0.9473 0.4900 0.0000
0.9473 0.5000 0.0000
0.9557 0.0000 0.0000
0.9557 0.0100 0.0000
0.9557 0.0200 0.0000
0.9557 0.0300 0.0000
0.9557 0.0400 0.0000
0.9557 0.0500 0.0000
0.9557 0.0600 0.0000
0.9557 0.0700 0.0000
0.9557 0.0800 0.0000
0.9557 0.0900 0.0000
0.9557 0.1000 0.0000
0.9557 0.1100 0.0000
0.9557 0.1200 0.0000
0.9557 0.1300 0.0000
0.9557 0.1400 0.0000
0.9557 0.1500 0.0000
0.9557 0.1600 0.0000
0.9557 0.1700 0.0000
0.9557 0.1800 0.0000
0.9557 0.1900 0.0000
0.9557 0.2000 0.0000
0.9557 0.2100 0.0000
0.9557 0.2200 0.0000
0.9557 0.2300 0.0000
0.9557 0.2400 0.0000
0.9557 0.2500 0.0000
0.9557 0.2600 0.0000
0.9557 0.2700 0.0000
0.9557 0.2800 0.0000
0.9557 0.2900 0.0000
0.9557 0.3000 0.0000
0.9557 0.3100 0.0000
0.9557 0.3200 0.0000
0.9557 0.3300 0.0000
0.9557 0.3400 0.0000
0.9557 0.3500 0.0000
0.9557 0.3600 0.0000
0.9557 0.3700 0.0000
0.9557 0.3800 0.0000
0.9557 0.3900 0.0000
0.9557 0.4000 0.0000
0.9557 0.4100 0.0000
0.9557 0.4200 0.0000
0.9557 0.4300 0.0000
0.9557 0.4400 0.0000
0.9557 0.4500 0.0000
0.9557 0.4600 0.0000
0.9557 0.4700 0.0000
0.9557 0.4800 0.0000
0.9557 0.4900 0.0000
0.9557 0.5000 0.0000
0.9640 0.0000 0.0000
0.9640 0.0100 0.0000
[...]
         <PointData>
            <DataArray Name="fValues" NumberOfComponents="3" format="ascii" type="Float64">
-1.19422e+01 -3.15750e+01        00000 
-1.14147e+01 -3.15586e+01        00000 
-1.08909e+01 -3.15435e+01        00000 
-1.03713e+01 -3.15297e+01        00000 
-9.85611e+00 -3.15172e+01        00000 
-9.34577e+00 -3.15060e+01        00000 
-8.84045e+00 -3.14960e+01        00000 
-8.34026e+00 -3.14870e+01        00000 
-7.84522e+00 -3.14789e+01        00000 
-7.35524e+00 -3.14716e+01        00000 
-6.87020e+00 -3.14649e+01        00000 
-6.38991e+00 -3.14587e+01        00000 
-5.91411e+00 -3.14531e+01        00000 
-5.44256e+00 -3.14479e+01        00000 
-4.97496e+00 -3.14432e+01        00000 
-4.51100e+00 -3.14388e+01        00000 
-4.05037e+00 -3.14348e+01        00000 
-3.59274e+00 -3.14312e+01        00000 
-3.13778e+00 -3.14280e+01        00000 
-2.68517e+00 -3.14252e+01        00000 
-2.23457e+00 -3.14228e+01        00000 
-1.78565e+00 -3.14209e+01        00000 
-1.33806e+00 -3.14193e+01        00000 
-8.91482e-01 -3.14182e+01        00000 
-4.45573e-01 -3.14176e+01        00000 
 2.51928e-12 -3.14173e+01        00000 
 4.45573e-01 -3.14176e+01        00000 
 8.91482e-01 -3.14182e+01        00000 
 1.33806e+00 -3.14193e+01        00000 
 1.78565e+00 -3.14209e+01        00000 
 2.23457e+00 -3.14228e+01        00000 
 2.68517e+00 -3.14252e+01        00000 
 3.13778e+00 -3.14280e+01        00000 
 3.59274e+00 -3.14312e+01        00000 
 4.05037e+00 -3.14348e+01        00000 
 4.51100e+00 -3.14388e+01        00000 
 4.97496e+00 -3.14432e+01        00000 
 5.44256e+00 -3.14479e+01        00000 
 5.91411e+00 -3.14531e+01        00000 
 6.38991e+00 -3.14587e+01        00000 
 6.87020e+00 -3.14649e+01        00000 
 7.35524e+00 -3.14716e+01        00000 
 7.84522e+00 -3.14789e+01        00000 
 8.34026e+00 -3.14870e+01        00000 
 8.84045e+00 -3.14960e+01        00000 
 9.34577e+00 -3.15060e+01        00000 
 9.85611e+00 -3.15172e+01        00000 
 1.03713e+01 -3.15297e+01        00000 
 1.08909e+01 -3.15435e+01        00000 
 1.14147e+01 -3.15586e+01        00000 
 1.19422e+01 -3.15750e+01        00000 
-1.19731e+01 -3.20169e+01        00000 
-1.14435e+01 -3.20010e+01        00000 
-1.09174e+01 -3.19864e+01        00000 
-1.03954e+01 -3.19733e+01        00000 
-9.87795e+00 -3.19616e+01        00000 
-9.36547e+00 -3.19511e+01        00000 
-8.85817e+00 -3.19418e+01        00000 
-8.35620e+00 -3.19334e+01        00000 
-7.85955e+00 -3.19258e+01        00000 
-7.36815e+00 -3.19190e+01        00000 
-6.88184e+00 -3.19126e+01        00000 
-6.40041e+00 -3.19068e+01        00000 
-5.92358e+00 -3.19014e+01        00000 
-5.45109e+00 -3.18963e+01        00000 
-4.98261e+00 -3.18916e+01        00000 
-4.51783e+00 -3.18873e+01        00000 
-4.05643e+00 -3.18833e+01        00000 
-3.59806e+00 -3.18797e+01        00000 
-3.14240e+00 -3.18764e+01        00000 
-2.68910e+00 -3.18735e+01        00000 
-2.23782e+00 -3.18711e+01        00000 
-1.78824e+00 -3.18691e+01        00000 
-1.34000e+00 -3.18675e+01        00000 
-8.92770e-01 -3.18663e+01        00000 
-4.46217e-01 -3.18656e+01        00000 
 2.52477e-12 -3.18654e+01        00000 
 4.46217e-01 -3.18656e+01        00000 
 8.92770e-01 -3.18663e+01        00000 
 1.34000e+00 -3.18675e+01        00000 
 1.78824e+00 -3.18691e+01        00000 
 2.23782e+00 -3.18711e+01        00000 
 2.68910e+00 -3.18735e+01        00000 
 3.14240e+00 -3.18764e+01        00000 
 3.59806e+00 -3.18797e+01        00000 
 4.05643e+00 -3.18833e+01        00000 
 4.51783e+00 -3.18873e+01        00000 
 4.98261e+00 -3.18916e+01        00000 
 5.45109e+00 -3.18963e+01        00000 
 5.92358e+00 -3.19014e+01        00000 
 6.40041e+00 -3.19068e+01        00000 
 6.88184e+00 -3.19126e+01        00000 
 7.36815e+00 -3.19190e+01        00000 
 7.85955e+00 -3.19258e+01        00000 
 8.35620e+00 -3.19334e+01        00000 
 8.85817e+00 -3.19418e+01        00000 
 9.36547e+00 -3.19511e+01        00000 
 9.87795e+00 -3.19616e+01        00000 
 1.03954e+01 -3.19733e+01        00000 
 1.09174e+01 -3.19864e+01        00000 
 1.14435e+01 -3.20010e+01        00000 
 1.19731e+01 -3.20169e+01        00000 
-1.20032e+01 -3.24605e+01        00000 
-1.14712e+01 -3.24451e+01        00000 
-1.09427e+01 -3.24311e+01        00000 
-1.04182e+01 -3.24187e+01        00000 
-9.89841e+00 -3.24076e+01        00000 
-9.38374e+00 -3.23979e+01        00000 
-8.87448e+00 -3.23892e+01        00000 
-8.37077e+00 -3.23814e+01        00000 
-7.87260e+00 -3.23744e+01        00000 
-7.37987e+00 -3.23679e+01        00000 
-6.89239e+00 -3.23618e+01        00000 
-6.40991e+00 -3.23562e+01        00000 
-5.93216e+00 -3.23508e+01        00000 
-5.45882e+00 -3.23458e+01        00000 
-4.98956e+00 -3.23410e+01        00000 
-4.52406e+00 -3.23366e+01        00000 
-4.06196e+00 -3.23325e+01        00000 
-3.60294e+00 -3.23287e+01        00000 
-3.14663e+00 -3.23253e+01        00000 
-2.69270e+00 -3.23223e+01        00000 
-2.24082e+00 -3.23197e+01        00000 
-1.79062e+00 -3.23176e+01        00000 
-1.34178e+00 -3.23159e+01        00000 
-8.93958e-01 -3.23147e+01        00000 
-4.46810e-01 -3.23139e+01        00000 
 2.52435e-12 -3.23137e+01        00000 
 4.46810e-01 -3.23139e+01        00000 
 8.93958e-01 -3.23147e+01        00000 
 1.34178e+00 -3.23159e+01        00000 
 1.79062e+00 -3.23176e+01        00000 
 2.24082e+00 -3.23197e+01        00000 
 2.69270e+00 -3.23223e+01        00000 
 3.14663e+00 -3.23253e+01        00000 
 3.60294e+00 -3.23287e+01        00000 
 4.06196e+00 -3.23325e+01        00000 
 4.52406e+00 -3.23366e+01        00000 
 4.98956e+00 -3.23410e+01        00000 
 5.45882e+00 -3.23458e+01        00000 
 5.93216e+00 -3.23508e+01        00000 
 6.40991e+00 -3.23562e+01        00000 
 6.89239e+00 -3.23618e+01        00000 
 7.37987e+00 -3.23679e+01        00000 
 7.87260e+00 -3.23744e+01        00000 
 8.37077e+00 -3.23814e+01        00000 
 8.87448e+00 -3.23892e+01        00000 
 9.38374e+00 -3.23979e+01        00000 
 9.89841e+00 -3.24076e+01        00000 
 1.04182e+01 -3.24187e+01        00000 
 1.09427e+01 -3.24311e+01        00000 
 1.14712e+01 -3.24451e+01        00000 
 1.20032e+01 -3.24605e+01        00000 
-1.20325e+01 -3.29059e+01        00000 
-1.14980e+01 -3.28910e+01        00000 
-1.09668e+01 -3.28776e+01        00000 
-1.04397e+01 -3.28658e+01        00000 
-9.91745e+00 -3.28555e+01        00000 
-9.40056e+00 -3.28464e+01        00000 
-8.88936e+00 -3.28384e+01        00000 
-8.38398e+00 -3.28311e+01        00000 
-7.88438e+00 -3.28245e+01        00000 
-7.39043e+00 -3.28182e+01        00000 
-6.90189e+00 -3.28123e+01        00000 
-6.41849e+00 -3.28067e+01        00000 
-5.93991e+00 -3.28013e+01        00000 
-5.46583e+00 -3.27961e+01        00000 
-4.99589e+00 -3.27912e+01        00000 
-4.52974e+00 -3.27865e+01        00000 
-4.06703e+00 -3.27822e+01        00000 
-3.60741e+00 -3.27781e+01        00000 
-3.15052e+00 -3.27745e+01        00000 
-2.69603e+00 -3.27713e+01        00000 
-2.24358e+00 -3.27685e+01        00000 
-1.79283e+00 -3.27661e+01        00000 
-1.34344e+00 -3.27643e+01        00000 
-8.95059e-01 -3.27630e+01        00000 
-4.47361e-01 -3.27622e+01        00000 
 2.50887e-12 -3.27619e+01        00000 
 4.47361e-01 -3.27622e+01        00000 
 8.95059e-01 -3.27630e+01        00000 
 1.34344e+00 -3.27643e+01        00000 
 1.79283e+00 -3.27661e+01        00000 
 2.24358e+00 -3.27685e+01        00000 
 2.69603e+00 -3.27713e+01        00000 
 3.15052e+00 -3.27745e+01        00000 
 3.60741e+00 -3.27781e+01        00000 
 4.06703e+00 -3.27822e+01        00000 
 4.52974e+00 -3.27865e+01        00000 
 4.99589e+00 -3.27912e+01        00000 
 5.46583e+00 -3.27961e+01        00000 
 5.93991e+00 -3.28013e+01        00000 
 6.41849e+00 -3.28067e+01        00000 
 6.90189e+00 -3.28123e+01        00000 
 7.39043e+00 -3.28182e+01        00000 
 7.88438e+00 -3.28245e+01        00000 
 8.38398e+00 -3.28311e+01        00000 
 8.88936e+00 -3.28384e+01        00000 
 9.40056e+00 -3.28464e+01        00000 
 9.91745e+00 -3.28555e+01        00000 
 1.04397e+01 -3.28658e+01        00000 
 1.09668e+01 -3.28776e+01        00000 
 1.14980e+01 -3.28910e+01        00000 
 1.20325e+01 -3.29059e+01        00000 
-1.20612e+01 -3.33535e+01        00000 
-1.15239e+01 -3.33390e+01        00000 
-1.09898e+01 -3.33262e+01        00000 
-1.04598e+01 -3.33150e+01        00000 
-9.93503e+00 -3.33054e+01        00000 
-9.41591e+00 -3.32970e+01        00000 
-8.90281e+00 -3.32895e+01        00000 
-8.39585e+00 -3.32827e+01        00000 
-7.89493e+00 -3.32762e+01        00000 
-7.39988e+00 -3.32701e+01        00000 
-6.91041e+00 -3.32642e+01        00000 
-6.42621e+00 -3.32584e+01        00000 
-5.94692e+00 -3.32527e+01        00000 
-5.47220e+00 -3.32473e+01        00000 
-5.00166e+00 -3.32420e+01        00000 
-4.53494e+00 -3.32370e+01        00000 
-4.07169e+00 -3.32322e+01        00000 
-3.61154e+00 -3.32278e+01        00000 
-3.15413e+00 -3.32238e+01        00000 
-2.69912e+00 -3.32203e+01        00000 
-2.24616e+00 -3.32172e+01        00000 
-1.79489e+00 -3.32146e+01        00000 
-1.34498e+00 -3.32126e+01        00000 
-8.96092e-01 -3.32111e+01        00000 
-4.47877e-01 -3.32103e+01        00000 
 2.50478e-12 -3.32100e+01        00000 
 4.47877e-01 -3.32103e+01        00000 
 8.96092e-01 -3.32111e+01        00000 
 1.34498e+00 -3.32126e+01        00000 
 1.79489e+00 -3.32146e+01        00000 
 2.24616e+00 -3.32172e+01        00000 
 2.69912e+00 -3.32203e+01        00000 
 3.15413e+00 -3.32238e+01        00000 
 3.61154e+00 -3.32278e+01        00000 
 4.07169e+00 -3.32322e+01        00000 
 4.53494e+00 -3.32370e+01        00000 
 5.00166e+00 -3.32420e+01        00000 
 5.47220e+00 -3.32473e+01        00000 
 5.94692e+00 -3.32527e+01        00000 
 6.42621e+00 -3.32584e+01        00000 
 6.91041e+00 -3.32642e+01        00000 
 7.39988e+00 -3.32701e+01        00000 
 7.89493e+00 -3.32762e+01        00000 
 8.39585e+00 -3.32827e+01        00000 
 8.90281e+00 -3.32895e+01        00000 
 9.41591e+00 -3.32970e+01        00000 
 9.93503e+00 -3.33054e+01        00000 
 1.04598e+01 -3.33150e+01        00000 
 1.09898e+01 -3.33262e+01        00000 
 1.15239e+01 -3.33390e+01        00000 
 1.20612e+01 -3.33535e+01        00000 
-1.20893e+01 -3.38034e+01        00000 
-1.15489e+01 -3.37893e+01        00000 
-1.10115e+01 -3.37771e+01        00000 
-1.04786e+01 -3.37666e+01        00000 
-9.95110e+00 -3.37577e+01        00000 
-9.42975e+00 -3.37499e+01        00000 
-8.91483e+00 -3.37428e+01        00000 
-8.40641e+00 -3.37362e+01        00000 
-7.90432e+00 -3.37299e+01        00000 
-7.40831e+00 -3.37236e+01        00000 
-6.91806e+00 -3.37174e+01        00000 
-6.43318e+00 -3.37113e+01        00000 
-5.95330e+00 -3.37052e+01        00000 
-5.47802e+00 -3.36992e+01        00000 
-5.00697e+00 -3.36934e+01        00000 
-4.53977e+00 -3.36878e+01        00000 
-4.07603e+00 -3.36826e+01        00000 
-3.61541e+00 -3.36777e+01        00000 
-3.15753e+00 -3.36732e+01        00000 
-2.70204e+00 -3.36692e+01        00000 
-2.24859e+00 -3.36658e+01        00000 
-1.79685e+00 -3.36629e+01        00000 
-1.34645e+00 -3.36606e+01        00000 
-8.97073e-01 -3.36590e+01        00000 
-4.48368e-01 -3.36580e+01        00000 
 2.50954e-12 -3.36577e+01        00000 
 4.48368e-01 -3.36580e+01        00000 
 8.97073e-01 -3.36590e+01        00000 
 1.34645e+00 -3.36606e+01        00000 
 1.79685e+00 -3.36629e+01        00000 
 2.24859e+00 -3.36658e+01        00000 
 2.70204e+00 -3.36692e+01        00000 
 3.15753e+00 -3.36732e+01        00000 
 3.61541e+00 -3.36777e+01        00000 
 4.07603e+00 -3.36826e+01        00000 
 4.53977e+00 -3.36878e+01        00000 
 5.00697e+00 -3.36934e+01        00000 
 5.47802e+00 -3.36992e+01        00000 
 5.95330e+00 -3.37052e+01        00000 
 6.43318e+00 -3.37113e+01        00000 
 6.91806e+00 -3.37174e+01        00000 
 7.40831e+00 -3.37236e+01        00000 
 7.90432e+00 -3.37299e+01        00000 
 8.40641e+00 -3.37362e+01        00000 
 8.91483e+00 -3.37428e+01        00000 
 9.42975e+00 -3.37499e+01        00000 
 9.95110e+00 -3.37577e+01        00000 
 1.04786e+01 -3.37666e+01        00000 
 1.10115e+01 -3.37771e+01        00000 
 1.15489e+01 -3.37893e+01        00000 
 1.20893e+01 -3.38034e+01        00000 
-1.21169e+01 -3.42560e+01        00000 
-1.15729e+01 -3.42422e+01        00000 
-1.10320e+01 -3.42305e+01        00000 
-1.04958e+01 -3.42208e+01        00000 
-9.96561e+00 -3.42125e+01        00000 
-9.44207e+00 -3.42052e+01        00000 
-8.92545e+00 -3.41984e+01        00000 
-8.41572e+00 -3.41919e+01        00000 
-7.91264e+00 -3.41853e+01        00000 
-7.41585e+00 -3.41787e+01        00000 
-6.92495e+00 -3.41720e+01        00000 
-6.43952e+00 -3.41652e+01        00000 
-5.95915e+00 -3.41584e+01        00000 
-5.48342e+00 -3.41517e+01        00000 
-5.01194e+00 -3.41452e+01        00000 
-4.54431e+00 -3.41389e+01        00000 
-4.08014e+00 -3.41329e+01        00000 
-3.61909e+00 -3.41274e+01        00000 
-3.16077e+00 -3.41223e+01        00000 
-2.70484e+00 -3.41178e+01        00000 
-2.25094e+00 -3.41139e+01        00000 
-1.79873e+00 -3.41106e+01        00000 
-1.34787e+00 -3.41081e+01        00000 
-8.98022e-01 -3.41062e+01        00000 
-4.48843e-01 -3.41051e+01        00000 
 2.51452e-12 -3.41047e+01        00000 
 4.48843e-01 -3.41051e+01        00000 
 8.98022e-01 -3.41062e+01        00000 
 1.34787e+00 -3.41081e+01        00000 
 1.79873e+00 -3.41106e+01        00000 
 2.25094e+00 -3.41139e+01        00000 
 2.70484e+00 -3.41178e+01        00000 
 3.16077e+00 -3.41223e+01        00000 
 3.61909e+00 -3.41274e+01        00000 
 4.08014e+00 -3.41329e+01        00000 
 4.54431e+00 -3.41389e+01        00000 
 5.01194e+00 -3.41452e+01        00000 
 5.48342e+00 -3.41517e+01        00000 
 5.95915e+00 -3.41584e+01        00000 
 6.43952e+00 -3.41652e+01        00000 
 6.92495e+00 -3.41720e+01        00000 
 7.41585e+00 -3.41787e+01        00000 
 7.91264e+00 -3.41853e+01        00000 
 8.41572e+00 -3.41919e+01        00000 
 8.92545e+00 -3.41984e+01        00000 
 9.44207e+00 -3.42052e+01        00000 
 9.96561e+00 -3.42125e+01        00000 
 1.04958e+01 -3.42208e+01        00000 
 1.10320e+01 -3.42305e+01        00000 
 1.15729e+01 -3.42422e+01        00000 
 1.21169e+01 -3.42560e+01        00000 
-1.21442e+01 -3.47116e+01        00000 
-1.15961e+01 -3.46981e+01        00000 
-1.10512e+01 -3.46870e+01        00000 
-1.05115e+01 -3.46780e+01        00000 
-9.97850e+00 -3.46703e+01        00000 
-9.45287e+00 -3.46633e+01        00000 
-8.93473e+00 -3.46566e+01        00000 
-8.42391e+00 -3.46498e+01        00000 
-7.92003e+00 -3.46428e+01        00000 
-7.42263e+00 -3.46355e+01        00000 
-6.93124e+00 -3.46279e+01        00000 
-6.44539e+00 -3.46202e+01        00000 
-5.96464e+00 -3.46124e+01        00000 
-5.48854e+00 -3.46047e+01        00000 
-5.01668e+00 -3.45972e+01        00000 
-4.54868e+00 -3.45900e+01        00000 
-4.08413e+00 -3.45832e+01        00000 
-3.62267e+00 -3.45768e+01        00000 
-3.16394e+00 -3.45710e+01        00000 
-2.70758e+00 -3.45658e+01        00000 
-2.25325e+00 -3.45614e+01        00000 
-1.80059e+00 -3.45576e+01        00000 
-1.34927e+00 -3.45547e+01        00000 
-8.98961e-01 -3.45526e+01        00000 
-4.49314e-01 -3.45513e+01        00000 
 2.52335e-12 -3.45508e+01        00000 
 4.49314e-01 -3.45513e+01        00000 
 8.98961e-01 -3.45526e+01        00000 
 1.34927e+00 -3.45547e+01        00000 
 1.80059e+00 -3.45576e+01        00000 
 2.25325e+00 -3.45614e+01        00000 
 2.70758e+00 -3.45658e+01        00000 
 3.16394e+00 -3.45710e+01        00000 
 3.62267e+00 -3.45768e+01        00000 
 4.08413e+00 -3.45832e+01        00000 
 4.54868e+00 -3.45900e+01        00000 
 5.01668e+00 -3.45972e+01        00000 
 5.48854e+00 -3.46047e+01        00000 
 5.96464e+00 -3.46124e+01        00000 
 6.44539e+00 -3.46202e+01        00000 
 6.93124e+00 -3.46279e+01        00000 
 7.42263e+00 -3.46355e+01        00000 
 7.92003e+00 -3.46428e+01        00000 
 8.42391e+00 -3.46498e+01        00000 
 8.93473e+00 -3.46566e+01        00000 
 9.45287e+00 -3.46633e+01        00000 
 9.97850e+00 -3.46703e+01        00000 
 1.05115e+01 -3.46780e+01        00000 
 1.10512e+01 -3.46870e+01        00000 
 1.15961e+01 -3.46981e+01        00000 
 1.21442e+01 -3.47116e+01        00000 
-1.21714e+01 -3.51708e+01        00000 
-1.16184e+01 -3.51576e+01        00000 
-1.10689e+01 -3.51472e+01        00000 
-1.05255e+01 -3.51388e+01        00000 
-9.98973e+00 -3.51316e+01        00000 
-9.46219e+00 -3.51248e+01        00000 
-8.94280e+00 -3.51177e+01        00000 
-8.43114e+00 -3.51103e+01        00000 
-7.92668e+00 -3.51023e+01        00000 
-7.42886e+00 -3.50939e+01        00000 
-6.93713e+00 -3.50851e+01        00000 
-6.45098e+00 -3.50761e+01        00000 
-5.96992e+00 -3.50670e+01        00000 
-5.49352e+00 -3.50580e+01        00000 
-5.02135e+00 -3.50493e+01        00000 
-4.55300e+00 -3.50409e+01        00000 
-4.08809e+00 -3.50330e+01        00000 
-3.62625e+00 -3.50257e+01        00000 
-3.16712e+00 -3.50190e+01        00000 
-2.71034e+00 -3.50131e+01        00000 
-2.25557e+00 -3.50079e+01        00000 
-1.80247e+00 -3.50037e+01        00000 
-1.35069e+00 -3.50003e+01        00000 
-8.99910e-01 -3.49979e+01        00000 
-4.49790e-01 -3.49964e+01        00000 
 2.53436e-12 -3.49959e+01        00000 
 4.49790e-01 -3.49964e+01        00000 
 8.99910e-01 -3.49979e+01        00000 
 1.35069e+00 -3.50003e+01        00000 
 1.80247e+00 -3.50037e+01        00000 
 2.25557e+00 -3.50079e+01        00000 
 2.71034e+00 -3.50131e+01        00000 
 3.16712e+00 -3.50190e+01        00000 
 3.62625e+00 -3.50257e+01        00000 
 4.08809e+00 -3.50330e+01        00000 
 4.55300e+00 -3.50409e+01        00000 
 5.02135e+00 -3.50493e+01        00000 
 5.49352e+00 -3.50580e+01        00000 
 5.96992e+00 -3.50670e+01        00000 
 6.45098e+00 -3.50761e+01        00000 
 6.93713e+00 -3.50851e+01        00000 
 7.42886e+00 -3.50939e+01        00000 
 7.92668e+00 -3.51023e+01        00000 
 8.43114e+00 -3.51103e+01        00000 
 8.94280e+00 -3.51177e+01        00000 
 9.46219e+00 -3.51248e+01        00000 
 9.98973e+00 -3.51316e+01        00000 
 1.05255e+01 -3.51388e+01        00000 
 1.10689e+01 -3.51472e+01        00000 
 1.16184e+01 -3.51576e+01        00000 
 1.21714e+01 -3.51708e+01        00000 
-1.21985e+01 -3.56343e+01        00000 
-1.16397e+01 -3.56214e+01        00000 
-1.10849e+01 -3.56116e+01        00000 
-1.05376e+01 -3.56039e+01        00000 
-9.99928e+00 -3.55969e+01        00000 
-9.47017e+00 -3.55898e+01        00000 
-8.94986e+00 -3.55819e+01        00000 
-8.43766e+00 -3.55732e+01        00000 
-7.93286e+00 -3.55638e+01        00000 
-7.43479e+00 -3.55537e+01        00000 
-6.94285e+00 -3.55433e+01        00000 
-6.45648e+00 -3.55326e+01        00000 
-5.97520e+00 -3.55219e+01        00000 
-5.49854e+00 -3.55114e+01        00000 
-5.02607e+00 -3.55011e+01        00000 
-4.55740e+00 -3.54914e+01        00000 
-4.09215e+00 -3.54822e+01        00000 
-3.62993e+00 -3.54737e+01        00000 
-3.17039e+00 -3.54660e+01        00000 
-2.71319e+00 -3.54592e+01        00000 
-2.25797e+00 -3.54533e+01        00000 
-1.80441e+00 -3.54484e+01        00000 
-1.35216e+00 -3.54445e+01        00000 
-9.00892e-01 -3.54417e+01        00000 
-4.50283e-01 -3.54400e+01        00000 
 2.54327e-12 -3.54395e+01        00000 
 4.50283e-01 -3.54400e+01        00000 
 9.00892e-01 -3.54417e+01        00000 
 1.35216e+00 -3.54445e+01        00000 
 1.80441e+00 -3.54484e+01        00000 
 2.25797e+00 -3.54533e+01        00000 
 2.71319e+00 -3.54592e+01        00000 
 3.17039e+00 -3.54660e+01        00000 
 3.62993e+00 -3.54737e+01        00000 
 4.09215e+00 -3.54822e+01        00000 
 4.55740e+00 -3.54914e+01        00000 
 5.02607e+00 -3.55011e+01        00000 
 5.49854e+00 -3.55114e+01        00000 