<?xml version="1.0" encoding="utf-8"?>
<VTKFile byte_order="LittleEndian" type="UnstructuredGrid" version="0.1">
   <UnstructuredGrid>
      <Piece NumberOfCells="1064" NumberOfPoints="1404">
         <Points>
            <DataArray Name="Points" NumberOfComponents="3" format="ascii" type="Float32">
-1.1125 1.0007 0.0000
-1.0821 0.9070 0.0000
-1.0113 1.0007 0.0000
-1.0518 0.8133 0.0000
-0.9759 0.9056 0.0000
-0.9102 1.0007 0.0000
-1.4905 0.1573 0.0000
-1.0215 0.7196 0.0000
-0.9415 0.8092 0.0000
-0.8091 1.0007 0.0000
-0.8702 0.9033 0.0000
-1.4905 0.0524 0.0000
-1.3975 0.1573 0.0000
-0.9911 0.6258 0.0000
-0.9094 0.7109 0.0000
-0.7079 1.0007 0.0000
-0.8314 0.8038 0.0000
-0.7651 0.9010 0.0000
-1.3980 0.0523 0.0000
-1.4905 -0.0524 0.0000
-1.3045 0.1573 0.0000
-0.9608 0.5321 0.0000
-0.8800 0.6125 0.0000
-1.3981 -0.0525 0.0000
-1.3061 0.0521 0.0000
-1.4905 -0.1573 0.0000
-0.6068 1.0007 0.0000
-1.2115 0.1573 0.0000
-0.7946 0.7021 0.0000
-0.6618 0.8997 0.0000
-0.7203 0.7993 0.0000
-0.9305 0.4384 0.0000
-1.3061 -0.0530 0.0000
-1.3975 -0.1573 0.0000
-0.8526 0.5132 0.0000
-1.2128 0.0519 0.0000
-1.1185 0.1573 0.0000
-0.5057 1.0007 0.0000
-0.7676 0.5994 0.0000
-0.5588 0.8996 0.0000
-0.6152 0.7975 0.0000
-0.6715 0.6925 0.0000
-0.9001 0.3447 0.0000
-1.2132 -0.0532 0.0000
-1.3045 -0.1573 0.0000
-1.1203 0.0516 0.0000
-1.0255 0.1573 0.0000
-0.8278 0.4133 0.0000
-0.7437 0.4941 0.0000
-0.4045 1.0007 0.0000
-0.4565 0.8997 0.0000
-0.6525 0.5853 0.0000
-0.5112 0.7974 0.0000
-0.5682 0.6925 0.0000
-1.2115 -0.1573 0.0000
-1.1198 -0.0530 0.0000
-0.8698 0.2510 0.0000
-1.0266 0.0519 0.0000
-0.9325 0.1573 0.0000
-0.8070 0.3156 0.0000
-0.7226 0.3865 0.0000
-0.3034 1.0007 0.0000
-0.6334 0.4781 0.0000
-0.3544 0.8997 0.0000
-1.1185 -0.1573 0.0000
-0.4080 0.7974 0.0000
-1.0271 -0.0531 0.0000
-0.7965 0.2360 0.0000
-0.9336 0.0519 0.0000
-0.4649 0.6925 0.0000
-0.8395 0.1573 0.0000
-0.7011 0.2684 0.0000
-0.7354 0.2204 0.0000
-0.7736 0.1571 0.0000
-0.6143 0.3708 0.0000
-1.0255 -0.1573 0.0000
-0.2023 1.0007 0.0000
-0.9332 -0.0527 0.0000
-0.2524 0.8998 0.0000
-0.8395 0.0524 0.0000
-0.3052 0.7974 0.0000
-0.3616 0.6925 0.0000
-0.7078 0.1568 0.0000
-0.9325 -0.1573 0.0000
-0.8395 -0.0524 0.0000
-0.5952 0.2636 0.0000
-0.7392 0.0538 0.0000
-0.1011 1.0007 0.0000
-0.6941 0.0995 0.0000
-0.1504 0.8998 0.0000
-0.6420 0.1566 0.0000
-0.2025 0.7975 0.0000
-0.2583 0.6925 0.0000
-0.8395 -0.1573 0.0000
-0.6354 0.0879 0.0000
-0.7460 -0.0561 0.0000
-0.5762 0.1564 0.0000
0.0000 1.0007 0.0000
-0.8698 -0.2510 0.0000
-0.0485 0.8999 0.0000
-0.6438 0.0178 0.0000
-0.0998 0.7976 0.0000
-0.1550 0.6925 0.0000
-0.7517 -0.1571 0.0000
-0.5622 0.0782 0.0000
-0.9001 -0.3447 0.0000
-0.6537 -0.0686 0.0000
-0.7787 -0.2543 0.0000
-0.9305 -0.4384 0.0000
0.1011 1.0007 0.0000
-0.5483 -0.0000 0.0000
0.0534 0.9000 0.0000
-0.6640 -0.1569 0.0000
0.0029 0.7976 0.0000
-0.0517 0.6925 0.0000
-0.8053 -0.3522 0.0000
-0.9608 -0.5321 0.0000
-0.5623 -0.0784 0.0000
-0.6873 -0.2582 0.0000
-0.9911 -0.6258 0.0000
-0.8323 -0.4507 0.0000
-0.5762 -0.1568 0.0000
0.2023 1.0007 0.0000
0.1554 0.9002 0.0000
0.1054 0.7976 0.0000
-0.7100 -0.3614 0.0000
0.0517 0.6925 0.0000
-1.0215 -0.7196 0.0000
-0.8599 -0.5498 0.0000
-0.5953 -0.2639 0.0000
-0.7332 -0.4640 0.0000
-1.0518 -0.8133 0.0000
-0.8897 -0.6494 0.0000
0.3034 1.0007 0.0000
0.2577 0.9000 0.0000
-0.6144 -0.3711 0.0000
0.2080 0.7977 0.0000
-1.0821 -0.9070 0.0000
0.1550 0.6925 0.0000
-0.9236 -0.7470 0.0000
-0.7570 -0.5679 0.0000
-0.9642 -0.8289 0.0000
-0.6334 -0.4782 0.0000
-1.1125 -1.0007 0.0000
-0.7844 -0.6750 0.0000
0.4045 1.0007 0.0000
-0.9892 -0.9126 0.0000
0.3615 0.9013 0.0000
0.3114 0.7980 0.0000
0.2583 0.6925 0.0000
-0.8949 -0.8453 0.0000
-0.6525 -0.5854 0.0000
-0.8205 -0.7923 0.0000
-1.0113 -1.0007 0.0000
-0.9001 -0.9147 0.0000
-0.6715 -0.6925 0.0000
0.5057 1.0007 0.0000
0.4668 0.9039 0.0000
0.4166 0.7984 0.0000
0.3616 0.6925 0.0000
-0.9102 -1.0007 0.0000
-0.8071 -0.9011 0.0000
-0.6944 -0.7948 0.0000
-0.5682 -0.6925 0.0000
0.6068 1.0007 0.0000
0.5735 0.9135 0.0000
-0.8091 -1.0007 0.0000
0.4649 0.6925 0.0000
0.5287 0.8020 0.0000
-0.7006 -0.8989 0.0000
-0.5852 -0.7957 0.0000
-0.4649 -0.6925 0.0000
0.6592 0.9384 0.0000
-0.7079 -1.0007 0.0000
0.7079 1.0007 0.0000
-0.5968 -0.8994 0.0000
0.5682 0.6925 0.0000
0.7179 0.9589 0.0000
-0.4794 -0.7962 0.0000
0.6623 0.8108 0.0000
-0.3616 -0.6925 0.0000
-0.6068 -1.0007 0.0000
0.7377 0.8847 0.0000
-0.4926 -0.8992 0.0000
0.8091 1.0007 0.0000
0.7867 0.9406 0.0000
-0.3752 -0.7965 0.0000
0.6715 0.6925 0.0000
-0.2583 -0.6925 0.0000
-0.5057 -1.0007 0.0000
0.6525 0.5854 0.0000
-0.3901 -0.8986 0.0000
0.9102 1.0007 0.0000
0.6334 0.4783 0.0000
-0.2720 -0.7957 0.0000
0.8808 0.9249 0.0000
0.8425 0.8490 0.0000
0.7995 0.7655 0.0000
-0.1550 -0.6925 0.0000
0.7782 0.6672 0.0000
-0.4045 -1.0007 0.0000
0.6144 0.3712 0.0000
-0.2879 -0.8982 0.0000
0.7559 0.5662 0.0000
0.5953 0.2641 0.0000
-0.1698 -0.7960 0.0000
1.0113 1.0007 0.0000
0.7324 0.4634 0.0000
0.9814 0.9141 0.0000
-0.0517 -0.6925 0.0000
0.9481 0.8282 0.0000
-0.3034 -1.0007 0.0000
0.9138 0.7394 0.0000
0.5763 0.1570 0.0000
0.7097 0.3613 0.0000
-0.1859 -0.8984 0.0000
0.8856 0.6453 0.0000
0.5623 0.0785 0.0000
-0.0666 -0.7957 0.0000
0.6869 0.2583 0.0000
0.8591 0.5486 0.0000
1.1125 1.0007 0.0000
0.5483 -0.0000 0.0000
0.0517 -0.6925 0.0000
0.8320 0.4506 0.0000
-0.2023 -1.0007 0.0000
1.0821 0.9070 0.0000
0.6640 0.1571 0.0000
1.0518 0.8133 0.0000
-0.0841 -0.8980 0.0000
0.8051 0.3522 0.0000
1.0215 0.7196 0.0000
0.6579 0.0787 0.0000
0.5622 -0.0779 0.0000
0.0362 -0.7954 0.0000
0.9911 0.6258 0.0000
0.7784 0.2542 0.0000
0.9608 0.5321 0.0000
-0.1011 -1.0007 0.0000
0.1550 -0.6925 0.0000
0.7517 0.1572 0.0000
0.6532 0.0003 0.0000
0.9305 0.4384 0.0000
0.0180 -0.8986 0.0000
0.5761 -0.1558 0.0000
0.9001 0.3447 0.0000
0.7495 0.0787 0.0000
0.6577 -0.0779 0.0000
0.1390 -0.7952 0.0000
0.8698 0.2510 0.0000
0.0000 -1.0007 0.0000
0.8395 0.1573 0.0000
0.2583 -0.6925 0.0000
0.7479 0.0002 0.0000
0.6639 -0.1563 0.0000
0.5952 -0.2631 0.0000
0.1200 -0.8988 0.0000
0.8395 0.0786 0.0000
0.7494 -0.0782 0.0000
0.2411 -0.7958 0.0000
0.9208 0.1573 0.0000
0.1011 -1.0007 0.0000
0.8395 -0.0000 0.0000
0.3616 -0.6925 0.0000
0.7517 -0.1568 0.0000
0.6865 -0.2555 0.0000
0.6143 -0.3705 0.0000
0.9175 0.0894 0.0000
0.2219 -0.8987 0.0000
0.8395 -0.0786 0.0000
0.3444 -0.7970 0.0000
1.0022 0.1573 0.0000
0.9299 0.0193 0.0000
0.9837 0.1007 0.0000
0.2023 -1.0007 0.0000
0.7772 -0.2480 0.0000
0.8395 -0.1573 0.0000
0.4649 -0.6925 0.0000
0.7087 -0.3554 0.0000
0.6334 -0.4778 0.0000
0.3240 -0.8995 0.0000
0.9316 -0.0677 0.0000
1.0836 0.1573 0.0000
1.0312 0.0555 0.0000
0.4492 -0.7978 0.0000
0.3034 -1.0007 0.0000
0.8668 -0.2416 0.0000
0.8022 -0.3403 0.0000
0.7321 -0.4553 0.0000
0.9325 -0.1573 0.0000
0.5682 -0.6925 0.0000
0.6525 -0.5852 0.0000
0.4269 -0.9007 0.0000
1.0280 -0.0555 0.0000
1.1650 0.1573 0.0000
0.8941 -0.3260 0.0000
1.1377 0.0532 0.0000
0.5607 -0.8008 0.0000
0.4045 -1.0007 0.0000
0.8278 -0.4327 0.0000
0.7549 -0.5537 0.0000
1.0255 -0.1573 0.0000
0.6715 -0.6925 0.0000
1.2464 0.1573 0.0000
0.5325 -0.9036 0.0000
1.1252 -0.0528 0.0000
0.9214 -0.4103 0.0000
0.8538 -0.5241 0.0000
1.2295 0.0529 0.0000
0.5057 -1.0007 0.0000
0.7812 -0.6504 0.0000
1.1185 -0.1573 0.0000
1.3277 0.1573 0.0000
0.6955 -0.8080 0.0000
1.2181 -0.0522 0.0000
0.6365 -0.9121 0.0000
0.9487 -0.4946 0.0000
0.8813 -0.6128 0.0000
1.3173 0.0527 0.0000
0.6068 -1.0007 0.0000
0.8152 -0.7435 0.0000
1.2115 -0.1573 0.0000
1.4091 0.1573 0.0000
1.3093 -0.0521 0.0000
0.7145 -0.9362 0.0000
0.9760 -0.5790 0.0000
0.9132 -0.6982 0.0000
1.4039 0.0526 0.0000
0.7079 -1.0007 0.0000
0.7989 -0.8959 0.0000
1.3045 -0.1573 0.0000
1.4905 0.1573 0.0000
0.8709 -0.8174 0.0000
1.0033 -0.6633 0.0000
1.3998 -0.0521 0.0000
0.9494 -0.7763 0.0000
1.4905 0.0524 0.0000
0.8091 -1.0007 0.0000
0.9194 -0.8601 0.0000
1.3975 -0.1573 0.0000
0.9061 -0.9178 0.0000
1.0306 -0.7477 0.0000
1.4905 -0.0524 0.0000
0.9813 -0.8452 0.0000
0.9102 -1.0007 0.0000
1.4905 -0.1573 0.0000
1.0579 -0.8320 0.0000
0.9961 -0.9192 0.0000
1.0113 -1.0007 0.0000
1.0852 -0.9164 0.0000
1.1125 -1.0007 0.0000
1.8685 1.0007 0.0000
1.8989 0.9070 0.0000
1.9697 1.0007 0.0000
1.9292 0.8133 0.0000
2.0051 0.9056 0.0000
2.0708 1.0007 0.0000
1.4905 0.1573 0.0000
1.9595 0.7196 0.0000
2.0395 0.8092 0.0000
2.1719 1.0007 0.0000
2.1108 0.9033 0.0000
1.4905 0.0524 0.0000
1.5835 0.1573 0.0000
1.9899 0.6258 0.0000
2.0716 0.7109 0.0000
2.2731 1.0007 0.0000
2.1496 0.8038 0.0000
2.2159 0.9010 0.0000
1.5830 0.0523 0.0000
1.4905 -0.0524 0.0000
1.6765 0.1573 0.0000
2.0202 0.5321 0.0000
2.1010 0.6125 0.0000
1.5829 -0.0525 0.0000
1.6749 0.0521 0.0000
1.4905 -0.1573 0.0000
2.3742 1.0007 0.0000
1.7695 0.1573 0.0000
2.1865 0.7021 0.0000
2.3192 0.8997 0.0000
2.2607 0.7993 0.0000
2.0505 0.4384 0.0000
1.6749 -0.0530 0.0000
1.5835 -0.1573 0.0000
2.1284 0.5132 0.0000
1.7682 0.0519 0.0000
1.8625 0.1573 0.0000
2.4753 1.0007 0.0000
2.2134 0.5994 0.0000
2.4222 0.8996 0.0000
2.3658 0.7975 0.0000
2.3095 0.6925 0.0000
2.0809 0.3447 0.0000
1.7678 -0.0532 0.0000
1.6765 -0.1573 0.0000
1.8607 0.0516 0.0000
1.9555 0.1573 0.0000
2.1532 0.4133 0.0000
2.2373 0.4941 0.0000
2.5765 1.0007 0.0000
2.5246 0.8997 0.0000
2.3285 0.5853 0.0000
2.4698 0.7974 0.0000
2.4128 0.6925 0.0000
1.7695 -0.1573 0.0000
1.8612 -0.0530 0.0000
2.1112 0.2510 0.0000
1.9544 0.0519 0.0000
2.0485 0.1573 0.0000
2.1740 0.3156 0.0000
2.2584 0.3865 0.0000
2.6776 1.0007 0.0000
2.3476 0.4781 0.0000
2.6266 0.8997 0.0000
1.8625 -0.1573 0.0000
2.5730 0.7974 0.0000
1.9539 -0.0531 0.0000
2.1846 0.2360 0.0000
2.0474 0.0519 0.0000
2.5161 0.6925 0.0000
2.1415 0.1573 0.0000
2.2799 0.2684 0.0000
2.2456 0.2204 0.0000
2.2074 0.1571 0.0000
2.3667 0.3708 0.0000
1.9555 -0.1573 0.0000
2.7787 1.0007 0.0000
2.0478 -0.0527 0.0000
2.7286 0.8998 0.0000
2.1415 0.0524 0.0000
2.6758 0.7974 0.0000
2.6194 0.6925 0.0000
2.2732 0.1568 0.0000
2.0485 -0.1573 0.0000
2.1415 -0.0524 0.0000
2.3858 0.2636 0.0000
2.2418 0.0538 0.0000
2.8799 1.0007 0.0000
2.2869 0.0995 0.0000
2.8306 0.8998 0.0000
2.3390 0.1566 0.0000
2.7785 0.7975 0.0000
2.7227 0.6925 0.0000
[...]
         <PointData>
            <DataArray Name="fValues" NumberOfComponents="3" format="ascii" type="Float64">
 5.55331e-02 -5.60939e-01        00000 
 4.15204e-02 -5.61381e-01        00000 
 7.06824e-02 -6.81464e-01        00000 
 2.64199e-02 -5.98534e-01        00000 
 4.13610e-02 -7.08634e-01        00000 
 8.56003e-02 -8.25291e-01        00000 
-3.36187e-03 -1.89072e-02        00000 
 8.80263e-03 -6.35057e-01        00000 
 6.47520e-03 -7.35582e-01        00000 
 1.00518e-01 -9.69119e-01        00000 
 3.94479e-02 -8.46980e-01        00000 
 1.06991e-17 -1.71630e-17        00000 
-2.01712e-02 -1.13443e-01        00000 
-1.13314e-02 -6.70951e-01        00000 
-2.40935e-02 -7.64762e-01        00000 
 1.15436e-01 -1.11295e+00        00000 
-1.05071e-02 -8.67742e-01        00000 
 4.40270e-02 -9.86464e-01        00000 
-2.31673e-02 -1.12242e-01        00000 
-8.42423e-18  1.87741e-17        00000 
-4.03424e-02 -2.26887e-01        00000 
-3.39823e-02 -7.06217e-01        00000 
-4.69323e-02 -7.91221e-01        00000 
-3.07465e-02 -1.11852e-01        00000 
-4.79514e-02 -2.20863e-01        00000 
-5.39976e-03 -1.83978e-02        00000 
 1.30354e-01 -1.25677e+00        00000 
-6.05136e-02 -3.40330e-01        00000 
-6.04742e-02 -8.87954e-01        00000 
 5.29454e-02 -1.13284e+00        00000 
-2.27258e-02 -1.00119e+00        00000 
-5.91499e-02 -7.40853e-01        00000 
-5.64164e-02 -2.18440e-01        00000 
-3.23986e-02 -1.10387e-01        00000 
-6.12387e-02 -8.11649e-01        00000 
-7.04387e-02 -3.33348e-01        00000 
-8.06848e-02 -4.53774e-01        00000 
 1.45272e-01 -1.40060e+00        00000 
-7.17029e-02 -8.95590e-01        00000 
 6.18560e-02 -1.29145e+00        00000 
-2.39929e-02 -1.16587e+00        00000 
-1.03880e-01 -1.01690e+00        00000 
-8.68343e-02 -7.74860e-01        00000 
-8.32240e-02 -3.29177e-01        00000 
-6.47971e-02 -2.20774e-01        00000 
-9.13719e-02 -4.47131e-01        00000 
-1.00856e-01 -5.67217e-01        00000 
-7.88068e-02 -8.23115e-01        00000 
-6.94160e-02 -8.76083e-01        00000 
 1.60190e-01 -1.54443e+00        00000 
 6.34945e-02 -1.45102e+00        00000 
-5.99768e-02 -9.29221e-01        00000 
-4.10782e-02 -1.35206e+00        00000 
-1.68707e-01 -1.24929e+00        00000 
-9.71957e-02 -3.31161e-01        00000 
-1.08864e-01 -4.43144e-01        00000 
-1.22545e-01 -8.44437e-01        00000 
-1.13964e-01 -5.74467e-01        00000 
-1.28588e-01 -7.50580e-01        00000 
-1.05035e-01 -8.32366e-01        00000 
-8.63222e-02 -8.60694e-01        00000 
 1.75108e-01 -1.68826e+00        00000 
-6.70754e-02 -8.92278e-01        00000 
 6.42688e-02 -1.60363e+00        00000 
-1.29594e-01 -4.41548e-01        00000 
-5.44499e-02 -1.51790e+00        00000 
-1.27266e-01 -5.62935e-01        00000 
-1.14809e-01 -8.16679e-01        00000 
-1.20855e-01 -6.93392e-01        00000 
-1.96638e-01 -1.42849e+00        00000 
-1.07140e-01 -7.87738e-01        00000 
-1.01266e-01 -8.43824e-01        00000 
-1.06611e-01 -8.29410e-01        00000 
-1.05064e-01 -8.10307e-01        00000 
-8.21379e-02 -8.72484e-01        00000 
-1.61993e-01 -5.51935e-01        00000 
 1.90026e-01 -1.83208e+00        00000 
-1.43443e-01 -6.86542e-01        00000 
 6.80310e-02 -1.75220e+00        00000 
-1.24900e-01 -7.68380e-01        00000 
-5.98823e-02 -1.67218e+00        00000 
-2.04667e-01 -1.58913e+00        00000 
-1.08745e-01 -8.28940e-01        00000 
-2.18691e-01 -7.28057e-01        00000 
-1.64822e-01 -7.66816e-01        00000 
-9.57440e-02 -8.60510e-01        00000 
-1.29460e-01 -8.12183e-01        00000 
 2.04944e-01 -1.97591e+00        00000 
-1.19192e-01 -8.28019e-01        00000 
 7.51512e-02 -1.89879e+00        00000 
-1.07988e-01 -8.44071e-01        00000 
-5.91241e-02 -1.82093e+00        00000 
-2.05452e-01 -1.74000e+00        00000 
-2.18337e-01 -7.72643e-01        00000 
-1.21920e-01 -8.42616e-01        00000 
-1.70947e-01 -8.05085e-01        00000 
-1.07811e-01 -8.56270e-01        00000 
 2.19862e-01 -2.11974e+00        00000 
-2.65707e-01 -8.08652e-01        00000 
 8.49367e-02 -2.04454e+00        00000 
-1.43540e-01 -8.38382e-01        00000 
-5.38738e-02 -1.96769e+00        00000 
-2.02098e-01 -1.88721e+00        00000 
-2.17825e-01 -8.00480e-01        00000 
-1.24985e-01 -8.61692e-01        00000 
-2.66586e-01 -7.29928e-01        00000 
-1.76047e-01 -8.31660e-01        00000 
-2.40836e-01 -7.81296e-01        00000 
-2.76112e-01 -6.86620e-01        00000 
 2.34780e-01 -2.26357e+00        00000 
-1.49617e-01 -8.66552e-01        00000 
 9.66361e-02 -2.19000e+00        00000 
-2.09064e-01 -8.21279e-01        00000 
-4.54476e-02 -2.11379e+00        00000 
-1.95696e-01 -2.03341e+00        00000 
-2.50780e-01 -7.69333e-01        00000 
-2.83121e-01 -6.43941e-01        00000 
-1.77276e-01 -8.59816e-01        00000 
-2.35409e-01 -8.05898e-01        00000 
-2.87614e-01 -6.01891e-01        00000 
-2.64023e-01 -7.37310e-01        00000 
-2.04883e-01 -8.48461e-01        00000 
 2.49698e-01 -2.40739e+00        00000 
 1.09872e-01 -2.33565e+00        00000 
-3.46275e-02 -2.25983e+00        00000 
-2.48446e-01 -7.91990e-01        00000 
-1.86678e-01 -2.17965e+00        00000 
-2.89589e-01 -5.60470e-01        00000 
-2.76503e-01 -7.04040e-01        00000 
-2.32339e-01 -8.28802e-01        00000 
-2.59540e-01 -7.81635e-01        00000 
-2.89048e-01 -5.19678e-01        00000 
-2.94734e-01 -6.70102e-01        00000 
 2.64616e-01 -2.55122e+00        00000 
 1.23411e-01 -2.48173e+00        00000 
-2.48304e-01 -8.13977e-01        00000 
-2.17870e-02 -2.40625e+00        00000 
-2.85990e-01 -4.79515e-01        00000 
-1.75263e-01 -2.32624e+00        00000 
-3.15179e-01 -6.36768e-01        00000 
-2.76866e-01 -7.69247e-01        00000 
-3.26768e-01 -6.02773e-01        00000 
-2.62613e-01 -8.09679e-01        00000 
-2.98252e-01 -4.72505e-01        00000 
-3.15320e-01 -7.50934e-01        00000 
 2.79534e-01 -2.69505e+00        00000 
-3.45616e-01 -5.86260e-01        00000 
 1.39096e-01 -2.63006e+00        00000 
-6.86075e-03 -2.55422e+00        00000 
-1.61401e-01 -2.47318e+00        00000 
-3.67338e-01 -6.73559e-01        00000 
-2.86568e-01 -8.22071e-01        00000 
-3.72509e-01 -7.33860e-01        00000 
-3.65196e-01 -5.72510e-01        00000 
-3.99176e-01 -6.81106e-01        00000 
-3.46853e-01 -8.56869e-01        00000 
 2.94452e-01 -2.83888e+00        00000 
 1.56070e-01 -2.77928e+00        00000 
 9.91821e-03 -2.70436e+00        00000 
-1.44532e-01 -2.62008e+00        00000 
-4.42273e-01 -6.93342e-01        00000 
-4.51137e-01 -7.80160e-01        00000 
-4.42010e-01 -8.68779e-01        00000 
-3.94978e-01 -1.01442e+00        00000 
 3.09370e-01 -2.98270e+00        00000 
 1.82064e-01 -2.92752e+00        00000 
-5.19350e-01 -8.14174e-01        00000 
-1.23393e-01 -2.76535e+00        00000 
 3.19493e-02 -2.86060e+00        00000 
-5.22777e-01 -9.01776e-01        00000 
-5.06719e-01 -1.01150e+00        00000 
-4.55386e-01 -1.14588e+00        00000 
 2.27602e-01 -3.04745e+00        00000 
-5.96427e-01 -9.35006e-01        00000 
 3.24288e-01 -3.12653e+00        00000 
-5.95889e-01 -1.02941e+00        00000 
-9.52384e-02 -2.90579e+00        00000 
 2.65117e-01 -3.13141e+00        00000 
-5.69073e-01 -1.15027e+00        00000 
 6.09682e-02 -3.03267e+00        00000 
-5.22096e-01 -1.27246e+00        00000 
-6.73504e-01 -1.05584e+00        00000 
 1.67251e-01 -3.14107e+00        00000 
-6.67110e-01 -1.15966e+00        00000 
 3.39206e-01 -3.27036e+00        00000 
 2.49537e-01 -3.22076e+00        00000 
-6.35287e-01 -1.27902e+00        00000 
-5.79062e-02 -3.01870e+00        00000 
-5.91349e-01 -1.39632e+00        00000 
-7.50581e-01 -1.17667e+00        00000 
-1.38412e-01 -2.96168e+00        00000 
-7.36378e-01 -1.28564e+00        00000 
 3.54124e-01 -3.41419e+00        00000 
-2.38634e-01 -2.89843e+00        00000 
-7.03171e-01 -1.40338e+00        00000 
 2.43046e-01 -3.34150e+00        00000 
 1.43289e-01 -3.26243e+00        00000 
 4.32481e-02 -3.17882e+00        00000 
-6.62190e-01 -1.51946e+00        00000 
-5.53562e-02 -3.11737e+00        00000 
-8.27658e-01 -1.29750e+00        00000 
-3.49314e-01 -2.83444e+00        00000 
-8.07078e-01 -1.40897e+00        00000 
-1.46491e-01 -3.06210e+00        00000 
-4.68539e-01 -2.77393e+00        00000 
-7.73917e-01 -1.52581e+00        00000 
 3.69042e-01 -3.55801e+00        00000 
-2.42185e-01 -3.00843e+00        00000 
 2.45965e-01 -3.46475e+00        00000 
-7.33951e-01 -1.64255e+00        00000 
 1.44981e-01 -3.37889e+00        00000 
-9.04735e-01 -1.41833e+00        00000 
 4.43360e-02 -3.29850e+00        00000 
-5.80806e-01 -2.72309e+00        00000 
-3.46836e-01 -2.94477e+00        00000 
-8.79952e-01 -1.53139e+00        00000 
-5.52796e-02 -3.22873e+00        00000 
-6.54209e-01 -2.68692e+00        00000 
-8.45889e-01 -1.64897e+00        00000 
-4.65949e-01 -2.88126e+00        00000 
-1.52831e-01 -3.16649e+00        00000 
 3.57861e-01 -3.61825e+00        00000 
-7.28047e-01 -2.65262e+00        00000 
-8.06060e-01 -1.76584e+00        00000 
-2.52149e-01 -3.11132e+00        00000 
-9.81812e-01 -1.53917e+00        00000 
 2.63097e-01 -3.53691e+00        00000 
-5.74029e-01 -2.81968e+00        00000 
 1.54528e-01 -3.46885e+00        00000 
-9.53163e-01 -1.65314e+00        00000 
-3.41136e-01 -3.07340e+00        00000 
 4.84759e-02 -3.40141e+00        00000 
-6.43875e-01 -2.78797e+00        00000 
-8.00924e-01 -2.64239e+00        00000 
-9.18295e-01 -1.77162e+00        00000 
-5.50596e-02 -3.33460e+00        00000 
-4.55030e-01 -2.98320e+00        00000 
-1.56078e-01 -3.26843e+00        00000 
-1.05889e+00 -1.66000e+00        00000 
-8.77840e-01 -1.88950e+00        00000 
-5.75905e-01 -2.92138e+00        00000 
-7.12359e-01 -2.75263e+00        00000 
-2.54580e-01 -3.20288e+00        00000 
-1.02844e+00 -1.77535e+00        00000 
-8.79767e-01 -2.62996e+00        00000 
-3.50565e-01 -3.13796e+00        00000 
-6.23540e-01 -2.88076e+00        00000 
-7.87005e-01 -2.72640e+00        00000 
-9.90851e-01 -1.89441e+00        00000 
-4.66899e-01 -3.21999e+00        00000 
-1.13597e+00 -1.78083e+00        00000 
-5.55200e-01 -2.99858e+00        00000 
-9.48541e-01 -2.01395e+00        00000 
-6.86670e-01 -2.83965e+00        00000 
-8.72183e-01 -2.70288e+00        00000 
-9.87732e-01 -2.61925e+00        00000 
-1.10329e+00 -1.89725e+00        00000 
-5.89572e-01 -2.93931e+00        00000 
-7.67976e-01 -2.80583e+00        00000 
-1.06339e+00 -2.01705e+00        00000 
-5.11426e-01 -2.98125e+00        00000 
-1.21304e+00 -1.90166e+00        00000 
-6.56719e-01 -2.90528e+00        00000 
-1.01754e+00 -2.13996e+00        00000 
-8.57095e-01 -2.77954e+00        00000 
-9.76005e-01 -2.69303e+00        00000 
-1.07116e+00 -2.61137e+00        00000 
-5.37712e-01 -2.91912e+00        00000 
-1.17760e+00 -2.01904e+00        00000 
-7.47793e-01 -2.88958e+00        00000 
-1.13653e+00 -2.14233e+00        00000 
-4.73049e-01 -2.66044e+00        00000 
-6.21555e-01 -2.91774e+00        00000 
-5.23556e-01 -2.81518e+00        00000 
-1.29012e+00 -2.02249e+00        00000 
-9.77735e-01 -2.76039e+00        00000 
-8.58930e-01 -2.87395e+00        00000 
-1.08495e+00 -2.26927e+00        00000 
-1.05218e+00 -2.67223e+00        00000 
-1.13710e+00 -2.59274e+00        00000 
-1.25267e+00 -2.14186e+00        00000 
-7.38127e-01 -2.96655e+00        00000 
-4.88493e-01 -2.74730e+00        00000 
-6.04770e-01 -2.84119e+00        00000 
-1.20831e+00 -2.27170e+00        00000 
-1.36720e+00 -2.14333e+00        00000 
-9.54351e-01 -2.94039e+00        00000 
-1.02162e+00 -2.74526e+00        00000 
-1.11058e+00 -2.64746e+00        00000 
-9.24328e-01 -3.09029e+00        00000 
-1.15398e+00 -2.40180e+00        00000 
-1.20342e+00 -2.57432e+00        00000 
-1.32710e+00 -2.26680e+00        00000 
-7.62364e-01 -2.96197e+00        00000 
-5.03936e-01 -2.83415e+00        00000 
-9.52199e-01 -2.65764e+00        00000 
-6.51382e-01 -2.91247e+00        00000 
-1.28394e+00 -2.41511e+00        00000 
-1.44427e+00 -2.26416e+00        00000 
-1.06752e+00 -2.67013e+00        00000 
-1.17354e+00 -2.62133e+00        00000 
-8.76444e-01 -2.98619e+00        00000 
-1.23351e+00 -2.54504e+00        00000 
-5.19380e-01 -2.92101e+00        00000 
-1.40051e+00 -2.39504e+00        00000 
-7.84379e-01 -3.00614e+00        00000 
-1.04415e+00 -2.66781e+00        00000 
-1.15445e+00 -2.65768e+00        00000 
-6.81064e-01 -3.00551e+00        00000 
-1.52135e+00 -2.38499e+00        00000 
-1.24266e+00 -2.62746e+00        00000 
-9.08843e-01 -3.09657e+00        00000 
-5.34823e-01 -3.00786e+00        00000 
-1.35594e+00 -2.57229e+00        00000 
-8.36271e-01 -3.10610e+00        00000 
-1.47654e+00 -2.51919e+00        00000 
-1.13793e+00 -2.67752e+00        00000 
-1.24090e+00 -2.66926e+00        00000 
-7.13118e-01 -3.12372e+00        00000 
-1.59843e+00 -2.50582e+00        00000 
-1.33523e+00 -2.66464e+00        00000 
-9.41242e-01 -3.20696e+00        00000 
-5.50267e-01 -3.09472e+00        00000 
-9.11656e-01 -3.23412e+00        00000 
-1.56186e+00 -2.61350e+00        00000 
-1.23354e+00 -2.68677e+00        00000 
-1.33226e+00 -2.69896e+00        00000 
-7.79851e-01 -3.38037e+00        00000 
-1.67551e+00 -2.62665e+00        00000 
-1.52641e+00 -2.68939e+00        00000 
-9.73640e-01 -3.31735e+00        00000 
-6.69246e-01 -3.61969e+00        00000 
-1.43876e+00 -2.72665e+00        00000 
-1.33099e+00 -2.69556e+00        00000 
-9.97237e-01 -3.47584e+00        00000 
-1.42656e+00 -2.73915e+00        00000 
-8.76109e-01 -4.06221e+00        00000 
-1.75258e+00 -2.74749e+00        00000 
-1.51362e+00 -2.77798e+00        00000 
-1.00604e+00 -3.42773e+00        00000 
-1.61186e+00 -2.80272e+00        00000 
-1.43028e+00 -2.70390e+00        00000 
-1.02338e+00 -4.02540e+00        00000 
-1.51844e+00 -2.78548e+00        00000 
-1.82966e+00 -2.86832e+00        00000 
-1.07460e+00 -3.75109e+00        00000 
-1.53140e+00 -2.71177e+00        00000 
-1.62438e+00 -2.86676e+00        00000 
-1.90674e+00 -2.98915e+00        00000 
-1.63436e+00 -2.71919e+00        00000 
-1.83102e+00 -2.89680e+00        00000 
-5.03825e-01 -5.23591e+00        00000 
-5.61856e-01 -5.16999e+00        00000 
-6.86352e-01 -5.52001e+00        00000 
-6.77515e-01 -5.22796e+00        00000 
-7.99240e-01 -5.55340e+00        00000 
-9.24018e-01 -5.79028e+00        00000 
-7.23981e-01 -3.90230e+00        00000 
-7.83158e-01 -5.28721e+00        00000 
-9.23609e-01 -5.61222e+00        00000 
-1.16168e+00 -6.06054e+00        00000 
-1.05772e+00 -5.85289e+00        00000 
-8.76109e-01 -4.06221e+00        00000 
-7.17041e-01 -3.88138e+00        00000 
-8.78785e-01 -5.34774e+00        00000 
-1.00942e+00 -5.68148e+00        00000 
-1.39935e+00 -6.33081e+00        00000 
-1.19202e+00 -5.92493e+00        00000 
-1.31408e+00 -6.12461e+00        00000 
-9.20730e-01 -3.97216e+00        00000 
-1.02338e+00 -4.02540e+00        00000 
-7.87555e-01 -4.12668e+00        00000 
-9.64396e-01 -5.40956e+00        00000 
-1.04431e+00 -5.73423e+00        00000 
-9.95884e-01 -3.94240e+00        00000 
-9.40541e-01 -4.12285e+00        00000 
-1.08364e+00 -3.81141e+00        00000 
-1.63702e+00 -6.60107e+00        00000 
-8.58070e-01 -4.37198e+00        00000 
-1.26512e+00 -5.99467e+00        00000 
-1.56114e+00 -6.40165e+00        00000 
-1.48391e+00 -6.17615e+00        00000 
-1.03999e+00 -5.47267e+00        00000 
-1.00781e+00 -4.08714e+00        00000 
-1.06029e+00 -3.78966e+00        00000 
-1.04975e+00 -5.75952e+00        00000 
-9.64436e-01 -4.35716e+00        00000 
-9.28584e-01 -4.61728e+00        00000 
-1.87468e+00 -6.87134e+00        00000 
-1.16396e+00 -6.00649e+00        00000 
-1.80802e+00 -6.71285e+00        00000 
-1.73751e+00 -6.50109e+00        00000 
-1.57816e+00 -6.22590e+00        00000 
-1.10557e+00 -5.53706e+00        00000 
-1.04428e+00 -4.32658e+00        00000 
-1.08214e+00 -4.04120e+00        00000 
-1.00421e+00 -4.62007e+00        00000 
-9.99099e-01 -4.86258e+00        00000 
-1.08306e+00 -5.77049e+00        00000 
-1.07291e+00 -5.92101e+00        00000 
-2.11235e+00 -7.14160e+00        00000 
-2.08170e+00 -7.03275e+00        00000 
-1.12120e+00 -5.99058e+00        00000 
-2.06989e+00 -6.90538e+00        00000 
-2.11381e+00 -6.76870e+00        00000 
-1.10400e+00 -4.29274e+00        00000 
-1.08520e+00 -4.59939e+00        00000 
-1.23056e+00 -5.95989e+00        00000 
-1.08774e+00 -4.99520e+00        00000 
-1.17591e+00 -5.64585e+00        00000 
-1.17685e+00 -5.82918e+00        00000 
-1.11598e+00 -5.87371e+00        00000 
-2.35001e+00 -7.41187e+00        00000 
-1.07416e+00 -5.91846e+00        00000 
-2.36049e+00 -7.33164e+00        00000 
-1.12585e+00 -4.54428e+00        00000 
-2.39439e+00 -7.24873e+00        00000 
-1.09361e+00 -4.94811e+00        00000 
-1.19822e+00 -5.76785e+00        00000 
-1.10141e+00 -5.40880e+00        00000 
-2.49541e+00 -7.15978e+00        00000 
-1.10279e+00 -5.70835e+00        00000 
-1.15006e+00 -5.81370e+00        00000 
-1.14736e+00 -5.78364e+00        00000 
-1.09693e+00 -5.74309e+00        00000 
-1.10364e+00 -5.87332e+00        00000 
-1.14770e+00 -4.79581e+00        00000 
-2.58768e+00 -7.68213e+00        00000 
-1.11955e+00 -5.37900e+00        00000 
-2.63016e+00 -7.61694e+00        00000 
-1.10554e+00 -5.64161e+00        00000 
-2.69253e+00 -7.55301e+00        00000 
-2.80423e+00 -7.48603e+00        00000 
-1.11558e+00 -5.76866e+00        00000 
-1.29800e+00 -5.57167e+00        00000 
-1.19010e+00 -5.63915e+00        00000 
-1.12387e+00 -5.82616e+00        00000 
-1.12512e+00 -5.73705e+00        00000 
-2.82534e+00 -7.95240e+00        00000 
-1.11750e+00 -5.76272e+00        00000 
-2.88775e+00 -7.89529e+00        00000 
-1.11461e+00 -5.78811e+00        00000 
-2.96859e+00 -7.83741e+00        00000 
-3.08547e+00 -7.77704e+00        00000 
-1.30115e+00 -5.66837e+00        00000 
-1.12186e+00 -5.78035e+00        00000 
-1.20312e+00 -5.72048e+00        00000 
-1.11414e+00 -5.79469e+00        00000 
-3.06301e+00 -8.22266e+00        00000 
-1.36514e+00 -5.85687e+00        00000 
-3.13399e+00 -8.17070e+00        00000 
-1.15350e+00 -5.77207e+00        00000 
-3.22674e+00 -8.11397e+00        00000 
-3.34989e+00 -8.05372e+00        00000 
-1.29597e+00 -5.70872e+00        00000 
-1.12666e+00 -5.80276e+00        00000 
-1.29996e+00 -5.40136e+00        00000 
-1.21027e+00 -5.75679e+00        00000 
-1.27492e+00 -5.65612e+00        00000 
-1.33363e+00 -5.29413e+00        00000 
-3.30068e+00 -8.49293e+00        00000 
-1.16336e+00 -5.80983e+00        00000 
-3.36965e+00 -8.44518e+00        00000 
-1.25988e+00 -5.72963e+00        00000 
-3.46916e+00 -8.38768e+00        00000 
-3.60004e+00 -8.32529e+00        00000 
-1.26787e+00 -5.65645e+00        00000 
-1.37732e+00 -5.18562e+00        00000 
-1.20716e+00 -5.79490e+00        00000 
-1.27661e+00 -5.70207e+00        00000 
-1.43102e+00 -5.07582e+00        00000 
-1.30526e+00 -5.56096e+00        00000 
-1.24761e+00 -5.76813e+00        00000 
-3.53834e+00 -8.76320e+00        00000 
-3.59427e+00 -8.72056e+00        00000 
-3.69617e+00 -8.66077e+00        00000 
-1.27423e+00 -5.68245e+00        00000 
-3.83583e+00 -8.59543e+00        00000 
-1.49475e+00 -4.96474e+00        00000 
-1.30043e+00 -5.49620e+00        00000 
-1.27075e+00 -5.72765e+00        00000 
-1.28655e+00 -5.68432e+00        00000 
-1.56848e+00 -4.85238e+00        00000 
-1.30533e+00 -5.41232e+00        00000 
-3.77601e+00 -9.03346e+00        00000 
-3.80710e+00 -8.99997e+00        00000 
-1.27843e+00 -5.70585e+00        00000 
-3.90624e+00 -8.93588e+00        00000 
-1.65224e+00 -4.73873e+00        00000 
-4.05658e+00 -8.86593e+00        00000 
-1.35863e+00 -5.29705e+00        00000 
-1.23630e+00 -5.71314e+00        00000 
-1.45125e+00 -5.16332e+00        00000 
-1.28074e+00 -5.69214e+00        00000 
-1.73102e+00 -4.75772e+00        00000 
-1.13673e+00 -5.69040e+00        00000 
-4.01367e+00 -9.30373e+00        00000 