<?xml version="1.0" encoding="utf-8"?>
<VTKFile byte_order="LittleEndian" type="UnstructuredGrid" version="0.1">
   <UnstructuredGrid>
      <Piece NumberOfCells="4000" NumberOfPoints="2071">
         <Points>
            <DataArray Name="Points" NumberOfComponents="3" format="ascii" type="Float32">
0.8383 0.0000 0.0000
0.8383 0.0100 0.0000
0.8383 0.0200 0.0000
0.8383 0.0300 0.0000
0.8383 0.0400 0.0000
0.8383 0.0500 0.0000
0.8383 0.0600 0.0000
0.8383 0.0700 0.0000
0.8383 0.0800 0.0000
0.8383 0.0900 0.0000
0.8383 0.1000 0.0000
0.8383 0.1100 0.0000
0.8383 0.1200 0.0000
0.8383 0.1300 0.0000
0.8383 0.1400 0.0000
0.8383 0.1500 0.0000
0.8383 0.1600 0.0000
0.8383 0.1700 0.0000
0.8383 0.1800 0.0000
0.8383 0.1900 0.0000
0.8383 0.2000 0.0000
0.8383 0.2100 0.0000
0.8383 0.2200 0.0000
0.8383 0.2300 0.0000
0.8383 0.2400 0.0000
0.8383 0.2500 0.0000
0.8383 0.2600 0.0000
0.8383 0.2700 0.0000
0.8383 0.2800 0.0000
0.8383 0.2900 0.0000
0.8383 0.3000 0.0000
0.8383 0.3100 0.0000
0.8383 0.3200 0.0000
0.8383 0.3300 0.0000
0.8383 0.3400 0.0000
0.8383 0.3500 0.0000
0.8383 0.3600 0.0000
0.8383 0.3700 0.0000
0.8383 0.3800 0.0000
0.8383 0.3900 0.0000
0.8383 0.4000 0.0000
0.8383 0.4100 0.0000
0.8383 0.4200 0.0000
0.8383 0.4300 0.0000
0.8383 0.4400 0.0000
0.8383 0.4500 0.0000
0.8383 0.4600 0.0000
0.8383 0.4700 0.0000
0.8383 0.4800 0.0000
0.8383 0.4900 0.0000
0.8383 0.5000 0.0000
0.8467 0.0000 0.0000
0.8467 0.0100 0.0000
0.8467 0.0200 0.0000
0.8467 0.0300 0.0000
0.8467 0.0400 0.0000
0.8467 0.0500 0.0000
0.8467 0.0600 0.0000
0.8467 0.0700 0.0000
0.8467 0.0800 0.0000
0.8467 0.0900 0.0000
0.8467 0.1000 0.0000
0.8467 0.1100 0.0000
0.8467 0.1200 0.0000
0.8467 0.1300 0.0000
0.8467 0.1400 0.0000
0.8467 0.1500 0.0000
0.8467 0.1600 0.0000
0.8467 0.1700 0.0000
0.8467 0.1800 0.0000
0.8467 0.1900 0.0000
0.8467 0.2000 0.0000
0.8467 0.2100 0.0000
0.8467 0.2200 0.0000
0.8467 0.2300 0.0000
0.8467 0.2400 0.0000
0.8467 0.2500 0.0000
0.8467 0.2600 0.0000
0.8467 0.2700 0.0000
0.8467 0.2800 0.0000
0.8467 0.2900 0.0000
0.8467 0.3000 0.0000
0.8467 0.3100 0.0000
0.8467 0.3200 0.0000
0.8467 0.3300 0.0000
0.8467 0.3400 0.0000
0.8467 0.3500 0.0000
0.8467 0.3600 0.0000
0.8467 0.3700 0.0000
0.8467 0.3800 0.0000
0.8467 0.3900 0.0000
0.8467 0.4000 0.0000
0.8467 0.4100 0.0000
0.8467 0.4200 0.0000
0.8467 0.4300 0.0000
0.8467 0.4400 0.0000
0.8467 0.4500 0.0000
0.8467 0.4600 0.0000
0.8467 0.4700 0.0000
0.8467 0.4800 0.0000
0.8467 0.4900 0.0000
0.8467 0.5000 0.0000
0.8550 0.0000 0.0000
0.8550 0.0100 0.0000
0.8550 0.0200 0.0000
0.8550 0.0300 0.0000
0.8550 0.0400 0.0000
0.8550 0.0500 0.0000
0.8550 0.0600 0.0000
0.8550 0.0700 0.0000
0.8550 0.0800 0.0000
0.8550 0.0900 0.0000
0.8550 0.1000 0.0000
0.8550 0.1100 0.0000
0.8550 0.1200 0.0000
0.8550 0.1300 0.0000
0.8550 0.1400 0.0000
0.8550 0.1500 0.0000
0.8550 0.1600 0.0000
0.8550 0.1700 0.0000
0.8550 0.1800 0.0000
0.8550 0.1900 0.0000
0.8550 0.2000 0.0000
0.8550 0.2100 0.0000
0.8550 0.2200 0.0000
0.8550 0.2300 0.0000
0.8550 0.2400 0.0000
0.8550 0.2500 0.0000
0.8550 0.2600 0.0000
0.8550 0.2700 0.0000
0.8550 0.2800 0.0000
0.8550 0.2900 0.0000
0.8550 0.3000 0.0000
0.8550 0.3100 0.0000
0.8550 0.3200 0.0000
0.8550 0.3300 0.0000
0.8550 0.3400 0.0000
0.8550 0.3500 0.0000
0.8550 0.3600 0.0000
0.8550 0.3700 0.0000
0.8550 0.3800 0.0000
0.8550 0.3900 0.0000
0.8550 0.4000 0.0000
0.8550 0.4100 0.0000
0.8550 0.4200 0.0000
0.8550 0.4300 0.0000
0.8550 0.4400 0.0000
0.8550 0.4500 0.0000
0.8550 0.4600 0.0000
0.8550 0.4700 0.0000
0.8550 0.4800 0.0000
0.8550 0.4900 0.0000
0.8550 0.5000 0.0000
0.8633 0.0000 0.0000
0.8633 0.0100 0.0000
0.8633 0.0200 0.0000
0.8633 0.0300 0.0000
0.8633 0.0400 0.0000
0.8633 0.0500 0.0000
0.8633 0.0600 0.0000
0.8633 0.0700 0.0000
0.8633 0.0800 0.0000
0.8633 0.0900 0.0000
0.8633 0.1000 0.0000
0.8633 0.1100 0.0000
0.8633 0.1200 0.0000
0.8633 0.1300 0.0000
0.8633 0.1400 0.0000
0.8633 0.1500 0.0000
0.8633 0.1600 0.0000
0.8633 0.1700 0.0000
0.8633 0.1800 0.0000
0.8633 0.1900 0.0000
0.8633 0.2000 0.0000
0.8633 0.2100 0.0000
0.8633 0.2200 0.0000
0.8633 0.2300 0.0000
0.8633 0.2400 0.0000
0.8633 0.2500 0.0000
0.8633 0.2600 0.0000
0.8633 0.2700 0.0000
0.8633 0.2800 0.0000
0.8633 0.2900 0.0000
0.8633 0.3000 0.0000
0.8633 0.3100 0.0000
0.8633 0.3200 0.0000
0.8633 0.3300 0.0000
0.8633 0.3400 0.0000
0.8633 0.3500 0.0000
0.8633 0.3600 0.0000
0.8633 0.3700 0.0000
0.8633 0.3800 0.0000
0.8633 0.3900 0.0000
0.8633 0.4000 0.0000
0.8633 0.4100 0.0000
0.8633 0.4200 0.0000
0.8633 0.4300 0.0000
0.8633 0.4400 0.0000
0.8633 0.4500 0.0000
0.8633 0.4600 0.0000
0.8633 0.4700 0.0000
0.8633 0.4800 0.0000
0.8633 0.4900 0.0000
0.8633 0.5000 0.0000
0.8717 0.0000 0.0000
0.8717 0.0100 0.0000
0.8717 0.0200 0.0000
0.8717 0.0300 0.0000
0.8717 0.0400 0.0000
0.8717 0.0500 0.0000
0.8717 0.0600 0.0000
0.8717 0.0700 0.0000
0.8717 0.0800 0.0000
0.8717 0.0900 0.0000
0.8717 0.1000 0.0000
0.8717 0.1100 0.0000
0.8717 0.1200 0.0000
0.8717 0.1300 0.0000
0.8717 0.1400 0.0000
0.8717 0.1500 0.0000
0.8717 0.1600 0.0000
0.8717 0.1700 0.0000
0.8717 0.1800 0.0000
0.8717 0.1900 0.0000
0.8717 0.2000 0.0000
0.8717 0.2100 0.0000
0.8717 0.2200 0.0000
0.8717 0.2300 0.0000
0.8717 0.2400 0.0000
0.8717 0.2500 0.0000
0.8717 0.2600 0.0000
0.8717 0.2700 0.0000
0.8717 0.2800 0.0000
0.8717 0.2900 0.0000
0.8717 0.3000 0.0000
0.8717 0.3100 0.0000
0.8717 0.3200 0.0000
0.8717 0.3300 0.0000
0.8717 0.3400 0.0000
0.8717 0.3500 0.0000
0.8717 0.3600 0.0000
0.8717 0.3700 0.0000
0.8717 0.3800 0.0000
0.8717 0.3900 0.0000
0.8717 0.4000 0.0000
0.8717 0.4100 0.0000
0.8717 0.4200 0.0000
0.8717 0.4300 0.0000
0.8717 0.4400 0.0000
0.8717 0.4500 0.0000
0.8717 0.4600 0.0000
0.8717 0.4700 0.0000
0.8717 0.4800 0.0000
0.8717 0.4900 0.0000
0.8717 0.5000 0.0000
0.8800 0.0000 0.0000
0.8800 0.0100 0.0000
0.8800 0.0200 0.0000
0.8800 0.0300 0.0000
0.8800 0.0400 0.0000
0.8800 0.0500 0.0000
0.8800 0.0600 0.0000
0.8800 0.0700 0.0000
0.8800 0.0800 0.0000
0.8800 0.0900 0.0000
0.8800 0.1000 0.0000
0.8800 0.1100 0.0000
0.8800 0.1200 0.0000
0.8800 0.1300 0.0000
0.8800 0.1400 0.0000
0.8800 0.1500 0.0000
0.8800 0.1600 0.0000
0.8800 0.1700 0.0000
0.8800 0.1800 0.0000
0.8800 0.1900 0.0000
0.8800 0.2000 0.0000
0.8800 0.2100 0.0000
0.8800 0.2200 0.0000
0.8800 0.2300 0.0000
0.8800 0.2400 0.0000
0.8800 0.2500 0.0000
0.8800 0.2600 0.0000
0.8800 0.2700 0.0000
0.8800 0.2800 0.0000
0.8800 0.2900 0.0000
0.8800 0.3000 0.0000
0.8800 0.3100 0.0000
0.8800 0.3200 0.0000
0.8800 0.3300 0.0000
0.8800 0.3400 0.0000
0.8800 0.3500 0.0000
0.8800 0.3600 0.0000
0.8800 0.3700 0.0000
0.8800 0.3800 0.0000
0.8800 0.3900 0.0000
0.8800 0.4000 0.0000
0.8800 0.4100 0.0000
0.8800 0.4200 0.0000
0.8800 0.4300 0.0000
0.8800 0.4400 0.0000
0.8800 0.4500 0.0000
0.8800 0.4600 0.0000
0.8800 0.4700 0.0000
0.8800 0.4800 0.0000
0.8800 0.4900 0.0000
0.8800 0.5000 0.0000
0.8883 0.0000 0.0000
0.8883 0.0100 0.0000
0.8883 0.0200 0.0000
0.8883 0.0300 0.0000
0.8883 0.0400 0.0000
0.8883 0.0500 0.0000
0.8883 0.0600 0.0000
0.8883 0.0700 0.0000
0.8883 0.0800 0.0000
0.8883 0.0900 0.0000
0.8883 0.1000 0.0000
0.8883 0.1100 0.0000
0.8883 0.1200 0.0000
0.8883 0.1300 0.0000
0.8883 0.1400 0.0000
0.8883 0.1500 0.0000
0.8883 0.1600 0.0000
0.8883 0.1700 0.0000
0.8883 0.1800 0.0000
0.8883 0.1900 0.0000
0.8883 0.2000 0.0000
0.8883 0.2100 0.0000
0.8883 0.2200 0.0000
0.8883 0.2300 0.0000
0.8883 0.2400 0.0000
0.8883 0.2500 0.0000
0.8883 0.2600 0.0000
0.8883 0.2700 0.0000
0.8883 0.2800 0.0000
0.8883 0.2900 0.0000
0.8883 0.3000 0.0000
0.8883 0.3100 0.0000
0.8883 0.3200 0.0000
0.8883 0.3300 0.0000
0.8883 0.3400 0.0000
0.8883 0.3500 0.0000
0.8883 0.3600 0.0000
0.8883 0.3700 0.0000
0.8883 0.3800 0.0000
0.8883 0.3900 0.0000
0.8883 0.4000 0.0000
0.8883 0.4100 0.0000
0.8883 0.4200 0.0000
0.8883 0.4300 0.0000
0.8883 0.4400 0.0000
0.8883 0.4500 0.0000
0.8883 0.4600 0.0000
0.8883 0.4700 0.0000
0.8883 0.4800 0.0000
0.8883 0.4900 0.0000
0.8883 0.5000 0.0000
0.8967 0.0000 0.0000
0.8967 0.0100 0.0000
0.8967 0.0200 0.0000
0.8967 0.0300 0.0000
0.8967 0.0400 0.0000
0.8967 0.0500 0.0000
0.8967 0.0600 0.0000
0.8967 0.0700 0.0000
0.8967 0.0800 0.0000
0.8967 0.0900 0.0000
0.8967 0.1000 0.0000
0.8967 0.1100 0.0000
0.8967 0.1200 0.0000
0.8967 0.1300 0.0000
0.8967 0.1400 0.0000
0.8967 0.1500 0.0000
0.8967 0.1600 0.0000
0.8967 0.1700 0.0000
0.8967 0.1800 0.0000
0.8967 0.1900 0.0000
0.8967 0.2000 0.0000
0.8967 0.2100 0.0000
0.8967 0.2200 0.0000
0.8967 0.2300 0.0000
0.8967 0.2400 0.0000
0.8967 0.2500 0.0000
0.8967 0.2600 0.0000
0.8967 0.2700 0.0000
0.8967 0.2800 0.0000
0.8967 0.2900 0.0000
0.8967 0.3000 0.0000
0.8967 0.3100 0.0000
0.8967 0.3200 0.0000
0.8967 0.3300 0.0000
0.8967 0.3400 0.0000
0.8967 0.3500 0.0000
0.8967 0.3600 0.0000
0.8967 0.3700 0.0000
0.8967 0.3800 0.0000
0.8967 0.3900 0.0000
0.8967 0.4000 0.0000
0.8967 0.4100 0.0000
0.8967 0.4200 0.0000
0.8967 0.4300 0.0000
0.8967 0.4400 0.0000
0.8967 0.4500 0.0000
0.8967 0.4600 0.0000
0.8967 0.4700 0.0000
0.8967 0.4800 0.0000
0.8967 0.4900 0.0000
0.8967 0.5000 0.0000
0.9050 0.0000 0.0000
0.9050 0.0100 0.0000
0.9050 0.0200 0.0000
0.9050 0.0300 0.0000
0.9050 0.0400 0.0000
0.9050 0.0500 0.0000
0.9050 0.0600 0.0000
0.9050 0.0700 0.0000
0.9050 0.0800 0.0000
0.9050 0.0900 0.0000
0.9050 0.1000 0.0000
0.9050 0.1100 0.0000
0.9050 0.1200 0.0000
0.9050 0.1300 0.0000
0.9050 0.1400 0.0000
0.9050 0.1500 0.0000
0.9050 0.1600 0.0000
0.9050 0.1700 0.0000
0.9050 0.1800 0.0000
0.9050 0.1900 0.0000
0.9050 0.2000 0.0000
0.9050 0.2100 0.0000
0.9050 0.2200 0.0000
0.9050 0.2300 0.0000
0.9050 0.2400 0.0000
0.9050 0.2500 0.0000
0.9050 0.2600 0.0000
0.9050 0.2700 0.0000
0.9050 0.2800 0.0000
0.9050 0.2900 0.0000
0.9050 0.3000 0.0000
0.9050 0.3100 0.0000
0.9050 0.3200 0.0000
0.9050 0.3300 0.0000
0.9050 0.3400 0.0000
0.9050 0.3500 0.0000
0.9050 0.3600 0.0000
0.9050 0.3700 0.0000
0.9050 0.3800 0.0000
0.9050 0.3900 0.0000
0.9050 0.4000 0.0000
0.9050 0.4100 0.0000
0.9050 0.4200 0.0000
0.9050 0.4300 0.0000
0.9050 0.4400 0.0000
0.9050 0.4500 0.0000
0.9050 0.4600 0.0000
0.9050 0.4700 0.0000
0.9050 0.4800 0.0000
0.9050 0.4900 0.0000
0.9050 0.5000 0.0000
0.9133 0.0000 0.0000
0.9133 0.0100 0.0000
[...]
         <PointData>
            <DataArray Name="fValues" NumberOfComponents="3" format="ascii" type="Float64">
-1.17723e+01 -2.93892e+01        00000 
-1.12542e+01 -2.93698e+01        00000 
-1.07406e+01 -2.93514e+01        00000 
-1.02314e+01 -2.93341e+01        00000 
-9.72681e+00 -2.93181e+01        00000 
-9.22674e+00 -2.93032e+01        00000 
-8.73127e+00 -2.92896e+01        00000 
-8.24040e+00 -2.92771e+01        00000 
-7.75407e+00 -2.92656e+01        00000 
-7.27221e+00 -2.92552e+01        00000 
-6.79470e+00 -2.92458e+01        00000 
-6.32139e+00 -2.92372e+01        00000 
-5.85210e+00 -2.92295e+01        00000 
-5.38662e+00 -2.92225e+01        00000 
-4.92472e+00 -2.92162e+01        00000 
-4.46614e+00 -2.92105e+01        00000 
-4.01062e+00 -2.92055e+01        00000 
-3.55788e+00 -2.92011e+01        00000 
-3.10763e+00 -2.91973e+01        00000 
-2.65957e+00 -2.91940e+01        00000 
-2.21340e+00 -2.91912e+01        00000 
-1.76882e+00 -2.91889e+01        00000 
-1.32550e+00 -2.91872e+01        00000 
-8.83135e-01 -2.91859e+01        00000 
-4.41408e-01 -2.91852e+01        00000 
 4.22458e-12 -2.91849e+01        00000 
 4.41408e-01 -2.91852e+01        00000 
 8.83135e-01 -2.91859e+01        00000 
 1.32550e+00 -2.91872e+01        00000 
 1.76882e+00 -2.91889e+01        00000 
 2.21340e+00 -2.91912e+01        00000 
 2.65957e+00 -2.91940e+01        00000 
 3.10763e+00 -2.91973e+01        00000 
 3.55788e+00 -2.92011e+01        00000 
 4.01062e+00 -2.92055e+01        00000 
 4.46614e+00 -2.92105e+01        00000 
 4.92472e+00 -2.92162e+01        00000 
 5.38662e+00 -2.92225e+01        00000 
 5.85210e+00 -2.92295e+01        00000 
 6.32139e+00 -2.92372e+01        00000 
 6.79470e+00 -2.92458e+01        00000 
 7.27221e+00 -2.92552e+01        00000 
 7.75407e+00 -2.92656e+01        00000 
 8.24040e+00 -2.92771e+01        00000 
 8.73127e+00 -2.92896e+01        00000 
 9.22674e+00 -2.93032e+01        00000 
 9.72681e+00 -2.93181e+01        00000 
 1.02314e+01 -2.93341e+01        00000 
 1.07406e+01 -2.93514e+01        00000 
 1.12542e+01 -2.93698e+01        00000 
 1.17723e+01 -2.93892e+01        00000 
-1.18085e+01 -2.98235e+01        00000 
-1.12887e+01 -2.98047e+01        00000 
-1.07731e+01 -2.97870e+01        00000 
-1.02620e+01 -2.97704e+01        00000 
-9.75532e+00 -2.97551e+01        00000 
-9.25324e+00 -2.97410e+01        00000 
-8.75580e+00 -2.97281e+01        00000 
-8.26302e+00 -2.97163e+01        00000 
-7.77488e+00 -2.97056e+01        00000 
-7.29129e+00 -2.96958e+01        00000 
-6.81214e+00 -2.96870e+01        00000 
-6.33729e+00 -2.96790e+01        00000 
-5.86654e+00 -2.96717e+01        00000 
-5.39967e+00 -2.96652e+01        00000 
-4.93646e+00 -2.96593e+01        00000 
-4.47663e+00 -2.96541e+01        00000 
-4.01992e+00 -2.96494e+01        00000 
-3.56604e+00 -2.96452e+01        00000 
-3.11469e+00 -2.96416e+01        00000 
-2.66557e+00 -2.96385e+01        00000 
-2.21836e+00 -2.96359e+01        00000 
-1.77276e+00 -2.96337e+01        00000 
-1.32844e+00 -2.96321e+01        00000 
-8.85089e-01 -2.96309e+01        00000 
-4.42383e-01 -2.96302e+01        00000 
 4.25251e-12 -2.96300e+01        00000 
 4.42383e-01 -2.96302e+01        00000 
 8.85089e-01 -2.96309e+01        00000 
 1.32844e+00 -2.96321e+01        00000 
 1.77276e+00 -2.96337e+01        00000 
 2.21836e+00 -2.96359e+01        00000 
 2.66557e+00 -2.96385e+01        00000 
 3.11469e+00 -2.96416e+01        00000 
 3.56604e+00 -2.96452e+01        00000 
 4.01992e+00 -2.96494e+01        00000 
 4.47663e+00 -2.96541e+01        00000 
 4.93646e+00 -2.96593e+01        00000 
 5.39967e+00 -2.96652e+01        00000 
 5.86654e+00 -2.96717e+01        00000 
 6.33729e+00 -2.96790e+01        00000 
 6.81214e+00 -2.96870e+01        00000 
 7.29129e+00 -2.96958e+01        00000 
 7.77488e+00 -2.97056e+01        00000 
 8.26302e+00 -2.97163e+01        00000 
 8.75580e+00 -2.97281e+01        00000 
 9.25324e+00 -2.97410e+01        00000 
 9.75532e+00 -2.97551e+01        00000 
 1.02620e+01 -2.97704e+01        00000 
 1.07731e+01 -2.97870e+01        00000 
 1.12887e+01 -2.98047e+01        00000 
 1.18085e+01 -2.98235e+01        00000 
-1.18436e+01 -3.02591e+01        00000 
-1.13219e+01 -3.02410e+01        00000 
-1.08044e+01 -3.02239e+01        00000 
-1.02912e+01 -3.02081e+01        00000 
-9.78251e+00 -3.01935e+01        00000 
-9.27840e+00 -3.01801e+01        00000 
-8.77900e+00 -3.01679e+01        00000 
-8.28434e+00 -3.01568e+01        00000 
-7.79440e+00 -3.01468e+01        00000 
-7.30913e+00 -3.01377e+01        00000 
-6.82841e+00 -3.01295e+01        00000 
-6.35208e+00 -3.01220e+01        00000 
-5.87994e+00 -3.01152e+01        00000 
-5.41178e+00 -3.01091e+01        00000 
-4.94733e+00 -3.01036e+01        00000 
-4.48635e+00 -3.00987e+01        00000 
-4.02853e+00 -3.00943e+01        00000 
-3.57359e+00 -3.00903e+01        00000 
-3.12122e+00 -3.00869e+01        00000 
-2.67111e+00 -3.00839e+01        00000 
-2.22294e+00 -3.00814e+01        00000 
-1.77640e+00 -3.00794e+01        00000 
-1.33116e+00 -3.00778e+01        00000 
-8.86893e-01 -3.00767e+01        00000 
-4.43283e-01 -3.00760e+01        00000 
 4.27751e-12 -3.00758e+01        00000 
 4.43283e-01 -3.00760e+01        00000 
 8.86893e-01 -3.00767e+01        00000 
 1.33116e+00 -3.00778e+01        00000 
 1.77640e+00 -3.00794e+01        00000 
 2.22294e+00 -3.00814e+01        00000 
 2.67111e+00 -3.00839e+01        00000 
 3.12122e+00 -3.00869e+01        00000 
 3.57359e+00 -3.00903e+01        00000 
 4.02853e+00 -3.00943e+01        00000 
 4.48635e+00 -3.00987e+01        00000 
 4.94733e+00 -3.01036e+01        00000 
 5.41178e+00 -3.01091e+01        00000 
 5.87994e+00 -3.01152e+01        00000 
 6.35208e+00 -3.01220e+01        00000 
 6.82841e+00 -3.01295e+01        00000 
 7.30913e+00 -3.01377e+01        00000 
 7.79440e+00 -3.01468e+01        00000 
 8.28434e+00 -3.01568e+01        00000 
 8.77900e+00 -3.01679e+01        00000 
 9.27840e+00 -3.01801e+01        00000 
 9.78251e+00 -3.01935e+01        00000 
 1.02912e+01 -3.02081e+01        00000 
 1.08044e+01 -3.02239e+01        00000 
 1.13219e+01 -3.02410e+01        00000 
 1.18436e+01 -3.02591e+01        00000 
-1.18775e+01 -3.06962e+01        00000 
-1.13540e+01 -3.06787e+01        00000 
-1.08345e+01 -3.06623e+01        00000 
-1.03192e+01 -3.06471e+01        00000 
-9.80837e+00 -3.06332e+01        00000 
-9.30222e+00 -3.06206e+01        00000 
-8.80085e+00 -3.06091e+01        00000 
-8.30432e+00 -3.05988e+01        00000 
-7.81264e+00 -3.05894e+01        00000 
-7.32574e+00 -3.05809e+01        00000 
-6.84350e+00 -3.05732e+01        00000 
-6.36577e+00 -3.05663e+01        00000 
-5.89232e+00 -3.05600e+01        00000 
-5.42294e+00 -3.05543e+01        00000 
-4.95736e+00 -3.05491e+01        00000 
-4.49529e+00 -3.05444e+01        00000 
-4.03645e+00 -3.05402e+01        00000 
-3.58053e+00 -3.05364e+01        00000 
-3.12722e+00 -3.05331e+01        00000 
-2.67620e+00 -3.05303e+01        00000 
-2.22715e+00 -3.05279e+01        00000 
-1.77975e+00 -3.05259e+01        00000 
-1.33366e+00 -3.05243e+01        00000 
-8.88554e-01 -3.05232e+01        00000 
-4.44112e-01 -3.05226e+01        00000 
 4.29677e-12 -3.05224e+01        00000 
 4.44112e-01 -3.05226e+01        00000 
 8.88554e-01 -3.05232e+01        00000 
 1.33366e+00 -3.05243e+01        00000 
 1.77975e+00 -3.05259e+01        00000 
 2.22715e+00 -3.05279e+01        00000 
 2.67620e+00 -3.05303e+01        00000 
 3.12722e+00 -3.05331e+01        00000 
 3.58053e+00 -3.05364e+01        00000 
 4.03645e+00 -3.05402e+01        00000 
 4.49529e+00 -3.05444e+01        00000 
 4.95736e+00 -3.05491e+01        00000 
 5.42294e+00 -3.05543e+01        00000 
 5.89232e+00 -3.05600e+01        00000 
 6.36577e+00 -3.05663e+01        00000 
 6.84350e+00 -3.05732e+01        00000 
 7.32574e+00 -3.05809e+01        00000 
 7.81264e+00 -3.05894e+01        00000 
 8.30432e+00 -3.05988e+01        00000 
 8.80085e+00 -3.06091e+01        00000 
 9.30222e+00 -3.06206e+01        00000 
 9.80837e+00 -3.06332e+01        00000 
 1.03192e+01 -3.06471e+01        00000 
 1.08345e+01 -3.06623e+01        00000 
 1.13540e+01 -3.06787e+01        00000 
 1.18775e+01 -3.06962e+01        00000 
-1.19103e+01 -3.11349e+01        00000 
-1.13849e+01 -3.11179e+01        00000 
-1.08633e+01 -3.11022e+01        00000 
-1.03459e+01 -3.10877e+01        00000 
-9.83292e+00 -3.10745e+01        00000 
-9.32469e+00 -3.10626e+01        00000 
-8.82134e+00 -3.10519e+01        00000 
-8.32297e+00 -3.10422e+01        00000 
-7.82958e+00 -3.10335e+01        00000 
-7.34111e+00 -3.10256e+01        00000 
-6.85743e+00 -3.10184e+01        00000 
-6.37837e+00 -3.10119e+01        00000 
-5.90371e+00 -3.10060e+01        00000 
-5.43319e+00 -3.10006e+01        00000 
-4.96656e+00 -3.09956e+01        00000 
-4.50350e+00 -3.09911e+01        00000 
-4.04372e+00 -3.09871e+01        00000 
-3.58691e+00 -3.09835e+01        00000 
-3.13274e+00 -3.09803e+01        00000 
-2.68088e+00 -3.09775e+01        00000 
-2.23102e+00 -3.09751e+01        00000 
-1.78282e+00 -3.09731e+01        00000 
-1.33595e+00 -3.09716e+01        00000 
-8.90081e-01 -3.09705e+01        00000 
-4.44874e-01 -3.09698e+01        00000 
 4.31067e-12 -3.09696e+01        00000 
 4.44874e-01 -3.09698e+01        00000 
 8.90081e-01 -3.09705e+01        00000 
 1.33595e+00 -3.09716e+01        00000 
 1.78282e+00 -3.09731e+01        00000 
 2.23102e+00 -3.09751e+01        00000 
 2.68088e+00 -3.09775e+01        00000 
 3.13274e+00 -3.09803e+01        00000 
 3.58691e+00 -3.09835e+01        00000 
 4.04372e+00 -3.09871e+01        00000 
 4.50350e+00 -3.09911e+01        00000 
 4.96656e+00 -3.09956e+01        00000 
 5.43319e+00 -3.10006e+01        00000 
 5.90371e+00 -3.10060e+01        00000 
 6.37837e+00 -3.10119e+01        00000 
 6.85743e+00 -3.10184e+01        00000 
 7.34111e+00 -3.10256e+01        00000 
 7.82958e+00 -3.10335e+01        00000 
 8.32297e+00 -3.10422e+01        00000 
 8.82134e+00 -3.10519e+01        00000 
 9.32469e+00 -3.10626e+01        00000 
 9.83292e+00 -3.10745e+01        00000 
 1.03459e+01 -3.10877e+01        00000 
 1.08633e+01 -3.11022e+01        00000 
 1.13849e+01 -3.11179e+01        00000 
 1.19103e+01 -3.11349e+01        00000 
-1.19422e+01 -3.15750e+01        00000 
-1.14147e+01 -3.15586e+01        00000 
-1.08909e+01 -3.15435e+01        00000 
-1.03713e+01 -3.15297e+01        00000 
-9.85611e+00 -3.15172e+01        00000 
-9.34577e+00 -3.15060e+01        00000 
-8.84045e+00 -3.14960e+01        00000 
-8.34026e+00 -3.14870e+01        00000 
-7.84522e+00 -3.14789e+01        00000 
-7.35524e+00 -3.14716e+01        00000 
-6.87020e+00 -3.14649e+01        00000 
-6.38991e+00 -3.14587e+01        00000 
-5.91411e+00 -3.14531e+01        00000 
-5.44256e+00 -3.14479e+01        00000 
-4.97496e+00 -3.14432e+01        00000 
-4.51100e+00 -3.14388e+01        00000 
-4.05037e+00 -3.14348e+01        00000 
-3.59274e+00 -3.14312e+01        00000 
-3.13778e+00 -3.14280e+01        00000 
-2.68517e+00 -3.14252e+01        00000 
-2.23457e+00 -3.14228e+01        00000 
-1.78565e+00 -3.14209e+01        00000 
-1.33806e+00 -3.14193e+01        00000 
-8.91482e-01 -3.14182e+01        00000 
-4.45573e-01 -3.14176e+01        00000 
 4.33163e-12 -3.14173e+01        00000 
 4.45573e-01 -3.14176e+01        00000 
 8.91482e-01 -3.14182e+01        00000 
 1.33806e+00 -3.14193e+01        00000 
 1.78565e+00 -3.14209e+01        00000 
 2.23457e+00 -3.14228e+01        00000 
 2.68517e+00 -3.14252e+01        00000 
 3.13778e+00 -3.14280e+01        00000 
 3.59274e+00 -3.14312e+01        00000 
 4.05037e+00 -3.14348e+01        00000 
 4.51100e+00 -3.14388e+01        00000 
 4.97496e+00 -3.14432e+01        00000 
 5.44256e+00 -3.14479e+01        00000 
 5.91411e+00 -3.14531e+01        00000 
 6.38991e+00 -3.14587e+01        00000 
 6.87020e+00 -3.14649e+01        00000 
 7.35524e+00 -3.14716e+01        00000 
 7.84522e+00 -3.14789e+01        00000 
 8.34026e+00 -3.14870e+01        00000 
 8.84045e+00 -3.14960e+01        00000 
 9.34577e+00 -3.15060e+01        00000 
 9.85611e+00 -3.15172e+01        00000 
 1.03713e+01 -3.15297e+01        00000 
 1.08909e+01 -3.15435e+01        00000 
 1.14147e+01 -3.15586e+01        00000 
 1.19422e+01 -3.15750e+01        00000 
-1.19731e+01 -3.20169e+01        00000 
-1.14435e+01 -3.20010e+01        00000 
-1.09174e+01 -3.19864e+01        00000 
-1.03954e+01 -3.19733e+01        00000 
-9.87795e+00 -3.19616e+01        00000 
-9.36547e+00 -3.19511e+01        00000 
-8.85817e+00 -3.19418e+01        00000 
-8.35620e+00 -3.19334e+01        00000 
-7.85955e+00 -3.19258e+01        00000 
-7.36815e+00 -3.19190e+01        00000 
-6.88184e+00 -3.19126e+01        00000 
-6.40041e+00 -3.19068e+01        00000 
-5.92358e+00 -3.19014e+01        00000 
-5.45109e+00 -3.18963e+01        00000 
-4.98261e+00 -3.18916e+01        00000 
-4.51783e+00 -3.18873e+01        00000 
-4.05643e+00 -3.18833e+01        00000 
-3.59806e+00 -3.18797e+01        00000 
-3.14240e+00 -3.18764e+01        00000 
-2.68910e+00 -3.18735e+01        00000 
-2.23782e+00 -3.18711e+01        00000 
-1.78824e+00 -3.18691e+01        00000 
-1.34000e+00 -3.18675e+01        00000 
-8.92770e-01 -3.18663e+01        00000 
-4.46217e-01 -3.18656e+01        00000 
 4.35570e-12 -3.18654e+01        00000 
 4.46217e-01 -3.18656e+01        00000 
 8.92770e-01 -3.18663e+01        00000 
 1.34000e+00 -3.18675e+01        00000 
 1.78824e+00 -3.18691e+01        00000 
 2.23782e+00 -3.18711e+01        00000 
 2.68910e+00 -3.18735e+01        00000 
 3.14240e+00 -3.18764e+01        00000 
 3.59806e+00 -3.18797e+01        00000 
 4.05643e+00 -3.18833e+01        00000 
 4.51783e+00 -3.18873e+01        00000 
 4.98261e+00 -3.18916e+01        00000 
 5.45109e+00 -3.18963e+01        00000 
 5.92358e+00 -3.19014e+01        00000 
 6.40041e+00 -3.19068e+01        00000 
 6.88184e+00 -3.19126e+01        00000 
 7.36815e+00 -3.19190e+01        00000 
 7.85955e+00 -3.19258e+01        00000 
 8.35620e+00 -3.19334e+01        00000 
 8.85817e+00 -3.19418e+01        00000 
 9.36547e+00 -3.19511e+01        00000 
 9.87795e+00 -3.19616e+01        00000 
 1.03954e+01 -3.19733e+01        00000 
 1.09174e+01 -3.19864e+01        00000 
 1.14435e+01 -3.20010e+01        00000 
 1.19731e+01 -3.20169e+01        00000 
-1.20032e+01 -3.24605e+01        00000 
-1.14712e+01 -3.24451e+01        00000 
-1.09427e+01 -3.24311e+01        00000 
-1.04182e+01 -3.24187e+01        00000 
-9.89841e+00 -3.24076e+01        00000 
-9.38374e+00 -3.23979e+01        00000 
-8.87448e+00 -3.23892e+01        00000 
-8.37077e+00 -3.23814e+01        00000 
-7.87260e+00 -3.23744e+01        00000 
-7.37987e+00 -3.23679e+01        00000 
-6.89239e+00 -3.23618e+01        00000 
-6.40991e+00 -3.23562e+01        00000 
-5.93216e+00 -3.23508e+01        00000 
-5.45882e+00 -3.23458e+01        00000 
-4.98956e+00 -3.23410e+01        00000 
-4.52406e+00 -3.23366e+01        00000 
-4.06196e+00 -3.23325e+01        00000 
-3.60294e+00 -3.23287e+01        00000 
-3.14663e+00 -3.23253e+01        00000 
-2.69270e+00 -3.23223e+01        00000 
-2.24082e+00 -3.23197e+01        00000 
-1.79062e+00 -3.23176e+01        00000 
-1.34178e+00 -3.23159e+01        00000 
-8.93958e-01 -3.23147e+01        00000 
-4.46810e-01 -3.23139e+01        00000 
 4.36559e-12 -3.23137e+01        00000 
 4.46810e-01 -3.23139e+01        00000 
 8.93958e-01 -3.23147e+01        00000 
 1.34178e+00 -3.23159e+01        00000 
 1.79062e+00 -3.23176e+01        00000 
 2.24082e+00 -3.23197e+01        00000 
 2.69270e+00 -3.23223e+01        00000 
 3.14663e+00 -3.23253e+01        00000 
 3.60294e+00 -3.23287e+01        00000 
 4.06196e+00 -3.23325e+01        00000 
 4.52406e+00 -3.23366e+01        00000 
 4.98956e+00 -3.23410e+01        00000 
 5.45882e+00 -3.23458e+01        00000 
 5.93216e+00 -3.23508e+01        00000 
 6.40991e+00 -3.23562e+01        00000 
 6.89239e+00 -3.23618e+01        00000 
 7.37987e+00 -3.23679e+01        00000 
 7.87260e+00 -3.23744e+01        00000 
 8.37077e+00 -3.23814e+01        00000 
 8.87448e+00 -3.23892e+01        00000 
 9.38374e+00 -3.23979e+01        00000 
 9.89841e+00 -3.24076e+01        00000 
 1.04182e+01 -3.24187e+01        00000 
 1.09427e+01 -3.24311e+01        00000 
 1.14712e+01 -3.24451e+01        00000 
 1.20032e+01 -3.24605e+01        00000 
-1.20325e+01 -3.29059e+01        00000 
-1.14980e+01 -3.28910e+01        00000 
-1.09668e+01 -3.28776e+01        00000 
-1.04397e+01 -3.28658e+01        00000 
-9.91745e+00 -3.28555e+01        00000 
-9.40056e+00 -3.28464e+01        00000 
-8.88936e+00 -3.28384e+01        00000 
-8.38398e+00 -3.28311e+01        00000 
-7.88438e+00 -3.28245e+01        00000 
-7.39043e+00 -3.28182e+01        00000 
-6.90189e+00 -3.28123e+01        00000 
-6.41849e+00 -3.28067e+01        00000 
-5.93991e+00 -3.28013e+01        00000 
-5.46583e+00 -3.27961e+01        00000 
-4.99589e+00 -3.27912e+01        00000 
-4.52974e+00 -3.27865e+01        00000 
-4.06703e+00 -3.27822e+01        00000 
-3.60741e+00 -3.27781e+01        00000 
-3.15052e+00 -3.27745e+01        00000 
-2.69603e+00 -3.27713e+01        00000 
-2.24358e+00 -3.27685e+01        00000 
-1.79283e+00 -3.27661e+01        00000 
-1.34344e+00 -3.27643e+01        00000 
-8.95059e-01 -3.27630e+01        00000 
-4.47361e-01 -3.27622e+01        00000 
 4.38779e-12 -3.27619e+01        00000 
 4.47361e-01 -3.27622e+01        00000 
 8.95059e-01 -3.27630e+01        00000 
 1.34344e+00 -3.27643e+01        00000 
 1.79283e+00 -3.27661e+01        00000 
 2.24358e+00 -3.27685e+01        00000 
 2.69603e+00 -3.27713e+01        00000 
 3.15052e+00 -3.27745e+01        00000 
 3.60741e+00 -3.27781e+01        00000 
 4.06703e+00 -3.27822e+01        00000 
 4.52974e+00 -3.27865e+01        00000 
 4.99589e+00 -3.27912e+01        00000 
 5.46583e+00 -3.27961e+01        00000 
 5.93991e+00 -3.28013e+01        00000 
 6.41849e+00 -3.28067e+01        00000 
 6.90189e+00 -3.28123e+01        00000 
 7.39043e+00 -3.28182e+01        00000 
 7.88438e+00 -3.28245e+01        00000 
 8.38398e+00 -3.28311e+01        00000 
 8.88936e+00 -3.28384e+01        00000 
 9.40056e+00 -3.28464e+01        00000 
 9.91745e+00 -3.28555e+01        00000 
 1.04397e+01 -3.28658e+01        00000 
 1.09668e+01 -3.28776e+01        00000 
 1.14980e+01 -3.28910e+01        00000 
 1.20325e+01 -3.29059e+01        00000 
-1.20612e+01 -3.33535e+01        00000 
-1.15239e+01 -3.33390e+01        00000 
-1.09898e+01 -3.33262e+01        00000 
-1.04598e+01 -3.33150e+01        00000 
-9.93503e+00 -3.33054e+01        00000 
-9.41591e+00 -3.32970e+01        00000 
-8.90281e+00 -3.32895e+01        00000 
-8.39585e+00 -3.32827e+01        00000 
-7.89493e+00 -3.32762e+01        00000 
-7.39988e+00 -3.32701e+01        00000 
-6.91041e+00 -3.32642e+01        00000 
-6.42621e+00 -3.32584e+01        00000 
-5.94692e+00 -3.32527e+01        00000 
-5.47220e+00 -3.32473e+01        00000 
-5.00166e+00 -3.32420e+01        00000 
-4.53494e+00 -3.32370e+01        00000 
-4.07169e+00 -3.32322e+01        00000 
-3.61154e+00 -3.32278e+01        00000 
-3.15413e+00 -3.32238e+01        00000 
-2.69912e+00 -3.32203e+01        00000 
-2.24616e+00 -3.32172e+01        00000 
-1.79489e+00 -3.32146e+01        00000 
-1.34498e+00 -3.32126e+01        00000 
-8.96092e-01 -3.32111e+01        00000 
-4.47877e-01 -3.32103e+01        00000 
 4.41044e-12 -3.32100e+01        00000 
 4.47877e-01 -3.32103e+01        00000 
 8.96092e-01 -3.32111e+01        00000 
 1.34498e+00 -3.32126e+01        00000 
 1.79489e+00 -3.32146e+01        00000 
 2.24616e+00 -3.32172e+01        00000 
 2.69912e+00 -3.32203e+01        00000 
 3.15413e+00 -3.32238e+01        00000 
 3.61154e+00 -3.32278e+01        00000 
 4.07169e+00 -3.32322e+01        00000 
 4.53494e+00 -3.32370e+01        00000 
 5.00166e+00 -3.32420e+01        00000 
 5.47220e+00 -3.32473e+01        00000 