<?xml version="1.0" encoding="utf-8"?>
<VTKFile byte_order="LittleEndian" type="UnstructuredGrid" version="0.1">
   <UnstructuredGrid>
      <Piece NumberOfCells="13440" NumberOfPoints="8160">
         <Points>
            <DataArray Name="Points" NumberOfComponents="3" format="ascii" type="Float32">
0.0000 0.0909 0.0000
0.0000 0.1818 0.0000
0.0000 0.2727 0.0000
0.0000 0.3636 0.0000
0.0000 0.4545 0.0000
0.0000 0.5455 0.0000
0.0000 0.6364 0.0000
0.0000 0.7273 0.0000
0.0000 0.8182 0.0000
0.0000 0.9091 0.0000
0.0000 1.0000 0.0000
0.0909 0.0909 0.0000
0.0909 0.1818 0.0000
0.0909 0.2727 0.0000
0.0909 0.3636 0.0000
0.0909 0.4545 0.0000
0.0909 0.5455 0.0000
0.0909 0.6364 0.0000
0.0909 0.7273 0.0000
0.0909 0.8182 0.0000
0.0909 0.9091 0.0000
0.0909 1.0000 0.0000
0.1818 0.0909 0.0000
0.1818 0.1818 0.0000
0.1818 0.2727 0.0000
0.1818 0.3636 0.0000
0.1818 0.4545 0.0000
0.1818 0.5455 0.0000
0.1818 0.6364 0.0000
0.1818 0.7273 0.0000
0.1818 0.8182 0.0000
0.1818 0.9091 0.0000
0.1818 1.0000 0.0000
0.2727 0.0909 0.0000
0.2727 0.1818 0.0000
0.2727 0.2727 0.0000
0.2727 0.3636 0.0000
0.2727 0.7273 0.0000
0.2727 0.8182 0.0000
0.2727 0.9091 0.0000
0.2727 1.0000 0.0000
0.3636 0.0909 0.0000
0.3636 0.1818 0.0000
0.3636 0.2727 0.0000
0.3636 0.8182 0.0000
0.3636 0.9091 0.0000
0.3636 1.0000 0.0000
0.4545 0.0909 0.0000
0.4545 0.1818 0.0000
0.4545 0.9091 0.0000
0.4545 1.0000 0.0000
0.5455 0.0909 0.0000
0.5455 0.1818 0.0000
0.5455 0.9091 0.0000
0.5455 1.0000 0.0000
0.6364 0.0909 0.0000
0.6364 0.1818 0.0000
0.6364 0.2727 0.0000
0.6364 0.8182 0.0000
0.6364 0.9091 0.0000
0.6364 1.0000 0.0000
0.7273 0.0909 0.0000
0.7273 0.1818 0.0000
0.7273 0.2727 0.0000
0.7273 0.3636 0.0000
0.7273 0.7273 0.0000
0.7273 0.8182 0.0000
0.7273 0.9091 0.0000
0.7273 1.0000 0.0000
0.8182 0.0909 0.0000
0.8182 0.1818 0.0000
0.8182 0.2727 0.0000
0.8182 0.3636 0.0000
0.8182 0.4545 0.0000
0.8182 0.5455 0.0000
0.8182 0.6364 0.0000
0.8182 0.7273 0.0000
0.8182 0.8182 0.0000
0.8182 0.9091 0.0000
0.8182 1.0000 0.0000
0.9091 0.0909 0.0000
0.9091 0.1818 0.0000
0.9091 0.2727 0.0000
0.9091 0.3636 0.0000
0.9091 0.4545 0.0000
0.9091 0.5455 0.0000
0.9091 0.6364 0.0000
0.9091 0.7273 0.0000
0.9091 0.8182 0.0000
0.9091 0.9091 0.0000
0.9091 1.0000 0.0000
0.2727 0.6364 0.0000
0.3636 0.7273 0.0000
0.4545 0.8182 0.0000
0.5455 0.8182 0.0000
1.0000 0.0909 0.0000
1.0000 0.1818 0.0000
1.0000 0.2727 0.0000
1.0000 0.3636 0.0000
1.0000 0.4545 0.0000
1.0000 0.5455 0.0000
1.0000 0.6364 0.0000
1.0000 0.7273 0.0000
1.0000 0.8182 0.0000
1.0000 0.9091 0.0000
1.0000 1.0000 0.0000
0.0909 0.0000 0.0000
0.1818 0.0000 0.0000
0.2727 0.0000 0.0000
0.3636 0.0000 0.0000
0.4545 0.0000 0.0000
0.5455 0.0000 0.0000
0.6364 0.0000 0.0000
0.6364 0.7273 0.0000
0.7273 0.0000 0.0000
0.7273 0.6364 0.0000
0.8182 0.0000 0.0000
0.9091 0.0000 0.0000
1.0000 0.0000 0.0000
0.0000 0.0000 0.0000
0.0455 0.0455 0.0000
0.0455 0.1364 0.0000
0.0455 0.2273 0.0000
0.0455 0.3182 0.0000
0.0455 0.4091 0.0000
0.0455 0.5000 0.0000
0.0455 0.5909 0.0000
0.0455 0.6818 0.0000
0.0455 0.7727 0.0000
0.0455 0.8636 0.0000
0.0455 0.9545 0.0000
0.1364 0.0455 0.0000
0.1364 0.1364 0.0000
0.1364 0.2273 0.0000
0.1364 0.3182 0.0000
0.1364 0.4091 0.0000
0.1364 0.5000 0.0000
0.1364 0.5909 0.0000
0.1364 0.6818 0.0000
0.1364 0.7727 0.0000
0.1364 0.8636 0.0000
0.1364 0.9545 0.0000
0.2273 0.0455 0.0000
0.2273 0.1364 0.0000
0.2273 0.2273 0.0000
0.2273 0.3182 0.0000
0.2273 0.4091 0.0000
0.2273 0.5000 0.0000
0.2273 0.5909 0.0000
0.2273 0.6818 0.0000
0.2273 0.7727 0.0000
0.2273 0.8636 0.0000
0.2273 0.9545 0.0000
0.3182 0.0455 0.0000
0.3182 0.1364 0.0000
0.3182 0.2273 0.0000
0.3182 0.3182 0.0000
0.3182 0.6818 0.0000
0.3182 0.7727 0.0000
0.3182 0.8636 0.0000
0.3182 0.9545 0.0000
0.4091 0.0455 0.0000
0.4091 0.1364 0.0000
0.4091 0.2273 0.0000
0.4091 0.7727 0.0000
0.4091 0.8636 0.0000
0.4091 0.9545 0.0000
0.5000 0.0455 0.0000
0.5000 0.1364 0.0000
0.5000 0.8636 0.0000
0.5000 0.9545 0.0000
0.5909 0.0455 0.0000
0.5909 0.1364 0.0000
0.5909 0.8636 0.0000
0.5909 0.9545 0.0000
0.6818 0.0455 0.0000
0.6818 0.1364 0.0000
0.6818 0.2273 0.0000
0.6818 0.7727 0.0000
0.6818 0.8636 0.0000
0.6818 0.9545 0.0000
0.7727 0.0455 0.0000
0.7727 0.1364 0.0000
0.7727 0.2273 0.0000
0.7727 0.3182 0.0000
0.7727 0.6818 0.0000
0.7727 0.7727 0.0000
0.7727 0.8636 0.0000
0.7727 0.9545 0.0000
0.8636 0.0455 0.0000
0.8636 0.1364 0.0000
0.8636 0.2273 0.0000
0.8636 0.3182 0.0000
0.8636 0.4091 0.0000
0.8636 0.5000 0.0000
0.8636 0.5909 0.0000
0.8636 0.6818 0.0000
0.8636 0.7727 0.0000
0.8636 0.8636 0.0000
0.8636 0.9545 0.0000
0.9545 0.0455 0.0000
0.9545 0.1364 0.0000
0.9545 0.2273 0.0000
0.9545 0.3182 0.0000
0.9545 0.4091 0.0000
0.9545 0.5000 0.0000
0.9545 0.5909 0.0000
0.9545 0.6818 0.0000
0.9545 0.7727 0.0000
0.9545 0.8636 0.0000
0.9545 0.9545 0.0000
0.5000 0.7727 0.0000
0.5909 0.7727 0.0000
0.6818 0.6818 0.0000
0.7727 0.5909 0.0000
0.5909 0.2273 0.0000
0.6818 0.3182 0.0000
0.7727 0.4091 0.0000
0.7727 0.5000 0.0000
0.5000 0.2273 0.0000
0.2536 0.4545 0.0000
0.2536 0.5455 0.0000
0.2727 0.3972 0.0000
0.2895 0.3636 0.0000
0.2826 0.3735 0.0000
0.2568 0.4386 0.0000
0.2507 0.4766 0.0000
0.2727 0.6028 0.0000
0.2507 0.5234 0.0000
0.2568 0.5614 0.0000
0.2895 0.6364 0.0000
0.2826 0.6265 0.0000
0.3636 0.2895 0.0000
0.3972 0.2727 0.0000
0.3735 0.2826 0.0000
0.3224 0.3224 0.0000
0.3636 0.7105 0.0000
0.3224 0.6776 0.0000
0.3972 0.7273 0.0000
0.3735 0.7174 0.0000
0.4545 0.2536 0.0000
0.4386 0.2568 0.0000
0.4766 0.2507 0.0000
0.4545 0.7464 0.0000
0.4386 0.7432 0.0000
0.4766 0.7493 0.0000
0.5455 0.2536 0.0000
0.6028 0.2727 0.0000
0.5234 0.2507 0.0000
0.5614 0.2568 0.0000
0.5455 0.7464 0.0000
0.6028 0.7273 0.0000
0.5234 0.7493 0.0000
0.5614 0.7432 0.0000
0.6364 0.2895 0.0000
0.6265 0.2826 0.0000
0.7105 0.3636 0.0000
0.6776 0.3224 0.0000
0.6364 0.7105 0.0000
0.7105 0.6364 0.0000
0.6776 0.6776 0.0000
0.6265 0.7174 0.0000
0.7273 0.3972 0.0000
0.7174 0.3735 0.0000
0.7464 0.4545 0.0000
0.7432 0.4386 0.0000
0.7493 0.4766 0.0000
0.7273 0.6028 0.0000
0.7464 0.5455 0.0000
0.7493 0.5234 0.0000
0.7432 0.5614 0.0000
0.7174 0.6265 0.0000
1.0000 0.0909 0.0000
1.0000 0.1818 0.0000
1.0000 0.2727 0.0000
1.0000 0.3636 0.0000
1.0000 0.4545 0.0000
1.0000 0.5455 0.0000
1.0000 0.6364 0.0000
1.0000 0.7273 0.0000
1.0000 0.8182 0.0000
1.0000 0.9091 0.0000
1.0000 1.0000 0.0000
1.0909 0.0909 0.0000
1.0909 0.1818 0.0000
1.0909 0.2727 0.0000
1.0909 0.3636 0.0000
1.0909 0.4545 0.0000
1.0909 0.5455 0.0000
1.0909 0.6364 0.0000
1.0909 0.7273 0.0000
1.0909 0.8182 0.0000
1.0909 0.9091 0.0000
1.0909 1.0000 0.0000
1.1818 0.0909 0.0000
1.1818 0.1818 0.0000
1.1818 0.2727 0.0000
1.1818 0.3636 0.0000
1.1818 0.4545 0.0000
1.1818 0.5455 0.0000
1.1818 0.6364 0.0000
1.1818 0.7273 0.0000
1.1818 0.8182 0.0000
1.1818 0.9091 0.0000
1.1818 1.0000 0.0000
1.2727 0.0909 0.0000
1.2727 0.1818 0.0000
1.2727 0.2727 0.0000
1.2727 0.3636 0.0000
1.2727 0.7273 0.0000
1.2727 0.8182 0.0000
1.2727 0.9091 0.0000
1.2727 1.0000 0.0000
1.3636 0.0909 0.0000
1.3636 0.1818 0.0000
1.3636 0.2727 0.0000
1.3636 0.8182 0.0000
1.3636 0.9091 0.0000
1.3636 1.0000 0.0000
1.4545 0.0909 0.0000
1.4545 0.1818 0.0000
1.4545 0.9091 0.0000
1.4545 1.0000 0.0000
1.5455 0.0909 0.0000
1.5455 0.1818 0.0000
1.5455 0.9091 0.0000
1.5455 1.0000 0.0000
1.6364 0.0909 0.0000
1.6364 0.1818 0.0000
1.6364 0.2727 0.0000
1.6364 0.8182 0.0000
1.6364 0.9091 0.0000
1.6364 1.0000 0.0000
1.7273 0.0909 0.0000
1.7273 0.1818 0.0000
1.7273 0.2727 0.0000
1.7273 0.3636 0.0000
1.7273 0.7273 0.0000
1.7273 0.8182 0.0000
1.7273 0.9091 0.0000
1.7273 1.0000 0.0000
1.8182 0.0909 0.0000
1.8182 0.1818 0.0000
1.8182 0.2727 0.0000
1.8182 0.3636 0.0000
1.8182 0.4545 0.0000
1.8182 0.5455 0.0000
1.8182 0.6364 0.0000
1.8182 0.7273 0.0000
1.8182 0.8182 0.0000
1.8182 0.9091 0.0000
1.8182 1.0000 0.0000
1.9091 0.0909 0.0000
1.9091 0.1818 0.0000
1.9091 0.2727 0.0000
1.9091 0.3636 0.0000
1.9091 0.4545 0.0000
1.9091 0.5455 0.0000
1.9091 0.6364 0.0000
1.9091 0.7273 0.0000
1.9091 0.8182 0.0000
1.9091 0.9091 0.0000
1.9091 1.0000 0.0000
1.2727 0.6364 0.0000
1.3636 0.7273 0.0000
1.4545 0.8182 0.0000
1.5455 0.8182 0.0000
2.0000 0.0909 0.0000
2.0000 0.1818 0.0000
2.0000 0.2727 0.0000
2.0000 0.3636 0.0000
2.0000 0.4545 0.0000
2.0000 0.5455 0.0000
2.0000 0.6364 0.0000
2.0000 0.7273 0.0000
2.0000 0.8182 0.0000
2.0000 0.9091 0.0000
2.0000 1.0000 0.0000
1.0909 0.0000 0.0000
1.1818 0.0000 0.0000
1.2727 0.0000 0.0000
1.3636 0.0000 0.0000
1.4545 0.0000 0.0000
1.5455 0.0000 0.0000
1.6364 0.0000 0.0000
1.6364 0.7273 0.0000
1.7273 0.0000 0.0000
1.7273 0.6364 0.0000
1.8182 0.0000 0.0000
1.9091 0.0000 0.0000
2.0000 0.0000 0.0000
1.0000 0.0000 0.0000
1.0455 0.0455 0.0000
1.0455 0.1364 0.0000
1.0455 0.2273 0.0000
1.0455 0.3182 0.0000
1.0455 0.4091 0.0000
1.0455 0.5000 0.0000
1.0455 0.5909 0.0000
1.0455 0.6818 0.0000
1.0455 0.7727 0.0000
1.0455 0.8636 0.0000
1.0455 0.9545 0.0000
1.1364 0.0455 0.0000
1.1364 0.1364 0.0000
1.1364 0.2273 0.0000
1.1364 0.3182 0.0000
1.1364 0.4091 0.0000
1.1364 0.5000 0.0000
1.1364 0.5909 0.0000
1.1364 0.6818 0.0000
1.1364 0.7727 0.0000
1.1364 0.8636 0.0000
1.1364 0.9545 0.0000
1.2273 0.0455 0.0000
1.2273 0.1364 0.0000
1.2273 0.2273 0.0000
1.2273 0.3182 0.0000
1.2273 0.4091 0.0000
1.2273 0.5000 0.0000
1.2273 0.5909 0.0000
1.2273 0.6818 0.0000
1.2273 0.7727 0.0000
1.2273 0.8636 0.0000
1.2273 0.9545 0.0000
1.3182 0.0455 0.0000
1.3182 0.1364 0.0000
1.3182 0.2273 0.0000
1.3182 0.3182 0.0000
1.3182 0.6818 0.0000
1.3182 0.7727 0.0000
1.3182 0.8636 0.0000
1.3182 0.9545 0.0000
1.4091 0.0455 0.0000
1.4091 0.1364 0.0000
1.4091 0.2273 0.0000
1.4091 0.7727 0.0000
1.4091 0.8636 0.0000
1.4091 0.9545 0.0000
1.5000 0.0455 0.0000
1.5000 0.1364 0.0000
1.5000 0.8636 0.0000
1.5000 0.9545 0.0000
1.5909 0.0455 0.0000
1.5909 0.1364 0.0000
1.5909 0.8636 0.0000
1.5909 0.9545 0.0000
1.6818 0.0455 0.0000
1.6818 0.1364 0.0000
1.6818 0.2273 0.0000
1.6818 0.7727 0.0000
1.6818 0.8636 0.0000
1.6818 0.9545 0.0000
1.7727 0.0455 0.0000
1.7727 0.1364 0.0000
1.7727 0.2273 0.0000
1.7727 0.3182 0.0000
1.7727 0.6818 0.0000
1.7727 0.7727 0.0000
1.7727 0.8636 0.0000
1.7727 0.9545 0.0000
[...]
         <PointData>
            <DataArray Name="fValues" NumberOfComponents="3" format="ascii" type="Float64">
-9.37196e-04  2.05919e-03        00000 
 4.90941e-04  3.37636e-03        00000 
 1.59900e-03  3.85178e-03        00000 
 2.13318e-03  3.17064e-03        00000 
 1.95633e-03  1.24745e-03        00000 
 1.18652e-03 -1.20683e-03        00000 
 1.61833e-04 -3.16418e-03        00000 
-7.72948e-04 -3.91494e-03        00000 
-1.43880e-03 -3.53915e-03        00000 
-1.82241e-03 -2.34968e-03        00000 
-1.48973e-02  1.13059e-03        00000 
-1.14363e-02 -1.83157e-03        00000 
-6.73519e-03  1.20642e-03        00000 
-3.49380e-03  2.49329e-03        00000 
-6.29485e-04  2.17410e-03        00000 
 7.88004e-04  4.41898e-04        00000 
-3.08468e-05 -1.89008e-03        00000 
-2.67623e-03 -3.59172e-03        00000 
-5.85082e-03 -3.94332e-03        00000 
-8.52189e-03 -2.80029e-03        00000 
-1.20251e-02  8.77326e-06        00000 
-1.57286e-02  1.21029e-03        00000 
-1.93581e-02 -3.28695e-03        00000 
-1.45638e-02 -1.10322e-03        00000 
-8.91669e-03  7.24734e-04        00000 
-3.13703e-03  1.03472e-03        00000 
 2.97980e-04 -3.14135e-04        00000 
-7.21343e-04 -2.22163e-03        00000 
-5.57011e-03 -3.69487e-03        00000 
-1.15043e-02 -3.61507e-03        00000 
-1.63218e-02 -2.09657e-03        00000 
-1.97746e-02 -2.23696e-04        00000 
-2.13272e-02  1.24249e-03        00000 
-2.73173e-02 -5.79558e-03        00000 
-2.25065e-02 -3.86699e-03        00000 
-1.48677e-02 -2.07026e-03        00000 
-5.18615e-03 -1.74655e-03        00000 
-1.78390e-02 -2.64965e-03        00000 
-2.42799e-02 -1.44726e-03        00000 
-2.75553e-02  1.74984e-05        00000 
-2.85972e-02  1.15909e-03        00000 
-3.55904e-02 -9.34084e-03        00000 
-3.12906e-02 -7.98236e-03        00000 
-2.18125e-02 -6.40551e-03        00000 
-3.30603e-02 -4.40573e-04        00000 
-3.56021e-02  4.18768e-04        00000 
-3.62775e-02  9.03072e-04        00000 
-4.40094e-02 -1.34344e-02        00000 
-4.11456e-02 -1.25729e-02        00000 
-4.37879e-02  4.52921e-04        00000 
-4.39603e-02  4.65801e-04        00000 
-5.24071e-02 -1.70808e-02        00000 
-5.20508e-02 -1.63543e-02        00000 
-5.20178e-02 -3.98913e-04        00000 
-5.16911e-02 -8.08873e-05        00000 
-6.09981e-02 -1.96367e-02        00000 
-6.21768e-02 -1.82135e-02        00000 
-6.87910e-02 -1.68543e-02        00000 
-6.34696e-02 -3.83442e-03        00000 
-6.04889e-02 -2.01914e-03        00000 
-5.96728e-02 -6.14331e-04        00000 
-6.98015e-02 -2.13628e-02        00000 
-7.16827e-02 -1.85899e-02        00000 
-7.71018e-02 -1.61881e-02        00000 
-8.65242e-02 -1.56427e-02        00000 
-7.93160e-02 -9.53977e-03        00000 
-7.26394e-02 -6.71494e-03        00000 
-6.91298e-02 -3.66666e-03        00000 
-6.79672e-02 -1.03695e-03        00000 
-7.87234e-02 -2.28967e-02        00000 
-8.07593e-02 -1.90740e-02        00000 
-8.43771e-02 -1.56875e-02        00000 
-8.95423e-02 -1.38977e-02        00000 
-9.39426e-02 -1.38056e-02        00000 
-9.46761e-02 -1.41534e-02        00000 
-9.12404e-02 -1.39758e-02        00000 
-8.59574e-02 -1.20839e-02        00000 
-8.13268e-02 -8.60268e-03        00000 
-7.78074e-02 -4.72021e-03        00000 
-7.61351e-02 -1.32159e-03        00000 
-8.79795e-02 -2.47607e-02        00000 
-9.00156e-02 -1.94313e-02        00000 
-9.11220e-02 -1.60383e-02        00000 
-9.30654e-02 -1.43895e-02        00000 
-9.49228e-02 -1.43196e-02        00000 
-9.54377e-02 -1.49975e-02        00000 
-9.42587e-02 -1.50103e-02        00000 
-9.21936e-02 -1.34575e-02        00000 
-9.01830e-02 -1.01421e-02        00000 
-8.67701e-02 -4.92092e-03        00000 
-8.27559e-02 -1.49488e-03        00000 
-8.08711e-03 -2.11674e-03        00000 
-2.54683e-02 -1.47003e-03        00000 
-4.28619e-02 -1.74383e-04        00000 
-5.36069e-02 -1.31044e-03        00000 
-1.00328e-01 -2.36411e-02        00000 
-9.87141e-02 -1.98563e-02        00000 
-9.73826e-02 -1.69841e-02        00000 
-9.65707e-02 -1.54210e-02        00000 
-9.64163e-02 -1.53009e-02        00000 
-9.68297e-02 -1.57993e-02        00000 
-9.75158e-02 -1.57119e-02        00000 
-9.81600e-02 -1.42159e-02        00000 
-9.85872e-02 -1.14406e-02        00000 
-9.87691e-02 -7.78077e-03        00000 
-8.43307e-02 -1.60808e-03        00000 
-1.66110e-02 -3.19096e-03        00000 
-2.24030e-02 -4.95658e-03        00000 
-2.99019e-02 -7.17281e-03        00000 
-3.78055e-02 -1.00391e-02        00000 
-4.56947e-02 -1.35414e-02        00000 
-5.36246e-02 -1.73425e-02        00000 
-6.18143e-02 -2.09318e-02        00000 
-7.19082e-02 -5.64959e-03        00000 
-7.03341e-02 -2.39489e-02        00000 
-8.87579e-02 -1.08157e-02        00000 
-7.87332e-02 -2.63470e-02        00000 
-8.55489e-02 -2.82973e-02        00000 
-8.71838e-02 -2.99885e-02        00000 
-1.57187e-02 -1.67236e-03        00000 
-1.14723e-02 -2.35977e-03        00000 
-4.43933e-03  1.61172e-03        00000 
-1.93333e-03  2.99863e-03        00000 
-5.25330e-05  3.21372e-03        00000 
 1.08588e-03  1.95781e-03        00000 
 9.90291e-04 -3.58019e-04        00000 
-3.07715e-04 -2.66579e-03        00000 
-2.23464e-03 -3.93351e-03        00000 
-4.05021e-03 -3.80008e-03        00000 
-5.74960e-03 -2.56004e-03        00000 
-1.14032e-02  1.17142e-03        00000 
-1.74133e-02 -3.58274e-03        00000 
-1.31301e-02 -1.24218e-03        00000 
-8.35973e-03  1.13102e-03        00000 
-3.96560e-03  1.97113e-03        00000 
-6.22213e-04  1.08634e-03        00000 
 1.36509e-04 -1.02105e-03        00000 
-2.22108e-03 -3.12500e-03        00000 
-6.34643e-03 -4.05619e-03        00000 
-1.05028e-02 -3.38212e-03        00000 
-1.42779e-02 -1.27165e-03        00000 
-1.71808e-02  8.28336e-04        00000 
-2.47816e-02 -5.36051e-03        00000 
-2.09683e-02 -3.51112e-03        00000 
-1.52176e-02 -1.32997e-03        00000 
-8.02517e-03 -2.66093e-05        00000 
-1.57356e-03 -4.37621e-04        00000 
 7.10964e-05 -1.20619e-03        00000 
-3.57118e-03 -2.47278e-03        00000 
-1.08267e-02 -3.49630e-03        00000 
-1.75258e-02 -2.65506e-03        00000 
-2.20339e-02 -9.15330e-04        00000 
-2.43542e-02  6.12681e-04        00000 
-3.27386e-02 -8.13328e-03        00000 
-2.92475e-02 -6.81033e-03        00000 
-2.26468e-02 -4.85137e-03        00000 
-1.18932e-02 -3.88730e-03        00000 
-1.52450e-02 -1.94227e-03        00000 
-2.51835e-02 -1.64576e-03        00000 
-3.02001e-02 -2.71190e-04        00000 
-3.20902e-02  6.70403e-04        00000 
-4.08489e-02 -1.16552e-02        00000 
-3.80711e-02 -1.10121e-02        00000 
-3.19069e-02 -9.38421e-03        00000 
-3.48651e-02 -9.08982e-04        00000 
-3.88570e-02  2.66150e-04        00000 
-3.99659e-02  6.23030e-04        00000 
-4.89146e-02 -1.54082e-02        00000 
-4.74201e-02 -1.51741e-02        00000 
-4.80331e-02 -4.33014e-05        00000 
-4.78261e-02  1.72112e-04        00000 
-5.70818e-02 -1.87981e-02        00000 
-5.68211e-02 -1.80132e-02        00000 
-5.72828e-02 -1.71679e-03        00000 
-5.58318e-02 -7.17149e-04        00000 
-6.55756e-02 -2.15055e-02        00000 
-6.59961e-02 -1.95385e-02        00000 
-6.98077e-02 -1.73121e-02        00000 
-7.17071e-02 -6.65494e-03        00000 
-6.62778e-02 -3.99268e-03        00000 
-6.41616e-02 -1.79095e-03        00000 
-7.42900e-02 -2.37042e-02        00000 
-7.51105e-02 -2.05002e-02        00000 
-7.83571e-02 -1.71597e-02        00000 
-8.42308e-02 -1.48218e-02        00000 
-8.62409e-02 -1.21236e-02        00000 
-7.97278e-02 -9.49106e-03        00000 
-7.51216e-02 -5.92490e-03        00000 
-7.26638e-02 -2.62264e-03        00000 
-8.27354e-02 -2.58805e-02        00000 
-8.41811e-02 -2.15407e-02        00000 
-8.65677e-02 -1.72439e-02        00000 
-8.95443e-02 -1.46005e-02        00000 
-9.28711e-02 -1.37852e-02        00000 
-9.47861e-02 -1.42917e-02        00000 
-9.39270e-02 -1.48164e-02        00000 
-9.09549e-02 -1.40341e-02        00000 
-8.74359e-02 -1.13990e-02        00000 
-8.38545e-02 -7.10978e-03        00000 
-8.08637e-02 -2.82166e-03        00000 
-8.99086e-02 -2.80111e-02        00000 
-9.44523e-02 -2.14662e-02        00000 
-9.43737e-02 -1.77728e-02        00000 
-9.45459e-02 -1.53638e-02        00000 
-9.52375e-02 -1.46063e-02        00000 
-9.58792e-02 -1.50917e-02        00000 
-9.59980e-02 -1.56129e-02        00000 
-9.55391e-02 -1.49376e-02        00000 
-9.48485e-02 -1.26187e-02        00000 
-9.37725e-02 -9.02043e-03        00000 
-8.78131e-02 -2.64815e-03        00000 
-4.86269e-02 -1.69727e-03        00000 
-6.21622e-02 -3.42656e-03        00000 
-8.19297e-02 -8.13610e-03        00000 
-9.25802e-02 -1.30398e-02        00000 
-5.95558e-02 -1.66782e-02        00000 
-7.92401e-02 -1.63928e-02        00000 
-9.10955e-02 -1.44215e-02        00000 
-9.44103e-02 -1.39526e-02        00000 
-4.53737e-02 -1.34905e-02        00000 
 6.01811e-05 -1.23839e-03        00000 
-9.76816e-04 -1.23974e-03        00000 
-2.61066e-03 -2.09870e-03        00000 
-5.43567e-03 -2.83290e-03        00000 
-4.43695e-03 -2.44504e-03        00000 
-5.31063e-04 -1.39232e-03        00000 
 8.98757e-05 -1.22262e-03        00000 
-4.81650e-03 -1.20313e-03        00000 
-3.98000e-04 -1.05915e-03        00000 
-1.90836e-03 -1.22818e-03        00000 
-8.37674e-03 -1.47087e-03        00000 
-7.15588e-03 -1.43060e-03        00000 
-1.90679e-02 -6.48854e-03        00000 
-2.53386e-02 -7.77872e-03        00000 
-2.10873e-02 -6.69300e-03        00000 
-1.13593e-02 -4.24292e-03        00000 
-2.28814e-02 -1.34278e-03        00000 
-1.47438e-02 -1.70406e-03        00000 
-2.94880e-02 -1.89306e-03        00000 
-2.50630e-02 -1.68639e-03        00000 
-3.61619e-02 -1.00912e-02        00000 
-3.28972e-02 -9.17780e-03        00000 
-4.01622e-02 -1.11723e-02        00000 
-4.03280e-02 -2.60012e-03        00000 
-3.70746e-02 -2.66031e-03        00000 
-4.43665e-02 -2.76658e-03        00000 
-5.33904e-02 -1.38481e-02        00000 
-6.45114e-02 -1.58398e-02        00000 
-4.92455e-02 -1.30379e-02        00000 
-5.67178e-02 -1.41751e-02        00000 
-5.73511e-02 -3.80705e-03        00000 
-6.82110e-02 -4.85846e-03        00000 
-5.33427e-02 -3.36872e-03        00000 
-6.06128e-02 -4.33465e-03        00000 
-7.13865e-02 -1.69510e-02        00000 
-6.90956e-02 -1.64652e-02        00000 
-8.62238e-02 -1.64253e-02        00000 
-7.97498e-02 -1.66392e-02        00000 
-7.46316e-02 -5.59583e-03        00000 
-8.85045e-02 -9.59238e-03        00000 
-8.24702e-02 -7.77394e-03        00000 
-7.25338e-02 -5.52746e-03        00000 
-8.97185e-02 -1.61150e-02        00000 
-8.74097e-02 -1.63149e-02        00000 
-9.33504e-02 -1.48799e-02        00000 
-9.24551e-02 -1.52710e-02        00000 
-9.38599e-02 -1.45763e-02        00000 
-9.13792e-02 -1.08579e-02        00000 
-9.41127e-02 -1.28787e-02        00000 
-9.42118e-02 -1.33655e-02        00000 
-9.34751e-02 -1.23536e-02        00000 
-8.94967e-02 -1.01103e-02        00000 
-9.88432e-02 -2.47211e-02        00000 
-9.92582e-02 -2.13219e-02        00000 
-9.95133e-02 -1.85494e-02        00000 
-9.94906e-02 -1.67128e-02        00000 
-9.91342e-02 -1.59161e-02        00000 
-9.85143e-02 -1.55307e-02        00000 
-9.78031e-02 -1.46308e-02        00000 
-9.71654e-02 -1.25833e-02        00000 
-9.66777e-02 -9.50774e-03        00000 
-9.63347e-02 -5.71899e-03        00000 
-1.07680e-01  1.18419e-04        00000 
-1.07775e-01 -2.62573e-02        00000 
-1.05610e-01 -2.17524e-02        00000 
-1.04086e-01 -1.85628e-02        00000 
-1.02032e-01 -1.65881e-02        00000 
-1.00225e-01 -1.57262e-02        00000 
-9.96607e-02 -1.53726e-02        00000 
-1.00556e-01 -1.44494e-02        00000 
-1.02167e-01 -1.22876e-02        00000 
-1.03678e-01 -8.74596e-03        00000 
-1.06251e-01 -3.70175e-03        00000 
-1.09248e-01 -9.74368e-05        00000 
-1.14530e-01 -2.58640e-02        00000 
-1.12373e-01 -2.24474e-02        00000 
-1.09032e-01 -1.92324e-02        00000 
-1.04616e-01 -1.70213e-02        00000 
-1.00992e-01 -1.58904e-02        00000 
-1.00385e-01 -1.49621e-02        00000 
-1.03174e-01 -1.37363e-02        00000 
-1.07418e-01 -1.12723e-02        00000 
-1.11038e-01 -7.65912e-03        00000 
-1.13703e-01 -3.79379e-03        00000 
-1.14850e-01 -3.23177e-04        00000 
-1.21010e-01 -2.59240e-02        00000 
-1.19002e-01 -2.33671e-02        00000 
-1.14338e-01 -2.09565e-02        00000 
-1.06864e-01 -1.96801e-02        00000 
-1.12939e-01 -8.97609e-03        00000 
-1.18175e-01 -6.13142e-03        00000 
-1.20823e-01 -3.16074e-03        00000 
-1.21601e-01 -5.20752e-04        00000 
-1.27320e-01 -2.60477e-02        00000 
-1.25880e-01 -2.46791e-02        00000 
-1.20211e-01 -2.33603e-02        00000 
-1.25521e-01 -3.72909e-03        00000 
-1.27742e-01 -2.04659e-03        00000 
-1.28301e-01 -6.37895e-04        00000 
-1.33377e-01 -2.56146e-02        00000 
-1.33124e-01 -2.49791e-02        00000 
-1.34362e-01 -1.02796e-03        00000 
-1.34608e-01 -6.24685e-04        00000 
-1.39246e-01 -2.41427e-02        00000 
-1.40945e-01 -2.34688e-02        00000 
-1.40748e-01 -7.40999e-04        00000 
-1.40685e-01 -4.60375e-04        00000 
-1.45226e-01 -2.18711e-02        00000 
-1.48084e-01 -2.05698e-02        00000 
-1.55054e-01 -1.92035e-02        00000 
-1.49193e-01 -2.51859e-03        00000 
-1.47253e-01 -1.20156e-03        00000 
-1.46865e-01 -1.68673e-04        00000 
-1.51308e-01 -1.95501e-02        00000 
-1.54670e-01 -1.73842e-02        00000 
-1.60419e-01 -1.52755e-02        00000 
-1.68259e-01 -1.41641e-02        00000 
-1.61352e-01 -6.35953e-03        00000 
-1.56359e-01 -4.15728e-03        00000 
-1.53923e-01 -1.82495e-03        00000 
-1.53305e-01  1.96592e-04        00000 
-1.57383e-01 -1.77394e-02        00000 
-1.60837e-01 -1.50343e-02        00000 
-1.65209e-01 -1.24982e-02        00000 
-1.70141e-01 -1.09293e-02        00000 
-1.73716e-01 -1.04187e-02        00000 
-1.73990e-01 -1.01516e-02        00000 
-1.70962e-01 -9.61645e-03        00000 
-1.66697e-01 -7.90590e-03        00000 
-1.63169e-01 -5.10676e-03        00000 
-1.60660e-01 -2.07689e-03        00000 
-1.59675e-01  5.81198e-04        00000 
-1.63577e-01 -1.66395e-02        00000 
-1.67010e-01 -1.31115e-02        00000 
-1.69628e-01 -1.08178e-02        00000 
-1.72335e-01 -9.67458e-03        00000 
-1.74293e-01 -9.57166e-03        00000 
-1.74665e-01 -9.91935e-03        00000 
-1.73487e-01 -9.71731e-03        00000 
-1.71668e-01 -8.36572e-03        00000 
-1.70064e-01 -5.74218e-03        00000 
-1.67591e-01 -1.71525e-03        00000 
-1.64843e-01  9.48039e-04        00000 
-1.05358e-01 -1.07122e-02        00000 
-1.18883e-01 -5.35647e-03        00000 
-1.33218e-01 -1.80925e-03        00000 
-1.41532e-01 -1.42052e-03        00000 
-1.71727e-01 -1.38209e-02        00000 
-1.72745e-01 -1.14680e-02        00000 
-1.73718e-01 -9.71182e-03        00000 
-1.74575e-01 -8.82689e-03        00000 
-1.75253e-01 -8.89650e-03        00000 
-1.75731e-01 -9.34038e-03        00000 
-1.76048e-01 -9.30739e-03        00000 
-1.76280e-01 -8.21229e-03        00000 
-1.76498e-01 -6.15401e-03        00000 
-1.76744e-01 -3.41250e-03        00000 
-1.66096e-01  1.28681e-03        00000 
-1.10180e-01 -2.94404e-02        00000 
-1.15184e-01 -2.89165e-02        00000 
-1.21227e-01 -2.82216e-02        00000 
-1.27237e-01 -2.72417e-02        00000 
-1.32906e-01 -2.59346e-02        00000 
-1.38370e-01 -2.43905e-02        00000 
-1.43911e-01 -2.27976e-02        00000 
-1.55385e-01 -3.85769e-03        00000 
-1.49660e-01 -2.13227e-02        00000 
-1.68807e-01 -7.39961e-03        00000 
-1.55322e-01 -2.00302e-02        00000 
-1.59892e-01 -1.88973e-02        00000 
-1.60958e-01 -1.78771e-02        00000 
-1.08798e-01 -2.98898e-02        00000 
-1.06647e-01 -2.85209e-02        00000 
-1.02733e-01 -2.31907e-02        00000 
-1.02065e-01 -1.98241e-02        00000 
-1.01263e-01 -1.73494e-02        00000 
-1.00212e-01 -1.60545e-02        00000 
-9.93875e-02 -1.56433e-02        00000 
-9.91306e-02 -1.51967e-02        00000 
-9.94086e-02 -1.37688e-02        00000 
-9.98637e-02 -1.10310e-02        00000 
-1.00579e-01 -7.28316e-03        00000 
-1.05158e-01 -1.30638e-03        00000 
-1.11933e-01 -2.78384e-02        00000 
-1.10208e-01 -2.40812e-02        00000 
-1.07772e-01 -2.02718e-02        00000 
-1.04912e-01 -1.75559e-02        00000 
-1.01933e-01 -1.60793e-02        00000 
-1.00244e-01 -1.54825e-02        00000 
-1.00906e-01 -1.48668e-02        00000 
-1.03291e-01 -1.32656e-02        00000 
-1.06066e-01 -1.02549e-02        00000 
-1.08815e-01 -5.98656e-03        00000 
-1.11030e-01 -1.74780e-03        00000 
-1.18082e-01 -2.72862e-02        00000 
-1.16836e-01 -2.44193e-02        00000 
-1.13786e-01 -2.13355e-02        00000 
-1.08829e-01 -1.88403e-02        00000 
-1.03310e-01 -1.74521e-02        00000 
-1.00715e-01 -1.55050e-02        00000 
-1.02192e-01 -1.33171e-02        00000 
-1.07313e-01 -1.15913e-02        00000 
-1.12488e-01 -8.71175e-03        00000 
-1.16047e-01 -5.18417e-03        00000 
-1.17848e-01 -1.90348e-03        00000 
-1.24336e-01 -2.68962e-02        00000 
-1.23451e-01 -2.50755e-02        00000 
-1.19994e-01 -2.29652e-02        00000 
-1.12399e-01 -2.17763e-02        00000 
-1.10876e-01 -7.78074e-03        00000 
-1.19031e-01 -6.22343e-03        00000 
-1.23226e-01 -3.71368e-03        00000 
-1.24771e-01 -1.56415e-03        00000 
-1.30319e-01 -2.62582e-02        00000 
-1.30017e-01 -2.54785e-02        00000 
-1.27293e-01 -2.42995e-02        00000 
-1.26582e-01 -3.45604e-03        00000 
-1.30323e-01 -2.01861e-03        00000 
-1.31379e-01 -1.04511e-03        00000 
-1.35984e-01 -2.50712e-02        00000 
-1.36668e-01 -2.47953e-02        00000 
-1.37478e-01 -1.00866e-03        00000 
-1.37616e-01 -6.74897e-04        00000 
-1.41604e-01 -2.33552e-02        00000 
-1.43297e-01 -2.26580e-02        00000 
-1.44602e-01 -1.32573e-03        00000 
-1.43794e-01 -6.02356e-04        00000 
-1.47421e-01 -2.14270e-02        00000 
-1.49714e-01 -1.99068e-02        00000 
-1.54464e-01 -1.79556e-02        00000 
-1.55464e-01 -4.37307e-03        00000 
-1.51555e-01 -2.36368e-03        00000 
-1.50213e-01 -7.20886e-04        00000 
-1.53354e-01 -1.97123e-02        00000 
-1.55982e-01 -1.74384e-02        00000 
-1.60231e-01 -1.48760e-02        00000 
-1.65950e-01 -1.28533e-02        00000 
-1.66871e-01 -8.21925e-03        00000 
-1.61820e-01 -6.06540e-03        00000 
-1.58440e-01 -3.28238e-03        00000 
-1.56811e-01 -7.35181e-04        00000 
-1.59048e-01 -1.85297e-02        00000 
-1.62099e-01 -1.56285e-02        00000 
-1.65701e-01 -1.26461e-02        00000 
-1.69381e-01 -1.07018e-02        00000 
-1.72672e-01 -9.94656e-03        00000 
-1.74243e-01 -1.00276e-02        00000 
-1.73318e-01 -1.00824e-02        00000 
-1.70748e-01 -9.20704e-03        00000 
-1.67921e-01 -7.02077e-03        00000 
-1.65246e-01 -3.66475e-03        00000 
-1.63192e-01 -3.45277e-04        00000 
-1.63814e-01 -1.76941e-02        00000 
-1.68912e-01 -1.34580e-02        00000 
-1.70842e-01 -1.10716e-02        00000 
-1.72596e-01 -9.52664e-03        00000 
-1.74136e-01 -9.08229e-03        00000 
-1.74998e-01 -9.44521e-03        00000 
-1.75004e-01 -9.75802e-03        00000 
-1.74403e-01 -9.15710e-03        00000 
-1.73698e-01 -7.34619e-03        00000 
-1.72885e-01 -4.59591e-03        00000 
-1.68564e-01  2.64237e-04        00000 
-1.37217e-01 -2.35104e-03        00000 
-1.47907e-01 -2.57347e-03        00000 
-1.63317e-01 -5.48305e-03        00000 
-1.72067e-01 -9.17312e-03        00000 
-1.47535e-01 -2.13919e-02        00000 
-1.62801e-01 -1.68026e-02        00000 
-1.71607e-01 -1.18595e-02        00000 
-1.73904e-01 -1.04791e-02        00000 
-1.37545e-01 -2.35441e-02        00000 
-1.01707e-01 -1.72434e-02        00000 
-1.01110e-01 -1.37823e-02        00000 
-1.04469e-01 -1.95314e-02        00000 
-1.07064e-01 -2.06641e-02        00000 
-1.06207e-01 -2.02682e-02        00000 