<?xml version="1.0" encoding="utf-8"?>
<VTKFile byte_order="LittleEndian" type="UnstructuredGrid" version="0.1">
   <UnstructuredGrid>
      <Piece NumberOfCells="3000" NumberOfPoints="1566">
         <Points>
            <DataArray Name="Points" NumberOfComponents="3" format="ascii" type="Float32">
0.5080 0.0000 0.0000
0.5080 0.0100 0.0000
0.5080 0.0200 0.0000
0.5080 0.0300 0.0000
0.5080 0.0400 0.0000
0.5080 0.0500 0.0000
0.5080 0.0600 0.0000
0.5080 0.0700 0.0000
0.5080 0.0800 0.0000
0.5080 0.0900 0.0000
0.5080 0.1000 0.0000
0.5080 0.1100 0.0000
0.5080 0.1200 0.0000
0.5080 0.1300 0.0000
0.5080 0.1400 0.0000
0.5080 0.1500 0.0000
0.5080 0.1600 0.0000
0.5080 0.1700 0.0000
0.5080 0.1800 0.0000
0.5080 0.1900 0.0000
0.5080 0.2000 0.0000
0.5080 0.2100 0.0000
0.5080 0.2200 0.0000
0.5080 0.2300 0.0000
0.5080 0.2400 0.0000
0.5080 0.2500 0.0000
0.5080 0.2600 0.0000
0.5080 0.2700 0.0000
0.5080 0.2800 0.0000
0.5080 0.2900 0.0000
0.5080 0.3000 0.0000
0.5080 0.3100 0.0000
0.5080 0.3200 0.0000
0.5080 0.3300 0.0000
0.5080 0.3400 0.0000
0.5080 0.3500 0.0000
0.5080 0.3600 0.0000
0.5080 0.3700 0.0000
0.5080 0.3800 0.0000
0.5080 0.3900 0.0000
0.5080 0.4000 0.0000
0.5080 0.4100 0.0000
0.5080 0.4200 0.0000
0.5080 0.4300 0.0000
0.5080 0.4400 0.0000
0.5080 0.4500 0.0000
0.5080 0.4600 0.0000
0.5080 0.4700 0.0000
0.5080 0.4800 0.0000
0.5080 0.4900 0.0000
0.5080 0.5000 0.0000
0.5163 0.0000 0.0000
0.5163 0.0100 0.0000
0.5163 0.0200 0.0000
0.5163 0.0300 0.0000
0.5163 0.0400 0.0000
0.5163 0.0500 0.0000
0.5163 0.0600 0.0000
0.5163 0.0700 0.0000
0.5163 0.0800 0.0000
0.5163 0.0900 0.0000
0.5163 0.1000 0.0000
0.5163 0.1100 0.0000
0.5163 0.1200 0.0000
0.5163 0.1300 0.0000
0.5163 0.1400 0.0000
0.5163 0.1500 0.0000
0.5163 0.1600 0.0000
0.5163 0.1700 0.0000
0.5163 0.1800 0.0000
0.5163 0.1900 0.0000
0.5163 0.2000 0.0000
0.5163 0.2100 0.0000
0.5163 0.2200 0.0000
0.5163 0.2300 0.0000
0.5163 0.2400 0.0000
0.5163 0.2500 0.0000
0.5163 0.2600 0.0000
0.5163 0.2700 0.0000
0.5163 0.2800 0.0000
0.5163 0.2900 0.0000
0.5163 0.3000 0.0000
0.5163 0.3100 0.0000
0.5163 0.3200 0.0000
0.5163 0.3300 0.0000
0.5163 0.3400 0.0000
0.5163 0.3500 0.0000
0.5163 0.3600 0.0000
0.5163 0.3700 0.0000
0.5163 0.3800 0.0000
0.5163 0.3900 0.0000
0.5163 0.4000 0.0000
0.5163 0.4100 0.0000
0.5163 0.4200 0.0000
0.5163 0.4300 0.0000
0.5163 0.4400 0.0000
0.5163 0.4500 0.0000
0.5163 0.4600 0.0000
0.5163 0.4700 0.0000
0.5163 0.4800 0.0000
0.5163 0.4900 0.0000
0.5163 0.5000 0.0000
0.5247 0.0000 0.0000
0.5247 0.0100 0.0000
0.5247 0.0200 0.0000
0.5247 0.0300 0.0000
0.5247 0.0400 0.0000
0.5247 0.0500 0.0000
0.5247 0.0600 0.0000
0.5247 0.0700 0.0000
0.5247 0.0800 0.0000
0.5247 0.0900 0.0000
0.5247 0.1000 0.0000
0.5247 0.1100 0.0000
0.5247 0.1200 0.0000
0.5247 0.1300 0.0000
0.5247 0.1400 0.0000
0.5247 0.1500 0.0000
0.5247 0.1600 0.0000
0.5247 0.1700 0.0000
0.5247 0.1800 0.0000
0.5247 0.1900 0.0000
0.5247 0.2000 0.0000
0.5247 0.2100 0.0000
0.5247 0.2200 0.0000
0.5247 0.2300 0.0000
0.5247 0.2400 0.0000
0.5247 0.2500 0.0000
0.5247 0.2600 0.0000
0.5247 0.2700 0.0000
0.5247 0.2800 0.0000
0.5247 0.2900 0.0000
0.5247 0.3000 0.0000
0.5247 0.3100 0.0000
0.5247 0.3200 0.0000
0.5247 0.3300 0.0000
0.5247 0.3400 0.0000
0.5247 0.3500 0.0000
0.5247 0.3600 0.0000
0.5247 0.3700 0.0000
0.5247 0.3800 0.0000
0.5247 0.3900 0.0000
0.5247 0.4000 0.0000
0.5247 0.4100 0.0000
0.5247 0.4200 0.0000
0.5247 0.4300 0.0000
0.5247 0.4400 0.0000
0.5247 0.4500 0.0000
0.5247 0.4600 0.0000
0.5247 0.4700 0.0000
0.5247 0.4800 0.0000
0.5247 0.4900 0.0000
0.5247 0.5000 0.0000
0.5330 0.0000 0.0000
0.5330 0.0100 0.0000
0.5330 0.0200 0.0000
0.5330 0.0300 0.0000
0.5330 0.0400 0.0000
0.5330 0.0500 0.0000
0.5330 0.0600 0.0000
0.5330 0.0700 0.0000
0.5330 0.0800 0.0000
0.5330 0.0900 0.0000
0.5330 0.1000 0.0000
0.5330 0.1100 0.0000
0.5330 0.1200 0.0000
0.5330 0.1300 0.0000
0.5330 0.1400 0.0000
0.5330 0.1500 0.0000
0.5330 0.1600 0.0000
0.5330 0.1700 0.0000
0.5330 0.1800 0.0000
0.5330 0.1900 0.0000
0.5330 0.2000 0.0000
0.5330 0.2100 0.0000
0.5330 0.2200 0.0000
0.5330 0.2300 0.0000
0.5330 0.2400 0.0000
0.5330 0.2500 0.0000
0.5330 0.2600 0.0000
0.5330 0.2700 0.0000
0.5330 0.2800 0.0000
0.5330 0.2900 0.0000
0.5330 0.3000 0.0000
0.5330 0.3100 0.0000
0.5330 0.3200 0.0000
0.5330 0.3300 0.0000
0.5330 0.3400 0.0000
0.5330 0.3500 0.0000
0.5330 0.3600 0.0000
0.5330 0.3700 0.0000
0.5330 0.3800 0.0000
0.5330 0.3900 0.0000
0.5330 0.4000 0.0000
0.5330 0.4100 0.0000
0.5330 0.4200 0.0000
0.5330 0.4300 0.0000
0.5330 0.4400 0.0000
0.5330 0.4500 0.0000
0.5330 0.4600 0.0000
0.5330 0.4700 0.0000
0.5330 0.4800 0.0000
0.5330 0.4900 0.0000
0.5330 0.5000 0.0000
0.5413 0.0000 0.0000
0.5413 0.0100 0.0000
0.5413 0.0200 0.0000
0.5413 0.0300 0.0000
0.5413 0.0400 0.0000
0.5413 0.0500 0.0000
0.5413 0.0600 0.0000
0.5413 0.0700 0.0000
0.5413 0.0800 0.0000
0.5413 0.0900 0.0000
0.5413 0.1000 0.0000
0.5413 0.1100 0.0000
0.5413 0.1200 0.0000
0.5413 0.1300 0.0000
0.5413 0.1400 0.0000
0.5413 0.1500 0.0000
0.5413 0.1600 0.0000
0.5413 0.1700 0.0000
0.5413 0.1800 0.0000
0.5413 0.1900 0.0000
0.5413 0.2000 0.0000
0.5413 0.2100 0.0000
0.5413 0.2200 0.0000
0.5413 0.2300 0.0000
0.5413 0.2400 0.0000
0.5413 0.2500 0.0000
0.5413 0.2600 0.0000
0.5413 0.2700 0.0000
0.5413 0.2800 0.0000
0.5413 0.2900 0.0000
0.5413 0.3000 0.0000
0.5413 0.3100 0.0000
0.5413 0.3200 0.0000
0.5413 0.3300 0.0000
0.5413 0.3400 0.0000
0.5413 0.3500 0.0000
0.5413 0.3600 0.0000
0.5413 0.3700 0.0000
0.5413 0.3800 0.0000
0.5413 0.3900 0.0000
0.5413 0.4000 0.0000
0.5413 0.4100 0.0000
0.5413 0.4200 0.0000
0.5413 0.4300 0.0000
0.5413 0.4400 0.0000
0.5413 0.4500 0.0000
0.5413 0.4600 0.0000
0.5413 0.4700 0.0000
0.5413 0.4800 0.0000
0.5413 0.4900 0.0000
0.5413 0.5000 0.0000
0.5497 0.0000 0.0000
0.5497 0.0100 0.0000
0.5497 0.0200 0.0000
0.5497 0.0300 0.0000
0.5497 0.0400 0.0000
0.5497 0.0500 0.0000
0.5497 0.0600 0.0000
0.5497 0.0700 0.0000
0.5497 0.0800 0.0000
0.5497 0.0900 0.0000
0.5497 0.1000 0.0000
0.5497 0.1100 0.0000
0.5497 0.1200 0.0000
0.5497 0.1300 0.0000
0.5497 0.1400 0.0000
0.5497 0.1500 0.0000
0.5497 0.1600 0.0000
0.5497 0.1700 0.0000
0.5497 0.1800 0.0000
0.5497 0.1900 0.0000
0.5497 0.2000 0.0000
0.5497 0.2100 0.0000
0.5497 0.2200 0.0000
0.5497 0.2300 0.0000
0.5497 0.2400 0.0000
0.5497 0.2500 0.0000
0.5497 0.2600 0.0000
0.5497 0.2700 0.0000
0.5497 0.2800 0.0000
0.5497 0.2900 0.0000
0.5497 0.3000 0.0000
0.5497 0.3100 0.0000
0.5497 0.3200 0.0000
0.5497 0.3300 0.0000
0.5497 0.3400 0.0000
0.5497 0.3500 0.0000
0.5497 0.3600 0.0000
0.5497 0.3700 0.0000
0.5497 0.3800 0.0000
0.5497 0.3900 0.0000
0.5497 0.4000 0.0000
0.5497 0.4100 0.0000
0.5497 0.4200 0.0000
0.5497 0.4300 0.0000
0.5497 0.4400 0.0000
0.5497 0.4500 0.0000
0.5497 0.4600 0.0000
0.5497 0.4700 0.0000
0.5497 0.4800 0.0000
0.5497 0.4900 0.0000
0.5497 0.5000 0.0000
0.5580 0.0000 0.0000
0.5580 0.0100 0.0000
0.5580 0.0200 0.0000
0.5580 0.0300 0.0000
0.5580 0.0400 0.0000
0.5580 0.0500 0.0000
0.5580 0.0600 0.0000
0.5580 0.0700 0.0000
0.5580 0.0800 0.0000
0.5580 0.0900 0.0000
0.5580 0.1000 0.0000
0.5580 0.1100 0.0000
0.5580 0.1200 0.0000
0.5580 0.1300 0.0000
0.5580 0.1400 0.0000
0.5580 0.1500 0.0000
0.5580 0.1600 0.0000
0.5580 0.1700 0.0000
0.5580 0.1800 0.0000
0.5580 0.1900 0.0000
0.5580 0.2000 0.0000
0.5580 0.2100 0.0000
0.5580 0.2200 0.0000
0.5580 0.2300 0.0000
0.5580 0.2400 0.0000
0.5580 0.2500 0.0000
0.5580 0.2600 0.0000
0.5580 0.2700 0.0000
0.5580 0.2800 0.0000
0.5580 0.2900 0.0000
0.5580 0.3000 0.0000
0.5580 0.3100 0.0000
0.5580 0.3200 0.0000
0.5580 0.3300 0.0000
0.5580 0.3400 0.0000
0.5580 0.3500 0.0000
0.5580 0.3600 0.0000
0.5580 0.3700 0.0000
0.5580 0.3800 0.0000
0.5580 0.3900 0.0000
0.5580 0.4000 0.0000
0.5580 0.4100 0.0000
0.5580 0.4200 0.0000
0.5580 0.4300 0.0000
0.5580 0.4400 0.0000
0.5580 0.4500 0.0000
0.5580 0.4600 0.0000
0.5580 0.4700 0.0000
0.5580 0.4800 0.0000
0.5580 0.4900 0.0000
0.5580 0.5000 0.0000
0.5663 0.0000 0.0000
0.5663 0.0100 0.0000
0.5663 0.0200 0.0000
0.5663 0.0300 0.0000
0.5663 0.0400 0.0000
0.5663 0.0500 0.0000
0.5663 0.0600 0.0000
0.5663 0.0700 0.0000
0.5663 0.0800 0.0000
0.5663 0.0900 0.0000
0.5663 0.1000 0.0000
0.5663 0.1100 0.0000
0.5663 0.1200 0.0000
0.5663 0.1300 0.0000
0.5663 0.1400 0.0000
0.5663 0.1500 0.0000
0.5663 0.1600 0.0000
0.5663 0.1700 0.0000
0.5663 0.1800 0.0000
0.5663 0.1900 0.0000
0.5663 0.2000 0.0000
0.5663 0.2100 0.0000
0.5663 0.2200 0.0000
0.5663 0.2300 0.0000
0.5663 0.2400 0.0000
0.5663 0.2500 0.0000
0.5663 0.2600 0.0000
0.5663 0.2700 0.0000
0.5663 0.2800 0.0000
0.5663 0.2900 0.0000
0.5663 0.3000 0.0000
0.5663 0.3100 0.0000
0.5663 0.3200 0.0000
0.5663 0.3300 0.0000
0.5663 0.3400 0.0000
0.5663 0.3500 0.0000
0.5663 0.3600 0.0000
0.5663 0.3700 0.0000
0.5663 0.3800 0.0000
0.5663 0.3900 0.0000
0.5663 0.4000 0.0000
0.5663 0.4100 0.0000
0.5663 0.4200 0.0000
0.5663 0.4300 0.0000
0.5663 0.4400 0.0000
0.5663 0.4500 0.0000
0.5663 0.4600 0.0000
0.5663 0.4700 0.0000
0.5663 0.4800 0.0000
0.5663 0.4900 0.0000
0.5663 0.5000 0.0000
0.5747 0.0000 0.0000
0.5747 0.0100 0.0000
0.5747 0.0200 0.0000
0.5747 0.0300 0.0000
0.5747 0.0400 0.0000
0.5747 0.0500 0.0000
0.5747 0.0600 0.0000
0.5747 0.0700 0.0000
0.5747 0.0800 0.0000
0.5747 0.0900 0.0000
0.5747 0.1000 0.0000
0.5747 0.1100 0.0000
0.5747 0.1200 0.0000
0.5747 0.1300 0.0000
0.5747 0.1400 0.0000
0.5747 0.1500 0.0000
0.5747 0.1600 0.0000
0.5747 0.1700 0.0000
0.5747 0.1800 0.0000
0.5747 0.1900 0.0000
0.5747 0.2000 0.0000
0.5747 0.2100 0.0000
0.5747 0.2200 0.0000
0.5747 0.2300 0.0000
0.5747 0.2400 0.0000
0.5747 0.2500 0.0000
0.5747 0.2600 0.0000
0.5747 0.2700 0.0000
0.5747 0.2800 0.0000
0.5747 0.2900 0.0000
0.5747 0.3000 0.0000
0.5747 0.3100 0.0000
0.5747 0.3200 0.0000
0.5747 0.3300 0.0000
0.5747 0.3400 0.0000
0.5747 0.3500 0.0000
0.5747 0.3600 0.0000
0.5747 0.3700 0.0000
0.5747 0.3800 0.0000
0.5747 0.3900 0.0000
0.5747 0.4000 0.0000
0.5747 0.4100 0.0000
0.5747 0.4200 0.0000
0.5747 0.4300 0.0000
0.5747 0.4400 0.0000
0.5747 0.4500 0.0000
0.5747 0.4600 0.0000
0.5747 0.4700 0.0000
0.5747 0.4800 0.0000
0.5747 0.4900 0.0000
0.5747 0.5000 0.0000
0.5830 0.0000 0.0000
0.5830 0.0100 0.0000
[...]
         <PointData>
            <DataArray Name="fValues" NumberOfComponents="3" format="ascii" type="Float64">
-9.08025e+00 -1.35760e+01        00000 
-8.67099e+00 -1.35230e+01        00000 
-8.26735e+00 -1.34721e+01        00000 
-7.86912e+00 -1.34235e+01        00000 
-7.47604e+00 -1.33769e+01        00000 
-7.08788e+00 -1.33326e+01        00000 
-6.70442e+00 -1.32904e+01        00000 
-6.32542e+00 -1.32503e+01        00000 
-5.95064e+00 -1.32124e+01        00000 
-5.57986e+00 -1.31767e+01        00000 
-5.21283e+00 -1.31432e+01        00000 
-4.84934e+00 -1.31118e+01        00000 
-4.48914e+00 -1.30825e+01        00000 
-4.13200e+00 -1.30555e+01        00000 
-3.77769e+00 -1.30305e+01        00000 
-3.42598e+00 -1.30078e+01        00000 
-3.07664e+00 -1.29872e+01        00000 
-2.72942e+00 -1.29688e+01        00000 
-2.38409e+00 -1.29525e+01        00000 
-2.04043e+00 -1.29385e+01        00000 
-1.69818e+00 -1.29265e+01        00000 
-1.35712e+00 -1.29168e+01        00000 
-1.01701e+00 -1.29092e+01        00000 
-6.77610e-01 -1.29038e+01        00000 
-3.38686e-01 -1.29005e+01        00000 
 2.20418e-12 -1.28994e+01        00000 
 3.38686e-01 -1.29005e+01        00000 
 6.77610e-01 -1.29038e+01        00000 
 1.01701e+00 -1.29092e+01        00000 
 1.35712e+00 -1.29168e+01        00000 
 1.69818e+00 -1.29265e+01        00000 
 2.04043e+00 -1.29385e+01        00000 
 2.38409e+00 -1.29525e+01        00000 
 2.72942e+00 -1.29688e+01        00000 
 3.07664e+00 -1.29872e+01        00000 
 3.42598e+00 -1.30078e+01        00000 
 3.77769e+00 -1.30305e+01        00000 
 4.13200e+00 -1.30555e+01        00000 
 4.48914e+00 -1.30825e+01        00000 
 4.84934e+00 -1.31118e+01        00000 
 5.21283e+00 -1.31432e+01        00000 
 5.57986e+00 -1.31767e+01        00000 
 5.95064e+00 -1.32124e+01        00000 
 6.32542e+00 -1.32503e+01        00000 
 6.70442e+00 -1.32904e+01        00000 
 7.08788e+00 -1.33326e+01        00000 
 7.47604e+00 -1.33769e+01        00000 
 7.86912e+00 -1.34235e+01        00000 
 8.26735e+00 -1.34721e+01        00000 
 8.67099e+00 -1.35230e+01        00000 
 9.08025e+00 -1.35760e+01        00000 
-9.17938e+00 -1.39211e+01        00000 
-8.76615e+00 -1.38690e+01        00000 
-8.35855e+00 -1.38190e+01        00000 
-7.95635e+00 -1.37711e+01        00000 
-7.55931e+00 -1.37254e+01        00000 
-7.16719e+00 -1.36817e+01        00000 
-6.77977e+00 -1.36402e+01        00000 
-6.39680e+00 -1.36009e+01        00000 
-6.01806e+00 -1.35636e+01        00000 
-5.64331e+00 -1.35285e+01        00000 
-5.27233e+00 -1.34955e+01        00000 
-4.90487e+00 -1.34646e+01        00000 
-4.54070e+00 -1.34359e+01        00000 
-4.17960e+00 -1.34093e+01        00000 
-3.82133e+00 -1.33848e+01        00000 
-3.46566e+00 -1.33624e+01        00000 
-3.11234e+00 -1.33422e+01        00000 
-2.76116e+00 -1.33241e+01        00000 
-2.41187e+00 -1.33081e+01        00000 
-2.06423e+00 -1.32943e+01        00000 
-1.71802e+00 -1.32826e+01        00000 
-1.37299e+00 -1.32730e+01        00000 
-1.02891e+00 -1.32656e+01        00000 
-6.85546e-01 -1.32602e+01        00000 
-3.42654e-01 -1.32570e+01        00000 
 2.23556e-12 -1.32560e+01        00000 
 3.42654e-01 -1.32570e+01        00000 
 6.85546e-01 -1.32602e+01        00000 
 1.02891e+00 -1.32656e+01        00000 
 1.37299e+00 -1.32730e+01        00000 
 1.71802e+00 -1.32826e+01        00000 
 2.06423e+00 -1.32943e+01        00000 
 2.41187e+00 -1.33081e+01        00000 
 2.76116e+00 -1.33241e+01        00000 
 3.11234e+00 -1.33422e+01        00000 
 3.46566e+00 -1.33624e+01        00000 
 3.82133e+00 -1.33848e+01        00000 
 4.17960e+00 -1.34093e+01        00000 
 4.54070e+00 -1.34359e+01        00000 
 4.90487e+00 -1.34646e+01        00000 
 5.27233e+00 -1.34955e+01        00000 
 5.64331e+00 -1.35285e+01        00000 
 6.01806e+00 -1.35636e+01        00000 
 6.39680e+00 -1.36009e+01        00000 
 6.77977e+00 -1.36402e+01        00000 
 7.16719e+00 -1.36817e+01        00000 
 7.55931e+00 -1.37254e+01        00000 
 7.95635e+00 -1.37711e+01        00000 
 8.35855e+00 -1.38190e+01        00000 
 8.76615e+00 -1.38690e+01        00000 
 9.17938e+00 -1.39211e+01        00000 
-9.27685e+00 -1.42696e+01        00000 
-8.85973e+00 -1.42183e+01        00000 
-8.44823e+00 -1.41692e+01        00000 
-8.04213e+00 -1.41221e+01        00000 
-7.64119e+00 -1.40771e+01        00000 
-7.24518e+00 -1.40342e+01        00000 
-6.85386e+00 -1.39934e+01        00000 
-6.46699e+00 -1.39547e+01        00000 
-6.08436e+00 -1.39181e+01        00000 
-5.70571e+00 -1.38836e+01        00000 
-5.33082e+00 -1.38512e+01        00000 
-4.95947e+00 -1.38208e+01        00000 
-4.59140e+00 -1.37926e+01        00000 
-4.22640e+00 -1.37664e+01        00000 
-3.86423e+00 -1.37424e+01        00000 
-3.50466e+00 -1.37204e+01        00000 
-3.14745e+00 -1.37005e+01        00000 
-2.79236e+00 -1.36828e+01        00000 
-2.43917e+00 -1.36671e+01        00000 
-2.08763e+00 -1.36535e+01        00000 
-1.73752e+00 -1.36420e+01        00000 
-1.38859e+00 -1.36325e+01        00000 
-1.04061e+00 -1.36252e+01        00000 
-6.93347e-01 -1.36200e+01        00000 
-3.46555e-01 -1.36169e+01        00000 
 2.26123e-12 -1.36158e+01        00000 
 3.46555e-01 -1.36169e+01        00000 
 6.93347e-01 -1.36200e+01        00000 
 1.04061e+00 -1.36252e+01        00000 
 1.38859e+00 -1.36325e+01        00000 
 1.73752e+00 -1.36420e+01        00000 
 2.08763e+00 -1.36535e+01        00000 
 2.43917e+00 -1.36671e+01        00000 
 2.79236e+00 -1.36828e+01        00000 
 3.14745e+00 -1.37005e+01        00000 
 3.50466e+00 -1.37204e+01        00000 
 3.86423e+00 -1.37424e+01        00000 
 4.22640e+00 -1.37664e+01        00000 
 4.59140e+00 -1.37926e+01        00000 
 4.95947e+00 -1.38208e+01        00000 
 5.33082e+00 -1.38512e+01        00000 
 5.70571e+00 -1.38836e+01        00000 
 6.08436e+00 -1.39181e+01        00000 
 6.46699e+00 -1.39547e+01        00000 
 6.85386e+00 -1.39934e+01        00000 
 7.24518e+00 -1.40342e+01        00000 
 7.64119e+00 -1.40771e+01        00000 
 8.04213e+00 -1.41221e+01        00000 
 8.44823e+00 -1.41692e+01        00000 
 8.85973e+00 -1.42183e+01        00000 
 9.27685e+00 -1.42696e+01        00000 
-9.37266e+00 -1.46212e+01        00000 
-8.95170e+00 -1.45708e+01        00000 
-8.53637e+00 -1.45225e+01        00000 
-8.12644e+00 -1.44762e+01        00000 
-7.72167e+00 -1.44320e+01        00000 
-7.32183e+00 -1.43899e+01        00000 
-6.92667e+00 -1.43498e+01        00000 
-6.53598e+00 -1.43118e+01        00000 
-6.14951e+00 -1.42758e+01        00000 
-5.76703e+00 -1.42419e+01        00000 
-5.38831e+00 -1.42100e+01        00000 
-5.01312e+00 -1.41802e+01        00000 
-4.64123e+00 -1.41525e+01        00000 
-4.27239e+00 -1.41268e+01        00000 
-3.90639e+00 -1.41031e+01        00000 
-3.54298e+00 -1.40816e+01        00000 
-3.18194e+00 -1.40620e+01        00000 
-2.82302e+00 -1.40446e+01        00000 
-2.46599e+00 -1.40292e+01        00000 
-2.11063e+00 -1.40158e+01        00000 
-1.75668e+00 -1.40045e+01        00000 
-1.40392e+00 -1.39953e+01        00000 
-1.05211e+00 -1.39881e+01        00000 
-7.01011e-01 -1.39829e+01        00000 
-3.50387e-01 -1.39799e+01        00000 
 2.28724e-12 -1.39788e+01        00000 
 3.50387e-01 -1.39799e+01        00000 
 7.01011e-01 -1.39829e+01        00000 
 1.05211e+00 -1.39881e+01        00000 
 1.40392e+00 -1.39953e+01        00000 
 1.75668e+00 -1.40045e+01        00000 
 2.11063e+00 -1.40158e+01        00000 
 2.46599e+00 -1.40292e+01        00000 
 2.82302e+00 -1.40446e+01        00000 
 3.18194e+00 -1.40620e+01        00000 
 3.54298e+00 -1.40816e+01        00000 
 3.90639e+00 -1.41031e+01        00000 
 4.27239e+00 -1.41268e+01        00000 
 4.64123e+00 -1.41525e+01        00000 
 5.01312e+00 -1.41802e+01        00000 
 5.38831e+00 -1.42100e+01        00000 
 5.76703e+00 -1.42419e+01        00000 
 6.14951e+00 -1.42758e+01        00000 
 6.53598e+00 -1.43118e+01        00000 
 6.92667e+00 -1.43498e+01        00000 
 7.32183e+00 -1.43899e+01        00000 
 7.72167e+00 -1.44320e+01        00000 
 8.12644e+00 -1.44762e+01        00000 
 8.53637e+00 -1.45225e+01        00000 
 8.95170e+00 -1.45708e+01        00000 
 9.37266e+00 -1.46212e+01        00000 
-9.46679e+00 -1.49760e+01        00000 
-9.04207e+00 -1.49265e+01        00000 
-8.62298e+00 -1.48790e+01        00000 
-8.20929e+00 -1.48335e+01        00000 
-7.80075e+00 -1.47901e+01        00000 
-7.39714e+00 -1.47487e+01        00000 
-6.99822e+00 -1.47093e+01        00000 
-6.60376e+00 -1.46720e+01        00000 
-6.21352e+00 -1.46366e+01        00000 
-5.82728e+00 -1.46033e+01        00000 
-5.44479e+00 -1.45720e+01        00000 
-5.06584e+00 -1.45427e+01        00000 
-4.69017e+00 -1.45155e+01        00000 
-4.31757e+00 -1.44903e+01        00000 
-3.94780e+00 -1.44671e+01        00000 
-3.58063e+00 -1.44459e+01        00000 
-3.21582e+00 -1.44267e+01        00000 
-2.85313e+00 -1.44096e+01        00000 
-2.49234e+00 -1.43944e+01        00000 
-2.13321e+00 -1.43813e+01        00000 
-1.77550e+00 -1.43702e+01        00000 
-1.41898e+00 -1.43612e+01        00000 
-1.06340e+00 -1.43541e+01        00000 
-7.08538e-01 -1.43491e+01        00000 
-3.54150e-01 -1.43460e+01        00000 
 2.31601e-12 -1.43450e+01        00000 
 3.54150e-01 -1.43460e+01        00000 
 7.08538e-01 -1.43491e+01        00000 
 1.06340e+00 -1.43541e+01        00000 
 1.41898e+00 -1.43612e+01        00000 
 1.77550e+00 -1.43702e+01        00000 
 2.13321e+00 -1.43813e+01        00000 
 2.49234e+00 -1.43944e+01        00000 
 2.85313e+00 -1.44096e+01        00000 
 3.21582e+00 -1.44267e+01        00000 
 3.58063e+00 -1.44459e+01        00000 
 3.94780e+00 -1.44671e+01        00000 
 4.31757e+00 -1.44903e+01        00000 
 4.69017e+00 -1.45155e+01        00000 
 5.06584e+00 -1.45427e+01        00000 
 5.44479e+00 -1.45720e+01        00000 
 5.82728e+00 -1.46033e+01        00000 
 6.21352e+00 -1.46366e+01        00000 
 6.60376e+00 -1.46720e+01        00000 
 6.99822e+00 -1.47093e+01        00000 
 7.39714e+00 -1.47487e+01        00000 
 7.80075e+00 -1.47901e+01        00000 
 8.20929e+00 -1.48335e+01        00000 
 8.62298e+00 -1.48790e+01        00000 
 9.04207e+00 -1.49265e+01        00000 
 9.46679e+00 -1.49760e+01        00000 
-9.55928e+00 -1.53339e+01        00000 
-9.13086e+00 -1.52853e+01        00000 
-8.70808e+00 -1.52387e+01        00000 
-8.29068e+00 -1.51940e+01        00000 
-7.87845e+00 -1.51514e+01        00000 
-7.47114e+00 -1.51107e+01        00000 
-7.06852e+00 -1.50720e+01        00000 
-6.67035e+00 -1.50353e+01        00000 
-6.27641e+00 -1.50006e+01        00000 
-5.88646e+00 -1.49679e+01        00000 
-5.50028e+00 -1.49372e+01        00000 
-5.11762e+00 -1.49084e+01        00000 
-4.73825e+00 -1.48817e+01        00000 
-4.36195e+00 -1.48569e+01        00000 
-3.98848e+00 -1.48341e+01        00000 
-3.61760e+00 -1.48133e+01        00000 
-3.24909e+00 -1.47945e+01        00000 
-2.88271e+00 -1.47777e+01        00000 
-2.51822e+00 -1.47629e+01        00000 
-2.15539e+00 -1.47500e+01        00000 
-1.79398e+00 -1.47391e+01        00000 
-1.43376e+00 -1.47302e+01        00000 
-1.07449e+00 -1.47233e+01        00000 
-7.15929e-01 -1.47183e+01        00000 
-3.57846e-01 -1.47154e+01        00000 
 2.33721e-12 -1.47144e+01        00000 
 3.57846e-01 -1.47154e+01        00000 
 7.15929e-01 -1.47183e+01        00000 
 1.07449e+00 -1.47233e+01        00000 
 1.43376e+00 -1.47302e+01        00000 
 1.79398e+00 -1.47391e+01        00000 
 2.15539e+00 -1.47500e+01        00000 
 2.51822e+00 -1.47629e+01        00000 
 2.88271e+00 -1.47777e+01        00000 
 3.24909e+00 -1.47945e+01        00000 
 3.61760e+00 -1.48133e+01        00000 
 3.98848e+00 -1.48341e+01        00000 
 4.36195e+00 -1.48569e+01        00000 
 4.73825e+00 -1.48817e+01        00000 
 5.11762e+00 -1.49084e+01        00000 
 5.50028e+00 -1.49372e+01        00000 
 5.88646e+00 -1.49679e+01        00000 
 6.27641e+00 -1.50006e+01        00000 
 6.67035e+00 -1.50353e+01        00000 
 7.06852e+00 -1.50720e+01        00000 
 7.47114e+00 -1.51107e+01        00000 
 7.87845e+00 -1.51514e+01        00000 
 8.29068e+00 -1.51940e+01        00000 
 8.70808e+00 -1.52387e+01        00000 
 9.13086e+00 -1.52853e+01        00000 
 9.55928e+00 -1.53339e+01        00000 
-9.65010e+00 -1.56948e+01        00000 
-9.21805e+00 -1.56471e+01        00000 
-8.79163e+00 -1.56013e+01        00000 
-8.37061e+00 -1.55575e+01        00000 
-7.95474e+00 -1.55156e+01        00000 
-7.54379e+00 -1.54757e+01        00000 
-7.13754e+00 -1.54377e+01        00000 
-6.73574e+00 -1.54017e+01        00000 
-6.33816e+00 -1.53676e+01        00000 
-5.94457e+00 -1.53355e+01        00000 
-5.55475e+00 -1.53053e+01        00000 
-5.16845e+00 -1.52771e+01        00000 
-4.78545e+00 -1.52509e+01        00000 
-4.40551e+00 -1.52266e+01        00000 
-4.02841e+00 -1.52042e+01        00000 
-3.65390e+00 -1.51838e+01        00000 
-3.28175e+00 -1.51654e+01        00000 
-2.91174e+00 -1.51488e+01        00000 
-2.54362e+00 -1.51343e+01        00000 
-2.17716e+00 -1.51217e+01        00000 
-1.81212e+00 -1.51110e+01        00000 
-1.44827e+00 -1.51023e+01        00000 
-1.08537e+00 -1.50955e+01        00000 
-7.23183e-01 -1.50906e+01        00000 
-3.61473e-01 -1.50877e+01        00000 
 2.36281e-12 -1.50868e+01        00000 
 3.61473e-01 -1.50877e+01        00000 
 7.23183e-01 -1.50906e+01        00000 
 1.08537e+00 -1.50955e+01        00000 
 1.44827e+00 -1.51023e+01        00000 
 1.81212e+00 -1.51110e+01        00000 
 2.17716e+00 -1.51217e+01        00000 
 2.54362e+00 -1.51343e+01        00000 
 2.91174e+00 -1.51488e+01        00000 
 3.28175e+00 -1.51654e+01        00000 
 3.65390e+00 -1.51838e+01        00000 
 4.02841e+00 -1.52042e+01        00000 
 4.40551e+00 -1.52266e+01        00000 
 4.78545e+00 -1.52509e+01        00000 
 5.16845e+00 -1.52771e+01        00000 
 5.55475e+00 -1.53053e+01        00000 
 5.94457e+00 -1.53355e+01        00000 
 6.33816e+00 -1.53676e+01        00000 
 6.73574e+00 -1.54017e+01        00000 
 7.13754e+00 -1.54377e+01        00000 
 7.54379e+00 -1.54757e+01        00000 
 7.95474e+00 -1.55156e+01        00000 
 8.37061e+00 -1.55575e+01        00000 
 8.79163e+00 -1.56013e+01        00000 
 9.21805e+00 -1.56471e+01        00000 
 9.65010e+00 -1.56948e+01        00000 
-9.73925e+00 -1.60587e+01        00000 
-9.30364e+00 -1.60119e+01        00000 
-8.87366e+00 -1.59670e+01        00000 
-8.44907e+00 -1.59240e+01        00000 
-8.02963e+00 -1.58829e+01        00000 
-7.61512e+00 -1.58437e+01        00000 
-7.20529e+00 -1.58064e+01        00000 
-6.79992e+00 -1.57710e+01        00000 
-6.39877e+00 -1.57376e+01        00000 
-6.00161e+00 -1.57061e+01        00000 
-5.60822e+00 -1.56765e+01        00000 
-5.21835e+00 -1.56488e+01        00000 
-4.83178e+00 -1.56231e+01        00000 
-4.44827e+00 -1.55992e+01        00000 
-4.06759e+00 -1.55773e+01        00000 
-3.68952e+00 -1.55573e+01        00000 
-3.31380e+00 -1.55392e+01        00000 
-2.94022e+00 -1.55230e+01        00000 
-2.56854e+00 -1.55087e+01        00000 
-2.19851e+00 -1.54964e+01        00000 
-1.82992e+00 -1.54859e+01        00000 
-1.46250e+00 -1.54773e+01        00000 
-1.09605e+00 -1.54707e+01        00000 
-7.30300e-01 -1.54659e+01        00000 
-3.65031e-01 -1.54631e+01        00000 
 2.39227e-12 -1.54621e+01        00000 
 3.65031e-01 -1.54631e+01        00000 
 7.30300e-01 -1.54659e+01        00000 
 1.09605e+00 -1.54707e+01        00000 
 1.46250e+00 -1.54773e+01        00000 
 1.82992e+00 -1.54859e+01        00000 
 2.19851e+00 -1.54964e+01        00000 
 2.56854e+00 -1.55087e+01        00000 
 2.94022e+00 -1.55230e+01        00000 
 3.31380e+00 -1.55392e+01        00000 
 3.68952e+00 -1.55573e+01        00000 
 4.06759e+00 -1.55773e+01        00000 
 4.44827e+00 -1.55992e+01        00000 
 4.83178e+00 -1.56231e+01        00000 
 5.21835e+00 -1.56488e+01        00000 
 5.60822e+00 -1.56765e+01        00000 
 6.00161e+00 -1.57061e+01        00000 
 6.39877e+00 -1.57376e+01        00000 
 6.79992e+00 -1.57710e+01        00000 
 7.20529e+00 -1.58064e+01        00000 
 7.61512e+00 -1.58437e+01        00000 
 8.02963e+00 -1.58829e+01        00000 
 8.44907e+00 -1.59240e+01        00000 
 8.87366e+00 -1.59670e+01        00000 
 9.30364e+00 -1.60119e+01        00000 
 9.73925e+00 -1.60587e+01        00000 
-9.82675e+00 -1.64257e+01        00000 
-9.38764e+00 -1.63797e+01        00000 
-8.95417e+00 -1.63356e+01        00000 
-8.52607e+00 -1.62934e+01        00000 
-8.10314e+00 -1.62531e+01        00000 
-7.68512e+00 -1.62146e+01        00000 
-7.27179e+00 -1.61781e+01        00000 
-6.86291e+00 -1.61434e+01        00000 
-6.45825e+00 -1.61106e+01        00000 
-6.05759e+00 -1.60797e+01        00000 
-5.66069e+00 -1.60506e+01        00000 
-5.26731e+00 -1.60235e+01        00000 
-4.87723e+00 -1.59982e+01        00000 
-4.49022e+00 -1.59749e+01        00000 
-4.10604e+00 -1.59534e+01        00000 
-3.72446e+00 -1.59338e+01        00000 
-3.34525e+00 -1.59160e+01        00000 
-2.96817e+00 -1.59002e+01        00000 
-2.59298e+00 -1.58862e+01        00000 
-2.21947e+00 -1.58740e+01        00000 
-1.84737e+00 -1.58638e+01        00000 
-1.47647e+00 -1.58554e+01        00000 
-1.10652e+00 -1.58489e+01        00000 
-7.37281e-01 -1.58442e+01        00000 
-3.68521e-01 -1.58414e+01        00000 
 2.41690e-12 -1.58405e+01        00000 
 3.68521e-01 -1.58414e+01        00000 
 7.37281e-01 -1.58442e+01        00000 
 1.10652e+00 -1.58489e+01        00000 
 1.47647e+00 -1.58554e+01        00000 
 1.84737e+00 -1.58638e+01        00000 
 2.21947e+00 -1.58740e+01        00000 
 2.59298e+00 -1.58862e+01        00000 
 2.96817e+00 -1.59002e+01        00000 
 3.34525e+00 -1.59160e+01        00000 
 3.72446e+00 -1.59338e+01        00000 
 4.10604e+00 -1.59534e+01        00000 
 4.49022e+00 -1.59749e+01        00000 
 4.87723e+00 -1.59982e+01        00000 
 5.26731e+00 -1.60235e+01        00000 
 5.66069e+00 -1.60506e+01        00000 
 6.05759e+00 -1.60797e+01        00000 
 6.45825e+00 -1.61106e+01        00000 
 6.86291e+00 -1.61434e+01        00000 
 7.27179e+00 -1.61781e+01        00000 
 7.68512e+00 -1.62146e+01        00000 
 8.10314e+00 -1.62531e+01        00000 
 8.52607e+00 -1.62934e+01        00000 
 8.95417e+00 -1.63356e+01        00000 
 9.38764e+00 -1.63797e+01        00000 
 9.82675e+00 -1.64257e+01        00000 
-9.91258e+00 -1.67954e+01        00000 
-9.47005e+00 -1.67503e+01        00000 
-9.03314e+00 -1.67071e+01        00000 
-8.60161e+00 -1.66657e+01        00000 
-8.17524e+00 -1.66261e+01        00000 
-7.75378e+00 -1.65884e+01        00000 
-7.33701e+00 -1.65526e+01        00000 
-6.92469e+00 -1.65186e+01        00000 
-6.51660e+00 -1.64864e+01        00000 
-6.11249e+00 -1.64561e+01        00000 
-5.71214e+00 -1.64276e+01        00000 
-5.31533e+00 -1.64010e+01        00000 
-4.92181e+00 -1.63763e+01        00000 
-4.53135e+00 -1.63534e+01        00000 
-4.14374e+00 -1.63323e+01        00000 
-3.75872e+00 -1.63131e+01        00000 
-3.37607e+00 -1.62957e+01        00000 
-2.99556e+00 -1.62801e+01        00000 
-2.61695e+00 -1.62664e+01        00000 
-2.24000e+00 -1.62546e+01        00000 
-1.86448e+00 -1.62445e+01        00000 
-1.49016e+00 -1.62363e+01        00000 
-1.11678e+00 -1.62299e+01        00000 
-7.44123e-01 -1.62254e+01        00000 
-3.71942e-01 -1.62226e+01        00000 
 2.43966e-12 -1.62217e+01        00000 
 3.71942e-01 -1.62226e+01        00000 
 7.44123e-01 -1.62254e+01        00000 
 1.11678e+00 -1.62299e+01        00000 
 1.49016e+00 -1.62363e+01        00000 
 1.86448e+00 -1.62445e+01        00000 
 2.24000e+00 -1.62546e+01        00000 
 2.61695e+00 -1.62664e+01        00000 
 2.99556e+00 -1.62801e+01        00000 
 3.37607e+00 -1.62957e+01        00000 
 3.75872e+00 -1.63131e+01        00000 
 4.14374e+00 -1.63323e+01        00000 
 4.53135e+00 -1.63534e+01        00000 