<?xml version="1.0" encoding="utf-8"?>
<VTKFile byte_order="LittleEndian" type="UnstructuredGrid" version="0.1">
   <UnstructuredGrid>
      <Piece NumberOfCells="4000" NumberOfPoints="2071">
         <Points>
            <DataArray Name="Points" NumberOfComponents="3" format="ascii" type="Float32">
0.6707 0.0000 0.0000
0.6707 0.0100 0.0000
0.6707 0.0200 0.0000
0.6707 0.0300 0.0000
0.6707 0.0400 0.0000
0.6707 0.0500 0.0000
0.6707 0.0600 0.0000
0.6707 0.0700 0.0000
0.6707 0.0800 0.0000
0.6707 0.0900 0.0000
0.6707 0.1000 0.0000
0.6707 0.1100 0.0000
0.6707 0.1200 0.0000
0.6707 0.1300 0.0000
0.6707 0.1400 0.0000
0.6707 0.1500 0.0000
0.6707 0.1600 0.0000
0.6707 0.1700 0.0000
0.6707 0.1800 0.0000
0.6707 0.1900 0.0000
0.6707 0.2000 0.0000
0.6707 0.2100 0.0000
0.6707 0.2200 0.0000
0.6707 0.2300 0.0000
0.6707 0.2400 0.0000
0.6707 0.2500 0.0000
0.6707 0.2600 0.0000
0.6707 0.2700 0.0000
0.6707 0.2800 0.0000
0.6707 0.2900 0.0000
0.6707 0.3000 0.0000
0.6707 0.3100 0.0000
0.6707 0.3200 0.0000
0.6707 0.3300 0.0000
0.6707 0.3400 0.0000
0.6707 0.3500 0.0000
0.6707 0.3600 0.0000
0.6707 0.3700 0.0000
0.6707 0.3800 0.0000
0.6707 0.3900 0.0000
0.6707 0.4000 0.0000
0.6707 0.4100 0.0000
0.6707 0.4200 0.0000
0.6707 0.4300 0.0000
0.6707 0.4400 0.0000
0.6707 0.4500 0.0000
0.6707 0.4600 0.0000
0.6707 0.4700 0.0000
0.6707 0.4800 0.0000
0.6707 0.4900 0.0000
0.6707 0.5000 0.0000
0.6790 0.0000 0.0000
0.6790 0.0100 0.0000
0.6790 0.0200 0.0000
0.6790 0.0300 0.0000
0.6790 0.0400 0.0000
0.6790 0.0500 0.0000
0.6790 0.0600 0.0000
0.6790 0.0700 0.0000
0.6790 0.0800 0.0000
0.6790 0.0900 0.0000
0.6790 0.1000 0.0000
0.6790 0.1100 0.0000
0.6790 0.1200 0.0000
0.6790 0.1300 0.0000
0.6790 0.1400 0.0000
0.6790 0.1500 0.0000
0.6790 0.1600 0.0000
0.6790 0.1700 0.0000
0.6790 0.1800 0.0000
0.6790 0.1900 0.0000
0.6790 0.2000 0.0000
0.6790 0.2100 0.0000
0.6790 0.2200 0.0000
0.6790 0.2300 0.0000
0.6790 0.2400 0.0000
0.6790 0.2500 0.0000
0.6790 0.2600 0.0000
0.6790 0.2700 0.0000
0.6790 0.2800 0.0000
0.6790 0.2900 0.0000
0.6790 0.3000 0.0000
0.6790 0.3100 0.0000
0.6790 0.3200 0.0000
0.6790 0.3300 0.0000
0.6790 0.3400 0.0000
0.6790 0.3500 0.0000
0.6790 0.3600 0.0000
0.6790 0.3700 0.0000
0.6790 0.3800 0.0000
0.6790 0.3900 0.0000
0.6790 0.4000 0.0000
0.6790 0.4100 0.0000
0.6790 0.4200 0.0000
0.6790 0.4300 0.0000
0.6790 0.4400 0.0000
0.6790 0.4500 0.0000
0.6790 0.4600 0.0000
0.6790 0.4700 0.0000
0.6790 0.4800 0.0000
0.6790 0.4900 0.0000
0.6790 0.5000 0.0000
0.6873 0.0000 0.0000
0.6873 0.0100 0.0000
0.6873 0.0200 0.0000
0.6873 0.0300 0.0000
0.6873 0.0400 0.0000
0.6873 0.0500 0.0000
0.6873 0.0600 0.0000
0.6873 0.0700 0.0000
0.6873 0.0800 0.0000
0.6873 0.0900 0.0000
0.6873 0.1000 0.0000
0.6873 0.1100 0.0000
0.6873 0.1200 0.0000
0.6873 0.1300 0.0000
0.6873 0.1400 0.0000
0.6873 0.1500 0.0000
0.6873 0.1600 0.0000
0.6873 0.1700 0.0000
0.6873 0.1800 0.0000
0.6873 0.1900 0.0000
0.6873 0.2000 0.0000
0.6873 0.2100 0.0000
0.6873 0.2200 0.0000
0.6873 0.2300 0.0000
0.6873 0.2400 0.0000
0.6873 0.2500 0.0000
0.6873 0.2600 0.0000
0.6873 0.2700 0.0000
0.6873 0.2800 0.0000
0.6873 0.2900 0.0000
0.6873 0.3000 0.0000
0.6873 0.3100 0.0000
0.6873 0.3200 0.0000
0.6873 0.3300 0.0000
0.6873 0.3400 0.0000
0.6873 0.3500 0.0000
0.6873 0.3600 0.0000
0.6873 0.3700 0.0000
0.6873 0.3800 0.0000
0.6873 0.3900 0.0000
0.6873 0.4000 0.0000
0.6873 0.4100 0.0000
0.6873 0.4200 0.0000
0.6873 0.4300 0.0000
0.6873 0.4400 0.0000
0.6873 0.4500 0.0000
0.6873 0.4600 0.0000
0.6873 0.4700 0.0000
0.6873 0.4800 0.0000
0.6873 0.4900 0.0000
0.6873 0.5000 0.0000
0.6957 0.0000 0.0000
0.6957 0.0100 0.0000
0.6957 0.0200 0.0000
0.6957 0.0300 0.0000
0.6957 0.0400 0.0000
0.6957 0.0500 0.0000
0.6957 0.0600 0.0000
0.6957 0.0700 0.0000
0.6957 0.0800 0.0000
0.6957 0.0900 0.0000
0.6957 0.1000 0.0000
0.6957 0.1100 0.0000
0.6957 0.1200 0.0000
0.6957 0.1300 0.0000
0.6957 0.1400 0.0000
0.6957 0.1500 0.0000
0.6957 0.1600 0.0000
0.6957 0.1700 0.0000
0.6957 0.1800 0.0000
0.6957 0.1900 0.0000
0.6957 0.2000 0.0000
0.6957 0.2100 0.0000
0.6957 0.2200 0.0000
0.6957 0.2300 0.0000
0.6957 0.2400 0.0000
0.6957 0.2500 0.0000
0.6957 0.2600 0.0000
0.6957 0.2700 0.0000
0.6957 0.2800 0.0000
0.6957 0.2900 0.0000
0.6957 0.3000 0.0000
0.6957 0.3100 0.0000
0.6957 0.3200 0.0000
0.6957 0.3300 0.0000
0.6957 0.3400 0.0000
0.6957 0.3500 0.0000
0.6957 0.3600 0.0000
0.6957 0.3700 0.0000
0.6957 0.3800 0.0000
0.6957 0.3900 0.0000
0.6957 0.4000 0.0000
0.6957 0.4100 0.0000
0.6957 0.4200 0.0000
0.6957 0.4300 0.0000
0.6957 0.4400 0.0000
0.6957 0.4500 0.0000
0.6957 0.4600 0.0000
0.6957 0.4700 0.0000
0.6957 0.4800 0.0000
0.6957 0.4900 0.0000
0.6957 0.5000 0.0000
0.7040 0.0000 0.0000
0.7040 0.0100 0.0000
0.7040 0.0200 0.0000
0.7040 0.0300 0.0000
0.7040 0.0400 0.0000
0.7040 0.0500 0.0000
0.7040 0.0600 0.0000
0.7040 0.0700 0.0000
0.7040 0.0800 0.0000
0.7040 0.0900 0.0000
0.7040 0.1000 0.0000
0.7040 0.1100 0.0000
0.7040 0.1200 0.0000
0.7040 0.1300 0.0000
0.7040 0.1400 0.0000
0.7040 0.1500 0.0000
0.7040 0.1600 0.0000
0.7040 0.1700 0.0000
0.7040 0.1800 0.0000
0.7040 0.1900 0.0000
0.7040 0.2000 0.0000
0.7040 0.2100 0.0000
0.7040 0.2200 0.0000
0.7040 0.2300 0.0000
0.7040 0.2400 0.0000
0.7040 0.2500 0.0000
0.7040 0.2600 0.0000
0.7040 0.2700 0.0000
0.7040 0.2800 0.0000
0.7040 0.2900 0.0000
0.7040 0.3000 0.0000
0.7040 0.3100 0.0000
0.7040 0.3200 0.0000
0.7040 0.3300 0.0000
0.7040 0.3400 0.0000
0.7040 0.3500 0.0000
0.7040 0.3600 0.0000
0.7040 0.3700 0.0000
0.7040 0.3800 0.0000
0.7040 0.3900 0.0000
0.7040 0.4000 0.0000
0.7040 0.4100 0.0000
0.7040 0.4200 0.0000
0.7040 0.4300 0.0000
0.7040 0.4400 0.0000
0.7040 0.4500 0.0000
0.7040 0.4600 0.0000
0.7040 0.4700 0.0000
0.7040 0.4800 0.0000
0.7040 0.4900 0.0000
0.7040 0.5000 0.0000
0.7123 0.0000 0.0000
0.7123 0.0100 0.0000
0.7123 0.0200 0.0000
0.7123 0.0300 0.0000
0.7123 0.0400 0.0000
0.7123 0.0500 0.0000
0.7123 0.0600 0.0000
0.7123 0.0700 0.0000
0.7123 0.0800 0.0000
0.7123 0.0900 0.0000
0.7123 0.1000 0.0000
0.7123 0.1100 0.0000
0.7123 0.1200 0.0000
0.7123 0.1300 0.0000
0.7123 0.1400 0.0000
0.7123 0.1500 0.0000
0.7123 0.1600 0.0000
0.7123 0.1700 0.0000
0.7123 0.1800 0.0000
0.7123 0.1900 0.0000
0.7123 0.2000 0.0000
0.7123 0.2100 0.0000
0.7123 0.2200 0.0000
0.7123 0.2300 0.0000
0.7123 0.2400 0.0000
0.7123 0.2500 0.0000
0.7123 0.2600 0.0000
0.7123 0.2700 0.0000
0.7123 0.2800 0.0000
0.7123 0.2900 0.0000
0.7123 0.3000 0.0000
0.7123 0.3100 0.0000
0.7123 0.3200 0.0000
0.7123 0.3300 0.0000
0.7123 0.3400 0.0000
0.7123 0.3500 0.0000
0.7123 0.3600 0.0000
0.7123 0.3700 0.0000
0.7123 0.3800 0.0000
0.7123 0.3900 0.0000
0.7123 0.4000 0.0000
0.7123 0.4100 0.0000
0.7123 0.4200 0.0000
0.7123 0.4300 0.0000
0.7123 0.4400 0.0000
0.7123 0.4500 0.0000
0.7123 0.4600 0.0000
0.7123 0.4700 0.0000
0.7123 0.4800 0.0000
0.7123 0.4900 0.0000
0.7123 0.5000 0.0000
0.7207 0.0000 0.0000
0.7207 0.0100 0.0000
0.7207 0.0200 0.0000
0.7207 0.0300 0.0000
0.7207 0.0400 0.0000
0.7207 0.0500 0.0000
0.7207 0.0600 0.0000
0.7207 0.0700 0.0000
0.7207 0.0800 0.0000
0.7207 0.0900 0.0000
0.7207 0.1000 0.0000
0.7207 0.1100 0.0000
0.7207 0.1200 0.0000
0.7207 0.1300 0.0000
0.7207 0.1400 0.0000
0.7207 0.1500 0.0000
0.7207 0.1600 0.0000
0.7207 0.1700 0.0000
0.7207 0.1800 0.0000
0.7207 0.1900 0.0000
0.7207 0.2000 0.0000
0.7207 0.2100 0.0000
0.7207 0.2200 0.0000
0.7207 0.2300 0.0000
0.7207 0.2400 0.0000
0.7207 0.2500 0.0000
0.7207 0.2600 0.0000
0.7207 0.2700 0.0000
0.7207 0.2800 0.0000
0.7207 0.2900 0.0000
0.7207 0.3000 0.0000
0.7207 0.3100 0.0000
0.7207 0.3200 0.0000
0.7207 0.3300 0.0000
0.7207 0.3400 0.0000
0.7207 0.3500 0.0000
0.7207 0.3600 0.0000
0.7207 0.3700 0.0000
0.7207 0.3800 0.0000
0.7207 0.3900 0.0000
0.7207 0.4000 0.0000
0.7207 0.4100 0.0000
0.7207 0.4200 0.0000
0.7207 0.4300 0.0000
0.7207 0.4400 0.0000
0.7207 0.4500 0.0000
0.7207 0.4600 0.0000
0.7207 0.4700 0.0000
0.7207 0.4800 0.0000
0.7207 0.4900 0.0000
0.7207 0.5000 0.0000
0.7290 0.0000 0.0000
0.7290 0.0100 0.0000
0.7290 0.0200 0.0000
0.7290 0.0300 0.0000
0.7290 0.0400 0.0000
0.7290 0.0500 0.0000
0.7290 0.0600 0.0000
0.7290 0.0700 0.0000
0.7290 0.0800 0.0000
0.7290 0.0900 0.0000
0.7290 0.1000 0.0000
0.7290 0.1100 0.0000
0.7290 0.1200 0.0000
0.7290 0.1300 0.0000
0.7290 0.1400 0.0000
0.7290 0.1500 0.0000
0.7290 0.1600 0.0000
0.7290 0.1700 0.0000
0.7290 0.1800 0.0000
0.7290 0.1900 0.0000
0.7290 0.2000 0.0000
0.7290 0.2100 0.0000
0.7290 0.2200 0.0000
0.7290 0.2300 0.0000
0.7290 0.2400 0.0000
0.7290 0.2500 0.0000
0.7290 0.2600 0.0000
0.7290 0.2700 0.0000
0.7290 0.2800 0.0000
0.7290 0.2900 0.0000
0.7290 0.3000 0.0000
0.7290 0.3100 0.0000
0.7290 0.3200 0.0000
0.7290 0.3300 0.0000
0.7290 0.3400 0.0000
0.7290 0.3500 0.0000
0.7290 0.3600 0.0000
0.7290 0.3700 0.0000
0.7290 0.3800 0.0000
0.7290 0.3900 0.0000
0.7290 0.4000 0.0000
0.7290 0.4100 0.0000
0.7290 0.4200 0.0000
0.7290 0.4300 0.0000
0.7290 0.4400 0.0000
0.7290 0.4500 0.0000
0.7290 0.4600 0.0000
0.7290 0.4700 0.0000
0.7290 0.4800 0.0000
0.7290 0.4900 0.0000
0.7290 0.5000 0.0000
0.7373 0.0000 0.0000
0.7373 0.0100 0.0000
0.7373 0.0200 0.0000
0.7373 0.0300 0.0000
0.7373 0.0400 0.0000
0.7373 0.0500 0.0000
0.7373 0.0600 0.0000
0.7373 0.0700 0.0000
0.7373 0.0800 0.0000
0.7373 0.0900 0.0000
0.7373 0.1000 0.0000
0.7373 0.1100 0.0000
0.7373 0.1200 0.0000
0.7373 0.1300 0.0000
0.7373 0.1400 0.0000
0.7373 0.1500 0.0000
0.7373 0.1600 0.0000
0.7373 0.1700 0.0000
0.7373 0.1800 0.0000
0.7373 0.1900 0.0000
0.7373 0.2000 0.0000
0.7373 0.2100 0.0000
0.7373 0.2200 0.0000
0.7373 0.2300 0.0000
0.7373 0.2400 0.0000
0.7373 0.2500 0.0000
0.7373 0.2600 0.0000
0.7373 0.2700 0.0000
0.7373 0.2800 0.0000
0.7373 0.2900 0.0000
0.7373 0.3000 0.0000
0.7373 0.3100 0.0000
0.7373 0.3200 0.0000
0.7373 0.3300 0.0000
0.7373 0.3400 0.0000
0.7373 0.3500 0.0000
0.7373 0.3600 0.0000
0.7373 0.3700 0.0000
0.7373 0.3800 0.0000
0.7373 0.3900 0.0000
0.7373 0.4000 0.0000
0.7373 0.4100 0.0000
0.7373 0.4200 0.0000
0.7373 0.4300 0.0000
0.7373 0.4400 0.0000
0.7373 0.4500 0.0000
0.7373 0.4600 0.0000
0.7373 0.4700 0.0000
0.7373 0.4800 0.0000
0.7373 0.4900 0.0000
0.7373 0.5000 0.0000
0.7457 0.0000 0.0000
0.7457 0.0100 0.0000
[...]
         <PointData>
            <DataArray Name="fValues" NumberOfComponents="3" format="ascii" type="Float64">
-1.07476e+01 -2.10371e+01        00000 
-1.02717e+01 -2.10017e+01        00000 
-9.80143e+00 -2.09677e+01        00000 
-9.33644e+00 -2.09351e+01        00000 
-8.87652e+00 -2.09041e+01        00000 
-8.42146e+00 -2.08745e+01        00000 
-7.97105e+00 -2.08464e+01        00000 
-7.52505e+00 -2.08198e+01        00000 
-7.08327e+00 -2.07947e+01        00000 
-6.64548e+00 -2.07711e+01        00000 
-6.21146e+00 -2.07491e+01        00000 
-5.78100e+00 -2.07284e+01        00000 
-5.35388e+00 -2.07093e+01        00000 
-4.92987e+00 -2.06917e+01        00000 
-4.50875e+00 -2.06755e+01        00000 
-4.09029e+00 -2.06608e+01        00000 
-3.67426e+00 -2.06475e+01        00000 
-3.26042e+00 -2.06357e+01        00000 
-2.84855e+00 -2.06252e+01        00000 
-2.43840e+00 -2.06162e+01        00000 
-2.02973e+00 -2.06086e+01        00000 
-1.62229e+00 -2.06024e+01        00000 
-1.21585e+00 -2.05976e+01        00000 
-8.10151e-01 -2.05941e+01        00000 
-4.04951e-01 -2.05921e+01        00000 
 3.69979e-12 -2.05914e+01        00000 
 4.04951e-01 -2.05921e+01        00000 
 8.10151e-01 -2.05941e+01        00000 
 1.21585e+00 -2.05976e+01        00000 
 1.62229e+00 -2.06024e+01        00000 
 2.02973e+00 -2.06086e+01        00000 
 2.43840e+00 -2.06162e+01        00000 
 2.84855e+00 -2.06252e+01        00000 
 3.26042e+00 -2.06357e+01        00000 
 3.67426e+00 -2.06475e+01        00000 
 4.09029e+00 -2.06608e+01        00000 
 4.50875e+00 -2.06755e+01        00000 
 4.92987e+00 -2.06917e+01        00000 
 5.35388e+00 -2.07093e+01        00000 
 5.78100e+00 -2.07284e+01        00000 
 6.21146e+00 -2.07491e+01        00000 
 6.64548e+00 -2.07711e+01        00000 
 7.08327e+00 -2.07947e+01        00000 
 7.52505e+00 -2.08198e+01        00000 
 7.97105e+00 -2.08464e+01        00000 
 8.42146e+00 -2.08745e+01        00000 
 8.87652e+00 -2.09041e+01        00000 
 9.33644e+00 -2.09351e+01        00000 
 9.80143e+00 -2.09677e+01        00000 
 1.02717e+01 -2.10017e+01        00000 
 1.07476e+01 -2.10371e+01        00000 
-1.08136e+01 -2.14371e+01        00000 
-1.03351e+01 -2.14025e+01        00000 
-9.86220e+00 -2.13693e+01        00000 
-9.39454e+00 -2.13376e+01        00000 
-8.93195e+00 -2.13073e+01        00000 
-8.47421e+00 -2.12785e+01        00000 
-8.02110e+00 -2.12511e+01        00000 
-7.57241e+00 -2.12252e+01        00000 
-7.12793e+00 -2.12007e+01        00000 
-6.68745e+00 -2.11778e+01        00000 
-6.25074e+00 -2.11563e+01        00000 
-5.81760e+00 -2.11363e+01        00000 
-5.38780e+00 -2.11177e+01        00000 
-4.96112e+00 -2.11005e+01        00000 
-4.53734e+00 -2.10848e+01        00000 
-4.11624e+00 -2.10705e+01        00000 
-3.69757e+00 -2.10576e+01        00000 
-3.28112e+00 -2.10461e+01        00000 
-2.86663e+00 -2.10360e+01        00000 
-2.45387e+00 -2.10273e+01        00000 
-2.04261e+00 -2.10199e+01        00000 
-1.63259e+00 -2.10139e+01        00000 
-1.22356e+00 -2.10092e+01        00000 
-8.15292e-01 -2.10059e+01        00000 
-4.07521e-01 -2.10039e+01        00000 
 3.73406e-12 -2.10032e+01        00000 
 4.07521e-01 -2.10039e+01        00000 
 8.15292e-01 -2.10059e+01        00000 
 1.22356e+00 -2.10092e+01        00000 
 1.63259e+00 -2.10139e+01        00000 
 2.04261e+00 -2.10199e+01        00000 
 2.45387e+00 -2.10273e+01        00000 
 2.86663e+00 -2.10360e+01        00000 
 3.28112e+00 -2.10461e+01        00000 
 3.69757e+00 -2.10576e+01        00000 
 4.11624e+00 -2.10705e+01        00000 
 4.53734e+00 -2.10848e+01        00000 
 4.96112e+00 -2.11005e+01        00000 
 5.38780e+00 -2.11177e+01        00000 
 5.81760e+00 -2.11363e+01        00000 
 6.25074e+00 -2.11563e+01        00000 
 6.68745e+00 -2.11778e+01        00000 
 7.12793e+00 -2.12007e+01        00000 
 7.57241e+00 -2.12252e+01        00000 
 8.02110e+00 -2.12511e+01        00000 
 8.47421e+00 -2.12785e+01        00000 
 8.93195e+00 -2.13073e+01        00000 
 9.39454e+00 -2.13376e+01        00000 
 9.86220e+00 -2.13693e+01        00000 
 1.03351e+01 -2.14025e+01        00000 
 1.08136e+01 -2.14371e+01        00000 
-1.08780e+01 -2.18392e+01        00000 
-1.03970e+01 -2.18055e+01        00000 
-9.92146e+00 -2.17732e+01        00000 
-9.45120e+00 -2.17422e+01        00000 
-8.98600e+00 -2.17127e+01        00000 
-8.52563e+00 -2.16846e+01        00000 
-8.06989e+00 -2.16579e+01        00000 
-7.61857e+00 -2.16327e+01        00000 
-7.17145e+00 -2.16089e+01        00000 
-6.72833e+00 -2.15866e+01        00000 
-6.28899e+00 -2.15657e+01        00000 
-5.85322e+00 -2.15462e+01        00000 
-5.42081e+00 -2.15282e+01        00000 
-4.99153e+00 -2.15115e+01        00000 
-4.56516e+00 -2.14963e+01        00000 
-4.14147e+00 -2.14824e+01        00000 
-3.72024e+00 -2.14699e+01        00000 
-3.30123e+00 -2.14588e+01        00000 
-2.88420e+00 -2.14490e+01        00000 
-2.46891e+00 -2.14406e+01        00000 
-2.05512e+00 -2.14334e+01        00000 
-1.64259e+00 -2.14276e+01        00000 
-1.23106e+00 -2.14231e+01        00000 
-8.20284e-01 -2.14198e+01        00000 
-4.10016e-01 -2.14179e+01        00000 
 3.76693e-12 -2.14173e+01        00000 
 4.10016e-01 -2.14179e+01        00000 
 8.20284e-01 -2.14198e+01        00000 
 1.23106e+00 -2.14231e+01        00000 
 1.64259e+00 -2.14276e+01        00000 
 2.05512e+00 -2.14334e+01        00000 
 2.46891e+00 -2.14406e+01        00000 
 2.88420e+00 -2.14490e+01        00000 
 3.30123e+00 -2.14588e+01        00000 
 3.72024e+00 -2.14699e+01        00000 
 4.14147e+00 -2.14824e+01        00000 
 4.56516e+00 -2.14963e+01        00000 
 4.99153e+00 -2.15115e+01        00000 
 5.42081e+00 -2.15282e+01        00000 
 5.85322e+00 -2.15462e+01        00000 
 6.28899e+00 -2.15657e+01        00000 
 6.72833e+00 -2.15866e+01        00000 
 7.17145e+00 -2.16089e+01        00000 
 7.61857e+00 -2.16327e+01        00000 
 8.06989e+00 -2.16579e+01        00000 
 8.52563e+00 -2.16846e+01        00000 
 8.98600e+00 -2.17127e+01        00000 
 9.45120e+00 -2.17422e+01        00000 
 9.92146e+00 -2.17732e+01        00000 
 1.03970e+01 -2.18055e+01        00000 
 1.08780e+01 -2.18392e+01        00000 
-1.09408e+01 -2.22435e+01        00000 
-1.04573e+01 -2.22107e+01        00000 
-9.97924e+00 -2.21791e+01        00000 
-9.50644e+00 -2.21490e+01        00000 
-9.03868e+00 -2.21202e+01        00000 
-8.57574e+00 -2.20929e+01        00000 
-8.11742e+00 -2.20669e+01        00000 
-7.66352e+00 -2.20424e+01        00000 
-7.21382e+00 -2.20192e+01        00000 
-6.76812e+00 -2.19975e+01        00000 
-6.32621e+00 -2.19772e+01        00000 
-5.88788e+00 -2.19583e+01        00000 
-5.45291e+00 -2.19408e+01        00000 
-5.02109e+00 -2.19247e+01        00000 
-4.59219e+00 -2.19099e+01        00000 
-4.16599e+00 -2.18965e+01        00000 
-3.74225e+00 -2.18844e+01        00000 
-3.32075e+00 -2.18736e+01        00000 
-2.90125e+00 -2.18642e+01        00000 
-2.48350e+00 -2.18560e+01        00000 
-2.06726e+00 -2.18491e+01        00000 
-1.65229e+00 -2.18435e+01        00000 
-1.23833e+00 -2.18391e+01        00000 
-8.25127e-01 -2.18360e+01        00000 
-4.12436e-01 -2.18341e+01        00000 
 3.79929e-12 -2.18335e+01        00000 
 4.12436e-01 -2.18341e+01        00000 
 8.25127e-01 -2.18360e+01        00000 
 1.23833e+00 -2.18391e+01        00000 
 1.65229e+00 -2.18435e+01        00000 
 2.06726e+00 -2.18491e+01        00000 
 2.48350e+00 -2.18560e+01        00000 
 2.90125e+00 -2.18642e+01        00000 
 3.32075e+00 -2.18736e+01        00000 
 3.74225e+00 -2.18844e+01        00000 
 4.16599e+00 -2.18965e+01        00000 
 4.59219e+00 -2.19099e+01        00000 
 5.02109e+00 -2.19247e+01        00000 
 5.45291e+00 -2.19408e+01        00000 
 5.88788e+00 -2.19583e+01        00000 
 6.32621e+00 -2.19772e+01        00000 
 6.76812e+00 -2.19975e+01        00000 
 7.21382e+00 -2.20192e+01        00000 
 7.66352e+00 -2.20424e+01        00000 
 8.11742e+00 -2.20669e+01        00000 
 8.57574e+00 -2.20929e+01        00000 
 9.03868e+00 -2.21202e+01        00000 
 9.50644e+00 -2.21490e+01        00000 
 9.97924e+00 -2.21791e+01        00000 
 1.04573e+01 -2.22107e+01        00000 
 1.09408e+01 -2.22435e+01        00000 
-1.10020e+01 -2.26498e+01        00000 
-1.05160e+01 -2.26178e+01        00000 
-1.00355e+01 -2.25871e+01        00000 
-9.56024e+00 -2.25577e+01        00000 
-9.08997e+00 -2.25297e+01        00000 
-8.62452e+00 -2.25031e+01        00000 
-8.16368e+00 -2.24779e+01        00000 
-7.70725e+00 -2.24540e+01        00000 
-7.25503e+00 -2.24316e+01        00000 
-6.80681e+00 -2.24105e+01        00000 
-6.36238e+00 -2.23908e+01        00000 
-5.92155e+00 -2.23725e+01        00000 
-5.48409e+00 -2.23555e+01        00000 
-5.04978e+00 -2.23399e+01        00000 
-4.61842e+00 -2.23256e+01        00000 
-4.18977e+00 -2.23126e+01        00000 
-3.76361e+00 -2.23009e+01        00000 
-3.33969e+00 -2.22905e+01        00000 
-2.91778e+00 -2.22814e+01        00000 
-2.49765e+00 -2.22735e+01        00000 
-2.07903e+00 -2.22669e+01        00000 
-1.66169e+00 -2.22614e+01        00000 
-1.24537e+00 -2.22572e+01        00000 
-8.29818e-01 -2.22542e+01        00000 
-4.14781e-01 -2.22524e+01        00000 
 3.83214e-12 -2.22518e+01        00000 
 4.14781e-01 -2.22524e+01        00000 
 8.29818e-01 -2.22542e+01        00000 
 1.24537e+00 -2.22572e+01        00000 
 1.66169e+00 -2.22614e+01        00000 
 2.07903e+00 -2.22669e+01        00000 
 2.49765e+00 -2.22735e+01        00000 
 2.91778e+00 -2.22814e+01        00000 
 3.33969e+00 -2.22905e+01        00000 
 3.76361e+00 -2.23009e+01        00000 
 4.18977e+00 -2.23126e+01        00000 
 4.61842e+00 -2.23256e+01        00000 
 5.04978e+00 -2.23399e+01        00000 
 5.48409e+00 -2.23555e+01        00000 
 5.92155e+00 -2.23725e+01        00000 
 6.36238e+00 -2.23908e+01        00000 
 6.80681e+00 -2.24105e+01        00000 
 7.25503e+00 -2.24316e+01        00000 
 7.70725e+00 -2.24540e+01        00000 
 8.16368e+00 -2.24779e+01        00000 
 8.62452e+00 -2.25031e+01        00000 
 9.08997e+00 -2.25297e+01        00000 
 9.56024e+00 -2.25577e+01        00000 
 1.00355e+01 -2.25871e+01        00000 
 1.05160e+01 -2.26178e+01        00000 
 1.10020e+01 -2.26498e+01        00000 
-1.10616e+01 -2.30581e+01        00000 
-1.05732e+01 -2.30269e+01        00000 
-1.00903e+01 -2.29970e+01        00000 
-9.61261e+00 -2.29685e+01        00000 
-9.13990e+00 -2.29412e+01        00000 
-8.67199e+00 -2.29153e+01        00000 
-8.20868e+00 -2.28908e+01        00000 
-7.74978e+00 -2.28677e+01        00000 
-7.29509e+00 -2.28459e+01        00000 
-6.84440e+00 -2.28254e+01        00000 
-6.39752e+00 -2.28063e+01        00000 
-5.95423e+00 -2.27886e+01        00000 
-5.51434e+00 -2.27722e+01        00000 
-5.07762e+00 -2.27571e+01        00000 
-4.64386e+00 -2.27433e+01        00000 
-4.21283e+00 -2.27308e+01        00000 
-3.78429e+00 -2.27195e+01        00000 
-3.35803e+00 -2.27095e+01        00000 
-2.93379e+00 -2.27006e+01        00000 
-2.51134e+00 -2.26931e+01        00000 
-2.09042e+00 -2.26867e+01        00000 
-1.67078e+00 -2.26814e+01        00000 
-1.25218e+00 -2.26774e+01        00000 
-8.34356e-01 -2.26745e+01        00000 
-4.17048e-01 -2.26728e+01        00000 
 3.85931e-12 -2.26722e+01        00000 
 4.17048e-01 -2.26728e+01        00000 
 8.34356e-01 -2.26745e+01        00000 
 1.25218e+00 -2.26774e+01        00000 
 1.67078e+00 -2.26814e+01        00000 
 2.09042e+00 -2.26867e+01        00000 
 2.51134e+00 -2.26931e+01        00000 
 2.93379e+00 -2.27006e+01        00000 
 3.35803e+00 -2.27095e+01        00000 
 3.78429e+00 -2.27195e+01        00000 
 4.21283e+00 -2.27308e+01        00000 
 4.64386e+00 -2.27433e+01        00000 
 5.07762e+00 -2.27571e+01        00000 
 5.51434e+00 -2.27722e+01        00000 
 5.95423e+00 -2.27886e+01        00000 
 6.39752e+00 -2.28063e+01        00000 
 6.84440e+00 -2.28254e+01        00000 
 7.29509e+00 -2.28459e+01        00000 
 7.74978e+00 -2.28677e+01        00000 
 8.20868e+00 -2.28908e+01        00000 
 8.67199e+00 -2.29153e+01        00000 
 9.13990e+00 -2.29412e+01        00000 
 9.61261e+00 -2.29685e+01        00000 
 1.00903e+01 -2.29970e+01        00000 
 1.05732e+01 -2.30269e+01        00000 
 1.10616e+01 -2.30581e+01        00000 
-1.11196e+01 -2.34684e+01        00000 
-1.06289e+01 -2.34380e+01        00000 
-1.01436e+01 -2.34090e+01        00000 
-9.66356e+00 -2.33812e+01        00000 
-9.18846e+00 -2.33547e+01        00000 
-8.71815e+00 -2.33296e+01        00000 
-8.25242e+00 -2.33057e+01        00000 
-7.79110e+00 -2.32833e+01        00000 
-7.33399e+00 -2.32621e+01        00000 
-6.88089e+00 -2.32424e+01        00000 
-6.43160e+00 -2.32239e+01        00000 
-5.98593e+00 -2.32067e+01        00000 
-5.54367e+00 -2.31909e+01        00000 
-5.10459e+00 -2.31763e+01        00000 
-4.66849e+00 -2.31630e+01        00000 
-4.23514e+00 -2.31509e+01        00000 
-3.80431e+00 -2.31401e+01        00000 
-3.37577e+00 -2.31304e+01        00000 
-2.94927e+00 -2.31219e+01        00000 
-2.52457e+00 -2.31146e+01        00000 
-2.10142e+00 -2.31085e+01        00000 
-1.67957e+00 -2.31035e+01        00000 
-1.25876e+00 -2.30996e+01        00000 
-8.38740e-01 -2.30968e+01        00000 
-4.19239e-01 -2.30952e+01        00000 
 3.87731e-12 -2.30946e+01        00000 
 4.19239e-01 -2.30952e+01        00000 
 8.38740e-01 -2.30968e+01        00000 
 1.25876e+00 -2.30996e+01        00000 
 1.67957e+00 -2.31035e+01        00000 
 2.10142e+00 -2.31085e+01        00000 
 2.52457e+00 -2.31146e+01        00000 
 2.94927e+00 -2.31219e+01        00000 
 3.37577e+00 -2.31304e+01        00000 
 3.80431e+00 -2.31401e+01        00000 
 4.23514e+00 -2.31509e+01        00000 
 4.66849e+00 -2.31630e+01        00000 
 5.10459e+00 -2.31763e+01        00000 
 5.54367e+00 -2.31909e+01        00000 
 5.98593e+00 -2.32067e+01        00000 
 6.43160e+00 -2.32239e+01        00000 
 6.88089e+00 -2.32424e+01        00000 
 7.33399e+00 -2.32621e+01        00000 
 7.79110e+00 -2.32833e+01        00000 
 8.25242e+00 -2.33057e+01        00000 
 8.71815e+00 -2.33296e+01        00000 
 9.18846e+00 -2.33547e+01        00000 
 9.66356e+00 -2.33812e+01        00000 
 1.01436e+01 -2.34090e+01        00000 
 1.06289e+01 -2.34380e+01        00000 
 1.11196e+01 -2.34684e+01        00000 
-1.11760e+01 -2.38805e+01        00000 
-1.06831e+01 -2.38510e+01        00000 
-1.01955e+01 -2.38227e+01        00000 
-9.71310e+00 -2.37957e+01        00000 
-9.23565e+00 -2.37700e+01        00000 
-8.76298e+00 -2.37456e+01        00000 
-8.29489e+00 -2.37225e+01        00000 
-7.83120e+00 -2.37007e+01        00000 
-7.37172e+00 -2.36803e+01        00000 
-6.91627e+00 -2.36611e+01        00000 
-6.46463e+00 -2.36433e+01        00000 
-6.01663e+00 -2.36267e+01        00000 
-5.57205e+00 -2.36114e+01        00000 
-5.13069e+00 -2.35974e+01        00000 
-4.69231e+00 -2.35845e+01        00000 
-4.25671e+00 -2.35729e+01        00000 
-3.82365e+00 -2.35625e+01        00000 
-3.39290e+00 -2.35532e+01        00000 
-2.96421e+00 -2.35451e+01        00000 
-2.53734e+00 -2.35381e+01        00000 
-2.11204e+00 -2.35322e+01        00000 
-1.68805e+00 -2.35274e+01        00000 
-1.26511e+00 -2.35237e+01        00000 
-8.42967e-01 -2.35210e+01        00000 
-4.21351e-01 -2.35194e+01        00000 
 3.89850e-12 -2.35189e+01        00000 
 4.21351e-01 -2.35194e+01        00000 
 8.42967e-01 -2.35210e+01        00000 
 1.26511e+00 -2.35237e+01        00000 
 1.68805e+00 -2.35274e+01        00000 
 2.11204e+00 -2.35322e+01        00000 
 2.53734e+00 -2.35381e+01        00000 
 2.96421e+00 -2.35451e+01        00000 
 3.39290e+00 -2.35532e+01        00000 
 3.82365e+00 -2.35625e+01        00000 
 4.25671e+00 -2.35729e+01        00000 
 4.69231e+00 -2.35845e+01        00000 
 5.13069e+00 -2.35974e+01        00000 
 5.57205e+00 -2.36114e+01        00000 
 6.01663e+00 -2.36267e+01        00000 
 6.46463e+00 -2.36433e+01        00000 
 6.91627e+00 -2.36611e+01        00000 
 7.37172e+00 -2.36803e+01        00000 
 7.83120e+00 -2.37007e+01        00000 
 8.29489e+00 -2.37225e+01        00000 
 8.76298e+00 -2.37456e+01        00000 
 9.23565e+00 -2.37700e+01        00000 
 9.71310e+00 -2.37957e+01        00000 
 1.01955e+01 -2.38227e+01        00000 
 1.06831e+01 -2.38510e+01        00000 
 1.11760e+01 -2.38805e+01        00000 
-1.12308e+01 -2.42944e+01        00000 
-1.07357e+01 -2.42658e+01        00000 
-1.02459e+01 -2.42383e+01        00000 
-9.76122e+00 -2.42121e+01        00000 
-9.28148e+00 -2.41871e+01        00000 
-8.80650e+00 -2.41635e+01        00000 
-8.33610e+00 -2.41411e+01        00000 
-7.87009e+00 -2.41200e+01        00000 
-7.40829e+00 -2.41002e+01        00000 
-6.95053e+00 -2.40817e+01        00000 
-6.49661e+00 -2.40645e+01        00000 
-6.04633e+00 -2.40485e+01        00000 
-5.59949e+00 -2.40338e+01        00000 
-5.15589e+00 -2.40203e+01        00000 
-4.71531e+00 -2.40080e+01        00000 
-4.27753e+00 -2.39968e+01        00000 
-3.84231e+00 -2.39868e+01        00000 
-3.40942e+00 -2.39779e+01        00000 
-2.97862e+00 -2.39701e+01        00000 
-2.54965e+00 -2.39634e+01        00000 
-2.12227e+00 -2.39578e+01        00000 
-1.69621e+00 -2.39532e+01        00000 
-1.27122e+00 -2.39496e+01        00000 
-8.47036e-01 -2.39471e+01        00000 
-4.23384e-01 -2.39456e+01        00000 
 3.91886e-12 -2.39451e+01        00000 
 4.23384e-01 -2.39456e+01        00000 
 8.47036e-01 -2.39471e+01        00000 
 1.27122e+00 -2.39496e+01        00000 
 1.69621e+00 -2.39532e+01        00000 
 2.12227e+00 -2.39578e+01        00000 
 2.54965e+00 -2.39634e+01        00000 
 2.97862e+00 -2.39701e+01        00000 
 3.40942e+00 -2.39779e+01        00000 
 3.84231e+00 -2.39868e+01        00000 
 4.27753e+00 -2.39968e+01        00000 
 4.71531e+00 -2.40080e+01        00000 
 5.15589e+00 -2.40203e+01        00000 
 5.59949e+00 -2.40338e+01        00000 
 6.04633e+00 -2.40485e+01        00000 
 6.49661e+00 -2.40645e+01        00000 
 6.95053e+00 -2.40817e+01        00000 
 7.40829e+00 -2.41002e+01        00000 
 7.87009e+00 -2.41200e+01        00000 
 8.33610e+00 -2.41411e+01        00000 
 8.80650e+00 -2.41635e+01        00000 
 9.28148e+00 -2.41871e+01        00000 
 9.76122e+00 -2.42121e+01        00000 
 1.02459e+01 -2.42383e+01        00000 
 1.07357e+01 -2.42658e+01        00000 
 1.12308e+01 -2.42944e+01        00000 
-1.12840e+01 -2.47102e+01        00000 
-1.07868e+01 -2.46824e+01        00000 
-1.02948e+01 -2.46557e+01        00000 
-9.80794e+00 -2.46303e+01        00000 
-9.32596e+00 -2.46061e+01        00000 
-8.84872e+00 -2.45831e+01        00000 
-8.37604e+00 -2.45615e+01        00000 
-7.90776e+00 -2.45411e+01        00000 
-7.44370e+00 -2.45220e+01        00000 
-6.98368e+00 -2.45041e+01        00000 
-6.52751e+00 -2.44875e+01        00000 
-6.07502e+00 -2.44722e+01        00000 
-5.62599e+00 -2.44580e+01        00000 
-5.18022e+00 -2.44451e+01        00000 
-4.73749e+00 -2.44332e+01        00000 
-4.29759e+00 -2.44226e+01        00000 
-3.86028e+00 -2.44130e+01        00000 
-3.42532e+00 -2.44045e+01        00000 
-2.99248e+00 -2.43971e+01        00000 
-2.56149e+00 -2.43907e+01        00000 
-2.13210e+00 -2.43853e+01        00000 
-1.70406e+00 -2.43809e+01        00000 
-1.27710e+00 -2.43775e+01        00000 
-8.50946e-01 -2.43751e+01        00000 
-4.25337e-01 -2.43736e+01        00000 
 3.93943e-12 -2.43732e+01        00000 
 4.25337e-01 -2.43736e+01        00000 
 8.50946e-01 -2.43751e+01        00000 
 1.27710e+00 -2.43775e+01        00000 
 1.70406e+00 -2.43809e+01        00000 
 2.13210e+00 -2.43853e+01        00000 
 2.56149e+00 -2.43907e+01        00000 
 2.99248e+00 -2.43971e+01        00000 
 3.42532e+00 -2.44045e+01        00000 
 3.86028e+00 -2.44130e+01        00000 
 4.29759e+00 -2.44226e+01        00000 
 4.73749e+00 -2.44332e+01        00000 
 5.18022e+00 -2.44451e+01        00000 