<?xml version="1.0" encoding="utf-8"?>
<VTKFile byte_order="LittleEndian" type="UnstructuredGrid" version="0.1">
   <UnstructuredGrid>
      <Piece NumberOfCells="1188" NumberOfPoints="697">
         <Points>
            <DataArray Name="Points" NumberOfComponents="3" format="ascii" type="Float32">
0.5000 0.0000 0.0000
0.5000 0.0051 0.0000
0.5000 0.0101 0.0000
0.5000 0.0152 0.0000
0.5000 0.0202 0.0000
0.5000 0.0253 0.0000
0.5000 0.0303 0.0000
0.5000 0.0354 0.0000
0.5000 0.0404 0.0000
0.5000 0.0455 0.0000
0.5000 0.0505 0.0000
0.5000 0.0556 0.0000
0.5000 0.0606 0.0000
0.5000 0.0657 0.0000
0.5000 0.0707 0.0000
0.5000 0.0758 0.0000
0.5000 0.0808 0.0000
0.5000 0.0859 0.0000
0.5000 0.0909 0.0000
0.5000 0.0960 0.0000
0.5000 0.1010 0.0000
0.5000 0.1061 0.0000
0.5000 0.1111 0.0000
0.5000 0.1162 0.0000
0.5000 0.1212 0.0000
0.5000 0.1263 0.0000
0.5000 0.1313 0.0000
0.5000 0.1364 0.0000
0.5000 0.1414 0.0000
0.5000 0.1465 0.0000
0.5000 0.1515 0.0000
0.5000 0.1566 0.0000
0.5000 0.1616 0.0000
0.5000 0.1667 0.0000
0.5000 0.1717 0.0000
0.5000 0.1768 0.0000
0.5000 0.1818 0.0000
0.5000 0.1869 0.0000
0.5000 0.1919 0.0000
0.5000 0.1970 0.0000
0.5000 0.2020 0.0000
0.5000 0.2071 0.0000
0.5000 0.2121 0.0000
0.5000 0.2172 0.0000
0.5000 0.2222 0.0000
0.5000 0.2273 0.0000
0.5000 0.2323 0.0000
0.5000 0.2374 0.0000
0.5000 0.2424 0.0000
0.5000 0.2475 0.0000
0.5000 0.2525 0.0000
0.5000 0.2576 0.0000
0.5000 0.2626 0.0000
0.5000 0.2677 0.0000
0.5000 0.2727 0.0000
0.5000 0.2778 0.0000
0.5000 0.2828 0.0000
0.5000 0.2879 0.0000
0.5000 0.2929 0.0000
0.5000 0.2980 0.0000
0.5000 0.3030 0.0000
0.5000 0.3081 0.0000
0.5000 0.3131 0.0000
0.5000 0.3182 0.0000
0.5000 0.3232 0.0000
0.5000 0.3283 0.0000
0.5000 0.3333 0.0000
0.5000 0.3384 0.0000
0.5000 0.3434 0.0000
0.5000 0.3485 0.0000
0.5000 0.3535 0.0000
0.5000 0.3586 0.0000
0.5000 0.3636 0.0000
0.5000 0.3687 0.0000
0.5000 0.3737 0.0000
0.5000 0.3788 0.0000
0.5000 0.3838 0.0000
0.5000 0.3889 0.0000
0.5000 0.3939 0.0000
0.5000 0.3990 0.0000
0.5000 0.4040 0.0000
0.5000 0.4091 0.0000
0.5000 0.4141 0.0000
0.5000 0.4192 0.0000
0.5000 0.4242 0.0000
0.5000 0.4293 0.0000
0.5000 0.4343 0.0000
0.5000 0.4394 0.0000
0.5000 0.4444 0.0000
0.5000 0.4495 0.0000
0.5000 0.4545 0.0000
0.5000 0.4596 0.0000
0.5000 0.4646 0.0000
0.5000 0.4697 0.0000
0.5000 0.4747 0.0000
0.5000 0.4798 0.0000
0.5000 0.4848 0.0000
0.5000 0.4899 0.0000
0.5000 0.4949 0.0000
0.5000 0.5000 0.0000
0.5208 0.0000 0.0000
0.5208 0.0051 0.0000
0.5208 0.0101 0.0000
0.5208 0.0152 0.0000
0.5208 0.0202 0.0000
0.5208 0.0253 0.0000
0.5208 0.0303 0.0000
0.5208 0.0354 0.0000
0.5208 0.0404 0.0000
0.5208 0.0455 0.0000
0.5208 0.0505 0.0000
0.5208 0.0556 0.0000
0.5208 0.0606 0.0000
0.5208 0.0657 0.0000
0.5208 0.0707 0.0000
0.5208 0.0758 0.0000
0.5208 0.0808 0.0000
0.5208 0.0859 0.0000
0.5208 0.0909 0.0000
0.5208 0.0960 0.0000
0.5208 0.1010 0.0000
0.5208 0.1061 0.0000
0.5208 0.1111 0.0000
0.5208 0.1162 0.0000
0.5208 0.1212 0.0000
0.5208 0.1263 0.0000
0.5208 0.1313 0.0000
0.5208 0.1364 0.0000
0.5208 0.1414 0.0000
0.5208 0.1465 0.0000
0.5208 0.1515 0.0000
0.5208 0.1566 0.0000
0.5208 0.1616 0.0000
0.5208 0.1667 0.0000
0.5208 0.1717 0.0000
0.5208 0.1768 0.0000
0.5208 0.1818 0.0000
0.5208 0.1869 0.0000
0.5208 0.1919 0.0000
0.5208 0.1970 0.0000
0.5208 0.2020 0.0000
0.5208 0.2071 0.0000
0.5208 0.2121 0.0000
0.5208 0.2172 0.0000
0.5208 0.2222 0.0000
0.5208 0.2273 0.0000
0.5208 0.2323 0.0000
0.5208 0.2374 0.0000
0.5208 0.2424 0.0000
0.5208 0.2475 0.0000
0.5208 0.2525 0.0000
0.5208 0.2576 0.0000
0.5208 0.2626 0.0000
0.5208 0.2677 0.0000
0.5208 0.2727 0.0000
0.5208 0.2778 0.0000
0.5208 0.2828 0.0000
0.5208 0.2879 0.0000
0.5208 0.2929 0.0000
0.5208 0.2980 0.0000
0.5208 0.3030 0.0000
0.5208 0.3081 0.0000
0.5208 0.3131 0.0000
0.5208 0.3182 0.0000
0.5208 0.3232 0.0000
0.5208 0.3283 0.0000
0.5208 0.3333 0.0000
0.5208 0.3384 0.0000
0.5208 0.3434 0.0000
0.5208 0.3485 0.0000
0.5208 0.3535 0.0000
0.5208 0.3586 0.0000
0.5208 0.3636 0.0000
0.5208 0.3687 0.0000
0.5208 0.3737 0.0000
0.5208 0.3788 0.0000
0.5208 0.3838 0.0000
0.5208 0.3889 0.0000
0.5208 0.3939 0.0000
0.5208 0.3990 0.0000
0.5208 0.4040 0.0000
0.5208 0.4091 0.0000
0.5208 0.4141 0.0000
0.5208 0.4192 0.0000
0.5208 0.4242 0.0000
0.5208 0.4293 0.0000
0.5208 0.4343 0.0000
0.5208 0.4394 0.0000
0.5208 0.4444 0.0000
0.5208 0.4495 0.0000
0.5208 0.4545 0.0000
0.5208 0.4596 0.0000
0.5208 0.4646 0.0000
0.5208 0.4697 0.0000
0.5208 0.4747 0.0000
0.5208 0.4798 0.0000
0.5208 0.4848 0.0000
0.5208 0.4899 0.0000
0.5208 0.4949 0.0000
0.5208 0.5000 0.0000
0.5417 0.0000 0.0000
0.5417 0.0051 0.0000
0.5417 0.0101 0.0000
0.5417 0.0152 0.0000
0.5417 0.0202 0.0000
0.5417 0.0253 0.0000
0.5417 0.0303 0.0000
0.5417 0.0354 0.0000
0.5417 0.0404 0.0000
0.5417 0.0455 0.0000
0.5417 0.0505 0.0000
0.5417 0.0556 0.0000
0.5417 0.0606 0.0000
0.5417 0.0657 0.0000
0.5417 0.0707 0.0000
0.5417 0.0758 0.0000
0.5417 0.0808 0.0000
0.5417 0.0859 0.0000
0.5417 0.0909 0.0000
0.5417 0.0960 0.0000
0.5417 0.1010 0.0000
0.5417 0.1061 0.0000
0.5417 0.1111 0.0000
0.5417 0.1162 0.0000
0.5417 0.1212 0.0000
0.5417 0.1263 0.0000
0.5417 0.1313 0.0000
0.5417 0.1364 0.0000
0.5417 0.1414 0.0000
0.5417 0.1465 0.0000
0.5417 0.1515 0.0000
0.5417 0.1566 0.0000
0.5417 0.1616 0.0000
0.5417 0.1667 0.0000
0.5417 0.1717 0.0000
0.5417 0.1768 0.0000
0.5417 0.1818 0.0000
0.5417 0.1869 0.0000
0.5417 0.1919 0.0000
0.5417 0.1970 0.0000
0.5417 0.2020 0.0000
0.5417 0.2071 0.0000
0.5417 0.2121 0.0000
0.5417 0.2172 0.0000
0.5417 0.2222 0.0000
0.5417 0.2273 0.0000
0.5417 0.2323 0.0000
0.5417 0.2374 0.0000
0.5417 0.2424 0.0000
0.5417 0.2475 0.0000
0.5417 0.2525 0.0000
0.5417 0.2576 0.0000
0.5417 0.2626 0.0000
0.5417 0.2677 0.0000
0.5417 0.2727 0.0000
0.5417 0.2778 0.0000
0.5417 0.2828 0.0000
0.5417 0.2879 0.0000
0.5417 0.2929 0.0000
0.5417 0.2980 0.0000
0.5417 0.3030 0.0000
0.5417 0.3081 0.0000
0.5417 0.3131 0.0000
0.5417 0.3182 0.0000
0.5417 0.3232 0.0000
0.5417 0.3283 0.0000
0.5417 0.3333 0.0000
0.5417 0.3384 0.0000
0.5417 0.3434 0.0000
0.5417 0.3485 0.0000
0.5417 0.3535 0.0000
0.5417 0.3586 0.0000
0.5417 0.3636 0.0000
0.5417 0.3687 0.0000
0.5417 0.3737 0.0000
0.5417 0.3788 0.0000
0.5417 0.3838 0.0000
0.5417 0.3889 0.0000
0.5417 0.3939 0.0000
0.5417 0.3990 0.0000
0.5417 0.4040 0.0000
0.5417 0.4091 0.0000
0.5417 0.4141 0.0000
0.5417 0.4192 0.0000
0.5417 0.4242 0.0000
0.5417 0.4293 0.0000
0.5417 0.4343 0.0000
0.5417 0.4394 0.0000
0.5417 0.4444 0.0000
0.5417 0.4495 0.0000
0.5417 0.4545 0.0000
0.5417 0.4596 0.0000
0.5417 0.4646 0.0000
0.5417 0.4697 0.0000
0.5417 0.4747 0.0000
0.5417 0.4798 0.0000
0.5417 0.4848 0.0000
0.5417 0.4899 0.0000
0.5417 0.4949 0.0000
0.5417 0.5000 0.0000
0.5625 0.0000 0.0000
0.5625 0.0051 0.0000
0.5625 0.0101 0.0000
0.5625 0.0152 0.0000
0.5625 0.0202 0.0000
0.5625 0.0253 0.0000
0.5625 0.0303 0.0000
0.5625 0.0354 0.0000
0.5625 0.0404 0.0000
0.5625 0.0455 0.0000
0.5625 0.0505 0.0000
0.5625 0.0556 0.0000
0.5625 0.0606 0.0000
0.5625 0.0657 0.0000
0.5625 0.0707 0.0000
0.5625 0.0758 0.0000
0.5625 0.0808 0.0000
0.5625 0.0859 0.0000
0.5625 0.0909 0.0000
0.5625 0.0960 0.0000
0.5625 0.1010 0.0000
0.5625 0.1061 0.0000
0.5625 0.1111 0.0000
0.5625 0.1162 0.0000
0.5625 0.1212 0.0000
0.5625 0.1263 0.0000
0.5625 0.1313 0.0000
0.5625 0.1364 0.0000
0.5625 0.1414 0.0000
0.5625 0.1465 0.0000
0.5625 0.1515 0.0000
0.5625 0.1566 0.0000
0.5625 0.1616 0.0000
0.5625 0.1667 0.0000
0.5625 0.1717 0.0000
0.5625 0.1768 0.0000
0.5625 0.1818 0.0000
0.5625 0.1869 0.0000
0.5625 0.1919 0.0000
0.5625 0.1970 0.0000
0.5625 0.2020 0.0000
0.5625 0.2071 0.0000
0.5625 0.2121 0.0000
0.5625 0.2172 0.0000
0.5625 0.2222 0.0000
0.5625 0.2273 0.0000
0.5625 0.2323 0.0000
0.5625 0.2374 0.0000
0.5625 0.2424 0.0000
0.5625 0.2475 0.0000
0.5625 0.2525 0.0000
0.5625 0.2576 0.0000
0.5625 0.2626 0.0000
0.5625 0.2677 0.0000
0.5625 0.2727 0.0000
0.5625 0.2778 0.0000
0.5625 0.2828 0.0000
0.5625 0.2879 0.0000
0.5625 0.2929 0.0000
0.5625 0.2980 0.0000
0.5625 0.3030 0.0000
0.5625 0.3081 0.0000
0.5625 0.3131 0.0000
0.5625 0.3182 0.0000
0.5625 0.3232 0.0000
0.5625 0.3283 0.0000
0.5625 0.3333 0.0000
0.5625 0.3384 0.0000
0.5625 0.3434 0.0000
0.5625 0.3485 0.0000
0.5625 0.3535 0.0000
0.5625 0.3586 0.0000
0.5625 0.3636 0.0000
0.5625 0.3687 0.0000
0.5625 0.3737 0.0000
0.5625 0.3788 0.0000
0.5625 0.3838 0.0000
0.5625 0.3889 0.0000
0.5625 0.3939 0.0000
0.5625 0.3990 0.0000
0.5625 0.4040 0.0000
0.5625 0.4091 0.0000
0.5625 0.4141 0.0000
0.5625 0.4192 0.0000
0.5625 0.4242 0.0000
0.5625 0.4293 0.0000
0.5625 0.4343 0.0000
0.5625 0.4394 0.0000
0.5625 0.4444 0.0000
0.5625 0.4495 0.0000
0.5625 0.4545 0.0000
0.5625 0.4596 0.0000
0.5625 0.4646 0.0000
0.5625 0.4697 0.0000
0.5625 0.4747 0.0000
0.5625 0.4798 0.0000
0.5625 0.4848 0.0000
0.5625 0.4899 0.0000
0.5625 0.4949 0.0000
0.5625 0.5000 0.0000
0.5104 0.0025 0.0000
0.5104 0.0076 0.0000
0.5104 0.0126 0.0000
0.5104 0.0177 0.0000
0.5104 0.0227 0.0000
0.5104 0.0278 0.0000
0.5104 0.0328 0.0000
0.5104 0.0379 0.0000
0.5104 0.0429 0.0000
0.5104 0.0480 0.0000
0.5104 0.0530 0.0000
0.5104 0.0581 0.0000
0.5104 0.0631 0.0000
0.5104 0.0682 0.0000
0.5104 0.0732 0.0000
0.5104 0.0783 0.0000
0.5104 0.0833 0.0000
0.5104 0.0884 0.0000
0.5104 0.0934 0.0000
0.5104 0.0985 0.0000
0.5104 0.1035 0.0000
0.5104 0.1086 0.0000
0.5104 0.1136 0.0000
0.5104 0.1187 0.0000
0.5104 0.1237 0.0000
0.5104 0.1288 0.0000
0.5104 0.1338 0.0000
0.5104 0.1389 0.0000
0.5104 0.1439 0.0000
0.5104 0.1490 0.0000
0.5104 0.1540 0.0000
0.5104 0.1591 0.0000
0.5104 0.1641 0.0000
0.5104 0.1692 0.0000
0.5104 0.1742 0.0000
0.5104 0.1793 0.0000
0.5104 0.1843 0.0000
0.5104 0.1894 0.0000
0.5104 0.1944 0.0000
0.5104 0.1995 0.0000
0.5104 0.2045 0.0000
0.5104 0.2096 0.0000
0.5104 0.2146 0.0000
0.5104 0.2197 0.0000
0.5104 0.2247 0.0000
0.5104 0.2298 0.0000
0.5104 0.2348 0.0000
0.5104 0.2399 0.0000
0.5104 0.2449 0.0000
0.5104 0.2500 0.0000
0.5104 0.2551 0.0000
0.5104 0.2601 0.0000
0.5104 0.2652 0.0000
0.5104 0.2702 0.0000
0.5104 0.2753 0.0000
0.5104 0.2803 0.0000
0.5104 0.2854 0.0000
0.5104 0.2904 0.0000
0.5104 0.2955 0.0000
0.5104 0.3005 0.0000
0.5104 0.3056 0.0000
[...]
         <PointData>
            <DataArray Name="fValues" NumberOfComponents="2" format="ascii" type="Float64">
 9.06683e+00  1.35519e+01 
 8.85966e+00  1.35249e+01 
 8.65404e+00  1.34984e+01 
 8.44977e+00  1.34725e+01 
 8.24698e+00  1.34472e+01 
 8.04549e+00  1.34223e+01 
 7.84543e+00  1.33981e+01 
 7.64659e+00  1.33743e+01 
 7.44912e+00  1.33512e+01 
 7.25282e+00  1.33286e+01 
 7.05783e+00  1.33065e+01 
 6.86395e+00  1.32850e+01 
 6.67130e+00  1.32640e+01 
 6.47972e+00  1.32436e+01 
 6.28931e+00  1.32237e+01 
 6.09991e+00  1.32044e+01 
 5.91162e+00  1.31857e+01 
 5.72426e+00  1.31674e+01 
 5.53797e+00  1.31498e+01 
 5.35256e+00  1.31327e+01 
 5.16814e+00  1.31161e+01 
 4.98454e+00  1.31001e+01 
 4.80188e+00  1.30847e+01 
 4.61998e+00  1.30697e+01 
 4.43895e+00  1.30554e+01 
 4.25863e+00  1.30416e+01 
 4.07912e+00  1.30283e+01 
 3.90025e+00  1.30156e+01 
 3.72214e+00  1.30035e+01 
 3.54461e+00  1.29919e+01 
 3.36778e+00  1.29808e+01 
 3.19147e+00  1.29704e+01 
 3.01579e+00  1.29604e+01 
 2.84057e+00  1.29510e+01 
 2.66593e+00  1.29422e+01 
 2.49169e+00  1.29339e+01 
 2.31796e+00  1.29262e+01 
 2.14457e+00  1.29190e+01 
 1.97163e+00  1.29124e+01 
 1.79898e+00  1.29063e+01 
 1.62671e+00  1.29007e+01 
 1.45467e+00  1.28958e+01 
 1.28295e+00  1.28914e+01 
 1.11140e+00  1.28875e+01 
 9.40108e-01  1.28842e+01 
 7.68918e-01  1.28814e+01 
 5.97936e-01  1.28792e+01 
 4.26990e-01  1.28775e+01 
 2.56192e-01  1.28764e+01 
 8.53683e-02  1.28759e+01 
-8.53683e-02  1.28759e+01 
-2.56192e-01  1.28764e+01 
-4.26990e-01  1.28775e+01 
-5.97936e-01  1.28792e+01 
-7.68918e-01  1.28814e+01 
-9.40108e-01  1.28842e+01 
-1.11140e+00  1.28875e+01 
-1.28295e+00  1.28914e+01 
-1.45467e+00  1.28958e+01 
-1.62671e+00  1.29007e+01 
-1.79898e+00  1.29063e+01 
-1.97163e+00  1.29124e+01 
-2.14457e+00  1.29190e+01 
-2.31796e+00  1.29262e+01 
-2.49169e+00  1.29339e+01 
-2.66593e+00  1.29422e+01 
-2.84057e+00  1.29510e+01 
-3.01579e+00  1.29604e+01 
-3.19147e+00  1.29704e+01 
-3.36778e+00  1.29808e+01 
-3.54461e+00  1.29919e+01 
-3.72214e+00  1.30035e+01 
-3.90025e+00  1.30156e+01 
-4.07912e+00  1.30283e+01 
-4.25863e+00  1.30416e+01 
-4.43895e+00  1.30554e+01 
-4.61998e+00  1.30697e+01 
-4.80188e+00  1.30847e+01 
-4.98454e+00  1.31001e+01 
-5.16814e+00  1.31161e+01 
-5.35256e+00  1.31327e+01 
-5.53797e+00  1.31498e+01 
-5.72426e+00  1.31674e+01 
-5.91162e+00  1.31857e+01 
-6.09991e+00  1.32044e+01 
-6.28931e+00  1.32237e+01 
-6.47972e+00  1.32436e+01 
-6.67130e+00  1.32640e+01 
-6.86395e+00  1.32850e+01 
-7.05783e+00  1.33065e+01 
-7.25282e+00  1.33286e+01 
-7.44912e+00  1.33512e+01 
-7.64659e+00  1.33743e+01 
-7.84543e+00  1.33981e+01 
-8.04549e+00  1.34223e+01 
-8.24698e+00  1.34472e+01 
-8.44977e+00  1.34725e+01 
-8.65404e+00  1.34984e+01 
-8.85966e+00  1.35249e+01 
-9.06683e+00  1.35519e+01 
 9.31136e+00  1.44197e+01 
 9.09927e+00  1.43938e+01 
 8.88869e+00  1.43684e+01 
 8.67950e+00  1.43436e+01 
 8.47176e+00  1.43193e+01 
 8.26535e+00  1.42955e+01 
 8.06032e+00  1.42722e+01 
 7.85657e+00  1.42495e+01 
 7.65414e+00  1.42273e+01 
 7.45293e+00  1.42056e+01 
 7.25297e+00  1.41845e+01 
 7.05417e+00  1.41638e+01 
 6.85657e+00  1.41438e+01 
 6.66007e+00  1.41242e+01 
 6.46471e+00  1.41052e+01 
 6.27038e+00  1.40867e+01 
 6.07713e+00  1.40687e+01 
 5.88486e+00  1.40512e+01 
 5.69361e+00  1.40343e+01 
 5.50328e+00  1.40179e+01 
 5.31390e+00  1.40021e+01 
 5.12538e+00  1.39867e+01 
 4.93776e+00  1.39719e+01 
 4.75094e+00  1.39577e+01 
 4.56496e+00  1.39439e+01 
 4.37972e+00  1.39307e+01 
 4.19525e+00  1.39180e+01 
 4.01146e+00  1.39059e+01 
 3.82839e+00  1.38942e+01 
 3.64594e+00  1.38831e+01 
 3.46414e+00  1.38726e+01 
 3.28291e+00  1.38625e+01 
 3.10227e+00  1.38530e+01 
 2.92213e+00  1.38440e+01 
 2.74253e+00  1.38356e+01 
 2.56336e+00  1.38276e+01 
 2.38467e+00  1.38202e+01 
 2.20636e+00  1.38134e+01 
 2.02846e+00  1.38070e+01 
 1.85089e+00  1.38012e+01 
 1.67366e+00  1.37959e+01 
 1.49669e+00  1.37912e+01 
 1.32001e+00  1.37869e+01 
 1.14353e+00  1.37832e+01 
 9.67283e-01  1.37801e+01 
 7.91171e-01  1.37774e+01 
 6.15226e-01  1.37753e+01 
 4.39358e-01  1.37737e+01 
 2.63596e-01  1.37727e+01 
 8.78507e-02  1.37721e+01 
-8.78507e-02  1.37721e+01 
-2.63596e-01  1.37727e+01 
-4.39358e-01  1.37737e+01 
-6.15226e-01  1.37753e+01 
-7.91171e-01  1.37774e+01 
-9.67283e-01  1.37801e+01 
-1.14353e+00  1.37832e+01 
-1.32001e+00  1.37869e+01 
-1.49669e+00  1.37912e+01 
-1.67366e+00  1.37959e+01 
-1.85089e+00  1.38012e+01 
-2.02846e+00  1.38070e+01 
-2.20636e+00  1.38134e+01 
-2.38467e+00  1.38202e+01 
-2.56336e+00  1.38276e+01 
-2.74253e+00  1.38356e+01 
-2.92213e+00  1.38440e+01 
-3.10227e+00  1.38530e+01 
-3.28291e+00  1.38625e+01 
-3.46414e+00  1.38726e+01 
-3.64594e+00  1.38831e+01 
-3.82839e+00  1.38942e+01 
-4.01146e+00  1.39059e+01 
-4.19525e+00  1.39180e+01 
-4.37972e+00  1.39307e+01 
-4.56496e+00  1.39439e+01 
-4.75094e+00  1.39577e+01 
-4.93776e+00  1.39719e+01 
-5.12538e+00  1.39867e+01 
-5.31390e+00  1.40021e+01 
-5.50328e+00  1.40179e+01 
-5.69361e+00  1.40343e+01 
-5.88486e+00  1.40512e+01 
-6.07713e+00  1.40687e+01 
-6.27038e+00  1.40867e+01 
-6.46471e+00  1.41052e+01 
-6.66007e+00  1.41242e+01 
-6.85657e+00  1.41438e+01 
-7.05417e+00  1.41638e+01 
-7.25297e+00  1.41845e+01 
-7.45293e+00  1.42056e+01 
-7.65414e+00  1.42273e+01 
-7.85657e+00  1.42495e+01 
-8.06032e+00  1.42722e+01 
-8.26535e+00  1.42955e+01 
-8.47176e+00  1.43193e+01 
-8.67950e+00  1.43436e+01 
-8.88869e+00  1.43684e+01 
-9.09927e+00  1.43938e+01 
-9.31136e+00  1.44197e+01 
 9.54553e+00  1.53074e+01 
 9.32871e+00  1.52827e+01 
 9.11340e+00  1.52584e+01 
 8.89948e+00  1.52346e+01 
 8.68701e+00  1.52114e+01 
 8.47587e+00  1.51886e+01 
 8.26612e+00  1.51664e+01 
 8.05763e+00  1.51446e+01 
 7.85047e+00  1.51234e+01 
 7.64453e+00  1.51026e+01 
 7.43984e+00  1.50824e+01 
 7.23631e+00  1.50627e+01 
 7.03398e+00  1.50435e+01 
 6.83275e+00  1.50248e+01 
 6.63265e+00  1.50066e+01 
 6.43359e+00  1.49889e+01 
 6.23562e+00  1.49717e+01 
 6.03861e+00  1.49550e+01 
 5.84263e+00  1.49388e+01 
 5.64756e+00  1.49232e+01 
 5.45345e+00  1.49080e+01 
 5.26020e+00  1.48934e+01 
 5.06785e+00  1.48792e+01 
 4.87629e+00  1.48656e+01 
 4.68558e+00  1.48524e+01 
 4.49560e+00  1.48398e+01 
 4.30640e+00  1.48277e+01 
 4.11788e+00  1.48161e+01 
 3.93008e+00  1.48050e+01 
 3.74289e+00  1.47944e+01 
 3.55637e+00  1.47843e+01 
 3.37040e+00  1.47747e+01 
 3.18503e+00  1.47656e+01 
 3.00016e+00  1.47570e+01 
 2.81583e+00  1.47489e+01 
 2.63193e+00  1.47414e+01 
 2.44851e+00  1.47343e+01 
 2.26547e+00  1.47277e+01 
 2.08285e+00  1.47217e+01 
 1.90053e+00  1.47161e+01 
 1.71858e+00  1.47111e+01 
 1.53688e+00  1.47066e+01 
 1.35548e+00  1.47025e+01 
 1.17426e+00  1.46990e+01 
 9.93291e-01  1.46960e+01 
 8.12444e-01  1.46934e+01 
 6.31777e-01  1.46914e+01 
 4.51175e-01  1.46899e+01 
 2.70691e-01  1.46889e+01 
 9.02114e-02  1.46884e+01 
-9.02114e-02  1.46884e+01 
-2.70691e-01  1.46889e+01 
-4.51175e-01  1.46899e+01 
-6.31777e-01  1.46914e+01 
-8.12444e-01  1.46934e+01 
-9.93291e-01  1.46960e+01 
-1.17426e+00  1.46990e+01 
-1.35548e+00  1.47025e+01 
-1.53688e+00  1.47066e+01 
-1.71858e+00  1.47111e+01 
-1.90053e+00  1.47161e+01 
-2.08285e+00  1.47217e+01 
-2.26547e+00  1.47277e+01 
-2.44851e+00  1.47343e+01 
-2.63193e+00  1.47414e+01 
-2.81583e+00  1.47489e+01 
-3.00016e+00  1.47570e+01 
-3.18503e+00  1.47656e+01 
-3.37040e+00  1.47747e+01 
-3.55637e+00  1.47843e+01 
-3.74289e+00  1.47944e+01 
-3.93008e+00  1.48050e+01 
-4.11788e+00  1.48161e+01 
-4.30640e+00  1.48277e+01 
-4.49560e+00  1.48398e+01 
-4.68558e+00  1.48524e+01 
-4.87629e+00  1.48656e+01 
-5.06785e+00  1.48792e+01 
-5.26020e+00  1.48934e+01 
-5.45345e+00  1.49080e+01 
-5.64756e+00  1.49232e+01 
-5.84263e+00  1.49388e+01 
-6.03861e+00  1.49550e+01 
-6.23562e+00  1.49717e+01 
-6.43359e+00  1.49889e+01 
-6.63265e+00  1.50066e+01 
-6.83275e+00  1.50248e+01 
-7.03398e+00  1.50435e+01 
-7.23631e+00  1.50627e+01 
-7.43984e+00  1.50824e+01 
-7.64453e+00  1.51026e+01 
-7.85047e+00  1.51234e+01 
-8.05763e+00  1.51446e+01 
-8.26612e+00  1.51664e+01 
-8.47587e+00  1.51886e+01 
-8.68701e+00  1.52114e+01 
-8.89948e+00  1.52346e+01 
-9.11340e+00  1.52584e+01 
-9.32871e+00  1.52827e+01 
-9.54553e+00  1.53074e+01 
 9.76929e+00  1.62142e+01 
 9.54797e+00  1.61905e+01 
 9.32813e+00  1.61674e+01 
 9.10971e+00  1.61447e+01 
 8.89270e+00  1.61225e+01 
 8.67706e+00  1.61007e+01 
 8.46277e+00  1.60795e+01 
 8.24978e+00  1.60587e+01 
 8.03808e+00  1.60385e+01 
 7.82763e+00  1.60187e+01 
 7.61841e+00  1.59994e+01 
 7.41037e+00  1.59806e+01 
 7.20350e+00  1.59622e+01 
 6.99775e+00  1.59444e+01 
 6.79311e+00  1.59270e+01 
 6.58954e+00  1.59101e+01 
 6.38702e+00  1.58937e+01 
 6.18551e+00  1.58778e+01 
 5.98498e+00  1.58624e+01 
 5.78540e+00  1.58474e+01 
 5.58675e+00  1.58330e+01 
 5.38899e+00  1.58190e+01 
 5.19209e+00  1.58055e+01 
 4.99603e+00  1.57925e+01 
 4.80077e+00  1.57800e+01 
 4.60628e+00  1.57679e+01 
 4.41254e+00  1.57564e+01 
 4.21951e+00  1.57453e+01 
 4.02717e+00  1.57347e+01 
 3.83548e+00  1.57246e+01 
 3.64442e+00  1.57150e+01 
 3.45394e+00  1.57059e+01 
 3.26404e+00  1.56972e+01 
 3.07466e+00  1.56890e+01 
 2.88579e+00  1.56814e+01 
 2.69740e+00  1.56741e+01 
 2.50944e+00  1.56674e+01 
 2.32190e+00  1.56612e+01 
 2.13474e+00  1.56554e+01 
 1.94793e+00  1.56501e+01 
 1.76145e+00  1.56453e+01 
 1.57525e+00  1.56410e+01 
 1.38931e+00  1.56372e+01 
 1.20360e+00  1.56338e+01 
 1.01810e+00  1.56309e+01 
 8.32759e-01  1.56285e+01 
 6.47560e-01  1.56266e+01 
 4.62465e-01  1.56252e+01 
 2.77449e-01  1.56242e+01 
 9.24769e-02  1.56237e+01 
-9.24769e-02  1.56237e+01 
-2.77449e-01  1.56242e+01 
-4.62465e-01  1.56252e+01 
-6.47560e-01  1.56266e+01 
-8.32759e-01  1.56285e+01 
-1.01810e+00  1.56309e+01 
-1.20360e+00  1.56338e+01 
-1.38931e+00  1.56372e+01 
-1.57525e+00  1.56410e+01 
-1.76145e+00  1.56453e+01 
-1.94793e+00  1.56501e+01 
-2.13474e+00  1.56554e+01 
-2.32190e+00  1.56612e+01 
-2.50944e+00  1.56674e+01 
-2.69740e+00  1.56741e+01 
-2.88579e+00  1.56814e+01 
-3.07466e+00  1.56890e+01 
-3.26404e+00  1.56972e+01 
-3.45394e+00  1.57059e+01 
-3.64442e+00  1.57150e+01 
-3.83548e+00  1.57246e+01 
-4.02717e+00  1.57347e+01 
-4.21951e+00  1.57453e+01 
-4.41254e+00  1.57564e+01 
-4.60628e+00  1.57679e+01 
-4.80077e+00  1.57800e+01 
-4.99603e+00  1.57925e+01 
-5.19209e+00  1.58055e+01 
-5.38899e+00  1.58190e+01 
-5.58675e+00  1.58330e+01 
-5.78540e+00  1.58474e+01 
-5.98498e+00  1.58624e+01 
-6.18551e+00  1.58778e+01 
-6.38702e+00  1.58937e+01 
-6.58954e+00  1.59101e+01 
-6.79311e+00  1.59270e+01 
-6.99775e+00  1.59444e+01 
-7.20350e+00  1.59622e+01 
-7.41037e+00  1.59806e+01 
-7.61841e+00  1.59994e+01 
-7.82763e+00  1.60187e+01 
-8.03808e+00  1.60385e+01 
-8.24978e+00  1.60587e+01 
-8.46277e+00  1.60795e+01 
-8.67706e+00  1.61007e+01 
-8.89270e+00  1.61225e+01 
-9.10971e+00  1.61447e+01 
-9.32813e+00  1.61674e+01 
-9.54797e+00  1.61905e+01 
-9.76929e+00  1.62142e+01 
 9.08446e+00  1.39724e+01 
 8.87557e+00  1.39462e+01 
 8.66817e+00  1.39206e+01 
 8.46215e+00  1.38954e+01 
 8.25756e+00  1.38709e+01 
 8.05429e+00  1.38468e+01 
 7.85238e+00  1.38233e+01 
 7.65174e+00  1.38004e+01 
 7.45240e+00  1.37780e+01 
 7.25426e+00  1.37561e+01 
 7.05737e+00  1.37348e+01 
 6.86162e+00  1.37140e+01 
 6.66705e+00  1.36937e+01 
 6.47357e+00  1.36740e+01 
 6.28121e+00  1.36548e+01 
 6.08987e+00  1.36362e+01 
 5.89959e+00  1.36181e+01 
 5.71028e+00  1.36005e+01 
 5.52197e+00  1.35835e+01 
 5.33456e+00  1.35670e+01 
 5.14810e+00  1.35511e+01 
 4.96248e+00  1.35357e+01 
 4.77775e+00  1.35208e+01 
 4.59379e+00  1.35065e+01 
 4.41066e+00  1.34927e+01 
 4.22826e+00  1.34795e+01 
 4.04661e+00  1.34668e+01 
 3.86563e+00  1.34546e+01 
 3.68536e+00  1.34430e+01 
 3.50568e+00  1.34319e+01 
 3.32666e+00  1.34214e+01 
 3.14817e+00  1.34114e+01 
 2.97026e+00  1.34019e+01 
 2.79284e+00  1.33930e+01 
 2.61594e+00  1.33846e+01 
 2.43947e+00  1.33768e+01 
 2.26345e+00  1.33695e+01 
 2.08780e+00  1.33627e+01 
 1.91254e+00  1.33565e+01 
 1.73759e+00  1.33508e+01 
 1.56298e+00  1.33457e+01 
 1.38861e+00  1.33411e+01 
 1.21451e+00  1.33371e+01 
 1.04060e+00  1.33335e+01 
 8.66904e-01  1.33306e+01 
 6.93326e-01  1.33281e+01 
 5.19905e-01  1.33263e+01 
 3.46541e-01  1.33249e+01 
 1.73272e-01  1.33241e+01 
-5.95993e-13  1.33238e+01 
-1.73272e-01  1.33241e+01 
-3.46541e-01  1.33249e+01 
-5.19905e-01  1.33263e+01 
-6.93326e-01  1.33281e+01 
-8.66904e-01  1.33306e+01 
-1.04060e+00  1.33335e+01 
-1.21451e+00  1.33371e+01 
-1.38861e+00  1.33411e+01 
-1.56298e+00  1.33457e+01 
-1.73759e+00  1.33508e+01 
-1.91254e+00  1.33565e+01 
-2.08780e+00  1.33627e+01 
-2.26345e+00  1.33695e+01 
-2.43947e+00  1.33768e+01 
-2.61594e+00  1.33846e+01 
-2.79284e+00  1.33930e+01 
-2.97026e+00  1.34019e+01 
-3.14817e+00  1.34114e+01 
-3.32666e+00  1.34214e+01 
-3.50568e+00  1.34319e+01 
-3.68536e+00  1.34430e+01 
-3.86563e+00  1.34546e+01 
-4.04661e+00  1.34668e+01 
-4.22826e+00  1.34795e+01 
-4.41066e+00  1.34927e+01 
-4.59379e+00  1.35065e+01 
-4.77775e+00  1.35208e+01 
-4.96248e+00  1.35357e+01 
-5.14810e+00  1.35511e+01 
-5.33456e+00  1.35670e+01 
-5.52197e+00  1.35835e+01 
-5.71028e+00  1.36005e+01 
-5.89959e+00  1.36181e+01 
-6.08987e+00  1.36362e+01 
-6.28121e+00  1.36548e+01 
-6.47357e+00  1.36740e+01 
-6.66705e+00  1.36937e+01 
-6.86162e+00  1.37140e+01 
-7.05737e+00  1.37348e+01 
-7.25426e+00  1.37561e+01 
-7.45240e+00  1.37780e+01 
-7.65174e+00  1.38004e+01 
-7.85238e+00  1.38233e+01 
-8.05429e+00  1.38468e+01 
-8.25756e+00  1.38709e+01 
-8.46215e+00  1.38954e+01 
-8.66817e+00  1.39206e+01 
-8.87557e+00  1.39462e+01 
-9.08446e+00  1.39724e+01 
 9.32139e+00  1.48507e+01 
 9.10766e+00  1.48256e+01 
 8.89543e+00  1.48011e+01 
 8.68458e+00  1.47770e+01 
 8.47515e+00  1.47535e+01 
 8.26705e+00  1.47305e+01 
 8.06031e+00  1.47080e+01 
 7.85483e+00  1.46860e+01 
 7.65066e+00  1.46645e+01 
 7.44769e+00  1.46436e+01 
 7.24596e+00  1.46231e+01 
 7.04538e+00  1.46032e+01 
 6.84598e+00  1.45838e+01 
 6.64765e+00  1.45650e+01 
 6.45046e+00  1.45466e+01 
 6.25428e+00  1.45288e+01 
 6.05918e+00  1.45115e+01 
 5.86503e+00  1.44946e+01 
 5.67188e+00  1.44784e+01 
 5.47964e+00  1.44626e+01 
 5.28834e+00  1.44473e+01 
 5.09788e+00  1.44326e+01 
 4.90831e+00  1.44184e+01 
 4.71952e+00  1.44047e+01 
 4.53156e+00  1.43915e+01 
 4.34431e+00  1.43788e+01 
 4.15784e+00  1.43667e+01 
 3.97202e+00  1.43551e+01 
 3.78691e+00  1.43440e+01 
 3.60240e+00  1.43334e+01 
 3.41853e+00  1.43233e+01 
 3.23521e+00  1.43137e+01 
 3.05247e+00  1.43047e+01 
 2.87021e+00  1.42962e+01 
 2.68848e+00  1.42882e+01 
 2.50716e+00  1.42807e+01 
 2.32631e+00  1.42737e+01 
 2.14582e+00  1.42672e+01 
 1.96573e+00  1.42613e+01 
 1.78595e+00  1.42559e+01 
 1.60650e+00  1.42510e+01 
 1.42729e+00  1.42466e+01 
 1.24836e+00  1.42427e+01 
 1.06961e+00  1.42394e+01 
 8.91081e-01  1.42365e+01 
 7.12667e-01  1.42342e+01 
 5.34411e-01  1.42324e+01 
 3.56211e-01  1.42311e+01 
 1.78108e-01  1.42303e+01 
-5.97892e-13  1.42301e+01 
-1.78108e-01  1.42303e+01 
-3.56211e-01  1.42311e+01 
-5.34411e-01  1.42324e+01 
-7.12667e-01  1.42342e+01 
-8.91081e-01  1.42365e+01 
-1.06961e+00  1.42394e+01 
-1.24836e+00  1.42427e+01 
-1.42729e+00  1.42466e+01 
-1.60650e+00  1.42510e+01 
-1.78595e+00  1.42559e+01 
-1.96573e+00  1.42613e+01 
-2.14582e+00  1.42672e+01 
-2.32631e+00  1.42737e+01 
-2.50716e+00  1.42807e+01 
-2.68848e+00  1.42882e+01 
-2.87021e+00  1.42962e+01 
-3.05247e+00  1.43047e+01 
-3.23521e+00  1.43137e+01 
-3.41853e+00  1.43233e+01 
-3.60240e+00  1.43334e+01 
-3.78691e+00  1.43440e+01 
-3.97202e+00  1.43551e+01 
-4.15784e+00  1.43667e+01 
-4.34431e+00  1.43788e+01 
-4.53156e+00  1.43915e+01 
-4.71952e+00  1.44047e+01 
-4.90831e+00  1.44184e+01 
-5.09788e+00  1.44326e+01 
-5.28834e+00  1.44473e+01 
-5.47964e+00  1.44626e+01 
-5.67188e+00  1.44784e+01 
-5.86503e+00  1.44946e+01 
-6.05918e+00  1.45115e+01 
-6.25428e+00  1.45288e+01 
-6.45046e+00  1.45466e+01 
-6.64765e+00  1.45650e+01 
-6.84598e+00  1.45838e+01 
-7.04538e+00  1.46032e+01 
-7.24596e+00  1.46231e+01 
-7.44769e+00  1.46436e+01 
-7.65066e+00  1.46645e+01 
-7.85483e+00  1.46860e+01 
-8.06031e+00  1.47080e+01 
-8.26705e+00  1.47305e+01 
-8.47515e+00  1.47535e+01 
-8.68458e+00  1.47770e+01 
-8.89543e+00  1.48011e+01 
-9.10766e+00  1.48256e+01 
-9.32139e+00  1.48507e+01 
 9.54804e+00  1.57485e+01 
 9.32969e+00  1.57245e+01 
 9.11284e+00  1.57011e+01 
 8.89736e+00  1.56781e+01 
 8.68331e+00  1.56556e+01 
 8.47058e+00  1.56336e+01 
 8.25922e+00  1.56121e+01 
 8.04912e+00  1.55911e+01 
 7.84032e+00  1.55706e+01 
 7.63272e+00  1.55506e+01 
 7.42637e+00  1.55310e+01 
 7.22115e+00  1.55120e+01 
 7.01712e+00  1.54935e+01 
 6.81417e+00  1.54755e+01 
 6.61235e+00  1.54579e+01 
 6.41154e+00  1.54409e+01 
 6.21180e+00  1.54243e+01 
 6.01302e+00  1.54083e+01 
 5.81525e+00  1.53927e+01 
 5.61838e+00  1.53777e+01 
 5.42245e+00  1.53631e+01 
 5.22736e+00  1.53490e+01 
 5.03316e+00  1.53355e+01 
 4.83974e+00  1.53224e+01 
 4.64715e+00  1.53098e+01 
 4.45528e+00  1.52977e+01 
 4.26417e+00  1.52861e+01 
 4.07373e+00  1.52750e+01 
 3.88399e+00  1.52645e+01 
 3.69485e+00  1.52543e+01 
 3.50636e+00  1.52447e+01 
 3.31841e+00  1.52356e+01 
 3.13104e+00  1.52270e+01 
 2.94416e+00  1.52189e+01 
 2.75780e+00  1.52112e+01 
 2.57186e+00  1.52041e+01 
 2.38639e+00  1.51974e+01 
 2.20127e+00  1.51913e+01 
 2.01656e+00  1.51856e+01 
 1.83215e+00  1.51805e+01 
 1.64808e+00  1.51758e+01 
 1.46425e+00  1.51716e+01 
 1.28070e+00  1.51679e+01 
 1.09733e+00  1.51647e+01 
 9.14182e-01  1.51620e+01 
 7.31147e-01  1.51598e+01 
 5.48271e-01  1.51581e+01 
 3.65451e-01  1.51568e+01 
 1.82728e-01  1.51561e+01 
-5.82335e-13  1.51558e+01 
-1.82728e-01  1.51561e+01 
-3.65451e-01  1.51568e+01 
-5.48271e-01  1.51581e+01 
-7.31147e-01  1.51598e+01 
-9.14182e-01  1.51620e+01 
-1.09733e+00  1.51647e+01 
-1.28070e+00  1.51679e+01 
-1.46425e+00  1.51716e+01 
-1.64808e+00  1.51758e+01 
-1.83215e+00  1.51805e+01 
-2.01656e+00  1.51856e+01 
-2.20127e+00  1.51913e+01 
-2.38639e+00  1.51974e+01 
-2.57186e+00  1.52041e+01 
-2.75780e+00  1.52112e+01 
-2.94416e+00  1.52189e+01 
-3.13104e+00  1.52270e+01 
-3.31841e+00  1.52356e+01 
-3.50636e+00  1.52447e+01 
-3.69485e+00  1.52543e+01 
-3.88399e+00  1.52645e+01 
-4.07373e+00  1.52750e+01 
-4.26417e+00  1.52861e+01 
-4.45528e+00  1.52977e+01 
-4.64715e+00  1.53098e+01 
-4.83974e+00  1.53224e+01 
-5.03316e+00  1.53355e+01 
-5.22736e+00  1.53490e+01 
-5.42245e+00  1.53631e+01 
-5.61838e+00  1.53777e+01 
-5.81525e+00  1.53927e+01 
-6.01302e+00  1.54083e+01 
-6.21180e+00  1.54243e+01 
-6.41154e+00  1.54409e+01 
-6.61235e+00  1.54579e+01 
-6.81417e+00  1.54755e+01 
-7.01712e+00  1.54935e+01 
-7.22115e+00  1.55120e+01 
-7.42637e+00  1.55310e+01 
-7.63272e+00  1.55506e+01 
-7.84032e+00  1.55706e+01 
-8.04912e+00  1.55911e+01 
-8.25922e+00  1.56121e+01 
-8.47058e+00  1.56336e+01 
-8.68331e+00  1.56556e+01 
-8.89736e+00  1.56781e+01 
-9.11284e+00  1.57011e+01 
-9.32969e+00  1.57245e+01 
-9.54804e+00  1.57485e+01 </DataArray>
         </PointData>
         <CellData/>
      </Piece>
   </UnstructuredGrid>
</VTKFile>