<?xml version="1.0" encoding="utf-8"?>
<VTKFile byte_order="LittleEndian" type="UnstructuredGrid" version="0.1">
   <UnstructuredGrid>
      <Piece NumberOfCells="3168" NumberOfPoints="1692">
         <Points>
            <DataArray Name="Points" NumberOfComponents="3" format="ascii" type="Float32">
0.8333 0.0000 0.0000
0.8333 0.0051 0.0000
0.8333 0.0101 0.0000
0.8333 0.0152 0.0000
0.8333 0.0202 0.0000
0.8333 0.0253 0.0000
0.8333 0.0303 0.0000
0.8333 0.0354 0.0000
0.8333 0.0404 0.0000
0.8333 0.0455 0.0000
0.8333 0.0505 0.0000
0.8333 0.0556 0.0000
0.8333 0.0606 0.0000
0.8333 0.0657 0.0000
0.8333 0.0707 0.0000
0.8333 0.0758 0.0000
0.8333 0.0808 0.0000
0.8333 0.0859 0.0000
0.8333 0.0909 0.0000
0.8333 0.0960 0.0000
0.8333 0.1010 0.0000
0.8333 0.1061 0.0000
0.8333 0.1111 0.0000
0.8333 0.1162 0.0000
0.8333 0.1212 0.0000
0.8333 0.1263 0.0000
0.8333 0.1313 0.0000
0.8333 0.1364 0.0000
0.8333 0.1414 0.0000
0.8333 0.1465 0.0000
0.8333 0.1515 0.0000
0.8333 0.1566 0.0000
0.8333 0.1616 0.0000
0.8333 0.1667 0.0000
0.8333 0.1717 0.0000
0.8333 0.1768 0.0000
0.8333 0.1818 0.0000
0.8333 0.1869 0.0000
0.8333 0.1919 0.0000
0.8333 0.1970 0.0000
0.8333 0.2020 0.0000
0.8333 0.2071 0.0000
0.8333 0.2121 0.0000
0.8333 0.2172 0.0000
0.8333 0.2222 0.0000
0.8333 0.2273 0.0000
0.8333 0.2323 0.0000
0.8333 0.2374 0.0000
0.8333 0.2424 0.0000
0.8333 0.2475 0.0000
0.8333 0.2525 0.0000
0.8333 0.2576 0.0000
0.8333 0.2626 0.0000
0.8333 0.2677 0.0000
0.8333 0.2727 0.0000
0.8333 0.2778 0.0000
0.8333 0.2828 0.0000
0.8333 0.2879 0.0000
0.8333 0.2929 0.0000
0.8333 0.2980 0.0000
0.8333 0.3030 0.0000
0.8333 0.3081 0.0000
0.8333 0.3131 0.0000
0.8333 0.3182 0.0000
0.8333 0.3232 0.0000
0.8333 0.3283 0.0000
0.8333 0.3333 0.0000
0.8333 0.3384 0.0000
0.8333 0.3434 0.0000
0.8333 0.3485 0.0000
0.8333 0.3535 0.0000
0.8333 0.3586 0.0000
0.8333 0.3636 0.0000
0.8333 0.3687 0.0000
0.8333 0.3737 0.0000
0.8333 0.3788 0.0000
0.8333 0.3838 0.0000
0.8333 0.3889 0.0000
0.8333 0.3939 0.0000
0.8333 0.3990 0.0000
0.8333 0.4040 0.0000
0.8333 0.4091 0.0000
0.8333 0.4141 0.0000
0.8333 0.4192 0.0000
0.8333 0.4242 0.0000
0.8333 0.4293 0.0000
0.8333 0.4343 0.0000
0.8333 0.4394 0.0000
0.8333 0.4444 0.0000
0.8333 0.4495 0.0000
0.8333 0.4545 0.0000
0.8333 0.4596 0.0000
0.8333 0.4646 0.0000
0.8333 0.4697 0.0000
0.8333 0.4747 0.0000
0.8333 0.4798 0.0000
0.8333 0.4848 0.0000
0.8333 0.4899 0.0000
0.8333 0.4949 0.0000
0.8333 0.5000 0.0000
0.8542 0.0000 0.0000
0.8542 0.0051 0.0000
0.8542 0.0101 0.0000
0.8542 0.0152 0.0000
0.8542 0.0202 0.0000
0.8542 0.0253 0.0000
0.8542 0.0303 0.0000
0.8542 0.0354 0.0000
0.8542 0.0404 0.0000
0.8542 0.0455 0.0000
0.8542 0.0505 0.0000
0.8542 0.0556 0.0000
0.8542 0.0606 0.0000
0.8542 0.0657 0.0000
0.8542 0.0707 0.0000
0.8542 0.0758 0.0000
0.8542 0.0808 0.0000
0.8542 0.0859 0.0000
0.8542 0.0909 0.0000
0.8542 0.0960 0.0000
0.8542 0.1010 0.0000
0.8542 0.1061 0.0000
0.8542 0.1111 0.0000
0.8542 0.1162 0.0000
0.8542 0.1212 0.0000
0.8542 0.1263 0.0000
0.8542 0.1313 0.0000
0.8542 0.1364 0.0000
0.8542 0.1414 0.0000
0.8542 0.1465 0.0000
0.8542 0.1515 0.0000
0.8542 0.1566 0.0000
0.8542 0.1616 0.0000
0.8542 0.1667 0.0000
0.8542 0.1717 0.0000
0.8542 0.1768 0.0000
0.8542 0.1818 0.0000
0.8542 0.1869 0.0000
0.8542 0.1919 0.0000
0.8542 0.1970 0.0000
0.8542 0.2020 0.0000
0.8542 0.2071 0.0000
0.8542 0.2121 0.0000
0.8542 0.2172 0.0000
0.8542 0.2222 0.0000
0.8542 0.2273 0.0000
0.8542 0.2323 0.0000
0.8542 0.2374 0.0000
0.8542 0.2424 0.0000
0.8542 0.2475 0.0000
0.8542 0.2525 0.0000
0.8542 0.2576 0.0000
0.8542 0.2626 0.0000
0.8542 0.2677 0.0000
0.8542 0.2727 0.0000
0.8542 0.2778 0.0000
0.8542 0.2828 0.0000
0.8542 0.2879 0.0000
0.8542 0.2929 0.0000
0.8542 0.2980 0.0000
0.8542 0.3030 0.0000
0.8542 0.3081 0.0000
0.8542 0.3131 0.0000
0.8542 0.3182 0.0000
0.8542 0.3232 0.0000
0.8542 0.3283 0.0000
0.8542 0.3333 0.0000
0.8542 0.3384 0.0000
0.8542 0.3434 0.0000
0.8542 0.3485 0.0000
0.8542 0.3535 0.0000
0.8542 0.3586 0.0000
0.8542 0.3636 0.0000
0.8542 0.3687 0.0000
0.8542 0.3737 0.0000
0.8542 0.3788 0.0000
0.8542 0.3838 0.0000
0.8542 0.3889 0.0000
0.8542 0.3939 0.0000
0.8542 0.3990 0.0000
0.8542 0.4040 0.0000
0.8542 0.4091 0.0000
0.8542 0.4141 0.0000
0.8542 0.4192 0.0000
0.8542 0.4242 0.0000
0.8542 0.4293 0.0000
0.8542 0.4343 0.0000
0.8542 0.4394 0.0000
0.8542 0.4444 0.0000
0.8542 0.4495 0.0000
0.8542 0.4545 0.0000
0.8542 0.4596 0.0000
0.8542 0.4646 0.0000
0.8542 0.4697 0.0000
0.8542 0.4747 0.0000
0.8542 0.4798 0.0000
0.8542 0.4848 0.0000
0.8542 0.4899 0.0000
0.8542 0.4949 0.0000
0.8542 0.5000 0.0000
0.8750 0.0000 0.0000
0.8750 0.0051 0.0000
0.8750 0.0101 0.0000
0.8750 0.0152 0.0000
0.8750 0.0202 0.0000
0.8750 0.0253 0.0000
0.8750 0.0303 0.0000
0.8750 0.0354 0.0000
0.8750 0.0404 0.0000
0.8750 0.0455 0.0000
0.8750 0.0505 0.0000
0.8750 0.0556 0.0000
0.8750 0.0606 0.0000
0.8750 0.0657 0.0000
0.8750 0.0707 0.0000
0.8750 0.0758 0.0000
0.8750 0.0808 0.0000
0.8750 0.0859 0.0000
0.8750 0.0909 0.0000
0.8750 0.0960 0.0000
0.8750 0.1010 0.0000
0.8750 0.1061 0.0000
0.8750 0.1111 0.0000
0.8750 0.1162 0.0000
0.8750 0.1212 0.0000
0.8750 0.1263 0.0000
0.8750 0.1313 0.0000
0.8750 0.1364 0.0000
0.8750 0.1414 0.0000
0.8750 0.1465 0.0000
0.8750 0.1515 0.0000
0.8750 0.1566 0.0000
0.8750 0.1616 0.0000
0.8750 0.1667 0.0000
0.8750 0.1717 0.0000
0.8750 0.1768 0.0000
0.8750 0.1818 0.0000
0.8750 0.1869 0.0000
0.8750 0.1919 0.0000
0.8750 0.1970 0.0000
0.8750 0.2020 0.0000
0.8750 0.2071 0.0000
0.8750 0.2121 0.0000
0.8750 0.2172 0.0000
0.8750 0.2222 0.0000
0.8750 0.2273 0.0000
0.8750 0.2323 0.0000
0.8750 0.2374 0.0000
0.8750 0.2424 0.0000
0.8750 0.2475 0.0000
0.8750 0.2525 0.0000
0.8750 0.2576 0.0000
0.8750 0.2626 0.0000
0.8750 0.2677 0.0000
0.8750 0.2727 0.0000
0.8750 0.2778 0.0000
0.8750 0.2828 0.0000
0.8750 0.2879 0.0000
0.8750 0.2929 0.0000
0.8750 0.2980 0.0000
0.8750 0.3030 0.0000
0.8750 0.3081 0.0000
0.8750 0.3131 0.0000
0.8750 0.3182 0.0000
0.8750 0.3232 0.0000
0.8750 0.3283 0.0000
0.8750 0.3333 0.0000
0.8750 0.3384 0.0000
0.8750 0.3434 0.0000
0.8750 0.3485 0.0000
0.8750 0.3535 0.0000
0.8750 0.3586 0.0000
0.8750 0.3636 0.0000
0.8750 0.3687 0.0000
0.8750 0.3737 0.0000
0.8750 0.3788 0.0000
0.8750 0.3838 0.0000
0.8750 0.3889 0.0000
0.8750 0.3939 0.0000
0.8750 0.3990 0.0000
0.8750 0.4040 0.0000
0.8750 0.4091 0.0000
0.8750 0.4141 0.0000
0.8750 0.4192 0.0000
0.8750 0.4242 0.0000
0.8750 0.4293 0.0000
0.8750 0.4343 0.0000
0.8750 0.4394 0.0000
0.8750 0.4444 0.0000
0.8750 0.4495 0.0000
0.8750 0.4545 0.0000
0.8750 0.4596 0.0000
0.8750 0.4646 0.0000
0.8750 0.4697 0.0000
0.8750 0.4747 0.0000
0.8750 0.4798 0.0000
0.8750 0.4848 0.0000
0.8750 0.4899 0.0000
0.8750 0.4949 0.0000
0.8750 0.5000 0.0000
0.8958 0.0000 0.0000
0.8958 0.0051 0.0000
0.8958 0.0101 0.0000
0.8958 0.0152 0.0000
0.8958 0.0202 0.0000
0.8958 0.0253 0.0000
0.8958 0.0303 0.0000
0.8958 0.0354 0.0000
0.8958 0.0404 0.0000
0.8958 0.0455 0.0000
0.8958 0.0505 0.0000
0.8958 0.0556 0.0000
0.8958 0.0606 0.0000
0.8958 0.0657 0.0000
0.8958 0.0707 0.0000
0.8958 0.0758 0.0000
0.8958 0.0808 0.0000
0.8958 0.0859 0.0000
0.8958 0.0909 0.0000
0.8958 0.0960 0.0000
0.8958 0.1010 0.0000
0.8958 0.1061 0.0000
0.8958 0.1111 0.0000
0.8958 0.1162 0.0000
0.8958 0.1212 0.0000
0.8958 0.1263 0.0000
0.8958 0.1313 0.0000
0.8958 0.1364 0.0000
0.8958 0.1414 0.0000
0.8958 0.1465 0.0000
0.8958 0.1515 0.0000
0.8958 0.1566 0.0000
0.8958 0.1616 0.0000
0.8958 0.1667 0.0000
0.8958 0.1717 0.0000
0.8958 0.1768 0.0000
0.8958 0.1818 0.0000
0.8958 0.1869 0.0000
0.8958 0.1919 0.0000
0.8958 0.1970 0.0000
0.8958 0.2020 0.0000
0.8958 0.2071 0.0000
0.8958 0.2121 0.0000
0.8958 0.2172 0.0000
0.8958 0.2222 0.0000
0.8958 0.2273 0.0000
0.8958 0.2323 0.0000
0.8958 0.2374 0.0000
0.8958 0.2424 0.0000
0.8958 0.2475 0.0000
0.8958 0.2525 0.0000
0.8958 0.2576 0.0000
0.8958 0.2626 0.0000
0.8958 0.2677 0.0000
0.8958 0.2727 0.0000
0.8958 0.2778 0.0000
0.8958 0.2828 0.0000
0.8958 0.2879 0.0000
0.8958 0.2929 0.0000
0.8958 0.2980 0.0000
0.8958 0.3030 0.0000
0.8958 0.3081 0.0000
0.8958 0.3131 0.0000
0.8958 0.3182 0.0000
0.8958 0.3232 0.0000
0.8958 0.3283 0.0000
0.8958 0.3333 0.0000
0.8958 0.3384 0.0000
0.8958 0.3434 0.0000
0.8958 0.3485 0.0000
0.8958 0.3535 0.0000
0.8958 0.3586 0.0000
0.8958 0.3636 0.0000
0.8958 0.3687 0.0000
0.8958 0.3737 0.0000
0.8958 0.3788 0.0000
0.8958 0.3838 0.0000
0.8958 0.3889 0.0000
0.8958 0.3939 0.0000
0.8958 0.3990 0.0000
0.8958 0.4040 0.0000
0.8958 0.4091 0.0000
0.8958 0.4141 0.0000
0.8958 0.4192 0.0000
0.8958 0.4242 0.0000
0.8958 0.4293 0.0000
0.8958 0.4343 0.0000
0.8958 0.4394 0.0000
0.8958 0.4444 0.0000
0.8958 0.4495 0.0000
0.8958 0.4545 0.0000
0.8958 0.4596 0.0000
0.8958 0.4646 0.0000
0.8958 0.4697 0.0000
0.8958 0.4747 0.0000
0.8958 0.4798 0.0000
0.8958 0.4848 0.0000
0.8958 0.4899 0.0000
0.8958 0.4949 0.0000
0.8958 0.5000 0.0000
0.9167 0.0000 0.0000
0.9167 0.0051 0.0000
0.9167 0.0101 0.0000
0.9167 0.0152 0.0000
0.9167 0.0202 0.0000
0.9167 0.0253 0.0000
0.9167 0.0303 0.0000
0.9167 0.0354 0.0000
0.9167 0.0404 0.0000
0.9167 0.0455 0.0000
0.9167 0.0505 0.0000
0.9167 0.0556 0.0000
0.9167 0.0606 0.0000
0.9167 0.0657 0.0000
0.9167 0.0707 0.0000
0.9167 0.0758 0.0000
0.9167 0.0808 0.0000
0.9167 0.0859 0.0000
0.9167 0.0909 0.0000
0.9167 0.0960 0.0000
0.9167 0.1010 0.0000
0.9167 0.1061 0.0000
0.9167 0.1111 0.0000
0.9167 0.1162 0.0000
0.9167 0.1212 0.0000
0.9167 0.1263 0.0000
0.9167 0.1313 0.0000
0.9167 0.1364 0.0000
0.9167 0.1414 0.0000
0.9167 0.1465 0.0000
0.9167 0.1515 0.0000
0.9167 0.1566 0.0000
0.9167 0.1616 0.0000
0.9167 0.1667 0.0000
0.9167 0.1717 0.0000
0.9167 0.1768 0.0000
0.9167 0.1818 0.0000
0.9167 0.1869 0.0000
0.9167 0.1919 0.0000
0.9167 0.1970 0.0000
0.9167 0.2020 0.0000
0.9167 0.2071 0.0000
0.9167 0.2121 0.0000
0.9167 0.2172 0.0000
0.9167 0.2222 0.0000
0.9167 0.2273 0.0000
0.9167 0.2323 0.0000
0.9167 0.2374 0.0000
0.9167 0.2424 0.0000
0.9167 0.2475 0.0000
0.9167 0.2525 0.0000
0.9167 0.2576 0.0000
0.9167 0.2626 0.0000
0.9167 0.2677 0.0000
0.9167 0.2727 0.0000
0.9167 0.2778 0.0000
0.9167 0.2828 0.0000
0.9167 0.2879 0.0000
0.9167 0.2929 0.0000
0.9167 0.2980 0.0000
0.9167 0.3030 0.0000
[...]
         <PointData>
            <DataArray Name="fValues" NumberOfComponents="2" format="ascii" type="Float64">
 1.17562e+04  2.93451e+04 
 1.14943e+04  2.93352e+04 
 1.12337e+04  2.93256e+04 
 1.09741e+04  2.93162e+04 
 1.07157e+04  2.93071e+04 
 1.04584e+04  2.92982e+04 
 1.02023e+04  2.92897e+04 
 9.94728e+03  2.92815e+04 
 9.69351e+03  2.92736e+04 
 9.44084e+03  2.92660e+04 
 9.18942e+03  2.92586e+04 
 8.93910e+03  2.92516e+04 
 8.69001e+03  2.92449e+04 
 8.44203e+03  2.92385e+04 
 8.19528e+03  2.92323e+04 
 7.94961e+03  2.92264e+04 
 7.70516e+03  2.92208e+04 
 7.46178e+03  2.92154e+04 
 7.21957e+03  2.92103e+04 
 6.97841e+03  2.92055e+04 
 6.73839e+03  2.92008e+04 
 6.49937e+03  2.91964e+04 
 6.26145e+03  2.91922e+04 
 6.02448e+03  2.91882e+04 
 5.78855e+03  2.91844e+04 
 5.55353e+03  2.91808e+04 
 5.31949e+03  2.91773e+04 
 5.08629e+03  2.91741e+04 
 4.85402e+03  2.91710e+04 
 4.62252e+03  2.91681e+04 
 4.39189e+03  2.91654e+04 
 4.16195e+03  2.91628e+04 
 3.93280e+03  2.91603e+04 
 3.70429e+03  2.91580e+04 
 3.47649e+03  2.91559e+04 
 3.24925e+03  2.91539e+04 
 3.02265e+03  2.91521e+04 
 2.79653e+03  2.91504e+04 
 2.57098e+03  2.91488e+04 
 2.34582e+03  2.91474e+04 
 2.12116e+03  2.91461e+04 
 1.89681e+03  2.91449e+04 
 1.67287e+03  2.91439e+04 
 1.44918e+03  2.91430e+04 
 1.22581e+03  2.91422e+04 
 1.00260e+03  2.91415e+04 
 7.79637e+02  2.91410e+04 
 5.56756e+02  2.91406e+04 
 3.34037e+02  2.91404e+04 
 1.11319e+02  2.91403e+04 
-1.11319e+02  2.91403e+04 
-3.34037e+02  2.91404e+04 
-5.56756e+02  2.91406e+04 
-7.79637e+02  2.91410e+04 
-1.00260e+03  2.91415e+04 
-1.22581e+03  2.91422e+04 
-1.44918e+03  2.91430e+04 
-1.67287e+03  2.91439e+04 
-1.89681e+03  2.91449e+04 
-2.12116e+03  2.91461e+04 
-2.34582e+03  2.91474e+04 
-2.57098e+03  2.91488e+04 
-2.79653e+03  2.91504e+04 
-3.02265e+03  2.91521e+04 
-3.24925e+03  2.91539e+04 
-3.47649e+03  2.91559e+04 
-3.70429e+03  2.91580e+04 
-3.93280e+03  2.91603e+04 
-4.16195e+03  2.91628e+04 
-4.39189e+03  2.91654e+04 
-4.62252e+03  2.91681e+04 
-4.85402e+03  2.91710e+04 
-5.08629e+03  2.91741e+04 
-5.31949e+03  2.91773e+04 
-5.55353e+03  2.91808e+04 
-5.78855e+03  2.91844e+04 
-6.02448e+03  2.91882e+04 
-6.26145e+03  2.91922e+04 
-6.49937e+03  2.91964e+04 
-6.73839e+03  2.92008e+04 
-6.97841e+03  2.92055e+04 
-7.21957e+03  2.92103e+04 
-7.46178e+03  2.92154e+04 
-7.70516e+03  2.92208e+04 
-7.94961e+03  2.92264e+04 
-8.19528e+03  2.92323e+04 
-8.44203e+03  2.92385e+04 
-8.69001e+03  2.92449e+04 
-8.93910e+03  2.92516e+04 
-9.18942e+03  2.92586e+04 
-9.44084e+03  2.92660e+04 
-9.69351e+03  2.92736e+04 
-9.94728e+03  2.92815e+04 
-1.02023e+04  2.92897e+04 
-1.04584e+04  2.92982e+04 
-1.07157e+04  2.93071e+04 
-1.09741e+04  2.93162e+04 
-1.12337e+04  2.93256e+04 
-1.14943e+04  2.93352e+04 
-1.17562e+04  2.93451e+04 
 1.18442e+04  3.04320e+04 
 1.15801e+04  3.04229e+04 
 1.13171e+04  3.04141e+04 
 1.10551e+04  3.04056e+04 
 1.07942e+04  3.03973e+04 
 1.05344e+04  3.03894e+04 
 1.02758e+04  3.03817e+04 
 1.00183e+04  3.03744e+04 
 9.76196e+03  3.03674e+04 
 9.50677e+03  3.03607e+04 
 9.25284e+03  3.03543e+04 
 9.00006e+03  3.03482e+04 
 8.74854e+03  3.03424e+04 
 8.49820e+03  3.03369e+04 
 8.24912e+03  3.03317e+04 
 8.00120e+03  3.03266e+04 
 7.75454e+03  3.03219e+04 
 7.50903e+03  3.03173e+04 
 7.26474e+03  3.03130e+04 
 7.02157e+03  3.03089e+04 
 6.77959e+03  3.03050e+04 
 6.53869e+03  3.03013e+04 
 6.29892e+03  3.02977e+04 
 6.06018e+03  3.02943e+04 
 5.82252e+03  3.02911e+04 
 5.58583e+03  3.02881e+04 
 5.35015e+03  3.02852e+04 
 5.11538e+03  3.02824e+04 
 4.88156e+03  3.02798e+04 
 4.64856e+03  3.02773e+04 
 4.41644e+03  3.02749e+04 
 4.18508e+03  3.02727e+04 
 3.95452e+03  3.02706e+04 
 3.72464e+03  3.02686e+04 
 3.49548e+03  3.02668e+04 
 3.26692e+03  3.02650e+04 
 3.03901e+03  3.02634e+04 
 2.81161e+03  3.02619e+04 
 2.58478e+03  3.02605e+04 
 2.35839e+03  3.02592e+04 
 2.13247e+03  3.02581e+04 
 1.90691e+03  3.02571e+04 
 1.68175e+03  3.02561e+04 
 1.45686e+03  3.02553e+04 
 1.23229e+03  3.02546e+04 
 1.00790e+03  3.02541e+04 
 7.83746e+02  3.02536e+04 
 5.59696e+02  3.02533e+04 
 3.35792e+02  3.02530e+04 
 1.11910e+02  3.02529e+04 
-1.11910e+02  3.02529e+04 
-3.35792e+02  3.02530e+04 
-5.59696e+02  3.02533e+04 
-7.83746e+02  3.02536e+04 
-1.00790e+03  3.02541e+04 
-1.23229e+03  3.02546e+04 
-1.45686e+03  3.02553e+04 
-1.68175e+03  3.02561e+04 
-1.90691e+03  3.02571e+04 
-2.13247e+03  3.02581e+04 
-2.35839e+03  3.02592e+04 
-2.58478e+03  3.02605e+04 
-2.81161e+03  3.02619e+04 
-3.03901e+03  3.02634e+04 
-3.26692e+03  3.02650e+04 
-3.49548e+03  3.02668e+04 
-3.72464e+03  3.02686e+04 
-3.95452e+03  3.02706e+04 
-4.18508e+03  3.02727e+04 
-4.41644e+03  3.02749e+04 
-4.64856e+03  3.02773e+04 
-4.88156e+03  3.02798e+04 
-5.11538e+03  3.02824e+04 
-5.35015e+03  3.02852e+04 
-5.58583e+03  3.02881e+04 
-5.82252e+03  3.02911e+04 
-6.06018e+03  3.02943e+04 
-6.29892e+03  3.02977e+04 
-6.53869e+03  3.03013e+04 
-6.77959e+03  3.03050e+04 
-7.02157e+03  3.03089e+04 
-7.26474e+03  3.03130e+04 
-7.50903e+03  3.03173e+04 
-7.75454e+03  3.03219e+04 
-8.00120e+03  3.03266e+04 
-8.24912e+03  3.03317e+04 
-8.49820e+03  3.03369e+04 
-8.74854e+03  3.03424e+04 
-9.00006e+03  3.03482e+04 
-9.25284e+03  3.03543e+04 
-9.50677e+03  3.03607e+04 
-9.76196e+03  3.03674e+04 
-1.00183e+04  3.03744e+04 
-1.02758e+04  3.03817e+04 
-1.05344e+04  3.03894e+04 
-1.07942e+04  3.03973e+04 
-1.10551e+04  3.04056e+04 
-1.13171e+04  3.04141e+04 
-1.15801e+04  3.04229e+04 
-1.18442e+04  3.04320e+04 
 1.19252e+04  3.15281e+04 
 1.16587e+04  3.15197e+04 
 1.13932e+04  3.15116e+04 
 1.11286e+04  3.15039e+04 
 1.08651e+04  3.14965e+04 
 1.06026e+04  3.14894e+04 
 1.03413e+04  3.14826e+04 
 1.00811e+04  3.14762e+04 
 9.82210e+03  3.14701e+04 
 9.56432e+03  3.14644e+04 
 9.30784e+03  3.14589e+04 
 9.05258e+03  3.14537e+04 
 8.79867e+03  3.14488e+04 
 8.54602e+03  3.14441e+04 
 8.29471e+03  3.14397e+04 
 8.04466e+03  3.14355e+04 
 7.79595e+03  3.14315e+04 
 7.54847e+03  3.14277e+04 
 7.30231e+03  3.14241e+04 
 7.05733e+03  3.14206e+04 
 6.81363e+03  3.14173e+04 
 6.57107e+03  3.14141e+04 
 6.32972e+03  3.14111e+04 
 6.08945e+03  3.14081e+04 
 5.85033e+03  3.14053e+04 
 5.61222e+03  3.14027e+04 
 5.37519e+03  3.14001e+04 
 5.13909e+03  3.13976e+04 
 4.90399e+03  3.13953e+04 
 4.66976e+03  3.13930e+04 
 4.43643e+03  3.13909e+04 
 4.20390e+03  3.13888e+04 
 3.97219e+03  3.13869e+04 
 3.74118e+03  3.13850e+04 
 3.51093e+03  3.13833e+04 
 3.28129e+03  3.13816e+04 
 3.05232e+03  3.13801e+04 
 2.82388e+03  3.13786e+04 
 2.59602e+03  3.13773e+04 
 2.36860e+03  3.13761e+04 
 2.14169e+03  3.13750e+04 
 1.91513e+03  3.13740e+04 
 1.68899e+03  3.13730e+04 
 1.46312e+03  3.13723e+04 
 1.23757e+03  3.13716e+04 
 1.01222e+03  3.13710e+04 
 7.87098e+02  3.13706e+04 
 5.62087e+02  3.13702e+04 
 3.37227e+02  3.13700e+04 
 1.12387e+02  3.13699e+04 
-1.12387e+02  3.13699e+04 
-3.37227e+02  3.13700e+04 
-5.62087e+02  3.13702e+04 
-7.87098e+02  3.13706e+04 
-1.01222e+03  3.13710e+04 
-1.23757e+03  3.13716e+04 
-1.46312e+03  3.13723e+04 
-1.68899e+03  3.13730e+04 
-1.91513e+03  3.13740e+04 
-2.14169e+03  3.13750e+04 
-2.36860e+03  3.13761e+04 
-2.59602e+03  3.13773e+04 
-2.82388e+03  3.13786e+04 
-3.05232e+03  3.13801e+04 
-3.28129e+03  3.13816e+04 
-3.51093e+03  3.13833e+04 
-3.74118e+03  3.13850e+04 
-3.97219e+03  3.13869e+04 
-4.20390e+03  3.13888e+04 
-4.43643e+03  3.13909e+04 
-4.66976e+03  3.13930e+04 
-4.90399e+03  3.13953e+04 
-5.13909e+03  3.13976e+04 
-5.37519e+03  3.14001e+04 
-5.61222e+03  3.14027e+04 
-5.85033e+03  3.14053e+04 
-6.08945e+03  3.14081e+04 
-6.32972e+03  3.14111e+04 
-6.57107e+03  3.14141e+04 
-6.81363e+03  3.14173e+04 
-7.05733e+03  3.14206e+04 
-7.30231e+03  3.14241e+04 
-7.54847e+03  3.14277e+04 
-7.79595e+03  3.14315e+04 
-8.04466e+03  3.14355e+04 
-8.29471e+03  3.14397e+04 
-8.54602e+03  3.14441e+04 
-8.79867e+03  3.14488e+04 
-9.05258e+03  3.14537e+04 
-9.30784e+03  3.14589e+04 
-9.56432e+03  3.14644e+04 
-9.82210e+03  3.14701e+04 
-1.00811e+04  3.14762e+04 
-1.03413e+04  3.14826e+04 
-1.06026e+04  3.14894e+04 
-1.08651e+04  3.14965e+04 
-1.11286e+04  3.15039e+04 
-1.13932e+04  3.15116e+04 
-1.16587e+04  3.15197e+04 
-1.19252e+04  3.15281e+04 
 1.20001e+04  3.26343e+04 
 1.17308e+04  3.26265e+04 
 1.14625e+04  3.26192e+04 
 1.11949e+04  3.26122e+04 
 1.09284e+04  3.26055e+04 
 1.06629e+04  3.25993e+04 
 1.03986e+04  3.25934e+04 
 1.01355e+04  3.25879e+04 
 9.87373e+03  3.25827e+04 
 9.61323e+03  3.25779e+04 
 9.35416e+03  3.25733e+04 
 9.09644e+03  3.25689e+04 
 8.84019e+03  3.25648e+04 
 8.58533e+03  3.25609e+04 
 8.33196e+03  3.25572e+04 
 8.07995e+03  3.25537e+04 
 7.82942e+03  3.25503e+04 
 7.58022e+03  3.25470e+04 
 7.33243e+03  3.25438e+04 
 7.08594e+03  3.25407e+04 
 6.84080e+03  3.25377e+04 
 6.59688e+03  3.25348e+04 
 6.35424e+03  3.25320e+04 
 6.11274e+03  3.25292e+04 
 5.87245e+03  3.25265e+04 
 5.63322e+03  3.25239e+04 
 5.39511e+03  3.25214e+04 
 5.15798e+03  3.25189e+04 
 4.92187e+03  3.25165e+04 
 4.68667e+03  3.25142e+04 
 4.45240e+03  3.25120e+04 
 4.21894e+03  3.25098e+04 
 3.98634e+03  3.25078e+04 
 3.75445e+03  3.25058e+04 
 3.52334e+03  3.25039e+04 
 3.29285e+03  3.25021e+04 
 3.06304e+03  3.25005e+04 
 2.83377e+03  3.24989e+04 
 2.60509e+03  3.24974e+04 
 2.37687e+03  3.24961e+04 
 2.14914e+03  3.24948e+04 
 1.92179e+03  3.24937e+04 
 1.69485e+03  3.24927e+04 
 1.46819e+03  3.24918e+04 
 1.24186e+03  3.24910e+04 
 1.01572e+03  3.24904e+04 
 7.89823e+02  3.24898e+04 
 5.64032e+02  3.24895e+04 
 3.38394e+02  3.24892e+04 
 1.12776e+02  3.24891e+04 
-1.12776e+02  3.24891e+04 
-3.38394e+02  3.24892e+04 
-5.64032e+02  3.24895e+04 
-7.89823e+02  3.24898e+04 
-1.01572e+03  3.24904e+04 
-1.24186e+03  3.24910e+04 
-1.46819e+03  3.24918e+04 
-1.69485e+03  3.24927e+04 
-1.92179e+03  3.24937e+04 
-2.14914e+03  3.24948e+04 
-2.37687e+03  3.24961e+04 
-2.60509e+03  3.24974e+04 
-2.83377e+03  3.24989e+04 
-3.06304e+03  3.25005e+04 
-3.29285e+03  3.25021e+04 
-3.52334e+03  3.25039e+04 
-3.75445e+03  3.25058e+04 
-3.98634e+03  3.25078e+04 
-4.21894e+03  3.25098e+04 
-4.45240e+03  3.25120e+04 
-4.68667e+03  3.25142e+04 
-4.92187e+03  3.25165e+04 
-5.15798e+03  3.25189e+04 
-5.39511e+03  3.25214e+04 
-5.63322e+03  3.25239e+04 
-5.87245e+03  3.25265e+04 
-6.11274e+03  3.25292e+04 
-6.35424e+03  3.25320e+04 
-6.59688e+03  3.25348e+04 
-6.84080e+03  3.25377e+04 
-7.08594e+03  3.25407e+04 
-7.33243e+03  3.25438e+04 
-7.58022e+03  3.25470e+04 
-7.82942e+03  3.25503e+04 
-8.07995e+03  3.25537e+04 
-8.33196e+03  3.25572e+04 
-8.58533e+03  3.25609e+04 
-8.84019e+03  3.25648e+04 
-9.09644e+03  3.25689e+04 
-9.35416e+03  3.25733e+04 
-9.61323e+03  3.25779e+04 
-9.87373e+03  3.25827e+04 
-1.01355e+04  3.25879e+04 
-1.03986e+04  3.25934e+04 
-1.06629e+04  3.25993e+04 
-1.09284e+04  3.26055e+04 
-1.11949e+04  3.26122e+04 
-1.14625e+04  3.26192e+04 
-1.17308e+04  3.26265e+04 
-1.20001e+04  3.26343e+04 
 1.20701e+04  3.37528e+04 
 1.17974e+04  3.37455e+04 
 1.15255e+04  3.37388e+04 
 1.12543e+04  3.37325e+04 
 1.09842e+04  3.37267e+04 
 1.07152e+04  3.37213e+04 
 1.04475e+04  3.37163e+04 
 1.01812e+04  3.37117e+04 
 9.91641e+03  3.37074e+04 
 9.65312e+03  3.37033e+04 
 9.39147e+03  3.36995e+04 
 9.13139e+03  3.36958e+04 
 8.87300e+03  3.36923e+04 
 8.61618e+03  3.36889e+04 
 8.36101e+03  3.36856e+04 
 8.10738e+03  3.36823e+04 
 7.85535e+03  3.36791e+04 
 7.60479e+03  3.36759e+04 
 7.35575e+03  3.36727e+04 
 7.10809e+03  3.36695e+04 
 6.86187e+03  3.36664e+04 
 6.61694e+03  3.36632e+04 
 6.37336e+03  3.36601e+04 
 6.13096e+03  3.36571e+04 
 5.88982e+03  3.36540e+04 
 5.64977e+03  3.36510e+04 
 5.41088e+03  3.36480e+04 
 5.17299e+03  3.36451e+04 
 4.93615e+03  3.36423e+04 
 4.70023e+03  3.36395e+04 
 4.46526e+03  3.36367e+04 
 4.23111e+03  3.36341e+04 
 3.99782e+03  3.36316e+04 
 3.76527e+03  3.36291e+04 
 3.53348e+03  3.36268e+04 
 3.30233e+03  3.36245e+04 
 3.07186e+03  3.36224e+04 
 2.84193e+03  3.36204e+04 
 2.61260e+03  3.36186e+04 
 2.38372e+03  3.36168e+04 
 2.15535e+03  3.36152e+04 
 1.92734e+03  3.36138e+04 
 1.69975e+03  3.36125e+04 
 1.47244e+03  3.36114e+04 
 1.24545e+03  3.36104e+04 
 1.01866e+03  3.36096e+04 
 7.92111e+02  3.36089e+04 
 5.65666e+02  3.36084e+04 
 3.39374e+02  3.36081e+04 
 1.13103e+02  3.36079e+04 
-1.13103e+02  3.36079e+04 
-3.39374e+02  3.36081e+04 
-5.65666e+02  3.36084e+04 
-7.92111e+02  3.36089e+04 
-1.01866e+03  3.36096e+04 
-1.24545e+03  3.36104e+04 
-1.47244e+03  3.36114e+04 
-1.69975e+03  3.36125e+04 
-1.92734e+03  3.36138e+04 
-2.15535e+03  3.36152e+04 
-2.38372e+03  3.36168e+04 
-2.61260e+03  3.36186e+04 
-2.84193e+03  3.36204e+04 
-3.07186e+03  3.36224e+04 
-3.30233e+03  3.36245e+04 
-3.53348e+03  3.36268e+04 
-3.76527e+03  3.36291e+04 
-3.99782e+03  3.36316e+04 
-4.23111e+03  3.36341e+04 
-4.46526e+03  3.36367e+04 
-4.70023e+03  3.36395e+04 
-4.93615e+03  3.36423e+04 
-5.17299e+03  3.36451e+04 
-5.41088e+03  3.36480e+04 
-5.64977e+03  3.36510e+04 
-5.88982e+03  3.36540e+04 
-6.13096e+03  3.36571e+04 
-6.37336e+03  3.36601e+04 
-6.61694e+03  3.36632e+04 
-6.86187e+03  3.36664e+04 
-7.10809e+03  3.36695e+04 
-7.35575e+03  3.36727e+04 
-7.60479e+03  3.36759e+04 
-7.85535e+03  3.36791e+04 
-8.10738e+03  3.36823e+04 
-8.36101e+03  3.36856e+04 
-8.61618e+03  3.36889e+04 
-8.87300e+03  3.36923e+04 
-9.13139e+03  3.36958e+04 
-9.39147e+03  3.36995e+04 
-9.65312e+03  3.37033e+04 
-9.91641e+03  3.37074e+04 
-1.01812e+04  3.37117e+04 
-1.04475e+04  3.37163e+04 
-1.07152e+04  3.37213e+04 
-1.09842e+04  3.37267e+04 
-1.12543e+04  3.37325e+04 
-1.15255e+04  3.37388e+04 
-1.17974e+04  3.37455e+04 
-1.20701e+04  3.37528e+04 
 1.21366e+04  3.48873e+04 
 1.18592e+04  3.48805e+04 
 1.15825e+04  3.48743e+04 
 1.13066e+04  3.48688e+04 
 1.10319e+04  3.48638e+04 
 1.07587e+04  3.48594e+04 
 1.04871e+04  3.48553e+04 
 1.02174e+04  3.48515e+04 
 9.94954e+03  3.48478e+04 
 9.68362e+03  3.48443e+04 
 9.41969e+03  3.48408e+04 
 9.15764e+03  3.48373e+04 
 8.89754e+03  3.48338e+04 
 8.63923e+03  3.48302e+04 
 8.38278e+03  3.48265e+04 
 8.12802e+03  3.48228e+04 
 7.87500e+03  3.48189e+04 
 7.62355e+03  3.48150e+04 
 7.37371e+03  3.48111e+04 
 7.12532e+03  3.48070e+04 
 6.87843e+03  3.48029e+04 
 6.63287e+03  3.47988e+04 
 6.38869e+03  3.47947e+04 
 6.14573e+03  3.47906e+04 
 5.90403e+03  3.47864e+04 
 5.66345e+03  3.47823e+04 
 5.42403e+03  3.47783e+04 
 5.18562e+03  3.47743e+04 
 4.94827e+03  3.47703e+04 
 4.71183e+03  3.47665e+04 
 4.47634e+03  3.47627e+04 
 4.24167e+03  3.47591e+04 
 4.00786e+03  3.47556e+04 
 3.77477e+03  3.47522e+04 
 3.54244e+03  3.47490e+04 
 3.31075e+03  3.47459e+04 
 3.07973e+03  3.47430e+04 
 2.84925e+03  3.47402e+04 
 2.61936e+03  3.47377e+04 
 2.38991e+03  3.47353e+04 
 2.16097e+03  3.47331e+04 
 1.93238e+03  3.47311e+04 
 1.70421e+03  3.47293e+04 
 1.47631e+03  3.47278e+04 
 1.24874e+03  3.47264e+04 
 1.02135e+03  3.47253e+04 
 7.94207e+02  3.47244e+04 
 5.67165e+02  3.47237e+04 
 3.40274e+02  3.47232e+04 
 1.13403e+02  3.47230e+04 
-1.13403e+02  3.47230e+04 
-3.40274e+02  3.47232e+04 
-5.67165e+02  3.47237e+04 
-7.94207e+02  3.47244e+04 
-1.02135e+03  3.47253e+04 
-1.24874e+03  3.47264e+04 
-1.47631e+03  3.47278e+04 
-1.70421e+03  3.47293e+04 
-1.93238e+03  3.47311e+04 
-2.16097e+03  3.47331e+04 
-2.38991e+03  3.47353e+04 
-2.61936e+03  3.47377e+04 
-2.84925e+03  3.47402e+04 
-3.07973e+03  3.47430e+04 
-3.31075e+03  3.47459e+04 
-3.54244e+03  3.47490e+04 
-3.77477e+03  3.47522e+04 
-4.00786e+03  3.47556e+04 
-4.24167e+03  3.47591e+04 
-4.47634e+03  3.47627e+04 
-4.71183e+03  3.47665e+04 
-4.94827e+03  3.47703e+04 
-5.18562e+03  3.47743e+04 
-5.42403e+03  3.47783e+04 
-5.66345e+03  3.47823e+04 
-5.90403e+03  3.47864e+04 
-6.14573e+03  3.47906e+04 
-6.38869e+03  3.47947e+04 
-6.63287e+03  3.47988e+04 
-6.87843e+03  3.48029e+04 
-7.12532e+03  3.48070e+04 
-7.37371e+03  3.48111e+04 
-7.62355e+03  3.48150e+04 
-7.87500e+03  3.48189e+04 
-8.12802e+03  3.48228e+04 
-8.38278e+03  3.48265e+04 
-8.63923e+03  3.48302e+04 
-8.89754e+03  3.48338e+04 
-9.15764e+03  3.48373e+04 
-9.41969e+03  3.48408e+04 
-9.68362e+03  3.48443e+04 
-9.94954e+03  3.48478e+04 
-1.02174e+04  3.48515e+04 
-1.04871e+04  3.48553e+04 
-1.07587e+04  3.48594e+04 
-1.10319e+04  3.48638e+04 
-1.13066e+04  3.48688e+04 
-1.15825e+04  3.48743e+04 
-1.18592e+04  3.48805e+04 
-1.21366e+04  3.48873e+04 
 1.22011e+04  3.60455e+04 
 1.19166e+04  3.60389e+04 
 1.16325e+04  3.60336e+04 
 1.13499e+04  3.60292e+04 
 1.10695e+04  3.60253e+04 
 1.07915e+04  3.60216e+04 
 1.05162e+04  3.60181e+04 
 1.02434e+04  3.60144e+04 
 9.97323e+03  3.60105e+04 
 9.70543e+03  3.60064e+04 
 9.44003e+03  3.60020e+04 
 9.17682e+03  3.59974e+04 
 8.91581e+03  3.59925e+04 
 8.65677e+03  3.59873e+04 
 8.39973e+03  3.59819e+04 
 8.14448e+03  3.59763e+04 
 7.89103e+03  3.59706e+04 
 7.63921e+03  3.59647e+04 
 7.38903e+03  3.59586e+04 
 7.14032e+03  3.59525e+04 
 6.89312e+03  3.59463e+04 
 6.64725e+03  3.59401e+04 
 6.40276e+03  3.59339e+04 
 6.15948e+03  3.59277e+04 
 5.91745e+03  3.59216e+04 
 5.67652e+03  3.59155e+04 
 5.43673e+03  3.59095e+04 
 5.19794e+03  3.59036e+04 
 4.96018e+03  3.58979e+04 
 4.72332e+03  3.58923e+04 
 4.48740e+03  3.58868e+04 
 4.25227e+03  3.58816e+04 
 4.01799e+03  3.58765e+04 
 3.78441e+03  3.58717e+04 
 3.55159e+03  3.58670e+04 
 3.31937e+03  3.58626e+04 
 3.08782e+03  3.58585e+04 
 2.85680e+03  3.58546e+04 
 2.62635e+03  3.58510e+04 
 2.39633e+03  3.58476e+04 
 2.16681e+03  3.58445e+04 
 1.93763e+03  3.58417e+04 
 1.70886e+03  3.58392e+04 
 1.48036e+03  3.58370e+04 
 1.25217e+03  3.58352e+04 
 1.02417e+03  3.58336e+04 
 7.96404e+02  3.58323e+04 
 5.68737e+02  3.58313e+04 
 3.41218e+02  3.58307e+04 
 1.13718e+02  3.58304e+04 
-1.13718e+02  3.58304e+04 
-3.41218e+02  3.58307e+04 
-5.68737e+02  3.58313e+04 
-7.96404e+02  3.58323e+04 
-1.02417e+03  3.58336e+04 
-1.25217e+03  3.58352e+04 
-1.48036e+03  3.58370e+04 
-1.70886e+03  3.58392e+04 
-1.93763e+03  3.58417e+04 
-2.16681e+03  3.58445e+04 
-2.39633e+03  3.58476e+04 
-2.62635e+03  3.58510e+04 
-2.85680e+03  3.58546e+04 
-3.08782e+03  3.58585e+04 
-3.31937e+03  3.58626e+04 
-3.55159e+03  3.58670e+04 
-3.78441e+03  3.58717e+04 
-4.01799e+03  3.58765e+04 
-4.25227e+03  3.58816e+04 
-4.48740e+03  3.58868e+04 
-4.72332e+03  3.58923e+04 
-4.96018e+03  3.58979e+04 
-5.19794e+03  3.59036e+04 
-5.43673e+03  3.59095e+04 
-5.67652e+03  3.59155e+04 
-5.91745e+03  3.59216e+04 
-6.15948e+03  3.59277e+04 
-6.40276e+03  3.59339e+04 
-6.64725e+03  3.59401e+04 
-6.89312e+03  3.59463e+04 
-7.14032e+03  3.59525e+04 
-7.38903e+03  3.59586e+04 
-7.63921e+03  3.59647e+04 
-7.89103e+03  3.59706e+04 
-8.14448e+03  3.59763e+04 
-8.39973e+03  3.59819e+04 
-8.65677e+03  3.59873e+04 
-8.91581e+03  3.59925e+04 
-9.17682e+03  3.59974e+04 
-9.44003e+03  3.60020e+04 
-9.70543e+03  3.60064e+04 
-9.97323e+03  3.60105e+04 
-1.02434e+04  3.60144e+04 
-1.05162e+04  3.60181e+04 
-1.07915e+04  3.60216e+04 
-1.10695e+04  3.60253e+04 
-1.13499e+04  3.60292e+04 
-1.16325e+04  3.60336e+04 
-1.19166e+04  3.60389e+04 
-1.22011e+04  3.60455e+04 
 1.22644e+04  3.72434e+04 
 1.19648e+04  3.72389e+04 
 1.16700e+04  3.72352e+04 
 1.13802e+04  3.72314e+04 
 1.10949e+04  3.72271e+04 
 1.08137e+04  3.72222e+04 
 1.05363e+04  3.72165e+04 
 1.02622e+04  3.72102e+04 
 9.99114e+03  3.72032e+04 
 9.72286e+03  3.71956e+04 
 9.45720e+03  3.71875e+04 
 9.19388e+03  3.71790e+04 
 8.93282e+03  3.71702e+04 
 8.67379e+03  3.71610e+04 
 8.41676e+03  3.71517e+04 
 8.16151e+03  3.71421e+04 
 7.90805e+03  3.71324e+04 
 7.65618e+03  3.71227e+04 
 7.40593e+03  3.71129e+04 
 7.15711e+03  3.71031e+04 
 6.90975e+03  3.70934e+04 
 6.66369e+03  3.70837e+04 
 6.41896e+03  3.70742e+04 
 6.17541e+03  3.70647e+04 
 5.93308e+03  3.70555e+04 
 5.69181e+03  3.70464e+04 
 5.45164e+03  3.70375e+04 
 5.21244e+03  3.70289e+04 
 4.97425e+03  3.70205e+04 
 4.73692e+03  3.70124e+04 
 4.50050e+03  3.70046e+04 
 4.26485e+03  3.69970e+04 
 4.03002e+03  3.69898e+04 
 3.79588e+03  3.69829e+04 
 3.56246e+03  3.69764e+04 
 3.32963e+03  3.69702e+04 