<?xml version="1.0" encoding="utf-8"?>
<VTKFile byte_order="LittleEndian" type="UnstructuredGrid" version="0.1">
   <UnstructuredGrid>
      <Piece NumberOfCells="3168" NumberOfPoints="1692">
         <Points>
            <DataArray Name="Points" NumberOfComponents="3" format="ascii" type="Float32">
0.1667 0.0000 0.0000
0.1667 0.0051 0.0000
0.1667 0.0101 0.0000
0.1667 0.0152 0.0000
0.1667 0.0202 0.0000
0.1667 0.0253 0.0000
0.1667 0.0303 0.0000
0.1667 0.0354 0.0000
0.1667 0.0404 0.0000
0.1667 0.0455 0.0000
0.1667 0.0505 0.0000
0.1667 0.0556 0.0000
0.1667 0.0606 0.0000
0.1667 0.0657 0.0000
0.1667 0.0707 0.0000
0.1667 0.0758 0.0000
0.1667 0.0808 0.0000
0.1667 0.0859 0.0000
0.1667 0.0909 0.0000
0.1667 0.0960 0.0000
0.1667 0.1010 0.0000
0.1667 0.1061 0.0000
0.1667 0.1111 0.0000
0.1667 0.1162 0.0000
0.1667 0.1212 0.0000
0.1667 0.1263 0.0000
0.1667 0.1313 0.0000
0.1667 0.1364 0.0000
0.1667 0.1414 0.0000
0.1667 0.1465 0.0000
0.1667 0.1515 0.0000
0.1667 0.1566 0.0000
0.1667 0.1616 0.0000
0.1667 0.1667 0.0000
0.1667 0.1717 0.0000
0.1667 0.1768 0.0000
0.1667 0.1818 0.0000
0.1667 0.1869 0.0000
0.1667 0.1919 0.0000
0.1667 0.1970 0.0000
0.1667 0.2020 0.0000
0.1667 0.2071 0.0000
0.1667 0.2121 0.0000
0.1667 0.2172 0.0000
0.1667 0.2222 0.0000
0.1667 0.2273 0.0000
0.1667 0.2323 0.0000
0.1667 0.2374 0.0000
0.1667 0.2424 0.0000
0.1667 0.2475 0.0000
0.1667 0.2525 0.0000
0.1667 0.2576 0.0000
0.1667 0.2626 0.0000
0.1667 0.2677 0.0000
0.1667 0.2727 0.0000
0.1667 0.2778 0.0000
0.1667 0.2828 0.0000
0.1667 0.2879 0.0000
0.1667 0.2929 0.0000
0.1667 0.2980 0.0000
0.1667 0.3030 0.0000
0.1667 0.3081 0.0000
0.1667 0.3131 0.0000
0.1667 0.3182 0.0000
0.1667 0.3232 0.0000
0.1667 0.3283 0.0000
0.1667 0.3333 0.0000
0.1667 0.3384 0.0000
0.1667 0.3434 0.0000
0.1667 0.3485 0.0000
0.1667 0.3535 0.0000
0.1667 0.3586 0.0000
0.1667 0.3636 0.0000
0.1667 0.3687 0.0000
0.1667 0.3737 0.0000
0.1667 0.3788 0.0000
0.1667 0.3838 0.0000
0.1667 0.3889 0.0000
0.1667 0.3939 0.0000
0.1667 0.3990 0.0000
0.1667 0.4040 0.0000
0.1667 0.4091 0.0000
0.1667 0.4141 0.0000
0.1667 0.4192 0.0000
0.1667 0.4242 0.0000
0.1667 0.4293 0.0000
0.1667 0.4343 0.0000
0.1667 0.4394 0.0000
0.1667 0.4444 0.0000
0.1667 0.4495 0.0000
0.1667 0.4545 0.0000
0.1667 0.4596 0.0000
0.1667 0.4646 0.0000
0.1667 0.4697 0.0000
0.1667 0.4747 0.0000
0.1667 0.4798 0.0000
0.1667 0.4848 0.0000
0.1667 0.4899 0.0000
0.1667 0.4949 0.0000
0.1667 0.5000 0.0000
0.1875 0.0000 0.0000
0.1875 0.0051 0.0000
0.1875 0.0101 0.0000
0.1875 0.0152 0.0000
0.1875 0.0202 0.0000
0.1875 0.0253 0.0000
0.1875 0.0303 0.0000
0.1875 0.0354 0.0000
0.1875 0.0404 0.0000
0.1875 0.0455 0.0000
0.1875 0.0505 0.0000
0.1875 0.0556 0.0000
0.1875 0.0606 0.0000
0.1875 0.0657 0.0000
0.1875 0.0707 0.0000
0.1875 0.0758 0.0000
0.1875 0.0808 0.0000
0.1875 0.0859 0.0000
0.1875 0.0909 0.0000
0.1875 0.0960 0.0000
0.1875 0.1010 0.0000
0.1875 0.1061 0.0000
0.1875 0.1111 0.0000
0.1875 0.1162 0.0000
0.1875 0.1212 0.0000
0.1875 0.1263 0.0000
0.1875 0.1313 0.0000
0.1875 0.1364 0.0000
0.1875 0.1414 0.0000
0.1875 0.1465 0.0000
0.1875 0.1515 0.0000
0.1875 0.1566 0.0000
0.1875 0.1616 0.0000
0.1875 0.1667 0.0000
0.1875 0.1717 0.0000
0.1875 0.1768 0.0000
0.1875 0.1818 0.0000
0.1875 0.1869 0.0000
0.1875 0.1919 0.0000
0.1875 0.1970 0.0000
0.1875 0.2020 0.0000
0.1875 0.2071 0.0000
0.1875 0.2121 0.0000
0.1875 0.2172 0.0000
0.1875 0.2222 0.0000
0.1875 0.2273 0.0000
0.1875 0.2323 0.0000
0.1875 0.2374 0.0000
0.1875 0.2424 0.0000
0.1875 0.2475 0.0000
0.1875 0.2525 0.0000
0.1875 0.2576 0.0000
0.1875 0.2626 0.0000
0.1875 0.2677 0.0000
0.1875 0.2727 0.0000
0.1875 0.2778 0.0000
0.1875 0.2828 0.0000
0.1875 0.2879 0.0000
0.1875 0.2929 0.0000
0.1875 0.2980 0.0000
0.1875 0.3030 0.0000
0.1875 0.3081 0.0000
0.1875 0.3131 0.0000
0.1875 0.3182 0.0000
0.1875 0.3232 0.0000
0.1875 0.3283 0.0000
0.1875 0.3333 0.0000
0.1875 0.3384 0.0000
0.1875 0.3434 0.0000
0.1875 0.3485 0.0000
0.1875 0.3535 0.0000
0.1875 0.3586 0.0000
0.1875 0.3636 0.0000
0.1875 0.3687 0.0000
0.1875 0.3737 0.0000
0.1875 0.3788 0.0000
0.1875 0.3838 0.0000
0.1875 0.3889 0.0000
0.1875 0.3939 0.0000
0.1875 0.3990 0.0000
0.1875 0.4040 0.0000
0.1875 0.4091 0.0000
0.1875 0.4141 0.0000
0.1875 0.4192 0.0000
0.1875 0.4242 0.0000
0.1875 0.4293 0.0000
0.1875 0.4343 0.0000
0.1875 0.4394 0.0000
0.1875 0.4444 0.0000
0.1875 0.4495 0.0000
0.1875 0.4545 0.0000
0.1875 0.4596 0.0000
0.1875 0.4646 0.0000
0.1875 0.4697 0.0000
0.1875 0.4747 0.0000
0.1875 0.4798 0.0000
0.1875 0.4848 0.0000
0.1875 0.4899 0.0000
0.1875 0.4949 0.0000
0.1875 0.5000 0.0000
0.2083 0.0000 0.0000
0.2083 0.0051 0.0000
0.2083 0.0101 0.0000
0.2083 0.0152 0.0000
0.2083 0.0202 0.0000
0.2083 0.0253 0.0000
0.2083 0.0303 0.0000
0.2083 0.0354 0.0000
0.2083 0.0404 0.0000
0.2083 0.0455 0.0000
0.2083 0.0505 0.0000
0.2083 0.0556 0.0000
0.2083 0.0606 0.0000
0.2083 0.0657 0.0000
0.2083 0.0707 0.0000
0.2083 0.0758 0.0000
0.2083 0.0808 0.0000
0.2083 0.0859 0.0000
0.2083 0.0909 0.0000
0.2083 0.0960 0.0000
0.2083 0.1010 0.0000
0.2083 0.1061 0.0000
0.2083 0.1111 0.0000
0.2083 0.1162 0.0000
0.2083 0.1212 0.0000
0.2083 0.1263 0.0000
0.2083 0.1313 0.0000
0.2083 0.1364 0.0000
0.2083 0.1414 0.0000
0.2083 0.1465 0.0000
0.2083 0.1515 0.0000
0.2083 0.1566 0.0000
0.2083 0.1616 0.0000
0.2083 0.1667 0.0000
0.2083 0.1717 0.0000
0.2083 0.1768 0.0000
0.2083 0.1818 0.0000
0.2083 0.1869 0.0000
0.2083 0.1919 0.0000
0.2083 0.1970 0.0000
0.2083 0.2020 0.0000
0.2083 0.2071 0.0000
0.2083 0.2121 0.0000
0.2083 0.2172 0.0000
0.2083 0.2222 0.0000
0.2083 0.2273 0.0000
0.2083 0.2323 0.0000
0.2083 0.2374 0.0000
0.2083 0.2424 0.0000
0.2083 0.2475 0.0000
0.2083 0.2525 0.0000
0.2083 0.2576 0.0000
0.2083 0.2626 0.0000
0.2083 0.2677 0.0000
0.2083 0.2727 0.0000
0.2083 0.2778 0.0000
0.2083 0.2828 0.0000
0.2083 0.2879 0.0000
0.2083 0.2929 0.0000
0.2083 0.2980 0.0000
0.2083 0.3030 0.0000
0.2083 0.3081 0.0000
0.2083 0.3131 0.0000
0.2083 0.3182 0.0000
0.2083 0.3232 0.0000
0.2083 0.3283 0.0000
0.2083 0.3333 0.0000
0.2083 0.3384 0.0000
0.2083 0.3434 0.0000
0.2083 0.3485 0.0000
0.2083 0.3535 0.0000
0.2083 0.3586 0.0000
0.2083 0.3636 0.0000
0.2083 0.3687 0.0000
0.2083 0.3737 0.0000
0.2083 0.3788 0.0000
0.2083 0.3838 0.0000
0.2083 0.3889 0.0000
0.2083 0.3939 0.0000
0.2083 0.3990 0.0000
0.2083 0.4040 0.0000
0.2083 0.4091 0.0000
0.2083 0.4141 0.0000
0.2083 0.4192 0.0000
0.2083 0.4242 0.0000
0.2083 0.4293 0.0000
0.2083 0.4343 0.0000
0.2083 0.4394 0.0000
0.2083 0.4444 0.0000
0.2083 0.4495 0.0000
0.2083 0.4545 0.0000
0.2083 0.4596 0.0000
0.2083 0.4646 0.0000
0.2083 0.4697 0.0000
0.2083 0.4747 0.0000
0.2083 0.4798 0.0000
0.2083 0.4848 0.0000
0.2083 0.4899 0.0000
0.2083 0.4949 0.0000
0.2083 0.5000 0.0000
0.2292 0.0000 0.0000
0.2292 0.0051 0.0000
0.2292 0.0101 0.0000
0.2292 0.0152 0.0000
0.2292 0.0202 0.0000
0.2292 0.0253 0.0000
0.2292 0.0303 0.0000
0.2292 0.0354 0.0000
0.2292 0.0404 0.0000
0.2292 0.0455 0.0000
0.2292 0.0505 0.0000
0.2292 0.0556 0.0000
0.2292 0.0606 0.0000
0.2292 0.0657 0.0000
0.2292 0.0707 0.0000
0.2292 0.0758 0.0000
0.2292 0.0808 0.0000
0.2292 0.0859 0.0000
0.2292 0.0909 0.0000
0.2292 0.0960 0.0000
0.2292 0.1010 0.0000
0.2292 0.1061 0.0000
0.2292 0.1111 0.0000
0.2292 0.1162 0.0000
0.2292 0.1212 0.0000
0.2292 0.1263 0.0000
0.2292 0.1313 0.0000
0.2292 0.1364 0.0000
0.2292 0.1414 0.0000
0.2292 0.1465 0.0000
0.2292 0.1515 0.0000
0.2292 0.1566 0.0000
0.2292 0.1616 0.0000
0.2292 0.1667 0.0000
0.2292 0.1717 0.0000
0.2292 0.1768 0.0000
0.2292 0.1818 0.0000
0.2292 0.1869 0.0000
0.2292 0.1919 0.0000
0.2292 0.1970 0.0000
0.2292 0.2020 0.0000
0.2292 0.2071 0.0000
0.2292 0.2121 0.0000
0.2292 0.2172 0.0000
0.2292 0.2222 0.0000
0.2292 0.2273 0.0000
0.2292 0.2323 0.0000
0.2292 0.2374 0.0000
0.2292 0.2424 0.0000
0.2292 0.2475 0.0000
0.2292 0.2525 0.0000
0.2292 0.2576 0.0000
0.2292 0.2626 0.0000
0.2292 0.2677 0.0000
0.2292 0.2727 0.0000
0.2292 0.2778 0.0000
0.2292 0.2828 0.0000
0.2292 0.2879 0.0000
0.2292 0.2929 0.0000
0.2292 0.2980 0.0000
0.2292 0.3030 0.0000
0.2292 0.3081 0.0000
0.2292 0.3131 0.0000
0.2292 0.3182 0.0000
0.2292 0.3232 0.0000
0.2292 0.3283 0.0000
0.2292 0.3333 0.0000
0.2292 0.3384 0.0000
0.2292 0.3434 0.0000
0.2292 0.3485 0.0000
0.2292 0.3535 0.0000
0.2292 0.3586 0.0000
0.2292 0.3636 0.0000
0.2292 0.3687 0.0000
0.2292 0.3737 0.0000
0.2292 0.3788 0.0000
0.2292 0.3838 0.0000
0.2292 0.3889 0.0000
0.2292 0.3939 0.0000
0.2292 0.3990 0.0000
0.2292 0.4040 0.0000
0.2292 0.4091 0.0000
0.2292 0.4141 0.0000
0.2292 0.4192 0.0000
0.2292 0.4242 0.0000
0.2292 0.4293 0.0000
0.2292 0.4343 0.0000
0.2292 0.4394 0.0000
0.2292 0.4444 0.0000
0.2292 0.4495 0.0000
0.2292 0.4545 0.0000
0.2292 0.4596 0.0000
0.2292 0.4646 0.0000
0.2292 0.4697 0.0000
0.2292 0.4747 0.0000
0.2292 0.4798 0.0000
0.2292 0.4848 0.0000
0.2292 0.4899 0.0000
0.2292 0.4949 0.0000
0.2292 0.5000 0.0000
0.2500 0.0000 0.0000
0.2500 0.0051 0.0000
0.2500 0.0101 0.0000
0.2500 0.0152 0.0000
0.2500 0.0202 0.0000
0.2500 0.0253 0.0000
0.2500 0.0303 0.0000
0.2500 0.0354 0.0000
0.2500 0.0404 0.0000
0.2500 0.0455 0.0000
0.2500 0.0505 0.0000
0.2500 0.0556 0.0000
0.2500 0.0606 0.0000
0.2500 0.0657 0.0000
0.2500 0.0707 0.0000
0.2500 0.0758 0.0000
0.2500 0.0808 0.0000
0.2500 0.0859 0.0000
0.2500 0.0909 0.0000
0.2500 0.0960 0.0000
0.2500 0.1010 0.0000
0.2500 0.1061 0.0000
0.2500 0.1111 0.0000
0.2500 0.1162 0.0000
0.2500 0.1212 0.0000
0.2500 0.1263 0.0000
0.2500 0.1313 0.0000
0.2500 0.1364 0.0000
0.2500 0.1414 0.0000
0.2500 0.1465 0.0000
0.2500 0.1515 0.0000
0.2500 0.1566 0.0000
0.2500 0.1616 0.0000
0.2500 0.1667 0.0000
0.2500 0.1717 0.0000
0.2500 0.1768 0.0000
0.2500 0.1818 0.0000
0.2500 0.1869 0.0000
0.2500 0.1919 0.0000
0.2500 0.1970 0.0000
0.2500 0.2020 0.0000
0.2500 0.2071 0.0000
0.2500 0.2121 0.0000
0.2500 0.2172 0.0000
0.2500 0.2222 0.0000
0.2500 0.2273 0.0000
0.2500 0.2323 0.0000
0.2500 0.2374 0.0000
0.2500 0.2424 0.0000
0.2500 0.2475 0.0000
0.2500 0.2525 0.0000
0.2500 0.2576 0.0000
0.2500 0.2626 0.0000
0.2500 0.2677 0.0000
0.2500 0.2727 0.0000
0.2500 0.2778 0.0000
0.2500 0.2828 0.0000
0.2500 0.2879 0.0000
0.2500 0.2929 0.0000
0.2500 0.2980 0.0000
0.2500 0.3030 0.0000
[...]
         <PointData>
            <DataArray Name="fValues" NumberOfComponents="2" format="ascii" type="Float64">
 3.77357e+03  3.06686e+03 
 3.67137e+03  3.02281e+03 
 3.57045e+03  2.97956e+03 
 3.47070e+03  2.93709e+03 
 3.37228e+03  2.89542e+03 
 3.27508e+03  2.85453e+03 
 3.17927e+03  2.81446e+03 
 3.08470e+03  2.77520e+03 
 2.99156e+03  2.73678e+03 
 2.89968e+03  2.69919e+03 
 2.80923e+03  2.66246e+03 
 2.72005e+03  2.62661e+03 
 2.63228e+03  2.59165e+03 
 2.54577e+03  2.55759e+03 
 2.46064e+03  2.52446e+03 
 2.37672e+03  2.49226e+03 
 2.29414e+03  2.46100e+03 
 2.21273e+03  2.43070e+03 
 2.13259e+03  2.40137e+03 
 2.05355e+03  2.37301e+03 
 1.97572e+03  2.34562e+03 
 1.89891e+03  2.31922e+03 
 1.82322e+03  2.29380e+03 
 1.74848e+03  2.26935e+03 
 1.67478e+03  2.24589e+03 
 1.60195e+03  2.22340e+03 
 1.53007e+03  2.20190e+03 
 1.45898e+03  2.18135e+03 
 1.38876e+03  2.16178e+03 
 1.31923e+03  2.14316e+03 
 1.25050e+03  2.12549e+03 
 1.18238e+03  2.10876e+03 
 1.11497e+03  2.09298e+03 
 1.04810e+03  2.07812e+03 
 9.81861e+02  2.06418e+03 
 9.16081e+02  2.05116e+03 
 8.50859e+02  2.03904e+03 
 7.86021e+02  2.02782e+03 
 7.21667e+02  2.01750e+03 
 6.57627e+02  2.00806e+03 
 5.93999e+02  1.99950e+03 
 5.30616e+02  1.99181e+03 
 4.67576e+02  1.98499e+03 
 4.04713e+02  1.97904e+03 
 3.42127e+02  1.97394e+03 
 2.79651e+02  1.96970e+03 
 2.17387e+02  1.96631e+03 
 1.55167e+02  1.96377e+03 
 9.30954e+01  1.96208e+03 
 3.10040e+01  1.96123e+03 
-3.10040e+01  1.96123e+03 
-9.30954e+01  1.96208e+03 
-1.55167e+02  1.96377e+03 
-2.17387e+02  1.96631e+03 
-2.79651e+02  1.96970e+03 
-3.42127e+02  1.97394e+03 
-4.04713e+02  1.97904e+03 
-4.67576e+02  1.98499e+03 
-5.30616e+02  1.99181e+03 
-5.93999e+02  1.99950e+03 
-6.57627e+02  2.00806e+03 
-7.21667e+02  2.01750e+03 
-7.86021e+02  2.02782e+03 
-8.50859e+02  2.03904e+03 
-9.16081e+02  2.05116e+03 
-9.81861e+02  2.06418e+03 
-1.04810e+03  2.07812e+03 
-1.11497e+03  2.09298e+03 
-1.18238e+03  2.10876e+03 
-1.25050e+03  2.12549e+03 
-1.31923e+03  2.14316e+03 
-1.38876e+03  2.16178e+03 
-1.45898e+03  2.18135e+03 
-1.53007e+03  2.20190e+03 
-1.60195e+03  2.22340e+03 
-1.67478e+03  2.24589e+03 
-1.74848e+03  2.26935e+03 
-1.82322e+03  2.29380e+03 
-1.89891e+03  2.31922e+03 
-1.97572e+03  2.34562e+03 
-2.05355e+03  2.37301e+03 
-2.13259e+03  2.40137e+03 
-2.21273e+03  2.43070e+03 
-2.29414e+03  2.46100e+03 
-2.37672e+03  2.49226e+03 
-2.46064e+03  2.52446e+03 
-2.54577e+03  2.55759e+03 
-2.63228e+03  2.59165e+03 
-2.72005e+03  2.62661e+03 
-2.80923e+03  2.66246e+03 
-2.89968e+03  2.69919e+03 
-2.99156e+03  2.73678e+03 
-3.08470e+03  2.77520e+03 
-3.17927e+03  2.81446e+03 
-3.27508e+03  2.85453e+03 
-3.37228e+03  2.89542e+03 
-3.47070e+03  2.93709e+03 
-3.57045e+03  2.97956e+03 
-3.67137e+03  3.02281e+03 
-3.77357e+03  3.06686e+03 
 4.17597e+03  3.50595e+03 
 4.06642e+03  3.46281e+03 
 3.95811e+03  3.42050e+03 
 3.85105e+03  3.37897e+03 
 3.74525e+03  3.33826e+03 
 3.64072e+03  3.29834e+03 
 3.53747e+03  3.25923e+03 
 3.43548e+03  3.22093e+03 
 3.33480e+03  3.18344e+03 
 3.23538e+03  3.14677e+03 
 3.13725e+03  3.11094e+03 
 3.04039e+03  3.07594e+03 
 2.94480e+03  3.04179e+03 
 2.85044e+03  3.00851e+03 
 2.75734e+03  2.97609e+03 
 2.66544e+03  2.94456e+03 
 2.57474e+03  2.91391e+03 
 2.48521e+03  2.88416e+03 
 2.39683e+03  2.85533e+03 
 2.30955e+03  2.82739e+03 
 2.22338e+03  2.80038e+03 
 2.13825e+03  2.77429e+03 
 2.05415e+03  2.74913e+03 
 1.97102e+03  2.72490e+03 
 1.88886e+03  2.70160e+03 
 1.80760e+03  2.67922e+03 
 1.72723e+03  2.65779e+03 
 1.64769e+03  2.63728e+03 
 1.56896e+03  2.61770e+03 
 1.49099e+03  2.59904e+03 
 1.41375e+03  2.58131e+03 
 1.33719e+03  2.56450e+03 
 1.26129e+03  2.54861e+03 
 1.18599e+03  2.53363e+03 
 1.11128e+03  2.51957e+03 
 1.03710e+03  2.50640e+03 
 9.63428e+02  2.49414e+03 
 8.90215e+02  2.48278e+03 
 8.17438e+02  2.47231e+03 
 7.45049e+02  2.46272e+03 
 6.73024e+02  2.45402e+03 
 6.01315e+02  2.44620e+03 
 5.29901e+02  2.43926e+03 
 4.58735e+02  2.43320e+03 
 3.87793e+02  2.42800e+03 
 3.17031e+02  2.42368e+03 
 2.46426e+02  2.42022e+03 
 1.75932e+02  2.41763e+03 
 1.05528e+02  2.41591e+03 
 3.51685e+01  2.41504e+03 
-3.51685e+01  2.41504e+03 
-1.05528e+02  2.41591e+03 
-1.75932e+02  2.41763e+03 
-2.46426e+02  2.42022e+03 
-3.17031e+02  2.42368e+03 
-3.87793e+02  2.42800e+03 
-4.58735e+02  2.43320e+03 
-5.29901e+02  2.43926e+03 
-6.01315e+02  2.44620e+03 
-6.73024e+02  2.45402e+03 
-7.45049e+02  2.46272e+03 
-8.17438e+02  2.47231e+03 
-8.90215e+02  2.48278e+03 
-9.63428e+02  2.49414e+03 
-1.03710e+03  2.50640e+03 
-1.11128e+03  2.51957e+03 
-1.18599e+03  2.53363e+03 
-1.26129e+03  2.54861e+03 
-1.33719e+03  2.56450e+03 
-1.41375e+03  2.58131e+03 
-1.49099e+03  2.59904e+03 
-1.56896e+03  2.61770e+03 
-1.64769e+03  2.63728e+03 
-1.72723e+03  2.65779e+03 
-1.80760e+03  2.67922e+03 
-1.88886e+03  2.70160e+03 
-1.97102e+03  2.72490e+03 
-2.05415e+03  2.74913e+03 
-2.13825e+03  2.77429e+03 
-2.22338e+03  2.80038e+03 
-2.30955e+03  2.82739e+03 
-2.39683e+03  2.85533e+03 
-2.48521e+03  2.88416e+03 
-2.57474e+03  2.91391e+03 
-2.66544e+03  2.94456e+03 
-2.75734e+03  2.97609e+03 
-2.85044e+03  3.00851e+03 
-2.94480e+03  3.04179e+03 
-3.04039e+03  3.07594e+03 
-3.13725e+03  3.11094e+03 
-3.23538e+03  3.14677e+03 
-3.33480e+03  3.18344e+03 
-3.43548e+03  3.22093e+03 
-3.53747e+03  3.25923e+03 
-3.64072e+03  3.29834e+03 
-3.74525e+03  3.33826e+03 
-3.85105e+03  3.37897e+03 
-3.95811e+03  3.42050e+03 
-4.06642e+03  3.46281e+03 
-4.17597e+03  3.50595e+03 
 4.56987e+03  3.97581e+03 
 4.45283e+03  3.93363e+03 
 4.33710e+03  3.89227e+03 
 4.22262e+03  3.85170e+03 
 4.10942e+03  3.81195e+03 
 3.99748e+03  3.77299e+03 
 3.88682e+03  3.73484e+03 
 3.77740e+03  3.69749e+03 
 3.66926e+03  3.66094e+03 
 3.56234e+03  3.62519e+03 
 3.45669e+03  3.59027e+03 
 3.35224e+03  3.55615e+03 
 3.24902e+03  3.52286e+03 
 3.14699e+03  3.49040e+03 
 3.04616e+03  3.45878e+03 
 2.94648e+03  3.42800e+03 
 2.84796e+03  3.39807e+03 
 2.75055e+03  3.36900e+03 
 2.65425e+03  3.34079e+03 
 2.55901e+03  3.31345e+03 
 2.46483e+03  3.28698e+03 
 2.37166e+03  3.26139e+03 
 2.27948e+03  3.23668e+03 
 2.18825e+03  3.21286e+03 
 2.09796e+03  3.18993e+03 
 2.00854e+03  3.16789e+03 
 1.92000e+03  3.14674e+03 
 1.83227e+03  3.12648e+03 
 1.74534e+03  3.10713e+03 
 1.65915e+03  3.08866e+03 
 1.57370e+03  3.07109e+03 
 1.48891e+03  3.05441e+03 
 1.40479e+03  3.03863e+03 
 1.32126e+03  3.02374e+03 
 1.23832e+03  3.00974e+03 
 1.15591e+03  2.99663e+03 
 1.07402e+03  2.98440e+03 
 9.92587e+02  2.97306e+03 
 9.11601e+02  2.96260e+03 
 8.30996e+02  2.95302e+03 
 7.50771e+02  2.94432e+03 
 6.70857e+02  2.93649e+03 
 5.91254e+02  2.92954e+03 
 5.11891e+02  2.92347e+03 
 4.32769e+02  2.91826e+03 
 3.53819e+02  2.91392e+03 
 2.75040e+02  2.91046e+03 
 1.96364e+02  2.90786e+03 
 1.17791e+02  2.90612e+03 
 3.92524e+01  2.90526e+03 
-3.92524e+01  2.90526e+03 
-1.17791e+02  2.90612e+03 
-1.96364e+02  2.90786e+03 
-2.75040e+02  2.91046e+03 
-3.53819e+02  2.91392e+03 
-4.32769e+02  2.91826e+03 
-5.11891e+02  2.92347e+03 
-5.91254e+02  2.92954e+03 
-6.70857e+02  2.93649e+03 
-7.50771e+02  2.94432e+03 
-8.30996e+02  2.95302e+03 
-9.11601e+02  2.96260e+03 
-9.92587e+02  2.97306e+03 
-1.07402e+03  2.98440e+03 
-1.15591e+03  2.99663e+03 
-1.23832e+03  3.00974e+03 
-1.32126e+03  3.02374e+03 
-1.40479e+03  3.03863e+03 
-1.48891e+03  3.05441e+03 
-1.57370e+03  3.07109e+03 
-1.65915e+03  3.08866e+03 
-1.74534e+03  3.10713e+03 
-1.83227e+03  3.12648e+03 
-1.92000e+03  3.14674e+03 
-2.00854e+03  3.16789e+03 
-2.09796e+03  3.18993e+03 
-2.18825e+03  3.21286e+03 
-2.27948e+03  3.23668e+03 
-2.37166e+03  3.26139e+03 
-2.46483e+03  3.28698e+03 
-2.55901e+03  3.31345e+03 
-2.65425e+03  3.34079e+03 
-2.75055e+03  3.36900e+03 
-2.84796e+03  3.39807e+03 
-2.94648e+03  3.42800e+03 
-3.04616e+03  3.45878e+03 
-3.14699e+03  3.49040e+03 
-3.24902e+03  3.52286e+03 
-3.35224e+03  3.55615e+03 
-3.45669e+03  3.59027e+03 
-3.56234e+03  3.62519e+03 
-3.66926e+03  3.66094e+03 
-3.77740e+03  3.69749e+03 
-3.88682e+03  3.73484e+03 
-3.99748e+03  3.77299e+03 
-4.10942e+03  3.81195e+03 
-4.22262e+03  3.85170e+03 
-4.33710e+03  3.89227e+03 
-4.45283e+03  3.93363e+03 
-4.56987e+03  3.97581e+03 
 4.95492e+03  4.47663e+03 
 4.83043e+03  4.43543e+03 
 4.70726e+03  4.39505e+03 
 4.58537e+03  4.35546e+03 
 4.46479e+03  4.31668e+03 
 4.34547e+03  4.27869e+03 
 4.22743e+03  4.24150e+03 
 4.11063e+03  4.20509e+03 
 3.99510e+03  4.16949e+03 
 3.88077e+03  4.13467e+03 
 3.76769e+03  4.10066e+03 
 3.65578e+03  4.06744e+03 
 3.54509e+03  4.03502e+03 
 3.43554e+03  4.00342e+03 
 3.32717e+03  3.97262e+03 
 3.21990e+03  3.94264e+03 
 3.11377e+03  3.91349e+03 
 3.00870e+03  3.88515e+03 
 2.90472e+03  3.85765e+03 
 2.80176e+03  3.83098e+03 
 2.69983e+03  3.80515e+03 
 2.59887e+03  3.78016e+03 
 2.49889e+03  3.75603e+03 
 2.39981e+03  3.73274e+03 
 2.30166e+03  3.71031e+03 
 2.20435e+03  3.68873e+03 
 2.10791e+03  3.66801e+03 
 2.01224e+03  3.64815e+03 
 1.91738e+03  3.62916e+03 
 1.82323e+03  3.61103e+03 
 1.72981e+03  3.59377e+03 
 1.63704e+03  3.57737e+03 
 1.54493e+03  3.56184e+03 
 1.45341e+03  3.54717e+03 
 1.36247e+03  3.53337e+03 
 1.27206e+03  3.52044e+03 
 1.18216e+03  3.50838e+03 
 1.09272e+03  3.49718e+03 
 1.00372e+03  3.48685e+03 
 9.15101e+02  3.47738e+03 
 8.26864e+02  3.46877e+03 
 7.38938e+02  3.46103e+03 
 6.51322e+02  3.45415e+03 
 5.63948e+02  3.44813e+03 
 4.76816e+02  3.44298e+03 
 3.89856e+02  3.43868e+03 
 3.03068e+02  3.43524e+03 
 2.16384e+02  3.43267e+03 
 1.29803e+02  3.43095e+03 
 4.32561e+01  3.43009e+03 
-4.32561e+01  3.43009e+03 
-1.29803e+02  3.43095e+03 
-2.16384e+02  3.43267e+03 
-3.03068e+02  3.43524e+03 
-3.89856e+02  3.43868e+03 
-4.76816e+02  3.44298e+03 
-5.63948e+02  3.44813e+03 
-6.51322e+02  3.45415e+03 
-7.38938e+02  3.46103e+03 
-8.26864e+02  3.46877e+03 
-9.15101e+02  3.47738e+03 
-1.00372e+03  3.48685e+03 
-1.09272e+03  3.49718e+03 
-1.18216e+03  3.50838e+03 
-1.27206e+03  3.52044e+03 
-1.36247e+03  3.53337e+03 
-1.45341e+03  3.54717e+03 
-1.54493e+03  3.56184e+03 
-1.63704e+03  3.57737e+03 
-1.72981e+03  3.59377e+03 
-1.82323e+03  3.61103e+03 
-1.91738e+03  3.62916e+03 
-2.01224e+03  3.64815e+03 
-2.10791e+03  3.66801e+03 
-2.20435e+03  3.68873e+03 
-2.30166e+03  3.71031e+03 
-2.39981e+03  3.73274e+03 
-2.49889e+03  3.75603e+03 
-2.59887e+03  3.78016e+03 
-2.69983e+03  3.80515e+03 
-2.80176e+03  3.83098e+03 
-2.90472e+03  3.85765e+03 
-3.00870e+03  3.88515e+03 
-3.11377e+03  3.91349e+03 
-3.21990e+03  3.94264e+03 
-3.32717e+03  3.97262e+03 
-3.43554e+03  4.00342e+03 
-3.54509e+03  4.03502e+03 
-3.65578e+03  4.06744e+03 
-3.76769e+03  4.10066e+03 
-3.88077e+03  4.13467e+03 
-3.99510e+03  4.16949e+03 
-4.11063e+03  4.20509e+03 
-4.22743e+03  4.24150e+03 
-4.34547e+03  4.27869e+03 
-4.46479e+03  4.31668e+03 
-4.58537e+03  4.35546e+03 
-4.70726e+03  4.39505e+03 
-4.83043e+03  4.43543e+03 
-4.95492e+03  4.47663e+03 
 5.33081e+03  5.00819e+03 
 5.19891e+03  4.96800e+03 
 5.06838e+03  4.92862e+03 
 4.93915e+03  4.89003e+03 
 4.81125e+03  4.85223e+03 
 4.68462e+03  4.81521e+03 
 4.55929e+03  4.77899e+03 
 4.43519e+03  4.74353e+03 
 4.31236e+03  4.70887e+03 
 4.19073e+03  4.67499e+03 
 4.07034e+03  4.64189e+03 
 3.95110e+03  4.60957e+03 
 3.83307e+03  4.57804e+03 
 3.71616e+03  4.54729e+03 
 3.60040e+03  4.51735e+03 
 3.48573e+03  4.48818e+03 
 3.37217e+03  4.45983e+03 
 3.25964e+03  4.43226e+03 
 3.14818e+03  4.40551e+03 
 3.03772e+03  4.37956e+03 
 2.92826e+03  4.35443e+03 
 2.81974e+03  4.33010e+03 
 2.71218e+03  4.30660e+03 
 2.60551e+03  4.28391e+03 
 2.49973e+03  4.26205e+03 
 2.39478e+03  4.24102e+03 
 2.29067e+03  4.22081e+03 
 2.18733e+03  4.20144e+03 
 2.08476e+03  4.18290e+03 
 1.98290e+03  4.16519e+03 
 1.88176e+03  4.14833e+03 
 1.78125e+03  4.13230e+03 
 1.68139e+03  4.11711e+03 
 1.58211e+03  4.10277e+03 
 1.48341e+03  4.08926e+03 
 1.38522e+03  4.07660e+03 
 1.28754e+03  4.06478e+03 
 1.19030e+03  4.05381e+03 
 1.09351e+03  4.04368e+03 
 9.97097e+02  4.03439e+03 
 9.01060e+02  4.02595e+03 
 8.05329e+02  4.01835e+03 
 7.09908e+02  4.01160e+03 
 6.14725e+02  4.00569e+03 
 5.19784e+02  4.00063e+03 
 4.25012e+02  3.99640e+03 
 3.30413e+02  3.99303e+03 
 2.35916e+02  3.99050e+03 
 1.41523e+02  3.98881e+03 
 4.71623e+01  3.98796e+03 
-4.71623e+01  3.98796e+03 
-1.41523e+02  3.98881e+03 
-2.35916e+02  3.99050e+03 
-3.30413e+02  3.99303e+03 
-4.25012e+02  3.99640e+03 
-5.19784e+02  4.00063e+03 
-6.14725e+02  4.00569e+03 
-7.09908e+02  4.01160e+03 
-8.05329e+02  4.01835e+03 
-9.01060e+02  4.02595e+03 
-9.97097e+02  4.03439e+03 
-1.09351e+03  4.04368e+03 
-1.19030e+03  4.05381e+03 
-1.28754e+03  4.06478e+03 
-1.38522e+03  4.07660e+03 
-1.48341e+03  4.08926e+03 
-1.58211e+03  4.10277e+03 
-1.68139e+03  4.11711e+03 
-1.78125e+03  4.13230e+03 
-1.88176e+03  4.14833e+03 
-1.98290e+03  4.16519e+03 
-2.08476e+03  4.18290e+03 
-2.18733e+03  4.20144e+03 
-2.29067e+03  4.22081e+03 
-2.39478e+03  4.24102e+03 
-2.49973e+03  4.26205e+03 
-2.60551e+03  4.28391e+03 
-2.71218e+03  4.30660e+03 
-2.81974e+03  4.33010e+03 
-2.92826e+03  4.35443e+03 
-3.03772e+03  4.37956e+03 
-3.14818e+03  4.40551e+03 
-3.25964e+03  4.43226e+03 
-3.37217e+03  4.45983e+03 
-3.48573e+03  4.48818e+03 
-3.60040e+03  4.51735e+03 
-3.71616e+03  4.54729e+03 
-3.83307e+03  4.57804e+03 
-3.95110e+03  4.60957e+03 
-4.07034e+03  4.64189e+03 
-4.19073e+03  4.67499e+03 
-4.31236e+03  4.70887e+03 
-4.43519e+03  4.74353e+03 
-4.55929e+03  4.77899e+03 
-4.68462e+03  4.81521e+03 
-4.81125e+03  4.85223e+03 
-4.93915e+03  4.89003e+03 
-5.06838e+03  4.92862e+03 
-5.19891e+03  4.96800e+03 
-5.33081e+03  5.00819e+03 
 5.69728e+03  5.57011e+03 
 5.55809e+03  5.53096e+03 
 5.42031e+03  5.49260e+03 
 5.28384e+03  5.45502e+03 
 5.14873e+03  5.41822e+03 
 5.01490e+03  5.38218e+03 
 4.88238e+03  5.34693e+03 
 4.75110e+03  5.31243e+03 
 4.62109e+03  5.27872e+03 
 4.49228e+03  5.24576e+03 
 4.36470e+03  5.21358e+03 
 4.23828e+03  5.18217e+03 
 4.11304e+03  5.15152e+03 
 3.98892e+03  5.12165e+03 
 3.86594e+03  5.09255e+03 
 3.74404e+03  5.06422e+03 
 3.62322e+03  5.03667e+03 
 3.50343e+03  5.00989e+03 
 3.38468e+03  4.98391e+03 
 3.26690e+03  4.95870e+03 
 3.15012e+03  4.93428e+03 
 3.03426e+03  4.91065e+03 
 2.91934e+03  4.88781e+03 
 2.80528e+03  4.86576e+03 
 2.69210e+03  4.84452e+03 
 2.57974e+03  4.82407e+03 
 2.46819e+03  4.80443e+03 
 2.35740e+03  4.78559e+03 
 2.24737e+03  4.76756e+03 
 2.13803e+03  4.75033e+03 
 2.02939e+03  4.73392e+03 
 1.92138e+03  4.71831e+03 
 1.81400e+03  4.70353e+03 
 1.70719e+03  4.68955e+03 
 1.60095e+03  4.67640e+03 
 1.49521e+03  4.66406e+03 
 1.38998e+03  4.65254e+03 
 1.28518e+03  4.64184e+03 
 1.18082e+03  4.63196e+03 
 1.07683e+03  4.62290e+03 
 9.73215e+02  4.61467e+03 
 8.69900e+02  4.60725e+03 
 7.66892e+02  4.60066e+03 
 6.64116e+02  4.59490e+03 
 5.61582e+02  4.58995e+03 
 4.59213e+02  4.58583e+03 
 3.57017e+02  4.58254e+03 
 2.54918e+02  4.58006e+03 
 1.52925e+02  4.57841e+03 
 5.09627e+01  4.57759e+03 
-5.09627e+01  4.57759e+03 
-1.52925e+02  4.57841e+03 
-2.54918e+02  4.58006e+03 
-3.57017e+02  4.58254e+03 
-4.59213e+02  4.58583e+03 
-5.61582e+02  4.58995e+03 
-6.64116e+02  4.59490e+03 
-7.66892e+02  4.60066e+03 
-8.69900e+02  4.60725e+03 
-9.73215e+02  4.61467e+03 
-1.07683e+03  4.62290e+03 
-1.18082e+03  4.63196e+03 
-1.28518e+03  4.64184e+03 
-1.38998e+03  4.65254e+03 
-1.49521e+03  4.66406e+03 
-1.60095e+03  4.67640e+03 
-1.70719e+03  4.68955e+03 
-1.81400e+03  4.70353e+03 
-1.92138e+03  4.71831e+03 
-2.02939e+03  4.73392e+03 
-2.13803e+03  4.75033e+03 
-2.24737e+03  4.76756e+03 
-2.35740e+03  4.78559e+03 
-2.46819e+03  4.80443e+03 
-2.57974e+03  4.82407e+03 
-2.69210e+03  4.84452e+03 
-2.80528e+03  4.86576e+03 
-2.91934e+03  4.88781e+03 
-3.03426e+03  4.91065e+03 
-3.15012e+03  4.93428e+03 
-3.26690e+03  4.95870e+03 
-3.38468e+03  4.98391e+03 
-3.50343e+03  5.00989e+03 
-3.62322e+03  5.03667e+03 
-3.74404e+03  5.06422e+03 
-3.86594e+03  5.09255e+03 
-3.98892e+03  5.12165e+03 
-4.11304e+03  5.15152e+03 
-4.23828e+03  5.18217e+03 
-4.36470e+03  5.21358e+03 
-4.49228e+03  5.24576e+03 
-4.62109e+03  5.27872e+03 
-4.75110e+03  5.31243e+03 
-4.88238e+03  5.34693e+03 
-5.01490e+03  5.38218e+03 
-5.14873e+03  5.41822e+03 
-5.28384e+03  5.45502e+03 
-5.42031e+03  5.49260e+03 
-5.55809e+03  5.53096e+03 
-5.69728e+03  5.57011e+03 
 6.05412e+03  6.16188e+03 
 5.90780e+03  6.12378e+03 
 5.76290e+03  6.08646e+03 
 5.61934e+03  6.04990e+03 
 5.47715e+03  6.01411e+03 
 5.33625e+03  5.97907e+03 
 5.19668e+03  5.94479e+03 
 5.05835e+03  5.91126e+03 
 4.92130e+03  5.87849e+03 
 4.78545e+03  5.84647e+03 
 4.65083e+03  5.81521e+03 
 4.51737e+03  5.78470e+03 
 4.38508e+03  5.75494e+03 
 4.25391e+03  5.72593e+03 
 4.12387e+03  5.69769e+03 
 3.99489e+03  5.67019e+03 
 3.86700e+03  5.64345e+03 
 3.74011e+03  5.61747e+03 
 3.61426e+03  5.59226e+03 
 3.48937e+03  5.56780e+03 
 3.36546e+03  5.54411e+03 
 3.24245e+03  5.52118e+03 
 3.12037e+03  5.49903e+03 
 2.99913e+03  5.47764e+03 
 2.87877e+03  5.45703e+03 
 2.75920e+03  5.43719e+03 
 2.64044e+03  5.41813e+03 
 2.52242e+03  5.39985e+03 
 2.40514e+03  5.38235e+03 
 2.28855e+03  5.36563e+03 
 2.17264e+03  5.34970e+03 
 2.05735e+03  5.33455e+03 
 1.94268e+03  5.32020e+03 
 1.82857e+03  5.30663e+03 
 1.71502e+03  5.29386e+03 
 1.60196e+03  5.28187e+03 
 1.48940e+03  5.27069e+03 
 1.37726e+03  5.26029e+03 
 1.26556e+03  5.25069e+03 
 1.15423e+03  5.24189e+03 
 1.04326e+03  5.23389e+03 
 9.32580e+02  5.22668e+03 
 8.22208e+02  5.22028e+03 
 7.12065e+02  5.21467e+03 
 6.02159e+02  5.20986e+03 
 4.92416e+02  5.20586e+03 
 3.82844e+02  5.20265e+03 
 2.73368e+02  5.20025e+03 
 1.63995e+02  5.19864e+03 
 5.46527e+01  5.19784e+03 
-5.46527e+01  5.19784e+03 
-1.63995e+02  5.19864e+03 
-2.73368e+02  5.20025e+03 
-3.82844e+02  5.20265e+03 
-4.92416e+02  5.20586e+03 
-6.02159e+02  5.20986e+03 
-7.12065e+02  5.21467e+03 
-8.22208e+02  5.22028e+03 
-9.32580e+02  5.22668e+03 
-1.04326e+03  5.23389e+03 
-1.15423e+03  5.24189e+03 
-1.26556e+03  5.25069e+03 
-1.37726e+03  5.26029e+03 
-1.48940e+03  5.27069e+03 
-1.60196e+03  5.28187e+03 
-1.71502e+03  5.29386e+03 
-1.82857e+03  5.30663e+03 
-1.94268e+03  5.32020e+03 
-2.05735e+03  5.33455e+03 
-2.17264e+03  5.34970e+03 
-2.28855e+03  5.36563e+03 
-2.40514e+03  5.38235e+03 
-2.52242e+03  5.39985e+03 
-2.64044e+03  5.41813e+03 
-2.75920e+03  5.43719e+03 
-2.87877e+03  5.45703e+03 
-2.99913e+03  5.47764e+03 
-3.12037e+03  5.49903e+03 
-3.24245e+03  5.52118e+03 
-3.36546e+03  5.54411e+03 
-3.48937e+03  5.56780e+03 
-3.61426e+03  5.59226e+03 
-3.74011e+03  5.61747e+03 
-3.86700e+03  5.64345e+03 
-3.99489e+03  5.67019e+03 
-4.12387e+03  5.69769e+03 
-4.25391e+03  5.72593e+03 
-4.38508e+03  5.75494e+03 
-4.51737e+03  5.78470e+03 
-4.65083e+03  5.81521e+03 
-4.78545e+03  5.84647e+03 
-4.92130e+03  5.87849e+03 
-5.05835e+03  5.91126e+03 
-5.19668e+03  5.94479e+03 
-5.33625e+03  5.97907e+03 
-5.47715e+03  6.01411e+03 
-5.61934e+03  6.04990e+03 
-5.76290e+03  6.08646e+03 
-5.90780e+03  6.12378e+03 
-6.05412e+03  6.16188e+03 
 6.40114e+03  6.78277e+03 
 6.24784e+03  6.74575e+03 
 6.09599e+03  6.70948e+03 
 5.94549e+03  6.67396e+03 
 5.79638e+03  6.63918e+03 
 5.64857e+03  6.60514e+03 
 5.50209e+03  6.57185e+03 
 5.35687e+03  6.53929e+03 
 5.21293e+03  6.50748e+03 
 5.07020e+03  6.47639e+03 
 4.92870e+03  6.44605e+03 
 4.78835e+03  6.41644e+03 
 4.64919e+03  6.38757e+03 
 4.51113e+03  6.35943e+03 
 4.37420e+03  6.33203e+03 
 4.23832e+03  6.30536e+03 
 4.10353e+03  6.27944e+03 
 3.96973e+03  6.25425e+03 
 3.83696e+03  6.22980e+03 
 3.70514e+03  6.20610e+03 
 3.57429e+03  6.18314e+03 
 3.44433e+03  6.16092e+03 
 3.31529e+03  6.13945e+03 
 3.18708e+03  6.11873e+03 
 3.05974e+03  6.09876e+03 
 2.93317e+03  6.07954e+03 
 2.80741e+03  6.06108e+03 
 2.68237e+03  6.04336e+03 
 2.55807e+03  6.02641e+03 
 2.43443e+03  6.01021e+03 
 2.31148e+03  5.99478e+03 
 2.18913e+03  5.98011e+03 
 2.06740e+03  5.96620e+03 
 1.94620e+03  5.95305e+03 
 1.82557e+03  5.94067e+03 
 1.70541e+03  5.92906e+03 