<?xml version="1.0" encoding="utf-8"?>
<VTKFile byte_order="LittleEndian" type="UnstructuredGrid" version="0.1">
   <UnstructuredGrid>
      <Piece NumberOfCells="5025" NumberOfPoints="5495">
         <Points>
            <DataArray Name="Points" NumberOfComponents="3" format="ascii" type="Float32">
1.0000 -0.8164 0.0000
0.8164 -1.0000 0.0000
0.8702 -0.8702 0.0000
1.0000 -0.6679 0.0000
0.6679 -1.0000 0.0000
0.8513 -0.6949 0.0000
0.6938 -0.8559 0.0000
1.0000 -0.5195 0.0000
0.5195 -1.0000 0.0000
0.6944 -0.7064 0.0000
0.5401 -0.8472 0.0000
0.8380 -0.5357 0.0000
1.0000 -0.3711 0.0000
0.3711 -1.0000 0.0000
0.5598 -0.7198 0.0000
0.6726 -0.5550 0.0000
1.0000 -0.2226 0.0000
0.8219 -0.3745 0.0000
0.3843 -0.8184 0.0000
0.4606 -0.7264 0.0000
0.2226 -1.0000 0.0000
0.5368 -0.6008 0.0000
0.4378 -0.6411 0.0000
1.0000 -0.0742 0.0000
0.8281 -0.2109 0.0000
0.2192 -0.8424 0.0000
0.0742 -1.0000 0.0000
0.3358 -0.6785 0.0000
0.6158 -0.3785 0.0000
0.4118 -0.5608 0.0000
0.4771 -0.4874 0.0000
1.0000 0.0742 0.0000
0.2027 -0.7001 0.0000
0.8353 -0.0547 0.0000
0.0693 -0.8511 0.0000
0.3204 -0.5538 0.0000
0.6532 -0.1923 0.0000
-0.0742 -1.0000 0.0000
0.3393 -0.4111 0.0000
0.1933 -0.5694 0.0000
0.0659 -0.7101 0.0000
0.4474 -0.2855 0.0000
1.0000 0.2226 0.0000
0.8412 0.0982 0.0000
-0.0773 -0.8518 0.0000
0.6718 -0.0320 0.0000
-0.2226 -1.0000 0.0000
0.4989 -0.1479 0.0000
0.1910 -0.4440 0.0000
0.0648 -0.5803 0.0000
-0.0732 -0.7091 0.0000
0.8465 0.2481 0.0000
0.2633 -0.2917 0.0000
1.0000 0.3711 0.0000
0.3367 -0.2086 0.0000
-0.2242 -0.8465 0.0000
0.6781 0.1245 0.0000
0.5169 -0.0056 0.0000
0.0698 -0.4631 0.0000
0.1686 -0.3388 0.0000
-0.3711 -1.0000 0.0000
0.3793 -0.1089 0.0000
-0.0627 -0.5783 0.0000
0.0730 -0.3642 0.0000
0.2106 -0.2106 0.0000
-0.2155 -0.6960 0.0000
0.2579 -0.1489 0.0000
0.1489 -0.2579 0.0000
0.3937 -0.0021 0.0000
0.8496 0.3962 0.0000
-0.0458 -0.4643 0.0000
0.6942 0.2736 0.0000
1.0000 0.5195 0.0000
0.2877 -0.0771 0.0000
-0.3754 -0.8367 0.0000
0.0771 -0.2877 0.0000
0.5052 0.1585 0.0000
-0.0223 -0.3704 0.0000
-0.5195 -1.0000 0.0000
-0.1928 -0.5589 0.0000
0.2978 -0.0000 0.0000
-0.0000 -0.2978 0.0000
0.3780 0.1076 0.0000
-0.1561 -0.4449 0.0000
0.6980 0.4176 0.0000
0.8516 0.5450 0.0000
0.5503 0.3002 0.0000
-0.3678 -0.6692 0.0000
-0.1163 -0.3554 0.0000
1.0000 0.6679 0.0000
0.2877 0.0771 0.0000
-0.0771 -0.2877 0.0000
-0.5348 -0.8289 0.0000
-0.6679 -1.0000 0.0000
-0.3267 -0.5133 0.0000
0.4012 0.2593 0.0000
0.3244 0.1964 0.0000
0.2579 0.1489 0.0000
0.4513 0.3326 0.0000
-0.2656 -0.4006 0.0000
-0.1489 -0.2579 0.0000
-0.2022 -0.3175 0.0000
0.5508 0.4321 0.0000
0.7002 0.5617 0.0000
0.8553 0.6986 0.0000
1.0000 0.8164 0.0000
0.2106 0.2106 0.0000
-0.6956 -0.8439 0.0000
0.2606 0.2699 0.0000
-0.5466 -0.6240 0.0000
-0.2106 -0.2106 0.0000
-0.8164 -1.0000 0.0000
0.3225 0.3442 0.0000
-0.2781 -0.2563 0.0000
0.4025 0.4383 0.0000
0.5524 0.5722 0.0000
-0.3635 -0.3238 0.0000
0.6988 0.7093 0.0000
0.1489 0.2579 0.0000
-0.4804 -0.4243 0.0000
0.8702 0.8702 0.0000
-0.2579 -0.1489 0.0000
0.1832 0.3233 0.0000
-0.7111 -0.6724 0.0000
-0.3338 -0.1733 0.0000
-0.8702 -0.8702 0.0000
0.2262 0.4062 0.0000
0.4130 0.5771 0.0000
-0.6388 -0.5195 0.0000
0.0771 0.2877 0.0000
-0.2877 -0.0771 0.0000
0.5451 0.7132 0.0000
0.2741 0.4986 0.0000
-0.4232 -0.2080 0.0000
0.6936 0.8592 0.0000
0.0970 0.3591 0.0000
-0.0000 0.2978 0.0000
-0.6285 -0.4000 0.0000
-0.3632 -0.0797 0.0000
0.3049 0.5860 0.0000
-0.2978 0.0000 0.0000
-0.7414 -0.5345 0.0000
0.8164 1.0000 0.0000
-0.8608 -0.6871 0.0000
-0.5275 -0.2462 0.0000
0.1239 0.4499 0.0000
0.3919 0.7084 0.0000
-0.0771 0.2877 0.0000
0.0038 0.3739 0.0000
-0.2877 0.0771 0.0000
-1.0000 -0.8164 0.0000
0.5356 0.8580 0.0000
-0.4581 -0.0863 0.0000
0.1634 0.5529 0.0000
-0.3732 0.0179 0.0000
-0.1489 0.2579 0.0000
-0.2579 0.1489 0.0000
-0.2106 0.2106 0.0000
-0.7495 -0.3963 0.0000
0.6679 1.0000 0.0000
-0.6438 -0.2536 0.0000
-0.0886 0.3625 0.0000
-0.8680 -0.5336 0.0000
0.0123 0.4664 0.0000
-0.3510 0.1137 0.0000
0.2276 0.6824 0.0000
-0.5613 -0.0970 0.0000
-1.0000 -0.6679 0.0000
-0.1772 0.3296 0.0000
-0.3086 0.1992 0.0000
-0.4677 0.0390 0.0000
-0.2511 0.2728 0.0000
0.3812 0.8548 0.0000
0.0277 0.5779 0.0000
-0.1040 0.4590 0.0000
0.5195 1.0000 0.0000
-0.7580 -0.2507 0.0000
-0.8722 -0.3893 0.0000
-0.6588 -0.1179 0.0000
-0.4330 0.1601 0.0000
-1.0000 -0.5195 0.0000
-0.2177 0.4224 0.0000
-0.3746 0.2617 0.0000
-0.3030 0.3463 0.0000
0.2247 0.8504 0.0000
0.0544 0.7071 0.0000
-0.5897 0.0628 0.0000
-0.1136 0.5730 0.0000
-0.6674 -0.0114 0.0000
0.3711 1.0000 0.0000
-0.7612 -0.1103 0.0000
-0.8760 -0.2405 0.0000
-1.0000 -0.3711 0.0000
-0.5338 0.2255 0.0000
-0.4509 0.3366 0.0000
-0.3673 0.4262 0.0000
-0.7537 0.0210 0.0000
0.0655 0.8548 0.0000
-0.2753 0.5415 0.0000
-0.1006 0.7104 0.0000
0.2226 1.0000 0.0000
-0.8761 -0.0954 0.0000
-1.0000 -0.2226 0.0000
-0.7143 0.1557 0.0000
-0.4349 0.4758 0.0000
-0.5229 0.4287 0.0000
-0.0882 0.8562 0.0000
0.0742 1.0000 0.0000
-0.2550 0.7052 0.0000
-0.8702 0.0491 0.0000
-0.4146 0.5726 0.0000
-1.0000 -0.0742 0.0000
-0.6602 0.3405 0.0000
-0.8557 0.1965 0.0000
-0.0742 1.0000 0.0000
-0.2391 0.8548 0.0000
-0.5421 0.5594 0.0000
-0.4006 0.7097 0.0000
-1.0000 0.0742 0.0000
-0.8409 0.3594 0.0000
-0.6862 0.5309 0.0000
-0.2226 1.0000 0.0000
-0.3880 0.8554 0.0000
-0.5447 0.7055 0.0000
-1.0000 0.2226 0.0000
-0.3711 1.0000 0.0000
-0.8456 0.5262 0.0000
-0.5372 0.8542 0.0000
-0.6953 0.6963 0.0000
-1.0000 0.3711 0.0000
-0.5195 1.0000 0.0000
-1.0000 0.5195 0.0000
-0.8534 0.6909 0.0000
-0.6941 0.8556 0.0000
-0.6679 1.0000 0.0000
-1.0000 0.6679 0.0000
-0.8702 0.8702 0.0000
-0.8164 1.0000 0.0000
-1.0000 0.8164 0.0000
3.0000 -0.8164 0.0000
2.8164 -1.0000 0.0000
2.8702 -0.8702 0.0000
3.0000 -0.6679 0.0000
2.6679 -1.0000 0.0000
2.8513 -0.6949 0.0000
2.6938 -0.8559 0.0000
3.0000 -0.5195 0.0000
2.5195 -1.0000 0.0000
2.6944 -0.7064 0.0000
2.5401 -0.8472 0.0000
2.8380 -0.5357 0.0000
3.0000 -0.3711 0.0000
2.3711 -1.0000 0.0000
2.5598 -0.7198 0.0000
2.6726 -0.5550 0.0000
3.0000 -0.2226 0.0000
2.8219 -0.3745 0.0000
2.3843 -0.8184 0.0000
2.4606 -0.7264 0.0000
2.2226 -1.0000 0.0000
2.5368 -0.6008 0.0000
2.4378 -0.6411 0.0000
3.0000 -0.0742 0.0000
2.8281 -0.2109 0.0000
2.2192 -0.8424 0.0000
2.0742 -1.0000 0.0000
2.3358 -0.6785 0.0000
2.6158 -0.3785 0.0000
2.4118 -0.5608 0.0000
2.4771 -0.4874 0.0000
3.0000 0.0742 0.0000
2.2027 -0.7001 0.0000
2.8353 -0.0547 0.0000
2.0693 -0.8511 0.0000
2.3204 -0.5538 0.0000
2.6532 -0.1923 0.0000
1.9258 -1.0000 0.0000
2.3393 -0.4111 0.0000
2.1933 -0.5694 0.0000
2.0659 -0.7101 0.0000
2.4474 -0.2855 0.0000
3.0000 0.2226 0.0000
2.8412 0.0982 0.0000
1.9227 -0.8518 0.0000
2.6718 -0.0320 0.0000
1.7774 -1.0000 0.0000
2.4989 -0.1479 0.0000
2.1910 -0.4440 0.0000
2.0648 -0.5803 0.0000
1.9268 -0.7091 0.0000
2.8465 0.2481 0.0000
2.2633 -0.2917 0.0000
3.0000 0.3711 0.0000
2.3367 -0.2086 0.0000
1.7758 -0.8465 0.0000
2.6781 0.1245 0.0000
2.5169 -0.0056 0.0000
2.0698 -0.4631 0.0000
2.1686 -0.3388 0.0000
1.6289 -1.0000 0.0000
2.3793 -0.1089 0.0000
1.9373 -0.5783 0.0000
2.0730 -0.3642 0.0000
2.2106 -0.2106 0.0000
1.7845 -0.6960 0.0000
2.2579 -0.1489 0.0000
2.1489 -0.2579 0.0000
2.3937 -0.0021 0.0000
2.8496 0.3962 0.0000
1.9542 -0.4643 0.0000
2.6942 0.2736 0.0000
3.0000 0.5195 0.0000
2.2877 -0.0771 0.0000
1.6246 -0.8367 0.0000
2.0771 -0.2877 0.0000
2.5052 0.1585 0.0000
1.9777 -0.3704 0.0000
1.4805 -1.0000 0.0000
1.8072 -0.5589 0.0000
2.2978 -0.0000 0.0000
2.0000 -0.2978 0.0000
2.3780 0.1076 0.0000
1.8439 -0.4449 0.0000
2.6980 0.4176 0.0000
2.8516 0.5450 0.0000
2.5503 0.3002 0.0000
1.6322 -0.6692 0.0000
1.8837 -0.3554 0.0000
3.0000 0.6679 0.0000
2.2877 0.0771 0.0000
1.9229 -0.2877 0.0000
1.4652 -0.8289 0.0000
1.3321 -1.0000 0.0000
1.6733 -0.5133 0.0000
2.4012 0.2593 0.0000
2.3244 0.1964 0.0000
2.2579 0.1489 0.0000
2.4513 0.3326 0.0000
1.7344 -0.4006 0.0000
1.8511 -0.2579 0.0000
1.7978 -0.3175 0.0000
2.5508 0.4321 0.0000
2.7002 0.5617 0.0000
2.8553 0.6986 0.0000
3.0000 0.8164 0.0000
2.2106 0.2106 0.0000
1.3044 -0.8439 0.0000
2.2606 0.2699 0.0000
1.4534 -0.6240 0.0000
1.7894 -0.2106 0.0000
1.1836 -1.0000 0.0000
2.3225 0.3442 0.0000
1.7219 -0.2563 0.0000
2.4025 0.4383 0.0000
2.5524 0.5722 0.0000
1.6365 -0.3238 0.0000
2.6988 0.7093 0.0000
2.1489 0.2579 0.0000
1.5196 -0.4243 0.0000
2.8702 0.8702 0.0000
1.7421 -0.1489 0.0000
2.1832 0.3233 0.0000
1.2889 -0.6724 0.0000
1.6662 -0.1733 0.0000
1.1298 -0.8702 0.0000
2.2262 0.4062 0.0000
2.4130 0.5771 0.0000
1.3612 -0.5195 0.0000
2.0771 0.2877 0.0000
1.7123 -0.0771 0.0000
2.5451 0.7132 0.0000
2.2741 0.4986 0.0000
1.5768 -0.2080 0.0000
2.6936 0.8592 0.0000
2.0970 0.3591 0.0000
2.0000 0.2978 0.0000
1.3715 -0.4000 0.0000
1.6368 -0.0797 0.0000
2.3049 0.5860 0.0000
1.7022 0.0000 0.0000
1.2586 -0.5345 0.0000
2.8164 1.0000 0.0000
1.1392 -0.6871 0.0000
1.4725 -0.2462 0.0000
2.1239 0.4499 0.0000
2.3919 0.7084 0.0000
1.9229 0.2877 0.0000
2.0038 0.3739 0.0000
1.7123 0.0771 0.0000
2.5356 0.8580 0.0000
1.5419 -0.0863 0.0000
2.1634 0.5529 0.0000
1.6268 0.0179 0.0000
1.8511 0.2579 0.0000
1.7421 0.1489 0.0000
1.7894 0.2106 0.0000
1.2505 -0.3963 0.0000
2.6679 1.0000 0.0000
1.3562 -0.2536 0.0000
1.9114 0.3625 0.0000
1.1320 -0.5336 0.0000
2.0123 0.4664 0.0000
1.6490 0.1137 0.0000
2.2276 0.6824 0.0000
1.4387 -0.0970 0.0000
1.8228 0.3296 0.0000
1.6914 0.1992 0.0000
1.5323 0.0390 0.0000
1.7489 0.2728 0.0000
2.3812 0.8548 0.0000
2.0277 0.5779 0.0000
1.8960 0.4590 0.0000
2.5195 1.0000 0.0000
1.2420 -0.2507 0.0000
1.1278 -0.3893 0.0000
1.3412 -0.1179 0.0000
1.5670 0.1601 0.0000
1.7823 0.4224 0.0000
1.6254 0.2617 0.0000
1.6970 0.3463 0.0000
2.2247 0.8504 0.0000
2.0544 0.7071 0.0000
1.4103 0.0628 0.0000
1.8864 0.5730 0.0000
1.3326 -0.0114 0.0000
2.3711 1.0000 0.0000
1.2388 -0.1103 0.0000
1.1240 -0.2405 0.0000
1.4662 0.2255 0.0000
1.5491 0.3366 0.0000
1.6327 0.4262 0.0000
1.2463 0.0210 0.0000
2.0655 0.8548 0.0000
1.7247 0.5415 0.0000
1.8994 0.7104 0.0000
2.2226 1.0000 0.0000
1.1239 -0.0954 0.0000
1.2857 0.1557 0.0000
1.5651 0.4758 0.0000
1.4771 0.4287 0.0000
1.9118 0.8562 0.0000
2.0742 1.0000 0.0000
1.7450 0.7052 0.0000
1.1298 0.0491 0.0000
1.5854 0.5726 0.0000
[...]
         <PointData>
            <DataArray Name="fValues" NumberOfComponents="3" format="ascii" type="Float64">
 7.84250e-01  7.93694e-03        00000 
 8.18363e-01  5.35359e-18        00000 
 8.10671e-01  5.50521e-03        00000 
 7.78832e-01  1.29350e-02        00000 
 8.33206e-01 -2.48883e-18        00000 
 7.94186e-01  1.03256e-02        00000 
 8.23515e-01  3.24960e-03        00000 
 7.69575e-01  1.56187e-02        00000 
 8.48049e-01  8.24554e-19        00000 
 8.12012e-01  6.95144e-03        00000 
 8.37138e-01  2.80427e-03        00000 
 7.84833e-01  1.39112e-02        00000 
 7.58930e-01  1.82104e-02        00000 
 8.62892e-01  8.27428e-19        00000 
 8.26261e-01  5.23698e-03        00000 
 8.01737e-01  1.08141e-02        00000 
 7.46929e-01  1.97456e-02        00000 
 7.72691e-01  1.65333e-02        00000 
 8.50000e-01  2.22068e-03        00000 
 8.36140e-01  3.98660e-03        00000 
 8.77735e-01 -5.73800e-19        00000 
 8.18877e-01  7.24959e-03        00000 
 8.31819e-01  4.79946e-03        00000 
 7.33694e-01  2.02141e-02        00000 
 7.56591e-01  1.83743e-02        00000 
 8.66999e-01  1.27046e-03        00000 
 8.92578e-01 -3.34688e-19        00000 
 8.44385e-01  2.95640e-03        00000 
 7.90336e-01  1.36786e-02        00000 
 8.27569e-01  5.39214e-03        00000 
 8.14346e-01  8.19608e-03        00000 
 7.19757e-01  2.00660e-02        00000 
 8.58235e-01  1.73169e-03        00000 
 7.40369e-01  1.87705e-02        00000 
 8.81545e-01  1.36093e-03        00000 
 8.36025e-01  3.57424e-03        00000 
 7.65640e-01  1.65504e-02        00000 
 9.07421e-01  1.32283e-18        00000 
 8.20783e-01  5.33973e-03        00000 
 8.49406e-01  1.64789e-03        00000 
 8.71364e-01  2.02737e-03        00000 
 7.93624e-01  1.10161e-02        00000 
 7.06007e-01  2.00235e-02        00000 
 7.25326e-01  1.84196e-02        00000 
 8.95461e-01  2.15664e-03        00000 
 7.45714e-01  1.68486e-02        00000 
 9.22265e-01  3.80046e-19        00000 
 7.68986e-01  1.39237e-02        00000 
 8.39311e-01  1.27567e-03        00000 
 8.62137e-01  2.12310e-03        00000 
 8.84231e-01  3.86683e-03        00000 
 7.12161e-01  1.83320e-02        00000 
 8.12679e-01  3.54024e-03        00000 
 6.93186e-01  2.05460e-02        00000 
 7.90359e-01  7.17877e-03        00000 
 9.09377e-01  3.29099e-03        00000 
 7.30086e-01  1.61018e-02        00000 
 7.48004e-01  1.35958e-02        00000 
 8.53577e-01  1.85423e-03        00000 
 8.30965e-01  9.81085e-04        00000 
 9.37107e-01 -1.67885e-18        00000 
 7.68305e-01  9.10909e-03        00000 
 8.74262e-01  5.15072e-03        00000 
 8.46598e-01  2.24776e-03        00000 
 7.99800e-01 -1.90739e-04        00000 
 8.97224e-01  6.53930e-03        00000 
 7.80820e-01 -9.98717e-04        00000 
 8.19709e-01  1.59134e-03        00000 
 7.50043e-01  8.74892e-03        00000 
 7.00936e-01  1.92257e-02        00000 
 8.66187e-01  6.00173e-03        00000 
 7.18202e-01  1.61273e-02        00000 
 6.81611e-01  2.16857e-02        00000 
 7.63964e-01 -8.12336e-04        00000 
 9.23529e-01  4.20382e-03        00000 
 8.39552e-01  4.76025e-03        00000 
 7.32939e-01  1.15475e-02        00000 
 8.60528e-01  6.66536e-03        00000 
 9.51954e-01  1.86968e-18        00000 
 8.86442e-01  9.55511e-03        00000 
 7.50613e-01  3.01960e-04        00000 
 8.57857e-01  8.86287e-03        00000 
 7.38684e-01  6.99433e-03        00000 
 8.77821e-01  1.17753e-02        00000 
 7.09704e-01  1.78582e-02        00000 
 6.91157e-01  2.14863e-02        00000 
 7.24443e-01  1.33456e-02        00000 
 9.10545e-01  8.81878e-03        00000 
 8.73070e-01  1.28797e-02        00000 
 6.71200e-01  2.26662e-02        00000 
 7.41820e-01  2.29314e-03        00000 
 8.73283e-01  1.33478e-02        00000 
 9.38000e-01  4.05488e-03        00000 
 9.66782e-01 -5.87787e-20        00000 
 8.98066e-01  1.36836e-02        00000 
 7.32766e-01  8.88170e-03        00000 
 7.36191e-01  6.06239e-03        00000 
 7.37838e-01  5.19558e-03        00000 
 7.28974e-01  1.19535e-02        00000 
 8.88738e-01  1.71892e-02        00000 
 8.84617e-01  1.77359e-02        00000 
 8.83690e-01  1.88379e-02        00000 
 7.19344e-01  1.60330e-02        00000 
 7.02474e-01  2.13491e-02        00000 
 6.82781e-01  2.59497e-02        00000 
 6.64750e-01  2.73319e-02        00000 
 7.39272e-01  9.12910e-03        00000 
 9.52710e-01  2.44978e-03        00000 
 7.40497e-01  8.36090e-03        00000 
 9.24176e-01  8.99844e-03        00000 
 8.91057e-01  2.16824e-02        00000 
 9.81679e-01  8.63593e-19        00000 
 7.37594e-01  1.06132e-02        00000 
 8.91465e-01  2.28046e-02        00000 
 7.30394e-01  1.42191e-02        00000 
 7.14161e-01  2.00335e-02        00000 
 8.96566e-01  2.00583e-02        00000 
 6.97462e-01  2.64116e-02        00000 
 7.45709e-01  1.34227e-02        00000 
 9.08013e-01  1.53595e-02        00000 
 6.84607e-01  3.27266e-02        00000 
 8.92169e-01  2.49518e-02        00000 
 7.48824e-01  1.31468e-02        00000 
 9.41685e-01  4.26053e-03        00000 
 8.93791e-01  2.38113e-02        00000 
 9.63362e-01 -4.84496e-03        00000 
 7.46254e-01  1.48159e-02        00000 
 7.25426e-01  1.89700e-02        00000 
 9.25677e-01  9.39427e-03        00000 
 7.56668e-01  1.76681e-02        00000 
 8.87721e-01  2.74466e-02        00000 
 7.09462e-01  2.39033e-02        00000 
 7.40009e-01  1.71308e-02        00000 
 8.97233e-01  2.03013e-02        00000 
 6.94343e-01  3.04563e-02        00000 
 7.59271e-01  1.91722e-02        00000 
 7.71366e-01  2.15824e-02        00000 
 9.17199e-01  1.15488e-02        00000 
 8.88458e-01  2.26653e-02        00000 
 7.34004e-01  1.96148e-02        00000 
 8.78001e-01  2.90464e-02        00000 
 9.34784e-01  6.94585e-03        00000 
 6.84483e-01  3.72081e-02        00000 
 9.57604e-01  1.87534e-03        00000 
 9.02948e-01  1.60058e-02        00000 
 7.55816e-01  2.04461e-02        00000 
 7.21151e-01  2.21499e-02        00000 
 7.88860e-01  2.49542e-02        00000 
 7.70998e-01  2.46779e-02        00000 
 8.64115e-01  2.99461e-02        00000 
 9.81679e-01  1.66970e-18        00000 
 7.03227e-01  2.62679e-02        00000 
 8.89735e-01  1.75678e-02        00000 
 7.47858e-01  2.14331e-02        00000 
 8.75677e-01  2.08765e-02        00000 
 8.08132e-01  2.75071e-02        00000 
 8.47018e-01  3.00639e-02        00000 
 8.27918e-01  2.92523e-02        00000 
 9.24575e-01  8.11011e-03        00000 
 6.87260e-01  3.02043e-02        00000 
 9.08173e-01  1.17387e-02        00000 
 7.83890e-01  2.77340e-02        00000 
 9.44017e-01  3.92785e-03        00000 
 7.66254e-01  2.54580e-02        00000 
 8.57347e-01  2.11074e-02        00000 
 7.35406e-01  2.24432e-02        00000 
 8.92665e-01  1.33416e-02        00000 
 9.66782e-01 -1.48532e-18        00000 
 7.98982e-01  2.77662e-02        00000 
 8.36898e-01  2.30532e-02        00000 
 8.73928e-01  1.48319e-02        00000 
 8.16820e-01  2.56912e-02        00000 
 7.13239e-01  2.43715e-02        00000 
 7.58035e-01  2.54288e-02        00000 
 7.77869e-01  2.79409e-02        00000 
 6.94263e-01  2.71319e-02        00000 
 9.13109e-01  7.88142e-03        00000 
 9.31389e-01  4.48931e-03        00000 
 8.97303e-01  9.98529e-03        00000 
 8.52209e-01  1.52644e-02        00000 
 9.51954e-01  9.25599e-19        00000 
 7.92165e-01  2.66101e-02        00000 
 8.30100e-01  1.87074e-02        00000 
 8.09998e-01  2.31403e-02        00000 
 7.24028e-01  2.41226e-02        00000 
 7.46627e-01  2.51022e-02        00000 
 8.74483e-01  9.60947e-03        00000 
 7.69587e-01  2.71616e-02        00000 
 8.86240e-01  8.37915e-03        00000 
 7.03065e-01  2.52466e-02        00000 
 9.00308e-01  6.66995e-03        00000 
 9.17799e-01  4.12662e-03        00000 
 9.37107e-01 -4.36714e-19        00000 
 8.48146e-01  1.11204e-02        00000 
 8.25326e-01  1.56896e-02        00000 
 8.05908e-01  2.06937e-02        00000 
 8.86280e-01  5.49616e-03        00000 
 7.34249e-01  2.48868e-02        00000 
 7.85264e-01  2.47605e-02        00000 
 7.57283e-01  2.61282e-02        00000 
 7.12297e-01  2.44658e-02        00000 
 9.03688e-01  3.25731e-03        00000 
 9.22265e-01  9.62007e-19        00000 
 8.68467e-01  5.49375e-03        00000 
 8.06478e-01  1.80991e-02        00000 
 8.19798e-01  1.37164e-02        00000 
 7.44040e-01  2.52054e-02        00000 
 7.21520e-01  2.44422e-02        00000 
 7.68601e-01  2.45263e-02        00000 
 8.88509e-01  2.40222e-03        00000 
 7.94031e-01  1.97590e-02        00000 
 9.07421e-01        00000        00000 
 8.41733e-01  7.49273e-03        00000 
 8.71730e-01  2.14775e-03        00000 
 7.30680e-01  2.44568e-02        00000 
 7.53865e-01  2.40709e-02        00000 
 8.06421e-01  1.46449e-02        00000 
 7.78830e-01  2.09581e-02        00000 
 8.92578e-01  2.84003e-19        00000 
 8.52922e-01  2.70269e-03        00000 
 8.21922e-01  8.58525e-03        00000 
 7.39844e-01  2.36420e-02        00000 
 7.63553e-01  2.13135e-02        00000 
 7.90548e-01  1.61114e-02        00000 
 8.77735e-01 -3.89744e-19        00000 
 7.48948e-01  2.13930e-02        00000 
 8.35427e-01  3.18996e-03        00000 
 7.73556e-01  1.71830e-02        00000 
 8.04199e-01  1.02423e-02        00000 
 8.62892e-01 -1.13752e-18        00000 
 7.57537e-01  1.75097e-02        00000 
 8.48049e-01  1.94423e-18        00000 
 8.18985e-01  3.41098e-03        00000 
 7.83809e-01  1.15228e-02        00000 
 7.64507e-01  1.21200e-02        00000 
 8.33206e-01 -9.75611e-19        00000 
 7.93945e-01  2.57574e-03        00000 
 7.66491e-01  2.92311e-03        00000 
 8.18363e-01  7.81910e-19        00000 
 5.87550e-01  1.02284e-02        00000 
 6.18363e-01  5.76838e-18        00000 
 6.13084e-01  6.53031e-03        00000 
 5.83333e-01  1.53855e-02        00000 
 6.33206e-01 -8.29610e-19        00000 
 5.98471e-01  1.24388e-02        00000 
 6.25818e-01  4.19234e-03        00000 
 5.76082e-01  1.85818e-02        00000 
 6.48049e-01  9.69372e-19        00000 
 6.16341e-01  8.96205e-03        00000 
 6.39594e-01  3.85938e-03        00000 
 5.91212e-01  1.70402e-02        00000 
 5.67771e-01  2.18059e-02        00000 
 6.62892e-01  7.07636e-19        00000 
 6.30586e-01  7.24976e-03        00000 
 6.08107e-01  1.40430e-02        00000 
 5.58444e-01  2.39920e-02        00000 
 5.81556e-01  2.06506e-02        00000 
 6.53084e-01  3.44489e-03        00000 
 6.40531e-01  5.95857e-03        00000 
 6.77735e-01 -5.73800e-19        00000 
 6.24892e-01  1.02739e-02        00000 
 6.37514e-01  7.49939e-03        00000 
 5.48213e-01  2.50959e-02        00000 
 5.68331e-01  2.33666e-02        00000 
 6.69837e-01  2.17125e-03        00000 
 6.92578e-01  8.69777e-19        00000 
 6.49769e-01  5.19750e-03        00000 
 5.99251e-01  1.84734e-02        00000 
 6.34454e-01  8.81467e-03        00000 
 6.22024e-01  1.23220e-02        00000 
 5.37512e-01  2.55634e-02        00000 
 6.63544e-01  3.48123e-03        00000 
 5.55285e-01  2.45051e-02        00000 
 6.84271e-01  2.04616e-03        00000 
 6.43328e-01  6.88221e-03        00000 
 5.77635e-01  2.24776e-02        00000 
 7.07422e-01 -1.18006e-18        00000 
 6.29858e-01  1.02521e-02        00000 
 6.56873e-01  4.28164e-03        00000 
 6.76629e-01  3.33995e-03        00000 
 6.04013e-01  1.71944e-02        00000 
 5.27064e-01  2.61347e-02        00000 
 5.43663e-01  2.48713e-02        00000 
 6.98117e-01  2.78104e-03        00000 
 5.61088e-01  2.36223e-02        00000 
 7.22265e-01  3.80046e-19        00000 
 5.81680e-01  2.10760e-02        00000 
 6.48550e-01  4.95307e-03        00000 
 6.69679e-01  4.00168e-03        00000 
 6.89511e-01  5.01407e-03        00000 
 5.33929e-01  2.55113e-02        00000 
 6.23223e-01  9.45490e-03        00000 
 5.17455e-01  2.72765e-02        00000 
 6.01859e-01  1.44435e-02        00000 
 7.12060e-01  4.07393e-03        00000 
 5.49220e-01  2.37980e-02        00000 
 5.63995e-01  2.17275e-02        00000 
 6.62941e-01  4.26686e-03        00000 
 6.41294e-01  5.34737e-03        00000 
 7.37108e-01 -8.79886e-19        00000 
 5.81690e-01  1.74738e-02        00000 
 6.81917e-01  6.67649e-03        00000 
 6.56998e-01  5.10714e-03        00000 
 6.11045e-01  5.89707e-03        00000 
 7.02771e-01  8.01754e-03        00000 
 5.93405e-01  6.85629e-03        00000 
 6.30129e-01  6.04837e-03        00000 
 5.66196e-01  1.82643e-02        00000 
 5.25962e-01  2.71279e-02        00000 
 6.75738e-01  7.74140e-03        00000 
 5.40903e-01  2.46798e-02        00000 
 5.08907e-01  2.90130e-02        00000 
 5.78369e-01  8.84928e-03        00000 
 7.26422e-01  5.39621e-03        00000 
 6.49789e-01  7.86488e-03        00000 
 5.53415e-01  2.11497e-02        00000 
 6.71245e-01  8.57043e-03        00000 
 7.51951e-01 -1.86968e-19        00000 
 6.94580e-01  1.15192e-02        00000 
 5.67209e-01  1.17449e-02        00000 
 6.68633e-01  1.10850e-02        00000 
 5.58247e-01  1.80751e-02        00000 
 6.87940e-01  1.38432e-02        00000 
 5.35622e-01  2.73092e-02        00000 
 5.19218e-01  3.00411e-02        00000 
 5.48374e-01  2.36592e-02        00000 
 7.16959e-01  1.13251e-02        00000 
 6.84530e-01  1.47968e-02        00000 
 5.01308e-01  3.04617e-02        00000 
 5.60806e-01  1.54387e-02        00000 
 6.85346e-01  1.53066e-02        00000 
 7.41256e-01  5.94125e-03        00000 
 7.66794e-01 -1.93180e-18        00000 
 7.07668e-01  1.71587e-02        00000 
 5.56553e-01  2.10322e-02        00000 
 5.58783e-01  1.91949e-02        00000 
 5.59186e-01  1.99399e-02        00000 
 5.54218e-01  2.39318e-02        00000 
 7.00349e-01  2.08222e-02        00000 
 6.98660e-01  2.01516e-02        00000 
 6.96611e-01  2.19212e-02        00000 
 5.46222e-01  2.73490e-02        00000 
 5.31315e-01  3.16287e-02        00000 
 5.13623e-01  3.49864e-02        00000 
 4.96893e-01  3.54050e-02        00000 
 5.62835e-01  2.52372e-02        00000 
 7.55986e-01  4.81929e-03        00000 
 5.65558e-01  2.34412e-02        00000 
 7.32670e-01  1.35416e-02        00000 
 7.07604e-01  2.53035e-02        00000 
 7.81637e-01  2.77623e-19        00000 
 5.63965e-01  2.48845e-02        00000 
 7.06893e-01  2.80640e-02        00000 
 5.58238e-01  2.77426e-02        00000 
 5.43879e-01  3.23029e-02        00000 
 7.11054e-01  2.63778e-02        00000 
 5.29161e-01  3.75870e-02        00000 
 5.71201e-01  3.06040e-02        00000 
 7.21194e-01  2.21054e-02        00000 
 5.18742e-01  4.20012e-02        00000 
 7.11474e-01  3.03932e-02        00000 
 5.75638e-01  2.98969e-02        00000 
 7.50155e-01  1.01565e-02        00000 
 7.12648e-01  3.16400e-02        00000 
 7.66496e-01  1.32127e-03        00000 
 5.74417e-01  3.10764e-02        00000 
 5.55886e-01  3.31963e-02        00000 
 7.38016e-01  1.68848e-02        00000 
 5.83705e-01  3.55561e-02        00000 
 7.09713e-01  3.51096e-02        00000 
 5.42005e-01  3.71819e-02        00000 
 5.69613e-01  3.29830e-02        00000 
 7.15884e-01  2.95949e-02        00000 
 5.29272e-01  4.27717e-02        00000 
 5.87231e-01  3.70504e-02        00000 
 5.99484e-01  3.97573e-02        00000 
 7.32885e-01  2.09744e-02        00000 
 7.10822e-01  3.27545e-02        00000 
 5.65055e-01  3.53521e-02        00000 
 7.02294e-01  3.91027e-02        00000 
 7.47922e-01  1.57509e-02        00000 
 5.22523e-01  4.85145e-02        00000 
 7.66447e-01  9.94514e-03        00000 
 7.21672e-01  2.64630e-02        00000 
 5.85070e-01  3.81184e-02        00000 
 5.54205e-01  3.73347e-02        00000 
 6.17566e-01  4.29473e-02        00000 
 5.99588e-01  4.30286e-02        00000 
 6.90255e-01  4.23083e-02        00000 
 5.38822e-01  4.05452e-02        00000 
 7.12489e-01  2.94299e-02        00000 
 5.78706e-01  3.88357e-02        00000 
 7.00929e-01  3.28971e-02        00000 
 6.36918e-01  4.48023e-02        00000 
 6.74519e-01  4.44898e-02        00000 
 6.56300e-01  4.53517e-02        00000 
 7.42036e-01  1.96987e-02        00000 
 5.25672e-01  4.37834e-02        00000 
 7.28075e-01  2.39323e-02        00000 
 6.12731e-01  4.58632e-02        00000 
 7.59111e-01  1.55085e-02        00000 
 5.95994e-01  4.39046e-02        00000 
 6.84538e-01  3.46137e-02        00000 
 5.68402e-01  3.94969e-02        00000 
 7.15841e-01  2.66529e-02        00000 
 6.27890e-01  4.51089e-02        00000 
 6.65157e-01  3.79461e-02        00000 
 6.99920e-01  2.85685e-02        00000 
 6.45577e-01  4.18994e-02        00000 
 5.49217e-01  4.03862e-02        00000 
 5.89497e-01  4.40195e-02        00000 
 6.07789e-01  4.64619e-02        00000 
 5.32922e-01  4.23539e-02        00000 
 7.34455e-01  2.20568e-02        00000 
 7.50806e-01  1.88186e-02        00000 
 7.20674e-01  2.44408e-02        00000 
 6.80277e-01  3.01875e-02        00000 
 6.22105e-01  4.46057e-02        00000 
 6.59200e-01  3.46251e-02        00000 
 6.39582e-01  4.01049e-02        00000 
 5.60204e-01  4.17631e-02        00000 
 5.80313e-01  4.38636e-02        00000 
 7.01262e-01  2.52651e-02        00000 
 6.01244e-01  4.62927e-02        00000 
 7.11810e-01  2.42368e-02        00000 
 5.42008e-01  4.20104e-02        00000 
 7.24654e-01  2.27916e-02        00000 
 7.40796e-01  2.07515e-02        00000 
 6.77238e-01  2.78195e-02        00000 
 6.55510e-01  3.29983e-02        00000 
 6.36711e-01  3.88037e-02        00000 
 7.12771e-01  2.28430e-02        00000 
 5.70705e-01  4.40306e-02        00000 
 6.17038e-01  4.39788e-02        00000 
 5.91246e-01  4.59272e-02        00000 
 5.51473e-01  4.26721e-02        00000 
 7.29138e-01  2.13872e-02        00000 
 6.96760e-01  2.34520e-02        00000 
 6.38287e-01  3.71039e-02        00000 
 6.51409e-01  3.25804e-02        00000 
 5.80704e-01  4.56398e-02        00000 
 5.60872e-01  4.40276e-02        00000 
 6.02907e-01  4.51746e-02        00000 
 7.15637e-01  2.13825e-02        00000 
 6.27047e-01  3.98578e-02        00000 
 6.72463e-01  2.64137e-02        00000 
 7.00372e-01  2.16713e-02        00000 
 5.70199e-01  4.54288e-02        00000 
 5.90786e-01  4.57543e-02        00000 
 6.39989e-01  3.52868e-02        00000 
 6.13834e-01  4.26105e-02        00000 
 6.83710e-01  2.29333e-02        00000 
 6.55663e-01  2.95055e-02        00000 
 5.79589e-01  4.61128e-02        00000 
 6.00920e-01  4.43913e-02        00000 
 6.26349e-01  3.87876e-02        00000 
 5.89002e-01  4.55714e-02        00000 
 6.69352e-01  2.45193e-02        00000 
 6.11534e-01  4.18368e-02        00000 
 6.41148e-01  3.35152e-02        00000 
 5.97947e-01  4.36707e-02        00000 
 6.57402e-01  2.65520e-02        00000 
 6.22988e-01  3.79116e-02        00000 
 6.05141e-01  4.06045e-02        00000 
 6.35711e-01  2.85186e-02        00000 
 6.08092e-01  3.36551e-02        00000 
 3.90522e-01  1.02122e-02        00000 
 4.18363e-01 -3.17243e-18        00000 
 4.15240e-01  6.17758e-03        00000 
 3.87423e-01  1.53669e-02        00000 
 4.33206e-01  2.07402e-18        00000 
 4.02333e-01  1.24175e-02        00000 
 4.27697e-01  4.37494e-03        00000 
 3.82059e-01  1.85566e-02        00000 
 4.48049e-01 -8.55503e-19        00000 
 4.20025e-01  9.27660e-03        00000 
 4.41483e-01  4.18912e-03        00000 
 3.96958e-01  1.72890e-02        00000 
 3.75981e-01  2.17767e-02        00000 
 4.62892e-01  1.81916e-19        00000 
 4.34037e-01  7.85005e-03        00000 
 4.13589e-01  1.46865e-02        00000 
 3.69229e-01  2.39579e-02        00000 
 3.89664e-01  2.10684e-02        00000 
 4.55372e-01  3.94417e-03        00000 
 4.43911e-01  6.67888e-03        00000 
 4.77735e-01  1.91267e-19        00000 
 4.29773e-01  1.12067e-02        00000 
 4.41925e-01  8.52859e-03        00000 
 3.61887e-01  2.50580e-02        00000 
 3.79275e-01  2.38385e-02        00000 
 4.71916e-01  2.56986e-03        00000 
 4.92578e-01  1.44450e-18        00000 
 4.53803e-01  6.16298e-03        00000 
 4.07079e-01  1.96156e-02        00000 
 4.39824e-01  1.01636e-02        00000 
 4.28274e-01  1.37479e-02        00000 