<?xml version="1.0" encoding="utf-8"?>
<VTKFile byte_order="LittleEndian" type="UnstructuredGrid" version="0.1">
   <UnstructuredGrid>
      <Piece NumberOfCells="484" NumberOfPoints="265">
         <Points>
            <DataArray Name="Points" NumberOfComponents="3" format="ascii" type="Float32">
1.0000 0.0000 0.0000
1.0000 0.0455 0.0000
1.0000 0.0909 0.0000
1.0000 0.1364 0.0000
1.0000 0.1818 0.0000
1.0000 0.2273 0.0000
1.0000 0.2727 0.0000
1.0000 0.3182 0.0000
1.0000 0.3636 0.0000
1.0000 0.4091 0.0000
1.0000 0.4545 0.0000
1.0000 0.5000 0.0000
1.0909 0.0000 0.0000
1.0909 0.0455 0.0000
1.0909 0.0909 0.0000
1.0909 0.1364 0.0000
1.0909 0.1818 0.0000
1.0909 0.2273 0.0000
1.0909 0.2727 0.0000
1.0909 0.3182 0.0000
1.0909 0.3636 0.0000
1.0909 0.4091 0.0000
1.0909 0.4545 0.0000
1.0909 0.5000 0.0000
1.1818 0.0000 0.0000
1.1818 0.0455 0.0000
1.1818 0.0909 0.0000
1.1818 0.1364 0.0000
1.1818 0.1818 0.0000
1.1818 0.2273 0.0000
1.1818 0.2727 0.0000
1.1818 0.3182 0.0000
1.1818 0.3636 0.0000
1.1818 0.4091 0.0000
1.1818 0.4545 0.0000
1.1818 0.5000 0.0000
1.2727 0.0000 0.0000
1.2727 0.0455 0.0000
1.2727 0.0909 0.0000
1.2727 0.1364 0.0000
1.2727 0.1818 0.0000
1.2727 0.2273 0.0000
1.2727 0.2727 0.0000
1.2727 0.3182 0.0000
1.2727 0.3636 0.0000
1.2727 0.4091 0.0000
1.2727 0.4545 0.0000
1.2727 0.5000 0.0000
1.3636 0.0000 0.0000
1.3636 0.0455 0.0000
1.3636 0.0909 0.0000
1.3636 0.1364 0.0000
1.3636 0.1818 0.0000
1.3636 0.2273 0.0000
1.3636 0.2727 0.0000
1.3636 0.3182 0.0000
1.3636 0.3636 0.0000
1.3636 0.4091 0.0000
1.3636 0.4545 0.0000
1.3636 0.5000 0.0000
1.4545 0.0000 0.0000
1.4545 0.0455 0.0000
1.4545 0.0909 0.0000
1.4545 0.1364 0.0000
1.4545 0.1818 0.0000
1.4545 0.2273 0.0000
1.4545 0.2727 0.0000
1.4545 0.3182 0.0000
1.4545 0.3636 0.0000
1.4545 0.4091 0.0000
1.4545 0.4545 0.0000
1.4545 0.5000 0.0000
1.5455 0.0000 0.0000
1.5455 0.0455 0.0000
1.5455 0.0909 0.0000
1.5455 0.1364 0.0000
1.5455 0.1818 0.0000
1.5455 0.2273 0.0000
1.5455 0.2727 0.0000
1.5455 0.3182 0.0000
1.5455 0.3636 0.0000
1.5455 0.4091 0.0000
1.5455 0.4545 0.0000
1.5455 0.5000 0.0000
1.6364 0.0000 0.0000
1.6364 0.0455 0.0000
1.6364 0.0909 0.0000
1.6364 0.1364 0.0000
1.6364 0.1818 0.0000
1.6364 0.2273 0.0000
1.6364 0.2727 0.0000
1.6364 0.3182 0.0000
1.6364 0.3636 0.0000
1.6364 0.4091 0.0000
1.6364 0.4545 0.0000
1.6364 0.5000 0.0000
1.7273 0.0000 0.0000
1.7273 0.0455 0.0000
1.7273 0.0909 0.0000
1.7273 0.1364 0.0000
1.7273 0.1818 0.0000
1.7273 0.2273 0.0000
1.7273 0.2727 0.0000
1.7273 0.3182 0.0000
1.7273 0.3636 0.0000
1.7273 0.4091 0.0000
1.7273 0.4545 0.0000
1.7273 0.5000 0.0000
1.8182 0.0000 0.0000
1.8182 0.0455 0.0000
1.8182 0.0909 0.0000
1.8182 0.1364 0.0000
1.8182 0.1818 0.0000
1.8182 0.2273 0.0000
1.8182 0.2727 0.0000
1.8182 0.3182 0.0000
1.8182 0.3636 0.0000
1.8182 0.4091 0.0000
1.8182 0.4545 0.0000
1.8182 0.5000 0.0000
1.9091 0.0000 0.0000
1.9091 0.0455 0.0000
1.9091 0.0909 0.0000
1.9091 0.1364 0.0000
1.9091 0.1818 0.0000
1.9091 0.2273 0.0000
1.9091 0.2727 0.0000
1.9091 0.3182 0.0000
1.9091 0.3636 0.0000
1.9091 0.4091 0.0000
1.9091 0.4545 0.0000
1.9091 0.5000 0.0000
2.0000 0.0000 0.0000
2.0000 0.0455 0.0000
2.0000 0.0909 0.0000
2.0000 0.1364 0.0000
2.0000 0.1818 0.0000
2.0000 0.2273 0.0000
2.0000 0.2727 0.0000
2.0000 0.3182 0.0000
2.0000 0.3636 0.0000
2.0000 0.4091 0.0000
2.0000 0.4545 0.0000
2.0000 0.5000 0.0000
1.0455 0.0227 0.0000
1.0455 0.0682 0.0000
1.0455 0.1136 0.0000
1.0455 0.1591 0.0000
1.0455 0.2045 0.0000
1.0455 0.2500 0.0000
1.0455 0.2955 0.0000
1.0455 0.3409 0.0000
1.0455 0.3864 0.0000
1.0455 0.4318 0.0000
1.0455 0.4773 0.0000
1.1364 0.0227 0.0000
1.1364 0.0682 0.0000
1.1364 0.1136 0.0000
1.1364 0.1591 0.0000
1.1364 0.2045 0.0000
1.1364 0.2500 0.0000
1.1364 0.2955 0.0000
1.1364 0.3409 0.0000
1.1364 0.3864 0.0000
1.1364 0.4318 0.0000
1.1364 0.4773 0.0000
1.2273 0.0227 0.0000
1.2273 0.0682 0.0000
1.2273 0.1136 0.0000
1.2273 0.1591 0.0000
1.2273 0.2045 0.0000
1.2273 0.2500 0.0000
1.2273 0.2955 0.0000
1.2273 0.3409 0.0000
1.2273 0.3864 0.0000
1.2273 0.4318 0.0000
1.2273 0.4773 0.0000
1.3182 0.0227 0.0000
1.3182 0.0682 0.0000
1.3182 0.1136 0.0000
1.3182 0.1591 0.0000
1.3182 0.2045 0.0000
1.3182 0.2500 0.0000
1.3182 0.2955 0.0000
1.3182 0.3409 0.0000
1.3182 0.3864 0.0000
1.3182 0.4318 0.0000
1.3182 0.4773 0.0000
1.4091 0.0227 0.0000
1.4091 0.0682 0.0000
1.4091 0.1136 0.0000
1.4091 0.1591 0.0000
1.4091 0.2045 0.0000
1.4091 0.2500 0.0000
1.4091 0.2955 0.0000
1.4091 0.3409 0.0000
1.4091 0.3864 0.0000
1.4091 0.4318 0.0000
1.4091 0.4773 0.0000
1.5000 0.0227 0.0000
1.5000 0.0682 0.0000
1.5000 0.1136 0.0000
1.5000 0.1591 0.0000
1.5000 0.2045 0.0000
1.5000 0.2500 0.0000
1.5000 0.2955 0.0000
1.5000 0.3409 0.0000
1.5000 0.3864 0.0000
1.5000 0.4318 0.0000
1.5000 0.4773 0.0000
1.5909 0.0227 0.0000
1.5909 0.0682 0.0000
1.5909 0.1136 0.0000
1.5909 0.1591 0.0000
1.5909 0.2045 0.0000
1.5909 0.2500 0.0000
1.5909 0.2955 0.0000
1.5909 0.3409 0.0000
1.5909 0.3864 0.0000
1.5909 0.4318 0.0000
1.5909 0.4773 0.0000
1.6818 0.0227 0.0000
1.6818 0.0682 0.0000
1.6818 0.1136 0.0000
1.6818 0.1591 0.0000
1.6818 0.2045 0.0000
1.6818 0.2500 0.0000
1.6818 0.2955 0.0000
1.6818 0.3409 0.0000
1.6818 0.3864 0.0000
1.6818 0.4318 0.0000
1.6818 0.4773 0.0000
1.7727 0.0227 0.0000
1.7727 0.0682 0.0000
1.7727 0.1136 0.0000
1.7727 0.1591 0.0000
1.7727 0.2045 0.0000
1.7727 0.2500 0.0000
1.7727 0.2955 0.0000
1.7727 0.3409 0.0000
1.7727 0.3864 0.0000
1.7727 0.4318 0.0000
1.7727 0.4773 0.0000
1.8636 0.0227 0.0000
1.8636 0.0682 0.0000
1.8636 0.1136 0.0000
1.8636 0.1591 0.0000
1.8636 0.2045 0.0000
1.8636 0.2500 0.0000
1.8636 0.2955 0.0000
1.8636 0.3409 0.0000
1.8636 0.3864 0.0000
1.8636 0.4318 0.0000
1.8636 0.4773 0.0000
1.9545 0.0227 0.0000
1.9545 0.0682 0.0000
1.9545 0.1136 0.0000
1.9545 0.1591 0.0000
1.9545 0.2045 0.0000
1.9545 0.2500 0.0000
1.9545 0.2955 0.0000
1.9545 0.3409 0.0000
1.9545 0.3864 0.0000
1.9545 0.4318 0.0000
1.9545 0.4773 0.0000</DataArray>
         </Points>
         <Cells>
            <DataArray Name="connectivity" format="ascii" type="Int32">
 1 0 144
 2 1 145
 3 2 146
 4 3 147
 5 4 148
 6 5 149
 7 6 150
 8 7 151
 9 8 152
 10 9 153
 11 10 154
 13 12 155
 14 13 156
 15 14 157
 16 15 158
 17 16 159
 18 17 160
 19 18 161
 20 19 162
 21 20 163
 22 21 164
 23 22 165
 25 24 166
 26 25 167
 27 26 168
 28 27 169
 29 28 170
 30 29 171
 31 30 172
 32 31 173
 33 32 174
 34 33 175
 35 34 176
 37 36 177
 38 37 178
 39 38 179
 40 39 180
 41 40 181
 42 41 182
 43 42 183
 44 43 184
 45 44 185
 46 45 186
 47 46 187
 49 48 188
 50 49 189
 51 50 190
 52 51 191
 53 52 192
 54 53 193
 55 54 194
 56 55 195
 57 56 196
 58 57 197
 59 58 198
 61 60 199
 62 61 200
 63 62 201
 64 63 202
 65 64 203
 66 65 204
 67 66 205
 68 67 206
 69 68 207
 70 69 208
 71 70 209
 73 72 210
 74 73 211
 75 74 212
 76 75 213
 77 76 214
 78 77 215
 79 78 216
 80 79 217
 81 80 218
 82 81 219
 83 82 220
 85 84 221
 86 85 222
 87 86 223
 88 87 224
 89 88 225
 90 89 226
 91 90 227
 92 91 228
 93 92 229
 94 93 230
 95 94 231
 97 96 232
 98 97 233
 99 98 234
 100 99 235
 101 100 236
 102 101 237
 103 102 238
 104 103 239
 105 104 240
 106 105 241
 107 106 242
 109 108 243
 110 109 244
 111 110 245
 112 111 246
 113 112 247
 114 113 248
 115 114 249
 116 115 250
 117 116 251
 118 117 252
 119 118 253
 121 120 254
 122 121 255
 123 122 256
 124 123 257
 125 124 258
 126 125 259
 127 126 260
 128 127 261
 129 128 262
 130 129 263
 131 130 264
 13 1 144
 14 2 145
 15 3 146
 16 4 147
 17 5 148
 18 6 149
 19 7 150
 20 8 151
 21 9 152
 22 10 153
 23 11 154
 25 13 155
 26 14 156
 27 15 157
 28 16 158
 29 17 159
 30 18 160
 31 19 161
 32 20 162
 33 21 163
 34 22 164
 35 23 165
 37 25 166
 38 26 167
 39 27 168
 40 28 169
 41 29 170
 42 30 171
 43 31 172
 44 32 173
 45 33 174
 46 34 175
 47 35 176
 49 37 177
 50 38 178
 51 39 179
 52 40 180
 53 41 181
 54 42 182
 55 43 183
 56 44 184
 57 45 185
 58 46 186
 59 47 187
 61 49 188
 62 50 189
 63 51 190
 64 52 191
 65 53 192
 66 54 193
 67 55 194
 68 56 195
 69 57 196
 70 58 197
 71 59 198
 73 61 199
 74 62 200
 75 63 201
 76 64 202
 77 65 203
 78 66 204
 79 67 205
 80 68 206
 81 69 207
 82 70 208
 83 71 209
 85 73 210
 86 74 211
 87 75 212
 88 76 213
 89 77 214
 90 78 215
 91 79 216
 92 80 217
 93 81 218
 94 82 219
 95 83 220
 97 85 221
 98 86 222
 99 87 223
 100 88 224
 101 89 225
 102 90 226
 103 91 227
 104 92 228
 105 93 229
 106 94 230
 107 95 231
 109 97 232
 110 98 233
 111 99 234
 112 100 235
 113 101 236
 114 102 237
 115 103 238
 116 104 239
 117 105 240
 118 106 241
 119 107 242
 121 109 243
 122 110 244
 123 111 245
 124 112 246
 125 113 247
 126 114 248
 127 115 249
 128 116 250
 129 117 251
 130 118 252
 131 119 253
 133 121 254
 134 122 255
 135 123 256
 136 124 257
 137 125 258
 138 126 259
 139 127 260
 140 128 261
 141 129 262
 142 130 263
 143 131 264
 12 13 144
 13 14 145
 14 15 146
 15 16 147
 16 17 148
 17 18 149
 18 19 150
 19 20 151
 20 21 152
 21 22 153
 22 23 154
 24 25 155
 25 26 156
 26 27 157
 27 28 158
 28 29 159
 29 30 160
 30 31 161
 31 32 162
 32 33 163
 33 34 164
 34 35 165
 36 37 166
 37 38 167
 38 39 168
 39 40 169
 40 41 170
 41 42 171
 42 43 172
 43 44 173
 44 45 174
 45 46 175
 46 47 176
 48 49 177
 49 50 178
 50 51 179
 51 52 180
 52 53 181
 53 54 182
 54 55 183
 55 56 184
 56 57 185
 57 58 186
 58 59 187
 60 61 188
 61 62 189
 62 63 190
 63 64 191
 64 65 192
 65 66 193
 66 67 194
 67 68 195
 68 69 196
 69 70 197
 70 71 198
 72 73 199
 73 74 200
 74 75 201
 75 76 202
 76 77 203
 77 78 204
 78 79 205
 79 80 206
 80 81 207
 81 82 208
 82 83 209
 84 85 210
 85 86 211
 86 87 212
 87 88 213
 88 89 214
 89 90 215
 90 91 216
 91 92 217
 92 93 218
 93 94 219
 94 95 220
 96 97 221
 97 98 222
 98 99 223
 99 100 224
 100 101 225
 101 102 226
 102 103 227
 103 104 228
 104 105 229
 105 106 230
 106 107 231
 108 109 232
 109 110 233
 110 111 234
 111 112 235
 112 113 236
 113 114 237
 114 115 238
 115 116 239
 116 117 240
 117 118 241
 118 119 242
 120 121 243
 121 122 244
 122 123 245
 123 124 246
 124 125 247
 125 126 248
 126 127 249
 127 128 250
 128 129 251
 129 130 252
 130 131 253
 132 133 254
 133 134 255
 134 135 256
 135 136 257
 136 137 258
 137 138 259
 138 139 260
 139 140 261
 140 141 262
 141 142 263
 142 143 264
 0 12 144
 1 13 145
 2 14 146
 3 15 147
 4 16 148
 5 17 149
 6 18 150
 7 19 151
 8 20 152
 9 21 153
 10 22 154
 12 24 155
 13 25 156
 14 26 157
 15 27 158
 16 28 159
 17 29 160
 18 30 161
 19 31 162
 20 32 163
 21 33 164
 22 34 165
 24 36 166
 25 37 167
 26 38 168
 27 39 169
 28 40 170
 29 41 171
 30 42 172
 31 43 173
 32 44 174
 33 45 175
 34 46 176
 36 48 177
 37 49 178
 38 50 179
 39 51 180
 40 52 181
 41 53 182
 42 54 183
 43 55 184
 44 56 185
 45 57 186
 46 58 187
 48 60 188
 49 61 189
 50 62 190
 51 63 191
 52 64 192
 53 65 193
 54 66 194
 55 67 195
 56 68 196
 57 69 197
 58 70 198
 60 72 199
 61 73 200
 62 74 201
 63 75 202
 64 76 203
 65 77 204
 66 78 205
 67 79 206
 68 80 207
 69 81 208
 70 82 209
 72 84 210
 73 85 211
 74 86 212
 75 87 213
 76 88 214
 77 89 215
 78 90 216
 79 91 217
 80 92 218
 81 93 219
 82 94 220
 84 96 221
 85 97 222
 86 98 223
 87 99 224
 88 100 225
 89 101 226
 90 102 227
 91 103 228
 92 104 229
 93 105 230
 94 106 231
 96 108 232
 97 109 233
 98 110 234
 99 111 235
 100 112 236
 101 113 237
 102 114 238
 103 115 239
 104 116 240
 105 117 241
 106 118 242
 108 120 243
 109 121 244
 110 122 245
 111 123 246
 112 124 247
 113 125 248
 114 126 249
 115 127 250
 116 128 251
 117 129 252
 118 130 253
 120 132 254
 121 133 255
 122 134 256
 123 135 257
 124 136 258
 125 137 259
 126 138 260
 127 139 261
 128 140 262
 129 141 263
 130 142 264</DataArray>
            <DataArray Name="offsets" format="ascii" type="Int32">3 6 9 12 15 18 21 24 27 30 33 36 39 42 45 48 51 54 57 60 63 66 69 72 75 78 81 84 87 90 93 96 99 102 105 108 111 114 117 120 123 126 129 132 135 138 141 144 147 150 153 156 159 162 165 168 171 174 177 180 183 186 189 192 195 198 201 204 207 210 213 216 219 222 225 228 231 234 237 240 243 246 249 252 255 258 261 264 267 270 273 276 279 282 285 288 291 294 297 300 303 306 309 312 315 318 321 324 327 330 333 336 339 342 345 348 351 354 357 360 363 366 369 372 375 378 381 384 387 390 393 396 399 402 405 408 411 414 417 420 423 426 429 432 435 438 441 444 447 450 453 456 459 462 465 468 471 474 477 480 483 486 489 492 495 498 501 504 507 510 513 516 519 522 525 528 531 534 537 540 543 546 549 552 555 558 561 564 567 570 573 576 579 582 585 588 591 594 597 600 603 606 609 612 615 618 621 624 627 630 633 636 639 642 645 648 651 654 657 660 663 666 669 672 675 678 681 684 687 690 693 696 699 702 705 708 711 714 717 720 723 726 729 732 735 738 741 744 747 750 753 756 759 762 765 768 771 774 777 780 783 786 789 792 795 798 801 804 807 810 813 816 819 822 825 828 831 834 837 840 843 846 849 852 855 858 861 864 867 870 873 876 879 882 885 888 891 894 897 900 903 906 909 912 915 918 921 924 927 930 933 936 939 942 945 948 951 954 957 960 963 966 969 972 975 978 981 984 987 990 993 996 999 1002 1005 1008 1011 1014 1017 1020 1023 1026 1029 1032 1035 1038 1041 1044 1047 1050 1053 1056 1059 1062 1065 1068 1071 1074 1077 1080 1083 1086 1089 1092 1095 1098 1101 1104 1107 1110 1113 1116 1119 1122 1125 1128 1131 1134 1137 1140 1143 1146 1149 1152 1155 1158 1161 1164 1167 1170 1173 1176 1179 1182 1185 1188 1191 1194 1197 1200 1203 1206 1209 1212 1215 1218 1221 1224 1227 1230 1233 1236 1239 1242 1245 1248 1251 1254 1257 1260 1263 1266 1269 1272 1275 1278 1281 1284 1287 1290 1293 1296 1299 1302 1305 1308 1311 1314 1317 1320 1323 1326 1329 1332 1335 1338 1341 1344 1347 1350 1353 1356 1359 1362 1365 1368 1371 1374 1377 1380 1383 1386 1389 1392 1395 1398 1401 1404 1407 1410 1413 1416 1419 1422 1425 1428 1431 1434 1437 1440 1443 1446 1449 1452 </DataArray>
            <DataArray Name="types" format="ascii" type="UInt8">5 5 5 5 5 5 5 5 5 5 5 5 5 5 5 5 5 5 5 5 5 5 5 5 5 5 5 5 5 5 5 5 5 5 5 5 5 5 5 5 5 5 5 5 5 5 5 5 5 5 5 5 5 5 5 5 5 5 5 5 5 5 5 5 5 5 5 5 5 5 5 5 5 5 5 5 5 5 5 5 5 5 5 5 5 5 5 5 5 5 5 5 5 5 5 5 5 5 5 5 5 5 5 5 5 5 5 5 5 5 5 5 5 5 5 5 5 5 5 5 5 5 5 5 5 5 5 5 5 5 5 5 5 5 5 5 5 5 5 5 5 5 5 5 5 5 5 5 5 5 5 5 5 5 5 5 5 5 5 5 5 5 5 5 5 5 5 5 5 5 5 5 5 5 5 5 5 5 5 5 5 5 5 5 5 5 5 5 5 5 5 5 5 5 5 5 5 5 5 5 5 5 5 5 5 5 5 5 5 5 5 5 5 5 5 5 5 5 5 5 5 5 5 5 5 5 5 5 5 5 5 5 5 5 5 5 5 5 5 5 5 5 5 5 5 5 5 5 5 5 5 5 5 5 5 5 5 5 5 5 5 5 5 5 5 5 5 5 5 5 5 5 5 5 5 5 5 5 5 5 5 5 5 5 5 5 5 5 5 5 5 5 5 5 5 5 5 5 5 5 5 5 5 5 5 5 5 5 5 5 5 5 5 5 5 5 5 5 5 5 5 5 5 5 5 5 5 5 5 5 5 5 5 5 5 5 5 5 5 5 5 5 5 5 5 5 5 5 5 5 5 5 5 5 5 5 5 5 5 5 5 5 5 5 5 5 5 5 5 5 5 5 5 5 5 5 5 5 5 5 5 5 5 5 5 5 5 5 5 5 5 5 5 5 5 5 5 5 5 5 5 5 5 5 5 5 5 5 5 5 5 5 5 5 5 5 5 5 5 5 5 5 5 5 5 5 5 5 5 5 5 5 5 5 5 5 5 5 5 5 5 5 5 5 5 5 5 5 5 5 5 5 5 5 5 5 5 5 5 5 5 5 5 5 5 5 5 5 5 5 5 5 5 5 5 5 5 5 5 5 5 5 5 5 </DataArray>
         </Cells>
         <PointData>
            <DataArray Name="fValues" NumberOfComponents="3" format="ascii" type="Float64">
-1.92766e-18 -5.45710e-17        00000 
-1.56599e-17  3.13198e-17        00000 
-3.31246e-18  6.62492e-18        00000 
 3.28614e-18  4.31447e-17        00000 
-5.79681e-18 -1.32498e-17        00000 
 3.48154e-18  1.76811e-17        00000 
-2.76038e-18 -6.62492e-18        00000 
 3.03469e-19 -1.58151e-17        00000 
 2.20831e-18  4.41662e-18        00000 
-6.12656e-18  2.67341e-17        00000 
 2.78406e-18 -6.23630e-17        00000 
-2.40665e-17  1.55907e-17        00000 
-1.65198e-01 -2.42630e-01        00000 
-8.01348e-02 -2.20194e-01        00000 
-4.57957e-02 -2.15007e-01        00000 
-2.88486e-02 -2.17737e-01        00000 
-1.98978e-02 -2.23870e-01        00000 
-1.45269e-02 -2.31549e-01        00000 
-9.96414e-03 -2.40283e-01        00000 
-3.76672e-03 -2.50525e-01        00000 
 7.17942e-03 -2.63792e-01        00000 
 2.83166e-02 -2.83383e-01        00000 
 7.21776e-02 -3.16264e-01        00000 
 1.88360e-01 -3.75804e-01        00000 
-2.12546e-01 -4.55170e-01        00000 
-1.29351e-01 -4.53042e-01        00000 
-7.63852e-02 -4.50435e-01        00000 
-4.66367e-02 -4.52640e-01        00000 
-2.97419e-02 -4.59523e-01        00000 
-1.90106e-02 -4.70409e-01        00000 
-9.56274e-03 -4.85061e-01        00000 
 3.06214e-03 -5.03850e-01        00000 
 2.41552e-02 -5.27727e-01        00000 
 6.13812e-02 -5.57913e-01        00000 
 1.26872e-01 -5.94264e-01        00000 
 2.23626e-01 -6.27427e-01        00000 
-1.94484e-01 -6.38856e-01        00000 
-1.26870e-01 -6.46326e-01        00000 
-8.04596e-02 -6.52002e-01        00000 
-5.00182e-02 -6.58355e-01        00000 
-3.06607e-02 -6.67587e-01        00000 
-1.71974e-02 -6.80661e-01        00000 
-4.96376e-03 -6.97946e-01        00000 
 1.04996e-02 -7.19497e-01        00000 
 3.39017e-02 -7.44974e-01        00000 
 7.03016e-02 -7.73158e-01        00000 
 1.23300e-01 -8.01087e-01        00000 
 1.96369e-01 -8.26249e-01        00000 
-1.33796e-01 -7.71532e-01        00000 
-8.99424e-02 -7.86117e-01        00000 
-5.87788e-02 -7.97116e-01        00000 
-3.73312e-02 -8.07488e-01        00000 
-2.25804e-02 -8.19286e-01        00000 
-1.15969e-02 -8.33881e-01        00000 
-1.41669e-03 -8.51875e-01        00000 
 1.08656e-02 -8.73145e-01        00000 
 2.80395e-02 -8.96830e-01        00000 
 5.25559e-02 -9.21275e-01        00000 
 8.67266e-02 -9.44317e-01        00000 
 1.32491e-01 -9.62990e-01        00000 
-4.74427e-02 -8.41223e-01        00000 
-3.22843e-02 -8.59267e-01        00000 
-2.13621e-02 -8.73051e-01        00000 
-1.36765e-02 -8.85466e-01        00000 
-8.24147e-03 -8.98653e-01        00000 
-4.05789e-03 -9.13970e-01        00000 
-1.44839e-04 -9.32020e-01        00000 
 4.46082e-03 -9.52645e-01        00000 
 1.06487e-02 -9.74956e-01        00000 
 1.92548e-02 -9.97403e-01        00000 
 3.10076e-02 -1.01780e+00        00000 
 4.65946e-02 -1.03345e+00        00000 
 4.74427e-02 -8.41223e-01        00000 
 3.22843e-02 -8.59267e-01        00000 
 2.13621e-02 -8.73051e-01        00000 
 1.36765e-02 -8.85466e-01        00000 
 8.24147e-03 -8.98653e-01        00000 
 4.05789e-03 -9.13970e-01        00000 
 1.44839e-04 -9.32020e-01        00000 
-4.46082e-03 -9.52645e-01        00000 
-1.06487e-02 -9.74956e-01        00000 
-1.92548e-02 -9.97403e-01        00000 
-3.10076e-02 -1.01780e+00        00000 
-4.65946e-02 -1.03345e+00        00000 
 1.33796e-01 -7.71532e-01        00000 
 8.99424e-02 -7.86117e-01        00000 
 5.87788e-02 -7.97116e-01        00000 
 3.73312e-02 -8.07488e-01        00000 
 2.25804e-02 -8.19286e-01        00000 
 1.15969e-02 -8.33881e-01        00000 
 1.41669e-03 -8.51875e-01        00000 
-1.08656e-02 -8.73145e-01        00000 
-2.80395e-02 -8.96830e-01        00000 
-5.25559e-02 -9.21275e-01        00000 
-8.67266e-02 -9.44317e-01        00000 
-1.32491e-01 -9.62990e-01        00000 
 1.94484e-01 -6.38856e-01        00000 
 1.26870e-01 -6.46326e-01        00000 
 8.04596e-02 -6.52002e-01        00000 
 5.00182e-02 -6.58355e-01        00000 
 3.06607e-02 -6.67587e-01        00000 
 1.71974e-02 -6.80661e-01        00000 
 4.96376e-03 -6.97946e-01        00000 
-1.04996e-02 -7.19497e-01        00000 
-3.39017e-02 -7.44974e-01        00000 
-7.03016e-02 -7.73158e-01        00000 
-1.23300e-01 -8.01087e-01        00000 
-1.96369e-01 -8.26249e-01        00000 
 2.12546e-01 -4.55170e-01        00000 
 1.29351e-01 -4.53042e-01        00000 
 7.63852e-02 -4.50435e-01        00000 
 4.66367e-02 -4.52640e-01        00000 
 2.97419e-02 -4.59523e-01        00000 
 1.90106e-02 -4.70409e-01        00000 
 9.56274e-03 -4.85061e-01        00000 
-3.06214e-03 -5.03850e-01        00000 
-2.41552e-02 -5.27727e-01        00000 
-6.13812e-02 -5.57913e-01        00000 
-1.26872e-01 -5.94264e-01        00000 
-2.23626e-01 -6.27427e-01        00000 
 1.65198e-01 -2.42630e-01        00000 
 8.01348e-02 -2.20194e-01        00000 
 4.57957e-02 -2.15007e-01        00000 
 2.88486e-02 -2.17737e-01        00000 
 1.98978e-02 -2.23870e-01        00000 
 1.45269e-02 -2.31549e-01        00000 
 9.96414e-03 -2.40283e-01        00000 
 3.76672e-03 -2.50525e-01        00000 
-7.17942e-03 -2.63792e-01        00000 
-2.83166e-02 -2.83383e-01        00000 
-7.21776e-02 -3.16264e-01        00000 
-1.88360e-01 -3.75804e-01        00000 
 4.08984e-17 -4.67411e-17        00000 
-1.50056e-17        00000        00000 
 7.50664e-18  2.17334e-17        00000 
-3.28120e-18 -4.35059e-17        00000 
-4.37710e-19 -9.24320e-18        00000 
 1.13542e-18 -7.22139e-17        00000 
 1.53814e-19  4.14323e-17        00000 
-9.36058e-20  4.39545e-18        00000 
 2.27662e-18  2.96320e-19        00000 
-6.94390e-18  1.32629e-17        00000 
 8.57464e-18 -6.00225e-17        00000 
 5.84263e-18  2.33705e-17        00000 
-5.74543e-02 -1.08488e-01        00000 
-3.05857e-02 -1.05886e-01        00000 
-1.91331e-02 -1.06748e-01        00000 
-1.32469e-02 -1.09642e-01        00000 
-9.93385e-03 -1.13399e-01        00000 
-7.63283e-03 -1.17571e-01        00000 
-5.20359e-03 -1.22176e-01        00000 
-1.44055e-03 -1.27650e-01        00000 
 5.48682e-03 -1.35000e-01        00000 
 1.94387e-02 -1.46190e-01        00000 
 5.48404e-02 -1.63158e-01        00000 
-1.50319e-01 -3.42918e-01        00000 
-8.33628e-02 -3.33089e-01        00000 
-4.93258e-02 -3.32868e-01        00000 
-3.14109e-02 -3.37768e-01        00000 
-2.13486e-02 -3.45883e-01        00000 
-1.42893e-02 -3.56411e-01        00000 
-6.53553e-03 -3.69384e-01        00000 
 5.82312e-03 -3.85612e-01        00000 
 2.84263e-02 -4.06838e-01        00000 
 7.15869e-02 -4.36121e-01        00000 
 1.57320e-01 -4.80089e-01        00000 
-1.67472e-01 -5.49671e-01        00000 
-1.04698e-01 -5.51008e-01        00000 
-6.40921e-02 -5.53299e-01        00000 
-3.96705e-02 -5.59317e-01        00000 
-2.45312e-02 -5.69313e-01        00000 
-1.31388e-02 -5.83283e-01        00000 
-7.18659e-04 -6.01348e-01        00000 
 1.76279e-02 -6.23816e-01        00000 
 4.77811e-02 -6.51013e-01        00000 
 9.69202e-02 -6.82666e-01        00000 
 1.68925e-01 -7.14267e-01        00000 
-1.37503e-01 -7.12724e-01        00000 
-8.99331e-02 -7.21684e-01        00000 
-5.73419e-02 -7.29503e-01        00000 
-3.55912e-02 -7.38570e-01        00000 
-2.07717e-02 -7.50564e-01        00000 
-8.91623e-03 -7.66265e-01        00000 
 3.79458e-03 -7.85886e-01        00000 
 2.11366e-02 -8.09140e-01        00000 
 4.68462e-02 -8.35068e-01        00000 
 8.40659e-02 -8.61557e-01        00000 
 1.35844e-01 -8.85978e-01        00000 
-7.64642e-02 -8.16970e-01        00000 
-5.10735e-02 -8.30606e-01        00000 
-3.31403e-02 -8.41948e-01        00000 
-2.06975e-02 -8.53514e-01        00000 
-1.17440e-02 -8.67024e-01        00000 
-4.31385e-03 -8.83468e-01        00000 
 3.55289e-03 -9.03073e-01        00000 
 1.37411e-02 -9.25326e-01        00000 
 2.79700e-02 -9.48966e-01        00000 
 4.78435e-02 -9.72101e-01        00000 
 7.47278e-02 -9.92200e-01        00000 
 1.81780e-16 -8.52818e-01        00000 
 1.16711e-16 -8.68013e-01        00000 
 2.49948e-16 -8.80563e-01        00000 
 1.60607e-16 -8.92982e-01        00000 
 5.19261e-16 -9.07021e-01        00000 
 8.72622e-16 -9.23659e-01        00000 
 1.02393e-15 -9.43114e-01        00000 
 8.08198e-16 -9.64851e-01        00000 
 4.15202e-16 -9.87640e-01        00000 
-1.85911e-17 -1.00960e+00        00000 
-5.86654e-16 -1.02827e+00        00000 
 7.64642e-02 -8.16970e-01        00000 
 5.10735e-02 -8.30606e-01        00000 
 3.31403e-02 -8.41948e-01        00000 
 2.06975e-02 -8.53514e-01        00000 
 1.17440e-02 -8.67024e-01        00000 
 4.31385e-03 -8.83468e-01        00000 
-3.55289e-03 -9.03073e-01        00000 
-1.37411e-02 -9.25326e-01        00000 
-2.79700e-02 -9.48966e-01        00000 
-4.78435e-02 -9.72101e-01        00000 
-7.47278e-02 -9.92200e-01        00000 
 1.37503e-01 -7.12724e-01        00000 
 8.99331e-02 -7.21684e-01        00000 
 5.73419e-02 -7.29503e-01        00000 
 3.55912e-02 -7.38570e-01        00000 
 2.07717e-02 -7.50564e-01        00000 
 8.91623e-03 -7.66265e-01        00000 
-3.79458e-03 -7.85886e-01        00000 
-2.11366e-02 -8.09140e-01        00000 
-4.68462e-02 -8.35068e-01        00000 
-8.40659e-02 -8.61557e-01        00000 
-1.35844e-01 -8.85978e-01        00000 
 1.67472e-01 -5.49671e-01        00000 
 1.04698e-01 -5.51008e-01        00000 
 6.40921e-02 -5.53299e-01        00000 
 3.96705e-02 -5.59317e-01        00000 
 2.45312e-02 -5.69313e-01        00000 
 1.31388e-02 -5.83283e-01        00000 
 7.18659e-04 -6.01348e-01        00000 
-1.76279e-02 -6.23816e-01        00000 
-4.77811e-02 -6.51013e-01        00000 
-9.69202e-02 -6.82666e-01        00000 
-1.68925e-01 -7.14267e-01        00000 
 1.50319e-01 -3.42918e-01        00000 
 8.33628e-02 -3.33089e-01        00000 
 4.93258e-02 -3.32868e-01        00000 
 3.14109e-02 -3.37768e-01        00000 
 2.13486e-02 -3.45883e-01        00000 
 1.42893e-02 -3.56411e-01        00000 
 6.53553e-03 -3.69384e-01        00000 
-5.82312e-03 -3.85612e-01        00000 
-2.84263e-02 -4.06838e-01        00000 
-7.15869e-02 -4.36121e-01        00000 
-1.57320e-01 -4.80089e-01        00000 
 5.74543e-02 -1.08488e-01        00000 
 3.05857e-02 -1.05886e-01        00000 
 1.91331e-02 -1.06748e-01        00000 
 1.32469e-02 -1.09642e-01        00000 
 9.93385e-03 -1.13399e-01        00000 
 7.63283e-03 -1.17571e-01        00000 
 5.20359e-03 -1.22176e-01        00000 
 1.44055e-03 -1.27650e-01        00000 
-5.48682e-03 -1.35000e-01        00000 
-1.94387e-02 -1.46190e-01        00000 
-5.48404e-02 -1.63158e-01        00000 </DataArray>
         </PointData>
         <CellData/>
      </Piece>
   </UnstructuredGrid>
</VTKFile>