<?xml version="1.0" encoding="utf-8"?>
<VTKFile byte_order="LittleEndian" type="UnstructuredGrid" version="0.1">
   <UnstructuredGrid>
      <Piece NumberOfCells="19208" NumberOfPoints="9752">
         <Points>
            <DataArray Name="Points" NumberOfComponents="3" format="ascii" type="Float32">
0.6000 0.0000 0.0000
0.6000 0.0051 0.0000
0.6000 0.0102 0.0000
0.6000 0.0153 0.0000
0.6000 0.0204 0.0000
0.6000 0.0255 0.0000
0.6000 0.0306 0.0000
0.6000 0.0357 0.0000
0.6000 0.0408 0.0000
0.6000 0.0459 0.0000
0.6000 0.0510 0.0000
0.6000 0.0561 0.0000
0.6000 0.0612 0.0000
0.6000 0.0663 0.0000
0.6000 0.0714 0.0000
0.6000 0.0765 0.0000
0.6000 0.0816 0.0000
0.6000 0.0867 0.0000
0.6000 0.0918 0.0000
0.6000 0.0969 0.0000
0.6000 0.1020 0.0000
0.6000 0.1071 0.0000
0.6000 0.1122 0.0000
0.6000 0.1173 0.0000
0.6000 0.1224 0.0000
0.6000 0.1276 0.0000
0.6000 0.1327 0.0000
0.6000 0.1378 0.0000
0.6000 0.1429 0.0000
0.6000 0.1480 0.0000
0.6000 0.1531 0.0000
0.6000 0.1582 0.0000
0.6000 0.1633 0.0000
0.6000 0.1684 0.0000
0.6000 0.1735 0.0000
0.6000 0.1786 0.0000
0.6000 0.1837 0.0000
0.6000 0.1888 0.0000
0.6000 0.1939 0.0000
0.6000 0.1990 0.0000
0.6000 0.2041 0.0000
0.6000 0.2092 0.0000
0.6000 0.2143 0.0000
0.6000 0.2194 0.0000
0.6000 0.2245 0.0000
0.6000 0.2296 0.0000
0.6000 0.2347 0.0000
0.6000 0.2398 0.0000
0.6000 0.2449 0.0000
0.6000 0.2500 0.0000
0.6000 0.2551 0.0000
0.6000 0.2602 0.0000
0.6000 0.2653 0.0000
0.6000 0.2704 0.0000
0.6000 0.2755 0.0000
0.6000 0.2806 0.0000
0.6000 0.2857 0.0000
0.6000 0.2908 0.0000
0.6000 0.2959 0.0000
0.6000 0.3010 0.0000
0.6000 0.3061 0.0000
0.6000 0.3112 0.0000
0.6000 0.3163 0.0000
0.6000 0.3214 0.0000
0.6000 0.3265 0.0000
0.6000 0.3316 0.0000
0.6000 0.3367 0.0000
0.6000 0.3418 0.0000
0.6000 0.3469 0.0000
0.6000 0.3520 0.0000
0.6000 0.3571 0.0000
0.6000 0.3622 0.0000
0.6000 0.3673 0.0000
0.6000 0.3724 0.0000
0.6000 0.3776 0.0000
0.6000 0.3827 0.0000
0.6000 0.3878 0.0000
0.6000 0.3929 0.0000
0.6000 0.3980 0.0000
0.6000 0.4031 0.0000
0.6000 0.4082 0.0000
0.6000 0.4133 0.0000
0.6000 0.4184 0.0000
0.6000 0.4235 0.0000
0.6000 0.4286 0.0000
0.6000 0.4337 0.0000
0.6000 0.4388 0.0000
0.6000 0.4439 0.0000
0.6000 0.4490 0.0000
0.6000 0.4541 0.0000
0.6000 0.4592 0.0000
0.6000 0.4643 0.0000
0.6000 0.4694 0.0000
0.6000 0.4745 0.0000
0.6000 0.4796 0.0000
0.6000 0.4847 0.0000
0.6000 0.4898 0.0000
0.6000 0.4949 0.0000
0.6000 0.5000 0.0000
0.6102 0.0000 0.0000
0.6102 0.0051 0.0000
0.6102 0.0102 0.0000
0.6102 0.0153 0.0000
0.6102 0.0204 0.0000
0.6102 0.0255 0.0000
0.6102 0.0306 0.0000
0.6102 0.0357 0.0000
0.6102 0.0408 0.0000
0.6102 0.0459 0.0000
0.6102 0.0510 0.0000
0.6102 0.0561 0.0000
0.6102 0.0612 0.0000
0.6102 0.0663 0.0000
0.6102 0.0714 0.0000
0.6102 0.0765 0.0000
0.6102 0.0816 0.0000
0.6102 0.0867 0.0000
0.6102 0.0918 0.0000
0.6102 0.0969 0.0000
0.6102 0.1020 0.0000
0.6102 0.1071 0.0000
0.6102 0.1122 0.0000
0.6102 0.1173 0.0000
0.6102 0.1224 0.0000
0.6102 0.1276 0.0000
0.6102 0.1327 0.0000
0.6102 0.1378 0.0000
0.6102 0.1429 0.0000
0.6102 0.1480 0.0000
0.6102 0.1531 0.0000
0.6102 0.1582 0.0000
0.6102 0.1633 0.0000
0.6102 0.1684 0.0000
0.6102 0.1735 0.0000
0.6102 0.1786 0.0000
0.6102 0.1837 0.0000
0.6102 0.1888 0.0000
0.6102 0.1939 0.0000
0.6102 0.1990 0.0000
0.6102 0.2041 0.0000
0.6102 0.2092 0.0000
0.6102 0.2143 0.0000
0.6102 0.2194 0.0000
0.6102 0.2245 0.0000
0.6102 0.2296 0.0000
0.6102 0.2347 0.0000
0.6102 0.2398 0.0000
0.6102 0.2449 0.0000
0.6102 0.2500 0.0000
0.6102 0.2551 0.0000
0.6102 0.2602 0.0000
0.6102 0.2653 0.0000
0.6102 0.2704 0.0000
0.6102 0.2755 0.0000
0.6102 0.2806 0.0000
0.6102 0.2857 0.0000
0.6102 0.2908 0.0000
0.6102 0.2959 0.0000
0.6102 0.3010 0.0000
0.6102 0.3061 0.0000
0.6102 0.3112 0.0000
0.6102 0.3163 0.0000
0.6102 0.3214 0.0000
0.6102 0.3265 0.0000
0.6102 0.3316 0.0000
0.6102 0.3367 0.0000
0.6102 0.3418 0.0000
0.6102 0.3469 0.0000
0.6102 0.3520 0.0000
0.6102 0.3571 0.0000
0.6102 0.3622 0.0000
0.6102 0.3673 0.0000
0.6102 0.3724 0.0000
0.6102 0.3776 0.0000
0.6102 0.3827 0.0000
0.6102 0.3878 0.0000
0.6102 0.3929 0.0000
0.6102 0.3980 0.0000
0.6102 0.4031 0.0000
0.6102 0.4082 0.0000
0.6102 0.4133 0.0000
0.6102 0.4184 0.0000
0.6102 0.4235 0.0000
0.6102 0.4286 0.0000
0.6102 0.4337 0.0000
0.6102 0.4388 0.0000
0.6102 0.4439 0.0000
0.6102 0.4490 0.0000
0.6102 0.4541 0.0000
0.6102 0.4592 0.0000
0.6102 0.4643 0.0000
0.6102 0.4694 0.0000
0.6102 0.4745 0.0000
0.6102 0.4796 0.0000
0.6102 0.4847 0.0000
0.6102 0.4898 0.0000
0.6102 0.4949 0.0000
0.6102 0.5000 0.0000
0.6204 0.0000 0.0000
0.6204 0.0051 0.0000
0.6204 0.0102 0.0000
0.6204 0.0153 0.0000
0.6204 0.0204 0.0000
0.6204 0.0255 0.0000
0.6204 0.0306 0.0000
0.6204 0.0357 0.0000
0.6204 0.0408 0.0000
0.6204 0.0459 0.0000
0.6204 0.0510 0.0000
0.6204 0.0561 0.0000
0.6204 0.0612 0.0000
0.6204 0.0663 0.0000
0.6204 0.0714 0.0000
0.6204 0.0765 0.0000
0.6204 0.0816 0.0000
0.6204 0.0867 0.0000
0.6204 0.0918 0.0000
0.6204 0.0969 0.0000
0.6204 0.1020 0.0000
0.6204 0.1071 0.0000
0.6204 0.1122 0.0000
0.6204 0.1173 0.0000
0.6204 0.1224 0.0000
0.6204 0.1276 0.0000
0.6204 0.1327 0.0000
0.6204 0.1378 0.0000
0.6204 0.1429 0.0000
0.6204 0.1480 0.0000
0.6204 0.1531 0.0000
0.6204 0.1582 0.0000
0.6204 0.1633 0.0000
0.6204 0.1684 0.0000
0.6204 0.1735 0.0000
0.6204 0.1786 0.0000
0.6204 0.1837 0.0000
0.6204 0.1888 0.0000
0.6204 0.1939 0.0000
0.6204 0.1990 0.0000
0.6204 0.2041 0.0000
0.6204 0.2092 0.0000
0.6204 0.2143 0.0000
0.6204 0.2194 0.0000
0.6204 0.2245 0.0000
0.6204 0.2296 0.0000
0.6204 0.2347 0.0000
0.6204 0.2398 0.0000
0.6204 0.2449 0.0000
0.6204 0.2500 0.0000
0.6204 0.2551 0.0000
0.6204 0.2602 0.0000
0.6204 0.2653 0.0000
0.6204 0.2704 0.0000
0.6204 0.2755 0.0000
0.6204 0.2806 0.0000
0.6204 0.2857 0.0000
0.6204 0.2908 0.0000
0.6204 0.2959 0.0000
0.6204 0.3010 0.0000
0.6204 0.3061 0.0000
0.6204 0.3112 0.0000
0.6204 0.3163 0.0000
0.6204 0.3214 0.0000
0.6204 0.3265 0.0000
0.6204 0.3316 0.0000
0.6204 0.3367 0.0000
0.6204 0.3418 0.0000
0.6204 0.3469 0.0000
0.6204 0.3520 0.0000
0.6204 0.3571 0.0000
0.6204 0.3622 0.0000
0.6204 0.3673 0.0000
0.6204 0.3724 0.0000
0.6204 0.3776 0.0000
0.6204 0.3827 0.0000
0.6204 0.3878 0.0000
0.6204 0.3929 0.0000
0.6204 0.3980 0.0000
0.6204 0.4031 0.0000
0.6204 0.4082 0.0000
0.6204 0.4133 0.0000
0.6204 0.4184 0.0000
0.6204 0.4235 0.0000
0.6204 0.4286 0.0000
0.6204 0.4337 0.0000
0.6204 0.4388 0.0000
0.6204 0.4439 0.0000
0.6204 0.4490 0.0000
0.6204 0.4541 0.0000
0.6204 0.4592 0.0000
0.6204 0.4643 0.0000
0.6204 0.4694 0.0000
0.6204 0.4745 0.0000
0.6204 0.4796 0.0000
0.6204 0.4847 0.0000
0.6204 0.4898 0.0000
0.6204 0.4949 0.0000
0.6204 0.5000 0.0000
0.6306 0.0000 0.0000
0.6306 0.0051 0.0000
0.6306 0.0102 0.0000
0.6306 0.0153 0.0000
0.6306 0.0204 0.0000
0.6306 0.0255 0.0000
0.6306 0.0306 0.0000
0.6306 0.0357 0.0000
0.6306 0.0408 0.0000
0.6306 0.0459 0.0000
0.6306 0.0510 0.0000
0.6306 0.0561 0.0000
0.6306 0.0612 0.0000
0.6306 0.0663 0.0000
0.6306 0.0714 0.0000
0.6306 0.0765 0.0000
0.6306 0.0816 0.0000
0.6306 0.0867 0.0000
0.6306 0.0918 0.0000
0.6306 0.0969 0.0000
0.6306 0.1020 0.0000
0.6306 0.1071 0.0000
0.6306 0.1122 0.0000
0.6306 0.1173 0.0000
0.6306 0.1224 0.0000
0.6306 0.1276 0.0000
0.6306 0.1327 0.0000
0.6306 0.1378 0.0000
0.6306 0.1429 0.0000
0.6306 0.1480 0.0000
0.6306 0.1531 0.0000
0.6306 0.1582 0.0000
0.6306 0.1633 0.0000
0.6306 0.1684 0.0000
0.6306 0.1735 0.0000
0.6306 0.1786 0.0000
0.6306 0.1837 0.0000
0.6306 0.1888 0.0000
0.6306 0.1939 0.0000
0.6306 0.1990 0.0000
0.6306 0.2041 0.0000
0.6306 0.2092 0.0000
0.6306 0.2143 0.0000
0.6306 0.2194 0.0000
0.6306 0.2245 0.0000
0.6306 0.2296 0.0000
0.6306 0.2347 0.0000
0.6306 0.2398 0.0000
0.6306 0.2449 0.0000
0.6306 0.2500 0.0000
0.6306 0.2551 0.0000
0.6306 0.2602 0.0000
0.6306 0.2653 0.0000
0.6306 0.2704 0.0000
0.6306 0.2755 0.0000
0.6306 0.2806 0.0000
0.6306 0.2857 0.0000
0.6306 0.2908 0.0000
0.6306 0.2959 0.0000
0.6306 0.3010 0.0000
0.6306 0.3061 0.0000
0.6306 0.3112 0.0000
0.6306 0.3163 0.0000
0.6306 0.3214 0.0000
0.6306 0.3265 0.0000
0.6306 0.3316 0.0000
0.6306 0.3367 0.0000
0.6306 0.3418 0.0000
0.6306 0.3469 0.0000
0.6306 0.3520 0.0000
0.6306 0.3571 0.0000
0.6306 0.3622 0.0000
0.6306 0.3673 0.0000
0.6306 0.3724 0.0000
0.6306 0.3776 0.0000
0.6306 0.3827 0.0000
0.6306 0.3878 0.0000
0.6306 0.3929 0.0000
0.6306 0.3980 0.0000
0.6306 0.4031 0.0000
0.6306 0.4082 0.0000
0.6306 0.4133 0.0000
0.6306 0.4184 0.0000
0.6306 0.4235 0.0000
0.6306 0.4286 0.0000
0.6306 0.4337 0.0000
0.6306 0.4388 0.0000
0.6306 0.4439 0.0000
0.6306 0.4490 0.0000
0.6306 0.4541 0.0000
0.6306 0.4592 0.0000
0.6306 0.4643 0.0000
0.6306 0.4694 0.0000
0.6306 0.4745 0.0000
0.6306 0.4796 0.0000
0.6306 0.4847 0.0000
0.6306 0.4898 0.0000
0.6306 0.4949 0.0000
0.6306 0.5000 0.0000
0.6408 0.0000 0.0000
0.6408 0.0051 0.0000
0.6408 0.0102 0.0000
0.6408 0.0153 0.0000
0.6408 0.0204 0.0000
0.6408 0.0255 0.0000
0.6408 0.0306 0.0000
0.6408 0.0357 0.0000
0.6408 0.0408 0.0000
0.6408 0.0459 0.0000
0.6408 0.0510 0.0000
0.6408 0.0561 0.0000
0.6408 0.0612 0.0000
0.6408 0.0663 0.0000
0.6408 0.0714 0.0000
0.6408 0.0765 0.0000
0.6408 0.0816 0.0000
0.6408 0.0867 0.0000
0.6408 0.0918 0.0000
0.6408 0.0969 0.0000
0.6408 0.1020 0.0000
0.6408 0.1071 0.0000
0.6408 0.1122 0.0000
0.6408 0.1173 0.0000
0.6408 0.1224 0.0000
0.6408 0.1276 0.0000
0.6408 0.1327 0.0000
0.6408 0.1378 0.0000
0.6408 0.1429 0.0000
0.6408 0.1480 0.0000
0.6408 0.1531 0.0000
0.6408 0.1582 0.0000
0.6408 0.1633 0.0000
0.6408 0.1684 0.0000
0.6408 0.1735 0.0000
0.6408 0.1786 0.0000
0.6408 0.1837 0.0000
0.6408 0.1888 0.0000
0.6408 0.1939 0.0000
0.6408 0.1990 0.0000
0.6408 0.2041 0.0000
0.6408 0.2092 0.0000
0.6408 0.2143 0.0000
0.6408 0.2194 0.0000
0.6408 0.2245 0.0000
0.6408 0.2296 0.0000
0.6408 0.2347 0.0000
0.6408 0.2398 0.0000
0.6408 0.2449 0.0000
0.6408 0.2500 0.0000
0.6408 0.2551 0.0000
0.6408 0.2602 0.0000
0.6408 0.2653 0.0000
0.6408 0.2704 0.0000
0.6408 0.2755 0.0000
0.6408 0.2806 0.0000
0.6408 0.2857 0.0000
0.6408 0.2908 0.0000
0.6408 0.2959 0.0000
0.6408 0.3010 0.0000
0.6408 0.3061 0.0000
0.6408 0.3112 0.0000
0.6408 0.3163 0.0000
0.6408 0.3214 0.0000
0.6408 0.3265 0.0000
[...]
         <PointData>
            <DataArray Name="fValues" NumberOfComponents="2" format="ascii" type="Float64">
-9.08072e+00 -1.35776e+01 
-8.87119e+00 -1.35503e+01 
-8.66315e+00 -1.35235e+01 
-8.45657e+00 -1.34973e+01 
-8.25143e+00 -1.34717e+01 
-8.04769e+00 -1.34466e+01 
-7.84533e+00 -1.34221e+01 
-7.64430e+00 -1.33982e+01 
-7.44457e+00 -1.33748e+01 
-7.24613e+00 -1.33520e+01 
-7.04893e+00 -1.33298e+01 
-6.85295e+00 -1.33081e+01 
-6.65815e+00 -1.32869e+01 
-6.46447e+00 -1.32664e+01 
-6.27194e+00 -1.32464e+01 
-6.08051e+00 -1.32269e+01 
-5.89014e+00 -1.32081e+01 
-5.70080e+00 -1.31897e+01 
-5.51246e+00 -1.31720e+01 
-5.32508e+00 -1.31548e+01 
-5.13864e+00 -1.31382e+01 
-4.95311e+00 -1.31221e+01 
-4.76845e+00 -1.31066e+01 
-4.58464e+00 -1.30917e+01 
-4.40164e+00 -1.30773e+01 
-4.21943e+00 -1.30635e+01 
-4.03796e+00 -1.30502e+01 
-3.85722e+00 -1.30375e+01 
-3.67716e+00 -1.30254e+01 
-3.49776e+00 -1.30139e+01 
-3.31899e+00 -1.30029e+01 
-3.14082e+00 -1.29924e+01 
-2.96321e+00 -1.29825e+01 
-2.78614e+00 -1.29732e+01 
-2.60957e+00 -1.29645e+01 
-2.43347e+00 -1.29563e+01 
-2.25781e+00 -1.29487e+01 
-2.08253e+00 -1.29417e+01 
-1.90765e+00 -1.29352e+01 
-1.73313e+00 -1.29292e+01 
-1.55892e+00 -1.29239e+01 
-1.38499e+00 -1.29191e+01 
-1.21131e+00 -1.29149e+01 
-1.03786e+00 -1.29112e+01 
-8.64594e-01 -1.29081e+01 
-6.91486e-01 -1.29055e+01 
-5.18504e-01 -1.29036e+01 
-3.45617e-01 -1.29022e+01 
-1.72793e-01 -1.29013e+01 
-2.95161e-12 -1.29010e+01 
 1.72793e-01 -1.29013e+01 
 3.45617e-01 -1.29022e+01 
 5.18504e-01 -1.29036e+01 
 6.91486e-01 -1.29055e+01 
 8.64594e-01 -1.29081e+01 
 1.03786e+00 -1.29112e+01 
 1.21131e+00 -1.29149e+01 
 1.38499e+00 -1.29191e+01 
 1.55892e+00 -1.29239e+01 
 1.73313e+00 -1.29292e+01 
 1.90765e+00 -1.29352e+01 
 2.08253e+00 -1.29417e+01 
 2.25781e+00 -1.29487e+01 
 2.43347e+00 -1.29563e+01 
 2.60957e+00 -1.29645e+01 
 2.78614e+00 -1.29732e+01 
 2.96321e+00 -1.29825e+01 
 3.14082e+00 -1.29924e+01 
 3.31899e+00 -1.30029e+01 
 3.49776e+00 -1.30139e+01 
 3.67716e+00 -1.30254e+01 
 3.85722e+00 -1.30375e+01 
 4.03796e+00 -1.30502e+01 
 4.21943e+00 -1.30635e+01 
 4.40164e+00 -1.30773e+01 
 4.58464e+00 -1.30917e+01 
 4.76845e+00 -1.31066e+01 
 4.95311e+00 -1.31221e+01 
 5.13864e+00 -1.31382e+01 
 5.32508e+00 -1.31548e+01 
 5.51246e+00 -1.31720e+01 
 5.70080e+00 -1.31897e+01 
 5.89014e+00 -1.32081e+01 
 6.08051e+00 -1.32269e+01 
 6.27194e+00 -1.32464e+01 
 6.46447e+00 -1.32664e+01 
 6.65815e+00 -1.32869e+01 
 6.85295e+00 -1.33081e+01 
 7.04893e+00 -1.33298e+01 
 7.24613e+00 -1.33520e+01 
 7.44457e+00 -1.33748e+01 
 7.64430e+00 -1.33982e+01 
 7.84533e+00 -1.34221e+01 
 8.04769e+00 -1.34466e+01 
 8.25143e+00 -1.34717e+01 
 8.45657e+00 -1.34973e+01 
 8.66315e+00 -1.35235e+01 
 8.87119e+00 -1.35503e+01 
 9.08072e+00 -1.35776e+01 
-9.20188e+00 -1.40007e+01 
-8.98987e+00 -1.39739e+01 
-8.77936e+00 -1.39477e+01 
-8.57031e+00 -1.39220e+01 
-8.36270e+00 -1.38969e+01 
-8.15649e+00 -1.38724e+01 
-7.95165e+00 -1.38484e+01 
-7.74815e+00 -1.38249e+01 
-7.54596e+00 -1.38020e+01 
-7.34504e+00 -1.37797e+01 
-7.14537e+00 -1.37579e+01 
-6.94692e+00 -1.37366e+01 
-6.74965e+00 -1.37159e+01 
-6.55349e+00 -1.36958e+01 
-6.35850e+00 -1.36762e+01 
-6.16460e+00 -1.36572e+01 
-5.97175e+00 -1.36387e+01 
-5.77994e+00 -1.36207e+01 
-5.58913e+00 -1.36033e+01 
-5.39928e+00 -1.35865e+01 
-5.21037e+00 -1.35702e+01 
-5.02237e+00 -1.35545e+01 
-4.83524e+00 -1.35393e+01 
-4.64895e+00 -1.35247e+01 
-4.46348e+00 -1.35106e+01 
-4.27879e+00 -1.34971e+01 
-4.09486e+00 -1.34841e+01 
-3.91164e+00 -1.34717e+01 
-3.72911e+00 -1.34598e+01 
-3.54724e+00 -1.34485e+01 
-3.36600e+00 -1.34377e+01 
-3.18535e+00 -1.34275e+01 
-3.00527e+00 -1.34179e+01 
-2.82573e+00 -1.34087e+01 
-2.64668e+00 -1.34002e+01 
-2.46811e+00 -1.33922e+01 
-2.28998e+00 -1.33847e+01 
-2.11222e+00 -1.33778e+01 
-1.93487e+00 -1.33715e+01 
-1.75787e+00 -1.33657e+01 
-1.58119e+00 -1.33604e+01 
-1.40478e+00 -1.33557e+01 
-1.22864e+00 -1.33516e+01 
-1.05271e+00 -1.33480e+01 
-8.76966e-01 -1.33450e+01 
-7.01384e-01 -1.33425e+01 
-5.25927e-01 -1.33406e+01 
-3.50566e-01 -1.33392e+01 
-1.75267e-01 -1.33383e+01 
-2.94661e-12 -1.33381e+01 
 1.75267e-01 -1.33383e+01 
 3.50566e-01 -1.33392e+01 
 5.25927e-01 -1.33406e+01 
 7.01384e-01 -1.33425e+01 
 8.76966e-01 -1.33450e+01 
 1.05271e+00 -1.33480e+01 
 1.22864e+00 -1.33516e+01 
 1.40478e+00 -1.33557e+01 
 1.58119e+00 -1.33604e+01 
 1.75787e+00 -1.33657e+01 
 1.93487e+00 -1.33715e+01 
 2.11222e+00 -1.33778e+01 
 2.28998e+00 -1.33847e+01 
 2.46811e+00 -1.33922e+01 
 2.64668e+00 -1.34002e+01 
 2.82573e+00 -1.34087e+01 
 3.00527e+00 -1.34179e+01 
 3.18535e+00 -1.34275e+01 
 3.36600e+00 -1.34377e+01 
 3.54724e+00 -1.34485e+01 
 3.72911e+00 -1.34598e+01 
 3.91164e+00 -1.34717e+01 
 4.09486e+00 -1.34841e+01 
 4.27879e+00 -1.34971e+01 
 4.46348e+00 -1.35106e+01 
 4.64895e+00 -1.35247e+01 
 4.83524e+00 -1.35393e+01 
 5.02237e+00 -1.35545e+01 
 5.21037e+00 -1.35702e+01 
 5.39928e+00 -1.35865e+01 
 5.58913e+00 -1.36033e+01 
 5.77994e+00 -1.36207e+01 
 5.97175e+00 -1.36387e+01 
 6.16460e+00 -1.36572e+01 
 6.35850e+00 -1.36762e+01 
 6.55349e+00 -1.36958e+01 
 6.74965e+00 -1.37159e+01 
 6.94692e+00 -1.37366e+01 
 7.14537e+00 -1.37579e+01 
 7.34504e+00 -1.37797e+01 
 7.54596e+00 -1.38020e+01 
 7.74815e+00 -1.38249e+01 
 7.95165e+00 -1.38484e+01 
 8.15649e+00 -1.38724e+01 
 8.36270e+00 -1.38969e+01 
 8.57031e+00 -1.39220e+01 
 8.77936e+00 -1.39477e+01 
 8.98987e+00 -1.39739e+01 
 9.20188e+00 -1.40007e+01 
-9.32054e+00 -1.44286e+01 
-9.10611e+00 -1.44024e+01 
-8.89318e+00 -1.43768e+01 
-8.68171e+00 -1.43516e+01 
-8.47168e+00 -1.43271e+01 
-8.26305e+00 -1.43030e+01 
-8.05579e+00 -1.42795e+01 
-7.84986e+00 -1.42565e+01 
-7.64525e+00 -1.42341e+01 
-7.44192e+00 -1.42122e+01 
-7.23983e+00 -1.41909e+01 
-7.03895e+00 -1.41701e+01 
-6.83926e+00 -1.41498e+01 
-6.64068e+00 -1.41301e+01 
-6.44327e+00 -1.41109e+01 
-6.24694e+00 -1.40923e+01 
-6.05168e+00 -1.40742e+01 
-5.85745e+00 -1.40566e+01 
-5.66421e+00 -1.40396e+01 
-5.47194e+00 -1.40231e+01 
-5.28061e+00 -1.40072e+01 
-5.09019e+00 -1.39918e+01 
-4.90063e+00 -1.39769e+01 
-4.71193e+00 -1.39626e+01 
-4.52404e+00 -1.39488e+01 
-4.33693e+00 -1.39356e+01 
-4.15057e+00 -1.39229e+01 
-3.96493e+00 -1.39107e+01 
-3.77998e+00 -1.38991e+01 
-3.59569e+00 -1.38880e+01 
-3.41202e+00 -1.38775e+01 
-3.22895e+00 -1.38675e+01 
-3.04645e+00 -1.38581e+01 
-2.86448e+00 -1.38491e+01 
-2.68302e+00 -1.38408e+01 
-2.50202e+00 -1.38329e+01 
-2.32147e+00 -1.38256e+01 
-2.14128e+00 -1.38189e+01 
-1.96152e+00 -1.38127e+01 
-1.78209e+00 -1.38070e+01 
-1.60299e+00 -1.38019e+01 
-1.42416e+00 -1.37973e+01 
-1.24559e+00 -1.37932e+01 
-1.06724e+00 -1.37897e+01 
-8.89077e-01 -1.37868e+01 
-7.11073e-01 -1.37843e+01 
-5.33194e-01 -1.37824e+01 
-3.55410e-01 -1.37811e+01 
-1.77689e-01 -1.37803e+01 
-2.91496e-12 -1.37800e+01 
 1.77689e-01 -1.37803e+01 
 3.55410e-01 -1.37811e+01 
 5.33194e-01 -1.37824e+01 
 7.11073e-01 -1.37843e+01 
 8.89077e-01 -1.37868e+01 
 1.06724e+00 -1.37897e+01 
 1.24559e+00 -1.37932e+01 
 1.42416e+00 -1.37973e+01 
 1.60299e+00 -1.38019e+01 
 1.78209e+00 -1.38070e+01 
 1.96152e+00 -1.38127e+01 
 2.14128e+00 -1.38189e+01 
 2.32147e+00 -1.38256e+01 
 2.50202e+00 -1.38329e+01 
 2.68302e+00 -1.38408e+01 
 2.86448e+00 -1.38491e+01 
 3.04645e+00 -1.38581e+01 
 3.22895e+00 -1.38675e+01 
 3.41202e+00 -1.38775e+01 
 3.59569e+00 -1.38880e+01 
 3.77998e+00 -1.38991e+01 
 3.96493e+00 -1.39107e+01 
 4.15057e+00 -1.39229e+01 
 4.33693e+00 -1.39356e+01 
 4.52404e+00 -1.39488e+01 
 4.71193e+00 -1.39626e+01 
 4.90063e+00 -1.39769e+01 
 5.09019e+00 -1.39918e+01 
 5.28061e+00 -1.40072e+01 
 5.47194e+00 -1.40231e+01 
 5.66421e+00 -1.40396e+01 
 5.85745e+00 -1.40566e+01 
 6.05168e+00 -1.40742e+01 
 6.24694e+00 -1.40923e+01 
 6.44327e+00 -1.41109e+01 
 6.64068e+00 -1.41301e+01 
 6.83926e+00 -1.41498e+01 
 7.03895e+00 -1.41701e+01 
 7.23983e+00 -1.41909e+01 
 7.44192e+00 -1.42122e+01 
 7.64525e+00 -1.42341e+01 
 7.84986e+00 -1.42565e+01 
 8.05579e+00 -1.42795e+01 
 8.26305e+00 -1.43030e+01 
 8.47168e+00 -1.43271e+01 
 8.68171e+00 -1.43516e+01 
 8.89318e+00 -1.43768e+01 
 9.10611e+00 -1.44024e+01 
 9.32054e+00 -1.44286e+01 
-9.43671e+00 -1.48614e+01 
-9.21991e+00 -1.48358e+01 
-9.00461e+00 -1.48106e+01 
-8.79077e+00 -1.47860e+01 
-8.57837e+00 -1.47620e+01 
-8.36737e+00 -1.47384e+01 
-8.15774e+00 -1.47154e+01 
-7.94944e+00 -1.46930e+01 
-7.74246e+00 -1.46710e+01 
-7.53675e+00 -1.46496e+01 
-7.33229e+00 -1.46287e+01 
-7.12905e+00 -1.46083e+01 
-6.92699e+00 -1.45885e+01 
-6.72604e+00 -1.45692e+01 
-6.52625e+00 -1.45504e+01 
-6.32756e+00 -1.45322e+01 
-6.12992e+00 -1.45145e+01 
-5.93332e+00 -1.44973e+01 
-5.73771e+00 -1.44806e+01 
-5.54307e+00 -1.44645e+01 
-5.34937e+00 -1.44489e+01 
-5.15657e+00 -1.44339e+01 
-4.96465e+00 -1.44193e+01 
-4.77357e+00 -1.44053e+01 
-4.58331e+00 -1.43918e+01 
-4.39382e+00 -1.43789e+01 
-4.20509e+00 -1.43665e+01 
-4.01708e+00 -1.43546e+01 
-3.82976e+00 -1.43432e+01 
-3.64310e+00 -1.43324e+01 
-3.45706e+00 -1.43221e+01 
-3.27162e+00 -1.43123e+01 
-3.08675e+00 -1.43031e+01 
-2.90241e+00 -1.42943e+01 
-2.71857e+00 -1.42861e+01 
-2.53521e+00 -1.42785e+01 
-2.35228e+00 -1.42714e+01 
-2.16973e+00 -1.42648e+01 
-1.98759e+00 -1.42587e+01 
-1.80580e+00 -1.42531e+01 
-1.62432e+00 -1.42481e+01 
-1.44312e+00 -1.42436e+01 
-1.26218e+00 -1.42397e+01 
-1.08146e+00 -1.42362e+01 
-9.00928e-01 -1.42333e+01 
-7.20553e-01 -1.42310e+01 
-5.40305e-01 -1.42291e+01 
-3.60150e-01 -1.42278e+01 
-1.80059e-01 -1.42270e+01 
-2.87319e-12 -1.42267e+01 
 1.80059e-01 -1.42270e+01 
 3.60150e-01 -1.42278e+01 
 5.40305e-01 -1.42291e+01 
 7.20553e-01 -1.42310e+01 
 9.00928e-01 -1.42333e+01 
 1.08146e+00 -1.42362e+01 
 1.26218e+00 -1.42397e+01 
 1.44312e+00 -1.42436e+01 
 1.62432e+00 -1.42481e+01 
 1.80580e+00 -1.42531e+01 
 1.98759e+00 -1.42587e+01 
 2.16973e+00 -1.42648e+01 
 2.35228e+00 -1.42714e+01 
 2.53521e+00 -1.42785e+01 
 2.71857e+00 -1.42861e+01 
 2.90241e+00 -1.42943e+01 
 3.08675e+00 -1.43031e+01 
 3.27162e+00 -1.43123e+01 
 3.45706e+00 -1.43221e+01 
 3.64310e+00 -1.43324e+01 
 3.82976e+00 -1.43432e+01 
 4.01708e+00 -1.43546e+01 
 4.20509e+00 -1.43665e+01 
 4.39382e+00 -1.43789e+01 
 4.58331e+00 -1.43918e+01 
 4.77357e+00 -1.44053e+01 
 4.96465e+00 -1.44193e+01 
 5.15657e+00 -1.44339e+01 
 5.34937e+00 -1.44489e+01 
 5.54307e+00 -1.44645e+01 
 5.73771e+00 -1.44806e+01 
 5.93332e+00 -1.44973e+01 
 6.12992e+00 -1.45145e+01 
 6.32756e+00 -1.45322e+01 
 6.52625e+00 -1.45504e+01 
 6.72604e+00 -1.45692e+01 
 6.92699e+00 -1.45885e+01 
 7.12905e+00 -1.46083e+01 
 7.33229e+00 -1.46287e+01 
 7.53675e+00 -1.46496e+01 
 7.74246e+00 -1.46710e+01 
 7.94944e+00 -1.46930e+01 
 8.15774e+00 -1.47154e+01 
 8.36737e+00 -1.47384e+01 
 8.57837e+00 -1.47620e+01 
 8.79077e+00 -1.47860e+01 
 9.00461e+00 -1.48106e+01 
 9.21991e+00 -1.48358e+01 
 9.43671e+00 -1.48614e+01 
-9.55038e+00 -1.52988e+01 
-9.33127e+00 -1.52738e+01 
-9.11365e+00 -1.52492e+01 
-8.89749e+00 -1.52251e+01 
-8.68277e+00 -1.52016e+01 
-8.46945e+00 -1.51786e+01 
-8.25750e+00 -1.51560e+01 
-8.04689e+00 -1.51341e+01 
-7.83758e+00 -1.51126e+01 
-7.62956e+00 -1.50916e+01 
-7.42278e+00 -1.50712e+01 
-7.21721e+00 -1.50513e+01 
-7.01283e+00 -1.50319e+01 
-6.80956e+00 -1.50130e+01 
-6.60745e+00 -1.49946e+01 
-6.40643e+00 -1.49768e+01 
-6.20648e+00 -1.49595e+01 
-6.00755e+00 -1.49427e+01 
-5.80962e+00 -1.49264e+01 
-5.61266e+00 -1.49106e+01 
-5.41664e+00 -1.48954e+01 
-5.22152e+00 -1.48806e+01 
-5.02727e+00 -1.48664e+01 
-4.83387e+00 -1.48527e+01 
-4.64129e+00 -1.48395e+01 
-4.44949e+00 -1.48269e+01 
-4.25843e+00 -1.48147e+01 
-4.06810e+00 -1.48031e+01 
-3.87846e+00 -1.47920e+01 
-3.68948e+00 -1.47814e+01 
-3.50112e+00 -1.47713e+01 
-3.31336e+00 -1.47618e+01 
-3.12617e+00 -1.47527e+01 
-2.93951e+00 -1.47442e+01 
-2.75335e+00 -1.47362e+01 
-2.56766e+00 -1.47287e+01 
-2.38242e+00 -1.47218e+01 
-2.19755e+00 -1.47153e+01 
-2.01309e+00 -1.47094e+01 
-1.82898e+00 -1.47040e+01 
-1.64518e+00 -1.46991e+01 
-1.46167e+00 -1.46947e+01 
-1.27841e+00 -1.46908e+01 
-1.09537e+00 -1.46874e+01 
-9.12518e-01 -1.46846e+01 
-7.29825e-01 -1.46823e+01 
-5.47258e-01 -1.46805e+01 
-3.64786e-01 -1.46792e+01 
-1.82377e-01 -1.46784e+01 
-2.82075e-12 -1.46782e+01 
 1.82377e-01 -1.46784e+01 
 3.64786e-01 -1.46792e+01 
 5.47258e-01 -1.46805e+01 
 7.29825e-01 -1.46823e+01 
 9.12518e-01 -1.46846e+01 
 1.09537e+00 -1.46874e+01 
 1.27841e+00 -1.46908e+01 
 1.46167e+00 -1.46947e+01 
 1.64518e+00 -1.46991e+01 
 1.82898e+00 -1.47040e+01 
 2.01309e+00 -1.47094e+01 
 2.19755e+00 -1.47153e+01 
 2.38242e+00 -1.47218e+01 
 2.56766e+00 -1.47287e+01 
 2.75335e+00 -1.47362e+01 
 2.93951e+00 -1.47442e+01 
 3.12617e+00 -1.47527e+01 
 3.31336e+00 -1.47618e+01 
 3.50112e+00 -1.47713e+01 
 3.68948e+00 -1.47814e+01 
 3.87846e+00 -1.47920e+01 
 4.06810e+00 -1.48031e+01 
 4.25843e+00 -1.48147e+01 
 4.44949e+00 -1.48269e+01 
 4.64129e+00 -1.48395e+01 
 4.83387e+00 -1.48527e+01 
 5.02727e+00 -1.48664e+01 
 5.22152e+00 -1.48806e+01 
 5.41664e+00 -1.48954e+01 
 5.61266e+00 -1.49106e+01 
 5.80962e+00 -1.49264e+01 
 6.00755e+00 -1.49427e+01 
 6.20648e+00 -1.49595e+01 
 6.40643e+00 -1.49768e+01 
 6.60745e+00 -1.49946e+01 
 6.80956e+00 -1.50130e+01 
 7.01283e+00 -1.50319e+01 
 7.21721e+00 -1.50513e+01 
 7.42278e+00 -1.50712e+01 
 7.62956e+00 -1.50916e+01 
 7.83758e+00 -1.51126e+01 
 8.04689e+00 -1.51341e+01 
 8.25750e+00 -1.51560e+01 
 8.46945e+00 -1.51786e+01 
 8.68277e+00 -1.52016e+01 
 8.89749e+00 -1.52251e+01 
 9.11365e+00 -1.52492e+01 
 9.33127e+00 -1.52738e+01 
 9.55038e+00 -1.52988e+01 
-9.66157e+00 -1.57409e+01 
-9.44019e+00 -1.57163e+01 
-9.22030e+00 -1.56923e+01 
-9.00188e+00 -1.56688e+01 
-8.78488e+00 -1.56458e+01 
-8.56930e+00 -1.56232e+01 
-8.35508e+00 -1.56012e+01 
-8.14219e+00 -1.55797e+01 
-7.93062e+00 -1.55587e+01 
-7.72032e+00 -1.55383e+01 
-7.51127e+00 -1.55183e+01 
-7.30344e+00 -1.54988e+01 
-7.09678e+00 -1.54798e+01 
-6.89124e+00 -1.54614e+01 
-6.68686e+00 -1.54434e+01 
-6.48357e+00 -1.54260e+01 
-6.28135e+00 -1.54090e+01 
-6.08015e+00 -1.53926e+01 
-5.87995e+00 -1.53767e+01 
-5.68071e+00 -1.53613e+01 
-5.48242e+00 -1.53464e+01 
-5.28503e+00 -1.53320e+01 
-5.08851e+00 -1.53181e+01 
-4.89284e+00 -1.53047e+01 
-4.69799e+00 -1.52918e+01 
-4.50391e+00 -1.52794e+01 
-4.31059e+00 -1.52676e+01 
-4.11799e+00 -1.52562e+01 
-3.92608e+00 -1.52454e+01 
-3.73482e+00 -1.52350e+01 
-3.54420e+00 -1.52252e+01 
-3.35417e+00 -1.52158e+01 
-3.16470e+00 -1.52070e+01 
-2.97577e+00 -1.51987e+01 
-2.78735e+00 -1.51909e+01 
-2.59940e+00 -1.51836e+01 
-2.41188e+00 -1.51768e+01 
-2.22474e+00 -1.51705e+01 
-2.03802e+00 -1.51647e+01 
-1.85164e+00 -1.51594e+01 
-1.66558e+00 -1.51546e+01 
-1.47980e+00 -1.51503e+01 
-1.29427e+00 -1.51465e+01 
-1.10896e+00 -1.51433e+01 
-9.23846e-01 -1.51405e+01 
-7.38888e-01 -1.51382e+01 
-5.54055e-01 -1.51364e+01 
-3.69317e-01 -1.51352e+01 
-1.84643e-01 -1.51344e+01 
-2.76663e-12 -1.51342e+01 
 1.84643e-01 -1.51344e+01 
 3.69317e-01 -1.51352e+01 
 5.54055e-01 -1.51364e+01 
 7.38888e-01 -1.51382e+01 
 9.23846e-01 -1.51405e+01 
 1.10896e+00 -1.51433e+01 
 1.29427e+00 -1.51465e+01 
 1.47980e+00 -1.51503e+01 
 1.66558e+00 -1.51546e+01 
 1.85164e+00 -1.51594e+01 
 2.03802e+00 -1.51647e+01 
 2.22474e+00 -1.51705e+01 
 2.41188e+00 -1.51768e+01 
 2.59940e+00 -1.51836e+01 
 2.78735e+00 -1.51909e+01 
 2.97577e+00 -1.51987e+01 
 3.16470e+00 -1.52070e+01 
 3.35417e+00 -1.52158e+01 
 3.54420e+00 -1.52252e+01 
 3.73482e+00 -1.52350e+01 
 3.92608e+00 -1.52454e+01 
 4.11799e+00 -1.52562e+01 
 4.31059e+00 -1.52676e+01 
 4.50391e+00 -1.52794e+01 
 4.69799e+00 -1.52918e+01 
 4.89284e+00 -1.53047e+01 
 5.08851e+00 -1.53181e+01 
 5.28503e+00 -1.53320e+01 
 5.48242e+00 -1.53464e+01 
 5.68071e+00 -1.53613e+01 
 5.87995e+00 -1.53767e+01 
 6.08015e+00 -1.53926e+01 
 6.28135e+00 -1.54090e+01 
 6.48357e+00 -1.54260e+01 
 6.68686e+00 -1.54434e+01 
 6.89124e+00 -1.54614e+01 
 7.09678e+00 -1.54798e+01 
 7.30344e+00 -1.54988e+01 
 7.51127e+00 -1.55183e+01 
 7.72032e+00 -1.55383e+01 
 7.93062e+00 -1.55587e+01 
 8.14219e+00 -1.55797e+01 
 8.35508e+00 -1.56012e+01 
 8.56930e+00 -1.56232e+01 
 8.78488e+00 -1.56458e+01 
 9.00188e+00 -1.56688e+01 
 9.22030e+00 -1.56923e+01 
 9.44019e+00 -1.57163e+01 
 9.66157e+00 -1.57409e+01 
-9.77026e+00 -1.61874e+01 
-9.54666e+00 -1.61634e+01 
-9.32456e+00 -1.61399e+01 
-9.10392e+00 -1.61169e+01 
-8.88471e+00 -1.60944e+01 
-8.66690e+00 -1.60724e+01 
-8.45047e+00 -1.60509e+01 
-8.23537e+00 -1.60299e+01 
-8.02157e+00 -1.60094e+01 
-7.80906e+00 -1.59894e+01 
-7.59779e+00 -1.59698e+01 
-7.38773e+00 -1.59508e+01 
-7.17885e+00 -1.59323e+01 
-6.97109e+00 -1.59142e+01 
-6.76449e+00 -1.58967e+01 
-6.55898e+00 -1.58796e+01 
-6.35453e+00 -1.58631e+01 
-6.15111e+00 -1.58470e+01 
-5.94869e+00 -1.58315e+01 
-5.74723e+00 -1.58164e+01 
-5.54671e+00 -1.58019e+01 
-5.34710e+00 -1.57878e+01 
-5.14837e+00 -1.57742e+01 
-4.95047e+00 -1.57612e+01 
-4.75340e+00 -1.57486e+01 
-4.55710e+00 -1.57365e+01 
-4.36156e+00 -1.57249e+01 
-4.16674e+00 -1.57138e+01 
-3.97260e+00 -1.57032e+01 
-3.77913e+00 -1.56931e+01 
-3.58629e+00 -1.56835e+01 
-3.39404e+00 -1.56744e+01 
-3.20236e+00 -1.56658e+01 
-3.01121e+00 -1.56577e+01 
-2.82057e+00 -1.56500e+01 
-2.63040e+00 -1.56429e+01 
-2.44067e+00 -1.56363e+01 
-2.25131e+00 -1.56301e+01 
-2.06237e+00 -1.56244e+01 
-1.87378e+00 -1.56193e+01 
-1.68550e+00 -1.56146e+01 
-1.49750e+00 -1.56104e+01 
-1.30976e+00 -1.56067e+01 
-1.12224e+00 -1.56036e+01 
-9.34913e-01 -1.56008e+01 
-7.47741e-01 -1.55986e+01 
-5.60695e-01 -1.55969e+01 
-3.73744e-01 -1.55957e+01 
-1.86856e-01 -1.55949e+01 
-2.72821e-12 -1.55947e+01 
 1.86856e-01 -1.55949e+01 
 3.73744e-01 -1.55957e+01 
 5.60695e-01 -1.55969e+01 
 7.47741e-01 -1.55986e+01 
 9.34913e-01 -1.56008e+01 
 1.12224e+00 -1.56036e+01 
 1.30976e+00 -1.56067e+01 
 1.49750e+00 -1.56104e+01 
 1.68550e+00 -1.56146e+01 
 1.87378e+00 -1.56193e+01 
 2.06237e+00 -1.56244e+01 
 2.25131e+00 -1.56301e+01 
 2.44067e+00 -1.56363e+01 
 2.63040e+00 -1.56429e+01 
 2.82057e+00 -1.56500e+01 
 3.01121e+00 -1.56577e+01 
 3.20236e+00 -1.56658e+01 
 3.39404e+00 -1.56744e+01 
 3.58629e+00 -1.56835e+01 
 3.77913e+00 -1.56931e+01 
 3.97260e+00 -1.57032e+01 
 4.16674e+00 -1.57138e+01 
 4.36156e+00 -1.57249e+01 
 4.55710e+00 -1.57365e+01 
 4.75340e+00 -1.57486e+01 
 4.95047e+00 -1.57612e+01 
 5.14837e+00 -1.57742e+01 
 5.34710e+00 -1.57878e+01 
 5.54671e+00 -1.58019e+01 
 5.74723e+00 -1.58164e+01 
 5.94869e+00 -1.58315e+01 
 6.15111e+00 -1.58470e+01 
 6.35453e+00 -1.58631e+01 
 6.55898e+00 -1.58796e+01 
 6.76449e+00 -1.58967e+01 
 6.97109e+00 -1.59142e+01 
 7.17885e+00 -1.59323e+01 
 7.38773e+00 -1.59508e+01 
 7.59779e+00 -1.59698e+01 
 7.80906e+00 -1.59894e+01 
 8.02157e+00 -1.60094e+01 
 8.23537e+00 -1.60299e+01 
 8.45047e+00 -1.60509e+01 
 8.66690e+00 -1.60724e+01 
 8.88471e+00 -1.60944e+01 
 9.10392e+00 -1.61169e+01 
 9.32456e+00 -1.61399e+01 
 9.54666e+00 -1.61634e+01 
 9.77026e+00 -1.61874e+01 
-9.87647e+00 -1.66383e+01 
-9.65071e+00 -1.66149e+01 
-9.42644e+00 -1.65919e+01 
-9.20364e+00 -1.65695e+01 
-8.98226e+00 -1.65475e+01 
-8.76229e+00 -1.65260e+01 
-8.54368e+00 -1.65050e+01 
-8.32641e+00 -1.64845e+01 
-8.11045e+00 -1.64644e+01 
-7.89576e+00 -1.64449e+01 
-7.68232e+00 -1.64258e+01 
-7.47009e+00 -1.64072e+01 
-7.25905e+00 -1.63891e+01 
-7.04911e+00 -1.63715e+01 
-6.84034e+00 -1.63544e+01 
-6.63266e+00 -1.63377e+01 
-6.42603e+00 -1.63216e+01 
-6.22044e+00 -1.63059e+01 
-6.01585e+00 -1.62907e+01 
-5.81222e+00 -1.62760e+01 
-5.60953e+00 -1.62618e+01 
-5.40775e+00 -1.62481e+01 
-5.20684e+00 -1.62348e+01 
-5.00677e+00 -1.62221e+01 
-4.80752e+00 -1.62098e+01 
-4.60906e+00 -1.61980e+01 
-4.41134e+00 -1.61867e+01 
-4.21435e+00 -1.61759e+01 
-4.01805e+00 -1.61655e+01 
-3.82241e+00 -1.61557e+01 
-3.62740e+00 -1.61463e+01 
-3.43298e+00 -1.61374e+01 
-3.23913e+00 -1.61290e+01 
-3.04582e+00 -1.61211e+01 
-2.85301e+00 -1.61136e+01 
-2.66067e+00 -1.61067e+01 
-2.46878e+00 -1.61002e+01 
-2.27726e+00 -1.60942e+01 
-2.08615e+00 -1.60887e+01 
-1.89539e+00 -1.60836e+01 
-1.70495e+00 -1.60791e+01 
-1.51480e+00 -1.60750e+01 
-1.32489e+00 -1.60714e+01 