<?xml version="1.0" encoding="utf-8"?>
<VTKFile byte_order="LittleEndian" type="UnstructuredGrid" version="0.1">
   <UnstructuredGrid>
      <Piece NumberOfCells="8000" NumberOfPoints="4091">
         <Points>
            <DataArray Name="Points" NumberOfComponents="3" format="ascii" type="Float32">
0.0000 0.0000 0.0000
0.0000 0.0100 0.0000
0.0000 0.0200 0.0000
0.0000 0.0300 0.0000
0.0000 0.0400 0.0000
0.0000 0.0500 0.0000
0.0000 0.0600 0.0000
0.0000 0.0700 0.0000
0.0000 0.0800 0.0000
0.0000 0.0900 0.0000
0.0000 0.1000 0.0000
0.0000 0.1100 0.0000
0.0000 0.1200 0.0000
0.0000 0.1300 0.0000
0.0000 0.1400 0.0000
0.0000 0.1500 0.0000
0.0000 0.1600 0.0000
0.0000 0.1700 0.0000
0.0000 0.1800 0.0000
0.0000 0.1900 0.0000
0.0000 0.2000 0.0000
0.0000 0.2100 0.0000
0.0000 0.2200 0.0000
0.0000 0.2300 0.0000
0.0000 0.2400 0.0000
0.0000 0.2500 0.0000
0.0000 0.2600 0.0000
0.0000 0.2700 0.0000
0.0000 0.2800 0.0000
0.0000 0.2900 0.0000
0.0000 0.3000 0.0000
0.0000 0.3100 0.0000
0.0000 0.3200 0.0000
0.0000 0.3300 0.0000
0.0000 0.3400 0.0000
0.0000 0.3500 0.0000
0.0000 0.3600 0.0000
0.0000 0.3700 0.0000
0.0000 0.3800 0.0000
0.0000 0.3900 0.0000
0.0000 0.4000 0.0000
0.0000 0.4100 0.0000
0.0000 0.4200 0.0000
0.0000 0.4300 0.0000
0.0000 0.4400 0.0000
0.0000 0.4500 0.0000
0.0000 0.4600 0.0000
0.0000 0.4700 0.0000
0.0000 0.4800 0.0000
0.0000 0.4900 0.0000
0.0000 0.5000 0.0000
0.0083 0.0000 0.0000
0.0083 0.0100 0.0000
0.0083 0.0200 0.0000
0.0083 0.0300 0.0000
0.0083 0.0400 0.0000
0.0083 0.0500 0.0000
0.0083 0.0600 0.0000
0.0083 0.0700 0.0000
0.0083 0.0800 0.0000
0.0083 0.0900 0.0000
0.0083 0.1000 0.0000
0.0083 0.1100 0.0000
0.0083 0.1200 0.0000
0.0083 0.1300 0.0000
0.0083 0.1400 0.0000
0.0083 0.1500 0.0000
0.0083 0.1600 0.0000
0.0083 0.1700 0.0000
0.0083 0.1800 0.0000
0.0083 0.1900 0.0000
0.0083 0.2000 0.0000
0.0083 0.2100 0.0000
0.0083 0.2200 0.0000
0.0083 0.2300 0.0000
0.0083 0.2400 0.0000
0.0083 0.2500 0.0000
0.0083 0.2600 0.0000
0.0083 0.2700 0.0000
0.0083 0.2800 0.0000
0.0083 0.2900 0.0000
0.0083 0.3000 0.0000
0.0083 0.3100 0.0000
0.0083 0.3200 0.0000
0.0083 0.3300 0.0000
0.0083 0.3400 0.0000
0.0083 0.3500 0.0000
0.0083 0.3600 0.0000
0.0083 0.3700 0.0000
0.0083 0.3800 0.0000
0.0083 0.3900 0.0000
0.0083 0.4000 0.0000
0.0083 0.4100 0.0000
0.0083 0.4200 0.0000
0.0083 0.4300 0.0000
0.0083 0.4400 0.0000
0.0083 0.4500 0.0000
0.0083 0.4600 0.0000
0.0083 0.4700 0.0000
0.0083 0.4800 0.0000
0.0083 0.4900 0.0000
0.0083 0.5000 0.0000
0.0167 0.0000 0.0000
0.0167 0.0100 0.0000
0.0167 0.0200 0.0000
0.0167 0.0300 0.0000
0.0167 0.0400 0.0000
0.0167 0.0500 0.0000
0.0167 0.0600 0.0000
0.0167 0.0700 0.0000
0.0167 0.0800 0.0000
0.0167 0.0900 0.0000
0.0167 0.1000 0.0000
0.0167 0.1100 0.0000
0.0167 0.1200 0.0000
0.0167 0.1300 0.0000
0.0167 0.1400 0.0000
0.0167 0.1500 0.0000
0.0167 0.1600 0.0000
0.0167 0.1700 0.0000
0.0167 0.1800 0.0000
0.0167 0.1900 0.0000
0.0167 0.2000 0.0000
0.0167 0.2100 0.0000
0.0167 0.2200 0.0000
0.0167 0.2300 0.0000
0.0167 0.2400 0.0000
0.0167 0.2500 0.0000
0.0167 0.2600 0.0000
0.0167 0.2700 0.0000
0.0167 0.2800 0.0000
0.0167 0.2900 0.0000
0.0167 0.3000 0.0000
0.0167 0.3100 0.0000
0.0167 0.3200 0.0000
0.0167 0.3300 0.0000
0.0167 0.3400 0.0000
0.0167 0.3500 0.0000
0.0167 0.3600 0.0000
0.0167 0.3700 0.0000
0.0167 0.3800 0.0000
0.0167 0.3900 0.0000
0.0167 0.4000 0.0000
0.0167 0.4100 0.0000
0.0167 0.4200 0.0000
0.0167 0.4300 0.0000
0.0167 0.4400 0.0000
0.0167 0.4500 0.0000
0.0167 0.4600 0.0000
0.0167 0.4700 0.0000
0.0167 0.4800 0.0000
0.0167 0.4900 0.0000
0.0167 0.5000 0.0000
0.0250 0.0000 0.0000
0.0250 0.0100 0.0000
0.0250 0.0200 0.0000
0.0250 0.0300 0.0000
0.0250 0.0400 0.0000
0.0250 0.0500 0.0000
0.0250 0.0600 0.0000
0.0250 0.0700 0.0000
0.0250 0.0800 0.0000
0.0250 0.0900 0.0000
0.0250 0.1000 0.0000
0.0250 0.1100 0.0000
0.0250 0.1200 0.0000
0.0250 0.1300 0.0000
0.0250 0.1400 0.0000
0.0250 0.1500 0.0000
0.0250 0.1600 0.0000
0.0250 0.1700 0.0000
0.0250 0.1800 0.0000
0.0250 0.1900 0.0000
0.0250 0.2000 0.0000
0.0250 0.2100 0.0000
0.0250 0.2200 0.0000
0.0250 0.2300 0.0000
0.0250 0.2400 0.0000
0.0250 0.2500 0.0000
0.0250 0.2600 0.0000
0.0250 0.2700 0.0000
0.0250 0.2800 0.0000
0.0250 0.2900 0.0000
0.0250 0.3000 0.0000
0.0250 0.3100 0.0000
0.0250 0.3200 0.0000
0.0250 0.3300 0.0000
0.0250 0.3400 0.0000
0.0250 0.3500 0.0000
0.0250 0.3600 0.0000
0.0250 0.3700 0.0000
0.0250 0.3800 0.0000
0.0250 0.3900 0.0000
0.0250 0.4000 0.0000
0.0250 0.4100 0.0000
0.0250 0.4200 0.0000
0.0250 0.4300 0.0000
0.0250 0.4400 0.0000
0.0250 0.4500 0.0000
0.0250 0.4600 0.0000
0.0250 0.4700 0.0000
0.0250 0.4800 0.0000
0.0250 0.4900 0.0000
0.0250 0.5000 0.0000
0.0333 0.0000 0.0000
0.0333 0.0100 0.0000
0.0333 0.0200 0.0000
0.0333 0.0300 0.0000
0.0333 0.0400 0.0000
0.0333 0.0500 0.0000
0.0333 0.0600 0.0000
0.0333 0.0700 0.0000
0.0333 0.0800 0.0000
0.0333 0.0900 0.0000
0.0333 0.1000 0.0000
0.0333 0.1100 0.0000
0.0333 0.1200 0.0000
0.0333 0.1300 0.0000
0.0333 0.1400 0.0000
0.0333 0.1500 0.0000
0.0333 0.1600 0.0000
0.0333 0.1700 0.0000
0.0333 0.1800 0.0000
0.0333 0.1900 0.0000
0.0333 0.2000 0.0000
0.0333 0.2100 0.0000
0.0333 0.2200 0.0000
0.0333 0.2300 0.0000
0.0333 0.2400 0.0000
0.0333 0.2500 0.0000
0.0333 0.2600 0.0000
0.0333 0.2700 0.0000
0.0333 0.2800 0.0000
0.0333 0.2900 0.0000
0.0333 0.3000 0.0000
0.0333 0.3100 0.0000
0.0333 0.3200 0.0000
0.0333 0.3300 0.0000
0.0333 0.3400 0.0000
0.0333 0.3500 0.0000
0.0333 0.3600 0.0000
0.0333 0.3700 0.0000
0.0333 0.3800 0.0000
0.0333 0.3900 0.0000
0.0333 0.4000 0.0000
0.0333 0.4100 0.0000
0.0333 0.4200 0.0000
0.0333 0.4300 0.0000
0.0333 0.4400 0.0000
0.0333 0.4500 0.0000
0.0333 0.4600 0.0000
0.0333 0.4700 0.0000
0.0333 0.4800 0.0000
0.0333 0.4900 0.0000
0.0333 0.5000 0.0000
0.0417 0.0000 0.0000
0.0417 0.0100 0.0000
0.0417 0.0200 0.0000
0.0417 0.0300 0.0000
0.0417 0.0400 0.0000
0.0417 0.0500 0.0000
0.0417 0.0600 0.0000
0.0417 0.0700 0.0000
0.0417 0.0800 0.0000
0.0417 0.0900 0.0000
0.0417 0.1000 0.0000
0.0417 0.1100 0.0000
0.0417 0.1200 0.0000
0.0417 0.1300 0.0000
0.0417 0.1400 0.0000
0.0417 0.1500 0.0000
0.0417 0.1600 0.0000
0.0417 0.1700 0.0000
0.0417 0.1800 0.0000
0.0417 0.1900 0.0000
0.0417 0.2000 0.0000
0.0417 0.2100 0.0000
0.0417 0.2200 0.0000
0.0417 0.2300 0.0000
0.0417 0.2400 0.0000
0.0417 0.2500 0.0000
0.0417 0.2600 0.0000
0.0417 0.2700 0.0000
0.0417 0.2800 0.0000
0.0417 0.2900 0.0000
0.0417 0.3000 0.0000
0.0417 0.3100 0.0000
0.0417 0.3200 0.0000
0.0417 0.3300 0.0000
0.0417 0.3400 0.0000
0.0417 0.3500 0.0000
0.0417 0.3600 0.0000
0.0417 0.3700 0.0000
0.0417 0.3800 0.0000
0.0417 0.3900 0.0000
0.0417 0.4000 0.0000
0.0417 0.4100 0.0000
0.0417 0.4200 0.0000
0.0417 0.4300 0.0000
0.0417 0.4400 0.0000
0.0417 0.4500 0.0000
0.0417 0.4600 0.0000
0.0417 0.4700 0.0000
0.0417 0.4800 0.0000
0.0417 0.4900 0.0000
0.0417 0.5000 0.0000
0.0500 0.0000 0.0000
0.0500 0.0100 0.0000
0.0500 0.0200 0.0000
0.0500 0.0300 0.0000
0.0500 0.0400 0.0000
0.0500 0.0500 0.0000
0.0500 0.0600 0.0000
0.0500 0.0700 0.0000
0.0500 0.0800 0.0000
0.0500 0.0900 0.0000
0.0500 0.1000 0.0000
0.0500 0.1100 0.0000
0.0500 0.1200 0.0000
0.0500 0.1300 0.0000
0.0500 0.1400 0.0000
0.0500 0.1500 0.0000
0.0500 0.1600 0.0000
0.0500 0.1700 0.0000
0.0500 0.1800 0.0000
0.0500 0.1900 0.0000
0.0500 0.2000 0.0000
0.0500 0.2100 0.0000
0.0500 0.2200 0.0000
0.0500 0.2300 0.0000
0.0500 0.2400 0.0000
0.0500 0.2500 0.0000
0.0500 0.2600 0.0000
0.0500 0.2700 0.0000
0.0500 0.2800 0.0000
0.0500 0.2900 0.0000
0.0500 0.3000 0.0000
0.0500 0.3100 0.0000
0.0500 0.3200 0.0000
0.0500 0.3300 0.0000
0.0500 0.3400 0.0000
0.0500 0.3500 0.0000
0.0500 0.3600 0.0000
0.0500 0.3700 0.0000
0.0500 0.3800 0.0000
0.0500 0.3900 0.0000
0.0500 0.4000 0.0000
0.0500 0.4100 0.0000
0.0500 0.4200 0.0000
0.0500 0.4300 0.0000
0.0500 0.4400 0.0000
0.0500 0.4500 0.0000
0.0500 0.4600 0.0000
0.0500 0.4700 0.0000
0.0500 0.4800 0.0000
0.0500 0.4900 0.0000
0.0500 0.5000 0.0000
0.0583 0.0000 0.0000
0.0583 0.0100 0.0000
0.0583 0.0200 0.0000
0.0583 0.0300 0.0000
0.0583 0.0400 0.0000
0.0583 0.0500 0.0000
0.0583 0.0600 0.0000
0.0583 0.0700 0.0000
0.0583 0.0800 0.0000
0.0583 0.0900 0.0000
0.0583 0.1000 0.0000
0.0583 0.1100 0.0000
0.0583 0.1200 0.0000
0.0583 0.1300 0.0000
0.0583 0.1400 0.0000
0.0583 0.1500 0.0000
0.0583 0.1600 0.0000
0.0583 0.1700 0.0000
0.0583 0.1800 0.0000
0.0583 0.1900 0.0000
0.0583 0.2000 0.0000
0.0583 0.2100 0.0000
0.0583 0.2200 0.0000
0.0583 0.2300 0.0000
0.0583 0.2400 0.0000
0.0583 0.2500 0.0000
0.0583 0.2600 0.0000
0.0583 0.2700 0.0000
0.0583 0.2800 0.0000
0.0583 0.2900 0.0000
0.0583 0.3000 0.0000
0.0583 0.3100 0.0000
0.0583 0.3200 0.0000
0.0583 0.3300 0.0000
0.0583 0.3400 0.0000
0.0583 0.3500 0.0000
0.0583 0.3600 0.0000
0.0583 0.3700 0.0000
0.0583 0.3800 0.0000
0.0583 0.3900 0.0000
0.0583 0.4000 0.0000
0.0583 0.4100 0.0000
0.0583 0.4200 0.0000
0.0583 0.4300 0.0000
0.0583 0.4400 0.0000
0.0583 0.4500 0.0000
0.0583 0.4600 0.0000
0.0583 0.4700 0.0000
0.0583 0.4800 0.0000
0.0583 0.4900 0.0000
0.0583 0.5000 0.0000
0.0667 0.0000 0.0000
0.0667 0.0100 0.0000
0.0667 0.0200 0.0000
0.0667 0.0300 0.0000
0.0667 0.0400 0.0000
0.0667 0.0500 0.0000
0.0667 0.0600 0.0000
0.0667 0.0700 0.0000
0.0667 0.0800 0.0000
0.0667 0.0900 0.0000
0.0667 0.1000 0.0000
0.0667 0.1100 0.0000
0.0667 0.1200 0.0000
0.0667 0.1300 0.0000
0.0667 0.1400 0.0000
0.0667 0.1500 0.0000
0.0667 0.1600 0.0000
0.0667 0.1700 0.0000
0.0667 0.1800 0.0000
0.0667 0.1900 0.0000
0.0667 0.2000 0.0000
0.0667 0.2100 0.0000
0.0667 0.2200 0.0000
0.0667 0.2300 0.0000
0.0667 0.2400 0.0000
0.0667 0.2500 0.0000
0.0667 0.2600 0.0000
0.0667 0.2700 0.0000
0.0667 0.2800 0.0000
0.0667 0.2900 0.0000
0.0667 0.3000 0.0000
0.0667 0.3100 0.0000
0.0667 0.3200 0.0000
0.0667 0.3300 0.0000
0.0667 0.3400 0.0000
0.0667 0.3500 0.0000
0.0667 0.3600 0.0000
0.0667 0.3700 0.0000
0.0667 0.3800 0.0000
0.0667 0.3900 0.0000
0.0667 0.4000 0.0000
0.0667 0.4100 0.0000
0.0667 0.4200 0.0000
0.0667 0.4300 0.0000
0.0667 0.4400 0.0000
0.0667 0.4500 0.0000
0.0667 0.4600 0.0000
0.0667 0.4700 0.0000
0.0667 0.4800 0.0000
0.0667 0.4900 0.0000
0.0667 0.5000 0.0000
0.0750 0.0000 0.0000
0.0750 0.0100 0.0000
[...]
         <PointData>
            <DataArray Name="fValues" NumberOfComponents="3" format="ascii" type="Float64">
 3.97026e-17  4.06855e-17        00000 
-3.53819e-17 -3.93132e-17        00000 
-1.94379e-18 -3.88759e-18        00000 
-1.47755e-17 -2.52771e-17        00000 
 1.26347e-17  1.06909e-17        00000 
-9.37626e-18 -3.53302e-17        00000 
 4.85948e-18  1.55503e-17        00000 
-1.17838e-17 -4.09074e-18        00000 
 1.26347e-17 -6.31733e-18        00000 
-7.84339e-18  7.84339e-18        00000 
 7.77517e-18  1.16628e-17        00000 
-9.09733e-18 -1.95379e-18        00000 
 7.77517e-18  1.45784e-18        00000 
-2.81680e-18  2.58127e-18        00000 
 7.77517e-18  9.71897e-19        00000 
-7.26565e-18 -4.99132e-18        00000 
 1.40925e-17  2.18677e-18        00000 
 6.41686e-18 -1.60013e-19        00000 
 1.45784e-18  1.21487e-18        00000 
 3.35807e-18 -5.18975e-19        00000 
 3.40164e-18  2.30825e-18        00000 
 4.55680e-18 -5.04095e-19        00000 
-4.85948e-19  9.71897e-19        00000 
 2.50546e-18  1.73246e-18        00000 
-1.84040e-19        00000        00000 
 6.11069e-20 -4.28261e-19        00000 
 1.80421e-19  2.42974e-19        00000 
-4.40488e-19  9.08206e-19        00000 
 2.42974e-19 -9.71897e-19        00000 
-1.81424e-18  1.90532e-18        00000 
-2.42974e-18  8.50409e-19        00000 
-2.90015e-18  2.10643e-18        00000 
-6.80328e-18  7.28922e-19        00000 
-5.36347e-18  1.38444e-18        00000 
-9.71897e-19  4.37353e-18        00000 
 1.07458e-17 -1.17533e-18        00000 
-8.74707e-18  4.37353e-18        00000 
 6.02424e-18 -1.48883e-18        00000 
-8.74707e-18  6.31733e-18        00000 
-2.33233e-17 -2.41171e-18        00000 
 1.45784e-17 -2.42974e-18        00000 
-3.33344e-17  7.84339e-18        00000 
 9.71897e-18 -2.91569e-18        00000 
-2.57656e-17  3.54124e-18        00000 
 6.80328e-18  6.80328e-18        00000 
-2.34651e-17 -1.44574e-18        00000 
 9.71897e-19  1.16628e-17        00000 
-1.44092e-17  4.27391e-18        00000 
-1.36066e-17  3.30445e-17        00000 
-1.20157e-17 -4.21391e-18        00000 
-2.78525e-17  4.21957e-17        00000 
-3.25779e-01 -3.22471e-01        00000 
-1.91221e-01 -1.94718e-01        00000 
-1.62082e-01 -1.45312e-01        00000 
-1.43176e-01 -1.17019e-01        00000 
-1.30383e-01 -9.74387e-02        00000 
-1.20063e-01 -8.27087e-02        00000 
-1.11216e-01 -7.10391e-02        00000 
-1.03278e-01 -6.15032e-02        00000 
-9.59616e-02 -5.35458e-02        00000 
-8.90915e-02 -4.68089e-02        00000 
-8.25576e-02 -4.10472e-02        00000 
-7.62853e-02 -3.60843e-02        00000 
-7.02221e-02 -3.17895e-02        00000 
-6.43292e-02 -2.80630e-02        00000 
-5.85769e-02 -2.48273e-02        00000 
-5.29422e-02 -2.20209e-02        00000 
-4.74060e-02 -1.95947e-02        00000 
-4.19530e-02 -1.75092e-02        00000 
-3.65697e-02 -1.57324e-02        00000 
-3.12446e-02 -1.42381e-02        00000 
-2.59675e-02 -1.30056e-02        00000 
-2.07292e-02 -1.20181e-02        00000 
-1.55211e-02 -1.12628e-02        00000 
-1.03352e-02 -1.07300e-02        00000 
-5.16398e-03 -1.04129e-02        00000 
 3.15034e-14 -1.03077e-02        00000 
 5.16398e-03 -1.04129e-02        00000 
 1.03352e-02 -1.07300e-02        00000 
 1.55211e-02 -1.12628e-02        00000 
 2.07292e-02 -1.20181e-02        00000 
 2.59675e-02 -1.30056e-02        00000 
 3.12446e-02 -1.42381e-02        00000 
 3.65697e-02 -1.57324e-02        00000 
 4.19530e-02 -1.75092e-02        00000 
 4.74060e-02 -1.95947e-02        00000 
 5.29422e-02 -2.20209e-02        00000 
 5.85769e-02 -2.48273e-02        00000 
 6.43292e-02 -2.80630e-02        00000 
 7.02221e-02 -3.17895e-02        00000 
 7.62853e-02 -3.60843e-02        00000 
 8.25576e-02 -4.10472e-02        00000 
 8.90915e-02 -4.68089e-02        00000 
 9.59616e-02 -5.35458e-02        00000 
 1.03278e-01 -6.15032e-02        00000 
 1.11216e-01 -7.10391e-02        00000 
 1.20063e-01 -8.27087e-02        00000 
 1.30383e-01 -9.74387e-02        00000 
 1.43176e-01 -1.17019e-01        00000 
 1.62082e-01 -1.45312e-01        00000 
 1.91221e-01 -1.94718e-01        00000 
 3.25779e-01 -3.22471e-01        00000 
-5.76957e-01 -5.11810e-01        00000 
-4.18554e-01 -3.97539e-01        00000 
-3.41317e-01 -3.08225e-01        00000 
-2.99869e-01 -2.51416e-01        00000 
-2.70722e-01 -2.11112e-01        00000 
-2.48001e-01 -1.80621e-01        00000 
-2.28817e-01 -1.56487e-01        00000 
-2.11856e-01 -1.36799e-01        00000 
-1.96390e-01 -1.20399e-01        00000 
-1.81992e-01 -1.06535e-01        00000 
-1.68389e-01 -9.46893e-02        00000 
-1.55400e-01 -8.44943e-02        00000 
-1.42899e-01 -7.56763e-02        00000 
-1.30791e-01 -6.80279e-02        00000 
-1.19006e-01 -6.13882e-02        00000 
-1.07489e-01 -5.56300e-02        00000 
-9.61969e-02 -5.06522e-02        00000 
-8.50921e-02 -4.63733e-02        00000 
-7.41444e-02 -4.27273e-02        00000 
-6.33273e-02 -3.96610e-02        00000 
-5.26176e-02 -3.71316e-02        00000 
-4.19944e-02 -3.51051e-02        00000 
-3.14384e-02 -3.35548e-02        00000 
-2.09319e-02 -3.24611e-02        00000 
-1.04579e-02 -3.18103e-02        00000 
 6.36784e-14 -3.15942e-02        00000 
 1.04579e-02 -3.18103e-02        00000 
 2.09319e-02 -3.24611e-02        00000 
 3.14384e-02 -3.35548e-02        00000 
 4.19944e-02 -3.51051e-02        00000 
 5.26176e-02 -3.71316e-02        00000 
 6.33273e-02 -3.96610e-02        00000 
 7.41444e-02 -4.27273e-02        00000 
 8.50921e-02 -4.63733e-02        00000 
 9.61969e-02 -5.06522e-02        00000 
 1.07489e-01 -5.56300e-02        00000 
 1.19006e-01 -6.13882e-02        00000 
 1.30791e-01 -6.80279e-02        00000 
 1.42899e-01 -7.56763e-02        00000 
 1.55400e-01 -8.44943e-02        00000 
 1.68389e-01 -9.46893e-02        00000 
 1.81992e-01 -1.06535e-01        00000 
 1.96390e-01 -1.20399e-01        00000 
 2.11856e-01 -1.36799e-01        00000 
 2.28817e-01 -1.56487e-01        00000 
 2.48001e-01 -1.80621e-01        00000 
 2.70722e-01 -2.11112e-01        00000 
 2.99869e-01 -2.51416e-01        00000 
 3.41317e-01 -3.08225e-01        00000 
 4.18554e-01 -3.97539e-01        00000 
 5.76957e-01 -5.11810e-01        00000 
-7.92375e-01 -6.76200e-01        00000 
-6.35507e-01 -5.65848e-01        00000 
-5.33144e-01 -4.68291e-01        00000 
-4.67030e-01 -3.92090e-01        00000 
-4.20192e-01 -3.34490e-01        00000 
-3.83436e-01 -2.89526e-01        00000 
-3.52667e-01 -2.53420e-01        00000 
-3.25689e-01 -2.23744e-01        00000 
-3.01285e-01 -1.98918e-01        00000 
-2.78719e-01 -1.77876e-01        00000 
-2.57522e-01 -1.59868e-01        00000 
-2.37377e-01 -1.44350e-01        00000 
-2.18062e-01 -1.30915e-01        00000 
-1.99416e-01 -1.19253e-01        00000 
-1.81317e-01 -1.09122e-01        00000 
-1.63669e-01 -1.00332e-01        00000 
-1.46397e-01 -9.27289e-02        00000 
-1.29440e-01 -8.61904e-02        00000 
-1.12744e-01 -8.06170e-02        00000 
-9.62649e-02 -7.59281e-02        00000 
-7.99642e-02 -7.20591e-02        00000 
-6.38067e-02 -6.89584e-02        00000 
-4.77603e-02 -6.65861e-02        00000 
-3.17957e-02 -6.49122e-02        00000 
-1.58846e-02 -6.39160e-02        00000 
 9.65230e-14 -6.35852e-02        00000 
 1.58846e-02 -6.39160e-02        00000 
 3.17957e-02 -6.49122e-02        00000 
 4.77603e-02 -6.65861e-02        00000 
 6.38067e-02 -6.89584e-02        00000 
 7.99642e-02 -7.20591e-02        00000 
 9.62649e-02 -7.59281e-02        00000 
 1.12744e-01 -8.06170e-02        00000 
 1.29440e-01 -8.61904e-02        00000 
 1.46397e-01 -9.27289e-02        00000 
 1.63669e-01 -1.00332e-01        00000 
 1.81317e-01 -1.09122e-01        00000 
 1.99416e-01 -1.19253e-01        00000 
 2.18062e-01 -1.30915e-01        00000 
 2.37377e-01 -1.44350e-01        00000 
 2.57522e-01 -1.59868e-01        00000 
 2.78719e-01 -1.77876e-01        00000 
 3.01285e-01 -1.98918e-01        00000 
 3.25689e-01 -2.23744e-01        00000 
 3.52667e-01 -2.53420e-01        00000 
 3.83436e-01 -2.89526e-01        00000 
 4.20192e-01 -3.34490e-01        00000 
 4.67030e-01 -3.92090e-01        00000 
 5.33144e-01 -4.68291e-01        00000 
 6.35507e-01 -5.65848e-01        00000 
 7.92375e-01 -6.76200e-01        00000 
-9.92884e-01 -8.21987e-01        00000 
-8.40562e-01 -7.16247e-01        00000 
-7.25003e-01 -6.16814e-01        00000 
-6.40301e-01 -5.31781e-01        00000 
-5.76285e-01 -4.62179e-01        00000 
-5.25129e-01 -4.05589e-01        00000 
-4.82070e-01 -3.59040e-01        00000 
-4.44381e-01 -3.20228e-01        00000 
-4.10414e-01 -2.87465e-01        00000 
-3.79138e-01 -2.59527e-01        00000 
-3.49877e-01 -2.35516e-01        00000 
-3.22170e-01 -2.14761e-01        00000 
-2.95690e-01 -1.96750e-01        00000 
-2.70198e-01 -1.81088e-01        00000 
-2.45510e-01 -1.67461e-01        00000 
-2.21488e-01 -1.55623e-01        00000 
-1.98017e-01 -1.45374e-01        00000 
-1.75007e-01 -1.36552e-01        00000 
-1.52379e-01 -1.29027e-01        00000 
-1.30068e-01 -1.22692e-01        00000 
-1.08017e-01 -1.17462e-01        00000 
-8.61745e-02 -1.13269e-01        00000 
-6.44935e-02 -1.10060e-01        00000 
-4.29309e-02 -1.07796e-01        00000 
-2.14462e-02 -1.06447e-01        00000 
 1.30046e-13 -1.06000e-01        00000 
 2.14462e-02 -1.06447e-01        00000 
 4.29309e-02 -1.07796e-01        00000 
 6.44935e-02 -1.10060e-01        00000 
 8.61745e-02 -1.13269e-01        00000 
 1.08017e-01 -1.17462e-01        00000 
 1.30068e-01 -1.22692e-01        00000 
 1.52379e-01 -1.29027e-01        00000 
 1.75007e-01 -1.36552e-01        00000 
 1.98017e-01 -1.45374e-01        00000 
 2.21488e-01 -1.55623e-01        00000 
 2.45510e-01 -1.67461e-01        00000 
 2.70198e-01 -1.81088e-01        00000 
 2.95690e-01 -1.96750e-01        00000 
 3.22170e-01 -2.14761e-01        00000 
 3.49877e-01 -2.35516e-01        00000 
 3.79138e-01 -2.59527e-01        00000 
 4.10414e-01 -2.87465e-01        00000 
 4.44381e-01 -3.20228e-01        00000 
 4.82070e-01 -3.59040e-01        00000 
 5.25129e-01 -4.05589e-01        00000 
 5.76285e-01 -4.62179e-01        00000 
 6.40301e-01 -5.31781e-01        00000 
 7.25003e-01 -6.16814e-01        00000 
 8.40562e-01 -7.16247e-01        00000 
 9.92884e-01 -8.21987e-01        00000 
-1.18508e+00 -9.57821e-01        00000 
-1.03630e+00 -8.55356e-01        00000 
-9.13212e-01 -7.56683e-01        00000 
-8.14978e-01 -6.67760e-01        00000 
-7.36226e-01 -5.91012e-01        00000 
-6.71304e-01 -5.25984e-01        00000 
-6.15932e-01 -4.71038e-01        00000 
-5.67231e-01 -4.24392e-01        00000 
-5.23318e-01 -3.84532e-01        00000 
-4.82940e-01 -3.50250e-01        00000 
-4.45246e-01 -3.20604e-01        00000 
-4.09638e-01 -2.94859e-01        00000 
-3.75685e-01 -2.72438e-01        00000 
-3.43067e-01 -2.52886e-01        00000 
-3.11540e-01 -2.35838e-01        00000 
-2.80914e-01 -2.21000e-01        00000 
-2.51036e-01 -2.08134e-01        00000 
-2.21780e-01 -1.97046e-01        00000 
-1.93042e-01 -1.87578e-01        00000 
-1.64733e-01 -1.79601e-01        00000 
-1.36774e-01 -1.73011e-01        00000 
-1.09097e-01 -1.67724e-01        00000 
-8.16374e-02 -1.63677e-01        00000 
-5.43377e-02 -1.60819e-01        00000 
-2.71429e-02 -1.59117e-01        00000 
 1.64187e-13 -1.58552e-01        00000 
 2.71429e-02 -1.59117e-01        00000 
 5.43377e-02 -1.60819e-01        00000 
 8.16374e-02 -1.63677e-01        00000 
 1.09097e-01 -1.67724e-01        00000 
 1.36774e-01 -1.73011e-01        00000 
 1.64733e-01 -1.79601e-01        00000 
 1.93042e-01 -1.87578e-01        00000 
 2.21780e-01 -1.97046e-01        00000 
 2.51036e-01 -2.08134e-01        00000 
 2.80914e-01 -2.21000e-01        00000 
 3.11540e-01 -2.35838e-01        00000 
 3.43067e-01 -2.52886e-01        00000 
 3.75685e-01 -2.72438e-01        00000 
 4.09638e-01 -2.94859e-01        00000 
 4.45246e-01 -3.20604e-01        00000 
 4.82940e-01 -3.50250e-01        00000 
 5.23318e-01 -3.84532e-01        00000 
 5.67231e-01 -4.24392e-01        00000 
 6.15932e-01 -4.71038e-01        00000 
 6.71304e-01 -5.25984e-01        00000 
 7.36226e-01 -5.91012e-01        00000 
 8.14978e-01 -6.67760e-01        00000 
 9.13212e-01 -7.56683e-01        00000 
 1.03630e+00 -8.55356e-01        00000 
 1.18508e+00 -9.57821e-01        00000 
-1.37205e+00 -1.08799e+00        00000 
-1.22512e+00 -9.87997e-01        00000 
-1.09693e+00 -8.90736e-01        00000 
-9.88586e-01 -8.00473e-01        00000 
-8.97562e-01 -7.19712e-01        00000 
-8.20155e-01 -6.49018e-01        00000 
-7.52958e-01 -5.87735e-01        00000 
-6.93327e-01 -5.34729e-01        00000 
-6.39347e-01 -4.88811e-01        00000 
-5.89656e-01 -4.48919e-01        00000 
-5.43283e-01 -4.14160e-01        00000 
-4.99521e-01 -3.83800e-01        00000 
-4.57850e-01 -3.57241e-01        00000 
-4.17875e-01 -3.33997e-01        00000 
-3.79291e-01 -3.13672e-01        00000 
-3.41858e-01 -2.95940e-01        00000 
-3.05382e-01 -2.80535e-01        00000 
-2.69704e-01 -2.67238e-01        00000 
-2.34690e-01 -2.55869e-01        00000 
-2.00225e-01 -2.46279e-01        00000 
-1.66209e-01 -2.38350e-01        00000 
-1.32554e-01 -2.31984e-01        00000 
-9.91783e-02 -2.27108e-01        00000 
-6.60072e-02 -2.23663e-01        00000 
-3.29704e-02 -2.21612e-01        00000 
 1.98966e-13 -2.20931e-01        00000 
 3.29704e-02 -2.21612e-01        00000 
 6.60072e-02 -2.23663e-01        00000 
 9.91783e-02 -2.27108e-01        00000 
 1.32554e-01 -2.31984e-01        00000 
 1.66209e-01 -2.38350e-01        00000 
 2.00225e-01 -2.46279e-01        00000 
 2.34690e-01 -2.55869e-01        00000 
 2.69704e-01 -2.67238e-01        00000 
 3.05382e-01 -2.80535e-01        00000 
 3.41858e-01 -2.95940e-01        00000 
 3.79291e-01 -3.13672e-01        00000 
 4.17875e-01 -3.33997e-01        00000 
 4.57850e-01 -3.57241e-01        00000 
 4.99521e-01 -3.83800e-01        00000 
 5.43283e-01 -4.14160e-01        00000 
 5.89656e-01 -4.48919e-01        00000 
 6.39347e-01 -4.88811e-01        00000 
 6.93327e-01 -5.34729e-01        00000 
 7.52958e-01 -5.87735e-01        00000 
 8.20155e-01 -6.49018e-01        00000 
 8.97562e-01 -7.19712e-01        00000 
 9.88586e-01 -8.00473e-01        00000 
 1.09693e+00 -8.90736e-01        00000 
 1.22512e+00 -9.87997e-01        00000 
 1.37205e+00 -1.08799e+00        00000 
-1.55541e+00 -1.21536e+00        00000 
-1.40877e+00 -1.11727e+00        00000 
-1.27641e+00 -1.02152e+00        00000 
-1.16005e+00 -9.31129e-01        00000 
-1.05875e+00 -8.48296e-01        00000 
-9.70227e-01 -7.73980e-01        00000 
-8.91978e-01 -7.08148e-01        00000 
-8.21771e-01 -6.50199e-01        00000 
-7.57826e-01 -5.99307e-01        00000 
-6.98780e-01 -5.54623e-01        00000 
-6.43607e-01 -5.15365e-01        00000 
-5.91533e-01 -4.80852e-01        00000 
-5.41967e-01 -4.50504e-01        00000 
-4.94453e-01 -4.23834e-01        00000 
-4.48633e-01 -4.00433e-01        00000 
-4.04219e-01 -3.79962e-01        00000 
-3.60979e-01 -3.62137e-01        00000 
-3.18719e-01 -3.46721e-01        00000 
-2.77275e-01 -3.33520e-01        00000 
-2.36509e-01 -3.22371e-01        00000 
-1.96295e-01 -3.13142e-01        00000 
-1.56526e-01 -3.05728e-01        00000 
-1.17102e-01 -3.00043e-01        00000 
-7.79303e-02 -2.96027e-01        00000 
-3.89241e-02 -2.93634e-01        00000 
 2.34315e-13 -2.92839e-01        00000 
 3.89241e-02 -2.93634e-01        00000 
 7.79303e-02 -2.96027e-01        00000 
 1.17102e-01 -3.00043e-01        00000 
 1.56526e-01 -3.05728e-01        00000 
 1.96295e-01 -3.13142e-01        00000 
 2.36509e-01 -3.22371e-01        00000 
 2.77275e-01 -3.33520e-01        00000 
 3.18719e-01 -3.46721e-01        00000 
 3.60979e-01 -3.62137e-01        00000 
 4.04219e-01 -3.79962e-01        00000 
 4.48633e-01 -4.00433e-01        00000 
 4.94453e-01 -4.23834e-01        00000 
 5.41967e-01 -4.50504e-01        00000 
 5.91533e-01 -4.80852e-01        00000 
 6.43607e-01 -5.15365e-01        00000 
 6.98780e-01 -5.54623e-01        00000 
 7.57826e-01 -5.99307e-01        00000 
 8.21771e-01 -6.50199e-01        00000 
 8.91978e-01 -7.08148e-01        00000 
 9.70227e-01 -7.73980e-01        00000 
 1.05875e+00 -8.48296e-01        00000 
 1.16005e+00 -9.31129e-01        00000 
 1.27641e+00 -1.02152e+00        00000 
 1.40877e+00 -1.11727e+00        00000 
 1.55541e+00 -1.21536e+00        00000 
-1.73608e+00 -1.34188e+00        00000 
-1.58847e+00 -1.24531e+00        00000 
-1.45219e+00 -1.15097e+00        00000 
-1.32903e+00 -1.06103e+00        00000 
-1.21889e+00 -9.77287e-01        00000 
-1.12047e+00 -9.00776e-01        00000 
-1.03202e+00 -8.31804e-01        00000 
-9.51741e-01 -7.70152e-01        00000 
-8.78091e-01 -7.15311e-01        00000 
-8.09786e-01 -6.66655e-01        00000 
-7.45806e-01 -6.23546e-01        00000 
-6.85348e-01 -5.85388e-01        00000 
-6.27781e-01 -5.51650e-01        00000 
-5.72601e-01 -5.21865e-01        00000 
-5.19407e-01 -4.95634e-01        00000 
-4.67872e-01 -4.72616e-01        00000 
-4.17726e-01 -4.52522e-01        00000 
-3.68745e-01 -4.35108e-01        00000 
-3.20736e-01 -4.20168e-01        00000 
-2.73535e-01 -4.07532e-01        00000 
-2.26995e-01 -3.97061e-01        00000 
-1.80986e-01 -3.88640e-01        00000 
-1.35389e-01 -3.82179e-01        00000 
-9.00942e-02 -3.77611e-01        00000 
-4.49980e-02 -3.74889e-01        00000 
 2.70130e-13 -3.73985e-01        00000 
 4.49980e-02 -3.74889e-01        00000 
 9.00942e-02 -3.77611e-01        00000 
 1.35389e-01 -3.82179e-01        00000 
 1.80986e-01 -3.88640e-01        00000 
 2.26995e-01 -3.97061e-01        00000 
 2.73535e-01 -4.07532e-01        00000 
 3.20736e-01 -4.20168e-01        00000 
 3.68745e-01 -4.35108e-01        00000 
 4.17726e-01 -4.52522e-01        00000 
 4.67872e-01 -4.72616e-01        00000 
 5.19407e-01 -4.95634e-01        00000 
 5.72601e-01 -5.21865e-01        00000 
 6.27781e-01 -5.51650e-01        00000 
 6.85348e-01 -5.85388e-01        00000 
 7.45806e-01 -6.23546e-01        00000 
 8.09786e-01 -6.66655e-01        00000 
 8.78091e-01 -7.15311e-01        00000 
 9.51741e-01 -7.70152e-01        00000 
 1.03202e+00 -8.31804e-01        00000 
 1.12047e+00 -9.00776e-01        00000 
 1.21889e+00 -9.77287e-01        00000 
 1.32903e+00 -1.06103e+00        00000 
 1.45219e+00 -1.15097e+00        00000 
 1.58847e+00 -1.24531e+00        00000 
 1.73608e+00 -1.34188e+00        00000 
-1.91457e+00 -1.46889e+00        00000 
-1.76498e+00 -1.37357e+00        00000 
-1.62471e+00 -1.28052e+00        00000 
-1.49543e+00 -1.19129e+00        00000 
-1.37747e+00 -1.10732e+00        00000 
-1.27015e+00 -1.02958e+00        00000 
-1.17228e+00 -9.58531e-01        00000 
-1.08249e+00 -8.94196e-01        00000 
-9.99494e-01 -8.36313e-01        00000 
-9.22128e-01 -7.84454e-01        00000 
-8.49427e-01 -7.38131e-01        00000 
-7.80596e-01 -6.96850e-01        00000 
-7.14987e-01 -6.60141e-01        00000 
-6.52069e-01 -6.27582e-01        00000 
-5.91409e-01 -5.98796e-01        00000 
-5.32648e-01 -5.73452e-01        00000 
-4.75487e-01 -5.51267e-01        00000 
-4.19671e-01 -5.31995e-01        00000 
-3.64982e-01 -5.15431e-01        00000 
-3.11231e-01 -5.01399e-01        00000 
-2.58250e-01 -4.89755e-01        00000 
-2.05888e-01 -4.80382e-01        00000 
-1.54006e-01 -4.73185e-01        00000 
-1.02478e-01 -4.68093e-01        00000 
-5.11818e-02 -4.65058e-01        00000 
 3.06440e-13 -4.64049e-01        00000 
 5.11818e-02 -4.65058e-01        00000 
 1.02478e-01 -4.68093e-01        00000 
 1.54006e-01 -4.73185e-01        00000 
 2.05888e-01 -4.80382e-01        00000 
 2.58250e-01 -4.89755e-01        00000 
 3.11231e-01 -5.01399e-01        00000 
 3.64982e-01 -5.15431e-01        00000 
 4.19671e-01 -5.31995e-01        00000 
 4.75487e-01 -5.51267e-01        00000 
 5.32648e-01 -5.73452e-01        00000 
 5.91409e-01 -5.98796e-01        00000 
 6.52069e-01 -6.27582e-01        00000 