<?xml version="1.0" encoding="utf-8"?>
<VTKFile byte_order="LittleEndian" type="UnstructuredGrid" version="0.1">
   <UnstructuredGrid>
      <Piece NumberOfCells="3168" NumberOfPoints="1692">
         <Points>
            <DataArray Name="Points" NumberOfComponents="3" format="ascii" type="Float32">
0.8000 0.0000 0.0000
0.8000 0.0051 0.0000
0.8000 0.0101 0.0000
0.8000 0.0152 0.0000
0.8000 0.0202 0.0000
0.8000 0.0253 0.0000
0.8000 0.0303 0.0000
0.8000 0.0354 0.0000
0.8000 0.0404 0.0000
0.8000 0.0455 0.0000
0.8000 0.0505 0.0000
0.8000 0.0556 0.0000
0.8000 0.0606 0.0000
0.8000 0.0657 0.0000
0.8000 0.0707 0.0000
0.8000 0.0758 0.0000
0.8000 0.0808 0.0000
0.8000 0.0859 0.0000
0.8000 0.0909 0.0000
0.8000 0.0960 0.0000
0.8000 0.1010 0.0000
0.8000 0.1061 0.0000
0.8000 0.1111 0.0000
0.8000 0.1162 0.0000
0.8000 0.1212 0.0000
0.8000 0.1263 0.0000
0.8000 0.1313 0.0000
0.8000 0.1364 0.0000
0.8000 0.1414 0.0000
0.8000 0.1465 0.0000
0.8000 0.1515 0.0000
0.8000 0.1566 0.0000
0.8000 0.1616 0.0000
0.8000 0.1667 0.0000
0.8000 0.1717 0.0000
0.8000 0.1768 0.0000
0.8000 0.1818 0.0000
0.8000 0.1869 0.0000
0.8000 0.1919 0.0000
0.8000 0.1970 0.0000
0.8000 0.2020 0.0000
0.8000 0.2071 0.0000
0.8000 0.2121 0.0000
0.8000 0.2172 0.0000
0.8000 0.2222 0.0000
0.8000 0.2273 0.0000
0.8000 0.2323 0.0000
0.8000 0.2374 0.0000
0.8000 0.2424 0.0000
0.8000 0.2475 0.0000
0.8000 0.2525 0.0000
0.8000 0.2576 0.0000
0.8000 0.2626 0.0000
0.8000 0.2677 0.0000
0.8000 0.2727 0.0000
0.8000 0.2778 0.0000
0.8000 0.2828 0.0000
0.8000 0.2879 0.0000
0.8000 0.2929 0.0000
0.8000 0.2980 0.0000
0.8000 0.3030 0.0000
0.8000 0.3081 0.0000
0.8000 0.3131 0.0000
0.8000 0.3182 0.0000
0.8000 0.3232 0.0000
0.8000 0.3283 0.0000
0.8000 0.3333 0.0000
0.8000 0.3384 0.0000
0.8000 0.3434 0.0000
0.8000 0.3485 0.0000
0.8000 0.3535 0.0000
0.8000 0.3586 0.0000
0.8000 0.3636 0.0000
0.8000 0.3687 0.0000
0.8000 0.3737 0.0000
0.8000 0.3788 0.0000
0.8000 0.3838 0.0000
0.8000 0.3889 0.0000
0.8000 0.3939 0.0000
0.8000 0.3990 0.0000
0.8000 0.4040 0.0000
0.8000 0.4091 0.0000
0.8000 0.4141 0.0000
0.8000 0.4192 0.0000
0.8000 0.4242 0.0000
0.8000 0.4293 0.0000
0.8000 0.4343 0.0000
0.8000 0.4394 0.0000
0.8000 0.4444 0.0000
0.8000 0.4495 0.0000
0.8000 0.4545 0.0000
0.8000 0.4596 0.0000
0.8000 0.4646 0.0000
0.8000 0.4697 0.0000
0.8000 0.4747 0.0000
0.8000 0.4798 0.0000
0.8000 0.4848 0.0000
0.8000 0.4899 0.0000
0.8000 0.4949 0.0000
0.8000 0.5000 0.0000
0.8208 0.0000 0.0000
0.8208 0.0051 0.0000
0.8208 0.0101 0.0000
0.8208 0.0152 0.0000
0.8208 0.0202 0.0000
0.8208 0.0253 0.0000
0.8208 0.0303 0.0000
0.8208 0.0354 0.0000
0.8208 0.0404 0.0000
0.8208 0.0455 0.0000
0.8208 0.0505 0.0000
0.8208 0.0556 0.0000
0.8208 0.0606 0.0000
0.8208 0.0657 0.0000
0.8208 0.0707 0.0000
0.8208 0.0758 0.0000
0.8208 0.0808 0.0000
0.8208 0.0859 0.0000
0.8208 0.0909 0.0000
0.8208 0.0960 0.0000
0.8208 0.1010 0.0000
0.8208 0.1061 0.0000
0.8208 0.1111 0.0000
0.8208 0.1162 0.0000
0.8208 0.1212 0.0000
0.8208 0.1263 0.0000
0.8208 0.1313 0.0000
0.8208 0.1364 0.0000
0.8208 0.1414 0.0000
0.8208 0.1465 0.0000
0.8208 0.1515 0.0000
0.8208 0.1566 0.0000
0.8208 0.1616 0.0000
0.8208 0.1667 0.0000
0.8208 0.1717 0.0000
0.8208 0.1768 0.0000
0.8208 0.1818 0.0000
0.8208 0.1869 0.0000
0.8208 0.1919 0.0000
0.8208 0.1970 0.0000
0.8208 0.2020 0.0000
0.8208 0.2071 0.0000
0.8208 0.2121 0.0000
0.8208 0.2172 0.0000
0.8208 0.2222 0.0000
0.8208 0.2273 0.0000
0.8208 0.2323 0.0000
0.8208 0.2374 0.0000
0.8208 0.2424 0.0000
0.8208 0.2475 0.0000
0.8208 0.2525 0.0000
0.8208 0.2576 0.0000
0.8208 0.2626 0.0000
0.8208 0.2677 0.0000
0.8208 0.2727 0.0000
0.8208 0.2778 0.0000
0.8208 0.2828 0.0000
0.8208 0.2879 0.0000
0.8208 0.2929 0.0000
0.8208 0.2980 0.0000
0.8208 0.3030 0.0000
0.8208 0.3081 0.0000
0.8208 0.3131 0.0000
0.8208 0.3182 0.0000
0.8208 0.3232 0.0000
0.8208 0.3283 0.0000
0.8208 0.3333 0.0000
0.8208 0.3384 0.0000
0.8208 0.3434 0.0000
0.8208 0.3485 0.0000
0.8208 0.3535 0.0000
0.8208 0.3586 0.0000
0.8208 0.3636 0.0000
0.8208 0.3687 0.0000
0.8208 0.3737 0.0000
0.8208 0.3788 0.0000
0.8208 0.3838 0.0000
0.8208 0.3889 0.0000
0.8208 0.3939 0.0000
0.8208 0.3990 0.0000
0.8208 0.4040 0.0000
0.8208 0.4091 0.0000
0.8208 0.4141 0.0000
0.8208 0.4192 0.0000
0.8208 0.4242 0.0000
0.8208 0.4293 0.0000
0.8208 0.4343 0.0000
0.8208 0.4394 0.0000
0.8208 0.4444 0.0000
0.8208 0.4495 0.0000
0.8208 0.4545 0.0000
0.8208 0.4596 0.0000
0.8208 0.4646 0.0000
0.8208 0.4697 0.0000
0.8208 0.4747 0.0000
0.8208 0.4798 0.0000
0.8208 0.4848 0.0000
0.8208 0.4899 0.0000
0.8208 0.4949 0.0000
0.8208 0.5000 0.0000
0.8417 0.0000 0.0000
0.8417 0.0051 0.0000
0.8417 0.0101 0.0000
0.8417 0.0152 0.0000
0.8417 0.0202 0.0000
0.8417 0.0253 0.0000
0.8417 0.0303 0.0000
0.8417 0.0354 0.0000
0.8417 0.0404 0.0000
0.8417 0.0455 0.0000
0.8417 0.0505 0.0000
0.8417 0.0556 0.0000
0.8417 0.0606 0.0000
0.8417 0.0657 0.0000
0.8417 0.0707 0.0000
0.8417 0.0758 0.0000
0.8417 0.0808 0.0000
0.8417 0.0859 0.0000
0.8417 0.0909 0.0000
0.8417 0.0960 0.0000
0.8417 0.1010 0.0000
0.8417 0.1061 0.0000
0.8417 0.1111 0.0000
0.8417 0.1162 0.0000
0.8417 0.1212 0.0000
0.8417 0.1263 0.0000
0.8417 0.1313 0.0000
0.8417 0.1364 0.0000
0.8417 0.1414 0.0000
0.8417 0.1465 0.0000
0.8417 0.1515 0.0000
0.8417 0.1566 0.0000
0.8417 0.1616 0.0000
0.8417 0.1667 0.0000
0.8417 0.1717 0.0000
0.8417 0.1768 0.0000
0.8417 0.1818 0.0000
0.8417 0.1869 0.0000
0.8417 0.1919 0.0000
0.8417 0.1970 0.0000
0.8417 0.2020 0.0000
0.8417 0.2071 0.0000
0.8417 0.2121 0.0000
0.8417 0.2172 0.0000
0.8417 0.2222 0.0000
0.8417 0.2273 0.0000
0.8417 0.2323 0.0000
0.8417 0.2374 0.0000
0.8417 0.2424 0.0000
0.8417 0.2475 0.0000
0.8417 0.2525 0.0000
0.8417 0.2576 0.0000
0.8417 0.2626 0.0000
0.8417 0.2677 0.0000
0.8417 0.2727 0.0000
0.8417 0.2778 0.0000
0.8417 0.2828 0.0000
0.8417 0.2879 0.0000
0.8417 0.2929 0.0000
0.8417 0.2980 0.0000
0.8417 0.3030 0.0000
0.8417 0.3081 0.0000
0.8417 0.3131 0.0000
0.8417 0.3182 0.0000
0.8417 0.3232 0.0000
0.8417 0.3283 0.0000
0.8417 0.3333 0.0000
0.8417 0.3384 0.0000
0.8417 0.3434 0.0000
0.8417 0.3485 0.0000
0.8417 0.3535 0.0000
0.8417 0.3586 0.0000
0.8417 0.3636 0.0000
0.8417 0.3687 0.0000
0.8417 0.3737 0.0000
0.8417 0.3788 0.0000
0.8417 0.3838 0.0000
0.8417 0.3889 0.0000
0.8417 0.3939 0.0000
0.8417 0.3990 0.0000
0.8417 0.4040 0.0000
0.8417 0.4091 0.0000
0.8417 0.4141 0.0000
0.8417 0.4192 0.0000
0.8417 0.4242 0.0000
0.8417 0.4293 0.0000
0.8417 0.4343 0.0000
0.8417 0.4394 0.0000
0.8417 0.4444 0.0000
0.8417 0.4495 0.0000
0.8417 0.4545 0.0000
0.8417 0.4596 0.0000
0.8417 0.4646 0.0000
0.8417 0.4697 0.0000
0.8417 0.4747 0.0000
0.8417 0.4798 0.0000
0.8417 0.4848 0.0000
0.8417 0.4899 0.0000
0.8417 0.4949 0.0000
0.8417 0.5000 0.0000
0.8625 0.0000 0.0000
0.8625 0.0051 0.0000
0.8625 0.0101 0.0000
0.8625 0.0152 0.0000
0.8625 0.0202 0.0000
0.8625 0.0253 0.0000
0.8625 0.0303 0.0000
0.8625 0.0354 0.0000
0.8625 0.0404 0.0000
0.8625 0.0455 0.0000
0.8625 0.0505 0.0000
0.8625 0.0556 0.0000
0.8625 0.0606 0.0000
0.8625 0.0657 0.0000
0.8625 0.0707 0.0000
0.8625 0.0758 0.0000
0.8625 0.0808 0.0000
0.8625 0.0859 0.0000
0.8625 0.0909 0.0000
0.8625 0.0960 0.0000
0.8625 0.1010 0.0000
0.8625 0.1061 0.0000
0.8625 0.1111 0.0000
0.8625 0.1162 0.0000
0.8625 0.1212 0.0000
0.8625 0.1263 0.0000
0.8625 0.1313 0.0000
0.8625 0.1364 0.0000
0.8625 0.1414 0.0000
0.8625 0.1465 0.0000
0.8625 0.1515 0.0000
0.8625 0.1566 0.0000
0.8625 0.1616 0.0000
0.8625 0.1667 0.0000
0.8625 0.1717 0.0000
0.8625 0.1768 0.0000
0.8625 0.1818 0.0000
0.8625 0.1869 0.0000
0.8625 0.1919 0.0000
0.8625 0.1970 0.0000
0.8625 0.2020 0.0000
0.8625 0.2071 0.0000
0.8625 0.2121 0.0000
0.8625 0.2172 0.0000
0.8625 0.2222 0.0000
0.8625 0.2273 0.0000
0.8625 0.2323 0.0000
0.8625 0.2374 0.0000
0.8625 0.2424 0.0000
0.8625 0.2475 0.0000
0.8625 0.2525 0.0000
0.8625 0.2576 0.0000
0.8625 0.2626 0.0000
0.8625 0.2677 0.0000
0.8625 0.2727 0.0000
0.8625 0.2778 0.0000
0.8625 0.2828 0.0000
0.8625 0.2879 0.0000
0.8625 0.2929 0.0000
0.8625 0.2980 0.0000
0.8625 0.3030 0.0000
0.8625 0.3081 0.0000
0.8625 0.3131 0.0000
0.8625 0.3182 0.0000
0.8625 0.3232 0.0000
0.8625 0.3283 0.0000
0.8625 0.3333 0.0000
0.8625 0.3384 0.0000
0.8625 0.3434 0.0000
0.8625 0.3485 0.0000
0.8625 0.3535 0.0000
0.8625 0.3586 0.0000
0.8625 0.3636 0.0000
0.8625 0.3687 0.0000
0.8625 0.3737 0.0000
0.8625 0.3788 0.0000
0.8625 0.3838 0.0000
0.8625 0.3889 0.0000
0.8625 0.3939 0.0000
0.8625 0.3990 0.0000
0.8625 0.4040 0.0000
0.8625 0.4091 0.0000
0.8625 0.4141 0.0000
0.8625 0.4192 0.0000
0.8625 0.4242 0.0000
0.8625 0.4293 0.0000
0.8625 0.4343 0.0000
0.8625 0.4394 0.0000
0.8625 0.4444 0.0000
0.8625 0.4495 0.0000
0.8625 0.4545 0.0000
0.8625 0.4596 0.0000
0.8625 0.4646 0.0000
0.8625 0.4697 0.0000
0.8625 0.4747 0.0000
0.8625 0.4798 0.0000
0.8625 0.4848 0.0000
0.8625 0.4899 0.0000
0.8625 0.4949 0.0000
0.8625 0.5000 0.0000
0.8833 0.0000 0.0000
0.8833 0.0051 0.0000
0.8833 0.0101 0.0000
0.8833 0.0152 0.0000
0.8833 0.0202 0.0000
0.8833 0.0253 0.0000
0.8833 0.0303 0.0000
0.8833 0.0354 0.0000
0.8833 0.0404 0.0000
0.8833 0.0455 0.0000
0.8833 0.0505 0.0000
0.8833 0.0556 0.0000
0.8833 0.0606 0.0000
0.8833 0.0657 0.0000
0.8833 0.0707 0.0000
0.8833 0.0758 0.0000
0.8833 0.0808 0.0000
0.8833 0.0859 0.0000
0.8833 0.0909 0.0000
0.8833 0.0960 0.0000
0.8833 0.1010 0.0000
0.8833 0.1061 0.0000
0.8833 0.1111 0.0000
0.8833 0.1162 0.0000
0.8833 0.1212 0.0000
0.8833 0.1263 0.0000
0.8833 0.1313 0.0000
0.8833 0.1364 0.0000
0.8833 0.1414 0.0000
0.8833 0.1465 0.0000
0.8833 0.1515 0.0000
0.8833 0.1566 0.0000
0.8833 0.1616 0.0000
0.8833 0.1667 0.0000
0.8833 0.1717 0.0000
0.8833 0.1768 0.0000
0.8833 0.1818 0.0000
0.8833 0.1869 0.0000
0.8833 0.1919 0.0000
0.8833 0.1970 0.0000
0.8833 0.2020 0.0000
0.8833 0.2071 0.0000
0.8833 0.2121 0.0000
0.8833 0.2172 0.0000
0.8833 0.2222 0.0000
0.8833 0.2273 0.0000
0.8833 0.2323 0.0000
0.8833 0.2374 0.0000
0.8833 0.2424 0.0000
0.8833 0.2475 0.0000
0.8833 0.2525 0.0000
0.8833 0.2576 0.0000
0.8833 0.2626 0.0000
0.8833 0.2677 0.0000
0.8833 0.2727 0.0000
0.8833 0.2778 0.0000
0.8833 0.2828 0.0000
0.8833 0.2879 0.0000
0.8833 0.2929 0.0000
0.8833 0.2980 0.0000
0.8833 0.3030 0.0000
[...]
         <PointData>
            <DataArray Name="fValues" NumberOfComponents="2" format="ascii" type="Float64">
 9.06680e+00  1.35519e+01 
 8.85965e+00  1.35248e+01 
 8.65400e+00  1.34984e+01 
 8.44976e+00  1.34724e+01 
 8.24695e+00  1.34471e+01 
 8.04548e+00  1.34223e+01 
 7.84539e+00  1.33980e+01 
 7.64658e+00  1.33743e+01 
 7.44909e+00  1.33511e+01 
 7.25281e+00  1.33285e+01 
 7.05780e+00  1.33064e+01 
 6.86393e+00  1.32849e+01 
 6.67127e+00  1.32639e+01 
 6.47971e+00  1.32435e+01 
 6.28929e+00  1.32237e+01 
 6.09990e+00  1.32043e+01 
 5.91159e+00  1.31856e+01 
 5.72426e+00  1.31674e+01 
 5.53794e+00  1.31497e+01 
 5.35255e+00  1.31326e+01 
 5.16811e+00  1.31160e+01 
 4.98453e+00  1.31000e+01 
 4.80185e+00  1.30846e+01 
 4.61997e+00  1.30697e+01 
 4.43893e+00  1.30553e+01 
 4.25863e+00  1.30415e+01 
 4.07910e+00  1.30283e+01 
 3.90025e+00  1.30156e+01 
 3.72212e+00  1.30034e+01 
 3.54461e+00  1.29918e+01 
 3.36776e+00  1.29808e+01 
 3.19147e+00  1.29703e+01 
 3.01577e+00  1.29603e+01 
 2.84057e+00  1.29509e+01 
 2.66591e+00  1.29421e+01 
 2.49169e+00  1.29338e+01 
 2.31794e+00  1.29261e+01 
 2.14457e+00  1.29189e+01 
 1.97162e+00  1.29123e+01 
 1.79898e+00  1.29062e+01 
 1.62670e+00  1.29007e+01 
 1.45467e+00  1.28957e+01 
 1.28294e+00  1.28913e+01 
 1.11140e+00  1.28874e+01 
 9.40096e-01  1.28841e+01 
 7.68925e-01  1.28813e+01 
 5.97925e-01  1.28791e+01 
 4.26998e-01  1.28775e+01 
 2.56182e-01  1.28764e+01 
 8.53776e-02  1.28758e+01 
-8.53776e-02  1.28758e+01 
-2.56182e-01  1.28764e+01 
-4.26998e-01  1.28775e+01 
-5.97925e-01  1.28791e+01 
-7.68925e-01  1.28813e+01 
-9.40096e-01  1.28841e+01 
-1.11140e+00  1.28874e+01 
-1.28294e+00  1.28913e+01 
-1.45467e+00  1.28957e+01 
-1.62670e+00  1.29007e+01 
-1.79898e+00  1.29062e+01 
-1.97162e+00  1.29123e+01 
-2.14457e+00  1.29189e+01 
-2.31794e+00  1.29261e+01 
-2.49169e+00  1.29338e+01 
-2.66591e+00  1.29421e+01 
-2.84057e+00  1.29509e+01 
-3.01577e+00  1.29603e+01 
-3.19147e+00  1.29703e+01 
-3.36776e+00  1.29808e+01 
-3.54461e+00  1.29918e+01 
-3.72212e+00  1.30034e+01 
-3.90025e+00  1.30156e+01 
-4.07910e+00  1.30283e+01 
-4.25863e+00  1.30415e+01 
-4.43893e+00  1.30553e+01 
-4.61997e+00  1.30697e+01 
-4.80185e+00  1.30846e+01 
-4.98453e+00  1.31000e+01 
-5.16811e+00  1.31160e+01 
-5.35255e+00  1.31326e+01 
-5.53794e+00  1.31497e+01 
-5.72426e+00  1.31674e+01 
-5.91159e+00  1.31856e+01 
-6.09990e+00  1.32043e+01 
-6.28929e+00  1.32237e+01 
-6.47971e+00  1.32435e+01 
-6.67127e+00  1.32639e+01 
-6.86393e+00  1.32849e+01 
-7.05780e+00  1.33064e+01 
-7.25281e+00  1.33285e+01 
-7.44909e+00  1.33511e+01 
-7.64658e+00  1.33743e+01 
-7.84539e+00  1.33980e+01 
-8.04548e+00  1.34223e+01 
-8.24695e+00  1.34471e+01 
-8.44976e+00  1.34724e+01 
-8.65400e+00  1.34984e+01 
-8.85965e+00  1.35248e+01 
-9.06680e+00  1.35519e+01 
 9.31134e+00  1.44196e+01 
 9.09925e+00  1.43937e+01 
 8.88866e+00  1.43684e+01 
 8.67948e+00  1.43435e+01 
 8.47173e+00  1.43192e+01 
 8.26532e+00  1.42954e+01 
 8.06030e+00  1.42721e+01 
 7.85655e+00  1.42494e+01 
 7.65412e+00  1.42272e+01 
 7.45290e+00  1.42055e+01 
 7.25295e+00  1.41844e+01 
 7.05415e+00  1.41638e+01 
 6.85655e+00  1.41437e+01 
 6.66005e+00  1.41241e+01 
 6.46469e+00  1.41051e+01 
 6.27036e+00  1.40866e+01 
 6.07712e+00  1.40686e+01 
 5.88484e+00  1.40512e+01 
 5.69359e+00  1.40342e+01 
 5.50326e+00  1.40179e+01 
 5.31389e+00  1.40020e+01 
 5.12537e+00  1.39867e+01 
 4.93775e+00  1.39719e+01 
 4.75093e+00  1.39576e+01 
 4.56495e+00  1.39438e+01 
 4.37970e+00  1.39306e+01 
 4.19524e+00  1.39179e+01 
 4.01145e+00  1.39058e+01 
 3.82838e+00  1.38942e+01 
 3.64593e+00  1.38831e+01 
 3.46414e+00  1.38725e+01 
 3.28290e+00  1.38624e+01 
 3.10226e+00  1.38529e+01 
 2.92212e+00  1.38439e+01 
 2.74252e+00  1.38355e+01 
 2.56336e+00  1.38276e+01 
 2.38467e+00  1.38202e+01 
 2.20636e+00  1.38133e+01 
 2.02846e+00  1.38069e+01 
 1.85088e+00  1.38011e+01 
 1.67366e+00  1.37958e+01 
 1.49669e+00  1.37911e+01 
 1.32001e+00  1.37869e+01 
 1.14353e+00  1.37832e+01 
 9.67282e-01  1.37800e+01 
 7.91167e-01  1.37774e+01 
 6.15225e-01  1.37752e+01 
 4.39355e-01  1.37737e+01 
 2.63597e-01  1.37726e+01 
 8.78488e-02  1.37721e+01 
-8.78488e-02  1.37721e+01 
-2.63597e-01  1.37726e+01 
-4.39355e-01  1.37737e+01 
-6.15225e-01  1.37752e+01 
-7.91167e-01  1.37774e+01 
-9.67282e-01  1.37800e+01 
-1.14353e+00  1.37832e+01 
-1.32001e+00  1.37869e+01 
-1.49669e+00  1.37911e+01 
-1.67366e+00  1.37958e+01 
-1.85088e+00  1.38011e+01 
-2.02846e+00  1.38069e+01 
-2.20636e+00  1.38133e+01 
-2.38467e+00  1.38202e+01 
-2.56336e+00  1.38276e+01 
-2.74252e+00  1.38355e+01 
-2.92212e+00  1.38439e+01 
-3.10226e+00  1.38529e+01 
-3.28290e+00  1.38624e+01 
-3.46414e+00  1.38725e+01 
-3.64593e+00  1.38831e+01 
-3.82838e+00  1.38942e+01 
-4.01145e+00  1.39058e+01 
-4.19524e+00  1.39179e+01 
-4.37970e+00  1.39306e+01 
-4.56495e+00  1.39438e+01 
-4.75093e+00  1.39576e+01 
-4.93775e+00  1.39719e+01 
-5.12537e+00  1.39867e+01 
-5.31389e+00  1.40020e+01 
-5.50326e+00  1.40179e+01 
-5.69359e+00  1.40342e+01 
-5.88484e+00  1.40512e+01 
-6.07712e+00  1.40686e+01 
-6.27036e+00  1.40866e+01 
-6.46469e+00  1.41051e+01 
-6.66005e+00  1.41241e+01 
-6.85655e+00  1.41437e+01 
-7.05415e+00  1.41638e+01 
-7.25295e+00  1.41844e+01 
-7.45290e+00  1.42055e+01 
-7.65412e+00  1.42272e+01 
-7.85655e+00  1.42494e+01 
-8.06030e+00  1.42721e+01 
-8.26532e+00  1.42954e+01 
-8.47173e+00  1.43192e+01 
-8.67948e+00  1.43435e+01 
-8.88866e+00  1.43684e+01 
-9.09925e+00  1.43937e+01 
-9.31134e+00  1.44196e+01 
 9.54550e+00  1.53074e+01 
 9.32868e+00  1.52826e+01 
 9.11337e+00  1.52583e+01 
 8.89946e+00  1.52345e+01 
 8.68698e+00  1.52113e+01 
 8.47585e+00  1.51885e+01 
 8.26609e+00  1.51663e+01 
 8.05761e+00  1.51445e+01 
 7.85045e+00  1.51233e+01 
 7.64450e+00  1.51026e+01 
 7.43982e+00  1.50823e+01 
 7.23629e+00  1.50626e+01 
 7.03396e+00  1.50434e+01 
 6.83273e+00  1.50247e+01 
 6.63263e+00  1.50065e+01 
 6.43357e+00  1.49888e+01 
 6.23560e+00  1.49716e+01 
 6.03859e+00  1.49549e+01 
 5.84261e+00  1.49388e+01 
 5.64754e+00  1.49231e+01 
 5.45343e+00  1.49079e+01 
 5.26018e+00  1.48933e+01 
 5.06783e+00  1.48791e+01 
 4.87628e+00  1.48655e+01 
 4.68556e+00  1.48524e+01 
 4.49558e+00  1.48397e+01 
 4.30639e+00  1.48276e+01 
 4.11787e+00  1.48160e+01 
 3.93007e+00  1.48049e+01 
 3.74288e+00  1.47943e+01 
 3.55636e+00  1.47842e+01 
 3.37039e+00  1.47746e+01 
 3.18502e+00  1.47655e+01 
 3.00015e+00  1.47569e+01 
 2.81582e+00  1.47489e+01 
 2.63192e+00  1.47413e+01 
 2.44850e+00  1.47342e+01 
 2.26546e+00  1.47277e+01 
 2.08284e+00  1.47216e+01 
 1.90053e+00  1.47161e+01 
 1.71857e+00  1.47110e+01 
 1.53688e+00  1.47065e+01 
 1.35547e+00  1.47024e+01 
 1.17426e+00  1.46989e+01 
 9.93287e-01  1.46959e+01 
 8.12443e-01  1.46934e+01 
 6.31774e-01  1.46914e+01 
 4.51175e-01  1.46898e+01 
 2.70689e-01  1.46888e+01 
 9.02126e-02  1.46883e+01 
-9.02126e-02  1.46883e+01 
-2.70689e-01  1.46888e+01 
-4.51175e-01  1.46898e+01 
-6.31774e-01  1.46914e+01 
-8.12443e-01  1.46934e+01 
-9.93287e-01  1.46959e+01 
-1.17426e+00  1.46989e+01 
-1.35547e+00  1.47024e+01 
-1.53688e+00  1.47065e+01 
-1.71857e+00  1.47110e+01 
-1.90053e+00  1.47161e+01 
-2.08284e+00  1.47216e+01 
-2.26546e+00  1.47277e+01 
-2.44850e+00  1.47342e+01 
-2.63192e+00  1.47413e+01 
-2.81582e+00  1.47489e+01 
-3.00015e+00  1.47569e+01 
-3.18502e+00  1.47655e+01 
-3.37039e+00  1.47746e+01 
-3.55636e+00  1.47842e+01 
-3.74288e+00  1.47943e+01 
-3.93007e+00  1.48049e+01 
-4.11787e+00  1.48160e+01 
-4.30639e+00  1.48276e+01 
-4.49558e+00  1.48397e+01 
-4.68556e+00  1.48524e+01 
-4.87628e+00  1.48655e+01 
-5.06783e+00  1.48791e+01 
-5.26018e+00  1.48933e+01 
-5.45343e+00  1.49079e+01 
-5.64754e+00  1.49231e+01 
-5.84261e+00  1.49388e+01 
-6.03859e+00  1.49549e+01 
-6.23560e+00  1.49716e+01 
-6.43357e+00  1.49888e+01 
-6.63263e+00  1.50065e+01 
-6.83273e+00  1.50247e+01 
-7.03396e+00  1.50434e+01 
-7.23629e+00  1.50626e+01 
-7.43982e+00  1.50823e+01 
-7.64450e+00  1.51026e+01 
-7.85045e+00  1.51233e+01 
-8.05761e+00  1.51445e+01 
-8.26609e+00  1.51663e+01 
-8.47585e+00  1.51885e+01 
-8.68698e+00  1.52113e+01 
-8.89946e+00  1.52345e+01 
-9.11337e+00  1.52583e+01 
-9.32868e+00  1.52826e+01 
-9.54550e+00  1.53074e+01 
 9.76927e+00  1.62141e+01 
 9.54794e+00  1.61905e+01 
 9.32811e+00  1.61673e+01 
 9.10968e+00  1.61446e+01 
 8.89269e+00  1.61224e+01 
 8.67703e+00  1.61007e+01 
 8.46275e+00  1.60794e+01 
 8.24975e+00  1.60587e+01 
 8.03807e+00  1.60384e+01 
 7.82760e+00  1.60186e+01 
 7.61839e+00  1.59993e+01 
 7.41034e+00  1.59805e+01 
 7.20348e+00  1.59621e+01 
 6.99772e+00  1.59443e+01 
 6.79310e+00  1.59269e+01 
 6.58952e+00  1.59100e+01 
 6.38701e+00  1.58936e+01 
 6.18548e+00  1.58777e+01 
 5.98497e+00  1.58623e+01 
 5.78537e+00  1.58473e+01 
 5.58674e+00  1.58329e+01 
 5.38896e+00  1.58189e+01 
 5.19209e+00  1.58054e+01 
 4.99600e+00  1.57924e+01 
 4.80076e+00  1.57799e+01 
 4.60626e+00  1.57679e+01 
 4.41254e+00  1.57563e+01 
 4.21949e+00  1.57452e+01 
 4.02717e+00  1.57346e+01 
 3.83546e+00  1.57245e+01 
 3.64442e+00  1.57149e+01 
 3.45393e+00  1.57058e+01 
 3.26404e+00  1.56971e+01 
 3.07465e+00  1.56890e+01 
 2.88579e+00  1.56813e+01 
 2.69738e+00  1.56741e+01 
 2.50944e+00  1.56673e+01 
 2.32188e+00  1.56611e+01 
 2.13474e+00  1.56553e+01 
 1.94792e+00  1.56501e+01 
 1.76145e+00  1.56452e+01 
 1.57523e+00  1.56409e+01 
 1.38932e+00  1.56371e+01 
 1.20359e+00  1.56337e+01 
 1.01810e+00  1.56308e+01 
 8.32748e-01  1.56285e+01 
 6.47566e-01  1.56265e+01 
 4.62455e-01  1.56251e+01 
 2.77457e-01  1.56241e+01 
 9.24683e-02  1.56237e+01 
-9.24683e-02  1.56237e+01 
-2.77457e-01  1.56241e+01 
-4.62455e-01  1.56251e+01 
-6.47566e-01  1.56265e+01 
-8.32748e-01  1.56285e+01 
-1.01810e+00  1.56308e+01 
-1.20359e+00  1.56337e+01 
-1.38932e+00  1.56371e+01 
-1.57523e+00  1.56409e+01 
-1.76145e+00  1.56452e+01 
-1.94792e+00  1.56501e+01 
-2.13474e+00  1.56553e+01 
-2.32188e+00  1.56611e+01 
-2.50944e+00  1.56673e+01 
-2.69738e+00  1.56741e+01 
-2.88579e+00  1.56813e+01 
-3.07465e+00  1.56890e+01 
-3.26404e+00  1.56971e+01 
-3.45393e+00  1.57058e+01 
-3.64442e+00  1.57149e+01 
-3.83546e+00  1.57245e+01 
-4.02717e+00  1.57346e+01 
-4.21949e+00  1.57452e+01 
-4.41254e+00  1.57563e+01 
-4.60626e+00  1.57679e+01 
-4.80076e+00  1.57799e+01 
-4.99600e+00  1.57924e+01 
-5.19209e+00  1.58054e+01 
-5.38896e+00  1.58189e+01 
-5.58674e+00  1.58329e+01 
-5.78537e+00  1.58473e+01 
-5.98497e+00  1.58623e+01 
-6.18548e+00  1.58777e+01 
-6.38701e+00  1.58936e+01 
-6.58952e+00  1.59100e+01 
-6.79310e+00  1.59269e+01 
-6.99772e+00  1.59443e+01 
-7.20348e+00  1.59621e+01 
-7.41034e+00  1.59805e+01 
-7.61839e+00  1.59993e+01 
-7.82760e+00  1.60186e+01 
-8.03807e+00  1.60384e+01 
-8.24975e+00  1.60587e+01 
-8.46275e+00  1.60794e+01 
-8.67703e+00  1.61007e+01 
-8.89269e+00  1.61224e+01 
-9.10968e+00  1.61446e+01 
-9.32811e+00  1.61673e+01 
-9.54794e+00  1.61905e+01 
-9.76927e+00  1.62141e+01 
 9.98267e+00  1.71391e+01 
 9.75703e+00  1.71165e+01 
 9.53290e+00  1.70945e+01 
 9.31016e+00  1.70728e+01 
 9.08886e+00  1.70517e+01 
 8.86889e+00  1.70310e+01 
 8.65030e+00  1.70108e+01 
 8.43298e+00  1.69910e+01 
 8.21699e+00  1.69717e+01 
 8.00220e+00  1.69528e+01 
 7.78868e+00  1.69344e+01 
 7.57630e+00  1.69165e+01 
 7.36513e+00  1.68991e+01 
 7.15505e+00  1.68821e+01 
 6.94611e+00  1.68655e+01 
 6.73820e+00  1.68495e+01 
 6.53137e+00  1.68338e+01 
 6.32551e+00  1.68187e+01 
 6.12068e+00  1.68040e+01 
 5.91676e+00  1.67898e+01 
 5.71381e+00  1.67760e+01 
 5.51171e+00  1.67627e+01 
 5.31051e+00  1.67499e+01 
 5.11011e+00  1.67375e+01 
 4.91055e+00  1.67256e+01 
 4.71172e+00  1.67142e+01 
 4.51368e+00  1.67032e+01 
 4.31632e+00  1.66927e+01 
 4.11968e+00  1.66826e+01 
 3.92366e+00  1.66730e+01 
 3.72830e+00  1.66639e+01 
 3.53350e+00  1.66552e+01 
 3.33930e+00  1.66470e+01 
 3.14560e+00  1.66392e+01 
 2.95244e+00  1.66319e+01 
 2.75972e+00  1.66251e+01 
 2.56748e+00  1.66187e+01 
 2.37561e+00  1.66128e+01 
 2.18417e+00  1.66073e+01 
 1.99304e+00  1.66023e+01 
 1.80227e+00  1.65977e+01 
 1.61176e+00  1.65936e+01 
 1.42154e+00  1.65900e+01 
 1.23152e+00  1.65868e+01 
 1.04173e+00  1.65841e+01 
 8.52078e-01  1.65818e+01 
 6.62601e-01  1.65800e+01 
 4.73193e-01  1.65786e+01 
 2.83900e-01  1.65777e+01 
 9.46157e-02  1.65772e+01 
-9.46157e-02  1.65772e+01 
-2.83900e-01  1.65777e+01 
-4.73193e-01  1.65786e+01 
-6.62601e-01  1.65800e+01 
-8.52078e-01  1.65818e+01 
-1.04173e+00  1.65841e+01 
-1.23152e+00  1.65868e+01 
-1.42154e+00  1.65900e+01 
-1.61176e+00  1.65936e+01 
-1.80227e+00  1.65977e+01 
-1.99304e+00  1.66023e+01 
-2.18417e+00  1.66073e+01 
-2.37561e+00  1.66128e+01 
-2.56748e+00  1.66187e+01 
-2.75972e+00  1.66251e+01 
-2.95244e+00  1.66319e+01 
-3.14560e+00  1.66392e+01 
-3.33930e+00  1.66470e+01 
-3.53350e+00  1.66552e+01 
-3.72830e+00  1.66639e+01 
-3.92366e+00  1.66730e+01 
-4.11968e+00  1.66826e+01 
-4.31632e+00  1.66927e+01 
-4.51368e+00  1.67032e+01 
-4.71172e+00  1.67142e+01 
-4.91055e+00  1.67256e+01 
-5.11011e+00  1.67375e+01 
-5.31051e+00  1.67499e+01 
-5.51171e+00  1.67627e+01 
-5.71381e+00  1.67760e+01 
-5.91676e+00  1.67898e+01 
-6.12068e+00  1.68040e+01 
-6.32551e+00  1.68187e+01 
-6.53137e+00  1.68338e+01 
-6.73820e+00  1.68495e+01 
-6.94611e+00  1.68655e+01 
-7.15505e+00  1.68821e+01 
-7.36513e+00  1.68991e+01 
-7.57630e+00  1.69165e+01 
-7.78868e+00  1.69344e+01 
-8.00220e+00  1.69528e+01 
-8.21699e+00  1.69717e+01 
-8.43298e+00  1.69910e+01 
-8.65030e+00  1.70108e+01 
-8.86889e+00  1.70310e+01 
-9.08886e+00  1.70517e+01 
-9.31016e+00  1.70728e+01 
-9.53290e+00  1.70945e+01 
-9.75703e+00  1.71165e+01 
-9.98267e+00  1.71391e+01 
 1.01857e+01  1.80814e+01 
 9.95598e+00  1.80599e+01 
 9.72776e+00  1.80390e+01 
 9.50092e+00  1.80184e+01 
 9.27552e+00  1.79983e+01 
 9.05145e+00  1.79787e+01 
 8.82876e+00  1.79594e+01 
 8.60733e+00  1.79406e+01 
 8.38722e+00  1.79223e+01 
 8.16832e+00  1.79044e+01 
 7.95069e+00  1.78869e+01 
 7.73420e+00  1.78699e+01 
 7.51891e+00  1.78533e+01 
 7.30470e+00  1.78372e+01 
 7.09164e+00  1.78215e+01 
 6.87961e+00  1.78062e+01 
 6.66867e+00  1.77914e+01 
 6.45869e+00  1.77770e+01 
 6.24974e+00  1.77631e+01 
 6.04170e+00  1.77496e+01 
 5.83463e+00  1.77366e+01 
 5.62841e+00  1.77239e+01 
 5.42309e+00  1.77118e+01 
 5.21857e+00  1.77001e+01 
 5.01490e+00  1.76888e+01 
 4.81196e+00  1.76779e+01 
 4.60981e+00  1.76675e+01 
 4.40834e+00  1.76575e+01 
 4.20759e+00  1.76480e+01 
 4.00746e+00  1.76389e+01 
 3.80800e+00  1.76303e+01 
 3.60909e+00  1.76221e+01 
 3.41079e+00  1.76143e+01 
 3.21299e+00  1.76069e+01 
 3.01574e+00  1.76000e+01 
 2.81892e+00  1.75936e+01 
 2.62258e+00  1.75875e+01 
 2.42663e+00  1.75819e+01 
 2.23110e+00  1.75767e+01 
 2.03588e+00  1.75720e+01 
 1.84103e+00  1.75677e+01 
 1.64643e+00  1.75638e+01 
 1.45213e+00  1.75604e+01 
 1.25803e+00  1.75574e+01 
 1.06416e+00  1.75548e+01 
 8.70428e-01  1.75526e+01 
 6.76872e-01  1.75509e+01 
 4.83386e-01  1.75496e+01 
 2.90016e-01  1.75488e+01 
 9.66541e-02  1.75483e+01 
-9.66541e-02  1.75483e+01 
-2.90016e-01  1.75488e+01 
-4.83386e-01  1.75496e+01 
-6.76872e-01  1.75509e+01 
-8.70428e-01  1.75526e+01 
-1.06416e+00  1.75548e+01 
-1.25803e+00  1.75574e+01 
-1.45213e+00  1.75604e+01 
-1.64643e+00  1.75638e+01 
-1.84103e+00  1.75677e+01 
-2.03588e+00  1.75720e+01 
-2.23110e+00  1.75767e+01 
-2.42663e+00  1.75819e+01 
-2.62258e+00  1.75875e+01 
-2.81892e+00  1.75936e+01 
-3.01574e+00  1.76000e+01 
-3.21299e+00  1.76069e+01 
-3.41079e+00  1.76143e+01 
-3.60909e+00  1.76221e+01 
-3.80800e+00  1.76303e+01 
-4.00746e+00  1.76389e+01 
-4.20759e+00  1.76480e+01 
-4.40834e+00  1.76575e+01 
-4.60981e+00  1.76675e+01 
-4.81196e+00  1.76779e+01 
-5.01490e+00  1.76888e+01 
-5.21857e+00  1.77001e+01 
-5.42309e+00  1.77118e+01 
-5.62841e+00  1.77239e+01 
-5.83463e+00  1.77366e+01 
-6.04170e+00  1.77496e+01 
-6.24974e+00  1.77631e+01 
-6.45869e+00  1.77770e+01 
-6.66867e+00  1.77914e+01 
-6.87961e+00  1.78062e+01 
-7.09164e+00  1.78215e+01 
-7.30470e+00  1.78372e+01 
-7.51891e+00  1.78533e+01 
-7.73420e+00  1.78699e+01 
-7.95069e+00  1.78869e+01 
-8.16832e+00  1.79044e+01 
-8.38722e+00  1.79223e+01 
-8.60733e+00  1.79406e+01 
-8.82876e+00  1.79594e+01 
-9.05145e+00  1.79787e+01 
-9.27552e+00  1.79983e+01 
-9.50092e+00  1.80184e+01 
-9.72776e+00  1.80390e+01 
-9.95598e+00  1.80599e+01 
-1.01857e+01  1.80814e+01 
 1.03784e+01  1.90400e+01 
 1.01448e+01  1.90197e+01 
 9.91269e+00  1.89999e+01 
 9.68196e+00  1.89804e+01 
 9.45267e+00  1.89613e+01 
 9.22470e+00  1.89427e+01 
 8.99811e+00  1.89245e+01 
 8.77278e+00  1.89067e+01 
 8.54877e+00  1.88893e+01 
 8.32596e+00  1.88723e+01 
 8.10441e+00  1.88558e+01 
 7.88401e+00  1.88397e+01 
 7.66480e+00  1.88239e+01 
 7.44668e+00  1.88087e+01 
 7.22970e+00  1.87938e+01 
 7.01375e+00  1.87794e+01 
 6.79889e+00  1.87653e+01 
 6.58499e+00  1.87517e+01 
 6.37212e+00  1.87386e+01 
 6.16016e+00  1.87258e+01 
 5.94917e+00  1.87135e+01 
 5.73903e+00  1.87015e+01 
 5.52980e+00  1.86901e+01 
 5.32137e+00  1.86790e+01 
 5.11379e+00  1.86683e+01 
 4.90694e+00  1.86581e+01 
 4.70088e+00  1.86483e+01 
 4.49550e+00  1.86388e+01 
 4.29085e+00  1.86299e+01 
 4.08683e+00  1.86213e+01 
 3.88347e+00  1.86131e+01 
 3.68067e+00  1.86054e+01 
 3.47848e+00  1.85980e+01 
 3.27679e+00  1.85911e+01 
 3.07565e+00  1.85846e+01 
 2.87495e+00  1.85785e+01 
 2.67474e+00  1.85728e+01 
 2.47491e+00  1.85675e+01 
 2.27551e+00  1.85627e+01 
 2.07642e+00  1.85582e+01 
 1.87770e+00  1.85542e+01 
 1.67923e+00  1.85505e+01 
 1.48107e+00  1.85473e+01 
 1.28310e+00  1.85444e+01 
 1.08538e+00  1.85420e+01 
 8.87784e-01  1.85400e+01 
 6.90371e-01  1.85384e+01 
 4.93027e-01  1.85372e+01 
 2.95801e-01  1.85363e+01 
 9.85820e-02  1.85359e+01 
-9.85820e-02  1.85359e+01 
-2.95801e-01  1.85363e+01 
-4.93027e-01  1.85372e+01 
-6.90371e-01  1.85384e+01 
-8.87784e-01  1.85400e+01 
-1.08538e+00  1.85420e+01 
-1.28310e+00  1.85444e+01 
-1.48107e+00  1.85473e+01 
-1.67923e+00  1.85505e+01 
-1.87770e+00  1.85542e+01 
-2.07642e+00  1.85582e+01 
-2.27551e+00  1.85627e+01 
-2.47491e+00  1.85675e+01 
-2.67474e+00  1.85728e+01 
-2.87495e+00  1.85785e+01 
-3.07565e+00  1.85846e+01 
-3.27679e+00  1.85911e+01 
-3.47848e+00  1.85980e+01 
-3.68067e+00  1.86054e+01 
-3.88347e+00  1.86131e+01 
-4.08683e+00  1.86213e+01 
-4.29085e+00  1.86299e+01 
-4.49550e+00  1.86388e+01 
-4.70088e+00  1.86483e+01 
-4.90694e+00  1.86581e+01 
-5.11379e+00  1.86683e+01 
-5.32137e+00  1.86790e+01 
-5.52980e+00  1.86901e+01 
-5.73903e+00  1.87015e+01 
-5.94917e+00  1.87135e+01 
-6.16016e+00  1.87258e+01 
-6.37212e+00  1.87386e+01 
-6.58499e+00  1.87517e+01 
-6.79889e+00  1.87653e+01 
-7.01375e+00  1.87794e+01 
-7.22970e+00  1.87938e+01 
-7.44668e+00  1.88087e+01 
-7.66480e+00  1.88239e+01 
-7.88401e+00  1.88397e+01 
-8.10441e+00  1.88558e+01 
-8.32596e+00  1.88723e+01 
-8.54877e+00  1.88893e+01 
-8.77278e+00  1.89067e+01 
-8.99811e+00  1.89245e+01 
-9.22470e+00  1.89427e+01 
-9.45267e+00  1.89613e+01 
-9.68196e+00  1.89804e+01 
-9.91269e+00  1.89999e+01 
-1.01448e+01  1.90197e+01 
-1.03784e+01  1.90400e+01 
 1.05608e+01  2.00143e+01 
 1.03235e+01  1.99951e+01 
 1.00877e+01  1.99763e+01 
 9.85333e+00  1.99579e+01 
 9.62035e+00  1.99399e+01 
 9.38869e+00  1.99223e+01 
 9.15840e+00  1.99051e+01 
 8.92937e+00  1.98882e+01 
 8.70165e+00  1.98718e+01 
 8.47513e+00  1.98558e+01 
 8.24987e+00  1.98402e+01 
 8.02574e+00  1.98249e+01 
 7.80282e+00  1.98101e+01 
 7.58098e+00  1.97957e+01 
 7.36028e+00  1.97817e+01 
 7.14061e+00  1.97680e+01 
 6.92202e+00  1.97548e+01 
 6.70440e+00  1.97420e+01 
 6.48781e+00  1.97296e+01 
 6.27213e+00  1.97176e+01 
 6.05742e+00  1.97059e+01 
 5.84357e+00  1.96947e+01 
 5.63062e+00  1.96839e+01 
 5.41847e+00  1.96735e+01 
 5.20718e+00  1.96635e+01 
 4.99663e+00  1.96538e+01 
 4.78687e+00  1.96446e+01 
 4.57779e+00  1.96358e+01 
 4.36945e+00  1.96273e+01 
 4.16173e+00  1.96193e+01 
 3.95468e+00  1.96116e+01 
 3.74820e+00  1.96043e+01 
 3.54233e+00  1.95975e+01 
 3.33697e+00  1.95910e+01 
 3.13216e+00  1.95849e+01 
 2.92779e+00  1.95792e+01 