<?xml version="1.0" encoding="utf-8"?>
<VTKFile byte_order="LittleEndian" type="UnstructuredGrid" version="0.1">
   <UnstructuredGrid>
      <Piece NumberOfCells="4704" NumberOfPoints="2426">
         <Points>
            <DataArray Name="Points" NumberOfComponents="3" format="ascii" type="Float32">
0.0000 0.0000 0.0000
0.0000 0.0417 0.0000
0.0000 0.0833 0.0000
0.0000 0.1250 0.0000
0.0000 0.1667 0.0000
0.0000 0.2083 0.0000
0.0000 0.2500 0.0000
0.0000 0.2917 0.0000
0.0000 0.3333 0.0000
0.0000 0.3750 0.0000
0.0000 0.4167 0.0000
0.0000 0.4583 0.0000
0.0000 0.5000 0.0000
0.0000 0.5417 0.0000
0.0000 0.5833 0.0000
0.0000 0.6250 0.0000
0.0000 0.6667 0.0000
0.0000 0.7083 0.0000
0.0000 0.7500 0.0000
0.0000 0.7917 0.0000
0.0000 0.8333 0.0000
0.0000 0.8750 0.0000
0.0000 0.9167 0.0000
0.0000 0.9583 0.0000
0.0000 1.0000 0.0000
0.0408 0.0000 0.0000
0.0408 0.0417 0.0000
0.0408 0.0833 0.0000
0.0408 0.1250 0.0000
0.0408 0.1667 0.0000
0.0408 0.2083 0.0000
0.0408 0.2500 0.0000
0.0408 0.2917 0.0000
0.0408 0.3333 0.0000
0.0408 0.3750 0.0000
0.0408 0.4167 0.0000
0.0408 0.4583 0.0000
0.0408 0.5000 0.0000
0.0408 0.5417 0.0000
0.0408 0.5833 0.0000
0.0408 0.6250 0.0000
0.0408 0.6667 0.0000
0.0408 0.7083 0.0000
0.0408 0.7500 0.0000
0.0408 0.7917 0.0000
0.0408 0.8333 0.0000
0.0408 0.8750 0.0000
0.0408 0.9167 0.0000
0.0408 0.9583 0.0000
0.0408 1.0000 0.0000
0.0816 0.0000 0.0000
0.0816 0.0417 0.0000
0.0816 0.0833 0.0000
0.0816 0.1250 0.0000
0.0816 0.1667 0.0000
0.0816 0.2083 0.0000
0.0816 0.2500 0.0000
0.0816 0.2917 0.0000
0.0816 0.3333 0.0000
0.0816 0.3750 0.0000
0.0816 0.4167 0.0000
0.0816 0.4583 0.0000
0.0816 0.5000 0.0000
0.0816 0.5417 0.0000
0.0816 0.5833 0.0000
0.0816 0.6250 0.0000
0.0816 0.6667 0.0000
0.0816 0.7083 0.0000
0.0816 0.7500 0.0000
0.0816 0.7917 0.0000
0.0816 0.8333 0.0000
0.0816 0.8750 0.0000
0.0816 0.9167 0.0000
0.0816 0.9583 0.0000
0.0816 1.0000 0.0000
0.1224 0.0000 0.0000
0.1224 0.0417 0.0000
0.1224 0.0833 0.0000
0.1224 0.1250 0.0000
0.1224 0.1667 0.0000
0.1224 0.2083 0.0000
0.1224 0.2500 0.0000
0.1224 0.2917 0.0000
0.1224 0.3333 0.0000
0.1224 0.3750 0.0000
0.1224 0.4167 0.0000
0.1224 0.4583 0.0000
0.1224 0.5000 0.0000
0.1224 0.5417 0.0000
0.1224 0.5833 0.0000
0.1224 0.6250 0.0000
0.1224 0.6667 0.0000
0.1224 0.7083 0.0000
0.1224 0.7500 0.0000
0.1224 0.7917 0.0000
0.1224 0.8333 0.0000
0.1224 0.8750 0.0000
0.1224 0.9167 0.0000
0.1224 0.9583 0.0000
0.1224 1.0000 0.0000
0.1633 0.0000 0.0000
0.1633 0.0417 0.0000
0.1633 0.0833 0.0000
0.1633 0.1250 0.0000
0.1633 0.1667 0.0000
0.1633 0.2083 0.0000
0.1633 0.2500 0.0000
0.1633 0.2917 0.0000
0.1633 0.3333 0.0000
0.1633 0.3750 0.0000
0.1633 0.4167 0.0000
0.1633 0.4583 0.0000
0.1633 0.5000 0.0000
0.1633 0.5417 0.0000
0.1633 0.5833 0.0000
0.1633 0.6250 0.0000
0.1633 0.6667 0.0000
0.1633 0.7083 0.0000
0.1633 0.7500 0.0000
0.1633 0.7917 0.0000
0.1633 0.8333 0.0000
0.1633 0.8750 0.0000
0.1633 0.9167 0.0000
0.1633 0.9583 0.0000
0.1633 1.0000 0.0000
0.2041 0.0000 0.0000
0.2041 0.0417 0.0000
0.2041 0.0833 0.0000
0.2041 0.1250 0.0000
0.2041 0.1667 0.0000
0.2041 0.2083 0.0000
0.2041 0.2500 0.0000
0.2041 0.2917 0.0000
0.2041 0.3333 0.0000
0.2041 0.3750 0.0000
0.2041 0.4167 0.0000
0.2041 0.4583 0.0000
0.2041 0.5000 0.0000
0.2041 0.5417 0.0000
0.2041 0.5833 0.0000
0.2041 0.6250 0.0000
0.2041 0.6667 0.0000
0.2041 0.7083 0.0000
0.2041 0.7500 0.0000
0.2041 0.7917 0.0000
0.2041 0.8333 0.0000
0.2041 0.8750 0.0000
0.2041 0.9167 0.0000
0.2041 0.9583 0.0000
0.2041 1.0000 0.0000
0.2449 0.0000 0.0000
0.2449 0.0417 0.0000
0.2449 0.0833 0.0000
0.2449 0.1250 0.0000
0.2449 0.1667 0.0000
0.2449 0.2083 0.0000
0.2449 0.2500 0.0000
0.2449 0.2917 0.0000
0.2449 0.3333 0.0000
0.2449 0.3750 0.0000
0.2449 0.4167 0.0000
0.2449 0.4583 0.0000
0.2449 0.5000 0.0000
0.2449 0.5417 0.0000
0.2449 0.5833 0.0000
0.2449 0.6250 0.0000
0.2449 0.6667 0.0000
0.2449 0.7083 0.0000
0.2449 0.7500 0.0000
0.2449 0.7917 0.0000
0.2449 0.8333 0.0000
0.2449 0.8750 0.0000
0.2449 0.9167 0.0000
0.2449 0.9583 0.0000
0.2449 1.0000 0.0000
0.2857 0.0000 0.0000
0.2857 0.0417 0.0000
0.2857 0.0833 0.0000
0.2857 0.1250 0.0000
0.2857 0.1667 0.0000
0.2857 0.2083 0.0000
0.2857 0.2500 0.0000
0.2857 0.2917 0.0000
0.2857 0.3333 0.0000
0.2857 0.3750 0.0000
0.2857 0.4167 0.0000
0.2857 0.4583 0.0000
0.2857 0.5000 0.0000
0.2857 0.5417 0.0000
0.2857 0.5833 0.0000
0.2857 0.6250 0.0000
0.2857 0.6667 0.0000
0.2857 0.7083 0.0000
0.2857 0.7500 0.0000
0.2857 0.7917 0.0000
0.2857 0.8333 0.0000
0.2857 0.8750 0.0000
0.2857 0.9167 0.0000
0.2857 0.9583 0.0000
0.2857 1.0000 0.0000
0.3265 0.0000 0.0000
0.3265 0.0417 0.0000
0.3265 0.0833 0.0000
0.3265 0.1250 0.0000
0.3265 0.1667 0.0000
0.3265 0.2083 0.0000
0.3265 0.2500 0.0000
0.3265 0.2917 0.0000
0.3265 0.3333 0.0000
0.3265 0.3750 0.0000
0.3265 0.4167 0.0000
0.3265 0.4583 0.0000
0.3265 0.5000 0.0000
0.3265 0.5417 0.0000
0.3265 0.5833 0.0000
0.3265 0.6250 0.0000
0.3265 0.6667 0.0000
0.3265 0.7083 0.0000
0.3265 0.7500 0.0000
0.3265 0.7917 0.0000
0.3265 0.8333 0.0000
0.3265 0.8750 0.0000
0.3265 0.9167 0.0000
0.3265 0.9583 0.0000
0.3265 1.0000 0.0000
0.3673 0.0000 0.0000
0.3673 0.0417 0.0000
0.3673 0.0833 0.0000
0.3673 0.1250 0.0000
0.3673 0.1667 0.0000
0.3673 0.2083 0.0000
0.3673 0.2500 0.0000
0.3673 0.2917 0.0000
0.3673 0.3333 0.0000
0.3673 0.3750 0.0000
0.3673 0.4167 0.0000
0.3673 0.4583 0.0000
0.3673 0.5000 0.0000
0.3673 0.5417 0.0000
0.3673 0.5833 0.0000
0.3673 0.6250 0.0000
0.3673 0.6667 0.0000
0.3673 0.7083 0.0000
0.3673 0.7500 0.0000
0.3673 0.7917 0.0000
0.3673 0.8333 0.0000
0.3673 0.8750 0.0000
0.3673 0.9167 0.0000
0.3673 0.9583 0.0000
0.3673 1.0000 0.0000
0.4082 0.0000 0.0000
0.4082 0.0417 0.0000
0.4082 0.0833 0.0000
0.4082 0.1250 0.0000
0.4082 0.1667 0.0000
0.4082 0.2083 0.0000
0.4082 0.2500 0.0000
0.4082 0.2917 0.0000
0.4082 0.3333 0.0000
0.4082 0.3750 0.0000
0.4082 0.4167 0.0000
0.4082 0.4583 0.0000
0.4082 0.5000 0.0000
0.4082 0.5417 0.0000
0.4082 0.5833 0.0000
0.4082 0.6250 0.0000
0.4082 0.6667 0.0000
0.4082 0.7083 0.0000
0.4082 0.7500 0.0000
0.4082 0.7917 0.0000
0.4082 0.8333 0.0000
0.4082 0.8750 0.0000
0.4082 0.9167 0.0000
0.4082 0.9583 0.0000
0.4082 1.0000 0.0000
0.4490 0.0000 0.0000
0.4490 0.0417 0.0000
0.4490 0.0833 0.0000
0.4490 0.1250 0.0000
0.4490 0.1667 0.0000
0.4490 0.2083 0.0000
0.4490 0.2500 0.0000
0.4490 0.2917 0.0000
0.4490 0.3333 0.0000
0.4490 0.3750 0.0000
0.4490 0.4167 0.0000
0.4490 0.4583 0.0000
0.4490 0.5000 0.0000
0.4490 0.5417 0.0000
0.4490 0.5833 0.0000
0.4490 0.6250 0.0000
0.4490 0.6667 0.0000
0.4490 0.7083 0.0000
0.4490 0.7500 0.0000
0.4490 0.7917 0.0000
0.4490 0.8333 0.0000
0.4490 0.8750 0.0000
0.4490 0.9167 0.0000
0.4490 0.9583 0.0000
0.4490 1.0000 0.0000
0.4898 0.0000 0.0000
0.4898 0.0417 0.0000
0.4898 0.0833 0.0000
0.4898 0.1250 0.0000
0.4898 0.1667 0.0000
0.4898 0.2083 0.0000
0.4898 0.2500 0.0000
0.4898 0.2917 0.0000
0.4898 0.3333 0.0000
0.4898 0.3750 0.0000
0.4898 0.4167 0.0000
0.4898 0.4583 0.0000
0.4898 0.5000 0.0000
0.4898 0.5417 0.0000
0.4898 0.5833 0.0000
0.4898 0.6250 0.0000
0.4898 0.6667 0.0000
0.4898 0.7083 0.0000
0.4898 0.7500 0.0000
0.4898 0.7917 0.0000
0.4898 0.8333 0.0000
0.4898 0.8750 0.0000
0.4898 0.9167 0.0000
0.4898 0.9583 0.0000
0.4898 1.0000 0.0000
0.5306 0.0000 0.0000
0.5306 0.0417 0.0000
0.5306 0.0833 0.0000
0.5306 0.1250 0.0000
0.5306 0.1667 0.0000
0.5306 0.2083 0.0000
0.5306 0.2500 0.0000
0.5306 0.2917 0.0000
0.5306 0.3333 0.0000
0.5306 0.3750 0.0000
0.5306 0.4167 0.0000
0.5306 0.4583 0.0000
0.5306 0.5000 0.0000
0.5306 0.5417 0.0000
0.5306 0.5833 0.0000
0.5306 0.6250 0.0000
0.5306 0.6667 0.0000
0.5306 0.7083 0.0000
0.5306 0.7500 0.0000
0.5306 0.7917 0.0000
0.5306 0.8333 0.0000
0.5306 0.8750 0.0000
0.5306 0.9167 0.0000
0.5306 0.9583 0.0000
0.5306 1.0000 0.0000
0.5714 0.0000 0.0000
0.5714 0.0417 0.0000
0.5714 0.0833 0.0000
0.5714 0.1250 0.0000
0.5714 0.1667 0.0000
0.5714 0.2083 0.0000
0.5714 0.2500 0.0000
0.5714 0.2917 0.0000
0.5714 0.3333 0.0000
0.5714 0.3750 0.0000
0.5714 0.4167 0.0000
0.5714 0.4583 0.0000
0.5714 0.5000 0.0000
0.5714 0.5417 0.0000
0.5714 0.5833 0.0000
0.5714 0.6250 0.0000
0.5714 0.6667 0.0000
0.5714 0.7083 0.0000
0.5714 0.7500 0.0000
0.5714 0.7917 0.0000
0.5714 0.8333 0.0000
0.5714 0.8750 0.0000
0.5714 0.9167 0.0000
0.5714 0.9583 0.0000
0.5714 1.0000 0.0000
0.6122 0.0000 0.0000
0.6122 0.0417 0.0000
0.6122 0.0833 0.0000
0.6122 0.1250 0.0000
0.6122 0.1667 0.0000
0.6122 0.2083 0.0000
0.6122 0.2500 0.0000
0.6122 0.2917 0.0000
0.6122 0.3333 0.0000
0.6122 0.3750 0.0000
0.6122 0.4167 0.0000
0.6122 0.4583 0.0000
0.6122 0.5000 0.0000
0.6122 0.5417 0.0000
0.6122 0.5833 0.0000
0.6122 0.6250 0.0000
0.6122 0.6667 0.0000
0.6122 0.7083 0.0000
0.6122 0.7500 0.0000
0.6122 0.7917 0.0000
0.6122 0.8333 0.0000
0.6122 0.8750 0.0000
0.6122 0.9167 0.0000
0.6122 0.9583 0.0000
0.6122 1.0000 0.0000
0.6531 0.0000 0.0000
0.6531 0.0417 0.0000
0.6531 0.0833 0.0000
0.6531 0.1250 0.0000
0.6531 0.1667 0.0000
0.6531 0.2083 0.0000
0.6531 0.2500 0.0000
0.6531 0.2917 0.0000
0.6531 0.3333 0.0000
0.6531 0.3750 0.0000
0.6531 0.4167 0.0000
0.6531 0.4583 0.0000
0.6531 0.5000 0.0000
0.6531 0.5417 0.0000
0.6531 0.5833 0.0000
0.6531 0.6250 0.0000
0.6531 0.6667 0.0000
0.6531 0.7083 0.0000
0.6531 0.7500 0.0000
0.6531 0.7917 0.0000
0.6531 0.8333 0.0000
0.6531 0.8750 0.0000
0.6531 0.9167 0.0000
0.6531 0.9583 0.0000
0.6531 1.0000 0.0000
0.6939 0.0000 0.0000
0.6939 0.0417 0.0000
0.6939 0.0833 0.0000
0.6939 0.1250 0.0000
0.6939 0.1667 0.0000
0.6939 0.2083 0.0000
0.6939 0.2500 0.0000
0.6939 0.2917 0.0000
0.6939 0.3333 0.0000
0.6939 0.3750 0.0000
0.6939 0.4167 0.0000
0.6939 0.4583 0.0000
0.6939 0.5000 0.0000
0.6939 0.5417 0.0000
0.6939 0.5833 0.0000
0.6939 0.6250 0.0000
0.6939 0.6667 0.0000
0.6939 0.7083 0.0000
0.6939 0.7500 0.0000
0.6939 0.7917 0.0000
0.6939 0.8333 0.0000
0.6939 0.8750 0.0000
0.6939 0.9167 0.0000
0.6939 0.9583 0.0000
0.6939 1.0000 0.0000
0.7347 0.0000 0.0000
0.7347 0.0417 0.0000
0.7347 0.0833 0.0000
0.7347 0.1250 0.0000
0.7347 0.1667 0.0000
0.7347 0.2083 0.0000
0.7347 0.2500 0.0000
0.7347 0.2917 0.0000
0.7347 0.3333 0.0000
0.7347 0.3750 0.0000
0.7347 0.4167 0.0000
[...]
         <PointData>
            <DataArray Name="fValues" NumberOfComponents="3" format="ascii" type="Float64">
-4.58934e-18 -9.68870e-17        00000 
 1.42770e-19 -4.96024e-17        00000 
-1.29084e-18 -4.13068e-17        00000 
-2.72066e-19  1.10684e-17        00000 
 2.68925e-19  1.10152e-16        00000 
-1.74855e-19 -5.18990e-18        00000 
 2.38671e-19  2.75379e-17        00000 
-3.05194e-20 -8.68109e-18        00000 
 7.39543e-20  8.26136e-17        00000 
-1.58383e-20 -1.87701e-16        00000 
 6.77564e-21  1.37689e-16        00000 
-5.69176e-22  8.42201e-17        00000 
 4.20195e-22  1.37689e-17        00000 
-1.05589e-22 -4.67091e-17        00000 
 6.72312e-21  6.88447e-17        00000 
 5.30994e-21 -5.28498e-17        00000 
-2.26905e-20  2.75379e-17        00000 
 9.28125e-20 -2.02406e-16        00000 
 5.37849e-20  5.50758e-17        00000 
-1.52419e-19 -1.05523e-16        00000 
 5.37849e-20        00000        00000 
 1.65310e-18 -2.57765e-16        00000 
-4.30279e-19  1.65227e-16        00000 
-4.78632e-18 -8.35430e-17        00000 
 1.19658e-18 -1.55434e-17        00000 
 8.99129e-02  9.17961e-01        00000 
 2.03309e-02  9.06225e-01        00000 
 1.11252e-02  9.15694e-01        00000 
 5.46718e-03  9.24036e-01        00000 
 2.85164e-03  9.31031e-01        00000 
 1.44783e-03  9.36594e-01        00000 
 7.18728e-04  9.40956e-01        00000 
 3.41525e-04  9.44323e-01        00000 
 1.51720e-04  9.46869e-01        00000 
 6.03600e-05  9.48727e-01        00000 
 1.99930e-05  9.49991e-01        00000 
 4.82921e-06  9.50726e-01        00000 
-2.08359e-16  9.50967e-01        00000 
-4.82921e-06  9.50726e-01        00000 
-1.99930e-05  9.49991e-01        00000 
-6.03600e-05  9.48727e-01        00000 
-1.51720e-04  9.46869e-01        00000 
-3.41525e-04  9.44323e-01        00000 
-7.18728e-04  9.40956e-01        00000 
-1.44783e-03  9.36594e-01        00000 
-2.85164e-03  9.31031e-01        00000 
-5.46718e-03  9.24036e-01        00000 
-1.11252e-02  9.15694e-01        00000 
-2.03309e-02  9.06225e-01        00000 
-8.99129e-02  9.17961e-01        00000 
 1.73282e-01  1.84706e+00        00000 
 4.15780e-02  1.83719e+00        00000 
 2.20472e-02  1.84688e+00        00000 
 1.09236e-02  1.85809e+00        00000 
 5.66929e-03  1.86849e+00        00000 
 2.87252e-03  1.87736e+00        00000 
 1.41853e-03  1.88463e+00        00000 
 6.68512e-04  1.89044e+00        00000 
 2.92490e-04  1.89493e+00        00000 
 1.12901e-04  1.89827e+00        00000 
 3.49517e-05  1.90056e+00        00000 
 7.19342e-06  1.90191e+00        00000 
-4.13295e-16  1.90235e+00        00000 
-7.19342e-06  1.90191e+00        00000 
-3.49517e-05  1.90056e+00        00000 
-1.12901e-04  1.89827e+00        00000 
-2.92490e-04  1.89493e+00        00000 
-6.68512e-04  1.89044e+00        00000 
-1.41853e-03  1.88463e+00        00000 
-2.87252e-03  1.87736e+00        00000 
-5.66929e-03  1.86849e+00        00000 
-1.09236e-02  1.85809e+00        00000 
-2.20472e-02  1.84688e+00        00000 
-4.15780e-02  1.83719e+00        00000 
-1.73282e-01  1.84706e+00        00000 
 2.50511e-01  2.78878e+00        00000 
 6.34731e-02  2.77928e+00        00000 
 3.28253e-02  2.78861e+00        00000 
 1.63717e-02  2.80051e+00        00000 
 8.46462e-03  2.81220e+00        00000 
 4.28111e-03  2.82265e+00        00000 
 2.10481e-03  2.83155e+00        00000 
 9.84728e-04  2.83884e+00        00000 
 4.24926e-04  2.84461e+00        00000 
 1.59361e-04  2.84895e+00        00000 
 4.59360e-05  2.85197e+00        00000 
 7.59430e-06  2.85376e+00        00000 
-6.06958e-16  2.85434e+00        00000 
-7.59430e-06  2.85376e+00        00000 
-4.59360e-05  2.85197e+00        00000 
-1.59361e-04  2.84895e+00        00000 
-4.24926e-04  2.84461e+00        00000 
-9.84728e-04  2.83884e+00        00000 
-2.10481e-03  2.83155e+00        00000 
-4.28111e-03  2.82265e+00        00000 
-8.46462e-03  2.81220e+00        00000 
-1.63717e-02  2.80051e+00        00000 
-3.28253e-02  2.78861e+00        00000 
-6.34731e-02  2.77928e+00        00000 
-2.50511e-01  2.78878e+00        00000 
 3.22008e-01  3.73780e+00        00000 
 8.57899e-02  3.72857e+00        00000 
 4.34849e-02  3.73698e+00        00000 
 2.18080e-02  3.74870e+00        00000 
 1.12437e-02  3.76063e+00        00000 
 5.67855e-03  3.77164e+00        00000 
 2.78202e-03  3.78124e+00        00000 
 1.29371e-03  3.78928e+00        00000 
 5.51695e-04  3.79574e+00        00000 
 2.01626e-04  3.80067e+00        00000 
 5.41443e-05  3.80413e+00        00000 
 6.61277e-06  3.80619e+00        00000 
-7.99021e-16  3.80687e+00        00000 
-6.61277e-06  3.80619e+00        00000 
-5.41443e-05  3.80413e+00        00000 
-2.01626e-04  3.80067e+00        00000 
-5.51695e-04  3.79574e+00        00000 
-1.29371e-03  3.78928e+00        00000 
-2.78202e-03  3.78124e+00        00000 
-5.67855e-03  3.77164e+00        00000 
-1.12437e-02  3.76063e+00        00000 
-2.18080e-02  3.74870e+00        00000 
-4.34849e-02  3.73698e+00        00000 
-8.57899e-02  3.72857e+00        00000 
-3.22008e-01  3.73780e+00        00000 
 3.88149e-01  4.69106e+00        00000 
 1.08329e-01  4.68203e+00        00000 
 5.40412e-02  4.68933e+00        00000 
 2.72255e-02  4.70042e+00        00000 
 1.40085e-02  4.71205e+00        00000 
 7.06733e-03  4.72302e+00        00000 
 3.45305e-03  4.73276e+00        00000 
 1.59806e-03  4.74103e+00        00000 
 6.74950e-04  4.74776e+00        00000 
 2.41309e-04  4.75295e+00        00000 
 6.06433e-05  4.75662e+00        00000 
 4.77760e-06  4.75880e+00        00000 
-9.65965e-16  4.75953e+00        00000 
-4.77760e-06  4.75880e+00        00000 
-6.06433e-05  4.75662e+00        00000 
-2.41309e-04  4.75295e+00        00000 
-6.74950e-04  4.74776e+00        00000 
-1.59806e-03  4.74103e+00        00000 
-3.45305e-03  4.73276e+00        00000 
-7.06733e-03  4.72302e+00        00000 
-1.40085e-02  4.71205e+00        00000 
-2.72255e-02  4.70042e+00        00000 
-5.40412e-02  4.68933e+00        00000 
-1.08329e-01  4.68203e+00        00000 
-3.88149e-01  4.69106e+00        00000 
 4.49284e-01  5.64622e+00        00000 
 1.30918e-01  5.63737e+00        00000 
 6.45016e-02  5.64353e+00        00000 
 3.26170e-02  5.65377e+00        00000 
 1.67588e-02  5.66481e+00        00000 
 8.44826e-03  5.67540e+00        00000 
 4.11944e-03  5.68492e+00        00000 
 1.89945e-03  5.69310e+00        00000 
 7.96189e-04  5.69982e+00        00000 
 2.79605e-04  5.70503e+00        00000 
 6.62515e-05  5.70874e+00        00000 
 2.50327e-06  5.71095e+00        00000 
-1.11588e-15  5.71169e+00        00000 
-2.50327e-06  5.71095e+00        00000 
-6.62515e-05  5.70874e+00        00000 
-2.79605e-04  5.70503e+00        00000 
-7.96189e-04  5.69982e+00        00000 
-1.89945e-03  5.69310e+00        00000 
-4.11944e-03  5.68492e+00        00000 
-8.44826e-03  5.67540e+00        00000 
-1.67588e-02  5.66481e+00        00000 
-3.26170e-02  5.65377e+00        00000 
-6.45016e-02  5.64353e+00        00000 
-1.30918e-01  5.63737e+00        00000 
-4.49284e-01  5.64622e+00        00000 
 5.05733e-01  6.60140e+00        00000 
 1.53408e-01  6.59274e+00        00000 
 7.48674e-02  6.59776e+00        00000 
 3.79751e-02  6.60708e+00        00000 
 1.94931e-02  6.61737e+00        00000 
 9.82112e-03  6.62739e+00        00000 
 4.78180e-03  6.63650e+00        00000 
 2.19877e-03  6.64438e+00        00000 
 9.16340e-04  6.65090e+00        00000 
 3.17302e-04  6.65599e+00        00000 
 7.15325e-05  6.65962e+00        00000 
 8.12547e-08  6.66180e+00        00000 
-1.27627e-15  6.66252e+00        00000 
-8.12547e-08  6.66180e+00        00000 
-7.15325e-05  6.65962e+00        00000 
-3.17302e-04  6.65599e+00        00000 
-9.16340e-04  6.65090e+00        00000 
-2.19877e-03  6.64438e+00        00000 
-4.78180e-03  6.63650e+00        00000 
-9.82112e-03  6.62739e+00        00000 
-1.94931e-02  6.61737e+00        00000 
-3.79751e-02  6.60708e+00        00000 
-7.48674e-02  6.59776e+00        00000 
-1.53408e-01  6.59274e+00        00000 
-5.05733e-01  6.60140e+00        00000 
 5.57787e-01  7.55498e+00        00000 
 1.75671e-01  7.54650e+00        00000 
 8.51356e-02  7.55047e+00        00000 
 4.32927e-02  7.55882e+00        00000 
 2.22091e-02  7.56829e+00        00000 
 1.11850e-02  7.57765e+00        00000 
 5.44013e-03  7.58623e+00        00000 
 2.49641e-03  7.59370e+00        00000 
 1.03590e-03  7.59991e+00        00000 
 3.54869e-04  7.60478e+00        00000 
 7.68383e-05  7.60826e+00        00000 
-2.30183e-06  7.61036e+00        00000 
-1.42039e-15  7.61105e+00        00000 
 2.30183e-06  7.61036e+00        00000 
-7.68383e-05  7.60826e+00        00000 
-3.54869e-04  7.60478e+00        00000 
-1.03590e-03  7.59991e+00        00000 
-2.49641e-03  7.59370e+00        00000 
-5.44013e-03  7.58623e+00        00000 
-1.11850e-02  7.57765e+00        00000 
-2.22091e-02  7.56829e+00        00000 
-4.32927e-02  7.55882e+00        00000 
-8.51356e-02  7.55047e+00        00000 
-1.75671e-01  7.54650e+00        00000 
-5.57787e-01  7.55498e+00        00000 
 6.05715e-01  8.50549e+00        00000 
 1.97599e-01  8.49723e+00        00000 
 9.53000e-02  8.50020e+00        00000 
 4.85631e-02  8.50759e+00        00000 
 2.49041e-02  8.51623e+00        00000 
 1.25388e-02  8.52488e+00        00000 
 6.09403e-03  8.53287e+00        00000 
 2.79238e-03  8.53987e+00        00000 
 1.15507e-03  8.54571e+00        00000 
 3.92545e-04  8.55030e+00        00000 
 8.23638e-05  8.55360e+00        00000 
-4.53851e-06  8.55558e+00        00000 
-1.55072e-15  8.55624e+00        00000 
 4.53851e-06  8.55558e+00        00000 
-8.23638e-05  8.55360e+00        00000 
-3.92545e-04  8.55030e+00        00000 
-1.15507e-03  8.54571e+00        00000 
-2.79238e-03  8.53987e+00        00000 
-6.09403e-03  8.53287e+00        00000 
-1.25388e-02  8.52488e+00        00000 
-2.49041e-02  8.51623e+00        00000 
-4.85631e-02  8.50759e+00        00000 
-9.53000e-02  8.50020e+00        00000 
-1.97599e-01  8.49723e+00        00000 
-6.05715e-01  8.50549e+00        00000 
 6.49759e-01  9.45158e+00        00000 
 2.19102e-01  9.44355e+00        00000 
 1.05352e-01  9.44560e+00        00000 
 5.37799e-02  9.45208e+00        00000 
 2.75751e-02  9.45989e+00        00000 
 1.38810e-02  9.46781e+00        00000 
 6.74286e-03  9.47519e+00        00000 
 3.08647e-03  9.48170e+00        00000 
 1.27384e-03  9.48714e+00        00000 
 4.30408e-04  9.49142e+00        00000 
 8.81948e-05  9.49451e+00        00000 
-6.57693e-06  9.49636e+00        00000 
-1.68949e-15  9.49698e+00        00000 
 6.57693e-06  9.49636e+00        00000 
-8.81948e-05  9.49451e+00        00000 
-4.30408e-04  9.49142e+00        00000 
-1.27384e-03  9.48714e+00        00000 
-3.08647e-03  9.48170e+00        00000 
-6.74286e-03  9.47519e+00        00000 
-1.38810e-02  9.46781e+00        00000 
-2.75751e-02  9.45989e+00        00000 
-5.37799e-02  9.45208e+00        00000 
-1.05352e-01  9.44560e+00        00000 
-2.19102e-01  9.44355e+00        00000 
-6.49759e-01  9.45158e+00        00000 
 6.90146e-01  1.03920e+01        00000 
 2.40103e-01  1.03842e+01        00000 
 1.15281e-01  1.03854e+01        00000 
 5.89368e-02  1.03910e+01        00000 
 3.02189e-02  1.03980e+01        00000 
 1.52099e-02  1.04052e+01        00000 
 7.38584e-03  1.04120e+01        00000 
 3.37834e-03  1.04180e+01        00000 
 1.39210e-03  1.04230e+01        00000 
 4.68435e-04  1.04270e+01        00000 
 9.43447e-05  1.04299e+01        00000 
-8.40245e-06  1.04316e+01        00000 
-1.78888e-15  1.04322e+01        00000 
 8.40245e-06  1.04316e+01        00000 
-9.43447e-05  1.04299e+01        00000 
-4.68435e-04  1.04270e+01        00000 
-1.39210e-03  1.04230e+01        00000 
-3.37834e-03  1.04180e+01        00000 
-7.38584e-03  1.04120e+01        00000 
-1.52099e-02  1.04052e+01        00000 
-3.02189e-02  1.03980e+01        00000 
-5.89368e-02  1.03910e+01        00000 
-1.15281e-01  1.03854e+01        00000 
-2.40103e-01  1.03842e+01        00000 
-6.90146e-01  1.03920e+01        00000 
 7.27081e-01  1.13255e+01        00000 
 2.60539e-01  1.13180e+01        00000 
 1.25076e-01  1.13184e+01        00000 
 6.40280e-02  1.13232e+01        00000 
 3.28323e-02  1.13294e+01        00000 
 1.65240e-02  1.13359e+01        00000 
 8.02210e-03  1.13421e+01        00000 
 3.66754e-03  1.13476e+01        00000 
 1.50963e-03  1.13522e+01        00000 
 5.06536e-04  1.13559e+01        00000 
 1.00780e-04  1.13585e+01        00000 
-1.00245e-05  1.13601e+01        00000 
-1.90381e-15  1.13606e+01        00000 
 1.00245e-05  1.13601e+01        00000 
-1.00780e-04  1.13585e+01        00000 
-5.06536e-04  1.13559e+01        00000 
-1.50963e-03  1.13522e+01        00000 
-3.66754e-03  1.13476e+01        00000 
-8.02210e-03  1.13421e+01        00000 
-1.65240e-02  1.13359e+01        00000 
-3.28323e-02  1.13294e+01        00000 
-6.40280e-02  1.13232e+01        00000 
-1.25076e-01  1.13184e+01        00000 
-2.60539e-01  1.13180e+01        00000 
-7.27081e-01  1.13255e+01        00000 
 7.60754e-01  1.22509e+01        00000 
 2.80358e-01  1.22437e+01        00000 
 1.34724e-01  1.22434e+01        00000 
 6.90478e-02  1.22474e+01        00000 
 3.54122e-02  1.22529e+01        00000 
 1.78216e-02  1.22587e+01        00000 
 8.65071e-03  1.22643e+01        00000 
 3.95360e-03  1.22693e+01        00000 
 1.62617e-03  1.22735e+01        00000 
 5.44582e-04  1.22769e+01        00000 
 1.07440e-04  1.22793e+01        00000 
-1.14677e-05  1.22808e+01        00000 
-2.03456e-15  1.22812e+01        00000 
 1.14677e-05  1.22808e+01        00000 
-1.07440e-04  1.22793e+01        00000 
-5.44582e-04  1.22769e+01        00000 
-1.62617e-03  1.22735e+01        00000 
-3.95360e-03  1.22693e+01        00000 
-8.65071e-03  1.22643e+01        00000 
-1.78216e-02  1.22587e+01        00000 
-3.54122e-02  1.22529e+01        00000 
-6.90478e-02  1.22474e+01        00000 
-1.34724e-01  1.22434e+01        00000 
-2.80358e-01  1.22437e+01        00000 
-7.60754e-01  1.22509e+01        00000 
 7.91342e-01  1.31671e+01        00000 
 2.99520e-01  1.31601e+01        00000 
 1.44213e-01  1.31593e+01        00000 
 7.39906e-02  1.31625e+01        00000 
 3.79553e-02  1.31673e+01        00000 
 1.91009e-02  1.31725e+01        00000 
 9.27074e-03  1.31775e+01        00000 
 4.23599e-03  1.31821e+01        00000 
 1.74145e-03  1.31859e+01        00000 
 5.82418e-04  1.31889e+01        00000 
 1.14244e-04  1.31911e+01        00000 
-1.27655e-05  1.31925e+01        00000 
-2.11584e-15  1.31929e+01        00000 
 1.27655e-05  1.31925e+01        00000 
-1.14244e-04  1.31911e+01        00000 
-5.82418e-04  1.31889e+01        00000 
-1.74145e-03  1.31859e+01        00000 
-4.23599e-03  1.31821e+01        00000 
-9.27074e-03  1.31775e+01        00000 
-1.91009e-02  1.31725e+01        00000 
-3.79553e-02  1.31673e+01        00000 
-7.39906e-02  1.31625e+01        00000 
-1.44213e-01  1.31593e+01        00000 
-2.99520e-01  1.31601e+01        00000 
-7.91342e-01  1.31671e+01        00000 
 8.19010e-01  1.40730e+01        00000 
 3.17993e-01  1.40663e+01        00000 
 1.53530e-01  1.40649e+01        00000 
 7.88510e-02  1.40674e+01        00000 
 4.04586e-02  1.40715e+01        00000 
 2.03603e-02  1.40761e+01        00000 
 9.88124e-03  1.40806e+01        00000 
 4.51418e-03  1.40847e+01        00000 
 1.85516e-03  1.40882e+01        00000 
 6.19878e-04  1.40909e+01        00000 
 1.21103e-04  1.40929e+01        00000 
-1.39568e-05  1.40941e+01        00000 
-2.16639e-15  1.40945e+01        00000 
 1.39568e-05  1.40941e+01        00000 
-1.21103e-04  1.40929e+01        00000 
-6.19878e-04  1.40909e+01        00000 
-1.85516e-03  1.40882e+01        00000 
-4.51418e-03  1.40847e+01        00000 
-9.88124e-03  1.40806e+01        00000 
-2.03603e-02  1.40761e+01        00000 
-4.04586e-02  1.40715e+01        00000 
-7.88510e-02  1.40674e+01        00000 
-1.53530e-01  1.40649e+01        00000 
-3.17993e-01  1.40663e+01        00000 
-8.19010e-01  1.40730e+01        00000 
 8.43910e-01  1.49674e+01        00000 
 3.35752e-01  1.49610e+01        00000 
 1.62663e-01  1.49591e+01        00000 
 8.36238e-02  1.49609e+01        00000 
 4.29188e-02  1.49644e+01        00000 
 2.15981e-02  1.49685e+01        00000 
 1.04813e-02  1.49725e+01        00000 
 4.78765e-03  1.49761e+01        00000 
 1.96700e-03  1.49793e+01        00000 
 6.56790e-04  1.49817e+01        00000 
 1.27924e-04  1.49835e+01        00000 
-1.50829e-05  1.49846e+01        00000 
-2.19124e-15  1.49850e+01        00000 
 1.50829e-05  1.49846e+01        00000 
-1.27924e-04  1.49835e+01        00000 
-6.56790e-04  1.49817e+01        00000 
-1.96700e-03  1.49793e+01        00000 
-4.78765e-03  1.49761e+01        00000 
-1.04813e-02  1.49725e+01        00000 
-2.15981e-02  1.49685e+01        00000 
-4.29188e-02  1.49644e+01        00000 
-8.36238e-02  1.49609e+01        00000 
-1.62663e-01  1.49591e+01        00000 
-3.35752e-01  1.49610e+01        00000 
-8.43910e-01  1.49674e+01        00000 
 8.66189e-01  1.58494e+01        00000 
 3.52781e-01  1.58433e+01        00000 
 1.71600e-01  1.58409e+01        00000 
 8.83038e-02  1.58421e+01        00000 
 4.53330e-02  1.58450e+01        00000 
 2.28126e-02  1.58486e+01        00000 
 1.10699e-02  1.58521e+01        00000 
 5.05586e-03  1.58553e+01        00000 
 2.07667e-03  1.58581e+01        00000 
 6.92979e-04  1.58603e+01        00000 
 1.34611e-04  1.58619e+01        00000 
-1.61865e-05  1.58629e+01        00000 
-2.18499e-15  1.58632e+01        00000 
 1.61865e-05  1.58629e+01        00000 
-1.34611e-04  1.58619e+01        00000 
-6.92979e-04  1.58603e+01        00000 
-2.07667e-03  1.58581e+01        00000 
-5.05586e-03  1.58553e+01        00000 
-1.10699e-02  1.58521e+01        00000 
-2.28126e-02  1.58486e+01        00000 
-4.53330e-02  1.58450e+01        00000 
-8.83038e-02  1.58421e+01        00000 
-1.71600e-01  1.58409e+01        00000 
-3.52781e-01  1.58433e+01        00000 
-8.66189e-01  1.58494e+01        00000 
 8.85983e-01  1.67179e+01        00000 
 3.69067e-01  1.67120e+01        00000 
 1.80330e-01  1.67092e+01        00000 
 9.28859e-02  1.67099e+01        00000 
 4.76982e-02  1.67123e+01        00000 
 2.40023e-02  1.67153e+01        00000 
 1.16463e-02  1.67183e+01        00000 
 5.31831e-03  1.67212e+01        00000 
 2.18387e-03  1.67236e+01        00000 
 7.28271e-04  1.67256e+01        00000 
 1.41067e-04  1.67270e+01        00000 
-1.73103e-05  1.67279e+01        00000 
-2.13488e-15  1.67282e+01        00000 
 1.73103e-05  1.67279e+01        00000 
-1.41067e-04  1.67270e+01        00000 
-7.28271e-04  1.67256e+01        00000 
-2.18387e-03  1.67236e+01        00000 
-5.31831e-03  1.67212e+01        00000 
-1.16463e-02  1.67183e+01        00000 
-2.40023e-02  1.67153e+01        00000 
-4.76982e-02  1.67123e+01        00000 
-9.28859e-02  1.67099e+01        00000 
-1.80330e-01  1.67092e+01        00000 
-3.69067e-01  1.67120e+01        00000 
-8.85983e-01  1.67179e+01        00000 
 9.03421e-01  1.75718e+01        00000 
 3.84605e-01  1.75663e+01        00000 
 1.88841e-01  1.75631e+01        00000 
 9.73653e-02  1.75632e+01        00000 
 5.00116e-02  1.75651e+01        00000 
 2.51655e-02  1.75676e+01        00000 
 1.22094e-02  1.75702e+01        00000 
 5.57448e-03  1.75727e+01        00000 
 2.28831e-03  1.75748e+01        00000 
 7.62497e-04  1.75766e+01        00000 
 1.47199e-04  1.75778e+01        00000 
-1.84967e-05  1.75786e+01        00000 
-2.08161e-15  1.75789e+01        00000 
 1.84967e-05  1.75786e+01        00000 
-1.47199e-04  1.75778e+01        00000 
-7.62497e-04  1.75766e+01        00000 
-2.28831e-03  1.75748e+01        00000 
-5.57448e-03  1.75727e+01        00000 
-1.22094e-02  1.75702e+01        00000 
-2.51655e-02  1.75676e+01        00000 
-5.00116e-02  1.75651e+01        00000 
-9.73653e-02  1.75632e+01        00000 