<?xml version="1.0" encoding="utf-8"?>
<VTKFile byte_order="LittleEndian" type="UnstructuredGrid" version="0.1">
   <UnstructuredGrid>
      <Piece NumberOfCells="15625" NumberOfPoints="17576">
         <Points>
            <DataArray Name="Points" NumberOfComponents="3" format="ascii" type="Float32">
0.0000 0.0000 0.0000
0.0000 0.0400 0.0000
0.0000 0.0800 0.0000
0.0000 0.1200 0.0000
0.0000 0.1600 0.0000
0.0000 0.2000 0.0000
0.0000 0.2400 0.0000
0.0000 0.2800 0.0000
0.0000 0.3200 0.0000
0.0000 0.3600 0.0000
0.0000 0.4000 0.0000
0.0000 0.4400 0.0000
0.0000 0.4800 0.0000
0.0000 0.5200 0.0000
0.0000 0.5600 0.0000
0.0000 0.6000 0.0000
0.0000 0.6400 0.0000
0.0000 0.6800 0.0000
0.0000 0.7200 0.0000
0.0000 0.7600 0.0000
0.0000 0.8000 0.0000
0.0000 0.8400 0.0000
0.0000 0.8800 0.0000
0.0000 0.9200 0.0000
0.0000 0.9600 0.0000
0.0000 1.0000 0.0000
0.0400 0.0000 0.0000
0.0400 0.0400 0.0000
0.0400 0.0800 0.0000
0.0400 0.1200 0.0000
0.0400 0.1600 0.0000
0.0400 0.2000 0.0000
0.0400 0.2400 0.0000
0.0400 0.2800 0.0000
0.0400 0.3200 0.0000
0.0400 0.3600 0.0000
0.0400 0.4000 0.0000
0.0400 0.4400 0.0000
0.0400 0.4800 0.0000
0.0400 0.5200 0.0000
0.0400 0.5600 0.0000
0.0400 0.6000 0.0000
0.0400 0.6400 0.0000
0.0400 0.6800 0.0000
0.0400 0.7200 0.0000
0.0400 0.7600 0.0000
0.0400 0.8000 0.0000
0.0400 0.8400 0.0000
0.0400 0.8800 0.0000
0.0400 0.9200 0.0000
0.0400 0.9600 0.0000
0.0400 1.0000 0.0000
0.0800 0.0000 0.0000
0.0800 0.0400 0.0000
0.0800 0.0800 0.0000
0.0800 0.1200 0.0000
0.0800 0.1600 0.0000
0.0800 0.2000 0.0000
0.0800 0.2400 0.0000
0.0800 0.2800 0.0000
0.0800 0.3200 0.0000
0.0800 0.3600 0.0000
0.0800 0.4000 0.0000
0.0800 0.4400 0.0000
0.0800 0.4800 0.0000
0.0800 0.5200 0.0000
0.0800 0.5600 0.0000
0.0800 0.6000 0.0000
0.0800 0.6400 0.0000
0.0800 0.6800 0.0000
0.0800 0.7200 0.0000
0.0800 0.7600 0.0000
0.0800 0.8000 0.0000
0.0800 0.8400 0.0000
0.0800 0.8800 0.0000
0.0800 0.9200 0.0000
0.0800 0.9600 0.0000
0.0800 1.0000 0.0000
0.1200 0.0000 0.0000
0.1200 0.0400 0.0000
0.1200 0.0800 0.0000
0.1200 0.1200 0.0000
0.1200 0.1600 0.0000
0.1200 0.2000 0.0000
0.1200 0.2400 0.0000
0.1200 0.2800 0.0000
0.1200 0.3200 0.0000
0.1200 0.3600 0.0000
0.1200 0.4000 0.0000
0.1200 0.4400 0.0000
0.1200 0.4800 0.0000
0.1200 0.5200 0.0000
0.1200 0.5600 0.0000
0.1200 0.6000 0.0000
0.1200 0.6400 0.0000
0.1200 0.6800 0.0000
0.1200 0.7200 0.0000
0.1200 0.7600 0.0000
0.1200 0.8000 0.0000
0.1200 0.8400 0.0000
0.1200 0.8800 0.0000
0.1200 0.9200 0.0000
0.1200 0.9600 0.0000
0.1200 1.0000 0.0000
0.1600 0.0000 0.0000
0.1600 0.0400 0.0000
0.1600 0.0800 0.0000
0.1600 0.1200 0.0000
0.1600 0.1600 0.0000
0.1600 0.2000 0.0000
0.1600 0.2400 0.0000
0.1600 0.2800 0.0000
0.1600 0.3200 0.0000
0.1600 0.3600 0.0000
0.1600 0.4000 0.0000
0.1600 0.4400 0.0000
0.1600 0.4800 0.0000
0.1600 0.5200 0.0000
0.1600 0.5600 0.0000
0.1600 0.6000 0.0000
0.1600 0.6400 0.0000
0.1600 0.6800 0.0000
0.1600 0.7200 0.0000
0.1600 0.7600 0.0000
0.1600 0.8000 0.0000
0.1600 0.8400 0.0000
0.1600 0.8800 0.0000
0.1600 0.9200 0.0000
0.1600 0.9600 0.0000
0.1600 1.0000 0.0000
0.2000 0.0000 0.0000
0.2000 0.0400 0.0000
0.2000 0.0800 0.0000
0.2000 0.1200 0.0000
0.2000 0.1600 0.0000
0.2000 0.2000 0.0000
0.2000 0.2400 0.0000
0.2000 0.2800 0.0000
0.2000 0.3200 0.0000
0.2000 0.3600 0.0000
0.2000 0.4000 0.0000
0.2000 0.4400 0.0000
0.2000 0.4800 0.0000
0.2000 0.5200 0.0000
0.2000 0.5600 0.0000
0.2000 0.6000 0.0000
0.2000 0.6400 0.0000
0.2000 0.6800 0.0000
0.2000 0.7200 0.0000
0.2000 0.7600 0.0000
0.2000 0.8000 0.0000
0.2000 0.8400 0.0000
0.2000 0.8800 0.0000
0.2000 0.9200 0.0000
0.2000 0.9600 0.0000
0.2000 1.0000 0.0000
0.2400 0.0000 0.0000
0.2400 0.0400 0.0000
0.2400 0.0800 0.0000
0.2400 0.1200 0.0000
0.2400 0.1600 0.0000
0.2400 0.2000 0.0000
0.2400 0.2400 0.0000
0.2400 0.2800 0.0000
0.2400 0.3200 0.0000
0.2400 0.3600 0.0000
0.2400 0.4000 0.0000
0.2400 0.4400 0.0000
0.2400 0.4800 0.0000
0.2400 0.5200 0.0000
0.2400 0.5600 0.0000
0.2400 0.6000 0.0000
0.2400 0.6400 0.0000
0.2400 0.6800 0.0000
0.2400 0.7200 0.0000
0.2400 0.7600 0.0000
0.2400 0.8000 0.0000
0.2400 0.8400 0.0000
0.2400 0.8800 0.0000
0.2400 0.9200 0.0000
0.2400 0.9600 0.0000
0.2400 1.0000 0.0000
0.2800 0.0000 0.0000
0.2800 0.0400 0.0000
0.2800 0.0800 0.0000
0.2800 0.1200 0.0000
0.2800 0.1600 0.0000
0.2800 0.2000 0.0000
0.2800 0.2400 0.0000
0.2800 0.2800 0.0000
0.2800 0.3200 0.0000
0.2800 0.3600 0.0000
0.2800 0.4000 0.0000
0.2800 0.4400 0.0000
0.2800 0.4800 0.0000
0.2800 0.5200 0.0000
0.2800 0.5600 0.0000
0.2800 0.6000 0.0000
0.2800 0.6400 0.0000
0.2800 0.6800 0.0000
0.2800 0.7200 0.0000
0.2800 0.7600 0.0000
0.2800 0.8000 0.0000
0.2800 0.8400 0.0000
0.2800 0.8800 0.0000
0.2800 0.9200 0.0000
0.2800 0.9600 0.0000
0.2800 1.0000 0.0000
0.3200 0.0000 0.0000
0.3200 0.0400 0.0000
0.3200 0.0800 0.0000
0.3200 0.1200 0.0000
0.3200 0.1600 0.0000
0.3200 0.2000 0.0000
0.3200 0.2400 0.0000
0.3200 0.2800 0.0000
0.3200 0.3200 0.0000
0.3200 0.3600 0.0000
0.3200 0.4000 0.0000
0.3200 0.4400 0.0000
0.3200 0.4800 0.0000
0.3200 0.5200 0.0000
0.3200 0.5600 0.0000
0.3200 0.6000 0.0000
0.3200 0.6400 0.0000
0.3200 0.6800 0.0000
0.3200 0.7200 0.0000
0.3200 0.7600 0.0000
0.3200 0.8000 0.0000
0.3200 0.8400 0.0000
0.3200 0.8800 0.0000
0.3200 0.9200 0.0000
0.3200 0.9600 0.0000
0.3200 1.0000 0.0000
0.3600 0.0000 0.0000
0.3600 0.0400 0.0000
0.3600 0.0800 0.0000
0.3600 0.1200 0.0000
0.3600 0.1600 0.0000
0.3600 0.2000 0.0000
0.3600 0.2400 0.0000
0.3600 0.2800 0.0000
0.3600 0.3200 0.0000
0.3600 0.3600 0.0000
0.3600 0.4000 0.0000
0.3600 0.4400 0.0000
0.3600 0.4800 0.0000
0.3600 0.5200 0.0000
0.3600 0.5600 0.0000
0.3600 0.6000 0.0000
0.3600 0.6400 0.0000
0.3600 0.6800 0.0000
0.3600 0.7200 0.0000
0.3600 0.7600 0.0000
0.3600 0.8000 0.0000
0.3600 0.8400 0.0000
0.3600 0.8800 0.0000
0.3600 0.9200 0.0000
0.3600 0.9600 0.0000
0.3600 1.0000 0.0000
0.4000 0.0000 0.0000
0.4000 0.0400 0.0000
0.4000 0.0800 0.0000
0.4000 0.1200 0.0000
0.4000 0.1600 0.0000
0.4000 0.2000 0.0000
0.4000 0.2400 0.0000
0.4000 0.2800 0.0000
0.4000 0.3200 0.0000
0.4000 0.3600 0.0000
0.4000 0.4000 0.0000
0.4000 0.4400 0.0000
0.4000 0.4800 0.0000
0.4000 0.5200 0.0000
0.4000 0.5600 0.0000
0.4000 0.6000 0.0000
0.4000 0.6400 0.0000
0.4000 0.6800 0.0000
0.4000 0.7200 0.0000
0.4000 0.7600 0.0000
0.4000 0.8000 0.0000
0.4000 0.8400 0.0000
0.4000 0.8800 0.0000
0.4000 0.9200 0.0000
0.4000 0.9600 0.0000
0.4000 1.0000 0.0000
0.4400 0.0000 0.0000
0.4400 0.0400 0.0000
0.4400 0.0800 0.0000
0.4400 0.1200 0.0000
0.4400 0.1600 0.0000
0.4400 0.2000 0.0000
0.4400 0.2400 0.0000
0.4400 0.2800 0.0000
0.4400 0.3200 0.0000
0.4400 0.3600 0.0000
0.4400 0.4000 0.0000
0.4400 0.4400 0.0000
0.4400 0.4800 0.0000
0.4400 0.5200 0.0000
0.4400 0.5600 0.0000
0.4400 0.6000 0.0000
0.4400 0.6400 0.0000
0.4400 0.6800 0.0000
0.4400 0.7200 0.0000
0.4400 0.7600 0.0000
0.4400 0.8000 0.0000
0.4400 0.8400 0.0000
0.4400 0.8800 0.0000
0.4400 0.9200 0.0000
0.4400 0.9600 0.0000
0.4400 1.0000 0.0000
0.4800 0.0000 0.0000
0.4800 0.0400 0.0000
0.4800 0.0800 0.0000
0.4800 0.1200 0.0000
0.4800 0.1600 0.0000
0.4800 0.2000 0.0000
0.4800 0.2400 0.0000
0.4800 0.2800 0.0000
0.4800 0.3200 0.0000
0.4800 0.3600 0.0000
0.4800 0.4000 0.0000
0.4800 0.4400 0.0000
0.4800 0.4800 0.0000
0.4800 0.5200 0.0000
0.4800 0.5600 0.0000
0.4800 0.6000 0.0000
0.4800 0.6400 0.0000
0.4800 0.6800 0.0000
0.4800 0.7200 0.0000
0.4800 0.7600 0.0000
0.4800 0.8000 0.0000
0.4800 0.8400 0.0000
0.4800 0.8800 0.0000
0.4800 0.9200 0.0000
0.4800 0.9600 0.0000
0.4800 1.0000 0.0000
0.5200 0.0000 0.0000
0.5200 0.0400 0.0000
0.5200 0.0800 0.0000
0.5200 0.1200 0.0000
0.5200 0.1600 0.0000
0.5200 0.2000 0.0000
0.5200 0.2400 0.0000
0.5200 0.2800 0.0000
0.5200 0.3200 0.0000
0.5200 0.3600 0.0000
0.5200 0.4000 0.0000
0.5200 0.4400 0.0000
0.5200 0.4800 0.0000
0.5200 0.5200 0.0000
0.5200 0.5600 0.0000
0.5200 0.6000 0.0000
0.5200 0.6400 0.0000
0.5200 0.6800 0.0000
0.5200 0.7200 0.0000
0.5200 0.7600 0.0000
0.5200 0.8000 0.0000
0.5200 0.8400 0.0000
0.5200 0.8800 0.0000
0.5200 0.9200 0.0000
0.5200 0.9600 0.0000
0.5200 1.0000 0.0000
0.5600 0.0000 0.0000
0.5600 0.0400 0.0000
0.5600 0.0800 0.0000
0.5600 0.1200 0.0000
0.5600 0.1600 0.0000
0.5600 0.2000 0.0000
0.5600 0.2400 0.0000
0.5600 0.2800 0.0000
0.5600 0.3200 0.0000
0.5600 0.3600 0.0000
0.5600 0.4000 0.0000
0.5600 0.4400 0.0000
0.5600 0.4800 0.0000
0.5600 0.5200 0.0000
0.5600 0.5600 0.0000
0.5600 0.6000 0.0000
0.5600 0.6400 0.0000
0.5600 0.6800 0.0000
0.5600 0.7200 0.0000
0.5600 0.7600 0.0000
0.5600 0.8000 0.0000
0.5600 0.8400 0.0000
0.5600 0.8800 0.0000
0.5600 0.9200 0.0000
0.5600 0.9600 0.0000
0.5600 1.0000 0.0000
0.6000 0.0000 0.0000
0.6000 0.0400 0.0000
0.6000 0.0800 0.0000
0.6000 0.1200 0.0000
0.6000 0.1600 0.0000
0.6000 0.2000 0.0000
0.6000 0.2400 0.0000
0.6000 0.2800 0.0000
0.6000 0.3200 0.0000
0.6000 0.3600 0.0000
0.6000 0.4000 0.0000
0.6000 0.4400 0.0000
0.6000 0.4800 0.0000
0.6000 0.5200 0.0000
0.6000 0.5600 0.0000
0.6000 0.6000 0.0000
0.6000 0.6400 0.0000
0.6000 0.6800 0.0000
0.6000 0.7200 0.0000
0.6000 0.7600 0.0000
0.6000 0.8000 0.0000
0.6000 0.8400 0.0000
0.6000 0.8800 0.0000
0.6000 0.9200 0.0000
0.6000 0.9600 0.0000
0.6000 1.0000 0.0000
0.6400 0.0000 0.0000
0.6400 0.0400 0.0000
0.6400 0.0800 0.0000
0.6400 0.1200 0.0000
0.6400 0.1600 0.0000
0.6400 0.2000 0.0000
0.6400 0.2400 0.0000
0.6400 0.2800 0.0000
0.6400 0.3200 0.0000
0.6400 0.3600 0.0000
0.6400 0.4000 0.0000
0.6400 0.4400 0.0000
0.6400 0.4800 0.0000
0.6400 0.5200 0.0000
0.6400 0.5600 0.0000
0.6400 0.6000 0.0000
0.6400 0.6400 0.0000
0.6400 0.6800 0.0000
0.6400 0.7200 0.0000
0.6400 0.7600 0.0000
0.6400 0.8000 0.0000
0.6400 0.8400 0.0000
0.6400 0.8800 0.0000
0.6400 0.9200 0.0000
0.6400 0.9600 0.0000
0.6400 1.0000 0.0000
0.6800 0.0000 0.0000
0.6800 0.0400 0.0000
0.6800 0.0800 0.0000
0.6800 0.1200 0.0000
0.6800 0.1600 0.0000
0.6800 0.2000 0.0000
0.6800 0.2400 0.0000
0.6800 0.2800 0.0000
0.6800 0.3200 0.0000
0.6800 0.3600 0.0000
0.6800 0.4000 0.0000
0.6800 0.4400 0.0000
0.6800 0.4800 0.0000
0.6800 0.5200 0.0000
0.6800 0.5600 0.0000
0.6800 0.6000 0.0000
0.6800 0.6400 0.0000
0.6800 0.6800 0.0000
0.6800 0.7200 0.0000
[...]
         <PointData>
            <DataArray Name="fValues" NumberOfComponents="1" format="ascii" type="Float64">
 1.00000e+00 
 1.00000e+00 
       00001 
       00001 
 9.99951e-01 
 5.33726e-01 
 1.04697e-03 
 2.72689e-17 
-7.30667e-18 
 1.95782e-18 
-5.24595e-19 
 1.40565e-19 
-3.76642e-20 
 1.00921e-20 
-2.70417e-21 
 7.24580e-22 
-1.94151e-22 
 5.20225e-23 
-1.39394e-23 
 3.73505e-24 
-1.00081e-24 
 2.68172e-25 
-7.18811e-26 
 1.93526e-26 
-5.52931e-27 
 2.76466e-27 
 1.00000e+00 
 1.00000e+00 
 1.00000e+00 
 1.00000e+00 
 9.93104e-01 
 4.37059e-01 
 1.47849e-04 
-3.35061e-17 
 8.97793e-18 
-2.40563e-18 
 6.44587e-19 
-1.72716e-19 
 4.62792e-20 
-1.24005e-20 
 3.32270e-21 
-8.90315e-22 
 2.38559e-22 
-6.39217e-23 
 1.71278e-23 
-4.58937e-24 
 1.22972e-24 
-3.29511e-25 
 8.83225e-26 
-2.37791e-26 
 6.79404e-27 
-3.39702e-27 
 1.00000e+00 
       00001 
 1.00000e+00 
 1.00000e+00 
 9.02300e-01 
 1.96317e-01 
 7.11677e-12 
-1.95744e-17 
 5.24495e-18 
-1.40538e-18 
 3.76571e-19 
-1.00902e-19 
 2.70365e-20 
-7.24442e-21 
 1.94114e-21 
-5.20126e-22 
 1.39367e-22 
-3.73434e-23 
 1.00061e-23 
-2.68113e-24 
 7.18409e-25 
-1.92502e-25 
 5.15984e-26 
-1.38919e-26 
 3.96911e-27 
-1.98455e-27 
 1.00000e+00 
 1.00000e+00 
 1.00000e+00 
 9.72793e-01 
 5.21238e-01 
 2.21918e-02 
-5.44113e-17 
 1.45806e-17 
-3.90685e-18 
 1.04684e-18 
-2.80500e-19 
 7.51596e-20 
-2.01390e-20 
 5.39622e-21 
-1.44591e-21 
 3.87431e-22 
-1.03812e-22 
 2.78163e-23 
-7.45335e-24 
 1.99712e-24 
-5.35128e-25 
 1.43391e-25 
-3.84346e-26 
 1.03478e-26 
-2.95651e-27 
 1.47825e-27 
 9.99951e-01 
 9.93104e-01 
 9.02308e-01 
 5.21233e-01 
 6.18824e-02 
 4.50959e-06 
-6.59386e-18 
 1.76652e-18 
-4.73338e-19 
 1.26831e-19 
-3.39842e-20 
 9.10603e-21 
-2.43995e-21 
 6.53783e-22 
-1.75181e-22 
 4.69395e-23 
-1.25774e-23 
 3.37011e-24 
-9.03017e-25 
 2.41963e-25 
-6.48339e-26 
 1.73726e-26 
-4.65658e-27 
 1.25369e-27 
-3.58198e-28 
 1.79099e-28 
 5.33726e-01 
 4.37057e-01 
 1.96328e-01 
 2.21931e-02 
 4.50828e-06 
-1.28226e-17 
 3.10544e-18 
-8.32021e-19 
 2.22939e-19 
-5.97364e-20 
 1.60063e-20 
-4.28888e-21 
 1.14920e-21 
-3.07928e-22 
 8.25090e-23 
-2.21082e-23 
 5.92388e-24 
-1.58730e-24 
 4.25315e-25 
-1.13963e-25 
 3.05363e-26 
-8.18239e-27 
 2.19322e-27 
-5.90482e-28 
 1.68709e-28 
-8.43545e-29 
 1.04698e-03 
 1.47850e-04 
 7.11448e-12 
 9.10488e-17 
-2.11451e-17 
 4.41491e-18 
-1.09445e-18 
 2.93236e-19 
-7.85723e-20 
 2.10534e-20 
-5.64124e-21 
 1.51156e-21 
-4.05023e-22 
 1.08525e-22 
-2.90793e-23 
 7.79178e-24 
-2.08780e-24 
 5.59425e-25 
-1.49897e-25 
 4.01649e-26 
-1.07622e-26 
 2.88378e-27 
-7.72973e-28 
 2.08108e-28 
-5.94595e-29 
 2.97297e-29 
 9.23761e-17 
-6.88708e-17 
 3.37182e-17 
-2.43955e-17 
 5.66556e-18 
-1.18290e-18 
 2.93238e-19 
-7.85672e-20 
 2.10520e-20 
-5.64087e-21 
 1.51147e-21 
-4.04996e-22 
 1.08518e-22 
-2.90774e-23 
 7.79127e-24 
-2.08766e-24 
 5.59388e-25 
-1.49888e-25 
 4.01623e-26 
-1.07614e-26 
 2.88353e-27 
-7.72657e-28 
 2.07104e-28 
-5.57588e-29 
 1.59311e-29 
-7.96554e-30 
-2.47521e-17 
 1.84539e-17 
-9.03476e-18 
 6.53674e-18 
-1.51808e-18 
 3.16957e-19 
-7.85729e-20 
 2.10520e-20 
-5.64087e-21 
 1.51147e-21 
-4.04996e-22 
 1.08518e-22 
-2.90774e-23 
 7.79127e-24 
-2.08766e-24 
 5.59388e-25 
-1.49888e-25 
 4.01623e-26 
-1.07614e-26 
 2.88352e-27 
-7.72638e-28 
 2.07033e-28 
-5.54934e-29 
 1.49405e-29 
-4.26872e-30 
 2.13436e-30 
 6.63231e-18 
-4.94470e-18 
 2.42086e-18 
-1.75152e-18 
 4.06769e-19 
-8.49284e-20 
 2.10535e-20 
-5.64087e-21 
 1.51147e-21 
-4.04996e-22 
 1.08518e-22 
-2.90774e-23 
 7.79127e-24 
-2.08766e-24 
 5.59388e-25 
-1.49888e-25 
 4.01623e-26 
-1.07614e-26 
 2.88352e-27 
-7.72637e-28 
 2.07028e-28 
-5.54743e-29 
 1.48694e-29 
-4.00330e-30 
 1.14380e-30 
-5.71900e-31 
-1.77712e-18 
 1.32493e-18 
-6.48667e-19 
 4.69317e-19 
-1.08993e-19 
 2.27565e-20 
-5.64128e-21 
 1.51147e-21 
-4.04996e-22 
 1.08518e-22 
-2.90774e-23 
 7.79127e-24 
-2.08766e-24 
 5.59388e-25 
-1.49888e-25 
 4.01623e-26 
-1.07614e-26 
 2.88352e-27 
-7.72637e-28 
 2.07027e-28 
-5.54729e-29 
 1.48643e-29 
-3.98424e-30 
 1.07268e-30 
-3.06480e-31 
 1.53240e-31 
 4.76178e-19 
-3.55014e-19 
 1.73810e-19 
-1.25753e-19 
 2.92047e-20 
-6.09758e-21 
 1.51158e-21 
-4.04996e-22 
 1.08518e-22 
-2.90774e-23 
 7.79127e-24 
-2.08766e-24 
 5.59388e-25 
-1.49888e-25 
 4.01623e-26 
-1.07614e-26 
 2.88352e-27 
-7.72637e-28 
 2.07027e-28 
-5.54728e-29 
 1.48639e-29 
-3.98288e-30 
 1.06758e-30 
-2.87424e-31 
 8.21212e-32 
-4.10606e-32 
-1.27592e-19 
 9.51256e-20 
-4.65722e-20 
 3.36955e-20 
-7.82537e-21 
 1.63384e-21 
-4.05026e-22 
 1.08518e-22 
-2.90774e-23 
 7.79127e-24 
-2.08766e-24 
 5.59388e-25 
-1.49888e-25 
 4.01623e-26 
-1.07614e-26 
 2.88352e-27 
-7.72637e-28 
 2.07027e-28 
-5.54728e-29 
 1.48639e-29 
-3.98278e-30 
 1.06721e-30 
-2.86056e-31 
 7.70150e-32 
-2.20043e-32 
 1.10021e-32 
 3.41881e-20 
-2.54888e-20 
 1.24790e-20 
-9.02867e-21 
 2.09680e-21 
-4.37787e-22 
 1.08526e-22 
-2.90774e-23 
 7.79127e-24 
-2.08766e-24 
 5.59388e-25 
-1.49888e-25 
 4.01623e-26 
-1.07614e-26 
 2.88352e-27 
-7.72637e-28 
 2.07027e-28 
-5.54728e-29 
 1.48639e-29 
-3.98277e-30 
 1.06718e-30 
-2.85958e-31 
 7.66484e-32 
-2.06361e-32 
 5.89603e-33 
-2.94802e-33 
-9.16066e-21 
 6.82971e-21 
-3.34373e-21 
 2.41922e-21 
-5.61836e-22 
 1.17305e-22 
-2.90795e-23 
 7.79127e-24 
-2.08766e-24 
 5.59388e-25 
-1.49888e-25 
 4.01623e-26 
-1.07614e-26 
 2.88352e-27 
-7.72637e-28 
 2.07027e-28 
-5.54728e-29 
 1.48639e-29 
-3.98277e-30 
 1.06718e-30 
-2.85951e-31 
 7.66221e-32 
-2.05379e-32 
 5.52943e-33 
-1.57984e-33 
 7.89919e-34 
 2.45459e-21 
-1.83002e-21 
 8.95950e-22 
-6.48229e-22 
 1.50544e-22 
-3.14317e-23 
 7.79184e-24 
-2.08766e-24 
 5.59388e-25 
-1.49888e-25 
 4.01623e-26 
-1.07614e-26 
 2.88352e-27 
-7.72637e-28 
 2.07027e-28 
-5.54728e-29 
 1.48639e-29 
-3.98277e-30 
 1.06718e-30 
-2.85950e-31 
 7.66202e-32 
-2.05308e-32 
 5.50311e-33 
-1.48161e-33 
 4.23316e-34 
-2.11658e-34 
-6.57706e-22 
 4.90351e-22 
-2.40069e-22 
 1.73693e-22 
-4.03380e-23 
 8.42209e-24 
-2.08782e-24 
 5.59388e-25 
-1.49888e-25 
 4.01623e-26 
-1.07614e-26 
 2.88352e-27 
-7.72637e-28 
 2.07027e-28 
-5.54728e-29 
 1.48639e-29 
-3.98277e-30 
 1.06718e-30 
-2.85950e-31 
 7.66201e-32 
-2.05303e-32 
 5.50122e-33 
-1.47455e-33 
 3.96995e-34 
-1.13427e-34 
 5.67136e-35 
 1.76232e-22 
-1.31389e-22 
 6.43263e-23 
-4.65408e-23 
 1.08085e-23 
-2.25669e-24 
 5.59429e-25 
-1.49888e-25 
 4.01623e-26 
-1.07614e-26 
 2.88352e-27 
-7.72637e-28 
 2.07027e-28 
-5.54728e-29 
 1.48639e-29 
-3.98277e-30 
 1.06718e-30 
-2.85950e-31 
 7.66201e-32 
-2.05303e-32 
 5.50108e-33 
-1.47405e-33 
 3.95106e-34 
-1.06375e-34 
 3.03927e-35 
-1.51964e-35 
-4.72212e-23 
 3.52056e-23 
-1.72362e-23 
 1.24706e-23 
-2.89614e-24 
 6.04679e-25 
-1.49898e-25 
 4.01623e-26 
-1.07614e-26 
 2.88352e-27 
-7.72637e-28 
 2.07027e-28 
-5.54728e-29 
 1.48639e-29 
-3.98277e-30 
 1.06718e-30 
-2.85950e-31 
 7.66201e-32 
-2.05303e-32 
 5.50108e-33 
-1.47401e-33 
 3.94970e-34 
-1.05868e-34 
 2.85030e-35 
-8.14371e-36 
 4.07185e-36 
 1.26529e-23 
-9.43332e-24 
 4.61842e-24 
-3.34148e-24 
 7.76019e-25 
-1.62023e-25 
 4.01652e-26 
-1.07614e-26 
 2.88352e-27 
-7.72637e-28 
 2.07027e-28 
-5.54728e-29 
 1.48639e-29 
-3.98277e-30 
 1.06718e-30 
-2.85950e-31 
 7.66201e-32 
-2.05303e-32 
 5.50108e-33 
-1.47401e-33 
 3.94960e-34 
-1.05832e-34 
 2.83673e-35 
-7.63735e-36 
 2.18210e-36 
-1.09105e-36 
-3.39033e-24 
 2.52766e-24 
-1.23750e-24 
 8.95348e-25 
-2.07934e-25 
 4.34141e-26 
-1.07622e-26 
 2.88353e-27 
-7.72638e-28 
 2.07028e-28 
-5.54729e-29 
 1.48639e-29 
-3.98278e-30 
 1.06718e-30 
-2.85951e-31 
 7.66202e-32 
-2.05303e-32 
 5.50108e-33 
-1.47401e-33 
 3.94960e-34 
-1.05829e-34 
 2.83576e-35 
-7.60101e-36 
 2.04643e-36 
-5.84693e-37 
 2.92347e-37 
 9.08460e-25 
-6.77300e-25 
 3.31597e-25 
-2.39914e-25 
 5.57171e-26 
-1.16331e-26 
 2.88381e-27 
-7.72657e-28 
 2.07033e-28 
-5.54743e-29 
 1.48643e-29 
-3.98288e-30 
 1.06721e-30 
-2.85958e-31 
 7.66221e-32 
-2.05308e-32 
 5.50122e-33 
-1.47405e-33 
 3.94970e-34 
-1.05832e-34 
 2.83576e-35 
-7.59859e-36 
 2.03673e-36 
-5.48352e-37 
 1.56672e-37 
-7.83360e-38 
-2.43505e-25 
 1.81544e-25 
-8.88816e-26 
 6.43067e-26 
-1.49345e-26 
 3.11814e-27 
-7.72979e-28 
 2.07104e-28 
-5.54934e-29 
 1.48694e-29 
-3.98424e-30 
 1.06758e-30 
-2.86056e-31 
 7.66484e-32 
-2.05379e-32 
 5.50311e-33 
-1.47455e-33 
 3.95106e-34 
-1.05868e-34 
 2.83673e-35 
-7.60101e-36 
 2.03673e-36 
-5.45929e-37 
 1.46981e-37 
-4.19945e-38 
 2.09973e-38 
 6.55590e-26 
-4.88773e-26 
 2.39297e-26 
-1.73134e-26 
 4.02082e-27 
-8.39499e-28 
 2.08110e-28 
-5.57588e-29 
 1.49405e-29 
-4.00330e-30 
 1.07268e-30 
-2.87424e-31 
 7.70150e-32 
-2.06361e-32 
 5.52943e-33 
-1.48161e-33 
 3.96995e-34 
-1.06375e-34 
 2.85030e-35 
-7.63735e-36 
 2.04643e-36 
-5.48352e-37 
 1.46981e-37 
-3.95718e-38 
 1.13062e-38 
-5.65311e-39 
-1.87311e-26 
 1.39649e-26 
-6.83704e-27 
 4.94667e-27 
-1.14881e-27 
 2.39857e-28 
-5.94599e-29 
 1.59311e-29 
-4.26872e-30 
 1.14380e-30 
-3.06480e-31 
 8.21212e-32 
-2.20043e-32 
 5.89603e-33 
-1.57984e-33 
 4.23316e-34 
-1.13427e-34 
 3.03927e-35 
-8.14371e-36 
 2.18210e-36 
-5.84693e-37 
 1.56672e-37 
-4.19945e-38 
 1.13062e-38 
-3.23035e-39 
 1.61517e-39 
 9.36556e-27 
-6.98247e-27 
 3.41852e-27 
-2.47334e-27 
 5.74403e-28 
-1.19928e-28 
 2.97300e-29 
-7.96554e-30 
 2.13436e-30 
-5.71900e-31 
 1.53240e-31 
-4.10606e-32 
 1.10021e-32 
-2.94802e-33 
 7.89919e-34 
-2.11658e-34 
 5.67136e-35 
-1.51964e-35 
 4.07185e-36 
-1.09105e-36 
 2.92347e-37 
-7.83360e-38 
 2.09973e-38 
-5.65311e-39 
 1.61517e-39 
-8.07587e-40 
 1.00000e+00 
 1.00000e+00 
 1.00000e+00 
       00001 
 9.93104e-01 
 4.37059e-01 
 1.47849e-04 
-2.84113e-17 
 7.61278e-18 
-2.03984e-18 
 5.46573e-19 
-1.46454e-19 
 3.92422e-20 
-1.05149e-20 
 2.81746e-21 
-7.54936e-22 
 2.02285e-22 
-5.42020e-23 
 1.45234e-23 
-3.89153e-24 
 1.04273e-24 
-2.79407e-25 
 7.48925e-26 
-2.01634e-26 
 5.76096e-27 
-2.88048e-27 
 1.00000e+00 
 1.00000e+00 
 1.00000e+00 
 1.00000e+00 
 9.75054e-01 
 3.45541e-01 
 1.57581e-05 
 6.71267e-17 
-1.79866e-17 
 4.81948e-18 
-1.29138e-18 
 3.46023e-19 
-9.27167e-20 
 2.48434e-20 
-6.65676e-21 
 1.78367e-21 
-4.77934e-22 
 1.28062e-22 
-3.43141e-23 
 9.19443e-24 
-2.46365e-24 
 6.60148e-25 
-1.76947e-25 
 4.76396e-26 
-1.36113e-26 
 6.80565e-27 
 1.00000e+00 
       00001 
 1.00000e+00 
 9.99917e-01 
 8.47271e-01 
 1.40032e-01 
 3.24124e-14 
 1.23876e-17 
-3.31926e-18 
 8.89393e-19 
-2.38312e-19 
 6.38555e-20 
-1.71100e-20 
 4.58462e-21 
-1.22845e-21 
 3.29161e-22 
-8.81984e-23 
 2.36327e-23 
-6.33236e-24 
 1.69675e-24 
-4.54644e-25 
 1.21825e-25 
-3.26540e-26 
 8.79146e-27 
-2.51185e-27 
 1.25592e-27 
 1.00000e+00 
 1.00000e+00 
 9.99917e-01 
 9.46757e-01 
 4.29324e-01 
 1.20188e-02 
 1.70229e-17 
-4.56168e-18 
 1.22230e-18 
-3.27514e-19 
 8.77572e-20 
-2.35145e-20 
 6.30068e-21 
-1.68826e-21 
 4.52369e-22 
-1.21212e-22 
 3.24786e-23 
-8.70261e-24 
 2.33186e-24 
-6.24820e-25 
 1.67420e-25 
-4.48612e-26 
 1.20247e-26 
-3.23741e-27 
 9.24974e-28 
-4.62487e-28 
 9.93104e-01 
 9.75057e-01 
 8.47280e-01 
 4.29328e-01 
 3.85575e-02 
 4.80606e-07 
 2.30620e-17 
-6.17934e-18 
 1.65575e-18 
-4.43656e-19 
 1.18877e-19 
-3.18531e-20 
 8.53501e-21 
-2.28695e-21 
 6.12786e-22 
-1.64196e-22 
 4.39961e-23 
-1.17887e-23 
 3.15878e-24 
-8.46391e-25 
 2.26790e-25 
-6.07698e-26 
 1.62888e-26 
-4.38545e-27 
 1.25299e-27 
-6.26493e-28 
 4.37056e-01 
 3.45544e-01 
 1.40049e-01 
 1.20183e-02 
 4.80431e-07 
 2.85397e-17 
-7.71090e-18 
 2.06610e-18 
-5.53610e-19 
 1.48339e-19 
-3.97474e-20 
 1.06503e-20 
-2.85374e-21 
 7.64656e-22 
-2.04889e-22 
 5.48998e-23 
-1.47104e-23 
 3.94163e-24 
-1.05616e-24 
 2.82996e-25 
-7.58288e-26 
 2.03188e-26 
-5.44627e-27 
 1.46630e-27 
-4.18944e-28 
 2.09472e-28 
 1.47850e-04 
 1.57583e-05 
 3.24867e-14 
-1.03387e-16 
 2.62729e-17 
-8.34774e-18 
 2.25384e-18 
-6.03906e-19 
 1.61816e-19 
-4.33585e-20 
 1.16179e-20 
-3.11300e-21 
 8.34127e-22 
-2.23504e-22 
 5.98876e-23 
-1.60468e-23 
 4.29974e-24 
-1.15211e-24 
 3.08707e-25 
-8.27178e-26 
 2.21642e-26 
-5.93903e-27 
 1.59191e-27 
-4.28590e-28 
 1.22454e-28 
-6.12271e-29 
-8.43283e-17 
 5.99540e-17 
-1.09801e-17 
 2.77024e-17 
-7.03978e-18 
 2.23677e-18 
-6.03913e-19 
 1.61816e-19 
-4.33585e-20 
 1.16179e-20 
-3.11300e-21 
 8.34125e-22 
-2.23503e-22 
 5.98875e-23 
-1.60468e-23 
 4.29973e-24 
-1.15211e-24 
 3.08707e-25 
-8.27177e-26 
 2.21641e-26 
-5.93887e-27 
 1.59136e-27 
-4.26549e-28 
 1.14840e-28 
-3.28115e-29 
 1.64057e-29 
 2.25957e-17 
-1.60646e-17 
 2.94210e-18 
-7.42284e-18 
 1.88630e-18 
-5.99340e-19 
 1.61818e-19 
-4.33585e-20 
 1.16179e-20 
-3.11300e-21 
 8.34125e-22 
-2.23503e-22 
 5.98875e-23 
-1.60468e-23 
 4.29973e-24 
-1.15211e-24 
 3.08707e-25 
-8.27177e-26 
 2.21641e-26 
-5.93886e-27 
 1.59132e-27 
-4.26403e-28 
 1.14293e-28 
-3.07713e-29 
 8.79180e-30 
-4.39590e-30 
-6.05450e-18 
 4.30451e-18 
-7.88333e-19 
 1.98894e-18 
-5.05433e-19 
 1.60593e-19 
-4.33590e-20 
 1.16179e-20 
-3.11300e-21 
 8.34125e-22 
-2.23503e-22 
 5.98875e-23 
-1.60468e-23 
 4.29973e-24 
-1.15211e-24 
 3.08707e-25 
-8.27177e-26 
 2.21641e-26 
-5.93886e-27 
 1.59131e-27 
-4.26392e-28 
 1.14254e-28 
-3.06248e-29 
 8.24515e-30 
-2.35576e-30 
 1.17788e-30 
 1.62230e-18 
-1.15339e-18 
 2.11233e-19 
-5.32936e-19 
 1.35430e-19 
-4.30307e-20 
 1.16180e-20 
-3.11300e-21 
 8.34125e-22 
-2.23503e-22 
 5.98875e-23 
-1.60468e-23 
 4.29973e-24 
-1.15211e-24 
 3.08707e-25 
-8.27177e-26 
 2.21641e-26 
-5.93886e-27 
 1.59131e-27 
-4.26391e-28 
 1.14251e-28 
-3.06143e-29 
 8.20590e-30 
-2.20928e-30 
 6.31223e-31 
-3.15612e-31 
-4.34694e-19 
 3.09050e-19 
-5.65998e-20 
 1.42800e-19 
-3.62885e-20 
 1.15300e-20 
-3.11304e-21 
 8.34125e-22 
-2.23503e-22 
 5.98875e-23 
-1.60468e-23 
 4.29973e-24 
-1.15211e-24 
 3.08707e-25 
-8.27177e-26 
 2.21641e-26 
-5.93886e-27 
 1.59131e-27 
-4.26391e-28 
 1.14251e-28 
-3.06136e-29 
 8.20308e-30 
-2.19876e-30 
 5.91975e-31 
-1.69136e-31 
 8.45679e-32 
 1.16476e-19 
-8.28096e-20 
 1.51659e-20 
-3.82631e-20 
 9.72347e-21 
-3.08946e-21 
 8.34136e-22 
-2.23503e-22 
 5.98875e-23 
-1.60468e-23 
 4.29973e-24 
-1.15211e-24 
 3.08707e-25 
-8.27177e-26 
 2.21641e-26 
-5.93886e-27 
 1.59131e-27 
-4.26391e-28 
 1.14251e-28 
-3.06135e-29 
 8.20288e-30 
-2.19801e-30 
 5.89157e-31 
-1.58619e-31 
 4.53198e-32 
-2.26599e-32 
-3.12096e-20 
 2.21888e-20 
-4.06368e-21 
 1.02526e-20 
-2.60540e-21 
 8.27819e-22 
-2.23506e-22 
 5.98875e-23 
-1.60468e-23 
 4.29973e-24 
-1.15211e-24 
 3.08707e-25 
-8.27177e-26 
 2.21641e-26 
-5.93886e-27 
 1.59131e-27 
-4.26391e-28 
 1.14251e-28 
-3.06135e-29 
 8.20287e-30 
-2.19796e-30 
 5.88955e-31 
-1.57864e-31 
 4.25019e-32 
-1.21434e-32 
 6.07170e-33 
 8.36259e-21 
-5.94546e-21 
 1.08886e-21 
-2.74716e-21 
 6.98114e-22 
-2.21813e-22 
 5.98883e-23 
-1.60468e-23 
 4.29973e-24 
-1.15211e-24 
 3.08707e-25 
-8.27177e-26 
 2.21641e-26 
-5.93886e-27 
 1.59131e-27 
-4.26391e-28 
 1.14251e-28 
-3.06135e-29 
 8.20287e-30 
-2.19795e-30 
 5.88940e-31 
-1.57810e-31 
 4.22996e-32 
-1.13883e-32 
 3.25381e-33 
-1.62691e-33 
-2.24075e-21 
 1.59308e-21 
-2.91759e-22 
 7.36100e-22 
-1.87059e-22 
 5.94347e-23 
-1.60470e-23 
 4.29973e-24 
-1.15211e-24 
 3.08707e-25 
-8.27177e-26 
 2.21641e-26 
-5.93886e-27 
 1.59131e-27 
-4.26391e-28 
 1.14251e-28 
-3.06135e-29 
 8.20287e-30 
-2.19795e-30 
 5.88939e-31 
-1.57806e-31 
 4.22851e-32 
-1.13341e-32 
 3.05150e-33 
-8.71857e-34 
 4.35928e-34 
 6.00407e-22 
-4.26865e-22 
 7.81766e-23 
-1.97237e-22 
 5.01223e-23 
-1.59255e-23 
 4.29979e-24 
-1.15211e-24 
 3.08707e-25 
-8.27177e-26 
 2.21641e-26 
-5.93886e-27 
 1.59131e-27 
-4.26391e-28 
 1.14251e-28 
-3.06135e-29 
 8.20287e-30 
-2.19795e-30 
 5.88939e-31 
-1.57806e-31 
 4.22840e-32 
-1.13302e-32 
 3.03697e-33 
-8.17647e-34 
 2.33613e-34 
-1.16807e-34 
-1.60878e-22 
 1.14378e-22 
-2.09474e-23 
 5.28496e-23 
-1.34302e-23 
 4.26722e-24 
-1.15212e-24 
 3.08707e-25 
-8.27177e-26 
 2.21641e-26 
-5.93886e-27 
 1.59131e-27 
-4.26391e-28 
 1.14251e-28 
-3.06135e-29 
 8.20287e-30 
-2.19795e-30 
 5.88939e-31 
-1.57806e-31 
 4.22839e-32 
-1.13300e-32 
 3.03593e-33 
-8.13755e-34 
 2.19088e-34 
-6.25965e-35 
 3.12983e-35 
 4.31073e-23 
-3.06475e-23 
 5.61283e-24 
-1.41610e-23 
 3.59862e-24 
-1.14340e-24 
 3.08711e-25 
-8.27177e-26 
 2.21641e-26 
-5.93886e-27 
 1.59131e-27 
-4.26391e-28 
 1.14251e-28 
-3.06135e-29 
 8.20287e-30 
-2.19795e-30 
 5.88939e-31 
-1.57806e-31 
 4.22839e-32 
-1.13299e-32 
 3.03586e-33 
-8.13475e-34 
 2.18045e-34 
-5.87044e-35 
 1.67727e-35 
-8.38634e-36 
-1.15506e-23 
 8.21198e-24 
-1.50395e-24 
 3.79443e-24 
-9.64247e-25 
 3.06373e-25 
-8.27188e-26 
 2.21641e-26 
-5.93886e-27 
 1.59131e-27 
-4.26391e-28 
 1.14251e-28 
-3.06135e-29 
 8.20287e-30 
-2.19795e-30 
 5.88939e-31 
-1.57806e-31 
 4.22839e-32 
-1.13299e-32 
 3.03585e-33 
-8.13455e-34 
 2.17970e-34 
-5.84250e-35 
 1.57298e-35 
-4.49423e-36 
 2.24711e-36 
 3.09497e-24 
-2.20040e-24 
 4.02984e-25 
-1.01672e-24 
 2.58370e-25 
-8.20925e-26 
 2.21645e-26 
-5.93887e-27 
 1.59132e-27 
-4.26392e-28 
 1.14251e-28 
-3.06136e-29 
 8.20288e-30 
-2.19796e-30 
 5.88940e-31 
-1.57806e-31 
 4.22840e-32 
-1.13300e-32 
 3.03586e-33 
-8.13455e-34 
 2.17965e-34 
-5.84050e-35 
 1.56549e-35 
-4.21479e-36 
 1.20423e-36 
-6.02113e-37 
-8.29315e-25 
 5.89609e-25 
-1.07982e-25 
 2.72435e-25 
-6.92317e-26 
 2.19972e-26 
-5.93910e-27 
 1.59136e-27 
-4.26403e-28 
 1.14254e-28 
-3.06143e-29 
 8.20308e-30 
-2.19801e-30 
 5.88955e-31 
-1.57810e-31 
 4.22851e-32 
-1.13302e-32 
 3.03593e-33 
-8.13475e-34 
 2.17970e-34 
-5.84050e-35 
 1.56500e-35 
-4.19483e-36 
 1.12938e-36 
-3.22680e-37 
 1.61340e-37 
 2.22291e-25 
-1.58040e-25 
 2.89436e-26 
-7.30239e-26 
 1.85569e-26 
-5.89615e-27 
 1.59192e-27 
-4.26549e-28 
 1.14293e-28 
-3.06248e-29 
 8.20590e-30 
-2.19876e-30 
 5.89157e-31 
-1.57864e-31 
 4.22996e-32 
-1.13341e-32 
 3.03697e-33 
-8.13755e-34 
 2.18045e-34 
-5.84250e-35 
 1.56549e-35 
-4.19483e-36 
 1.12439e-36 
-3.02720e-37 
 8.64914e-38 
-4.32457e-38 
-5.98475e-26 
 4.25491e-26 
-7.79251e-27 
 1.96603e-26 
-4.99610e-27 
 1.58742e-27 
-4.28595e-28 
 1.14840e-28 
-3.07713e-29 
 8.24515e-30 
-2.20928e-30 
 5.91975e-31 
-1.58619e-31 
 4.25019e-32 
-1.13883e-32 
 3.05150e-33 
-8.17647e-34 
 2.19088e-34 
-5.87044e-35 
 1.57298e-35 
-4.21479e-36 
 1.12938e-36 
-3.02720e-37 
 8.15015e-38 
-2.32862e-38 
 1.16431e-38 
 1.70993e-26 
-1.21569e-26 
 2.22643e-27 
-5.61722e-27 
 1.42746e-27 
-4.53550e-28 
 1.22456e-28 
-3.28115e-29 
 8.79180e-30 
-2.35576e-30 
 6.31223e-31 
-1.69136e-31 
 4.53198e-32 
-1.21434e-32 
 3.25381e-33 
-8.71857e-34 
 2.33613e-34 
-6.25965e-35 
 1.67727e-35 
-4.49423e-36 
 1.20423e-36 
-3.22680e-37 
 8.64914e-38 
-2.32862e-38 
 6.65319e-39 
-3.32659e-39 
-8.54964e-27 
 6.07845e-27 
-1.11322e-27 
 2.80861e-27 
-7.13729e-28 
 2.26775e-28 
-6.12278e-29 
 1.64057e-29 
-4.39590e-30 
 1.17788e-30 
-3.15612e-31 
 8.45679e-32 
-2.26599e-32 
 6.07170e-33 
-1.62691e-33 
 4.35928e-34 
-1.16807e-34 
 3.12983e-35 
-8.38634e-36 
 2.24711e-36 
-6.02113e-37 
 1.61340e-37 
-4.32457e-38 
 1.16431e-38 
-3.32659e-39 
 1.66330e-39 
 1.00000e+00 
 1.00000e+00 
 1.00000e+00 
 1.00000e+00 
 9.02294e-01 
 1.96312e-01 
 7.11627e-12 
 1.32239e-17 
-3.54333e-18 
 9.49432e-19 
-2.54400e-19 
 6.81662e-20 
-1.82651e-20 
 4.89411e-21 
-1.31137e-21 
 3.51381e-22 
-9.41523e-23 
 2.52280e-23 
-6.75983e-24 
 1.81129e-24 
-4.85335e-25 
 1.30048e-25 
-3.48583e-26 
 9.38493e-27 
-2.68141e-27 
 1.34070e-27 
 1.00000e+00 
 1.00000e+00 
 1.00000e+00 
 9.99917e-01 
 8.47259e-01 
 1.40027e-01 
 3.25148e-14 
-1.55676e-17 
 4.17132e-18 
-1.11770e-18 
 2.99488e-19 
-8.02475e-20 
 2.15022e-20 
-5.76151e-21 
 1.54379e-21 
-4.13658e-22 
 1.10839e-22 
-2.96993e-23 
 7.95790e-24 
-2.13231e-24 
 5.71353e-25 
-1.53097e-25 
 4.10364e-26 
-1.10483e-26 
 3.15664e-27 
-1.57832e-27 
 1.00000e+00 
 1.00000e+00 
 1.00000e+00 
 9.88389e-01 
 6.13450e-01 
 3.84690e-02 
 1.76639e-17 
-4.73343e-18 
 1.26832e-18 
-3.39845e-19 
 9.10612e-20 
-2.43998e-20 
 6.53790e-21 
-1.75182e-21 
 4.69400e-22 
-1.25775e-22 