<?xml version="1.0" encoding="utf-8"?>
<VTKFile byte_order="LittleEndian" type="UnstructuredGrid" version="0.1">
   <UnstructuredGrid>
      <Piece NumberOfCells="1444" NumberOfPoints="761">
         <Points>
            <DataArray Name="Points" NumberOfComponents="3" format="ascii" type="Float32">
0.0000 1.0000 0.0000
0.0000 1.0526 0.0000
0.0000 1.1053 0.0000
0.0000 1.1579 0.0000
0.0000 1.2105 0.0000
0.0000 1.2632 0.0000
0.0000 1.3158 0.0000
0.0000 1.3684 0.0000
0.0000 1.4211 0.0000
0.0000 1.4737 0.0000
0.0000 1.5263 0.0000
0.0000 1.5789 0.0000
0.0000 1.6316 0.0000
0.0000 1.6842 0.0000
0.0000 1.7368 0.0000
0.0000 1.7895 0.0000
0.0000 1.8421 0.0000
0.0000 1.8947 0.0000
0.0000 1.9474 0.0000
0.0000 2.0000 0.0000
0.1053 1.0000 0.0000
0.1053 1.0526 0.0000
0.1053 1.1053 0.0000
0.1053 1.1579 0.0000
0.1053 1.2105 0.0000
0.1053 1.2632 0.0000
0.1053 1.3158 0.0000
0.1053 1.3684 0.0000
0.1053 1.4211 0.0000
0.1053 1.4737 0.0000
0.1053 1.5263 0.0000
0.1053 1.5789 0.0000
0.1053 1.6316 0.0000
0.1053 1.6842 0.0000
0.1053 1.7368 0.0000
0.1053 1.7895 0.0000
0.1053 1.8421 0.0000
0.1053 1.8947 0.0000
0.1053 1.9474 0.0000
0.1053 2.0000 0.0000
0.2105 1.0000 0.0000
0.2105 1.0526 0.0000
0.2105 1.1053 0.0000
0.2105 1.1579 0.0000
0.2105 1.2105 0.0000
0.2105 1.2632 0.0000
0.2105 1.3158 0.0000
0.2105 1.3684 0.0000
0.2105 1.4211 0.0000
0.2105 1.4737 0.0000
0.2105 1.5263 0.0000
0.2105 1.5789 0.0000
0.2105 1.6316 0.0000
0.2105 1.6842 0.0000
0.2105 1.7368 0.0000
0.2105 1.7895 0.0000
0.2105 1.8421 0.0000
0.2105 1.8947 0.0000
0.2105 1.9474 0.0000
0.2105 2.0000 0.0000
0.3158 1.0000 0.0000
0.3158 1.0526 0.0000
0.3158 1.1053 0.0000
0.3158 1.1579 0.0000
0.3158 1.2105 0.0000
0.3158 1.2632 0.0000
0.3158 1.3158 0.0000
0.3158 1.3684 0.0000
0.3158 1.4211 0.0000
0.3158 1.4737 0.0000
0.3158 1.5263 0.0000
0.3158 1.5789 0.0000
0.3158 1.6316 0.0000
0.3158 1.6842 0.0000
0.3158 1.7368 0.0000
0.3158 1.7895 0.0000
0.3158 1.8421 0.0000
0.3158 1.8947 0.0000
0.3158 1.9474 0.0000
0.3158 2.0000 0.0000
0.4211 1.0000 0.0000
0.4211 1.0526 0.0000
0.4211 1.1053 0.0000
0.4211 1.1579 0.0000
0.4211 1.2105 0.0000
0.4211 1.2632 0.0000
0.4211 1.3158 0.0000
0.4211 1.3684 0.0000
0.4211 1.4211 0.0000
0.4211 1.4737 0.0000
0.4211 1.5263 0.0000
0.4211 1.5789 0.0000
0.4211 1.6316 0.0000
0.4211 1.6842 0.0000
0.4211 1.7368 0.0000
0.4211 1.7895 0.0000
0.4211 1.8421 0.0000
0.4211 1.8947 0.0000
0.4211 1.9474 0.0000
0.4211 2.0000 0.0000
0.5263 1.0000 0.0000
0.5263 1.0526 0.0000
0.5263 1.1053 0.0000
0.5263 1.1579 0.0000
0.5263 1.2105 0.0000
0.5263 1.2632 0.0000
0.5263 1.3158 0.0000
0.5263 1.3684 0.0000
0.5263 1.4211 0.0000
0.5263 1.4737 0.0000
0.5263 1.5263 0.0000
0.5263 1.5789 0.0000
0.5263 1.6316 0.0000
0.5263 1.6842 0.0000
0.5263 1.7368 0.0000
0.5263 1.7895 0.0000
0.5263 1.8421 0.0000
0.5263 1.8947 0.0000
0.5263 1.9474 0.0000
0.5263 2.0000 0.0000
0.6316 1.0000 0.0000
0.6316 1.0526 0.0000
0.6316 1.1053 0.0000
0.6316 1.1579 0.0000
0.6316 1.2105 0.0000
0.6316 1.2632 0.0000
0.6316 1.3158 0.0000
0.6316 1.3684 0.0000
0.6316 1.4211 0.0000
0.6316 1.4737 0.0000
0.6316 1.5263 0.0000
0.6316 1.5789 0.0000
0.6316 1.6316 0.0000
0.6316 1.6842 0.0000
0.6316 1.7368 0.0000
0.6316 1.7895 0.0000
0.6316 1.8421 0.0000
0.6316 1.8947 0.0000
0.6316 1.9474 0.0000
0.6316 2.0000 0.0000
0.7368 1.0000 0.0000
0.7368 1.0526 0.0000
0.7368 1.1053 0.0000
0.7368 1.1579 0.0000
0.7368 1.2105 0.0000
0.7368 1.2632 0.0000
0.7368 1.3158 0.0000
0.7368 1.3684 0.0000
0.7368 1.4211 0.0000
0.7368 1.4737 0.0000
0.7368 1.5263 0.0000
0.7368 1.5789 0.0000
0.7368 1.6316 0.0000
0.7368 1.6842 0.0000
0.7368 1.7368 0.0000
0.7368 1.7895 0.0000
0.7368 1.8421 0.0000
0.7368 1.8947 0.0000
0.7368 1.9474 0.0000
0.7368 2.0000 0.0000
0.8421 1.0000 0.0000
0.8421 1.0526 0.0000
0.8421 1.1053 0.0000
0.8421 1.1579 0.0000
0.8421 1.2105 0.0000
0.8421 1.2632 0.0000
0.8421 1.3158 0.0000
0.8421 1.3684 0.0000
0.8421 1.4211 0.0000
0.8421 1.4737 0.0000
0.8421 1.5263 0.0000
0.8421 1.5789 0.0000
0.8421 1.6316 0.0000
0.8421 1.6842 0.0000
0.8421 1.7368 0.0000
0.8421 1.7895 0.0000
0.8421 1.8421 0.0000
0.8421 1.8947 0.0000
0.8421 1.9474 0.0000
0.8421 2.0000 0.0000
0.9474 1.0000 0.0000
0.9474 1.0526 0.0000
0.9474 1.1053 0.0000
0.9474 1.1579 0.0000
0.9474 1.2105 0.0000
0.9474 1.2632 0.0000
0.9474 1.3158 0.0000
0.9474 1.3684 0.0000
0.9474 1.4211 0.0000
0.9474 1.4737 0.0000
0.9474 1.5263 0.0000
0.9474 1.5789 0.0000
0.9474 1.6316 0.0000
0.9474 1.6842 0.0000
0.9474 1.7368 0.0000
0.9474 1.7895 0.0000
0.9474 1.8421 0.0000
0.9474 1.8947 0.0000
0.9474 1.9474 0.0000
0.9474 2.0000 0.0000
1.0526 1.0000 0.0000
1.0526 1.0526 0.0000
1.0526 1.1053 0.0000
1.0526 1.1579 0.0000
1.0526 1.2105 0.0000
1.0526 1.2632 0.0000
1.0526 1.3158 0.0000
1.0526 1.3684 0.0000
1.0526 1.4211 0.0000
1.0526 1.4737 0.0000
1.0526 1.5263 0.0000
1.0526 1.5789 0.0000
1.0526 1.6316 0.0000
1.0526 1.6842 0.0000
1.0526 1.7368 0.0000
1.0526 1.7895 0.0000
1.0526 1.8421 0.0000
1.0526 1.8947 0.0000
1.0526 1.9474 0.0000
1.0526 2.0000 0.0000
1.1579 1.0000 0.0000
1.1579 1.0526 0.0000
1.1579 1.1053 0.0000
1.1579 1.1579 0.0000
1.1579 1.2105 0.0000
1.1579 1.2632 0.0000
1.1579 1.3158 0.0000
1.1579 1.3684 0.0000
1.1579 1.4211 0.0000
1.1579 1.4737 0.0000
1.1579 1.5263 0.0000
1.1579 1.5789 0.0000
1.1579 1.6316 0.0000
1.1579 1.6842 0.0000
1.1579 1.7368 0.0000
1.1579 1.7895 0.0000
1.1579 1.8421 0.0000
1.1579 1.8947 0.0000
1.1579 1.9474 0.0000
1.1579 2.0000 0.0000
1.2632 1.0000 0.0000
1.2632 1.0526 0.0000
1.2632 1.1053 0.0000
1.2632 1.1579 0.0000
1.2632 1.2105 0.0000
1.2632 1.2632 0.0000
1.2632 1.3158 0.0000
1.2632 1.3684 0.0000
1.2632 1.4211 0.0000
1.2632 1.4737 0.0000
1.2632 1.5263 0.0000
1.2632 1.5789 0.0000
1.2632 1.6316 0.0000
1.2632 1.6842 0.0000
1.2632 1.7368 0.0000
1.2632 1.7895 0.0000
1.2632 1.8421 0.0000
1.2632 1.8947 0.0000
1.2632 1.9474 0.0000
1.2632 2.0000 0.0000
1.3684 1.0000 0.0000
1.3684 1.0526 0.0000
1.3684 1.1053 0.0000
1.3684 1.1579 0.0000
1.3684 1.2105 0.0000
1.3684 1.2632 0.0000
1.3684 1.3158 0.0000
1.3684 1.3684 0.0000
1.3684 1.4211 0.0000
1.3684 1.4737 0.0000
1.3684 1.5263 0.0000
1.3684 1.5789 0.0000
1.3684 1.6316 0.0000
1.3684 1.6842 0.0000
1.3684 1.7368 0.0000
1.3684 1.7895 0.0000
1.3684 1.8421 0.0000
1.3684 1.8947 0.0000
1.3684 1.9474 0.0000
1.3684 2.0000 0.0000
1.4737 1.0000 0.0000
1.4737 1.0526 0.0000
1.4737 1.1053 0.0000
1.4737 1.1579 0.0000
1.4737 1.2105 0.0000
1.4737 1.2632 0.0000
1.4737 1.3158 0.0000
1.4737 1.3684 0.0000
1.4737 1.4211 0.0000
1.4737 1.4737 0.0000
1.4737 1.5263 0.0000
1.4737 1.5789 0.0000
1.4737 1.6316 0.0000
1.4737 1.6842 0.0000
1.4737 1.7368 0.0000
1.4737 1.7895 0.0000
1.4737 1.8421 0.0000
1.4737 1.8947 0.0000
1.4737 1.9474 0.0000
1.4737 2.0000 0.0000
1.5789 1.0000 0.0000
1.5789 1.0526 0.0000
1.5789 1.1053 0.0000
1.5789 1.1579 0.0000
1.5789 1.2105 0.0000
1.5789 1.2632 0.0000
1.5789 1.3158 0.0000
1.5789 1.3684 0.0000
1.5789 1.4211 0.0000
1.5789 1.4737 0.0000
1.5789 1.5263 0.0000
1.5789 1.5789 0.0000
1.5789 1.6316 0.0000
1.5789 1.6842 0.0000
1.5789 1.7368 0.0000
1.5789 1.7895 0.0000
1.5789 1.8421 0.0000
1.5789 1.8947 0.0000
1.5789 1.9474 0.0000
1.5789 2.0000 0.0000
1.6842 1.0000 0.0000
1.6842 1.0526 0.0000
1.6842 1.1053 0.0000
1.6842 1.1579 0.0000
1.6842 1.2105 0.0000
1.6842 1.2632 0.0000
1.6842 1.3158 0.0000
1.6842 1.3684 0.0000
1.6842 1.4211 0.0000
1.6842 1.4737 0.0000
1.6842 1.5263 0.0000
1.6842 1.5789 0.0000
1.6842 1.6316 0.0000
1.6842 1.6842 0.0000
1.6842 1.7368 0.0000
1.6842 1.7895 0.0000
1.6842 1.8421 0.0000
1.6842 1.8947 0.0000
1.6842 1.9474 0.0000
1.6842 2.0000 0.0000
1.7895 1.0000 0.0000
1.7895 1.0526 0.0000
1.7895 1.1053 0.0000
1.7895 1.1579 0.0000
1.7895 1.2105 0.0000
1.7895 1.2632 0.0000
1.7895 1.3158 0.0000
1.7895 1.3684 0.0000
1.7895 1.4211 0.0000
1.7895 1.4737 0.0000
1.7895 1.5263 0.0000
1.7895 1.5789 0.0000
1.7895 1.6316 0.0000
1.7895 1.6842 0.0000
1.7895 1.7368 0.0000
1.7895 1.7895 0.0000
1.7895 1.8421 0.0000
1.7895 1.8947 0.0000
1.7895 1.9474 0.0000
1.7895 2.0000 0.0000
1.8947 1.0000 0.0000
1.8947 1.0526 0.0000
1.8947 1.1053 0.0000
1.8947 1.1579 0.0000
1.8947 1.2105 0.0000
1.8947 1.2632 0.0000
1.8947 1.3158 0.0000
1.8947 1.3684 0.0000
1.8947 1.4211 0.0000
1.8947 1.4737 0.0000
1.8947 1.5263 0.0000
1.8947 1.5789 0.0000
1.8947 1.6316 0.0000
1.8947 1.6842 0.0000
1.8947 1.7368 0.0000
1.8947 1.7895 0.0000
1.8947 1.8421 0.0000
1.8947 1.8947 0.0000
1.8947 1.9474 0.0000
1.8947 2.0000 0.0000
2.0000 1.0000 0.0000
2.0000 1.0526 0.0000
2.0000 1.1053 0.0000
2.0000 1.1579 0.0000
2.0000 1.2105 0.0000
2.0000 1.2632 0.0000
2.0000 1.3158 0.0000
2.0000 1.3684 0.0000
2.0000 1.4211 0.0000
2.0000 1.4737 0.0000
2.0000 1.5263 0.0000
2.0000 1.5789 0.0000
2.0000 1.6316 0.0000
2.0000 1.6842 0.0000
2.0000 1.7368 0.0000
2.0000 1.7895 0.0000
2.0000 1.8421 0.0000
2.0000 1.8947 0.0000
2.0000 1.9474 0.0000
2.0000 2.0000 0.0000
0.0526 1.0263 0.0000
0.0526 1.0789 0.0000
0.0526 1.1316 0.0000
0.0526 1.1842 0.0000
0.0526 1.2368 0.0000
0.0526 1.2895 0.0000
0.0526 1.3421 0.0000
0.0526 1.3947 0.0000
0.0526 1.4474 0.0000
0.0526 1.5000 0.0000
0.0526 1.5526 0.0000
0.0526 1.6053 0.0000
0.0526 1.6579 0.0000
0.0526 1.7105 0.0000
0.0526 1.7632 0.0000
0.0526 1.8158 0.0000
0.0526 1.8684 0.0000
0.0526 1.9211 0.0000
0.0526 1.9737 0.0000
0.1579 1.0263 0.0000
0.1579 1.0789 0.0000
0.1579 1.1316 0.0000
0.1579 1.1842 0.0000
0.1579 1.2368 0.0000
0.1579 1.2895 0.0000
0.1579 1.3421 0.0000
0.1579 1.3947 0.0000
0.1579 1.4474 0.0000
0.1579 1.5000 0.0000
0.1579 1.5526 0.0000
0.1579 1.6053 0.0000
0.1579 1.6579 0.0000
0.1579 1.7105 0.0000
0.1579 1.7632 0.0000
0.1579 1.8158 0.0000
0.1579 1.8684 0.0000
0.1579 1.9211 0.0000
0.1579 1.9737 0.0000
0.2632 1.0263 0.0000
0.2632 1.0789 0.0000
0.2632 1.1316 0.0000
0.2632 1.1842 0.0000
0.2632 1.2368 0.0000
0.2632 1.2895 0.0000
0.2632 1.3421 0.0000
0.2632 1.3947 0.0000
0.2632 1.4474 0.0000
0.2632 1.5000 0.0000
0.2632 1.5526 0.0000
0.2632 1.6053 0.0000
0.2632 1.6579 0.0000
0.2632 1.7105 0.0000
0.2632 1.7632 0.0000
0.2632 1.8158 0.0000
0.2632 1.8684 0.0000
0.2632 1.9211 0.0000
0.2632 1.9737 0.0000
0.3684 1.0263 0.0000
0.3684 1.0789 0.0000
0.3684 1.1316 0.0000
0.3684 1.1842 0.0000
[...]
         <PointData>
            <DataArray Name="displacement" NumberOfComponents="3" format="ascii" type="Float64">
-2.40220e-18 -2.68477e-19        00000 
-4.83016e-19 -1.44905e-18        00000 
 1.90717e-18  9.53587e-19        00000 
-7.71285e-19 -1.57252e-18        00000 
       00000  1.01319e-18        00000 
 8.85036e-19 -1.92968e-19        00000 
 5.95992e-19  5.95992e-19        00000 
 1.94693e-19 -1.27299e-19        00000 
-1.19198e-19  4.17194e-19        00000 
 3.00610e-19        00000        00000 
-2.53297e-19  7.74790e-19        00000 
 5.59743e-19 -2.62087e-19        00000 
 5.95992e-20 -1.13238e-18        00000 
 5.37958e-20  2.65823e-20        00000 
 1.78798e-19 -1.01319e-18        00000 
-9.65978e-19  1.29920e-18        00000 
 4.76794e-19 -8.34389e-19        00000 
-1.44303e-18 -9.62022e-19        00000 
 2.88530e-18  3.60663e-19        00000 
-7.21325e-19  5.40573e-19        00000 
 2.89845e-02  1.83976e-02        00000 
 2.20127e-02  1.40365e-02        00000 
 1.78591e-02  1.12166e-02        00000 
 1.46644e-02  9.32478e-03        00000 
 1.19472e-02  8.01141e-03        00000 
 9.50848e-03  7.08465e-03        00000 
 7.24453e-03  6.43333e-03        00000 
 5.09315e-03  5.99039e-03        00000 
 3.01235e-03  5.71510e-03        00000 
 9.70404e-04  5.58403e-03        00000 
-1.05947e-03  5.58653e-03        00000 
-3.10265e-03  5.72285e-03        00000 
-5.18611e-03  6.00418e-03        00000 
-7.34199e-03  6.45471e-03        00000 
-9.61317e-03  7.11633e-03        00000 
-1.20635e-02  8.05785e-03        00000 
-1.47991e-02  9.39274e-03        00000 
-1.80222e-02  1.13144e-02        00000 
-2.22122e-02  1.41685e-02        00000 
-2.91982e-02  1.85560e-02        00000 
 5.19579e-02  3.37502e-02        00000 
 4.38289e-02  3.02829e-02        00000 
 3.65133e-02  2.70481e-02        00000 
 3.02422e-02  2.44020e-02        00000 
 2.47040e-02  2.23324e-02        00000 
 1.96682e-02  2.07557e-02        00000 
 1.49782e-02  1.95897e-02        00000 
 1.05234e-02  1.87695e-02        00000 
 6.22085e-03  1.82485e-02        00000 
 2.00360e-03  1.79976e-02        00000 
-2.18694e-03  1.80026e-02        00000 
-6.40690e-03  1.82639e-02        00000 
-1.07152e-02  1.87961e-02        00000 
-1.51794e-02  1.96293e-02        00000 
-1.98837e-02  2.08107e-02        00000 
-2.49399e-02  2.24058e-02        00000 
-3.05055e-02  2.44965e-02        00000 
-3.68076e-02  2.71644e-02        00000 
-4.41440e-02  3.04177e-02        00000 
-5.22738e-02  3.39021e-02        00000 
 7.33587e-02  5.24668e-02        00000 
 6.33782e-02  4.91514e-02        00000 
 5.40548e-02  4.61859e-02        00000 
 4.53921e-02  4.35701e-02        00000 
 3.73733e-02  4.13636e-02        00000 
 2.98897e-02  3.95775e-02        00000 
 2.28210e-02  3.81947e-02        00000 
 1.60567e-02  3.71892e-02        00000 
 9.49902e-03  3.65361e-02        00000 
 3.06050e-03  3.62176e-02        00000 
-3.34024e-03  3.62241e-02        00000 
-9.78256e-03  3.65560e-02        00000 
-1.63481e-02  3.72229e-02        00000 
-2.31248e-02  3.82433e-02        00000 
-3.02110e-02  3.96421e-02        00000 
-3.77173e-02  4.14451e-02        00000 
-4.57627e-02  4.36688e-02        00000 
-5.44508e-02  4.63012e-02        00000 
-6.37904e-02  4.92829e-02        00000 
-7.37705e-02  5.26149e-02        00000 
 9.35262e-02  7.50075e-02        00000 
 8.15747e-02  7.19156e-02        00000 
 7.02504e-02  6.91419e-02        00000 
 5.95250e-02  6.66980e-02        00000 
 4.93505e-02  6.45928e-02        00000 
 3.96662e-02  6.28406e-02        00000 
 3.03900e-02  6.14479e-02        00000 
 2.14308e-02  6.04130e-02        00000 
 1.26956e-02  5.97302e-02        00000 
 4.09295e-03  5.93941e-02        00000 
-4.46719e-03  5.94012e-02        00000 
-1.30742e-02  5.97516e-02        00000 
-2.18180e-02  6.04489e-02        00000 
-3.07905e-02  6.14987e-02        00000 
-4.00847e-02  6.29065e-02        00000 
-4.97914e-02  6.46739e-02        00000 
-5.99908e-02  6.67944e-02        00000 
-7.07396e-02  6.92533e-02        00000 
-8.20786e-02  7.20421e-02        00000 
-9.40288e-02  7.51497e-02        00000 
 1.12416e-01  1.01514e-01        00000 
 9.85319e-02  9.86307e-02        00000 
 8.52831e-02  9.60562e-02        00000 
 7.26149e-02  9.37886e-02        00000 
 6.04696e-02  9.18327e-02        00000 
 4.87823e-02  9.01943e-02        00000 
 3.74810e-02  8.88798e-02        00000 
 2.64856e-02  8.78937e-02        00000 
 1.57107e-02  8.72382e-02        00000 
 5.06800e-03  8.69139e-02        00000 
-5.53198e-03  8.69209e-02        00000 
-1.61791e-02  8.72593e-02        00000 
-2.69628e-02  8.79289e-02        00000 
-3.79715e-02  8.89292e-02        00000 
-4.92905e-02  9.02578e-02        00000 
-6.09994e-02  9.19103e-02        00000 
-7.31688e-02  9.38802e-02        00000 
-8.58596e-02  9.61618e-02        00000 
-9.91222e-02  9.87506e-02        00000 
-1.13004e-01  1.01649e-01        00000 
 1.29991e-01  1.31822e-01        00000 
 1.14273e-01  1.29151e-01        00000 
 9.92023e-02  1.26771e-01        00000 
 8.47116e-02  1.24680e-01        00000 
 7.07331e-02  1.22879e-01        00000 
 5.71980e-02  1.21370e-01        00000 
 4.40334e-02  1.20158e-01        00000 
 3.11622e-02  1.19247e-01        00000 
 1.85031e-02  1.18640e-01        00000 
 5.97141e-03  1.18340e-01        00000 
-6.51898e-03  1.18346e-01        00000 
-1.90550e-02  1.18660e-01        00000 
-3.17228e-02  1.19281e-01        00000 
-4.46070e-02  1.20205e-01        00000 
-5.77889e-02  1.21430e-01        00000 
-7.13452e-02  1.22951e-01        00000 
-8.53473e-02  1.24766e-01        00000 
-9.98602e-02  1.26870e-01        00000 
-1.14944e-01  1.29263e-01        00000 
-1.30659e-01  1.31947e-01        00000 
 1.46225e-01  1.65690e-01        00000 
 1.28800e-01  1.63233e-01        00000 
 1.12032e-01  1.61046e-01        00000 
 9.58451e-02  1.59128e-01        00000 
 8.01678e-02  1.57478e-01        00000 
 6.49269e-02  1.56098e-01        00000 
 5.00481e-02  1.54991e-01        00000 
 3.54544e-02  1.54159e-01        00000 
 2.10658e-02  1.53605e-01        00000 
 6.80050e-03  1.53330e-01        00000 
-7.42498e-03  1.53336e-01        00000 
-2.16946e-02  1.53623e-01        00000 
-3.60917e-02  1.54189e-01        00000 
-5.06983e-02  1.55033e-01        00000 
-6.55941e-02  1.56153e-01        00000 
-8.08559e-02  1.57544e-01        00000 
-9.65564e-02  1.59206e-01        00000 
-1.12765e-01  1.61137e-01        00000 
-1.29546e-01  1.63336e-01        00000 
-1.46968e-01  1.65806e-01        00000 
 1.61114e-01  2.02847e-01        00000 
 1.42119e-01  2.00602e-01        00000 
 1.23785e-01  1.98606e-01        00000 
 1.06037e-01  1.96857e-01        00000 
 8.87967e-02  1.95354e-01        00000 
 7.19902e-02  1.94099e-01        00000 
 5.55413e-02  1.93092e-01        00000 
 3.93724e-02  1.92337e-01        00000 
 2.34046e-02  1.91834e-01        00000 
 7.55706e-03  1.91585e-01        00000 
-8.25162e-03  1.91590e-01        00000 
-2.41034e-02  1.91850e-01        00000 
-4.00797e-02  1.92364e-01        00000 
-5.62613e-02  1.93131e-01        00000 
-7.27272e-02  1.94148e-01        00000 
-8.95545e-02  1.95414e-01        00000 
-1.06818e-01  1.96928e-01        00000 
-1.24588e-01  1.98689e-01        00000 
-1.42934e-01  2.00696e-01        00000 
-1.61925e-01  2.02952e-01        00000 
 1.74662e-01  2.43011e-01        00000 
 1.54236e-01  2.40978e-01        00000 
 1.34475e-01  2.39170e-01        00000 
 1.15302e-01  2.37586e-01        00000 
 9.66378e-02  2.36226e-01        00000 
 7.84057e-02  2.35091e-01        00000 
 6.05286e-02  2.34181e-01        00000 
 4.29287e-02  2.33498e-01        00000 
 2.55270e-02  2.33043e-01        00000 
 8.24373e-03  2.32818e-01        00000 
-9.00144e-03  2.32823e-01        00000 
-2.62890e-02  2.33058e-01        00000 
-4.36992e-02  2.33522e-01        00000 
-6.13120e-02  2.34215e-01        00000 
-7.92060e-02  2.35134e-01        00000 
-9.74589e-02  2.36280e-01        00000 
-1.16146e-01  2.37649e-01        00000 
-1.35341e-01  2.39243e-01        00000 
-1.55114e-01  2.41061e-01        00000 
-1.75536e-01  2.43105e-01        00000 
 1.86877e-01  2.85901e-01        00000 
 1.65160e-01  2.84077e-01        00000 
 1.44112e-01  2.82456e-01        00000 
 1.23654e-01  2.81035e-01        00000 
 1.03705e-01  2.79814e-01        00000 
 8.41881e-02  2.78794e-01        00000 
 6.50240e-02  2.77976e-01        00000 
 4.61344e-02  2.77361e-01        00000 
 2.74404e-02  2.76951e-01        00000 
 8.86305e-03  2.76748e-01        00000 
-9.67692e-03  2.76752e-01        00000 
-2.82586e-02  2.76964e-01        00000 
-4.69613e-02  2.77382e-01        00000 
-6.58639e-02  2.78005e-01        00000 
-8.50453e-02  2.78831e-01        00000 
-1.04584e-01  2.79860e-01        00000 
-1.24555e-01  2.81090e-01        00000 
-1.45036e-01  2.82520e-01        00000 
-1.66096e-01  2.84151e-01        00000 
-1.87809e-01  2.85984e-01        00000 
 1.97769e-01  3.31239e-01        00000 
 1.74899e-01  3.29624e-01        00000 
 1.52704e-01  3.28187e-01        00000 
 1.31103e-01  3.26925e-01        00000 
 1.10012e-01  3.25839e-01        00000 
 8.93521e-02  3.24929e-01        00000 
 6.90415e-02  3.24196e-01        00000 
 4.90012e-02  3.23644e-01        00000 
 2.91527e-02  3.23275e-01        00000 
 9.41781e-03  3.23092e-01        00000 
-1.02807e-02  3.23095e-01        00000 
-3.00200e-02  3.23285e-01        00000 
-4.98775e-02  3.23661e-01        00000 
-6.99312e-02  3.24220e-01        00000 
-9.02596e-02  3.24960e-01        00000 
-1.10942e-01  3.25878e-01        00000 
-1.32056e-01  3.26972e-01        00000 
-1.53680e-01  3.28241e-01        00000 
-1.75887e-01  3.29687e-01        00000 
-1.98753e-01  3.31311e-01        00000 
 2.07337e-01  3.78752e-01        00000 
 1.83455e-01  3.77346e-01        00000 
 1.60258e-01  3.76092e-01        00000 
 1.37661e-01  3.74986e-01        00000 
 1.15576e-01  3.74027e-01        00000 
 9.39165e-02  3.73217e-01        00000 
 7.26000e-02  3.72561e-01        00000 
 5.15453e-02  3.72063e-01        00000 
 3.06745e-02  3.71728e-01        00000 
 9.91185e-03  3.71561e-01        00000 
-1.08165e-02  3.71564e-01        00000 
-3.15838e-02  3.71736e-01        00000 
-5.24639e-02  3.72077e-01        00000 
-7.35326e-02  3.72580e-01        00000 
-9.48676e-02  3.73243e-01        00000 
-1.16549e-01  3.74058e-01        00000 
-1.38659e-01  3.75024e-01        00000 
-1.61280e-01  3.76137e-01        00000 
-1.84490e-01  3.77398e-01        00000 
-2.08369e-01  3.78813e-01        00000 
 2.15568e-01  4.28166e-01        00000 
 1.90819e-01  4.26972e-01        00000 
 1.66776e-01  4.25900e-01        00000 
 1.43342e-01  4.24944e-01        00000 
 1.20418e-01  4.24102e-01        00000 
 9.79107e-02  4.23380e-01        00000 
 7.57298e-02  4.22786e-01        00000 
 5.37928e-02  4.22329e-01        00000 
 3.20236e-02  4.22018e-01        00000 
 1.03514e-02  4.21862e-01        00000 
-1.12905e-02  4.21864e-01        00000 
-3.29676e-02  4.22025e-01        00000 
-5.47466e-02  4.22340e-01        00000 
-7.66982e-02  4.22802e-01        00000 
-9.88986e-02  4.23401e-01        00000 
-1.21430e-01  4.24128e-01        00000 
-1.44380e-01  4.24974e-01        00000 
-1.67839e-01  4.25937e-01        00000 
-1.91897e-01  4.27015e-01        00000 
-2.16643e-01  4.28217e-01        00000 
 2.22417e-01  4.79194e-01        00000 
 1.96965e-01  4.78220e-01        00000 
 1.72254e-01  4.77332e-01        00000 
 1.48164e-01  4.76520e-01        00000 
 1.24577e-01  4.75785e-01        00000 
 1.01382e-01  4.75135e-01        00000 
 7.84803e-02  4.74585e-01        00000 
 5.57871e-02  4.74151e-01        00000 
 3.32296e-02  4.73850e-01        00000 
 1.07469e-02  4.73697e-01        00000 
-1.17135e-02  4.73699e-01        00000 
-3.42013e-02  4.73856e-01        00000 
-5.67690e-02  4.74161e-01        00000 
-7.94776e-02  4.74598e-01        00000 
-1.02399e-01  4.75153e-01        00000 
-1.25620e-01  4.75806e-01        00000 
-1.49236e-01  4.76545e-01        00000 
-1.73353e-01  4.77362e-01        00000 
-1.98082e-01  4.78256e-01        00000 
-2.23532e-01  4.79237e-01        00000 
 2.27794e-01  5.31499e-01        00000 
 2.01846e-01  5.30760e-01        00000 
 1.76684e-01  5.30063e-01        00000 
 1.52150e-01  5.29401e-01        00000 
 1.28098e-01  5.28773e-01        00000 
 1.04395e-01  5.28191e-01        00000 
 8.09261e-02  5.27674e-01        00000 
 5.75973e-02  5.27247e-01        00000 
 3.43415e-02  5.26941e-01        00000 
 1.11163e-02  5.26781e-01        00000 
-1.21040e-02  5.26783e-01        00000 
-3.53344e-02  5.26947e-01        00000 
-5.86009e-02  5.27257e-01        00000 
-8.19457e-02  5.27688e-01        00000 
-1.05436e-01  5.28209e-01        00000 
-1.29166e-01  5.28795e-01        00000 
-1.53248e-01  5.29426e-01        00000 
-1.77812e-01  5.30093e-01        00000 
-2.02995e-01  5.30794e-01        00000 
-2.28945e-01  5.31539e-01        00000 
 2.31563e-01  5.84617e-01        00000 
 2.05396e-01  5.84132e-01        00000 
 1.80035e-01  5.83653e-01        00000 
 1.55294e-01  5.83182e-01        00000 
 1.31006e-01  5.82716e-01        00000 
 1.07012e-01  5.82253e-01        00000 
 8.31585e-02  5.81800e-01        00000 
 5.93291e-02  5.81394e-01        00000 
 3.54433e-02  5.81072e-01        00000 
 1.14878e-02  5.80901e-01        00000 
-1.24912e-02  5.80903e-01        00000 
-3.64522e-02  5.81080e-01        00000 
-6.03489e-02  5.81407e-01        00000 
-8.41947e-02  5.81819e-01        00000 
-1.08070e-01  5.82277e-01        00000 
-1.32092e-01  5.82745e-01        00000 
-1.56412e-01  5.83214e-01        00000 
-1.81185e-01  5.83689e-01        00000 
-2.06569e-01  5.84172e-01        00000 
-2.32742e-01  5.84660e-01        00000 
 2.33637e-01  6.37849e-01        00000 
 2.07586e-01  6.37628e-01        00000 
 1.82253e-01  6.37417e-01        00000 
 1.57494e-01  6.37253e-01        00000 
 1.33186e-01  6.37127e-01        00000 
 1.09170e-01  6.36998e-01        00000 
 8.52347e-02  6.36810e-01        00000 
 6.11045e-02  6.36530e-01        00000 
 3.66750e-02  6.36284e-01        00000 
 1.19450e-02  6.36083e-01        00000 
-1.29603e-02  6.36087e-01        00000 
-3.76958e-02  6.36297e-01        00000 
-6.21364e-02  6.36551e-01        00000 
-8.62833e-02  6.36839e-01        00000 
-1.10241e-01  6.37035e-01        00000 
-1.34284e-01  6.37170e-01        00000 
-1.58625e-01  6.37302e-01        00000 
-1.83415e-01  6.37471e-01        00000 
-2.08774e-01  6.37684e-01        00000 
-2.34835e-01  6.37908e-01        00000 
 2.34259e-01  6.90299e-01        00000 
 2.08550e-01  6.90285e-01        00000 
 1.83295e-01  6.90366e-01        00000 
 1.58543e-01  6.90614e-01        00000 
 1.34272e-01  6.91062e-01        00000 
 1.10389e-01  6.91702e-01        00000 
 8.67160e-02  6.92457e-01        00000 
 6.29240e-02  6.93112e-01        00000 
 3.81885e-02  6.93213e-01        00000 
 1.24599e-02  6.93453e-01        00000 
-1.34854e-02  6.93460e-01        00000 
-3.92194e-02  6.93232e-01        00000 
-6.39660e-02  6.93144e-01        00000 
-8.77749e-02  6.92501e-01        00000 
-1.11470e-01  6.91758e-01        00000 
-1.35381e-01  6.91128e-01        00000 
-1.59682e-01  6.90689e-01        00000 
-1.84463e-01  6.90447e-01        00000 
-2.09741e-01  6.90369e-01        00000 
-2.35464e-01  6.90383e-01        00000 
 2.34277e-01  7.41543e-01        00000 
 2.08760e-01  7.41524e-01        00000 
 1.83486e-01  7.41527e-01        00000 
 1.58611e-01  7.41736e-01        00000 
 1.34156e-01  7.42365e-01        00000 
 1.10057e-01  7.43677e-01        00000 
 8.61583e-02  7.46021e-01        00000 
 6.21406e-02  7.49920e-01        00000 
 3.75183e-02  7.56127e-01        00000 
 1.22345e-02  7.58977e-01        00000 
-1.32716e-02  7.58987e-01        00000 
-3.85608e-02  7.56158e-01        00000 
-6.31941e-02  7.49971e-01        00000 
-8.72282e-02  7.46092e-01        00000 
-1.11149e-01  7.43765e-01        00000 
-1.35273e-01  7.42468e-01        00000 
-1.59755e-01  7.41848e-01        00000 
-1.84656e-01  7.41643e-01        00000 
-2.09950e-01  7.41639e-01        00000 
-2.35483e-01  7.41658e-01        00000 
 1.21508e-02  7.57281e-03        00000 
 9.58324e-03  6.00019e-03        00000 
 7.87007e-03  4.89512e-03        00000 
 6.47019e-03  4.12883e-03        00000 
 5.23427e-03  3.58880e-03        00000 
 4.09685e-03  3.20673e-03        00000 
 3.02217e-03  2.94116e-03        00000 
 1.98767e-03  2.76661e-03        00000 
 9.77257e-04  2.66778e-03        00000 
-2.19074e-05  2.63649e-03        00000 
-1.02135e-03  2.67025e-03        00000 
-2.03261e-03  2.77179e-03        00000 
-3.06868e-03  2.94961e-03        00000 
-4.14592e-03  3.21944e-03        00000 
-5.28744e-03  3.60749e-03        00000 
-6.53020e-03  4.15629e-03        00000 
-7.94188e-03  4.93555e-03        00000 
-9.67524e-03  6.05907e-03        00000 
-1.22703e-02  7.65796e-03        00000 
 3.68523e-02  2.40283e-02        00000 
 3.00124e-02  2.04041e-02        00000 
 2.47219e-02  1.77630e-02        00000 
 2.02867e-02  1.58022e-02        00000 
 1.63671e-02  1.43473e-02        00000 
 1.27782e-02  1.32799e-02        00000 
 9.40707e-03  1.25189e-02        00000 
 6.17804e-03  1.20100e-02        00000 
 3.03501e-03  1.17189e-02        00000 
-6.77347e-05  1.16264e-02        00000 
-3.17145e-03  1.17264e-02        00000 
-6.31755e-03  1.20257e-02        00000 
-9.55214e-03  1.25438e-02        00000 
-1.29321e-02  1.33163e-02        00000 
-1.65347e-02  1.43983e-02        00000 
-2.04747e-02  1.58722e-02        00000 
-2.49382e-02  1.78573e-02        00000 
-3.02610e-02  2.05262e-02        00000 
-3.71170e-02  2.41724e-02        00000 
 5.81665e-02  4.12704e-02        00000 
 4.94946e-02  3.80129e-02        00000 
 4.15647e-02  3.51181e-02        00000 
 3.44151e-02  3.27268e-02        00000 
 2.78834e-02  3.08195e-02        00000 
 2.18112e-02  2.93468e-02        00000 
 1.60702e-02  2.82583e-02        00000 
 1.05572e-02  2.75124e-02        00000 
 5.18685e-03  2.70790e-02        00000 
-1.15540e-04  2.69403e-02        00000 
-5.41957e-03  2.70906e-02        00000 
-1.07950e-02  2.75361e-02        00000 
-1.63170e-02  2.82952e-02        00000 
-2.20716e-02  2.93985e-02        00000 
-2.81628e-02  3.08880e-02        00000 
-3.47195e-02  3.28139e-02        00000 
-4.18974e-02  3.52248e-02        00000 
-4.98510e-02  3.81377e-02        00000 
-5.85320e-02  4.14122e-02        00000 
 7.80011e-02  6.19838e-02        00000 
 6.73506e-02  5.89450e-02        00000 
 5.73377e-02  5.62406e-02        00000 
 4.79308e-02  5.38907e-02        00000 
 3.90793e-02  5.19246e-02        00000 
 3.06934e-02  5.03456e-02        00000 
 2.26725e-02  4.91425e-02        00000 
 1.49175e-02  4.82997e-02        00000 
 7.33510e-03  4.78030e-02        00000 
-1.63406e-04  4.76431e-02        00000 
-7.66396e-03  4.78167e-02        00000 
-1.52526e-02  4.83273e-02        00000 
-2.30182e-02  4.91847e-02        00000 
-3.10546e-02  5.04030e-02        00000 
-3.94607e-02  5.19979e-02        00000 
-4.83366e-02  5.39802e-02        00000 
-5.77691e-02  5.63462e-02        00000 
-6.78026e-02  5.90663e-02        00000 
-7.84604e-02  6.21209e-02        00000 
 9.65501e-02  8.66184e-02        00000 
 8.39455e-02  8.37883e-02        00000 
 7.19497e-02  8.12720e-02        00000 
 6.05164e-02  7.90767e-02        00000 
 4.95873e-02  7.72112e-02        00000 
 3.90938e-02  7.56851e-02        00000 
 2.89557e-02  7.45021e-02        00000 
 1.90857e-02  7.36619e-02        00000 
 9.39407e-03  7.31622e-02        00000 
-2.09555e-04  7.30006e-02        00000 
-9.81536e-03  7.31763e-02        00000 
-1.95136e-02  7.36903e-02        00000 
-2.93947e-02  7.45449e-02        00000 
-3.95484e-02  7.57425e-02        00000 
-5.00618e-02  7.72833e-02        00000 
-6.10144e-02  7.91634e-02        00000 
-7.24719e-02  8.13733e-02        00000 
-8.44872e-02  8.39042e-02        00000 
-9.70981e-02  8.67493e-02        00000 
 1.13840e-01  1.15138e-01        00000 
 9.93563e-02  1.12512e-01        00000 