<?xml version="1.0" encoding="utf-8"?>
<VTKFile byte_order="LittleEndian" type="UnstructuredGrid" version="0.1">
   <UnstructuredGrid>
      <Piece NumberOfCells="1444" NumberOfPoints="761">
         <Points>
            <DataArray Name="Points" NumberOfComponents="3" format="ascii" type="Float32">
0.0000 1.0000 0.0000
0.0000 1.0526 0.0000
0.0000 1.1053 0.0000
0.0000 1.1579 0.0000
0.0000 1.2105 0.0000
0.0000 1.2632 0.0000
0.0000 1.3158 0.0000
0.0000 1.3684 0.0000
0.0000 1.4211 0.0000
0.0000 1.4737 0.0000
0.0000 1.5263 0.0000
0.0000 1.5789 0.0000
0.0000 1.6316 0.0000
0.0000 1.6842 0.0000
0.0000 1.7368 0.0000
0.0000 1.7895 0.0000
0.0000 1.8421 0.0000
0.0000 1.8947 0.0000
0.0000 1.9474 0.0000
0.0000 2.0000 0.0000
0.1053 1.0000 0.0000
0.1053 1.0526 0.0000
0.1053 1.1053 0.0000
0.1053 1.1579 0.0000
0.1053 1.2105 0.0000
0.1053 1.2632 0.0000
0.1053 1.3158 0.0000
0.1053 1.3684 0.0000
0.1053 1.4211 0.0000
0.1053 1.4737 0.0000
0.1053 1.5263 0.0000
0.1053 1.5789 0.0000
0.1053 1.6316 0.0000
0.1053 1.6842 0.0000
0.1053 1.7368 0.0000
0.1053 1.7895 0.0000
0.1053 1.8421 0.0000
0.1053 1.8947 0.0000
0.1053 1.9474 0.0000
0.1053 2.0000 0.0000
0.2105 1.0000 0.0000
0.2105 1.0526 0.0000
0.2105 1.1053 0.0000
0.2105 1.1579 0.0000
0.2105 1.2105 0.0000
0.2105 1.2632 0.0000
0.2105 1.3158 0.0000
0.2105 1.3684 0.0000
0.2105 1.4211 0.0000
0.2105 1.4737 0.0000
0.2105 1.5263 0.0000
0.2105 1.5789 0.0000
0.2105 1.6316 0.0000
0.2105 1.6842 0.0000
0.2105 1.7368 0.0000
0.2105 1.7895 0.0000
0.2105 1.8421 0.0000
0.2105 1.8947 0.0000
0.2105 1.9474 0.0000
0.2105 2.0000 0.0000
0.3158 1.0000 0.0000
0.3158 1.0526 0.0000
0.3158 1.1053 0.0000
0.3158 1.1579 0.0000
0.3158 1.2105 0.0000
0.3158 1.2632 0.0000
0.3158 1.3158 0.0000
0.3158 1.3684 0.0000
0.3158 1.4211 0.0000
0.3158 1.4737 0.0000
0.3158 1.5263 0.0000
0.3158 1.5789 0.0000
0.3158 1.6316 0.0000
0.3158 1.6842 0.0000
0.3158 1.7368 0.0000
0.3158 1.7895 0.0000
0.3158 1.8421 0.0000
0.3158 1.8947 0.0000
0.3158 1.9474 0.0000
0.3158 2.0000 0.0000
0.4211 1.0000 0.0000
0.4211 1.0526 0.0000
0.4211 1.1053 0.0000
0.4211 1.1579 0.0000
0.4211 1.2105 0.0000
0.4211 1.2632 0.0000
0.4211 1.3158 0.0000
0.4211 1.3684 0.0000
0.4211 1.4211 0.0000
0.4211 1.4737 0.0000
0.4211 1.5263 0.0000
0.4211 1.5789 0.0000
0.4211 1.6316 0.0000
0.4211 1.6842 0.0000
0.4211 1.7368 0.0000
0.4211 1.7895 0.0000
0.4211 1.8421 0.0000
0.4211 1.8947 0.0000
0.4211 1.9474 0.0000
0.4211 2.0000 0.0000
0.5263 1.0000 0.0000
0.5263 1.0526 0.0000
0.5263 1.1053 0.0000
0.5263 1.1579 0.0000
0.5263 1.2105 0.0000
0.5263 1.2632 0.0000
0.5263 1.3158 0.0000
0.5263 1.3684 0.0000
0.5263 1.4211 0.0000
0.5263 1.4737 0.0000
0.5263 1.5263 0.0000
0.5263 1.5789 0.0000
0.5263 1.6316 0.0000
0.5263 1.6842 0.0000
0.5263 1.7368 0.0000
0.5263 1.7895 0.0000
0.5263 1.8421 0.0000
0.5263 1.8947 0.0000
0.5263 1.9474 0.0000
0.5263 2.0000 0.0000
0.6316 1.0000 0.0000
0.6316 1.0526 0.0000
0.6316 1.1053 0.0000
0.6316 1.1579 0.0000
0.6316 1.2105 0.0000
0.6316 1.2632 0.0000
0.6316 1.3158 0.0000
0.6316 1.3684 0.0000
0.6316 1.4211 0.0000
0.6316 1.4737 0.0000
0.6316 1.5263 0.0000
0.6316 1.5789 0.0000
0.6316 1.6316 0.0000
0.6316 1.6842 0.0000
0.6316 1.7368 0.0000
0.6316 1.7895 0.0000
0.6316 1.8421 0.0000
0.6316 1.8947 0.0000
0.6316 1.9474 0.0000
0.6316 2.0000 0.0000
0.7368 1.0000 0.0000
0.7368 1.0526 0.0000
0.7368 1.1053 0.0000
0.7368 1.1579 0.0000
0.7368 1.2105 0.0000
0.7368 1.2632 0.0000
0.7368 1.3158 0.0000
0.7368 1.3684 0.0000
0.7368 1.4211 0.0000
0.7368 1.4737 0.0000
0.7368 1.5263 0.0000
0.7368 1.5789 0.0000
0.7368 1.6316 0.0000
0.7368 1.6842 0.0000
0.7368 1.7368 0.0000
0.7368 1.7895 0.0000
0.7368 1.8421 0.0000
0.7368 1.8947 0.0000
0.7368 1.9474 0.0000
0.7368 2.0000 0.0000
0.8421 1.0000 0.0000
0.8421 1.0526 0.0000
0.8421 1.1053 0.0000
0.8421 1.1579 0.0000
0.8421 1.2105 0.0000
0.8421 1.2632 0.0000
0.8421 1.3158 0.0000
0.8421 1.3684 0.0000
0.8421 1.4211 0.0000
0.8421 1.4737 0.0000
0.8421 1.5263 0.0000
0.8421 1.5789 0.0000
0.8421 1.6316 0.0000
0.8421 1.6842 0.0000
0.8421 1.7368 0.0000
0.8421 1.7895 0.0000
0.8421 1.8421 0.0000
0.8421 1.8947 0.0000
0.8421 1.9474 0.0000
0.8421 2.0000 0.0000
0.9474 1.0000 0.0000
0.9474 1.0526 0.0000
0.9474 1.1053 0.0000
0.9474 1.1579 0.0000
0.9474 1.2105 0.0000
0.9474 1.2632 0.0000
0.9474 1.3158 0.0000
0.9474 1.3684 0.0000
0.9474 1.4211 0.0000
0.9474 1.4737 0.0000
0.9474 1.5263 0.0000
0.9474 1.5789 0.0000
0.9474 1.6316 0.0000
0.9474 1.6842 0.0000
0.9474 1.7368 0.0000
0.9474 1.7895 0.0000
0.9474 1.8421 0.0000
0.9474 1.8947 0.0000
0.9474 1.9474 0.0000
0.9474 2.0000 0.0000
1.0526 1.0000 0.0000
1.0526 1.0526 0.0000
1.0526 1.1053 0.0000
1.0526 1.1579 0.0000
1.0526 1.2105 0.0000
1.0526 1.2632 0.0000
1.0526 1.3158 0.0000
1.0526 1.3684 0.0000
1.0526 1.4211 0.0000
1.0526 1.4737 0.0000
1.0526 1.5263 0.0000
1.0526 1.5789 0.0000
1.0526 1.6316 0.0000
1.0526 1.6842 0.0000
1.0526 1.7368 0.0000
1.0526 1.7895 0.0000
1.0526 1.8421 0.0000
1.0526 1.8947 0.0000
1.0526 1.9474 0.0000
1.0526 2.0000 0.0000
1.1579 1.0000 0.0000
1.1579 1.0526 0.0000
1.1579 1.1053 0.0000
1.1579 1.1579 0.0000
1.1579 1.2105 0.0000
1.1579 1.2632 0.0000
1.1579 1.3158 0.0000
1.1579 1.3684 0.0000
1.1579 1.4211 0.0000
1.1579 1.4737 0.0000
1.1579 1.5263 0.0000
1.1579 1.5789 0.0000
1.1579 1.6316 0.0000
1.1579 1.6842 0.0000
1.1579 1.7368 0.0000
1.1579 1.7895 0.0000
1.1579 1.8421 0.0000
1.1579 1.8947 0.0000
1.1579 1.9474 0.0000
1.1579 2.0000 0.0000
1.2632 1.0000 0.0000
1.2632 1.0526 0.0000
1.2632 1.1053 0.0000
1.2632 1.1579 0.0000
1.2632 1.2105 0.0000
1.2632 1.2632 0.0000
1.2632 1.3158 0.0000
1.2632 1.3684 0.0000
1.2632 1.4211 0.0000
1.2632 1.4737 0.0000
1.2632 1.5263 0.0000
1.2632 1.5789 0.0000
1.2632 1.6316 0.0000
1.2632 1.6842 0.0000
1.2632 1.7368 0.0000
1.2632 1.7895 0.0000
1.2632 1.8421 0.0000
1.2632 1.8947 0.0000
1.2632 1.9474 0.0000
1.2632 2.0000 0.0000
1.3684 1.0000 0.0000
1.3684 1.0526 0.0000
1.3684 1.1053 0.0000
1.3684 1.1579 0.0000
1.3684 1.2105 0.0000
1.3684 1.2632 0.0000
1.3684 1.3158 0.0000
1.3684 1.3684 0.0000
1.3684 1.4211 0.0000
1.3684 1.4737 0.0000
1.3684 1.5263 0.0000
1.3684 1.5789 0.0000
1.3684 1.6316 0.0000
1.3684 1.6842 0.0000
1.3684 1.7368 0.0000
1.3684 1.7895 0.0000
1.3684 1.8421 0.0000
1.3684 1.8947 0.0000
1.3684 1.9474 0.0000
1.3684 2.0000 0.0000
1.4737 1.0000 0.0000
1.4737 1.0526 0.0000
1.4737 1.1053 0.0000
1.4737 1.1579 0.0000
1.4737 1.2105 0.0000
1.4737 1.2632 0.0000
1.4737 1.3158 0.0000
1.4737 1.3684 0.0000
1.4737 1.4211 0.0000
1.4737 1.4737 0.0000
1.4737 1.5263 0.0000
1.4737 1.5789 0.0000
1.4737 1.6316 0.0000
1.4737 1.6842 0.0000
1.4737 1.7368 0.0000
1.4737 1.7895 0.0000
1.4737 1.8421 0.0000
1.4737 1.8947 0.0000
1.4737 1.9474 0.0000
1.4737 2.0000 0.0000
1.5789 1.0000 0.0000
1.5789 1.0526 0.0000
1.5789 1.1053 0.0000
1.5789 1.1579 0.0000
1.5789 1.2105 0.0000
1.5789 1.2632 0.0000
1.5789 1.3158 0.0000
1.5789 1.3684 0.0000
1.5789 1.4211 0.0000
1.5789 1.4737 0.0000
1.5789 1.5263 0.0000
1.5789 1.5789 0.0000
1.5789 1.6316 0.0000
1.5789 1.6842 0.0000
1.5789 1.7368 0.0000
1.5789 1.7895 0.0000
1.5789 1.8421 0.0000
1.5789 1.8947 0.0000
1.5789 1.9474 0.0000
1.5789 2.0000 0.0000
1.6842 1.0000 0.0000
1.6842 1.0526 0.0000
1.6842 1.1053 0.0000
1.6842 1.1579 0.0000
1.6842 1.2105 0.0000
1.6842 1.2632 0.0000
1.6842 1.3158 0.0000
1.6842 1.3684 0.0000
1.6842 1.4211 0.0000
1.6842 1.4737 0.0000
1.6842 1.5263 0.0000
1.6842 1.5789 0.0000
1.6842 1.6316 0.0000
1.6842 1.6842 0.0000
1.6842 1.7368 0.0000
1.6842 1.7895 0.0000
1.6842 1.8421 0.0000
1.6842 1.8947 0.0000
1.6842 1.9474 0.0000
1.6842 2.0000 0.0000
1.7895 1.0000 0.0000
1.7895 1.0526 0.0000
1.7895 1.1053 0.0000
1.7895 1.1579 0.0000
1.7895 1.2105 0.0000
1.7895 1.2632 0.0000
1.7895 1.3158 0.0000
1.7895 1.3684 0.0000
1.7895 1.4211 0.0000
1.7895 1.4737 0.0000
1.7895 1.5263 0.0000
1.7895 1.5789 0.0000
1.7895 1.6316 0.0000
1.7895 1.6842 0.0000
1.7895 1.7368 0.0000
1.7895 1.7895 0.0000
1.7895 1.8421 0.0000
1.7895 1.8947 0.0000
1.7895 1.9474 0.0000
1.7895 2.0000 0.0000
1.8947 1.0000 0.0000
1.8947 1.0526 0.0000
1.8947 1.1053 0.0000
1.8947 1.1579 0.0000
1.8947 1.2105 0.0000
1.8947 1.2632 0.0000
1.8947 1.3158 0.0000
1.8947 1.3684 0.0000
1.8947 1.4211 0.0000
1.8947 1.4737 0.0000
1.8947 1.5263 0.0000
1.8947 1.5789 0.0000
1.8947 1.6316 0.0000
1.8947 1.6842 0.0000
1.8947 1.7368 0.0000
1.8947 1.7895 0.0000
1.8947 1.8421 0.0000
1.8947 1.8947 0.0000
1.8947 1.9474 0.0000
1.8947 2.0000 0.0000
2.0000 1.0000 0.0000
2.0000 1.0526 0.0000
2.0000 1.1053 0.0000
2.0000 1.1579 0.0000
2.0000 1.2105 0.0000
2.0000 1.2632 0.0000
2.0000 1.3158 0.0000
2.0000 1.3684 0.0000
2.0000 1.4211 0.0000
2.0000 1.4737 0.0000
2.0000 1.5263 0.0000
2.0000 1.5789 0.0000
2.0000 1.6316 0.0000
2.0000 1.6842 0.0000
2.0000 1.7368 0.0000
2.0000 1.7895 0.0000
2.0000 1.8421 0.0000
2.0000 1.8947 0.0000
2.0000 1.9474 0.0000
2.0000 2.0000 0.0000
0.0526 1.0263 0.0000
0.0526 1.0789 0.0000
0.0526 1.1316 0.0000
0.0526 1.1842 0.0000
0.0526 1.2368 0.0000
0.0526 1.2895 0.0000
0.0526 1.3421 0.0000
0.0526 1.3947 0.0000
0.0526 1.4474 0.0000
0.0526 1.5000 0.0000
0.0526 1.5526 0.0000
0.0526 1.6053 0.0000
0.0526 1.6579 0.0000
0.0526 1.7105 0.0000
0.0526 1.7632 0.0000
0.0526 1.8158 0.0000
0.0526 1.8684 0.0000
0.0526 1.9211 0.0000
0.0526 1.9737 0.0000
0.1579 1.0263 0.0000
0.1579 1.0789 0.0000
0.1579 1.1316 0.0000
0.1579 1.1842 0.0000
0.1579 1.2368 0.0000
0.1579 1.2895 0.0000
0.1579 1.3421 0.0000
0.1579 1.3947 0.0000
0.1579 1.4474 0.0000
0.1579 1.5000 0.0000
0.1579 1.5526 0.0000
0.1579 1.6053 0.0000
0.1579 1.6579 0.0000
0.1579 1.7105 0.0000
0.1579 1.7632 0.0000
0.1579 1.8158 0.0000
0.1579 1.8684 0.0000
0.1579 1.9211 0.0000
0.1579 1.9737 0.0000
0.2632 1.0263 0.0000
0.2632 1.0789 0.0000
0.2632 1.1316 0.0000
0.2632 1.1842 0.0000
0.2632 1.2368 0.0000
0.2632 1.2895 0.0000
0.2632 1.3421 0.0000
0.2632 1.3947 0.0000
0.2632 1.4474 0.0000
0.2632 1.5000 0.0000
0.2632 1.5526 0.0000
0.2632 1.6053 0.0000
0.2632 1.6579 0.0000
0.2632 1.7105 0.0000
0.2632 1.7632 0.0000
0.2632 1.8158 0.0000
0.2632 1.8684 0.0000
0.2632 1.9211 0.0000
0.2632 1.9737 0.0000
0.3684 1.0263 0.0000
0.3684 1.0789 0.0000
0.3684 1.1316 0.0000
0.3684 1.1842 0.0000
[...]
         <PointData>
            <DataArray Name="displacement" NumberOfComponents="3" format="ascii" type="Float64">
-1.98600e-18  1.47723e-19        00000 
 2.89810e-18  1.93206e-18        00000 
-4.76794e-19  4.76794e-19        00000 
-8.38679e-19 -1.91698e-18        00000 
 1.54958e-18  8.34389e-19        00000 
-4.72702e-19 -1.59594e-18        00000 
 1.19198e-19  3.57595e-19        00000 
 2.40559e-19 -3.44457e-19        00000 
 3.57595e-19  1.78798e-19        00000 
 9.01831e-20 -4.80977e-19        00000 
-2.38397e-19  1.07279e-18        00000 
 7.84389e-19 -9.54746e-19        00000 
 1.19198e-19 -2.38397e-19        00000 
 7.57867e-19 -2.73999e-19        00000 
-9.53587e-19  1.78798e-19        00000 
 1.37783e-18 -9.73467e-20        00000 
-1.90717e-18 -2.74156e-18        00000 
 4.32910e-18  2.64556e-18        00000 
-2.88530e-18  7.21325e-19        00000 
 4.50576e-18 -3.33403e-18        00000 
 3.18412e-02  2.01781e-02        00000 
 2.41932e-02  1.53936e-02        00000 
 1.96212e-02  1.22984e-02        00000 
 1.61016e-02  1.02201e-02        00000 
 1.31105e-02  8.77606e-03        00000 
 1.04288e-02  7.75644e-03        00000 
 7.94163e-03  7.03956e-03        00000 
 5.57963e-03  6.55195e-03        00000 
 3.29604e-03  6.24897e-03        00000 
 1.05558e-03  6.10493e-03        00000 
-1.17158e-03  6.10821e-03        00000 
-3.41367e-03  6.25912e-03        00000 
-5.70073e-03  6.57001e-03        00000 
-8.06862e-03  7.06751e-03        00000 
-1.05652e-02  7.79773e-03        00000 
-1.32620e-02  8.83645e-03        00000 
-1.62775e-02  1.03085e-02        00000 
-1.98355e-02  1.24261e-02        00000 
-2.44579e-02  1.55670e-02        00000 
-3.21248e-02  2.03862e-02        00000 
 5.69951e-02  3.69607e-02        00000 
 4.80952e-02  3.31684e-02        00000 
 4.00676e-02  2.96259e-02        00000 
 3.31789e-02  2.67247e-02        00000 
 2.70943e-02  2.44536e-02        00000 
 2.15634e-02  2.27224e-02        00000 
 1.64145e-02  2.14418e-02        00000 
 1.15257e-02  2.05408e-02        00000 
 6.80523e-03  1.99688e-02        00000 
 2.17906e-03  1.96938e-02        00000 
-2.41777e-03  1.97003e-02        00000 
-7.04749e-03  1.99889e-02        00000 
-1.17754e-02  2.05756e-02        00000 
-1.66766e-02  2.14935e-02        00000 
-2.18440e-02  2.27942e-02        00000 
-2.74016e-02  2.45494e-02        00000 
-3.35225e-02  2.68481e-02        00000 
-4.04529e-02  2.97777e-02        00000 
-4.85092e-02  3.33441e-02        00000 
-5.74108e-02  3.71584e-02        00000 
 8.03807e-02  5.74188e-02        00000 
 6.94642e-02  5.37973e-02        00000 
 5.92533e-02  5.05561e-02        00000 
 4.97566e-02  4.76944e-02        00000 
 4.09610e-02  4.52781e-02        00000 
 3.27513e-02  4.33208e-02        00000 
 2.49974e-02  4.18049e-02        00000 
 1.75784e-02  4.07024e-02        00000 
 1.03872e-02  3.99867e-02        00000 
 3.32725e-03  3.96382e-02        00000 
-3.69134e-03  3.96468e-02        00000 
-1.07563e-02  4.00127e-02        00000 
-1.79577e-02  4.07466e-02        00000 
-2.53927e-02  4.18685e-02        00000 
-3.31694e-02  4.34052e-02        00000 
-4.14087e-02  4.53844e-02        00000 
-5.02393e-02  4.78231e-02        00000 
-5.97699e-02  5.07063e-02        00000 
-7.00029e-02  5.39684e-02        00000 
-8.09195e-02  5.76113e-02        00000 
 1.02398e-01  8.20552e-02        00000 
 8.93302e-02  7.86813e-02        00000 
 7.69386e-02  7.56538e-02        00000 
 6.51942e-02  7.29849e-02        00000 
 5.40474e-02  7.06843e-02        00000 
 4.34345e-02  6.87684e-02        00000 
 3.32678e-02  6.72449e-02        00000 
 2.34486e-02  6.61125e-02        00000 
 1.38753e-02  6.53657e-02        00000 
 4.44736e-03  6.49987e-02        00000 
-4.93418e-03  6.50080e-02        00000 
-1.43677e-02  6.53936e-02        00000 
-2.39523e-02  6.61594e-02        00000 
-3.37888e-02  6.73111e-02        00000 
-4.39787e-02  6.88544e-02        00000 
-5.46206e-02  7.07901e-02        00000 
-6.58000e-02  7.31103e-02        00000 
-7.75755e-02  7.57987e-02        00000 
-8.99870e-02  7.88457e-02        00000 
-1.03054e-01  8.22399e-02        00000 
 1.23002e-01  1.11023e-01        00000 
 1.07825e-01  1.07880e-01        00000 
 9.33347e-02  1.05073e-01        00000 
 7.94730e-02  1.02600e-01        00000 
 6.61779e-02  1.00466e-01        00000 
 5.33806e-02  9.86778e-02        00000 
 4.10040e-02  9.72426e-02        00000 
 2.89616e-02  9.61659e-02        00000 
 1.71603e-02  9.54503e-02        00000 
 5.50355e-03  9.50970e-02        00000 
-6.10673e-03  9.51062e-02        00000 
-1.77691e-02  9.54778e-02        00000 
-2.95819e-02  9.62117e-02        00000 
-4.16414e-02  9.73069e-02        00000 
-5.40408e-02  9.87605e-02        00000 
-6.68660e-02  1.00567e-01        00000 
-8.01924e-02  1.02719e-01        00000 
-9.40841e-02  1.05210e-01        00000 
-1.08593e-01  1.08035e-01        00000 
-1.23768e-01  1.11198e-01        00000 
 1.42152e-01  1.44139e-01        00000 
 1.24976e-01  1.41230e-01        00000 
 1.08501e-01  1.38638e-01        00000 
 9.26533e-02  1.36360e-01        00000 
 7.73611e-02  1.34397e-01        00000 
 6.25503e-02  1.32753e-01        00000 
 4.81428e-02  1.31432e-01        00000 
 3.40549e-02  1.30439e-01        00000 
 2.01983e-02  1.29778e-01        00000 
 6.48073e-03  1.29451e-01        00000 
-7.19210e-03  1.29459e-01        00000 
-2.09153e-02  1.29804e-01        00000 
-3.47831e-02  1.30482e-01        00000 
-4.88877e-02  1.31492e-01        00000 
-6.33175e-02  1.32830e-01        00000 
-7.81555e-02  1.34492e-01        00000 
-9.34784e-02  1.36471e-01        00000 
-1.09355e-01  1.38766e-01        00000 
-1.25849e-01  1.41375e-01        00000 
-1.43021e-01  1.44301e-01        00000 
 1.59826e-01  1.81136e-01        00000 
 1.40791e-01  1.78462e-01        00000 
 1.22466e-01  1.76082e-01        00000 
 1.04772e-01  1.73994e-01        00000 
 8.76307e-02  1.72199e-01        00000 
 7.09627e-02  1.70696e-01        00000 
 5.46883e-02  1.69491e-01        00000 
 3.87240e-02  1.68585e-01        00000 
 2.29831e-02  1.67982e-01        00000 
 7.37644e-03  1.67684e-01        00000 
-8.18720e-03  1.67692e-01        00000 
-2.37994e-02  1.68006e-01        00000 
-3.95512e-02  1.68625e-01        00000 
-5.55320e-02  1.69546e-01        00000 
-7.18283e-02  1.70767e-01        00000 
-8.85231e-02  1.72285e-01        00000 
-1.05695e-01  1.74096e-01        00000 
-1.23418e-01  1.76200e-01        00000 
-1.41760e-01  1.78595e-01        00000 
-1.60791e-01  1.81286e-01        00000 
 1.76022e-01  2.21714e-01        00000 
 1.55277e-01  2.19274e-01        00000 
 1.35250e-01  2.17103e-01        00000 
 1.15857e-01  2.15201e-01        00000 
 9.70150e-02  2.13566e-01        00000 
 7.86435e-02  2.12201e-01        00000 
 6.06605e-02  2.11106e-01        00000 
 4.29820e-02  2.10285e-01        00000 
 2.55221e-02  2.09738e-01        00000 
 8.19300e-03  2.09467e-01        00000 
-9.09419e-03  2.09475e-01        00000 
-2.64287e-02  2.09759e-01        00000 
-4.38995e-02  2.10320e-01        00000 
-6.15943e-02  2.11156e-01        00000 
-7.95990e-02  2.12265e-01        00000 
-9.79971e-02  2.13644e-01        00000 
-1.16869e-01  2.15293e-01        00000 
-1.36291e-01  2.17209e-01        00000 
-1.56335e-01  2.19395e-01        00000 
-1.77075e-01  2.21850e-01        00000 
 1.90747e-01  2.65564e-01        00000 
 1.68447e-01  2.63355e-01        00000 
 1.46868e-01  2.61390e-01        00000 
 1.25926e-01  2.59669e-01        00000 
 1.05536e-01  2.58192e-01        00000 
 8.56144e-02  2.56958e-01        00000 
 6.60785e-02  2.55969e-01        00000 
 4.68438e-02  2.55227e-01        00000 
 2.78244e-02  2.54733e-01        00000 
 8.93356e-03  2.54489e-01        00000 
-9.91616e-03  2.54495e-01        00000 
-2.88124e-02  2.54751e-01        00000 
-4.78428e-02  2.55258e-01        00000 
-6.70939e-02  2.56012e-01        00000 
-8.66515e-02  2.57014e-01        00000 
-1.06599e-01  2.58261e-01        00000 
-1.27020e-01  2.59751e-01        00000 
-1.47990e-01  2.61485e-01        00000 
-1.69586e-01  2.63463e-01        00000 
-1.91881e-01  2.65685e-01        00000 
 2.04015e-01  3.12377e-01        00000 
 1.80312e-01  3.10397e-01        00000 
 1.57334e-01  3.08636e-01        00000 
 1.34996e-01  3.07093e-01        00000 
 1.13211e-01  3.05767e-01        00000 
 9.18931e-02  3.04659e-01        00000 
 7.09588e-02  3.03771e-01        00000 
 5.03225e-02  3.03103e-01        00000 
 2.98986e-02  3.02659e-01        00000 
 9.60112e-03  3.02439e-01        00000 
-1.06560e-02  3.02444e-01        00000 
-3.09590e-02  3.02675e-01        00000 
-5.13940e-02  3.03130e-01        00000 
-7.20469e-02  3.03808e-01        00000 
-9.30033e-02  3.04708e-01        00000 
-1.14348e-01  3.05827e-01        00000 
-1.36163e-01  3.07164e-01        00000 
-1.58530e-01  3.08719e-01        00000 
-1.81525e-01  3.10492e-01        00000 
-2.05223e-01  3.12484e-01        00000 
 2.15838e-01  3.61850e-01        00000 
 1.90883e-01  3.60098e-01        00000 
 1.66660e-01  3.58538e-01        00000 
 1.43081e-01  3.57169e-01        00000 
 1.20056e-01  3.55990e-01        00000 
 9.74969e-02  3.55002e-01        00000 
 7.53176e-02  3.54206e-01        00000 
 5.34316e-02  3.53607e-01        00000 
 3.17536e-02  3.53207e-01        00000 
 1.01989e-02  3.53008e-01        00000 
-1.13168e-02  3.53013e-01        00000 
-3.28773e-02  3.53220e-01        00000 
-5.45667e-02  3.53629e-01        00000 
-7.64698e-02  3.54238e-01        00000 
-9.86718e-02  3.55042e-01        00000 
-1.21258e-01  3.56040e-01        00000 
-1.44314e-01  3.57229e-01        00000 
-1.67923e-01  3.58608e-01        00000 
-1.92163e-01  3.60179e-01        00000 
-2.17113e-01  3.61943e-01        00000 
 2.26218e-01  4.13685e-01        00000 
 2.00164e-01  4.12160e-01        00000 
 1.74854e-01  4.10799e-01        00000 
 1.50195e-01  4.09600e-01        00000 
 1.26090e-01  4.08559e-01        00000 
 1.02448e-01  4.07681e-01        00000 
 7.91766e-02  4.06969e-01        00000 
 5.61895e-02  4.06428e-01        00000 
 3.34017e-02  4.06065e-01        00000 
 1.07311e-02  4.05884e-01        00000 
-1.19027e-02  4.05888e-01        00000 
-3.45793e-02  4.06076e-01        00000 
-5.73790e-02  4.06446e-01        00000 
-8.03838e-02  4.06994e-01        00000 
-1.03678e-01  4.07714e-01        00000 
-1.27350e-01  4.08600e-01        00000 
-1.51487e-01  4.09649e-01        00000 
-1.76177e-01  4.10857e-01        00000 
-2.01505e-01  4.12227e-01        00000 
-2.27555e-01  4.13763e-01        00000 
 2.35144e-01  4.67582e-01        00000 
 2.08149e-01  4.66288e-01        00000 
 1.81921e-01  4.65125e-01        00000 
 1.56354e-01  4.64088e-01        00000 
 1.31341e-01  4.63176e-01        00000 
 1.06778e-01  4.62393e-01        00000 
 8.25693e-02  4.61749e-01        00000 
 5.86250e-02  4.61253e-01        00000 
 3.48624e-02  4.60916e-01        00000 
 1.12047e-02  4.60747e-01        00000 
-1.24206e-02  4.60750e-01        00000 
-3.60845e-02  4.60925e-01        00000 
-5.98596e-02  4.61267e-01        00000 
-8.38226e-02  4.61769e-01        00000 
-1.08056e-01  4.62420e-01        00000 
-1.32649e-01  4.63209e-01        00000 
-1.57697e-01  4.64128e-01        00000 
-1.83297e-01  4.65172e-01        00000 
-2.09545e-01  4.66343e-01        00000 
-2.36536e-01  4.67647e-01        00000 
 2.42568e-01  5.23231e-01        00000 
 2.14811e-01  5.22175e-01        00000 
 1.87860e-01  5.21212e-01        00000 
 1.61581e-01  5.20332e-01        00000 
 1.35848e-01  5.19535e-01        00000 
 1.10540e-01  5.18831e-01        00000 
 8.55499e-02  5.18234e-01        00000 
 6.07856e-02  5.17764e-01        00000 
 3.61680e-02  5.17438e-01        00000 
 1.16310e-02  5.17272e-01        00000 
-1.28822e-02  5.17275e-01        00000 
-3.74257e-02  5.17445e-01        00000 
-6.20563e-02  5.17776e-01        00000 
-8.68403e-02  5.18251e-01        00000 
-1.11856e-01  5.18853e-01        00000 
-1.37197e-01  5.19563e-01        00000 
-1.62967e-01  5.20365e-01        00000 
-1.89281e-01  5.21251e-01        00000 
-2.16256e-01  5.22221e-01        00000 
-2.44012e-01  5.23285e-01        00000 
 2.48394e-01  5.80263e-01        00000 
 2.20100e-01  5.79462e-01        00000 
 1.92659e-01  5.78707e-01        00000 
 1.65900e-01  5.77989e-01        00000 
 1.39664e-01  5.77308e-01        00000 
 1.13805e-01  5.76677e-01        00000 
 8.82000e-02  5.76117e-01        00000 
 6.27465e-02  5.75654e-01        00000 
 3.73717e-02  5.75323e-01        00000 
 1.20295e-02  5.75150e-01        00000 
-1.33078e-02  5.75153e-01        00000 
-3.86567e-02  5.75331e-01        00000 
-6.40450e-02  5.75667e-01        00000 
-8.95189e-02  5.76135e-01        00000 
-1.15151e-01  5.76701e-01        00000 
-1.41044e-01  5.77336e-01        00000 
-1.67320e-01  5.78021e-01        00000 
-1.94118e-01  5.78745e-01        00000 
-2.21586e-01  5.79505e-01        00000 
-2.49883e-01  5.80313e-01        00000 
 2.52477e-01  6.38175e-01        00000 
 2.23945e-01  6.37650e-01        00000 
 1.96290e-01  6.37131e-01        00000 
 1.69306e-01  6.36621e-01        00000 
 1.42814e-01  6.36116e-01        00000 
 1.16640e-01  6.35614e-01        00000 
 9.06185e-02  6.35123e-01        00000 
 6.46225e-02  6.34684e-01        00000 
 3.85648e-02  6.34335e-01        00000 
 1.24308e-02  6.34150e-01        00000 
-1.37293e-02  6.34153e-01        00000 
-3.98702e-02  6.34346e-01        00000 
-6.59418e-02  6.34701e-01        00000 
-9.19587e-02  6.35148e-01        00000 
-1.18009e-01  6.35645e-01        00000 
-1.44217e-01  6.36153e-01        00000 
-1.70751e-01  6.36663e-01        00000 
-1.97776e-01  6.37178e-01        00000 
-2.25463e-01  6.37701e-01        00000 
-2.54002e-01  6.38231e-01        00000 
 2.54722e-01  6.96211e-01        00000 
 2.26318e-01  6.95971e-01        00000 
 1.98692e-01  6.95743e-01        00000 
 1.71690e-01  6.95566e-01        00000 
 1.45175e-01  6.95430e-01        00000 
 1.18978e-01  6.95291e-01        00000 
 9.28676e-02  6.95087e-01        00000 
 6.65459e-02  6.94784e-01        00000 
 3.98989e-02  6.94518e-01        00000 
 1.29254e-02  6.94301e-01        00000 
-1.42391e-02  6.94306e-01        00000 
-4.12197e-02  6.94534e-01        00000 
-6.78808e-02  6.94811e-01        00000 
-9.42239e-02  6.95124e-01        00000 
-1.20363e-01  6.95337e-01        00000 
-1.46595e-01  6.95485e-01        00000 
-1.73151e-01  6.95629e-01        00000 
-2.00195e-01  6.95812e-01        00000 
-2.27854e-01  6.96044e-01        00000 
-2.56271e-01  6.96286e-01        00000 
 2.55395e-01  7.53398e-01        00000 
 2.27362e-01  7.53383e-01        00000 
 1.99820e-01  7.53470e-01        00000 
 1.72826e-01  7.53740e-01        00000 
 1.46351e-01  7.54227e-01        00000 
 1.20297e-01  7.54921e-01        00000 
 9.44718e-02  7.55740e-01        00000 
 6.85175e-02  7.56452e-01        00000 
 4.15398e-02  7.56563e-01        00000 
 1.34831e-02  7.56825e-01        00000 
-1.48098e-02  7.56833e-01        00000 
-4.28734e-02  7.56588e-01        00000 
-6.98653e-02  7.56493e-01        00000 
-9.58412e-02  7.55797e-01        00000 
-1.21695e-01  7.54993e-01        00000 
-1.47784e-01  7.54312e-01        00000 
-1.74298e-01  7.53836e-01        00000 
-2.01330e-01  7.53575e-01        00000 
-2.28902e-01  7.53491e-01        00000 
-2.56954e-01  7.53506e-01        00000 
 2.55415e-01  8.09277e-01        00000 
 2.27590e-01  8.09256e-01        00000 
 2.00027e-01  8.09260e-01        00000 
 1.72898e-01  8.09486e-01        00000 
 1.46225e-01  8.10169e-01        00000 
 1.19936e-01  8.11592e-01        00000 
 9.38647e-02  8.14137e-01        00000 
 6.76647e-02  8.18371e-01        00000 
 4.08107e-02  8.25115e-01        00000 
 1.32374e-02  8.28213e-01        00000 
-1.45791e-02  8.28225e-01        00000 
-4.21593e-02  8.25154e-01        00000 
-6.90274e-02  8.18437e-01        00000 
-9.52484e-02  8.14228e-01        00000 
-1.21348e-01  8.11706e-01        00000 
-1.47668e-01  8.10302e-01        00000 
-1.74377e-01  8.09631e-01        00000 
-2.01540e-01  8.09409e-01        00000 
-2.29128e-01  8.09405e-01        00000 
-2.56974e-01  8.09426e-01        00000 
 1.33590e-02  8.30541e-03        00000 
 1.05363e-02  6.58006e-03        00000 
 8.64660e-03  5.36628e-03        00000 
 7.10334e-03  4.52397e-03        00000 
 5.74287e-03  3.92997e-03        00000 
 4.49245e-03  3.50949e-03        00000 
 3.31207e-03  3.21713e-03        00000 
 2.17649e-03  3.02497e-03        00000 
 1.06773e-03  2.91623e-03        00000 
-2.85320e-05  2.88197e-03        00000 
-1.12516e-03  2.91947e-03        00000 
-2.23504e-03  3.03176e-03        00000 
-3.37268e-03  3.22819e-03        00000 
-4.55640e-03  3.52609e-03        00000 
-5.81221e-03  3.95429e-03        00000 
-7.18167e-03  4.55962e-03        00000 
-8.74063e-03  5.41882e-03        00000 
-1.06578e-02  6.65702e-03        00000 
-1.35190e-02  8.41817e-03        00000 
 4.04616e-02  2.63296e-02        00000 
 3.29548e-02  2.23575e-02        00000 
 2.71378e-02  1.94604e-02        00000 
 2.22601e-02  1.73077e-02        00000 
 1.79515e-02  1.57094e-02        00000 
 1.40089e-02  1.45361e-02        00000 
 1.03078e-02  1.36996e-02        00000 
 6.76412e-03  1.31403e-02        00000 
 3.31569e-03  1.28205e-02        00000 
-8.82049e-05  1.27194e-02        00000 
-3.49338e-03  1.28304e-02        00000 
-6.94580e-03  1.31607e-02        00000 
-1.04967e-02  1.37322e-02        00000 
-1.42095e-02  1.45836e-02        00000 
-1.81698e-02  1.57758e-02        00000 
-2.25052e-02  1.73989e-02        00000 
-2.74209e-02  1.95834e-02        00000 
-3.32820e-02  2.25172e-02        00000 
-4.08112e-02  2.65180e-02        00000 
 6.37765e-02  4.51812e-02        00000 
 5.42795e-02  4.16194e-02        00000 
 4.55826e-02  3.84504e-02        00000 
 3.77359e-02  3.58300e-02        00000 
 3.05661e-02  3.37383e-02        00000 
 2.39019e-02  3.21225e-02        00000 
 1.76026e-02  3.09281e-02        00000 
 1.15551e-02  3.01097e-02        00000 
 5.66487e-03  2.96346e-02        00000 
-1.50409e-04  2.94834e-02        00000 
-5.96783e-03  2.96498e-02        00000 
-1.18646e-02  3.01407e-02        00000 
-1.79239e-02  3.09763e-02        00000 
-2.42408e-02  3.21901e-02        00000 
-3.09299e-02  3.38277e-02        00000 
-3.81324e-02  3.59437e-02        00000 
-4.60168e-02  3.85896e-02        00000 
-5.47458e-02  4.17820e-02        00000 
-6.42556e-02  4.53658e-02        00000 
 8.54415e-02  6.78228e-02        00000 
 7.37885e-02  6.45047e-02        00000 
 6.28232e-02  6.15498e-02        00000 
 5.25143e-02  5.89800e-02        00000 
 4.28103e-02  5.68284e-02        00000 
 3.36157e-02  5.50994e-02        00000 
 2.48215e-02  5.37817e-02        00000 
 1.63196e-02  5.28586e-02        00000 
 8.00741e-03  5.23152e-02        00000 
-2.12620e-04  5.21411e-02        00000 
-8.43531e-03  5.23331e-02        00000 
-1.67556e-02  5.28948e-02        00000 
-2.52713e-02  5.38368e-02        00000 
-3.40856e-02  5.51744e-02        00000 
-4.33065e-02  5.69241e-02        00000 
-5.30424e-02  5.90967e-02        00000 
-6.33850e-02  6.16873e-02        00000 
-7.43780e-02  6.46624e-02        00000 
-8.60412e-02  6.80010e-02        00000 
 1.05682e-01  9.47478e-02        00000 
 9.18979e-02  9.16608e-02        00000 
 7.87712e-02  8.89153e-02        00000 
 6.62535e-02  8.65189e-02        00000 
 5.42834e-02  8.44814e-02        00000 
 4.27880e-02  8.28137e-02        00000 
 3.16809e-02  8.15206e-02        00000 
 2.08674e-02  8.06023e-02        00000 
 1.02493e-02  8.00565e-02        00000 
-2.72510e-04  7.98810e-02        00000 
-1.07971e-02  8.00750e-02        00000 
-2.14238e-02  8.06393e-02        00000 
-3.22516e-02  8.15764e-02        00000 
-4.33789e-02  8.28885e-02        00000 
-5.49001e-02  8.45753e-02        00000 
-6.69007e-02  8.66317e-02        00000 
-7.94502e-02  8.90470e-02        00000 
-9.26028e-02  9.18113e-02        00000 
-1.06396e-01  9.49177e-02        00000 
 1.24531e-01  1.25914e-01        00000 
 1.08698e-01  1.23053e-01        00000 