<?xml version="1.0" encoding="utf-8"?>
<VTKFile byte_order="LittleEndian" type="UnstructuredGrid" version="0.1">
   <UnstructuredGrid>
      <Piece NumberOfCells="1444" NumberOfPoints="761">
         <Points>
            <DataArray Name="Points" NumberOfComponents="3" format="ascii" type="Float32">
0.0000 1.0000 0.0000
0.0000 1.0526 0.0000
0.0000 1.1053 0.0000
0.0000 1.1579 0.0000
0.0000 1.2105 0.0000
0.0000 1.2632 0.0000
0.0000 1.3158 0.0000
0.0000 1.3684 0.0000
0.0000 1.4211 0.0000
0.0000 1.4737 0.0000
0.0000 1.5263 0.0000
0.0000 1.5789 0.0000
0.0000 1.6316 0.0000
0.0000 1.6842 0.0000
0.0000 1.7368 0.0000
0.0000 1.7895 0.0000
0.0000 1.8421 0.0000
0.0000 1.8947 0.0000
0.0000 1.9474 0.0000
0.0000 2.0000 0.0000
0.1053 1.0000 0.0000
0.1053 1.0526 0.0000
0.1053 1.1053 0.0000
0.1053 1.1579 0.0000
0.1053 1.2105 0.0000
0.1053 1.2632 0.0000
0.1053 1.3158 0.0000
0.1053 1.3684 0.0000
0.1053 1.4211 0.0000
0.1053 1.4737 0.0000
0.1053 1.5263 0.0000
0.1053 1.5789 0.0000
0.1053 1.6316 0.0000
0.1053 1.6842 0.0000
0.1053 1.7368 0.0000
0.1053 1.7895 0.0000
0.1053 1.8421 0.0000
0.1053 1.8947 0.0000
0.1053 1.9474 0.0000
0.1053 2.0000 0.0000
0.2105 1.0000 0.0000
0.2105 1.0526 0.0000
0.2105 1.1053 0.0000
0.2105 1.1579 0.0000
0.2105 1.2105 0.0000
0.2105 1.2632 0.0000
0.2105 1.3158 0.0000
0.2105 1.3684 0.0000
0.2105 1.4211 0.0000
0.2105 1.4737 0.0000
0.2105 1.5263 0.0000
0.2105 1.5789 0.0000
0.2105 1.6316 0.0000
0.2105 1.6842 0.0000
0.2105 1.7368 0.0000
0.2105 1.7895 0.0000
0.2105 1.8421 0.0000
0.2105 1.8947 0.0000
0.2105 1.9474 0.0000
0.2105 2.0000 0.0000
0.3158 1.0000 0.0000
0.3158 1.0526 0.0000
0.3158 1.1053 0.0000
0.3158 1.1579 0.0000
0.3158 1.2105 0.0000
0.3158 1.2632 0.0000
0.3158 1.3158 0.0000
0.3158 1.3684 0.0000
0.3158 1.4211 0.0000
0.3158 1.4737 0.0000
0.3158 1.5263 0.0000
0.3158 1.5789 0.0000
0.3158 1.6316 0.0000
0.3158 1.6842 0.0000
0.3158 1.7368 0.0000
0.3158 1.7895 0.0000
0.3158 1.8421 0.0000
0.3158 1.8947 0.0000
0.3158 1.9474 0.0000
0.3158 2.0000 0.0000
0.4211 1.0000 0.0000
0.4211 1.0526 0.0000
0.4211 1.1053 0.0000
0.4211 1.1579 0.0000
0.4211 1.2105 0.0000
0.4211 1.2632 0.0000
0.4211 1.3158 0.0000
0.4211 1.3684 0.0000
0.4211 1.4211 0.0000
0.4211 1.4737 0.0000
0.4211 1.5263 0.0000
0.4211 1.5789 0.0000
0.4211 1.6316 0.0000
0.4211 1.6842 0.0000
0.4211 1.7368 0.0000
0.4211 1.7895 0.0000
0.4211 1.8421 0.0000
0.4211 1.8947 0.0000
0.4211 1.9474 0.0000
0.4211 2.0000 0.0000
0.5263 1.0000 0.0000
0.5263 1.0526 0.0000
0.5263 1.1053 0.0000
0.5263 1.1579 0.0000
0.5263 1.2105 0.0000
0.5263 1.2632 0.0000
0.5263 1.3158 0.0000
0.5263 1.3684 0.0000
0.5263 1.4211 0.0000
0.5263 1.4737 0.0000
0.5263 1.5263 0.0000
0.5263 1.5789 0.0000
0.5263 1.6316 0.0000
0.5263 1.6842 0.0000
0.5263 1.7368 0.0000
0.5263 1.7895 0.0000
0.5263 1.8421 0.0000
0.5263 1.8947 0.0000
0.5263 1.9474 0.0000
0.5263 2.0000 0.0000
0.6316 1.0000 0.0000
0.6316 1.0526 0.0000
0.6316 1.1053 0.0000
0.6316 1.1579 0.0000
0.6316 1.2105 0.0000
0.6316 1.2632 0.0000
0.6316 1.3158 0.0000
0.6316 1.3684 0.0000
0.6316 1.4211 0.0000
0.6316 1.4737 0.0000
0.6316 1.5263 0.0000
0.6316 1.5789 0.0000
0.6316 1.6316 0.0000
0.6316 1.6842 0.0000
0.6316 1.7368 0.0000
0.6316 1.7895 0.0000
0.6316 1.8421 0.0000
0.6316 1.8947 0.0000
0.6316 1.9474 0.0000
0.6316 2.0000 0.0000
0.7368 1.0000 0.0000
0.7368 1.0526 0.0000
0.7368 1.1053 0.0000
0.7368 1.1579 0.0000
0.7368 1.2105 0.0000
0.7368 1.2632 0.0000
0.7368 1.3158 0.0000
0.7368 1.3684 0.0000
0.7368 1.4211 0.0000
0.7368 1.4737 0.0000
0.7368 1.5263 0.0000
0.7368 1.5789 0.0000
0.7368 1.6316 0.0000
0.7368 1.6842 0.0000
0.7368 1.7368 0.0000
0.7368 1.7895 0.0000
0.7368 1.8421 0.0000
0.7368 1.8947 0.0000
0.7368 1.9474 0.0000
0.7368 2.0000 0.0000
0.8421 1.0000 0.0000
0.8421 1.0526 0.0000
0.8421 1.1053 0.0000
0.8421 1.1579 0.0000
0.8421 1.2105 0.0000
0.8421 1.2632 0.0000
0.8421 1.3158 0.0000
0.8421 1.3684 0.0000
0.8421 1.4211 0.0000
0.8421 1.4737 0.0000
0.8421 1.5263 0.0000
0.8421 1.5789 0.0000
0.8421 1.6316 0.0000
0.8421 1.6842 0.0000
0.8421 1.7368 0.0000
0.8421 1.7895 0.0000
0.8421 1.8421 0.0000
0.8421 1.8947 0.0000
0.8421 1.9474 0.0000
0.8421 2.0000 0.0000
0.9474 1.0000 0.0000
0.9474 1.0526 0.0000
0.9474 1.1053 0.0000
0.9474 1.1579 0.0000
0.9474 1.2105 0.0000
0.9474 1.2632 0.0000
0.9474 1.3158 0.0000
0.9474 1.3684 0.0000
0.9474 1.4211 0.0000
0.9474 1.4737 0.0000
0.9474 1.5263 0.0000
0.9474 1.5789 0.0000
0.9474 1.6316 0.0000
0.9474 1.6842 0.0000
0.9474 1.7368 0.0000
0.9474 1.7895 0.0000
0.9474 1.8421 0.0000
0.9474 1.8947 0.0000
0.9474 1.9474 0.0000
0.9474 2.0000 0.0000
1.0526 1.0000 0.0000
1.0526 1.0526 0.0000
1.0526 1.1053 0.0000
1.0526 1.1579 0.0000
1.0526 1.2105 0.0000
1.0526 1.2632 0.0000
1.0526 1.3158 0.0000
1.0526 1.3684 0.0000
1.0526 1.4211 0.0000
1.0526 1.4737 0.0000
1.0526 1.5263 0.0000
1.0526 1.5789 0.0000
1.0526 1.6316 0.0000
1.0526 1.6842 0.0000
1.0526 1.7368 0.0000
1.0526 1.7895 0.0000
1.0526 1.8421 0.0000
1.0526 1.8947 0.0000
1.0526 1.9474 0.0000
1.0526 2.0000 0.0000
1.1579 1.0000 0.0000
1.1579 1.0526 0.0000
1.1579 1.1053 0.0000
1.1579 1.1579 0.0000
1.1579 1.2105 0.0000
1.1579 1.2632 0.0000
1.1579 1.3158 0.0000
1.1579 1.3684 0.0000
1.1579 1.4211 0.0000
1.1579 1.4737 0.0000
1.1579 1.5263 0.0000
1.1579 1.5789 0.0000
1.1579 1.6316 0.0000
1.1579 1.6842 0.0000
1.1579 1.7368 0.0000
1.1579 1.7895 0.0000
1.1579 1.8421 0.0000
1.1579 1.8947 0.0000
1.1579 1.9474 0.0000
1.1579 2.0000 0.0000
1.2632 1.0000 0.0000
1.2632 1.0526 0.0000
1.2632 1.1053 0.0000
1.2632 1.1579 0.0000
1.2632 1.2105 0.0000
1.2632 1.2632 0.0000
1.2632 1.3158 0.0000
1.2632 1.3684 0.0000
1.2632 1.4211 0.0000
1.2632 1.4737 0.0000
1.2632 1.5263 0.0000
1.2632 1.5789 0.0000
1.2632 1.6316 0.0000
1.2632 1.6842 0.0000
1.2632 1.7368 0.0000
1.2632 1.7895 0.0000
1.2632 1.8421 0.0000
1.2632 1.8947 0.0000
1.2632 1.9474 0.0000
1.2632 2.0000 0.0000
1.3684 1.0000 0.0000
1.3684 1.0526 0.0000
1.3684 1.1053 0.0000
1.3684 1.1579 0.0000
1.3684 1.2105 0.0000
1.3684 1.2632 0.0000
1.3684 1.3158 0.0000
1.3684 1.3684 0.0000
1.3684 1.4211 0.0000
1.3684 1.4737 0.0000
1.3684 1.5263 0.0000
1.3684 1.5789 0.0000
1.3684 1.6316 0.0000
1.3684 1.6842 0.0000
1.3684 1.7368 0.0000
1.3684 1.7895 0.0000
1.3684 1.8421 0.0000
1.3684 1.8947 0.0000
1.3684 1.9474 0.0000
1.3684 2.0000 0.0000
1.4737 1.0000 0.0000
1.4737 1.0526 0.0000
1.4737 1.1053 0.0000
1.4737 1.1579 0.0000
1.4737 1.2105 0.0000
1.4737 1.2632 0.0000
1.4737 1.3158 0.0000
1.4737 1.3684 0.0000
1.4737 1.4211 0.0000
1.4737 1.4737 0.0000
1.4737 1.5263 0.0000
1.4737 1.5789 0.0000
1.4737 1.6316 0.0000
1.4737 1.6842 0.0000
1.4737 1.7368 0.0000
1.4737 1.7895 0.0000
1.4737 1.8421 0.0000
1.4737 1.8947 0.0000
1.4737 1.9474 0.0000
1.4737 2.0000 0.0000
1.5789 1.0000 0.0000
1.5789 1.0526 0.0000
1.5789 1.1053 0.0000
1.5789 1.1579 0.0000
1.5789 1.2105 0.0000
1.5789 1.2632 0.0000
1.5789 1.3158 0.0000
1.5789 1.3684 0.0000
1.5789 1.4211 0.0000
1.5789 1.4737 0.0000
1.5789 1.5263 0.0000
1.5789 1.5789 0.0000
1.5789 1.6316 0.0000
1.5789 1.6842 0.0000
1.5789 1.7368 0.0000
1.5789 1.7895 0.0000
1.5789 1.8421 0.0000
1.5789 1.8947 0.0000
1.5789 1.9474 0.0000
1.5789 2.0000 0.0000
1.6842 1.0000 0.0000
1.6842 1.0526 0.0000
1.6842 1.1053 0.0000
1.6842 1.1579 0.0000
1.6842 1.2105 0.0000
1.6842 1.2632 0.0000
1.6842 1.3158 0.0000
1.6842 1.3684 0.0000
1.6842 1.4211 0.0000
1.6842 1.4737 0.0000
1.6842 1.5263 0.0000
1.6842 1.5789 0.0000
1.6842 1.6316 0.0000
1.6842 1.6842 0.0000
1.6842 1.7368 0.0000
1.6842 1.7895 0.0000
1.6842 1.8421 0.0000
1.6842 1.8947 0.0000
1.6842 1.9474 0.0000
1.6842 2.0000 0.0000
1.7895 1.0000 0.0000
1.7895 1.0526 0.0000
1.7895 1.1053 0.0000
1.7895 1.1579 0.0000
1.7895 1.2105 0.0000
1.7895 1.2632 0.0000
1.7895 1.3158 0.0000
1.7895 1.3684 0.0000
1.7895 1.4211 0.0000
1.7895 1.4737 0.0000
1.7895 1.5263 0.0000
1.7895 1.5789 0.0000
1.7895 1.6316 0.0000
1.7895 1.6842 0.0000
1.7895 1.7368 0.0000
1.7895 1.7895 0.0000
1.7895 1.8421 0.0000
1.7895 1.8947 0.0000
1.7895 1.9474 0.0000
1.7895 2.0000 0.0000
1.8947 1.0000 0.0000
1.8947 1.0526 0.0000
1.8947 1.1053 0.0000
1.8947 1.1579 0.0000
1.8947 1.2105 0.0000
1.8947 1.2632 0.0000
1.8947 1.3158 0.0000
1.8947 1.3684 0.0000
1.8947 1.4211 0.0000
1.8947 1.4737 0.0000
1.8947 1.5263 0.0000
1.8947 1.5789 0.0000
1.8947 1.6316 0.0000
1.8947 1.6842 0.0000
1.8947 1.7368 0.0000
1.8947 1.7895 0.0000
1.8947 1.8421 0.0000
1.8947 1.8947 0.0000
1.8947 1.9474 0.0000
1.8947 2.0000 0.0000
2.0000 1.0000 0.0000
2.0000 1.0526 0.0000
2.0000 1.1053 0.0000
2.0000 1.1579 0.0000
2.0000 1.2105 0.0000
2.0000 1.2632 0.0000
2.0000 1.3158 0.0000
2.0000 1.3684 0.0000
2.0000 1.4211 0.0000
2.0000 1.4737 0.0000
2.0000 1.5263 0.0000
2.0000 1.5789 0.0000
2.0000 1.6316 0.0000
2.0000 1.6842 0.0000
2.0000 1.7368 0.0000
2.0000 1.7895 0.0000
2.0000 1.8421 0.0000
2.0000 1.8947 0.0000
2.0000 1.9474 0.0000
2.0000 2.0000 0.0000
0.0526 1.0263 0.0000
0.0526 1.0789 0.0000
0.0526 1.1316 0.0000
0.0526 1.1842 0.0000
0.0526 1.2368 0.0000
0.0526 1.2895 0.0000
0.0526 1.3421 0.0000
0.0526 1.3947 0.0000
0.0526 1.4474 0.0000
0.0526 1.5000 0.0000
0.0526 1.5526 0.0000
0.0526 1.6053 0.0000
0.0526 1.6579 0.0000
0.0526 1.7105 0.0000
0.0526 1.7632 0.0000
0.0526 1.8158 0.0000
0.0526 1.8684 0.0000
0.0526 1.9211 0.0000
0.0526 1.9737 0.0000
0.1579 1.0263 0.0000
0.1579 1.0789 0.0000
0.1579 1.1316 0.0000
0.1579 1.1842 0.0000
0.1579 1.2368 0.0000
0.1579 1.2895 0.0000
0.1579 1.3421 0.0000
0.1579 1.3947 0.0000
0.1579 1.4474 0.0000
0.1579 1.5000 0.0000
0.1579 1.5526 0.0000
0.1579 1.6053 0.0000
0.1579 1.6579 0.0000
0.1579 1.7105 0.0000
0.1579 1.7632 0.0000
0.1579 1.8158 0.0000
0.1579 1.8684 0.0000
0.1579 1.9211 0.0000
0.1579 1.9737 0.0000
0.2632 1.0263 0.0000
0.2632 1.0789 0.0000
0.2632 1.1316 0.0000
0.2632 1.1842 0.0000
0.2632 1.2368 0.0000
0.2632 1.2895 0.0000
0.2632 1.3421 0.0000
0.2632 1.3947 0.0000
0.2632 1.4474 0.0000
0.2632 1.5000 0.0000
0.2632 1.5526 0.0000
0.2632 1.6053 0.0000
0.2632 1.6579 0.0000
0.2632 1.7105 0.0000
0.2632 1.7632 0.0000
0.2632 1.8158 0.0000
0.2632 1.8684 0.0000
0.2632 1.9211 0.0000
0.2632 1.9737 0.0000
0.3684 1.0263 0.0000
0.3684 1.0789 0.0000
0.3684 1.1316 0.0000
0.3684 1.1842 0.0000
[...]
         <PointData>
            <DataArray Name="displacement" NumberOfComponents="3" format="ascii" type="Float64">
-5.82437e-18 -3.62262e-19        00000 
-1.93206e-18  1.44905e-18        00000 
-2.38397e-19 -2.38397e-19        00000 
-1.03337e-18  1.34788e-19        00000 
       00000 -7.15191e-19        00000 
-1.27522e-18 -5.49120e-19        00000 
 8.34389e-19  1.78798e-19        00000 
-2.07798e-19 -4.23084e-19        00000 
 4.46994e-20  3.57595e-19        00000 
 2.10427e-19 -7.21465e-19        00000 
-8.19489e-20 -4.17194e-19        00000 
 1.46956e-19 -8.57399e-19        00000 
 5.36393e-19  6.55591e-19        00000 
-5.11830e-19 -1.42394e-18        00000 
 5.95992e-20  1.96677e-18        00000 
 8.91096e-19 -1.66238e-18        00000 
-9.53587e-19  5.95992e-19        00000 
-3.84809e-18        00000        00000 
-7.21325e-19  3.60663e-19        00000 
 1.44181e-18 -1.35164e-18        00000 
 2.62459e-02  1.66823e-02        00000 
 1.99248e-02  1.27288e-02        00000 
 1.61697e-02  1.01736e-02        00000 
 1.32839e-02  8.46065e-03        00000 
 1.08279e-02  7.27237e-03        00000 
 8.62148e-03  6.43440e-03        00000 
 6.57167e-03  5.84572e-03        00000 
 4.62273e-03  5.44547e-03        00000 
 2.73707e-03  5.19667e-03        00000 
 8.86290e-04  5.07804e-03        00000 
-9.53593e-04  5.07992e-03        00000 
-2.80530e-03  5.20248e-03        00000 
-4.69298e-03  5.45585e-03        00000 
-6.64533e-03  5.86186e-03        00000 
-8.70061e-03  6.45837e-03        00000 
-1.09157e-02  7.30758e-03        00000 
-1.33854e-02  8.51213e-03        00000 
-1.62920e-02  1.02473e-02        00000 
-2.00728e-02  1.28277e-02        00000 
-2.64045e-02  1.68010e-02        00000 
 4.71068e-02  3.06436e-02        00000 
 3.97244e-02  2.74923e-02        00000 
 3.30935e-02  2.45554e-02        00000 
 2.74146e-02  2.21553e-02        00000 
 2.24001e-02  2.02796e-02        00000 
 1.78395e-02  1.88514e-02        00000 
 1.35906e-02  1.77956e-02        00000 
 9.55347e-03  1.70528e-02        00000 
 5.65341e-03  1.65809e-02        00000 
 1.83021e-03  1.63533e-02        00000 
-1.96879e-03  1.63570e-02        00000 
-5.79404e-03  1.65925e-02        00000 
-9.69846e-03  1.70729e-02        00000 
-1.37427e-02  1.78254e-02        00000 
-1.80024e-02  1.88929e-02        00000 
-2.25784e-02  2.03350e-02        00000 
-2.76133e-02  2.22267e-02        00000 
-3.33147e-02  2.46431e-02        00000 
-3.99603e-02  2.75940e-02        00000 
-4.73433e-02  3.07584e-02        00000 
 6.65729e-02  4.76655e-02        00000 
 5.75016e-02  4.46487e-02        00000 
 4.90368e-02  4.19518e-02        00000 
 4.11788e-02  3.95749e-02        00000 
 3.39083e-02  3.75715e-02        00000 
 2.71240e-02  3.59508e-02        00000 
 2.07155e-02  3.46965e-02        00000 
 1.45822e-02  3.37845e-02        00000 
 8.63555e-03  3.31920e-02        00000 
 2.79657e-03  3.29025e-02        00000 
-3.00810e-03  3.29074e-02        00000 
-8.84996e-03  3.32069e-02        00000 
-1.48026e-02  3.38099e-02        00000 
-2.09453e-02  3.47332e-02        00000 
-2.73670e-02  3.59995e-02        00000 
-3.41684e-02  3.76330e-02        00000 
-4.14589e-02  3.96494e-02        00000 
-4.93356e-02  4.20389e-02        00000 
-5.78118e-02  4.47482e-02        00000 
-6.68827e-02  4.77776e-02        00000 
 8.49322e-02  6.81662e-02        00000 
 7.40663e-02  6.53504e-02        00000 
 6.37773e-02  6.28249e-02        00000 
 5.40385e-02  6.06007e-02        00000 
 4.48041e-02  5.86858e-02        00000 
 3.60169e-02  5.70929e-02        00000 
 2.76008e-02  5.58273e-02        00000 
 1.94723e-02  5.48869e-02        00000 
 1.15470e-02  5.42664e-02        00000 
 3.74171e-03  5.39604e-02        00000 
-4.02483e-03  5.39657e-02        00000 
-1.18334e-02  5.42825e-02        00000 
-1.97653e-02  5.49140e-02        00000 
-2.79039e-02  5.58656e-02        00000 
-3.63337e-02  5.71427e-02        00000 
-4.51379e-02  5.87471e-02        00000 
-5.43910e-02  6.06735e-02        00000 
-6.41472e-02  6.29092e-02        00000 
-7.44465e-02  6.54462e-02        00000 
-8.53112e-02  6.82740e-02        00000 
 1.02143e-01  9.22761e-02        00000 
 8.95164e-02  8.96477e-02        00000 
 7.74736e-02  8.73012e-02        00000 
 6.59637e-02  8.52351e-02        00000 
 5.49327e-02  8.34535e-02        00000 
 4.43204e-02  8.19616e-02        00000 
 3.40601e-02  8.07651e-02        00000 
 2.40782e-02  7.98675e-02        00000 
 1.42967e-02  7.92707e-02        00000 
 4.63550e-03  7.89749e-02        00000 
-4.98671e-03  7.89802e-02        00000 
-1.46513e-02  7.92866e-02        00000 
-2.44395e-02  7.98941e-02        00000 
-3.44315e-02  8.08024e-02        00000 
-4.47054e-02  8.20097e-02        00000 
-5.53341e-02  8.35122e-02        00000 
-6.63832e-02  8.53045e-02        00000 
-7.79099e-02  8.73813e-02        00000 
-8.99626e-02  8.97386e-02        00000 
-1.02587e-01  9.23783e-02        00000 
 1.18168e-01  1.19847e-01        00000 
 1.03871e-01  1.17411e-01        00000 
 9.01668e-02  1.15240e-01        00000 
 7.69947e-02  1.13333e-01        00000 
 6.42920e-02  1.11690e-01        00000 
 5.19947e-02  1.10315e-01        00000 
 4.00359e-02  1.09210e-01        00000 
 2.83446e-02  1.08380e-01        00000 
 1.68465e-02  1.07826e-01        00000 
 5.46467e-03  1.07552e-01        00000 
-5.87939e-03  1.07557e-01        00000 
-1.72646e-02  1.07841e-01        00000 
-2.87693e-02  1.08405e-01        00000 
-4.04706e-02  1.09245e-01        00000 
-5.24427e-02  1.10360e-01        00000 
-6.47561e-02  1.11745e-01        00000 
-7.74767e-02  1.13398e-01        00000 
-9.06652e-02  1.15315e-01        00000 
-1.04378e-01  1.17496e-01        00000 
-1.18673e-01  1.19943e-01        00000 
 1.32983e-01  1.50665e-01        00000 
 1.17129e-01  1.48422e-01        00000 
 1.01876e-01  1.46425e-01        00000 
 8.71563e-02  1.44674e-01        00000 
 7.29033e-02  1.43168e-01        00000 
 5.90496e-02  1.41909e-01        00000 
 4.55269e-02  1.40898e-01        00000 
 3.22644e-02  1.40139e-01        00000 
 1.91892e-02  1.39633e-01        00000 
 6.22646e-03  1.39382e-01        00000 
-6.69970e-03  1.39387e-01        00000 
-1.96657e-02  1.39647e-01        00000 
-3.27475e-02  1.40162e-01        00000 
-4.60198e-02  1.40931e-01        00000 
-5.95557e-02  1.41950e-01        00000 
-7.34253e-02  1.43219e-01        00000 
-8.76960e-02  1.44734e-01        00000 
-1.02432e-01  1.46494e-01        00000 
-1.17694e-01  1.48500e-01        00000 
-1.33545e-01  1.50753e-01        00000 
 1.46581e-01  1.84483e-01        00000 
 1.29293e-01  1.82432e-01        00000 
 1.12611e-01  1.80608e-01        00000 
 9.64654e-02  1.79010e-01        00000 
 8.07854e-02  1.77637e-01        00000 
 6.55022e-02  1.76491e-01        00000 
 5.05459e-02  1.75572e-01        00000 
 3.58456e-02  1.74882e-01        00000 
 2.13289e-02  1.74422e-01        00000 
 6.92219e-03  1.74194e-01        00000 
-7.44882e-03  1.74198e-01        00000 
-2.18588e-02  1.74434e-01        00000 
-3.63820e-02  1.74902e-01        00000 
-5.10921e-02  1.75601e-01        00000 
-6.60614e-02  1.76528e-01        00000 
-8.13606e-02  1.77683e-01        00000 
-9.70581e-02  1.79064e-01        00000 
-1.13220e-01  1.80671e-01        00000 
-1.29911e-01  1.82504e-01        00000 
-1.47196e-01  1.84563e-01        00000 
 1.58962e-01  2.21047e-01        00000 
 1.40368e-01  2.19188e-01        00000 
 1.22382e-01  2.17535e-01        00000 
 1.04934e-01  2.16087e-01        00000 
 8.79529e-02  2.14844e-01        00000 
 7.13671e-02  2.13806e-01        00000 
 5.51061e-02  2.12975e-01        00000 
 3.90985e-02  2.12351e-01        00000 
 2.32721e-02  2.11935e-01        00000 
 7.55408e-03  2.11728e-01        00000 
-8.12888e-03  2.11732e-01        00000 
-2.38502e-02  2.11946e-01        00000 
-3.96831e-02  2.12369e-01        00000 
-5.57006e-02  2.13001e-01        00000 
-7.19747e-02  2.13840e-01        00000 
-8.85764e-02  2.14885e-01        00000 
-1.05575e-01  2.16135e-01        00000 
-1.23039e-01  2.17591e-01        00000 
-1.41034e-01  2.19251e-01        00000 
-1.59625e-01  2.21118e-01        00000 
 1.70133e-01  2.60101e-01        00000 
 1.50358e-01  2.58433e-01        00000 
 1.31196e-01  2.56949e-01        00000 
 1.12573e-01  2.55650e-01        00000 
 9.44172e-02  2.54533e-01        00000 
 7.66565e-02  2.53600e-01        00000 
 5.92189e-02  2.52852e-01        00000 
 4.20325e-02  2.52290e-01        00000 
 2.50250e-02  2.51915e-01        00000 
 8.12429e-03  2.51729e-01        00000 
-8.74196e-03  2.51732e-01        00000 
-2.56460e-02  2.51925e-01        00000 
-4.26602e-02  2.52306e-01        00000 
-5.98567e-02  2.52874e-01        00000 
-7.73075e-02  2.53629e-01        00000 
-9.50843e-02  2.54568e-01        00000 
-1.13258e-01  2.55692e-01        00000 
-1.31897e-01  2.56998e-01        00000 
-1.51068e-01  2.58489e-01        00000 
-1.70840e-01  2.60164e-01        00000 
 1.80099e-01  3.01394e-01        00000 
 1.59270e-01  2.99916e-01        00000 
 1.39058e-01  2.98601e-01        00000 
 1.19389e-01  2.97446e-01        00000 
 1.00189e-01  2.96452e-01        00000 
 8.13827e-02  2.95619e-01        00000 
 6.28965e-02  2.94949e-01        00000 
 4.46577e-02  2.94444e-01        00000 
 2.65943e-02  2.94106e-01        00000 
 8.63522e-03  2.93938e-01        00000 
-9.29034e-03  2.93941e-01        00000 
-2.72529e-02  2.94114e-01        00000 
-4.53231e-02  2.94457e-01        00000 
-6.35722e-02  2.94967e-01        00000 
-8.20722e-02  2.95643e-01        00000 
-1.00895e-01  2.96482e-01        00000 
-1.20114e-01  2.97482e-01        00000 
-1.39799e-01  2.98642e-01        00000 
-1.60020e-01  2.99964e-01        00000 
-1.80846e-01  3.01449e-01        00000 
 1.88858e-01  3.44677e-01        00000 
 1.67102e-01  3.43389e-01        00000 
 1.45973e-01  3.42241e-01        00000 
 1.25394e-01  3.41228e-01        00000 
 1.05283e-01  3.40350e-01        00000 
 8.55621e-02  3.39609e-01        00000 
 6.61553e-02  3.39008e-01        00000 
 4.69883e-02  3.38552e-01        00000 
 2.79897e-02  3.38246e-01        00000 
 9.09031e-03  3.38093e-01        00000 
-9.77735e-03  3.38095e-01        00000 
-2.86803e-02  3.38252e-01        00000 
-4.76861e-02  3.38563e-01        00000 
-6.68639e-02  3.39023e-01        00000 
-8.62850e-02  3.39628e-01        00000 
-1.06023e-01  3.40374e-01        00000 
-1.26153e-01  3.41257e-01        00000 
-1.46750e-01  3.42275e-01        00000 
-1.67888e-01  3.43429e-01        00000 
-1.89641e-01  3.44723e-01        00000 
 1.96396e-01  3.89699e-01        00000 
 1.73847e-01  3.88605e-01        00000 
 1.51943e-01  3.87623e-01        00000 
 1.30597e-01  3.86747e-01        00000 
 1.09718e-01  3.85977e-01        00000 
 8.92208e-02  3.85316e-01        00000 
 6.90226e-02  3.84772e-01        00000 
 4.90479e-02  3.84353e-01        00000 
 2.92270e-02  3.84069e-01        00000 
 9.49517e-03  3.83925e-01        00000 
-1.02086e-02  3.83927e-01        00000 
-2.99442e-02  3.84074e-01        00000 
-4.97726e-02  3.84361e-01        00000 
-6.97586e-02  3.84784e-01        00000 
-8.99719e-02  3.85331e-01        00000 
-1.10488e-01  3.85996e-01        00000 
-1.31386e-01  3.86771e-01        00000 
-1.52751e-01  3.87651e-01        00000 
-1.74666e-01  3.88638e-01        00000 
-1.97213e-01  3.89738e-01        00000 
 2.02671e-01  4.36200e-01        00000 
 1.79478e-01  4.35307e-01        00000 
 1.56963e-01  4.34493e-01        00000 
 1.35016e-01  4.33749e-01        00000 
 1.13529e-01  4.33075e-01        00000 
 9.24012e-02  4.32480e-01        00000 
 7.15430e-02  4.31976e-01        00000 
 5.08758e-02  4.31579e-01        00000 
 3.03331e-02  4.31304e-01        00000 
 9.85925e-03  4.31163e-01        00000 
-1.05937e-02  4.31165e-01        00000 
-3.10715e-02  4.31308e-01        00000 
-5.16221e-02  4.31586e-01        00000 
-7.23012e-02  4.31987e-01        00000 
-9.31752e-02  4.32494e-01        00000 
-1.14322e-01  4.33092e-01        00000 
-1.35831e-01  4.33768e-01        00000 
-1.57798e-01  4.34516e-01        00000 
-1.80327e-01  4.35334e-01        00000 
-2.03519e-01  4.36232e-01        00000 
 2.07599e-01  4.83870e-01        00000 
 1.83952e-01  4.83192e-01        00000 
 1.61022e-01  4.82553e-01        00000 
 1.38668e-01  4.81946e-01        00000 
 1.16756e-01  4.81371e-01        00000 
 9.51628e-02  4.80837e-01        00000 
 7.37848e-02  4.80364e-01        00000 
 5.25353e-02  4.79972e-01        00000 
 3.13530e-02  4.79692e-01        00000 
 1.01991e-02  4.79546e-01        00000 
-1.09497e-02  4.79547e-01        00000 
-3.21076e-02  4.79697e-01        00000 
-5.32981e-02  4.79980e-01        00000 
-7.45600e-02  4.80375e-01        00000 
-9.59546e-02  4.80851e-01        00000 
-1.17568e-01  4.81387e-01        00000 
-1.39504e-01  4.81965e-01        00000 
-1.61880e-01  4.82576e-01        00000 
-1.84825e-01  4.83218e-01        00000 
-2.08473e-01  4.83900e-01        00000 
 2.11055e-01  5.32284e-01        00000 
 1.87206e-01  5.31840e-01        00000 
 1.64095e-01  5.31401e-01        00000 
 1.41550e-01  5.30969e-01        00000 
 1.19421e-01  5.30543e-01        00000 
 9.75617e-02  5.30118e-01        00000 
 7.58311e-02  5.29702e-01        00000 
 5.41229e-02  5.29330e-01        00000 
 3.23634e-02  5.29035e-01        00000 
 1.05406e-02  5.28878e-01        00000 
-1.13033e-02  5.28880e-01        00000 
-3.31303e-02  5.29041e-01        00000 
-5.48981e-02  5.29340e-01        00000 
-7.66190e-02  5.29717e-01        00000 
-9.83666e-02  5.30136e-01        00000 
-1.20247e-01  5.30564e-01        00000 
-1.42400e-01  5.30994e-01        00000 
-1.64969e-01  5.31429e-01        00000 
-1.88098e-01  5.31870e-01        00000 
-2.11951e-01  5.32317e-01        00000 
 2.12957e-01  5.80806e-01        00000 
 1.89214e-01  5.80603e-01        00000 
 1.66127e-01  5.80409e-01        00000 
 1.43567e-01  5.80259e-01        00000 
 1.21419e-01  5.80143e-01        00000 
 9.95401e-02  5.80025e-01        00000 
 7.77342e-02  5.79852e-01        00000 
 5.57503e-02  5.79595e-01        00000 
 3.34925e-02  5.79369e-01        00000 
 1.09603e-02  5.79185e-01        00000 
-1.17320e-02  5.79188e-01        00000 
-3.42685e-02  5.79379e-01        00000 
-5.65348e-02  5.79611e-01        00000 
-7.85317e-02  5.79874e-01        00000 
-1.00355e-01  5.80052e-01        00000 
-1.22255e-01  5.80176e-01        00000 
-1.44427e-01  5.80296e-01        00000 
-1.67012e-01  5.80450e-01        00000 
-1.90117e-01  5.80646e-01        00000 
-2.13867e-01  5.80850e-01        00000 
 2.13527e-01  6.28610e-01        00000 
 1.90098e-01  6.28598e-01        00000 
 1.67083e-01  6.28672e-01        00000 
 1.44529e-01  6.28899e-01        00000 
 1.22415e-01  6.29309e-01        00000 
 1.00658e-01  6.29894e-01        00000 
 7.90926e-02  6.30584e-01        00000 
 5.74177e-02  6.31183e-01        00000 
 3.48790e-02  6.31275e-01        00000 
 1.14324e-02  6.31494e-01        00000 
-1.22119e-02  6.31499e-01        00000 
-3.56627e-02  6.31290e-01        00000 
-5.82099e-02  6.31208e-01        00000 
-7.98979e-02  6.30618e-01        00000 
-1.01480e-01  6.29937e-01        00000 
-1.23259e-01  6.29359e-01        00000 
-1.45396e-01  6.28956e-01        00000 
-1.67971e-01  6.28733e-01        00000 
-1.91003e-01  6.28662e-01        00000 
-2.14443e-01  6.28674e-01        00000 
 2.13543e-01  6.75311e-01        00000 
 1.90290e-01  6.75293e-01        00000 
 1.67258e-01  6.75296e-01        00000 
 1.44591e-01  6.75487e-01        00000 
 1.22310e-01  6.76063e-01        00000 
 1.00355e-01  6.77264e-01        00000 
 7.85834e-02  6.79409e-01        00000 
 5.67026e-02  6.82976e-01        00000 
 3.42669e-02  6.88650e-01        00000 
 1.12268e-02  6.91255e-01        00000 
-1.20152e-02  6.91263e-01        00000 
-3.50595e-02  6.88673e-01        00000 
-5.75037e-02  6.83015e-01        00000 
-7.93972e-02  6.79464e-01        00000 
-1.01185e-01  6.77331e-01        00000 
-1.23160e-01  6.76142e-01        00000 
-1.45462e-01  6.75572e-01        00000 
-1.68148e-01  6.75385e-01        00000 
-1.91195e-01  6.75381e-01        00000 
-2.14460e-01  6.75398e-01        00000 
 1.09952e-02  6.86697e-03        00000 
 8.67157e-03  5.44138e-03        00000 
 7.12555e-03  4.44063e-03        00000 
 5.86176e-03  3.74715e-03        00000 
 4.74461e-03  3.25875e-03        00000 
 3.71537e-03  2.91339e-03        00000 
 2.74215e-03  2.67342e-03        00000 
 1.80484e-03  2.51570e-03        00000 
 8.89100e-04  2.42636e-03        00000 
-1.65542e-05  2.39795e-03        00000 
-9.22413e-04  2.42821e-03        00000 
-1.83880e-03  2.51960e-03        00000 
-2.77729e-03  2.67978e-03        00000 
-3.75244e-03  2.92300e-03        00000 
-4.78478e-03  3.27291e-03        00000 
-5.90706e-03  3.76799e-03        00000 
-7.17957e-03  4.47127e-03        00000 
-8.74013e-03  5.48572e-03        00000 
-1.10831e-02  6.93023e-03        00000 
 3.33858e-02  2.18055e-02        00000 
 2.71869e-02  1.85172e-02        00000 
 2.23996e-02  1.61227e-02        00000 
 1.83874e-02  1.43463e-02        00000 
 1.48402e-02  1.30292e-02        00000 
 1.15905e-02  1.20631e-02        00000 
 8.53656e-03  1.13745e-02        00000 
 5.61033e-03  1.09141e-02        00000 
 2.76142e-03  1.06504e-02        00000 
-5.11914e-05  1.05663e-02        00000 
-2.86454e-03  1.06561e-02        00000 
-5.71577e-03  1.09258e-02        00000 
-8.64622e-03  1.13933e-02        00000 
-1.17069e-02  1.20906e-02        00000 
-1.49669e-02  1.30677e-02        00000 
-1.85293e-02  1.43993e-02        00000 
-2.25624e-02  1.61939e-02        00000 
-2.73729e-02  1.86092e-02        00000 
-3.35831e-02  2.19140e-02        00000 
 5.27560e-02  3.74826e-02        00000 
 4.48825e-02  3.45212e-02        00000 
 3.76914e-02  3.18922e-02        00000 
 3.12122e-02  2.97223e-02        00000 
 2.52938e-02  2.79927e-02        00000 
 1.97913e-02  2.66577e-02        00000 
 1.45877e-02  2.56712e-02        00000 
 9.58976e-03  2.49951e-02        00000 
 4.72050e-03  2.46021e-02        00000 
-8.73496e-05  2.44757e-02        00000 
-4.89644e-03  2.46108e-02        00000 
-9.76955e-03  2.50130e-02        00000 
-1.47743e-02  2.56990e-02        00000 
-1.99882e-02  2.66967e-02        00000 
-2.55052e-02  2.80443e-02        00000 
-3.14422e-02  2.97880e-02        00000 
-3.79424e-02  3.19726e-02        00000 
-4.51506e-02  3.46155e-02        00000 
-5.30303e-02  3.75899e-02        00000 
 7.08042e-02  5.63197e-02        00000 
 6.11265e-02  5.35538e-02        00000 
 5.20354e-02  5.10936e-02        00000 
 4.34996e-02  4.89574e-02        00000 
 3.54707e-02  4.71714e-02        00000 
 2.78650e-02  4.57376e-02        00000 
 2.05902e-02  4.46454e-02        00000 
 1.35562e-02  4.38803e-02        00000 
 6.67829e-03  4.34291e-02        00000 
-1.23590e-04  4.32831e-02        00000 
-6.92702e-03  4.34394e-02        00000 
-1.38097e-02  4.39011e-02        00000 
-2.08518e-02  4.46772e-02        00000 
-2.81383e-02  4.57809e-02        00000 
-3.57593e-02  4.72267e-02        00000 
-4.38067e-02  4.90250e-02        00000 
-5.23614e-02  5.11734e-02        00000 
-6.14675e-02  5.36455e-02        00000 
-7.11503e-02  5.64235e-02        00000 
 8.76971e-02  7.87247e-02        00000 
 7.62393e-02  7.61463e-02        00000 
 6.53405e-02  7.38544e-02        00000 
 5.49576e-02  7.18557e-02        00000 
 4.50359e-02  7.01582e-02        00000 
 3.55115e-02  6.87700e-02        00000 
 2.63104e-02  6.76942e-02        00000 
 1.73528e-02  6.69301e-02        00000 
 8.55712e-03  6.64753e-02        00000 
-1.58576e-04  6.63276e-02        00000 
-8.87593e-03  6.64860e-02        00000 
-1.76766e-02  6.69516e-02        00000 
-2.66427e-02  6.77265e-02        00000 
-3.58557e-02  6.88134e-02        00000 
-4.53953e-02  7.02127e-02        00000 
-5.53347e-02  7.19213e-02        00000 
-6.57357e-02  7.39311e-02        00000 
-7.66487e-02  7.62341e-02        00000 
-8.81109e-02  7.88240e-02        00000 
 1.03457e-01  1.04667e-01        00000 
 9.02864e-02  1.02272e-01        00000 