<?xml version="1.0" encoding="utf-8"?>
<VTKFile byte_order="LittleEndian" type="UnstructuredGrid" version="0.1">
   <UnstructuredGrid>
      <Piece NumberOfCells="1444" NumberOfPoints="761">
         <Points>
            <DataArray Name="Points" NumberOfComponents="3" format="ascii" type="Float32">
0.0000 1.0000 0.0000
0.0000 1.0526 0.0000
0.0000 1.1053 0.0000
0.0000 1.1579 0.0000
0.0000 1.2105 0.0000
0.0000 1.2632 0.0000
0.0000 1.3158 0.0000
0.0000 1.3684 0.0000
0.0000 1.4211 0.0000
0.0000 1.4737 0.0000
0.0000 1.5263 0.0000
0.0000 1.5789 0.0000
0.0000 1.6316 0.0000
0.0000 1.6842 0.0000
0.0000 1.7368 0.0000
0.0000 1.7895 0.0000
0.0000 1.8421 0.0000
0.0000 1.8947 0.0000
0.0000 1.9474 0.0000
0.0000 2.0000 0.0000
0.1053 1.0000 0.0000
0.1053 1.0526 0.0000
0.1053 1.1053 0.0000
0.1053 1.1579 0.0000
0.1053 1.2105 0.0000
0.1053 1.2632 0.0000
0.1053 1.3158 0.0000
0.1053 1.3684 0.0000
0.1053 1.4211 0.0000
0.1053 1.4737 0.0000
0.1053 1.5263 0.0000
0.1053 1.5789 0.0000
0.1053 1.6316 0.0000
0.1053 1.6842 0.0000
0.1053 1.7368 0.0000
0.1053 1.7895 0.0000
0.1053 1.8421 0.0000
0.1053 1.8947 0.0000
0.1053 1.9474 0.0000
0.1053 2.0000 0.0000
0.2105 1.0000 0.0000
0.2105 1.0526 0.0000
0.2105 1.1053 0.0000
0.2105 1.1579 0.0000
0.2105 1.2105 0.0000
0.2105 1.2632 0.0000
0.2105 1.3158 0.0000
0.2105 1.3684 0.0000
0.2105 1.4211 0.0000
0.2105 1.4737 0.0000
0.2105 1.5263 0.0000
0.2105 1.5789 0.0000
0.2105 1.6316 0.0000
0.2105 1.6842 0.0000
0.2105 1.7368 0.0000
0.2105 1.7895 0.0000
0.2105 1.8421 0.0000
0.2105 1.8947 0.0000
0.2105 1.9474 0.0000
0.2105 2.0000 0.0000
0.3158 1.0000 0.0000
0.3158 1.0526 0.0000
0.3158 1.1053 0.0000
0.3158 1.1579 0.0000
0.3158 1.2105 0.0000
0.3158 1.2632 0.0000
0.3158 1.3158 0.0000
0.3158 1.3684 0.0000
0.3158 1.4211 0.0000
0.3158 1.4737 0.0000
0.3158 1.5263 0.0000
0.3158 1.5789 0.0000
0.3158 1.6316 0.0000
0.3158 1.6842 0.0000
0.3158 1.7368 0.0000
0.3158 1.7895 0.0000
0.3158 1.8421 0.0000
0.3158 1.8947 0.0000
0.3158 1.9474 0.0000
0.3158 2.0000 0.0000
0.4211 1.0000 0.0000
0.4211 1.0526 0.0000
0.4211 1.1053 0.0000
0.4211 1.1579 0.0000
0.4211 1.2105 0.0000
0.4211 1.2632 0.0000
0.4211 1.3158 0.0000
0.4211 1.3684 0.0000
0.4211 1.4211 0.0000
0.4211 1.4737 0.0000
0.4211 1.5263 0.0000
0.4211 1.5789 0.0000
0.4211 1.6316 0.0000
0.4211 1.6842 0.0000
0.4211 1.7368 0.0000
0.4211 1.7895 0.0000
0.4211 1.8421 0.0000
0.4211 1.8947 0.0000
0.4211 1.9474 0.0000
0.4211 2.0000 0.0000
0.5263 1.0000 0.0000
0.5263 1.0526 0.0000
0.5263 1.1053 0.0000
0.5263 1.1579 0.0000
0.5263 1.2105 0.0000
0.5263 1.2632 0.0000
0.5263 1.3158 0.0000
0.5263 1.3684 0.0000
0.5263 1.4211 0.0000
0.5263 1.4737 0.0000
0.5263 1.5263 0.0000
0.5263 1.5789 0.0000
0.5263 1.6316 0.0000
0.5263 1.6842 0.0000
0.5263 1.7368 0.0000
0.5263 1.7895 0.0000
0.5263 1.8421 0.0000
0.5263 1.8947 0.0000
0.5263 1.9474 0.0000
0.5263 2.0000 0.0000
0.6316 1.0000 0.0000
0.6316 1.0526 0.0000
0.6316 1.1053 0.0000
0.6316 1.1579 0.0000
0.6316 1.2105 0.0000
0.6316 1.2632 0.0000
0.6316 1.3158 0.0000
0.6316 1.3684 0.0000
0.6316 1.4211 0.0000
0.6316 1.4737 0.0000
0.6316 1.5263 0.0000
0.6316 1.5789 0.0000
0.6316 1.6316 0.0000
0.6316 1.6842 0.0000
0.6316 1.7368 0.0000
0.6316 1.7895 0.0000
0.6316 1.8421 0.0000
0.6316 1.8947 0.0000
0.6316 1.9474 0.0000
0.6316 2.0000 0.0000
0.7368 1.0000 0.0000
0.7368 1.0526 0.0000
0.7368 1.1053 0.0000
0.7368 1.1579 0.0000
0.7368 1.2105 0.0000
0.7368 1.2632 0.0000
0.7368 1.3158 0.0000
0.7368 1.3684 0.0000
0.7368 1.4211 0.0000
0.7368 1.4737 0.0000
0.7368 1.5263 0.0000
0.7368 1.5789 0.0000
0.7368 1.6316 0.0000
0.7368 1.6842 0.0000
0.7368 1.7368 0.0000
0.7368 1.7895 0.0000
0.7368 1.8421 0.0000
0.7368 1.8947 0.0000
0.7368 1.9474 0.0000
0.7368 2.0000 0.0000
0.8421 1.0000 0.0000
0.8421 1.0526 0.0000
0.8421 1.1053 0.0000
0.8421 1.1579 0.0000
0.8421 1.2105 0.0000
0.8421 1.2632 0.0000
0.8421 1.3158 0.0000
0.8421 1.3684 0.0000
0.8421 1.4211 0.0000
0.8421 1.4737 0.0000
0.8421 1.5263 0.0000
0.8421 1.5789 0.0000
0.8421 1.6316 0.0000
0.8421 1.6842 0.0000
0.8421 1.7368 0.0000
0.8421 1.7895 0.0000
0.8421 1.8421 0.0000
0.8421 1.8947 0.0000
0.8421 1.9474 0.0000
0.8421 2.0000 0.0000
0.9474 1.0000 0.0000
0.9474 1.0526 0.0000
0.9474 1.1053 0.0000
0.9474 1.1579 0.0000
0.9474 1.2105 0.0000
0.9474 1.2632 0.0000
0.9474 1.3158 0.0000
0.9474 1.3684 0.0000
0.9474 1.4211 0.0000
0.9474 1.4737 0.0000
0.9474 1.5263 0.0000
0.9474 1.5789 0.0000
0.9474 1.6316 0.0000
0.9474 1.6842 0.0000
0.9474 1.7368 0.0000
0.9474 1.7895 0.0000
0.9474 1.8421 0.0000
0.9474 1.8947 0.0000
0.9474 1.9474 0.0000
0.9474 2.0000 0.0000
1.0526 1.0000 0.0000
1.0526 1.0526 0.0000
1.0526 1.1053 0.0000
1.0526 1.1579 0.0000
1.0526 1.2105 0.0000
1.0526 1.2632 0.0000
1.0526 1.3158 0.0000
1.0526 1.3684 0.0000
1.0526 1.4211 0.0000
1.0526 1.4737 0.0000
1.0526 1.5263 0.0000
1.0526 1.5789 0.0000
1.0526 1.6316 0.0000
1.0526 1.6842 0.0000
1.0526 1.7368 0.0000
1.0526 1.7895 0.0000
1.0526 1.8421 0.0000
1.0526 1.8947 0.0000
1.0526 1.9474 0.0000
1.0526 2.0000 0.0000
1.1579 1.0000 0.0000
1.1579 1.0526 0.0000
1.1579 1.1053 0.0000
1.1579 1.1579 0.0000
1.1579 1.2105 0.0000
1.1579 1.2632 0.0000
1.1579 1.3158 0.0000
1.1579 1.3684 0.0000
1.1579 1.4211 0.0000
1.1579 1.4737 0.0000
1.1579 1.5263 0.0000
1.1579 1.5789 0.0000
1.1579 1.6316 0.0000
1.1579 1.6842 0.0000
1.1579 1.7368 0.0000
1.1579 1.7895 0.0000
1.1579 1.8421 0.0000
1.1579 1.8947 0.0000
1.1579 1.9474 0.0000
1.1579 2.0000 0.0000
1.2632 1.0000 0.0000
1.2632 1.0526 0.0000
1.2632 1.1053 0.0000
1.2632 1.1579 0.0000
1.2632 1.2105 0.0000
1.2632 1.2632 0.0000
1.2632 1.3158 0.0000
1.2632 1.3684 0.0000
1.2632 1.4211 0.0000
1.2632 1.4737 0.0000
1.2632 1.5263 0.0000
1.2632 1.5789 0.0000
1.2632 1.6316 0.0000
1.2632 1.6842 0.0000
1.2632 1.7368 0.0000
1.2632 1.7895 0.0000
1.2632 1.8421 0.0000
1.2632 1.8947 0.0000
1.2632 1.9474 0.0000
1.2632 2.0000 0.0000
1.3684 1.0000 0.0000
1.3684 1.0526 0.0000
1.3684 1.1053 0.0000
1.3684 1.1579 0.0000
1.3684 1.2105 0.0000
1.3684 1.2632 0.0000
1.3684 1.3158 0.0000
1.3684 1.3684 0.0000
1.3684 1.4211 0.0000
1.3684 1.4737 0.0000
1.3684 1.5263 0.0000
1.3684 1.5789 0.0000
1.3684 1.6316 0.0000
1.3684 1.6842 0.0000
1.3684 1.7368 0.0000
1.3684 1.7895 0.0000
1.3684 1.8421 0.0000
1.3684 1.8947 0.0000
1.3684 1.9474 0.0000
1.3684 2.0000 0.0000
1.4737 1.0000 0.0000
1.4737 1.0526 0.0000
1.4737 1.1053 0.0000
1.4737 1.1579 0.0000
1.4737 1.2105 0.0000
1.4737 1.2632 0.0000
1.4737 1.3158 0.0000
1.4737 1.3684 0.0000
1.4737 1.4211 0.0000
1.4737 1.4737 0.0000
1.4737 1.5263 0.0000
1.4737 1.5789 0.0000
1.4737 1.6316 0.0000
1.4737 1.6842 0.0000
1.4737 1.7368 0.0000
1.4737 1.7895 0.0000
1.4737 1.8421 0.0000
1.4737 1.8947 0.0000
1.4737 1.9474 0.0000
1.4737 2.0000 0.0000
1.5789 1.0000 0.0000
1.5789 1.0526 0.0000
1.5789 1.1053 0.0000
1.5789 1.1579 0.0000
1.5789 1.2105 0.0000
1.5789 1.2632 0.0000
1.5789 1.3158 0.0000
1.5789 1.3684 0.0000
1.5789 1.4211 0.0000
1.5789 1.4737 0.0000
1.5789 1.5263 0.0000
1.5789 1.5789 0.0000
1.5789 1.6316 0.0000
1.5789 1.6842 0.0000
1.5789 1.7368 0.0000
1.5789 1.7895 0.0000
1.5789 1.8421 0.0000
1.5789 1.8947 0.0000
1.5789 1.9474 0.0000
1.5789 2.0000 0.0000
1.6842 1.0000 0.0000
1.6842 1.0526 0.0000
1.6842 1.1053 0.0000
1.6842 1.1579 0.0000
1.6842 1.2105 0.0000
1.6842 1.2632 0.0000
1.6842 1.3158 0.0000
1.6842 1.3684 0.0000
1.6842 1.4211 0.0000
1.6842 1.4737 0.0000
1.6842 1.5263 0.0000
1.6842 1.5789 0.0000
1.6842 1.6316 0.0000
1.6842 1.6842 0.0000
1.6842 1.7368 0.0000
1.6842 1.7895 0.0000
1.6842 1.8421 0.0000
1.6842 1.8947 0.0000
1.6842 1.9474 0.0000
1.6842 2.0000 0.0000
1.7895 1.0000 0.0000
1.7895 1.0526 0.0000
1.7895 1.1053 0.0000
1.7895 1.1579 0.0000
1.7895 1.2105 0.0000
1.7895 1.2632 0.0000
1.7895 1.3158 0.0000
1.7895 1.3684 0.0000
1.7895 1.4211 0.0000
1.7895 1.4737 0.0000
1.7895 1.5263 0.0000
1.7895 1.5789 0.0000
1.7895 1.6316 0.0000
1.7895 1.6842 0.0000
1.7895 1.7368 0.0000
1.7895 1.7895 0.0000
1.7895 1.8421 0.0000
1.7895 1.8947 0.0000
1.7895 1.9474 0.0000
1.7895 2.0000 0.0000
1.8947 1.0000 0.0000
1.8947 1.0526 0.0000
1.8947 1.1053 0.0000
1.8947 1.1579 0.0000
1.8947 1.2105 0.0000
1.8947 1.2632 0.0000
1.8947 1.3158 0.0000
1.8947 1.3684 0.0000
1.8947 1.4211 0.0000
1.8947 1.4737 0.0000
1.8947 1.5263 0.0000
1.8947 1.5789 0.0000
1.8947 1.6316 0.0000
1.8947 1.6842 0.0000
1.8947 1.7368 0.0000
1.8947 1.7895 0.0000
1.8947 1.8421 0.0000
1.8947 1.8947 0.0000
1.8947 1.9474 0.0000
1.8947 2.0000 0.0000
2.0000 1.0000 0.0000
2.0000 1.0526 0.0000
2.0000 1.1053 0.0000
2.0000 1.1579 0.0000
2.0000 1.2105 0.0000
2.0000 1.2632 0.0000
2.0000 1.3158 0.0000
2.0000 1.3684 0.0000
2.0000 1.4211 0.0000
2.0000 1.4737 0.0000
2.0000 1.5263 0.0000
2.0000 1.5789 0.0000
2.0000 1.6316 0.0000
2.0000 1.6842 0.0000
2.0000 1.7368 0.0000
2.0000 1.7895 0.0000
2.0000 1.8421 0.0000
2.0000 1.8947 0.0000
2.0000 1.9474 0.0000
2.0000 2.0000 0.0000
0.0526 1.0263 0.0000
0.0526 1.0789 0.0000
0.0526 1.1316 0.0000
0.0526 1.1842 0.0000
0.0526 1.2368 0.0000
0.0526 1.2895 0.0000
0.0526 1.3421 0.0000
0.0526 1.3947 0.0000
0.0526 1.4474 0.0000
0.0526 1.5000 0.0000
0.0526 1.5526 0.0000
0.0526 1.6053 0.0000
0.0526 1.6579 0.0000
0.0526 1.7105 0.0000
0.0526 1.7632 0.0000
0.0526 1.8158 0.0000
0.0526 1.8684 0.0000
0.0526 1.9211 0.0000
0.0526 1.9737 0.0000
0.1579 1.0263 0.0000
0.1579 1.0789 0.0000
0.1579 1.1316 0.0000
0.1579 1.1842 0.0000
0.1579 1.2368 0.0000
0.1579 1.2895 0.0000
0.1579 1.3421 0.0000
0.1579 1.3947 0.0000
0.1579 1.4474 0.0000
0.1579 1.5000 0.0000
0.1579 1.5526 0.0000
0.1579 1.6053 0.0000
0.1579 1.6579 0.0000
0.1579 1.7105 0.0000
0.1579 1.7632 0.0000
0.1579 1.8158 0.0000
0.1579 1.8684 0.0000
0.1579 1.9211 0.0000
0.1579 1.9737 0.0000
0.2632 1.0263 0.0000
0.2632 1.0789 0.0000
0.2632 1.1316 0.0000
0.2632 1.1842 0.0000
0.2632 1.2368 0.0000
0.2632 1.2895 0.0000
0.2632 1.3421 0.0000
0.2632 1.3947 0.0000
0.2632 1.4474 0.0000
0.2632 1.5000 0.0000
0.2632 1.5526 0.0000
0.2632 1.6053 0.0000
0.2632 1.6579 0.0000
0.2632 1.7105 0.0000
0.2632 1.7632 0.0000
0.2632 1.8158 0.0000
0.2632 1.8684 0.0000
0.2632 1.9211 0.0000
0.2632 1.9737 0.0000
0.3684 1.0263 0.0000
0.3684 1.0789 0.0000
0.3684 1.1316 0.0000
0.3684 1.1842 0.0000
[...]
         <PointData>
            <DataArray Name="displacement" NumberOfComponents="3" format="ascii" type="Float64">
-9.66032e-19  2.95446e-19        00000 
 3.86413e-18  3.86413e-18        00000 
-7.62870e-18 -4.76794e-18        00000 
 2.54599e-19  6.03549e-18        00000 
 4.29114e-18 -3.57595e-18        00000 
 1.26538e-18  2.24041e-18        00000 
 2.38397e-18        00000        00000 
-2.24272e-18  8.53655e-19        00000 
 7.59890e-19 -7.15191e-19        00000 
-2.40488e-19  1.20244e-18        00000 
 5.36393e-19 -2.62237e-18        00000 
-3.68794e-19  1.76722e-18        00000 
-4.76794e-19 -9.53587e-19        00000 
-1.75787e-18  3.75930e-18        00000 
-4.76794e-19 -2.50317e-18        00000 
-7.89257e-18  5.00212e-18        00000 
 4.29114e-18 -3.81435e-18        00000 
       00000  1.92404e-18        00000 
       00000 -1.44265e-18        00000 
-5.04591e-18  3.60663e-19        00000 
-7.05832e-02 -4.37123e-02        00000 
-5.41249e-02 -3.32367e-02        00000 
-4.38174e-02 -2.64248e-02        00000 
-3.56818e-02 -2.18156e-02        00000 
-2.87637e-02 -1.85787e-02        00000 
-2.26292e-02 -1.62691e-02        00000 
-1.70187e-02 -1.46329e-02        00000 
-1.17572e-02 -1.35176e-02        00000 
-6.71665e-03 -1.28304e-02        00000 
-1.79459e-03 -1.25183e-02        00000 
 3.09861e-03 -1.25588e-02        00000 
 8.04975e-03 -1.29560e-02        00000 
 1.31518e-02 -1.37418e-02        00000 
 1.85143e-02 -1.49809e-02        00000 
 2.42780e-02 -1.67817e-02        00000 
 3.06371e-02 -1.93170e-02        00000 
 3.78772e-02 -2.28623e-02        00000 
 4.64564e-02 -2.78707e-02        00000 
 5.72955e-02 -3.51310e-02        00000 
 7.41026e-02 -4.60164e-02        00000 
-1.24166e-01 -7.81257e-02        00000 
-1.05461e-01 -7.02133e-02        00000 
-8.79107e-02 -6.27279e-02        00000 
-7.25277e-02 -5.65221e-02        00000 
-5.88559e-02 -5.16114e-02        00000 
-4.64639e-02 -4.78362e-02        00000 
-3.50054e-02 -4.50293e-02        00000 
-2.42042e-02 -4.30552e-02        00000 
-1.38338e-02 -4.18160e-02        00000 
-3.69939e-03 -4.12501e-02        00000 
 6.37681e-03 -4.13297e-02        00000 
 1.65686e-02 -4.20597e-02        00000 
 2.70580e-02 -4.34771e-02        00000 
 3.80479e-02 -4.56531e-02        00000 
 4.97753e-02 -4.86937e-02        00000 
 6.25246e-02 -5.27383e-02        00000 
 7.66347e-02 -5.79461e-02        00000 
 9.24858e-02 -6.44493e-02        00000 
 1.10397e-01 -7.21928e-02        00000 
 1.29203e-01 -8.03298e-02        00000 
-1.71914e-01 -1.19996e-01        00000 
-1.49233e-01 -1.12719e-01        00000 
-1.27479e-01 -1.06151e-01        00000 
-1.06901e-01 -1.00268e-01        00000 
-8.76796e-02 -9.52347e-02        00000 
-6.97003e-02 -9.11146e-02        00000 
-5.27454e-02 -8.79043e-02        00000 
-3.65711e-02 -8.55701e-02        00000 
-2.09349e-02 -8.40734e-02        00000 
-5.60244e-03 -8.33839e-02        00000 
 9.65390e-03 -8.34866e-02        00000 
 2.50601e-02 -8.43842e-02        00000 
 4.08457e-02 -8.60962e-02        00000 
 5.72469e-02 -8.86562e-02        00000 
 7.45047e-02 -9.21027e-02        00000 
 9.28504e-02 -9.64646e-02        00000 
 1.12467e-01 -1.01735e-01        00000 
 1.33402e-01 -1.07838e-01        00000 
 1.55394e-01 -1.14610e-01        00000 
 1.78108e-01 -1.22078e-01        00000 
-2.15510e-01 -1.70411e-01        00000 
-1.88556e-01 -1.63821e-01        00000 
-1.62600e-01 -1.57880e-01        00000 
-1.37704e-01 -1.52592e-01        00000 
-1.13889e-01 -1.47980e-01        00000 
-9.11225e-02 -1.44099e-01        00000 
-6.92832e-02 -1.40992e-01        00000 
-4.81931e-02 -1.38683e-01        00000 
-2.76416e-02 -1.37179e-01        00000 
-7.40200e-03 -1.36481e-01        00000 
 1.27588e-02 -1.36591e-01        00000 
 3.30755e-02 -1.37506e-01        00000 
 5.37803e-02 -1.39230e-01        00000 
 7.50957e-02 -1.41759e-01        00000 
 9.72227e-02 -1.45083e-01        00000 
 1.20319e-01 -1.49175e-01        00000 
 1.44467e-01 -1.53987e-01        00000 
 1.69648e-01 -1.59464e-01        00000 
 1.95773e-01 -1.65584e-01        00000 
 2.22720e-01 -1.72347e-01        00000 
-2.55317e-01 -2.29518e-01        00000 
-2.24235e-01 -2.23515e-01        00000 
-1.94252e-01 -2.18144e-01        00000 
-1.65326e-01 -2.13384e-01        00000 
-1.37408e-01 -2.09245e-01        00000 
-1.10420e-01 -2.05749e-01        00000 
-8.42533e-02 -2.02929e-01        00000 
-5.87598e-02 -2.00815e-01        00000 
-3.37578e-02 -1.99429e-01        00000 
-9.04415e-03 -1.98785e-01        00000 
 1.55967e-02 -1.98890e-01        00000 
 4.03834e-02 -1.99743e-01        00000 
 6.55289e-02 -2.01335e-01        00000 
 9.12302e-02 -2.03651e-01        00000 
 1.17656e-01 -2.06666e-01        00000 
 1.44935e-01 -2.10349e-01        00000 
 1.73142e-01 -2.14667e-01        00000 
 2.02306e-01 -2.19596e-01        00000 
 2.32416e-01 -2.25130e-01        00000 
 2.63467e-01 -2.31293e-01        00000 
-2.91564e-01 -2.96749e-01        00000 
-2.56639e-01 -2.91301e-01        00000 
-2.22888e-01 -2.86441e-01        00000 
-1.90219e-01 -2.82156e-01        00000 
-1.58535e-01 -2.78446e-01        00000 
-1.27730e-01 -2.75324e-01        00000 
-9.76817e-02 -2.72809e-01        00000 
-6.82445e-02 -2.70924e-01        00000 
-3.92520e-02 -2.69687e-01        00000 
-1.05201e-02 -2.69113e-01        00000 
 1.81464e-02 -2.69208e-01        00000 
 4.69452e-02 -2.69972e-01        00000 
 7.60686e-02 -2.71395e-01        00000 
 1.05694e-01 -2.73462e-01        00000 
 1.35978e-01 -2.76152e-01        00000 
 1.67043e-01 -2.79442e-01        00000 
 1.98984e-01 -2.83312e-01        00000 
 2.31859e-01 -2.87752e-01        00000 
 2.65711e-01 -2.92761e-01        00000 
 3.00590e-01 -2.98357e-01        00000 
-3.24435e-01 -3.71421e-01        00000 
-2.85999e-01 -3.66493e-01        00000 
-2.48784e-01 -3.62106e-01        00000 
-2.12674e-01 -3.58249e-01        00000 
-1.77546e-01 -3.54923e-01        00000 
-1.43272e-01 -3.52135e-01        00000 
-1.09718e-01 -3.49896e-01        00000 
-7.67383e-02 -3.48222e-01        00000 
-4.41706e-02 -3.47125e-01        00000 
-1.18431e-02 -3.46616e-01        00000 
 2.04243e-02 -3.46700e-01        00000 
 5.28132e-02 -3.47377e-01        00000 
 8.55012e-02 -3.48639e-01        00000 
 1.18655e-01 -3.50474e-01        00000 
 1.52424e-01 -3.52869e-01        00000 
 1.86937e-01 -3.55807e-01        00000 
 2.22300e-01 -3.59278e-01        00000 
 2.58595e-01 -3.63274e-01        00000 
 2.95892e-01 -3.67798e-01        00000 
 3.34274e-01 -3.72862e-01        00000 
-3.54109e-01 -4.52824e-01        00000 
-3.12498e-01 -4.48388e-01        00000 
-2.72136e-01 -4.44442e-01        00000 
-2.32896e-01 -4.40980e-01        00000 
-1.94637e-01 -4.38002e-01        00000 
-1.57223e-01 -4.35511e-01        00000 
-1.20508e-01 -4.33516e-01        00000 
-8.43448e-02 -4.32027e-01        00000 
-4.85740e-02 -4.31052e-01        00000 
-1.30304e-02 -4.30600e-01        00000 
 2.24561e-02 -4.30673e-01        00000 
 5.80572e-02 -4.31272e-01        00000 
 9.39406e-02 -4.32390e-01        00000 
 1.30267e-01 -4.34020e-01        00000 
 1.67183e-01 -4.36152e-01        00000 
 2.04823e-01 -4.38776e-01        00000 
 2.43300e-01 -4.41884e-01        00000 
 2.82711e-01 -4.45472e-01        00000 
 3.23142e-01 -4.49542e-01        00000 
 3.64695e-01 -4.54103e-01        00000 
-3.80749e-01 -5.40278e-01        00000 
-3.36286e-01 -5.36309e-01        00000 
-2.93092e-01 -5.32780e-01        00000 
-2.51030e-01 -5.29686e-01        00000 
-2.09953e-01 -5.27028e-01        00000 
-1.69713e-01 -5.24807e-01        00000 
-1.30161e-01 -5.23030e-01        00000 
-9.11468e-02 -5.21705e-01        00000 
-5.25122e-02 -5.20838e-01        00000 
-1.40964e-02 -5.20434e-01        00000 
 2.42646e-02 -5.20497e-01        00000 
 6.27354e-02 -5.21025e-01        00000 
 1.01478e-01 -5.22016e-01        00000 
 1.40648e-01 -5.23463e-01        00000 
 1.80394e-01 -5.25359e-01        00000 
 2.20850e-01 -5.27696e-01        00000 
 2.62136e-01 -5.30470e-01        00000 
 3.04358e-01 -5.33676e-01        00000 
 3.47614e-01 -5.37317e-01        00000 
 3.92016e-01 -5.41399e-01        00000 
-4.04493e-01 -6.33139e-01        00000 
-3.57490e-01 -6.29616e-01        00000 
-3.11769e-01 -6.26484e-01        00000 
-2.67189e-01 -6.23739e-01        00000 
-2.23597e-01 -6.21378e-01        00000 
-1.80839e-01 -6.19406e-01        00000 
-1.38760e-01 -6.17827e-01        00000 
-9.72067e-02 -6.16647e-01        00000 
-5.60233e-02 -6.15875e-01        00000 
-1.50518e-02 -6.15513e-01        00000 
 2.58671e-02 -6.15566e-01        00000 
 6.68925e-02 -6.16032e-01        00000 
 1.08182e-01 -6.16909e-01        00000 
 1.49887e-01 -6.18191e-01        00000 
 1.92157e-01 -6.19872e-01        00000 
 2.35126e-01 -6.21946e-01        00000 
 2.78922e-01 -6.24406e-01        00000 
 3.23657e-01 -6.27252e-01        00000 
 3.69436e-01 -6.30484e-01        00000 
 4.16378e-01 -6.34108e-01        00000 
-4.25456e-01 -7.30797e-01        00000 
-3.76209e-01 -7.27706e-01        00000 
-3.28259e-01 -7.24955e-01        00000 
-2.81462e-01 -7.22540e-01        00000 
-2.35656e-01 -7.20459e-01        00000 
-1.90679e-01 -7.18714e-01        00000 
-1.46371e-01 -7.17313e-01        00000 
-1.02576e-01 -7.16263e-01        00000 
-5.91396e-02 -7.15572e-01        00000 
-1.59062e-02 -7.15246e-01        00000 
 2.72776e-02 -7.15289e-01        00000 
 7.05648e-02 -7.15700e-01        00000 
 1.14107e-01 -7.16477e-01        00000 
 1.58054e-01 -7.17612e-01        00000 
 2.02553e-01 -7.19099e-01        00000 
 2.47742e-01 -7.20929e-01        00000 
 2.93752e-01 -7.23097e-01        00000 
 3.40704e-01 -7.25600e-01        00000 
 3.88710e-01 -7.28439e-01        00000 
 4.37898e-01 -7.31622e-01        00000 
-4.43714e-01 -8.32674e-01        00000 
-3.92514e-01 -8.30004e-01        00000 
-3.42635e-01 -8.27622e-01        00000 
-2.93924e-01 -8.25521e-01        00000 
-2.46206e-01 -8.23697e-01        00000 
-1.99307e-01 -8.22158e-01        00000 
-1.53061e-01 -8.20911e-01        00000 
-1.07308e-01 -8.19969e-01        00000 
-6.18941e-02 -8.19345e-01        00000 
-1.66699e-02 -8.19047e-01        00000 
 2.85098e-02 -8.19081e-01        00000 
 7.37887e-02 -8.19447e-01        00000 
 1.19310e-01 -8.20140e-01        00000 
 1.65219e-01 -8.21150e-01        00000 
 2.11659e-01 -8.22466e-01        00000 
 2.58774e-01 -8.24077e-01        00000 
 3.06702e-01 -8.25973e-01        00000 
 3.55574e-01 -8.28150e-01        00000 
 4.05514e-01 -8.30610e-01        00000 
 4.56660e-01 -8.33362e-01        00000 
-4.59303e-01 -9.38205e-01        00000 
-4.06445e-01 -9.35953e-01        00000 
-3.54950e-01 -9.33931e-01        00000 
-3.04643e-01 -9.32126e-01        00000 
-2.55327e-01 -9.30535e-01        00000 
-2.06809e-01 -9.29170e-01        00000 
-1.58912e-01 -9.28047e-01        00000 
-1.11469e-01 -9.27187e-01        00000 
-6.43299e-02 -9.26608e-01        00000 
-1.73570e-02 -9.26329e-01        00000 
 2.95806e-02 -9.26355e-01        00000 
 7.66097e-02 -9.26689e-01        00000 
 1.23859e-01 -9.27321e-01        00000 
 1.71463e-01 -9.28236e-01        00000 
 2.19562e-01 -9.29414e-01        00000 
 2.68306e-01 -9.30836e-01        00000 
 3.17843e-01 -9.32486e-01        00000 
 3.68323e-01 -9.34356e-01        00000 
 4.19890e-01 -9.36446e-01        00000 
 4.72703e-01 -9.38772e-01        00000 
-4.72189e-01 -1.04681e+00        00000 
-4.17998e-01 -1.04499e+00        00000 
-3.65239e-01 -1.04332e+00        00000 
-3.13691e-01 -1.04179e+00        00000 
-2.63119e-01 -1.04041e+00        00000 
-2.13299e-01 -1.03919e+00        00000 
-1.64033e-01 -1.03815e+00        00000 
-1.15151e-01 -1.03734e+00        00000 
-6.65093e-02 -1.03678e+00        00000 
-1.79877e-02 -1.03651e+00        00000 
 3.05149e-02 -1.03653e+00        00000 
 7.90943e-02 -1.03685e+00        00000 
 1.27851e-01 -1.03745e+00        00000 
 1.76900e-01 -1.03831e+00        00000 
 2.26377e-01 -1.03939e+00        00000 
 2.76436e-01 -1.04066e+00        00000 
 3.27246e-01 -1.04209e+00        00000 
 3.78985e-01 -1.04367e+00        00000 
 4.31835e-01 -1.04539e+00        00000 
 4.85998e-01 -1.04728e+00        00000 
-4.82242e-01 -1.15783e+00        00000 
-4.27121e-01 -1.15645e+00        00000 
-3.73516e-01 -1.15515e+00        00000 
-3.21137e-01 -1.15391e+00        00000 
-2.69693e-01 -1.15273e+00        00000 
-2.18917e-01 -1.15164e+00        00000 
-1.68580e-01 -1.15067e+00        00000 
-1.18495e-01 -1.14987e+00        00000 
-6.85278e-02 -1.14931e+00        00000 
-1.85950e-02 -1.14902e+00        00000 
 3.13532e-02 -1.14905e+00        00000 
 8.13456e-02 -1.14938e+00        00000 
 1.31431e-01 -1.14999e+00        00000 
 1.81689e-01 -1.15083e+00        00000 
 2.32247e-01 -1.15184e+00        00000 
 2.83276e-01 -1.15297e+00        00000 
 3.34976e-01 -1.15419e+00        00000 
 3.87569e-01 -1.15547e+00        00000 
 4.41291e-01 -1.15682e+00        00000 
 4.96411e-01 -1.15825e+00        00000 
-4.89250e-01 -1.27035e+00        00000 
-4.33726e-01 -1.26946e+00        00000 
-3.79757e-01 -1.26856e+00        00000 
-3.26995e-01 -1.26769e+00        00000 
-2.75111e-01 -1.26682e+00        00000 
-2.23792e-01 -1.26596e+00        00000 
-1.72733e-01 -1.26512e+00        00000 
-1.21704e-01 -1.26436e+00        00000 
-7.05456e-02 -1.26377e+00        00000 
-1.92292e-02 -1.26347e+00        00000 
 3.21577e-02 -1.26350e+00        00000 
 8.35352e-02 -1.26386e+00        00000 
 1.34815e-01 -1.26451e+00        00000 
 1.86022e-01 -1.26531e+00        00000 
 2.37309e-01 -1.26621e+00        00000 
 2.88891e-01 -1.26712e+00        00000 
 3.41045e-01 -1.26803e+00        00000 
 3.94041e-01 -1.26894e+00        00000 
 4.48154e-01 -1.26987e+00        00000 
 5.03712e-01 -1.27081e+00        00000 
-4.93083e-01 -1.38307e+00        00000 
-4.37793e-01 -1.38266e+00        00000 
-3.83882e-01 -1.38227e+00        00000 
-3.31089e-01 -1.38197e+00        00000 
-2.79168e-01 -1.38176e+00        00000 
-2.27812e-01 -1.38154e+00        00000 
-1.76605e-01 -1.38121e+00        00000 
-1.25015e-01 -1.38070e+00        00000 
-7.28312e-02 -1.38026e+00        00000 
-2.00466e-02 -1.37991e+00        00000 
 3.31013e-02 -1.37995e+00        00000 
 8.59482e-02 -1.38039e+00        00000 
 1.38256e-01 -1.38092e+00        00000 
 1.90029e-01 -1.38150e+00        00000 
 2.41467e-01 -1.38191e+00        00000 
 2.93088e-01 -1.38220e+00        00000 
 3.45278e-01 -1.38247e+00        00000 
 3.98307e-01 -1.38281e+00        00000 
 4.52379e-01 -1.38322e+00        00000 
 5.07745e-01 -1.38365e+00        00000 
-4.94222e-01 -1.49428e+00        00000 
-4.39587e-01 -1.49425e+00        00000 
-3.85820e-01 -1.49441e+00        00000 
-3.33033e-01 -1.49490e+00        00000 
-2.81175e-01 -1.49578e+00        00000 
-2.30066e-01 -1.49703e+00        00000 
-1.79365e-01 -1.49852e+00        00000 
-1.28442e-01 -1.49984e+00        00000 
-7.56912e-02 -1.50008e+00        00000 
-2.09927e-02 -1.50060e+00        00000 
 3.41524e-02 -1.50067e+00        00000 
 8.89120e-02 -1.50029e+00        00000 
 1.41788e-01 -1.50017e+00        00000 
 1.92897e-01 -1.49898e+00        00000 
 2.43829e-01 -1.49760e+00        00000 
 2.95194e-01 -1.49644e+00        00000 
 3.47303e-01 -1.49564e+00        00000 
 4.00306e-01 -1.49519e+00        00000 
 4.54227e-01 -1.49506e+00        00000 
 5.08972e-01 -1.49508e+00        00000 
-4.94252e-01 -1.60321e+00        00000 
-4.39982e-01 -1.60318e+00        00000 
-3.86176e-01 -1.60318e+00        00000 
-3.33143e-01 -1.60358e+00        00000 
-2.80922e-01 -1.60481e+00        00000 
-2.29384e-01 -1.60736e+00        00000 
-1.78229e-01 -1.61195e+00        00000 
-1.26852e-01 -1.61960e+00        00000 
-7.43260e-02 -1.63184e+00        00000 
-2.05058e-02 -1.63751e+00        00000 
 3.37815e-02 -1.63761e+00        00000 
 8.76656e-02 -1.63214e+00        00000 
 1.40317e-01 -1.62013e+00        00000 
 1.91871e-01 -1.61267e+00        00000 
 2.43240e-01 -1.60825e+00        00000 
 2.95009e-01 -1.60580e+00        00000 
 3.47453e-01 -1.60464e+00        00000 
 4.00675e-01 -1.60425e+00        00000 
 4.54624e-01 -1.60424e+00        00000 
 5.09018e-01 -1.60427e+00        00000 
-2.98961e-02 -1.79769e-02        00000 
-2.36740e-02 -1.41840e-02        00000 
-1.93004e-02 -1.14933e-02        00000 
-1.56884e-02 -9.61004e-03        00000 
-1.25352e-02 -8.26845e-03        00000 
-9.68447e-03 -7.31037e-03        00000 
-7.03624e-03 -6.64091e-03        00000 
-4.52028e-03 -6.20180e-03        00000 
-2.08306e-03 -5.95812e-03        00000 
 3.19979e-04 -5.89164e-03        00000 
 2.72976e-03 -5.99789e-03        00000 
 5.18800e-03 -6.28559e-03        00000 
 7.74176e-03 -6.77801e-03        00000 
 1.04495e-02 -7.51686e-03        00000 
 1.33901e-02 -8.56973e-03        00000 
 1.66781e-02 -1.00437e-02        00000 
 2.04938e-02 -1.21098e-02        00000 
 2.51691e-02 -1.50420e-02        00000 
 3.17627e-02 -1.91436e-02        00000 
-8.92853e-02 -5.61524e-02        00000 
-7.29662e-02 -4.76066e-02        00000 
-5.98953e-02 -4.13346e-02        00000 
-4.87980e-02 -3.66306e-02        00000 
-3.90148e-02 -3.31059e-02        00000 
-3.01390e-02 -3.05003e-02        00000 
-2.18894e-02 -2.86365e-02        00000 
-1.40579e-02 -2.73956e-02        00000 
-6.47872e-03 -2.67018e-02        00000 
 9.89947e-04 -2.65141e-02        00000 
 8.48030e-03 -2.68223e-02        00000 
 1.61266e-02 -2.76457e-02        00000 
 2.40771e-02 -2.90353e-02        00000 
 3.25082e-02 -3.10784e-02        00000 
 4.16435e-02 -3.39069e-02        00000 
 5.17794e-02 -3.77096e-02        00000 
 6.33254e-02 -4.27490e-02        00000 
 7.68877e-02 -4.93885e-02        00000 
 9.35476e-02 -5.82549e-02        00000 
-1.37985e-01 -9.49583e-02        00000 
-1.17822e-01 -8.76322e-02        00000 
-9.88797e-02 -8.10231e-02        00000 
-8.15630e-02 -7.54889e-02        00000 
-6.56851e-02 -7.10253e-02        00000 
-5.09595e-02 -6.75524e-02        00000 
-3.71041e-02 -6.49786e-02        00000 
-2.38631e-02 -6.32242e-02        00000 
-1.10062e-02 -6.22306e-02        00000 
 1.67934e-03 -6.19635e-02        00000 
 1.43981e-02 -6.24137e-02        00000 
 2.73565e-02 -6.35978e-02        00000 
 4.07716e-02 -6.55570e-02        00000 
 5.48792e-02 -6.83557e-02        00000 
 6.99368e-02 -7.20758e-02        00000 
 8.62145e-02 -7.68048e-02        00000 
 1.03956e-01 -8.26068e-02        00000 
 1.23259e-01 -8.94601e-02        00000 
 1.43610e-01 -9.70032e-02        00000 
-1.81535e-01 -1.41409e-01        00000 
-1.57171e-01 -1.34822e-01        00000 
-1.33850e-01 -1.28894e-01        00000 
-1.11676e-01 -1.23669e-01        00000 
-9.06851e-02 -1.19242e-01        00000 
-7.07644e-02 -1.15654e-01        00000 
-5.17258e-02 -1.12911e-01        00000 
-3.33485e-02 -1.10999e-01        00000 
-1.54006e-02 -1.09902e-01        00000 
 2.35156e-03 -1.09609e-01        00000 
 2.01420e-02 -1.10115e-01        00000 
 3.82047e-02 -1.11427e-01        00000 
 5.67732e-02 -1.13559e-01        00000 
 7.60761e-02 -1.16528e-01        00000 
 9.63227e-02 -1.20344e-01        00000 
 1.17675e-01 -1.24995e-01        00000 
 1.40195e-01 -1.30432e-01        00000 
 1.63783e-01 -1.36558e-01        00000 
 1.88258e-01 -1.43329e-01        00000 
-2.21085e-01 -1.96499e-01        00000 
-1.92574e-01 -1.90532e-01        00000 
-1.65114e-01 -1.85193e-01        00000 
-1.38703e-01 -1.80487e-01        00000 
-1.13306e-01 -1.76446e-01        00000 
-8.88402e-02 -1.73111e-01        00000 
-6.51703e-02 -1.70517e-01        00000 
-4.21171e-02 -1.68685e-01        00000 
-1.94746e-02 -1.67625e-01        00000 
 2.97826e-03 -1.67343e-01        00000 
 2.54690e-02 -1.67839e-01        00000 
 4.82241e-02 -1.69113e-01        00000 
 7.14611e-02 -1.71158e-01        00000 
 9.53781e-02 -1.73961e-01        00000 
 1.20138e-01 -1.77499e-01        00000 
 1.45849e-01 -1.81734e-01        00000 
 1.72550e-01 -1.86624e-01        00000 
 2.00219e-01 -1.92138e-01        00000 
 2.28797e-01 -1.98273e-01        00000 
-2.57090e-01 -2.59976e-01        00000 
-2.24637e-01 -2.54562e-01        00000 