<?xml version="1.0" encoding="utf-8"?>
<VTKFile byte_order="LittleEndian" type="UnstructuredGrid" version="0.1">
   <UnstructuredGrid>
      <Piece NumberOfCells="1444" NumberOfPoints="761">
         <Points>
            <DataArray Name="Points" NumberOfComponents="3" format="ascii" type="Float32">
0.0000 1.0000 0.0000
0.0000 1.0526 0.0000
0.0000 1.1053 0.0000
0.0000 1.1579 0.0000
0.0000 1.2105 0.0000
0.0000 1.2632 0.0000
0.0000 1.3158 0.0000
0.0000 1.3684 0.0000
0.0000 1.4211 0.0000
0.0000 1.4737 0.0000
0.0000 1.5263 0.0000
0.0000 1.5789 0.0000
0.0000 1.6316 0.0000
0.0000 1.6842 0.0000
0.0000 1.7368 0.0000
0.0000 1.7895 0.0000
0.0000 1.8421 0.0000
0.0000 1.8947 0.0000
0.0000 1.9474 0.0000
0.0000 2.0000 0.0000
0.1053 1.0000 0.0000
0.1053 1.0526 0.0000
0.1053 1.1053 0.0000
0.1053 1.1579 0.0000
0.1053 1.2105 0.0000
0.1053 1.2632 0.0000
0.1053 1.3158 0.0000
0.1053 1.3684 0.0000
0.1053 1.4211 0.0000
0.1053 1.4737 0.0000
0.1053 1.5263 0.0000
0.1053 1.5789 0.0000
0.1053 1.6316 0.0000
0.1053 1.6842 0.0000
0.1053 1.7368 0.0000
0.1053 1.7895 0.0000
0.1053 1.8421 0.0000
0.1053 1.8947 0.0000
0.1053 1.9474 0.0000
0.1053 2.0000 0.0000
0.2105 1.0000 0.0000
0.2105 1.0526 0.0000
0.2105 1.1053 0.0000
0.2105 1.1579 0.0000
0.2105 1.2105 0.0000
0.2105 1.2632 0.0000
0.2105 1.3158 0.0000
0.2105 1.3684 0.0000
0.2105 1.4211 0.0000
0.2105 1.4737 0.0000
0.2105 1.5263 0.0000
0.2105 1.5789 0.0000
0.2105 1.6316 0.0000
0.2105 1.6842 0.0000
0.2105 1.7368 0.0000
0.2105 1.7895 0.0000
0.2105 1.8421 0.0000
0.2105 1.8947 0.0000
0.2105 1.9474 0.0000
0.2105 2.0000 0.0000
0.3158 1.0000 0.0000
0.3158 1.0526 0.0000
0.3158 1.1053 0.0000
0.3158 1.1579 0.0000
0.3158 1.2105 0.0000
0.3158 1.2632 0.0000
0.3158 1.3158 0.0000
0.3158 1.3684 0.0000
0.3158 1.4211 0.0000
0.3158 1.4737 0.0000
0.3158 1.5263 0.0000
0.3158 1.5789 0.0000
0.3158 1.6316 0.0000
0.3158 1.6842 0.0000
0.3158 1.7368 0.0000
0.3158 1.7895 0.0000
0.3158 1.8421 0.0000
0.3158 1.8947 0.0000
0.3158 1.9474 0.0000
0.3158 2.0000 0.0000
0.4211 1.0000 0.0000
0.4211 1.0526 0.0000
0.4211 1.1053 0.0000
0.4211 1.1579 0.0000
0.4211 1.2105 0.0000
0.4211 1.2632 0.0000
0.4211 1.3158 0.0000
0.4211 1.3684 0.0000
0.4211 1.4211 0.0000
0.4211 1.4737 0.0000
0.4211 1.5263 0.0000
0.4211 1.5789 0.0000
0.4211 1.6316 0.0000
0.4211 1.6842 0.0000
0.4211 1.7368 0.0000
0.4211 1.7895 0.0000
0.4211 1.8421 0.0000
0.4211 1.8947 0.0000
0.4211 1.9474 0.0000
0.4211 2.0000 0.0000
0.5263 1.0000 0.0000
0.5263 1.0526 0.0000
0.5263 1.1053 0.0000
0.5263 1.1579 0.0000
0.5263 1.2105 0.0000
0.5263 1.2632 0.0000
0.5263 1.3158 0.0000
0.5263 1.3684 0.0000
0.5263 1.4211 0.0000
0.5263 1.4737 0.0000
0.5263 1.5263 0.0000
0.5263 1.5789 0.0000
0.5263 1.6316 0.0000
0.5263 1.6842 0.0000
0.5263 1.7368 0.0000
0.5263 1.7895 0.0000
0.5263 1.8421 0.0000
0.5263 1.8947 0.0000
0.5263 1.9474 0.0000
0.5263 2.0000 0.0000
0.6316 1.0000 0.0000
0.6316 1.0526 0.0000
0.6316 1.1053 0.0000
0.6316 1.1579 0.0000
0.6316 1.2105 0.0000
0.6316 1.2632 0.0000
0.6316 1.3158 0.0000
0.6316 1.3684 0.0000
0.6316 1.4211 0.0000
0.6316 1.4737 0.0000
0.6316 1.5263 0.0000
0.6316 1.5789 0.0000
0.6316 1.6316 0.0000
0.6316 1.6842 0.0000
0.6316 1.7368 0.0000
0.6316 1.7895 0.0000
0.6316 1.8421 0.0000
0.6316 1.8947 0.0000
0.6316 1.9474 0.0000
0.6316 2.0000 0.0000
0.7368 1.0000 0.0000
0.7368 1.0526 0.0000
0.7368 1.1053 0.0000
0.7368 1.1579 0.0000
0.7368 1.2105 0.0000
0.7368 1.2632 0.0000
0.7368 1.3158 0.0000
0.7368 1.3684 0.0000
0.7368 1.4211 0.0000
0.7368 1.4737 0.0000
0.7368 1.5263 0.0000
0.7368 1.5789 0.0000
0.7368 1.6316 0.0000
0.7368 1.6842 0.0000
0.7368 1.7368 0.0000
0.7368 1.7895 0.0000
0.7368 1.8421 0.0000
0.7368 1.8947 0.0000
0.7368 1.9474 0.0000
0.7368 2.0000 0.0000
0.8421 1.0000 0.0000
0.8421 1.0526 0.0000
0.8421 1.1053 0.0000
0.8421 1.1579 0.0000
0.8421 1.2105 0.0000
0.8421 1.2632 0.0000
0.8421 1.3158 0.0000
0.8421 1.3684 0.0000
0.8421 1.4211 0.0000
0.8421 1.4737 0.0000
0.8421 1.5263 0.0000
0.8421 1.5789 0.0000
0.8421 1.6316 0.0000
0.8421 1.6842 0.0000
0.8421 1.7368 0.0000
0.8421 1.7895 0.0000
0.8421 1.8421 0.0000
0.8421 1.8947 0.0000
0.8421 1.9474 0.0000
0.8421 2.0000 0.0000
0.9474 1.0000 0.0000
0.9474 1.0526 0.0000
0.9474 1.1053 0.0000
0.9474 1.1579 0.0000
0.9474 1.2105 0.0000
0.9474 1.2632 0.0000
0.9474 1.3158 0.0000
0.9474 1.3684 0.0000
0.9474 1.4211 0.0000
0.9474 1.4737 0.0000
0.9474 1.5263 0.0000
0.9474 1.5789 0.0000
0.9474 1.6316 0.0000
0.9474 1.6842 0.0000
0.9474 1.7368 0.0000
0.9474 1.7895 0.0000
0.9474 1.8421 0.0000
0.9474 1.8947 0.0000
0.9474 1.9474 0.0000
0.9474 2.0000 0.0000
1.0526 1.0000 0.0000
1.0526 1.0526 0.0000
1.0526 1.1053 0.0000
1.0526 1.1579 0.0000
1.0526 1.2105 0.0000
1.0526 1.2632 0.0000
1.0526 1.3158 0.0000
1.0526 1.3684 0.0000
1.0526 1.4211 0.0000
1.0526 1.4737 0.0000
1.0526 1.5263 0.0000
1.0526 1.5789 0.0000
1.0526 1.6316 0.0000
1.0526 1.6842 0.0000
1.0526 1.7368 0.0000
1.0526 1.7895 0.0000
1.0526 1.8421 0.0000
1.0526 1.8947 0.0000
1.0526 1.9474 0.0000
1.0526 2.0000 0.0000
1.1579 1.0000 0.0000
1.1579 1.0526 0.0000
1.1579 1.1053 0.0000
1.1579 1.1579 0.0000
1.1579 1.2105 0.0000
1.1579 1.2632 0.0000
1.1579 1.3158 0.0000
1.1579 1.3684 0.0000
1.1579 1.4211 0.0000
1.1579 1.4737 0.0000
1.1579 1.5263 0.0000
1.1579 1.5789 0.0000
1.1579 1.6316 0.0000
1.1579 1.6842 0.0000
1.1579 1.7368 0.0000
1.1579 1.7895 0.0000
1.1579 1.8421 0.0000
1.1579 1.8947 0.0000
1.1579 1.9474 0.0000
1.1579 2.0000 0.0000
1.2632 1.0000 0.0000
1.2632 1.0526 0.0000
1.2632 1.1053 0.0000
1.2632 1.1579 0.0000
1.2632 1.2105 0.0000
1.2632 1.2632 0.0000
1.2632 1.3158 0.0000
1.2632 1.3684 0.0000
1.2632 1.4211 0.0000
1.2632 1.4737 0.0000
1.2632 1.5263 0.0000
1.2632 1.5789 0.0000
1.2632 1.6316 0.0000
1.2632 1.6842 0.0000
1.2632 1.7368 0.0000
1.2632 1.7895 0.0000
1.2632 1.8421 0.0000
1.2632 1.8947 0.0000
1.2632 1.9474 0.0000
1.2632 2.0000 0.0000
1.3684 1.0000 0.0000
1.3684 1.0526 0.0000
1.3684 1.1053 0.0000
1.3684 1.1579 0.0000
1.3684 1.2105 0.0000
1.3684 1.2632 0.0000
1.3684 1.3158 0.0000
1.3684 1.3684 0.0000
1.3684 1.4211 0.0000
1.3684 1.4737 0.0000
1.3684 1.5263 0.0000
1.3684 1.5789 0.0000
1.3684 1.6316 0.0000
1.3684 1.6842 0.0000
1.3684 1.7368 0.0000
1.3684 1.7895 0.0000
1.3684 1.8421 0.0000
1.3684 1.8947 0.0000
1.3684 1.9474 0.0000
1.3684 2.0000 0.0000
1.4737 1.0000 0.0000
1.4737 1.0526 0.0000
1.4737 1.1053 0.0000
1.4737 1.1579 0.0000
1.4737 1.2105 0.0000
1.4737 1.2632 0.0000
1.4737 1.3158 0.0000
1.4737 1.3684 0.0000
1.4737 1.4211 0.0000
1.4737 1.4737 0.0000
1.4737 1.5263 0.0000
1.4737 1.5789 0.0000
1.4737 1.6316 0.0000
1.4737 1.6842 0.0000
1.4737 1.7368 0.0000
1.4737 1.7895 0.0000
1.4737 1.8421 0.0000
1.4737 1.8947 0.0000
1.4737 1.9474 0.0000
1.4737 2.0000 0.0000
1.5789 1.0000 0.0000
1.5789 1.0526 0.0000
1.5789 1.1053 0.0000
1.5789 1.1579 0.0000
1.5789 1.2105 0.0000
1.5789 1.2632 0.0000
1.5789 1.3158 0.0000
1.5789 1.3684 0.0000
1.5789 1.4211 0.0000
1.5789 1.4737 0.0000
1.5789 1.5263 0.0000
1.5789 1.5789 0.0000
1.5789 1.6316 0.0000
1.5789 1.6842 0.0000
1.5789 1.7368 0.0000
1.5789 1.7895 0.0000
1.5789 1.8421 0.0000
1.5789 1.8947 0.0000
1.5789 1.9474 0.0000
1.5789 2.0000 0.0000
1.6842 1.0000 0.0000
1.6842 1.0526 0.0000
1.6842 1.1053 0.0000
1.6842 1.1579 0.0000
1.6842 1.2105 0.0000
1.6842 1.2632 0.0000
1.6842 1.3158 0.0000
1.6842 1.3684 0.0000
1.6842 1.4211 0.0000
1.6842 1.4737 0.0000
1.6842 1.5263 0.0000
1.6842 1.5789 0.0000
1.6842 1.6316 0.0000
1.6842 1.6842 0.0000
1.6842 1.7368 0.0000
1.6842 1.7895 0.0000
1.6842 1.8421 0.0000
1.6842 1.8947 0.0000
1.6842 1.9474 0.0000
1.6842 2.0000 0.0000
1.7895 1.0000 0.0000
1.7895 1.0526 0.0000
1.7895 1.1053 0.0000
1.7895 1.1579 0.0000
1.7895 1.2105 0.0000
1.7895 1.2632 0.0000
1.7895 1.3158 0.0000
1.7895 1.3684 0.0000
1.7895 1.4211 0.0000
1.7895 1.4737 0.0000
1.7895 1.5263 0.0000
1.7895 1.5789 0.0000
1.7895 1.6316 0.0000
1.7895 1.6842 0.0000
1.7895 1.7368 0.0000
1.7895 1.7895 0.0000
1.7895 1.8421 0.0000
1.7895 1.8947 0.0000
1.7895 1.9474 0.0000
1.7895 2.0000 0.0000
1.8947 1.0000 0.0000
1.8947 1.0526 0.0000
1.8947 1.1053 0.0000
1.8947 1.1579 0.0000
1.8947 1.2105 0.0000
1.8947 1.2632 0.0000
1.8947 1.3158 0.0000
1.8947 1.3684 0.0000
1.8947 1.4211 0.0000
1.8947 1.4737 0.0000
1.8947 1.5263 0.0000
1.8947 1.5789 0.0000
1.8947 1.6316 0.0000
1.8947 1.6842 0.0000
1.8947 1.7368 0.0000
1.8947 1.7895 0.0000
1.8947 1.8421 0.0000
1.8947 1.8947 0.0000
1.8947 1.9474 0.0000
1.8947 2.0000 0.0000
2.0000 1.0000 0.0000
2.0000 1.0526 0.0000
2.0000 1.1053 0.0000
2.0000 1.1579 0.0000
2.0000 1.2105 0.0000
2.0000 1.2632 0.0000
2.0000 1.3158 0.0000
2.0000 1.3684 0.0000
2.0000 1.4211 0.0000
2.0000 1.4737 0.0000
2.0000 1.5263 0.0000
2.0000 1.5789 0.0000
2.0000 1.6316 0.0000
2.0000 1.6842 0.0000
2.0000 1.7368 0.0000
2.0000 1.7895 0.0000
2.0000 1.8421 0.0000
2.0000 1.8947 0.0000
2.0000 1.9474 0.0000
2.0000 2.0000 0.0000
0.0526 1.0263 0.0000
0.0526 1.0789 0.0000
0.0526 1.1316 0.0000
0.0526 1.1842 0.0000
0.0526 1.2368 0.0000
0.0526 1.2895 0.0000
0.0526 1.3421 0.0000
0.0526 1.3947 0.0000
0.0526 1.4474 0.0000
0.0526 1.5000 0.0000
0.0526 1.5526 0.0000
0.0526 1.6053 0.0000
0.0526 1.6579 0.0000
0.0526 1.7105 0.0000
0.0526 1.7632 0.0000
0.0526 1.8158 0.0000
0.0526 1.8684 0.0000
0.0526 1.9211 0.0000
0.0526 1.9737 0.0000
0.1579 1.0263 0.0000
0.1579 1.0789 0.0000
0.1579 1.1316 0.0000
0.1579 1.1842 0.0000
0.1579 1.2368 0.0000
0.1579 1.2895 0.0000
0.1579 1.3421 0.0000
0.1579 1.3947 0.0000
0.1579 1.4474 0.0000
0.1579 1.5000 0.0000
0.1579 1.5526 0.0000
0.1579 1.6053 0.0000
0.1579 1.6579 0.0000
0.1579 1.7105 0.0000
0.1579 1.7632 0.0000
0.1579 1.8158 0.0000
0.1579 1.8684 0.0000
0.1579 1.9211 0.0000
0.1579 1.9737 0.0000
0.2632 1.0263 0.0000
0.2632 1.0789 0.0000
0.2632 1.1316 0.0000
0.2632 1.1842 0.0000
0.2632 1.2368 0.0000
0.2632 1.2895 0.0000
0.2632 1.3421 0.0000
0.2632 1.3947 0.0000
0.2632 1.4474 0.0000
0.2632 1.5000 0.0000
0.2632 1.5526 0.0000
0.2632 1.6053 0.0000
0.2632 1.6579 0.0000
0.2632 1.7105 0.0000
0.2632 1.7632 0.0000
0.2632 1.8158 0.0000
0.2632 1.8684 0.0000
0.2632 1.9211 0.0000
0.2632 1.9737 0.0000
0.3684 1.0263 0.0000
0.3684 1.0789 0.0000
0.3684 1.1316 0.0000
0.3684 1.1842 0.0000
[...]
         <PointData>
            <DataArray Name="displacement" NumberOfComponents="3" format="ascii" type="Float64">
 6.45876e-16  1.17665e-15        00000 
       00000 -1.85478e-16        00000 
-3.66178e-16  1.83089e-16        00000 
 1.97449e-16  6.61358e-17        00000 
 1.22059e-16 -1.52574e-17        00000 
-1.67252e-17  1.58574e-16        00000 
 1.06802e-16 -1.98346e-16        00000 
-1.91698e-18  2.44415e-16        00000 
-3.05148e-17 -1.98346e-16        00000 
 3.84781e-18 -3.07825e-17        00000 
 1.71646e-17 -7.62870e-17        00000 
-2.69575e-17  1.76362e-16        00000 
 1.52574e-17        00000        00000 
-1.99812e-17 -5.68154e-18        00000 
-7.62870e-17 -1.06802e-16        00000 
-5.36754e-17  2.11826e-16        00000 
 2.74633e-16  3.05148e-17        00000 
-1.23139e-16 -1.23139e-16        00000 
 6.15531e-17  9.23296e-17        00000 
-1.53883e-17 -3.46021e-16        00000 
-5.64371e+00 -3.60718e+00        00000 
-4.27627e+00 -2.75364e+00        00000 
-3.47280e+00 -2.20291e+00        00000 
-2.85797e+00 -1.83493e+00        00000 
-2.33403e+00 -1.58070e+00        00000 
-1.86194e+00 -1.40209e+00        00000 
-1.42213e+00 -1.27700e+00        00000 
-1.00307e+00 -1.19209e+00        00000 
-5.97043e-01 -1.13929e+00        00000 
-1.98241e-01 -1.11396e+00        00000 
 1.98241e-01 -1.11396e+00        00000 
 5.97043e-01 -1.13929e+00        00000 
 1.00307e+00 -1.19209e+00        00000 
 1.42213e+00 -1.27700e+00        00000 
 1.86194e+00 -1.40209e+00        00000 
 2.33403e+00 -1.58070e+00        00000 
 2.85797e+00 -1.83493e+00        00000 
 3.47280e+00 -2.20291e+00        00000 
 4.27627e+00 -2.75364e+00        00000 
 5.64371e+00 -3.60718e+00        00000 
-1.01770e+01 -6.66354e+00        00000 
-8.56944e+00 -5.97620e+00        00000 
-7.13728e+00 -5.33824e+00        00000 
-5.91588e+00 -4.81891e+00        00000 
-4.83866e+00 -4.41440e+00        00000 
-3.85851e+00 -4.10720e+00        00000 
-2.94437e+00 -3.88049e+00        00000 
-2.07484e+00 -3.72110e+00        00000 
-1.23413e+00 -3.61971e+00        00000 
-4.09631e-01 -3.57043e+00        00000 
 4.09631e-01 -3.57043e+00        00000 
 1.23413e+00 -3.61971e+00        00000 
 2.07484e+00 -3.72110e+00        00000 
 2.94437e+00 -3.88049e+00        00000 
 3.85851e+00 -4.10720e+00        00000 
 4.83866e+00 -4.41440e+00        00000 
 5.91588e+00 -4.81891e+00        00000 
 7.13728e+00 -5.33824e+00        00000 
 8.56944e+00 -5.97620e+00        00000 
 1.01770e+01 -6.66354e+00        00000 
-1.44379e+01 -1.03918e+01        00000 
-1.24566e+01 -9.73027e+00        00000 
-1.06167e+01 -9.14013e+00        00000 
-8.91519e+00 -8.62181e+00        00000 
-7.34438e+00 -8.18637e+00        00000 
-5.87997e+00 -7.83503e+00        00000 
-4.49677e+00 -7.56356e+00        00000 
-3.17256e+00 -7.36626e+00        00000 
-1.88822e+00 -7.23789e+00        00000 
-6.26896e-01 -7.17468e+00        00000 
 6.26896e-01 -7.17468e+00        00000 
 1.88822e+00 -7.23789e+00        00000 
 3.17256e+00 -7.36626e+00        00000 
 4.49677e+00 -7.56356e+00        00000 
 5.87997e+00 -7.83503e+00        00000 
 7.34438e+00 -8.18637e+00        00000 
 8.91519e+00 -8.62181e+00        00000 
 1.06167e+01 -9.14013e+00        00000 
 1.24566e+01 -9.73027e+00        00000 
 1.44379e+01 -1.03918e+01        00000 
-1.84730e+01 -1.48825e+01        00000 
-1.60970e+01 -1.42624e+01        00000 
-1.38538e+01 -1.37067e+01        00000 
-1.17363e+01 -1.32183e+01        00000 
-9.73264e+00 -1.27988e+01        00000 
-7.82854e+00 -1.24507e+01        00000 
-6.00604e+00 -1.21745e+01        00000 
-4.24620e+00 -1.19694e+01        00000 
-2.53037e+00 -1.18338e+01        00000 
-8.40587e-01 -1.17665e+01        00000 
 8.40587e-01 -1.17665e+01        00000 
 2.53037e+00 -1.18338e+01        00000 
 4.24620e+00 -1.19694e+01        00000 
 6.00604e+00 -1.21745e+01        00000 
 7.82854e+00 -1.24507e+01        00000 
 9.73264e+00 -1.27988e+01        00000 
 1.17363e+01 -1.32183e+01        00000 
 1.38538e+01 -1.37067e+01        00000 
 1.60970e+01 -1.42624e+01        00000 
 1.84730e+01 -1.48825e+01        00000 
-2.22705e+01 -2.01655e+01        00000 
-1.95067e+01 -1.95842e+01        00000 
-1.68761e+01 -1.90656e+01        00000 
-1.43669e+01 -1.86094e+01        00000 
-1.19661e+01 -1.82166e+01        00000 
-9.65930e+00 -1.78882e+01        00000 
-7.43078e+00 -1.76250e+01        00000 
-5.26368e+00 -1.74277e+01        00000 
-3.14060e+00 -1.72963e+01        00000 
-1.04393e+00 -1.72306e+01        00000 
 1.04393e+00 -1.72306e+01        00000 
 3.14060e+00 -1.72963e+01        00000 
 5.26368e+00 -1.74277e+01        00000 
 7.43078e+00 -1.76250e+01        00000 
 9.65930e+00 -1.78882e+01        00000 
 1.19661e+01 -1.82166e+01        00000 
 1.43669e+01 -1.86094e+01        00000 
 1.68761e+01 -1.90656e+01        00000 
 1.95067e+01 -1.95842e+01        00000 
 2.22705e+01 -2.01655e+01        00000 
-2.58206e+01 -2.62112e+01        00000 
-2.26874e+01 -2.56703e+01        00000 
-1.96892e+01 -2.51885e+01        00000 
-1.68116e+01 -2.47654e+01        00000 
-1.40404e+01 -2.44013e+01        00000 
-1.13605e+01 -2.40968e+01        00000 
-8.75626e+00 -2.38523e+01        00000 
-6.21158e+00 -2.36685e+01        00000 
-3.70974e+00 -2.35458e+01        00000 
-1.23371e+00 -2.34843e+01        00000 
 1.23371e+00 -2.34843e+01        00000 
 3.70974e+00 -2.35458e+01        00000 
 6.21158e+00 -2.36685e+01        00000 
 8.75626e+00 -2.38523e+01        00000 
 1.13605e+01 -2.40968e+01        00000 
 1.40404e+01 -2.44013e+01        00000 
 1.68116e+01 -2.47654e+01        00000 
 1.96892e+01 -2.51885e+01        00000 
 2.26874e+01 -2.56703e+01        00000 
 2.58206e+01 -2.62112e+01        00000 
-2.91156e+01 -3.29754e+01        00000 
-2.56370e+01 -3.24755e+01        00000 
-2.22945e+01 -3.20305e+01        00000 
-1.90731e+01 -3.16405e+01        00000 
-1.59572e+01 -3.13053e+01        00000 
-1.29315e+01 -3.10251e+01        00000 
-9.98001e+00 -3.08004e+01        00000 
-7.08673e+00 -3.06314e+01        00000 
-4.23526e+00 -3.05186e+01        00000 
-1.40895e+00 -3.04621e+01        00000 
 1.40895e+00 -3.04621e+01        00000 
 4.23526e+00 -3.05186e+01        00000 
 7.08673e+00 -3.06314e+01        00000 
 9.98001e+00 -3.08004e+01        00000 
 1.29315e+01 -3.10251e+01        00000 
 1.59572e+01 -3.13053e+01        00000 
 1.90731e+01 -3.16405e+01        00000 
 2.22945e+01 -3.20305e+01        00000 
 2.56370e+01 -3.24755e+01        00000 
 2.91156e+01 -3.29754e+01        00000 
-3.21510e+01 -4.04064e+01        00000 
-2.83531e+01 -3.99477e+01        00000 
-2.46922e+01 -3.95398e+01        00000 
-2.11526e+01 -3.91825e+01        00000 
-1.77185e+01 -3.88758e+01        00000 
-1.43740e+01 -3.86197e+01        00000 
-1.11031e+01 -3.84144e+01        00000 
-7.88962e+00 -3.82602e+01        00000 
-4.71728e+00 -3.81573e+01        00000 
-1.56967e+00 -3.81057e+01        00000 
 1.56967e+00 -3.81057e+01        00000 
 4.71728e+00 -3.81573e+01        00000 
 7.88962e+00 -3.82602e+01        00000 
 1.11031e+01 -3.84144e+01        00000 
 1.43740e+01 -3.86197e+01        00000 
 1.77185e+01 -3.88758e+01        00000 
 2.11526e+01 -3.91825e+01        00000 
 2.46922e+01 -3.95398e+01        00000 
 2.83531e+01 -3.99477e+01        00000 
 3.21510e+01 -4.04064e+01        00000 
-3.49244e+01 -4.84498e+01        00000 
-3.08343e+01 -4.80327e+01        00000 
-2.68818e+01 -4.76618e+01        00000 
-2.30510e+01 -4.73371e+01        00000 
-1.93257e+01 -4.70584e+01        00000 
-1.56898e+01 -4.68259e+01        00000 
-1.21271e+01 -4.66395e+01        00000 
-8.62148e+00 -4.64995e+01        00000 
-5.15658e+00 -4.64061e+01        00000 
-1.71614e+00 -4.63593e+01        00000 
 1.71614e+00 -4.63593e+01        00000 
 5.15658e+00 -4.64061e+01        00000 
 8.62148e+00 -4.64995e+01        00000 
 1.21271e+01 -4.66395e+01        00000 
 1.56898e+01 -4.68259e+01        00000 
 1.93257e+01 -4.70584e+01        00000 
 2.30510e+01 -4.73371e+01        00000 
 2.68818e+01 -4.76618e+01        00000 
 3.08343e+01 -4.80327e+01        00000 
 3.49244e+01 -4.84498e+01        00000 
-3.74344e+01 -5.70508e+01        00000 
-3.30796e+01 -5.66753e+01        00000 
-2.88630e+01 -5.63415e+01        00000 
-2.47685e+01 -5.60491e+01        00000 
-2.07796e+01 -5.57981e+01        00000 
-1.68801e+01 -5.55884e+01        00000 
-1.30535e+01 -5.54202e+01        00000 
-9.28360e+00 -5.52938e+01        00000 
-5.55404e+00 -5.52093e+01        00000 
-1.84866e+00 -5.51671e+01        00000 
 1.84866e+00 -5.51671e+01        00000 
 5.55404e+00 -5.52093e+01        00000 
 9.28360e+00 -5.52938e+01        00000 
 1.30535e+01 -5.54202e+01        00000 
 1.68801e+01 -5.55884e+01        00000 
 2.07796e+01 -5.57981e+01        00000 
 2.47685e+01 -5.60491e+01        00000 
 2.88630e+01 -5.63415e+01        00000 
 3.30796e+01 -5.66753e+01        00000 
 3.74344e+01 -5.70508e+01        00000 
-3.96798e+01 -6.61543e+01        00000 
-3.50879e+01 -6.58207e+01        00000 
-3.06353e+01 -6.55239e+01        00000 
-2.63054e+01 -6.52636e+01        00000 
-2.20814e+01 -6.50394e+01        00000 
-1.79466e+01 -6.48517e+01        00000 
-1.38841e+01 -6.47007e+01        00000 
-9.87758e+00 -6.45868e+01        00000 
-5.91074e+00 -6.45106e+01        00000 
-1.96762e+00 -6.44724e+01        00000 
 1.96762e+00 -6.44724e+01        00000 
 5.91074e+00 -6.45106e+01        00000 
 9.87758e+00 -6.45868e+01        00000 
 1.38841e+01 -6.47007e+01        00000 
 1.79466e+01 -6.48517e+01        00000 
 2.20814e+01 -6.50394e+01        00000 
 2.63054e+01 -6.52636e+01        00000 
 3.06353e+01 -6.55239e+01        00000 
 3.50879e+01 -6.58207e+01        00000 
 3.96798e+01 -6.61543e+01        00000 
-4.16584e+01 -7.57056e+01        00000 
-3.68575e+01 -7.54144e+01        00000 
-3.21981e+01 -7.51547e+01        00000 
-2.76625e+01 -7.49257e+01        00000 
-2.32330e+01 -7.47274e+01        00000 
-1.88919e+01 -7.45600e+01        00000 
-1.46218e+01 -7.44244e+01        00000 
-1.04060e+01 -7.43214e+01        00000 
-6.22852e+00 -7.42521e+01        00000 
-2.07367e+00 -7.42172e+01        00000 
 2.07367e+00 -7.42172e+01        00000 
 6.22852e+00 -7.42521e+01        00000 
 1.04060e+01 -7.43214e+01        00000 
 1.46218e+01 -7.44244e+01        00000 
 1.88919e+01 -7.45600e+01        00000 
 2.32330e+01 -7.47274e+01        00000 
 2.76625e+01 -7.49257e+01        00000 
 3.21981e+01 -7.51547e+01        00000 
 3.68575e+01 -7.54144e+01        00000 
 4.16584e+01 -7.57056e+01        00000 
-4.33650e+01 -8.56497e+01        00000 
-3.83847e+01 -8.54017e+01        00000 
-3.35500e+01 -8.51792e+01        00000 
-2.88411e+01 -8.49808e+01        00000 
-2.42379e+01 -8.48064e+01        00000 
-1.97210e+01 -8.46568e+01        00000 
-1.52721e+01 -8.45337e+01        00000 
-1.08738e+01 -8.44390e+01        00000 
-6.51067e+00 -8.43746e+01        00000 
-2.16798e+00 -8.43419e+01        00000 
 2.16798e+00 -8.43419e+01        00000 
 6.51067e+00 -8.43746e+01        00000 
 1.08738e+01 -8.44390e+01        00000 
 1.52721e+01 -8.45337e+01        00000 
 1.97210e+01 -8.46568e+01        00000 
 2.42379e+01 -8.48064e+01        00000 
 2.88411e+01 -8.49808e+01        00000 
 3.35500e+01 -8.51792e+01        00000 
 3.83847e+01 -8.54017e+01        00000 
 4.33650e+01 -8.56497e+01        00000 
-4.47886e+01 -9.59281e+01        00000 
-3.96625e+01 -9.57253e+01        00000 
-3.46891e+01 -9.55405e+01        00000 
-2.98438e+01 -9.53717e+01        00000 
-2.51026e+01 -9.52191e+01        00000 
-2.04430e+01 -9.50843e+01        00000 
-1.58445e+01 -9.49701e+01        00000 
-1.12895e+01 -9.48800e+01        00000 
-6.76308e+00 -9.48175e+01        00000 
-2.25264e+00 -9.47855e+01        00000 
 2.25264e+00 -9.47855e+01        00000 
 6.76308e+00 -9.48175e+01        00000 
 1.12895e+01 -9.48800e+01        00000 
 1.58445e+01 -9.49701e+01        00000 
 2.04430e+01 -9.50843e+01        00000 
 2.51026e+01 -9.52191e+01        00000 
 2.98438e+01 -9.53717e+01        00000 
 3.46891e+01 -9.55405e+01        00000 
 3.96625e+01 -9.57253e+01        00000 
 4.47886e+01 -9.59281e+01        00000 
-4.59085e+01 -1.06472e+02        00000 
-4.06792e+01 -1.06318e+02        00000 
-3.56116e+01 -1.06172e+02        00000 
-3.06738e+01 -1.06034e+02        00000 
-2.58359e+01 -1.05904e+02        00000 
-2.10705e+01 -1.05783e+02        00000 
-1.63541e+01 -1.05675e+02        00000 
-1.16671e+01 -1.05587e+02        00000 
-6.99579e+00 -1.05523e+02        00000 
-2.33140e+00 -1.05489e+02        00000 
 2.33140e+00 -1.05489e+02        00000 
 6.99579e+00 -1.05523e+02        00000 
 1.16671e+01 -1.05587e+02        00000 
 1.63541e+01 -1.05675e+02        00000 
 2.10705e+01 -1.05783e+02        00000 
 2.58359e+01 -1.05904e+02        00000 
 3.06738e+01 -1.06034e+02        00000 
 3.56116e+01 -1.06172e+02        00000 
 4.06792e+01 -1.06318e+02        00000 
 4.59085e+01 -1.06472e+02        00000 
-4.66950e+01 -1.17185e+02        00000 
-4.14197e+01 -1.17084e+02        00000 
-3.63105e+01 -1.16984e+02        00000 
-3.13291e+01 -1.16886e+02        00000 
-2.64420e+01 -1.16789e+02        00000 
-2.16161e+01 -1.16692e+02        00000 
-1.68196e+01 -1.16597e+02        00000 
-1.20284e+01 -1.16513e+02        00000 
-7.22620e+00 -1.16445e+02        00000 
-2.41015e+00 -1.16409e+02        00000 
 2.41015e+00 -1.16409e+02        00000 
 7.22620e+00 -1.16445e+02        00000 
 1.20284e+01 -1.16513e+02        00000 
 1.68196e+01 -1.16597e+02        00000 
 2.16161e+01 -1.16692e+02        00000 
 2.64420e+01 -1.16789e+02        00000 
 3.13291e+01 -1.16886e+02        00000 
 3.63105e+01 -1.16984e+02        00000 
 4.14197e+01 -1.17084e+02        00000 
 4.66950e+01 -1.17185e+02        00000 
-4.71285e+01 -1.27923e+02        00000 
-4.18769e+01 -1.27877e+02        00000 
-3.67731e+01 -1.27833e+02        00000 
-3.17881e+01 -1.27798e+02        00000 
-2.68967e+01 -1.27772e+02        00000 
-2.20662e+01 -1.27744e+02        00000 
-1.72525e+01 -1.27704e+02        00000 
-1.23986e+01 -1.27646e+02        00000 
-7.48322e+00 -1.27594e+02        00000 
-2.50628e+00 -1.27552e+02        00000 
 2.50628e+00 -1.27552e+02        00000 
 7.48322e+00 -1.27594e+02        00000 
 1.23986e+01 -1.27646e+02        00000 
 1.72525e+01 -1.27704e+02        00000 
 2.20662e+01 -1.27744e+02        00000 
 2.68967e+01 -1.27772e+02        00000 
 3.17881e+01 -1.27798e+02        00000 
 3.67731e+01 -1.27833e+02        00000 
 4.18769e+01 -1.27877e+02        00000 
 4.71285e+01 -1.27923e+02        00000 
-4.72587e+01 -1.38499e+02        00000 
-4.20779e+01 -1.38497e+02        00000 
-3.69905e+01 -1.38513e+02        00000 
-3.20073e+01 -1.38564e+02        00000 
-2.71239e+01 -1.38656e+02        00000 
-2.23211e+01 -1.38788e+02        00000 
-1.75619e+01 -1.38944e+02        00000 
-1.27774e+01 -1.39078e+02        00000 
-7.79764e+00 -1.39098e+02        00000 
-2.61384e+00 -1.39146e+02        00000 
 2.61384e+00 -1.39146e+02        00000 
 7.79764e+00 -1.39098e+02        00000 
 1.27774e+01 -1.39078e+02        00000 
 1.75619e+01 -1.38944e+02        00000 
 2.23211e+01 -1.38788e+02        00000 
 2.71239e+01 -1.38656e+02        00000 
 3.20073e+01 -1.38564e+02        00000 
 3.69905e+01 -1.38513e+02        00000 
 4.20779e+01 -1.38497e+02        00000 
 4.72587e+01 -1.38499e+02        00000 
-4.72625e+01 -1.48825e+02        00000 
-4.21215e+01 -1.48821e+02        00000 
-3.70304e+01 -1.48822e+02        00000 
-3.20219e+01 -1.48865e+02        00000 
-2.71008e+01 -1.48995e+02        00000 
-2.22538e+01 -1.49266e+02        00000 
-1.74485e+01 -1.49750e+02        00000 
-1.26181e+01 -1.50553e+02        00000 
-7.66106e+00 -1.51827e+02        00000 
-2.56840e+00 -1.52411e+02        00000 
 2.56840e+00 -1.52411e+02        00000 
 7.66106e+00 -1.51827e+02        00000 
 1.26181e+01 -1.50553e+02        00000 
 1.74485e+01 -1.49750e+02        00000 
 2.22538e+01 -1.49266e+02        00000 
 2.71008e+01 -1.48995e+02        00000 
 3.20219e+01 -1.48865e+02        00000 
 3.70304e+01 -1.48822e+02        00000 
 4.21215e+01 -1.48821e+02        00000 
 4.72625e+01 -1.48825e+02        00000 
-2.35803e+00 -1.48501e+00        00000 
-1.85856e+00 -1.17733e+00        00000 
-1.53010e+00 -9.62162e-01        00000 
-1.26166e+00 -8.13601e-01        00000 
-1.02346e+00 -7.09382e-01        00000 
-8.03137e-01 -6.35940e-01        00000 
-5.94162e-01 -5.85036e-01        00000 
-3.92480e-01 -5.51613e-01        00000 
-1.95199e-01 -5.32635e-01        00000 
-9.12694e-15 -5.26480e-01        00000 
 1.95199e-01 -5.32635e-01        00000 
 3.92480e-01 -5.51613e-01        00000 
 5.94162e-01 -5.85036e-01        00000 
 8.03137e-01 -6.35940e-01        00000 
 1.02346e+00 -7.09382e-01        00000 
 1.26166e+00 -8.13601e-01        00000 
 1.53010e+00 -9.62162e-01        00000 
 1.85856e+00 -1.17733e+00        00000 
 2.35803e+00 -1.48501e+00        00000 
-7.19032e+00 -4.73167e+00        00000 
-5.85146e+00 -4.01939e+00        00000 
-4.82434e+00 -3.50208e+00        00000 
-3.96515e+00 -3.11967e+00        00000 
-3.20490e+00 -2.83701e+00        00000 
-2.50721e+00 -2.63021e+00        00000 
-1.85045e+00 -2.48302e+00        00000 
-1.22032e+00 -2.38461e+00        00000 
-6.06338e-01 -2.32810e+00        00000 
-2.94288e-14 -2.30967e+00        00000 
 6.06338e-01 -2.32810e+00        00000 
 1.22032e+00 -2.38461e+00        00000 
 1.85045e+00 -2.48302e+00        00000 
 2.50721e+00 -2.63021e+00        00000 
 3.20490e+00 -2.83701e+00        00000 
 3.96515e+00 -3.11967e+00        00000 
 4.82434e+00 -3.50208e+00        00000 
 5.85146e+00 -4.01939e+00        00000 
 7.19032e+00 -4.73167e+00        00000 
-1.14139e+01 -8.16171e+00        00000 
-9.70183e+00 -7.51485e+00        00000 
-8.14640e+00 -6.94284e+00        00000 
-6.74909e+00 -6.47240e+00        00000 
-5.47406e+00 -6.09850e+00        00000 
-4.28850e+00 -5.81049e+00        00000 
-3.16671e+00 -5.59787e+00        00000 
-2.08858e+00 -5.45211e+00        00000 
-1.03773e+00 -5.36707e+00        00000 
-5.55466e-14 -5.33913e+00        00000 
 1.03773e+00 -5.36707e+00        00000 
 2.08858e+00 -5.45211e+00        00000 
 3.16671e+00 -5.59787e+00        00000 
 4.28850e+00 -5.81049e+00        00000 
 5.47406e+00 -6.09850e+00        00000 
 6.74909e+00 -6.47240e+00        00000 
 8.14640e+00 -6.94284e+00        00000 
 9.70183e+00 -7.51485e+00        00000 
 1.14139e+01 -8.16171e+00        00000 
-1.53720e+01 -1.22864e+01        00000 
-1.32609e+01 -1.16789e+01        00000 
-1.12848e+01 -1.11398e+01        00000 
-9.43438e+00 -1.06730e+01        00000 
-7.69683e+00 -1.02839e+01        00000 
-6.05215e+00 -9.97215e+00        00000 
-4.47927e+00 -9.73492e+00        00000 
-2.95831e+00 -9.56865e+00        00000 
-1.47092e+00 -9.47026e+00        00000 
-8.22637e-14 -9.43770e+00        00000 
 1.47092e+00 -9.47026e+00        00000 
 2.95831e+00 -9.56865e+00        00000 
 4.47927e+00 -9.73492e+00        00000 
 6.05215e+00 -9.97215e+00        00000 
 7.69683e+00 -1.02839e+01        00000 
 9.43438e+00 -1.06730e+01        00000 
 1.12848e+01 -1.11398e+01        00000 
 1.32609e+01 -1.16789e+01        00000 
 1.53720e+01 -1.22864e+01        00000 
-1.90923e+01 -1.71938e+01        00000 
-1.65886e+01 -1.66249e+01        00000 
-1.42128e+01 -1.61199e+01        00000 
-1.19543e+01 -1.56802e+01        00000 
-9.79945e+00 -1.53076e+01        00000 
-7.73302e+00 -1.50034e+01        00000 
-5.73778e+00 -1.47678e+01        00000 
-3.79580e+00 -1.46005e+01        00000 
-1.88912e+00 -1.45005e+01        00000 
-1.08695e-13 -1.44673e+01        00000 
 1.88912e+00 -1.45005e+01        00000 
 3.79580e+00 -1.46005e+01        00000 
 5.73778e+00 -1.47678e+01        00000 
 7.73302e+00 -1.50034e+01        00000 
 9.79945e+00 -1.53076e+01        00000 
 1.19543e+01 -1.56802e+01        00000 
 1.42128e+01 -1.61199e+01        00000 
 1.65886e+01 -1.66249e+01        00000 
 1.90923e+01 -1.71938e+01        00000 
-2.25771e+01 -2.28794e+01        00000 
-1.96951e+01 -2.23489e+01        00000 