<?xml version="1.0" encoding="utf-8"?>
<VTKFile byte_order="LittleEndian" type="UnstructuredGrid" version="0.1">
   <UnstructuredGrid>
      <Piece NumberOfCells="1444" NumberOfPoints="761">
         <Points>
            <DataArray Name="Points" NumberOfComponents="3" format="ascii" type="Float32">
0.0000 1.0000 0.0000
0.0000 1.0526 0.0000
0.0000 1.1053 0.0000
0.0000 1.1579 0.0000
0.0000 1.2105 0.0000
0.0000 1.2632 0.0000
0.0000 1.3158 0.0000
0.0000 1.3684 0.0000
0.0000 1.4211 0.0000
0.0000 1.4737 0.0000
0.0000 1.5263 0.0000
0.0000 1.5789 0.0000
0.0000 1.6316 0.0000
0.0000 1.6842 0.0000
0.0000 1.7368 0.0000
0.0000 1.7895 0.0000
0.0000 1.8421 0.0000
0.0000 1.8947 0.0000
0.0000 1.9474 0.0000
0.0000 2.0000 0.0000
0.1053 1.0000 0.0000
0.1053 1.0526 0.0000
0.1053 1.1053 0.0000
0.1053 1.1579 0.0000
0.1053 1.2105 0.0000
0.1053 1.2632 0.0000
0.1053 1.3158 0.0000
0.1053 1.3684 0.0000
0.1053 1.4211 0.0000
0.1053 1.4737 0.0000
0.1053 1.5263 0.0000
0.1053 1.5789 0.0000
0.1053 1.6316 0.0000
0.1053 1.6842 0.0000
0.1053 1.7368 0.0000
0.1053 1.7895 0.0000
0.1053 1.8421 0.0000
0.1053 1.8947 0.0000
0.1053 1.9474 0.0000
0.1053 2.0000 0.0000
0.2105 1.0000 0.0000
0.2105 1.0526 0.0000
0.2105 1.1053 0.0000
0.2105 1.1579 0.0000
0.2105 1.2105 0.0000
0.2105 1.2632 0.0000
0.2105 1.3158 0.0000
0.2105 1.3684 0.0000
0.2105 1.4211 0.0000
0.2105 1.4737 0.0000
0.2105 1.5263 0.0000
0.2105 1.5789 0.0000
0.2105 1.6316 0.0000
0.2105 1.6842 0.0000
0.2105 1.7368 0.0000
0.2105 1.7895 0.0000
0.2105 1.8421 0.0000
0.2105 1.8947 0.0000
0.2105 1.9474 0.0000
0.2105 2.0000 0.0000
0.3158 1.0000 0.0000
0.3158 1.0526 0.0000
0.3158 1.1053 0.0000
0.3158 1.1579 0.0000
0.3158 1.2105 0.0000
0.3158 1.2632 0.0000
0.3158 1.3158 0.0000
0.3158 1.3684 0.0000
0.3158 1.4211 0.0000
0.3158 1.4737 0.0000
0.3158 1.5263 0.0000
0.3158 1.5789 0.0000
0.3158 1.6316 0.0000
0.3158 1.6842 0.0000
0.3158 1.7368 0.0000
0.3158 1.7895 0.0000
0.3158 1.8421 0.0000
0.3158 1.8947 0.0000
0.3158 1.9474 0.0000
0.3158 2.0000 0.0000
0.4211 1.0000 0.0000
0.4211 1.0526 0.0000
0.4211 1.1053 0.0000
0.4211 1.1579 0.0000
0.4211 1.2105 0.0000
0.4211 1.2632 0.0000
0.4211 1.3158 0.0000
0.4211 1.3684 0.0000
0.4211 1.4211 0.0000
0.4211 1.4737 0.0000
0.4211 1.5263 0.0000
0.4211 1.5789 0.0000
0.4211 1.6316 0.0000
0.4211 1.6842 0.0000
0.4211 1.7368 0.0000
0.4211 1.7895 0.0000
0.4211 1.8421 0.0000
0.4211 1.8947 0.0000
0.4211 1.9474 0.0000
0.4211 2.0000 0.0000
0.5263 1.0000 0.0000
0.5263 1.0526 0.0000
0.5263 1.1053 0.0000
0.5263 1.1579 0.0000
0.5263 1.2105 0.0000
0.5263 1.2632 0.0000
0.5263 1.3158 0.0000
0.5263 1.3684 0.0000
0.5263 1.4211 0.0000
0.5263 1.4737 0.0000
0.5263 1.5263 0.0000
0.5263 1.5789 0.0000
0.5263 1.6316 0.0000
0.5263 1.6842 0.0000
0.5263 1.7368 0.0000
0.5263 1.7895 0.0000
0.5263 1.8421 0.0000
0.5263 1.8947 0.0000
0.5263 1.9474 0.0000
0.5263 2.0000 0.0000
0.6316 1.0000 0.0000
0.6316 1.0526 0.0000
0.6316 1.1053 0.0000
0.6316 1.1579 0.0000
0.6316 1.2105 0.0000
0.6316 1.2632 0.0000
0.6316 1.3158 0.0000
0.6316 1.3684 0.0000
0.6316 1.4211 0.0000
0.6316 1.4737 0.0000
0.6316 1.5263 0.0000
0.6316 1.5789 0.0000
0.6316 1.6316 0.0000
0.6316 1.6842 0.0000
0.6316 1.7368 0.0000
0.6316 1.7895 0.0000
0.6316 1.8421 0.0000
0.6316 1.8947 0.0000
0.6316 1.9474 0.0000
0.6316 2.0000 0.0000
0.7368 1.0000 0.0000
0.7368 1.0526 0.0000
0.7368 1.1053 0.0000
0.7368 1.1579 0.0000
0.7368 1.2105 0.0000
0.7368 1.2632 0.0000
0.7368 1.3158 0.0000
0.7368 1.3684 0.0000
0.7368 1.4211 0.0000
0.7368 1.4737 0.0000
0.7368 1.5263 0.0000
0.7368 1.5789 0.0000
0.7368 1.6316 0.0000
0.7368 1.6842 0.0000
0.7368 1.7368 0.0000
0.7368 1.7895 0.0000
0.7368 1.8421 0.0000
0.7368 1.8947 0.0000
0.7368 1.9474 0.0000
0.7368 2.0000 0.0000
0.8421 1.0000 0.0000
0.8421 1.0526 0.0000
0.8421 1.1053 0.0000
0.8421 1.1579 0.0000
0.8421 1.2105 0.0000
0.8421 1.2632 0.0000
0.8421 1.3158 0.0000
0.8421 1.3684 0.0000
0.8421 1.4211 0.0000
0.8421 1.4737 0.0000
0.8421 1.5263 0.0000
0.8421 1.5789 0.0000
0.8421 1.6316 0.0000
0.8421 1.6842 0.0000
0.8421 1.7368 0.0000
0.8421 1.7895 0.0000
0.8421 1.8421 0.0000
0.8421 1.8947 0.0000
0.8421 1.9474 0.0000
0.8421 2.0000 0.0000
0.9474 1.0000 0.0000
0.9474 1.0526 0.0000
0.9474 1.1053 0.0000
0.9474 1.1579 0.0000
0.9474 1.2105 0.0000
0.9474 1.2632 0.0000
0.9474 1.3158 0.0000
0.9474 1.3684 0.0000
0.9474 1.4211 0.0000
0.9474 1.4737 0.0000
0.9474 1.5263 0.0000
0.9474 1.5789 0.0000
0.9474 1.6316 0.0000
0.9474 1.6842 0.0000
0.9474 1.7368 0.0000
0.9474 1.7895 0.0000
0.9474 1.8421 0.0000
0.9474 1.8947 0.0000
0.9474 1.9474 0.0000
0.9474 2.0000 0.0000
1.0526 1.0000 0.0000
1.0526 1.0526 0.0000
1.0526 1.1053 0.0000
1.0526 1.1579 0.0000
1.0526 1.2105 0.0000
1.0526 1.2632 0.0000
1.0526 1.3158 0.0000
1.0526 1.3684 0.0000
1.0526 1.4211 0.0000
1.0526 1.4737 0.0000
1.0526 1.5263 0.0000
1.0526 1.5789 0.0000
1.0526 1.6316 0.0000
1.0526 1.6842 0.0000
1.0526 1.7368 0.0000
1.0526 1.7895 0.0000
1.0526 1.8421 0.0000
1.0526 1.8947 0.0000
1.0526 1.9474 0.0000
1.0526 2.0000 0.0000
1.1579 1.0000 0.0000
1.1579 1.0526 0.0000
1.1579 1.1053 0.0000
1.1579 1.1579 0.0000
1.1579 1.2105 0.0000
1.1579 1.2632 0.0000
1.1579 1.3158 0.0000
1.1579 1.3684 0.0000
1.1579 1.4211 0.0000
1.1579 1.4737 0.0000
1.1579 1.5263 0.0000
1.1579 1.5789 0.0000
1.1579 1.6316 0.0000
1.1579 1.6842 0.0000
1.1579 1.7368 0.0000
1.1579 1.7895 0.0000
1.1579 1.8421 0.0000
1.1579 1.8947 0.0000
1.1579 1.9474 0.0000
1.1579 2.0000 0.0000
1.2632 1.0000 0.0000
1.2632 1.0526 0.0000
1.2632 1.1053 0.0000
1.2632 1.1579 0.0000
1.2632 1.2105 0.0000
1.2632 1.2632 0.0000
1.2632 1.3158 0.0000
1.2632 1.3684 0.0000
1.2632 1.4211 0.0000
1.2632 1.4737 0.0000
1.2632 1.5263 0.0000
1.2632 1.5789 0.0000
1.2632 1.6316 0.0000
1.2632 1.6842 0.0000
1.2632 1.7368 0.0000
1.2632 1.7895 0.0000
1.2632 1.8421 0.0000
1.2632 1.8947 0.0000
1.2632 1.9474 0.0000
1.2632 2.0000 0.0000
1.3684 1.0000 0.0000
1.3684 1.0526 0.0000
1.3684 1.1053 0.0000
1.3684 1.1579 0.0000
1.3684 1.2105 0.0000
1.3684 1.2632 0.0000
1.3684 1.3158 0.0000
1.3684 1.3684 0.0000
1.3684 1.4211 0.0000
1.3684 1.4737 0.0000
1.3684 1.5263 0.0000
1.3684 1.5789 0.0000
1.3684 1.6316 0.0000
1.3684 1.6842 0.0000
1.3684 1.7368 0.0000
1.3684 1.7895 0.0000
1.3684 1.8421 0.0000
1.3684 1.8947 0.0000
1.3684 1.9474 0.0000
1.3684 2.0000 0.0000
1.4737 1.0000 0.0000
1.4737 1.0526 0.0000
1.4737 1.1053 0.0000
1.4737 1.1579 0.0000
1.4737 1.2105 0.0000
1.4737 1.2632 0.0000
1.4737 1.3158 0.0000
1.4737 1.3684 0.0000
1.4737 1.4211 0.0000
1.4737 1.4737 0.0000
1.4737 1.5263 0.0000
1.4737 1.5789 0.0000
1.4737 1.6316 0.0000
1.4737 1.6842 0.0000
1.4737 1.7368 0.0000
1.4737 1.7895 0.0000
1.4737 1.8421 0.0000
1.4737 1.8947 0.0000
1.4737 1.9474 0.0000
1.4737 2.0000 0.0000
1.5789 1.0000 0.0000
1.5789 1.0526 0.0000
1.5789 1.1053 0.0000
1.5789 1.1579 0.0000
1.5789 1.2105 0.0000
1.5789 1.2632 0.0000
1.5789 1.3158 0.0000
1.5789 1.3684 0.0000
1.5789 1.4211 0.0000
1.5789 1.4737 0.0000
1.5789 1.5263 0.0000
1.5789 1.5789 0.0000
1.5789 1.6316 0.0000
1.5789 1.6842 0.0000
1.5789 1.7368 0.0000
1.5789 1.7895 0.0000
1.5789 1.8421 0.0000
1.5789 1.8947 0.0000
1.5789 1.9474 0.0000
1.5789 2.0000 0.0000
1.6842 1.0000 0.0000
1.6842 1.0526 0.0000
1.6842 1.1053 0.0000
1.6842 1.1579 0.0000
1.6842 1.2105 0.0000
1.6842 1.2632 0.0000
1.6842 1.3158 0.0000
1.6842 1.3684 0.0000
1.6842 1.4211 0.0000
1.6842 1.4737 0.0000
1.6842 1.5263 0.0000
1.6842 1.5789 0.0000
1.6842 1.6316 0.0000
1.6842 1.6842 0.0000
1.6842 1.7368 0.0000
1.6842 1.7895 0.0000
1.6842 1.8421 0.0000
1.6842 1.8947 0.0000
1.6842 1.9474 0.0000
1.6842 2.0000 0.0000
1.7895 1.0000 0.0000
1.7895 1.0526 0.0000
1.7895 1.1053 0.0000
1.7895 1.1579 0.0000
1.7895 1.2105 0.0000
1.7895 1.2632 0.0000
1.7895 1.3158 0.0000
1.7895 1.3684 0.0000
1.7895 1.4211 0.0000
1.7895 1.4737 0.0000
1.7895 1.5263 0.0000
1.7895 1.5789 0.0000
1.7895 1.6316 0.0000
1.7895 1.6842 0.0000
1.7895 1.7368 0.0000
1.7895 1.7895 0.0000
1.7895 1.8421 0.0000
1.7895 1.8947 0.0000
1.7895 1.9474 0.0000
1.7895 2.0000 0.0000
1.8947 1.0000 0.0000
1.8947 1.0526 0.0000
1.8947 1.1053 0.0000
1.8947 1.1579 0.0000
1.8947 1.2105 0.0000
1.8947 1.2632 0.0000
1.8947 1.3158 0.0000
1.8947 1.3684 0.0000
1.8947 1.4211 0.0000
1.8947 1.4737 0.0000
1.8947 1.5263 0.0000
1.8947 1.5789 0.0000
1.8947 1.6316 0.0000
1.8947 1.6842 0.0000
1.8947 1.7368 0.0000
1.8947 1.7895 0.0000
1.8947 1.8421 0.0000
1.8947 1.8947 0.0000
1.8947 1.9474 0.0000
1.8947 2.0000 0.0000
2.0000 1.0000 0.0000
2.0000 1.0526 0.0000
2.0000 1.1053 0.0000
2.0000 1.1579 0.0000
2.0000 1.2105 0.0000
2.0000 1.2632 0.0000
2.0000 1.3158 0.0000
2.0000 1.3684 0.0000
2.0000 1.4211 0.0000
2.0000 1.4737 0.0000
2.0000 1.5263 0.0000
2.0000 1.5789 0.0000
2.0000 1.6316 0.0000
2.0000 1.6842 0.0000
2.0000 1.7368 0.0000
2.0000 1.7895 0.0000
2.0000 1.8421 0.0000
2.0000 1.8947 0.0000
2.0000 1.9474 0.0000
2.0000 2.0000 0.0000
0.0526 1.0263 0.0000
0.0526 1.0789 0.0000
0.0526 1.1316 0.0000
0.0526 1.1842 0.0000
0.0526 1.2368 0.0000
0.0526 1.2895 0.0000
0.0526 1.3421 0.0000
0.0526 1.3947 0.0000
0.0526 1.4474 0.0000
0.0526 1.5000 0.0000
0.0526 1.5526 0.0000
0.0526 1.6053 0.0000
0.0526 1.6579 0.0000
0.0526 1.7105 0.0000
0.0526 1.7632 0.0000
0.0526 1.8158 0.0000
0.0526 1.8684 0.0000
0.0526 1.9211 0.0000
0.0526 1.9737 0.0000
0.1579 1.0263 0.0000
0.1579 1.0789 0.0000
0.1579 1.1316 0.0000
0.1579 1.1842 0.0000
0.1579 1.2368 0.0000
0.1579 1.2895 0.0000
0.1579 1.3421 0.0000
0.1579 1.3947 0.0000
0.1579 1.4474 0.0000
0.1579 1.5000 0.0000
0.1579 1.5526 0.0000
0.1579 1.6053 0.0000
0.1579 1.6579 0.0000
0.1579 1.7105 0.0000
0.1579 1.7632 0.0000
0.1579 1.8158 0.0000
0.1579 1.8684 0.0000
0.1579 1.9211 0.0000
0.1579 1.9737 0.0000
0.2632 1.0263 0.0000
0.2632 1.0789 0.0000
0.2632 1.1316 0.0000
0.2632 1.1842 0.0000
0.2632 1.2368 0.0000
0.2632 1.2895 0.0000
0.2632 1.3421 0.0000
0.2632 1.3947 0.0000
0.2632 1.4474 0.0000
0.2632 1.5000 0.0000
0.2632 1.5526 0.0000
0.2632 1.6053 0.0000
0.2632 1.6579 0.0000
0.2632 1.7105 0.0000
0.2632 1.7632 0.0000
0.2632 1.8158 0.0000
0.2632 1.8684 0.0000
0.2632 1.9211 0.0000
0.2632 1.9737 0.0000
0.3684 1.0263 0.0000
0.3684 1.0789 0.0000
0.3684 1.1316 0.0000
0.3684 1.1842 0.0000
[...]
         <PointData>
            <DataArray Name="displacement" NumberOfComponents="3" format="ascii" type="Float64">
-1.50299e-18 -2.37523e-18        00000 
 9.66032e-19  1.93206e-18        00000 
-1.90717e-18 -1.66878e-18        00000 
 2.20902e-18 -8.31191e-19        00000 
       00000 -2.38397e-19        00000 
 1.59198e-18  2.44598e-19        00000 
       00000 -2.38397e-19        00000 
 7.72221e-20  1.90949e-19        00000 
 4.09745e-19        00000        00000 
-3.00610e-20  2.40488e-19        00000 
-1.63898e-19  5.36393e-19        00000 
 2.45239e-19 -3.21993e-19        00000 
 3.57595e-19  5.95992e-20        00000 
 1.31590e-19 -6.62150e-19        00000 
 1.78798e-19  5.95992e-19        00000 
 2.31760e-18 -7.90006e-19        00000 
-5.95992e-19  7.15191e-19        00000 
       00000  4.81011e-19        00000 
 4.08751e-18  1.20221e-19        00000 
-3.54483e-18 -1.92227e-18        00000 
 2.36058e-02  1.50219e-02        00000 
 1.79142e-02  1.14628e-02        00000 
 1.45413e-02  9.16325e-03        00000 
 1.19511e-02  7.62276e-03        00000 
 9.74555e-03  6.55488e-03        00000 
 7.76269e-03  5.80224e-03        00000 
 5.91937e-03  5.27374e-03        00000 
 4.16595e-03  4.91447e-03        00000 
 2.46896e-03  4.69112e-03        00000 
 8.03117e-04  4.58450e-03        00000 
-8.52954e-04  4.58588e-03        00000 
-2.51949e-03  4.69540e-03        00000 
-4.21798e-03  4.92214e-03        00000 
-5.97395e-03  5.28569e-03        00000 
-7.82134e-03  5.82006e-03        00000 
-9.81062e-03  6.58108e-03        00000 
-1.20261e-02  7.66101e-03        00000 
-1.46311e-02  9.21772e-03        00000 
-1.80218e-02  1.15354e-02        00000 
-2.37213e-02  1.51090e-02        00000 
 4.24124e-02  2.76248e-02        00000 
 3.57558e-02  2.47816e-02        00000 
 2.97868e-02  2.21343e-02        00000 
 2.46789e-02  1.99727e-02        00000 
 2.01693e-02  1.82845e-02        00000 
 1.60672e-02  1.69997e-02        00000 
 1.22443e-02  1.60501e-02        00000 
 8.61103e-03  1.53821e-02        00000 
 5.10043e-03  1.49576e-02        00000 
 1.65868e-03  1.47525e-02        00000 
-1.76132e-03  1.47553e-02        00000 
-5.20461e-03  1.49661e-02        00000 
-8.71846e-03  1.53969e-02        00000 
-1.23571e-02  1.60722e-02        00000 
-1.61880e-02  1.70304e-02        00000 
-2.03015e-02  1.83255e-02        00000 
-2.48259e-02  2.00255e-02        00000 
-2.99498e-02  2.21992e-02        00000 
-3.59290e-02  2.48570e-02        00000 
-4.25858e-02  2.77099e-02        00000 
 5.99871e-02  4.29918e-02        00000 
 5.18022e-02  4.02673e-02        00000 
 4.41717e-02  3.78327e-02        00000 
 3.70935e-02  3.56886e-02        00000 
 3.05473e-02  3.38827e-02        00000 
 2.44397e-02  3.24225e-02        00000 
 1.86702e-02  3.12927e-02        00000 
 1.31479e-02  3.04713e-02        00000 
 7.79324e-03  2.99376e-02        00000 
 2.53518e-03  2.96764e-02        00000 
-2.69192e-03  2.96800e-02        00000 
-7.95213e-03  2.99486e-02        00000 
-1.33113e-02  3.04901e-02        00000 
-1.88406e-02  3.13198e-02        00000 
-2.46200e-02  3.24585e-02        00000 
-3.07402e-02  3.39282e-02        00000 
-3.73009e-02  3.57438e-02        00000 
-4.43925e-02  3.78972e-02        00000 
-5.20309e-02  4.03410e-02        00000 
-6.02154e-02  4.30750e-02        00000 
 7.65745e-02  6.15000e-02        00000 
 6.67679e-02  5.89550e-02        00000 
 5.74873e-02  5.66729e-02        00000 
 4.87075e-02  5.46638e-02        00000 
 4.03858e-02  5.29349e-02        00000 
 3.24689e-02  5.14975e-02        00000 
 2.48872e-02  5.03557e-02        00000 
 1.75646e-02  4.95074e-02        00000 
 1.04249e-02  4.89476e-02        00000 
 3.39335e-03  4.86711e-02        00000 
-3.60323e-03  4.86750e-02        00000 
-1.06373e-02  4.89595e-02        00000 
-1.77819e-02  4.95275e-02        00000 
-2.51120e-02  5.03840e-02        00000 
-3.27040e-02  5.15343e-02        00000 
-4.06334e-02  5.29803e-02        00000 
-4.89688e-02  5.47177e-02        00000 
-5.77611e-02  5.67354e-02        00000 
-6.70489e-02  5.90261e-02        00000 
-7.68545e-02  6.15800e-02        00000 
 9.21350e-02  8.32681e-02        00000 
 8.07374e-02  8.08907e-02        00000 
 6.98707e-02  7.87685e-02        00000 
 5.94887e-02  7.69002e-02        00000 
 4.95420e-02  7.52897e-02        00000 
 3.99749e-02  7.39416e-02        00000 
 3.07264e-02  7.28605e-02        00000 
 2.17294e-02  7.20497e-02        00000 
 1.29134e-02  7.15103e-02        00000 
 4.20584e-03  7.12427e-02        00000 
-4.46632e-03  7.12466e-02        00000 
-1.31764e-02  7.15221e-02        00000 
-2.19975e-02  7.20694e-02        00000 
-3.10021e-02  7.28882e-02        00000 
-4.02607e-02  7.39772e-02        00000 
-4.98400e-02  7.53333e-02        00000 
-5.98001e-02  7.69517e-02        00000 
-7.01941e-02  7.88280e-02        00000 
-8.10676e-02  8.09582e-02        00000 
-9.24638e-02  8.33440e-02        00000 
 1.06634e-01  1.08165e-01        00000 
 9.37257e-02  1.05960e-01        00000 
 8.13563e-02  1.03995e-01        00000 
 6.94704e-02  1.02269e-01        00000 
 5.80108e-02  1.00782e-01        00000 
 4.69192e-02  9.95380e-02        00000 
 3.61343e-02  9.85388e-02        00000 
 2.55915e-02  9.77876e-02        00000 
 1.52234e-02  9.72868e-02        00000 
 4.96043e-03  9.70379e-02        00000 
-5.26818e-03  9.70416e-02        00000 
-1.55336e-02  9.72979e-02        00000 
-2.59067e-02  9.78062e-02        00000 
-3.64570e-02  9.85648e-02        00000 
-4.72519e-02  9.95714e-02        00000 
-5.83556e-02  1.00823e-01        00000 
-6.98283e-02  1.02317e-01        00000 
-8.17261e-02  1.04050e-01        00000 
-9.41020e-02  1.06023e-01        00000 
-1.07009e-01  1.08236e-01        00000 
 1.20049e-01  1.35998e-01        00000 
 1.05731e-01  1.33966e-01        00000 
 9.19592e-02  1.32158e-01        00000 
 7.86722e-02  1.30572e-01        00000 
 6.58090e-02  1.29208e-01        00000 
 5.33084e-02  1.28068e-01        00000 
 4.11078e-02  1.27153e-01        00000 
 2.91429e-02  1.26465e-01        00000 
 1.73477e-02  1.26007e-01        00000 
 5.65435e-03  1.25779e-01        00000 
-6.00570e-03  1.25783e-01        00000 
-1.77015e-02  1.26017e-01        00000 
-2.95017e-02  1.26483e-01        00000 
-4.14740e-02  1.27177e-01        00000 
-5.36844e-02  1.28099e-01        00000 
-6.61970e-02  1.29246e-01        00000 
-7.90732e-02  1.30616e-01        00000 
-9.23719e-02  1.32209e-01        00000 
-1.06150e-01  1.34024e-01        00000 
-1.20466e-01  1.36064e-01        00000 
 1.32369e-01  1.66548e-01        00000 
 1.16753e-01  1.64689e-01        00000 
 1.01687e-01  1.63036e-01        00000 
 8.71079e-02  1.61587e-01        00000 
 7.29519e-02  1.60343e-01        00000 
 5.91562e-02  1.59305e-01        00000 
 4.56571e-02  1.58472e-01        00000 
 3.23901e-02  1.57846e-01        00000 
 1.92895e-02  1.57430e-01        00000 
 6.28859e-03  1.57223e-01        00000 
-6.67977e-03  1.57226e-01        00000 
-1.96831e-02  1.57439e-01        00000 
-3.27887e-02  1.57862e-01        00000 
-4.60631e-02  1.58493e-01        00000 
-5.95720e-02  1.59332e-01        00000 
-7.33796e-02  1.60378e-01        00000 
-8.75485e-02  1.61628e-01        00000 
-1.02139e-01  1.63083e-01        00000 
-1.17212e-01  1.64742e-01        00000 
-1.32826e-01  1.66607e-01        00000 
 1.43595e-01  1.99585e-01        00000 
 1.26794e-01  1.97899e-01        00000 
 1.10546e-01  1.96400e-01        00000 
 9.47869e-02  1.95087e-01        00000 
 7.94512e-02  1.93960e-01        00000 
 6.44748e-02  1.93019e-01        00000 
 4.97932e-02  1.92265e-01        00000 
 3.53415e-02  1.91699e-01        00000 
 2.10541e-02  1.91322e-01        00000 
 6.86497e-03  1.91134e-01        00000 
-7.29212e-03  1.91137e-01        00000 
-2.14837e-02  1.91330e-01        00000 
-3.57760e-02  1.91713e-01        00000 
-5.02352e-02  1.92284e-01        00000 
-6.49267e-02  1.93044e-01        00000 
-7.99151e-02  1.93990e-01        00000 
-9.52637e-02  1.95123e-01        00000 
-1.11035e-01  1.96441e-01        00000 
-1.27289e-01  1.97946e-01        00000 
-1.44087e-01  1.99638e-01        00000 
 1.53728e-01  2.34879e-01        00000 
 1.35857e-01  2.33366e-01        00000 
 1.18542e-01  2.32020e-01        00000 
 1.01717e-01  2.30840e-01        00000 
 8.53161e-02  2.29827e-01        00000 
 6.92742e-02  2.28981e-01        00000 
 5.35256e-02  2.28302e-01        00000 
 3.80049e-02  2.27792e-01        00000 
 2.26467e-02  2.27452e-01        00000 
 7.38533e-03  2.27283e-01        00000 
-7.84452e-03  2.27286e-01        00000 
-2.31084e-02  2.27459e-01        00000 
-3.84717e-02  2.27804e-01        00000 
-5.40000e-02  2.28319e-01        00000 
-6.97586e-02  2.29003e-01        00000 
-8.58126e-02  2.29854e-01        00000 
-1.02226e-01  2.30872e-01        00000 
-1.19063e-01  2.32056e-01        00000 
-1.36385e-01  2.33407e-01        00000 
-1.54253e-01  2.34927e-01        00000 
 1.62773e-01  2.72204e-01        00000 
 1.43945e-01  2.70863e-01        00000 
 1.25678e-01  2.69669e-01        00000 
 1.07904e-01  2.68621e-01        00000 
 9.05555e-02  2.67718e-01        00000 
 7.35647e-02  2.66962e-01        00000 
 5.68646e-02  2.66354e-01        00000 
 4.03892e-02  2.65895e-01        00000 
 2.40731e-02  2.65589e-01        00000 
 7.85175e-03  2.65436e-01        00000 
-8.33894e-03  2.65438e-01        00000 
-2.45629e-02  2.65595e-01        00000 
-4.08842e-02  2.65905e-01        00000 
-5.73674e-02  2.66368e-01        00000 
-7.40778e-02  2.66980e-01        00000 
-9.10811e-02  2.67740e-01        00000 
-1.08443e-01  2.68647e-01        00000 
-1.26229e-01  2.69700e-01        00000 
-1.44503e-01  2.70898e-01        00000 
-1.63328e-01  2.72245e-01        00000 
 1.70726e-01  3.11335e-01        00000 
 1.51057e-01  3.10165e-01        00000 
 1.31958e-01  3.09122e-01        00000 
 1.13356e-01  3.08203e-01        00000 
 9.51810e-02  3.07406e-01        00000 
 7.73603e-02  3.06733e-01        00000 
 5.98246e-02  3.06187e-01        00000 
 4.25067e-02  3.05774e-01        00000 
 2.53418e-02  3.05495e-01        00000 
 8.26725e-03  3.05356e-01        00000 
-8.77833e-03  3.05358e-01        00000 
-2.58556e-02  3.05500e-01        00000 
-4.30259e-02  3.05781e-01        00000 
-6.03520e-02  3.06199e-01        00000 
-7.78984e-02  3.06747e-01        00000 
-9.57321e-02  3.07424e-01        00000 
-1.13921e-01  3.08225e-01        00000 
-1.32535e-01  3.09148e-01        00000 
-1.51642e-01  3.10195e-01        00000 
-1.71308e-01  3.11369e-01        00000 
 1.77573e-01  3.52045e-01        00000 
 1.57184e-01  3.51051e-01        00000 
 1.37380e-01  3.50159e-01        00000 
 1.18083e-01  3.49363e-01        00000 
 9.92105e-02  3.48663e-01        00000 
 8.06841e-02  3.48063e-01        00000 
 6.24298e-02  3.47569e-01        00000 
 4.43786e-02  3.47188e-01        00000 
 2.64671e-02  3.46930e-01        00000 
 8.63685e-03  3.46800e-01        00000 
-9.16770e-03  3.46801e-01        00000 
-2.70008e-02  3.46934e-01        00000 
-4.49179e-02  3.47195e-01        00000 
-6.29777e-02  3.47578e-01        00000 
-8.12434e-02  3.48075e-01        00000 
-9.97834e-02  3.48678e-01        00000 
-1.18671e-01  3.49381e-01        00000 
-1.37982e-01  3.50180e-01        00000 
-1.57793e-01  3.51075e-01        00000 
-1.78180e-01  3.52073e-01        00000 
 1.83275e-01  3.94097e-01        00000 
 1.62301e-01  3.93285e-01        00000 
 1.41942e-01  3.92546e-01        00000 
 1.22098e-01  3.91870e-01        00000 
 1.02673e-01  3.91258e-01        00000 
 8.35743e-02  3.90718e-01        00000 
 6.47204e-02  3.90260e-01        00000 
 4.60402e-02  3.89899e-01        00000 
 2.74732e-02  3.89648e-01        00000 
 8.96912e-03  3.89521e-01        00000 
-9.51572e-03  3.89522e-01        00000 
-2.80228e-02  3.89652e-01        00000 
-4.65957e-02  3.89904e-01        00000 
-6.52849e-02  3.90267e-01        00000 
-8.41507e-02  3.90727e-01        00000 
-1.03264e-01  3.91270e-01        00000 
-1.22705e-01  3.91884e-01        00000 
-1.42564e-01  3.92563e-01        00000 
-1.62932e-01  3.93306e-01        00000 
-1.83905e-01  3.94121e-01        00000 
 1.87754e-01  4.37212e-01        00000 
 1.66367e-01  4.36596e-01        00000 
 1.45632e-01  4.36015e-01        00000 
 1.25418e-01  4.35463e-01        00000 
 1.05606e-01  4.34941e-01        00000 
 8.60844e-02  4.34456e-01        00000 
 6.67581e-02  4.34025e-01        00000 
 4.75488e-02  4.33670e-01        00000 
 2.84008e-02  4.33415e-01        00000 
 9.27910e-03  4.33282e-01        00000 
-9.83780e-03  4.33283e-01        00000 
-2.89626e-02  4.33419e-01        00000 
-4.81167e-02  4.33676e-01        00000 
-6.73354e-02  4.34034e-01        00000 
-8.66741e-02  4.34466e-01        00000 
-1.06211e-01  4.34953e-01        00000 
-1.26041e-01  4.35478e-01        00000 
-1.46270e-01  4.36032e-01        00000 
-1.67017e-01  4.36615e-01        00000 
-1.88405e-01  4.37234e-01        00000 
 1.90896e-01  4.81004e-01        00000 
 1.69326e-01  4.80600e-01        00000 
 1.48424e-01  4.80201e-01        00000 
 1.28038e-01  4.79808e-01        00000 
 1.08029e-01  4.79420e-01        00000 
 8.82650e-02  4.79034e-01        00000 
 6.86183e-02  4.78656e-01        00000 
 4.89921e-02  4.78318e-01        00000 
 2.93198e-02  4.78049e-01        00000 
 9.59028e-03  4.77906e-01        00000 
-1.01580e-02  4.77908e-01        00000 
-2.98907e-02  4.78054e-01        00000 
-4.95694e-02  4.78326e-01        00000 
-6.92051e-02  4.78667e-01        00000 
-8.88647e-02  4.79048e-01        00000 
-1.08644e-01  4.79436e-01        00000 
-1.28671e-01  4.79827e-01        00000 
-1.49076e-01  4.80221e-01        00000 
-1.69989e-01  4.80622e-01        00000 
-1.91563e-01  4.81028e-01        00000 
 1.92626e-01  5.24893e-01        00000 
 1.71152e-01  5.24709e-01        00000 
 1.50273e-01  5.24533e-01        00000 
 1.29872e-01  5.24396e-01        00000 
 1.09845e-01  5.24290e-01        00000 
 9.00636e-02  5.24182e-01        00000 
 7.03484e-02  5.24025e-01        00000 
 5.04715e-02  5.23791e-01        00000 
 3.03463e-02  5.23586e-01        00000 
 9.97222e-03  5.23418e-01        00000 
-1.05468e-02  5.23420e-01        00000 
-3.09241e-02  5.23593e-01        00000 
-5.10558e-02  5.23803e-01        00000 
-7.09424e-02  5.24041e-01        00000 
-9.06706e-02  5.24203e-01        00000 
-1.10468e-01  5.24315e-01        00000 
-1.30513e-01  5.24424e-01        00000 
-1.50931e-01  5.24563e-01        00000 
-1.71824e-01  5.24741e-01        00000 
-1.93303e-01  5.24926e-01        00000 
 1.93144e-01  5.68132e-01        00000 
 1.71955e-01  5.68121e-01        00000 
 1.51141e-01  5.68187e-01        00000 
 1.30746e-01  5.68393e-01        00000 
 1.10752e-01  5.68765e-01        00000 
 9.10800e-02  5.69297e-01        00000 
 7.15836e-02  5.69923e-01        00000 
 5.19870e-02  5.70467e-01        00000 
 3.16060e-02  5.70549e-01        00000 
 1.04015e-02  5.70747e-01        00000 
-1.09819e-02  5.70751e-01        00000 
-3.21895e-02  5.70560e-01        00000 
-5.25770e-02  5.70485e-01        00000 
-7.21834e-02  5.69948e-01        00000 
-9.16929e-02  5.69329e-01        00000 
-1.11380e-01  5.68803e-01        00000 
-1.31392e-01  5.68436e-01        00000 
-1.51803e-01  5.68233e-01        00000 
-1.72629e-01  5.68168e-01        00000 
-1.93826e-01  5.68180e-01        00000 
 1.93159e-01  6.10367e-01        00000 
 1.72130e-01  6.10351e-01        00000 
 1.51300e-01  6.10355e-01        00000 
 1.30803e-01  6.10528e-01        00000 
 1.10656e-01  6.11050e-01        00000 
 9.08060e-02  6.12140e-01        00000 
 7.11225e-02  6.14088e-01        00000 
 5.13395e-02  6.17324e-01        00000 
 3.10515e-02  6.22470e-01        00000 
 1.02155e-02  6.24832e-01        00000 
-1.08025e-02  6.24838e-01        00000 
-3.16416e-02  6.22488e-01        00000 
-5.19360e-02  6.17353e-01        00000 
-7.17286e-02  6.14129e-01        00000 
-9.14246e-02  6.12191e-01        00000 
-1.11290e-01  6.11109e-01        00000 
-1.31452e-01  6.10591e-01        00000 
-1.51963e-01  6.10420e-01        00000 
-1.72803e-01  6.10417e-01        00000 
-1.93842e-01  6.10433e-01        00000 
 9.88352e-03  6.18365e-03        00000 
 7.79442e-03  4.90030e-03        00000 
 6.40786e-03  4.00016e-03        00000 
 5.27414e-03  3.37681e-03        00000 
 4.27094e-03  2.93806e-03        00000 
 3.34584e-03  2.62796e-03        00000 
 2.47051e-03  2.41257e-03        00000 
 1.62712e-03  2.27102e-03        00000 
 8.02929e-04  2.19079e-03        00000 
-1.22579e-05  2.16519e-03        00000 
-8.27597e-04  2.19216e-03        00000 
-1.65226e-03  2.27389e-03        00000 
-2.49654e-03  2.41727e-03        00000 
-3.37330e-03  2.63509e-03        00000 
-4.30071e-03  2.94860e-03        00000 
-5.30768e-03  3.39233e-03        00000 
-6.44771e-03  4.02293e-03        00000 
-7.84450e-03  4.93300e-03        00000 
-9.94691e-03  6.22967e-03        00000 
 3.00390e-02  1.96488e-02        00000 
 2.44594e-02  1.66865e-02        00000 
 2.01561e-02  1.45305e-02        00000 
 1.65505e-02  1.29323e-02        00000 
 1.33618e-02  1.17479e-02        00000 
 1.04393e-02  1.08795e-02        00000 
 7.69171e-03  1.02607e-02        00000 
 5.05825e-03  9.84686e-03        00000 
 2.49392e-03  9.60979e-03        00000 
-3.79126e-05  9.53381e-03        00000 
-2.57030e-03  9.61397e-03        00000 
-5.13636e-03  9.85554e-03        00000 
-7.77297e-03  1.02746e-02        00000 
-1.05256e-02  1.08999e-02        00000 
-1.34558e-02  1.17765e-02        00000 
-1.66556e-02  1.29716e-02        00000 
-2.02762e-02  1.45833e-02        00000 
-2.45957e-02  1.67543e-02        00000 
-3.01832e-02  1.97288e-02        00000 
 4.75139e-02  3.37988e-02        00000 
 4.04161e-02  3.11263e-02        00000 
 3.39405e-02  2.87558e-02        00000 
 2.81091e-02  2.68008e-02        00000 
 2.27833e-02  2.52434e-02        00000 
 1.78312e-02  2.40417e-02        00000 
 1.31475e-02  2.31538e-02        00000 
 8.64817e-03  2.25453e-02        00000 
 4.26416e-03  2.21913e-02        00000 
-6.47131e-05  2.20770e-02        00000 
-4.39452e-03  2.21977e-02        00000 
-8.78140e-03  2.25585e-02        00000 
-1.32858e-02  2.31744e-02        00000 
-1.79772e-02  2.40705e-02        00000 
-2.29400e-02  2.52816e-02        00000 
-2.82795e-02  2.68495e-02        00000 
-3.41259e-02  2.88154e-02        00000 
-4.06137e-02  3.11961e-02        00000 
-4.77156e-02  3.38783e-02        00000 
 6.38139e-02  5.08038e-02        00000 
 5.50838e-02  4.83051e-02        00000 
 4.68884e-02  4.60838e-02        00000 
 3.91979e-02  4.41561e-02        00000 
 3.19662e-02  4.25454e-02        00000 
 2.51165e-02  4.12528e-02        00000 
 1.85648e-02  4.02684e-02        00000 
 1.22297e-02  3.95787e-02        00000 
 6.03482e-03  3.91717e-02        00000 
-9.15988e-05  3.90395e-02        00000 
-6.21918e-03  3.91793e-02        00000 
-1.24175e-02  3.95941e-02        00000 
-1.87588e-02  4.02919e-02        00000 
-2.53192e-02  4.12848e-02        00000 
-3.21803e-02  4.25863e-02        00000 
-3.94255e-02  4.42062e-02        00000 
-4.71299e-02  4.61429e-02        00000 
-5.53358e-02  4.83732e-02        00000 
-6.40693e-02  5.08809e-02        00000 
 7.90820e-02  7.10311e-02        00000 
 6.87425e-02  6.86999e-02        00000 
 5.89120e-02  6.66282e-02        00000 
 4.95507e-02  6.48223e-02        00000 
 4.06078e-02  6.32891e-02        00000 
 3.20246e-02  6.20357e-02        00000 
 2.37333e-02  6.10646e-02        00000 
 1.56617e-02  6.03748e-02        00000 
 7.73595e-03  5.99640e-02        00000 
-1.17584e-04  5.98300e-02        00000 
-7.97236e-03  5.99719e-02        00000 
-1.59018e-02  6.03907e-02        00000 
-2.39798e-02  6.10885e-02        00000 
-3.22800e-02  6.20678e-02        00000 
-4.08746e-02  6.33295e-02        00000 
-4.98306e-02  6.48709e-02        00000 
-5.92051e-02  6.66851e-02        00000 
-6.90456e-02  6.87651e-02        00000 
-7.93880e-02  7.11048e-02        00000 
 9.33365e-02  9.44546e-02        00000 
 8.14482e-02  9.22879e-02        00000 