<?xml version="1.0" encoding="utf-8"?>
<VTKFile byte_order="LittleEndian" type="UnstructuredGrid" version="0.1">
   <UnstructuredGrid>
      <Piece NumberOfCells="1444" NumberOfPoints="761">
         <Points>
            <DataArray Name="Points" NumberOfComponents="3" format="ascii" type="Float32">
0.0000 1.0000 0.0000
0.0000 1.0526 0.0000
0.0000 1.1053 0.0000
0.0000 1.1579 0.0000
0.0000 1.2105 0.0000
0.0000 1.2632 0.0000
0.0000 1.3158 0.0000
0.0000 1.3684 0.0000
0.0000 1.4211 0.0000
0.0000 1.4737 0.0000
0.0000 1.5263 0.0000
0.0000 1.5789 0.0000
0.0000 1.6316 0.0000
0.0000 1.6842 0.0000
0.0000 1.7368 0.0000
0.0000 1.7895 0.0000
0.0000 1.8421 0.0000
0.0000 1.8947 0.0000
0.0000 1.9474 0.0000
0.0000 2.0000 0.0000
0.1053 1.0000 0.0000
0.1053 1.0526 0.0000
0.1053 1.1053 0.0000
0.1053 1.1579 0.0000
0.1053 1.2105 0.0000
0.1053 1.2632 0.0000
0.1053 1.3158 0.0000
0.1053 1.3684 0.0000
0.1053 1.4211 0.0000
0.1053 1.4737 0.0000
0.1053 1.5263 0.0000
0.1053 1.5789 0.0000
0.1053 1.6316 0.0000
0.1053 1.6842 0.0000
0.1053 1.7368 0.0000
0.1053 1.7895 0.0000
0.1053 1.8421 0.0000
0.1053 1.8947 0.0000
0.1053 1.9474 0.0000
0.1053 2.0000 0.0000
0.2105 1.0000 0.0000
0.2105 1.0526 0.0000
0.2105 1.1053 0.0000
0.2105 1.1579 0.0000
0.2105 1.2105 0.0000
0.2105 1.2632 0.0000
0.2105 1.3158 0.0000
0.2105 1.3684 0.0000
0.2105 1.4211 0.0000
0.2105 1.4737 0.0000
0.2105 1.5263 0.0000
0.2105 1.5789 0.0000
0.2105 1.6316 0.0000
0.2105 1.6842 0.0000
0.2105 1.7368 0.0000
0.2105 1.7895 0.0000
0.2105 1.8421 0.0000
0.2105 1.8947 0.0000
0.2105 1.9474 0.0000
0.2105 2.0000 0.0000
0.3158 1.0000 0.0000
0.3158 1.0526 0.0000
0.3158 1.1053 0.0000
0.3158 1.1579 0.0000
0.3158 1.2105 0.0000
0.3158 1.2632 0.0000
0.3158 1.3158 0.0000
0.3158 1.3684 0.0000
0.3158 1.4211 0.0000
0.3158 1.4737 0.0000
0.3158 1.5263 0.0000
0.3158 1.5789 0.0000
0.3158 1.6316 0.0000
0.3158 1.6842 0.0000
0.3158 1.7368 0.0000
0.3158 1.7895 0.0000
0.3158 1.8421 0.0000
0.3158 1.8947 0.0000
0.3158 1.9474 0.0000
0.3158 2.0000 0.0000
0.4211 1.0000 0.0000
0.4211 1.0526 0.0000
0.4211 1.1053 0.0000
0.4211 1.1579 0.0000
0.4211 1.2105 0.0000
0.4211 1.2632 0.0000
0.4211 1.3158 0.0000
0.4211 1.3684 0.0000
0.4211 1.4211 0.0000
0.4211 1.4737 0.0000
0.4211 1.5263 0.0000
0.4211 1.5789 0.0000
0.4211 1.6316 0.0000
0.4211 1.6842 0.0000
0.4211 1.7368 0.0000
0.4211 1.7895 0.0000
0.4211 1.8421 0.0000
0.4211 1.8947 0.0000
0.4211 1.9474 0.0000
0.4211 2.0000 0.0000
0.5263 1.0000 0.0000
0.5263 1.0526 0.0000
0.5263 1.1053 0.0000
0.5263 1.1579 0.0000
0.5263 1.2105 0.0000
0.5263 1.2632 0.0000
0.5263 1.3158 0.0000
0.5263 1.3684 0.0000
0.5263 1.4211 0.0000
0.5263 1.4737 0.0000
0.5263 1.5263 0.0000
0.5263 1.5789 0.0000
0.5263 1.6316 0.0000
0.5263 1.6842 0.0000
0.5263 1.7368 0.0000
0.5263 1.7895 0.0000
0.5263 1.8421 0.0000
0.5263 1.8947 0.0000
0.5263 1.9474 0.0000
0.5263 2.0000 0.0000
0.6316 1.0000 0.0000
0.6316 1.0526 0.0000
0.6316 1.1053 0.0000
0.6316 1.1579 0.0000
0.6316 1.2105 0.0000
0.6316 1.2632 0.0000
0.6316 1.3158 0.0000
0.6316 1.3684 0.0000
0.6316 1.4211 0.0000
0.6316 1.4737 0.0000
0.6316 1.5263 0.0000
0.6316 1.5789 0.0000
0.6316 1.6316 0.0000
0.6316 1.6842 0.0000
0.6316 1.7368 0.0000
0.6316 1.7895 0.0000
0.6316 1.8421 0.0000
0.6316 1.8947 0.0000
0.6316 1.9474 0.0000
0.6316 2.0000 0.0000
0.7368 1.0000 0.0000
0.7368 1.0526 0.0000
0.7368 1.1053 0.0000
0.7368 1.1579 0.0000
0.7368 1.2105 0.0000
0.7368 1.2632 0.0000
0.7368 1.3158 0.0000
0.7368 1.3684 0.0000
0.7368 1.4211 0.0000
0.7368 1.4737 0.0000
0.7368 1.5263 0.0000
0.7368 1.5789 0.0000
0.7368 1.6316 0.0000
0.7368 1.6842 0.0000
0.7368 1.7368 0.0000
0.7368 1.7895 0.0000
0.7368 1.8421 0.0000
0.7368 1.8947 0.0000
0.7368 1.9474 0.0000
0.7368 2.0000 0.0000
0.8421 1.0000 0.0000
0.8421 1.0526 0.0000
0.8421 1.1053 0.0000
0.8421 1.1579 0.0000
0.8421 1.2105 0.0000
0.8421 1.2632 0.0000
0.8421 1.3158 0.0000
0.8421 1.3684 0.0000
0.8421 1.4211 0.0000
0.8421 1.4737 0.0000
0.8421 1.5263 0.0000
0.8421 1.5789 0.0000
0.8421 1.6316 0.0000
0.8421 1.6842 0.0000
0.8421 1.7368 0.0000
0.8421 1.7895 0.0000
0.8421 1.8421 0.0000
0.8421 1.8947 0.0000
0.8421 1.9474 0.0000
0.8421 2.0000 0.0000
0.9474 1.0000 0.0000
0.9474 1.0526 0.0000
0.9474 1.1053 0.0000
0.9474 1.1579 0.0000
0.9474 1.2105 0.0000
0.9474 1.2632 0.0000
0.9474 1.3158 0.0000
0.9474 1.3684 0.0000
0.9474 1.4211 0.0000
0.9474 1.4737 0.0000
0.9474 1.5263 0.0000
0.9474 1.5789 0.0000
0.9474 1.6316 0.0000
0.9474 1.6842 0.0000
0.9474 1.7368 0.0000
0.9474 1.7895 0.0000
0.9474 1.8421 0.0000
0.9474 1.8947 0.0000
0.9474 1.9474 0.0000
0.9474 2.0000 0.0000
1.0526 1.0000 0.0000
1.0526 1.0526 0.0000
1.0526 1.1053 0.0000
1.0526 1.1579 0.0000
1.0526 1.2105 0.0000
1.0526 1.2632 0.0000
1.0526 1.3158 0.0000
1.0526 1.3684 0.0000
1.0526 1.4211 0.0000
1.0526 1.4737 0.0000
1.0526 1.5263 0.0000
1.0526 1.5789 0.0000
1.0526 1.6316 0.0000
1.0526 1.6842 0.0000
1.0526 1.7368 0.0000
1.0526 1.7895 0.0000
1.0526 1.8421 0.0000
1.0526 1.8947 0.0000
1.0526 1.9474 0.0000
1.0526 2.0000 0.0000
1.1579 1.0000 0.0000
1.1579 1.0526 0.0000
1.1579 1.1053 0.0000
1.1579 1.1579 0.0000
1.1579 1.2105 0.0000
1.1579 1.2632 0.0000
1.1579 1.3158 0.0000
1.1579 1.3684 0.0000
1.1579 1.4211 0.0000
1.1579 1.4737 0.0000
1.1579 1.5263 0.0000
1.1579 1.5789 0.0000
1.1579 1.6316 0.0000
1.1579 1.6842 0.0000
1.1579 1.7368 0.0000
1.1579 1.7895 0.0000
1.1579 1.8421 0.0000
1.1579 1.8947 0.0000
1.1579 1.9474 0.0000
1.1579 2.0000 0.0000
1.2632 1.0000 0.0000
1.2632 1.0526 0.0000
1.2632 1.1053 0.0000
1.2632 1.1579 0.0000
1.2632 1.2105 0.0000
1.2632 1.2632 0.0000
1.2632 1.3158 0.0000
1.2632 1.3684 0.0000
1.2632 1.4211 0.0000
1.2632 1.4737 0.0000
1.2632 1.5263 0.0000
1.2632 1.5789 0.0000
1.2632 1.6316 0.0000
1.2632 1.6842 0.0000
1.2632 1.7368 0.0000
1.2632 1.7895 0.0000
1.2632 1.8421 0.0000
1.2632 1.8947 0.0000
1.2632 1.9474 0.0000
1.2632 2.0000 0.0000
1.3684 1.0000 0.0000
1.3684 1.0526 0.0000
1.3684 1.1053 0.0000
1.3684 1.1579 0.0000
1.3684 1.2105 0.0000
1.3684 1.2632 0.0000
1.3684 1.3158 0.0000
1.3684 1.3684 0.0000
1.3684 1.4211 0.0000
1.3684 1.4737 0.0000
1.3684 1.5263 0.0000
1.3684 1.5789 0.0000
1.3684 1.6316 0.0000
1.3684 1.6842 0.0000
1.3684 1.7368 0.0000
1.3684 1.7895 0.0000
1.3684 1.8421 0.0000
1.3684 1.8947 0.0000
1.3684 1.9474 0.0000
1.3684 2.0000 0.0000
1.4737 1.0000 0.0000
1.4737 1.0526 0.0000
1.4737 1.1053 0.0000
1.4737 1.1579 0.0000
1.4737 1.2105 0.0000
1.4737 1.2632 0.0000
1.4737 1.3158 0.0000
1.4737 1.3684 0.0000
1.4737 1.4211 0.0000
1.4737 1.4737 0.0000
1.4737 1.5263 0.0000
1.4737 1.5789 0.0000
1.4737 1.6316 0.0000
1.4737 1.6842 0.0000
1.4737 1.7368 0.0000
1.4737 1.7895 0.0000
1.4737 1.8421 0.0000
1.4737 1.8947 0.0000
1.4737 1.9474 0.0000
1.4737 2.0000 0.0000
1.5789 1.0000 0.0000
1.5789 1.0526 0.0000
1.5789 1.1053 0.0000
1.5789 1.1579 0.0000
1.5789 1.2105 0.0000
1.5789 1.2632 0.0000
1.5789 1.3158 0.0000
1.5789 1.3684 0.0000
1.5789 1.4211 0.0000
1.5789 1.4737 0.0000
1.5789 1.5263 0.0000
1.5789 1.5789 0.0000
1.5789 1.6316 0.0000
1.5789 1.6842 0.0000
1.5789 1.7368 0.0000
1.5789 1.7895 0.0000
1.5789 1.8421 0.0000
1.5789 1.8947 0.0000
1.5789 1.9474 0.0000
1.5789 2.0000 0.0000
1.6842 1.0000 0.0000
1.6842 1.0526 0.0000
1.6842 1.1053 0.0000
1.6842 1.1579 0.0000
1.6842 1.2105 0.0000
1.6842 1.2632 0.0000
1.6842 1.3158 0.0000
1.6842 1.3684 0.0000
1.6842 1.4211 0.0000
1.6842 1.4737 0.0000
1.6842 1.5263 0.0000
1.6842 1.5789 0.0000
1.6842 1.6316 0.0000
1.6842 1.6842 0.0000
1.6842 1.7368 0.0000
1.6842 1.7895 0.0000
1.6842 1.8421 0.0000
1.6842 1.8947 0.0000
1.6842 1.9474 0.0000
1.6842 2.0000 0.0000
1.7895 1.0000 0.0000
1.7895 1.0526 0.0000
1.7895 1.1053 0.0000
1.7895 1.1579 0.0000
1.7895 1.2105 0.0000
1.7895 1.2632 0.0000
1.7895 1.3158 0.0000
1.7895 1.3684 0.0000
1.7895 1.4211 0.0000
1.7895 1.4737 0.0000
1.7895 1.5263 0.0000
1.7895 1.5789 0.0000
1.7895 1.6316 0.0000
1.7895 1.6842 0.0000
1.7895 1.7368 0.0000
1.7895 1.7895 0.0000
1.7895 1.8421 0.0000
1.7895 1.8947 0.0000
1.7895 1.9474 0.0000
1.7895 2.0000 0.0000
1.8947 1.0000 0.0000
1.8947 1.0526 0.0000
1.8947 1.1053 0.0000
1.8947 1.1579 0.0000
1.8947 1.2105 0.0000
1.8947 1.2632 0.0000
1.8947 1.3158 0.0000
1.8947 1.3684 0.0000
1.8947 1.4211 0.0000
1.8947 1.4737 0.0000
1.8947 1.5263 0.0000
1.8947 1.5789 0.0000
1.8947 1.6316 0.0000
1.8947 1.6842 0.0000
1.8947 1.7368 0.0000
1.8947 1.7895 0.0000
1.8947 1.8421 0.0000
1.8947 1.8947 0.0000
1.8947 1.9474 0.0000
1.8947 2.0000 0.0000
2.0000 1.0000 0.0000
2.0000 1.0526 0.0000
2.0000 1.1053 0.0000
2.0000 1.1579 0.0000
2.0000 1.2105 0.0000
2.0000 1.2632 0.0000
2.0000 1.3158 0.0000
2.0000 1.3684 0.0000
2.0000 1.4211 0.0000
2.0000 1.4737 0.0000
2.0000 1.5263 0.0000
2.0000 1.5789 0.0000
2.0000 1.6316 0.0000
2.0000 1.6842 0.0000
2.0000 1.7368 0.0000
2.0000 1.7895 0.0000
2.0000 1.8421 0.0000
2.0000 1.8947 0.0000
2.0000 1.9474 0.0000
2.0000 2.0000 0.0000
0.0526 1.0263 0.0000
0.0526 1.0789 0.0000
0.0526 1.1316 0.0000
0.0526 1.1842 0.0000
0.0526 1.2368 0.0000
0.0526 1.2895 0.0000
0.0526 1.3421 0.0000
0.0526 1.3947 0.0000
0.0526 1.4474 0.0000
0.0526 1.5000 0.0000
0.0526 1.5526 0.0000
0.0526 1.6053 0.0000
0.0526 1.6579 0.0000
0.0526 1.7105 0.0000
0.0526 1.7632 0.0000
0.0526 1.8158 0.0000
0.0526 1.8684 0.0000
0.0526 1.9211 0.0000
0.0526 1.9737 0.0000
0.1579 1.0263 0.0000
0.1579 1.0789 0.0000
0.1579 1.1316 0.0000
0.1579 1.1842 0.0000
0.1579 1.2368 0.0000
0.1579 1.2895 0.0000
0.1579 1.3421 0.0000
0.1579 1.3947 0.0000
0.1579 1.4474 0.0000
0.1579 1.5000 0.0000
0.1579 1.5526 0.0000
0.1579 1.6053 0.0000
0.1579 1.6579 0.0000
0.1579 1.7105 0.0000
0.1579 1.7632 0.0000
0.1579 1.8158 0.0000
0.1579 1.8684 0.0000
0.1579 1.9211 0.0000
0.1579 1.9737 0.0000
0.2632 1.0263 0.0000
0.2632 1.0789 0.0000
0.2632 1.1316 0.0000
0.2632 1.1842 0.0000
0.2632 1.2368 0.0000
0.2632 1.2895 0.0000
0.2632 1.3421 0.0000
0.2632 1.3947 0.0000
0.2632 1.4474 0.0000
0.2632 1.5000 0.0000
0.2632 1.5526 0.0000
0.2632 1.6053 0.0000
0.2632 1.6579 0.0000
0.2632 1.7105 0.0000
0.2632 1.7632 0.0000
0.2632 1.8158 0.0000
0.2632 1.8684 0.0000
0.2632 1.9211 0.0000
0.2632 1.9737 0.0000
0.3684 1.0263 0.0000
0.3684 1.0789 0.0000
0.3684 1.1316 0.0000
0.3684 1.1842 0.0000
[...]
         <PointData>
            <DataArray Name="displacement" NumberOfComponents="3" format="ascii" type="Float64">
 2.52295e-18 -2.03994e-18        00000 
       00000 -1.93206e-18        00000 
 1.43038e-18  2.86076e-18        00000 
-3.32476e-18 -3.30979e-18        00000 
 7.15191e-19  1.19198e-18        00000 
 1.94542e-19 -8.40506e-19        00000 
-2.38397e-19 -3.57595e-19        00000 
-7.05763e-19  3.81898e-19        00000 
-4.46994e-20 -1.19198e-18        00000 
 1.50305e-19        00000        00000 
-6.25792e-19  8.34389e-19        00000 
 7.19804e-19 -6.14033e-19        00000 
-1.19198e-19  1.19198e-19        00000 
-5.21357e-19  6.23444e-19        00000 
-5.95992e-19  2.38397e-19        00000 
 8.16214e-19 -2.74068e-18        00000 
-2.14557e-18        00000        00000 
 9.62022e-19  1.92404e-18        00000 
-3.84707e-18 -1.20221e-18        00000 
 2.22324e-18 -3.48388e-18        00000 
 4.13930e-02  2.60547e-02        00000 
 3.15060e-02  1.98708e-02        00000 
 2.55097e-02  1.58619e-02        00000 
 2.08790e-02  1.31614e-02        00000 
 1.69584e-02  1.12798e-02        00000 
 1.34602e-02  9.94874e-03        00000 
 1.02283e-02  9.01180e-03        00000 
 7.16761e-03  8.37428e-03        00000 
 4.21382e-03  7.97860e-03        00000 
 1.31849e-03  7.79171e-03        00000 
-1.55926e-03  7.79873e-03        00000 
-4.45815e-03  8.00031e-03        00000 
-7.41953e-03  8.41275e-03        00000 
-1.04930e-02  9.07100e-03        00000 
-1.37452e-02  1.00355e-02        00000 
-1.72760e-02  1.14059e-02        00000 
-2.12503e-02  1.33455e-02        00000 
-2.59691e-02  1.61299e-02        00000 
-3.20902e-02  2.02403e-02        00000 
-4.20210e-02  2.64980e-02        00000 
 7.36336e-02  4.74363e-02        00000 
 6.22216e-02  4.25979e-02        00000 
 5.18320e-02  3.80542e-02        00000 
 4.28785e-02  3.43152e-02        00000 
 3.49674e-02  3.13780e-02        00000 
 2.77869e-02  2.91344e-02        00000 
 2.11152e-02  2.74730e-02        00000 
 1.47913e-02  2.63042e-02        00000 
 8.69267e-03  2.55634e-02        00000 
 2.71979e-03  2.52096e-02        00000 
-3.21488e-03  2.52235e-02        00000 
-9.19539e-03  2.56060e-02        00000 
-1.53101e-02  2.63781e-02        00000 
-2.16601e-02  2.75826e-02        00000 
-2.83712e-02  2.92860e-02        00000 
-3.56087e-02  3.15799e-02        00000 
-4.35986e-02  3.45748e-02        00000 
-5.26465e-02  3.83730e-02        00000 
-6.31060e-02  4.29646e-02        00000 
-7.45258e-02  4.78465e-02        00000 
 1.03361e-01  7.34933e-02        00000 
 8.94188e-02  6.88973e-02        00000 
 7.63113e-02  6.47736e-02        00000 
 6.40720e-02  6.11179e-02        00000 
 5.27132e-02  5.80195e-02        00000 
 4.21068e-02  5.55028e-02        00000 
 3.20937e-02  5.35504e-02        00000 
 2.25205e-02  5.21300e-02        00000 
 1.32473e-02  5.12092e-02        00000 
 4.14668e-03  5.07642e-02        00000 
-4.90074e-03  5.07823e-02        00000 
-1.40119e-02  5.12642e-02        00000 
-2.33067e-02  5.22233e-02        00000 
-3.29138e-02  5.36846e-02        00000 
-4.29744e-02  5.56805e-02        00000 
-5.36430e-02  5.82431e-02        00000 
-6.50759e-02  6.13875e-02        00000 
-7.73893e-02  6.50867e-02        00000 
-9.05483e-02  6.92521e-02        00000 
-1.04493e-01  7.38907e-02        00000 
 1.31245e-01  1.04862e-01        00000 
 1.14579e-01  1.00597e-01        00000 
 9.87295e-02  9.67659e-02        00000 
 8.36669e-02  9.33816e-02        00000 
 6.93426e-02  9.04563e-02        00000 
 5.56902e-02  8.80139e-02        00000 
 4.26078e-02  8.60681e-02        00000 
 2.99735e-02  8.46208e-02        00000 
 1.76581e-02  8.36676e-02        00000 
 5.53105e-03  8.32026e-02        00000 
-6.53722e-03  8.32221e-02        00000 
-1.86760e-02  8.37264e-02        00000 
-3.10150e-02  8.47193e-02        00000 
-4.36850e-02  8.62070e-02        00000 
-5.68153e-02  8.81937e-02        00000 
-7.05270e-02  9.06768e-02        00000 
-8.49186e-02  9.36420e-02        00000 
-1.00048e-01  9.70653e-02        00000 
-1.15943e-01  1.00935e-01        00000 
-1.32607e-01  1.05241e-01        00000 
 1.57244e-01  1.41728e-01        00000 
 1.37911e-01  1.37770e-01        00000 
 1.19417e-01  1.34233e-01        00000 
 1.01691e-01  1.31114e-01        00000 
 8.46641e-02  1.28418e-01        00000 
 6.82575e-02  1.26155e-01        00000 
 5.23813e-02  1.24336e-01        00000 
 3.69301e-02  1.22971e-01        00000 
 2.17869e-02  1.22065e-01        00000 
 6.82847e-03  1.21621e-01        00000 
-8.07207e-03  1.21640e-01        00000 
-2.30423e-02  1.22122e-01        00000 
-3.82088e-02  1.23067e-01        00000 
-5.36950e-02  1.24470e-01        00000 
-6.96172e-02  1.26326e-01        00000 
-8.60800e-02  1.28626e-01        00000 
-1.03171e-01  1.31359e-01        00000 
-1.20960e-01  1.34514e-01        00000 
-1.39496e-01  1.38087e-01        00000 
-1.58824e-01  1.42084e-01        00000 
 1.81320e-01  1.83838e-01        00000 
 1.59468e-01  1.80188e-01        00000 
 1.38477e-01  1.76935e-01        00000 
 1.18257e-01  1.74074e-01        00000 
 9.87215e-02  1.71607e-01        00000 
 7.97841e-02  1.69538e-01        00000 
 6.13515e-02  1.67874e-01        00000 
 4.33217e-02  1.66623e-01        00000 
 2.55841e-02  1.65792e-01        00000 
 8.02205e-03  1.65384e-01        00000 
-9.48488e-03  1.65402e-01        00000 
-2.70583e-02  1.65845e-01        00000 
-4.48185e-02  1.66712e-01        00000 
-6.28820e-02  1.67998e-01        00000 
-8.13588e-02  1.69696e-01        00000 
-1.00350e-01  1.71800e-01        00000 
-1.19948e-01  1.74301e-01        00000 
-1.40229e-01  1.77196e-01        00000 
-1.61260e-01  1.80483e-01        00000 
-1.83106e-01  1.84168e-01        00000 
 2.03462e-01  2.30835e-01        00000 
 1.79276e-01  2.27492e-01        00000 
 1.55966e-01  2.24515e-01        00000 
 1.33432e-01  2.21902e-01        00000 
 1.11580e-01  2.19654e-01        00000 
 9.03146e-02  2.17772e-01        00000 
 6.95402e-02  2.16261e-01        00000 
 4.91542e-02  2.15126e-01        00000 
 2.90487e-02  2.14371e-01        00000 
 9.11104e-03  2.14001e-01        00000 
-1.07740e-02  2.14018e-01        00000 
-3.07227e-02  2.14420e-01        00000 
-5.08501e-02  2.15206e-01        00000 
-7.12688e-02  2.16373e-01        00000 
-9.20862e-02  2.17916e-01        00000 
-1.13404e-01  2.19829e-01        00000 
-1.35317e-01  2.22109e-01        00000 
-1.57910e-01  2.24753e-01        00000 
-1.81260e-01  2.27761e-01        00000 
-2.05439e-01  2.31137e-01        00000 
 2.23687e-01  2.82324e-01        00000 
 1.97362e-01  2.79282e-01        00000 
 1.71924e-01  2.76575e-01        00000 
 1.47267e-01  2.74202e-01        00000 
 1.23290e-01  2.72162e-01        00000 
 9.98960e-02  2.70458e-01        00000 
 7.69850e-02  2.69091e-01        00000 
 5.44538e-02  2.68065e-01        00000 
 3.21956e-02  2.67384e-01        00000 
 1.01002e-02  2.67050e-01        00000 
-1.19443e-02  2.67064e-01        00000 
-3.40504e-02  2.67427e-01        00000 
-5.63302e-02  2.68137e-01        00000 
-7.88935e-02  2.69191e-01        00000 
-1.01847e-01  2.70587e-01        00000 
-1.25293e-01  2.72320e-01        00000 
-1.49329e-01  2.74388e-01        00000 
-1.74045e-01  2.76789e-01        00000 
-1.99522e-01  2.79525e-01        00000 
-2.25839e-01  2.82597e-01        00000 
 2.42024e-01  3.37903e-01        00000 
 2.13757e-01  3.35157e-01        00000 
 1.86385e-01  3.32714e-01        00000 
 1.59798e-01  3.30573e-01        00000 
 1.33892e-01  3.28734e-01        00000 
 1.08566e-01  3.27197e-01        00000 
 8.37188e-02  3.25966e-01        00000 
 5.92457e-02  3.25043e-01        00000 
 3.50406e-02  3.24429e-01        00000 
 1.09948e-02  3.24128e-01        00000 
-1.30012e-02  3.24141e-01        00000 
-3.70577e-02  3.24467e-01        00000 
-6.12843e-02  3.25106e-01        00000 
-8.57894e-02  3.26054e-01        00000 
-1.10679e-01  3.27311e-01        00000 
-1.36057e-01  3.28872e-01        00000 
-1.62022e-01  3.30737e-01        00000 
-1.88668e-01  3.32903e-01        00000 
-2.16078e-01  3.35372e-01        00000 
-2.44335e-01  3.38146e-01        00000 
 2.58504e-01  3.97176e-01        00000 
 2.28492e-01  3.94720e-01        00000 
 1.99380e-01  3.92536e-01        00000 
 1.71058e-01  3.90621e-01        00000 
 1.43418e-01  3.88975e-01        00000 
 1.16356e-01  3.87599e-01        00000 
 8.97688e-02  3.86495e-01        00000 
 6.35514e-02  3.85666e-01        00000 
 3.75974e-02  3.85115e-01        00000 
 1.17997e-02  3.84844e-01        00000 
-1.39496e-02  3.84855e-01        00000 
-3.97582e-02  3.85147e-01        00000 
-6.57339e-02  3.85720e-01        00000 
-9.19837e-02  3.86570e-01        00000 
-1.18614e-01  3.87696e-01        00000 
-1.45728e-01  3.89094e-01        00000 
-1.73428e-01  3.90763e-01        00000 
-2.01809e-01  3.92700e-01        00000 
-2.30958e-01  3.94909e-01        00000 
-2.60961e-01  3.97389e-01        00000 
 2.73156e-01  4.59756e-01        00000 
 2.41590e-01  4.57587e-01        00000 
 2.10933e-01  4.55656e-01        00000 
 1.81072e-01  4.53961e-01        00000 
 1.51895e-01  4.52500e-01        00000 
 1.23293e-01  4.51275e-01        00000 
 9.51609e-02  4.50289e-01        00000 
 6.73917e-02  4.49546e-01        00000 
 3.98797e-02  4.49051e-01        00000 
 1.25194e-02  4.48807e-01        00000 
-1.47941e-02  4.48816e-01        00000 
-4.21656e-02  4.49078e-01        00000 
-6.96999e-02  4.49591e-01        00000 
-9.75024e-02  4.50351e-01        00000 
-1.25679e-01  4.51356e-01        00000 
-1.54334e-01  4.52600e-01        00000 
-1.83573e-01  4.54080e-01        00000 
-2.13494e-01  4.55796e-01        00000 
-2.44189e-01  4.57748e-01        00000 
-2.75746e-01  4.59939e-01        00000 
 2.85996e-01  5.25266e-01        00000 
 2.53068e-01  5.23382e-01        00000 
 2.21066e-01  5.21700e-01        00000 
 1.89867e-01  5.20217e-01        00000 
 1.59354e-01  5.18930e-01        00000 
 1.29411e-01  5.17843e-01        00000 
 9.99262e-02  5.16962e-01        00000 
 7.07924e-02  5.16293e-01        00000 
 4.19044e-02  5.15845e-01        00000 
 1.31600e-02  5.15623e-01        00000 
-1.55407e-02  5.15630e-01        00000 
-4.42967e-02  5.15867e-01        00000 
-7.32080e-02  5.16329e-01        00000 
-1.02376e-01  5.17012e-01        00000 
-1.31907e-01  5.17909e-01        00000 
-1.61906e-01  5.19011e-01        00000 
-1.92483e-01  5.20315e-01        00000 
-2.23744e-01  5.21815e-01        00000 
-2.55787e-01  5.23515e-01        00000 
-2.88707e-01  5.25420e-01        00000 
 2.97017e-01  5.93330e-01        00000 
 2.62927e-01  5.91733e-01        00000 
 2.29790e-01  5.90299e-01        00000 
 1.97470e-01  5.89018e-01        00000 
 1.65834e-01  5.87892e-01        00000 
 1.34754e-01  5.86924e-01        00000 
 1.04110e-01  5.86128e-01        00000 
 7.37919e-02  5.85515e-01        00000 
 4.36971e-02  5.85099e-01        00000 
 1.37304e-02  5.84892e-01        00000 
-1.61984e-02  5.84897e-01        00000 
-4.61773e-02  5.85117e-01        00000 
-7.62963e-02  5.85543e-01        00000 
-1.06651e-01  5.86168e-01        00000 
-1.37342e-01  5.86977e-01        00000 
-1.68482e-01  5.87956e-01        00000 
-2.00186e-01  5.89097e-01        00000 
-2.32572e-01  5.90392e-01        00000 
-2.65753e-01  5.91842e-01        00000 
-2.99838e-01  5.93458e-01        00000 
 3.06171e-01  6.63557e-01        00000 
 2.71140e-01  6.62256e-01        00000 
 2.37110e-01  6.61070e-01        00000 
 2.03914e-01  6.59985e-01        00000 
 1.71390e-01  6.59002e-01        00000 
 1.39390e-01  6.58132e-01        00000 
 1.07782e-01  6.57396e-01        00000 
 7.64506e-02  6.56815e-01        00000 
 4.52990e-02  6.56414e-01        00000 
 1.42448e-02  6.56211e-01        00000 
-1.67822e-02  6.56216e-01        00000 
-4.78490e-02  6.56429e-01        00000 
-7.90260e-02  6.56840e-01        00000 
-1.10395e-01  6.57431e-01        00000 
-1.42054e-01  6.58177e-01        00000 
-1.74117e-01  6.59056e-01        00000 
-2.06714e-01  6.60050e-01        00000 
-2.39982e-01  6.61147e-01        00000 
-2.74062e-01  6.62348e-01        00000 
-3.09092e-01  6.63665e-01        00000 
 3.13344e-01  7.35492e-01        00000 
 2.77651e-01  7.34506e-01        00000 
 2.43019e-01  7.33577e-01        00000 
 2.09232e-01  7.32692e-01        00000 
 1.76089e-01  7.31853e-01        00000 
 1.43410e-01  7.31075e-01        00000 
 1.11044e-01  7.30385e-01        00000 
 7.88627e-02  7.29814e-01        00000 
 4.67762e-02  7.29407e-01        00000 
 1.47274e-02  7.29195e-01        00000 
-1.73179e-02  7.29201e-01        00000 
-4.93798e-02  7.29423e-01        00000 
-8.14926e-02  7.29841e-01        00000 
-1.13713e-01  7.30421e-01        00000 
-1.46133e-01  7.31122e-01        00000 
-1.78878e-01  7.31909e-01        00000 
-2.12099e-01  7.32757e-01        00000 
-2.45965e-01  7.33651e-01        00000 
-2.80655e-01  7.34592e-01        00000 
-3.16354e-01  7.35591e-01        00000 
 3.18364e-01  8.08508e-01        00000 
 2.82381e-01  8.07863e-01        00000 
 2.47487e-01  8.07225e-01        00000 
 2.13424e-01  8.06596e-01        00000 
 1.79966e-01  8.05976e-01        00000 
 1.46900e-01  8.05358e-01        00000 
 1.14020e-01  8.04754e-01        00000 
 8.11704e-02  8.04213e-01        00000 
 4.82416e-02  8.03785e-01        00000 
 1.52155e-02  8.03559e-01        00000 
-1.78456e-02  8.03566e-01        00000 
-5.08853e-02  8.03806e-01        00000 
-8.38410e-02  8.04248e-01        00000 
-1.16732e-01  8.04802e-01        00000 
-1.49666e-01  8.05419e-01        00000 
-1.82800e-01  8.06048e-01        00000 
-2.16339e-01  8.06679e-01        00000 
-2.50486e-01  8.07317e-01        00000 
-2.85447e-01  8.07964e-01        00000 
-3.21446e-01  8.08618e-01        00000 
 3.21124e-01  8.81673e-01        00000 
 2.85299e-01  8.81378e-01        00000 
 2.50442e-01  8.81098e-01        00000 
 2.16356e-01  8.80881e-01        00000 
 1.82871e-01  8.80716e-01        00000 
 1.49776e-01  8.80547e-01        00000 
 1.16788e-01  8.80299e-01        00000 
 8.35375e-02  8.79928e-01        00000 
 4.98828e-02  8.79602e-01        00000 
 1.58207e-02  8.79336e-01        00000 
-1.84807e-02  8.79347e-01        00000 
-5.25566e-02  8.79634e-01        00000 
-8.62389e-02  8.79981e-01        00000 
-1.19531e-01  8.80372e-01        00000 
-1.52574e-01  8.80639e-01        00000 
-1.85738e-01  8.80825e-01        00000 
-2.19303e-01  8.81006e-01        00000 
-2.53473e-01  8.81235e-01        00000 
-2.88399e-01  8.81522e-01        00000 
-3.24251e-01  8.81821e-01        00000 
 3.21950e-01  9.53785e-01        00000 
 2.86585e-01  9.53767e-01        00000 
 2.51830e-01  9.53877e-01        00000 
 2.17752e-01  9.54212e-01        00000 
 1.84315e-01  9.54816e-01        00000 
 1.51396e-01  9.55677e-01        00000 
 1.18759e-01  9.56693e-01        00000 
 8.59663e-02  9.57578e-01        00000 
 5.19076e-02  9.57720e-01        00000 
 1.65063e-02  9.58050e-01        00000 
-1.91920e-02  9.58067e-01        00000 
-5.46068e-02  9.57770e-01        00000 
-8.86931e-02  9.57660e-01        00000 
-1.21528e-01  9.56805e-01        00000 
-1.54220e-01  9.55818e-01        00000 
-1.87208e-01  9.54983e-01        00000 
-2.20721e-01  9.54402e-01        00000 
-2.54875e-01  9.54083e-01        00000 
-2.89691e-01  9.53981e-01        00000 
-3.25094e-01  9.53999e-01        00000 
 3.21974e-01  1.02428e+00        00000 
 2.86866e-01  1.02426e+00        00000 
 2.52084e-01  1.02426e+00        00000 
 2.17839e-01  1.02454e+00        00000 
 1.84155e-01  1.02539e+00        00000 
 1.50944e-01  1.02715e+00        00000 
 1.17999e-01  1.03030e+00        00000 
 8.48978e-02  1.03556e+00        00000 
 5.09966e-02  1.04395e+00        00000 
 1.61978e-02  1.04781e+00        00000 
-1.89129e-02  1.04784e+00        00000 
-5.37254e-02  1.04403e+00        00000 
-8.76541e-02  1.03569e+00        00000 
-1.20796e-01  1.03048e+00        00000 
-1.53794e-01  1.02738e+00        00000 
-1.87068e-01  1.02565e+00        00000 
-2.20822e-01  1.02483e+00        00000 
-2.55134e-01  1.02456e+00        00000 
-2.89970e-01  1.02455e+00        00000 
-3.25120e-01  1.02458e+00        00000 
 1.74242e-02  1.07227e-02        00000 
 1.37402e-02  8.49235e-03        00000 
 1.12406e-02  6.91600e-03        00000 
 9.20535e-03  5.81949e-03        00000 
 7.42273e-03  5.04465e-03        00000 
 5.79329e-03  4.49536e-03        00000 
 4.26109e-03  4.11309e-03        00000 
 2.79075e-03  3.86186e-03        00000 
 1.35728e-03  3.72008e-03        00000 
-5.92098e-05  3.67627e-03        00000 
-1.47650e-03  3.72702e-03        00000 
-2.91248e-03  3.87638e-03        00000 
-4.38735e-03  4.13661e-03        00000 
-5.92690e-03  4.53042e-03        00000 
-7.56810e-03  5.09556e-03        00000 
-9.37039e-03  5.89353e-03        00000 
-1.14408e-02  7.02504e-03        00000 
-1.40054e-02  8.65403e-03        00000 
-1.77873e-02  1.09686e-02        00000 
 5.24702e-02  3.38742e-02        00000 
 4.27463e-02  2.87620e-02        00000 
 3.51551e-02  2.50206e-02        00000 
 2.87847e-02  2.22308e-02        00000 
 2.31709e-02  2.01549e-02        00000 
 1.80490e-02  1.86291e-02        00000 
 1.32527e-02  1.75406e-02        00000 
 8.66884e-03  1.68133e-02        00000 
 4.21321e-03  1.63989e-02        00000 
-1.82984e-04  1.62704e-02        00000 
-4.58195e-03  1.64199e-02        00000 
-9.04622e-03  1.68569e-02        00000 
-1.36457e-02  1.76099e-02        00000 
-1.84667e-02  1.87295e-02        00000 
-2.36267e-02  2.02947e-02        00000 
-2.92984e-02  2.24220e-02        00000 
-3.57534e-02  2.52785e-02        00000 
-4.34493e-02  2.90988e-02        00000 
-5.32307e-02  3.42704e-02        00000 
 8.22325e-02  5.79117e-02        00000 
 7.00418e-02  5.33724e-02        00000 
 5.88134e-02  4.93139e-02        00000 
 4.86540e-02  4.59441e-02        00000 
 3.93672e-02  4.32465e-02        00000 
 3.07422e-02  4.11590e-02        00000 
 2.25993e-02  3.96149e-02        00000 
 1.47902e-02  3.85576e-02        00000 
 7.18994e-03  3.79458e-02        00000 
-3.11707e-04  3.77552e-02        00000 
-7.81794e-03  3.79780e-02        00000 
-1.54323e-02  3.86233e-02        00000 
-2.32662e-02  3.97170e-02        00000 
-3.14463e-02  4.13017e-02        00000 
-4.01238e-02  4.34349e-02        00000 
-4.94803e-02  4.61832e-02        00000 
-5.97220e-02  4.96058e-02        00000 
-7.10237e-02  5.37121e-02        00000 
-8.32476e-02  5.82947e-02        00000 
 1.09725e-01  8.67530e-02        00000 
 9.48259e-02  8.25480e-02        00000 
 8.07549e-02  7.87933e-02        00000 
 6.74902e-02  7.55165e-02        00000 
 5.49861e-02  7.27646e-02        00000 
 4.31340e-02  7.05483e-02        00000 
 3.18006e-02  6.88572e-02        00000 
 2.08485e-02  6.76730e-02        00000 
 1.01445e-02  6.69781e-02        00000 
-4.39882e-04  6.67604e-02        00000 
-1.10299e-02  6.70158e-02        00000 
-2.17510e-02  6.77493e-02        00000 
-3.27320e-02  6.89733e-02        00000 
-4.41070e-02  7.07059e-02        00000 
-5.60138e-02  7.29652e-02        00000 
-6.85841e-02  7.57606e-02        00000 
-8.19201e-02  7.90795e-02        00000 
-9.60523e-02  8.28748e-02        00000 
-1.10977e-01  8.71206e-02        00000 
 1.35310e-01  1.21034e-01        00000 
 1.17721e-01  1.17138e-01        00000 
 1.00931e-01  1.13669e-01        00000 
 8.48876e-02  1.10635e-01        00000 
 6.95245e-02  1.08050e-01        00000 
 5.47597e-02  1.05929e-01        00000 
 4.04898e-02  1.04283e-01        00000 
 2.65969e-02  1.03114e-01        00000 
 1.29555e-02  1.02421e-01        00000 
-5.62519e-04  1.02204e-01        00000 
-1.40865e-02  1.02460e-01        00000 
-2.77455e-02  1.03191e-01        00000 
-4.16680e-02  1.04399e-01        00000 
-5.59791e-02  1.06085e-01        00000 
-7.07964e-02  1.08245e-01        00000 
-8.62214e-02  1.10869e-01        00000 
-1.02331e-01  1.13941e-01        00000 
-1.19177e-01  1.17448e-01        00000 
-1.36789e-01  1.21382e-01        00000 
 1.59048e-01  1.60687e-01        00000 
 1.38875e-01  1.57090e-01        00000 