<?xml version="1.0" encoding="utf-8"?>
<VTKFile byte_order="LittleEndian" type="UnstructuredGrid" version="0.1">
   <UnstructuredGrid>
      <Piece NumberOfCells="1444" NumberOfPoints="761">
         <Points>
            <DataArray Name="Points" NumberOfComponents="3" format="ascii" type="Float32">
0.0000 1.0000 0.0000
0.0000 1.0526 0.0000
0.0000 1.1053 0.0000
0.0000 1.1579 0.0000
0.0000 1.2105 0.0000
0.0000 1.2632 0.0000
0.0000 1.3158 0.0000
0.0000 1.3684 0.0000
0.0000 1.4211 0.0000
0.0000 1.4737 0.0000
0.0000 1.5263 0.0000
0.0000 1.5789 0.0000
0.0000 1.6316 0.0000
0.0000 1.6842 0.0000
0.0000 1.7368 0.0000
0.0000 1.7895 0.0000
0.0000 1.8421 0.0000
0.0000 1.8947 0.0000
0.0000 1.9474 0.0000
0.0000 2.0000 0.0000
0.1053 1.0000 0.0000
0.1053 1.0526 0.0000
0.1053 1.1053 0.0000
0.1053 1.1579 0.0000
0.1053 1.2105 0.0000
0.1053 1.2632 0.0000
0.1053 1.3158 0.0000
0.1053 1.3684 0.0000
0.1053 1.4211 0.0000
0.1053 1.4737 0.0000
0.1053 1.5263 0.0000
0.1053 1.5789 0.0000
0.1053 1.6316 0.0000
0.1053 1.6842 0.0000
0.1053 1.7368 0.0000
0.1053 1.7895 0.0000
0.1053 1.8421 0.0000
0.1053 1.8947 0.0000
0.1053 1.9474 0.0000
0.1053 2.0000 0.0000
0.2105 1.0000 0.0000
0.2105 1.0526 0.0000
0.2105 1.1053 0.0000
0.2105 1.1579 0.0000
0.2105 1.2105 0.0000
0.2105 1.2632 0.0000
0.2105 1.3158 0.0000
0.2105 1.3684 0.0000
0.2105 1.4211 0.0000
0.2105 1.4737 0.0000
0.2105 1.5263 0.0000
0.2105 1.5789 0.0000
0.2105 1.6316 0.0000
0.2105 1.6842 0.0000
0.2105 1.7368 0.0000
0.2105 1.7895 0.0000
0.2105 1.8421 0.0000
0.2105 1.8947 0.0000
0.2105 1.9474 0.0000
0.2105 2.0000 0.0000
0.3158 1.0000 0.0000
0.3158 1.0526 0.0000
0.3158 1.1053 0.0000
0.3158 1.1579 0.0000
0.3158 1.2105 0.0000
0.3158 1.2632 0.0000
0.3158 1.3158 0.0000
0.3158 1.3684 0.0000
0.3158 1.4211 0.0000
0.3158 1.4737 0.0000
0.3158 1.5263 0.0000
0.3158 1.5789 0.0000
0.3158 1.6316 0.0000
0.3158 1.6842 0.0000
0.3158 1.7368 0.0000
0.3158 1.7895 0.0000
0.3158 1.8421 0.0000
0.3158 1.8947 0.0000
0.3158 1.9474 0.0000
0.3158 2.0000 0.0000
0.4211 1.0000 0.0000
0.4211 1.0526 0.0000
0.4211 1.1053 0.0000
0.4211 1.1579 0.0000
0.4211 1.2105 0.0000
0.4211 1.2632 0.0000
0.4211 1.3158 0.0000
0.4211 1.3684 0.0000
0.4211 1.4211 0.0000
0.4211 1.4737 0.0000
0.4211 1.5263 0.0000
0.4211 1.5789 0.0000
0.4211 1.6316 0.0000
0.4211 1.6842 0.0000
0.4211 1.7368 0.0000
0.4211 1.7895 0.0000
0.4211 1.8421 0.0000
0.4211 1.8947 0.0000
0.4211 1.9474 0.0000
0.4211 2.0000 0.0000
0.5263 1.0000 0.0000
0.5263 1.0526 0.0000
0.5263 1.1053 0.0000
0.5263 1.1579 0.0000
0.5263 1.2105 0.0000
0.5263 1.2632 0.0000
0.5263 1.3158 0.0000
0.5263 1.3684 0.0000
0.5263 1.4211 0.0000
0.5263 1.4737 0.0000
0.5263 1.5263 0.0000
0.5263 1.5789 0.0000
0.5263 1.6316 0.0000
0.5263 1.6842 0.0000
0.5263 1.7368 0.0000
0.5263 1.7895 0.0000
0.5263 1.8421 0.0000
0.5263 1.8947 0.0000
0.5263 1.9474 0.0000
0.5263 2.0000 0.0000
0.6316 1.0000 0.0000
0.6316 1.0526 0.0000
0.6316 1.1053 0.0000
0.6316 1.1579 0.0000
0.6316 1.2105 0.0000
0.6316 1.2632 0.0000
0.6316 1.3158 0.0000
0.6316 1.3684 0.0000
0.6316 1.4211 0.0000
0.6316 1.4737 0.0000
0.6316 1.5263 0.0000
0.6316 1.5789 0.0000
0.6316 1.6316 0.0000
0.6316 1.6842 0.0000
0.6316 1.7368 0.0000
0.6316 1.7895 0.0000
0.6316 1.8421 0.0000
0.6316 1.8947 0.0000
0.6316 1.9474 0.0000
0.6316 2.0000 0.0000
0.7368 1.0000 0.0000
0.7368 1.0526 0.0000
0.7368 1.1053 0.0000
0.7368 1.1579 0.0000
0.7368 1.2105 0.0000
0.7368 1.2632 0.0000
0.7368 1.3158 0.0000
0.7368 1.3684 0.0000
0.7368 1.4211 0.0000
0.7368 1.4737 0.0000
0.7368 1.5263 0.0000
0.7368 1.5789 0.0000
0.7368 1.6316 0.0000
0.7368 1.6842 0.0000
0.7368 1.7368 0.0000
0.7368 1.7895 0.0000
0.7368 1.8421 0.0000
0.7368 1.8947 0.0000
0.7368 1.9474 0.0000
0.7368 2.0000 0.0000
0.8421 1.0000 0.0000
0.8421 1.0526 0.0000
0.8421 1.1053 0.0000
0.8421 1.1579 0.0000
0.8421 1.2105 0.0000
0.8421 1.2632 0.0000
0.8421 1.3158 0.0000
0.8421 1.3684 0.0000
0.8421 1.4211 0.0000
0.8421 1.4737 0.0000
0.8421 1.5263 0.0000
0.8421 1.5789 0.0000
0.8421 1.6316 0.0000
0.8421 1.6842 0.0000
0.8421 1.7368 0.0000
0.8421 1.7895 0.0000
0.8421 1.8421 0.0000
0.8421 1.8947 0.0000
0.8421 1.9474 0.0000
0.8421 2.0000 0.0000
0.9474 1.0000 0.0000
0.9474 1.0526 0.0000
0.9474 1.1053 0.0000
0.9474 1.1579 0.0000
0.9474 1.2105 0.0000
0.9474 1.2632 0.0000
0.9474 1.3158 0.0000
0.9474 1.3684 0.0000
0.9474 1.4211 0.0000
0.9474 1.4737 0.0000
0.9474 1.5263 0.0000
0.9474 1.5789 0.0000
0.9474 1.6316 0.0000
0.9474 1.6842 0.0000
0.9474 1.7368 0.0000
0.9474 1.7895 0.0000
0.9474 1.8421 0.0000
0.9474 1.8947 0.0000
0.9474 1.9474 0.0000
0.9474 2.0000 0.0000
1.0526 1.0000 0.0000
1.0526 1.0526 0.0000
1.0526 1.1053 0.0000
1.0526 1.1579 0.0000
1.0526 1.2105 0.0000
1.0526 1.2632 0.0000
1.0526 1.3158 0.0000
1.0526 1.3684 0.0000
1.0526 1.4211 0.0000
1.0526 1.4737 0.0000
1.0526 1.5263 0.0000
1.0526 1.5789 0.0000
1.0526 1.6316 0.0000
1.0526 1.6842 0.0000
1.0526 1.7368 0.0000
1.0526 1.7895 0.0000
1.0526 1.8421 0.0000
1.0526 1.8947 0.0000
1.0526 1.9474 0.0000
1.0526 2.0000 0.0000
1.1579 1.0000 0.0000
1.1579 1.0526 0.0000
1.1579 1.1053 0.0000
1.1579 1.1579 0.0000
1.1579 1.2105 0.0000
1.1579 1.2632 0.0000
1.1579 1.3158 0.0000
1.1579 1.3684 0.0000
1.1579 1.4211 0.0000
1.1579 1.4737 0.0000
1.1579 1.5263 0.0000
1.1579 1.5789 0.0000
1.1579 1.6316 0.0000
1.1579 1.6842 0.0000
1.1579 1.7368 0.0000
1.1579 1.7895 0.0000
1.1579 1.8421 0.0000
1.1579 1.8947 0.0000
1.1579 1.9474 0.0000
1.1579 2.0000 0.0000
1.2632 1.0000 0.0000
1.2632 1.0526 0.0000
1.2632 1.1053 0.0000
1.2632 1.1579 0.0000
1.2632 1.2105 0.0000
1.2632 1.2632 0.0000
1.2632 1.3158 0.0000
1.2632 1.3684 0.0000
1.2632 1.4211 0.0000
1.2632 1.4737 0.0000
1.2632 1.5263 0.0000
1.2632 1.5789 0.0000
1.2632 1.6316 0.0000
1.2632 1.6842 0.0000
1.2632 1.7368 0.0000
1.2632 1.7895 0.0000
1.2632 1.8421 0.0000
1.2632 1.8947 0.0000
1.2632 1.9474 0.0000
1.2632 2.0000 0.0000
1.3684 1.0000 0.0000
1.3684 1.0526 0.0000
1.3684 1.1053 0.0000
1.3684 1.1579 0.0000
1.3684 1.2105 0.0000
1.3684 1.2632 0.0000
1.3684 1.3158 0.0000
1.3684 1.3684 0.0000
1.3684 1.4211 0.0000
1.3684 1.4737 0.0000
1.3684 1.5263 0.0000
1.3684 1.5789 0.0000
1.3684 1.6316 0.0000
1.3684 1.6842 0.0000
1.3684 1.7368 0.0000
1.3684 1.7895 0.0000
1.3684 1.8421 0.0000
1.3684 1.8947 0.0000
1.3684 1.9474 0.0000
1.3684 2.0000 0.0000
1.4737 1.0000 0.0000
1.4737 1.0526 0.0000
1.4737 1.1053 0.0000
1.4737 1.1579 0.0000
1.4737 1.2105 0.0000
1.4737 1.2632 0.0000
1.4737 1.3158 0.0000
1.4737 1.3684 0.0000
1.4737 1.4211 0.0000
1.4737 1.4737 0.0000
1.4737 1.5263 0.0000
1.4737 1.5789 0.0000
1.4737 1.6316 0.0000
1.4737 1.6842 0.0000
1.4737 1.7368 0.0000
1.4737 1.7895 0.0000
1.4737 1.8421 0.0000
1.4737 1.8947 0.0000
1.4737 1.9474 0.0000
1.4737 2.0000 0.0000
1.5789 1.0000 0.0000
1.5789 1.0526 0.0000
1.5789 1.1053 0.0000
1.5789 1.1579 0.0000
1.5789 1.2105 0.0000
1.5789 1.2632 0.0000
1.5789 1.3158 0.0000
1.5789 1.3684 0.0000
1.5789 1.4211 0.0000
1.5789 1.4737 0.0000
1.5789 1.5263 0.0000
1.5789 1.5789 0.0000
1.5789 1.6316 0.0000
1.5789 1.6842 0.0000
1.5789 1.7368 0.0000
1.5789 1.7895 0.0000
1.5789 1.8421 0.0000
1.5789 1.8947 0.0000
1.5789 1.9474 0.0000
1.5789 2.0000 0.0000
1.6842 1.0000 0.0000
1.6842 1.0526 0.0000
1.6842 1.1053 0.0000
1.6842 1.1579 0.0000
1.6842 1.2105 0.0000
1.6842 1.2632 0.0000
1.6842 1.3158 0.0000
1.6842 1.3684 0.0000
1.6842 1.4211 0.0000
1.6842 1.4737 0.0000
1.6842 1.5263 0.0000
1.6842 1.5789 0.0000
1.6842 1.6316 0.0000
1.6842 1.6842 0.0000
1.6842 1.7368 0.0000
1.6842 1.7895 0.0000
1.6842 1.8421 0.0000
1.6842 1.8947 0.0000
1.6842 1.9474 0.0000
1.6842 2.0000 0.0000
1.7895 1.0000 0.0000
1.7895 1.0526 0.0000
1.7895 1.1053 0.0000
1.7895 1.1579 0.0000
1.7895 1.2105 0.0000
1.7895 1.2632 0.0000
1.7895 1.3158 0.0000
1.7895 1.3684 0.0000
1.7895 1.4211 0.0000
1.7895 1.4737 0.0000
1.7895 1.5263 0.0000
1.7895 1.5789 0.0000
1.7895 1.6316 0.0000
1.7895 1.6842 0.0000
1.7895 1.7368 0.0000
1.7895 1.7895 0.0000
1.7895 1.8421 0.0000
1.7895 1.8947 0.0000
1.7895 1.9474 0.0000
1.7895 2.0000 0.0000
1.8947 1.0000 0.0000
1.8947 1.0526 0.0000
1.8947 1.1053 0.0000
1.8947 1.1579 0.0000
1.8947 1.2105 0.0000
1.8947 1.2632 0.0000
1.8947 1.3158 0.0000
1.8947 1.3684 0.0000
1.8947 1.4211 0.0000
1.8947 1.4737 0.0000
1.8947 1.5263 0.0000
1.8947 1.5789 0.0000
1.8947 1.6316 0.0000
1.8947 1.6842 0.0000
1.8947 1.7368 0.0000
1.8947 1.7895 0.0000
1.8947 1.8421 0.0000
1.8947 1.8947 0.0000
1.8947 1.9474 0.0000
1.8947 2.0000 0.0000
2.0000 1.0000 0.0000
2.0000 1.0526 0.0000
2.0000 1.1053 0.0000
2.0000 1.1579 0.0000
2.0000 1.2105 0.0000
2.0000 1.2632 0.0000
2.0000 1.3158 0.0000
2.0000 1.3684 0.0000
2.0000 1.4211 0.0000
2.0000 1.4737 0.0000
2.0000 1.5263 0.0000
2.0000 1.5789 0.0000
2.0000 1.6316 0.0000
2.0000 1.6842 0.0000
2.0000 1.7368 0.0000
2.0000 1.7895 0.0000
2.0000 1.8421 0.0000
2.0000 1.8947 0.0000
2.0000 1.9474 0.0000
2.0000 2.0000 0.0000
0.0526 1.0263 0.0000
0.0526 1.0789 0.0000
0.0526 1.1316 0.0000
0.0526 1.1842 0.0000
0.0526 1.2368 0.0000
0.0526 1.2895 0.0000
0.0526 1.3421 0.0000
0.0526 1.3947 0.0000
0.0526 1.4474 0.0000
0.0526 1.5000 0.0000
0.0526 1.5526 0.0000
0.0526 1.6053 0.0000
0.0526 1.6579 0.0000
0.0526 1.7105 0.0000
0.0526 1.7632 0.0000
0.0526 1.8158 0.0000
0.0526 1.8684 0.0000
0.0526 1.9211 0.0000
0.0526 1.9737 0.0000
0.1579 1.0263 0.0000
0.1579 1.0789 0.0000
0.1579 1.1316 0.0000
0.1579 1.1842 0.0000
0.1579 1.2368 0.0000
0.1579 1.2895 0.0000
0.1579 1.3421 0.0000
0.1579 1.3947 0.0000
0.1579 1.4474 0.0000
0.1579 1.5000 0.0000
0.1579 1.5526 0.0000
0.1579 1.6053 0.0000
0.1579 1.6579 0.0000
0.1579 1.7105 0.0000
0.1579 1.7632 0.0000
0.1579 1.8158 0.0000
0.1579 1.8684 0.0000
0.1579 1.9211 0.0000
0.1579 1.9737 0.0000
0.2632 1.0263 0.0000
0.2632 1.0789 0.0000
0.2632 1.1316 0.0000
0.2632 1.1842 0.0000
0.2632 1.2368 0.0000
0.2632 1.2895 0.0000
0.2632 1.3421 0.0000
0.2632 1.3947 0.0000
0.2632 1.4474 0.0000
0.2632 1.5000 0.0000
0.2632 1.5526 0.0000
0.2632 1.6053 0.0000
0.2632 1.6579 0.0000
0.2632 1.7105 0.0000
0.2632 1.7632 0.0000
0.2632 1.8158 0.0000
0.2632 1.8684 0.0000
0.2632 1.9211 0.0000
0.2632 1.9737 0.0000
0.3684 1.0263 0.0000
0.3684 1.0789 0.0000
0.3684 1.1316 0.0000
0.3684 1.1842 0.0000
[...]
         <PointData>
            <DataArray Name="displacement" NumberOfComponents="3" format="ascii" type="Float64">
 4.45502e-18  3.62262e-19        00000 
-7.72825e-18 -1.44905e-18        00000 
 3.33756e-18  7.15191e-19        00000 
-3.78903e-18  1.97689e-18        00000 
 2.86076e-18 -2.50317e-18        00000 
-1.49366e-18  9.75766e-19        00000 
 2.38397e-19 -4.76794e-19        00000 
-5.62551e-19 -4.71757e-19        00000 
-5.95992e-20  7.15191e-19        00000 
 1.80366e-19 -9.61953e-19        00000 
-2.23497e-19  1.31118e-18        00000 
 1.27955e-18 -1.76722e-18        00000 
-1.31118e-18  2.02637e-18        00000 
 3.59055e-18 -2.46680e-18        00000 
-2.02637e-18  1.90717e-18        00000 
 8.16214e-19 -2.02930e-18        00000 
 2.86076e-18  9.53587e-19        00000 
-3.84809e-18  9.62022e-19        00000 
 6.25148e-18 -4.32795e-18        00000 
 9.60084e-19  1.08199e-18        00000 
 4.90189e-02  3.06444e-02        00000 
 3.73719e-02  2.33650e-02        00000 
 3.02025e-02  1.86361e-02        00000 
 2.46508e-02  1.54417e-02        00000 
 1.99698e-02  1.32117e-02        00000 
 1.58143e-02  1.16324e-02        00000 
 1.19913e-02  1.05204e-02        00000 
 8.38163e-03  9.76381e-03        00000 
 4.90482e-03  9.29496e-03        00000 
 1.50028e-03  9.07495e-03        00000 
-1.88305e-03  9.08643e-03        00000 
-5.29364e-03  9.33043e-03        00000 
-8.78336e-03  9.82654e-03        00000 
-1.24147e-02  1.06166e-02        00000 
-1.62720e-02  1.17729e-02        00000 
-2.04823e-02  1.34146e-02        00000 
-2.52537e-02  1.57372e-02        00000 
-3.09564e-02  1.90674e-02        00000 
-3.83488e-02  2.39644e-02        00000 
-5.00756e-02  3.13627e-02        00000 
 8.66450e-02  5.54653e-02        00000 
 7.33109e-02  4.98461e-02        00000 
 6.10574e-02  4.45411e-02        00000 
 5.04546e-02  4.01549e-02        00000 
 4.10857e-02  3.66979e-02        00000 
 3.25972e-02  3.40522e-02        00000 
 2.47271e-02  3.20917e-02        00000 
 1.72813e-02  3.07127e-02        00000 
 1.01106e-02  2.98402e-02        00000 
 3.09281e-03  2.94265e-02        00000 
-3.87954e-03  2.94492e-02        00000 
-1.09100e-02  2.99096e-02        00000 
-1.81075e-02  3.08329e-02        00000 
-2.55967e-02  3.22697e-02        00000 
-3.35318e-02  3.42982e-02        00000 
-4.21145e-02  3.70245e-02        00000 
-5.16137e-02  4.05741e-02        00000 
-6.23752e-02  4.50547e-02        00000 
-7.47508e-02  5.04333e-02        00000 
-8.81042e-02  5.61177e-02        00000 
 1.21041e-01  8.57096e-02        00000 
 1.04817e-01  8.04005e-02        00000 
 8.94876e-02  7.56254e-02        00000 
 7.51190e-02  7.13748e-02        00000 
 6.17602e-02  6.77585e-02        00000 
 4.92837e-02  6.48130e-02        00000 
 3.75127e-02  6.25245e-02        00000 
 2.62686e-02  6.08590e-02        00000 
 1.53851e-02  5.97810e-02        00000 
 4.70865e-03  5.92637e-02        00000 
-5.90543e-03  5.92931e-02        00000 
-1.65992e-02  5.98701e-02        00000 
-2.75183e-02  6.10103e-02        00000 
-3.88177e-02  6.27418e-02        00000 
-5.06659e-02  6.51004e-02        00000 
-6.32428e-02  6.81190e-02        00000 
-7.67211e-02  7.18079e-02        00000 
-9.12098e-02  7.61260e-02        00000 
-1.06626e-01  8.09649e-02        00000 
-1.22857e-01  8.63384e-02        00000 
 1.53188e-01  1.22105e-01        00000 
 1.33824e-01  1.17197e-01        00000 
 1.15355e-01  1.12784e-01        00000 
 9.77602e-02  1.08877e-01        00000 
 8.09980e-02  1.05491e-01        00000 
 6.50083e-02  1.02656e-01        00000 
 4.96835e-02  1.00394e-01        00000 
 3.48860e-02  9.87099e-02        00000 
 2.04657e-02  9.76021e-02        00000 
 6.26799e-03  9.70657e-02        00000 
-7.86186e-03  9.70971e-02        00000 
-2.20786e-02  9.76968e-02        00000 
-3.65371e-02  9.88684e-02        00000 
-5.13919e-02  1.00617e-01        00000 
-6.67931e-02  1.02945e-01        00000 
-8.28764e-02  1.05843e-01        00000 
-9.97442e-02  1.09292e-01        00000 
-1.17444e-01  1.13258e-01        00000 
-1.35987e-01  1.17731e-01        00000 
-1.55350e-01  1.22701e-01        00000 
 1.83058e-01  1.64855e-01        00000 
 1.60623e-01  1.60316e-01        00000 
 1.39122e-01  1.56259e-01        00000 
 1.18477e-01  1.52676e-01        00000 
 9.86195e-02  1.49575e-01        00000 
 7.94689e-02  1.46967e-01        00000 
 6.09288e-02  1.44868e-01        00000 
 4.28818e-02  1.43292e-01        00000 
 2.51938e-02  1.42247e-01        00000 
 7.72084e-03  1.41739e-01        00000 
-9.68620e-03  1.41769e-01        00000 
-2.71779e-02  1.42338e-01        00000 
-4.49031e-02  1.43444e-01        00000 
-6.30053e-02  1.45080e-01        00000 
-8.16174e-02  1.47238e-01        00000 
-1.00855e-01  1.49904e-01        00000 
-1.20811e-01  1.53062e-01        00000 
-1.41554e-01  1.56700e-01        00000 
-1.63124e-01  1.60814e-01        00000 
-1.85553e-01  1.65412e-01        00000 
 2.10627e-01  2.13643e-01        00000 
 1.85300e-01  2.09473e-01        00000 
 1.60939e-01  2.05753e-01        00000 
 1.37441e-01  2.02480e-01        00000 
 1.14715e-01  1.99655e-01        00000 
 9.26676e-02  1.97283e-01        00000 
 7.11973e-02  1.95374e-01        00000 
 5.01897e-02  1.93939e-01        00000 
 2.95190e-02  1.92987e-01        00000 
 9.05035e-03  1.92523e-01        00000 
-1.13564e-02  1.92551e-01        00000 
-3.18430e-02  1.93071e-01        00000 
-5.25492e-02  1.94079e-01        00000 
-7.36090e-02  1.95569e-01        00000 
-9.51477e-02  1.97532e-01        00000 
-1.17278e-01  1.99957e-01        00000 
-1.40099e-01  2.02835e-01        00000 
-1.63691e-01  2.06159e-01        00000 
-1.88117e-01  2.09931e-01        00000 
-2.13435e-01  2.14156e-01        00000 
 2.35902e-01  2.68038e-01        00000 
 2.07905e-01  2.64228e-01        00000 
 1.80894e-01  2.60836e-01        00000 
 1.54756e-01  2.57856e-01        00000 
 1.29385e-01  2.55291e-01        00000 
 1.04680e-01  2.53142e-01        00000 
 8.05334e-02  2.51416e-01        00000 
 5.68305e-02  2.50120e-01        00000 
 3.34485e-02  2.49260e-01        00000 
 1.02582e-02  2.48842e-01        00000 
-1.28735e-02  2.48867e-01        00000 
-3.60809e-02  2.49336e-01        00000 
-5.94969e-02  2.50246e-01        00000 
-8.32499e-02  2.51592e-01        00000 
-1.07462e-01  2.53367e-01        00000 
-1.32248e-01  2.55564e-01        00000 
-1.57710e-01  2.58178e-01        00000 
-1.83940e-01  2.61204e-01        00000 
-2.11014e-01  2.64645e-01        00000 
-2.39001e-01  2.68505e-01        00000 
 2.58924e-01  3.27568e-01        00000 
 2.28488e-01  3.24110e-01        00000 
 1.99052e-01  3.21033e-01        00000 
 1.70495e-01  3.18335e-01        00000 
 1.42706e-01  3.16014e-01        00000 
 1.15576e-01  3.14074e-01        00000 
 8.89942e-02  3.12518e-01        00000 
 6.28446e-02  3.11351e-01        00000 
 3.70058e-02  3.10577e-01        00000 
 1.13519e-02  3.10201e-01        00000 
-1.42456e-02  3.10223e-01        00000 
-3.99161e-02  3.10644e-01        00000 
-6.57880e-02  3.11463e-01        00000 
-9.19866e-02  3.12674e-01        00000 
-1.18633e-01  3.14274e-01        00000 
-1.45842e-01  3.16258e-01        00000 
-1.73721e-01  3.18622e-01        00000 
-2.02368e-01  3.21364e-01        00000 
-2.31865e-01  3.24484e-01        00000 
-2.62290e-01  3.27988e-01        00000 
 2.79746e-01  3.91759e-01        00000 
 2.47101e-01  3.88644e-01        00000 
 2.15467e-01  3.85874e-01        00000 
 1.84718e-01  3.83445e-01        00000 
 1.54737e-01  3.81357e-01        00000 
 1.25411e-01  3.79613e-01        00000 
 9.66271e-02  3.78215e-01        00000 
 6.82682e-02  3.77167e-01        00000 
 4.02134e-02  3.76472e-01        00000 
 1.23388e-02  3.76134e-01        00000 
-1.54810e-02  3.76153e-01        00000 
-4.33720e-02  3.76531e-01        00000 
-7.14596e-02  3.77264e-01        00000 
-9.98671e-02  3.78351e-01        00000 
-1.28715e-01  3.79788e-01        00000 
-1.58119e-01  3.81571e-01        00000 
-1.88190e-01  3.83697e-01        00000 
-2.19028e-01  3.86165e-01        00000 
-2.50723e-01  3.88975e-01        00000 
-2.83355e-01  3.92132e-01        00000 
 2.98420e-01  4.60149e-01        00000 
 2.63793e-01  4.57369e-01        00000 
 2.30186e-01  4.54896e-01        00000 
 1.97470e-01  4.52728e-01        00000 
 1.65523e-01  4.50864e-01        00000 
 1.34228e-01  4.49305e-01        00000 
 1.03470e-01  4.48054e-01        00000 
 7.31312e-02  4.47115e-01        00000 
 4.30901e-02  4.46493e-01        00000 
 1.32252e-02  4.46189e-01        00000 
-1.65865e-02  4.46205e-01        00000 
-4.64680e-02  4.46542e-01        00000 
-7.65420e-02  4.47198e-01        00000 
-1.06930e-01  4.48170e-01        00000 
-1.37752e-01  4.49454e-01        00000 
-1.69126e-01  4.51047e-01        00000 
-2.01164e-01  4.52946e-01        00000 
-2.33970e-01  4.55149e-01        00000 
-2.67637e-01  4.57657e-01        00000 
-3.02250e-01  4.60474e-01        00000 
 3.14992e-01  5.32290e-01        00000 
 2.78606e-01  5.29839e-01        00000 
 2.43249e-01  5.27657e-01        00000 
 2.08791e-01  5.25741e-01        00000 
 1.75104e-01  5.24088e-01        00000 
 1.42066e-01  5.22703e-01        00000 
 1.09558e-01  5.21588e-01        00000 
 7.74610e-02  5.20748e-01        00000 
 4.56538e-02  5.20190e-01        00000 
 1.40172e-02  5.19916e-01        00000 
-1.75684e-02  5.19930e-01        00000 
-4.92221e-02  5.20231e-01        00000 
-8.10630e-02  5.20817e-01        00000 
-1.13211e-01  5.21684e-01        00000 
-1.45784e-01  5.22827e-01        00000 
-1.78903e-01  5.24241e-01        00000 
-2.12683e-01  5.25923e-01        00000 
-2.47232e-01  5.27870e-01        00000 
-2.82649e-01  5.30084e-01        00000 
-3.19023e-01  5.32569e-01        00000 
 3.29492e-01  6.07748e-01        00000 
 2.91565e-01  6.05622e-01        00000 
 2.54687e-01  6.03725e-01        00000 
 2.18719e-01  6.02051e-01        00000 
 1.83522e-01  6.00598e-01        00000 
 1.48968e-01  5.99370e-01        00000 
 1.14931e-01  5.98375e-01        00000 
 8.12900e-02  5.97620e-01        00000 
 4.79256e-02  5.97114e-01        00000 
 1.47220e-02  5.96865e-01        00000 
-1.84342e-02  5.96876e-01        00000 
-5.16554e-02  5.97147e-01        00000 
-8.50548e-02  5.97675e-01        00000 
-1.18748e-01  5.98452e-01        00000 
-1.52853e-01  5.99470e-01        00000 
-1.87492e-01  6.00722e-01        00000 
-2.22784e-01  6.02200e-01        00000 
-2.58848e-01  6.03900e-01        00000 
-2.95790e-01  6.05826e-01        00000 
-3.33705e-01  6.07982e-01        00000 
 3.41920e-01  6.86093e-01        00000 
 3.02680e-01  6.84294e-01        00000 
 2.64522e-01  6.82678e-01        00000 
 2.27289e-01  6.81234e-01        00000 
 1.90825e-01  6.79963e-01        00000 
 1.54988e-01  6.78872e-01        00000 
 1.19643e-01  6.77973e-01        00000 
 8.46638e-02  6.77282e-01        00000 
 4.99357e-02  6.76814e-01        00000 
 1.53501e-02  6.76581e-01        00000 
-1.91947e-02  6.76590e-01        00000 
-5.37986e-02  6.76840e-01        00000 
-8.85633e-02  6.77326e-01        00000 
-1.23597e-01  6.78035e-01        00000 
-1.59014e-01  6.78952e-01        00000 
-1.94940e-01  6.80062e-01        00000 
-2.31506e-01  6.81354e-01        00000 
-2.68841e-01  6.82819e-01        00000 
-3.07067e-01  6.84460e-01        00000 
-3.46300e-01  6.86287e-01        00000 
 3.52228e-01  7.66880e-01        00000 
 3.11928e-01  7.65416e-01        00000 
 2.72765e-01  7.64080e-01        00000 
 2.34544e-01  7.62858e-01        00000 
 1.97081e-01  7.61750e-01        00000 
 1.60207e-01  7.60770e-01        00000 
 1.23774e-01  7.59940e-01        00000 
 8.76526e-02  7.59286e-01        00000 
 5.17314e-02  7.58834e-01        00000 
 1.59178e-02  7.58606e-01        00000 
-1.98674e-02  7.58614e-01        00000 
-5.57001e-02  7.58857e-01        00000 
-9.16595e-02  7.59324e-01        00000 
-1.27838e-01  7.59993e-01        00000 
-1.64347e-01  7.60838e-01        00000 
-2.01315e-01  7.61834e-01        00000 
-2.38888e-01  7.62958e-01        00000 
-2.77219e-01  7.64198e-01        00000 
-3.16461e-01  7.65555e-01        00000 
-3.56760e-01  7.67043e-01        00000 
 3.60298e-01  8.49590e-01        00000 
 3.19253e-01  8.48482e-01        00000 
 2.79413e-01  8.47437e-01        00000 
 2.40528e-01  8.46441e-01        00000 
 2.02368e-01  8.45497e-01        00000 
 1.64731e-01  8.44621e-01        00000 
 1.27444e-01  8.43843e-01        00000 
 9.03637e-02  8.43201e-01        00000 
 5.33881e-02  8.42743e-01        00000 
 1.64523e-02  8.42506e-01        00000 
-2.04823e-02  8.42514e-01        00000 
-5.74378e-02  8.42768e-01        00000 
-9.44530e-02  8.43241e-01        00000 
-1.31592e-01  8.43898e-01        00000 
-1.68959e-01  8.44691e-01        00000 
-2.06695e-01  8.45581e-01        00000 
-2.44972e-01  8.46539e-01        00000 
-2.83978e-01  8.47550e-01        00000 
-3.23909e-01  8.48612e-01        00000 
-3.64963e-01  8.49741e-01        00000 
 3.65940e-01  9.33516e-01        00000 
 3.24570e-01  9.32792e-01        00000 
 2.84436e-01  9.32074e-01        00000 
 2.45242e-01  9.31367e-01        00000 
 2.06729e-01  9.30669e-01        00000 
 1.68656e-01  9.29975e-01        00000 
 1.30791e-01  9.29296e-01        00000 
 9.29579e-02  9.28688e-01        00000 
 5.50331e-02  9.28208e-01        00000 
 1.69952e-02  9.27956e-01        00000 
-2.10850e-02  9.27966e-01        00000 
-5.91432e-02  9.28240e-01        00000 
-9.71087e-02  9.28741e-01        00000 
-1.35003e-01  9.29369e-01        00000 
-1.72949e-01  9.30067e-01        00000 
-2.11125e-01  9.30780e-01        00000 
-2.49759e-01  9.31493e-01        00000 
-2.89083e-01  9.32214e-01        00000 
-3.29319e-01  9.32944e-01        00000 
-3.70713e-01  9.33683e-01        00000 
 3.69039e-01  1.01760e+00        00000 
 3.27850e-01  1.01727e+00        00000 
 2.87759e-01  1.01696e+00        00000 
 2.48539e-01  1.01672e+00        00000 
 2.09994e-01  1.01653e+00        00000 
 1.71889e-01  1.01635e+00        00000 
 1.33903e-01  1.01607e+00        00000 
 9.56203e-02  1.01565e+00        00000 
 5.68783e-02  1.01529e+00        00000 
 1.76725e-02  1.01499e+00        00000 
-2.18072e-02  1.01501e+00        00000 
-6.10339e-02  1.01534e+00        00000 
-9.98176e-02  1.01573e+00        00000 
-1.38163e-01  1.01618e+00        00000 
-1.76232e-01  1.01649e+00        00000 
-2.14440e-01  1.01670e+00        00000 
-2.53105e-01  1.01691e+00        00000 
-2.92452e-01  1.01717e+00        00000 
-3.32649e-01  1.01749e+00        00000 
-3.73881e-01  1.01783e+00        00000 
 3.69967e-01  1.10050e+00        00000 
 3.29297e-01  1.10048e+00        00000 
 2.89320e-01  1.10061e+00        00000 
 2.50107e-01  1.10099e+00        00000 
 2.11616e-01  1.10167e+00        00000 
 1.73707e-01  1.10265e+00        00000 
 1.36117e-01  1.10380e+00        00000 
 9.83544e-02  1.10480e+00        00000 
 5.91609e-02  1.10497e+00        00000 
 1.84427e-02  1.10535e+00        00000 
-2.26162e-02  1.10537e+00        00000 
-6.33549e-02  1.10504e+00        00000 
-1.02590e-01  1.10493e+00        00000 
-1.40417e-01  1.10397e+00        00000 
-1.78090e-01  1.10286e+00        00000 
-2.16100e-01  1.10192e+00        00000 
-2.54706e-01  1.10127e+00        00000 
-2.94034e-01  1.10092e+00        00000 
-3.34106e-01  1.10081e+00        00000 
-3.74833e-01  1.10083e+00        00000 
 3.69994e-01  1.18158e+00        00000 
 3.29615e-01  1.18155e+00        00000 
 2.89605e-01  1.18156e+00        00000 
 2.50201e-01  1.18187e+00        00000 
 2.11430e-01  1.18283e+00        00000 
 1.73191e-01  1.18483e+00        00000 
 1.35249e-01  1.18839e+00        00000 
 9.71336e-02  1.19435e+00        00000 
 5.81227e-02  1.20389e+00        00000 
 1.80895e-02  1.20827e+00        00000 
-2.23074e-02  1.20831e+00        00000 
-6.23615e-02  1.20400e+00        00000 
-1.01414e-01  1.19455e+00        00000 
-1.39591e-01  1.18867e+00        00000 
-1.77612e-01  1.18517e+00        00000 
-2.15946e-01  1.18323e+00        00000 
-2.54822e-01  1.18231e+00        00000 
-2.94327e-01  1.18200e+00        00000 
-3.34419e-01  1.18200e+00        00000 
-3.74862e-01  1.18203e+00        00000 
 2.07031e-02  1.26094e-02        00000 
 1.63191e-02  9.98341e-03        00000 
 1.33055e-02  8.11928e-03        00000 
 1.08605e-02  6.82061e-03        00000 
 8.73350e-03  5.90193e-03        00000 
 6.80036e-03  5.25021e-03        00000 
 4.99003e-03  4.79655e-03        00000 
 3.25754e-03  4.49858e-03        00000 
 1.57119e-03  4.33091e-03        00000 
-9.41068e-05  4.28011e-03        00000 
-1.76078e-03  4.34225e-03        00000 
-3.45143e-03  4.52228e-03        00000 
-5.19174e-03  4.83485e-03        00000 
-7.01467e-03  5.30708e-03        00000 
-8.96789e-03  5.98409e-03        00000 
-1.11283e-02  6.93944e-03        00000 
-1.36333e-02  8.29377e-03        00000 
-1.67602e-02  1.02433e-02        00000 
-2.13232e-02  1.30143e-02        00000 
 6.19765e-02  3.97029e-02        00000 
 5.04972e-02  3.37121e-02        00000 
 4.14688e-02  2.93129e-02        00000 
 3.38891e-02  2.60225e-02        00000 
 2.72275e-02  2.35698e-02        00000 
 2.11689e-02  2.17656e-02        00000 
 1.55111e-02  2.04783e-02        00000 
 1.01147e-02  1.96190e-02        00000 
 4.87574e-03  1.91309e-02        00000 
-2.90804e-04  1.89827e-02        00000 
-5.46201e-03  1.91651e-02        00000 
-1.07155e-02  1.96900e-02        00000 
-1.61380e-02  2.05910e-02        00000 
-2.18372e-02  2.19285e-02        00000 
-2.79590e-02  2.37960e-02        00000 
-3.47169e-02  2.63309e-02        00000 
-4.24391e-02  2.97282e-02        00000 
-5.16490e-02  3.42552e-02        00000 
-6.32346e-02  4.03398e-02        00000 
 9.65619e-02  6.76332e-02        00000 
 8.23029e-02  6.23678e-02        00000 
 6.90951e-02  5.76366e-02        00000 
 5.71135e-02  5.36921e-02        00000 
 4.61592e-02  5.05258e-02        00000 
 3.59963e-02  4.80717e-02        00000 
 2.64146e-02  4.62555e-02        00000 
 1.72368e-02  4.50127e-02        00000 
 8.31162e-03  4.42962e-02        00000 
-4.94985e-04  4.40776e-02        00000 
-9.30921e-03  4.43485e-02        00000 
-1.82577e-02  4.51196e-02        00000 
-2.74764e-02  4.64213e-02        00000 
-3.71194e-02  4.83030e-02        00000 
-4.73682e-02  5.08305e-02        00000 
-5.84361e-02  5.40779e-02        00000 
-7.05527e-02  5.81062e-02        00000 
-8.38832e-02  6.29116e-02        00000 
-9.82018e-02  6.82429e-02        00000 
 1.28317e-01  1.01112e-01        00000 
 1.10962e-01  9.62611e-02        00000 
 9.45135e-02  9.19182e-02        00000 
 7.89689e-02  8.81148e-02        00000 
 6.42978e-02  8.49107e-02        00000 
 5.03891e-02  8.23245e-02        00000 
 3.70938e-02  8.03490e-02        00000 
 2.42523e-02  7.89662e-02        00000 
 1.17065e-02  7.81573e-02        00000 
-6.97449e-04  7.79094e-02        00000 
-1.31106e-02  7.82183e-02        00000 
-2.56842e-02  7.90894e-02        00000 
-3.85728e-02  8.05365e-02        00000 
-5.19354e-02  8.25786e-02        00000 
-6.59317e-02  8.52333e-02        00000 
-8.07082e-02  8.85059e-02        00000 
-9.63663e-02  9.23750e-02        00000 
-1.12913e-01  9.67803e-02        00000 
-1.30313e-01  1.01693e-01        00000 
 1.57760e-01  1.40882e-01        00000 
 1.37312e-01  1.36406e-01        00000 
 1.17751e-01  1.32415e-01        00000 
 9.90254e-02  1.28917e-01        00000 
 8.10719e-02  1.25930e-01        00000 
 6.38070e-02  1.23475e-01        00000 
 4.71180e-02  1.21566e-01        00000 
 3.08704e-02  1.20212e-01        00000 
 1.49183e-02  1.19412e-01        00000 
-8.90005e-04  1.19166e-01        00000 
-1.67078e-02  1.19474e-01        00000 
-3.26884e-02  1.20336e-01        00000 
-4.89832e-02  1.21753e-01        00000 
-6.57377e-02  1.23724e-01        00000 
-8.30850e-02  1.26241e-01        00000 
-1.01135e-01  1.29289e-01        00000 
-1.19964e-01  1.32845e-01        00000 
-1.39615e-01  1.36894e-01        00000 
-1.60099e-01  1.41429e-01        00000 
 1.84983e-01  1.86850e-01        00000 
 1.61569e-01  1.82731e-01        00000 