<?xml version="1.0" encoding="utf-8"?>
<VTKFile byte_order="LittleEndian" type="UnstructuredGrid" version="0.1">
   <UnstructuredGrid>
      <Piece NumberOfCells="1444" NumberOfPoints="761">
         <Points>
            <DataArray Name="Points" NumberOfComponents="3" format="ascii" type="Float32">
0.0000 1.0000 0.0000
0.0000 1.0526 0.0000
0.0000 1.1053 0.0000
0.0000 1.1579 0.0000
0.0000 1.2105 0.0000
0.0000 1.2632 0.0000
0.0000 1.3158 0.0000
0.0000 1.3684 0.0000
0.0000 1.4211 0.0000
0.0000 1.4737 0.0000
0.0000 1.5263 0.0000
0.0000 1.5789 0.0000
0.0000 1.6316 0.0000
0.0000 1.6842 0.0000
0.0000 1.7368 0.0000
0.0000 1.7895 0.0000
0.0000 1.8421 0.0000
0.0000 1.8947 0.0000
0.0000 1.9474 0.0000
0.0000 2.0000 0.0000
0.1053 1.0000 0.0000
0.1053 1.0526 0.0000
0.1053 1.1053 0.0000
0.1053 1.1579 0.0000
0.1053 1.2105 0.0000
0.1053 1.2632 0.0000
0.1053 1.3158 0.0000
0.1053 1.3684 0.0000
0.1053 1.4211 0.0000
0.1053 1.4737 0.0000
0.1053 1.5263 0.0000
0.1053 1.5789 0.0000
0.1053 1.6316 0.0000
0.1053 1.6842 0.0000
0.1053 1.7368 0.0000
0.1053 1.7895 0.0000
0.1053 1.8421 0.0000
0.1053 1.8947 0.0000
0.1053 1.9474 0.0000
0.1053 2.0000 0.0000
0.2105 1.0000 0.0000
0.2105 1.0526 0.0000
0.2105 1.1053 0.0000
0.2105 1.1579 0.0000
0.2105 1.2105 0.0000
0.2105 1.2632 0.0000
0.2105 1.3158 0.0000
0.2105 1.3684 0.0000
0.2105 1.4211 0.0000
0.2105 1.4737 0.0000
0.2105 1.5263 0.0000
0.2105 1.5789 0.0000
0.2105 1.6316 0.0000
0.2105 1.6842 0.0000
0.2105 1.7368 0.0000
0.2105 1.7895 0.0000
0.2105 1.8421 0.0000
0.2105 1.8947 0.0000
0.2105 1.9474 0.0000
0.2105 2.0000 0.0000
0.3158 1.0000 0.0000
0.3158 1.0526 0.0000
0.3158 1.1053 0.0000
0.3158 1.1579 0.0000
0.3158 1.2105 0.0000
0.3158 1.2632 0.0000
0.3158 1.3158 0.0000
0.3158 1.3684 0.0000
0.3158 1.4211 0.0000
0.3158 1.4737 0.0000
0.3158 1.5263 0.0000
0.3158 1.5789 0.0000
0.3158 1.6316 0.0000
0.3158 1.6842 0.0000
0.3158 1.7368 0.0000
0.3158 1.7895 0.0000
0.3158 1.8421 0.0000
0.3158 1.8947 0.0000
0.3158 1.9474 0.0000
0.3158 2.0000 0.0000
0.4211 1.0000 0.0000
0.4211 1.0526 0.0000
0.4211 1.1053 0.0000
0.4211 1.1579 0.0000
0.4211 1.2105 0.0000
0.4211 1.2632 0.0000
0.4211 1.3158 0.0000
0.4211 1.3684 0.0000
0.4211 1.4211 0.0000
0.4211 1.4737 0.0000
0.4211 1.5263 0.0000
0.4211 1.5789 0.0000
0.4211 1.6316 0.0000
0.4211 1.6842 0.0000
0.4211 1.7368 0.0000
0.4211 1.7895 0.0000
0.4211 1.8421 0.0000
0.4211 1.8947 0.0000
0.4211 1.9474 0.0000
0.4211 2.0000 0.0000
0.5263 1.0000 0.0000
0.5263 1.0526 0.0000
0.5263 1.1053 0.0000
0.5263 1.1579 0.0000
0.5263 1.2105 0.0000
0.5263 1.2632 0.0000
0.5263 1.3158 0.0000
0.5263 1.3684 0.0000
0.5263 1.4211 0.0000
0.5263 1.4737 0.0000
0.5263 1.5263 0.0000
0.5263 1.5789 0.0000
0.5263 1.6316 0.0000
0.5263 1.6842 0.0000
0.5263 1.7368 0.0000
0.5263 1.7895 0.0000
0.5263 1.8421 0.0000
0.5263 1.8947 0.0000
0.5263 1.9474 0.0000
0.5263 2.0000 0.0000
0.6316 1.0000 0.0000
0.6316 1.0526 0.0000
0.6316 1.1053 0.0000
0.6316 1.1579 0.0000
0.6316 1.2105 0.0000
0.6316 1.2632 0.0000
0.6316 1.3158 0.0000
0.6316 1.3684 0.0000
0.6316 1.4211 0.0000
0.6316 1.4737 0.0000
0.6316 1.5263 0.0000
0.6316 1.5789 0.0000
0.6316 1.6316 0.0000
0.6316 1.6842 0.0000
0.6316 1.7368 0.0000
0.6316 1.7895 0.0000
0.6316 1.8421 0.0000
0.6316 1.8947 0.0000
0.6316 1.9474 0.0000
0.6316 2.0000 0.0000
0.7368 1.0000 0.0000
0.7368 1.0526 0.0000
0.7368 1.1053 0.0000
0.7368 1.1579 0.0000
0.7368 1.2105 0.0000
0.7368 1.2632 0.0000
0.7368 1.3158 0.0000
0.7368 1.3684 0.0000
0.7368 1.4211 0.0000
0.7368 1.4737 0.0000
0.7368 1.5263 0.0000
0.7368 1.5789 0.0000
0.7368 1.6316 0.0000
0.7368 1.6842 0.0000
0.7368 1.7368 0.0000
0.7368 1.7895 0.0000
0.7368 1.8421 0.0000
0.7368 1.8947 0.0000
0.7368 1.9474 0.0000
0.7368 2.0000 0.0000
0.8421 1.0000 0.0000
0.8421 1.0526 0.0000
0.8421 1.1053 0.0000
0.8421 1.1579 0.0000
0.8421 1.2105 0.0000
0.8421 1.2632 0.0000
0.8421 1.3158 0.0000
0.8421 1.3684 0.0000
0.8421 1.4211 0.0000
0.8421 1.4737 0.0000
0.8421 1.5263 0.0000
0.8421 1.5789 0.0000
0.8421 1.6316 0.0000
0.8421 1.6842 0.0000
0.8421 1.7368 0.0000
0.8421 1.7895 0.0000
0.8421 1.8421 0.0000
0.8421 1.8947 0.0000
0.8421 1.9474 0.0000
0.8421 2.0000 0.0000
0.9474 1.0000 0.0000
0.9474 1.0526 0.0000
0.9474 1.1053 0.0000
0.9474 1.1579 0.0000
0.9474 1.2105 0.0000
0.9474 1.2632 0.0000
0.9474 1.3158 0.0000
0.9474 1.3684 0.0000
0.9474 1.4211 0.0000
0.9474 1.4737 0.0000
0.9474 1.5263 0.0000
0.9474 1.5789 0.0000
0.9474 1.6316 0.0000
0.9474 1.6842 0.0000
0.9474 1.7368 0.0000
0.9474 1.7895 0.0000
0.9474 1.8421 0.0000
0.9474 1.8947 0.0000
0.9474 1.9474 0.0000
0.9474 2.0000 0.0000
1.0526 1.0000 0.0000
1.0526 1.0526 0.0000
1.0526 1.1053 0.0000
1.0526 1.1579 0.0000
1.0526 1.2105 0.0000
1.0526 1.2632 0.0000
1.0526 1.3158 0.0000
1.0526 1.3684 0.0000
1.0526 1.4211 0.0000
1.0526 1.4737 0.0000
1.0526 1.5263 0.0000
1.0526 1.5789 0.0000
1.0526 1.6316 0.0000
1.0526 1.6842 0.0000
1.0526 1.7368 0.0000
1.0526 1.7895 0.0000
1.0526 1.8421 0.0000
1.0526 1.8947 0.0000
1.0526 1.9474 0.0000
1.0526 2.0000 0.0000
1.1579 1.0000 0.0000
1.1579 1.0526 0.0000
1.1579 1.1053 0.0000
1.1579 1.1579 0.0000
1.1579 1.2105 0.0000
1.1579 1.2632 0.0000
1.1579 1.3158 0.0000
1.1579 1.3684 0.0000
1.1579 1.4211 0.0000
1.1579 1.4737 0.0000
1.1579 1.5263 0.0000
1.1579 1.5789 0.0000
1.1579 1.6316 0.0000
1.1579 1.6842 0.0000
1.1579 1.7368 0.0000
1.1579 1.7895 0.0000
1.1579 1.8421 0.0000
1.1579 1.8947 0.0000
1.1579 1.9474 0.0000
1.1579 2.0000 0.0000
1.2632 1.0000 0.0000
1.2632 1.0526 0.0000
1.2632 1.1053 0.0000
1.2632 1.1579 0.0000
1.2632 1.2105 0.0000
1.2632 1.2632 0.0000
1.2632 1.3158 0.0000
1.2632 1.3684 0.0000
1.2632 1.4211 0.0000
1.2632 1.4737 0.0000
1.2632 1.5263 0.0000
1.2632 1.5789 0.0000
1.2632 1.6316 0.0000
1.2632 1.6842 0.0000
1.2632 1.7368 0.0000
1.2632 1.7895 0.0000
1.2632 1.8421 0.0000
1.2632 1.8947 0.0000
1.2632 1.9474 0.0000
1.2632 2.0000 0.0000
1.3684 1.0000 0.0000
1.3684 1.0526 0.0000
1.3684 1.1053 0.0000
1.3684 1.1579 0.0000
1.3684 1.2105 0.0000
1.3684 1.2632 0.0000
1.3684 1.3158 0.0000
1.3684 1.3684 0.0000
1.3684 1.4211 0.0000
1.3684 1.4737 0.0000
1.3684 1.5263 0.0000
1.3684 1.5789 0.0000
1.3684 1.6316 0.0000
1.3684 1.6842 0.0000
1.3684 1.7368 0.0000
1.3684 1.7895 0.0000
1.3684 1.8421 0.0000
1.3684 1.8947 0.0000
1.3684 1.9474 0.0000
1.3684 2.0000 0.0000
1.4737 1.0000 0.0000
1.4737 1.0526 0.0000
1.4737 1.1053 0.0000
1.4737 1.1579 0.0000
1.4737 1.2105 0.0000
1.4737 1.2632 0.0000
1.4737 1.3158 0.0000
1.4737 1.3684 0.0000
1.4737 1.4211 0.0000
1.4737 1.4737 0.0000
1.4737 1.5263 0.0000
1.4737 1.5789 0.0000
1.4737 1.6316 0.0000
1.4737 1.6842 0.0000
1.4737 1.7368 0.0000
1.4737 1.7895 0.0000
1.4737 1.8421 0.0000
1.4737 1.8947 0.0000
1.4737 1.9474 0.0000
1.4737 2.0000 0.0000
1.5789 1.0000 0.0000
1.5789 1.0526 0.0000
1.5789 1.1053 0.0000
1.5789 1.1579 0.0000
1.5789 1.2105 0.0000
1.5789 1.2632 0.0000
1.5789 1.3158 0.0000
1.5789 1.3684 0.0000
1.5789 1.4211 0.0000
1.5789 1.4737 0.0000
1.5789 1.5263 0.0000
1.5789 1.5789 0.0000
1.5789 1.6316 0.0000
1.5789 1.6842 0.0000
1.5789 1.7368 0.0000
1.5789 1.7895 0.0000
1.5789 1.8421 0.0000
1.5789 1.8947 0.0000
1.5789 1.9474 0.0000
1.5789 2.0000 0.0000
1.6842 1.0000 0.0000
1.6842 1.0526 0.0000
1.6842 1.1053 0.0000
1.6842 1.1579 0.0000
1.6842 1.2105 0.0000
1.6842 1.2632 0.0000
1.6842 1.3158 0.0000
1.6842 1.3684 0.0000
1.6842 1.4211 0.0000
1.6842 1.4737 0.0000
1.6842 1.5263 0.0000
1.6842 1.5789 0.0000
1.6842 1.6316 0.0000
1.6842 1.6842 0.0000
1.6842 1.7368 0.0000
1.6842 1.7895 0.0000
1.6842 1.8421 0.0000
1.6842 1.8947 0.0000
1.6842 1.9474 0.0000
1.6842 2.0000 0.0000
1.7895 1.0000 0.0000
1.7895 1.0526 0.0000
1.7895 1.1053 0.0000
1.7895 1.1579 0.0000
1.7895 1.2105 0.0000
1.7895 1.2632 0.0000
1.7895 1.3158 0.0000
1.7895 1.3684 0.0000
1.7895 1.4211 0.0000
1.7895 1.4737 0.0000
1.7895 1.5263 0.0000
1.7895 1.5789 0.0000
1.7895 1.6316 0.0000
1.7895 1.6842 0.0000
1.7895 1.7368 0.0000
1.7895 1.7895 0.0000
1.7895 1.8421 0.0000
1.7895 1.8947 0.0000
1.7895 1.9474 0.0000
1.7895 2.0000 0.0000
1.8947 1.0000 0.0000
1.8947 1.0526 0.0000
1.8947 1.1053 0.0000
1.8947 1.1579 0.0000
1.8947 1.2105 0.0000
1.8947 1.2632 0.0000
1.8947 1.3158 0.0000
1.8947 1.3684 0.0000
1.8947 1.4211 0.0000
1.8947 1.4737 0.0000
1.8947 1.5263 0.0000
1.8947 1.5789 0.0000
1.8947 1.6316 0.0000
1.8947 1.6842 0.0000
1.8947 1.7368 0.0000
1.8947 1.7895 0.0000
1.8947 1.8421 0.0000
1.8947 1.8947 0.0000
1.8947 1.9474 0.0000
1.8947 2.0000 0.0000
2.0000 1.0000 0.0000
2.0000 1.0526 0.0000
2.0000 1.1053 0.0000
2.0000 1.1579 0.0000
2.0000 1.2105 0.0000
2.0000 1.2632 0.0000
2.0000 1.3158 0.0000
2.0000 1.3684 0.0000
2.0000 1.4211 0.0000
2.0000 1.4737 0.0000
2.0000 1.5263 0.0000
2.0000 1.5789 0.0000
2.0000 1.6316 0.0000
2.0000 1.6842 0.0000
2.0000 1.7368 0.0000
2.0000 1.7895 0.0000
2.0000 1.8421 0.0000
2.0000 1.8947 0.0000
2.0000 1.9474 0.0000
2.0000 2.0000 0.0000
0.0526 1.0263 0.0000
0.0526 1.0789 0.0000
0.0526 1.1316 0.0000
0.0526 1.1842 0.0000
0.0526 1.2368 0.0000
0.0526 1.2895 0.0000
0.0526 1.3421 0.0000
0.0526 1.3947 0.0000
0.0526 1.4474 0.0000
0.0526 1.5000 0.0000
0.0526 1.5526 0.0000
0.0526 1.6053 0.0000
0.0526 1.6579 0.0000
0.0526 1.7105 0.0000
0.0526 1.7632 0.0000
0.0526 1.8158 0.0000
0.0526 1.8684 0.0000
0.0526 1.9211 0.0000
0.0526 1.9737 0.0000
0.1579 1.0263 0.0000
0.1579 1.0789 0.0000
0.1579 1.1316 0.0000
0.1579 1.1842 0.0000
0.1579 1.2368 0.0000
0.1579 1.2895 0.0000
0.1579 1.3421 0.0000
0.1579 1.3947 0.0000
0.1579 1.4474 0.0000
0.1579 1.5000 0.0000
0.1579 1.5526 0.0000
0.1579 1.6053 0.0000
0.1579 1.6579 0.0000
0.1579 1.7105 0.0000
0.1579 1.7632 0.0000
0.1579 1.8158 0.0000
0.1579 1.8684 0.0000
0.1579 1.9211 0.0000
0.1579 1.9737 0.0000
0.2632 1.0263 0.0000
0.2632 1.0789 0.0000
0.2632 1.1316 0.0000
0.2632 1.1842 0.0000
0.2632 1.2368 0.0000
0.2632 1.2895 0.0000
0.2632 1.3421 0.0000
0.2632 1.3947 0.0000
0.2632 1.4474 0.0000
0.2632 1.5000 0.0000
0.2632 1.5526 0.0000
0.2632 1.6053 0.0000
0.2632 1.6579 0.0000
0.2632 1.7105 0.0000
0.2632 1.7632 0.0000
0.2632 1.8158 0.0000
0.2632 1.8684 0.0000
0.2632 1.9211 0.0000
0.2632 1.9737 0.0000
0.3684 1.0263 0.0000
0.3684 1.0789 0.0000
0.3684 1.1316 0.0000
0.3684 1.1842 0.0000
[...]
         <PointData>
            <DataArray Name="displacement" NumberOfComponents="3" format="ascii" type="Float64">
-8.45278e-19  2.32834e-18        00000 
 3.38111e-18 -4.83016e-19        00000 
-8.34389e-19 -5.95992e-19        00000 
 7.18868e-19  7.78773e-19        00000 
 3.57595e-19 -5.36393e-19        00000 
-9.14840e-20 -1.29091e-19        00000 
-4.17194e-19 -5.36393e-19        00000 
 5.79868e-19  4.97966e-19        00000 
-4.24644e-19 -2.08597e-19        00000 
 6.01221e-20  1.20244e-19        00000 
 7.44990e-21 -2.08597e-19        00000 
 3.68326e-19  3.18249e-19        00000 
-1.78798e-19  5.95992e-19        00000 
-2.54469e-19 -3.94258e-20        00000 
-5.95992e-20  1.78798e-19        00000 
 8.31191e-19  6.43986e-19        00000 
 1.07279e-18 -2.38397e-19        00000 
-1.68354e-18  4.81011e-19        00000 
 2.16398e-18  1.20221e-19        00000 
-5.58690e-18  2.85314e-19        00000 
-1.72982e-02 -1.10391e-02        00000 
-1.31172e-02 -8.42483e-03        00000 
-1.06546e-02 -6.73720e-03        00000 
-8.76652e-03 -5.60848e-03        00000 
-7.15635e-03 -4.82736e-03        00000 
-5.70554e-03 -4.27748e-03        00000 
-4.35434e-03 -3.89154e-03        00000 
-3.06739e-03 -3.62917e-03        00000 
-1.82085e-03 -3.46594e-03        00000 
-5.96669e-04 -3.38786e-03        00000 
 6.20488e-04 -3.38856e-03        00000 
 1.84513e-03 -3.46815e-03        00000 
 3.09259e-03 -3.63319e-03        00000 
 4.38099e-03 -3.89794e-03        00000 
 5.73422e-03 -4.28700e-03        00000 
 7.18768e-03 -4.84095e-03        00000 
 8.80111e-03 -5.62710e-03        00000 
 1.06929e-02 -6.76157e-03        00000 
 1.31593e-02 -8.45512e-03        00000 
 1.73452e-02 -1.10755e-02        00000 
-3.11599e-02 -2.03541e-02        00000 
-2.62535e-02 -1.82546e-02        00000 
-2.18712e-02 -1.63041e-02        00000 
-1.81279e-02 -1.47149e-02        00000 
-1.48236e-02 -1.34758e-02        00000 
-1.18159e-02 -1.25339e-02        00000 
-9.01058e-03 -1.18380e-02        00000 
-6.34227e-03 -1.13486e-02        00000 
-3.76254e-03 -1.10374e-02        00000 
-1.23253e-03 -1.08868e-02        00000 
 1.28172e-03 -1.08881e-02        00000 
 3.81268e-03 -1.10417e-02        00000 
 6.39431e-03 -1.13561e-02        00000 
 9.06547e-03 -1.18491e-02        00000 
 1.18745e-02 -1.25492e-02        00000 
 1.48866e-02 -1.34959e-02        00000 
 1.81954e-02 -1.47402e-02        00000 
 2.19426e-02 -1.63346e-02        00000 
 2.63270e-02 -1.82901e-02        00000 
 3.12340e-02 -2.03942e-02        00000 
-4.41576e-02 -3.17137e-02        00000 
-3.81143e-02 -2.96976e-02        00000 
-3.24924e-02 -2.78981e-02        00000 
-2.72862e-02 -2.63162e-02        00000 
-2.24757e-02 -2.49861e-02        00000 
-1.79885e-02 -2.39120e-02        00000 
-1.37489e-02 -2.30817e-02        00000 
-9.68957e-03 -2.24781e-02        00000 
-5.75206e-03 -2.20857e-02        00000 
-1.88478e-03 -2.18933e-02        00000 
 1.95997e-03 -2.18951e-02        00000 
 5.82852e-03 -2.20911e-02        00000 
 9.76851e-03 -2.24873e-02        00000 
 1.38315e-02 -2.30949e-02        00000 
 1.80755e-02 -2.39295e-02        00000 
 2.25674e-02 -2.50081e-02        00000 
 2.73824e-02 -2.63428e-02        00000 
 3.25918e-02 -2.79292e-02        00000 
 3.82148e-02 -2.97332e-02        00000 
 4.42577e-02 -3.17536e-02        00000 
-5.64413e-02 -4.53966e-02        00000 
-4.91964e-02 -4.35107e-02        00000 
-4.23485e-02 -4.18205e-02        00000 
-3.58776e-02 -4.03338e-02        00000 
-2.97498e-02 -3.90561e-02        00000 
-2.39231e-02 -3.79949e-02        00000 
-1.83440e-02 -3.71528e-02        00000 
-1.29553e-02 -3.65274e-02        00000 
-7.70048e-03 -3.61145e-02        00000 
-2.52470e-03 -3.59102e-02        00000 
 2.62540e-03 -3.59121e-02        00000 
 7.80258e-03 -3.61203e-02        00000 
 1.30601e-02 -3.65371e-02        00000 
 1.84526e-02 -3.71665e-02        00000 
 2.40363e-02 -3.80127e-02        00000 
 2.98678e-02 -3.90780e-02        00000 
 3.59998e-02 -4.03599e-02        00000 
 4.24735e-02 -4.18507e-02        00000 
 4.93222e-02 -4.35451e-02        00000 
 5.65661e-02 -4.54352e-02        00000 
-6.79795e-02 -6.14921e-02        00000 
-5.95555e-02 -5.97279e-02        00000 
-5.15306e-02 -5.81535e-02        00000 
-4.38699e-02 -5.67681e-02        00000 
-3.65356e-02 -5.55747e-02        00000 
-2.94848e-02 -5.45764e-02        00000 
-2.26705e-02 -5.37765e-02        00000 
-1.60422e-02 -5.31767e-02        00000 
-9.54724e-03 -5.27776e-02        00000 
-3.13204e-03 -5.25791e-02        00000 
 3.25704e-03 -5.25810e-02        00000 
 9.67367e-03 -5.27833e-02        00000 
 1.61714e-02 -5.31862e-02        00000 
 2.28036e-02 -5.37898e-02        00000 
 2.96224e-02 -5.45936e-02        00000 
 3.66779e-02 -5.55957e-02        00000 
 4.40162e-02 -5.67930e-02        00000 
 5.16795e-02 -5.81822e-02        00000 
 5.97049e-02 -5.97605e-02        00000 
 6.81277e-02 -6.15286e-02        00000 
-7.87461e-02 -7.99061e-02        00000 
-6.92009e-02 -7.82673e-02        00000 
-6.00603e-02 -7.68072e-02        00000 
-5.12823e-02 -7.55251e-02        00000 
-4.28241e-02 -7.44215e-02        00000 
-3.46409e-02 -7.34980e-02        00000 
-2.66862e-02 -7.27567e-02        00000 
-1.89112e-02 -7.21995e-02        00000 
-1.12655e-02 -7.18279e-02        00000 
-3.69742e-03 -7.16428e-02        00000 
 3.84513e-03 -7.16446e-02        00000 
 1.14146e-02 -7.18333e-02        00000 
 1.90631e-02 -7.22085e-02        00000 
 2.68419e-02 -7.27693e-02        00000 
 3.48011e-02 -7.35142e-02        00000 
 4.29888e-02 -7.44412e-02        00000 
 5.14510e-02 -7.55485e-02        00000 
 6.02314e-02 -7.68342e-02        00000 
 6.93725e-02 -7.82978e-02        00000 
 7.89163e-02 -7.99403e-02        00000 
-8.87216e-02 -1.00500e-01        00000 
-7.81294e-02 -9.89876e-02        00000 
-6.79461e-02 -9.76419e-02        00000 
-5.81262e-02 -9.64619e-02        00000 
-4.86240e-02 -9.54477e-02        00000 
-3.93931e-02 -9.46000e-02        00000 
-3.03861e-02 -9.39200e-02        00000 
-2.15544e-02 -9.34090e-02        00000 
-1.28486e-02 -9.30682e-02        00000 
-4.21837e-03 -9.28983e-02        00000 
 4.38707e-03 -9.29000e-02        00000 
 1.30187e-02 -9.30731e-02        00000 
 2.17272e-02 -9.34173e-02        00000 
 3.05627e-02 -9.39316e-02        00000 
 3.95742e-02 -9.46149e-02        00000 
 4.88096e-02 -9.54659e-02        00000 
 5.83156e-02 -9.64835e-02        00000 
 6.81378e-02 -9.76668e-02        00000 
 7.83215e-02 -9.90158e-02        00000 
 8.89123e-02 -1.00531e-01        00000 
-9.78962e-02 -1.23113e-01        00000 
-8.63378e-02 -1.21728e-01        00000 
-7.51911e-02 -1.20496e-01        00000 
-6.44090e-02 -1.19417e-01        00000 
-5.39443e-02 -1.18491e-01        00000 
-4.37491e-02 -1.17717e-01        00000 
-3.37756e-02 -1.17097e-01        00000 
-2.39749e-02 -1.16631e-01        00000 
-1.42980e-02 -1.16321e-01        00000 
-4.69528e-03 -1.16166e-01        00000 
 4.88318e-03 -1.16168e-01        00000 
 1.44873e-02 -1.16325e-01        00000 
 2.41669e-02 -1.16639e-01        00000 
 3.39713e-02 -1.17108e-01        00000 
 4.39493e-02 -1.17731e-01        00000 
 5.41489e-02 -1.18507e-01        00000 
 6.46175e-02 -1.19437e-01        00000 
 7.54019e-02 -1.20519e-01        00000 
 8.65488e-02 -1.21754e-01        00000 
 9.81057e-02 -1.23142e-01        00000 
-1.06266e-01 -1.47578e-01        00000 
-9.38251e-02 -1.46320e-01        00000 
-8.17975e-02 -1.45202e-01        00000 
-7.01357e-02 -1.44222e-01        00000 
-5.87913e-02 -1.43382e-01        00000 
-4.77161e-02 -1.42681e-01        00000 
-3.68612e-02 -1.42119e-01        00000 
-2.61778e-02 -1.41697e-01        00000 
-1.56169e-02 -1.41415e-01        00000 
-5.12923e-03 -1.41275e-01        00000 
 5.33452e-03 -1.41277e-01        00000 
 1.58236e-02 -1.41419e-01        00000 
 2.63873e-02 -1.41703e-01        00000 
 3.70744e-02 -1.42128e-01        00000 
 4.79337e-02 -1.42693e-01        00000 
 5.90134e-02 -1.43397e-01        00000 
 7.03616e-02 -1.44240e-01        00000 
 8.20257e-02 -1.45222e-01        00000 
 9.40535e-02 -1.46343e-01        00000 
 1.06493e-01 -1.47604e-01        00000 
-1.13831e-01 -1.73726e-01        00000 
-1.00591e-01 -1.72595e-01        00000 
-8.77668e-02 -1.71590e-01        00000 
-7.53096e-02 -1.70710e-01        00000 
-6.31703e-02 -1.69953e-01        00000 
-5.12999e-02 -1.69322e-01        00000 
-3.96489e-02 -1.68815e-01        00000 
-2.81681e-02 -1.68435e-01        00000 
-1.68086e-02 -1.68181e-01        00000 
-5.52139e-03 -1.68054e-01        00000 
 5.74222e-03 -1.68055e-01        00000 
 1.70309e-02 -1.68184e-01        00000 
 2.83931e-02 -1.68440e-01        00000 
 3.98777e-02 -1.68823e-01        00000 
 5.15332e-02 -1.69332e-01        00000 
 6.34082e-02 -1.69966e-01        00000 
 7.55513e-02 -1.70725e-01        00000 
 8.80109e-02 -1.71608e-01        00000 
 1.00835e-01 -1.72616e-01        00000 
 1.14073e-01 -1.73749e-01        00000 
-1.20589e-01 -2.01389e-01        00000 
-1.06636e-01 -2.00386e-01        00000 
-9.31002e-02 -1.99493e-01        00000 
-7.99339e-02 -1.98710e-01        00000 
-6.70863e-02 -1.98036e-01        00000 
-5.45069e-02 -1.97471e-01        00000 
-4.21452e-02 -1.97017e-01        00000 
-2.99515e-02 -1.96674e-01        00000 
-1.78769e-02 -1.96445e-01        00000 
-5.87313e-03 -1.96331e-01        00000 
 6.10760e-03 -1.96332e-01        00000 
 1.81128e-02 -1.96448e-01        00000 
 3.01902e-02 -1.96679e-01        00000 
 4.23878e-02 -1.97024e-01        00000 
 5.47541e-02 -1.97480e-01        00000 
 6.73383e-02 -1.98047e-01        00000 
 8.01898e-02 -1.98723e-01        00000 
 9.33585e-02 -1.99509e-01        00000 
 1.06894e-01 -2.00404e-01        00000 
 1.20846e-01 -2.01409e-01        00000 
-1.26538e-01 -2.30401e-01        00000 
-1.11955e-01 -2.29526e-01        00000 
-9.77976e-02 -2.28746e-01        00000 
-8.40124e-02 -2.28058e-01        00000 
-7.05465e-02 -2.27462e-01        00000 
-5.73465e-02 -2.26959e-01        00000 
-4.43600e-02 -2.26551e-01        00000 
-3.15366e-02 -2.26242e-01        00000 
-1.88278e-02 -2.26034e-01        00000 
-6.18658e-03 -2.25929e-01        00000 
 6.43274e-03 -2.25930e-01        00000 
 1.90755e-02 -2.26036e-01        00000 
 3.17872e-02 -2.26246e-01        00000 
 4.46146e-02 -2.26557e-01        00000 
 5.76059e-02 -2.26966e-01        00000 
 7.08108e-02 -2.27471e-01        00000 
 8.42810e-02 -2.28069e-01        00000 
 9.80687e-02 -2.28759e-01        00000 
 1.12227e-01 -2.29541e-01        00000 
 1.26808e-01 -2.30418e-01        00000 
-1.31664e-01 -2.60595e-01        00000 
-1.16542e-01 -2.59850e-01        00000 
-1.01857e-01 -2.59182e-01        00000 
-8.75511e-02 -2.58586e-01        00000 
-7.35632e-02 -2.58063e-01        00000 
-5.98349e-02 -2.57614e-01        00000 
-4.63107e-02 -2.57244e-01        00000 
-3.29387e-02 -2.56960e-01        00000 
-1.96716e-02 -2.56766e-01        00000 
-6.46540e-03 -2.56669e-01        00000 
 6.72128e-03 -2.56669e-01        00000 
 1.99290e-02 -2.56768e-01        00000 
 3.31992e-02 -2.56963e-01        00000 
 4.65754e-02 -2.57248e-01        00000 
 6.01047e-02 -2.57619e-01        00000 
 7.38382e-02 -2.58070e-01        00000 
 8.78306e-02 -2.58595e-01        00000 
 1.02140e-01 -2.59193e-01        00000 
 1.16825e-01 -2.59862e-01        00000 
 1.31946e-01 -2.60609e-01        00000 
-1.35936e-01 -2.91792e-01        00000 
-1.20376e-01 -2.91184e-01        00000 
-1.05275e-01 -2.90630e-01        00000 
-9.05592e-02 -2.90123e-01        00000 
-7.61569e-02 -2.89665e-01        00000 
-6.19999e-02 -2.89261e-01        00000 
-4.80266e-02 -2.88918e-01        00000 
-3.41838e-02 -2.88648e-01        00000 
-2.04262e-02 -2.88460e-01        00000 
-6.71592e-03 -2.88365e-01        00000 
 6.97960e-03 -2.88365e-01        00000 
 2.06915e-02 -2.88462e-01        00000 
 3.44523e-02 -2.88650e-01        00000 
 4.82995e-02 -2.88922e-01        00000 
 6.22781e-02 -2.89266e-01        00000 
 7.64407e-02 -2.89671e-01        00000 
 9.08480e-02 -2.90131e-01        00000 
 1.05567e-01 -2.90638e-01        00000 
 1.20670e-01 -2.91194e-01        00000 
 1.36228e-01 -2.91804e-01        00000 
-1.39294e-01 -3.23786e-01        00000 
-1.23424e-01 -3.23324e-01        00000 
-1.08041e-01 -3.22889e-01        00000 
-9.30476e-02 -3.22475e-01        00000 
-7.83552e-02 -3.22084e-01        00000 
-6.38809e-02 -3.21721e-01        00000 
-4.95537e-02 -3.21398e-01        00000 
-3.53146e-02 -3.21132e-01        00000 
-2.11220e-02 -3.20941e-01        00000 
-6.94943e-03 -3.20841e-01        00000 
 7.21911e-03 -3.20841e-01        00000 
 2.13933e-02 -3.20943e-01        00000 
 3.55892e-02 -3.21134e-01        00000 
 4.98330e-02 -3.21402e-01        00000 
 6.41658e-02 -3.21725e-01        00000 
 7.86460e-02 -3.22090e-01        00000 
 9.33440e-02 -3.22482e-01        00000 
 1.08341e-01 -3.22897e-01        00000 
 1.23726e-01 -3.23333e-01        00000 
 1.39596e-01 -3.23797e-01        00000 
-1.41650e-01 -3.56287e-01        00000 
-1.25643e-01 -3.55985e-01        00000 
-1.10135e-01 -3.55685e-01        00000 
-9.50114e-02 -3.55391e-01        00000 
-8.01713e-02 -3.55100e-01        00000 
-6.55156e-02 -3.54811e-01        00000 
-5.09482e-02 -3.54527e-01        00000 
-3.63967e-02 -3.54274e-01        00000 
-2.18113e-02 -3.54072e-01        00000 
-7.18358e-03 -3.53965e-01        00000 
 7.45773e-03 -3.53965e-01        00000 
 2.20871e-02 -3.54074e-01        00000 
 3.66759e-02 -3.54277e-01        00000 
 5.12322e-02 -3.54532e-01        00000 
 6.58055e-02 -3.54817e-01        00000 
 8.04675e-02 -3.55107e-01        00000 
 9.53135e-02 -3.55399e-01        00000 
 1.10441e-01 -3.55695e-01        00000 
 1.25952e-01 -3.55995e-01        00000 
 1.41960e-01 -3.56299e-01        00000 
-1.42948e-01 -3.88863e-01        00000 
-1.27012e-01 -3.88725e-01        00000 
-1.11521e-01 -3.88593e-01        00000 
-9.63865e-02 -3.88490e-01        00000 
-8.15336e-02 -3.88410e-01        00000 
-6.68644e-02 -3.88329e-01        00000 
-5.22455e-02 -3.88211e-01        00000 
-3.75060e-02 -3.88035e-01        00000 
-2.25810e-02 -3.87881e-01        00000 
-7.47049e-03 -3.87755e-01        00000 
 7.74794e-03 -3.87756e-01        00000 
 2.28602e-02 -3.87884e-01        00000 
 3.77886e-02 -3.88041e-01        00000 
 5.25331e-02 -3.88218e-01        00000 
 6.71579e-02 -3.88338e-01        00000 
 8.18335e-02 -3.88421e-01        00000 
 9.66924e-02 -3.88502e-01        00000 
 1.11831e-01 -3.88606e-01        00000 
 1.27326e-01 -3.88739e-01        00000 
 1.43263e-01 -3.88878e-01        00000 
-1.43337e-01 -4.20953e-01        00000 
-1.27614e-01 -4.20945e-01        00000 
-1.12172e-01 -4.20994e-01        00000 
-9.70428e-02 -4.21148e-01        00000 
-8.22137e-02 -4.21426e-01        00000 
-6.76275e-02 -4.21823e-01        00000 
-5.31726e-02 -4.22292e-01        00000 
-3.86420e-02 -4.22697e-01        00000 
-2.35245e-02 -4.22758e-01        00000 
-7.79241e-03 -4.22905e-01        00000 
 8.07256e-03 -4.22907e-01        00000 
 2.38063e-02 -4.22763e-01        00000 
 3.89273e-02 -4.22706e-01        00000 
 5.34629e-02 -4.22303e-01        00000 
 6.79237e-02 -4.21838e-01        00000 
 8.25161e-02 -4.21442e-01        00000 
 9.73508e-02 -4.21166e-01        00000 
 1.12484e-01 -4.21013e-01        00000 
 1.27929e-01 -4.20964e-01        00000 
 1.43655e-01 -4.20973e-01        00000 
-1.43349e-01 -4.52292e-01        00000 
-1.27745e-01 -4.52280e-01        00000 
-1.12291e-01 -4.52282e-01        00000 
-9.70862e-02 -4.52411e-01        00000 
-8.21434e-02 -4.52802e-01        00000 
-6.74237e-02 -4.53617e-01        00000 
-5.28296e-02 -4.55073e-01        00000 
-3.81605e-02 -4.57490e-01        00000 
-2.31115e-02 -4.61329e-01        00000 
-7.65412e-03 -4.63090e-01        00000 
 7.93718e-03 -4.63092e-01        00000 
 2.33964e-02 -4.61336e-01        00000 
 3.84488e-02 -4.57503e-01        00000 
 5.31227e-02 -4.55091e-01        00000 
 6.77222e-02 -4.53639e-01        00000 
 8.24474e-02 -4.52826e-01        00000 
 9.73950e-02 -4.52436e-01        00000 
 1.12604e-01 -4.52307e-01        00000 
 1.28060e-01 -4.52305e-01        00000 
 1.43667e-01 -4.52317e-01        00000 
-7.23258e-03 -4.54443e-03        00000 
-5.70374e-03 -3.60180e-03        00000 
-4.69525e-03 -2.94199e-03        00000 
-3.86988e-03 -2.48579e-03        00000 
-3.13737e-03 -2.16511e-03        00000 
-2.46011e-03 -1.93864e-03        00000 
-1.81811e-03 -1.78136e-03        00000 
-1.19883e-03 -1.67796e-03        00000 
-5.93271e-04 -1.61929e-03        00000 
 5.84677e-06 -1.60046e-03        00000 
 6.05064e-04 -1.61998e-03        00000 
 1.21093e-03 -1.67944e-03        00000 
 1.83074e-03 -1.78385e-03        00000 
 2.47353e-03 -1.94249e-03        00000 
 3.15190e-03 -2.17077e-03        00000 
 3.88588e-03 -2.49378e-03        00000 
 4.71316e-03 -2.95285e-03        00000 
 5.72402e-03 -3.61590e-03        00000 
 7.25583e-03 -4.56204e-03        00000 
-2.20345e-02 -1.44624e-02        00000 
-1.79393e-02 -1.22827e-02        00000 
-1.47911e-02 -1.06988e-02        00000 
-1.21544e-02 -9.52663e-03        00000 
-9.82016e-03 -8.65912e-03        00000 
-7.67787e-03 -8.02354e-03        00000 
-5.66156e-03 -7.57067e-03        00000 
-3.72734e-03 -7.26776e-03        00000 
-1.84289e-03 -7.09404e-03        00000 
 1.81407e-05 -7.03803e-03        00000 
 1.87952e-03 -7.09613e-03        00000 
 3.76505e-03 -7.27217e-03        00000 
 5.70108e-03 -7.57780e-03        00000 
 7.71997e-03 -8.03401e-03        00000 
 9.86558e-03 -8.67366e-03        00000 
 1.22037e-02 -9.54601e-03        00000 
 1.48446e-02 -1.07236e-02        00000 
 1.79963e-02 -1.23131e-02        00000 
 2.20941e-02 -1.44982e-02        00000 
-3.49360e-02 -2.49176e-02        00000 
-2.97067e-02 -2.29433e-02        00000 
-2.49473e-02 -2.11959e-02        00000 
-2.06667e-02 -1.97575e-02        00000 
-1.67581e-02 -1.86133e-02        00000 
-1.31225e-02 -1.77311e-02        00000 
-9.68201e-03 -1.70796e-02        00000 
-6.37531e-03 -1.66330e-02        00000 
-3.15217e-03 -1.63729e-02        00000 
 3.10227e-05 -1.62885e-02        00000 
 3.21478e-03 -1.63761e-02        00000 
 6.43961e-03 -1.66395e-02        00000 
 9.74907e-03 -1.70898e-02        00000 
 1.31933e-02 -1.77454e-02        00000 
 1.68333e-02 -1.86320e-02        00000 
 2.07467e-02 -1.97810e-02        00000 
 2.50314e-02 -2.12244e-02        00000 
 2.97933e-02 -2.29765e-02        00000 
 3.50233e-02 -2.49554e-02        00000 
-4.69982e-02 -3.74872e-02        00000 
-4.05553e-02 -3.56375e-02        00000 
-3.45163e-02 -3.39949e-02        00000 
-2.88561e-02 -3.25718e-02        00000 
-2.35371e-02 -3.13843e-02        00000 
-1.85002e-02 -3.04324e-02        00000 
-1.36818e-02 -2.97078e-02        00000 
-9.02174e-03 -2.92001e-02        00000 
-4.46396e-03 -2.89003e-02        00000 
 4.39365e-05 -2.88023e-02        00000 
 4.55251e-03 -2.89040e-02        00000 
 9.11229e-03 -2.92076e-02        00000 
 1.37756e-02 -2.97192e-02        00000 
 1.85981e-02 -3.04479e-02        00000 
 2.36398e-02 -3.14041e-02        00000 
 2.89634e-02 -3.25960e-02        00000 
 3.46274e-02 -3.40235e-02        00000 
 4.06684e-02 -3.56703e-02        00000 
 4.71112e-02 -3.75244e-02        00000 
-5.83123e-02 -5.24411e-02        00000 
-5.06758e-02 -5.07126e-02        00000 
-4.34224e-02 -4.91775e-02        00000 
-3.65214e-02 -4.78404e-02        00000 
-2.99332e-02 -4.67064e-02        00000 
-2.36123e-02 -4.57802e-02        00000 
-1.75071e-02 -4.50630e-02        00000 
-1.15636e-02 -4.45537e-02        00000 
-5.72711e-03 -4.42500e-02        00000 
 5.64092e-05 -4.41503e-02        00000 
 5.84064e-03 -4.42539e-02        00000 
 1.16792e-02 -4.45613e-02        00000 
 1.76261e-02 -4.50746e-02        00000 
 2.37355e-02 -4.57957e-02        00000 
 3.00611e-02 -4.67259e-02        00000 
 3.66538e-02 -4.78639e-02        00000 
 4.35583e-02 -4.92050e-02        00000 
 5.08134e-02 -5.07442e-02        00000 
 5.84496e-02 -5.24767e-02        00000 
-6.88899e-02 -6.97621e-02        00000 
-6.01044e-02 -6.81532e-02        00000 