<?xml version="1.0" encoding="utf-8"?>
<VTKFile byte_order="LittleEndian" type="UnstructuredGrid" version="0.1">
   <UnstructuredGrid>
      <Piece NumberOfCells="1444" NumberOfPoints="761">
         <Points>
            <DataArray Name="Points" NumberOfComponents="3" format="ascii" type="Float32">
0.0000 1.0000 0.0000
0.0000 1.0526 0.0000
0.0000 1.1053 0.0000
0.0000 1.1579 0.0000
0.0000 1.2105 0.0000
0.0000 1.2632 0.0000
0.0000 1.3158 0.0000
0.0000 1.3684 0.0000
0.0000 1.4211 0.0000
0.0000 1.4737 0.0000
0.0000 1.5263 0.0000
0.0000 1.5789 0.0000
0.0000 1.6316 0.0000
0.0000 1.6842 0.0000
0.0000 1.7368 0.0000
0.0000 1.7895 0.0000
0.0000 1.8421 0.0000
0.0000 1.8947 0.0000
0.0000 1.9474 0.0000
0.0000 2.0000 0.0000
0.1053 1.0000 0.0000
0.1053 1.0526 0.0000
0.1053 1.1053 0.0000
0.1053 1.1579 0.0000
0.1053 1.2105 0.0000
0.1053 1.2632 0.0000
0.1053 1.3158 0.0000
0.1053 1.3684 0.0000
0.1053 1.4211 0.0000
0.1053 1.4737 0.0000
0.1053 1.5263 0.0000
0.1053 1.5789 0.0000
0.1053 1.6316 0.0000
0.1053 1.6842 0.0000
0.1053 1.7368 0.0000
0.1053 1.7895 0.0000
0.1053 1.8421 0.0000
0.1053 1.8947 0.0000
0.1053 1.9474 0.0000
0.1053 2.0000 0.0000
0.2105 1.0000 0.0000
0.2105 1.0526 0.0000
0.2105 1.1053 0.0000
0.2105 1.1579 0.0000
0.2105 1.2105 0.0000
0.2105 1.2632 0.0000
0.2105 1.3158 0.0000
0.2105 1.3684 0.0000
0.2105 1.4211 0.0000
0.2105 1.4737 0.0000
0.2105 1.5263 0.0000
0.2105 1.5789 0.0000
0.2105 1.6316 0.0000
0.2105 1.6842 0.0000
0.2105 1.7368 0.0000
0.2105 1.7895 0.0000
0.2105 1.8421 0.0000
0.2105 1.8947 0.0000
0.2105 1.9474 0.0000
0.2105 2.0000 0.0000
0.3158 1.0000 0.0000
0.3158 1.0526 0.0000
0.3158 1.1053 0.0000
0.3158 1.1579 0.0000
0.3158 1.2105 0.0000
0.3158 1.2632 0.0000
0.3158 1.3158 0.0000
0.3158 1.3684 0.0000
0.3158 1.4211 0.0000
0.3158 1.4737 0.0000
0.3158 1.5263 0.0000
0.3158 1.5789 0.0000
0.3158 1.6316 0.0000
0.3158 1.6842 0.0000
0.3158 1.7368 0.0000
0.3158 1.7895 0.0000
0.3158 1.8421 0.0000
0.3158 1.8947 0.0000
0.3158 1.9474 0.0000
0.3158 2.0000 0.0000
0.4211 1.0000 0.0000
0.4211 1.0526 0.0000
0.4211 1.1053 0.0000
0.4211 1.1579 0.0000
0.4211 1.2105 0.0000
0.4211 1.2632 0.0000
0.4211 1.3158 0.0000
0.4211 1.3684 0.0000
0.4211 1.4211 0.0000
0.4211 1.4737 0.0000
0.4211 1.5263 0.0000
0.4211 1.5789 0.0000
0.4211 1.6316 0.0000
0.4211 1.6842 0.0000
0.4211 1.7368 0.0000
0.4211 1.7895 0.0000
0.4211 1.8421 0.0000
0.4211 1.8947 0.0000
0.4211 1.9474 0.0000
0.4211 2.0000 0.0000
0.5263 1.0000 0.0000
0.5263 1.0526 0.0000
0.5263 1.1053 0.0000
0.5263 1.1579 0.0000
0.5263 1.2105 0.0000
0.5263 1.2632 0.0000
0.5263 1.3158 0.0000
0.5263 1.3684 0.0000
0.5263 1.4211 0.0000
0.5263 1.4737 0.0000
0.5263 1.5263 0.0000
0.5263 1.5789 0.0000
0.5263 1.6316 0.0000
0.5263 1.6842 0.0000
0.5263 1.7368 0.0000
0.5263 1.7895 0.0000
0.5263 1.8421 0.0000
0.5263 1.8947 0.0000
0.5263 1.9474 0.0000
0.5263 2.0000 0.0000
0.6316 1.0000 0.0000
0.6316 1.0526 0.0000
0.6316 1.1053 0.0000
0.6316 1.1579 0.0000
0.6316 1.2105 0.0000
0.6316 1.2632 0.0000
0.6316 1.3158 0.0000
0.6316 1.3684 0.0000
0.6316 1.4211 0.0000
0.6316 1.4737 0.0000
0.6316 1.5263 0.0000
0.6316 1.5789 0.0000
0.6316 1.6316 0.0000
0.6316 1.6842 0.0000
0.6316 1.7368 0.0000
0.6316 1.7895 0.0000
0.6316 1.8421 0.0000
0.6316 1.8947 0.0000
0.6316 1.9474 0.0000
0.6316 2.0000 0.0000
0.7368 1.0000 0.0000
0.7368 1.0526 0.0000
0.7368 1.1053 0.0000
0.7368 1.1579 0.0000
0.7368 1.2105 0.0000
0.7368 1.2632 0.0000
0.7368 1.3158 0.0000
0.7368 1.3684 0.0000
0.7368 1.4211 0.0000
0.7368 1.4737 0.0000
0.7368 1.5263 0.0000
0.7368 1.5789 0.0000
0.7368 1.6316 0.0000
0.7368 1.6842 0.0000
0.7368 1.7368 0.0000
0.7368 1.7895 0.0000
0.7368 1.8421 0.0000
0.7368 1.8947 0.0000
0.7368 1.9474 0.0000
0.7368 2.0000 0.0000
0.8421 1.0000 0.0000
0.8421 1.0526 0.0000
0.8421 1.1053 0.0000
0.8421 1.1579 0.0000
0.8421 1.2105 0.0000
0.8421 1.2632 0.0000
0.8421 1.3158 0.0000
0.8421 1.3684 0.0000
0.8421 1.4211 0.0000
0.8421 1.4737 0.0000
0.8421 1.5263 0.0000
0.8421 1.5789 0.0000
0.8421 1.6316 0.0000
0.8421 1.6842 0.0000
0.8421 1.7368 0.0000
0.8421 1.7895 0.0000
0.8421 1.8421 0.0000
0.8421 1.8947 0.0000
0.8421 1.9474 0.0000
0.8421 2.0000 0.0000
0.9474 1.0000 0.0000
0.9474 1.0526 0.0000
0.9474 1.1053 0.0000
0.9474 1.1579 0.0000
0.9474 1.2105 0.0000
0.9474 1.2632 0.0000
0.9474 1.3158 0.0000
0.9474 1.3684 0.0000
0.9474 1.4211 0.0000
0.9474 1.4737 0.0000
0.9474 1.5263 0.0000
0.9474 1.5789 0.0000
0.9474 1.6316 0.0000
0.9474 1.6842 0.0000
0.9474 1.7368 0.0000
0.9474 1.7895 0.0000
0.9474 1.8421 0.0000
0.9474 1.8947 0.0000
0.9474 1.9474 0.0000
0.9474 2.0000 0.0000
1.0526 1.0000 0.0000
1.0526 1.0526 0.0000
1.0526 1.1053 0.0000
1.0526 1.1579 0.0000
1.0526 1.2105 0.0000
1.0526 1.2632 0.0000
1.0526 1.3158 0.0000
1.0526 1.3684 0.0000
1.0526 1.4211 0.0000
1.0526 1.4737 0.0000
1.0526 1.5263 0.0000
1.0526 1.5789 0.0000
1.0526 1.6316 0.0000
1.0526 1.6842 0.0000
1.0526 1.7368 0.0000
1.0526 1.7895 0.0000
1.0526 1.8421 0.0000
1.0526 1.8947 0.0000
1.0526 1.9474 0.0000
1.0526 2.0000 0.0000
1.1579 1.0000 0.0000
1.1579 1.0526 0.0000
1.1579 1.1053 0.0000
1.1579 1.1579 0.0000
1.1579 1.2105 0.0000
1.1579 1.2632 0.0000
1.1579 1.3158 0.0000
1.1579 1.3684 0.0000
1.1579 1.4211 0.0000
1.1579 1.4737 0.0000
1.1579 1.5263 0.0000
1.1579 1.5789 0.0000
1.1579 1.6316 0.0000
1.1579 1.6842 0.0000
1.1579 1.7368 0.0000
1.1579 1.7895 0.0000
1.1579 1.8421 0.0000
1.1579 1.8947 0.0000
1.1579 1.9474 0.0000
1.1579 2.0000 0.0000
1.2632 1.0000 0.0000
1.2632 1.0526 0.0000
1.2632 1.1053 0.0000
1.2632 1.1579 0.0000
1.2632 1.2105 0.0000
1.2632 1.2632 0.0000
1.2632 1.3158 0.0000
1.2632 1.3684 0.0000
1.2632 1.4211 0.0000
1.2632 1.4737 0.0000
1.2632 1.5263 0.0000
1.2632 1.5789 0.0000
1.2632 1.6316 0.0000
1.2632 1.6842 0.0000
1.2632 1.7368 0.0000
1.2632 1.7895 0.0000
1.2632 1.8421 0.0000
1.2632 1.8947 0.0000
1.2632 1.9474 0.0000
1.2632 2.0000 0.0000
1.3684 1.0000 0.0000
1.3684 1.0526 0.0000
1.3684 1.1053 0.0000
1.3684 1.1579 0.0000
1.3684 1.2105 0.0000
1.3684 1.2632 0.0000
1.3684 1.3158 0.0000
1.3684 1.3684 0.0000
1.3684 1.4211 0.0000
1.3684 1.4737 0.0000
1.3684 1.5263 0.0000
1.3684 1.5789 0.0000
1.3684 1.6316 0.0000
1.3684 1.6842 0.0000
1.3684 1.7368 0.0000
1.3684 1.7895 0.0000
1.3684 1.8421 0.0000
1.3684 1.8947 0.0000
1.3684 1.9474 0.0000
1.3684 2.0000 0.0000
1.4737 1.0000 0.0000
1.4737 1.0526 0.0000
1.4737 1.1053 0.0000
1.4737 1.1579 0.0000
1.4737 1.2105 0.0000
1.4737 1.2632 0.0000
1.4737 1.3158 0.0000
1.4737 1.3684 0.0000
1.4737 1.4211 0.0000
1.4737 1.4737 0.0000
1.4737 1.5263 0.0000
1.4737 1.5789 0.0000
1.4737 1.6316 0.0000
1.4737 1.6842 0.0000
1.4737 1.7368 0.0000
1.4737 1.7895 0.0000
1.4737 1.8421 0.0000
1.4737 1.8947 0.0000
1.4737 1.9474 0.0000
1.4737 2.0000 0.0000
1.5789 1.0000 0.0000
1.5789 1.0526 0.0000
1.5789 1.1053 0.0000
1.5789 1.1579 0.0000
1.5789 1.2105 0.0000
1.5789 1.2632 0.0000
1.5789 1.3158 0.0000
1.5789 1.3684 0.0000
1.5789 1.4211 0.0000
1.5789 1.4737 0.0000
1.5789 1.5263 0.0000
1.5789 1.5789 0.0000
1.5789 1.6316 0.0000
1.5789 1.6842 0.0000
1.5789 1.7368 0.0000
1.5789 1.7895 0.0000
1.5789 1.8421 0.0000
1.5789 1.8947 0.0000
1.5789 1.9474 0.0000
1.5789 2.0000 0.0000
1.6842 1.0000 0.0000
1.6842 1.0526 0.0000
1.6842 1.1053 0.0000
1.6842 1.1579 0.0000
1.6842 1.2105 0.0000
1.6842 1.2632 0.0000
1.6842 1.3158 0.0000
1.6842 1.3684 0.0000
1.6842 1.4211 0.0000
1.6842 1.4737 0.0000
1.6842 1.5263 0.0000
1.6842 1.5789 0.0000
1.6842 1.6316 0.0000
1.6842 1.6842 0.0000
1.6842 1.7368 0.0000
1.6842 1.7895 0.0000
1.6842 1.8421 0.0000
1.6842 1.8947 0.0000
1.6842 1.9474 0.0000
1.6842 2.0000 0.0000
1.7895 1.0000 0.0000
1.7895 1.0526 0.0000
1.7895 1.1053 0.0000
1.7895 1.1579 0.0000
1.7895 1.2105 0.0000
1.7895 1.2632 0.0000
1.7895 1.3158 0.0000
1.7895 1.3684 0.0000
1.7895 1.4211 0.0000
1.7895 1.4737 0.0000
1.7895 1.5263 0.0000
1.7895 1.5789 0.0000
1.7895 1.6316 0.0000
1.7895 1.6842 0.0000
1.7895 1.7368 0.0000
1.7895 1.7895 0.0000
1.7895 1.8421 0.0000
1.7895 1.8947 0.0000
1.7895 1.9474 0.0000
1.7895 2.0000 0.0000
1.8947 1.0000 0.0000
1.8947 1.0526 0.0000
1.8947 1.1053 0.0000
1.8947 1.1579 0.0000
1.8947 1.2105 0.0000
1.8947 1.2632 0.0000
1.8947 1.3158 0.0000
1.8947 1.3684 0.0000
1.8947 1.4211 0.0000
1.8947 1.4737 0.0000
1.8947 1.5263 0.0000
1.8947 1.5789 0.0000
1.8947 1.6316 0.0000
1.8947 1.6842 0.0000
1.8947 1.7368 0.0000
1.8947 1.7895 0.0000
1.8947 1.8421 0.0000
1.8947 1.8947 0.0000
1.8947 1.9474 0.0000
1.8947 2.0000 0.0000
2.0000 1.0000 0.0000
2.0000 1.0526 0.0000
2.0000 1.1053 0.0000
2.0000 1.1579 0.0000
2.0000 1.2105 0.0000
2.0000 1.2632 0.0000
2.0000 1.3158 0.0000
2.0000 1.3684 0.0000
2.0000 1.4211 0.0000
2.0000 1.4737 0.0000
2.0000 1.5263 0.0000
2.0000 1.5789 0.0000
2.0000 1.6316 0.0000
2.0000 1.6842 0.0000
2.0000 1.7368 0.0000
2.0000 1.7895 0.0000
2.0000 1.8421 0.0000
2.0000 1.8947 0.0000
2.0000 1.9474 0.0000
2.0000 2.0000 0.0000
0.0526 1.0263 0.0000
0.0526 1.0789 0.0000
0.0526 1.1316 0.0000
0.0526 1.1842 0.0000
0.0526 1.2368 0.0000
0.0526 1.2895 0.0000
0.0526 1.3421 0.0000
0.0526 1.3947 0.0000
0.0526 1.4474 0.0000
0.0526 1.5000 0.0000
0.0526 1.5526 0.0000
0.0526 1.6053 0.0000
0.0526 1.6579 0.0000
0.0526 1.7105 0.0000
0.0526 1.7632 0.0000
0.0526 1.8158 0.0000
0.0526 1.8684 0.0000
0.0526 1.9211 0.0000
0.0526 1.9737 0.0000
0.1579 1.0263 0.0000
0.1579 1.0789 0.0000
0.1579 1.1316 0.0000
0.1579 1.1842 0.0000
0.1579 1.2368 0.0000
0.1579 1.2895 0.0000
0.1579 1.3421 0.0000
0.1579 1.3947 0.0000
0.1579 1.4474 0.0000
0.1579 1.5000 0.0000
0.1579 1.5526 0.0000
0.1579 1.6053 0.0000
0.1579 1.6579 0.0000
0.1579 1.7105 0.0000
0.1579 1.7632 0.0000
0.1579 1.8158 0.0000
0.1579 1.8684 0.0000
0.1579 1.9211 0.0000
0.1579 1.9737 0.0000
0.2632 1.0263 0.0000
0.2632 1.0789 0.0000
0.2632 1.1316 0.0000
0.2632 1.1842 0.0000
0.2632 1.2368 0.0000
0.2632 1.2895 0.0000
0.2632 1.3421 0.0000
0.2632 1.3947 0.0000
0.2632 1.4474 0.0000
0.2632 1.5000 0.0000
0.2632 1.5526 0.0000
0.2632 1.6053 0.0000
0.2632 1.6579 0.0000
0.2632 1.7105 0.0000
0.2632 1.7632 0.0000
0.2632 1.8158 0.0000
0.2632 1.8684 0.0000
0.2632 1.9211 0.0000
0.2632 1.9737 0.0000
0.3684 1.0263 0.0000
0.3684 1.0789 0.0000
0.3684 1.1316 0.0000
0.3684 1.1842 0.0000
[...]
         <PointData>
            <DataArray Name="displacement" NumberOfComponents="3" format="ascii" type="Float64">
 1.20754e-18 -7.27342e-18        00000 
-4.83016e-18  3.86413e-18        00000 
 2.38397e-18 -2.38397e-18        00000 
-2.29139e-18 -2.29139e-18        00000 
-1.90717e-18  1.19198e-19        00000 
-7.11007e-19  2.30558e-18        00000 
-7.15191e-19 -8.34389e-19        00000 
-3.93131e-19  1.08579e-18        00000 
 5.81092e-19 -9.53587e-19        00000 
-4.20855e-19  9.61953e-19        00000 
 1.63898e-19 -3.57595e-19        00000 
-4.47420e-19  9.21049e-19        00000 
 1.54958e-18 -2.38397e-18        00000 
 1.32597e-18  1.13347e-18        00000 
-2.74156e-18  7.15191e-19        00000 
 4.35813e-18 -3.93131e-18        00000 
-3.81435e-18  3.57595e-18        00000 
-2.88607e-18  3.36708e-18        00000 
 4.32795e-18 -9.61767e-19        00000 
 1.44097e-18  2.76340e-18        00000 
 5.84460e-02  3.61683e-02        00000 
 4.46619e-02  2.75664e-02        00000 
 3.59860e-02  2.19618e-02        00000 
 2.92434e-02  1.81631e-02        00000 
 2.35948e-02  1.55066e-02        00000 
 1.86196e-02  1.36246e-02        00000 
 1.40721e-02  1.22997e-02        00000 
 9.79901e-03  1.13993e-02        00000 
 5.69598e-03  1.08429e-02        00000 
 1.68483e-03  1.05844e-02        00000 
-2.30038e-03  1.06035e-02        00000 
-6.32235e-03  1.09019e-02        00000 
-1.04484e-02  1.15035e-02        00000 
-1.47602e-02  1.24592e-02        00000 
-1.93687e-02  1.38566e-02        00000 
-2.44409e-02  1.58403e-02        00000 
-3.02484e-02  1.86471e-02        00000 
-3.72577e-02  2.26684e-02        00000 
-4.63413e-02  2.85547e-02        00000 
-6.02813e-02  3.73501e-02        00000 
 1.02334e-01  6.49192e-02        00000 
 8.67382e-02  5.84154e-02        00000 
 7.22080e-02  5.22274e-02        00000 
 5.95623e-02  4.70754e-02        00000 
 4.83912e-02  4.29961e-02        00000 
 3.82997e-02  3.98667e-02        00000 
 2.89761e-02  3.75457e-02        00000 
 2.01821e-02  3.59141e-02        00000 
 1.17314e-02  3.48847e-02        00000 
 3.47078e-03  3.44019e-02        00000 
-4.73547e-03  3.44396e-02        00000 
-1.30183e-02  3.50001e-02        00000 
-2.15154e-02  3.61139e-02        00000 
-3.03848e-02  3.78411e-02        00000 
-3.98205e-02  4.02741e-02        00000 
-5.00730e-02  4.35357e-02        00000 
-6.14660e-02  4.77655e-02        00000 
-7.43836e-02  5.30690e-02        00000 
-8.91306e-02  5.93698e-02        00000 
-1.04773e-01  6.59693e-02        00000 
 1.41927e-01  9.99565e-02        00000 
 1.23064e-01  9.38613e-02        00000 
 1.05112e-01  8.83592e-02        00000 
 8.81972e-02  8.34316e-02        00000 
 7.24348e-02  7.92158e-02        00000 
 5.77133e-02  7.57682e-02        00000 
 4.38403e-02  7.30835e-02        00000 
 3.06075e-02  7.11287e-02        00000 
 1.78145e-02  6.98663e-02        00000 
 5.27352e-03  6.92671e-02        00000 
-7.19431e-03  6.93159e-02        00000 
-1.97649e-02  7.00140e-02        00000 
-3.26184e-02  7.13791e-02        00000 
-4.59449e-02  7.34423e-02        00000 
-5.99475e-02  7.62417e-02        00000 
-7.48354e-02  7.98076e-02        00000 
-9.07934e-02  8.41390e-02        00000 
-1.07904e-01  8.91711e-02        00000 
-1.25999e-01  9.47696e-02        00000 
-1.44879e-01  1.00961e-01        00000 
 1.78732e-01  1.42093e-01        00000 
 1.56271e-01  1.36488e-01        00000 
 1.34766e-01  1.31441e-01        00000 
 1.14208e-01  1.26958e-01        00000 
 9.45778e-02  1.23057e-01        00000 
 7.58331e-02  1.19779e-01        00000 
 5.78657e-02  1.17155e-01        00000 
 4.05227e-02  1.15200e-01        00000 
 2.36288e-02  1.13916e-01        00000 
 6.99989e-03  1.13302e-01        00000 
-9.55117e-03  1.13353e-01        00000 
-2.62118e-02  1.14072e-01        00000 
-4.31691e-02  1.15460e-01        00000 
-6.06067e-02  1.17520e-01        00000 
-7.86985e-02  1.20248e-01        00000 
-9.75933e-02  1.23628e-01        00000 
-1.17390e-01  1.27626e-01        00000 
-1.38113e-01  1.32201e-01        00000 
-1.59736e-01  1.37338e-01        00000 
-1.82197e-01  1.43037e-01        00000 
 2.12772e-01  1.91541e-01        00000 
 1.86800e-01  1.86381e-01        00000 
 1.61846e-01  1.81765e-01        00000 
 1.37832e-01  1.77683e-01        00000 
 1.14693e-01  1.74141e-01        00000 
 9.23532e-02  1.71156e-01        00000 
 7.07134e-02  1.68748e-01        00000 
 4.96448e-02  1.66938e-01        00000 
 2.89948e-02  1.65740e-01        00000 
 8.59509e-03  1.65164e-01        00000 
-1.17306e-02  1.65214e-01        00000 
-3.21609e-02  1.65888e-01        00000 
-5.28712e-02  1.67183e-01        00000 
-7.40283e-02  1.69090e-01        00000 
-9.57823e-02  1.71592e-01        00000 
-1.18258e-01  1.74668e-01        00000 
-1.41549e-01  1.78298e-01        00000 
-1.65714e-01  1.82465e-01        00000 
-1.90775e-01  1.87165e-01        00000 
-2.16738e-01  1.92415e-01        00000 
 2.44052e-01  2.47896e-01        00000 
 2.14787e-01  2.43175e-01        00000 
 1.86587e-01  2.38963e-01        00000 
 1.59342e-01  2.35254e-01        00000 
 1.32955e-01  2.32047e-01        00000 
 1.07331e-01  2.29351e-01        00000 
 8.23621e-02  2.27179e-01        00000 
 5.79217e-02  2.25546e-01        00000 
 3.38675e-02  2.24465e-01        00000 
 1.00443e-02  2.23944e-01        00000 
-1.37106e-02  2.23989e-01        00000 
-3.75622e-02  2.24599e-01        00000 
-6.16725e-02  2.25770e-01        00000 
-8.61951e-02  2.27490e-01        00000 
-1.11270e-01  2.29746e-01        00000 
-1.37022e-01  2.32524e-01        00000 
-1.63552e-01  2.35811e-01        00000 
-1.90940e-01  2.39599e-01        00000 
-2.19241e-01  2.43890e-01        00000 
-2.48493e-01  2.48694e-01        00000 
 2.72616e-01  3.10632e-01        00000 
 2.40322e-01  3.06336e-01        00000 
 2.09125e-01  3.02509e-01        00000 
 1.78897e-01  2.99146e-01        00000 
 1.49523e-01  2.96248e-01        00000 
 1.20894e-01  2.93818e-01        00000 
 9.28960e-02  2.91866e-01        00000 
 6.54003e-02  2.90401e-01        00000 
 3.82687e-02  2.89432e-01        00000 
 1.13536e-02  2.88966e-01        00000 
-1.54976e-02  2.89006e-01        00000 
-4.24393e-02  2.89552e-01        00000 
-6.96238e-02  2.90600e-01        00000 
-9.71971e-02  2.92143e-01        00000 
-1.25296e-01  2.94171e-01        00000 
-1.54046e-01  2.96675e-01        00000 
-1.83558e-01  2.99646e-01        00000 
-2.13926e-01  3.03081e-01        00000 
-2.45220e-01  3.06981e-01        00000 
-2.77497e-01  3.11354e-01        00000 
 2.98543e-01  3.79184e-01        00000 
 2.63494e-01  3.75298e-01        00000 
 2.29563e-01  3.71838e-01        00000 
 1.96609e-01  3.68803e-01        00000 
 1.64511e-01  3.66191e-01        00000 
 1.33149e-01  3.64006e-01        00000 
 1.02403e-01  3.62254e-01        00000 
 7.21443e-02  3.60941e-01        00000 
 4.22357e-02  3.60073e-01        00000 
 1.25346e-02  3.59656e-01        00000 
-1.71056e-02  3.59691e-01        00000 
-4.68324e-02  3.60178e-01        00000 
-7.67918e-02  3.61116e-01        00000 
-1.07125e-01  3.62498e-01        00000 
-1.37969e-01  3.64318e-01        00000 
-1.69449e-01  3.66569e-01        00000 
-2.01683e-01  3.69247e-01        00000 
-2.34772e-01  3.72348e-01        00000 
-2.68798e-01  3.75874e-01        00000 
-3.03829e-01  3.79830e-01        00000 
 3.21922e-01  4.52996e-01        00000 
 2.84388e-01  4.49505e-01        00000 
 2.47984e-01  4.46399e-01        00000 
 2.12567e-01  4.43674e-01        00000 
 1.78005e-01  4.41332e-01        00000 
 1.44175e-01  4.39375e-01        00000 
 1.10952e-01  4.37806e-01        00000 
 7.82061e-02  4.36630e-01        00000 
 4.58011e-02  4.35854e-01        00000 
 1.35973e-02  4.35479e-01        00000 
-1.85476e-02  4.35510e-01        00000 
-5.07766e-02  4.35944e-01        00000 
-8.32314e-02  4.36781e-01        00000 
-1.16051e-01  4.38016e-01        00000 
-1.49370e-01  4.39645e-01        00000 
-1.83318e-01  4.41662e-01        00000 
-2.18013e-01  4.44063e-01        00000 
-2.53565e-01  4.46846e-01        00000 
-2.90060e-01  4.50012e-01        00000 
-3.27576e-01  4.53567e-01        00000 
 3.42836e-01  5.31531e-01        00000 
 3.03077e-01  5.28423e-01        00000 
 2.64461e-01  5.25657e-01        00000 
 2.26838e-01  5.23231e-01        00000 
 1.90072e-01  5.21144e-01        00000 
 1.54034e-01  5.19399e-01        00000 
 1.18596e-01  5.17998e-01        00000 
 8.36271e-02  5.16949e-01        00000 
 4.89908e-02  5.16254e-01        00000 
 1.45502e-02  5.15919e-01        00000 
-1.98335e-02  5.15944e-01        00000 
-5.42994e-02  5.16331e-01        00000 
-8.89856e-02  5.17076e-01        00000 
-1.24029e-01  5.18177e-01        00000 
-1.59563e-01  5.19628e-01        00000 
-1.95719e-01  5.21425e-01        00000 
-2.32619e-01  5.23564e-01        00000 
-2.70376e-01  5.26042e-01        00000 
-3.09084e-01  5.28862e-01        00000 
-3.48824e-01  5.32028e-01        00000 
 3.61356e-01  6.14274e-01        00000 
 3.19626e-01  6.11539e-01        00000 
 2.79052e-01  6.09103e-01        00000 
 2.39481e-01  6.06963e-01        00000 
 2.00769e-01  6.05118e-01        00000 
 1.62780e-01  6.03570e-01        00000 
 1.25383e-01  6.02324e-01        00000 
 8.84439e-02  6.01387e-01        00000 
 5.18281e-02  6.00765e-01        00000 
 1.54009e-02  6.00463e-01        00000 
-2.09721e-02  6.00484e-01        00000 
-5.74249e-02  6.00827e-01        00000 
-9.40917e-02  6.01491e-01        00000 
-1.31106e-01  6.02471e-01        00000 
-1.68602e-01  6.03760e-01        00000 
-2.06711e-01  6.05351e-01        00000 
-2.45560e-01  6.07241e-01        00000 
-2.85268e-01  6.09428e-01        00000 
-3.25934e-01  6.11911e-01        00000 
-3.67646e-01  6.14698e-01        00000 
 3.77529e-01  7.00730e-01        00000 
 3.34077e-01  6.98361e-01        00000 
 2.91804e-01  6.96247e-01        00000 
 2.50547e-01  6.94381e-01        00000 
 2.10149e-01  6.92761e-01        00000 
 1.70467e-01  6.91391e-01        00000 
 1.31362e-01  6.90280e-01        00000 
 9.26969e-02  6.89439e-01        00000 
 5.43390e-02  6.88877e-01        00000 
 1.61582e-02  6.88602e-01        00000 
-2.19727e-02  6.88619e-01        00000 
-6.01800e-02  6.88927e-01        00000 
-9.85906e-02  6.89523e-01        00000 
-1.37334e-01  6.90398e-01        00000 
-1.76542e-01  6.91544e-01        00000 
-2.16349e-01  6.92949e-01        00000 
-2.56889e-01  6.94607e-01        00000 
-2.98288e-01  6.96513e-01        00000 
-3.40658e-01  6.98670e-01        00000 
-3.84094e-01  7.01085e-01        00000 
 3.91368e-01  7.90410e-01        00000 
 3.46452e-01  7.88409e-01        00000 
 3.02752e-01  7.86610e-01        00000 
 2.60086e-01  7.85004e-01        00000 
 2.18276e-01  7.83588e-01        00000 
 1.77164e-01  7.82372e-01        00000 
 1.36599e-01  7.81370e-01        00000 
 9.64404e-02  7.80601e-01        00000 
 5.65593e-02  7.80081e-01        00000 
 1.68344e-02  7.79824e-01        00000 
-2.28485e-02  7.79837e-01        00000 
-6.26010e-02  7.80121e-01        00000 
-1.02537e-01  7.80668e-01        00000 
-1.42777e-01  7.81464e-01        00000 
-1.83450e-01  7.82494e-01        00000 
-2.24694e-01  7.83738e-01        00000 
-2.66654e-01  7.85185e-01        00000 
-3.09472e-01  7.86825e-01        00000 
-3.53277e-01  7.88660e-01        00000 
-3.98183e-01  7.90704e-01        00000 
 4.02831e-01  8.82814e-01        00000 
 3.56734e-01  8.81187e-01        00000 
 3.11916e-01  8.79703e-01        00000 
 2.68151e-01  8.78343e-01        00000 
 2.25230e-01  8.77110e-01        00000 
 1.82964e-01  8.76020e-01        00000 
 1.41187e-01  8.75096e-01        00000 
 9.97548e-02  8.74368e-01        00000 
 5.85430e-02  8.73866e-01        00000 
 1.74476e-02  8.73615e-01        00000 
-2.36199e-02  8.73626e-01        00000 
-6.47439e-02  8.73901e-01        00000 
-1.06013e-01  8.74426e-01        00000 
-1.47531e-01  8.75176e-01        00000 
-1.89420e-01  8.76123e-01        00000 
-2.31826e-01  8.77237e-01        00000 
-2.74910e-01  8.78494e-01        00000 
-3.18839e-01  8.79880e-01        00000 
-3.63777e-01  8.81397e-01        00000 
-4.09873e-01  8.83060e-01        00000 
 4.11792e-01  9.77356e-01        00000 
 3.64867e-01  9.76127e-01        00000 
 3.19299e-01  9.74966e-01        00000 
 2.74797e-01  9.73859e-01        00000 
 2.31102e-01  9.72809e-01        00000 
 1.87987e-01  9.71835e-01        00000 
 1.45260e-01  9.70971e-01        00000 
 1.02761e-01  9.70258e-01        00000 
 6.03746e-02  9.69750e-01        00000 
 1.80281e-02  9.69489e-01        00000 
-2.43211e-02  9.69501e-01        00000 
-6.66972e-02  9.69787e-01        00000 
-1.09143e-01  9.70318e-01        00000 
-1.51731e-01  9.71054e-01        00000 
-1.94576e-01  9.71941e-01        00000 
-2.37838e-01  9.72937e-01        00000 
-2.81706e-01  9.74008e-01        00000 
-3.26389e-01  9.75137e-01        00000 
-3.72095e-01  9.76323e-01        00000 
-4.19034e-01  9.77583e-01        00000 
 4.18050e-01  1.07325e+00        00000 
 3.70766e-01  1.07244e+00        00000 
 3.24874e-01  1.07165e+00        00000 
 2.80030e-01  1.07086e+00        00000 
 2.35943e-01  1.07009e+00        00000 
 1.92345e-01  1.06932e+00        00000 
 1.48976e-01  1.06856e+00        00000 
 1.05639e-01  1.06789e+00        00000 
 6.21960e-02  1.06736e+00        00000 
 1.86216e-02  1.06708e+00        00000 
-2.50043e-02  1.06710e+00        00000 
-6.86093e-02  1.06741e+00        00000 
-1.12114e-01  1.06797e+00        00000 
-1.55542e-01  1.06868e+00        00000 
-1.99032e-01  1.06946e+00        00000 
-2.42782e-01  1.07025e+00        00000 
-2.87049e-01  1.07105e+00        00000 
-3.32085e-01  1.07186e+00        00000 
-3.78133e-01  1.07267e+00        00000 
-4.25453e-01  1.07350e+00        00000 
 4.21484e-01  1.16931e+00        00000 
 3.74405e-01  1.16894e+00        00000 
 3.28561e-01  1.16859e+00        00000 
 2.83689e-01  1.16833e+00        00000 
 2.39567e-01  1.16813e+00        00000 
 1.95933e-01  1.16793e+00        00000 
 1.52431e-01  1.16762e+00        00000 
 1.08596e-01  1.16716e+00        00000 
 6.42439e-02  1.16676e+00        00000 
 1.93683e-02  1.16644e+00        00000 
-2.58184e-02  1.16646e+00        00000 
-7.07253e-02  1.16684e+00        00000 
-1.15140e-01  1.16728e+00        00000 
-1.59069e-01  1.16779e+00        00000 
-2.02695e-01  1.16813e+00        00000 
-2.46481e-01  1.16838e+00        00000 
-2.90781e-01  1.16861e+00        00000 
-3.35842e-01  1.16891e+00        00000 
-3.81847e-01  1.16927e+00        00000 
-4.28989e-01  1.16965e+00        00000 
 4.22511e-01  1.26404e+00        00000 
 3.76013e-01  1.26402e+00        00000 
 3.30293e-01  1.26416e+00        00000 
 2.85427e-01  1.26459e+00        00000 
 2.41363e-01  1.26536e+00        00000 
 1.97947e-01  1.26645e+00        00000 
 1.54886e-01  1.26774e+00        00000 
 1.11636e-01  1.26887e+00        00000 
 6.67865e-02  1.26907e+00        00000 
 2.02220e-02  1.26950e+00        00000 
-2.67301e-02  1.26954e+00        00000 
-7.33254e-02  1.26918e+00        00000 
-1.18238e-01  1.26906e+00        00000 
-1.61583e-01  1.26800e+00        00000 
-2.04768e-01  1.26677e+00        00000 
-2.48335e-01  1.26574e+00        00000 
-2.92568e-01  1.26502e+00        00000 
-3.37606e-01  1.26463e+00        00000 
-3.83469e-01  1.26451e+00        00000 
-4.30053e-01  1.26453e+00        00000 
 4.22541e-01  1.35675e+00        00000 
 3.76367e-01  1.35671e+00        00000 
 3.30608e-01  1.35672e+00        00000 
 2.85527e-01  1.35708e+00        00000 
 2.41149e-01  1.35815e+00        00000 
 1.97362e-01  1.36038e+00        00000 
 1.53903e-01  1.36438e+00        00000 
 1.10252e-01  1.37107e+00        00000 
 6.56134e-02  1.38180e+00        00000 
 1.98203e-02  1.38673e+00        00000 
-2.63949e-02  1.38679e+00        00000 
-7.22197e-02  1.38197e+00        00000 
-1.16921e-01  1.37137e+00        00000 
-1.60663e-01  1.36479e+00        00000 
-2.04240e-01  1.36090e+00        00000 
-2.48169e-01  1.35874e+00        00000 
-2.92702e-01  1.35772e+00        00000 
-3.37934e-01  1.35739e+00        00000 
-3.83815e-01  1.35739e+00        00000 
-4.30086e-01  1.35742e+00        00000 
 2.48040e-02  1.48782e-02        00000 
 1.95341e-02  1.17736e-02        00000 
 1.58445e-02  9.55682e-03        00000 
 1.28677e-02  8.01091e-03        00000 
 1.03043e-02  6.91695e-03        00000 
 7.99473e-03  6.14090e-03        00000 
 5.84575e-03  5.60098e-03        00000 
 3.79803e-03  5.24691e-03        00000 
 1.80997e-03  5.04862e-03        00000 
-1.51262e-04  4.99030e-03        00000 
-2.11499e-03  5.06748e-03        00000 
-4.11083e-03  5.28627e-03        00000 
-6.17271e-03  5.66448e-03        00000 
-8.34456e-03  6.23490e-03        00000 
-1.06904e-02  7.05217e-03        00000 
-1.33138e-02  8.20550e-03        00000 
-1.63971e-02  9.84141e-03        00000 
-2.02904e-02  1.21985e-02        00000 
-2.58969e-02  1.55557e-02        00000 
 7.36090e-02  4.66319e-02        00000 
 5.99776e-02  3.96021e-02        00000 
 4.91383e-02  3.44156e-02        00000 
 4.00355e-02  3.05210e-02        00000 
 3.20698e-02  2.76122e-02        00000 
 2.48620e-02  2.54710e-02        00000 
 1.81603e-02  2.39439e-02        00000 
 1.17888e-02  2.29261e-02        00000 
 5.61564e-03  2.23510e-02        00000 
-4.67491e-04  2.21817e-02        00000 
-6.55883e-03  2.24080e-02        00000 
-1.27576e-02  2.30441e-02        00000 
-1.91749e-02  2.41311e-02        00000 
-2.59490e-02  2.57411e-02        00000 
-3.32669e-02  2.79858e-02        00000 
-4.13991e-02  3.10286e-02        00000 
-5.07489e-02  3.50971e-02        00000 
-6.19095e-02  4.04930e-02        00000 
-7.57438e-02  4.76713e-02        00000 
 1.13680e-01  7.90369e-02        00000 
 9.69765e-02  7.29542e-02        00000 
 8.13781e-02  6.74483e-02        00000 
 6.71785e-02  6.28305e-02        00000 
 5.41976e-02  5.91089e-02        00000 
 4.21765e-02  5.62183e-02        00000 
 3.08684e-02  5.40777e-02        00000 
 2.00581e-02  5.26147e-02        00000 
 9.55930e-03  5.17754e-02        00000 
-7.94988e-04  5.15278e-02        00000 
-1.11624e-02  5.18623e-02        00000 
-2.17014e-02  5.27920e-02        00000 
-3.25818e-02  5.43525e-02        00000 
-4.39944e-02  5.66009e-02        00000 
-5.61609e-02  5.96116e-02        00000 
-6.93324e-02  6.34647e-02        00000 
-8.37576e-02  6.82169e-02        00000 
-9.95629e-02  7.38382e-02        00000 
-1.16374e-01  8.00191e-02        00000 
 1.50137e-01  1.17824e-01        00000 
 1.29930e-01  1.12265e-01        00000 
 1.10688e-01  1.07269e-01        00000 
 9.24414e-02  1.02870e-01        00000 
 7.51945e-02  9.91475e-02        00000 
 5.88427e-02  9.61330e-02        00000 
 4.32226e-02  9.38266e-02        00000 
 2.81484e-02  9.22129e-02        00000 
 1.34306e-02  9.12735e-02        00000 
-1.11781e-03  9.09953e-02        00000 
-1.56818e-02  9.13742e-02        00000 
-3.04464e-02  9.24159e-02        00000 
-4.55996e-02  9.41350e-02        00000 
-6.13315e-02  9.65500e-02        00000 
-7.78271e-02  9.96750e-02        00000 
-9.52447e-02  1.03507e-01        00000 
-1.13673e-01  1.08008e-01        00000 
-1.33074e-01  1.13099e-01        00000 
-1.53354e-01  1.18751e-01        00000 
 1.83760e-01  1.63856e-01        00000 
 1.60030e-01  1.58755e-01        00000 
 1.37261e-01  1.54198e-01        00000 
 1.15411e-01  1.50192e-01        00000 
 9.44301e-02  1.46758e-01        00000 
 7.42393e-02  1.43928e-01        00000 
 5.47188e-02  1.41724e-01        00000 
 3.57171e-02  1.40160e-01        00000 
 1.70634e-02  1.39241e-01        00000 
-1.42220e-03  1.38968e-01        00000 
-1.99235e-02  1.39342e-01        00000 
-3.86239e-02  1.40363e-01        00000 
-5.77028e-02  1.42028e-01        00000 
-7.73292e-02  1.44332e-01        00000 
-9.76515e-02  1.47260e-01        00000 
-1.18784e-01  1.50788e-01        00000 
-1.40793e-01  1.54884e-01        00000 
-1.63702e-01  1.59529e-01        00000 
-1.87492e-01  1.64720e-01        00000 
 2.14707e-01  2.16995e-01        00000 
 1.87600e-01  2.12323e-01        00000 