<?xml version="1.0" encoding="utf-8"?>
<VTKFile byte_order="LittleEndian" type="UnstructuredGrid" version="0.1">
   <UnstructuredGrid>
      <Piece NumberOfCells="1444" NumberOfPoints="761">
         <Points>
            <DataArray Name="Points" NumberOfComponents="3" format="ascii" type="Float32">
0.0000 1.0000 0.0000
0.0000 1.0526 0.0000
0.0000 1.1053 0.0000
0.0000 1.1579 0.0000
0.0000 1.2105 0.0000
0.0000 1.2632 0.0000
0.0000 1.3158 0.0000
0.0000 1.3684 0.0000
0.0000 1.4211 0.0000
0.0000 1.4737 0.0000
0.0000 1.5263 0.0000
0.0000 1.5789 0.0000
0.0000 1.6316 0.0000
0.0000 1.6842 0.0000
0.0000 1.7368 0.0000
0.0000 1.7895 0.0000
0.0000 1.8421 0.0000
0.0000 1.8947 0.0000
0.0000 1.9474 0.0000
0.0000 2.0000 0.0000
0.1053 1.0000 0.0000
0.1053 1.0526 0.0000
0.1053 1.1053 0.0000
0.1053 1.1579 0.0000
0.1053 1.2105 0.0000
0.1053 1.2632 0.0000
0.1053 1.3158 0.0000
0.1053 1.3684 0.0000
0.1053 1.4211 0.0000
0.1053 1.4737 0.0000
0.1053 1.5263 0.0000
0.1053 1.5789 0.0000
0.1053 1.6316 0.0000
0.1053 1.6842 0.0000
0.1053 1.7368 0.0000
0.1053 1.7895 0.0000
0.1053 1.8421 0.0000
0.1053 1.8947 0.0000
0.1053 1.9474 0.0000
0.1053 2.0000 0.0000
0.2105 1.0000 0.0000
0.2105 1.0526 0.0000
0.2105 1.1053 0.0000
0.2105 1.1579 0.0000
0.2105 1.2105 0.0000
0.2105 1.2632 0.0000
0.2105 1.3158 0.0000
0.2105 1.3684 0.0000
0.2105 1.4211 0.0000
0.2105 1.4737 0.0000
0.2105 1.5263 0.0000
0.2105 1.5789 0.0000
0.2105 1.6316 0.0000
0.2105 1.6842 0.0000
0.2105 1.7368 0.0000
0.2105 1.7895 0.0000
0.2105 1.8421 0.0000
0.2105 1.8947 0.0000
0.2105 1.9474 0.0000
0.2105 2.0000 0.0000
0.3158 1.0000 0.0000
0.3158 1.0526 0.0000
0.3158 1.1053 0.0000
0.3158 1.1579 0.0000
0.3158 1.2105 0.0000
0.3158 1.2632 0.0000
0.3158 1.3158 0.0000
0.3158 1.3684 0.0000
0.3158 1.4211 0.0000
0.3158 1.4737 0.0000
0.3158 1.5263 0.0000
0.3158 1.5789 0.0000
0.3158 1.6316 0.0000
0.3158 1.6842 0.0000
0.3158 1.7368 0.0000
0.3158 1.7895 0.0000
0.3158 1.8421 0.0000
0.3158 1.8947 0.0000
0.3158 1.9474 0.0000
0.3158 2.0000 0.0000
0.4211 1.0000 0.0000
0.4211 1.0526 0.0000
0.4211 1.1053 0.0000
0.4211 1.1579 0.0000
0.4211 1.2105 0.0000
0.4211 1.2632 0.0000
0.4211 1.3158 0.0000
0.4211 1.3684 0.0000
0.4211 1.4211 0.0000
0.4211 1.4737 0.0000
0.4211 1.5263 0.0000
0.4211 1.5789 0.0000
0.4211 1.6316 0.0000
0.4211 1.6842 0.0000
0.4211 1.7368 0.0000
0.4211 1.7895 0.0000
0.4211 1.8421 0.0000
0.4211 1.8947 0.0000
0.4211 1.9474 0.0000
0.4211 2.0000 0.0000
0.5263 1.0000 0.0000
0.5263 1.0526 0.0000
0.5263 1.1053 0.0000
0.5263 1.1579 0.0000
0.5263 1.2105 0.0000
0.5263 1.2632 0.0000
0.5263 1.3158 0.0000
0.5263 1.3684 0.0000
0.5263 1.4211 0.0000
0.5263 1.4737 0.0000
0.5263 1.5263 0.0000
0.5263 1.5789 0.0000
0.5263 1.6316 0.0000
0.5263 1.6842 0.0000
0.5263 1.7368 0.0000
0.5263 1.7895 0.0000
0.5263 1.8421 0.0000
0.5263 1.8947 0.0000
0.5263 1.9474 0.0000
0.5263 2.0000 0.0000
0.6316 1.0000 0.0000
0.6316 1.0526 0.0000
0.6316 1.1053 0.0000
0.6316 1.1579 0.0000
0.6316 1.2105 0.0000
0.6316 1.2632 0.0000
0.6316 1.3158 0.0000
0.6316 1.3684 0.0000
0.6316 1.4211 0.0000
0.6316 1.4737 0.0000
0.6316 1.5263 0.0000
0.6316 1.5789 0.0000
0.6316 1.6316 0.0000
0.6316 1.6842 0.0000
0.6316 1.7368 0.0000
0.6316 1.7895 0.0000
0.6316 1.8421 0.0000
0.6316 1.8947 0.0000
0.6316 1.9474 0.0000
0.6316 2.0000 0.0000
0.7368 1.0000 0.0000
0.7368 1.0526 0.0000
0.7368 1.1053 0.0000
0.7368 1.1579 0.0000
0.7368 1.2105 0.0000
0.7368 1.2632 0.0000
0.7368 1.3158 0.0000
0.7368 1.3684 0.0000
0.7368 1.4211 0.0000
0.7368 1.4737 0.0000
0.7368 1.5263 0.0000
0.7368 1.5789 0.0000
0.7368 1.6316 0.0000
0.7368 1.6842 0.0000
0.7368 1.7368 0.0000
0.7368 1.7895 0.0000
0.7368 1.8421 0.0000
0.7368 1.8947 0.0000
0.7368 1.9474 0.0000
0.7368 2.0000 0.0000
0.8421 1.0000 0.0000
0.8421 1.0526 0.0000
0.8421 1.1053 0.0000
0.8421 1.1579 0.0000
0.8421 1.2105 0.0000
0.8421 1.2632 0.0000
0.8421 1.3158 0.0000
0.8421 1.3684 0.0000
0.8421 1.4211 0.0000
0.8421 1.4737 0.0000
0.8421 1.5263 0.0000
0.8421 1.5789 0.0000
0.8421 1.6316 0.0000
0.8421 1.6842 0.0000
0.8421 1.7368 0.0000
0.8421 1.7895 0.0000
0.8421 1.8421 0.0000
0.8421 1.8947 0.0000
0.8421 1.9474 0.0000
0.8421 2.0000 0.0000
0.9474 1.0000 0.0000
0.9474 1.0526 0.0000
0.9474 1.1053 0.0000
0.9474 1.1579 0.0000
0.9474 1.2105 0.0000
0.9474 1.2632 0.0000
0.9474 1.3158 0.0000
0.9474 1.3684 0.0000
0.9474 1.4211 0.0000
0.9474 1.4737 0.0000
0.9474 1.5263 0.0000
0.9474 1.5789 0.0000
0.9474 1.6316 0.0000
0.9474 1.6842 0.0000
0.9474 1.7368 0.0000
0.9474 1.7895 0.0000
0.9474 1.8421 0.0000
0.9474 1.8947 0.0000
0.9474 1.9474 0.0000
0.9474 2.0000 0.0000
1.0526 1.0000 0.0000
1.0526 1.0526 0.0000
1.0526 1.1053 0.0000
1.0526 1.1579 0.0000
1.0526 1.2105 0.0000
1.0526 1.2632 0.0000
1.0526 1.3158 0.0000
1.0526 1.3684 0.0000
1.0526 1.4211 0.0000
1.0526 1.4737 0.0000
1.0526 1.5263 0.0000
1.0526 1.5789 0.0000
1.0526 1.6316 0.0000
1.0526 1.6842 0.0000
1.0526 1.7368 0.0000
1.0526 1.7895 0.0000
1.0526 1.8421 0.0000
1.0526 1.8947 0.0000
1.0526 1.9474 0.0000
1.0526 2.0000 0.0000
1.1579 1.0000 0.0000
1.1579 1.0526 0.0000
1.1579 1.1053 0.0000
1.1579 1.1579 0.0000
1.1579 1.2105 0.0000
1.1579 1.2632 0.0000
1.1579 1.3158 0.0000
1.1579 1.3684 0.0000
1.1579 1.4211 0.0000
1.1579 1.4737 0.0000
1.1579 1.5263 0.0000
1.1579 1.5789 0.0000
1.1579 1.6316 0.0000
1.1579 1.6842 0.0000
1.1579 1.7368 0.0000
1.1579 1.7895 0.0000
1.1579 1.8421 0.0000
1.1579 1.8947 0.0000
1.1579 1.9474 0.0000
1.1579 2.0000 0.0000
1.2632 1.0000 0.0000
1.2632 1.0526 0.0000
1.2632 1.1053 0.0000
1.2632 1.1579 0.0000
1.2632 1.2105 0.0000
1.2632 1.2632 0.0000
1.2632 1.3158 0.0000
1.2632 1.3684 0.0000
1.2632 1.4211 0.0000
1.2632 1.4737 0.0000
1.2632 1.5263 0.0000
1.2632 1.5789 0.0000
1.2632 1.6316 0.0000
1.2632 1.6842 0.0000
1.2632 1.7368 0.0000
1.2632 1.7895 0.0000
1.2632 1.8421 0.0000
1.2632 1.8947 0.0000
1.2632 1.9474 0.0000
1.2632 2.0000 0.0000
1.3684 1.0000 0.0000
1.3684 1.0526 0.0000
1.3684 1.1053 0.0000
1.3684 1.1579 0.0000
1.3684 1.2105 0.0000
1.3684 1.2632 0.0000
1.3684 1.3158 0.0000
1.3684 1.3684 0.0000
1.3684 1.4211 0.0000
1.3684 1.4737 0.0000
1.3684 1.5263 0.0000
1.3684 1.5789 0.0000
1.3684 1.6316 0.0000
1.3684 1.6842 0.0000
1.3684 1.7368 0.0000
1.3684 1.7895 0.0000
1.3684 1.8421 0.0000
1.3684 1.8947 0.0000
1.3684 1.9474 0.0000
1.3684 2.0000 0.0000
1.4737 1.0000 0.0000
1.4737 1.0526 0.0000
1.4737 1.1053 0.0000
1.4737 1.1579 0.0000
1.4737 1.2105 0.0000
1.4737 1.2632 0.0000
1.4737 1.3158 0.0000
1.4737 1.3684 0.0000
1.4737 1.4211 0.0000
1.4737 1.4737 0.0000
1.4737 1.5263 0.0000
1.4737 1.5789 0.0000
1.4737 1.6316 0.0000
1.4737 1.6842 0.0000
1.4737 1.7368 0.0000
1.4737 1.7895 0.0000
1.4737 1.8421 0.0000
1.4737 1.8947 0.0000
1.4737 1.9474 0.0000
1.4737 2.0000 0.0000
1.5789 1.0000 0.0000
1.5789 1.0526 0.0000
1.5789 1.1053 0.0000
1.5789 1.1579 0.0000
1.5789 1.2105 0.0000
1.5789 1.2632 0.0000
1.5789 1.3158 0.0000
1.5789 1.3684 0.0000
1.5789 1.4211 0.0000
1.5789 1.4737 0.0000
1.5789 1.5263 0.0000
1.5789 1.5789 0.0000
1.5789 1.6316 0.0000
1.5789 1.6842 0.0000
1.5789 1.7368 0.0000
1.5789 1.7895 0.0000
1.5789 1.8421 0.0000
1.5789 1.8947 0.0000
1.5789 1.9474 0.0000
1.5789 2.0000 0.0000
1.6842 1.0000 0.0000
1.6842 1.0526 0.0000
1.6842 1.1053 0.0000
1.6842 1.1579 0.0000
1.6842 1.2105 0.0000
1.6842 1.2632 0.0000
1.6842 1.3158 0.0000
1.6842 1.3684 0.0000
1.6842 1.4211 0.0000
1.6842 1.4737 0.0000
1.6842 1.5263 0.0000
1.6842 1.5789 0.0000
1.6842 1.6316 0.0000
1.6842 1.6842 0.0000
1.6842 1.7368 0.0000
1.6842 1.7895 0.0000
1.6842 1.8421 0.0000
1.6842 1.8947 0.0000
1.6842 1.9474 0.0000
1.6842 2.0000 0.0000
1.7895 1.0000 0.0000
1.7895 1.0526 0.0000
1.7895 1.1053 0.0000
1.7895 1.1579 0.0000
1.7895 1.2105 0.0000
1.7895 1.2632 0.0000
1.7895 1.3158 0.0000
1.7895 1.3684 0.0000
1.7895 1.4211 0.0000
1.7895 1.4737 0.0000
1.7895 1.5263 0.0000
1.7895 1.5789 0.0000
1.7895 1.6316 0.0000
1.7895 1.6842 0.0000
1.7895 1.7368 0.0000
1.7895 1.7895 0.0000
1.7895 1.8421 0.0000
1.7895 1.8947 0.0000
1.7895 1.9474 0.0000
1.7895 2.0000 0.0000
1.8947 1.0000 0.0000
1.8947 1.0526 0.0000
1.8947 1.1053 0.0000
1.8947 1.1579 0.0000
1.8947 1.2105 0.0000
1.8947 1.2632 0.0000
1.8947 1.3158 0.0000
1.8947 1.3684 0.0000
1.8947 1.4211 0.0000
1.8947 1.4737 0.0000
1.8947 1.5263 0.0000
1.8947 1.5789 0.0000
1.8947 1.6316 0.0000
1.8947 1.6842 0.0000
1.8947 1.7368 0.0000
1.8947 1.7895 0.0000
1.8947 1.8421 0.0000
1.8947 1.8947 0.0000
1.8947 1.9474 0.0000
1.8947 2.0000 0.0000
2.0000 1.0000 0.0000
2.0000 1.0526 0.0000
2.0000 1.1053 0.0000
2.0000 1.1579 0.0000
2.0000 1.2105 0.0000
2.0000 1.2632 0.0000
2.0000 1.3158 0.0000
2.0000 1.3684 0.0000
2.0000 1.4211 0.0000
2.0000 1.4737 0.0000
2.0000 1.5263 0.0000
2.0000 1.5789 0.0000
2.0000 1.6316 0.0000
2.0000 1.6842 0.0000
2.0000 1.7368 0.0000
2.0000 1.7895 0.0000
2.0000 1.8421 0.0000
2.0000 1.8947 0.0000
2.0000 1.9474 0.0000
2.0000 2.0000 0.0000
0.0526 1.0263 0.0000
0.0526 1.0789 0.0000
0.0526 1.1316 0.0000
0.0526 1.1842 0.0000
0.0526 1.2368 0.0000
0.0526 1.2895 0.0000
0.0526 1.3421 0.0000
0.0526 1.3947 0.0000
0.0526 1.4474 0.0000
0.0526 1.5000 0.0000
0.0526 1.5526 0.0000
0.0526 1.6053 0.0000
0.0526 1.6579 0.0000
0.0526 1.7105 0.0000
0.0526 1.7632 0.0000
0.0526 1.8158 0.0000
0.0526 1.8684 0.0000
0.0526 1.9211 0.0000
0.0526 1.9737 0.0000
0.1579 1.0263 0.0000
0.1579 1.0789 0.0000
0.1579 1.1316 0.0000
0.1579 1.1842 0.0000
0.1579 1.2368 0.0000
0.1579 1.2895 0.0000
0.1579 1.3421 0.0000
0.1579 1.3947 0.0000
0.1579 1.4474 0.0000
0.1579 1.5000 0.0000
0.1579 1.5526 0.0000
0.1579 1.6053 0.0000
0.1579 1.6579 0.0000
0.1579 1.7105 0.0000
0.1579 1.7632 0.0000
0.1579 1.8158 0.0000
0.1579 1.8684 0.0000
0.1579 1.9211 0.0000
0.1579 1.9737 0.0000
0.2632 1.0263 0.0000
0.2632 1.0789 0.0000
0.2632 1.1316 0.0000
0.2632 1.1842 0.0000
0.2632 1.2368 0.0000
0.2632 1.2895 0.0000
0.2632 1.3421 0.0000
0.2632 1.3947 0.0000
0.2632 1.4474 0.0000
0.2632 1.5000 0.0000
0.2632 1.5526 0.0000
0.2632 1.6053 0.0000
0.2632 1.6579 0.0000
0.2632 1.7105 0.0000
0.2632 1.7632 0.0000
0.2632 1.8158 0.0000
0.2632 1.8684 0.0000
0.2632 1.9211 0.0000
0.2632 1.9737 0.0000
0.3684 1.0263 0.0000
0.3684 1.0789 0.0000
0.3684 1.1316 0.0000
0.3684 1.1842 0.0000
[...]
         <PointData>
            <DataArray Name="displacement" NumberOfComponents="3" format="ascii" type="Float64">
-2.06680e-14  3.76529e-14        00000 
       00000 -5.93530e-15        00000 
-9.76473e-15  1.95295e-15        00000 
 1.15939e-14 -7.66792e-15        00000 
-7.81179e-15 -1.95295e-15        00000 
-1.58104e-14 -1.34421e-15        00000 
 9.76473e-16 -3.90589e-15        00000 
 3.42756e-15  2.20836e-15        00000 
 2.19707e-15 -2.92942e-15        00000 
-3.69390e-15        00000        00000 
 2.31912e-15 -9.76473e-15        00000 
-3.45056e-16 -6.56374e-15        00000 
-1.95295e-15 -1.95295e-15        00000 
 2.81038e-15 -1.06424e-14        00000 
 8.78826e-15  1.46471e-15        00000 
 6.13434e-17  1.41090e-15        00000 
-1.36706e-14  2.92942e-15        00000 
 7.88088e-15 -3.94044e-15        00000 
-1.96970e-14  3.93940e-15        00000 
 4.92425e-15  9.34917e-15        00000 
-1.91647e+02 -1.02423e+02        00000 
-1.62831e+02 -8.74251e+01        00000 
-1.40853e+02 -7.72096e+01        00000 
-1.20682e+02 -7.01717e+01        00000 
-1.01329e+02 -6.52074e+01        00000 
-8.24475e+01 -6.16679e+01        00000 
-6.38699e+01 -5.91615e+01        00000 
-4.54939e+01 -5.74464e+01        00000 
-2.72477e+01 -5.63737e+01        00000 
-9.07467e+00 -5.58572e+01        00000 
 9.07467e+00 -5.58572e+01        00000 
 2.72477e+01 -5.63737e+01        00000 
 4.54939e+01 -5.74464e+01        00000 
 6.38699e+01 -5.91615e+01        00000 
 8.24475e+01 -6.16679e+01        00000 
 1.01329e+02 -6.52074e+01        00000 
 1.20682e+02 -7.01717e+01        00000 
 1.40853e+02 -7.72096e+01        00000 
 1.62831e+02 -8.74251e+01        00000 
 1.91647e+02 -1.02423e+02        00000 
-2.42678e+02 -1.49008e+02        00000 
-2.15952e+02 -1.43140e+02        00000 
-1.88232e+02 -1.37003e+02        00000 
-1.61473e+02 -1.31672e+02        00000 
-1.35534e+02 -1.27335e+02        00000 
-1.10203e+02 -1.23934e+02        00000 
-8.53134e+01 -1.21366e+02        00000 
-6.07343e+01 -1.19530e+02        00000 
-3.63618e+01 -1.18348e+02        00000 
-1.21078e+01 -1.17770e+02        00000 
 1.21078e+01 -1.17770e+02        00000 
 3.63618e+01 -1.18348e+02        00000 
 6.07343e+01 -1.19530e+02        00000 
 8.53134e+01 -1.21366e+02        00000 
 1.10203e+02 -1.23934e+02        00000 
 1.35534e+02 -1.27335e+02        00000 
 1.61473e+02 -1.31672e+02        00000 
 1.88232e+02 -1.37003e+02        00000 
 2.15952e+02 -1.43140e+02        00000 
 2.42678e+02 -1.49008e+02        00000 
-2.74096e+02 -2.05152e+02        00000 
-2.44359e+02 -2.01070e+02        00000 
-2.14593e+02 -1.97417e+02        00000 
-1.84920e+02 -1.94027e+02        00000 
-1.55619e+02 -1.91032e+02        00000 
-1.26725e+02 -1.88514e+02        00000 
-9.81899e+01 -1.86508e+02        00000 
-6.99361e+01 -1.85015e+02        00000 
-4.18824e+01 -1.84029e+02        00000 
-1.39477e+01 -1.83539e+02        00000 
 1.39477e+01 -1.83539e+02        00000 
 4.18824e+01 -1.84029e+02        00000 
 6.99361e+01 -1.85015e+02        00000 
 9.81899e+01 -1.86508e+02        00000 
 1.26725e+02 -1.88514e+02        00000 
 1.55619e+02 -1.91032e+02        00000 
 1.84920e+02 -1.94027e+02        00000 
 2.14593e+02 -1.97417e+02        00000 
 2.44359e+02 -2.01070e+02        00000 
 2.74096e+02 -2.05152e+02        00000 
-2.95850e+02 -2.67130e+02        00000 
-2.63809e+02 -2.64236e+02        00000 
-2.31971e+02 -2.61626e+02        00000 
-2.00343e+02 -2.59291e+02        00000 
-1.68940e+02 -2.57222e+02        00000 
-1.37791e+02 -2.55447e+02        00000 
-1.06887e+02 -2.53996e+02        00000 
-7.61909e+01 -2.52894e+02        00000 
-4.56506e+01 -2.52154e+02        00000 
-1.52061e+01 -2.51782e+02        00000 
 1.52061e+01 -2.51782e+02        00000 
 4.56506e+01 -2.52154e+02        00000 
 7.61909e+01 -2.52894e+02        00000 
 1.06887e+02 -2.53996e+02        00000 
 1.37791e+02 -2.55447e+02        00000 
 1.68940e+02 -2.57222e+02        00000 
 2.00343e+02 -2.59291e+02        00000 
 2.31971e+02 -2.61626e+02        00000 
 2.63809e+02 -2.64236e+02        00000 
 2.95850e+02 -2.67130e+02        00000 
-3.11832e+02 -3.33286e+02        00000 
-2.78105e+02 -3.31102e+02        00000 
-2.44661e+02 -3.29150e+02        00000 
-2.11461e+02 -3.27417e+02        00000 
-1.78483e+02 -3.25903e+02        00000 
-1.45708e+02 -3.24613e+02        00000 
-1.13117e+02 -3.23560e+02        00000 
-8.06797e+01 -3.22756e+02        00000 
-4.83595e+01 -3.22213e+02        00000 
-1.61116e+01 -3.21940e+02        00000 
 1.61116e+01 -3.21940e+02        00000 
 4.83595e+01 -3.22213e+02        00000 
 8.06797e+01 -3.22756e+02        00000 
 1.13117e+02 -3.23560e+02        00000 
 1.45708e+02 -3.24613e+02        00000 
 1.78483e+02 -3.25903e+02        00000 
 2.11461e+02 -3.27417e+02        00000 
 2.44661e+02 -3.29150e+02        00000 
 2.78105e+02 -3.31102e+02        00000 
 3.11832e+02 -3.33286e+02        00000 
-3.24033e+02 -4.02396e+02        00000 
-2.89048e+02 -4.00702e+02        00000 
-2.54357e+02 -3.99188e+02        00000 
-2.19919e+02 -3.97853e+02        00000 
-1.85699e+02 -3.96696e+02        00000 
-1.51666e+02 -3.95718e+02        00000 
-1.17790e+02 -3.94925e+02        00000 
-8.40414e+01 -3.94323e+02        00000 
-5.03865e+01 -3.93918e+02        00000 
-1.67890e+01 -3.93714e+02        00000 
 1.67890e+01 -3.93714e+02        00000 
 5.03865e+01 -3.93918e+02        00000 
 8.40414e+01 -3.94323e+02        00000 
 1.17790e+02 -3.94925e+02        00000 
 1.51666e+02 -3.95718e+02        00000 
 1.85699e+02 -3.96696e+02        00000 
 2.19919e+02 -3.97853e+02        00000 
 2.54357e+02 -3.99188e+02        00000 
 2.89048e+02 -4.00702e+02        00000 
 3.24033e+02 -4.02396e+02        00000 
-3.33578e+02 -4.73699e+02        00000 
-2.97631e+02 -4.72360e+02        00000 
-2.61969e+02 -4.71161e+02        00000 
-2.26551e+02 -4.70106e+02        00000 
-1.91342e+02 -4.69195e+02        00000 
-1.56310e+02 -4.68431e+02        00000 
-1.21422e+02 -4.67814e+02        00000 
-8.66481e+01 -4.67348e+02        00000 
-5.19558e+01 -4.67035e+02        00000 
-1.73131e+01 -4.66878e+02        00000 
 1.73131e+01 -4.66878e+02        00000 
 5.19558e+01 -4.67035e+02        00000 
 8.66481e+01 -4.67348e+02        00000 
 1.21422e+02 -4.67814e+02        00000 
 1.56310e+02 -4.68431e+02        00000 
 1.91342e+02 -4.69195e+02        00000 
 2.26551e+02 -4.70106e+02        00000 
 2.61969e+02 -4.71161e+02        00000 
 2.97631e+02 -4.72360e+02        00000 
 3.33578e+02 -4.73699e+02        00000 
-3.41168e+02 -5.46679e+02        00000 
-3.04473e+02 -5.45606e+02        00000 
-2.68043e+02 -5.44645e+02        00000 
-2.31845e+02 -5.43799e+02        00000 
-1.95845e+02 -5.43069e+02        00000 
-1.60011e+02 -5.42458e+02        00000 
-1.24313e+02 -5.41966e+02        00000 
-8.87195e+01 -5.41596e+02        00000 
-5.32016e+01 -5.41348e+02        00000 
-1.77289e+01 -5.41224e+02        00000 
 1.77289e+01 -5.41224e+02        00000 
 5.32016e+01 -5.41348e+02        00000 
 8.87195e+01 -5.41596e+02        00000 
 1.24313e+02 -5.41966e+02        00000 
 1.60011e+02 -5.42458e+02        00000 
 1.95845e+02 -5.43069e+02        00000 
 2.31845e+02 -5.43799e+02        00000 
 2.68043e+02 -5.44645e+02        00000 
 3.04473e+02 -5.45606e+02        00000 
 3.41168e+02 -5.46679e+02        00000 
-3.47265e+02 -6.20968e+02        00000 
-3.09978e+02 -6.20102e+02        00000 
-2.72939e+02 -6.19326e+02        00000 
-2.36115e+02 -6.18641e+02        00000 
-1.99478e+02 -6.18051e+02        00000 
-1.62998e+02 -6.17556e+02        00000 
-1.26645e+02 -6.17159e+02        00000 
-9.03902e+01 -6.16860e+02        00000 
-5.42060e+01 -6.16659e+02        00000 
-1.80640e+01 -6.16559e+02        00000 
 1.80640e+01 -6.16559e+02        00000 
 5.42060e+01 -6.16659e+02        00000 
 9.03902e+01 -6.16860e+02        00000 
 1.26645e+02 -6.17159e+02        00000 
 1.62998e+02 -6.17556e+02        00000 
 1.99478e+02 -6.18051e+02        00000 
 2.36115e+02 -6.18641e+02        00000 
 2.72939e+02 -6.19326e+02        00000 
 3.09978e+02 -6.20102e+02        00000 
 3.47265e+02 -6.20968e+02        00000 
-3.52186e+02 -6.96293e+02        00000 
-3.14429e+02 -6.95593e+02        00000 
-2.76902e+02 -6.94964e+02        00000 
-2.39577e+02 -6.94409e+02        00000 
-2.02426e+02 -6.93929e+02        00000 
-1.65423e+02 -6.93526e+02        00000 
-1.28539e+02 -6.93202e+02        00000 
-9.17478e+01 -6.92958e+02        00000 
-5.50224e+01 -6.92795e+02        00000 
-1.83364e+01 -6.92713e+02        00000 
 1.83364e+01 -6.92713e+02        00000 
 5.50224e+01 -6.92795e+02        00000 
 9.17478e+01 -6.92958e+02        00000 
 1.28539e+02 -6.93202e+02        00000 
 1.65423e+02 -6.93526e+02        00000 
 2.02426e+02 -6.93929e+02        00000 
 2.39577e+02 -6.94409e+02        00000 
 2.76902e+02 -6.94964e+02        00000 
 3.14429e+02 -6.95593e+02        00000 
 3.52186e+02 -6.96293e+02        00000 
-3.56158e+02 -7.72441e+02        00000 
-3.18026e+02 -7.71877e+02        00000 
-2.80109e+02 -7.71369e+02        00000 
-2.42382e+02 -7.70919e+02        00000 
-2.04819e+02 -7.70529e+02        00000 
-1.67394e+02 -7.70201e+02        00000 
-1.30081e+02 -7.69936e+02        00000 
-9.28537e+01 -7.69735e+02        00000 
-5.56879e+01 -7.69601e+02        00000 
-1.85586e+01 -7.69533e+02        00000 
 1.85586e+01 -7.69533e+02        00000 
 5.56879e+01 -7.69601e+02        00000 
 9.28537e+01 -7.69735e+02        00000 
 1.30081e+02 -7.69936e+02        00000 
 1.67394e+02 -7.70201e+02        00000 
 2.04819e+02 -7.70529e+02        00000 
 2.42382e+02 -7.70919e+02        00000 
 2.80109e+02 -7.71369e+02        00000 
 3.18026e+02 -7.71877e+02        00000 
 3.56158e+02 -7.72441e+02        00000 
-3.59345e+02 -8.49245e+02        00000 
-3.20916e+02 -8.48794e+02        00000 
-2.82692e+02 -8.48386e+02        00000 
-2.44647e+02 -8.48024e+02        00000 
-2.06756e+02 -8.47707e+02        00000 
-1.68993e+02 -8.47439e+02        00000 
-1.31334e+02 -8.47220e+02        00000 
-9.37546e+01 -8.47054e+02        00000 
-5.62307e+01 -8.46942e+02        00000 
-1.87399e+01 -8.46886e+02        00000 
 1.87399e+01 -8.46886e+02        00000 
 5.62307e+01 -8.46942e+02        00000 
 9.37546e+01 -8.47054e+02        00000 
 1.31334e+02 -8.47220e+02        00000 
 1.68993e+02 -8.47439e+02        00000 
 2.06756e+02 -8.47707e+02        00000 
 2.44647e+02 -8.48024e+02        00000 
 2.82692e+02 -8.48386e+02        00000 
 3.20916e+02 -8.48794e+02        00000 
 3.59345e+02 -8.49245e+02        00000 
-3.61867e+02 -9.26563e+02        00000 
-3.23209e+02 -9.26209e+02        00000 
-2.84748e+02 -9.25887e+02        00000 
-2.46458e+02 -9.25597e+02        00000 
-2.08312e+02 -9.25340e+02        00000 
-1.70285e+02 -9.25119e+02        00000 
-1.32352e+02 -9.24937e+02        00000 
-9.44887e+01 -9.24796e+02        00000 
-5.66742e+01 -9.24701e+02        00000 
-1.88883e+01 -9.24652e+02        00000 
 1.88883e+01 -9.24652e+02        00000 
 5.66742e+01 -9.24701e+02        00000 
 9.44887e+01 -9.24796e+02        00000 
 1.32352e+02 -9.24937e+02        00000 
 1.70285e+02 -9.25119e+02        00000 
 2.08312e+02 -9.25340e+02        00000 
 2.46458e+02 -9.25597e+02        00000 
 2.84748e+02 -9.25887e+02        00000 
 3.23209e+02 -9.26209e+02        00000 
 3.61867e+02 -9.26563e+02        00000 
-3.63810e+02 -1.00427e+03        00000 
-3.24985e+02 -1.00401e+03        00000 
-2.86353e+02 -1.00376e+03        00000 
-2.47886e+02 -1.00353e+03        00000 
-2.09553e+02 -1.00332e+03        00000 
-1.71326e+02 -1.00314e+03        00000 
-1.33180e+02 -1.00298e+03        00000 
-9.50910e+01 -1.00286e+03        00000 
-5.70403e+01 -1.00277e+03        00000 
-1.90111e+01 -1.00273e+03        00000 
 1.90111e+01 -1.00273e+03        00000 
 5.70403e+01 -1.00277e+03        00000 
 9.50910e+01 -1.00286e+03        00000 
 1.33180e+02 -1.00298e+03        00000 
 1.71326e+02 -1.00314e+03        00000 
 2.09553e+02 -1.00332e+03        00000 
 2.47886e+02 -1.00353e+03        00000 
 2.86353e+02 -1.00376e+03        00000 
 3.24985e+02 -1.00401e+03        00000 
 3.63810e+02 -1.00427e+03        00000 
-3.65231e+02 -1.08226e+03        00000 
-3.26301e+02 -1.08207e+03        00000 
-2.87566e+02 -1.08189e+03        00000 
-2.48988e+02 -1.08172e+03        00000 
-2.10532e+02 -1.08155e+03        00000 
-1.72166e+02 -1.08140e+03        00000 
-1.33862e+02 -1.08126e+03        00000 
-9.55963e+01 -1.08115e+03        00000 
-5.73514e+01 -1.08107e+03        00000 
-1.91163e+01 -1.08102e+03        00000 
 1.91163e+01 -1.08102e+03        00000 
 5.73514e+01 -1.08107e+03        00000 
 9.55963e+01 -1.08115e+03        00000 
 1.33862e+02 -1.08126e+03        00000 
 1.72166e+02 -1.08140e+03        00000 
 2.10532e+02 -1.08155e+03        00000 
 2.48988e+02 -1.08172e+03        00000 
 2.87566e+02 -1.08189e+03        00000 
 3.26301e+02 -1.08207e+03        00000 
 3.65231e+02 -1.08226e+03        00000 
-3.66163e+02 -1.16040e+03        00000 
-3.27200e+02 -1.16028e+03        00000 
-2.88428e+02 -1.16016e+03        00000 
-2.49803e+02 -1.16005e+03        00000 
-2.11288e+02 -1.15993e+03        00000 
-1.72846e+02 -1.15981e+03        00000 
-1.34440e+02 -1.15970e+03        00000 
-9.60424e+01 -1.15960e+03        00000 
-5.76349e+01 -1.15952e+03        00000 
-1.92131e+01 -1.15948e+03        00000 
 1.92131e+01 -1.15948e+03        00000 
 5.76349e+01 -1.15952e+03        00000 
 9.60424e+01 -1.15960e+03        00000 
 1.34440e+02 -1.15970e+03        00000 
 1.72846e+02 -1.15981e+03        00000 
 2.11288e+02 -1.15993e+03        00000 
 2.49803e+02 -1.16005e+03        00000 
 2.88428e+02 -1.16016e+03        00000 
 3.27200e+02 -1.16028e+03        00000 
 3.66163e+02 -1.16040e+03        00000 
-3.66643e+02 -1.23851e+03        00000 
-3.27725e+02 -1.23846e+03        00000 
-2.88968e+02 -1.23841e+03        00000 
-2.50343e+02 -1.23837e+03        00000 
-2.11822e+02 -1.23834e+03        00000 
-1.73370e+02 -1.23831e+03        00000 
-1.34939e+02 -1.23826e+03        00000 
-9.64657e+01 -1.23819e+03        00000 
-5.79268e+01 -1.23813e+03        00000 
-1.93217e+01 -1.23808e+03        00000 
 1.93217e+01 -1.23808e+03        00000 
 5.79268e+01 -1.23813e+03        00000 
 9.64657e+01 -1.23819e+03        00000 
 1.34939e+02 -1.23826e+03        00000 
 1.73370e+02 -1.23831e+03        00000 
 2.11822e+02 -1.23834e+03        00000 
 2.50343e+02 -1.23837e+03        00000 
 2.88968e+02 -1.23841e+03        00000 
 3.27725e+02 -1.23846e+03        00000 
 3.66643e+02 -1.23851e+03        00000 
-3.66775e+02 -1.31641e+03        00000 
-3.27944e+02 -1.31641e+03        00000 
-2.89210e+02 -1.31643e+03        00000 
-2.50589e+02 -1.31648e+03        00000 
-2.12077e+02 -1.31658e+03        00000 
-1.73652e+02 -1.31671e+03        00000 
-1.35275e+02 -1.31688e+03        00000 
-9.68715e+01 -1.31701e+03        00000 
-5.82617e+01 -1.31703e+03        00000 
-1.94363e+01 -1.31708e+03        00000 
 1.94363e+01 -1.31708e+03        00000 
 5.82617e+01 -1.31703e+03        00000 
 9.68715e+01 -1.31701e+03        00000 
 1.35275e+02 -1.31688e+03        00000 
 1.73652e+02 -1.31671e+03        00000 
 2.12077e+02 -1.31658e+03        00000 
 2.50589e+02 -1.31648e+03        00000 
 2.89210e+02 -1.31643e+03        00000 
 3.27944e+02 -1.31641e+03        00000 
 3.66775e+02 -1.31641e+03        00000 
-3.66776e+02 -1.39403e+03        00000 
-3.27989e+02 -1.39403e+03        00000 
-2.89254e+02 -1.39402e+03        00000 
-2.50608e+02 -1.39407e+03        00000 
-2.12056e+02 -1.39419e+03        00000 
-1.73585e+02 -1.39447e+03        00000 
-1.35159e+02 -1.39496e+03        00000 
-9.67065e+01 -1.39579e+03        00000 
-5.81199e+01 -1.39709e+03        00000 
-1.93889e+01 -1.39769e+03        00000 
 1.93889e+01 -1.39769e+03        00000 
 5.81199e+01 -1.39709e+03        00000 
 9.67065e+01 -1.39579e+03        00000 
 1.35159e+02 -1.39496e+03        00000 
 1.73585e+02 -1.39447e+03        00000 
 2.12056e+02 -1.39419e+03        00000 
 2.50608e+02 -1.39407e+03        00000 
 2.89254e+02 -1.39402e+03        00000 
 3.27989e+02 -1.39403e+03        00000 
 3.66776e+02 -1.39403e+03        00000 
-1.10181e+02 -4.68782e+01        00000 
-9.48897e+01 -4.09585e+01        00000 
-8.20519e+01 -3.66157e+01        00000 
-6.98425e+01 -3.35501e+01        00000 
-5.79218e+01 -3.13671e+01        00000 
-4.61746e+01 -2.98118e+01        00000 
-3.45427e+01 -2.87247e+01        00000 
-2.29884e+01 -2.80065e+01        00000 
-1.14825e+01 -2.75970e+01        00000 
 5.32882e-12 -2.74640e+01        00000 
 1.14825e+01 -2.75970e+01        00000 
 2.29884e+01 -2.80065e+01        00000 
 3.45427e+01 -2.87247e+01        00000 
 4.61746e+01 -2.98118e+01        00000 
 5.79218e+01 -3.13671e+01        00000 
 6.98425e+01 -3.35501e+01        00000 
 8.20519e+01 -3.66157e+01        00000 
 9.48897e+01 -4.09585e+01        00000 
 1.10181e+02 -4.68782e+01        00000 
-2.06703e+02 -1.20623e+02        00000 
-1.79656e+02 -1.10821e+02        00000 
-1.54933e+02 -1.03623e+02        00000 
-1.31461e+02 -9.82293e+01        00000 
-1.08746e+02 -9.41918e+01        00000 
-8.65269e+01 -9.12054e+01        00000 
-6.46424e+01 -8.90608e+01        00000 
-4.29811e+01 -8.76171e+01        00000 
-2.14576e+01 -8.67843e+01        00000 
 9.95842e-12 -8.65121e+01        00000 
 2.14576e+01 -8.67843e+01        00000 
 4.29811e+01 -8.76171e+01        00000 
 6.46424e+01 -8.90608e+01        00000 
 8.65269e+01 -9.12054e+01        00000 
 1.08746e+02 -9.41918e+01        00000 
 1.31461e+02 -9.82293e+01        00000 
 1.54933e+02 -1.03623e+02        00000 
 1.79656e+02 -1.10821e+02        00000 
 2.06703e+02 -1.20623e+02        00000 
-2.45280e+02 -1.74364e+02        00000 
-2.16823e+02 -1.69509e+02        00000 
-1.88206e+02 -1.64831e+02        00000 
-1.60126e+02 -1.60797e+02        00000 
-1.32610e+02 -1.57480e+02        00000 
-1.05562e+02 -1.54859e+02        00000 
-7.88741e+01 -1.52886e+02        00000 
-5.24447e+01 -1.51514e+02        00000 
-2.61817e+01 -1.50707e+02        00000 
 1.22433e-11 -1.50441e+02        00000 
 2.61817e+01 -1.50707e+02        00000 
 5.24447e+01 -1.51514e+02        00000 
 7.88741e+01 -1.52886e+02        00000 
 1.05562e+02 -1.54859e+02        00000 
 1.32610e+02 -1.57480e+02        00000 
 1.60126e+02 -1.60797e+02        00000 
 1.88206e+02 -1.64831e+02        00000 
 2.16823e+02 -1.69509e+02        00000 
 2.45280e+02 -1.74364e+02        00000 
-2.70069e+02 -2.34223e+02        00000 
-2.39163e+02 -2.30935e+02        00000 
-2.08402e+02 -2.27952e+02        00000 
-1.77845e+02 -2.25250e+02        00000 
-1.47593e+02 -2.22904e+02        00000 
-1.17655e+02 -2.20962e+02        00000 
-8.79910e+01 -2.19447e+02        00000 
-5.85402e+01 -2.18366e+02        00000 
-2.92338e+01 -2.17718e+02        00000 
 1.37523e-11 -2.17503e+02        00000 
 2.92338e+01 -2.17718e+02        00000 
 5.85402e+01 -2.18366e+02        00000 
 8.79910e+01 -2.19447e+02        00000 
 1.17655e+02 -2.20962e+02        00000 
 1.47593e+02 -2.22904e+02        00000 
 1.77845e+02 -2.25250e+02        00000 
 2.08402e+02 -2.27952e+02        00000 
 2.39163e+02 -2.30935e+02        00000 
 2.70069e+02 -2.34223e+02        00000 
-2.87713e+02 -2.98811e+02        00000 
-2.54920e+02 -2.96410e+02        00000 
-2.22362e+02 -2.94259e+02        00000 
-1.90030e+02 -2.92349e+02        00000 
-1.57922e+02 -2.90685e+02        00000 
-1.26031e+02 -2.89291e+02        00000 
-9.43358e+01 -2.88186e+02        00000 
-6.27986e+01 -2.87387e+02        00000 
-3.13712e+01 -2.86904e+02        00000 
 1.49511e-11 -2.86743e+02        00000 
 3.13712e+01 -2.86904e+02        00000 
 6.27986e+01 -2.87387e+02        00000 
 9.43358e+01 -2.88186e+02        00000 
 1.26031e+02 -2.89291e+02        00000 
 1.57922e+02 -2.90685e+02        00000 
 1.90030e+02 -2.92349e+02        00000 
 2.22362e+02 -2.94259e+02        00000 
 2.54920e+02 -2.96410e+02        00000 
 2.87713e+02 -2.98811e+02        00000 
-3.00958e+02 -3.66776e+02        00000 
-2.66724e+02 -3.64944e+02        00000 