<?xml version="1.0" encoding="utf-8"?>
<VTKFile byte_order="LittleEndian" type="UnstructuredGrid" version="0.1">
   <UnstructuredGrid>
      <Piece NumberOfCells="1444" NumberOfPoints="761">
         <Points>
            <DataArray Name="Points" NumberOfComponents="3" format="ascii" type="Float32">
0.0000 1.0000 0.0000
0.0000 1.0526 0.0000
0.0000 1.1053 0.0000
0.0000 1.1579 0.0000
0.0000 1.2105 0.0000
0.0000 1.2632 0.0000
0.0000 1.3158 0.0000
0.0000 1.3684 0.0000
0.0000 1.4211 0.0000
0.0000 1.4737 0.0000
0.0000 1.5263 0.0000
0.0000 1.5789 0.0000
0.0000 1.6316 0.0000
0.0000 1.6842 0.0000
0.0000 1.7368 0.0000
0.0000 1.7895 0.0000
0.0000 1.8421 0.0000
0.0000 1.8947 0.0000
0.0000 1.9474 0.0000
0.0000 2.0000 0.0000
0.1053 1.0000 0.0000
0.1053 1.0526 0.0000
0.1053 1.1053 0.0000
0.1053 1.1579 0.0000
0.1053 1.2105 0.0000
0.1053 1.2632 0.0000
0.1053 1.3158 0.0000
0.1053 1.3684 0.0000
0.1053 1.4211 0.0000
0.1053 1.4737 0.0000
0.1053 1.5263 0.0000
0.1053 1.5789 0.0000
0.1053 1.6316 0.0000
0.1053 1.6842 0.0000
0.1053 1.7368 0.0000
0.1053 1.7895 0.0000
0.1053 1.8421 0.0000
0.1053 1.8947 0.0000
0.1053 1.9474 0.0000
0.1053 2.0000 0.0000
0.2105 1.0000 0.0000
0.2105 1.0526 0.0000
0.2105 1.1053 0.0000
0.2105 1.1579 0.0000
0.2105 1.2105 0.0000
0.2105 1.2632 0.0000
0.2105 1.3158 0.0000
0.2105 1.3684 0.0000
0.2105 1.4211 0.0000
0.2105 1.4737 0.0000
0.2105 1.5263 0.0000
0.2105 1.5789 0.0000
0.2105 1.6316 0.0000
0.2105 1.6842 0.0000
0.2105 1.7368 0.0000
0.2105 1.7895 0.0000
0.2105 1.8421 0.0000
0.2105 1.8947 0.0000
0.2105 1.9474 0.0000
0.2105 2.0000 0.0000
0.3158 1.0000 0.0000
0.3158 1.0526 0.0000
0.3158 1.1053 0.0000
0.3158 1.1579 0.0000
0.3158 1.2105 0.0000
0.3158 1.2632 0.0000
0.3158 1.3158 0.0000
0.3158 1.3684 0.0000
0.3158 1.4211 0.0000
0.3158 1.4737 0.0000
0.3158 1.5263 0.0000
0.3158 1.5789 0.0000
0.3158 1.6316 0.0000
0.3158 1.6842 0.0000
0.3158 1.7368 0.0000
0.3158 1.7895 0.0000
0.3158 1.8421 0.0000
0.3158 1.8947 0.0000
0.3158 1.9474 0.0000
0.3158 2.0000 0.0000
0.4211 1.0000 0.0000
0.4211 1.0526 0.0000
0.4211 1.1053 0.0000
0.4211 1.1579 0.0000
0.4211 1.2105 0.0000
0.4211 1.2632 0.0000
0.4211 1.3158 0.0000
0.4211 1.3684 0.0000
0.4211 1.4211 0.0000
0.4211 1.4737 0.0000
0.4211 1.5263 0.0000
0.4211 1.5789 0.0000
0.4211 1.6316 0.0000
0.4211 1.6842 0.0000
0.4211 1.7368 0.0000
0.4211 1.7895 0.0000
0.4211 1.8421 0.0000
0.4211 1.8947 0.0000
0.4211 1.9474 0.0000
0.4211 2.0000 0.0000
0.5263 1.0000 0.0000
0.5263 1.0526 0.0000
0.5263 1.1053 0.0000
0.5263 1.1579 0.0000
0.5263 1.2105 0.0000
0.5263 1.2632 0.0000
0.5263 1.3158 0.0000
0.5263 1.3684 0.0000
0.5263 1.4211 0.0000
0.5263 1.4737 0.0000
0.5263 1.5263 0.0000
0.5263 1.5789 0.0000
0.5263 1.6316 0.0000
0.5263 1.6842 0.0000
0.5263 1.7368 0.0000
0.5263 1.7895 0.0000
0.5263 1.8421 0.0000
0.5263 1.8947 0.0000
0.5263 1.9474 0.0000
0.5263 2.0000 0.0000
0.6316 1.0000 0.0000
0.6316 1.0526 0.0000
0.6316 1.1053 0.0000
0.6316 1.1579 0.0000
0.6316 1.2105 0.0000
0.6316 1.2632 0.0000
0.6316 1.3158 0.0000
0.6316 1.3684 0.0000
0.6316 1.4211 0.0000
0.6316 1.4737 0.0000
0.6316 1.5263 0.0000
0.6316 1.5789 0.0000
0.6316 1.6316 0.0000
0.6316 1.6842 0.0000
0.6316 1.7368 0.0000
0.6316 1.7895 0.0000
0.6316 1.8421 0.0000
0.6316 1.8947 0.0000
0.6316 1.9474 0.0000
0.6316 2.0000 0.0000
0.7368 1.0000 0.0000
0.7368 1.0526 0.0000
0.7368 1.1053 0.0000
0.7368 1.1579 0.0000
0.7368 1.2105 0.0000
0.7368 1.2632 0.0000
0.7368 1.3158 0.0000
0.7368 1.3684 0.0000
0.7368 1.4211 0.0000
0.7368 1.4737 0.0000
0.7368 1.5263 0.0000
0.7368 1.5789 0.0000
0.7368 1.6316 0.0000
0.7368 1.6842 0.0000
0.7368 1.7368 0.0000
0.7368 1.7895 0.0000
0.7368 1.8421 0.0000
0.7368 1.8947 0.0000
0.7368 1.9474 0.0000
0.7368 2.0000 0.0000
0.8421 1.0000 0.0000
0.8421 1.0526 0.0000
0.8421 1.1053 0.0000
0.8421 1.1579 0.0000
0.8421 1.2105 0.0000
0.8421 1.2632 0.0000
0.8421 1.3158 0.0000
0.8421 1.3684 0.0000
0.8421 1.4211 0.0000
0.8421 1.4737 0.0000
0.8421 1.5263 0.0000
0.8421 1.5789 0.0000
0.8421 1.6316 0.0000
0.8421 1.6842 0.0000
0.8421 1.7368 0.0000
0.8421 1.7895 0.0000
0.8421 1.8421 0.0000
0.8421 1.8947 0.0000
0.8421 1.9474 0.0000
0.8421 2.0000 0.0000
0.9474 1.0000 0.0000
0.9474 1.0526 0.0000
0.9474 1.1053 0.0000
0.9474 1.1579 0.0000
0.9474 1.2105 0.0000
0.9474 1.2632 0.0000
0.9474 1.3158 0.0000
0.9474 1.3684 0.0000
0.9474 1.4211 0.0000
0.9474 1.4737 0.0000
0.9474 1.5263 0.0000
0.9474 1.5789 0.0000
0.9474 1.6316 0.0000
0.9474 1.6842 0.0000
0.9474 1.7368 0.0000
0.9474 1.7895 0.0000
0.9474 1.8421 0.0000
0.9474 1.8947 0.0000
0.9474 1.9474 0.0000
0.9474 2.0000 0.0000
1.0526 1.0000 0.0000
1.0526 1.0526 0.0000
1.0526 1.1053 0.0000
1.0526 1.1579 0.0000
1.0526 1.2105 0.0000
1.0526 1.2632 0.0000
1.0526 1.3158 0.0000
1.0526 1.3684 0.0000
1.0526 1.4211 0.0000
1.0526 1.4737 0.0000
1.0526 1.5263 0.0000
1.0526 1.5789 0.0000
1.0526 1.6316 0.0000
1.0526 1.6842 0.0000
1.0526 1.7368 0.0000
1.0526 1.7895 0.0000
1.0526 1.8421 0.0000
1.0526 1.8947 0.0000
1.0526 1.9474 0.0000
1.0526 2.0000 0.0000
1.1579 1.0000 0.0000
1.1579 1.0526 0.0000
1.1579 1.1053 0.0000
1.1579 1.1579 0.0000
1.1579 1.2105 0.0000
1.1579 1.2632 0.0000
1.1579 1.3158 0.0000
1.1579 1.3684 0.0000
1.1579 1.4211 0.0000
1.1579 1.4737 0.0000
1.1579 1.5263 0.0000
1.1579 1.5789 0.0000
1.1579 1.6316 0.0000
1.1579 1.6842 0.0000
1.1579 1.7368 0.0000
1.1579 1.7895 0.0000
1.1579 1.8421 0.0000
1.1579 1.8947 0.0000
1.1579 1.9474 0.0000
1.1579 2.0000 0.0000
1.2632 1.0000 0.0000
1.2632 1.0526 0.0000
1.2632 1.1053 0.0000
1.2632 1.1579 0.0000
1.2632 1.2105 0.0000
1.2632 1.2632 0.0000
1.2632 1.3158 0.0000
1.2632 1.3684 0.0000
1.2632 1.4211 0.0000
1.2632 1.4737 0.0000
1.2632 1.5263 0.0000
1.2632 1.5789 0.0000
1.2632 1.6316 0.0000
1.2632 1.6842 0.0000
1.2632 1.7368 0.0000
1.2632 1.7895 0.0000
1.2632 1.8421 0.0000
1.2632 1.8947 0.0000
1.2632 1.9474 0.0000
1.2632 2.0000 0.0000
1.3684 1.0000 0.0000
1.3684 1.0526 0.0000
1.3684 1.1053 0.0000
1.3684 1.1579 0.0000
1.3684 1.2105 0.0000
1.3684 1.2632 0.0000
1.3684 1.3158 0.0000
1.3684 1.3684 0.0000
1.3684 1.4211 0.0000
1.3684 1.4737 0.0000
1.3684 1.5263 0.0000
1.3684 1.5789 0.0000
1.3684 1.6316 0.0000
1.3684 1.6842 0.0000
1.3684 1.7368 0.0000
1.3684 1.7895 0.0000
1.3684 1.8421 0.0000
1.3684 1.8947 0.0000
1.3684 1.9474 0.0000
1.3684 2.0000 0.0000
1.4737 1.0000 0.0000
1.4737 1.0526 0.0000
1.4737 1.1053 0.0000
1.4737 1.1579 0.0000
1.4737 1.2105 0.0000
1.4737 1.2632 0.0000
1.4737 1.3158 0.0000
1.4737 1.3684 0.0000
1.4737 1.4211 0.0000
1.4737 1.4737 0.0000
1.4737 1.5263 0.0000
1.4737 1.5789 0.0000
1.4737 1.6316 0.0000
1.4737 1.6842 0.0000
1.4737 1.7368 0.0000
1.4737 1.7895 0.0000
1.4737 1.8421 0.0000
1.4737 1.8947 0.0000
1.4737 1.9474 0.0000
1.4737 2.0000 0.0000
1.5789 1.0000 0.0000
1.5789 1.0526 0.0000
1.5789 1.1053 0.0000
1.5789 1.1579 0.0000
1.5789 1.2105 0.0000
1.5789 1.2632 0.0000
1.5789 1.3158 0.0000
1.5789 1.3684 0.0000
1.5789 1.4211 0.0000
1.5789 1.4737 0.0000
1.5789 1.5263 0.0000
1.5789 1.5789 0.0000
1.5789 1.6316 0.0000
1.5789 1.6842 0.0000
1.5789 1.7368 0.0000
1.5789 1.7895 0.0000
1.5789 1.8421 0.0000
1.5789 1.8947 0.0000
1.5789 1.9474 0.0000
1.5789 2.0000 0.0000
1.6842 1.0000 0.0000
1.6842 1.0526 0.0000
1.6842 1.1053 0.0000
1.6842 1.1579 0.0000
1.6842 1.2105 0.0000
1.6842 1.2632 0.0000
1.6842 1.3158 0.0000
1.6842 1.3684 0.0000
1.6842 1.4211 0.0000
1.6842 1.4737 0.0000
1.6842 1.5263 0.0000
1.6842 1.5789 0.0000
1.6842 1.6316 0.0000
1.6842 1.6842 0.0000
1.6842 1.7368 0.0000
1.6842 1.7895 0.0000
1.6842 1.8421 0.0000
1.6842 1.8947 0.0000
1.6842 1.9474 0.0000
1.6842 2.0000 0.0000
1.7895 1.0000 0.0000
1.7895 1.0526 0.0000
1.7895 1.1053 0.0000
1.7895 1.1579 0.0000
1.7895 1.2105 0.0000
1.7895 1.2632 0.0000
1.7895 1.3158 0.0000
1.7895 1.3684 0.0000
1.7895 1.4211 0.0000
1.7895 1.4737 0.0000
1.7895 1.5263 0.0000
1.7895 1.5789 0.0000
1.7895 1.6316 0.0000
1.7895 1.6842 0.0000
1.7895 1.7368 0.0000
1.7895 1.7895 0.0000
1.7895 1.8421 0.0000
1.7895 1.8947 0.0000
1.7895 1.9474 0.0000
1.7895 2.0000 0.0000
1.8947 1.0000 0.0000
1.8947 1.0526 0.0000
1.8947 1.1053 0.0000
1.8947 1.1579 0.0000
1.8947 1.2105 0.0000
1.8947 1.2632 0.0000
1.8947 1.3158 0.0000
1.8947 1.3684 0.0000
1.8947 1.4211 0.0000
1.8947 1.4737 0.0000
1.8947 1.5263 0.0000
1.8947 1.5789 0.0000
1.8947 1.6316 0.0000
1.8947 1.6842 0.0000
1.8947 1.7368 0.0000
1.8947 1.7895 0.0000
1.8947 1.8421 0.0000
1.8947 1.8947 0.0000
1.8947 1.9474 0.0000
1.8947 2.0000 0.0000
2.0000 1.0000 0.0000
2.0000 1.0526 0.0000
2.0000 1.1053 0.0000
2.0000 1.1579 0.0000
2.0000 1.2105 0.0000
2.0000 1.2632 0.0000
2.0000 1.3158 0.0000
2.0000 1.3684 0.0000
2.0000 1.4211 0.0000
2.0000 1.4737 0.0000
2.0000 1.5263 0.0000
2.0000 1.5789 0.0000
2.0000 1.6316 0.0000
2.0000 1.6842 0.0000
2.0000 1.7368 0.0000
2.0000 1.7895 0.0000
2.0000 1.8421 0.0000
2.0000 1.8947 0.0000
2.0000 1.9474 0.0000
2.0000 2.0000 0.0000
0.0526 1.0263 0.0000
0.0526 1.0789 0.0000
0.0526 1.1316 0.0000
0.0526 1.1842 0.0000
0.0526 1.2368 0.0000
0.0526 1.2895 0.0000
0.0526 1.3421 0.0000
0.0526 1.3947 0.0000
0.0526 1.4474 0.0000
0.0526 1.5000 0.0000
0.0526 1.5526 0.0000
0.0526 1.6053 0.0000
0.0526 1.6579 0.0000
0.0526 1.7105 0.0000
0.0526 1.7632 0.0000
0.0526 1.8158 0.0000
0.0526 1.8684 0.0000
0.0526 1.9211 0.0000
0.0526 1.9737 0.0000
0.1579 1.0263 0.0000
0.1579 1.0789 0.0000
0.1579 1.1316 0.0000
0.1579 1.1842 0.0000
0.1579 1.2368 0.0000
0.1579 1.2895 0.0000
0.1579 1.3421 0.0000
0.1579 1.3947 0.0000
0.1579 1.4474 0.0000
0.1579 1.5000 0.0000
0.1579 1.5526 0.0000
0.1579 1.6053 0.0000
0.1579 1.6579 0.0000
0.1579 1.7105 0.0000
0.1579 1.7632 0.0000
0.1579 1.8158 0.0000
0.1579 1.8684 0.0000
0.1579 1.9211 0.0000
0.1579 1.9737 0.0000
0.2632 1.0263 0.0000
0.2632 1.0789 0.0000
0.2632 1.1316 0.0000
0.2632 1.1842 0.0000
0.2632 1.2368 0.0000
0.2632 1.2895 0.0000
0.2632 1.3421 0.0000
0.2632 1.3947 0.0000
0.2632 1.4474 0.0000
0.2632 1.5000 0.0000
0.2632 1.5526 0.0000
0.2632 1.6053 0.0000
0.2632 1.6579 0.0000
0.2632 1.7105 0.0000
0.2632 1.7632 0.0000
0.2632 1.8158 0.0000
0.2632 1.8684 0.0000
0.2632 1.9211 0.0000
0.2632 1.9737 0.0000
0.3684 1.0263 0.0000
0.3684 1.0789 0.0000
0.3684 1.1316 0.0000
0.3684 1.1842 0.0000
[...]
         <PointData>
            <DataArray Name="displacement" NumberOfComponents="3" format="ascii" type="Float64">
 1.79843e-18  2.76446e-18        00000 
 2.89810e-18 -9.66032e-19        00000 
 3.33756e-18  1.43038e-18        00000 
-4.02865e-18  3.29481e-19        00000 
 2.38397e-18 -2.26477e-18        00000 
-5.52505e-18  6.25396e-19        00000 
 2.14557e-18 -5.95992e-19        00000 
-1.15038e-18 -5.16686e-19        00000 
 7.89690e-19  1.19198e-19        00000 
-3.00610e-20 -1.44293e-18        00000 
-5.51293e-19  9.53587e-19        00000 
 2.44303e-19  7.86261e-19        00000 
-1.19198e-18  7.15191e-19        00000 
 1.20793e-18 -1.19572e-18        00000 
 1.19198e-18  3.33756e-18        00000 
-1.57252e-19 -3.51946e-18        00000 
 1.90717e-18  4.05275e-18        00000 
-1.92404e-18 -3.84809e-18        00000 
 2.16398e-18  4.08751e-18        00000 
-3.06395e-18 -4.80631e-18        00000 
 4.50385e-02  2.82613e-02        00000 
 3.43069e-02  2.15510e-02        00000 
 2.77544e-02  1.71968e-02        00000 
 2.26876e-02  1.42597e-02        00000 
 1.84058e-02  1.22113e-02        00000 
 1.45940e-02  1.07614e-02        00000 
 1.10790e-02  9.74056e-03        00000 
 7.75473e-03  9.04596e-03        00000 
 4.54933e-03  8.61514e-03        00000 
 1.40878e-03  8.41224e-03        00000 
-1.71248e-03  8.42122e-03        00000 
-4.85766e-03  8.64288e-03        00000 
-8.07293e-03  9.09507e-03        00000 
-1.14138e-02  9.81600e-03        00000 
-1.49551e-02  1.08718e-02        00000 
-1.88090e-02  1.23712e-02        00000 
-2.31603e-02  1.44929e-02        00000 
-2.83422e-02  1.75366e-02        00000 
-3.50615e-02  2.20216e-02        00000 
-4.58520e-02  2.88256e-02        00000 
 7.98869e-02  5.13147e-02        00000 
 6.75462e-02  4.60963e-02        00000 
 5.62630e-02  4.11840e-02        00000 
 4.65213e-02  3.71328e-02        00000 
 3.79133e-02  3.39456e-02        00000 
 3.01063e-02  3.15088e-02        00000 
 2.28595e-02  2.97037e-02        00000 
 1.59962e-02  2.84339e-02        00000 
 9.38143e-03  2.76296e-02        00000 
 2.90515e-03  2.72469e-02        00000 
-3.52950e-03  2.72646e-02        00000 
-1.00156e-02  2.76840e-02        00000 
-1.66510e-02  2.85280e-02        00000 
-2.35480e-02  2.98433e-02        00000 
-3.08453e-02  3.17018e-02        00000 
-3.87253e-02  3.42022e-02        00000 
-4.74346e-02  3.74626e-02        00000 
-5.72987e-02  4.15885e-02        00000 
-6.86742e-02  4.65604e-02        00000 
-8.10274e-02  5.18322e-02        00000 
 1.11894e-01  7.94068e-02        00000 
 9.68456e-02  7.44620e-02        00000 
 8.26650e-02  7.00204e-02        00000 
 6.94006e-02  6.60754e-02        00000 
 5.70800e-02  6.27261e-02        00000 
 4.55741e-02  6.00022e-02        00000 
 3.47149e-02  5.78876e-02        00000 
 2.43367e-02  5.63488e-02        00000 
 1.42871e-02  5.53521e-02        00000 
 4.42636e-03  5.48719e-02        00000 
-5.37674e-03  5.48950e-02        00000 
-1.52509e-02  5.54220e-02        00000 
-2.53282e-02  5.64676e-02        00000 
-3.57496e-02  5.80582e-02        00000 
-4.66693e-02  6.02281e-02        00000 
-5.82541e-02  6.30100e-02        00000 
-7.06688e-02  6.64171e-02        00000 
-8.40278e-02  7.04163e-02        00000 
-9.82752e-02  7.49096e-02        00000 
-1.13328e-01  7.99070e-02        00000 
 1.41867e-01  1.13219e-01        00000 
 1.23891e-01  1.08639e-01        00000 
 1.06773e-01  1.04522e-01        00000 
 9.04851e-02  1.00882e-01        00000 
 7.49832e-02  9.77322e-02        00000 
 6.02023e-02  9.50990e-02        00000 
 4.60373e-02  9.29992e-02        00000 
 3.23583e-02  9.14370e-02        00000 
 1.90261e-02  9.04086e-02        00000 
 5.89862e-03  8.99086e-02        00000 
-7.16564e-03  8.99334e-02        00000 
-2.03080e-02  9.04832e-02        00000 
-3.36702e-02  9.15619e-02        00000 
-4.73944e-02  9.31753e-02        00000 
-6.16199e-02  9.53265e-02        00000 
-7.64752e-02  9.80110e-02        00000 
-9.20615e-02  1.01211e-01        00000 
-1.08433e-01  1.04900e-01        00000 
-1.25609e-01  1.09064e-01        00000 
-1.43585e-01  1.13695e-01        00000 
 1.69769e-01  1.52949e-01        00000 
 1.48928e-01  1.48704e-01        00000 
 1.28974e-01  1.44911e-01        00000 
 1.09833e-01  1.41564e-01        00000 
 9.14340e-02  1.38669e-01        00000 
 7.36987e-02  1.36237e-01        00000 
 5.65330e-02  1.34282e-01        00000 
 3.98252e-02  1.32813e-01        00000 
 2.34503e-02  1.31839e-01        00000 
 7.27470e-03  1.31364e-01        00000 
-8.83900e-03  1.31388e-01        00000 
-2.50294e-02  1.31912e-01        00000 
-4.14339e-02  1.32934e-01        00000 
-5.81855e-02  1.34450e-01        00000 
-7.54088e-02  1.36453e-01        00000 
-9.32142e-02  1.38932e-01        00000 
-1.11692e-01  1.41872e-01        00000 
-1.30912e-01  1.45264e-01        00000 
-1.50921e-01  1.49102e-01        00000 
-1.71757e-01  1.53395e-01        00000 
 1.95568e-01  1.98311e-01        00000 
 1.72024e-01  1.94404e-01        00000 
 1.49394e-01  1.90920e-01        00000 
 1.27581e-01  1.87856e-01        00000 
 1.06496e-01  1.85212e-01        00000 
 8.60495e-02  1.82994e-01        00000 
 6.61432e-02  1.81210e-01        00000 
 4.66691e-02  1.79868e-01        00000 
 2.75091e-02  1.78977e-01        00000 
 8.53753e-03  1.78542e-01        00000 
-1.03755e-02  1.78564e-01        00000 
-2.93613e-02  1.79044e-01        00000 
-4.85497e-02  1.79980e-01        00000 
-6.80658e-02  1.81366e-01        00000 
-8.80271e-02  1.83193e-01        00000 
-1.08541e-01  1.85454e-01        00000 
-1.29702e-01  1.88140e-01        00000 
-1.51591e-01  1.91246e-01        00000 
-1.74273e-01  1.94771e-01        00000 
-1.97809e-01  1.98723e-01        00000 
 2.19259e-01  2.48914e-01        00000 
 1.93215e-01  2.45340e-01        00000 
 1.68102e-01  2.42157e-01        00000 
 1.43814e-01  2.39363e-01        00000 
 1.20251e-01  2.36957e-01        00000 
 9.73130e-02  2.34944e-01        00000 
 7.48998e-02  2.33326e-01        00000 
 5.29022e-02  2.32112e-01        00000 
 3.12050e-02  2.31305e-01        00000 
 9.68742e-03  2.30911e-01        00000 
-1.17745e-02  2.30932e-01        00000 
-3.33058e-02  2.31366e-01        00000 
-5.50304e-02  2.32213e-01        00000 
-7.70684e-02  2.33467e-01        00000 
-9.95350e-02  2.35124e-01        00000 
-1.22538e-01  2.37177e-01        00000 
-1.46176e-01  2.39621e-01        00000 
-1.70539e-01  2.42453e-01        00000 
-1.95701e-01  2.45675e-01        00000 
-2.21736e-01  2.49290e-01        00000 
 2.40870e-01  3.04326e-01        00000 
 2.12539e-01  3.01078e-01        00000 
 1.85151e-01  2.98188e-01        00000 
 1.58593e-01  2.95653e-01        00000 
 1.32760e-01  2.93474e-01        00000 
 1.07547e-01  2.91652e-01        00000 
 8.28488e-02  2.90192e-01        00000 
 5.85569e-02  2.89096e-01        00000 
 3.45567e-02  2.88369e-01        00000 
 1.07304e-02  2.88014e-01        00000 
-1.30423e-02  2.88032e-01        00000 
-3.68822e-02  2.88423e-01        00000 
-6.09091e-02  2.89186e-01        00000 
-8.52407e-02  2.90317e-01        00000 
-1.09991e-01  2.91814e-01        00000 
-1.35268e-01  2.93670e-01        00000 
-1.61175e-01  2.95884e-01        00000 
-1.87806e-01  2.98454e-01        00000 
-2.15243e-01  3.01380e-01        00000 
-2.43564e-01  3.04665e-01        00000 
 2.60441e-01  3.64111e-01        00000 
 2.30036e-01  3.61182e-01        00000 
 2.00582e-01  3.58576e-01        00000 
 1.71965e-01  3.56292e-01        00000 
 1.44072e-01  3.54330e-01        00000 
 1.16796e-01  3.52690e-01        00000 
 9.00299e-02  3.51376e-01        00000 
 6.36636e-02  3.50390e-01        00000 
 3.75832e-02  3.49737e-01        00000 
 1.16726e-02  3.49417e-01        00000 
-1.41857e-02  3.49433e-01        00000 
-4.01097e-02  3.49784e-01        00000 
-6.62167e-02  3.50469e-01        00000 
-9.26225e-02  3.51486e-01        00000 
-1.19441e-01  3.52831e-01        00000 
-1.46780e-01  3.54502e-01        00000 
-1.74747e-01  3.56496e-01        00000 
-2.03437e-01  3.58812e-01        00000 
-2.32938e-01  3.61450e-01        00000 
-2.63332e-01  3.64413e-01        00000 
 2.78012e-01  4.27841e-01        00000 
 2.45744e-01  4.25224e-01        00000 
 2.14436e-01  4.22896e-01        00000 
 1.83967e-01  4.20855e-01        00000 
 1.54225e-01  4.19100e-01        00000 
 1.25097e-01  4.17633e-01        00000 
 9.64753e-02  4.16456e-01        00000 
 6.82475e-02  4.15572e-01        00000 
 4.03004e-02  4.14986e-01        00000 
 1.25195e-02  4.14698e-01        00000 
-1.52104e-02  4.14712e-01        00000 
-4.30048e-02  4.15026e-01        00000 
-7.09786e-02  4.15639e-01        00000 
-9.92464e-02  4.16550e-01        00000 
-1.27921e-01  4.17754e-01        00000 
-1.57113e-01  4.19248e-01        00000 
-1.86929e-01  4.21031e-01        00000 
-2.17471e-01  4.23100e-01        00000 
-2.48827e-01  4.25457e-01        00000 
-2.81084e-01  4.28105e-01        00000 
 2.93621e-01  4.95098e-01        00000 
 2.59696e-01  4.92788e-01        00000 
 2.26742e-01  4.90732e-01        00000 
 1.94633e-01  4.88927e-01        00000 
 1.63252e-01  4.87370e-01        00000 
 1.32484e-01  4.86065e-01        00000 
 1.02215e-01  4.85015e-01        00000 
 7.23325e-02  4.84224e-01        00000 
 4.27240e-02  4.83697e-01        00000 
 1.32766e-02  4.83439e-01        00000 
-1.61218e-02  4.83450e-01        00000 
-4.55830e-02  4.83730e-01        00000 
-7.52190e-02  4.84279e-01        00000 
-1.05142e-01  4.85093e-01        00000 
-1.35465e-01  4.86166e-01        00000 
-1.66300e-01  4.87494e-01        00000 
-1.97756e-01  4.89074e-01        00000 
-2.29939e-01  4.90905e-01        00000 
-2.62942e-01  4.92987e-01        00000 
-2.96856e-01  4.95325e-01        00000 
 3.07289e-01  5.65477e-01        00000 
 2.71914e-01  5.63472e-01        00000 
 2.37525e-01  5.61684e-01        00000 
 2.03994e-01  5.60105e-01        00000 
 1.71190e-01  5.58735e-01        00000 
 1.38993e-01  5.57578e-01        00000 
 1.07284e-01  5.56640e-01        00000 
 7.59476e-02  5.55928e-01        00000 
 4.48728e-02  5.55451e-01        00000 
 1.39504e-02  5.55216e-01        00000 
-1.69264e-02  5.55224e-01        00000 
-4.78632e-02  5.55478e-01        00000 
-7.89665e-02  5.55972e-01        00000 
-1.10345e-01  5.56702e-01        00000 
-1.42110e-01  5.57659e-01        00000 
-1.74376e-01  5.58836e-01        00000 
-2.07258e-01  5.60225e-01        00000 
-2.40868e-01  5.61826e-01        00000 
-2.75307e-01  5.63638e-01        00000 
-3.10673e-01  5.65668e-01        00000 
 3.19012e-01  6.38577e-01        00000 
 2.82399e-01  6.36879e-01        00000 
 2.46804e-01  6.35353e-01        00000 
 2.12080e-01  6.33992e-01        00000 
 1.78081e-01  6.32793e-01        00000 
 1.44674e-01  6.31764e-01        00000 
 1.11731e-01  6.30916e-01        00000 
 7.91346e-02  6.30264e-01        00000 
 4.67748e-02  6.29823e-01        00000 
 1.45506e-02  6.29602e-01        00000 
-1.76343e-02  6.29609e-01        00000 
-4.98735e-02  6.29844e-01        00000 
-8.22631e-02  6.30300e-01        00000 
-1.14904e-01  6.30966e-01        00000 
-1.47906e-01  6.31829e-01        00000 
-1.81386e-01  6.32873e-01        00000 
-2.15468e-01  6.34089e-01        00000 
-2.50275e-01  6.35468e-01        00000 
-2.85926e-01  6.37014e-01        00000 
-3.22532e-01  6.38735e-01        00000 
 3.28743e-01  7.13979e-01        00000 
 2.91130e-01  7.12596e-01        00000 
 2.54586e-01  7.11335e-01        00000 
 2.18929e-01  7.10181e-01        00000 
 1.83987e-01  7.09136e-01        00000 
 1.49602e-01  7.08212e-01        00000 
 1.15633e-01  7.07428e-01        00000 
 8.19587e-02  7.06811e-01        00000 
 4.84742e-02  7.06384e-01        00000 
 1.50923e-02  7.06168e-01        00000 
-1.82616e-02  7.06175e-01        00000 
-5.16590e-02  7.06403e-01        00000 
-8.51747e-02  7.06842e-01        00000 
-1.18896e-01  7.07471e-01        00000 
-1.52927e-01  7.08267e-01        00000 
-1.87389e-01  7.09204e-01        00000 
-2.22421e-01  7.10262e-01        00000 
-2.58167e-01  7.11431e-01        00000 
-2.94775e-01  7.12709e-01        00000 
-3.32387e-01  7.14112e-01        00000 
 3.36365e-01  7.91196e-01        00000 
 2.98048e-01  7.90149e-01        00000 
 2.60865e-01  7.89161e-01        00000 
 2.24581e-01  7.88221e-01        00000 
 1.88980e-01  7.87329e-01        00000 
 1.53874e-01  7.86502e-01        00000 
 1.19099e-01  7.85768e-01        00000 
 8.45206e-02  7.85162e-01        00000 
 5.00415e-02  7.84730e-01        00000 
 1.56014e-02  7.84505e-01        00000 
-1.88362e-02  7.84512e-01        00000 
-5.32924e-02  7.84749e-01        00000 
-8.78037e-02  7.85195e-01        00000 
-1.22431e-01  7.85813e-01        00000 
-1.57271e-01  7.86559e-01        00000 
-1.92458e-01  7.87398e-01        00000 
-2.28154e-01  7.88301e-01        00000 
-2.64537e-01  7.89253e-01        00000 
-3.01794e-01  7.90254e-01        00000 
-3.40117e-01  7.91318e-01        00000 
 3.41697e-01  8.69561e-01        00000 
 3.03072e-01  8.68876e-01        00000 
 2.65610e-01  8.68198e-01        00000 
 2.29033e-01  8.67531e-01        00000 
 1.93099e-01  8.66872e-01        00000 
 1.57582e-01  8.66215e-01        00000 
 1.22261e-01  8.65574e-01        00000 
 8.69717e-02  8.64999e-01        00000 
 5.15970e-02  8.64545e-01        00000 
 1.61173e-02  8.64306e-01        00000 
-1.94008e-02  8.64315e-01        00000 
-5.48971e-02  8.64571e-01        00000 
-9.03050e-02  8.65043e-01        00000 
-1.25644e-01  8.65633e-01        00000 
-1.61032e-01  8.66291e-01        00000 
-1.96633e-01  8.66961e-01        00000 
-2.32667e-01  8.67634e-01        00000 
-2.69349e-01  8.68312e-01        00000 
-3.06893e-01  8.69001e-01        00000 
-3.45537e-01  8.69697e-01        00000 
 3.44626e-01  9.48083e-01        00000 
 3.06171e-01  9.47770e-01        00000 
 2.68749e-01  9.47472e-01        00000 
 2.32148e-01  9.47243e-01        00000 
 1.96185e-01  9.47069e-01        00000 
 1.60637e-01  9.46890e-01        00000 
 1.25201e-01  9.46628e-01        00000 
 8.94866e-02  9.46234e-01        00000 
 5.33403e-02  9.45889e-01        00000 
 1.67588e-02  9.45608e-01        00000 
-2.00791e-02  9.45621e-01        00000 
-5.66776e-02  9.45928e-01        00000 
-9.28578e-02  9.46299e-01        00000 
-1.28623e-01  9.46717e-01        00000 
-1.64127e-01  9.47004e-01        00000 
-1.99759e-01  9.47204e-01        00000 
-2.35821e-01  9.47397e-01        00000 
-2.72526e-01  9.47641e-01        00000 
-3.10034e-01  9.47947e-01        00000 
-3.48523e-01  9.48265e-01        00000 
 3.45503e-01  1.02548e+00        00000 
 3.07538e-01  1.02546e+00        00000 
 2.70225e-01  1.02558e+00        00000 
 2.33631e-01  1.02594e+00        00000 
 1.97718e-01  1.02658e+00        00000 
 1.62356e-01  1.02750e+00        00000 
 1.27294e-01  1.02858e+00        00000 
 9.20679e-02  1.02953e+00        00000 
 5.54938e-02  1.02968e+00        00000 
 1.74868e-02  1.03004e+00        00000 
-2.08387e-02  1.03006e+00        00000 
-5.88623e-02  1.02974e+00        00000 
-9.54705e-02  1.02963e+00        00000 
-1.30749e-01  1.02872e+00        00000 
-1.65878e-01  1.02767e+00        00000 
-2.01324e-01  1.02679e+00        00000 
-2.37330e-01  1.02617e+00        00000 
-2.74018e-01  1.02584e+00        00000 
-3.11409e-01  1.02573e+00        00000 
-3.49421e-01  1.02575e+00        00000 
 3.45529e-01  1.10117e+00        00000 
 3.07838e-01  1.10114e+00        00000 
 2.70494e-01  1.10114e+00        00000 
 2.33721e-01  1.10144e+00        00000 
 1.97545e-01  1.10235e+00        00000 
 1.61872e-01  1.10422e+00        00000 
 1.26481e-01  1.10758e+00        00000 
 9.09244e-02  1.11319e+00        00000 
 5.45200e-02  1.12215e+00        00000 
 1.71563e-02  1.12626e+00        00000 
-2.05444e-02  1.12630e+00        00000 
-5.79250e-02  1.12224e+00        00000 
-9.43632e-02  1.11335e+00        00000 
-1.29970e-01  1.10780e+00        00000 
-1.65426e-01  1.10450e+00        00000 
-2.01177e-01  1.10267e+00        00000 
-2.37439e-01  1.10180e+00        00000 
-2.74294e-01  1.10151e+00        00000 
-3.11704e-01  1.10150e+00        00000 
-3.49448e-01  1.10153e+00        00000 
 1.89877e-02  1.16299e-02        00000 
 1.49706e-02  9.20954e-03        00000 
 1.22287e-02  7.49538e-03        00000 
 9.99964e-03  6.30207e-03        00000 
 8.05327e-03  5.45834e-03        00000 
 6.27875e-03  4.85995e-03        00000 
 4.61320e-03  4.44345e-03        00000 
 3.01686e-03  4.16978e-03        00000 
 1.46166e-03  4.01554e-03        00000 
-7.46777e-05  3.96830e-03        00000 
-1.61206e-03  4.02440e-03        00000 
-3.17053e-03  4.18833e-03        00000 
-4.77281e-03  4.47345e-03        00000 
-6.44794e-03  4.90458e-03        00000 
-8.23776e-03  5.52297e-03        00000 
-1.02097e-02  6.39581e-03        00000 
-1.24845e-02  7.63326e-03        00000 
-1.53122e-02  9.41452e-03        00000 
-1.94615e-02  1.19455e-02        00000 
 5.70246e-02  3.66840e-02        00000 
 4.64599e-02  3.11479e-02        00000 
 3.81843e-02  2.70900e-02        00000 
 3.12381e-02  2.40598e-02        00000 
 2.51241e-02  2.18031e-02        00000 
 1.95538e-02  2.01437e-02        00000 
 1.43440e-02  1.89598e-02        00000 
 9.36932e-03  1.81691e-02        00000 
 4.53652e-03  1.77191e-02        00000 
-2.30772e-04  1.75809e-02        00000 
-5.00165e-03  1.77459e-02        00000 
-9.84562e-03  1.82246e-02        00000 
-1.48404e-02  1.90481e-02        00000 
-2.00821e-02  2.02715e-02        00000 
-2.57014e-02  2.19808e-02        00000 
-3.18899e-02  2.43025e-02        00000 
-3.89458e-02  2.74171e-02        00000 
-4.73592e-02  3.15756e-02        00000 
-5.80019e-02  3.71864e-02        00000 
 8.91324e-02  6.26118e-02        00000 
 7.59432e-02  5.77187e-02        00000 
 6.37637e-02  5.33340e-02        00000 
 5.27303e-02  4.96865e-02        00000 
 4.26434e-02  4.67628e-02        00000 
 3.32797e-02  4.44988e-02        00000 
 2.44448e-02  4.28236e-02        00000 
 1.59766e-02  4.16770e-02        00000 
 7.73780e-03  4.10146e-02        00000 
-3.92963e-04  4.08102e-02        00000 
-8.52963e-03  4.10556e-02        00000 
-1.67866e-02  4.17608e-02        00000 
-2.52865e-02  4.29537e-02        00000 
-3.41691e-02  4.46804e-02        00000 
-4.35998e-02  4.70023e-02        00000 
-5.37755e-02  4.99900e-02        00000 
-6.49143e-02  5.37042e-02        00000 
-7.71888e-02  5.81485e-02        00000 
-9.04226e-02  6.30952e-02        00000 
 1.18711e-01  9.37069e-02        00000 
 1.02621e-01  8.91856e-02        00000 
 8.74012e-02  8.51436e-02        00000 
 7.30368e-02  8.16104e-02        00000 
 5.94883e-02  7.86389e-02        00000 
 4.66449e-02  7.62434e-02        00000 
 3.43654e-02  7.44147e-02        00000 
 2.25017e-02  7.31343e-02        00000 
 1.09086e-02  7.23840e-02        00000 
-5.54152e-04  7.21513e-02        00000 
-1.20241e-02  7.24320e-02        00000 
-2.36389e-02  7.32312e-02        00000 
-3.55395e-02  7.45621e-02        00000 
-4.78719e-02  7.64435e-02        00000 
-6.07844e-02  7.88933e-02        00000 
-7.44165e-02  8.19194e-02        00000 
-8.88709e-02  8.55052e-02        00000 
-1.04169e-01  8.95977e-02        00000 
-1.20292e-01  9.41694e-02        00000 
 1.46189e-01  1.30658e-01        00000 
 1.27212e-01  1.26477e-01        00000 
 1.09079e-01  1.22751e-01        00000 
 9.17371e-02  1.19490e-01        00000 
 7.51211e-02  1.16708e-01        00000 
 5.91475e-02  1.14424e-01        00000 
 4.37080e-02  1.12650e-01        00000 
 2.86765e-02  1.11391e-01        00000 
 1.39176e-02  1.10646e-01        00000 
-7.07954e-04  1.10414e-01        00000 
-1.53410e-02  1.10695e-01        00000 
-3.01223e-02  1.11489e-01        00000 
-4.51911e-02  1.12798e-01        00000 
-6.06826e-02  1.14621e-01        00000 
-7.67219e-02  1.16954e-01        00000 
-9.34154e-02  1.19785e-01        00000 
-1.10840e-01  1.23093e-01        00000 
-1.29045e-01  1.26865e-01        00000 
-1.48051e-01  1.31094e-01        00000 
 1.71643e-01  1.73384e-01        00000 
 1.49894e-01  1.69530e-01        00000 