<?xml version="1.0" encoding="utf-8"?>
<VTKFile byte_order="LittleEndian" type="UnstructuredGrid" version="0.1">
   <UnstructuredGrid>
      <Piece NumberOfCells="1444" NumberOfPoints="761">
         <Points>
            <DataArray Name="Points" NumberOfComponents="3" format="ascii" type="Float32">
0.0000 1.0000 0.0000
0.0000 1.0526 0.0000
0.0000 1.1053 0.0000
0.0000 1.1579 0.0000
0.0000 1.2105 0.0000
0.0000 1.2632 0.0000
0.0000 1.3158 0.0000
0.0000 1.3684 0.0000
0.0000 1.4211 0.0000
0.0000 1.4737 0.0000
0.0000 1.5263 0.0000
0.0000 1.5789 0.0000
0.0000 1.6316 0.0000
0.0000 1.6842 0.0000
0.0000 1.7368 0.0000
0.0000 1.7895 0.0000
0.0000 1.8421 0.0000
0.0000 1.8947 0.0000
0.0000 1.9474 0.0000
0.0000 2.0000 0.0000
0.1053 1.0000 0.0000
0.1053 1.0526 0.0000
0.1053 1.1053 0.0000
0.1053 1.1579 0.0000
0.1053 1.2105 0.0000
0.1053 1.2632 0.0000
0.1053 1.3158 0.0000
0.1053 1.3684 0.0000
0.1053 1.4211 0.0000
0.1053 1.4737 0.0000
0.1053 1.5263 0.0000
0.1053 1.5789 0.0000
0.1053 1.6316 0.0000
0.1053 1.6842 0.0000
0.1053 1.7368 0.0000
0.1053 1.7895 0.0000
0.1053 1.8421 0.0000
0.1053 1.8947 0.0000
0.1053 1.9474 0.0000
0.1053 2.0000 0.0000
0.2105 1.0000 0.0000
0.2105 1.0526 0.0000
0.2105 1.1053 0.0000
0.2105 1.1579 0.0000
0.2105 1.2105 0.0000
0.2105 1.2632 0.0000
0.2105 1.3158 0.0000
0.2105 1.3684 0.0000
0.2105 1.4211 0.0000
0.2105 1.4737 0.0000
0.2105 1.5263 0.0000
0.2105 1.5789 0.0000
0.2105 1.6316 0.0000
0.2105 1.6842 0.0000
0.2105 1.7368 0.0000
0.2105 1.7895 0.0000
0.2105 1.8421 0.0000
0.2105 1.8947 0.0000
0.2105 1.9474 0.0000
0.2105 2.0000 0.0000
0.3158 1.0000 0.0000
0.3158 1.0526 0.0000
0.3158 1.1053 0.0000
0.3158 1.1579 0.0000
0.3158 1.2105 0.0000
0.3158 1.2632 0.0000
0.3158 1.3158 0.0000
0.3158 1.3684 0.0000
0.3158 1.4211 0.0000
0.3158 1.4737 0.0000
0.3158 1.5263 0.0000
0.3158 1.5789 0.0000
0.3158 1.6316 0.0000
0.3158 1.6842 0.0000
0.3158 1.7368 0.0000
0.3158 1.7895 0.0000
0.3158 1.8421 0.0000
0.3158 1.8947 0.0000
0.3158 1.9474 0.0000
0.3158 2.0000 0.0000
0.4211 1.0000 0.0000
0.4211 1.0526 0.0000
0.4211 1.1053 0.0000
0.4211 1.1579 0.0000
0.4211 1.2105 0.0000
0.4211 1.2632 0.0000
0.4211 1.3158 0.0000
0.4211 1.3684 0.0000
0.4211 1.4211 0.0000
0.4211 1.4737 0.0000
0.4211 1.5263 0.0000
0.4211 1.5789 0.0000
0.4211 1.6316 0.0000
0.4211 1.6842 0.0000
0.4211 1.7368 0.0000
0.4211 1.7895 0.0000
0.4211 1.8421 0.0000
0.4211 1.8947 0.0000
0.4211 1.9474 0.0000
0.4211 2.0000 0.0000
0.5263 1.0000 0.0000
0.5263 1.0526 0.0000
0.5263 1.1053 0.0000
0.5263 1.1579 0.0000
0.5263 1.2105 0.0000
0.5263 1.2632 0.0000
0.5263 1.3158 0.0000
0.5263 1.3684 0.0000
0.5263 1.4211 0.0000
0.5263 1.4737 0.0000
0.5263 1.5263 0.0000
0.5263 1.5789 0.0000
0.5263 1.6316 0.0000
0.5263 1.6842 0.0000
0.5263 1.7368 0.0000
0.5263 1.7895 0.0000
0.5263 1.8421 0.0000
0.5263 1.8947 0.0000
0.5263 1.9474 0.0000
0.5263 2.0000 0.0000
0.6316 1.0000 0.0000
0.6316 1.0526 0.0000
0.6316 1.1053 0.0000
0.6316 1.1579 0.0000
0.6316 1.2105 0.0000
0.6316 1.2632 0.0000
0.6316 1.3158 0.0000
0.6316 1.3684 0.0000
0.6316 1.4211 0.0000
0.6316 1.4737 0.0000
0.6316 1.5263 0.0000
0.6316 1.5789 0.0000
0.6316 1.6316 0.0000
0.6316 1.6842 0.0000
0.6316 1.7368 0.0000
0.6316 1.7895 0.0000
0.6316 1.8421 0.0000
0.6316 1.8947 0.0000
0.6316 1.9474 0.0000
0.6316 2.0000 0.0000
0.7368 1.0000 0.0000
0.7368 1.0526 0.0000
0.7368 1.1053 0.0000
0.7368 1.1579 0.0000
0.7368 1.2105 0.0000
0.7368 1.2632 0.0000
0.7368 1.3158 0.0000
0.7368 1.3684 0.0000
0.7368 1.4211 0.0000
0.7368 1.4737 0.0000
0.7368 1.5263 0.0000
0.7368 1.5789 0.0000
0.7368 1.6316 0.0000
0.7368 1.6842 0.0000
0.7368 1.7368 0.0000
0.7368 1.7895 0.0000
0.7368 1.8421 0.0000
0.7368 1.8947 0.0000
0.7368 1.9474 0.0000
0.7368 2.0000 0.0000
0.8421 1.0000 0.0000
0.8421 1.0526 0.0000
0.8421 1.1053 0.0000
0.8421 1.1579 0.0000
0.8421 1.2105 0.0000
0.8421 1.2632 0.0000
0.8421 1.3158 0.0000
0.8421 1.3684 0.0000
0.8421 1.4211 0.0000
0.8421 1.4737 0.0000
0.8421 1.5263 0.0000
0.8421 1.5789 0.0000
0.8421 1.6316 0.0000
0.8421 1.6842 0.0000
0.8421 1.7368 0.0000
0.8421 1.7895 0.0000
0.8421 1.8421 0.0000
0.8421 1.8947 0.0000
0.8421 1.9474 0.0000
0.8421 2.0000 0.0000
0.9474 1.0000 0.0000
0.9474 1.0526 0.0000
0.9474 1.1053 0.0000
0.9474 1.1579 0.0000
0.9474 1.2105 0.0000
0.9474 1.2632 0.0000
0.9474 1.3158 0.0000
0.9474 1.3684 0.0000
0.9474 1.4211 0.0000
0.9474 1.4737 0.0000
0.9474 1.5263 0.0000
0.9474 1.5789 0.0000
0.9474 1.6316 0.0000
0.9474 1.6842 0.0000
0.9474 1.7368 0.0000
0.9474 1.7895 0.0000
0.9474 1.8421 0.0000
0.9474 1.8947 0.0000
0.9474 1.9474 0.0000
0.9474 2.0000 0.0000
1.0526 1.0000 0.0000
1.0526 1.0526 0.0000
1.0526 1.1053 0.0000
1.0526 1.1579 0.0000
1.0526 1.2105 0.0000
1.0526 1.2632 0.0000
1.0526 1.3158 0.0000
1.0526 1.3684 0.0000
1.0526 1.4211 0.0000
1.0526 1.4737 0.0000
1.0526 1.5263 0.0000
1.0526 1.5789 0.0000
1.0526 1.6316 0.0000
1.0526 1.6842 0.0000
1.0526 1.7368 0.0000
1.0526 1.7895 0.0000
1.0526 1.8421 0.0000
1.0526 1.8947 0.0000
1.0526 1.9474 0.0000
1.0526 2.0000 0.0000
1.1579 1.0000 0.0000
1.1579 1.0526 0.0000
1.1579 1.1053 0.0000
1.1579 1.1579 0.0000
1.1579 1.2105 0.0000
1.1579 1.2632 0.0000
1.1579 1.3158 0.0000
1.1579 1.3684 0.0000
1.1579 1.4211 0.0000
1.1579 1.4737 0.0000
1.1579 1.5263 0.0000
1.1579 1.5789 0.0000
1.1579 1.6316 0.0000
1.1579 1.6842 0.0000
1.1579 1.7368 0.0000
1.1579 1.7895 0.0000
1.1579 1.8421 0.0000
1.1579 1.8947 0.0000
1.1579 1.9474 0.0000
1.1579 2.0000 0.0000
1.2632 1.0000 0.0000
1.2632 1.0526 0.0000
1.2632 1.1053 0.0000
1.2632 1.1579 0.0000
1.2632 1.2105 0.0000
1.2632 1.2632 0.0000
1.2632 1.3158 0.0000
1.2632 1.3684 0.0000
1.2632 1.4211 0.0000
1.2632 1.4737 0.0000
1.2632 1.5263 0.0000
1.2632 1.5789 0.0000
1.2632 1.6316 0.0000
1.2632 1.6842 0.0000
1.2632 1.7368 0.0000
1.2632 1.7895 0.0000
1.2632 1.8421 0.0000
1.2632 1.8947 0.0000
1.2632 1.9474 0.0000
1.2632 2.0000 0.0000
1.3684 1.0000 0.0000
1.3684 1.0526 0.0000
1.3684 1.1053 0.0000
1.3684 1.1579 0.0000
1.3684 1.2105 0.0000
1.3684 1.2632 0.0000
1.3684 1.3158 0.0000
1.3684 1.3684 0.0000
1.3684 1.4211 0.0000
1.3684 1.4737 0.0000
1.3684 1.5263 0.0000
1.3684 1.5789 0.0000
1.3684 1.6316 0.0000
1.3684 1.6842 0.0000
1.3684 1.7368 0.0000
1.3684 1.7895 0.0000
1.3684 1.8421 0.0000
1.3684 1.8947 0.0000
1.3684 1.9474 0.0000
1.3684 2.0000 0.0000
1.4737 1.0000 0.0000
1.4737 1.0526 0.0000
1.4737 1.1053 0.0000
1.4737 1.1579 0.0000
1.4737 1.2105 0.0000
1.4737 1.2632 0.0000
1.4737 1.3158 0.0000
1.4737 1.3684 0.0000
1.4737 1.4211 0.0000
1.4737 1.4737 0.0000
1.4737 1.5263 0.0000
1.4737 1.5789 0.0000
1.4737 1.6316 0.0000
1.4737 1.6842 0.0000
1.4737 1.7368 0.0000
1.4737 1.7895 0.0000
1.4737 1.8421 0.0000
1.4737 1.8947 0.0000
1.4737 1.9474 0.0000
1.4737 2.0000 0.0000
1.5789 1.0000 0.0000
1.5789 1.0526 0.0000
1.5789 1.1053 0.0000
1.5789 1.1579 0.0000
1.5789 1.2105 0.0000
1.5789 1.2632 0.0000
1.5789 1.3158 0.0000
1.5789 1.3684 0.0000
1.5789 1.4211 0.0000
1.5789 1.4737 0.0000
1.5789 1.5263 0.0000
1.5789 1.5789 0.0000
1.5789 1.6316 0.0000
1.5789 1.6842 0.0000
1.5789 1.7368 0.0000
1.5789 1.7895 0.0000
1.5789 1.8421 0.0000
1.5789 1.8947 0.0000
1.5789 1.9474 0.0000
1.5789 2.0000 0.0000
1.6842 1.0000 0.0000
1.6842 1.0526 0.0000
1.6842 1.1053 0.0000
1.6842 1.1579 0.0000
1.6842 1.2105 0.0000
1.6842 1.2632 0.0000
1.6842 1.3158 0.0000
1.6842 1.3684 0.0000
1.6842 1.4211 0.0000
1.6842 1.4737 0.0000
1.6842 1.5263 0.0000
1.6842 1.5789 0.0000
1.6842 1.6316 0.0000
1.6842 1.6842 0.0000
1.6842 1.7368 0.0000
1.6842 1.7895 0.0000
1.6842 1.8421 0.0000
1.6842 1.8947 0.0000
1.6842 1.9474 0.0000
1.6842 2.0000 0.0000
1.7895 1.0000 0.0000
1.7895 1.0526 0.0000
1.7895 1.1053 0.0000
1.7895 1.1579 0.0000
1.7895 1.2105 0.0000
1.7895 1.2632 0.0000
1.7895 1.3158 0.0000
1.7895 1.3684 0.0000
1.7895 1.4211 0.0000
1.7895 1.4737 0.0000
1.7895 1.5263 0.0000
1.7895 1.5789 0.0000
1.7895 1.6316 0.0000
1.7895 1.6842 0.0000
1.7895 1.7368 0.0000
1.7895 1.7895 0.0000
1.7895 1.8421 0.0000
1.7895 1.8947 0.0000
1.7895 1.9474 0.0000
1.7895 2.0000 0.0000
1.8947 1.0000 0.0000
1.8947 1.0526 0.0000
1.8947 1.1053 0.0000
1.8947 1.1579 0.0000
1.8947 1.2105 0.0000
1.8947 1.2632 0.0000
1.8947 1.3158 0.0000
1.8947 1.3684 0.0000
1.8947 1.4211 0.0000
1.8947 1.4737 0.0000
1.8947 1.5263 0.0000
1.8947 1.5789 0.0000
1.8947 1.6316 0.0000
1.8947 1.6842 0.0000
1.8947 1.7368 0.0000
1.8947 1.7895 0.0000
1.8947 1.8421 0.0000
1.8947 1.8947 0.0000
1.8947 1.9474 0.0000
1.8947 2.0000 0.0000
2.0000 1.0000 0.0000
2.0000 1.0526 0.0000
2.0000 1.1053 0.0000
2.0000 1.1579 0.0000
2.0000 1.2105 0.0000
2.0000 1.2632 0.0000
2.0000 1.3158 0.0000
2.0000 1.3684 0.0000
2.0000 1.4211 0.0000
2.0000 1.4737 0.0000
2.0000 1.5263 0.0000
2.0000 1.5789 0.0000
2.0000 1.6316 0.0000
2.0000 1.6842 0.0000
2.0000 1.7368 0.0000
2.0000 1.7895 0.0000
2.0000 1.8421 0.0000
2.0000 1.8947 0.0000
2.0000 1.9474 0.0000
2.0000 2.0000 0.0000
0.0526 1.0263 0.0000
0.0526 1.0789 0.0000
0.0526 1.1316 0.0000
0.0526 1.1842 0.0000
0.0526 1.2368 0.0000
0.0526 1.2895 0.0000
0.0526 1.3421 0.0000
0.0526 1.3947 0.0000
0.0526 1.4474 0.0000
0.0526 1.5000 0.0000
0.0526 1.5526 0.0000
0.0526 1.6053 0.0000
0.0526 1.6579 0.0000
0.0526 1.7105 0.0000
0.0526 1.7632 0.0000
0.0526 1.8158 0.0000
0.0526 1.8684 0.0000
0.0526 1.9211 0.0000
0.0526 1.9737 0.0000
0.1579 1.0263 0.0000
0.1579 1.0789 0.0000
0.1579 1.1316 0.0000
0.1579 1.1842 0.0000
0.1579 1.2368 0.0000
0.1579 1.2895 0.0000
0.1579 1.3421 0.0000
0.1579 1.3947 0.0000
0.1579 1.4474 0.0000
0.1579 1.5000 0.0000
0.1579 1.5526 0.0000
0.1579 1.6053 0.0000
0.1579 1.6579 0.0000
0.1579 1.7105 0.0000
0.1579 1.7632 0.0000
0.1579 1.8158 0.0000
0.1579 1.8684 0.0000
0.1579 1.9211 0.0000
0.1579 1.9737 0.0000
0.2632 1.0263 0.0000
0.2632 1.0789 0.0000
0.2632 1.1316 0.0000
0.2632 1.1842 0.0000
0.2632 1.2368 0.0000
0.2632 1.2895 0.0000
0.2632 1.3421 0.0000
0.2632 1.3947 0.0000
0.2632 1.4474 0.0000
0.2632 1.5000 0.0000
0.2632 1.5526 0.0000
0.2632 1.6053 0.0000
0.2632 1.6579 0.0000
0.2632 1.7105 0.0000
0.2632 1.7632 0.0000
0.2632 1.8158 0.0000
0.2632 1.8684 0.0000
0.2632 1.9211 0.0000
0.2632 1.9737 0.0000
0.3684 1.0263 0.0000
0.3684 1.0789 0.0000
0.3684 1.1316 0.0000
0.3684 1.1842 0.0000
[...]
         <PointData>
            <DataArray Name="displacement" NumberOfComponents="3" format="ascii" type="Float64">
-2.63083e-18 -1.23193e-17        00000 
-9.66032e-18  3.86413e-18        00000 
 4.76794e-18 -1.90717e-18        00000 
-1.07830e-18 -1.94693e-19        00000 
-2.14557e-18 -4.76794e-19        00000 
 1.38729e-18 -1.46323e-18        00000 
 1.19198e-18  2.14557e-18        00000 
-1.73914e-18 -2.71822e-18        00000 
-9.53587e-19  2.86076e-18        00000 
 7.21465e-19        00000        00000 
-8.93988e-20  3.21836e-18        00000 
 2.32134e-19 -2.11167e-18        00000 
-4.76794e-19 -1.66878e-18        00000 
-8.03781e-20  1.88304e-18        00000 
-4.76794e-19 -1.07279e-18        00000 
 3.71415e-18 -1.78219e-18        00000 
-4.29114e-18  2.38397e-19        00000 
 2.88607e-18 -2.88607e-18        00000 
-9.61767e-19  2.40442e-18        00000 
 1.03323e-17 -1.86258e-18        00000 
 6.54295e-02  4.17876e-02        00000 
 4.95946e-02  3.18941e-02        00000 
 4.02796e-02  2.55085e-02        00000 
 3.31422e-02  2.12397e-02        00000 
 2.70533e-02  1.82883e-02        00000 
 2.15629e-02  1.62133e-02        00000 
 1.64452e-02  1.47592e-02        00000 
 1.15674e-02  1.37731e-02        00000 
 6.84053e-03  1.31622e-02        00000 
 2.19729e-03  1.28737e-02        00000 
-2.41917e-03  1.28832e-02        00000 
-7.06265e-03  1.31909e-02        00000 
-1.17900e-02  1.38211e-02        00000 
-1.66686e-02  1.48270e-02        00000 
-2.17875e-02  1.63013e-02        00000 
-2.72799e-02  1.83974e-02        00000 
-3.33719e-02  2.13710e-02        00000 
-4.05156e-02  2.56642e-02        00000 
-4.98456e-02  3.20795e-02        00000 
-6.57309e-02  4.20149e-02        00000 
 1.17933e-01  7.71363e-02        00000 
 9.93287e-02  6.91812e-02        00000 
 8.27328e-02  6.17957e-02        00000 
 6.85630e-02  5.57822e-02        00000 
 5.60541e-02  5.10974e-02        00000 
 4.46636e-02  4.75394e-02        00000 
 3.40340e-02  4.49145e-02        00000 
 2.39188e-02  4.30715e-02        00000 
 1.41361e-02  4.19034e-02        00000 
 4.54048e-03  4.13429e-02        00000 
-4.99480e-03  4.13578e-02        00000 
-1.45906e-02  4.19480e-02        00000 
-2.43737e-02  4.31460e-02        00000 
-3.44895e-02  4.50193e-02        00000 
-4.51200e-02  4.76747e-02        00000 
-5.65120e-02  5.12639e-02        00000 
-6.90236e-02  5.59809e-02        00000 
-8.31993e-02  6.20280e-02        00000 
-9.98082e-02  6.94489e-02        00000 
-1.18431e-01  7.74364e-02        00000 
 1.67193e-01  1.20247e-01        00000 
 1.44272e-01  1.12607e-01        00000 
 1.22963e-01  1.05791e-01        00000 
 1.03237e-01  9.98029e-02        00000 
 8.50107e-02  9.47725e-02        00000 
 6.80074e-02  9.07143e-02        00000 
 5.19378e-02  8.75807e-02        00000 
 3.65469e-02  8.53064e-02        00000 
 2.16149e-02  8.38321e-02        00000 
 6.94807e-03  8.31146e-02        00000 
-7.63204e-03  8.31318e-02        00000 
-2.22987e-02  8.38836e-02        00000 
-3.72303e-02  8.53923e-02        00000 
-5.26204e-02  8.77009e-02        00000 
-6.86891e-02  9.08689e-02        00000 
-8.56913e-02  9.49615e-02        00000 
-1.03916e-01  1.00026e-01        00000 
-1.23643e-01  1.06048e-01        00000 
-1.44953e-01  1.12898e-01        00000 
-1.67878e-01  1.20570e-01        00000 
 2.13734e-01  1.72159e-01        00000 
 1.86259e-01  1.65016e-01        00000 
 1.60296e-01  1.58615e-01        00000 
 1.35767e-01  1.52989e-01        00000 
 1.12540e-01  1.48156e-01        00000 
 9.04530e-02  1.44147e-01        00000 
 6.93012e-02  1.40969e-01        00000 
 4.88684e-02  1.38612e-01        00000 
 2.89411e-02  1.37060e-01        00000 
 9.31298e-03  1.36297e-01        00000 
-1.02159e-02  1.36314e-01        00000 
-2.98432e-02  1.37112e-01        00000 
-4.97689e-02  1.38699e-01        00000 
-7.01992e-02  1.41091e-01        00000 
-9.13474e-02  1.44304e-01        00000 
-1.13430e-01  1.48348e-01        00000 
-1.36652e-01  1.53214e-01        00000 
-1.61174e-01  1.58873e-01        00000 
-1.87130e-01  1.65305e-01        00000 
-2.14599e-01  1.72478e-01        00000 
 2.57416e-01  2.33197e-01        00000 
 2.25479e-01  2.26521e-01        00000 
 1.95057e-01  2.20564e-01        00000 
 1.66016e-01  2.15324e-01        00000 
 1.38213e-01  2.10813e-01        00000 
 1.11482e-01  2.07042e-01        00000 
 8.56460e-02  2.04024e-01        00000 
 6.05131e-02  2.01764e-01        00000 
 3.58844e-02  2.00263e-01        00000 
 1.15586e-02  1.99522e-01        00000 
-1.26657e-02  1.99539e-01        00000 
-3.69901e-02  2.00314e-01        00000 
-6.16159e-02  2.01848e-01        00000 
-8.67444e-02  2.04141e-01        00000 
-1.12574e-01  2.07193e-01        00000 
-1.39297e-01  2.10996e-01        00000 
-1.67091e-01  2.15539e-01        00000 
-1.96121e-01  2.20810e-01        00000 
-2.26531e-01  2.26797e-01        00000 
-2.58457e-01  2.33502e-01        00000 
 2.98134e-01  3.02998e-01        00000 
 2.61960e-01  2.96803e-01        00000 
 2.27317e-01  2.91285e-01        00000 
 1.94046e-01  2.86440e-01        00000 
 1.61985e-01  2.82272e-01        00000 
 1.30964e-01  2.78786e-01        00000 
 1.00807e-01  2.75990e-01        00000 
 7.13293e-02  2.73892e-01        00000 
 4.23413e-02  2.72495e-01        00000 
 1.36489e-02  2.71804e-01        00000 
-1.49442e-02  2.71820e-01        00000 
-4.36347e-02  2.72542e-01        00000 
-7.26187e-02  2.73970e-01        00000 
-1.02090e-01  2.76100e-01        00000 
-1.32239e-01  2.78926e-01        00000 
-1.63249e-01  2.82442e-01        00000 
-1.95298e-01  2.86640e-01        00000 
-2.28555e-01  2.91513e-01        00000 
-2.63183e-01  2.97060e-01        00000 
-2.99344e-01  3.03282e-01        00000 
 3.35815e-01  3.81026e-01        00000 
 2.95689e-01  3.75317e-01        00000 
 2.57107e-01  3.70237e-01        00000 
 2.19898e-01  3.65783e-01        00000 
 1.83888e-01  3.61957e-01        00000 
 1.48902e-01  3.58760e-01        00000 
 1.14762e-01  3.56198e-01        00000 
 8.12857e-02  3.54275e-01        00000 
 4.82860e-02  3.52995e-01        00000 
 1.55740e-02  3.52361e-01        00000 
-1.70412e-02  3.52376e-01        00000 
-4.97508e-02  3.53038e-01        00000 
-8.27458e-02  3.54346e-01        00000 
-1.16215e-01  3.56298e-01        00000 
-1.50345e-01  3.58888e-01        00000 
-1.85318e-01  3.62112e-01        00000 
-2.21314e-01  3.65966e-01        00000 
-2.58507e-01  3.70446e-01        00000 
-2.97072e-01  3.75552e-01        00000 
-3.37184e-01  3.81287e-01        00000 
 3.70427e-01  4.66668e-01        00000 
 3.26659e-01  4.61445e-01        00000 
 2.84443e-01  4.56801e-01        00000 
 2.43601e-01  4.52733e-01        00000 
 2.03955e-01  4.49242e-01        00000 
 1.65326e-01  4.46328e-01        00000 
 1.27533e-01  4.43994e-01        00000 
 9.03938e-02  4.42244e-01        00000 
 5.37232e-02  4.41079e-01        00000 
 1.73350e-02  4.40503e-01        00000 
-1.89581e-02  4.40516e-01        00000 
-5.53436e-02  4.41118e-01        00000 
-9.20088e-02  4.42308e-01        00000 
-1.29140e-01  4.44084e-01        00000 
-1.66922e-01  4.46443e-01        00000 
-2.05537e-01  4.49381e-01        00000 
-2.45168e-01  4.52898e-01        00000 
-2.85993e-01  4.56990e-01        00000 
-3.28192e-01  4.61658e-01        00000 
-3.71945e-01  4.66904e-01        00000 
 4.01964e-01  5.59283e-01        00000 
 3.54873e-01  5.54546e-01        00000 
 3.09338e-01  5.50335e-01        00000 
 2.65179e-01  5.46647e-01        00000 
 2.22215e-01  5.43484e-01        00000 
 1.80265e-01  5.40845e-01        00000 
 1.39145e-01  5.38732e-01        00000 
 9.86735e-02  5.37147e-01        00000 
 5.86653e-02  5.36093e-01        00000 
 1.89359e-02  5.35571e-01        00000 
-2.06995e-02  5.35582e-01        00000 
-6.04259e-02  5.36127e-01        00000 
-1.00428e-01  5.37204e-01        00000 
-1.40892e-01  5.38811e-01        00000 
-1.81999e-01  5.40947e-01        00000 
-2.23936e-01  5.43608e-01        00000 
-2.66883e-01  5.46794e-01        00000 
-3.11025e-01  5.50503e-01        00000 
-3.56542e-01  5.54736e-01        00000 
-4.03618e-01  5.59495e-01        00000 
 4.30433e-01  6.58228e-01        00000 
 3.80339e-01  6.53975e-01        00000 
 3.31806e-01  6.50194e-01        00000 
 2.84651e-01  6.46882e-01        00000 
 2.38692e-01  6.44039e-01        00000 
 1.93745e-01  6.41665e-01        00000 
 1.49624e-01  6.39763e-01        00000 
 1.06145e-01  6.38335e-01        00000 
 6.31256e-02  6.37385e-01        00000 
 2.03814e-02  6.36914e-01        00000 
-2.22702e-02  6.36923e-01        00000 
-6.50115e-02  6.37414e-01        00000 
-1.08025e-01  6.38385e-01        00000 
-1.51495e-01  6.39833e-01        00000 
-1.95604e-01  6.41755e-01        00000 
-2.40537e-01  6.44148e-01        00000 
-2.86480e-01  6.47011e-01        00000 
-3.33616e-01  6.50342e-01        00000 
-3.82132e-01  6.54143e-01        00000 
-4.32211e-01  6.58416e-01        00000 
 4.55841e-01  7.62865e-01        00000 
 4.03064e-01  7.59095e-01        00000 
 3.51857e-01  7.55741e-01        00000 
 3.02036e-01  7.52799e-01        00000 
 2.53411e-01  7.50266e-01        00000 
 2.05794e-01  7.48146e-01        00000 
 1.58996e-01  7.46441e-01        00000 
 1.12833e-01  7.45158e-01        00000 
 6.71200e-02  7.44301e-01        00000 
 2.16767e-02  7.43876e-01        00000 
-2.36760e-02  7.43885e-01        00000 
-6.91164e-02  7.44327e-01        00000 
-1.14824e-01  7.45201e-01        00000 
-1.60978e-01  7.46501e-01        00000 
-2.07764e-01  7.48223e-01        00000 
-2.55367e-01  7.50361e-01        00000 
-3.03975e-01  7.52911e-01        00000 
-3.53780e-01  7.55871e-01        00000 
-4.04969e-01  7.59243e-01        00000 
-4.57731e-01  7.63030e-01        00000 
 4.78182e-01  8.72565e-01        00000 
 4.23045e-01  8.69279e-01        00000 
 3.69501e-01  8.66350e-01        00000 
 3.17353e-01  8.63768e-01        00000 
 2.66403e-01  8.61531e-01        00000 
 2.16452e-01  8.59644e-01        00000 
 1.67304e-01  8.58116e-01        00000 
 1.18771e-01  8.56957e-01        00000 
 7.06718e-02  8.56180e-01        00000 
 2.28301e-02  8.55792e-01        00000 
-2.49253e-02  8.55799e-01        00000 
-7.27643e-02  8.56201e-01        00000 
-1.20858e-01  8.56993e-01        00000 
-1.69383e-01  8.58167e-01        00000 
-2.18519e-01  8.59710e-01        00000 
-2.68457e-01  8.61612e-01        00000 
-3.19391e-01  8.63863e-01        00000 
-3.71522e-01  8.66461e-01        00000 
-4.25049e-01  8.69406e-01        00000 
-4.80172e-01  8.72707e-01        00000 
 4.97417e-01  9.86694e-01        00000 
 4.40258e-01  9.83901e-01        00000 
 3.84736e-01  9.81395e-01        00000 
 3.30632e-01  9.79161e-01        00000 
 2.77721e-01  9.77198e-01        00000 
 2.25784e-01  9.75514e-01        00000 
 1.74614e-01  9.74130e-01        00000 
 1.24019e-01  9.73065e-01        00000 
 7.38211e-02  9.72343e-01        00000 
 2.38557e-02  9.71980e-01        00000 
-2.60324e-02  9.71986e-01        00000 
-7.59954e-02  9.72361e-01        00000 
-1.26189e-01  9.73095e-01        00000 
-1.76776e-01  9.74172e-01        00000 
-2.27935e-01  9.75569e-01        00000 
-2.79859e-01  9.77265e-01        00000 
-3.32755e-01  9.79242e-01        00000 
-3.86843e-01  9.81489e-01        00000 
-4.42349e-01  9.84009e-01        00000 
-4.99495e-01  9.86815e-01        00000 
 5.13438e-01  1.10459e+00        00000 
 4.54638e-01  1.10231e+00        00000 
 3.97553e-01  1.10023e+00        00000 
 3.41912e-01  1.09833e+00        00000 
 2.87444e-01  1.09662e+00        00000 
 2.33897e-01  1.09510e+00        00000 
 1.81041e-01  1.09382e+00        00000 
 1.28677e-01  1.09281e+00        00000 
 7.66364e-02  1.09211e+00        00000 
 2.47775e-02  1.09175e+00        00000 
-2.70219e-02  1.09175e+00        00000 
-7.88787e-02  1.09212e+00        00000 
-1.30915e-01  1.09283e+00        00000 
-1.83272e-01  1.09385e+00        00000 
-2.36119e-01  1.09515e+00        00000 
-2.89654e-01  1.09667e+00        00000 
-3.44108e-01  1.09840e+00        00000 
-3.99734e-01  1.10031e+00        00000 
-4.56803e-01  1.10240e+00        00000 
-5.15591e-01  1.10469e+00        00000 
 5.26025e-01  1.22547e+00        00000 
 4.66064e-01  1.22373e+00        00000 
 4.07920e-01  1.22210e+00        00000 
 3.51238e-01  1.22055e+00        00000 
 2.95681e-01  1.21909e+00        00000 
 2.40943e-01  1.21773e+00        00000 
 1.86757e-01  1.21652e+00        00000 
 1.32906e-01  1.21552e+00        00000 
 7.92323e-02  1.21481e+00        00000 
 2.56382e-02  1.21444e+00        00000 
-2.79370e-02  1.21444e+00        00000 
-8.15295e-02  1.21482e+00        00000 
-1.35200e-01  1.21554e+00        00000 
-1.89046e-01  1.21655e+00        00000 
-2.43222e-01  1.21777e+00        00000 
-2.97950e-01  1.21914e+00        00000 
-3.53493e-01  1.22061e+00        00000 
-4.10161e-01  1.22217e+00        00000 
-4.68291e-01  1.22381e+00        00000 
-5.28242e-01  1.22555e+00        00000 
 5.34857e-01  1.34825e+00        00000 
 4.74379e-01  1.34711e+00        00000 
 4.15767e-01  1.34599e+00        00000 
 3.58595e-01  1.34489e+00        00000 
 3.02483e-01  1.34380e+00        00000 
 2.47064e-01  1.34272e+00        00000 
 1.91977e-01  1.34165e+00        00000 
 1.36953e-01  1.34070e+00        00000 
 8.18059e-02  1.33995e+00        00000 
 2.65040e-02  1.33955e+00        00000 
-2.88453e-02  1.33955e+00        00000 
-8.41463e-02  1.33996e+00        00000 
-1.39291e-01  1.34073e+00        00000 
-1.94311e-01  1.34168e+00        00000 
-2.49390e-01  1.34275e+00        00000 
-3.04799e-01  1.34385e+00        00000 
-3.60897e-01  1.34494e+00        00000 
-4.18055e-01  1.34605e+00        00000 
-4.76652e-01  1.34718e+00        00000 
-5.37122e-01  1.34832e+00        00000 
 5.39721e-01  1.47131e+00        00000 
 4.79510e-01  1.47079e+00        00000 
 4.20959e-01  1.47029e+00        00000 
 3.63746e-01  1.46991e+00        00000 
 3.07585e-01  1.46961e+00        00000 
 2.52114e-01  1.46931e+00        00000 
 1.96833e-01  1.46886e+00        00000 
 1.41104e-01  1.46821e+00        00000 
 8.46829e-02  1.46763e+00        00000 
 2.75702e-02  1.46716e+00        00000 
-2.99438e-02  1.46716e+00        00000 
-8.70570e-02  1.46765e+00        00000 
-1.43477e-01  1.46823e+00        00000 
-1.99203e-01  1.46890e+00        00000 
-2.54475e-01  1.46935e+00        00000 
-3.09935e-01  1.46966e+00        00000 
-3.66080e-01  1.46997e+00        00000 
-4.23277e-01  1.47036e+00        00000 
-4.81813e-01  1.47085e+00        00000 
-5.42014e-01  1.47138e+00        00000 
 5.41180e-01  1.59255e+00        00000 
 4.81764e-01  1.59252e+00        00000 
 4.23398e-01  1.59270e+00        00000 
 3.66204e-01  1.59328e+00        00000 
 3.10132e-01  1.59432e+00        00000 
 2.54971e-01  1.59580e+00        00000 
 2.00303e-01  1.59756e+00        00000 
 1.45354e-01  1.59908e+00        00000 
 8.82107e-02  1.59931e+00        00000 
 2.87696e-02  1.59986e+00        00000 
-3.11677e-02  1.59987e+00        00000 
-9.06121e-02  1.59933e+00        00000 
-1.47757e-01  1.59912e+00        00000 
-2.02699e-01  1.59761e+00        00000 
-2.57355e-01  1.59586e+00        00000 
-3.12501e-01  1.59437e+00        00000 
-3.68555e-01  1.59333e+00        00000 
-4.25731e-01  1.59276e+00        00000 
-4.84081e-01  1.59257e+00        00000 
-5.43485e-01  1.59261e+00        00000 
 5.41223e-01  1.71098e+00        00000 
 4.82254e-01  1.71093e+00        00000 
 4.23846e-01  1.71094e+00        00000 
 3.66367e-01  1.71143e+00        00000 
 3.09870e-01  1.71289e+00        00000 
 2.54210e-01  1.71594e+00        00000 
 1.99020e-01  1.72138e+00        00000 
 1.43552e-01  1.73043e+00        00000 
 8.66609e-02  1.74479e+00        00000 
 2.82451e-02  1.75139e+00        00000 
-3.06673e-02  1.75141e+00        00000 
-8.90818e-02  1.74484e+00        00000 
-1.45966e-01  1.73048e+00        00000 
-2.01424e-01  1.72144e+00        00000 
-2.56598e-01  1.71598e+00        00000 
-3.12242e-01  1.71293e+00        00000 
-3.68720e-01  1.71146e+00        00000 
-4.26182e-01  1.71098e+00        00000 
-4.84574e-01  1.71097e+00        00000 
-5.43529e-01  1.71101e+00        00000 
 2.73452e-02  1.72025e-02        00000 
 2.15588e-02  1.36350e-02        00000 
 1.77476e-02  1.11392e-02        00000 
 1.46286e-02  9.41474e-03        00000 
 1.18586e-02  8.20394e-03        00000 
 9.29491e-03  7.35006e-03        00000 
 6.86261e-03  6.75818e-03        00000 
 4.51485e-03  6.37032e-03        00000 
 2.21818e-03  6.15178e-03        00000 
-5.43381e-05  6.08408e-03        00000 
-2.32692e-03  6.16143e-03        00000 
-4.62378e-03  6.38969e-03        00000 
-6.97189e-03  6.78745e-03        00000 
-9.40472e-03  7.38945e-03        00000 
-1.19692e-02  8.25379e-03        00000 
-1.47406e-02  9.47549e-03        00000 
-1.78619e-02  1.12116e-02        00000 
-2.16782e-02  1.37205e-02        00000 
-2.74796e-02  1.73033e-02        00000 
 8.33551e-02  5.47869e-02        00000 
 6.78467e-02  4.65351e-02        00000 
 5.59346e-02  4.05411e-02        00000 
 4.59590e-02  3.61087e-02        00000 
 3.71242e-02  3.28313e-02        00000 
 2.90110e-02  3.04330e-02        00000 
 2.13701e-02  2.87270e-02        00000 
 1.40367e-02  2.75887e-02        00000 
 6.88987e-03  2.69396e-02        00000 
-1.68691e-04  2.67361e-02        00000 
-7.22738e-03  2.69641e-02        00000 
-1.43746e-02  2.76379e-02        00000 
-2.17087e-02  2.88010e-02        00000 
-2.93505e-02  3.05323e-02        00000 
-3.74652e-02  3.29564e-02        00000 
-4.63024e-02  3.62605e-02        00000 
-5.62828e-02  4.07210e-02        00000 
-6.82053e-02  4.67458e-02        00000 
-8.37394e-02  5.50343e-02        00000 
 1.32234e-01  9.44607e-02        00000 
 1.12412e-01  8.69812e-02        00000 
 9.43831e-02  8.03657e-02        00000 
 7.81714e-02  7.49244e-02        00000 
 6.33661e-02  7.05996e-02        00000 
 4.95907e-02  6.72692e-02        00000 
 3.65496e-02  6.48128e-02        00000 
 2.40114e-02  6.31325e-02        00000 
 1.17877e-02  6.21583e-02        00000 
-2.84745e-04  6.18489e-02        00000 
-1.23572e-02  6.21904e-02        00000 
-2.45810e-02  6.31967e-02        00000 
-3.71192e-02  6.49093e-02        00000 
-5.01603e-02  6.73981e-02        00000 
-6.39359e-02  7.07612e-02        00000 
-7.87418e-02  7.51192e-02        00000 
-9.49557e-02  8.05943e-02        00000 
-1.12990e-01  8.72443e-02        00000 
-1.32821e-01  9.47574e-02        00000 
 1.77944e-01  1.42157e-01        00000 
 1.53514e-01  1.35149e-01        00000 
 1.30623e-01  1.28930e-01        00000 
 1.09172e-01  1.23546e-01        00000 
 8.90139e-02  1.19057e-01        00000 
 6.99215e-02  1.15462e-01        00000 
 5.16539e-02  1.12729e-01        00000 
 3.39829e-02  1.10818e-01        00000 
 1.66981e-02  1.09694e-01        00000 
-3.97198e-04  1.09334e-01        00000 
-1.74923e-02  1.09729e-01        00000 
-3.47764e-02  1.10888e-01        00000 
-5.24460e-02  1.12834e-01        00000 
-7.07117e-02  1.15601e-01        00000 
-8.98016e-02  1.19230e-01        00000 
-1.09957e-01  1.23753e-01        00000 
-1.31405e-01  1.29172e-01        00000 
-1.54292e-01  1.35424e-01        00000 
-1.78720e-01  1.42463e-01        00000 
 2.20797e-01  1.98880e-01        00000 
 1.91843e-01  1.92336e-01        00000 
 1.64346e-01  1.86526e-01        00000 
 1.38185e-01  1.81469e-01        00000 
 1.13210e-01  1.77183e-01        00000 
 8.92465e-02  1.73685e-01        00000 
 6.60981e-02  1.70981e-01        00000 
 4.35604e-02  1.69063e-01        00000 
 2.14277e-02  1.67925e-01        00000 
-5.03155e-04  1.67557e-01        00000 
-2.24335e-02  1.67959e-01        00000 
-4.45645e-02  1.69132e-01        00000 
-6.70994e-02  1.71084e-01        00000 
-9.02435e-02  1.73823e-01        00000 
-1.14202e-01  1.77354e-01        00000 
-1.39170e-01  1.81673e-01        00000 
-1.65322e-01  1.86763e-01        00000 
-1.92810e-01  1.92604e-01        00000 
-2.21755e-01  1.99178e-01        00000 
 2.60824e-01  2.64554e-01        00000 
 2.27522e-01  2.58469e-01        00000 