<?xml version="1.0" encoding="utf-8"?>
<VTKFile byte_order="LittleEndian" type="UnstructuredGrid" version="0.1">
   <UnstructuredGrid>
      <Piece NumberOfCells="1444" NumberOfPoints="761">
         <Points>
            <DataArray Name="Points" NumberOfComponents="3" format="ascii" type="Float32">
0.0000 1.0000 0.0000
0.0000 1.0526 0.0000
0.0000 1.1053 0.0000
0.0000 1.1579 0.0000
0.0000 1.2105 0.0000
0.0000 1.2632 0.0000
0.0000 1.3158 0.0000
0.0000 1.3684 0.0000
0.0000 1.4211 0.0000
0.0000 1.4737 0.0000
0.0000 1.5263 0.0000
0.0000 1.5789 0.0000
0.0000 1.6316 0.0000
0.0000 1.6842 0.0000
0.0000 1.7368 0.0000
0.0000 1.7895 0.0000
0.0000 1.8421 0.0000
0.0000 1.8947 0.0000
0.0000 1.9474 0.0000
0.0000 2.0000 0.0000
0.1053 1.0000 0.0000
0.1053 1.0526 0.0000
0.1053 1.1053 0.0000
0.1053 1.1579 0.0000
0.1053 1.2105 0.0000
0.1053 1.2632 0.0000
0.1053 1.3158 0.0000
0.1053 1.3684 0.0000
0.1053 1.4211 0.0000
0.1053 1.4737 0.0000
0.1053 1.5263 0.0000
0.1053 1.5789 0.0000
0.1053 1.6316 0.0000
0.1053 1.6842 0.0000
0.1053 1.7368 0.0000
0.1053 1.7895 0.0000
0.1053 1.8421 0.0000
0.1053 1.8947 0.0000
0.1053 1.9474 0.0000
0.1053 2.0000 0.0000
0.2105 1.0000 0.0000
0.2105 1.0526 0.0000
0.2105 1.1053 0.0000
0.2105 1.1579 0.0000
0.2105 1.2105 0.0000
0.2105 1.2632 0.0000
0.2105 1.3158 0.0000
0.2105 1.3684 0.0000
0.2105 1.4211 0.0000
0.2105 1.4737 0.0000
0.2105 1.5263 0.0000
0.2105 1.5789 0.0000
0.2105 1.6316 0.0000
0.2105 1.6842 0.0000
0.2105 1.7368 0.0000
0.2105 1.7895 0.0000
0.2105 1.8421 0.0000
0.2105 1.8947 0.0000
0.2105 1.9474 0.0000
0.2105 2.0000 0.0000
0.3158 1.0000 0.0000
0.3158 1.0526 0.0000
0.3158 1.1053 0.0000
0.3158 1.1579 0.0000
0.3158 1.2105 0.0000
0.3158 1.2632 0.0000
0.3158 1.3158 0.0000
0.3158 1.3684 0.0000
0.3158 1.4211 0.0000
0.3158 1.4737 0.0000
0.3158 1.5263 0.0000
0.3158 1.5789 0.0000
0.3158 1.6316 0.0000
0.3158 1.6842 0.0000
0.3158 1.7368 0.0000
0.3158 1.7895 0.0000
0.3158 1.8421 0.0000
0.3158 1.8947 0.0000
0.3158 1.9474 0.0000
0.3158 2.0000 0.0000
0.4211 1.0000 0.0000
0.4211 1.0526 0.0000
0.4211 1.1053 0.0000
0.4211 1.1579 0.0000
0.4211 1.2105 0.0000
0.4211 1.2632 0.0000
0.4211 1.3158 0.0000
0.4211 1.3684 0.0000
0.4211 1.4211 0.0000
0.4211 1.4737 0.0000
0.4211 1.5263 0.0000
0.4211 1.5789 0.0000
0.4211 1.6316 0.0000
0.4211 1.6842 0.0000
0.4211 1.7368 0.0000
0.4211 1.7895 0.0000
0.4211 1.8421 0.0000
0.4211 1.8947 0.0000
0.4211 1.9474 0.0000
0.4211 2.0000 0.0000
0.5263 1.0000 0.0000
0.5263 1.0526 0.0000
0.5263 1.1053 0.0000
0.5263 1.1579 0.0000
0.5263 1.2105 0.0000
0.5263 1.2632 0.0000
0.5263 1.3158 0.0000
0.5263 1.3684 0.0000
0.5263 1.4211 0.0000
0.5263 1.4737 0.0000
0.5263 1.5263 0.0000
0.5263 1.5789 0.0000
0.5263 1.6316 0.0000
0.5263 1.6842 0.0000
0.5263 1.7368 0.0000
0.5263 1.7895 0.0000
0.5263 1.8421 0.0000
0.5263 1.8947 0.0000
0.5263 1.9474 0.0000
0.5263 2.0000 0.0000
0.6316 1.0000 0.0000
0.6316 1.0526 0.0000
0.6316 1.1053 0.0000
0.6316 1.1579 0.0000
0.6316 1.2105 0.0000
0.6316 1.2632 0.0000
0.6316 1.3158 0.0000
0.6316 1.3684 0.0000
0.6316 1.4211 0.0000
0.6316 1.4737 0.0000
0.6316 1.5263 0.0000
0.6316 1.5789 0.0000
0.6316 1.6316 0.0000
0.6316 1.6842 0.0000
0.6316 1.7368 0.0000
0.6316 1.7895 0.0000
0.6316 1.8421 0.0000
0.6316 1.8947 0.0000
0.6316 1.9474 0.0000
0.6316 2.0000 0.0000
0.7368 1.0000 0.0000
0.7368 1.0526 0.0000
0.7368 1.1053 0.0000
0.7368 1.1579 0.0000
0.7368 1.2105 0.0000
0.7368 1.2632 0.0000
0.7368 1.3158 0.0000
0.7368 1.3684 0.0000
0.7368 1.4211 0.0000
0.7368 1.4737 0.0000
0.7368 1.5263 0.0000
0.7368 1.5789 0.0000
0.7368 1.6316 0.0000
0.7368 1.6842 0.0000
0.7368 1.7368 0.0000
0.7368 1.7895 0.0000
0.7368 1.8421 0.0000
0.7368 1.8947 0.0000
0.7368 1.9474 0.0000
0.7368 2.0000 0.0000
0.8421 1.0000 0.0000
0.8421 1.0526 0.0000
0.8421 1.1053 0.0000
0.8421 1.1579 0.0000
0.8421 1.2105 0.0000
0.8421 1.2632 0.0000
0.8421 1.3158 0.0000
0.8421 1.3684 0.0000
0.8421 1.4211 0.0000
0.8421 1.4737 0.0000
0.8421 1.5263 0.0000
0.8421 1.5789 0.0000
0.8421 1.6316 0.0000
0.8421 1.6842 0.0000
0.8421 1.7368 0.0000
0.8421 1.7895 0.0000
0.8421 1.8421 0.0000
0.8421 1.8947 0.0000
0.8421 1.9474 0.0000
0.8421 2.0000 0.0000
0.9474 1.0000 0.0000
0.9474 1.0526 0.0000
0.9474 1.1053 0.0000
0.9474 1.1579 0.0000
0.9474 1.2105 0.0000
0.9474 1.2632 0.0000
0.9474 1.3158 0.0000
0.9474 1.3684 0.0000
0.9474 1.4211 0.0000
0.9474 1.4737 0.0000
0.9474 1.5263 0.0000
0.9474 1.5789 0.0000
0.9474 1.6316 0.0000
0.9474 1.6842 0.0000
0.9474 1.7368 0.0000
0.9474 1.7895 0.0000
0.9474 1.8421 0.0000
0.9474 1.8947 0.0000
0.9474 1.9474 0.0000
0.9474 2.0000 0.0000
1.0526 1.0000 0.0000
1.0526 1.0526 0.0000
1.0526 1.1053 0.0000
1.0526 1.1579 0.0000
1.0526 1.2105 0.0000
1.0526 1.2632 0.0000
1.0526 1.3158 0.0000
1.0526 1.3684 0.0000
1.0526 1.4211 0.0000
1.0526 1.4737 0.0000
1.0526 1.5263 0.0000
1.0526 1.5789 0.0000
1.0526 1.6316 0.0000
1.0526 1.6842 0.0000
1.0526 1.7368 0.0000
1.0526 1.7895 0.0000
1.0526 1.8421 0.0000
1.0526 1.8947 0.0000
1.0526 1.9474 0.0000
1.0526 2.0000 0.0000
1.1579 1.0000 0.0000
1.1579 1.0526 0.0000
1.1579 1.1053 0.0000
1.1579 1.1579 0.0000
1.1579 1.2105 0.0000
1.1579 1.2632 0.0000
1.1579 1.3158 0.0000
1.1579 1.3684 0.0000
1.1579 1.4211 0.0000
1.1579 1.4737 0.0000
1.1579 1.5263 0.0000
1.1579 1.5789 0.0000
1.1579 1.6316 0.0000
1.1579 1.6842 0.0000
1.1579 1.7368 0.0000
1.1579 1.7895 0.0000
1.1579 1.8421 0.0000
1.1579 1.8947 0.0000
1.1579 1.9474 0.0000
1.1579 2.0000 0.0000
1.2632 1.0000 0.0000
1.2632 1.0526 0.0000
1.2632 1.1053 0.0000
1.2632 1.1579 0.0000
1.2632 1.2105 0.0000
1.2632 1.2632 0.0000
1.2632 1.3158 0.0000
1.2632 1.3684 0.0000
1.2632 1.4211 0.0000
1.2632 1.4737 0.0000
1.2632 1.5263 0.0000
1.2632 1.5789 0.0000
1.2632 1.6316 0.0000
1.2632 1.6842 0.0000
1.2632 1.7368 0.0000
1.2632 1.7895 0.0000
1.2632 1.8421 0.0000
1.2632 1.8947 0.0000
1.2632 1.9474 0.0000
1.2632 2.0000 0.0000
1.3684 1.0000 0.0000
1.3684 1.0526 0.0000
1.3684 1.1053 0.0000
1.3684 1.1579 0.0000
1.3684 1.2105 0.0000
1.3684 1.2632 0.0000
1.3684 1.3158 0.0000
1.3684 1.3684 0.0000
1.3684 1.4211 0.0000
1.3684 1.4737 0.0000
1.3684 1.5263 0.0000
1.3684 1.5789 0.0000
1.3684 1.6316 0.0000
1.3684 1.6842 0.0000
1.3684 1.7368 0.0000
1.3684 1.7895 0.0000
1.3684 1.8421 0.0000
1.3684 1.8947 0.0000
1.3684 1.9474 0.0000
1.3684 2.0000 0.0000
1.4737 1.0000 0.0000
1.4737 1.0526 0.0000
1.4737 1.1053 0.0000
1.4737 1.1579 0.0000
1.4737 1.2105 0.0000
1.4737 1.2632 0.0000
1.4737 1.3158 0.0000
1.4737 1.3684 0.0000
1.4737 1.4211 0.0000
1.4737 1.4737 0.0000
1.4737 1.5263 0.0000
1.4737 1.5789 0.0000
1.4737 1.6316 0.0000
1.4737 1.6842 0.0000
1.4737 1.7368 0.0000
1.4737 1.7895 0.0000
1.4737 1.8421 0.0000
1.4737 1.8947 0.0000
1.4737 1.9474 0.0000
1.4737 2.0000 0.0000
1.5789 1.0000 0.0000
1.5789 1.0526 0.0000
1.5789 1.1053 0.0000
1.5789 1.1579 0.0000
1.5789 1.2105 0.0000
1.5789 1.2632 0.0000
1.5789 1.3158 0.0000
1.5789 1.3684 0.0000
1.5789 1.4211 0.0000
1.5789 1.4737 0.0000
1.5789 1.5263 0.0000
1.5789 1.5789 0.0000
1.5789 1.6316 0.0000
1.5789 1.6842 0.0000
1.5789 1.7368 0.0000
1.5789 1.7895 0.0000
1.5789 1.8421 0.0000
1.5789 1.8947 0.0000
1.5789 1.9474 0.0000
1.5789 2.0000 0.0000
1.6842 1.0000 0.0000
1.6842 1.0526 0.0000
1.6842 1.1053 0.0000
1.6842 1.1579 0.0000
1.6842 1.2105 0.0000
1.6842 1.2632 0.0000
1.6842 1.3158 0.0000
1.6842 1.3684 0.0000
1.6842 1.4211 0.0000
1.6842 1.4737 0.0000
1.6842 1.5263 0.0000
1.6842 1.5789 0.0000
1.6842 1.6316 0.0000
1.6842 1.6842 0.0000
1.6842 1.7368 0.0000
1.6842 1.7895 0.0000
1.6842 1.8421 0.0000
1.6842 1.8947 0.0000
1.6842 1.9474 0.0000
1.6842 2.0000 0.0000
1.7895 1.0000 0.0000
1.7895 1.0526 0.0000
1.7895 1.1053 0.0000
1.7895 1.1579 0.0000
1.7895 1.2105 0.0000
1.7895 1.2632 0.0000
1.7895 1.3158 0.0000
1.7895 1.3684 0.0000
1.7895 1.4211 0.0000
1.7895 1.4737 0.0000
1.7895 1.5263 0.0000
1.7895 1.5789 0.0000
1.7895 1.6316 0.0000
1.7895 1.6842 0.0000
1.7895 1.7368 0.0000
1.7895 1.7895 0.0000
1.7895 1.8421 0.0000
1.7895 1.8947 0.0000
1.7895 1.9474 0.0000
1.7895 2.0000 0.0000
1.8947 1.0000 0.0000
1.8947 1.0526 0.0000
1.8947 1.1053 0.0000
1.8947 1.1579 0.0000
1.8947 1.2105 0.0000
1.8947 1.2632 0.0000
1.8947 1.3158 0.0000
1.8947 1.3684 0.0000
1.8947 1.4211 0.0000
1.8947 1.4737 0.0000
1.8947 1.5263 0.0000
1.8947 1.5789 0.0000
1.8947 1.6316 0.0000
1.8947 1.6842 0.0000
1.8947 1.7368 0.0000
1.8947 1.7895 0.0000
1.8947 1.8421 0.0000
1.8947 1.8947 0.0000
1.8947 1.9474 0.0000
1.8947 2.0000 0.0000
2.0000 1.0000 0.0000
2.0000 1.0526 0.0000
2.0000 1.1053 0.0000
2.0000 1.1579 0.0000
2.0000 1.2105 0.0000
2.0000 1.2632 0.0000
2.0000 1.3158 0.0000
2.0000 1.3684 0.0000
2.0000 1.4211 0.0000
2.0000 1.4737 0.0000
2.0000 1.5263 0.0000
2.0000 1.5789 0.0000
2.0000 1.6316 0.0000
2.0000 1.6842 0.0000
2.0000 1.7368 0.0000
2.0000 1.7895 0.0000
2.0000 1.8421 0.0000
2.0000 1.8947 0.0000
2.0000 1.9474 0.0000
2.0000 2.0000 0.0000
0.0526 1.0263 0.0000
0.0526 1.0789 0.0000
0.0526 1.1316 0.0000
0.0526 1.1842 0.0000
0.0526 1.2368 0.0000
0.0526 1.2895 0.0000
0.0526 1.3421 0.0000
0.0526 1.3947 0.0000
0.0526 1.4474 0.0000
0.0526 1.5000 0.0000
0.0526 1.5526 0.0000
0.0526 1.6053 0.0000
0.0526 1.6579 0.0000
0.0526 1.7105 0.0000
0.0526 1.7632 0.0000
0.0526 1.8158 0.0000
0.0526 1.8684 0.0000
0.0526 1.9211 0.0000
0.0526 1.9737 0.0000
0.1579 1.0263 0.0000
0.1579 1.0789 0.0000
0.1579 1.1316 0.0000
0.1579 1.1842 0.0000
0.1579 1.2368 0.0000
0.1579 1.2895 0.0000
0.1579 1.3421 0.0000
0.1579 1.3947 0.0000
0.1579 1.4474 0.0000
0.1579 1.5000 0.0000
0.1579 1.5526 0.0000
0.1579 1.6053 0.0000
0.1579 1.6579 0.0000
0.1579 1.7105 0.0000
0.1579 1.7632 0.0000
0.1579 1.8158 0.0000
0.1579 1.8684 0.0000
0.1579 1.9211 0.0000
0.1579 1.9737 0.0000
0.2632 1.0263 0.0000
0.2632 1.0789 0.0000
0.2632 1.1316 0.0000
0.2632 1.1842 0.0000
0.2632 1.2368 0.0000
0.2632 1.2895 0.0000
0.2632 1.3421 0.0000
0.2632 1.3947 0.0000
0.2632 1.4474 0.0000
0.2632 1.5000 0.0000
0.2632 1.5526 0.0000
0.2632 1.6053 0.0000
0.2632 1.6579 0.0000
0.2632 1.7105 0.0000
0.2632 1.7632 0.0000
0.2632 1.8158 0.0000
0.2632 1.8684 0.0000
0.2632 1.9211 0.0000
0.2632 1.9737 0.0000
0.3684 1.0263 0.0000
0.3684 1.0789 0.0000
0.3684 1.1316 0.0000
0.3684 1.1842 0.0000
[...]
         <PointData>
            <DataArray Name="displacement" NumberOfComponents="3" format="ascii" type="Float64">
-5.04591e-18 -9.55487e-18        00000 
       00000  2.89810e-18        00000 
 2.86076e-18        00000        00000 
-2.32134e-18  2.17158e-18        00000 
-7.15191e-19 -1.90717e-18        00000 
 2.27032e-18  2.30830e-19        00000 
 7.15191e-19  1.66878e-18        00000 
-1.27861e-18 -2.39623e-18        00000 
-1.10259e-18  2.38397e-18        00000 
 4.80977e-19 -1.44293e-18        00000 
-5.95992e-19  8.34389e-19        00000 
-9.09817e-19 -1.11574e-18        00000 
 1.43038e-18  1.78798e-18        00000 
-1.45276e-18 -2.04323e-18        00000 
 2.62237e-18 -1.19198e-18        00000 
 2.12665e-18 -2.62087e-18        00000 
 4.76794e-19 -7.15191e-19        00000 
 5.77213e-18  2.88607e-18        00000 
-6.25148e-18 -2.16398e-18        00000 
 9.13174e-18  5.40994e-19        00000 
 6.29175e-02  4.01863e-02        00000 
 4.76888e-02  3.06725e-02        00000 
 3.87315e-02  2.45321e-02        00000 
 3.18690e-02  2.04275e-02        00000 
 2.60152e-02  1.75898e-02        00000 
 2.07371e-02  1.55948e-02        00000 
 1.58175e-02  1.41970e-02        00000 
 1.11287e-02  1.32489e-02        00000 
 6.58501e-03  1.26614e-02        00000 
 2.12175e-03  1.23836e-02        00000 
-2.31574e-03  1.23919e-02        00000 
-6.77919e-03  1.26865e-02        00000 
-1.13233e-02  1.32909e-02        00000 
-1.60127e-02  1.42563e-02        00000 
-2.09333e-02  1.56718e-02        00000 
-2.62129e-02  1.76851e-02        00000 
-3.20694e-02  2.05421e-02        00000 
-3.89373e-02  2.46680e-02        00000 
-4.79077e-02  3.08342e-02        00000 
-6.31805e-02  4.03846e-02        00000 
 1.13409e-01  7.41857e-02        00000 
 9.55166e-02  6.65350e-02        00000 
 7.95572e-02  5.94321e-02        00000 
 6.59324e-02  5.36489e-02        00000 
 5.39056e-02  4.91436e-02        00000 
 4.29549e-02  4.57220e-02        00000 
 3.27361e-02  4.31976e-02        00000 
 2.30123e-02  4.14249e-02        00000 
 1.36084e-02  4.03011e-02        00000 
 4.38435e-03  3.97612e-02        00000 
-4.78158e-03  3.97742e-02        00000 
-1.40057e-02  4.03401e-02        00000 
-2.34100e-02  4.14901e-02        00000 
-3.31342e-02  4.32892e-02        00000 
-4.33535e-02  4.58403e-02        00000 
-5.43054e-02  4.92891e-02        00000 
-6.63344e-02  5.38225e-02        00000 
-7.99643e-02  5.96351e-02        00000 
-9.59350e-02  6.67688e-02        00000 
-1.13844e-01  7.44479e-02        00000 
 1.60790e-01  1.15651e-01        00000 
 1.38744e-01  1.08302e-01        00000 
 1.18252e-01  1.01745e-01        00000 
 9.92831e-02  9.59858e-02        00000 
 8.17585e-02  9.11471e-02        00000 
 6.54103e-02  8.72435e-02        00000 
 4.99606e-02  8.42291e-02        00000 
 3.51641e-02  8.20410e-02        00000 
 2.08091e-02  8.06221e-02        00000 
 6.70919e-03  7.99309e-02        00000 
-7.30723e-03  7.99459e-02        00000 
-2.14069e-02  8.06672e-02        00000 
-3.57614e-02  8.21161e-02        00000 
-5.05572e-02  8.43342e-02        00000 
-6.60058e-02  8.73786e-02        00000 
-8.23528e-02  9.13123e-02        00000 
-9.98765e-02  9.61812e-02        00000 
-1.18845e-01  1.01971e-01        00000 
-1.39339e-01  1.08556e-01        00000 
-1.61388e-01  1.15934e-01        00000 
 2.05564e-01  1.65583e-01        00000 
 1.79138e-01  1.58710e-01        00000 
 1.54169e-01  1.52552e-01        00000 
 1.30580e-01  1.47139e-01        00000 
 1.08245e-01  1.42489e-01        00000 
 8.70066e-02  1.38632e-01        00000 
 6.66690e-02  1.35573e-01        00000 
 4.70234e-02  1.33305e-01        00000 
 2.78642e-02  1.31811e-01        00000 
 8.99308e-03  1.31076e-01        00000 
-9.78255e-03  1.31091e-01        00000 
-2.86529e-02  1.31857e-01        00000 
-4.78106e-02  1.33382e-01        00000 
-6.74537e-02  1.35680e-01        00000 
-8.77880e-02  1.38769e-01        00000 
-1.09022e-01  1.42657e-01        00000 
-1.31352e-01  1.47335e-01        00000 
-1.54935e-01  1.52778e-01        00000 
-1.79899e-01  1.58963e-01        00000 
-2.06320e-01  1.65863e-01        00000 
 2.47598e-01  2.24296e-01        00000 
 2.16878e-01  2.17871e-01        00000 
 1.87618e-01  2.12138e-01        00000 
 1.59689e-01  2.07095e-01        00000 
 1.32950e-01  2.02754e-01        00000 
 1.07245e-01  1.99125e-01        00000 
 8.24009e-02  1.96219e-01        00000 
 5.82339e-02  1.94043e-01        00000 
 3.45522e-02  1.92599e-01        00000 
 1.11622e-02  1.91885e-01        00000 
-1.21303e-02  1.91899e-01        00000 
-3.55191e-02  1.92643e-01        00000 
-5.91981e-02  1.94117e-01        00000 
-8.33610e-02  1.96322e-01        00000 
-1.08199e-01  1.99256e-01        00000 
-1.33897e-01  2.02914e-01        00000 
-1.60627e-01  2.07283e-01        00000 
-1.88547e-01  2.12353e-01        00000 
-2.17797e-01  2.18112e-01        00000 
-2.48507e-01  2.24562e-01        00000 
 2.86789e-01  2.91440e-01        00000 
 2.51991e-01  2.85478e-01        00000 
 2.18669e-01  2.80166e-01        00000 
 1.86669e-01  2.75502e-01        00000 
 1.55833e-01  2.71489e-01        00000 
 1.25999e-01  2.68133e-01        00000 
 9.69972e-02  2.65442e-01        00000 
 6.86496e-02  2.63421e-01        00000 
 4.07734e-02  2.62076e-01        00000 
 1.31817e-02  2.61410e-01        00000 
-1.43144e-02  2.61423e-01        00000 
-4.19043e-02  2.62117e-01        00000 
-6.97770e-02  2.63490e-01        00000 
-9.81190e-02  2.65538e-01        00000 
-1.27113e-01  2.68256e-01        00000 
-1.56938e-01  2.71638e-01        00000 
-1.87762e-01  2.75676e-01        00000 
-2.19750e-01  2.80365e-01        00000 
-2.53060e-01  2.85702e-01        00000 
-2.87846e-01  2.91689e-01        00000 
 3.23066e-01  3.66505e-01        00000 
 2.84464e-01  3.61008e-01        00000 
 2.47350e-01  3.56117e-01        00000 
 2.11558e-01  3.51828e-01        00000 
 1.76921e-01  3.48144e-01        00000 
 1.43271e-01  3.45066e-01        00000 
 1.10436e-01  3.42598e-01        00000 
 7.82397e-02  3.40746e-01        00000 
 4.65023e-02  3.39513e-01        00000 
 1.50420e-02  3.38902e-01        00000 
-1.63251e-02  3.38914e-01        00000 
-4.77833e-02  3.39550e-01        00000 
-7.95164e-02  3.40808e-01        00000 
-1.11706e-01  3.42686e-01        00000 
-1.44533e-01  3.45177e-01        00000 
-1.78171e-01  3.48280e-01        00000 
-2.12795e-01  3.51988e-01        00000 
-2.48573e-01  3.56299e-01        00000 
-2.85673e-01  3.61214e-01        00000 
-3.24262e-01  3.66733e-01        00000 
 3.56396e-01  4.48900e-01        00000 
 3.14288e-01  4.43870e-01        00000 
 2.73674e-01  4.39397e-01        00000 
 2.34384e-01  4.35480e-01        00000 
 1.96247e-01  4.32117e-01        00000 
 1.59089e-01  4.29311e-01        00000 
 1.22737e-01  4.27063e-01        00000 
 8.70147e-02  4.25376e-01        00000 
 5.17434e-02  4.24254e-01        00000 
 1.67441e-02  4.23698e-01        00000 
-1.81637e-02  4.23709e-01        00000 
-5.31607e-02  4.24288e-01        00000 
-8.84271e-02  4.25433e-01        00000 
-1.24143e-01  4.27141e-01        00000 
-1.60485e-01  4.29411e-01        00000 
-1.97630e-01  4.32239e-01        00000 
-2.35754e-01  4.35623e-01        00000 
-2.75028e-01  4.39562e-01        00000 
-3.15626e-01  4.44056e-01        00000 
-3.57722e-01  4.49107e-01        00000 
 3.86772e-01  5.38010e-01        00000 
 3.41463e-01  5.33447e-01        00000 
 2.97653e-01  5.29391e-01        00000 
 2.55169e-01  5.25839e-01        00000 
 2.13837e-01  5.22791e-01        00000 
 1.73481e-01  5.20249e-01        00000 
 1.33925e-01  5.18213e-01        00000 
 9.49935e-02  5.16686e-01        00000 
 5.65083e-02  5.15670e-01        00000 
 1.82918e-02  5.15166e-01        00000 
-1.98344e-02  5.15176e-01        00000 
-5.80484e-02  5.15700e-01        00000 
-9.65284e-02  5.16736e-01        00000 
-1.35452e-01  5.18283e-01        00000 
-1.74997e-01  5.20338e-01        00000 
-2.15341e-01  5.22900e-01        00000 
-2.56659e-01  5.25967e-01        00000 
-2.99127e-01  5.29538e-01        00000 
-3.42922e-01  5.33614e-01        00000 
-3.88218e-01  5.38196e-01        00000 
 4.14199e-01  6.33218e-01        00000 
 3.65997e-01  6.29121e-01        00000 
 3.19299e-01  6.25477e-01        00000 
 2.73929e-01  6.22286e-01        00000 
 2.29712e-01  6.19547e-01        00000 
 1.86469e-01  6.17260e-01        00000 
 1.44023e-01  6.15427e-01        00000 
 1.02195e-01  6.14051e-01        00000 
 6.08096e-02  6.13134e-01        00000 
 1.96893e-02  6.12680e-01        00000 
-2.13417e-02  6.12689e-01        00000 
-6.24594e-02  6.13161e-01        00000 
-1.03840e-01  6.14094e-01        00000 
-1.45659e-01  6.15488e-01        00000 
-1.88095e-01  6.17338e-01        00000 
-2.31325e-01  6.19643e-01        00000 
-2.75528e-01  6.22399e-01        00000 
-3.20881e-01  6.25608e-01        00000 
-3.67564e-01  6.29268e-01        00000 
-4.15753e-01  6.33383e-01        00000 
 4.38680e-01  7.33910e-01        00000 
 3.87894e-01  7.30277e-01        00000 
 3.38620e-01  7.27045e-01        00000 
 2.90681e-01  7.24209e-01        00000 
 2.43895e-01  7.21769e-01        00000 
 1.98081e-01  7.19725e-01        00000 
 1.53056e-01  7.18083e-01        00000 
 1.08642e-01  7.16846e-01        00000 
 6.46622e-02  7.16020e-01        00000 
 2.09419e-02  7.15609e-01        00000 
-2.26911e-02  7.15617e-01        00000 
-6.64088e-02  7.16042e-01        00000 
-1.10384e-01  7.16883e-01        00000 
-1.54790e-01  7.18135e-01        00000 
-1.99804e-01  7.19793e-01        00000 
-2.45606e-01  7.21852e-01        00000 
-2.92377e-01  7.24308e-01        00000 
-3.40300e-01  7.27159e-01        00000 
-3.89559e-01  7.30406e-01        00000 
-4.40333e-01  7.34055e-01        00000 
 4.60211e-01  8.39480e-01        00000 
 4.07150e-01  8.36314e-01        00000 
 3.55624e-01  8.33490e-01        00000 
 3.05444e-01  8.31001e-01        00000 
 2.56418e-01  8.28846e-01        00000 
 2.08354e-01  8.27027e-01        00000 
 1.61065e-01  8.25554e-01        00000 
 1.14368e-01  8.24437e-01        00000 
 6.80884e-02  8.23687e-01        00000 
 2.20573e-02  8.23313e-01        00000 
-2.38906e-02  8.23319e-01        00000 
-6.99192e-02  8.23706e-01        00000 
-1.16194e-01  8.24469e-01        00000 
-1.62883e-01  8.25598e-01        00000 
-2.10162e-01  8.27084e-01        00000 
-2.58214e-01  8.28916e-01        00000 
-3.07226e-01  8.31085e-01        00000 
-3.57391e-01  8.33588e-01        00000 
-4.08902e-01  8.36425e-01        00000 
-4.61951e-01  8.39605e-01        00000 
 4.78751e-01  9.49319e-01        00000 
 4.23741e-01  9.46627e-01        00000 
 3.70309e-01  9.44212e-01        00000 
 3.18243e-01  9.42058e-01        00000 
 2.67327e-01  9.40165e-01        00000 
 2.17350e-01  9.38543e-01        00000 
 1.68112e-01  9.37208e-01        00000 
 1.19428e-01  9.36182e-01        00000 
 7.11266e-02  9.35485e-01        00000 
 2.30491e-02  9.35135e-01        00000 
-2.49539e-02  9.35140e-01        00000 
-7.30292e-02  9.35501e-01        00000 
-1.21326e-01  9.36208e-01        00000 
-1.70004e-01  9.37245e-01        00000 
-2.19232e-01  9.38591e-01        00000 
-2.69197e-01  9.40225e-01        00000 
-3.20100e-01  9.42129e-01        00000 
-3.72152e-01  9.44294e-01        00000 
-4.25569e-01  9.46721e-01        00000 
-4.80568e-01  9.49425e-01        00000 
 4.94195e-01  1.06279e+00        00000 
 4.37603e-01  1.06059e+00        00000 
 3.82664e-01  1.05859e+00        00000 
 3.29117e-01  1.05676e+00        00000 
 2.76701e-01  1.05510e+00        00000 
 2.25172e-01  1.05364e+00        00000 
 1.74309e-01  1.05240e+00        00000 
 1.23920e-01  1.05143e+00        00000 
 7.38428e-02  1.05075e+00        00000 
 2.39405e-02  1.05041e+00        00000 
-2.59046e-02  1.05041e+00        00000 
-7.58050e-02  1.05077e+00        00000 
-1.25878e-01  1.05145e+00        00000 
-1.76261e-01  1.05243e+00        00000 
-2.27116e-01  1.05368e+00        00000 
-2.78634e-01  1.05515e+00        00000 
-3.31038e-01  1.05682e+00        00000 
-3.84571e-01  1.05866e+00        00000 
-4.39496e-01  1.06067e+00        00000 
-4.96078e-01  1.06288e+00        00000 
 5.06330e-01  1.17913e+00        00000 
 4.48618e-01  1.17746e+00        00000 
 3.92659e-01  1.17589e+00        00000 
 3.38108e-01  1.17440e+00        00000 
 2.84642e-01  1.17298e+00        00000 
 2.31965e-01  1.17167e+00        00000 
 1.79821e-01  1.17051e+00        00000 
 1.27998e-01  1.16955e+00        00000 
 7.63471e-02  1.16886e+00        00000 
 2.47723e-02  1.16850e+00        00000 
-2.67842e-02  1.16850e+00        00000 
-7.83575e-02  1.16887e+00        00000 
-1.30006e-01  1.16956e+00        00000 
-1.81823e-01  1.17053e+00        00000 
-2.33960e-01  1.17171e+00        00000 
-2.86627e-01  1.17303e+00        00000 
-3.40081e-01  1.17445e+00        00000 
-3.94619e-01  1.17595e+00        00000 
-4.50566e-01  1.17753e+00        00000 
-5.08269e-01  1.17921e+00        00000 
 5.14845e-01  1.29731e+00        00000 
 4.56635e-01  1.29622e+00        00000 
 4.00225e-01  1.29513e+00        00000 
 3.45202e-01  1.29407e+00        00000 
 2.91201e-01  1.29302e+00        00000 
 2.37867e-01  1.29198e+00        00000 
 1.84854e-01  1.29095e+00        00000 
 1.31901e-01  1.29004e+00        00000 
 7.88296e-02  1.28931e+00        00000 
 2.56087e-02  1.28892e+00        00000 
-2.76579e-02  1.28893e+00        00000 
-8.08780e-02  1.28932e+00        00000 
-1.33948e-01  1.29006e+00        00000 
-1.86896e-01  1.29098e+00        00000 
-2.39903e-01  1.29201e+00        00000 
-2.93227e-01  1.29306e+00        00000 
-3.47216e-01  1.29412e+00        00000 
-4.02226e-01  1.29519e+00        00000 
-4.58624e-01  1.29628e+00        00000 
-5.16826e-01  1.29738e+00        00000 
 5.19534e-01  1.41576e+00        00000 
 4.61582e-01  1.41526e+00        00000 
 4.05230e-01  1.41478e+00        00000 
 3.50168e-01  1.41441e+00        00000 
 2.96120e-01  1.41412e+00        00000 
 2.42736e-01  1.41383e+00        00000 
 1.89536e-01  1.41340e+00        00000 
 1.35904e-01  1.41277e+00        00000 
 8.16042e-02  1.41221e+00        00000 
 2.66378e-02  1.41176e+00        00000 
-2.87154e-02  1.41176e+00        00000 
-8.36821e-02  1.41222e+00        00000 
-1.37981e-01  1.41279e+00        00000 
-1.91610e-01  1.41343e+00        00000 
-2.44803e-01  1.41387e+00        00000 
-2.98176e-01  1.41417e+00        00000 
-3.52210e-01  1.41446e+00        00000 
-4.07258e-01  1.41483e+00        00000 
-4.63597e-01  1.41532e+00        00000 
-5.21541e-01  1.41582e+00        00000 
 5.20942e-01  1.53245e+00        00000 
 4.63756e-01  1.53242e+00        00000 
 4.07582e-01  1.53260e+00        00000 
 3.52538e-01  1.53316e+00        00000 
 2.98576e-01  1.53416e+00        00000 
 2.45492e-01  1.53559e+00        00000 
 1.92882e-01  1.53728e+00        00000 
 1.40002e-01  1.53875e+00        00000 
 8.50057e-02  1.53897e+00        00000 
 2.77949e-02  1.53950e+00        00000 
-2.98939e-02  1.53950e+00        00000 
-8.71076e-02  1.53899e+00        00000 
-1.42104e-01  1.53878e+00        00000 
-1.94979e-01  1.53732e+00        00000 
-2.47578e-01  1.53564e+00        00000 
-3.00649e-01  1.53421e+00        00000 
-3.54595e-01  1.53321e+00        00000 
-4.09623e-01  1.53265e+00        00000 
-4.65783e-01  1.53247e+00        00000 
-5.22958e-01  1.53250e+00        00000 
 5.20983e-01  1.64644e+00        00000 
 4.64229e-01  1.64639e+00        00000 
 4.08014e-01  1.64640e+00        00000 
 3.52696e-01  1.64687e+00        00000 
 2.98324e-01  1.64828e+00        00000 
 2.44758e-01  1.65122e+00        00000 
 1.91647e-01  1.65647e+00        00000 
 1.38265e-01  1.66518e+00        00000 
 8.35129e-02  1.67903e+00        00000 
 2.72905e-02  1.68538e+00        00000 
-2.94107e-02  1.68540e+00        00000 
-8.56319e-02  1.67907e+00        00000 
-1.40378e-01  1.66523e+00        00000 
-1.93750e-01  1.65651e+00        00000 
-2.46848e-01  1.65126e+00        00000 
-3.00399e-01  1.64831e+00        00000 
-3.54755e-01  1.64690e+00        00000 
-4.10058e-01  1.64643e+00        00000 
-4.66258e-01  1.64642e+00        00000 
-5.23001e-01  1.64647e+00        00000 
 2.62946e-02  1.65433e-02        00000 
 2.07300e-02  1.31129e-02        00000 
 1.70654e-02  1.07130e-02        00000 
 1.40668e-02  9.05498e-03        00000 
 1.14039e-02  7.89091e-03        00000 
 8.93949e-03  7.07004e-03        00000 
 6.60141e-03  6.50107e-03        00000 
 4.34462e-03  6.12816e-03        00000 
 2.13694e-03  5.91790e-03        00000 
-4.75098e-05  5.85249e-03        00000 
-2.23201e-03  5.92635e-03        00000 
-4.43984e-03  6.14512e-03        00000 
-6.69690e-03  6.52668e-03        00000 
-9.03542e-03  7.10450e-03        00000 
-1.15005e-02  7.93448e-03        00000 
-1.41646e-02  9.10804e-03        00000 
-1.71651e-02  1.07762e-02        00000 
-2.08341e-02  1.31875e-02        00000 
-2.64119e-02  1.66314e-02        00000 
 8.01551e-02  5.26900e-02        00000 
 6.52409e-02  4.47546e-02        00000 
 5.37866e-02  3.89904e-02        00000 
 4.41953e-02  3.47281e-02        00000 
 3.57016e-02  3.15767e-02        00000 
 2.79020e-02  2.92706e-02        00000 
 2.05569e-02  2.76300e-02        00000 
 1.35075e-02  2.65353e-02        00000 
 6.63753e-03  2.59107e-02        00000 
-1.47496e-04  2.57140e-02        00000 
-6.93262e-03  2.59321e-02        00000 
-1.38029e-02  2.65783e-02        00000 
-2.08528e-02  2.76948e-02        00000 
-2.81987e-02  2.93574e-02        00000 
-3.59994e-02  3.16860e-02        00000 
-4.44951e-02  3.48608e-02        00000 
-5.40904e-02  3.91476e-02        00000 
-6.55537e-02  4.49386e-02        00000 
-8.04904e-02  5.29060e-02        00000 
 1.27165e-01  9.08491e-02        00000 
 1.08101e-01  8.36551e-02        00000 
 9.07645e-02  7.72923e-02        00000 
 7.51763e-02  7.20588e-02        00000 
 6.09416e-02  6.78992e-02        00000 
 4.76978e-02  6.46960e-02        00000 
 3.51605e-02  6.23332e-02        00000 
 2.31072e-02  6.07166e-02        00000 
 1.13563e-02  5.97789e-02        00000 
-2.48970e-04  5.94801e-02        00000 
-1.18543e-02  5.98070e-02        00000 
-2.36051e-02  6.07728e-02        00000 
-3.56583e-02  6.24176e-02        00000 
-4.81955e-02  6.48087e-02        00000 
-6.14392e-02  6.80405e-02        00000 
-7.56743e-02  7.22291e-02        00000 
-9.12642e-02  7.74920e-02        00000 
-1.08606e-01  8.38850e-02        00000 
-1.27677e-01  9.11084e-02        00000 
 1.71134e-01  1.36725e-01        00000 
 1.47639e-01  1.29983e-01        00000 
 1.25626e-01  1.24000e-01        00000 
 1.04998e-01  1.18821e-01        00000 
 8.56151e-02  1.14502e-01        00000 
 6.72580e-02  1.11044e-01        00000 
 4.96947e-02  1.08414e-01        00000 
 3.27055e-02  1.06576e-01        00000 
 1.60879e-02  1.05493e-01        00000 
-3.47302e-04  1.05145e-01        00000 
-1.67823e-02  1.05524e-01        00000 
-3.33991e-02  1.06636e-01        00000 
-5.03870e-02  1.08506e-01        00000 
-6.79485e-02  1.11165e-01        00000 
-8.63032e-02  1.14654e-01        00000 
-1.05683e-01  1.19002e-01        00000 
-1.26308e-01  1.24212e-01        00000 
-1.48318e-01  1.30223e-01        00000 
-1.71812e-01  1.36993e-01        00000 
 2.12366e-01  1.91285e-01        00000 
 1.84518e-01  1.84988e-01        00000 
 1.58072e-01  1.79398e-01        00000 
 1.32914e-01  1.74531e-01        00000 
 1.08898e-01  1.70407e-01        00000 
 8.58549e-02  1.67041e-01        00000 
 6.35969e-02  1.64438e-01        00000 
 4.19266e-02  1.62592e-01        00000 
 2.06462e-02  1.61495e-01        00000 
-4.39967e-04  1.61141e-01        00000 
-2.15256e-02  1.61526e-01        00000 
-4.28045e-02  1.62652e-01        00000 
-6.44721e-02  1.64528e-01        00000 
-8.67262e-02  1.67161e-01        00000 
-1.09764e-01  1.70556e-01        00000 
-1.33774e-01  1.74709e-01        00000 
-1.58925e-01  1.79604e-01        00000 
-1.85362e-01  1.85222e-01        00000 
-2.13202e-01  1.91545e-01        00000 
 2.50887e-01  2.54458e-01        00000 
 2.18855e-01  2.48601e-01        00000 