<?xml version="1.0" encoding="utf-8"?>
<VTKFile byte_order="LittleEndian" type="UnstructuredGrid" version="0.1">
   <UnstructuredGrid>
      <Piece NumberOfCells="1444" NumberOfPoints="761">
         <Points>
            <DataArray Name="Points" NumberOfComponents="3" format="ascii" type="Float32">
0.0000 1.0000 0.0000
0.0000 1.0526 0.0000
0.0000 1.1053 0.0000
0.0000 1.1579 0.0000
0.0000 1.2105 0.0000
0.0000 1.2632 0.0000
0.0000 1.3158 0.0000
0.0000 1.3684 0.0000
0.0000 1.4211 0.0000
0.0000 1.4737 0.0000
0.0000 1.5263 0.0000
0.0000 1.5789 0.0000
0.0000 1.6316 0.0000
0.0000 1.6842 0.0000
0.0000 1.7368 0.0000
0.0000 1.7895 0.0000
0.0000 1.8421 0.0000
0.0000 1.8947 0.0000
0.0000 1.9474 0.0000
0.0000 2.0000 0.0000
0.1053 1.0000 0.0000
0.1053 1.0526 0.0000
0.1053 1.1053 0.0000
0.1053 1.1579 0.0000
0.1053 1.2105 0.0000
0.1053 1.2632 0.0000
0.1053 1.3158 0.0000
0.1053 1.3684 0.0000
0.1053 1.4211 0.0000
0.1053 1.4737 0.0000
0.1053 1.5263 0.0000
0.1053 1.5789 0.0000
0.1053 1.6316 0.0000
0.1053 1.6842 0.0000
0.1053 1.7368 0.0000
0.1053 1.7895 0.0000
0.1053 1.8421 0.0000
0.1053 1.8947 0.0000
0.1053 1.9474 0.0000
0.1053 2.0000 0.0000
0.2105 1.0000 0.0000
0.2105 1.0526 0.0000
0.2105 1.1053 0.0000
0.2105 1.1579 0.0000
0.2105 1.2105 0.0000
0.2105 1.2632 0.0000
0.2105 1.3158 0.0000
0.2105 1.3684 0.0000
0.2105 1.4211 0.0000
0.2105 1.4737 0.0000
0.2105 1.5263 0.0000
0.2105 1.5789 0.0000
0.2105 1.6316 0.0000
0.2105 1.6842 0.0000
0.2105 1.7368 0.0000
0.2105 1.7895 0.0000
0.2105 1.8421 0.0000
0.2105 1.8947 0.0000
0.2105 1.9474 0.0000
0.2105 2.0000 0.0000
0.3158 1.0000 0.0000
0.3158 1.0526 0.0000
0.3158 1.1053 0.0000
0.3158 1.1579 0.0000
0.3158 1.2105 0.0000
0.3158 1.2632 0.0000
0.3158 1.3158 0.0000
0.3158 1.3684 0.0000
0.3158 1.4211 0.0000
0.3158 1.4737 0.0000
0.3158 1.5263 0.0000
0.3158 1.5789 0.0000
0.3158 1.6316 0.0000
0.3158 1.6842 0.0000
0.3158 1.7368 0.0000
0.3158 1.7895 0.0000
0.3158 1.8421 0.0000
0.3158 1.8947 0.0000
0.3158 1.9474 0.0000
0.3158 2.0000 0.0000
0.4211 1.0000 0.0000
0.4211 1.0526 0.0000
0.4211 1.1053 0.0000
0.4211 1.1579 0.0000
0.4211 1.2105 0.0000
0.4211 1.2632 0.0000
0.4211 1.3158 0.0000
0.4211 1.3684 0.0000
0.4211 1.4211 0.0000
0.4211 1.4737 0.0000
0.4211 1.5263 0.0000
0.4211 1.5789 0.0000
0.4211 1.6316 0.0000
0.4211 1.6842 0.0000
0.4211 1.7368 0.0000
0.4211 1.7895 0.0000
0.4211 1.8421 0.0000
0.4211 1.8947 0.0000
0.4211 1.9474 0.0000
0.4211 2.0000 0.0000
0.5263 1.0000 0.0000
0.5263 1.0526 0.0000
0.5263 1.1053 0.0000
0.5263 1.1579 0.0000
0.5263 1.2105 0.0000
0.5263 1.2632 0.0000
0.5263 1.3158 0.0000
0.5263 1.3684 0.0000
0.5263 1.4211 0.0000
0.5263 1.4737 0.0000
0.5263 1.5263 0.0000
0.5263 1.5789 0.0000
0.5263 1.6316 0.0000
0.5263 1.6842 0.0000
0.5263 1.7368 0.0000
0.5263 1.7895 0.0000
0.5263 1.8421 0.0000
0.5263 1.8947 0.0000
0.5263 1.9474 0.0000
0.5263 2.0000 0.0000
0.6316 1.0000 0.0000
0.6316 1.0526 0.0000
0.6316 1.1053 0.0000
0.6316 1.1579 0.0000
0.6316 1.2105 0.0000
0.6316 1.2632 0.0000
0.6316 1.3158 0.0000
0.6316 1.3684 0.0000
0.6316 1.4211 0.0000
0.6316 1.4737 0.0000
0.6316 1.5263 0.0000
0.6316 1.5789 0.0000
0.6316 1.6316 0.0000
0.6316 1.6842 0.0000
0.6316 1.7368 0.0000
0.6316 1.7895 0.0000
0.6316 1.8421 0.0000
0.6316 1.8947 0.0000
0.6316 1.9474 0.0000
0.6316 2.0000 0.0000
0.7368 1.0000 0.0000
0.7368 1.0526 0.0000
0.7368 1.1053 0.0000
0.7368 1.1579 0.0000
0.7368 1.2105 0.0000
0.7368 1.2632 0.0000
0.7368 1.3158 0.0000
0.7368 1.3684 0.0000
0.7368 1.4211 0.0000
0.7368 1.4737 0.0000
0.7368 1.5263 0.0000
0.7368 1.5789 0.0000
0.7368 1.6316 0.0000
0.7368 1.6842 0.0000
0.7368 1.7368 0.0000
0.7368 1.7895 0.0000
0.7368 1.8421 0.0000
0.7368 1.8947 0.0000
0.7368 1.9474 0.0000
0.7368 2.0000 0.0000
0.8421 1.0000 0.0000
0.8421 1.0526 0.0000
0.8421 1.1053 0.0000
0.8421 1.1579 0.0000
0.8421 1.2105 0.0000
0.8421 1.2632 0.0000
0.8421 1.3158 0.0000
0.8421 1.3684 0.0000
0.8421 1.4211 0.0000
0.8421 1.4737 0.0000
0.8421 1.5263 0.0000
0.8421 1.5789 0.0000
0.8421 1.6316 0.0000
0.8421 1.6842 0.0000
0.8421 1.7368 0.0000
0.8421 1.7895 0.0000
0.8421 1.8421 0.0000
0.8421 1.8947 0.0000
0.8421 1.9474 0.0000
0.8421 2.0000 0.0000
0.9474 1.0000 0.0000
0.9474 1.0526 0.0000
0.9474 1.1053 0.0000
0.9474 1.1579 0.0000
0.9474 1.2105 0.0000
0.9474 1.2632 0.0000
0.9474 1.3158 0.0000
0.9474 1.3684 0.0000
0.9474 1.4211 0.0000
0.9474 1.4737 0.0000
0.9474 1.5263 0.0000
0.9474 1.5789 0.0000
0.9474 1.6316 0.0000
0.9474 1.6842 0.0000
0.9474 1.7368 0.0000
0.9474 1.7895 0.0000
0.9474 1.8421 0.0000
0.9474 1.8947 0.0000
0.9474 1.9474 0.0000
0.9474 2.0000 0.0000
1.0526 1.0000 0.0000
1.0526 1.0526 0.0000
1.0526 1.1053 0.0000
1.0526 1.1579 0.0000
1.0526 1.2105 0.0000
1.0526 1.2632 0.0000
1.0526 1.3158 0.0000
1.0526 1.3684 0.0000
1.0526 1.4211 0.0000
1.0526 1.4737 0.0000
1.0526 1.5263 0.0000
1.0526 1.5789 0.0000
1.0526 1.6316 0.0000
1.0526 1.6842 0.0000
1.0526 1.7368 0.0000
1.0526 1.7895 0.0000
1.0526 1.8421 0.0000
1.0526 1.8947 0.0000
1.0526 1.9474 0.0000
1.0526 2.0000 0.0000
1.1579 1.0000 0.0000
1.1579 1.0526 0.0000
1.1579 1.1053 0.0000
1.1579 1.1579 0.0000
1.1579 1.2105 0.0000
1.1579 1.2632 0.0000
1.1579 1.3158 0.0000
1.1579 1.3684 0.0000
1.1579 1.4211 0.0000
1.1579 1.4737 0.0000
1.1579 1.5263 0.0000
1.1579 1.5789 0.0000
1.1579 1.6316 0.0000
1.1579 1.6842 0.0000
1.1579 1.7368 0.0000
1.1579 1.7895 0.0000
1.1579 1.8421 0.0000
1.1579 1.8947 0.0000
1.1579 1.9474 0.0000
1.1579 2.0000 0.0000
1.2632 1.0000 0.0000
1.2632 1.0526 0.0000
1.2632 1.1053 0.0000
1.2632 1.1579 0.0000
1.2632 1.2105 0.0000
1.2632 1.2632 0.0000
1.2632 1.3158 0.0000
1.2632 1.3684 0.0000
1.2632 1.4211 0.0000
1.2632 1.4737 0.0000
1.2632 1.5263 0.0000
1.2632 1.5789 0.0000
1.2632 1.6316 0.0000
1.2632 1.6842 0.0000
1.2632 1.7368 0.0000
1.2632 1.7895 0.0000
1.2632 1.8421 0.0000
1.2632 1.8947 0.0000
1.2632 1.9474 0.0000
1.2632 2.0000 0.0000
1.3684 1.0000 0.0000
1.3684 1.0526 0.0000
1.3684 1.1053 0.0000
1.3684 1.1579 0.0000
1.3684 1.2105 0.0000
1.3684 1.2632 0.0000
1.3684 1.3158 0.0000
1.3684 1.3684 0.0000
1.3684 1.4211 0.0000
1.3684 1.4737 0.0000
1.3684 1.5263 0.0000
1.3684 1.5789 0.0000
1.3684 1.6316 0.0000
1.3684 1.6842 0.0000
1.3684 1.7368 0.0000
1.3684 1.7895 0.0000
1.3684 1.8421 0.0000
1.3684 1.8947 0.0000
1.3684 1.9474 0.0000
1.3684 2.0000 0.0000
1.4737 1.0000 0.0000
1.4737 1.0526 0.0000
1.4737 1.1053 0.0000
1.4737 1.1579 0.0000
1.4737 1.2105 0.0000
1.4737 1.2632 0.0000
1.4737 1.3158 0.0000
1.4737 1.3684 0.0000
1.4737 1.4211 0.0000
1.4737 1.4737 0.0000
1.4737 1.5263 0.0000
1.4737 1.5789 0.0000
1.4737 1.6316 0.0000
1.4737 1.6842 0.0000
1.4737 1.7368 0.0000
1.4737 1.7895 0.0000
1.4737 1.8421 0.0000
1.4737 1.8947 0.0000
1.4737 1.9474 0.0000
1.4737 2.0000 0.0000
1.5789 1.0000 0.0000
1.5789 1.0526 0.0000
1.5789 1.1053 0.0000
1.5789 1.1579 0.0000
1.5789 1.2105 0.0000
1.5789 1.2632 0.0000
1.5789 1.3158 0.0000
1.5789 1.3684 0.0000
1.5789 1.4211 0.0000
1.5789 1.4737 0.0000
1.5789 1.5263 0.0000
1.5789 1.5789 0.0000
1.5789 1.6316 0.0000
1.5789 1.6842 0.0000
1.5789 1.7368 0.0000
1.5789 1.7895 0.0000
1.5789 1.8421 0.0000
1.5789 1.8947 0.0000
1.5789 1.9474 0.0000
1.5789 2.0000 0.0000
1.6842 1.0000 0.0000
1.6842 1.0526 0.0000
1.6842 1.1053 0.0000
1.6842 1.1579 0.0000
1.6842 1.2105 0.0000
1.6842 1.2632 0.0000
1.6842 1.3158 0.0000
1.6842 1.3684 0.0000
1.6842 1.4211 0.0000
1.6842 1.4737 0.0000
1.6842 1.5263 0.0000
1.6842 1.5789 0.0000
1.6842 1.6316 0.0000
1.6842 1.6842 0.0000
1.6842 1.7368 0.0000
1.6842 1.7895 0.0000
1.6842 1.8421 0.0000
1.6842 1.8947 0.0000
1.6842 1.9474 0.0000
1.6842 2.0000 0.0000
1.7895 1.0000 0.0000
1.7895 1.0526 0.0000
1.7895 1.1053 0.0000
1.7895 1.1579 0.0000
1.7895 1.2105 0.0000
1.7895 1.2632 0.0000
1.7895 1.3158 0.0000
1.7895 1.3684 0.0000
1.7895 1.4211 0.0000
1.7895 1.4737 0.0000
1.7895 1.5263 0.0000
1.7895 1.5789 0.0000
1.7895 1.6316 0.0000
1.7895 1.6842 0.0000
1.7895 1.7368 0.0000
1.7895 1.7895 0.0000
1.7895 1.8421 0.0000
1.7895 1.8947 0.0000
1.7895 1.9474 0.0000
1.7895 2.0000 0.0000
1.8947 1.0000 0.0000
1.8947 1.0526 0.0000
1.8947 1.1053 0.0000
1.8947 1.1579 0.0000
1.8947 1.2105 0.0000
1.8947 1.2632 0.0000
1.8947 1.3158 0.0000
1.8947 1.3684 0.0000
1.8947 1.4211 0.0000
1.8947 1.4737 0.0000
1.8947 1.5263 0.0000
1.8947 1.5789 0.0000
1.8947 1.6316 0.0000
1.8947 1.6842 0.0000
1.8947 1.7368 0.0000
1.8947 1.7895 0.0000
1.8947 1.8421 0.0000
1.8947 1.8947 0.0000
1.8947 1.9474 0.0000
1.8947 2.0000 0.0000
2.0000 1.0000 0.0000
2.0000 1.0526 0.0000
2.0000 1.1053 0.0000
2.0000 1.1579 0.0000
2.0000 1.2105 0.0000
2.0000 1.2632 0.0000
2.0000 1.3158 0.0000
2.0000 1.3684 0.0000
2.0000 1.4211 0.0000
2.0000 1.4737 0.0000
2.0000 1.5263 0.0000
2.0000 1.5789 0.0000
2.0000 1.6316 0.0000
2.0000 1.6842 0.0000
2.0000 1.7368 0.0000
2.0000 1.7895 0.0000
2.0000 1.8421 0.0000
2.0000 1.8947 0.0000
2.0000 1.9474 0.0000
2.0000 2.0000 0.0000
0.0526 1.0263 0.0000
0.0526 1.0789 0.0000
0.0526 1.1316 0.0000
0.0526 1.1842 0.0000
0.0526 1.2368 0.0000
0.0526 1.2895 0.0000
0.0526 1.3421 0.0000
0.0526 1.3947 0.0000
0.0526 1.4474 0.0000
0.0526 1.5000 0.0000
0.0526 1.5526 0.0000
0.0526 1.6053 0.0000
0.0526 1.6579 0.0000
0.0526 1.7105 0.0000
0.0526 1.7632 0.0000
0.0526 1.8158 0.0000
0.0526 1.8684 0.0000
0.0526 1.9211 0.0000
0.0526 1.9737 0.0000
0.1579 1.0263 0.0000
0.1579 1.0789 0.0000
0.1579 1.1316 0.0000
0.1579 1.1842 0.0000
0.1579 1.2368 0.0000
0.1579 1.2895 0.0000
0.1579 1.3421 0.0000
0.1579 1.3947 0.0000
0.1579 1.4474 0.0000
0.1579 1.5000 0.0000
0.1579 1.5526 0.0000
0.1579 1.6053 0.0000
0.1579 1.6579 0.0000
0.1579 1.7105 0.0000
0.1579 1.7632 0.0000
0.1579 1.8158 0.0000
0.1579 1.8684 0.0000
0.1579 1.9211 0.0000
0.1579 1.9737 0.0000
0.2632 1.0263 0.0000
0.2632 1.0789 0.0000
0.2632 1.1316 0.0000
0.2632 1.1842 0.0000
0.2632 1.2368 0.0000
0.2632 1.2895 0.0000
0.2632 1.3421 0.0000
0.2632 1.3947 0.0000
0.2632 1.4474 0.0000
0.2632 1.5000 0.0000
0.2632 1.5526 0.0000
0.2632 1.6053 0.0000
0.2632 1.6579 0.0000
0.2632 1.7105 0.0000
0.2632 1.7632 0.0000
0.2632 1.8158 0.0000
0.2632 1.8684 0.0000
0.2632 1.9211 0.0000
0.2632 1.9737 0.0000
0.3684 1.0263 0.0000
0.3684 1.0789 0.0000
0.3684 1.1316 0.0000
0.3684 1.1842 0.0000
[...]
         <PointData>
            <DataArray Name="displacement" NumberOfComponents="3" format="ascii" type="Float64">
 4.80440e-18 -1.86525e-18        00000 
 9.66032e-19  2.41508e-18        00000 
 2.14557e-18 -1.66878e-18        00000 
-1.57252e-19  1.69982e-18        00000 
 2.50317e-18 -1.78798e-18        00000 
 5.80469e-19 -1.26348e-18        00000 
 1.19198e-19  3.57595e-19        00000 
 7.08571e-19  6.73938e-20        00000 
-7.89690e-19  1.19198e-18        00000 
-6.01221e-20 -9.61953e-19        00000 
-2.97996e-20  9.53587e-19        00000 
 2.48983e-19  7.26356e-19        00000 
-3.57595e-19  2.38397e-19        00000 
 2.09218e-18  1.26104e-18        00000 
-3.21836e-18 -1.19198e-19        00000 
 8.31191e-19  6.73938e-19        00000 
-2.38397e-18 -1.90717e-18        00000 
 4.81011e-19  1.44303e-18        00000 
-4.08751e-18 -8.41546e-19        00000 
 3.54483e-18  2.10386e-19        00000 
-3.75015e-02 -2.37688e-02        00000 
-2.85204e-02 -1.81224e-02        00000 
-2.31635e-02 -1.44703e-02        00000 
-1.90258e-02 -1.20187e-02        00000 
-1.54937e-02 -1.03126e-02        00000 
-1.23183e-02 -9.10424e-03        00000 
-9.37023e-03 -8.25174e-03        00000 
-6.57035e-03 -7.67031e-03        00000 
-3.86403e-03 -7.30875e-03        00000 
-1.20913e-03 -7.13775e-03        00000 
 1.43056e-03 -7.14422e-03        00000 
 4.08956e-03 -7.32900e-03        00000 
 6.80448e-03 -7.70698e-03        00000 
 9.61834e-03 -8.30959e-03        00000 
 1.25871e-02 -9.19059e-03        00000 
 1.57916e-02 -1.04374e-02        00000 
 1.93630e-02 -1.21940e-02        00000 
 2.35501e-02 -1.47068e-02        00000 
 2.89596e-02 -1.84233e-02        00000 
 3.79865e-02 -2.41312e-02        00000 
-6.72129e-02 -4.34945e-02        00000 
-5.67523e-02 -3.90164e-02        00000 
-4.73051e-02 -3.48389e-02        00000 
-3.91845e-02 -3.14210e-02        00000 
-3.19980e-02 -2.87454e-02        00000 
-2.54557e-02 -2.67040e-02        00000 
-1.93598e-02 -2.51920e-02        00000 
-1.35694e-02 -2.41273e-02        00000 
-7.97728e-03 -2.34518e-02        00000 
-2.49592e-03 -2.31291e-02        00000 
 2.95237e-03 -2.31420e-02        00000 
 8.44231e-03 -2.34913e-02        00000 
 1.40520e-02 -2.41960e-02        00000 
 1.98700e-02 -2.52944e-02        00000 
 2.60041e-02 -2.68457e-02        00000 
 3.25949e-02 -2.89325e-02        00000 
 3.98366e-02 -3.16581e-02        00000 
 4.80098e-02 -3.51265e-02        00000 
 5.74898e-02 -3.93507e-02        00000 
 6.79561e-02 -4.38713e-02        00000 
-9.47796e-02 -6.75283e-02        00000 
-8.19374e-02 -6.32681e-02        00000 
-6.99041e-02 -5.94558e-02        00000 
-5.87013e-02 -5.60906e-02        00000 
-4.83171e-02 -5.32495e-02        00000 
-3.86169e-02 -5.09476e-02        00000 
-2.94492e-02 -4.91643e-02        00000 
-2.06733e-02 -4.78674e-02        00000 
-1.21639e-02 -4.70268e-02        00000 
-3.80715e-03 -4.66205e-02        00000 
 4.50328e-03 -4.66371e-02        00000 
 1.28715e-02 -4.70772e-02        00000 
 2.14042e-02 -4.79530e-02        00000 
 3.02148e-02 -4.92874e-02        00000 
 3.94279e-02 -5.11107e-02        00000 
 4.91810e-02 -5.34544e-02        00000 
 5.96188e-02 -5.63378e-02        00000 
 7.08648e-02 -5.97444e-02        00000 
 8.29202e-02 -6.35972e-02        00000 
 9.57599e-02 -6.78973e-02        00000 
-1.20634e-01 -9.64811e-02        00000 
-1.05264e-01 -9.25259e-02        00000 
-9.06682e-02 -8.89763e-02        00000 
-7.68225e-02 -8.58462e-02        00000 
-6.36735e-02 -8.31473e-02        00000 
-5.11474e-02 -8.08994e-02        00000 
-3.91420e-02 -7.91118e-02        00000 
-2.75417e-02 -7.77840e-02        00000 
-1.62278e-02 -7.69101e-02        00000 
-5.08212e-03 -7.64840e-02        00000 
 6.01193e-03 -7.65018e-02        00000 
 1.71703e-02 -7.69639e-02        00000 
 2.85095e-02 -7.78742e-02        00000 
 4.01465e-02 -7.92392e-02        00000 
 5.21983e-02 -8.10645e-02        00000 
 6.47759e-02 -8.33503e-02        00000 
 7.79748e-02 -8.60869e-02        00000 
 9.18588e-02 -8.92544e-02        00000 
 1.06472e-01 -9.28410e-02        00000 
 1.21836e-01 -9.68334e-02        00000 
-1.44755e-01 -1.30522e-01        00000 
-1.26912e-01 -1.26847e-01        00000 
-1.09859e-01 -1.23565e-01        00000 
-9.35331e-02 -1.20673e-01        00000 
-7.78666e-02 -1.18177e-01        00000 
-6.27796e-02 -1.16084e-01        00000 
-4.81821e-02 -1.14405e-01        00000 
-3.39729e-02 -1.13146e-01        00000 
-2.00434e-02 -1.12311e-01        00000 
-6.28051e-03 -1.11903e-01        00000 
 7.43103e-03 -1.11920e-01        00000 
 2.12068e-02 -1.12364e-01        00000 
 3.51616e-02 -1.13234e-01        00000 
 4.94072e-02 -1.14528e-01        00000 
 6.40500e-02 -1.16243e-01        00000 
 7.91866e-02 -1.18370e-01        00000 
 9.49003e-02 -1.20901e-01        00000 
 1.11261e-01 -1.23827e-01        00000 
 1.28329e-01 -1.27144e-01        00000 
 1.46163e-01 -1.30853e-01        00000 
-1.67119e-01 -1.69422e-01        00000 
-1.46938e-01 -1.66029e-01        00000 
-1.27564e-01 -1.63006e-01        00000 
-1.08917e-01 -1.60349e-01        00000 
-9.09162e-02 -1.58059e-01        00000 
-7.34747e-02 -1.56140e-01        00000 
-5.65011e-02 -1.54599e-01        00000 
-3.98980e-02 -1.53441e-01        00000 
-2.35622e-02 -1.52672e-01        00000 
-7.38598e-03 -1.52295e-01        00000 
 8.74102e-03 -1.52311e-01        00000 
 2.49299e-02 -1.52722e-01        00000 
 4.12904e-02 -1.53524e-01        00000 
 5.79290e-02 -1.54714e-01        00000 
 7.49465e-02 -1.56288e-01        00000 
 9.24361e-02 -1.58239e-01        00000 
 1.10482e-01 -1.60561e-01        00000 
 1.29162e-01 -1.63250e-01        00000 
 1.48549e-01 -1.66305e-01        00000 
 1.68720e-01 -1.69730e-01        00000 
-1.87716e-01 -2.12860e-01        00000 
-1.65364e-01 -2.09748e-01        00000 
-1.43832e-01 -2.06978e-01        00000 
-1.23031e-01 -2.04547e-01        00000 
-1.02872e-01 -2.02457e-01        00000 
-8.32629e-02 -2.00708e-01        00000 
-6.41101e-02 -1.99305e-01        00000 
-4.53161e-02 -1.98252e-01        00000 
-2.67797e-02 -1.97553e-01        00000 
-8.39671e-03 -1.97210e-01        00000 
 9.93907e-03 -1.97225e-01        00000 
 2.83344e-02 -1.97598e-01        00000 
 4.68950e-02 -1.98328e-01        00000 
 6.57238e-02 -1.99411e-01        00000 
 8.49194e-02 -2.00844e-01        00000 
 1.04575e-01 -2.02622e-01        00000 
 1.24778e-01 -2.04741e-01        00000 
 1.45611e-01 -2.07201e-01        00000 
 1.67154e-01 -2.10000e-01        00000 
 1.89495e-01 -2.13143e-01        00000 
-2.06555e-01 -2.60476e-01        00000 
-1.82212e-01 -2.57641e-01        00000 
-1.58695e-01 -2.55118e-01        00000 
-1.35914e-01 -2.52908e-01        00000 
-1.13775e-01 -2.51009e-01        00000 
-9.21817e-02 -2.49423e-01        00000 
-7.10383e-02 -2.48152e-01        00000 
-5.02468e-02 -2.47199e-01        00000 
-2.97069e-02 -2.46566e-01        00000 
-9.31623e-03 -2.46256e-01        00000 
 1.10286e-02 -2.46270e-01        00000 
 3.14314e-02 -2.46607e-01        00000 
 5.19951e-02 -2.47267e-01        00000 
 7.28208e-02 -2.48247e-01        00000 
 9.40063e-02 -2.49545e-01        00000 
 1.15645e-01 -2.51158e-01        00000 
 1.37828e-01 -2.53083e-01        00000 
 1.60640e-01 -2.55320e-01        00000 
 1.84166e-01 -2.57869e-01        00000 
 2.08497e-01 -2.60732e-01        00000 
-2.23656e-01 -3.11903e-01        00000 
-1.97502e-01 -3.09339e-01        00000 
-1.72181e-01 -3.07060e-01        00000 
-1.47598e-01 -3.05064e-01        00000 
-1.23658e-01 -3.03350e-01        00000 
-1.00262e-01 -3.01919e-01        00000 
-7.73126e-02 -3.00773e-01        00000 
-5.47108e-02 -2.99913e-01        00000 
-3.23565e-02 -2.99343e-01        00000 
-1.01489e-02 -2.99063e-01        00000 
 1.20139e-02 -2.99075e-01        00000 
 3.42337e-02 -2.99379e-01        00000 
 5.66116e-02 -2.99973e-01        00000 
 7.92474e-02 -3.00856e-01        00000 
 1.02239e-01 -3.02027e-01        00000 
 1.25680e-01 -3.03482e-01        00000 
 1.49663e-01 -3.05220e-01        00000 
 1.74276e-01 -3.07240e-01        00000 
 1.99607e-01 -3.09543e-01        00000 
 2.25748e-01 -3.12131e-01        00000 
-2.39043e-01 -3.66774e-01        00000 
-2.11259e-01 -3.64480e-01        00000 
-1.84312e-01 -3.62440e-01        00000 
-1.58108e-01 -3.60652e-01        00000 
-1.32547e-01 -3.59117e-01        00000 
-1.07529e-01 -3.57834e-01        00000 
-8.29557e-02 -3.56805e-01        00000 
-5.87260e-02 -3.56033e-01        00000 
-3.47403e-02 -3.55520e-01        00000 
-1.08986e-02 -3.55268e-01        00000 
 1.28991e-02 -3.55279e-01        00000 
 3.67530e-02 -3.55551e-01        00000 
 6.07624e-02 -3.56084e-01        00000 
 8.50264e-02 -3.56877e-01        00000 
 1.09642e-01 -3.57927e-01        00000 
 1.34705e-01 -3.59231e-01        00000 
 1.60309e-01 -3.60787e-01        00000 
 1.86543e-01 -3.62597e-01        00000 
 2.13499e-01 -3.64658e-01        00000 
 2.41270e-01 -3.66975e-01        00000 
-2.52735e-01 -4.24734e-01        00000 
-2.23499e-01 -4.22705e-01        00000 
-1.95108e-01 -4.20901e-01        00000 
-1.67464e-01 -4.19317e-01        00000 
-1.40465e-01 -4.17952e-01        00000 
-1.14007e-01 -4.16809e-01        00000 
-8.79897e-02 -4.15890e-01        00000 
-6.23104e-02 -4.15197e-01        00000 
-3.68699e-02 -4.14736e-01        00000 
-1.15696e-02 -4.14509e-01        00000 
 1.36882e-02 -4.14518e-01        00000 
 3.90008e-02 -4.14762e-01        00000 
 6.44656e-02 -4.15240e-01        00000 
 9.01796e-02 -4.15950e-01        00000 
 1.16240e-01 -4.16887e-01        00000 
 1.42744e-01 -4.18048e-01        00000 
 1.69787e-01 -4.19431e-01        00000 
 1.97462e-01 -4.21034e-01        00000 
 2.25862e-01 -4.22858e-01        00000 
 2.55085e-01 -4.24907e-01        00000 
-2.64744e-01 -4.85431e-01        00000 
-2.34235e-01 -4.83667e-01        00000 
-2.04583e-01 -4.82095e-01        00000 
-1.75687e-01 -4.80708e-01        00000 
-1.47437e-01 -4.79506e-01        00000 
-1.19724e-01 -4.78491e-01        00000 
-9.24417e-02 -4.77668e-01        00000 
-6.54867e-02 -4.77044e-01        00000 
-3.87604e-02 -4.76626e-01        00000 
-1.21672e-02 -4.76419e-01        00000 
 1.43863e-02 -4.76426e-01        00000 
 4.09923e-02 -4.76647e-01        00000 
 6.77436e-02 -4.77079e-01        00000 
 9.47344e-02 -4.77717e-01        00000 
 1.22061e-01 -4.78554e-01        00000 
 1.49822e-01 -4.79584e-01        00000 
 1.78118e-01 -4.80802e-01        00000 
 2.07046e-01 -4.82205e-01        00000 
 2.36708e-01 -4.83795e-01        00000 
 2.67206e-01 -4.85577e-01        00000 
-2.75059e-01 -5.48516e-01        00000 
-2.43461e-01 -5.47021e-01        00000 
-2.12747e-01 -5.45679e-01        00000 
-1.82800e-01 -5.44481e-01        00000 
-1.53498e-01 -5.43428e-01        00000 
-1.24720e-01 -5.42524e-01        00000 
-9.63526e-02 -5.41780e-01        00000 
-6.82898e-02 -5.41208e-01        00000 
-4.04352e-02 -5.40820e-01        00000 
-1.26995e-02 -5.40626e-01        00000 
 1.50017e-02 -5.40632e-01        00000 
 4.27507e-02 -5.40837e-01        00000 
 7.06311e-02 -5.41235e-01        00000 
 9.87313e-02 -5.41818e-01        00000 
 1.27145e-01 -5.42574e-01        00000 
 1.55974e-01 -5.43490e-01        00000 
 1.85324e-01 -5.44557e-01        00000 
 2.15307e-01 -5.45768e-01        00000 
 2.46034e-01 -5.47126e-01        00000 
 2.77622e-01 -5.48638e-01        00000 
-2.83631e-01 -6.13627e-01        00000 
-2.51152e-01 -6.12408e-01        00000 
-2.19601e-01 -6.11297e-01        00000 
-1.88832e-01 -6.10282e-01        00000 
-1.58697e-01 -6.09362e-01        00000 
-1.29057e-01 -6.08550e-01        00000 
-9.97863e-02 -6.07861e-01        00000 
-7.07753e-02 -6.07319e-01        00000 
-4.19321e-02 -6.06944e-01        00000 
-1.31797e-02 -6.06754e-01        00000 
 1.55482e-02 -6.06758e-01        00000 
 4.43143e-02 -6.06958e-01        00000 
 7.31844e-02 -6.07342e-01        00000 
 1.02234e-01 -6.07894e-01        00000 
 1.31554e-01 -6.08592e-01        00000 
 1.61248e-01 -6.09414e-01        00000 
 1.91435e-01 -6.10344e-01        00000 
 2.22244e-01 -6.11371e-01        00000 
 2.53813e-01 -6.12496e-01        00000 
 2.86285e-01 -6.13729e-01        00000 
-2.90352e-01 -6.80336e-01        00000 
-2.57253e-01 -6.79412e-01        00000 
-2.25136e-01 -6.78542e-01        00000 
-1.93812e-01 -6.77714e-01        00000 
-1.63096e-01 -6.76929e-01        00000 
-1.32820e-01 -6.76201e-01        00000 
-1.02838e-01 -6.75555e-01        00000 
-7.30311e-02 -6.75021e-01        00000 
-4.33130e-02 -6.74640e-01        00000 
-1.36304e-02 -6.74442e-01        00000 
 1.60496e-02 -6.74447e-01        00000 
 4.57463e-02 -6.74655e-01        00000 
 7.54921e-02 -6.75045e-01        00000 
 1.05340e-01 -6.75588e-01        00000 
 1.35372e-01 -6.76243e-01        00000 
 1.65706e-01 -6.76980e-01        00000 
 1.96479e-01 -6.77773e-01        00000 
 2.27849e-01 -6.78612e-01        00000 
 2.59988e-01 -6.79493e-01        00000 
 2.93087e-01 -6.80428e-01        00000 
-2.95058e-01 -7.48059e-01        00000 
-2.61685e-01 -7.47455e-01        00000 
-2.29321e-01 -7.46857e-01        00000 
-1.97737e-01 -7.46269e-01        00000 
-1.66726e-01 -7.45688e-01        00000 
-1.36087e-01 -7.45109e-01        00000 
-1.05624e-01 -7.44543e-01        00000 
-7.51903e-02 -7.44036e-01        00000 
-4.46837e-02 -7.43635e-01        00000 
-1.40866e-02 -7.43423e-01        00000 
 1.65434e-02 -7.43429e-01        00000 
 4.71548e-02 -7.43654e-01        00000 
 7.76899e-02 -7.44067e-01        00000 
 1.08165e-01 -7.44585e-01        00000 
 1.38681e-01 -7.45163e-01        00000 
 1.69380e-01 -7.45752e-01        00000 
 2.00451e-01 -7.46343e-01        00000 
 2.32085e-01 -7.46940e-01        00000 
 2.64479e-01 -7.47546e-01        00000 
 2.97859e-01 -7.48159e-01        00000 
-2.97643e-01 -8.15925e-01        00000 
-2.64418e-01 -8.15649e-01        00000 
-2.32088e-01 -8.15386e-01        00000 
-2.00483e-01 -8.15182e-01        00000 
-1.69447e-01 -8.15027e-01        00000 
-1.38781e-01 -8.14869e-01        00000 
-1.08217e-01 -8.14636e-01        00000 
-7.74072e-02 -8.14288e-01        00000 
-4.62199e-02 -8.13983e-01        00000 
-1.46529e-02 -8.13735e-01        00000 
 1.71375e-02 -8.13745e-01        00000 
 4.87191e-02 -8.14012e-01        00000 
 7.99354e-02 -8.14335e-01        00000 
 1.10788e-01 -8.14700e-01        00000 
 1.41406e-01 -8.14950e-01        00000 
 1.72132e-01 -8.15124e-01        00000 
 2.03229e-01 -8.15292e-01        00000 
 2.34884e-01 -8.15505e-01        00000 
 2.67248e-01 -8.15773e-01        00000 
 3.00490e-01 -8.16054e-01        00000 
-2.98417e-01 -8.82808e-01        00000 
-2.65620e-01 -8.82791e-01        00000 
-2.33389e-01 -8.82893e-01        00000 
-2.01792e-01 -8.83205e-01        00000 
-1.70801e-01 -8.83769e-01        00000 
-1.40302e-01 -8.84577e-01        00000 
-1.10068e-01 -8.85530e-01        00000 
-7.96846e-02 -8.86360e-01        00000 
-4.81140e-02 -8.86494e-01        00000 
-1.52938e-02 -8.86803e-01        00000 
 1.78015e-02 -8.86817e-01        00000 
 5.06359e-02 -8.86538e-01        00000 
 8.22356e-02 -8.86432e-01        00000 
 1.12663e-01 -8.85630e-01        00000 
 1.42950e-01 -8.84703e-01        00000 
 1.73508e-01 -8.83917e-01        00000 
 2.04555e-01 -8.83369e-01        00000 
 2.36198e-01 -8.83067e-01        00000 
 2.68462e-01 -8.82969e-01        00000 
 3.01284e-01 -8.82987e-01        00000 
-2.98438e-01 -9.48185e-01        00000 
-2.65882e-01 -9.48160e-01        00000 
-2.33627e-01 -9.48165e-01        00000 
-2.01875e-01 -9.48425e-01        00000 
-1.70653e-01 -9.49216e-01        00000 
-1.39880e-01 -9.50867e-01        00000 
-1.09361e-01 -9.53821e-01        00000 
-7.86932e-02 -9.58734e-01        00000 
-4.72633e-02 -9.66554e-01        00000 
-1.50034e-02 -9.70152e-01        00000 
 1.75366e-02 -9.70173e-01        00000 
 4.98114e-02 -9.66620e-01        00000 
 8.12708e-02 -9.58850e-01        00000 
 1.11980e-01 -9.53982e-01        00000 
 1.42549e-01 -9.51064e-01        00000 
 1.73375e-01 -9.49438e-01        00000 
 2.04647e-01 -9.48660e-01        00000 
 2.36440e-01 -9.48402e-01        00000 
 2.68725e-01 -9.48396e-01        00000 
 3.01309e-01 -9.48419e-01        00000 
-1.57276e-02 -9.78282e-03        00000 
-1.24226e-02 -7.74499e-03        00000 
-1.02109e-02 -6.31314e-03        00000 
-8.39376e-03 -5.31838e-03        00000 
-6.78449e-03 -4.61495e-03        00000 
-5.30254e-03 -4.11527e-03        00000 
-3.90322e-03 -3.76671e-03        00000 
-2.55752e-03 -3.53717e-03        00000 
-1.24413e-03 -3.40742e-03        00000 
 5.43809e-05 -3.36727e-03        00000 
 1.35380e-03 -3.41378e-03        00000 
 2.67003e-03 -3.55076e-03        00000 
 4.02078e-03 -3.78935e-03        00000 
 5.42795e-03 -4.14998e-03        00000 
 6.92150e-03 -4.66621e-03        00000 
 8.54753e-03 -5.39214e-03        00000 
 1.03885e-02 -6.41628e-03        00000 
 1.26325e-02 -7.88383e-03        00000 
 1.59762e-02 -9.96255e-03        00000 
-4.77093e-02 -3.09873e-02        00000 
-3.88926e-02 -2.62995e-02        00000 
-3.20520e-02 -2.28841e-02        00000 
-2.62995e-02 -2.03464e-02        00000 
-2.12052e-02 -1.84600e-02        00000 
-1.65366e-02 -1.70724e-02        00000 
-1.21514e-02 -1.60811e-02        00000 
-7.95220e-03 -1.54178e-02        00000 
-3.86578e-03 -1.50393e-02        00000 
 1.68482e-04 -1.49219e-02        00000 
 4.20592e-03 -1.50587e-02        00000 
 8.30212e-03 -1.54584e-02        00000 
 1.25185e-02 -1.61465e-02        00000 
 1.69293e-02 -1.71683e-02        00000 
 2.16332e-02 -1.85938e-02        00000 
 2.67729e-02 -2.05270e-02        00000 
 3.25783e-02 -2.31192e-02        00000 
 3.94694e-02 -2.65924e-02        00000 
 4.83174e-02 -3.13325e-02        00000 
-7.52318e-02 -5.31438e-02        00000 
-6.40524e-02 -4.89465e-02        00000 
-5.38012e-02 -4.52155e-02        00000 
-4.45410e-02 -4.21319e-02        00000 
-3.60697e-02 -3.96698e-02        00000 
-2.81884e-02 -3.77664e-02        00000 
-2.07341e-02 -3.63585e-02        00000 
-1.35750e-02 -3.53940e-02        00000 
-6.60040e-03 -3.48358e-02        00000 
 2.87524e-04 -3.46618e-02        00000 
 7.18054e-03 -3.48654e-02        00000 
 1.41707e-02 -3.54546e-02        00000 
 2.13560e-02 -3.64529e-02        00000 
 2.88475e-02 -3.78985e-02        00000 
 3.67763e-02 -3.98438e-02        00000 
 4.53017e-02 -4.23513e-02        00000 
 5.46145e-02 -4.54816e-02        00000 
 6.49036e-02 -4.92572e-02        00000 
 7.60962e-02 -5.34969e-02        00000 
-1.00720e-01 -7.97566e-02        00000 
-8.70000e-02 -7.58599e-02        00000 
-7.40736e-02 -7.23896e-02        00000 
-6.19116e-02 -6.93714e-02        00000 
-5.04560e-02 -6.68442e-02        00000 
-3.95952e-02 -6.48130e-02        00000 
-2.92018e-02 -6.32649e-02        00000 
-1.91498e-02 -6.21815e-02        00000 
-9.31882e-03 -6.15458e-02        00000 
 4.06215e-04 -6.13467e-02        00000 
 1.01374e-02 -6.15804e-02        00000 
 1.99868e-02 -6.22513e-02        00000 
 3.00691e-02 -6.33713e-02        00000 
 4.05039e-02 -6.49576e-02        00000 
 5.14146e-02 -6.70284e-02        00000 
 6.29230e-02 -6.95957e-02        00000 
 7.51321e-02 -7.26536e-02        00000 
 8.80893e-02 -7.61629e-02        00000 
 1.01816e-01 -8.00982e-02        00000 
-1.24449e-01 -1.11404e-01        00000 
-1.08229e-01 -1.07790e-01        00000 
-9.27674e-02 -1.04575e-01        00000 
-7.80133e-02 -1.01768e-01        00000 
-6.38971e-02 -9.93804e-02        00000 
-5.03343e-02 -9.74261e-02        00000 
-3.72237e-02 -9.59113e-02        00000 
-2.44547e-02 -9.48369e-02        00000 
-1.19123e-02 -9.42008e-02        00000 
 5.20028e-04 -9.40008e-02        00000 
 1.29588e-02 -9.42363e-02        00000 
 2.55204e-02 -9.49081e-02        00000 
 3.83206e-02 -9.60186e-02        00000 
 5.14728e-02 -9.75697e-02        00000 
 6.50843e-02 -9.95604e-02        00000 
 7.92508e-02 -1.01984e-01        00000 
 9.40485e-02 -1.04827e-01        00000 
 1.09537e-01 -1.08078e-01        00000 
 1.25761e-01 -1.11728e-01        00000 
-1.46486e-01 -1.48025e-01        00000 
-1.27867e-01 -1.44684e-01        00000 