<?xml version="1.0" encoding="utf-8"?>
<VTKFile byte_order="LittleEndian" type="UnstructuredGrid" version="0.1">
   <UnstructuredGrid>
      <Piece NumberOfCells="1444" NumberOfPoints="761">
         <Points>
            <DataArray Name="Points" NumberOfComponents="3" format="ascii" type="Float32">
0.0000 1.0000 0.0000
0.0000 1.0526 0.0000
0.0000 1.1053 0.0000
0.0000 1.1579 0.0000
0.0000 1.2105 0.0000
0.0000 1.2632 0.0000
0.0000 1.3158 0.0000
0.0000 1.3684 0.0000
0.0000 1.4211 0.0000
0.0000 1.4737 0.0000
0.0000 1.5263 0.0000
0.0000 1.5789 0.0000
0.0000 1.6316 0.0000
0.0000 1.6842 0.0000
0.0000 1.7368 0.0000
0.0000 1.7895 0.0000
0.0000 1.8421 0.0000
0.0000 1.8947 0.0000
0.0000 1.9474 0.0000
0.0000 2.0000 0.0000
0.1053 1.0000 0.0000
0.1053 1.0526 0.0000
0.1053 1.1053 0.0000
0.1053 1.1579 0.0000
0.1053 1.2105 0.0000
0.1053 1.2632 0.0000
0.1053 1.3158 0.0000
0.1053 1.3684 0.0000
0.1053 1.4211 0.0000
0.1053 1.4737 0.0000
0.1053 1.5263 0.0000
0.1053 1.5789 0.0000
0.1053 1.6316 0.0000
0.1053 1.6842 0.0000
0.1053 1.7368 0.0000
0.1053 1.7895 0.0000
0.1053 1.8421 0.0000
0.1053 1.8947 0.0000
0.1053 1.9474 0.0000
0.1053 2.0000 0.0000
0.2105 1.0000 0.0000
0.2105 1.0526 0.0000
0.2105 1.1053 0.0000
0.2105 1.1579 0.0000
0.2105 1.2105 0.0000
0.2105 1.2632 0.0000
0.2105 1.3158 0.0000
0.2105 1.3684 0.0000
0.2105 1.4211 0.0000
0.2105 1.4737 0.0000
0.2105 1.5263 0.0000
0.2105 1.5789 0.0000
0.2105 1.6316 0.0000
0.2105 1.6842 0.0000
0.2105 1.7368 0.0000
0.2105 1.7895 0.0000
0.2105 1.8421 0.0000
0.2105 1.8947 0.0000
0.2105 1.9474 0.0000
0.2105 2.0000 0.0000
0.3158 1.0000 0.0000
0.3158 1.0526 0.0000
0.3158 1.1053 0.0000
0.3158 1.1579 0.0000
0.3158 1.2105 0.0000
0.3158 1.2632 0.0000
0.3158 1.3158 0.0000
0.3158 1.3684 0.0000
0.3158 1.4211 0.0000
0.3158 1.4737 0.0000
0.3158 1.5263 0.0000
0.3158 1.5789 0.0000
0.3158 1.6316 0.0000
0.3158 1.6842 0.0000
0.3158 1.7368 0.0000
0.3158 1.7895 0.0000
0.3158 1.8421 0.0000
0.3158 1.8947 0.0000
0.3158 1.9474 0.0000
0.3158 2.0000 0.0000
0.4211 1.0000 0.0000
0.4211 1.0526 0.0000
0.4211 1.1053 0.0000
0.4211 1.1579 0.0000
0.4211 1.2105 0.0000
0.4211 1.2632 0.0000
0.4211 1.3158 0.0000
0.4211 1.3684 0.0000
0.4211 1.4211 0.0000
0.4211 1.4737 0.0000
0.4211 1.5263 0.0000
0.4211 1.5789 0.0000
0.4211 1.6316 0.0000
0.4211 1.6842 0.0000
0.4211 1.7368 0.0000
0.4211 1.7895 0.0000
0.4211 1.8421 0.0000
0.4211 1.8947 0.0000
0.4211 1.9474 0.0000
0.4211 2.0000 0.0000
0.5263 1.0000 0.0000
0.5263 1.0526 0.0000
0.5263 1.1053 0.0000
0.5263 1.1579 0.0000
0.5263 1.2105 0.0000
0.5263 1.2632 0.0000
0.5263 1.3158 0.0000
0.5263 1.3684 0.0000
0.5263 1.4211 0.0000
0.5263 1.4737 0.0000
0.5263 1.5263 0.0000
0.5263 1.5789 0.0000
0.5263 1.6316 0.0000
0.5263 1.6842 0.0000
0.5263 1.7368 0.0000
0.5263 1.7895 0.0000
0.5263 1.8421 0.0000
0.5263 1.8947 0.0000
0.5263 1.9474 0.0000
0.5263 2.0000 0.0000
0.6316 1.0000 0.0000
0.6316 1.0526 0.0000
0.6316 1.1053 0.0000
0.6316 1.1579 0.0000
0.6316 1.2105 0.0000
0.6316 1.2632 0.0000
0.6316 1.3158 0.0000
0.6316 1.3684 0.0000
0.6316 1.4211 0.0000
0.6316 1.4737 0.0000
0.6316 1.5263 0.0000
0.6316 1.5789 0.0000
0.6316 1.6316 0.0000
0.6316 1.6842 0.0000
0.6316 1.7368 0.0000
0.6316 1.7895 0.0000
0.6316 1.8421 0.0000
0.6316 1.8947 0.0000
0.6316 1.9474 0.0000
0.6316 2.0000 0.0000
0.7368 1.0000 0.0000
0.7368 1.0526 0.0000
0.7368 1.1053 0.0000
0.7368 1.1579 0.0000
0.7368 1.2105 0.0000
0.7368 1.2632 0.0000
0.7368 1.3158 0.0000
0.7368 1.3684 0.0000
0.7368 1.4211 0.0000
0.7368 1.4737 0.0000
0.7368 1.5263 0.0000
0.7368 1.5789 0.0000
0.7368 1.6316 0.0000
0.7368 1.6842 0.0000
0.7368 1.7368 0.0000
0.7368 1.7895 0.0000
0.7368 1.8421 0.0000
0.7368 1.8947 0.0000
0.7368 1.9474 0.0000
0.7368 2.0000 0.0000
0.8421 1.0000 0.0000
0.8421 1.0526 0.0000
0.8421 1.1053 0.0000
0.8421 1.1579 0.0000
0.8421 1.2105 0.0000
0.8421 1.2632 0.0000
0.8421 1.3158 0.0000
0.8421 1.3684 0.0000
0.8421 1.4211 0.0000
0.8421 1.4737 0.0000
0.8421 1.5263 0.0000
0.8421 1.5789 0.0000
0.8421 1.6316 0.0000
0.8421 1.6842 0.0000
0.8421 1.7368 0.0000
0.8421 1.7895 0.0000
0.8421 1.8421 0.0000
0.8421 1.8947 0.0000
0.8421 1.9474 0.0000
0.8421 2.0000 0.0000
0.9474 1.0000 0.0000
0.9474 1.0526 0.0000
0.9474 1.1053 0.0000
0.9474 1.1579 0.0000
0.9474 1.2105 0.0000
0.9474 1.2632 0.0000
0.9474 1.3158 0.0000
0.9474 1.3684 0.0000
0.9474 1.4211 0.0000
0.9474 1.4737 0.0000
0.9474 1.5263 0.0000
0.9474 1.5789 0.0000
0.9474 1.6316 0.0000
0.9474 1.6842 0.0000
0.9474 1.7368 0.0000
0.9474 1.7895 0.0000
0.9474 1.8421 0.0000
0.9474 1.8947 0.0000
0.9474 1.9474 0.0000
0.9474 2.0000 0.0000
1.0526 1.0000 0.0000
1.0526 1.0526 0.0000
1.0526 1.1053 0.0000
1.0526 1.1579 0.0000
1.0526 1.2105 0.0000
1.0526 1.2632 0.0000
1.0526 1.3158 0.0000
1.0526 1.3684 0.0000
1.0526 1.4211 0.0000
1.0526 1.4737 0.0000
1.0526 1.5263 0.0000
1.0526 1.5789 0.0000
1.0526 1.6316 0.0000
1.0526 1.6842 0.0000
1.0526 1.7368 0.0000
1.0526 1.7895 0.0000
1.0526 1.8421 0.0000
1.0526 1.8947 0.0000
1.0526 1.9474 0.0000
1.0526 2.0000 0.0000
1.1579 1.0000 0.0000
1.1579 1.0526 0.0000
1.1579 1.1053 0.0000
1.1579 1.1579 0.0000
1.1579 1.2105 0.0000
1.1579 1.2632 0.0000
1.1579 1.3158 0.0000
1.1579 1.3684 0.0000
1.1579 1.4211 0.0000
1.1579 1.4737 0.0000
1.1579 1.5263 0.0000
1.1579 1.5789 0.0000
1.1579 1.6316 0.0000
1.1579 1.6842 0.0000
1.1579 1.7368 0.0000
1.1579 1.7895 0.0000
1.1579 1.8421 0.0000
1.1579 1.8947 0.0000
1.1579 1.9474 0.0000
1.1579 2.0000 0.0000
1.2632 1.0000 0.0000
1.2632 1.0526 0.0000
1.2632 1.1053 0.0000
1.2632 1.1579 0.0000
1.2632 1.2105 0.0000
1.2632 1.2632 0.0000
1.2632 1.3158 0.0000
1.2632 1.3684 0.0000
1.2632 1.4211 0.0000
1.2632 1.4737 0.0000
1.2632 1.5263 0.0000
1.2632 1.5789 0.0000
1.2632 1.6316 0.0000
1.2632 1.6842 0.0000
1.2632 1.7368 0.0000
1.2632 1.7895 0.0000
1.2632 1.8421 0.0000
1.2632 1.8947 0.0000
1.2632 1.9474 0.0000
1.2632 2.0000 0.0000
1.3684 1.0000 0.0000
1.3684 1.0526 0.0000
1.3684 1.1053 0.0000
1.3684 1.1579 0.0000
1.3684 1.2105 0.0000
1.3684 1.2632 0.0000
1.3684 1.3158 0.0000
1.3684 1.3684 0.0000
1.3684 1.4211 0.0000
1.3684 1.4737 0.0000
1.3684 1.5263 0.0000
1.3684 1.5789 0.0000
1.3684 1.6316 0.0000
1.3684 1.6842 0.0000
1.3684 1.7368 0.0000
1.3684 1.7895 0.0000
1.3684 1.8421 0.0000
1.3684 1.8947 0.0000
1.3684 1.9474 0.0000
1.3684 2.0000 0.0000
1.4737 1.0000 0.0000
1.4737 1.0526 0.0000
1.4737 1.1053 0.0000
1.4737 1.1579 0.0000
1.4737 1.2105 0.0000
1.4737 1.2632 0.0000
1.4737 1.3158 0.0000
1.4737 1.3684 0.0000
1.4737 1.4211 0.0000
1.4737 1.4737 0.0000
1.4737 1.5263 0.0000
1.4737 1.5789 0.0000
1.4737 1.6316 0.0000
1.4737 1.6842 0.0000
1.4737 1.7368 0.0000
1.4737 1.7895 0.0000
1.4737 1.8421 0.0000
1.4737 1.8947 0.0000
1.4737 1.9474 0.0000
1.4737 2.0000 0.0000
1.5789 1.0000 0.0000
1.5789 1.0526 0.0000
1.5789 1.1053 0.0000
1.5789 1.1579 0.0000
1.5789 1.2105 0.0000
1.5789 1.2632 0.0000
1.5789 1.3158 0.0000
1.5789 1.3684 0.0000
1.5789 1.4211 0.0000
1.5789 1.4737 0.0000
1.5789 1.5263 0.0000
1.5789 1.5789 0.0000
1.5789 1.6316 0.0000
1.5789 1.6842 0.0000
1.5789 1.7368 0.0000
1.5789 1.7895 0.0000
1.5789 1.8421 0.0000
1.5789 1.8947 0.0000
1.5789 1.9474 0.0000
1.5789 2.0000 0.0000
1.6842 1.0000 0.0000
1.6842 1.0526 0.0000
1.6842 1.1053 0.0000
1.6842 1.1579 0.0000
1.6842 1.2105 0.0000
1.6842 1.2632 0.0000
1.6842 1.3158 0.0000
1.6842 1.3684 0.0000
1.6842 1.4211 0.0000
1.6842 1.4737 0.0000
1.6842 1.5263 0.0000
1.6842 1.5789 0.0000
1.6842 1.6316 0.0000
1.6842 1.6842 0.0000
1.6842 1.7368 0.0000
1.6842 1.7895 0.0000
1.6842 1.8421 0.0000
1.6842 1.8947 0.0000
1.6842 1.9474 0.0000
1.6842 2.0000 0.0000
1.7895 1.0000 0.0000
1.7895 1.0526 0.0000
1.7895 1.1053 0.0000
1.7895 1.1579 0.0000
1.7895 1.2105 0.0000
1.7895 1.2632 0.0000
1.7895 1.3158 0.0000
1.7895 1.3684 0.0000
1.7895 1.4211 0.0000
1.7895 1.4737 0.0000
1.7895 1.5263 0.0000
1.7895 1.5789 0.0000
1.7895 1.6316 0.0000
1.7895 1.6842 0.0000
1.7895 1.7368 0.0000
1.7895 1.7895 0.0000
1.7895 1.8421 0.0000
1.7895 1.8947 0.0000
1.7895 1.9474 0.0000
1.7895 2.0000 0.0000
1.8947 1.0000 0.0000
1.8947 1.0526 0.0000
1.8947 1.1053 0.0000
1.8947 1.1579 0.0000
1.8947 1.2105 0.0000
1.8947 1.2632 0.0000
1.8947 1.3158 0.0000
1.8947 1.3684 0.0000
1.8947 1.4211 0.0000
1.8947 1.4737 0.0000
1.8947 1.5263 0.0000
1.8947 1.5789 0.0000
1.8947 1.6316 0.0000
1.8947 1.6842 0.0000
1.8947 1.7368 0.0000
1.8947 1.7895 0.0000
1.8947 1.8421 0.0000
1.8947 1.8947 0.0000
1.8947 1.9474 0.0000
1.8947 2.0000 0.0000
2.0000 1.0000 0.0000
2.0000 1.0526 0.0000
2.0000 1.1053 0.0000
2.0000 1.1579 0.0000
2.0000 1.2105 0.0000
2.0000 1.2632 0.0000
2.0000 1.3158 0.0000
2.0000 1.3684 0.0000
2.0000 1.4211 0.0000
2.0000 1.4737 0.0000
2.0000 1.5263 0.0000
2.0000 1.5789 0.0000
2.0000 1.6316 0.0000
2.0000 1.6842 0.0000
2.0000 1.7368 0.0000
2.0000 1.7895 0.0000
2.0000 1.8421 0.0000
2.0000 1.8947 0.0000
2.0000 1.9474 0.0000
2.0000 2.0000 0.0000
0.0526 1.0263 0.0000
0.0526 1.0789 0.0000
0.0526 1.1316 0.0000
0.0526 1.1842 0.0000
0.0526 1.2368 0.0000
0.0526 1.2895 0.0000
0.0526 1.3421 0.0000
0.0526 1.3947 0.0000
0.0526 1.4474 0.0000
0.0526 1.5000 0.0000
0.0526 1.5526 0.0000
0.0526 1.6053 0.0000
0.0526 1.6579 0.0000
0.0526 1.7105 0.0000
0.0526 1.7632 0.0000
0.0526 1.8158 0.0000
0.0526 1.8684 0.0000
0.0526 1.9211 0.0000
0.0526 1.9737 0.0000
0.1579 1.0263 0.0000
0.1579 1.0789 0.0000
0.1579 1.1316 0.0000
0.1579 1.1842 0.0000
0.1579 1.2368 0.0000
0.1579 1.2895 0.0000
0.1579 1.3421 0.0000
0.1579 1.3947 0.0000
0.1579 1.4474 0.0000
0.1579 1.5000 0.0000
0.1579 1.5526 0.0000
0.1579 1.6053 0.0000
0.1579 1.6579 0.0000
0.1579 1.7105 0.0000
0.1579 1.7632 0.0000
0.1579 1.8158 0.0000
0.1579 1.8684 0.0000
0.1579 1.9211 0.0000
0.1579 1.9737 0.0000
0.2632 1.0263 0.0000
0.2632 1.0789 0.0000
0.2632 1.1316 0.0000
0.2632 1.1842 0.0000
0.2632 1.2368 0.0000
0.2632 1.2895 0.0000
0.2632 1.3421 0.0000
0.2632 1.3947 0.0000
0.2632 1.4474 0.0000
0.2632 1.5000 0.0000
0.2632 1.5526 0.0000
0.2632 1.6053 0.0000
0.2632 1.6579 0.0000
0.2632 1.7105 0.0000
0.2632 1.7632 0.0000
0.2632 1.8158 0.0000
0.2632 1.8684 0.0000
0.2632 1.9211 0.0000
0.2632 1.9737 0.0000
0.3684 1.0263 0.0000
0.3684 1.0789 0.0000
0.3684 1.1316 0.0000
0.3684 1.1842 0.0000
[...]
         <PointData>
            <DataArray Name="displacement" NumberOfComponents="3" format="ascii" type="Float64">
-1.16769e-18  2.68477e-19        00000 
-2.89810e-18  1.44905e-18        00000 
 4.76794e-19  1.07279e-18        00000 
-8.61143e-19 -1.22807e-18        00000 
 4.76794e-19 -2.97996e-19        00000 
 8.91534e-19 -5.79699e-19        00000 
-1.19198e-19  1.19198e-19        00000 
 2.10138e-19 -1.23555e-19        00000 
 2.30947e-19 -2.68196e-19        00000 
-1.65336e-19        00000        00000 
-8.19489e-20 -8.93988e-20        00000 
-1.70357e-19  1.98437e-19        00000 
 6.55591e-19 -5.95992e-20        00000 
-3.08294e-19 -5.33290e-19        00000 
-5.95992e-19  3.57595e-19        00000 
 1.06333e-18 -7.86261e-19        00000 
-2.14557e-18 -1.19198e-18        00000 
 1.44303e-18  7.21517e-19        00000 
-8.41546e-19  1.14210e-18        00000 
 8.41125e-19 -2.85524e-19        00000 
 1.85597e-02  1.18324e-02        00000 
 1.40766e-02  9.03018e-03        00000 
 1.14297e-02  7.22071e-03        00000 
 9.39956e-03  6.00980e-03        00000 
 7.66985e-03  5.17142e-03        00000 
 6.11305e-03  4.58117e-03        00000 
 4.66439e-03  4.16702e-03        00000 
 3.28540e-03  3.88560e-03        00000 
 1.95017e-03  3.71061e-03        00000 
 6.39133e-04  3.62691e-03        00000 
-6.64251e-04  3.62760e-03        00000 
-1.97565e-03  3.71276e-03        00000 
-3.31166e-03  3.88946e-03        00000 
-4.69198e-03  4.17309e-03        00000 
-6.14275e-03  4.59027e-03        00000 
-7.70277e-03  5.18483e-03        00000 
-9.43732e-03  6.02925e-03        00000 
-1.14742e-02  7.24804e-03        00000 
-1.41288e-02  9.06607e-03        00000 
-1.86160e-02  1.18754e-02        00000 
 3.33990e-02  2.17986e-02        00000 
 2.81443e-02  1.95526e-02        00000 
 2.34448e-02  1.74641e-02        00000 
 1.94286e-02  1.57610e-02        00000 
 1.58838e-02  1.44324e-02        00000 
 1.26586e-02  1.34220e-02        00000 
 9.65169e-03  1.26756e-02        00000 
 6.79281e-03  1.21506e-02        00000 
 4.02965e-03  1.18169e-02        00000 
 1.32025e-03  1.16553e-02        00000 
-1.37202e-03  1.16567e-02        00000 
-4.08222e-03  1.18212e-02        00000 
-6.84707e-03  1.21581e-02        00000 
-9.70873e-03  1.26867e-02        00000 
-1.27197e-02  1.34375e-02        00000 
-1.59506e-02  1.44531e-02        00000 
-1.95025e-02  1.57877e-02        00000 
-2.35260e-02  1.74967e-02        00000 
-2.82299e-02  1.95906e-02        00000 
-3.34846e-02  2.18416e-02        00000 
 4.72982e-02  3.39523e-02        00000 
 4.08304e-02  3.17965e-02        00000 
 3.48099e-02  2.98714e-02        00000 
 2.92319e-02  2.81780e-02        00000 
 2.40767e-02  2.67532e-02        00000 
 1.92681e-02  2.56021e-02        00000 
 1.47257e-02  2.47119e-02        00000 
 1.03772e-02  2.40648e-02        00000 
 6.16012e-03  2.36441e-02        00000 
 2.01886e-03  2.34378e-02        00000 
-2.09797e-03  2.34396e-02        00000 
-6.24035e-03  2.36497e-02        00000 
-1.04597e-02  2.40743e-02        00000 
-1.48118e-02  2.47256e-02        00000 
-1.93594e-02  2.56202e-02        00000 
-2.41743e-02  2.67761e-02        00000 
-2.93365e-02  2.82058e-02        00000 
-3.49207e-02  2.99040e-02        00000 
-4.09445e-02  3.18338e-02        00000 
-4.74119e-02  3.39944e-02        00000 
 6.04321e-02  4.85909e-02        00000 
 5.26800e-02  4.65746e-02        00000 
 4.53504e-02  4.47671e-02        00000 
 3.84222e-02  4.31769e-02        00000 
 3.18599e-02  4.18094e-02        00000 
 2.56191e-02  4.06734e-02        00000 
 1.96437e-02  3.97714e-02        00000 
 1.38727e-02  3.91015e-02        00000 
 8.24579e-03  3.86591e-02        00000 
 2.70400e-03  3.84401e-02        00000 
-2.81001e-03  3.84421e-02        00000 
-8.35307e-03  3.86651e-02        00000 
-1.39826e-02  3.91116e-02        00000 
-1.97575e-02  3.97857e-02        00000 
-2.57382e-02  4.06919e-02        00000 
-3.19852e-02  4.18323e-02        00000 
-3.85542e-02  4.32041e-02        00000 
-4.54882e-02  4.47988e-02        00000 
-5.28208e-02  4.66107e-02        00000 
-6.05724e-02  4.86315e-02        00000 
 7.27675e-02  6.58097e-02        00000 
 6.37546e-02  6.39238e-02        00000 
 5.51673e-02  6.22407e-02        00000 
 4.69680e-02  6.07594e-02        00000 
 3.91166e-02  5.94830e-02        00000 
 3.15677e-02  5.84151e-02        00000 
 2.42718e-02  5.75591e-02        00000 
 1.71752e-02  5.69171e-02        00000 
 1.02216e-02  5.64899e-02        00000 
 3.35392e-03  5.62774e-02        00000 
-3.48560e-03  5.62794e-02        00000 
-1.03546e-02  5.64958e-02        00000 
-1.73108e-02  5.69270e-02        00000 
-2.44114e-02  5.75730e-02        00000 
-3.17125e-02  5.84331e-02        00000 
-3.92676e-02  5.95050e-02        00000 
-4.71256e-02  6.07854e-02        00000 
-5.53305e-02  6.22708e-02        00000 
-6.39207e-02  6.39581e-02        00000 
-7.29326e-02  6.58482e-02        00000 
 8.42754e-02  8.55074e-02        00000 
 7.40641e-02  8.37560e-02        00000 
 6.42844e-02  8.21956e-02        00000 
 5.48913e-02  8.08252e-02        00000 
 4.58389e-02  7.96454e-02        00000 
 3.70801e-02  7.86580e-02        00000 
 2.85653e-02  7.78652e-02        00000 
 2.02429e-02  7.72692e-02        00000 
 1.20590e-02  7.68717e-02        00000 
 3.95862e-03  7.66736e-02        00000 
-4.11432e-03  7.66755e-02        00000 
-1.22160e-02  7.68773e-02        00000 
-2.04025e-02  7.72786e-02        00000 
-2.87289e-02  7.78784e-02        00000 
-3.72488e-02  7.86749e-02        00000 
-4.60137e-02  7.96661e-02        00000 
-5.50725e-02  8.08497e-02        00000 
-6.44712e-02  8.22239e-02        00000 
-7.42537e-02  8.37882e-02        00000 
-8.44640e-02  8.55435e-02        00000 
 9.49350e-02  1.07535e-01        00000 
 8.36048e-02  1.05919e-01        00000 
 7.27109e-02  1.04482e-01        00000 
 6.22047e-02  1.03221e-01        00000 
 5.20371e-02  1.02137e-01        00000 
 4.21589e-02  1.01231e-01        00000 
 3.25197e-02  1.00504e-01        00000 
 2.30681e-02  9.99576e-02        00000 
 1.37513e-02  9.95931e-02        00000 
 4.51556e-03  9.94115e-02        00000 
-4.69347e-03  9.94132e-02        00000 
-1.39305e-02  9.95983e-02        00000 
-2.32499e-02  9.99662e-02        00000 
-3.27054e-02  1.00516e-01        00000 
-4.23497e-02  1.01246e-01        00000 
-5.22340e-02  1.02156e-01        00000 
-6.24080e-02  1.03243e-01        00000 
-7.29197e-02  1.04508e-01        00000 
-8.38162e-02  1.05949e-01        00000 
-9.51453e-02  1.07569e-01        00000 
 1.04736e-01  1.31721e-01        00000 
 9.23736e-02  1.30241e-01        00000 
 8.04507e-02  1.28925e-01        00000 
 6.89168e-02  1.27773e-01        00000 
 5.77210e-02  1.26783e-01        00000 
 4.68129e-02  1.25956e-01        00000 
 3.61412e-02  1.25294e-01        00000 
 2.56544e-02  1.24796e-01        00000 
 1.53001e-02  1.24464e-01        00000 
 5.02525e-03  1.24299e-01        00000 
-5.22348e-03  1.24301e-01        00000 
-1.54996e-02  1.24469e-01        00000 
-2.58566e-02  1.24804e-01        00000 
-3.63473e-02  1.25305e-01        00000 
-4.70240e-02  1.25970e-01        00000 
-5.79382e-02  1.26800e-01        00000 
-6.91403e-02  1.27793e-01        00000 
-8.06797e-02  1.28949e-01        00000 
-9.26053e-02  1.30268e-01        00000 
-1.04966e-01  1.31751e-01        00000 
 1.13675e-01  1.57884e-01        00000 
 1.00370e-01  1.56541e-01        00000 
 8.75065e-02  1.55347e-01        00000 
 7.50330e-02  1.54301e-01        00000 
 6.28981e-02  1.53403e-01        00000 
 5.10501e-02  1.52654e-01        00000 
 3.94373e-02  1.52053e-01        00000 
 2.80077e-02  1.51603e-01        00000 
 1.67091e-02  1.51302e-01        00000 
 5.48891e-03  1.51152e-01        00000 
-5.70553e-03  1.51154e-01        00000 
-1.69270e-02  1.51306e-01        00000 
-2.82282e-02  1.51610e-01        00000 
-3.96618e-02  1.52063e-01        00000 
-5.12797e-02  1.52667e-01        00000 
-6.31338e-02  1.53419e-01        00000 
-7.52751e-02  1.54319e-01        00000 
-8.77540e-02  1.55368e-01        00000 
-1.00620e-01  1.56565e-01        00000 
-1.13924e-01  1.57912e-01        00000 
 1.21752e-01  1.85846e-01        00000 
 1.07594e-01  1.84639e-01        00000 
 9.38803e-02  1.83565e-01        00000 
 8.05577e-02  1.82625e-01        00000 
 6.75742e-02  1.81817e-01        00000 
 5.48772e-02  1.81143e-01        00000 
 4.24144e-02  1.80602e-01        00000 
 3.01333e-02  1.80195e-01        00000 
 1.79819e-02  1.79924e-01        00000 
 5.90783e-03  1.79789e-01        00000 
-6.14085e-03  1.79790e-01        00000 
-1.82162e-02  1.79928e-01        00000 
-3.03704e-02  1.80201e-01        00000 
-4.26554e-02  1.80610e-01        00000 
-5.51235e-02  1.81154e-01        00000 
-6.78266e-02  1.81831e-01        00000 
-8.08166e-02  1.82641e-01        00000 
-9.41447e-02  1.83584e-01        00000 
-1.07861e-01  1.84660e-01        00000 
-1.22018e-01  1.85870e-01        00000 
 1.28967e-01  2.15425e-01        00000 
 1.14047e-01  2.14354e-01        00000 
 9.95738e-02  2.13401e-01        00000 
 8.54945e-02  2.12565e-01        00000 
 7.17550e-02  2.11845e-01        00000 
 5.83013e-02  2.11242e-01        00000 
 4.50797e-02  2.10756e-01        00000 
 3.20376e-02  2.10391e-01        00000 
 1.91227e-02  2.10146e-01        00000 
 6.28353e-03  2.10024e-01        00000 
-6.53090e-03  2.10025e-01        00000 
-1.93714e-02  2.10149e-01        00000 
-3.22891e-02  2.10396e-01        00000 
-4.53354e-02  2.10763e-01        00000 
-5.85622e-02  2.11251e-01        00000 
-7.20223e-02  2.11856e-01        00000 
-8.57685e-02  2.12578e-01        00000 
-9.98534e-02  2.13417e-01        00000 
-1.14329e-01  2.14372e-01        00000 
-1.29248e-01  2.15446e-01        00000 
 1.35316e-01  2.46443e-01        00000 
 1.19725e-01  2.45510e-01        00000 
 1.04587e-01  2.44677e-01        00000 
 8.98478e-02  2.43942e-01        00000 
 7.54485e-02  2.43306e-01        00000 
 6.13325e-02  2.42769e-01        00000 
 4.74442e-02  2.42334e-01        00000 
 3.37299e-02  2.42003e-01        00000 
 2.01380e-02  2.41781e-01        00000 
 6.61828e-03  2.41670e-01        00000 
-6.87792e-03  2.41670e-01        00000 
-2.03990e-02  2.41783e-01        00000 
-3.39939e-02  2.42007e-01        00000 
-4.77124e-02  2.42339e-01        00000 
-6.16063e-02  2.42776e-01        00000 
-7.57289e-02  2.43315e-01        00000 
-9.01352e-02  2.43953e-01        00000 
-1.04881e-01  2.44690e-01        00000 
-1.20021e-01  2.45525e-01        00000 
-1.35611e-01  2.46461e-01        00000 
 1.40786e-01  2.78723e-01        00000 
 1.24619e-01  2.77929e-01        00000 
 1.08920e-01  2.77216e-01        00000 
 9.36243e-02  2.76580e-01        00000 
 7.86681e-02  2.76021e-01        00000 
 6.39886e-02  2.75542e-01        00000 
 4.95264e-02  2.75147e-01        00000 
 3.52267e-02  2.74843e-01        00000 
 2.10388e-02  2.74637e-01        00000 
 6.91604e-03  2.74533e-01        00000 
-7.18583e-03  2.74533e-01        00000 
-2.13101e-02  2.74639e-01        00000 
-3.55010e-02  2.74846e-01        00000 
-4.98052e-02  2.75151e-01        00000 
-6.42733e-02  2.75548e-01        00000 
-7.89598e-02  2.76028e-01        00000 
-9.39234e-02  2.76589e-01        00000 
-1.09225e-01  2.77226e-01        00000 
-1.24928e-01  2.77941e-01        00000 
-1.41094e-01  2.78738e-01        00000 
 1.45344e-01  3.12074e-01        00000 
 1.28710e-01  3.11425e-01        00000 
 1.12566e-01  3.10834e-01        00000 
 9.68342e-02  3.10294e-01        00000 
 8.14360e-02  3.09805e-01        00000 
 6.62991e-02  3.09373e-01        00000 
 5.13579e-02  3.09007e-01        00000 
 3.65557e-02  3.08719e-01        00000 
 2.18444e-02  3.08519e-01        00000 
 7.18356e-03  3.08416e-01        00000 
-7.46146e-03  3.08417e-01        00000 
-2.21238e-02  3.08520e-01        00000 
-3.68383e-02  3.08721e-01        00000 
-5.16453e-02  3.09011e-01        00000 
-6.65926e-02  3.09378e-01        00000 
-8.17370e-02  3.09811e-01        00000 
-9.71432e-02  3.10301e-01        00000 
-1.12882e-01  3.10843e-01        00000 
-1.29030e-01  3.11436e-01        00000 
-1.45664e-01  3.12087e-01        00000 
 1.48926e-01  3.46275e-01        00000 
 1.31962e-01  3.45782e-01        00000 
 1.15517e-01  3.45318e-01        00000 
 9.94893e-02  3.44877e-01        00000 
 8.37817e-02  3.44459e-01        00000 
 6.83065e-02  3.44071e-01        00000 
 5.29877e-02  3.43727e-01        00000 
 3.77627e-02  3.43443e-01        00000 
 2.25871e-02  3.43239e-01        00000 
 7.43288e-03  3.43132e-01        00000 
-7.71700e-03  3.43133e-01        00000 
-2.28728e-02  3.43241e-01        00000 
-3.80517e-02  3.43446e-01        00000 
-5.32816e-02  3.43731e-01        00000 
-6.86069e-02  3.44077e-01        00000 
-8.40900e-02  3.44465e-01        00000 
-9.98062e-02  3.44884e-01        00000 
-1.15842e-01  3.45327e-01        00000 
-1.32292e-01  3.45792e-01        00000 
-1.49256e-01  3.46287e-01        00000 
 1.51440e-01  3.81018e-01        00000 
 1.34329e-01  3.80694e-01        00000 
 1.17751e-01  3.80375e-01        00000 
 1.01585e-01  3.80061e-01        00000 
 8.57196e-02  3.79751e-01        00000 
 7.00508e-02  3.79442e-01        00000 
 5.44757e-02  3.79140e-01        00000 
 3.89174e-02  3.78869e-01        00000 
 2.33227e-02  3.78654e-01        00000 
 7.68282e-03  3.78539e-01        00000 
-7.97159e-03  3.78540e-01        00000 
-2.36131e-02  3.78656e-01        00000 
-3.92112e-02  3.78873e-01        00000 
-5.47745e-02  3.79145e-01        00000 
-7.03563e-02  3.79449e-01        00000 
-8.60333e-02  3.79759e-01        00000 
-1.01907e-01  3.80070e-01        00000 
-1.18083e-01  3.80386e-01        00000 
-1.34666e-01  3.80706e-01        00000 
-1.51779e-01  3.81030e-01        00000 
 1.52824e-01  4.15839e-01        00000 
 1.35790e-01  4.15691e-01        00000 
 1.19230e-01  4.15550e-01        00000 
 1.03052e-01  4.15440e-01        00000 
 8.71730e-02  4.15356e-01        00000 
 7.14897e-02  4.15269e-01        00000 
 5.58598e-02  4.15143e-01        00000 
 4.01009e-02  4.14956e-01        00000 
 2.41440e-02  4.14791e-01        00000 
 7.98897e-03  4.14656e-01        00000 
-8.28124e-03  4.14657e-01        00000 
-2.44380e-02  4.14795e-01        00000 
-4.03983e-02  4.14962e-01        00000 
-5.61623e-02  4.15151e-01        00000 
-7.17990e-02  4.15279e-01        00000 
-8.74905e-02  4.15368e-01        00000 
-1.03378e-01  4.15455e-01        00000 
-1.19565e-01  4.15566e-01        00000 
-1.36131e-01  4.15707e-01        00000 
-1.53168e-01  4.15856e-01        00000 
 1.53240e-01  4.50141e-01        00000 
 1.36432e-01  4.50132e-01        00000 
 1.19925e-01  4.50185e-01        00000 
 1.03752e-01  4.50349e-01        00000 
 8.78984e-02  4.50646e-01        00000 
 7.23035e-02  4.51070e-01        00000 
 5.68484e-02  4.51569e-01        00000 
 4.13128e-02  4.52002e-01        00000 
 2.51508e-02  4.52067e-01        00000 
 8.33254e-03  4.52224e-01        00000 
-8.62777e-03  4.52226e-01        00000 
-2.54477e-02  4.52073e-01        00000 
-4.16130e-02  4.52012e-01        00000 
-5.71538e-02  4.51582e-01        00000 
-7.26158e-02  4.51086e-01        00000 
-8.82187e-02  4.50665e-01        00000 
-1.04081e-01  4.50371e-01        00000 
-1.20261e-01  4.50208e-01        00000 
-1.36775e-01  4.50156e-01        00000 
-1.53586e-01  4.50165e-01        00000 
 1.53252e-01  4.83641e-01        00000 
 1.36572e-01  4.83628e-01        00000 
 1.20052e-01  4.83631e-01        00000 
 1.03798e-01  4.83769e-01        00000 
 8.78231e-02  4.84186e-01        00000 
 7.20857e-02  4.85056e-01        00000 
 5.64818e-02  4.86610e-01        00000 
 4.07980e-02  4.89190e-01        00000 
 2.47097e-02  4.93291e-01        00000 
 8.18495e-03  4.95172e-01        00000 
-8.48353e-03  4.95175e-01        00000 
-2.50100e-02  4.93300e-01        00000 
-4.11016e-02  4.89205e-01        00000 
-5.67905e-02  4.86631e-01        00000 
-7.24009e-02  4.85082e-01        00000 
-8.81457e-02  4.84216e-01        00000 
-1.04128e-01  4.83801e-01        00000 
-1.20390e-01  4.83664e-01        00000 
-1.36914e-01  4.83661e-01        00000 
-1.53599e-01  4.83674e-01        00000 
 7.76390e-03  4.87092e-03        00000 
 6.12204e-03  3.86057e-03        00000 
 5.03651e-03  3.15282e-03        00000 
 4.14875e-03  2.66324e-03        00000 
 3.36204e-03  2.31904e-03        00000 
 2.63556e-03  2.07599e-03        00000 
 1.94746e-03  1.90727e-03        00000 
 1.28402e-03  1.79642e-03        00000 
 6.35427e-04  1.73354e-03        00000 
-6.17716e-06  1.71336e-03        00000 
-6.47861e-04  1.73422e-03        00000 
-1.29670e-03  1.79786e-03        00000 
-1.96060e-03  1.90965e-03        00000 
-2.64945e-03  2.07962e-03        00000 
-3.37711e-03  2.32444e-03        00000 
-4.16570e-03  2.67120e-03        00000 
-5.05646e-03  3.16439e-03        00000 
-6.14659e-03  3.87689e-03        00000 
-7.79417e-03  4.89325e-03        00000 
 2.36311e-02  1.54942e-02        00000 
 1.92384e-02  1.31593e-02        00000 
 1.58579e-02  1.14616e-02        00000 
 1.30269e-02  1.02045e-02        00000 
 1.05222e-02  9.27370e-03        00000 
 8.22500e-03  8.59177e-03        00000 
 6.06412e-03  8.10596e-03        00000 
 3.99203e-03  7.78111e-03        00000 
 1.97377e-03  7.59484e-03        00000 
-1.91140e-05  7.53475e-03        00000 
-2.01229e-03  7.59693e-03        00000 
-4.03145e-03  7.78548e-03        00000 
-6.10518e-03  8.11298e-03        00000 
-8.26867e-03  8.60207e-03        00000 
-1.05697e-02  9.28822e-03        00000 
-1.30799e-02  1.02244e-02        00000 
-1.59180e-02  1.14882e-02        00000 
-1.93057e-02  1.31932e-02        00000 
-2.37018e-02  1.55342e-02        00000 
 3.74345e-02  2.66817e-02        00000 
 3.18339e-02  2.45696e-02        00000 
 2.67327e-02  2.26987e-02        00000 
 2.21433e-02  2.11574e-02        00000 
 1.79529e-02  1.99307e-02        00000 
 1.40563e-02  1.89849e-02        00000 
 1.03699e-02  1.82862e-02        00000 
 6.82784e-03  1.78073e-02        00000 
 3.37598e-03  1.75284e-02        00000 
-3.26490e-05  1.74378e-02        00000 
-3.44177e-03  1.75316e-02        00000 
-6.89512e-03  1.78139e-02        00000 
-1.04398e-02  1.82966e-02        00000 
-1.41302e-02  1.89994e-02        00000 
-1.80322e-02  1.99500e-02        00000 
-2.22293e-02  2.11820e-02        00000 
-2.68258e-02  2.27287e-02        00000 
-3.19324e-02  2.46048e-02        00000 
-3.75347e-02  2.67219e-02        00000 
 5.03327e-02  4.01298e-02        00000 
 4.34368e-02  3.81518e-02        00000 
 3.69704e-02  3.63946e-02        00000 
 3.09075e-02  3.48712e-02        00000 
 2.52093e-02  3.35994e-02        00000 
 1.98133e-02  3.25795e-02        00000 
 1.46521e-02  3.18030e-02        00000 
 9.66122e-03  3.12589e-02        00000 
 4.78055e-03  3.09376e-02        00000 
-4.62481e-05  3.08324e-02        00000 
-4.87365e-03  3.09414e-02        00000 
-9.75615e-03  3.12667e-02        00000 
-1.47502e-02  3.18149e-02        00000 
-1.99159e-02  3.25957e-02        00000 
-2.53177e-02  3.36201e-02        00000 
-3.10226e-02  3.48965e-02        00000 
-3.70920e-02  3.64244e-02        00000 
-4.35631e-02  3.81862e-02        00000 
-5.04604e-02  4.01688e-02        00000 
 6.24294e-02  5.61278e-02        00000 
 5.42577e-02  5.42799e-02        00000 
 4.64942e-02  5.26383e-02        00000 
 3.91060e-02  5.12081e-02        00000 
 3.20516e-02  4.99947e-02        00000 
 2.52829e-02  4.90032e-02        00000 
 1.87454e-02  4.82353e-02        00000 
 1.23813e-02  4.76899e-02        00000 
 6.13242e-03  4.73646e-02        00000 
-5.94148e-05  4.72578e-02        00000 
-6.25190e-03  4.73686e-02        00000 
-1.25028e-02  4.76979e-02        00000 
-1.88701e-02  4.82474e-02        00000 
-2.54122e-02  4.90194e-02        00000 
-3.21867e-02  5.00150e-02        00000 
-3.92477e-02  5.12327e-02        00000 
-4.66421e-02  5.26671e-02        00000 
-5.44102e-02  5.43129e-02        00000 
-6.25829e-02  5.61652e-02        00000 
 7.37365e-02  7.46571e-02        00000 
 6.43367e-02  7.29374e-02        00000 