<?xml version="1.0" encoding="utf-8"?>
<VTKFile byte_order="LittleEndian" type="UnstructuredGrid" version="0.1">
   <UnstructuredGrid>
      <Piece NumberOfCells="1444" NumberOfPoints="761">
         <Points>
            <DataArray Name="Points" NumberOfComponents="3" format="ascii" type="Float32">
0.0000 1.0000 0.0000
0.0000 1.0526 0.0000
0.0000 1.1053 0.0000
0.0000 1.1579 0.0000
0.0000 1.2105 0.0000
0.0000 1.2632 0.0000
0.0000 1.3158 0.0000
0.0000 1.3684 0.0000
0.0000 1.4211 0.0000
0.0000 1.4737 0.0000
0.0000 1.5263 0.0000
0.0000 1.5789 0.0000
0.0000 1.6316 0.0000
0.0000 1.6842 0.0000
0.0000 1.7368 0.0000
0.0000 1.7895 0.0000
0.0000 1.8421 0.0000
0.0000 1.8947 0.0000
0.0000 1.9474 0.0000
0.0000 2.0000 0.0000
0.1053 1.0000 0.0000
0.1053 1.0526 0.0000
0.1053 1.1053 0.0000
0.1053 1.1579 0.0000
0.1053 1.2105 0.0000
0.1053 1.2632 0.0000
0.1053 1.3158 0.0000
0.1053 1.3684 0.0000
0.1053 1.4211 0.0000
0.1053 1.4737 0.0000
0.1053 1.5263 0.0000
0.1053 1.5789 0.0000
0.1053 1.6316 0.0000
0.1053 1.6842 0.0000
0.1053 1.7368 0.0000
0.1053 1.7895 0.0000
0.1053 1.8421 0.0000
0.1053 1.8947 0.0000
0.1053 1.9474 0.0000
0.1053 2.0000 0.0000
0.2105 1.0000 0.0000
0.2105 1.0526 0.0000
0.2105 1.1053 0.0000
0.2105 1.1579 0.0000
0.2105 1.2105 0.0000
0.2105 1.2632 0.0000
0.2105 1.3158 0.0000
0.2105 1.3684 0.0000
0.2105 1.4211 0.0000
0.2105 1.4737 0.0000
0.2105 1.5263 0.0000
0.2105 1.5789 0.0000
0.2105 1.6316 0.0000
0.2105 1.6842 0.0000
0.2105 1.7368 0.0000
0.2105 1.7895 0.0000
0.2105 1.8421 0.0000
0.2105 1.8947 0.0000
0.2105 1.9474 0.0000
0.2105 2.0000 0.0000
0.3158 1.0000 0.0000
0.3158 1.0526 0.0000
0.3158 1.1053 0.0000
0.3158 1.1579 0.0000
0.3158 1.2105 0.0000
0.3158 1.2632 0.0000
0.3158 1.3158 0.0000
0.3158 1.3684 0.0000
0.3158 1.4211 0.0000
0.3158 1.4737 0.0000
0.3158 1.5263 0.0000
0.3158 1.5789 0.0000
0.3158 1.6316 0.0000
0.3158 1.6842 0.0000
0.3158 1.7368 0.0000
0.3158 1.7895 0.0000
0.3158 1.8421 0.0000
0.3158 1.8947 0.0000
0.3158 1.9474 0.0000
0.3158 2.0000 0.0000
0.4211 1.0000 0.0000
0.4211 1.0526 0.0000
0.4211 1.1053 0.0000
0.4211 1.1579 0.0000
0.4211 1.2105 0.0000
0.4211 1.2632 0.0000
0.4211 1.3158 0.0000
0.4211 1.3684 0.0000
0.4211 1.4211 0.0000
0.4211 1.4737 0.0000
0.4211 1.5263 0.0000
0.4211 1.5789 0.0000
0.4211 1.6316 0.0000
0.4211 1.6842 0.0000
0.4211 1.7368 0.0000
0.4211 1.7895 0.0000
0.4211 1.8421 0.0000
0.4211 1.8947 0.0000
0.4211 1.9474 0.0000
0.4211 2.0000 0.0000
0.5263 1.0000 0.0000
0.5263 1.0526 0.0000
0.5263 1.1053 0.0000
0.5263 1.1579 0.0000
0.5263 1.2105 0.0000
0.5263 1.2632 0.0000
0.5263 1.3158 0.0000
0.5263 1.3684 0.0000
0.5263 1.4211 0.0000
0.5263 1.4737 0.0000
0.5263 1.5263 0.0000
0.5263 1.5789 0.0000
0.5263 1.6316 0.0000
0.5263 1.6842 0.0000
0.5263 1.7368 0.0000
0.5263 1.7895 0.0000
0.5263 1.8421 0.0000
0.5263 1.8947 0.0000
0.5263 1.9474 0.0000
0.5263 2.0000 0.0000
0.6316 1.0000 0.0000
0.6316 1.0526 0.0000
0.6316 1.1053 0.0000
0.6316 1.1579 0.0000
0.6316 1.2105 0.0000
0.6316 1.2632 0.0000
0.6316 1.3158 0.0000
0.6316 1.3684 0.0000
0.6316 1.4211 0.0000
0.6316 1.4737 0.0000
0.6316 1.5263 0.0000
0.6316 1.5789 0.0000
0.6316 1.6316 0.0000
0.6316 1.6842 0.0000
0.6316 1.7368 0.0000
0.6316 1.7895 0.0000
0.6316 1.8421 0.0000
0.6316 1.8947 0.0000
0.6316 1.9474 0.0000
0.6316 2.0000 0.0000
0.7368 1.0000 0.0000
0.7368 1.0526 0.0000
0.7368 1.1053 0.0000
0.7368 1.1579 0.0000
0.7368 1.2105 0.0000
0.7368 1.2632 0.0000
0.7368 1.3158 0.0000
0.7368 1.3684 0.0000
0.7368 1.4211 0.0000
0.7368 1.4737 0.0000
0.7368 1.5263 0.0000
0.7368 1.5789 0.0000
0.7368 1.6316 0.0000
0.7368 1.6842 0.0000
0.7368 1.7368 0.0000
0.7368 1.7895 0.0000
0.7368 1.8421 0.0000
0.7368 1.8947 0.0000
0.7368 1.9474 0.0000
0.7368 2.0000 0.0000
0.8421 1.0000 0.0000
0.8421 1.0526 0.0000
0.8421 1.1053 0.0000
0.8421 1.1579 0.0000
0.8421 1.2105 0.0000
0.8421 1.2632 0.0000
0.8421 1.3158 0.0000
0.8421 1.3684 0.0000
0.8421 1.4211 0.0000
0.8421 1.4737 0.0000
0.8421 1.5263 0.0000
0.8421 1.5789 0.0000
0.8421 1.6316 0.0000
0.8421 1.6842 0.0000
0.8421 1.7368 0.0000
0.8421 1.7895 0.0000
0.8421 1.8421 0.0000
0.8421 1.8947 0.0000
0.8421 1.9474 0.0000
0.8421 2.0000 0.0000
0.9474 1.0000 0.0000
0.9474 1.0526 0.0000
0.9474 1.1053 0.0000
0.9474 1.1579 0.0000
0.9474 1.2105 0.0000
0.9474 1.2632 0.0000
0.9474 1.3158 0.0000
0.9474 1.3684 0.0000
0.9474 1.4211 0.0000
0.9474 1.4737 0.0000
0.9474 1.5263 0.0000
0.9474 1.5789 0.0000
0.9474 1.6316 0.0000
0.9474 1.6842 0.0000
0.9474 1.7368 0.0000
0.9474 1.7895 0.0000
0.9474 1.8421 0.0000
0.9474 1.8947 0.0000
0.9474 1.9474 0.0000
0.9474 2.0000 0.0000
1.0526 1.0000 0.0000
1.0526 1.0526 0.0000
1.0526 1.1053 0.0000
1.0526 1.1579 0.0000
1.0526 1.2105 0.0000
1.0526 1.2632 0.0000
1.0526 1.3158 0.0000
1.0526 1.3684 0.0000
1.0526 1.4211 0.0000
1.0526 1.4737 0.0000
1.0526 1.5263 0.0000
1.0526 1.5789 0.0000
1.0526 1.6316 0.0000
1.0526 1.6842 0.0000
1.0526 1.7368 0.0000
1.0526 1.7895 0.0000
1.0526 1.8421 0.0000
1.0526 1.8947 0.0000
1.0526 1.9474 0.0000
1.0526 2.0000 0.0000
1.1579 1.0000 0.0000
1.1579 1.0526 0.0000
1.1579 1.1053 0.0000
1.1579 1.1579 0.0000
1.1579 1.2105 0.0000
1.1579 1.2632 0.0000
1.1579 1.3158 0.0000
1.1579 1.3684 0.0000
1.1579 1.4211 0.0000
1.1579 1.4737 0.0000
1.1579 1.5263 0.0000
1.1579 1.5789 0.0000
1.1579 1.6316 0.0000
1.1579 1.6842 0.0000
1.1579 1.7368 0.0000
1.1579 1.7895 0.0000
1.1579 1.8421 0.0000
1.1579 1.8947 0.0000
1.1579 1.9474 0.0000
1.1579 2.0000 0.0000
1.2632 1.0000 0.0000
1.2632 1.0526 0.0000
1.2632 1.1053 0.0000
1.2632 1.1579 0.0000
1.2632 1.2105 0.0000
1.2632 1.2632 0.0000
1.2632 1.3158 0.0000
1.2632 1.3684 0.0000
1.2632 1.4211 0.0000
1.2632 1.4737 0.0000
1.2632 1.5263 0.0000
1.2632 1.5789 0.0000
1.2632 1.6316 0.0000
1.2632 1.6842 0.0000
1.2632 1.7368 0.0000
1.2632 1.7895 0.0000
1.2632 1.8421 0.0000
1.2632 1.8947 0.0000
1.2632 1.9474 0.0000
1.2632 2.0000 0.0000
1.3684 1.0000 0.0000
1.3684 1.0526 0.0000
1.3684 1.1053 0.0000
1.3684 1.1579 0.0000
1.3684 1.2105 0.0000
1.3684 1.2632 0.0000
1.3684 1.3158 0.0000
1.3684 1.3684 0.0000
1.3684 1.4211 0.0000
1.3684 1.4737 0.0000
1.3684 1.5263 0.0000
1.3684 1.5789 0.0000
1.3684 1.6316 0.0000
1.3684 1.6842 0.0000
1.3684 1.7368 0.0000
1.3684 1.7895 0.0000
1.3684 1.8421 0.0000
1.3684 1.8947 0.0000
1.3684 1.9474 0.0000
1.3684 2.0000 0.0000
1.4737 1.0000 0.0000
1.4737 1.0526 0.0000
1.4737 1.1053 0.0000
1.4737 1.1579 0.0000
1.4737 1.2105 0.0000
1.4737 1.2632 0.0000
1.4737 1.3158 0.0000
1.4737 1.3684 0.0000
1.4737 1.4211 0.0000
1.4737 1.4737 0.0000
1.4737 1.5263 0.0000
1.4737 1.5789 0.0000
1.4737 1.6316 0.0000
1.4737 1.6842 0.0000
1.4737 1.7368 0.0000
1.4737 1.7895 0.0000
1.4737 1.8421 0.0000
1.4737 1.8947 0.0000
1.4737 1.9474 0.0000
1.4737 2.0000 0.0000
1.5789 1.0000 0.0000
1.5789 1.0526 0.0000
1.5789 1.1053 0.0000
1.5789 1.1579 0.0000
1.5789 1.2105 0.0000
1.5789 1.2632 0.0000
1.5789 1.3158 0.0000
1.5789 1.3684 0.0000
1.5789 1.4211 0.0000
1.5789 1.4737 0.0000
1.5789 1.5263 0.0000
1.5789 1.5789 0.0000
1.5789 1.6316 0.0000
1.5789 1.6842 0.0000
1.5789 1.7368 0.0000
1.5789 1.7895 0.0000
1.5789 1.8421 0.0000
1.5789 1.8947 0.0000
1.5789 1.9474 0.0000
1.5789 2.0000 0.0000
1.6842 1.0000 0.0000
1.6842 1.0526 0.0000
1.6842 1.1053 0.0000
1.6842 1.1579 0.0000
1.6842 1.2105 0.0000
1.6842 1.2632 0.0000
1.6842 1.3158 0.0000
1.6842 1.3684 0.0000
1.6842 1.4211 0.0000
1.6842 1.4737 0.0000
1.6842 1.5263 0.0000
1.6842 1.5789 0.0000
1.6842 1.6316 0.0000
1.6842 1.6842 0.0000
1.6842 1.7368 0.0000
1.6842 1.7895 0.0000
1.6842 1.8421 0.0000
1.6842 1.8947 0.0000
1.6842 1.9474 0.0000
1.6842 2.0000 0.0000
1.7895 1.0000 0.0000
1.7895 1.0526 0.0000
1.7895 1.1053 0.0000
1.7895 1.1579 0.0000
1.7895 1.2105 0.0000
1.7895 1.2632 0.0000
1.7895 1.3158 0.0000
1.7895 1.3684 0.0000
1.7895 1.4211 0.0000
1.7895 1.4737 0.0000
1.7895 1.5263 0.0000
1.7895 1.5789 0.0000
1.7895 1.6316 0.0000
1.7895 1.6842 0.0000
1.7895 1.7368 0.0000
1.7895 1.7895 0.0000
1.7895 1.8421 0.0000
1.7895 1.8947 0.0000
1.7895 1.9474 0.0000
1.7895 2.0000 0.0000
1.8947 1.0000 0.0000
1.8947 1.0526 0.0000
1.8947 1.1053 0.0000
1.8947 1.1579 0.0000
1.8947 1.2105 0.0000
1.8947 1.2632 0.0000
1.8947 1.3158 0.0000
1.8947 1.3684 0.0000
1.8947 1.4211 0.0000
1.8947 1.4737 0.0000
1.8947 1.5263 0.0000
1.8947 1.5789 0.0000
1.8947 1.6316 0.0000
1.8947 1.6842 0.0000
1.8947 1.7368 0.0000
1.8947 1.7895 0.0000
1.8947 1.8421 0.0000
1.8947 1.8947 0.0000
1.8947 1.9474 0.0000
1.8947 2.0000 0.0000
2.0000 1.0000 0.0000
2.0000 1.0526 0.0000
2.0000 1.1053 0.0000
2.0000 1.1579 0.0000
2.0000 1.2105 0.0000
2.0000 1.2632 0.0000
2.0000 1.3158 0.0000
2.0000 1.3684 0.0000
2.0000 1.4211 0.0000
2.0000 1.4737 0.0000
2.0000 1.5263 0.0000
2.0000 1.5789 0.0000
2.0000 1.6316 0.0000
2.0000 1.6842 0.0000
2.0000 1.7368 0.0000
2.0000 1.7895 0.0000
2.0000 1.8421 0.0000
2.0000 1.8947 0.0000
2.0000 1.9474 0.0000
2.0000 2.0000 0.0000
0.0526 1.0263 0.0000
0.0526 1.0789 0.0000
0.0526 1.1316 0.0000
0.0526 1.1842 0.0000
0.0526 1.2368 0.0000
0.0526 1.2895 0.0000
0.0526 1.3421 0.0000
0.0526 1.3947 0.0000
0.0526 1.4474 0.0000
0.0526 1.5000 0.0000
0.0526 1.5526 0.0000
0.0526 1.6053 0.0000
0.0526 1.6579 0.0000
0.0526 1.7105 0.0000
0.0526 1.7632 0.0000
0.0526 1.8158 0.0000
0.0526 1.8684 0.0000
0.0526 1.9211 0.0000
0.0526 1.9737 0.0000
0.1579 1.0263 0.0000
0.1579 1.0789 0.0000
0.1579 1.1316 0.0000
0.1579 1.1842 0.0000
0.1579 1.2368 0.0000
0.1579 1.2895 0.0000
0.1579 1.3421 0.0000
0.1579 1.3947 0.0000
0.1579 1.4474 0.0000
0.1579 1.5000 0.0000
0.1579 1.5526 0.0000
0.1579 1.6053 0.0000
0.1579 1.6579 0.0000
0.1579 1.7105 0.0000
0.1579 1.7632 0.0000
0.1579 1.8158 0.0000
0.1579 1.8684 0.0000
0.1579 1.9211 0.0000
0.1579 1.9737 0.0000
0.2632 1.0263 0.0000
0.2632 1.0789 0.0000
0.2632 1.1316 0.0000
0.2632 1.1842 0.0000
0.2632 1.2368 0.0000
0.2632 1.2895 0.0000
0.2632 1.3421 0.0000
0.2632 1.3947 0.0000
0.2632 1.4474 0.0000
0.2632 1.5000 0.0000
0.2632 1.5526 0.0000
0.2632 1.6053 0.0000
0.2632 1.6579 0.0000
0.2632 1.7105 0.0000
0.2632 1.7632 0.0000
0.2632 1.8158 0.0000
0.2632 1.8684 0.0000
0.2632 1.9211 0.0000
0.2632 1.9737 0.0000
0.3684 1.0263 0.0000
0.3684 1.0789 0.0000
0.3684 1.1316 0.0000
0.3684 1.1842 0.0000
[...]
         <PointData>
            <DataArray Name="displacement" NumberOfComponents="3" format="ascii" type="Float64">
-1.08421e-17 -1.40638e-17        00000 
 2.31848e-17  5.79619e-18        00000 
       00000 -4.76794e-19        00000 
-4.49292e-18 -2.72571e-18        00000 
-9.53587e-19  3.09916e-18        00000 
-1.17734e-19  4.64787e-19        00000 
 1.90717e-18 -4.76794e-19        00000 
-1.65677e-18 -1.67736e-18        00000 
 8.93988e-20  7.15191e-19        00000 
 4.20855e-19  9.61953e-19        00000 
-7.15191e-19        00000        00000 
-2.52727e-19 -2.24646e-18        00000 
-4.76794e-19  2.14557e-18        00000 
 2.44795e-18 -1.28150e-18        00000 
 2.62237e-18 -1.19198e-18        00000 
-1.43774e-18 -1.73726e-18        00000 
 5.72152e-18  3.33756e-18        00000 
-1.53924e-17 -7.69618e-18        00000 
 1.05794e-17  4.32795e-18        00000 
-7.69077e-18 -8.65085e-18        00000 
 9.46451e-02  5.56136e-02        00000 
 7.30854e-02  4.23049e-02        00000 
 5.79085e-02  3.35202e-02        00000 
 4.59483e-02  2.75127e-02        00000 
 3.62501e-02  2.33200e-02        00000 
 2.80480e-02  2.03734e-02        00000 
 2.08136e-02  1.83205e-02        00000 
 1.41964e-02  1.69431e-02        00000 
 7.95486e-03  1.61091e-02        00000 
 1.90782e-03  1.57444e-02        00000 
-4.09690e-03  1.58179e-02        00000 
-1.02056e-02  1.63363e-02        00000 
-1.65796e-02  1.73449e-02        00000 
-2.34209e-02  1.89362e-02        00000 
-3.10102e-02  2.12698e-02        00000 
-3.97685e-02  2.46075e-02        00000 
-5.03494e-02  2.93728e-02        00000 
-6.37331e-02  3.62295e-02        00000 
-8.11218e-02  4.61190e-02        00000 
-1.03814e-01  6.00985e-02        00000 
 1.58131e-01  9.61658e-02        00000 
 1.35007e-01  8.71787e-02        00000 
 1.11984e-01  7.83061e-02        00000 
 9.14109e-02  7.06626e-02        00000 
 7.33063e-02  6.44783e-02        00000 
 5.72305e-02  5.96858e-02        00000 
 4.26718e-02  5.61256e-02        00000 
 2.91768e-02  5.36375e-02        00000 
 1.63689e-02  5.20958e-02        00000 
 3.92918e-03  5.14190e-02        00000 
-8.42868e-03  5.15710e-02        00000 
-2.09841e-02  5.25605e-02        00000 
-3.40345e-02  5.44407e-02        00000 
-4.79214e-02  5.73106e-02        00000 
-6.30570e-02  6.13115e-02        00000 
-7.99390e-02  6.66109e-02        00000 
-9.91101e-02  7.33482e-02        00000 
-1.20943e-01  8.15040e-02        00000 
-1.45021e-01  9.06708e-02        00000 
-1.68552e-01  9.98268e-02        00000 
 2.11326e-01  1.45921e-01        00000 
 1.84102e-01  1.37860e-01        00000 
 1.57349e-01  1.30454e-01        00000 
 1.31589e-01  1.23607e-01        00000 
 1.07394e-01  1.17575e-01        00000 
 8.48468e-02  1.12540e-01        00000 
 6.37535e-02  1.08574e-01        00000 
 4.37997e-02  1.05684e-01        00000 
 2.46370e-02  1.03844e-01        00000 
 5.91649e-03  1.03030e-01        00000 
-1.27040e-02  1.03227e-01        00000 
-3.15653e-02  1.04439e-01        00000 
-5.10138e-02  1.06688e-01        00000 
-7.14040e-02  1.10003e-01        00000 
-9.30853e-02  1.14403e-01        00000 
-1.16355e-01  1.19865e-01        00000 
-1.41345e-01  1.26278e-01        00000 
-1.67843e-01  1.33424e-01        00000 
-1.95131e-01  1.41060e-01        00000 
-2.22479e-01  1.49311e-01        00000 
 2.59409e-01  2.05550e-01        00000 
 2.27436e-01  1.98307e-01        00000 
 1.96330e-01  1.91735e-01        00000 
 1.66202e-01  1.85799e-01        00000 
 1.37198e-01  1.80520e-01        00000 
 1.09415e-01  1.75994e-01        00000 
 8.27971e-02  1.72321e-01        00000 
 5.71615e-02  1.69573e-01        00000 
 3.22462e-02  1.67792e-01        00000 
 7.74775e-03  1.66998e-01        00000 
-1.66557e-02  1.67200e-01        00000 
-4.12898e-02  1.68396e-01        00000 
-6.64728e-02  1.70576e-01        00000 
-9.24986e-02  1.73714e-01        00000 
-1.19609e-01  1.77756e-01        00000 
-1.47949e-01  1.82618e-01        00000 
-1.77518e-01  1.88190e-01        00000 
-2.08153e-01  1.94377e-01        00000 
-2.39605e-01  2.01171e-01        00000 
-2.71583e-01  2.08634e-01        00000 
 3.03084e-01  2.75075e-01        00000 
 2.66512e-01  2.68515e-01        00000 
 2.31046e-01  2.62630e-01        00000 
 1.96634e-01  2.57381e-01        00000 
 1.63270e-01  2.52773e-01        00000 
 1.30932e-01  2.48839e-01        00000 
 9.95475e-02  2.45636e-01        00000 
 6.89710e-02  2.43223e-01        00000 
 3.89970e-02  2.41648e-01        00000 
 9.37667e-03  2.40945e-01        00000 
-2.01626e-02  2.41128e-01        00000 
-4.98990e-02  2.42193e-01        00000 
-8.00985e-02  2.44119e-01        00000 
-1.10996e-01  2.46867e-01        00000 
-1.42775e-01  2.50381e-01        00000 
-1.75551e-01  2.54597e-01        00000 
-2.09361e-01  2.59459e-01        00000 
-2.44178e-01  2.64939e-01        00000 
-2.79916e-01  2.71045e-01        00000 
-3.16444e-01  2.77832e-01        00000 
 3.42635e-01  3.53702e-01        00000 
 3.01815e-01  3.47781e-01        00000 
 2.62241e-01  3.42493e-01        00000 
 2.23785e-01  3.37816e-01        00000 
 1.86364e-01  3.33750e-01        00000 
 1.49897e-01  3.30311e-01        00000 
 1.14273e-01  3.27529e-01        00000 
 7.93450e-02  3.25442e-01        00000 
 4.49301e-02  3.24082e-01        00000 
 1.08149e-02  3.23474e-01        00000 
-2.32311e-02  3.23630e-01        00000 
-5.74426e-02  3.24547e-01        00000 
-9.20443e-02  3.26206e-01        00000 
-1.27237e-01  3.28578e-01        00000 
-1.63189e-01  3.31626e-01        00000 
-2.00024e-01  3.35311e-01        00000 
-2.37828e-01  3.39606e-01        00000 
-2.76642e-01  3.44499e-01        00000 
-3.16455e-01  3.49999e-01        00000 
-3.57213e-01  3.56140e-01        00000 
 3.78312e-01  4.40555e-01        00000 
 3.33644e-01  4.35226e-01        00000 
 2.90302e-01  4.30477e-01        00000 
 2.48121e-01  4.26297e-01        00000 
 2.06975e-01  4.22686e-01        00000 
 1.66748e-01  4.19652e-01        00000 
 1.27311e-01  4.17214e-01        00000 
 8.85096e-02  4.15393e-01        00000 
 5.01682e-02  4.14210e-01        00000 
 1.20932e-02  4.13680e-01        00000 
-2.59197e-02  4.13810e-01        00000 
-6.40770e-02  4.14600e-01        00000 
-1.02579e-01  4.16035e-01        00000 
-1.41609e-01  4.18098e-01        00000 
-1.81333e-01  4.20767e-01        00000 
-2.21887e-01  4.24018e-01        00000 
-2.63383e-01  4.27836e-01        00000 
-3.05897e-01  4.32215e-01        00000 
-3.49460e-01  4.37160e-01        00000 
-3.94059e-01  4.42694e-01        00000 
 4.10366e-01  5.34776e-01        00000 
 3.62245e-01  5.29998e-01        00000 
 3.15494e-01  5.25746e-01        00000 
 2.69930e-01  5.22012e-01        00000 
 2.25403e-01  5.18797e-01        00000 
 1.81778e-01  5.16106e-01        00000 
 1.38914e-01  5.13952e-01        00000 
 9.66522e-02  5.12348e-01        00000 
 5.48210e-02  5.11307e-01        00000 
 1.32376e-02  5.10839e-01        00000 
-2.82875e-02  5.10948e-01        00000 
-6.99448e-02  5.11633e-01        00000 
-1.11920e-01  5.12886e-01        00000 
-1.54391e-01  5.14697e-01        00000 
-1.97518e-01  5.17049e-01        00000 
-2.41448e-01  5.19931e-01        00000 
-2.86306e-01  5.23331e-01        00000 
-3.32188e-01  5.27245e-01        00000 
-3.79148e-01  5.31677e-01        00000 
-4.27200e-01  5.36641e-01        00000 
 4.39029e-01  6.35571e-01        00000 
 3.87823e-01  6.31311e-01        00000 
 3.38017e-01  6.27522e-01        00000 
 2.89414e-01  6.24197e-01        00000 
 2.41849e-01  6.21339e-01        00000 
 1.95177e-01  6.18951e-01        00000 
 1.49247e-01  6.17042e-01        00000 
 1.03899e-01  6.15621e-01        00000 
 5.89641e-02  6.14699e-01        00000 
 1.42654e-02  6.14281e-01        00000 
-3.03776e-02  6.14372e-01        00000 
-7.51457e-02  6.14970e-01        00000 
-1.20217e-01  6.16070e-01        00000 
-1.65762e-01  6.17665e-01        00000 
-2.11944e-01  6.19744e-01        00000 
-2.58911e-01  6.22299e-01        00000 
-3.06796e-01  6.25320e-01        00000 
-3.55709e-01  6.28806e-01        00000 
-4.05719e-01  6.32757e-01        00000 
-4.56857e-01  6.37186e-01        00000 
 4.64495e-01  7.42210e-01        00000 
 4.10552e-01  7.38441e-01        00000 
 3.58028e-01  7.35088e-01        00000 
 3.06722e-01  7.32146e-01        00000 
 2.56456e-01  7.29616e-01        00000 
 2.07074e-01  7.27501e-01        00000 
 1.58422e-01  7.25809e-01        00000 
 1.10336e-01  7.24549e-01        00000 
 6.26485e-02  7.23728e-01        00000 
 1.51883e-02  7.23353e-01        00000 
-3.22189e-02  7.23428e-01        00000 
-7.97467e-02  7.23951e-01        00000 
-1.27567e-01  7.24919e-01        00000 
-1.75846e-01  7.26325e-01        00000 
-2.24747e-01  7.28161e-01        00000 
-2.74420e-01  7.30418e-01        00000 
-3.25004e-01  7.33091e-01        00000 
-3.76619e-01  7.36175e-01        00000 
-4.29343e-01  7.39673e-01        00000 
-4.83222e-01  7.43594e-01        00000 
 4.86918e-01  8.54018e-01        00000 
 4.30564e-01  8.50719e-01        00000 
 3.75652e-01  8.47781e-01        00000 
 3.21971e-01  8.45199e-01        00000 
 2.69332e-01  8.42972e-01        00000 
 2.17571e-01  8.41106e-01        00000 
 1.66524e-01  8.39608e-01        00000 
 1.16027e-01  8.38487e-01        00000 
 6.59136e-02  8.37753e-01        00000 
 1.60163e-02  8.37414e-01        00000 
-3.38319e-02  8.37474e-01        00000 
-8.37969e-02  8.37933e-01        00000 
-1.34044e-01  8.38786e-01        00000 
-1.84736e-01  8.40026e-01        00000 
-2.36033e-01  8.41643e-01        00000 
-2.88090e-01  8.43630e-01        00000 
-3.41051e-01  8.45978e-01        00000 
-3.95045e-01  8.48684e-01        00000 
-4.50161e-01  8.51750e-01        00000 
-5.06454e-01  8.55187e-01        00000 
 5.06404e-01  9.70357e-01        00000 
 4.47957e-01  9.67513e-01        00000 
 3.90982e-01  9.64974e-01        00000 
 3.35257e-01  9.62732e-01        00000 
 2.80575e-01  9.60784e-01        00000 
 2.26758e-01  9.59139e-01        00000 
 1.73635e-01  9.57807e-01        00000 
 1.21036e-01  9.56802e-01        00000 
 6.87985e-02  9.56139e-01        00000 
 1.67605e-02  9.55828e-01        00000 
-3.52346e-02  9.55876e-01        00000 
-8.73419e-02  9.56281e-01        00000 
-1.39717e-01  9.57039e-01        00000 
-1.92515e-01  9.58138e-01        00000 
-2.45897e-01  9.59567e-01        00000 
-3.00019e-01  9.61310e-01        00000 
-3.55037e-01  9.63359e-01        00000 
-4.11088e-01  9.65709e-01        00000 
-4.68277e-01  9.68361e-01        00000 
-5.26672e-01  9.71327e-01        00000 
 5.23008e-01  1.09061e+00        00000 
 4.62788e-01  1.08822e+00        00000 
 4.04091e-01  1.08607e+00        00000 
 3.46666e-01  1.08414e+00        00000 
 2.90282e-01  1.08244e+00        00000 
 2.34738e-01  1.08099e+00        00000 
 1.79848e-01  1.07979e+00        00000 
 1.25439e-01  1.07887e+00        00000 
 7.13515e-02  1.07826e+00        00000 
 1.74358e-02  1.07796e+00        00000 
-3.64477e-02  1.07800e+00        00000 
-9.04350e-02  1.07837e+00        00000 
-1.44665e-01  1.07906e+00        00000 
-1.99282e-01  1.08005e+00        00000 
-2.54442e-01  1.08132e+00        00000 
-3.10308e-01  1.08286e+00        00000 
-3.67049e-01  1.08464e+00        00000 
-4.24821e-01  1.08665e+00        00000 
-4.83754e-01  1.08890e+00        00000 
-5.43937e-01  1.09141e+00        00000 
 5.36705e-01  1.21415e+00        00000 
 4.75065e-01  1.21222e+00        00000 
 4.15027e-01  1.21044e+00        00000 
 3.56286e-01  1.20882e+00        00000 
 2.98567e-01  1.20735e+00        00000 
 2.41637e-01  1.20604e+00        00000 
 1.85287e-01  1.20493e+00        00000 
 1.29340e-01  1.20407e+00        00000 
 7.36410e-02  1.20347e+00        00000 
 1.80636e-02  1.20318e+00        00000 
-3.75001e-02  1.20322e+00        00000 
-9.31517e-02  1.20357e+00        00000 
-1.48998e-01  1.20423e+00        00000 
-2.05164e-01  1.20516e+00        00000 
-2.61797e-01  1.20632e+00        00000 
-3.19070e-01  1.20769e+00        00000 
-3.77172e-01  1.20923e+00        00000 
-4.36294e-01  1.21093e+00        00000 
-4.96602e-01  1.21278e+00        00000 
-5.58232e-01  1.21482e+00        00000 
 5.47371e-01  1.34026e+00        00000 
 4.84744e-01  1.33880e+00        00000 
 4.23814e-01  1.33742e+00        00000 
 3.64198e-01  1.33610e+00        00000 
 3.05557e-01  1.33485e+00        00000 
 2.47610e-01  1.33368e+00        00000 
 1.90120e-01  1.33265e+00        00000 
 1.32888e-01  1.33180e+00        00000 
 7.57700e-02  1.33120e+00        00000 
 1.86784e-02  1.33090e+00        00000 
-3.84381e-02  1.33094e+00        00000 
-9.56065e-02  1.33130e+00        00000 
-1.52877e-01  1.33196e+00        00000 
-2.10337e-01  1.33288e+00        00000 
-2.68124e-01  1.33397e+00        00000 
-3.26432e-01  1.33519e+00        00000 
-3.85484e-01  1.33650e+00        00000 
-4.45520e-01  1.33788e+00        00000 
-5.06764e-01  1.33933e+00        00000 
-5.69421e-01  1.34087e+00        00000 
 5.54791e-01  1.46796e+00        00000 
 4.91746e-01  1.46701e+00        00000 
 4.30440e-01  1.46607e+00        00000 
 3.70421e-01  1.46514e+00        00000 
 3.11318e-01  1.46422e+00        00000 
 2.52797e-01  1.46331e+00        00000 
 1.94540e-01  1.46241e+00        00000 
 1.36302e-01  1.46162e+00        00000 
 7.79102e-02  1.46099e+00        00000 
 1.93325e-02  1.46068e+00        00000 
-3.93311e-02  1.46072e+00        00000 
-9.79883e-02  1.46112e+00        00000 
-1.56538e-01  1.46183e+00        00000 
-2.15010e-01  1.46270e+00        00000 
-2.73574e-01  1.46367e+00        00000 
-3.32469e-01  1.46466e+00        00000 
-3.92001e-01  1.46564e+00        00000 
-4.52466e-01  1.46662e+00        00000 
-5.14132e-01  1.46762e+00        00000 
-5.77261e-01  1.46863e+00        00000 
 5.58848e-01  1.59583e+00        00000 
 4.96065e-01  1.59540e+00        00000 
 4.34820e-01  1.59499e+00        00000 
 3.74769e-01  1.59469e+00        00000 
 3.15627e-01  1.59448e+00        00000 
 2.57070e-01  1.59426e+00        00000 
 1.98664e-01  1.59392e+00        00000 
 1.39835e-01  1.59340e+00        00000 
 8.03495e-02  1.59294e+00        00000 
 2.01936e-02  1.59257e+00        00000 
-4.03704e-02  1.59263e+00        00000 
-1.00609e-01  1.59313e+00        00000 
-1.60258e-01  1.59371e+00        00000 
-2.19328e-01  1.59436e+00        00000 
-2.78047e-01  1.59480e+00        00000 
-3.36979e-01  1.59513e+00        00000 
-3.96546e-01  1.59543e+00        00000 
-4.57038e-01  1.59580e+00        00000 
-5.18655e-01  1.59625e+00        00000 
-5.81588e-01  1.59671e+00        00000 
 5.60062e-01  1.72208e+00        00000 
 4.97985e-01  1.72205e+00        00000 
 4.36879e-01  1.72223e+00        00000 
 3.76825e-01  1.72277e+00        00000 
 3.17748e-01  1.72373e+00        00000 
 2.59453e-01  1.72510e+00        00000 
 2.01588e-01  1.72673e+00        00000 
 1.43497e-01  1.72817e+00        00000 
 8.34284e-02  1.72846e+00        00000 
 2.12023e-02  1.72905e+00        00000 
-4.15320e-02  1.72916e+00        00000 
-1.03840e-01  1.72876e+00        00000 
-1.64074e-01  1.72866e+00        00000 
-2.22411e-01  1.72740e+00        00000 
-2.80587e-01  1.72594e+00        00000 
-3.39249e-01  1.72472e+00        00000 
-3.98729e-01  1.72388e+00        00000 
-4.59184e-01  1.72342e+00        00000 
-5.20620e-01  1.72329e+00        00000 
-5.82902e-01  1.72332e+00        00000 
 5.60098e-01  1.84588e+00        00000 
 4.98416e-01  1.84584e+00        00000 
 4.37251e-01  1.84585e+00        00000 
 3.76922e-01  1.84631e+00        00000 
 3.17451e-01  1.84766e+00        00000 
 2.58687e-01  1.85044e+00        00000 
 2.00311e-01  1.85543e+00        00000 
 1.41703e-01  1.86385e+00        00000 
 8.19165e-02  1.87742e+00        00000 
 2.06652e-02  1.88369e+00        00000 
-4.11683e-02  1.88384e+00        00000 
-1.02505e-01  1.87787e+00        00000 
-1.62455e-01  1.86462e+00        00000 
-2.21296e-01  1.85650e+00        00000 
-2.79964e-01  1.85175e+00        00000 
-3.39069e-01  1.84915e+00        00000 
-3.98908e-01  1.84793e+00        00000 
-4.59587e-01  1.84753e+00        00000 
-5.21038e-01  1.84752e+00        00000 
-5.82948e-01  1.84756e+00        00000 
 4.10847e-02  2.28340e-02        00000 
 3.21267e-02  1.80086e-02        00000 
 2.53485e-02  1.44915e-02        00000 
 2.00336e-02  1.20539e-02        00000 
 1.56760e-02  1.03448e-02        00000 
 1.19229e-02  9.14480e-03        00000 
 8.55024e-03  8.31923e-03        00000 
 5.41324e-03  7.78588e-03        00000 
 2.41075e-03  7.49625e-03        00000 
-5.36066e-04  7.42556e-03        00000 
-3.49757e-03  7.56803e-03        00000 
-6.54637e-03  7.93584e-03        00000 
-9.76875e-03  8.56138e-03        00000 
-1.32810e-02  9.50366e-03        00000 
-1.72567e-02  1.08611e-02        00000 
-2.19746e-02  1.27951e-02        00000 
-2.79007e-02  1.55711e-02        00000 
-3.57992e-02  1.96236e-02        00000 
-4.67421e-02  2.55522e-02        00000 
 1.16901e-01  7.02026e-02        00000 
 9.51625e-02  5.97497e-02        00000 
 7.69227e-02  5.18764e-02        00000 
 6.16140e-02  4.58796e-02        00000 
 4.85307e-02  4.13813e-02        00000 
 3.70203e-02  3.80759e-02        00000 
 2.65797e-02  3.57331e-02        00000 
 1.68353e-02  3.41916e-02        00000 
 7.50045e-03  3.33477e-02        00000 
-1.66184e-03  3.31461e-02        00000 
-1.08686e-02  3.35738e-02        00000 
-2.03422e-02  3.46590e-02        00000 
-3.03369e-02  3.64742e-02        00000 
-4.11719e-02  3.91431e-02        00000 
-5.32748e-02  4.28519e-02        00000 
-6.72297e-02  4.78609e-02        00000 
-8.37852e-02  5.45046e-02        00000 
-1.03643e-01  6.31407e-02        00000 
-1.26621e-01  7.40557e-02        00000 
 1.72652e-01  1.16466e-01        00000 
 1.47666e-01  1.08164e-01        00000 
 1.23461e-01  1.00364e-01        00000 
 1.01125e-01  9.36214e-02        00000 
 8.07732e-02  8.80809e-02        00000 
 6.21379e-02  8.37352e-02        00000 
 4.48350e-02  8.05120e-02        00000 
 2.84763e-02  7.83276e-02        00000 
 1.27028e-02  7.71138e-02        00000 
-2.81722e-03  7.68293e-02        00000 
-1.84025e-02  7.74644e-02        00000 
-3.43758e-02  7.90419e-02        00000 
-5.10806e-02  8.16150e-02        00000 
-6.88938e-02  8.52609e-02        00000 
-8.82200e-02  9.00653e-02        00000 
-1.09441e-01  9.60857e-02        00000 
-1.32754e-01  1.03282e-01        00000 
-1.57832e-01  1.11412e-01        00000 
-1.83354e-01  1.19921e-01        00000 
 2.20883e-01  1.71546e-01        00000 
 1.91603e-01  1.64256e-01        00000 
 1.63150e-01  1.57565e-01        00000 
 1.35823e-01  1.51509e-01        00000 
 1.09874e-01  1.46259e-01        00000 
 8.53046e-02  1.41936e-01        00000 
 6.19366e-02  1.38604e-01        00000 
 3.94915e-02  1.36282e-01        00000 
 1.76492e-02  1.34973e-01        00000 
-3.92497e-03  1.34670e-01        00000 
-2.55694e-02  1.35373e-01        00000 
-4.76225e-02  1.37086e-01        00000 
-7.04178e-02  1.39815e-01        00000 
-9.42691e-02  1.43555e-01        00000 
-1.19434e-01  1.48274e-01        00000 
-1.46045e-01  1.53888e-01        00000 
-1.74019e-01  1.60250e-01        00000 
-2.02999e-01  1.67187e-01        00000 
-2.32543e-01  1.74686e-01        00000 
 2.64339e-01  2.36509e-01        00000 
 2.30546e-01  2.29964e-01        00000 
 1.97749e-01  2.24059e-01        00000 
 1.66000e-01  2.18785e-01        00000 
 1.35347e-01  2.14184e-01        00000 
 1.05782e-01  2.10333e-01        00000 
 7.71953e-02  2.07310e-01        00000 
 4.93903e-02  2.05171e-01        00000 
 2.21122e-02  2.03953e-01        00000 
-4.92755e-03  2.03674e-01        00000 
-3.20307e-02  2.04338e-01        00000 
-5.94967e-02  2.05937e-01        00000 
-8.76048e-02  2.08447e-01        00000 
-1.16593e-01  2.11823e-01        00000 
-1.46629e-01  2.16000e-01        00000 
-1.77782e-01  2.20892e-01        00000 
-2.10011e-01  2.26421e-01        00000 
-2.43196e-01  2.32554e-01        00000 
-2.77150e-01  2.39321e-01        00000 
 3.03697e-01  3.10943e-01        00000 
 2.65572e-01  3.05041e-01        00000 