<?xml version="1.0" encoding="utf-8"?>
<VTKFile byte_order="LittleEndian" type="UnstructuredGrid" version="0.1">
   <UnstructuredGrid>
      <Piece NumberOfCells="1444" NumberOfPoints="761">
         <Points>
            <DataArray Name="Points" NumberOfComponents="3" format="ascii" type="Float32">
0.0000 1.0000 0.0000
0.0000 1.0526 0.0000
0.0000 1.1053 0.0000
0.0000 1.1579 0.0000
0.0000 1.2105 0.0000
0.0000 1.2632 0.0000
0.0000 1.3158 0.0000
0.0000 1.3684 0.0000
0.0000 1.4211 0.0000
0.0000 1.4737 0.0000
0.0000 1.5263 0.0000
0.0000 1.5789 0.0000
0.0000 1.6316 0.0000
0.0000 1.6842 0.0000
0.0000 1.7368 0.0000
0.0000 1.7895 0.0000
0.0000 1.8421 0.0000
0.0000 1.8947 0.0000
0.0000 1.9474 0.0000
0.0000 2.0000 0.0000
0.1053 1.0000 0.0000
0.1053 1.0526 0.0000
0.1053 1.1053 0.0000
0.1053 1.1579 0.0000
0.1053 1.2105 0.0000
0.1053 1.2632 0.0000
0.1053 1.3158 0.0000
0.1053 1.3684 0.0000
0.1053 1.4211 0.0000
0.1053 1.4737 0.0000
0.1053 1.5263 0.0000
0.1053 1.5789 0.0000
0.1053 1.6316 0.0000
0.1053 1.6842 0.0000
0.1053 1.7368 0.0000
0.1053 1.7895 0.0000
0.1053 1.8421 0.0000
0.1053 1.8947 0.0000
0.1053 1.9474 0.0000
0.1053 2.0000 0.0000
0.2105 1.0000 0.0000
0.2105 1.0526 0.0000
0.2105 1.1053 0.0000
0.2105 1.1579 0.0000
0.2105 1.2105 0.0000
0.2105 1.2632 0.0000
0.2105 1.3158 0.0000
0.2105 1.3684 0.0000
0.2105 1.4211 0.0000
0.2105 1.4737 0.0000
0.2105 1.5263 0.0000
0.2105 1.5789 0.0000
0.2105 1.6316 0.0000
0.2105 1.6842 0.0000
0.2105 1.7368 0.0000
0.2105 1.7895 0.0000
0.2105 1.8421 0.0000
0.2105 1.8947 0.0000
0.2105 1.9474 0.0000
0.2105 2.0000 0.0000
0.3158 1.0000 0.0000
0.3158 1.0526 0.0000
0.3158 1.1053 0.0000
0.3158 1.1579 0.0000
0.3158 1.2105 0.0000
0.3158 1.2632 0.0000
0.3158 1.3158 0.0000
0.3158 1.3684 0.0000
0.3158 1.4211 0.0000
0.3158 1.4737 0.0000
0.3158 1.5263 0.0000
0.3158 1.5789 0.0000
0.3158 1.6316 0.0000
0.3158 1.6842 0.0000
0.3158 1.7368 0.0000
0.3158 1.7895 0.0000
0.3158 1.8421 0.0000
0.3158 1.8947 0.0000
0.3158 1.9474 0.0000
0.3158 2.0000 0.0000
0.4211 1.0000 0.0000
0.4211 1.0526 0.0000
0.4211 1.1053 0.0000
0.4211 1.1579 0.0000
0.4211 1.2105 0.0000
0.4211 1.2632 0.0000
0.4211 1.3158 0.0000
0.4211 1.3684 0.0000
0.4211 1.4211 0.0000
0.4211 1.4737 0.0000
0.4211 1.5263 0.0000
0.4211 1.5789 0.0000
0.4211 1.6316 0.0000
0.4211 1.6842 0.0000
0.4211 1.7368 0.0000
0.4211 1.7895 0.0000
0.4211 1.8421 0.0000
0.4211 1.8947 0.0000
0.4211 1.9474 0.0000
0.4211 2.0000 0.0000
0.5263 1.0000 0.0000
0.5263 1.0526 0.0000
0.5263 1.1053 0.0000
0.5263 1.1579 0.0000
0.5263 1.2105 0.0000
0.5263 1.2632 0.0000
0.5263 1.3158 0.0000
0.5263 1.3684 0.0000
0.5263 1.4211 0.0000
0.5263 1.4737 0.0000
0.5263 1.5263 0.0000
0.5263 1.5789 0.0000
0.5263 1.6316 0.0000
0.5263 1.6842 0.0000
0.5263 1.7368 0.0000
0.5263 1.7895 0.0000
0.5263 1.8421 0.0000
0.5263 1.8947 0.0000
0.5263 1.9474 0.0000
0.5263 2.0000 0.0000
0.6316 1.0000 0.0000
0.6316 1.0526 0.0000
0.6316 1.1053 0.0000
0.6316 1.1579 0.0000
0.6316 1.2105 0.0000
0.6316 1.2632 0.0000
0.6316 1.3158 0.0000
0.6316 1.3684 0.0000
0.6316 1.4211 0.0000
0.6316 1.4737 0.0000
0.6316 1.5263 0.0000
0.6316 1.5789 0.0000
0.6316 1.6316 0.0000
0.6316 1.6842 0.0000
0.6316 1.7368 0.0000
0.6316 1.7895 0.0000
0.6316 1.8421 0.0000
0.6316 1.8947 0.0000
0.6316 1.9474 0.0000
0.6316 2.0000 0.0000
0.7368 1.0000 0.0000
0.7368 1.0526 0.0000
0.7368 1.1053 0.0000
0.7368 1.1579 0.0000
0.7368 1.2105 0.0000
0.7368 1.2632 0.0000
0.7368 1.3158 0.0000
0.7368 1.3684 0.0000
0.7368 1.4211 0.0000
0.7368 1.4737 0.0000
0.7368 1.5263 0.0000
0.7368 1.5789 0.0000
0.7368 1.6316 0.0000
0.7368 1.6842 0.0000
0.7368 1.7368 0.0000
0.7368 1.7895 0.0000
0.7368 1.8421 0.0000
0.7368 1.8947 0.0000
0.7368 1.9474 0.0000
0.7368 2.0000 0.0000
0.8421 1.0000 0.0000
0.8421 1.0526 0.0000
0.8421 1.1053 0.0000
0.8421 1.1579 0.0000
0.8421 1.2105 0.0000
0.8421 1.2632 0.0000
0.8421 1.3158 0.0000
0.8421 1.3684 0.0000
0.8421 1.4211 0.0000
0.8421 1.4737 0.0000
0.8421 1.5263 0.0000
0.8421 1.5789 0.0000
0.8421 1.6316 0.0000
0.8421 1.6842 0.0000
0.8421 1.7368 0.0000
0.8421 1.7895 0.0000
0.8421 1.8421 0.0000
0.8421 1.8947 0.0000
0.8421 1.9474 0.0000
0.8421 2.0000 0.0000
0.9474 1.0000 0.0000
0.9474 1.0526 0.0000
0.9474 1.1053 0.0000
0.9474 1.1579 0.0000
0.9474 1.2105 0.0000
0.9474 1.2632 0.0000
0.9474 1.3158 0.0000
0.9474 1.3684 0.0000
0.9474 1.4211 0.0000
0.9474 1.4737 0.0000
0.9474 1.5263 0.0000
0.9474 1.5789 0.0000
0.9474 1.6316 0.0000
0.9474 1.6842 0.0000
0.9474 1.7368 0.0000
0.9474 1.7895 0.0000
0.9474 1.8421 0.0000
0.9474 1.8947 0.0000
0.9474 1.9474 0.0000
0.9474 2.0000 0.0000
1.0526 1.0000 0.0000
1.0526 1.0526 0.0000
1.0526 1.1053 0.0000
1.0526 1.1579 0.0000
1.0526 1.2105 0.0000
1.0526 1.2632 0.0000
1.0526 1.3158 0.0000
1.0526 1.3684 0.0000
1.0526 1.4211 0.0000
1.0526 1.4737 0.0000
1.0526 1.5263 0.0000
1.0526 1.5789 0.0000
1.0526 1.6316 0.0000
1.0526 1.6842 0.0000
1.0526 1.7368 0.0000
1.0526 1.7895 0.0000
1.0526 1.8421 0.0000
1.0526 1.8947 0.0000
1.0526 1.9474 0.0000
1.0526 2.0000 0.0000
1.1579 1.0000 0.0000
1.1579 1.0526 0.0000
1.1579 1.1053 0.0000
1.1579 1.1579 0.0000
1.1579 1.2105 0.0000
1.1579 1.2632 0.0000
1.1579 1.3158 0.0000
1.1579 1.3684 0.0000
1.1579 1.4211 0.0000
1.1579 1.4737 0.0000
1.1579 1.5263 0.0000
1.1579 1.5789 0.0000
1.1579 1.6316 0.0000
1.1579 1.6842 0.0000
1.1579 1.7368 0.0000
1.1579 1.7895 0.0000
1.1579 1.8421 0.0000
1.1579 1.8947 0.0000
1.1579 1.9474 0.0000
1.1579 2.0000 0.0000
1.2632 1.0000 0.0000
1.2632 1.0526 0.0000
1.2632 1.1053 0.0000
1.2632 1.1579 0.0000
1.2632 1.2105 0.0000
1.2632 1.2632 0.0000
1.2632 1.3158 0.0000
1.2632 1.3684 0.0000
1.2632 1.4211 0.0000
1.2632 1.4737 0.0000
1.2632 1.5263 0.0000
1.2632 1.5789 0.0000
1.2632 1.6316 0.0000
1.2632 1.6842 0.0000
1.2632 1.7368 0.0000
1.2632 1.7895 0.0000
1.2632 1.8421 0.0000
1.2632 1.8947 0.0000
1.2632 1.9474 0.0000
1.2632 2.0000 0.0000
1.3684 1.0000 0.0000
1.3684 1.0526 0.0000
1.3684 1.1053 0.0000
1.3684 1.1579 0.0000
1.3684 1.2105 0.0000
1.3684 1.2632 0.0000
1.3684 1.3158 0.0000
1.3684 1.3684 0.0000
1.3684 1.4211 0.0000
1.3684 1.4737 0.0000
1.3684 1.5263 0.0000
1.3684 1.5789 0.0000
1.3684 1.6316 0.0000
1.3684 1.6842 0.0000
1.3684 1.7368 0.0000
1.3684 1.7895 0.0000
1.3684 1.8421 0.0000
1.3684 1.8947 0.0000
1.3684 1.9474 0.0000
1.3684 2.0000 0.0000
1.4737 1.0000 0.0000
1.4737 1.0526 0.0000
1.4737 1.1053 0.0000
1.4737 1.1579 0.0000
1.4737 1.2105 0.0000
1.4737 1.2632 0.0000
1.4737 1.3158 0.0000
1.4737 1.3684 0.0000
1.4737 1.4211 0.0000
1.4737 1.4737 0.0000
1.4737 1.5263 0.0000
1.4737 1.5789 0.0000
1.4737 1.6316 0.0000
1.4737 1.6842 0.0000
1.4737 1.7368 0.0000
1.4737 1.7895 0.0000
1.4737 1.8421 0.0000
1.4737 1.8947 0.0000
1.4737 1.9474 0.0000
1.4737 2.0000 0.0000
1.5789 1.0000 0.0000
1.5789 1.0526 0.0000
1.5789 1.1053 0.0000
1.5789 1.1579 0.0000
1.5789 1.2105 0.0000
1.5789 1.2632 0.0000
1.5789 1.3158 0.0000
1.5789 1.3684 0.0000
1.5789 1.4211 0.0000
1.5789 1.4737 0.0000
1.5789 1.5263 0.0000
1.5789 1.5789 0.0000
1.5789 1.6316 0.0000
1.5789 1.6842 0.0000
1.5789 1.7368 0.0000
1.5789 1.7895 0.0000
1.5789 1.8421 0.0000
1.5789 1.8947 0.0000
1.5789 1.9474 0.0000
1.5789 2.0000 0.0000
1.6842 1.0000 0.0000
1.6842 1.0526 0.0000
1.6842 1.1053 0.0000
1.6842 1.1579 0.0000
1.6842 1.2105 0.0000
1.6842 1.2632 0.0000
1.6842 1.3158 0.0000
1.6842 1.3684 0.0000
1.6842 1.4211 0.0000
1.6842 1.4737 0.0000
1.6842 1.5263 0.0000
1.6842 1.5789 0.0000
1.6842 1.6316 0.0000
1.6842 1.6842 0.0000
1.6842 1.7368 0.0000
1.6842 1.7895 0.0000
1.6842 1.8421 0.0000
1.6842 1.8947 0.0000
1.6842 1.9474 0.0000
1.6842 2.0000 0.0000
1.7895 1.0000 0.0000
1.7895 1.0526 0.0000
1.7895 1.1053 0.0000
1.7895 1.1579 0.0000
1.7895 1.2105 0.0000
1.7895 1.2632 0.0000
1.7895 1.3158 0.0000
1.7895 1.3684 0.0000
1.7895 1.4211 0.0000
1.7895 1.4737 0.0000
1.7895 1.5263 0.0000
1.7895 1.5789 0.0000
1.7895 1.6316 0.0000
1.7895 1.6842 0.0000
1.7895 1.7368 0.0000
1.7895 1.7895 0.0000
1.7895 1.8421 0.0000
1.7895 1.8947 0.0000
1.7895 1.9474 0.0000
1.7895 2.0000 0.0000
1.8947 1.0000 0.0000
1.8947 1.0526 0.0000
1.8947 1.1053 0.0000
1.8947 1.1579 0.0000
1.8947 1.2105 0.0000
1.8947 1.2632 0.0000
1.8947 1.3158 0.0000
1.8947 1.3684 0.0000
1.8947 1.4211 0.0000
1.8947 1.4737 0.0000
1.8947 1.5263 0.0000
1.8947 1.5789 0.0000
1.8947 1.6316 0.0000
1.8947 1.6842 0.0000
1.8947 1.7368 0.0000
1.8947 1.7895 0.0000
1.8947 1.8421 0.0000
1.8947 1.8947 0.0000
1.8947 1.9474 0.0000
1.8947 2.0000 0.0000
2.0000 1.0000 0.0000
2.0000 1.0526 0.0000
2.0000 1.1053 0.0000
2.0000 1.1579 0.0000
2.0000 1.2105 0.0000
2.0000 1.2632 0.0000
2.0000 1.3158 0.0000
2.0000 1.3684 0.0000
2.0000 1.4211 0.0000
2.0000 1.4737 0.0000
2.0000 1.5263 0.0000
2.0000 1.5789 0.0000
2.0000 1.6316 0.0000
2.0000 1.6842 0.0000
2.0000 1.7368 0.0000
2.0000 1.7895 0.0000
2.0000 1.8421 0.0000
2.0000 1.8947 0.0000
2.0000 1.9474 0.0000
2.0000 2.0000 0.0000
0.0526 1.0263 0.0000
0.0526 1.0789 0.0000
0.0526 1.1316 0.0000
0.0526 1.1842 0.0000
0.0526 1.2368 0.0000
0.0526 1.2895 0.0000
0.0526 1.3421 0.0000
0.0526 1.3947 0.0000
0.0526 1.4474 0.0000
0.0526 1.5000 0.0000
0.0526 1.5526 0.0000
0.0526 1.6053 0.0000
0.0526 1.6579 0.0000
0.0526 1.7105 0.0000
0.0526 1.7632 0.0000
0.0526 1.8158 0.0000
0.0526 1.8684 0.0000
0.0526 1.9211 0.0000
0.0526 1.9737 0.0000
0.1579 1.0263 0.0000
0.1579 1.0789 0.0000
0.1579 1.1316 0.0000
0.1579 1.1842 0.0000
0.1579 1.2368 0.0000
0.1579 1.2895 0.0000
0.1579 1.3421 0.0000
0.1579 1.3947 0.0000
0.1579 1.4474 0.0000
0.1579 1.5000 0.0000
0.1579 1.5526 0.0000
0.1579 1.6053 0.0000
0.1579 1.6579 0.0000
0.1579 1.7105 0.0000
0.1579 1.7632 0.0000
0.1579 1.8158 0.0000
0.1579 1.8684 0.0000
0.1579 1.9211 0.0000
0.1579 1.9737 0.0000
0.2632 1.0263 0.0000
0.2632 1.0789 0.0000
0.2632 1.1316 0.0000
0.2632 1.1842 0.0000
0.2632 1.2368 0.0000
0.2632 1.2895 0.0000
0.2632 1.3421 0.0000
0.2632 1.3947 0.0000
0.2632 1.4474 0.0000
0.2632 1.5000 0.0000
0.2632 1.5526 0.0000
0.2632 1.6053 0.0000
0.2632 1.6579 0.0000
0.2632 1.7105 0.0000
0.2632 1.7632 0.0000
0.2632 1.8158 0.0000
0.2632 1.8684 0.0000
0.2632 1.9211 0.0000
0.2632 1.9737 0.0000
0.3684 1.0263 0.0000
0.3684 1.0789 0.0000
0.3684 1.1316 0.0000
0.3684 1.1842 0.0000
[...]
         <PointData>
            <DataArray Name="displacement" NumberOfComponents="3" format="ascii" type="Float64">
-1.26148e-18  3.62262e-19        00000 
       00000 -1.44905e-18        00000 
 4.76794e-19  9.53587e-19        00000 
-2.02182e-19 -1.83461e-18        00000 
 3.09916e-18 -9.53587e-19        00000 
-1.63522e-18  1.51244e-18        00000 
 3.57595e-19 -5.95992e-19        00000 
-5.02646e-19  3.74410e-19        00000 
 1.48998e-19  2.38397e-19        00000 
 1.80366e-19  2.40488e-19        00000 
-1.48998e-19  5.95992e-20        00000 
-2.89232e-19 -9.88443e-19        00000 
 1.66878e-18  7.15191e-19        00000 
-1.44343e-18  4.05310e-19        00000 
 7.15191e-19  7.15191e-19        00000 
 8.08726e-19 -1.24304e-18        00000 
 1.43038e-18  3.57595e-18        00000 
       00000 -1.92404e-18        00000 
 1.92353e-18  2.16398e-18        00000 
-1.74236e-18 -3.69469e-18        00000 
 3.48399e-02  2.20365e-02        00000 
 2.64851e-02  1.68098e-02        00000 
 2.14706e-02  1.34265e-02        00000 
 1.76066e-02  1.11526e-02        00000 
 1.43261e-02  9.57128e-03        00000 
 1.13888e-02  8.45398e-03        00000 
 8.66742e-03  7.66811e-03        00000 
 6.08504e-03  7.13348e-03        00000 
 3.58961e-03  6.80137e-03        00000 
 1.14192e-03  6.64378e-03        00000 
-1.29114e-03  6.64804e-03        00000 
-3.74095e-03  6.81454e-03        00000 
-6.24090e-03  7.15688e-03        00000 
-8.83092e-03  7.70424e-03        00000 
-1.15645e-02  8.50723e-03        00000 
-1.45213e-02  9.64897e-03        00000 
-1.78338e-02  1.12663e-02        00000 
-2.17488e-02  1.35913e-02        00000 
-2.68323e-02  1.70348e-02        00000 
-3.52119e-02  2.23065e-02        00000 
 6.22546e-02  4.02947e-02        00000 
 5.25546e-02  3.61668e-02        00000 
 4.37823e-02  3.23051e-02        00000 
 3.62454e-02  2.91381e-02        00000 
 2.95873e-02  2.66565e-02        00000 
 2.35375e-02  2.47636e-02        00000 
 1.79084e-02  2.33630e-02        00000 
 1.25661e-02  2.23775e-02        00000 
 7.40949e-03  2.17522e-02        00000 
 2.35679e-03  2.14521e-02        00000 
-2.66379e-03  2.14606e-02        00000 
-7.72108e-03  2.17781e-02        00000 
-1.28874e-02  2.24226e-02        00000 
-1.82455e-02  2.34299e-02        00000 
-2.38986e-02  2.48564e-02        00000 
-2.99830e-02  2.67802e-02        00000 
-3.66884e-02  2.92974e-02        00000 
-4.42807e-02  3.25009e-02        00000 
-5.30920e-02  3.63931e-02        00000 
-6.27949e-02  4.05489e-02        00000 
 8.76831e-02  6.25493e-02        00000 
 7.57986e-02  5.86134e-02        00000 
 6.46659e-02  5.50882e-02        00000 
 5.43001e-02  5.19721e-02        00000 
 4.46938e-02  4.93382e-02        00000 
 3.57262e-02  4.72030e-02        00000 
 2.72572e-02  4.55485e-02        00000 
 1.91558e-02  4.43451e-02        00000 
 1.13044e-02  4.35643e-02        00000 
 3.59709e-03  4.31848e-02        00000 
-4.06511e-03  4.31959e-02        00000 
-1.17788e-02  4.35978e-02        00000 
-1.96434e-02  4.44022e-02        00000 
-2.77655e-02  4.56306e-02        00000 
-3.62637e-02  4.73120e-02        00000 
-4.52696e-02  4.94755e-02        00000 
-5.49213e-02  5.21380e-02        00000 
-6.53317e-02  5.52815e-02        00000 
-7.64939e-02  5.88333e-02        00000 
-8.83790e-02  6.27966e-02        00000 
 1.11599e-01  8.93470e-02        00000 
 9.73774e-02  8.56843e-02        00000 
 8.38808e-02  8.23966e-02        00000 
 7.10791e-02  7.94967e-02        00000 
 5.89218e-02  7.69950e-02        00000 
 4.73430e-02  7.49101e-02        00000 
 3.62500e-02  7.32512e-02        00000 
 2.55362e-02  7.20181e-02        00000 
 1.50912e-02  7.12051e-02        00000 
 4.80513e-03  7.08065e-02        00000 
-5.43055e-03  7.08184e-02        00000 
-1.57238e-02  7.12412e-02        00000 
-2.61833e-02  7.20786e-02        00000 
-3.69192e-02  7.33367e-02        00000 
-4.80421e-02  7.50209e-02        00000 
-5.96579e-02  7.71312e-02        00000 
-7.18572e-02  7.96580e-02        00000 
-8.46994e-02  8.25827e-02        00000 
-9.82226e-02  8.58952e-02        00000 
-1.12442e-01  8.95838e-02        00000 
 1.33955e-01  1.20853e-01        00000 
 1.17444e-01  1.17444e-01        00000 
 1.01671e-01  1.14399e-01        00000 
 8.65739e-02  1.11716e-01        00000 
 7.20873e-02  1.09400e-01        00000 
 5.81389e-02  1.07458e-01        00000 
 4.46467e-02  1.05899e-01        00000 
 3.15177e-02  1.04729e-01        00000 
 1.86513e-02  1.03952e-01        00000 
 5.94225e-03  1.03569e-01        00000 
-6.71659e-03  1.03581e-01        00000 
-1.94329e-02  1.03988e-01        00000 
-3.23140e-02  1.04789e-01        00000 
-4.54648e-02  1.05982e-01        00000 
-5.89861e-02  1.07565e-01        00000 
-7.29701e-02  1.09530e-01        00000 
-8.74968e-02  1.11869e-01        00000 
-1.02633e-01  1.14575e-01        00000 
-1.18430e-01  1.17643e-01        00000 
-1.34938e-01  1.21076e-01        00000 
 1.54711e-01  1.56860e-01        00000 
 1.36032e-01  1.53710e-01        00000 
 1.18107e-01  1.50902e-01        00000 
 1.00859e-01  1.48433e-01        00000 
 8.42079e-02  1.46306e-01        00000 
 6.80772e-02  1.44523e-01        00000 
 5.23828e-02  1.43091e-01        00000 
 3.70351e-02  1.42014e-01        00000 
 2.19384e-02  1.41297e-01        00000 
 6.99256e-03  1.40943e-01        00000 
-7.90511e-03  1.40954e-01        00000 
-2.28581e-02  1.41330e-01        00000 
-3.79691e-02  1.42069e-01        00000 
-5.33381e-02  1.43168e-01        00000 
-6.90607e-02  1.44622e-01        00000 
-8.52260e-02  1.46427e-01        00000 
-1.01916e-01  1.48575e-01        00000 
-1.19203e-01  1.51065e-01        00000 
-1.37151e-01  1.53895e-01        00000 
-1.55826e-01  1.57068e-01        00000 
 1.73848e-01  1.97077e-01        00000 
 1.53154e-01  1.94184e-01        00000 
 1.33227e-01  1.91608e-01        00000 
 1.13979e-01  1.89348e-01        00000 
 9.53254e-02  1.87404e-01        00000 
 7.71835e-02  1.85778e-01        00000 
 5.94670e-02  1.84472e-01        00000 
 4.20862e-02  1.83491e-01        00000 
 2.49475e-02  1.82839e-01        00000 
 7.95399e-03  1.82517e-01        00000 
-8.99326e-03  1.82527e-01        00000 
-2.59938e-02  1.82869e-01        00000 
-4.31464e-02  1.83542e-01        00000 
-6.05480e-02  1.84543e-01        00000 
-7.82922e-02  1.85868e-01        00000 
-9.64681e-02  1.87515e-01        00000 
-1.15160e-01  1.89478e-01        00000 
-1.34445e-01  1.91758e-01        00000 
-1.54396e-01  1.94354e-01        00000 
-1.75085e-01  1.97268e-01        00000 
 1.91367e-01  2.41172e-01        00000 
 1.68824e-01  2.38534e-01        00000 
 1.47054e-01  2.36187e-01        00000 
 1.25967e-01  2.34130e-01        00000 
 1.05474e-01  2.32362e-01        00000 
 8.54893e-02  2.30885e-01        00000 
 6.59238e-02  2.29701e-01        00000 
 4.66877e-02  2.28813e-01        00000 
 2.76879e-02  2.28222e-01        00000 
 8.82952e-03  2.27930e-01        00000 
-9.98391e-03  2.27939e-01        00000 
-2.88492e-02  2.28249e-01        00000 
-4.78627e-02  2.28858e-01        00000 
-6.71195e-02  2.29765e-01        00000 
-8.67124e-02  2.30967e-01        00000 
-1.06731e-01  2.32462e-01        00000 
-1.27262e-01  2.34247e-01        00000 
-1.48385e-01  2.36323e-01        00000 
-1.70178e-01  2.38688e-01        00000 
-1.92716e-01  2.41346e-01        00000 
 2.07282e-01  2.88808e-01        00000 
 1.83056e-01  2.86421e-01        00000 
 1.59609e-01  2.84299e-01        00000 
 1.36848e-01  2.82440e-01        00000 
 1.14681e-01  2.80843e-01        00000 
 9.30208e-02  2.79509e-01        00000 
 7.17763e-02  2.78440e-01        00000 
 5.08571e-02  2.77638e-01        00000 
 3.01706e-02  2.77105e-01        00000 
 9.62290e-03  2.76842e-01        00000 
-1.08808e-02  2.76850e-01        00000 
-3.14354e-02  2.77129e-01        00000 
-5.21357e-02  2.77678e-01        00000 
-7.30756e-02  2.78496e-01        00000 
-9.43474e-02  2.79581e-01        00000 
-1.16042e-01  2.80931e-01        00000 
-1.38246e-01  2.82544e-01        00000 
-1.61044e-01  2.84420e-01        00000 
-1.84514e-01  2.86559e-01        00000 
-2.08734e-01  2.88963e-01        00000 
 2.21612e-01  3.39647e-01        00000 
 1.95869e-01  3.37510e-01        00000 
 1.70911e-01  3.35609e-01        00000 
 1.46641e-01  3.33943e-01        00000 
 1.22968e-01  3.32511e-01        00000 
 9.97993e-02  3.31315e-01        00000 
 7.70439e-02  3.30355e-01        00000 
 5.46101e-02  3.29634e-01        00000 
 3.24057e-02  3.29154e-01        00000 
 1.03376e-02  3.28917e-01        00000 
-1.16873e-02  3.28924e-01        00000 
-3.37624e-02  3.29175e-01        00000 
-5.59808e-02  3.29668e-01        00000 
-7.84355e-02  3.30403e-01        00000 
-1.01219e-01  3.31376e-01        00000 
-1.24422e-01  3.32587e-01        00000 
-1.48133e-01  3.34033e-01        00000 
-1.72439e-01  3.35714e-01        00000 
-1.97421e-01  3.37630e-01        00000 
-2.23157e-01  3.39783e-01        00000 
 2.34371e-01  3.93360e-01        00000 
 2.07277e-01  3.91469e-01        00000 
 1.80974e-01  3.89787e-01        00000 
 1.55366e-01  3.88309e-01        00000 
 1.30354e-01  3.87037e-01        00000 
 1.05845e-01  3.85970e-01        00000 
 8.17456e-02  3.85112e-01        00000 
 5.79624e-02  3.84465e-01        00000 
 3.44035e-02  3.84033e-01        00000 
 1.09773e-02  3.83820e-01        00000 
-1.24070e-02  3.83825e-01        00000 
-3.58404e-02  3.84050e-01        00000 
-5.94137e-02  3.84493e-01        00000 
-8.32184e-02  3.85152e-01        00000 
-1.07347e-01  3.86022e-01        00000 
-1.31891e-01  3.87101e-01        00000 
-1.56941e-01  3.88386e-01        00000 
-1.82588e-01  3.89876e-01        00000 
-2.08914e-01  3.91572e-01        00000 
-2.36001e-01  3.93477e-01        00000 
 2.45568e-01  4.49622e-01        00000 
 2.17288e-01  4.47977e-01        00000 
 1.89812e-01  4.46511e-01        00000 
 1.63038e-01  4.45217e-01        00000 
 1.36862e-01  4.44095e-01        00000 
 1.11183e-01  4.43147e-01        00000 
 8.59059e-02  4.42379e-01        00000 
 6.09344e-02  4.41796e-01        00000 
 3.61776e-02  4.41404e-01        00000 
 1.15469e-02  4.41210e-01        00000 
-1.30446e-02  4.41214e-01        00000 
-3.76828e-02  4.41418e-01        00000 
-6.24546e-02  4.41818e-01        00000 
-8.74485e-02  4.42411e-01        00000 
-1.12756e-01  4.43189e-01        00000 
-1.38470e-01  4.44146e-01        00000 
-1.64688e-01  4.45279e-01        00000 
-1.91501e-01  4.46584e-01        00000 
-2.19001e-01  4.48063e-01        00000 
-2.47276e-01  4.49721e-01        00000 
 2.55190e-01  5.08110e-01        00000 
 2.25896e-01  5.06714e-01        00000 
 1.97430e-01  5.05462e-01        00000 
 1.69677e-01  5.04344e-01        00000 
 1.42521e-01  5.03360e-01        00000 
 1.15851e-01  5.02516e-01        00000 
 8.95619e-02  5.01821e-01        00000 
 6.35579e-02  5.01286e-01        00000 
 3.77495e-02  5.00923e-01        00000 
 1.20538e-02  5.00741e-01        00000 
-1.36076e-02  5.00745e-01        00000 
-3.93112e-02  5.00934e-01        00000 
-6.51353e-02  5.01304e-01        00000 
-9.11628e-02  5.01847e-01        00000 
-1.17483e-01  5.02549e-01        00000 
-1.44192e-01  5.03402e-01        00000 
-1.71391e-01  5.04394e-01        00000 
-1.99186e-01  5.05521e-01        00000 
-2.27678e-01  5.06784e-01        00000 
-2.56969e-01  5.08192e-01        00000 
 2.63189e-01  5.68485e-01        00000 
 2.33074e-01  5.67347e-01        00000 
 2.03828e-01  5.66310e-01        00000 
 1.75310e-01  5.65362e-01        00000 
 1.47378e-01  5.64503e-01        00000 
 1.19904e-01  5.63744e-01        00000 
 9.27729e-02  5.63101e-01        00000 
 6.58847e-02  5.62594e-01        00000 
 3.91543e-02  5.62243e-01        00000 
 1.25102e-02  5.62064e-01        00000 
-1.41087e-02  5.62068e-01        00000 
-4.07610e-02  5.62252e-01        00000 
-6.75078e-02  5.62610e-01        00000 
-9.44207e-02  5.63123e-01        00000 
-1.21585e-01  5.63772e-01        00000 
-1.49099e-01  5.64538e-01        00000 
-1.77078e-01  5.65404e-01        00000 
-2.05643e-01  5.66360e-01        00000 
-2.34919e-01  5.67406e-01        00000 
-2.65033e-01  5.68554e-01        00000 
 2.69464e-01  6.30352e-01        00000 
 2.38770e-01  6.29489e-01        00000 
 2.08998e-01  6.28676e-01        00000 
 1.79961e-01  6.27903e-01        00000 
 1.51488e-01  6.27170e-01        00000 
 1.23421e-01  6.26490e-01        00000 
 9.56271e-02  6.25886e-01        00000 
 6.79963e-02  6.25387e-01        00000 
 4.04496e-02  6.25031e-01        00000 
 1.29374e-02  6.24845e-01        00000 
-1.45701e-02  6.24848e-01        00000 
-4.20908e-02  6.25041e-01        00000 
-6.96545e-02  6.25404e-01        00000 
-9.73111e-02  6.25909e-01        00000 
-1.25139e-01  6.26519e-01        00000 
-1.53249e-01  6.27205e-01        00000 
-1.81773e-01  6.27944e-01        00000 
-2.10860e-01  6.28724e-01        00000 
-2.40668e-01  6.29544e-01        00000 
-2.71365e-01  6.30416e-01        00000 
 2.73860e-01  6.93166e-01        00000 
 2.42911e-01  6.92601e-01        00000 
 2.12908e-01  6.92043e-01        00000 
 1.83629e-01  6.91493e-01        00000 
 1.54880e-01  6.90950e-01        00000 
 1.26474e-01  6.90409e-01        00000 
 9.82316e-02  6.89880e-01        00000 
 7.00163e-02  6.89407e-01        00000 
 4.17337e-02  6.89031e-01        00000 
 1.33681e-02  6.88833e-01        00000 
-1.50264e-02  6.88837e-01        00000 
-4.34007e-02  6.89045e-01        00000 
-7.17008e-02  6.89429e-01        00000 
-9.99425e-02  6.89911e-01        00000 
-1.28221e-01  6.90448e-01        00000 
-1.56671e-01  6.90996e-01        00000 
-1.85472e-01  6.91546e-01        00000 
-2.14804e-01  6.92102e-01        00000 
-2.44848e-01  6.92666e-01        00000 
-2.75807e-01  6.93237e-01        00000 
 2.76278e-01  7.56113e-01        00000 
 2.45465e-01  7.55855e-01        00000 
 2.15494e-01  7.55609e-01        00000 
 1.86196e-01  7.55419e-01        00000 
 1.57423e-01  7.55273e-01        00000 
 1.28992e-01  7.55124e-01        00000 
 1.00654e-01  7.54905e-01        00000 
 7.20876e-02  7.54579e-01        00000 
 4.31703e-02  7.54293e-01        00000 
 1.38998e-02  7.54059e-01        00000 
-1.55774e-02  7.54066e-01        00000 
-4.48567e-02  7.54313e-01        00000 
-7.37919e-02  7.54613e-01        00000 
-1.02385e-01  7.54952e-01        00000 
-1.30759e-01  7.55182e-01        00000 
-1.59235e-01  7.55343e-01        00000 
-1.88060e-01  7.55499e-01        00000 
-2.17411e-01  7.55697e-01        00000 
-2.47425e-01  7.55947e-01        00000 
-2.78254e-01  7.56208e-01        00000 
 2.77002e-01  8.18143e-01        00000 
 2.46590e-01  8.18127e-01        00000 
 2.16710e-01  8.18222e-01        00000 
 1.87419e-01  8.18514e-01        00000 
 1.58689e-01  8.19038e-01        00000 
 1.30411e-01  8.19788e-01        00000 
 1.02380e-01  8.20672e-01        00000 
 7.42115e-02  8.21441e-01        00000 
 4.49387e-02  8.21562e-01        00000 
 1.45002e-02  8.21846e-01        00000 
-1.61943e-02  8.21857e-01        00000 
-4.66416e-02  8.21594e-01        00000 
-7.59322e-02  8.21494e-01        00000 
-1.04128e-01  8.20744e-01        00000 
-1.32196e-01  8.19879e-01        00000 
-1.60517e-01  8.19146e-01        00000 
-1.89296e-01  8.18635e-01        00000 
-2.18636e-01  8.18354e-01        00000 
-2.48555e-01  8.18264e-01        00000 
-2.78990e-01  8.18280e-01        00000 
 2.77023e-01  8.78763e-01        00000 
 2.46836e-01  8.78741e-01        00000 
 2.16932e-01  8.78745e-01        00000 
 1.87496e-01  8.78990e-01        00000 
 1.58551e-01  8.79727e-01        00000 
 1.30021e-01  8.81262e-01        00000 
 1.01723e-01  8.84008e-01        00000 
 7.32882e-02  8.88579e-01        00000 
 4.41500e-02  8.95867e-01        00000 
 1.42341e-02  8.99214e-01        00000 
-1.59471e-02  8.99231e-01        00000 
-4.58718e-02  8.95916e-01        00000 
-7.50278e-02  8.88663e-01        00000 
-1.03489e-01  8.84124e-01        00000 
-1.31821e-01  8.81407e-01        00000 
-1.60393e-01  8.79895e-01        00000 
-1.89383e-01  8.79173e-01        00000 
-2.18861e-01  8.78935e-01        00000 
-2.48799e-01  8.78931e-01        00000 
-2.79012e-01  8.78953e-01        00000 
 1.46308e-02  9.06998e-03        00000 
 1.15392e-02  7.18509e-03        00000 
 9.46149e-03  5.85730e-03        00000 
 7.76600e-03  4.93517e-03        00000 
 6.27399e-03  4.28442e-03        00000 
 4.90477e-03  3.82354e-03        00000 
 3.61364e-03  3.50298e-03        00000 
 2.37237e-03  3.29228e-03        00000 
 1.16091e-03  3.17314e-03        00000 
-3.67008e-05  3.13580e-03        00000 
-1.23479e-03  3.17734e-03        00000 
-2.44771e-03  3.30109e-03        00000 
-3.69167e-03  3.51730e-03        00000 
-4.98715e-03  3.84498e-03        00000 
-6.36338e-03  4.31574e-03        00000 
-7.86710e-03  4.98096e-03        00000 
-9.58327e-03  5.92481e-03        00000 
-1.16979e-02  7.28446e-03        00000 
-1.48424e-02  9.21742e-03        00000 
 4.42422e-02  2.87244e-02        00000 
 3.60371e-02  2.43902e-02        00000 
 2.96657e-02  2.12261e-02        00000 
 2.43217e-02  1.88724e-02        00000 
 1.96041e-02  1.71237e-02        00000 
 1.52907e-02  1.58396e-02        00000 
 1.12442e-02  1.49237e-02        00000 
 7.37181e-03  1.43115e-02        00000 
 3.60464e-03  1.39618e-02        00000 
-1.13444e-04  1.38519e-02        00000 
-3.83319e-03  1.39746e-02        00000 
-7.60555e-03  1.43380e-02        00000 
-1.14874e-02  1.49660e-02        00000 
-1.55488e-02  1.59009e-02        00000 
-1.98853e-02  1.72094e-02        00000 
-2.46377e-02  1.89899e-02        00000 
-3.00317e-02  2.13847e-02        00000 
-3.64625e-02  2.45967e-02        00000 
-4.46984e-02  2.89677e-02        00000 
 6.96239e-02  4.92381e-02        00000 
 5.92699e-02  4.53623e-02        00000 
 4.97726e-02  4.19092e-02        00000 
 4.11966e-02  3.90505e-02        00000 
 3.33592e-02  3.67667e-02        00000 
 2.60760e-02  3.50016e-02        00000 
 1.91939e-02  3.36966e-02        00000 
 1.25886e-02  3.28025e-02        00000 
 6.15648e-03  3.22840e-02        00000 
-1.93383e-04  3.21200e-02        00000 
-6.54602e-03  3.23037e-02        00000 
-1.29867e-02  3.28427e-02        00000 
-1.96070e-02  3.37590e-02        00000 
-2.65119e-02  3.50889e-02        00000 
-3.38273e-02  3.68821e-02        00000 
-4.17070e-02  3.91972e-02        00000 
-5.03324e-02  4.20887e-02        00000 
-5.98725e-02  4.55718e-02        00000 
-7.02443e-02  4.94754e-02        00000 
 9.31699e-02  7.38689e-02        00000 
 8.04794e-02  7.02641e-02        00000 
 6.85254e-02  6.70515e-02        00000 
 5.72779e-02  6.42548e-02        00000 
 4.66860e-02  6.19112e-02        00000 
 3.66487e-02  6.00267e-02        00000 
 2.70490e-02  5.85900e-02        00000 
 1.77694e-02  5.75837e-02        00000 
 8.69769e-03  5.69918e-02        00000 
-2.73230e-04  5.68034e-02        00000 
-9.24758e-03  5.70149e-02        00000 
-1.83297e-02  5.76304e-02        00000 
-2.76271e-02  5.86612e-02        00000 
-3.72525e-02  6.01235e-02        00000 
-4.73236e-02  6.20346e-02        00000 
-5.79566e-02  6.44052e-02        00000 
-6.92478e-02  6.72285e-02        00000 
-8.12384e-02  7.04669e-02        00000 
-9.39432e-02  7.40977e-02        00000 
 1.15143e-01  1.03156e-01        00000 
 1.00140e-01  9.98063e-02        00000 
 8.58426e-02  9.68261e-02        00000 
 7.22005e-02  9.42233e-02        00000 
 5.91496e-02  9.20090e-02        00000 
 4.66135e-02  9.01955e-02        00000 
 3.44998e-02  8.87889e-02        00000 
 2.27061e-02  8.77901e-02        00000 
 1.11256e-02  8.71970e-02        00000 
-3.49963e-04  8.70075e-02        00000 
-1.18292e-02  8.72208e-02        00000 
-2.34206e-02  8.78378e-02        00000 
-3.52327e-02  8.88609e-02        00000 
-4.73722e-02  9.02919e-02        00000 
-5.99413e-02  9.21299e-02        00000 
-7.30311e-02  9.43684e-02        00000 
-8.67143e-02  9.69952e-02        00000 
-1.01046e-01  9.99993e-02        00000 
-1.16062e-01  1.03374e-01        00000 
 1.35584e-01  1.37050e-01        00000 
 1.18357e-01  1.33948e-01        00000 