<?xml version="1.0" encoding="utf-8"?>
<VTKFile byte_order="LittleEndian" type="UnstructuredGrid" version="0.1">
   <UnstructuredGrid>
      <Piece NumberOfCells="1444" NumberOfPoints="761">
         <Points>
            <DataArray Name="Points" NumberOfComponents="3" format="ascii" type="Float32">
0.0000 1.0000 0.0000
0.0000 1.0526 0.0000
0.0000 1.1053 0.0000
0.0000 1.1579 0.0000
0.0000 1.2105 0.0000
0.0000 1.2632 0.0000
0.0000 1.3158 0.0000
0.0000 1.3684 0.0000
0.0000 1.4211 0.0000
0.0000 1.4737 0.0000
0.0000 1.5263 0.0000
0.0000 1.5789 0.0000
0.0000 1.6316 0.0000
0.0000 1.6842 0.0000
0.0000 1.7368 0.0000
0.0000 1.7895 0.0000
0.0000 1.8421 0.0000
0.0000 1.8947 0.0000
0.0000 1.9474 0.0000
0.0000 2.0000 0.0000
0.1053 1.0000 0.0000
0.1053 1.0526 0.0000
0.1053 1.1053 0.0000
0.1053 1.1579 0.0000
0.1053 1.2105 0.0000
0.1053 1.2632 0.0000
0.1053 1.3158 0.0000
0.1053 1.3684 0.0000
0.1053 1.4211 0.0000
0.1053 1.4737 0.0000
0.1053 1.5263 0.0000
0.1053 1.5789 0.0000
0.1053 1.6316 0.0000
0.1053 1.6842 0.0000
0.1053 1.7368 0.0000
0.1053 1.7895 0.0000
0.1053 1.8421 0.0000
0.1053 1.8947 0.0000
0.1053 1.9474 0.0000
0.1053 2.0000 0.0000
0.2105 1.0000 0.0000
0.2105 1.0526 0.0000
0.2105 1.1053 0.0000
0.2105 1.1579 0.0000
0.2105 1.2105 0.0000
0.2105 1.2632 0.0000
0.2105 1.3158 0.0000
0.2105 1.3684 0.0000
0.2105 1.4211 0.0000
0.2105 1.4737 0.0000
0.2105 1.5263 0.0000
0.2105 1.5789 0.0000
0.2105 1.6316 0.0000
0.2105 1.6842 0.0000
0.2105 1.7368 0.0000
0.2105 1.7895 0.0000
0.2105 1.8421 0.0000
0.2105 1.8947 0.0000
0.2105 1.9474 0.0000
0.2105 2.0000 0.0000
0.3158 1.0000 0.0000
0.3158 1.0526 0.0000
0.3158 1.1053 0.0000
0.3158 1.1579 0.0000
0.3158 1.2105 0.0000
0.3158 1.2632 0.0000
0.3158 1.3158 0.0000
0.3158 1.3684 0.0000
0.3158 1.4211 0.0000
0.3158 1.4737 0.0000
0.3158 1.5263 0.0000
0.3158 1.5789 0.0000
0.3158 1.6316 0.0000
0.3158 1.6842 0.0000
0.3158 1.7368 0.0000
0.3158 1.7895 0.0000
0.3158 1.8421 0.0000
0.3158 1.8947 0.0000
0.3158 1.9474 0.0000
0.3158 2.0000 0.0000
0.4211 1.0000 0.0000
0.4211 1.0526 0.0000
0.4211 1.1053 0.0000
0.4211 1.1579 0.0000
0.4211 1.2105 0.0000
0.4211 1.2632 0.0000
0.4211 1.3158 0.0000
0.4211 1.3684 0.0000
0.4211 1.4211 0.0000
0.4211 1.4737 0.0000
0.4211 1.5263 0.0000
0.4211 1.5789 0.0000
0.4211 1.6316 0.0000
0.4211 1.6842 0.0000
0.4211 1.7368 0.0000
0.4211 1.7895 0.0000
0.4211 1.8421 0.0000
0.4211 1.8947 0.0000
0.4211 1.9474 0.0000
0.4211 2.0000 0.0000
0.5263 1.0000 0.0000
0.5263 1.0526 0.0000
0.5263 1.1053 0.0000
0.5263 1.1579 0.0000
0.5263 1.2105 0.0000
0.5263 1.2632 0.0000
0.5263 1.3158 0.0000
0.5263 1.3684 0.0000
0.5263 1.4211 0.0000
0.5263 1.4737 0.0000
0.5263 1.5263 0.0000
0.5263 1.5789 0.0000
0.5263 1.6316 0.0000
0.5263 1.6842 0.0000
0.5263 1.7368 0.0000
0.5263 1.7895 0.0000
0.5263 1.8421 0.0000
0.5263 1.8947 0.0000
0.5263 1.9474 0.0000
0.5263 2.0000 0.0000
0.6316 1.0000 0.0000
0.6316 1.0526 0.0000
0.6316 1.1053 0.0000
0.6316 1.1579 0.0000
0.6316 1.2105 0.0000
0.6316 1.2632 0.0000
0.6316 1.3158 0.0000
0.6316 1.3684 0.0000
0.6316 1.4211 0.0000
0.6316 1.4737 0.0000
0.6316 1.5263 0.0000
0.6316 1.5789 0.0000
0.6316 1.6316 0.0000
0.6316 1.6842 0.0000
0.6316 1.7368 0.0000
0.6316 1.7895 0.0000
0.6316 1.8421 0.0000
0.6316 1.8947 0.0000
0.6316 1.9474 0.0000
0.6316 2.0000 0.0000
0.7368 1.0000 0.0000
0.7368 1.0526 0.0000
0.7368 1.1053 0.0000
0.7368 1.1579 0.0000
0.7368 1.2105 0.0000
0.7368 1.2632 0.0000
0.7368 1.3158 0.0000
0.7368 1.3684 0.0000
0.7368 1.4211 0.0000
0.7368 1.4737 0.0000
0.7368 1.5263 0.0000
0.7368 1.5789 0.0000
0.7368 1.6316 0.0000
0.7368 1.6842 0.0000
0.7368 1.7368 0.0000
0.7368 1.7895 0.0000
0.7368 1.8421 0.0000
0.7368 1.8947 0.0000
0.7368 1.9474 0.0000
0.7368 2.0000 0.0000
0.8421 1.0000 0.0000
0.8421 1.0526 0.0000
0.8421 1.1053 0.0000
0.8421 1.1579 0.0000
0.8421 1.2105 0.0000
0.8421 1.2632 0.0000
0.8421 1.3158 0.0000
0.8421 1.3684 0.0000
0.8421 1.4211 0.0000
0.8421 1.4737 0.0000
0.8421 1.5263 0.0000
0.8421 1.5789 0.0000
0.8421 1.6316 0.0000
0.8421 1.6842 0.0000
0.8421 1.7368 0.0000
0.8421 1.7895 0.0000
0.8421 1.8421 0.0000
0.8421 1.8947 0.0000
0.8421 1.9474 0.0000
0.8421 2.0000 0.0000
0.9474 1.0000 0.0000
0.9474 1.0526 0.0000
0.9474 1.1053 0.0000
0.9474 1.1579 0.0000
0.9474 1.2105 0.0000
0.9474 1.2632 0.0000
0.9474 1.3158 0.0000
0.9474 1.3684 0.0000
0.9474 1.4211 0.0000
0.9474 1.4737 0.0000
0.9474 1.5263 0.0000
0.9474 1.5789 0.0000
0.9474 1.6316 0.0000
0.9474 1.6842 0.0000
0.9474 1.7368 0.0000
0.9474 1.7895 0.0000
0.9474 1.8421 0.0000
0.9474 1.8947 0.0000
0.9474 1.9474 0.0000
0.9474 2.0000 0.0000
1.0526 1.0000 0.0000
1.0526 1.0526 0.0000
1.0526 1.1053 0.0000
1.0526 1.1579 0.0000
1.0526 1.2105 0.0000
1.0526 1.2632 0.0000
1.0526 1.3158 0.0000
1.0526 1.3684 0.0000
1.0526 1.4211 0.0000
1.0526 1.4737 0.0000
1.0526 1.5263 0.0000
1.0526 1.5789 0.0000
1.0526 1.6316 0.0000
1.0526 1.6842 0.0000
1.0526 1.7368 0.0000
1.0526 1.7895 0.0000
1.0526 1.8421 0.0000
1.0526 1.8947 0.0000
1.0526 1.9474 0.0000
1.0526 2.0000 0.0000
1.1579 1.0000 0.0000
1.1579 1.0526 0.0000
1.1579 1.1053 0.0000
1.1579 1.1579 0.0000
1.1579 1.2105 0.0000
1.1579 1.2632 0.0000
1.1579 1.3158 0.0000
1.1579 1.3684 0.0000
1.1579 1.4211 0.0000
1.1579 1.4737 0.0000
1.1579 1.5263 0.0000
1.1579 1.5789 0.0000
1.1579 1.6316 0.0000
1.1579 1.6842 0.0000
1.1579 1.7368 0.0000
1.1579 1.7895 0.0000
1.1579 1.8421 0.0000
1.1579 1.8947 0.0000
1.1579 1.9474 0.0000
1.1579 2.0000 0.0000
1.2632 1.0000 0.0000
1.2632 1.0526 0.0000
1.2632 1.1053 0.0000
1.2632 1.1579 0.0000
1.2632 1.2105 0.0000
1.2632 1.2632 0.0000
1.2632 1.3158 0.0000
1.2632 1.3684 0.0000
1.2632 1.4211 0.0000
1.2632 1.4737 0.0000
1.2632 1.5263 0.0000
1.2632 1.5789 0.0000
1.2632 1.6316 0.0000
1.2632 1.6842 0.0000
1.2632 1.7368 0.0000
1.2632 1.7895 0.0000
1.2632 1.8421 0.0000
1.2632 1.8947 0.0000
1.2632 1.9474 0.0000
1.2632 2.0000 0.0000
1.3684 1.0000 0.0000
1.3684 1.0526 0.0000
1.3684 1.1053 0.0000
1.3684 1.1579 0.0000
1.3684 1.2105 0.0000
1.3684 1.2632 0.0000
1.3684 1.3158 0.0000
1.3684 1.3684 0.0000
1.3684 1.4211 0.0000
1.3684 1.4737 0.0000
1.3684 1.5263 0.0000
1.3684 1.5789 0.0000
1.3684 1.6316 0.0000
1.3684 1.6842 0.0000
1.3684 1.7368 0.0000
1.3684 1.7895 0.0000
1.3684 1.8421 0.0000
1.3684 1.8947 0.0000
1.3684 1.9474 0.0000
1.3684 2.0000 0.0000
1.4737 1.0000 0.0000
1.4737 1.0526 0.0000
1.4737 1.1053 0.0000
1.4737 1.1579 0.0000
1.4737 1.2105 0.0000
1.4737 1.2632 0.0000
1.4737 1.3158 0.0000
1.4737 1.3684 0.0000
1.4737 1.4211 0.0000
1.4737 1.4737 0.0000
1.4737 1.5263 0.0000
1.4737 1.5789 0.0000
1.4737 1.6316 0.0000
1.4737 1.6842 0.0000
1.4737 1.7368 0.0000
1.4737 1.7895 0.0000
1.4737 1.8421 0.0000
1.4737 1.8947 0.0000
1.4737 1.9474 0.0000
1.4737 2.0000 0.0000
1.5789 1.0000 0.0000
1.5789 1.0526 0.0000
1.5789 1.1053 0.0000
1.5789 1.1579 0.0000
1.5789 1.2105 0.0000
1.5789 1.2632 0.0000
1.5789 1.3158 0.0000
1.5789 1.3684 0.0000
1.5789 1.4211 0.0000
1.5789 1.4737 0.0000
1.5789 1.5263 0.0000
1.5789 1.5789 0.0000
1.5789 1.6316 0.0000
1.5789 1.6842 0.0000
1.5789 1.7368 0.0000
1.5789 1.7895 0.0000
1.5789 1.8421 0.0000
1.5789 1.8947 0.0000
1.5789 1.9474 0.0000
1.5789 2.0000 0.0000
1.6842 1.0000 0.0000
1.6842 1.0526 0.0000
1.6842 1.1053 0.0000
1.6842 1.1579 0.0000
1.6842 1.2105 0.0000
1.6842 1.2632 0.0000
1.6842 1.3158 0.0000
1.6842 1.3684 0.0000
1.6842 1.4211 0.0000
1.6842 1.4737 0.0000
1.6842 1.5263 0.0000
1.6842 1.5789 0.0000
1.6842 1.6316 0.0000
1.6842 1.6842 0.0000
1.6842 1.7368 0.0000
1.6842 1.7895 0.0000
1.6842 1.8421 0.0000
1.6842 1.8947 0.0000
1.6842 1.9474 0.0000
1.6842 2.0000 0.0000
1.7895 1.0000 0.0000
1.7895 1.0526 0.0000
1.7895 1.1053 0.0000
1.7895 1.1579 0.0000
1.7895 1.2105 0.0000
1.7895 1.2632 0.0000
1.7895 1.3158 0.0000
1.7895 1.3684 0.0000
1.7895 1.4211 0.0000
1.7895 1.4737 0.0000
1.7895 1.5263 0.0000
1.7895 1.5789 0.0000
1.7895 1.6316 0.0000
1.7895 1.6842 0.0000
1.7895 1.7368 0.0000
1.7895 1.7895 0.0000
1.7895 1.8421 0.0000
1.7895 1.8947 0.0000
1.7895 1.9474 0.0000
1.7895 2.0000 0.0000
1.8947 1.0000 0.0000
1.8947 1.0526 0.0000
1.8947 1.1053 0.0000
1.8947 1.1579 0.0000
1.8947 1.2105 0.0000
1.8947 1.2632 0.0000
1.8947 1.3158 0.0000
1.8947 1.3684 0.0000
1.8947 1.4211 0.0000
1.8947 1.4737 0.0000
1.8947 1.5263 0.0000
1.8947 1.5789 0.0000
1.8947 1.6316 0.0000
1.8947 1.6842 0.0000
1.8947 1.7368 0.0000
1.8947 1.7895 0.0000
1.8947 1.8421 0.0000
1.8947 1.8947 0.0000
1.8947 1.9474 0.0000
1.8947 2.0000 0.0000
2.0000 1.0000 0.0000
2.0000 1.0526 0.0000
2.0000 1.1053 0.0000
2.0000 1.1579 0.0000
2.0000 1.2105 0.0000
2.0000 1.2632 0.0000
2.0000 1.3158 0.0000
2.0000 1.3684 0.0000
2.0000 1.4211 0.0000
2.0000 1.4737 0.0000
2.0000 1.5263 0.0000
2.0000 1.5789 0.0000
2.0000 1.6316 0.0000
2.0000 1.6842 0.0000
2.0000 1.7368 0.0000
2.0000 1.7895 0.0000
2.0000 1.8421 0.0000
2.0000 1.8947 0.0000
2.0000 1.9474 0.0000
2.0000 2.0000 0.0000
0.0526 1.0263 0.0000
0.0526 1.0789 0.0000
0.0526 1.1316 0.0000
0.0526 1.1842 0.0000
0.0526 1.2368 0.0000
0.0526 1.2895 0.0000
0.0526 1.3421 0.0000
0.0526 1.3947 0.0000
0.0526 1.4474 0.0000
0.0526 1.5000 0.0000
0.0526 1.5526 0.0000
0.0526 1.6053 0.0000
0.0526 1.6579 0.0000
0.0526 1.7105 0.0000
0.0526 1.7632 0.0000
0.0526 1.8158 0.0000
0.0526 1.8684 0.0000
0.0526 1.9211 0.0000
0.0526 1.9737 0.0000
0.1579 1.0263 0.0000
0.1579 1.0789 0.0000
0.1579 1.1316 0.0000
0.1579 1.1842 0.0000
0.1579 1.2368 0.0000
0.1579 1.2895 0.0000
0.1579 1.3421 0.0000
0.1579 1.3947 0.0000
0.1579 1.4474 0.0000
0.1579 1.5000 0.0000
0.1579 1.5526 0.0000
0.1579 1.6053 0.0000
0.1579 1.6579 0.0000
0.1579 1.7105 0.0000
0.1579 1.7632 0.0000
0.1579 1.8158 0.0000
0.1579 1.8684 0.0000
0.1579 1.9211 0.0000
0.1579 1.9737 0.0000
0.2632 1.0263 0.0000
0.2632 1.0789 0.0000
0.2632 1.1316 0.0000
0.2632 1.1842 0.0000
0.2632 1.2368 0.0000
0.2632 1.2895 0.0000
0.2632 1.3421 0.0000
0.2632 1.3947 0.0000
0.2632 1.4474 0.0000
0.2632 1.5000 0.0000
0.2632 1.5526 0.0000
0.2632 1.6053 0.0000
0.2632 1.6579 0.0000
0.2632 1.7105 0.0000
0.2632 1.7632 0.0000
0.2632 1.8158 0.0000
0.2632 1.8684 0.0000
0.2632 1.9211 0.0000
0.2632 1.9737 0.0000
0.3684 1.0263 0.0000
0.3684 1.0789 0.0000
0.3684 1.1316 0.0000
0.3684 1.1842 0.0000
[...]
         <PointData>
            <DataArray Name="displacement" NumberOfComponents="3" format="ascii" type="Float64">
-7.31711e-16  1.15100e-16        00000 
 9.89217e-16  1.85478e-16        00000 
-6.10296e-17        00000        00000 
 2.12785e-16  1.29396e-16        00000 
-3.05148e-16  1.37317e-16        00000 
-1.10223e-16 -8.98675e-17        00000 
 9.15444e-17        00000        00000 
-5.36754e-17  1.15977e-16        00000 
-1.90717e-17 -3.05148e-17        00000 
       00000  3.07825e-17        00000 
 4.38650e-17 -9.15444e-17        00000 
-1.25562e-16  8.43471e-17        00000 
 1.67831e-16  1.52574e-17        00000 
-3.00233e-16  2.56173e-16        00000 
-1.52574e-17  4.57722e-17        00000 
 1.18853e-16 -1.24604e-17        00000 
 3.05148e-17  9.15444e-17        00000 
-6.15694e-16  3.07847e-16        00000 
 6.77084e-16 -2.15436e-16        00000 
-6.53678e-16  5.38589e-17        00000 
-5.64891e+00 -3.61049e+00        00000 
-4.28028e+00 -2.75619e+00        00000 
-3.47609e+00 -2.20497e+00        00000 
-2.86071e+00 -1.83666e+00        00000 
-2.33629e+00 -1.58220e+00        00000 
-1.86376e+00 -1.40343e+00        00000 
-1.42352e+00 -1.27822e+00        00000 
-1.00405e+00 -1.19324e+00        00000 
-5.97630e-01 -1.14039e+00        00000 
-1.98436e-01 -1.11503e+00        00000 
 1.98436e-01 -1.11503e+00        00000 
 5.97630e-01 -1.14039e+00        00000 
 1.00405e+00 -1.19324e+00        00000 
 1.42352e+00 -1.27822e+00        00000 
 1.86376e+00 -1.40343e+00        00000 
 2.33629e+00 -1.58220e+00        00000 
 2.86071e+00 -1.83666e+00        00000 
 3.47609e+00 -2.20497e+00        00000 
 4.28028e+00 -2.75619e+00        00000 
 5.64891e+00 -3.61049e+00        00000 
-1.01859e+01 -6.66932e+00        00000 
-8.57704e+00 -5.98146e+00        00000 
-7.14369e+00 -5.34298e+00        00000 
-5.92124e+00 -4.82324e+00        00000 
-4.84309e+00 -4.41840e+00        00000 
-3.86207e+00 -4.11094e+00        00000 
-2.94710e+00 -3.88404e+00        00000 
-2.07677e+00 -3.72452e+00        00000 
-1.23528e+00 -3.62304e+00        00000 
-4.10013e-01 -3.57373e+00        00000 
 4.10013e-01 -3.57373e+00        00000 
 1.23528e+00 -3.62304e+00        00000 
 2.07677e+00 -3.72452e+00        00000 
 2.94710e+00 -3.88404e+00        00000 
 3.86207e+00 -4.11094e+00        00000 
 4.84309e+00 -4.41840e+00        00000 
 5.92124e+00 -4.82324e+00        00000 
 7.14369e+00 -5.34298e+00        00000 
 8.57704e+00 -5.98146e+00        00000 
 1.01859e+01 -6.66932e+00        00000 
-1.44499e+01 -1.04005e+01        00000 
-1.24671e+01 -9.73848e+00        00000 
-1.06258e+01 -9.14792e+00        00000 
-8.92285e+00 -8.62923e+00        00000 
-7.35075e+00 -8.19347e+00        00000 
-5.88510e+00 -7.84187e+00        00000 
-4.50071e+00 -7.57021e+00        00000 
-3.17535e+00 -7.37275e+00        00000 
-1.88988e+00 -7.24429e+00        00000 
-6.27449e-01 -7.18104e+00        00000 
 6.27449e-01 -7.18104e+00        00000 
 1.88988e+00 -7.24429e+00        00000 
 3.17535e+00 -7.37275e+00        00000 
 4.50071e+00 -7.57021e+00        00000 
 5.88510e+00 -7.84187e+00        00000 
 7.35075e+00 -8.19347e+00        00000 
 8.92285e+00 -8.62923e+00        00000 
 1.06258e+01 -9.14792e+00        00000 
 1.24671e+01 -9.73848e+00        00000 
 1.44499e+01 -1.04005e+01        00000 
-1.84876e+01 -1.48944e+01        00000 
-1.61098e+01 -1.42740e+01        00000 
-1.38650e+01 -1.37180e+01        00000 
-1.17458e+01 -1.32293e+01        00000 
-9.74063e+00 -1.28095e+01        00000 
-7.83500e+00 -1.24611e+01        00000 
-6.01102e+00 -1.21848e+01        00000 
-4.24974e+00 -1.19795e+01        00000 
-2.53249e+00 -1.18439e+01        00000 
-8.41290e-01 -1.17765e+01        00000 
 8.41290e-01 -1.17765e+01        00000 
 2.53249e+00 -1.18439e+01        00000 
 4.24974e+00 -1.19795e+01        00000 
 6.01102e+00 -1.21848e+01        00000 
 7.83500e+00 -1.24611e+01        00000 
 9.74063e+00 -1.28095e+01        00000 
 1.17458e+01 -1.32293e+01        00000 
 1.38650e+01 -1.37180e+01        00000 
 1.61098e+01 -1.42740e+01        00000 
 1.84876e+01 -1.48944e+01        00000 
-2.22873e+01 -2.01811e+01        00000 
-1.95215e+01 -1.95996e+01        00000 
-1.68890e+01 -1.90807e+01        00000 
-1.43780e+01 -1.86243e+01        00000 
-1.19754e+01 -1.82312e+01        00000 
-9.66687e+00 -1.79026e+01        00000 
-7.43663e+00 -1.76393e+01        00000 
-5.26784e+00 -1.74419e+01        00000 
-3.14309e+00 -1.73104e+01        00000 
-1.04476e+00 -1.72447e+01        00000 
 1.04476e+00 -1.72447e+01        00000 
 3.14309e+00 -1.73104e+01        00000 
 5.26784e+00 -1.74419e+01        00000 
 7.43663e+00 -1.76393e+01        00000 
 9.66687e+00 -1.79026e+01        00000 
 1.19754e+01 -1.82312e+01        00000 
 1.43780e+01 -1.86243e+01        00000 
 1.68890e+01 -1.90807e+01        00000 
 1.95215e+01 -1.95996e+01        00000 
 2.22873e+01 -2.01811e+01        00000 
-2.58391e+01 -2.62310e+01        00000 
-2.27038e+01 -2.56898e+01        00000 
-1.97035e+01 -2.52078e+01        00000 
-1.68240e+01 -2.47845e+01        00000 
-1.40508e+01 -2.44202e+01        00000 
-1.13689e+01 -2.41155e+01        00000 
-8.76281e+00 -2.38710e+01        00000 
-6.21624e+00 -2.36871e+01        00000 
-3.71253e+00 -2.35643e+01        00000 
-1.23464e+00 -2.35028e+01        00000 
 1.23464e+00 -2.35028e+01        00000 
 3.71253e+00 -2.35643e+01        00000 
 6.21624e+00 -2.36871e+01        00000 
 8.76281e+00 -2.38710e+01        00000 
 1.13689e+01 -2.41155e+01        00000 
 1.40508e+01 -2.44202e+01        00000 
 1.68240e+01 -2.47845e+01        00000 
 1.97035e+01 -2.52078e+01        00000 
 2.27038e+01 -2.56898e+01        00000 
 2.58391e+01 -2.62310e+01        00000 
-2.91355e+01 -3.29995e+01        00000 
-2.56546e+01 -3.24994e+01        00000 
-2.23100e+01 -3.20543e+01        00000 
-1.90864e+01 -3.16641e+01        00000 
-1.59685e+01 -3.13287e+01        00000 
-1.29406e+01 -3.10484e+01        00000 
-9.98711e+00 -3.08236e+01        00000 
-7.09179e+00 -3.06546e+01        00000 
-4.23829e+00 -3.05417e+01        00000 
-1.40996e+00 -3.04852e+01        00000 
 1.40996e+00 -3.04852e+01        00000 
 4.23829e+00 -3.05417e+01        00000 
 7.09179e+00 -3.06546e+01        00000 
 9.98711e+00 -3.08236e+01        00000 
 1.29406e+01 -3.10484e+01        00000 
 1.59685e+01 -3.13287e+01        00000 
 1.90864e+01 -3.16641e+01        00000 
 2.23100e+01 -3.20543e+01        00000 
 2.56546e+01 -3.24994e+01        00000 
 2.91355e+01 -3.29995e+01        00000 
-3.21720e+01 -4.04351e+01        00000 
-2.83717e+01 -3.99762e+01        00000 
-2.47086e+01 -3.95682e+01        00000 
-2.11668e+01 -3.92108e+01        00000 
-1.77305e+01 -3.89040e+01        00000 
-1.43837e+01 -3.86478e+01        00000 
-1.11106e+01 -3.84424e+01        00000 
-7.89499e+00 -3.82882e+01        00000 
-4.72050e+00 -3.81852e+01        00000 
-1.57075e+00 -3.81336e+01        00000 
 1.57075e+00 -3.81336e+01        00000 
 4.72050e+00 -3.81852e+01        00000 
 7.89499e+00 -3.82882e+01        00000 
 1.11106e+01 -3.84424e+01        00000 
 1.43837e+01 -3.86478e+01        00000 
 1.77305e+01 -3.89040e+01        00000 
 2.11668e+01 -3.92108e+01        00000 
 2.47086e+01 -3.95682e+01        00000 
 2.83717e+01 -3.99762e+01        00000 
 3.21720e+01 -4.04351e+01        00000 
-3.49462e+01 -4.84832e+01        00000 
-3.08537e+01 -4.80660e+01        00000 
-2.68989e+01 -4.76950e+01        00000 
-2.30657e+01 -4.73702e+01        00000 
-1.93381e+01 -4.70914e+01        00000 
-1.56999e+01 -4.68588e+01        00000 
-1.21350e+01 -4.66724e+01        00000 
-8.62709e+00 -4.65324e+01        00000 
-5.15994e+00 -4.64389e+01        00000 
-1.71726e+00 -4.63921e+01        00000 
 1.71726e+00 -4.63921e+01        00000 
 5.15994e+00 -4.64389e+01        00000 
 8.62709e+00 -4.65324e+01        00000 
 1.21350e+01 -4.66724e+01        00000 
 1.56999e+01 -4.68588e+01        00000 
 1.93381e+01 -4.70914e+01        00000 
 2.30657e+01 -4.73702e+01        00000 
 2.68989e+01 -4.76950e+01        00000 
 3.08537e+01 -4.80660e+01        00000 
 3.49462e+01 -4.84832e+01        00000 
-3.74568e+01 -5.70890e+01        00000 
-3.30995e+01 -5.67134e+01        00000 
-2.88805e+01 -5.63795e+01        00000 
-2.47836e+01 -5.60871e+01        00000 
-2.07924e+01 -5.58360e+01        00000 
-1.68906e+01 -5.56262e+01        00000 
-1.30617e+01 -5.54580e+01        00000 
-9.28939e+00 -5.53316e+01        00000 
-5.55751e+00 -5.52471e+01        00000 
-1.84982e+00 -5.52048e+01        00000 
 1.84982e+00 -5.52048e+01        00000 
 5.55751e+00 -5.52471e+01        00000 
 9.28939e+00 -5.53316e+01        00000 
 1.30617e+01 -5.54580e+01        00000 
 1.68906e+01 -5.56262e+01        00000 
 2.07924e+01 -5.58360e+01        00000 
 2.47836e+01 -5.60871e+01        00000 
 2.88805e+01 -5.63795e+01        00000 
 3.30995e+01 -5.67134e+01        00000 
 3.74568e+01 -5.70890e+01        00000 
-3.97026e+01 -6.61974e+01        00000 
-3.51083e+01 -6.58637e+01        00000 
-3.06532e+01 -6.55669e+01        00000 
-2.63209e+01 -6.53065e+01        00000 
-2.20945e+01 -6.50823e+01        00000 
-1.79572e+01 -6.48946e+01        00000 
-1.38924e+01 -6.47435e+01        00000 
-9.88349e+00 -6.46296e+01        00000 
-5.91429e+00 -6.45534e+01        00000 
-1.96880e+00 -6.45152e+01        00000 
 1.96880e+00 -6.45152e+01        00000 
 5.91429e+00 -6.45534e+01        00000 
 9.88349e+00 -6.46296e+01        00000 
 1.38924e+01 -6.47435e+01        00000 
 1.79572e+01 -6.48946e+01        00000 
 2.20945e+01 -6.50823e+01        00000 
 2.63209e+01 -6.53065e+01        00000 
 3.06532e+01 -6.55669e+01        00000 
 3.51083e+01 -6.58637e+01        00000 
 3.97026e+01 -6.61974e+01        00000 
-4.16814e+01 -7.57537e+01        00000 
-3.68781e+01 -7.54624e+01        00000 
-3.22162e+01 -7.52026e+01        00000 
-2.76782e+01 -7.49737e+01        00000 
-2.32462e+01 -7.47753e+01        00000 
-1.89027e+01 -7.46079e+01        00000 
-1.46302e+01 -7.44722e+01        00000 
-1.04121e+01 -7.43693e+01        00000 
-6.23212e+00 -7.42999e+01        00000 
-2.07487e+00 -7.42651e+01        00000 
 2.07487e+00 -7.42651e+01        00000 
 6.23212e+00 -7.42999e+01        00000 
 1.04121e+01 -7.43693e+01        00000 
 1.46302e+01 -7.44722e+01        00000 
 1.89027e+01 -7.46079e+01        00000 
 2.32462e+01 -7.47753e+01        00000 
 2.76782e+01 -7.49737e+01        00000 
 3.22162e+01 -7.52026e+01        00000 
 3.68781e+01 -7.54624e+01        00000 
 4.16814e+01 -7.57537e+01        00000 
-4.33882e+01 -8.57027e+01        00000 
-3.84055e+01 -8.54547e+01        00000 
-3.35683e+01 -8.52321e+01        00000 
-2.88569e+01 -8.50337e+01        00000 
-2.42513e+01 -8.48593e+01        00000 
-1.97320e+01 -8.47097e+01        00000 
-1.52806e+01 -8.45866e+01        00000 
-1.08799e+01 -8.44919e+01        00000 
-6.51431e+00 -8.44274e+01        00000 
-2.16919e+00 -8.43948e+01        00000 
 2.16919e+00 -8.43948e+01        00000 
 6.51431e+00 -8.44274e+01        00000 
 1.08799e+01 -8.44919e+01        00000 
 1.52806e+01 -8.45866e+01        00000 
 1.97320e+01 -8.47097e+01        00000 
 2.42513e+01 -8.48593e+01        00000 
 2.88569e+01 -8.50337e+01        00000 
 3.35683e+01 -8.52321e+01        00000 
 3.84055e+01 -8.54547e+01        00000 
 4.33882e+01 -8.57027e+01        00000 
-4.48119e+01 -9.59860e+01        00000 
-3.96834e+01 -9.57832e+01        00000 
-3.47075e+01 -9.55984e+01        00000 
-2.98597e+01 -9.54297e+01        00000 
-2.51161e+01 -9.52770e+01        00000 
-2.04540e+01 -9.51422e+01        00000 
-1.58530e+01 -9.50280e+01        00000 
-1.12956e+01 -9.49379e+01        00000 
-6.76675e+00 -9.48754e+01        00000 
-2.25386e+00 -9.48434e+01        00000 
 2.25386e+00 -9.48434e+01        00000 
 6.76675e+00 -9.48754e+01        00000 
 1.12956e+01 -9.49379e+01        00000 
 1.58530e+01 -9.50280e+01        00000 
 2.04540e+01 -9.51422e+01        00000 
 2.51161e+01 -9.52770e+01        00000 
 2.98597e+01 -9.54297e+01        00000 
 3.47075e+01 -9.55984e+01        00000 
 3.96834e+01 -9.57832e+01        00000 
 4.48119e+01 -9.59860e+01        00000 
-4.59319e+01 -1.06535e+02        00000 
-4.07001e+01 -1.06380e+02        00000 
-3.56300e+01 -1.06235e+02        00000 
-3.06898e+01 -1.06097e+02        00000 
-2.58494e+01 -1.05967e+02        00000 
-2.10816e+01 -1.05846e+02        00000 
-1.63627e+01 -1.05738e+02        00000 
-1.16733e+01 -1.05649e+02        00000 
-6.99947e+00 -1.05586e+02        00000 
-2.33262e+00 -1.05552e+02        00000 
 2.33262e+00 -1.05552e+02        00000 
 6.99947e+00 -1.05586e+02        00000 
 1.16733e+01 -1.05649e+02        00000 
 1.63627e+01 -1.05738e+02        00000 
 2.10816e+01 -1.05846e+02        00000 
 2.58494e+01 -1.05967e+02        00000 
 3.06898e+01 -1.06097e+02        00000 
 3.56300e+01 -1.06235e+02        00000 
 4.07001e+01 -1.06380e+02        00000 
 4.59319e+01 -1.06535e+02        00000 
-4.67184e+01 -1.17253e+02        00000 
-4.14406e+01 -1.17152e+02        00000 
-3.63289e+01 -1.17052e+02        00000 
-3.13451e+01 -1.16953e+02        00000 
-2.64555e+01 -1.16856e+02        00000 
-2.16271e+01 -1.16760e+02        00000 
-1.68282e+01 -1.16665e+02        00000 
-1.20346e+01 -1.16581e+02        00000 
-7.22990e+00 -1.16513e+02        00000 
-2.41139e+00 -1.16477e+02        00000 
 2.41139e+00 -1.16477e+02        00000 
 7.22990e+00 -1.16513e+02        00000 
 1.20346e+01 -1.16581e+02        00000 
 1.68282e+01 -1.16665e+02        00000 
 2.16271e+01 -1.16760e+02        00000 
 2.64555e+01 -1.16856e+02        00000 
 3.13451e+01 -1.16953e+02        00000 
 3.63289e+01 -1.17052e+02        00000 
 4.14406e+01 -1.17152e+02        00000 
 4.67184e+01 -1.17253e+02        00000 
-4.71519e+01 -1.27996e+02        00000 
-4.18978e+01 -1.27950e+02        00000 
-3.67915e+01 -1.27905e+02        00000 
-3.18042e+01 -1.27871e+02        00000 
-2.69102e+01 -1.27844e+02        00000 
-2.20773e+01 -1.27817e+02        00000 
-1.72611e+01 -1.27777e+02        00000 
-1.24048e+01 -1.27719e+02        00000 
-7.48691e+00 -1.27667e+02        00000 
-2.50751e+00 -1.27625e+02        00000 
 2.50751e+00 -1.27625e+02        00000 
 7.48691e+00 -1.27667e+02        00000 
 1.24048e+01 -1.27719e+02        00000 
 1.72611e+01 -1.27777e+02        00000 
 2.20773e+01 -1.27817e+02        00000 
 2.69102e+01 -1.27844e+02        00000 
 3.18042e+01 -1.27871e+02        00000 
 3.67915e+01 -1.27905e+02        00000 
 4.18978e+01 -1.27950e+02        00000 
 4.71519e+01 -1.27996e+02        00000 
-4.72821e+01 -1.38577e+02        00000 
-4.20988e+01 -1.38574e+02        00000 
-3.70089e+01 -1.38591e+02        00000 
-3.20233e+01 -1.38642e+02        00000 
-2.71374e+01 -1.38734e+02        00000 
-2.23322e+01 -1.38866e+02        00000 
-1.75705e+01 -1.39022e+02        00000 
-1.27836e+01 -1.39156e+02        00000 
-7.80134e+00 -1.39176e+02        00000 
-2.61508e+00 -1.39224e+02        00000 
 2.61508e+00 -1.39224e+02        00000 
 7.80134e+00 -1.39176e+02        00000 
 1.27836e+01 -1.39156e+02        00000 
 1.75705e+01 -1.39022e+02        00000 
 2.23322e+01 -1.38866e+02        00000 
 2.71374e+01 -1.38734e+02        00000 
 3.20233e+01 -1.38642e+02        00000 
 3.70089e+01 -1.38591e+02        00000 
 4.20988e+01 -1.38574e+02        00000 
 4.72821e+01 -1.38577e+02        00000 
-4.72859e+01 -1.48908e+02        00000 
-4.21425e+01 -1.48904e+02        00000 
-3.70489e+01 -1.48905e+02        00000 
-3.20380e+01 -1.48948e+02        00000 
-2.71143e+01 -1.49078e+02        00000 
-2.22648e+01 -1.49349e+02        00000 
-1.74571e+01 -1.49833e+02        00000 
-1.26242e+01 -1.50635e+02        00000 
-7.66476e+00 -1.51909e+02        00000 
-2.56964e+00 -1.52493e+02        00000 
 2.56964e+00 -1.52493e+02        00000 
 7.66476e+00 -1.51909e+02        00000 
 1.26242e+01 -1.50635e+02        00000 
 1.74571e+01 -1.49833e+02        00000 
 2.22648e+01 -1.49349e+02        00000 
 2.71143e+01 -1.49078e+02        00000 
 3.20380e+01 -1.48948e+02        00000 
 3.70489e+01 -1.48905e+02        00000 
 4.21425e+01 -1.48904e+02        00000 
 4.72859e+01 -1.48908e+02        00000 
-2.36025e+00 -1.48639e+00        00000 
-1.86035e+00 -1.17843e+00        00000 
-1.53158e+00 -9.63071e-01        00000 
-1.26290e+00 -8.14374e-01        00000 
-1.02447e+00 -7.10059e-01        00000 
-8.03932e-01 -6.36550e-01        00000 
-5.94752e-01 -5.85598e-01        00000 
-3.92871e-01 -5.52142e-01        00000 
-1.95394e-01 -5.33147e-01        00000 
 4.55847e-14 -5.26986e-01        00000 
 1.95394e-01 -5.33147e-01        00000 
 3.92871e-01 -5.52142e-01        00000 
 5.94752e-01 -5.85598e-01        00000 
 8.03932e-01 -6.36550e-01        00000 
 1.02447e+00 -7.10059e-01        00000 
 1.26290e+00 -8.14374e-01        00000 
 1.53158e+00 -9.63071e-01        00000 
 1.86035e+00 -1.17843e+00        00000 
 2.36025e+00 -1.48639e+00        00000 
-7.19680e+00 -4.73589e+00        00000 
-5.85681e+00 -4.02300e+00        00000 
-4.82880e+00 -3.50527e+00        00000 
-3.96885e+00 -3.12253e+00        00000 
-3.20792e+00 -2.83963e+00        00000 
-2.50958e+00 -2.63264e+00        00000 
-1.85221e+00 -2.48532e+00        00000 
-1.22149e+00 -2.38683e+00        00000 
-6.06917e-01 -2.33027e+00        00000 
 1.43462e-13 -2.31183e+00        00000 
 6.06917e-01 -2.33027e+00        00000 
 1.22149e+00 -2.38683e+00        00000 
 1.85221e+00 -2.48532e+00        00000 
 2.50958e+00 -2.63264e+00        00000 
 3.20792e+00 -2.83963e+00        00000 
 3.96885e+00 -3.12253e+00        00000 
 4.82880e+00 -3.50527e+00        00000 
 5.85681e+00 -4.02300e+00        00000 
 7.19680e+00 -4.73589e+00        00000 
-1.14237e+01 -8.16867e+00        00000 
-9.71025e+00 -7.52133e+00        00000 
-8.15354e+00 -6.94888e+00        00000 
-6.75507e+00 -6.47809e+00        00000 
-5.47894e+00 -6.10389e+00        00000 
-4.29235e+00 -5.81566e+00        00000 
-3.16956e+00 -5.60288e+00        00000 
-2.09046e+00 -5.45700e+00        00000 
-1.03866e+00 -5.37190e+00        00000 
 2.50331e-13 -5.34393e+00        00000 
 1.03866e+00 -5.37190e+00        00000 
 2.09046e+00 -5.45700e+00        00000 
 3.16956e+00 -5.60288e+00        00000 
 4.29235e+00 -5.81566e+00        00000 
 5.47894e+00 -6.10389e+00        00000 
 6.75507e+00 -6.47809e+00        00000 
 8.15354e+00 -6.94888e+00        00000 
 9.71025e+00 -7.52133e+00        00000 
 1.14237e+01 -8.16867e+00        00000 
-1.53846e+01 -1.22965e+01        00000 
-1.32719e+01 -1.16885e+01        00000 
-1.12941e+01 -1.11491e+01        00000 
-9.44230e+00 -1.06821e+01        00000 
-7.70333e+00 -1.02927e+01        00000 
-6.05729e+00 -9.98068e+00        00000 
-4.48309e+00 -9.74328e+00        00000 
-2.96084e+00 -9.57690e+00        00000 
-1.47218e+00 -9.47844e+00        00000 
 3.64507e-13 -9.44586e+00        00000 
 1.47218e+00 -9.47844e+00        00000 
 2.96084e+00 -9.57690e+00        00000 
 4.48309e+00 -9.74328e+00        00000 
 6.05729e+00 -9.98068e+00        00000 
 7.70333e+00 -1.02927e+01        00000 
 9.44230e+00 -1.06821e+01        00000 
 1.12941e+01 -1.11491e+01        00000 
 1.32719e+01 -1.16885e+01        00000 
 1.53846e+01 -1.22965e+01        00000 
-1.91071e+01 -1.72074e+01        00000 
-1.66016e+01 -1.66383e+01        00000 
-1.42241e+01 -1.61329e+01        00000 
-1.19638e+01 -1.56930e+01        00000 
-9.80730e+00 -1.53201e+01        00000 
-7.73925e+00 -1.50157e+01        00000 
-5.74242e+00 -1.47800e+01        00000 
-3.79888e+00 -1.46126e+01        00000 
-1.89065e+00 -1.45125e+01        00000 
 4.86960e-13 -1.44793e+01        00000 
 1.89065e+00 -1.45125e+01        00000 
 3.79888e+00 -1.46126e+01        00000 
 5.74242e+00 -1.47800e+01        00000 
 7.73925e+00 -1.50157e+01        00000 
 9.80730e+00 -1.53201e+01        00000 
 1.19638e+01 -1.56930e+01        00000 
 1.42241e+01 -1.61329e+01        00000 
 1.66016e+01 -1.66383e+01        00000 
 1.91071e+01 -1.72074e+01        00000 
-2.25937e+01 -2.28970e+01        00000 
-1.97097e+01 -2.23662e+01        00000 