<?xml version="1.0" encoding="utf-8"?>
<VTKFile byte_order="LittleEndian" type="UnstructuredGrid" version="0.1">
   <UnstructuredGrid>
      <Piece NumberOfCells="1444" NumberOfPoints="761">
         <Points>
            <DataArray Name="Points" NumberOfComponents="3" format="ascii" type="Float32">
0.0000 1.0000 0.0000
0.0000 1.0526 0.0000
0.0000 1.1053 0.0000
0.0000 1.1579 0.0000
0.0000 1.2105 0.0000
0.0000 1.2632 0.0000
0.0000 1.3158 0.0000
0.0000 1.3684 0.0000
0.0000 1.4211 0.0000
0.0000 1.4737 0.0000
0.0000 1.5263 0.0000
0.0000 1.5789 0.0000
0.0000 1.6316 0.0000
0.0000 1.6842 0.0000
0.0000 1.7368 0.0000
0.0000 1.7895 0.0000
0.0000 1.8421 0.0000
0.0000 1.8947 0.0000
0.0000 1.9474 0.0000
0.0000 2.0000 0.0000
0.1053 1.0000 0.0000
0.1053 1.0526 0.0000
0.1053 1.1053 0.0000
0.1053 1.1579 0.0000
0.1053 1.2105 0.0000
0.1053 1.2632 0.0000
0.1053 1.3158 0.0000
0.1053 1.3684 0.0000
0.1053 1.4211 0.0000
0.1053 1.4737 0.0000
0.1053 1.5263 0.0000
0.1053 1.5789 0.0000
0.1053 1.6316 0.0000
0.1053 1.6842 0.0000
0.1053 1.7368 0.0000
0.1053 1.7895 0.0000
0.1053 1.8421 0.0000
0.1053 1.8947 0.0000
0.1053 1.9474 0.0000
0.1053 2.0000 0.0000
0.2105 1.0000 0.0000
0.2105 1.0526 0.0000
0.2105 1.1053 0.0000
0.2105 1.1579 0.0000
0.2105 1.2105 0.0000
0.2105 1.2632 0.0000
0.2105 1.3158 0.0000
0.2105 1.3684 0.0000
0.2105 1.4211 0.0000
0.2105 1.4737 0.0000
0.2105 1.5263 0.0000
0.2105 1.5789 0.0000
0.2105 1.6316 0.0000
0.2105 1.6842 0.0000
0.2105 1.7368 0.0000
0.2105 1.7895 0.0000
0.2105 1.8421 0.0000
0.2105 1.8947 0.0000
0.2105 1.9474 0.0000
0.2105 2.0000 0.0000
0.3158 1.0000 0.0000
0.3158 1.0526 0.0000
0.3158 1.1053 0.0000
0.3158 1.1579 0.0000
0.3158 1.2105 0.0000
0.3158 1.2632 0.0000
0.3158 1.3158 0.0000
0.3158 1.3684 0.0000
0.3158 1.4211 0.0000
0.3158 1.4737 0.0000
0.3158 1.5263 0.0000
0.3158 1.5789 0.0000
0.3158 1.6316 0.0000
0.3158 1.6842 0.0000
0.3158 1.7368 0.0000
0.3158 1.7895 0.0000
0.3158 1.8421 0.0000
0.3158 1.8947 0.0000
0.3158 1.9474 0.0000
0.3158 2.0000 0.0000
0.4211 1.0000 0.0000
0.4211 1.0526 0.0000
0.4211 1.1053 0.0000
0.4211 1.1579 0.0000
0.4211 1.2105 0.0000
0.4211 1.2632 0.0000
0.4211 1.3158 0.0000
0.4211 1.3684 0.0000
0.4211 1.4211 0.0000
0.4211 1.4737 0.0000
0.4211 1.5263 0.0000
0.4211 1.5789 0.0000
0.4211 1.6316 0.0000
0.4211 1.6842 0.0000
0.4211 1.7368 0.0000
0.4211 1.7895 0.0000
0.4211 1.8421 0.0000
0.4211 1.8947 0.0000
0.4211 1.9474 0.0000
0.4211 2.0000 0.0000
0.5263 1.0000 0.0000
0.5263 1.0526 0.0000
0.5263 1.1053 0.0000
0.5263 1.1579 0.0000
0.5263 1.2105 0.0000
0.5263 1.2632 0.0000
0.5263 1.3158 0.0000
0.5263 1.3684 0.0000
0.5263 1.4211 0.0000
0.5263 1.4737 0.0000
0.5263 1.5263 0.0000
0.5263 1.5789 0.0000
0.5263 1.6316 0.0000
0.5263 1.6842 0.0000
0.5263 1.7368 0.0000
0.5263 1.7895 0.0000
0.5263 1.8421 0.0000
0.5263 1.8947 0.0000
0.5263 1.9474 0.0000
0.5263 2.0000 0.0000
0.6316 1.0000 0.0000
0.6316 1.0526 0.0000
0.6316 1.1053 0.0000
0.6316 1.1579 0.0000
0.6316 1.2105 0.0000
0.6316 1.2632 0.0000
0.6316 1.3158 0.0000
0.6316 1.3684 0.0000
0.6316 1.4211 0.0000
0.6316 1.4737 0.0000
0.6316 1.5263 0.0000
0.6316 1.5789 0.0000
0.6316 1.6316 0.0000
0.6316 1.6842 0.0000
0.6316 1.7368 0.0000
0.6316 1.7895 0.0000
0.6316 1.8421 0.0000
0.6316 1.8947 0.0000
0.6316 1.9474 0.0000
0.6316 2.0000 0.0000
0.7368 1.0000 0.0000
0.7368 1.0526 0.0000
0.7368 1.1053 0.0000
0.7368 1.1579 0.0000
0.7368 1.2105 0.0000
0.7368 1.2632 0.0000
0.7368 1.3158 0.0000
0.7368 1.3684 0.0000
0.7368 1.4211 0.0000
0.7368 1.4737 0.0000
0.7368 1.5263 0.0000
0.7368 1.5789 0.0000
0.7368 1.6316 0.0000
0.7368 1.6842 0.0000
0.7368 1.7368 0.0000
0.7368 1.7895 0.0000
0.7368 1.8421 0.0000
0.7368 1.8947 0.0000
0.7368 1.9474 0.0000
0.7368 2.0000 0.0000
0.8421 1.0000 0.0000
0.8421 1.0526 0.0000
0.8421 1.1053 0.0000
0.8421 1.1579 0.0000
0.8421 1.2105 0.0000
0.8421 1.2632 0.0000
0.8421 1.3158 0.0000
0.8421 1.3684 0.0000
0.8421 1.4211 0.0000
0.8421 1.4737 0.0000
0.8421 1.5263 0.0000
0.8421 1.5789 0.0000
0.8421 1.6316 0.0000
0.8421 1.6842 0.0000
0.8421 1.7368 0.0000
0.8421 1.7895 0.0000
0.8421 1.8421 0.0000
0.8421 1.8947 0.0000
0.8421 1.9474 0.0000
0.8421 2.0000 0.0000
0.9474 1.0000 0.0000
0.9474 1.0526 0.0000
0.9474 1.1053 0.0000
0.9474 1.1579 0.0000
0.9474 1.2105 0.0000
0.9474 1.2632 0.0000
0.9474 1.3158 0.0000
0.9474 1.3684 0.0000
0.9474 1.4211 0.0000
0.9474 1.4737 0.0000
0.9474 1.5263 0.0000
0.9474 1.5789 0.0000
0.9474 1.6316 0.0000
0.9474 1.6842 0.0000
0.9474 1.7368 0.0000
0.9474 1.7895 0.0000
0.9474 1.8421 0.0000
0.9474 1.8947 0.0000
0.9474 1.9474 0.0000
0.9474 2.0000 0.0000
1.0526 1.0000 0.0000
1.0526 1.0526 0.0000
1.0526 1.1053 0.0000
1.0526 1.1579 0.0000
1.0526 1.2105 0.0000
1.0526 1.2632 0.0000
1.0526 1.3158 0.0000
1.0526 1.3684 0.0000
1.0526 1.4211 0.0000
1.0526 1.4737 0.0000
1.0526 1.5263 0.0000
1.0526 1.5789 0.0000
1.0526 1.6316 0.0000
1.0526 1.6842 0.0000
1.0526 1.7368 0.0000
1.0526 1.7895 0.0000
1.0526 1.8421 0.0000
1.0526 1.8947 0.0000
1.0526 1.9474 0.0000
1.0526 2.0000 0.0000
1.1579 1.0000 0.0000
1.1579 1.0526 0.0000
1.1579 1.1053 0.0000
1.1579 1.1579 0.0000
1.1579 1.2105 0.0000
1.1579 1.2632 0.0000
1.1579 1.3158 0.0000
1.1579 1.3684 0.0000
1.1579 1.4211 0.0000
1.1579 1.4737 0.0000
1.1579 1.5263 0.0000
1.1579 1.5789 0.0000
1.1579 1.6316 0.0000
1.1579 1.6842 0.0000
1.1579 1.7368 0.0000
1.1579 1.7895 0.0000
1.1579 1.8421 0.0000
1.1579 1.8947 0.0000
1.1579 1.9474 0.0000
1.1579 2.0000 0.0000
1.2632 1.0000 0.0000
1.2632 1.0526 0.0000
1.2632 1.1053 0.0000
1.2632 1.1579 0.0000
1.2632 1.2105 0.0000
1.2632 1.2632 0.0000
1.2632 1.3158 0.0000
1.2632 1.3684 0.0000
1.2632 1.4211 0.0000
1.2632 1.4737 0.0000
1.2632 1.5263 0.0000
1.2632 1.5789 0.0000
1.2632 1.6316 0.0000
1.2632 1.6842 0.0000
1.2632 1.7368 0.0000
1.2632 1.7895 0.0000
1.2632 1.8421 0.0000
1.2632 1.8947 0.0000
1.2632 1.9474 0.0000
1.2632 2.0000 0.0000
1.3684 1.0000 0.0000
1.3684 1.0526 0.0000
1.3684 1.1053 0.0000
1.3684 1.1579 0.0000
1.3684 1.2105 0.0000
1.3684 1.2632 0.0000
1.3684 1.3158 0.0000
1.3684 1.3684 0.0000
1.3684 1.4211 0.0000
1.3684 1.4737 0.0000
1.3684 1.5263 0.0000
1.3684 1.5789 0.0000
1.3684 1.6316 0.0000
1.3684 1.6842 0.0000
1.3684 1.7368 0.0000
1.3684 1.7895 0.0000
1.3684 1.8421 0.0000
1.3684 1.8947 0.0000
1.3684 1.9474 0.0000
1.3684 2.0000 0.0000
1.4737 1.0000 0.0000
1.4737 1.0526 0.0000
1.4737 1.1053 0.0000
1.4737 1.1579 0.0000
1.4737 1.2105 0.0000
1.4737 1.2632 0.0000
1.4737 1.3158 0.0000
1.4737 1.3684 0.0000
1.4737 1.4211 0.0000
1.4737 1.4737 0.0000
1.4737 1.5263 0.0000
1.4737 1.5789 0.0000
1.4737 1.6316 0.0000
1.4737 1.6842 0.0000
1.4737 1.7368 0.0000
1.4737 1.7895 0.0000
1.4737 1.8421 0.0000
1.4737 1.8947 0.0000
1.4737 1.9474 0.0000
1.4737 2.0000 0.0000
1.5789 1.0000 0.0000
1.5789 1.0526 0.0000
1.5789 1.1053 0.0000
1.5789 1.1579 0.0000
1.5789 1.2105 0.0000
1.5789 1.2632 0.0000
1.5789 1.3158 0.0000
1.5789 1.3684 0.0000
1.5789 1.4211 0.0000
1.5789 1.4737 0.0000
1.5789 1.5263 0.0000
1.5789 1.5789 0.0000
1.5789 1.6316 0.0000
1.5789 1.6842 0.0000
1.5789 1.7368 0.0000
1.5789 1.7895 0.0000
1.5789 1.8421 0.0000
1.5789 1.8947 0.0000
1.5789 1.9474 0.0000
1.5789 2.0000 0.0000
1.6842 1.0000 0.0000
1.6842 1.0526 0.0000
1.6842 1.1053 0.0000
1.6842 1.1579 0.0000
1.6842 1.2105 0.0000
1.6842 1.2632 0.0000
1.6842 1.3158 0.0000
1.6842 1.3684 0.0000
1.6842 1.4211 0.0000
1.6842 1.4737 0.0000
1.6842 1.5263 0.0000
1.6842 1.5789 0.0000
1.6842 1.6316 0.0000
1.6842 1.6842 0.0000
1.6842 1.7368 0.0000
1.6842 1.7895 0.0000
1.6842 1.8421 0.0000
1.6842 1.8947 0.0000
1.6842 1.9474 0.0000
1.6842 2.0000 0.0000
1.7895 1.0000 0.0000
1.7895 1.0526 0.0000
1.7895 1.1053 0.0000
1.7895 1.1579 0.0000
1.7895 1.2105 0.0000
1.7895 1.2632 0.0000
1.7895 1.3158 0.0000
1.7895 1.3684 0.0000
1.7895 1.4211 0.0000
1.7895 1.4737 0.0000
1.7895 1.5263 0.0000
1.7895 1.5789 0.0000
1.7895 1.6316 0.0000
1.7895 1.6842 0.0000
1.7895 1.7368 0.0000
1.7895 1.7895 0.0000
1.7895 1.8421 0.0000
1.7895 1.8947 0.0000
1.7895 1.9474 0.0000
1.7895 2.0000 0.0000
1.8947 1.0000 0.0000
1.8947 1.0526 0.0000
1.8947 1.1053 0.0000
1.8947 1.1579 0.0000
1.8947 1.2105 0.0000
1.8947 1.2632 0.0000
1.8947 1.3158 0.0000
1.8947 1.3684 0.0000
1.8947 1.4211 0.0000
1.8947 1.4737 0.0000
1.8947 1.5263 0.0000
1.8947 1.5789 0.0000
1.8947 1.6316 0.0000
1.8947 1.6842 0.0000
1.8947 1.7368 0.0000
1.8947 1.7895 0.0000
1.8947 1.8421 0.0000
1.8947 1.8947 0.0000
1.8947 1.9474 0.0000
1.8947 2.0000 0.0000
2.0000 1.0000 0.0000
2.0000 1.0526 0.0000
2.0000 1.1053 0.0000
2.0000 1.1579 0.0000
2.0000 1.2105 0.0000
2.0000 1.2632 0.0000
2.0000 1.3158 0.0000
2.0000 1.3684 0.0000
2.0000 1.4211 0.0000
2.0000 1.4737 0.0000
2.0000 1.5263 0.0000
2.0000 1.5789 0.0000
2.0000 1.6316 0.0000
2.0000 1.6842 0.0000
2.0000 1.7368 0.0000
2.0000 1.7895 0.0000
2.0000 1.8421 0.0000
2.0000 1.8947 0.0000
2.0000 1.9474 0.0000
2.0000 2.0000 0.0000
0.0526 1.0263 0.0000
0.0526 1.0789 0.0000
0.0526 1.1316 0.0000
0.0526 1.1842 0.0000
0.0526 1.2368 0.0000
0.0526 1.2895 0.0000
0.0526 1.3421 0.0000
0.0526 1.3947 0.0000
0.0526 1.4474 0.0000
0.0526 1.5000 0.0000
0.0526 1.5526 0.0000
0.0526 1.6053 0.0000
0.0526 1.6579 0.0000
0.0526 1.7105 0.0000
0.0526 1.7632 0.0000
0.0526 1.8158 0.0000
0.0526 1.8684 0.0000
0.0526 1.9211 0.0000
0.0526 1.9737 0.0000
0.1579 1.0263 0.0000
0.1579 1.0789 0.0000
0.1579 1.1316 0.0000
0.1579 1.1842 0.0000
0.1579 1.2368 0.0000
0.1579 1.2895 0.0000
0.1579 1.3421 0.0000
0.1579 1.3947 0.0000
0.1579 1.4474 0.0000
0.1579 1.5000 0.0000
0.1579 1.5526 0.0000
0.1579 1.6053 0.0000
0.1579 1.6579 0.0000
0.1579 1.7105 0.0000
0.1579 1.7632 0.0000
0.1579 1.8158 0.0000
0.1579 1.8684 0.0000
0.1579 1.9211 0.0000
0.1579 1.9737 0.0000
0.2632 1.0263 0.0000
0.2632 1.0789 0.0000
0.2632 1.1316 0.0000
0.2632 1.1842 0.0000
0.2632 1.2368 0.0000
0.2632 1.2895 0.0000
0.2632 1.3421 0.0000
0.2632 1.3947 0.0000
0.2632 1.4474 0.0000
0.2632 1.5000 0.0000
0.2632 1.5526 0.0000
0.2632 1.6053 0.0000
0.2632 1.6579 0.0000
0.2632 1.7105 0.0000
0.2632 1.7632 0.0000
0.2632 1.8158 0.0000
0.2632 1.8684 0.0000
0.2632 1.9211 0.0000
0.2632 1.9737 0.0000
0.3684 1.0263 0.0000
0.3684 1.0789 0.0000
0.3684 1.1316 0.0000
0.3684 1.1842 0.0000
[...]
         <PointData>
            <DataArray Name="displacement" NumberOfComponents="3" format="ascii" type="Float64">
-8.53490e-18 -8.53490e-18        00000 
 3.86413e-18  3.86413e-18        00000 
-8.58229e-18  4.76794e-18        00000 
 7.68290e-18 -2.75566e-18        00000 
-3.33756e-18  5.95992e-18        00000 
-3.86714e-18 -3.14957e-18        00000 
 9.53587e-19  9.53587e-19        00000 
-6.02800e-19  5.09198e-19        00000 
-8.93988e-19 -2.02637e-18        00000 
 3.60733e-19  1.44293e-18        00000 
-3.27796e-19 -2.14557e-18        00000 
-1.25427e-19 -7.78773e-19        00000 
 1.19198e-18 -4.76794e-19        00000 
 1.58378e-18 -3.60938e-19        00000 
 1.19198e-18  1.43038e-18        00000 
 6.88915e-19 -4.64269e-19        00000 
-6.19832e-18  3.33756e-18        00000 
 7.69618e-18 -6.73415e-18        00000 
-2.40442e-18 -4.32795e-18        00000 
 8.16997e-18  1.08199e-18        00000 
 8.07632e-02  4.84888e-02        00000 
 6.21066e-02  3.69142e-02        00000 
 4.95612e-02  2.93126e-02        00000 
 3.97241e-02  2.41275e-02        00000 
 3.16411e-02  2.05010e-02        00000 
 2.46902e-02  1.79405e-02        00000 
 1.84673e-02  1.61469e-02        00000 
 1.27102e-02  1.49359e-02        00000 
 7.23884e-03  1.41956e-02        00000 
 1.91826e-03  1.38628e-02        00000 
-3.36506e-03  1.39106e-02        00000 
-8.71970e-03  1.43431e-02        00000 
-1.42640e-02  1.51963e-02        00000 
-2.01441e-02  1.65453e-02        00000 
-2.65611e-02  1.85192e-02        00000 
-3.38169e-02  2.13306e-02        00000 
-4.23883e-02  2.53255e-02        00000 
-5.30268e-02  3.10580e-02        00000 
-6.68252e-02  3.93700e-02        00000 
-8.60642e-02  5.14004e-02        00000 
 1.37542e-01  8.50764e-02        00000 
 1.17108e-01  7.68764e-02        00000 
 9.72999e-02  6.89005e-02        00000 
 7.97829e-02  6.21254e-02        00000 
 6.43399e-02  5.66916e-02        00000 
 5.05273e-02  5.24973e-02        00000 
 3.79121e-02  4.93826e-02        00000 
 2.61322e-02  4.71995e-02        00000 
 1.48932e-02  4.58355e-02        00000 
 3.94886e-03  4.52182e-02        00000 
-6.92147e-03  4.53145e-02        00000 
-1.79318e-02  4.61300e-02        00000 
-2.93086e-02  4.77086e-02        00000 
-4.13117e-02  5.01342e-02        00000 
-5.42560e-02  5.35301e-02        00000 
-6.85323e-02  5.80511e-02        00000 
-8.45981e-02  6.38479e-02        00000 
-1.02863e-01  7.09719e-02        00000 
-1.23294e-01  7.91730e-02        00000 
-1.43933e-01  8.75322e-02        00000 
 1.86644e-01  1.29785e-01        00000 
 1.62334e-01  1.22292e-01        00000 
 1.38741e-01  1.15457e-01        00000 
 1.16208e-01  1.09222e-01        00000 
 9.51014e-02  1.03797e-01        00000 
 7.54095e-02  9.93062e-02        00000 
 5.69295e-02  9.57858e-02        00000 
 3.93868e-02  9.32202e-02        00000 
 2.24935e-02  9.15761e-02        00000 
 5.96771e-03  9.08240e-02        00000 
-1.04640e-02  9.09482e-02        00000 
-2.70729e-02  9.19517e-02        00000 
-4.41351e-02  9.38554e-02        00000 
-6.19366e-02  9.66922e-02        00000 
-8.07684e-02  1.00494e-01        00000 
-1.00899e-01  1.05266e-01        00000 
-1.22499e-01  1.10953e-01        00000 
-1.45504e-01  1.17406e-01        00000 
-1.69443e-01  1.24424e-01        00000 
-1.93817e-01  1.32084e-01        00000 
 2.31554e-01  1.83445e-01        00000 
 2.02833e-01  1.76652e-01        00000 
 1.75058e-01  1.70507e-01        00000 
 1.48283e-01  1.64996e-01        00000 
 1.22583e-01  1.60140e-01        00000 
 9.79898e-02  1.56011e-01        00000 
 7.44205e-02  1.52679e-01        00000 
 5.16999e-02  1.50189e-01        00000 
 2.95982e-02  1.48565e-01        00000 
 7.85843e-03  1.47815e-01        00000 
-1.37877e-02  1.47944e-01        00000 
-3.56108e-02  1.48951e-01        00000 
-5.78777e-02  1.50832e-01        00000 
-8.08409e-02  1.53575e-01        00000 
-1.04720e-01  1.57152e-01        00000 
-1.29673e-01  1.61510e-01        00000 
-1.55750e-01  1.66574e-01        00000 
-1.82876e-01  1.72271e-01        00000 
-2.10900e-01  1.78589e-01        00000 
-2.39623e-01  1.85560e-01        00000 
 2.72617e-01  2.46198e-01        00000 
 2.39612e-01  2.40010e-01        00000 
 2.07711e-01  2.34465e-01        00000 
 1.76847e-01  2.29537e-01        00000 
 1.46989e-01  2.25231e-01        00000 
 1.18089e-01  2.21574e-01        00000 
 9.00609e-02  2.18607e-01        00000 
 6.27618e-02  2.16373e-01        00000 
 3.60036e-02  2.14905e-01        00000 
 9.56610e-03  2.14225e-01        00000 
-1.67879e-02  2.14344e-01        00000 
-4.33001e-02  2.15260e-01        00000 
-7.02043e-02  2.16959e-01        00000 
-9.77135e-02  2.19416e-01        00000 
-1.26005e-01  2.22595e-01        00000 
-1.55204e-01  2.26449e-01        00000 
-1.85378e-01  2.30937e-01        00000 
-2.16542e-01  2.36037e-01        00000 
-2.48654e-01  2.41750e-01        00000 
-2.81634e-01  2.48113e-01        00000 
 3.09987e-01  3.17406e-01        00000 
 2.73002e-01  3.11797e-01        00000 
 2.37221e-01  3.06788e-01        00000 
 2.02520e-01  3.02365e-01        00000 
 1.68809e-01  2.98528e-01        00000 
 1.35999e-01  2.95290e-01        00000 
 1.03978e-01  2.92674e-01        00000 
 7.26044e-02  2.90708e-01        00000 
 4.17062e-02  2.89417e-01        00000 
 1.10894e-02  2.88819e-01        00000 
-1.94541e-02  2.88923e-01        00000 
-5.01359e-02  2.89727e-01        00000 
-8.11610e-02  2.91220e-01        00000 
-1.12717e-01  2.93381e-01        00000 
-1.44967e-01  2.96181e-01        00000 
-1.78041e-01  2.99594e-01        00000 
-2.12036e-01  3.03596e-01        00000 
-2.47012e-01  3.08178e-01        00000 
-2.82985e-01  3.13345e-01        00000 
-3.19933e-01  3.19120e-01        00000 
 3.43826e-01  3.96321e-01        00000 
 3.03218e-01  3.91255e-01        00000 
 2.63874e-01  3.86740e-01        00000 
 2.25640e-01  3.82768e-01        00000 
 1.88395e-01  3.79338e-01        00000 
 1.52023e-01  3.76458e-01        00000 
 1.16398e-01  3.74143e-01        00000 
 8.13733e-02  3.72410e-01        00000 
 4.67835e-02  3.71273e-01        00000 
 1.24491e-02  3.70747e-01        00000 
-2.18187e-02  3.70836e-01        00000 
-5.62109e-02  3.71540e-01        00000 
-9.09139e-02  3.72850e-01        00000 
-1.26103e-01  3.74753e-01        00000 
-1.61935e-01  3.77230e-01        00000 
-1.98550e-01  3.80265e-01        00000 
-2.36062e-01  3.83845e-01        00000 
-2.74557e-01  3.87963e-01        00000 
-3.14082e-01  3.92623e-01        00000 
-3.54649e-01  3.97842e-01        00000 
 3.74326e-01  4.82181e-01        00000 
 3.30450e-01  4.77627e-01        00000 
 2.87875e-01  4.73573e-01        00000 
 2.46430e-01  4.70013e-01        00000 
 2.05974e-01  4.66947e-01        00000 
 1.66378e-01  4.64381e-01        00000 
 1.27504e-01  4.62324e-01        00000 
 8.92043e-02  4.60787e-01        00000 
 5.13157e-02  4.59781e-01        00000 
 1.36670e-02  4.59314e-01        00000 
-2.39190e-02  4.59390e-01        00000 
-6.16211e-02  4.60009e-01        00000 
-9.96147e-02  4.61164e-01        00000 
-1.38068e-01  4.62846e-01        00000 
-1.77137e-01  4.65045e-01        00000 
-2.16964e-01  4.67749e-01        00000 
-2.57676e-01  4.70949e-01        00000 
-2.99374e-01  4.74641e-01        00000 
-3.42122e-01  4.78828e-01        00000 
-3.85955e-01  4.83522e-01        00000 
 4.01668e-01  5.74268e-01        00000 
 3.54864e-01  5.70199e-01        00000 
 3.09384e-01  5.66578e-01        00000 
 2.65050e-01  5.63400e-01        00000 
 2.21705e-01  5.60668e-01        00000 
 1.79211e-01  5.58383e-01        00000 
 1.37425e-01  5.56554e-01        00000 
 9.61953e-02  5.55189e-01        00000 
 5.53622e-02  5.54295e-01        00000 
 1.47591e-02  5.53878e-01        00000 
-2.57842e-02  5.53942e-01        00000 
-6.64385e-02  5.54487e-01        00000 
-1.07372e-01  5.55507e-01        00000 
-1.48749e-01  5.56998e-01        00000 
-1.90725e-01  5.58949e-01        00000 
-2.33444e-01  5.61355e-01        00000 
-2.77040e-01  5.64207e-01        00000 
-3.21622e-01  5.67502e-01        00000 
-3.67270e-01  5.71243e-01        00000 
-4.14031e-01  5.75438e-01        00000 
 4.26009e-01  6.71909e-01        00000 
 3.76599e-01  6.68302e-01        00000 
 3.28533e-01  6.65091e-01        00000 
 2.81622e-01  6.62275e-01        00000 
 2.35704e-01  6.59851e-01        00000 
 1.90629e-01  6.57824e-01        00000 
 1.46251e-01  6.56200e-01        00000 
 1.02416e-01  6.54987e-01        00000 
 5.89659e-02  6.54191e-01        00000 
 1.57371e-02  6.53818e-01        00000 
-2.74346e-02  6.53871e-01        00000 
-7.07138e-02  6.54350e-01        00000 
-1.14264e-01  6.55252e-01        00000 
-1.58244e-01  6.56571e-01        00000 
-2.02810e-01  6.58299e-01        00000 
-2.48109e-01  6.60430e-01        00000 
-2.94278e-01  6.62958e-01        00000 
-3.41435e-01  6.65879e-01        00000 
-3.89669e-01  6.69196e-01        00000 
-4.39036e-01  6.72917e-01        00000 
 4.47476e-01  7.74472e-01        00000 
 3.95767e-01  7.71309e-01        00000 
 3.45422e-01  7.68492e-01        00000 
 2.96246e-01  7.66017e-01        00000 
 2.48063e-01  7.63881e-01        00000 
 2.00718e-01  7.62090e-01        00000 
 1.54057e-01  7.60650e-01        00000 
 1.07924e-01  7.59570e-01        00000 
 6.21616e-02  7.58859e-01        00000 
 1.66111e-02  7.58523e-01        00000 
-2.88858e-02  7.58566e-01        00000 
-7.44871e-02  7.58989e-01        00000 
-1.20350e-01  7.59786e-01        00000 
-1.66630e-01  7.60953e-01        00000 
-2.13482e-01  7.62480e-01        00000 
-2.61055e-01  7.64359e-01        00000 
-3.09492e-01  7.66583e-01        00000 
-3.58920e-01  7.69151e-01        00000 
-4.09434e-01  7.72062e-01        00000 
-4.61101e-01  7.75326e-01        00000 
 4.66157e-01  8.81358e-01        00000 
 4.12450e-01  8.78628e-01        00000 
 3.60134e-01  8.76191e-01        00000 
 3.09003e-01  8.74038e-01        00000 
 2.58867e-01  8.72169e-01        00000 
 2.09558e-01  8.70589e-01        00000 
 1.60913e-01  8.69308e-01        00000 
 1.12775e-01  8.68340e-01        00000 
 6.49850e-02  8.67698e-01        00000 
 1.73924e-02  8.67391e-01        00000 
-3.01524e-02  8.67425e-01        00000 
-7.77971e-02  8.67801e-01        00000 
-1.25690e-01  8.68512e-01        00000 
-1.73981e-01  8.69549e-01        00000 
-2.22822e-01  8.70900e-01        00000 
-2.72368e-01  8.72552e-01        00000 
-3.22768e-01  8.74496e-01        00000 
-3.74160e-01  8.76728e-01        00000 
-4.26652e-01  8.79248e-01        00000 
-4.80325e-01  8.82070e-01        00000 
 4.82095e-01  9.91986e-01        00000 
 4.26692e-01  9.89685e-01        00000 
 3.72727e-01  9.87617e-01        00000 
 3.19970e-01  9.85769e-01        00000 
 2.68204e-01  9.84139e-01        00000 
 2.17241e-01  9.82738e-01        00000 
 1.66907e-01  9.81585e-01        00000 
 1.17038e-01  9.80701e-01        00000 
 6.74811e-02  9.80107e-01        00000 
 1.80955e-02  9.79819e-01        00000 
-3.12523e-02  9.79846e-01        00000 
-8.06920e-02  9.80188e-01        00000 
-1.30356e-01  9.80837e-01        00000 
-1.80384e-01  9.81776e-01        00000 
-2.30924e-01  9.82985e-01        00000 
-2.82136e-01  9.84443e-01        00000 
-3.34181e-01  9.86134e-01        00000 
-3.87218e-01  9.88048e-01        00000 
-4.41375e-01  9.90189e-01        00000 
-4.96755e-01  9.92571e-01        00000 
 4.95259e-01  1.10576e+00        00000 
 4.38495e-01  1.10390e+00        00000 
 3.83243e-01  1.10219e+00        00000 
 3.29223e-01  1.10063e+00        00000 
 2.76177e-01  1.09921e+00        00000 
 2.23886e-01  1.09796e+00        00000 
 1.72154e-01  1.09690e+00        00000 
 1.20812e-01  1.09606e+00        00000 
 6.97149e-02  1.09549e+00        00000 
 1.87413e-02  1.09521e+00        00000 
-3.22117e-02  1.09523e+00        00000 
-8.32413e-02  1.09556e+00        00000 
-1.34450e-01  1.09618e+00        00000 
-1.85957e-01  1.09706e+00        00000 
-2.37906e-01  1.09817e+00        00000 
-2.90462e-01  1.09947e+00        00000 
-3.43809e-01  1.10093e+00        00000 
-3.98133e-01  1.10255e+00        00000 
-4.53604e-01  1.10431e+00        00000 
-5.10363e-01  1.10625e+00        00000 
 5.05522e-01  1.22200e+00        00000 
 4.47809e-01  1.22059e+00        00000 
 3.91700e-01  1.21926e+00        00000 
 3.36837e-01  1.21799e+00        00000 
 2.82904e-01  1.21679e+00        00000 
 2.29638e-01  1.21567e+00        00000 
 1.76812e-01  1.21468e+00        00000 
 1.24240e-01  1.21386e+00        00000 
 7.17850e-02  1.21328e+00        00000 
 1.93638e-02  1.21299e+00        00000 
-3.30730e-02  1.21301e+00        00000 
-8.55522e-02  1.21335e+00        00000 
-1.38122e-01  1.21398e+00        00000 
-1.90867e-01  1.21484e+00        00000 
-2.43920e-01  1.21588e+00        00000 
-2.97465e-01  1.21704e+00        00000 
-3.51719e-01  1.21829e+00        00000 
-4.06915e-01  1.21960e+00        00000 
-4.63279e-01  1.22098e+00        00000 
-5.21017e-01  1.22245e+00        00000 
 5.12672e-01  1.33977e+00        00000 
 4.54554e-01  1.33885e+00        00000 
 3.98079e-01  1.33794e+00        00000 
 3.42827e-01  1.33705e+00        00000 
 2.88448e-01  1.33616e+00        00000 
 2.34628e-01  1.33528e+00        00000 
 1.81066e-01  1.33442e+00        00000 
 1.27530e-01  1.33365e+00        00000 
 7.38554e-02  1.33305e+00        00000 
 2.00142e-02  1.33274e+00        00000 
-3.39002e-02  1.33277e+00        00000 
-8.78012e-02  1.33315e+00        00000 
-1.41594e-01  1.33381e+00        00000 
-1.95308e-01  1.33464e+00        00000 
-2.49104e-01  1.33556e+00        00000 
-3.03212e-01  1.33649e+00        00000 
-3.57926e-01  1.33742e+00        00000 
-4.13532e-01  1.33836e+00        00000 
-4.70294e-01  1.33931e+00        00000 
-5.28480e-01  1.34026e+00        00000 
 5.16585e-01  1.45772e+00        00000 
 4.58713e-01  1.45730e+00        00000 
 4.02296e-01  1.45691e+00        00000 
 3.47012e-01  1.45661e+00        00000 
 2.92595e-01  1.45639e+00        00000 
 2.38737e-01  1.45617e+00        00000 
 1.85027e-01  1.45584e+00        00000 
 1.30922e-01  1.45533e+00        00000 
 7.62007e-02  1.45488e+00        00000 
 2.08535e-02  1.45452e+00        00000 
-3.48716e-02  1.45457e+00        00000 
-9.02804e-02  1.45502e+00        00000 
-1.45124e-01  1.45556e+00        00000 
-1.99412e-01  1.45617e+00        00000 
-2.53360e-01  1.45658e+00        00000 
-3.07507e-01  1.45688e+00        00000 
-3.62256e-01  1.45717e+00        00000 
-4.17890e-01  1.45751e+00        00000 
-4.74603e-01  1.45794e+00        00000 
-5.32593e-01  1.45838e+00        00000 
 5.17755e-01  1.57412e+00        00000 
 4.60558e-01  1.57409e+00        00000 
 4.04278e-01  1.57426e+00        00000 
 3.48995e-01  1.57477e+00        00000 
 2.94641e-01  1.57567e+00        00000 
 2.41033e-01  1.57696e+00        00000 
 1.87837e-01  1.57849e+00        00000 
 1.34424e-01  1.57984e+00        00000 
 7.91405e-02  1.58009e+00        00000 
 2.18268e-02  1.58063e+00        00000 
-3.59584e-02  1.58071e+00        00000 
-9.33331e-02  1.58032e+00        00000 
-1.48741e-01  1.58021e+00        00000 
-2.02339e-01  1.57899e+00        00000 
-2.55773e-01  1.57759e+00        00000 
-3.09664e-01  1.57641e+00        00000 
-3.64334e-01  1.57560e+00        00000 
-4.19934e-01  1.57516e+00        00000 
-4.76478e-01  1.57503e+00        00000 
-5.33837e-01  1.57506e+00        00000 
 5.17790e-01  1.68817e+00        00000 
 4.60969e-01  1.68814e+00        00000 
 4.04636e-01  1.68815e+00        00000 
 3.49096e-01  1.68857e+00        00000 
 2.94372e-01  1.68984e+00        00000 
 2.40324e-01  1.69247e+00        00000 
 1.86650e-01  1.69717e+00        00000 
 1.32755e-01  1.70507e+00        00000 
 7.77327e-02  1.71781e+00        00000 
 2.13346e-02  1.72368e+00        00000 
-3.55957e-02  1.72379e+00        00000 
-9.20571e-02  1.71815e+00        00000 
-1.47203e-01  1.70566e+00        00000 
-2.01274e-01  1.69797e+00        00000 
-2.55173e-01  1.69346e+00        00000 
-3.09486e-01  1.69098e+00        00000 
-3.64499e-01  1.68981e+00        00000 
-4.20317e-01  1.68943e+00        00000 
-4.76877e-01  1.68942e+00        00000 
-5.33878e-01  1.68946e+00        00000 
 3.47428e-02  1.99257e-02        00000 
 2.72577e-02  1.57379e-02        00000 
 2.17570e-02  1.27076e-02        00000 
 1.73934e-02  1.05990e-02        00000 
 1.37447e-02  9.11282e-03        00000 
 1.05436e-02  8.06353e-03        00000 
 7.62491e-03  7.33747e-03        00000 
 4.88244e-03  6.86501e-03        00000 
 2.24190e-03  6.60483e-03        00000 
-3.54833e-04  6.53555e-03        00000 
-2.95960e-03  6.65172e-03        00000 
-5.62540e-03  6.96286e-03        00000 
-8.41421e-03  7.49523e-03        00000 
-1.14082e-02  8.29682e-03        00000 
-1.47290e-02  9.44767e-03        00000 
-1.85722e-02  1.10788e-02        00000 
-2.32703e-02  1.34060e-02        00000 
-2.93960e-02  1.67812e-02        00000 
-3.79742e-02  2.16520e-02        00000 
 1.00555e-01  6.17092e-02        00000 
 8.18993e-02  5.24624e-02        00000 
 6.65828e-02  4.55536e-02        00000 
 5.37217e-02  4.03185e-02        00000 
 4.26217e-02  3.63958e-02        00000 
 3.27404e-02  3.35094e-02        00000 
 2.36832e-02  3.14570e-02        00000 
 1.51634e-02  3.00984e-02        00000 
 6.96289e-03  2.93438e-02        00000 
-1.09838e-03  2.91446e-02        00000 
-9.18463e-03  2.94883e-02        00000 
-1.74630e-02  3.03971e-02        00000 
-2.61230e-02  3.19305e-02        00000 
-3.54008e-02  3.41911e-02        00000 
-4.56143e-02  3.73358e-02        00000 
-5.72073e-02  4.15877e-02        00000 
-7.07841e-02  4.72443e-02        00000 
-8.70378e-02  5.46566e-02        00000 
-1.06372e-01  6.42303e-02        00000 
 1.51264e-01  1.03209e-01        00000 
 1.29269e-01  9.55924e-02        00000 
 1.08266e-01  8.85460e-02        00000 
 8.89812e-02  8.25308e-02        00000 
 7.13801e-02  7.76275e-02        00000 
 5.51852e-02  7.37966e-02        00000 
 4.00648e-02  7.09563e-02        00000 
 2.57029e-02  6.90236e-02        00000 
 1.18136e-02  6.79337e-02        00000 
-1.86418e-03  6.76477e-02        00000 
-1.55798e-02  6.81553e-02        00000 
-2.95850e-02  6.94753e-02        00000 
-4.41479e-02  7.16547e-02        00000 
-5.95654e-02  7.47649e-02        00000 
-7.61659e-02  7.88918e-02        00000 
-9.42841e-02  8.41105e-02        00000 
-1.14162e-01  9.04341e-02        00000 
-1.35703e-01  9.77223e-02        00000 
-1.58012e-01  1.05516e-01        00000 
 1.96086e-01  1.52705e-01        00000 
 1.69972e-01  1.45907e-01        00000 
 1.44789e-01  1.39722e-01        00000 
 1.20714e-01  1.34189e-01        00000 
 9.78867e-02  1.29440e-01        00000 
 7.62580e-02  1.25557e-01        00000 
 5.56482e-02  1.22572e-01        00000 
 3.58139e-02  1.20488e-01        00000 
 1.64871e-02  1.19295e-01        00000 
-2.60668e-03  1.18982e-01        00000 
-2.17426e-02  1.19548e-01        00000 
-4.11964e-02  1.20998e-01        00000 
-6.12427e-02  1.23344e-01        00000 
-8.21472e-02  1.26593e-01        00000 
-1.04144e-01  1.30738e-01        00000 
-1.27390e-01  1.35734e-01        00000 
-1.51887e-01  1.41485e-01        00000 
-1.77426e-01  1.47859e-01        00000 
-2.03715e-01  1.54829e-01        00000 
 2.36843e-01  2.11248e-01        00000 
 2.06481e-01  2.05093e-01        00000 
 1.77135e-01  1.99564e-01        00000 
 1.48815e-01  1.94659e-01        00000 
 1.21526e-01  1.90410e-01        00000 
 9.52250e-02  1.86877e-01        00000 
 6.97942e-02  1.84111e-01        00000 
 4.50514e-02  1.82151e-01        00000 
 2.07724e-02  1.81017e-01        00000 
-3.28988e-03  1.80721e-01        00000 
-2.73920e-02  1.81265e-01        00000 
-5.17892e-02  1.82645e-01        00000 
-7.67243e-02  1.84847e-01        00000 
-1.02413e-01  1.87847e-01        00000 
-1.29022e-01  1.91602e-01        00000 
-1.56649e-01  1.96055e-01        00000 
-1.85306e-01  2.01146e-01        00000 
-2.14936e-01  2.06848e-01        00000 
-2.45420e-01  2.13176e-01        00000 
 2.73964e-01  2.78548e-01        00000 
 2.39531e-01  2.72969e-01        00000 