<?xml version="1.0" encoding="utf-8"?>
<VTKFile byte_order="LittleEndian" type="UnstructuredGrid" version="0.1">
   <UnstructuredGrid>
      <Piece NumberOfCells="1444" NumberOfPoints="761">
         <Points>
            <DataArray Name="Points" NumberOfComponents="3" format="ascii" type="Float32">
0.0000 1.0000 0.0000
0.0000 1.0526 0.0000
0.0000 1.1053 0.0000
0.0000 1.1579 0.0000
0.0000 1.2105 0.0000
0.0000 1.2632 0.0000
0.0000 1.3158 0.0000
0.0000 1.3684 0.0000
0.0000 1.4211 0.0000
0.0000 1.4737 0.0000
0.0000 1.5263 0.0000
0.0000 1.5789 0.0000
0.0000 1.6316 0.0000
0.0000 1.6842 0.0000
0.0000 1.7368 0.0000
0.0000 1.7895 0.0000
0.0000 1.8421 0.0000
0.0000 1.8947 0.0000
0.0000 1.9474 0.0000
0.0000 2.0000 0.0000
0.1053 1.0000 0.0000
0.1053 1.0526 0.0000
0.1053 1.1053 0.0000
0.1053 1.1579 0.0000
0.1053 1.2105 0.0000
0.1053 1.2632 0.0000
0.1053 1.3158 0.0000
0.1053 1.3684 0.0000
0.1053 1.4211 0.0000
0.1053 1.4737 0.0000
0.1053 1.5263 0.0000
0.1053 1.5789 0.0000
0.1053 1.6316 0.0000
0.1053 1.6842 0.0000
0.1053 1.7368 0.0000
0.1053 1.7895 0.0000
0.1053 1.8421 0.0000
0.1053 1.8947 0.0000
0.1053 1.9474 0.0000
0.1053 2.0000 0.0000
0.2105 1.0000 0.0000
0.2105 1.0526 0.0000
0.2105 1.1053 0.0000
0.2105 1.1579 0.0000
0.2105 1.2105 0.0000
0.2105 1.2632 0.0000
0.2105 1.3158 0.0000
0.2105 1.3684 0.0000
0.2105 1.4211 0.0000
0.2105 1.4737 0.0000
0.2105 1.5263 0.0000
0.2105 1.5789 0.0000
0.2105 1.6316 0.0000
0.2105 1.6842 0.0000
0.2105 1.7368 0.0000
0.2105 1.7895 0.0000
0.2105 1.8421 0.0000
0.2105 1.8947 0.0000
0.2105 1.9474 0.0000
0.2105 2.0000 0.0000
0.3158 1.0000 0.0000
0.3158 1.0526 0.0000
0.3158 1.1053 0.0000
0.3158 1.1579 0.0000
0.3158 1.2105 0.0000
0.3158 1.2632 0.0000
0.3158 1.3158 0.0000
0.3158 1.3684 0.0000
0.3158 1.4211 0.0000
0.3158 1.4737 0.0000
0.3158 1.5263 0.0000
0.3158 1.5789 0.0000
0.3158 1.6316 0.0000
0.3158 1.6842 0.0000
0.3158 1.7368 0.0000
0.3158 1.7895 0.0000
0.3158 1.8421 0.0000
0.3158 1.8947 0.0000
0.3158 1.9474 0.0000
0.3158 2.0000 0.0000
0.4211 1.0000 0.0000
0.4211 1.0526 0.0000
0.4211 1.1053 0.0000
0.4211 1.1579 0.0000
0.4211 1.2105 0.0000
0.4211 1.2632 0.0000
0.4211 1.3158 0.0000
0.4211 1.3684 0.0000
0.4211 1.4211 0.0000
0.4211 1.4737 0.0000
0.4211 1.5263 0.0000
0.4211 1.5789 0.0000
0.4211 1.6316 0.0000
0.4211 1.6842 0.0000
0.4211 1.7368 0.0000
0.4211 1.7895 0.0000
0.4211 1.8421 0.0000
0.4211 1.8947 0.0000
0.4211 1.9474 0.0000
0.4211 2.0000 0.0000
0.5263 1.0000 0.0000
0.5263 1.0526 0.0000
0.5263 1.1053 0.0000
0.5263 1.1579 0.0000
0.5263 1.2105 0.0000
0.5263 1.2632 0.0000
0.5263 1.3158 0.0000
0.5263 1.3684 0.0000
0.5263 1.4211 0.0000
0.5263 1.4737 0.0000
0.5263 1.5263 0.0000
0.5263 1.5789 0.0000
0.5263 1.6316 0.0000
0.5263 1.6842 0.0000
0.5263 1.7368 0.0000
0.5263 1.7895 0.0000
0.5263 1.8421 0.0000
0.5263 1.8947 0.0000
0.5263 1.9474 0.0000
0.5263 2.0000 0.0000
0.6316 1.0000 0.0000
0.6316 1.0526 0.0000
0.6316 1.1053 0.0000
0.6316 1.1579 0.0000
0.6316 1.2105 0.0000
0.6316 1.2632 0.0000
0.6316 1.3158 0.0000
0.6316 1.3684 0.0000
0.6316 1.4211 0.0000
0.6316 1.4737 0.0000
0.6316 1.5263 0.0000
0.6316 1.5789 0.0000
0.6316 1.6316 0.0000
0.6316 1.6842 0.0000
0.6316 1.7368 0.0000
0.6316 1.7895 0.0000
0.6316 1.8421 0.0000
0.6316 1.8947 0.0000
0.6316 1.9474 0.0000
0.6316 2.0000 0.0000
0.7368 1.0000 0.0000
0.7368 1.0526 0.0000
0.7368 1.1053 0.0000
0.7368 1.1579 0.0000
0.7368 1.2105 0.0000
0.7368 1.2632 0.0000
0.7368 1.3158 0.0000
0.7368 1.3684 0.0000
0.7368 1.4211 0.0000
0.7368 1.4737 0.0000
0.7368 1.5263 0.0000
0.7368 1.5789 0.0000
0.7368 1.6316 0.0000
0.7368 1.6842 0.0000
0.7368 1.7368 0.0000
0.7368 1.7895 0.0000
0.7368 1.8421 0.0000
0.7368 1.8947 0.0000
0.7368 1.9474 0.0000
0.7368 2.0000 0.0000
0.8421 1.0000 0.0000
0.8421 1.0526 0.0000
0.8421 1.1053 0.0000
0.8421 1.1579 0.0000
0.8421 1.2105 0.0000
0.8421 1.2632 0.0000
0.8421 1.3158 0.0000
0.8421 1.3684 0.0000
0.8421 1.4211 0.0000
0.8421 1.4737 0.0000
0.8421 1.5263 0.0000
0.8421 1.5789 0.0000
0.8421 1.6316 0.0000
0.8421 1.6842 0.0000
0.8421 1.7368 0.0000
0.8421 1.7895 0.0000
0.8421 1.8421 0.0000
0.8421 1.8947 0.0000
0.8421 1.9474 0.0000
0.8421 2.0000 0.0000
0.9474 1.0000 0.0000
0.9474 1.0526 0.0000
0.9474 1.1053 0.0000
0.9474 1.1579 0.0000
0.9474 1.2105 0.0000
0.9474 1.2632 0.0000
0.9474 1.3158 0.0000
0.9474 1.3684 0.0000
0.9474 1.4211 0.0000
0.9474 1.4737 0.0000
0.9474 1.5263 0.0000
0.9474 1.5789 0.0000
0.9474 1.6316 0.0000
0.9474 1.6842 0.0000
0.9474 1.7368 0.0000
0.9474 1.7895 0.0000
0.9474 1.8421 0.0000
0.9474 1.8947 0.0000
0.9474 1.9474 0.0000
0.9474 2.0000 0.0000
1.0526 1.0000 0.0000
1.0526 1.0526 0.0000
1.0526 1.1053 0.0000
1.0526 1.1579 0.0000
1.0526 1.2105 0.0000
1.0526 1.2632 0.0000
1.0526 1.3158 0.0000
1.0526 1.3684 0.0000
1.0526 1.4211 0.0000
1.0526 1.4737 0.0000
1.0526 1.5263 0.0000
1.0526 1.5789 0.0000
1.0526 1.6316 0.0000
1.0526 1.6842 0.0000
1.0526 1.7368 0.0000
1.0526 1.7895 0.0000
1.0526 1.8421 0.0000
1.0526 1.8947 0.0000
1.0526 1.9474 0.0000
1.0526 2.0000 0.0000
1.1579 1.0000 0.0000
1.1579 1.0526 0.0000
1.1579 1.1053 0.0000
1.1579 1.1579 0.0000
1.1579 1.2105 0.0000
1.1579 1.2632 0.0000
1.1579 1.3158 0.0000
1.1579 1.3684 0.0000
1.1579 1.4211 0.0000
1.1579 1.4737 0.0000
1.1579 1.5263 0.0000
1.1579 1.5789 0.0000
1.1579 1.6316 0.0000
1.1579 1.6842 0.0000
1.1579 1.7368 0.0000
1.1579 1.7895 0.0000
1.1579 1.8421 0.0000
1.1579 1.8947 0.0000
1.1579 1.9474 0.0000
1.1579 2.0000 0.0000
1.2632 1.0000 0.0000
1.2632 1.0526 0.0000
1.2632 1.1053 0.0000
1.2632 1.1579 0.0000
1.2632 1.2105 0.0000
1.2632 1.2632 0.0000
1.2632 1.3158 0.0000
1.2632 1.3684 0.0000
1.2632 1.4211 0.0000
1.2632 1.4737 0.0000
1.2632 1.5263 0.0000
1.2632 1.5789 0.0000
1.2632 1.6316 0.0000
1.2632 1.6842 0.0000
1.2632 1.7368 0.0000
1.2632 1.7895 0.0000
1.2632 1.8421 0.0000
1.2632 1.8947 0.0000
1.2632 1.9474 0.0000
1.2632 2.0000 0.0000
1.3684 1.0000 0.0000
1.3684 1.0526 0.0000
1.3684 1.1053 0.0000
1.3684 1.1579 0.0000
1.3684 1.2105 0.0000
1.3684 1.2632 0.0000
1.3684 1.3158 0.0000
1.3684 1.3684 0.0000
1.3684 1.4211 0.0000
1.3684 1.4737 0.0000
1.3684 1.5263 0.0000
1.3684 1.5789 0.0000
1.3684 1.6316 0.0000
1.3684 1.6842 0.0000
1.3684 1.7368 0.0000
1.3684 1.7895 0.0000
1.3684 1.8421 0.0000
1.3684 1.8947 0.0000
1.3684 1.9474 0.0000
1.3684 2.0000 0.0000
1.4737 1.0000 0.0000
1.4737 1.0526 0.0000
1.4737 1.1053 0.0000
1.4737 1.1579 0.0000
1.4737 1.2105 0.0000
1.4737 1.2632 0.0000
1.4737 1.3158 0.0000
1.4737 1.3684 0.0000
1.4737 1.4211 0.0000
1.4737 1.4737 0.0000
1.4737 1.5263 0.0000
1.4737 1.5789 0.0000
1.4737 1.6316 0.0000
1.4737 1.6842 0.0000
1.4737 1.7368 0.0000
1.4737 1.7895 0.0000
1.4737 1.8421 0.0000
1.4737 1.8947 0.0000
1.4737 1.9474 0.0000
1.4737 2.0000 0.0000
1.5789 1.0000 0.0000
1.5789 1.0526 0.0000
1.5789 1.1053 0.0000
1.5789 1.1579 0.0000
1.5789 1.2105 0.0000
1.5789 1.2632 0.0000
1.5789 1.3158 0.0000
1.5789 1.3684 0.0000
1.5789 1.4211 0.0000
1.5789 1.4737 0.0000
1.5789 1.5263 0.0000
1.5789 1.5789 0.0000
1.5789 1.6316 0.0000
1.5789 1.6842 0.0000
1.5789 1.7368 0.0000
1.5789 1.7895 0.0000
1.5789 1.8421 0.0000
1.5789 1.8947 0.0000
1.5789 1.9474 0.0000
1.5789 2.0000 0.0000
1.6842 1.0000 0.0000
1.6842 1.0526 0.0000
1.6842 1.1053 0.0000
1.6842 1.1579 0.0000
1.6842 1.2105 0.0000
1.6842 1.2632 0.0000
1.6842 1.3158 0.0000
1.6842 1.3684 0.0000
1.6842 1.4211 0.0000
1.6842 1.4737 0.0000
1.6842 1.5263 0.0000
1.6842 1.5789 0.0000
1.6842 1.6316 0.0000
1.6842 1.6842 0.0000
1.6842 1.7368 0.0000
1.6842 1.7895 0.0000
1.6842 1.8421 0.0000
1.6842 1.8947 0.0000
1.6842 1.9474 0.0000
1.6842 2.0000 0.0000
1.7895 1.0000 0.0000
1.7895 1.0526 0.0000
1.7895 1.1053 0.0000
1.7895 1.1579 0.0000
1.7895 1.2105 0.0000
1.7895 1.2632 0.0000
1.7895 1.3158 0.0000
1.7895 1.3684 0.0000
1.7895 1.4211 0.0000
1.7895 1.4737 0.0000
1.7895 1.5263 0.0000
1.7895 1.5789 0.0000
1.7895 1.6316 0.0000
1.7895 1.6842 0.0000
1.7895 1.7368 0.0000
1.7895 1.7895 0.0000
1.7895 1.8421 0.0000
1.7895 1.8947 0.0000
1.7895 1.9474 0.0000
1.7895 2.0000 0.0000
1.8947 1.0000 0.0000
1.8947 1.0526 0.0000
1.8947 1.1053 0.0000
1.8947 1.1579 0.0000
1.8947 1.2105 0.0000
1.8947 1.2632 0.0000
1.8947 1.3158 0.0000
1.8947 1.3684 0.0000
1.8947 1.4211 0.0000
1.8947 1.4737 0.0000
1.8947 1.5263 0.0000
1.8947 1.5789 0.0000
1.8947 1.6316 0.0000
1.8947 1.6842 0.0000
1.8947 1.7368 0.0000
1.8947 1.7895 0.0000
1.8947 1.8421 0.0000
1.8947 1.8947 0.0000
1.8947 1.9474 0.0000
1.8947 2.0000 0.0000
2.0000 1.0000 0.0000
2.0000 1.0526 0.0000
2.0000 1.1053 0.0000
2.0000 1.1579 0.0000
2.0000 1.2105 0.0000
2.0000 1.2632 0.0000
2.0000 1.3158 0.0000
2.0000 1.3684 0.0000
2.0000 1.4211 0.0000
2.0000 1.4737 0.0000
2.0000 1.5263 0.0000
2.0000 1.5789 0.0000
2.0000 1.6316 0.0000
2.0000 1.6842 0.0000
2.0000 1.7368 0.0000
2.0000 1.7895 0.0000
2.0000 1.8421 0.0000
2.0000 1.8947 0.0000
2.0000 1.9474 0.0000
2.0000 2.0000 0.0000
0.0526 1.0263 0.0000
0.0526 1.0789 0.0000
0.0526 1.1316 0.0000
0.0526 1.1842 0.0000
0.0526 1.2368 0.0000
0.0526 1.2895 0.0000
0.0526 1.3421 0.0000
0.0526 1.3947 0.0000
0.0526 1.4474 0.0000
0.0526 1.5000 0.0000
0.0526 1.5526 0.0000
0.0526 1.6053 0.0000
0.0526 1.6579 0.0000
0.0526 1.7105 0.0000
0.0526 1.7632 0.0000
0.0526 1.8158 0.0000
0.0526 1.8684 0.0000
0.0526 1.9211 0.0000
0.0526 1.9737 0.0000
0.1579 1.0263 0.0000
0.1579 1.0789 0.0000
0.1579 1.1316 0.0000
0.1579 1.1842 0.0000
0.1579 1.2368 0.0000
0.1579 1.2895 0.0000
0.1579 1.3421 0.0000
0.1579 1.3947 0.0000
0.1579 1.4474 0.0000
0.1579 1.5000 0.0000
0.1579 1.5526 0.0000
0.1579 1.6053 0.0000
0.1579 1.6579 0.0000
0.1579 1.7105 0.0000
0.1579 1.7632 0.0000
0.1579 1.8158 0.0000
0.1579 1.8684 0.0000
0.1579 1.9211 0.0000
0.1579 1.9737 0.0000
0.2632 1.0263 0.0000
0.2632 1.0789 0.0000
0.2632 1.1316 0.0000
0.2632 1.1842 0.0000
0.2632 1.2368 0.0000
0.2632 1.2895 0.0000
0.2632 1.3421 0.0000
0.2632 1.3947 0.0000
0.2632 1.4474 0.0000
0.2632 1.5000 0.0000
0.2632 1.5526 0.0000
0.2632 1.6053 0.0000
0.2632 1.6579 0.0000
0.2632 1.7105 0.0000
0.2632 1.7632 0.0000
0.2632 1.8158 0.0000
0.2632 1.8684 0.0000
0.2632 1.9211 0.0000
0.2632 1.9737 0.0000
0.3684 1.0263 0.0000
0.3684 1.0789 0.0000
0.3684 1.1316 0.0000
0.3684 1.1842 0.0000
[...]
         <PointData>
            <DataArray Name="displacement" NumberOfComponents="3" format="ascii" type="Float64">
-7.51493e-19  1.15069e-18        00000 
 4.83016e-19 -1.44905e-18        00000 
-3.57595e-19        00000        00000 
-1.49764e-20 -1.68485e-19        00000 
 1.19198e-19  5.95992e-20        00000 
-5.00235e-20  1.97151e-19        00000 
 1.19198e-19  1.19198e-19        00000 
 3.86813e-19 -1.21683e-19        00000 
-1.11749e-19  3.42695e-19        00000 
-6.01221e-20 -4.80977e-19        00000 
 1.00574e-19  1.34098e-19        00000 
-1.32682e-19 -2.24646e-20        00000 
 8.93988e-20  1.78798e-19        00000 
-2.15249e-19  2.75290e-20        00000 
-2.08597e-19  3.57595e-19        00000 
-4.04363e-19 -1.68485e-20        00000 
 5.36393e-19 -3.27796e-19        00000 
-1.56329e-18  1.20253e-19        00000 
 6.01104e-19 -3.60663e-19        00000 
-1.50276e-19  2.47850e-19        00000 
-8.50820e-03 -5.43614e-03        00000 
-6.44797e-03 -4.14960e-03        00000 
-5.23680e-03 -3.31940e-03        00000 
-4.30958e-03 -2.76455e-03        00000 
-3.51925e-03 -2.38106e-03        00000 
-2.80709e-03 -2.11151e-03        00000 
-2.14363e-03 -1.92262e-03        00000 
-1.51151e-03 -1.79435e-03        00000 
-8.99071e-04 -1.71458e-03        00000 
-2.97543e-04 -1.67633e-03        00000 
 3.00504e-04 -1.67642e-03        00000 
 9.02088e-04 -1.71486e-03        00000 
 1.51464e-03 -1.79486e-03        00000 
 2.14694e-03 -1.92343e-03        00000 
 2.81063e-03 -2.11271e-03        00000 
 3.52309e-03 -2.38275e-03        00000 
 4.31378e-03 -2.76683e-03        00000 
 5.24138e-03 -3.32234e-03        00000 
 6.45294e-03 -4.15323e-03        00000 
 8.51380e-03 -5.44050e-03        00000 
-1.53383e-02 -1.00375e-02        00000 
-1.29175e-02 -9.00217e-03        00000 
-1.07594e-02 -8.04101e-03        00000 
-8.91824e-03 -7.25843e-03        00000 
-7.29404e-03 -6.64873e-03        00000 
-5.81600e-03 -6.18559e-03        00000 
-4.43742e-03 -5.84371e-03        00000 
-3.12609e-03 -5.60332e-03        00000 
-1.85821e-03 -5.45042e-03        00000 
-6.14746e-04 -5.37619e-03        00000 
 6.20863e-04 -5.37636e-03        00000 
 1.86444e-03 -5.45096e-03        00000 
 3.13256e-03 -5.60426e-03        00000 
 4.44423e-03 -5.84510e-03        00000 
 5.82323e-03 -6.18750e-03        00000 
 7.30176e-03 -6.65122e-03        00000 
 8.92644e-03 -7.26155e-03        00000 
 1.07680e-02 -8.04476e-03        00000 
 1.29263e-02 -9.00653e-03        00000 
 1.53473e-02 -1.00424e-02        00000 
-2.17544e-02 -1.56499e-02        00000 
-1.87711e-02 -1.46540e-02        00000 
-1.59996e-02 -1.37655e-02        00000 
-1.34356e-02 -1.29849e-02        00000 
-1.10681e-02 -1.23291e-02        00000 
-8.86056e-03 -1.17998e-02        00000 
-6.77528e-03 -1.13908e-02        00000 
-4.77882e-03 -1.10935e-02        00000 
-2.84238e-03 -1.09002e-02        00000 
-9.40586e-04 -1.08051e-02        00000 
 9.49935e-04 -1.08053e-02        00000 
 2.85189e-03 -1.09008e-02        00000 
 4.78863e-03 -1.10947e-02        00000 
 6.78551e-03 -1.13925e-02        00000 
 8.87130e-03 -1.18020e-02        00000 
 1.10793e-02 -1.23318e-02        00000 
 1.34473e-02 -1.29882e-02        00000 
 1.60116e-02 -1.37693e-02        00000 
 1.87832e-02 -1.46584e-02        00000 
 2.17665e-02 -1.56548e-02        00000 
-2.78270e-02 -2.24098e-02        00000 
-2.42496e-02 -2.14768e-02        00000 
-2.08714e-02 -2.06408e-02        00000 
-1.76816e-02 -1.99058e-02        00000 
-1.46627e-02 -1.92744e-02        00000 
-1.17933e-02 -1.87504e-02        00000 
-9.04667e-03 -1.83346e-02        00000 
-6.39423e-03 -1.80258e-02        00000 
-3.80797e-03 -1.78218e-02        00000 
-1.26085e-03 -1.77205e-02        00000 
 1.27337e-03 -1.77208e-02        00000 
 3.82066e-03 -1.78225e-02        00000 
 6.40724e-03 -1.80270e-02        00000 
 9.06014e-03 -1.83363e-02        00000 
 1.18073e-02 -1.87526e-02        00000 
 1.46772e-02 -1.92772e-02        00000 
 1.76965e-02 -1.99091e-02        00000 
 2.08866e-02 -2.06446e-02        00000 
 2.42649e-02 -2.14811e-02        00000 
 2.78421e-02 -2.24146e-02        00000 
-3.35390e-02 -3.03620e-02        00000 
-2.93783e-02 -2.94880e-02        00000 
-2.54173e-02 -2.87081e-02        00000 
-2.16384e-02 -2.80220e-02        00000 
-1.80221e-02 -2.74312e-02        00000 
-1.45470e-02 -2.69372e-02        00000 
-1.11894e-02 -2.65414e-02        00000 
-7.92410e-03 -2.62445e-02        00000 
-4.72493e-03 -2.60469e-02        00000 
-1.56541e-03 -2.59483e-02        00000 
 1.58095e-03 -2.59485e-02        00000 
 4.74065e-03 -2.60476e-02        00000 
 7.94015e-03 -2.62457e-02        00000 
 1.12059e-02 -2.65430e-02        00000 
 1.45640e-02 -2.69393e-02        00000 
 1.80397e-02 -2.74338e-02        00000 
 2.16563e-02 -2.80251e-02        00000 
 2.54355e-02 -2.87117e-02        00000 
 2.93965e-02 -2.94921e-02        00000 
 3.35571e-02 -3.03666e-02        00000 
-3.88762e-02 -3.94616e-02        00000 
-3.41602e-02 -3.86487e-02        00000 
-2.96463e-02 -3.79244e-02        00000 
-2.53136e-02 -3.72885e-02        00000 
-2.11403e-02 -3.67413e-02        00000 
-1.71041e-02 -3.62834e-02        00000 
-1.31816e-02 -3.59159e-02        00000 
-9.34845e-03 -3.56396e-02        00000 
-5.57959e-03 -3.54552e-02        00000 
-1.84945e-03 -3.53630e-02        00000 
 1.86782e-03 -3.53632e-02        00000 
 5.59814e-03 -3.54559e-02        00000 
 9.36733e-03 -3.56408e-02        00000 
 1.32009e-02 -3.59175e-02        00000 
 1.71240e-02 -3.62854e-02        00000 
 2.11607e-02 -3.67437e-02        00000 
 2.53344e-02 -3.72915e-02        00000 
 2.96673e-02 -3.79278e-02        00000 
 3.41811e-02 -3.86525e-02        00000 
 3.88970e-02 -3.94659e-02        00000 
-4.38275e-02 -4.96414e-02        00000 
-3.85922e-02 -4.88903e-02        00000 
-3.35612e-02 -4.82219e-02        00000 
-2.87116e-02 -4.76359e-02        00000 
-2.40204e-02 -4.71322e-02        00000 
-1.94644e-02 -4.67113e-02        00000 
-1.50199e-02 -4.63737e-02        00000 
-1.06628e-02 -4.61199e-02        00000 
-6.36830e-03 -4.59504e-02        00000 
-2.11159e-03 -4.58657e-02        00000 
 2.13258e-03 -4.58659e-02        00000 
 6.38946e-03 -4.59510e-02        00000 
 1.06842e-02 -4.61209e-02        00000 
 1.50418e-02 -4.63751e-02        00000 
 1.94868e-02 -4.67132e-02        00000 
 2.40433e-02 -4.71345e-02        00000 
 2.87349e-02 -4.76385e-02        00000 
 3.35848e-02 -4.82250e-02        00000 
 3.86158e-02 -4.88938e-02        00000 
 4.38509e-02 -4.96453e-02        00000 
-4.83868e-02 -6.08231e-02        00000 
-4.26717e-02 -6.01343e-02        00000 
-3.71623e-02 -5.95218e-02        00000 
-3.18348e-02 -5.89852e-02        00000 
-2.66655e-02 -5.85246e-02        00000 
-2.16307e-02 -5.81400e-02        00000 
-1.67062e-02 -5.78318e-02        00000 
-1.18679e-02 -5.76002e-02        00000 
-7.09138e-03 -5.74457e-02        00000 
-2.35189e-03 -5.73684e-02        00000 
 2.37528e-03 -5.73686e-02        00000 
 7.11493e-03 -5.74462e-02        00000 
 1.18918e-02 -5.76011e-02        00000 
 1.67305e-02 -5.78331e-02        00000 
 2.16555e-02 -5.81417e-02        00000 
 2.66909e-02 -5.85266e-02        00000 
 3.18605e-02 -5.89877e-02        00000 
 3.71882e-02 -5.95246e-02        00000 
 4.26976e-02 -6.01375e-02        00000 
 4.84125e-02 -6.08267e-02        00000 
-5.25507e-02 -7.29247e-02        00000 
-4.63969e-02 -7.22985e-02        00000 
-4.04496e-02 -7.17418e-02        00000 
-3.46847e-02 -7.12544e-02        00000 
-2.90781e-02 -7.08361e-02        00000 
-2.36057e-02 -7.04870e-02        00000 
-1.82431e-02 -7.02072e-02        00000 
-1.29660e-02 -6.99971e-02        00000 
-7.75009e-03 -6.98569e-02        00000 
-2.57079e-03 -6.97868e-02        00000 
 2.59635e-03 -6.97870e-02        00000 
 7.77582e-03 -6.98574e-02        00000 
 1.29921e-02 -6.99979e-02        00000 
 1.82696e-02 -7.02084e-02        00000 
 2.36327e-02 -7.04885e-02        00000 
 2.91056e-02 -7.08379e-02        00000 
 3.47126e-02 -7.12566e-02        00000 
 4.04777e-02 -7.17444e-02        00000 
 4.64250e-02 -7.23014e-02        00000 
 5.25786e-02 -7.29279e-02        00000 
-5.63178e-02 -8.58633e-02        00000 
-4.97666e-02 -8.53000e-02        00000 
-4.34228e-02 -8.47991e-02        00000 
-3.72621e-02 -8.43603e-02        00000 
-3.12599e-02 -8.39836e-02        00000 
-2.53917e-02 -8.36689e-02        00000 
-1.96329e-02 -8.34166e-02        00000 
-1.39591e-02 -8.32269e-02        00000 
-8.34583e-03 -8.31002e-02        00000 
-2.76877e-03 -8.30369e-02        00000 
 2.79628e-03 -8.30370e-02        00000 
 8.37351e-03 -8.31007e-02        00000 
 1.39871e-02 -8.32276e-02        00000 
 1.96614e-02 -8.34176e-02        00000 
 2.54207e-02 -8.36702e-02        00000 
 3.12894e-02 -8.39852e-02        00000 
 3.72919e-02 -8.43622e-02        00000 
 4.34529e-02 -8.48013e-02        00000 
 4.97967e-02 -8.53025e-02        00000 
 5.63476e-02 -8.58662e-02        00000 
-5.96866e-02 -9.95563e-02        00000 
-5.27797e-02 -9.90559e-02        00000 
-4.60817e-02 -9.86107e-02        00000 
-3.95678e-02 -9.82201e-02        00000 
-3.32127e-02 -9.78840e-02        00000 
-2.69913e-02 -9.76023e-02        00000 
-2.08786e-02 -9.73758e-02        00000 
-1.48497e-02 -9.72050e-02        00000 
-8.88033e-03 -9.70907e-02        00000 
-2.94646e-03 -9.70334e-02        00000 
 2.97567e-03 -9.70335e-02        00000 
 8.90973e-03 -9.70910e-02        00000 
 1.48794e-02 -9.72056e-02        00000 
 2.09088e-02 -9.73766e-02        00000 
 2.70221e-02 -9.76034e-02        00000 
 3.32440e-02 -9.78853e-02        00000 
 3.95994e-02 -9.82218e-02        00000 
 4.61136e-02 -9.86126e-02        00000 
 5.28116e-02 -9.90581e-02        00000 
 5.97182e-02 -9.95587e-02        00000 
-6.26541e-02 -1.13921e-01        00000 
-5.54338e-02 -1.13484e-01        00000 
-4.84255e-02 -1.13095e-01        00000 
-4.16030e-02 -1.12752e-01        00000 
-3.49396e-02 -1.12454e-01        00000 
-2.84088e-02 -1.12203e-01        00000 
-2.19846e-02 -1.12000e-01        00000 
-1.56419e-02 -1.11845e-01        00000 
-9.35638e-03 -1.11741e-01        00000 
-3.10484e-03 -1.11689e-01        00000 
 3.13552e-03 -1.11689e-01        00000 
 9.38725e-03 -1.11742e-01        00000 
 1.56731e-02 -1.11846e-01        00000 
 2.20163e-02 -1.12000e-01        00000 
 2.84411e-02 -1.12204e-01        00000 
 3.49724e-02 -1.12455e-01        00000 
 4.16362e-02 -1.12753e-01        00000 
 4.84590e-02 -1.13097e-01        00000 
 5.54673e-02 -1.13486e-01        00000 
 6.26874e-02 -1.13923e-01        00000 
-6.52130e-02 -1.28875e-01        00000 
-5.77237e-02 -1.28503e-01        00000 
-5.04525e-02 -1.28170e-01        00000 
-4.33700e-02 -1.27872e-01        00000 
-3.64462e-02 -1.27611e-01        00000 
-2.96519e-02 -1.27386e-01        00000 
-2.29594e-02 -1.27202e-01        00000 
-1.63429e-02 -1.27060e-01        00000 
-9.77898e-03 -1.26963e-01        00000 
-3.24569e-03 -1.26914e-01        00000 
 3.27760e-03 -1.26915e-01        00000 
 9.81108e-03 -1.26964e-01        00000 
 1.63754e-02 -1.27060e-01        00000 
 2.29923e-02 -1.27202e-01        00000 
 2.96855e-02 -1.27387e-01        00000 
 3.64804e-02 -1.27612e-01        00000 
 4.34046e-02 -1.27873e-01        00000 
 5.04874e-02 -1.28171e-01        00000 
 5.77586e-02 -1.28505e-01        00000 
 6.52478e-02 -1.28877e-01        00000 
-6.73470e-02 -1.44330e-01        00000 
-5.96391e-02 -1.44026e-01        00000 
-5.21600e-02 -1.43749e-01        00000 
-4.48730e-02 -1.43496e-01        00000 
-3.77423e-02 -1.43268e-01        00000 
-3.07339e-02 -1.43065e-01        00000 
-2.38172e-02 -1.42894e-01        00000 
-1.69657e-02 -1.42759e-01        00000 
-1.01570e-02 -1.42666e-01        00000 
-3.37215e-03 -1.42618e-01        00000 
 3.40505e-03 -1.42618e-01        00000 
 1.01901e-02 -1.42666e-01        00000 
 1.69992e-02 -1.42760e-01        00000 
 2.38512e-02 -1.42895e-01        00000 
 3.07685e-02 -1.43066e-01        00000 
 3.77776e-02 -1.43268e-01        00000 
 4.49089e-02 -1.43497e-01        00000 
 5.21961e-02 -1.43750e-01        00000 
 5.96754e-02 -1.44028e-01        00000 
 6.73831e-02 -1.44332e-01        00000 
-6.90254e-02 -1.60183e-01        00000 
-6.11628e-02 -1.59952e-01        00000 
-5.35425e-02 -1.59735e-01        00000 
-4.61170e-02 -1.59528e-01        00000 
-3.88413e-02 -1.59332e-01        00000 
-3.16744e-02 -1.59151e-01        00000 
-2.45809e-02 -1.58990e-01        00000 
-1.75315e-02 -1.58856e-01        00000 
-1.05055e-02 -1.58761e-01        00000 
-3.48985e-03 -1.58711e-01        00000 
 3.52351e-03 -1.58711e-01        00000 
 1.05394e-02 -1.58761e-01        00000 
 1.75658e-02 -1.58857e-01        00000 
 2.46157e-02 -1.58990e-01        00000 
 3.17099e-02 -1.59151e-01        00000 
 3.88774e-02 -1.59333e-01        00000 
 4.61538e-02 -1.59529e-01        00000 
 5.35797e-02 -1.59736e-01        00000 
 6.12001e-02 -1.59953e-01        00000 
 6.90627e-02 -1.60184e-01        00000 
-7.02040e-02 -1.76290e-01        00000 
-6.22724e-02 -1.76138e-01        00000 
-5.45898e-02 -1.75989e-01        00000 
-4.70990e-02 -1.75841e-01        00000 
-3.97495e-02 -1.75696e-01        00000 
-3.24919e-02 -1.75551e-01        00000 
-2.52783e-02 -1.75410e-01        00000 
-1.80728e-02 -1.75283e-01        00000 
-1.08506e-02 -1.75182e-01        00000 
-3.60763e-03 -1.75128e-01        00000 
 3.64186e-03 -1.75128e-01        00000 
 1.08851e-02 -1.75182e-01        00000 
 1.81077e-02 -1.75283e-01        00000 
 2.53137e-02 -1.75410e-01        00000 
 3.25280e-02 -1.75552e-01        00000 
 3.97863e-02 -1.75697e-01        00000 
 4.71365e-02 -1.75842e-01        00000 
 5.46277e-02 -1.75990e-01        00000 
 6.23106e-02 -1.76140e-01        00000 
 7.02423e-02 -1.76291e-01        00000 
-7.08534e-02 -1.92434e-01        00000 
-6.29574e-02 -1.92365e-01        00000 
-5.52829e-02 -1.92299e-01        00000 
-4.77868e-02 -1.92247e-01        00000 
-4.04308e-02 -1.92207e-01        00000 
-3.31664e-02 -1.92166e-01        00000 
-2.59271e-02 -1.92107e-01        00000 
-1.86276e-02 -1.92019e-01        00000 
-1.12357e-02 -1.91942e-01        00000 
-3.75152e-03 -1.91878e-01        00000 
 3.78617e-03 -1.91878e-01        00000 
 1.12706e-02 -1.91942e-01        00000 
 1.86629e-02 -1.92020e-01        00000 
 2.59629e-02 -1.92108e-01        00000 
 3.32030e-02 -1.92167e-01        00000 
 4.04681e-02 -1.92208e-01        00000 
 4.78247e-02 -1.92249e-01        00000 
 5.53214e-02 -1.92300e-01        00000 
 6.29961e-02 -1.92366e-01        00000 
 7.08923e-02 -1.92436e-01        00000 
-7.10484e-02 -2.08336e-01        00000 
-6.32585e-02 -2.08331e-01        00000 
-5.56086e-02 -2.08356e-01        00000 
-4.81151e-02 -2.08433e-01        00000 
-4.07711e-02 -2.08571e-01        00000 
-3.35482e-02 -2.08769e-01        00000 
-2.63907e-02 -2.09002e-01        00000 
-1.91952e-02 -2.09204e-01        00000 
-1.17070e-02 -2.09234e-01        00000 
-3.91265e-03 -2.09307e-01        00000 
 3.94764e-03 -2.09307e-01        00000 
 1.17422e-02 -2.09235e-01        00000 
 1.92309e-02 -2.09205e-01        00000 
 2.64269e-02 -2.09004e-01        00000 
 3.35852e-02 -2.08771e-01        00000 
 4.08088e-02 -2.08573e-01        00000 
 4.81534e-02 -2.08435e-01        00000 
 5.56473e-02 -2.08358e-01        00000 
 6.32975e-02 -2.08334e-01        00000 
 7.10876e-02 -2.08338e-01        00000 
-7.10542e-02 -2.23862e-01        00000 
-6.33239e-02 -2.23856e-01        00000 
-5.56685e-02 -2.23857e-01        00000 
-4.81370e-02 -2.23922e-01        00000 
-4.07364e-02 -2.24116e-01        00000 
-3.34471e-02 -2.24523e-01        00000 
-2.62203e-02 -2.25249e-01        00000 
-1.89560e-02 -2.26453e-01        00000 
-1.15019e-02 -2.28365e-01        00000 
-3.84429e-03 -2.29241e-01        00000 
 3.87965e-03 -2.29241e-01        00000 
 1.15375e-02 -2.28365e-01        00000 
 1.89920e-02 -2.26454e-01        00000 
 2.62569e-02 -2.25251e-01        00000 
 3.34843e-02 -2.24525e-01        00000 
 4.07742e-02 -2.24119e-01        00000 
 4.81753e-02 -2.23925e-01        00000 
 5.57072e-02 -2.23860e-01        00000 
 6.33629e-02 -2.23859e-01        00000 
 7.10934e-02 -2.23865e-01        00000 
-3.55547e-03 -2.23796e-03        00000 
-2.80279e-03 -1.77416e-03        00000 
-2.30747e-03 -1.44975e-03        00000 
-1.90251e-03 -1.22568e-03        00000 
-1.54313e-03 -1.06842e-03        00000 
-1.21073e-03 -9.57535e-04        00000 
-8.95481e-04 -8.80638e-04        00000 
-5.91260e-04 -8.30129e-04        00000 
-2.93695e-04 -8.01455e-04        00000 
 7.26517e-07 -7.92181e-04        00000 
 2.95161e-04 -8.01543e-04        00000 
 5.92764e-04 -8.30319e-04        00000 
 8.97049e-04 -8.80957e-04        00000 
 1.21239e-03 -9.58025e-04        00000 
 1.54492e-03 -1.06913e-03        00000 
 1.90446e-03 -1.22668e-03        00000 
 2.30962e-03 -1.45108e-03        00000 
 2.80519e-03 -1.77585e-03        00000 
 3.55820e-03 -2.24005e-03        00000 
-1.08393e-02 -7.12862e-03        00000 
-8.82200e-03 -6.05523e-03        00000 
-7.27368e-03 -5.27558e-03        00000 
-5.97810e-03 -4.69908e-03        00000 
-4.83154e-03 -4.27284e-03        00000 
-3.77925e-03 -3.96087e-03        00000 
-2.78869e-03 -3.73876e-03        00000 
-1.83830e-03 -3.59025e-03        00000 
-9.12264e-04 -3.50500e-03        00000 
 2.25558e-06 -3.47728e-03        00000 
 9.16819e-04 -3.50526e-03        00000 
 1.84299e-03 -3.59081e-03        00000 
 2.79360e-03 -3.73966e-03        00000 
 3.78446e-03 -3.96218e-03        00000 
 4.83712e-03 -4.27465e-03        00000 
 5.98412e-03 -4.70148e-03        00000 
 7.28013e-03 -5.27862e-03        00000 
 8.82882e-03 -6.05893e-03        00000 
 1.08464e-02 -7.13297e-03        00000 
-1.72013e-02 -1.22926e-02        00000 
-1.46225e-02 -1.13185e-02        00000 
-1.22787e-02 -1.04569e-02        00000 
-1.01725e-02 -9.74814e-03        00000 
-8.25034e-03 -9.18471e-03        00000 
-6.46281e-03 -8.75063e-03        00000 
-4.77134e-03 -8.43015e-03        00000 
-3.14563e-03 -8.21044e-03        00000 
-1.56102e-03 -8.08232e-03        00000 
 3.85758e-06 -8.04034e-03        00000 
 1.56880e-03 -8.08272e-03        00000 
 3.15362e-03 -8.21125e-03        00000 
 4.77966e-03 -8.43142e-03        00000 
 6.47157e-03 -8.75241e-03        00000 
 8.25960e-03 -9.18704e-03        00000 
 1.01823e-02 -9.75105e-03        00000 
 1.22889e-02 -1.04604e-02        00000 
 1.46330e-02 -1.13226e-02        00000 
 1.72118e-02 -1.22973e-02        00000 
-2.31598e-02 -1.85019e-02        00000 
-1.99806e-02 -1.75876e-02        00000 
-1.70037e-02 -1.67761e-02        00000 
-1.42156e-02 -1.60735e-02        00000 
-1.15970e-02 -1.54875e-02        00000 
-9.11808e-03 -1.50180e-02        00000 
-6.74717e-03 -1.46607e-02        00000 
-4.45437e-03 -1.44103e-02        00000 
-2.21209e-03 -1.42623e-02        00000 
 5.46283e-06 -1.42134e-02        00000 
 2.22310e-03 -1.42627e-02        00000 
 4.46562e-03 -1.44113e-02        00000 
 6.75880e-03 -1.46622e-02        00000 
 9.13021e-03 -1.50200e-02        00000 
 1.16097e-02 -1.54900e-02        00000 
 1.42288e-02 -1.60765e-02        00000 
 1.70172e-02 -1.67797e-02        00000 
 1.99943e-02 -1.75917e-02        00000 
 2.31735e-02 -1.85065e-02        00000 
-2.87571e-02 -2.58893e-02        00000 
-2.49874e-02 -2.50336e-02        00000 
-2.14093e-02 -2.42739e-02        00000 
-1.80071e-02 -2.36124e-02        00000 
-1.47607e-02 -2.30517e-02        00000 
-1.16470e-02 -2.25939e-02        00000 
-8.64036e-03 -2.22394e-02        00000 
-5.71375e-03 -2.19876e-02        00000 
-2.84019e-03 -2.18373e-02        00000 
 7.01362e-06 -2.17874e-02        00000 
 2.85431e-03 -2.18378e-02        00000 
 5.72812e-03 -2.19886e-02        00000 
 8.65513e-03 -2.22409e-02        00000 
 1.16623e-02 -2.25958e-02        00000 
 1.47765e-02 -2.30541e-02        00000 
 1.80234e-02 -2.36154e-02        00000 
 2.14259e-02 -2.42773e-02        00000 
 2.50041e-02 -2.50375e-02        00000 
 2.87738e-02 -2.58937e-02        00000 
-3.39973e-02 -3.44474e-02        00000 
-2.96586e-02 -3.36498e-02        00000 