<?xml version="1.0" encoding="utf-8"?>
<VTKFile byte_order="LittleEndian" type="UnstructuredGrid" version="0.1">
   <UnstructuredGrid>
      <Piece NumberOfCells="1444" NumberOfPoints="761">
         <Points>
            <DataArray Name="Points" NumberOfComponents="3" format="ascii" type="Float32">
0.0000 1.0000 0.0000
0.0000 1.0526 0.0000
0.0000 1.1053 0.0000
0.0000 1.1579 0.0000
0.0000 1.2105 0.0000
0.0000 1.2632 0.0000
0.0000 1.3158 0.0000
0.0000 1.3684 0.0000
0.0000 1.4211 0.0000
0.0000 1.4737 0.0000
0.0000 1.5263 0.0000
0.0000 1.5789 0.0000
0.0000 1.6316 0.0000
0.0000 1.6842 0.0000
0.0000 1.7368 0.0000
0.0000 1.7895 0.0000
0.0000 1.8421 0.0000
0.0000 1.8947 0.0000
0.0000 1.9474 0.0000
0.0000 2.0000 0.0000
0.1053 1.0000 0.0000
0.1053 1.0526 0.0000
0.1053 1.1053 0.0000
0.1053 1.1579 0.0000
0.1053 1.2105 0.0000
0.1053 1.2632 0.0000
0.1053 1.3158 0.0000
0.1053 1.3684 0.0000
0.1053 1.4211 0.0000
0.1053 1.4737 0.0000
0.1053 1.5263 0.0000
0.1053 1.5789 0.0000
0.1053 1.6316 0.0000
0.1053 1.6842 0.0000
0.1053 1.7368 0.0000
0.1053 1.7895 0.0000
0.1053 1.8421 0.0000
0.1053 1.8947 0.0000
0.1053 1.9474 0.0000
0.1053 2.0000 0.0000
0.2105 1.0000 0.0000
0.2105 1.0526 0.0000
0.2105 1.1053 0.0000
0.2105 1.1579 0.0000
0.2105 1.2105 0.0000
0.2105 1.2632 0.0000
0.2105 1.3158 0.0000
0.2105 1.3684 0.0000
0.2105 1.4211 0.0000
0.2105 1.4737 0.0000
0.2105 1.5263 0.0000
0.2105 1.5789 0.0000
0.2105 1.6316 0.0000
0.2105 1.6842 0.0000
0.2105 1.7368 0.0000
0.2105 1.7895 0.0000
0.2105 1.8421 0.0000
0.2105 1.8947 0.0000
0.2105 1.9474 0.0000
0.2105 2.0000 0.0000
0.3158 1.0000 0.0000
0.3158 1.0526 0.0000
0.3158 1.1053 0.0000
0.3158 1.1579 0.0000
0.3158 1.2105 0.0000
0.3158 1.2632 0.0000
0.3158 1.3158 0.0000
0.3158 1.3684 0.0000
0.3158 1.4211 0.0000
0.3158 1.4737 0.0000
0.3158 1.5263 0.0000
0.3158 1.5789 0.0000
0.3158 1.6316 0.0000
0.3158 1.6842 0.0000
0.3158 1.7368 0.0000
0.3158 1.7895 0.0000
0.3158 1.8421 0.0000
0.3158 1.8947 0.0000
0.3158 1.9474 0.0000
0.3158 2.0000 0.0000
0.4211 1.0000 0.0000
0.4211 1.0526 0.0000
0.4211 1.1053 0.0000
0.4211 1.1579 0.0000
0.4211 1.2105 0.0000
0.4211 1.2632 0.0000
0.4211 1.3158 0.0000
0.4211 1.3684 0.0000
0.4211 1.4211 0.0000
0.4211 1.4737 0.0000
0.4211 1.5263 0.0000
0.4211 1.5789 0.0000
0.4211 1.6316 0.0000
0.4211 1.6842 0.0000
0.4211 1.7368 0.0000
0.4211 1.7895 0.0000
0.4211 1.8421 0.0000
0.4211 1.8947 0.0000
0.4211 1.9474 0.0000
0.4211 2.0000 0.0000
0.5263 1.0000 0.0000
0.5263 1.0526 0.0000
0.5263 1.1053 0.0000
0.5263 1.1579 0.0000
0.5263 1.2105 0.0000
0.5263 1.2632 0.0000
0.5263 1.3158 0.0000
0.5263 1.3684 0.0000
0.5263 1.4211 0.0000
0.5263 1.4737 0.0000
0.5263 1.5263 0.0000
0.5263 1.5789 0.0000
0.5263 1.6316 0.0000
0.5263 1.6842 0.0000
0.5263 1.7368 0.0000
0.5263 1.7895 0.0000
0.5263 1.8421 0.0000
0.5263 1.8947 0.0000
0.5263 1.9474 0.0000
0.5263 2.0000 0.0000
0.6316 1.0000 0.0000
0.6316 1.0526 0.0000
0.6316 1.1053 0.0000
0.6316 1.1579 0.0000
0.6316 1.2105 0.0000
0.6316 1.2632 0.0000
0.6316 1.3158 0.0000
0.6316 1.3684 0.0000
0.6316 1.4211 0.0000
0.6316 1.4737 0.0000
0.6316 1.5263 0.0000
0.6316 1.5789 0.0000
0.6316 1.6316 0.0000
0.6316 1.6842 0.0000
0.6316 1.7368 0.0000
0.6316 1.7895 0.0000
0.6316 1.8421 0.0000
0.6316 1.8947 0.0000
0.6316 1.9474 0.0000
0.6316 2.0000 0.0000
0.7368 1.0000 0.0000
0.7368 1.0526 0.0000
0.7368 1.1053 0.0000
0.7368 1.1579 0.0000
0.7368 1.2105 0.0000
0.7368 1.2632 0.0000
0.7368 1.3158 0.0000
0.7368 1.3684 0.0000
0.7368 1.4211 0.0000
0.7368 1.4737 0.0000
0.7368 1.5263 0.0000
0.7368 1.5789 0.0000
0.7368 1.6316 0.0000
0.7368 1.6842 0.0000
0.7368 1.7368 0.0000
0.7368 1.7895 0.0000
0.7368 1.8421 0.0000
0.7368 1.8947 0.0000
0.7368 1.9474 0.0000
0.7368 2.0000 0.0000
0.8421 1.0000 0.0000
0.8421 1.0526 0.0000
0.8421 1.1053 0.0000
0.8421 1.1579 0.0000
0.8421 1.2105 0.0000
0.8421 1.2632 0.0000
0.8421 1.3158 0.0000
0.8421 1.3684 0.0000
0.8421 1.4211 0.0000
0.8421 1.4737 0.0000
0.8421 1.5263 0.0000
0.8421 1.5789 0.0000
0.8421 1.6316 0.0000
0.8421 1.6842 0.0000
0.8421 1.7368 0.0000
0.8421 1.7895 0.0000
0.8421 1.8421 0.0000
0.8421 1.8947 0.0000
0.8421 1.9474 0.0000
0.8421 2.0000 0.0000
0.9474 1.0000 0.0000
0.9474 1.0526 0.0000
0.9474 1.1053 0.0000
0.9474 1.1579 0.0000
0.9474 1.2105 0.0000
0.9474 1.2632 0.0000
0.9474 1.3158 0.0000
0.9474 1.3684 0.0000
0.9474 1.4211 0.0000
0.9474 1.4737 0.0000
0.9474 1.5263 0.0000
0.9474 1.5789 0.0000
0.9474 1.6316 0.0000
0.9474 1.6842 0.0000
0.9474 1.7368 0.0000
0.9474 1.7895 0.0000
0.9474 1.8421 0.0000
0.9474 1.8947 0.0000
0.9474 1.9474 0.0000
0.9474 2.0000 0.0000
1.0526 1.0000 0.0000
1.0526 1.0526 0.0000
1.0526 1.1053 0.0000
1.0526 1.1579 0.0000
1.0526 1.2105 0.0000
1.0526 1.2632 0.0000
1.0526 1.3158 0.0000
1.0526 1.3684 0.0000
1.0526 1.4211 0.0000
1.0526 1.4737 0.0000
1.0526 1.5263 0.0000
1.0526 1.5789 0.0000
1.0526 1.6316 0.0000
1.0526 1.6842 0.0000
1.0526 1.7368 0.0000
1.0526 1.7895 0.0000
1.0526 1.8421 0.0000
1.0526 1.8947 0.0000
1.0526 1.9474 0.0000
1.0526 2.0000 0.0000
1.1579 1.0000 0.0000
1.1579 1.0526 0.0000
1.1579 1.1053 0.0000
1.1579 1.1579 0.0000
1.1579 1.2105 0.0000
1.1579 1.2632 0.0000
1.1579 1.3158 0.0000
1.1579 1.3684 0.0000
1.1579 1.4211 0.0000
1.1579 1.4737 0.0000
1.1579 1.5263 0.0000
1.1579 1.5789 0.0000
1.1579 1.6316 0.0000
1.1579 1.6842 0.0000
1.1579 1.7368 0.0000
1.1579 1.7895 0.0000
1.1579 1.8421 0.0000
1.1579 1.8947 0.0000
1.1579 1.9474 0.0000
1.1579 2.0000 0.0000
1.2632 1.0000 0.0000
1.2632 1.0526 0.0000
1.2632 1.1053 0.0000
1.2632 1.1579 0.0000
1.2632 1.2105 0.0000
1.2632 1.2632 0.0000
1.2632 1.3158 0.0000
1.2632 1.3684 0.0000
1.2632 1.4211 0.0000
1.2632 1.4737 0.0000
1.2632 1.5263 0.0000
1.2632 1.5789 0.0000
1.2632 1.6316 0.0000
1.2632 1.6842 0.0000
1.2632 1.7368 0.0000
1.2632 1.7895 0.0000
1.2632 1.8421 0.0000
1.2632 1.8947 0.0000
1.2632 1.9474 0.0000
1.2632 2.0000 0.0000
1.3684 1.0000 0.0000
1.3684 1.0526 0.0000
1.3684 1.1053 0.0000
1.3684 1.1579 0.0000
1.3684 1.2105 0.0000
1.3684 1.2632 0.0000
1.3684 1.3158 0.0000
1.3684 1.3684 0.0000
1.3684 1.4211 0.0000
1.3684 1.4737 0.0000
1.3684 1.5263 0.0000
1.3684 1.5789 0.0000
1.3684 1.6316 0.0000
1.3684 1.6842 0.0000
1.3684 1.7368 0.0000
1.3684 1.7895 0.0000
1.3684 1.8421 0.0000
1.3684 1.8947 0.0000
1.3684 1.9474 0.0000
1.3684 2.0000 0.0000
1.4737 1.0000 0.0000
1.4737 1.0526 0.0000
1.4737 1.1053 0.0000
1.4737 1.1579 0.0000
1.4737 1.2105 0.0000
1.4737 1.2632 0.0000
1.4737 1.3158 0.0000
1.4737 1.3684 0.0000
1.4737 1.4211 0.0000
1.4737 1.4737 0.0000
1.4737 1.5263 0.0000
1.4737 1.5789 0.0000
1.4737 1.6316 0.0000
1.4737 1.6842 0.0000
1.4737 1.7368 0.0000
1.4737 1.7895 0.0000
1.4737 1.8421 0.0000
1.4737 1.8947 0.0000
1.4737 1.9474 0.0000
1.4737 2.0000 0.0000
1.5789 1.0000 0.0000
1.5789 1.0526 0.0000
1.5789 1.1053 0.0000
1.5789 1.1579 0.0000
1.5789 1.2105 0.0000
1.5789 1.2632 0.0000
1.5789 1.3158 0.0000
1.5789 1.3684 0.0000
1.5789 1.4211 0.0000
1.5789 1.4737 0.0000
1.5789 1.5263 0.0000
1.5789 1.5789 0.0000
1.5789 1.6316 0.0000
1.5789 1.6842 0.0000
1.5789 1.7368 0.0000
1.5789 1.7895 0.0000
1.5789 1.8421 0.0000
1.5789 1.8947 0.0000
1.5789 1.9474 0.0000
1.5789 2.0000 0.0000
1.6842 1.0000 0.0000
1.6842 1.0526 0.0000
1.6842 1.1053 0.0000
1.6842 1.1579 0.0000
1.6842 1.2105 0.0000
1.6842 1.2632 0.0000
1.6842 1.3158 0.0000
1.6842 1.3684 0.0000
1.6842 1.4211 0.0000
1.6842 1.4737 0.0000
1.6842 1.5263 0.0000
1.6842 1.5789 0.0000
1.6842 1.6316 0.0000
1.6842 1.6842 0.0000
1.6842 1.7368 0.0000
1.6842 1.7895 0.0000
1.6842 1.8421 0.0000
1.6842 1.8947 0.0000
1.6842 1.9474 0.0000
1.6842 2.0000 0.0000
1.7895 1.0000 0.0000
1.7895 1.0526 0.0000
1.7895 1.1053 0.0000
1.7895 1.1579 0.0000
1.7895 1.2105 0.0000
1.7895 1.2632 0.0000
1.7895 1.3158 0.0000
1.7895 1.3684 0.0000
1.7895 1.4211 0.0000
1.7895 1.4737 0.0000
1.7895 1.5263 0.0000
1.7895 1.5789 0.0000
1.7895 1.6316 0.0000
1.7895 1.6842 0.0000
1.7895 1.7368 0.0000
1.7895 1.7895 0.0000
1.7895 1.8421 0.0000
1.7895 1.8947 0.0000
1.7895 1.9474 0.0000
1.7895 2.0000 0.0000
1.8947 1.0000 0.0000
1.8947 1.0526 0.0000
1.8947 1.1053 0.0000
1.8947 1.1579 0.0000
1.8947 1.2105 0.0000
1.8947 1.2632 0.0000
1.8947 1.3158 0.0000
1.8947 1.3684 0.0000
1.8947 1.4211 0.0000
1.8947 1.4737 0.0000
1.8947 1.5263 0.0000
1.8947 1.5789 0.0000
1.8947 1.6316 0.0000
1.8947 1.6842 0.0000
1.8947 1.7368 0.0000
1.8947 1.7895 0.0000
1.8947 1.8421 0.0000
1.8947 1.8947 0.0000
1.8947 1.9474 0.0000
1.8947 2.0000 0.0000
2.0000 1.0000 0.0000
2.0000 1.0526 0.0000
2.0000 1.1053 0.0000
2.0000 1.1579 0.0000
2.0000 1.2105 0.0000
2.0000 1.2632 0.0000
2.0000 1.3158 0.0000
2.0000 1.3684 0.0000
2.0000 1.4211 0.0000
2.0000 1.4737 0.0000
2.0000 1.5263 0.0000
2.0000 1.5789 0.0000
2.0000 1.6316 0.0000
2.0000 1.6842 0.0000
2.0000 1.7368 0.0000
2.0000 1.7895 0.0000
2.0000 1.8421 0.0000
2.0000 1.8947 0.0000
2.0000 1.9474 0.0000
2.0000 2.0000 0.0000
0.0526 1.0263 0.0000
0.0526 1.0789 0.0000
0.0526 1.1316 0.0000
0.0526 1.1842 0.0000
0.0526 1.2368 0.0000
0.0526 1.2895 0.0000
0.0526 1.3421 0.0000
0.0526 1.3947 0.0000
0.0526 1.4474 0.0000
0.0526 1.5000 0.0000
0.0526 1.5526 0.0000
0.0526 1.6053 0.0000
0.0526 1.6579 0.0000
0.0526 1.7105 0.0000
0.0526 1.7632 0.0000
0.0526 1.8158 0.0000
0.0526 1.8684 0.0000
0.0526 1.9211 0.0000
0.0526 1.9737 0.0000
0.1579 1.0263 0.0000
0.1579 1.0789 0.0000
0.1579 1.1316 0.0000
0.1579 1.1842 0.0000
0.1579 1.2368 0.0000
0.1579 1.2895 0.0000
0.1579 1.3421 0.0000
0.1579 1.3947 0.0000
0.1579 1.4474 0.0000
0.1579 1.5000 0.0000
0.1579 1.5526 0.0000
0.1579 1.6053 0.0000
0.1579 1.6579 0.0000
0.1579 1.7105 0.0000
0.1579 1.7632 0.0000
0.1579 1.8158 0.0000
0.1579 1.8684 0.0000
0.1579 1.9211 0.0000
0.1579 1.9737 0.0000
0.2632 1.0263 0.0000
0.2632 1.0789 0.0000
0.2632 1.1316 0.0000
0.2632 1.1842 0.0000
0.2632 1.2368 0.0000
0.2632 1.2895 0.0000
0.2632 1.3421 0.0000
0.2632 1.3947 0.0000
0.2632 1.4474 0.0000
0.2632 1.5000 0.0000
0.2632 1.5526 0.0000
0.2632 1.6053 0.0000
0.2632 1.6579 0.0000
0.2632 1.7105 0.0000
0.2632 1.7632 0.0000
0.2632 1.8158 0.0000
0.2632 1.8684 0.0000
0.2632 1.9211 0.0000
0.2632 1.9737 0.0000
0.3684 1.0263 0.0000
0.3684 1.0789 0.0000
0.3684 1.1316 0.0000
0.3684 1.1842 0.0000
[...]
         <PointData>
            <DataArray Name="displacement" NumberOfComponents="3" format="ascii" type="Float64">
 5.90407e-18 -1.13533e-17        00000 
-1.35244e-17        00000        00000 
 2.86076e-18  4.76794e-18        00000 
-6.02052e-18 -2.21651e-18        00000 
 4.76794e-19  3.33756e-18        00000 
-5.50287e-18 -3.55617e-18        00000 
 2.62237e-18 -4.76794e-19        00000 
-2.00309e-19  4.05861e-18        00000 
-2.38397e-19 -1.31118e-18        00000 
 1.20244e-19 -9.61953e-19        00000 
-2.38397e-19  5.95992e-19        00000 
 9.75339e-19 -1.33290e-18        00000 
-1.19198e-18 -1.90717e-18        00000 
 5.10812e-18 -3.56593e-19        00000 
-2.86076e-18 -9.53587e-19        00000 
 1.58750e-18 -1.42276e-18        00000 
-1.43038e-18 -1.19198e-18        00000 
-9.62022e-19  6.73415e-18        00000 
 9.61767e-18 -8.41546e-18        00000 
-9.97328e-18  2.10386e-18        00000 
 7.08215e-02  4.52106e-02        00000 
 5.36932e-02  3.45028e-02        00000 
 4.36108e-02  2.75904e-02        00000 
 3.58796e-02  2.29684e-02        00000 
 2.92805e-02  1.97713e-02        00000 
 2.33279e-02  1.75223e-02        00000 
 1.77783e-02  1.59458e-02        00000 
 1.24884e-02  1.48767e-02        00000 
 7.36168e-03  1.42155e-02        00000 
 2.32552e-03  1.39055e-02        00000 
-2.68180e-03  1.39206e-02        00000 
-7.71865e-03  1.42612e-02        00000 
-1.28467e-02  1.49533e-02        00000 
-1.81389e-02  1.60543e-02        00000 
-2.36915e-02  1.76639e-02        00000 
-2.96483e-02  1.99475e-02        00000 
-3.62537e-02  2.31812e-02        00000 
-4.39960e-02  2.78437e-02        00000 
-5.41033e-02  3.48046e-02        00000 
-7.13126e-02  4.55806e-02        00000 
 1.27623e-01  8.34187e-02        00000 
 1.07506e-01  7.48152e-02        00000 
 8.95466e-02  6.68265e-02        00000 
 7.42035e-02  6.03211e-02        00000 
 6.06523e-02  5.52524e-02        00000 
 4.83082e-02  5.14025e-02        00000 
 3.67857e-02  4.85624e-02        00000 
 2.58189e-02  4.65693e-02        00000 
 1.52112e-02  4.53082e-02        00000 
 4.80558e-03  4.47069e-02        00000 
-5.53515e-03  4.47306e-02        00000 
-1.59418e-02  4.53796e-02        00000 
-2.65512e-02  4.66886e-02        00000 
-3.75206e-02  4.87304e-02        00000 
-4.90465e-02  5.16199e-02        00000 
-6.13950e-02  5.55205e-02        00000 
-7.49525e-02  6.06416e-02        00000 
-9.03065e-02  6.72019e-02        00000 
-1.08287e-01  7.52479e-02        00000 
-1.28434e-01  8.39041e-02        00000 
 1.80872e-01  1.30015e-01        00000 
 1.56088e-01  1.21760e-01        00000 
 1.33034e-01  1.14395e-01        00000 
 1.11682e-01  1.07925e-01        00000 
 9.19460e-02  1.02489e-01        00000 
 7.35273e-02  9.81037e-02        00000 
 5.61155e-02  9.47183e-02        00000 
 3.94361e-02  9.22629e-02        00000 
 2.32517e-02  9.06738e-02        00000 
 7.35330e-03  8.99049e-02        00000 
-8.45180e-03  8.99324e-02        00000 
-2.43507e-02  9.07563e-02        00000 
-4.05359e-02  9.24005e-02        00000 
-5.72164e-02  9.49111e-02        00000 
-7.46290e-02  9.83519e-02        00000 
-9.30484e-02  1.02793e-01        00000 
-1.12786e-01  1.08285e-01        00000 
-1.34139e-01  1.14810e-01        00000 
-1.57196e-01  1.22229e-01        00000 
-1.81983e-01  1.30535e-01        00000 
 2.31127e-01  1.86122e-01        00000 
 2.01425e-01  1.78414e-01        00000 
 1.73345e-01  1.71506e-01        00000 
 1.46804e-01  1.65434e-01        00000 
 1.21662e-01  1.60219e-01        00000 
 9.77475e-02  1.55892e-01        00000 
 7.48402e-02  1.52463e-01        00000 
 5.27076e-02  1.49922e-01        00000 
 3.11197e-02  1.48252e-01        00000 
 9.85431e-03  1.47436e-01        00000 
-1.13043e-02  1.47464e-01        00000 
-3.25694e-02  1.48337e-01        00000 
-5.41564e-02  1.50063e-01        00000 
-7.62873e-02  1.52660e-01        00000 
-9.91915e-02  1.56144e-01        00000 
-1.23102e-01  1.60526e-01        00000 
-1.48237e-01  1.65795e-01        00000 
-1.74769e-01  1.71920e-01        00000 
-2.02840e-01  1.78879e-01        00000 
-2.32532e-01  1.86636e-01        00000 
 2.78240e-01  2.52084e-01        00000 
 2.43724e-01  2.44888e-01        00000 
 2.10831e-01  2.38467e-01        00000 
 1.79421e-01  2.32820e-01        00000 
 1.49338e-01  2.27957e-01        00000 
 1.20410e-01  2.23894e-01        00000 
 9.24437e-02  2.20642e-01        00000 
 6.52342e-02  2.18209e-01        00000 
 3.85675e-02  2.16597e-01        00000 
 1.22269e-02  2.15805e-01        00000 
-1.40046e-02  2.15832e-01        00000 
-4.03440e-02  2.16678e-01        00000 
-6.70079e-02  2.18344e-01        00000 
-9.42128e-02  2.20831e-01        00000 
-1.22172e-01  2.24136e-01        00000 
-1.51091e-01  2.28251e-01        00000 
-1.81160e-01  2.33164e-01        00000 
-2.12554e-01  2.38862e-01        00000 
-2.45429e-01  2.45330e-01        00000 
-2.79929e-01  2.52573e-01        00000 
 3.22105e-01  3.27496e-01        00000 
 2.83021e-01  3.20827e-01        00000 
 2.45578e-01  3.14886e-01        00000 
 2.09607e-01  3.09671e-01        00000 
 1.74934e-01  3.05184e-01        00000 
 1.41378e-01  3.01433e-01        00000 
 1.08751e-01  2.98425e-01        00000 
 7.68548e-02  2.96169e-01        00000 
 4.54849e-02  2.94670e-01        00000 
 1.44329e-02  2.93933e-01        00000 
-1.65122e-02  2.93958e-01        00000 
-4.75621e-02  2.94746e-01        00000 
-7.89275e-02  2.96295e-01        00000 
-1.10817e-01  2.98600e-01        00000 
-1.43433e-01  3.01657e-01        00000 
-1.76975e-01  3.05457e-01        00000 
-2.11630e-01  3.09991e-01        00000 
-2.47580e-01  3.15252e-01        00000 
-2.85001e-01  3.21238e-01        00000 
-3.24064e-01  3.27951e-01        00000 
 3.62650e-01  4.11771e-01        00000 
 3.19311e-01  4.05632e-01        00000 
 2.77627e-01  4.00169e-01        00000 
 2.37414e-01  3.95381e-01        00000 
 1.98488e-01  3.91267e-01        00000 
 1.60662e-01  3.87830e-01        00000 
 1.23744e-01  3.85077e-01        00000 
 8.75387e-02  3.83012e-01        00000 
 5.18458e-02  3.81641e-01        00000 
 1.64624e-02  3.80965e-01        00000 
-1.88168e-02  3.80988e-01        00000 
-5.41975e-02  3.81710e-01        00000 
-8.98844e-02  3.83127e-01        00000 
-1.26081e-01  3.85237e-01        00000 
-1.62985e-01  3.88035e-01        00000 
-2.00795e-01  3.91515e-01        00000 
-2.39700e-01  3.95672e-01        00000 
-2.79889e-01  4.00503e-01        00000 
-3.21548e-01  4.06008e-01        00000 
-3.64864e-01  4.12188e-01        00000 
 3.99852e-01  5.04238e-01        00000 
 3.52596e-01  4.98628e-01        00000 
 3.07003e-01  4.93640e-01        00000 
 2.62882e-01  4.89270e-01        00000 
 2.20044e-01  4.85521e-01        00000 
 1.78297e-01  4.82392e-01        00000 
 1.37448e-01  4.79887e-01        00000 
 9.73011e-02  4.78010e-01        00000 
 5.76574e-02  4.76763e-01        00000 
 1.83171e-02  4.76149e-01        00000 
-2.09208e-02  4.76170e-01        00000 
-6.02577e-02  4.76825e-01        00000 
-9.98946e-02  4.78113e-01        00000 
-1.40031e-01  4.80031e-01        00000 
-1.80866e-01  4.82576e-01        00000 
-2.22593e-01  4.85744e-01        00000 
-2.65409e-01  4.89533e-01        00000 
-3.09504e-01  4.93941e-01        00000 
-3.55071e-01  4.98968e-01        00000 
-4.02303e-01  5.04616e-01        00000 
 4.33715e-01  6.04201e-01        00000 
 3.82889e-01  5.99117e-01        00000 
 3.33729e-01  5.94598e-01        00000 
 2.86043e-01  5.90642e-01        00000 
 2.39639e-01  5.87248e-01        00000 
 1.94322e-01  5.84417e-01        00000 
 1.49897e-01  5.82151e-01        00000 
 1.06167e-01  5.80453e-01        00000 
 6.29346e-02  5.79325e-01        00000 
 2.00019e-02  5.78770e-01        00000 
-2.28296e-02  5.78788e-01        00000 
-6.57587e-02  5.79380e-01        00000 
-1.08984e-01  5.80544e-01        00000 
-1.52702e-01  5.82278e-01        00000 
-1.97112e-01  5.84580e-01        00000 
-2.42409e-01  5.87446e-01        00000 
-2.88789e-01  5.90876e-01        00000 
-3.36448e-01  5.94867e-01        00000 
-3.85581e-01  5.99421e-01        00000 
-4.36383e-01  6.04540e-01        00000 
 4.64256e-01  7.10961e-01        00000 
 4.10206e-01  7.06401e-01        00000 
 3.57827e-01  7.02347e-01        00000 
 3.06925e-01  6.98796e-01        00000 
 2.57305e-01  6.95748e-01        00000 
 2.08769e-01  6.93205e-01        00000 
 1.61120e-01  6.91167e-01        00000 
 1.14160e-01  6.89638e-01        00000 
 6.76934e-02  6.88622e-01        00000 
 2.15221e-02  6.88121e-01        00000 
-2.45494e-02  6.88137e-01        00000 
-7.07170e-02  6.88670e-01        00000 
-1.17177e-01  6.89717e-01        00000 
-1.64124e-01  6.91278e-01        00000 
-2.11757e-01  6.93347e-01        00000 
-2.60273e-01  6.95923e-01        00000 
-3.09869e-01  6.99002e-01        00000 
-3.60744e-01  7.02584e-01        00000 
-4.13095e-01  7.06670e-01        00000 
-4.67121e-01  7.11262e-01        00000 
 4.91491e-01  8.23830e-01        00000 
 4.34563e-01  8.19790e-01        00000 
 3.79316e-01  8.16197e-01        00000 
 3.25553e-01  8.13044e-01        00000 
 2.73072e-01  8.10331e-01        00000 
 2.21672e-01  8.08060e-01        00000 
 1.71151e-01  8.06235e-01        00000 
 1.21310e-01  8.04862e-01        00000 
 7.19519e-02  8.03947e-01        00000 
 2.28838e-02  8.03495e-01        00000 
-2.60869e-02  8.03509e-01        00000 
-7.51514e-02  8.03988e-01        00000 
-1.24502e-01  8.04931e-01        00000 
-1.74331e-01  8.06331e-01        00000 
-2.24837e-01  8.08183e-01        00000 
-2.76217e-01  8.10482e-01        00000 
-3.28674e-01  8.13223e-01        00000 
-3.82410e-01  8.16403e-01        00000 
-4.37630e-01  8.20025e-01        00000 
-4.94535e-01  8.24092e-01        00000 
 5.15422e-01  9.42125e-01        00000 
 4.55965e-01  9.38608e-01        00000 
 3.98212e-01  9.35471e-01        00000 
 3.41955e-01  9.32706e-01        00000 
 2.86981e-01  9.30312e-01        00000 
 2.33078e-01  9.28292e-01        00000 
 1.80036e-01  9.26657e-01        00000 
 1.27654e-01  9.25418e-01        00000 
 7.57367e-02  9.24588e-01        00000 
 2.40961e-02  9.24175e-01        00000 
-2.74516e-02  9.24187e-01        00000 
-7.90888e-02  9.24622e-01        00000 
-1.30999e-01  9.25475e-01        00000 
-1.83370e-01  9.26737e-01        00000 
-2.36397e-01  9.28396e-01        00000 
-2.90281e-01  9.30440e-01        00000 
-3.45232e-01  9.32858e-01        00000 
-4.01463e-01  9.35647e-01        00000 
-4.59190e-01  9.38809e-01        00000 
-5.18625e-01  9.42352e-01        00000 
 5.36015e-01  1.06517e+00        00000 
 4.74391e-01  1.06218e+00        00000 
 4.14519e-01  1.05950e+00        00000 
 3.56165e-01  1.05711e+00        00000 
 2.99090e-01  1.05501e+00        00000 
 2.43059e-01  1.05320e+00        00000 
 1.87850e-01  1.05172e+00        00000 
 1.33258e-01  1.05059e+00        00000 
 7.90914e-02  1.04981e+00        00000 
 2.51745e-02  1.04943e+00        00000 
-2.86594e-02  1.04944e+00        00000 
-8.25732e-02  1.04984e+00        00000 
-1.36733e-01  1.05063e+00        00000 
-1.91316e-01  1.05179e+00        00000 
-2.46511e-01  1.05329e+00        00000 
-3.02524e-01  1.05511e+00        00000 
-3.59577e-01  1.05723e+00        00000 
-4.17907e-01  1.05965e+00        00000 
-4.77754e-01  1.06235e+00        00000 
-5.39357e-01  1.06536e+00        00000 
 5.53158e-01  1.19224e+00        00000 
 4.89777e-01  1.18980e+00        00000 
 4.28231e-01  1.18758e+00        00000 
 3.68231e-01  1.18555e+00        00000 
 3.09489e-01  1.18371e+00        00000 
 2.51733e-01  1.18209e+00        00000 
 1.94718e-01  1.18072e+00        00000 
 1.38230e-01  1.17964e+00        00000 
 8.20902e-02  1.17889e+00        00000 
 2.61448e-02  1.17851e+00        00000 
-2.97367e-02  1.17852e+00        00000 
-8.56796e-02  1.17892e+00        00000 
-1.41815e-01  1.17968e+00        00000 
-1.98293e-01  1.18078e+00        00000 
-2.55296e-01  1.18217e+00        00000 
-3.13036e-01  1.18380e+00        00000 
-3.71758e-01  1.18566e+00        00000 
-4.31736e-01  1.18771e+00        00000 
-4.93258e-01  1.18995e+00        00000 
-5.56621e-01  1.19241e+00        00000 
 5.66622e-01  1.32251e+00        00000 
 5.01998e-01  1.32066e+00        00000 
 4.39319e-01  1.31892e+00        00000 
 3.78204e-01  1.31726e+00        00000 
 3.18295e-01  1.31569e+00        00000 
 2.59263e-01  1.31424e+00        00000 
 2.00825e-01  1.31295e+00        00000 
 1.42745e-01  1.31188e+00        00000 
 8.48563e-02  1.31112e+00        00000 
 2.70527e-02  1.31072e+00        00000 
-3.07306e-02  1.31073e+00        00000 
-8.85325e-02  1.31114e+00        00000 
-1.46418e-01  1.31191e+00        00000 
-2.04491e-01  1.31299e+00        00000 
-2.62919e-01  1.31430e+00        00000 
-3.21935e-01  1.31577e+00        00000 
-3.81825e-01  1.31735e+00        00000 
-4.42919e-01  1.31903e+00        00000 
-5.05577e-01  1.32078e+00        00000 
-5.70185e-01  1.32265e+00        00000 
 5.76066e-01  1.45482e+00        00000 
 5.10889e-01  1.45360e+00        00000 
 4.47708e-01  1.45240e+00        00000 
 3.86069e-01  1.45123e+00        00000 
 3.25566e-01  1.45006e+00        00000 
 2.65805e-01  1.44890e+00        00000 
 2.06402e-01  1.44777e+00        00000 
 1.47068e-01  1.44675e+00        00000 
 8.76010e-02  1.44595e+00        00000 
 2.79690e-02  1.44552e+00        00000 
-3.17139e-02  1.44553e+00        00000 
-9.13453e-02  1.44597e+00        00000 
-1.50810e-01  1.44679e+00        00000 
-2.10140e-01  1.44782e+00        00000 
-2.69534e-01  1.44897e+00        00000 
-3.29281e-01  1.45014e+00        00000 
-3.89765e-01  1.45131e+00        00000 
-4.51382e-01  1.45251e+00        00000 
-5.14541e-01  1.45372e+00        00000 
-5.79705e-01  1.45494e+00        00000 
 5.81265e-01  1.58742e+00        00000 
 5.16374e-01  1.58687e+00        00000 
 4.53258e-01  1.58634e+00        00000 
 3.91575e-01  1.58593e+00        00000 
 3.31019e-01  1.58561e+00        00000 
 2.71203e-01  1.58528e+00        00000 
 2.11593e-01  1.58481e+00        00000 
 1.51503e-01  1.58411e+00        00000 
 9.06733e-02  1.58350e+00        00000 
 2.91026e-02  1.58299e+00        00000 
-3.28984e-02  1.58300e+00        00000 
-9.44706e-02  1.58352e+00        00000 
-1.55301e-01  1.58415e+00        00000 
-2.15387e-01  1.58487e+00        00000 
-2.74987e-01  1.58536e+00        00000 
-3.34787e-01  1.58569e+00        00000 
-3.95321e-01  1.58602e+00        00000 
-4.56981e-01  1.58644e+00        00000 
-5.20074e-01  1.58697e+00        00000 
-5.84951e-01  1.58753e+00        00000 
 5.82824e-01  1.71808e+00        00000 
 5.18784e-01  1.71805e+00        00000 
 4.55866e-01  1.71825e+00        00000 
 3.94202e-01  1.71886e+00        00000 
 3.33742e-01  1.71998e+00        00000 
 2.74257e-01  1.72157e+00        00000 
 2.15302e-01  1.72345e+00        00000 
 1.56048e-01  1.72508e+00        00000 
 9.44452e-02  1.72533e+00        00000 
 3.03811e-02  1.72593e+00        00000 
-3.42156e-02  1.72594e+00        00000 
-9.82854e-02  1.72537e+00        00000 
-1.59891e-01  1.72514e+00        00000 
-2.19137e-01  1.72353e+00        00000 
-2.78076e-01  1.72166e+00        00000 
-3.37539e-01  1.72007e+00        00000 
-3.97975e-01  1.71895e+00        00000 
-4.59611e-01  1.71834e+00        00000 
-5.22506e-01  1.71814e+00        00000 
-5.86529e-01  1.71817e+00        00000 
 5.82870e-01  1.84573e+00        00000 
 5.19308e-01  1.84568e+00        00000 
 4.56345e-01  1.84569e+00        00000 
 3.94376e-01  1.84621e+00        00000 
 3.33460e-01  1.84777e+00        00000 
 2.73439e-01  1.85104e+00        00000 
 2.13925e-01  1.85687e+00        00000 
 1.54113e-01  1.86656e+00        00000 
 9.27788e-02  1.88196e+00        00000 
 2.98128e-02  1.88904e+00        00000 
-3.36854e-02  1.88907e+00        00000 
-9.66502e-02  1.88204e+00        00000 
-1.57976e-01  1.86665e+00        00000 
-2.17773e-01  1.85696e+00        00000 
-2.77267e-01  1.85112e+00        00000 
-3.37263e-01  1.84785e+00        00000 
-3.98153e-01  1.84627e+00        00000 
-4.60095e-01  1.84575e+00        00000 
-5.23034e-01  1.84574e+00        00000 
-5.86577e-01  1.84579e+00        00000 
 2.96035e-02  1.86110e-02        00000 
 2.33428e-02  1.47494e-02        00000 
 1.92156e-02  1.20471e-02        00000 
 1.58357e-02  1.01793e-02        00000 
 1.28325e-02  8.86709e-03        00000 
 1.00524e-02  7.94119e-03        00000 
 7.41457e-03  7.29926e-03        00000 
 4.86832e-03  6.87888e-03        00000 
 2.37745e-03  6.64283e-03        00000 
-8.72573e-05  6.57131e-03        00000 
-2.55214e-03  6.65816e-03        00000 
-5.04352e-03  6.90973e-03        00000 
-7.59066e-03  7.34600e-03        00000 
-1.02299e-02  8.00436e-03        00000 
-1.30118e-02  8.94737e-03        00000 
-1.60178e-02  1.02776e-02        00000 
-1.94022e-02  1.21647e-02        00000 
-2.35381e-02  1.48886e-02        00000 
-2.98232e-02  1.87755e-02        00000 
 9.02231e-02  5.92570e-02        00000 
 7.34449e-02  5.03284e-02        00000 
 6.05485e-02  4.38420e-02        00000 
 4.97423e-02  3.90446e-02        00000 
 4.01677e-02  3.54964e-02        00000 
 3.13725e-02  3.28995e-02        00000 
 2.30878e-02  3.10523e-02        00000 
 1.51354e-02  2.98210e-02        00000 
 7.38459e-03  2.91211e-02        00000 
-2.70859e-04  2.89057e-02        00000 
-7.92675e-03  2.91601e-02        00000 
-1.56788e-02  2.98995e-02        00000 
-2.36334e-02  3.11708e-02        00000 
-3.19211e-02  3.30589e-02        00000 
-4.07203e-02  3.56978e-02        00000 
-5.03005e-02  3.92897e-02        00000 
-6.11157e-02  4.41332e-02        00000 
-7.40297e-02  5.06699e-02        00000 
-9.08493e-02  5.96582e-02        00000 
 1.43085e-01  1.02143e-01        00000 
 1.21644e-01  9.40578e-02        00000 
 1.02131e-01  8.69053e-02        00000 
 8.45761e-02  8.10218e-02        00000 
 6.85378e-02  7.63453e-02        00000 
 5.36105e-02  7.27443e-02        00000 
 3.94759e-02  7.00892e-02        00000 
 2.58842e-02  6.82749e-02        00000 
 1.26319e-02  6.72262e-02        00000 
-4.57256e-04  6.68986e-02        00000 
-1.35468e-02  6.72775e-02        00000 
-2.68003e-02  6.83778e-02        00000 
-4.03936e-02  7.02440e-02        00000 
-5.45304e-02  7.29513e-02        00000 
-6.94602e-02  7.66052e-02        00000 
-8.55018e-02  8.13354e-02        00000 
-1.03062e-01  8.72737e-02        00000 
-1.22584e-01  9.44821e-02        00000 
-1.44039e-01  1.02622e-01        00000 
 1.92469e-01  1.53699e-01        00000 
 1.66050e-01  1.46133e-01        00000 
 1.41283e-01  1.39417e-01        00000 
 1.18063e-01  1.33602e-01        00000 
 9.62356e-02  1.28754e-01        00000 
 7.55562e-02  1.24872e-01        00000 
 5.57660e-02  1.21923e-01        00000 
 3.66191e-02  1.19863e-01        00000 
 1.78885e-02  1.18654e-01        00000 
-6.37870e-04  1.18273e-01        00000 
-1.91643e-02  1.18710e-01        00000 
-3.78950e-02  1.19974e-01        00000 
-5.70418e-02  1.22090e-01        00000 
-7.68314e-02  1.25095e-01        00000 
-9.75093e-02  1.29032e-01        00000 
-1.19335e-01  1.33935e-01        00000 
-1.42551e-01  1.39805e-01        00000 
-1.67314e-01  1.46574e-01        00000 
-1.93730e-01  1.54193e-01        00000 
 2.38715e-01  2.15007e-01        00000 
 2.07412e-01  2.07949e-01        00000 
 1.77670e-01  2.01683e-01        00000 
 1.49365e-01  1.96228e-01        00000 
 1.22333e-01  1.91606e-01        00000 
 9.63904e-02  1.87834e-01        00000 
 7.13252e-02  1.84919e-01        00000 
 4.69175e-02  1.82855e-01        00000 
 2.29461e-02  1.81633e-01        00000 
-8.07950e-04  1.81245e-01        00000 
-2.45616e-02  1.81688e-01        00000 
-4.85317e-02  1.82966e-01        00000 
-7.29369e-02  1.85085e-01        00000 
-9.79981e-02  1.88054e-01        00000 
-1.23935e-01  1.91880e-01        00000 
-1.50958e-01  1.96555e-01        00000 
-1.79252e-01  2.02062e-01        00000 
-2.08980e-01  2.08378e-01        00000 
-2.40269e-01  2.15485e-01        00000 
 2.81860e-01  2.85972e-01        00000 
 2.45867e-01  2.79418e-01        00000 