<?xml version="1.0" encoding="utf-8"?>
<VTKFile byte_order="LittleEndian" type="UnstructuredGrid" version="0.1">
   <UnstructuredGrid>
      <Piece NumberOfCells="1444" NumberOfPoints="761">
         <Points>
            <DataArray Name="Points" NumberOfComponents="3" format="ascii" type="Float32">
0.0000 1.0000 0.0000
0.0000 1.0526 0.0000
0.0000 1.1053 0.0000
0.0000 1.1579 0.0000
0.0000 1.2105 0.0000
0.0000 1.2632 0.0000
0.0000 1.3158 0.0000
0.0000 1.3684 0.0000
0.0000 1.4211 0.0000
0.0000 1.4737 0.0000
0.0000 1.5263 0.0000
0.0000 1.5789 0.0000
0.0000 1.6316 0.0000
0.0000 1.6842 0.0000
0.0000 1.7368 0.0000
0.0000 1.7895 0.0000
0.0000 1.8421 0.0000
0.0000 1.8947 0.0000
0.0000 1.9474 0.0000
0.0000 2.0000 0.0000
0.1053 1.0000 0.0000
0.1053 1.0526 0.0000
0.1053 1.1053 0.0000
0.1053 1.1579 0.0000
0.1053 1.2105 0.0000
0.1053 1.2632 0.0000
0.1053 1.3158 0.0000
0.1053 1.3684 0.0000
0.1053 1.4211 0.0000
0.1053 1.4737 0.0000
0.1053 1.5263 0.0000
0.1053 1.5789 0.0000
0.1053 1.6316 0.0000
0.1053 1.6842 0.0000
0.1053 1.7368 0.0000
0.1053 1.7895 0.0000
0.1053 1.8421 0.0000
0.1053 1.8947 0.0000
0.1053 1.9474 0.0000
0.1053 2.0000 0.0000
0.2105 1.0000 0.0000
0.2105 1.0526 0.0000
0.2105 1.1053 0.0000
0.2105 1.1579 0.0000
0.2105 1.2105 0.0000
0.2105 1.2632 0.0000
0.2105 1.3158 0.0000
0.2105 1.3684 0.0000
0.2105 1.4211 0.0000
0.2105 1.4737 0.0000
0.2105 1.5263 0.0000
0.2105 1.5789 0.0000
0.2105 1.6316 0.0000
0.2105 1.6842 0.0000
0.2105 1.7368 0.0000
0.2105 1.7895 0.0000
0.2105 1.8421 0.0000
0.2105 1.8947 0.0000
0.2105 1.9474 0.0000
0.2105 2.0000 0.0000
0.3158 1.0000 0.0000
0.3158 1.0526 0.0000
0.3158 1.1053 0.0000
0.3158 1.1579 0.0000
0.3158 1.2105 0.0000
0.3158 1.2632 0.0000
0.3158 1.3158 0.0000
0.3158 1.3684 0.0000
0.3158 1.4211 0.0000
0.3158 1.4737 0.0000
0.3158 1.5263 0.0000
0.3158 1.5789 0.0000
0.3158 1.6316 0.0000
0.3158 1.6842 0.0000
0.3158 1.7368 0.0000
0.3158 1.7895 0.0000
0.3158 1.8421 0.0000
0.3158 1.8947 0.0000
0.3158 1.9474 0.0000
0.3158 2.0000 0.0000
0.4211 1.0000 0.0000
0.4211 1.0526 0.0000
0.4211 1.1053 0.0000
0.4211 1.1579 0.0000
0.4211 1.2105 0.0000
0.4211 1.2632 0.0000
0.4211 1.3158 0.0000
0.4211 1.3684 0.0000
0.4211 1.4211 0.0000
0.4211 1.4737 0.0000
0.4211 1.5263 0.0000
0.4211 1.5789 0.0000
0.4211 1.6316 0.0000
0.4211 1.6842 0.0000
0.4211 1.7368 0.0000
0.4211 1.7895 0.0000
0.4211 1.8421 0.0000
0.4211 1.8947 0.0000
0.4211 1.9474 0.0000
0.4211 2.0000 0.0000
0.5263 1.0000 0.0000
0.5263 1.0526 0.0000
0.5263 1.1053 0.0000
0.5263 1.1579 0.0000
0.5263 1.2105 0.0000
0.5263 1.2632 0.0000
0.5263 1.3158 0.0000
0.5263 1.3684 0.0000
0.5263 1.4211 0.0000
0.5263 1.4737 0.0000
0.5263 1.5263 0.0000
0.5263 1.5789 0.0000
0.5263 1.6316 0.0000
0.5263 1.6842 0.0000
0.5263 1.7368 0.0000
0.5263 1.7895 0.0000
0.5263 1.8421 0.0000
0.5263 1.8947 0.0000
0.5263 1.9474 0.0000
0.5263 2.0000 0.0000
0.6316 1.0000 0.0000
0.6316 1.0526 0.0000
0.6316 1.1053 0.0000
0.6316 1.1579 0.0000
0.6316 1.2105 0.0000
0.6316 1.2632 0.0000
0.6316 1.3158 0.0000
0.6316 1.3684 0.0000
0.6316 1.4211 0.0000
0.6316 1.4737 0.0000
0.6316 1.5263 0.0000
0.6316 1.5789 0.0000
0.6316 1.6316 0.0000
0.6316 1.6842 0.0000
0.6316 1.7368 0.0000
0.6316 1.7895 0.0000
0.6316 1.8421 0.0000
0.6316 1.8947 0.0000
0.6316 1.9474 0.0000
0.6316 2.0000 0.0000
0.7368 1.0000 0.0000
0.7368 1.0526 0.0000
0.7368 1.1053 0.0000
0.7368 1.1579 0.0000
0.7368 1.2105 0.0000
0.7368 1.2632 0.0000
0.7368 1.3158 0.0000
0.7368 1.3684 0.0000
0.7368 1.4211 0.0000
0.7368 1.4737 0.0000
0.7368 1.5263 0.0000
0.7368 1.5789 0.0000
0.7368 1.6316 0.0000
0.7368 1.6842 0.0000
0.7368 1.7368 0.0000
0.7368 1.7895 0.0000
0.7368 1.8421 0.0000
0.7368 1.8947 0.0000
0.7368 1.9474 0.0000
0.7368 2.0000 0.0000
0.8421 1.0000 0.0000
0.8421 1.0526 0.0000
0.8421 1.1053 0.0000
0.8421 1.1579 0.0000
0.8421 1.2105 0.0000
0.8421 1.2632 0.0000
0.8421 1.3158 0.0000
0.8421 1.3684 0.0000
0.8421 1.4211 0.0000
0.8421 1.4737 0.0000
0.8421 1.5263 0.0000
0.8421 1.5789 0.0000
0.8421 1.6316 0.0000
0.8421 1.6842 0.0000
0.8421 1.7368 0.0000
0.8421 1.7895 0.0000
0.8421 1.8421 0.0000
0.8421 1.8947 0.0000
0.8421 1.9474 0.0000
0.8421 2.0000 0.0000
0.9474 1.0000 0.0000
0.9474 1.0526 0.0000
0.9474 1.1053 0.0000
0.9474 1.1579 0.0000
0.9474 1.2105 0.0000
0.9474 1.2632 0.0000
0.9474 1.3158 0.0000
0.9474 1.3684 0.0000
0.9474 1.4211 0.0000
0.9474 1.4737 0.0000
0.9474 1.5263 0.0000
0.9474 1.5789 0.0000
0.9474 1.6316 0.0000
0.9474 1.6842 0.0000
0.9474 1.7368 0.0000
0.9474 1.7895 0.0000
0.9474 1.8421 0.0000
0.9474 1.8947 0.0000
0.9474 1.9474 0.0000
0.9474 2.0000 0.0000
1.0526 1.0000 0.0000
1.0526 1.0526 0.0000
1.0526 1.1053 0.0000
1.0526 1.1579 0.0000
1.0526 1.2105 0.0000
1.0526 1.2632 0.0000
1.0526 1.3158 0.0000
1.0526 1.3684 0.0000
1.0526 1.4211 0.0000
1.0526 1.4737 0.0000
1.0526 1.5263 0.0000
1.0526 1.5789 0.0000
1.0526 1.6316 0.0000
1.0526 1.6842 0.0000
1.0526 1.7368 0.0000
1.0526 1.7895 0.0000
1.0526 1.8421 0.0000
1.0526 1.8947 0.0000
1.0526 1.9474 0.0000
1.0526 2.0000 0.0000
1.1579 1.0000 0.0000
1.1579 1.0526 0.0000
1.1579 1.1053 0.0000
1.1579 1.1579 0.0000
1.1579 1.2105 0.0000
1.1579 1.2632 0.0000
1.1579 1.3158 0.0000
1.1579 1.3684 0.0000
1.1579 1.4211 0.0000
1.1579 1.4737 0.0000
1.1579 1.5263 0.0000
1.1579 1.5789 0.0000
1.1579 1.6316 0.0000
1.1579 1.6842 0.0000
1.1579 1.7368 0.0000
1.1579 1.7895 0.0000
1.1579 1.8421 0.0000
1.1579 1.8947 0.0000
1.1579 1.9474 0.0000
1.1579 2.0000 0.0000
1.2632 1.0000 0.0000
1.2632 1.0526 0.0000
1.2632 1.1053 0.0000
1.2632 1.1579 0.0000
1.2632 1.2105 0.0000
1.2632 1.2632 0.0000
1.2632 1.3158 0.0000
1.2632 1.3684 0.0000
1.2632 1.4211 0.0000
1.2632 1.4737 0.0000
1.2632 1.5263 0.0000
1.2632 1.5789 0.0000
1.2632 1.6316 0.0000
1.2632 1.6842 0.0000
1.2632 1.7368 0.0000
1.2632 1.7895 0.0000
1.2632 1.8421 0.0000
1.2632 1.8947 0.0000
1.2632 1.9474 0.0000
1.2632 2.0000 0.0000
1.3684 1.0000 0.0000
1.3684 1.0526 0.0000
1.3684 1.1053 0.0000
1.3684 1.1579 0.0000
1.3684 1.2105 0.0000
1.3684 1.2632 0.0000
1.3684 1.3158 0.0000
1.3684 1.3684 0.0000
1.3684 1.4211 0.0000
1.3684 1.4737 0.0000
1.3684 1.5263 0.0000
1.3684 1.5789 0.0000
1.3684 1.6316 0.0000
1.3684 1.6842 0.0000
1.3684 1.7368 0.0000
1.3684 1.7895 0.0000
1.3684 1.8421 0.0000
1.3684 1.8947 0.0000
1.3684 1.9474 0.0000
1.3684 2.0000 0.0000
1.4737 1.0000 0.0000
1.4737 1.0526 0.0000
1.4737 1.1053 0.0000
1.4737 1.1579 0.0000
1.4737 1.2105 0.0000
1.4737 1.2632 0.0000
1.4737 1.3158 0.0000
1.4737 1.3684 0.0000
1.4737 1.4211 0.0000
1.4737 1.4737 0.0000
1.4737 1.5263 0.0000
1.4737 1.5789 0.0000
1.4737 1.6316 0.0000
1.4737 1.6842 0.0000
1.4737 1.7368 0.0000
1.4737 1.7895 0.0000
1.4737 1.8421 0.0000
1.4737 1.8947 0.0000
1.4737 1.9474 0.0000
1.4737 2.0000 0.0000
1.5789 1.0000 0.0000
1.5789 1.0526 0.0000
1.5789 1.1053 0.0000
1.5789 1.1579 0.0000
1.5789 1.2105 0.0000
1.5789 1.2632 0.0000
1.5789 1.3158 0.0000
1.5789 1.3684 0.0000
1.5789 1.4211 0.0000
1.5789 1.4737 0.0000
1.5789 1.5263 0.0000
1.5789 1.5789 0.0000
1.5789 1.6316 0.0000
1.5789 1.6842 0.0000
1.5789 1.7368 0.0000
1.5789 1.7895 0.0000
1.5789 1.8421 0.0000
1.5789 1.8947 0.0000
1.5789 1.9474 0.0000
1.5789 2.0000 0.0000
1.6842 1.0000 0.0000
1.6842 1.0526 0.0000
1.6842 1.1053 0.0000
1.6842 1.1579 0.0000
1.6842 1.2105 0.0000
1.6842 1.2632 0.0000
1.6842 1.3158 0.0000
1.6842 1.3684 0.0000
1.6842 1.4211 0.0000
1.6842 1.4737 0.0000
1.6842 1.5263 0.0000
1.6842 1.5789 0.0000
1.6842 1.6316 0.0000
1.6842 1.6842 0.0000
1.6842 1.7368 0.0000
1.6842 1.7895 0.0000
1.6842 1.8421 0.0000
1.6842 1.8947 0.0000
1.6842 1.9474 0.0000
1.6842 2.0000 0.0000
1.7895 1.0000 0.0000
1.7895 1.0526 0.0000
1.7895 1.1053 0.0000
1.7895 1.1579 0.0000
1.7895 1.2105 0.0000
1.7895 1.2632 0.0000
1.7895 1.3158 0.0000
1.7895 1.3684 0.0000
1.7895 1.4211 0.0000
1.7895 1.4737 0.0000
1.7895 1.5263 0.0000
1.7895 1.5789 0.0000
1.7895 1.6316 0.0000
1.7895 1.6842 0.0000
1.7895 1.7368 0.0000
1.7895 1.7895 0.0000
1.7895 1.8421 0.0000
1.7895 1.8947 0.0000
1.7895 1.9474 0.0000
1.7895 2.0000 0.0000
1.8947 1.0000 0.0000
1.8947 1.0526 0.0000
1.8947 1.1053 0.0000
1.8947 1.1579 0.0000
1.8947 1.2105 0.0000
1.8947 1.2632 0.0000
1.8947 1.3158 0.0000
1.8947 1.3684 0.0000
1.8947 1.4211 0.0000
1.8947 1.4737 0.0000
1.8947 1.5263 0.0000
1.8947 1.5789 0.0000
1.8947 1.6316 0.0000
1.8947 1.6842 0.0000
1.8947 1.7368 0.0000
1.8947 1.7895 0.0000
1.8947 1.8421 0.0000
1.8947 1.8947 0.0000
1.8947 1.9474 0.0000
1.8947 2.0000 0.0000
2.0000 1.0000 0.0000
2.0000 1.0526 0.0000
2.0000 1.1053 0.0000
2.0000 1.1579 0.0000
2.0000 1.2105 0.0000
2.0000 1.2632 0.0000
2.0000 1.3158 0.0000
2.0000 1.3684 0.0000
2.0000 1.4211 0.0000
2.0000 1.4737 0.0000
2.0000 1.5263 0.0000
2.0000 1.5789 0.0000
2.0000 1.6316 0.0000
2.0000 1.6842 0.0000
2.0000 1.7368 0.0000
2.0000 1.7895 0.0000
2.0000 1.8421 0.0000
2.0000 1.8947 0.0000
2.0000 1.9474 0.0000
2.0000 2.0000 0.0000
0.0526 1.0263 0.0000
0.0526 1.0789 0.0000
0.0526 1.1316 0.0000
0.0526 1.1842 0.0000
0.0526 1.2368 0.0000
0.0526 1.2895 0.0000
0.0526 1.3421 0.0000
0.0526 1.3947 0.0000
0.0526 1.4474 0.0000
0.0526 1.5000 0.0000
0.0526 1.5526 0.0000
0.0526 1.6053 0.0000
0.0526 1.6579 0.0000
0.0526 1.7105 0.0000
0.0526 1.7632 0.0000
0.0526 1.8158 0.0000
0.0526 1.8684 0.0000
0.0526 1.9211 0.0000
0.0526 1.9737 0.0000
0.1579 1.0263 0.0000
0.1579 1.0789 0.0000
0.1579 1.1316 0.0000
0.1579 1.1842 0.0000
0.1579 1.2368 0.0000
0.1579 1.2895 0.0000
0.1579 1.3421 0.0000
0.1579 1.3947 0.0000
0.1579 1.4474 0.0000
0.1579 1.5000 0.0000
0.1579 1.5526 0.0000
0.1579 1.6053 0.0000
0.1579 1.6579 0.0000
0.1579 1.7105 0.0000
0.1579 1.7632 0.0000
0.1579 1.8158 0.0000
0.1579 1.8684 0.0000
0.1579 1.9211 0.0000
0.1579 1.9737 0.0000
0.2632 1.0263 0.0000
0.2632 1.0789 0.0000
0.2632 1.1316 0.0000
0.2632 1.1842 0.0000
0.2632 1.2368 0.0000
0.2632 1.2895 0.0000
0.2632 1.3421 0.0000
0.2632 1.3947 0.0000
0.2632 1.4474 0.0000
0.2632 1.5000 0.0000
0.2632 1.5526 0.0000
0.2632 1.6053 0.0000
0.2632 1.6579 0.0000
0.2632 1.7105 0.0000
0.2632 1.7632 0.0000
0.2632 1.8158 0.0000
0.2632 1.8684 0.0000
0.2632 1.9211 0.0000
0.2632 1.9737 0.0000
0.3684 1.0263 0.0000
0.3684 1.0789 0.0000
0.3684 1.1316 0.0000
0.3684 1.1842 0.0000
[...]
         <PointData>
            <DataArray Name="displacement" NumberOfComponents="3" format="ascii" type="Float64">
-1.08163e-17 -6.06588e-18        00000 
 2.89810e-18 -9.66032e-19        00000 
-5.24473e-18  3.57595e-18        00000 
-1.36285e-18  5.39151e-19        00000 
 1.90717e-18 -3.57595e-19        00000 
-4.36802e-18  8.51705e-19        00000 
 1.43038e-18 -9.53587e-19        00000 
 9.49130e-19  1.51262e-18        00000 
-1.78798e-19 -1.19198e-19        00000 
 2.10427e-19 -9.61953e-19        00000 
-3.42695e-19  1.43038e-18        00000 
 6.79555e-19 -1.30295e-18        00000 
 4.76794e-19 -1.19198e-18        00000 
-2.69534e-18 -1.72864e-18        00000 
 2.02637e-18 -8.34389e-19        00000 
 2.84552e-19 -3.14505e-19        00000 
-4.76794e-19 -1.43038e-18        00000 
 1.92404e-18  9.62022e-19        00000 
-1.44265e-18  2.64486e-18        00000 
-2.16229e-18 -3.18417e-18        00000 
 5.34365e-02  3.32549e-02        00000 
 4.07825e-02  2.53511e-02        00000 
 3.29156e-02  2.02097e-02        00000 
 2.68136e-02  1.67311e-02        00000 
 2.16833e-02  1.43004e-02        00000 
 1.71447e-02  1.25786e-02        00000 
 1.29812e-02  1.13660e-02        00000 
 9.05829e-03  1.05415e-02        00000 
 5.28491e-03  1.00311e-02        00000 
 1.59261e-03  9.79260e-03        00000 
-2.07630e-03  9.80735e-03        00000 
-5.77662e-03  1.00766e-02        00000 
-9.56709e-03  1.06220e-02        00000 
-1.35187e-02  1.14894e-02        00000 
-1.77275e-02  1.27583e-02        00000 
-2.23382e-02  1.45594e-02        00000 
-2.75873e-02  1.71075e-02        00000 
-3.38886e-02  2.07593e-02        00000 
-4.20553e-02  2.61174e-02        00000 
-5.48196e-02  3.41724e-02        00000 
 9.40546e-02  5.99632e-02        00000 
 7.96443e-02  5.39177e-02        00000 
 6.63203e-02  4.81903e-02        00000 
 5.47609e-02  4.34400e-02        00000 
 4.45475e-02  3.96883e-02        00000 
 3.53057e-02  3.68138e-02        00000 
 2.67503e-02  3.46829e-02        00000 
 1.86669e-02  3.31844e-02        00000 
 1.08895e-02  3.22374e-02        00000 
 3.28198e-03  3.17906e-02        00000 
-4.27594e-03  3.18197e-02        00000 
-1.19001e-02  3.23265e-02        00000 
-1.97125e-02  3.33386e-02        00000 
-2.78526e-02  3.49111e-02        00000 
-3.64927e-02  3.71288e-02        00000 
-4.58566e-02  4.01060e-02        00000 
-5.62389e-02  4.39754e-02        00000 
-6.80049e-02  4.88448e-02        00000 
-8.14910e-02  5.46633e-02        00000 
-9.59311e-02  6.07880e-02        00000 
 1.30970e-01  9.25076e-02        00000 
 1.13483e-01  8.68162e-02        00000 
 9.69071e-02  8.16890e-02        00000 
 8.13330e-02  7.71125e-02        00000 
 6.68377e-02  7.32092e-02        00000 
 5.32993e-02  7.00243e-02        00000 
 4.05326e-02  6.75473e-02        00000 
 2.83452e-02  6.57441e-02        00000 
 1.65547e-02  6.45782e-02        00000 
 4.99211e-03  6.40214e-02        00000 
-6.50302e-03  6.40591e-02        00000 
-1.80882e-02  6.46923e-02        00000 
-2.99246e-02  6.59378e-02        00000 
-4.21836e-02  6.78251e-02        00000 
-5.50496e-02  7.03914e-02        00000 
-6.87165e-02  7.36690e-02        00000 
-8.33639e-02  7.76637e-02        00000 
-9.90909e-02  8.23240e-02        00000 
-1.15778e-01  8.75297e-02        00000 
-1.33276e-01  9.32999e-02        00000 
 1.65388e-01  1.31660e-01        00000 
 1.44539e-01  1.26411e-01        00000 
 1.24619e-01  1.21689e-01        00000 
 1.05611e-01  1.17502e-01        00000 
 8.74833e-02  1.13867e-01        00000 
 7.01828e-02  1.10818e-01        00000 
 5.36005e-02  1.08382e-01        00000 
 3.75912e-02  1.06568e-01        00000 
 2.19927e-02  1.05375e-01        00000 
 6.63673e-03  1.04801e-01        00000 
-8.64652e-03  1.04841e-01        00000 
-2.40269e-02  1.05496e-01        00000 
-3.96743e-02  1.06770e-01        00000 
-5.57569e-02  1.08666e-01        00000 
-7.24362e-02  1.11184e-01        00000 
-8.98547e-02  1.14313e-01        00000 
-1.08114e-01  1.18026e-01        00000 
-1.27254e-01  1.22287e-01        00000 
-1.47267e-01  1.27083e-01        00000 
-1.68116e-01  1.32408e-01        00000 
 1.97300e-01  1.77630e-01        00000 
 1.73166e-01  1.72786e-01        00000 
 1.50009e-01  1.68455e-01        00000 
 1.27751e-01  1.64628e-01        00000 
 1.06324e-01  1.61311e-01        00000 
 8.56488e-02  1.58520e-01        00000 
 6.56278e-02  1.56271e-01        00000 
 4.61374e-02  1.54581e-01        00000 
 2.70344e-02  1.53462e-01        00000 
 8.16331e-03  1.52920e-01        00000 
-1.06378e-02  1.52959e-01        00000 
-2.95327e-02  1.53578e-01        00000 
-4.86829e-02  1.54773e-01        00000 
-6.82429e-02  1.56539e-01        00000 
-8.83542e-02  1.58863e-01        00000 
-1.09138e-01  1.61727e-01        00000 
-1.30687e-01  1.65113e-01        00000 
-1.53066e-01  1.69009e-01        00000 
-1.76310e-01  1.73410e-01        00000 
-2.00437e-01  1.78326e-01        00000 
 2.26694e-01  2.30062e-01        00000 
 1.99471e-01  2.25620e-01        00000 
 1.73264e-01  2.21658e-01        00000 
 1.47967e-01  2.18170e-01        00000 
 1.23484e-01  2.15157e-01        00000 
 9.97221e-02  2.12626e-01        00000 
 7.65749e-02  2.10589e-01        00000 
 5.39225e-02  2.09057e-01        00000 
 3.16310e-02  2.08041e-01        00000 
 9.55564e-03  2.07549e-01        00000 
-1.24545e-02  2.07584e-01        00000 
-3.45524e-02  2.08147e-01        00000 
-5.68884e-02  2.09233e-01        00000 
-7.96061e-02  2.10834e-01        00000 
-1.02838e-01  2.12939e-01        00000 
-1.26703e-01  2.15536e-01        00000 
-1.51302e-01  2.18614e-01        00000 
-1.76716e-01  2.22165e-01        00000 
-2.03004e-01  2.26191e-01        00000 
-2.30216e-01  2.30701e-01        00000 
 2.53593e-01  2.88479e-01        00000 
 2.23523e-01  2.84429e-01        00000 
 1.94495e-01  2.80822e-01        00000 
 1.66388e-01  2.77653e-01        00000 
 1.39092e-01  2.74923e-01        00000 
 1.12500e-01  2.72636e-01        00000 
 8.65032e-02  2.70798e-01        00000 
 6.09785e-02  2.69419e-01        00000 
 3.57959e-02  2.68505e-01        00000 
 1.08174e-02  2.68062e-01        00000 
-1.40999e-02  2.68094e-01        00000 
-3.90998e-02  2.68600e-01        00000 
-6.43247e-02  2.69577e-01        00000 
-8.99116e-02  2.71018e-01        00000 
-1.15990e-01  2.72917e-01        00000 
-1.42680e-01  2.75264e-01        00000 
-1.70089e-01  2.78053e-01        00000 
-1.98310e-01  2.81280e-01        00000 
-2.27416e-01  2.84947e-01        00000 
-2.57472e-01  2.89059e-01        00000 
 2.78053e-01  3.52367e-01        00000 
 2.45388e-01  3.48696e-01        00000 
 2.13782e-01  3.45430e-01        00000 
 1.83105e-01  3.42564e-01        00000 
 1.53239e-01  3.40099e-01        00000 
 1.24070e-01  3.38038e-01        00000 
 9.54834e-02  3.36385e-01        00000 
 6.73559e-02  3.35145e-01        00000 
 3.95587e-02  3.34325e-01        00000 
 1.19577e-02  3.33927e-01        00000 
-1.55846e-02  3.33955e-01        00000 
-4.32063e-02  3.34409e-01        00000 
-7.10444e-02  3.35285e-01        00000 
-9.92323e-02  3.36579e-01        00000 
-1.27898e-01  3.38287e-01        00000 
-1.57164e-01  3.40402e-01        00000 
-1.87141e-01  3.42921e-01        00000 
-2.17929e-01  3.45839e-01        00000 
-2.49611e-01  3.49160e-01        00000 
-2.82261e-01  3.52887e-01        00000 
 3.00144e-01  4.21211e-01        00000 
 2.65134e-01  4.17909e-01        00000 
 2.31194e-01  4.14971e-01        00000 
 1.98190e-01  4.12396e-01        00000 
 1.65997e-01  4.10182e-01        00000 
 1.34498e-01  4.08331e-01        00000 
 1.03573e-01  4.06848e-01        00000 
 7.30982e-02  4.05737e-01        00000 
 4.29464e-02  4.05001e-01        00000 
 1.29853e-02  4.04645e-01        00000 
-1.69188e-02  4.04669e-01        00000 
-4.69003e-02  4.05074e-01        00000 
-7.70925e-02  4.05858e-01        00000 
-1.07627e-01  4.07018e-01        00000 
-1.38630e-01  4.08549e-01        00000 
-1.70225e-01  4.10447e-01        00000 
-2.02528e-01  4.12708e-01        00000 
-2.35642e-01  4.15332e-01        00000 
-2.69656e-01  4.18318e-01        00000 
-3.04651e-01  4.21671e-01        00000 
 3.19933e-01  4.94513e-01        00000 
 2.82820e-01  4.91570e-01        00000 
 2.46788e-01  4.88951e-01        00000 
 2.11698e-01  4.86654e-01        00000 
 1.77421e-01  4.84679e-01        00000 
 1.43834e-01  4.83027e-01        00000 
 1.10816e-01  4.81702e-01        00000 
 7.82406e-02  4.80708e-01        00000 
 4.59810e-02  4.80050e-01        00000 
 1.39075e-02  4.79730e-01        00000 
-1.81109e-02  4.79750e-01        00000 
-5.02049e-02  4.80111e-01        00000 
-8.25050e-02  4.80811e-01        00000 
-1.15140e-01  4.81846e-01        00000 
-1.48238e-01  4.83212e-01        00000 
-1.81921e-01  4.84906e-01        00000 
-2.16308e-01  4.86923e-01        00000 
-2.51508e-01  4.89262e-01        00000 
-2.87614e-01  4.91925e-01        00000 
-3.24711e-01  4.94915e-01        00000 
 3.37475e-01  5.71794e-01        00000 
 2.98498e-01  5.69201e-01        00000 
 2.60613e-01  5.66892e-01        00000 
 2.23679e-01  5.64864e-01        00000 
 1.87559e-01  5.63116e-01        00000 
 1.52126e-01  5.61649e-01        00000 
 1.17253e-01  5.60469e-01        00000 
 8.28146e-02  5.59580e-01        00000 
 4.86830e-02  5.58990e-01        00000 
 1.47310e-02  5.58702e-01        00000 
-1.91681e-02  5.58719e-01        00000 
-5.31409e-02  5.59041e-01        00000 
-8.73140e-02  5.59665e-01        00000 
-1.21814e-01  5.60587e-01        00000 
-1.56767e-01  5.61802e-01        00000 
-1.92299e-01  5.63304e-01        00000 
-2.28532e-01  5.65089e-01        00000 
-2.65578e-01  5.67155e-01        00000 
-3.03538e-01  5.69502e-01        00000 
-3.42500e-01  5.72137e-01        00000 
 3.52810e-01  6.52587e-01        00000 
 3.12202e-01  6.50340e-01        00000 
 2.72708e-01  6.48335e-01        00000 
 2.34175e-01  6.46565e-01        00000 
 1.96458e-01  6.45028e-01        00000 
 1.59420e-01  6.43730e-01        00000 
 1.22929e-01  6.42677e-01        00000 
 8.68566e-02  6.41878e-01        00000 
 5.10758e-02  6.41344e-01        00000 
 1.54641e-02  6.41082e-01        00000 
-2.00988e-02  6.41096e-01        00000 
-5.57321e-02  6.41385e-01        00000 
-9.15558e-02  6.41946e-01        00000 
-1.27692e-01  6.42772e-01        00000 
-1.64267e-01  6.43853e-01        00000 
-2.01407e-01  6.45181e-01        00000 
-2.39241e-01  6.46748e-01        00000 
-2.77891e-01  6.48550e-01        00000 
-3.17464e-01  6.50591e-01        00000 
-3.58058e-01  6.52875e-01        00000 
 3.65943e-01  7.36437e-01        00000 
 3.23946e-01  7.34536e-01        00000 
 2.83099e-01  7.32829e-01        00000 
 2.43230e-01  7.31304e-01        00000 
 2.04174e-01  7.29960e-01        00000 
 1.65779e-01  7.28807e-01        00000 
 1.27904e-01  7.27857e-01        00000 
 9.04162e-02  7.27126e-01        00000 
 5.31922e-02  7.26632e-01        00000 
 1.61178e-02  7.26387e-01        00000 
-2.09150e-02  7.26398e-01        00000 
-5.80118e-02  7.26664e-01        00000 
-9.52806e-02  7.27180e-01        00000 
-1.32835e-01  7.27933e-01        00000 
-1.70798e-01  7.28905e-01        00000 
-2.09301e-01  7.30082e-01        00000 
-2.48481e-01  7.31451e-01        00000 
-2.88475e-01  7.33003e-01        00000 
-3.29408e-01  7.34740e-01        00000 
-3.71396e-01  7.36675e-01        00000 
 3.76829e-01  8.22868e-01        00000 
 3.33713e-01  8.21323e-01        00000 
 2.91803e-01  8.19912e-01        00000 
 2.50891e-01  8.18621e-01        00000 
 2.10778e-01  8.17451e-01        00000 
 1.71289e-01  8.16416e-01        00000 
 1.32265e-01  8.15539e-01        00000 
 9.35686e-02  8.14848e-01        00000 
 5.50829e-02  8.14371e-01        00000 
 1.67096e-02  8.14131e-01        00000 
-2.16355e-02  8.14140e-01        00000 
-6.00323e-02  8.14399e-01        00000 
-9.85647e-02  8.14895e-01        00000 
-1.37331e-01  8.15604e-01        00000 
-1.76448e-01  8.16500e-01        00000 
-2.16052e-01  8.17554e-01        00000 
-2.56297e-01  8.18744e-01        00000 
-2.97345e-01  8.20057e-01        00000 
-3.39352e-01  8.21493e-01        00000 
-3.82468e-01  8.23068e-01        00000 
 3.85345e-01  9.11331e-01        00000 
 3.41442e-01  9.10161e-01        00000 
 2.98819e-01  9.09058e-01        00000 
 2.57206e-01  9.08007e-01        00000 
 2.16359e-01  9.07010e-01        00000 
 1.76063e-01  9.06085e-01        00000 
 1.36137e-01  9.05263e-01        00000 
 9.64281e-02  9.04586e-01        00000 
 5.68279e-02  9.04103e-01        00000 
 1.72680e-02  9.03854e-01        00000 
-2.22924e-02  9.03864e-01        00000 
-6.18765e-02  9.04133e-01        00000 
-1.01525e-01  9.04635e-01        00000 
-1.41307e-01  9.05331e-01        00000 
-1.81330e-01  9.06171e-01        00000 
-2.21746e-01  9.07113e-01        00000 
-2.62736e-01  9.08128e-01        00000 
-3.04497e-01  9.09197e-01        00000 
-3.47232e-01  9.10321e-01        00000 
-3.91147e-01  9.11515e-01        00000 
 3.91297e-01  1.00108e+00        00000 
 3.47051e-01  1.00031e+00        00000 
 3.04119e-01  9.99554e-01        00000 
 2.62180e-01  9.98809e-01        00000 
 2.20960e-01  9.98072e-01        00000 
 1.80205e-01  9.97339e-01        00000 
 1.39669e-01  9.96623e-01        00000 
 9.91647e-02  9.95982e-01        00000 
 5.85617e-02  9.95476e-01        00000 
 1.78369e-02  9.95211e-01        00000 
-2.29345e-02  9.95225e-01        00000 
-6.36841e-02  9.95516e-01        00000 
-1.04337e-01  9.96048e-01        00000 
-1.44916e-01  9.96713e-01        00000 
-1.85552e-01  9.97453e-01        00000 
-2.26432e-01  9.98208e-01        00000 
-2.67799e-01  9.98963e-01        00000 
-3.09895e-01  9.99726e-01        00000 
-3.52955e-01  1.00050e+00        00000 
-3.97230e-01  1.00128e+00        00000 
 3.94564e-01  1.09099e+00        00000 
 3.50511e-01  1.09064e+00        00000 
 3.07624e-01  1.09031e+00        00000 
 2.65659e-01  1.09005e+00        00000 
 2.24406e-01  1.08986e+00        00000 
 1.83616e-01  1.08967e+00        00000 
 1.42953e-01  1.08938e+00        00000 
 1.01974e-01  1.08894e+00        00000 
 6.05084e-02  1.08856e+00        00000 
 1.85493e-02  1.08824e+00        00000 
-2.37019e-02  1.08826e+00        00000 
-6.56865e-02  1.08861e+00        00000 
-1.07204e-01  1.08904e+00        00000 
-1.48258e-01  1.08951e+00        00000 
-1.89023e-01  1.08984e+00        00000 
-2.29938e-01  1.09006e+00        00000 
-2.71337e-01  1.09029e+00        00000 
-3.13458e-01  1.09056e+00        00000 
-3.56476e-01  1.09091e+00        00000 
-4.00580e-01  1.09126e+00        00000 
 3.95542e-01  1.17964e+00        00000 
 3.52039e-01  1.17962e+00        00000 
 3.09271e-01  1.17975e+00        00000 
 2.67312e-01  1.18016e+00        00000 
 2.26115e-01  1.18088e+00        00000 
 1.85533e-01  1.18191e+00        00000 
 1.45288e-01  1.18314e+00        00000 
 1.04861e-01  1.18420e+00        00000 
 6.29207e-02  1.18438e+00        00000 
 1.93615e-02  1.18479e+00        00000 
-2.45614e-02  1.18482e+00        00000 
-6.81458e-02  1.18448e+00        00000 
-1.10138e-01  1.18436e+00        00000 
-1.50642e-01  1.18334e+00        00000 
-1.90988e-01  1.18218e+00        00000 
-2.31694e-01  1.18119e+00        00000 
-2.73030e-01  1.18051e+00        00000 
-3.15131e-01  1.18013e+00        00000 
-3.58015e-01  1.18002e+00        00000 
-4.01588e-01  1.18004e+00        00000 
 3.95570e-01  1.26637e+00        00000 
 3.52375e-01  1.26634e+00        00000 
 3.09571e-01  1.26634e+00        00000 
 2.67410e-01  1.26668e+00        00000 
 2.25916e-01  1.26770e+00        00000 
 1.84983e-01  1.26981e+00        00000 
 1.44363e-01  1.27359e+00        00000 
 1.03561e-01  1.27991e+00        00000 
 6.18163e-02  1.29003e+00        00000 
 1.89846e-02  1.29469e+00        00000 
-2.42389e-02  1.29473e+00        00000 
-6.70963e-02  1.29017e+00        00000 
-1.08892e-01  1.28015e+00        00000 
-1.49769e-01  1.27392e+00        00000 
-1.90485e-01  1.27023e+00        00000 
-2.31534e-01  1.26818e+00        00000 
-2.73156e-01  1.26721e+00        00000 
-3.15441e-01  1.26689e+00        00000 
-3.58345e-01  1.26689e+00        00000 
-4.01619e-01  1.26692e+00        00000 
 2.26179e-02  1.36819e-02        00000 
 1.78219e-02  1.08301e-02        00000 
 1.44976e-02  8.80025e-03        00000 
 1.18071e-02  7.38524e-03        00000 
 9.47713e-03  6.38395e-03        00000 
 7.36771e-03  5.67353e-03        00000 
 5.39787e-03  5.17908e-03        00000 
 3.51628e-03  4.85451e-03        00000 
 1.68687e-03  4.67225e-03        00000 
-1.18895e-04  4.61774e-03        00000 
-1.92649e-03  4.68681e-03        00000 
-3.76164e-03  4.88492e-03        00000 
-5.65364e-03  5.22818e-03        00000 
-7.64029e-03  5.74632e-03        00000 
-9.77643e-03  6.48886e-03        00000 
-1.21507e-02  7.53658e-03        00000 
-1.49204e-02  9.02206e-03        00000 
-1.83956e-02  1.11610e-02        00000 
-2.34356e-02  1.42034e-02        00000 
 6.74450e-02  4.29898e-02        00000 
 5.49548e-02  3.65051e-02        00000 
 4.50830e-02  3.17331e-02        00000 
 3.67938e-02  2.81573e-02        00000 
 2.95224e-02  2.54892e-02        00000 
 2.29240e-02  2.35259e-02        00000 
 1.67738e-02  2.21252e-02        00000 
 1.09160e-02  2.11908e-02        00000 
 5.23406e-03  2.06613e-02        00000 
-3.67415e-04  2.05027e-02        00000 
-5.97503e-03  2.07053e-02        00000 
-1.16760e-02  2.12819e-02        00000 
-1.75682e-02  2.22698e-02        00000 
-2.37726e-02  2.37346e-02        00000 
-3.04537e-02  2.57785e-02        00000 
-3.78507e-02  2.85510e-02        00000 
-4.63262e-02  3.22626e-02        00000 
-5.64381e-02  3.71977e-02        00000 
-6.90742e-02  4.38001e-02        00000 
 1.04671e-01  7.30647e-02        00000 
 8.92503e-02  6.74045e-02        00000 
 7.49142e-02  6.23019e-02        00000 
 6.18883e-02  5.80363e-02        00000 
 4.99791e-02  5.46061e-02        00000 
 3.89390e-02  5.19449e-02        00000 
 2.85405e-02  4.99748e-02        00000 
 1.85888e-02  4.86275e-02        00000 
 8.91657e-03  4.78524e-02        00000 
-6.25110e-04  4.76194e-02        00000 
-1.01767e-02  4.79195e-02        00000 
-1.98793e-02  4.87645e-02        00000 
-2.98841e-02  5.01873e-02        00000 
-4.03621e-02  5.22409e-02        00000 
-5.15131e-02  5.49956e-02        00000 
-6.35685e-02  5.85286e-02        00000 
-7.67681e-02  6.29000e-02        00000 
-9.12629e-02  6.80951e-02        00000 
-1.06763e-01  7.38358e-02        00000 
 1.38712e-01  1.09091e-01        00000 
 1.19994e-01  1.03895e-01        00000 
 1.02216e-01  9.92352e-02        00000 
 8.53879e-02  9.51447e-02        00000 
 6.94946e-02  9.16916e-02        00000 
 5.44263e-02  8.89005e-02        00000 
 4.00267e-02  8.67669e-02        00000 
 2.61236e-02  8.52737e-02        00000 
 1.25445e-02  8.44021e-02        00000 
-8.79954e-04  8.41390e-02        00000 
-1.43163e-02  8.44801e-02        00000 
-2.79313e-02  8.54311e-02        00000 
-4.18950e-02  8.70062e-02        00000 
-5.63808e-02  8.92245e-02        00000 
-7.15607e-02  9.21024e-02        00000 
-8.75875e-02  9.56417e-02        00000 
-1.04558e-01  9.98140e-02        00000 
-1.22462e-01  1.04551e-01        00000 
-1.41237e-01  1.09822e-01        00000 
 1.70198e-01  1.51870e-01        00000 
 1.48177e-01  1.47087e-01        00000 
 1.27081e-01  1.42820e-01        00000 
 1.06864e-01  1.39074e-01        00000 
 8.74658e-02  1.35870e-01        00000 
 6.88056e-02  1.33234e-01        00000 
 5.07663e-02  1.31183e-01        00000 
 3.32051e-02  1.29727e-01        00000 
 1.59641e-02  1.28869e-01        00000 
-1.12139e-03  1.28610e-01        00000 
-1.82190e-02  1.28948e-01        00000 
-3.54963e-02  1.29885e-01        00000 
-5.31176e-02  1.31420e-01        00000 
-7.12398e-02  1.33550e-01        00000 
-9.00036e-02  1.36264e-01        00000 
-1.09522e-01  1.39543e-01        00000 
-1.29868e-01  1.43361e-01        00000 
-1.51076e-01  1.47700e-01        00000 
-1.73144e-01  1.52555e-01        00000 
 1.99250e-01  2.01287e-01        00000 
 1.74061e-01  1.96896e-01        00000 