<?xml version="1.0" encoding="utf-8"?>
<VTKFile byte_order="LittleEndian" type="UnstructuredGrid" version="0.1">
   <UnstructuredGrid>
      <Piece NumberOfCells="1444" NumberOfPoints="761">
         <Points>
            <DataArray Name="Points" NumberOfComponents="3" format="ascii" type="Float32">
0.0000 1.0000 0.0000
0.0000 1.0526 0.0000
0.0000 1.1053 0.0000
0.0000 1.1579 0.0000
0.0000 1.2105 0.0000
0.0000 1.2632 0.0000
0.0000 1.3158 0.0000
0.0000 1.3684 0.0000
0.0000 1.4211 0.0000
0.0000 1.4737 0.0000
0.0000 1.5263 0.0000
0.0000 1.5789 0.0000
0.0000 1.6316 0.0000
0.0000 1.6842 0.0000
0.0000 1.7368 0.0000
0.0000 1.7895 0.0000
0.0000 1.8421 0.0000
0.0000 1.8947 0.0000
0.0000 1.9474 0.0000
0.0000 2.0000 0.0000
0.1053 1.0000 0.0000
0.1053 1.0526 0.0000
0.1053 1.1053 0.0000
0.1053 1.1579 0.0000
0.1053 1.2105 0.0000
0.1053 1.2632 0.0000
0.1053 1.3158 0.0000
0.1053 1.3684 0.0000
0.1053 1.4211 0.0000
0.1053 1.4737 0.0000
0.1053 1.5263 0.0000
0.1053 1.5789 0.0000
0.1053 1.6316 0.0000
0.1053 1.6842 0.0000
0.1053 1.7368 0.0000
0.1053 1.7895 0.0000
0.1053 1.8421 0.0000
0.1053 1.8947 0.0000
0.1053 1.9474 0.0000
0.1053 2.0000 0.0000
0.2105 1.0000 0.0000
0.2105 1.0526 0.0000
0.2105 1.1053 0.0000
0.2105 1.1579 0.0000
0.2105 1.2105 0.0000
0.2105 1.2632 0.0000
0.2105 1.3158 0.0000
0.2105 1.3684 0.0000
0.2105 1.4211 0.0000
0.2105 1.4737 0.0000
0.2105 1.5263 0.0000
0.2105 1.5789 0.0000
0.2105 1.6316 0.0000
0.2105 1.6842 0.0000
0.2105 1.7368 0.0000
0.2105 1.7895 0.0000
0.2105 1.8421 0.0000
0.2105 1.8947 0.0000
0.2105 1.9474 0.0000
0.2105 2.0000 0.0000
0.3158 1.0000 0.0000
0.3158 1.0526 0.0000
0.3158 1.1053 0.0000
0.3158 1.1579 0.0000
0.3158 1.2105 0.0000
0.3158 1.2632 0.0000
0.3158 1.3158 0.0000
0.3158 1.3684 0.0000
0.3158 1.4211 0.0000
0.3158 1.4737 0.0000
0.3158 1.5263 0.0000
0.3158 1.5789 0.0000
0.3158 1.6316 0.0000
0.3158 1.6842 0.0000
0.3158 1.7368 0.0000
0.3158 1.7895 0.0000
0.3158 1.8421 0.0000
0.3158 1.8947 0.0000
0.3158 1.9474 0.0000
0.3158 2.0000 0.0000
0.4211 1.0000 0.0000
0.4211 1.0526 0.0000
0.4211 1.1053 0.0000
0.4211 1.1579 0.0000
0.4211 1.2105 0.0000
0.4211 1.2632 0.0000
0.4211 1.3158 0.0000
0.4211 1.3684 0.0000
0.4211 1.4211 0.0000
0.4211 1.4737 0.0000
0.4211 1.5263 0.0000
0.4211 1.5789 0.0000
0.4211 1.6316 0.0000
0.4211 1.6842 0.0000
0.4211 1.7368 0.0000
0.4211 1.7895 0.0000
0.4211 1.8421 0.0000
0.4211 1.8947 0.0000
0.4211 1.9474 0.0000
0.4211 2.0000 0.0000
0.5263 1.0000 0.0000
0.5263 1.0526 0.0000
0.5263 1.1053 0.0000
0.5263 1.1579 0.0000
0.5263 1.2105 0.0000
0.5263 1.2632 0.0000
0.5263 1.3158 0.0000
0.5263 1.3684 0.0000
0.5263 1.4211 0.0000
0.5263 1.4737 0.0000
0.5263 1.5263 0.0000
0.5263 1.5789 0.0000
0.5263 1.6316 0.0000
0.5263 1.6842 0.0000
0.5263 1.7368 0.0000
0.5263 1.7895 0.0000
0.5263 1.8421 0.0000
0.5263 1.8947 0.0000
0.5263 1.9474 0.0000
0.5263 2.0000 0.0000
0.6316 1.0000 0.0000
0.6316 1.0526 0.0000
0.6316 1.1053 0.0000
0.6316 1.1579 0.0000
0.6316 1.2105 0.0000
0.6316 1.2632 0.0000
0.6316 1.3158 0.0000
0.6316 1.3684 0.0000
0.6316 1.4211 0.0000
0.6316 1.4737 0.0000
0.6316 1.5263 0.0000
0.6316 1.5789 0.0000
0.6316 1.6316 0.0000
0.6316 1.6842 0.0000
0.6316 1.7368 0.0000
0.6316 1.7895 0.0000
0.6316 1.8421 0.0000
0.6316 1.8947 0.0000
0.6316 1.9474 0.0000
0.6316 2.0000 0.0000
0.7368 1.0000 0.0000
0.7368 1.0526 0.0000
0.7368 1.1053 0.0000
0.7368 1.1579 0.0000
0.7368 1.2105 0.0000
0.7368 1.2632 0.0000
0.7368 1.3158 0.0000
0.7368 1.3684 0.0000
0.7368 1.4211 0.0000
0.7368 1.4737 0.0000
0.7368 1.5263 0.0000
0.7368 1.5789 0.0000
0.7368 1.6316 0.0000
0.7368 1.6842 0.0000
0.7368 1.7368 0.0000
0.7368 1.7895 0.0000
0.7368 1.8421 0.0000
0.7368 1.8947 0.0000
0.7368 1.9474 0.0000
0.7368 2.0000 0.0000
0.8421 1.0000 0.0000
0.8421 1.0526 0.0000
0.8421 1.1053 0.0000
0.8421 1.1579 0.0000
0.8421 1.2105 0.0000
0.8421 1.2632 0.0000
0.8421 1.3158 0.0000
0.8421 1.3684 0.0000
0.8421 1.4211 0.0000
0.8421 1.4737 0.0000
0.8421 1.5263 0.0000
0.8421 1.5789 0.0000
0.8421 1.6316 0.0000
0.8421 1.6842 0.0000
0.8421 1.7368 0.0000
0.8421 1.7895 0.0000
0.8421 1.8421 0.0000
0.8421 1.8947 0.0000
0.8421 1.9474 0.0000
0.8421 2.0000 0.0000
0.9474 1.0000 0.0000
0.9474 1.0526 0.0000
0.9474 1.1053 0.0000
0.9474 1.1579 0.0000
0.9474 1.2105 0.0000
0.9474 1.2632 0.0000
0.9474 1.3158 0.0000
0.9474 1.3684 0.0000
0.9474 1.4211 0.0000
0.9474 1.4737 0.0000
0.9474 1.5263 0.0000
0.9474 1.5789 0.0000
0.9474 1.6316 0.0000
0.9474 1.6842 0.0000
0.9474 1.7368 0.0000
0.9474 1.7895 0.0000
0.9474 1.8421 0.0000
0.9474 1.8947 0.0000
0.9474 1.9474 0.0000
0.9474 2.0000 0.0000
1.0526 1.0000 0.0000
1.0526 1.0526 0.0000
1.0526 1.1053 0.0000
1.0526 1.1579 0.0000
1.0526 1.2105 0.0000
1.0526 1.2632 0.0000
1.0526 1.3158 0.0000
1.0526 1.3684 0.0000
1.0526 1.4211 0.0000
1.0526 1.4737 0.0000
1.0526 1.5263 0.0000
1.0526 1.5789 0.0000
1.0526 1.6316 0.0000
1.0526 1.6842 0.0000
1.0526 1.7368 0.0000
1.0526 1.7895 0.0000
1.0526 1.8421 0.0000
1.0526 1.8947 0.0000
1.0526 1.9474 0.0000
1.0526 2.0000 0.0000
1.1579 1.0000 0.0000
1.1579 1.0526 0.0000
1.1579 1.1053 0.0000
1.1579 1.1579 0.0000
1.1579 1.2105 0.0000
1.1579 1.2632 0.0000
1.1579 1.3158 0.0000
1.1579 1.3684 0.0000
1.1579 1.4211 0.0000
1.1579 1.4737 0.0000
1.1579 1.5263 0.0000
1.1579 1.5789 0.0000
1.1579 1.6316 0.0000
1.1579 1.6842 0.0000
1.1579 1.7368 0.0000
1.1579 1.7895 0.0000
1.1579 1.8421 0.0000
1.1579 1.8947 0.0000
1.1579 1.9474 0.0000
1.1579 2.0000 0.0000
1.2632 1.0000 0.0000
1.2632 1.0526 0.0000
1.2632 1.1053 0.0000
1.2632 1.1579 0.0000
1.2632 1.2105 0.0000
1.2632 1.2632 0.0000
1.2632 1.3158 0.0000
1.2632 1.3684 0.0000
1.2632 1.4211 0.0000
1.2632 1.4737 0.0000
1.2632 1.5263 0.0000
1.2632 1.5789 0.0000
1.2632 1.6316 0.0000
1.2632 1.6842 0.0000
1.2632 1.7368 0.0000
1.2632 1.7895 0.0000
1.2632 1.8421 0.0000
1.2632 1.8947 0.0000
1.2632 1.9474 0.0000
1.2632 2.0000 0.0000
1.3684 1.0000 0.0000
1.3684 1.0526 0.0000
1.3684 1.1053 0.0000
1.3684 1.1579 0.0000
1.3684 1.2105 0.0000
1.3684 1.2632 0.0000
1.3684 1.3158 0.0000
1.3684 1.3684 0.0000
1.3684 1.4211 0.0000
1.3684 1.4737 0.0000
1.3684 1.5263 0.0000
1.3684 1.5789 0.0000
1.3684 1.6316 0.0000
1.3684 1.6842 0.0000
1.3684 1.7368 0.0000
1.3684 1.7895 0.0000
1.3684 1.8421 0.0000
1.3684 1.8947 0.0000
1.3684 1.9474 0.0000
1.3684 2.0000 0.0000
1.4737 1.0000 0.0000
1.4737 1.0526 0.0000
1.4737 1.1053 0.0000
1.4737 1.1579 0.0000
1.4737 1.2105 0.0000
1.4737 1.2632 0.0000
1.4737 1.3158 0.0000
1.4737 1.3684 0.0000
1.4737 1.4211 0.0000
1.4737 1.4737 0.0000
1.4737 1.5263 0.0000
1.4737 1.5789 0.0000
1.4737 1.6316 0.0000
1.4737 1.6842 0.0000
1.4737 1.7368 0.0000
1.4737 1.7895 0.0000
1.4737 1.8421 0.0000
1.4737 1.8947 0.0000
1.4737 1.9474 0.0000
1.4737 2.0000 0.0000
1.5789 1.0000 0.0000
1.5789 1.0526 0.0000
1.5789 1.1053 0.0000
1.5789 1.1579 0.0000
1.5789 1.2105 0.0000
1.5789 1.2632 0.0000
1.5789 1.3158 0.0000
1.5789 1.3684 0.0000
1.5789 1.4211 0.0000
1.5789 1.4737 0.0000
1.5789 1.5263 0.0000
1.5789 1.5789 0.0000
1.5789 1.6316 0.0000
1.5789 1.6842 0.0000
1.5789 1.7368 0.0000
1.5789 1.7895 0.0000
1.5789 1.8421 0.0000
1.5789 1.8947 0.0000
1.5789 1.9474 0.0000
1.5789 2.0000 0.0000
1.6842 1.0000 0.0000
1.6842 1.0526 0.0000
1.6842 1.1053 0.0000
1.6842 1.1579 0.0000
1.6842 1.2105 0.0000
1.6842 1.2632 0.0000
1.6842 1.3158 0.0000
1.6842 1.3684 0.0000
1.6842 1.4211 0.0000
1.6842 1.4737 0.0000
1.6842 1.5263 0.0000
1.6842 1.5789 0.0000
1.6842 1.6316 0.0000
1.6842 1.6842 0.0000
1.6842 1.7368 0.0000
1.6842 1.7895 0.0000
1.6842 1.8421 0.0000
1.6842 1.8947 0.0000
1.6842 1.9474 0.0000
1.6842 2.0000 0.0000
1.7895 1.0000 0.0000
1.7895 1.0526 0.0000
1.7895 1.1053 0.0000
1.7895 1.1579 0.0000
1.7895 1.2105 0.0000
1.7895 1.2632 0.0000
1.7895 1.3158 0.0000
1.7895 1.3684 0.0000
1.7895 1.4211 0.0000
1.7895 1.4737 0.0000
1.7895 1.5263 0.0000
1.7895 1.5789 0.0000
1.7895 1.6316 0.0000
1.7895 1.6842 0.0000
1.7895 1.7368 0.0000
1.7895 1.7895 0.0000
1.7895 1.8421 0.0000
1.7895 1.8947 0.0000
1.7895 1.9474 0.0000
1.7895 2.0000 0.0000
1.8947 1.0000 0.0000
1.8947 1.0526 0.0000
1.8947 1.1053 0.0000
1.8947 1.1579 0.0000
1.8947 1.2105 0.0000
1.8947 1.2632 0.0000
1.8947 1.3158 0.0000
1.8947 1.3684 0.0000
1.8947 1.4211 0.0000
1.8947 1.4737 0.0000
1.8947 1.5263 0.0000
1.8947 1.5789 0.0000
1.8947 1.6316 0.0000
1.8947 1.6842 0.0000
1.8947 1.7368 0.0000
1.8947 1.7895 0.0000
1.8947 1.8421 0.0000
1.8947 1.8947 0.0000
1.8947 1.9474 0.0000
1.8947 2.0000 0.0000
2.0000 1.0000 0.0000
2.0000 1.0526 0.0000
2.0000 1.1053 0.0000
2.0000 1.1579 0.0000
2.0000 1.2105 0.0000
2.0000 1.2632 0.0000
2.0000 1.3158 0.0000
2.0000 1.3684 0.0000
2.0000 1.4211 0.0000
2.0000 1.4737 0.0000
2.0000 1.5263 0.0000
2.0000 1.5789 0.0000
2.0000 1.6316 0.0000
2.0000 1.6842 0.0000
2.0000 1.7368 0.0000
2.0000 1.7895 0.0000
2.0000 1.8421 0.0000
2.0000 1.8947 0.0000
2.0000 1.9474 0.0000
2.0000 2.0000 0.0000
0.0526 1.0263 0.0000
0.0526 1.0789 0.0000
0.0526 1.1316 0.0000
0.0526 1.1842 0.0000
0.0526 1.2368 0.0000
0.0526 1.2895 0.0000
0.0526 1.3421 0.0000
0.0526 1.3947 0.0000
0.0526 1.4474 0.0000
0.0526 1.5000 0.0000
0.0526 1.5526 0.0000
0.0526 1.6053 0.0000
0.0526 1.6579 0.0000
0.0526 1.7105 0.0000
0.0526 1.7632 0.0000
0.0526 1.8158 0.0000
0.0526 1.8684 0.0000
0.0526 1.9211 0.0000
0.0526 1.9737 0.0000
0.1579 1.0263 0.0000
0.1579 1.0789 0.0000
0.1579 1.1316 0.0000
0.1579 1.1842 0.0000
0.1579 1.2368 0.0000
0.1579 1.2895 0.0000
0.1579 1.3421 0.0000
0.1579 1.3947 0.0000
0.1579 1.4474 0.0000
0.1579 1.5000 0.0000
0.1579 1.5526 0.0000
0.1579 1.6053 0.0000
0.1579 1.6579 0.0000
0.1579 1.7105 0.0000
0.1579 1.7632 0.0000
0.1579 1.8158 0.0000
0.1579 1.8684 0.0000
0.1579 1.9211 0.0000
0.1579 1.9737 0.0000
0.2632 1.0263 0.0000
0.2632 1.0789 0.0000
0.2632 1.1316 0.0000
0.2632 1.1842 0.0000
0.2632 1.2368 0.0000
0.2632 1.2895 0.0000
0.2632 1.3421 0.0000
0.2632 1.3947 0.0000
0.2632 1.4474 0.0000
0.2632 1.5000 0.0000
0.2632 1.5526 0.0000
0.2632 1.6053 0.0000
0.2632 1.6579 0.0000
0.2632 1.7105 0.0000
0.2632 1.7632 0.0000
0.2632 1.8158 0.0000
0.2632 1.8684 0.0000
0.2632 1.9211 0.0000
0.2632 1.9737 0.0000
0.3684 1.0263 0.0000
0.3684 1.0789 0.0000
0.3684 1.1316 0.0000
0.3684 1.1842 0.0000
[...]
         <PointData>
            <DataArray Name="displacement" NumberOfComponents="3" format="ascii" type="Float64">
-2.52295e-18 -5.36954e-19        00000 
       00000 -2.89810e-18        00000 
 3.33756e-18  9.53587e-19        00000 
-4.65766e-18 -7.63797e-19        00000 
 2.38397e-18 -4.76794e-19        00000 
 5.40145e-19 -1.92539e-18        00000 
-2.62237e-18  8.34389e-19        00000 
-9.97803e-19 -2.33632e-18        00000 
-9.98287e-19  1.66878e-18        00000 
 5.41099e-19 -1.92391e-18        00000 
 5.95992e-20  1.19198e-18        00000 
-4.90477e-19 -4.26828e-19        00000 
 2.14557e-18 -9.53587e-19        00000 
-1.70177e-18 -2.04170e-18        00000 
 9.53587e-19 -1.54958e-18        00000 
 1.19811e-18 -5.28667e-18        00000 
 1.43038e-18  5.00633e-18        00000 
-5.77213e-18 -4.81011e-18        00000 
 2.88530e-18  4.56839e-18        00000 
-8.29019e-18 -4.92653e-18        00000 
 6.42974e-02  3.95046e-02        00000 
 4.92099e-02  3.01011e-02        00000 
 3.95627e-02  2.39621e-02        00000 
 3.20477e-02  1.97930e-02        00000 
 2.57811e-02  1.68759e-02        00000 
 2.02926e-02  1.48099e-02        00000 
 1.53001e-02  1.33565e-02        00000 
 1.06254e-02  1.23699e-02        00000 
 6.14730e-03  1.17616e-02        00000 
 1.77480e-03  1.14811e-02        00000 
-2.56871e-03  1.15062e-02        00000 
-6.95621e-03  1.18392e-02        00000 
-1.14663e-02  1.25069e-02        00000 
-1.61948e-02  1.35659e-02        00000 
-2.12721e-02  1.51142e-02        00000 
-2.68946e-02  1.73129e-02        00000 
-3.33798e-02  2.04257e-02        00000 
-4.12605e-02  2.48852e-02        00000 
-5.14737e-02  3.13956e-02        00000 
-6.67892e-02  4.10496e-02        00000 
 1.11832e-01  7.05073e-02        00000 
 9.48986e-02  6.35037e-02        00000 
 7.89700e-02  5.68042e-02        00000 
 6.50525e-02  5.11995e-02        00000 
 5.27623e-02  4.67478e-02        00000 
 4.16849e-02  4.33272e-02        00000 
 3.14772e-02  4.07893e-02        00000 
 2.18712e-02  3.90062e-02        00000 
 1.26554e-02  3.78836e-02        00000 
 3.65486e-03  3.73612e-02        00000 
-5.28582e-03  3.74110e-02        00000 
-1.43167e-02  3.80358e-02        00000 
-2.35959e-02  3.92695e-02        00000 
-3.33046e-02  4.11784e-02        00000 
-4.36647e-02  4.38633e-02        00000 
-5.49598e-02  4.74564e-02        00000 
-6.75483e-02  5.21038e-02        00000 
-8.18307e-02  5.79034e-02        00000 
-9.80546e-02  6.47432e-02        00000 
-1.15061e-01  7.18619e-02        00000 
 1.54302e-01  1.08301e-01        00000 
 1.33904e-01  1.01776e-01        00000 
 1.14397e-01  9.58705e-02        00000 
 9.59536e-02  9.05590e-02        00000 
 7.87420e-02  8.59967e-02        00000 
 6.26691e-02  8.22551e-02        00000 
 4.75365e-02  7.93368e-02        00000 
 3.31179e-02  7.72113e-02        00000 
 1.91913e-02  7.58410e-02        00000 
 5.54578e-03  7.51958e-02        00000 
-8.02028e-03  7.52600e-02        00000 
-2.17057e-02  7.60353e-02        00000 
-3.57136e-02  7.75405e-02        00000 
-5.02577e-02  7.98081e-02        00000 
-6.55631e-02  8.28759e-02        00000 
-8.18560e-02  8.67707e-02        00000 
-9.93237e-02  9.14810e-02        00000 
-1.18021e-01  9.69237e-02        00000 
-1.37715e-01  1.02948e-01        00000 
-1.58137e-01  1.09589e-01        00000 
 1.93630e-01  1.53731e-01        00000 
 1.69386e-01  1.47752e-01        00000 
 1.46113e-01  1.42362e-01        00000 
 1.23816e-01  1.37565e-01        00000 
 1.02495e-01  1.33377e-01        00000 
 8.21237e-02  1.29849e-01        00000 
 6.25968e-02  1.27019e-01        00000 
 4.37539e-02  1.24908e-01        00000 
 2.54050e-02  1.23525e-01        00000 
 7.34695e-03  1.22867e-01        00000 
-1.06278e-02  1.22935e-01        00000 
-2.87279e-02  1.23728e-01        00000 
-4.71606e-02  1.25248e-01        00000 
-6.61280e-02  1.27494e-01        00000 
-8.58174e-02  1.30459e-01        00000 
-1.06383e-01  1.34117e-01        00000 
-1.27916e-01  1.38427e-01        00000 
-1.50420e-01  1.43340e-01        00000 
-1.73842e-01  1.48841e-01        00000 
-1.98088e-01  1.54935e-01        00000 
 2.29895e-01  2.07005e-01        00000 
 2.01900e-01  2.01516e-01        00000 
 1.74960e-01  1.96605e-01        00000 
 1.48997e-01  1.92256e-01        00000 
 1.23953e-01  1.88476e-01        00000 
 9.97568e-02  1.85284e-01        00000 
 7.63114e-02  1.82706e-01        00000 
 5.34826e-02  1.80768e-01        00000 
 3.11069e-02  1.79487e-01        00000 
 9.00193e-03  1.78876e-01        00000 
-1.30252e-02  1.78940e-01        00000 
-3.51699e-02  1.79678e-01        00000 
-5.76239e-02  1.81086e-01        00000 
-8.05671e-02  1.83148e-01        00000 
-1.04159e-01  1.85846e-01        00000 
-1.28527e-01  1.89153e-01        00000 
-1.53761e-01  1.93042e-01        00000 
-1.79911e-01  1.97497e-01        00000 
-2.06985e-01  2.02514e-01        00000 
-2.34968e-01  2.08113e-01        00000 
 2.63129e-01  2.67660e-01        00000 
 2.31626e-01  2.62652e-01        00000 
 2.01237e-01  2.58183e-01        00000 
 1.71845e-01  2.54244e-01        00000 
 1.43356e-01  2.50835e-01        00000 
 1.15674e-01  2.47968e-01        00000 
 8.86877e-02  2.45656e-01        00000 
 6.22667e-02  2.43917e-01        00000 
 3.62591e-02  2.42768e-01        00000 
 1.04983e-02  2.42219e-01        00000 
-1.51915e-02  2.42277e-01        00000 
-4.09887e-02  2.42940e-01        00000 
-6.70680e-02  2.44203e-01        00000 
-9.35934e-02  2.46052e-01        00000 
-1.20713e-01  2.48472e-01        00000 
-1.48555e-01  2.51443e-01        00000 
-1.77221e-01  2.54952e-01        00000 
-2.06789e-01  2.58988e-01        00000 
-2.37304e-01  2.63556e-01        00000 
-2.68789e-01  2.68668e-01        00000 
 2.93404e-01  3.35111e-01        00000 
 2.58684e-01  3.30564e-01        00000 
 2.25115e-01  3.26512e-01        00000 
 1.92562e-01  3.22951e-01        00000 
 1.60908e-01  3.19879e-01        00000 
 1.30040e-01  3.17304e-01        00000 
 9.98407e-02  3.15234e-01        00000 
 7.01746e-02  3.13681e-01        00000 
 4.08953e-02  3.12656e-01        00000 
 1.18456e-02  3.12167e-01        00000 
-1.71382e-02  3.12218e-01        00000 
-4.62218e-02  3.12808e-01        00000 
-7.55676e-02  3.13934e-01        00000 
-1.05331e-01  3.15585e-01        00000 
-1.35657e-01  3.17751e-01        00000 
-1.66675e-01  3.20420e-01        00000 
-1.98499e-01  3.23582e-01        00000 
-2.31223e-01  3.27233e-01        00000 
-2.64911e-01  3.31375e-01        00000 
-2.99611e-01  3.36018e-01        00000 
 3.20828e-01  4.08738e-01        00000 
 2.83188e-01  4.04632e-01        00000 
 2.46724e-01  4.00977e-01        00000 
 2.11288e-01  3.97768e-01        00000 
 1.76750e-01  3.95007e-01        00000 
 1.42990e-01  3.92697e-01        00000 
 1.09881e-01  3.90844e-01        00000 
 7.72866e-02  3.89456e-01        00000 
 4.50630e-02  3.88541e-01        00000 
 1.30580e-02  3.88104e-01        00000 
-1.88843e-02  3.88148e-01        00000 
-5.09214e-02  3.88674e-01        00000 
-8.32086e-02  3.89676e-01        00000 
-1.15896e-01  3.91151e-01        00000 
-1.49127e-01  3.93089e-01        00000 
-1.83033e-01  3.95482e-01        00000 
-2.17736e-01  3.98326e-01        00000 
-2.53338e-01  4.01615e-01        00000 
-2.89918e-01  4.05353e-01        00000 
-3.27536e-01  4.09546e-01        00000 
 3.45514e-01  4.87936e-01        00000 
 3.05244e-01  4.84254e-01        00000 
 2.66167e-01  4.80977e-01        00000 
 2.28128e-01  4.78102e-01        00000 
 1.90989e-01  4.75630e-01        00000 
 1.54620e-01  4.73564e-01        00000 
 1.18892e-01  4.71908e-01        00000 
 8.36667e-02  4.70668e-01        00000 
 4.88014e-02  4.69851e-01        00000 
 1.41476e-02  4.69460e-01        00000 
-2.04461e-02  4.69498e-01        00000 
-5.51313e-02  4.69965e-01        00000 
-9.00586e-02  4.70858e-01        00000 
-1.25375e-01  4.72172e-01        00000 
-1.61222e-01  4.73903e-01        00000 
-1.97735e-01  4.76043e-01        00000 
-2.35038e-01  4.78588e-01        00000 
-2.73241e-01  4.81535e-01        00000 
-3.12431e-01  4.84887e-01        00000 
-3.52677e-01  4.88648e-01        00000 
 3.67565e-01  5.72128e-01        00000 
 3.24945e-01  5.68853e-01        00000 
 2.83533e-01  5.65939e-01        00000 
 2.43167e-01  5.63383e-01        00000 
 2.03702e-01  5.61184e-01        00000 
 1.65004e-01  5.59344e-01        00000 
 1.26937e-01  5.57869e-01        00000 
 8.93637e-02  5.56763e-01        00000 
 5.21412e-02  5.56033e-01        00000 
 1.51237e-02  5.55683e-01        00000 
-2.18358e-02  5.55715e-01        00000 
-5.88846e-02  5.56129e-01        00000 
-9.61691e-02  5.56923e-01        00000 
-1.33834e-01  5.58092e-01        00000 
-1.72019e-01  5.59631e-01        00000 
-2.10862e-01  5.61534e-01        00000 
-2.50491e-01  5.63798e-01        00000 
-2.91021e-01  5.66419e-01        00000 
-3.32546e-01  5.69400e-01        00000 
-3.75140e-01  5.72745e-01        00000 
 3.87066e-01  6.60761e-01        00000 
 3.42369e-01  6.57883e-01        00000 
 2.98893e-01  6.55320e-01        00000 
 2.56474e-01  6.53067e-01        00000 
 2.14958e-01  6.51125e-01        00000 
 1.74203e-01  6.49495e-01        00000 
 1.34071e-01  6.48184e-01        00000 
 9.44200e-02  6.47198e-01        00000 
 5.51089e-02  6.46544e-01        00000 
 1.59949e-02  6.46229e-01        00000 
-2.30639e-02  6.46256e-01        00000 
-6.22096e-02  6.46623e-01        00000 
-1.01584e-01  6.47329e-01        00000 
-1.41328e-01  6.48367e-01        00000 
-1.81582e-01  6.49732e-01        00000 
-2.22484e-01  6.51416e-01        00000 
-2.64167e-01  6.53414e-01        00000 
-3.06753e-01  6.55723e-01        00000 
-3.50342e-01  6.58346e-01        00000 
-3.95016e-01  6.61288e-01        00000 
 4.04079e-01  7.53308e-01        00000 
 3.57568e-01  7.50819e-01        00000 
 3.12304e-01  7.48596e-01        00000 
 2.68110e-01  7.46633e-01        00000 
 2.24819e-01  7.44929e-01        00000 
 1.82281e-01  7.43489e-01        00000 
 1.40350e-01  7.42321e-01        00000 
 9.88807e-02  7.41436e-01        00000 
 5.77335e-02  7.40846e-01        00000 
 1.67711e-02  7.40559e-01        00000 
-2.41412e-02  7.40580e-01        00000 
-6.51364e-02  7.40909e-01        00000 
-1.06349e-01  7.41541e-01        00000 
-1.47914e-01  7.42468e-01        00000 
-1.89971e-01  7.43679e-01        00000 
-2.32662e-01  7.45164e-01        00000 
-2.76126e-01  7.46914e-01        00000 
-3.20494e-01  7.48926e-01        00000 
-3.65877e-01  7.51201e-01        00000 
-4.12368e-01  7.53748e-01        00000 
 4.18624e-01  8.49252e-01        00000 
 3.70571e-01  8.47149e-01        00000 
 3.23806e-01  8.45260e-01        00000 
 2.78130e-01  8.43572e-01        00000 
 2.33356e-01  8.42084e-01        00000 
 1.89313e-01  8.40806e-01        00000 
 1.45846e-01  8.39753e-01        00000 
 1.02805e-01  8.38945e-01        00000 
 6.00538e-02  8.38399e-01        00000 
 1.74650e-02  8.38130e-01        00000 
-2.50820e-02  8.38147e-01        00000 
-6.77048e-02  8.38449e-01        00000 
-1.10524e-01  8.39028e-01        00000 
-1.53665e-01  8.39870e-01        00000 
-1.97265e-01  8.40957e-01        00000 
-2.41468e-01  8.42271e-01        00000 
-2.86427e-01  8.43796e-01        00000 
-3.32287e-01  8.45526e-01        00000 
-3.79182e-01  8.47461e-01        00000 
-4.27221e-01  8.49615e-01        00000 
 4.30661e-01  9.48059e-01        00000 
 3.81367e-01  9.46352e-01        00000 
 3.33427e-01  9.44793e-01        00000 
 2.86598e-01  9.43366e-01        00000 
 2.40655e-01  9.42071e-01        00000 
 1.95400e-01  9.40925e-01        00000 
 1.50659e-01  9.39954e-01        00000 
 1.06279e-01  9.39190e-01        00000 
 6.21273e-02  9.38664e-01        00000 
 1.80961e-02  9.38401e-01        00000 
-2.59084e-02  9.38415e-01        00000 
-6.99750e-02  9.38707e-01        00000 
-1.14197e-01  9.39262e-01        00000 
-1.58683e-01  9.40054e-01        00000 
-2.03563e-01  9.41053e-01        00000 
-2.48988e-01  9.42227e-01        00000 
-2.95128e-01  9.43552e-01        00000 
-3.42159e-01  9.45014e-01        00000 
-3.90245e-01  9.46611e-01        00000 
-4.39537e-01  9.48363e-01        00000 
 4.40063e-01  1.04911e+00        00000 
 3.89901e-01  1.04782e+00        00000 
 3.41174e-01  1.04661e+00        00000 
 2.93572e-01  1.04544e+00        00000 
 2.46817e-01  1.04434e+00        00000 
 2.00672e-01  1.04332e+00        00000 
 1.54932e-01  1.04241e+00        00000 
 1.09430e-01  1.04166e+00        00000 
 6.40432e-02  1.04113e+00        00000 
 1.86958e-02  1.04086e+00        00000 
-2.66572e-02  1.04087e+00        00000 
-7.20411e-02  1.04118e+00        00000 
-1.17501e-01  1.04174e+00        00000 
-1.63112e-01  1.04251e+00        00000 
-2.08997e-01  1.04345e+00        00000 
-2.55323e-01  1.04450e+00        00000 
-3.02288e-01  1.04563e+00        00000 
-3.50111e-01  1.04682e+00        00000 
-3.99006e-01  1.04807e+00        00000 
-4.49186e-01  1.04939e+00        00000 
 4.46625e-01  1.15158e+00        00000 
 3.96087e-01  1.15074e+00        00000 
 3.47022e-01  1.14990e+00        00000 
 2.99062e-01  1.14908e+00        00000 
 2.51896e-01  1.14827e+00        00000 
 2.05243e-01  1.14746e+00        00000 
 1.58830e-01  1.14667e+00        00000 
 1.12448e-01  1.14597e+00        00000 
 6.59508e-02  1.14541e+00        00000 
 1.93120e-02  1.14512e+00        00000 
-2.73840e-02  1.14514e+00        00000 
-7.40604e-02  1.14547e+00        00000 
-1.20633e-01  1.14606e+00        00000 
-1.67127e-01  1.14681e+00        00000 
-2.13690e-01  1.14763e+00        00000 
-2.60529e-01  1.14847e+00        00000 
-3.07913e-01  1.14932e+00        00000 
-3.56108e-01  1.15016e+00        00000 
-4.05363e-01  1.15102e+00        00000 
-4.55945e-01  1.15189e+00        00000 
 4.50222e-01  1.25422e+00        00000 
 3.99903e-01  1.25384e+00        00000 
 3.50889e-01  1.25347e+00        00000 
 3.02899e-01  1.25320e+00        00000 
 2.55698e-01  1.25299e+00        00000 
 2.09008e-01  1.25278e+00        00000 
 1.62456e-01  1.25247e+00        00000 
 1.15551e-01  1.25199e+00        00000 
 6.80990e-02  1.25157e+00        00000 
 2.00918e-02  1.25123e+00        00000 
-2.82467e-02  1.25126e+00        00000 
-7.62927e-02  1.25166e+00        00000 
-1.23822e-01  1.25214e+00        00000 
-1.70842e-01  1.25267e+00        00000 
-2.17546e-01  1.25304e+00        00000 
-2.64422e-01  1.25330e+00        00000 
-3.11841e-01  1.25355e+00        00000 
-3.60062e-01  1.25386e+00        00000 
-4.09272e-01  1.25424e+00        00000 
-4.59669e-01  1.25464e+00        00000 
 4.51299e-01  1.35546e+00        00000 
 4.01591e-01  1.35544e+00        00000 
 3.52706e-01  1.35559e+00        00000 
 3.04721e-01  1.35604e+00        00000 
 2.57579e-01  1.35685e+00        00000 
 2.11118e-01  1.35801e+00        00000 
 1.65030e-01  1.35937e+00        00000 
 1.18744e-01  1.36057e+00        00000 
 7.07726e-02  1.36078e+00        00000 
 2.09865e-02  1.36125e+00        00000 
-2.92128e-02  1.36130e+00        00000 
-7.90371e-02  1.36092e+00        00000 
-1.27086e-01  1.36080e+00        00000 
-1.73489e-01  1.35969e+00        00000 
-2.19729e-01  1.35841e+00        00000 
-2.66374e-01  1.35732e+00        00000 
-3.13723e-01  1.35657e+00        00000 
-3.61918e-01  1.35616e+00        00000 
-4.10977e-01  1.35604e+00        00000 
-4.60790e-01  1.35606e+00        00000 
 4.51330e-01  1.45457e+00        00000 
 4.01964e-01  1.45454e+00        00000 
 3.53036e-01  1.45454e+00        00000 
 3.04823e-01  1.45492e+00        00000 
 2.57349e-01  1.45606e+00        00000 
 2.10495e-01  1.45841e+00        00000 
 1.63984e-01  1.46263e+00        00000 
 1.17273e-01  1.46970e+00        00000 
 6.95276e-02  1.48106e+00        00000 
 2.05581e-02  1.48629e+00        00000 
-2.88662e-02  1.48636e+00        00000 
-7.78750e-02  1.48127e+00        00000 
-1.25698e-01  1.47007e+00        00000 
-1.72521e-01  1.46314e+00        00000 
-2.19177e-01  1.45904e+00        00000 
-2.66204e-01  1.45679e+00        00000 
-3.13866e-01  1.45572e+00        00000 
-3.62263e-01  1.45537e+00        00000 
-4.11341e-01  1.45536e+00        00000 
-4.60825e-01  1.45540e+00        00000 
 2.73781e-02  1.62471e-02        00000 
 2.15446e-02  1.28515e-02        00000 
 1.74097e-02  1.04182e-02        00000 
 1.40872e-02  8.72120e-03        00000 
 1.12464e-02  7.52078e-03        00000 
 8.70295e-03  6.66973e-03        00000 
 6.34744e-03  6.07815e-03        00000 
 4.11012e-03  5.69076e-03        00000 
 1.94213e-03  5.47462e-03        00000 
-1.95011e-04  5.41241e-03        00000 
-2.33563e-03  5.49939e-03        00000 
-4.51451e-03  5.74247e-03        00000 
-6.77169e-03  6.16150e-03        00000 
-9.15930e-03  6.79301e-03        00000 
-1.17537e-02  7.69783e-03        00000 
-1.46782e-02  8.97543e-03        00000 
-1.81481e-02  1.07893e-02        00000 
-2.25643e-02  1.34057e-02        00000 
-2.88727e-02  1.71411e-02        00000 
 8.07564e-02  5.07670e-02        00000 
 6.57984e-02  4.31220e-02        00000 
 5.38125e-02  3.74635e-02        00000 
 4.37462e-02  3.32041e-02        00000 
 3.49654e-02  3.00195e-02        00000 
 2.70500e-02  2.76750e-02        00000 
 1.97142e-02  2.60036e-02        00000 
 1.27567e-02  2.48913e-02        00000 
 6.02594e-03  2.42650e-02        00000 
-6.02855e-04  2.40851e-02        00000 
-7.24293e-03  2.43402e-02        00000 
-1.40088e-02  2.50466e-02        00000 
-2.10294e-02  2.62500e-02        00000 
-2.84645e-02  2.80301e-02        00000 
-3.65307e-02  3.05103e-02        00000 
-4.55382e-02  3.38695e-02        00000 
-5.59396e-02  3.83550e-02        00000 
-6.83643e-02  4.42858e-02        00000 
-8.36111e-02  5.21199e-02        00000 
 1.23941e-01  8.57556e-02        00000 
 1.05784e-01  7.92151e-02        00000 
 8.87345e-02  7.32641e-02        00000 
 7.31789e-02  6.82520e-02        00000 
 5.89619e-02  6.42016e-02        00000 
 4.58148e-02  6.10511e-02        00000 
 3.34685e-02  5.87171e-02        00000 
 2.16832e-02  5.71235e-02        00000 
 1.02485e-02  5.62127e-02        00000 
-1.02462e-03  5.59506e-02        00000 
-1.23156e-02  5.63272e-02        00000 
-2.38047e-02  5.73570e-02        00000 
-3.56848e-02  5.90789e-02        00000 
-4.81721e-02  6.15541e-02        00000 
-6.15142e-02  6.48615e-02        00000 
-7.59852e-02  6.90825e-02        00000 
-9.18394e-02  7.42671e-02        00000 
-1.09163e-01  8.03633e-02        00000 
-1.27468e-01  8.70235e-02        00000 
 1.62970e-01  1.27595e-01        00000 
 1.41102e-01  1.21652e-01        00000 
 1.20211e-01  1.16295e-01        00000 
 1.00358e-01  1.11561e-01        00000 
 8.15764e-02  1.07541e-01        00000 
 6.37705e-02  1.04278e-01        00000 
 4.67705e-02  1.01780e-01        00000 
 3.03752e-02  1.00032e-01        00000 
 1.43750e-02  9.90179e-02        00000 
-1.43869e-03  9.87254e-02        00000 
-1.72732e-02  9.91501e-02        00000 
-3.33359e-02  1.00298e-01        00000 
-4.98363e-02  1.02184e-01        00000 
-6.69843e-02  1.04824e-01        00000 
-8.49792e-02  1.08229e-01        00000 
-1.03983e-01  1.12388e-01        00000 
-1.24068e-01  1.17252e-01        00000 
-1.45162e-01  1.22727e-01        00000 
-1.67126e-01  1.28784e-01        00000 
 1.98838e-01  1.77213e-01        00000 
 1.73217e-01  1.71778e-01        00000 
 1.48585e-01  1.66917e-01        00000 
 1.24913e-01  1.62634e-01        00000 
 1.02160e-01  1.58954e-01        00000 
 8.02543e-02  1.55914e-01        00000 
 5.90748e-02  1.53545e-01        00000 
 3.84603e-02  1.51863e-01        00000 
 1.82257e-02  1.50878e-01        00000 
-1.82679e-03  1.50593e-01        00000 
-2.18999e-02  1.51009e-01        00000 
-4.21959e-02  1.52126e-01        00000 
-6.29112e-02  1.53939e-01        00000 
-8.42282e-02  1.56438e-01        00000 
-1.06303e-01  1.59603e-01        00000 
-1.29248e-01  1.63402e-01        00000 
-1.53121e-01  1.67797e-01        00000 
-1.77927e-01  1.72768e-01        00000 
-2.03625e-01  1.78314e-01        00000 
 2.31757e-01  2.34439e-01        00000 
 2.02540e-01  2.29475e-01        00000 