<?xml version="1.0" encoding="utf-8"?>
<VTKFile byte_order="LittleEndian" type="UnstructuredGrid" version="0.1">
   <UnstructuredGrid>
      <Piece NumberOfCells="6000" NumberOfPoints="1331">
         <Points>
            <DataArray Name="Points" NumberOfComponents="3" format="ascii" type="Float32">
1.0000 1.0000 0.0000
1.0000 0.9000 0.0000
0.9000 1.0000 0.0000
1.0000 1.0000 0.1000
0.9000 0.9000 0.0000
1.0000 0.9000 0.1000
0.9000 1.0000 0.1000
0.9000 0.9000 0.1000
1.0000 0.8000 0.0000
0.8000 1.0000 0.0000
1.0000 1.0000 0.2000
0.8000 1.0000 0.1000
1.0000 0.9000 0.2000
1.0000 0.8000 0.1000
0.9000 0.8000 0.0000
0.9000 1.0000 0.2000
0.8000 0.9000 0.0000
0.9000 0.9000 0.2000
0.9000 0.8000 0.1000
0.8000 0.9000 0.1000
0.8000 1.0000 0.2000
1.0000 0.8000 0.2000
0.8000 0.8000 0.0000
1.0000 1.0000 0.3000
0.9000 0.8000 0.2000
0.7000 1.0000 0.0000
1.0000 0.7000 0.0000
0.8000 0.8000 0.1000
0.8000 0.9000 0.2000
0.9000 0.7000 0.0000
1.0000 0.9000 0.3000
0.9000 1.0000 0.3000
0.7000 1.0000 0.1000
1.0000 0.7000 0.1000
0.7000 0.9000 0.0000
0.9000 0.7000 0.1000
0.9000 0.9000 0.3000
0.7000 0.9000 0.1000
0.8000 0.8000 0.2000
0.8000 0.7000 0.0000
1.0000 0.8000 0.3000
0.8000 1.0000 0.3000
0.7000 1.0000 0.2000
1.0000 0.7000 0.2000
0.7000 0.8000 0.0000
0.8000 0.7000 0.1000
0.9000 0.7000 0.2000
0.9000 0.8000 0.3000
0.8000 0.9000 0.3000
0.7000 0.8000 0.1000
0.7000 0.9000 0.2000
1.0000 1.0000 0.4000
0.6000 1.0000 0.0000
1.0000 0.6000 0.0000
0.8000 0.7000 0.2000
0.9000 0.6000 0.0000
1.0000 0.6000 0.1000
1.0000 0.9000 0.4000
0.6000 1.0000 0.1000
0.8000 0.8000 0.3000
0.9000 1.0000 0.4000
0.6000 0.9000 0.0000
0.7000 0.8000 0.2000
0.9000 0.6000 0.1000
0.7000 0.7000 0.0000
1.0000 0.7000 0.3000
0.9000 0.9000 0.4000
0.7000 1.0000 0.3000
0.6000 0.9000 0.1000
0.7000 0.7000 0.1000
0.9000 0.7000 0.3000
0.7000 0.9000 0.3000
1.0000 0.8000 0.4000
0.8000 1.0000 0.4000
1.0000 0.6000 0.2000
0.6000 1.0000 0.2000
0.6000 0.8000 0.0000
0.8000 0.6000 0.0000
0.9000 0.6000 0.2000
0.8000 0.6000 0.1000
0.9000 0.8000 0.4000
0.6000 0.8000 0.1000
0.8000 0.9000 0.4000
0.6000 0.9000 0.2000
0.8000 0.7000 0.3000
0.7000 0.7000 0.2000
0.7000 0.8000 0.3000
0.6000 0.8000 0.2000
0.8000 0.8000 0.4000
0.8000 0.6000 0.2000
0.6000 0.7000 0.0000
0.7000 0.6000 0.0000
1.0000 0.5000 0.0000
0.6000 1.0000 0.3000
0.5000 1.0000 0.0000
1.0000 1.0000 0.5000
1.0000 0.6000 0.3000
1.0000 0.7000 0.4000
0.7000 1.0000 0.4000
0.6000 0.7000 0.1000
0.9000 0.6000 0.3000
0.9000 0.7000 0.4000
0.7000 0.6000 0.1000
1.0000 0.9000 0.5000
0.9000 1.0000 0.5000
1.0000 0.5000 0.1000
0.5000 1.0000 0.1000
0.6000 0.9000 0.3000
0.5000 0.9000 0.0000
0.9000 0.5000 0.0000
0.7000 0.9000 0.4000
0.7000 0.7000 0.3000
0.9000 0.9000 0.5000
0.9000 0.5000 0.1000
0.5000 0.9000 0.1000
0.8000 0.7000 0.4000
1.0000 0.8000 0.5000
0.6000 0.7000 0.2000
0.8000 1.0000 0.5000
0.5000 1.0000 0.2000
0.7000 0.6000 0.2000
1.0000 0.5000 0.2000
0.6000 0.8000 0.3000
0.8000 0.5000 0.0000
0.5000 0.8000 0.0000
0.8000 0.6000 0.3000
0.7000 0.8000 0.4000
0.9000 0.8000 0.5000
0.8000 0.9000 0.5000
0.9000 0.5000 0.2000
0.5000 0.9000 0.2000
0.8000 0.5000 0.1000
0.5000 0.8000 0.1000
0.6000 0.6000 0.0000
0.6000 1.0000 0.4000
1.0000 0.6000 0.4000
0.6000 0.6000 0.1000
0.8000 0.8000 0.5000
0.9000 0.6000 0.4000
0.5000 0.8000 0.2000
0.6000 0.9000 0.4000
0.8000 0.5000 0.2000
0.6000 0.7000 0.3000
0.7000 0.7000 0.4000
0.5000 1.0000 0.3000
0.7000 1.0000 0.5000
1.0000 0.5000 0.3000
0.7000 0.6000 0.3000
1.0000 0.7000 0.5000
0.7000 0.5000 0.0000
0.5000 0.7000 0.0000
0.9000 0.7000 0.5000
0.5000 0.9000 0.3000
0.5000 0.7000 0.1000
0.7000 0.9000 0.5000
0.7000 0.5000 0.1000
0.9000 0.5000 0.3000
0.6000 0.6000 0.2000
0.4000 1.0000 0.0000
1.0000 1.0000 0.6000
1.0000 0.4000 0.0000
0.6000 0.8000 0.4000
0.8000 0.6000 0.4000
1.0000 0.9000 0.6000
0.9000 0.4000 0.0000
0.9000 1.0000 0.6000
0.4000 1.0000 0.1000
1.0000 0.4000 0.1000
0.4000 0.9000 0.0000
0.8000 0.7000 0.5000
0.7000 0.8000 0.5000
0.4000 0.9000 0.1000
0.9000 0.9000 0.6000
0.9000 0.4000 0.1000
0.5000 0.7000 0.2000
0.7000 0.5000 0.2000
0.5000 0.8000 0.3000
0.8000 0.5000 0.3000
1.0000 0.4000 0.2000
0.4000 1.0000 0.2000
0.8000 1.0000 0.6000
1.0000 0.8000 0.6000
0.8000 0.4000 0.0000
0.4000 0.8000 0.0000
0.9000 0.8000 0.6000
0.6000 0.6000 0.3000
0.6000 0.7000 0.4000
0.9000 0.4000 0.2000
0.6000 1.0000 0.5000
1.0000 0.6000 0.5000
0.8000 0.4000 0.1000
0.7000 0.6000 0.4000
1.0000 0.5000 0.4000
0.5000 1.0000 0.4000
0.4000 0.9000 0.2000
0.8000 0.9000 0.6000
0.5000 0.6000 0.0000
0.4000 0.8000 0.1000
0.6000 0.5000 0.0000
0.9000 0.6000 0.5000
0.5000 0.6000 0.1000
0.6000 0.9000 0.5000
0.9000 0.5000 0.4000
0.5000 0.9000 0.4000
0.6000 0.5000 0.1000
0.7000 0.7000 0.5000
0.5000 0.7000 0.3000
0.7000 0.5000 0.3000
0.8000 0.4000 0.2000
0.8000 0.8000 0.6000
0.4000 0.8000 0.2000
1.0000 0.4000 0.3000
0.4000 0.7000 0.0000
0.5000 0.6000 0.2000
0.7000 0.4000 0.0000
0.7000 1.0000 0.6000
0.4000 1.0000 0.3000
0.6000 0.8000 0.5000
0.8000 0.5000 0.4000
1.0000 0.7000 0.6000
0.8000 0.6000 0.5000
0.6000 0.5000 0.2000
0.5000 0.8000 0.4000
0.9000 0.7000 0.6000
0.4000 0.7000 0.1000
0.4000 0.9000 0.3000
0.7000 0.9000 0.6000
0.7000 0.4000 0.1000
0.9000 0.4000 0.3000
0.6000 0.6000 0.4000
0.8000 0.7000 0.6000
0.7000 0.4000 0.2000
0.3000 1.0000 0.0000
0.8000 0.4000 0.3000
1.0000 1.0000 0.7000
1.0000 0.3000 0.0000
0.7000 0.8000 0.6000
0.4000 0.7000 0.2000
0.4000 0.8000 0.3000
0.9000 1.0000 0.7000
0.7000 0.6000 0.5000
1.0000 0.9000 0.7000
0.9000 0.3000 0.0000
0.5000 1.0000 0.5000
1.0000 0.5000 0.5000
0.6000 0.7000 0.5000
1.0000 0.3000 0.1000
0.5000 0.7000 0.4000
0.3000 0.9000 0.0000
0.5000 0.6000 0.3000
0.3000 1.0000 0.1000
0.7000 0.5000 0.4000
0.5000 0.5000 0.0000
0.6000 0.5000 0.3000
0.9000 0.3000 0.1000
0.9000 0.9000 0.7000
0.3000 0.9000 0.1000
0.9000 0.5000 0.5000
0.5000 0.5000 0.1000
0.5000 0.9000 0.5000
0.4000 0.6000 0.0000
0.6000 0.4000 0.0000
1.0000 0.6000 0.6000
0.6000 1.0000 0.6000
1.0000 0.4000 0.4000
0.4000 1.0000 0.4000
0.9000 0.6000 0.6000
0.4000 0.6000 0.1000
0.8000 1.0000 0.7000
1.0000 0.8000 0.7000
0.8000 0.3000 0.0000
1.0000 0.3000 0.2000
0.3000 0.8000 0.0000
0.9000 0.4000 0.4000
0.3000 1.0000 0.2000
0.4000 0.9000 0.4000
0.6000 0.9000 0.6000
0.6000 0.4000 0.1000
0.8000 0.3000 0.1000
0.9000 0.3000 0.2000
0.4000 0.7000 0.3000
0.7000 0.4000 0.3000
0.3000 0.9000 0.2000
0.3000 0.8000 0.1000
0.9000 0.8000 0.7000
0.7000 0.7000 0.6000
0.8000 0.9000 0.7000
0.8000 0.5000 0.5000
0.5000 0.8000 0.5000
0.5000 0.5000 0.2000
0.6000 0.8000 0.6000
0.8000 0.6000 0.6000
0.4000 0.6000 0.2000
0.8000 0.4000 0.4000
0.6000 0.4000 0.2000
0.4000 0.8000 0.4000
0.6000 0.6000 0.5000
0.8000 0.3000 0.2000
0.3000 0.8000 0.2000
0.5000 0.6000 0.4000
0.8000 0.8000 0.7000
0.6000 0.5000 0.4000
0.7000 0.3000 0.0000
1.0000 0.7000 0.7000
0.7000 1.0000 0.7000
1.0000 0.3000 0.3000
0.3000 1.0000 0.3000
0.3000 0.7000 0.0000
0.9000 0.7000 0.7000
0.9000 0.3000 0.3000
0.7000 0.3000 0.1000
0.3000 0.9000 0.3000
0.5000 0.7000 0.5000
0.7000 0.5000 0.5000
0.3000 0.7000 0.1000
0.7000 0.9000 0.7000
0.5000 0.5000 0.3000
0.7000 0.6000 0.6000
1.0000 0.4000 0.5000
0.4000 1.0000 0.5000
0.4000 0.6000 0.3000
0.4000 0.5000 0.0000
0.5000 1.0000 0.6000
0.6000 0.7000 0.6000
1.0000 0.5000 0.6000
0.5000 0.4000 0.0000
0.4000 0.7000 0.4000
0.7000 0.4000 0.4000
0.6000 0.4000 0.3000
0.8000 0.7000 0.7000
0.7000 0.3000 0.2000
0.8000 0.3000 0.3000
0.9000 0.5000 0.6000
0.4000 0.5000 0.1000
0.3000 0.7000 0.2000
0.9000 0.4000 0.5000
0.4000 0.9000 0.5000
0.3000 0.8000 0.3000
0.5000 0.4000 0.1000
0.7000 0.8000 0.7000
0.5000 0.9000 0.6000
0.2000 1.0000 0.0000
1.0000 1.0000 0.8000
1.0000 0.2000 0.0000
0.8000 0.4000 0.5000
1.0000 0.3000 0.4000
0.4000 0.8000 0.5000
1.0000 0.6000 0.7000
0.3000 0.6000 0.0000
0.6000 1.0000 0.7000
0.4000 0.5000 0.2000
0.6000 0.3000 0.0000
0.2000 0.9000 0.0000
1.0000 0.2000 0.1000
0.5000 0.4000 0.2000
0.2000 1.0000 0.1000
0.3000 1.0000 0.4000
0.8000 0.5000 0.6000
1.0000 0.9000 0.8000
0.9000 0.2000 0.0000
0.5000 0.8000 0.6000
0.9000 1.0000 0.8000
0.9000 0.6000 0.7000
0.3000 0.6000 0.1000
0.5000 0.6000 0.5000
0.6000 0.3000 0.1000
0.9000 0.3000 0.4000
0.9000 0.2000 0.1000
0.3000 0.9000 0.4000
0.6000 0.5000 0.5000
0.5000 0.5000 0.4000
0.6000 0.9000 0.7000
0.9000 0.9000 0.8000
0.2000 0.9000 0.1000
0.7000 0.3000 0.3000
0.7000 0.7000 0.7000
0.3000 0.7000 0.3000
1.0000 0.8000 0.8000
0.6000 0.6000 0.6000
0.4000 0.6000 0.4000
0.2000 1.0000 0.2000
0.6000 0.4000 0.4000
1.0000 0.2000 0.2000
0.8000 0.2000 0.0000
0.2000 0.8000 0.0000
0.8000 1.0000 0.8000
0.9000 0.8000 0.8000
0.6000 0.3000 0.2000
0.8000 0.3000 0.4000
0.3000 0.6000 0.2000
0.3000 0.8000 0.4000
0.8000 0.9000 0.8000
0.2000 0.9000 0.2000
0.6000 0.8000 0.7000
0.2000 0.8000 0.1000
0.9000 0.2000 0.2000
0.8000 0.2000 0.1000
0.8000 0.6000 0.7000
0.7000 0.4000 0.5000
0.7000 0.5000 0.6000
0.4000 0.5000 0.3000
0.4000 0.7000 0.5000
0.5000 0.4000 0.3000
0.5000 0.7000 0.6000
0.8000 0.8000 0.8000
0.4000 0.4000 0.0000
1.0000 0.4000 0.6000
0.4000 1.0000 0.6000
0.2000 0.8000 0.2000
0.8000 0.2000 0.2000
0.7000 1.0000 0.8000
0.4000 0.9000 0.6000
0.9000 0.4000 0.6000
0.7000 0.2000 0.0000
0.4000 0.4000 0.1000
0.2000 1.0000 0.3000
1.0000 0.2000 0.3000
0.2000 0.7000 0.0000
1.0000 0.7000 0.8000
1.0000 0.5000 0.7000
0.5000 1.0000 0.7000
0.6000 0.7000 0.7000
0.7000 0.3000 0.4000
0.3000 0.6000 0.3000
0.6000 0.3000 0.3000
0.3000 0.5000 0.0000
0.5000 0.3000 0.0000
0.9000 0.2000 0.3000
1.0000 0.3000 0.5000
0.7000 0.6000 0.7000
0.7000 0.9000 0.8000
0.7000 0.2000 0.1000
0.2000 0.9000 0.3000
0.3000 0.7000 0.4000
0.3000 1.0000 0.5000
0.9000 0.7000 0.8000
0.2000 0.7000 0.1000
0.9000 0.5000 0.7000
0.9000 0.3000 0.5000
0.3000 0.5000 0.1000
0.5000 0.3000 0.1000
0.3000 0.9000 0.5000
0.5000 0.5000 0.5000
0.5000 0.9000 0.7000
0.4000 0.4000 0.2000
0.4000 0.8000 0.6000
0.8000 0.4000 0.6000
0.4000 0.6000 0.5000
0.5000 0.6000 0.6000
0.4000 0.5000 0.4000
0.7000 0.8000 0.8000
0.6000 0.5000 0.6000
0.7000 0.2000 0.2000
0.5000 0.4000 0.4000
0.6000 0.4000 0.5000
0.8000 0.2000 0.3000
0.2000 0.8000 0.3000
0.8000 0.7000 0.8000
0.2000 0.7000 0.2000
0.8000 0.5000 0.7000
0.8000 0.3000 0.5000
[...]
         <PointData>
            <DataArray Name="displacement" NumberOfComponents="3" format="ascii" type="Float64">
 7.91209e+03  5.25656e+02 -2.36315e+02 
 8.01703e+03  5.21791e+02 -2.38145e+02 
 7.90771e+03  4.25983e+02 -1.62131e+02 
 7.99126e+03  5.22459e+02 -2.35404e+02 
 8.01897e+03  4.26027e+02 -1.61318e+02 
 8.09422e+03  5.21690e+02 -2.40398e+02 
 7.98908e+03  4.21611e+02 -1.63092e+02 
 8.09461e+03  4.23127e+02 -1.63798e+02 
 8.12163e+03  5.10277e+02 -2.39317e+02 
 7.89490e+03  3.41881e+02 -1.01831e+02 
 8.07579e+03  5.17031e+02 -2.25332e+02 
 7.97666e+03  3.36525e+02 -1.10285e+02 
 8.18122e+03  5.20256e+02 -2.33815e+02 
 8.20235e+03  5.12582e+02 -2.45121e+02 
 8.12688e+03  4.19890e+02 -1.59364e+02 
 8.07874e+03  4.12340e+02 -1.58870e+02 
 8.00845e+03  3.48359e+02 -9.99588e+01 
 8.18549e+03  4.14965e+02 -1.62269e+02 
 8.20568e+03  4.17822e+02 -1.62301e+02 
 8.07869e+03  3.45718e+02 -1.11167e+02 
 8.07231e+03  3.25876e+02 -1.13211e+02 
 8.29847e+03  5.14812e+02 -2.42067e+02 
 8.12151e+03  3.48217e+02 -9.78672e+01 
 8.15910e+03  5.11054e+02 -2.00948e+02 
 8.30655e+03  4.11724e+02 -1.62054e+02 
 7.84798e+03  2.74437e+02 -5.52100e+01 
 8.22987e+03  4.84314e+02 -2.39916e+02 
 8.19368e+03  3.46485e+02 -1.07664e+02 
 8.17252e+03  3.35650e+02 -1.16822e+02 
 8.24243e+03  4.05553e+02 -1.54789e+02 
 8.27049e+03  5.19235e+02 -2.10747e+02 
 8.16892e+03  4.00995e+02 -1.46745e+02 
 7.93563e+03  2.68263e+02 -7.65494e+01 
 8.31638e+03  4.87693e+02 -2.50242e+02 
 7.97094e+03  2.92786e+02 -5.35736e+01 
 8.32548e+03  4.03500e+02 -1.58642e+02 
 8.28017e+03  4.04332e+02 -1.51519e+02 
 8.03952e+03  2.89008e+02 -7.77371e+01 
 8.29606e+03  3.37955e+02 -1.13640e+02 
 8.24359e+03  3.40576e+02 -9.29827e+01 
 8.40440e+03  5.18510e+02 -2.19461e+02 
 8.16968e+03  3.13548e+02 -1.08777e+02 
 8.04293e+03  2.57658e+02 -8.80081e+01 
 8.42819e+03  4.90573e+02 -2.51286e+02 
 8.09498e+03  2.97412e+02 -5.30995e+01 
 8.31914e+03  3.38801e+02 -1.02196e+02 
 8.44326e+03  3.98833e+02 -1.59030e+02 
 8.41957e+03  4.02865e+02 -1.52201e+02 
 8.27198e+03  3.23363e+02 -1.13554e+02 
 8.16246e+03  2.94854e+02 -7.25442e+01 
 8.14069e+03  2.77012e+02 -9.15716e+01 
 8.22787e+03  5.05492e+02 -1.62966e+02 
 7.74330e+03  2.19929e+02 -1.93627e+01 
 8.32607e+03  4.43816e+02 -2.40496e+02 
 8.43687e+03  3.31806e+02 -1.08048e+02 
 8.34322e+03  3.83233e+02 -1.51298e+02 
 8.42014e+03  4.46000e+02 -2.54694e+02 
 8.34794e+03  5.17951e+02 -1.71274e+02 
 7.85137e+03  2.12181e+02 -6.01169e+01 
 8.41228e+03  3.27121e+02 -1.11237e+02 
 8.24279e+03  3.91449e+02 -1.27269e+02 
 7.89265e+03  2.55946e+02 -1.83476e+01 
 8.26918e+03  2.84270e+02 -8.57517e+01 
 8.43198e+03  3.80359e+02 -1.55726e+02 
 8.22951e+03  2.92219e+02 -4.92256e+01 
 8.56546e+03  4.92464e+02 -2.26303e+02 
 8.35940e+03  3.94678e+02 -1.31351e+02 
 8.15235e+03  2.45880e+02 -8.82308e+01 
 7.96874e+03  2.49442e+02 -6.13315e+01 
 8.29838e+03  2.89898e+02 -6.59339e+01 
 8.59118e+03  3.90800e+02 -1.49045e+02 
 8.24928e+03  2.63275e+02 -9.26701e+01 
 8.50710e+03  5.22352e+02 -1.78198e+02 
 8.24838e+03  3.04096e+02 -9.83228e+01 
 8.55587e+03  4.47692e+02 -2.60351e+02 
 7.98388e+03  2.01301e+02 -8.08374e+01 
 8.04117e+03  2.64321e+02 -2.10362e+01 
 8.34927e+03  3.26618e+02 -8.95551e+01 
 8.57025e+03  3.77423e+02 -1.54748e+02 
 8.42958e+03  3.23995e+02 -9.84479e+01 
 8.52093e+03  3.92910e+02 -1.32898e+02 
 8.10963e+03  2.59552e+02 -5.32610e+01 
 8.35418e+03  3.13408e+02 -1.02220e+02 
 8.08720e+03  2.33584e+02 -8.36680e+01 
 8.58548e+03  3.22723e+02 -1.06318e+02 
 8.41712e+03  2.81357e+02 -7.81192e+01 
 8.39157e+03  2.71625e+02 -8.79289e+01 
 8.22795e+03  2.45036e+02 -7.32204e+01 
 8.51433e+03  3.17703e+02 -1.01835e+02 
 8.56592e+03  3.18931e+02 -1.03602e+02 
 8.19877e+03  2.57214e+02 -1.84821e+01 
 8.34342e+03  2.78675e+02 -4.65548e+01 
 8.38953e+03  3.94389e+02 -2.43923e+02 
 8.11663e+03  1.89763e+02 -8.17857e+01 
 7.54689e+03  1.73018e+02  1.04953e+01 
 8.26489e+03  5.01709e+02 -1.16410e+02 
 8.75208e+03  4.45539e+02 -2.34147e+02 
 8.72693e+03  4.95125e+02 -1.80440e+02 
 8.24020e+03  2.37031e+02 -7.90731e+01 
 8.26490e+03  2.53321e+02 -4.43517e+01 
 8.76916e+03  3.71835e+02 -1.39387e+02 
 8.74409e+03  3.76815e+02 -1.31109e+02 
 8.41588e+03  2.76113e+02 -6.15372e+01 
 8.38609e+03  5.16438e+02 -1.20809e+02 
 8.28162e+03  3.88642e+02 -1.02200e+02 
 8.48556e+03  3.92916e+02 -2.59307e+02 
 7.70507e+03  1.62204e+02 -5.98687e+01 
 8.21407e+03  2.16690e+02 -8.51528e+01 
 7.75499e+03  2.36302e+02  1.03340e+01 
 8.40746e+03  3.55749e+02 -1.55213e+02 
 8.33857e+03  2.52571e+02 -8.26529e+01 
 8.56834e+03  2.70900e+02 -8.12544e+01 
 8.39804e+03  3.93535e+02 -1.06151e+02 
 8.49832e+03  3.51587e+02 -1.60753e+02 
 7.85613e+03  2.23591e+02 -6.02804e+01 
 8.73568e+03  3.13250e+02 -9.95843e+01 
 8.54953e+03  5.23060e+02 -1.23355e+02 
 8.38949e+03  2.41670e+02 -6.14491e+01 
 8.28931e+03  3.00661e+02 -8.25201e+01 
 7.88807e+03  1.50361e+02 -9.06417e+01 
 8.55066e+03  2.70382e+02 -7.27595e+01 
 8.62498e+03  3.91339e+02 -2.66256e+02 
 8.36368e+03  2.28474e+02 -7.59431e+01 
 8.41624e+03  3.09168e+02 -9.19666e+01 
 7.95326e+03  2.46641e+02  2.34672e+00 
 8.76192e+03  3.12408e+02 -1.00813e+02 
 8.49856e+03  2.61230e+02 -8.02937e+01 
 8.56400e+03  3.94759e+02 -1.08387e+02 
 8.39551e+03  3.10366e+02 -8.55438e+01 
 8.63983e+03  3.49912e+02 -1.61967e+02 
 8.00925e+03  2.00143e+02 -9.11413e+01 
 8.49883e+03  3.05566e+02 -1.01309e+02 
 8.03296e+03  2.37124e+02 -4.62007e+01 
 8.32729e+03  2.37859e+02 -1.62786e+01 
 8.22103e+03  1.81429e+02 -6.75706e+01 
 9.04173e+03  3.96633e+02 -1.36247e+02 
 8.39509e+03  2.34817e+02 -3.81754e+01 
 8.56092e+03  3.16306e+02 -8.68061e+01 
 9.04038e+03  3.48834e+02 -1.13486e+02 
 8.17507e+03  2.15313e+02 -7.19342e+01 
 8.31704e+03  2.03960e+02 -7.01407e+01 
 8.63961e+03  3.03239e+02 -1.07319e+02 
 8.54875e+03  2.27608e+02 -6.48694e+01 
 8.72187e+03  2.61035e+02 -7.62995e+01 
 8.06281e+03  1.39191e+02 -8.77336e+01 
 8.28542e+03  2.33604e+02 -6.31481e+01 
 8.81965e+03  3.93906e+02 -2.39939e+02 
 8.74748e+03  2.63318e+02 -7.54969e+01 
 8.76851e+03  4.96809e+02 -1.29742e+02 
 8.41346e+03  2.60911e+02 -4.82254e+01 
 8.15122e+03  2.33191e+02  3.45024e+00 
 8.78892e+03  3.82307e+02 -1.10482e+02 
 8.16877e+03  1.77769e+02 -8.82993e+01 
 8.22155e+03  2.26018e+02 -3.27055e+01 
 8.38368e+03  2.48788e+02 -6.56989e+01 
 8.48805e+03  2.57904e+02 -6.30686e+01 
 8.83971e+03  3.48901e+02 -1.49451e+02 
 8.53197e+03  2.27461e+02 -5.30183e+01 
 7.20139e+03  1.24302e+02  4.28137e+01 
 8.26699e+03  4.98298e+02 -7.29230e+01 
 8.41658e+03  3.47432e+02 -2.47469e+02 
 8.48082e+03  2.14987e+02 -6.45625e+01 
 9.03909e+03  3.00390e+02 -9.07016e+01 
 8.38706e+03  5.10649e+02 -7.27456e+01 
 8.43097e+03  3.27627e+02 -1.61143e+02 
 8.28107e+03  3.88664e+02 -7.68026e+01 
 7.46953e+03  1.08162e+02 -7.47474e+01 
 8.51224e+03  3.42136e+02 -2.59876e+02 
 7.52942e+03  2.32081e+02  4.01513e+01 
 8.78642e+03  3.14117e+02 -8.79319e+01 
 8.54882e+03  2.58725e+02 -6.61277e+01 
 7.68821e+03  2.05525e+02 -7.19596e+01 
 8.39526e+03  3.92962e+02 -7.87390e+01 
 8.52185e+03  3.22532e+02 -1.66169e+02 
 8.35981e+03  2.08686e+02 -5.27860e+01 
 8.62697e+03  2.55511e+02 -7.48432e+01 
 8.33424e+03  1.92193e+02 -7.13231e+01 
 8.83845e+03  3.00553e+02 -1.06157e+02 
 8.65109e+03  3.38140e+02 -2.62111e+02 
 7.74770e+03  9.57016e+01 -1.15787e+02 
 8.28661e+03  3.01628e+02 -6.60071e+01 
 8.54965e+03  5.13286e+02 -7.17409e+01 
 8.43822e+03  2.90620e+02 -9.76698e+01 
 7.82302e+03  2.40577e+02  2.27762e+01 
 8.55784e+03  3.92801e+02 -8.12815e+01 
 8.73404e+03  2.18168e+02 -5.54204e+01 
 8.70944e+03  2.14238e+02 -5.70120e+01 
 8.66048e+03  3.22401e+02 -1.65393e+02 
 8.27350e+03  1.78426e+02 -4.39356e+01 
 9.06677e+03  3.94795e+02 -1.37312e+02 
 8.52114e+03  2.86211e+02 -1.07116e+02 
 9.03669e+03  2.52489e+02 -6.78539e+01 
 9.09171e+03  3.97734e+02 -1.37955e+02 
 8.19474e+03  1.31912e+02 -6.21036e+01 
 7.90451e+03  1.68782e+02 -1.09972e+02 
 8.39114e+03  3.10977e+02 -6.69601e+01 
 8.30383e+03  2.02741e+02  5.45693e+00 
 7.93082e+03  2.21391e+02 -4.59173e+01 
 8.40219e+03  2.12665e+02 -1.73082e+01 
 9.06474e+03  3.46637e+02 -1.14100e+02 
 8.37230e+03  1.98477e+02 -2.32107e+01 
 8.36833e+03  1.99511e+02 -4.59835e+01 
 9.09000e+03  3.49464e+02 -1.15243e+02 
 8.29454e+03  1.61891e+02 -6.23056e+01 
 8.47170e+03  2.10354e+02 -3.83598e+01 
 8.77637e+03  2.60635e+02 -6.62992e+01 
 8.53324e+03  1.88670e+02 -5.29927e+01 
 8.82694e+03  2.53012e+02 -7.90896e+01 
 8.65875e+03  2.86164e+02 -1.12474e+02 
 8.55310e+03  3.16630e+02 -7.02351e+01 
 8.11439e+03  1.87546e+02 -7.53586e+01 
 8.85003e+03  3.41997e+02 -2.31920e+02 
 8.08708e+03  2.15930e+02  2.15908e+01 
 8.51657e+03  1.87980e+02 -3.90727e+01 
 8.43282e+03  2.42887e+02 -5.27941e+01 
 8.28094e+03  2.34301e+02 -4.55519e+01 
 7.99291e+03  8.73850e+01 -1.02332e+02 
 8.53604e+03  2.11427e+02 -4.53259e+01 
 9.08779e+03  3.01131e+02 -9.22091e+01 
 8.77354e+03  4.83835e+02 -7.85845e+01 
 9.06245e+03  2.98699e+02 -9.14554e+01 
 8.61170e+03  2.08084e+02 -5.35427e+01 
 8.46756e+03  1.73853e+02 -5.19042e+01 
 8.78215e+03  3.77988e+02 -8.94961e+01 
 8.17198e+03  2.02477e+02 -2.51139e+01 
 8.11751e+03  1.39142e+02 -9.61773e+01 
 8.37752e+03  2.49779e+02 -4.64637e+01 
 8.50836e+03  2.39541e+02 -6.83670e+01 
 8.85965e+03  3.28393e+02 -1.49693e+02 
 9.03480e+03  2.04596e+02 -4.49838e+01 
 8.77681e+03  3.12921e+02 -7.68728e+01 
 8.64462e+03  2.40294e+02 -8.00375e+01 
 6.60390e+03  5.36317e+01  9.52217e+01 
 8.85539e+03  2.89591e+02 -1.09264e+02 
 8.23730e+03  5.00408e+02 -4.03065e+01 
 8.40820e+03  3.11044e+02 -2.57041e+02 
 8.53997e+03  2.59855e+02 -5.00456e+01 
 8.33381e+03  1.76350e+02 -4.56244e+01 
 8.30938e+03  1.55710e+02 -6.74859e+01 
 8.24587e+03  3.94617e+02 -5.61911e+01 
 9.06037e+03  2.50685e+02 -6.84994e+01 
 8.34862e+03  5.09873e+02 -3.61588e+01 
 8.41699e+03  3.04501e+02 -1.73080e+02 
 8.25798e+03  1.29798e+02 -2.45947e+01 
 9.12091e+03  3.96100e+02 -1.39202e+02 
 8.76748e+03  2.12984e+02 -4.43920e+01 
 8.49779e+03  3.02683e+02 -2.66001e+02 
 8.70345e+03  1.69850e+02 -3.93356e+01 
 7.17106e+03  2.37723e+02  8.74718e+01 
 8.72673e+03  1.74795e+02 -3.75642e+01 
 7.10674e+03  2.87124e+01 -1.00537e+02 
 9.08550e+03  2.53133e+02 -6.95521e+01 
 8.38649e+03  1.64762e+02  5.23585e+00 
 8.81613e+03  2.05539e+02 -5.76966e+01 
 8.50405e+03  2.98984e+02 -1.77590e+02 
 8.35321e+03  3.98768e+02 -5.68542e+01 
 7.44770e+03  1.80543e+02 -8.79033e+01 
 9.11465e+03  3.47484e+02 -1.15727e+02 
 8.45562e+03  1.63410e+02 -2.15687e+01 
 8.35511e+03  1.56534e+02 -2.56602e+01 
 8.27627e+03  1.70836e+02  2.28005e+01 
 8.41638e+03  1.87741e+02 -2.06088e+01 
 9.08659e+03  3.94424e+02 -1.37293e+02 
 8.26548e+03  1.79163e+02 -1.82738e+01 
 9.13718e+03  3.97691e+02 -1.40925e+02 
 8.16622e+03  8.36489e+01 -5.88888e+01 
 9.08634e+03  3.45202e+02 -1.15165e+02 
 8.35268e+03  1.64167e+02 -1.13724e+01 
 8.24678e+03  3.07044e+02 -5.21788e+01 
 8.48767e+03  5.12449e+02 -3.11053e+01 
 8.42048e+03  2.75819e+02 -1.07731e+02 
 8.61466e+03  2.95714e+02 -2.67543e+02 
 7.64227e+03  2.35456e+02  5.17157e+01 
 9.13684e+03  3.50096e+02 -1.17455e+02 
 7.55833e+03  2.10141e+01 -1.47812e+02 
 8.27711e+03  1.20277e+02 -5.40570e+01 
 8.35899e+03  2.01131e+02 -1.95124e+01 
 8.48773e+03  1.86058e+02 -4.32484e+01 
 8.50117e+03  2.71495e+02 -1.17134e+02 
 8.62259e+03  2.99292e+02 -1.76546e+02 
 8.52743e+03  1.48955e+02 -4.01942e+01 
 8.84226e+03  2.43775e+02 -8.26730e+01 
 7.77421e+03  1.22910e+02 -1.26201e+02 
 7.80481e+03  1.97374e+02 -3.92296e+01 
 8.49432e+03  3.97905e+02 -5.95110e+01 
 8.76574e+03  2.60395e+02 -5.62942e+01 
 8.34641e+03  3.16278e+02 -5.15534e+01 
 9.11117e+03  2.99392e+02 -9.31884e+01 
 8.52913e+03  1.68751e+02 -2.39255e+01 
 8.60094e+03  1.61114e+02 -3.75750e+01 
 8.52516e+03  2.13516e+02 -2.41794e+01 
 9.08470e+03  2.96892e+02 -9.21337e+01 
 8.51013e+03  1.48869e+02 -2.55866e+01 
 9.13523e+03  3.02073e+02 -9.41010e+01 
 8.62612e+03  1.88716e+02 -5.89711e+01 
 8.46456e+03  1.32227e+02 -3.78418e+01 
 9.05858e+03  2.02785e+02 -4.55140e+01 
 8.62223e+03  2.74370e+02 -1.20791e+02 
 8.05297e+03  1.45679e+02 -6.73615e+01 
 9.03325e+03  1.56772e+02 -2.20826e+01 
 8.48987e+03  3.20786e+02 -5.66846e+01 
 9.08357e+03  2.05128e+02 -4.67179e+01 
 8.40754e+03  2.29584e+02 -6.08617e+01 
 8.65487e+03  4.94807e+02 -2.65004e+01 
 8.23323e+03  2.38869e+02 -3.16656e+01 
 8.75693e+03  2.89366e+02 -2.48441e+02 
 7.91367e+03  2.42646e+01 -1.12530e+02 
 8.00729e+03  1.94483e+02  4.50155e+01 
 8.66820e+03  3.83363e+02 -6.69938e+01 
 8.77163e+03  3.04698e+02 -1.62003e+02 
 8.48254e+03  2.26492e+02 -7.78971e+01 
 8.06870e+03  8.72575e+01 -9.14161e+01 
 8.76478e+03  1.67371e+02 -2.21055e+01 
 9.10874e+03  2.51319e+02 -7.02653e+01 
 8.12144e+03  1.69665e+02 -9.73627e+00 
 8.32608e+03  2.55749e+02 -3.10680e+01 
 8.81141e+03  1.58165e+02 -3.83574e+01 
 9.08292e+03  2.48888e+02 -6.90933e+01 
 9.16228e+03  3.94936e+02 -1.40851e+02 
 8.24343e+03  8.31863e+01 -3.97108e+00 
 8.72963e+03  1.30883e+02 -1.86009e+01 
 8.37089e+03  1.17677e+02  2.33003e+01 
 8.24352e+03  1.30777e+02  1.45094e+01 
 8.75553e+03  2.13704e+02 -3.16744e+01 
 9.13678e+03  3.94397e+02 -1.37992e+02 
 8.39244e+03  1.27261e+02  3.64447e+00 
 8.70792e+03  1.24828e+02 -2.03131e+01 
 9.13307e+03  2.53840e+02 -7.13585e+01 
 8.82915e+03  1.93971e+02 -6.18406e+01 
 8.66701e+03  3.15185e+02 -6.55764e+01 
 8.60487e+03  2.30726e+02 -8.86624e+01 
 8.77442e+03  2.80860e+02 -1.14805e+02 
 9.13594e+03  3.45807e+02 -1.17395e+02 
 8.44559e+03  1.17844e+02 -7.52396e+00 
 8.31712e+03  1.31863e+02 -2.67677e+01 
 9.16149e+03  3.48879e+02 -1.17509e+02 
 8.34959e+03  1.13904e+02 -3.22320e+00 
 8.29557e+03  1.05568e+02 -4.91806e+01 
 8.46466e+03  1.28389e+02 -2.60266e+01 
 8.47299e+03  2.65402e+02 -3.79262e+01 
 8.34047e+03  1.59069e+02  1.24419e+01 
 5.56296e+03 -8.14093e+01  2.04241e+02 
 8.19646e+03  5.03153e+02 -2.31357e+01 
 8.38508e+03  2.90607e+02 -2.66016e+02 
 9.15865e+03  3.00332e+02 -9.50501e+01 
 8.89861e+03  2.91949e+02 -1.96013e+02 
 8.53310e+03  1.25171e+02 -1.07241e+00 
 8.82002e+03  4.44194e+02 -3.08344e+01 
 8.24700e+03  1.35591e+02  4.24874e+01 
 8.20335e+03  1.83483e+02  1.81919e+00 
 8.60045e+03  1.15177e+02 -2.16554e+01 
 8.37690e+03  1.69961e+02 -2.69995e+01 
 6.61554e+03  2.34835e+02  1.92551e+02 
 8.46959e+03  2.82051e+02 -2.70622e+02 
 8.61008e+03  1.34077e+02 -4.35959e+01 
 6.57413e+03 -1.26882e+02 -1.20537e+02 
 8.14120e+03  3.00120e+01 -4.80239e+01 
 9.13360e+03  2.97534e+02 -9.39496e+01 
 8.30008e+03  5.08325e+02 -1.76985e+01 
 8.38691e+03  2.88871e+02 -1.84427e+02 
 8.51471e+03  1.72102e+02  5.40070e+00 
 8.19802e+03  4.01333e+02 -4.29717e+01 
 8.85992e+03  3.56230e+02 -7.92931e+01 
 8.34054e+03  1.24491e+02  6.60838e+00 
 9.05710e+03  1.54955e+02 -2.24936e+01 
 8.45024e+03  1.69066e+02 -5.34959e+01 
 8.93994e+03  3.17269e+02 -1.31791e+02 
 8.47101e+03  2.84398e+02 -1.87848e+02 
 8.27105e+03  6.89286e+01 -3.35220e+01 
 9.10678e+03  2.03324e+02 -4.72911e+01 
 9.08198e+03  1.57185e+02 -2.38269e+01 
 8.29491e+03  2.09243e+02  1.47175e+00 
 8.29995e+03  4.04519e+02 -4.26335e+01 
 7.11297e+03  1.12539e+02 -8.31308e+01 
 8.75863e+03  2.38213e+02 -8.92910e+01 
 8.65400e+03  2.63898e+02 -4.83666e+01 
 8.53464e+03  9.87291e+01 -1.58493e+01 
 8.42116e+03  5.06698e+02 -1.29785e+01 
 9.08127e+03  2.01001e+02 -4.60108e+01 
 9.03208e+03  1.08990e+02  8.73539e-01 
 7.33357e+03 -1.01699e+02 -1.51512e+02 
 9.13121e+03  2.05710e+02 -4.85170e+01 
 8.57097e+03  2.75972e+02 -2.67641e+02 
 8.38342e+03  2.66747e+02 -1.19216e+02 
 7.40985e+03  1.99809e+02  1.14395e+02 
 8.19203e+03  3.14582e+02 -4.49162e+01 
 8.42307e+03  4.02295e+02 -4.54318e+01 
 8.57800e+03  1.76477e+02 -7.00186e+01 
 8.92939e+03  2.85437e+02 -1.06802e+02 
 8.51595e+03  1.03185e+02 -3.04348e+00 
 8.47483e+03  8.07183e+01 -1.33430e+01 
 8.28709e+03  3.24260e+02 -4.33474e+01 
 7.63272e+03  2.70150e+01 -9.38396e+01 
 8.44982e+03  2.22484e+02 -8.39200e+00 
 7.66624e+03  1.29715e+02  6.75591e+00 
 8.57477e+03  2.85265e+02 -1.85535e+02 
 8.46254e+03  2.63606e+02 -1.28985e+02 
 8.85129e+03  3.04198e+02 -7.40825e+01 
 9.15644e+03  2.52040e+02 -7.20458e+01 
 9.13143e+03  2.49485e+02 -7.09130e+01 
 8.81673e+03  1.11322e+02 -1.75885e+01 
 8.77153e+03  1.20499e+02  7.91136e-01 
 8.82119e+03  1.42204e+02 -4.34678e+01 
 8.75094e+03  1.69310e+02 -4.85742e+00 
 8.41427e+03  3.27990e+02 -5.03043e+01 
 8.36571e+03  6.44100e+01  2.43575e+01 
 9.18044e+03  3.92623e+02 -1.38980e+02 
 8.21831e+03  8.38867e+01  5.06460e+01 
 8.00326e+03  5.55856e+01 -9.19767e+00 
 8.57050e+03  2.68426e+02 -1.31932e+02 
 8.16549e+03  2.46116e+02 -2.66423e+01 
 8.32676e+03  1.17117e+02  4.65695e+01 
 9.18174e+03  3.47204e+02 -1.18920e+02 
 8.35857e+03  2.24792e+02 -7.09517e+01 
 8.44505e+03  7.05398e+01 -1.11440e+01 
 7.84085e+03 -6.35606e+01 -7.95307e+01 
 8.68141e+03  2.69147e+02 -2.46726e+02 
 7.91568e+03  1.40509e+02  9.16296e+01 
 8.55481e+03  4.87777e+02 -6.69594e+00 
 8.89123e+03  3.89126e+02 -1.93142e+01 
 8.15730e+03  1.35077e+02  4.59843e+01 
 8.63845e+03  2.20831e+02 -2.24230e+01 
 8.91438e+03  2.42246e+02 -8.39298e+01 
 8.74409e+03  8.17580e+01  7.34102e+00 
 8.73883e+03  1.86987e+02 -7.18239e+01 
 8.35861e+03  7.19007e+01  4.24841e+01 
 8.32906e+03  9.93867e+01 -8.76204e-01 
 8.69086e+03  2.88852e+02 -1.71706e+02 
 8.94347e+03  2.78072e+02 -1.39089e+02 
 8.83760e+03  2.56345e+02 -5.66171e+01 
 8.25545e+03  2.65553e+02 -2.48225e+01 
 8.43467e+03  2.22998e+02 -9.03339e+01 
 8.03815e+03 -3.64500e+00 -2.87484e+01 
 8.72388e+03  7.43276e+01  5.16278e+00 
 8.23276e+03  3.21597e+01  1.96105e+01 
 8.56265e+03  3.88436e+02 -5.11567e+01 
 8.07764e+03  9.82909e+01  3.84777e+01 
 8.93061e+03  3.41512e+02 -8.00427e+01 
 8.98391e+03  3.14687e+02 -1.17372e+02 
 8.44591e+03  7.42753e+01  1.19830e+01 
 8.40747e+03  1.02526e+02 -3.80544e+01 
 8.35476e+03  6.23445e+01  2.30416e+01 
 9.10521e+03  1.55386e+02 -2.42765e+01 
 8.25601e+03  1.70734e+02  4.31976e+01 
 8.60250e+03  8.01909e+01 -2.83188e+01 
 8.51333e+03  1.29729e+02  3.56025e+01 
 9.18116e+03  2.98286e+02 -9.57822e+01 
 9.05595e+03  1.07164e+02  5.71986e-01 
 9.07988e+03  1.53181e+02 -2.28819e+01 
 9.08074e+03  1.09290e+02 -8.77646e-01 
 8.38956e+03  2.74897e+02 -3.46427e+01 
 9.12957e+03  2.01500e+02 -4.78350e+01 
 8.54782e+03  2.30285e+02 -1.00586e+02 
 9.12963e+03  1.57642e+02 -2.56303e+01 
 9.15452e+03  2.03906e+02 -4.90859e+01 
 8.69304e+03  2.76312e+02 -1.24874e+02 
 8.29531e+03  1.62103e+01  1.52301e+01 
 8.55892e+03  3.21420e+02 -5.98982e+01 
 8.31255e+03  4.94285e+01  3.01058e+01 
 8.92827e+03  2.95232e+02 -7.60820e+01 
 8.98137e+03  2.85268e+02 -9.67612e+01 
 8.54878e+03  7.24332e+01  2.39822e+01 
 8.54780e+03  1.15480e+02 -5.87581e+01 
 8.61314e+03  7.06174e+01  2.87604e+00 
 8.42611e+03  1.86453e+02  2.81467e+01 
 8.11171e+03  1.90568e+02  8.93584e+00 
 8.12227e+03 -3.98745e+01 -9.95975e+00 
 8.77855e+03  2.63076e+02 -2.00983e+02 
 8.21653e+03  8.03155e+01  7.71353e+01 
 8.30553e+03  1.65428e+02 -3.57153e+01 
 8.67533e+03  4.44461e+02 -1.41651e+00 
 8.82607e+03  2.11770e+02 -3.30387e+01 
 9.17868e+03  2.50148e+02 -7.26991e+01 
 9.03129e+03  6.12110e+01  2.39060e+01 
 8.90043e+03  1.93330e+02 -6.42505e+01 
 8.82269e+03  9.11570e+01 -2.38963e+01 
 8.36506e+03  2.85356e+02 -2.70778e+02 
 3.69418e+03 -3.24285e+02  4.01221e+02 
 8.75527e+03  1.23704e+02  2.17660e+01 
 8.16003e+03  5.04064e+02 -1.64382e+01 
 8.80081e+03  2.91661e+02 -1.46088e+02 
 8.27600e+03 -9.65151e+00  1.93996e+01 
 8.20355e+03  2.22659e+02  1.00387e+01 
 8.33704e+03  6.23696e+01  4.85685e+01 
 8.38444e+03  1.65867e+02 -6.78989e+01 
 8.69668e+03  3.65330e+02 -5.51039e+01 
 8.44561e+03  2.78139e+02 -2.73453e+02 
 8.16000e+03  4.05887e+02 -3.81085e+01 
 8.36018e+03  2.82584e+02 -1.92783e+02 
 5.81997e+03  1.47403e+02  4.74213e+02 
 8.67507e+03  2.39426e+02 -9.97775e+01 
 8.54208e+03  2.71537e+02 -4.68252e+01 
 5.87679e+03 -4.90784e+02 -6.51286e+01 
 8.55020e+03  2.03450e+01  3.88652e+01 
 8.25824e+03  5.07110e+02 -1.28725e+01 
 8.96892e+03  2.42482e+02 -7.49247e+01 
 8.44251e+03  2.80204e+02 -1.94999e+02 