<?xml version="1.0" encoding="utf-8"?>
<VTKFile byte_order="LittleEndian" type="UnstructuredGrid" version="0.1">
   <UnstructuredGrid>
      <Piece NumberOfCells="64" NumberOfPoints="41">
         <Points>
            <DataArray Name="Points" NumberOfComponents="3" format="ascii" type="Float32">
0.0000 0.0000 0.0000
0.0000 0.5000 0.0000
0.0000 1.0000 0.0000
1.0000 0.0000 0.0000
1.0000 0.5000 0.0000
1.0000 1.0000 0.0000
2.0000 0.0000 0.0000
2.0000 0.5000 0.0000
2.0000 1.0000 0.0000
0.5000 0.2500 0.0000
0.5000 0.7500 0.0000
1.5000 0.2500 0.0000
1.5000 0.7500 0.0000
0.0000 0.2500 0.0000
0.2500 0.1250 0.0000
0.2500 0.3750 0.0000
0.0000 0.7500 0.0000
0.2500 0.6250 0.0000
0.2500 0.8750 0.0000
1.0000 0.2500 0.0000
1.2500 0.1250 0.0000
1.2500 0.3750 0.0000
1.0000 0.7500 0.0000
1.2500 0.6250 0.0000
1.2500 0.8750 0.0000
0.5000 0.5000 0.0000
0.7500 0.3750 0.0000
0.5000 1.0000 0.0000
0.7500 0.8750 0.0000
1.5000 0.5000 0.0000
1.7500 0.3750 0.0000
1.5000 1.0000 0.0000
1.7500 0.8750 0.0000
0.7500 0.1250 0.0000
0.7500 0.6250 0.0000
2.0000 0.2500 0.0000
1.7500 0.1250 0.0000
2.0000 0.7500 0.0000
1.7500 0.6250 0.0000
0.5000 0.0000 0.0000
1.5000 0.0000 0.0000</DataArray>
         </Points>
         <Cells>
            <DataArray Name="connectivity" format="ascii" type="Int32">
 0 39 14
 30 38 29
 7 38 30
 5 27 28
 5 24 31
 0 14 13
 9 26 25
 9 14 39
 4 26 19
 19 21 4
 33 39 3
 3 19 33
 33 19 26
 33 9 39
 26 9 33
 37 38 7
 36 40 6
 3 40 20
 20 19 3
 21 19 20
 23 21 29
 4 21 23
 1 17 16
 18 27 2
 2 16 18
 18 16 17
 5 28 22
 22 23 24
 22 24 5
 4 23 22
 10 28 27
 10 17 25
 27 18 10
 10 18 17
 8 31 32
 32 37 8
 38 37 32
 1 13 15
 15 17 1
 15 13 14
 25 17 15
 15 9 25
 14 9 15
 7 30 35
 35 36 6
 30 36 35
 11 36 30
 11 30 29
 40 36 11
 29 21 11
 11 20 40
 21 20 11
 12 31 24
 12 23 29
 24 23 12
 29 38 12
 38 32 12
 12 32 31
 25 26 34
 34 10 25
 28 10 34
 34 26 4
 4 22 34
 34 22 28</DataArray>
            <DataArray Name="offsets" format="ascii" type="Int32">3 6 9 12 15 18 21 24 27 30 33 36 39 42 45 48 51 54 57 60 63 66 69 72 75 78 81 84 87 90 93 96 99 102 105 108 111 114 117 120 123 126 129 132 135 138 141 144 147 150 153 156 159 162 165 168 171 174 177 180 183 186 189 192 </DataArray>
            <DataArray Name="types" format="ascii" type="UInt8">5 5 5 5 5 5 5 5 5 5 5 5 5 5 5 5 5 5 5 5 5 5 5 5 5 5 5 5 5 5 5 5 5 5 5 5 5 5 5 5 5 5 5 5 5 5 5 5 5 5 5 5 5 5 5 5 5 5 5 5 5 5 5 5 </DataArray>
         </Cells>
         <PointData>
            <DataArray Name="fValues" NumberOfComponents="3" format="ascii" type="Float64">
-5.43896e-16        00000        00000 
-2.05260e-16 -7.33070e-18        00000 
-5.43896e-16  1.69967e-16        00000 
 4.75175e+00  1.11689e+00        00000 
 4.75642e+00 -7.96317e-16        00000 
 4.75175e+00 -1.11689e+00        00000 
 1.07861e+01  1.51496e+00        00000 
 9.24831e+00  2.05260e-15        00000 
 1.07861e+01 -1.51496e+00        00000 
 2.20902e+00  5.50367e-01        00000 
 2.20902e+00 -5.50367e-01        00000 
 7.22388e+00  4.08559e-01        00000 
 7.22388e+00 -4.08559e-01        00000 
 5.79795e-17  5.79795e-17        00000 
 1.04064e+00  4.04824e-01        00000 
 9.97078e-01  1.29902e-01        00000 
       00000  8.69693e-17        00000 
 9.97078e-01 -1.29902e-01        00000 
 1.04064e+00 -4.04824e-01        00000 
 4.77182e+00  5.56256e-01        00000 
 6.02671e+00  7.39665e-01        00000 
 5.98986e+00  2.30055e-01        00000 
 4.77182e+00 -5.56256e-01        00000 
 5.98986e+00 -2.30055e-01        00000 
 6.02671e+00 -7.39665e-01        00000 
 2.17284e+00 -3.57855e-16        00000 
 3.47523e+00  2.93641e-01        00000 
 2.40120e+00 -1.16053e+00        00000 
 3.54100e+00 -8.78335e-01        00000 
 7.08746e+00 -8.06705e-16        00000 
 8.19945e+00  2.50912e-01        00000 
 7.33769e+00 -9.29942e-01        00000 
 8.68037e+00 -7.71293e-01        00000 
 3.54100e+00  8.78335e-01        00000 
 3.47523e+00 -2.93641e-01        00000 
 9.50223e+00  7.88253e-01        00000 
 8.68037e+00  7.71293e-01        00000 
 9.50223e+00 -7.88253e-01        00000 
 8.19945e+00 -2.50912e-01        00000 
 2.40120e+00  1.16053e+00        00000 
 7.33769e+00  9.29942e-01        00000 </DataArray>
         </PointData>
         <CellData/>
      </Piece>
   </UnstructuredGrid>
</VTKFile>