<?xml version="1.0" encoding="utf-8"?>
<VTKFile byte_order="LittleEndian" type="UnstructuredGrid" version="0.1">
   <UnstructuredGrid>
      <Piece NumberOfCells="11114" NumberOfPoints="2646">
         <Points>
            <DataArray Name="Points" NumberOfComponents="3" format="ascii" type="Float32">
-0.5000 0.5000 1.0000
-0.5000 0.5000 0.9333
-0.5000 0.4333 1.0000
-0.4333 0.5000 1.0000
-0.4333 0.5000 0.9333
-0.5000 0.4333 0.9333
-0.4333 0.4333 1.0000
-0.5000 0.5000 0.8667
-0.3667 0.5000 1.0000
-0.5000 0.3667 1.0000
-0.4333 0.5000 0.8667
-0.5000 0.4333 0.8667
-0.3667 0.5000 0.9333
-0.5000 0.3667 0.9333
-0.3667 0.4333 1.0000
-0.4333 0.3667 1.0000
-0.4111 0.4322 0.8889
-0.4111 0.3889 0.9322
-0.3667 0.5000 0.8667
-0.5000 0.3667 0.8667
-0.3667 0.3667 1.0000
-0.5000 0.5000 0.8000
-0.5000 0.3000 1.0000
-0.3000 0.5000 1.0000
-0.3444 0.4322 0.8889
-0.3444 0.3889 0.9322
-0.4324 0.4056 0.8289
-0.4425 0.3261 0.8997
-0.4333 0.5000 0.8000
-0.5000 0.4333 0.8000
-0.3000 0.5000 0.9333
-0.5000 0.3000 0.9333
-0.4333 0.3000 1.0000
-0.3000 0.4333 1.0000
-0.4356 0.2758 0.9638
-0.3667 0.5000 0.8000
-0.5000 0.3667 0.8000
-0.5000 0.3000 0.8667
-0.3000 0.5000 0.8667
-0.3667 0.3000 1.0000
-0.3000 0.3667 1.0000
-0.2911 0.4424 0.8956
-0.3444 0.4322 0.8222
-0.3444 0.3222 0.9322
-0.4144 0.4424 0.7622
-0.4322 0.3222 0.8222
-0.4048 0.2610 0.9317
-0.5000 0.5000 0.7333
-0.5000 0.2333 1.0000
-0.2333 0.5000 1.0000
-0.5000 0.4333 0.7333
-0.4333 0.5000 0.7333
-0.2333 0.5000 0.9333
-0.5000 0.2333 0.9333
-0.4333 0.2333 1.0000
-0.2333 0.4333 1.0000
-0.3000 0.5000 0.8000
-0.5000 0.3000 0.8000
-0.3000 0.3000 1.0000
-0.2778 0.4322 0.8222
-0.2762 0.3359 0.9020
-0.3444 0.4322 0.7556
-0.3667 0.5000 0.7333
-0.5000 0.3667 0.7333
-0.2333 0.5000 0.8667
-0.5000 0.2333 0.8667
-0.2333 0.3667 1.0000
-0.3667 0.2333 1.0000
-0.4047 0.2229 0.9441
-0.3488 0.2522 0.9267
-0.4322 0.2556 0.8222
-0.4190 0.3387 0.7456
-0.1919 0.4541 0.9549
-0.2133 0.4110 0.8960
-0.2062 0.3745 0.9385
-0.5000 0.5000 0.6667
-0.5000 0.3000 0.7333
-0.3000 0.5000 0.7333
-0.5000 0.2333 0.8000
-0.2333 0.5000 0.8000
-0.3000 0.2333 1.0000
-0.2333 0.3000 1.0000
-0.5000 0.1667 1.0000
-0.1667 0.5000 1.0000
-0.3066 0.3123 0.8011
-0.4322 0.3889 0.6889
-0.2778 0.4322 0.7556
-0.2778 0.2556 0.9322
-0.5000 0.4333 0.6667
-0.4333 0.5000 0.6667
-0.5000 0.1667 0.9333
-0.1667 0.5000 0.9333
-0.4333 0.1667 1.0000
-0.1667 0.4333 1.0000
-0.4295 0.1766 0.9208
-0.2129 0.3908 0.8494
-0.4424 0.2622 0.7522
-0.2111 0.3122 0.9322
-0.3444 0.4322 0.6889
-0.3444 0.1889 0.9322
-0.5000 0.3667 0.6667
-0.3667 0.5000 0.6667
-0.5000 0.1667 0.8667
-0.1667 0.5000 0.8667
-0.3667 0.1667 1.0000
-0.1667 0.3667 1.0000
-0.4403 0.1457 0.9609
-0.4322 0.3222 0.6889
-0.4322 0.1889 0.8222
-0.1709 0.3813 0.8961
-0.5000 0.2333 0.7333
-0.2333 0.5000 0.7333
-0.2333 0.2333 1.0000
-0.1368 0.4398 0.8970
-0.2111 0.4322 0.7556
-0.2111 0.2556 0.9322
-0.1378 0.3771 0.9424
-0.2778 0.4322 0.6889
-0.2778 0.1889 0.9322
-0.5000 0.3000 0.6667
-0.3000 0.5000 0.6667
-0.5000 0.1667 0.8000
-0.1667 0.5000 0.8000
-0.3000 0.1667 1.0000
-0.1667 0.3000 1.0000
-0.4322 0.3889 0.6322
-0.4111 0.4322 0.6222
-0.4004 0.1221 0.9391
-0.5000 0.5000 0.6000
-0.5000 0.1000 1.0000
-0.1000 0.5000 1.0000
-0.4322 0.2556 0.6889
-0.4322 0.1889 0.7556
-0.1444 0.4322 0.8222
-0.1444 0.3222 0.9322
-0.5000 0.4333 0.6000
-0.4333 0.5000 0.6000
-0.5000 0.1000 0.9333
-0.1000 0.5000 0.9333
-0.4333 0.1000 1.0000
-0.1000 0.4333 1.0000
-0.3576 0.1222 0.9157
-0.5000 0.3667 0.6000
-0.3667 0.5000 0.6000
-0.5000 0.1000 0.8667
-0.1000 0.5000 0.8667
-0.1000 0.3667 1.0000
-0.3667 0.1000 1.0000
-0.4322 0.1222 0.8222
-0.3022 0.3211 0.6711
-0.4092 0.0883 0.9375
-0.5000 0.2333 0.6667
-0.2333 0.5000 0.6667
-0.5000 0.1667 0.7333
-0.1667 0.5000 0.7333
-0.2333 0.1667 1.0000
-0.1667 0.2333 1.0000
-0.3328 0.2167 0.7267
-0.2111 0.4322 0.6889
-0.2111 0.1889 0.9322
-0.3401 0.4124 0.6089
-0.4322 0.3222 0.6122
-0.1500 0.2877 0.8509
-0.1444 0.4322 0.7556
-0.1444 0.2556 0.9322
-0.0778 0.4322 0.8889
-0.2778 0.4322 0.6222
-0.2778 0.1222 0.9322
-0.4322 0.1889 0.6889
-0.5000 0.3000 0.6000
-0.3000 0.5000 0.6000
-0.5000 0.1000 0.8000
-0.1000 0.5000 0.8000
-0.3000 0.1000 1.0000
-0.1000 0.3000 1.0000
-0.0734 0.3862 0.9241
-0.4322 0.2556 0.6222
-0.4322 0.1222 0.7556
-0.4322 0.3889 0.5556
-0.0778 0.4322 0.8222
-0.0778 0.3222 0.9322
-0.2333 0.1667 0.8152
-0.5000 0.5000 0.5333
-0.5000 0.0333 1.0000
-0.0333 0.5000 1.0000
-0.1544 0.4322 0.6889
-0.4452 0.0451 0.8908
-0.4333 0.5000 0.5333
-0.5000 0.4333 0.5333
-0.5000 0.1667 0.6667
-0.1667 0.5000 0.6667
-0.5000 0.0333 0.9333
-0.0333 0.5000 0.9333
-0.1667 0.1667 1.0000
-0.0333 0.4333 1.0000
-0.4333 0.0333 1.0000
-0.3444 0.4322 0.5556
-0.3444 0.0556 0.9322
-0.1444 0.1889 0.9322
-0.2111 0.4322 0.6222
-0.2111 0.1222 0.9322
-0.5000 0.2333 0.6000
-0.2333 0.5000 0.6000
-0.5000 0.1000 0.7333
-0.1000 0.5000 0.7333
-0.1000 0.2333 1.0000
-0.2333 0.1000 1.0000
-0.4322 0.3222 0.5556
-0.4322 0.0556 0.8222
-0.3667 0.5000 0.5333
-0.5000 0.3667 0.5333
-0.5000 0.0333 0.8667
-0.0333 0.5000 0.8667
-0.0333 0.3667 1.0000
-0.3667 0.0333 1.0000
-0.0778 0.4322 0.7556
-0.0778 0.2556 0.9322
-0.4322 0.1889 0.6222
-0.4322 0.1222 0.6889
-0.1752 0.3377 0.6548
-0.2778 0.4322 0.5556
-0.2778 0.0556 0.9322
-0.0111 0.4322 0.8889
-0.5000 0.3000 0.5333
-0.3000 0.5000 0.5333
-0.5000 0.0333 0.8000
-0.0333 0.5000 0.8000
-0.0333 0.3000 1.0000
-0.3000 0.0333 1.0000
-0.4322 0.2556 0.5556
-0.4322 0.0556 0.7556
-0.3152 0.1000 0.7333
-0.5000 0.1667 0.6000
-0.1667 0.5000 0.6000
-0.1000 0.5000 0.6667
-0.5000 0.1000 0.6667
-0.1000 0.1667 1.0000
-0.1667 0.1000 1.0000
-0.4111 0.4322 0.4889
-0.1444 0.1222 0.9322
-0.0111 0.4322 0.8222
-0.0111 0.3222 0.9322
-0.4361 -0.0132 0.9072
-0.3476 -0.0014 0.9418
-0.0778 0.1889 0.9322
-0.0556 0.2873 0.8075
-0.5000 0.5000 0.4667
-0.5000 -0.0333 1.0000
0.0333 0.5000 1.0000
-0.2111 0.4322 0.5556
-0.2111 0.0556 0.9322
-0.0778 0.4322 0.6789
-0.1344 0.4322 0.6122
-0.5000 0.4333 0.4667
-0.4333 0.5000 0.4667
-0.2333 0.5000 0.5333
-0.5000 0.2333 0.5333
-0.5000 0.0333 0.7333
-0.0333 0.5000 0.7333
-0.5000 -0.0333 0.9333
0.0333 0.5000 0.9333
-0.4333 -0.0333 1.0000
-0.0333 0.2333 1.0000
-0.2333 0.0333 1.0000
0.0333 0.4333 1.0000
-0.3444 0.4322 0.4889
-0.4322 0.1222 0.6222
-0.3152 0.3000 0.5333
-0.4322 0.3222 0.4889
-0.4322 -0.0111 0.8222
-0.4322 0.1889 0.5556
-0.4322 0.0556 0.6889
-0.5000 0.3667 0.4667
-0.3667 0.5000 0.4667
-0.5000 -0.0333 0.8667
0.0333 0.5000 0.8667
0.0333 0.3667 1.0000
-0.3667 -0.0333 1.0000
-0.0111 0.4322 0.7556
-0.0111 0.2556 0.9322
-0.1095 0.2188 0.7244
-0.0690 0.3004 0.7106
-0.4036 -0.0460 0.9407
-0.2778 0.4322 0.4889
-0.2778 -0.0111 0.9322
-0.5000 0.1000 0.6000
-0.1000 0.5000 0.6000
-0.1000 0.1000 1.0000
-0.2333 0.0333 0.8152
0.0537 0.4283 0.8911
-0.5000 0.3000 0.4667
-0.3000 0.5000 0.4667
-0.5000 -0.0333 0.8000
0.0333 0.5000 0.8000
0.0333 0.3000 1.0000
-0.3000 -0.0333 1.0000
-0.4322 0.2556 0.4889
-0.4322 -0.0111 0.7556
-0.0778 0.1222 0.9322
0.0556 0.3889 0.9322
-0.0493 0.1879 0.8364
-0.1444 0.4322 0.5556
-0.1444 0.0556 0.9322
-0.5000 0.1667 0.5333
-0.1667 0.5000 0.5333
-0.5000 0.0333 0.6667
-0.0333 0.5000 0.6667
-0.0333 0.1667 1.0000
-0.1667 0.0333 1.0000
0.0774 0.4532 0.9513
-0.0665 0.4143 0.6196
-0.0111 0.4322 0.6889
-0.0111 0.1889 0.9322
-0.4322 0.1222 0.5556
-0.4322 0.0556 0.6222
0.0556 0.4322 0.8222
0.0556 0.3222 0.9322
-0.1019 0.1207 0.7904
-0.2111 0.4322 0.4889
-0.2111 -0.0111 0.9322
-0.4322 0.3889 0.4222
-0.2333 0.5000 0.4667
-0.5000 0.2333 0.4667
-0.5000 -0.0333 0.7333
0.0333 0.5000 0.7333
-0.2333 -0.0333 1.0000
0.0333 0.2333 1.0000
-0.5000 0.5000 0.4000
-0.5000 -0.1000 1.0000
0.1000 0.5000 1.0000
-0.4452 -0.0882 0.8941
-0.3444 0.4322 0.4222
-0.4322 0.1889 0.4889
-0.4322 -0.0111 0.6889
-0.3444 -0.0778 0.9322
-0.5000 0.4333 0.4000
-0.4333 0.5000 0.4000
-0.5000 -0.1000 0.9333
0.1000 0.5000 0.9333
-0.4333 -0.1000 1.0000
0.1000 0.4333 1.0000
0.0333 0.3152 0.7778
-0.4322 0.3222 0.4222
-0.4322 -0.0778 0.8222
0.0995 0.4391 0.9082
0.0556 0.4322 0.7556
0.0556 0.2556 0.9322
0.0333 0.3644 0.7333
-0.2340 -0.0006 0.7697
-0.2710 0.1806 0.5298
-0.5000 0.3667 0.4000
-0.3667 0.5000 0.4000
-0.5000 0.1000 0.5333
-0.1000 0.5000 0.5333
-0.5000 0.0333 0.6000
-0.0333 0.5000 0.6000
-0.5000 -0.1000 0.8667
0.1000 0.5000 0.8667
-0.3667 -0.1000 1.0000
-0.0333 0.1000 1.0000
0.1000 0.3667 1.0000
-0.1000 0.0333 1.0000
-0.0778 0.4322 0.5556
-0.0778 0.0556 0.9322
-0.0628 0.2439 0.6440
-0.0111 0.4322 0.6222
-0.0111 0.1222 0.9322
-0.2778 0.4322 0.4222
-0.2778 -0.0778 0.9322
-0.0446 0.1602 0.7432
-0.3152 -0.0333 0.7333
-0.0245 0.2208 0.7038
-0.1444 0.4322 0.4889
-0.1444 -0.0111 0.9322
-0.5000 0.1667 0.4667
-0.1667 0.5000 0.4667
-0.5000 -0.0333 0.6667
0.0333 0.5000 0.6667
-0.1667 -0.0333 1.0000
0.0333 0.1667 1.0000
-0.4322 0.2556 0.4222
-0.4322 -0.0778 0.7556
-0.1481 0.0802 0.6848
-0.4322 0.0556 0.5556
-0.3000 0.5000 0.4000
-0.5000 0.3000 0.4000
-0.5000 -0.1000 0.8000
0.1000 0.5000 0.8000
0.1000 0.3000 1.0000
-0.3000 -0.1000 1.0000
-0.0963 0.2078 0.6003
0.1256 0.3889 0.9322
-0.0693 0.2898 0.5772
-0.4322 0.1222 0.4889
-0.4322 -0.0111 0.6222
-0.1629 0.2746 0.5052
0.0556 0.4322 0.6889
0.0556 0.1889 0.9322
-0.1781 0.1652 0.5590
-0.0577 0.1730 0.6710
0.0053 0.2740 0.6629
0.1222 0.3387 0.9157
-0.2111 0.4322 0.4222
-0.2111 -0.0778 0.9322
0.1222 0.4322 0.8222
-0.0225 0.1177 0.7746
-0.3370 0.1873 0.4509
-0.4410 -0.1434 0.9027
-0.4111 0.4322 0.3556
-0.3443 -0.1348 0.9418
-0.2165 0.0511 0.6141
-0.5000 0.2333 0.4000
-0.2333 0.5000 0.4000
-0.5000 -0.1000 0.7333
0.1000 0.5000 0.7333
-0.2333 -0.1000 1.0000
0.1000 0.2333 1.0000
-0.4322 0.3889 0.3556
-0.3152 0.3000 0.4000
-0.4322 0.1889 0.4222
-0.4322 -0.0778 0.6889
0.0299 0.1807 0.7708
-0.0333 0.5000 0.5333
-0.5000 0.0333 0.5333
-0.0333 0.0333 1.0000
-0.2797 0.0634 0.5534
-0.2226 0.3112 0.4289
-0.0023 0.3128 0.6048
-0.2041 0.2210 0.4751
-0.0111 0.4322 0.5556
-0.0111 0.0556 0.9322
-0.0818 0.4143 0.4909
-0.3113 -0.0027 0.6074
-0.2279 0.0877 0.5536
-0.0536 0.0877 0.7279
-0.3444 0.4322 0.3556
-0.0778 -0.0111 0.9322
-0.5000 0.5000 0.3333
-0.5000 0.1000 0.4667
-0.1000 0.5000 0.4667
[...]
         <PointData>
            <DataArray Name="fValues" NumberOfComponents="3" format="ascii" type="Float64">
-5.24687e-02 -3.65398e-02 -1.55999e-02 
-5.85267e-02  1.37545e-02 -1.25974e-02 
-1.08863e-02  1.68950e-02 -4.40037e-02 
-4.67689e-02  1.43508e-02  1.85923e-04 
-3.95647e-02  1.38644e-01 -1.71572e-02 
-2.92531e-02  6.62660e-02 -3.17226e-02 
-2.48233e-02  6.71416e-02 -2.62698e-02 
-5.89388e-02  2.39315e-02 -1.40589e-02 
-4.29377e-02  2.50837e-02 -1.07878e-03 
-1.40256e-02  6.61699e-02 -4.95187e-02 
-4.41811e-02  1.32369e-01 -1.31603e-02 
-3.37049e-02  7.54081e-02 -2.25379e-02 
-4.37465e-02  1.34396e-01 -1.51316e-02 
-3.04428e-02  8.01486e-02 -3.63767e-02 
-3.40285e-02  7.87717e-02 -2.55941e-02 
-1.80510e-02  8.34830e-02 -2.09219e-02 
-3.54458e-02  1.23509e-01 -1.68199e-02 
-3.20750e-02  1.06368e-01 -2.40083e-02 
-4.46617e-02  1.32959e-01 -1.16161e-02 
-3.30156e-02  8.94296e-02 -2.72882e-02 
-2.81722e-02  9.36348e-02 -2.16023e-02 
-5.53439e-02  2.76772e-02 -1.38161e-02 
-1.22705e-02  9.05808e-02 -4.96160e-02 
-4.24418e-02  2.52621e-02 -6.28862e-04 
-4.10568e-02  1.28050e-01 -1.57132e-02 
-3.74007e-02  1.16683e-01 -2.48999e-02 
-3.42184e-02  1.20635e-01 -1.60479e-02 
-2.94490e-02  1.08246e-01 -2.53292e-02 
-4.01090e-02  1.37641e-01 -1.25225e-02 
-3.25070e-02  7.80495e-02 -1.57719e-02 
-4.35299e-02  1.27385e-01 -1.39756e-02 
-3.49346e-02  9.66415e-02 -3.86463e-02 
-1.85184e-02  9.74180e-02 -2.20374e-02 
-3.84465e-02  8.18813e-02 -2.38324e-02 
-2.53538e-02  1.05565e-01 -2.54504e-02 
-4.66124e-02  1.32791e-01 -9.80903e-03 
-2.92118e-02  9.77993e-02 -2.04646e-02 
-3.10173e-02  1.04328e-01 -2.87186e-02 
-4.50950e-02  1.32342e-01 -9.89477e-03 
-2.55106e-02  1.04381e-01 -2.24957e-02 
-3.59354e-02  1.00282e-01 -2.06577e-02 
-4.30660e-02  1.30790e-01 -1.34930e-02 
-4.35203e-02  1.32072e-01 -1.14699e-02 
-3.38394e-02  1.17601e-01 -2.50013e-02 
-3.92802e-02  1.29102e-01 -1.29576e-02 
-3.11328e-02  1.17645e-01 -2.07161e-02 
-2.98735e-02  1.13309e-01 -2.45313e-02 
-5.61414e-02  2.86480e-02 -1.26738e-02 
-9.12728e-03  1.04740e-01 -4.99837e-02 
-4.23656e-02  2.50805e-02  2.99329e-03 
-3.24751e-02  8.22777e-02 -1.49171e-02 
-4.29067e-02  1.32664e-01 -1.13029e-02 
-4.36498e-02  1.32773e-01 -8.18001e-03 
-3.25121e-02  1.07190e-01 -3.86683e-02 
-1.87868e-02  1.09434e-01 -2.27874e-02 
-4.01170e-02  7.83716e-02 -2.43507e-02 
-4.77814e-02  1.31153e-01 -7.44886e-03 
-3.26568e-02  1.09663e-01 -2.27622e-02 
-3.32137e-02  1.10741e-01 -2.36349e-02 
-4.55588e-02  1.34101e-01 -9.74423e-03 
-3.92190e-02  1.24605e-01 -2.25997e-02 
-4.54465e-02  1.33412e-01 -1.01428e-02 
-4.74890e-02  1.32330e-01 -9.84298e-03 
-3.58754e-02  1.02398e-01 -1.72873e-02 
-4.52301e-02  1.33897e-01 -6.21567e-03 
-3.23881e-02  1.12002e-01 -3.00808e-02 
-3.83917e-02  1.01811e-01 -2.23450e-02 
-2.56957e-02  1.13227e-01 -2.19587e-02 
-2.77821e-02  1.15416e-01 -2.43524e-02 
-3.23599e-02  1.19319e-01 -2.39203e-02 
-3.30471e-02  1.19313e-01 -2.25417e-02 
-3.47620e-02  1.24629e-01 -1.62015e-02 
-4.17679e-02  1.09133e-01 -1.68027e-02 
-4.24387e-02  1.33820e-01 -1.37051e-02 
-4.16948e-02  1.17404e-01 -2.25622e-02 
-5.69089e-02  2.85871e-02 -1.49858e-02 
-3.25954e-02  1.14505e-01 -1.88327e-02 
-5.05313e-02  1.31778e-01 -7.17241e-03 
-3.22858e-02  1.16589e-01 -2.51991e-02 
-4.78704e-02  1.32887e-01 -3.97622e-03 
-3.17397e-02  1.17268e-01 -2.20040e-02 
-3.73267e-02  1.12745e-01 -2.09735e-02 
-8.19498e-03  1.14595e-01 -4.95749e-02 
-4.07521e-02  2.48997e-02  2.90343e-03 
-4.08425e-02  1.33044e-01 -1.62212e-02 
-3.55386e-02  1.22844e-01 -1.43998e-02 
-4.86615e-02  1.36131e-01 -7.44013e-03 
-3.55409e-02  1.22971e-01 -2.14430e-02 
-2.99957e-02  8.18060e-02 -1.50214e-02 
-4.44105e-02  1.34687e-01 -1.39025e-02 
-3.46939e-02  1.15062e-01 -3.82513e-02 
-4.17233e-02  1.28290e-01 -9.48270e-03 
-1.81594e-02  1.16458e-01 -2.25836e-02 
-4.11051e-02  8.31783e-02 -2.23505e-02 
-2.97613e-02  1.18431e-01 -2.48808e-02 
-4.49857e-02  1.37174e-01 -1.01420e-02 
-3.45955e-02  1.23171e-01 -1.94321e-02 
-3.99753e-02  1.22971e-01 -2.09886e-02 
-4.85159e-02  1.35835e-01 -1.08372e-02 
-3.23774e-02  1.22480e-01 -2.34044e-02 
-3.45484e-02  1.05317e-01 -1.64554e-02 
-5.08024e-02  1.33355e-01 -1.16862e-02 
-3.17881e-02  1.18872e-01 -3.02186e-02 
-4.35989e-02  1.33253e-01 -4.58811e-03 
-2.52316e-02  1.20164e-01 -2.21863e-02 
-3.93425e-02  1.05274e-01 -2.18951e-02 
-2.58628e-02  1.19462e-01 -2.65117e-02 
-3.49007e-02  1.23958e-01 -1.62899e-02 
-3.40467e-02  1.22026e-01 -2.32535e-02 
-4.28749e-02  1.31127e-01 -1.36207e-02 
-3.35761e-02  1.20831e-01 -2.12955e-02 
-5.17298e-02  1.33667e-01 -3.41227e-03 
-3.48372e-02  1.19789e-01 -2.23231e-02 
-4.07393e-02  1.33983e-01 -8.94508e-03 
-5.08789e-02  1.41037e-01 -3.68766e-03 
-3.81442e-02  1.25798e-01 -1.97542e-02 
-3.97000e-02  1.16652e-01 -2.16092e-02 
-5.20262e-02  1.39587e-01 -8.59068e-03 
-3.39760e-02  1.25618e-01 -1.99177e-02 
-3.30444e-02  1.17213e-01 -1.75849e-02 
-5.41654e-02  1.31022e-01 -9.08625e-03 
-3.33469e-02  1.21707e-01 -2.59410e-02 
-4.72176e-02  1.31598e-01 -7.00256e-04 
-3.06678e-02  1.22579e-01 -2.31279e-02 
-3.83106e-02  1.16823e-01 -2.29000e-02 
-3.53261e-02  1.22864e-01 -1.53492e-02 
-4.26292e-02  1.31137e-01 -1.54257e-02 
-2.87790e-02  1.23697e-01 -2.45454e-02 
-5.73238e-02  2.62606e-02 -1.68644e-02 
-7.31504e-03  1.22156e-01 -5.01981e-02 
-3.85126e-02  2.40883e-02  4.66650e-03 
-3.63478e-02  1.26886e-01 -1.75544e-02 
-3.57498e-02  1.26329e-01 -2.15512e-02 
-4.41653e-02  1.38640e-01 -3.53152e-03 
-3.95462e-02  1.24793e-01 -1.82037e-02 
-2.87687e-02  8.06113e-02 -1.64663e-02 
-4.57070e-02  1.32103e-01 -1.59349e-02 
-3.29305e-02  1.22125e-01 -3.90439e-02 
-3.97004e-02  1.33687e-01 -5.44808e-03 
-1.82537e-02  1.23713e-01 -2.35338e-02 
-3.79235e-02  7.84124e-02 -2.37458e-02 
-3.12321e-02  1.26088e-01 -2.44720e-02 
-3.49444e-02  1.06525e-01 -1.76717e-02 
-5.18758e-02  1.33205e-01 -1.49680e-02 
-3.28767e-02  1.24432e-01 -3.09114e-02 
-4.05443e-02  1.34044e-01 -8.47830e-04 
-3.76860e-02  1.05299e-01 -2.29470e-02 
-2.50852e-02  1.25732e-01 -2.29178e-02 
-3.36412e-02  1.25049e-01 -2.47842e-02 
-5.00150e-02  1.46107e-01 -1.09580e-02 
-2.76645e-02  1.26266e-01 -2.53180e-02 
-3.29711e-02  1.24154e-01 -1.97832e-02 
-5.54410e-02  1.33169e-01 -6.64220e-03 
-3.31915e-02  1.24923e-01 -2.29333e-02 
-5.04423e-02  1.33509e-01  3.29278e-04 
-3.29775e-02  1.24396e-01 -2.29310e-02 
-3.64693e-02  1.23546e-01 -2.33973e-02 
-4.31388e-02  1.35641e-01 -1.47629e-02 
-5.47990e-02  1.47128e-01 -5.04447e-03 
-3.55397e-02  1.27936e-01 -1.95304e-02 
-5.01134e-02  1.39517e-01 -1.43173e-02 
-3.64023e-02  1.27259e-01 -1.60878e-02 
-4.26892e-02  1.43543e-01 -8.66367e-03 
-4.85377e-02  1.44979e-01 -4.33032e-04 
-3.81907e-02  1.29082e-01 -1.82471e-02 
-3.82903e-02  1.32620e-01 -6.50675e-03 
-5.45984e-02  1.41259e-01 -1.17706e-02 
-3.30375e-02  1.27957e-01 -2.20343e-02 
-3.70300e-02  1.28651e-01 -2.00353e-02 
-3.20653e-02  1.19729e-01 -1.80727e-02 
-5.63425e-02  1.31744e-01 -1.29256e-02 
-3.29489e-02  1.25794e-01 -2.67992e-02 
-4.28090e-02  1.32035e-01  1.98404e-03 
-3.00148e-02  1.26923e-01 -2.35005e-02 
-3.73381e-02  1.18899e-01 -2.20814e-02 
-3.74502e-02  1.25239e-01 -1.67799e-02 
-3.87159e-02  1.29356e-01 -1.71149e-02 
-3.65460e-02  1.28272e-01 -2.27305e-02 
-3.67768e-02  1.24873e-01 -1.88698e-02 
-4.10498e-02  1.41334e-01  5.57119e-04 
-3.72679e-02  1.27464e-01 -1.82533e-02 
-4.00166e-02  1.39606e-01 -1.09486e-02 
-5.77371e-02  2.71022e-02 -2.03576e-02 
-7.54307e-03  1.29271e-01 -4.98004e-02 
-3.43189e-02  2.57145e-02  4.18648e-03 
-5.09838e-02  1.50967e-01 -2.48867e-03 
-3.18936e-02  1.29014e-01 -2.69877e-02 
-4.57325e-02  1.34209e-01 -2.13821e-02 
-3.05604e-02  8.16481e-02 -2.11776e-02 
-3.35244e-02  1.27232e-01 -2.14707e-02 
-5.39634e-02  1.32117e-01 -2.75545e-03 
-3.37648e-02  1.29049e-01 -3.90452e-02 
-3.44830e-02  1.26797e-01 -6.95525e-03 
-3.47056e-02  1.27182e-01 -2.31286e-02 
-3.50498e-02  8.49083e-02 -2.20714e-02 
-1.81556e-02  1.29645e-01 -2.22192e-02 
-5.23355e-02  1.40236e-01 -1.77115e-02 
-3.12556e-02  1.30975e-01 -2.43283e-02 
-3.60006e-02  1.32277e-01 -1.83695e-02 
-5.80759e-02  1.50121e-01 -9.46216e-03 
-3.45403e-02  1.29055e-01 -2.08504e-02 
-3.36026e-02  1.26029e-01 -1.99255e-02 
-5.76770e-02  1.34256e-01 -1.08443e-02 
-3.35185e-02  1.27605e-01 -2.42143e-02 
-4.51772e-02  1.34671e-01  2.97436e-03 
-3.59304e-02  1.26024e-01 -2.36037e-02 
-3.20593e-02  1.27978e-01 -2.34993e-02 
-3.80644e-02  1.29016e-01 -1.91904e-02 
-3.40984e-02  1.27750e-01 -2.45939e-02 
-5.45227e-02  1.34129e-01 -2.04727e-02 
-3.37246e-02  1.10430e-01 -2.06465e-02 
-3.28896e-02  1.29820e-01 -3.14784e-02 
-3.51210e-02  1.32059e-01 -7.28541e-04 
-3.39056e-02  1.09051e-01 -2.14242e-02 
-2.40969e-02  1.31193e-01 -2.28344e-02 
-4.23743e-02  1.49385e-01  2.33811e-03 
-3.68077e-02  1.31901e-01 -1.75015e-02 
-3.88692e-02  1.31938e-01 -1.93532e-02 
-3.72594e-02  1.30041e-01 -2.17236e-02 
-5.58844e-02  1.77687e-01 -2.38408e-03 
-5.73370e-02  1.45043e-01 -1.65018e-02 
-3.18542e-02  1.31372e-01 -2.12676e-02 
-3.35288e-02  1.34319e-01 -7.59889e-03 
-3.30596e-02  1.22225e-01 -2.07145e-02 
-5.89287e-02  1.31526e-01 -1.92500e-02 
-3.41079e-02  1.29753e-01 -2.74025e-02 
-3.70068e-02  1.31303e-01  3.79159e-03 
-3.48595e-02  1.20475e-01 -2.36677e-02 
-2.92166e-02  1.30924e-01 -2.31844e-02 
-4.08014e-02  1.33240e-01 -1.97450e-02 
-3.60279e-02  1.30232e-01 -2.29793e-02 
-4.58524e-02  1.35882e-01 -1.54295e-02 
-3.28111e-02  1.29209e-01 -2.07174e-02 
-5.68919e-02  1.32452e-01 -8.51100e-03 
-4.76695e-02  1.33533e-01  1.04555e-03 
-3.30104e-02  1.29086e-01 -2.30794e-02 
-3.49076e-02  1.29264e-01 -2.32974e-02 
-3.33523e-02  1.29618e-01 -2.34108e-02 
-4.41223e-02  1.32122e-01 -2.35780e-02 
-3.49022e-02  1.32787e-01 -1.77926e-02 
-3.48144e-02  1.41754e-01  6.79156e-04 
-3.41801e-02  1.28124e-01 -1.76985e-02 
-3.04748e-02  1.33937e-01 -2.76784e-02 
-2.96393e-02  1.35440e-01 -2.56263e-02 
-3.51444e-02  1.34092e-01 -1.65008e-02 
-3.90657e-02  1.56690e-01 -1.02661e-03 
-6.11227e-02  2.67779e-02 -2.38908e-02 
-7.97537e-03  1.36061e-01 -5.15587e-02 
-3.03806e-02  2.55807e-02  4.30376e-03 
-6.12422e-02  1.55769e-01 -1.54345e-02 
-3.29514e-02  1.31786e-01 -2.13339e-02 
-4.45240e-02  1.57224e-01  2.69849e-03 
-5.38160e-02  1.57146e-01 -5.87477e-03 
-3.39156e-02  8.17688e-02 -2.43143e-02 
-5.04596e-02  1.29223e-01 -2.47263e-02 
-6.03151e-02  1.34172e-01 -1.99211e-02 
-3.30313e-02  1.28825e-01 -2.15621e-02 
-3.40336e-02  1.30245e-01 -2.47038e-02 
-3.72457e-02  1.33743e-01  4.96193e-03 
-3.23692e-02  1.35335e-01 -4.03743e-02 
-3.07055e-02  1.31786e-01 -4.79716e-03 
-2.02581e-02  1.37325e-01 -2.52979e-02 
-3.41082e-02  1.27535e-01 -2.32341e-02 
-3.13637e-02  1.31265e-01 -2.36999e-02 
-3.03837e-02  8.05238e-02 -2.44246e-02 
-5.31426e-02  1.39693e-01 -2.30704e-02 
-3.70297e-02  1.31945e-01 -2.12233e-02 
-5.45036e-02  1.56936e-01 -1.90223e-02 
-3.84379e-02  1.31036e-01 -2.30467e-02 
-3.21068e-02  1.30202e-01 -2.59104e-02 
-4.07348e-02  1.34972e-01 -2.15093e-02 
-3.67268e-02  1.30533e-01 -2.13260e-02 
-3.46735e-02  1.04921e-01 -2.51862e-02 
-5.42915e-02  1.33272e-01 -2.51552e-02 
-3.33779e-02  1.34837e-01 -3.14876e-02 
-3.10087e-02  1.32779e-01 -3.18109e-04 
-3.07186e-02  1.05324e-01 -2.33672e-02 
-2.46247e-02  1.37267e-01 -2.35804e-02 
-3.47260e-02  1.48827e-01  4.66982e-03 
-3.43258e-02  1.32392e-01 -1.66811e-02 
-4.98670e-02  1.86231e-01  8.16135e-03 
-4.40716e-02  1.90494e-01  1.09394e-02 
-2.79625e-02  1.37234e-01 -2.56304e-02 
-5.82008e-02  1.45761e-01 -2.27830e-02 
-3.20743e-02  1.34528e-01 -2.30878e-02 
-3.37591e-02  1.30311e-01 -2.20530e-02 
-4.99481e-02  1.33505e-01 -6.12752e-03 
-3.38322e-02  1.30912e-01 -2.31170e-02 
-3.66575e-02  1.37229e-01 -1.53898e-02 
-2.83005e-02  1.33960e-01 -9.43748e-03 
-3.24054e-02  1.20340e-01 -2.36133e-02 
-5.93401e-02  1.31900e-01 -2.60238e-02 
-3.29846e-02  1.33260e-01 -2.72371e-02 
-2.98943e-02  1.33640e-01  4.05816e-03 
-3.20927e-02  1.18679e-01 -2.19724e-02 
-2.91542e-02  1.35638e-01 -2.27983e-02 
-3.90486e-02  1.34597e-01 -2.26263e-02 
-3.54421e-02  1.31819e-01 -2.30198e-02 
-3.47980e-02  1.35003e-01 -1.69892e-02 
-2.95367e-02  1.21448e-01 -1.76468e-02 
-3.55517e-02  1.54660e-01 -3.90030e-03 
-5.83504e-02  1.61774e-01 -1.43672e-02 
-3.30856e-02  1.32992e-01 -2.20427e-02 
-3.25664e-02  1.31757e-01 -2.23684e-02 
-5.91838e-02  1.33760e-01 -1.80724e-02 
-3.42096e-02  1.30513e-01 -2.31628e-02 
-3.87611e-02  1.35313e-01  3.58596e-03 
-3.35848e-02  1.30783e-01 -2.32571e-02 
-3.24977e-02  1.32422e-01 -2.44643e-02 
-2.85507e-02  1.10059e-01 -1.58008e-02 
-4.47926e-02  1.75343e-01  1.47599e-04 
-3.60016e-02  1.59398e-01  4.03186e-03 
-3.33691e-02  1.35351e-01 -1.65852e-02 
-4.01923e-02  1.35308e-01 -2.23151e-02 
-3.86306e-02  1.31073e-01 -2.15222e-02 
-2.82358e-02  1.43604e-01 -1.34422e-04 
-3.01423e-02  1.25645e-01 -1.76602e-02 
-3.90709e-02  1.57429e-01  2.17757e-03 
-5.99797e-02  1.53285e-01 -2.44445e-02 
-3.33366e-02  1.34217e-01 -2.18902e-02 
-3.78509e-02  1.27332e-01 -2.73360e-02 
-6.00396e-02  1.33459e-01 -2.71730e-02 
-3.31268e-02  1.28102e-01 -2.37353e-02 
-3.43020e-02  1.33015e-01 -2.43004e-02 
-2.90755e-02  1.34196e-01  4.70935e-03 
-3.13997e-02  1.34847e-01 -2.29422e-02 
-3.21888e-02  1.26264e-01 -2.26865e-02 
-5.71360e-02  3.04721e-02 -2.86503e-02 
-5.60406e-03  1.43474e-01 -4.90139e-02 
-2.66518e-02  2.52723e-02  2.78558e-03 
-3.13703e-02  1.39199e-01 -2.64339e-02 
-5.28869e-02  1.38668e-01 -2.82652e-02 
-3.92309e-02  1.37693e-01 -2.41885e-02 
-3.62689e-02  1.30702e-01 -2.08162e-02 
-3.18143e-02  1.39247e-01 -2.28090e-02 
-2.97855e-02  8.59500e-02 -2.86292e-02 
-4.51337e-02  1.34410e-01 -2.94682e-02 
-3.32653e-02  1.42812e-01 -3.85420e-02 
-2.69700e-02  1.27717e-01 -9.06905e-03 
-1.54518e-02  1.41961e-01 -2.08684e-02 
-2.81458e-02  8.41335e-02 -2.22977e-02 
-3.14545e-02  1.64249e-01  4.88093e-03 
-3.80177e-02  1.29966e-01 -2.61692e-02 
-3.33224e-02  1.35024e-01 -2.48071e-02 
-2.63841e-02  1.28431e-01 -1.07361e-02 
-2.66603e-02  1.49873e-01  4.15035e-03 
-3.06399e-02  1.30045e-01 -1.59334e-02 
-2.85321e-02  1.71775e-01  8.31881e-03 
-4.09743e-02  1.39499e-01 -1.13165e-02 
-6.66994e-02  1.80693e-01 -2.08673e-02 
-3.29460e-02  1.09056e-01 -2.79047e-02 
-5.25575e-02  1.35189e-01 -3.01413e-02 
-3.28963e-02  1.32516e-01 -2.28818e-02 
-5.08015e-02  1.32214e-01 -1.72629e-02 
-3.42380e-02  1.31327e-01 -2.28360e-02 
-3.90391e-02  1.34574e-01 -4.56191e-03 
-3.23677e-02  1.40697e-01 -3.09328e-02 
-2.45491e-02  1.30161e-01 -3.39884e-03 
-2.38134e-02  1.42570e-01 -2.12322e-02 
-3.35709e-02  1.32002e-01 -2.28954e-02 
-2.79567e-02  1.05448e-01 -2.21937e-02 
-3.32841e-02  1.31809e-01 -2.54593e-02 
-4.87612e-02  1.68956e-01 -1.17149e-02 
-3.40383e-02  1.33521e-01 -2.19572e-02 
-5.10809e-02  2.54037e-01  1.46132e-02 
-3.54004e-02  1.71377e-01  1.24640e-03 
-3.34343e-02  1.35445e-01 -1.65593e-02 
-5.69468e-02  1.47181e-01 -3.01323e-02 
-3.29526e-02  1.37115e-01 -1.95171e-02 
-4.11018e-02  1.98594e-01  1.90748e-02 
-4.04387e-02  1.27236e-01 -1.70778e-02 
-3.48400e-02  2.22654e-01  1.92426e-02 
-5.89634e-02  1.65762e-01 -2.50150e-02 
-3.51832e-02  1.32143e-01 -1.96536e-02 
-3.25904e-02  1.31749e-01 -2.37629e-02 
-5.91073e-02  1.34850e-01 -2.88531e-02 
-3.45116e-02  1.32708e-01 -2.26791e-02 
-2.69138e-02  1.35084e-01  2.90332e-03 
-3.30688e-02  1.33788e-01 -2.37070e-02 
-3.24201e-02  1.29779e-01 -2.28305e-02 
-3.87901e-02  1.33766e-01 -2.56178e-02 
-3.48069e-02  1.34468e-01 -2.35614e-02 
-7.29332e-02  1.81389e-01  1.92928e-02 
-3.84819e-02  1.34438e-01 -2.22463e-02 
-5.75670e-02  1.32795e-01 -3.21620e-02 
-3.30648e-02  1.20445e-01 -2.62151e-02 
-3.37865e-02  1.37940e-01 -2.66928e-02 
-2.34589e-02  1.32565e-01  1.47504e-03 
-2.94332e-02  1.17847e-01 -2.29856e-02 
-2.95002e-02  1.39935e-01 -2.17624e-02 
-7.16000e-02  2.94340e-01  1.44743e-02 
-2.61179e-02  1.20079e-01 -1.82618e-02 
-5.19288e-02  2.53337e-01 -3.21055e-03 
-4.01378e-02  1.35913e-01 -2.38434e-02 
-4.03264e-02  1.32192e-01 -2.11139e-02 
-6.93648e-02  2.23789e-01 -2.02692e-02 
-2.44318e-02  1.57692e-01  4.53108e-03 
-3.08229e-02  1.32526e-01 -1.57158e-02 
-7.97248e-02  2.35255e-01  4.27285e-03 
-5.71654e-02  2.75829e-01  2.97190e-02 
-3.10523e-02  2.29409e-01  1.36212e-02 
-2.70488e-02  1.27654e-01 -1.67934e-02 
-5.79632e-02  1.50979e-01 -3.29347e-02 
-3.47817e-02  1.35569e-01 -1.96478e-02 
-2.27996e-02  1.39948e-01 -3.53721e-03 
-3.42643e-02  1.67674e-01  1.14031e-02 
-5.19038e-02  1.54541e-01 -2.76395e-02 
-3.12944e-02  1.43789e-01 -2.61856e-02 
-4.31349e-02  1.32086e-01 -3.17589e-02 
-3.16396e-02  1.43388e-01 -2.30385e-02 
-8.15846e-02  1.73699e-01  1.32875e-02 
-3.25842e-02  1.27206e-01 -2.54702e-02 
-5.87003e-02  1.32070e-01 -3.49743e-02 
-3.36402e-02  1.36336e-01 -2.40272e-02 
-2.13016e-02  1.32036e-01  2.93064e-03 
-3.18818e-02  1.37847e-01 -2.17416e-02 
-3.02951e-02  1.25208e-01 -2.24607e-02 
-3.73827e-02  1.24843e-01 -3.00611e-02 
-5.31172e-02  1.53178e-01 -3.02070e-02 
-3.96633e-02  1.35207e-01 -2.53248e-02 
-3.67160e-02  1.32714e-01 -2.16486e-02 
-2.56726e-02  1.77550e-01  1.01054e-02 
-3.98934e-02  1.33305e-01 -1.64855e-02 
-3.31367e-02  1.32263e-01 -2.30990e-02 
-3.43531e-02  1.32443e-01 -2.45732e-02 
-6.85841e-02  1.58442e-01 -1.67468e-02 
-6.58658e-02  1.82409e-01 -3.51012e-02 
-3.36301e-02  2.45612e-01  3.41426e-03 
-7.21177e-02  2.18743e-01 -2.61484e-02 
-3.54945e-02  1.74692e-01 -1.02129e-02 
-3.38919e-02  1.32693e-01 -1.74156e-02 
-5.12827e-02  1.78974e-01 -2.46341e-02 
-5.56799e-02  1.37053e-01 -1.61121e-02 
-9.40634e-02  2.05083e-01 -9.17391e-03 
-5.39415e-02  1.98990e-01  4.42427e-02 
-5.11434e-02  1.39947e-01 -3.28127e-02 
-3.53402e-02  1.29685e-01 -2.21224e-02 
-5.85468e-02  2.92216e-02 -3.14792e-02 
-3.33316e-02  1.32304e-01 -2.37659e-02 
-5.12249e-02  1.32446e-01 -2.93371e-02 
-3.51466e-02  1.32445e-01 -2.23534e-02 
-2.65371e-02  1.34073e-01 -4.79842e-03 
-7.17205e-03  1.51064e-01 -4.77445e-02 
-3.38735e-02  1.32283e-01 -2.45319e-02 
-2.41777e-02  2.49431e-02  2.87568e-03 
-3.30456e-02  1.31702e-01 -2.27219e-02 
-5.99535e-02  2.30293e-01 -2.50593e-02 
-3.17444e-02  8.38684e-02 -3.12973e-02 
-4.62702e-02  1.32754e-01 -3.25496e-02 
-3.22658e-02  1.50283e-01 -3.71027e-02 
-2.42599e-02  1.33541e-01 -7.52689e-03 
-1.88076e-02  1.49906e-01 -2.21563e-02 
-2.50007e-02  7.88517e-02 -2.56286e-02 
-3.71470e-02  1.28496e-01 -2.88004e-02 
-2.01035e-02  1.45048e-01  4.74214e-04 
-3.31175e-02  1.38511e-01 -2.45271e-02 
-2.84669e-02  1.29325e-01 -1.66706e-02 
-2.49062e-02  1.66023e-01  2.70750e-04 
-3.18051e-02  1.33597e-01 -1.71564e-02 
-8.99276e-02  2.57433e-01 -2.40384e-02 
-3.44579e-02  2.64194e-01  3.44158e-02 
-4.04759e-02  1.23032e-01 -3.94056e-03 
-3.53014e-02  1.03117e-01 -2.93738e-02 
-5.18844e-02  1.33784e-01 -3.36684e-02 
-3.25401e-02  1.46028e-01 -2.98642e-02 
-2.27651e-02  1.31175e-01 -3.66098e-03 
-2.48241e-02  1.47415e-01 -2.22460e-02 
-2.58333e-02  1.03733e-01 -2.20304e-02 
-7.40309e-02  2.86654e-01 -2.02725e-02 
-3.25320e-02  2.95169e-01  1.95405e-02 
-3.91870e-02  1.33356e-01 -2.38153e-02 
-3.99564e-02  1.31820e-01 -2.21258e-02 
-5.61743e-02  1.59613e-01 -3.43521e-02 
-3.64634e-02  1.31927e-01 -1.94121e-02 
-4.14277e-02  1.28787e-01 -1.10132e-02 
-2.52908e-02  1.55412e-01 -1.51810e-03 
-2.13206e-02  1.68214e-01  4.22021e-03 
-5.58611e-02  1.44852e-01 -3.65694e-02 
-3.38999e-02  1.40312e-01 -1.99301e-02 
-6.95240e-02  1.68586e-01 -2.58363e-02 
-9.31958e-02  2.27944e-01 -2.34456e-02 
-3.36517e-02  2.30917e-01  3.53200e-02 
-3.30650e-02  1.30385e-01 -2.47263e-02 
-5.65571e-02  1.32591e-01 -3.73026e-02 
-3.45004e-02  1.34672e-01 -2.25611e-02 
-1.89023e-02  1.34155e-01  7.72289e-04 
-3.11530e-02  1.28862e-01 -2.27023e-02 
-3.42170e-02  1.36266e-01 -2.28458e-02 
-2.80403e-02  1.47026e-01 -2.40276e-02 
-7.48581e-02  1.96643e-01 -3.29642e-02 
-3.78216e-02  1.31360e-01 -2.69342e-02 
-3.58597e-02  1.36958e-01 -2.23290e-02 
-3.94953e-02  1.35359e-01 -2.51465e-02 
-3.90446e-02  1.33550e-01 -2.06102e-02 
-6.34464e-02  3.19255e-01 -2.34165e-02 
-3.35216e-02  3.27028e-01  9.02810e-03 
-3.29075e-02  1.17133e-01 -2.69464e-02 