<?xml version="1.0" encoding="utf-8"?>
<VTKFile byte_order="LittleEndian" type="UnstructuredGrid" version="0.1">
   <UnstructuredGrid>
      <Piece NumberOfCells="11114" NumberOfPoints="2646">
         <Points>
            <DataArray Name="Points" NumberOfComponents="3" format="ascii" type="Float32">
-0.5000 0.5000 1.0000
-0.5000 0.5000 0.9333
-0.5000 0.4333 1.0000
-0.4333 0.5000 1.0000
-0.4333 0.5000 0.9333
-0.5000 0.4333 0.9333
-0.4333 0.4333 1.0000
-0.5000 0.5000 0.8667
-0.3667 0.5000 1.0000
-0.5000 0.3667 1.0000
-0.4333 0.5000 0.8667
-0.5000 0.4333 0.8667
-0.3667 0.5000 0.9333
-0.5000 0.3667 0.9333
-0.3667 0.4333 1.0000
-0.4333 0.3667 1.0000
-0.4111 0.4322 0.8889
-0.4111 0.3889 0.9322
-0.3667 0.5000 0.8667
-0.5000 0.3667 0.8667
-0.3667 0.3667 1.0000
-0.5000 0.5000 0.8000
-0.5000 0.3000 1.0000
-0.3000 0.5000 1.0000
-0.3444 0.4322 0.8889
-0.3444 0.3889 0.9322
-0.4324 0.4056 0.8289
-0.4425 0.3261 0.8997
-0.4333 0.5000 0.8000
-0.5000 0.4333 0.8000
-0.3000 0.5000 0.9333
-0.5000 0.3000 0.9333
-0.4333 0.3000 1.0000
-0.3000 0.4333 1.0000
-0.4356 0.2758 0.9638
-0.3667 0.5000 0.8000
-0.5000 0.3667 0.8000
-0.5000 0.3000 0.8667
-0.3000 0.5000 0.8667
-0.3667 0.3000 1.0000
-0.3000 0.3667 1.0000
-0.2911 0.4424 0.8956
-0.3444 0.4322 0.8222
-0.3444 0.3222 0.9322
-0.4144 0.4424 0.7622
-0.4322 0.3222 0.8222
-0.4048 0.2610 0.9317
-0.5000 0.5000 0.7333
-0.5000 0.2333 1.0000
-0.2333 0.5000 1.0000
-0.5000 0.4333 0.7333
-0.4333 0.5000 0.7333
-0.2333 0.5000 0.9333
-0.5000 0.2333 0.9333
-0.4333 0.2333 1.0000
-0.2333 0.4333 1.0000
-0.3000 0.5000 0.8000
-0.5000 0.3000 0.8000
-0.3000 0.3000 1.0000
-0.2778 0.4322 0.8222
-0.2762 0.3359 0.9020
-0.3444 0.4322 0.7556
-0.3667 0.5000 0.7333
-0.5000 0.3667 0.7333
-0.2333 0.5000 0.8667
-0.5000 0.2333 0.8667
-0.2333 0.3667 1.0000
-0.3667 0.2333 1.0000
-0.4047 0.2229 0.9441
-0.3488 0.2522 0.9267
-0.4322 0.2556 0.8222
-0.4190 0.3387 0.7456
-0.1919 0.4541 0.9549
-0.2133 0.4110 0.8960
-0.2062 0.3745 0.9385
-0.5000 0.5000 0.6667
-0.5000 0.3000 0.7333
-0.3000 0.5000 0.7333
-0.5000 0.2333 0.8000
-0.2333 0.5000 0.8000
-0.3000 0.2333 1.0000
-0.2333 0.3000 1.0000
-0.5000 0.1667 1.0000
-0.1667 0.5000 1.0000
-0.3066 0.3123 0.8011
-0.4322 0.3889 0.6889
-0.2778 0.4322 0.7556
-0.2778 0.2556 0.9322
-0.5000 0.4333 0.6667
-0.4333 0.5000 0.6667
-0.5000 0.1667 0.9333
-0.1667 0.5000 0.9333
-0.4333 0.1667 1.0000
-0.1667 0.4333 1.0000
-0.4295 0.1766 0.9208
-0.2129 0.3908 0.8494
-0.4424 0.2622 0.7522
-0.2111 0.3122 0.9322
-0.3444 0.4322 0.6889
-0.3444 0.1889 0.9322
-0.5000 0.3667 0.6667
-0.3667 0.5000 0.6667
-0.5000 0.1667 0.8667
-0.1667 0.5000 0.8667
-0.3667 0.1667 1.0000
-0.1667 0.3667 1.0000
-0.4403 0.1457 0.9609
-0.4322 0.3222 0.6889
-0.4322 0.1889 0.8222
-0.1709 0.3813 0.8961
-0.5000 0.2333 0.7333
-0.2333 0.5000 0.7333
-0.2333 0.2333 1.0000
-0.1368 0.4398 0.8970
-0.2111 0.4322 0.7556
-0.2111 0.2556 0.9322
-0.1378 0.3771 0.9424
-0.2778 0.4322 0.6889
-0.2778 0.1889 0.9322
-0.5000 0.3000 0.6667
-0.3000 0.5000 0.6667
-0.5000 0.1667 0.8000
-0.1667 0.5000 0.8000
-0.3000 0.1667 1.0000
-0.1667 0.3000 1.0000
-0.4322 0.3889 0.6322
-0.4111 0.4322 0.6222
-0.4004 0.1221 0.9391
-0.5000 0.5000 0.6000
-0.5000 0.1000 1.0000
-0.1000 0.5000 1.0000
-0.4322 0.2556 0.6889
-0.4322 0.1889 0.7556
-0.1444 0.4322 0.8222
-0.1444 0.3222 0.9322
-0.5000 0.4333 0.6000
-0.4333 0.5000 0.6000
-0.5000 0.1000 0.9333
-0.1000 0.5000 0.9333
-0.4333 0.1000 1.0000
-0.1000 0.4333 1.0000
-0.3576 0.1222 0.9157
-0.5000 0.3667 0.6000
-0.3667 0.5000 0.6000
-0.5000 0.1000 0.8667
-0.1000 0.5000 0.8667
-0.1000 0.3667 1.0000
-0.3667 0.1000 1.0000
-0.4322 0.1222 0.8222
-0.3022 0.3211 0.6711
-0.4092 0.0883 0.9375
-0.5000 0.2333 0.6667
-0.2333 0.5000 0.6667
-0.5000 0.1667 0.7333
-0.1667 0.5000 0.7333
-0.2333 0.1667 1.0000
-0.1667 0.2333 1.0000
-0.3328 0.2167 0.7267
-0.2111 0.4322 0.6889
-0.2111 0.1889 0.9322
-0.3401 0.4124 0.6089
-0.4322 0.3222 0.6122
-0.1500 0.2877 0.8509
-0.1444 0.4322 0.7556
-0.1444 0.2556 0.9322
-0.0778 0.4322 0.8889
-0.2778 0.4322 0.6222
-0.2778 0.1222 0.9322
-0.4322 0.1889 0.6889
-0.5000 0.3000 0.6000
-0.3000 0.5000 0.6000
-0.5000 0.1000 0.8000
-0.1000 0.5000 0.8000
-0.3000 0.1000 1.0000
-0.1000 0.3000 1.0000
-0.0734 0.3862 0.9241
-0.4322 0.2556 0.6222
-0.4322 0.1222 0.7556
-0.4322 0.3889 0.5556
-0.0778 0.4322 0.8222
-0.0778 0.3222 0.9322
-0.2333 0.1667 0.8152
-0.5000 0.5000 0.5333
-0.5000 0.0333 1.0000
-0.0333 0.5000 1.0000
-0.1544 0.4322 0.6889
-0.4452 0.0451 0.8908
-0.4333 0.5000 0.5333
-0.5000 0.4333 0.5333
-0.5000 0.1667 0.6667
-0.1667 0.5000 0.6667
-0.5000 0.0333 0.9333
-0.0333 0.5000 0.9333
-0.1667 0.1667 1.0000
-0.0333 0.4333 1.0000
-0.4333 0.0333 1.0000
-0.3444 0.4322 0.5556
-0.3444 0.0556 0.9322
-0.1444 0.1889 0.9322
-0.2111 0.4322 0.6222
-0.2111 0.1222 0.9322
-0.5000 0.2333 0.6000
-0.2333 0.5000 0.6000
-0.5000 0.1000 0.7333
-0.1000 0.5000 0.7333
-0.1000 0.2333 1.0000
-0.2333 0.1000 1.0000
-0.4322 0.3222 0.5556
-0.4322 0.0556 0.8222
-0.3667 0.5000 0.5333
-0.5000 0.3667 0.5333
-0.5000 0.0333 0.8667
-0.0333 0.5000 0.8667
-0.0333 0.3667 1.0000
-0.3667 0.0333 1.0000
-0.0778 0.4322 0.7556
-0.0778 0.2556 0.9322
-0.4322 0.1889 0.6222
-0.4322 0.1222 0.6889
-0.1752 0.3377 0.6548
-0.2778 0.4322 0.5556
-0.2778 0.0556 0.9322
-0.0111 0.4322 0.8889
-0.5000 0.3000 0.5333
-0.3000 0.5000 0.5333
-0.5000 0.0333 0.8000
-0.0333 0.5000 0.8000
-0.0333 0.3000 1.0000
-0.3000 0.0333 1.0000
-0.4322 0.2556 0.5556
-0.4322 0.0556 0.7556
-0.3152 0.1000 0.7333
-0.5000 0.1667 0.6000
-0.1667 0.5000 0.6000
-0.1000 0.5000 0.6667
-0.5000 0.1000 0.6667
-0.1000 0.1667 1.0000
-0.1667 0.1000 1.0000
-0.4111 0.4322 0.4889
-0.1444 0.1222 0.9322
-0.0111 0.4322 0.8222
-0.0111 0.3222 0.9322
-0.4361 -0.0132 0.9072
-0.3476 -0.0014 0.9418
-0.0778 0.1889 0.9322
-0.0556 0.2873 0.8075
-0.5000 0.5000 0.4667
-0.5000 -0.0333 1.0000
0.0333 0.5000 1.0000
-0.2111 0.4322 0.5556
-0.2111 0.0556 0.9322
-0.0778 0.4322 0.6789
-0.1344 0.4322 0.6122
-0.5000 0.4333 0.4667
-0.4333 0.5000 0.4667
-0.2333 0.5000 0.5333
-0.5000 0.2333 0.5333
-0.5000 0.0333 0.7333
-0.0333 0.5000 0.7333
-0.5000 -0.0333 0.9333
0.0333 0.5000 0.9333
-0.4333 -0.0333 1.0000
-0.0333 0.2333 1.0000
-0.2333 0.0333 1.0000
0.0333 0.4333 1.0000
-0.3444 0.4322 0.4889
-0.4322 0.1222 0.6222
-0.3152 0.3000 0.5333
-0.4322 0.3222 0.4889
-0.4322 -0.0111 0.8222
-0.4322 0.1889 0.5556
-0.4322 0.0556 0.6889
-0.5000 0.3667 0.4667
-0.3667 0.5000 0.4667
-0.5000 -0.0333 0.8667
0.0333 0.5000 0.8667
0.0333 0.3667 1.0000
-0.3667 -0.0333 1.0000
-0.0111 0.4322 0.7556
-0.0111 0.2556 0.9322
-0.1095 0.2188 0.7244
-0.0690 0.3004 0.7106
-0.4036 -0.0460 0.9407
-0.2778 0.4322 0.4889
-0.2778 -0.0111 0.9322
-0.5000 0.1000 0.6000
-0.1000 0.5000 0.6000
-0.1000 0.1000 1.0000
-0.2333 0.0333 0.8152
0.0537 0.4283 0.8911
-0.5000 0.3000 0.4667
-0.3000 0.5000 0.4667
-0.5000 -0.0333 0.8000
0.0333 0.5000 0.8000
0.0333 0.3000 1.0000
-0.3000 -0.0333 1.0000
-0.4322 0.2556 0.4889
-0.4322 -0.0111 0.7556
-0.0778 0.1222 0.9322
0.0556 0.3889 0.9322
-0.0493 0.1879 0.8364
-0.1444 0.4322 0.5556
-0.1444 0.0556 0.9322
-0.5000 0.1667 0.5333
-0.1667 0.5000 0.5333
-0.5000 0.0333 0.6667
-0.0333 0.5000 0.6667
-0.0333 0.1667 1.0000
-0.1667 0.0333 1.0000
0.0774 0.4532 0.9513
-0.0665 0.4143 0.6196
-0.0111 0.4322 0.6889
-0.0111 0.1889 0.9322
-0.4322 0.1222 0.5556
-0.4322 0.0556 0.6222
0.0556 0.4322 0.8222
0.0556 0.3222 0.9322
-0.1019 0.1207 0.7904
-0.2111 0.4322 0.4889
-0.2111 -0.0111 0.9322
-0.4322 0.3889 0.4222
-0.2333 0.5000 0.4667
-0.5000 0.2333 0.4667
-0.5000 -0.0333 0.7333
0.0333 0.5000 0.7333
-0.2333 -0.0333 1.0000
0.0333 0.2333 1.0000
-0.5000 0.5000 0.4000
-0.5000 -0.1000 1.0000
0.1000 0.5000 1.0000
-0.4452 -0.0882 0.8941
-0.3444 0.4322 0.4222
-0.4322 0.1889 0.4889
-0.4322 -0.0111 0.6889
-0.3444 -0.0778 0.9322
-0.5000 0.4333 0.4000
-0.4333 0.5000 0.4000
-0.5000 -0.1000 0.9333
0.1000 0.5000 0.9333
-0.4333 -0.1000 1.0000
0.1000 0.4333 1.0000
0.0333 0.3152 0.7778
-0.4322 0.3222 0.4222
-0.4322 -0.0778 0.8222
0.0995 0.4391 0.9082
0.0556 0.4322 0.7556
0.0556 0.2556 0.9322
0.0333 0.3644 0.7333
-0.2340 -0.0006 0.7697
-0.2710 0.1806 0.5298
-0.5000 0.3667 0.4000
-0.3667 0.5000 0.4000
-0.5000 0.1000 0.5333
-0.1000 0.5000 0.5333
-0.5000 0.0333 0.6000
-0.0333 0.5000 0.6000
-0.5000 -0.1000 0.8667
0.1000 0.5000 0.8667
-0.3667 -0.1000 1.0000
-0.0333 0.1000 1.0000
0.1000 0.3667 1.0000
-0.1000 0.0333 1.0000
-0.0778 0.4322 0.5556
-0.0778 0.0556 0.9322
-0.0628 0.2439 0.6440
-0.0111 0.4322 0.6222
-0.0111 0.1222 0.9322
-0.2778 0.4322 0.4222
-0.2778 -0.0778 0.9322
-0.0446 0.1602 0.7432
-0.3152 -0.0333 0.7333
-0.0245 0.2208 0.7038
-0.1444 0.4322 0.4889
-0.1444 -0.0111 0.9322
-0.5000 0.1667 0.4667
-0.1667 0.5000 0.4667
-0.5000 -0.0333 0.6667
0.0333 0.5000 0.6667
-0.1667 -0.0333 1.0000
0.0333 0.1667 1.0000
-0.4322 0.2556 0.4222
-0.4322 -0.0778 0.7556
-0.1481 0.0802 0.6848
-0.4322 0.0556 0.5556
-0.3000 0.5000 0.4000
-0.5000 0.3000 0.4000
-0.5000 -0.1000 0.8000
0.1000 0.5000 0.8000
0.1000 0.3000 1.0000
-0.3000 -0.1000 1.0000
-0.0963 0.2078 0.6003
0.1256 0.3889 0.9322
-0.0693 0.2898 0.5772
-0.4322 0.1222 0.4889
-0.4322 -0.0111 0.6222
-0.1629 0.2746 0.5052
0.0556 0.4322 0.6889
0.0556 0.1889 0.9322
-0.1781 0.1652 0.5590
-0.0577 0.1730 0.6710
0.0053 0.2740 0.6629
0.1222 0.3387 0.9157
-0.2111 0.4322 0.4222
-0.2111 -0.0778 0.9322
0.1222 0.4322 0.8222
-0.0225 0.1177 0.7746
-0.3370 0.1873 0.4509
-0.4410 -0.1434 0.9027
-0.4111 0.4322 0.3556
-0.3443 -0.1348 0.9418
-0.2165 0.0511 0.6141
-0.5000 0.2333 0.4000
-0.2333 0.5000 0.4000
-0.5000 -0.1000 0.7333
0.1000 0.5000 0.7333
-0.2333 -0.1000 1.0000
0.1000 0.2333 1.0000
-0.4322 0.3889 0.3556
-0.3152 0.3000 0.4000
-0.4322 0.1889 0.4222
-0.4322 -0.0778 0.6889
0.0299 0.1807 0.7708
-0.0333 0.5000 0.5333
-0.5000 0.0333 0.5333
-0.0333 0.0333 1.0000
-0.2797 0.0634 0.5534
-0.2226 0.3112 0.4289
-0.0023 0.3128 0.6048
-0.2041 0.2210 0.4751
-0.0111 0.4322 0.5556
-0.0111 0.0556 0.9322
-0.0818 0.4143 0.4909
-0.3113 -0.0027 0.6074
-0.2279 0.0877 0.5536
-0.0536 0.0877 0.7279
-0.3444 0.4322 0.3556
-0.0778 -0.0111 0.9322
-0.5000 0.5000 0.3333
-0.5000 0.1000 0.4667
-0.1000 0.5000 0.4667
[...]
         <PointData>
            <DataArray Name="fValues" NumberOfComponents="3" format="ascii" type="Float64">
 1.43961e-18 -4.37504e-19  1.18119e-17 
 2.14297e-02 -1.52118e-02 -2.88311e-02 
 1.96076e-02  1.27123e-02 -5.30503e-02 
 6.26183e-03  9.90448e-03 -8.85163e-02 
 4.78195e-03  3.86160e-03 -3.90368e-02 
 3.42863e-03 -3.71140e-03 -4.15229e-02 
-9.90057e-04  1.14366e-03 -4.85029e-03 
 2.24914e-02 -2.07584e-02 -2.94505e-02 
-1.61821e-03  1.99746e-02 -1.03178e-01 
-7.07775e-03  1.34301e-02 -8.95403e-02 
 8.19689e-03 -1.94253e-03 -2.95160e-02 
 1.42718e-03 -8.07414e-03 -3.27197e-02 
-3.16939e-03  1.79013e-03 -5.00209e-02 
 2.28121e-03  3.30993e-03 -4.56800e-02 
-4.98750e-03  6.30734e-03 -2.29932e-03 
-1.17283e-03  5.21698e-03  2.85603e-03 
 2.05308e-03 -1.06677e-03 -1.79828e-02 
-3.17476e-03  3.66740e-03 -5.77188e-03 
 1.39796e-04 -3.21829e-04 -3.16672e-02 
 4.82345e-04  7.20865e-05 -2.96090e-02 
-6.99618e-03  9.78290e-03  3.83368e-04 
 2.46779e-02 -2.30655e-02 -2.52410e-02 
-1.87848e-02  1.12292e-02 -1.01853e-01 
-6.81074e-03  2.50068e-02 -1.06229e-01 
-3.38197e-03 -1.51947e-03 -1.65639e-02 
-6.93067e-03  8.92280e-03 -1.68241e-03 
 1.58521e-03  2.65190e-04 -1.89388e-02 
 1.04152e-03  6.76277e-03 -1.17445e-02 
 1.31228e-02  2.59075e-03 -2.46283e-02 
 9.41061e-04 -1.18161e-02 -2.41744e-02 
-6.11560e-03 -1.20961e-03 -5.43960e-02 
-7.42984e-04  7.26148e-03 -5.36635e-02 
-6.60531e-03  7.66490e-03  1.16811e-03 
-8.18842e-03  1.18262e-02  1.98857e-03 
-5.62698e-03  7.99245e-03 -8.11704e-03 
 3.93891e-03  1.13365e-03 -2.21373e-02 
 2.46961e-03 -3.02049e-03 -2.21504e-02 
 2.67738e-03  5.79696e-03 -3.19241e-02 
-5.17712e-03 -1.65773e-03 -3.07745e-02 
-1.16880e-02  1.12060e-02  6.60941e-04 
-9.87996e-03  1.31463e-02  4.48206e-04 
-6.87009e-03 -1.28764e-03 -1.84858e-02 
-2.66647e-03 -1.45655e-04 -1.66402e-02 
-9.31753e-03  1.16165e-02 -2.04707e-03 
 3.19641e-03  1.46495e-04 -1.73176e-02 
 5.38206e-04  4.71958e-03 -1.25810e-02 
-5.83747e-03  1.03870e-02 -4.61437e-03 
 2.56182e-02 -2.47471e-02 -1.95431e-02 
-2.34012e-02  1.07666e-02 -1.04660e-01 
-7.62539e-03  2.58209e-02 -1.07534e-01 
 1.71139e-03 -1.21899e-02 -1.96251e-02 
 1.34471e-02  7.01216e-04 -1.81909e-02 
-8.22224e-03  8.07293e-04 -4.99588e-02 
-3.42393e-04  8.67357e-03 -5.26797e-02 
-1.11377e-02  1.10237e-02 -9.55114e-06 
-9.45165e-03  1.22787e-02 -1.32813e-03 
-1.87507e-03  1.01885e-03 -2.04813e-02 
 8.88967e-04  3.12197e-03 -2.13068e-02 
-1.43550e-02  1.57400e-02  3.01135e-04 
-5.18910e-03  1.45663e-03 -1.41034e-02 
-1.12944e-02  1.30027e-02 -4.66480e-04 
-5.02355e-04  1.80092e-04 -1.41301e-02 
 5.00425e-03  5.50419e-04 -1.63470e-02 
-6.00247e-04 -3.37035e-03 -1.69349e-02 
-6.86545e-03  9.21767e-04 -3.05083e-02 
 8.84235e-04  7.93338e-03 -3.09027e-02 
-1.18650e-02  1.65431e-02  6.48275e-04 
-1.55071e-02  1.24020e-02 -5.45336e-04 
-9.20669e-03  1.05394e-02 -3.10833e-03 
-1.23391e-02  1.40937e-02  1.17628e-04 
-2.06771e-03  7.76026e-03 -1.12402e-02 
-2.87869e-04  3.43965e-03 -1.19558e-02 
-9.20359e-03  6.32978e-03 -2.07274e-02 
-9.49355e-03  6.02972e-03 -8.44297e-03 
-1.21831e-02  1.50692e-02 -6.86372e-04 
 2.54019e-02 -2.54495e-02 -1.44953e-02 
 4.50814e-04  1.71378e-03 -1.48682e-02 
-2.54316e-04 -5.96329e-04 -1.45032e-02 
 1.36738e-03  5.77491e-03 -1.99787e-02 
-4.73467e-03  2.69615e-04 -1.96752e-02 
-1.81555e-02  1.68125e-02 -1.95988e-04 
-1.54649e-02  1.97234e-02  3.88558e-04 
-2.49817e-02  8.73883e-03 -1.05403e-01 
-7.98563e-03  2.82907e-02 -1.10443e-01 
-7.32789e-03  8.04848e-03 -3.67977e-03 
 7.77040e-04 -4.61106e-04 -1.25217e-02 
-2.94434e-03  1.24899e-03 -1.15793e-02 
-1.52313e-02  1.85552e-02  5.26589e-03 
 7.26723e-04 -1.38622e-02 -1.35876e-02 
 1.39674e-02  1.65140e-03 -1.41146e-02 
-2.62180e-03  6.65668e-03 -5.22605e-02 
-7.95776e-03  5.23425e-04 -5.77023e-02 
-1.21796e-02  9.23562e-03 -2.02074e-04 
-8.68193e-03  1.65675e-02  2.89154e-03 
-5.36255e-03  9.45376e-03 -6.97490e-03 
-9.15939e-03  6.92858e-03 -3.85068e-03 
-2.00764e-03  5.23550e-03 -1.08771e-02 
-1.49570e-02  1.89592e-02  5.80843e-03 
 4.38427e-04  1.68019e-04 -1.13434e-02 
-1.62649e-02  1.33244e-02  2.34608e-03 
 5.32064e-05 -5.07160e-03 -1.26922e-02 
 6.57884e-03  2.36264e-04 -1.18130e-02 
 1.62468e-03  8.31219e-03 -3.01255e-02 
-6.50421e-03 -1.11788e-03 -2.98416e-02 
-1.86590e-02  1.17858e-02  2.55205e-04 
-1.08699e-02  1.96757e-02 -1.69629e-04 
-8.80926e-03  7.62539e-03 -1.17563e-02 
-2.77742e-04  2.28881e-03 -1.01388e-02 
-4.20550e-03  8.29239e-03 -9.71528e-03 
-1.00161e-02  1.14027e-02 -1.65643e-04 
-7.79638e-04  4.56865e-03 -1.30072e-02 
-3.13974e-03  4.77284e-04 -1.26249e-02 
-1.86003e-02  2.02127e-02  3.30701e-04 
-7.98158e-03  2.22711e-03 -1.27157e-02 
-5.38928e-03  3.28399e-03 -7.85316e-03 
-1.71067e-02  2.16937e-02  9.51192e-03 
-9.56878e-03  1.87448e-02  2.86159e-03 
-1.90887e-03  1.96764e-03 -8.70445e-03 
-1.89397e-02  1.66319e-02  1.07689e-02 
 5.20649e-04 -1.63729e-04 -1.09785e-02 
 1.65466e-03  6.72904e-04 -1.03113e-02 
-3.10558e-04  6.43935e-03 -1.83493e-02 
-4.77197e-03  1.06006e-03 -1.79962e-02 
-2.19319e-02  1.51906e-02  7.14751e-04 
-1.35729e-02  2.37559e-02 -1.34362e-03 
 2.49945e-03 -1.81981e-03 -9.77278e-03 
 3.78857e-03 -6.18000e-04 -9.01556e-03 
-1.10661e-02  8.20447e-03 -1.41024e-03 
 2.65692e-02 -2.71982e-02 -9.05242e-03 
-2.59836e-02  6.06907e-03 -1.05912e-01 
-5.20091e-03  2.79964e-02 -1.08191e-01 
-3.59866e-03  4.10097e-03 -7.51070e-03 
-4.65089e-03  7.16950e-03 -8.43687e-03 
-5.98829e-03  4.56669e-03 -8.49491e-03 
-1.12933e-02  2.16614e-02  7.71468e-03 
 2.07347e-03 -1.56211e-02 -8.45041e-03 
 1.48064e-02  5.45561e-04 -8.34309e-03 
-3.60220e-04  4.74684e-03 -5.13553e-02 
-6.00865e-03  1.90583e-03 -5.00783e-02 
-1.41653e-02  7.47037e-03 -2.89230e-03 
-5.57613e-03  1.58736e-02 -3.15087e-03 
-1.64585e-02  1.10881e-02  3.77747e-03 
-5.32705e-04 -5.74810e-03 -7.93111e-03 
 7.11189e-03  6.17001e-04 -7.13757e-03 
 7.77257e-04  5.88291e-03 -2.76269e-02 
-5.63752e-03  1.12010e-03 -2.81021e-02 
-7.16919e-03  2.15050e-02 -4.90220e-04 
-1.98261e-02  7.61184e-03 -1.50372e-03 
-6.04837e-03  8.01735e-03 -4.74332e-03 
-4.88726e-03  5.03614e-03 -3.15616e-03 
-1.16923e-02  5.91268e-03 -2.69586e-03 
 2.10004e-04  2.36281e-03 -9.06072e-03 
-1.29687e-03  9.21073e-04 -8.81847e-03 
-5.04872e-04  5.17382e-03 -1.05034e-02 
-4.26979e-03 -4.64370e-04 -1.13631e-02 
-2.17434e-02  1.77345e-02  4.48885e-04 
-1.70038e-02  2.37313e-02 -1.43639e-03 
-1.26962e-02  9.43408e-03  2.76872e-03 
-4.00004e-03  4.31596e-03 -5.95982e-03 
-1.97749e-02  1.91539e-02  1.26231e-02 
 5.53427e-04  1.26567e-04 -6.40990e-03 
 6.91146e-04  4.55827e-06 -7.64688e-03 
-1.32490e-02  2.11271e-02  2.01252e-02 
-5.85600e-03  5.62705e-03 -4.84780e-03 
-1.45619e-02  2.50116e-02  1.06376e-02 
-5.14104e-03  6.38376e-03 -1.35220e-02 
-5.85998e-04  1.40723e-03 -6.06395e-03 
-2.20261e-02  1.31099e-02  1.11684e-02 
-4.41001e-03  4.91281e-03 -5.49067e-03 
 6.34224e-04 -1.80265e-03 -6.81177e-03 
 2.98453e-03  8.32829e-05 -6.36824e-03 
-1.04472e-04  4.95808e-03 -1.43079e-02 
-3.85168e-03  3.54223e-04 -1.55465e-02 
-2.53020e-02  1.03001e-02 -2.62481e-03 
-8.79390e-03  2.66883e-02  8.80041e-04 
-6.44013e-03  1.57004e-02  2.50350e-03 
-1.56067e-03  2.32786e-03 -5.91141e-03 
-6.67465e-03  5.70215e-03 -2.10420e-03 
 1.38806e-03 -2.04411e-03 -4.76719e-03 
-4.03392e-03  4.83935e-03 -5.46283e-03 
-6.61561e-03  2.25136e-02  9.03487e-03 
-2.30520e-02  1.98770e-02  3.39784e-02 
 2.63302e-02 -2.67882e-02 -3.43075e-03 
-2.71931e-02  1.75101e-03 -1.05613e-01 
-1.77943e-03  2.87253e-02 -1.08128e-01 
-3.66657e-03  5.18005e-03 -5.28207e-03 
-3.13727e-03  3.00432e-03 -1.01224e-02 
 1.50935e-02  1.11043e-03 -4.07130e-03 
 4.08170e-04 -1.53066e-02 -3.51368e-03 
 6.74744e-04  3.40004e-03 -6.97484e-03 
-2.56505e-03  8.20173e-04 -6.49401e-03 
-1.64403e-03  1.39768e-03 -5.13677e-02 
-1.60911e-03 -9.45618e-04 -5.34825e-02 
-2.10713e-02  2.15338e-02  4.68752e-05 
-2.36904e-03  1.84528e-02  1.93939e-03 
-1.51810e-02  2.52052e-03  5.34736e-05 
 1.90222e-03  7.55632e-05 -4.10837e-03 
-2.10295e-02  5.19234e-03  5.21409e-03 
-1.75538e-02  2.51995e-02  1.93102e-02 
-2.78019e-03  4.15759e-03 -4.22689e-03 
-2.45761e-02  1.49715e-02  1.47741e-02 
 1.99504e-04  6.15091e-04 -5.95777e-03 
 2.42379e-04  6.90129e-04 -5.80754e-03 
-8.43786e-04  3.96507e-03 -6.98726e-03 
-3.35201e-03  1.01088e-03 -8.39012e-03 
-1.13343e-02  2.69520e-02 -3.59368e-04 
-2.49727e-02  1.16166e-02 -2.15165e-03 
-1.00641e-04 -4.33355e-04 -4.45878e-03 
-6.48337e-03  4.24866e-03 -5.23110e-03 
 8.37639e-03  1.33161e-03 -3.07262e-03 
-8.27868e-04 -5.94173e-03 -3.34585e-03 
 3.25721e-04  2.90629e-03 -2.62268e-02 
-2.23420e-03 -1.27673e-04 -2.80568e-02 
-1.87728e-03  2.30964e-02 -3.23759e-04 
-2.35589e-02  2.43154e-03 -6.17901e-04 
-3.66367e-03  7.11286e-03 -1.68058e-03 
-7.85404e-03  2.87257e-02  1.84385e-02 
-2.49792e-03  2.57312e-03 -4.42752e-03 
-7.48993e-03  4.64667e-03  1.89818e-03 
-5.60960e-03  1.54097e-02  7.91692e-03 
 1.41101e-04  1.43162e-03 -3.43464e-03 
-2.46456e-02  5.87956e-03  1.49037e-02 
-1.57619e-03  5.41806e-03 -1.00283e-02 
 1.30280e-05 -2.42489e-03 -3.09327e-03 
 3.35619e-03  9.42948e-04 -2.70279e-03 
-1.56072e-03  2.53060e-03 -1.36164e-02 
-1.24113e-03  6.95914e-04 -1.42938e-02 
-1.87490e-03  2.87214e-02  3.91251e-04 
-2.73657e-02  3.37743e-03 -6.36099e-04 
-1.43395e-03  1.00287e-03 -4.86144e-03 
-7.60159e-03  3.78013e-03 -2.85022e-04 
-2.33519e-02  9.00642e-03  2.74427e-02 
 4.28952e-04  1.67810e-03 -4.28091e-03 
-1.27732e-03  5.06655e-04 -4.14073e-03 
-2.42272e-03  1.47116e-03 -4.06814e-03 
 3.55331e-05  3.09074e-03 -3.21063e-03 
-1.47970e-02  2.39693e-02 -2.64087e-04 
-2.44881e-02  1.49547e-02 -2.50984e-03 
 3.13460e-03 -1.40904e-03  8.99074e-05 
-2.06828e-02  1.76976e-02  2.51629e-02 
-3.81371e-04  4.88436e-03 -5.69776e-03 
-5.58591e-04  2.41782e-02  8.53882e-03 
-5.12943e-03 -4.77331e-04 -1.18112e-02 
-2.09320e-02 -2.05101e-04  3.94383e-03 
-1.03200e-02  2.54007e-02  2.37231e-02 
-5.95129e-03  2.40462e-02  2.78089e-02 
 2.41628e-02 -2.79997e-02  1.96666e-03 
-2.73901e-02 -1.38948e-03 -1.09713e-01 
 2.46136e-03  2.83367e-02 -1.08962e-01 
-1.37958e-03  2.50898e-03 -2.92579e-03 
-2.56611e-02  6.78007e-03  1.67252e-02 
-3.13965e-03  7.50248e-03  1.52442e-03 
-2.36674e-03  5.97052e-03 -1.63308e-03 
-4.15249e-04 -1.63117e-02  1.32054e-03 
 1.16609e-02 -2.58230e-03  1.49988e-03 
 9.32100e-04  7.04734e-04 -2.61942e-03 
 3.89312e-04 -4.97016e-04 -3.25345e-03 
-7.76605e-04  1.95157e-03 -6.48753e-03 
-1.47269e-03  7.18591e-04 -7.11506e-03 
-4.11436e-04 -2.55333e-03 -5.50778e-02 
 1.38913e-03  1.30717e-03 -5.05932e-02 
-1.60954e-02 -5.27560e-04 -5.97481e-03 
-2.99274e-03  2.92316e-02  5.05439e-04 
-2.67873e-02  3.51429e-03 -2.34282e-03 
 2.03885e-03  1.62636e-02 -2.19583e-03 
 1.37972e-03  1.79469e-04 -1.98709e-04 
-3.68729e-03  3.14771e-03  1.31892e-03 
-2.78808e-03  3.72865e-03 -1.82211e-03 
 4.45292e-05 -7.98099e-04 -6.69275e-04 
-7.33855e-03  1.09701e-04 -6.17443e-03 
-3.66957e-03  2.06209e-03 -3.53251e-03 
-6.66021e-03  2.89672e-03  2.61915e-03 
-1.15947e-03 -8.09099e-03  9.72123e-04 
 6.45364e-03  8.06849e-04  1.96139e-03 
-6.02617e-04 -9.66956e-04 -2.72421e-02 
 1.51049e-03  6.93765e-04 -2.77257e-02 
 2.86629e-03  2.41180e-02 -1.96975e-03 
-2.40787e-02 -2.19620e-03 -7.87783e-04 
-1.25844e-03  7.62406e-03 -1.34761e-03 
-2.46815e-04  3.04030e-02  1.76990e-02 
-1.72489e-02  3.04028e-02  6.20170e-02 
-5.69962e-03  2.56181e-02  3.21170e-02 
-1.37845e-02 -3.30531e-03 -4.22016e-03 
 2.62967e-04  1.54162e-03 -6.72104e-04 
-2.50248e-02 -1.63098e-03  1.37493e-02 
-3.90258e-04  1.90787e-03 -1.25002e-03 
-1.50441e-03  6.04770e-04 -2.44937e-03 
-1.67233e-02  1.62358e-02 -2.41001e-03 
-3.31468e-02  5.37259e-03  4.83136e-02 
 2.34329e-03  6.82567e-03 -1.03723e-02 
 7.10080e-05 -3.24004e-03  9.24186e-04 
 3.00926e-03  9.04389e-04  1.52948e-03 
-5.62139e-04 -1.00569e-03 -1.42878e-02 
 1.44237e-03 -1.21433e-04 -1.45815e-02 
 4.48548e-03  2.82339e-02 -1.01894e-03 
-2.71712e-02 -3.27227e-03 -1.77040e-03 
-3.45515e-04  6.44470e-04 -1.36156e-03 
-8.42827e-03  2.96366e-04 -1.46396e-03 
-1.43563e-02  1.97773e-02  2.85215e-02 
 3.10956e-03  1.57161e-02 -4.39424e-03 
-7.66249e-03  3.13946e-02  6.27775e-02 
-2.50362e-03  3.06113e-03 -2.62588e-03 
-2.35240e-02  8.41472e-03  2.43371e-02 
 7.86719e-04  6.47570e-04 -3.14500e-03 
-4.54527e-04  9.99886e-04 -1.94490e-03 
-1.52912e-04  1.55933e-03 -2.86883e-03 
-1.30882e-03  1.54425e-03 -3.10896e-03 
-5.22635e-03  2.61981e-02 -1.75156e-03 
-2.60426e-02  5.57505e-03 -2.80716e-03 
 4.00559e-03  8.34475e-03 -1.96542e-02 
-2.06573e-03  9.05460e-03  4.15916e-03 
-1.04848e-03  8.09227e-03  8.68612e-04 
-4.09799e-04  2.83876e-02  2.45431e-02 
-5.97747e-03  2.34048e-03  9.79759e-04 
-6.26841e-03  2.15546e-03  2.88303e-03 
 2.84792e-03  5.73746e-03 -6.26351e-03 
 6.79611e-03  2.38884e-02  1.08182e-02 
-2.25501e-02  2.71082e-02  9.35389e-02 
-1.31098e-03  3.10212e-03 -1.38933e-03 
-2.69827e-02 -2.09801e-03  1.80271e-02 
 5.07622e-04 -1.48973e-03  4.33693e-03 
 8.58153e-04  1.32145e-03  6.26011e-04 
 3.27838e-05 -7.92740e-04  2.48086e-04 
-1.20871e-03 -5.98509e-04 -6.60628e-03 
 1.04500e-03  1.15495e-03 -7.53383e-03 
-2.67863e-02 -4.88581e-03 -8.05798e-04 
 5.49609e-03  2.87953e-02 -8.06116e-04 
 2.56414e-02 -2.50960e-02  6.86155e-03 
-2.59981e-02 -4.65162e-03 -1.05508e-01 
 5.17663e-03  2.80540e-02 -1.10621e-01 
-2.80614e-03 -5.91552e-03 -1.06111e-02 
 1.18414e-03 -2.14304e-04  3.78107e-03 
-5.04123e-04  1.31764e-03 -4.18411e-03 
-7.53778e-03  3.71068e-04  1.93173e-03 
-2.09677e-02 -6.20739e-03  5.91609e-03 
 1.01122e-03 -1.32311e-02  6.68036e-03 
 1.40612e-02  1.68178e-03  6.27028e-03 
-2.54986e-03 -5.55590e-03 -5.19023e-02 
 4.37807e-03  1.77841e-03 -5.75466e-02 
-1.26385e-02 -5.76464e-03  2.72314e-03 
 6.06615e-03  1.68025e-02  2.22022e-03 
 3.14375e-03  2.29826e-02  2.37731e-02 
-9.95339e-04 -2.86609e-05  2.62891e-03 
-5.80093e-03 -3.28045e-03 -6.07982e-03 
 4.16156e-03  3.72610e-03 -1.24353e-02 
 1.99534e-03  7.14294e-03 -3.03735e-03 
 8.42761e-03  2.78801e-02  1.43309e-02 
 2.51740e-03  1.71844e-02  1.53938e-02 
-3.17578e-02  2.14200e-03  6.05185e-02 
-1.89600e-02  1.29202e-02  8.61009e-03 
-8.22223e-04 -5.72882e-03  5.39727e-03 
 7.21286e-03  4.07722e-04  5.86991e-03 
 1.45006e-04  1.25430e-03 -1.11566e-03 
-8.44729e-04  1.44492e-04 -1.09596e-03 
-8.23583e-04  1.46371e-03 -1.31940e-03 
-8.86339e-04  7.34933e-04 -1.72834e-03 
 2.21983e-03 -3.99346e-03 -2.72526e-02 
 5.09081e-03 -1.84686e-03 -2.96713e-02 
-2.21089e-02 -6.83609e-03  1.92589e-03 
-6.69811e-03  1.78334e-02 -1.82846e-03 
 7.47722e-03  2.23625e-02 -7.64643e-04 
-1.77625e-02  5.89859e-03 -3.81349e-03 
-2.28137e-03  4.39376e-03 -7.70557e-05 
-1.64757e-02  1.04763e-02  2.80513e-02 
-1.17589e-02  4.35958e-02  6.10719e-02 
-8.75617e-04  8.56931e-03  2.12628e-03 
-2.52747e-03  2.16194e-02  3.27191e-02 
-4.23271e-04  2.13143e-03  2.20264e-03 
-2.48222e-02 -8.04594e-03  1.41049e-02 
-1.25178e-02  3.71704e-02  1.18804e-01 
-2.63712e-02 -2.83100e-03  2.62011e-02 
-1.91897e-03  4.28897e-02  8.11863e-02 
-2.13562e-03  5.45666e-03 -1.31666e-03 
-2.53806e-02 -2.45557e-03  2.94452e-02 
 1.13929e-03  6.45287e-04 -1.21506e-03 
-6.25082e-04  1.38703e-03  1.02743e-04 
-1.01004e-03 -1.03452e-04 -2.85495e-03 
 7.52552e-04  1.61608e-03 -3.64590e-03 
-2.58565e-02 -5.55253e-03 -2.58477e-03 
 5.85327e-03  2.68142e-02 -9.58554e-05 
-1.59461e-03  1.52531e-03  1.33928e-03 
-8.01219e-03 -3.14570e-03 -1.33283e-03 
-5.13578e-02  2.53001e-02  1.32180e-01 
-5.44697e-03  1.34271e-03  1.90616e-03 
 2.22250e-03  7.44807e-04  4.96531e-03 
-5.94501e-04 -1.87350e-03  4.35067e-03 
-1.29165e-03 -3.56776e-03 -1.50007e-02 
 3.95333e-03  1.84134e-03 -1.65184e-02 
 1.04951e-02  2.57501e-02 -9.67167e-04 
-2.59156e-02 -8.98103e-03  7.75702e-04 
-2.94893e-02  5.97936e-02  8.21373e-02 
 7.48876e-03  1.48016e-02 -2.87097e-04 
-6.92851e-03  2.81561e-02  2.00976e-02 
-2.71565e-03  1.82421e-03 -1.84402e-03 
-8.63436e-03  5.44340e-04  2.59899e-03 
-1.13798e-02  1.62273e-02 -4.36981e-04 
 1.63742e-03  8.39824e-03  5.35445e-04 
 1.00794e-02  2.59414e-02  2.25000e-02 
-4.05964e-02  3.50402e-02  6.59677e-02 
-2.40280e-02  5.56665e-02  1.41572e-01 
 1.44617e-03  3.09302e-02  4.32885e-02 
 1.14852e-02  1.98147e-02  8.24555e-03 
-1.11494e-03  2.96656e-03  3.86839e-04 
-2.64387e-02 -9.75074e-03  1.76151e-02 
 5.30280e-03  5.30704e-03 -9.30919e-03 
-4.11587e-03  2.98226e-02  1.25105e-01 
-8.08979e-03  4.70796e-03 -4.80216e-03 
-3.47638e-03 -7.06118e-03 -1.21136e-02 
 2.66532e-03 -3.24607e-04  8.62581e-03 
-1.98425e-02 -1.05637e-02  5.41559e-03 
-5.58640e-02  1.62608e-02  9.47121e-02 
-3.94860e-04  6.54905e-04  3.21996e-03 
-3.05012e-04  1.53548e-04  3.10570e-03 
-7.08540e-04 -2.96136e-03 -8.06892e-03 
 2.73849e-03  1.43503e-03 -9.07916e-03 
-2.55148e-02 -1.18986e-02 -3.07263e-04 
 1.23437e-02  2.64700e-02  2.74162e-04 
 9.14811e-04 -1.28686e-03  7.95823e-03 
-5.25511e-03  4.51999e-03 -8.69339e-04 
-2.88158e-03  1.85044e-03 -1.36864e-03 
-8.17299e-03 -2.32514e-03  1.01205e-03 
 7.59646e-03  3.64997e-02  8.99686e-02 
-8.48666e-04  9.47502e-04 -7.82741e-04 
 1.48531e-04  1.25613e-03 -1.07740e-03 
-7.82685e-03  6.82874e-03 -2.61523e-03 
-3.07694e-02  7.39367e-03  1.86473e-02 
-7.70481e-03  8.51078e-03 -7.71526e-03 
-3.84525e-04  3.11366e-02  2.43664e-02 
-1.76133e-02  1.87941e-02 -5.22088e-03 
-1.24416e-03  6.34082e-03  7.26455e-04 
-2.44698e-03  1.14594e-02  3.90786e-02 
-2.35603e-03  5.94272e-03 -1.49041e-03 
-2.69811e-02  8.06311e-04  2.14504e-02 
-5.88072e-02  2.84027e-02  4.96583e-02 
-2.49857e-02  3.04848e-02  1.83540e-01 
 2.44581e-06  5.94722e-04  6.84368e-03 
-1.62033e-02 -2.28428e-03  3.49524e-02 
 2.54003e-02 -2.56143e-02  1.23762e-02 
 6.00886e-04  1.15996e-03 -1.02465e-03 
-5.66182e-04  1.54572e-03 -6.53929e-04 
-1.66767e-03  2.42445e-04 -1.06224e-03 
 3.79465e-04  1.07934e-03 -2.29360e-03 
-2.56016e-02 -7.18075e-03 -1.03653e-01 
-1.82975e-02 -6.85828e-03 -1.67520e-03 
 7.83104e-03  2.64976e-02 -1.07473e-01 
 5.56887e-03  1.84598e-02 -1.14278e-03 
-6.53095e-03  1.93798e-02 -2.17676e-03 
 1.07865e-03 -1.35156e-02  1.10637e-02 
 1.34322e-02  1.32684e-04  1.21358e-02 
-4.82798e-04 -7.08408e-03 -4.97767e-02 
 6.57041e-03  1.79012e-03 -5.00422e-02 
-1.29981e-02 -7.91774e-03  2.62191e-04 
 9.13154e-03  1.32600e-02 -3.59079e-03 
-1.03708e-03  6.75922e-04  5.96310e-03 
 4.13284e-03  6.91409e-03 -5.08809e-03 
-4.32902e-03 -5.98747e-03 -9.66196e-03 
 1.37214e-02  2.31875e-02  1.38253e-02 
 6.36046e-04  6.50734e-03  1.61621e-03 
 1.04028e-02  2.23448e-02  3.36127e-02 
-5.44048e-02  4.51440e-02  8.80539e-03 
 7.91741e-05  5.11503e-02  1.57815e-01 
-2.63927e-02 -8.71148e-03  9.66315e-02 
-1.72494e-03 -6.06652e-03  1.03535e-02 
 6.24487e-03  1.92202e-03  1.05315e-02 
 1.96419e-03 -6.31344e-03 -2.79814e-02 
 5.87112e-03 -1.82778e-04 -2.86571e-02 
-1.97821e-02 -1.02380e-02  2.47587e-03 
 1.11191e-02  1.91900e-02  2.69809e-04 
-3.68040e-02  4.63698e-02  8.31527e-03 
-6.65154e-04  5.53481e-02  1.11349e-01 
-4.74154e-03  2.19442e-03 -5.62053e-04 
-7.13143e-03  3.23080e-04  2.34522e-03 
-1.35369e-03  3.47300e-03  1.32203e-03 
-2.62426e-02 -1.43556e-02  2.87259e-02 
-3.23439e-02 -1.39841e-02  4.20505e-02 
 1.45636e-02  2.93580e-02  4.28666e-02 
 7.45796e-03  2.46828e-02  2.24664e-02 
-1.48784e-03  1.30589e-03  5.43697e-03 
-2.24420e-02 -1.24922e-02  1.30078e-02 
-2.73887e-02  1.05802e-02 -3.32417e-03 
-5.51970e-02  3.19781e-02  6.51629e-03 
-9.53731e-04  3.96098e-02  1.68674e-01 
 1.95322e-05  1.41985e-03  1.15355e-03 
-1.41619e-03  2.16359e-04  2.12706e-03 
-9.71420e-04 -2.10655e-03 -4.41731e-03 
 2.10392e-03  1.58847e-03 -5.27966e-03 
 1.49823e-02  2.43803e-02  1.65583e-04 
-2.44759e-02 -1.47435e-02  9.78217e-04 
-1.10472e-02 -9.67239e-03 -3.22608e-03 
-2.92908e-02  1.70101e-02 -1.66721e-02 
-1.32404e-03  2.70355e-03  4.95735e-03 
-5.54022e-03 -4.44119e-03 -5.67968e-03 
-2.72418e-03  1.29505e-03 -3.52643e-03 
-7.60424e-03 -8.55752e-04  3.12591e-03 
-2.67242e-02  5.67783e-02  1.69037e-03 
-1.35774e-04  6.56829e-02  8.15394e-02 
-4.98931e-04 -6.69719e-04  8.44692e-03 