<?xml version="1.0" encoding="utf-8"?>
<VTKFile byte_order="LittleEndian" type="UnstructuredGrid" version="0.1">
   <UnstructuredGrid>
      <Piece NumberOfCells="44104" NumberOfPoints="22276">
         <Points>
            <DataArray Name="Points" NumberOfComponents="3" format="ascii" type="Float32">
0.0000 0.0000 0.0000
0.0000 0.0135 0.0000
0.0000 0.0270 0.0000
0.0000 0.0405 0.0000
0.0000 0.0541 0.0000
0.0000 0.0676 0.0000
0.0000 0.0811 0.0000
0.0000 0.0946 0.0000
0.0000 0.1081 0.0000
0.0000 0.1216 0.0000
0.0000 0.1351 0.0000
0.0000 0.1486 0.0000
0.0000 0.1622 0.0000
0.0000 0.1757 0.0000
0.0000 0.1892 0.0000
0.0000 0.2027 0.0000
0.0000 0.2162 0.0000
0.0000 0.2297 0.0000
0.0000 0.2432 0.0000
0.0000 0.2568 0.0000
0.0000 0.2703 0.0000
0.0000 0.2838 0.0000
0.0000 0.2973 0.0000
0.0000 0.3108 0.0000
0.0000 0.3243 0.0000
0.0000 0.3378 0.0000
0.0000 0.3514 0.0000
0.0000 0.3649 0.0000
0.0000 0.3784 0.0000
0.0000 0.3919 0.0000
0.0000 0.4054 0.0000
0.0000 0.4189 0.0000
0.0000 0.4324 0.0000
0.0000 0.4459 0.0000
0.0000 0.4595 0.0000
0.0000 0.4730 0.0000
0.0000 0.4865 0.0000
0.0000 0.5000 0.0000
0.0000 0.5135 0.0000
0.0000 0.5270 0.0000
0.0000 0.5405 0.0000
0.0000 0.5541 0.0000
0.0000 0.5676 0.0000
0.0000 0.5811 0.0000
0.0000 0.5946 0.0000
0.0000 0.6081 0.0000
0.0000 0.6216 0.0000
0.0000 0.6351 0.0000
0.0000 0.6486 0.0000
0.0000 0.6622 0.0000
0.0000 0.6757 0.0000
0.0000 0.6892 0.0000
0.0000 0.7027 0.0000
0.0000 0.7162 0.0000
0.0000 0.7297 0.0000
0.0000 0.7432 0.0000
0.0000 0.7568 0.0000
0.0000 0.7703 0.0000
0.0000 0.7838 0.0000
0.0000 0.7973 0.0000
0.0000 0.8108 0.0000
0.0000 0.8243 0.0000
0.0000 0.8378 0.0000
0.0000 0.8514 0.0000
0.0000 0.8649 0.0000
0.0000 0.8784 0.0000
0.0000 0.8919 0.0000
0.0000 0.9054 0.0000
0.0000 0.9189 0.0000
0.0000 0.9324 0.0000
0.0000 0.9459 0.0000
0.0000 0.9595 0.0000
0.0000 0.9730 0.0000
0.0000 0.9865 0.0000
0.0000 1.0000 0.0000
0.0134 0.0000 0.0000
0.0134 0.0135 0.0000
0.0134 0.0270 0.0000
0.0134 0.0405 0.0000
0.0134 0.0541 0.0000
0.0134 0.0676 0.0000
0.0134 0.0811 0.0000
0.0134 0.0946 0.0000
0.0134 0.1081 0.0000
0.0134 0.1216 0.0000
0.0134 0.1351 0.0000
0.0134 0.1486 0.0000
0.0134 0.1622 0.0000
0.0134 0.1757 0.0000
0.0134 0.1892 0.0000
0.0134 0.2027 0.0000
0.0134 0.2162 0.0000
0.0134 0.2297 0.0000
0.0134 0.2432 0.0000
0.0134 0.2568 0.0000
0.0134 0.2703 0.0000
0.0134 0.2838 0.0000
0.0134 0.2973 0.0000
0.0134 0.3108 0.0000
0.0134 0.3243 0.0000
0.0134 0.3378 0.0000
0.0134 0.3514 0.0000
0.0134 0.3649 0.0000
0.0134 0.3784 0.0000
0.0134 0.3919 0.0000
0.0134 0.4054 0.0000
0.0134 0.4189 0.0000
0.0134 0.4324 0.0000
0.0134 0.4459 0.0000
0.0134 0.4595 0.0000
0.0134 0.4730 0.0000
0.0134 0.4865 0.0000
0.0134 0.5000 0.0000
0.0134 0.5135 0.0000
0.0134 0.5270 0.0000
0.0134 0.5405 0.0000
0.0134 0.5541 0.0000
0.0134 0.5676 0.0000
0.0134 0.5811 0.0000
0.0134 0.5946 0.0000
0.0134 0.6081 0.0000
0.0134 0.6216 0.0000
0.0134 0.6351 0.0000
0.0134 0.6486 0.0000
0.0134 0.6622 0.0000
0.0134 0.6757 0.0000
0.0134 0.6892 0.0000
0.0134 0.7027 0.0000
0.0134 0.7162 0.0000
0.0134 0.7297 0.0000
0.0134 0.7432 0.0000
0.0134 0.7568 0.0000
0.0134 0.7703 0.0000
0.0134 0.7838 0.0000
0.0134 0.7973 0.0000
0.0134 0.8108 0.0000
0.0134 0.8243 0.0000
0.0134 0.8378 0.0000
0.0134 0.8514 0.0000
0.0134 0.8649 0.0000
0.0134 0.8784 0.0000
0.0134 0.8919 0.0000
0.0134 0.9054 0.0000
0.0134 0.9189 0.0000
0.0134 0.9324 0.0000
0.0134 0.9459 0.0000
0.0134 0.9595 0.0000
0.0134 0.9730 0.0000
0.0134 0.9865 0.0000
0.0134 1.0000 0.0000
0.0268 0.0000 0.0000
0.0268 0.0135 0.0000
0.0268 0.0270 0.0000
0.0268 0.0405 0.0000
0.0268 0.0541 0.0000
0.0268 0.0676 0.0000
0.0268 0.0811 0.0000
0.0268 0.0946 0.0000
0.0268 0.1081 0.0000
0.0268 0.1216 0.0000
0.0268 0.1351 0.0000
0.0268 0.1486 0.0000
0.0268 0.1622 0.0000
0.0268 0.1757 0.0000
0.0268 0.1892 0.0000
0.0268 0.2027 0.0000
0.0268 0.2162 0.0000
0.0268 0.2297 0.0000
0.0268 0.2432 0.0000
0.0268 0.2568 0.0000
0.0268 0.2703 0.0000
0.0268 0.2838 0.0000
0.0268 0.2973 0.0000
0.0268 0.3108 0.0000
0.0268 0.3243 0.0000
0.0268 0.3378 0.0000
0.0268 0.3514 0.0000
0.0268 0.3649 0.0000
0.0268 0.3784 0.0000
0.0268 0.3919 0.0000
0.0268 0.4054 0.0000
0.0268 0.4189 0.0000
0.0268 0.4324 0.0000
0.0268 0.4459 0.0000
0.0268 0.4595 0.0000
0.0268 0.4730 0.0000
0.0268 0.4865 0.0000
0.0268 0.5000 0.0000
0.0268 0.5135 0.0000
0.0268 0.5270 0.0000
0.0268 0.5405 0.0000
0.0268 0.5541 0.0000
0.0268 0.5676 0.0000
0.0268 0.5811 0.0000
0.0268 0.5946 0.0000
0.0268 0.6081 0.0000
0.0268 0.6216 0.0000
0.0268 0.6351 0.0000
0.0268 0.6486 0.0000
0.0268 0.6622 0.0000
0.0268 0.6757 0.0000
0.0268 0.6892 0.0000
0.0268 0.7027 0.0000
0.0268 0.7162 0.0000
0.0268 0.7297 0.0000
0.0268 0.7432 0.0000
0.0268 0.7568 0.0000
0.0268 0.7703 0.0000
0.0268 0.7838 0.0000
0.0268 0.7973 0.0000
0.0268 0.8108 0.0000
0.0268 0.8243 0.0000
0.0268 0.8378 0.0000
0.0268 0.8514 0.0000
0.0268 0.8649 0.0000
0.0268 0.8784 0.0000
0.0268 0.8919 0.0000
0.0268 0.9054 0.0000
0.0268 0.9189 0.0000
0.0268 0.9324 0.0000
0.0268 0.9459 0.0000
0.0268 0.9595 0.0000
0.0268 0.9730 0.0000
0.0268 0.9865 0.0000
0.0268 1.0000 0.0000
0.0403 0.0000 0.0000
0.0403 0.0135 0.0000
0.0403 0.0270 0.0000
0.0403 0.0405 0.0000
0.0403 0.0541 0.0000
0.0403 0.0676 0.0000
0.0403 0.0811 0.0000
0.0403 0.0946 0.0000
0.0403 0.1081 0.0000
0.0403 0.1216 0.0000
0.0403 0.1351 0.0000
0.0403 0.1486 0.0000
0.0403 0.1622 0.0000
0.0403 0.1757 0.0000
0.0403 0.1892 0.0000
0.0403 0.2027 0.0000
0.0403 0.2162 0.0000
0.0403 0.2297 0.0000
0.0403 0.2432 0.0000
0.0403 0.2568 0.0000
0.0403 0.2703 0.0000
0.0403 0.2838 0.0000
0.0403 0.2973 0.0000
0.0403 0.3108 0.0000
0.0403 0.3243 0.0000
0.0403 0.3378 0.0000
0.0403 0.3514 0.0000
0.0403 0.3649 0.0000
0.0403 0.3784 0.0000
0.0403 0.3919 0.0000
0.0403 0.4054 0.0000
0.0403 0.4189 0.0000
0.0403 0.4324 0.0000
0.0403 0.4459 0.0000
0.0403 0.4595 0.0000
0.0403 0.4730 0.0000
0.0403 0.4865 0.0000
0.0403 0.5000 0.0000
0.0403 0.5135 0.0000
0.0403 0.5270 0.0000
0.0403 0.5405 0.0000
0.0403 0.5541 0.0000
0.0403 0.5676 0.0000
0.0403 0.5811 0.0000
0.0403 0.5946 0.0000
0.0403 0.6081 0.0000
0.0403 0.6216 0.0000
0.0403 0.6351 0.0000
0.0403 0.6486 0.0000
0.0403 0.6622 0.0000
0.0403 0.6757 0.0000
0.0403 0.6892 0.0000
0.0403 0.7027 0.0000
0.0403 0.7162 0.0000
0.0403 0.7297 0.0000
0.0403 0.7432 0.0000
0.0403 0.7568 0.0000
0.0403 0.7703 0.0000
0.0403 0.7838 0.0000
0.0403 0.7973 0.0000
0.0403 0.8108 0.0000
0.0403 0.8243 0.0000
0.0403 0.8378 0.0000
0.0403 0.8514 0.0000
0.0403 0.8649 0.0000
0.0403 0.8784 0.0000
0.0403 0.8919 0.0000
0.0403 0.9054 0.0000
0.0403 0.9189 0.0000
0.0403 0.9324 0.0000
0.0403 0.9459 0.0000
0.0403 0.9595 0.0000
0.0403 0.9730 0.0000
0.0403 0.9865 0.0000
0.0403 1.0000 0.0000
0.0537 0.0000 0.0000
0.0537 0.0135 0.0000
0.0537 0.0270 0.0000
0.0537 0.0405 0.0000
0.0537 0.0541 0.0000
0.0537 0.0676 0.0000
0.0537 0.0811 0.0000
0.0537 0.0946 0.0000
0.0537 0.1081 0.0000
0.0537 0.1216 0.0000
0.0537 0.1351 0.0000
0.0537 0.1486 0.0000
0.0537 0.1622 0.0000
0.0537 0.1757 0.0000
0.0537 0.1892 0.0000
0.0537 0.2027 0.0000
0.0537 0.2162 0.0000
0.0537 0.2297 0.0000
0.0537 0.2432 0.0000
0.0537 0.2568 0.0000
0.0537 0.2703 0.0000
0.0537 0.2838 0.0000
0.0537 0.2973 0.0000
0.0537 0.3108 0.0000
0.0537 0.3243 0.0000
0.0537 0.3378 0.0000
0.0537 0.3514 0.0000
0.0537 0.3649 0.0000
0.0537 0.3784 0.0000
0.0537 0.3919 0.0000
0.0537 0.4054 0.0000
0.0537 0.4189 0.0000
0.0537 0.4324 0.0000
0.0537 0.4459 0.0000
0.0537 0.4595 0.0000
0.0537 0.4730 0.0000
0.0537 0.4865 0.0000
0.0537 0.5000 0.0000
0.0537 0.5135 0.0000
0.0537 0.5270 0.0000
0.0537 0.5405 0.0000
0.0537 0.5541 0.0000
0.0537 0.5676 0.0000
0.0537 0.5811 0.0000
0.0537 0.5946 0.0000
0.0537 0.6081 0.0000
0.0537 0.6216 0.0000
0.0537 0.6351 0.0000
0.0537 0.6486 0.0000
0.0537 0.6622 0.0000
0.0537 0.6757 0.0000
0.0537 0.6892 0.0000
0.0537 0.7027 0.0000
0.0537 0.7162 0.0000
0.0537 0.7297 0.0000
0.0537 0.7432 0.0000
0.0537 0.7568 0.0000
0.0537 0.7703 0.0000
0.0537 0.7838 0.0000
0.0537 0.7973 0.0000
0.0537 0.8108 0.0000
0.0537 0.8243 0.0000
0.0537 0.8378 0.0000
0.0537 0.8514 0.0000
0.0537 0.8649 0.0000
0.0537 0.8784 0.0000
0.0537 0.8919 0.0000
0.0537 0.9054 0.0000
0.0537 0.9189 0.0000
0.0537 0.9324 0.0000
0.0537 0.9459 0.0000
0.0537 0.9595 0.0000
0.0537 0.9730 0.0000
0.0537 0.9865 0.0000
0.0537 1.0000 0.0000
0.0671 0.0000 0.0000
0.0671 0.0135 0.0000
0.0671 0.0270 0.0000
0.0671 0.0405 0.0000
0.0671 0.0541 0.0000
0.0671 0.0676 0.0000
0.0671 0.0811 0.0000
0.0671 0.0946 0.0000
0.0671 0.1081 0.0000
0.0671 0.1216 0.0000
0.0671 0.1351 0.0000
0.0671 0.1486 0.0000
0.0671 0.1622 0.0000
0.0671 0.1757 0.0000
0.0671 0.1892 0.0000
0.0671 0.2027 0.0000
0.0671 0.2162 0.0000
0.0671 0.2297 0.0000
0.0671 0.2432 0.0000
0.0671 0.2568 0.0000
0.0671 0.2703 0.0000
0.0671 0.2838 0.0000
0.0671 0.2973 0.0000
0.0671 0.3108 0.0000
0.0671 0.3243 0.0000
0.0671 0.3378 0.0000
0.0671 0.3514 0.0000
0.0671 0.3649 0.0000
0.0671 0.3784 0.0000
0.0671 0.3919 0.0000
0.0671 0.4054 0.0000
0.0671 0.4189 0.0000
0.0671 0.4324 0.0000
0.0671 0.4459 0.0000
0.0671 0.4595 0.0000
0.0671 0.4730 0.0000
0.0671 0.4865 0.0000
0.0671 0.5000 0.0000
0.0671 0.5135 0.0000
0.0671 0.5270 0.0000
0.0671 0.5405 0.0000
0.0671 0.5541 0.0000
0.0671 0.5676 0.0000
0.0671 0.5811 0.0000
0.0671 0.5946 0.0000
0.0671 0.6081 0.0000
0.0671 0.6216 0.0000
0.0671 0.6351 0.0000
0.0671 0.6486 0.0000
0.0671 0.6622 0.0000
0.0671 0.6757 0.0000
0.0671 0.6892 0.0000
0.0671 0.7027 0.0000
0.0671 0.7162 0.0000
0.0671 0.7297 0.0000
0.0671 0.7432 0.0000
0.0671 0.7568 0.0000
0.0671 0.7703 0.0000
0.0671 0.7838 0.0000
0.0671 0.7973 0.0000
0.0671 0.8108 0.0000
0.0671 0.8243 0.0000
0.0671 0.8378 0.0000
0.0671 0.8514 0.0000
0.0671 0.8649 0.0000
0.0671 0.8784 0.0000
0.0671 0.8919 0.0000
0.0671 0.9054 0.0000
0.0671 0.9189 0.0000
0.0671 0.9324 0.0000
0.0671 0.9459 0.0000
0.0671 0.9595 0.0000
0.0671 0.9730 0.0000
0.0671 0.9865 0.0000
0.0671 1.0000 0.0000
0.0805 0.0000 0.0000
0.0805 0.0135 0.0000
0.0805 0.0270 0.0000
0.0805 0.0405 0.0000
0.0805 0.0541 0.0000
0.0805 0.0676 0.0000
0.0805 0.0811 0.0000
0.0805 0.0946 0.0000
0.0805 0.1081 0.0000
0.0805 0.1216 0.0000
0.0805 0.1351 0.0000
[...]
         <PointData>
            <DataArray Name="fValues" NumberOfComponents="1" format="ascii" type="Float64">
       00001 
 1.00000e+00 
 1.00000e+00 
 1.00000e+00 
 8.96412e-17 
 2.56470e-18 
-1.62497e-18 
 1.51305e-19 
 9.02558e-21 
-1.19125e-20 
 2.29685e-21 
-1.39398e-22 
-9.47267e-23 
 5.90614e-23 
-2.40731e-23 
 8.32972e-24 
-2.60160e-24 
 7.48910e-25 
-2.00273e-25 
 5.00064e-26 
-1.16854e-26 
 2.54311e-27 
-5.04116e-28 
 8.48283e-29 
-8.93068e-30 
-1.19825e-30 
 1.35184e-30 
-6.31532e-31 
 2.43262e-31 
-8.62636e-32 
 2.92402e-32 
-9.60114e-33 
 3.06254e-33 
-9.47476e-34 
 2.82938e-34 
-7.79766e-35 
 2.50363e-38 
 1.26960e-34 
-7.78770e-34 
 4.58037e-33 
-2.69256e-32 
 1.61243e-31 
-9.15009e-31 
 5.36529e-30 
-3.14761e-29 
 1.84693e-28 
-1.08395e-27 
 6.36306e-27 
-3.73617e-26 
 2.19432e-25 
-1.28909e-24 
 7.57495e-24 
-4.45222e-23 
 2.61742e-22 
-1.53941e-21 
 9.06755e-21 
-5.37566e-20 
 3.31521e-19 
-1.65936e-18 
 3.45820e-18 
       00001 
 8.79997e-17 
       00001 
 1.00000e+00 
 1.00000e+00 
 1.00000e+00 
 1.00000e+00 
 1.00000e+00 
       00001 
 1.00000e+00 
       00001 
 1.00000e+00 
       00001 
 1.00000e+00 
 1.00000e+00 
 1.00000e+00 
 1.00000e+00 
 1.00000e+00 
 1.00000e+00 
 1.00000e+00 
-1.85199e-17 
 8.22304e-19 
 1.30828e-19 
-5.83286e-20 
 1.82652e-20 
-1.18994e-21 
-5.41081e-22 
 3.58330e-22 
-1.48769e-22 
 5.21910e-23 
-1.64811e-23 
 4.78802e-24 
-1.28663e-24 
 3.21592e-25 
-7.50957e-26 
 1.63478e-26 
-3.25508e-27 
 5.56042e-28 
-6.25222e-29 
-6.53742e-30 
 8.04792e-30 
-3.79046e-30 
 1.46712e-30 
-5.21639e-31 
 1.77474e-31 
-5.86005e-32 
 1.88226e-32 
-5.86766e-33 
 1.76903e-33 
-5.13482e-34 
 1.39689e-34 
-1.58489e-35 
-1.22053e-34 
 7.70439e-34 
-4.53252e-33 
 2.65853e-32 
-1.53432e-31 
 9.06790e-31 
-5.31659e-30 
 3.11830e-29 
-1.82924e-28 
 1.07325e-27 
-6.29815e-27 
 3.69675e-26 
-2.17036e-25 
 1.27455e-24 
-7.48681e-24 
 4.39899e-23 
-2.58527e-22 
 1.51942e-21 
-8.92502e-21 
 5.22803e-20 
-2.98518e-19 
 1.78808e-18 
-1.55666e-17 
 1.22367e-16 
 1.00000e+00 
 1.00000e+00 
 1.00000e+00 
 1.00000e+00 
 1.00000e+00 
 1.00000e+00 
 1.00000e+00 
 1.00000e+00 
 1.00000e+00 
 1.00000e+00 
 1.00000e+00 
 1.00000e+00 
 1.00000e+00 
 1.00000e+00 
 1.00000e+00 
 1.00000e+00 
 1.00000e+00 
       00001 
 1.00000e+00 
-9.18744e-18 
 4.70755e-18 
-1.11695e-18 
 1.68252e-19 
-2.90438e-21 
-8.60050e-21 
 4.47902e-21 
-1.73586e-21 
 5.93685e-22 
-1.84343e-22 
 5.29396e-23 
-1.39576e-23 
 3.39216e-24 
-7.64802e-25 
 1.59885e-25 
-3.02552e-26 
 4.72155e-27 
-3.60417e-28 
-1.44576e-28 
 1.02355e-28 
-4.42016e-29 
 1.63484e-29 
-5.67082e-30 
 1.90700e-30 
-6.27539e-31 
 2.01688e-31 
-6.29585e-32 
 1.89860e-32 
-5.50710e-33 
 1.52985e-33 
-4.01938e-34 
 7.99793e-35 
 1.04467e-34 
-7.46672e-34 
 4.40048e-33 
-2.57862e-32 
 1.52812e-31 
-8.82997e-31 
 5.17472e-30 
-3.03309e-29 
 1.77794e-28 
-1.04228e-27 
 6.11077e-27 
-3.58311e-26 
 2.10132e-25 
-1.23257e-24 
 7.23178e-24 
-4.24445e-23 
 2.49209e-22 
-1.46365e-21 
 8.59205e-21 
-5.02223e-20 
 2.91823e-19 
-1.47111e-18 
 7.47515e-18 
-2.02571e-17 
 1.00000e+00 
 1.00000e+00 
 1.00000e+00 
       00001 
 1.00000e+00 
 1.00000e+00 
 1.00000e+00 
 1.00000e+00 
 1.00000e+00 
 1.00000e+00 
 1.00000e+00 
 1.00000e+00 
       00001 
       00001 
 1.00000e+00 
 1.00000e+00 
 1.00000e+00 
 1.00000e+00 
 1.00000e+00 
 7.53170e-17 
-2.29229e-17 
 2.62846e-18 
-1.66598e-20 
-1.25051e-19 
 5.60127e-20 
-2.06929e-20 
 7.09075e-21 
-2.17780e-21 
 6.28373e-22 
-1.64174e-22 
 3.90459e-23 
-8.54063e-24 
 1.72556e-24 
-3.13716e-25 
 4.55470e-26 
-2.07653e-27 
-2.14195e-27 
 1.28460e-27 
-5.27656e-28 
 1.89877e-28 
-6.47194e-29 
 2.15987e-29 
-7.10901e-30 
 2.29475e-30 
-7.20012e-31 
 2.17997e-31 
-6.33705e-32 
 1.76109e-32 
-4.65573e-33 
 1.15981e-33 
-2.50542e-34 
-6.57553e-35 
 7.12035e-34 
-4.21163e-33 
 2.45918e-32 
-1.43058e-31 
 8.45481e-31 
-4.95122e-30 
 2.89937e-29 
-1.69782e-28 
 9.94168e-28 
-5.82108e-27 
 3.40815e-26 
-1.99532e-25 
 1.16815e-24 
-6.83934e-24 
 4.00507e-23 
-2.34631e-22 
 1.37587e-21 
-8.09100e-21 
 4.79979e-20 
-2.89303e-19 
 1.11025e-18 
-4.03196e-18 
 2.79627e-17 
 1.00000e+00 
 1.00000e+00 
 1.00000e+00 
 1.00000e+00 
       00001 
 1.00000e+00 
       00001 
 1.00000e+00 
 1.00000e+00 
 1.00000e+00 
 1.00000e+00 
 1.00000e+00 
 1.00000e+00 
 1.00000e+00 
 1.00000e+00 
 1.00000e+00 
 1.00000e+00 
 1.00000e+00 
 1.00000e+00 
 1.00000e+00 
 2.37114e-17 
 1.93657e-18 
-1.68066e-18 
 6.98807e-19 
-2.36695e-19 
 8.58953e-20 
-2.54140e-20 
 7.53189e-21 
-1.95479e-21 
 4.53710e-22 
-9.56527e-23 
 1.85942e-23 
-3.24676e-24 
 4.37640e-25 
-4.95141e-27 
-2.89287e-26 
 1.58201e-26 
-6.28746e-27 
 2.20346e-27 
-7.37561e-28 
 2.44260e-28 
-8.05395e-29 
 2.61711e-29 
-8.27120e-30 
 2.51774e-30 
-7.34277e-31 
 2.04260e-31 
-5.39254e-32 
 1.34117e-32 
-3.10149e-33 
 6.33884e-34 
-3.83488e-37 
-6.77186e-34 
 4.02993e-33 
-2.32472e-32 
 1.34720e-31 
-7.97189e-31 
 4.66229e-30 
-2.72708e-29 
 1.59523e-28 
-9.33044e-28 
 5.45626e-27 
-3.18984e-26 
 1.86419e-25 
-1.08902e-24 
 6.35905e-24 
-3.71163e-23 
 2.16557e-22 
-1.26307e-21 
 7.36191e-21 
-4.29436e-20 
 2.55045e-19 
-1.60498e-18 
 8.27014e-18 
-4.76315e-17 
 1.00000e+00 
 1.00000e+00 
 1.00000e+00 
 1.00000e+00 
 1.00000e+00 
       00001 
 1.00000e+00 
 1.00000e+00 
 1.00000e+00 
 1.00000e+00 
 1.00000e+00 
 1.00000e+00 
 1.00000e+00 
 1.00000e+00 
 1.00000e+00 
 1.00000e+00 
 1.00000e+00 
 1.00000e+00 
 1.00000e+00 
 1.00000e+00 
 2.24739e-17 
-1.65113e-17 
 9.32182e-18 
-2.78099e-18 
 9.86173e-19 
-3.31693e-19 
 9.17513e-20 
-2.35177e-20 
 5.29379e-21 
-1.05889e-21 
 1.95660e-22 
-3.26561e-23 
 4.01394e-24 
 1.43843e-25 
-3.74304e-25 
 1.93217e-25 
-7.50844e-26 
 2.56515e-26 
-8.37558e-27 
 2.74738e-27 
-9.08469e-28 
 2.97851e-28 
-9.50476e-29 
 2.91134e-29 
-8.52287e-30 
 2.37383e-30 
-6.25863e-31 
 1.54959e-31 
-3.55386e-32 
 7.35518e-33 
-1.27573e-33 
 4.32129e-35 
 6.71815e-34 
-3.90023e-33 
 2.27899e-32 
-1.27732e-31 
 7.42931e-31 
-4.32845e-30 
 2.52666e-29 
-1.47631e-28 
 8.62759e-28 
-5.04132e-27 
 2.94491e-26 
-1.71949e-25 
 1.00325e-24 
-5.84793e-24 
 3.40460e-23 
-1.97914e-22 
 1.14815e-21 
-6.63754e-21 
 3.77409e-20 
-2.00927e-19 
 1.06824e-18 
-5.82422e-18 
 3.19285e-17 
 1.00000e+00 
 1.00000e+00 
       00001 
 1.00000e+00 
 1.00000e+00 
 1.00000e+00 
 1.00000e+00 
 1.00000e+00 
 1.00000e+00 
 1.00000e+00 
       00001 
 1.00000e+00 
       00001 
       00001 
       00001 
 1.00000e+00 
 1.00000e+00 
 1.00000e+00 
 1.00000e+00 
 1.00000e+00 
 1.00000e+00 
 6.04236e-01 
-2.82196e-17 
 1.08261e-17 
-4.06494e-18 
 1.17339e-18 
-2.85936e-19 
 6.22885e-20 
-1.14603e-20 
 1.96857e-21 
-3.14556e-22 
 3.40912e-23 
 3.80189e-24 
-4.64702e-24 
 2.33794e-24 
-9.02107e-25 
 3.00425e-25 
-9.48110e-26 
 3.06759e-26 
-1.01910e-26 
 3.37795e-27 
-1.09316e-27 
 3.37006e-28 
-9.90811e-29 
 2.76341e-29 
-7.27590e-30 
 1.79336e-30 
-4.07231e-31 
 8.27048e-32 
-1.39599e-32 
 1.44317e-33 
 2.92171e-34 
-8.14173e-34 
 3.79235e-33 
-2.18999e-32 
 1.20004e-31 
-6.93260e-31 
 3.99178e-30 
-2.31083e-29 
 1.34610e-28 
-7.85923e-28 
 4.59103e-27 
-2.68213e-26 
 1.56690e-25 
-9.15201e-25 
 5.34075e-24 
-3.11233e-23 
 1.81029e-22 
-1.05072e-21 
 6.09021e-21 
-3.59112e-20 
 1.70451e-19 
-8.79164e-19 
 4.19646e-18 
-2.20358e-17 
 1.00000e+00 
 1.00000e+00 
 1.00000e+00 
 1.00000e+00 
 1.00000e+00 
 1.00000e+00 
 1.00000e+00 
 1.00000e+00 
 1.00000e+00 
 1.00000e+00 
 1.00000e+00 
 1.00000e+00 
       00001 
 1.00000e+00 
 1.00000e+00 
 1.00000e+00 
 1.00000e+00 
 1.00000e+00 
 1.00000e+00 
 1.00000e+00 
 4.27621e-17 
 1.00000e+00 
 1.20513e-16 
-3.92445e-17 
 1.48553e-17 
-3.81249e-18 
 7.50420e-19 
-1.18408e-19 
 1.79676e-20 
-2.86744e-21 
 2.60430e-22 
 6.89021e-23 
-5.45658e-23 
 2.78478e-23 
-1.09274e-23 
 3.57570e-24 
-1.06758e-24 
 3.38175e-25 
-1.13815e-25 
 3.80150e-26 
-1.26163e-26 
 3.90452e-27 
-1.15391e-27 
 3.22286e-28 
-8.47133e-29 
 2.07942e-29 
-4.67223e-30 
 9.28746e-31 
-1.49303e-31 
 1.26096e-32 
 3.46428e-33 
-2.55762e-33 
 1.54961e-33 
-3.77033e-33 
 2.04052e-32 
-1.13895e-31 
 6.60426e-31 
-3.81093e-30 
 2.12179e-29 
-1.21090e-28 
 7.04337e-28 
-4.11035e-27 
 2.40148e-26 
-1.40406e-25 
 8.21856e-25 
-4.82024e-24 
 2.82566e-23 
-1.65525e-22 
 9.67784e-22 
-5.64480e-21 
 3.21806e-20 
-1.81695e-19 
 1.03908e-18 
-5.46128e-18 
 1.50642e-17 
 1.00000e+00 
 1.00000e+00 
 1.00000e+00 
 1.00000e+00 
 1.00000e+00 
 1.00000e+00 
 1.00000e+00 
       00001 
 1.00000e+00 
 1.00000e+00 
 1.00000e+00 
       00001 
 1.00000e+00 
 1.00000e+00 
 1.00000e+00 
 1.00000e+00 
       00001 
 1.00000e+00 
 1.00000e+00 
 1.00000e+00 
-2.18835e-16 
 1.00000e+00 
 1.00000e+00 
 1.98818e-16 
-5.01266e-17 
 8.81222e-18 
-1.08954e-18 
 1.21019e-19 
-2.51088e-20 
 2.12790e-21 
 1.24445e-21 
-5.75814e-22 
 3.23843e-22 
-1.32682e-22 
 4.41121e-23 
-1.19900e-23 
 3.59493e-24 
-1.28680e-24 
 4.16851e-25 
-1.47544e-25 
 4.51842e-26 
-1.34663e-26 
 3.76805e-27 
-9.87120e-28 
 2.41688e-28 
-5.36902e-29 
 1.04185e-29 
-1.57955e-30 
 9.36985e-32 
 5.57869e-32 
-3.27997e-32 
 1.22715e-32 
-4.28752e-33 
 4.17368e-33 
-1.87261e-32 
 1.07259e-31 
-6.38976e-31 
 3.75875e-30 
-2.30079e-29 
 1.09708e-28 
-6.18722e-28 
 3.61392e-27 
-2.10156e-26 
 1.22813e-25 
-7.17577e-25 
 4.20485e-24 
-2.49625e-23 
 1.47749e-22 
-8.78268e-22 
 5.20034e-21 
-3.13365e-20 
 1.94966e-19 
-1.26769e-18 
 8.95264e-18 
-7.02284e-17 
 1.00000e+00 
 1.00000e+00 
       00001 
 1.00000e+00 
 1.00000e+00 
 1.00000e+00 
 1.00000e+00 
 1.00000e+00 
 1.00000e+00 
 1.00000e+00 
 1.00000e+00 
 1.00000e+00 
 1.00000e+00 
       00001 
 1.00000e+00 
 1.00000e+00 
 1.00000e+00 
 1.00000e+00 
 1.00000e+00 
 1.00000e+00 
 1.12370e-16 
-2.20615e-17 
 1.00000e+00 
 1.00000e+00 
 1.09560e-16 
-7.82575e-18 
-3.95685e-19 
-2.69520e-19 
 1.94481e-20 
 1.03175e-20 
-7.65232e-21 
 4.32142e-21 
-1.70765e-21 
 5.08016e-22 
-1.26573e-22 
 3.80970e-23 
-1.34245e-23 
 4.77303e-24 
-1.62475e-24 
 5.19488e-25 
-1.56003e-25 
 4.38903e-26 
-1.14847e-26 
 2.81881e-27 
-6.18398e-28 
 1.16735e-28 
-1.64724e-29 
 4.44707e-31 
 8.38473e-31 
-4.31393e-31 
 1.53803e-31 
-4.63435e-32 
 1.28143e-32 
-5.76158e-33 
 1.70014e-32 
-9.52141e-32 
 5.47811e-31 
-3.11474e-30 
 1.68249e-29 
-9.38814e-29 
 5.39741e-28 
-3.11624e-27 
 1.80140e-26 
-1.04238e-25 
 6.04529e-25 
-3.52144e-24 
 2.05672e-23 
-1.20740e-22 
 7.14824e-22 
-4.31132e-21 
 2.67663e-20 
-1.72507e-19 
 1.15948e-18 
-7.90015e-18 
 5.39655e-17 
 1.00000e+00 
       00001 
 1.00000e+00 
 1.00000e+00 
       00001 
       00001 
 1.00000e+00 
 1.00000e+00 
       00001 
 1.00000e+00 
 1.00000e+00 
       00001 
       00001 
       00001 
 1.00000e+00 
 1.00000e+00 
 1.00000e+00 
 1.00000e+00 
 1.00000e+00 
 1.00000e+00 
-2.55575e-16 
 6.87032e-17 
-2.86189e-16 
 1.00000e+00 
 5.02562e-01 
-5.10681e-17 
-6.61997e-18 
 2.42325e-19 
 1.62264e-19 
-6.50201e-20 
 4.82983e-20 
-2.24337e-20 
 6.39404e-21 
-1.57751e-21 
 3.73607e-22 
-1.43956e-22 
 5.35154e-23 
-1.86924e-23 
 6.06071e-24 
-1.82602e-24 
 5.14309e-25 
-1.35305e-25 
 3.31497e-26 
-7.14070e-27 
 1.30542e-27 
-1.68339e-28 
-2.76061e-30 
 1.20563e-29 
-5.61420e-30 
 1.93035e-30 
-5.68857e-31 
 1.49280e-31 
-3.53356e-32 
 9.61907e-33 
-1.57584e-32 
 8.40665e-32 
-4.80261e-31 
 2.73024e-30 
-1.53623e-29 
 8.29357e-29 
-4.73168e-28 
 2.70216e-27 
-1.54074e-26 
 8.77095e-26 
-4.98538e-25 
 2.82785e-24 
-1.60130e-23 
 9.06251e-23 
-5.13951e-22 
 2.92781e-21 
-1.67696e-20 
 9.65153e-20 
-5.58940e-19 
 3.42280e-18 
-1.41484e-17 
 1.00000e+00 
 1.00000e+00 
 1.00000e+00 
 1.00000e+00 
 1.00000e+00 
 1.00000e+00 
 1.00000e+00 
 1.00000e+00 
 1.00000e+00 
 1.00000e+00 
 1.00000e+00 
 1.00000e+00 
 1.00000e+00 
 1.00000e+00 
 1.00000e+00 
 1.00000e+00 
 1.00000e+00 
 1.00000e+00 
 1.00000e+00 
 1.00000e+00 
 1.00000e+00 
-4.38470e-17 
-6.11981e-18 
-1.49060e-17 
 1.00000e+00 
 1.00000e+00 
 2.60225e-18 
 4.34210e-18 
-2.11146e-19 
 4.31705e-19 
-3.16043e-19 
 8.37121e-20 
-1.72889e-20 
 4.47610e-21 
-1.54351e-21 
 6.00433e-22 
-2.15938e-22 
 7.11083e-23 
-2.14850e-23 
 6.04289e-24 
-1.58788e-24 
 3.83981e-25 
-8.25134e-26 
 1.45528e-26 
-1.66967e-27 
-1.30695e-28 
 1.68443e-28 
-7.24064e-29 
 2.40937e-29 
-6.96707e-30 
 1.80094e-30 
-4.14437e-31 
 8.23483e-32 
-1.47295e-32 
 1.40001e-32 
-7.61549e-32 
 4.40272e-31 
-2.55643e-30 
 1.56061e-29 
-7.63444e-29 
 4.32516e-28 
-2.44754e-27 
 1.37855e-26 
-7.71829e-26 
 4.28806e-25 
-2.35840e-24 
 1.27966e-23 
-6.81093e-23 
 3.51689e-22 
-1.72055e-21 
 7.51518e-21 
-2.35597e-20 
-3.48884e-20 
 1.73372e-18 
-9.99226e-19 
 1.00000e+00 
 1.00000e+00 
 1.00000e+00 
 1.00000e+00 
 1.00000e+00 
 1.00000e+00 
 1.00000e+00 
 1.00000e+00 
 1.00000e+00 
 1.00000e+00 
 1.00000e+00 
 1.00000e+00 
 1.00000e+00 
 1.00000e+00 
 1.00000e+00 
 1.00000e+00 
 1.00000e+00 
 1.00000e+00 
 1.00000e+00 
 1.00000e+00 
 1.00000e+00 
-4.83389e-17 
-6.73463e-20 
 1.24677e-17 
 9.48882e-18 
 1.00000e+00 
 1.49038e-16 
 7.53210e-18 
-6.70407e-19 
-5.09015e-18 
 1.18287e-18 
-1.78432e-19 
 3.79868e-20 
-1.65082e-20 
 6.74007e-21 
-2.49887e-21 
 8.40353e-22 
-2.53916e-22 
 7.10411e-23 
-1.86397e-23 
 4.50778e-24 
-9.61659e-25 
 1.61511e-25 
-1.58105e-26 
-2.75776e-27 
 2.30836e-27 
-9.26782e-28 
 2.99031e-28 
-8.49758e-29 
 2.16791e-29 
-4.91088e-30 
 9.45088e-31 
-1.33867e-31 
 5.02549e-33 
-5.47837e-33 
 6.90494e-32 
-4.16065e-31 
 2.38643e-30 
-1.29953e-29 
 7.46796e-29 
-4.24643e-28 
 2.40728e-27 
-1.35711e-26 
 7.59562e-26 
-4.21091e-25 
 2.30462e-24 
-1.23869e-23 
 6.48116e-23 
-3.24864e-22 
 1.50908e-21 
-5.95960e-21 
 1.34540e-20 
 8.71882e-20 
-2.03282e-18 
 6.38761e-17 
 1.00000e+00 
 1.00000e+00 
 1.00000e+00 
       00001 
       00001 
 1.00000e+00 
 1.00000e+00 
 1.00000e+00 
 1.00000e+00 
       00001 
       00001 
 1.00000e+00 
 1.00000e+00 
 1.00000e+00 
 1.00000e+00 
 1.00000e+00 
 1.00000e+00 
 1.00000e+00 
 1.00000e+00 
 1.00000e+00 
 1.00000e+00 
-3.17207e-17 
-9.52928e-19 
 1.70197e-18 
-2.99653e-17 
 8.61614e-01 
 1.00000e+00 
 1.00000e+00 
-8.98958e-17 
 1.96120e-17 
-5.29295e-19 
 2.40832e-19 
-1.55652e-19 
 7.62168e-20 
-2.87353e-20 
 1.00458e-20 
-3.02046e-21 
 8.34201e-22 
-2.18346e-22 
 5.30279e-23 
-1.12528e-23 
 1.87908e-24 
-1.38561e-25 
-4.77102e-26 
 3.12430e-26 
-1.17866e-26 
 3.68843e-27 
-1.03164e-27 
 2.60289e-28 
-5.81276e-29 
 1.08673e-29 
-1.41066e-30 
-2.78316e-32 
 1.00811e-31 
-3.43312e-32 
-5.58330e-32 
 4.06382e-31 
-2.35713e-30 
 1.37174e-29 
-7.74496e-29 
 4.46327e-28 
-2.56706e-27 
 1.47187e-26 
-8.40586e-26 
 4.77657e-25 
-2.69683e-24 
 1.50998e-23 
-8.36439e-23 
 4.57132e-22 
-2.45848e-21 
 1.30031e-20 
-6.81672e-20 
 3.70085e-19 
-2.56907e-18 
 7.00010e-17 
       00001 
       00001 
 1.00000e+00 
 1.00000e+00 
 1.00000e+00 
 1.00000e+00 
 1.00000e+00 
 1.00000e+00 
       00001 
 1.00000e+00 
 1.00000e+00 
 1.00000e+00 
 1.00000e+00 
 1.00000e+00 
       00001 
 1.00000e+00 
 1.00000e+00 
 1.00000e+00 
 1.00000e+00 
 1.00000e+00 
 1.00000e+00 
-4.44749e-17 
 5.24952e-18 
-1.41964e-18 
-6.75609e-18 
 3.76305e-17 
-2.23406e-16 
 1.00000e+00 
 1.00000e+00 
 2.40119e-17 
 2.16225e-19 
-1.34916e-18 
 8.81131e-19 
-3.41822e-19 
 1.22778e-19 
-3.63290e-20 
 9.75548e-21 
-2.53951e-21 
 6.26265e-22 
-1.32542e-22 
 2.14069e-23 
-1.29147e-24 
-7.50922e-25 
 4.20433e-25 
-1.49108e-25 
 4.51492e-26 
-1.24560e-26 
 3.11728e-27 
-6.87940e-28 
 1.24757e-28 
-1.45601e-29 
-1.11439e-30 
 1.44680e-30 
-6.08844e-31 
 1.83283e-31 
 1.90594e-32 
-4.04746e-31 
 2.43661e-30 
-1.42898e-29 
 8.23547e-29 
-4.82502e-28 
 2.82955e-27 
-1.65957e-26 
 9.73456e-26 
-5.71026e-25 
 3.35048e-24 
-1.96669e-23 
 1.15539e-22 
-6.79947e-22 
 4.01640e-21 
-2.39015e-20 
 1.44135e-19 
-8.84654e-19 
 5.36821e-18 
 1.24004e-17 
 1.00000e+00 
       00001 
 1.00000e+00 
 1.00000e+00 
 1.00000e+00 
 1.00000e+00 
 1.00000e+00 
 1.00000e+00 
 1.00000e+00 
       00001 
       00001 
 1.00000e+00 
       00001 
 1.00000e+00 
 1.00000e+00 
 1.00000e+00 
 1.00000e+00 
 1.00000e+00 
 1.00000e+00 
 1.00000e+00 
 1.00000e+00 
 5.96240e-17 
-1.17689e-17 
 8.37703e-19 
 3.76183e-18 
-2.29319e-17 
 1.53105e-16 
 5.17001e-02 
 1.00000e+00 
-7.45300e-18 
-7.53788e-18 
 1.15226e-17 
-3.83205e-18 
 1.47465e-18 
-4.45012e-19 
 1.13182e-19 
-2.89221e-20 
 7.46928e-21 
-1.57501e-21 
 2.48066e-22 
-9.03807e-24 
-1.18299e-23 
 5.67851e-24 
-1.87948e-24 
 5.46490e-25 
-1.49408e-25 
 3.72380e-26 
-8.15642e-27 
 1.43300e-27 
-1.45488e-28 
-2.31894e-29 
 1.99861e-29 
-7.92863e-30 
 2.47462e-30 
-6.45818e-31 
 7.24601e-32 
 3.97759e-31 
-2.47276e-30 
 1.46546e-29 
-8.59442e-29 
 5.10862e-28 
-3.04143e-27 
 1.81781e-26 
-1.08868e-25 
 6.54024e-25 
-3.93997e-24 
 2.38325e-23 
-1.44751e-22 
 8.83002e-22 
-5.40749e-21 
 3.32209e-20 
-2.04459e-19 
 1.25711e-18 
-7.64955e-18 
 8.12759e-17 
 1.00000e+00 
 1.00000e+00 
       00001 
 1.00000e+00 
 1.00000e+00 
 1.00000e+00 
 1.00000e+00 
 1.00000e+00 
 1.00000e+00 
 1.00000e+00 
 1.00000e+00 
 1.00000e+00 
       00001 
 1.00000e+00 
 1.00000e+00 
 1.00000e+00 
       00001 
 1.00000e+00 
 1.00000e+00 
       00001 
 1.00000e+00 
-9.52584e-17 
 7.78186e-18 
-4.73346e-20 
-1.76765e-18 
 7.93183e-18 
-5.30595e-18 
-2.46559e-17 
 4.79531e-17 
       00001 
 2.06237e-16 
-3.59054e-17 
 1.80498e-17 
-5.84453e-18 
 1.30982e-18 
-3.07023e-19 
 9.21684e-20 
-1.87779e-20 
 2.96067e-21 
-4.18913e-23 
-1.79465e-22 
 7.90148e-23 
-2.37012e-23 
 6.47659e-24 
-1.78008e-24 
 4.43420e-25 
-9.72000e-26 
 1.65371e-26 
-1.38510e-27 
-4.05055e-28 
 2.72946e-28 
-1.02123e-28 
 3.10659e-29 
-8.20794e-30 
 1.81102e-30 
-2.02401e-31 
-4.23473e-31 
 2.42694e-30 
-1.42875e-29 
 8.50499e-29 
-5.09516e-28 
 3.06839e-27 
-1.83986e-26 
 1.11934e-25 
-6.79330e-25 
 4.15453e-24 
-2.54188e-23 
 1.56712e-22 
-9.69824e-22 
 6.03136e-21 
-3.75551e-20 
 2.33357e-19 
-1.44311e-18 
 9.08972e-18 
-3.02781e-17 
 1.00000e+00 
 1.00000e+00 
 1.00000e+00 
 1.00000e+00 
 1.00000e+00 
 1.00000e+00 
 1.00000e+00 
 1.00000e+00 
       00001 
 1.00000e+00 
 1.00000e+00 
 1.00000e+00 
 1.00000e+00 
 1.00000e+00 
 1.00000e+00 
 1.00000e+00 
 1.00000e+00 
       00001 
       00001 
 1.00000e+00 
 1.00000e+00 
-1.29973e-17 
 1.40800e-17 
-2.02407e-18 
 7.12187e-19 
-8.67318e-19 
-2.91989e-19 
 2.80914e-18 
 6.34345e-18 
-5.79690e-17 
 1.00000e+00 
 2.14035e-16 
-7.49131e-17 
 1.58838e-17 
-2.71410e-18 
 1.09321e-18 
-2.87262e-19 
 4.45217e-20 
-9.33109e-22 
-1.85842e-21 
 8.22146e-22 
-2.71100e-22 
 7.27088e-23 
-2.12231e-23 
 5.24304e-24 
-1.17123e-24 
 1.93130e-25 
-1.21504e-26 
-6.54675e-27 
 3.70608e-27 
-1.30771e-27 
 3.85760e-28 
-1.01114e-28 
 2.28774e-29 
-3.67613e-30 
-1.80596e-31 
 8.15790e-31 
-2.40017e-30 
 1.29183e-29 
-7.65423e-29 
 4.59936e-28 
-2.77046e-27 
 1.67675e-26 
-1.01742e-25 
 6.19566e-25 
-3.78493e-24 
 2.32284e-23 
-1.43242e-22 
 8.88411e-22 
-5.54652e-21 
 3.48946e-20 
-2.21064e-19 
 1.39627e-18 
-8.37894e-18 
 7.50834e-17 
       00001 
       00001 
 1.00000e+00 
       00001 
 1.00000e+00 
       00001 
 1.00000e+00 
 1.00000e+00 
 1.00000e+00 
 1.00000e+00 
 1.00000e+00 
 1.00000e+00 
 1.00000e+00 
       00001 
 1.00000e+00 
       00001 
       00001 
 1.00000e+00 
 1.00000e+00 
 1.00000e+00 
 1.00000e+00 
 1.00000e+00 
-2.88981e-17 
 1.98769e-18 
-3.24895e-19 
 1.01196e-19 
 2.00373e-20 
       00000 
-1.22000e-18 
-3.01231e-17 
 5.21431e-01 
 1.00000e+00 
 2.32141e-16 
-6.23643e-18 
 1.38301e-17 
-4.08385e-18 
 5.93375e-19 
 1.28770e-20 
-3.00883e-20 
 1.08871e-20 
-3.26026e-21 
 9.57408e-22 
-2.64802e-22 
 6.03278e-23 
-1.44495e-23 
 2.30957e-24 
-8.94082e-26 
-1.01874e-25 
 5.02758e-26 
-1.66744e-26 
 4.73890e-27 
-1.22691e-27 
 2.82664e-28 
-4.92088e-29 
 6.14106e-31 
 4.93130e-30 
-3.32125e-30 
 3.03532e-30 
-1.07798e-29 
 6.18592e-29 
-3.69074e-28 
 2.21171e-27 
-1.32806e-26 
 7.98936e-26 
-4.81446e-25 
 2.90658e-24 
-1.75804e-23 
 1.06569e-22 
-6.48104e-22 
 3.96549e-21 
-2.45696e-20 
 1.56224e-19 
-1.04307e-18 
 7.44397e-18 
-1.58195e-17 
 1.00000e+00 
 1.00000e+00 
 1.00000e+00 
 1.00000e+00 
 1.00000e+00 
 1.00000e+00 
 1.00000e+00 
 1.00000e+00 
 1.00000e+00 