<?xml version="1.0" encoding="utf-8"?>
<VTKFile byte_order="LittleEndian" type="UnstructuredGrid" version="0.1">
   <UnstructuredGrid>
      <Piece NumberOfCells="9800" NumberOfPoints="10011">
         <Points>
            <DataArray Name="Points" NumberOfComponents="3" format="ascii" type="Float32">
0.0000 1.0000 0.0000
0.0100 1.0000 0.0000
0.0000 0.9900 0.0000
0.0100 0.9900 0.0000
0.0200 1.0000 0.0000
0.0000 0.9800 0.0000
0.0100 0.9800 0.0000
0.0200 0.9900 0.0000
0.0200 0.9800 0.0000
0.0300 1.0000 0.0000
0.0000 0.9700 0.0000
0.0300 0.9900 0.0000
0.0100 0.9700 0.0000
0.0200 0.9700 0.0000
0.0300 0.9800 0.0000
0.0400 1.0000 0.0000
0.0000 0.9600 0.0000
0.0100 0.9600 0.0000
0.0400 0.9900 0.0000
0.0300 0.9700 0.0000
0.0200 0.9600 0.0000
0.0400 0.9800 0.0000
0.0300 0.9600 0.0000
0.0400 0.9700 0.0000
0.0500 1.0000 0.0000
0.0000 0.9500 0.0000
0.0500 0.9900 0.0000
0.0100 0.9500 0.0000
0.0200 0.9500 0.0000
0.0500 0.9800 0.0000
0.0400 0.9600 0.0000
0.0500 0.9700 0.0000
0.0300 0.9500 0.0000
0.0600 1.0000 0.0000
0.0000 0.9400 0.0000
0.0600 0.9900 0.0000
0.0100 0.9400 0.0000
0.0600 0.9800 0.0000
0.0200 0.9400 0.0000
0.0500 0.9600 0.0000
0.0400 0.9500 0.0000
0.0600 0.9700 0.0000
0.0300 0.9400 0.0000
0.0700 1.0000 0.0000
0.0000 0.9300 0.0000
0.0100 0.9300 0.0000
0.0700 0.9900 0.0000
0.0500 0.9500 0.0000
0.0600 0.9600 0.0000
0.0400 0.9400 0.0000
0.0700 0.9800 0.0000
0.0200 0.9300 0.0000
0.0700 0.9700 0.0000
0.0300 0.9300 0.0000
0.0600 0.9500 0.0000
0.0500 0.9400 0.0000
0.0800 1.0000 0.0000
0.0000 0.9200 0.0000
0.0400 0.9300 0.0000
0.0100 0.9200 0.0000
0.0700 0.9600 0.0000
0.0800 0.9900 0.0000
0.0200 0.9200 0.0000
0.0800 0.9800 0.0000
0.0600 0.9400 0.0000
0.0300 0.9200 0.0000
0.0800 0.9700 0.0000
0.0500 0.9300 0.0000
0.0700 0.9500 0.0000
0.0400 0.9200 0.0000
0.0800 0.9600 0.0000
0.0900 1.0000 0.0000
0.0000 0.9100 0.0000
0.0100 0.9100 0.0000
0.0900 0.9900 0.0000
0.0600 0.9300 0.0000
0.0200 0.9100 0.0000
0.0700 0.9400 0.0000
0.0900 0.9800 0.0000
0.0500 0.9200 0.0000
0.0800 0.9500 0.0000
0.0900 0.9700 0.0000
0.0300 0.9100 0.0000
0.0400 0.9100 0.0000
0.0900 0.9600 0.0000
0.0700 0.9300 0.0000
0.0600 0.9200 0.0000
0.0000 0.9000 0.0000
0.1000 1.0000 0.0000
0.0800 0.9400 0.0000
0.0100 0.9000 0.0000
0.1000 0.9900 0.0000
0.0200 0.9000 0.0000
0.1000 0.9800 0.0000
0.0500 0.9100 0.0000
0.0900 0.9500 0.0000
0.0300 0.9000 0.0000
0.1000 0.9700 0.0000
0.0700 0.9200 0.0000
0.0800 0.9300 0.0000
0.0400 0.9000 0.0000
0.1000 0.9600 0.0000
0.0600 0.9100 0.0000
0.0900 0.9400 0.0000
0.1100 1.0000 0.0000
0.0000 0.8900 0.0000
0.0100 0.8900 0.0000
0.1100 0.9900 0.0000
0.0200 0.8900 0.0000
0.0500 0.9000 0.0000
0.1100 0.9800 0.0000
0.1000 0.9500 0.0000
0.0800 0.9200 0.0000
0.0700 0.9100 0.0000
0.0300 0.8900 0.0000
0.1100 0.9700 0.0000
0.0900 0.9300 0.0000
0.0600 0.9000 0.0000
0.1000 0.9400 0.0000
0.0400 0.8900 0.0000
0.1100 0.9600 0.0000
0.1200 1.0000 0.0000
0.0000 0.8800 0.0000
0.0100 0.8800 0.0000
0.0900 0.9200 0.0000
0.0800 0.9100 0.0000
0.1200 0.9900 0.0000
0.0500 0.8900 0.0000
0.1100 0.9500 0.0000
0.0200 0.8800 0.0000
0.1200 0.9800 0.0000
0.0700 0.9000 0.0000
0.1000 0.9300 0.0000
0.0300 0.8800 0.0000
0.1200 0.9700 0.0000
0.0600 0.8900 0.0000
0.1100 0.9400 0.0000
0.0400 0.8800 0.0000
0.1200 0.9600 0.0000
0.0900 0.9100 0.0000
0.0800 0.9000 0.0000
0.1000 0.9200 0.0000
0.0500 0.8800 0.0000
0.1300 1.0000 0.0000
0.0000 0.8700 0.0000
0.1200 0.9500 0.0000
0.0700 0.8900 0.0000
0.0100 0.8700 0.0000
0.1100 0.9300 0.0000
0.1300 0.9900 0.0000
0.0200 0.8700 0.0000
0.1300 0.9800 0.0000
0.0300 0.8700 0.0000
0.1300 0.9700 0.0000
0.0600 0.8800 0.0000
0.1200 0.9400 0.0000
0.0900 0.9000 0.0000
0.1000 0.9100 0.0000
0.0400 0.8700 0.0000
0.1100 0.9200 0.0000
0.0800 0.8900 0.0000
0.1300 0.9600 0.0000
0.0700 0.8800 0.0000
0.1200 0.9300 0.0000
0.0500 0.8700 0.0000
0.1300 0.9500 0.0000
0.1400 1.0000 0.0000
0.0000 0.8600 0.0000
0.0100 0.8600 0.0000
0.1400 0.9900 0.0000
0.0200 0.8600 0.0000
0.1000 0.9000 0.0000
0.1400 0.9800 0.0000
0.1100 0.9100 0.0000
0.0900 0.8900 0.0000
0.0600 0.8700 0.0000
0.0300 0.8600 0.0000
0.1400 0.9700 0.0000
0.1300 0.9400 0.0000
0.0800 0.8800 0.0000
0.1200 0.9200 0.0000
0.0400 0.8600 0.0000
0.1400 0.9600 0.0000
0.0700 0.8700 0.0000
0.1300 0.9300 0.0000
0.1100 0.9000 0.0000
0.0500 0.8600 0.0000
0.1000 0.8900 0.0000
0.1400 0.9500 0.0000
0.0900 0.8800 0.0000
0.1200 0.9100 0.0000
0.1500 1.0000 0.0000
0.0000 0.8500 0.0000
0.0100 0.8500 0.0000
0.1500 0.9900 0.0000
0.0200 0.8500 0.0000
0.1500 0.9800 0.0000
0.0600 0.8600 0.0000
0.1400 0.9400 0.0000
0.1300 0.9200 0.0000
0.0800 0.8700 0.0000
0.0300 0.8500 0.0000
0.1500 0.9700 0.0000
0.0400 0.8500 0.0000
0.1500 0.9600 0.0000
0.1100 0.8900 0.0000
0.1200 0.9000 0.0000
0.1000 0.8800 0.0000
0.0700 0.8600 0.0000
0.1400 0.9300 0.0000
0.0500 0.8500 0.0000
0.1300 0.9100 0.0000
0.0900 0.8700 0.0000
0.1500 0.9500 0.0000
0.1600 1.0000 0.0000
0.0000 0.8400 0.0000
0.0100 0.8400 0.0000
0.1600 0.9900 0.0000
0.0200 0.8400 0.0000
0.1400 0.9200 0.0000
0.0800 0.8600 0.0000
0.1600 0.9800 0.0000
0.0600 0.8500 0.0000
0.1500 0.9400 0.0000
0.0300 0.8400 0.0000
0.1100 0.8800 0.0000
0.1200 0.8900 0.0000
0.1600 0.9700 0.0000
0.1000 0.8700 0.0000
0.1300 0.9000 0.0000
0.0400 0.8400 0.0000
0.1600 0.9600 0.0000
0.0700 0.8500 0.0000
0.1500 0.9300 0.0000
0.0900 0.8600 0.0000
0.1400 0.9100 0.0000
0.0500 0.8400 0.0000
0.1600 0.9500 0.0000
0.1200 0.8800 0.0000
0.0800 0.8500 0.0000
0.1500 0.9200 0.0000
0.1700 1.0000 0.0000
0.0000 0.8300 0.0000
0.1100 0.8700 0.0000
0.1300 0.8900 0.0000
0.1700 0.9900 0.0000
0.0100 0.8300 0.0000
0.0600 0.8400 0.0000
0.1600 0.9400 0.0000
0.1700 0.9800 0.0000
0.0200 0.8300 0.0000
0.1000 0.8600 0.0000
0.1400 0.9000 0.0000
0.0300 0.8300 0.0000
0.1700 0.9700 0.0000
0.0700 0.8400 0.0000
0.0400 0.8300 0.0000
0.1600 0.9300 0.0000
0.1700 0.9600 0.0000
0.1500 0.9100 0.0000
0.0900 0.8500 0.0000
0.1300 0.8800 0.0000
0.1200 0.8700 0.0000
0.0500 0.8300 0.0000
0.1700 0.9500 0.0000
0.1100 0.8600 0.0000
0.1400 0.8900 0.0000
0.0800 0.8400 0.0000
0.1600 0.9200 0.0000
0.1800 1.0000 0.0000
0.0000 0.8200 0.0000
0.1800 0.9900 0.0000
0.1500 0.9000 0.0000
0.1000 0.8500 0.0000
0.0600 0.8300 0.0000
0.1700 0.9400 0.0000
0.0100 0.8200 0.0000
0.1800 0.9800 0.0000
0.0200 0.8200 0.0000
0.1800 0.9700 0.0000
0.0300 0.8200 0.0000
0.0900 0.8400 0.0000
0.1600 0.9100 0.0000
0.1300 0.8700 0.0000
0.0700 0.8300 0.0000
0.1700 0.9300 0.0000
0.1800 0.9600 0.0000
0.1400 0.8800 0.0000
0.1200 0.8600 0.0000
0.0400 0.8200 0.0000
0.1100 0.8500 0.0000
0.1500 0.8900 0.0000
0.1800 0.9500 0.0000
0.0500 0.8200 0.0000
0.0800 0.8300 0.0000
0.1700 0.9200 0.0000
0.1000 0.8400 0.0000
0.1600 0.9000 0.0000
0.1800 0.9400 0.0000
0.0600 0.8200 0.0000
0.0000 0.8100 0.0000
0.1900 1.0000 0.0000
0.0100 0.8100 0.0000
0.1900 0.9900 0.0000
0.0200 0.8100 0.0000
0.1400 0.8700 0.0000
0.1300 0.8600 0.0000
0.1900 0.9800 0.0000
0.1200 0.8500 0.0000
0.1500 0.8800 0.0000
0.0300 0.8100 0.0000
0.1900 0.9700 0.0000
0.0900 0.8300 0.0000
0.1700 0.9100 0.0000
0.1800 0.9300 0.0000
0.0700 0.8200 0.0000
0.0400 0.8100 0.0000
0.1100 0.8400 0.0000
0.1600 0.8900 0.0000
0.1900 0.9600 0.0000
0.0500 0.8100 0.0000
0.1900 0.9500 0.0000
0.1800 0.9200 0.0000
0.0800 0.8200 0.0000
0.1700 0.9000 0.0000
0.1000 0.8300 0.0000
0.1400 0.8600 0.0000
0.1500 0.8700 0.0000
0.1300 0.8500 0.0000
0.0600 0.8100 0.0000
0.1900 0.9400 0.0000
0.1200 0.8400 0.0000
0.1600 0.8800 0.0000
0.2000 1.0000 0.0000
0.0000 0.8000 0.0000
0.2000 0.9900 0.0000
0.0100 0.8000 0.0000
0.2000 0.9800 0.0000
0.0200 0.8000 0.0000
0.1800 0.9100 0.0000
0.0900 0.8200 0.0000
0.2000 0.9700 0.0000
0.0300 0.8000 0.0000
0.0700 0.8100 0.0000
0.1100 0.8300 0.0000
0.1900 0.9300 0.0000
0.1700 0.8900 0.0000
0.2000 0.9600 0.0000
0.0400 0.8000 0.0000
0.1500 0.8600 0.0000
0.1400 0.8500 0.0000
0.1800 0.9000 0.0000
0.1000 0.8200 0.0000
0.0800 0.8100 0.0000
0.2000 0.9500 0.0000
0.1300 0.8400 0.0000
0.0500 0.8000 0.0000
0.1600 0.8700 0.0000
0.1900 0.9200 0.0000
0.1700 0.8800 0.0000
0.1200 0.8300 0.0000
0.0600 0.8000 0.0000
0.2000 0.9400 0.0000
0.2100 1.0000 0.0000
0.0000 0.7900 0.0000
0.0900 0.8100 0.0000
0.0100 0.7900 0.0000
0.2100 0.9900 0.0000
0.1900 0.9100 0.0000
0.2100 0.9800 0.0000
0.0200 0.7900 0.0000
0.1800 0.8900 0.0000
0.1100 0.8200 0.0000
0.0700 0.8000 0.0000
0.2000 0.9300 0.0000
0.2100 0.9700 0.0000
0.0300 0.7900 0.0000
0.1500 0.8500 0.0000
0.1400 0.8400 0.0000
0.1600 0.8600 0.0000
0.0400 0.7900 0.0000
0.2100 0.9600 0.0000
0.1700 0.8700 0.0000
0.1300 0.8300 0.0000
0.1000 0.8100 0.0000
0.1900 0.9000 0.0000
0.2000 0.9200 0.0000
0.0800 0.8000 0.0000
0.0500 0.7900 0.0000
0.2100 0.9500 0.0000
0.1800 0.8800 0.0000
0.1200 0.8200 0.0000
0.0600 0.7900 0.0000
0.2100 0.9400 0.0000
0.1500 0.8400 0.0000
0.2000 0.9100 0.0000
0.1600 0.8500 0.0000
0.0900 0.8000 0.0000
0.1100 0.8100 0.0000
0.1900 0.8900 0.0000
0.2200 1.0000 0.0000
0.0000 0.7800 0.0000
0.2200 0.9900 0.0000
0.0100 0.7800 0.0000
0.1400 0.8300 0.0000
0.1700 0.8600 0.0000
0.2200 0.9800 0.0000
0.0200 0.7800 0.0000
0.0700 0.7900 0.0000
0.2100 0.9300 0.0000
0.2200 0.9700 0.0000
0.1800 0.8700 0.0000
0.0300 0.7800 0.0000
0.1300 0.8200 0.0000
0.0400 0.7800 0.0000
0.2200 0.9600 0.0000
0.2000 0.9000 0.0000
0.1000 0.8000 0.0000
0.1200 0.8100 0.0000
0.2100 0.9200 0.0000
0.0800 0.7900 0.0000
0.1900 0.8800 0.0000
0.0500 0.7800 0.0000
0.2200 0.9500 0.0000
0.1600 0.8400 0.0000
0.1500 0.8300 0.0000
0.1700 0.8500 0.0000
0.2200 0.9400 0.0000
0.1800 0.8600 0.0000
0.0600 0.7800 0.0000
0.1400 0.8200 0.0000
0.1100 0.8000 0.0000
0.2000 0.8900 0.0000
0.0900 0.7900 0.0000
0.2100 0.9100 0.0000
0.2300 1.0000 0.0000
0.0000 0.7700 0.0000
0.1300 0.8100 0.0000
0.0100 0.7700 0.0000
0.1900 0.8700 0.0000
0.2300 0.9900 0.0000
0.2200 0.9300 0.0000
0.2300 0.9800 0.0000
0.0200 0.7700 0.0000
0.0700 0.7800 0.0000
0.0300 0.7700 0.0000
0.2300 0.9700 0.0000
0.2100 0.9000 0.0000
0.1000 0.7900 0.0000
0.2000 0.8800 0.0000
0.1200 0.8000 0.0000
0.0400 0.7700 0.0000
0.2300 0.9600 0.0000
0.1700 0.8400 0.0000
0.1600 0.8300 0.0000
0.2200 0.9200 0.0000
0.0800 0.7800 0.0000
0.1800 0.8500 0.0000
0.1500 0.8200 0.0000
0.0500 0.7700 0.0000
0.2300 0.9500 0.0000
[...]
         <PointData>
            <DataArray Name="fValues" NumberOfComponents="3" format="ascii" type="Float64">
 3.90626e-02        00000        00000 
 7.81044e-02        00000        00000 
 7.81031e-02        00000        00000 
 1.56162e-01        00000        00000 
 7.80741e-02        00000        00000 
 7.80690e-02        00000        00000 
 1.56088e-01        00000        00000 
 1.56096e-01        00000        00000 
 1.56017e-01        00000        00000 
 7.80443e-02        00000        00000 
 7.80324e-02        00000        00000 
 1.56034e-01        00000        00000 
 1.56012e-01        00000        00000 
 1.55947e-01        00000        00000 
 1.55961e-01        00000        00000 
 7.80144e-02        00000        00000 
 7.79926e-02        00000        00000 
 1.55937e-01        00000        00000 
 1.55980e-01        00000        00000 
 1.55926e-01        00000        00000 
 1.55905e-01        00000        00000 
 1.55939e-01        00000        00000 
 1.55958e-01        00000        00000 
 1.55977e-01        00000        00000 
 7.79862e-02        00000        00000 
 7.79515e-02        00000        00000 
 1.55946e-01        00000        00000 
 1.55878e-01        00000        00000 
 1.55918e-01        00000        00000 
 1.55977e-01        00000        00000 
 1.56126e-01        00000        00000 
 1.56135e-01        00000        00000 
 1.56092e-01        00000        00000 
 7.79665e-02        00000        00000 
 7.79163e-02        00000        00000 
 1.55951e-01        00000        00000 
 1.55853e-01        00000        00000 
 1.56103e-01        00000        00000 
 1.56017e-01        00000        00000 
 1.56449e-01        00000        00000 
 1.56427e-01        00000        00000 
 1.56434e-01        00000        00000 
 1.56368e-01        00000        00000 
 7.79688e-02        00000        00000 
 7.79018e-02        00000        00000 
 1.55895e-01        00000        00000 
 1.56024e-01        00000        00000 
 1.56959e-01        00000        00000 
 1.56962e-01        00000        00000 
 1.56921e-01        00000        00000 
 1.56349e-01        00000        00000 
 1.56238e-01        00000        00000 
 1.56907e-01        00000        00000 
 1.56823e-01        00000        00000 
 1.57725e-01        00000        00000 
 1.57706e-01        00000        00000 
 7.80136e-02        00000        00000 
 7.79309e-02        00000        00000 
 1.57645e-01        00000        00000 
 1.56047e-01        00000        00000 
 1.57699e-01        00000        00000 
 1.56204e-01        00000        00000 
 1.56621e-01        00000        00000 
 1.56749e-01        00000        00000 
 1.58760e-01        00000        00000 
 1.57493e-01        00000        00000 
 1.57584e-01        00000        00000 
 1.58727e-01        00000        00000 
 1.58755e-01        00000        00000 
 1.58630e-01        00000        00000 
 1.58686e-01        00000        00000 
 7.81273e-02        00000        00000 
 7.80344e-02        00000        00000 
 1.56367e-01        00000        00000 
 1.56540e-01        00000        00000 
 1.60101e-01        00000        00000 
 1.57212e-01        00000        00000 
 1.60110e-01        00000        00000 
 1.57344e-01        00000        00000 
 1.60048e-01        00000        00000 
 1.60074e-01        00000        00000 
 1.58497e-01        00000        00000 
 1.58414e-01        00000        00000 
 1.59904e-01        00000        00000 
 1.59945e-01        00000        00000 
 1.61793e-01        00000        00000 
 1.61771e-01        00000        00000 
 7.82498e-02        00000        00000 
 7.83418e-02        00000        00000 
 1.61776e-01        00000        00000 
 1.56922e-01        00000        00000 
 1.57089e-01        00000        00000 
 1.58064e-01        00000        00000 
 1.58179e-01        00000        00000 
 1.61687e-01        00000        00000 
 1.61695e-01        00000        00000 
 1.59622e-01        00000        00000 
 1.59678e-01        00000        00000 
 1.63821e-01        00000        00000 
 1.63818e-01        00000        00000 
 1.61490e-01        00000        00000 
 1.61498e-01        00000        00000 
 1.63780e-01        00000        00000 
 1.63769e-01        00000        00000 
 7.86923e-02        00000        00000 
 7.86204e-02        00000        00000 
 1.57790e-01        00000        00000 
 1.57916e-01        00000        00000 
 1.59235e-01        00000        00000 
 1.63657e-01        00000        00000 
 1.59303e-01        00000        00000 
 1.63633e-01        00000        00000 
 1.66214e-01        00000        00000 
 1.66202e-01        00000        00000 
 1.61156e-01        00000        00000 
 1.61162e-01        00000        00000 
 1.66185e-01        00000        00000 
 1.66133e-01        00000        00000 
 1.66095e-01        00000        00000 
 1.63408e-01        00000        00000 
 1.63367e-01        00000        00000 
 7.92163e-02        00000        00000 
 7.91931e-02        00000        00000 
 1.59054e-01        00000        00000 
 1.68953e-01        00000        00000 
 1.68965e-01        00000        00000 
 1.59087e-01        00000        00000 
 1.65964e-01        00000        00000 
 1.65898e-01        00000        00000 
 1.60785e-01        00000        00000 
 1.60769e-01        00000        00000 
 1.68931e-01        00000        00000 
 1.68894e-01        00000        00000 
 1.63056e-01        00000        00000 
 1.62986e-01        00000        00000 
 1.68823e-01        00000        00000 
 1.68755e-01        00000        00000 
 1.65679e-01        00000        00000 
 1.65576e-01        00000        00000 
 1.72070e-01        00000        00000 
 1.72060e-01        00000        00000 
 1.72036e-01        00000        00000 
 1.68610e-01        00000        00000 
 7.99525e-02        00000        00000 
 8.00177e-02        00000        00000 
 1.68502e-01        00000        00000 
 1.71992e-01        00000        00000 
 1.60801e-01        00000        00000 
 1.71940e-01        00000        00000 
 1.60675e-01        00000        00000 
 1.62780e-01        00000        00000 
 1.62632e-01        00000        00000 
 1.65360e-01        00000        00000 
 1.65189e-01        00000        00000 
 1.71838e-01        00000        00000 
 1.71751e-01        00000        00000 
 1.75522e-01        00000        00000 
 1.75515e-01        00000        00000 
 1.68318e-01        00000        00000 
 1.75454e-01        00000        00000 
 1.75478e-01        00000        00000 
 1.68149e-01        00000        00000 
 1.75362e-01        00000        00000 
 1.75318e-01        00000        00000 
 1.71594e-01        00000        00000 
 1.71457e-01        00000        00000 
 8.09397e-02        00000        00000 
 8.11446e-02        00000        00000 
 1.63122e-01        00000        00000 
 1.62748e-01        00000        00000 
 1.65280e-01        00000        00000 
 1.79313e-01        00000        00000 
 1.64950e-01        00000        00000 
 1.79287e-01        00000        00000 
 1.79283e-01        00000        00000 
 1.75161e-01        00000        00000 
 1.68104e-01        00000        00000 
 1.67815e-01        00000        00000 
 1.75086e-01        00000        00000 
 1.79188e-01        00000        00000 
 1.79196e-01        00000        00000 
 1.71340e-01        00000        00000 
 1.71114e-01        00000        00000 
 1.79013e-01        00000        00000 
 1.79020e-01        00000        00000 
 1.83418e-01        00000        00000 
 1.74907e-01        00000        00000 
 1.83400e-01        00000        00000 
 1.74777e-01        00000        00000 
 1.83315e-01        00000        00000 
 1.83371e-01        00000        00000 
 8.22162e-02        00000        00000 
 8.26235e-02        00000        00000 
 1.66101e-01        00000        00000 
 1.65379e-01        00000        00000 
 1.68345e-01        00000        00000 
 1.67778e-01        00000        00000 
 1.78768e-01        00000        00000 
 1.78761e-01        00000        00000 
 1.83246e-01        00000        00000 
 1.83151e-01        00000        00000 
 1.71320e-01        00000        00000 
 1.70904e-01        00000        00000 
 1.74752e-01        00000        00000 
 1.74501e-01        00000        00000 
 1.87817e-01        00000        00000 
 1.87821e-01        00000        00000 
 1.87737e-01        00000        00000 
 1.82909e-01        00000        00000 
 1.83040e-01        00000        00000 
 1.78540e-01        00000        00000 
 1.87747e-01        00000        00000 
 1.87575e-01        00000        00000 
 1.78479e-01        00000        00000 
 8.38191e-02        00000        00000 
 8.45013e-02        00000        00000 
 1.69819e-01        00000        00000 
 1.68635e-01        00000        00000 
 1.72027e-01        00000        00000 
 1.87593e-01        00000        00000 
 1.87324e-01        00000        00000 
 1.71173e-01        00000        00000 
 1.82633e-01        00000        00000 
 1.82783e-01        00000        00000 
 1.75032e-01        00000        00000 
 1.92442e-01        00000        00000 
 1.92514e-01        00000        00000 
 1.74499e-01        00000        00000 
 1.92277e-01        00000        00000 
 1.92499e-01        00000        00000 
 1.78554e-01        00000        00000 
 1.78337e-01        00000        00000 
 1.87009e-01        00000        00000 
 1.87374e-01        00000        00000 
 1.92013e-01        00000        00000 
 1.92398e-01        00000        00000 
 1.82473e-01        00000        00000 
 1.82581e-01        00000        00000 
 1.97412e-01        00000        00000 
 1.91658e-01        00000        00000 
 1.92222e-01        00000        00000 
 8.57841e-02        00000        00000 
 8.68197e-02        00000        00000 
 1.97248e-01        00000        00000 
 1.97470e-01        00000        00000 
 1.72583e-01        00000        00000 
 1.74346e-01        00000        00000 
 1.86722e-01        00000        00000 
 1.87157e-01        00000        00000 
 1.75188e-01        00000        00000 
 1.76366e-01        00000        00000 
 1.96969e-01        00000        00000 
 1.97429e-01        00000        00000 
 1.79255e-01        00000        00000 
 1.78642e-01        00000        00000 
 1.91270e-01        00000        00000 
 1.82740e-01        00000        00000 
 1.92017e-01        00000        00000 
 1.82654e-01        00000        00000 
 1.97303e-01        00000        00000 
 1.96577e-01        00000        00000 
 2.02622e-01        00000        00000 
 2.02468e-01        00000        00000 
 1.86680e-01        00000        00000 
 1.87099e-01        00000        00000 
 2.02182e-01        00000        00000 
 2.02656e-01        00000        00000 
 1.96103e-01        00000        00000 
 1.97123e-01        00000        00000 
 8.81450e-02        00000        00000 
 8.96129e-02        00000        00000 
 1.77285e-01        00000        00000 
 2.02587e-01        00000        00000 
 2.01758e-01        00000        00000 
 1.90997e-01        00000        00000 
 1.91891e-01        00000        00000 
 1.79735e-01        00000        00000 
 1.79877e-01        00000        00000 
 1.81387e-01        00000        00000 
 1.83373e-01        00000        00000 
 1.83987e-01        00000        00000 
 2.01212e-01        00000        00000 
 2.02443e-01        00000        00000 
 2.07913e-01        00000        00000 
 1.95646e-01        00000        00000 
 1.96968e-01        00000        00000 
 1.87479e-01        00000        00000 
 2.08043e-01        00000        00000 
 2.07633e-01        00000        00000 
 1.87287e-01        00000        00000 
 2.07191e-01        00000        00000 
 2.08045e-01        00000        00000 
 1.92052e-01        00000        00000 
 1.91128e-01        00000        00000 
 2.00608e-01        00000        00000 
 2.02283e-01        00000        00000 
 2.06589e-01        00000        00000 
 2.07947e-01        00000        00000 
 1.96992e-01        00000        00000 
 1.95413e-01        00000        00000 
 9.29034e-02        00000        00000 
 9.09336e-02        00000        00000 
 1.86017e-01        00000        00000 
 1.82799e-01        00000        00000 
 1.87094e-01        00000        00000 
 2.13551e-01        00000        00000 
 2.13297e-01        00000        00000 
 1.85287e-01        00000        00000 
 2.12857e-01        00000        00000 
 2.13643e-01        00000        00000 
 1.89209e-01        00000        00000 
 1.88730e-01        00000        00000 
 2.05868e-01        00000        00000 
 2.07801e-01        00000        00000 
 2.02225e-01        00000        00000 
 2.00090e-01        00000        00000 
 1.92163e-01        00000        00000 
 2.12223e-01        00000        00000 
 2.13607e-01        00000        00000 
 1.92840e-01        00000        00000 
 1.95772e-01        00000        00000 
 1.97458e-01        00000        00000 
 2.07695e-01        00000        00000 
 2.05126e-01        00000        00000 
 2.13487e-01        00000        00000 
 2.11415e-01        00000        00000 
 2.19140e-01        00000        00000 
 2.19347e-01        00000        00000 
 2.18730e-01        00000        00000 
 1.99926e-01        00000        00000 
 2.02469e-01        00000        00000 
 2.18094e-01        00000        00000 
 2.19389e-01        00000        00000 
 9.41798e-02        00000        00000 
 9.66980e-02        00000        00000 
 1.89182e-01        00000        00000 
 1.93193e-01        00000        00000 
 1.91464e-01        00000        00000 
 1.93464e-01        00000        00000 
 2.13360e-01        00000        00000 
 2.10500e-01        00000        00000 
 1.94748e-01        00000        00000 
 1.94880e-01        00000        00000 
 2.04557e-01        00000        00000 
 2.17233e-01        00000        00000 
 2.07787e-01        00000        00000 
 2.19313e-01        00000        00000 
 1.98762e-01        00000        00000 
 1.97315e-01        00000        00000 
 2.25124e-01        00000        00000 
 2.24772e-01        00000        00000 
 2.19184e-01        00000        00000 
 2.16195e-01        00000        00000 
 2.09619e-01        00000        00000 
 2.03331e-01        00000        00000 
 2.24171e-01        00000        00000 
 2.00562e-01        00000        00000 
 2.25266e-01        00000        00000 
 2.13349e-01        00000        00000 
 2.25249e-01        00000        00000 
 2.23302e-01        00000        00000 
 2.04488e-01        00000        00000 
 2.08328e-01        00000        00000 
 9.79111e-02        00000        00000 
 1.00981e-01        00000        00000 
 2.15081e-01        00000        00000 
 2.01222e-01        00000        00000 
 1.96484e-01        00000        00000 
 2.19105e-01        00000        00000 
 1.98448e-01        00000        00000 
 2.00437e-01        00000        00000 
 2.25136e-01        00000        00000 
 2.22189e-01        00000        00000 
 2.09009e-01        00000        00000 
 2.13654e-01        00000        00000 
 2.01458e-01        00000        00000 
 2.00933e-01        00000        00000 
 2.30941e-01        00000        00000 
 2.30415e-01        00000        00000 
 2.31206e-01        00000        00000 
 2.02679e-01        00000        00000 
 2.05266e-01        00000        00000 
 2.31268e-01        00000        00000 
 2.29588e-01        00000        00000 
 2.20911e-01        00000        00000 
 2.25016e-01        00000        00000 
 2.19237e-01        00000        00000 
 2.14066e-01        00000        00000 
 2.05437e-01        00000        00000 
 2.09686e-01        00000        00000 
 2.31190e-01        00000        00000 
 2.28456e-01        00000        00000 
 2.09054e-01        00000        00000 
 2.14575e-01        00000        00000 
 2.36774e-01        00000        00000 
 2.25022e-01        00000        00000 
 2.37187e-01        00000        00000 
 2.19606e-01        00000        00000 
 2.27079e-01        00000        00000 
 2.31051e-01        00000        00000 
 1.02153e-01        00000        00000 
 1.05709e-01        00000        00000 
 2.04750e-01        00000        00000 
 2.10008e-01        00000        00000 
 2.36045e-01        00000        00000 
 2.37346e-01        00000        00000 
 2.06278e-01        00000        00000 
 2.07912e-01        00000        00000 
 2.13424e-01        00000        00000 
 2.19824e-01        00000        00000 
 2.08887e-01        00000        00000 
 2.37320e-01        00000        00000 
 2.07268e-01        00000        00000 
 2.34961e-01        00000        00000 
 2.08168e-01        00000        00000 
 2.12372e-01        00000        00000 
 2.30966e-01        00000        00000 
 2.25578e-01        00000        00000 
 2.33551e-01        00000        00000 
 2.25352e-01        00000        00000 
 2.18468e-01        00000        00000 
 2.37183e-01        00000        00000 
 2.10336e-01        00000        00000 
 2.16532e-01        00000        00000 
 2.43192e-01        00000        00000 
 2.42611e-01        00000        00000 
 2.43464e-01        00000        00000 
 2.21212e-01        00000        00000 
 2.43505e-01        00000        00000 
 2.13589e-01        00000        00000 
 2.41650e-01        00000        00000 
 2.31930e-01        00000        00000 
 2.37035e-01        00000        00000 
 2.24109e-01        00000        00000 
 2.31098e-01        00000        00000 
 1.06928e-01        00000        00000 
 1.10798e-01        00000        00000 
 2.40290e-01        00000        00000 
 2.19386e-01        00000        00000 
 2.43389e-01        00000        00000 
 2.14023e-01        00000        00000 
 2.26292e-01        00000        00000 
 2.14982e-01        00000        00000 
 2.15732e-01        00000        00000 
 2.17799e-01        00000        00000 
 2.13754e-01        00000        00000 
 2.17056e-01        00000        00000 
 2.37014e-01        00000        00000 
 2.30262e-01        00000        00000 
 2.43204e-01        00000        00000 
 2.38618e-01        00000        00000 
 2.13684e-01        00000        00000 
 2.20091e-01        00000        00000 
 2.49610e-01        00000        00000 
 2.49214e-01        00000        00000 
 2.31684e-01        00000        00000 
 2.22863e-01        00000        00000 
 2.49729e-01        00000        00000 
 2.48449e-01        00000        00000 
 2.15198e-01        00000        00000 
 2.23875e-01        00000        00000 
 2.47238e-01        00000        00000 
 2.49650e-01        00000        00000 
 2.36834e-01        00000        00000 
 2.43067e-01        00000        00000 
 2.37318e-01        00000        00000 
 2.18078e-01        00000        00000 
 2.28239e-01        00000        00000 
 2.28678e-01        00000        00000 
 2.49451e-01        00000        00000 
 2.45604e-01        00000        00000 
 1.16117e-01        00000        00000 
 1.12255e-01        00000        00000 
 2.29108e-01        00000        00000 
 2.24335e-01        00000        00000 
 2.22166e-01        00000        00000 
 2.33054e-01        00000        00000 
 2.55783e-01        00000        00000 
 2.55982e-01        00000        00000 
 2.23685e-01        00000        00000 
 2.24587e-01        00000        00000 
 2.55264e-01        00000        00000 
 2.43144e-01        00000        00000 
 2.35109e-01        00000        00000 
 2.49229e-01        00000        00000 
 2.20226e-01        00000        00000 
 2.43751e-01        00000        00000 
 2.25981e-01        00000        00000 
 2.54307e-01        00000        00000 
 2.55951e-01        00000        00000 
 2.19116e-01        00000        00000 
 2.28433e-01        00000        00000 
 2.38223e-01        00000        00000 
 2.27336e-01        00000        00000 
 2.55758e-01        00000        00000 
 2.52836e-01        00000        00000 
 2.19971e-01        00000        00000 