<?xml version="1.0" encoding="utf-8"?>
<VTKFile byte_order="LittleEndian" type="UnstructuredGrid" version="0.1">
   <UnstructuredGrid>
      <Piece NumberOfCells="3608" NumberOfPoints="2500">
         <Points>
            <DataArray Name="Points" NumberOfComponents="3" format="ascii" type="Float32">
-0.4750 -0.5000 0.0000
-0.4750 -0.4750 0.0000
-0.5000 -0.4750 0.0000
-0.5000 -0.5000 0.0000
-0.4500 -0.5000 0.0000
-0.4500 -0.4750 0.0000
-0.4250 -0.5000 0.0000
-0.4250 -0.4750 0.0000
-0.4000 -0.5000 0.0000
-0.4000 -0.4750 0.0000
-0.3750 -0.5000 0.0000
-0.3750 -0.4750 0.0000
-0.3500 -0.5000 0.0000
-0.3500 -0.4750 0.0000
-0.3250 -0.5000 0.0000
-0.3250 -0.4750 0.0000
-0.3000 -0.5000 0.0000
-0.3000 -0.4750 0.0000
-0.2750 -0.5000 0.0000
-0.2750 -0.4750 0.0000
-0.2500 -0.5000 0.0000
-0.2250 -0.5000 0.0000
-0.2000 -0.5000 0.0000
-0.1750 -0.5000 0.0000
-0.1500 -0.5000 0.0000
-0.1250 -0.5000 0.0000
-0.1000 -0.5000 0.0000
-0.1000 -0.4750 0.0000
0.1000 -0.4750 0.0000
0.1250 -0.5000 0.0000
0.1000 -0.5000 0.0000
0.1500 -0.5000 0.0000
0.1750 -0.5000 0.0000
0.2000 -0.5000 0.0000
0.2250 -0.5000 0.0000
0.2500 -0.5000 0.0000
0.2750 -0.5000 0.0000
0.2750 -0.4750 0.0000
0.3000 -0.5000 0.0000
0.3000 -0.4750 0.0000
0.3250 -0.5000 0.0000
0.3250 -0.4750 0.0000
0.3500 -0.5000 0.0000
0.3500 -0.4750 0.0000
0.3750 -0.5000 0.0000
0.3750 -0.4750 0.0000
0.4000 -0.5000 0.0000
0.4000 -0.4750 0.0000
0.4250 -0.5000 0.0000
0.4250 -0.4750 0.0000
0.4500 -0.5000 0.0000
0.4500 -0.4750 0.0000
0.4750 -0.5000 0.0000
0.4750 -0.4750 0.0000
0.5000 -0.5000 0.0000
0.5000 -0.4750 0.0000
-0.4750 -0.4500 0.0000
-0.5000 -0.4500 0.0000
-0.4500 -0.4500 0.0000
-0.1000 -0.4500 0.0000
0.1000 -0.4500 0.0000
0.4500 -0.4500 0.0000
0.4750 -0.4500 0.0000
0.5000 -0.4500 0.0000
-0.4750 -0.4250 0.0000
-0.5000 -0.4250 0.0000
-0.1000 -0.4250 0.0000
-0.1250 -0.4250 0.0000
0.1000 -0.4250 0.0000
0.4750 -0.4250 0.0000
0.5000 -0.4250 0.0000
-0.4750 -0.4000 0.0000
-0.5000 -0.4000 0.0000
-0.1250 -0.4000 0.0000
-0.1500 -0.4000 0.0000
0.1250 -0.4250 0.0000
0.1250 -0.4000 0.0000
0.4750 -0.4000 0.0000
0.5000 -0.4000 0.0000
-0.4750 -0.3750 0.0000
-0.5000 -0.3750 0.0000
-0.1500 -0.3750 0.0000
-0.1750 -0.3750 0.0000
-0.1250 -0.3750 0.0000
0.1250 -0.3750 0.0000
0.1500 -0.4000 0.0000
0.1500 -0.3750 0.0000
0.4750 -0.3750 0.0000
0.5000 -0.3750 0.0000
-0.4750 -0.3500 0.0000
-0.5000 -0.3500 0.0000
-0.2500 -0.3500 0.0000
-0.2000 -0.3500 0.0000
-0.2250 -0.3500 0.0000
-0.1750 -0.3500 0.0000
-0.2000 -0.3750 0.0000
-0.1500 -0.3500 0.0000
-0.1250 -0.3500 0.0000
0.1250 -0.3500 0.0000
0.1500 -0.3500 0.0000
0.1750 -0.3750 0.0000
0.1750 -0.3500 0.0000
0.2000 -0.3750 0.0000
0.2000 -0.3500 0.0000
0.2250 -0.3500 0.0000
0.5000 -0.3500 0.0000
0.4750 -0.3500 0.0000
-0.4750 -0.3250 0.0000
-0.5000 -0.3250 0.0000
-0.2500 -0.3250 0.0000
-0.2750 -0.3250 0.0000
-0.2250 -0.3250 0.0000
-0.2000 -0.3250 0.0000
-0.1750 -0.3250 0.0000
-0.1500 -0.3250 0.0000
-0.1250 -0.3250 0.0000
0.1250 -0.3250 0.0000
0.1000 -0.3250 0.0000
0.1500 -0.3250 0.0000
0.1750 -0.3250 0.0000
0.2000 -0.3250 0.0000
0.2250 -0.3250 0.0000
0.2500 -0.3500 0.0000
0.2500 -0.3250 0.0000
0.5000 -0.3250 0.0000
0.4750 -0.3250 0.0000
-0.4750 -0.3000 0.0000
-0.5000 -0.3000 0.0000
-0.2500 -0.3000 0.0000
-0.2750 -0.3000 0.0000
-0.2250 -0.3000 0.0000
-0.2000 -0.3000 0.0000
-0.1750 -0.3000 0.0000
-0.1500 -0.3000 0.0000
-0.1250 -0.3000 0.0000
-0.1000 -0.3250 0.0000
-0.1000 -0.3000 0.0000
0.1250 -0.3000 0.0000
0.1000 -0.3000 0.0000
0.1500 -0.3000 0.0000
0.1750 -0.3000 0.0000
0.2000 -0.3000 0.0000
0.2250 -0.3000 0.0000
0.2500 -0.3000 0.0000
0.2750 -0.3250 0.0000
0.2750 -0.3000 0.0000
0.5000 -0.3000 0.0000
0.4750 -0.3000 0.0000
-0.4750 -0.2750 0.0000
-0.5000 -0.2750 0.0000
-0.2250 -0.2750 0.0000
-0.2000 -0.2750 0.0000
-0.1750 -0.2750 0.0000
-0.1500 -0.2750 0.0000
-0.1250 -0.2750 0.0000
-0.1000 -0.2750 0.0000
0.1000 -0.2750 0.0000
0.1250 -0.2750 0.0000
0.1500 -0.2750 0.0000
0.1750 -0.2750 0.0000
0.2000 -0.2750 0.0000
0.2250 -0.2750 0.0000
0.5000 -0.2750 0.0000
0.4750 -0.2750 0.0000
-0.3250 -0.2500 0.0000
-0.3500 -0.2500 0.0000
-0.3000 -0.2750 0.0000
-0.3000 -0.2500 0.0000
-0.3250 -0.2750 0.0000
-0.2000 -0.2500 0.0000
-0.1750 -0.2500 0.0000
-0.1500 -0.2500 0.0000
-0.1250 -0.2500 0.0000
-0.1000 -0.2500 0.0000
0.1250 -0.2500 0.0000
0.1000 -0.2500 0.0000
0.1500 -0.2500 0.0000
0.1750 -0.2500 0.0000
0.2000 -0.2500 0.0000
0.3000 -0.2500 0.0000
0.3250 -0.2750 0.0000
0.3250 -0.2500 0.0000
0.3000 -0.2750 0.0000
0.5000 -0.2500 0.0000
-0.5000 -0.2500 0.0000
-0.3500 -0.2250 0.0000
-0.3250 -0.2250 0.0000
-0.3000 -0.2250 0.0000
-0.1750 -0.2250 0.0000
-0.1500 -0.2250 0.0000
-0.1250 -0.2250 0.0000
-0.1000 -0.2250 0.0000
0.1000 -0.2250 0.0000
0.0750 -0.2250 0.0000
0.1250 -0.2250 0.0000
0.1500 -0.2250 0.0000
0.1750 -0.2250 0.0000
0.3000 -0.2250 0.0000
0.2750 -0.2250 0.0000
0.3250 -0.2250 0.0000
0.3500 -0.2500 0.0000
0.3500 -0.2250 0.0000
0.5000 -0.2250 0.0000
-0.5000 -0.2250 0.0000
-0.3500 -0.2000 0.0000
-0.3750 -0.2000 0.0000
-0.3250 -0.2000 0.0000
-0.3000 -0.2000 0.0000
-0.2750 -0.2250 0.0000
-0.2750 -0.2000 0.0000
-0.1000 -0.2000 0.0000
-0.0750 -0.2250 0.0000
-0.0750 -0.2000 0.0000
-0.0500 -0.2250 0.0000
-0.0500 -0.2000 0.0000
-0.0250 -0.2250 0.0000
-0.0250 -0.2000 0.0000
0.0000 -0.2250 0.0000
0.0000 -0.2000 0.0000
0.0250 -0.2250 0.0000
0.0250 -0.2000 0.0000
0.0500 -0.2250 0.0000
0.0500 -0.2000 0.0000
0.0750 -0.2000 0.0000
0.1000 -0.2000 0.0000
0.2750 -0.2000 0.0000
0.2500 -0.2000 0.0000
0.3000 -0.2000 0.0000
0.3250 -0.2000 0.0000
0.3500 -0.2000 0.0000
0.5000 -0.2000 0.0000
-0.5000 -0.2000 0.0000
-0.3500 -0.1750 0.0000
-0.3750 -0.1750 0.0000
-0.3250 -0.1750 0.0000
-0.3000 -0.1750 0.0000
-0.2750 -0.1750 0.0000
-0.2500 -0.2000 0.0000
-0.2500 -0.1750 0.0000
0.2500 -0.1750 0.0000
0.2250 -0.1750 0.0000
0.2750 -0.1750 0.0000
0.3000 -0.1750 0.0000
0.3250 -0.1750 0.0000
0.3500 -0.1750 0.0000
0.3750 -0.2000 0.0000
0.3750 -0.1750 0.0000
0.5000 -0.1750 0.0000
-0.5000 -0.1750 0.0000
-0.3750 -0.1500 0.0000
-0.4000 -0.1500 0.0000
-0.3500 -0.1500 0.0000
-0.3250 -0.1500 0.0000
-0.3000 -0.1500 0.0000
-0.2750 -0.1500 0.0000
-0.2500 -0.1500 0.0000
-0.2250 -0.1750 0.0000
-0.2250 -0.1500 0.0000
0.2500 -0.1500 0.0000
0.2250 -0.1500 0.0000
0.2750 -0.1500 0.0000
0.3000 -0.1500 0.0000
0.3250 -0.1500 0.0000
0.3500 -0.1500 0.0000
0.3750 -0.1500 0.0000
0.5000 -0.1500 0.0000
-0.5000 -0.1500 0.0000
-0.4000 -0.1250 0.0000
-0.4250 -0.1250 0.0000
-0.3750 -0.1250 0.0000
-0.3500 -0.1250 0.0000
-0.3250 -0.1250 0.0000
-0.3000 -0.1250 0.0000
-0.2750 -0.1250 0.0000
-0.2500 -0.1250 0.0000
-0.2250 -0.1250 0.0000
0.2250 -0.1250 0.0000
0.2500 -0.1250 0.0000
0.2750 -0.1250 0.0000
0.3000 -0.1250 0.0000
0.3250 -0.1250 0.0000
0.3500 -0.1250 0.0000
0.3750 -0.1250 0.0000
0.4000 -0.1500 0.0000
0.4000 -0.1250 0.0000
0.5000 -0.1250 0.0000
-0.5000 -0.1000 0.0000
-0.5000 -0.1250 0.0000
-0.4750 -0.1000 0.0000
-0.4250 -0.1000 0.0000
-0.4500 -0.1000 0.0000
-0.3250 -0.1000 0.0000
-0.3000 -0.1000 0.0000
-0.2750 -0.1000 0.0000
-0.2500 -0.1000 0.0000
-0.2250 -0.1000 0.0000
0.2250 -0.1000 0.0000
0.2000 -0.1000 0.0000
0.2500 -0.1000 0.0000
0.2750 -0.1000 0.0000
0.3000 -0.1000 0.0000
0.3250 -0.1000 0.0000
0.4250 -0.1250 0.0000
0.4250 -0.1000 0.0000
0.4500 -0.1000 0.0000
0.5000 -0.1000 0.0000
0.4750 -0.1000 0.0000
-0.2250 -0.0750 0.0000
-0.2000 -0.1000 0.0000
-0.2000 -0.0750 0.0000
0.2250 -0.0750 0.0000
0.2000 -0.0750 0.0000
-0.2000 -0.0500 0.0000
-0.2250 -0.0500 0.0000
0.2250 -0.0500 0.0000
0.2000 -0.0500 0.0000
-0.2000 -0.0250 0.0000
-0.2250 -0.0250 0.0000
0.2250 -0.0250 0.0000
0.2000 -0.0250 0.0000
-0.2000 0.0000 0.0000
-0.2250 0.0000 0.0000
0.2250 0.0000 0.0000
0.2000 0.0000 0.0000
-0.2000 0.0250 0.0000
-0.2250 0.0250 0.0000
0.2250 0.0250 0.0000
0.2000 0.0250 0.0000
-0.2000 0.0500 0.0000
-0.2250 0.0500 0.0000
0.2250 0.0500 0.0000
0.2000 0.0500 0.0000
-0.2000 0.0750 0.0000
-0.2250 0.0750 0.0000
0.2250 0.0750 0.0000
0.2000 0.0750 0.0000
-0.5000 0.1000 0.0000
-0.4750 0.1000 0.0000
-0.3000 0.1000 0.0000
-0.2250 0.1000 0.0000
-0.2500 0.1000 0.0000
-0.2000 0.1000 0.0000
0.2250 0.1000 0.0000
0.2000 0.1000 0.0000
0.2750 0.1000 0.0000
0.4500 0.1000 0.0000
0.4750 0.1000 0.0000
-0.4500 0.1000 0.0000
-0.4250 0.1000 0.0000
-0.4250 0.1250 0.0000
-0.4000 0.1250 0.0000
-0.3750 0.1250 0.0000
-0.3250 0.1250 0.0000
-0.3500 0.1250 0.0000
-0.3000 0.1250 0.0000
-0.3250 0.1000 0.0000
-0.2750 0.1000 0.0000
-0.2750 0.1250 0.0000
-0.2500 0.1250 0.0000
-0.2250 0.1250 0.0000
0.2250 0.1250 0.0000
0.2500 0.1000 0.0000
0.2500 0.1250 0.0000
0.2750 0.1250 0.0000
0.3000 0.1000 0.0000
0.3000 0.1250 0.0000
0.3250 0.1000 0.0000
0.3250 0.1250 0.0000
0.3500 0.1250 0.0000
0.3750 0.1250 0.0000
0.4250 0.1250 0.0000
0.4000 0.1250 0.0000
0.4250 0.1000 0.0000
0.5000 0.1000 0.0000
0.5000 0.1250 0.0000
-0.5000 0.1250 0.0000
-0.4000 0.1500 0.0000
-0.3750 0.1500 0.0000
-0.3500 0.1500 0.0000
-0.3250 0.1500 0.0000
-0.3000 0.1500 0.0000
-0.2750 0.1500 0.0000
-0.2500 0.1500 0.0000
-0.2250 0.1500 0.0000
0.2250 0.1500 0.0000
0.2500 0.1500 0.0000
0.2750 0.1500 0.0000
0.3000 0.1500 0.0000
0.3250 0.1500 0.0000
0.3500 0.1500 0.0000
0.3750 0.1500 0.0000
0.4000 0.1500 0.0000
0.5000 0.1500 0.0000
-0.5000 0.1500 0.0000
-0.3750 0.1750 0.0000
-0.3500 0.1750 0.0000
-0.3250 0.1750 0.0000
-0.3000 0.1750 0.0000
-0.2750 0.1750 0.0000
-0.2500 0.1750 0.0000
-0.2250 0.1750 0.0000
0.2500 0.1750 0.0000
0.2250 0.1750 0.0000
0.2750 0.1750 0.0000
0.3000 0.1750 0.0000
0.3250 0.1750 0.0000
0.3500 0.1750 0.0000
0.3750 0.1750 0.0000
0.5000 0.1750 0.0000
-0.5000 0.1750 0.0000
-0.3500 0.2000 0.0000
-0.3750 0.2000 0.0000
-0.3250 0.2000 0.0000
-0.3000 0.2000 0.0000
-0.2750 0.2000 0.0000
-0.2500 0.2000 0.0000
0.2500 0.2000 0.0000
0.2750 0.2000 0.0000
0.3000 0.2000 0.0000
0.3250 0.2000 0.0000
0.3500 0.2000 0.0000
0.3750 0.2000 0.0000
0.5000 0.2000 0.0000
-0.5000 0.2000 0.0000
-0.3500 0.2250 0.0000
-0.3250 0.2250 0.0000
-0.3000 0.2250 0.0000
-0.2750 0.2250 0.0000
-0.1500 0.2250 0.0000
-0.1000 0.2250 0.0000
-0.1250 0.2250 0.0000
-0.0750 0.2000 0.0000
-0.0750 0.2250 0.0000
-0.1000 0.2000 0.0000
-0.0500 0.2000 0.0000
-0.0500 0.2250 0.0000
[...]
         <PointData>
            <DataArray Name="fValues" NumberOfComponents="3" format="ascii" type="Float64">
-2.19372e-02 -2.13980e-07        00000 
-2.21783e-02 -2.64053e-03        00000 
 1.60859e-06 -2.85201e-03        00000 
 1.87789e-18  8.71666e-20        00000 
-4.40120e-02 -8.51734e-07        00000 
-4.44654e-02 -1.99307e-03        00000 
-6.63170e-02 -2.02007e-06        00000 
-6.69220e-02 -1.11850e-03        00000 
-8.86866e-02 -2.50715e-06        00000 
-8.93720e-02 -6.78709e-04        00000 
-1.10841e-01 -1.56136e-06        00000 
-1.11238e-01 -8.52699e-04        00000 
-1.32541e-01 -6.52405e-07        00000 
-1.32754e-01 -1.11557e-03        00000 
-1.53871e-01 -6.77677e-07        00000 
-1.54114e-01 -1.26776e-03        00000 
-1.74911e-01 -1.18183e-06        00000 
-1.75299e-01 -1.35826e-03        00000 
-1.95638e-01 -9.85292e-07        00000 
-1.96150e-01 -1.45682e-03        00000 
-2.16081e-01  1.14945e-06        00000 
-2.36236e-01  4.23587e-06        00000 
-2.56213e-01  6.20576e-06        00000 
-2.75757e-01  6.83687e-06        00000 
-2.94468e-01  6.14193e-06        00000 
-3.12011e-01  5.93351e-07        00000 
-3.34057e-01 -6.58186e-06        00000 
-3.23863e-01 -6.96673e-03        00000 
 3.23878e-01 -6.95298e-03        00000 
 3.12013e-01 -8.32047e-07        00000 
 3.34058e-01  6.26265e-06        00000 
 2.94469e-01 -6.24162e-06        00000 
 2.75758e-01 -6.82569e-06        00000 
 2.56215e-01 -6.10810e-06        00000 
 2.36237e-01 -4.08113e-06        00000 
 2.16082e-01 -9.70969e-07        00000 
 1.95639e-01  1.15734e-06        00000 
 1.96149e-01 -1.45561e-03        00000 
 1.74912e-01  1.32647e-06        00000 
 1.75300e-01 -1.35588e-03        00000 
 1.53872e-01  7.82748e-07        00000 
 1.54115e-01 -1.26613e-03        00000 
 1.32542e-01  7.12510e-07        00000 
 1.32754e-01 -1.11421e-03        00000 
 1.10842e-01  1.57808e-06        00000 
 1.11238e-01 -8.49956e-04        00000 
 8.86873e-02  2.48895e-06        00000 
 8.93731e-02 -6.73671e-04        00000 
 6.63176e-02  1.97927e-06        00000 
 6.69249e-02 -1.11457e-03        00000 
 4.40125e-02  8.00796e-07        00000 
 4.44685e-02 -1.99173e-03        00000 
 2.19376e-02  1.64624e-07        00000 
 2.21816e-02 -2.64026e-03        00000 
-3.75579e-18 -1.25649e-20        00000 
 1.60859e-06 -2.85201e-03        00000 
-2.29124e-02 -5.11308e-03        00000 
 2.61875e-06 -5.50700e-03        00000 
-4.60035e-02 -3.75430e-03        00000 
-2.92970e-01 -1.40312e-02        00000 
 2.92996e-01 -1.40167e-02        00000 
 4.60104e-02 -3.75428e-03        00000 
 2.29180e-02 -5.11274e-03        00000 
 2.61875e-06 -5.50700e-03        00000 
-2.39053e-02 -7.30160e-03        00000 
 3.00163e-06 -7.82756e-03        00000 
-2.51123e-01 -2.00554e-02        00000 
-2.25738e-01  1.08696e-02        00000 
 2.51157e-01 -2.00406e-02        00000 
 2.39114e-02 -7.30131e-03        00000 
 3.00163e-06 -7.82756e-03        00000 
-2.44425e-02 -9.36480e-03        00000 
 3.69847e-06 -9.96453e-03        00000 
-1.88960e-01  6.61972e-03        00000 
-1.62888e-01  3.60260e-02        00000 
 2.25772e-01  1.08766e-02        00000 
 1.89001e-01  6.62777e-03        00000 
 2.44498e-02 -9.36330e-03        00000 
 3.69847e-06 -9.96453e-03        00000 
-2.43258e-02 -1.18836e-02        00000 
 5.26874e-06 -1.22205e-02        00000 
-1.28146e-01  3.46979e-02        00000 
-9.97428e-02  6.50163e-02        00000 
-1.54110e-01  2.93496e-03        00000 
 1.54157e-01  2.94340e-03        00000 
 1.62931e-01  3.60272e-02        00000 
 1.28194e-01  3.46977e-02        00000 
 2.43366e-02 -1.18814e-02        00000 
 5.26874e-06 -1.22205e-02        00000 
-2.41034e-02 -1.46822e-02        00000 
 6.41054e-06 -1.48545e-02        00000 
 1.87931e-02  1.31374e-01        00000 
-4.10235e-02  9.38259e-02        00000 
-1.14088e-02  1.16772e-01        00000 
-6.91345e-02  6.53478e-02        00000 
-6.89661e-02  9.17254e-02        00000 
-9.58722e-02  3.35369e-02        00000 
-1.21428e-01 -5.61719e-04        00000 
 1.21483e-01 -5.54668e-04        00000 
 9.59260e-02  3.35364e-02        00000 
 9.97906e-02  6.50090e-02        00000 
 6.91871e-02  6.53403e-02        00000 
 6.90121e-02  9.17104e-02        00000 
 4.10744e-02  9.38113e-02        00000 
 1.14590e-02  1.16750e-01        00000 
 6.41054e-06 -1.48545e-02        00000 
 2.41161e-02 -1.46809e-02        00000 
-2.39772e-02 -1.76027e-02        00000 
 6.38710e-06 -1.77975e-02        00000 
 3.84285e-02  1.33429e-01        00000 
 6.48420e-02  1.34787e-01        00000 
 1.01516e-02  1.19764e-01        00000 
-1.50611e-02  9.48906e-02        00000 
-3.95448e-02  6.51309e-02        00000 
-6.39915e-02  3.20798e-02        00000 
-8.83249e-02 -3.49027e-03        00000 
 8.83861e-02 -3.48475e-03        00000 
 1.12603e-01 -4.12759e-02        00000 
 6.40519e-02  3.20792e-02        00000 
 3.96037e-02  6.51238e-02        00000 
 1.51180e-02  9.48763e-02        00000 
-1.00979e-02  1.19741e-01        00000 
-1.87432e-02  1.31347e-01        00000 
-3.83762e-02  1.33399e-01        00000 
 6.38710e-06 -1.77975e-02        00000 
 2.39898e-02 -1.76032e-02        00000 
-2.39050e-02 -2.06642e-02        00000 
 5.59534e-06 -2.09764e-02        00000 
 4.84778e-02  1.41078e-01        00000 
 6.93492e-02  1.19735e-01        00000 
 3.13427e-02  1.20765e-01        00000 
 1.28268e-02  9.45355e-02        00000 
-8.10059e-03  6.40728e-02        00000 
-3.03115e-02  3.02961e-02        00000 
-5.33630e-02 -6.25750e-03        00000 
-1.12542e-01 -4.12873e-02        00000 
-7.68584e-02 -4.50884e-02        00000 
 5.34310e-02 -6.25273e-03        00000 
 7.69269e-02 -4.50790e-02        00000 
 3.03790e-02  3.02953e-02        00000 
 8.16712e-03  6.40661e-02        00000 
-1.27619e-02  9.45221e-02        00000 
-3.12809e-02  1.20744e-01        00000 
-4.84280e-02  1.41047e-01        00000 
-6.47875e-02  1.34766e-01        00000 
-6.93122e-02  1.19708e-01        00000 
 5.59534e-06 -2.09764e-02        00000 
 2.39162e-02 -2.06653e-02        00000 
-2.38258e-02 -2.39959e-02        00000 
 5.00023e-06 -2.44062e-02        00000 
 6.46258e-02  1.20097e-01        00000 
 4.70963e-02  9.36987e-02        00000 
 2.76394e-02  6.26385e-02        00000 
 6.86211e-03  2.83930e-02        00000 
-1.50653e-02 -8.73183e-03        00000 
-3.81792e-02 -4.87540e-02        00000 
 3.82539e-02 -4.87452e-02        00000 
 1.51399e-02 -8.72795e-03        00000 
-6.78758e-03  2.83919e-02        00000 
-2.75648e-02  6.26317e-02        00000 
-4.70212e-02  9.36855e-02        00000 
-6.45482e-02  1.20074e-01        00000 
 5.00023e-06 -2.44062e-02        00000 
 2.38364e-02 -2.39954e-02        00000 
-1.09637e-02 -6.43359e-03        00000 
 1.52591e-02 -3.59486e-02        00000 
 1.94512e-02  3.66278e-02        00000 
-3.99001e-02  2.88900e-02        00000 
 3.23152e-02 -7.03616e-03        00000 
 8.83484e-02  9.43033e-02        00000 
 6.82865e-02  6.16217e-02        00000 
 4.80279e-02  2.67214e-02        00000 
 2.74223e-02 -1.11831e-02        00000 
 6.84535e-03 -5.23714e-02        00000 
-2.73420e-02 -1.11800e-02        00000 
-6.76565e-03 -5.23646e-02        00000 
-4.79472e-02  2.67195e-02        00000 
-6.82049e-02  6.16146e-02        00000 
-8.82652e-02  9.42892e-02        00000 
 3.99333e-02  2.88381e-02        00000 
-3.22885e-02 -7.08983e-03        00000 
 1.09956e-02 -6.48662e-03        00000 
-1.94218e-02  3.65834e-02        00000 
 5.59243e-06 -2.80638e-02        00000 
 5.59243e-06 -2.80638e-02        00000 
-1.80837e-02 -3.19720e-02        00000 
-4.51876e-02 -4.78890e-03        00000 
-7.10826e-02  2.22250e-02        00000 
 1.12060e-01  6.13939e-02        00000 
 9.16035e-02  2.56775e-02        00000 
 7.26224e-02 -1.39879e-02        00000 
 5.48051e-02 -5.69668e-02        00000 
-5.47193e-02 -5.69600e-02        00000 
-3.86228e-02 -1.00820e-01        00000 
-7.25363e-02 -1.39858e-02        00000 
-9.15174e-02  2.56751e-02        00000 
-1.11975e-01  6.13868e-02        00000 
 7.11081e-02  2.21645e-02        00000 
 9.59085e-02  3.99287e-02        00000 
 4.52142e-02 -4.84287e-03        00000 
-1.52287e-02 -3.59986e-02        00000 
 1.81095e-02 -3.20224e-02        00000 
 6.62319e-06 -3.19525e-02        00000 
 6.62319e-06 -3.19525e-02        00000 
-4.47984e-02 -2.83482e-02        00000 
-1.80933e-02 -5.07830e-02        00000 
-7.07529e-02 -4.68467e-03        00000 
-9.57357e-02  1.71193e-02        00000 
-9.58820e-02  4.00019e-02        00000 
-1.20457e-01  3.35428e-02        00000 
 9.82682e-02 -6.00383e-02        00000 
 3.87112e-02 -1.00834e-01        00000 
 7.54723e-02 -1.02219e-01        00000 
 2.56384e-02 -1.33007e-01        00000 
 5.04032e-02 -1.34609e-01        00000 
 1.33727e-02 -1.50249e-01        00000 
 2.48529e-02 -1.52376e-01        00000 
 4.75773e-05 -1.55635e-01        00000 
 4.46020e-05 -1.57727e-01        00000 
-1.32773e-02 -1.50244e-01        00000 
-2.47641e-02 -1.52370e-01        00000 
-2.55446e-02 -1.32994e-01        00000 
-5.03136e-02 -1.34596e-01        00000 
-7.53803e-02 -1.02205e-01        00000 
-9.81752e-02 -6.00304e-02        00000 
 1.20475e-01  3.34710e-02        00000 
 1.46344e-01  4.36058e-02        00000 
 9.57545e-02  1.70562e-02        00000 
 7.07724e-02 -4.74103e-03        00000 
 4.48182e-02 -2.83992e-02        00000 
 6.55197e-06 -3.59836e-02        00000 
 6.55197e-06 -3.59836e-02        00000 
-6.70055e-02 -2.57256e-02        00000 
-4.17936e-02 -4.60538e-02        00000 
-9.18422e-02 -4.95135e-03        00000 
-1.16147e-01  1.39428e-02        00000 
-1.40284e-01  2.88594e-02        00000 
-1.46325e-01  4.36845e-02        00000 
-1.64784e-01  3.90232e-02        00000 
 1.64797e-01  3.89459e-02        00000 
 1.89746e-01  4.58993e-02        00000 
 1.40296e-01  2.87879e-02        00000 
 1.16160e-01  1.38781e-02        00000 
 9.18556e-02 -5.00952e-03        00000 
 6.70192e-02 -2.57779e-02        00000 
 1.81134e-02 -5.08293e-02        00000 
 4.18073e-02 -4.61012e-02        00000 
 5.34592e-06 -4.03603e-02        00000 
 5.34592e-06 -4.03603e-02        00000 
-6.28374e-02 -4.33466e-02        00000 
-3.97387e-02 -6.07323e-02        00000 
-8.63618e-02 -2.42336e-02        00000 
-1.09816e-01 -5.28855e-03        00000 
-1.33166e-01  1.17957e-02        00000 
-1.56710e-01  2.54802e-02        00000 
-1.80742e-01  3.48759e-02        00000 
-1.89734e-01  4.59790e-02        00000 
-2.05306e-01  4.12238e-02        00000 
 1.80751e-01  3.47991e-02        00000 
 2.05315e-01  4.11433e-02        00000 
 1.56718e-01  2.54085e-02        00000 
 1.33173e-01  1.17301e-02        00000 
 1.09824e-01 -5.34801e-03        00000 
 8.63691e-02 -2.42870e-02        00000 
 6.28443e-02 -4.33941e-02        00000 
 3.13830e-06 -4.53685e-02        00000 
 3.13830e-06 -4.53685e-02        00000 
-6.20403e-02 -6.06543e-02        00000 
-4.34394e-02 -7.47583e-02        00000 
-8.25854e-02 -4.29131e-02        00000 
-1.03575e-01 -2.38321e-02        00000 
-1.25287e-01 -5.90793e-03        00000 
-1.47300e-01  1.01730e-02        00000 
-1.69792e-01  2.32054e-02        00000 
-1.93005e-01  3.16282e-02        00000 
-2.16097e-01  3.52055e-02        00000 
 2.16104e-01  3.51246e-02        00000 
 1.93010e-01  3.15515e-02        00000 
 1.69797e-01  2.31338e-02        00000 
 1.47303e-01  1.01069e-02        00000 
 1.25289e-01 -5.96792e-03        00000 
 1.03575e-01 -2.38859e-02        00000 
 8.25834e-02 -4.29597e-02        00000 
 3.97443e-02 -6.07737e-02        00000 
 6.20385e-02 -6.06947e-02        00000 
-2.36699e-06 -5.13421e-02        00000 
-7.09267e-06 -5.55237e-02        00000 
-2.36699e-06 -5.13421e-02        00000 
-1.82638e-02 -6.18811e-02        00000 
-5.87661e-02 -7.53853e-02        00000 
-3.72056e-02 -7.62644e-02        00000 
-1.38383e-01 -6.77252e-03        00000 
-1.59262e-01  8.68867e-03        00000 
-1.80096e-01  2.15211e-02        00000 
-2.00699e-01  2.90533e-02        00000 
-2.21705e-01  2.88763e-02        00000 
 2.21710e-01  2.87961e-02        00000 
 2.43300e-01  2.87412e-02        00000 
 2.00702e-01  2.89768e-02        00000 
 1.80096e-01  2.14497e-02        00000 
 1.59261e-01  8.62243e-03        00000 
 1.38380e-01 -6.83270e-03        00000 
 4.34390e-02 -7.47902e-02        00000 
 5.87546e-02 -7.54166e-02        00000 
 3.71923e-02 -7.62826e-02        00000 
-7.09267e-06 -5.55237e-02        00000 
 1.82495e-02 -6.18901e-02        00000 
-2.21735e-01  2.19511e-02        00000 
-2.43297e-01  2.88272e-02        00000 
-2.44319e-01  2.22737e-02        00000 
 2.21735e-01  2.18693e-02        00000 
 2.44319e-01  2.21879e-02        00000 
-2.44435e-01  1.53577e-02        00000 
-2.21643e-01  1.46467e-02        00000 
 2.21642e-01  1.45624e-02        00000 
 2.44433e-01  1.52731e-02        00000 
-2.45160e-01  7.86175e-03        00000 
-2.22690e-01  7.15487e-03        00000 
 2.22689e-01  7.06993e-03        00000 
 2.45158e-01  7.77753e-03        00000 
-2.45610e-01  4.18572e-05        00000 
-2.23154e-01  4.21499e-05        00000 
 2.23154e-01 -4.26799e-05        00000 
 2.45610e-01 -4.23912e-05        00000 
-2.45159e-01 -7.77808e-03        00000 
-2.22690e-01 -7.07044e-03        00000 
 2.22690e-01 -7.15542e-03        00000 
 2.45159e-01 -7.86227e-03        00000 
-2.44433e-01 -1.52737e-02        00000 
-2.21642e-01 -1.45629e-02        00000 
 2.21643e-01 -1.46473e-02        00000 
 2.44434e-01 -1.53583e-02        00000 
-2.44319e-01 -2.21885e-02        00000 
-2.21735e-01 -2.18698e-02        00000 
 2.21734e-01 -2.19517e-02        00000 
 2.44319e-01 -2.22742e-02        00000 
 7.00933e-06  5.55234e-02        00000 
-1.82496e-02  6.18900e-02        00000 
-1.59261e-01 -8.62256e-03        00000 
-2.21710e-01 -2.87966e-02        00000 
-2.00703e-01 -2.89771e-02        00000 
-2.43301e-01 -2.87417e-02        00000 
 2.21705e-01 -2.88769e-02        00000 
 2.43296e-01 -2.88277e-02        00000 
 1.80096e-01 -2.15219e-02        00000 
 3.72056e-02  7.62635e-02        00000 
 1.82637e-02  6.18805e-02        00000 
-3.71924e-02  7.62828e-02        00000 
-5.87547e-02  7.54169e-02        00000 
-4.34391e-02  7.47905e-02        00000 
-6.20386e-02  6.06949e-02        00000 
-8.25835e-02  4.29599e-02        00000 
-1.25289e-01  5.96791e-03        00000 
-1.03575e-01  2.38860e-02        00000 
-1.47303e-01 -1.01071e-02        00000 
-1.38381e-01  6.83269e-03        00000 
-1.80097e-01 -2.14499e-02        00000 
-1.69797e-01 -2.31340e-02        00000 
-1.93010e-01 -3.15519e-02        00000 
-2.16104e-01 -3.51251e-02        00000 
 2.16097e-01 -3.52061e-02        00000 
 2.00699e-01 -2.90539e-02        00000 
 1.93005e-01 -3.16289e-02        00000 
 1.69792e-01 -2.32062e-02        00000 
 1.59261e-01 -8.68956e-03        00000 
 1.47299e-01 -1.01738e-02        00000 
 1.38383e-01  6.77153e-03        00000 
 1.25287e-01  5.90694e-03        00000 
 1.03575e-01  2.38310e-02        00000 
 8.25852e-02  4.29119e-02        00000 
 4.34392e-02  7.47571e-02        00000 
 6.20402e-02  6.06531e-02        00000 
 5.87660e-02  7.53842e-02        00000 
 7.00933e-06  5.55234e-02        00000 
 2.00132e-06  5.13418e-02        00000 
 2.00132e-06  5.13418e-02        00000 
-3.97444e-02  6.07740e-02        00000 
-6.28443e-02  4.33943e-02        00000 
-8.63691e-02  2.42871e-02        00000 
-1.09824e-01  5.34800e-03        00000 
-1.33173e-01 -1.17302e-02        00000 
-1.56718e-01 -2.54087e-02        00000 
-1.80751e-01 -3.47994e-02        00000 
-2.05316e-01 -4.11437e-02        00000 
 2.05306e-01 -4.12244e-02        00000 
 1.80742e-01 -3.48766e-02        00000 
 1.56710e-01 -2.54809e-02        00000 
 1.33165e-01 -1.17966e-02        00000 
 1.09816e-01  5.28756e-03        00000 
 8.63617e-02  2.42325e-02        00000 
 6.28373e-02  4.33454e-02        00000 
 3.97386e-02  6.07311e-02        00000 
-3.64142e-06  4.53683e-02        00000 
-3.64142e-06  4.53683e-02        00000 
-4.18072e-02  4.61014e-02        00000 
-6.70191e-02  2.57780e-02        00000 
-9.18555e-02  5.00951e-03        00000 
-1.16160e-01 -1.38782e-02        00000 
-1.40296e-01 -2.87881e-02        00000 
-1.64797e-01 -3.89462e-02        00000 
-1.89746e-01 -4.58998e-02        00000 
 1.64784e-01 -3.90239e-02        00000 
 1.89734e-01 -4.59796e-02        00000 
 1.40284e-01 -2.88602e-02        00000 
 1.16147e-01 -1.39437e-02        00000 
 9.18422e-02  4.95036e-03        00000 
 6.70055e-02  2.57245e-02        00000 
 4.17936e-02  4.60526e-02        00000 
-5.86662e-06  4.03601e-02        00000 
-5.86662e-06  4.03601e-02        00000 
-4.48180e-02  2.83993e-02        00000 
-1.81132e-02  5.08295e-02        00000 
-7.07722e-02  4.74102e-03        00000 
-9.57543e-02 -1.70563e-02        00000 
-1.20475e-01 -3.34713e-02        00000 
-1.46343e-01 -4.36062e-02        00000 
 1.46325e-01 -4.36852e-02        00000 
 1.20457e-01 -3.35436e-02        00000 
 9.57358e-02 -1.71202e-02        00000 
 7.07529e-02  4.68368e-03        00000 
 4.47985e-02  2.83471e-02        00000 
 1.80933e-02  5.07818e-02        00000 
-7.03975e-06  3.59834e-02        00000 
-7.03975e-06  3.59834e-02        00000 
-1.81092e-02  3.20225e-02        00000 
-4.52139e-02  4.84287e-03        00000 
-7.11078e-02 -2.21646e-02        00000 
-9.59082e-02 -3.99289e-02        00000 
 9.15178e-02 -2.56754e-02        00000 
 5.47197e-02  5.69597e-02        00000 
 7.25368e-02  1.39855e-02        00000 
 7.53807e-02  1.02205e-01        00000 
 3.86232e-02  1.00820e-01        00000 
 9.81756e-02  6.00301e-02        00000 
 5.03140e-02  1.34595e-01        00000 
 2.55451e-02  1.32994e-01        00000 
 2.47645e-02  1.52369e-01        00000 
 1.32777e-02  1.50243e-01        00000 
-4.41985e-05  1.57727e-01        00000 
-4.71647e-05  1.55635e-01        00000 
-2.48525e-02  1.52376e-01        00000 
-1.33723e-02  1.50249e-01        00000 
-5.04028e-02  1.34609e-01        00000 
-2.56380e-02  1.33007e-01        00000 
-7.54719e-02  1.02219e-01        00000 
-3.87108e-02  1.00833e-01        00000 
-9.82678e-02  6.00378e-02        00000 
-5.48047e-02  5.69663e-02        00000 
-7.26220e-02  1.39875e-02        00000 
 9.58822e-02 -4.00027e-02        00000 
 7.10828e-02 -2.22259e-02        00000 
 4.51878e-02  4.78791e-03        00000 
 1.80839e-02  3.19709e-02        00000 
-7.03081e-06  3.19523e-02        00000 
-7.03081e-06  3.19523e-02        00000 
 1.52291e-02  3.59987e-02        00000 
-1.09952e-02  6.48661e-03        00000 
-3.99329e-02 -2.88382e-02        00000 
 6.82054e-02 -6.16147e-02        00000 
 8.82657e-02 -9.42894e-02        00000 
 4.79477e-02 -2.67197e-02        00000 
 1.11975e-01 -6.13870e-02        00000 
 2.73424e-02  1.11797e-02        00000 
 6.76612e-03  5.23643e-02        00000 
-6.84489e-03  5.23710e-02        00000 
-2.74218e-02  1.11826e-02        00000 
-9.16031e-02 -2.56781e-02        00000 
-4.80275e-02 -2.67219e-02        00000 
-1.12060e-01 -6.13945e-02        00000 
-6.82860e-02 -6.16223e-02        00000 
 3.99004e-02 -2.88909e-02        00000 
 1.09640e-02  6.43260e-03        00000 
-1.52587e-02  3.59475e-02        00000 
-5.87885e-06  2.80636e-02        00000 
-5.13931e-06  2.44060e-02        00000 
-5.87885e-06  2.80636e-02        00000 
 3.22890e-02  7.08982e-03        00000 
 1.94224e-02 -3.65835e-02        00000 
 4.70217e-02 -9.36857e-02        00000 
 6.45488e-02 -1.20074e-01        00000 
 2.75653e-02 -6.26319e-02        00000 
 6.78809e-03 -2.83921e-02        00000 
-1.51394e-02  8.72770e-03        00000 
-3.82534e-02  4.87449e-02        00000 
 1.50658e-02  8.73134e-03        00000 
 3.81797e-02  4.87536e-02        00000 
-6.86159e-03 -2.83936e-02        00000 
-2.76389e-02 -6.26391e-02        00000 
-8.83479e-02 -9.43040e-02        00000 
-4.70958e-02 -9.36994e-02        00000 
-1.94508e-02 -3.66287e-02        00000 
-3.23148e-02  7.03516e-03        00000 
-5.13931e-06  2.44060e-02        00000 
 2.38256e-02  2.39959e-02        00000 
-2.38366e-02  2.39951e-02        00000 
-2.39162e-02  2.06650e-02        00000 
-5.57914e-06  2.09762e-02        00000 