<?xml version="1.0" encoding="utf-8"?>
<VTKFile byte_order="LittleEndian" type="UnstructuredGrid" version="0.1">
   <UnstructuredGrid>
      <Piece NumberOfCells="2840" NumberOfPoints="1548">
         <Points>
            <DataArray Name="Points" NumberOfComponents="3" format="ascii" type="Float32">
-0.5000 -0.4655 0.0000
-0.5000 -0.4310 0.0000
-0.5000 -0.3966 0.0000
-0.5000 -0.3621 0.0000
-0.5000 -0.3276 0.0000
-0.5000 -0.2931 0.0000
-0.5000 -0.2586 0.0000
-0.5000 -0.2241 0.0000
-0.5000 -0.1897 0.0000
-0.5000 -0.1552 0.0000
-0.5000 -0.1207 0.0000
-0.5000 -0.0862 0.0000
-0.5000 -0.0517 0.0000
-0.5000 -0.0172 0.0000
-0.5000 0.0172 0.0000
-0.5000 0.0517 0.0000
-0.5000 0.0862 0.0000
-0.5000 0.1207 0.0000
-0.5000 0.1552 0.0000
-0.5000 0.1897 0.0000
-0.5000 0.2241 0.0000
-0.5000 0.2586 0.0000
-0.5000 0.2931 0.0000
-0.5000 0.3276 0.0000
-0.5000 0.3621 0.0000
-0.5000 0.3966 0.0000
-0.5000 0.4310 0.0000
-0.5000 0.4655 0.0000
-0.5000 0.5000 0.0000
-0.4655 -0.4655 0.0000
-0.4655 -0.4310 0.0000
-0.4655 -0.3966 0.0000
-0.4655 -0.3621 0.0000
-0.4655 -0.3276 0.0000
-0.4655 -0.2931 0.0000
-0.4655 -0.2586 0.0000
-0.4655 -0.2241 0.0000
-0.4655 -0.1897 0.0000
-0.4655 -0.1552 0.0000
-0.4655 -0.1207 0.0000
-0.4655 -0.0862 0.0000
-0.4655 -0.0517 0.0000
-0.4655 -0.0172 0.0000
-0.4655 0.0172 0.0000
-0.4655 0.0517 0.0000
-0.4655 0.0862 0.0000
-0.4655 0.1207 0.0000
-0.4655 0.1552 0.0000
-0.4655 0.1897 0.0000
-0.4655 0.2241 0.0000
-0.4655 0.2586 0.0000
-0.4655 0.2931 0.0000
-0.4655 0.3276 0.0000
-0.4655 0.3621 0.0000
-0.4655 0.3966 0.0000
-0.4655 0.4310 0.0000
-0.4655 0.4655 0.0000
-0.4655 0.5000 0.0000
-0.4310 -0.4655 0.0000
-0.4310 -0.4310 0.0000
-0.4310 -0.3966 0.0000
-0.4310 -0.3621 0.0000
-0.4310 -0.3276 0.0000
-0.4310 -0.2931 0.0000
-0.4310 -0.2586 0.0000
-0.4310 -0.2241 0.0000
-0.4310 -0.1897 0.0000
-0.4310 -0.1552 0.0000
-0.4310 -0.1207 0.0000
-0.4310 -0.0862 0.0000
-0.4310 -0.0517 0.0000
-0.4310 -0.0172 0.0000
-0.4310 0.0172 0.0000
-0.4310 0.0517 0.0000
-0.4310 0.0862 0.0000
-0.4310 0.1207 0.0000
-0.4310 0.1552 0.0000
-0.4310 0.1897 0.0000
-0.4310 0.2241 0.0000
-0.4310 0.2586 0.0000
-0.4310 0.2931 0.0000
-0.4310 0.3276 0.0000
-0.4310 0.3621 0.0000
-0.4310 0.3966 0.0000
-0.4310 0.4310 0.0000
-0.4310 0.4655 0.0000
-0.4310 0.5000 0.0000
-0.3966 -0.4655 0.0000
-0.3966 -0.4310 0.0000
-0.3966 -0.3966 0.0000
-0.3966 -0.3621 0.0000
-0.3966 -0.3276 0.0000
-0.3966 -0.2931 0.0000
-0.3966 -0.2586 0.0000
-0.3966 -0.2241 0.0000
-0.3966 -0.1897 0.0000
-0.3966 -0.1552 0.0000
-0.3966 -0.1207 0.0000
-0.3966 -0.0862 0.0000
-0.3966 -0.0517 0.0000
-0.3966 -0.0172 0.0000
-0.3966 0.0172 0.0000
-0.3966 0.0517 0.0000
-0.3966 0.0862 0.0000
-0.3966 0.1207 0.0000
-0.3966 0.1552 0.0000
-0.3966 0.1897 0.0000
-0.3966 0.2241 0.0000
-0.3966 0.2586 0.0000
-0.3966 0.2931 0.0000
-0.3966 0.3276 0.0000
-0.3966 0.3621 0.0000
-0.3966 0.3966 0.0000
-0.3966 0.4310 0.0000
-0.3966 0.4655 0.0000
-0.3966 0.5000 0.0000
-0.3621 -0.4655 0.0000
-0.3621 -0.4310 0.0000
-0.3621 -0.3966 0.0000
-0.3621 -0.3621 0.0000
-0.3621 -0.3276 0.0000
-0.3621 -0.2931 0.0000
-0.3621 -0.2586 0.0000
-0.3621 -0.2241 0.0000
-0.3621 -0.1897 0.0000
-0.3621 -0.1552 0.0000
-0.3621 -0.1207 0.0000
-0.3621 -0.0862 0.0000
-0.3621 -0.0517 0.0000
-0.3621 -0.0172 0.0000
-0.3621 0.0172 0.0000
-0.3621 0.0517 0.0000
-0.3621 0.0862 0.0000
-0.3621 0.1207 0.0000
-0.3621 0.1552 0.0000
-0.3621 0.1897 0.0000
-0.3621 0.2241 0.0000
-0.3621 0.2586 0.0000
-0.3621 0.2931 0.0000
-0.3621 0.3276 0.0000
-0.3621 0.3621 0.0000
-0.3621 0.3966 0.0000
-0.3621 0.4310 0.0000
-0.3621 0.4655 0.0000
-0.3621 0.5000 0.0000
-0.3276 -0.4655 0.0000
-0.3276 -0.4310 0.0000
-0.3276 -0.3966 0.0000
-0.3276 -0.3621 0.0000
-0.3276 -0.3276 0.0000
-0.3276 -0.2931 0.0000
-0.3276 -0.2586 0.0000
-0.3276 -0.2241 0.0000
-0.3276 -0.1897 0.0000
-0.3276 -0.1552 0.0000
-0.3276 -0.1207 0.0000
-0.3276 -0.0862 0.0000
-0.3276 -0.0517 0.0000
-0.3276 -0.0172 0.0000
-0.3276 0.0172 0.0000
-0.3276 0.0517 0.0000
-0.3276 0.0862 0.0000
-0.3276 0.1207 0.0000
-0.3276 0.1552 0.0000
-0.3276 0.1897 0.0000
-0.3276 0.2241 0.0000
-0.3276 0.2586 0.0000
-0.3276 0.2931 0.0000
-0.3276 0.3276 0.0000
-0.3276 0.3621 0.0000
-0.3276 0.3966 0.0000
-0.3276 0.4310 0.0000
-0.3276 0.4655 0.0000
-0.3276 0.5000 0.0000
-0.2931 -0.4655 0.0000
-0.2931 -0.4310 0.0000
-0.2931 -0.3966 0.0000
-0.2931 -0.3621 0.0000
-0.2931 -0.3276 0.0000
-0.2931 -0.2931 0.0000
-0.2931 -0.2586 0.0000
-0.2931 -0.2241 0.0000
-0.2931 -0.1897 0.0000
-0.2931 -0.1552 0.0000
-0.2931 -0.1207 0.0000
-0.2931 -0.0862 0.0000
-0.2931 -0.0517 0.0000
-0.2931 -0.0172 0.0000
-0.2931 0.0172 0.0000
-0.2931 0.0517 0.0000
-0.2931 0.0862 0.0000
-0.2931 0.1207 0.0000
-0.2931 0.1552 0.0000
-0.2931 0.1897 0.0000
-0.2931 0.2241 0.0000
-0.2931 0.2586 0.0000
-0.2931 0.2931 0.0000
-0.2931 0.3276 0.0000
-0.2931 0.3621 0.0000
-0.2931 0.3966 0.0000
-0.2931 0.4310 0.0000
-0.2931 0.4655 0.0000
-0.2931 0.5000 0.0000
-0.2586 -0.4655 0.0000
-0.2586 -0.4310 0.0000
-0.2586 -0.3966 0.0000
-0.2586 -0.3621 0.0000
-0.2586 -0.3276 0.0000
-0.2586 -0.2931 0.0000
-0.2586 -0.2586 0.0000
-0.2586 -0.2241 0.0000
-0.2586 -0.1897 0.0000
-0.2586 -0.1552 0.0000
-0.2586 -0.1207 0.0000
-0.2586 -0.0862 0.0000
-0.2586 -0.0517 0.0000
-0.2586 0.0862 0.0000
-0.2586 0.1207 0.0000
-0.2586 0.1552 0.0000
-0.2586 0.1897 0.0000
-0.2586 0.2241 0.0000
-0.2586 0.2586 0.0000
-0.2586 0.2931 0.0000
-0.2586 0.3276 0.0000
-0.2586 0.3621 0.0000
-0.2586 0.3966 0.0000
-0.2586 0.4310 0.0000
-0.2586 0.4655 0.0000
-0.2586 0.5000 0.0000
-0.2241 -0.4655 0.0000
-0.2241 -0.4310 0.0000
-0.2241 -0.3966 0.0000
-0.2241 -0.3621 0.0000
-0.2241 -0.3276 0.0000
-0.2241 -0.2931 0.0000
-0.2241 -0.2586 0.0000
-0.2241 -0.2241 0.0000
-0.2241 -0.1897 0.0000
-0.2241 -0.1552 0.0000
-0.2241 0.1897 0.0000
-0.2241 0.2241 0.0000
-0.2241 0.2586 0.0000
-0.2241 0.2931 0.0000
-0.2241 0.3276 0.0000
-0.2241 0.3621 0.0000
-0.2241 0.3966 0.0000
-0.2241 0.4310 0.0000
-0.2241 0.4655 0.0000
-0.2241 0.5000 0.0000
-0.1897 -0.4655 0.0000
-0.1897 -0.4310 0.0000
-0.1897 -0.3966 0.0000
-0.1897 -0.3621 0.0000
-0.1897 -0.3276 0.0000
-0.1897 -0.2931 0.0000
-0.1897 -0.2586 0.0000
-0.1897 -0.2241 0.0000
-0.1897 -0.1897 0.0000
-0.1897 0.2241 0.0000
-0.1897 0.2586 0.0000
-0.1897 0.2931 0.0000
-0.1897 0.3276 0.0000
-0.1897 0.3621 0.0000
-0.1897 0.3966 0.0000
-0.1897 0.4310 0.0000
-0.1897 0.4655 0.0000
-0.1897 0.5000 0.0000
-0.1552 -0.4655 0.0000
-0.1552 -0.4310 0.0000
-0.1552 -0.3966 0.0000
-0.1552 -0.3621 0.0000
-0.1552 -0.3276 0.0000
-0.1552 -0.2931 0.0000
-0.1552 -0.2586 0.0000
-0.1552 -0.2241 0.0000
-0.1552 0.2586 0.0000
-0.1552 0.2931 0.0000
-0.1552 0.3276 0.0000
-0.1552 0.3621 0.0000
-0.1552 0.3966 0.0000
-0.1552 0.4310 0.0000
-0.1552 0.4655 0.0000
-0.1552 0.5000 0.0000
-0.1207 -0.4655 0.0000
-0.1207 -0.4310 0.0000
-0.1207 -0.3966 0.0000
-0.1207 -0.3621 0.0000
-0.1207 -0.3276 0.0000
-0.1207 -0.2931 0.0000
-0.1207 -0.2586 0.0000
-0.1207 -0.2241 0.0000
-0.1207 0.2586 0.0000
-0.1207 0.2931 0.0000
-0.1207 0.3276 0.0000
-0.1207 0.3621 0.0000
-0.1207 0.3966 0.0000
-0.1207 0.4310 0.0000
-0.1207 0.4655 0.0000
-0.1207 0.5000 0.0000
-0.0862 -0.4655 0.0000
-0.0862 -0.4310 0.0000
-0.0862 -0.3966 0.0000
-0.0862 -0.3621 0.0000
-0.0862 -0.3276 0.0000
-0.0862 -0.2931 0.0000
-0.0862 -0.2586 0.0000
-0.0862 0.2931 0.0000
-0.0862 0.3276 0.0000
-0.0862 0.3621 0.0000
-0.0862 0.3966 0.0000
-0.0862 0.4310 0.0000
-0.0862 0.4655 0.0000
-0.0862 0.5000 0.0000
-0.0517 -0.4655 0.0000
-0.0517 -0.4310 0.0000
-0.0517 -0.3966 0.0000
-0.0517 -0.3621 0.0000
-0.0517 -0.3276 0.0000
-0.0517 -0.2931 0.0000
-0.0517 -0.2586 0.0000
-0.0517 0.2931 0.0000
-0.0517 0.3276 0.0000
-0.0517 0.3621 0.0000
-0.0517 0.3966 0.0000
-0.0517 0.4310 0.0000
-0.0517 0.4655 0.0000
-0.0517 0.5000 0.0000
-0.0172 -0.4655 0.0000
-0.0172 -0.4310 0.0000
-0.0172 -0.3966 0.0000
-0.0172 -0.3621 0.0000
-0.0172 -0.3276 0.0000
-0.0172 -0.2931 0.0000
-0.0172 -0.2586 0.0000
-0.0172 0.2931 0.0000
-0.0172 0.3276 0.0000
-0.0172 0.3621 0.0000
-0.0172 0.3966 0.0000
-0.0172 0.4310 0.0000
-0.0172 0.4655 0.0000
-0.0172 0.5000 0.0000
0.0172 -0.4655 0.0000
0.0172 -0.4310 0.0000
0.0172 -0.3966 0.0000
0.0172 -0.3621 0.0000
0.0172 -0.3276 0.0000
0.0172 -0.2931 0.0000
0.0172 -0.2586 0.0000
0.0172 0.2931 0.0000
0.0172 0.3276 0.0000
0.0172 0.3621 0.0000
0.0172 0.3966 0.0000
0.0172 0.4310 0.0000
0.0172 0.4655 0.0000
0.0172 0.5000 0.0000
0.0517 -0.4655 0.0000
0.0517 -0.4310 0.0000
0.0517 -0.3966 0.0000
0.0517 -0.3621 0.0000
0.0517 -0.3276 0.0000
0.0517 -0.2931 0.0000
0.0517 -0.2586 0.0000
0.0517 0.2931 0.0000
0.0517 0.3276 0.0000
0.0517 0.3621 0.0000
0.0517 0.3966 0.0000
0.0517 0.4310 0.0000
0.0517 0.4655 0.0000
0.0517 0.5000 0.0000
0.0862 -0.4655 0.0000
0.0862 -0.4310 0.0000
0.0862 -0.3966 0.0000
0.0862 -0.3621 0.0000
0.0862 -0.3276 0.0000
0.0862 -0.2931 0.0000
0.0862 -0.2586 0.0000
0.0862 0.2931 0.0000
0.0862 0.3276 0.0000
0.0862 0.3621 0.0000
0.0862 0.3966 0.0000
0.0862 0.4310 0.0000
0.0862 0.4655 0.0000
0.0862 0.5000 0.0000
0.1207 -0.4655 0.0000
0.1207 -0.4310 0.0000
0.1207 -0.3966 0.0000
0.1207 -0.3621 0.0000
0.1207 -0.3276 0.0000
0.1207 -0.2931 0.0000
0.1207 -0.2586 0.0000
0.1207 -0.2241 0.0000
0.1207 0.2586 0.0000
0.1207 0.2931 0.0000
0.1207 0.3276 0.0000
0.1207 0.3621 0.0000
0.1207 0.3966 0.0000
0.1207 0.4310 0.0000
0.1207 0.4655 0.0000
0.1207 0.5000 0.0000
0.1552 -0.4655 0.0000
0.1552 -0.4310 0.0000
0.1552 -0.3966 0.0000
0.1552 -0.3621 0.0000
0.1552 -0.3276 0.0000
0.1552 -0.2931 0.0000
0.1552 -0.2586 0.0000
0.1552 -0.2241 0.0000
0.1552 0.2586 0.0000
0.1552 0.2931 0.0000
0.1552 0.3276 0.0000
0.1552 0.3621 0.0000
0.1552 0.3966 0.0000
0.1552 0.4310 0.0000
0.1552 0.4655 0.0000
0.1552 0.5000 0.0000
0.1897 -0.4655 0.0000
0.1897 -0.4310 0.0000
0.1897 -0.3966 0.0000
0.1897 -0.3621 0.0000
0.1897 -0.3276 0.0000
0.1897 -0.2931 0.0000
0.1897 -0.2586 0.0000
0.1897 -0.2241 0.0000
0.1897 -0.1897 0.0000
0.1897 0.2241 0.0000
0.1897 0.2586 0.0000
0.1897 0.2931 0.0000
0.1897 0.3276 0.0000
0.1897 0.3621 0.0000
0.1897 0.3966 0.0000
0.1897 0.4310 0.0000
0.1897 0.4655 0.0000
0.1897 0.5000 0.0000
0.2241 -0.4655 0.0000
0.2241 -0.4310 0.0000
[...]
         <PointData>
            <DataArray Name="fValues" NumberOfComponents="3" format="ascii" type="Float64">
-6.58291e-02        00000        00000 
-6.56872e-02        00000        00000 
-6.54458e-02        00000        00000 
-6.52101e-02        00000        00000 
-6.49745e-02        00000        00000 
-6.47395e-02        00000        00000 
-6.45050e-02        00000        00000 
-6.42710e-02        00000        00000 
-6.40376e-02        00000        00000 
-6.38047e-02        00000        00000 
-6.35723e-02        00000        00000 
-6.33405e-02        00000        00000 
-6.31092e-02        00000        00000 
-6.28784e-02        00000        00000 
-6.26482e-02        00000        00000 
-6.24185e-02        00000        00000 
-6.21893e-02        00000        00000 
-6.19607e-02        00000        00000 
-6.17326e-02        00000        00000 
-6.15050e-02        00000        00000 
-6.12779e-02        00000        00000 
-6.10514e-02        00000        00000 
-6.08254e-02        00000        00000 
-6.05999e-02        00000        00000 
-6.03749e-02        00000        00000 
-6.01507e-02        00000        00000 
-5.99235e-02        00000        00000 
-5.97633e-02        00000        00000 
-5.05204e-02        00000        00000 
-5.07791e-02        00000        00000 
-5.07962e-02        00000        00000 
-5.07845e-02        00000        00000 
-5.07722e-02        00000        00000 
-5.07607e-02        00000        00000 
-5.07496e-02        00000        00000 
-5.07390e-02        00000        00000 
-5.07288e-02        00000        00000 
-5.07192e-02        00000        00000 
-5.07101e-02        00000        00000 
-5.07015e-02        00000        00000 
-5.06933e-02        00000        00000 
-5.06857e-02        00000        00000 
-5.06785e-02        00000        00000 
-5.06719e-02        00000        00000 
-5.06657e-02        00000        00000 
-5.06600e-02        00000        00000 
-5.06548e-02        00000        00000 
-5.06502e-02        00000        00000 
-5.06460e-02        00000        00000 
-5.06423e-02        00000        00000 
-5.06391e-02        00000        00000 
-5.06363e-02        00000        00000 
-5.06341e-02        00000        00000 
-5.06324e-02        00000        00000 
-5.06310e-02        00000        00000 
-5.06310e-02        00000        00000 
-5.06494e-02        00000        00000 
-4.25484e-02        00000        00000 
-4.03693e-02        00000        00000 
-4.03420e-02        00000        00000 
-4.03327e-02        00000        00000 
-4.03219e-02        00000        00000 
-4.03116e-02        00000        00000 
-4.03018e-02        00000        00000 
-4.02924e-02        00000        00000 
-4.02835e-02        00000        00000 
-4.02751e-02        00000        00000 
-4.02671e-02        00000        00000 
-4.02595e-02        00000        00000 
-4.02525e-02        00000        00000 
-4.02458e-02        00000        00000 
-4.02397e-02        00000        00000 
-4.02339e-02        00000        00000 
-4.02287e-02        00000        00000 
-4.02239e-02        00000        00000 
-4.02196e-02        00000        00000 
-4.02157e-02        00000        00000 
-4.02123e-02        00000        00000 
-4.02093e-02        00000        00000 
-4.02068e-02        00000        00000 
-4.02047e-02        00000        00000 
-4.02031e-02        00000        00000 
-4.02020e-02        00000        00000 
-4.02012e-02        00000        00000 
-4.02023e-02        00000        00000 
-4.01917e-02        00000        00000 
-3.36411e-02        00000        00000 
-3.14504e-02        00000        00000 
-3.14340e-02        00000        00000 
-3.14235e-02        00000        00000 
-3.14142e-02        00000        00000 
-3.14052e-02        00000        00000 
-3.13965e-02        00000        00000 
-3.13883e-02        00000        00000 
-3.13806e-02        00000        00000 
-3.13732e-02        00000        00000 
-3.13663e-02        00000        00000 
-3.13598e-02        00000        00000 
-3.13537e-02        00000        00000 
-3.13480e-02        00000        00000 
-3.13427e-02        00000        00000 
-3.13380e-02        00000        00000 
-3.13335e-02        00000        00000 
-3.13295e-02        00000        00000 
-3.13259e-02        00000        00000 
-3.13228e-02        00000        00000 
-3.13201e-02        00000        00000 
-3.13178e-02        00000        00000 
-3.13159e-02        00000        00000 
-3.13144e-02        00000        00000 
-3.13133e-02        00000        00000 
-3.13127e-02        00000        00000 
-3.13126e-02        00000        00000 
-3.13125e-02        00000        00000 
-3.13084e-02        00000        00000 
-2.60354e-02        00000        00000 
-2.39591e-02        00000        00000 
-2.39428e-02        00000        00000 
-2.39342e-02        00000        00000 
-2.39260e-02        00000        00000 
-2.39181e-02        00000        00000 
-2.39106e-02        00000        00000 
-2.39035e-02        00000        00000 
-2.38967e-02        00000        00000 
-2.38906e-02        00000        00000 
-2.38844e-02        00000        00000 
-2.38790e-02        00000        00000 
-2.38739e-02        00000        00000 
-2.38688e-02        00000        00000 
-2.38647e-02        00000        00000 
-2.38604e-02        00000        00000 
-2.38571e-02        00000        00000 
-2.38535e-02        00000        00000 
-2.38509e-02        00000        00000 
-2.38482e-02        00000        00000 
-2.38462e-02        00000        00000 
-2.38444e-02        00000        00000 
-2.38431e-02        00000        00000 
-2.38421e-02        00000        00000 
-2.38416e-02        00000        00000 
-2.38414e-02        00000        00000 
-2.38415e-02        00000        00000 
-2.38422e-02        00000        00000 
-2.38379e-02        00000        00000 
-1.96769e-02        00000        00000 
-1.77630e-02        00000        00000 
-1.77485e-02        00000        00000 
-1.77411e-02        00000        00000 
-1.77340e-02        00000        00000 
-1.77272e-02        00000        00000 
-1.77208e-02        00000        00000 
-1.77146e-02        00000        00000 
-1.77092e-02        00000        00000 
-1.77029e-02        00000        00000 
-1.76995e-02        00000        00000 
-1.76936e-02        00000        00000 
-1.76886e-02        00000        00000 
-1.76867e-02        00000        00000 
-1.76811e-02        00000        00000 
-1.76794e-02        00000        00000 
-1.76743e-02        00000        00000 
-1.76743e-02        00000        00000 
-1.76703e-02        00000        00000 
-1.76688e-02        00000        00000 
-1.76674e-02        00000        00000 
-1.76661e-02        00000        00000 
-1.76652e-02        00000        00000 
-1.76647e-02        00000        00000 
-1.76645e-02        00000        00000 
-1.76647e-02        00000        00000 
-1.76652e-02        00000        00000 
-1.76661e-02        00000        00000 
-1.76626e-02        00000        00000 
-1.44474e-02        00000        00000 
-1.27403e-02        00000        00000 
-1.27274e-02        00000        00000 
-1.27210e-02        00000        00000 
-1.27149e-02        00000        00000 
-1.27092e-02        00000        00000 
-1.27037e-02        00000        00000 
-1.26987e-02        00000        00000 
-1.26931e-02        00000        00000 
-1.26921e-02        00000        00000 
-1.26763e-02        00000        00000 
-1.26850e-02        00000        00000 
-1.26876e-02        00000        00000 
-1.26662e-02        00000        00000 
-1.26742e-02        00000        00000 
-1.26653e-02        00000        00000 
-1.26754e-02        00000        00000 
-1.26545e-02        00000        00000 
-1.26644e-02        00000        00000 
-1.26629e-02        00000        00000 
-1.26602e-02        00000        00000 
-1.26595e-02        00000        00000 
-1.26591e-02        00000        00000 
-1.26589e-02        00000        00000 
-1.26590e-02        00000        00000 
-1.26595e-02        00000        00000 
-1.26603e-02        00000        00000 
-1.26614e-02        00000        00000 
-1.26584e-02        00000        00000 
-1.02374e-02        00000        00000 
-8.76761e-03        00000        00000 
-8.75612e-03        00000        00000 
-8.75078e-03        00000        00000 
-8.74571e-03        00000        00000 
-8.74090e-03        00000        00000 
-8.73643e-03        00000        00000 
-8.73192e-03        00000        00000 
-8.72859e-03        00000        00000 
-8.71281e-03        00000        00000 
-8.75374e-03        00000        00000 
-8.56346e-03        00000        00000 
-8.47991e-03        00000        00000 
-8.66414e-03        00000        00000 
-8.82644e-03        00000        00000 
-8.75265e-03        00000        00000 
-8.70429e-03        00000        00000 
-8.70271e-03        00000        00000 
-8.70208e-03        00000        00000 
-8.70147e-03        00000        00000 
-8.70143e-03        00000        00000 
-8.70189e-03        00000        00000 
-8.70256e-03        00000        00000 
-8.70353e-03        00000        00000 
-8.70476e-03        00000        00000 
-8.70232e-03        00000        00000 
-6.93636e-03        00000        00000 
-5.72168e-03        00000        00000 
-5.71158e-03        00000        00000 
-5.70719e-03        00000        00000 
-5.70302e-03        00000        00000 
-5.69917e-03        00000        00000 
-5.69520e-03        00000        00000 
-5.69195e-03        00000        00000 
-5.68433e-03        00000        00000 
-5.66061e-03        00000        00000 
-5.39192e-03        00000        00000 
-5.69699e-03        00000        00000 
-5.67307e-03        00000        00000 
-5.66855e-03        00000        00000 
-5.66939e-03        00000        00000 
-5.66977e-03        00000        00000 
-5.67063e-03        00000        00000 
-5.67170e-03        00000        00000 
-5.67301e-03        00000        00000 
-5.67100e-03        00000        00000 
-4.43376e-03        00000        00000 
-3.47929e-03        00000        00000 
-3.47050e-03        00000        00000 
-3.46698e-03        00000        00000 
-3.46369e-03        00000        00000 
-3.46042e-03        00000        00000 
-3.45835e-03        00000        00000 
-3.45037e-03        00000        00000 
-3.43117e-03        00000        00000 
-3.24978e-03        00000        00000 
-3.44665e-03        00000        00000 
-3.44224e-03        00000        00000 
-3.43856e-03        00000        00000 
-3.43961e-03        00000        00000 
-3.44048e-03        00000        00000 
-3.44159e-03        00000        00000 
-3.44289e-03        00000        00000 
-3.44125e-03        00000        00000 
-2.61910e-03        00000        00000 
-1.91723e-03        00000        00000 
-1.90967e-03        00000        00000 
-1.90696e-03        00000        00000 
-1.90439e-03        00000        00000 
-1.90223e-03        00000        00000 
-1.89810e-03        00000        00000 
-1.90404e-03        00000        00000 
-1.74594e-03        00000        00000 
-1.88670e-03        00000        00000 
-1.88733e-03        00000        00000 
-1.88803e-03        00000        00000 
-1.88888e-03        00000        00000 
-1.88997e-03        00000        00000 
-1.89120e-03        00000        00000 
-1.88984e-03        00000        00000 
-1.38189e-03        00000        00000 
-9.12251e-04        00000        00000 
-9.05863e-04        00000        00000 
-9.03880e-04        00000        00000 
-9.02044e-04        00000        00000 
-9.00203e-04        00000        00000 
-8.99592e-04        00000        00000 
-8.70273e-04        00000        00000 
-7.25132e-04        00000        00000 
-8.91274e-04        00000        00000 
-8.92476e-04        00000        00000 
-8.91642e-04        00000        00000 
-8.92669e-04        00000        00000 
-8.93602e-04        00000        00000 
-8.94693e-04        00000        00000 
-8.93552e-04        00000        00000 
-6.11642e-04        00000        00000 
-3.41143e-04        00000        00000 
-3.35847e-04        00000        00000 
-3.34525e-04        00000        00000 
-3.33294e-04        00000        00000 
-3.32104e-04        00000        00000 
-3.32104e-04        00000        00000 
-2.92941e-04        00000        00000 
-3.25547e-04        00000        00000 
-3.27997e-04        00000        00000 
-3.28489e-04        00000        00000 
-3.29289e-04        00000        00000 
-3.30153e-04        00000        00000 
-3.29155e-04        00000        00000 
-1.97849e-04        00000        00000 
-8.06761e-05        00000        00000 
-7.63995e-05        00000        00000 
-7.56627e-05        00000        00000 
-7.49701e-05        00000        00000 
-7.44035e-05        00000        00000 
-7.34392e-05        00000        00000 
-5.48733e-05        00000        00000 
-7.20199e-05        00000        00000 
-7.27818e-05        00000        00000 
-7.32663e-05        00000        00000 
-7.37790e-05        00000        00000 
-7.43549e-05        00000        00000 
-7.34244e-05        00000        00000 
-3.00181e-05        00000        00000 
-7.62508e-06        00000        00000 
-4.29491e-06        00000        00000 
-4.06632e-06        00000        00000 
-3.87080e-06        00000        00000 
-3.62976e-06        00000        00000 
-3.13254e-06        00000        00000 
 4.16343e-06        00000        00000 
-4.15427e-06        00000        00000 
-3.42915e-06        00000        00000 
-3.67687e-06        00000        00000 
-3.86114e-06        00000        00000 
-4.07005e-06        00000        00000 
-3.13509e-06        00000        00000 
 2.34580e-06        00000        00000 
 1.23576e-06        00000        00000 
 3.69364e-06        00000        00000 
 3.47964e-06        00000        00000 
 3.30238e-06        00000        00000 
 2.98992e-06        00000        00000 
 4.06589e-06        00000        00000 
 1.28148e-05        00000        00000 
 3.02964e-06        00000        00000 
 3.25558e-06        00000        00000 
 3.48932e-06        00000        00000 
 3.69454e-06        00000        00000 
 3.92597e-06        00000        00000 
 4.93871e-06        00000        00000 
 9.73859e-06        00000        00000 
 6.91323e-05        00000        00000 
 7.07902e-05        00000        00000 
 7.02131e-05        00000        00000 
 6.96853e-05        00000        00000 
 6.93056e-05        00000        00000 
 6.75148e-05        00000        00000 
 1.09784e-04        00000        00000 
 7.01029e-05        00000        00000 
 7.08123e-05        00000        00000 
 7.14260e-05        00000        00000 
 7.21162e-05        00000        00000 
 7.28588e-05        00000        00000 
 7.40226e-05        00000        00000 
 1.02656e-04        00000        00000 
 3.19290e-04        00000        00000 
 3.20221e-04        00000        00000 
 3.19354e-04        00000        00000 
 3.18557e-04        00000        00000 
 3.18024e-04        00000        00000 
 3.15915e-04        00000        00000 
 3.52778e-04        00000        00000 
 3.21467e-04        00000        00000 
 3.22254e-04        00000        00000 
 3.23385e-04        00000        00000 
 3.24627e-04        00000        00000 
 3.25954e-04        00000        00000 
 3.27342e-04        00000        00000 
 3.91594e-04        00000        00000 
 8.74935e-04        00000        00000 
 8.75213e-04        00000        00000 
 8.74120e-04        00000        00000 
 8.73193e-04        00000        00000 
 8.72099e-04        00000        00000 
 8.73624e-04        00000        00000 
 8.64943e-04        00000        00000 
 1.11817e-03        00000        00000 
 8.62009e-04        00000        00000 
 8.80021e-04        00000        00000 
 8.80767e-04        00000        00000 
 8.82607e-04        00000        00000 
 8.84450e-04        00000        00000 
 8.86439e-04        00000        00000 
 8.88124e-04        00000        00000 
 9.87049e-04        00000        00000 
 1.85929e-03        00000        00000 
 1.85899e-03        00000        00000 
 1.85776e-03        00000        00000 
 1.85666e-03        00000        00000 
 1.85591e-03        00000        00000 
 1.85454e-03        00000        00000 
 1.85770e-03        00000        00000 
 1.93706e-03        00000        00000 
 1.87071e-03        00000        00000 
 1.86655e-03        00000        00000 
 1.87001e-03        00000        00000 
 1.87225e-03        00000        00000 
 1.87482e-03        00000        00000 
 1.87754e-03        00000        00000 
 1.87959e-03        00000        00000 
 1.99952e-03        00000        00000 
 3.39559e-03        00000        00000 
 3.39478e-03        00000        00000 
 3.39347e-03        00000        00000 
 3.39237e-03        00000        00000 
 3.39144e-03        00000        00000 
 3.39068e-03        00000        00000 
 3.39313e-03        00000        00000 
 3.38970e-03        00000        00000 
 3.49249e-03        00000        00000 
 3.39669e-03        00000        00000 
 3.40479e-03        00000        00000 
 3.41002e-03        00000        00000 
 3.41242e-03        00000        00000 
 3.41564e-03        00000        00000 
 3.41895e-03        00000        00000 
 3.42247e-03        00000        00000 
 3.42497e-03        00000        00000 
 3.53949e-03        00000        00000 
 5.60705e-03        00000        00000 
 5.60580e-03        00000        00000 
 5.60450e-03        00000        00000 
 5.60343e-03        00000        00000 
 5.60258e-03        00000        00000 
 5.60215e-03        00000        00000 
 5.60123e-03        00000        00000 
 5.60430e-03        00000        00000 
 5.61483e-03        00000        00000 
 5.57965e-03        00000        00000 
 5.65195e-03        00000        00000 
 5.52214e-03        00000        00000 
 5.61228e-03        00000        00000 
 5.62176e-03        00000        00000 
 5.62475e-03        00000        00000 
 5.62820e-03        00000        00000 
 5.63202e-03        00000        00000 
 5.63591e-03        00000        00000 
 5.64008e-03        00000        00000 
 5.64448e-03        00000        00000 
 5.64749e-03        00000        00000 
 5.71747e-03        00000        00000 
 8.61690e-03        00000        00000 
 8.61529e-03        00000        00000 
 8.61406e-03        00000        00000 
 8.61310e-03        00000        00000 
 8.61242e-03        00000        00000 
 8.61197e-03        00000        00000 
 8.61197e-03        00000        00000 
 8.61243e-03        00000        00000 
 8.61032e-03        00000        00000 
 8.61805e-03        00000        00000 
 8.60347e-03        00000        00000 
 8.65855e-03        00000        00000 
 8.53136e-03        00000        00000 
 8.58714e-03        00000        00000 
 8.64357e-03        00000        00000 
 8.62415e-03        00000        00000 
 8.58182e-03        00000        00000 
 8.55232e-03        00000        00000 
 8.65162e-03        00000        00000 
 8.63045e-03        00000        00000 
 8.63894e-03        00000        00000 
 8.64274e-03        00000        00000 
 8.64702e-03        00000        00000 
 8.65153e-03        00000        00000 
 8.65634e-03        00000        00000 
 8.66142e-03        00000        00000 
 8.66677e-03        00000        00000 
 8.67038e-03        00000        00000 
 8.64395e-03        00000        00000 
 1.25484e-02        00000        00000 
 1.25465e-02        00000        00000 
 1.25454e-02        00000        00000 
 1.25446e-02        00000        00000 
 1.25441e-02        00000        00000 
 1.25440e-02        00000        00000 
 1.25442e-02        00000        00000 
 1.25445e-02        00000        00000 
 1.25458e-02        00000        00000 
 1.25454e-02        00000        00000 
 1.25511e-02        00000        00000 
 1.25422e-02        00000        00000 
 1.25588e-02        00000        00000 