<?xml version="1.0" encoding="utf-8"?>
<VTKFile byte_order="LittleEndian" type="UnstructuredGrid" version="0.1">
   <UnstructuredGrid>
      <Piece NumberOfCells="2840" NumberOfPoints="1548">
         <Points>
            <DataArray Name="Points" NumberOfComponents="3" format="ascii" type="Float32">
-0.5000 -0.4655 0.0000
-0.5000 -0.4310 0.0000
-0.5000 -0.3966 0.0000
-0.5000 -0.3621 0.0000
-0.5000 -0.3276 0.0000
-0.5000 -0.2931 0.0000
-0.5000 -0.2586 0.0000
-0.5000 -0.2241 0.0000
-0.5000 -0.1897 0.0000
-0.5000 -0.1552 0.0000
-0.5000 -0.1207 0.0000
-0.5000 -0.0862 0.0000
-0.5000 -0.0517 0.0000
-0.5000 -0.0172 0.0000
-0.5000 0.0172 0.0000
-0.5000 0.0517 0.0000
-0.5000 0.0862 0.0000
-0.5000 0.1207 0.0000
-0.5000 0.1552 0.0000
-0.5000 0.1897 0.0000
-0.5000 0.2241 0.0000
-0.5000 0.2586 0.0000
-0.5000 0.2931 0.0000
-0.5000 0.3276 0.0000
-0.5000 0.3621 0.0000
-0.5000 0.3966 0.0000
-0.5000 0.4310 0.0000
-0.5000 0.4655 0.0000
-0.5000 0.5000 0.0000
-0.4655 -0.4655 0.0000
-0.4655 -0.4310 0.0000
-0.4655 -0.3966 0.0000
-0.4655 -0.3621 0.0000
-0.4655 -0.3276 0.0000
-0.4655 -0.2931 0.0000
-0.4655 -0.2586 0.0000
-0.4655 -0.2241 0.0000
-0.4655 -0.1897 0.0000
-0.4655 -0.1552 0.0000
-0.4655 -0.1207 0.0000
-0.4655 -0.0862 0.0000
-0.4655 -0.0517 0.0000
-0.4655 -0.0172 0.0000
-0.4655 0.0172 0.0000
-0.4655 0.0517 0.0000
-0.4655 0.0862 0.0000
-0.4655 0.1207 0.0000
-0.4655 0.1552 0.0000
-0.4655 0.1897 0.0000
-0.4655 0.2241 0.0000
-0.4655 0.2586 0.0000
-0.4655 0.2931 0.0000
-0.4655 0.3276 0.0000
-0.4655 0.3621 0.0000
-0.4655 0.3966 0.0000
-0.4655 0.4310 0.0000
-0.4655 0.4655 0.0000
-0.4655 0.5000 0.0000
-0.4310 -0.4655 0.0000
-0.4310 -0.4310 0.0000
-0.4310 -0.3966 0.0000
-0.4310 -0.3621 0.0000
-0.4310 -0.3276 0.0000
-0.4310 -0.2931 0.0000
-0.4310 -0.2586 0.0000
-0.4310 -0.2241 0.0000
-0.4310 -0.1897 0.0000
-0.4310 -0.1552 0.0000
-0.4310 -0.1207 0.0000
-0.4310 -0.0862 0.0000
-0.4310 -0.0517 0.0000
-0.4310 -0.0172 0.0000
-0.4310 0.0172 0.0000
-0.4310 0.0517 0.0000
-0.4310 0.0862 0.0000
-0.4310 0.1207 0.0000
-0.4310 0.1552 0.0000
-0.4310 0.1897 0.0000
-0.4310 0.2241 0.0000
-0.4310 0.2586 0.0000
-0.4310 0.2931 0.0000
-0.4310 0.3276 0.0000
-0.4310 0.3621 0.0000
-0.4310 0.3966 0.0000
-0.4310 0.4310 0.0000
-0.4310 0.4655 0.0000
-0.4310 0.5000 0.0000
-0.3966 -0.4655 0.0000
-0.3966 -0.4310 0.0000
-0.3966 -0.3966 0.0000
-0.3966 -0.3621 0.0000
-0.3966 -0.3276 0.0000
-0.3966 -0.2931 0.0000
-0.3966 -0.2586 0.0000
-0.3966 -0.2241 0.0000
-0.3966 -0.1897 0.0000
-0.3966 -0.1552 0.0000
-0.3966 -0.1207 0.0000
-0.3966 -0.0862 0.0000
-0.3966 -0.0517 0.0000
-0.3966 -0.0172 0.0000
-0.3966 0.0172 0.0000
-0.3966 0.0517 0.0000
-0.3966 0.0862 0.0000
-0.3966 0.1207 0.0000
-0.3966 0.1552 0.0000
-0.3966 0.1897 0.0000
-0.3966 0.2241 0.0000
-0.3966 0.2586 0.0000
-0.3966 0.2931 0.0000
-0.3966 0.3276 0.0000
-0.3966 0.3621 0.0000
-0.3966 0.3966 0.0000
-0.3966 0.4310 0.0000
-0.3966 0.4655 0.0000
-0.3966 0.5000 0.0000
-0.3621 -0.4655 0.0000
-0.3621 -0.4310 0.0000
-0.3621 -0.3966 0.0000
-0.3621 -0.3621 0.0000
-0.3621 -0.3276 0.0000
-0.3621 -0.2931 0.0000
-0.3621 -0.2586 0.0000
-0.3621 -0.2241 0.0000
-0.3621 -0.1897 0.0000
-0.3621 -0.1552 0.0000
-0.3621 -0.1207 0.0000
-0.3621 -0.0862 0.0000
-0.3621 -0.0517 0.0000
-0.3621 -0.0172 0.0000
-0.3621 0.0172 0.0000
-0.3621 0.0517 0.0000
-0.3621 0.0862 0.0000
-0.3621 0.1207 0.0000
-0.3621 0.1552 0.0000
-0.3621 0.1897 0.0000
-0.3621 0.2241 0.0000
-0.3621 0.2586 0.0000
-0.3621 0.2931 0.0000
-0.3621 0.3276 0.0000
-0.3621 0.3621 0.0000
-0.3621 0.3966 0.0000
-0.3621 0.4310 0.0000
-0.3621 0.4655 0.0000
-0.3621 0.5000 0.0000
-0.3276 -0.4655 0.0000
-0.3276 -0.4310 0.0000
-0.3276 -0.3966 0.0000
-0.3276 -0.3621 0.0000
-0.3276 -0.3276 0.0000
-0.3276 -0.2931 0.0000
-0.3276 -0.2586 0.0000
-0.3276 -0.2241 0.0000
-0.3276 -0.1897 0.0000
-0.3276 -0.1552 0.0000
-0.3276 -0.1207 0.0000
-0.3276 -0.0862 0.0000
-0.3276 -0.0517 0.0000
-0.3276 -0.0172 0.0000
-0.3276 0.0172 0.0000
-0.3276 0.0517 0.0000
-0.3276 0.0862 0.0000
-0.3276 0.1207 0.0000
-0.3276 0.1552 0.0000
-0.3276 0.1897 0.0000
-0.3276 0.2241 0.0000
-0.3276 0.2586 0.0000
-0.3276 0.2931 0.0000
-0.3276 0.3276 0.0000
-0.3276 0.3621 0.0000
-0.3276 0.3966 0.0000
-0.3276 0.4310 0.0000
-0.3276 0.4655 0.0000
-0.3276 0.5000 0.0000
-0.2931 -0.4655 0.0000
-0.2931 -0.4310 0.0000
-0.2931 -0.3966 0.0000
-0.2931 -0.3621 0.0000
-0.2931 -0.3276 0.0000
-0.2931 -0.2931 0.0000
-0.2931 -0.2586 0.0000
-0.2931 -0.2241 0.0000
-0.2931 -0.1897 0.0000
-0.2931 -0.1552 0.0000
-0.2931 -0.1207 0.0000
-0.2931 -0.0862 0.0000
-0.2931 -0.0517 0.0000
-0.2931 -0.0172 0.0000
-0.2931 0.0172 0.0000
-0.2931 0.0517 0.0000
-0.2931 0.0862 0.0000
-0.2931 0.1207 0.0000
-0.2931 0.1552 0.0000
-0.2931 0.1897 0.0000
-0.2931 0.2241 0.0000
-0.2931 0.2586 0.0000
-0.2931 0.2931 0.0000
-0.2931 0.3276 0.0000
-0.2931 0.3621 0.0000
-0.2931 0.3966 0.0000
-0.2931 0.4310 0.0000
-0.2931 0.4655 0.0000
-0.2931 0.5000 0.0000
-0.2586 -0.4655 0.0000
-0.2586 -0.4310 0.0000
-0.2586 -0.3966 0.0000
-0.2586 -0.3621 0.0000
-0.2586 -0.3276 0.0000
-0.2586 -0.2931 0.0000
-0.2586 -0.2586 0.0000
-0.2586 -0.2241 0.0000
-0.2586 -0.1897 0.0000
-0.2586 -0.1552 0.0000
-0.2586 -0.1207 0.0000
-0.2586 -0.0862 0.0000
-0.2586 -0.0517 0.0000
-0.2586 0.0862 0.0000
-0.2586 0.1207 0.0000
-0.2586 0.1552 0.0000
-0.2586 0.1897 0.0000
-0.2586 0.2241 0.0000
-0.2586 0.2586 0.0000
-0.2586 0.2931 0.0000
-0.2586 0.3276 0.0000
-0.2586 0.3621 0.0000
-0.2586 0.3966 0.0000
-0.2586 0.4310 0.0000
-0.2586 0.4655 0.0000
-0.2586 0.5000 0.0000
-0.2241 -0.4655 0.0000
-0.2241 -0.4310 0.0000
-0.2241 -0.3966 0.0000
-0.2241 -0.3621 0.0000
-0.2241 -0.3276 0.0000
-0.2241 -0.2931 0.0000
-0.2241 -0.2586 0.0000
-0.2241 -0.2241 0.0000
-0.2241 -0.1897 0.0000
-0.2241 -0.1552 0.0000
-0.2241 0.1897 0.0000
-0.2241 0.2241 0.0000
-0.2241 0.2586 0.0000
-0.2241 0.2931 0.0000
-0.2241 0.3276 0.0000
-0.2241 0.3621 0.0000
-0.2241 0.3966 0.0000
-0.2241 0.4310 0.0000
-0.2241 0.4655 0.0000
-0.2241 0.5000 0.0000
-0.1897 -0.4655 0.0000
-0.1897 -0.4310 0.0000
-0.1897 -0.3966 0.0000
-0.1897 -0.3621 0.0000
-0.1897 -0.3276 0.0000
-0.1897 -0.2931 0.0000
-0.1897 -0.2586 0.0000
-0.1897 -0.2241 0.0000
-0.1897 -0.1897 0.0000
-0.1897 0.2241 0.0000
-0.1897 0.2586 0.0000
-0.1897 0.2931 0.0000
-0.1897 0.3276 0.0000
-0.1897 0.3621 0.0000
-0.1897 0.3966 0.0000
-0.1897 0.4310 0.0000
-0.1897 0.4655 0.0000
-0.1897 0.5000 0.0000
-0.1552 -0.4655 0.0000
-0.1552 -0.4310 0.0000
-0.1552 -0.3966 0.0000
-0.1552 -0.3621 0.0000
-0.1552 -0.3276 0.0000
-0.1552 -0.2931 0.0000
-0.1552 -0.2586 0.0000
-0.1552 -0.2241 0.0000
-0.1552 0.2586 0.0000
-0.1552 0.2931 0.0000
-0.1552 0.3276 0.0000
-0.1552 0.3621 0.0000
-0.1552 0.3966 0.0000
-0.1552 0.4310 0.0000
-0.1552 0.4655 0.0000
-0.1552 0.5000 0.0000
-0.1207 -0.4655 0.0000
-0.1207 -0.4310 0.0000
-0.1207 -0.3966 0.0000
-0.1207 -0.3621 0.0000
-0.1207 -0.3276 0.0000
-0.1207 -0.2931 0.0000
-0.1207 -0.2586 0.0000
-0.1207 -0.2241 0.0000
-0.1207 0.2586 0.0000
-0.1207 0.2931 0.0000
-0.1207 0.3276 0.0000
-0.1207 0.3621 0.0000
-0.1207 0.3966 0.0000
-0.1207 0.4310 0.0000
-0.1207 0.4655 0.0000
-0.1207 0.5000 0.0000
-0.0862 -0.4655 0.0000
-0.0862 -0.4310 0.0000
-0.0862 -0.3966 0.0000
-0.0862 -0.3621 0.0000
-0.0862 -0.3276 0.0000
-0.0862 -0.2931 0.0000
-0.0862 -0.2586 0.0000
-0.0862 0.2931 0.0000
-0.0862 0.3276 0.0000
-0.0862 0.3621 0.0000
-0.0862 0.3966 0.0000
-0.0862 0.4310 0.0000
-0.0862 0.4655 0.0000
-0.0862 0.5000 0.0000
-0.0517 -0.4655 0.0000
-0.0517 -0.4310 0.0000
-0.0517 -0.3966 0.0000
-0.0517 -0.3621 0.0000
-0.0517 -0.3276 0.0000
-0.0517 -0.2931 0.0000
-0.0517 -0.2586 0.0000
-0.0517 0.2931 0.0000
-0.0517 0.3276 0.0000
-0.0517 0.3621 0.0000
-0.0517 0.3966 0.0000
-0.0517 0.4310 0.0000
-0.0517 0.4655 0.0000
-0.0517 0.5000 0.0000
-0.0172 -0.4655 0.0000
-0.0172 -0.4310 0.0000
-0.0172 -0.3966 0.0000
-0.0172 -0.3621 0.0000
-0.0172 -0.3276 0.0000
-0.0172 -0.2931 0.0000
-0.0172 -0.2586 0.0000
-0.0172 0.2931 0.0000
-0.0172 0.3276 0.0000
-0.0172 0.3621 0.0000
-0.0172 0.3966 0.0000
-0.0172 0.4310 0.0000
-0.0172 0.4655 0.0000
-0.0172 0.5000 0.0000
0.0172 -0.4655 0.0000
0.0172 -0.4310 0.0000
0.0172 -0.3966 0.0000
0.0172 -0.3621 0.0000
0.0172 -0.3276 0.0000
0.0172 -0.2931 0.0000
0.0172 -0.2586 0.0000
0.0172 0.2931 0.0000
0.0172 0.3276 0.0000
0.0172 0.3621 0.0000
0.0172 0.3966 0.0000
0.0172 0.4310 0.0000
0.0172 0.4655 0.0000
0.0172 0.5000 0.0000
0.0517 -0.4655 0.0000
0.0517 -0.4310 0.0000
0.0517 -0.3966 0.0000
0.0517 -0.3621 0.0000
0.0517 -0.3276 0.0000
0.0517 -0.2931 0.0000
0.0517 -0.2586 0.0000
0.0517 0.2931 0.0000
0.0517 0.3276 0.0000
0.0517 0.3621 0.0000
0.0517 0.3966 0.0000
0.0517 0.4310 0.0000
0.0517 0.4655 0.0000
0.0517 0.5000 0.0000
0.0862 -0.4655 0.0000
0.0862 -0.4310 0.0000
0.0862 -0.3966 0.0000
0.0862 -0.3621 0.0000
0.0862 -0.3276 0.0000
0.0862 -0.2931 0.0000
0.0862 -0.2586 0.0000
0.0862 0.2931 0.0000
0.0862 0.3276 0.0000
0.0862 0.3621 0.0000
0.0862 0.3966 0.0000
0.0862 0.4310 0.0000
0.0862 0.4655 0.0000
0.0862 0.5000 0.0000
0.1207 -0.4655 0.0000
0.1207 -0.4310 0.0000
0.1207 -0.3966 0.0000
0.1207 -0.3621 0.0000
0.1207 -0.3276 0.0000
0.1207 -0.2931 0.0000
0.1207 -0.2586 0.0000
0.1207 -0.2241 0.0000
0.1207 0.2586 0.0000
0.1207 0.2931 0.0000
0.1207 0.3276 0.0000
0.1207 0.3621 0.0000
0.1207 0.3966 0.0000
0.1207 0.4310 0.0000
0.1207 0.4655 0.0000
0.1207 0.5000 0.0000
0.1552 -0.4655 0.0000
0.1552 -0.4310 0.0000
0.1552 -0.3966 0.0000
0.1552 -0.3621 0.0000
0.1552 -0.3276 0.0000
0.1552 -0.2931 0.0000
0.1552 -0.2586 0.0000
0.1552 -0.2241 0.0000
0.1552 0.2586 0.0000
0.1552 0.2931 0.0000
0.1552 0.3276 0.0000
0.1552 0.3621 0.0000
0.1552 0.3966 0.0000
0.1552 0.4310 0.0000
0.1552 0.4655 0.0000
0.1552 0.5000 0.0000
0.1897 -0.4655 0.0000
0.1897 -0.4310 0.0000
0.1897 -0.3966 0.0000
0.1897 -0.3621 0.0000
0.1897 -0.3276 0.0000
0.1897 -0.2931 0.0000
0.1897 -0.2586 0.0000
0.1897 -0.2241 0.0000
0.1897 -0.1897 0.0000
0.1897 0.2241 0.0000
0.1897 0.2586 0.0000
0.1897 0.2931 0.0000
0.1897 0.3276 0.0000
0.1897 0.3621 0.0000
0.1897 0.3966 0.0000
0.1897 0.4310 0.0000
0.1897 0.4655 0.0000
0.1897 0.5000 0.0000
0.2241 -0.4655 0.0000
0.2241 -0.4310 0.0000
[...]
         <PointData>
            <DataArray Name="fValues" NumberOfComponents="3" format="ascii" type="Float64">
-8.45171e-02  1.02596e-02        00000 
-8.54789e-02  1.18132e-02        00000 
-8.41675e-02  1.04173e-02        00000 
-8.13011e-02  8.09481e-03        00000 
-7.75174e-02  5.45592e-03        00000 
-7.30737e-02  2.77244e-03        00000 
-6.81700e-02  1.89430e-04        00000 
-6.29942e-02 -2.20333e-03        00000 
-5.77572e-02 -4.34467e-03        00000 
-5.27045e-02 -6.19002e-03        00000 
-4.81135e-02 -7.70552e-03        00000 
-4.42746e-02 -8.86512e-03        00000 
-4.14584e-02 -9.64928e-03        00000 
-3.98769e-02 -1.00447e-02        00000 
-3.96467e-02 -1.00447e-02        00000 
-4.07677e-02 -9.64928e-03        00000 
-4.31234e-02 -8.86512e-03        00000 
-4.65018e-02 -7.70552e-03        00000 
-5.06323e-02 -6.19002e-03        00000 
-5.52246e-02 -4.34467e-03        00000 
-6.00011e-02 -2.20333e-03        00000 
-6.47164e-02  1.89430e-04        00000 
-6.91596e-02  2.77244e-03        00000 
-7.31427e-02  5.45592e-03        00000 
-7.64659e-02  8.09481e-03        00000 
-7.88724e-02  1.04173e-02        00000 
-7.97151e-02  1.18132e-02        00000 
-7.84514e-02  1.02596e-02        00000 
-5.05204e-02  1.70184e-18        00000 
-6.53508e-02  1.03765e-02        00000 
-6.61093e-02  6.67225e-03        00000 
-6.41303e-02  3.64032e-03        00000 
-6.10467e-02  6.01714e-04        00000 
-5.71612e-02 -2.38073e-03        00000 
-5.27030e-02 -5.22988e-03        00000 
-4.78383e-02 -7.88498e-03        00000 
-4.27391e-02 -1.03083e-02        00000 
-3.76060e-02 -1.24798e-02        00000 
-3.26802e-02 -1.43902e-02        00000 
-2.82399e-02 -1.60335e-02        00000 
-2.45801e-02 -1.73992e-02        00000 
-2.19784e-02 -1.84657e-02        00000 
-2.06511e-02 -1.91988e-02        00000 
-2.07134e-02 -1.95561e-02        00000 
-2.21564e-02 -1.94963e-02        00000 
-2.48469e-02 -1.89899e-02        00000 
-2.85532e-02 -1.80281e-02        00000 
-3.29851e-02 -1.66257e-02        00000 
-3.78363e-02 -1.48196e-02        00000 
-4.28183e-02 -1.26645e-02        00000 
-4.76785e-02 -1.02281e-02        00000 
-5.22009e-02 -7.59077e-03        00000 
-5.61890e-02 -4.85052e-03        00000 
-5.94326e-02 -2.13610e-03        00000 
-6.16111e-02  3.72346e-04        00000 
-6.22884e-02  2.47409e-03        00000 
-5.94274e-02  4.40964e-03        00000 
-5.23496e-02  1.43611e-02        00000 
-5.10304e-02  7.90807e-03        00000 
-5.05680e-02  3.07156e-03        00000 
-4.83915e-02 -1.36374e-03        00000 
-4.50420e-02 -5.22742e-03        00000 
-4.09421e-02 -8.68655e-03        00000 
-3.62890e-02 -1.17972e-02        00000 
-3.12384e-02 -1.45857e-02        00000 
-2.59481e-02 -1.70733e-02        00000 
-2.06094e-02 -1.92875e-02        00000 
-1.54638e-02 -2.12608e-02        00000 
-1.08034e-02 -2.30211e-02        00000 
-6.95090e-03 -2.45784e-02        00000 
-4.21915e-03 -2.59126e-02        00000 
-2.85624e-03 -2.69700e-02        00000 
-2.99274e-03 -2.76712e-02        00000 
-4.61027e-03 -2.79311e-02        00000 
-7.54338e-03 -2.76822e-02        00000 
-1.15143e-02 -2.68919e-02        00000 
-1.61866e-02 -2.55695e-02        00000 
-2.12185e-02 -2.37604e-02        00000 
-2.63017e-02 -2.15339e-02        00000 
-3.11796e-02 -1.89688e-02        00000 
-3.56455e-02 -1.61422e-02        00000 
-3.95261e-02 -1.31181e-02        00000 
-4.26539e-02 -9.92857e-03        00000 
-4.48685e-02 -6.50773e-03        00000 
-4.59582e-02 -2.49532e-03        00000 
-4.72023e-02  3.74932e-03        00000 
-4.48715e-02  1.20723e-02        00000 
-3.89764e-02  3.96156e-03        00000 
-3.70098e-02 -9.68105e-04        00000 
-3.43820e-02 -5.75709e-03        00000 
-3.08570e-02 -1.00854e-02        00000 
-2.66112e-02 -1.38949e-02        00000 
-2.18098e-02 -1.72289e-02        00000 
-1.65835e-02 -2.01369e-02        00000 
-1.10707e-02 -2.26750e-02        00000 
-5.44913e-03 -2.49095e-02        00000 
 3.78158e-05 -2.69128e-02        00000 
 5.07253e-03 -2.87498e-02        00000 
 9.27963e-03 -3.04564e-02        00000 
 1.22763e-02 -3.20182e-02        00000 
 1.37491e-02 -3.33630e-02        00000 
 1.35310e-02 -3.43732e-02        00000 
 1.16502e-02 -3.49176e-02        00000 
 8.32522e-03 -3.48884e-02        00000 
 3.91157e-03 -3.42300e-02        00000 
-1.17774e-03 -3.29466e-02        00000 
-6.54549e-03 -3.10921e-02        00000 
-1.18582e-02 -2.87473e-02        00000 
-1.68633e-02 -2.59955e-02        00000 
-2.13838e-02 -2.28998e-02        00000 
-2.53030e-02 -1.94814e-02        00000 
-2.85604e-02 -1.56858e-02        00000 
-3.11765e-02 -1.13217e-02        00000 
-3.35216e-02 -5.92240e-03        00000 
-3.64887e-02  8.47145e-04        00000 
-3.59249e-02  8.90493e-03        00000 
-2.84240e-02  1.45755e-04        00000 
-2.54863e-02 -4.97005e-03        00000 
-2.22776e-02 -9.84935e-03        00000 
-1.84978e-02 -1.43374e-02        00000 
-1.41107e-02 -1.83226e-02        00000 
-9.17993e-03 -2.17850e-02        00000 
-3.78490e-03 -2.47572e-02        00000 
 1.97553e-03 -2.73030e-02        00000 
 7.95068e-03 -2.95122e-02        00000 
 1.39026e-02 -3.14908e-02        00000 
 1.94791e-02 -3.33400e-02        00000 
 2.42253e-02 -3.51232e-02        00000 
 2.76459e-02 -3.68345e-02        00000 
 2.93163e-02 -3.83861e-02        00000 
 2.90079e-02 -3.96264e-02        00000 
 2.67581e-02 -4.03825e-02        00000 
 2.28679e-02 -4.05117e-02        00000 
 1.78103e-02 -3.99372e-02        00000 
 1.21129e-02 -3.86595e-02        00000 
 6.24876e-03 -3.67390e-02        00000 
 5.80530e-04 -3.42655e-02        00000 
-4.65379e-03 -3.13246e-02        00000 
-9.32593e-03 -2.79683e-02        00000 
-1.33974e-02 -2.41920e-02        00000 
-1.69143e-02 -1.99121e-02        00000 
-2.00553e-02 -1.49469e-02        00000 
-2.31939e-02 -9.08658e-03        00000 
-2.68766e-02 -2.22329e-03        00000 
-2.74031e-02  5.45104e-03        00000 
-1.92668e-02 -3.29249e-03        00000 
-1.56893e-02 -8.57338e-03        00000 
-1.19957e-02 -1.35330e-02        00000 
-7.93206e-03 -1.80830e-02        00000 
-3.38790e-03 -2.21359e-02        00000 
 1.66612e-03 -2.56486e-02        00000 
 7.22400e-03 -2.86314e-02        00000 
 1.32491e-02 -3.11431e-02        00000 
 1.96434e-02 -3.32851e-02        00000 
 2.61847e-02 -3.51896e-02        00000 
 3.24891e-02 -3.69845e-02        00000 
 3.79865e-02 -3.87500e-02        00000 
 4.20112e-02 -4.04765e-02        00000 
 4.39836e-02 -4.20635e-02        00000 
 4.35735e-02 -4.33511e-02        00000 
 4.08409e-02 -4.41651e-02        00000 
 3.61909e-02 -4.43538e-02        00000 
 3.02736e-02 -4.38246e-02        00000 
 2.37663e-02 -4.25576e-02        00000 
 1.72472e-02 -4.06053e-02        00000 
 1.11114e-02 -3.80552e-02        00000 
 5.57191e-03 -3.49954e-02        00000 
 6.92154e-04 -3.14746e-02        00000 
-3.57274e-03 -2.74827e-02        00000 
-7.35627e-03 -2.29463e-02        00000 
-1.08812e-02 -1.77508e-02        00000 
-1.44569e-02 -1.17933e-02        00000 
-1.84114e-02 -5.06580e-03        00000 
-1.97491e-02  2.30953e-03        00000 
-1.14251e-02 -6.20844e-03        00000 
-7.41588e-03 -1.16601e-02        00000 
-3.35456e-03 -1.67109e-02        00000 
 9.55201e-04 -2.13113e-02        00000 
 5.64552e-03 -2.53969e-02        00000 
 1.08069e-02 -2.89245e-02        00000 
 1.65102e-02 -3.18936e-02        00000 
 2.28064e-02 -3.43582e-02        00000 
 2.96716e-02 -3.64327e-02        00000 
 3.69533e-02 -3.82686e-02        00000 
 4.41782e-02 -4.00114e-02        00000 
 5.06443e-02 -4.16955e-02        00000 
 5.54642e-02 -4.32319e-02        00000 
 5.77992e-02 -4.44773e-02        00000 
 5.72905e-02 -4.53645e-02        00000 
 5.39774e-02 -4.58894e-02        00000 
 4.84301e-02 -4.59983e-02        00000 
 4.14267e-02 -4.55436e-02        00000 
 3.39029e-02 -4.44131e-02        00000 
 2.65687e-02 -4.25686e-02        00000 
 1.98703e-02 -4.00882e-02        00000 
 1.39816e-02 -3.70597e-02        00000 
 8.88559e-03 -3.35397e-02        00000 
 4.44835e-03 -2.95268e-02        00000 
 4.70875e-04 -2.49695e-02        00000 
-3.28456e-03 -1.97942e-02        00000 
-7.06992e-03 -1.39493e-02        00000 
-1.11005e-02 -7.44272e-03        00000 
-1.30802e-02 -3.51077e-04        00000 
-4.81003e-03 -8.56115e-03        00000 
-5.04827e-04 -1.41810e-02        00000 
 3.81980e-03 -1.93339e-02        00000 
 8.31457e-03 -2.39911e-02        00000 
 1.31119e-02 -2.81076e-02        00000 
 1.83422e-02 -3.16465e-02        00000 
 2.41545e-02 -3.46057e-02        00000 
 3.07074e-02 -3.70499e-02        00000 
 3.81279e-02 -3.91235e-02        00000 
 4.62530e-02 -4.10425e-02        00000 
 5.48952e-02 -4.29373e-02        00000 
 6.26588e-02 -4.47533e-02        00000 
 6.80085e-02 -4.58942e-02        00000 
 5.96779e-02 -4.45371e-02        00000 
 5.15027e-02 -4.45494e-02        00000 
 4.27349e-02 -4.39170e-02        00000 
 3.43953e-02 -4.25218e-02        00000 
 2.70335e-02 -4.03775e-02        00000 
 2.07767e-02 -3.76058e-02        00000 
 1.54930e-02 -3.42971e-02        00000 
 1.09416e-02 -3.04727e-02        00000 
 6.85788e-03 -2.60988e-02        00000 
 2.99184e-03 -2.11246e-02        00000 
-8.73291e-04 -1.55170e-02        00000 
-4.89437e-03 -9.28246e-03        00000 
-7.38962e-03 -2.46711e-03        00000 
 6.74936e-04 -1.03540e-02        00000 
 5.18009e-03 -1.61266e-02        00000 
 9.68274e-03 -2.13747e-02        00000 
 1.42974e-02 -2.60852e-02        00000 
 1.91459e-02 -3.02281e-02        00000 
 2.43849e-02 -3.37745e-02        00000 
 3.02360e-02 -3.67284e-02        00000 
 3.70210e-02 -3.91740e-02        00000 
 4.50753e-02 -4.13711e-02        00000 
 5.47534e-02 -4.36891e-02        00000 
 4.09490e-02 -4.05030e-02        00000 
 3.27989e-02 -3.90679e-02        00000 
 2.61713e-02 -3.68146e-02        00000 
 2.07550e-02 -3.39392e-02        00000 
 1.61616e-02 -3.04974e-02        00000 
 1.20490e-02 -2.64730e-02        00000 
 8.15042e-03 -2.18265e-02        00000 
 4.27100e-03 -1.65325e-02        00000 
 2.87986e-04 -1.05951e-02        00000 
-2.62388e-03 -4.04533e-03        00000 
 5.12424e-03 -1.16213e-02        00000 
 9.75550e-03 -1.75100e-02        00000 
 1.43666e-02 -2.28200e-02        00000 
 1.90396e-02 -2.75511e-02        00000 
 2.38753e-02 -3.16856e-02        00000 
 2.90326e-02 -3.51973e-02        00000 
 3.48136e-02 -3.80842e-02        00000 
 4.17165e-02 -4.04689e-02        00000 
 5.06879e-02 -4.27151e-02        00000 
 3.73159e-02 -3.65495e-02        00000 
 3.03509e-02 -3.50357e-02        00000 
 2.48913e-02 -3.27611e-02        00000 
 2.03355e-02 -2.98463e-02        00000 
 1.62524e-02 -2.62837e-02        00000 
 1.23612e-02 -2.20381e-02        00000 
 8.48821e-03 -1.70902e-02        00000 
 4.53746e-03 -1.14466e-02        00000 
 1.28516e-03 -5.13510e-03        00000 
 8.62298e-03 -1.24215e-02        00000 
 1.33187e-02 -1.83660e-02        00000 
 1.79795e-02 -2.36745e-02        00000 
 2.26539e-02 -2.83562e-02        00000 
 2.74051e-02 -3.23983e-02        00000 
 3.23635e-02 -3.57643e-02        00000 
 3.78229e-02 -3.84038e-02        00000 
 4.47134e-02 -4.03659e-02        00000 
 3.34183e-02 -3.28089e-02        00000 
 2.80782e-02 -3.11747e-02        00000 
 2.36547e-02 -2.88424e-02        00000 
 1.96397e-02 -2.57779e-02        00000 
 1.57644e-02 -2.19434e-02        00000 
 1.18870e-02 -1.73259e-02        00000 
 7.94044e-03 -1.19391e-02        00000 
 4.40382e-03 -5.81516e-03        00000 
 1.12449e-02 -1.28334e-02        00000 
 1.59501e-02 -1.87553e-02        00000 
 2.06078e-02 -2.39760e-02        00000 
 2.52300e-02 -2.85072e-02        00000 
 2.98214e-02 -3.23311e-02        00000 
 3.44213e-02 -3.53726e-02        00000 
 3.92444e-02 -3.74716e-02        00000 
 4.50992e-02 -3.83425e-02        00000 
 3.53537e-02 -3.07885e-02        00000 
 3.04448e-02 -2.96696e-02        00000 
 2.62653e-02 -2.78520e-02        00000 
 2.23423e-02 -2.52317e-02        00000 
 1.84672e-02 -2.17481e-02        00000 
 1.45539e-02 -1.73938e-02        00000 
 1.05711e-02 -1.21924e-02        00000 
 6.78982e-03 -6.18228e-03        00000 
 1.30570e-02 -1.29527e-02        00000 
 1.77209e-02 -1.87693e-02        00000 
 2.23267e-02 -2.38118e-02        00000 
 2.68485e-02 -2.80858e-02        00000 
 3.12162e-02 -3.15612e-02        00000 
 3.53030e-02 -3.41207e-02        00000 
 3.90521e-02 -3.54169e-02        00000 
 3.20904e-02 -2.86764e-02        00000 
 2.82791e-02 -2.72177e-02        00000 
 2.44491e-02 -2.49010e-02        00000 
 2.05422e-02 -2.16415e-02        00000 
 1.65529e-02 -1.74386e-02        00000 
 1.24904e-02 -1.23240e-02        00000 
 8.49318e-03 -6.33925e-03        00000 
 1.41291e-02 -1.28836e-02        00000 
 1.87070e-02 -1.85284e-02        00000 
 2.32176e-02 -2.33253e-02        00000 
 2.76031e-02 -2.72671e-02        00000 
 3.17211e-02 -3.03144e-02        00000 
 3.52698e-02 -3.23454e-02        00000 
 3.76105e-02 -3.29680e-02        00000 
 3.31906e-02 -2.84808e-02        00000 
 2.97823e-02 -2.71766e-02        00000 
 2.60129e-02 -2.49619e-02        00000 
 2.20337e-02 -2.17551e-02        00000 
 1.79312e-02 -1.75656e-02        00000 
 1.37527e-02 -1.24285e-02        00000 
 9.56359e-03 -6.38134e-03        00000 
 1.45467e-02 -1.27265e-02        00000 
 1.90042e-02 -1.81689e-02        00000 
 2.33871e-02 -2.27012e-02        00000 
 2.76209e-02 -2.63020e-02        00000 
 3.15274e-02 -2.89348e-02        00000 
 3.46998e-02 -3.05343e-02        00000 
 3.61811e-02 -3.09698e-02        00000 
 3.39814e-02 -2.91484e-02        00000 
 3.08497e-02 -2.77922e-02        00000 
 2.70638e-02 -2.54616e-02        00000 
 2.29722e-02 -2.21290e-02        00000 
 1.87321e-02 -1.78183e-02        00000 
 1.44169e-02 -1.25608e-02        00000 
 1.00615e-02 -6.38224e-03        00000 
 1.44212e-02 -1.25608e-02        00000 
 1.87399e-02 -1.78183e-02        00000 
 2.29795e-02 -2.21290e-02        00000 
 2.70708e-02 -2.54616e-02        00000 
 3.08561e-02 -2.77922e-02        00000 
 3.39896e-02 -2.91484e-02        00000 
 3.56873e-02 -2.97461e-02        00000 
 3.47059e-02 -3.05343e-02        00000 
 3.15343e-02 -2.89348e-02        00000 
 2.76282e-02 -2.63020e-02        00000 
 2.33949e-02 -2.27012e-02        00000 
 1.90124e-02 -1.81689e-02        00000 
 1.45592e-02 -1.27265e-02        00000 
 1.00689e-02 -6.38224e-03        00000 
 1.38953e-02 -1.24285e-02        00000 
 1.80763e-02 -1.75656e-02        00000 
 2.21777e-02 -2.17551e-02        00000 
 2.61559e-02 -2.49619e-02        00000 
 2.99244e-02 -2.71766e-02        00000 
 3.33301e-02 -2.84808e-02        00000 
 3.61651e-02 -2.92596e-02        00000 
 3.54133e-02 -3.23454e-02        00000 
 3.18663e-02 -3.03144e-02        00000 
 2.77495e-02 -2.72671e-02        00000 
 2.33654e-02 -2.33253e-02        00000 
 1.88563e-02 -1.85284e-02        00000 
 1.42838e-02 -1.28836e-02        00000 
 9.69627e-03 -6.38134e-03        00000 
 1.31388e-02 -1.23240e-02        00000 
 1.72033e-02 -1.74386e-02        00000 
 2.11908e-02 -2.16415e-02        00000 
 2.50961e-02 -2.49010e-02        00000 
 2.89251e-02 -2.72177e-02        00000 
 3.27319e-02 -2.86764e-02        00000 
 3.68688e-02 -2.95462e-02        00000 
 3.59566e-02 -3.41207e-02        00000 
 3.18706e-02 -3.15612e-02        00000 
 2.75052e-02 -2.80858e-02        00000 
 2.29858e-02 -2.38118e-02        00000 
 1.83827e-02 -1.87693e-02        00000 
 1.37255e-02 -1.29527e-02        00000 
 9.08262e-03 -6.33925e-03        00000 
 1.23395e-02 -1.21924e-02        00000 
 1.63238e-02 -1.73938e-02        00000 
 2.02349e-02 -2.17481e-02        00000 
 2.41082e-02 -2.52317e-02        00000 
 2.80291e-02 -2.78520e-02        00000 
 3.22109e-02 -2.96696e-02        00000 
 3.71099e-02 -3.07885e-02        00000 
 4.41488e-02 -3.13358e-02        00000 
 4.09767e-02 -3.74716e-02        00000 
 3.62009e-02 -3.53726e-02        00000 
 3.16024e-02 -3.23311e-02        00000 
 2.70146e-02 -2.85072e-02        00000 
 2.23961e-02 -2.39760e-02        00000 
 1.77424e-02 -1.87553e-02        00000 
 1.30453e-02 -1.28334e-02        00000 
 8.38851e-03 -6.18228e-03        00000 
 1.16896e-02 -1.19391e-02        00000 
 1.56371e-02 -1.73259e-02        00000 
 1.95121e-02 -2.19434e-02        00000 
 2.33853e-02 -2.57779e-02        00000 
 2.73986e-02 -2.88424e-02        00000 
 3.18201e-02 -3.11747e-02        00000 
 3.71627e-02 -3.28089e-02        00000 
 4.44351e-02 -3.36167e-02        00000 
 4.15977e-02 -3.84038e-02        00000 
 3.61282e-02 -3.57643e-02        00000 
 3.11774e-02 -3.23983e-02        00000 
 2.64305e-02 -2.83562e-02        00000 
 2.17613e-02 -2.36745e-02        00000 
 1.71059e-02 -1.83660e-02        00000 
 1.24198e-02 -1.24215e-02        00000 
 7.78523e-03 -5.81516e-03        00000 
 1.13743e-02 -1.14466e-02        00000 
 1.53259e-02 -1.70902e-02        00000 
 1.91962e-02 -2.20381e-02        00000 
 2.30852e-02 -2.62837e-02        00000 
 2.71666e-02 -2.98463e-02        00000 
 3.17206e-02 -3.27611e-02        00000 
 3.71862e-02 -3.50357e-02        00000 
 4.41523e-02 -3.65495e-02        00000 
 5.34738e-02 -3.69535e-02        00000 
 4.85443e-02 -4.04689e-02        00000 
 4.16688e-02 -3.80842e-02        00000 
 3.59009e-02 -3.51973e-02        00000 
 3.07482e-02 -3.16856e-02        00000 
 2.59190e-02 -2.75511e-02        00000 
 2.12526e-02 -2.28200e-02        00000 
 1.66485e-02 -1.75100e-02        00000 
 1.20285e-02 -1.16213e-02        00000 
 7.44375e-03 -5.13510e-03        00000 
 1.15660e-02 -1.05951e-02        00000 
 1.55498e-02 -1.65325e-02        00000 
 1.94266e-02 -2.18265e-02        00000 
 2.33231e-02 -2.64730e-02        00000 
 2.74339e-02 -3.04974e-02        00000 
 3.20266e-02 -3.39392e-02        00000 
 3.74410e-02 -3.68146e-02        00000 
 4.40762e-02 -3.90679e-02        00000 
 5.22608e-02 -4.05030e-02        00000 
 6.19380e-02 -4.08389e-02        00000 
 7.25147e-02 -3.99650e-02        00000 
 6.56675e-02 -4.36891e-02        00000 
 5.63482e-02 -4.13711e-02        00000 
 4.83271e-02 -3.91740e-02        00000 
 4.15527e-02 -3.67284e-02        00000 
 3.57082e-02 -3.37745e-02        00000 
 3.04770e-02 -3.02281e-02        00000 
 2.56363e-02 -2.60852e-02        00000 
 2.10300e-02 -2.13747e-02        00000 
 1.65361e-02 -1.61266e-02        00000 
 1.20441e-02 -1.03540e-02        00000 
 7.52735e-03 -4.04533e-03        00000 
 1.24248e-02 -9.28246e-03        00000 
 1.64468e-02 -1.55170e-02        00000 
 2.03094e-02 -2.11246e-02        00000 
 2.41735e-02 -2.60988e-02        00000 
 2.82559e-02 -3.04727e-02        00000 
 3.28064e-02 -3.42971e-02        00000 
 3.80902e-02 -3.76058e-02        00000 
 4.43481e-02 -4.03775e-02        00000 
 5.17084e-02 -4.25218e-02        00000 
 6.00572e-02 -4.39170e-02        00000 
 6.88589e-02 -4.45494e-02        00000 
 7.71629e-02 -4.45371e-02        00000 
 8.34433e-02 -4.46152e-02        00000 
 8.71979e-02 -4.51981e-02        00000 
 8.78751e-02 -4.59139e-02        00000 
 8.52968e-02 -4.58942e-02        00000 
 7.97205e-02 -4.47533e-02        00000 
 7.20109e-02 -4.29373e-02        00000 
 6.36584e-02 -4.10425e-02        00000 
 5.54711e-02 -3.91235e-02        00000 
 4.80749e-02 -3.70499e-02        00000 
 4.15292e-02 -3.46057e-02        00000 
 3.57257e-02 -3.16465e-02        00000 
 3.05043e-02 -2.81076e-02        00000 
 2.57166e-02 -2.39911e-02        00000 
 2.12320e-02 -1.93339e-02        00000 
 1.69181e-02 -1.41810e-02        00000 
 1.26280e-02 -8.56115e-03        00000 
 8.19069e-03 -2.46711e-03        00000 
 1.41063e-02 -7.44272e-03        00000 
 1.81379e-02 -1.39493e-02        00000 
 2.19211e-02 -1.97942e-02        00000 
 2.56750e-02 -2.49695e-02        00000 
 2.96515e-02 -2.95268e-02        00000 
 3.40885e-02 -3.35397e-02        00000 
 3.91848e-02 -3.70597e-02        00000 
 4.50743e-02 -4.00882e-02        00000 
 5.17748e-02 -4.25686e-02        00000 
 5.91112e-02 -4.44131e-02        00000 
 6.66421e-02 -4.55436e-02        00000 
 7.36268e-02 -4.59983e-02        00000 
 7.92116e-02 -4.58894e-02        00000 