<?xml version="1.0" encoding="utf-8"?>
<VTKFile byte_order="LittleEndian" type="UnstructuredGrid" version="0.1">
   <UnstructuredGrid>
      <Piece NumberOfCells="74" NumberOfPoints="32">
         <Points>
            <DataArray Name="Points" NumberOfComponents="3" format="ascii" type="Float32">
0.0000 0.0000 0.0000
0.5000 0.0000 0.0000
0.0000 0.5000 0.0000
0.0000 0.0000 0.5000
0.3557 0.3362 0.3479
0.5000 0.0000 0.5000
0.5000 0.5000 0.0000
0.0000 0.5000 0.5000
0.7169 0.2861 0.2908
0.4860 0.6478 0.3489
0.6562 0.3480 0.6440
0.3043 0.6319 0.6891
1.0000 0.0000 0.0000
0.0000 1.0000 0.0000
0.0000 0.0000 1.0000
1.0000 0.5000 0.0000
0.5000 1.0000 0.0000
0.5000 0.0000 1.0000
1.0000 0.0000 0.5000
0.0000 1.0000 0.5000
0.0000 0.5000 1.0000
1.0000 0.5000 0.5000
0.5000 1.0000 0.5000
0.5000 0.5000 1.0000
0.6880 0.7642 0.6879
1.0000 1.0000 0.0000
1.0000 0.0000 1.0000
0.0000 1.0000 1.0000
1.0000 0.5000 1.0000
1.0000 1.0000 0.5000
0.5000 1.0000 1.0000
1.0000 1.0000 1.0000</DataArray>
         </Points>
         <Cells>
            <DataArray Name="connectivity" format="ascii" type="Int32">
 0 1 2 3
 12 18 15 1
 13 19 2 16
 25 29 16 15
 14 20 17 3
 2 1 6 4
 1 6 4 8
 6 4 8 9
 6 4 9 2
 8 6 9 15
 8 6 15 1
 4 8 9 10
 9 4 10 11
 9 4 11 7
 4 11 7 3
 10 9 11 24
 9 11 24 22
 24 9 22 29
 9 11 22 19
 9 22 29 16
 11 24 22 30
 24 22 30 29
 11 24 30 23
 24 30 23 28
 11 24 23 10
 23 11 10 17
 24 23 10 28
 23 10 28 17
 9 22 16 19
 10 9 24 21
 10 9 21 8
 21 10 8 18
 9 21 8 15
 21 8 15 18
 4 10 11 17
 4 8 10 5
 10 4 5 17
 4 8 5 1
 8 10 5 18
 5 8 18 1
 7 4 3 2
 10 24 28 21
 30 11 23 20
 11 23 20 17
 28 10 21 18
 5 4 1 3
 5 4 3 17
 7 4 2 9
 5 10 17 18
 9 24 21 29
 21 9 29 15
 11 22 19 30
 24 28 21 29
 11 9 7 19
 7 11 19 20
 7 11 20 3
 24 30 28 31
 24 30 31 29
 28 24 31 29
 6 9 15 16
 6 9 16 2
 8 15 18 1
 11 19 20 27
 20 11 27 30
 11 19 27 30
 10 28 17 26
 10 28 26 18
 17 10 26 18
 4 11 3 17
 2 19 7 9
 4 3 2 1
 29 9 16 15
 11 20 3 17
 16 9 19 2</DataArray>
            <DataArray Name="offsets" format="ascii" type="Int32">4 8 12 16 20 24 28 32 36 40 44 48 52 56 60 64 68 72 76 80 84 88 92 96 100 104 108 112 116 120 124 128 132 136 140 144 148 152 156 160 164 168 172 176 180 184 188 192 196 200 204 208 212 216 220 224 228 232 236 240 244 248 252 256 260 264 268 272 276 280 284 288 292 296 </DataArray>
            <DataArray Name="types" format="ascii" type="UInt8">10 10 10 10 10 10 10 10 10 10 10 10 10 10 10 10 10 10 10 10 10 10 10 10 10 10 10 10 10 10 10 10 10 10 10 10 10 10 10 10 10 10 10 10 10 10 10 10 10 10 10 10 10 10 10 10 10 10 10 10 10 10 10 10 10 10 10 10 10 10 10 10 10 10 </DataArray>
         </Cells>
         <PointData>
            <DataArray Name="fValues" NumberOfComponents="3" format="ascii" type="Float64">
-2.54677e-01        00000        00000 
-8.56599e-01        00000        00000 
-6.86307e-01        00000        00000 
-6.14406e-01        00000        00000 
-9.86490e-01        00000        00000 
-3.42838e-01        00000        00000 
-2.45418e-01        00000        00000 
-2.13263e-01        00000        00000 
 2.30280e+00        00000        00000 
-8.86597e-01        00000        00000 
 1.37967e+00        00000        00000 
-1.15970e+00        00000        00000 
 7.68255e+00        00000        00000 
-2.53460e-01        00000        00000 
-4.05937e-01        00000        00000 
 7.30536e+00        00000        00000 
-8.46854e-01        00000        00000 
-7.57313e-01        00000        00000 
 7.51948e+00        00000        00000 
-6.26585e-01        00000        00000 
-4.83075e-01        00000        00000 
 7.68254e+00        00000        00000 
-2.64218e-01        00000        00000 
-3.72793e-01        00000        00000 
 1.83141e+00        00000        00000 
 7.76374e+00        00000        00000 
 7.48355e+00        00000        00000 
-3.93904e-01        00000        00000 
 7.52613e+00        00000        00000 
 7.34735e+00        00000        00000 
-7.87002e-01        00000        00000 
 7.64596e+00        00000        00000 </DataArray>
         </PointData>
         <CellData/>
      </Piece>
   </UnstructuredGrid>
</VTKFile>