<?xml version="1.0" encoding="utf-8"?>
<VTKFile byte_order="LittleEndian" type="UnstructuredGrid" version="0.1">
   <UnstructuredGrid>
      <Piece NumberOfCells="21904" NumberOfPoints="11101">
         <Points>
            <DataArray Name="Points" NumberOfComponents="3" format="ascii" type="Float32">
0.0000 0.0000 0.0000
0.0000 0.0135 0.0000
0.0000 0.0270 0.0000
0.0000 0.0405 0.0000
0.0000 0.0541 0.0000
0.0000 0.0676 0.0000
0.0000 0.0811 0.0000
0.0000 0.0946 0.0000
0.0000 0.1081 0.0000
0.0000 0.1216 0.0000
0.0000 0.1351 0.0000
0.0000 0.1486 0.0000
0.0000 0.1622 0.0000
0.0000 0.1757 0.0000
0.0000 0.1892 0.0000
0.0000 0.2027 0.0000
0.0000 0.2162 0.0000
0.0000 0.2297 0.0000
0.0000 0.2432 0.0000
0.0000 0.2568 0.0000
0.0000 0.2703 0.0000
0.0000 0.2838 0.0000
0.0000 0.2973 0.0000
0.0000 0.3108 0.0000
0.0000 0.3243 0.0000
0.0000 0.3378 0.0000
0.0000 0.3514 0.0000
0.0000 0.3649 0.0000
0.0000 0.3784 0.0000
0.0000 0.3919 0.0000
0.0000 0.4054 0.0000
0.0000 0.4189 0.0000
0.0000 0.4324 0.0000
0.0000 0.4459 0.0000
0.0000 0.4595 0.0000
0.0000 0.4730 0.0000
0.0000 0.4865 0.0000
0.0000 0.5000 0.0000
0.0000 0.5135 0.0000
0.0000 0.5270 0.0000
0.0000 0.5405 0.0000
0.0000 0.5541 0.0000
0.0000 0.5676 0.0000
0.0000 0.5811 0.0000
0.0000 0.5946 0.0000
0.0000 0.6081 0.0000
0.0000 0.6216 0.0000
0.0000 0.6351 0.0000
0.0000 0.6486 0.0000
0.0000 0.6622 0.0000
0.0000 0.6757 0.0000
0.0000 0.6892 0.0000
0.0000 0.7027 0.0000
0.0000 0.7162 0.0000
0.0000 0.7297 0.0000
0.0000 0.7432 0.0000
0.0000 0.7568 0.0000
0.0000 0.7703 0.0000
0.0000 0.7838 0.0000
0.0000 0.7973 0.0000
0.0000 0.8108 0.0000
0.0000 0.8243 0.0000
0.0000 0.8378 0.0000
0.0000 0.8514 0.0000
0.0000 0.8649 0.0000
0.0000 0.8784 0.0000
0.0000 0.8919 0.0000
0.0000 0.9054 0.0000
0.0000 0.9189 0.0000
0.0000 0.9324 0.0000
0.0000 0.9459 0.0000
0.0000 0.9595 0.0000
0.0000 0.9730 0.0000
0.0000 0.9865 0.0000
0.0000 1.0000 0.0000
0.0135 0.0000 0.0000
0.0135 0.0135 0.0000
0.0135 0.0270 0.0000
0.0135 0.0405 0.0000
0.0135 0.0541 0.0000
0.0135 0.0676 0.0000
0.0135 0.0811 0.0000
0.0135 0.0946 0.0000
0.0135 0.1081 0.0000
0.0135 0.1216 0.0000
0.0135 0.1351 0.0000
0.0135 0.1486 0.0000
0.0135 0.1622 0.0000
0.0135 0.1757 0.0000
0.0135 0.1892 0.0000
0.0135 0.2027 0.0000
0.0135 0.2162 0.0000
0.0135 0.2297 0.0000
0.0135 0.2432 0.0000
0.0135 0.2568 0.0000
0.0135 0.2703 0.0000
0.0135 0.2838 0.0000
0.0135 0.2973 0.0000
0.0135 0.3108 0.0000
0.0135 0.3243 0.0000
0.0135 0.3378 0.0000
0.0135 0.3514 0.0000
0.0135 0.3649 0.0000
0.0135 0.3784 0.0000
0.0135 0.3919 0.0000
0.0135 0.4054 0.0000
0.0135 0.4189 0.0000
0.0135 0.4324 0.0000
0.0135 0.4459 0.0000
0.0135 0.4595 0.0000
0.0135 0.4730 0.0000
0.0135 0.4865 0.0000
0.0135 0.5000 0.0000
0.0135 0.5135 0.0000
0.0135 0.5270 0.0000
0.0135 0.5405 0.0000
0.0135 0.5541 0.0000
0.0135 0.5676 0.0000
0.0135 0.5811 0.0000
0.0135 0.5946 0.0000
0.0135 0.6081 0.0000
0.0135 0.6216 0.0000
0.0135 0.6351 0.0000
0.0135 0.6486 0.0000
0.0135 0.6622 0.0000
0.0135 0.6757 0.0000
0.0135 0.6892 0.0000
0.0135 0.7027 0.0000
0.0135 0.7162 0.0000
0.0135 0.7297 0.0000
0.0135 0.7432 0.0000
0.0135 0.7568 0.0000
0.0135 0.7703 0.0000
0.0135 0.7838 0.0000
0.0135 0.7973 0.0000
0.0135 0.8108 0.0000
0.0135 0.8243 0.0000
0.0135 0.8378 0.0000
0.0135 0.8514 0.0000
0.0135 0.8649 0.0000
0.0135 0.8784 0.0000
0.0135 0.8919 0.0000
0.0135 0.9054 0.0000
0.0135 0.9189 0.0000
0.0135 0.9324 0.0000
0.0135 0.9459 0.0000
0.0135 0.9595 0.0000
0.0135 0.9730 0.0000
0.0135 0.9865 0.0000
0.0135 1.0000 0.0000
0.0270 0.0000 0.0000
0.0270 0.0135 0.0000
0.0270 0.0270 0.0000
0.0270 0.0405 0.0000
0.0270 0.0541 0.0000
0.0270 0.0676 0.0000
0.0270 0.0811 0.0000
0.0270 0.0946 0.0000
0.0270 0.1081 0.0000
0.0270 0.1216 0.0000
0.0270 0.1351 0.0000
0.0270 0.1486 0.0000
0.0270 0.1622 0.0000
0.0270 0.1757 0.0000
0.0270 0.1892 0.0000
0.0270 0.2027 0.0000
0.0270 0.2162 0.0000
0.0270 0.2297 0.0000
0.0270 0.2432 0.0000
0.0270 0.2568 0.0000
0.0270 0.2703 0.0000
0.0270 0.2838 0.0000
0.0270 0.2973 0.0000
0.0270 0.3108 0.0000
0.0270 0.3243 0.0000
0.0270 0.3378 0.0000
0.0270 0.3514 0.0000
0.0270 0.3649 0.0000
0.0270 0.3784 0.0000
0.0270 0.3919 0.0000
0.0270 0.4054 0.0000
0.0270 0.4189 0.0000
0.0270 0.4324 0.0000
0.0270 0.4459 0.0000
0.0270 0.4595 0.0000
0.0270 0.4730 0.0000
0.0270 0.4865 0.0000
0.0270 0.5000 0.0000
0.0270 0.5135 0.0000
0.0270 0.5270 0.0000
0.0270 0.5405 0.0000
0.0270 0.5541 0.0000
0.0270 0.5676 0.0000
0.0270 0.5811 0.0000
0.0270 0.5946 0.0000
0.0270 0.6081 0.0000
0.0270 0.6216 0.0000
0.0270 0.6351 0.0000
0.0270 0.6486 0.0000
0.0270 0.6622 0.0000
0.0270 0.6757 0.0000
0.0270 0.6892 0.0000
0.0270 0.7027 0.0000
0.0270 0.7162 0.0000
0.0270 0.7297 0.0000
0.0270 0.7432 0.0000
0.0270 0.7568 0.0000
0.0270 0.7703 0.0000
0.0270 0.7838 0.0000
0.0270 0.7973 0.0000
0.0270 0.8108 0.0000
0.0270 0.8243 0.0000
0.0270 0.8378 0.0000
0.0270 0.8514 0.0000
0.0270 0.8649 0.0000
0.0270 0.8784 0.0000
0.0270 0.8919 0.0000
0.0270 0.9054 0.0000
0.0270 0.9189 0.0000
0.0270 0.9324 0.0000
0.0270 0.9459 0.0000
0.0270 0.9595 0.0000
0.0270 0.9730 0.0000
0.0270 0.9865 0.0000
0.0270 1.0000 0.0000
0.0405 0.0000 0.0000
0.0405 0.0135 0.0000
0.0405 0.0270 0.0000
0.0405 0.0405 0.0000
0.0405 0.0541 0.0000
0.0405 0.0676 0.0000
0.0405 0.0811 0.0000
0.0405 0.0946 0.0000
0.0405 0.1081 0.0000
0.0405 0.1216 0.0000
0.0405 0.1351 0.0000
0.0405 0.1486 0.0000
0.0405 0.1622 0.0000
0.0405 0.1757 0.0000
0.0405 0.1892 0.0000
0.0405 0.2027 0.0000
0.0405 0.2162 0.0000
0.0405 0.2297 0.0000
0.0405 0.2432 0.0000
0.0405 0.2568 0.0000
0.0405 0.2703 0.0000
0.0405 0.2838 0.0000
0.0405 0.2973 0.0000
0.0405 0.3108 0.0000
0.0405 0.3243 0.0000
0.0405 0.3378 0.0000
0.0405 0.3514 0.0000
0.0405 0.3649 0.0000
0.0405 0.3784 0.0000
0.0405 0.3919 0.0000
0.0405 0.4054 0.0000
0.0405 0.4189 0.0000
0.0405 0.4324 0.0000
0.0405 0.4459 0.0000
0.0405 0.4595 0.0000
0.0405 0.4730 0.0000
0.0405 0.4865 0.0000
0.0405 0.5000 0.0000
0.0405 0.5135 0.0000
0.0405 0.5270 0.0000
0.0405 0.5405 0.0000
0.0405 0.5541 0.0000
0.0405 0.5676 0.0000
0.0405 0.5811 0.0000
0.0405 0.5946 0.0000
0.0405 0.6081 0.0000
0.0405 0.6216 0.0000
0.0405 0.6351 0.0000
0.0405 0.6486 0.0000
0.0405 0.6622 0.0000
0.0405 0.6757 0.0000
0.0405 0.6892 0.0000
0.0405 0.7027 0.0000
0.0405 0.7162 0.0000
0.0405 0.7297 0.0000
0.0405 0.7432 0.0000
0.0405 0.7568 0.0000
0.0405 0.7703 0.0000
0.0405 0.7838 0.0000
0.0405 0.7973 0.0000
0.0405 0.8108 0.0000
0.0405 0.8243 0.0000
0.0405 0.8378 0.0000
0.0405 0.8514 0.0000
0.0405 0.8649 0.0000
0.0405 0.8784 0.0000
0.0405 0.8919 0.0000
0.0405 0.9054 0.0000
0.0405 0.9189 0.0000
0.0405 0.9324 0.0000
0.0405 0.9459 0.0000
0.0405 0.9595 0.0000
0.0405 0.9730 0.0000
0.0405 0.9865 0.0000
0.0405 1.0000 0.0000
0.0541 0.0000 0.0000
0.0541 0.0135 0.0000
0.0541 0.0270 0.0000
0.0541 0.0405 0.0000
0.0541 0.0541 0.0000
0.0541 0.0676 0.0000
0.0541 0.0811 0.0000
0.0541 0.0946 0.0000
0.0541 0.1081 0.0000
0.0541 0.1216 0.0000
0.0541 0.1351 0.0000
0.0541 0.1486 0.0000
0.0541 0.1622 0.0000
0.0541 0.1757 0.0000
0.0541 0.1892 0.0000
0.0541 0.2027 0.0000
0.0541 0.2162 0.0000
0.0541 0.2297 0.0000
0.0541 0.2432 0.0000
0.0541 0.2568 0.0000
0.0541 0.2703 0.0000
0.0541 0.2838 0.0000
0.0541 0.2973 0.0000
0.0541 0.3108 0.0000
0.0541 0.3243 0.0000
0.0541 0.3378 0.0000
0.0541 0.3514 0.0000
0.0541 0.3649 0.0000
0.0541 0.3784 0.0000
0.0541 0.3919 0.0000
0.0541 0.4054 0.0000
0.0541 0.4189 0.0000
0.0541 0.4324 0.0000
0.0541 0.4459 0.0000
0.0541 0.4595 0.0000
0.0541 0.4730 0.0000
0.0541 0.4865 0.0000
0.0541 0.5000 0.0000
0.0541 0.5135 0.0000
0.0541 0.5270 0.0000
0.0541 0.5405 0.0000
0.0541 0.5541 0.0000
0.0541 0.5676 0.0000
0.0541 0.5811 0.0000
0.0541 0.5946 0.0000
0.0541 0.6081 0.0000
0.0541 0.6216 0.0000
0.0541 0.6351 0.0000
0.0541 0.6486 0.0000
0.0541 0.6622 0.0000
0.0541 0.6757 0.0000
0.0541 0.6892 0.0000
0.0541 0.7027 0.0000
0.0541 0.7162 0.0000
0.0541 0.7297 0.0000
0.0541 0.7432 0.0000
0.0541 0.7568 0.0000
0.0541 0.7703 0.0000
0.0541 0.7838 0.0000
0.0541 0.7973 0.0000
0.0541 0.8108 0.0000
0.0541 0.8243 0.0000
0.0541 0.8378 0.0000
0.0541 0.8514 0.0000
0.0541 0.8649 0.0000
0.0541 0.8784 0.0000
0.0541 0.8919 0.0000
0.0541 0.9054 0.0000
0.0541 0.9189 0.0000
0.0541 0.9324 0.0000
0.0541 0.9459 0.0000
0.0541 0.9595 0.0000
0.0541 0.9730 0.0000
0.0541 0.9865 0.0000
0.0541 1.0000 0.0000
0.0676 0.0000 0.0000
0.0676 0.0135 0.0000
0.0676 0.0270 0.0000
0.0676 0.0405 0.0000
0.0676 0.0541 0.0000
0.0676 0.0676 0.0000
0.0676 0.0811 0.0000
0.0676 0.0946 0.0000
0.0676 0.1081 0.0000
0.0676 0.1216 0.0000
0.0676 0.1351 0.0000
0.0676 0.1486 0.0000
0.0676 0.1622 0.0000
0.0676 0.1757 0.0000
0.0676 0.1892 0.0000
0.0676 0.2027 0.0000
0.0676 0.2162 0.0000
0.0676 0.2297 0.0000
0.0676 0.2432 0.0000
0.0676 0.2568 0.0000
0.0676 0.2703 0.0000
0.0676 0.2838 0.0000
0.0676 0.2973 0.0000
0.0676 0.3108 0.0000
0.0676 0.3243 0.0000
0.0676 0.3378 0.0000
0.0676 0.3514 0.0000
0.0676 0.3649 0.0000
0.0676 0.3784 0.0000
0.0676 0.3919 0.0000
0.0676 0.4054 0.0000
0.0676 0.4189 0.0000
0.0676 0.4324 0.0000
0.0676 0.4459 0.0000
0.0676 0.4595 0.0000
0.0676 0.4730 0.0000
0.0676 0.4865 0.0000
0.0676 0.5000 0.0000
0.0676 0.5135 0.0000
0.0676 0.5270 0.0000
0.0676 0.5405 0.0000
0.0676 0.5541 0.0000
0.0676 0.5676 0.0000
0.0676 0.5811 0.0000
0.0676 0.5946 0.0000
0.0676 0.6081 0.0000
0.0676 0.6216 0.0000
0.0676 0.6351 0.0000
0.0676 0.6486 0.0000
0.0676 0.6622 0.0000
0.0676 0.6757 0.0000
0.0676 0.6892 0.0000
0.0676 0.7027 0.0000
0.0676 0.7162 0.0000
0.0676 0.7297 0.0000
0.0676 0.7432 0.0000
0.0676 0.7568 0.0000
0.0676 0.7703 0.0000
0.0676 0.7838 0.0000
0.0676 0.7973 0.0000
0.0676 0.8108 0.0000
0.0676 0.8243 0.0000
0.0676 0.8378 0.0000
0.0676 0.8514 0.0000
0.0676 0.8649 0.0000
0.0676 0.8784 0.0000
0.0676 0.8919 0.0000
0.0676 0.9054 0.0000
0.0676 0.9189 0.0000
0.0676 0.9324 0.0000
0.0676 0.9459 0.0000
0.0676 0.9595 0.0000
0.0676 0.9730 0.0000
0.0676 0.9865 0.0000
0.0676 1.0000 0.0000
0.0811 0.0000 0.0000
0.0811 0.0135 0.0000
0.0811 0.0270 0.0000
0.0811 0.0405 0.0000
0.0811 0.0541 0.0000
0.0811 0.0676 0.0000
0.0811 0.0811 0.0000
0.0811 0.0946 0.0000
0.0811 0.1081 0.0000
0.0811 0.1216 0.0000
0.0811 0.1351 0.0000
[...]
         <PointData>
            <DataArray Name="fValues" NumberOfComponents="1" format="ascii" type="Float64">
 1.00000e+00 
 1.00000e+00 
 1.00000e+00 
 1.00000e+00 
 1.00000e+00 
       00001 
 1.00000e+00 
 1.00000e+00 
 1.00000e+00 
 1.00000e+00 
 1.00000e+00 
 1.00000e+00 
 1.00000e+00 
 1.00000e+00 
 1.00000e+00 
 1.00000e+00 
 1.00000e+00 
 1.00000e+00 
 1.00000e+00 
 1.00000e+00 
 1.00000e+00 
 1.00000e+00 
       00001 
 1.00000e+00 
 1.00000e+00 
 1.00000e+00 
       00001 
 1.00000e+00 
 1.00000e+00 
 1.00000e+00 
       00001 
 1.00000e+00 
 1.00000e+00 
 1.00000e+00 
 1.00000e+00 
 1.00000e+00 
       00001 
 1.00000e+00 
 1.00000e+00 
 1.00000e+00 
 1.00000e+00 
 1.00000e+00 
 1.00000e+00 
 1.00000e+00 
 1.00000e+00 
 1.00000e+00 
 1.00000e+00 
 1.00000e+00 
 1.00000e+00 
 1.00000e+00 
 1.00000e+00 
 1.00000e+00 
 1.00000e+00 
 1.00000e+00 
 1.00000e+00 
 1.00000e+00 
 1.00000e+00 
 1.00000e+00 
 1.00000e+00 
 1.00000e+00 
 1.00000e+00 
 1.00000e+00 
       00001 
 1.00000e+00 
 1.00000e+00 
 1.00000e+00 
 1.00000e+00 
 1.00000e+00 
 1.00000e+00 
 1.00000e+00 
 1.00000e+00 
 1.00000e+00 
 1.00000e+00 
 1.00000e+00 
 1.00000e+00 
       00001 
 1.00000e+00 
 1.00000e+00 
 1.00000e+00 
 1.00000e+00 
 1.00000e+00 
 1.00000e+00 
 1.00000e+00 
       00001 
 1.00000e+00 
 1.00000e+00 
 1.00000e+00 
 1.00000e+00 
 1.00000e+00 
 1.00000e+00 
 1.00000e+00 
 1.00000e+00 
 1.00000e+00 
       00001 
 1.00000e+00 
       00001 
       00001 
 1.00000e+00 
 1.00000e+00 
 1.00000e+00 
 1.00000e+00 
 1.00000e+00 
 1.00000e+00 
 1.00000e+00 
       00001 
 1.00000e+00 
 1.00000e+00 
 1.00000e+00 
 1.00000e+00 
 1.00000e+00 
 1.00000e+00 
 1.00000e+00 
 1.00000e+00 
 1.00000e+00 
 1.00000e+00 
 1.00000e+00 
 1.00000e+00 
 1.00000e+00 
 1.00000e+00 
       00001 
 1.00000e+00 
 1.00000e+00 
 1.00000e+00 
 1.00000e+00 
 1.00000e+00 
 1.00000e+00 
 1.00000e+00 
       00001 
 1.00000e+00 
 1.00000e+00 
 1.00000e+00 
 1.00000e+00 
 1.00000e+00 
 1.00000e+00 
 1.00000e+00 
 1.00000e+00 
 1.00000e+00 
 1.00000e+00 
 1.00000e+00 
 1.00000e+00 
 1.00000e+00 
       00001 
 1.00000e+00 
 1.00000e+00 
 1.00000e+00 
 1.00000e+00 
       00001 
 1.00000e+00 
 1.00000e+00 
 1.00000e+00 
 1.00000e+00 
 1.00000e+00 
 1.00000e+00 
 1.00000e+00 
 1.00000e+00 
 1.00000e+00 
 1.00000e+00 
 1.00000e+00 
       00001 
 1.00000e+00 
 1.00000e+00 
 1.00000e+00 
 1.00000e+00 
 1.00000e+00 
 1.00000e+00 
 1.00000e+00 
       00001 
       00001 
 1.00000e+00 
 1.00000e+00 
 1.00000e+00 
 1.00000e+00 
 1.00000e+00 
 1.00000e+00 
       00001 
 1.00000e+00 
 1.00000e+00 
 1.00000e+00 
       00001 
 1.00000e+00 
 1.00000e+00 
 1.00000e+00 
       00001 
 1.00000e+00 
 1.00000e+00 
 1.00000e+00 
 1.00000e+00 
 1.00000e+00 
 1.00000e+00 
 1.00000e+00 
       00001 
 1.00000e+00 
 1.00000e+00 
 1.00000e+00 
 1.00000e+00 
 1.00000e+00 
 1.00000e+00 
 1.00000e+00 
       00001 
 1.00000e+00 
 1.00000e+00 
 1.00000e+00 
 1.00000e+00 
 1.00000e+00 
 1.00000e+00 
 1.00000e+00 
       00001 
 1.00000e+00 
 1.00000e+00 
       00001 
 1.00000e+00 
       00001 
 1.00000e+00 
 1.00000e+00 
       00001 
 1.00000e+00 
 1.00000e+00 
       00001 
       00001 
       00001 
 1.00000e+00 
       00001 
 1.00000e+00 
 1.00000e+00 
 1.00000e+00 
 1.00000e+00 
 1.00000e+00 
 1.00000e+00 
 1.00000e+00 
 1.00000e+00 
 1.00000e+00 
 1.00000e+00 
 1.00000e+00 
 1.00000e+00 
 1.00000e+00 
 1.00000e+00 
 1.00000e+00 
 1.00000e+00 
 1.00000e+00 
 1.00000e+00 
 1.00000e+00 
 1.00000e+00 
       00001 
       00001 
       00001 
 1.00000e+00 
 1.00000e+00 
 1.00000e+00 
 1.00000e+00 
 1.00000e+00 
 1.00000e+00 
 1.00000e+00 
 1.00000e+00 
 1.00000e+00 
 1.00000e+00 
 1.00000e+00 
 1.00000e+00 
 1.00000e+00 
 1.00000e+00 
 1.00000e+00 
 1.00000e+00 
 1.00000e+00 
 1.00000e+00 
 1.00000e+00 
 1.00000e+00 
       00001 
 1.00000e+00 
 1.00000e+00 
 1.00000e+00 
 1.00000e+00 
       00001 
 1.00000e+00 
 1.00000e+00 
       00001 
 1.00000e+00 
 1.00000e+00 
 1.00000e+00 
 1.00000e+00 
       00001 
 1.00000e+00 
 1.00000e+00 
       00001 
 1.00000e+00 
 1.00000e+00 
 1.00000e+00 
       00001 
 1.00000e+00 
 1.00000e+00 
 1.00000e+00 
       00001 
 1.00000e+00 
       00001 
       00001 
 1.00000e+00 
 1.00000e+00 
       00001 
 1.00000e+00 
 1.00000e+00 
 1.00000e+00 
 1.00000e+00 
 1.00000e+00 
 1.00000e+00 
 1.00000e+00 
 1.00000e+00 
 1.00000e+00 
 1.00000e+00 
 1.00000e+00 
 1.00000e+00 
 1.00000e+00 
 1.00000e+00 
 1.00000e+00 
 1.00000e+00 
       00001 
 1.00000e+00 
 1.00000e+00 
 1.00000e+00 
 1.00000e+00 
 1.00000e+00 
 1.00000e+00 
 1.00000e+00 
 1.00000e+00 
 1.00000e+00 
 1.00000e+00 
 1.00000e+00 
 1.00000e+00 
 1.00000e+00 
 1.00000e+00 
 1.00000e+00 
 1.00000e+00 
 1.00000e+00 
 1.00000e+00 
 1.00000e+00 
 1.00000e+00 
       00001 
 1.00000e+00 
 1.00000e+00 
 1.00000e+00 
 1.00000e+00 
 1.00000e+00 
       00001 
 1.00000e+00 
 1.00000e+00 
 1.00000e+00 
 1.00000e+00 
 1.00000e+00 
 1.00000e+00 
 1.00000e+00 
       00001 
 1.00000e+00 
 1.00000e+00 
 1.00000e+00 
 1.00000e+00 
 1.00000e+00 
 1.00000e+00 
 1.00000e+00 
       00001 
 1.00000e+00 
 1.00000e+00 
 1.00000e+00 
 1.00000e+00 
 1.00000e+00 
 1.00000e+00 
 1.00000e+00 
       00001 
 1.00000e+00 
 1.00000e+00 
       00001 
 1.00000e+00 
       00001 
 1.00000e+00 
       00001 
 1.00000e+00 
 1.00000e+00 
 1.00000e+00 
 1.00000e+00 
 1.00000e+00 
 1.00000e+00 
 1.00000e+00 
 1.00000e+00 
 1.00000e+00 
 1.00000e+00 
 1.00000e+00 
 1.00000e+00 
 1.00000e+00 
 1.00000e+00 
 1.00000e+00 
 1.00000e+00 
 1.00000e+00 
 1.00000e+00 
 1.00000e+00 
 1.00000e+00 
 1.00000e+00 
       00001 
       00001 
 1.00000e+00 
 1.00000e+00 
 1.00000e+00 
       00001 
 1.00000e+00 
 1.00000e+00 
 1.00000e+00 
 1.00000e+00 
 1.00000e+00 
 1.00000e+00 
 1.00000e+00 
 1.00000e+00 
       00001 
 1.00000e+00 
 1.00000e+00 
 1.00000e+00 
       00001 
 1.00000e+00 
 1.00000e+00 
 1.00000e+00 
 1.00000e+00 
 1.00000e+00 
 1.00000e+00 
 1.00000e+00 
       00001 
 1.00000e+00 
 1.00000e+00 
 1.00000e+00 
 1.00000e+00 
 1.00000e+00 
 1.00000e+00 
 1.00000e+00 
       00001 
 1.00000e+00 
 1.00000e+00 
 1.00000e+00 
 1.00000e+00 
 1.00000e+00 
 1.00000e+00 
 1.00000e+00 
 1.00000e+00 
 1.00000e+00 
 1.00000e+00 
 1.00000e+00 
 1.00000e+00 
 1.00000e+00 
 1.00000e+00 
 1.00000e+00 
 1.00000e+00 
 1.00000e+00 
 1.00000e+00 
 1.00000e+00 
 1.00000e+00 
 1.00000e+00 
 1.00000e+00 
 1.00000e+00 
 1.00000e+00 
 1.00000e+00 
 1.00000e+00 
 1.00000e+00 
 1.00000e+00 
 1.00000e+00 
 1.00000e+00 
       00001 
 1.00000e+00 
 1.00000e+00 
 1.00000e+00 
 1.00000e+00 
 1.00000e+00 
 1.00000e+00 
 1.00000e+00 
 1.00000e+00 
 1.00000e+00 
 1.00000e+00 
 1.00000e+00 
 1.00000e+00 
 1.00000e+00 
 1.00000e+00 
 1.00000e+00 
       00001 
 1.00000e+00 
 1.00000e+00 
 1.00000e+00 
 1.00000e+00 
 1.00000e+00 
 1.00000e+00 
 1.00000e+00 
 1.00000e+00 
 1.00000e+00 
 1.00000e+00 
 1.00000e+00 
 1.00000e+00 
       00001 
 1.00000e+00 
 1.00000e+00 
       00001 
 1.00000e+00 
 1.00000e+00 
 1.00000e+00 
 1.00000e+00 
 1.00000e+00 
 1.00000e+00 
 1.00000e+00 
 1.00000e+00 
 1.00000e+00 
 1.00000e+00 
 1.00000e+00 
 1.00000e+00 
 1.00000e+00 
 1.00000e+00 
 1.00000e+00 
       00001 
 1.00000e+00 
 1.00000e+00 
 1.00000e+00 
 1.00000e+00 
 1.00000e+00 
 1.00000e+00 
 1.00000e+00 
 1.00000e+00 
 1.00000e+00 
 1.00000e+00 
 1.00000e+00 
 1.00000e+00 
       00001 
 1.00000e+00 
 1.00000e+00 
 1.00000e+00 
 1.00000e+00 
 1.00000e+00 
       00001 
 1.00000e+00 
 1.00000e+00 
 1.00000e+00 
 1.00000e+00 
 1.00000e+00 
 1.00000e+00 
 1.00000e+00 
 1.00000e+00 
 1.00000e+00 
 1.00000e+00 
 1.00000e+00 
 1.00000e+00 
 1.00000e+00 
 1.00000e+00 
 1.00000e+00 
 1.00000e+00 
 1.00000e+00 
 1.00000e+00 
 1.00000e+00 
 1.00000e+00 
 1.00000e+00 
 1.00000e+00 
 1.00000e+00 
 1.00000e+00 
 1.00000e+00 
 1.00000e+00 
 1.00000e+00 
 1.00000e+00 
 1.00000e+00 
 1.00000e+00 
 1.00000e+00 
 1.00000e+00 
 1.00000e+00 
 1.00000e+00 
       00001 
 1.00000e+00 
 1.00000e+00 
 1.00000e+00 
 1.00000e+00 
       00001 
 1.00000e+00 
 1.00000e+00 
 1.00000e+00 
       00001 
 1.00000e+00 
 1.00000e+00 
 1.00000e+00 
 1.00000e+00 
 1.00000e+00 
 1.00000e+00 
 1.00000e+00 
       00001 
 1.00000e+00 
       00001 
 1.00000e+00 
       00001 
 1.00000e+00 
 1.00000e+00 
 1.00000e+00 
       00001 
       00001 
 1.00000e+00 
 1.00000e+00 
 1.00000e+00 
 1.00000e+00 
 1.00000e+00 
 1.00000e+00 
       00001 
 1.00000e+00 
 1.00000e+00 
 1.00000e+00 
 1.00000e+00 
 1.00000e+00 
 1.00000e+00 
       00001 
 1.00000e+00 
 1.00000e+00 
 1.00000e+00 
 1.00000e+00 
 1.00000e+00 
 1.00000e+00 
 1.00000e+00 
       00001 
 1.00000e+00 
       00001 
 1.00000e+00 
       00001 
 1.00000e+00 
       00001 
 1.00000e+00 
       00001 
 1.00000e+00 
 1.00000e+00 
 1.00000e+00 
 1.00000e+00 
 1.00000e+00 
 1.00000e+00 
 1.00000e+00 
 1.00000e+00 
 1.00000e+00 
 1.00000e+00 
 1.00000e+00 
 1.00000e+00 
 1.00000e+00 
 1.00000e+00 
 1.00000e+00 
 1.00000e+00 
 1.00000e+00 
 1.00000e+00 
 1.00000e+00 
 1.00000e+00 
 1.00000e+00 
       00001 
 1.00000e+00 
 1.00000e+00 
 1.00000e+00 
 1.00000e+00 
 1.00000e+00 
 1.00000e+00 
 1.00000e+00 
 1.00000e+00 
 1.00000e+00 
       00001 
 1.00000e+00 
 1.00000e+00 
       00001 
 1.00000e+00 
 1.00000e+00 
 1.00000e+00 
 1.00000e+00 
       00001 
 1.00000e+00 
       00001 
 1.00000e+00 
 1.00000e+00 
 1.00000e+00 
 1.00000e+00 
 1.00000e+00 
       00001 
 1.00000e+00 
 1.00000e+00 
       00001 
 1.00000e+00 
 1.00000e+00 
       00001 
 1.00000e+00 
 1.00000e+00 
 1.00000e+00 
 1.00000e+00 
 1.00000e+00 
 1.00000e+00 
 1.00000e+00 
 1.00000e+00 
 1.00000e+00 
 1.00000e+00 
 1.00000e+00 
 1.00000e+00 
 1.00000e+00 
 1.00000e+00 
 1.00000e+00 
       00001 
 1.00000e+00 
 1.00000e+00 
 1.00000e+00 
       00001 
 1.00000e+00 
 1.00000e+00 
 1.00000e+00 
 1.00000e+00 
 1.00000e+00 
 1.00000e+00 
 1.00000e+00 
       00001 
 1.00000e+00 
 1.00000e+00 
 1.00000e+00 
       00001 
 1.00000e+00 
       00001 
 1.00000e+00 
 1.00000e+00 
 1.00000e+00 
 1.00000e+00 
 1.00000e+00 
 1.00000e+00 
 1.00000e+00 
 1.00000e+00 
 1.00000e+00 
       00001 
 1.00000e+00 
 1.00000e+00 
 1.00000e+00 
 1.00000e+00 
 1.00000e+00 
       00001 
 1.00000e+00 
       00001 
 1.00000e+00 
 1.00000e+00 
 1.00000e+00 
 1.00000e+00 
 1.00000e+00 
 1.00000e+00 
 1.00000e+00 
 9.05807e-01 
 8.40228e-01 
 8.14467e-01 
 8.30490e-01 
 8.86711e-01 
 9.75957e-01 
 1.00000e+00 
       00001 
       00001 
 1.00000e+00 
 1.00000e+00 
 1.00000e+00 
 1.00000e+00 
 1.00000e+00 
       00001 
 1.00000e+00 
 1.00000e+00 
       00001 
       00001 
 1.00000e+00 
 1.00000e+00 
 1.00000e+00 
 1.00000e+00 
 1.00000e+00 
       00001 
 1.00000e+00 
 1.00000e+00 
 1.00000e+00 
 1.00000e+00 
 1.00000e+00 
 1.00000e+00 
 1.00000e+00 
 1.00000e+00 
 1.00000e+00 
 1.00000e+00 
 1.00000e+00 
 1.00000e+00 
 1.00000e+00 
 1.00000e+00 
 1.00000e+00 
 1.00000e+00 
 1.00000e+00 
 1.00000e+00 
 1.00000e+00 
 1.00000e+00 
 1.00000e+00 
 1.00000e+00 
 1.00000e+00 
 1.00000e+00 
 1.00000e+00 
 1.00000e+00 
 1.00000e+00 
 1.00000e+00 
 1.00000e+00 
 1.00000e+00 
 1.00000e+00 
 1.00000e+00 
 1.00000e+00 
 1.00000e+00 
       00001 
 1.00000e+00 
 1.00000e+00 
 1.00000e+00 
 1.00000e+00 
 1.00000e+00 
 1.00000e+00 
 1.00000e+00 
 1.00000e+00 
 1.00000e+00 
 1.00000e+00 
 1.00000e+00 
 1.00000e+00 
 9.99357e-01 
 8.19014e-01 
 6.58751e-01 
 5.32016e-01 
 4.45691e-01 
 4.12374e-01 
 4.34270e-01 
 5.09494e-01 
 6.26704e-01 
 7.78012e-01 
 9.51823e-01 
 1.00000e+00 
 1.00000e+00 
 1.00000e+00 
       00001 
 1.00000e+00 
 1.00000e+00 
       00001 
 1.00000e+00 
 1.00000e+00 
 1.00000e+00 
 1.00000e+00 
       00001 
 1.00000e+00 
 1.00000e+00 
 1.00000e+00 
 1.00000e+00 
 1.00000e+00 
 1.00000e+00 
 1.00000e+00 
 1.00000e+00 
 1.00000e+00 
 1.00000e+00 
 1.00000e+00 
       00001 
 1.00000e+00 
 1.00000e+00 
 1.00000e+00 
 1.00000e+00 
 1.00000e+00 
 1.00000e+00 
 9.96629e-01 
 9.74863e-01 
 9.71470e-01 
 9.86733e-01 
       00001 
 1.00000e+00 
 1.00000e+00 
 1.00000e+00 
 1.00000e+00 
 1.00000e+00 
 1.00000e+00 
 1.00000e+00 
 1.00000e+00 
 1.00000e+00 
 1.00000e+00 
 1.00000e+00 
 1.00000e+00 
 1.00000e+00 
       00001 
 1.00000e+00 
 1.00000e+00 
 1.00000e+00 
 1.00000e+00 
 1.00000e+00 
 1.00000e+00 
 1.00000e+00 
 1.00000e+00 
 1.00000e+00 
 1.00000e+00 
 1.00000e+00 
 1.00000e+00 
 1.00000e+00 
       00001 
 9.31521e-01 
 6.93687e-01 
 4.65059e-01 
 2.60562e-01 
 1.49863e-03 
 2.15489e-17 
-3.61127e-17 
 3.87646e-17 
 2.87910e-17 
 2.24058e-01 
 4.17603e-01 
 6.38607e-01 
 8.69728e-01 
 1.00000e+00 
 1.00000e+00 
 1.00000e+00 
       00001 
 1.00000e+00 
       00001 
 1.00000e+00 
 1.00000e+00 
 1.00000e+00 
 1.00000e+00 
 1.00000e+00 
       00001 
 1.00000e+00 
 1.00000e+00 
 1.00000e+00 
 1.00000e+00 
 1.00000e+00 
       00001 
 1.00000e+00 
 1.00000e+00 
 1.00000e+00 
 1.00000e+00 
 1.00000e+00 
 1.00000e+00 
       00001 
 1.00000e+00 
 1.00000e+00 
 9.67800e-01 
 9.01926e-01 
 8.50933e-01 
 8.20948e-01 
 8.16621e-01 
 8.38437e-01 
 8.82245e-01 
 9.42342e-01 
 1.00000e+00 
 1.00000e+00 
 1.00000e+00 
 1.00000e+00 
 1.00000e+00 
 1.00000e+00 
       00001 
 1.00000e+00 
 1.00000e+00 
 1.00000e+00 
 1.00000e+00 
 1.00000e+00 
 1.00000e+00 
 1.00000e+00 
 1.00000e+00 
 1.00000e+00 
 1.00000e+00 
 1.00000e+00 
 1.00000e+00 
 1.00000e+00 
 1.00000e+00 
 1.00000e+00 
 1.00000e+00 
 1.00000e+00 
 1.00000e+00 
 1.00000e+00 
 9.35175e-01 
 6.51090e-01 
 3.56971e-01 
 3.34902e-17 
-6.93073e-18 
 2.38169e-18 
-4.69249e-19 
 4.30311e-18 
-3.63566e-18 
-2.20805e-18 
 1.87253e-17 
 9.78150e-18 
 2.94703e-01 
 5.82096e-01 
 8.60456e-01 
 1.00000e+00 
       00001 
 1.00000e+00 
 1.00000e+00 
 1.00000e+00 
 1.00000e+00 
 1.00000e+00 
 1.00000e+00 
 1.00000e+00 
 1.00000e+00 
 1.00000e+00 
       00001 
 1.00000e+00 
 1.00000e+00 
 1.00000e+00 
 1.00000e+00 
 1.00000e+00 
 1.00000e+00 
 1.00000e+00 
 1.00000e+00 
 1.00000e+00 
       00001 
 1.00000e+00 
 1.00000e+00 
 1.00000e+00 
 9.32865e-01 
 8.36376e-01 
 7.48424e-01 
 6.80879e-01 
 3.97313e-01 
 3.51970e-01 
 6.61618e-01 
 7.23987e-01 
 8.04674e-01 
 8.96595e-01 
 9.90748e-01 
 1.00000e+00 
 1.00000e+00 
 1.00000e+00 
 1.00000e+00 
       00001 
 1.00000e+00 
 1.00000e+00 
 1.00000e+00 
 1.00000e+00 
 1.00000e+00 
       00001 
 1.00000e+00 
 1.00000e+00 
       00001 
 1.00000e+00 
 1.00000e+00 
 1.00000e+00 
 1.00000e+00 
       00001 
 1.00000e+00 
 1.00000e+00 
       00001 
 1.00000e+00 
 1.00000e+00 
 6.99362e-01 
 3.58454e-01 
-2.22838e-17 
-3.34762e-19 
 1.84368e-18 
-6.12758e-19 
 3.68441e-19 
-5.20522e-19 
 3.23249e-19 
 7.20410e-19 
-7.69315e-19 
-3.78270e-18 
 4.82816e-17 
 2.81661e-01 
 6.17262e-01 
 9.26198e-01 
 1.00000e+00 
       00001 
 1.00000e+00 
 1.00000e+00 
 1.00000e+00 
 1.00000e+00 
 1.00000e+00 
 1.00000e+00 
       00001 
       00001 
 1.00000e+00 
 1.00000e+00 
 1.00000e+00 
 1.00000e+00 
 1.00000e+00 
 1.00000e+00 
 1.00000e+00 
 1.00000e+00 
 1.00000e+00 
 1.00000e+00 
 1.00000e+00 
 1.00000e+00 
 1.00000e+00 
 9.37583e-01 
 8.16728e-01 
 6.94023e-01 
 7.78073e-02 
-2.62737e-17 
-1.29904e-17 
 1.09773e-17 
-1.49904e-17 
 3.25668e-02 
 5.67629e-01 
 7.72598e-01 
 8.91887e-01 
 1.00000e+00 
 1.00000e+00 
 1.00000e+00 
 1.00000e+00 
 1.00000e+00 
 1.00000e+00 
 1.00000e+00 
 1.00000e+00 
 1.00000e+00 
 1.00000e+00 
 1.00000e+00 
 1.00000e+00 
 1.00000e+00 
 1.00000e+00 
 1.00000e+00 
 1.00000e+00 
 1.00000e+00 
 1.00000e+00 
 1.00000e+00 
 1.00000e+00 
 1.00000e+00 
 1.00000e+00 
 1.00000e+00 
 8.31463e-01 
 4.70260e-01 
 1.49857e-17 
 3.67604e-18 
-5.01224e-19 
-1.76358e-19 
 1.43251e-19 
-1.06766e-19 
 6.97181e-20 
-9.74487e-21 
-4.85556e-21 
-2.26319e-19 
 1.76388e-18 
-3.17217e-18 
 6.32675e-18 
 3.80195e-01 
 7.38377e-01 
 1.00000e+00 
 1.00000e+00 
       00001 
 1.00000e+00 
 1.00000e+00 
 1.00000e+00 
       00001 
 1.00000e+00 
       00001 
       00001 
 1.00000e+00 
 1.00000e+00 
 1.00000e+00 
 1.00000e+00 
 1.00000e+00 
 1.00000e+00 
 1.00000e+00 
 1.00000e+00 
 1.00000e+00 
 1.00000e+00 
 1.00000e+00 
 1.00000e+00 
 9.81153e-01 
 8.47593e-01 
 7.00809e-01 
 3.48383e-02 
 3.10307e-17 
-5.64595e-18 
 1.04993e-18 
-2.64191e-18 
 8.09502e-18 
-3.34257e-17 
 6.87589e-17 
 5.24091e-01 
 7.94318e-01 
 9.29028e-01 
 1.00000e+00 
       00001 
 1.00000e+00 
 1.00000e+00 
 1.00000e+00 
 1.00000e+00 
 1.00000e+00 
 1.00000e+00 
 1.00000e+00 
       00001 
 1.00000e+00 
 1.00000e+00 
 1.00000e+00 
 1.00000e+00 
 1.00000e+00 
 1.00000e+00 
 1.00000e+00 
 1.00000e+00 
 1.00000e+00 
 1.00000e+00 
 1.00000e+00 
       00001 
 6.70768e-01 
 2.63937e-01 
-1.86653e-17 
 2.32733e-18 
-1.32810e-19 
 2.64956e-20 
-2.57073e-20 
 1.84848e-20 
-1.11777e-20 
 5.25771e-21 
-1.54290e-20 
 9.21631e-20 
-2.33246e-19 
-9.05970e-19 
 1.41423e-17 
 1.70455e-01 
 5.72628e-01 
 9.25146e-01 
 1.00000e+00 
       00001 
 1.00000e+00 
 1.00000e+00 
 1.00000e+00 
 1.00000e+00 
 1.00000e+00 
 1.00000e+00 
 1.00000e+00 
 1.00000e+00 
 1.00000e+00 
 1.00000e+00 
 1.00000e+00 
 1.00000e+00 
       00001 
 1.00000e+00 
 1.00000e+00 
 1.00000e+00 
 1.00000e+00 
 1.00000e+00 
 1.00000e+00 
 9.22394e-01 
 7.68030e-01 
 1.00893e-01 
 1.82242e-17 
-7.51549e-18 
 2.17326e-18 
-5.86365e-19 
 8.64455e-19 
-3.43303e-18 
 6.80221e-18 
-1.15766e-17 
 1.45176e-02 
 7.07159e-01 
 8.63357e-01 
 9.98508e-01 
 1.00000e+00 
 1.00000e+00 
 1.00000e+00 
 1.00000e+00 
 1.00000e+00 
 1.00000e+00 
 1.00000e+00 
 1.00000e+00 
 1.00000e+00 
 1.00000e+00 
 1.00000e+00 
 1.00000e+00 
 1.00000e+00 
 1.00000e+00 
 1.00000e+00 
 1.00000e+00 
 1.00000e+00 
 1.00000e+00 
 1.00000e+00 
 1.00000e+00 
 9.26465e-01 
 5.40944e-01 
-3.90361e-17 
 1.56393e-17 
-2.22819e-18 
 3.40841e-19 
-4.06355e-20 
 7.98730e-21 
-3.60775e-21 
 2.09993e-21 
-1.73679e-21 
 4.07648e-21 
-9.29021e-22 
-1.34380e-19 
 1.40735e-18 
-9.03493e-18 
 5.30222e-17 
 4.37075e-01 
 8.21282e-01 
 1.00000e+00 
 1.00000e+00 
 1.00000e+00 
 1.00000e+00 
 1.00000e+00 
 1.00000e+00 
 1.00000e+00 
 1.00000e+00 
 1.00000e+00 
       00001 
 1.00000e+00 
 1.00000e+00 
 1.00000e+00 
 1.00000e+00 
 1.00000e+00 
 1.00000e+00 
 1.00000e+00 
 1.00000e+00 
 1.00000e+00 
 1.00000e+00 
 1.00000e+00 
 8.79539e-01 
 7.10310e-01 
-1.32098e-17 
-2.32123e-18 
 1.37717e-18 
-5.85514e-19 
 2.24915e-19 
-2.94188e-19 
 8.13394e-19 
-1.89443e-18 
 7.70847e-18 
-4.56775e-17 
 4.94882e-01 
 8.13969e-01 
 9.62873e-01 
 1.00000e+00 
 1.00000e+00 
 1.00000e+00 
 1.00000e+00 
 1.00000e+00 
 1.00000e+00 
 1.00000e+00 
 1.00000e+00 
 1.00000e+00 
 1.00000e+00 
 1.00000e+00 
       00001 
 1.00000e+00 
 1.00000e+00 
 1.00000e+00 
 1.00000e+00 
 1.00000e+00 
 1.00000e+00 
 1.00000e+00 
       00001 
 8.59763e-01 
 4.51688e-01 
-1.54856e-17 
-2.82335e-18 
 9.29822e-19 
-1.66681e-19 
 2.87204e-20 
-4.50715e-21 
 1.02820e-21 
-4.24428e-22 
 1.33942e-22 
 1.53720e-21 
-1.65285e-20 
 1.11787e-19 
-7.33718e-19 
 3.26391e-18 
-5.03948e-18 
 3.46593e-01 
 7.52573e-01 
 1.00000e+00 
 1.00000e+00 
 1.00000e+00 
 1.00000e+00 
 1.00000e+00 
 1.00000e+00 
 1.00000e+00 
 1.00000e+00 
 1.00000e+00 
 1.00000e+00 
 1.00000e+00 
 1.00000e+00 
 1.00000e+00 
 1.00000e+00 
 1.00000e+00 
       00001 
       00001 
 1.00000e+00 
 1.00000e+00 
 1.00000e+00 
 1.00000e+00 
 8.57725e-01 
 6.74057e-01 
       00000 
-7.50340e-19 
-4.07785e-19 
 1.36722e-19 
-6.05925e-20 
 6.98720e-20 
-2.12013e-19 
 8.65037e-19 
-5.44422e-18 
 4.69238e-17 
 1.49188e-01 
 7.88020e-01 
 9.44603e-01 
 1.00000e+00 
 1.00000e+00 
       00001 
 1.00000e+00 
 1.00000e+00 
 1.00000e+00 
       00001 
 1.00000e+00 
 1.00000e+00 
 1.00000e+00 
 1.00000e+00 
 1.00000e+00 
 1.00000e+00 
       00001 
 1.00000e+00 
 1.00000e+00 
 1.00000e+00 
 1.00000e+00 
 1.00000e+00 
 1.00000e+00 
 8.32559e-01 
 4.15145e-01 
-2.83850e-17 
-6.48786e-19 
-1.22416e-19 
 2.23839e-20 
-4.12740e-21 
 1.05630e-21 
-2.45292e-22 
 7.68407e-23 
 3.83674e-22 
-2.98356e-21 
 1.47205e-20 
-7.52803e-20 
 3.52603e-19 
-1.02821e-18 
-3.36676e-18 
 3.10663e-01 
 7.25400e-01 
 1.00000e+00 
 1.00000e+00 
 1.00000e+00 
 1.00000e+00 