<?xml version="1.0" encoding="utf-8"?>
<VTKFile byte_order="LittleEndian" type="UnstructuredGrid" version="0.1">
   <UnstructuredGrid>
      <Piece NumberOfCells="36053" NumberOfPoints="10858">
         <Points>
            <DataArray Name="Points" NumberOfComponents="3" format="ascii" type="Float32">
0.0000 955.4300 -953.1000
0.0000 955.4300 -853.1000
0.0000 855.4300 -953.1000
100.0000 955.4300 -953.1000
102.8700 822.4300 -953.1000
0.0000 805.4300 -866.4900
102.2300 955.4300 -811.4300
0.0000 955.4300 -753.1000
0.0000 755.4300 -953.1000
200.0000 955.4300 -953.1000
114.5000 817.1000 -863.4100
0.0000 834.5700 -772.0000
200.0000 891.4200 -889.5600
200.0000 861.1500 -953.1000
200.0000 955.4300 -853.1000
130.6500 849.7200 -800.6700
155.8500 799.4400 -880.9300
200.0000 902.3800 -818.4500
117.1900 733.6400 -953.1000
200.0000 854.7600 -838.5000
200.0000 814.5100 -893.2600
69.0480 784.0000 -778.0400
200.0000 869.1400 -809.3700
0.0000 734.8500 -803.1000
163.5000 792.9300 -816.9100
148.5300 757.4200 -848.0500
200.0000 773.5100 -953.1000
200.0000 817.4400 -833.4600
200.0000 780.4400 -885.2200
113.4000 955.4300 -703.1000
200.0000 787.2300 -865.7600
200.0000 769.4200 -914.5900
200.0000 830.4700 -809.7200
200.0000 888.1200 -767.0600
99.2410 851.3000 -709.7100
200.0000 955.4300 -753.1000
200.0000 843.6700 -780.2700
200.0000 790.9100 -829.0700
200.0000 803.4600 -810.4900
200.0000 754.3500 -887.0800
200.0000 762.0200 -866.6500
200.0000 767.1000 -850.5500
167.7100 806.4200 -762.0800
200.0000 812.7000 -789.3600
66.1780 696.8200 -824.8800
178.8200 782.9200 -790.3100
142.0700 806.1500 -738.8200
155.1700 767.0500 -782.9300
133.3800 733.2800 -803.5400
200.0000 772.5100 -825.9300
0.0000 843.1600 -675.4900
200.0000 735.5600 -915.7400
200.0000 781.2000 -813.1200
0.0000 655.4300 -953.1000
0.0000 955.4300 -653.1000
135.3700 691.2700 -897.2200
172.9800 758.8400 -801.6800
179.6800 739.1400 -839.7200
200.0000 743.8700 -867.9500
200.0000 749.2000 -853.7400
184.2100 753.7600 -818.8100
200.0000 790.0200 -793.5600
200.0000 752.9900 -839.0800
200.0000 818.9000 -763.0400
200.0000 767.7900 -813.2200
200.0000 772.6900 -804.0500
200.0000 853.1700 -740.2100
166.1300 704.0300 -882.0100
186.1700 762.6600 -797.5700
200.0000 756.3200 -823.2000
200.0000 736.5900 -854.6400
200.0000 775.7300 -793.3500
200.0000 740.2900 -844.7700
188.1300 752.1200 -807.1000
200.0000 747.8100 -828.0700
200.0000 743.0300 -836.3000
191.8400 746.7900 -817.2800
200.0000 760.2900 -809.2200
177.2200 765.1700 -776.4600
191.8100 742.0600 -824.6100
200.0000 763.7100 -803.7700
200.0000 796.1500 -769.2400
200.0000 776.6200 -785.7100
200.0000 766.3700 -797.2200
193.2700 749.1400 -810.7900
200.0000 753.3200 -813.7500
190.6900 734.4400 -829.2200
200.0000 748.6800 -818.9400
180.2400 718.9200 -841.5200
81.7330 762.2000 -713.7400
192.4800 763.2500 -787.7400
200.0000 717.9100 -881.5500
200.0000 744.3900 -822.6900
200.0000 757.3000 -803.7500
200.0000 754.2500 -807.6900
200.0000 731.5200 -845.3900
200.0000 904.2100 -709.9400
187.2300 738.6000 -812.8200
200.0000 741.0200 -827.4500
193.5000 740.3300 -818.3100
189.5700 752.5700 -795.1300
200.0000 734.1000 -838.5200
200.0000 759.2700 -799.1500
200.0000 750.7500 -809.8300
200.0000 748.7600 -812.6300
165.2800 735.2900 -789.6800
200.0000 780.2800 -774.2200
200.0000 766.4800 -788.3500
200.0000 735.9400 -831.4600
200.0000 745.9100 -814.9300
200.0000 744.2800 -817.3300
185.2100 753.8000 -785.1900
200.0000 760.3500 -794.6400
200.0000 720.2300 -863.9100
200.0000 740.3900 -822.1000
200.0000 752.7500 -803.5400
193.5400 741.5800 -810.7300
193.8300 746.0000 -804.5700
200.0000 737.2600 -827.0200
200.0000 741.6600 -819.5300
193.6900 734.4100 -821.6200
200.0000 738.3400 -824.4800
186.9300 727.0800 -824.1700
200.0000 750.0700 -806.2800
200.0000 754.6200 -800.0600
189.7800 765.6700 -774.1600
200.0000 747.3500 -808.7800
195.7600 729.2400 -831.1900
0.0000 648.2500 -853.1000
200.0000 744.8700 -811.3200
124.3600 657.1100 -953.1000
200.0000 755.6600 -796.0900
200.0000 742.6300 -813.9100
200.0000 760.5600 -789.6300
200.0000 727.9500 -838.9700
200.0000 740.5700 -816.4900
200.0000 721.8700 -851.6300
200.0000 797.3600 -753.4300
200.0000 738.6800 -819.0300
196.6700 732.6000 -824.1500
200.0000 729.9100 -833.9900
200.0000 736.9200 -821.5200
200.0000 735.3100 -823.9700
200.0000 731.8400 -829.9400
200.0000 733.6600 -826.6400
200.0000 704.3900 -905.0300
192.7500 755.4800 -785.1200
200.0000 756.2900 -791.8800
200.0000 768.6000 -777.7100
160.5400 770.7200 -738.9200
194.0400 734.4900 -813.6700
200.0000 760.5700 -785.8500
200.0000 723.3000 -843.0700
200.3700 751.7600 -796.5500
200.5000 748.0300 -801.5700
200.4500 733.9900 -822.6500
200.4000 729.9900 -829.1400
181.4300 702.9700 -854.5600
200.6100 739.7800 -812.9200
200.6200 742.2400 -809.1900
200.6100 744.9500 -805.1300
194.8100 725.7800 -827.5100
200.6800 734.8200 -819.8400
200.5000 726.9300 -833.0000
200.0000 781.2000 -761.9500
200.3000 753.9800 -791.2500
200.0000 756.7200 -787.4900
200.0000 762.0300 -780.8300
193.7300 728.1500 -818.9600
200.8900 731.4500 -823.5000
189.3400 716.7300 -832.5300
201.0700 735.4100 -816.6500
200.0000 820.9100 -730.2500
190.0400 754.5800 -775.7800
200.3000 754.7400 -787.1500
183.0000 765.6200 -756.9100
201.2800 732.0900 -820.4000
200.0000 757.0400 -782.9500
189.7300 734.0600 -800.4200
200.0000 693.7700 -953.1000
196.3100 754.6000 -781.0700
201.6100 735.7700 -813.1100
201.5000 728.5800 -824.1700
200.0000 761.5400 -776.2000
200.0000 716.0700 -845.1800
200.0000 711.9900 -854.6700
200.3300 755.1000 -783.6600
140.2500 895.8100 -660.1600
192.1300 727.7500 -810.4900
201.6300 742.3900 -801.0100
201.8900 738.9600 -805.8300
200.0000 769.4500 -766.7300
200.0000 706.0500 -868.2800
201.3600 721.5500 -833.3800
202.1400 728.8800 -820.7900
202.2600 735.9600 -809.2300
196.1100 732.5700 -805.8900
200.0000 757.2500 -778.2500
195.9600 754.9400 -776.2800
196.3300 718.1100 -829.1600
202.5800 731.2100 -815.5700
183.3400 721.9700 -804.2000
202.2700 725.4000 -824.6800
201.5200 747.4200 -790.1500
200.0000 762.4900 -770.8200
200.4300 755.1200 -778.6400
202.7400 725.9000 -822.1400
182.9600 748.2900 -767.1600
203.0400 733.0400 -810.5200
201.0200 751.8800 -782.0500
0.0000 734.8500 -703.1000
203.0200 736.0000 -804.9700
96.9080 707.0100 -752.4100
200.0000 757.3400 -773.4000
198.1100 722.6200 -818.4700
196.8100 734.4700 -797.8200
194.3500 717.4000 -820.5700
201.9200 715.7800 -835.6000
195.4800 753.0700 -771.6100
203.1300 738.4600 -798.9300
203.1700 721.9200 -825.0600
190.6200 739.3500 -782.2100
170.4200 683.0000 -857.9400
200.4800 755.2200 -774.0300
203.8300 733.1500 -806.6100
200.0000 761.7600 -766.1300
203.6500 722.9000 -822.3300
194.6900 756.2000 -765.8800
200.0000 707.2800 -846.6400
169.9100 703.5000 -809.5600
203.1100 741.3500 -791.5400
200.0000 769.6900 -756.2700
192.1900 750.9200 -767.1300
200.0000 757.2600 -768.4000
200.0000 780.7800 -745.7800
201.0300 752.9600 -773.7700
204.1600 735.8700 -798.8400
204.8300 723.2500 -818.1100
200.5300 755.1700 -769.2500
204.3100 717.8100 -825.3700
200.0000 762.1500 -760.0200
205.5000 728.7100 -807.9300
188.7700 708.6600 -817.2800
204.9800 719.1700 -822.1000
200.0000 756.9600 -763.2600
200.0000 690.1500 -881.9900
205.7200 731.8000 -800.6200
200.5100 755.2000 -764.9800
200.7500 713.5200 -822.5200
197.1400 728.1900 -793.6200
203.3500 709.2500 -834.7100
202.4200 747.9800 -774.0100
200.0000 790.7000 -731.5900
188.5600 732.6900 -776.8100
205.6700 735.5300 -790.6500
200.0000 761.4900 -754.3300
147.4200 662.6600 -853.7000
201.4200 751.9900 -764.7300
186.2400 749.0500 -752.3600
204.9900 739.0800 -783.3700
200.0000 756.3900 -757.9900
197.5900 731.6100 -783.6900
205.9600 712.0800 -825.6800
200.0000 696.8800 -847.9000
196.4200 714.7300 -806.7700
200.0000 691.7300 -861.0500
198.2800 708.1500 -820.5000
200.6200 754.4200 -759.3000
200.0000 679.4400 -906.8700
204.0200 743.2500 -774.9800
206.9400 712.6800 -822.8700
186.4100 760.7400 -738.3700
208.7400 720.0200 -811.4700
192.9400 752.7100 -750.5600
200.0000 766.4300 -743.5400
185.4800 692.1100 -826.9200
208.5900 714.5100 -817.7100
209.5200 724.4000 -802.3500
200.0000 755.4400 -752.6200
200.0000 759.1700 -748.2600
200.5800 753.8000 -753.8100
207.2500 735.0600 -781.3400
147.0300 774.4000 -694.7700
209.4600 728.4000 -792.5500
200.0000 773.4600 -733.2400
206.4300 737.9900 -774.2500
208.0200 704.9500 -826.1400
198.0600 731.4300 -771.3900
102.2400 634.4300 -858.1600
195.9700 752.3100 -745.3800
200.0000 754.1400 -747.4500
200.0000 758.3300 -743.3400
200.0000 795.7800 -713.4300
200.6600 752.5500 -749.1900
203.0800 746.5500 -754.9900
200.0000 684.6600 -848.8200
201.6500 749.7500 -750.0300
211.4900 705.7700 -819.4300
208.6700 734.2700 -772.2000
182.3900 737.2900 -742.2800
195.9200 750.6100 -740.8100
200.0000 752.5000 -742.6300
200.6400 751.2200 -744.4600
214.1500 721.7400 -794.4600
188.8600 746.2900 -737.8500
215.0200 715.9800 -804.1000
212.6500 726.5600 -784.1100
200.0000 755.2200 -738.1700
200.0000 761.0000 -732.8400
179.1700 753.9500 -721.1100
197.6100 731.0400 -760.4000
200.0000 674.9800 -862.5700
207.9900 736.0500 -764.6800
200.0000 844.0500 -680.0300
123.0800 793.7200 -660.1600
211.5800 729.4800 -775.8800
206.2200 739.3500 -757.5500
194.5400 748.2300 -736.8100
210.6100 695.5600 -827.1800
201.2900 748.3700 -741.9700
200.6100 749.6000 -740.0700
215.6000 706.5400 -813.0800
200.0000 750.5700 -738.1800
200.0000 753.7000 -733.8700
200.0000 773.9000 -715.5100
209.9300 732.8900 -763.2800
217.3000 721.0400 -786.8700
200.0000 955.4300 -653.1000
163.8800 737.4500 -717.0300
200.0000 663.0900 -882.6900
197.0100 745.3200 -734.7600
200.5000 747.7400 -735.6200
190.0900 746.1300 -727.6700
200.0000 748.3800 -734.1100
215.4000 697.2300 -819.7000
220.4100 714.9400 -796.5000
208.8200 734.4000 -756.6200
197.6500 719.0100 -762.9800
166.0600 708.4600 -745.8500
213.1800 728.3700 -766.8500
203.9300 710.9500 -778.4400
200.0000 750.2100 -729.7500
221.1300 707.3200 -806.2000
188.3900 701.5800 -773.6800
200.0000 753.4800 -726.4100
200.0000 670.4400 -847.9400
219.5400 700.7700 -813.0900
[...]
         <PointData>
            <DataArray Name="fValues" NumberOfComponents="3" format="ascii" type="Float64">
-2.35471e-26 -3.22142e-27  1.95532e-28 
 5.83226e-26 -6.89997e-27  8.01200e-27 
-5.68216e-27  1.22608e-26 -7.93260e-27 
-5.54625e-27  1.08197e-27 -4.70464e-28 
 1.15623e-26 -3.62783e-27 -1.56106e-27 
-1.85056e-26 -3.61560e-26  1.92689e-26 
 2.58375e-26 -5.11435e-27  4.40309e-27 
 7.66727e-26 -1.74676e-26  1.40835e-26 
 9.09225e-26 -5.12885e-26  5.04934e-26 
 2.73841e-27 -9.37306e-28  2.03759e-28 
-3.76294e-26  1.32368e-27 -2.68523e-27 
-2.36264e-25  5.02224e-26 -4.64315e-26 
 1.12149e-26 -7.04471e-27  4.01324e-27 
-1.25293e-26  1.22877e-26 -5.41157e-27 
-9.85029e-27  3.67241e-27 -2.58273e-27 
 1.54355e-27  9.72594e-28  5.37110e-28 
-1.27789e-25  1.37872e-25 -6.64379e-26 
-1.37696e-26  3.98168e-27 -2.86893e-27 
 1.20674e-26  2.01222e-26 -1.03017e-26 
 1.86259e-26 -1.73361e-26  7.69337e-27 
 2.01853e-26 -2.09227e-26  9.38606e-27 
 6.31867e-25 -1.33110e-25  1.42012e-25 
 6.59305e-27  1.17579e-27 -2.18887e-27 
 7.93722e-25 -1.66468e-25  1.43585e-25 
-2.02198e-25  9.23374e-26 -6.12220e-26 
 7.86376e-25 -4.39292e-25  2.66744e-25 
 9.31484e-27 -3.87742e-26  2.47659e-26 
 8.63538e-26 -5.00060e-26  2.83115e-26 
 1.14603e-25 -8.43477e-26  5.25284e-26 
-1.40563e-26  2.28651e-27 -2.62188e-27 
-8.44858e-26  4.31332e-26 -2.06192e-26 
 8.37726e-26 -1.09386e-25  5.39427e-26 
-1.33040e-27 -6.66657e-27  1.03707e-26 
 2.66956e-27 -1.35833e-27 -1.65205e-28 
-9.98331e-27  5.27977e-27 -3.32458e-28 
-1.54904e-27  3.13305e-28  2.98763e-28 
-3.86096e-26  9.19203e-27 -2.55248e-27 
 1.50297e-25 -7.06007e-26  4.00833e-26 
 5.46884e-26 -2.29553e-26  1.74033e-27 
-3.14364e-25  2.98590e-25 -1.69454e-25 
-5.15726e-26 -8.10269e-26 -1.41572e-26 
-1.31476e-25  4.55014e-26 -6.75179e-26 
 1.62346e-25 -3.28247e-26  1.47283e-28 
-1.25505e-26 -9.93893e-27  7.48176e-27 
-3.37146e-25  2.88919e-25 -2.05077e-25 
 4.71432e-26  1.52771e-26  4.15619e-26 
-2.32539e-26  6.07721e-27 -3.81975e-26 
-7.20140e-25  8.21958e-26 -1.35981e-25 
-3.64643e-24  8.88293e-25 -1.02704e-24 
-2.56945e-25  1.77777e-25 -2.41786e-26 
-1.39668e-25  2.63042e-26 -2.17950e-26 
-1.20992e-25  1.97818e-25 -1.03639e-25 
-2.68443e-26  2.75610e-27  4.57821e-26 
 2.90045e-25 -1.41324e-25  4.17322e-26 
 6.12542e-27 -1.75736e-27  4.64315e-28 
-3.11364e-25 -4.08735e-26  1.20601e-25 
 3.91312e-25 -1.13349e-26  1.56900e-25 
-8.10122e-25  8.29255e-25  1.79930e-26 
-4.69532e-25  6.15258e-25 -3.20974e-25 
 3.81810e-25 -4.71225e-25  4.97596e-26 
 3.42057e-25 -2.59731e-25 -1.08375e-25 
-4.29958e-26 -1.71087e-26 -5.95876e-26 
 2.50589e-25 -1.78663e-25  9.13024e-26 
-4.21955e-26  8.36986e-27 -7.14871e-27 
-4.40819e-26  1.25694e-25  3.72578e-26 
 1.36448e-25  2.08799e-26  1.55595e-25 
-1.10708e-26 -2.94208e-29  4.30236e-27 
 8.00627e-25 -1.26498e-24  5.84372e-25 
-7.84870e-25 -2.04727e-25 -9.97623e-25 
-7.71336e-26  7.98493e-26  1.19359e-25 
 4.87467e-25  3.62288e-25 -4.02941e-26 
 2.62055e-25  6.09658e-26  3.25316e-25 
 3.66372e-25 -4.77402e-25  2.89855e-26 
 9.89721e-25 -2.30957e-25  2.38933e-24 
 1.61987e-25  8.50254e-26  2.29344e-25 
-2.79007e-25  1.48904e-25 -2.65131e-25 
-6.14445e-25 -2.44259e-25 -6.50748e-25 
-2.42403e-25  6.59356e-26 -4.96474e-25 
 6.72441e-25 -2.47545e-25  2.46418e-25 
-6.74983e-25  1.72739e-25 -4.04386e-25 
 4.23711e-25  1.61541e-25  4.91647e-25 
-2.00133e-26 -2.02089e-26  1.91559e-27 
 8.57711e-26  1.24041e-25  1.14890e-25 
 4.85845e-25  1.63416e-25  6.72886e-25 
-1.54247e-24 -1.28190e-24 -2.41867e-24 
 1.51366e-26  2.71063e-25  2.98529e-26 
 4.85521e-24 -3.11721e-24  2.02420e-24 
 1.39579e-25 -2.44930e-26  6.67441e-26 
-2.97461e-24  1.01501e-24 -3.87389e-25 
 4.35848e-25 -1.29196e-25  5.74447e-26 
-7.17807e-25 -2.23064e-25 -8.43743e-25 
-6.76682e-25  1.83193e-24 -3.88913e-25 
 6.07601e-25  1.18773e-25  5.53184e-25 
-1.30491e-24 -3.86256e-25 -2.34540e-24 
 2.61424e-25  3.21625e-25  2.00227e-25 
 2.24901e-25 -2.18754e-26  1.03294e-25 
 7.45840e-28 -5.42928e-28 -8.26549e-28 
 3.06533e-24  9.12583e-25  2.58968e-24 
-9.04711e-25  3.27018e-25 -4.45320e-25 
-1.79089e-24 -1.86971e-24 -2.52820e-24 
 4.71162e-24  1.95384e-24  7.33865e-24 
-1.67646e-24  1.24219e-24 -3.59885e-25 
-6.40517e-25 -3.51227e-25 -9.39706e-25 
 1.43613e-24  9.62083e-25  2.33879e-24 
 8.43230e-25  7.47138e-25  1.28598e-24 
 2.29800e-24 -9.81700e-25  2.59064e-24 
-9.93516e-26  5.66974e-26 -6.24189e-26 
 3.03882e-25  1.09167e-25  3.42986e-25 
-1.97470e-24  1.14624e-24 -6.39641e-25 
-1.00460e-24 -1.57952e-24 -1.74742e-24 
 8.59297e-25  1.01394e-24  1.31492e-24 
 4.49881e-24  2.42129e-24  5.93727e-24 
-6.95349e-25 -3.11329e-25 -1.26093e-24 
 1.98254e-24 -3.57485e-24  5.83512e-25 
 9.66857e-25  1.09834e-24  1.14081e-24 
 4.28012e-26  4.40378e-25 -3.36603e-25 
 5.10303e-24  6.59055e-24  8.47642e-24 
 7.07261e-24  5.64928e-24  1.11597e-23 
-6.23755e-25  2.51254e-24  2.29442e-25 
 6.32896e-25  8.91136e-25  1.10816e-24 
-1.75247e-24 -3.78236e-24 -2.09318e-24 
 9.50821e-25  5.49243e-25  6.41124e-25 
-1.32763e-23  5.33877e-24 -1.01403e-23 
-3.15369e-24 -1.55559e-24 -5.07701e-24 
-1.03916e-24 -1.79667e-25 -1.97078e-24 
 1.05801e-25 -4.50213e-25  4.27551e-26 
-2.02554e-24 -2.01097e-24 -3.23370e-24 
 4.38309e-24 -4.25628e-24 -4.33043e-25 
-2.32350e-25 -1.03661e-25  4.29711e-26 
 2.19772e-25 -5.09651e-26  1.18501e-25 
-4.28493e-25  1.23134e-25  7.63860e-26 
-1.32305e-24 -4.94057e-25 -2.00226e-24 
-4.45948e-25 -6.70231e-25 -9.84768e-25 
 3.26089e-25 -3.63227e-26  6.44189e-25 
 3.76470e-24 -2.96399e-24  4.41134e-25 
-1.67772e-24 -2.52678e-24 -2.66695e-24 
 6.07546e-25 -8.56676e-25  2.02977e-25 
-7.28615e-26  6.45946e-26  3.29558e-26 
 2.37191e-25  1.82408e-25 -1.03792e-25 
-2.80192e-24 -4.41106e-24 -1.91303e-24 
-2.11186e-24  2.63508e-24  4.67083e-25 
 1.08192e-24  2.08728e-24  1.41710e-24 
 9.62027e-25  1.26348e-24  5.20443e-25 
-1.31912e-24  2.73289e-24  1.93909e-25 
-6.99397e-25  4.43417e-25 -5.04139e-25 
-2.31879e-25  3.77599e-25 -1.55663e-25 
 1.34192e-24  1.30731e-24  1.07491e-24 
-1.58767e-24 -8.40148e-25 -2.27612e-24 
 1.94446e-25  2.64794e-25  2.43622e-25 
-1.09768e-24  4.53012e-25  3.06278e-25 
 6.04174e-24  8.79908e-24  8.82311e-24 
-5.01694e-26 -1.14796e-25  1.05841e-26 
 6.35478e-24 -3.03751e-24 -2.88277e-25 
-5.29604e-24 -3.63431e-24 -5.92594e-24 
-2.32783e-25 -1.33344e-24 -2.04880e-24 
 2.21865e-24  3.14597e-24  2.73142e-24 
-4.42594e-24 -7.76843e-26 -1.54587e-24 
-1.12812e-23  3.16144e-23 -4.96885e-24 
-3.29741e-24 -5.15194e-24 -5.70066e-24 
-4.47077e-24 -6.25586e-24 -6.74392e-24 
-5.93788e-24 -6.31433e-24 -8.69013e-24 
 1.13622e-23  9.78434e-24  4.56148e-24 
-4.17058e-24 -5.35322e-24 -4.65252e-24 
 5.32866e-24 -6.55245e-24  2.51080e-25 
-2.36165e-25  1.57479e-25 -7.52143e-26 
-1.52133e-24 -9.23759e-25 -2.36295e-24 
-8.00819e-26 -5.69162e-26  1.06333e-25 
-6.25498e-25 -6.35728e-25 -6.21201e-25 
 1.64639e-23  2.09953e-23  1.76256e-23 
 4.67306e-24  4.46658e-24  1.97127e-24 
-2.91518e-23  2.65512e-23 -1.10811e-24 
-9.21900e-24 -1.15495e-23 -1.20740e-23 
-8.26094e-26  1.04702e-26  7.57723e-27 
 5.08830e-24  2.60728e-24  5.64586e-24 
-8.45679e-25 -1.23941e-24 -6.33133e-25 
 1.59098e-27 -3.72491e-25  2.53464e-26 
-6.47537e-24 -6.32938e-24 -9.55439e-24 
-8.28173e-25 -8.45733e-25 -8.80636e-25 
-1.74382e-23 -3.37570e-24 -2.96404e-23 
 3.07858e-25 -1.41836e-25  4.11798e-27 
 3.00828e-24  3.30607e-24  3.66184e-24 
-6.51080e-24 -7.92332e-24 -7.01404e-24 
-3.35678e-24 -1.78014e-24  1.98857e-24 
-1.59685e-25 -1.68554e-26 -1.33550e-25 
 9.75092e-24 -1.58161e-23  5.08638e-24 
 7.39351e-24 -2.44858e-23  2.93161e-24 
-1.18346e-24 -1.20354e-24 -1.41237e-24 
 8.31213e-27 -2.14932e-27  5.46122e-28 
-5.31612e-23 -6.52060e-23 -6.56752e-23 
 1.11047e-23  1.39025e-23  1.49176e-23 
 4.61223e-24  8.42326e-24  7.61746e-24 
 4.56916e-26  1.62723e-25  2.87728e-26 
-3.35791e-25 -4.70822e-24 -4.24476e-25 
 2.92046e-27 -5.39185e-24 -5.11685e-24 
-9.42677e-24 -1.73075e-23 -2.20237e-24 
 5.27446e-24  8.26012e-24  8.33127e-24 
-3.65179e-23 -5.32364e-23 -5.58035e-23 
-7.81721e-25 -7.83929e-25 -9.49679e-25 
 1.36879e-24  1.66828e-24  1.52398e-24 
 8.23948e-24 -1.02414e-23  2.01126e-23 
 2.12393e-23  2.39058e-23  3.11831e-23 
 4.17548e-23 -3.16876e-24  4.60596e-23 
-2.74157e-24 -1.67861e-24  5.32702e-24 
 1.36077e-23  1.12785e-23  1.34677e-23 
-4.61277e-25 -3.71504e-25 -5.92813e-25 
-8.28704e-25 -1.32805e-24 -9.69585e-25 
 2.39905e-24 -6.67560e-24  1.49660e-23 
-8.16084e-24  1.31868e-24 -8.17577e-24 
 3.38218e-23  4.62911e-23  3.96423e-23 
 1.68937e-24  2.16123e-24  1.97753e-24 
 1.13461e-24 -1.45715e-25  1.87778e-25 
 1.76261e-23  2.09162e-23  3.43196e-23 
-5.48843e-24  9.74312e-25 -1.01624e-24 
-8.90256e-25 -1.49945e-24 -1.18944e-24 
-1.55741e-23 -1.72993e-23 -3.80027e-23 
-1.98692e-23 -1.43807e-23 -2.37328e-23 
-3.94978e-23 -8.12368e-23 -1.92348e-23 
 1.89956e-23 -1.05325e-23 -2.77799e-24 
 3.08640e-24  5.80924e-24  4.11405e-24 
 3.64229e-23  1.92766e-23  2.98039e-23 
 7.05814e-24  2.97556e-23  5.88833e-24 
-1.98163e-23 -1.39730e-23 -2.27712e-23 
-1.59711e-23  1.89902e-23 -8.63501e-24 
-2.88437e-26 -8.02902e-25 -3.63853e-26 
 2.97267e-23  3.92606e-23  3.74373e-23 
-3.08452e-27  3.68822e-25 -9.89191e-26 
-1.26344e-23 -2.83491e-23  6.01341e-24 
 1.13769e-25 -3.20035e-25  5.75839e-25 
-1.66924e-23  4.39292e-23 -1.73774e-23 
 3.35676e-23 -1.57948e-23  8.69908e-24 
-2.09891e-23 -1.15441e-23 -1.14002e-23 
 1.48632e-25  1.38150e-25  1.00577e-25 
-3.27238e-24 -1.26146e-23 -6.38310e-24 
-1.29460e-25  7.17882e-26 -2.27263e-25 
 9.26140e-26 -8.90124e-26 -1.96997e-25 
-3.46818e-24 -1.84008e-24 -4.13933e-24 
-1.46920e-24 -1.85554e-23 -5.49795e-23 
 4.03865e-23  9.34888e-23  8.62824e-24 
-1.39436e-24 -3.41980e-24 -2.07380e-24 
 3.49716e-24  5.15581e-23 -2.03551e-23 
-3.19533e-25  1.68035e-26 -2.51784e-25 
-5.65202e-23 -8.15088e-23 -5.20359e-23 
 6.53617e-24  1.70347e-23  4.70359e-24 
 3.66487e-23  3.81446e-23  2.62102e-23 
 1.76782e-25  1.27807e-26 -1.47191e-26 
 2.89324e-24 -7.18874e-24  1.77045e-24 
-2.26121e-23 -1.40911e-23 -3.56746e-23 
 5.34820e-25 -7.89700e-25 -1.99199e-25 
-3.60851e-23 -9.34573e-23 -1.01090e-23 
 1.46338e-22  1.31181e-22  2.77414e-22 
-3.85871e-23 -4.79057e-23  2.07130e-23 
 5.52992e-24 -4.99681e-24  5.86617e-24 
 2.51198e-25 -8.73013e-26 -2.94535e-26 
 5.30914e-23  1.00191e-23  8.98569e-23 
-1.23041e-22 -6.25399e-23 -7.80228e-23 
 6.27384e-25  2.32588e-25  3.47048e-25 
 5.93516e-24  1.16782e-24 -9.05834e-25 
 2.25200e-24  5.72108e-24  3.42130e-24 
 1.07891e-23  3.40910e-24  7.70301e-24 
-6.17064e-23 -1.51009e-23 -2.88347e-24 
 1.19466e-24  4.71251e-25  5.65846e-25 
 2.38464e-22  1.32121e-22  1.51165e-22 
 7.95126e-24 -9.66283e-23  4.81151e-23 
-4.87598e-23  8.70484e-23 -1.70627e-23 
 2.03985e-22  3.61429e-22  1.83695e-22 
 2.32879e-23 -1.04536e-23  1.18981e-23 
 7.09546e-23  2.24157e-22 -1.23349e-22 
-3.88063e-24  3.81797e-25 -2.31461e-24 
-6.09362e-26  1.16687e-24 -4.02698e-25 
-3.14117e-23 -3.33289e-23 -3.13088e-23 
 5.13868e-24 -7.15636e-23 -2.18604e-23 
 2.32495e-24  5.78322e-25  1.10727e-24 
-6.25837e-23 -3.25910e-22  8.57739e-23 
-3.70966e-24 -9.26741e-25 -2.20479e-24 
-8.43685e-25 -6.04413e-26 -3.28468e-25 
 1.19809e-22 -1.99817e-22  5.65216e-23 
-8.43370e-23 -2.92367e-23 -2.52152e-23 
-1.60967e-22 -1.19662e-22 -3.84995e-22 
 1.08610e-24  1.52614e-25  6.58644e-25 
 2.89069e-25  1.71822e-25  1.91905e-25 
 1.77315e-24  5.39881e-25  1.29329e-24 
 8.10704e-26 -1.68271e-22 -4.15220e-22 
-8.09530e-26 -9.84169e-26 -7.71574e-26 
 1.07005e-22  5.47054e-23  6.58839e-23 
-2.80473e-26 -2.07387e-25 -2.01955e-25 
-4.99398e-23 -2.35801e-23  3.52819e-23 
-4.27840e-23  3.87670e-22 -8.98609e-23 
 3.81080e-23  8.92302e-23  3.65250e-23 
-5.70662e-25  2.19835e-25 -1.13006e-25 
-1.26073e-24 -2.24378e-25 -1.47090e-25 
 1.31807e-24  2.46205e-25  5.74895e-25 
-4.76387e-25 -1.87210e-25 -3.80239e-25 
 3.46726e-25 -5.18568e-26  1.04501e-26 
-2.65009e-25  4.88881e-25  1.18214e-25 
 1.25479e-23  6.30249e-24  3.82470e-24 
-7.78535e-23 -6.02303e-23 -3.77496e-23 
 2.74363e-24 -1.36396e-24  6.24853e-25 
-1.21066e-08  1.99619e-06  1.38941e-06 
-1.52906e-22 -9.35388e-23 -2.64608e-22 
-3.18480e-23 -9.36843e-24 -1.80511e-23 
-1.30054e-24 -2.73968e-25 -9.31147e-26 
 7.83273e-25  1.43791e-25  1.12558e-25 
-4.65798e-25 -2.60582e-25  5.65783e-26 
-1.32155e-06  1.60697e-06  1.79262e-06 
 4.99710e-24  1.14164e-24  9.79068e-25 
-8.18796e-07  2.18103e-06  2.06990e-06 
-7.52745e-07  9.95328e-07  9.48616e-07 
-1.39943e-25  1.76959e-26 -2.04622e-26 
-4.81199e-25 -1.13993e-25 -2.77472e-25 
 2.90958e-24  5.22592e-25  1.37999e-24 
-2.81135e-23 -1.17770e-23 -1.90688e-23 
 1.51659e-24  8.24538e-24 -5.15054e-24 
 5.97087e-23  1.80446e-24  2.46344e-23 
 5.56747e-26 -5.65260e-27  1.65268e-26 
-1.62696e-25  2.95325e-26 -2.56772e-26 
-8.97700e-07  5.65167e-07  1.17452e-06 
 6.11980e-24 -9.02605e-24  2.42816e-24 
-2.37487e-24 -8.55623e-25 -2.57205e-24 
 9.79766e-07  2.25427e-06  1.13098e-06 
 5.35565e-24  1.05394e-24  1.35071e-24 
-1.36568e-24  3.65185e-25 -2.93903e-24 
-3.62530e-07  2.67371e-06  1.96340e-06 
 1.39151e-24  3.48395e-25  1.72491e-24 
-1.58924e-25 -1.93411e-26  5.91831e-25 
-4.26083e-25 -2.58636e-25 -4.43024e-25 
-2.31372e-22 -9.43583e-23 -2.31222e-23 
-1.96343e-06  4.77981e-06  5.08650e-06 
 6.39447e-28  8.45401e-29  5.85652e-28 
-1.21566e-24  8.68133e-25 -2.82060e-25 
 2.11295e-24 -5.74262e-24  1.95652e-24 
 5.06473e-24  2.33664e-24  1.83563e-23 
-3.62912e-25  2.70709e-25 -3.40522e-24 
 3.85365e-25  2.43588e-25 -6.75074e-25 
-2.35924e-26 -1.80916e-25 -1.79836e-24 
 3.54895e-07  3.61065e-06  2.07372e-06 
-2.78043e-06  5.86527e-06  7.47184e-06 
 3.66093e-24  2.22472e-23 -2.53154e-23 
 1.45307e-22  1.84049e-22 -3.25964e-23 
 2.84553e-23 -4.63861e-24  4.85183e-24 
-1.40377e-06  1.04921e-07  1.96370e-06 
-8.80081e-22 -9.37550e-22 -1.36488e-21 
 2.14398e-26 -3.49015e-26 -1.47769e-24 
-1.35148e-06  8.30594e-06  6.48706e-06 
-1.85095e-22  3.35432e-23 -1.30286e-22 
-1.45578e-24 -3.68522e-25 -5.02697e-25 
 1.16759e-22 -1.08567e-22  1.05211e-22 
 1.76557e-07  7.21290e-06  4.46887e-06 
 1.13206e-26  2.85711e-26  2.99909e-26 
-1.83713e-22 -2.07770e-21 -1.79537e-22 
-7.37594e-25  2.13230e-24 -2.75929e-24 
-1.83880e-06  3.70966e-06  6.89874e-06 
-2.82445e-24 -7.56715e-24 -7.22564e-24 
 6.52117e-24  4.82340e-24  2.03190e-23 
-2.89827e-24 -1.83291e-24 -8.77387e-24 
 1.00414e-24 -2.66623e-25  3.19613e-25 
-2.36179e-25 -2.43955e-25 -5.23440e-25 
-4.20481e-08  2.34087e-07  3.81278e-07 
-1.25013e-24 -2.11187e-25 -4.73582e-25 
 1.85448e-06  3.57345e-06  1.74525e-06 
 4.75924e-24  6.77913e-24  1.03895e-23 
 1.99327e-23  7.43083e-24  3.22275e-23 
-5.07762e-06  9.23072e-06  1.36972e-05 
-1.00914e-06  3.10721e-07  1.30134e-06 
 8.36975e-24  1.36064e-24  1.18190e-23 
-4.96449e-27  1.34384e-27 -5.18098e-28 
-2.85064e-24 -6.81291e-25 -8.52223e-24 
-4.55369e-24 -1.51206e-23 -8.42571e-23 
-2.40118e-25  2.00057e-26 -4.13115e-26 
-9.59783e-25 -1.41895e-24 -3.68969e-24 
 2.90291e-25  5.92506e-25  1.63419e-24 
-1.02305e-06  1.41595e-05  9.75976e-06 
 3.85045e-22 -7.51495e-23 -1.95426e-23 
-5.48976e-08  3.54296e-08  1.01251e-07 
 7.91336e-25  5.14268e-25  1.71404e-24 
-4.64953e-06  1.53200e-05  1.55651e-05 
-1.38349e-24 -5.22247e-24 -7.65119e-24 
-5.42572e-25 -1.42670e-25 -2.31483e-25 
-5.95104e-25 -1.17015e-24  1.85313e-25 
-3.71565e-25  1.16940e-23  1.27667e-23 
 9.43862e-25 -2.07371e-24 -1.83106e-24 
 2.13730e-24 -2.17654e-24  2.24846e-23 
-2.36296e-24 -1.54410e-24 -4.98652e-24 
-1.86392e-23  4.11859e-23 -3.72125e-23 
-2.17694e-23  3.53100e-23 -9.83859e-24 
 5.83870e-25 -4.16421e-25  7.53552e-25 
-7.56958e-25 -7.13124e-26 -3.53637e-25 
-3.11507e-22  3.32415e-22 -1.07758e-22 
 1.54008e-06  1.43927e-05  9.67418e-06 
-7.59720e-07  5.47887e-07  3.68087e-06 
 4.75423e-25  2.60672e-25  2.91813e-25 
-3.11992e-07  4.34376e-07  1.59324e-06 
-2.01143e-24 -7.87131e-25 -6.44839e-24 
-3.77808e-06  7.07596e-07  7.75964e-06 
 2.23247e-24 -2.12299e-25  4.14754e-25 
-2.09607e-25 -3.02095e-24 -1.35729e-24 
 3.78292e-25 -2.62211e-24 -4.17793e-24 
-3.47103e-22 -2.59491e-22  1.06200e-21 
-1.91904e-24  5.13705e-25 -5.55878e-24 
-6.94960e-25 -2.14217e-25  2.34226e-25 
 9.40198e-25  1.13382e-24  3.12451e-24 
-7.53493e-06  1.37414e-05  1.97413e-05 
-7.16369e-25 -6.48628e-26 -5.18832e-25 
 3.26501e-26 -6.38171e-27  5.21954e-27 
-2.35001e-06  2.40082e-05  1.74900e-05 
 4.42583e-24 -1.77871e-24  2.41720e-23 
-5.02713e-07  2.35004e-07  7.08035e-07 
-1.38192e-23 -4.33635e-24 -7.49358e-24 
-2.92104e-25  8.38162e-24 -1.97568e-23 
 6.96621e-25 -3.75426e-24  4.31122e-24 
 9.29213e-25  3.93165e-25  1.84592e-24 
-4.32287e-25  2.46841e-24 -7.36748e-25 
 2.70183e-23  2.40030e-23  2.78667e-23 
-7.57572e-06  3.69760e-06  1.79655e-05 
 4.22850e-25  9.61012e-26 -8.66909e-26 
 1.86554e-06  5.45446e-06  2.56381e-06 
 4.60380e-25  3.72069e-25  1.44796e-24 
 2.09278e-25  2.73037e-25  3.04794e-25 
 1.21446e-22 -1.54724e-22  3.21508e-22 
 7.51174e-26 -1.52522e-25  9.06315e-26 
 3.60594e-25 -5.37275e-26  6.66032e-26 
 2.98948e-25  6.98954e-26  4.94826e-25 
-6.58807e-07  2.41991e-07  3.98955e-06 
-2.07719e-25  5.82874e-25 -3.41064e-25 
 9.53615e-25 -4.58648e-24  1.51624e-25 
-1.43909e-23  4.94683e-23 -7.30442e-23 
 3.56426e-06  1.41421e-05  6.24877e-06 
-6.70246e-24 -3.96534e-23  3.28403e-23 
-1.83400e-25 -1.60340e-25  4.25782e-25 
-5.50752e-27 -1.00946e-24 -9.91841e-27 
-2.49667e-07  4.35843e-07  1.80121e-06 
-1.67861e-25 -3.09189e-25 -1.43106e-25 
 1.12831e-25  8.16258e-26  5.49280e-26 
 7.09296e-25  4.35312e-25  2.00722e-24 
-5.93328e-06  3.10868e-05  3.12500e-05 
 1.83398e-25  8.17486e-26  1.38124e-27 
 4.64517e-26  2.24845e-26  2.36178e-26 
 5.05911e-25  1.00566e-25  1.20659e-24 
 1.58392e-24  2.15852e-25 -1.75201e-25 
-1.15823e-25 -5.21664e-25 -2.27728e-25 
-2.17413e-23  5.20262e-22 -1.99737e-23 
 1.56269e-25 -2.18017e-25 -1.37549e-25 
-1.25157e-05  1.40942e-05  3.14810e-05 
-3.62550e-25  1.01751e-24 -1.28301e-24 
 1.43923e-25  3.51589e-26 -3.77757e-26 
 1.51330e-25 -2.52242e-25  5.52430e-25 
 6.95355e-25 -1.27709e-23  7.86247e-24 
 1.08150e-26  1.03844e-25 -4.45183e-25 
-2.62502e-24  1.68279e-24 -7.39176e-24 
 3.35749e-06  2.80590e-05  1.63509e-05 
-9.75012e-24  1.55056e-23 -8.56370e-25 
-2.81870e-07  6.12170e-08  5.08911e-07 
 2.18491e-24 -6.27084e-24  9.63225e-24 
-2.64130e-06 -1.66048e-06  7.97952e-06 
 1.15193e-25  3.25870e-24 -1.72364e-24 
-1.24956e-25 -1.36473e-25 -2.80645e-26 
 1.85868e-23  8.44461e-25 -2.95370e-25 
 1.21206e-25 -8.53715e-25  6.11880e-25 
 5.84461e-26 -7.07791e-27  7.46692e-27 
 1.69553e-25 -1.43688e-25  3.94589e-25 
-1.13099e-06 -1.27387e-06  4.95739e-06 
-2.28192e-25  1.81379e-24 -9.43813e-25 
 5.71556e-23  7.20877e-23  5.30296e-23 
 1.92649e-26 -3.58090e-25  1.07823e-25 
 3.32663e-25 -3.89610e-25  8.56293e-25 
-1.36443e-22  2.23260e-22 -1.14961e-22 
 2.02016e-25  4.51638e-26  4.18725e-25 
-4.10343e-25 -7.57525e-25 -5.00533e-25 
-6.14164e-07 -6.86277e-07  2.75766e-06 
-1.75014e-06 -3.18253e-06  7.01850e-06 
-3.21670e-07  4.08493e-05  2.67126e-05 
-1.93345e-25 -3.57002e-23  2.65885e-23 
-1.95607e-22  5.13024e-23 -3.40669e-23 
 5.34974e-26  3.19907e-25 -6.09042e-26 
 2.75310e-25  1.53600e-25 -1.79175e-26 
 7.94174e-24 -6.06645e-24  5.32904e-24 
 8.57287e-26  4.77118e-26 -9.53671e-26 
 1.60838e-25  7.29903e-25 -7.50431e-26 
 2.95018e-26  1.90555e-25 -9.00185e-26 
 1.33032e-24  4.31952e-23 -3.50078e-23 
-1.48067e-24 -5.43950e-24  4.53426e-24 
 5.22813e-23 -1.17616e-22  1.98396e-22 
 3.34439e-26  2.92159e-24 -2.49790e-24 
 1.68176e-25  9.35334e-25 -1.55201e-25 
 6.11055e-26 -2.67430e-26  2.47311e-25 
 3.57850e-24 -5.09993e-24  9.23679e-24 
-4.39256e-25 -7.25366e-25 -1.01364e-24 
 1.01358e-25  2.31148e-25  1.14360e-25 
-4.33457e-25  7.60491e-27 -1.00632e-25 
 3.02998e-06  7.52448e-06  4.44388e-06 
-3.04916e-07 -4.25289e-07  2.03174e-06 
 1.21435e-26 -2.55750e-27  1.52244e-27 
 1.28962e-25 -2.32309e-24  2.21736e-24 
 2.53231e-25  2.23915e-25 -3.48230e-25 
 1.71461e-25  8.06145e-24 -5.93370e-24 
 4.66104e-26 -3.55802e-25  4.01773e-25 
-2.02205e-05  2.52418e-05  5.27500e-05 
-1.36093e-24 -1.86978e-23  9.20143e-24 