<?xml version="1.0" encoding="utf-8"?>
<VTKFile byte_order="LittleEndian" type="UnstructuredGrid" version="0.1">
   <UnstructuredGrid>
      <Piece NumberOfCells="20764" NumberOfPoints="10591">
         <Points>
            <DataArray Name="Points" NumberOfComponents="3" format="ascii" type="Float32">
0.0000 0.0000 0.0000
0.0000 0.0345 0.0000
0.0000 0.0690 0.0000
0.0000 0.1034 0.0000
0.0000 0.1379 0.0000
0.0000 0.1724 0.0000
0.0000 0.2069 0.0000
0.0000 0.2414 0.0000
0.0000 0.2759 0.0000
0.0000 0.3103 0.0000
0.0000 0.3448 0.0000
0.0000 0.3793 0.0000
0.0000 0.4138 0.0000
0.0000 0.4483 0.0000
0.0000 0.4828 0.0000
0.0000 0.5172 0.0000
0.0000 0.5517 0.0000
0.0000 0.5862 0.0000
0.0000 0.6207 0.0000
0.0000 0.6552 0.0000
0.0000 0.6897 0.0000
0.0000 0.7241 0.0000
0.0000 0.7586 0.0000
0.0000 0.7931 0.0000
0.0000 0.8276 0.0000
0.0000 0.8621 0.0000
0.0000 0.8966 0.0000
0.0000 0.9310 0.0000
0.0000 0.9655 0.0000
0.0000 1.0000 0.0000
0.0335 0.0000 0.0000
0.0335 0.0345 0.0000
0.0335 0.0690 0.0000
0.0335 0.1034 0.0000
0.0335 0.1379 0.0000
0.0335 0.1724 0.0000
0.0335 0.2069 0.0000
0.0335 0.2414 0.0000
0.0335 0.2759 0.0000
0.0335 0.3103 0.0000
0.0335 0.3448 0.0000
0.0335 0.3793 0.0000
0.0335 0.4138 0.0000
0.0335 0.4483 0.0000
0.0335 0.4828 0.0000
0.0335 0.5172 0.0000
0.0335 0.5517 0.0000
0.0335 0.5862 0.0000
0.0335 0.6207 0.0000
0.0335 0.6552 0.0000
0.0335 0.6897 0.0000
0.0335 0.7241 0.0000
0.0335 0.7586 0.0000
0.0335 0.7931 0.0000
0.0335 0.8276 0.0000
0.0335 0.8621 0.0000
0.0335 0.8966 0.0000
0.0335 0.9310 0.0000
0.0335 0.9655 0.0000
0.0335 1.0000 0.0000
0.0670 0.0000 0.0000
0.0670 0.0345 0.0000
0.0670 0.0690 0.0000
0.0670 0.1034 0.0000
0.0670 0.1379 0.0000
0.0670 0.1724 0.0000
0.0670 0.2069 0.0000
0.0670 0.2414 0.0000
0.0670 0.2759 0.0000
0.0670 0.3103 0.0000
0.0670 0.3448 0.0000
0.0670 0.3793 0.0000
0.0670 0.4138 0.0000
0.0670 0.4483 0.0000
0.0670 0.4828 0.0000
0.0670 0.5172 0.0000
0.0670 0.5517 0.0000
0.0670 0.5862 0.0000
0.0670 0.6207 0.0000
0.0670 0.6552 0.0000
0.0670 0.6897 0.0000
0.0670 0.7241 0.0000
0.0670 0.7586 0.0000
0.0670 0.7931 0.0000
0.0670 0.8276 0.0000
0.0670 0.8621 0.0000
0.0670 0.8966 0.0000
0.0670 0.9310 0.0000
0.0670 0.9655 0.0000
0.0670 1.0000 0.0000
0.1006 0.0000 0.0000
0.1006 0.0345 0.0000
0.1006 0.0690 0.0000
0.1006 0.1034 0.0000
0.1006 0.1379 0.0000
0.1006 0.1724 0.0000
0.1006 0.2069 0.0000
0.1006 0.2414 0.0000
0.1006 0.2759 0.0000
0.1006 0.3103 0.0000
0.1006 0.3448 0.0000
0.1006 0.3793 0.0000
0.1006 0.4138 0.0000
0.1006 0.4483 0.0000
0.1006 0.4828 0.0000
0.1006 0.5172 0.0000
0.1006 0.5517 0.0000
0.1006 0.5862 0.0000
0.1006 0.6207 0.0000
0.1006 0.6552 0.0000
0.1006 0.6897 0.0000
0.1006 0.7241 0.0000
0.1006 0.7586 0.0000
0.1006 0.7931 0.0000
0.1006 0.8276 0.0000
0.1006 0.8621 0.0000
0.1006 0.8966 0.0000
0.1006 0.9310 0.0000
0.1006 0.9655 0.0000
0.1006 1.0000 0.0000
0.1341 0.0000 0.0000
0.1341 0.0345 0.0000
0.1341 0.0690 0.0000
0.1341 0.1034 0.0000
0.1341 0.1379 0.0000
0.1341 0.1724 0.0000
0.1341 0.2069 0.0000
0.1341 0.2414 0.0000
0.1341 0.2759 0.0000
0.1341 0.3103 0.0000
0.1341 0.3448 0.0000
0.1341 0.3793 0.0000
0.1341 0.4138 0.0000
0.1341 0.4483 0.0000
0.1341 0.4828 0.0000
0.1341 0.5172 0.0000
0.1341 0.5517 0.0000
0.1341 0.5862 0.0000
0.1341 0.6207 0.0000
0.1341 0.6552 0.0000
0.1341 0.6897 0.0000
0.1341 0.7241 0.0000
0.1341 0.7586 0.0000
0.1341 0.7931 0.0000
0.1341 0.8276 0.0000
0.1341 0.8621 0.0000
0.1341 0.8966 0.0000
0.1341 0.9310 0.0000
0.1341 0.9655 0.0000
0.1341 1.0000 0.0000
0.1676 0.0000 0.0000
0.1676 0.0345 0.0000
0.1676 0.0690 0.0000
0.1676 0.1034 0.0000
0.1676 0.1379 0.0000
0.1676 0.1724 0.0000
0.1676 0.2069 0.0000
0.1676 0.2414 0.0000
0.1676 0.2759 0.0000
0.1676 0.3103 0.0000
0.1676 0.3448 0.0000
0.1676 0.3793 0.0000
0.1676 0.4138 0.0000
0.1676 0.4483 0.0000
0.1676 0.4828 0.0000
0.1676 0.5172 0.0000
0.1676 0.5517 0.0000
0.1676 0.5862 0.0000
0.1676 0.6207 0.0000
0.1676 0.6552 0.0000
0.1676 0.6897 0.0000
0.1676 0.7241 0.0000
0.1676 0.7586 0.0000
0.1676 0.7931 0.0000
0.1676 0.8276 0.0000
0.1676 0.8621 0.0000
0.1676 0.8966 0.0000
0.1676 0.9310 0.0000
0.1676 0.9655 0.0000
0.1676 1.0000 0.0000
0.2011 0.0000 0.0000
0.2011 0.0345 0.0000
0.2011 0.0690 0.0000
0.2011 0.1034 0.0000
0.2011 0.1379 0.0000
0.2011 0.1724 0.0000
0.2011 0.2069 0.0000
0.2011 0.2414 0.0000
0.2011 0.2759 0.0000
0.2011 0.3103 0.0000
0.2011 0.3448 0.0000
0.2011 0.3793 0.0000
0.2011 0.4138 0.0000
0.2011 0.4483 0.0000
0.2011 0.4828 0.0000
0.2011 0.5172 0.0000
0.2011 0.5517 0.0000
0.2011 0.5862 0.0000
0.2011 0.6207 0.0000
0.2011 0.6552 0.0000
0.2011 0.6897 0.0000
0.2011 0.7241 0.0000
0.2011 0.7586 0.0000
0.2011 0.7931 0.0000
0.2011 0.8276 0.0000
0.2011 0.8621 0.0000
0.2011 0.8966 0.0000
0.2011 0.9310 0.0000
0.2011 0.9655 0.0000
0.2011 1.0000 0.0000
0.2346 0.0000 0.0000
0.2346 0.0345 0.0000
0.2346 0.0690 0.0000
0.2346 0.1034 0.0000
0.2346 0.1379 0.0000
0.2346 0.1724 0.0000
0.2346 0.2069 0.0000
0.2346 0.2414 0.0000
0.2346 0.2759 0.0000
0.2346 0.3103 0.0000
0.2346 0.3448 0.0000
0.2346 0.3793 0.0000
0.2346 0.4138 0.0000
0.2346 0.4483 0.0000
0.2346 0.4828 0.0000
0.2346 0.5172 0.0000
0.2346 0.5517 0.0000
0.2346 0.5862 0.0000
0.2346 0.6207 0.0000
0.2346 0.6552 0.0000
0.2346 0.6897 0.0000
0.2346 0.7241 0.0000
0.2346 0.7586 0.0000
0.2346 0.7931 0.0000
0.2346 0.8276 0.0000
0.2346 0.8621 0.0000
0.2346 0.8966 0.0000
0.2346 0.9310 0.0000
0.2346 0.9655 0.0000
0.2346 1.0000 0.0000
0.2682 0.0000 0.0000
0.2682 0.0345 0.0000
0.2682 0.0690 0.0000
0.2682 0.1034 0.0000
0.2682 0.1379 0.0000
0.2682 0.1724 0.0000
0.2682 0.2069 0.0000
0.2682 0.2414 0.0000
0.2682 0.2759 0.0000
0.2682 0.3103 0.0000
0.2682 0.3448 0.0000
0.2682 0.3793 0.0000
0.2682 0.4138 0.0000
0.2682 0.4483 0.0000
0.2682 0.4828 0.0000
0.2682 0.5172 0.0000
0.2682 0.5517 0.0000
0.2682 0.5862 0.0000
0.2682 0.6207 0.0000
0.2682 0.6552 0.0000
0.2682 0.6897 0.0000
0.2682 0.7241 0.0000
0.2682 0.7586 0.0000
0.2682 0.7931 0.0000
0.2682 0.8276 0.0000
0.2682 0.8621 0.0000
0.2682 0.8966 0.0000
0.2682 0.9310 0.0000
0.2682 0.9655 0.0000
0.2682 1.0000 0.0000
0.3017 0.0000 0.0000
0.3017 0.0345 0.0000
0.3017 0.0690 0.0000
0.3017 0.1034 0.0000
0.3017 0.1379 0.0000
0.3017 0.1724 0.0000
0.3017 0.2069 0.0000
0.3017 0.2414 0.0000
0.3017 0.2759 0.0000
0.3017 0.3103 0.0000
0.3017 0.3448 0.0000
0.3017 0.3793 0.0000
0.3017 0.4138 0.0000
0.3017 0.4483 0.0000
0.3017 0.4828 0.0000
0.3017 0.5172 0.0000
0.3017 0.5517 0.0000
0.3017 0.5862 0.0000
0.3017 0.6207 0.0000
0.3017 0.6552 0.0000
0.3017 0.6897 0.0000
0.3017 0.7241 0.0000
0.3017 0.7586 0.0000
0.3017 0.7931 0.0000
0.3017 0.8276 0.0000
0.3017 0.8621 0.0000
0.3017 0.8966 0.0000
0.3017 0.9310 0.0000
0.3017 0.9655 0.0000
0.3017 1.0000 0.0000
0.3352 0.0000 0.0000
0.3352 0.0345 0.0000
0.3352 0.0690 0.0000
0.3352 0.1034 0.0000
0.3352 0.1379 0.0000
0.3352 0.1724 0.0000
0.3352 0.2069 0.0000
0.3352 0.2414 0.0000
0.3352 0.2759 0.0000
0.3352 0.3103 0.0000
0.3352 0.3448 0.0000
0.3352 0.3793 0.0000
0.3352 0.4138 0.0000
0.3352 0.4483 0.0000
0.3352 0.4828 0.0000
0.3352 0.5172 0.0000
0.3352 0.5517 0.0000
0.3352 0.5862 0.0000
0.3352 0.6207 0.0000
0.3352 0.6552 0.0000
0.3352 0.6897 0.0000
0.3352 0.7241 0.0000
0.3352 0.7586 0.0000
0.3352 0.7931 0.0000
0.3352 0.8276 0.0000
0.3352 0.8621 0.0000
0.3352 0.8966 0.0000
0.3352 0.9310 0.0000
0.3352 0.9655 0.0000
0.3352 1.0000 0.0000
0.3687 0.0000 0.0000
0.3687 0.0345 0.0000
0.3687 0.0690 0.0000
0.3687 0.1034 0.0000
0.3687 0.1379 0.0000
0.3687 0.1724 0.0000
0.3687 0.2069 0.0000
0.3687 0.2414 0.0000
0.3687 0.2759 0.0000
0.3687 0.3103 0.0000
0.3687 0.3448 0.0000
0.3687 0.3793 0.0000
0.3687 0.4138 0.0000
0.3687 0.4483 0.0000
0.3687 0.4828 0.0000
0.3687 0.5172 0.0000
0.3687 0.5517 0.0000
0.3687 0.5862 0.0000
0.3687 0.6207 0.0000
0.3687 0.6552 0.0000
0.3687 0.6897 0.0000
0.3687 0.7241 0.0000
0.3687 0.7586 0.0000
0.3687 0.7931 0.0000
0.3687 0.8276 0.0000
0.3687 0.8621 0.0000
0.3687 0.8966 0.0000
0.3687 0.9310 0.0000
0.3687 0.9655 0.0000
0.3687 1.0000 0.0000
0.4022 0.0000 0.0000
0.4022 0.0345 0.0000
0.4022 0.0690 0.0000
0.4022 0.1034 0.0000
0.4022 0.1379 0.0000
0.4022 0.1724 0.0000
0.4022 0.2069 0.0000
0.4022 0.2414 0.0000
0.4022 0.2759 0.0000
0.4022 0.3103 0.0000
0.4022 0.3448 0.0000
0.4022 0.3793 0.0000
0.4022 0.4138 0.0000
0.4022 0.4483 0.0000
0.4022 0.4828 0.0000
0.4022 0.5172 0.0000
0.4022 0.5517 0.0000
0.4022 0.5862 0.0000
0.4022 0.6207 0.0000
0.4022 0.6552 0.0000
0.4022 0.6897 0.0000
0.4022 0.7241 0.0000
0.4022 0.7586 0.0000
0.4022 0.7931 0.0000
0.4022 0.8276 0.0000
0.4022 0.8621 0.0000
0.4022 0.8966 0.0000
0.4022 0.9310 0.0000
0.4022 0.9655 0.0000
0.4022 1.0000 0.0000
0.4358 0.0000 0.0000
0.4358 0.0345 0.0000
0.4358 0.0690 0.0000
0.4358 0.1034 0.0000
0.4358 0.1379 0.0000
0.4358 0.1724 0.0000
0.4358 0.2069 0.0000
0.4358 0.2414 0.0000
0.4358 0.2759 0.0000
0.4358 0.3103 0.0000
0.4358 0.3448 0.0000
0.4358 0.3793 0.0000
0.4358 0.4138 0.0000
0.4358 0.4483 0.0000
0.4358 0.4828 0.0000
0.4358 0.5172 0.0000
0.4358 0.5517 0.0000
0.4358 0.5862 0.0000
0.4358 0.6207 0.0000
0.4358 0.6552 0.0000
0.4358 0.6897 0.0000
0.4358 0.7241 0.0000
0.4358 0.7586 0.0000
0.4358 0.7931 0.0000
0.4358 0.8276 0.0000
0.4358 0.8621 0.0000
0.4358 0.8966 0.0000
0.4358 0.9310 0.0000
0.4358 0.9655 0.0000
0.4358 1.0000 0.0000
0.4693 0.0000 0.0000
0.4693 0.0345 0.0000
0.4693 0.0690 0.0000
0.4693 0.1034 0.0000
0.4693 0.1379 0.0000
0.4693 0.1724 0.0000
0.4693 0.2069 0.0000
0.4693 0.2414 0.0000
0.4693 0.2759 0.0000
0.4693 0.3103 0.0000
0.4693 0.3448 0.0000
0.4693 0.3793 0.0000
0.4693 0.4138 0.0000
0.4693 0.4483 0.0000
0.4693 0.4828 0.0000
0.4693 0.5172 0.0000
0.4693 0.5517 0.0000
0.4693 0.5862 0.0000
0.4693 0.6207 0.0000
0.4693 0.6552 0.0000
0.4693 0.6897 0.0000
0.4693 0.7241 0.0000
0.4693 0.7586 0.0000
0.4693 0.7931 0.0000
0.4693 0.8276 0.0000
0.4693 0.8621 0.0000
0.4693 0.8966 0.0000
0.4693 0.9310 0.0000
0.4693 0.9655 0.0000
0.4693 1.0000 0.0000
0.5028 0.0000 0.0000
0.5028 0.0345 0.0000
0.5028 0.0690 0.0000
0.5028 0.1034 0.0000
0.5028 0.1379 0.0000
0.5028 0.1724 0.0000
0.5028 0.2069 0.0000
0.5028 0.2414 0.0000
0.5028 0.2759 0.0000
0.5028 0.3103 0.0000
0.5028 0.3448 0.0000
[...]
         <PointData>
            <DataArray Name="fValues" NumberOfComponents="1" format="ascii" type="Float64">
-1.30694e-01 
-1.63176e-01 
-2.29886e-01 
-2.87959e-01 
-3.18799e-01 
-3.20457e-01 
-2.99789e-01 
-2.66068e-01 
-2.27280e-01 
-1.88842e-01 
-1.53748e-01 
-1.23251e-01 
-9.75527e-02 
-7.63119e-02 
-5.89675e-02 
-4.49165e-02 
-3.35994e-02 
-2.45347e-02 
-1.73237e-02 
-1.16433e-02 
-7.23283e-03 
-3.87984e-03 
-1.40627e-03 
 3.43730e-04 
 1.51334e-03 
 2.23853e-03 
 2.64784e-03 
 2.85494e-03 
 2.94617e-03 
 2.97141e-03 
-1.53515e-01 
-1.71758e-01 
-2.02992e-01 
-2.28462e-01 
-2.42082e-01 
-2.41265e-01 
-2.27586e-01 
-2.05107e-01 
-1.78287e-01 
-1.50708e-01 
-1.24686e-01 
-1.01424e-01 
-8.13443e-02 
-6.44054e-02 
-5.03312e-02 
-3.87582e-02 
-2.93153e-02 
-2.16636e-02 
-1.55101e-02 
-1.06091e-02 
-6.75635e-03 
-3.78138e-03 
-1.53865e-03 
 9.98782e-05 
 1.25013e-03 
 2.01832e-03 
 2.49972e-03 
 2.77536e-03 
 2.90976e-03 
 2.94888e-03 
-1.86807e-01 
-1.88032e-01 
-1.77252e-01 
-1.60293e-01 
-1.46484e-01 
-1.36819e-01 
-1.28151e-01 
-1.18134e-01 
-1.06280e-01 
-9.32439e-02 
-7.99818e-02 
-6.72951e-02 
-5.56913e-02 
-4.54108e-02 
-3.65058e-02 
-2.89158e-02 
-2.25239e-02 
-1.71925e-02 
-1.27834e-02 
-9.16780e-03 
-6.22958e-03 
-3.86558e-03 
-1.98459e-03 
-5.06580e-04 
 6.36903e-04 
 1.50126e-03 
 2.12791e-03 
 2.54755e-03 
 2.78788e-03 
 2.86912e-03 
-2.44903e-01 
-2.27451e-01 
-1.79093e-01 
-1.28616e-01 
-9.19815e-02 
-7.18081e-02 
-6.24528e-02 
-5.77853e-02 
-5.41352e-02 
-5.00397e-02 
-4.52633e-02 
-4.00540e-02 
-3.47518e-02 
-2.96346e-02 
-2.48819e-02 
-2.05868e-02 
-1.67801e-02 
-1.34525e-02 
-1.05719e-02 
-8.09388e-03 
-5.96984e-03 
-4.15113e-03 
-2.59301e-03 
-1.25821e-03 
-1.20636e-04 
 8.31858e-04 
 1.59857e-03 
 2.17323e-03 
 2.54952e-03 
 2.69435e-03 
-3.79448e-01 
-3.35875e-01 
-2.35777e-01 
-1.45036e-01 
-8.44322e-02 
-5.16535e-02 
-3.66068e-02 
-3.05120e-02 
-2.80514e-02 
-2.66142e-02 
-2.51547e-02 
-2.33891e-02 
-2.13452e-02 
-1.91436e-02 
-1.69058e-02 
-1.47237e-02 
-1.26553e-02 
-1.07302e-02 
-8.95677e-03 
-7.32927e-03 
-5.83370e-03 
-4.45293e-03 
-3.17158e-03 
-1.98088e-03 
-8.82852e-04 
 1.07712e-04 
 9.65870e-04 
 1.66268e-03 
 2.16044e-03 
 2.36451e-03 
-6.81106e-01 
-5.88220e-01 
-3.90880e-01 
-2.29355e-01 
-1.30178e-01 
-7.61021e-02 
-4.78711e-02 
-3.32571e-02 
-2.55527e-02 
-2.12501e-02 
-1.85749e-02 
-1.66587e-02 
-1.50937e-02 
-1.36986e-02 
-1.23982e-02 
-1.11635e-02 
-9.98315e-03 
-8.84979e-03 
-7.75544e-03 
-6.69016e-03 
-5.64305e-03 
-4.60458e-03 
-3.56982e-03 
-2.54208e-03 
-1.53583e-03 
-5.77550e-04 
 2.96498e-04 
 1.04166e-03 
 1.59158e-03 
 1.81449e-03 
-1.36490e+00 
-1.15125e+00 
-7.22352e-01 
-4.12866e-01 
-2.39821e-01 
-1.45728e-01 
-9.25413e-02 
-6.12927e-02 
-4.23444e-02 
-3.05534e-02 
-2.30371e-02 
-1.81212e-02 
-1.48093e-02 
-1.24981e-02 
-1.08165e-02 
-9.53257e-03 
-8.49761e-03 
-7.61359e-03 
-6.81336e-03 
-6.04941e-03 
-5.28790e-03 
-4.50624e-03 
-3.69296e-03 
-2.84880e-03 
-1.98796e-03 
-1.13844e-03 
-3.41954e-04 
 3.42564e-04 
 8.27004e-04 
 9.97212e-04 
-3.01825e+00 
-2.42931e+00 
-1.33617e+00 
-7.18208e-01 
-4.15672e-01 
-2.55487e-01 
-1.63945e-01 
-1.08407e-01 
-7.33567e-02 
-5.06733e-02 
-3.57547e-02 
-2.58333e-02 
-1.91786e-02 
-1.46799e-02 
-1.16115e-02 
-9.49191e-03 
-7.99727e-03 
-6.90661e-03 
-6.06681e-03 
-5.37049e-03 
-4.74238e-03 
-4.13140e-03 
-3.50655e-03 
-2.85526e-03 
-2.18319e-03 
-1.51490e-03 
-8.96565e-04 
-4.01580e-04 
-1.27501e-04 
-9.83103e-05 
-7.97023e+00 
-4.77602e+00 
-2.12247e+00 
-1.09595e+00 
-6.27273e-01 
-3.86586e-01 
-2.49715e-01 
-1.66168e-01 
-1.12732e-01 
-7.75325e-02 
-5.39169e-02 
-3.78940e-02 
-2.69515e-02 
-1.94541e-02 
-1.43121e-02 
-1.07864e-02 
-8.36823e-03 
-6.70269e-03 
-5.53938e-03 
-4.69998e-03 
-4.05744e-03 
-3.52284e-03 
-3.03758e-03 
-2.56940e-03 
-2.11122e-03 
-1.68287e-03 
-1.33594e-03 
-1.15764e-03 
-1.23916e-03 
-1.43908e-03 
-8.43247e+00 
-5.20729e+00 
-2.56797e+00 
-1.37632e+00 
-8.08887e-01 
-5.07713e-01 
-3.33030e-01 
-2.24652e-01 
-1.54240e-01 
-1.07072e-01 
-7.48414e-02 
-5.25400e-02 
-3.69964e-02 
-2.61278e-02 
-1.85295e-02 
-1.32342e-02 
-9.56503e-03 
-7.04157e-03 
-5.31883e-03 
-4.14694e-03 
-3.34453e-03 
-2.78150e-03 
-2.36837e-03 
-2.05065e-03 
-1.80744e-03 
-1.65428e-03 
-1.64922e-03 
-1.89113e-03 
-2.44853e-03 
-2.95017e-03 
-4.39255e+00 
-3.65024e+00 
-2.37882e+00 
-1.43901e+00 
-9.02826e-01 
-5.90246e-01 
-3.98325e-01 
-2.74775e-01 
-1.92261e-01 
-1.35678e-01 
-9.61604e-02 
-6.82227e-02 
-4.83246e-02 
-3.41030e-02 
-2.39390e-02 
-1.67002e-02 
-1.15805e-02 
-7.99818e-03 
-5.52816e-03 
-3.85719e-03 
-2.75386e-03 
-2.04883e-03 
-1.62253e-03 
-1.39879e-03 
-1.34368e-03 
-1.46951e-03 
-1.84112e-03 
-2.56565e-03 
-3.67517e-03 
-4.52455e-03 
-2.60107e+00 
-2.39279e+00 
-1.86400e+00 
-1.31366e+00 
-9.00374e-01 
-6.22761e-01 
-4.37102e-01 
-3.10687e-01 
-2.22809e-01 
-1.60623e-01 
-1.16007e-01 
-8.36795e-02 
-6.01077e-02 
-4.28674e-02 
-3.02589e-02 
-2.10686e-02 
-1.44157e-02 
-9.65234e-03 
-6.29640e-03 
-3.98621e-03 
-2.44989e-03 
-1.48497e-03 
-9.45761e-04 
-7.37114e-04 
-8.14036e-04 
-1.18670e-03 
-1.92618e-03 
-3.14418e-03 
-4.82703e-03 
-6.03745e-03 
-1.72624e+00 
-1.65518e+00 
-1.41954e+00 
-1.11364e+00 
-8.32746e-01 
-6.12289e-01 
-4.49404e-01 
-3.30701e-01 
-2.44025e-01 
-1.80306e-01 
-1.33125e-01 
-9.79776e-02 
-7.16882e-02 
-5.19876e-02 
-3.72336e-02 
-2.62213e-02 
-1.80556e-02 
-1.20633e-02 
-7.73316e-03 
-4.67432e-03 
-2.58762e-03 
-1.24649e-03 
-4.85342e-04 
-1.94264e-04 
-3.19794e-04 
-8.70964e-04 
-1.92403e-03 
-3.59189e-03 
-5.81160e-03 
-7.36249e-03 
-1.24801e+00 
-1.21727e+00 
-1.09999e+00 
-9.24355e-01 
-7.39138e-01 
-5.74798e-01 
-4.41093e-01 
-3.36520e-01 
-2.55975e-01 
-1.94218e-01 
-1.46869e-01 
-1.10518e-01 
-8.25790e-02 
-6.11041e-02 
-4.46243e-02 
-3.20250e-02 
-2.24535e-02 
-1.52522e-02 
-9.90979e-03 
-6.02721e-03 
-3.29301e-03 
-1.46733e-03 
-3.72252e-04 
 1.11760e-04 
 4.35852e-05 
-5.85648e-04 
-1.85623e-03 
-3.87994e-03 
-6.54686e-03 
-8.38668e-03 
-9.58182e-01 
-9.41500e-01 
-8.75468e-01 
-7.68632e-01 
-6.45202e-01 
-5.25365e-01 
-4.19778e-01 
-3.31596e-01 
-2.59996e-01 
-2.02677e-01 
-1.57107e-01 
-1.21000e-01 
-9.24519e-02 
-6.99272e-02 
-5.22069e-02 
-3.83274e-02 
-2.75252e-02 
-1.91938e-02 
-1.28491e-02 
-8.10397e-03 
-4.65003e-03 
-2.24544e-03 
-7.08195e-04 
 8.52197e-05 
 1.95742e-04 
-3.86480e-04 
-1.74495e-03 
-3.98930e-03 
-6.97050e-03 
-9.02274e-03 
-7.67159e-01 
-7.56197e-01 
-7.14668e-01 
-6.45532e-01 
-5.61138e-01 
-4.73830e-01 
-3.91958e-01 
-3.19623e-01 
-2.57959e-01 
-2.06490e-01 
-1.64064e-01 
-1.29359e-01 
-1.01117e-01 
-7.82346e-02 
-5.97754e-02 
-4.49617e-02 
-3.31519e-02 
-2.38174e-02 
-1.65236e-02 
-1.09132e-02 
-6.69499e-03 
-3.63611e-03 
-1.55864e-03 
-3.40906e-04 
 7.65251e-05 
-3.18627e-04 
-1.61284e-03 
-3.91411e-03 
-7.04654e-03 
-9.21747e-03 
-6.32670e-01 
-6.24448e-01 
-5.95901e-01 
-5.48631e-01 
-4.89239e-01 
-4.25099e-01 
-3.62035e-01 
-3.03666e-01 
-2.51718e-01 
-2.06642e-01 
-1.68169e-01 
-1.35693e-01 
-1.08497e-01 
-8.58675e-02 
-6.71477e-02 
-5.17565e-02 
-3.91898e-02 
-2.90145e-02 
-2.08610e-02 
-1.44161e-02 
-9.41779e-03 
-5.65166e-03 
-2.95160e-03 
-1.20337e-03 
-3.52746e-04 
-4.16252e-04 
-1.48383e-03 
-3.66381e-03 
-6.76883e-03 
-8.95600e-03 
-5.33015e-01 
-5.26346e-01 
-5.05393e-01 
-4.71600e-01 
-4.28697e-01 
-3.81065e-01 
-3.32544e-01 
-2.85905e-01 
-2.42818e-01 
-2.04087e-01 
-1.69926e-01 
-1.40202e-01 
-1.14598e-01 
-9.27246e-02 
-7.41720e-02 
-5.85466e-02 
-4.54831e-02 
-3.46509e-02 
-2.57549e-02 
-1.85355e-02 
-1.27686e-02 
-8.26635e-03 
-4.88104e-03 
-2.51106e-03 
-1.11102e-03 
-7.03876e-04 
-1.38427e-03 
-3.26410e-03 
-6.16161e-03 
-8.26192e-03 
-4.56158e-01 
-4.50520e-01 
-4.34428e-01 
-4.09447e-01 
-3.77805e-01 
-3.42093e-01 
-3.04750e-01 
-2.67733e-01 
-2.32417e-01 
-1.99641e-01 
-1.69832e-01 
-1.43127e-01 
-1.19485e-01 
-9.87548e-02 
-8.07309e-02 
-6.51834e-02 
-5.18766e-02 
-4.05807e-02 
-3.10778e-02 
-2.31669e-02 
-1.66676e-02 
-1.14245e-02 
-7.31348e-03 
-4.25007e-03 
-2.20124e-03 
-1.19879e-03 
-1.34400e-03 
-2.75640e-03 
-5.27732e-03 
-7.19417e-03 
-3.94957e-01 
-3.90097e-01 
-3.77373e-01 
-3.58478e-01 
-3.34809e-01 
-3.07874e-01 
-2.79159e-01 
-2.49966e-01 
-2.21319e-01 
-1.93948e-01 
-1.68326e-01 
-1.44723e-01 
-1.23258e-01 
-1.03948e-01 
-8.67417e-02 
-7.15423e-02 
-5.82271e-02 
-4.66587e-02 
-3.66939e-02 
-2.81911e-02 
-2.10164e-02 
-1.50502e-02 
-1.01960e-02 
-6.39014e-03 
-3.61500e-03 
-1.91384e-03 
-1.39699e-03 
-2.19625e-03 
-4.19256e-03 
-5.84149e-03 
-3.44928e-01 
-3.40712e-01 
-3.30488e-01 
-3.16008e-01 
-2.98184e-01 
-2.77855e-01 
-2.55870e-01 
-2.33035e-01 
-2.10052e-01 
-1.87490e-01 
-1.65778e-01 
-1.45226e-01 
-1.26035e-01 
-1.08327e-01 
-9.21554e-02 
-7.75271e-02 
-6.44113e-02 
-5.27509e-02 
-4.24707e-02 
-3.34858e-02 
-2.57087e-02 
-1.90573e-02 
-1.34649e-02 
-8.89132e-03 
-5.33730e-03 
-2.86003e-03 
-1.58158e-03 
-1.65075e-03 
-3.00266e-03 
-4.31534e-03 
-3.03127e-01 
-2.99477e-01 
-2.91216e-01 
-2.80085e-01 
-2.66690e-01 
-2.51448e-01 
-2.34782e-01 
-2.17137e-01 
-1.98947e-01 
-1.80613e-01 
-1.62484e-01 
-1.44850e-01 
-1.27943e-01 
-1.11936e-01 
-9.69519e-02 
-8.30702e-02 
-7.03306e-02 
-5.87417e-02 
-4.82875e-02 
-3.89346e-02 
-3.06395e-02 
-2.33575e-02 
-1.70526e-02 
-1.17100e-02 
-7.35086e-03 
-4.04870e-03 
-1.94012e-03 
-1.19540e-03 
-1.81574e-03 
-2.74230e-03 
-2.67545e-01 
-2.64414e-01 
-2.57769e-01 
-2.49277e-01 
-2.39341e-01 
-2.28105e-01 
-2.15706e-01 
-2.02329e-01 
-1.88198e-01 
-1.73562e-01 
-1.58675e-01 
-1.43781e-01 
-1.29103e-01 
-1.14834e-01 
-1.01136e-01 
-8.81310e-02 
-7.59119e-02 
-6.45377e-02 
-5.40413e-02 
-4.44339e-02 
-3.57125e-02 
-2.78678e-02 
-2.08945e-02 
-1.48040e-02 
-9.63946e-03 
-5.49298e-03 
-2.51818e-03 
-9.10785e-04 
-7.46732e-04 
-1.25663e-03 
-2.36774e-01 
-2.34129e-01 
-2.28863e-01 
-2.22525e-01 
-2.15367e-01 
-2.07353e-01 
-1.98429e-01 
-1.88595e-01 
-1.77914e-01 
-1.66505e-01 
-1.54529e-01 
-1.42173e-01 
-1.29631e-01 
-1.17092e-01 
-1.04729e-01 
-9.26928e-02 
-8.11071e-02 
-7.00690e-02 
-5.96493e-02 
-4.98971e-02 
-4.08444e-02 
-3.25149e-02 
-2.49328e-02 
-1.81358e-02 
-1.21904e-02 
-7.20858e-03 
-3.36345e-03 
-8.79240e-04 
 8.80639e-05 
 6.38084e-06 
-2.09802e-01 
-2.07619e-01 
-2.03565e-01 
-1.99034e-01 
-1.94163e-01 
-1.88794e-01 
-1.82743e-01 
-1.75879e-01 
-1.68144e-01 
-1.59552e-01 
-1.50181e-01 
-1.40157e-01 
-1.29634e-01 
-1.18781e-01 
-1.07769e-01 
-9.67578e-02 
-8.58903e-02 
-7.52880e-02 
-6.50503e-02 
-5.52560e-02 
-4.59677e-02 
-3.72381e-02 
-2.91195e-02 
-2.16754e-02 
-1.49957e-02 
-9.21396e-03 
-4.52439e-03 
-1.18191e-03 
 5.75643e-04 
 9.16034e-04 
-1.85890e-01 
-1.84148e-01 
-1.81182e-01 
-1.78205e-01 
-1.75258e-01 
-1.72099e-01 
-1.68457e-01 
-1.64108e-01 
-1.58904e-01 
-1.52777e-01 
-1.45733e-01 
-1.37838e-01 
-1.29204e-01 
-1.19972e-01 
-1.10300e-01 
-1.00344e-01 
-9.02542e-02 
-8.01675e-02 
-7.02027e-02 
-6.04615e-02 
-5.10314e-02 
-4.19909e-02 
-3.34179e-02 
-2.54007e-02 
-1.80529e-02 
-1.15301e-02 
-6.04898e-03 
-1.89620e-03 
 6.09950e-04 
 1.35047e-03 
-1.64487e-01 
-1.63169e-01 
-1.61195e-01 
-1.59580e-01 
-1.58282e-01 
-1.57001e-01 
-1.55404e-01 
-1.53205e-01 
-1.50191e-01 
-1.46228e-01 
-1.41260e-01 
-1.35303e-01 
-1.28424e-01 
-1.20735e-01 
-1.12371e-01 
-1.03478e-01 
-9.42062e-02 
-8.46973e-02 
-7.50828e-02 
-6.54814e-02 
-5.60004e-02 
-4.67403e-02 
-3.78023e-02 
-2.92982e-02 
-2.13645e-02 
-1.41797e-02 
-7.98340e-03 
-3.09388e-03 
 9.45203e-05 
 1.19970e-03 
-1.45184e-01 
-1.44272e-01 
-1.43210e-01 
-1.42806e-01 
-1.42944e-01 
-1.43279e-01 
-1.43440e-01 
-1.43097e-01 
-1.41988e-01 
-1.39930e-01 
-1.36819e-01 
-1.32621e-01 
-1.27367e-01 
-1.21134e-01 
-1.14034e-01 
-1.06197e-01 
-9.77650e-02 
-8.88810e-02 
-7.96822e-02 
-7.02988e-02 
-6.08537e-02 
-5.14660e-02 
-4.22574e-02 
-3.33618e-02 
-2.49380e-02 
-1.71869e-02 
-1.03711e-02 
-4.83966e-03 
-1.05587e-03 
 3.67328e-04 
-1.27669e-01 
-1.27145e-01 
-1.26927e-01 
-1.27611e-01 
-1.29013e-01 
-1.30756e-01 
-1.32444e-01 
-1.33715e-01 
-1.34274e-01 
-1.33900e-01 
-1.32449e-01 
-1.29849e-01 
-1.26094e-01 
-1.21228e-01 
-1.15339e-01 
-1.08538e-01 
-1.00957e-01 
-9.27324e-02 
-8.40043e-02 
-7.49096e-02 
-6.55830e-02 
-5.61589e-02 
-4.67774e-02 
-3.75924e-02 
-2.87844e-02 
-2.05757e-02 
-1.32517e-02 
-7.19038e-03 
-2.91443e-03 
-1.22865e-03 
-1.11708e-01 
-1.11552e-01 
-1.12115e-01 
-1.13782e-01 
-1.16307e-01 
-1.19288e-01 
-1.22311e-01 
-1.24997e-01 
-1.27024e-01 
-1.28145e-01 
-1.28182e-01 
-1.27032e-01 
-1.24656e-01 
-1.21070e-01 
-1.16334e-01 
-1.10543e-01 
-1.03813e-01 
-9.62733e-02 
-8.80619e-02 
-7.93197e-02 
-7.01897e-02 
-6.08191e-02 
-5.13638e-02 
-4.19964e-02 
-3.29172e-02 
-2.43698e-02 
-1.66610e-02 
-1.01947e-02 
-5.54226e-03 
-3.65599e-03 
-9.71217e-02 
-9.73124e-02 
-9.85975e-02 
-1.01155e-01 
-1.04682e-01 
-1.08758e-01 
-1.12957e-01 
-1.16888e-01 
-1.20213e-01 
-1.22664e-01 
-1.24038e-01 
-1.24205e-01 
-1.23097e-01 
-1.20705e-01 
-1.17066e-01 
-1.12253e-01 
-1.06367e-01 
-9.95299e-02 
-9.18743e-02 
-8.35423e-02 
-7.46829e-02 
-6.54536e-02 
-5.60242e-02 
-4.65840e-02 
-3.73521e-02 
-2.85917e-02 
-2.06301e-02 
-1.38933e-02 
-8.98887e-03 
-6.96890e-03 
-8.37750e-02 
-8.42887e-02 
-8.62367e-02 
-8.95999e-02 
-9.40225e-02 
-9.90696e-02 
-1.04308e-01 
-1.09340e-01 
-1.13817e-01 
-1.17454e-01 
-1.20031e-01 
-1.21395e-01 
-1.21454e-01 
-1.20176e-01 
-1.17574e-01 
-1.13705e-01 
-1.08654e-01 
-1.02532e-01 
-9.54653e-02 
-8.75963e-02 
-7.90777e-02 
-7.00752e-02 
-6.07707e-02 
-5.13687e-02 
-4.21055e-02 
-3.32625e-02 
-2.51855e-02 
-1.83189e-02 
-1.32930e-02 
-1.12092e-02 
-7.15660e-02 
-7.23766e-02 
-7.49276e-02 
-7.90159e-02 
-8.42378e-02 
-9.01464e-02 
-9.63054e-02 
-1.02312e-01 
-1.07813e-01 
-1.12511e-01 
-1.16172e-01 
-1.18624e-01 
-1.19757e-01 
-1.19516e-01 
-1.17897e-01 
-1.14937e-01 
-1.10708e-01 
-1.05309e-01 
-9.88610e-02 
-9.15038e-02 
-8.33926e-02 
-7.47001e-02 
-6.56184e-02 
-5.63655e-02 
-4.71936e-02 
-3.84008e-02 
-3.03492e-02 
-2.34974e-02 
-1.84840e-02 
-1.64079e-02 
-6.04183e-02 
-6.14970e-02 
-6.45892e-02 
-6.93240e-02 
-7.52548e-02 
-8.19255e-02 
-8.88980e-02 
-9.57689e-02 
-1.02180e-01 
-1.07828e-01 
-1.12466e-01 
-1.15909e-01 
-1.18030e-01 
-1.18757e-01 
-1.18067e-01 
-1.15983e-01 
-1.12561e-01 
-1.07892e-01 
-1.02089e-01 
-9.52889e-02 
-8.76489e-02 
-7.93468e-02 
-7.05840e-02 
-6.15904e-02 
-5.26324e-02 
-4.40233e-02 
-3.61394e-02 
-2.94482e-02 
-2.45824e-02 
-2.25864e-02 
-5.02757e-02 
-5.15910e-02 
-5.51598e-02 
-6.04628e-02 
-6.70161e-02 
-7.43560e-02 
-8.20446e-02 
-8.96788e-02 
-9.68991e-02 
-1.03396e-01 
-1.08916e-01 
-1.13262e-01 
-1.16293e-01 
-1.17922e-01 
-1.18113e-01 
-1.16872e-01 
-1.14245e-01 
-1.10310e-01 
-1.05176e-01 
-9.89763e-02 
-9.18685e-02 
-8.40350e-02 
-7.56852e-02 
-6.70594e-02 
-5.84369e-02 
-5.01444e-02 
-4.25698e-02 
-3.61851e-02 
-3.16022e-02 
-2.97583e-02 
-4.10974e-02 
-4.26151e-02 
-4.65927e-02 
-5.23848e-02 
-5.94758e-02 
-6.73967e-02 
-7.57106e-02 
-8.40158e-02 
-9.19524e-02 
-9.92082e-02 
-1.05523e-01 
-1.10692e-01 
-1.14562e-01 
-1.17035e-01 
-1.18060e-01 
-1.17633e-01 
-1.15786e-01 
-1.12591e-01 
-1.08149e-01 
-1.02590e-01 
-9.60736e-02 
-8.87846e-02 
-8.09394e-02 
-7.27880e-02 
-6.46207e-02 
-5.67760e-02 
-4.96512e-02 
-4.37175e-02 
-3.95513e-02 
-3.79308e-02 
-3.28543e-02 
-3.45378e-02 
-3.88530e-02 
-4.50532e-02 
-5.25980e-02 
-6.10145e-02 
-6.98675e-02 
-7.87573e-02 
-8.73247e-02 
-9.52560e-02 
-1.02287e-01 
-1.08205e-01 
-1.12850e-01 
-1.16112e-01 
-1.17930e-01 
-1.18288e-01 
-1.17211e-01 
-1.14760e-01 
-1.11032e-01 
-1.06155e-01 
-1.00286e-01 
-9.36149e-02 
-8.63638e-02 
-7.87908e-02 
-7.11960e-02 
-6.39281e-02 
-5.73910e-02 
-5.20505e-02 
-4.84328e-02 
-4.71061e-02 
-2.55270e-02 
-2.73370e-02 
-3.19151e-02 
-3.84403e-02 
-4.63545e-02 
-5.51827e-02 
-6.44916e-02 
-7.38842e-02 
-8.30024e-02 
-9.15320e-02 
-9.92059e-02 
-1.05807e-01 
-1.11167e-01 
-1.15168e-01 
-1.17742e-01 
-1.18861e-01 
-1.18542e-01 
-1.16841e-01 
-1.13849e-01 
-1.09691e-01 
-1.04526e-01 
-9.85443e-02 
-9.19742e-02 
-8.50810e-02 
-7.81734e-02 
-7.16083e-02 
-6.57942e-02 
-6.11863e-02 
-5.82463e-02 
-5.72822e-02 
-1.91030e-02 
-2.09980e-02 
-2.57606e-02 
-3.25252e-02 
-4.07234e-02 
-4.98799e-02 
-5.95636e-02 
-6.93802e-02 
-7.89733e-02 
-8.80288e-02 
-9.62778e-02 
-1.03499e-01 
-1.09520e-01 
-1.14216e-01 
-1.17509e-01 
-1.19367e-01 
-1.19799e-01 
-1.18855e-01 
-1.16621e-01 
-1.13221e-01 
-1.08812e-01 
-1.03590e-01 
-9.77853e-02 
-9.16707e-02 
-8.55619e-02 
-7.98226e-02 
-7.48635e-02 
-7.11243e-02 
-6.89885e-02 
-6.84544e-02 
-1.35754e-02 
-1.55115e-02 
-2.03768e-02 
-2.72925e-02 
-3.56879e-02 
-4.50890e-02 
-5.50676e-02 
-6.52317e-02 
-7.52269e-02 
-8.47397e-02 
-9.35001e-02 
-1.01285e-01 
-1.07916e-01 
-1.13265e-01 
-1.17247e-01 
-1.19825e-01 
-1.21001e-01 
-1.20820e-01 
-1.19366e-01 
-1.16761e-01 
-1.13162e-01 
-1.08767e-01 
-1.03810e-01 
-9.85705e-02 
-9.33691e-02 
-8.85753e-02 
-8.45998e-02 
-8.18623e-02 
-8.06539e-02 
-8.06158e-02 
-8.94137e-03 
-1.08728e-02 
-1.57556e-02 
-2.27312e-02 
-3.12352e-02 
-4.07969e-02 
-5.09907e-02 
-6.14272e-02 
-7.17540e-02 
-8.16584e-02 
-9.08700e-02 
-9.91635e-02 
-1.06359e-01 
-1.12323e-01 
-1.16966e-01 
-1.20246e-01 
-1.22162e-01 
-1.22754e-01 
-1.22103e-01 
-1.20329e-01 
-1.17592e-01 
-1.14090e-01 
-1.10061e-01 
-1.05789e-01 
-1.01601e-01 
-9.78692e-02 
-9.50025e-02 
-9.33961e-02 
-9.32357e-02 
-9.37580e-02 
-5.20126e-03 
-7.08016e-03 
-1.18923e-02 
-1.88340e-02 
-2.73560e-02 
-3.69930e-02 
-4.73224e-02 
-5.79572e-02 
-6.85467e-02 
-7.87793e-02 
-8.83847e-02 
-9.71364e-02 
-1.04852e-01 
-1.11396e-01 
-1.16675e-01 
-1.20643e-01 
-1.23295e-01 
-1.24670e-01 
-1.24845e-01 
-1.23940e-01 
-1.22115e-01 
-1.19571e-01 
-1.16549e-01 
-1.13335e-01 
-1.10262e-01 
-1.07706e-01 
-1.06070e-01 
-1.05721e-01 
-1.06726e-01 
-1.07871e-01 
-2.35780e-03 
-4.13469e-03 
-8.78481e-03 
-1.55960e-02 
-2.40436e-02 
-3.36696e-02 
-4.40545e-02 
-5.48138e-02 
-6.55982e-02 
-7.60974e-02 
-8.60414e-02 
-9.52029e-02 
-1.03399e-01 
-1.10490e-01 
-1.16383e-01 
-1.21026e-01 
-1.24414e-01 
-1.26581e-01 
-1.27606e-01 
-1.27607e-01 
-1.26744e-01 
-1.25221e-01 
-1.23281e-01 
-1.21214e-01 
-1.19357e-01 
-1.18085e-01 
-1.17798e-01 
-1.18830e-01 
-1.21116e-01 
-1.22946e-01 
-4.15470e-04 
-2.03922e-03 
-6.43331e-03 
-1.30148e-02 
-2.12935e-02 
-3.08206e-02 
-4.11806e-02 
-5.19905e-02 
-6.29029e-02 
-7.36083e-02 
-8.38374e-02 
-9.33627e-02 
-1.02000e-01 
-1.09609e-01 
-1.16094e-01 
-1.21403e-01 
-1.25526e-01 
-1.28499e-01 
-1.30398e-01 
-1.31341e-01 
-1.31490e-01 
-1.31049e-01 
-1.30265e-01 
-1.29432e-01 
-1.28887e-01 
-1.29007e-01 
-1.30185e-01 
-1.32717e-01 
-1.36396e-01 
-1.38971e-01 
 6.19907e-04 
-7.98096e-04 
-4.83955e-03 
-1.10898e-02 
-1.91028e-02 
-2.84420e-02 
-3.86955e-02 
-4.94821e-02 
-6.04559e-02 
-7.13083e-02 
-8.17705e-02 
-9.16151e-02 
-1.00658e-01 
-1.08757e-01 
-1.15816e-01 
-1.21781e-01 
-1.26642e-01 
-1.30433e-01 
-1.33230e-01 
-1.35152e-01 
-1.36362e-01 
-1.37064e-01 
-1.37509e-01 
-1.37992e-01 
-1.38853e-01 
-1.40470e-01 
-1.43225e-01 
-1.47375e-01 
-1.52556e-01 
-1.55936e-01 
 7.41488e-04 
-4.16794e-04 
-4.00658e-03 
-9.82153e-03 
-1.74704e-02 
-2.65310e-02 
-3.65954e-02 
-4.72845e-02 
-5.82533e-02 
-6.91940e-02 
-7.98384e-02 
-8.99595e-02 
-9.93726e-02 
-1.07936e-01 
-1.15552e-01 
-1.22167e-01 
-1.27769e-01 
-1.32392e-01 
-1.36113e-01 
-1.39050e-01 
-1.41368e-01 
-1.43272e-01 
-1.45017e-01 
-1.46898e-01 
-1.49258e-01 
-1.52472e-01 
-1.56914e-01 
-1.62796e-01 
-1.69587e-01 
-1.73829e-01 
-5.83995e-05 
-9.01720e-04 
-3.93853e-03 
-9.21189e-03 
-1.63960e-02 
-2.50857e-02 
-3.48778e-02 
-4.53945e-02 
-5.62917e-02 
-6.72625e-02 
-7.80392e-02 
-8.83950e-02 
-9.81454e-02 
-1.07149e-01 
-1.15307e-01 
-1.22565e-01 
-1.28913e-01 
-1.34384e-01 
-1.39053e-01 
-1.43042e-01 
-1.46515e-01 
-1.49681e-01 
-1.52793e-01 
-1.56152e-01 
-1.60099e-01 
-1.65010e-01 
-1.71246e-01 
-1.78971e-01 
-1.87477e-01 
-1.92639e-01 
-1.78813e-03 
-2.26005e-03 
-4.64039e-03 
-9.26365e-03 
-1.58805e-02 
-2.41056e-02 
-3.35407e-02 
-4.38095e-02 
-5.45686e-02 
-6.55115e-02 