<?xml version="1.0" encoding="utf-8"?>
<VTKFile byte_order="LittleEndian" type="UnstructuredGrid" version="0.1">
   <UnstructuredGrid>
      <Piece NumberOfCells="6694" NumberOfPoints="1636">
         <Points>
            <DataArray Name="Points" NumberOfComponents="3" format="ascii" type="Float32">
0.0000 0.1000 0.1000
0.0000 0.0000 0.1000
0.1000 0.0000 0.0000
0.1000 0.1000 0.1000
0.1000 0.1000 0.0000
0.0000 0.2000 0.1000
0.1000 0.2000 0.1000
0.1000 0.2000 0.0000
0.0000 0.3000 0.1000
0.1000 0.3000 0.1000
0.1000 0.3000 0.0000
0.0000 0.4000 0.1000
0.1000 0.4000 0.1000
0.1000 0.4000 0.0000
0.0000 0.5000 0.1000
0.1000 0.5000 0.1000
0.1000 0.5000 0.0000
0.0000 0.6000 0.1000
0.1000 0.6000 0.1000
0.1000 0.6000 0.0000
0.0000 0.7000 0.1000
0.1000 0.7000 0.1000
0.1000 0.7000 0.0000
0.0000 0.8000 0.1000
0.1000 0.8000 0.1000
0.1000 0.8000 0.0000
0.0000 0.9000 0.1000
0.1000 0.9000 0.1000
0.1000 0.9000 0.0000
0.0000 1.0000 0.1000
0.1000 1.0000 0.1000
0.1000 1.0000 0.0000
0.1000 0.0000 0.1000
0.2000 0.0000 0.0000
0.2000 0.1000 0.1000
0.2000 0.1000 0.0000
0.2000 0.2000 0.1000
0.2000 0.2000 0.0000
0.2000 0.3000 0.1000
0.2000 0.3000 0.0000
0.2000 0.4000 0.1000
0.2000 0.4000 0.0000
0.2000 0.5000 0.1000
0.2000 0.5000 0.0000
0.2000 0.6000 0.1000
0.2000 0.6000 0.0000
0.2000 0.7000 0.1000
0.2000 0.7000 0.0000
0.2000 0.8000 0.1000
0.2000 0.8000 0.0000
0.2000 0.9000 0.1000
0.2000 0.9000 0.0000
0.2000 1.0000 0.1000
0.2000 1.0000 0.0000
0.2000 0.0000 0.1000
0.3000 0.0000 0.0000
0.3000 0.1000 0.1000
0.3000 0.1000 0.0000
0.3000 0.2000 0.1000
0.3000 0.2000 0.0000
0.3000 0.3000 0.1000
0.3000 0.3000 0.0000
0.3000 0.4000 0.1000
0.3000 0.4000 0.0000
0.3000 0.5000 0.1000
0.3000 0.5000 0.0000
0.3000 0.6000 0.1000
0.3000 0.6000 0.0000
0.3000 0.7000 0.1000
0.3000 0.7000 0.0000
0.3000 0.8000 0.1000
0.3000 0.8000 0.0000
0.3000 0.9000 0.1000
0.3000 0.9000 0.0000
0.3000 1.0000 0.1000
0.3000 1.0000 0.0000
0.3000 0.0000 0.1000
0.4000 0.0000 0.0000
0.4000 0.1000 0.1000
0.4000 0.1000 0.0000
0.4000 0.2000 0.1000
0.4000 0.2000 0.0000
0.4000 0.3000 0.1000
0.4000 0.3000 0.0000
0.4000 0.4000 0.1000
0.4000 0.4000 0.0000
0.4000 0.5000 0.1000
0.4000 0.5000 0.0000
0.4000 0.6000 0.1000
0.4000 0.6000 0.0000
0.4000 0.7000 0.1000
0.4000 0.7000 0.0000
0.4000 0.8000 0.1000
0.4000 0.8000 0.0000
0.4000 0.9000 0.1000
0.4000 0.9000 0.0000
0.4000 1.0000 0.1000
0.4000 1.0000 0.0000
0.4000 0.0000 0.1000
0.5000 0.0000 0.0000
0.5000 0.1000 0.1000
0.5000 0.1000 0.0000
0.5000 0.2000 0.1000
0.5000 0.2000 0.0000
0.5000 0.3000 0.1000
0.5000 0.3000 0.0000
0.5000 0.4000 0.1000
0.5000 0.4000 0.0000
0.5000 0.5000 0.1000
0.5000 0.5000 0.0000
0.5000 0.6000 0.1000
0.5000 0.6000 0.0000
0.5000 0.7000 0.1000
0.5000 0.7000 0.0000
0.5000 0.8000 0.1000
0.5000 0.8000 0.0000
0.5000 0.9000 0.1000
0.5000 0.9000 0.0000
0.5000 1.0000 0.1000
0.5000 1.0000 0.0000
0.5000 0.0000 0.1000
0.6000 0.0000 0.0000
0.6000 0.1000 0.1000
0.6000 0.1000 0.0000
0.6000 0.2000 0.1000
0.6000 0.2000 0.0000
0.6000 0.3000 0.1000
0.6000 0.3000 0.0000
0.6000 0.4000 0.1000
0.6000 0.4000 0.0000
0.6000 0.5000 0.1000
0.6000 0.5000 0.0000
0.6000 0.6000 0.1000
0.6000 0.6000 0.0000
0.6000 0.7000 0.1000
0.6000 0.7000 0.0000
0.6000 0.8000 0.1000
0.6000 0.8000 0.0000
0.6000 0.9000 0.1000
0.6000 0.9000 0.0000
0.6000 1.0000 0.1000
0.6000 1.0000 0.0000
0.6000 0.0000 0.1000
0.7000 0.0000 0.0000
0.7000 0.1000 0.1000
0.7000 0.1000 0.0000
0.7000 0.2000 0.1000
0.7000 0.2000 0.0000
0.7000 0.3000 0.1000
0.7000 0.3000 0.0000
0.7000 0.4000 0.1000
0.7000 0.4000 0.0000
0.7000 0.5000 0.1000
0.7000 0.5000 0.0000
0.7000 0.6000 0.1000
0.7000 0.6000 0.0000
0.7000 0.7000 0.1000
0.7000 0.7000 0.0000
0.7000 0.8000 0.1000
0.7000 0.8000 0.0000
0.7000 0.9000 0.1000
0.7000 0.9000 0.0000
0.7000 1.0000 0.1000
0.7000 1.0000 0.0000
0.7000 0.0000 0.1000
0.8000 0.0000 0.0000
0.8000 0.1000 0.1000
0.8000 0.1000 0.0000
0.8000 0.2000 0.1000
0.8000 0.2000 0.0000
0.8000 0.3000 0.1000
0.8000 0.3000 0.0000
0.8000 0.4000 0.1000
0.8000 0.4000 0.0000
0.8000 0.5000 0.1000
0.8000 0.5000 0.0000
0.8000 0.6000 0.1000
0.8000 0.6000 0.0000
0.8000 0.7000 0.1000
0.8000 0.7000 0.0000
0.8000 0.8000 0.1000
0.8000 0.8000 0.0000
0.8000 0.9000 0.1000
0.8000 0.9000 0.0000
0.8000 1.0000 0.1000
0.8000 1.0000 0.0000
0.8000 0.0000 0.1000
0.9000 0.0000 0.0000
0.9000 0.1000 0.1000
0.9000 0.1000 0.0000
0.9000 0.2000 0.1000
0.9000 0.2000 0.0000
0.9000 0.3000 0.1000
0.9000 0.3000 0.0000
0.9000 0.4000 0.1000
0.9000 0.4000 0.0000
0.9000 0.5000 0.1000
0.9000 0.5000 0.0000
0.9000 0.6000 0.1000
0.9000 0.6000 0.0000
0.9000 0.7000 0.1000
0.9000 0.7000 0.0000
0.9000 0.8000 0.1000
0.9000 0.8000 0.0000
0.9000 0.9000 0.1000
0.9000 0.9000 0.0000
0.9000 1.0000 0.1000
0.9000 1.0000 0.0000
0.9000 0.0000 0.1000
1.0000 0.0000 0.0000
1.0000 0.1000 0.1000
1.0000 0.1000 0.0000
1.0000 0.2000 0.1000
1.0000 0.2000 0.0000
1.0000 0.3000 0.1000
1.0000 0.3000 0.0000
1.0000 0.4000 0.1000
1.0000 0.4000 0.0000
1.0000 0.5000 0.1000
1.0000 0.5000 0.0000
1.0000 0.6000 0.1000
1.0000 0.6000 0.0000
1.0000 0.7000 0.1000
1.0000 0.7000 0.0000
1.0000 0.8000 0.1000
1.0000 0.8000 0.0000
1.0000 0.9000 0.1000
1.0000 0.9000 0.0000
1.0000 1.0000 0.1000
1.0000 1.0000 0.0000
0.0000 0.1000 0.2000
0.0000 0.0000 0.2000
0.1000 0.1000 0.2000
0.0000 0.2000 0.2000
0.1000 0.2000 0.2000
0.0000 0.3000 0.2000
0.1000 0.3000 0.2000
0.0000 0.4000 0.2000
0.1000 0.4000 0.2000
0.0000 0.5000 0.2000
0.1000 0.5000 0.2000
0.0000 0.6000 0.2000
0.1000 0.6000 0.2000
0.0000 0.7000 0.2000
0.1000 0.7000 0.2000
0.0000 0.8000 0.2000
0.1000 0.8000 0.2000
0.0000 0.9000 0.2000
0.1000 0.9000 0.2000
0.0000 1.0000 0.2000
0.1000 1.0000 0.2000
0.1000 0.0000 0.2000
0.2000 0.1000 0.2000
0.2000 0.2000 0.2000
0.2000 0.3000 0.2000
0.2000 0.4000 0.2000
0.2000 0.5000 0.2000
0.2000 0.6000 0.2000
0.2000 0.7000 0.2000
0.2000 0.8000 0.2000
0.2000 0.9000 0.2000
0.2000 1.0000 0.2000
0.2000 0.0000 0.2000
0.3000 0.1000 0.2000
0.3000 0.2000 0.2000
0.3000 0.3000 0.2000
0.3000 0.4000 0.2000
0.3000 0.5000 0.2000
0.3000 0.6000 0.2000
0.3000 0.7000 0.2000
0.3000 0.8000 0.2000
0.3000 0.9000 0.2000
0.3000 1.0000 0.2000
0.3000 0.0000 0.2000
0.4000 0.1000 0.2000
0.4000 0.2000 0.2000
0.4000 0.3000 0.2000
0.4000 0.4000 0.2000
0.4000 0.5000 0.2000
0.4000 0.6000 0.2000
0.4000 0.7000 0.2000
0.4000 0.8000 0.2000
0.4000 0.9000 0.2000
0.4000 1.0000 0.2000
0.4000 0.0000 0.2000
0.5000 0.1000 0.2000
0.5000 0.2000 0.2000
0.5000 0.3000 0.2000
0.5000 0.4000 0.2000
0.5000 0.5000 0.2000
0.5000 0.6000 0.2000
0.5000 0.7000 0.2000
0.5000 0.8000 0.2000
0.5000 0.9000 0.2000
0.5000 1.0000 0.2000
0.5000 0.0000 0.2000
0.6000 0.1000 0.2000
0.6000 0.2000 0.2000
0.6000 0.3000 0.2000
0.6000 0.4000 0.2000
0.6000 0.5000 0.2000
0.6000 0.6000 0.2000
0.6000 0.7000 0.2000
0.6000 0.8000 0.2000
0.6000 0.9000 0.2000
0.6000 1.0000 0.2000
0.6000 0.0000 0.2000
0.7000 0.1000 0.2000
0.7000 0.2000 0.2000
0.7000 0.3000 0.2000
0.7000 0.4000 0.2000
0.7000 0.5000 0.2000
0.7000 0.6000 0.2000
0.7000 0.7000 0.2000
0.7000 0.8000 0.2000
0.7000 0.9000 0.2000
0.7000 1.0000 0.2000
0.7000 0.0000 0.2000
0.8000 0.1000 0.2000
0.8000 0.2000 0.2000
0.8000 0.3000 0.2000
0.8000 0.4000 0.2000
0.8000 0.5000 0.2000
0.8000 0.6000 0.2000
0.8000 0.7000 0.2000
0.8000 0.8000 0.2000
0.8000 0.9000 0.2000
0.8000 1.0000 0.2000
0.8000 0.0000 0.2000
0.9000 0.1000 0.2000
0.9000 0.2000 0.2000
0.9000 0.3000 0.2000
0.9000 0.4000 0.2000
0.9000 0.5000 0.2000
0.9000 0.6000 0.2000
0.9000 0.7000 0.2000
0.9000 0.8000 0.2000
0.9000 0.9000 0.2000
0.9000 1.0000 0.2000
0.9000 0.0000 0.2000
1.0000 0.0000 0.1000
1.0000 0.1000 0.2000
1.0000 0.2000 0.2000
1.0000 0.3000 0.2000
1.0000 0.4000 0.2000
1.0000 0.5000 0.2000
1.0000 0.6000 0.2000
1.0000 0.7000 0.2000
1.0000 0.8000 0.2000
1.0000 0.9000 0.2000
1.0000 1.0000 0.2000
0.0000 0.1000 0.3000
0.0000 0.0000 0.3000
0.1000 0.1000 0.3000
0.0000 0.2000 0.3000
0.1000 0.2000 0.3000
0.0000 0.3000 0.3000
0.1000 0.3000 0.3000
0.0000 0.4000 0.3000
0.1000 0.4000 0.3000
0.0000 0.5000 0.3000
0.1000 0.5000 0.3000
0.0000 0.6000 0.3000
0.1000 0.6000 0.3000
0.0000 0.7000 0.3000
0.1000 0.7000 0.3000
0.0000 0.8000 0.3000
0.1000 0.8000 0.3000
0.0000 0.9000 0.3000
0.1000 0.9000 0.3000
0.0000 1.0000 0.3000
0.1000 1.0000 0.3000
0.1000 0.0000 0.3000
0.2000 0.1000 0.3000
0.2000 0.2000 0.3000
0.2000 0.3000 0.3000
0.2000 0.4000 0.3000
0.2000 0.5000 0.3000
0.2000 0.6000 0.3000
0.2000 0.7000 0.3000
0.2000 0.8000 0.3000
0.2000 0.9000 0.3000
0.2000 1.0000 0.3000
0.2000 0.0000 0.3000
0.3000 0.1000 0.3000
0.3000 0.2000 0.3000
0.3000 0.3000 0.3000
0.3000 0.4000 0.3000
0.3000 0.5000 0.3000
0.3000 0.6000 0.3000
0.3000 0.7000 0.3000
0.3000 0.8000 0.3000
0.3000 0.9000 0.3000
0.3000 1.0000 0.3000
0.3000 0.0000 0.3000
0.4000 0.1000 0.3000
0.4000 0.2000 0.3000
0.4000 0.3000 0.3000
0.4000 0.7000 0.3000
0.4000 0.8000 0.3000
0.4000 0.9000 0.3000
0.4000 1.0000 0.3000
0.4000 0.0000 0.3000
0.5000 0.1000 0.3000
0.5000 0.2000 0.3000
0.5000 0.3000 0.3000
0.5000 0.8000 0.3000
0.5000 0.9000 0.3000
0.5000 1.0000 0.3000
0.5000 0.0000 0.3000
0.6000 0.1000 0.3000
0.6000 0.2000 0.3000
0.6000 0.3000 0.3000
0.5000 0.7000 0.3000
0.6000 0.8000 0.3000
0.6000 0.9000 0.3000
0.6000 1.0000 0.3000
0.6000 0.0000 0.3000
0.7000 0.1000 0.3000
0.7000 0.2000 0.3000
0.7000 0.3000 0.3000
0.7000 0.4000 0.3000
0.6000 0.7000 0.3000
0.7000 0.8000 0.3000
0.7000 0.9000 0.3000
0.7000 1.0000 0.3000
0.7000 0.0000 0.3000
0.8000 0.1000 0.3000
0.8000 0.2000 0.3000
0.8000 0.3000 0.3000
0.8000 0.4000 0.3000
0.7000 0.5000 0.3000
0.8000 0.5000 0.3000
0.7000 0.6000 0.3000
0.8000 0.6000 0.3000
0.7000 0.7000 0.3000
0.8000 0.7000 0.3000
0.8000 0.8000 0.3000
0.8000 0.9000 0.3000
0.8000 1.0000 0.3000
0.8000 0.0000 0.3000
0.9000 0.1000 0.3000
0.9000 0.2000 0.3000
0.9000 0.3000 0.3000
0.9000 0.4000 0.3000
0.9000 0.5000 0.3000
0.9000 0.6000 0.3000
0.9000 0.7000 0.3000
0.9000 0.8000 0.3000
0.9000 0.9000 0.3000
0.9000 1.0000 0.3000
0.9000 0.0000 0.3000
1.0000 0.0000 0.2000
1.0000 0.1000 0.3000
1.0000 0.2000 0.3000
1.0000 0.3000 0.3000
1.0000 0.4000 0.3000
1.0000 0.5000 0.3000
1.0000 0.6000 0.3000
1.0000 0.7000 0.3000
1.0000 0.8000 0.3000
[...]
         <PointData>
            <DataArray Name="fValues" NumberOfComponents="3" format="ascii" type="Float64">
       00000        00000        00000 
       00000        00000        00000 
       00000        00000        00000 
       00000        00000        00000 
       00000        00000        00000 
       00000        00000        00000 
       00000        00000        00000 
       00000        00000        00000 
       00000        00000        00000 
       00000        00000        00000 
       00000        00000        00000 
       00000        00000        00000 
       00000        00000        00000 
       00000        00000        00000 
       00000        00000        00000 
       00000        00000        00000 
       00000        00000        00000 
       00000        00000        00000 
       00000        00000        00000 
       00000        00000        00000 
       00000        00000        00000 
       00000        00000        00000 
       00000        00000        00000 
       00000        00000        00000 
       00000        00000        00000 
       00000        00000        00000 
       00000        00000        00000 
       00000        00000        00000 
       00000        00000        00000 
       00000        00000        00000 
       00000        00000        00000 
       00000        00000        00000 
       00000        00000        00000 
       00000        00000        00000 
       00000        00000        00000 
       00000        00000        00000 
       00000        00000        00000 
       00000        00000        00000 
       00000        00000        00000 
       00000        00000        00000 
       00000        00000        00000 
       00000        00000        00000 
       00000        00000        00000 
       00000        00000        00000 
       00000        00000        00000 
       00000        00000        00000 
       00000        00000        00000 
       00000        00000        00000 
       00000        00000        00000 
       00000        00000        00000 
       00000        00000        00000 
       00000        00000        00000 
       00000        00000        00000 
       00000        00000        00000 
       00000        00000        00000 
       00000        00000        00000 
       00000        00000        00000 
       00000        00000        00000 
       00000        00000        00000 
       00000        00000        00000 
       00000        00000        00000 
       00000        00000        00000 
       00000        00000        00000 
       00000        00000        00000 
       00000        00000        00000 
       00000        00000        00000 
       00000        00000        00000 
       00000        00000        00000 
       00000        00000        00000 
       00000        00000        00000 
       00000        00000        00000 
       00000        00000        00000 
       00000        00000        00000 
       00000        00000        00000 
       00000        00000        00000 
       00000        00000        00000 
       00000        00000        00000 
       00000        00000        00000 
       00000        00000        00000 
       00000        00000        00000 
       00000        00000        00000 
       00000        00000        00000 
       00000        00000        00000 
       00000        00000        00000 
       00000        00000        00000 
       00000        00000        00000 
       00000        00000        00000 
       00000        00000        00000 
       00000        00000        00000 
       00000        00000        00000 
       00000        00000        00000 
       00000        00000        00000 
       00000        00000        00000 
       00000        00000        00000 
       00000        00000        00000 
       00000        00000        00000 
       00000        00000        00000 
       00000        00000        00000 
       00000        00000        00000 
       00000        00000        00000 
       00000        00000        00000 
       00000        00000        00000 
       00000        00000        00000 
       00000        00000        00000 
       00000        00000        00000 
       00000        00000        00000 
       00000        00000        00000 
       00000        00000        00000 
       00000        00000        00000 
       00000        00000        00000 
       00000        00000        00000 
       00000        00000        00000 
       00000        00000        00000 
       00000        00000        00000 
       00000        00000        00000 
       00000        00000        00000 
       00000        00000        00000 
       00000        00000        00000 
       00000        00000        00000 
       00000        00000        00000 
       00000        00000        00000 
       00000        00000        00000 
       00000        00000        00000 
       00000        00000        00000 
       00000        00000        00000 
       00000        00000        00000 
       00000        00000        00000 
       00000        00000        00000 
       00000        00000        00000 
       00000        00000        00000 
       00000        00000        00000 
       00000        00000        00000 
       00000        00000        00000 
       00000        00000        00000 
       00000        00000        00000 
       00000        00000        00000 
       00000        00000        00000 
       00000        00000        00000 
       00000        00000        00000 
       00000        00000        00000 
       00000        00000        00000 
       00000        00000        00000 
       00000        00000        00000 
       00000        00000        00000 
       00000        00000        00000 
       00000        00000        00000 
       00000        00000        00000 
       00000        00000        00000 
       00000        00000        00000 
       00000        00000        00000 
       00000        00000        00000 
       00000        00000        00000 
       00000        00000        00000 
       00000        00000        00000 
       00000        00000        00000 
       00000        00000        00000 
       00000        00000        00000 
       00000        00000        00000 
       00000        00000        00000 
       00000        00000        00000 
       00000        00000        00000 
       00000        00000        00000 
       00000        00000        00000 
       00000        00000        00000 
       00000        00000        00000 
       00000        00000        00000 
       00000        00000        00000 
       00000        00000        00000 
       00000        00000        00000 
       00000        00000        00000 
       00000        00000        00000 
       00000        00000        00000 
       00000        00000        00000 
       00000        00000        00000 
       00000        00000        00000 
       00000        00000        00000 
       00000        00000        00000 
       00000        00000        00000 
       00000        00000        00000 
       00000        00000        00000 
       00000        00000        00000 
       00000        00000        00000 
       00000        00000        00000 
       00000        00000        00000 
       00000        00000        00000 
       00000        00000        00000 
       00000        00000        00000 
       00000        00000        00000 
       00000        00000        00000 
       00000        00000        00000 
       00000        00000        00000 
       00000        00000        00000 
       00000        00000        00000 
       00000        00000        00000 
       00000        00000        00000 
       00000        00000        00000 
       00000        00000        00000 
       00000        00000        00000 
       00000        00000        00000 
       00000        00000        00000 
       00000        00000        00000 
       00000        00000        00000 
       00000        00000        00000 
       00000        00000        00000 
       00000        00000        00000 
       00000        00000        00000 
       00000        00000        00000 
       00000        00000        00000 
       00000        00000        00000 
       00000        00000        00000 
       00000        00000        00000 
       00000        00000        00000 
       00000        00000        00000 
       00000        00000        00000 
       00000        00000        00000 
       00000        00000        00000 
       00000        00000        00000 
       00000        00000        00000 
       00000        00000        00000 
       00000        00000        00000 
       00000        00000        00000 
       00000        00000        00000 
       00000        00000        00000 
       00000        00000        00000 
       00000        00000        00000 
       00000        00000        00000 
       00000        00000        00000 
       00000        00000        00000 
       00000        00000        00000 
       00000        00000        00000 
       00000        00000        00000 
       00000        00000        00000 
       00000        00000        00000 
       00000        00000        00000 
       00000        00000        00000 
       00000        00000        00000 
       00000        00000        00000 
       00000        00000        00000 
       00000        00000        00000 
       00000        00000        00000 
       00000        00000        00000 
       00000        00000        00000 
       00000        00000        00000 
       00000        00000        00000 
       00000        00000        00000 
       00000        00000        00000 
       00000        00000        00000 
       00000        00000        00000 
       00000        00000        00000 
       00000        00000        00000 
       00000        00000        00000 
       00000        00000        00000 
       00000        00000        00000 
       00000        00000        00000 
       00000        00000        00000 
       00000        00000        00000 
       00000        00000        00000 
       00000        00000        00000 
       00000        00000        00000 
       00000        00000        00000 
       00000        00000        00000 
       00000        00000        00000 
       00000        00000        00000 
       00000        00000        00000 
       00000        00000        00000 
       00000        00000        00000 
       00000        00000        00000 
       00000        00000        00000 
       00000        00000        00000 
       00000        00000        00000 
       00000        00000        00000 
       00000        00000        00000 
       00000        00000        00000 
       00000        00000        00000 
       00000        00000        00000 
       00000        00000        00000 
       00000        00000        00000 
       00000        00000        00000 
       00000        00000        00000 
       00000        00000        00000 
       00000        00000        00000 
       00000        00000        00000 
       00000        00000        00000 
       00000        00000        00000 
       00000        00000        00000 
       00000        00000        00000 
       00000        00000        00000 
       00000        00000        00000 
       00000        00000        00000 
       00000        00000        00000 
       00000        00000        00000 
       00000        00000        00000 
       00000        00000        00000 
       00000        00000        00000 
       00000        00000        00000 
       00000        00000        00000 
       00000        00000        00000 
       00000        00000        00000 
       00000        00000        00000 
       00000        00000        00000 
       00000        00000        00000 
       00000        00000        00000 
       00000        00000        00000 
       00000        00000        00000 
       00000        00000        00000 
       00000        00000        00000 
       00000        00000        00000 
       00000        00000        00000 
       00000        00000        00000 
       00000        00000        00000 
       00000        00000        00000 
       00000        00000        00000 
       00000        00000        00000 
       00000        00000        00000 
       00000        00000        00000 
       00000        00000        00000 
       00000        00000        00000 
       00000        00000        00000 
       00000        00000        00000 
       00000        00000        00000 
       00000        00000        00000 
       00000        00000        00000 
       00000        00000        00000 
       00000        00000        00000 
       00000        00000        00000 
       00000        00000        00000 
       00000        00000        00000 
       00000        00000        00000 
       00000        00000        00000 
       00000        00000        00000 
       00000        00000        00000 
       00000        00000        00000 
       00000        00000        00000 
       00000        00000        00000 
       00000        00000        00000 
       00000        00000        00000 
       00000        00000        00000 
       00000        00000        00000 
       00000        00000        00000 
       00000        00000        00000 
       00000        00000        00000 
       00000        00000        00000 
       00000        00000        00000 
       00000        00000        00000 
       00000        00000        00000 
       00000        00000        00000 
       00000        00000        00000 
       00000        00000        00000 
       00000        00000        00000 
       00000        00000        00000 
       00000        00000        00000 
       00000        00000        00000 
       00000        00000        00000 
       00000        00000        00000 
       00000        00000        00000 
       00000        00000        00000 
       00000        00000        00000 
       00000        00000        00000 
       00000        00000        00000 
       00000        00000        00000 
       00000        00000        00000 
       00000        00000        00000 
       00000        00000        00000 
       00000        00000        00000 
       00000        00000        00000 
       00000        00000        00000 
       00000        00000        00000 
       00000        00000        00000 
       00000        00000        00000 
       00000        00000        00000 
       00000        00000        00000 
       00000        00000        00000 
       00000        00000        00000 
       00000        00000        00000 
       00000        00000        00000 
       00000        00000        00000 
       00000        00000        00000 
       00000        00000        00000 
       00000        00000        00000 
       00000        00000        00000 
       00000        00000        00000 
       00000        00000        00000 
       00000        00000        00000 
       00000        00000        00000 
       00000        00000        00000 
       00000        00000        00000 
       00000        00000        00000 
       00000        00000        00000 
       00000        00000        00000 
       00000        00000        00000 
       00000        00000        00000 
       00000        00000        00000 
       00000        00000        00000 
       00000        00000        00000 
       00000        00000        00000 
       00000        00000        00000 
       00000        00000        00000 
       00000        00000        00000 
       00000        00000        00000 
       00000        00000        00000 
       00000        00000        00000 
       00000        00000        00000 
       00000        00000        00000 
       00000        00000        00000 
       00000        00000        00000 
       00000        00000        00000 
       00000        00000        00000 
       00000        00000        00000 
       00000        00000        00000 
       00000        00000        00000 
       00000        00000        00000 
       00000        00000        00000 
       00000        00000        00000 
       00000        00000        00000 
       00000        00000        00000 
       00000        00000        00000 
       00000        00000        00000 
       00000        00000        00000 
       00000        00000        00000 
       00000        00000        00000 
       00000        00000        00000 
       00000        00000        00000 
       00000        00000        00000 
       00000        00000        00000 
       00000        00000        00000 
       00000        00000        00000 
       00000        00000        00000 
       00000        00000        00000 
       00000        00000        00000 
       00000        00000        00000 
       00000        00000        00000 
       00000        00000        00000 
       00000        00000        00000 
       00000        00000        00000 
       00000        00000        00000 
       00000        00000        00000 
       00000        00000        00000 
       00000        00000        00000 
       00000        00000        00000 
       00000        00000        00000 
       00000        00000        00000 
       00000        00000        00000 
       00000        00000        00000 
       00000        00000        00000 
       00000        00000        00000 
       00000        00000        00000 
       00000        00000        00000 
       00000        00000        00000 
       00000        00000        00000 
       00000        00000        00000 
       00000        00000        00000 
       00000        00000        00000 
       00000        00000        00000 
       00000        00000        00000 
       00000        00000        00000 
       00000        00000        00000 
       00000        00000        00000 
       00000        00000        00000 
       00000        00000        00000 
       00000        00000        00000 
       00000        00000        00000 
       00000        00000        00000 
       00000        00000        00000 
       00000        00000        00000 
       00000        00000        00000 
       00000        00000        00000 
       00000        00000        00000 
       00000        00000        00000 
       00000        00000        00000 
       00000        00000        00000 
       00000        00000        00000 
       00000        00000        00000 
       00000        00000        00000 
       00000        00000        00000 
       00000        00000        00000 
       00000        00000        00000 
       00000        00000        00000 
       00000        00000        00000 
       00000        00000        00000 
       00000        00000        00000 
       00000        00000        00000 
       00000        00000        00000 
       00000        00000        00000 
       00000        00000        00000 
       00000        00000        00000 
       00000        00000        00000 
       00000        00000        00000 
       00000        00000        00000 
       00000        00000        00000 
       00000        00000        00000 
       00000        00000        00000 
       00000        00000        00000 
       00000        00000        00000 
       00000        00000        00000 
       00000        00000        00000 
       00000        00000        00000 
       00000        00000        00000 