<?xml version="1.0" encoding="utf-8"?>
<VTKFile byte_order="LittleEndian" type="UnstructuredGrid" version="0.1">
   <UnstructuredGrid>
      <Piece NumberOfCells="16" NumberOfPoints="45">
         <Points>
            <DataArray Name="Points" NumberOfComponents="3" format="ascii" type="Float32">2.0000 0.0000 1.0000
                2.0000 0.0000 0.5000
                1.5000 0.0000 1.0000
                2.0000 0.5000 1.0000
                2.0000 0.5000 0.5000
                1.5000 0.5000 1.0000
                1.5000 0.0000 0.5000
                1.5000 0.5000 0.5000
                1.0000 0.0000 1.0000
                2.0000 0.0000 0.0000
                2.0000 1.0000 1.0000
                1.0000 0.0000 0.5000
                2.0000 1.0000 0.5000
                1.5000 1.0000 1.0000
                1.0000 0.5000 1.0000
                2.0000 0.5000 0.0000
                1.5000 0.0000 0.0000
                1.5000 1.0000 0.5000
                1.0000 0.5000 0.5000
                1.5000 0.5000 0.0000
                1.0000 1.0000 1.0000
                2.0000 1.0000 0.0000
                1.0000 0.0000 0.0000
                1.0000 1.0000 0.5000
                1.5000 1.0000 0.0000
                1.0000 0.5000 0.0000
                0.5000 0.0000 1.0000
                0.5000 0.0000 0.5000
                0.5000 0.5000 1.0000
                0.5000 0.5000 0.5000
                1.0000 1.0000 0.0000
                0.5000 0.0000 0.0000
                0.5000 1.0000 1.0000
                0.5000 1.0000 0.5000
                0.5000 0.5000 0.0000
                0.0000 0.0000 1.0000
                0.0000 0.5000 1.0000
                0.0000 0.0000 0.5000
                0.5000 1.0000 0.0000
                0.0000 0.5000 0.5000
                0.0000 1.0000 1.0000
                0.0000 0.0000 0.0000
                0.0000 1.0000 0.5000
                0.0000 0.5000 0.0000
                0.0000 1.0000 0.0000
            </DataArray>
         </Points>
         <Cells>
            <DataArray Name="connectivity" format="ascii" type="Int32">
                29 39 43 34 27 37 41 31
                 18 29 34 25 11 27 31 22
                 7 18 25 19 6 11 22 16
                 4 7 19 15 1 6 16 9
                 28 36 39 29 26 35 37 27
                 14 28 29 18 8 26 27 11
                 5 14 18 7 2 8 11 6
                 3 5 7 4 0 2 6 1
                 33 42 44 38 29 39 43 34
                 23 33 38 30 18 29 34 25
                 17 23 30 24 7 18 25 19
                 12 17 24 21 4 7 19 15
                 32 40 42 33 28 36 39 29
                 20 32 33 23 14 28 29 18
                 13 20 23 17 5 14 18 7
                 10 13 17 12 3 5 7 4
            </DataArray>
            <DataArray Name="offsets" format="ascii" type="Int32">
                8 16 24 32 40 48 56 64 72 80 88 96 104 112 120 128
            </DataArray>
            <DataArray Name="types" format="ascii" type="UInt8">
                12 12 12 12 12 12 12 12 12 12 12 12 12 12 12 12
            </DataArray>
         </Cells>
         <PointData>
            <DataArray Name="Displacement" NumberOfComponents="2" format="ascii" type="Float64">
                3.9583 0.0000 3.9583
                -0.0000 2.2083 -0.0000
                3.9583 0.5000 3.9583
                0.5000 2.2083 0.5000
                2.2083 0.0000 2.2083
                0.5000 0.9583 0.0000
                3.9583 0.0000 3.9583
                1.0000 0.9583 -0.0000
                3.9583 1.0000 2.2083
                1.0000 0.9583 0.5000
                3.9583 0.5000 2.2083
                -0.0000 2.2083 1.0000
                0.9583 0.5000 2.2083
                0.5000 0.9583 1.0000
                3.9583 1.0000 0.9583
                0.0000 0.9583 1.0000
                2.2083 1.0000 0.9583
                0.5000 0.2083 -0.0000
                0.2083 -0.0000 0.2083
                0.5000 0.2083 0.5000
                0.9583 1.0000 0.2083
                -0.0000 0.2083 1.0000
                0.2083 1.0000 0.2083
                0.5000 -0.0417 -0.0000
                -0.0417 0.5000 -0.0417
                -0.0000 0.2083 1.0000
                -0.0417 0.5000 -0.0417
                1.0000 -0.0417 0.0000
                -0.0417 1.0000 -0.0417
                0.5000 -0.0417 1.0000
            </DataArray>
         </PointData>

          <CellData>
            <DataArray type="Int32" Name="nmax" NumberOfComponents="8" Format="ascii">
                29 39 43 34 27 37 41 31
                 18 29 34 25 11 27 31 22
                 7 18 25 19 6 11 22 16
                 4 7 19 15 1 6 16 9
                 28 36 39 29 26 35 37 27
                 14 28 29 18 8 26 27 11
                 5 14 18 7 2 8 11 6
                 3 5 7 4 0 2 6 1
                 33 42 44 38 29 39 43 34
                 23 33 38 30 18 29 34 25
                 17 23 30 24 7 18 25 19
                 12 17 24 21 4 7 19 15
                 32 40 42 33 28 36 39 29
                 20 32 33 23 14 28 29 18
                 13 20 23 17 5 14 18 7
                 10 13 17 12 3 5 7 4
            </DataArray>
          </CellData>
      </Piece>
   </UnstructuredGrid>
</VTKFile>