<?xml version="1.0" encoding="utf-8"?>
<VTKFile byte_order="LittleEndian" type="UnstructuredGrid" version="0.1">
   <UnstructuredGrid>
      <Piece NumberOfCells="17968" NumberOfPoints="10708">
         <Points>
            <DataArray Name="Points" NumberOfComponents="3" format="ascii" type="Float32">
-1.0000 -0.8947 0.0000
-1.0000 -0.7895 0.0000
-1.0000 -0.6842 0.0000
-1.0000 -0.5789 0.0000
-1.0000 -0.4737 0.0000
-1.0000 -0.3684 0.0000
-1.0000 -0.2632 0.0000
-1.0000 -0.1579 0.0000
-1.0000 -0.0526 0.0000
-1.0000 0.0526 0.0000
-1.0000 0.1579 0.0000
-1.0000 0.2632 0.0000
-1.0000 0.3684 0.0000
-1.0000 0.4737 0.0000
-1.0000 0.5789 0.0000
-1.0000 0.6842 0.0000
-1.0000 0.7895 0.0000
-1.0000 0.8947 0.0000
-1.0000 1.0000 0.0000
-0.8947 -0.8947 0.0000
-0.8947 -0.7895 0.0000
-0.8947 -0.6842 0.0000
-0.8947 -0.5789 0.0000
-0.8947 -0.4737 0.0000
-0.8947 -0.3684 0.0000
-0.8947 -0.2632 0.0000
-0.8947 -0.1579 0.0000
-0.8947 -0.0526 0.0000
-0.8947 0.0526 0.0000
-0.8947 0.1579 0.0000
-0.8947 0.2632 0.0000
-0.8947 0.3684 0.0000
-0.8947 0.4737 0.0000
-0.8947 0.5789 0.0000
-0.8947 0.6842 0.0000
-0.8947 0.7895 0.0000
-0.8947 0.8947 0.0000
-0.8947 1.0000 0.0000
-0.7895 -0.8947 0.0000
-0.7895 -0.7895 0.0000
-0.7895 -0.6842 0.0000
-0.7895 -0.5789 0.0000
-0.7895 -0.4737 0.0000
-0.7895 -0.3684 0.0000
-0.7895 -0.2632 0.0000
-0.7895 -0.1579 0.0000
-0.7895 -0.0526 0.0000
-0.7895 0.0526 0.0000
-0.7895 0.1579 0.0000
-0.7895 0.2632 0.0000
-0.7895 0.3684 0.0000
-0.7895 0.4737 0.0000
-0.7895 0.5789 0.0000
-0.7895 0.6842 0.0000
-0.7895 0.7895 0.0000
-0.7895 0.8947 0.0000
-0.7895 1.0000 0.0000
-0.6842 -0.8947 0.0000
-0.6842 -0.7895 0.0000
-0.6842 -0.6842 0.0000
-0.6842 -0.5789 0.0000
-0.6842 -0.4737 0.0000
-0.6842 -0.3684 0.0000
-0.6842 -0.2632 0.0000
-0.6842 -0.1579 0.0000
-0.6842 -0.0526 0.0000
-0.6842 0.0526 0.0000
-0.6842 0.1579 0.0000
-0.6842 0.2632 0.0000
-0.6842 0.3684 0.0000
-0.6842 0.4737 0.0000
-0.6842 0.5789 0.0000
-0.6842 0.6842 0.0000
-0.6842 0.7895 0.0000
-0.6842 0.8947 0.0000
-0.6842 1.0000 0.0000
-0.5789 -0.8947 0.0000
-0.5789 -0.7895 0.0000
-0.5789 -0.6842 0.0000
-0.5789 -0.5789 0.0000
-0.5789 -0.4737 0.0000
-0.5789 -0.3684 0.0000
-0.5789 -0.2632 0.0000
-0.5789 -0.1579 0.0000
-0.5789 -0.0526 0.0000
-0.5789 0.0526 0.0000
-0.5789 0.1579 0.0000
-0.5789 0.2632 0.0000
-0.5789 0.3684 0.0000
-0.5789 0.4737 0.0000
-0.5789 0.5789 0.0000
-0.5789 0.6842 0.0000
-0.5789 0.7895 0.0000
-0.5789 0.8947 0.0000
-0.5789 1.0000 0.0000
-0.4737 -0.8947 0.0000
-0.4737 -0.7895 0.0000
-0.4737 -0.6842 0.0000
-0.4737 -0.5789 0.0000
-0.4737 -0.4737 0.0000
-0.4737 -0.3684 0.0000
-0.4737 -0.2632 0.0000
-0.4737 -0.1579 0.0000
-0.4737 -0.0526 0.0000
-0.4737 0.0526 0.0000
-0.4737 0.1579 0.0000
-0.4737 0.2632 0.0000
-0.4737 0.3684 0.0000
-0.4737 0.4737 0.0000
-0.4737 0.5789 0.0000
-0.4737 0.6842 0.0000
-0.4737 0.7895 0.0000
-0.4737 0.8947 0.0000
-0.4737 1.0000 0.0000
-0.3684 -0.8947 0.0000
-0.3684 -0.7895 0.0000
-0.3684 -0.6842 0.0000
-0.3684 -0.5789 0.0000
-0.3684 -0.4737 0.0000
-0.3684 -0.3684 0.0000
-0.3684 -0.2632 0.0000
-0.3684 -0.1579 0.0000
-0.3684 -0.0526 0.0000
-0.3684 0.0526 0.0000
-0.3684 0.1579 0.0000
-0.3684 0.2632 0.0000
-0.3684 0.3684 0.0000
-0.3684 0.4737 0.0000
-0.3684 0.5789 0.0000
-0.3684 0.6842 0.0000
-0.3684 0.7895 0.0000
-0.3684 0.8947 0.0000
-0.3684 1.0000 0.0000
-0.2632 -0.8947 0.0000
-0.2632 -0.7895 0.0000
-0.2632 -0.6842 0.0000
-0.2632 -0.5789 0.0000
-0.2632 -0.4737 0.0000
-0.2632 -0.3684 0.0000
-0.2632 -0.2632 0.0000
-0.2632 -0.1579 0.0000
-0.2632 -0.0526 0.0000
-0.2632 0.0526 0.0000
-0.2632 0.1579 0.0000
-0.2632 0.2632 0.0000
-0.2632 0.3684 0.0000
-0.2632 0.4737 0.0000
-0.2632 0.5789 0.0000
-0.2632 0.6842 0.0000
-0.2632 0.7895 0.0000
-0.2632 0.8947 0.0000
-0.2632 1.0000 0.0000
-0.1579 -0.8947 0.0000
-0.1579 -0.7895 0.0000
-0.1579 -0.6842 0.0000
-0.1579 -0.5789 0.0000
-0.1579 -0.4737 0.0000
-0.1579 -0.3684 0.0000
-0.1579 -0.2632 0.0000
-0.1579 -0.1579 0.0000
-0.1579 -0.0526 0.0000
-0.1579 0.1579 0.0000
-0.1579 0.2632 0.0000
-0.1579 0.3684 0.0000
-0.1579 0.4737 0.0000
-0.1579 0.5789 0.0000
-0.1579 0.6842 0.0000
-0.1579 0.7895 0.0000
-0.1579 0.8947 0.0000
-0.1579 1.0000 0.0000
-0.0526 -0.8947 0.0000
-0.0526 -0.7895 0.0000
-0.0526 -0.6842 0.0000
-0.0526 -0.5789 0.0000
-0.0526 -0.4737 0.0000
-0.0526 -0.3684 0.0000
-0.0526 -0.2632 0.0000
-0.0526 -0.1579 0.0000
-0.0526 0.2632 0.0000
-0.0526 0.3684 0.0000
-0.0526 0.4737 0.0000
-0.0526 0.5789 0.0000
-0.0526 0.6842 0.0000
-0.0526 0.7895 0.0000
-0.0526 0.8947 0.0000
-0.0526 1.0000 0.0000
0.0526 -0.8947 0.0000
0.0526 -0.7895 0.0000
0.0526 -0.6842 0.0000
0.0526 -0.5789 0.0000
0.0526 -0.4737 0.0000
0.0526 -0.3684 0.0000
0.0526 -0.2632 0.0000
0.0526 -0.1579 0.0000
0.0526 0.2632 0.0000
0.0526 0.3684 0.0000
0.0526 0.4737 0.0000
0.0526 0.5789 0.0000
0.0526 0.6842 0.0000
0.0526 0.7895 0.0000
0.0526 0.8947 0.0000
0.0526 1.0000 0.0000
0.1579 -0.8947 0.0000
0.1579 -0.7895 0.0000
0.1579 -0.6842 0.0000
0.1579 -0.5789 0.0000
0.1579 -0.4737 0.0000
0.1579 -0.3684 0.0000
0.1579 -0.2632 0.0000
0.1579 -0.1579 0.0000
0.1579 -0.0526 0.0000
0.1579 0.0526 0.0000
0.1579 0.1579 0.0000
0.1579 0.2632 0.0000
0.1579 0.3684 0.0000
0.1579 0.4737 0.0000
0.1579 0.5789 0.0000
0.1579 0.6842 0.0000
0.1579 0.7895 0.0000
0.1579 0.8947 0.0000
0.1579 1.0000 0.0000
0.2632 -0.8947 0.0000
0.2632 -0.7895 0.0000
0.2632 -0.6842 0.0000
0.2632 -0.5789 0.0000
0.2632 -0.4737 0.0000
0.2632 -0.3684 0.0000
0.2632 -0.2632 0.0000
0.2632 -0.1579 0.0000
0.2632 -0.0526 0.0000
0.2632 0.0526 0.0000
0.2632 0.1579 0.0000
0.2632 0.2632 0.0000
0.2632 0.3684 0.0000
0.2632 0.4737 0.0000
0.2632 0.5789 0.0000
0.2632 0.6842 0.0000
0.2632 0.7895 0.0000
0.2632 0.8947 0.0000
0.2632 1.0000 0.0000
0.3684 -0.8947 0.0000
0.3684 -0.7895 0.0000
0.3684 -0.6842 0.0000
0.3684 -0.5789 0.0000
0.3684 -0.4737 0.0000
0.3684 -0.3684 0.0000
0.3684 -0.2632 0.0000
0.3684 -0.1579 0.0000
0.3684 -0.0526 0.0000
0.3684 0.0526 0.0000
0.3684 0.1579 0.0000
0.3684 0.2632 0.0000
0.3684 0.3684 0.0000
0.3684 0.4737 0.0000
0.3684 0.5789 0.0000
0.3684 0.6842 0.0000
0.3684 0.7895 0.0000
0.3684 0.8947 0.0000
0.3684 1.0000 0.0000
0.4737 -0.8947 0.0000
0.4737 -0.7895 0.0000
0.4737 -0.6842 0.0000
0.4737 -0.5789 0.0000
0.4737 -0.4737 0.0000
0.4737 -0.3684 0.0000
0.4737 -0.2632 0.0000
0.4737 -0.1579 0.0000
0.4737 -0.0526 0.0000
0.4737 0.0526 0.0000
0.4737 0.1579 0.0000
0.4737 0.2632 0.0000
0.4737 0.3684 0.0000
0.4737 0.4737 0.0000
0.4737 0.5789 0.0000
0.4737 0.6842 0.0000
0.4737 0.7895 0.0000
0.4737 0.8947 0.0000
0.4737 1.0000 0.0000
0.5789 -0.8947 0.0000
0.5789 -0.7895 0.0000
0.5789 -0.6842 0.0000
0.5789 -0.5789 0.0000
0.5789 -0.4737 0.0000
0.5789 -0.3684 0.0000
0.5789 -0.2632 0.0000
0.5789 -0.1579 0.0000
0.5789 -0.0526 0.0000
0.5789 0.0526 0.0000
0.5789 0.1579 0.0000
0.5789 0.2632 0.0000
0.5789 0.3684 0.0000
0.5789 0.4737 0.0000
0.5789 0.5789 0.0000
0.5789 0.6842 0.0000
0.5789 0.7895 0.0000
0.5789 0.8947 0.0000
0.5789 1.0000 0.0000
0.6842 -0.8947 0.0000
0.6842 -0.7895 0.0000
0.6842 -0.6842 0.0000
0.6842 -0.5789 0.0000
0.6842 -0.4737 0.0000
0.6842 -0.3684 0.0000
0.6842 -0.2632 0.0000
0.6842 -0.1579 0.0000
0.6842 -0.0526 0.0000
0.6842 0.0526 0.0000
0.6842 0.1579 0.0000
0.6842 0.2632 0.0000
0.6842 0.3684 0.0000
0.6842 0.4737 0.0000
0.6842 0.5789 0.0000
0.6842 0.6842 0.0000
0.6842 0.7895 0.0000
0.6842 0.8947 0.0000
0.6842 1.0000 0.0000
0.7895 -0.8947 0.0000
0.7895 -0.7895 0.0000
0.7895 -0.6842 0.0000
0.7895 -0.5789 0.0000
0.7895 -0.4737 0.0000
0.7895 -0.3684 0.0000
0.7895 -0.2632 0.0000
0.7895 -0.1579 0.0000
0.7895 -0.0526 0.0000
0.7895 0.0526 0.0000
0.7895 0.1579 0.0000
0.7895 0.2632 0.0000
0.7895 0.3684 0.0000
0.7895 0.4737 0.0000
0.7895 0.5789 0.0000
0.7895 0.6842 0.0000
0.7895 0.7895 0.0000
0.7895 0.8947 0.0000
0.7895 1.0000 0.0000
0.8947 -0.8947 0.0000
0.8947 -0.7895 0.0000
0.8947 -0.6842 0.0000
0.8947 -0.5789 0.0000
0.8947 -0.4737 0.0000
0.8947 -0.3684 0.0000
0.8947 -0.2632 0.0000
0.8947 -0.1579 0.0000
0.8947 -0.0526 0.0000
0.8947 0.0526 0.0000
0.8947 0.1579 0.0000
0.8947 0.2632 0.0000
0.8947 0.3684 0.0000
0.8947 0.4737 0.0000
0.8947 0.5789 0.0000
0.8947 0.6842 0.0000
0.8947 0.7895 0.0000
0.8947 0.8947 0.0000
0.8947 1.0000 0.0000
-0.1579 0.0526 0.0000
-0.0526 0.1579 0.0000
1.0000 -0.8947 0.0000
1.0000 -0.7895 0.0000
1.0000 -0.6842 0.0000
1.0000 -0.5789 0.0000
1.0000 -0.4737 0.0000
1.0000 -0.3684 0.0000
1.0000 -0.2632 0.0000
1.0000 -0.1579 0.0000
1.0000 -0.0526 0.0000
1.0000 0.0526 0.0000
1.0000 0.1579 0.0000
1.0000 0.2632 0.0000
1.0000 0.3684 0.0000
1.0000 0.4737 0.0000
1.0000 0.5789 0.0000
1.0000 0.6842 0.0000
1.0000 0.7895 0.0000
1.0000 0.8947 0.0000
1.0000 1.0000 0.0000
-0.8947 -1.0000 0.0000
-0.7895 -1.0000 0.0000
-0.6842 -1.0000 0.0000
-0.5789 -1.0000 0.0000
-0.4737 -1.0000 0.0000
-0.3684 -1.0000 0.0000
-0.2632 -1.0000 0.0000
-0.1579 -1.0000 0.0000
-0.0526 -1.0000 0.0000
0.0526 -1.0000 0.0000
0.0526 0.1579 0.0000
0.1579 -1.0000 0.0000
0.2632 -1.0000 0.0000
0.3684 -1.0000 0.0000
0.4737 -1.0000 0.0000
0.5789 -1.0000 0.0000
0.6842 -1.0000 0.0000
0.7895 -1.0000 0.0000
0.8947 -1.0000 0.0000
1.0000 -1.0000 0.0000
-1.0000 -1.0000 0.0000
1.1053 -0.8947 0.0000
1.1053 -0.7895 0.0000
1.1053 -0.6842 0.0000
1.1053 -0.5789 0.0000
1.1053 -0.4737 0.0000
1.1053 -0.3684 0.0000
1.1053 -0.2632 0.0000
1.1053 -0.1579 0.0000
1.1053 -0.0526 0.0000
1.1053 0.0526 0.0000
1.1053 0.1579 0.0000
1.1053 0.2632 0.0000
1.1053 0.3684 0.0000
1.1053 0.4737 0.0000
1.1053 0.5789 0.0000
1.1053 0.6842 0.0000
1.1053 0.7895 0.0000
1.1053 0.8947 0.0000
1.1053 1.0000 0.0000
1.2105 -0.8947 0.0000
1.2105 -0.7895 0.0000
1.2105 -0.6842 0.0000
1.2105 -0.5789 0.0000
1.2105 -0.4737 0.0000
1.2105 -0.3684 0.0000
1.2105 -0.2632 0.0000
1.2105 -0.1579 0.0000
1.2105 -0.0526 0.0000
1.2105 0.0526 0.0000
1.2105 0.1579 0.0000
1.2105 0.2632 0.0000
1.2105 0.3684 0.0000
1.2105 0.4737 0.0000
1.2105 0.5789 0.0000
1.2105 0.6842 0.0000
1.2105 0.7895 0.0000
1.2105 0.8947 0.0000
1.2105 1.0000 0.0000
1.3158 -0.8947 0.0000
1.3158 -0.7895 0.0000
1.3158 -0.6842 0.0000
1.3158 -0.5789 0.0000
1.3158 -0.4737 0.0000
1.3158 -0.3684 0.0000
1.3158 -0.2632 0.0000
[...]
         <PointData>
            <DataArray Name="fValues" NumberOfComponents="3" format="ascii" type="Float64">
-2.06848e-14 -2.76015e-15        00000 
 4.14283e-15  1.89880e-15        00000 
-1.49247e-14 -1.99435e-15        00000 
-6.90471e-16  5.17853e-16        00000 
-1.49648e-15 -1.08441e-16        00000 
 3.97021e-15 -7.76780e-16        00000 
-1.34949e-15  6.52981e-17        00000 
 4.31544e-15  8.63089e-17        00000 
-4.66295e-16 -8.45838e-16        00000 
-5.17853e-16 -6.90471e-16        00000 
 3.48259e-16 -8.70646e-16        00000 
-3.27974e-15        00000        00000 
 1.39889e-15 -2.54836e-16        00000 
-5.52377e-15 -9.92552e-16        00000 
 2.28712e-14  1.40868e-15        00000 
       00000 -2.41665e-15        00000 
-7.47464e-15  2.17829e-15        00000 
 1.54948e-14 -8.70492e-16        00000 
-2.94491e-14 -1.60919e-15        00000 
 7.80708e+01  3.63339e+01        00000 
 6.58615e+01  2.11565e+01        00000 
 5.57334e+01  1.15153e+01        00000 
 4.65609e+01  4.75688e+00        00000 
 3.77842e+01 -1.33201e-01        00000 
 2.92229e+01 -3.66448e+00        00000 
 2.07909e+01 -6.12167e+00        00000 
 1.24415e+01 -7.67587e+00        00000 
 4.14058e+00 -8.42846e+00        00000 
-4.14386e+00 -8.42782e+00        00000 
-1.24442e+01 -7.67417e+00        00000 
-2.07925e+01 -6.11943e+00        00000 
-2.92234e+01 -3.66235e+00        00000 
-3.77837e+01 -1.31663e-01        00000 
-4.65598e+01  4.75760e+00        00000 
-5.57319e+01  1.15152e+01        00000 
-6.58598e+01  2.11558e+01        00000 
-7.80688e+01  3.63327e+01        00000 
-1.07771e+02  6.56202e+01        00000 
 1.64454e+02  7.63445e+01        00000 
 1.37558e+02  5.26701e+01        00000 
 1.16039e+02  3.56547e+01        00000 
 9.65544e+01  2.31714e+01        00000 
 7.81283e+01  1.39333e+01        00000 
 6.02948e+01  7.17871e+00        00000 
 4.28298e+01  2.44319e+00        00000 
 2.56026e+01 -5.65302e-01        00000 
 8.51572e+00 -2.02538e+00        00000 
-8.52324e+00 -2.02429e+00        00000 
-2.56084e+01 -5.62433e-01        00000 
-4.28331e+01  2.44681e+00        00000 
-6.02954e+01  7.18192e+00        00000 
-7.81267e+01  1.39352e+01        00000 
-9.65516e+01  2.31718e+01        00000 
-1.16036e+02  3.56537e+01        00000 
-1.37554e+02  5.26679e+01        00000 
-1.64450e+02  7.63415e+01        00000 
-1.99926e+02  1.04522e+02        00000 
 2.48733e+02  1.15167e+02        00000 
 2.11998e+02  8.98532e+01        00000 
 1.79212e+02  6.90334e+01        00000 
 1.49087e+02  5.27463e+01        00000 
 1.20509e+02  4.02508e+01        00000 
 9.28987e+01  3.09211e+01        00000 
 6.59225e+01  2.43002e+01        00000 
 3.93747e+01  2.00673e+01        00000 
 1.30899e+01  1.80078e+01        00000 
-1.31029e+01  1.80094e+01        00000 
-3.93845e+01  2.00713e+01        00000 
-6.59273e+01  2.43049e+01        00000 
-9.28986e+01  3.09247e+01        00000 
-1.20506e+02  4.02522e+01        00000 
-1.49082e+02  5.27453e+01        00000 
-1.79206e+02  6.90305e+01        00000 
-2.11992e+02  8.98488e+01        00000 
-2.48727e+02  1.15162e+02        00000 
-2.89083e+02  1.43791e+02        00000 
 3.31667e+02  1.58450e+02        00000 
 2.86356e+02  1.32614e+02        00000 
 2.43557e+02  1.10367e+02        00000 
 2.03046e+02  9.20141e+01        00000 
 1.64226e+02  7.74269e+01        00000 
 1.26583e+02  6.62805e+01        00000 
 8.97790e+01  5.82620e+01        00000 
 5.35876e+01  5.31048e+01        00000 
 1.78051e+01  5.05936e+01        00000 
-1.78254e+01  5.05958e+01        00000 
-5.36021e+01  5.31103e+01        00000 
-8.97847e+01  5.82677e+01        00000 
-1.26581e+02  6.62838e+01        00000 
-1.64219e+02  7.74266e+01        00000 
-2.03037e+02  9.20106e+01        00000 
-2.43548e+02  1.10361e+02        00000 
-2.86348e+02  1.32607e+02        00000 
-3.31660e+02  1.58442e+02        00000 
-3.78408e+02  1.87102e+02        00000 
 4.13968e+02  2.08471e+02        00000 
 3.60205e+02  1.82534e+02        00000 
 3.08002e+02  1.59757e+02        00000 
 2.57556e+02  1.40442e+02        00000 
 2.08634e+02  1.24669e+02        00000 
 1.60899e+02  1.12365e+02        00000 
 1.14086e+02  1.03403e+02        00000 
 6.80355e+01  9.76261e+01        00000 
 2.25838e+01  9.48285e+01        00000 
-2.26146e+01  9.48320e+01        00000 
-6.80557e+01  9.76332e+01        00000 
-1.14091e+02  1.03410e+02        00000 
-1.60892e+02  1.12367e+02        00000 
-2.08622e+02  1.24665e+02        00000 
-2.57544e+02  1.40435e+02        00000 
-3.07991e+02  1.59748e+02        00000 
-3.60196e+02  1.82523e+02        00000 
-4.13960e+02  2.08460e+02        00000 
-4.68296e+02  2.37196e+02        00000 
 4.95993e+02  2.66576e+02        00000 
 4.33575e+02  2.40649e+02        00000 
 3.72183e+02  2.17730e+02        00000 
 3.12103e+02  1.98020e+02        00000 
 2.53286e+02  1.81643e+02        00000 
 1.95512e+02  1.68639e+02        00000 
 1.38583e+02  1.59052e+02        00000 
 8.24896e+01  1.52895e+02        00000 
 2.73113e+01  1.49991e+02        00000 
-2.73578e+01  1.49993e+02        00000 
-8.25175e+01  1.52907e+02        00000 
-1.38583e+02  1.59057e+02        00000 
-1.95496e+02  1.68637e+02        00000 
-2.53266e+02  1.81632e+02        00000 
-3.12086e+02  1.98007e+02        00000 
-3.72170e+02  2.17717e+02        00000 
-4.33564e+02  2.40637e+02        00000 
-4.95984e+02  2.66564e+02        00000 
-5.58696e+02  2.95350e+02        00000 
 5.77868e+02  3.33489e+02        00000 
 5.06556e+02  3.07619e+02        00000 
 4.35998e+02  2.84723e+02        00000 
 3.66448e+02  2.64915e+02        00000 
 2.97920e+02  2.48294e+02        00000 
 2.30258e+02  2.34900e+02        00000 
 1.63171e+02  2.24779e+02        00000 
 9.67102e+01  2.18293e+02        00000 
 3.17253e+01  2.15469e+02        00000 
-3.17968e+01  2.15489e+02        00000 
-9.67459e+01  2.18290e+02        00000 
-1.63160e+02  2.24788e+02        00000 
-2.30223e+02  2.34882e+02        00000 
-2.97895e+02  2.48273e+02        00000 
-3.66429e+02  2.64897e+02        00000 
-4.35985e+02  2.84708e+02        00000 
-5.06546e+02  3.07606e+02        00000 
-5.77860e+02  3.33477e+02        00000 
-6.49436e+02  3.62282e+02        00000 
 6.59614e+02  4.09603e+02        00000 
 5.79210e+02  3.83815e+02        00000 
 4.99438e+02  3.61022e+02        00000 
 4.20482e+02  3.41286e+02        00000 
 3.42375e+02  3.24670e+02        00000 
 2.65003e+02  3.11191e+02        00000 
 1.88080e+02  3.00759e+02        00000 
 1.10754e+02  2.93295e+02        00000 
 3.49744e+01  2.90421e+02        00000 
-1.10854e+02  2.93371e+02        00000 
-1.87991e+02  3.00711e+02        00000 
-2.64961e+02  3.11148e+02        00000 
-3.42350e+02  3.24643e+02        00000 
-4.20465e+02  3.41267e+02        00000 
-4.99426e+02  3.61009e+02        00000 
-5.79201e+02  3.83804e+02        00000 
-6.59607e+02  4.09592e+02        00000 
-7.40338e+02  4.38384e+02        00000 
 7.41207e+02  4.95115e+02        00000 
 6.51568e+02  4.69425e+02        00000 
 5.62511e+02  4.46774e+02        00000 
 4.74152e+02  4.27200e+02        00000 
 3.86521e+02  4.10761e+02        00000 
 2.99546e+02  3.97504e+02        00000 
 2.13009e+02  3.87414e+02        00000 
 1.26187e+02  3.80149e+02        00000 
-2.12933e+02  3.87312e+02        00000 
-2.99513e+02  3.97469e+02        00000 
-3.86502e+02  4.10744e+02        00000 
-4.74138e+02  4.27189e+02        00000 
-5.62500e+02  4.46766e+02        00000 
-6.51560e+02  4.69419e+02        00000 
-7.41200e+02  4.95109e+02        00000 
-8.31252e+02  5.23857e+02        00000 
 8.22615e+02  5.90107e+02        00000 
 7.23645e+02  5.64521e+02        00000 
 6.25236e+02  5.42018e+02        00000 
 5.27450e+02  5.22629e+02        00000 
 4.30294e+02  5.06417e+02        00000 
 3.33706e+02  4.93470e+02        00000 
 2.37543e+02  4.83928e+02        00000 
 1.41626e+02  4.77997e+02        00000 
-2.37488e+02  4.83991e+02        00000 
-3.33676e+02  4.93488e+02        00000 
-4.30277e+02  5.06423e+02        00000 
-5.27437e+02  5.22632e+02        00000 
-6.25226e+02  5.42019e+02        00000 
-7.23636e+02  5.64521e+02        00000 
-8.22608e+02  5.90107e+02        00000 
-9.22063e+02  6.18790e+02        00000 
 9.03809e+02  6.94595e+02        00000 
 7.95450e+02  6.69111e+02        00000 
 6.87645e+02  6.46741e+02        00000 
 5.80410e+02  6.27509e+02        00000 
 4.73732e+02  6.11463e+02        00000 
 3.67552e+02  5.98667e+02        00000 
 2.61779e+02  5.89159e+02        00000 
 1.56594e+02  5.82844e+02        00000 
 5.25831e+01  5.80113e+02        00000 
-5.25900e+01  5.80160e+02        00000 
-1.56731e+02  5.82809e+02        00000 
-2.61693e+02  5.89219e+02        00000 
-3.67517e+02  5.98705e+02        00000 
-4.73710e+02  6.11484e+02        00000 
-5.80395e+02  6.27521e+02        00000 
-6.87633e+02  6.46749e+02        00000 
-7.95441e+02  6.69117e+02        00000 
-9.03802e+02  6.94600e+02        00000 
-1.01269e+03  7.23207e+02        00000 
 9.84772e+02  8.08567e+02        00000 
 8.66997e+02  7.83178e+02        00000 
 7.49772e+02  7.60918e+02        00000 
 6.33089e+02  7.41801e+02        00000 
 5.16921e+02  7.25852e+02        00000 
 4.01226e+02  7.13088e+02        00000 
 2.85993e+02  7.03492e+02        00000 
 1.71290e+02  6.97070e+02        00000 
 5.70832e+01  6.93894e+02        00000 
-5.71139e+01  6.93896e+02        00000 
-1.71335e+02  6.97077e+02        00000 
-2.85983e+02  7.03486e+02        00000 
-4.01192e+02  7.13108e+02        00000 
-5.16897e+02  7.25871e+02        00000 
-6.33072e+02  7.41816e+02        00000 
-7.49759e+02  7.60929e+02        00000 
-8.66987e+02  7.83187e+02        00000 
-9.84764e+02  8.08576e+02        00000 
-1.10310e+03  8.37100e+02        00000 
 1.06549e+03  9.32003e+02        00000 
 9.38296e+02  9.06701e+02        00000 
 8.11648e+02  8.84534e+02        00000 
 6.85529e+02  8.65507e+02        00000 
 5.59910e+02  8.49624e+02        00000 
 4.34762e+02  8.36888e+02        00000 
 3.10070e+02  8.27295e+02        00000 
 1.85815e+02  8.20863e+02        00000 
 6.18947e+01  8.17638e+02        00000 
-6.19220e+01  8.17639e+02        00000 
-1.85837e+02  8.20859e+02        00000 
-3.10070e+02  8.27292e+02        00000 
-4.34746e+02  8.36891e+02        00000 
-5.59890e+02  8.49635e+02        00000 
-6.85513e+02  8.65518e+02        00000 
-8.11635e+02  8.84545e+02        00000 
-9.38285e+02  9.06711e+02        00000 
-1.06548e+03  9.32012e+02        00000 
-1.19326e+03  9.60450e+02        00000 
 1.14597e+03  1.06488e+03        00000 
 1.00935e+03  1.03966e+03        00000 
 8.73288e+02  1.01758e+03        00000 
 7.37749e+02  9.98634e+02        00000 
 6.02705e+02  9.82822e+02        00000 
 4.68128e+02  9.70143e+02        00000 
 3.33982e+02  9.60601e+02        00000 
 2.00209e+02  9.54214e+02        00000 
 6.66982e+01  9.51010e+02        00000 
-6.67176e+01  9.51008e+02        00000 
-2.00222e+02  9.54210e+02        00000 
-3.33984e+02  9.60597e+02        00000 
-4.68120e+02  9.70143e+02        00000 
-6.02692e+02  9.82826e+02        00000 
-7.37735e+02  9.98641e+02        00000 
-8.73276e+02  1.01759e+03        00000 
-1.00934e+03  1.03967e+03        00000 
-1.14596e+03  1.06489e+03        00000 
-1.28315e+03  1.09324e+03        00000 
 1.22619e+03  1.20717e+03        00000 
 1.08017e+03  1.18204e+03        00000 
 9.34697e+02  1.16005e+03        00000 
 7.89750e+02  1.14118e+03        00000 
 6.45298e+02  1.12545e+03        00000 
 5.01306e+02  1.11285e+03        00000 
 3.57724e+02  1.10339e+03        00000 
 2.14480e+02  1.09706e+03        00000 
 7.14620e+01  1.09389e+03        00000 
-7.14749e+01  1.09389e+03        00000 
-2.14489e+02  1.09706e+03        00000 
-3.57726e+02  1.10338e+03        00000 
-5.01301e+02  1.11285e+03        00000 
-6.45289e+02  1.12546e+03        00000 
-7.89739e+02  1.14119e+03        00000 
-9.34686e+02  1.16005e+03        00000 
-1.08016e+03  1.18205e+03        00000 
-1.22618e+03  1.20718e+03        00000 
-1.37278e+03  1.23545e+03        00000 
 1.30616e+03  1.35887e+03        00000 
 1.15074e+03  1.33382e+03        00000 
 9.95873e+02  1.31191e+03        00000 
 8.41527e+02  1.29314e+03        00000 
 6.87679e+02  1.27750e+03        00000 
 5.34289e+02  1.26499e+03        00000 
 3.81302e+02  1.25561e+03        00000 
 2.28638e+02  1.24935e+03        00000 
 7.61852e+01  1.24622e+03        00000 
-7.61932e+01  1.24622e+03        00000 
-2.28644e+02  1.24935e+03        00000 
-3.81303e+02  1.25561e+03        00000 
-5.34285e+02  1.26499e+03        00000 
-6.87672e+02  1.27750e+03        00000 
-8.41519e+02  1.29314e+03        00000 
-9.95864e+02  1.31192e+03        00000 
-1.15073e+03  1.33383e+03        00000 
-1.30615e+03  1.35887e+03        00000 
-1.46215e+03  1.38705e+03        00000 
 1.38589e+03  1.51994e+03        00000 
 1.22108e+03  1.49498e+03        00000 
 1.05681e+03  1.47316e+03        00000 
 8.93076e+02  1.45448e+03        00000 
 7.29841e+02  1.43894e+03        00000 
 5.67073e+02  1.42654e+03        00000 
 4.04716e+02  1.41724e+03        00000 
 2.42686e+02  1.41106e+03        00000 
 8.08689e+01  1.40797e+03        00000 
-8.08733e+01  1.40797e+03        00000 
-2.42689e+02  1.41106e+03        00000 
-4.04716e+02  1.41724e+03        00000 
-5.67070e+02  1.42653e+03        00000 
-7.29836e+02  1.43894e+03        00000 
-8.93069e+02  1.45448e+03        00000 
-1.05681e+03  1.47316e+03        00000 
-1.22107e+03  1.49498e+03        00000 
-1.38588e+03  1.51994e+03        00000 
-1.55125e+03  1.54804e+03        00000 
 1.46537e+03  1.69037e+03        00000 
 1.29117e+03  1.66549e+03        00000 
 1.11752e+03  1.64376e+03        00000 
 9.44390e+02  1.62518e+03        00000 
 7.71777e+02  1.60975e+03        00000 
 5.99650e+02  1.59744e+03        00000 
 4.27959e+02  1.58825e+03        00000 
 2.56619e+02  1.58214e+03        00000 
 8.55120e+01  1.57910e+03        00000 
-8.55135e+01  1.57910e+03        00000 
-2.56620e+02  1.58214e+03        00000 
-4.27958e+02  1.58825e+03        00000 
-5.99648e+02  1.59744e+03        00000 
-7.71773e+02  1.60974e+03        00000 
-9.44385e+02  1.62518e+03        00000 
-1.11751e+03  1.64376e+03        00000 
-1.29117e+03  1.66550e+03        00000 
-1.46536e+03  1.69037e+03        00000 
-1.64010e+03  1.71838e+03        00000 
-3.50570e+01  2.90293e+02        00000 
-1.25839e+02  3.79959e+02        00000 
 1.54461e+03  1.87015e+03        00000 
 1.36103e+03  1.84535e+03        00000 
 1.17798e+03  1.82370e+03        00000 
 9.95468e+02  1.80521e+03        00000 
 8.13481e+02  1.78987e+03        00000 
 6.32008e+02  1.77768e+03        00000 
 4.51016e+02  1.76859e+03        00000 
 2.70426e+02  1.76258e+03        00000 
 9.01097e+01  1.75959e+03        00000 
-9.01089e+01  1.75959e+03        00000 
-2.70425e+02  1.76258e+03        00000 
-4.51014e+02  1.76859e+03        00000 
-6.32005e+02  1.77768e+03        00000 
-8.13477e+02  1.78987e+03        00000 
-9.95464e+02  1.80521e+03        00000 
-1.17798e+03  1.82370e+03        00000 
-1.36103e+03  1.84535e+03        00000 
-1.54461e+03  1.87015e+03        00000 
-1.72871e+03  1.89808e+03        00000 
 1.07774e+02  6.56223e+01        00000 
 1.99932e+02  1.04526e+02        00000 
 2.89091e+02  1.43797e+02        00000 
 3.78417e+02  1.87110e+02        00000 
 4.68305e+02  2.37207e+02        00000 
 5.58705e+02  2.95362e+02        00000 
 6.49442e+02  3.62294e+02        00000 
 7.40342e+02  4.38393e+02        00000 
 8.31254e+02  5.23862e+02        00000 
 9.22065e+02  6.18790e+02        00000 
-1.41199e+02  4.78113e+02        00000 
 1.01270e+03  7.23202e+02        00000 
 1.10311e+03  8.37092e+02        00000 
 1.19327e+03  9.60442e+02        00000 
 1.28316e+03  1.09323e+03        00000 
 1.37279e+03  1.23544e+03        00000 
 1.46216e+03  1.38705e+03        00000 
 1.55126e+03  1.54803e+03        00000 
 1.64011e+03  1.71838e+03        00000 
 1.72872e+03  1.89808e+03        00000 
 1.61321e-14 -2.96359e-15        00000 
 1.62363e+03  2.05926e+03        00000 
 1.43066e+03  2.03454e+03        00000 
 1.23822e+03  2.01296e+03        00000 
 1.04631e+03  1.99454e+03        00000 
 8.54944e+02  1.97929e+03        00000 
 6.64128e+02  1.96720e+03        00000 
 4.73859e+02  1.95824e+03        00000 
 2.84081e+02  1.95233e+03        00000 
 9.46519e+01  1.94941e+03        00000 
-9.46490e+01  1.94941e+03        00000 
-2.84078e+02  1.95233e+03        00000 
-4.73856e+02  1.95824e+03        00000 
-6.64125e+02  1.96720e+03        00000 
-8.54940e+02  1.97929e+03        00000 
-1.04631e+03  1.99454e+03        00000 
-1.23822e+03  2.01296e+03        00000 
-1.43066e+03  2.03454e+03        00000 
-1.62362e+03  2.05926e+03        00000 
-1.81710e+03  2.08713e+03        00000 
 1.70243e+03  2.25773e+03        00000 
 1.50008e+03  2.23307e+03        00000 
 1.29825e+03  2.21154e+03        00000 
 1.09694e+03  2.19316e+03        00000 
 8.96166e+02  2.17796e+03        00000 
 6.95986e+02  2.16596e+03        00000 
 4.96446e+02  2.15713e+03        00000 
 2.97539e+02  2.15136e+03        00000 
 9.91192e+01  2.14852e+03        00000 
-9.91144e+01  2.14852e+03        00000 
-2.97534e+02  2.15136e+03        00000 
-4.96442e+02  2.15712e+03        00000 
-6.95982e+02  2.16596e+03        00000 
-8.96163e+02  2.17796e+03        00000 
-1.09693e+03  2.19316e+03        00000 
-1.29824e+03  2.21154e+03        00000 
-1.50008e+03  2.23307e+03        00000 
-1.70242e+03  2.25774e+03        00000 
-1.90528e+03  2.28553e+03        00000 
 1.78101e+03  2.46559e+03        00000 
 1.56929e+03  2.44097e+03        00000 
 1.35809e+03  2.41945e+03        00000 
 1.14737e+03  2.40106e+03        00000 
 9.37169e+02  2.38585e+03        00000 
 7.27563e+02  2.37389e+03        00000 
 5.18709e+02  2.36518e+03        00000 
 3.10718e+02  2.35959e+03        00000 
 1.03474e+02  2.35690e+03        00000 
-1.03467e+02  2.35689e+03        00000 
-3.10712e+02  2.35959e+03        00000 
-5.18704e+02  2.36518e+03        00000 
-7.27559e+02  2.37389e+03        00000 
-9.37166e+02  2.38585e+03        00000 
-1.14737e+03  2.40106e+03        00000 
-1.35809e+03  2.41945e+03        00000 
-1.56929e+03  2.44097e+03        00000 
-1.78101e+03  2.46559e+03        00000 
-1.99326e+03  2.49332e+03        00000 
 1.85938e+03  2.68287e+03        00000 
 1.63832e+03  2.65828e+03        00000 
 1.41779e+03  2.63674e+03        00000 
 1.19769e+03  2.61826e+03        00000 
 9.78016e+02  2.60294e+03        00000 
 7.58865e+02  2.59091e+03        00000 
 5.40553e+02  2.58228e+03        00000 
 3.23466e+02  2.57693e+03        00000 
 1.07639e+02  2.57445e+03        00000 
-1.07630e+02  2.57445e+03        00000 
-3.23459e+02  2.57693e+03        00000 
-5.40547e+02  2.58228e+03        00000 
-7.58861e+02  2.59091e+03        00000 
-9.78013e+02  2.60294e+03        00000 
-1.19769e+03  2.61827e+03        00000 
-1.41779e+03  2.63674e+03        00000 
-1.63832e+03  2.65829e+03        00000 
-1.85938e+03  2.68287e+03        00000 
-2.08102e+03  2.71053e+03        00000 
 1.93751e+03  2.90962e+03        00000 
 1.70717e+03  2.88508e+03        00000 
 1.47739e+03  2.86350e+03        00000 
 1.24799e+03  2.84488e+03        00000 
 1.01885e+03  2.82929e+03        00000 
 7.89989e+02  2.81696e+03        00000 
 5.61880e+02  2.80823e+03        00000 
 3.35491e+02  2.80315e+03        00000 
 1.11437e+02  2.80106e+03        00000 
-1.11426e+02  2.80106e+03        00000 
-3.35483e+02  2.80315e+03        00000 
-5.61875e+02  2.80823e+03        00000 
-7.89986e+02  2.81697e+03        00000 
-1.01885e+03  2.82930e+03        00000 
-1.24799e+03  2.84488e+03        00000 
-1.47739e+03  2.86350e+03        00000 
-1.70717e+03  2.88508e+03        00000 
-1.93751e+03  2.90962e+03        00000 
-2.16853e+03  2.93720e+03        00000 
 2.01534e+03  3.14586e+03        00000 
 1.77582e+03  3.12139e+03        00000 
 1.53690e+03  3.09982e+03        00000 
 1.29835e+03  3.08109e+03        00000 
 1.05988e+03  3.06515e+03        00000 
 8.21251e+02  3.05220e+03        00000 