<?xml version="1.0" encoding="utf-8"?>
<VTKFile byte_order="LittleEndian" type="UnstructuredGrid" version="0.1">
   <UnstructuredGrid>
      <Piece NumberOfCells="19416" NumberOfPoints="11476">
         <Points>
            <DataArray Name="Points" NumberOfComponents="3" format="ascii" type="Float32">
-1.0000 -0.8947 0.0000
-1.0000 -0.7895 0.0000
-1.0000 -0.6842 0.0000
-1.0000 -0.5789 0.0000
-1.0000 -0.4737 0.0000
-1.0000 -0.3684 0.0000
-1.0000 -0.2632 0.0000
-1.0000 -0.1579 0.0000
-1.0000 -0.0526 0.0000
-1.0000 0.0526 0.0000
-1.0000 0.1579 0.0000
-1.0000 0.2632 0.0000
-1.0000 0.3684 0.0000
-1.0000 0.4737 0.0000
-1.0000 0.5789 0.0000
-1.0000 0.6842 0.0000
-1.0000 0.7895 0.0000
-1.0000 0.8947 0.0000
-1.0000 1.0000 0.0000
-0.8947 -0.8947 0.0000
-0.8947 -0.7895 0.0000
-0.8947 -0.6842 0.0000
-0.8947 -0.5789 0.0000
-0.8947 -0.4737 0.0000
-0.8947 -0.3684 0.0000
-0.8947 -0.2632 0.0000
-0.8947 -0.1579 0.0000
-0.8947 -0.0526 0.0000
-0.8947 0.0526 0.0000
-0.8947 0.1579 0.0000
-0.8947 0.2632 0.0000
-0.8947 0.3684 0.0000
-0.8947 0.4737 0.0000
-0.8947 0.5789 0.0000
-0.8947 0.6842 0.0000
-0.8947 0.7895 0.0000
-0.8947 0.8947 0.0000
-0.8947 1.0000 0.0000
-0.7895 -0.8947 0.0000
-0.7895 -0.7895 0.0000
-0.7895 -0.6842 0.0000
-0.7895 -0.5789 0.0000
-0.7895 -0.4737 0.0000
-0.7895 -0.3684 0.0000
-0.7895 -0.2632 0.0000
-0.7895 -0.1579 0.0000
-0.7895 -0.0526 0.0000
-0.7895 0.0526 0.0000
-0.7895 0.1579 0.0000
-0.7895 0.2632 0.0000
-0.7895 0.3684 0.0000
-0.7895 0.4737 0.0000
-0.7895 0.5789 0.0000
-0.7895 0.6842 0.0000
-0.7895 0.7895 0.0000
-0.7895 0.8947 0.0000
-0.7895 1.0000 0.0000
-0.6842 -0.8947 0.0000
-0.6842 -0.7895 0.0000
-0.6842 -0.6842 0.0000
-0.6842 -0.5789 0.0000
-0.6842 -0.4737 0.0000
-0.6842 -0.3684 0.0000
-0.6842 -0.2632 0.0000
-0.6842 -0.1579 0.0000
-0.6842 -0.0526 0.0000
-0.6842 0.0526 0.0000
-0.6842 0.1579 0.0000
-0.6842 0.2632 0.0000
-0.6842 0.3684 0.0000
-0.6842 0.4737 0.0000
-0.6842 0.5789 0.0000
-0.6842 0.6842 0.0000
-0.6842 0.7895 0.0000
-0.6842 0.8947 0.0000
-0.6842 1.0000 0.0000
-0.5789 -0.8947 0.0000
-0.5789 -0.7895 0.0000
-0.5789 -0.6842 0.0000
-0.5789 -0.5789 0.0000
-0.5789 -0.4737 0.0000
-0.5789 -0.3684 0.0000
-0.5789 -0.2632 0.0000
-0.5789 -0.1579 0.0000
-0.5789 -0.0526 0.0000
-0.5789 0.0526 0.0000
-0.5789 0.1579 0.0000
-0.5789 0.2632 0.0000
-0.5789 0.3684 0.0000
-0.5789 0.4737 0.0000
-0.5789 0.5789 0.0000
-0.5789 0.6842 0.0000
-0.5789 0.7895 0.0000
-0.5789 0.8947 0.0000
-0.5789 1.0000 0.0000
-0.4737 -0.8947 0.0000
-0.4737 -0.7895 0.0000
-0.4737 -0.6842 0.0000
-0.4737 -0.5789 0.0000
-0.4737 -0.4737 0.0000
-0.4737 -0.3684 0.0000
-0.4737 -0.2632 0.0000
-0.4737 -0.1579 0.0000
-0.4737 -0.0526 0.0000
-0.4737 0.0526 0.0000
-0.4737 0.1579 0.0000
-0.4737 0.2632 0.0000
-0.4737 0.3684 0.0000
-0.4737 0.4737 0.0000
-0.4737 0.5789 0.0000
-0.4737 0.6842 0.0000
-0.4737 0.7895 0.0000
-0.4737 0.8947 0.0000
-0.4737 1.0000 0.0000
-0.3684 -0.8947 0.0000
-0.3684 -0.7895 0.0000
-0.3684 -0.6842 0.0000
-0.3684 -0.5789 0.0000
-0.3684 -0.4737 0.0000
-0.3684 -0.3684 0.0000
-0.3684 -0.2632 0.0000
-0.3684 -0.1579 0.0000
-0.3684 -0.0526 0.0000
-0.3684 0.0526 0.0000
-0.3684 0.1579 0.0000
-0.3684 0.2632 0.0000
-0.3684 0.3684 0.0000
-0.3684 0.4737 0.0000
-0.3684 0.5789 0.0000
-0.3684 0.6842 0.0000
-0.3684 0.7895 0.0000
-0.3684 0.8947 0.0000
-0.3684 1.0000 0.0000
-0.2632 -0.8947 0.0000
-0.2632 -0.7895 0.0000
-0.2632 -0.6842 0.0000
-0.2632 -0.5789 0.0000
-0.2632 -0.4737 0.0000
-0.2632 -0.3684 0.0000
-0.2632 -0.2632 0.0000
-0.2632 -0.1579 0.0000
-0.2632 -0.0526 0.0000
-0.2632 0.0526 0.0000
-0.2632 0.1579 0.0000
-0.2632 0.2632 0.0000
-0.2632 0.3684 0.0000
-0.2632 0.4737 0.0000
-0.2632 0.5789 0.0000
-0.2632 0.6842 0.0000
-0.2632 0.7895 0.0000
-0.2632 0.8947 0.0000
-0.2632 1.0000 0.0000
-0.1579 -0.8947 0.0000
-0.1579 -0.7895 0.0000
-0.1579 -0.6842 0.0000
-0.1579 -0.5789 0.0000
-0.1579 -0.4737 0.0000
-0.1579 -0.3684 0.0000
-0.1579 -0.2632 0.0000
-0.1579 -0.1579 0.0000
-0.1579 -0.0526 0.0000
-0.1579 0.1579 0.0000
-0.1579 0.2632 0.0000
-0.1579 0.3684 0.0000
-0.1579 0.4737 0.0000
-0.1579 0.5789 0.0000
-0.1579 0.6842 0.0000
-0.1579 0.7895 0.0000
-0.1579 0.8947 0.0000
-0.1579 1.0000 0.0000
-0.0526 -0.8947 0.0000
-0.0526 -0.7895 0.0000
-0.0526 -0.6842 0.0000
-0.0526 -0.5789 0.0000
-0.0526 -0.4737 0.0000
-0.0526 -0.3684 0.0000
-0.0526 -0.2632 0.0000
-0.0526 -0.1579 0.0000
-0.0526 0.2632 0.0000
-0.0526 0.3684 0.0000
-0.0526 0.4737 0.0000
-0.0526 0.5789 0.0000
-0.0526 0.6842 0.0000
-0.0526 0.7895 0.0000
-0.0526 0.8947 0.0000
-0.0526 1.0000 0.0000
0.0526 -0.8947 0.0000
0.0526 -0.7895 0.0000
0.0526 -0.6842 0.0000
0.0526 -0.5789 0.0000
0.0526 -0.4737 0.0000
0.0526 -0.3684 0.0000
0.0526 -0.2632 0.0000
0.0526 -0.1579 0.0000
0.0526 0.2632 0.0000
0.0526 0.3684 0.0000
0.0526 0.4737 0.0000
0.0526 0.5789 0.0000
0.0526 0.6842 0.0000
0.0526 0.7895 0.0000
0.0526 0.8947 0.0000
0.0526 1.0000 0.0000
0.1579 -0.8947 0.0000
0.1579 -0.7895 0.0000
0.1579 -0.6842 0.0000
0.1579 -0.5789 0.0000
0.1579 -0.4737 0.0000
0.1579 -0.3684 0.0000
0.1579 -0.2632 0.0000
0.1579 -0.1579 0.0000
0.1579 -0.0526 0.0000
0.1579 0.0526 0.0000
0.1579 0.1579 0.0000
0.1579 0.2632 0.0000
0.1579 0.3684 0.0000
0.1579 0.4737 0.0000
0.1579 0.5789 0.0000
0.1579 0.6842 0.0000
0.1579 0.7895 0.0000
0.1579 0.8947 0.0000
0.1579 1.0000 0.0000
0.2632 -0.8947 0.0000
0.2632 -0.7895 0.0000
0.2632 -0.6842 0.0000
0.2632 -0.5789 0.0000
0.2632 -0.4737 0.0000
0.2632 -0.3684 0.0000
0.2632 -0.2632 0.0000
0.2632 -0.1579 0.0000
0.2632 -0.0526 0.0000
0.2632 0.0526 0.0000
0.2632 0.1579 0.0000
0.2632 0.2632 0.0000
0.2632 0.3684 0.0000
0.2632 0.4737 0.0000
0.2632 0.5789 0.0000
0.2632 0.6842 0.0000
0.2632 0.7895 0.0000
0.2632 0.8947 0.0000
0.2632 1.0000 0.0000
0.3684 -0.8947 0.0000
0.3684 -0.7895 0.0000
0.3684 -0.6842 0.0000
0.3684 -0.5789 0.0000
0.3684 -0.4737 0.0000
0.3684 -0.3684 0.0000
0.3684 -0.2632 0.0000
0.3684 -0.1579 0.0000
0.3684 -0.0526 0.0000
0.3684 0.0526 0.0000
0.3684 0.1579 0.0000
0.3684 0.2632 0.0000
0.3684 0.3684 0.0000
0.3684 0.4737 0.0000
0.3684 0.5789 0.0000
0.3684 0.6842 0.0000
0.3684 0.7895 0.0000
0.3684 0.8947 0.0000
0.3684 1.0000 0.0000
0.4737 -0.8947 0.0000
0.4737 -0.7895 0.0000
0.4737 -0.6842 0.0000
0.4737 -0.5789 0.0000
0.4737 -0.4737 0.0000
0.4737 -0.3684 0.0000
0.4737 -0.2632 0.0000
0.4737 -0.1579 0.0000
0.4737 -0.0526 0.0000
0.4737 0.0526 0.0000
0.4737 0.1579 0.0000
0.4737 0.2632 0.0000
0.4737 0.3684 0.0000
0.4737 0.4737 0.0000
0.4737 0.5789 0.0000
0.4737 0.6842 0.0000
0.4737 0.7895 0.0000
0.4737 0.8947 0.0000
0.4737 1.0000 0.0000
0.5789 -0.8947 0.0000
0.5789 -0.7895 0.0000
0.5789 -0.6842 0.0000
0.5789 -0.5789 0.0000
0.5789 -0.4737 0.0000
0.5789 -0.3684 0.0000
0.5789 -0.2632 0.0000
0.5789 -0.1579 0.0000
0.5789 -0.0526 0.0000
0.5789 0.0526 0.0000
0.5789 0.1579 0.0000
0.5789 0.2632 0.0000
0.5789 0.3684 0.0000
0.5789 0.4737 0.0000
0.5789 0.5789 0.0000
0.5789 0.6842 0.0000
0.5789 0.7895 0.0000
0.5789 0.8947 0.0000
0.5789 1.0000 0.0000
0.6842 -0.8947 0.0000
0.6842 -0.7895 0.0000
0.6842 -0.6842 0.0000
0.6842 -0.5789 0.0000
0.6842 -0.4737 0.0000
0.6842 -0.3684 0.0000
0.6842 -0.2632 0.0000
0.6842 -0.1579 0.0000
0.6842 -0.0526 0.0000
0.6842 0.0526 0.0000
0.6842 0.1579 0.0000
0.6842 0.2632 0.0000
0.6842 0.3684 0.0000
0.6842 0.4737 0.0000
0.6842 0.5789 0.0000
0.6842 0.6842 0.0000
0.6842 0.7895 0.0000
0.6842 0.8947 0.0000
0.6842 1.0000 0.0000
0.7895 -0.8947 0.0000
0.7895 -0.7895 0.0000
0.7895 -0.6842 0.0000
0.7895 -0.5789 0.0000
0.7895 -0.4737 0.0000
0.7895 -0.3684 0.0000
0.7895 -0.2632 0.0000
0.7895 -0.1579 0.0000
0.7895 -0.0526 0.0000
0.7895 0.0526 0.0000
0.7895 0.1579 0.0000
0.7895 0.2632 0.0000
0.7895 0.3684 0.0000
0.7895 0.4737 0.0000
0.7895 0.5789 0.0000
0.7895 0.6842 0.0000
0.7895 0.7895 0.0000
0.7895 0.8947 0.0000
0.7895 1.0000 0.0000
0.8947 -0.8947 0.0000
0.8947 -0.7895 0.0000
0.8947 -0.6842 0.0000
0.8947 -0.5789 0.0000
0.8947 -0.4737 0.0000
0.8947 -0.3684 0.0000
0.8947 -0.2632 0.0000
0.8947 -0.1579 0.0000
0.8947 -0.0526 0.0000
0.8947 0.0526 0.0000
0.8947 0.1579 0.0000
0.8947 0.2632 0.0000
0.8947 0.3684 0.0000
0.8947 0.4737 0.0000
0.8947 0.5789 0.0000
0.8947 0.6842 0.0000
0.8947 0.7895 0.0000
0.8947 0.8947 0.0000
0.8947 1.0000 0.0000
-0.1579 0.0526 0.0000
-0.0526 0.1579 0.0000
1.0000 -0.8947 0.0000
1.0000 -0.7895 0.0000
1.0000 -0.6842 0.0000
1.0000 -0.5789 0.0000
1.0000 -0.4737 0.0000
1.0000 -0.3684 0.0000
1.0000 -0.2632 0.0000
1.0000 -0.1579 0.0000
1.0000 -0.0526 0.0000
1.0000 0.0526 0.0000
1.0000 0.1579 0.0000
1.0000 0.2632 0.0000
1.0000 0.3684 0.0000
1.0000 0.4737 0.0000
1.0000 0.5789 0.0000
1.0000 0.6842 0.0000
1.0000 0.7895 0.0000
1.0000 0.8947 0.0000
1.0000 1.0000 0.0000
-0.8947 -1.0000 0.0000
-0.7895 -1.0000 0.0000
-0.6842 -1.0000 0.0000
-0.5789 -1.0000 0.0000
-0.4737 -1.0000 0.0000
-0.3684 -1.0000 0.0000
-0.2632 -1.0000 0.0000
-0.1579 -1.0000 0.0000
-0.0526 -1.0000 0.0000
0.0526 -1.0000 0.0000
0.0526 0.1579 0.0000
0.1579 -1.0000 0.0000
0.2632 -1.0000 0.0000
0.3684 -1.0000 0.0000
0.4737 -1.0000 0.0000
0.5789 -1.0000 0.0000
0.6842 -1.0000 0.0000
0.7895 -1.0000 0.0000
0.8947 -1.0000 0.0000
1.0000 -1.0000 0.0000
-1.0000 -1.0000 0.0000
1.1053 -0.8947 0.0000
1.1053 -0.7895 0.0000
1.1053 -0.6842 0.0000
1.1053 -0.5789 0.0000
1.1053 -0.4737 0.0000
1.1053 -0.3684 0.0000
1.1053 -0.2632 0.0000
1.1053 -0.1579 0.0000
1.1053 -0.0526 0.0000
1.1053 0.0526 0.0000
1.1053 0.1579 0.0000
1.1053 0.2632 0.0000
1.1053 0.3684 0.0000
1.1053 0.4737 0.0000
1.1053 0.5789 0.0000
1.1053 0.6842 0.0000
1.1053 0.7895 0.0000
1.1053 0.8947 0.0000
1.1053 1.0000 0.0000
1.2105 -0.8947 0.0000
1.2105 -0.7895 0.0000
1.2105 -0.6842 0.0000
1.2105 -0.5789 0.0000
1.2105 -0.4737 0.0000
1.2105 -0.3684 0.0000
1.2105 -0.2632 0.0000
1.2105 -0.1579 0.0000
1.2105 -0.0526 0.0000
1.2105 0.0526 0.0000
1.2105 0.1579 0.0000
1.2105 0.2632 0.0000
1.2105 0.3684 0.0000
1.2105 0.4737 0.0000
1.2105 0.5789 0.0000
1.2105 0.6842 0.0000
1.2105 0.7895 0.0000
1.2105 0.8947 0.0000
1.2105 1.0000 0.0000
1.3158 -0.8947 0.0000
1.3158 -0.7895 0.0000
1.3158 -0.6842 0.0000
1.3158 -0.5789 0.0000
1.3158 -0.4737 0.0000
1.3158 -0.3684 0.0000
1.3158 -0.2632 0.0000
[...]
         <PointData>
            <DataArray Name="fValues" NumberOfComponents="3" format="ascii" type="Float64">
-3.90021e-16  3.59338e-16        00000 
-4.31544e-17 -1.61829e-17        00000 
-2.53556e-16  1.38571e-17        00000 
-4.31544e-17        00000        00000 
 1.32840e-16 -4.06653e-18        00000 
 2.04984e-16 -4.31544e-17        00000 
-1.52363e-16  1.08831e-17        00000 
 1.29463e-16 -8.09146e-17        00000 
-9.48857e-18  2.30437e-17        00000 
-2.69715e-17 -1.07886e-17        00000 
-6.52985e-17 -1.19714e-16        00000 
-4.31544e-17 -2.69715e-17        00000 
 3.28033e-16  1.11830e-17        00000 
-8.19934e-16 -2.42744e-17        00000 
 7.78153e-16  9.52285e-18        00000 
-6.25739e-16  4.04573e-17        00000 
 2.82472e-16 -1.04399e-16        00000 
-6.74631e-16  2.17623e-16        00000 
 6.25361e-16 -1.68582e-16        00000 
 4.16317e+00  1.93106e+00        00000 
 3.51355e+00  1.12090e+00        00000 
 2.97411e+00  6.05772e-01        00000 
 2.48517e+00  2.44414e-01        00000 
 2.01707e+00 -1.72110e-02        00000 
 1.56025e+00 -2.06246e-01        00000 
 1.11017e+00 -3.37853e-01        00000 
 6.64389e-01 -4.21135e-01        00000 
 2.21120e-01 -4.61475e-01        00000 
-2.21295e-01 -4.61440e-01        00000 
-6.64530e-01 -4.21043e-01        00000 
-1.11026e+00 -3.37733e-01        00000 
-1.56027e+00 -2.06131e-01        00000 
-2.01704e+00 -1.71276e-02        00000 
-2.48511e+00  2.44454e-01        00000 
-2.97403e+00  6.05770e-01        00000 
-3.51346e+00  1.12086e+00        00000 
-4.16307e+00  1.93100e+00        00000 
-5.74260e+00  3.49247e+00        00000 
 8.77027e+00  4.05596e+00        00000 
 7.33889e+00  2.79261e+00        00000 
 6.19264e+00  1.88393e+00        00000 
 5.15395e+00  1.21685e+00        00000 
 4.17112e+00  7.22895e-01        00000 
 3.21950e+00  3.61540e-01        00000 
 2.28720e+00  1.08072e-01        00000 
 1.36735e+00 -5.30303e-02        00000 
 4.54817e-01 -1.31241e-01        00000 
-4.55216e-01 -1.31183e-01        00000 
-1.36766e+00 -5.28764e-02        00000 
-2.28738e+00  1.08266e-01        00000 
-3.21953e+00  3.61714e-01        00000 
-4.17104e+00  7.23004e-01        00000 
-5.15380e+00  1.21688e+00        00000 
-6.19246e+00  1.88388e+00        00000 
-7.33870e+00  2.79250e+00        00000 
-8.77004e+00  4.05580e+00        00000 
-1.06557e+01  5.55887e+00        00000 
 1.32664e+01  6.11703e+00        00000 
 1.13112e+01  4.76600e+00        00000 
 9.56453e+00  3.65434e+00        00000 
 7.95852e+00  2.78426e+00        00000 
 6.43417e+00  2.11640e+00        00000 
 4.96075e+00  1.61750e+00        00000 
 3.52069e+00  1.26328e+00        00000 
 2.10306e+00  1.03672e+00        00000 
 6.99190e-01  9.26441e-01        00000 
-6.99878e-01  9.26526e-01        00000 
-2.10358e+00  1.03693e+00        00000 
-3.52094e+00  1.26354e+00        00000 
-4.96075e+00  1.61770e+00        00000 
-6.43398e+00  2.11648e+00        00000 
-7.95824e+00  2.78422e+00        00000 
-9.56423e+00  3.65419e+00        00000 
-1.13108e+01  4.76577e+00        00000 
-1.32660e+01  6.11676e+00        00000 
-1.54112e+01  7.64424e+00        00000 
 1.76920e+01  8.41589e+00        00000 
 1.52798e+01  7.03680e+00        00000 
 1.29994e+01  5.84890e+00        00000 
 1.08395e+01  4.86861e+00        00000 
 8.76871e+00  4.08916e+00        00000 
 6.75990e+00  3.49331e+00        00000 
 4.79514e+00  3.06446e+00        00000 
 2.86247e+00  2.78849e+00        00000 
 9.51154e-01  2.65405e+00        00000 
-9.52232e-01  2.65416e+00        00000 
-2.86324e+00  2.78878e+00        00000 
-4.79544e+00  3.06477e+00        00000 
-6.75979e+00  3.49350e+00        00000 
-8.76835e+00  4.08916e+00        00000 
-1.08390e+01  4.86844e+00        00000 
-1.29989e+01  5.84860e+00        00000 
-1.52793e+01  7.03643e+00        00000 
-1.76916e+01  8.41549e+00        00000 
-2.01775e+01  9.94509e+00        00000 
 2.20851e+01  1.10744e+01        00000 
 1.92221e+01  9.68961e+00        00000 
 1.64401e+01  8.47335e+00        00000 
 1.37502e+01  7.44173e+00        00000 
 1.11404e+01  6.59903e+00        00000 
 8.59296e+00  5.94151e+00        00000 
 6.09387e+00  5.46234e+00        00000 
 3.63463e+00  5.15322e+00        00000 
 1.20660e+00  5.00341e+00        00000 
-1.20824e+00  5.00360e+00        00000 
-3.63571e+00  5.15360e+00        00000 
-6.09415e+00  5.46270e+00        00000 
-8.59260e+00  5.94160e+00        00000 
-1.11397e+01  6.59885e+00        00000 
-1.37496e+01  7.44135e+00        00000 
-1.64395e+01  8.47287e+00        00000 
-1.92216e+01  9.68908e+00        00000 
-2.20846e+01  1.10739e+01        00000 
-2.49754e+01  1.26079e+01        00000 
 2.64645e+01  1.41645e+01        00000 
 2.31396e+01  1.27799e+01        00000 
 1.98673e+01  1.15559e+01        00000 
 1.66633e+01  1.05032e+01        00000 
 1.35253e+01  9.62837e+00        00000 
 1.04421e+01  8.93365e+00        00000 
 7.40299e+00  8.42126e+00        00000 
 4.40748e+00  8.09186e+00        00000 
 1.45951e+00  7.93624e+00        00000 
-1.46198e+00  7.93635e+00        00000 
-4.40898e+00  8.09247e+00        00000 
-7.40302e+00  8.42152e+00        00000 
-1.04412e+01  8.93354e+00        00000 
-1.35243e+01  9.62782e+00        00000 
-1.66624e+01  1.05025e+01        00000 
-1.98666e+01  1.15553e+01        00000 
-2.31391e+01  1.27793e+01        00000 
-2.64641e+01  1.41639e+01        00000 
-2.98020e+01  1.57010e+01        00000 
 3.08372e+01  1.77249e+01        00000 
 2.70374e+01  1.63430e+01        00000 
 2.32757e+01  1.51200e+01        00000 
 1.95660e+01  1.40620e+01        00000 
 1.59096e+01  1.31742e+01        00000 
 1.22984e+01  1.24589e+01        00000 
 8.71718e+00  1.19184e+01        00000 
 5.16840e+00  1.15717e+01        00000 
 1.69615e+00  1.14202e+01        00000 
-1.69992e+00  1.14212e+01        00000 
-5.17033e+00  1.15715e+01        00000 
-8.71663e+00  1.19189e+01        00000 
-1.22965e+01  1.24579e+01        00000 
-1.59082e+01  1.31731e+01        00000 
-1.95650e+01  1.40611e+01        00000 
-2.32750e+01  1.51193e+01        00000 
-2.70369e+01  1.63424e+01        00000 
-3.08368e+01  1.77242e+01        00000 
-3.46480e+01  1.92628e+01        00000 
 3.52040e+01  2.17766e+01        00000 
 3.09187e+01  2.03989e+01        00000 
 2.66648e+01  1.91811e+01        00000 
 2.24527e+01  1.81267e+01        00000 
 1.82845e+01  1.72390e+01        00000 
 1.41546e+01  1.65192e+01        00000 
 1.00482e+01  1.59627e+01        00000 
 5.92022e+00  1.55651e+01        00000 
 1.87178e+00  1.54116e+01        00000 
-5.92565e+00  1.55691e+01        00000 
-1.00435e+01  1.59601e+01        00000 
-1.41524e+01  1.65169e+01        00000 
-1.82832e+01  1.72376e+01        00000 
-2.24518e+01  1.81257e+01        00000 
-2.66641e+01  1.91804e+01        00000 
-3.09182e+01  2.03983e+01        00000 
-3.52037e+01  2.17761e+01        00000 
-3.95040e+01  2.33144e+01        00000 
 3.95639e+01  2.63306e+01        00000 
 3.47850e+01  2.49577e+01        00000 
 3.00350e+01  2.37471e+01        00000 
 2.53206e+01  2.27010e+01        00000 
 2.06435e+01  2.18224e+01        00000 
 1.60003e+01  2.11139e+01        00000 
 1.13800e+01  2.05751e+01        00000 
 6.74558e+00  2.01886e+01        00000 
-1.13760e+01  2.05698e+01        00000 
-1.59986e+01  2.11121e+01        00000 
-2.06425e+01  2.18215e+01        00000 
-2.53198e+01  2.27004e+01        00000 
-3.00345e+01  2.37468e+01        00000 
-3.47846e+01  2.49574e+01        00000 
-3.95635e+01  2.63303e+01        00000 
-4.43619e+01  2.78666e+01        00000 
 4.39149e+01  3.13912e+01        00000 
 3.86373e+01  3.00235e+01        00000 
 3.33876e+01  2.88205e+01        00000 
 2.81694e+01  2.77837e+01        00000 
 2.29833e+01  2.69166e+01        00000 
 1.78264e+01  2.62238e+01        00000 
 1.26916e+01  2.57125e+01        00000 
 7.57081e+00  2.53932e+01        00000 
-1.26887e+01  2.57160e+01        00000 
-1.78248e+01  2.62248e+01        00000 
-2.29824e+01  2.69170e+01        00000 
-2.81687e+01  2.77839e+01        00000 
-3.33870e+01  2.88206e+01        00000 
-3.86368e+01  3.00236e+01        00000 
-4.39145e+01  3.13913e+01        00000 
-4.92155e+01  3.29245e+01        00000 
 4.82555e+01  3.69597e+01        00000 
 4.24760e+01  3.55970e+01        00000 
 3.67241e+01  3.44007e+01        00000 
 3.10010e+01  3.33718e+01        00000 
 2.53061e+01  3.25131e+01        00000 
 1.96366e+01  3.18277e+01        00000 
 1.39882e+01  3.13176e+01        00000 
 8.37102e+00  3.09781e+01        00000 
 2.81312e+00  3.08314e+01        00000 
-2.81366e+00  3.08340e+01        00000 
-8.37832e+00  3.09763e+01        00000 
-1.39836e+01  3.13209e+01        00000 
-1.96347e+01  3.18297e+01        00000 
-2.53049e+01  3.25143e+01        00000 
-3.10002e+01  3.33726e+01        00000 
-3.67235e+01  3.44011e+01        00000 
-4.24755e+01  3.55974e+01        00000 
-4.82552e+01  3.69600e+01        00000 
-5.40608e+01  3.84895e+01        00000 
 5.25848e+01  4.30355e+01        00000 
 4.63019e+01  4.16775e+01        00000 
 4.00465e+01  4.04867e+01        00000 
 3.38184e+01  3.94636e+01        00000 
 2.76162e+01  3.86096e+01        00000 
 2.14380e+01  3.79257e+01        00000 
 1.52834e+01  3.74113e+01        00000 
 9.15580e+00  3.70672e+01        00000 
 3.05186e+00  3.68976e+01        00000 
-3.05363e+00  3.68977e+01        00000 
-9.15825e+00  3.70675e+01        00000 
-1.52830e+01  3.74110e+01        00000 
-2.14363e+01  3.79268e+01        00000 
-2.76150e+01  3.86107e+01        00000 
-3.38174e+01  3.94645e+01        00000 
-4.00458e+01  4.04874e+01        00000 
-4.63013e+01  4.16781e+01        00000 
-5.25844e+01  4.30360e+01        00000 
-5.88952e+01  4.45615e+01        00000 
 5.69021e+01  4.96178e+01        00000 
 5.01153e+01  4.82642e+01        00000 
 4.33563e+01  4.70780e+01        00000 
 3.66238e+01  4.60593e+01        00000 
 2.99164e+01  4.52085e+01        00000 
 2.32326e+01  4.45258e+01        00000 
 1.65715e+01  4.40116e+01        00000 
 9.93203e+00  4.36669e+01        00000 
 3.30860e+00  4.34943e+01        00000 
-3.31017e+00  4.34943e+01        00000 
-9.93327e+00  4.36667e+01        00000 
-1.65716e+01  4.40115e+01        00000 
-2.32318e+01  4.45261e+01        00000 
-2.99154e+01  4.52091e+01        00000 
-3.66229e+01  4.60600e+01        00000 
-4.33556e+01  4.70787e+01        00000 
-5.01147e+01  4.82648e+01        00000 
-5.69015e+01  4.96184e+01        00000 
-6.37173e+01  5.11396e+01        00000 
 6.12068e+01  5.67055e+01        00000 
 5.39166e+01  5.53562e+01        00000 
 4.66543e+01  5.41742e+01        00000 
 3.94183e+01  5.31594e+01        00000 
 3.22070e+01  5.23118e+01        00000 
 2.50187e+01  5.16318e+01        00000 
 1.78514e+01  5.11198e+01        00000 
 1.07022e+01  5.07770e+01        00000 
 3.56553e+00  5.06051e+01        00000 
-3.56669e+00  5.06050e+01        00000 
-1.07030e+01  5.07768e+01        00000 
-1.78516e+01  5.11196e+01        00000 
-2.50183e+01  5.16318e+01        00000 
-3.22063e+01  5.23121e+01        00000 
-3.94176e+01  5.31598e+01        00000 
-4.66536e+01  5.41747e+01        00000 
-5.39159e+01  5.53568e+01        00000 
-6.12063e+01  5.67060e+01        00000 
-6.85263e+01  5.82229e+01        00000 
 6.54988e+01  6.42976e+01        00000 
 5.77057e+01  6.29526e+01        00000 
 4.99407e+01  6.17747e+01        00000 
 4.22021e+01  6.07638e+01        00000 
 3.44878e+01  5.99200e+01        00000 
 2.67958e+01  5.92434e+01        00000 
 1.91234e+01  5.87345e+01        00000 
 1.14668e+01  5.83944e+01        00000 
 3.82073e+00  5.82239e+01        00000 
-3.82155e+00  5.82238e+01        00000 
-1.14674e+01  5.83942e+01        00000 
-1.91236e+01  5.87344e+01        00000 
-2.67956e+01  5.92433e+01        00000 
-3.44874e+01  5.99201e+01        00000 
-4.22015e+01  6.07641e+01        00000 
-4.99401e+01  6.17751e+01        00000 
-5.77051e+01  6.29530e+01        00000 
-6.54983e+01  6.42981e+01        00000 
-7.33217e+01  6.58105e+01        00000 
 6.97778e+01  7.23931e+01        00000 
 6.14825e+01  7.10524e+01        00000 
 5.32157e+01  6.98788e+01        00000 
 4.49751e+01  6.88720e+01        00000 
 3.67587e+01  6.80321e+01        00000 
 2.85640e+01  6.73593e+01        00000 
 2.03878e+01  6.68540e+01        00000 
 1.22263e+01  6.65165e+01        00000 
 4.07412e+00  6.63476e+01        00000 
-4.07471e+00  6.63476e+01        00000 
-1.22267e+01  6.65164e+01        00000 
-2.03880e+01  6.68538e+01        00000 
-2.85639e+01  6.73593e+01        00000 
-3.67584e+01  6.80322e+01        00000 
-4.49747e+01  6.88721e+01        00000 
-5.32152e+01  6.98790e+01        00000 
-6.14820e+01  7.10527e+01        00000 
-6.97773e+01  7.23934e+01        00000 
-7.81031e+01  7.39013e+01        00000 
 7.40437e+01  8.09908e+01        00000 
 6.52471e+01  7.96545e+01        00000 
 5.64790e+01  7.84851e+01        00000 
 4.77373e+01  7.74826e+01        00000 
 3.90196e+01  7.66469e+01        00000 
 3.03234e+01  7.59781e+01        00000 
 2.16452e+01  7.54763e+01        00000 
 1.29811e+01  7.51416e+01        00000 
 4.32585e+00  7.49742e+01        00000 
-4.32626e+00  7.49741e+01        00000 
-1.29814e+01  7.51415e+01        00000 
-2.16454e+01  7.54762e+01        00000 
-3.03234e+01  7.59780e+01        00000 
-3.90195e+01  7.66469e+01        00000 
-4.77370e+01  7.74826e+01        00000 
-5.64786e+01  7.84852e+01        00000 
-6.52466e+01  7.96547e+01        00000 
-7.40431e+01  8.09910e+01        00000 
-8.28705e+01  8.24942e+01        00000 
 7.82963e+01  9.00894e+01        00000 
 6.89992e+01  8.87576e+01        00000 
 5.97307e+01  8.75925e+01        00000 
 5.04886e+01  8.65942e+01        00000 
 4.12706e+01  8.57628e+01        00000 
 3.20741e+01  8.50980e+01        00000 
 2.28957e+01  8.45998e+01        00000 
 1.37314e+01  8.42678e+01        00000 
 4.57600e+00  8.41019e+01        00000 
-4.57628e+00  8.41018e+01        00000 
-1.37316e+01  8.42677e+01        00000 
-2.28958e+01  8.45996e+01        00000 
-3.20741e+01  8.50979e+01        00000 
-4.12705e+01  8.57627e+01        00000 
-5.04884e+01  8.65942e+01        00000 
-5.97304e+01  8.75925e+01        00000 
-6.89988e+01  8.87576e+01        00000 
-7.82958e+01  9.00895e+01        00000 
-8.76236e+01  9.15882e+01        00000 
-1.87610e+00  1.54049e+01        00000 
-6.72689e+00  2.01786e+01        00000 
 8.25357e+01  9.96878e+01        00000 
 7.27390e+01  9.83603e+01        00000 
 6.29708e+01  9.71995e+01        00000 
 5.32291e+01  9.62054e+01        00000 
 4.35117e+01  9.53780e+01        00000 
 3.38161e+01  9.47173e+01        00000 
 2.41393e+01  9.42227e+01        00000 
 1.44771e+01  9.38936e+01        00000 
 4.82456e+00  9.37293e+01        00000 
-4.82471e+00  9.37292e+01        00000 
-1.44773e+01  9.38935e+01        00000 
-2.41393e+01  9.42225e+01        00000 
-3.38161e+01  9.47171e+01        00000 
-4.35116e+01  9.53779e+01        00000 
-5.32289e+01  9.62053e+01        00000 
-6.29705e+01  9.71994e+01        00000 
-7.27386e+01  9.83603e+01        00000 
-8.25352e+01  9.96879e+01        00000 
-9.23625e+01  1.01182e+02        00000 
 5.74276e+00  3.49257e+00        00000 
 1.06560e+01  5.55907e+00        00000 
 1.54116e+01  7.64454e+00        00000 
 2.01780e+01  9.94552e+00        00000 
 2.49759e+01  1.26085e+01        00000 
 2.98024e+01  1.57016e+01        00000 
 3.46483e+01  1.92634e+01        00000 
 3.95042e+01  2.33148e+01        00000 
 4.43620e+01  2.78669e+01        00000 
 4.92157e+01  3.29245e+01        00000 
-7.54815e+00  2.53995e+01        00000 
 5.40611e+01  3.84892e+01        00000 
 5.88956e+01  4.45610e+01        00000 
 6.37178e+01  5.11390e+01        00000 
 6.85269e+01  5.82224e+01        00000 
 7.33223e+01  6.58100e+01        00000 
 7.81038e+01  7.39010e+01        00000 
 8.28711e+01  8.24940e+01        00000 
 8.76242e+01  9.15881e+01        00000 
 9.23630e+01  1.01182e+02        00000 
 9.75054e-17  2.52693e-16        00000 
 8.67620e+01  1.09785e+02        00000 
 7.64665e+01  1.08462e+02        00000 
 6.61994e+01  1.07305e+02        00000 
 5.59588e+01  1.06314e+02        00000 
 4.57428e+01  1.05491e+02        00000 
 3.55492e+01  1.04834e+02        00000 
 2.53755e+01  1.04343e+02        00000 
 1.52180e+01  1.04017e+02        00000 
 5.07137e+00  1.03855e+02        00000 
-5.07141e+00  1.03855e+02        00000 
-1.52180e+01  1.04017e+02        00000 
-2.53755e+01  1.04343e+02        00000 
-3.55492e+01  1.04834e+02        00000 
-4.57428e+01  1.05491e+02        00000 
-5.59587e+01  1.06314e+02        00000 
-6.61992e+01  1.07305e+02        00000 
-7.64661e+01  1.08462e+02        00000 
-8.67615e+01  1.09785e+02        00000 
-9.70873e+01  1.11275e+02        00000 
 9.09753e+01  1.20380e+02        00000 
 8.01818e+01  1.19061e+02        00000 
 6.94168e+01  1.17907e+02        00000 
 5.86781e+01  1.16920e+02        00000 
 4.79640e+01  1.16100e+02        00000 
 3.72730e+01  1.15446e+02        00000 
 2.66036e+01  1.14959e+02        00000 
 1.59532e+01  1.14637e+02        00000 
 5.31613e+00  1.14477e+02        00000 
-5.31601e+00  1.14477e+02        00000 
-1.59531e+01  1.14637e+02        00000 
-2.66037e+01  1.14959e+02        00000 
-3.72730e+01  1.15446e+02        00000 
-4.79640e+01  1.16100e+02        00000 
-5.86781e+01  1.16920e+02        00000 
-6.94166e+01  1.17907e+02        00000 
-8.01815e+01  1.19061e+02        00000 
-9.09748e+01  1.20380e+02        00000 
-1.01798e+02  1.21865e+02        00000 
 9.51756e+01  1.31473e+02        00000 
 8.38854e+01  1.30157e+02        00000 
 7.26236e+01  1.29006e+02        00000 
 6.13876e+01  1.28021e+02        00000 
 5.01757e+01  1.27203e+02        00000 
 3.89871e+01  1.26552e+02        00000 
 2.78225e+01  1.26069e+02        00000 
 1.66811e+01  1.25751e+02        00000 
 5.55812e+00  1.25594e+02        00000 
-5.55779e+00  1.25594e+02        00000 
-1.66809e+01  1.25751e+02        00000 
-2.78225e+01  1.26068e+02        00000 
-3.89873e+01  1.26552e+02        00000 
-5.01759e+01  1.27202e+02        00000 
-6.13877e+01  1.28021e+02        00000 
-7.26234e+01  1.29006e+02        00000 
-8.38850e+01  1.30157e+02        00000 
-9.51751e+01  1.31472e+02        00000 
-1.06496e+02  1.32953e+02        00000 
 9.93629e+01  1.43062e+02        00000 
 8.75774e+01  1.41750e+02        00000 
 7.58206e+01  1.40602e+02        00000 
 6.40887e+01  1.39617e+02        00000 
 5.23792e+01  1.38798e+02        00000 
 4.06918e+01  1.38148e+02        00000 
 2.90301e+01  1.37668e+02        00000 
 1.73989e+01  1.37356e+02        00000 
 5.79585e+00  1.37203e+02        00000 
-5.79517e+00  1.37203e+02        00000 
-1.73986e+01  1.37355e+02        00000 
-2.90302e+01  1.37667e+02        00000 
-4.06921e+01  1.38147e+02        00000 
-5.23795e+01  1.38798e+02        00000 
-6.40889e+01  1.39617e+02        00000 
-7.58205e+01  1.40601e+02        00000 
-8.75771e+01  1.41750e+02        00000 
-9.93623e+01  1.43062e+02        00000 
-1.11180e+02  1.44539e+02        00000 
 1.03537e+02  1.55150e+02        00000 
 9.12580e+01  1.53841e+02        00000 
 7.90087e+01  1.52694e+02        00000 
 6.67834e+01  1.51709e+02        00000 
 5.45774e+01  1.50886e+02        00000 
 4.23888e+01  1.50231e+02        00000 
 3.02246e+01  1.49751e+02        00000 
 1.81005e+01  1.49446e+02        00000 
 6.02572e+00  1.49302e+02        00000 
-6.02440e+00  1.49302e+02        00000 
-1.81000e+01  1.49445e+02        00000 
-3.02249e+01  1.49750e+02        00000 
-4.23895e+01  1.50231e+02        00000 
-5.45779e+01  1.50886e+02        00000 
-6.67836e+01  1.51708e+02        00000 
-7.90086e+01  1.52694e+02        00000 
-9.12577e+01  1.53841e+02        00000 
-1.03536e+02  1.55149e+02        00000 
-1.15848e+02  1.56621e+02        00000 
 1.07696e+02  1.67734e+02        00000 
 9.49269e+01  1.66430e+02        00000 
 8.21883e+01  1.65285e+02        00000 
 6.94735e+01  1.64299e+02        00000 
 5.67748e+01  1.63471e+02        00000 
 4.40849e+01  1.62804e+02        00000 