<?xml version="1.0" encoding="utf-8"?>
<VTKFile byte_order="LittleEndian" type="UnstructuredGrid" version="0.1">
   <UnstructuredGrid>
      <Piece NumberOfCells="8" NumberOfPoints="27">
         <Points>
            <DataArray Name="Points" NumberOfComponents="3" format="ascii" type="Float32">
0.0000 0.0000 0.0000
0.0000 0.5000 0.0000
0.0000 1.0000 0.0000
0.5000 0.0000 0.0000
0.5000 0.5000 0.0000
0.5000 1.0000 0.0000
1.0000 0.0000 0.0000
1.0000 0.5000 0.0000
1.0000 1.0000 0.0000
0.0000 0.0000 0.5000
0.0000 0.5000 0.5000
0.0000 1.0000 0.5000
0.5000 0.0000 0.5000
0.5000 0.5000 0.5000
0.5000 1.0000 0.5000
1.0000 0.0000 0.5000
1.0000 0.5000 0.5000
1.0000 1.0000 0.5000
0.0000 0.0000 1.0000
0.0000 0.5000 1.0000
0.0000 1.0000 1.0000
0.5000 0.0000 1.0000
0.5000 0.5000 1.0000
0.5000 1.0000 1.0000
1.0000 0.0000 1.0000
1.0000 0.5000 1.0000
1.0000 1.0000 1.0000</DataArray>
         </Points>
         <Cells>
            <DataArray Name="connectivity" format="ascii" type="Int32">
 1 4 13 10 0 3 12 9
 2 5 14 11 1 4 13 10
 4 7 16 13 3 6 15 12
 5 8 17 14 4 7 16 13
 10 13 22 19 9 12 21 18
 11 14 23 20 10 13 22 19
 13 16 25 22 12 15 24 21
 14 17 26 23 13 16 25 22</DataArray>
            <DataArray Name="offsets" format="ascii" type="Int32">8 16 24 32 40 48 56 64 </DataArray>
            <DataArray Name="types" format="ascii" type="UInt8">12 12 12 12 12 12 12 12 </DataArray>
         </Cells>
         <PointData>
            <DataArray Name="fValues" NumberOfComponents="1" format="ascii" type="Float64">
 1.09749e-01 
 1.45310e-01 
 1.09749e-01 
 1.45310e-01 
 1.95586e-01 
 1.45310e-01 
 1.09749e-01 
 1.45310e-01 
 1.09749e-01 
 3.29657e-01 
 4.75275e-01 
 3.29657e-01 
 4.75275e-01 
 6.91968e-01 
 4.75275e-01 
 3.29657e-01 
 4.75275e-01 
 3.29657e-01 
 1.09749e-01 
 1.45310e-01 
 1.09749e-01 
 1.45310e-01 
 1.95586e-01 
 1.45310e-01 
 1.09749e-01 
 1.45310e-01 
 1.09749e-01 </DataArray>
         </PointData>
         <CellData/>
      </Piece>
   </UnstructuredGrid>
</VTKFile>