<?xml version="1.0" encoding="utf-8"?>
<VTKFile byte_order="LittleEndian" type="UnstructuredGrid" version="0.1">
   <UnstructuredGrid>
      <Piece NumberOfCells="10800" NumberOfPoints="11278">
         <Points>
            <DataArray Name="Points" NumberOfComponents="3" format="ascii" type="Float32">
0.0707 0.0707 0.0000
0.1327 0.1327 0.0000
0.1946 0.1946 0.0000
0.2566 0.2566 0.0000
0.3185 0.3185 0.0000
0.3805 0.3805 0.0000
0.4424 0.4424 0.0000
0.5044 0.5044 0.0000
0.5663 0.5663 0.0000
0.6283 0.6283 0.0000
0.6902 0.6902 0.0000
0.7522 0.7522 0.0000
0.8141 0.8141 0.0000
0.8761 0.8761 0.0000
0.9380 0.9380 0.0000
1.0000 1.0000 0.0000
0.0640 0.0768 0.0000
0.1153 0.1384 0.0000
0.1666 0.1999 0.0000
0.2179 0.2615 0.0000
0.2692 0.3230 0.0000
0.3205 0.3845 0.0000
0.3717 0.4461 0.0000
0.4230 0.5076 0.0000
0.4743 0.5692 0.0000
0.5256 0.6307 0.0000
0.5769 0.6923 0.0000
0.6282 0.7538 0.0000
0.6795 0.8154 0.0000
0.7308 0.8769 0.0000
0.7820 0.9385 0.0000
0.8333 1.0000 0.0000
0.0555 0.0832 0.0000
0.0962 0.1443 0.0000
0.1370 0.2054 0.0000
0.1777 0.2666 0.0000
0.2185 0.3277 0.0000
0.2592 0.3888 0.0000
0.2999 0.4499 0.0000
0.3407 0.5110 0.0000
0.3814 0.5722 0.0000
0.4222 0.6333 0.0000
0.4629 0.6944 0.0000
0.5037 0.7555 0.0000
0.5444 0.8166 0.0000
0.5852 0.8778 0.0000
0.6259 0.9389 0.0000
0.6667 1.0000 0.0000
0.0447 0.0894 0.0000
0.0751 0.1501 0.0000
0.1054 0.2109 0.0000
0.1358 0.2716 0.0000
0.1661 0.3323 0.0000
0.1965 0.3930 0.0000
0.2268 0.4537 0.0000
0.2572 0.5144 0.0000
0.2875 0.5751 0.0000
0.3179 0.6358 0.0000
0.3482 0.6965 0.0000
0.3786 0.7572 0.0000
0.4089 0.8179 0.0000
0.4393 0.8786 0.0000
0.4696 0.9393 0.0000
0.5000 1.0000 0.0000
0.0316 0.0949 0.0000
0.0517 0.1552 0.0000
0.0719 0.2156 0.0000
0.0920 0.2759 0.0000
0.1121 0.3362 0.0000
0.1322 0.3966 0.0000
0.1523 0.4569 0.0000
0.1724 0.5173 0.0000
0.1925 0.5776 0.0000
0.2126 0.6379 0.0000
0.2328 0.6983 0.0000
0.2529 0.7586 0.0000
0.2730 0.8190 0.0000
0.2931 0.8793 0.0000
0.3132 0.9397 0.0000
0.3333 1.0000 0.0000
0.0164 0.0986 0.0000
0.0265 0.1587 0.0000
0.0365 0.2188 0.0000
0.0465 0.2789 0.0000
0.0565 0.3390 0.0000
0.0665 0.3991 0.0000
0.0765 0.4592 0.0000
0.0865 0.5193 0.0000
0.0966 0.5794 0.0000
0.1066 0.6395 0.0000
0.1166 0.6995 0.0000
0.1266 0.7596 0.0000
0.1366 0.8197 0.0000
0.1466 0.8798 0.0000
0.1567 0.9399 0.0000
0.1667 1.0000 0.0000
0.0000 0.1000 0.0000
0.0000 0.1600 0.0000
0.0000 0.2200 0.0000
0.0000 0.2800 0.0000
0.0000 0.3400 0.0000
0.0000 0.4000 0.0000
0.0000 0.4600 0.0000
0.0000 0.5200 0.0000
0.0000 0.5800 0.0000
0.0000 0.6400 0.0000
0.0000 0.7000 0.0000
0.0000 0.7600 0.0000
0.0000 0.8200 0.0000
0.0000 0.8800 0.0000
0.0000 0.9400 0.0000
0.0000 1.0000 0.0000
-0.0164 0.0986 0.0000
-0.0265 0.1587 0.0000
-0.0365 0.2188 0.0000
-0.0465 0.2789 0.0000
-0.0565 0.3390 0.0000
-0.0665 0.3991 0.0000
-0.0765 0.4592 0.0000
-0.0865 0.5193 0.0000
-0.0966 0.5794 0.0000
-0.1066 0.6395 0.0000
-0.1166 0.6995 0.0000
-0.1266 0.7596 0.0000
-0.1366 0.8197 0.0000
-0.1466 0.8798 0.0000
-0.1567 0.9399 0.0000
-0.1667 1.0000 0.0000
-0.0316 0.0949 0.0000
-0.0517 0.1552 0.0000
-0.0719 0.2156 0.0000
-0.0920 0.2759 0.0000
-0.1121 0.3362 0.0000
-0.1322 0.3966 0.0000
-0.1523 0.4569 0.0000
-0.1724 0.5173 0.0000
-0.1925 0.5776 0.0000
-0.2126 0.6379 0.0000
-0.2328 0.6983 0.0000
-0.2529 0.7586 0.0000
-0.2730 0.8190 0.0000
-0.2931 0.8793 0.0000
-0.3132 0.9397 0.0000
-0.3333 1.0000 0.0000
-0.0447 0.0894 0.0000
-0.0751 0.1501 0.0000
-0.1054 0.2109 0.0000
-0.1358 0.2716 0.0000
-0.1661 0.3323 0.0000
-0.1965 0.3930 0.0000
-0.2268 0.4537 0.0000
-0.2572 0.5144 0.0000
-0.2875 0.5751 0.0000
-0.3179 0.6358 0.0000
-0.3482 0.6965 0.0000
-0.3786 0.7572 0.0000
-0.4089 0.8179 0.0000
-0.4393 0.8786 0.0000
-0.4696 0.9393 0.0000
-0.5000 1.0000 0.0000
-0.0555 0.0832 0.0000
-0.0962 0.1443 0.0000
-0.1370 0.2054 0.0000
-0.1777 0.2666 0.0000
-0.2185 0.3277 0.0000
-0.2592 0.3888 0.0000
-0.2999 0.4499 0.0000
-0.3407 0.5110 0.0000
-0.3814 0.5722 0.0000
-0.4222 0.6333 0.0000
-0.4629 0.6944 0.0000
-0.5037 0.7555 0.0000
-0.5444 0.8166 0.0000
-0.5852 0.8778 0.0000
-0.6259 0.9389 0.0000
-0.6667 1.0000 0.0000
-0.0640 0.0768 0.0000
-0.1153 0.1384 0.0000
-0.1666 0.1999 0.0000
-0.2179 0.2615 0.0000
-0.2692 0.3230 0.0000
-0.3205 0.3845 0.0000
-0.3717 0.4461 0.0000
-0.4230 0.5076 0.0000
-0.4743 0.5692 0.0000
-0.5256 0.6307 0.0000
-0.5769 0.6923 0.0000
-0.6282 0.7538 0.0000
-0.6795 0.8154 0.0000
-0.7308 0.8769 0.0000
-0.7820 0.9385 0.0000
-0.8333 1.0000 0.0000
-0.0707 0.0707 0.0000
-0.1327 0.1327 0.0000
-0.1946 0.1946 0.0000
-0.2566 0.2566 0.0000
-0.3185 0.3185 0.0000
-0.3805 0.3805 0.0000
-0.4424 0.4424 0.0000
-0.5044 0.5044 0.0000
-0.5663 0.5663 0.0000
-0.6283 0.6283 0.0000
-0.6902 0.6902 0.0000
-0.7522 0.7522 0.0000
-0.8141 0.8141 0.0000
-0.8761 0.8761 0.0000
-0.9380 0.9380 0.0000
-1.0000 1.0000 0.0000
-0.0768 0.0640 0.0000
-0.1384 0.1153 0.0000
-0.1999 0.1666 0.0000
-0.2615 0.2179 0.0000
-0.3230 0.2692 0.0000
-0.3845 0.3205 0.0000
-0.4461 0.3717 0.0000
-0.5076 0.4230 0.0000
-0.5692 0.4743 0.0000
-0.6307 0.5256 0.0000
-0.6923 0.5769 0.0000
-0.7538 0.6282 0.0000
-0.8154 0.6795 0.0000
-0.8769 0.7308 0.0000
-0.9385 0.7820 0.0000
-1.0000 0.8333 0.0000
-0.0832 0.0555 0.0000
-0.1443 0.0962 0.0000
-0.2054 0.1370 0.0000
-0.2666 0.1777 0.0000
-0.3277 0.2185 0.0000
-0.3888 0.2592 0.0000
-0.4499 0.2999 0.0000
-0.5110 0.3407 0.0000
-0.5722 0.3814 0.0000
-0.6333 0.4222 0.0000
-0.6944 0.4629 0.0000
-0.7555 0.5037 0.0000
-0.8166 0.5444 0.0000
-0.8778 0.5852 0.0000
-0.9389 0.6259 0.0000
-1.0000 0.6667 0.0000
-0.0894 0.0447 0.0000
-0.1501 0.0751 0.0000
-0.2109 0.1054 0.0000
-0.2716 0.1358 0.0000
-0.3323 0.1661 0.0000
-0.3930 0.1965 0.0000
-0.4537 0.2268 0.0000
-0.5144 0.2572 0.0000
-0.5751 0.2875 0.0000
-0.6358 0.3179 0.0000
-0.6965 0.3482 0.0000
-0.7572 0.3786 0.0000
-0.8179 0.4089 0.0000
-0.8786 0.4393 0.0000
-0.9393 0.4696 0.0000
-1.0000 0.5000 0.0000
-0.0949 0.0316 0.0000
-0.1552 0.0517 0.0000
-0.2156 0.0719 0.0000
-0.2759 0.0920 0.0000
-0.3362 0.1121 0.0000
-0.3966 0.1322 0.0000
-0.4569 0.1523 0.0000
-0.5173 0.1724 0.0000
-0.5776 0.1925 0.0000
-0.6379 0.2126 0.0000
-0.6983 0.2328 0.0000
-0.7586 0.2529 0.0000
-0.8190 0.2730 0.0000
-0.8793 0.2931 0.0000
-0.9397 0.3132 0.0000
-1.0000 0.3333 0.0000
-0.0986 0.0164 0.0000
-0.1587 0.0265 0.0000
-0.2188 0.0365 0.0000
-0.2789 0.0465 0.0000
-0.3390 0.0565 0.0000
-0.3991 0.0665 0.0000
-0.4592 0.0765 0.0000
-0.5193 0.0865 0.0000
-0.5794 0.0966 0.0000
-0.6395 0.1066 0.0000
-0.6995 0.1166 0.0000
-0.7596 0.1266 0.0000
-0.8197 0.1366 0.0000
-0.8798 0.1466 0.0000
-0.9399 0.1567 0.0000
-1.0000 0.1667 0.0000
-0.1000 0.0000 0.0000
-0.1600 0.0000 0.0000
-0.2200 0.0000 0.0000
-0.2800 0.0000 0.0000
-0.3400 0.0000 0.0000
-0.4000 0.0000 0.0000
-0.4600 0.0000 0.0000
-0.5200 0.0000 0.0000
-0.5800 0.0000 0.0000
-0.6400 0.0000 0.0000
-0.7000 0.0000 0.0000
-0.7600 0.0000 0.0000
-0.8200 0.0000 0.0000
-0.8800 0.0000 0.0000
-0.9400 0.0000 0.0000
-1.0000 0.0000 0.0000
-0.0986 -0.0164 0.0000
-0.1587 -0.0265 0.0000
-0.2188 -0.0365 0.0000
-0.2789 -0.0465 0.0000
-0.3390 -0.0565 0.0000
-0.3991 -0.0665 0.0000
-0.4592 -0.0765 0.0000
-0.5193 -0.0865 0.0000
-0.5794 -0.0966 0.0000
-0.6395 -0.1066 0.0000
-0.6995 -0.1166 0.0000
-0.7596 -0.1266 0.0000
-0.8197 -0.1366 0.0000
-0.8798 -0.1466 0.0000
-0.9399 -0.1567 0.0000
-1.0000 -0.1667 0.0000
-0.0949 -0.0316 0.0000
-0.1552 -0.0517 0.0000
-0.2156 -0.0719 0.0000
-0.2759 -0.0920 0.0000
-0.3362 -0.1121 0.0000
-0.3966 -0.1322 0.0000
-0.4569 -0.1523 0.0000
-0.5173 -0.1724 0.0000
-0.5776 -0.1925 0.0000
-0.6379 -0.2126 0.0000
-0.6983 -0.2328 0.0000
-0.7586 -0.2529 0.0000
-0.8190 -0.2730 0.0000
-0.8793 -0.2931 0.0000
-0.9397 -0.3132 0.0000
-1.0000 -0.3333 0.0000
-0.0894 -0.0447 0.0000
-0.1501 -0.0751 0.0000
-0.2109 -0.1054 0.0000
-0.2716 -0.1358 0.0000
-0.3323 -0.1661 0.0000
-0.3930 -0.1965 0.0000
-0.4537 -0.2268 0.0000
-0.5144 -0.2572 0.0000
-0.5751 -0.2875 0.0000
-0.6358 -0.3179 0.0000
-0.6965 -0.3482 0.0000
-0.7572 -0.3786 0.0000
-0.8179 -0.4089 0.0000
-0.8786 -0.4393 0.0000
-0.9393 -0.4696 0.0000
-1.0000 -0.5000 0.0000
-0.0832 -0.0555 0.0000
-0.1443 -0.0962 0.0000
-0.2054 -0.1370 0.0000
-0.2666 -0.1777 0.0000
-0.3277 -0.2185 0.0000
-0.3888 -0.2592 0.0000
-0.4499 -0.2999 0.0000
-0.5110 -0.3407 0.0000
-0.5722 -0.3814 0.0000
-0.6333 -0.4222 0.0000
-0.6944 -0.4629 0.0000
-0.7555 -0.5037 0.0000
-0.8166 -0.5444 0.0000
-0.8778 -0.5852 0.0000
-0.9389 -0.6259 0.0000
-1.0000 -0.6667 0.0000
-0.0768 -0.0640 0.0000
-0.1384 -0.1153 0.0000
-0.1999 -0.1666 0.0000
-0.2615 -0.2179 0.0000
-0.3230 -0.2692 0.0000
-0.3845 -0.3205 0.0000
-0.4461 -0.3717 0.0000
-0.5076 -0.4230 0.0000
-0.5692 -0.4743 0.0000
-0.6307 -0.5256 0.0000
-0.6923 -0.5769 0.0000
-0.7538 -0.6282 0.0000
-0.8154 -0.6795 0.0000
-0.8769 -0.7308 0.0000
-0.9385 -0.7820 0.0000
-1.0000 -0.8333 0.0000
-0.0707 -0.0707 0.0000
-0.1327 -0.1327 0.0000
-0.1946 -0.1946 0.0000
-0.2566 -0.2566 0.0000
-0.3185 -0.3185 0.0000
-0.3805 -0.3805 0.0000
-0.4424 -0.4424 0.0000
-0.5044 -0.5044 0.0000
-0.5663 -0.5663 0.0000
-0.6283 -0.6283 0.0000
-0.6902 -0.6902 0.0000
-0.7522 -0.7522 0.0000
-0.8141 -0.8141 0.0000
-0.8761 -0.8761 0.0000
-0.9380 -0.9380 0.0000
-1.0000 -1.0000 0.0000
-0.0640 -0.0768 0.0000
-0.1153 -0.1384 0.0000
-0.1666 -0.1999 0.0000
-0.2179 -0.2615 0.0000
-0.2692 -0.3230 0.0000
-0.3205 -0.3845 0.0000
-0.3717 -0.4461 0.0000
-0.4230 -0.5076 0.0000
-0.4743 -0.5692 0.0000
-0.5256 -0.6307 0.0000
-0.5769 -0.6923 0.0000
-0.6282 -0.7538 0.0000
-0.6795 -0.8154 0.0000
-0.7308 -0.8769 0.0000
-0.7820 -0.9385 0.0000
-0.8333 -1.0000 0.0000
-0.0555 -0.0832 0.0000
-0.0962 -0.1443 0.0000
-0.1370 -0.2054 0.0000
-0.1777 -0.2666 0.0000
-0.2185 -0.3277 0.0000
-0.2592 -0.3888 0.0000
-0.2999 -0.4499 0.0000
-0.3407 -0.5110 0.0000
-0.3814 -0.5722 0.0000
-0.4222 -0.6333 0.0000
-0.4629 -0.6944 0.0000
-0.5037 -0.7555 0.0000
-0.5444 -0.8166 0.0000
-0.5852 -0.8778 0.0000
-0.6259 -0.9389 0.0000
-0.6667 -1.0000 0.0000
-0.0447 -0.0894 0.0000
-0.0751 -0.1501 0.0000
-0.1054 -0.2109 0.0000
-0.1358 -0.2716 0.0000
-0.1661 -0.3323 0.0000
-0.1965 -0.3930 0.0000
-0.2268 -0.4537 0.0000
[...]
         <PointData>
            <DataArray Name="fValues" NumberOfComponents="3" format="ascii" type="Float64">
 3.95597e+01  3.22196e+01        00000 
 3.74680e+01  3.47053e+01        00000 
 3.70716e+01  3.64241e+01        00000 
 3.69393e+01  3.82480e+01        00000 
 3.68414e+01  4.01759e+01        00000 
 3.66980e+01  4.22027e+01        00000 
 3.64743e+01  4.43229e+01        00000 
 3.61522e+01  4.65319e+01        00000 
 3.57194e+01  4.88256e+01        00000 
 3.51627e+01  5.12004e+01        00000 
 3.44612e+01  5.36540e+01        00000 
 3.35737e+01  5.61889e+01        00000 
 3.24138e+01  5.88189e+01        00000 
 3.07989e+01  6.15810e+01        00000 
 2.83484e+01  6.45496e+01        00000 
 2.42975e+01  6.78068e+01        00000 
 3.88952e+01  3.16885e+01        00000 
 3.65304e+01  3.36826e+01        00000 
 3.59065e+01  3.51031e+01        00000 
 3.55562e+01  3.65131e+01        00000 
 3.52491e+01  3.80032e+01        00000 
 3.49143e+01  3.95639e+01        00000 
 3.45187e+01  4.11927e+01        00000 
 3.40449e+01  4.28865e+01        00000 
 3.34804e+01  4.46418e+01        00000 
 3.28132e+01  4.64549e+01        00000 
 3.20281e+01  4.83218e+01        00000 
 3.11034e+01  5.02403e+01        00000 
 3.00091e+01  5.22134e+01        00000 
 2.87132e+01  5.42595e+01        00000 
 2.72287e+01  5.64318e+01        00000 
 2.58419e+01  5.88462e+01        00000 
 3.80505e+01  3.10273e+01        00000 
 3.54829e+01  3.25057e+01        00000 
 3.46380e+01  3.36050e+01        00000 
 3.40835e+01  3.46556e+01        00000 
 3.35812e+01  3.57383e+01        00000 
 3.30656e+01  3.68680e+01        00000 
 3.25087e+01  3.80443e+01        00000 
 3.18949e+01  3.92669e+01        00000 
 3.12143e+01  4.05355e+01        00000 
 3.04592e+01  4.18499e+01        00000 
 2.96227e+01  4.32110e+01        00000 
 2.86997e+01  4.46221e+01        00000 
 2.76903e+01  4.60898e+01        00000 
 2.66085e+01  4.76255e+01        00000 
 2.54951e+01  4.92408e+01        00000 
 2.43990e+01  5.09225e+01        00000 
 3.70064e+01  3.02343e+01        00000 
 3.43366e+01  3.11565e+01        00000 
 3.32953e+01  3.19314e+01        00000 
 3.25432e+01  3.26491e+01        00000 
 3.18552e+01  3.33641e+01        00000 
 3.11682e+01  3.40988e+01        00000 
 3.04581e+01  3.48610e+01        00000 
 2.97129e+01  3.56537e+01        00000 
 2.89253e+01  3.64791e+01        00000 
 2.80912e+01  3.73392e+01        00000 
 2.72087e+01  3.82364e+01        00000 
 2.62787e+01  3.91736e+01        00000 
 2.53062e+01  4.01543e+01        00000 
 2.43009e+01  4.11806e+01        00000 
 2.32741e+01  4.22517e+01        00000 
 2.22417e+01  4.33645e+01        00000 
 3.57623e+01  2.93316e+01        00000 
 3.31360e+01  2.96656e+01        00000 
 3.19285e+01  3.01204e+01        00000 
 3.09861e+01  3.05220e+01        00000 
 3.01150e+01  3.08984e+01        00000 
 2.92601e+01  3.12722e+01        00000 
 2.84007e+01  3.16561e+01        00000 
 2.75273e+01  3.20569e+01        00000 
 2.66352e+01  3.24789e+01        00000 
 2.57221e+01  3.29252e+01        00000 
 2.47876e+01  3.33983e+01        00000 
 2.38330e+01  3.39000e+01        00000 
 2.28612e+01  3.44312e+01        00000 
 2.18758e+01  3.49920e+01        00000 
 2.08810e+01  3.55810e+01        00000 
 1.98793e+01  3.61953e+01        00000 
 3.43537e+01  2.83745e+01        00000 
 3.19477e+01  2.81368e+01        00000 
 3.06029e+01  2.82756e+01        00000 
 2.94742e+01  2.83694e+01        00000 
 2.84177e+01  2.84232e+01        00000 
 2.73918e+01  2.84592e+01        00000 
 2.63805e+01  2.84926e+01        00000 
 2.53768e+01  2.85329e+01        00000 
 2.43769e+01  2.85860e+01        00000 
 2.33792e+01  2.86558e+01        00000 
 2.23831e+01  2.87445e+01        00000 
 2.13890e+01  2.88533e+01        00000 
 2.03972e+01  2.89827e+01        00000 
 1.94087e+01  2.91322e+01        00000 
 1.84235e+01  2.93006e+01        00000 
 1.74415e+01  2.94866e+01        00000 
 3.28608e+01  2.74460e+01        00000 
 3.08285e+01  2.67310e+01        00000 
 2.93652e+01  2.65556e+01        00000 
 2.80481e+01  2.63375e+01        00000 
 2.67996e+01  2.60701e+01        00000 
 2.55955e+01  2.57770e+01        00000 
 2.44257e+01  2.54755e+01        00000 
 2.32850e+01  2.51768e+01        00000 
 2.21707e+01  2.48879e+01        00000 
 2.10807e+01  2.46127e+01        00000 
 2.00138e+01  2.43536e+01        00000 
 1.89688e+01  2.41118e+01        00000 
 1.79447e+01  2.38872e+01        00000 
 1.69402e+01  2.36792e+01        00000 
 1.59538e+01  2.34869e+01        00000 
 1.49840e+01  2.33087e+01        00000 
 3.13940e+01  2.66325e+01        00000 
 2.97964e+01  2.55918e+01        00000 
 2.82139e+01  2.50996e+01        00000 
 2.67003e+01  2.45535e+01        00000 
 2.52513e+01  2.39538e+01        00000 
 2.38614e+01  2.33288e+01        00000 
 2.25261e+01  2.26982e+01        00000 
 2.12423e+01  2.20740e+01        00000 
 2.00071e+01  2.14634e+01        00000 
 1.88185e+01  2.08705e+01        00000 
 1.76743e+01  2.02976e+01        00000 
 1.65721e+01  1.97457e+01        00000 
 1.55095e+01  1.92149e+01        00000 
 1.44838e+01  1.87045e+01        00000 
 1.34919e+01  1.82135e+01        00000 
 1.25310e+01  1.77403e+01        00000 
 3.00576e+01  2.59900e+01        00000 
 2.88381e+01  2.47676e+01        00000 
 2.71140e+01  2.39491e+01        00000 
 2.53919e+01  2.30523e+01        00000 
 2.37354e+01  2.21045e+01        00000 
 2.21548e+01  2.11417e+01        00000 
 2.06502e+01  2.01855e+01        00000 
 1.92193e+01  1.92481e+01        00000 
 1.78600e+01  1.83361e+01        00000 
 1.65699e+01  1.74532e+01        00000 
 1.53464e+01  1.66017e+01        00000 
 1.41864e+01  1.57827e+01        00000 
 1.30865e+01  1.49967e+01        00000 
 1.20427e+01  1.42435e+01        00000 
 1.10500e+01  1.35228e+01        00000 
 1.01042e+01  1.28330e+01        00000 
 2.89172e+01  2.55278e+01        00000 
 2.79397e+01  2.42077e+01        00000 
 2.60380e+01  2.30451e+01        00000 
 2.40950e+01  2.17755e+01        00000 
 2.22271e+01  2.04680e+01        00000 
 2.04541e+01  1.91677e+01        00000 
 1.87786e+01  1.78960e+01        00000 
 1.71994e+01  1.66635e+01        00000 
 1.57151e+01  1.54759e+01        00000 
 1.43234e+01  1.43365e+01        00000 
 1.30223e+01  1.32472e+01        00000 
 1.18091e+01  1.22097e+01        00000 
 1.06803e+01  1.12254e+01        00000 
 9.63134e+00  1.02958e+01        00000 
 8.65670e+00  9.42219e+00        00000 
 7.74625e+00  8.60685e+00        00000 
 2.79918e+01  2.52179e+01        00000 
 2.71019e+01  2.38209e+01        00000 
 2.49832e+01  2.22894e+01        00000 
 2.28107e+01  2.06296e+01        00000 
 2.07302e+01  1.89629e+01        00000 
 1.87637e+01  1.73368e+01        00000 
 1.69160e+01  1.57686e+01        00000 
 1.51877e+01  1.42676e+01        00000 
 1.35779e+01  1.28386e+01        00000 
 1.20855e+01  1.14840e+01        00000 
 1.07098e+01  1.02053e+01        00000 
 9.45103e+00  9.00447e+00        00000 
 8.30920e+00  7.88524e+00        00000 
 7.28188e+00  6.85402e+00        00000 
 6.36116e+00  5.91969e+00        00000 
 5.54758e+00  5.08663e+00        00000 
 2.72683e+01  2.50176e+01        00000 
 2.63301e+01  2.35309e+01        00000 
 2.39610e+01  2.15945e+01        00000 
 2.15576e+01  1.95392e+01        00000 
 1.92618e+01  1.75297e+01        00000 
 1.70986e+01  1.55971e+01        00000 
 1.50772e+01  1.37592e+01        00000 
 1.31988e+01  1.20241e+01        00000 
 1.14626e+01  1.03955e+01        00000 
 9.86840e+00  8.87445e+00        00000 
 8.41847e+00  7.46115e+00        00000 
 7.11944e+00  6.15601e+00        00000 
 5.98446e+00  4.96238e+00        00000 
 5.03312e+00  3.89179e+00        00000 
 4.27844e+00  2.97491e+00        00000 
 3.65031e+00  2.28130e+00        00000 
 2.67200e+01  2.48867e+01        00000 
 2.56215e+01  2.32934e+01        00000 
 2.29882e+01  2.08948e+01        00000 
 2.03516e+01  1.84733e+01        00000 
 1.78335e+01  1.61370e+01        00000 
 1.54712e+01  1.39229e+01        00000 
 1.32743e+01  1.18474e+01        00000 
 1.12442e+01  9.91829e+00        00000 
 9.37927e+00  8.13853e+00        00000 
 7.67874e+00  6.50818e+00        00000 
 6.14602e+00  5.02540e+00        00000 
 4.79469e+00  3.68764e+00        00000 
 3.66046e+00  2.49420e+00        00000 
 2.82696e+00  1.45376e+00        00000 
 2.48417e+00  6.06733e-01        00000 
 3.07431e+00  9.78734e-02        00000 
 2.61594e+01  2.47641e+01        00000 
 2.52339e+01  2.34252e+01        00000 
 2.29696e+01  2.10907e+01        00000 
 2.05263e+01  1.87137e+01        00000 
 1.81534e+01  1.64122e+01        00000 
 1.58891e+01  1.42194e+01        00000 
 1.37514e+01  1.21528e+01        00000 
 1.17459e+01  1.02215e+01        00000 
 9.87238e+00  8.43081e+00        00000 
 8.12783e+00  6.78353e+00        00000 
 6.50729e+00  5.28112e+00        00000 
 5.00422e+00  3.92422e+00        00000 
 3.61047e+00  2.71357e+00        00000 
 2.31638e+00  1.65094e+00        00000 
 1.11286e+00  7.41160e-01        00000 
-7.82963e-17  1.56593e-16        00000 
 2.55435e+01  2.46812e+01        00000 
 2.47680e+01  2.35540e+01        00000 
 2.28210e+01  2.13099e+01        00000 
 2.06187e+01  1.89822e+01        00000 
 1.84033e+01  1.67178e+01        00000 
 1.62501e+01  1.45505e+01        00000 
 1.41835e+01  1.24958e+01        00000 
 1.22150e+01  1.05639e+01        00000 
 1.03490e+01  8.76160e+00        00000 
 8.58583e+00  7.09351e+00        00000 
 6.92341e+00  5.56275e+00        00000 
 5.35853e+00  4.17117e+00        00000 
 3.88737e+00  2.91963e+00        00000 
 2.50603e+00  1.80814e+00        00000 
 1.21101e+00  8.35809e-01        00000 
-2.93935e-16  7.34837e-17        00000 
 2.49186e+01  2.46565e+01        00000 
 2.42408e+01  2.36735e+01        00000 
 2.25850e+01  2.15224e+01        00000 
 2.06291e+01  1.92603e+01        00000 
 1.85914e+01  1.70414e+01        00000 
 1.65603e+01  1.49055e+01        00000 
 1.45743e+01  1.28679e+01        00000 
 1.26515e+01  1.09387e+01        00000 
 1.08016e+01  9.12560e+00        00000 
 9.02890e+00  7.43453e+00        00000 
 7.33484e+00  5.87007e+00        00000 
 5.71890e+00  4.43521e+00        00000 
 4.17951e+00  3.13140e+00        00000 
 2.71461e+00  1.95856e+00        00000 
 1.32212e+00  9.15351e-01        00000 
-8.47896e-17  6.35922e-17        00000 
 2.43635e+01  2.47205e+01        00000 
 2.37264e+01  2.37640e+01        00000 
 2.23424e+01  2.17004e+01        00000 
 2.06237e+01  1.95170e+01        00000 
 1.87665e+01  1.73589e+01        00000 
 1.68636e+01  1.52658e+01        00000 
 1.49621e+01  1.32540e+01        00000 
 1.30878e+01  1.13335e+01        00000 
 1.12557e+01  9.51261e+00        00000 
 9.47472e+00  7.79856e+00        00000 
 7.75001e+00  6.19752e+00        00000 
 6.08393e+00  4.71437e+00        00000 
 4.47700e+00  3.35244e+00        00000 
 2.92843e+00  2.11324e+00        00000 
 1.43667e+00  9.96450e-01        00000 
-7.11709e-17  5.79995e-17        00000 
 2.39828e+01  2.49071e+01        00000 
 2.33693e+01  2.38138e+01        00000 
 2.22339e+01  2.18284e+01        00000 
 2.07317e+01  1.97351e+01        00000 
 1.90415e+01  1.76539e+01        00000 
 1.72583e+01  1.56188e+01        00000 
 1.54347e+01  1.36451e+01        00000 
 1.36019e+01  1.17425e+01        00000 
 1.17800e+01  9.91952e+00        00000 
 9.98199e+00  8.18443e+00        00000 
 8.21672e+00  6.54512e+00        00000 
 6.48983e+00  5.00898e+00        00000 
 4.80443e+00  3.58248e+00        00000 
 3.16161e+00  2.27062e+00        00000 
 1.56077e+00  1.07639e+00        00000 
-1.11829e-16  4.00976e-16        00000 
 2.38751e+01  2.52374e+01        00000 
 2.33469e+01  2.38499e+01        00000 
 2.24309e+01  2.19332e+01        00000 
 2.11123e+01  1.99401e+01        00000 
 1.95612e+01  1.79497e+01        00000 
 1.78753e+01  1.59870e+01        00000 
 1.61110e+01  1.40643e+01        00000 
 1.43027e+01  1.21902e+01        00000 
 1.24733e+01  1.03725e+01        00000 
 1.06392e+01  8.61955e+00        00000 
 8.81221e+00  6.94033e+00        00000 
 7.00110e+00  5.34470e+00        00000 
 5.21195e+00  3.84296e+00        00000 
 3.44837e+00  2.44541e+00        00000 
 1.71147e+00  1.16164e+00        00000 
 7.41430e-16  2.22429e-16        00000 
 2.40877e+01  2.57039e+01        00000 
 2.37716e+01  2.39443e+01        00000 
 2.30444e+01  2.20925e+01        00000 
 2.18687e+01  2.02058e+01        00000 
 2.04215e+01  1.83151e+01        00000 
 1.88049e+01  1.64351e+01        00000 
 1.70765e+01  1.45742e+01        00000 
 1.52717e+01  1.27388e+01        00000 
 1.34138e+01  1.09347e+01        00000 
 1.15201e+01  9.16838e+00        00000 
 9.60414e+00  7.44815e+00        00000 
 7.67699e+00  5.78462e+00        00000 
 5.74764e+00  4.19103e+00        00000 
 3.82277e+00  2.68322e+00        00000 
 1.90662e+00  1.27958e+00        00000 
-1.00444e-15 -2.55870e-16        00000 
 2.45882e+01  2.62687e+01        00000 
 2.46145e+01  2.41705e+01        00000 
 2.40479e+01  2.23888e+01        00000 
 2.29773e+01  2.06106e+01        00000 
 2.16037e+01  1.88225e+01        00000 
 2.00346e+01  1.70304e+01        00000 
 1.83272e+01  1.52401e+01        00000 
 1.65137e+01  1.34548e+01        00000 
 1.46147e+01  1.16765e+01        00000 
 1.26453e+01  9.90718e+00        00000 
 1.06180e+01  8.15049e+00        00000 
 8.54455e+00  6.41334e+00        00000 
 6.43626e+00  4.70782e+00        00000 
 4.30383e+00  3.05254e+00        00000 
 2.15590e+00  1.47216e+00        00000 
 1.72936e-15  7.29291e-16        00000 
 2.52824e+01  2.68776e+01        00000 
 2.57312e+01  2.45506e+01        00000 
 2.53015e+01  2.28522e+01        00000 
 2.43089e+01  2.11816e+01        00000 
 2.29938e+01  1.94946e+01        00000 
 2.14692e+01  1.77943e+01        00000 
 1.97869e+01  1.60854e+01        00000 
 1.79724e+01  1.43679e+01        00000 
 1.60402e+01  1.26382e+01        00000 
 1.39993e+01  1.08908e+01        00000 
 1.18569e+01  9.11927e+00        00000 
 9.62082e+00  7.31860e+00        00000 
 7.30149e+00  5.48832e+00        00000 
 4.91369e+00  3.63819e+00        00000 
 2.47593e+00  1.79648e+00        00000 
-2.14032e-15  4.09339e-17        00000 
 2.60589e+01  2.74801e+01        00000 
 2.69579e+01  2.50513e+01        00000 
 2.66428e+01  2.34531e+01        00000 
 2.57133e+01  2.18862e+01        00000 
 2.44637e+01  2.02978e+01        00000 
 2.30033e+01  1.86974e+01        00000 
 2.13724e+01  1.70883e+01        00000 
 1.95893e+01  1.54672e+01        00000 
 1.76606e+01  1.38257e+01        00000 
 1.55858e+01  1.21497e+01        00000 
 1.33605e+01  1.04195e+01        00000 
 1.09787e+01  8.60837e+00        00000 
 8.43617e+00  6.68370e+00        00000 
 5.73583e+00  4.60908e+00        00000 
 2.89977e+00  2.35815e+00        00000 
 2.05754e-15 -1.02877e-15        00000 
 2.68272e+01  2.80381e+01        00000 
 2.81816e+01  2.56196e+01        00000 
 2.79471e+01  2.41349e+01        00000 
 2.70842e+01  2.26620e+01        00000 
 2.59323e+01  2.11768e+01        00000 
 2.45710e+01  1.96921e+01        00000 
 2.30370e+01  1.82090e+01        00000 
 2.13439e+01  1.67249e+01        00000 
 1.94925e+01  1.52306e+01        00000 
 1.74737e+01  1.37093e+01        00000 
 1.52679e+01  1.21328e+01        00000 
 1.28438e+01  1.04556e+01        00000 
 1.01554e+01  8.60389e+00        00000 
 7.14463e+00  6.45525e+00        00000 
 3.75575e+00  3.77957e+00        00000 
-1.26347e-15  2.19001e-15        00000 
 2.75304e+01  2.85265e+01        00000 
 2.93521e+01  2.62173e+01        00000 
 2.91306e+01  2.48355e+01        00000 
 2.83876e+01  2.34553e+01        00000 
 2.73659e+01  2.20873e+01        00000 
 2.61497e+01  2.07381e+01        00000 
 2.47763e+01  1.94133e+01        00000 
 2.32660e+01  1.81157e+01        00000 
 2.16367e+01  1.68451e+01        00000 
 1.99153e+01  1.55973e+01        00000 
 1.81598e+01  1.43597e+01        00000 
 1.65019e+01  1.30996e+01        00000 
 1.52385e+01  1.17377e+01        00000 
 1.50202e+01  1.00860e+01        00000 
 1.72516e+01  7.70367e+00        00000 
 2.49770e+01  3.54208e+00        00000 
 2.82114e+01  2.90724e+01        00000 
 3.03844e+01  2.72262e+01        00000 
 3.05180e+01  2.60878e+01        00000 
 3.01848e+01  2.50551e+01        00000 
 2.96285e+01  2.40385e+01        00000 
 2.89274e+01  2.30524e+01        00000 
 2.81225e+01  2.21029e+01        00000 
 2.72410e+01  2.11973e+01        00000 
 2.63102e+01  2.03443e+01        00000 
 2.53659e+01  1.95534e+01        00000 
 2.44638e+01  1.88332e+01        00000 
 2.36944e+01  1.81844e+01        00000 
 2.32018e+01  1.75830e+01        00000 
 2.31933e+01  1.69420e+01        00000 
 2.38767e+01  1.60309e+01        00000 
 2.50287e+01  1.43348e+01        00000 
 2.90939e+01  2.97550e+01        00000 
 3.15476e+01  2.84026e+01        00000 
 3.20354e+01  2.75411e+01        00000 
 3.20995e+01  2.68128e+01        00000 
 3.19920e+01  2.61354e+01        00000 
 3.17872e+01  2.54966e+01        00000 
 3.15232e+01  2.49006e+01        00000 
 3.12280e+01  2.43517e+01        00000 
 3.09280e+01  2.38551e+01        00000 
 3.06528e+01  2.34159e+01        00000 
 3.04381e+01  2.30363e+01        00000 
 3.03260e+01  2.27121e+01        00000 
 3.03588e+01  2.24258e+01        00000 
 3.05620e+01  2.21391e+01        00000 
 3.09151e+01  2.17918e+01        00000 
 3.14015e+01  2.13373e+01        00000 
 3.02021e+01  3.05755e+01        00000 
 3.28325e+01  2.97674e+01        00000 
 3.36554e+01  2.91956e+01        00000 
 3.41125e+01  2.87591e+01        00000 
 3.44418e+01  2.83992e+01        00000 
 3.47151e+01  2.80931e+01        00000 
 3.49660e+01  2.78342e+01        00000 
 3.52185e+01  2.76210e+01        00000 
 3.54933e+01  2.74527e+01        00000 
 3.58101e+01  2.73278e+01        00000 
 3.61871e+01  2.72425e+01        00000 
 3.66386e+01  2.71893e+01        00000 
 3.71704e+01  2.71565e+01        00000 
 3.77743e+01  2.71298e+01        00000 
 3.84245e+01  2.70952e+01        00000 
 3.90505e+01  2.70359e+01        00000 
 3.15384e+01  3.15079e+01        00000 
 3.41915e+01  3.12878e+01        00000 
 3.53247e+01  3.10131e+01        00000 
 3.61703e+01  3.08673e+01        00000 
 3.69314e+01  3.08155e+01        00000 
 3.76703e+01  3.08314e+01        00000 
 3.84155e+01  3.09008e+01        00000 
 3.91854e+01  3.10150e+01        00000 
 3.99941e+01  3.11677e+01        00000 
 4.08533e+01  3.13531e+01        00000 
 4.17710e+01  3.15649e+01        00000 
 4.27508e+01  3.17962e+01        00000 
 4.37908e+01  3.20400e+01        00000 
 4.48825e+01  3.22906e+01        00000 
 4.60103e+01  3.25451e+01        00000 
 4.71592e+01  3.28092e+01        00000 
 3.30625e+01  3.24906e+01        00000 
 3.55493e+01  3.28506e+01        00000 
 3.69684e+01  3.28842e+01        00000 
 3.81997e+01  3.30398e+01        00000 
 3.93920e+01  3.33026e+01        00000 
 4.05911e+01  3.36446e+01        00000 
 4.18179e+01  3.40460e+01        00000 
 4.30851e+01  3.44932e+01        00000 
 4.44015e+01  3.49759e+01        00000 
 4.57736e+01  3.54859e+01        00000 
 4.72050e+01  3.60160e+01        00000 
 4.86970e+01  3.65607e+01        00000 
 5.02482e+01  3.71159e+01        00000 
 5.18557e+01  3.76792e+01        00000 
 5.35166e+01  3.82510e+01        00000 
 5.52293e+01  3.88328e+01        00000 
 3.46798e+01  3.34330e+01        00000 
 3.68380e+01  3.42820e+01        00000 
 3.85250e+01  3.46419e+01        00000 
 4.01429e+01  3.51249e+01        00000 
 4.17683e+01  3.57266e+01        00000 
 4.34262e+01  3.64161e+01        00000 
 4.51284e+01  3.71700e+01        00000 
 4.68818e+01  3.79714e+01        00000 
 4.86908e+01  3.88078e+01        00000 
 5.05588e+01  3.96694e+01        00000 
 5.24881e+01  4.05487e+01        00000 
 5.44805e+01  4.14405e+01        00000 
 5.65371e+01  4.23415e+01        00000 
 5.86590e+01  4.32503e+01        00000 
 6.08474e+01  4.41670e+01        00000 
 6.31038e+01  4.50923e+01        00000 
 3.62607e+01  3.42450e+01        00000 