<?xml version="1.0" encoding="utf-8"?>
<VTKFile byte_order="LittleEndian" type="UnstructuredGrid" version="0.1">
   <UnstructuredGrid>
      <Piece NumberOfCells="22575" NumberOfPoints="5680">
         <Points>
            <DataArray Name="Points" NumberOfComponents="3" format="ascii" type="Float32">
588.3500 14.6040 -19.0000
589.2300 14.8530 -19.0000
588.3500 14.6040 -17.8940
587.1900 14.6040 -19.0000
588.8900 15.7820 -19.0000
587.7700 15.8060 -19.0000
589.8300 15.4720 -19.0000
589.5800 15.1310 -17.7170
587.1600 14.6040 -17.3250
588.3500 14.6040 -16.7560
589.1100 16.7540 -19.0000
586.5300 15.9810 -19.0000
587.3500 16.3300 -17.6910
590.0500 16.3040 -19.0000
585.8600 14.6040 -19.0000
587.6000 15.6510 -16.7900
590.0500 16.3040 -17.9940
587.7700 17.2040 -19.0000
589.4100 17.1230 -18.0600
587.2800 14.6040 -16.2900
588.8200 16.8550 -17.1670
589.5800 15.1300 -16.3720
590.0500 17.2040 -19.0000
589.1100 17.6540 -19.0000
590.0500 16.3040 -16.9530
588.3500 14.6040 -15.5870
586.0600 16.7830 -17.5030
585.1100 16.1620 -19.0000
585.4500 14.6040 -16.7960
585.8600 17.3880 -19.0000
588.6600 16.5850 -15.8330
588.3700 18.4710 -19.0000
590.0500 18.1040 -19.0000
588.7300 18.0870 -17.2190
590.0500 16.3040 -15.8850
589.6800 15.2480 -15.3360
587.4400 16.1470 -15.4480
584.3600 14.6040 -19.0000
590.0500 18.1040 -17.9940
584.5900 15.4910 -17.7390
587.1000 14.6040 -14.9870
587.0700 18.6350 -19.0000
587.4200 17.9370 -16.5600
585.8800 17.9820 -17.8690
590.0500 18.1040 -16.9530
585.8900 16.4000 -15.7140
589.6800 18.9880 -19.0000
588.3500 14.6040 -14.3870
588.5200 18.3060 -16.1320
588.7900 16.4380 -14.6320
587.9500 19.3540 -19.0000
588.8000 19.3540 -19.0000
587.4800 15.7620 -14.4030
590.0500 16.3040 -14.7870
587.9500 19.3540 -17.9940
588.8000 19.3540 -17.9940
589.5600 19.0950 -17.4630
590.0500 18.1040 -15.8850
589.6600 15.2240 -14.2240
583.6100 16.1750 -19.0000
588.7400 17.7780 -15.0280
587.9500 19.3540 -16.9530
588.8000 19.3540 -16.9530
587.2200 14.6040 -13.8960
585.2600 18.8540 -19.0000
587.0900 19.7670 -19.0000
585.2800 18.3210 -16.6350
589.2500 17.3810 -14.3760
582.8500 14.6040 -19.0000
585.2900 14.6040 -14.4280
588.7400 15.9560 -13.6650
583.2400 14.6040 -16.7960
587.9500 20.1790 -19.0000
588.8000 20.1790 -19.0000
587.0000 19.9040 -17.6470
583.5200 16.9710 -17.3040
587.9500 20.1790 -17.9940
588.8000 20.1790 -17.9940
583.4500 17.4910 -19.0000
587.9500 19.3540 -15.8850
588.8000 19.3540 -15.8850
590.0500 18.1040 -14.7870
586.9800 19.6290 -16.5970
588.3500 14.6040 -13.1550
590.0500 16.3040 -13.6600
585.7500 15.9480 -13.8850
587.9500 20.1790 -16.9530
588.8000 20.1790 -16.9530
587.5300 15.8520 -13.1910
586.6800 18.1770 -14.4610
588.3100 17.9860 -13.9800
589.6400 15.2000 -13.0810
589.6800 20.5450 -19.0000
589.5300 19.1150 -15.0010
585.8500 20.3140 -19.0000
586.9600 19.6290 -15.5190
582.1800 15.9950 -19.0000
583.7500 16.2770 -14.9690
587.9500 19.3540 -14.7870
588.8000 19.3540 -14.7870
587.9500 20.1790 -15.8850
588.8000 20.1790 -15.8850
588.2600 21.0210 -19.0000
589.7900 20.6680 -17.4630
587.0700 20.8990 -19.0000
589.2600 17.4930 -13.2760
585.3000 20.0350 -16.9540
590.0500 18.1040 -13.6600
587.0300 14.6040 -12.5230
587.3100 21.1830 -17.5310
581.5100 14.6040 -19.0000
586.9100 20.8320 -16.4780
590.0500 16.3040 -12.5030
586.9500 19.6290 -14.4110
587.9500 20.1790 -14.7870
588.8000 20.1790 -14.7870
581.5300 14.6040 -17.3250
590.0500 21.4290 -19.0000
589.1300 21.4590 -17.4700
590.0500 21.4290 -17.9940
588.3500 14.6040 -11.8900
583.2000 14.6040 -14.0590
585.4800 19.8910 -15.1570
588.4200 21.2620 -16.3780
587.9500 19.3540 -13.6600
588.5100 18.3280 -12.8890
588.8000 19.3540 -13.6600
582.8400 19.2190 -19.0000
587.0300 18.4680 -13.0170
589.7500 15.3380 -11.8990
587.4600 15.8660 -11.8850
581.4400 16.7070 -17.8780
588.9400 16.2950 -11.9060
590.0500 21.4290 -16.9530
588.8900 21.9850 -19.0000
586.8900 20.8370 -15.2750
589.8100 20.6940 -15.0010
581.4100 14.6040 -16.2900
580.9300 15.8130 -19.0000
581.2000 15.6110 -16.8400
588.4700 21.1010 -15.1300
590.0500 18.1040 -12.5030
583.3200 19.8440 -16.7060
585.4000 21.6770 -19.0000
590.0500 21.4290 -15.8850
582.1800 18.9750 -17.5200
581.1300 17.2930 -19.0000
587.9500 20.1790 -13.6600
588.8000 20.1790 -13.6600
585.1600 19.0710 -13.5110
585.1300 14.6040 -11.9330
583.4400 20.6790 -19.0000
587.1800 22.3380 -19.0000
581.6200 18.6350 -19.0000
581.5900 14.6040 -14.9870
587.0000 14.6040 -11.2410
589.0300 21.9820 -16.2900
581.9800 18.4060 -16.0770
580.3500 14.6040 -19.0000
587.3000 22.4050 -17.3790
587.3700 18.1540 -11.8460
590.0500 16.3040 -11.3150
587.9500 19.3540 -12.5030
588.8000 19.3540 -12.5030
581.1200 15.7880 -15.6220
580.3500 14.6040 -17.8940
583.4100 19.1650 -14.4780
590.0500 22.5420 -19.0000
588.5100 18.3120 -11.7110
590.0500 21.4290 -14.7870
586.9300 19.9040 -12.8890
589.1800 21.8310 -15.1860
590.0500 22.5090 -17.4740
588.5100 21.1890 -14.0360
580.3500 14.6040 -16.7560
583.9000 21.4320 -17.1740
581.9600 19.7870 -17.5550
590.0500 22.4030 -16.5280
589.6000 15.1520 -10.7050
588.3500 14.6040 -10.5920
581.6000 19.7670 -19.0000
581.6300 14.6040 -13.7710
585.5400 18.2010 -11.7750
587.9500 20.1790 -12.5030
588.8000 20.1790 -12.5030
590.0500 18.1040 -11.3150
580.5600 18.0000 -17.2180
580.3500 14.6040 -15.5870
581.2500 16.2020 -14.1660
586.9800 21.6270 -13.9170
579.7000 16.1510 -19.0000
579.8700 16.2440 -17.3030
582.1300 20.7670 -18.0270
590.0500 21.4290 -13.6600
587.3100 17.8760 -10.8250
579.4600 14.8550 -19.0000
580.3200 18.4710 -19.0000
582.3100 14.6040 -12.4360
581.7100 19.9040 -16.2410
590.0500 22.5690 -15.3360
580.7500 19.3540 -19.0000
588.2300 21.2050 -12.8890
588.6200 15.9700 -10.1020
586.3400 14.6040 -10.2210
580.7500 19.3540 -17.9940
588.9300 23.2170 -16.3790
587.9500 19.3540 -11.3150
588.8000 19.3540 -11.3150
586.9100 19.6910 -11.6570
581.6100 18.4250 -14.2860
583.0100 21.0780 -15.4980
587.0600 22.9620 -15.5510
582.8700 21.9390 -19.0000
581.7300 19.6290 -15.1530
580.7500 19.3540 -16.9530
581.6200 20.8990 -19.0000
590.0500 16.3040 -10.0960
580.3500 14.6040 -14.3870
588.9000 22.1720 -13.6930
588.5800 23.8670 -19.0000
588.5100 18.2950 -10.5020
579.5800 17.6540 -19.0000
590.0500 22.4560 -14.3380
588.8200 22.9590 -14.8760
579.1100 15.1320 -17.7170
579.7500 16.3170 -15.7900
581.8600 17.8880 -13.1100
580.2200 18.2080 -16.0740
579.6200 17.7390 -17.4720
580.7500 20.1790 -19.0000
580.7500 20.1790 -17.9940
590.0500 23.9300 -19.0000
580.7500 19.3540 -15.8850
587.9500 20.1790 -11.3150
588.8000 20.1790 -11.3150
578.8600 15.4790 -19.0000
590.0500 21.4290 -12.5030
585.9900 23.8900 -19.0000
582.9400 16.3940 -11.2900
583.2900 19.3800 -12.3950
583.6500 14.6040 -10.6360
579.1200 15.1300 -16.3720
589.5700 15.1280 -9.4706
584.4300 23.3360 -17.8930
580.7500 20.1790 -16.9530
579.9000 19.3540 -19.0000
590.0500 18.1040 -10.0960
586.7800 21.2460 -12.0610
588.3500 14.6040 -9.2609
579.9000 19.3540 -17.9940
581.7400 19.9040 -14.0360
590.0500 24.0770 -16.9900
578.6500 16.3040 -19.0000
587.2000 16.2570 -9.3533
581.2700 21.0490 -16.6050
579.8500 17.7860 -15.0650
578.6500 16.3040 -17.9940
580.7500 19.3540 -14.7870
579.9000 19.3540 -16.9530
580.3500 14.6040 -13.1550
588.5600 21.0650 -11.4690
580.7500 20.1790 -15.8850
586.9000 19.6290 -10.5020
588.9800 22.1910 -12.5380
578.6500 17.2040 -19.0000
579.0100 15.2480 -15.3360
578.6500 16.3040 -16.9530
580.1800 18.3440 -14.4110
587.9500 19.3540 -10.0960
588.8000 19.3540 -10.0960
590.0500 22.6310 -13.0810
579.9000 20.1790 -19.0000
579.9000 20.1790 -17.9940
579.8200 15.8430 -13.5780
579.9000 19.3540 -15.8850
581.6900 14.6040 -11.2410
584.9600 14.6040 -9.3048
580.3200 21.0620 -19.0000
579.0100 18.9880 -19.0000
578.6500 18.1040 -19.0000
580.7500 20.1790 -14.7870
579.9000 20.1790 -16.9530
578.6500 16.3040 -15.8850
578.6500 18.1040 -17.9940
584.2400 21.7730 -12.7450
585.1500 19.8740 -10.6250
588.5100 18.2780 -9.2621
590.0500 21.4290 -11.3150
580.7500 19.3540 -13.6600
590.0500 16.3040 -8.8452
578.9100 18.8650 -17.4630
579.0300 15.2240 -14.2240
581.9900 22.8370 -17.5970
587.9500 20.1790 -10.0960
578.6500 18.1040 -16.9530
588.8000 20.1790 -10.0960
586.9300 14.6040 -8.5781
586.7000 18.2920 -9.2794
586.8100 20.8600 -10.6380
579.9000 19.3540 -14.7870
581.2600 22.4680 -19.0000
580.5900 21.1460 -15.9680
579.9000 20.1790 -15.8850
579.4200 17.4600 -14.0380
581.3000 21.0820 -14.4200
590.0500 24.2230 -14.8250
583.5800 23.3610 -15.2510
590.0500 22.5120 -12.0290
581.4600 19.8310 -12.7150
580.3500 14.6040 -11.8900
578.6500 16.3040 -14.7870
580.1600 21.3900 -17.6770
580.6500 15.8760 -11.5920
578.6500 18.1040 -15.8850
588.8400 22.2120 -11.3500
580.7500 20.1790 -13.6600
580.1800 18.3280 -12.8890
589.5500 15.1040 -8.2037
590.0500 18.1040 -8.8452
588.7300 16.3800 -8.2037
579.9000 20.1790 -14.7870
588.3800 21.7200 -10.6560
588.6900 23.8520 -13.0870
587.6100 24.8780 -15.1330
588.4300 25.4370 -17.0420
579.1400 20.4380 -17.4630
579.0500 15.2000 -13.0810
586.8800 19.6290 -9.2621
579.0100 20.5450 -19.0000
579.9000 19.3540 -13.6600
580.7500 19.3540 -12.5030
582.3100 23.8880 -19.0000
582.3700 14.6040 -9.6504
588.3500 14.6040 -7.8952
578.8900 18.8390 -15.0010
578.6500 18.1040 -14.7870
590.0500 25.6570 -19.0000
581.6800 21.3550 -13.0470
578.6500 16.3040 -13.6600
587.9500 19.3540 -8.8452
588.8000 19.3540 -8.8452
579.8500 22.0090 -19.0000
579.9300 21.1300 -15.2240
590.0500 21.4290 -10.0960
580.4600 18.3120 -11.7110
579.5900 16.5670 -11.9950
579.8700 21.9770 -16.9190
583.5600 20.3570 -10.3570
579.9000 20.1790 -13.6600
580.7500 20.1790 -12.5030
581.5600 17.9100 -10.3570
587.2700 18.1880 -8.1325
585.0200 16.6050 -8.1812
581.7900 19.6290 -10.9090
579.1600 20.4180 -15.0010
587.9500 20.1790 -8.8452
588.8000 20.1790 -8.8452
580.3500 14.6040 -10.5920
578.6500 18.1040 -13.6600
579.9000 19.3540 -12.5030
590.0500 16.3040 -7.5623
590.0500 22.6950 -10.7050
588.5700 22.0730 -9.9193
588.5100 21.2550 -9.2621
578.6500 16.3040 -12.5030
578.9500 15.3380 -11.8990
580.7500 19.3540 -11.3150
590.0500 24.3740 -12.5420
579.9400 22.4190 -16.0600
578.6500 21.4290 -19.0000
586.2800 14.6040 -7.2992
578.6500 21.4290 -17.9940
586.8000 23.0130 -10.7100
[...]
         <PointData>
            <DataArray Name="displacement" NumberOfComponents="3" format="ascii" type="Float64">
 1.38011e+06 -3.73101e+06  1.32077e+07 
 1.54180e+06 -3.76829e+06  1.37703e+07 
 9.16377e+05 -3.19751e+06  1.25704e+07 
 1.04842e+06 -3.56205e+06  1.26195e+07 
 1.42669e+06 -3.47999e+06  1.27733e+07 
 1.18973e+06 -3.42864e+06  1.22370e+07 
 1.72841e+06 -3.61960e+06  1.38277e+07 
 1.04235e+06 -3.14720e+06  1.27962e+07 
 6.56075e+05 -2.95840e+06  1.19790e+07 
 7.26123e+05 -2.91569e+06  1.21038e+07 
 1.50484e+06 -3.33723e+06  1.25998e+07 
 9.22179e+05 -3.37262e+06  1.17860e+07 
 7.99741e+05 -2.94396e+06  1.15260e+07 
 1.76307e+06 -3.44815e+06  1.34045e+07 
 7.39938e+05 -3.40727e+06  1.21569e+07 
 6.60802e+05 -2.75502e+06  1.15836e+07 
 1.23272e+06 -3.08465e+06  1.27498e+07 
 1.15318e+06 -3.29024e+06  1.16604e+07 
 1.12383e+06 -2.97833e+06  1.22232e+07 
 5.72680e+05 -2.73100e+06  1.16777e+07 
 8.19237e+05 -2.75579e+06  1.17083e+07 
 8.43959e+05 -2.76702e+06  1.20904e+07 
 1.73432e+06 -3.27637e+06  1.31830e+07 
 1.47760e+06 -3.19462e+06  1.22604e+07 
 1.01824e+06 -2.77114e+06  1.21321e+07 
 6.09510e+05 -2.60229e+06  1.16696e+07 
 6.16922e+05 -2.82315e+06  1.10695e+07 
 6.12085e+05 -3.31318e+06  1.14666e+07 
 4.72876e+05 -2.78673e+06  1.15124e+07 
 7.86278e+05 -3.24360e+06  1.11738e+07 
 6.77131e+05 -2.44075e+06  1.12931e+07 
 1.30294e+06 -3.14782e+06  1.17400e+07 
 1.81287e+06 -3.04348e+06  1.30841e+07 
 8.07317e+05 -2.67483e+06  1.13470e+07 
 8.54101e+05 -2.48174e+06  1.15996e+07 
 7.81604e+05 -2.48842e+06  1.16092e+07 
 5.67686e+05 -2.38123e+06  1.10661e+07 
 4.61170e+05 -3.34417e+06  1.20516e+07 
 1.22861e+06 -2.79993e+06  1.22374e+07 
 4.80154e+05 -2.94354e+06  1.14104e+07 
 4.98663e+05 -2.43456e+06  1.12852e+07 
 9.59879e+05 -3.20673e+06  1.11153e+07 
 5.84038e+05 -2.51581e+06  1.08193e+07 
 5.97979e+05 -2.85437e+06  1.07805e+07 
 9.90268e+05 -2.53980e+06  1.16720e+07 
 4.98662e+05 -2.41044e+06  1.08402e+07 
 1.48232e+06 -2.94714e+06  1.24113e+07 
 6.04967e+05 -2.33344e+06  1.12533e+07 
 6.68758e+05 -2.36523e+06  1.08786e+07 
 6.48346e+05 -2.17937e+06  1.09512e+07 
 1.14128e+06 -3.09513e+06  1.14690e+07 
 1.38468e+06 -2.78218e+06  1.23058e+07 
 5.26479e+05 -2.18969e+06  1.08857e+07 
 7.99668e+05 -2.23352e+06  1.11741e+07 
 8.00699e+05 -2.83588e+06  1.10007e+07 
 9.43635e+05 -2.75324e+06  1.14864e+07 
 9.56925e+05 -2.53744e+06  1.15731e+07 
 8.25192e+05 -2.28377e+06  1.11791e+07 
 7.41422e+05 -2.23562e+06  1.11796e+07 
 3.23726e+05 -3.28531e+06  1.14865e+07 
 6.32700e+05 -2.13159e+06  1.07422e+07 
 6.41937e+05 -2.50072e+06  1.06618e+07 
 7.52983e+05 -2.43072e+06  1.10230e+07 
 5.05075e+05 -2.19804e+06  1.09796e+07 
 5.91440e+05 -3.17591e+06  1.06212e+07 
 8.74939e+05 -3.15581e+06  1.07991e+07 
 4.84428e+05 -2.48595e+06  1.04320e+07 
 6.81908e+05 -2.02695e+06  1.06922e+07 
 1.94347e+05 -3.36008e+06  1.20795e+07 
 4.07093e+05 -2.25073e+06  1.09539e+07 
 6.31383e+05 -2.02407e+06  1.07558e+07 
 3.53537e+05 -2.75876e+06  1.14812e+07 
 9.84999e+05 -3.20854e+06  1.10710e+07 
 1.15255e+06 -3.43900e+06  1.17248e+07 
 6.01557e+05 -2.69377e+06  1.03735e+07 
 3.87081e+05 -2.73706e+06  1.08356e+07 
 7.17359e+05 -2.75330e+06  1.06478e+07 
 8.06497e+05 -2.75403e+06  1.09279e+07 
 3.23890e+05 -3.23202e+06  1.09617e+07 
 5.69167e+05 -2.21590e+06  1.03641e+07 
 6.30835e+05 -2.19270e+06  1.05677e+07 
 7.67327e+05 -2.02225e+06  1.07489e+07 
 5.43165e+05 -2.38463e+06  1.02436e+07 
 5.91447e+05 -2.05942e+06  1.08488e+07 
 7.64153e+05 -1.98925e+06  1.07649e+07 
 4.28837e+05 -2.01906e+06  1.05730e+07 
 5.98458e+05 -2.42554e+06  1.02916e+07 
 6.79544e+05 -2.40227e+06  1.04440e+07 
 5.30357e+05 -1.92538e+06  1.05429e+07 
 4.85150e+05 -1.98188e+06  1.01757e+07 
 5.82592e+05 -1.88830e+06  1.03403e+07 
 7.18469e+05 -1.98837e+06  1.07793e+07 
 1.16426e+06 -3.21498e+06  1.14323e+07 
 6.84368e+05 -1.97623e+06  1.04908e+07 
 6.30338e+05 -3.07752e+06  1.02121e+07 
 5.07499e+05 -2.10168e+06  1.00272e+07 
 4.11245e+04 -3.29588e+06  1.16511e+07 
 3.57888e+05 -2.19992e+06  1.06145e+07 
 5.60119e+05 -1.94287e+06  1.00898e+07 
 6.19409e+05 -1.93029e+06  1.02691e+07 
 5.54051e+05 -2.11403e+06  9.98865e+06 
 6.16207e+05 -2.08171e+06  1.00283e+07 
 9.26890e+05 -3.10419e+06  1.05325e+07 
 8.40467e+05 -2.50440e+06  1.06371e+07 
 7.76343e+05 -3.08520e+06  1.03234e+07 
 6.70372e+05 -1.79927e+06  1.03373e+07 
 4.89344e+05 -2.44844e+06  9.98743e+06 
 7.44626e+05 -1.80741e+06  1.03728e+07 
 4.78181e+05 -1.92588e+06  1.05895e+07 
 5.86541e+05 -2.51856e+06  9.89727e+06 
-9.90900e+04 -3.48785e+06  1.24291e+07 
 5.10668e+05 -2.23388e+06  9.76358e+06 
 7.44689e+05 -1.76678e+06  1.03979e+07 
 4.90801e+05 -1.85149e+06  9.79275e+06 
 5.46045e+05 -1.87072e+06  9.73833e+06 
 5.95051e+05 -1.84013e+06  9.72808e+06 
 1.81558e+05 -2.89022e+06  1.18085e+07 
 1.27394e+06 -3.14001e+06  1.11901e+07 
 7.12389e+05 -2.40020e+06  1.00910e+07 
 9.00952e+05 -2.59442e+06  1.05666e+07 
 5.91230e+05 -1.82716e+06  1.04703e+07 
 3.14515e+05 -2.16730e+06  1.08320e+07 
 4.39115e+05 -1.98421e+06  9.75168e+06 
 5.63441e+05 -2.11379e+06  9.75047e+06 
 5.46429e+05 -1.71324e+06  9.82298e+06 
 6.01562e+05 -1.65255e+06  9.99399e+06 
 6.01302e+05 -1.69009e+06  9.97811e+06 
 2.66380e+05 -3.14237e+06  1.05386e+07 
 4.94080e+05 -1.67659e+06  9.84086e+06 
 7.28444e+05 -1.76165e+06  1.03901e+07 
 5.32368e+05 -1.70581e+06  1.02010e+07 
 7.84327e+04 -2.92439e+06  1.12758e+07 
 6.43370e+05 -1.66644e+06  1.01886e+07 
 7.76815e+05 -2.24316e+06  1.01001e+07 
 9.13740e+05 -2.99956e+06  1.01135e+07 
 4.83905e+05 -1.93407e+06  9.55816e+06 
 6.69666e+05 -1.81699e+06  9.66373e+06 
 2.37961e+05 -2.65705e+06  1.15234e+07 
-2.02282e+05 -3.33949e+06  1.19873e+07 
 2.02394e+05 -2.69691e+06  1.14115e+07 
 5.46522e+05 -1.84598e+06  9.55060e+06 
 7.35206e+05 -1.59630e+06  1.00343e+07 
 4.00072e+05 -2.38415e+06  9.96223e+06 
 5.51906e+05 -2.95861e+06  9.69207e+06 
 6.83975e+05 -1.92354e+06  9.72438e+06 
 2.88935e+05 -2.70203e+06  1.04715e+07 
-1.17664e+05 -3.20510e+06  1.13708e+07 
 5.34334e+05 -1.64334e+06  9.49848e+06 
 5.99731e+05 -1.61866e+06  9.44961e+06 
 4.19467e+05 -1.70925e+06  9.70516e+06 
 3.65640e+05 -1.79601e+06  1.03565e+07 
 3.80505e+05 -3.04950e+06  1.00270e+07 
 7.34137e+05 -2.98262e+06  9.63746e+06 
 3.45333e+04 -3.14438e+06  1.09488e+07 
 2.48287e+05 -2.37137e+06  1.11599e+07 
 4.86054e+05 -1.71347e+06  1.02497e+07 
 5.89975e+05 -2.02262e+06  9.53705e+06 
 3.36033e+05 -2.31102e+06  1.03797e+07 
-4.06894e+05 -3.62112e+06  1.29240e+07 
 5.33170e+05 -2.35517e+06  9.31307e+06 
 5.25274e+05 -1.49103e+06  9.68649e+06 
 7.39927e+05 -1.56747e+06  1.00563e+07 
 5.51430e+05 -1.49922e+06  9.57198e+06 
 6.14901e+05 -1.49650e+06  9.69414e+06 
 2.28910e+05 -2.39365e+06  1.10810e+07 
-2.49195e+04 -3.09777e+06  1.23570e+07 
 3.87213e+05 -1.87578e+06  9.80843e+06 
 1.03136e+06 -2.89670e+06  1.02285e+07 
 6.03984e+05 -1.45350e+06  9.70867e+06 
 6.58783e+05 -1.70288e+06  9.41406e+06 
 4.95416e+05 -1.53229e+06  9.42292e+06 
 5.75045e+05 -1.77850e+06  9.35701e+06 
 7.06128e+05 -2.29079e+06  9.72410e+06 
 5.52975e+05 -1.62351e+06  9.29188e+06 
 1.11025e+05 -2.83412e+06  1.18881e+07 
 4.34225e+05 -2.39086e+06  9.48321e+06 
 3.06630e+05 -2.63909e+06  1.02713e+07 
 6.81293e+05 -2.04009e+06  9.55419e+06 
 7.05197e+05 -1.57971e+06  1.00718e+07 
 5.92236e+05 -1.61659e+06  1.01155e+07 
 1.07033e+05 -3.10413e+06  1.07203e+07 
 2.24230e+05 -2.11257e+06  1.08385e+07 
 4.26210e+05 -1.46682e+06  9.59003e+06 
 5.50718e+05 -1.43549e+06  9.25661e+06 
 6.00323e+05 -1.41240e+06  9.18741e+06 
 7.25860e+05 -1.39982e+06  9.72493e+06 
 1.58385e+05 -2.65189e+06  1.09888e+07 
 1.72371e+05 -2.51248e+06  1.14656e+07 
 2.27178e+05 -2.03300e+06  1.06070e+07 
 4.77926e+05 -1.59366e+06  9.08736e+06 
-4.46979e+05 -3.30813e+06  1.22562e+07 
 3.58211e+04 -2.76891e+06  1.16757e+07 
 3.18065e+05 -2.70159e+06  9.97565e+06 
 6.51074e+05 -1.48686e+06  9.14388e+06 
 5.27641e+05 -1.36255e+06  9.52733e+06 
-5.63502e+05 -3.64550e+06  1.33484e+07 
-2.65203e+05 -3.05924e+06  1.15087e+07 
 2.35357e+05 -1.85492e+06  1.04711e+07 
 3.55875e+05 -2.21898e+06  9.99523e+06 
 6.28071e+05 -1.72016e+06  9.19838e+06 
-1.47892e+05 -3.01577e+06  1.13023e+07 
 5.37797e+05 -1.41745e+06  9.05270e+06 
 6.23286e+05 -1.41502e+06  9.76394e+06 
 4.38955e+05 -1.54646e+06  9.97671e+06 
 1.46952e+05 -2.79044e+06  1.08652e+07 
 5.54708e+05 -1.99622e+06  9.06419e+06 
 5.67399e+05 -1.32352e+06  9.32997e+06 
 6.24452e+05 -1.32199e+06  9.43822e+06 
 5.02196e+05 -1.34693e+06  9.25851e+06 
 2.91305e+05 -1.88536e+06  1.00401e+07 
 4.09094e+05 -1.96368e+06  9.40173e+06 
 4.76903e+05 -1.83935e+06  8.88524e+06 
 3.44746e+05 -2.93002e+06  9.60414e+06 
 3.42316e+05 -1.97620e+06  9.87646e+06 
 2.42097e+05 -2.44423e+06  1.05457e+07 
 1.14147e+05 -3.04157e+06  1.02437e+07 
 7.36144e+05 -1.38036e+06  9.73757e+06 
 1.47646e+05 -2.24047e+06  1.10873e+07 
 5.58639e+05 -1.47479e+06  8.93903e+06 
 6.47270e+05 -2.72491e+06  9.07910e+06 
 6.05448e+05 -1.28857e+06  9.43970e+06 
-4.20934e+05 -3.10259e+06  1.19169e+07 
 6.22395e+05 -1.54297e+06  9.00989e+06 
 5.28527e+05 -1.64534e+06  8.91070e+06 
-1.17919e+05 -3.01009e+06  1.24534e+07 
 1.26833e+05 -2.38452e+06  1.11948e+07 
 2.81559e+05 -1.68515e+06  9.91728e+06 
 2.10560e+05 -2.29892e+06  1.07112e+07 
 2.12904e+04 -2.70746e+06  1.13919e+07 
-4.99670e+04 -3.14571e+06  1.09766e+07 
 1.78831e+05 -2.71474e+06  1.05495e+07 
 8.25591e+05 -2.69124e+06  9.52756e+06 
 2.89884e+05 -2.15560e+06  1.02493e+07 
 5.56499e+05 -1.25707e+06  9.02464e+06 
 6.09204e+05 -1.23975e+06  8.94915e+06 
-7.57016e+05 -3.54427e+06  1.34540e+07 
 6.49888e+05 -1.30022e+06  8.89302e+06 
 5.24040e+05 -2.72956e+06  8.80997e+06 
 2.74618e+05 -1.49981e+06  9.84086e+06 
 3.44124e+05 -1.45889e+06  9.41138e+06 
 2.80014e+05 -1.57879e+06  1.00111e+07 
-3.31908e+03 -2.65906e+06  1.18497e+07 
 7.04507e+05 -1.40039e+06  9.74259e+06 
 4.62324e+05 -2.44331e+06  8.90101e+06 
 2.79568e+05 -2.35792e+06  1.02070e+07 
-3.71346e+05 -2.69786e+06  1.20695e+07 
 7.19819e+05 -1.24104e+06  9.43869e+06 
 4.82306e+05 -1.30480e+06  8.90452e+06 
 6.03895e+05 -1.42309e+06  9.75364e+06 
 2.59734e+04 -2.69669e+06  1.12533e+07 
 3.22349e+05 -1.70664e+06  9.58186e+06 
 5.74650e+05 -2.05842e+06  8.90959e+06 
-8.63314e+05 -3.35161e+06  1.32557e+07 
 5.13121e+05 -1.28605e+06  9.49165e+06 
 3.59418e+05 -2.20244e+06  9.70278e+06 
 1.74455e+05 -2.07928e+06  1.05872e+07 
-2.63060e+05 -2.94548e+06  1.23503e+07 
 2.76716e+05 -1.89597e+06  9.98671e+06 
 1.54786e+05 -2.39276e+06  1.08429e+07 
 1.07431e+05 -1.97422e+06  1.07200e+07 
 5.78027e+05 -1.20781e+06  8.81591e+06 
 3.12421e+05 -2.06624e+06  9.91247e+06 
 5.08990e+05 -1.19150e+06  9.05269e+06 
 5.56949e+05 -1.27609e+06  8.72530e+06 
-7.19171e+05 -3.13428e+06  1.26923e+07 
 1.60233e+04 -2.39627e+06  1.13870e+07 
-9.34607e+04 -2.67741e+06  1.18176e+07 
 2.07074e+05 -1.88579e+06  1.02398e+07 
 5.66066e+05 -1.15996e+06  9.09143e+06 
 6.18425e+05 -1.15720e+06  9.18557e+06 
 6.12487e+05 -1.30832e+06  8.71924e+06 
-2.10627e+05 -3.36867e+06  1.16056e+07 
 9.85483e+04 -2.69785e+06  1.08115e+07 
 9.46306e+04 -1.92792e+06  1.06131e+07 
 2.21125e+05 -2.12035e+06  1.04204e+07 
 1.66215e+05 -1.64732e+06  1.01671e+07 
 3.44913e+05 -1.40568e+06  9.70859e+06 
-2.07104e+04 -3.03031e+06  1.04780e+07 
-4.55317e+05 -2.87289e+06  1.21333e+07 
-7.63572e+05 -2.93126e+06  1.27492e+07 
 2.90685e+05 -1.82021e+06  9.66142e+06 
 1.67448e+05 -2.35239e+06  1.03521e+07 
-2.81002e+04 -2.39046e+06  1.13858e+07 
-2.15441e+05 -2.74688e+06  1.19231e+07 
 4.10552e+05 -1.36574e+06  8.81261e+06 
 4.15082e+05 -1.18225e+06  8.98631e+06 
 6.06243e+05 -1.13290e+06  9.17954e+06 
 6.55011e+05 -1.13567e+06  8.67013e+06 
 2.52775e+05 -1.65252e+06  9.72762e+06 
 7.29839e+05 -1.22391e+06  9.44064e+06 
-4.00157e+04 -2.50419e+06  1.14141e+07 
 1.85458e+04 -2.12404e+06  1.09889e+07 
 3.73148e+05 -2.38060e+06  9.15879e+06 
 5.63285e+05 -1.09880e+06  8.80626e+06 
-5.17656e+04 -2.47605e+06  1.13594e+07 
 6.09326e+05 -1.08350e+06  8.72777e+06 
 4.89896e+05 -1.32837e+06  9.54669e+06 
 4.87562e+05 -1.12901e+06  9.10217e+06 
 4.96007e+05 -1.12816e+06  8.76394e+06 
 2.13074e+05 -1.86948e+06  1.01267e+07 
 2.10204e+05 -2.83835e+06  9.61098e+06 
 3.30241e+05 -1.99601e+06  9.60359e+06 
 2.47113e+05 -2.01843e+06  9.95985e+06 
 1.06450e+05 -1.85654e+06  1.04102e+07 
 3.38353e+05 -1.67569e+06  9.31471e+06 
 5.64055e+05 -1.52351e+06  8.53969e+06 
 4.46068e+05 -1.74364e+06  8.64420e+06 
 6.14997e+05 -1.17156e+06  8.55675e+06 
 2.84210e+05 -1.45700e+06  9.35748e+06 
 7.73853e+04 -1.74097e+06  1.03621e+07 
 1.18682e+03 -2.13215e+06  1.09620e+07 
 2.30970e+05 -2.44229e+06  9.96149e+06 
 1.25665e+05 -1.56429e+06  1.00394e+07 
 2.07504e+04 -2.20384e+06  1.09149e+07 
 5.75613e+05 -1.12160e+06  8.53540e+06 
 2.73143e+05 -1.58421e+06  9.42163e+06 
 1.78223e+05 -1.57274e+06  9.86992e+06 
 6.92716e+05 -1.24845e+06  9.43202e+06 
 7.08603e+05 -1.08822e+06  9.16881e+06 
 6.25617e+05 -1.15203e+06  9.25434e+06 
 2.35663e+05 -1.77604e+06  9.64833e+06 
 5.65244e+05 -1.06887e+06  8.54062e+06 
 5.12246e+05 -1.27896e+06  8.36459e+06 
 4.71419e+05 -1.61839e+06  8.25465e+06 
 4.99523e+05 -2.03972e+06  8.32769e+06 
 4.83273e+04 -2.45796e+06  1.05821e+07 
 2.09112e+03 -1.87633e+06  1.06199e+07 
 5.00294e+05 -1.03239e+06  8.81955e+06 
-2.14441e+05 -3.09340e+06  1.12809e+07 
 1.93858e+05 -1.63735e+06  9.83505e+06 
 2.31334e+05 -1.44682e+06  9.49411e+06 
 3.59279e+05 -2.71900e+06  8.92782e+06 
 1.82759e+05 -1.41866e+06  9.76648e+06 
 5.95245e+05 -1.26027e+06  9.41020e+06 
 1.08915e+05 -1.92418e+06  1.03879e+07 
 5.68197e+04 -1.94466e+06  1.05333e+07 
 6.23831e+05 -2.51967e+06  8.67235e+06 
 3.33712e+05 -1.40715e+06  8.98853e+06 
-8.18655e+03 -1.87830e+06  1.05882e+07 
 5.63687e+05 -1.00285e+06  8.85402e+06 
 6.18208e+05 -1.01022e+06  8.93721e+06 
 8.29951e+04 -2.89392e+06  9.96119e+06 
 2.83062e+05 -1.79257e+06  9.48456e+06 
 6.61164e+05 -9.84342e+05  8.46406e+06 
 1.72025e+05 -1.39612e+06  9.59923e+06 
 6.84405e+04 -1.55404e+06  1.00420e+07 
 2.78424e+05 -2.15123e+06  9.59552e+06 
 3.42949e+05 -1.09691e+06  8.81346e+06 
 2.17612e+05 -1.54074e+06  9.39370e+06 
 2.47212e+05 -1.37917e+06  9.19429e+06 
 2.04152e+05 -1.23976e+06  9.35436e+06 
 5.18723e+05 -1.00708e+06  8.90834e+06 
 3.68887e+05 -1.09921e+06  9.14919e+06 
 2.51820e+05 -1.19345e+06  9.07372e+06 
 1.87907e+05 -1.77254e+06  9.64692e+06 
 5.60061e+05 -9.49819e+05  8.58839e+06 
 6.08749e+05 -9.42770e+05  8.50185e+06 
 4.96440e+04 -1.51271e+06  1.00039e+07 
 5.44202e+04 -1.69622e+06  1.01936e+07 
 1.79357e+05 -1.42164e+06  9.57675e+06 
 7.19424e+05 -1.07970e+06  9.14266e+06 
 6.36526e+05 -9.93041e+05  8.32022e+06 
 5.72508e+05 -9.60685e+05  8.34856e+06 
 5.80500e+05 -9.30585e+05  8.40462e+06 
-1.25804e+04 -1.65380e+06  1.02578e+07 
-2.64863e+04 -1.64267e+06  1.02527e+07 
 2.03764e+05 -1.25692e+06  9.25313e+06 
 5.68050e+05 -1.15132e+06  8.17616e+06 
 3.27916e+05 -1.89064e+06  9.24792e+06 
-3.09270e+05 -2.99334e+06  1.10165e+07 
 4.36745e+05 -1.17543e+06  9.22771e+06 
 4.79808e+04 -2.47754e+06  1.03886e+07 
 4.89575e+05 -1.01133e+06  8.26619e+06 
 2.57422e+05 -1.21066e+06  9.36653e+06 
 2.75489e+05 -1.35146e+06  8.99073e+06 
 4.01519e+05 -9.33578e+05  8.67128e+06 
 1.97773e+05 -1.33576e+06  9.12644e+06 
 1.05628e+05 -2.16874e+06  9.99975e+06 
 4.19516e+05 -2.02193e+06  8.70143e+06 
 6.96887e+05 -9.57131e+05  8.91219e+06 
 5.56490e+05 -1.08450e+06  9.06878e+06 
 5.10634e+05 -2.41653e+06  8.11140e+06 
 2.26424e+05 -1.18941e+06  8.97587e+06 
 6.75191e+05 -1.10890e+06  9.12439e+06 
 3.78052e+04 -1.48538e+06  9.87740e+06 
 5.01528e+05 -8.95904e+05  8.59671e+06 
 2.96666e+05 -1.50195e+06  9.02193e+06 
 5.05453e+04 -1.32118e+06  9.67450e+06 
 3.04042e+05 -9.70296e+05  8.84138e+06 
 2.30740e+05 -2.48122e+06  9.34606e+06 
 1.94058e+05 -1.86124e+06  9.62923e+06 
 4.55909e+05 -1.94945e+06  8.22987e+06 
 1.25243e+05 -1.27734e+06  9.50084e+06 
 5.48106e+05 -9.68929e+05  8.10785e+06 
 5.87707e+05 -9.34150e+05  8.80690e+06 
 1.27401e+05 -1.19448e+06  9.35576e+06 
 6.56002e+05 -8.64418e+05  8.26920e+06 
 1.48730e+05 -1.23701e+06  9.32469e+06 
 5.60684e+05 -8.82852e+05  8.62111e+06 
 6.13479e+05 -8.86057e+05  8.69655e+06 
 4.97992e+05 -8.62041e+05  8.36186e+06 
 2.88890e+05 -1.06897e+06  8.67173e+06 
-3.67879e+04 -1.45568e+06  9.95742e+06 
 5.00225e+05 -1.84494e+06  7.99941e+06 
 6.37615e+05 -8.81616e+05  8.18513e+06 
-2.81561e+04 -1.44224e+06  9.92331e+06 
 5.84138e+05 -1.11266e+06  9.06522e+06 
 3.68148e+05 -1.52624e+06  8.67498e+06 
-9.45636e+04 -2.77229e+06  1.02431e+07 
 1.99478e+05 -1.61660e+06  9.34445e+06 
 2.56582e+04 -1.32693e+06  9.66549e+06 
 2.08951e+05 -2.20429e+06  9.67354e+06 
 1.88628e+05 -1.08217e+06  9.15626e+06 
 1.82974e+05 -1.08673e+06  9.02133e+06 
 3.55996e+05 -1.11022e+06  8.46407e+06 
 2.16729e+05 -1.94961e+06  9.44223e+06 
 1.80785e+05 -1.15771e+06  8.89646e+06 
 5.56568e+05 -8.25526e+05  8.36635e+06 
 6.03999e+05 -8.26925e+05  8.28734e+06 
 2.40697e+05 -1.15917e+06  8.77730e+06 
 2.47939e+04 -1.29517e+06  9.59150e+06 
 2.41573e+05 -9.70468e+05  8.71966e+06 
 2.11095e+05 -1.02473e+06  8.75655e+06 
 5.84363e+05 -7.98924e+05  8.21323e+06 
 6.97939e+05 -9.59341e+05  8.85978e+06 
 3.39008e+05 -2.54406e+06  8.64876e+06 
 1.90128e+05 -1.39185e+06  9.06692e+06 
 2.42290e+05 -1.65586e+06  9.09710e+06 
 1.26679e+05 -1.06720e+06  9.09571e+06 
 2.65763e+05 -1.20305e+06  8.68524e+06 
 1.09944e+05 -1.03894e+06  9.10167e+06 
 4.69087e+05 -2.40707e+06  8.03434e+06 
-5.66704e+04 -1.27956e+06  9.64464e+06 
-4.74159e+04 -1.25062e+06  9.62634e+06 
 5.37707e+05 -2.29454e+06  7.99478e+06 
 4.73345e+05 -1.04880e+06  8.89285e+06 
 2.33816e+05 -1.46102e+06  8.93884e+06 
 5.19577e+05 -1.26583e+06  7.71074e+06 
 6.88563e+05 -8.43015e+05  8.65193e+06 
 8.09944e+04 -1.06524e+06  9.19052e+06 
 1.72465e+05 -9.48285e+05  8.87060e+06 
 6.05271e+05 -8.47154e+05  7.84686e+06 
 6.52307e+05 -7.56935e+05  8.07537e+06 
 1.01659e+05 -1.12315e+06  9.20124e+06 
 5.83884e+05 -9.37861e+05  8.74139e+06 
 1.63663e+05 -9.97472e+05  8.67333e+06 
 6.59766e+05 -9.96189e+05  8.82624e+06 
 4.95047e+05 -7.66341e+05  8.31172e+06 
 1.74016e+05 -1.20868e+06  8.84026e+06 
 2.22668e+05 -9.97035e+05  8.57221e+06 
 1.66339e+05 -9.34938e+05  8.79117e+06 
 1.30651e+05 -2.61923e+06  9.31497e+06 
 5.56552e+05 -7.65986e+05  8.38060e+06 
 6.06391e+05 -7.65660e+05  8.45662e+06 
 1.02681e+04 -1.11652e+06  9.32956e+06 
 6.37575e+05 -7.40099e+05  7.95779e+06 
 5.63347e+05 -7.66012e+05  7.90938e+06 
 2.93308e+05 -9.13512e+05  8.73276e+06 
 1.19907e+04 -1.15810e+06  9.33148e+06 
 5.84183e+05 -8.00727e+05  8.51064e+06 
 3.13543e+05 -1.96367e+06  8.88935e+06 
 5.00263e+05 -8.19733e+05  8.51630e+06 
 2.50189e+05 -1.04410e+06  8.49773e+06 
 2.27947e+05 -8.49878e+05  8.56180e+06 
 5.88259e+05 -7.26103e+05  7.97405e+06 
 4.86214e+05 -1.10521e+06  7.54315e+06 
 4.32701e+05 -1.61353e+06  8.19502e+06 
 1.90186e+05 -8.85313e+05  8.54804e+06 
 2.35741e+05 -1.22325e+06  8.66652e+06 
 5.53791e+05 -7.26976e+05  8.15201e+06 
 5.99472e+05 -7.28895e+05  8.08195e+06 
 5.73251e+05 -9.90161e+05  8.74097e+06 
 1.18321e+05 -9.13802e+05  8.86695e+06 
 3.38981e+05 -7.42391e+05  8.30859e+06 
 2.81147e+05 -8.00908e+05  8.28867e+06 
 1.54488e+05 -1.03629e+06  8.61946e+06 
-5.63027e+04 -1.09287e+06  9.33955e+06 
 7.53568e+04 -9.25611e+05  8.92875e+06 
 5.60237e+05 -6.84904e+05  7.96967e+06 
-6.37735e+04 -1.12048e+06  9.34565e+06 
 5.45255e+05 -9.60807e+05  7.52959e+06 
 1.78769e+05 -8.47812e+05  8.67974e+06 
 3.15080e+05 -1.45392e+06  8.49945e+06 
 6.84358e+05 -8.60430e+05  8.57872e+06 
 2.16155e+05 -1.07745e+06  8.51451e+06 
 1.45874e+05 -8.59828e+05  8.45983e+06 
 2.04034e+05 -8.54401e+05  8.37580e+06 
 3.11019e+05 -9.71529e+05  8.70251e+06 
 1.26659e+05 -1.01003e+06  8.91673e+06 
 4.10524e+05 -6.75409e+05  8.05556e+06 
 3.82489e+05 -7.39734e+05  8.35205e+06 
-2.84726e+03 -9.59950e+05  9.07219e+06 
 5.08744e+05 -7.88389e+05  7.55730e+06 
 6.35791e+05 -6.57753e+05  7.82759e+06 
 2.30244e+05 -8.93186e+05  8.31432e+06 
 4.28617e+05 -8.46731e+05  8.49309e+06 
 1.58785e+05 -8.03083e+05  8.57356e+06 