<?xml version="1.0" encoding="utf-8"?>
<VTKFile byte_order="LittleEndian" type="UnstructuredGrid" version="0.1">
   <UnstructuredGrid>
      <Piece NumberOfCells="3364" NumberOfPoints="1741">
         <Points>
            <DataArray Name="Points" NumberOfComponents="3" format="ascii" type="Float32">
0.0000 1.0000 0.0000
0.0000 1.0345 0.0000
0.0000 1.0690 0.0000
0.0000 1.1034 0.0000
0.0000 1.1379 0.0000
0.0000 1.1724 0.0000
0.0000 1.2069 0.0000
0.0000 1.2414 0.0000
0.0000 1.2759 0.0000
0.0000 1.3103 0.0000
0.0000 1.3448 0.0000
0.0000 1.3793 0.0000
0.0000 1.4138 0.0000
0.0000 1.4483 0.0000
0.0000 1.4828 0.0000
0.0000 1.5172 0.0000
0.0000 1.5517 0.0000
0.0000 1.5862 0.0000
0.0000 1.6207 0.0000
0.0000 1.6552 0.0000
0.0000 1.6897 0.0000
0.0000 1.7241 0.0000
0.0000 1.7586 0.0000
0.0000 1.7931 0.0000
0.0000 1.8276 0.0000
0.0000 1.8621 0.0000
0.0000 1.8966 0.0000
0.0000 1.9310 0.0000
0.0000 1.9655 0.0000
0.0000 2.0000 0.0000
0.0690 1.0000 0.0000
0.0690 1.0345 0.0000
0.0690 1.0690 0.0000
0.0690 1.1034 0.0000
0.0690 1.1379 0.0000
0.0690 1.1724 0.0000
0.0690 1.2069 0.0000
0.0690 1.2414 0.0000
0.0690 1.2759 0.0000
0.0690 1.3103 0.0000
0.0690 1.3448 0.0000
0.0690 1.3793 0.0000
0.0690 1.4138 0.0000
0.0690 1.4483 0.0000
0.0690 1.4828 0.0000
0.0690 1.5172 0.0000
0.0690 1.5517 0.0000
0.0690 1.5862 0.0000
0.0690 1.6207 0.0000
0.0690 1.6552 0.0000
0.0690 1.6897 0.0000
0.0690 1.7241 0.0000
0.0690 1.7586 0.0000
0.0690 1.7931 0.0000
0.0690 1.8276 0.0000
0.0690 1.8621 0.0000
0.0690 1.8966 0.0000
0.0690 1.9310 0.0000
0.0690 1.9655 0.0000
0.0690 2.0000 0.0000
0.1379 1.0000 0.0000
0.1379 1.0345 0.0000
0.1379 1.0690 0.0000
0.1379 1.1034 0.0000
0.1379 1.1379 0.0000
0.1379 1.1724 0.0000
0.1379 1.2069 0.0000
0.1379 1.2414 0.0000
0.1379 1.2759 0.0000
0.1379 1.3103 0.0000
0.1379 1.3448 0.0000
0.1379 1.3793 0.0000
0.1379 1.4138 0.0000
0.1379 1.4483 0.0000
0.1379 1.4828 0.0000
0.1379 1.5172 0.0000
0.1379 1.5517 0.0000
0.1379 1.5862 0.0000
0.1379 1.6207 0.0000
0.1379 1.6552 0.0000
0.1379 1.6897 0.0000
0.1379 1.7241 0.0000
0.1379 1.7586 0.0000
0.1379 1.7931 0.0000
0.1379 1.8276 0.0000
0.1379 1.8621 0.0000
0.1379 1.8966 0.0000
0.1379 1.9310 0.0000
0.1379 1.9655 0.0000
0.1379 2.0000 0.0000
0.2069 1.0000 0.0000
0.2069 1.0345 0.0000
0.2069 1.0690 0.0000
0.2069 1.1034 0.0000
0.2069 1.1379 0.0000
0.2069 1.1724 0.0000
0.2069 1.2069 0.0000
0.2069 1.2414 0.0000
0.2069 1.2759 0.0000
0.2069 1.3103 0.0000
0.2069 1.3448 0.0000
0.2069 1.3793 0.0000
0.2069 1.4138 0.0000
0.2069 1.4483 0.0000
0.2069 1.4828 0.0000
0.2069 1.5172 0.0000
0.2069 1.5517 0.0000
0.2069 1.5862 0.0000
0.2069 1.6207 0.0000
0.2069 1.6552 0.0000
0.2069 1.6897 0.0000
0.2069 1.7241 0.0000
0.2069 1.7586 0.0000
0.2069 1.7931 0.0000
0.2069 1.8276 0.0000
0.2069 1.8621 0.0000
0.2069 1.8966 0.0000
0.2069 1.9310 0.0000
0.2069 1.9655 0.0000
0.2069 2.0000 0.0000
0.2759 1.0000 0.0000
0.2759 1.0345 0.0000
0.2759 1.0690 0.0000
0.2759 1.1034 0.0000
0.2759 1.1379 0.0000
0.2759 1.1724 0.0000
0.2759 1.2069 0.0000
0.2759 1.2414 0.0000
0.2759 1.2759 0.0000
0.2759 1.3103 0.0000
0.2759 1.3448 0.0000
0.2759 1.3793 0.0000
0.2759 1.4138 0.0000
0.2759 1.4483 0.0000
0.2759 1.4828 0.0000
0.2759 1.5172 0.0000
0.2759 1.5517 0.0000
0.2759 1.5862 0.0000
0.2759 1.6207 0.0000
0.2759 1.6552 0.0000
0.2759 1.6897 0.0000
0.2759 1.7241 0.0000
0.2759 1.7586 0.0000
0.2759 1.7931 0.0000
0.2759 1.8276 0.0000
0.2759 1.8621 0.0000
0.2759 1.8966 0.0000
0.2759 1.9310 0.0000
0.2759 1.9655 0.0000
0.2759 2.0000 0.0000
0.3448 1.0000 0.0000
0.3448 1.0345 0.0000
0.3448 1.0690 0.0000
0.3448 1.1034 0.0000
0.3448 1.1379 0.0000
0.3448 1.1724 0.0000
0.3448 1.2069 0.0000
0.3448 1.2414 0.0000
0.3448 1.2759 0.0000
0.3448 1.3103 0.0000
0.3448 1.3448 0.0000
0.3448 1.3793 0.0000
0.3448 1.4138 0.0000
0.3448 1.4483 0.0000
0.3448 1.4828 0.0000
0.3448 1.5172 0.0000
0.3448 1.5517 0.0000
0.3448 1.5862 0.0000
0.3448 1.6207 0.0000
0.3448 1.6552 0.0000
0.3448 1.6897 0.0000
0.3448 1.7241 0.0000
0.3448 1.7586 0.0000
0.3448 1.7931 0.0000
0.3448 1.8276 0.0000
0.3448 1.8621 0.0000
0.3448 1.8966 0.0000
0.3448 1.9310 0.0000
0.3448 1.9655 0.0000
0.3448 2.0000 0.0000
0.4138 1.0000 0.0000
0.4138 1.0345 0.0000
0.4138 1.0690 0.0000
0.4138 1.1034 0.0000
0.4138 1.1379 0.0000
0.4138 1.1724 0.0000
0.4138 1.2069 0.0000
0.4138 1.2414 0.0000
0.4138 1.2759 0.0000
0.4138 1.3103 0.0000
0.4138 1.3448 0.0000
0.4138 1.3793 0.0000
0.4138 1.4138 0.0000
0.4138 1.4483 0.0000
0.4138 1.4828 0.0000
0.4138 1.5172 0.0000
0.4138 1.5517 0.0000
0.4138 1.5862 0.0000
0.4138 1.6207 0.0000
0.4138 1.6552 0.0000
0.4138 1.6897 0.0000
0.4138 1.7241 0.0000
0.4138 1.7586 0.0000
0.4138 1.7931 0.0000
0.4138 1.8276 0.0000
0.4138 1.8621 0.0000
0.4138 1.8966 0.0000
0.4138 1.9310 0.0000
0.4138 1.9655 0.0000
0.4138 2.0000 0.0000
0.4828 1.0000 0.0000
0.4828 1.0345 0.0000
0.4828 1.0690 0.0000
0.4828 1.1034 0.0000
0.4828 1.1379 0.0000
0.4828 1.1724 0.0000
0.4828 1.2069 0.0000
0.4828 1.2414 0.0000
0.4828 1.2759 0.0000
0.4828 1.3103 0.0000
0.4828 1.3448 0.0000
0.4828 1.3793 0.0000
0.4828 1.4138 0.0000
0.4828 1.4483 0.0000
0.4828 1.4828 0.0000
0.4828 1.5172 0.0000
0.4828 1.5517 0.0000
0.4828 1.5862 0.0000
0.4828 1.6207 0.0000
0.4828 1.6552 0.0000
0.4828 1.6897 0.0000
0.4828 1.7241 0.0000
0.4828 1.7586 0.0000
0.4828 1.7931 0.0000
0.4828 1.8276 0.0000
0.4828 1.8621 0.0000
0.4828 1.8966 0.0000
0.4828 1.9310 0.0000
0.4828 1.9655 0.0000
0.4828 2.0000 0.0000
0.5517 1.0000 0.0000
0.5517 1.0345 0.0000
0.5517 1.0690 0.0000
0.5517 1.1034 0.0000
0.5517 1.1379 0.0000
0.5517 1.1724 0.0000
0.5517 1.2069 0.0000
0.5517 1.2414 0.0000
0.5517 1.2759 0.0000
0.5517 1.3103 0.0000
0.5517 1.3448 0.0000
0.5517 1.3793 0.0000
0.5517 1.4138 0.0000
0.5517 1.4483 0.0000
0.5517 1.4828 0.0000
0.5517 1.5172 0.0000
0.5517 1.5517 0.0000
0.5517 1.5862 0.0000
0.5517 1.6207 0.0000
0.5517 1.6552 0.0000
0.5517 1.6897 0.0000
0.5517 1.7241 0.0000
0.5517 1.7586 0.0000
0.5517 1.7931 0.0000
0.5517 1.8276 0.0000
0.5517 1.8621 0.0000
0.5517 1.8966 0.0000
0.5517 1.9310 0.0000
0.5517 1.9655 0.0000
0.5517 2.0000 0.0000
0.6207 1.0000 0.0000
0.6207 1.0345 0.0000
0.6207 1.0690 0.0000
0.6207 1.1034 0.0000
0.6207 1.1379 0.0000
0.6207 1.1724 0.0000
0.6207 1.2069 0.0000
0.6207 1.2414 0.0000
0.6207 1.2759 0.0000
0.6207 1.3103 0.0000
0.6207 1.3448 0.0000
0.6207 1.3793 0.0000
0.6207 1.4138 0.0000
0.6207 1.4483 0.0000
0.6207 1.4828 0.0000
0.6207 1.5172 0.0000
0.6207 1.5517 0.0000
0.6207 1.5862 0.0000
0.6207 1.6207 0.0000
0.6207 1.6552 0.0000
0.6207 1.6897 0.0000
0.6207 1.7241 0.0000
0.6207 1.7586 0.0000
0.6207 1.7931 0.0000
0.6207 1.8276 0.0000
0.6207 1.8621 0.0000
0.6207 1.8966 0.0000
0.6207 1.9310 0.0000
0.6207 1.9655 0.0000
0.6207 2.0000 0.0000
0.6897 1.0000 0.0000
0.6897 1.0345 0.0000
0.6897 1.0690 0.0000
0.6897 1.1034 0.0000
0.6897 1.1379 0.0000
0.6897 1.1724 0.0000
0.6897 1.2069 0.0000
0.6897 1.2414 0.0000
0.6897 1.2759 0.0000
0.6897 1.3103 0.0000
0.6897 1.3448 0.0000
0.6897 1.3793 0.0000
0.6897 1.4138 0.0000
0.6897 1.4483 0.0000
0.6897 1.4828 0.0000
0.6897 1.5172 0.0000
0.6897 1.5517 0.0000
0.6897 1.5862 0.0000
0.6897 1.6207 0.0000
0.6897 1.6552 0.0000
0.6897 1.6897 0.0000
0.6897 1.7241 0.0000
0.6897 1.7586 0.0000
0.6897 1.7931 0.0000
0.6897 1.8276 0.0000
0.6897 1.8621 0.0000
0.6897 1.8966 0.0000
0.6897 1.9310 0.0000
0.6897 1.9655 0.0000
0.6897 2.0000 0.0000
0.7586 1.0000 0.0000
0.7586 1.0345 0.0000
0.7586 1.0690 0.0000
0.7586 1.1034 0.0000
0.7586 1.1379 0.0000
0.7586 1.1724 0.0000
0.7586 1.2069 0.0000
0.7586 1.2414 0.0000
0.7586 1.2759 0.0000
0.7586 1.3103 0.0000
0.7586 1.3448 0.0000
0.7586 1.3793 0.0000
0.7586 1.4138 0.0000
0.7586 1.4483 0.0000
0.7586 1.4828 0.0000
0.7586 1.5172 0.0000
0.7586 1.5517 0.0000
0.7586 1.5862 0.0000
0.7586 1.6207 0.0000
0.7586 1.6552 0.0000
0.7586 1.6897 0.0000
0.7586 1.7241 0.0000
0.7586 1.7586 0.0000
0.7586 1.7931 0.0000
0.7586 1.8276 0.0000
0.7586 1.8621 0.0000
0.7586 1.8966 0.0000
0.7586 1.9310 0.0000
0.7586 1.9655 0.0000
0.7586 2.0000 0.0000
0.8276 1.0000 0.0000
0.8276 1.0345 0.0000
0.8276 1.0690 0.0000
0.8276 1.1034 0.0000
0.8276 1.1379 0.0000
0.8276 1.1724 0.0000
0.8276 1.2069 0.0000
0.8276 1.2414 0.0000
0.8276 1.2759 0.0000
0.8276 1.3103 0.0000
0.8276 1.3448 0.0000
0.8276 1.3793 0.0000
0.8276 1.4138 0.0000
0.8276 1.4483 0.0000
0.8276 1.4828 0.0000
0.8276 1.5172 0.0000
0.8276 1.5517 0.0000
0.8276 1.5862 0.0000
0.8276 1.6207 0.0000
0.8276 1.6552 0.0000
0.8276 1.6897 0.0000
0.8276 1.7241 0.0000
0.8276 1.7586 0.0000
0.8276 1.7931 0.0000
0.8276 1.8276 0.0000
0.8276 1.8621 0.0000
0.8276 1.8966 0.0000
0.8276 1.9310 0.0000
0.8276 1.9655 0.0000
0.8276 2.0000 0.0000
0.8966 1.0000 0.0000
0.8966 1.0345 0.0000
0.8966 1.0690 0.0000
0.8966 1.1034 0.0000
0.8966 1.1379 0.0000
0.8966 1.1724 0.0000
0.8966 1.2069 0.0000
0.8966 1.2414 0.0000
0.8966 1.2759 0.0000
0.8966 1.3103 0.0000
0.8966 1.3448 0.0000
0.8966 1.3793 0.0000
0.8966 1.4138 0.0000
0.8966 1.4483 0.0000
0.8966 1.4828 0.0000
0.8966 1.5172 0.0000
0.8966 1.5517 0.0000
0.8966 1.5862 0.0000
0.8966 1.6207 0.0000
0.8966 1.6552 0.0000
0.8966 1.6897 0.0000
0.8966 1.7241 0.0000
0.8966 1.7586 0.0000
0.8966 1.7931 0.0000
0.8966 1.8276 0.0000
0.8966 1.8621 0.0000
0.8966 1.8966 0.0000
0.8966 1.9310 0.0000
0.8966 1.9655 0.0000
0.8966 2.0000 0.0000
0.9655 1.0000 0.0000
0.9655 1.0345 0.0000
0.9655 1.0690 0.0000
0.9655 1.1034 0.0000
0.9655 1.1379 0.0000
0.9655 1.1724 0.0000
0.9655 1.2069 0.0000
0.9655 1.2414 0.0000
0.9655 1.2759 0.0000
0.9655 1.3103 0.0000
0.9655 1.3448 0.0000
0.9655 1.3793 0.0000
0.9655 1.4138 0.0000
0.9655 1.4483 0.0000
0.9655 1.4828 0.0000
0.9655 1.5172 0.0000
0.9655 1.5517 0.0000
0.9655 1.5862 0.0000
0.9655 1.6207 0.0000
0.9655 1.6552 0.0000
0.9655 1.6897 0.0000
0.9655 1.7241 0.0000
0.9655 1.7586 0.0000
0.9655 1.7931 0.0000
0.9655 1.8276 0.0000
0.9655 1.8621 0.0000
0.9655 1.8966 0.0000
0.9655 1.9310 0.0000
0.9655 1.9655 0.0000
0.9655 2.0000 0.0000
1.0345 1.0000 0.0000
1.0345 1.0345 0.0000
1.0345 1.0690 0.0000
1.0345 1.1034 0.0000
1.0345 1.1379 0.0000
1.0345 1.1724 0.0000
1.0345 1.2069 0.0000
1.0345 1.2414 0.0000
1.0345 1.2759 0.0000
1.0345 1.3103 0.0000
1.0345 1.3448 0.0000
[...]
         <PointData>
            <DataArray Name="fValues" NumberOfComponents="3" format="ascii" type="Float64">
 6.55902e-34 -6.36900e-35        00000 
 7.96614e-34 -9.15085e-33        00000 
-1.03418e-32 -1.03418e-32        00000 
 1.36434e-31  3.84613e-31        00000 
-9.30760e-32 -1.15828e-30        00000 
 8.84427e-31  8.00967e-30        00000 
-2.94741e-30 -8.43889e-30        00000 
-1.05691e-29  3.92409e-29        00000 
 2.11800e-29  4.23599e-29        00000 
-1.71804e-28 -1.78680e-27        00000 
 1.39258e-27  2.92283e-27        00000 
 2.81013e-27  7.49368e-27        00000 
 6.77759e-27        00000        00000 
 3.34987e-26  9.10002e-26        00000 
-3.34813e-25  9.75972e-26        00000 
 1.33532e-24 -1.82301e-24        00000 
-4.33765e-24 -1.94327e-23        00000 
 8.46298e-24 -4.30711e-23        00000 
 5.18784e-23 -8.32830e-24        00000 
 9.48727e-23  9.37565e-22        00000 
-8.88352e-23 -1.42136e-21        00000 
 3.31326e-21  2.51290e-20        00000 
-4.97255e-20  2.98486e-20        00000 
 2.14326e-19 -1.34340e-19        00000 
-2.18321e-18 -3.27482e-18        00000 
-2.48867e-18  6.02928e-19        00000 
 2.18321e-18 -2.54708e-18        00000 
-4.30546e-18  3.11459e-18        00000 
-4.43352e-20 -7.63771e-19        00000 
-2.48396e-19 -3.50580e-19        00000 
-8.79884e-18 -5.45884e-18        00000 
-1.02099e-18 -6.13636e-17        00000 
 3.30336e-17 -3.17302e-16        00000 
 2.61787e-16 -7.84427e-16        00000 
 9.58453e-16  6.57504e-16        00000 
 1.24658e-15  1.63308e-14        00000 
-8.30113e-15  8.22660e-14        00000 
-6.72119e-14  2.05525e-13        00000 
-2.48798e-13 -1.51628e-13        00000 
-3.34661e-13 -4.15758e-12        00000 
 2.09561e-12 -2.11962e-11        00000 
 1.72833e-11 -5.38448e-11        00000 
 6.44336e-11  3.34123e-11        00000 
 8.76512e-11  1.05257e-09        00000 
-5.37197e-10  5.46293e-09        00000 
-4.42731e-09  1.43242e-08        00000 
-1.62319e-08 -5.73460e-09        00000 
-2.08068e-08 -2.65223e-07        00000 
 1.38604e-07 -1.45226e-06        00000 
 1.02239e-06 -4.15566e-06        00000 
 3.72949e-06  1.28861e-07        00000 
 1.79924e-06  7.47569e-05        00000 
 1.11507e-05  4.73025e-04        00000 
-4.29436e-04  1.36251e-03        00000 
 2.82601e-03 -2.68135e-04        00000 
-5.47880e-02 -4.33376e-02        00000 
-3.88620e-02 -5.43068e-04        00000 
-5.59223e-02  4.08514e-02        00000 
 2.39848e-03  5.23620e-04        00000 
-1.05903e-04 -2.02196e-03        00000 
-9.47838e-18  4.55651e-18        00000 
-7.23181e-19  5.59042e-17        00000 
 3.78157e-17  3.02077e-16        00000 
 2.84913e-16  7.84952e-16        00000 
 1.01331e-15 -4.09731e-16        00000 
 1.18773e-15 -1.49348e-14        00000 
-9.50810e-15 -7.83311e-14        00000 
-7.30925e-14 -2.05562e-13        00000 
-2.62908e-13  8.91591e-14        00000 
-3.22197e-13  3.80908e-12        00000 
 2.38349e-12  2.02248e-11        00000 
 1.87197e-11  5.37400e-11        00000 
 6.83306e-11 -1.98681e-11        00000 
 8.91193e-11 -9.77086e-10        00000 
-5.88567e-10 -5.21861e-09        00000 
-4.81217e-09 -1.38087e-08        00000 
-1.81673e-08  5.80647e-09        00000 
-2.69013e-08  2.51903e-07        00000 
 1.47800e-07  1.29905e-06        00000 
 1.30590e-06  3.18774e-06        00000 
 5.61598e-06 -2.41849e-06        00000 
 5.86202e-06 -5.55758e-05        00000 
-2.55369e-05 -2.42830e-04        00000 
-8.08717e-04 -4.08544e-04        00000 
 2.07869e-03 -1.25222e-03        00000 
-2.98352e-02  5.19425e-03        00000 
 8.61847e-01 -4.28487e-03        00000 
-1.07351e-02  9.26040e-03        00000 
 2.02900e-05  2.14336e-03        00000 
 1.50530e-06  3.00518e-05        00000 
-8.81450e-19  7.62295e-18        00000 
-5.54093e-21  2.35830e-17        00000 
 4.77100e-19  1.15626e-17        00000 
 3.43694e-18 -2.84028e-16        00000 
 1.18948e-17 -1.79901e-15        00000 
 1.24594e-17 -5.66928e-15        00000 
-1.20039e-16 -3.35268e-15        00000 
-8.82108e-16  7.19473e-14        00000 
-3.08807e-15  4.62867e-13        00000 
-3.40675e-15  1.47636e-12        00000 
 3.01428e-14  9.60086e-13        00000 
 2.26045e-13 -1.82588e-11        00000 
 8.03375e-13 -1.19223e-10        00000 
 9.52490e-13 -3.84027e-10        00000 
-7.46687e-12 -2.64323e-10        00000 
-5.81968e-11  4.67221e-09        00000 
-2.14156e-10  3.06843e-08        00000 
-2.92181e-10  9.82368e-08        00000 
 1.88924e-09  6.21522e-08        00000 
 1.59099e-08 -1.20349e-06        00000 
 6.60553e-08 -7.57252e-06        00000 
 6.42773e-08 -2.25774e-05        00000 
-4.05542e-07 -1.01110e-05        00000 
-9.15205e-06  2.52448e-04        00000 
 2.12811e-05  1.21726e-03        00000 
-2.23124e-04  3.79064e-03        00000 
 1.00750e-02  3.41521e-18        00000 
 1.03599e-17 -3.39209e-19        00000 
-2.46338e-18 -8.77070e-20        00000 
 6.97148e-19  1.96364e-20        00000 
 2.82031e-34 -7.24177e-34        00000 
-6.67655e-34  3.04718e-33        00000 
 1.56315e-33 -1.32956e-32        00000 
-1.90583e-33  3.37343e-32        00000 
-9.37164e-33 -1.67730e-31        00000 
 2.87569e-32  2.67962e-31        00000 
-1.43278e-31  1.72843e-31        00000 
-3.77526e-31 -5.04627e-30        00000 
 7.80504e-30  1.84558e-29        00000 
-3.73060e-29  8.52341e-29        00000 
 1.06276e-28 -1.11440e-27        00000 
-2.22292e-28  3.32228e-27        00000 
 8.55930e-29 -7.32451e-27        00000 
-1.68643e-27 -1.73210e-26        00000 
 5.96690e-28 -3.11086e-26        00000 
 3.15358e-26  3.04259e-25        00000 
-5.15026e-26 -3.11742e-24        00000 
-7.87086e-25  1.47806e-23        00000 
 1.16017e-23 -4.62786e-23        00000 
-8.39946e-23  2.75239e-22        00000 
 6.48381e-22 -2.27147e-21        00000 
-4.30557e-21  5.08561e-21        00000 
 2.52902e-20  2.12987e-22        00000 
-1.44539e-19 -3.94325e-22        00000 
 8.24667e-19  1.15587e-19        00000 
-2.99390e-18  4.18258e-20        00000 
 4.53450e-18 -4.59580e-19        00000 
-2.85966e-18  3.45521e-19        00000 
 8.39608e-19 -3.15927e-20        00000 
-3.70781e-19 -3.53904e-21        00000 
-9.05324e-35  4.51389e-34        00000 
 1.37120e-34 -1.04538e-33        00000 
-1.98203e-34  3.30183e-33        00000 
-2.30521e-34 -1.13219e-32        00000 
 1.59578e-33  2.66438e-32        00000 
-2.08208e-33 -1.01872e-32        00000 
-5.11448e-32 -1.74769e-31        00000 
 5.40129e-31  2.77465e-31        00000 
-2.70772e-30  7.56288e-30        00000 
 8.85348e-30 -6.80975e-29        00000 
-2.15495e-29  2.60802e-28        00000 
 3.96093e-29 -6.27470e-28        00000 
-1.40730e-28  5.25833e-28        00000 
 4.83354e-28 -3.88166e-27        00000 
-1.86001e-27  3.66485e-26        00000 
 2.02539e-26 -2.54284e-25        00000 
-2.04029e-25  1.27411e-24        00000 
 1.65242e-24 -5.26842e-24        00000 
-1.12284e-23  2.57230e-23        00000 
 7.24630e-23 -1.37568e-22        00000 
-4.34749e-22  4.02997e-22        00000 
 2.40637e-21 -4.49932e-22        00000 
-1.25197e-20 -1.75940e-22        00000 
 5.98495e-20  4.60397e-21        00000 
-2.15971e-19 -5.57250e-21        00000 
 4.81383e-19 -1.94292e-20        00000 
-6.26245e-19  5.51862e-20        00000 
 4.86868e-19 -4.73731e-20        00000 
-2.26448e-19  1.89127e-20        00000 
 1.24687e-19 -5.17069e-21        00000 
 2.01806e-35 -1.58665e-34        00000 
-2.33469e-35  2.98660e-34        00000 
 1.45161e-35 -8.94097e-34        00000 
 1.56701e-35  2.25722e-33        00000 
 3.54250e-34 -3.21875e-33        00000 
-5.46224e-33  1.63137e-33        00000 
 4.14887e-32 -4.42007e-32        00000 
-2.05308e-31  6.74974e-31        00000 
 7.36963e-31 -4.78177e-30        00000 
-2.12431e-30  2.00545e-29        00000 
 5.70448e-30 -5.86933e-29        00000 
-2.07790e-29  1.37552e-28        00000 
 1.00787e-28 -5.78632e-28        00000 
-5.92260e-28  3.76000e-27        00000 
 4.19198e-27 -2.24481e-26        00000 
-3.02855e-26  1.12015e-25        00000 
 2.04546e-25 -4.94903e-25        00000 
-1.27554e-24  2.20813e-24        00000 
 7.52278e-24 -9.65338e-24        00000 
-4.18589e-23  3.04798e-23        00000 
 2.17795e-22 -5.56187e-23        00000 
-1.05335e-21  2.87047e-23        00000 
 4.59525e-21  1.98735e-22        00000 
-1.63696e-20 -5.14788e-22        00000 
 4.24359e-20 -4.02568e-22        00000 
-7.57096e-20  3.79570e-21        00000 
 9.21194e-20 -7.23243e-21        00000 
-7.72509e-20  6.97774e-21        00000 
 4.81892e-20 -4.01704e-21        00000 
-3.41469e-20  2.49361e-21        00000 
-3.90647e-36  4.64879e-35        00000 
 4.27648e-36 -8.07308e-35        00000 
-8.88456e-36  2.05009e-34        00000 
 6.60465e-35 -4.61281e-34        00000 
-5.41349e-34  1.25955e-33        00000 
 3.41766e-33 -7.84664e-33        00000 
-1.64953e-32  6.16376e-32        00000 
 6.33992e-32 -3.70102e-31        00000 
-2.09296e-31  1.61233e-30        00000 
 7.17090e-31 -5.52692e-30        00000 
-2.99023e-30  1.73511e-29        00000 
 1.56593e-29 -7.08005e-29        00000 
-9.30225e-29  3.76267e-28        00000 
 5.89820e-28 -2.02248e-27        00000 
-3.75765e-27  9.86756e-27        00000 
 2.30575e-26 -4.37762e-26        00000 
-1.34247e-25  1.84984e-25        00000 
 7.43362e-25 -7.32340e-25        00000 
-3.90224e-24  2.34742e-24        00000 
 1.92490e-23 -5.20952e-24        00000 
-8.81091e-23  6.26689e-24        00000 
 3.64306e-22  5.13857e-24        00000 
-1.28381e-21 -3.29470e-23        00000 
 3.59404e-21  1.54766e-23        00000 
-7.62445e-21  1.98561e-22        00000 
 1.20288e-20 -6.47531e-22        00000 
-1.40926e-20  1.04372e-21        00000 
 1.24682e-20 -1.05146e-21        00000 
-9.08249e-21  7.62525e-22        00000 
 7.40037e-21 -5.92303e-22        00000 
 9.11658e-37 -1.05464e-35        00000 
-1.69852e-36  2.14975e-35        00000 
 8.46016e-36 -5.38456e-35        00000 
-5.27939e-35  1.82963e-34        00000 
 2.97363e-34 -9.39680e-34        00000 
-1.40817e-33  5.71753e-33        00000 
 5.74007e-33 -3.08545e-32        00000 
-2.15998e-32  1.37522e-31        00000 
 8.55898e-32 -5.33121e-31        00000 
-3.88015e-31  2.03563e-30        00000 
 2.12779e-30 -8.63852e-30        00000 
-1.20177e-29  3.88702e-29        00000 
 7.22225e-29 -1.96372e-28        00000 
-4.22596e-28  8.62477e-28        00000 
 2.41892e-27 -3.67371e-27        00000 
-1.33974e-26  1.58129e-26        00000 
 7.10789e-26 -5.93479e-26        00000 
-3.55595e-25  1.82857e-25        00000 
 1.68047e-24 -4.51087e-25        00000 
-7.38159e-24  7.64498e-25        00000 
 2.94688e-23 -4.26147e-25        00000 
-1.03040e-22 -1.38914e-24        00000 
 3.01417e-22  2.46020e-24        00000 
-7.10784e-22  8.57648e-24        00000 
 1.32330e-21 -4.64765e-23        00000 
-1.93053e-21  1.07710e-22        00000 
 2.21379e-21 -1.58001e-22        00000 
-2.04159e-21  1.64298e-22        00000 
 1.65071e-21 -1.36905e-22        00000 
-1.45349e-21  1.19640e-22        00000 
-3.79744e-37  3.42675e-36        00000 
 9.89002e-37 -6.19126e-36        00000 
-5.17845e-36  2.14309e-35        00000 
 2.69960e-35 -1.01065e-34        00000 
-1.26987e-34  5.37457e-34        00000 
 5.44759e-34 -2.69215e-33        00000 
-2.25676e-33  1.20665e-32        00000 
 9.83766e-33 -4.93013e-32        00000 
-4.76128e-32  1.97832e-31        00000 
 2.55274e-31 -8.37312e-31        00000 
-1.42550e-30  3.73902e-30        00000 
 8.09268e-30 -1.73434e-29        00000 
-4.53150e-29  7.64203e-29        00000 
 2.47483e-28 -3.20535e-28        00000 
-1.30842e-27  1.29715e-27        00000 
 6.63968e-27 -4.76612e-27        00000 
-3.20241e-26  1.49996e-26        00000 
 1.45895e-25 -3.89217e-26        00000 
-6.20358e-25  7.69705e-26        00000 
 2.41691e-24 -9.31000e-26        00000 
-8.40418e-24  5.89203e-27        00000 
 2.52726e-23  1.40344e-25        00000 
-6.38755e-23  3.23486e-25        00000 
 1.33058e-22 -2.98406e-24        00000 
-2.26126e-22  9.20910e-24        00000 
 3.12763e-22 -1.78325e-23        00000 
-3.54428e-22  2.46972e-23        00000 
 3.38065e-22 -2.63416e-23        00000 
-2.93671e-22  2.39889e-23        00000 
 2.70859e-22 -2.23336e-23        00000 
 1.98953e-37 -1.13945e-36        00000 
-5.29274e-37  2.40863e-36        00000 
 2.54932e-36 -1.02963e-35        00000 
-1.19857e-35  5.04001e-35        00000 
 5.36258e-35 -2.41489e-34        00000 
-2.37862e-34  1.07999e-33        00000 
 1.10265e-33 -4.54158e-33        00000 
-5.49308e-33  1.87624e-32        00000 
 2.90971e-32 -7.95530e-32        00000 
-1.58455e-31  3.48808e-31        00000 
 8.66016e-31 -1.55095e-30        00000 
-4.66640e-30  6.69760e-30        00000 
 2.45294e-29 -2.76013e-29        00000 
-1.24885e-28  1.08019e-28        00000 
 6.11407e-28 -3.89182e-28        00000 
-2.85587e-27  1.23754e-27        00000 
 1.26303e-26 -3.34627e-27        00000 
-5.23392e-26  7.31811e-27        00000 
 2.00236e-25 -1.17347e-26        00000 
-6.93471e-25  1.08157e-26        00000 
 2.12488e-24 -1.47791e-27        00000 
-5.63493e-24  1.80448e-26        00000 
 1.27126e-23 -1.86392e-25        00000 
-2.41350e-23  7.12395e-25        00000 
 3.83648e-23 -1.70815e-24        00000 
-5.10952e-23  2.95782e-24        00000 
 5.75528e-23 -3.94872e-24        00000 
-5.64197e-23  4.29743e-24        00000 
 5.15380e-23 -4.14579e-24        00000 
-4.89461e-23  4.00182e-24        00000 
-1.00956e-37  4.52718e-37        00000 
 2.57091e-37 -1.06431e-36        00000 
-1.17179e-36  4.74855e-36        00000 
 5.40843e-36 -2.20001e-35        00000 
-2.51022e-35  9.78669e-35        00000 
 1.20635e-34 -4.17545e-34        00000 
-6.07942e-34  1.75244e-33        00000 
 3.17983e-33 -7.43064e-33        00000 
-1.68942e-32  3.20441e-32        00000 
 8.95166e-32 -1.38549e-31        00000 
-4.66925e-31  5.84988e-31        00000 
 2.37641e-30 -2.36657e-30        00000 
-1.17228e-29  9.06385e-30        00000 
 5.56937e-29 -3.21888e-29        00000 
-2.53094e-28  1.02898e-28        00000 
 1.09200e-27 -2.87053e-28        00000 
-4.43215e-27  6.74263e-28        00000 
 1.67185e-26 -1.26265e-27        00000 
-5.77243e-26  1.73219e-27        00000 
 1.79285e-25 -1.61399e-27        00000 
-4.92318e-25  2.39305e-27        00000 
 1.17791e-24 -1.27200e-26        00000 
-2.42979e-24  5.29924e-26        00000 
 4.29445e-24 -1.48701e-25        00000 
-6.48948e-24  3.06857e-25        00000 
 8.40794e-24 -4.92649e-25        00000 
-9.44570e-24  6.41701e-25        00000 
 9.46588e-24 -7.09142e-25        00000 
-8.96203e-24  7.10419e-25        00000 
 8.67683e-24 -7.00755e-25        00000 
 4.90367e-38 -1.98690e-37        00000 
-1.21938e-37  4.62650e-37        00000 
 5.53314e-37 -2.02128e-36        00000 
-2.63690e-36  8.92388e-36        00000 
 1.29146e-35 -3.83177e-35        00000 
-6.52011e-35  1.62001e-34        00000 
 3.36379e-34 -6.85265e-34        00000 
-1.74725e-33  2.91388e-33        00000 
 9.01441e-33 -1.23324e-32        00000 
-4.57251e-32  5.10148e-32        00000 
 2.26339e-31 -2.02815e-31        00000 
-1.08674e-30  7.64461e-31        00000 
 5.03221e-30 -2.68717e-30        00000 
-2.23357e-29  8.61887e-30        00000 
 9.43795e-29 -2.46132e-29        00000 
-3.76572e-28  6.09031e-29        00000 
 1.40454e-27 -1.26194e-28        00000 
-4.83784e-27  2.10255e-28        00000 
 1.51800e-26 -2.77530e-28        00000 
-4.27952e-26  3.79517e-28        00000 
 1.07068e-25 -1.06059e-27        00000 
-2.35422e-25  4.02014e-27        00000 
 4.51956e-25 -1.23292e-26        00000 
-7.54887e-25  2.90444e-26        00000 
 1.09677e-24 -5.41711e-26        00000 
-1.39211e-24  8.24241e-26        00000 
 1.56279e-24 -1.05513e-25        00000 
-1.59380e-24  1.17894e-25        00000 
 1.54849e-24 -1.21077e-25        00000 
-1.51899e-24  1.21045e-25        00000 
-2.35926e-38  8.31673e-38        00000 
 5.90979e-38 -1.95046e-37        00000 
-2.75200e-37  8.18368e-37        00000 
 1.35633e-36 -3.50912e-36        00000 
-6.82056e-36  1.48605e-35        00000 
 3.46896e-35 -6.26023e-35        00000 
-1.76525e-34  2.62979e-34        00000 
 8.89614e-34 -1.09382e-33        00000 
-4.40382e-33  4.44501e-33        00000 
 2.12768e-32 -1.73984e-32        00000 
-9.97871e-32  6.47469e-32        00000 
 4.51920e-31 -2.25890e-31        00000 
-1.96548e-30  7.26432e-31        00000 
 8.15852e-30 -2.11218e-30        00000 
-3.20902e-29  5.43693e-30        00000 
 1.18590e-28 -1.21026e-29        00000 
-4.07682e-28  2.27618e-29        00000 
 1.28945e-27 -3.59238e-29        00000 
-3.71035e-27  5.33065e-29        00000 
 9.61214e-27 -1.07744e-28        00000 
-2.22248e-26  3.28223e-28        00000 
 4.55658e-26 -1.01281e-27        00000 
-8.24935e-26  2.60505e-27        00000 
 1.31650e-25 -5.46060e-27        00000 
-1.85411e-25  9.46406e-27        00000 
 2.31686e-25 -1.38459e-26        00000 
-2.60145e-25  1.74965e-26        00000 
 2.68999e-25 -1.96966e-26        00000 
-2.66335e-25  2.05627e-26        00000 
 2.63664e-25 -2.07331e-26        00000 
 1.15973e-38 -3.42816e-38        00000 
-2.95278e-38  7.86298e-38        00000 
 1.40277e-37 -3.21395e-37        00000 
-6.99201e-37  1.35547e-36        00000 
 3.50543e-36 -5.67858e-36        00000 
-1.75067e-35  2.35976e-35        00000 
 8.64020e-35 -9.67266e-35        00000 
-4.18590e-34  3.87103e-34        00000 
 1.97965e-33 -1.49472e-33        00000 
-9.09491e-33  5.50388e-33        00000 
 4.03973e-32 -1.90922e-32        00000 
-1.72613e-31  6.15396e-32        00000 
 7.05590e-31 -1.81502e-31        00000 
-2.74184e-30  4.81758e-31        00000 
 1.00548e-29 -1.13104e-30        00000 
-3.45097e-29  2.31232e-30        00000 
 1.09850e-28 -4.10540e-30        00000 
-3.21297e-28  6.66679e-30        00000 
 8.55874e-28 -1.20580e-29        00000 
-2.06040e-27  2.96318e-29        00000 
 4.45504e-27 -8.52868e-29        00000 
-8.61392e-27  2.28104e-28        00000 
 1.48556e-26 -5.20515e-28        00000 
-2.28399e-26  1.00240e-27        00000 
 3.13699e-26 -1.64428e-27        00000 
-3.87245e-26  2.33363e-27        00000 
 4.35061e-26 -2.91905e-27        00000 
-4.54752e-26  3.30168e-27        00000 
 4.56573e-26 -3.48417e-27        00000 
-4.54957e-26  3.53239e-27        00000 
-5.78199e-39  1.36822e-38        00000 
 1.48339e-38 -3.07884e-38        00000 
-7.05932e-38  1.23395e-37        00000 
 3.48436e-37 -5.12388e-37        00000 
-1.71034e-36  2.10808e-36        00000 
 8.28406e-36 -8.53318e-36        00000 
-3.93689e-35  3.37039e-35        00000 
 1.82686e-34 -1.28620e-34        00000 
-8.24100e-34  4.69409e-34        00000 
 3.59830e-33 -1.62080e-33        00000 
-1.51385e-32  5.23518e-33        00000 
 6.10616e-32 -1.56204e-32        00000 
-2.34817e-31  4.24847e-32        00000 
 8.55509e-31 -1.03930e-31        00000 
-2.93219e-30  2.26074e-31        00000 
 9.38264e-30 -4.36315e-31        00000 
-2.78112e-29  7.69502e-31        00000 
 7.57844e-29 -1.36935e-30        00000 
-1.88555e-28  2.91911e-30        00000 
 4.25904e-28 -7.53831e-30        00000 
-8.69544e-28  1.99880e-29        00000 
 1.59990e-27 -4.80451e-29        00000 
-2.64908e-27  1.00349e-28        00000 
 3.94863e-27 -1.81164e-28        00000 
-5.31313e-27  2.84705e-28        00000 
 6.49535e-27 -3.94406e-28        00000 
-7.30177e-27  4.89154e-28        00000 
 7.69651e-27 -5.54730e-28        00000 
-7.80790e-27  5.89488e-28        00000 
 7.81719e-27 -5.99771e-28        00000 
 2.85961e-39 -5.31025e-39        00000 
-7.29540e-39  1.17523e-38        00000 
 3.42181e-38 -4.61705e-38        00000 
-1.65055e-37  1.87707e-37        00000 
 7.85910e-37 -7.51415e-37        00000 
-3.67087e-36  2.93433e-36        00000 
 1.67468e-35 -1.10845e-35        00000 
-7.43242e-35  4.01455e-35        00000 
 3.19628e-34 -1.38114e-34        00000 
-1.32642e-33  4.47028e-34        00000 
 5.28803e-33 -1.34645e-33        00000 
-2.01522e-32  3.73480e-33        00000 
 7.30095e-32 -9.44277e-33        00000 
-2.49936e-31  2.15507e-32        00000 
 8.03258e-31 -4.43130e-32        00000 
-2.40742e-30  8.32412e-32        00000 
 6.68473e-30 -1.53799e-31        00000 