<?xml version="1.0" encoding="utf-8"?>
<VTKFile byte_order="LittleEndian" type="UnstructuredGrid" version="0.1">
   <UnstructuredGrid>
      <Piece NumberOfCells="3364" NumberOfPoints="1741">
         <Points>
            <DataArray Name="Points" NumberOfComponents="3" format="ascii" type="Float32">
0.0000 1.0000 0.0000
0.0000 1.0345 0.0000
0.0000 1.0690 0.0000
0.0000 1.1034 0.0000
0.0000 1.1379 0.0000
0.0000 1.1724 0.0000
0.0000 1.2069 0.0000
0.0000 1.2414 0.0000
0.0000 1.2759 0.0000
0.0000 1.3103 0.0000
0.0000 1.3448 0.0000
0.0000 1.3793 0.0000
0.0000 1.4138 0.0000
0.0000 1.4483 0.0000
0.0000 1.4828 0.0000
0.0000 1.5172 0.0000
0.0000 1.5517 0.0000
0.0000 1.5862 0.0000
0.0000 1.6207 0.0000
0.0000 1.6552 0.0000
0.0000 1.6897 0.0000
0.0000 1.7241 0.0000
0.0000 1.7586 0.0000
0.0000 1.7931 0.0000
0.0000 1.8276 0.0000
0.0000 1.8621 0.0000
0.0000 1.8966 0.0000
0.0000 1.9310 0.0000
0.0000 1.9655 0.0000
0.0000 2.0000 0.0000
0.0690 1.0000 0.0000
0.0690 1.0345 0.0000
0.0690 1.0690 0.0000
0.0690 1.1034 0.0000
0.0690 1.1379 0.0000
0.0690 1.1724 0.0000
0.0690 1.2069 0.0000
0.0690 1.2414 0.0000
0.0690 1.2759 0.0000
0.0690 1.3103 0.0000
0.0690 1.3448 0.0000
0.0690 1.3793 0.0000
0.0690 1.4138 0.0000
0.0690 1.4483 0.0000
0.0690 1.4828 0.0000
0.0690 1.5172 0.0000
0.0690 1.5517 0.0000
0.0690 1.5862 0.0000
0.0690 1.6207 0.0000
0.0690 1.6552 0.0000
0.0690 1.6897 0.0000
0.0690 1.7241 0.0000
0.0690 1.7586 0.0000
0.0690 1.7931 0.0000
0.0690 1.8276 0.0000
0.0690 1.8621 0.0000
0.0690 1.8966 0.0000
0.0690 1.9310 0.0000
0.0690 1.9655 0.0000
0.0690 2.0000 0.0000
0.1379 1.0000 0.0000
0.1379 1.0345 0.0000
0.1379 1.0690 0.0000
0.1379 1.1034 0.0000
0.1379 1.1379 0.0000
0.1379 1.1724 0.0000
0.1379 1.2069 0.0000
0.1379 1.2414 0.0000
0.1379 1.2759 0.0000
0.1379 1.3103 0.0000
0.1379 1.3448 0.0000
0.1379 1.3793 0.0000
0.1379 1.4138 0.0000
0.1379 1.4483 0.0000
0.1379 1.4828 0.0000
0.1379 1.5172 0.0000
0.1379 1.5517 0.0000
0.1379 1.5862 0.0000
0.1379 1.6207 0.0000
0.1379 1.6552 0.0000
0.1379 1.6897 0.0000
0.1379 1.7241 0.0000
0.1379 1.7586 0.0000
0.1379 1.7931 0.0000
0.1379 1.8276 0.0000
0.1379 1.8621 0.0000
0.1379 1.8966 0.0000
0.1379 1.9310 0.0000
0.1379 1.9655 0.0000
0.1379 2.0000 0.0000
0.2069 1.0000 0.0000
0.2069 1.0345 0.0000
0.2069 1.0690 0.0000
0.2069 1.1034 0.0000
0.2069 1.1379 0.0000
0.2069 1.1724 0.0000
0.2069 1.2069 0.0000
0.2069 1.2414 0.0000
0.2069 1.2759 0.0000
0.2069 1.3103 0.0000
0.2069 1.3448 0.0000
0.2069 1.3793 0.0000
0.2069 1.4138 0.0000
0.2069 1.4483 0.0000
0.2069 1.4828 0.0000
0.2069 1.5172 0.0000
0.2069 1.5517 0.0000
0.2069 1.5862 0.0000
0.2069 1.6207 0.0000
0.2069 1.6552 0.0000
0.2069 1.6897 0.0000
0.2069 1.7241 0.0000
0.2069 1.7586 0.0000
0.2069 1.7931 0.0000
0.2069 1.8276 0.0000
0.2069 1.8621 0.0000
0.2069 1.8966 0.0000
0.2069 1.9310 0.0000
0.2069 1.9655 0.0000
0.2069 2.0000 0.0000
0.2759 1.0000 0.0000
0.2759 1.0345 0.0000
0.2759 1.0690 0.0000
0.2759 1.1034 0.0000
0.2759 1.1379 0.0000
0.2759 1.1724 0.0000
0.2759 1.2069 0.0000
0.2759 1.2414 0.0000
0.2759 1.2759 0.0000
0.2759 1.3103 0.0000
0.2759 1.3448 0.0000
0.2759 1.3793 0.0000
0.2759 1.4138 0.0000
0.2759 1.4483 0.0000
0.2759 1.4828 0.0000
0.2759 1.5172 0.0000
0.2759 1.5517 0.0000
0.2759 1.5862 0.0000
0.2759 1.6207 0.0000
0.2759 1.6552 0.0000
0.2759 1.6897 0.0000
0.2759 1.7241 0.0000
0.2759 1.7586 0.0000
0.2759 1.7931 0.0000
0.2759 1.8276 0.0000
0.2759 1.8621 0.0000
0.2759 1.8966 0.0000
0.2759 1.9310 0.0000
0.2759 1.9655 0.0000
0.2759 2.0000 0.0000
0.3448 1.0000 0.0000
0.3448 1.0345 0.0000
0.3448 1.0690 0.0000
0.3448 1.1034 0.0000
0.3448 1.1379 0.0000
0.3448 1.1724 0.0000
0.3448 1.2069 0.0000
0.3448 1.2414 0.0000
0.3448 1.2759 0.0000
0.3448 1.3103 0.0000
0.3448 1.3448 0.0000
0.3448 1.3793 0.0000
0.3448 1.4138 0.0000
0.3448 1.4483 0.0000
0.3448 1.4828 0.0000
0.3448 1.5172 0.0000
0.3448 1.5517 0.0000
0.3448 1.5862 0.0000
0.3448 1.6207 0.0000
0.3448 1.6552 0.0000
0.3448 1.6897 0.0000
0.3448 1.7241 0.0000
0.3448 1.7586 0.0000
0.3448 1.7931 0.0000
0.3448 1.8276 0.0000
0.3448 1.8621 0.0000
0.3448 1.8966 0.0000
0.3448 1.9310 0.0000
0.3448 1.9655 0.0000
0.3448 2.0000 0.0000
0.4138 1.0000 0.0000
0.4138 1.0345 0.0000
0.4138 1.0690 0.0000
0.4138 1.1034 0.0000
0.4138 1.1379 0.0000
0.4138 1.1724 0.0000
0.4138 1.2069 0.0000
0.4138 1.2414 0.0000
0.4138 1.2759 0.0000
0.4138 1.3103 0.0000
0.4138 1.3448 0.0000
0.4138 1.3793 0.0000
0.4138 1.4138 0.0000
0.4138 1.4483 0.0000
0.4138 1.4828 0.0000
0.4138 1.5172 0.0000
0.4138 1.5517 0.0000
0.4138 1.5862 0.0000
0.4138 1.6207 0.0000
0.4138 1.6552 0.0000
0.4138 1.6897 0.0000
0.4138 1.7241 0.0000
0.4138 1.7586 0.0000
0.4138 1.7931 0.0000
0.4138 1.8276 0.0000
0.4138 1.8621 0.0000
0.4138 1.8966 0.0000
0.4138 1.9310 0.0000
0.4138 1.9655 0.0000
0.4138 2.0000 0.0000
0.4828 1.0000 0.0000
0.4828 1.0345 0.0000
0.4828 1.0690 0.0000
0.4828 1.1034 0.0000
0.4828 1.1379 0.0000
0.4828 1.1724 0.0000
0.4828 1.2069 0.0000
0.4828 1.2414 0.0000
0.4828 1.2759 0.0000
0.4828 1.3103 0.0000
0.4828 1.3448 0.0000
0.4828 1.3793 0.0000
0.4828 1.4138 0.0000
0.4828 1.4483 0.0000
0.4828 1.4828 0.0000
0.4828 1.5172 0.0000
0.4828 1.5517 0.0000
0.4828 1.5862 0.0000
0.4828 1.6207 0.0000
0.4828 1.6552 0.0000
0.4828 1.6897 0.0000
0.4828 1.7241 0.0000
0.4828 1.7586 0.0000
0.4828 1.7931 0.0000
0.4828 1.8276 0.0000
0.4828 1.8621 0.0000
0.4828 1.8966 0.0000
0.4828 1.9310 0.0000
0.4828 1.9655 0.0000
0.4828 2.0000 0.0000
0.5517 1.0000 0.0000
0.5517 1.0345 0.0000
0.5517 1.0690 0.0000
0.5517 1.1034 0.0000
0.5517 1.1379 0.0000
0.5517 1.1724 0.0000
0.5517 1.2069 0.0000
0.5517 1.2414 0.0000
0.5517 1.2759 0.0000
0.5517 1.3103 0.0000
0.5517 1.3448 0.0000
0.5517 1.3793 0.0000
0.5517 1.4138 0.0000
0.5517 1.4483 0.0000
0.5517 1.4828 0.0000
0.5517 1.5172 0.0000
0.5517 1.5517 0.0000
0.5517 1.5862 0.0000
0.5517 1.6207 0.0000
0.5517 1.6552 0.0000
0.5517 1.6897 0.0000
0.5517 1.7241 0.0000
0.5517 1.7586 0.0000
0.5517 1.7931 0.0000
0.5517 1.8276 0.0000
0.5517 1.8621 0.0000
0.5517 1.8966 0.0000
0.5517 1.9310 0.0000
0.5517 1.9655 0.0000
0.5517 2.0000 0.0000
0.6207 1.0000 0.0000
0.6207 1.0345 0.0000
0.6207 1.0690 0.0000
0.6207 1.1034 0.0000
0.6207 1.1379 0.0000
0.6207 1.1724 0.0000
0.6207 1.2069 0.0000
0.6207 1.2414 0.0000
0.6207 1.2759 0.0000
0.6207 1.3103 0.0000
0.6207 1.3448 0.0000
0.6207 1.3793 0.0000
0.6207 1.4138 0.0000
0.6207 1.4483 0.0000
0.6207 1.4828 0.0000
0.6207 1.5172 0.0000
0.6207 1.5517 0.0000
0.6207 1.5862 0.0000
0.6207 1.6207 0.0000
0.6207 1.6552 0.0000
0.6207 1.6897 0.0000
0.6207 1.7241 0.0000
0.6207 1.7586 0.0000
0.6207 1.7931 0.0000
0.6207 1.8276 0.0000
0.6207 1.8621 0.0000
0.6207 1.8966 0.0000
0.6207 1.9310 0.0000
0.6207 1.9655 0.0000
0.6207 2.0000 0.0000
0.6897 1.0000 0.0000
0.6897 1.0345 0.0000
0.6897 1.0690 0.0000
0.6897 1.1034 0.0000
0.6897 1.1379 0.0000
0.6897 1.1724 0.0000
0.6897 1.2069 0.0000
0.6897 1.2414 0.0000
0.6897 1.2759 0.0000
0.6897 1.3103 0.0000
0.6897 1.3448 0.0000
0.6897 1.3793 0.0000
0.6897 1.4138 0.0000
0.6897 1.4483 0.0000
0.6897 1.4828 0.0000
0.6897 1.5172 0.0000
0.6897 1.5517 0.0000
0.6897 1.5862 0.0000
0.6897 1.6207 0.0000
0.6897 1.6552 0.0000
0.6897 1.6897 0.0000
0.6897 1.7241 0.0000
0.6897 1.7586 0.0000
0.6897 1.7931 0.0000
0.6897 1.8276 0.0000
0.6897 1.8621 0.0000
0.6897 1.8966 0.0000
0.6897 1.9310 0.0000
0.6897 1.9655 0.0000
0.6897 2.0000 0.0000
0.7586 1.0000 0.0000
0.7586 1.0345 0.0000
0.7586 1.0690 0.0000
0.7586 1.1034 0.0000
0.7586 1.1379 0.0000
0.7586 1.1724 0.0000
0.7586 1.2069 0.0000
0.7586 1.2414 0.0000
0.7586 1.2759 0.0000
0.7586 1.3103 0.0000
0.7586 1.3448 0.0000
0.7586 1.3793 0.0000
0.7586 1.4138 0.0000
0.7586 1.4483 0.0000
0.7586 1.4828 0.0000
0.7586 1.5172 0.0000
0.7586 1.5517 0.0000
0.7586 1.5862 0.0000
0.7586 1.6207 0.0000
0.7586 1.6552 0.0000
0.7586 1.6897 0.0000
0.7586 1.7241 0.0000
0.7586 1.7586 0.0000
0.7586 1.7931 0.0000
0.7586 1.8276 0.0000
0.7586 1.8621 0.0000
0.7586 1.8966 0.0000
0.7586 1.9310 0.0000
0.7586 1.9655 0.0000
0.7586 2.0000 0.0000
0.8276 1.0000 0.0000
0.8276 1.0345 0.0000
0.8276 1.0690 0.0000
0.8276 1.1034 0.0000
0.8276 1.1379 0.0000
0.8276 1.1724 0.0000
0.8276 1.2069 0.0000
0.8276 1.2414 0.0000
0.8276 1.2759 0.0000
0.8276 1.3103 0.0000
0.8276 1.3448 0.0000
0.8276 1.3793 0.0000
0.8276 1.4138 0.0000
0.8276 1.4483 0.0000
0.8276 1.4828 0.0000
0.8276 1.5172 0.0000
0.8276 1.5517 0.0000
0.8276 1.5862 0.0000
0.8276 1.6207 0.0000
0.8276 1.6552 0.0000
0.8276 1.6897 0.0000
0.8276 1.7241 0.0000
0.8276 1.7586 0.0000
0.8276 1.7931 0.0000
0.8276 1.8276 0.0000
0.8276 1.8621 0.0000
0.8276 1.8966 0.0000
0.8276 1.9310 0.0000
0.8276 1.9655 0.0000
0.8276 2.0000 0.0000
0.8966 1.0000 0.0000
0.8966 1.0345 0.0000
0.8966 1.0690 0.0000
0.8966 1.1034 0.0000
0.8966 1.1379 0.0000
0.8966 1.1724 0.0000
0.8966 1.2069 0.0000
0.8966 1.2414 0.0000
0.8966 1.2759 0.0000
0.8966 1.3103 0.0000
0.8966 1.3448 0.0000
0.8966 1.3793 0.0000
0.8966 1.4138 0.0000
0.8966 1.4483 0.0000
0.8966 1.4828 0.0000
0.8966 1.5172 0.0000
0.8966 1.5517 0.0000
0.8966 1.5862 0.0000
0.8966 1.6207 0.0000
0.8966 1.6552 0.0000
0.8966 1.6897 0.0000
0.8966 1.7241 0.0000
0.8966 1.7586 0.0000
0.8966 1.7931 0.0000
0.8966 1.8276 0.0000
0.8966 1.8621 0.0000
0.8966 1.8966 0.0000
0.8966 1.9310 0.0000
0.8966 1.9655 0.0000
0.8966 2.0000 0.0000
0.9655 1.0000 0.0000
0.9655 1.0345 0.0000
0.9655 1.0690 0.0000
0.9655 1.1034 0.0000
0.9655 1.1379 0.0000
0.9655 1.1724 0.0000
0.9655 1.2069 0.0000
0.9655 1.2414 0.0000
0.9655 1.2759 0.0000
0.9655 1.3103 0.0000
0.9655 1.3448 0.0000
0.9655 1.3793 0.0000
0.9655 1.4138 0.0000
0.9655 1.4483 0.0000
0.9655 1.4828 0.0000
0.9655 1.5172 0.0000
0.9655 1.5517 0.0000
0.9655 1.5862 0.0000
0.9655 1.6207 0.0000
0.9655 1.6552 0.0000
0.9655 1.6897 0.0000
0.9655 1.7241 0.0000
0.9655 1.7586 0.0000
0.9655 1.7931 0.0000
0.9655 1.8276 0.0000
0.9655 1.8621 0.0000
0.9655 1.8966 0.0000
0.9655 1.9310 0.0000
0.9655 1.9655 0.0000
0.9655 2.0000 0.0000
1.0345 1.0000 0.0000
1.0345 1.0345 0.0000
1.0345 1.0690 0.0000
1.0345 1.1034 0.0000
1.0345 1.1379 0.0000
1.0345 1.1724 0.0000
1.0345 1.2069 0.0000
1.0345 1.2414 0.0000
1.0345 1.2759 0.0000
1.0345 1.3103 0.0000
1.0345 1.3448 0.0000
[...]
         <PointData>
            <DataArray Name="fValues" NumberOfComponents="3" format="ascii" type="Float64">
-2.37843e-22  1.55651e-22        00000 
 1.12293e-23  1.25768e-21        00000 
 8.32830e-24 -4.44176e-23        00000 
-9.41751e-24 -3.99023e-22        00000 
 6.66264e-23  1.42136e-21        00000 
-1.82955e-22  6.75171e-22        00000 
 3.88654e-23  6.21846e-22        00000 
-8.37112e-23  1.25009e-21        00000 
-3.33132e-23  6.44055e-22        00000 
-9.46904e-23 -1.77916e-22        00000 
 2.22088e-23 -1.99879e-22        00000 
-1.06732e-22  2.80607e-22        00000 
-2.49849e-23 -1.97103e-22        00000 
 8.23097e-24  3.99696e-23        00000 
-5.27459e-23  8.60591e-23        00000 
 2.12766e-23  1.91838e-24        00000 
-1.49215e-23  9.36933e-24        00000 
-5.16918e-24  5.64697e-24        00000 
-2.08207e-24 -5.03168e-24        00000 
-3.67871e-25  2.89528e-24        00000 
-2.16883e-25  1.75675e-24        00000 
-2.86789e-25  2.62335e-25        00000 
-8.67531e-26 -6.94025e-25        00000 
-9.80990e-26  1.38974e-25        00000 
-1.24708e-25  2.90081e-25        00000 
-5.67154e-26  2.22076e-25        00000 
 1.62662e-26  4.06655e-27        00000 
-6.14263e-27  8.01954e-27        00000 
 1.07663e-26 -2.94363e-26        00000 
 8.94796e-28 -2.94011e-26        00000 
 6.84032e-06  2.23187e-06        00000 
 4.81193e-07  2.26849e-06        00000 
 3.31427e-07  3.37095e-06        00000 
 2.02255e-07  3.77677e-06        00000 
-8.19642e-08  3.88414e-06        00000 
-4.62061e-07  3.75871e-06        00000 
-8.12515e-07  3.40010e-06        00000 
-1.04041e-06  2.86254e-06        00000 
-1.10884e-06  2.24174e-06        00000 
-1.03543e-06  1.63603e-06        00000 
-8.70441e-07  1.11636e-06        00000 
-6.70358e-07  7.15459e-07        00000 
-4.79122e-07  4.33160e-07        00000 
-3.21237e-07  2.49559e-07        00000 
-2.04013e-07  1.38076e-07        00000 
-1.23866e-07  7.41707e-08        00000 
-7.25449e-08  3.91586e-08        00000 
-4.13420e-08  2.05679e-08        00000 
-2.31114e-08  1.08568e-08        00000 
-1.27644e-08  5.79493e-09        00000 
-7.00486e-09  3.13281e-09        00000 
-3.83517e-09  1.71219e-09        00000 
-2.09991e-09  9.42817e-10        00000 
-1.15085e-09  5.21463e-10        00000 
-6.30805e-10  2.89365e-10        00000 
-3.44567e-10  1.61628e-10        00000 
-1.85442e-10  9.19641e-11        00000 
-9.56445e-11  5.29257e-11        00000 
-4.54582e-11  2.25964e-11        00000 
-1.22304e-10  2.05250e-11        00000 
-8.19393e-06 -5.09353e-06        00000 
-1.56841e-06 -5.78336e-06        00000 
-4.47419e-07 -6.95135e-06        00000 
-3.30214e-07 -7.78858e-06        00000 
 6.80551e-08 -8.11261e-06        00000 
 6.14359e-07 -7.88077e-06        00000 
 1.11164e-06 -7.10700e-06        00000 
 1.41938e-06 -5.93529e-06        00000 
 1.49229e-06 -4.59274e-06        00000 
 1.36749e-06 -3.30130e-06        00000 
 1.12508e-06 -2.21298e-06        00000 
 8.47009e-07 -1.39046e-06        00000 
 5.91865e-07 -8.24163e-07        00000 
 3.88466e-07 -4.64585e-07        00000 
 2.42069e-07 -2.51602e-07        00000 
 1.44663e-07 -1.32515e-07        00000 
 8.37047e-08 -6.88089e-08        00000 
 4.73101e-08 -3.56989e-08        00000 
 2.63244e-08 -1.87021e-08        00000 
 1.45125e-08 -9.94976e-09        00000 
 7.96497e-09 -5.37752e-09        00000 
 4.36559e-09 -2.94283e-09        00000 
 2.39356e-09 -1.62332e-09        00000 
 1.31331e-09 -8.99272e-10        00000 
 7.20415e-10 -4.99590e-10        00000 
 3.93534e-10 -2.79090e-10        00000 
 2.11376e-10 -1.58279e-10        00000 
 1.07597e-10 -9.21690e-11        00000 
 6.62103e-11 -5.78788e-11        00000 
 1.34023e-10 -4.52563e-11        00000 
 9.18010e-06  7.96085e-06        00000 
 2.11900e-06  9.31745e-06        00000 
 8.30749e-07  1.09968e-05        00000 
 5.75127e-07  1.23329e-05        00000 
 2.15204e-09  1.29563e-05        00000 
-7.67032e-07  1.26166e-05        00000 
-1.44008e-06  1.13303e-05        00000 
-1.82329e-06  9.37490e-06        00000 
-1.87335e-06  7.16059e-06        00000 
-1.66528e-06  5.06747e-06        00000 
-1.32342e-06  3.33925e-06        00000 
-9.60383e-07  2.06159e-06        00000 
-6.46755e-07  1.20156e-06        00000 
-4.09810e-07  6.67333e-07        00000 
-2.47429e-07  3.57219e-07        00000 
-1.44027e-07  1.86748e-07        00000 
-8.16949e-08  9.66916e-08        00000 
-4.55702e-08  5.02197e-08        00000 
-2.51781e-08  2.64025e-08        00000 
-1.38487e-08  1.41045e-08        00000 
-7.60605e-09  7.64837e-09        00000 
-4.17771e-09  4.19378e-09        00000 
-2.29594e-09  2.31511e-09        00000 
-1.26218e-09  1.28251e-09        00000 
-6.93240e-10  7.12196e-10        00000 
-3.78836e-10  3.97461e-10        00000 
-2.03250e-10  2.25118e-10        00000 
-1.04509e-10  1.33242e-10        00000 
-6.64684e-11  8.92278e-11        00000 
-1.28569e-10  6.73638e-11        00000 
-1.02809e-05 -1.10064e-05        00000 
-2.74844e-06 -1.30758e-05        00000 
-1.43395e-06 -1.56252e-05        00000 
-1.03743e-06 -1.77701e-05        00000 
-1.36518e-07 -1.88438e-05        00000 
 1.00414e-06 -1.83733e-05        00000 
 1.94609e-06 -1.63910e-05        00000 
 2.42291e-06 -1.33884e-05        00000 
 2.41200e-06 -1.00489e-05        00000 
 2.06072e-06 -6.96737e-06        00000 
 1.56583e-06 -4.49156e-06        00000 
 1.08310e-06 -2.71326e-06        00000 
 6.94646e-07 -1.55030e-06        00000 
 4.19874e-07 -8.47272e-07        00000 
 2.42901e-07 -4.48706e-07        00000 
 1.36447e-07 -2.33546e-07        00000 
 7.53705e-08 -1.21117e-07        00000 
 4.13389e-08 -6.32746e-08        00000 
 2.26519e-08 -3.35129e-08        00000 
 1.24350e-08 -1.80192e-08        00000 
 6.84180e-09 -9.81249e-09        00000 
 3.77020e-09 -5.39066e-09        00000 
 2.07877e-09 -2.97662e-09        00000 
 1.14574e-09 -1.64802e-09        00000 
 6.30332e-10 -9.14379e-10        00000 
 3.44732e-10 -5.09833e-10        00000 
 1.85118e-10 -2.88813e-10        00000 
 9.56219e-11 -1.72067e-10        00000 
 6.12727e-11 -1.16994e-10        00000 
 1.16802e-10 -8.80406e-11        00000 
 1.15412e-05  1.41962e-05        00000 
 3.65707e-06  1.71800e-05        00000 
 2.43082e-06  2.10701e-05        00000 
 1.81370e-06  2.45297e-05        00000 
 3.53609e-07  2.63298e-05        00000 
-1.39959e-06  2.56761e-05        00000 
-2.74773e-06  2.26801e-05        00000 
-3.32886e-06  1.82017e-05        00000 
-3.18375e-06  1.33487e-05        00000 
-2.59296e-06  9.01134e-06        00000 
-1.86753e-06  5.64789e-06        00000 
-1.21968e-06  3.31971e-06        00000 
-7.37301e-07  1.85172e-06        00000 
-4.20571e-07  9.93694e-07        00000 
-2.30753e-07  5.20749e-07        00000 
-1.24040e-07  2.70473e-07        00000 
-6.63542e-08  1.40967e-07        00000 
-3.56978e-08  7.43110e-08        00000 
-1.93990e-08  3.97328e-08        00000 
-1.06414e-08  2.15209e-08        00000 
-5.87372e-09  1.17695e-08        00000 
-3.25100e-09  6.47623e-09        00000 
-1.79976e-09  3.57579e-09        00000 
-9.95011e-10  1.97812e-09        00000 
-5.48520e-10  1.09647e-09        00000 
-3.00358e-10  6.10904e-10        00000 
-1.61481e-10  3.46121e-10        00000 
-8.36152e-11  2.06770e-10        00000 
-5.36474e-11  1.41272e-10        00000 
-1.01676e-10  1.06424e-10        00000 
-1.27979e-05 -1.73732e-05        00000 
-5.04735e-06 -2.16344e-05        00000 
-4.10840e-06 -2.76162e-05        00000 
-3.09111e-06 -3.32182e-05        00000 
-6.67065e-07 -3.61861e-05        00000 
 2.07904e-06 -3.52312e-05        00000 
 4.01770e-06 -3.06826e-05        00000 
 4.67834e-06 -2.40540e-05        00000 
 4.25910e-06 -1.71202e-05        00000 
 3.27826e-06 -1.11720e-05        00000 
 2.21821e-06 -6.76017e-06        00000 
 1.35472e-06 -3.84338e-06        00000 
 7.63786e-07 -2.08463e-06        00000 
 4.06594e-07 -1.09714e-06        00000 
 2.09320e-07 -5.69903e-07        00000 
 1.06748e-07 -2.96447e-07        00000 
 5.50249e-08 -1.55880e-07        00000 
 2.90012e-08 -8.31432e-08        00000 
 1.56498e-08 -4.49294e-08        00000 
 8.59632e-09 -2.45147e-08        00000 
 4.76852e-09 -1.34582e-08        00000 
 2.65403e-09 -7.41420e-09        00000 
 1.47629e-09 -4.09241e-09        00000 
 8.19078e-10 -2.26188e-09        00000 
 4.52633e-10 -1.25259e-09        00000 
 2.48254e-10 -6.97416e-10        00000 
 1.33644e-10 -3.95125e-10        00000 
 6.93081e-11 -2.36326e-10        00000 
 4.44777e-11 -1.61782e-10        00000 
 8.40617e-11 -1.22005e-10        00000 
 1.36748e-05  2.01410e-05        00000 
 7.24186e-06  2.62852e-05        00000 
 6.96875e-06  3.56207e-05        00000 
 5.17974e-06  4.47390e-05        00000 
 1.06679e-06  4.95508e-05        00000 
-3.27994e-06  4.80211e-05        00000 
-6.03630e-06  4.10014e-05        00000 
-6.66233e-06  3.11742e-05        00000 
-5.71161e-06  2.13593e-05        00000 
-4.11254e-06  1.33610e-05        00000 
-2.58664e-06  7.74518e-06        00000 
-1.46016e-06  4.23395e-06        00000 
-7.57876e-07  2.22672e-06        00000 
-3.71201e-07  1.15050e-06        00000 
-1.76793e-07  5.94907e-07        00000 
-8.45621e-08  3.11625e-07        00000 
-4.17408e-08  1.66038e-07        00000 
-2.15375e-08  8.97872e-08        00000 
-1.15703e-08  4.90401e-08        00000 
-6.38383e-09  2.69327e-08        00000 
-3.56725e-09  1.48302e-08        00000 
-1.99955e-09  8.17596e-09        00000 
-1.11867e-09  4.51091e-09        00000 
-6.23374e-10  2.49110e-09        00000 
-3.45570e-10  1.37840e-09        00000 
-1.89957e-10  7.67016e-10        00000 
-1.02432e-10  4.34490e-10        00000 
-5.31949e-11  2.60001e-10        00000 
-3.41493e-11  1.78147e-10        00000 
-6.44572e-11  1.34434e-10        00000 
-1.34297e-05 -2.16464e-05        00000 
-1.08323e-05 -3.07012e-05        00000 
-1.19112e-05 -4.55691e-05        00000 
-8.57595e-06 -6.05093e-05        00000 
-1.45606e-06 -6.81643e-05        00000 
 5.45479e-06 -6.54329e-05        00000 
 9.25688e-06 -5.43609e-05        00000 
 9.53544e-06 -3.97222e-05        00000 
 7.59912e-06 -2.59401e-05        00000 
 5.05300e-06 -1.54006e-05        00000 
 2.91331e-06 -8.47908e-06        00000 
 1.49590e-06 -4.43246e-06        00000 
 7.01174e-07 -2.25902e-06        00000 
 3.08768e-07 -1.15126e-06        00000 
 1.32602e-07 -5.97231e-07        00000 
 5.81133e-08 -3.17303e-07        00000 
 2.70730e-08 -1.71980e-07        00000 
 1.36279e-08 -9.43436e-08        00000 
 7.31344e-09 -5.20197e-08        00000 
 4.07410e-09 -2.87143e-08        00000 
 2.30351e-09 -1.58435e-08        00000 
 1.30480e-09 -8.73763e-09        00000 
 7.36230e-10 -4.81875e-09        00000 
 4.13008e-10 -2.65934e-09        00000 
 2.30124e-10 -1.47055e-09        00000 
 1.26976e-10 -8.17900e-10        00000 
 6.86576e-11 -4.63211e-10        00000 
 3.57237e-11 -2.77229e-10        00000 
 2.29573e-11 -1.90022e-10        00000 
 4.33281e-11 -1.43443e-10        00000 
 1.06380e-05  2.01656e-05        00000 
 1.69679e-05  3.39436e-05        00000 
 2.05828e-05  5.82039e-05        00000 
 1.40464e-05  8.28731e-05        00000 
 1.49374e-06  9.47647e-05        00000 
-9.46451e-06  8.94221e-05        00000 
-1.43918e-05  7.15547e-05        00000 
-1.35988e-05  4.96625e-05        00000 
-9.91501e-06  3.05255e-05        00000 
-5.98625e-06  1.69935e-05        00000 
-3.10190e-06  8.80203e-06        00000 
-1.41274e-06  4.38280e-06        00000 
-5.77427e-07  2.17307e-06        00000 
-2.17202e-07  1.10384e-06        00000 
-7.82355e-08  5.81256e-07        00000 
-2.88070e-08  3.15591e-07        00000 
-1.17729e-08  1.74362e-07        00000 
-5.59670e-09  9.68978e-08        00000 
-3.01082e-09  5.38139e-08        00000 
-1.72456e-09  2.98032e-08        00000 
-1.00624e-09  1.64634e-08        00000 
-5.86010e-10  9.08083e-09        00000 
-3.38295e-10  5.00665e-09        00000 
-1.93283e-10  2.76190e-09        00000 
-1.09242e-10  1.52660e-09        00000 
-6.09198e-11  8.48754e-10        00000 
-3.31857e-11  4.80564e-10        00000 
-1.73511e-11  2.87598e-10        00000 
-1.11905e-11  1.97144e-10        00000 
-2.11696e-11  1.48838e-10        00000 
-2.57482e-06 -1.22895e-05        00000 
-2.79876e-05 -3.41437e-05        00000 
-3.60608e-05 -7.48383e-05        00000 
-2.26910e-05 -1.15917e-04        00000 
-2.09802e-07 -1.33755e-04        00000 
 1.69271e-05 -1.22678e-04        00000 
 2.24979e-05 -9.32522e-05        00000 
 1.91145e-05 -6.05252e-05        00000 
 1.24929e-05 -3.44473e-05        00000 
 6.68819e-06 -1.77108e-05        00000 
 3.01895e-06 -8.54374e-06        00000 
 1.16229e-06 -4.05275e-06        00000 
 3.79197e-07 -1.97929e-06        00000 
 1.00246e-07 -1.02090e-06        00000 
 1.74923e-08 -5.53534e-07        00000 
-1.38502e-09 -3.08759e-07        00000 
-3.38152e-09 -1.73677e-07        00000 
-2.28631e-09 -9.74479e-08        00000 
-1.23946e-09 -5.43537e-08        00000 
-6.19664e-10 -3.01528e-08        00000 
-2.98655e-10 -1.66662e-08        00000 
-1.40969e-10 -9.19420e-09        00000 
-6.56142e-11 -5.06905e-09        00000 
-3.03056e-11 -2.79591e-09        00000 
-1.40068e-11 -1.54504e-09        00000 
-6.53482e-12 -8.58762e-10        00000 
-3.08237e-12 -4.86100e-10        00000 
-1.45283e-12 -2.90851e-10        00000 
-8.55178e-13 -1.99350e-10        00000 
-1.49445e-12 -1.50501e-10        00000 
-1.60355e-05 -8.74542e-06        00000 
 4.88677e-05  2.77573e-05        00000 
 6.41881e-05  9.81646e-05        00000 
 3.58067e-05  1.67137e-04        00000 
-4.90218e-06  1.92310e-04        00000 
-3.07955e-05  1.68656e-04        00000 
-3.49647e-05  1.19487e-04        00000 
-2.60689e-05  7.09959e-05        00000 
-1.48530e-05  3.65866e-05        00000 
-6.79501e-06  1.70328e-05        00000 
-2.51540e-06  7.58221e-06        00000 
-7.16926e-07  3.46235e-06        00000 
-1.15560e-07  1.71271e-06        00000 
 3.14902e-08  9.21617e-07        00000 
 4.41464e-08  5.20886e-07        00000 
 3.04291e-08  2.98396e-07        00000 
 1.77794e-08  1.70045e-07        00000 
 9.84816e-09  9.58934e-08        00000 
 5.37281e-09  5.35736e-08        00000 
 2.92131e-09  2.97370e-08        00000 
 1.58628e-09  1.64429e-08        00000 
 8.60115e-10  9.07426e-09        00000 
 4.65837e-10  5.00420e-09        00000 
 2.52205e-10  2.76039e-09        00000 
 1.36521e-10  1.52529e-09        00000 
 7.36869e-11  8.47612e-10        00000 
 3.92314e-11  4.79653e-10        00000 
 2.02113e-11  2.86901e-10        00000 
 1.28792e-11  1.96587e-10        00000 
 2.41243e-11  1.48395e-10        00000 
 5.57536e-05  5.66848e-05        00000 
-9.05839e-05 -8.34143e-06        00000 
-1.16104e-04 -1.34465e-04        00000 
-5.39199e-05 -2.50973e-04        00000 
 1.99312e-05 -2.82088e-04        00000 
 5.61370e-05 -2.31034e-04        00000 
 5.31228e-05 -1.48496e-04        00000 
 3.36554e-05 -7.83260e-05        00000 
 1.60192e-05 -3.53615e-05        00000 
 5.83467e-06 -1.45027e-05        00000 
 1.48589e-06 -5.93901e-06        00000 
 9.65809e-08 -2.70803e-06        00000 
-1.83464e-07 -1.42957e-06        00000 
-1.62324e-07 -8.25995e-07        00000 
-1.01122e-07 -4.87781e-07        00000 
-5.68506e-08 -2.84769e-07        00000 
-3.11096e-08 -1.63196e-07        00000 
-1.70109e-08 -9.20986e-08        00000 
-9.34342e-09 -5.14444e-08        00000 
-5.14406e-09 -2.85597e-08        00000 
-2.83091e-09 -1.58003e-08        00000 
-1.55518e-09 -8.72514e-09        00000 
-8.52790e-10 -4.81404e-09        00000 
-4.66968e-10 -2.65618e-09        00000 
-2.55263e-10 -1.46775e-09        00000 
-1.38864e-10 -8.15515e-10        00000 
-7.43565e-11 -4.61349e-10        00000 
-3.84511e-11 -2.75830e-10        00000 
-2.45819e-11 -1.88915e-10        00000 
-4.61798e-11 -1.42566e-10        00000 
-1.39215e-04 -1.60830e-04        00000 
 1.77710e-04 -3.49793e-05        00000 
 2.12495e-04  2.00039e-04        00000 
 7.29821e-05  3.96539e-04        00000 
-5.88039e-05  4.21389e-04        00000 
-1.00550e-04  3.11415e-04        00000 
-7.68101e-05  1.74428e-04        00000 
-3.93994e-05  7.77680e-05        00000 
-1.44651e-05  2.90631e-05        00000 
-3.39980e-06  1.00462e-05        00000 
 3.39447e-08  3.88046e-06        00000 
 6.12227e-07  1.95855e-06        00000 
 4.71866e-07  1.18943e-06        00000 
 2.76678e-07  7.46231e-07        00000 
 1.49792e-07  4.54296e-07        00000 
 8.01334e-08  2.66831e-07        00000 
 4.33417e-08  1.52695e-07        00000 
 2.37426e-08  8.59999e-08        00000 
 1.31027e-08  4.80015e-08        00000 
 7.24706e-09  2.66573e-08        00000 
 4.00549e-09  1.47601e-08        00000 
 2.21003e-09  8.15762e-09        00000 
 1.21727e-09  4.50375e-09        00000 
 6.69419e-10  2.48585e-09        00000 
 3.67346e-10  1.37377e-09        00000 
 2.00467e-10  7.63208e-10        00000 
 1.07585e-10  4.31611e-10        00000 
 5.57110e-11  2.57890e-10        00000 
 3.56700e-11  1.76505e-10        00000 
 6.71359e-11  1.33142e-10        00000 
 3.21004e-04  3.88651e-04        00000 
-3.63446e-04  1.17126e-04        00000 
-3.87792e-04 -3.41131e-04        00000 
-7.18114e-05 -6.64886e-04        00000 
 1.50666e-04 -6.35800e-04        00000 
 1.71838e-04 -4.02393e-04        00000 
 1.00746e-04 -1.83683e-04        00000 
 3.82836e-05 -6.28858e-05        00000 
 8.57289e-06 -1.69102e-05        00000 
-4.82528e-07 -4.40037e-06        00000 
-1.78694e-06 -1.93092e-06        00000 
-1.27007e-06 -1.39720e-06        00000 
-7.05075e-07 -1.02582e-06        00000 
-3.65628e-07 -6.80052e-07        00000 
-1.89619e-07 -4.16322e-07        00000 
-1.00598e-07 -2.43034e-07        00000 
-5.45548e-08 -1.38305e-07        00000 
-2.99890e-08 -7.76922e-08        00000 
-1.65837e-08 -4.33502e-08        00000 
-9.18373e-09 -2.40931e-08        00000 
-5.08259e-09 -1.33546e-08        00000 
-2.80928e-09 -7.38784e-09        00000 
-1.55068e-09 -4.08149e-09        00000 
-8.54755e-10 -2.25364e-09        00000 
-4.70078e-10 -1.24561e-09        00000 
-2.56997e-10 -6.91951e-10        00000 
-1.38090e-10 -3.91153e-10        00000 
-7.15465e-11 -2.33501e-10        00000 
-4.58582e-11 -1.59631e-10        00000 
-8.64944e-11 -1.20332e-10        00000 
-7.55911e-04 -9.13678e-04        00000 
 7.46078e-04 -2.43198e-04        00000 
 6.77093e-04  6.99278e-04        00000 
-2.44164e-05  1.18706e-03        00000 
-3.47177e-04  9.48606e-04        00000 
-2.65494e-04  4.70647e-04        00000 
-1.08378e-04  1.51885e-04        00000 
-2.34630e-05  2.87940e-05        00000 
 1.82530e-06  9.45170e-07        00000 
 5.01191e-06 -7.30396e-07        00000 
 3.33109e-06  6.77343e-07        00000 
 1.74662e-06  1.11680e-06        00000 
 8.61934e-07  9.23657e-07        00000 
 4.30305e-07  6.12125e-07        00000 
 2.22487e-07  3.68524e-07        00000 
 1.18779e-07  2.12507e-07        00000 
 6.47181e-08  1.20233e-07        00000 
 3.56285e-08  6.74376e-08        00000 
 1.96979e-08  3.76474e-08        00000 
 1.09038e-08  2.09477e-08        00000 
 6.03519e-09  1.16245e-08        00000 
 3.33834e-09  6.43657e-09        00000 
 1.84500e-09  3.55818e-09        00000 
 1.01847e-09  1.96542e-09        00000 
 5.60928e-10  1.08650e-09        00000 
 3.07041e-10  6.03530e-10        00000 
 1.65087e-10  3.40989e-10        00000 
 8.55174e-11  2.03240e-10        00000 
 5.48510e-11  1.38649e-10        00000 
 1.03778e-10  1.04421e-10        00000 
 1.95243e-03  2.24254e-03        00000 
-1.38719e-03  3.36209e-04        00000 
-1.00108e-03 -1.73394e-03        00000 
 4.45394e-04 -2.24005e-03        00000 
 6.97519e-04 -1.32998e-03        00000 
 3.31197e-04 -4.26952e-04        00000 
 6.65061e-05 -5.10555e-05        00000 
-6.04700e-06  1.87165e-05        00000 
-1.41023e-05  1.29382e-05        00000 
-8.69993e-06  3.37842e-06        00000 
-4.27888e-06 -3.70864e-07        00000 
-1.99562e-06 -1.04150e-06        00000 
-9.53697e-07 -8.27538e-07        00000 
-4.78342e-07 -5.25099e-07        00000 
-2.50360e-07 -3.08251e-07        00000 
-1.34677e-07 -1.75785e-07        00000 
-7.35346e-08 -9.91271e-08        00000 