<?xml version="1.0" encoding="utf-8"?>
<VTKFile byte_order="LittleEndian" type="UnstructuredGrid" version="0.1">
   <UnstructuredGrid>
      <Piece NumberOfCells="3364" NumberOfPoints="1741">
         <Points>
            <DataArray Name="Points" NumberOfComponents="3" format="ascii" type="Float32">
0.0000 1.0000 0.0000
0.0000 1.0345 0.0000
0.0000 1.0690 0.0000
0.0000 1.1034 0.0000
0.0000 1.1379 0.0000
0.0000 1.1724 0.0000
0.0000 1.2069 0.0000
0.0000 1.2414 0.0000
0.0000 1.2759 0.0000
0.0000 1.3103 0.0000
0.0000 1.3448 0.0000
0.0000 1.3793 0.0000
0.0000 1.4138 0.0000
0.0000 1.4483 0.0000
0.0000 1.4828 0.0000
0.0000 1.5172 0.0000
0.0000 1.5517 0.0000
0.0000 1.5862 0.0000
0.0000 1.6207 0.0000
0.0000 1.6552 0.0000
0.0000 1.6897 0.0000
0.0000 1.7241 0.0000
0.0000 1.7586 0.0000
0.0000 1.7931 0.0000
0.0000 1.8276 0.0000
0.0000 1.8621 0.0000
0.0000 1.8966 0.0000
0.0000 1.9310 0.0000
0.0000 1.9655 0.0000
0.0000 2.0000 0.0000
0.0690 1.0000 0.0000
0.0690 1.0345 0.0000
0.0690 1.0690 0.0000
0.0690 1.1034 0.0000
0.0690 1.1379 0.0000
0.0690 1.1724 0.0000
0.0690 1.2069 0.0000
0.0690 1.2414 0.0000
0.0690 1.2759 0.0000
0.0690 1.3103 0.0000
0.0690 1.3448 0.0000
0.0690 1.3793 0.0000
0.0690 1.4138 0.0000
0.0690 1.4483 0.0000
0.0690 1.4828 0.0000
0.0690 1.5172 0.0000
0.0690 1.5517 0.0000
0.0690 1.5862 0.0000
0.0690 1.6207 0.0000
0.0690 1.6552 0.0000
0.0690 1.6897 0.0000
0.0690 1.7241 0.0000
0.0690 1.7586 0.0000
0.0690 1.7931 0.0000
0.0690 1.8276 0.0000
0.0690 1.8621 0.0000
0.0690 1.8966 0.0000
0.0690 1.9310 0.0000
0.0690 1.9655 0.0000
0.0690 2.0000 0.0000
0.1379 1.0000 0.0000
0.1379 1.0345 0.0000
0.1379 1.0690 0.0000
0.1379 1.1034 0.0000
0.1379 1.1379 0.0000
0.1379 1.1724 0.0000
0.1379 1.2069 0.0000
0.1379 1.2414 0.0000
0.1379 1.2759 0.0000
0.1379 1.3103 0.0000
0.1379 1.3448 0.0000
0.1379 1.3793 0.0000
0.1379 1.4138 0.0000
0.1379 1.4483 0.0000
0.1379 1.4828 0.0000
0.1379 1.5172 0.0000
0.1379 1.5517 0.0000
0.1379 1.5862 0.0000
0.1379 1.6207 0.0000
0.1379 1.6552 0.0000
0.1379 1.6897 0.0000
0.1379 1.7241 0.0000
0.1379 1.7586 0.0000
0.1379 1.7931 0.0000
0.1379 1.8276 0.0000
0.1379 1.8621 0.0000
0.1379 1.8966 0.0000
0.1379 1.9310 0.0000
0.1379 1.9655 0.0000
0.1379 2.0000 0.0000
0.2069 1.0000 0.0000
0.2069 1.0345 0.0000
0.2069 1.0690 0.0000
0.2069 1.1034 0.0000
0.2069 1.1379 0.0000
0.2069 1.1724 0.0000
0.2069 1.2069 0.0000
0.2069 1.2414 0.0000
0.2069 1.2759 0.0000
0.2069 1.3103 0.0000
0.2069 1.3448 0.0000
0.2069 1.3793 0.0000
0.2069 1.4138 0.0000
0.2069 1.4483 0.0000
0.2069 1.4828 0.0000
0.2069 1.5172 0.0000
0.2069 1.5517 0.0000
0.2069 1.5862 0.0000
0.2069 1.6207 0.0000
0.2069 1.6552 0.0000
0.2069 1.6897 0.0000
0.2069 1.7241 0.0000
0.2069 1.7586 0.0000
0.2069 1.7931 0.0000
0.2069 1.8276 0.0000
0.2069 1.8621 0.0000
0.2069 1.8966 0.0000
0.2069 1.9310 0.0000
0.2069 1.9655 0.0000
0.2069 2.0000 0.0000
0.2759 1.0000 0.0000
0.2759 1.0345 0.0000
0.2759 1.0690 0.0000
0.2759 1.1034 0.0000
0.2759 1.1379 0.0000
0.2759 1.1724 0.0000
0.2759 1.2069 0.0000
0.2759 1.2414 0.0000
0.2759 1.2759 0.0000
0.2759 1.3103 0.0000
0.2759 1.3448 0.0000
0.2759 1.3793 0.0000
0.2759 1.4138 0.0000
0.2759 1.4483 0.0000
0.2759 1.4828 0.0000
0.2759 1.5172 0.0000
0.2759 1.5517 0.0000
0.2759 1.5862 0.0000
0.2759 1.6207 0.0000
0.2759 1.6552 0.0000
0.2759 1.6897 0.0000
0.2759 1.7241 0.0000
0.2759 1.7586 0.0000
0.2759 1.7931 0.0000
0.2759 1.8276 0.0000
0.2759 1.8621 0.0000
0.2759 1.8966 0.0000
0.2759 1.9310 0.0000
0.2759 1.9655 0.0000
0.2759 2.0000 0.0000
0.3448 1.0000 0.0000
0.3448 1.0345 0.0000
0.3448 1.0690 0.0000
0.3448 1.1034 0.0000
0.3448 1.1379 0.0000
0.3448 1.1724 0.0000
0.3448 1.2069 0.0000
0.3448 1.2414 0.0000
0.3448 1.2759 0.0000
0.3448 1.3103 0.0000
0.3448 1.3448 0.0000
0.3448 1.3793 0.0000
0.3448 1.4138 0.0000
0.3448 1.4483 0.0000
0.3448 1.4828 0.0000
0.3448 1.5172 0.0000
0.3448 1.5517 0.0000
0.3448 1.5862 0.0000
0.3448 1.6207 0.0000
0.3448 1.6552 0.0000
0.3448 1.6897 0.0000
0.3448 1.7241 0.0000
0.3448 1.7586 0.0000
0.3448 1.7931 0.0000
0.3448 1.8276 0.0000
0.3448 1.8621 0.0000
0.3448 1.8966 0.0000
0.3448 1.9310 0.0000
0.3448 1.9655 0.0000
0.3448 2.0000 0.0000
0.4138 1.0000 0.0000
0.4138 1.0345 0.0000
0.4138 1.0690 0.0000
0.4138 1.1034 0.0000
0.4138 1.1379 0.0000
0.4138 1.1724 0.0000
0.4138 1.2069 0.0000
0.4138 1.2414 0.0000
0.4138 1.2759 0.0000
0.4138 1.3103 0.0000
0.4138 1.3448 0.0000
0.4138 1.3793 0.0000
0.4138 1.4138 0.0000
0.4138 1.4483 0.0000
0.4138 1.4828 0.0000
0.4138 1.5172 0.0000
0.4138 1.5517 0.0000
0.4138 1.5862 0.0000
0.4138 1.6207 0.0000
0.4138 1.6552 0.0000
0.4138 1.6897 0.0000
0.4138 1.7241 0.0000
0.4138 1.7586 0.0000
0.4138 1.7931 0.0000
0.4138 1.8276 0.0000
0.4138 1.8621 0.0000
0.4138 1.8966 0.0000
0.4138 1.9310 0.0000
0.4138 1.9655 0.0000
0.4138 2.0000 0.0000
0.4828 1.0000 0.0000
0.4828 1.0345 0.0000
0.4828 1.0690 0.0000
0.4828 1.1034 0.0000
0.4828 1.1379 0.0000
0.4828 1.1724 0.0000
0.4828 1.2069 0.0000
0.4828 1.2414 0.0000
0.4828 1.2759 0.0000
0.4828 1.3103 0.0000
0.4828 1.3448 0.0000
0.4828 1.3793 0.0000
0.4828 1.4138 0.0000
0.4828 1.4483 0.0000
0.4828 1.4828 0.0000
0.4828 1.5172 0.0000
0.4828 1.5517 0.0000
0.4828 1.5862 0.0000
0.4828 1.6207 0.0000
0.4828 1.6552 0.0000
0.4828 1.6897 0.0000
0.4828 1.7241 0.0000
0.4828 1.7586 0.0000
0.4828 1.7931 0.0000
0.4828 1.8276 0.0000
0.4828 1.8621 0.0000
0.4828 1.8966 0.0000
0.4828 1.9310 0.0000
0.4828 1.9655 0.0000
0.4828 2.0000 0.0000
0.5517 1.0000 0.0000
0.5517 1.0345 0.0000
0.5517 1.0690 0.0000
0.5517 1.1034 0.0000
0.5517 1.1379 0.0000
0.5517 1.1724 0.0000
0.5517 1.2069 0.0000
0.5517 1.2414 0.0000
0.5517 1.2759 0.0000
0.5517 1.3103 0.0000
0.5517 1.3448 0.0000
0.5517 1.3793 0.0000
0.5517 1.4138 0.0000
0.5517 1.4483 0.0000
0.5517 1.4828 0.0000
0.5517 1.5172 0.0000
0.5517 1.5517 0.0000
0.5517 1.5862 0.0000
0.5517 1.6207 0.0000
0.5517 1.6552 0.0000
0.5517 1.6897 0.0000
0.5517 1.7241 0.0000
0.5517 1.7586 0.0000
0.5517 1.7931 0.0000
0.5517 1.8276 0.0000
0.5517 1.8621 0.0000
0.5517 1.8966 0.0000
0.5517 1.9310 0.0000
0.5517 1.9655 0.0000
0.5517 2.0000 0.0000
0.6207 1.0000 0.0000
0.6207 1.0345 0.0000
0.6207 1.0690 0.0000
0.6207 1.1034 0.0000
0.6207 1.1379 0.0000
0.6207 1.1724 0.0000
0.6207 1.2069 0.0000
0.6207 1.2414 0.0000
0.6207 1.2759 0.0000
0.6207 1.3103 0.0000
0.6207 1.3448 0.0000
0.6207 1.3793 0.0000
0.6207 1.4138 0.0000
0.6207 1.4483 0.0000
0.6207 1.4828 0.0000
0.6207 1.5172 0.0000
0.6207 1.5517 0.0000
0.6207 1.5862 0.0000
0.6207 1.6207 0.0000
0.6207 1.6552 0.0000
0.6207 1.6897 0.0000
0.6207 1.7241 0.0000
0.6207 1.7586 0.0000
0.6207 1.7931 0.0000
0.6207 1.8276 0.0000
0.6207 1.8621 0.0000
0.6207 1.8966 0.0000
0.6207 1.9310 0.0000
0.6207 1.9655 0.0000
0.6207 2.0000 0.0000
0.6897 1.0000 0.0000
0.6897 1.0345 0.0000
0.6897 1.0690 0.0000
0.6897 1.1034 0.0000
0.6897 1.1379 0.0000
0.6897 1.1724 0.0000
0.6897 1.2069 0.0000
0.6897 1.2414 0.0000
0.6897 1.2759 0.0000
0.6897 1.3103 0.0000
0.6897 1.3448 0.0000
0.6897 1.3793 0.0000
0.6897 1.4138 0.0000
0.6897 1.4483 0.0000
0.6897 1.4828 0.0000
0.6897 1.5172 0.0000
0.6897 1.5517 0.0000
0.6897 1.5862 0.0000
0.6897 1.6207 0.0000
0.6897 1.6552 0.0000
0.6897 1.6897 0.0000
0.6897 1.7241 0.0000
0.6897 1.7586 0.0000
0.6897 1.7931 0.0000
0.6897 1.8276 0.0000
0.6897 1.8621 0.0000
0.6897 1.8966 0.0000
0.6897 1.9310 0.0000
0.6897 1.9655 0.0000
0.6897 2.0000 0.0000
0.7586 1.0000 0.0000
0.7586 1.0345 0.0000
0.7586 1.0690 0.0000
0.7586 1.1034 0.0000
0.7586 1.1379 0.0000
0.7586 1.1724 0.0000
0.7586 1.2069 0.0000
0.7586 1.2414 0.0000
0.7586 1.2759 0.0000
0.7586 1.3103 0.0000
0.7586 1.3448 0.0000
0.7586 1.3793 0.0000
0.7586 1.4138 0.0000
0.7586 1.4483 0.0000
0.7586 1.4828 0.0000
0.7586 1.5172 0.0000
0.7586 1.5517 0.0000
0.7586 1.5862 0.0000
0.7586 1.6207 0.0000
0.7586 1.6552 0.0000
0.7586 1.6897 0.0000
0.7586 1.7241 0.0000
0.7586 1.7586 0.0000
0.7586 1.7931 0.0000
0.7586 1.8276 0.0000
0.7586 1.8621 0.0000
0.7586 1.8966 0.0000
0.7586 1.9310 0.0000
0.7586 1.9655 0.0000
0.7586 2.0000 0.0000
0.8276 1.0000 0.0000
0.8276 1.0345 0.0000
0.8276 1.0690 0.0000
0.8276 1.1034 0.0000
0.8276 1.1379 0.0000
0.8276 1.1724 0.0000
0.8276 1.2069 0.0000
0.8276 1.2414 0.0000
0.8276 1.2759 0.0000
0.8276 1.3103 0.0000
0.8276 1.3448 0.0000
0.8276 1.3793 0.0000
0.8276 1.4138 0.0000
0.8276 1.4483 0.0000
0.8276 1.4828 0.0000
0.8276 1.5172 0.0000
0.8276 1.5517 0.0000
0.8276 1.5862 0.0000
0.8276 1.6207 0.0000
0.8276 1.6552 0.0000
0.8276 1.6897 0.0000
0.8276 1.7241 0.0000
0.8276 1.7586 0.0000
0.8276 1.7931 0.0000
0.8276 1.8276 0.0000
0.8276 1.8621 0.0000
0.8276 1.8966 0.0000
0.8276 1.9310 0.0000
0.8276 1.9655 0.0000
0.8276 2.0000 0.0000
0.8966 1.0000 0.0000
0.8966 1.0345 0.0000
0.8966 1.0690 0.0000
0.8966 1.1034 0.0000
0.8966 1.1379 0.0000
0.8966 1.1724 0.0000
0.8966 1.2069 0.0000
0.8966 1.2414 0.0000
0.8966 1.2759 0.0000
0.8966 1.3103 0.0000
0.8966 1.3448 0.0000
0.8966 1.3793 0.0000
0.8966 1.4138 0.0000
0.8966 1.4483 0.0000
0.8966 1.4828 0.0000
0.8966 1.5172 0.0000
0.8966 1.5517 0.0000
0.8966 1.5862 0.0000
0.8966 1.6207 0.0000
0.8966 1.6552 0.0000
0.8966 1.6897 0.0000
0.8966 1.7241 0.0000
0.8966 1.7586 0.0000
0.8966 1.7931 0.0000
0.8966 1.8276 0.0000
0.8966 1.8621 0.0000
0.8966 1.8966 0.0000
0.8966 1.9310 0.0000
0.8966 1.9655 0.0000
0.8966 2.0000 0.0000
0.9655 1.0000 0.0000
0.9655 1.0345 0.0000
0.9655 1.0690 0.0000
0.9655 1.1034 0.0000
0.9655 1.1379 0.0000
0.9655 1.1724 0.0000
0.9655 1.2069 0.0000
0.9655 1.2414 0.0000
0.9655 1.2759 0.0000
0.9655 1.3103 0.0000
0.9655 1.3448 0.0000
0.9655 1.3793 0.0000
0.9655 1.4138 0.0000
0.9655 1.4483 0.0000
0.9655 1.4828 0.0000
0.9655 1.5172 0.0000
0.9655 1.5517 0.0000
0.9655 1.5862 0.0000
0.9655 1.6207 0.0000
0.9655 1.6552 0.0000
0.9655 1.6897 0.0000
0.9655 1.7241 0.0000
0.9655 1.7586 0.0000
0.9655 1.7931 0.0000
0.9655 1.8276 0.0000
0.9655 1.8621 0.0000
0.9655 1.8966 0.0000
0.9655 1.9310 0.0000
0.9655 1.9655 0.0000
0.9655 2.0000 0.0000
1.0345 1.0000 0.0000
1.0345 1.0345 0.0000
1.0345 1.0690 0.0000
1.0345 1.1034 0.0000
1.0345 1.1379 0.0000
1.0345 1.1724 0.0000
1.0345 1.2069 0.0000
1.0345 1.2414 0.0000
1.0345 1.2759 0.0000
1.0345 1.3103 0.0000
1.0345 1.3448 0.0000
[...]
         <PointData>
            <DataArray Name="fValues" NumberOfComponents="3" format="ascii" type="Float64">
 4.41343e-21 -4.99904e-20        00000 
 1.24308e-20  3.44964e-20        00000 
-3.55341e-21  5.96972e-20        00000 
-5.35751e-22 -6.56296e-21        00000 
-3.55341e-21  1.13709e-20        00000 
-1.19558e-22  2.87914e-20        00000 
-1.77670e-21  2.84273e-21        00000 
 8.92919e-23 -1.69655e-21        00000 
 3.55341e-22 -3.90875e-21        00000 
-3.80827e-21 -1.53745e-21        00000 
 5.33011e-22  7.10681e-21        00000 
-9.18032e-22  3.06522e-21        00000 
-4.44176e-22  1.90996e-21        00000 
-3.31887e-22  1.51412e-21        00000 
-1.77670e-22 -3.33132e-22        00000 
-7.53400e-23 -2.94384e-22        00000 
-9.99396e-23  2.83162e-22        00000 
-3.44394e-23 -8.12362e-23        00000 
-2.22088e-23  1.66566e-23        00000 
 4.79595e-25  2.20396e-23        00000 
-2.42909e-24 -7.46077e-24        00000 
-1.30807e-23  1.20537e-24        00000 
 2.77610e-24  1.21454e-24        00000 
-2.92117e-24 -9.80990e-25        00000 
 1.73506e-25  5.20519e-25        00000 
-9.08387e-25  7.67117e-25        00000 
       00000  4.98830e-25        00000 
 2.45705e-26  5.56931e-25        00000 
 2.73429e-27 -3.36317e-25        00000 
 1.14080e-25 -2.38693e-25        00000 
 2.26327e-04  8.07860e-05        00000 
-4.22904e-07  7.70239e-05        00000 
-1.67961e-05  1.00659e-04        00000 
-2.37623e-05  9.57335e-05        00000 
-2.73574e-05  8.17783e-05        00000 
-2.83695e-05  6.60449e-05        00000 
-2.68817e-05  5.07918e-05        00000 
-2.35961e-05  3.72204e-05        00000 
-1.93658e-05  2.60031e-05        00000 
-1.49604e-05  1.73408e-05        00000 
-1.09368e-05  1.10615e-05        00000 
-7.60262e-06  6.77007e-06        00000 
-5.04909e-06  3.99232e-06        00000 
-3.21939e-06  2.28085e-06        00000 
-1.98113e-06  1.27099e-06        00000 
-1.18315e-06  6.96197e-07        00000 
-6.89685e-07  3.77881e-07        00000 
-3.94666e-07  2.04732e-07        00000 
-2.22902e-07  1.11328e-07        00000 
-1.24837e-07  6.09420e-08        00000 
-6.95897e-08  3.36030e-08        00000 
-3.87140e-08  1.86430e-08        00000 
-2.15273e-08  1.03890e-08        00000 
-1.19706e-08  5.80685e-09        00000 
-6.65064e-09  3.25578e-09        00000 
-3.67837e-09  1.83853e-09        00000 
-2.00185e-09  1.05850e-09        00000 
-1.04227e-09  6.16908e-10        00000 
-5.00326e-10  2.69815e-10        00000 
-1.39763e-09  2.44897e-10        00000 
-2.79762e-04 -1.88670e-04        00000 
-2.89845e-05 -2.00352e-04        00000 
 2.58482e-05 -2.10470e-04        00000 
 3.30654e-05 -1.96640e-04        00000 
 3.68970e-05 -1.68168e-04        00000 
 3.76138e-05 -1.35285e-04        00000 
 3.52320e-05 -1.03234e-04        00000 
 3.05671e-05 -7.48889e-05        00000 
 2.47674e-05 -5.17022e-05        00000 
 1.88683e-05 -3.40202e-05        00000 
 1.35923e-05 -2.13844e-05        00000 
 9.30820e-06 -1.28840e-05        00000 
 6.09201e-06 -7.47508e-06        00000 
 3.83162e-06 -4.20203e-06        00000 
 2.32949e-06 -2.30604e-06        00000 
 1.37728e-06 -1.24621e-06        00000 
 7.96706e-07 -6.69079e-07        00000 
 4.53514e-07 -3.59671e-07        00000 
 2.55353e-07 -1.94647e-07        00000 
 1.42820e-07 -1.06313e-07        00000 
 7.96017e-08 -5.85905e-08        00000 
 4.43049e-08 -3.25200e-08        00000 
 2.46530e-08 -1.81359e-08        00000 
 1.37174e-08 -1.01447e-08        00000 
 7.62438e-09 -5.69105e-09        00000 
 4.21623e-09 -3.21284e-09        00000 
 2.28956e-09 -1.84319e-09        00000 
 1.17581e-09 -1.08648e-09        00000 
 7.37407e-10 -6.88722e-10        00000 
 1.53656e-09 -5.40632e-10        00000 
 3.31330e-04  3.05408e-04        00000 
 3.97223e-05  3.31325e-04        00000 
-3.01287e-05  3.37652e-04        00000 
-4.20075e-05  3.10028e-04        00000 
-4.60669e-05  2.63873e-04        00000 
-4.61591e-05  2.11182e-04        00000 
-4.24957e-05  1.59948e-04        00000 
-3.61931e-05  1.14948e-04        00000 
-2.87282e-05  7.85142e-05        00000 
-2.13963e-05  5.10691e-05        00000 
-1.50460e-05  3.17205e-05        00000 
-1.00512e-05  1.88889e-05        00000 
-6.41910e-06  1.08415e-05        00000 
-3.94548e-06  6.03903e-06        00000 
-2.35029e-06  3.29170e-06        00000 
-1.36640e-06  1.77164e-06        00000 
-7.80458e-07  9.49847e-07        00000 
-4.40526e-07  5.10965e-07        00000 
-2.46875e-07  2.77054e-07        00000 
-1.37828e-07  1.51650e-07        00000 
-7.68220e-08  8.37234e-08        00000 
-4.27991e-08  4.65210e-08        00000 
-2.38440e-08  2.59572e-08        00000 
-1.32812e-08  1.45210e-08        00000 
-7.38708e-09  8.14440e-09        00000 
-4.08530e-09  4.59418e-09        00000 
-2.21554e-09  2.63264e-09        00000 
-1.14989e-09  1.57653e-09        00000 
-7.45849e-10  1.06272e-09        00000 
-1.48341e-09  8.06398e-10        00000 
-4.01156e-04 -4.44127e-04        00000 
-4.87762e-05 -4.82758e-04        00000 
 3.76406e-05 -4.87941e-04        00000 
 5.35366e-05 -4.43899e-04        00000 
 5.86066e-05 -3.74816e-04        00000 
 5.78189e-05 -2.97485e-04        00000 
 5.21861e-05 -2.23047e-04        00000 
 4.34297e-05 -1.58386e-04        00000 
 3.35736e-05 -1.06740e-04        00000 
 2.42781e-05 -6.84421e-05        00000 
 1.65355e-05 -4.19024e-05        00000 
 1.06836e-05 -2.46142e-05        00000 
 6.59912e-06 -1.39615e-05        00000 
 3.92984e-06 -7.70718e-06        00000 
 2.27611e-06 -4.17805e-06        00000 
 1.29316e-06 -2.24481e-06        00000 
 7.26166e-07 -1.20531e-06        00000 
 4.05419e-07 -6.50658e-07        00000 
 2.25910e-07 -3.54240e-07        00000 
 1.25890e-07 -1.94581e-07        00000 
 7.02024e-08 -1.07678e-07        00000 
 3.91708e-08 -5.99029e-08        00000 
 2.18597e-08 -3.34348e-08        00000 
 1.21931e-08 -1.87011e-08        00000 
 6.78825e-09 -1.04847e-08        00000 
 3.75564e-09 -5.91111e-09        00000 
 2.03832e-09 -3.38857e-09        00000 
 1.06293e-09 -2.04230e-09        00000 
 6.94663e-10 -1.39687e-09        00000 
 1.36122e-09 -1.05658e-09        00000 
 4.98902e-04  6.14994e-04        00000 
 5.94658e-05  6.67673e-04        00000 
-4.94363e-05  6.71634e-04        00000 
-7.01565e-05  6.06477e-04        00000 
-7.63290e-05  5.07363e-04        00000 
-7.41822e-05  3.98228e-04        00000 
-6.55406e-05  2.94643e-04        00000 
-5.31271e-05  2.06025e-04        00000 
-3.98198e-05  1.36483e-04        00000 
-2.77996e-05  8.59406e-05        00000 
-1.82144e-05  5.16736e-05        00000 
-1.12945e-05  2.98514e-05        00000 
-6.69194e-06  1.66982e-05        00000 
-3.82938e-06  9.12776e-06        00000 
-2.14057e-06  4.92353e-06        00000 
-1.18162e-06  2.64464e-06        00000 
-6.49902e-07  1.42474e-06        00000 
-3.58251e-07  7.73098e-07        00000 
-1.98422e-07  4.23100e-07        00000 
-1.10414e-07  2.33348e-07        00000 
-6.16397e-08  1.29453e-07        00000 
-3.44643e-08  7.20962e-08        00000 
-1.92734e-08  4.02480e-08        00000 
-1.07686e-08  2.25057e-08        00000 
-6.00208e-09  1.26123e-08        00000 
-3.32318e-09  7.10812e-09        00000 
-1.80540e-09  4.07633e-09        00000 
-9.43758e-10  2.46353e-09        00000 
-6.17541e-10  1.69286e-09        00000 
-1.20304e-09  1.28173e-09        00000 
-6.33132e-04 -8.30911e-04        00000 
-7.31087e-05 -9.00414e-04        00000 
 6.69220e-05 -9.01719e-04        00000 
 9.40079e-05 -8.07985e-04        00000 
 1.01274e-04 -6.68712e-04        00000 
 9.67938e-05 -5.17727e-04        00000 
 8.35555e-05 -3.76746e-04        00000 
 6.57732e-05 -2.58398e-04        00000 
 4.75944e-05 -1.67553e-04        00000 
 3.19023e-05 -1.03160e-04        00000 
 1.99731e-05 -6.06722e-05        00000 
 1.17935e-05 -3.43594e-05        00000 
 6.64511e-06 -1.89190e-05        00000 
 3.62238e-06 -1.02375e-05        00000 
 1.93915e-06 -5.50088e-06        00000 
 1.03401e-06 -2.95975e-06        00000 
 5.55186e-07 -1.60300e-06        00000 
 3.01843e-07 -8.75556e-07        00000 
 1.66224e-07 -4.81997e-07        00000 
 9.24385e-08 -2.66943e-07        00000 
 5.17004e-08 -1.48438e-07        00000 
 2.89817e-08 -8.27465e-08        00000 
 1.62464e-08 -4.61969e-08        00000 
 9.09454e-09 -2.58238e-08        00000 
 5.07589e-09 -1.44659e-08        00000 
 2.81313e-09 -8.15047e-09        00000 
 1.52982e-09 -4.67507e-09        00000 
 8.00835e-10 -2.82897e-09        00000 
 5.24092e-10 -1.94771e-09        00000 
 1.01814e-09 -1.47619e-09        00000 
 8.14794e-04  1.10863e-03        00000 
 9.05228e-05  1.19879e-03        00000 
-9.22322e-05  1.19468e-03        00000 
-1.27918e-04  1.06124e-03        00000 
-1.36131e-04  8.67356e-04        00000 
-1.27674e-04  6.60560e-04        00000 
-1.07397e-04  4.71044e-04        00000 
-8.17936e-05  3.15517e-04        00000 
-5.68547e-05  1.99296e-04        00000 
-3.63550e-05  1.19396e-04        00000 
-2.15776e-05  6.83940e-05        00000 
-1.20201e-05  3.78565e-05        00000 
-6.37432e-06  2.04955e-05        00000 
-3.27499e-06  1.09889e-05        00000 
-1.66300e-06  5.89575e-06        00000 
-8.50662e-07  3.18627e-06        00000 
-4.44311e-07  1.73855e-06        00000 
-2.38096e-07  9.56865e-07        00000 
-1.30481e-07  5.29954e-07        00000 
-7.25990e-08  2.94649e-07        00000 
-4.07141e-08  1.64173e-07        00000 
-2.28938e-08  9.15822e-08        00000 
-1.28688e-08  5.11291e-08        00000 
-7.21948e-09  2.85721e-08        00000 
-4.03600e-09  1.59998e-08        00000 
-2.23961e-09  9.01257e-09        00000 
-1.21926e-09  5.16997e-09        00000 
-6.38952e-10  3.13038e-09        00000 
-4.18229e-10  2.15719e-09        00000 
-8.11392e-10  1.63601e-09        00000 
-1.05882e-03 -1.47025e-03        00000 
-1.12492e-04 -1.58595e-03        00000 
 1.28595e-04 -1.57179e-03        00000 
 1.75947e-04 -1.38238e-03        00000 
 1.84670e-04 -1.11334e-03        00000 
 1.69544e-04 -8.31422e-04        00000 
 1.38474e-04 -5.78553e-04        00000 
 1.01523e-04 -3.76534e-04        00000 
 6.73359e-05 -2.30379e-04        00000 
 4.07270e-05 -1.33560e-04        00000 
 2.26764e-05 -7.41862e-05        00000 
 1.17672e-05 -4.00384e-05        00000 
 5.78689e-06 -2.13208e-05        00000 
 2.75783e-06 -1.13577e-05        00000 
 1.30846e-06 -6.10824e-06        00000 
 6.34778e-07 -3.32707e-06        00000 
 3.20584e-07 -1.83244e-06        00000 
 1.69087e-07 -1.01672e-06        00000 
 9.22963e-08 -5.66287e-07        00000 
 5.14493e-08 -3.15880e-07        00000 
 2.89625e-08 -1.76272e-07        00000 
 1.63492e-08 -9.83787e-08        00000 
 9.22144e-09 -5.49212e-08        00000 
 5.18801e-09 -3.06839e-08        00000 
 2.90701e-09 -1.71778e-08        00000 
 1.61609e-09 -9.67432e-09        00000 
 8.81113e-10 -5.54957e-09        00000 
 4.62301e-10 -3.36121e-09        00000 
 3.02791e-10 -2.31728e-09        00000 
 5.87271e-10 -1.75805e-09        00000 
 1.38573e-03  1.94530e-03        00000 
 1.39879e-04  2.09262e-03        00000 
-1.80797e-04  2.06095e-03        00000 
-2.44039e-04  1.79187e-03        00000 
-2.52274e-04  1.41843e-03        00000 
-2.26058e-04  1.03471e-03        00000 
-1.78398e-04  6.99002e-04        00000 
-1.25028e-04  4.39249e-04        00000 
-7.83906e-05  2.58548e-04        00000 
-4.43093e-05  1.44128e-04        00000 
-2.27891e-05  7.72833e-05        00000 
-1.07990e-05  4.06254e-05        00000 
-4.80129e-06  2.13365e-05        00000 
-2.05739e-06  1.13534e-05        00000 
-8.81651e-07  6.15424e-06        00000 
-3.93662e-07  3.39058e-06        00000 
-1.88520e-07  1.88721e-06        00000 
-9.70677e-08  1.05515e-06        00000 
-5.27178e-08  5.90427e-07        00000 
-2.94925e-08  3.30138e-07        00000 
-1.67058e-08  1.84420e-07        00000 
-9.49159e-09  1.02959e-07        00000 
-5.38587e-09  5.74783e-08        00000 
-3.04642e-09  3.21084e-08        00000 
-1.71488e-09  1.79724e-08        00000 
-9.56929e-10  1.01205e-08        00000 
-5.23239e-10  5.80524e-09        00000 
-2.75112e-10  3.51645e-09        00000 
-1.80512e-10  2.42476e-09        00000 
-3.50528e-10  1.83990e-09        00000 
-1.82378e-03 -2.57361e-03        00000 
-1.73703e-04 -2.76001e-03        00000 
 2.55880e-04 -2.69899e-03        00000 
 3.40993e-04 -2.31567e-03        00000 
 3.46737e-04 -1.79608e-03        00000 
 3.02090e-04 -1.27369e-03        00000 
 2.28791e-04 -8.29811e-04        00000 
 1.51755e-04 -4.99411e-04        00000 
 8.87301e-05 -2.80360e-04        00000 
 4.60227e-05 -1.49160e-04        00000 
 2.13188e-05 -7.69105e-05        00000 
 8.88945e-06 -3.94406e-05        00000 
 3.37341e-06 -2.05676e-05        00000 
 1.18669e-06 -1.10261e-05        00000 
 4.00700e-07 -6.06341e-06        00000 
 1.38355e-07 -3.38819e-06        00000 
 5.32612e-08 -1.90555e-06        00000 
 2.41861e-08 -1.07208e-06        00000 
 1.26625e-08 -6.01840e-07        00000 
 7.17231e-09 -3.37023e-07        00000 
 4.18883e-09 -1.88388e-07        00000 
 2.46410e-09 -1.05203e-07        00000 
 1.44604e-09 -5.87369e-08        00000 
 8.42996e-10 -3.28116e-08        00000 
 4.86802e-10 -1.83650e-08        00000 
 2.77209e-10 -1.03407e-08        00000 
 1.53867e-10 -5.93116e-09        00000 
 8.17442e-11 -3.59267e-09        00000 
 5.41904e-11 -2.47738e-09        00000 
 1.06240e-10 -1.87993e-09        00000 
 2.41195e-03  3.40937e-03        00000 
 2.15376e-04  3.64396e-03        00000 
-3.64136e-04  3.53510e-03        00000 
-4.80057e-04  2.98691e-03        00000 
-4.79542e-04  2.26102e-03        00000 
-4.04028e-04  1.54879e-03        00000 
-2.90775e-04  9.64404e-04        00000 
-1.79874e-04  5.49776e-04        00000 
-9.60655e-05  2.91006e-04        00000 
-4.43615e-05  1.46481e-04        00000 
-1.76232e-05  7.24854e-05        00000 
-5.89054e-06  3.65157e-05        00000 
-1.52859e-06  1.91506e-05        00000 
-1.92697e-07  1.04642e-05        00000 
 1.05393e-07  5.87243e-06        00000 
 1.18268e-07  3.33038e-06        00000 
 8.03732e-08  1.88899e-06        00000 
 4.78070e-08  1.06708e-06        00000 
 2.71288e-08  6.00071e-07        00000 
 1.51173e-08  3.36289e-07        00000 
 8.35128e-09  1.88060e-07        00000 
 4.58853e-09  1.05054e-07        00000 
 2.51217e-09  5.86675e-08        00000 
 1.37278e-09  3.27772e-08        00000 
 7.49318e-10  1.83463e-08        00000 
 4.07585e-10  1.03297e-08        00000 
 2.18565e-10  5.92435e-09        00000 
 1.13356e-10  3.58817e-09        00000 
 7.33111e-11  2.47403e-09        00000 
 1.40309e-10  1.87733e-09        00000 
-3.20420e-03 -4.52660e-03        00000 
-2.67622e-04 -4.82062e-03        00000 
 5.20438e-04 -4.63573e-03        00000 
 6.81808e-04 -3.84802e-03        00000 
 6.68084e-04 -2.82811e-03        00000 
 5.39900e-04 -1.85453e-03        00000 
 3.63746e-04 -1.08948e-03        00000 
 2.05149e-04 -5.78990e-04        00000 
 9.67008e-05 -2.84425e-04        00000 
 3.74751e-05 -1.34147e-04        00000 
 1.11915e-05 -6.39360e-05        00000 
 1.83318e-06 -3.21976e-05        00000 
-6.11061e-07 -1.73366e-05        00000 
-8.45615e-07 -9.77639e-06        00000 
-6.02438e-07 -5.61346e-06        00000 
-3.64521e-07 -3.22275e-06        00000 
-2.08826e-07 -1.83724e-06        00000 
-1.17692e-07 -1.03955e-06        00000 
-6.60576e-08 -5.84883e-07        00000 
-3.70023e-08 -3.27893e-07        00000 
-2.06747e-08 -1.83444e-07        00000 
-1.15191e-08 -1.02522e-07        00000 
-6.40224e-09 -5.72741e-08        00000 
-3.55146e-09 -3.20061e-08        00000 
-1.96567e-09 -1.79164e-08        00000 
-1.08199e-09 -1.00875e-08        00000 
-5.85611e-10 -5.78480e-09        00000 
-3.05735e-10 -3.50297e-09        00000 
-1.99117e-10 -2.41477e-09        00000 
-3.83770e-10 -1.83214e-09        00000 
 4.27537e-03  6.02631e-03        00000 
 3.37673e-04  6.39485e-03        00000 
-7.45881e-04  6.09229e-03        00000 
-9.79942e-04  4.95421e-03        00000 
-9.39627e-04  3.50930e-03        00000 
-7.18644e-04  2.17339e-03        00000 
-4.42546e-04  1.18072e-03        00000 
-2.19153e-04  5.70657e-04        00000 
-8.53181e-05  2.54174e-04        00000 
-2.35744e-05  1.11363e-04        00000 
-1.95996e-06  5.20914e-05        00000 
 2.96932e-06  2.71947e-05        00000 
 2.82557e-06  1.54439e-05        00000 
 1.83398e-06  9.05603e-06        00000 
 1.06060e-06  5.30159e-06        00000 
 5.92862e-07  3.06400e-06        00000 
 3.30200e-07  1.74867e-06        00000 
 1.84658e-07  9.89127e-07        00000 
 1.03568e-07  5.56438e-07        00000 
 5.80945e-08  3.12042e-07        00000 
 3.25336e-08  1.74674e-07        00000 
 1.81799e-08  9.76762e-08        00000 
 1.01391e-08  5.45921e-08        00000 
 5.64488e-09  3.05162e-08        00000 
 3.13522e-09  1.70847e-08        00000 
 1.73094e-09  9.61919e-09        00000 
 9.39002e-10  5.51544e-09        00000 
 4.91012e-10  3.33885e-09        00000 
 3.20391e-10  2.30081e-09        00000 
 6.18870e-10  1.74528e-09        00000 
-5.72858e-03 -8.04457e-03        00000 
-4.47805e-04 -8.51310e-03        00000 
 1.06955e-03 -8.03537e-03        00000 
 1.43454e-03 -6.37957e-03        00000 
 1.33826e-03 -4.30638e-03        00000 
 9.46171e-04 -2.46380e-03        00000 
 5.11407e-04 -1.19662e-03        00000 
 2.07051e-04 -5.03820e-04        00000 
 5.56257e-05 -1.95847e-04        00000 
 1.90572e-06 -7.98857e-05        00000 
-9.28816e-06 -3.89582e-05        00000 
-7.88958e-06 -2.24578e-05        00000 
-4.84657e-06 -1.37463e-05        00000 
-2.69358e-06 -8.33998e-06        00000 
-1.46382e-06 -4.92835e-06        00000 
-8.01025e-07 -2.84773e-06        00000 
-4.43793e-07 -1.62195e-06        00000 
-2.47970e-07 -9.16319e-07        00000 
-1.39035e-07 -5.15406e-07        00000 
-7.79732e-08 -2.89179e-07        00000 
-4.36755e-08 -1.61990e-07        00000 
-2.44265e-08 -9.06429e-08        00000 
-1.36415e-08 -5.06858e-08        00000 
-7.60737e-09 -2.83414e-08        00000 
-4.23229e-09 -1.58695e-08        00000 
-2.34007e-09 -8.93503e-09        00000 
-1.27081e-09 -5.12214e-09        00000 
-6.64945e-10 -3.09932e-09        00000 
-4.34381e-10 -2.13451e-09        00000 
-8.40546e-10 -1.61853e-09        00000 
 7.70032e-03  1.07557e-02        00000 
 6.68656e-04  1.13869e-02        00000 
-1.53064e-03  1.06666e-02        00000 
-2.16573e-03  8.22977e-03        00000 
-1.93482e-03  5.19093e-03        00000 
-1.21109e-03  2.63581e-03        00000 
-5.32457e-04  1.07183e-03        00000 
-1.46785e-04  3.58015e-04        00000 
-3.19102e-06  1.11966e-04        00000 
 2.56739e-05  4.54437e-05        00000 
 2.07025e-05  2.74793e-05        00000 
 1.21348e-05  1.88186e-05        00000 
 6.45967e-06  1.23306e-05        00000 
 3.39192e-06  7.58682e-06        00000 
 1.81289e-06  4.46845e-06        00000 
 9.90203e-07  2.56803e-06        00000 
 5.48972e-07  1.45789e-06        00000 
 3.06627e-07  8.22795e-07        00000 
 1.71719e-07  4.62926e-07        00000 
 9.61944e-08  2.59929e-07        00000 
 5.38527e-08  1.45720e-07        00000 
 3.01224e-08  8.15922e-08        00000 
 1.68335e-08  4.56463e-08        00000 
 9.39634e-09  2.55312e-08        00000 
 5.23294e-09  1.42983e-08        00000 
 2.89594e-09  8.05037e-09        00000 
 1.57355e-09  4.61369e-09        00000 
 8.23451e-10  2.78952e-09        00000 
 5.38411e-10  1.91926e-09        00000 
 1.04404e-09  1.45443e-09        00000 
-1.03396e-02 -1.43442e-02        00000 
-1.21987e-03 -1.53476e-02        00000 
 2.18493e-03 -1.43526e-02        00000 
 3.44313e-03 -1.06652e-02        00000 
 2.82787e-03 -6.04359e-03        00000 
 1.44164e-03 -2.50430e-03        00000 
 4.29963e-04 -7.18923e-04        00000 
 1.57819e-05 -1.29232e-04        00000 
-6.81844e-05 -1.88988e-05        00000 
-5.34175e-05 -1.75838e-05        00000 
-2.98303e-05 -2.03049e-05        00000 
-1.51038e-05 -1.64720e-05        00000 
-7.60896e-06 -1.10203e-05        00000 
-3.94993e-06 -6.70251e-06        00000 
-2.11799e-06 -3.89929e-06        00000 
-1.16105e-06 -2.22558e-06        00000 
-6.44045e-07 -1.26039e-06        00000 