<?xml version="1.0" encoding="utf-8"?>
<VTKFile byte_order="LittleEndian" type="UnstructuredGrid" version="0.1">
   <UnstructuredGrid>
      <Piece NumberOfCells="3364" NumberOfPoints="1741">
         <Points>
            <DataArray Name="Points" NumberOfComponents="3" format="ascii" type="Float32">
0.0000 1.0000 0.0000
0.0000 1.0345 0.0000
0.0000 1.0690 0.0000
0.0000 1.1034 0.0000
0.0000 1.1379 0.0000
0.0000 1.1724 0.0000
0.0000 1.2069 0.0000
0.0000 1.2414 0.0000
0.0000 1.2759 0.0000
0.0000 1.3103 0.0000
0.0000 1.3448 0.0000
0.0000 1.3793 0.0000
0.0000 1.4138 0.0000
0.0000 1.4483 0.0000
0.0000 1.4828 0.0000
0.0000 1.5172 0.0000
0.0000 1.5517 0.0000
0.0000 1.5862 0.0000
0.0000 1.6207 0.0000
0.0000 1.6552 0.0000
0.0000 1.6897 0.0000
0.0000 1.7241 0.0000
0.0000 1.7586 0.0000
0.0000 1.7931 0.0000
0.0000 1.8276 0.0000
0.0000 1.8621 0.0000
0.0000 1.8966 0.0000
0.0000 1.9310 0.0000
0.0000 1.9655 0.0000
0.0000 2.0000 0.0000
0.0690 1.0000 0.0000
0.0690 1.0345 0.0000
0.0690 1.0690 0.0000
0.0690 1.1034 0.0000
0.0690 1.1379 0.0000
0.0690 1.1724 0.0000
0.0690 1.2069 0.0000
0.0690 1.2414 0.0000
0.0690 1.2759 0.0000
0.0690 1.3103 0.0000
0.0690 1.3448 0.0000
0.0690 1.3793 0.0000
0.0690 1.4138 0.0000
0.0690 1.4483 0.0000
0.0690 1.4828 0.0000
0.0690 1.5172 0.0000
0.0690 1.5517 0.0000
0.0690 1.5862 0.0000
0.0690 1.6207 0.0000
0.0690 1.6552 0.0000
0.0690 1.6897 0.0000
0.0690 1.7241 0.0000
0.0690 1.7586 0.0000
0.0690 1.7931 0.0000
0.0690 1.8276 0.0000
0.0690 1.8621 0.0000
0.0690 1.8966 0.0000
0.0690 1.9310 0.0000
0.0690 1.9655 0.0000
0.0690 2.0000 0.0000
0.1379 1.0000 0.0000
0.1379 1.0345 0.0000
0.1379 1.0690 0.0000
0.1379 1.1034 0.0000
0.1379 1.1379 0.0000
0.1379 1.1724 0.0000
0.1379 1.2069 0.0000
0.1379 1.2414 0.0000
0.1379 1.2759 0.0000
0.1379 1.3103 0.0000
0.1379 1.3448 0.0000
0.1379 1.3793 0.0000
0.1379 1.4138 0.0000
0.1379 1.4483 0.0000
0.1379 1.4828 0.0000
0.1379 1.5172 0.0000
0.1379 1.5517 0.0000
0.1379 1.5862 0.0000
0.1379 1.6207 0.0000
0.1379 1.6552 0.0000
0.1379 1.6897 0.0000
0.1379 1.7241 0.0000
0.1379 1.7586 0.0000
0.1379 1.7931 0.0000
0.1379 1.8276 0.0000
0.1379 1.8621 0.0000
0.1379 1.8966 0.0000
0.1379 1.9310 0.0000
0.1379 1.9655 0.0000
0.1379 2.0000 0.0000
0.2069 1.0000 0.0000
0.2069 1.0345 0.0000
0.2069 1.0690 0.0000
0.2069 1.1034 0.0000
0.2069 1.1379 0.0000
0.2069 1.1724 0.0000
0.2069 1.2069 0.0000
0.2069 1.2414 0.0000
0.2069 1.2759 0.0000
0.2069 1.3103 0.0000
0.2069 1.3448 0.0000
0.2069 1.3793 0.0000
0.2069 1.4138 0.0000
0.2069 1.4483 0.0000
0.2069 1.4828 0.0000
0.2069 1.5172 0.0000
0.2069 1.5517 0.0000
0.2069 1.5862 0.0000
0.2069 1.6207 0.0000
0.2069 1.6552 0.0000
0.2069 1.6897 0.0000
0.2069 1.7241 0.0000
0.2069 1.7586 0.0000
0.2069 1.7931 0.0000
0.2069 1.8276 0.0000
0.2069 1.8621 0.0000
0.2069 1.8966 0.0000
0.2069 1.9310 0.0000
0.2069 1.9655 0.0000
0.2069 2.0000 0.0000
0.2759 1.0000 0.0000
0.2759 1.0345 0.0000
0.2759 1.0690 0.0000
0.2759 1.1034 0.0000
0.2759 1.1379 0.0000
0.2759 1.1724 0.0000
0.2759 1.2069 0.0000
0.2759 1.2414 0.0000
0.2759 1.2759 0.0000
0.2759 1.3103 0.0000
0.2759 1.3448 0.0000
0.2759 1.3793 0.0000
0.2759 1.4138 0.0000
0.2759 1.4483 0.0000
0.2759 1.4828 0.0000
0.2759 1.5172 0.0000
0.2759 1.5517 0.0000
0.2759 1.5862 0.0000
0.2759 1.6207 0.0000
0.2759 1.6552 0.0000
0.2759 1.6897 0.0000
0.2759 1.7241 0.0000
0.2759 1.7586 0.0000
0.2759 1.7931 0.0000
0.2759 1.8276 0.0000
0.2759 1.8621 0.0000
0.2759 1.8966 0.0000
0.2759 1.9310 0.0000
0.2759 1.9655 0.0000
0.2759 2.0000 0.0000
0.3448 1.0000 0.0000
0.3448 1.0345 0.0000
0.3448 1.0690 0.0000
0.3448 1.1034 0.0000
0.3448 1.1379 0.0000
0.3448 1.1724 0.0000
0.3448 1.2069 0.0000
0.3448 1.2414 0.0000
0.3448 1.2759 0.0000
0.3448 1.3103 0.0000
0.3448 1.3448 0.0000
0.3448 1.3793 0.0000
0.3448 1.4138 0.0000
0.3448 1.4483 0.0000
0.3448 1.4828 0.0000
0.3448 1.5172 0.0000
0.3448 1.5517 0.0000
0.3448 1.5862 0.0000
0.3448 1.6207 0.0000
0.3448 1.6552 0.0000
0.3448 1.6897 0.0000
0.3448 1.7241 0.0000
0.3448 1.7586 0.0000
0.3448 1.7931 0.0000
0.3448 1.8276 0.0000
0.3448 1.8621 0.0000
0.3448 1.8966 0.0000
0.3448 1.9310 0.0000
0.3448 1.9655 0.0000
0.3448 2.0000 0.0000
0.4138 1.0000 0.0000
0.4138 1.0345 0.0000
0.4138 1.0690 0.0000
0.4138 1.1034 0.0000
0.4138 1.1379 0.0000
0.4138 1.1724 0.0000
0.4138 1.2069 0.0000
0.4138 1.2414 0.0000
0.4138 1.2759 0.0000
0.4138 1.3103 0.0000
0.4138 1.3448 0.0000
0.4138 1.3793 0.0000
0.4138 1.4138 0.0000
0.4138 1.4483 0.0000
0.4138 1.4828 0.0000
0.4138 1.5172 0.0000
0.4138 1.5517 0.0000
0.4138 1.5862 0.0000
0.4138 1.6207 0.0000
0.4138 1.6552 0.0000
0.4138 1.6897 0.0000
0.4138 1.7241 0.0000
0.4138 1.7586 0.0000
0.4138 1.7931 0.0000
0.4138 1.8276 0.0000
0.4138 1.8621 0.0000
0.4138 1.8966 0.0000
0.4138 1.9310 0.0000
0.4138 1.9655 0.0000
0.4138 2.0000 0.0000
0.4828 1.0000 0.0000
0.4828 1.0345 0.0000
0.4828 1.0690 0.0000
0.4828 1.1034 0.0000
0.4828 1.1379 0.0000
0.4828 1.1724 0.0000
0.4828 1.2069 0.0000
0.4828 1.2414 0.0000
0.4828 1.2759 0.0000
0.4828 1.3103 0.0000
0.4828 1.3448 0.0000
0.4828 1.3793 0.0000
0.4828 1.4138 0.0000
0.4828 1.4483 0.0000
0.4828 1.4828 0.0000
0.4828 1.5172 0.0000
0.4828 1.5517 0.0000
0.4828 1.5862 0.0000
0.4828 1.6207 0.0000
0.4828 1.6552 0.0000
0.4828 1.6897 0.0000
0.4828 1.7241 0.0000
0.4828 1.7586 0.0000
0.4828 1.7931 0.0000
0.4828 1.8276 0.0000
0.4828 1.8621 0.0000
0.4828 1.8966 0.0000
0.4828 1.9310 0.0000
0.4828 1.9655 0.0000
0.4828 2.0000 0.0000
0.5517 1.0000 0.0000
0.5517 1.0345 0.0000
0.5517 1.0690 0.0000
0.5517 1.1034 0.0000
0.5517 1.1379 0.0000
0.5517 1.1724 0.0000
0.5517 1.2069 0.0000
0.5517 1.2414 0.0000
0.5517 1.2759 0.0000
0.5517 1.3103 0.0000
0.5517 1.3448 0.0000
0.5517 1.3793 0.0000
0.5517 1.4138 0.0000
0.5517 1.4483 0.0000
0.5517 1.4828 0.0000
0.5517 1.5172 0.0000
0.5517 1.5517 0.0000
0.5517 1.5862 0.0000
0.5517 1.6207 0.0000
0.5517 1.6552 0.0000
0.5517 1.6897 0.0000
0.5517 1.7241 0.0000
0.5517 1.7586 0.0000
0.5517 1.7931 0.0000
0.5517 1.8276 0.0000
0.5517 1.8621 0.0000
0.5517 1.8966 0.0000
0.5517 1.9310 0.0000
0.5517 1.9655 0.0000
0.5517 2.0000 0.0000
0.6207 1.0000 0.0000
0.6207 1.0345 0.0000
0.6207 1.0690 0.0000
0.6207 1.1034 0.0000
0.6207 1.1379 0.0000
0.6207 1.1724 0.0000
0.6207 1.2069 0.0000
0.6207 1.2414 0.0000
0.6207 1.2759 0.0000
0.6207 1.3103 0.0000
0.6207 1.3448 0.0000
0.6207 1.3793 0.0000
0.6207 1.4138 0.0000
0.6207 1.4483 0.0000
0.6207 1.4828 0.0000
0.6207 1.5172 0.0000
0.6207 1.5517 0.0000
0.6207 1.5862 0.0000
0.6207 1.6207 0.0000
0.6207 1.6552 0.0000
0.6207 1.6897 0.0000
0.6207 1.7241 0.0000
0.6207 1.7586 0.0000
0.6207 1.7931 0.0000
0.6207 1.8276 0.0000
0.6207 1.8621 0.0000
0.6207 1.8966 0.0000
0.6207 1.9310 0.0000
0.6207 1.9655 0.0000
0.6207 2.0000 0.0000
0.6897 1.0000 0.0000
0.6897 1.0345 0.0000
0.6897 1.0690 0.0000
0.6897 1.1034 0.0000
0.6897 1.1379 0.0000
0.6897 1.1724 0.0000
0.6897 1.2069 0.0000
0.6897 1.2414 0.0000
0.6897 1.2759 0.0000
0.6897 1.3103 0.0000
0.6897 1.3448 0.0000
0.6897 1.3793 0.0000
0.6897 1.4138 0.0000
0.6897 1.4483 0.0000
0.6897 1.4828 0.0000
0.6897 1.5172 0.0000
0.6897 1.5517 0.0000
0.6897 1.5862 0.0000
0.6897 1.6207 0.0000
0.6897 1.6552 0.0000
0.6897 1.6897 0.0000
0.6897 1.7241 0.0000
0.6897 1.7586 0.0000
0.6897 1.7931 0.0000
0.6897 1.8276 0.0000
0.6897 1.8621 0.0000
0.6897 1.8966 0.0000
0.6897 1.9310 0.0000
0.6897 1.9655 0.0000
0.6897 2.0000 0.0000
0.7586 1.0000 0.0000
0.7586 1.0345 0.0000
0.7586 1.0690 0.0000
0.7586 1.1034 0.0000
0.7586 1.1379 0.0000
0.7586 1.1724 0.0000
0.7586 1.2069 0.0000
0.7586 1.2414 0.0000
0.7586 1.2759 0.0000
0.7586 1.3103 0.0000
0.7586 1.3448 0.0000
0.7586 1.3793 0.0000
0.7586 1.4138 0.0000
0.7586 1.4483 0.0000
0.7586 1.4828 0.0000
0.7586 1.5172 0.0000
0.7586 1.5517 0.0000
0.7586 1.5862 0.0000
0.7586 1.6207 0.0000
0.7586 1.6552 0.0000
0.7586 1.6897 0.0000
0.7586 1.7241 0.0000
0.7586 1.7586 0.0000
0.7586 1.7931 0.0000
0.7586 1.8276 0.0000
0.7586 1.8621 0.0000
0.7586 1.8966 0.0000
0.7586 1.9310 0.0000
0.7586 1.9655 0.0000
0.7586 2.0000 0.0000
0.8276 1.0000 0.0000
0.8276 1.0345 0.0000
0.8276 1.0690 0.0000
0.8276 1.1034 0.0000
0.8276 1.1379 0.0000
0.8276 1.1724 0.0000
0.8276 1.2069 0.0000
0.8276 1.2414 0.0000
0.8276 1.2759 0.0000
0.8276 1.3103 0.0000
0.8276 1.3448 0.0000
0.8276 1.3793 0.0000
0.8276 1.4138 0.0000
0.8276 1.4483 0.0000
0.8276 1.4828 0.0000
0.8276 1.5172 0.0000
0.8276 1.5517 0.0000
0.8276 1.5862 0.0000
0.8276 1.6207 0.0000
0.8276 1.6552 0.0000
0.8276 1.6897 0.0000
0.8276 1.7241 0.0000
0.8276 1.7586 0.0000
0.8276 1.7931 0.0000
0.8276 1.8276 0.0000
0.8276 1.8621 0.0000
0.8276 1.8966 0.0000
0.8276 1.9310 0.0000
0.8276 1.9655 0.0000
0.8276 2.0000 0.0000
0.8966 1.0000 0.0000
0.8966 1.0345 0.0000
0.8966 1.0690 0.0000
0.8966 1.1034 0.0000
0.8966 1.1379 0.0000
0.8966 1.1724 0.0000
0.8966 1.2069 0.0000
0.8966 1.2414 0.0000
0.8966 1.2759 0.0000
0.8966 1.3103 0.0000
0.8966 1.3448 0.0000
0.8966 1.3793 0.0000
0.8966 1.4138 0.0000
0.8966 1.4483 0.0000
0.8966 1.4828 0.0000
0.8966 1.5172 0.0000
0.8966 1.5517 0.0000
0.8966 1.5862 0.0000
0.8966 1.6207 0.0000
0.8966 1.6552 0.0000
0.8966 1.6897 0.0000
0.8966 1.7241 0.0000
0.8966 1.7586 0.0000
0.8966 1.7931 0.0000
0.8966 1.8276 0.0000
0.8966 1.8621 0.0000
0.8966 1.8966 0.0000
0.8966 1.9310 0.0000
0.8966 1.9655 0.0000
0.8966 2.0000 0.0000
0.9655 1.0000 0.0000
0.9655 1.0345 0.0000
0.9655 1.0690 0.0000
0.9655 1.1034 0.0000
0.9655 1.1379 0.0000
0.9655 1.1724 0.0000
0.9655 1.2069 0.0000
0.9655 1.2414 0.0000
0.9655 1.2759 0.0000
0.9655 1.3103 0.0000
0.9655 1.3448 0.0000
0.9655 1.3793 0.0000
0.9655 1.4138 0.0000
0.9655 1.4483 0.0000
0.9655 1.4828 0.0000
0.9655 1.5172 0.0000
0.9655 1.5517 0.0000
0.9655 1.5862 0.0000
0.9655 1.6207 0.0000
0.9655 1.6552 0.0000
0.9655 1.6897 0.0000
0.9655 1.7241 0.0000
0.9655 1.7586 0.0000
0.9655 1.7931 0.0000
0.9655 1.8276 0.0000
0.9655 1.8621 0.0000
0.9655 1.8966 0.0000
0.9655 1.9310 0.0000
0.9655 1.9655 0.0000
0.9655 2.0000 0.0000
1.0345 1.0000 0.0000
1.0345 1.0345 0.0000
1.0345 1.0690 0.0000
1.0345 1.1034 0.0000
1.0345 1.1379 0.0000
1.0345 1.1724 0.0000
1.0345 1.2069 0.0000
1.0345 1.2414 0.0000
1.0345 1.2759 0.0000
1.0345 1.3103 0.0000
1.0345 1.3448 0.0000
[...]
         <PointData>
            <DataArray Name="fValues" NumberOfComponents="3" format="ascii" type="Float64">
 4.38645e-26 -2.93801e-25        00000 
-1.75458e-25 -1.57912e-24        00000 
 6.94025e-25  5.20519e-24        00000 
 7.41193e-25 -4.33816e-24        00000 
 6.94025e-25  1.21454e-23        00000 
 1.12101e-24 -3.50693e-23        00000 
 4.51116e-24  2.13413e-23        00000 
-1.30799e-24  6.03854e-23        00000 
 2.49849e-23  3.33132e-23        00000 
 2.68997e-23  4.40962e-23        00000 
 4.99698e-23  2.24864e-22        00000 
 1.18591e-23  1.54866e-22        00000 
 6.66264e-23  3.99758e-22        00000 
 2.49039e-25  5.94534e-22        00000 
 2.88714e-22  7.32890e-22        00000 
-1.52773e-22  2.30206e-22        00000 
 1.33253e-22  1.24369e-21        00000 
 6.17960e-23  8.19789e-22        00000 
       00000  1.11044e-21        00000 
-6.13882e-23 -1.86955e-22        00000 
-6.66264e-23  1.55462e-21        00000 
 7.01975e-23  3.03511e-21        00000 
-1.55462e-22  5.77429e-22        00000 
-2.59505e-22  2.53924e-22        00000 
-1.55462e-22 -8.88352e-23        00000 
-1.86422e-22 -7.76842e-22        00000 
       00000 -3.99758e-22        00000 
-4.61270e-23 -1.41177e-22        00000 
-5.59982e-23  1.14236e-21        00000 
-2.21036e-22  2.29980e-21        00000 
 8.97560e-09  1.61730e-09        00000 
 3.12748e-09  1.78522e-09        00000 
 6.46168e-09  4.03442e-09        00000 
 1.22794e-08  6.93099e-09        00000 
 2.21716e-08  1.21397e-08        00000 
 3.89746e-08  2.18086e-08        00000 
 6.71553e-08  3.95607e-08        00000 
 1.13171e-07  7.17207e-08        00000 
 1.85515e-07  1.28800e-07        00000 
 2.93807e-07  2.27081e-07        00000 
 4.46205e-07  3.89580e-07        00000 
 6.44586e-07  6.45047e-07        00000 
 8.77772e-07  1.02325e-06        00000 
 1.11465e-06  1.54524e-06        00000 
 1.30091e-06  2.20886e-06        00000 
 1.36420e-06  2.97326e-06        00000 
 1.23079e-06  3.74901e-06        00000 
 8.52406e-07  4.40241e-06        00000 
 2.34489e-07  4.77910e-06        00000 
-5.47443e-07  4.74486e-06        00000 
-1.35585e-06  4.23125e-06        00000 
-2.02669e-06  3.26768e-06        00000 
-2.42162e-06  1.98355e-06        00000 
-2.47513e-06  5.75114e-07        00000 
-2.21505e-06 -7.51826e-07        00000 
-1.74688e-06 -1.83906e-06        00000 
-1.21462e-06 -2.59345e-06        00000 
-7.05258e-07 -2.86909e-06        00000 
-8.23829e-08 -2.22046e-06        00000 
 6.34301e-06 -2.31241e-06        00000 
-9.88781e-09 -3.57433e-09        00000 
-4.64402e-09 -4.54603e-09        00000 
-7.29289e-09 -7.15797e-09        00000 
-1.40666e-08 -1.21759e-08        00000 
-2.55045e-08 -2.14626e-08        00000 
-4.50114e-08 -3.87724e-08        00000 
-7.80116e-08 -7.08802e-08        00000 
-1.32589e-07 -1.29878e-07        00000 
-2.19824e-07 -2.36374e-07        00000 
-3.53066e-07 -4.23201e-07        00000 
-5.45058e-07 -7.38243e-07        00000 
-8.01864e-07 -1.24351e-06        00000 
-1.11345e-06 -2.00644e-06        00000 
-1.44292e-06 -3.07976e-06        00000 
-1.71943e-06 -4.46969e-06        00000 
-1.84229e-06 -6.09938e-06        00000 
-1.70246e-06 -7.78301e-06        00000 
-1.22114e-06 -9.23041e-06        00000 
-3.94068e-07 -1.00968e-05        00000 
 6.79487e-07 -1.00746e-05        00000 
 1.80410e-06 -9.00040e-06        00000 
 2.73956e-06 -6.93239e-06        00000 
 3.28067e-06 -4.15894e-06        00000 
 3.33159e-06 -1.12336e-06        00000 
 2.93927e-06  1.70840e-06        00000 
 2.27203e-06  3.97731e-06        00000 
 1.55131e-06  5.48033e-06        00000 
 9.31261e-07  6.07843e-06        00000 
-7.85397e-07  5.76089e-06        00000 
-7.85323e-06  5.38027e-06        00000 
 9.58490e-09  5.34230e-09        00000 
 4.71366e-09  7.02131e-09        00000 
 7.14847e-09  1.04066e-08        00000 
 1.36493e-08  1.74059e-08        00000 
 2.48506e-08  3.06574e-08        00000 
 4.41121e-08  5.53310e-08        00000 
 7.71699e-08  1.01112e-07        00000 
 1.32988e-07  1.85553e-07        00000 
 2.24639e-07  3.39113e-07        00000 
 3.69258e-07  6.11468e-07        00000 
 5.85621e-07  1.07717e-06        00000 
 8.87519e-07  1.83623e-06        00000 
 1.27172e-06  3.00276e-06        00000 
 1.70191e-06  4.67438e-06        00000 
 2.09479e-06  6.87984e-06        00000 
 2.31922e-06  9.51453e-06        00000 
 2.22031e-06  1.22889e-05        00000 
 1.67200e-06  1.47264e-05        00000 
 6.44728e-07  1.62414e-05        00000 
-7.43361e-07  1.62954e-05        00000 
-2.22767e-06  1.45889e-05        00000 
-3.46786e-06  1.12061e-05        00000 
-4.16773e-06  6.63712e-06        00000 
-4.19073e-06  1.64779e-06        00000 
-3.61341e-06 -2.95631e-06        00000 
-2.68982e-06 -6.56470e-06        00000 
-1.74186e-06 -8.87670e-06        00000 
-8.93911e-07 -9.84467e-06        00000 
 1.20594e-06 -9.50581e-06        00000 
 9.29540e-06 -8.65036e-06        00000 
-8.85419e-09 -7.01850e-09        00000 
-4.41196e-09 -9.25067e-09        00000 
-6.63298e-09 -1.35060e-08        00000 
-1.26139e-08 -2.24009e-08        00000 
-2.30212e-08 -3.93118e-08        00000 
-4.11454e-08 -7.07143e-08        00000 
-7.28448e-08 -1.28840e-07        00000 
-1.27843e-07 -2.36158e-07        00000 
-2.21385e-07 -4.32431e-07        00000 
-3.75348e-07 -7.84282e-07        00000 
-6.16969e-07 -1.39518e-06        00000 
-9.72222e-07 -2.41000e-06        00000 
-1.45081e-06 -4.00362e-06        00000 
-2.02254e-06 -6.34063e-06        00000 
-2.59170e-06 -9.49816e-06        00000 
-2.98572e-06 -1.33616e-05        00000 
-2.97914e-06 -1.75304e-05        00000 
-2.36585e-06 -2.12945e-05        00000 
-1.06527e-06 -2.37401e-05        00000 
 7.85506e-07 -2.39947e-05        00000 
 2.81676e-06 -2.15455e-05        00000 
 4.52578e-06 -1.64933e-05        00000 
 5.46469e-06 -9.60471e-06        00000 
 5.42850e-06 -2.10284e-06        00000 
 4.54275e-06  4.72722e-06        00000 
 3.20216e-06  9.93919e-06        00000 
 1.88138e-06  1.31366e-05        00000 
 7.87444e-07  1.43722e-05        00000 
-1.67442e-06  1.37871e-05        00000 
-1.11786e-05  1.24342e-05        00000 
 7.90690e-09  8.54455e-09        00000 
 3.95434e-09  1.12487e-08        00000 
 5.92976e-09  1.63348e-08        00000 
 1.12566e-08  2.69588e-08        00000 
 2.05922e-08  4.71141e-08        00000 
 3.70722e-08  8.43655e-08        00000 
 6.65390e-08  1.53027e-07        00000 
 1.19327e-07  2.79692e-07        00000 
 2.12926e-07  5.12432e-07        00000 
 3.74803e-07  9.34328e-07        00000 
 6.43261e-07  1.67973e-06        00000 
 1.06199e-06  2.94645e-06        00000 
 1.66238e-06  4.98910e-06        00000 
 2.42990e-06  8.07206e-06        00000 
 3.26004e-06  1.23634e-05        00000 
 3.92633e-06  1.77740e-05        00000 
 4.09742e-06  2.37916e-05        00000 
 3.43425e-06  2.94078e-05        00000 
 1.75828e-06  3.32449e-05        00000 
-7.81749e-07  3.39246e-05        00000 
-3.65718e-06  3.05845e-05        00000 
-6.10039e-06  2.33175e-05        00000 
-7.40832e-06  1.32860e-05        00000 
-7.25922e-06  2.39506e-06        00000 
-5.86165e-06 -7.35755e-06        00000 
-3.84649e-06 -1.45481e-05        00000 
-1.95460e-06 -1.86761e-05        00000 
-5.39871e-07 -1.99926e-05        00000 
 2.33264e-06 -1.89014e-05        00000 
 1.36752e-05 -1.69051e-05        00000 
-6.80067e-09 -9.88487e-09        00000 
-3.40278e-09 -1.29978e-08        00000 
-5.09477e-09 -1.88251e-08        00000 
-9.66367e-09 -3.09615e-08        00000 
-1.77185e-08 -5.38880e-08        00000 
-3.21328e-08 -9.60009e-08        00000 
-5.85266e-08 -1.73152e-07        00000 
-1.07520e-07 -3.15044e-07        00000 
-1.98546e-07 -5.76494e-07        00000 
-3.64961e-07 -1.05550e-06        00000 
-6.58396e-07 -1.91790e-06        00000 
-1.14664e-06 -3.42215e-06        00000 
-1.89516e-06 -5.92521e-06        00000 
-2.92184e-06 -9.83639e-06        00000 
-4.12576e-06 -1.54808e-05        00000 
-5.21778e-06 -2.28605e-05        00000 
-5.71386e-06 -3.13721e-05        00000 
-5.05846e-06 -3.96294e-05        00000 
-2.88911e-06 -4.55892e-05        00000 
 6.62497e-07 -4.70887e-05        00000 
 4.83355e-06 -4.26799e-05        00000 
 8.42512e-06 -3.23893e-05        00000 
 1.03030e-05 -1.79606e-05        00000 
 9.94579e-06 -2.34770e-06        00000 
 7.70507e-06  1.13557e-05        00000 
 4.61395e-06  2.10216e-05        00000 
 1.85441e-06  2.60542e-05        00000 
 1.33400e-08  2.71046e-05        00000 
-3.29756e-06  2.51094e-05        00000 
-1.68497e-05  2.22186e-05        00000 
 5.56426e-09  1.10133e-08        00000 
 2.78175e-09  1.44702e-08        00000 
 4.15900e-09  2.09254e-08        00000 
 7.88590e-09  3.43267e-08        00000 
 1.44910e-08  5.95217e-08        00000 
 2.64690e-08  1.05481e-07        00000 
 4.89508e-08  1.89027e-07        00000 
 9.23148e-08  3.41785e-07        00000 
 1.77133e-07  6.23176e-07        00000 
 3.42034e-07  1.14309e-06        00000 
 6.53161e-07  2.09683e-06        00000 
 1.20883e-06  3.80833e-06        00000 
 2.12465e-06  6.76042e-06        00000 
 3.47812e-06  1.15646e-05        00000 
 5.20052e-06  1.88012e-05        00000 
 6.94360e-06  2.86797e-05        00000 
 8.01421e-06  4.05717e-05        00000 
 7.51092e-06  5.26331e-05        00000 
 4.73090e-06  6.18651e-05        00000 
-2.89003e-07  6.48735e-05        00000 
-6.45154e-06  5.92130e-05        00000 
-1.18521e-05  4.47147e-05        00000 
-1.46187e-05  2.39883e-05        00000 
-1.38835e-05  1.63849e-06        00000 
-1.02509e-05 -1.75156e-05        00000 
-5.44491e-06 -3.02870e-05        00000 
-1.37318e-06 -3.60368e-05        00000 
 1.02047e-06 -3.61823e-05        00000 
 4.71357e-06 -3.26432e-05        00000 
 2.07047e-05 -2.84796e-05        00000 
-4.22266e-09 -1.19085e-08        00000 
-2.10750e-09 -1.56385e-08        00000 
-3.14676e-09 -2.25926e-08        00000 
-5.96785e-09 -3.69895e-08        00000 
-1.09949e-08 -6.39355e-08        00000 
-2.02359e-08 -1.12749e-07        00000 
-3.80417e-08 -2.00694e-07        00000 
-7.38640e-08 -3.60095e-07        00000 
-1.48086e-07 -6.52366e-07        00000 
-3.02735e-07 -1.19461e-06        00000 
-6.17573e-07 -2.20566e-06        00000 
-1.22609e-06 -4.07345e-06        00000 
-2.31256e-06 -7.42549e-06        00000 
-4.05410e-06 -1.31413e-05        00000 
-6.46946e-06 -2.21932e-05        00000 
-9.18465e-06 -3.51932e-05        00000 
-1.12420e-05 -5.16470e-05        00000 
-1.12010e-05 -6.92065e-05        00000 
-7.73710e-06 -8.35166e-05        00000 
-6.06337e-07 -8.92354e-05        00000 
 8.63971e-06 -8.21986e-05        00000 
 1.69312e-05 -6.17631e-05        00000 
 2.11077e-05 -3.18421e-05        00000 
 1.96884e-05  3.09067e-07        00000 
 1.37363e-05  2.71004e-05        00000 
 6.18539e-06  4.37344e-05        00000 
 1.41759e-07  4.96810e-05        00000 
-2.92712e-06  4.77773e-05        00000 
-6.77807e-06  4.16703e-05        00000 
-2.51434e-05  3.56837e-05        00000 
 2.80196e-09  1.25532e-08        00000 
 1.39435e-09  1.64794e-08        00000 
 2.07955e-09  2.37912e-08        00000 
 3.95065e-09  3.88963e-08        00000 
 7.31343e-09  6.70656e-08        00000 
 1.36066e-08  1.17782e-07        00000 
 2.61373e-08  2.08326e-07        00000 
 5.26925e-08  3.70628e-07        00000 
 1.11724e-07  6.65346e-07        00000 
 2.45392e-07  1.21073e-06        00000 
 5.43008e-07  2.23845e-06        00000 
 1.17327e-06  4.18880e-06        00000 
 2.40595e-06  7.83885e-06        00000 
 4.57011e-06  1.43988e-05        00000 
 7.86649e-06  2.54097e-05        00000 
 1.19894e-05  4.21944e-05        00000 
 1.56947e-05  6.47240e-05        00000 
 1.67335e-05  9.02161e-05        00000 
 1.26635e-05  1.12445e-04        00000 
 2.53917e-06  1.22977e-04        00000 
-1.15320e-05  1.14645e-04        00000 
-2.45351e-05  8.57421e-05        00000 
-3.10021e-05  4.21540e-05        00000 
-2.83357e-05 -4.51915e-06        00000 
-1.84614e-05 -4.21488e-05        00000 
-6.48853e-06 -6.34695e-05        00000 
 2.48163e-06 -6.84416e-05        00000 
 6.27523e-06 -6.24947e-05        00000 
 9.75143e-06 -5.22114e-05        00000 
 2.98898e-05 -4.36211e-05        00000 
-1.32985e-09 -1.29351e-08        00000 
-6.56216e-10 -1.69762e-08        00000 
-9.77319e-10 -2.44953e-08        00000 
-1.87168e-09 -4.00058e-08        00000 
-3.52227e-09 -6.88580e-08        00000 
-6.75197e-09 -1.20559e-07        00000 
-1.36371e-08 -2.12116e-07        00000 
-2.96535e-08 -3.74275e-07        00000 
-6.94485e-08 -6.64542e-07        00000 
-1.70890e-07 -1.19572e-06        00000 
-4.24909e-07 -2.19740e-06        00000 
-1.02726e-06 -4.13712e-06        00000 
-2.34037e-06 -7.92039e-06        00000 
-4.90202e-06 -1.51244e-05        00000 
-9.23782e-06 -2.80564e-05        00000 
-1.53134e-05 -4.92045e-05        00000 
-2.16855e-05 -7.96331e-05        00000 
-2.49751e-05 -1.16490e-04        00000 
-2.07723e-05 -1.51109e-04        00000 
-6.51012e-06 -1.70159e-04        00000 
 1.52029e-05 -1.61151e-04        00000 
 3.60764e-05 -1.20063e-04        00000 
 4.63765e-05 -5.57792e-05        00000 
 4.13973e-05  1.28167e-05        00000 
 2.47571e-05  6.59969e-05        00000 
 5.60928e-06  9.27010e-05        00000 
-7.59830e-06  9.42881e-05        00000 
-1.19103e-05  8.09071e-05        00000 
-1.39395e-05  6.39921e-05        00000 
-3.43668e-05  5.17342e-05        00000 
-1.64847e-10  1.30472e-08        00000 
-9.29603e-11  1.71192e-08        00000 
-1.40618e-10  2.46899e-08        00000 
-2.34626e-10  4.02919e-08        00000 
-3.12895e-10  6.92706e-08        00000 
-1.78919e-10  1.21043e-07        00000 
 9.30776e-10  2.12182e-07        00000 
 5.76500e-09  3.71848e-07        00000 
 2.35744e-08  6.52870e-07        00000 
 8.31241e-08  1.15695e-06        00000 
 2.65591e-07  2.09478e-06        00000 
 7.74554e-07  3.92286e-06        00000 
 2.05104e-06  7.61575e-06        00000 
 4.88152e-06  1.50898e-05        00000 
 1.02993e-05  2.95820e-05        00000 
 1.89116e-05  5.53436e-05        00000 
 2.94282e-05  9.56269e-05        00000 
 3.70936e-05  1.48524e-04        00000 
 3.41617e-05  2.02552e-04        00000 
 1.44824e-05  2.36705e-04        00000 
-1.94736e-05  2.28919e-04        00000 
-5.38885e-05  1.70171e-04        00000 
-7.08424e-05  7.38898e-05        00000 
-6.14562e-05 -2.84940e-05        00000 
-3.28423e-05 -1.04197e-04        00000 
-1.97542e-06 -1.36329e-04        00000 
 1.70700e-05 -1.29776e-04        00000 
 2.09976e-05 -1.03331e-04        00000 
 1.96066e-05 -7.61994e-05        00000 
 3.75397e-05 -5.89319e-05        00000 
 1.65280e-09 -1.28881e-08        00000 
 8.38965e-10 -1.69068e-08        00000 
 1.25467e-09 -2.43720e-08        00000 
 2.33466e-09 -3.97472e-08        00000 
 4.13419e-09 -6.82829e-08        00000 
 7.06792e-09 -1.19194e-07        00000 
 1.16667e-08 -2.08522e-07        00000 
 1.80186e-08 -3.63799e-07        00000 
 2.31765e-08 -6.32799e-07        00000 
 1.14621e-08 -1.10302e-06        00000 
-7.58793e-08 -1.95192e-06        00000 
-4.20318e-07 -3.57977e-06        00000 
-1.49476e-06 -6.92897e-06        00000 
-4.31992e-06 -1.41174e-05        00000 
-1.06079e-05 -2.93285e-05        00000 
-2.21762e-05 -5.92132e-05        00000 
-3.87627e-05 -1.10935e-04        00000 
-5.44646e-05 -1.85840e-04        00000 
-5.62558e-05 -2.70186e-04        00000 
-3.03542e-05 -3.31280e-04        00000 
 2.33619e-05 -3.29558e-04        00000 
 8.19027e-05 -2.45093e-04        00000 
 1.10941e-04 -9.81126e-05        00000 
 9.28358e-05  5.76267e-05        00000 
 4.23544e-05  1.66188e-04        00000 
-7.71082e-06  2.01802e-04        00000 
-3.39626e-05  1.77911e-04        00000 
-3.49171e-05  1.29314e-04        00000 
-2.67351e-05  8.71182e-05        00000 
-3.77727e-05  6.34102e-05        00000 
-3.10494e-09  1.24618e-08        00000 
-1.56737e-09  1.63446e-08        00000 
-2.34441e-09  2.35511e-08        00000 
-4.39340e-09  3.83854e-08        00000 
-7.88535e-09  6.59070e-08        00000 
-1.38199e-08  1.14996e-07        00000 
-2.39390e-08  2.01055e-07        00000 
-4.10020e-08  3.50115e-07        00000 
-6.83865e-08  6.05516e-07        00000 
-1.05449e-07  1.04085e-06        00000 
-1.26107e-07  1.79365e-06        00000 
-5.49619e-09  3.16946e-06        00000 
 6.79903e-07  5.95168e-06        00000 
 3.07157e-06  1.21853e-05        00000 
 9.59778e-06  2.67002e-05        00000 
 2.39551e-05  5.89044e-05        00000 
 4.86124e-05  1.22174e-04        00000 
 7.81655e-05  2.25704e-04        00000 
 9.23662e-05  3.56861e-04        00000 
 6.19203e-05  4.66417e-04        00000 
-2.35382e-05  4.82428e-04        00000 
-1.26791e-04  3.60544e-04        00000 
-1.79016e-04  1.30738e-04        00000 
-1.42823e-04 -1.11841e-04        00000 
-5.09311e-05 -2.68461e-04        00000 
 3.03249e-05 -3.00258e-04        00000 
 6.30460e-05 -2.41360e-04        00000 
 5.47249e-05 -1.56548e-04        00000 
 3.45006e-05 -9.36724e-05        00000 
 3.28393e-05 -6.26357e-05        00000 
 4.49317e-09 -1.17775e-08        00000 
 2.26376e-09 -1.54455e-08        00000 
 3.38859e-09 -2.22475e-08        00000 
 6.37312e-09 -3.62412e-08        00000 
 1.15053e-08 -6.21940e-08        00000 
 2.03438e-08 -1.08494e-07        00000 
 3.57411e-08 -1.89730e-07        00000 
 6.28093e-08 -3.30473e-07        00000 
 1.10525e-07 -5.70655e-07        00000 
 1.92653e-07 -9.73149e-07        00000 
 3.19880e-07 -1.63926e-06        00000 
 4.51168e-07 -2.76473e-06        00000 
 3.10059e-07 -4.86493e-06        00000 
-1.13684e-06 -9.54017e-06        00000 
-6.75887e-06 -2.15028e-05        00000 
-2.25091e-05 -5.23693e-05        00000 
-5.61165e-05 -1.23834e-04        00000 
-1.07444e-04 -2.60796e-04        00000 
-1.49724e-04 -4.62093e-04        00000 
-1.24637e-04 -6.59502e-04        00000 
 9.98157e-06 -7.21197e-04        00000 
 1.99483e-04 -5.45816e-04        00000 
 2.99117e-04 -1.75054e-04        00000 
 2.23285e-04  2.14690e-04        00000 
 5.00611e-05  4.40898e-04        00000 
-7.99211e-05  4.47549e-04        00000 
-1.10766e-04  3.19891e-04        00000 
-7.95789e-05  1.78802e-04        00000 
-4.03835e-05  9.10947e-05        00000 
-2.04088e-05  5.38464e-05        00000 
-5.79105e-09  1.08489e-08        00000 
-2.91399e-09  1.42284e-08        00000 
-4.36559e-09  2.04911e-08        00000 
-8.23379e-09  3.33671e-08        00000 
-1.49252e-08  5.72330e-08        00000 
-2.65336e-08  9.98152e-08        00000 
-4.69368e-08  1.74628e-07        00000 
-8.32759e-08  3.04586e-07        00000 
-1.49068e-07  5.26871e-07        00000 
-2.69859e-07  8.97680e-07        00000 
-4.89626e-07  1.49411e-06        00000 
-8.59257e-07  2.41952e-06        00000 
-1.32361e-06  3.88713e-06        00000 
-1.24630e-06  6.72830e-06        00000 
 2.01085e-06  1.43948e-05        00000 
 1.59776e-05  3.85070e-05        00000 
 5.58157e-05  1.08699e-04        00000 
 1.36144e-04  2.75746e-04        00000 
 2.34715e-04  5.74871e-04        00000 
 2.47730e-04  9.31509e-04        00000 
 4.62524e-05  1.10749e-03        00000 
-3.14756e-04  8.61201e-04        00000 
-5.17687e-04  2.35906e-04        00000 
-3.50223e-04 -4.18309e-04        00000 
-1.31316e-05 -7.40133e-04        00000 
 1.83597e-04 -6.63152e-04        00000 
 1.82485e-04 -4.03558e-04        00000 
 1.03209e-04 -1.82747e-04        00000 
 3.92769e-05 -7.34953e-05        00000 
-5.20451e-07 -3.56209e-05        00000 
 6.97419e-09 -9.69406e-09        00000 
 3.50416e-09 -1.27173e-08        00000 
 5.25378e-09 -1.83201e-08        00000 
 9.93464e-09 -2.98299e-08        00000 
 1.80701e-08 -5.11431e-08        00000 
 3.22615e-08 -8.91593e-08        00000 
 5.73444e-08 -1.56019e-07        00000 
 1.02246e-07 -2.72534e-07        00000 
 1.84078e-07 -4.72979e-07        00000 
 3.36916e-07 -8.09433e-07        00000 
 6.29304e-07 -1.34821e-06        00000 
 1.18954e-06 -2.14162e-06        00000 
 2.19673e-06 -3.17046e-06        00000 
 3.61585e-06 -4.42558e-06        00000 
 3.94104e-06 -7.08657e-06        00000 
-3.87526e-06 -1.90540e-05        00000 
-4.04264e-05 -7.11247e-05        00000 