<?xml version="1.0" encoding="utf-8"?>
<VTKFile byte_order="LittleEndian" type="UnstructuredGrid" version="0.1">
   <UnstructuredGrid>
      <Piece NumberOfCells="3364" NumberOfPoints="1741">
         <Points>
            <DataArray Name="Points" NumberOfComponents="3" format="ascii" type="Float32">
0.0000 1.0000 0.0000
0.0000 1.0345 0.0000
0.0000 1.0690 0.0000
0.0000 1.1034 0.0000
0.0000 1.1379 0.0000
0.0000 1.1724 0.0000
0.0000 1.2069 0.0000
0.0000 1.2414 0.0000
0.0000 1.2759 0.0000
0.0000 1.3103 0.0000
0.0000 1.3448 0.0000
0.0000 1.3793 0.0000
0.0000 1.4138 0.0000
0.0000 1.4483 0.0000
0.0000 1.4828 0.0000
0.0000 1.5172 0.0000
0.0000 1.5517 0.0000
0.0000 1.5862 0.0000
0.0000 1.6207 0.0000
0.0000 1.6552 0.0000
0.0000 1.6897 0.0000
0.0000 1.7241 0.0000
0.0000 1.7586 0.0000
0.0000 1.7931 0.0000
0.0000 1.8276 0.0000
0.0000 1.8621 0.0000
0.0000 1.8966 0.0000
0.0000 1.9310 0.0000
0.0000 1.9655 0.0000
0.0000 2.0000 0.0000
0.0690 1.0000 0.0000
0.0690 1.0345 0.0000
0.0690 1.0690 0.0000
0.0690 1.1034 0.0000
0.0690 1.1379 0.0000
0.0690 1.1724 0.0000
0.0690 1.2069 0.0000
0.0690 1.2414 0.0000
0.0690 1.2759 0.0000
0.0690 1.3103 0.0000
0.0690 1.3448 0.0000
0.0690 1.3793 0.0000
0.0690 1.4138 0.0000
0.0690 1.4483 0.0000
0.0690 1.4828 0.0000
0.0690 1.5172 0.0000
0.0690 1.5517 0.0000
0.0690 1.5862 0.0000
0.0690 1.6207 0.0000
0.0690 1.6552 0.0000
0.0690 1.6897 0.0000
0.0690 1.7241 0.0000
0.0690 1.7586 0.0000
0.0690 1.7931 0.0000
0.0690 1.8276 0.0000
0.0690 1.8621 0.0000
0.0690 1.8966 0.0000
0.0690 1.9310 0.0000
0.0690 1.9655 0.0000
0.0690 2.0000 0.0000
0.1379 1.0000 0.0000
0.1379 1.0345 0.0000
0.1379 1.0690 0.0000
0.1379 1.1034 0.0000
0.1379 1.1379 0.0000
0.1379 1.1724 0.0000
0.1379 1.2069 0.0000
0.1379 1.2414 0.0000
0.1379 1.2759 0.0000
0.1379 1.3103 0.0000
0.1379 1.3448 0.0000
0.1379 1.3793 0.0000
0.1379 1.4138 0.0000
0.1379 1.4483 0.0000
0.1379 1.4828 0.0000
0.1379 1.5172 0.0000
0.1379 1.5517 0.0000
0.1379 1.5862 0.0000
0.1379 1.6207 0.0000
0.1379 1.6552 0.0000
0.1379 1.6897 0.0000
0.1379 1.7241 0.0000
0.1379 1.7586 0.0000
0.1379 1.7931 0.0000
0.1379 1.8276 0.0000
0.1379 1.8621 0.0000
0.1379 1.8966 0.0000
0.1379 1.9310 0.0000
0.1379 1.9655 0.0000
0.1379 2.0000 0.0000
0.2069 1.0000 0.0000
0.2069 1.0345 0.0000
0.2069 1.0690 0.0000
0.2069 1.1034 0.0000
0.2069 1.1379 0.0000
0.2069 1.1724 0.0000
0.2069 1.2069 0.0000
0.2069 1.2414 0.0000
0.2069 1.2759 0.0000
0.2069 1.3103 0.0000
0.2069 1.3448 0.0000
0.2069 1.3793 0.0000
0.2069 1.4138 0.0000
0.2069 1.4483 0.0000
0.2069 1.4828 0.0000
0.2069 1.5172 0.0000
0.2069 1.5517 0.0000
0.2069 1.5862 0.0000
0.2069 1.6207 0.0000
0.2069 1.6552 0.0000
0.2069 1.6897 0.0000
0.2069 1.7241 0.0000
0.2069 1.7586 0.0000
0.2069 1.7931 0.0000
0.2069 1.8276 0.0000
0.2069 1.8621 0.0000
0.2069 1.8966 0.0000
0.2069 1.9310 0.0000
0.2069 1.9655 0.0000
0.2069 2.0000 0.0000
0.2759 1.0000 0.0000
0.2759 1.0345 0.0000
0.2759 1.0690 0.0000
0.2759 1.1034 0.0000
0.2759 1.1379 0.0000
0.2759 1.1724 0.0000
0.2759 1.2069 0.0000
0.2759 1.2414 0.0000
0.2759 1.2759 0.0000
0.2759 1.3103 0.0000
0.2759 1.3448 0.0000
0.2759 1.3793 0.0000
0.2759 1.4138 0.0000
0.2759 1.4483 0.0000
0.2759 1.4828 0.0000
0.2759 1.5172 0.0000
0.2759 1.5517 0.0000
0.2759 1.5862 0.0000
0.2759 1.6207 0.0000
0.2759 1.6552 0.0000
0.2759 1.6897 0.0000
0.2759 1.7241 0.0000
0.2759 1.7586 0.0000
0.2759 1.7931 0.0000
0.2759 1.8276 0.0000
0.2759 1.8621 0.0000
0.2759 1.8966 0.0000
0.2759 1.9310 0.0000
0.2759 1.9655 0.0000
0.2759 2.0000 0.0000
0.3448 1.0000 0.0000
0.3448 1.0345 0.0000
0.3448 1.0690 0.0000
0.3448 1.1034 0.0000
0.3448 1.1379 0.0000
0.3448 1.1724 0.0000
0.3448 1.2069 0.0000
0.3448 1.2414 0.0000
0.3448 1.2759 0.0000
0.3448 1.3103 0.0000
0.3448 1.3448 0.0000
0.3448 1.3793 0.0000
0.3448 1.4138 0.0000
0.3448 1.4483 0.0000
0.3448 1.4828 0.0000
0.3448 1.5172 0.0000
0.3448 1.5517 0.0000
0.3448 1.5862 0.0000
0.3448 1.6207 0.0000
0.3448 1.6552 0.0000
0.3448 1.6897 0.0000
0.3448 1.7241 0.0000
0.3448 1.7586 0.0000
0.3448 1.7931 0.0000
0.3448 1.8276 0.0000
0.3448 1.8621 0.0000
0.3448 1.8966 0.0000
0.3448 1.9310 0.0000
0.3448 1.9655 0.0000
0.3448 2.0000 0.0000
0.4138 1.0000 0.0000
0.4138 1.0345 0.0000
0.4138 1.0690 0.0000
0.4138 1.1034 0.0000
0.4138 1.1379 0.0000
0.4138 1.1724 0.0000
0.4138 1.2069 0.0000
0.4138 1.2414 0.0000
0.4138 1.2759 0.0000
0.4138 1.3103 0.0000
0.4138 1.3448 0.0000
0.4138 1.3793 0.0000
0.4138 1.4138 0.0000
0.4138 1.4483 0.0000
0.4138 1.4828 0.0000
0.4138 1.5172 0.0000
0.4138 1.5517 0.0000
0.4138 1.5862 0.0000
0.4138 1.6207 0.0000
0.4138 1.6552 0.0000
0.4138 1.6897 0.0000
0.4138 1.7241 0.0000
0.4138 1.7586 0.0000
0.4138 1.7931 0.0000
0.4138 1.8276 0.0000
0.4138 1.8621 0.0000
0.4138 1.8966 0.0000
0.4138 1.9310 0.0000
0.4138 1.9655 0.0000
0.4138 2.0000 0.0000
0.4828 1.0000 0.0000
0.4828 1.0345 0.0000
0.4828 1.0690 0.0000
0.4828 1.1034 0.0000
0.4828 1.1379 0.0000
0.4828 1.1724 0.0000
0.4828 1.2069 0.0000
0.4828 1.2414 0.0000
0.4828 1.2759 0.0000
0.4828 1.3103 0.0000
0.4828 1.3448 0.0000
0.4828 1.3793 0.0000
0.4828 1.4138 0.0000
0.4828 1.4483 0.0000
0.4828 1.4828 0.0000
0.4828 1.5172 0.0000
0.4828 1.5517 0.0000
0.4828 1.5862 0.0000
0.4828 1.6207 0.0000
0.4828 1.6552 0.0000
0.4828 1.6897 0.0000
0.4828 1.7241 0.0000
0.4828 1.7586 0.0000
0.4828 1.7931 0.0000
0.4828 1.8276 0.0000
0.4828 1.8621 0.0000
0.4828 1.8966 0.0000
0.4828 1.9310 0.0000
0.4828 1.9655 0.0000
0.4828 2.0000 0.0000
0.5517 1.0000 0.0000
0.5517 1.0345 0.0000
0.5517 1.0690 0.0000
0.5517 1.1034 0.0000
0.5517 1.1379 0.0000
0.5517 1.1724 0.0000
0.5517 1.2069 0.0000
0.5517 1.2414 0.0000
0.5517 1.2759 0.0000
0.5517 1.3103 0.0000
0.5517 1.3448 0.0000
0.5517 1.3793 0.0000
0.5517 1.4138 0.0000
0.5517 1.4483 0.0000
0.5517 1.4828 0.0000
0.5517 1.5172 0.0000
0.5517 1.5517 0.0000
0.5517 1.5862 0.0000
0.5517 1.6207 0.0000
0.5517 1.6552 0.0000
0.5517 1.6897 0.0000
0.5517 1.7241 0.0000
0.5517 1.7586 0.0000
0.5517 1.7931 0.0000
0.5517 1.8276 0.0000
0.5517 1.8621 0.0000
0.5517 1.8966 0.0000
0.5517 1.9310 0.0000
0.5517 1.9655 0.0000
0.5517 2.0000 0.0000
0.6207 1.0000 0.0000
0.6207 1.0345 0.0000
0.6207 1.0690 0.0000
0.6207 1.1034 0.0000
0.6207 1.1379 0.0000
0.6207 1.1724 0.0000
0.6207 1.2069 0.0000
0.6207 1.2414 0.0000
0.6207 1.2759 0.0000
0.6207 1.3103 0.0000
0.6207 1.3448 0.0000
0.6207 1.3793 0.0000
0.6207 1.4138 0.0000
0.6207 1.4483 0.0000
0.6207 1.4828 0.0000
0.6207 1.5172 0.0000
0.6207 1.5517 0.0000
0.6207 1.5862 0.0000
0.6207 1.6207 0.0000
0.6207 1.6552 0.0000
0.6207 1.6897 0.0000
0.6207 1.7241 0.0000
0.6207 1.7586 0.0000
0.6207 1.7931 0.0000
0.6207 1.8276 0.0000
0.6207 1.8621 0.0000
0.6207 1.8966 0.0000
0.6207 1.9310 0.0000
0.6207 1.9655 0.0000
0.6207 2.0000 0.0000
0.6897 1.0000 0.0000
0.6897 1.0345 0.0000
0.6897 1.0690 0.0000
0.6897 1.1034 0.0000
0.6897 1.1379 0.0000
0.6897 1.1724 0.0000
0.6897 1.2069 0.0000
0.6897 1.2414 0.0000
0.6897 1.2759 0.0000
0.6897 1.3103 0.0000
0.6897 1.3448 0.0000
0.6897 1.3793 0.0000
0.6897 1.4138 0.0000
0.6897 1.4483 0.0000
0.6897 1.4828 0.0000
0.6897 1.5172 0.0000
0.6897 1.5517 0.0000
0.6897 1.5862 0.0000
0.6897 1.6207 0.0000
0.6897 1.6552 0.0000
0.6897 1.6897 0.0000
0.6897 1.7241 0.0000
0.6897 1.7586 0.0000
0.6897 1.7931 0.0000
0.6897 1.8276 0.0000
0.6897 1.8621 0.0000
0.6897 1.8966 0.0000
0.6897 1.9310 0.0000
0.6897 1.9655 0.0000
0.6897 2.0000 0.0000
0.7586 1.0000 0.0000
0.7586 1.0345 0.0000
0.7586 1.0690 0.0000
0.7586 1.1034 0.0000
0.7586 1.1379 0.0000
0.7586 1.1724 0.0000
0.7586 1.2069 0.0000
0.7586 1.2414 0.0000
0.7586 1.2759 0.0000
0.7586 1.3103 0.0000
0.7586 1.3448 0.0000
0.7586 1.3793 0.0000
0.7586 1.4138 0.0000
0.7586 1.4483 0.0000
0.7586 1.4828 0.0000
0.7586 1.5172 0.0000
0.7586 1.5517 0.0000
0.7586 1.5862 0.0000
0.7586 1.6207 0.0000
0.7586 1.6552 0.0000
0.7586 1.6897 0.0000
0.7586 1.7241 0.0000
0.7586 1.7586 0.0000
0.7586 1.7931 0.0000
0.7586 1.8276 0.0000
0.7586 1.8621 0.0000
0.7586 1.8966 0.0000
0.7586 1.9310 0.0000
0.7586 1.9655 0.0000
0.7586 2.0000 0.0000
0.8276 1.0000 0.0000
0.8276 1.0345 0.0000
0.8276 1.0690 0.0000
0.8276 1.1034 0.0000
0.8276 1.1379 0.0000
0.8276 1.1724 0.0000
0.8276 1.2069 0.0000
0.8276 1.2414 0.0000
0.8276 1.2759 0.0000
0.8276 1.3103 0.0000
0.8276 1.3448 0.0000
0.8276 1.3793 0.0000
0.8276 1.4138 0.0000
0.8276 1.4483 0.0000
0.8276 1.4828 0.0000
0.8276 1.5172 0.0000
0.8276 1.5517 0.0000
0.8276 1.5862 0.0000
0.8276 1.6207 0.0000
0.8276 1.6552 0.0000
0.8276 1.6897 0.0000
0.8276 1.7241 0.0000
0.8276 1.7586 0.0000
0.8276 1.7931 0.0000
0.8276 1.8276 0.0000
0.8276 1.8621 0.0000
0.8276 1.8966 0.0000
0.8276 1.9310 0.0000
0.8276 1.9655 0.0000
0.8276 2.0000 0.0000
0.8966 1.0000 0.0000
0.8966 1.0345 0.0000
0.8966 1.0690 0.0000
0.8966 1.1034 0.0000
0.8966 1.1379 0.0000
0.8966 1.1724 0.0000
0.8966 1.2069 0.0000
0.8966 1.2414 0.0000
0.8966 1.2759 0.0000
0.8966 1.3103 0.0000
0.8966 1.3448 0.0000
0.8966 1.3793 0.0000
0.8966 1.4138 0.0000
0.8966 1.4483 0.0000
0.8966 1.4828 0.0000
0.8966 1.5172 0.0000
0.8966 1.5517 0.0000
0.8966 1.5862 0.0000
0.8966 1.6207 0.0000
0.8966 1.6552 0.0000
0.8966 1.6897 0.0000
0.8966 1.7241 0.0000
0.8966 1.7586 0.0000
0.8966 1.7931 0.0000
0.8966 1.8276 0.0000
0.8966 1.8621 0.0000
0.8966 1.8966 0.0000
0.8966 1.9310 0.0000
0.8966 1.9655 0.0000
0.8966 2.0000 0.0000
0.9655 1.0000 0.0000
0.9655 1.0345 0.0000
0.9655 1.0690 0.0000
0.9655 1.1034 0.0000
0.9655 1.1379 0.0000
0.9655 1.1724 0.0000
0.9655 1.2069 0.0000
0.9655 1.2414 0.0000
0.9655 1.2759 0.0000
0.9655 1.3103 0.0000
0.9655 1.3448 0.0000
0.9655 1.3793 0.0000
0.9655 1.4138 0.0000
0.9655 1.4483 0.0000
0.9655 1.4828 0.0000
0.9655 1.5172 0.0000
0.9655 1.5517 0.0000
0.9655 1.5862 0.0000
0.9655 1.6207 0.0000
0.9655 1.6552 0.0000
0.9655 1.6897 0.0000
0.9655 1.7241 0.0000
0.9655 1.7586 0.0000
0.9655 1.7931 0.0000
0.9655 1.8276 0.0000
0.9655 1.8621 0.0000
0.9655 1.8966 0.0000
0.9655 1.9310 0.0000
0.9655 1.9655 0.0000
0.9655 2.0000 0.0000
1.0345 1.0000 0.0000
1.0345 1.0345 0.0000
1.0345 1.0690 0.0000
1.0345 1.1034 0.0000
1.0345 1.1379 0.0000
1.0345 1.1724 0.0000
1.0345 1.2069 0.0000
1.0345 1.2414 0.0000
1.0345 1.2759 0.0000
1.0345 1.3103 0.0000
1.0345 1.3448 0.0000
[...]
         <PointData>
            <DataArray Name="fValues" NumberOfComponents="3" format="ascii" type="Float64">
 5.61466e-23  4.01963e-21        00000 
-2.24586e-22 -1.97636e-21        00000 
 4.64997e-23 -3.19807e-21        00000 
 1.77886e-23 -3.76142e-21        00000 
-7.21786e-23  1.24369e-21        00000 
 2.12723e-22 -5.09352e-21        00000 
 1.22148e-22 -7.10681e-22        00000 
-6.59225e-23 -4.02930e-21        00000 
 1.55462e-22  6.21846e-22        00000 
 5.16728e-22 -3.05600e-21        00000 
       00000 -2.04321e-21        00000 
 2.24625e-22  5.91559e-22        00000 
 1.11044e-22 -6.66264e-22        00000 
 2.28041e-22 -5.96306e-22        00000 
-8.88352e-23  1.02160e-21        00000 
 5.85978e-23  2.34391e-22        00000 
 1.33253e-22 -2.88714e-22        00000 
 1.65699e-22 -2.28648e-22        00000 
 4.44176e-23 -3.55341e-22        00000 
-1.74398e-25  6.15626e-23        00000 
 5.27459e-23 -1.94327e-23        00000 
-7.34679e-24  1.43037e-22        00000 
       00000 -6.38503e-23        00000 
 9.24311e-24 -3.94140e-23        00000 
 3.81714e-24 -2.18618e-23        00000 
 3.47356e-24 -2.02623e-23        00000 
-1.38805e-24  3.29662e-24        00000 
 1.17938e-24 -3.23239e-24        00000 
-5.68732e-25  1.09372e-25        00000 
 6.01237e-25  4.67796e-24        00000 
-2.37780e-05 -8.00409e-06        00000 
-1.03379e-06 -7.89384e-06        00000 
-2.21596e-07 -1.11823e-05        00000 
-4.83681e-08 -1.19768e-05        00000 
 1.93872e-07 -1.20549e-05        00000 
 5.94864e-07 -1.18914e-05        00000 
 1.07597e-06 -1.14832e-05        00000 
 1.56475e-06 -1.07991e-05        00000 
 1.98916e-06 -9.85123e-06        00000 
 2.29112e-06 -8.69521e-06        00000 
 2.43734e-06 -7.41494e-06        00000 
 2.42335e-06 -6.10464e-06        00000 
 2.27010e-06 -4.85154e-06        00000 
 2.01547e-06 -3.72326e-06        00000 
 1.70388e-06 -2.76142e-06        00000 
 1.37699e-06 -1.98162e-06        00000 
 1.06750e-06 -1.37806e-06        00000 
 7.96432e-07 -9.30541e-07        00000 
 5.73634e-07 -6.11562e-07        00000 
 4.00103e-07 -3.92256e-07        00000 
 2.71088e-07 -2.46296e-07        00000 
 1.78975e-07 -1.51900e-07        00000 
 1.15480e-07 -9.23503e-08        00000 
 7.30052e-08 -5.55661e-08        00000 
 4.52807e-08 -3.32528e-08        00000 
 2.75004e-08 -1.99558e-08        00000 
 1.61677e-08 -1.21910e-08        00000 
 8.94585e-09 -7.53515e-09        00000 
 4.56643e-09 -3.64208e-09        00000 
 1.56582e-08 -3.30350e-09        00000 
 2.88507e-05  1.84832e-05        00000 
 4.45249e-06  2.03127e-05        00000 
 1.51607e-08  2.30733e-05        00000 
 1.79698e-08  2.44655e-05        00000 
-2.20841e-07  2.48262e-05        00000 
-7.26130e-07  2.45899e-05        00000 
-1.37131e-06  2.37816e-05        00000 
-2.03321e-06  2.23658e-05        00000 
-2.60604e-06  2.03796e-05        00000 
-3.00865e-06  1.79473e-05        00000 
-3.19664e-06  1.52531e-05        00000 
-3.16657e-06  1.25022e-05        00000 
-2.95009e-06  9.88225e-06        00000 
-2.60132e-06  7.53631e-06        00000 
-2.18190e-06  5.54983e-06        00000 
-1.74817e-06  3.95170e-06        00000 
-1.34295e-06  2.72532e-06        00000 
-9.92632e-07  1.82433e-06        00000 
-7.08325e-07  1.18835e-06        00000 
-4.89610e-07  7.55485e-07        00000 
-3.28921e-07  4.70299e-07        00000 
-2.15471e-07  2.87706e-07        00000 
-1.38072e-07  1.73620e-07        00000 
-8.67729e-08  1.03780e-07        00000 
-5.35548e-08  6.17512e-08        00000 
-3.23791e-08  3.68540e-08        00000 
-1.89220e-08  2.23390e-08        00000 
-1.02685e-08  1.39038e-08        00000 
-7.21409e-09  9.18059e-09        00000 
-1.74927e-08  7.33135e-09        00000 
-3.31312e-05 -2.94371e-05        00000 
-5.84174e-06 -3.31165e-05        00000 
-3.72852e-07 -3.65490e-05        00000 
-9.34810e-08 -3.83452e-05        00000 
 1.63405e-07 -3.90293e-05        00000 
 7.76612e-07 -3.87790e-05        00000 
 1.58628e-06 -3.75597e-05        00000 
 2.42467e-06 -3.53262e-05        00000 
 3.14629e-06 -3.21525e-05        00000 
 3.64407e-06 -2.82512e-05        00000 
 3.86312e-06 -2.39314e-05        00000 
 3.80405e-06 -1.95323e-05        00000 
 3.51325e-06 -1.53611e-05        00000 
 3.06449e-06 -1.16472e-05        00000 
 2.53843e-06 -8.52324e-06        00000 
 2.00600e-06 -6.02859e-06        00000 
 1.51864e-06 -4.12937e-06        00000 
 1.10567e-06 -2.74553e-06        00000 
 7.77126e-07 -1.77682e-06        00000 
 5.29288e-07 -1.12281e-06        00000 
 3.50633e-07 -6.95232e-07        00000 
 2.26761e-07 -4.23384e-07        00000 
 1.43658e-07 -2.54569e-07        00000 
 8.94054e-08 -1.51746e-07        00000 
 5.47323e-08 -9.01051e-08        00000 
 3.28652e-08 -5.36726e-08        00000 
 1.90796e-08 -3.24771e-08        00000 
 1.04645e-08 -2.04853e-08        00000 
 7.59870e-09 -1.42268e-08        00000 
 1.74094e-08 -1.10328e-08        00000 
 3.85714e-05  4.18941e-05        00000 
 7.13117e-06  4.73234e-05        00000 
 7.67677e-07  5.20077e-05        00000 
 3.64585e-07  5.44799e-05        00000 
-6.85597e-09  5.55663e-05        00000 
-8.00390e-07  5.53590e-05        00000 
-1.85460e-06  5.37007e-05        00000 
-2.94774e-06  5.05084e-05        00000 
-3.88077e-06  4.59030e-05        00000 
-4.50944e-06  4.02172e-05        00000 
-4.76496e-06  3.39253e-05        00000 
-4.65612e-06  2.75413e-05        00000 
-4.25297e-06  2.15222e-05        00000 
-3.65925e-06  1.62019e-05        00000 
-2.98345e-06  1.17644e-05        00000 
-2.31670e-06  8.25371e-06        00000 
-1.72123e-06  5.60725e-06        00000 
-1.22894e-06  3.69843e-06        00000 
-8.46871e-07  2.37563e-06        00000 
-5.65695e-07  1.49117e-06        00000 
-3.67874e-07  9.18059e-07        00000 
-2.33878e-07  5.56536e-07        00000 
-1.45928e-07  3.33500e-07        00000 
-8.96400e-08  1.98343e-07        00000 
-5.42868e-08  1.17608e-07        00000 
-3.23176e-08  6.99962e-08        00000 
-1.86595e-08  4.23725e-08        00000 
-1.02496e-08  2.68813e-08        00000 
-7.45984e-09  1.88997e-08        00000 
-1.67318e-08  1.46150e-08        00000 
-4.58691e-05 -5.64475e-05        00000 
-8.72971e-06 -6.38587e-05        00000 
-1.28549e-06 -7.02466e-05        00000 
-8.09166e-07 -7.37456e-05        00000 
-2.89022e-07 -7.54544e-05        00000 
 7.89090e-07 -7.53936e-05        00000 
 2.21221e-06 -7.32563e-05        00000 
 3.68169e-06 -6.88957e-05        00000 
 4.92139e-06 -6.24947e-05        00000 
 5.73402e-06 -5.45540e-05        00000 
 6.03269e-06 -4.57769e-05        00000 
 5.84142e-06 -3.69135e-05        00000 
 5.26803e-06 -2.86171e-05        00000 
 4.46190e-06 -2.13505e-05        00000 
 3.57228e-06 -1.53534e-05        00000 
 2.71842e-06 -1.06635e-05        00000 
 1.97619e-06 -7.17142e-06        00000 
 1.37914e-06 -4.68410e-06        00000 
 9.28528e-07 -2.98166e-06        00000 
 6.06114e-07 -1.85669e-06        00000 
 3.85537e-07 -1.13553e-06        00000 
 2.40131e-07 -6.84829e-07        00000 
 1.47109e-07 -4.08877e-07        00000 
 8.89559e-08 -2.42606e-07        00000 
 5.31806e-08 -1.43672e-07        00000 
 3.13434e-08 -8.54717e-08        00000 
 1.79778e-08 -5.17732e-08        00000 
 9.85043e-09 -3.29362e-08        00000 
 7.12931e-09 -2.32574e-08        00000 
 1.57974e-08 -1.79999e-08        00000 
 5.54265e-05  7.37796e-05        00000 
 1.08302e-05  8.35980e-05        00000 
 2.02203e-06  9.22194e-05        00000 
 1.49536e-06  9.72140e-05        00000 
 7.79607e-07  9.99050e-05        00000 
-7.15068e-07  1.00179e-04        00000 
-2.68178e-06  9.75202e-05        00000 
-4.69907e-06  9.16955e-05        00000 
-6.37697e-06  8.29777e-05        00000 
-7.44268e-06  7.21097e-05        00000 
-7.78714e-06  6.01198e-05        00000 
-7.46193e-06  4.80842e-05        00000 
-6.63429e-06  3.69184e-05        00000 
-5.52216e-06  2.72462e-05        00000 
-4.33321e-06  1.93649e-05        00000 
-3.22457e-06  1.32874e-05        00000 
-2.28819e-06  8.82840e-06        00000 
-1.55679e-06  5.69981e-06        00000 
-1.02119e-06  3.58985e-06        00000 
-6.49542e-07  2.21488e-06        00000 
-4.02964e-07  1.34444e-06        00000 
-2.45220e-07  8.06231e-07        00000 
-1.47138e-07  4.79488e-07        00000 
-8.74032e-08  2.83837e-07        00000 
-5.14963e-08  1.67898e-07        00000 
-3.00112e-08  9.98585e-08        00000 
-1.70799e-08  6.05224e-08        00000 
-9.31517e-09  3.85639e-08        00000 
-6.69007e-09  2.72903e-08        00000 
-1.46766e-08  2.11412e-08        00000 
-6.76478e-05 -9.46723e-05        00000 
-1.35921e-05 -1.07491e-04        00000 
-3.10557e-06 -1.19053e-04        00000 
-2.54777e-06 -1.26206e-04        00000 
-1.56298e-06 -1.30427e-04        00000 
 5.33944e-07 -1.31342e-04        00000 
 3.29065e-06 -1.28128e-04        00000 
 6.09738e-06 -1.20430e-04        00000 
 8.39455e-06 -1.08662e-04        00000 
 9.80188e-06 -9.39219e-05        00000 
 1.01851e-05 -7.77067e-05        00000 
 9.64452e-06 -6.15498e-05        00000 
 8.44044e-06 -4.67188e-05        00000 
 6.89262e-06 -3.40393e-05        00000 
 5.29112e-06 -2.38618e-05        00000 
 3.84248e-06 -1.61416e-05        00000 
 2.65567e-06 -1.05745e-05        00000 
 1.75729e-06 -6.73637e-06        00000 
 1.12030e-06 -4.19174e-06        00000 
 6.92617e-07 -2.55976e-06        00000 
 4.18073e-07 -1.54114e-06        00000 
 2.48019e-07 -9.18680e-07        00000 
 1.45476e-07 -5.44228e-07        00000 
 8.47564e-08 -3.21448e-07        00000 
 4.91536e-08 -1.89964e-07        00000 
 2.82980e-08 -1.12970e-07        00000 
 1.59648e-08 -6.85048e-08        00000 
 8.65638e-09 -4.36979e-08        00000 
 6.16269e-09 -3.09660e-08        00000 
 1.33875e-08 -2.40047e-08        00000 
 8.29969e-05  1.20014e-04        00000 
 1.72053e-05  1.36621e-04        00000 
 4.71701e-06  1.52090e-04        00000 
 4.15952e-06  1.62362e-04        00000 
 2.79396e-06  1.68935e-04        00000 
-1.75349e-07  1.70974e-04        00000 
-4.07685e-06  1.67189e-04        00000 
-8.01690e-06  1.57055e-04        00000 
-1.11840e-05  1.41207e-04        00000 
-1.30452e-05  1.21276e-04        00000 
-1.34412e-05  9.94390e-05        00000 
-1.25566e-05  7.78748e-05        00000 
-1.07974e-05  5.83268e-05        00000 
-8.63368e-06  4.18681e-05        00000 
-6.46994e-06  2.88855e-05        00000 
-4.57485e-06  1.92228e-05        00000 
-3.07211e-06  1.23922e-05        00000 
-1.97222e-06  7.77632e-06        00000 
-1.21892e-06  4.77472e-06        00000 
-7.30715e-07  2.88365e-06        00000 
-4.28197e-07  1.72143e-06        00000 
-2.47164e-07  1.02006e-06        00000 
-1.41497e-07  6.02066e-07        00000 
-8.07584e-08  3.54930e-07        00000 
-4.60582e-08  2.09604e-07        00000 
-2.61744e-08  1.24655e-07        00000 
-1.46275e-08  7.56265e-08        00000 
-7.87863e-09  4.82802e-08        00000 
-5.55441e-09  3.42473e-08        00000 
-1.19390e-08  2.65599e-08        00000 
-1.02000e-04 -1.50799e-04        00000 
-2.19169e-05 -1.72227e-04        00000 
-7.12114e-06 -1.92941e-04        00000 
-6.62142e-06 -2.07729e-04        00000 
-4.70863e-06 -2.17887e-04        00000 
-4.69399e-07 -2.21798e-04        00000 
 5.09438e-06 -2.17458e-04        00000 
 1.06620e-05 -2.04111e-04        00000 
 1.50476e-05 -1.82738e-04        00000 
 1.75026e-05 -1.55776e-04        00000 
 1.78495e-05 -1.26396e-04        00000 
 1.64185e-05 -9.76938e-05        00000 
 1.38423e-05 -7.20531e-05        00000 
 1.08122e-05 -5.08425e-05        00000 
 7.88949e-06 -3.44434e-05        00000 
 5.41693e-06 -2.25000e-05        00000 
 3.52433e-06 -1.42459e-05        00000 
 2.18874e-06 -8.79260e-06        00000 
 1.30777e-06 -5.32195e-06        00000 
 7.58199e-07 -3.17741e-06        00000 
 4.30360e-07 -1.88084e-06        00000 
 2.41259e-07 -1.10834e-06        00000 
 1.34619e-07 -6.52095e-07        00000 
 7.51914e-08 -3.83863e-07        00000 
 4.21397e-08 -2.26601e-07        00000 
 2.36224e-08 -1.34786e-07        00000 
 1.30670e-08 -8.18085e-08        00000 
 6.98572e-09 -5.22591e-08        00000 
 4.87003e-09 -3.70980e-08        00000 
 1.03410e-08 -2.87788e-08        00000 
 1.25226e-04  1.88119e-04        00000 
 2.80546e-05  2.15716e-04        00000 
 1.07103e-05  2.43530e-04        00000 
 1.03701e-05  2.64881e-04        00000 
 7.66363e-06  2.80470e-04        00000 
 1.56575e-06  2.87399e-04        00000 
-6.42172e-06  2.82580e-04        00000 
-1.43326e-05  2.64932e-04        00000 
-2.04232e-05  2.35995e-04        00000 
-2.36407e-05  1.99424e-04        00000 
-2.38123e-05  1.59860e-04        00000 
-2.15161e-05  1.21701e-04        00000 
-1.77392e-05  8.81867e-05        00000 
-1.34964e-05  6.10200e-05        00000 
-9.55897e-06  4.04916e-05        00000 
-6.35157e-06  2.59055e-05        00000 
-3.98979e-06  1.60789e-05        00000 
-2.38860e-06  9.74809e-06        00000 
-1.37508e-06  5.81283e-06        00000 
-7.68666e-07  3.43101e-06        00000 
-4.21520e-07  2.01499e-06        00000 
-2.29039e-07  1.18174e-06        00000 
-1.24382e-07  6.93604e-07        00000 
-6.79149e-08  4.07932e-07        00000 
-3.73657e-08  2.40789e-07        00000 
-2.06406e-08  1.43261e-07        00000 
-1.12885e-08  8.69835e-08        00000 
-5.98274e-09  5.55892e-08        00000 
-4.11460e-09  3.94852e-08        00000 
-8.60574e-09  3.06359e-08        00000 
-1.53236e-04 -2.33114e-04        00000 
-3.60551e-05 -2.68644e-04        00000 
-1.60678e-05 -3.06145e-04        00000 
-1.60613e-05 -3.37064e-04        00000 
-1.21971e-05 -3.60851e-04        00000 
-3.36408e-06 -3.72543e-04        00000 
 8.17580e-06 -3.67411e-04        00000 
 1.94741e-05 -3.43927e-04        00000 
 2.79495e-05 -3.04523e-04        00000 
 3.21218e-05 -2.54717e-04        00000 
 3.18769e-05 -2.01334e-04        00000 
 2.82150e-05 -1.50623e-04        00000 
 2.26760e-05 -1.06952e-04        00000 
 1.67448e-05 -7.23696e-05        00000 
 1.14666e-05 -4.69129e-05        00000 
 7.34250e-06 -2.93249e-05        00000 
 4.43356e-06 -1.78107e-05        00000 
 2.54743e-06 -1.05964e-05        00000 
 1.40699e-06 -6.22445e-06        00000 
 7.55404e-07 -3.63462e-06        00000 
 3.98908e-07 -2.12016e-06        00000 
 2.09544e-07 -1.23896e-06        00000 
 1.10523e-07 -7.26127e-07        00000 
 5.88882e-08 -4.26932e-07        00000 
 3.17476e-08 -2.52046e-07        00000 
 1.72447e-08 -1.49997e-07        00000 
 9.30315e-09 -9.10941e-08        00000 
 4.87664e-09 -5.82312e-08        00000 
 3.29402e-09 -4.13800e-08        00000 
 6.74798e-09 -3.21088e-08        00000 
 1.86496e-04  2.86893e-04        00000 
 4.65005e-05  3.32663e-04        00000 
 2.40600e-05  3.83475e-04        00000 
 2.46811e-05  4.28383e-04        00000 
 1.91228e-05  4.64511e-04        00000 
 6.24328e-06  4.83619e-04        00000 
-1.05353e-05  4.78485e-04        00000 
-2.67553e-05  4.46960e-04        00000 
-3.85661e-05  3.92918e-04        00000 
-4.38888e-05  3.24752e-04        00000 
-4.27850e-05  2.52535e-04        00000 
-3.69716e-05  1.85153e-04        00000 
-2.88525e-05  1.28439e-04        00000 
-2.05878e-05  8.47210e-05        00000 
-1.35643e-05  5.34896e-05        00000 
-8.32597e-06  3.25879e-05        00000 
-4.80552e-06  1.93370e-05        00000 
-2.63480e-06  1.12843e-05        00000 
-1.38832e-06  6.53391e-06        00000 
-7.12144e-07  3.77988e-06        00000 
-3.60444e-07  2.19378e-06        00000 
-1.82292e-07  1.27933e-06        00000 
-9.30325e-08  7.49466e-07        00000 
-4.81807e-08  4.40751e-07        00000 
-2.53391e-08  2.60282e-07        00000 
-1.34655e-08  1.54924e-07        00000 
-7.12747e-09  9.40914e-08        00000 
-3.67627e-09  6.01516e-08        00000 
-2.41533e-09  4.27582e-08        00000 
-4.78508e-09  3.31789e-08        00000 
-2.25234e-04 -3.50364e-04        00000 
-6.01647e-05 -4.09397e-04        00000 
-3.59707e-05 -4.78619e-04        00000 
-3.77136e-05 -5.44030e-04        00000 
-2.96772e-05 -5.98719e-04        00000 
-1.07794e-05 -6.29272e-04        00000 
 1.37790e-05 -6.24658e-04        00000 
 3.71944e-05 -5.81881e-04        00000 
 5.36687e-05 -5.07148e-04        00000 
 6.02898e-05 -4.13318e-04        00000 
 5.75334e-05 -3.15340e-04        00000 
 4.83370e-05 -2.25842e-04        00000 
 3.64525e-05 -1.52499e-04        00000 
 2.49957e-05 -9.76973e-05        00000 
 1.57462e-05 -5.98752e-05        00000 
 9.20146e-06 -3.54640e-05        00000 
 5.03883e-06 -2.05346e-05        00000 
 2.61570e-06 -1.17576e-05        00000 
 1.30432e-06 -6.72177e-06        00000 
 6.34116e-07 -3.86146e-06        00000 
 3.05199e-07 -2.23495e-06        00000 
 1.47426e-07 -1.30286e-06        00000 
 7.21705e-08 -7.63651e-07        00000 
 3.59630e-08 -4.49343e-07        00000 
 1.82282e-08 -2.65426e-07        00000 
 9.34553e-09 -1.57984e-07        00000 
 4.78248e-09 -9.59347e-08        00000 
 2.39254e-09 -6.13242e-08        00000 
 1.48687e-09 -4.36010e-08        00000 
 2.73706e-09 -3.38320e-08        00000 
 2.69190e-04  4.23962e-04        00000 
 7.80686e-05  5.00218e-04        00000 
 5.36917e-05  5.95043e-04        00000 
 5.73952e-05  6.90577e-04        00000 
 4.57528e-05  7.73176e-04        00000 
 1.78570e-05  8.21298e-04        00000 
-1.83507e-05  8.18051e-04        00000 
-5.23648e-05  7.59263e-04        00000 
-7.53544e-05  6.54951e-04        00000 
-8.32585e-05  5.24976e-04        00000 
-7.74453e-05  3.91654e-04        00000 
-6.29382e-05  2.72901e-04        00000 
-4.55889e-05  1.78586e-04        00000 
-2.98288e-05  1.10632e-04        00000 
-1.78217e-05  6.55693e-05        00000 
-9.82371e-06  3.76660e-05        00000 
-5.05148e-06  2.12720e-05        00000 
-2.45415e-06  1.19691e-05        00000 
-1.14331e-06  6.77614e-06        00000 
-5.19285e-07  3.87845e-06        00000 
-2.33792e-07  2.24464e-06        00000 
-1.05761e-07  1.31017e-06        00000 
-4.84409e-08  7.68854e-07        00000 
-2.24815e-08  4.52681e-07        00000 
-1.05257e-08  2.67414e-07        00000 
-4.93546e-09  1.59124e-07        00000 
-2.29319e-09  9.65924e-08        00000 
-1.03851e-09  6.17301e-08        00000 
-5.18394e-10  4.38956e-08        00000 
-6.26533e-10  3.40586e-08        00000 
-3.17240e-04 -5.07199e-04        00000 
-1.01534e-04 -6.05856e-04        00000 
-7.99856e-05 -7.36436e-04        00000 
-8.71024e-05 -8.76304e-04        00000 
-7.02771e-05 -1.00092e-03        00000 
-2.88572e-05 -1.07596e-03        00000 
 2.49682e-05 -1.07541e-03        00000 
 7.47408e-05 -9.93437e-04        00000 
 1.06814e-04 -8.46325e-04        00000 
 1.15575e-04 -6.65049e-04        00000 
 1.04239e-04 -4.83121e-04        00000 
 8.14132e-05 -3.25874e-04        00000 
 5.62009e-05 -2.05539e-04        00000 
 3.47641e-05 -1.22477e-04        00000 
 1.94845e-05 -6.99088e-05        00000 
 1.00002e-05 -3.88714e-05        00000 
 4.75342e-06 -2.14299e-05        00000 
 2.11976e-06 -1.18898e-05        00000 
 9.00029e-07 -6.69676e-06        00000 
 3.69507e-07 -3.83502e-06        00000 
 1.48556e-07 -2.22546e-06        00000 
 5.87115e-08 -1.30221e-06        00000 
 2.25123e-08 -7.65252e-07        00000 
 8.02056e-09 -4.50721e-07        00000 
 2.35261e-09 -2.66181e-07        00000 
 2.91522e-10 -1.58306e-07        00000 
-3.11435e-10 -9.60446e-08        00000 
-3.70267e-10 -6.13596e-08        00000 
-4.78755e-10 -4.36358e-08        00000 
-1.52144e-09 -3.38542e-08        00000 
 3.66819e-04  5.97985e-04        00000 
 1.32201e-04  7.25749e-04        00000 
 1.18824e-04  9.06361e-04        00000 
 1.31943e-04  1.11156e-03        00000 
 1.07847e-04  1.29956e-03        00000 
 4.59875e-05  1.41592e-03        00000 
-3.48138e-05  1.42013e-03        00000 
-1.08292e-04  1.30397e-03        00000 
-1.52973e-04  1.09411e-03        00000 
-1.61238e-04  8.39426e-04        00000 
-1.40060e-04  5.90569e-04        00000 
-1.04249e-04  3.83131e-04        00000 
-6.78790e-05  2.31301e-04        00000 
-3.91964e-05  1.31728e-04        00000 
-2.02880e-05  7.20948e-05        00000 
-9.50168e-06  3.87680e-05        00000 
-4.06193e-06  2.09316e-05        00000 