<?xml version="1.0" encoding="utf-8"?>
<VTKFile byte_order="LittleEndian" type="UnstructuredGrid" version="0.1">
   <UnstructuredGrid>
      <Piece NumberOfCells="3364" NumberOfPoints="1741">
         <Points>
            <DataArray Name="Points" NumberOfComponents="3" format="ascii" type="Float32">
0.0000 1.0000 0.0000
0.0000 1.0345 0.0000
0.0000 1.0690 0.0000
0.0000 1.1034 0.0000
0.0000 1.1379 0.0000
0.0000 1.1724 0.0000
0.0000 1.2069 0.0000
0.0000 1.2414 0.0000
0.0000 1.2759 0.0000
0.0000 1.3103 0.0000
0.0000 1.3448 0.0000
0.0000 1.3793 0.0000
0.0000 1.4138 0.0000
0.0000 1.4483 0.0000
0.0000 1.4828 0.0000
0.0000 1.5172 0.0000
0.0000 1.5517 0.0000
0.0000 1.5862 0.0000
0.0000 1.6207 0.0000
0.0000 1.6552 0.0000
0.0000 1.6897 0.0000
0.0000 1.7241 0.0000
0.0000 1.7586 0.0000
0.0000 1.7931 0.0000
0.0000 1.8276 0.0000
0.0000 1.8621 0.0000
0.0000 1.8966 0.0000
0.0000 1.9310 0.0000
0.0000 1.9655 0.0000
0.0000 2.0000 0.0000
0.0690 1.0000 0.0000
0.0690 1.0345 0.0000
0.0690 1.0690 0.0000
0.0690 1.1034 0.0000
0.0690 1.1379 0.0000
0.0690 1.1724 0.0000
0.0690 1.2069 0.0000
0.0690 1.2414 0.0000
0.0690 1.2759 0.0000
0.0690 1.3103 0.0000
0.0690 1.3448 0.0000
0.0690 1.3793 0.0000
0.0690 1.4138 0.0000
0.0690 1.4483 0.0000
0.0690 1.4828 0.0000
0.0690 1.5172 0.0000
0.0690 1.5517 0.0000
0.0690 1.5862 0.0000
0.0690 1.6207 0.0000
0.0690 1.6552 0.0000
0.0690 1.6897 0.0000
0.0690 1.7241 0.0000
0.0690 1.7586 0.0000
0.0690 1.7931 0.0000
0.0690 1.8276 0.0000
0.0690 1.8621 0.0000
0.0690 1.8966 0.0000
0.0690 1.9310 0.0000
0.0690 1.9655 0.0000
0.0690 2.0000 0.0000
0.1379 1.0000 0.0000
0.1379 1.0345 0.0000
0.1379 1.0690 0.0000
0.1379 1.1034 0.0000
0.1379 1.1379 0.0000
0.1379 1.1724 0.0000
0.1379 1.2069 0.0000
0.1379 1.2414 0.0000
0.1379 1.2759 0.0000
0.1379 1.3103 0.0000
0.1379 1.3448 0.0000
0.1379 1.3793 0.0000
0.1379 1.4138 0.0000
0.1379 1.4483 0.0000
0.1379 1.4828 0.0000
0.1379 1.5172 0.0000
0.1379 1.5517 0.0000
0.1379 1.5862 0.0000
0.1379 1.6207 0.0000
0.1379 1.6552 0.0000
0.1379 1.6897 0.0000
0.1379 1.7241 0.0000
0.1379 1.7586 0.0000
0.1379 1.7931 0.0000
0.1379 1.8276 0.0000
0.1379 1.8621 0.0000
0.1379 1.8966 0.0000
0.1379 1.9310 0.0000
0.1379 1.9655 0.0000
0.1379 2.0000 0.0000
0.2069 1.0000 0.0000
0.2069 1.0345 0.0000
0.2069 1.0690 0.0000
0.2069 1.1034 0.0000
0.2069 1.1379 0.0000
0.2069 1.1724 0.0000
0.2069 1.2069 0.0000
0.2069 1.2414 0.0000
0.2069 1.2759 0.0000
0.2069 1.3103 0.0000
0.2069 1.3448 0.0000
0.2069 1.3793 0.0000
0.2069 1.4138 0.0000
0.2069 1.4483 0.0000
0.2069 1.4828 0.0000
0.2069 1.5172 0.0000
0.2069 1.5517 0.0000
0.2069 1.5862 0.0000
0.2069 1.6207 0.0000
0.2069 1.6552 0.0000
0.2069 1.6897 0.0000
0.2069 1.7241 0.0000
0.2069 1.7586 0.0000
0.2069 1.7931 0.0000
0.2069 1.8276 0.0000
0.2069 1.8621 0.0000
0.2069 1.8966 0.0000
0.2069 1.9310 0.0000
0.2069 1.9655 0.0000
0.2069 2.0000 0.0000
0.2759 1.0000 0.0000
0.2759 1.0345 0.0000
0.2759 1.0690 0.0000
0.2759 1.1034 0.0000
0.2759 1.1379 0.0000
0.2759 1.1724 0.0000
0.2759 1.2069 0.0000
0.2759 1.2414 0.0000
0.2759 1.2759 0.0000
0.2759 1.3103 0.0000
0.2759 1.3448 0.0000
0.2759 1.3793 0.0000
0.2759 1.4138 0.0000
0.2759 1.4483 0.0000
0.2759 1.4828 0.0000
0.2759 1.5172 0.0000
0.2759 1.5517 0.0000
0.2759 1.5862 0.0000
0.2759 1.6207 0.0000
0.2759 1.6552 0.0000
0.2759 1.6897 0.0000
0.2759 1.7241 0.0000
0.2759 1.7586 0.0000
0.2759 1.7931 0.0000
0.2759 1.8276 0.0000
0.2759 1.8621 0.0000
0.2759 1.8966 0.0000
0.2759 1.9310 0.0000
0.2759 1.9655 0.0000
0.2759 2.0000 0.0000
0.3448 1.0000 0.0000
0.3448 1.0345 0.0000
0.3448 1.0690 0.0000
0.3448 1.1034 0.0000
0.3448 1.1379 0.0000
0.3448 1.1724 0.0000
0.3448 1.2069 0.0000
0.3448 1.2414 0.0000
0.3448 1.2759 0.0000
0.3448 1.3103 0.0000
0.3448 1.3448 0.0000
0.3448 1.3793 0.0000
0.3448 1.4138 0.0000
0.3448 1.4483 0.0000
0.3448 1.4828 0.0000
0.3448 1.5172 0.0000
0.3448 1.5517 0.0000
0.3448 1.5862 0.0000
0.3448 1.6207 0.0000
0.3448 1.6552 0.0000
0.3448 1.6897 0.0000
0.3448 1.7241 0.0000
0.3448 1.7586 0.0000
0.3448 1.7931 0.0000
0.3448 1.8276 0.0000
0.3448 1.8621 0.0000
0.3448 1.8966 0.0000
0.3448 1.9310 0.0000
0.3448 1.9655 0.0000
0.3448 2.0000 0.0000
0.4138 1.0000 0.0000
0.4138 1.0345 0.0000
0.4138 1.0690 0.0000
0.4138 1.1034 0.0000
0.4138 1.1379 0.0000
0.4138 1.1724 0.0000
0.4138 1.2069 0.0000
0.4138 1.2414 0.0000
0.4138 1.2759 0.0000
0.4138 1.3103 0.0000
0.4138 1.3448 0.0000
0.4138 1.3793 0.0000
0.4138 1.4138 0.0000
0.4138 1.4483 0.0000
0.4138 1.4828 0.0000
0.4138 1.5172 0.0000
0.4138 1.5517 0.0000
0.4138 1.5862 0.0000
0.4138 1.6207 0.0000
0.4138 1.6552 0.0000
0.4138 1.6897 0.0000
0.4138 1.7241 0.0000
0.4138 1.7586 0.0000
0.4138 1.7931 0.0000
0.4138 1.8276 0.0000
0.4138 1.8621 0.0000
0.4138 1.8966 0.0000
0.4138 1.9310 0.0000
0.4138 1.9655 0.0000
0.4138 2.0000 0.0000
0.4828 1.0000 0.0000
0.4828 1.0345 0.0000
0.4828 1.0690 0.0000
0.4828 1.1034 0.0000
0.4828 1.1379 0.0000
0.4828 1.1724 0.0000
0.4828 1.2069 0.0000
0.4828 1.2414 0.0000
0.4828 1.2759 0.0000
0.4828 1.3103 0.0000
0.4828 1.3448 0.0000
0.4828 1.3793 0.0000
0.4828 1.4138 0.0000
0.4828 1.4483 0.0000
0.4828 1.4828 0.0000
0.4828 1.5172 0.0000
0.4828 1.5517 0.0000
0.4828 1.5862 0.0000
0.4828 1.6207 0.0000
0.4828 1.6552 0.0000
0.4828 1.6897 0.0000
0.4828 1.7241 0.0000
0.4828 1.7586 0.0000
0.4828 1.7931 0.0000
0.4828 1.8276 0.0000
0.4828 1.8621 0.0000
0.4828 1.8966 0.0000
0.4828 1.9310 0.0000
0.4828 1.9655 0.0000
0.4828 2.0000 0.0000
0.5517 1.0000 0.0000
0.5517 1.0345 0.0000
0.5517 1.0690 0.0000
0.5517 1.1034 0.0000
0.5517 1.1379 0.0000
0.5517 1.1724 0.0000
0.5517 1.2069 0.0000
0.5517 1.2414 0.0000
0.5517 1.2759 0.0000
0.5517 1.3103 0.0000
0.5517 1.3448 0.0000
0.5517 1.3793 0.0000
0.5517 1.4138 0.0000
0.5517 1.4483 0.0000
0.5517 1.4828 0.0000
0.5517 1.5172 0.0000
0.5517 1.5517 0.0000
0.5517 1.5862 0.0000
0.5517 1.6207 0.0000
0.5517 1.6552 0.0000
0.5517 1.6897 0.0000
0.5517 1.7241 0.0000
0.5517 1.7586 0.0000
0.5517 1.7931 0.0000
0.5517 1.8276 0.0000
0.5517 1.8621 0.0000
0.5517 1.8966 0.0000
0.5517 1.9310 0.0000
0.5517 1.9655 0.0000
0.5517 2.0000 0.0000
0.6207 1.0000 0.0000
0.6207 1.0345 0.0000
0.6207 1.0690 0.0000
0.6207 1.1034 0.0000
0.6207 1.1379 0.0000
0.6207 1.1724 0.0000
0.6207 1.2069 0.0000
0.6207 1.2414 0.0000
0.6207 1.2759 0.0000
0.6207 1.3103 0.0000
0.6207 1.3448 0.0000
0.6207 1.3793 0.0000
0.6207 1.4138 0.0000
0.6207 1.4483 0.0000
0.6207 1.4828 0.0000
0.6207 1.5172 0.0000
0.6207 1.5517 0.0000
0.6207 1.5862 0.0000
0.6207 1.6207 0.0000
0.6207 1.6552 0.0000
0.6207 1.6897 0.0000
0.6207 1.7241 0.0000
0.6207 1.7586 0.0000
0.6207 1.7931 0.0000
0.6207 1.8276 0.0000
0.6207 1.8621 0.0000
0.6207 1.8966 0.0000
0.6207 1.9310 0.0000
0.6207 1.9655 0.0000
0.6207 2.0000 0.0000
0.6897 1.0000 0.0000
0.6897 1.0345 0.0000
0.6897 1.0690 0.0000
0.6897 1.1034 0.0000
0.6897 1.1379 0.0000
0.6897 1.1724 0.0000
0.6897 1.2069 0.0000
0.6897 1.2414 0.0000
0.6897 1.2759 0.0000
0.6897 1.3103 0.0000
0.6897 1.3448 0.0000
0.6897 1.3793 0.0000
0.6897 1.4138 0.0000
0.6897 1.4483 0.0000
0.6897 1.4828 0.0000
0.6897 1.5172 0.0000
0.6897 1.5517 0.0000
0.6897 1.5862 0.0000
0.6897 1.6207 0.0000
0.6897 1.6552 0.0000
0.6897 1.6897 0.0000
0.6897 1.7241 0.0000
0.6897 1.7586 0.0000
0.6897 1.7931 0.0000
0.6897 1.8276 0.0000
0.6897 1.8621 0.0000
0.6897 1.8966 0.0000
0.6897 1.9310 0.0000
0.6897 1.9655 0.0000
0.6897 2.0000 0.0000
0.7586 1.0000 0.0000
0.7586 1.0345 0.0000
0.7586 1.0690 0.0000
0.7586 1.1034 0.0000
0.7586 1.1379 0.0000
0.7586 1.1724 0.0000
0.7586 1.2069 0.0000
0.7586 1.2414 0.0000
0.7586 1.2759 0.0000
0.7586 1.3103 0.0000
0.7586 1.3448 0.0000
0.7586 1.3793 0.0000
0.7586 1.4138 0.0000
0.7586 1.4483 0.0000
0.7586 1.4828 0.0000
0.7586 1.5172 0.0000
0.7586 1.5517 0.0000
0.7586 1.5862 0.0000
0.7586 1.6207 0.0000
0.7586 1.6552 0.0000
0.7586 1.6897 0.0000
0.7586 1.7241 0.0000
0.7586 1.7586 0.0000
0.7586 1.7931 0.0000
0.7586 1.8276 0.0000
0.7586 1.8621 0.0000
0.7586 1.8966 0.0000
0.7586 1.9310 0.0000
0.7586 1.9655 0.0000
0.7586 2.0000 0.0000
0.8276 1.0000 0.0000
0.8276 1.0345 0.0000
0.8276 1.0690 0.0000
0.8276 1.1034 0.0000
0.8276 1.1379 0.0000
0.8276 1.1724 0.0000
0.8276 1.2069 0.0000
0.8276 1.2414 0.0000
0.8276 1.2759 0.0000
0.8276 1.3103 0.0000
0.8276 1.3448 0.0000
0.8276 1.3793 0.0000
0.8276 1.4138 0.0000
0.8276 1.4483 0.0000
0.8276 1.4828 0.0000
0.8276 1.5172 0.0000
0.8276 1.5517 0.0000
0.8276 1.5862 0.0000
0.8276 1.6207 0.0000
0.8276 1.6552 0.0000
0.8276 1.6897 0.0000
0.8276 1.7241 0.0000
0.8276 1.7586 0.0000
0.8276 1.7931 0.0000
0.8276 1.8276 0.0000
0.8276 1.8621 0.0000
0.8276 1.8966 0.0000
0.8276 1.9310 0.0000
0.8276 1.9655 0.0000
0.8276 2.0000 0.0000
0.8966 1.0000 0.0000
0.8966 1.0345 0.0000
0.8966 1.0690 0.0000
0.8966 1.1034 0.0000
0.8966 1.1379 0.0000
0.8966 1.1724 0.0000
0.8966 1.2069 0.0000
0.8966 1.2414 0.0000
0.8966 1.2759 0.0000
0.8966 1.3103 0.0000
0.8966 1.3448 0.0000
0.8966 1.3793 0.0000
0.8966 1.4138 0.0000
0.8966 1.4483 0.0000
0.8966 1.4828 0.0000
0.8966 1.5172 0.0000
0.8966 1.5517 0.0000
0.8966 1.5862 0.0000
0.8966 1.6207 0.0000
0.8966 1.6552 0.0000
0.8966 1.6897 0.0000
0.8966 1.7241 0.0000
0.8966 1.7586 0.0000
0.8966 1.7931 0.0000
0.8966 1.8276 0.0000
0.8966 1.8621 0.0000
0.8966 1.8966 0.0000
0.8966 1.9310 0.0000
0.8966 1.9655 0.0000
0.8966 2.0000 0.0000
0.9655 1.0000 0.0000
0.9655 1.0345 0.0000
0.9655 1.0690 0.0000
0.9655 1.1034 0.0000
0.9655 1.1379 0.0000
0.9655 1.1724 0.0000
0.9655 1.2069 0.0000
0.9655 1.2414 0.0000
0.9655 1.2759 0.0000
0.9655 1.3103 0.0000
0.9655 1.3448 0.0000
0.9655 1.3793 0.0000
0.9655 1.4138 0.0000
0.9655 1.4483 0.0000
0.9655 1.4828 0.0000
0.9655 1.5172 0.0000
0.9655 1.5517 0.0000
0.9655 1.5862 0.0000
0.9655 1.6207 0.0000
0.9655 1.6552 0.0000
0.9655 1.6897 0.0000
0.9655 1.7241 0.0000
0.9655 1.7586 0.0000
0.9655 1.7931 0.0000
0.9655 1.8276 0.0000
0.9655 1.8621 0.0000
0.9655 1.8966 0.0000
0.9655 1.9310 0.0000
0.9655 1.9655 0.0000
0.9655 2.0000 0.0000
1.0345 1.0000 0.0000
1.0345 1.0345 0.0000
1.0345 1.0690 0.0000
1.0345 1.1034 0.0000
1.0345 1.1379 0.0000
1.0345 1.1724 0.0000
1.0345 1.2069 0.0000
1.0345 1.2414 0.0000
1.0345 1.2759 0.0000
1.0345 1.3103 0.0000
1.0345 1.3448 0.0000
[...]
         <PointData>
            <DataArray Name="fValues" NumberOfComponents="3" format="ascii" type="Float64">
-5.77062e-23  2.51880e-22        00000 
-4.21099e-24 -6.73759e-23        00000 
 5.55220e-24  4.44176e-23        00000 
 6.62713e-24 -9.90582e-23        00000 
 8.32830e-24  4.44176e-23        00000 
 1.84253e-23 -3.35473e-22        00000 
 6.94025e-24 -2.22088e-23        00000 
 1.56958e-24 -2.97872e-22        00000 
 5.55220e-24 -4.99698e-23        00000 
 2.61175e-23 -1.34225e-22        00000 
 2.77610e-24 -3.33132e-23        00000 
 1.17719e-23 -8.55423e-23        00000 
 8.32830e-24  1.52685e-23        00000 
 8.89815e-24 -4.45596e-24        00000 
 8.32830e-24  4.16415e-24        00000 
-4.01116e-24 -1.20335e-23        00000 
 6.94025e-24 -8.67531e-24        00000 
-1.33521e-24  1.10354e-23        00000 
 3.12311e-24 -2.42909e-24        00000 
-1.02459e-24 -3.23999e-24        00000 
 1.73506e-24 -3.16649e-24        00000 
-2.00467e-25 -2.23256e-24        00000 
 5.20519e-25  1.17117e-24        00000 
 5.44995e-26 -1.02186e-24        00000 
 1.62662e-25  5.36785e-25        00000 
 1.22640e-26 -1.96608e-25        00000 
 1.08441e-26  1.51818e-25        00000 
 2.32055e-26 -3.07131e-26        00000 
-1.02536e-26  2.39250e-26        00000 
-4.04729e-26  1.01610e-25        00000 
-2.03098e-06 -6.99968e-07        00000 
-5.25192e-08 -6.81596e-07        00000 
 4.86408e-08 -9.36346e-07        00000 
 8.63285e-08 -9.59828e-07        00000 
 1.18075e-07 -9.11137e-07        00000 
 1.49618e-07 -8.39222e-07        00000 
 1.74879e-07 -7.52053e-07        00000 
 1.90607e-07 -6.53882e-07        00000 
 1.95180e-07 -5.50341e-07        00000 
 1.88743e-07 -4.47774e-07        00000 
 1.73058e-07 -3.51996e-07        00000 
 1.50977e-07 -2.67372e-07        00000 
 1.25728e-07 -1.96383e-07        00000 
 1.00257e-07 -1.39651e-07        00000 
 7.67899e-08 -9.63159e-08        00000 
 5.66702e-08 -6.45702e-08        00000 
 4.04245e-08 -4.21883e-08        00000 
 2.79625e-08 -2.69448e-08        00000 
 1.88180e-08 -1.68770e-08        00000 
 1.23614e-08 -1.04021e-08        00000 
 7.95192e-09 -6.33020e-09        00000 
 5.02497e-09 -3.81568e-09        00000 
 3.12795e-09 -2.28495e-09        00000 
 1.92210e-09 -1.36331e-09        00000 
 1.16676e-09 -8.13417e-10        00000 
 6.97700e-10 -4.88678e-10        00000 
 4.05918e-10 -2.99698e-10        00000 
 2.23159e-10 -1.86193e-10        00000 
 1.13587e-10 -9.03603e-11        00000 
 3.89854e-10 -8.22670e-11        00000 
 2.48187e-06  1.62323e-06        00000 
 3.34645e-07  1.76097e-06        00000 
-8.97881e-08  1.94269e-06        00000 
-1.20622e-07  1.96672e-06        00000 
-1.55833e-07  1.87861e-06        00000 
-1.95081e-07  1.73394e-06        00000 
-2.28376e-07  1.55276e-06        00000 
-2.49257e-07  1.34710e-06        00000 
-2.55008e-07  1.12998e-06        00000 
-2.45816e-07  9.15286e-07        00000 
-2.24238e-07  7.15559e-07        00000 
-1.94325e-07  5.40038e-07        00000 
-1.60561e-07  3.93783e-07        00000 
-1.26926e-07  2.77815e-07        00000 
-9.63283e-08  1.90004e-07        00000 
-7.04284e-08  1.26279e-07        00000 
-4.97783e-08  8.17903e-08        00000 
-3.41312e-08  5.17935e-08        00000 
-2.27830e-08  3.21783e-08        00000 
-1.48570e-08  1.96846e-08        00000 
-9.49677e-09  1.18987e-08        00000 
-5.96923e-09  7.13060e-09        00000 
-3.69967e-09  4.24923e-09        00000 
-2.26569e-09  2.52521e-09        00000 
-1.37168e-09  1.50175e-09        00000 
-8.18138e-10  8.99186e-10        00000 
-4.73860e-10  5.48141e-10        00000 
-2.55775e-10  3.43445e-10        00000 
-1.79420e-10  2.28105e-10        00000 
-4.35812e-10  1.82728e-10        00000 
-2.88401e-06 -2.60096e-06        00000 
-4.46853e-07 -2.88654e-06        00000 
 8.27104e-08 -3.09326e-06        00000 
 1.45981e-07 -3.09238e-06        00000 
 1.86440e-07 -2.95668e-06        00000 
 2.33455e-07 -2.73201e-06        00000 
 2.74320e-07 -2.44509e-06        00000 
 2.99999e-07 -2.11693e-06        00000 
 3.06423e-07 -1.77002e-06        00000 
 2.93855e-07 -1.42765e-06        00000 
 2.65871e-07 -1.11039e-06        00000 
 2.27960e-07 -8.33104e-07        00000 
 1.85998e-07 -6.03596e-07        00000 
 1.44998e-07 -4.22985e-07        00000 
 1.08427e-07 -2.87331e-07        00000 
 7.80826e-08 -1.89703e-07        00000 
 5.43667e-08 -1.22108e-07        00000 
 3.67448e-08 -7.68923e-08        00000 
 2.42018e-08 -4.75412e-08        00000 
 1.55934e-08 -2.89672e-08        00000 
 9.86379e-09 -1.74557e-08        00000 
 6.14573e-09 -1.04370e-08        00000 
 3.78205e-09 -6.20975e-09        00000 
 2.30325e-09 -3.68641e-09        00000 
 1.38839e-09 -2.19058e-09        00000 
 8.25096e-10 -1.31020e-09        00000 
 4.75915e-10 -7.97680e-10        00000 
 2.60079e-10 -5.06662e-10        00000 
 1.88935e-10 -3.53937e-10        00000 
 4.34270e-10 -2.75287e-10        00000 
 3.40844e-06  3.73134e-06        00000 
 5.49671e-07  4.15540e-06        00000 
-8.19749e-08  4.42941e-06        00000 
-1.67818e-07  4.41198e-06        00000 
-2.23385e-07  4.21606e-06        00000 
-2.83694e-07  3.89584e-06        00000 
-3.35996e-07  3.48279e-06        00000 
-3.68441e-07  3.00746e-06        00000 
-3.75475e-07  2.50440e-06        00000 
-3.57651e-07  2.00914e-06        00000 
-3.20198e-07  1.55256e-06        00000 
-2.70822e-07  1.15634e-06        00000 
-2.17445e-07  8.31173e-07        00000 
-1.66507e-07  5.77717e-07        00000 
-1.22158e-07  3.89262e-07        00000 
-8.62596e-08  2.55019e-07        00000 
-5.88957e-08  1.62996e-07        00000 
-3.90606e-08  1.02013e-07        00000 
-2.52769e-08  6.27562e-08        00000 
-1.60287e-08  3.80902e-08        00000 
-9.99933e-09  2.28902e-08        00000 
-6.15796e-09  1.36620e-08        00000 
-3.75395e-09  8.12035e-09        00000 
-2.26927e-09  4.81825e-09        00000 
-1.36015e-09  2.86244e-09        00000 
-8.04788e-10  1.71163e-09        00000 
-4.63182e-10  1.04270e-09        00000 
-2.54094e-10  6.66064e-10        00000 
-1.85473e-10  4.70908e-10        00000 
-4.18169e-10  3.65170e-10        00000 
-4.12333e-06 -5.07843e-06        00000 
-6.77025e-07 -5.65972e-06        00000 
 8.48056e-08 -6.02923e-06        00000 
 1.94484e-07 -6.00307e-06        00000 
 2.70697e-07 -5.73662e-06        00000 
 3.52352e-07 -5.29891e-06        00000 
 4.22262e-07 -4.72917e-06        00000 
 4.64673e-07 -4.06986e-06        00000 
 4.72183e-07 -3.37161e-06        00000 
 4.46140e-07 -2.68655e-06        00000 
 3.94501e-07 -2.05916e-06        00000 
 3.28410e-07 -1.51960e-06        00000 
 2.58805e-07 -1.08156e-06        00000 
 1.94101e-07 -7.44167e-07        00000 
 1.39270e-07 -4.96439e-07        00000 
 9.61065e-08 -3.22192e-07        00000 
 6.41240e-08 -2.04199e-07        00000 
 4.15877e-08 -1.26884e-07        00000 
 2.63536e-08 -7.76082e-08        00000 
 1.63969e-08 -4.69031e-08        00000 
 1.00609e-08 -2.81039e-08        00000 
 6.11008e-09 -1.67441e-08        00000 
 3.68292e-09 -9.94308e-09        00000 
 2.20668e-09 -5.89762e-09        00000 
 1.31372e-09 -3.50338e-09        00000 
 7.73490e-10 -2.09506e-09        00000 
 4.43946e-10 -1.27716e-09        00000 
 2.43600e-10 -8.17898e-10        00000 
 1.77329e-10 -5.80550e-10        00000 
 3.95914e-10 -4.50498e-10        00000 
 5.07604e-06  6.71862e-06        00000 
 8.45270e-07  7.49233e-06        00000 
-8.76753e-08  7.98828e-06        00000 
-2.27036e-07  7.96204e-06        00000 
-3.31816e-07  7.61403e-06        00000 
-4.45113e-07  7.03031e-06        00000 
-5.41323e-07  6.26096e-06        00000 
-5.98115e-07  5.36529e-06        00000 
-6.05604e-07  4.41655e-06        00000 
-5.66817e-07  3.49000e-06        00000 
-4.94187e-07  2.64847e-06        00000 
-4.04112e-07  1.93275e-06        00000 
-3.11890e-07  1.35928e-06        00000 
-2.28561e-07  9.23939e-07        00000 
-1.59986e-07  6.09087e-07        00000 
-1.07608e-07  3.90950e-07        00000 
-6.99743e-08  2.45359e-07        00000 
-4.42607e-08  1.51215e-07        00000 
-2.73955e-08  9.18978e-08        00000 
-1.66857e-08  5.52814e-08        00000 
-1.00494e-08  3.30230e-08        00000 
-6.00841e-09  1.96399e-08        00000 
-3.57600e-09  1.16527e-08        00000 
-2.12136e-09  6.90962e-09        00000 
-1.25333e-09  4.10452e-09        00000 
-7.33836e-10  2.45495e-09        00000 
-4.19696e-10  1.49731e-09        00000 
-2.29912e-10  9.60114e-10        00000 
-1.66603e-10  6.82684e-10        00000 
-3.69260e-10  5.30167e-10        00000 
-6.31969e-06 -8.74365e-06        00000 
-1.06841e-06 -9.75959e-06        00000 
 8.55283e-08 -1.04232e-05        00000 
 2.63984e-07 -1.04101e-05        00000 
 4.09590e-07 -9.96845e-06        00000 
 5.69420e-07 -9.20157e-06        00000 
 7.04237e-07 -8.17359e-06        00000 
 7.81344e-07 -6.96840e-06        00000 
 7.87483e-07 -5.69227e-06        00000 
 7.28952e-07 -4.45341e-06        00000 
 6.25457e-07 -3.33967e-06        00000 
 5.01364e-07 -2.40506e-06        00000 
 3.78138e-07 -1.66783e-06        00000 
 2.70157e-07 -1.11765e-06        00000 
 1.84053e-07 -7.26737e-07        00000 
 1.20385e-07 -4.60613e-07        00000 
 7.61212e-08 -2.85920e-07        00000 
 4.68583e-08 -1.74635e-07        00000 
 2.82738e-08 -1.05406e-07        00000 
 1.68287e-08 -6.31040e-08        00000 
 9.93436e-09 -3.75818e-08        00000 
 5.84066e-09 -2.23138e-08        00000 
 3.42907e-09 -1.32291e-08        00000 
 2.01241e-09 -7.84259e-09        00000 
 1.17912e-09 -4.65886e-09        00000 
 6.86104e-10 -2.78693e-09        00000 
 3.90711e-10 -1.70037e-09        00000 
 2.13445e-10 -1.09109e-09        00000 
 1.53837e-10 -7.76539e-10        00000 
 3.38647e-10 -6.03354e-10        00000 
 7.91995e-06  1.12639e-05        00000 
 1.36378e-06  1.25892e-05        00000 
-7.04192e-08  1.34783e-05        00000 
-3.01276e-07  1.35011e-05        00000 
-5.06732e-07  1.29542e-05        00000 
-7.35563e-07  1.19557e-05        00000 
-9.26886e-07  1.05879e-05        00000 
-1.03219e-06  8.97150e-06        00000 
-1.03398e-06  7.26185e-06        00000 
-9.44732e-07  5.61476e-06        00000 
-7.95936e-07  4.15229e-06        00000 
-6.23939e-07  2.94441e-06        00000 
-4.58745e-07  2.00894e-06        00000 
-3.18737e-07  1.32451e-06        00000 
-2.10843e-07  8.47996e-07        00000 
-1.33797e-07  5.29995e-07        00000 
-8.20912e-08  3.25092e-07        00000 
-4.90860e-08  1.96688e-07        00000 
-2.88273e-08  1.17893e-07        00000 
-1.67464e-08  7.02497e-08        00000 
-9.68030e-09  4.17199e-08        00000 
-5.59225e-09  2.47344e-08        00000 
-3.23671e-09  1.46551e-08        00000 
-1.87805e-09  8.68651e-09        00000 
-1.09061e-09  5.16031e-09        00000 
-6.30257e-10  3.08721e-09        00000 
-3.57102e-10  1.88395e-09        00000 
-1.94385e-10  1.20936e-09        00000 
-1.39229e-10  8.61202e-10        00000 
-3.04298e-10  6.69324e-10        00000 
-9.95759e-06 -1.44117e-05        00000 
-1.75508e-06 -1.61365e-05        00000 
 2.88226e-08 -1.73341e-05        00000 
 3.30813e-07 -1.74329e-05        00000 
 6.25841e-07 -1.67721e-05        00000 
 9.58188e-07 -1.54787e-05        00000 
 1.23240e-06 -1.36590e-05        00000 
 1.37617e-06 -1.14895e-05        00000 
 1.36739e-06 -9.20008e-06        00000 
 1.23009e-06 -7.01565e-06        00000 
 1.01480e-06 -5.10488e-06        00000 
 7.75724e-07 -3.55600e-06        00000 
 5.54378e-07 -2.38169e-06        00000 
 3.73525e-07 -1.54179e-06        00000 
 2.39250e-07 -9.70338e-07        00000 
 1.46927e-07 -5.97358e-07        00000 
 8.72768e-08 -3.61863e-07        00000 
 5.05995e-08 -2.16851e-07        00000 
 2.88826e-08 -1.29107e-07        00000 
 1.63601e-08 -7.66040e-08        00000 
 9.25451e-09 -4.53838e-08        00000 
 5.25074e-09 -2.68749e-08        00000 
 2.99461e-09 -1.59160e-08        00000 
 1.71696e-09 -9.43264e-09        00000 
 9.87515e-10 -5.60349e-09        00000 
 5.66316e-10 -3.35240e-09        00000 
 3.18986e-10 -2.04593e-09        00000 
 1.72869e-10 -1.31360e-09        00000 
 1.22911e-10 -9.35771e-10        00000 
 2.66447e-10 -7.27389e-10        00000 
 1.25295e-05  1.83443e-05        00000 
 2.27582e-06  2.05899e-05        00000 
 6.27707e-08  2.22176e-05        00000 
-3.37461e-07  2.24623e-05        00000 
-7.69235e-07  2.16878e-05        00000 
-1.25878e-06  2.00161e-05        00000 
-1.65494e-06  1.75874e-05        00000 
-1.84998e-06  1.46657e-05        00000 
-1.81835e-06  1.15945e-05        00000 
-1.60545e-06  8.69982e-06        00000 
-1.29258e-06  6.21277e-06        00000 
-9.60142e-07  4.24048e-06        00000 
-6.64643e-07  2.78137e-06        00000 
-4.32781e-07  1.76434e-06        00000 
-2.67547e-07  1.08998e-06        00000 
-1.58539e-07  6.60427e-07        00000 
-9.09498e-08  3.95052e-07        00000 
-5.10262e-08  2.34573e-07        00000 
-2.82710e-08  1.38813e-07        00000 
-1.56012e-08  8.20671e-08        00000 
-8.63167e-09  4.85295e-08        00000 
-4.80771e-09  2.87135e-08        00000 
-2.70027e-09  1.69992e-08        00000 
-1.52859e-09  1.00733e-08        00000 
-8.69837e-10  5.98354e-09        00000 
-4.94430e-10  3.57949e-09        00000 
-2.76526e-10  2.18441e-09        00000 
-1.49030e-10  1.40260e-09        00000 
-1.05008e-10  9.99418e-10        00000 
-2.25386e-10  7.76917e-10        00000 
-1.57473e-05 -2.32443e-05        00000 
-2.97464e-06 -2.61761e-05        00000 
-2.45380e-07 -2.84151e-05        00000 
 2.93922e-07 -2.89268e-05        00000 
 9.38757e-07 -2.80563e-05        00000 
 1.66988e-06 -2.58953e-05        00000 
 2.24576e-06 -2.26344e-05        00000 
 2.50663e-06 -1.86781e-05        00000 
 2.42860e-06 -1.45454e-05        00000 
 2.09631e-06 -1.07098e-05        00000 
 1.64039e-06 -7.48439e-06        00000 
 1.17912e-06 -4.99131e-06        00000 
 7.87292e-07 -3.19811e-06        00000 
 4.93390e-07 -1.98413e-06        00000 
 2.93244e-07 -1.20183e-06        00000 
 1.67084e-07 -7.16500e-07        00000 
 9.22986e-08 -4.23406e-07        00000 
 4.99990e-08 -2.49337e-07        00000 
 2.68473e-08 -1.46811e-07        00000 
 1.44196e-08 -8.65632e-08        00000 
 7.79715e-09 -5.11241e-08        00000 
 4.25975e-09 -3.02325e-08        00000 
 2.35333e-09 -1.78940e-08        00000 
 1.31320e-09 -1.06016e-08        00000 
 7.37922e-10 -6.29615e-09        00000 
 4.14892e-10 -3.76577e-09        00000 
 2.29948e-10 -2.29774e-09        00000 
 1.23028e-10 -1.47531e-09        00000 
 8.56621e-11 -1.05141e-09        00000 
 1.81461e-10 -8.17349e-10        00000 
 1.97325e-05  2.93156e-05        00000 
 3.92411e-06  3.31622e-05        00000 
 5.90707e-07  3.62891e-05        00000 
-1.52111e-07  3.72760e-05        00000 
-1.13596e-06  3.63603e-05        00000 
-2.24267e-06  3.35575e-05        00000 
-3.08308e-06  2.91410e-05        00000 
-3.42299e-06  2.37450e-05        00000 
-3.25432e-06  1.81624e-05        00000 
-2.73310e-06  1.30804e-05        00000 
-2.06835e-06  8.91563e-06        00000 
-1.43140e-06  5.79133e-06        00000 
-9.17161e-07  3.61547e-06        00000 
-5.50423e-07  2.18995e-06        00000 
-3.13020e-07  1.29970e-06        00000 
-1.70755e-07  7.62678e-07        00000 
-9.05009e-08  4.45752e-07        00000 
-4.72021e-08  2.60725e-07        00000 
-2.45121e-08  1.52965e-07        00000 
-1.27922e-08  9.00449e-08        00000 
-6.74894e-09  5.31456e-08        00000 
-3.60872e-09  3.14185e-08        00000 
-1.95547e-09  1.85913e-08        00000 
-1.07188e-09  1.10115e-08        00000 
-5.92446e-10  6.53753e-09        00000 
-3.28153e-10  3.90896e-09        00000 
-1.79552e-10  2.38452e-09        00000 
-9.50528e-11  1.53085e-09        00000 
-6.50374e-11  1.09112e-09        00000 
-1.35076e-10  8.48213e-10        00000 
-2.46023e-05 -3.67693e-05        00000 
-5.23617e-06 -4.18538e-05        00000 
-1.22455e-06 -4.62999e-05        00000 
-1.71215e-07 -4.81185e-05        00000 
 1.36375e-06 -4.72662e-05        00000 
 3.06053e-06 -4.36044e-05        00000 
 4.28814e-06 -3.75527e-05        00000 
 4.71055e-06 -3.01292e-05        00000 
 4.36960e-06 -2.25564e-05        00000 
 3.54963e-06 -1.58281e-05        00000 
 2.58232e-06 -1.04817e-05        00000 
 1.70999e-06 -6.60866e-06        00000 
 1.04489e-06 -4.00926e-06        00000 
 5.96778e-07 -2.36765e-06        00000 
 3.22787e-07 -1.37680e-06        00000 
 1.67650e-07 -7.96225e-07        00000 
 8.48357e-08 -4.61176e-07        00000 
 4.24263e-08 -2.68487e-07        00000 
 2.12309e-08 -1.57216e-07        00000 
 1.07269e-08 -9.24927e-08        00000 
 5.49782e-09 -5.45805e-08        00000 
 2.86125e-09 -3.22601e-08        00000 
 1.51010e-09 -1.90828e-08        00000 
 8.06397e-10 -1.12977e-08        00000 
 4.34413e-10 -6.70442e-09        00000 
 2.34830e-10 -4.00712e-09        00000 
 1.25728e-10 -2.44362e-09        00000 
 6.53397e-11 -1.56853e-09        00000 
 4.33242e-11 -1.11808e-09        00000 
 8.66898e-11 -8.69135e-10        00000 
 3.04401e-05  4.57896e-05        00000 
 7.09008e-06  5.25809e-05        00000 
 2.36903e-06  5.90358e-05        00000 
 8.18254e-07  6.22958e-05        00000 
-1.63206e-06  6.17116e-05        00000 
-4.26434e-06  5.68645e-05        00000 
-6.05145e-06  4.84487e-05        00000 
-6.53026e-06  3.81352e-05        00000 
-5.86852e-06  2.78219e-05        00000 
-4.57827e-06  1.89330e-05        00000 
-3.17828e-06  1.21260e-05        00000 
-1.99861e-06  7.39255e-06        00000 
-1.15557e-06  4.34722e-06        00000 
-6.23121e-07  2.50103e-06        00000 
-3.18009e-07  1.42654e-06        00000 
-1.56039e-07  8.15046e-07        00000 
-7.48290e-08  4.69208e-07        00000 
-3.56226e-08  2.72584e-07        00000 
-1.70469e-08  1.59580e-07        00000 
-8.26251e-09  9.39084e-08        00000 
-4.06543e-09  5.54195e-08        00000 
-2.02759e-09  3.27469e-08        00000 
-1.02197e-09  1.93608e-08        00000 
-5.19133e-10  1.14554e-08        00000 
-2.65163e-10  6.79419e-09        00000 
-1.35730e-10  4.05883e-09        00000 
-6.89622e-11  2.47424e-09        00000 
-3.41715e-11  1.58785e-09        00000 
-2.07411e-11  1.13192e-09        00000 
-3.68062e-11  8.79849e-10        00000 
-3.72350e-05 -5.64618e-05        00000 
-9.78513e-06 -6.56630e-05        00000 
-4.42017e-06 -7.52566e-05        00000 
-2.02891e-06 -8.10024e-05        00000 
 1.97435e-06 -8.10442e-05        00000 
 6.09971e-06 -7.44897e-05        00000 
 8.67515e-06 -6.25731e-05        00000 
 9.11109e-06 -4.80921e-05        00000 
 7.86290e-06 -3.40032e-05        00000 
 5.83943e-06 -2.23117e-05        00000 
 3.83338e-06 -1.37471e-05        00000 
 2.26736e-06 -8.07033e-06        00000 
 1.22794e-06 -4.59046e-06        00000 
 6.18405e-07 -2.57389e-06        00000 
 2.94349e-07 -1.44388e-06        00000 
 1.34752e-07 -8.18212e-07        00000 
 6.04035e-08 -4.69953e-07        00000 
 2.69379e-08 -2.73183e-07        00000 
 1.20796e-08 -1.60129e-07        00000 
 5.46288e-09 -9.43017e-08        00000 
 2.48057e-09 -5.56530e-08        00000 
 1.12021e-09 -3.28686e-08        00000 
 4.96841e-10 -1.94187e-08        00000 
 2.13060e-10 -1.14811e-08        00000 
 8.63880e-11 -6.80499e-09        00000 
 3.18588e-11 -4.06313e-09        00000 
 9.84830e-12 -2.47588e-09        00000 
 1.88197e-12 -1.58852e-09        00000 
-2.46526e-12 -1.13244e-09        00000 
-1.40255e-11 -8.80199e-10        00000 
 4.47619e-05  6.86246e-05        00000 
 1.38439e-05  8.13317e-05        00000 
 8.09264e-06  9.59643e-05        00000 
 4.20206e-06  1.05991e-04        00000 
-2.49084e-06  1.07246e-04        00000 
-9.00611e-06  9.80927e-05        00000 
-1.26399e-05  8.08584e-05        00000 
-1.27691e-05  6.03054e-05        00000 
-1.04688e-05  4.10347e-05        00000 
-7.32112e-06  2.57793e-05        00000 
-4.49291e-06  1.51855e-05        00000 
-2.46853e-06  8.54813e-06        00000 
-1.23475e-06  4.69783e-06        00000 
-5.71355e-07  2.57328e-06        00000 
-2.48692e-07  1.42677e-06        00000 
-1.03611e-07  8.06363e-07        00000 
-4.19877e-08  4.64097e-07        00000 