<?xml version="1.0" encoding="utf-8"?>
<VTKFile byte_order="LittleEndian" type="UnstructuredGrid" version="0.1">
   <UnstructuredGrid>
      <Piece NumberOfCells="3364" NumberOfPoints="1741">
         <Points>
            <DataArray Name="Points" NumberOfComponents="3" format="ascii" type="Float32">
0.0000 1.0000 0.0000
0.0000 1.0345 0.0000
0.0000 1.0690 0.0000
0.0000 1.1034 0.0000
0.0000 1.1379 0.0000
0.0000 1.1724 0.0000
0.0000 1.2069 0.0000
0.0000 1.2414 0.0000
0.0000 1.2759 0.0000
0.0000 1.3103 0.0000
0.0000 1.3448 0.0000
0.0000 1.3793 0.0000
0.0000 1.4138 0.0000
0.0000 1.4483 0.0000
0.0000 1.4828 0.0000
0.0000 1.5172 0.0000
0.0000 1.5517 0.0000
0.0000 1.5862 0.0000
0.0000 1.6207 0.0000
0.0000 1.6552 0.0000
0.0000 1.6897 0.0000
0.0000 1.7241 0.0000
0.0000 1.7586 0.0000
0.0000 1.7931 0.0000
0.0000 1.8276 0.0000
0.0000 1.8621 0.0000
0.0000 1.8966 0.0000
0.0000 1.9310 0.0000
0.0000 1.9655 0.0000
0.0000 2.0000 0.0000
0.0690 1.0000 0.0000
0.0690 1.0345 0.0000
0.0690 1.0690 0.0000
0.0690 1.1034 0.0000
0.0690 1.1379 0.0000
0.0690 1.1724 0.0000
0.0690 1.2069 0.0000
0.0690 1.2414 0.0000
0.0690 1.2759 0.0000
0.0690 1.3103 0.0000
0.0690 1.3448 0.0000
0.0690 1.3793 0.0000
0.0690 1.4138 0.0000
0.0690 1.4483 0.0000
0.0690 1.4828 0.0000
0.0690 1.5172 0.0000
0.0690 1.5517 0.0000
0.0690 1.5862 0.0000
0.0690 1.6207 0.0000
0.0690 1.6552 0.0000
0.0690 1.6897 0.0000
0.0690 1.7241 0.0000
0.0690 1.7586 0.0000
0.0690 1.7931 0.0000
0.0690 1.8276 0.0000
0.0690 1.8621 0.0000
0.0690 1.8966 0.0000
0.0690 1.9310 0.0000
0.0690 1.9655 0.0000
0.0690 2.0000 0.0000
0.1379 1.0000 0.0000
0.1379 1.0345 0.0000
0.1379 1.0690 0.0000
0.1379 1.1034 0.0000
0.1379 1.1379 0.0000
0.1379 1.1724 0.0000
0.1379 1.2069 0.0000
0.1379 1.2414 0.0000
0.1379 1.2759 0.0000
0.1379 1.3103 0.0000
0.1379 1.3448 0.0000
0.1379 1.3793 0.0000
0.1379 1.4138 0.0000
0.1379 1.4483 0.0000
0.1379 1.4828 0.0000
0.1379 1.5172 0.0000
0.1379 1.5517 0.0000
0.1379 1.5862 0.0000
0.1379 1.6207 0.0000
0.1379 1.6552 0.0000
0.1379 1.6897 0.0000
0.1379 1.7241 0.0000
0.1379 1.7586 0.0000
0.1379 1.7931 0.0000
0.1379 1.8276 0.0000
0.1379 1.8621 0.0000
0.1379 1.8966 0.0000
0.1379 1.9310 0.0000
0.1379 1.9655 0.0000
0.1379 2.0000 0.0000
0.2069 1.0000 0.0000
0.2069 1.0345 0.0000
0.2069 1.0690 0.0000
0.2069 1.1034 0.0000
0.2069 1.1379 0.0000
0.2069 1.1724 0.0000
0.2069 1.2069 0.0000
0.2069 1.2414 0.0000
0.2069 1.2759 0.0000
0.2069 1.3103 0.0000
0.2069 1.3448 0.0000
0.2069 1.3793 0.0000
0.2069 1.4138 0.0000
0.2069 1.4483 0.0000
0.2069 1.4828 0.0000
0.2069 1.5172 0.0000
0.2069 1.5517 0.0000
0.2069 1.5862 0.0000
0.2069 1.6207 0.0000
0.2069 1.6552 0.0000
0.2069 1.6897 0.0000
0.2069 1.7241 0.0000
0.2069 1.7586 0.0000
0.2069 1.7931 0.0000
0.2069 1.8276 0.0000
0.2069 1.8621 0.0000
0.2069 1.8966 0.0000
0.2069 1.9310 0.0000
0.2069 1.9655 0.0000
0.2069 2.0000 0.0000
0.2759 1.0000 0.0000
0.2759 1.0345 0.0000
0.2759 1.0690 0.0000
0.2759 1.1034 0.0000
0.2759 1.1379 0.0000
0.2759 1.1724 0.0000
0.2759 1.2069 0.0000
0.2759 1.2414 0.0000
0.2759 1.2759 0.0000
0.2759 1.3103 0.0000
0.2759 1.3448 0.0000
0.2759 1.3793 0.0000
0.2759 1.4138 0.0000
0.2759 1.4483 0.0000
0.2759 1.4828 0.0000
0.2759 1.5172 0.0000
0.2759 1.5517 0.0000
0.2759 1.5862 0.0000
0.2759 1.6207 0.0000
0.2759 1.6552 0.0000
0.2759 1.6897 0.0000
0.2759 1.7241 0.0000
0.2759 1.7586 0.0000
0.2759 1.7931 0.0000
0.2759 1.8276 0.0000
0.2759 1.8621 0.0000
0.2759 1.8966 0.0000
0.2759 1.9310 0.0000
0.2759 1.9655 0.0000
0.2759 2.0000 0.0000
0.3448 1.0000 0.0000
0.3448 1.0345 0.0000
0.3448 1.0690 0.0000
0.3448 1.1034 0.0000
0.3448 1.1379 0.0000
0.3448 1.1724 0.0000
0.3448 1.2069 0.0000
0.3448 1.2414 0.0000
0.3448 1.2759 0.0000
0.3448 1.3103 0.0000
0.3448 1.3448 0.0000
0.3448 1.3793 0.0000
0.3448 1.4138 0.0000
0.3448 1.4483 0.0000
0.3448 1.4828 0.0000
0.3448 1.5172 0.0000
0.3448 1.5517 0.0000
0.3448 1.5862 0.0000
0.3448 1.6207 0.0000
0.3448 1.6552 0.0000
0.3448 1.6897 0.0000
0.3448 1.7241 0.0000
0.3448 1.7586 0.0000
0.3448 1.7931 0.0000
0.3448 1.8276 0.0000
0.3448 1.8621 0.0000
0.3448 1.8966 0.0000
0.3448 1.9310 0.0000
0.3448 1.9655 0.0000
0.3448 2.0000 0.0000
0.4138 1.0000 0.0000
0.4138 1.0345 0.0000
0.4138 1.0690 0.0000
0.4138 1.1034 0.0000
0.4138 1.1379 0.0000
0.4138 1.1724 0.0000
0.4138 1.2069 0.0000
0.4138 1.2414 0.0000
0.4138 1.2759 0.0000
0.4138 1.3103 0.0000
0.4138 1.3448 0.0000
0.4138 1.3793 0.0000
0.4138 1.4138 0.0000
0.4138 1.4483 0.0000
0.4138 1.4828 0.0000
0.4138 1.5172 0.0000
0.4138 1.5517 0.0000
0.4138 1.5862 0.0000
0.4138 1.6207 0.0000
0.4138 1.6552 0.0000
0.4138 1.6897 0.0000
0.4138 1.7241 0.0000
0.4138 1.7586 0.0000
0.4138 1.7931 0.0000
0.4138 1.8276 0.0000
0.4138 1.8621 0.0000
0.4138 1.8966 0.0000
0.4138 1.9310 0.0000
0.4138 1.9655 0.0000
0.4138 2.0000 0.0000
0.4828 1.0000 0.0000
0.4828 1.0345 0.0000
0.4828 1.0690 0.0000
0.4828 1.1034 0.0000
0.4828 1.1379 0.0000
0.4828 1.1724 0.0000
0.4828 1.2069 0.0000
0.4828 1.2414 0.0000
0.4828 1.2759 0.0000
0.4828 1.3103 0.0000
0.4828 1.3448 0.0000
0.4828 1.3793 0.0000
0.4828 1.4138 0.0000
0.4828 1.4483 0.0000
0.4828 1.4828 0.0000
0.4828 1.5172 0.0000
0.4828 1.5517 0.0000
0.4828 1.5862 0.0000
0.4828 1.6207 0.0000
0.4828 1.6552 0.0000
0.4828 1.6897 0.0000
0.4828 1.7241 0.0000
0.4828 1.7586 0.0000
0.4828 1.7931 0.0000
0.4828 1.8276 0.0000
0.4828 1.8621 0.0000
0.4828 1.8966 0.0000
0.4828 1.9310 0.0000
0.4828 1.9655 0.0000
0.4828 2.0000 0.0000
0.5517 1.0000 0.0000
0.5517 1.0345 0.0000
0.5517 1.0690 0.0000
0.5517 1.1034 0.0000
0.5517 1.1379 0.0000
0.5517 1.1724 0.0000
0.5517 1.2069 0.0000
0.5517 1.2414 0.0000
0.5517 1.2759 0.0000
0.5517 1.3103 0.0000
0.5517 1.3448 0.0000
0.5517 1.3793 0.0000
0.5517 1.4138 0.0000
0.5517 1.4483 0.0000
0.5517 1.4828 0.0000
0.5517 1.5172 0.0000
0.5517 1.5517 0.0000
0.5517 1.5862 0.0000
0.5517 1.6207 0.0000
0.5517 1.6552 0.0000
0.5517 1.6897 0.0000
0.5517 1.7241 0.0000
0.5517 1.7586 0.0000
0.5517 1.7931 0.0000
0.5517 1.8276 0.0000
0.5517 1.8621 0.0000
0.5517 1.8966 0.0000
0.5517 1.9310 0.0000
0.5517 1.9655 0.0000
0.5517 2.0000 0.0000
0.6207 1.0000 0.0000
0.6207 1.0345 0.0000
0.6207 1.0690 0.0000
0.6207 1.1034 0.0000
0.6207 1.1379 0.0000
0.6207 1.1724 0.0000
0.6207 1.2069 0.0000
0.6207 1.2414 0.0000
0.6207 1.2759 0.0000
0.6207 1.3103 0.0000
0.6207 1.3448 0.0000
0.6207 1.3793 0.0000
0.6207 1.4138 0.0000
0.6207 1.4483 0.0000
0.6207 1.4828 0.0000
0.6207 1.5172 0.0000
0.6207 1.5517 0.0000
0.6207 1.5862 0.0000
0.6207 1.6207 0.0000
0.6207 1.6552 0.0000
0.6207 1.6897 0.0000
0.6207 1.7241 0.0000
0.6207 1.7586 0.0000
0.6207 1.7931 0.0000
0.6207 1.8276 0.0000
0.6207 1.8621 0.0000
0.6207 1.8966 0.0000
0.6207 1.9310 0.0000
0.6207 1.9655 0.0000
0.6207 2.0000 0.0000
0.6897 1.0000 0.0000
0.6897 1.0345 0.0000
0.6897 1.0690 0.0000
0.6897 1.1034 0.0000
0.6897 1.1379 0.0000
0.6897 1.1724 0.0000
0.6897 1.2069 0.0000
0.6897 1.2414 0.0000
0.6897 1.2759 0.0000
0.6897 1.3103 0.0000
0.6897 1.3448 0.0000
0.6897 1.3793 0.0000
0.6897 1.4138 0.0000
0.6897 1.4483 0.0000
0.6897 1.4828 0.0000
0.6897 1.5172 0.0000
0.6897 1.5517 0.0000
0.6897 1.5862 0.0000
0.6897 1.6207 0.0000
0.6897 1.6552 0.0000
0.6897 1.6897 0.0000
0.6897 1.7241 0.0000
0.6897 1.7586 0.0000
0.6897 1.7931 0.0000
0.6897 1.8276 0.0000
0.6897 1.8621 0.0000
0.6897 1.8966 0.0000
0.6897 1.9310 0.0000
0.6897 1.9655 0.0000
0.6897 2.0000 0.0000
0.7586 1.0000 0.0000
0.7586 1.0345 0.0000
0.7586 1.0690 0.0000
0.7586 1.1034 0.0000
0.7586 1.1379 0.0000
0.7586 1.1724 0.0000
0.7586 1.2069 0.0000
0.7586 1.2414 0.0000
0.7586 1.2759 0.0000
0.7586 1.3103 0.0000
0.7586 1.3448 0.0000
0.7586 1.3793 0.0000
0.7586 1.4138 0.0000
0.7586 1.4483 0.0000
0.7586 1.4828 0.0000
0.7586 1.5172 0.0000
0.7586 1.5517 0.0000
0.7586 1.5862 0.0000
0.7586 1.6207 0.0000
0.7586 1.6552 0.0000
0.7586 1.6897 0.0000
0.7586 1.7241 0.0000
0.7586 1.7586 0.0000
0.7586 1.7931 0.0000
0.7586 1.8276 0.0000
0.7586 1.8621 0.0000
0.7586 1.8966 0.0000
0.7586 1.9310 0.0000
0.7586 1.9655 0.0000
0.7586 2.0000 0.0000
0.8276 1.0000 0.0000
0.8276 1.0345 0.0000
0.8276 1.0690 0.0000
0.8276 1.1034 0.0000
0.8276 1.1379 0.0000
0.8276 1.1724 0.0000
0.8276 1.2069 0.0000
0.8276 1.2414 0.0000
0.8276 1.2759 0.0000
0.8276 1.3103 0.0000
0.8276 1.3448 0.0000
0.8276 1.3793 0.0000
0.8276 1.4138 0.0000
0.8276 1.4483 0.0000
0.8276 1.4828 0.0000
0.8276 1.5172 0.0000
0.8276 1.5517 0.0000
0.8276 1.5862 0.0000
0.8276 1.6207 0.0000
0.8276 1.6552 0.0000
0.8276 1.6897 0.0000
0.8276 1.7241 0.0000
0.8276 1.7586 0.0000
0.8276 1.7931 0.0000
0.8276 1.8276 0.0000
0.8276 1.8621 0.0000
0.8276 1.8966 0.0000
0.8276 1.9310 0.0000
0.8276 1.9655 0.0000
0.8276 2.0000 0.0000
0.8966 1.0000 0.0000
0.8966 1.0345 0.0000
0.8966 1.0690 0.0000
0.8966 1.1034 0.0000
0.8966 1.1379 0.0000
0.8966 1.1724 0.0000
0.8966 1.2069 0.0000
0.8966 1.2414 0.0000
0.8966 1.2759 0.0000
0.8966 1.3103 0.0000
0.8966 1.3448 0.0000
0.8966 1.3793 0.0000
0.8966 1.4138 0.0000
0.8966 1.4483 0.0000
0.8966 1.4828 0.0000
0.8966 1.5172 0.0000
0.8966 1.5517 0.0000
0.8966 1.5862 0.0000
0.8966 1.6207 0.0000
0.8966 1.6552 0.0000
0.8966 1.6897 0.0000
0.8966 1.7241 0.0000
0.8966 1.7586 0.0000
0.8966 1.7931 0.0000
0.8966 1.8276 0.0000
0.8966 1.8621 0.0000
0.8966 1.8966 0.0000
0.8966 1.9310 0.0000
0.8966 1.9655 0.0000
0.8966 2.0000 0.0000
0.9655 1.0000 0.0000
0.9655 1.0345 0.0000
0.9655 1.0690 0.0000
0.9655 1.1034 0.0000
0.9655 1.1379 0.0000
0.9655 1.1724 0.0000
0.9655 1.2069 0.0000
0.9655 1.2414 0.0000
0.9655 1.2759 0.0000
0.9655 1.3103 0.0000
0.9655 1.3448 0.0000
0.9655 1.3793 0.0000
0.9655 1.4138 0.0000
0.9655 1.4483 0.0000
0.9655 1.4828 0.0000
0.9655 1.5172 0.0000
0.9655 1.5517 0.0000
0.9655 1.5862 0.0000
0.9655 1.6207 0.0000
0.9655 1.6552 0.0000
0.9655 1.6897 0.0000
0.9655 1.7241 0.0000
0.9655 1.7586 0.0000
0.9655 1.7931 0.0000
0.9655 1.8276 0.0000
0.9655 1.8621 0.0000
0.9655 1.8966 0.0000
0.9655 1.9310 0.0000
0.9655 1.9655 0.0000
0.9655 2.0000 0.0000
1.0345 1.0000 0.0000
1.0345 1.0345 0.0000
1.0345 1.0690 0.0000
1.0345 1.1034 0.0000
1.0345 1.1379 0.0000
1.0345 1.1724 0.0000
1.0345 1.2069 0.0000
1.0345 1.2414 0.0000
1.0345 1.2759 0.0000
1.0345 1.3103 0.0000
1.0345 1.3448 0.0000
[...]
         <PointData>
            <DataArray Name="fValues" NumberOfComponents="3" format="ascii" type="Float64">
-2.01167e-24 -3.32152e-24        00000 
 7.01832e-25 -1.40366e-24        00000 
-4.16415e-24  5.55220e-24        00000 
 9.06871e-24 -2.17998e-23        00000 
-8.32830e-24  1.11044e-23        00000 
 2.44249e-23 -5.52584e-23        00000 
-1.11044e-22 -4.16415e-23        00000 
 1.98465e-22  9.06871e-24        00000 
-1.33253e-22  6.66264e-23        00000 
-5.35543e-22 -7.28993e-23        00000 
 4.21967e-22  3.33132e-22        00000 
 4.68783e-22 -4.68783e-22        00000 
-1.59903e-21  5.33011e-22        00000 
-2.61481e-22 -1.48861e-21        00000 
 2.66506e-21 -5.86312e-21        00000 
-5.84862e-21  4.57621e-21        00000 
 4.26409e-21 -4.26409e-21        00000 
-3.52605e-20  4.72717e-21        00000 
-6.11186e-20 -2.06098e-20        00000 
 1.42867e-20 -3.10736e-20        00000 
-6.82254e-20  6.82254e-20        00000 
-2.76026e-19 -1.58103e-19        00000 
-3.41127e-19  6.25400e-19        00000 
 4.50174e-18 -4.70818e-18        00000 
-1.01883e-17  4.36643e-18        00000 
-3.69263e-17 -6.14948e-18        00000 
 8.73285e-18  2.91095e-18        00000 
-7.32844e-19 -1.37408e-19        00000 
 1.30453e-19 -7.87738e-19        00000 
-3.26134e-20  3.14694e-20        00000 
-5.63129e-09 -5.76343e-08        00000 
-2.43329e-08 -5.88380e-08        00000 
-6.03136e-08 -7.50344e-08        00000 
-1.13079e-07 -1.11594e-07        00000 
-1.93698e-07 -1.75169e-07        00000 
-3.23394e-07 -2.80287e-07        00000 
-5.35730e-07 -4.52084e-07        00000 
-8.86301e-07 -7.31560e-07        00000 
-1.46815e-06 -1.18497e-06        00000 
-2.43826e-06 -1.91862e-06        00000 
-4.06366e-06 -3.10116e-06        00000 
-6.80313e-06 -4.99436e-06        00000 
-1.14539e-05 -7.98880e-06        00000 
-1.94186e-05 -1.26263e-05        00000 
-3.31948e-05 -1.95672e-05        00000 
-5.72750e-05 -2.94634e-05        00000 
-9.98310e-05 -4.29386e-05        00000 
-1.76113e-04 -6.19646e-05        00000 
-3.16001e-04 -9.65023e-05        00000 
-5.82636e-04 -1.80498e-04        00000 
-1.09056e-03 -3.63574e-04        00000 
-1.93632e-03 -4.95439e-04        00000 
-1.13175e-03  8.24792e-04        00000 
-4.79739e-03  7.45567e-05        00000 
 1.50987e-01 -4.82731e-02        00000 
 1.32007e-01  5.62476e-02        00000 
-1.90097e-02 -1.23193e-02        00000 
-7.04854e-04 -6.51787e-03        00000 
-1.50448e-03 -1.35585e-03        00000 
-1.30213e-03 -4.13330e-04        00000 
-1.06824e-08  9.02018e-08        00000 
-1.15737e-09  1.07300e-07        00000 
 1.63948e-08  1.49952e-07        00000 
 2.99576e-08  2.23514e-07        00000 
 5.08810e-08  3.50733e-07        00000 
 8.45445e-08  5.63528e-07        00000 
 1.39512e-07  9.14468e-07        00000 
 2.29871e-07  1.49054e-06        00000 
 3.79163e-07  2.43501e-06        00000 
 6.27016e-07  3.98314e-06        00000 
 1.04071e-06  6.52046e-06        00000 
 1.73528e-06  1.06762e-05        00000 
 2.90724e-06  1.74718e-05        00000 
 4.88631e-06  2.85574e-05        00000 
 8.20061e-06  4.65963e-05        00000 
 1.36350e-05  7.59308e-05        00000 
 2.23121e-05  1.23765e-04        00000 
 3.61724e-05  2.01961e-04        00000 
 6.04136e-05  3.28451e-04        00000 
 1.03287e-04  5.28781e-04        00000 
 1.39241e-04  9.04511e-04        00000 
-4.24506e-04  2.27057e-03        00000 
-3.66872e-03  1.02711e-02        00000 
-4.17885e-02  4.37084e-02        00000 
-4.00720e-02  3.40905e-02        00000 
-4.15295e-02 -4.23055e-02        00000 
-3.85022e-02 -3.58797e-02        00000 
 1.01327e-03 -1.04039e-03        00000 
 4.92178e-04  1.42504e-03        00000 
 1.46619e-03  9.08410e-04        00000 
 5.31737e-09 -9.49079e-08        00000 
 2.18321e-09 -1.17755e-07        00000 
-4.25418e-10 -1.62076e-07        00000 
-1.70997e-09 -2.42481e-07        00000 
-2.40444e-09 -3.80588e-07        00000 
-3.25917e-09 -6.11575e-07        00000 
-4.14595e-09 -9.92823e-07        00000 
-4.61893e-09 -1.61913e-06        00000 
-3.60708e-09 -2.64682e-06        00000 
 1.29434e-09 -4.33316e-06        00000 
 1.54518e-08 -7.10107e-06        00000 
 5.14012e-08 -1.16451e-05        00000 
 1.40991e-07 -1.91056e-05        00000 
 3.71147e-07 -3.13604e-05        00000 
 9.82881e-07 -5.15180e-05        00000 
 2.61482e-06 -8.47360e-05        00000 
 6.85302e-06 -1.39422e-04        00000 
 1.75515e-05 -2.28671e-04        00000 
 4.63818e-05 -3.74088e-04        00000 
 1.36675e-04 -6.38235e-04        00000 
 4.91960e-04 -1.32939e-03        00000 
 1.64420e-03 -3.80355e-03        00000 
 6.36253e-03 -1.18575e-02        00000 
 7.46968e-03 -2.11125e-02        00000 
-4.03498e-05 -1.08507e-02        00000 
 1.37390e-03  1.28098e-02        00000 
 8.86575e-03  1.81571e-02        00000 
 5.54810e-03  6.76272e-03        00000 
 5.25028e-04  4.60737e-04        00000 
-7.93595e-04 -4.23456e-04        00000 
-5.12699e-09  9.47851e-08        00000 
-2.59385e-09  1.19240e-07        00000 
-2.97201e-09  1.63104e-07        00000 
-5.12509e-09  2.43734e-07        00000 
-9.19992e-09  3.82592e-07        00000 
-1.64158e-08  6.14576e-07        00000 
-2.91247e-08  9.97289e-07        00000 
-5.17116e-08  1.62576e-06        00000 
-9.21406e-08  2.65659e-06        00000 
-1.65049e-07  4.34746e-06        00000 
-2.97961e-07  7.12233e-06        00000 
-5.44492e-07  1.16793e-05        00000 
-1.01398e-06  1.91704e-05        00000 
-1.93981e-06  3.15041e-05        00000 
-3.83783e-06  5.18505e-05        00000 
-7.88618e-06  8.54617e-05        00000 
-1.69521e-05  1.41077e-04        00000 
-3.90277e-05  2.34554e-04        00000 
-9.89957e-05  4.04173e-04        00000 
-2.77578e-04  7.74665e-04        00000 
-7.68299e-04  1.74341e-03        00000 
-1.96086e-03  4.21561e-03        00000 
-2.90883e-03  8.28116e-03        00000 
-7.40174e-04  1.01433e-02        00000 
 3.76421e-03  4.55375e-03        00000 
 3.00300e-03 -4.51738e-03        00000 
-1.80520e-03 -8.45435e-03        00000 
-2.98331e-03 -5.45162e-03        00000 
-1.43189e-03 -1.89155e-03        00000 
-1.62266e-05 -4.97594e-04        00000 
 6.38424e-09 -9.38303e-08        00000 
 3.15007e-09 -1.18439e-07        00000 
 4.40132e-09 -1.61606e-07        00000 
 8.00971e-09 -2.41173e-07        00000 
 1.42861e-08 -3.78354e-07        00000 
 2.51871e-08 -6.07379e-07        00000 
 4.42810e-08 -9.84884e-07        00000 
 7.79956e-08 -1.60430e-06        00000 
 1.38003e-07 -2.61943e-06        00000 
 2.45796e-07 -4.28328e-06        00000 
 4.41843e-07 -7.01224e-06        00000 
 8.04562e-07 -1.14929e-05        00000 
 1.49105e-06 -1.88605e-05        00000 
 2.82738e-06 -3.09987e-05        00000 
 5.52095e-06 -5.10492e-05        00000 
 1.12150e-05 -8.43555e-05        00000 
 2.41219e-05 -1.40700e-04        00000 
 5.58786e-05 -2.41250e-04        00000 
 1.38422e-04 -4.40654e-04        00000 
 3.43635e-04 -8.80682e-04        00000 
 7.79421e-04 -1.85009e-03        00000 
 1.32739e-03 -3.57532e-03        00000 
 1.18993e-03 -5.42432e-03        00000 
-5.44838e-04 -5.46810e-03        00000 
-2.65864e-03 -2.41472e-03        00000 
-2.31928e-03  1.83832e-03        00000 
 1.13029e-05  4.26127e-03        00000 
 1.33089e-03  3.68825e-03        00000 
 1.06693e-03  2.05659e-03        00000 
 6.51318e-04  1.10549e-03        00000 
-7.89890e-09  9.24843e-08        00000 
-3.81419e-09  1.16796e-07        00000 
-5.46992e-09  1.59163e-07        00000 
-1.00939e-08  2.37228e-07        00000 
-1.80220e-08  3.71808e-07        00000 
-3.17091e-08  5.96312e-07        00000 
-5.56452e-08  9.65983e-07        00000 
-9.78795e-08  1.57189e-06        00000 
-1.73034e-07  2.56383e-06        00000 
-3.08103e-07  4.18801e-06        00000 
-5.53961e-07  6.84966e-06        00000 
-1.00895e-06  1.12172e-05        00000 
-1.86914e-06  1.83971e-05        00000 
-3.54182e-06  3.02348e-05        00000 
-6.92402e-06  4.98718e-05        00000 
-1.41400e-05  8.29556e-05        00000 
-3.04938e-05  1.40763e-04        00000 
-6.90303e-05  2.48488e-04        00000 
-1.57532e-04  4.63345e-04        00000 
-3.37473e-04  8.96119e-04        00000 
-6.08011e-04  1.67648e-03        00000 
-7.80337e-04  2.74808e-03        00000 
-4.34071e-04  3.56618e-03        00000 
 6.03880e-04  3.24299e-03        00000 
 1.58688e-03  1.47624e-03        00000 
 1.44124e-03 -8.18761e-04        00000 
 3.51386e-04 -2.32833e-03        00000 
-4.92460e-04 -2.43589e-03        00000 
-6.37210e-04 -1.76639e-03        00000 
-8.43400e-04 -1.23248e-03        00000 
 9.37223e-09 -9.08162e-08        00000 
 4.47452e-09 -1.14655e-07        00000 
 6.42535e-09 -1.56095e-07        00000 
 1.19041e-08 -2.32355e-07        00000 
 2.12670e-08 -3.63719e-07        00000 
 3.73823e-08 -5.82634e-07        00000 
 6.55241e-08 -9.42658e-07        00000 
 1.15140e-07 -1.53199e-06        00000 
 2.03391e-07 -2.49552e-06        00000 
 3.61960e-07 -4.07121e-06        00000 
 6.50534e-07 -6.65047e-06        00000 
 1.18446e-06 -1.08793e-05        00000 
 2.19449e-06 -1.78312e-05        00000 
 4.16426e-06 -2.93213e-05        00000 
 8.16394e-06 -4.85390e-05        00000 
 1.66544e-05 -8.14813e-05        00000 
 3.52198e-05 -1.40297e-04        00000 
 7.52436e-05 -2.50095e-04        00000 
 1.54481e-04 -4.57914e-04        00000 
 2.83645e-04 -8.29054e-04        00000 
 4.22791e-04 -1.39436e-03        00000 
 4.31592e-04 -2.03112e-03        00000 
 1.29428e-04 -2.38522e-03        00000 
-4.58656e-04 -2.04952e-03        00000 
-9.37107e-04 -9.71551e-04        00000 
-8.77468e-04  3.77869e-04        00000 
-3.60219e-04  1.35582e-03        00000 
 1.20737e-04  1.62723e-03        00000 
 3.44497e-04  1.39228e-03        00000 
 7.99613e-04  1.11434e-03        00000 
-1.07215e-08  8.88557e-08        00000 
-5.08538e-09  1.12120e-07        00000 
-7.28713e-09  1.52502e-07        00000 
-1.35124e-08  2.26681e-07        00000 
-2.41344e-08  3.54310e-07        00000 
-4.23784e-08  5.66725e-07        00000 
-7.41844e-08  9.15555e-07        00000 
-1.30186e-07  1.48568e-06        00000 
-2.29675e-07  2.41634e-06        00000 
-4.08239e-07  3.93596e-06        00000 
-7.32908e-07  6.42012e-06        00000 
-1.33348e-06  1.04900e-05        00000 
-2.47055e-06  1.71864e-05        00000 
-4.68904e-06  2.83001e-05        00000 
-9.16185e-06  4.70522e-05        00000 
-1.83899e-05  7.95333e-05        00000 
-3.73002e-05  1.37483e-04        00000 
-7.38759e-05  2.42245e-04        00000 
-1.35898e-04  4.25988e-04        00000 
-2.17739e-04  7.18639e-04        00000 
-2.77705e-04  1.10703e-03        00000 
-2.32413e-04  1.47955e-03        00000 
-1.42453e-05  1.62433e-03        00000 
 3.20698e-04  1.34986e-03        00000 
 5.68918e-04  6.65049e-04        00000 
 5.47646e-04 -1.73945e-04        00000 
 2.94948e-04 -8.29157e-04        00000 
 2.65946e-05 -1.10684e-03        00000 
-1.77831e-04 -1.05583e-03        00000 
-6.69097e-04 -9.14352e-04        00000 
 1.19174e-08 -8.66330e-08        00000 
 5.62759e-09 -1.09246e-07        00000 
 8.04462e-09 -1.48444e-07        00000 
 1.49127e-08 -2.20292e-07        00000 
 2.66139e-08 -3.43724e-07        00000 
 4.66704e-08 -5.48837e-07        00000 
 8.15680e-08 -8.85100e-07        00000 
 1.42898e-07 -1.43370e-06        00000 
 2.51652e-07 -2.32756e-06        00000 
 4.46510e-07 -3.78455e-06        00000 
 8.00317e-07 -6.16302e-06        00000 
 1.45411e-06 -1.00580e-05        00000 
 2.68941e-06 -1.64756e-05        00000 
 5.08061e-06 -2.71668e-05        00000 
 9.79302e-06 -4.52830e-05        00000 
 1.90584e-05 -7.65872e-05        00000 
 3.65847e-05 -1.31266e-04        00000 
 6.68503e-05 -2.25283e-04        00000 
 1.11088e-04 -3.77573e-04        00000 
 1.58445e-04 -5.96926e-04        00000 
 1.77397e-04 -8.56772e-04        00000 
 1.23321e-04 -1.07370e-03        00000 
-2.47313e-05 -1.12384e-03        00000 
-2.20339e-04 -9.14354e-04        00000 
-3.57665e-04 -4.65589e-04        00000 
-3.53273e-04  7.71738e-05        00000 
-2.25944e-04  5.26961e-04        00000 
-7.38403e-05  7.64917e-04        00000 
 9.00139e-05  7.84725e-04        00000 
 5.26199e-04  7.12419e-04        00000 
-1.29445e-08  8.41805e-08        00000 
-6.09104e-09  1.06078e-07        00000 
-8.68630e-09  1.43977e-07        00000 
-1.60891e-08  2.13271e-07        00000 
-2.86788e-08  3.32104e-07        00000 
-5.02106e-08  5.29213e-07        00000 
-8.75884e-08  8.51719e-07        00000 
-1.53122e-07  1.37677e-06        00000 
-2.69055e-07  2.23049e-06        00000 
-4.76294e-07  3.61935e-06        00000 
-8.51669e-07  5.88341e-06        00000 
-1.54280e-06  9.58945e-06        00000 
-2.83812e-06  1.57000e-05        00000 
-5.29936e-06  2.58866e-05        00000 
-9.97604e-06  4.30866e-05        00000 
-1.86363e-05  7.23606e-05        00000 
-3.36811e-05  1.21768e-04        00000 
-5.69505e-05  2.02068e-04        00000 
-8.64763e-05  3.22779e-04        00000 
-1.11731e-04  4.82231e-04        00000 
-1.11868e-04  6.53843e-04        00000 
-6.44384e-05  7.79875e-04        00000 
 3.41261e-05  7.87985e-04        00000 
 1.51840e-04  6.31931e-04        00000 
 2.32254e-04  3.30471e-04        00000 
 2.34748e-04 -3.12350e-05        00000 
 1.68580e-04 -3.45175e-04        00000 
 7.95627e-05 -5.34887e-04        00000 
-4.53599e-05 -5.76387e-04        00000 
-3.99912e-04 -5.38760e-04        00000 
 1.37914e-08 -8.15326e-08        00000 
 6.46929e-09 -1.02660e-07        00000 
 9.20352e-09 -1.39163e-07        00000 
 1.70280e-08 -2.05712e-07        00000 
 3.03073e-08 -3.19602e-07        00000 
 5.29614e-08 -5.08117e-07        00000 
 9.21825e-08 -8.15864e-07        00000 
 1.60754e-07 -1.31570e-06        00000 
 2.81700e-07 -2.12652e-06        00000 
 4.97175e-07 -3.44277e-06        00000 
 8.85687e-07 -5.58490e-06        00000 
 1.59529e-06 -9.08718e-06        00000 
 2.90475e-06 -1.48532e-05        00000 
 5.32342e-06 -2.44240e-05        00000 
 9.71412e-06 -4.03954e-05        00000 
 1.73326e-05 -6.69181e-05        00000 
 2.94969e-05 -1.09896e-04        00000 
 4.64414e-05 -1.75936e-04        00000 
 6.51720e-05 -2.68742e-04        00000 
 7.73630e-05 -3.82516e-04        00000 
 7.01595e-05 -4.95178e-04        00000 
 3.27900e-05 -5.68088e-04        00000 
-3.27214e-05 -5.58649e-04        00000 
-1.05648e-04 -4.43336e-04        00000 
-1.54970e-04 -2.36716e-04        00000 
-1.59690e-04  9.82355e-06        00000 
-1.24186e-04  2.31401e-04        00000 
-7.00856e-05  3.77082e-04        00000 
 2.29649e-05  4.20190e-04        00000 
 2.97879e-04  4.00102e-04        00000 
-1.44498e-08  7.87254e-08        00000 
-6.75803e-09  9.90377e-08        00000 
-9.59050e-09  1.34064e-07        00000 
-1.77203e-08  1.97712e-07        00000 
-3.14851e-08  3.06381e-07        00000 
-5.49015e-08  4.85827e-07        00000 
-9.53180e-08  7.78017e-07        00000 
-1.65742e-07  1.25132e-06        00000 
-2.89471e-07  2.01706e-06        00000 
-5.08789e-07  3.25703e-06        00000 
-9.01163e-07  5.27016e-06        00000 
-1.60837e-06  8.55224e-06        00000 
-2.88433e-06  1.39297e-05        00000 
-5.15910e-06  2.27687e-05        00000 
-9.08526e-06  3.72488e-05        00000 
-1.54635e-05  6.05794e-05        00000 
-2.48552e-05  9.68081e-05        00000 
-3.66985e-05  1.49608e-04        00000 
-4.80734e-05  2.19486e-04        00000 
-5.30118e-05  2.99759e-04        00000 
-4.39005e-05  3.73526e-04        00000 
-1.58326e-05  4.15303e-04        00000 
 2.79640e-05  3.99724e-04        00000 
 7.43275e-05  3.14637e-04        00000 
 1.05683e-04  1.70695e-04        00000 
 1.10553e-04 -2.40882e-07        00000 
 9.08251e-05 -1.57809e-04        00000 
 5.67021e-05 -2.67256e-04        00000 
-1.17482e-05 -3.04774e-04        00000 
-2.19135e-04 -2.93729e-04        00000 
 1.49140e-08 -7.57965e-08        00000 
 6.95467e-09 -9.52596e-08        00000 
 9.84419e-09 -1.28748e-07        00000 
 1.81616e-08 -1.89376e-07        00000 
 3.22072e-08 -2.92615e-07        00000 
 5.60259e-08 -4.62635e-07        00000 
 9.69913e-08 -7.38678e-07        00000 
 1.68077e-07 -1.18448e-06        00000 
 2.92315e-07 -1.90349e-06        00000 
 5.10904e-07 -3.06406e-06        00000 
 8.97478e-07 -4.94138e-06        00000 
 1.58155e-06 -7.98623e-06        00000 
 2.78165e-06 -1.29324e-05        00000 
 4.83781e-06 -2.09447e-05        00000 
 8.20638e-06 -3.37707e-05        00000 
 1.33382e-05 -5.37691e-05        00000 
 2.03349e-05 -8.35501e-05        00000 
 2.83502e-05 -1.24888e-04        00000 
 3.49603e-05 -1.76753e-04        00000 
 3.61167e-05 -2.33005e-04        00000 
 2.74248e-05 -2.81245e-04        00000 
 6.82337e-06 -3.04749e-04        00000 
-2.27120e-05 -2.88228e-04        00000 
-5.28447e-05 -2.25361e-04        00000 
-7.33155e-05 -1.23764e-04        00000 
-7.75246e-05 -3.70655e-06        00000 
-6.61314e-05  1.08929e-04        00000 
-4.38864e-05  1.90051e-04        00000 
 6.09356e-06  2.20273e-04        00000 
 1.59921e-04  2.14013e-04        00000 
-1.51808e-08  7.27842e-08        00000 
-7.05818e-09  9.13749e-08        00000 
-9.96399e-09  1.23282e-07        00000 
-1.83524e-08  1.80811e-07        00000 
-3.24766e-08  2.78481e-07        00000 
-5.63439e-08  4.38842e-07        00000 
-9.72230e-08  6.98354e-07        00000 
-1.67793e-07  1.11600e-06        00000 
-2.90271e-07  1.78708e-06        00000 
-5.03580e-07  2.86570e-06        00000 
-8.75092e-07  4.60104e-06        00000 
-1.51782e-06  7.39363e-06        00000 
-2.61017e-06  1.18755e-05        00000 
-4.40519e-06  1.90043e-05        00000 
-7.19757e-06  3.01256e-05        00000 
-1.11974e-05  4.68963e-05        00000 
-1.62660e-05  7.08953e-05        00000 
-2.15459e-05  1.02758e-04        00000 
-2.51859e-05  1.40875e-04        00000 
-2.45300e-05  1.80133e-04        00000 
-1.70887e-05  2.11647e-04        00000 
-2.13357e-06  2.24444e-04        00000 
 1.79724e-05  2.09201e-04        00000 
 3.79171e-05  1.62642e-04        00000 
 5.15401e-05  9.01852e-05        00000 
 5.48748e-05  5.03269e-06        00000 
 4.80164e-05 -7.57901e-05        00000 
 3.31117e-05 -1.35410e-04        00000 
-3.20856e-06 -1.58783e-04        00000 
-1.16086e-04 -1.55132e-04        00000 
 1.52496e-08 -6.97278e-08        00000 
 7.06903e-09 -8.74339e-08        00000 
 9.95160e-09 -1.17738e-07        00000 
 1.82969e-08 -1.72126e-07        00000 
 3.23037e-08 -2.64159e-07        00000 
 5.58780e-08 -4.14750e-07        00000 
 9.60568e-08 -6.57543e-07        00000 
 1.64972e-07 -1.04668e-06        00000 
 2.83509e-07 -1.66908e-06        00000 
 4.87308e-07 -2.66388e-06        00000 
 8.35743e-07 -4.25256e-06        00000 
 1.42327e-06 -6.78258e-06        00000 
 2.38864e-06 -1.07827e-05        00000 
 3.90951e-06 -1.70146e-05        00000 
 6.15945e-06 -2.64780e-05        00000 
 9.19867e-06 -4.02889e-05        00000 
 1.27886e-05 -5.93288e-05        00000 
 1.61815e-05 -8.36052e-05        00000 
 1.80314e-05 -1.11427e-04        00000 
 1.66327e-05 -1.38757e-04        00000 
 1.05988e-05 -1.59313e-04        00000 
-2.05098e-07 -1.65878e-04        00000 
-1.40159e-05 -1.52708e-04        00000 
-2.74144e-05 -1.18141e-04        00000 
-3.66038e-05 -6.60392e-05        00000 
-3.91113e-05 -5.18900e-06        00000 
-3.48040e-05  5.29772e-05        00000 
-2.45982e-05  9.65637e-05        00000 
 1.71244e-06  1.14223e-04        00000 
 8.39561e-05  1.12042e-04        00000 
-1.51224e-08  6.66667e-08        00000 
-6.98903e-09  8.34874e-08        00000 
-9.81074e-09  1.12185e-07        00000 
-1.80034e-08  1.63433e-07        00000 
-3.17054e-08  2.49830e-07        00000 
-5.46619e-08  3.90656e-07        00000 
-9.35600e-08  6.16734e-07        00000 
-1.59755e-07  9.77323e-07        00000 
-2.72374e-07  1.55077e-06        00000 
-4.63051e-07  2.46082e-06        00000 
-7.82284e-07  3.90059e-06        00000 
-1.30593e-06  6.16440e-06        00000 
-2.13710e-06  9.68281e-06        00000 
-3.39335e-06  1.50441e-05        00000 
-5.16431e-06  2.29675e-05        00000 
-7.42651e-06  3.41729e-05        00000 
-9.92185e-06  4.90948e-05        00000 