<?xml version="1.0" encoding="utf-8"?>
<VTKFile byte_order="LittleEndian" type="UnstructuredGrid" version="0.1">
   <UnstructuredGrid>
      <Piece NumberOfCells="3364" NumberOfPoints="1741">
         <Points>
            <DataArray Name="Points" NumberOfComponents="3" format="ascii" type="Float32">
0.0000 1.0000 0.0000
0.0000 1.0345 0.0000
0.0000 1.0690 0.0000
0.0000 1.1034 0.0000
0.0000 1.1379 0.0000
0.0000 1.1724 0.0000
0.0000 1.2069 0.0000
0.0000 1.2414 0.0000
0.0000 1.2759 0.0000
0.0000 1.3103 0.0000
0.0000 1.3448 0.0000
0.0000 1.3793 0.0000
0.0000 1.4138 0.0000
0.0000 1.4483 0.0000
0.0000 1.4828 0.0000
0.0000 1.5172 0.0000
0.0000 1.5517 0.0000
0.0000 1.5862 0.0000
0.0000 1.6207 0.0000
0.0000 1.6552 0.0000
0.0000 1.6897 0.0000
0.0000 1.7241 0.0000
0.0000 1.7586 0.0000
0.0000 1.7931 0.0000
0.0000 1.8276 0.0000
0.0000 1.8621 0.0000
0.0000 1.8966 0.0000
0.0000 1.9310 0.0000
0.0000 1.9655 0.0000
0.0000 2.0000 0.0000
0.0690 1.0000 0.0000
0.0690 1.0345 0.0000
0.0690 1.0690 0.0000
0.0690 1.1034 0.0000
0.0690 1.1379 0.0000
0.0690 1.1724 0.0000
0.0690 1.2069 0.0000
0.0690 1.2414 0.0000
0.0690 1.2759 0.0000
0.0690 1.3103 0.0000
0.0690 1.3448 0.0000
0.0690 1.3793 0.0000
0.0690 1.4138 0.0000
0.0690 1.4483 0.0000
0.0690 1.4828 0.0000
0.0690 1.5172 0.0000
0.0690 1.5517 0.0000
0.0690 1.5862 0.0000
0.0690 1.6207 0.0000
0.0690 1.6552 0.0000
0.0690 1.6897 0.0000
0.0690 1.7241 0.0000
0.0690 1.7586 0.0000
0.0690 1.7931 0.0000
0.0690 1.8276 0.0000
0.0690 1.8621 0.0000
0.0690 1.8966 0.0000
0.0690 1.9310 0.0000
0.0690 1.9655 0.0000
0.0690 2.0000 0.0000
0.1379 1.0000 0.0000
0.1379 1.0345 0.0000
0.1379 1.0690 0.0000
0.1379 1.1034 0.0000
0.1379 1.1379 0.0000
0.1379 1.1724 0.0000
0.1379 1.2069 0.0000
0.1379 1.2414 0.0000
0.1379 1.2759 0.0000
0.1379 1.3103 0.0000
0.1379 1.3448 0.0000
0.1379 1.3793 0.0000
0.1379 1.4138 0.0000
0.1379 1.4483 0.0000
0.1379 1.4828 0.0000
0.1379 1.5172 0.0000
0.1379 1.5517 0.0000
0.1379 1.5862 0.0000
0.1379 1.6207 0.0000
0.1379 1.6552 0.0000
0.1379 1.6897 0.0000
0.1379 1.7241 0.0000
0.1379 1.7586 0.0000
0.1379 1.7931 0.0000
0.1379 1.8276 0.0000
0.1379 1.8621 0.0000
0.1379 1.8966 0.0000
0.1379 1.9310 0.0000
0.1379 1.9655 0.0000
0.1379 2.0000 0.0000
0.2069 1.0000 0.0000
0.2069 1.0345 0.0000
0.2069 1.0690 0.0000
0.2069 1.1034 0.0000
0.2069 1.1379 0.0000
0.2069 1.1724 0.0000
0.2069 1.2069 0.0000
0.2069 1.2414 0.0000
0.2069 1.2759 0.0000
0.2069 1.3103 0.0000
0.2069 1.3448 0.0000
0.2069 1.3793 0.0000
0.2069 1.4138 0.0000
0.2069 1.4483 0.0000
0.2069 1.4828 0.0000
0.2069 1.5172 0.0000
0.2069 1.5517 0.0000
0.2069 1.5862 0.0000
0.2069 1.6207 0.0000
0.2069 1.6552 0.0000
0.2069 1.6897 0.0000
0.2069 1.7241 0.0000
0.2069 1.7586 0.0000
0.2069 1.7931 0.0000
0.2069 1.8276 0.0000
0.2069 1.8621 0.0000
0.2069 1.8966 0.0000
0.2069 1.9310 0.0000
0.2069 1.9655 0.0000
0.2069 2.0000 0.0000
0.2759 1.0000 0.0000
0.2759 1.0345 0.0000
0.2759 1.0690 0.0000
0.2759 1.1034 0.0000
0.2759 1.1379 0.0000
0.2759 1.1724 0.0000
0.2759 1.2069 0.0000
0.2759 1.2414 0.0000
0.2759 1.2759 0.0000
0.2759 1.3103 0.0000
0.2759 1.3448 0.0000
0.2759 1.3793 0.0000
0.2759 1.4138 0.0000
0.2759 1.4483 0.0000
0.2759 1.4828 0.0000
0.2759 1.5172 0.0000
0.2759 1.5517 0.0000
0.2759 1.5862 0.0000
0.2759 1.6207 0.0000
0.2759 1.6552 0.0000
0.2759 1.6897 0.0000
0.2759 1.7241 0.0000
0.2759 1.7586 0.0000
0.2759 1.7931 0.0000
0.2759 1.8276 0.0000
0.2759 1.8621 0.0000
0.2759 1.8966 0.0000
0.2759 1.9310 0.0000
0.2759 1.9655 0.0000
0.2759 2.0000 0.0000
0.3448 1.0000 0.0000
0.3448 1.0345 0.0000
0.3448 1.0690 0.0000
0.3448 1.1034 0.0000
0.3448 1.1379 0.0000
0.3448 1.1724 0.0000
0.3448 1.2069 0.0000
0.3448 1.2414 0.0000
0.3448 1.2759 0.0000
0.3448 1.3103 0.0000
0.3448 1.3448 0.0000
0.3448 1.3793 0.0000
0.3448 1.4138 0.0000
0.3448 1.4483 0.0000
0.3448 1.4828 0.0000
0.3448 1.5172 0.0000
0.3448 1.5517 0.0000
0.3448 1.5862 0.0000
0.3448 1.6207 0.0000
0.3448 1.6552 0.0000
0.3448 1.6897 0.0000
0.3448 1.7241 0.0000
0.3448 1.7586 0.0000
0.3448 1.7931 0.0000
0.3448 1.8276 0.0000
0.3448 1.8621 0.0000
0.3448 1.8966 0.0000
0.3448 1.9310 0.0000
0.3448 1.9655 0.0000
0.3448 2.0000 0.0000
0.4138 1.0000 0.0000
0.4138 1.0345 0.0000
0.4138 1.0690 0.0000
0.4138 1.1034 0.0000
0.4138 1.1379 0.0000
0.4138 1.1724 0.0000
0.4138 1.2069 0.0000
0.4138 1.2414 0.0000
0.4138 1.2759 0.0000
0.4138 1.3103 0.0000
0.4138 1.3448 0.0000
0.4138 1.3793 0.0000
0.4138 1.4138 0.0000
0.4138 1.4483 0.0000
0.4138 1.4828 0.0000
0.4138 1.5172 0.0000
0.4138 1.5517 0.0000
0.4138 1.5862 0.0000
0.4138 1.6207 0.0000
0.4138 1.6552 0.0000
0.4138 1.6897 0.0000
0.4138 1.7241 0.0000
0.4138 1.7586 0.0000
0.4138 1.7931 0.0000
0.4138 1.8276 0.0000
0.4138 1.8621 0.0000
0.4138 1.8966 0.0000
0.4138 1.9310 0.0000
0.4138 1.9655 0.0000
0.4138 2.0000 0.0000
0.4828 1.0000 0.0000
0.4828 1.0345 0.0000
0.4828 1.0690 0.0000
0.4828 1.1034 0.0000
0.4828 1.1379 0.0000
0.4828 1.1724 0.0000
0.4828 1.2069 0.0000
0.4828 1.2414 0.0000
0.4828 1.2759 0.0000
0.4828 1.3103 0.0000
0.4828 1.3448 0.0000
0.4828 1.3793 0.0000
0.4828 1.4138 0.0000
0.4828 1.4483 0.0000
0.4828 1.4828 0.0000
0.4828 1.5172 0.0000
0.4828 1.5517 0.0000
0.4828 1.5862 0.0000
0.4828 1.6207 0.0000
0.4828 1.6552 0.0000
0.4828 1.6897 0.0000
0.4828 1.7241 0.0000
0.4828 1.7586 0.0000
0.4828 1.7931 0.0000
0.4828 1.8276 0.0000
0.4828 1.8621 0.0000
0.4828 1.8966 0.0000
0.4828 1.9310 0.0000
0.4828 1.9655 0.0000
0.4828 2.0000 0.0000
0.5517 1.0000 0.0000
0.5517 1.0345 0.0000
0.5517 1.0690 0.0000
0.5517 1.1034 0.0000
0.5517 1.1379 0.0000
0.5517 1.1724 0.0000
0.5517 1.2069 0.0000
0.5517 1.2414 0.0000
0.5517 1.2759 0.0000
0.5517 1.3103 0.0000
0.5517 1.3448 0.0000
0.5517 1.3793 0.0000
0.5517 1.4138 0.0000
0.5517 1.4483 0.0000
0.5517 1.4828 0.0000
0.5517 1.5172 0.0000
0.5517 1.5517 0.0000
0.5517 1.5862 0.0000
0.5517 1.6207 0.0000
0.5517 1.6552 0.0000
0.5517 1.6897 0.0000
0.5517 1.7241 0.0000
0.5517 1.7586 0.0000
0.5517 1.7931 0.0000
0.5517 1.8276 0.0000
0.5517 1.8621 0.0000
0.5517 1.8966 0.0000
0.5517 1.9310 0.0000
0.5517 1.9655 0.0000
0.5517 2.0000 0.0000
0.6207 1.0000 0.0000
0.6207 1.0345 0.0000
0.6207 1.0690 0.0000
0.6207 1.1034 0.0000
0.6207 1.1379 0.0000
0.6207 1.1724 0.0000
0.6207 1.2069 0.0000
0.6207 1.2414 0.0000
0.6207 1.2759 0.0000
0.6207 1.3103 0.0000
0.6207 1.3448 0.0000
0.6207 1.3793 0.0000
0.6207 1.4138 0.0000
0.6207 1.4483 0.0000
0.6207 1.4828 0.0000
0.6207 1.5172 0.0000
0.6207 1.5517 0.0000
0.6207 1.5862 0.0000
0.6207 1.6207 0.0000
0.6207 1.6552 0.0000
0.6207 1.6897 0.0000
0.6207 1.7241 0.0000
0.6207 1.7586 0.0000
0.6207 1.7931 0.0000
0.6207 1.8276 0.0000
0.6207 1.8621 0.0000
0.6207 1.8966 0.0000
0.6207 1.9310 0.0000
0.6207 1.9655 0.0000
0.6207 2.0000 0.0000
0.6897 1.0000 0.0000
0.6897 1.0345 0.0000
0.6897 1.0690 0.0000
0.6897 1.1034 0.0000
0.6897 1.1379 0.0000
0.6897 1.1724 0.0000
0.6897 1.2069 0.0000
0.6897 1.2414 0.0000
0.6897 1.2759 0.0000
0.6897 1.3103 0.0000
0.6897 1.3448 0.0000
0.6897 1.3793 0.0000
0.6897 1.4138 0.0000
0.6897 1.4483 0.0000
0.6897 1.4828 0.0000
0.6897 1.5172 0.0000
0.6897 1.5517 0.0000
0.6897 1.5862 0.0000
0.6897 1.6207 0.0000
0.6897 1.6552 0.0000
0.6897 1.6897 0.0000
0.6897 1.7241 0.0000
0.6897 1.7586 0.0000
0.6897 1.7931 0.0000
0.6897 1.8276 0.0000
0.6897 1.8621 0.0000
0.6897 1.8966 0.0000
0.6897 1.9310 0.0000
0.6897 1.9655 0.0000
0.6897 2.0000 0.0000
0.7586 1.0000 0.0000
0.7586 1.0345 0.0000
0.7586 1.0690 0.0000
0.7586 1.1034 0.0000
0.7586 1.1379 0.0000
0.7586 1.1724 0.0000
0.7586 1.2069 0.0000
0.7586 1.2414 0.0000
0.7586 1.2759 0.0000
0.7586 1.3103 0.0000
0.7586 1.3448 0.0000
0.7586 1.3793 0.0000
0.7586 1.4138 0.0000
0.7586 1.4483 0.0000
0.7586 1.4828 0.0000
0.7586 1.5172 0.0000
0.7586 1.5517 0.0000
0.7586 1.5862 0.0000
0.7586 1.6207 0.0000
0.7586 1.6552 0.0000
0.7586 1.6897 0.0000
0.7586 1.7241 0.0000
0.7586 1.7586 0.0000
0.7586 1.7931 0.0000
0.7586 1.8276 0.0000
0.7586 1.8621 0.0000
0.7586 1.8966 0.0000
0.7586 1.9310 0.0000
0.7586 1.9655 0.0000
0.7586 2.0000 0.0000
0.8276 1.0000 0.0000
0.8276 1.0345 0.0000
0.8276 1.0690 0.0000
0.8276 1.1034 0.0000
0.8276 1.1379 0.0000
0.8276 1.1724 0.0000
0.8276 1.2069 0.0000
0.8276 1.2414 0.0000
0.8276 1.2759 0.0000
0.8276 1.3103 0.0000
0.8276 1.3448 0.0000
0.8276 1.3793 0.0000
0.8276 1.4138 0.0000
0.8276 1.4483 0.0000
0.8276 1.4828 0.0000
0.8276 1.5172 0.0000
0.8276 1.5517 0.0000
0.8276 1.5862 0.0000
0.8276 1.6207 0.0000
0.8276 1.6552 0.0000
0.8276 1.6897 0.0000
0.8276 1.7241 0.0000
0.8276 1.7586 0.0000
0.8276 1.7931 0.0000
0.8276 1.8276 0.0000
0.8276 1.8621 0.0000
0.8276 1.8966 0.0000
0.8276 1.9310 0.0000
0.8276 1.9655 0.0000
0.8276 2.0000 0.0000
0.8966 1.0000 0.0000
0.8966 1.0345 0.0000
0.8966 1.0690 0.0000
0.8966 1.1034 0.0000
0.8966 1.1379 0.0000
0.8966 1.1724 0.0000
0.8966 1.2069 0.0000
0.8966 1.2414 0.0000
0.8966 1.2759 0.0000
0.8966 1.3103 0.0000
0.8966 1.3448 0.0000
0.8966 1.3793 0.0000
0.8966 1.4138 0.0000
0.8966 1.4483 0.0000
0.8966 1.4828 0.0000
0.8966 1.5172 0.0000
0.8966 1.5517 0.0000
0.8966 1.5862 0.0000
0.8966 1.6207 0.0000
0.8966 1.6552 0.0000
0.8966 1.6897 0.0000
0.8966 1.7241 0.0000
0.8966 1.7586 0.0000
0.8966 1.7931 0.0000
0.8966 1.8276 0.0000
0.8966 1.8621 0.0000
0.8966 1.8966 0.0000
0.8966 1.9310 0.0000
0.8966 1.9655 0.0000
0.8966 2.0000 0.0000
0.9655 1.0000 0.0000
0.9655 1.0345 0.0000
0.9655 1.0690 0.0000
0.9655 1.1034 0.0000
0.9655 1.1379 0.0000
0.9655 1.1724 0.0000
0.9655 1.2069 0.0000
0.9655 1.2414 0.0000
0.9655 1.2759 0.0000
0.9655 1.3103 0.0000
0.9655 1.3448 0.0000
0.9655 1.3793 0.0000
0.9655 1.4138 0.0000
0.9655 1.4483 0.0000
0.9655 1.4828 0.0000
0.9655 1.5172 0.0000
0.9655 1.5517 0.0000
0.9655 1.5862 0.0000
0.9655 1.6207 0.0000
0.9655 1.6552 0.0000
0.9655 1.6897 0.0000
0.9655 1.7241 0.0000
0.9655 1.7586 0.0000
0.9655 1.7931 0.0000
0.9655 1.8276 0.0000
0.9655 1.8621 0.0000
0.9655 1.8966 0.0000
0.9655 1.9310 0.0000
0.9655 1.9655 0.0000
0.9655 2.0000 0.0000
1.0345 1.0000 0.0000
1.0345 1.0345 0.0000
1.0345 1.0690 0.0000
1.0345 1.1034 0.0000
1.0345 1.1379 0.0000
1.0345 1.1724 0.0000
1.0345 1.2069 0.0000
1.0345 1.2414 0.0000
1.0345 1.2759 0.0000
1.0345 1.3103 0.0000
1.0345 1.3448 0.0000
[...]
         <PointData>
            <DataArray Name="fValues" NumberOfComponents="3" format="ascii" type="Float64">
 6.10790e-25  1.05275e-24        00000 
-1.75458e-24 -4.21099e-24        00000 
 1.04104e-24 -6.94025e-25        00000 
-2.70317e-24 -3.74956e-24        00000 
 4.16415e-24  9.71635e-24        00000 
-3.72861e-23 -7.19713e-24        00000 
 4.02534e-23 -1.80446e-23        00000 
-5.47611e-23 -4.01116e-24        00000 
 5.55220e-23        00000        00000 
-1.11001e-22 -1.36730e-22        00000 
-1.55462e-22  2.22088e-22        00000 
-3.29264e-22 -3.59958e-22        00000 
 4.44176e-22  8.88352e-23        00000 
 5.14743e-22 -2.70774e-22        00000 
-7.10681e-22  3.55341e-22        00000 
-9.48727e-23 -1.89745e-22        00000 
 2.84273e-21  3.55341e-22        00000 
-8.66951e-21  1.25180e-21        00000 
 2.13204e-21 -6.75147e-21        00000 
 7.14335e-22  1.17865e-20        00000 
-3.41127e-20 -2.41632e-20        00000 
 1.05880e-19 -2.44080e-21        00000 
-2.38789e-19  7.24895e-20        00000 
 6.67903e-20 -1.65369e-19        00000 
-1.04612e-18  1.15130e-18        00000 
 5.87413e-18 -6.53971e-18        00000 
-1.34631e-17  4.15891e-18        00000 
 4.94040e-17 -6.05813e-19        00000 
-3.62403e-18 -1.35328e-18        00000 
 1.62804e-18 -4.47521e-18        00000 
-2.02920e-09 -2.14277e-08        00000 
-8.88158e-09 -2.18852e-08        00000 
-2.19962e-08 -2.79227e-08        00000 
-4.11742e-08 -4.15025e-08        00000 
-7.03584e-08 -6.50911e-08        00000 
-1.17122e-07 -1.04075e-07        00000 
-1.93356e-07 -1.67784e-07        00000 
-3.18619e-07 -2.71472e-07        00000 
-5.25375e-07 -4.39905e-07        00000 
-8.67832e-07 -7.13197e-07        00000 
-1.43702e-06 -1.15607e-06        00000 
-2.38676e-06 -1.87230e-06        00000 
-3.97901e-06 -3.02628e-06        00000 
-6.66420e-06 -4.87283e-06        00000 
-1.12259e-05 -7.79099e-06        00000 
-1.90442e-05 -1.23036e-05        00000 
-3.25795e-05 -1.90393e-05        00000 
-5.62627e-05 -2.85992e-05        00000 
-9.81641e-05 -4.15284e-05        00000 
-1.73371e-04 -5.96877e-05        00000 
-3.11510e-04 -9.28928e-05        00000 
-5.75365e-04 -1.74822e-04        00000 
-1.07885e-03 -3.54043e-04        00000 
-1.91633e-03 -4.75691e-04        00000 
-1.08802e-03  8.75127e-04        00000 
-4.67447e-03  1.83889e-04        00000 
 1.51529e-01 -4.82498e-02        00000 
 1.32981e-01  5.64332e-02        00000 
-1.71239e-02 -1.20401e-02        00000 
-5.85271e-03 -1.02043e-02        00000 
-3.90741e-09  3.34044e-08        00000 
-4.30405e-10  3.97122e-08        00000 
 6.01727e-09  5.54413e-08        00000 
 1.09729e-08  8.25002e-08        00000 
 1.85968e-08  1.29217e-07        00000 
 3.08230e-08  2.07228e-07        00000 
 5.07131e-08  3.35658e-07        00000 
 8.32677e-08  5.46108e-07        00000 
 1.36766e-07  8.90568e-07        00000 
 2.24976e-07  1.45446e-06        00000 
 3.70925e-07  2.37805e-06        00000 
 6.13422e-07  3.89153e-06        00000 
 1.01843e-06  6.37190e-06        00000 
 1.69882e-06  1.04343e-05        00000 
 2.84755e-06  1.70772e-05        00000 
 4.78837e-06  2.79125e-05        00000 
 8.03933e-06  4.55411e-05        00000 
 1.33684e-05  7.42031e-05        00000 
 2.18714e-05  1.20935e-04        00000 
 3.54554e-05  1.97319e-04        00000 
 5.92964e-05  3.20794e-04        00000 
 1.01642e-04  5.16015e-04        00000 
 1.36579e-04  8.83226e-04        00000 
-4.32128e-04  2.23785e-03        00000 
-3.70199e-03  1.02395e-02        00000 
-4.19380e-02  4.37541e-02        00000 
-4.04314e-02  3.43343e-02        00000 
-4.23451e-02 -4.17525e-02        00000 
-4.10200e-02 -3.60413e-02        00000 
 6.06845e-03 -3.08016e-03        00000 
 1.85907e-09 -3.51398e-08        00000 
 7.54410e-10 -4.35690e-08        00000 
-2.29246e-10 -5.99021e-08        00000 
-7.64642e-10 -8.94581e-08        00000 
-1.13052e-09 -1.40134e-07        00000 
-1.64208e-09 -2.24741e-07        00000 
-2.32403e-09 -3.64121e-07        00000 
-3.14303e-09 -5.92648e-07        00000 
-3.94155e-09 -9.66919e-07        00000 
-4.27350e-09 -1.58004e-06        00000 
-3.05939e-09 -2.58510e-06        00000 
 2.13031e-09 -4.23388e-06        00000 
 1.67000e-08 -6.94005e-06        00000 
 5.32444e-08 -1.13829e-05        00000 
 1.43729e-07 -1.86780e-05        00000 
 3.75352e-07 -3.06618e-05        00000 
 9.89729e-07 -5.03756e-05        00000 
 2.62636e-06 -8.28656e-05        00000 
 6.87088e-06 -1.36351e-04        00000 
 1.75708e-05 -2.23603e-04        00000 
 4.63890e-05 -3.65654e-04        00000 
 1.36758e-04 -6.24205e-04        00000 
 4.93078e-04 -1.30716e-03        00000 
 1.65112e-03 -3.77491e-03        00000 
 6.39200e-03 -1.18461e-02        00000 
 7.54766e-03 -2.11943e-02        00000 
 9.28610e-05 -1.11828e-02        00000 
 1.61211e-03  1.21525e-02        00000 
 8.14085e-03  1.88070e-02        00000 
 8.16809e-03  1.20640e-02        00000 
-1.72758e-09  3.51147e-08        00000 
-8.72874e-10  4.41440e-08        00000 
-9.69885e-10  6.03178e-08        00000 
-1.64937e-09  8.99750e-08        00000 
-2.94566e-09  1.40960e-07        00000 
-5.23138e-09  2.25989e-07        00000 
-9.22623e-09  3.66004e-07        00000 
-1.62687e-08  5.95492e-07        00000 
-2.87597e-08  9.71199e-07        00000 
-5.10259e-08  1.58642e-06        00000 
-9.09280e-08  2.59450e-06        00000 
-1.62938e-07  4.24762e-06        00000 
-2.94307e-07  6.96048e-06        00000 
-5.38197e-07  1.14159e-05        00000 
-1.00320e-06  1.87410e-05        00000 
-1.92151e-06  3.08032e-05        00000 
-3.80693e-06  5.07047e-05        00000 
-7.83387e-06  8.35849e-05        00000 
-1.68633e-05  1.37992e-04        00000 
-3.88843e-05  2.29459e-04        00000 
-9.88297e-05  3.95765e-04        00000 
-2.77746e-04  7.61154e-04        00000 
-7.70374e-04  1.72368e-03        00000 
-1.96943e-03  4.19386e-03        00000 
-2.93053e-03  8.27671e-03        00000 
-7.65962e-04  1.01982e-02        00000 
 3.81109e-03  4.69333e-03        00000 
 3.46863e-03 -4.54772e-03        00000 
-1.13031e-03 -9.40767e-03        00000 
-6.82973e-03 -8.88043e-03        00000 
 2.13443e-09 -3.47960e-08        00000 
 1.04971e-09 -4.38925e-08        00000 
 1.45343e-09 -5.98273e-08        00000 
 2.62840e-09 -8.91286e-08        00000 
 4.66237e-09 -1.39561e-07        00000 
 8.17133e-09 -2.23617e-07        00000 
 1.42671e-08 -3.61922e-07        00000 
 2.49285e-08 -5.88442e-07        00000 
 4.36890e-08 -9.59005e-07        00000 
 7.68958e-08 -1.56530e-06        00000 
 1.36072e-07 -2.55794e-06        00000 
 2.42464e-07 -4.18446e-06        00000 
 4.36126e-07 -6.85215e-06        00000 
 7.94786e-07 -1.12326e-05        00000 
 1.47438e-06 -1.84365e-05        00000 
 2.79901e-06 -3.03069e-05        00000 
 5.47270e-06 -4.99187e-05        00000 
 1.11335e-05 -8.25039e-05        00000 
 2.39890e-05 -1.37661e-04        00000 
 5.56913e-05 -2.36269e-04        00000 
 1.38287e-04 -4.32620e-04        00000 
 3.44064e-04 -8.68350e-04        00000 
 7.81857e-04 -1.83320e-03        00000 
 1.33391e-03 -3.55694e-03        00000 
 1.19715e-03 -5.41109e-03        00000 
-5.69174e-04 -5.45374e-03        00000 
-2.83992e-03 -2.31087e-03        00000 
-2.87805e-03  2.28716e-03        00000 
-4.12314e-04  5.28366e-03        00000 
 4.60400e-03  5.81754e-03        00000 
-2.64065e-09  3.43436e-08        00000 
-1.26890e-09  4.33439e-08        00000 
-1.80876e-09  5.90071e-08        00000 
-3.32241e-09  8.78025e-08        00000 
-5.90130e-09  1.37364e-07        00000 
-1.03209e-08  2.19910e-07        00000 
-1.79841e-08  3.55602e-07        00000 
-3.13690e-08  5.77625e-07        00000 
-5.48902e-08  9.40455e-07        00000 
-9.64841e-08  1.53346e-06        00000 
-1.70588e-07  2.50328e-06        00000 
-3.03887e-07  4.09079e-06        00000 
-5.46737e-07  6.69231e-06        00000 
-9.96600e-07  1.09616e-05        00000 
-1.84805e-06  1.79811e-05        00000 
-3.50584e-06  2.95566e-05        00000 
-6.86297e-06  4.87644e-05        00000 
-1.40387e-05  8.11453e-05        00000 
-3.03369e-05  1.37808e-04        00000 
-6.88315e-05  2.43714e-04        00000 
-1.57424e-04  4.55839e-04        00000 
-3.37862e-04  8.84946e-04        00000 
-6.09462e-04  1.66113e-03        00000 
-7.81641e-04  2.72787e-03        00000 
-4.24382e-04  3.53343e-03        00000 
 6.65679e-04  3.15840e-03        00000 
 1.79735e-03  1.22686e-03        00000 
 1.89259e-03 -1.39976e-03        00000 
 5.38187e-04 -3.21487e-03        00000 
-2.94093e-03 -3.70993e-03        00000 
 3.13676e-09 -3.37819e-08        00000 
 1.48945e-09 -4.26236e-08        00000 
 2.12704e-09 -5.79736e-08        00000 
 3.92500e-09 -8.61607e-08        00000 
 6.97798e-09 -1.34642e-07        00000 
 1.21935e-08 -2.15315e-07        00000 
 2.12222e-08 -3.47780e-07        00000 
 3.69738e-08 -5.64257e-07        00000 
 6.46256e-08 -9.17570e-07        00000 
 1.13485e-07 -1.49426e-06        00000 
 2.00492e-07 -2.43614e-06        00000 
 3.56967e-07 -3.97597e-06        00000 
 6.41980e-07 -6.49650e-06        00000 
 1.16983e-06 -1.06294e-05        00000 
 2.16949e-06 -1.74250e-05        00000 
 4.12171e-06 -2.86598e-05        00000 
 8.09241e-06 -4.74611e-05        00000 
 1.65383e-05 -7.97269e-05        00000 
 3.50461e-05 -1.37459e-04        00000 
 7.50254e-05 -2.45575e-04        00000 
 1.54295e-04 -4.50915e-04        00000 
 2.83569e-04 -8.18592e-04        00000 
 4.22247e-04 -1.37882e-03        00000 
 4.26742e-04 -2.00555e-03        00000 
 1.06402e-04 -2.33216e-03        00000 
-5.34481e-04 -1.92021e-03        00000 
-1.12192e-03 -6.72910e-04        00000 
-1.18656e-03  9.27233e-04        00000 
-3.97682e-04  2.03388e-03        00000 
 1.86509e-03  2.36127e-03        00000 
-3.59294e-09  3.31209e-08        00000 
-1.69494e-09  4.17692e-08        00000 
-2.41603e-09  5.67617e-08        00000 
-4.46371e-09  8.42477e-08        00000 
-7.93609e-09  1.31473e-07        00000 
-1.38560e-08  2.09964e-07        00000 
-2.40869e-08  3.38673e-07        00000 
-4.19104e-08  5.48707e-07        00000 
-7.31567e-08  8.90981e-07        00000 
-1.28296e-07  1.44876e-06        00000 
-2.26368e-07  2.35833e-06        00000 
-4.02544e-07  3.84303e-06        00000 
-7.23151e-07  6.27008e-06        00000 
-1.31679e-06  1.02469e-05        00000 
-2.44210e-06  1.67916e-05        00000 
-4.64087e-06  2.76585e-05        00000 
-9.08173e-06  4.60103e-05        00000 
-1.82615e-05  7.78472e-05        00000 
-3.71068e-05  1.34778e-04        00000 
-7.36044e-05  2.37973e-04        00000 
-1.35501e-04  4.19356e-04        00000 
-2.16892e-04  7.08341e-04        00000 
-2.74890e-04  1.09014e-03        00000 
-2.22565e-04  1.44807e-03        00000 
 1.53562e-05  1.55740e-03        00000 
 3.93388e-04  1.20380e-03        00000 
 7.10234e-04  3.77532e-04        00000 
 7.39957e-04 -6.27559e-04        00000 
 2.57544e-04 -1.30956e-03        00000 
-1.18935e-03 -1.51015e-03        00000 
 3.99903e-09 -3.23708e-08        00000 
 1.87862e-09 -4.07994e-08        00000 
 2.67228e-09 -5.53916e-08        00000 
 4.93721e-09 -8.20916e-08        00000 
 8.77342e-09 -1.27904e-07        00000 
 1.53019e-08 -2.03939e-07        00000 
 2.65645e-08 -3.28424e-07        00000 
 4.61507e-08 -5.31221e-07        00000 
 8.04255e-08 -8.61107e-07        00000 
 1.40798e-07 -1.39770e-06        00000 
 2.47980e-07 -2.27109e-06        00000 
 4.40189e-07 -3.69422e-06        00000 
 7.89495e-07 -6.01739e-06        00000 
 1.43564e-06 -9.82242e-06        00000 
 2.65800e-06 -1.60939e-05        00000 
 5.02773e-06 -2.65482e-05        00000 
 9.70554e-06 -4.42825e-05        00000 
 1.89173e-05 -7.49772e-05        00000 
 3.63616e-05 -1.28697e-04        00000 
 6.64854e-05 -2.21219e-04        00000 
 1.10389e-04 -3.71138e-04        00000 
 1.56750e-04 -5.86421e-04        00000 
 1.72699e-04 -8.38304e-04        00000 
 1.10657e-04 -1.03804e-03        00000 
-5.49743e-05 -1.05140e-03        00000 
-2.81335e-04 -7.72048e-04        00000 
-4.56925e-04 -2.17598e-04        00000 
-4.64567e-04  4.24945e-04        00000 
-1.60072e-04  8.50317e-04        00000 
 7.64412e-04  9.71683e-04        00000 
-4.34969e-09  3.15423e-08        00000 
-2.03701e-09  3.97293e-08        00000 
-2.89188e-09  5.38827e-08        00000 
-5.34021e-09  7.97208e-08        00000 
-9.48140e-09  1.23983e-07        00000 
-1.65159e-08  1.97322e-07        00000 
-2.86275e-08  3.17174e-07        00000 
-4.96462e-08  5.12038e-07        00000 
-8.63465e-08  8.28362e-07        00000 
-1.50840e-07  1.34180e-06        00000 
-2.65067e-07  2.17571e-06        00000 
-4.69433e-07  3.53188e-06        00000 
-8.39937e-07  5.74266e-06        00000 
-1.52282e-06  9.36219e-06        00000 
-2.80425e-06  1.53327e-05        00000 
-5.24247e-06  2.52934e-05        00000 
-9.88154e-06  4.21312e-05        00000 
-1.84801e-05  7.08287e-05        00000 
-3.34170e-05  1.19323e-04        00000 
-5.64659e-05  1.98161e-04        00000 
-8.54577e-05  3.16425e-04        00000 
-1.09325e-04  4.71432e-04        00000 
-1.06025e-04  6.34297e-04        00000 
-5.10709e-05  7.42680e-04        00000 
 6.13008e-05  7.17117e-04        00000 
 1.98871e-04  5.04993e-04        00000 
 2.97888e-04  1.30172e-04        00000 
 2.94644e-04 -2.85842e-04        00000 
 9.86883e-05 -5.54490e-04        00000 
-4.94759e-04 -6.28569e-04        00000 
 4.64108e-09 -3.06471e-08        00000 
 2.16783e-09 -3.85738e-08        00000 
 3.07174e-09 -5.22550e-08        00000 
 5.66792e-09 -7.71660e-08        00000 
 1.00522e-08 -1.19760e-07        00000 
 1.74849e-08 -1.90199e-07        00000 
 3.02537e-08 -3.05071e-07        00000 
 5.23597e-08 -4.91417e-07        00000 
 9.08574e-08 -7.93193e-07        00000 
 1.58320e-07 -1.28183e-06        00000 
 2.77449e-07 -2.07356e-06        00000 
 4.89869e-07 -3.35839e-06        00000 
 8.73211e-07 -5.44941e-06        00000 
 1.57408e-06 -8.86897e-06        00000 
 2.86885e-06 -1.45016e-05        00000 
 5.26297e-06 -2.38580e-05        00000 
 9.61237e-06 -3.94864e-05        00000 
 1.71586e-05 -6.54620e-05        00000 
 2.91851e-05 -1.07560e-04        00000 
 4.58348e-05 -1.72151e-04        00000 
 6.38849e-05 -2.62440e-04        00000 
 7.45063e-05 -3.71584e-04        00000 
 6.39384e-05 -4.75424e-04        00000 
 2.02339e-05 -5.31848e-04        00000 
-5.51875e-05 -4.94003e-04        00000 
-1.39814e-04 -3.36511e-04        00000 
-1.96266e-04 -8.17774e-05        00000 
-1.88900e-04  1.90432e-04        00000 
-6.12392e-05  3.62250e-04        00000 
 3.21967e-04  4.08234e-04        00000 
-4.87026e-09  2.96973e-08        00000 
-2.26951e-09  3.73483e-08        00000 
-3.20970e-09  5.05298e-08        00000 
-5.91682e-09  7.44600e-08        00000 
-1.04804e-08  1.15290e-07        00000 
-1.82000e-08  1.82664e-07        00000 
-3.14292e-08  2.92275e-07        00000 
-5.42699e-08  4.69629e-07        00000 
-9.39270e-08  7.56074e-07        00000 
-1.63188e-07  1.21861e-06        00000 
-2.85012e-07  1.96604e-06        00000 
-5.01135e-07  3.17593e-06        00000 
-8.88111e-07  5.14026e-06        00000 
-1.58620e-06  8.34362e-06        00000 
-2.84676e-06  1.35945e-05        00000 
-5.09538e-06  2.22307e-05        00000 
-8.97601e-06  3.63863e-05        00000 
-1.52707e-05  5.91951e-05        00000 
-2.44971e-05  9.45719e-05        00000 
-3.59914e-05  1.45936e-04        00000 
-4.66136e-05  2.13291e-04        00000 
-4.99878e-05  2.88989e-04        00000 
-3.79048e-05  3.54454e-04        00000 
-4.92616e-06  3.81850e-04        00000 
 4.54761e-05  3.43660e-04        00000 
 9.80388e-05  2.28337e-04        00000 
 1.30441e-04  5.44326e-05        00000 
 1.22383e-04 -1.25367e-04        00000 
 3.85192e-05 -2.36622e-04        00000 
-2.10297e-04 -2.65750e-04        00000 
 5.03505e-09 -2.87055e-08        00000 
 2.34099e-09 -3.60691e-08        00000 
 3.30439e-09 -4.87295e-08        00000 
 6.08479e-09 -7.16378e-08        00000 
 1.07628e-08 -1.10630e-07        00000 
 1.86570e-08 -1.74813e-07        00000 
 3.21490e-08 -2.78951e-07        00000 
 5.53721e-08 -4.46963e-07        00000 
 9.55521e-08 -7.17494e-07        00000 
 1.65436e-07 -1.15298e-06        00000 
 2.87708e-07 -1.85449e-06        00000 
 5.03003e-07 -2.98639e-06        00000 
 8.84013e-07 -4.81732e-06        00000 
 1.55866e-06 -7.78759e-06        00000 
 2.74271e-06 -1.26142e-05        00000 
 4.77110e-06 -2.04350e-05        00000 
 8.08998e-06 -3.29537e-05        00000 
 1.31283e-05 -5.24538e-05        00000 
 1.99402e-05 -8.14112e-05        00000 
 2.75797e-05 -1.21348e-04        00000 
 3.34359e-05 -1.70768e-04        00000 
 3.31659e-05 -2.22717e-04        00000 
 2.20383e-05 -2.63564e-04        00000 
-2.13083e-06 -2.75150e-04        00000 
-3.57707e-05 -2.41406e-04        00000 
-6.86767e-05 -1.57700e-04        00000 
-8.73459e-05 -3.84743e-05        00000 
-8.00745e-05  8.13122e-05        00000 
-2.46477e-05  1.54217e-04        00000 
 1.37628e-04  1.73076e-04        00000 
-5.13411e-09  2.76846e-08        00000 
-2.38172e-09  3.47526e-08        00000 
-3.35522e-09  4.68772e-08        00000 
-6.17108e-09  6.87354e-08        00000 
-1.08988e-08  1.05840e-07        00000 
-1.88563e-08  1.66747e-07        00000 
-3.24163e-08  2.65272e-07        00000 
-5.56762e-08  4.23711e-07        00000 
-9.57541e-08  6.77952e-07        00000 
-1.65099e-07  1.08574e-06        00000 
-2.85574e-07  1.74016e-06        00000 
-4.95530e-07  2.79155e-06        00000 
-8.61370e-07  4.48298e-06        00000 
-1.49445e-06  7.20516e-06        00000 
-2.57019e-06  1.15744e-05        00000 
-4.33599e-06  1.85227e-05        00000 
-7.07529e-06  2.93532e-05        00000 
-1.09750e-05  4.56497e-05        00000 
-1.58497e-05  6.88603e-05        00000 
-2.07543e-05  9.93867e-05        00000 
-2.36932e-05  1.35215e-04        00000 
-2.18204e-05  1.70598e-04        00000 
-1.24958e-05  1.95812e-04        00000 
 4.91036e-06  1.99120e-04        00000 
 2.73708e-05  1.71209e-04        00000 
 4.81108e-05  1.10792e-04        00000 
 5.88813e-05  2.87184e-05        00000 
 5.28734e-05 -5.17225e-05        00000 
 1.60744e-05 -1.00046e-04        00000 
-9.00889e-05 -1.12536e-04        00000 
 5.16694e-09 -2.66477e-08        00000 
 2.39162e-09 -3.34159e-08        00000 
 3.36228e-09 -4.49965e-08        00000 
 6.17624e-09 -6.57898e-08        00000 
 1.08901e-08 -1.00982e-07        00000 
 1.88024e-08 -1.58571e-07        00000 
 3.22416e-08 -2.51413e-07        00000 
 5.52045e-08 -4.00168e-07        00000 
 9.45768e-08 -6.37935e-07        00000 
 1.62259e-07 -1.01770e-06        00000 
 2.78782e-07 -1.62428e-06        00000 
 4.79204e-07 -2.59330e-06        00000 
 8.21914e-07 -4.14056e-06        00000 
 1.39965e-06 -6.60432e-06        00000 
 2.34799e-06 -1.04986e-05        00000 
 3.83865e-06 -1.65608e-05        00000 
 6.03352e-06 -2.57502e-05        00000 
 8.97014e-06 -3.91131e-05        00000 
 1.23679e-05 -5.74101e-05        00000 
 1.54081e-05 -8.04435e-05        00000 
 1.66428e-05 -1.06194e-04        00000 
 1.42590e-05 -1.30160e-04        00000 
 6.83778e-06 -1.45536e-04        00000 
-5.56215e-06 -1.44785e-04        00000 
-2.05784e-05 -1.22571e-04        00000 
-3.37292e-05 -7.91131e-05        00000 
-3.99348e-05 -2.23897e-05        00000 
-3.52073e-05  3.20284e-05        00000 
-1.06934e-05  6.44098e-05        00000 
 5.88705e-05  7.28745e-05        00000 
-5.13389e-09  2.56082e-08        00000 
-2.37103e-09  3.20759e-08        00000 
-3.32635e-09  4.31113e-08        00000 
-6.10202e-09  6.28383e-08        00000 
-1.07406e-08  9.61158e-08        00000 
-1.85035e-08  1.50386e-07        00000 
-3.16420e-08  2.37549e-07        00000 
-5.39909e-08  3.76626e-07        00000 
-9.20875e-08  5.97924e-07        00000 
-1.57057e-07  9.49615e-07        00000 
-2.67673e-07  1.50808e-06        00000 
-4.54987e-07  2.39382e-06        00000 
-7.68500e-07  3.79461e-06        00000 
-1.28230e-06  5.99626e-06        00000 
-2.09628e-06  9.41546e-06        00000 
-3.32195e-06  1.46178e-05        00000 
-5.03761e-06  2.22846e-05        00000 