<?xml version="1.0" encoding="utf-8"?>
<VTKFile byte_order="LittleEndian" type="UnstructuredGrid" version="0.1">
   <UnstructuredGrid>
      <Piece NumberOfCells="3364" NumberOfPoints="1741">
         <Points>
            <DataArray Name="Points" NumberOfComponents="3" format="ascii" type="Float32">
0.0000 1.0000 0.0000
0.0000 1.0345 0.0000
0.0000 1.0690 0.0000
0.0000 1.1034 0.0000
0.0000 1.1379 0.0000
0.0000 1.1724 0.0000
0.0000 1.2069 0.0000
0.0000 1.2414 0.0000
0.0000 1.2759 0.0000
0.0000 1.3103 0.0000
0.0000 1.3448 0.0000
0.0000 1.3793 0.0000
0.0000 1.4138 0.0000
0.0000 1.4483 0.0000
0.0000 1.4828 0.0000
0.0000 1.5172 0.0000
0.0000 1.5517 0.0000
0.0000 1.5862 0.0000
0.0000 1.6207 0.0000
0.0000 1.6552 0.0000
0.0000 1.6897 0.0000
0.0000 1.7241 0.0000
0.0000 1.7586 0.0000
0.0000 1.7931 0.0000
0.0000 1.8276 0.0000
0.0000 1.8621 0.0000
0.0000 1.8966 0.0000
0.0000 1.9310 0.0000
0.0000 1.9655 0.0000
0.0000 2.0000 0.0000
0.0690 1.0000 0.0000
0.0690 1.0345 0.0000
0.0690 1.0690 0.0000
0.0690 1.1034 0.0000
0.0690 1.1379 0.0000
0.0690 1.1724 0.0000
0.0690 1.2069 0.0000
0.0690 1.2414 0.0000
0.0690 1.2759 0.0000
0.0690 1.3103 0.0000
0.0690 1.3448 0.0000
0.0690 1.3793 0.0000
0.0690 1.4138 0.0000
0.0690 1.4483 0.0000
0.0690 1.4828 0.0000
0.0690 1.5172 0.0000
0.0690 1.5517 0.0000
0.0690 1.5862 0.0000
0.0690 1.6207 0.0000
0.0690 1.6552 0.0000
0.0690 1.6897 0.0000
0.0690 1.7241 0.0000
0.0690 1.7586 0.0000
0.0690 1.7931 0.0000
0.0690 1.8276 0.0000
0.0690 1.8621 0.0000
0.0690 1.8966 0.0000
0.0690 1.9310 0.0000
0.0690 1.9655 0.0000
0.0690 2.0000 0.0000
0.1379 1.0000 0.0000
0.1379 1.0345 0.0000
0.1379 1.0690 0.0000
0.1379 1.1034 0.0000
0.1379 1.1379 0.0000
0.1379 1.1724 0.0000
0.1379 1.2069 0.0000
0.1379 1.2414 0.0000
0.1379 1.2759 0.0000
0.1379 1.3103 0.0000
0.1379 1.3448 0.0000
0.1379 1.3793 0.0000
0.1379 1.4138 0.0000
0.1379 1.4483 0.0000
0.1379 1.4828 0.0000
0.1379 1.5172 0.0000
0.1379 1.5517 0.0000
0.1379 1.5862 0.0000
0.1379 1.6207 0.0000
0.1379 1.6552 0.0000
0.1379 1.6897 0.0000
0.1379 1.7241 0.0000
0.1379 1.7586 0.0000
0.1379 1.7931 0.0000
0.1379 1.8276 0.0000
0.1379 1.8621 0.0000
0.1379 1.8966 0.0000
0.1379 1.9310 0.0000
0.1379 1.9655 0.0000
0.1379 2.0000 0.0000
0.2069 1.0000 0.0000
0.2069 1.0345 0.0000
0.2069 1.0690 0.0000
0.2069 1.1034 0.0000
0.2069 1.1379 0.0000
0.2069 1.1724 0.0000
0.2069 1.2069 0.0000
0.2069 1.2414 0.0000
0.2069 1.2759 0.0000
0.2069 1.3103 0.0000
0.2069 1.3448 0.0000
0.2069 1.3793 0.0000
0.2069 1.4138 0.0000
0.2069 1.4483 0.0000
0.2069 1.4828 0.0000
0.2069 1.5172 0.0000
0.2069 1.5517 0.0000
0.2069 1.5862 0.0000
0.2069 1.6207 0.0000
0.2069 1.6552 0.0000
0.2069 1.6897 0.0000
0.2069 1.7241 0.0000
0.2069 1.7586 0.0000
0.2069 1.7931 0.0000
0.2069 1.8276 0.0000
0.2069 1.8621 0.0000
0.2069 1.8966 0.0000
0.2069 1.9310 0.0000
0.2069 1.9655 0.0000
0.2069 2.0000 0.0000
0.2759 1.0000 0.0000
0.2759 1.0345 0.0000
0.2759 1.0690 0.0000
0.2759 1.1034 0.0000
0.2759 1.1379 0.0000
0.2759 1.1724 0.0000
0.2759 1.2069 0.0000
0.2759 1.2414 0.0000
0.2759 1.2759 0.0000
0.2759 1.3103 0.0000
0.2759 1.3448 0.0000
0.2759 1.3793 0.0000
0.2759 1.4138 0.0000
0.2759 1.4483 0.0000
0.2759 1.4828 0.0000
0.2759 1.5172 0.0000
0.2759 1.5517 0.0000
0.2759 1.5862 0.0000
0.2759 1.6207 0.0000
0.2759 1.6552 0.0000
0.2759 1.6897 0.0000
0.2759 1.7241 0.0000
0.2759 1.7586 0.0000
0.2759 1.7931 0.0000
0.2759 1.8276 0.0000
0.2759 1.8621 0.0000
0.2759 1.8966 0.0000
0.2759 1.9310 0.0000
0.2759 1.9655 0.0000
0.2759 2.0000 0.0000
0.3448 1.0000 0.0000
0.3448 1.0345 0.0000
0.3448 1.0690 0.0000
0.3448 1.1034 0.0000
0.3448 1.1379 0.0000
0.3448 1.1724 0.0000
0.3448 1.2069 0.0000
0.3448 1.2414 0.0000
0.3448 1.2759 0.0000
0.3448 1.3103 0.0000
0.3448 1.3448 0.0000
0.3448 1.3793 0.0000
0.3448 1.4138 0.0000
0.3448 1.4483 0.0000
0.3448 1.4828 0.0000
0.3448 1.5172 0.0000
0.3448 1.5517 0.0000
0.3448 1.5862 0.0000
0.3448 1.6207 0.0000
0.3448 1.6552 0.0000
0.3448 1.6897 0.0000
0.3448 1.7241 0.0000
0.3448 1.7586 0.0000
0.3448 1.7931 0.0000
0.3448 1.8276 0.0000
0.3448 1.8621 0.0000
0.3448 1.8966 0.0000
0.3448 1.9310 0.0000
0.3448 1.9655 0.0000
0.3448 2.0000 0.0000
0.4138 1.0000 0.0000
0.4138 1.0345 0.0000
0.4138 1.0690 0.0000
0.4138 1.1034 0.0000
0.4138 1.1379 0.0000
0.4138 1.1724 0.0000
0.4138 1.2069 0.0000
0.4138 1.2414 0.0000
0.4138 1.2759 0.0000
0.4138 1.3103 0.0000
0.4138 1.3448 0.0000
0.4138 1.3793 0.0000
0.4138 1.4138 0.0000
0.4138 1.4483 0.0000
0.4138 1.4828 0.0000
0.4138 1.5172 0.0000
0.4138 1.5517 0.0000
0.4138 1.5862 0.0000
0.4138 1.6207 0.0000
0.4138 1.6552 0.0000
0.4138 1.6897 0.0000
0.4138 1.7241 0.0000
0.4138 1.7586 0.0000
0.4138 1.7931 0.0000
0.4138 1.8276 0.0000
0.4138 1.8621 0.0000
0.4138 1.8966 0.0000
0.4138 1.9310 0.0000
0.4138 1.9655 0.0000
0.4138 2.0000 0.0000
0.4828 1.0000 0.0000
0.4828 1.0345 0.0000
0.4828 1.0690 0.0000
0.4828 1.1034 0.0000
0.4828 1.1379 0.0000
0.4828 1.1724 0.0000
0.4828 1.2069 0.0000
0.4828 1.2414 0.0000
0.4828 1.2759 0.0000
0.4828 1.3103 0.0000
0.4828 1.3448 0.0000
0.4828 1.3793 0.0000
0.4828 1.4138 0.0000
0.4828 1.4483 0.0000
0.4828 1.4828 0.0000
0.4828 1.5172 0.0000
0.4828 1.5517 0.0000
0.4828 1.5862 0.0000
0.4828 1.6207 0.0000
0.4828 1.6552 0.0000
0.4828 1.6897 0.0000
0.4828 1.7241 0.0000
0.4828 1.7586 0.0000
0.4828 1.7931 0.0000
0.4828 1.8276 0.0000
0.4828 1.8621 0.0000
0.4828 1.8966 0.0000
0.4828 1.9310 0.0000
0.4828 1.9655 0.0000
0.4828 2.0000 0.0000
0.5517 1.0000 0.0000
0.5517 1.0345 0.0000
0.5517 1.0690 0.0000
0.5517 1.1034 0.0000
0.5517 1.1379 0.0000
0.5517 1.1724 0.0000
0.5517 1.2069 0.0000
0.5517 1.2414 0.0000
0.5517 1.2759 0.0000
0.5517 1.3103 0.0000
0.5517 1.3448 0.0000
0.5517 1.3793 0.0000
0.5517 1.4138 0.0000
0.5517 1.4483 0.0000
0.5517 1.4828 0.0000
0.5517 1.5172 0.0000
0.5517 1.5517 0.0000
0.5517 1.5862 0.0000
0.5517 1.6207 0.0000
0.5517 1.6552 0.0000
0.5517 1.6897 0.0000
0.5517 1.7241 0.0000
0.5517 1.7586 0.0000
0.5517 1.7931 0.0000
0.5517 1.8276 0.0000
0.5517 1.8621 0.0000
0.5517 1.8966 0.0000
0.5517 1.9310 0.0000
0.5517 1.9655 0.0000
0.5517 2.0000 0.0000
0.6207 1.0000 0.0000
0.6207 1.0345 0.0000
0.6207 1.0690 0.0000
0.6207 1.1034 0.0000
0.6207 1.1379 0.0000
0.6207 1.1724 0.0000
0.6207 1.2069 0.0000
0.6207 1.2414 0.0000
0.6207 1.2759 0.0000
0.6207 1.3103 0.0000
0.6207 1.3448 0.0000
0.6207 1.3793 0.0000
0.6207 1.4138 0.0000
0.6207 1.4483 0.0000
0.6207 1.4828 0.0000
0.6207 1.5172 0.0000
0.6207 1.5517 0.0000
0.6207 1.5862 0.0000
0.6207 1.6207 0.0000
0.6207 1.6552 0.0000
0.6207 1.6897 0.0000
0.6207 1.7241 0.0000
0.6207 1.7586 0.0000
0.6207 1.7931 0.0000
0.6207 1.8276 0.0000
0.6207 1.8621 0.0000
0.6207 1.8966 0.0000
0.6207 1.9310 0.0000
0.6207 1.9655 0.0000
0.6207 2.0000 0.0000
0.6897 1.0000 0.0000
0.6897 1.0345 0.0000
0.6897 1.0690 0.0000
0.6897 1.1034 0.0000
0.6897 1.1379 0.0000
0.6897 1.1724 0.0000
0.6897 1.2069 0.0000
0.6897 1.2414 0.0000
0.6897 1.2759 0.0000
0.6897 1.3103 0.0000
0.6897 1.3448 0.0000
0.6897 1.3793 0.0000
0.6897 1.4138 0.0000
0.6897 1.4483 0.0000
0.6897 1.4828 0.0000
0.6897 1.5172 0.0000
0.6897 1.5517 0.0000
0.6897 1.5862 0.0000
0.6897 1.6207 0.0000
0.6897 1.6552 0.0000
0.6897 1.6897 0.0000
0.6897 1.7241 0.0000
0.6897 1.7586 0.0000
0.6897 1.7931 0.0000
0.6897 1.8276 0.0000
0.6897 1.8621 0.0000
0.6897 1.8966 0.0000
0.6897 1.9310 0.0000
0.6897 1.9655 0.0000
0.6897 2.0000 0.0000
0.7586 1.0000 0.0000
0.7586 1.0345 0.0000
0.7586 1.0690 0.0000
0.7586 1.1034 0.0000
0.7586 1.1379 0.0000
0.7586 1.1724 0.0000
0.7586 1.2069 0.0000
0.7586 1.2414 0.0000
0.7586 1.2759 0.0000
0.7586 1.3103 0.0000
0.7586 1.3448 0.0000
0.7586 1.3793 0.0000
0.7586 1.4138 0.0000
0.7586 1.4483 0.0000
0.7586 1.4828 0.0000
0.7586 1.5172 0.0000
0.7586 1.5517 0.0000
0.7586 1.5862 0.0000
0.7586 1.6207 0.0000
0.7586 1.6552 0.0000
0.7586 1.6897 0.0000
0.7586 1.7241 0.0000
0.7586 1.7586 0.0000
0.7586 1.7931 0.0000
0.7586 1.8276 0.0000
0.7586 1.8621 0.0000
0.7586 1.8966 0.0000
0.7586 1.9310 0.0000
0.7586 1.9655 0.0000
0.7586 2.0000 0.0000
0.8276 1.0000 0.0000
0.8276 1.0345 0.0000
0.8276 1.0690 0.0000
0.8276 1.1034 0.0000
0.8276 1.1379 0.0000
0.8276 1.1724 0.0000
0.8276 1.2069 0.0000
0.8276 1.2414 0.0000
0.8276 1.2759 0.0000
0.8276 1.3103 0.0000
0.8276 1.3448 0.0000
0.8276 1.3793 0.0000
0.8276 1.4138 0.0000
0.8276 1.4483 0.0000
0.8276 1.4828 0.0000
0.8276 1.5172 0.0000
0.8276 1.5517 0.0000
0.8276 1.5862 0.0000
0.8276 1.6207 0.0000
0.8276 1.6552 0.0000
0.8276 1.6897 0.0000
0.8276 1.7241 0.0000
0.8276 1.7586 0.0000
0.8276 1.7931 0.0000
0.8276 1.8276 0.0000
0.8276 1.8621 0.0000
0.8276 1.8966 0.0000
0.8276 1.9310 0.0000
0.8276 1.9655 0.0000
0.8276 2.0000 0.0000
0.8966 1.0000 0.0000
0.8966 1.0345 0.0000
0.8966 1.0690 0.0000
0.8966 1.1034 0.0000
0.8966 1.1379 0.0000
0.8966 1.1724 0.0000
0.8966 1.2069 0.0000
0.8966 1.2414 0.0000
0.8966 1.2759 0.0000
0.8966 1.3103 0.0000
0.8966 1.3448 0.0000
0.8966 1.3793 0.0000
0.8966 1.4138 0.0000
0.8966 1.4483 0.0000
0.8966 1.4828 0.0000
0.8966 1.5172 0.0000
0.8966 1.5517 0.0000
0.8966 1.5862 0.0000
0.8966 1.6207 0.0000
0.8966 1.6552 0.0000
0.8966 1.6897 0.0000
0.8966 1.7241 0.0000
0.8966 1.7586 0.0000
0.8966 1.7931 0.0000
0.8966 1.8276 0.0000
0.8966 1.8621 0.0000
0.8966 1.8966 0.0000
0.8966 1.9310 0.0000
0.8966 1.9655 0.0000
0.8966 2.0000 0.0000
0.9655 1.0000 0.0000
0.9655 1.0345 0.0000
0.9655 1.0690 0.0000
0.9655 1.1034 0.0000
0.9655 1.1379 0.0000
0.9655 1.1724 0.0000
0.9655 1.2069 0.0000
0.9655 1.2414 0.0000
0.9655 1.2759 0.0000
0.9655 1.3103 0.0000
0.9655 1.3448 0.0000
0.9655 1.3793 0.0000
0.9655 1.4138 0.0000
0.9655 1.4483 0.0000
0.9655 1.4828 0.0000
0.9655 1.5172 0.0000
0.9655 1.5517 0.0000
0.9655 1.5862 0.0000
0.9655 1.6207 0.0000
0.9655 1.6552 0.0000
0.9655 1.6897 0.0000
0.9655 1.7241 0.0000
0.9655 1.7586 0.0000
0.9655 1.7931 0.0000
0.9655 1.8276 0.0000
0.9655 1.8621 0.0000
0.9655 1.8966 0.0000
0.9655 1.9310 0.0000
0.9655 1.9655 0.0000
0.9655 2.0000 0.0000
1.0345 1.0000 0.0000
1.0345 1.0345 0.0000
1.0345 1.0690 0.0000
1.0345 1.1034 0.0000
1.0345 1.1379 0.0000
1.0345 1.1724 0.0000
1.0345 1.2069 0.0000
1.0345 1.2414 0.0000
1.0345 1.2759 0.0000
1.0345 1.3103 0.0000
1.0345 1.3448 0.0000
[...]
         <PointData>
            <DataArray Name="fValues" NumberOfComponents="3" format="ascii" type="Float64">
 5.26374e-25 -9.08171e-25        00000 
-2.10550e-24 -2.10550e-24        00000 
 9.02232e-24 -2.77610e-24        00000 
 4.18556e-24 -1.67422e-23        00000 
 2.22088e-23  9.99396e-23        00000 
 8.69212e-23 -8.18325e-22        00000 
 4.66385e-22  2.18757e-21        00000 
-2.38019e-21 -2.45832e-21        00000 
 8.52818e-21  8.52818e-21        00000 
-7.71418e-20 -3.57632e-20        00000 
 1.27923e-20 -8.52818e-21        00000 
-2.84149e-19 -5.71468e-20        00000 
 1.37517e-19  5.00320e-19        00000 
-2.88016e-19 -7.00059e-19        00000 
 5.53621e-19  5.45803e-19        00000 
-3.36162e-19 -9.14349e-20        00000 
 1.70564e-19  9.89268e-19        00000 
-2.25845e-19 -5.13128e-20        00000 
 4.54836e-20  6.25400e-20        00000 
-1.63069e-20 -8.81758e-22        00000 
-9.32769e-22 -1.68787e-21        00000 
 1.49905e-22  1.69264e-21        00000 
 1.77670e-22 -1.51020e-21        00000 
 6.13882e-23 -1.67422e-22        00000 
 1.68301e-23  2.35968e-23        00000 
-3.14102e-24  3.30804e-23        00000 
-3.47012e-25 -2.77610e-24        00000 
-9.06379e-25 -4.36809e-25        00000 
 1.60917e-25 -3.81433e-25        00000 
 3.86707e-26  9.53583e-26        00000 
-1.31114e-08  1.00634e-09        00000 
-8.06682e-09 -1.03837e-08        00000 
-1.91227e-09 -6.86538e-08        00000 
 8.70051e-08 -2.47663e-07        00000 
 4.69838e-07 -6.24617e-07        00000 
 1.59656e-06 -8.53878e-07        00000 
 3.81965e-06  1.68841e-06        00000 
 4.57009e-06  1.72581e-05        00000 
-1.17574e-05  7.20423e-05        00000 
-1.12888e-04  1.88079e-04        00000 
-4.34498e-04  2.30276e-04        00000 
-1.53045e-03 -6.77303e-04        00000 
-2.17327e-03 -3.10961e-03        00000 
-3.35430e-05 -4.34258e-03        00000 
 2.28430e-03 -3.03923e-04        00000 
 5.67295e-05  3.79165e-03        00000 
-1.91253e-03  2.76483e-03        00000 
-1.28037e-03  5.24589e-04        00000 
-2.81895e-04 -2.58352e-04        00000 
-4.88417e-05 -1.68236e-04        00000 
 3.83691e-06 -5.08099e-05        00000 
 5.34080e-06 -7.08771e-06        00000 
 2.15971e-06  1.29518e-06        00000 
 5.35151e-07  1.18391e-06        00000 
 6.18128e-08  4.19434e-07        00000 
-1.79494e-08  8.84699e-08        00000 
-1.37231e-08  4.41239e-09        00000 
-4.83633e-09 -5.51007e-09        00000 
-1.22495e-09 -2.90009e-09        00000 
 2.55861e-10 -1.36346e-09        00000 
 5.32031e-09 -2.51855e-09        00000 
 3.89721e-09  1.67498e-08        00000 
 5.45104e-10  1.12828e-07        00000 
-3.61811e-08  4.25289e-07        00000 
-1.89039e-07  1.11539e-06        00000 
-6.24324e-07  1.72159e-06        00000 
-1.45471e-06 -1.69211e-06        00000 
-2.21049e-06 -2.51224e-05        00000 
 2.16962e-06 -1.13539e-04        00000 
 2.18093e-05 -3.45040e-04        00000 
 2.12526e-04 -6.58543e-04        00000 
 4.91678e-04 -1.86457e-05        00000 
 5.99343e-03  7.11069e-03        00000 
 5.41604e-03  1.52486e-02        00000 
 5.50498e-03  6.19097e-04        00000 
 5.58968e-03 -1.38450e-02        00000 
 5.69572e-03 -6.40464e-03        00000 
 2.14789e-04  2.75680e-04        00000 
 4.02783e-05  6.58901e-04        00000 
-2.00089e-05  2.70179e-04        00000 
-3.89398e-06  6.53616e-05        00000 
-2.59254e-07  6.59566e-06        00000 
 1.89735e-07 -2.61247e-06        00000 
 6.98172e-08 -1.77479e-06        00000 
 1.19325e-08 -5.91769e-07        00000 
-3.67741e-10 -1.18676e-07        00000 
-9.45071e-10 -3.26380e-09        00000 
-3.57327e-10  8.74240e-09        00000 
-8.96990e-11  4.33703e-09        00000 
 6.65664e-12  1.99563e-09        00000 
 6.44084e-09  2.32243e-09        00000 
 4.87966e-09 -1.63827e-08        00000 
 8.93717e-10 -1.09799e-07        00000 
-4.58624e-08 -4.09861e-07        00000 
-2.50802e-07 -1.05958e-06        00000 
-8.63599e-07 -1.60300e-06        00000 
-2.02205e-06  1.54923e-06        00000 
-2.20627e-06  2.23923e-05        00000 
 9.77768e-06  1.00274e-04        00000 
 6.01365e-05  3.18025e-04        00000 
 3.00216e-04  7.62722e-04        00000 
 1.03971e-04  1.01539e-03        00000 
 3.43683e-03 -3.45991e-03        00000 
-5.66578e-02 -4.81414e-02        00000 
-4.31168e-02 -5.12555e-04        00000 
-5.81770e-02  4.42960e-02        00000 
 2.92458e-03  2.38678e-03        00000 
 4.66338e-04 -1.45487e-03        00000 
 2.75218e-04 -6.13971e-04        00000 
 4.62668e-05 -1.72196e-04        00000 
-6.51000e-07 -3.35340e-05        00000 
-4.90985e-06 -2.25373e-06        00000 
-2.16612e-06  1.80789e-06        00000 
-5.69037e-07  1.07531e-06        00000 
-7.13367e-08  3.53540e-07        00000 
 1.67912e-08  7.12121e-08        00000 
 1.39485e-08  1.91964e-09        00000 
 5.00419e-09 -5.37566e-09        00000 
 1.27429e-09 -2.64870e-09        00000 
-2.49310e-10 -1.21623e-09        00000 
-1.31364e-08 -1.03197e-09        00000 
-8.02341e-09  7.65630e-09        00000 
-1.00569e-09  5.87048e-08        00000 
 8.99748e-08  2.16635e-07        00000 
 4.75021e-07  5.52430e-07        00000 
 1.58409e-06  8.14957e-07        00000 
 3.67426e-06 -8.92610e-07        00000 
 3.97013e-06 -1.18294e-05        00000 
-1.25523e-05 -5.18899e-05        00000 
-1.07963e-04 -1.51781e-04        00000 
-3.78597e-04 -3.04864e-04        00000 
-1.53299e-03 -9.74414e-05        00000 
 1.57357e-03 -1.69403e-04        00000 
-2.88244e-02  6.21166e-03        00000 
 8.62808e-01 -6.27277e-03        00000 
-1.07748e-02  1.19242e-02        00000 
 2.54154e-05  4.36630e-03        00000 
 5.74464e-06  9.82093e-04        00000 
 3.28391e-06  1.31174e-04        00000 
 5.81659e-07 -1.57184e-05        00000 
-9.15312e-10 -1.83153e-05        00000 
-5.76451e-08 -7.40095e-06        00000 
-2.60919e-08 -1.90732e-06        00000 
-6.97473e-09 -2.44706e-07        00000 
-9.14646e-10  5.45855e-08        00000 
 1.87488e-10  4.72195e-08        00000 
 1.66019e-10  1.71550e-08        00000 
 6.06466e-11  3.77056e-09        00000 
 1.55321e-11  8.16865e-11        00000 
-3.93997e-11 -3.67693e-10        00000 
-7.11909e-10  5.15653e-09        00000 
-9.83424e-11  1.77778e-08        00000 
 2.08317e-13  3.11160e-08        00000 
 1.12620e-09  8.82881e-09        00000 
 5.82459e-09 -2.39551e-07        00000 
 1.92154e-08 -1.29782e-06        00000 
 4.39722e-08 -4.38290e-06        00000 
 4.52894e-08 -1.03412e-05        00000 
-1.63107e-07 -1.24591e-05        00000 
-1.32711e-06  3.11244e-05        00000 
-4.68916e-06  2.68232e-04        00000 
-1.78091e-05  1.06294e-03        00000 
 1.53474e-05  2.73679e-03        00000 
-2.10969e-04  5.26131e-03        00000 
 1.00870e-02 -3.98028e-18        00000 
 2.28439e-17 -4.79210e-18        00000 
-5.86518e-18 -8.78758e-21        00000 
 1.00320e-18  4.22123e-20        00000 
-1.61010e-19  1.05835e-20        00000 
 2.58110e-20 -1.00326e-21        00000 
-4.31853e-21 -2.85288e-24        00000 
 6.63837e-22  1.90240e-22        00000 
-8.76608e-23 -6.32682e-23        00000 
 1.99980e-23  4.71120e-23        00000 
-6.64656e-24 -1.83902e-23        00000 
 1.35751e-24  4.08411e-24        00000 
-2.04747e-25  3.80100e-25        00000 
 5.87681e-26 -9.50228e-26        00000 
-4.14076e-26  3.77390e-26        00000 
 1.94079e-26 -1.63786e-26        00000 
 9.27354e-26 -4.47013e-25        00000 
-2.01843e-25  7.91716e-25        00000 
 7.69251e-25 -5.00278e-25        00000 
-5.01051e-25 -1.73465e-24        00000 
-2.26559e-24 -3.73983e-24        00000 
 2.69971e-24 -1.28908e-23        00000 
 5.03182e-23  2.21639e-23        00000 
-3.34967e-22 -5.07649e-22        00000 
 2.29814e-21  8.95910e-22        00000 
-2.09088e-20  2.88091e-21        00000 
 1.24618e-19 -1.85448e-20        00000 
-6.96455e-19  5.97954e-20        00000 
 3.08451e-18 -2.44837e-19        00000 
-7.42903e-18  3.67568e-19        00000 
 8.91518e-18 -3.23656e-19        00000 
-5.41423e-18  3.31065e-19        00000 
 2.43198e-18 -1.95974e-19        00000 
-5.01356e-19  1.57387e-20        00000 
 9.48113e-20  9.97813e-23        00000 
-1.68551e-20  6.77912e-22        00000 
 2.79131e-21  4.44656e-23        00000 
-4.92877e-22 -2.76332e-23        00000 
 8.17786e-23  1.14077e-23        00000 
-1.34986e-23 -1.22132e-23        00000 
 2.73699e-24  4.05997e-24        00000 
-6.31925e-25 -1.30431e-24        00000 
 1.29028e-25  2.28006e-25        00000 
-2.63125e-26 -1.35913e-27        00000 
 9.08960e-27  1.10612e-27        00000 
-6.42884e-27  2.67980e-27        00000 
-2.99663e-26  1.03296e-25        00000 
 5.40985e-26 -9.23090e-26        00000 
-7.06201e-26  6.19910e-26        00000 
 1.11904e-26  6.74635e-26        00000 
 9.13804e-26 -1.21255e-24        00000 
 5.95545e-24  3.61475e-24        00000 
-4.29278e-23 -2.42598e-23        00000 
 2.68413e-22  5.51914e-23        00000 
-1.60470e-21  1.65117e-22        00000 
 1.09788e-20 -1.31004e-21        00000 
-5.47911e-20  5.15154e-21        00000 
 2.27376e-19 -1.72518e-20        00000 
-7.09112e-19  3.71291e-20        00000 
 1.12798e-18 -5.44963e-20        00000 
-1.27223e-18  5.69002e-20        00000 
 9.44551e-19 -4.99048e-20        00000 
-5.57862e-19  3.30926e-20        00000 
 1.76495e-19 -1.10990e-20        00000 
-4.11476e-20  1.57159e-21        00000 
 8.54495e-21 -1.97128e-22        00000 
-1.66688e-21 -6.45430e-24        00000 
 3.01135e-22  3.79612e-24        00000 
-5.40896e-23 -2.61973e-24        00000 
 9.48221e-24  1.73152e-24        00000 
-1.68121e-24 -9.92825e-25        00000 
 3.23928e-25  3.40001e-25        00000 
-6.64779e-26 -9.36569e-26        00000 
 1.36627e-26  1.66100e-26        00000 
-3.31011e-27 -1.60151e-27        00000 
 1.73951e-27  2.44205e-28        00000 
 7.26436e-27 -1.69858e-26        00000 
-9.48864e-27  5.81562e-27        00000 
 2.04149e-26 -2.51717e-27        00000 
-7.60190e-26 -4.18892e-26        00000 
 6.76640e-25  2.77420e-25        00000 
-4.69297e-24 -1.63044e-24        00000 
 2.83641e-23  2.52421e-24        00000 
-1.58917e-22  9.88418e-24        00000 
 8.55723e-22 -8.90534e-23        00000 
-4.02772e-21  4.43220e-22        00000 
 1.69703e-20 -1.66168e-21        00000 
-5.28719e-20  3.58692e-21        00000 
 1.13978e-19 -6.68002e-21        00000 
-2.08911e-19  8.67485e-21        00000 
 2.31198e-19 -1.01800e-20        00000 
-1.32581e-19  9.42579e-21        00000 
 1.15237e-19 -6.55810e-21        00000 
-4.25944e-20  3.34347e-21        00000 
 1.39065e-20 -8.48764e-22        00000 
-3.81210e-21  1.54258e-22        00000 
 7.86058e-22 -2.04573e-23        00000 
-1.57389e-22  1.44404e-24        00000 
 3.01610e-23  3.49013e-25        00000 
-5.62920e-24 -3.81585e-25        00000 
 1.02823e-24  2.51267e-25        00000 
-1.90112e-25 -8.59827e-26        00000 
 3.63007e-26  2.72249e-26        00000 
-7.19115e-27 -7.05598e-27        00000 
 1.55260e-27  1.39689e-27        00000 
-6.61917e-28 -3.92633e-28        00000 
-1.82102e-27  1.77932e-27        00000 
 3.18023e-27 -9.94305e-28        00000 
-1.29213e-26 -2.78832e-27        00000 
 7.99837e-26  2.03625e-26        00000 
-4.94487e-25 -9.13100e-26        00000 
 2.79437e-24  1.49110e-25        00000 
-1.47886e-23  7.21245e-25        00000 
 7.34951e-23 -6.79932e-24        00000 
-3.30411e-22  3.36227e-23        00000 
 1.31252e-21 -1.24776e-22        00000 
-4.24392e-21  3.29492e-22        00000 
 1.05653e-20 -6.73098e-22        00000 
-2.10252e-20  1.09247e-21        00000 
 3.18189e-20 -1.44835e-21        00000 
-3.35552e-20  1.61983e-21        00000 
 2.60947e-20 -1.49854e-21        00000 
-1.74586e-20  1.10123e-21        00000 
 9.41527e-21 -6.15745e-22        00000 
-3.53326e-21  2.42475e-22        00000 
 1.12358e-21 -6.36658e-23        00000 
-3.00863e-22  1.27632e-23        00000 
 6.81253e-23 -2.00548e-24        00000 
-1.43881e-23  2.05633e-25        00000 
 2.89420e-24  2.92067e-26        00000 
-5.63881e-25 -4.24082e-26        00000 
 1.07301e-25  1.78910e-26        00000 
-2.00658e-26 -5.86043e-27        00000 
 3.83408e-27  2.68403e-27        00000 
-7.98119e-28 -6.16930e-28        00000 
 3.13892e-28  2.40444e-28        00000 
 6.92043e-28 -1.83931e-28        00000 
-1.68884e-27 -6.34091e-29        00000 
 8.83574e-27  1.33277e-27        00000 
-4.97701e-26 -5.56829e-27        00000 
 2.67258e-25  1.08029e-26        00000 
-1.33842e-24  5.85449e-26        00000 
 6.30545e-24 -5.21268e-25        00000 
-2.72132e-23  2.58803e-24        00000 
 1.04808e-22 -9.69838e-24        00000 
-3.44285e-22  2.81106e-23        00000 
 9.27028e-22 -6.44087e-23        00000 
-2.03551e-21  1.19618e-22        00000 
 3.60006e-21 -1.83654e-22        00000 
-4.96179e-21  2.37475e-22        00000 
 5.24579e-21 -2.60964e-22        00000 
-4.37669e-21  2.41387e-22        00000 
 3.02675e-21 -1.83693e-22        00000 
-1.74270e-21  1.11728e-22        00000 
 7.99526e-22 -5.24967e-23        00000 
-2.92353e-22  1.85016e-23        00000 
 9.11273e-23 -4.92784e-24        00000 
-2.45235e-23  1.05439e-24        00000 
 5.83747e-24 -1.82796e-25        00000 
-1.28923e-24  2.07574e-26        00000 
 2.70143e-25  5.09734e-27        00000 
-5.46152e-26 -3.42690e-27        00000 
 1.07446e-26  1.47607e-27        00000 
-2.08679e-27 -6.05351e-28        00000 
 4.22614e-28  2.34527e-28        00000 
-1.61121e-28 -1.08309e-28        00000 
-3.54073e-28 -2.85327e-30        00000 
 9.55581e-28  6.89168e-29        00000 
-4.86401e-27 -3.16709e-28        00000 
 2.47927e-26  4.06971e-28        00000 
-1.19551e-25  4.31321e-27        00000 
 5.40400e-25 -4.05145e-26        00000 
-2.25811e-24  2.01271e-25        00000 
 8.52611e-24 -7.66590e-25        00000 
-2.82412e-23  2.34848e-24        00000 
 7.97507e-23 -5.87015e-24        00000 
-1.89188e-22  1.21276e-23        00000 
 3.73424e-22 -2.10019e-23        00000 
-6.04339e-22  3.08841e-23        00000 
 7.90624e-22 -3.89560e-23        00000 
-8.34593e-22  4.22758e-23        00000 
 7.21392e-22 -3.92199e-23        00000 
-5.21661e-22  3.06713e-23        00000 
 3.18375e-22 -1.98542e-23        00000 
-1.62230e-22  1.04303e-23        00000 
 6.83921e-23 -4.37163e-24        00000 
-2.42593e-23  1.45395e-24        00000 
 7.46817e-24 -3.90301e-25        00000 
-2.03040e-24  8.71284e-26        00000 
 4.99119e-25 -1.58883e-26        00000 
-1.14169e-25  2.09583e-27        00000 
 2.47797e-26  2.88113e-28        00000 
-5.17396e-27 -2.75344e-28        00000 
 1.05142e-27  1.30760e-28        00000 
-2.17713e-28 -5.60206e-29        00000 
 8.32140e-29  3.39846e-29        00000 
 1.99602e-28 -1.97131e-30        00000 
-4.65371e-28 -2.46059e-29        00000 
 2.28430e-27 -3.23514e-29        00000 
-1.05314e-26  3.41073e-28        00000 
 4.63848e-26 -3.16959e-27        00000 
-1.88803e-25  1.56795e-26        00000 
 7.02349e-25 -6.11558e-26        00000 
-2.33809e-24  1.94281e-25        00000 
 6.81370e-24 -5.19614e-25        00000 
-1.71190e-23  1.16701e-24        00000 
 3.67046e-23 -2.22996e-24        00000 
-6.65263e-23  3.65687e-24        00000 
 1.00961e-22 -5.18853e-24        00000 
-1.27519e-22  6.40435e-24        00000 
 1.34187e-22 -6.88273e-24        00000 
-1.18626e-22  6.41059e-24        00000 
 8.90994e-23 -5.12760e-24        00000 
-5.72519e-23  3.48065e-24        00000 
 3.14308e-23 -1.97993e-24        00000 
-1.46800e-23  9.33405e-25        00000 
 5.85322e-24 -3.62537e-25        00000 
-2.02317e-24  1.16464e-25        00000 
 6.18054e-25 -3.14059e-26        00000 
-1.69690e-25  7.20604e-27        00000 
 4.26945e-26 -1.39178e-27        00000 
-1.00447e-26  1.73020e-28        00000 
 2.24479e-27  1.87275e-29        00000 
-4.83005e-28 -2.30517e-29        00000 
 1.04715e-28  1.24144e-29        00000 
-4.11213e-29 -8.49332e-30        00000 
-8.68483e-29 -8.64831e-31        00000 
 2.14239e-28 -3.08574e-30        00000 
-9.30333e-28  3.70754e-29        00000 
 3.97302e-27 -2.52492e-28        00000 
-1.58695e-26  1.24662e-27        00000 
 5.84041e-26 -4.90580e-27        00000 
-1.95018e-25  1.61171e-26        00000 
 5.81111e-25 -4.51312e-26        00000 
-1.52399e-24  1.08412e-25        00000 
 3.48215e-24 -2.24474e-25        00000 
-6.87649e-24  4.03343e-25        00000 
 1.16528e-23 -6.32762e-25        00000 
-1.68490e-23  8.71088e-25        00000 
 2.07322e-23 -1.05546e-24        00000 
-2.17408e-23  1.12550e-24        00000 
 1.95293e-23 -1.05265e-24        00000 
-1.51274e-23  8.58099e-25        00000 
 1.01547e-23 -6.04814e-25        00000 
-5.91519e-24  3.65447e-25        00000 
 2.98682e-24 -1.87855e-25        00000 
-1.30860e-24  8.17468e-26        00000 
 5.00902e-25 -3.01150e-26        00000 
-1.69627e-25  9.45359e-27        00000 
 5.15621e-26 -2.55704e-27        00000 
-1.42766e-26  6.05238e-28        00000 
 3.65715e-27 -1.17079e-28        00000 
-8.80265e-28  1.48023e-29        00000 
 2.01989e-28  1.42873e-30        00000 
-4.63733e-29 -2.22643e-30        00000 
 1.89684e-29  1.84605e-30        00000 
 3.69474e-29 -8.37055e-31        00000 
-8.54767e-29  3.51844e-30        00000 
 3.41800e-28 -2.09950e-29        00000 
-1.34032e-27  1.00277e-28        00000 
 4.89060e-27 -3.96735e-28        00000 
-1.63662e-26  1.33528e-27        00000 
 4.95772e-26 -3.88343e-27        00000 
-1.34346e-25  9.83020e-27        00000 
 3.22593e-25 -2.17396e-26        00000 
-6.81312e-25  4.21756e-26        00000 
 1.25789e-24 -7.20798e-26        00000 
-2.02013e-24  1.08972e-25        00000 
 2.81244e-24 -1.46204e-25        00000 
-3.39036e-24  1.74362e-25        00000 
 3.54349e-24 -1.84758e-25        00000 
-3.22177e-24  1.73491e-25        00000 
 2.55907e-24 -1.43728e-25        00000 
-1.78218e-24  1.04461e-25        00000 
 1.09023e-24 -6.62062e-26        00000 
-5.86083e-25  3.63907e-26        00000 
 2.77087e-25 -1.72792e-26        00000 
-1.15612e-25  7.07962e-27        00000 
 4.28862e-26 -2.50987e-27        00000 
-1.42920e-26  7.75194e-28        00000 
 4.32961e-27 -2.09554e-28        00000 
-1.20717e-27  4.98506e-29        00000 
 3.13779e-28 -9.77964e-30        00000 
-7.71286e-29  1.24184e-30        00000 
 1.88772e-29  1.74160e-31        00000 
-8.09835e-30 -3.10006e-31        00000 
-1.42631e-29  6.42747e-31        00000 
 3.09596e-29 -1.81823e-30        00000 
-1.14011e-28  8.19087e-30        00000 
 4.11894e-28 -3.23407e-29        00000 
-1.38039e-27  1.10752e-28        00000 
 4.23486e-27 -3.32100e-28        00000 
-1.17732e-26  8.77151e-28        00000 
 2.94060e-26 -2.04756e-27        00000 
-6.55327e-26  4.23597e-27        00000 
 1.29577e-25 -7.78788e-27        00000 
-2.26299e-25  1.27640e-26        00000 
 3.47885e-25 -1.87000e-26        00000 
-4.69771e-25  2.45397e-26        00000 
 5.56945e-25 -2.88698e-26        00000 
-5.80334e-25  3.04311e-26        00000 
 5.32698e-25 -2.86820e-26        00000 
-4.31993e-25  2.40936e-26        00000 
 3.10323e-25 -1.79650e-26        00000 
-1.97824e-25  1.18382e-26        00000 
 1.12018e-25 -6.86628e-27        00000 
-5.63960e-26  3.49449e-27        00000 
 2.52985e-26 -1.55838e-27        00000 
-1.01570e-26  6.09594e-28        00000 
 3.67540e-27 -2.09951e-28        00000 
-1.20938e-27  6.41638e-29        00000 
 3.65476e-28 -1.73314e-29        00000 
-1.02513e-28  4.12397e-30        00000 
 2.70389e-29 -8.11316e-31        00000 
-7.08268e-30  9.54760e-32        00000 
 3.19813e-30  1.47661e-32        00000 
 5.04564e-30 -3.01228e-31        00000 
-1.02946e-29  7.05269e-31        00000 
 3.49848e-29 -2.66262e-30        00000 
-1.16946e-28  9.21011e-30        00000 
 3.62320e-28 -2.82876e-29        00000 
-1.02796e-27  7.73574e-29        00000 
 2.65057e-27 -1.89288e-28        00000 
-6.17077e-27  4.12631e-28        00000 
 1.29031e-26 -8.07490e-28        00000 
-2.41309e-26  1.41911e-27        00000 
 4.02286e-26 -2.24437e-27        00000 
-5.96423e-26  3.20035e-27        00000 
 7.85348e-26 -4.11989e-27        00000 
-9.18274e-26  4.79004e-27        00000 
 9.54227e-26 -5.02692e-27        00000 
-8.82705e-26  4.75419e-27        00000 
 7.28376e-26 -4.04202e-27        00000 