<?xml version="1.0" encoding="utf-8"?>
<VTKFile byte_order="LittleEndian" type="UnstructuredGrid" version="0.1">
   <UnstructuredGrid>
      <Piece NumberOfCells="3364" NumberOfPoints="1741">
         <Points>
            <DataArray Name="Points" NumberOfComponents="3" format="ascii" type="Float32">
0.0000 1.0000 0.0000
0.0000 1.0345 0.0000
0.0000 1.0690 0.0000
0.0000 1.1034 0.0000
0.0000 1.1379 0.0000
0.0000 1.1724 0.0000
0.0000 1.2069 0.0000
0.0000 1.2414 0.0000
0.0000 1.2759 0.0000
0.0000 1.3103 0.0000
0.0000 1.3448 0.0000
0.0000 1.3793 0.0000
0.0000 1.4138 0.0000
0.0000 1.4483 0.0000
0.0000 1.4828 0.0000
0.0000 1.5172 0.0000
0.0000 1.5517 0.0000
0.0000 1.5862 0.0000
0.0000 1.6207 0.0000
0.0000 1.6552 0.0000
0.0000 1.6897 0.0000
0.0000 1.7241 0.0000
0.0000 1.7586 0.0000
0.0000 1.7931 0.0000
0.0000 1.8276 0.0000
0.0000 1.8621 0.0000
0.0000 1.8966 0.0000
0.0000 1.9310 0.0000
0.0000 1.9655 0.0000
0.0000 2.0000 0.0000
0.0690 1.0000 0.0000
0.0690 1.0345 0.0000
0.0690 1.0690 0.0000
0.0690 1.1034 0.0000
0.0690 1.1379 0.0000
0.0690 1.1724 0.0000
0.0690 1.2069 0.0000
0.0690 1.2414 0.0000
0.0690 1.2759 0.0000
0.0690 1.3103 0.0000
0.0690 1.3448 0.0000
0.0690 1.3793 0.0000
0.0690 1.4138 0.0000
0.0690 1.4483 0.0000
0.0690 1.4828 0.0000
0.0690 1.5172 0.0000
0.0690 1.5517 0.0000
0.0690 1.5862 0.0000
0.0690 1.6207 0.0000
0.0690 1.6552 0.0000
0.0690 1.6897 0.0000
0.0690 1.7241 0.0000
0.0690 1.7586 0.0000
0.0690 1.7931 0.0000
0.0690 1.8276 0.0000
0.0690 1.8621 0.0000
0.0690 1.8966 0.0000
0.0690 1.9310 0.0000
0.0690 1.9655 0.0000
0.0690 2.0000 0.0000
0.1379 1.0000 0.0000
0.1379 1.0345 0.0000
0.1379 1.0690 0.0000
0.1379 1.1034 0.0000
0.1379 1.1379 0.0000
0.1379 1.1724 0.0000
0.1379 1.2069 0.0000
0.1379 1.2414 0.0000
0.1379 1.2759 0.0000
0.1379 1.3103 0.0000
0.1379 1.3448 0.0000
0.1379 1.3793 0.0000
0.1379 1.4138 0.0000
0.1379 1.4483 0.0000
0.1379 1.4828 0.0000
0.1379 1.5172 0.0000
0.1379 1.5517 0.0000
0.1379 1.5862 0.0000
0.1379 1.6207 0.0000
0.1379 1.6552 0.0000
0.1379 1.6897 0.0000
0.1379 1.7241 0.0000
0.1379 1.7586 0.0000
0.1379 1.7931 0.0000
0.1379 1.8276 0.0000
0.1379 1.8621 0.0000
0.1379 1.8966 0.0000
0.1379 1.9310 0.0000
0.1379 1.9655 0.0000
0.1379 2.0000 0.0000
0.2069 1.0000 0.0000
0.2069 1.0345 0.0000
0.2069 1.0690 0.0000
0.2069 1.1034 0.0000
0.2069 1.1379 0.0000
0.2069 1.1724 0.0000
0.2069 1.2069 0.0000
0.2069 1.2414 0.0000
0.2069 1.2759 0.0000
0.2069 1.3103 0.0000
0.2069 1.3448 0.0000
0.2069 1.3793 0.0000
0.2069 1.4138 0.0000
0.2069 1.4483 0.0000
0.2069 1.4828 0.0000
0.2069 1.5172 0.0000
0.2069 1.5517 0.0000
0.2069 1.5862 0.0000
0.2069 1.6207 0.0000
0.2069 1.6552 0.0000
0.2069 1.6897 0.0000
0.2069 1.7241 0.0000
0.2069 1.7586 0.0000
0.2069 1.7931 0.0000
0.2069 1.8276 0.0000
0.2069 1.8621 0.0000
0.2069 1.8966 0.0000
0.2069 1.9310 0.0000
0.2069 1.9655 0.0000
0.2069 2.0000 0.0000
0.2759 1.0000 0.0000
0.2759 1.0345 0.0000
0.2759 1.0690 0.0000
0.2759 1.1034 0.0000
0.2759 1.1379 0.0000
0.2759 1.1724 0.0000
0.2759 1.2069 0.0000
0.2759 1.2414 0.0000
0.2759 1.2759 0.0000
0.2759 1.3103 0.0000
0.2759 1.3448 0.0000
0.2759 1.3793 0.0000
0.2759 1.4138 0.0000
0.2759 1.4483 0.0000
0.2759 1.4828 0.0000
0.2759 1.5172 0.0000
0.2759 1.5517 0.0000
0.2759 1.5862 0.0000
0.2759 1.6207 0.0000
0.2759 1.6552 0.0000
0.2759 1.6897 0.0000
0.2759 1.7241 0.0000
0.2759 1.7586 0.0000
0.2759 1.7931 0.0000
0.2759 1.8276 0.0000
0.2759 1.8621 0.0000
0.2759 1.8966 0.0000
0.2759 1.9310 0.0000
0.2759 1.9655 0.0000
0.2759 2.0000 0.0000
0.3448 1.0000 0.0000
0.3448 1.0345 0.0000
0.3448 1.0690 0.0000
0.3448 1.1034 0.0000
0.3448 1.1379 0.0000
0.3448 1.1724 0.0000
0.3448 1.2069 0.0000
0.3448 1.2414 0.0000
0.3448 1.2759 0.0000
0.3448 1.3103 0.0000
0.3448 1.3448 0.0000
0.3448 1.3793 0.0000
0.3448 1.4138 0.0000
0.3448 1.4483 0.0000
0.3448 1.4828 0.0000
0.3448 1.5172 0.0000
0.3448 1.5517 0.0000
0.3448 1.5862 0.0000
0.3448 1.6207 0.0000
0.3448 1.6552 0.0000
0.3448 1.6897 0.0000
0.3448 1.7241 0.0000
0.3448 1.7586 0.0000
0.3448 1.7931 0.0000
0.3448 1.8276 0.0000
0.3448 1.8621 0.0000
0.3448 1.8966 0.0000
0.3448 1.9310 0.0000
0.3448 1.9655 0.0000
0.3448 2.0000 0.0000
0.4138 1.0000 0.0000
0.4138 1.0345 0.0000
0.4138 1.0690 0.0000
0.4138 1.1034 0.0000
0.4138 1.1379 0.0000
0.4138 1.1724 0.0000
0.4138 1.2069 0.0000
0.4138 1.2414 0.0000
0.4138 1.2759 0.0000
0.4138 1.3103 0.0000
0.4138 1.3448 0.0000
0.4138 1.3793 0.0000
0.4138 1.4138 0.0000
0.4138 1.4483 0.0000
0.4138 1.4828 0.0000
0.4138 1.5172 0.0000
0.4138 1.5517 0.0000
0.4138 1.5862 0.0000
0.4138 1.6207 0.0000
0.4138 1.6552 0.0000
0.4138 1.6897 0.0000
0.4138 1.7241 0.0000
0.4138 1.7586 0.0000
0.4138 1.7931 0.0000
0.4138 1.8276 0.0000
0.4138 1.8621 0.0000
0.4138 1.8966 0.0000
0.4138 1.9310 0.0000
0.4138 1.9655 0.0000
0.4138 2.0000 0.0000
0.4828 1.0000 0.0000
0.4828 1.0345 0.0000
0.4828 1.0690 0.0000
0.4828 1.1034 0.0000
0.4828 1.1379 0.0000
0.4828 1.1724 0.0000
0.4828 1.2069 0.0000
0.4828 1.2414 0.0000
0.4828 1.2759 0.0000
0.4828 1.3103 0.0000
0.4828 1.3448 0.0000
0.4828 1.3793 0.0000
0.4828 1.4138 0.0000
0.4828 1.4483 0.0000
0.4828 1.4828 0.0000
0.4828 1.5172 0.0000
0.4828 1.5517 0.0000
0.4828 1.5862 0.0000
0.4828 1.6207 0.0000
0.4828 1.6552 0.0000
0.4828 1.6897 0.0000
0.4828 1.7241 0.0000
0.4828 1.7586 0.0000
0.4828 1.7931 0.0000
0.4828 1.8276 0.0000
0.4828 1.8621 0.0000
0.4828 1.8966 0.0000
0.4828 1.9310 0.0000
0.4828 1.9655 0.0000
0.4828 2.0000 0.0000
0.5517 1.0000 0.0000
0.5517 1.0345 0.0000
0.5517 1.0690 0.0000
0.5517 1.1034 0.0000
0.5517 1.1379 0.0000
0.5517 1.1724 0.0000
0.5517 1.2069 0.0000
0.5517 1.2414 0.0000
0.5517 1.2759 0.0000
0.5517 1.3103 0.0000
0.5517 1.3448 0.0000
0.5517 1.3793 0.0000
0.5517 1.4138 0.0000
0.5517 1.4483 0.0000
0.5517 1.4828 0.0000
0.5517 1.5172 0.0000
0.5517 1.5517 0.0000
0.5517 1.5862 0.0000
0.5517 1.6207 0.0000
0.5517 1.6552 0.0000
0.5517 1.6897 0.0000
0.5517 1.7241 0.0000
0.5517 1.7586 0.0000
0.5517 1.7931 0.0000
0.5517 1.8276 0.0000
0.5517 1.8621 0.0000
0.5517 1.8966 0.0000
0.5517 1.9310 0.0000
0.5517 1.9655 0.0000
0.5517 2.0000 0.0000
0.6207 1.0000 0.0000
0.6207 1.0345 0.0000
0.6207 1.0690 0.0000
0.6207 1.1034 0.0000
0.6207 1.1379 0.0000
0.6207 1.1724 0.0000
0.6207 1.2069 0.0000
0.6207 1.2414 0.0000
0.6207 1.2759 0.0000
0.6207 1.3103 0.0000
0.6207 1.3448 0.0000
0.6207 1.3793 0.0000
0.6207 1.4138 0.0000
0.6207 1.4483 0.0000
0.6207 1.4828 0.0000
0.6207 1.5172 0.0000
0.6207 1.5517 0.0000
0.6207 1.5862 0.0000
0.6207 1.6207 0.0000
0.6207 1.6552 0.0000
0.6207 1.6897 0.0000
0.6207 1.7241 0.0000
0.6207 1.7586 0.0000
0.6207 1.7931 0.0000
0.6207 1.8276 0.0000
0.6207 1.8621 0.0000
0.6207 1.8966 0.0000
0.6207 1.9310 0.0000
0.6207 1.9655 0.0000
0.6207 2.0000 0.0000
0.6897 1.0000 0.0000
0.6897 1.0345 0.0000
0.6897 1.0690 0.0000
0.6897 1.1034 0.0000
0.6897 1.1379 0.0000
0.6897 1.1724 0.0000
0.6897 1.2069 0.0000
0.6897 1.2414 0.0000
0.6897 1.2759 0.0000
0.6897 1.3103 0.0000
0.6897 1.3448 0.0000
0.6897 1.3793 0.0000
0.6897 1.4138 0.0000
0.6897 1.4483 0.0000
0.6897 1.4828 0.0000
0.6897 1.5172 0.0000
0.6897 1.5517 0.0000
0.6897 1.5862 0.0000
0.6897 1.6207 0.0000
0.6897 1.6552 0.0000
0.6897 1.6897 0.0000
0.6897 1.7241 0.0000
0.6897 1.7586 0.0000
0.6897 1.7931 0.0000
0.6897 1.8276 0.0000
0.6897 1.8621 0.0000
0.6897 1.8966 0.0000
0.6897 1.9310 0.0000
0.6897 1.9655 0.0000
0.6897 2.0000 0.0000
0.7586 1.0000 0.0000
0.7586 1.0345 0.0000
0.7586 1.0690 0.0000
0.7586 1.1034 0.0000
0.7586 1.1379 0.0000
0.7586 1.1724 0.0000
0.7586 1.2069 0.0000
0.7586 1.2414 0.0000
0.7586 1.2759 0.0000
0.7586 1.3103 0.0000
0.7586 1.3448 0.0000
0.7586 1.3793 0.0000
0.7586 1.4138 0.0000
0.7586 1.4483 0.0000
0.7586 1.4828 0.0000
0.7586 1.5172 0.0000
0.7586 1.5517 0.0000
0.7586 1.5862 0.0000
0.7586 1.6207 0.0000
0.7586 1.6552 0.0000
0.7586 1.6897 0.0000
0.7586 1.7241 0.0000
0.7586 1.7586 0.0000
0.7586 1.7931 0.0000
0.7586 1.8276 0.0000
0.7586 1.8621 0.0000
0.7586 1.8966 0.0000
0.7586 1.9310 0.0000
0.7586 1.9655 0.0000
0.7586 2.0000 0.0000
0.8276 1.0000 0.0000
0.8276 1.0345 0.0000
0.8276 1.0690 0.0000
0.8276 1.1034 0.0000
0.8276 1.1379 0.0000
0.8276 1.1724 0.0000
0.8276 1.2069 0.0000
0.8276 1.2414 0.0000
0.8276 1.2759 0.0000
0.8276 1.3103 0.0000
0.8276 1.3448 0.0000
0.8276 1.3793 0.0000
0.8276 1.4138 0.0000
0.8276 1.4483 0.0000
0.8276 1.4828 0.0000
0.8276 1.5172 0.0000
0.8276 1.5517 0.0000
0.8276 1.5862 0.0000
0.8276 1.6207 0.0000
0.8276 1.6552 0.0000
0.8276 1.6897 0.0000
0.8276 1.7241 0.0000
0.8276 1.7586 0.0000
0.8276 1.7931 0.0000
0.8276 1.8276 0.0000
0.8276 1.8621 0.0000
0.8276 1.8966 0.0000
0.8276 1.9310 0.0000
0.8276 1.9655 0.0000
0.8276 2.0000 0.0000
0.8966 1.0000 0.0000
0.8966 1.0345 0.0000
0.8966 1.0690 0.0000
0.8966 1.1034 0.0000
0.8966 1.1379 0.0000
0.8966 1.1724 0.0000
0.8966 1.2069 0.0000
0.8966 1.2414 0.0000
0.8966 1.2759 0.0000
0.8966 1.3103 0.0000
0.8966 1.3448 0.0000
0.8966 1.3793 0.0000
0.8966 1.4138 0.0000
0.8966 1.4483 0.0000
0.8966 1.4828 0.0000
0.8966 1.5172 0.0000
0.8966 1.5517 0.0000
0.8966 1.5862 0.0000
0.8966 1.6207 0.0000
0.8966 1.6552 0.0000
0.8966 1.6897 0.0000
0.8966 1.7241 0.0000
0.8966 1.7586 0.0000
0.8966 1.7931 0.0000
0.8966 1.8276 0.0000
0.8966 1.8621 0.0000
0.8966 1.8966 0.0000
0.8966 1.9310 0.0000
0.8966 1.9655 0.0000
0.8966 2.0000 0.0000
0.9655 1.0000 0.0000
0.9655 1.0345 0.0000
0.9655 1.0690 0.0000
0.9655 1.1034 0.0000
0.9655 1.1379 0.0000
0.9655 1.1724 0.0000
0.9655 1.2069 0.0000
0.9655 1.2414 0.0000
0.9655 1.2759 0.0000
0.9655 1.3103 0.0000
0.9655 1.3448 0.0000
0.9655 1.3793 0.0000
0.9655 1.4138 0.0000
0.9655 1.4483 0.0000
0.9655 1.4828 0.0000
0.9655 1.5172 0.0000
0.9655 1.5517 0.0000
0.9655 1.5862 0.0000
0.9655 1.6207 0.0000
0.9655 1.6552 0.0000
0.9655 1.6897 0.0000
0.9655 1.7241 0.0000
0.9655 1.7586 0.0000
0.9655 1.7931 0.0000
0.9655 1.8276 0.0000
0.9655 1.8621 0.0000
0.9655 1.8966 0.0000
0.9655 1.9310 0.0000
0.9655 1.9655 0.0000
0.9655 2.0000 0.0000
1.0345 1.0000 0.0000
1.0345 1.0345 0.0000
1.0345 1.0690 0.0000
1.0345 1.1034 0.0000
1.0345 1.1379 0.0000
1.0345 1.1724 0.0000
1.0345 1.2069 0.0000
1.0345 1.2414 0.0000
1.0345 1.2759 0.0000
1.0345 1.3103 0.0000
1.0345 1.3448 0.0000
[...]
         <PointData>
            <DataArray Name="fValues" NumberOfComponents="3" format="ascii" type="Float64">
 1.37587e-19 -2.52175e-19        00000 
-6.89929e-20  4.59953e-20        00000 
-1.70564e-20 -4.54836e-20        00000 
 9.28636e-21  8.85776e-20        00000 
-1.13709e-20  1.13709e-19        00000 
-1.14852e-19 -1.43965e-19        00000 
-5.68545e-20 -9.09672e-20        00000 
-9.50066e-20 -4.28601e-20        00000 
 3.41127e-20 -3.41127e-20        00000 
-1.53151e-19  8.49546e-20        00000 
-1.36451e-19  6.82254e-20        00000 
 8.57202e-21 -4.08957e-20        00000 
 1.70564e-20  3.69554e-20        00000 
 2.31384e-20  2.50165e-20        00000 
-5.68545e-21        00000        00000 
 9.21493e-20  5.32180e-20        00000 
-4.54836e-20 -7.95963e-20        00000 
-1.63491e-19  2.62683e-20        00000 
 2.27418e-19 -6.82254e-20        00000 
 1.57154e-19  3.00021e-20        00000 
-4.32094e-19 -7.95963e-20        00000 
 3.49388e-20 -1.49075e-19        00000 
-1.81934e-19 -6.82254e-20        00000 
 6.00042e-20  1.82870e-19        00000 
 1.02338e-19 -1.36451e-19        00000 
 3.74253e-20  2.92614e-19        00000 
 7.39109e-20 -1.36451e-19        00000 
-3.79304e-20  3.77873e-19        00000 
 1.65307e-20 -1.49090e-19        00000 
-4.13267e-21  4.58457e-19        00000 
 1.20636e-03  2.19718e-03        00000 
 5.76744e-04  2.07205e-03        00000 
 4.46701e-04  2.06237e-03        00000 
 4.84208e-04  2.08404e-03        00000 
 5.98757e-04  2.09516e-03        00000 
 7.52158e-04  2.07284e-03        00000 
 9.23338e-04  1.99982e-03        00000 
 1.09467e-03  1.86056e-03        00000 
 1.24521e-03  1.64239e-03        00000 
 1.34779e-03  1.33990e-03        00000 
 1.37009e-03  9.60952e-04        00000 
 1.28090e-03  5.32218e-04        00000 
 1.06123e-03  1.00374e-04        00000 
 7.14229e-04 -2.75309e-04        00000 
 2.59202e-04 -5.38649e-04        00000 
-2.51434e-04 -6.35378e-04        00000 
-7.60569e-04 -5.54751e-04        00000 
-1.20668e-03 -2.96450e-04        00000 
-1.53040e-03  9.08004e-05        00000 
-1.70877e-03  5.46894e-04        00000 
-1.72549e-03  1.00616e-03        00000 
-1.60482e-03  1.39725e-03        00000 
-1.38343e-03  1.69043e-03        00000 
-1.10332e-03  1.85922e-03        00000 
-8.14825e-04  1.92095e-03        00000 
-5.46200e-04  1.89846e-03        00000 
-3.22861e-04  1.82454e-03        00000 
-1.68617e-04  1.73094e-03        00000 
-1.43365e-04  1.64984e-03        00000 
-5.12086e-04  1.63330e-03        00000 
 1.16142e-03  3.64054e-03        00000 
 8.11878e-04  3.70406e-03        00000 
 7.42200e-04  3.71213e-03        00000 
 8.81697e-04  3.72611e-03        00000 
 1.14386e-03  3.74602e-03        00000 
 1.48596e-03  3.75442e-03        00000 
 1.88372e-03  3.72484e-03        00000 
 2.31283e-03  3.62411e-03        00000 
 2.73542e-03  3.41603e-03        00000 
 3.09094e-03  3.06814e-03        00000 
 3.29311e-03  2.56268e-03        00000 
 3.23772e-03  1.91217e-03        00000 
 2.82919e-03  1.17662e-03        00000 
 2.02950e-03  4.71153e-04        00000 
 9.10058e-04 -6.07334e-05        00000 
-4.36688e-04 -3.36577e-04        00000 
-1.79588e-03 -2.33935e-04        00000 
-2.96425e-03  1.72219e-04        00000 
-3.80631e-03  8.41468e-04        00000 
-4.16858e-03  1.61861e-03        00000 
-4.09820e-03  2.32498e-03        00000 
-3.64456e-03  2.89013e-03        00000 
-2.94464e-03  3.17906e-03        00000 
-2.18748e-03  3.25622e-03        00000 
-1.46598e-03  3.14765e-03        00000 
-8.81701e-04  2.95219e-03        00000 
-4.48099e-04  2.75754e-03        00000 
-1.42295e-04  2.60728e-03        00000 
 3.15775e-05  2.49809e-03        00000 
 5.97266e-05  2.34906e-03        00000 
 4.95281e-04  4.18093e-03        00000 
 5.86267e-04  4.32568e-03        00000 
 7.93308e-04  4.41920e-03        00000 
 1.09104e-03  4.52113e-03        00000 
 1.48020e-03  4.66795e-03        00000 
 1.96818e-03  4.86330e-03        00000 
 2.56523e-03  5.08384e-03        00000 
 3.27005e-03  5.28456e-03        00000 
 4.05461e-03  5.40128e-03        00000 
 4.84697e-03  5.35448e-03        00000 
 5.51384e-03  5.05848e-03        00000 
 5.84800e-03  4.44241e-03        00000 
 5.57679e-03  3.49187e-03        00000 
 4.42926e-03  2.31590e-03        00000 
 2.32032e-03  1.21485e-03        00000 
-2.81308e-04  6.34030e-04        00000 
-3.13055e-03  4.94858e-04        00000 
-5.62409e-03  1.18747e-03        00000 
-7.12644e-03  2.22851e-03        00000 
-7.72335e-03  3.37571e-03        00000 
-7.12549e-03  4.41434e-03        00000 
-5.77512e-03  4.76024e-03        00000 
-4.18926e-03  4.74303e-03        00000 
-2.56029e-03  4.18745e-03        00000 
-1.39598e-03  3.46413e-03        00000 
-6.86819e-04  2.83305e-03        00000 
-2.56835e-04  2.38232e-03        00000 
 6.61345e-05  2.10890e-03        00000 
 4.26785e-04  1.95092e-03        00000 
 9.36945e-04  1.80321e-03        00000 
-4.11529e-04  3.52215e-03        00000 
 1.80672e-04  3.67741e-03        00000 
 6.35944e-04  3.81820e-03        00000 
 1.01491e-03  4.04294e-03        00000 
 1.40222e-03  4.40863e-03        00000 
 1.88525e-03  4.93390e-03        00000 
 2.53711e-03  5.60961e-03        00000 
 3.41212e-03  6.39885e-03        00000 
 4.53420e-03  7.23422e-03        00000 
 5.87961e-03  8.00826e-03        00000 
 7.34497e-03  8.56073e-03        00000 
 8.69409e-03  8.67311e-03        00000 
 9.48407e-03  8.09072e-03        00000 
 8.99505e-03  6.61418e-03        00000 
 6.28956e-03  4.33998e-03        00000 
 7.28907e-04  2.11547e-03        00000 
-4.84255e-03  2.13839e-03        00000 
-9.77864e-03  2.48527e-03        00000 
-1.33908e-02  4.63048e-03        00000 
-1.30029e-02  6.92478e-03        00000 
-1.08627e-02  7.43477e-03        00000 
-7.47130e-03  7.75982e-03        00000 
-3.18265e-03  5.77808e-03        00000 
-8.93394e-04  3.60004e-03        00000 
-1.65743e-05  1.99332e-03        00000 
 2.12201e-04  9.52476e-04        00000 
 2.19832e-04  3.40644e-04        00000 
 2.62848e-04  3.61384e-05        00000 
 5.72460e-04 -5.35195e-05        00000 
 1.40233e-03 -5.41633e-05        00000 
-1.00629e-03  1.49299e-03        00000 
 3.52188e-06  1.52376e-03        00000 
 4.98930e-04  1.62713e-03        00000 
 7.06895e-04  1.93350e-03        00000 
 8.36619e-04  2.49300e-03        00000 
 1.04912e-03  3.33893e-03        00000 
 1.47732e-03  4.48576e-03        00000 
 2.22195e-03  5.94850e-03        00000 
 3.37202e-03  7.73596e-03        00000 
 5.01134e-03  9.82342e-03        00000 
 7.19823e-03  1.21078e-02        00000 
 9.90411e-03  1.43419e-02        00000 
 1.28787e-02  1.60463e-02        00000 
 1.53806e-02  1.64211e-02        00000 
 1.56516e-02  1.43546e-02        00000 
 1.02242e-02  8.94451e-03        00000 
-7.53976e-03  1.49053e-03        00000 
-2.04361e-02  6.76207e-03        00000 
-2.31278e-02  9.51279e-03        00000 
-2.45861e-02  1.16471e-02        00000 
-1.56079e-02  1.65171e-02        00000 
-5.69692e-04  8.17551e-03        00000 
 3.08571e-03  1.98079e-03        00000 
 2.83523e-03 -9.71827e-04        00000 
 1.98871e-03 -2.28112e-03        00000 
 1.18178e-03 -2.87598e-03        00000 
 4.81216e-04 -3.12858e-03        00000 
-4.29822e-06 -3.14702e-03        00000 
-9.28112e-05 -3.00030e-03        00000 
 5.79006e-04 -2.67534e-03        00000 
-3.62443e-04 -1.65437e-03        00000 
 6.24765e-04 -1.95277e-03        00000 
 7.15199e-04 -1.99777e-03        00000 
 3.96073e-04 -1.77050e-03        00000 
-1.93279e-05 -1.22395e-03        00000 
-2.93113e-04 -3.93780e-04        00000 
-3.46085e-04  7.56605e-04        00000 
-1.29511e-04  2.34351e-03        00000 
 4.40503e-04  4.54312e-03        00000 
 1.51028e-03  7.57760e-03        00000 
 3.30456e-03  1.16939e-02        00000 
 6.13142e-03  1.71095e-02        00000 
 1.03545e-02  2.38792e-02        00000 
 1.62642e-02  3.15904e-02        00000 
 2.36702e-02  3.87091e-02        00000 
 3.02377e-02  4.11686e-02        00000 
 2.82416e-02  3.04840e-02        00000 
-4.08503e-02 -1.12528e-02        00000 
-8.07346e-02  1.99468e-02        00000 
-4.25384e-02  5.03472e-02        00000 
 2.22542e-02  2.04324e-03        00000 
 1.67176e-02 -1.21345e-02        00000 
 7.92061e-03 -1.20010e-02        00000 
 3.81291e-03 -9.89392e-03        00000 
 1.93930e-03 -8.19540e-03        00000 
 8.44905e-04 -7.04336e-03        00000 
-8.80586e-05 -6.32525e-03        00000 
-1.14609e-03 -5.85671e-03        00000 
-1.98661e-03 -5.23333e-03        00000 
-2.24209e-03 -4.49104e-03        00000 
 2.72482e-03 -4.57465e-03        00000 
 2.69042e-03 -5.41655e-03        00000 
 1.63747e-03 -5.94041e-03        00000 
 3.18467e-04 -5.95044e-03        00000 
-5.67113e-04 -5.91500e-03        00000 
-1.14144e-03 -5.92215e-03        00000 
-1.57100e-03 -5.87981e-03        00000 
-1.94119e-03 -5.63266e-03        00000 
-2.27183e-03 -4.95378e-03        00000 
-2.52302e-03 -3.49024e-03        00000 
-2.58434e-03 -6.72578e-04        00000 
-2.24903e-03  4.42915e-03        00000 
-1.17410e-03  1.33346e-02        00000 
 1.18222e-03  2.85156e-02        00000 
 5.63690e-03  5.39165e-02        00000 
 1.39524e-02  9.55402e-02        00000 
 2.59568e-02  1.59473e-01        00000 
 7.32141e-02  2.45795e-01        00000 
-2.05938e-01  4.27796e-02        00000 
 8.59988e-02 -1.70842e-01        00000 
 2.73411e-02 -8.34175e-02        00000 
 4.11280e-03 -3.36693e-02        00000 
-2.63846e-05 -1.83793e-02        00000 
-7.41806e-04 -1.29720e-02        00000 
-9.76954e-04 -1.00604e-02        00000 
-1.20496e-03 -7.98218e-03        00000 
-1.65506e-03 -6.28263e-03        00000 
-2.77921e-03 -4.93765e-03        00000 
-5.21008e-03 -4.25787e-03        00000 
-6.54704e-03 -3.18210e-03        00000 
 8.73339e-03 -4.13443e-03        00000 
 6.89010e-03 -5.77572e-03        00000 
 3.12012e-03 -6.57563e-03        00000 
 1.24430e-03 -8.13324e-03        00000 
 3.79573e-04 -9.92292e-03        00000 
-5.90117e-05 -1.17698e-02        00000 
-3.21116e-04 -1.37995e-02        00000 
-5.35549e-04 -1.62119e-02        00000 
-7.71184e-04 -1.92281e-02        00000 
-1.05997e-03 -2.30894e-02        00000 
-1.40692e-03 -2.80601e-02        00000 
-1.79567e-03 -3.44148e-02        00000 
-2.19897e-03 -4.23795e-02        00000 
-2.64184e-03 -5.19518e-02        00000 
-3.32587e-03 -6.23113e-02        00000 
-5.83364e-03 -6.97965e-02        00000 
-7.56315e-03 -5.85158e-02        00000 
-6.77071e-02  3.21617e-02        00000 
 1.38452e-01 -4.06186e-02        00000 
-6.24741e-02 -1.03632e-01        00000 
-1.09858e-02 -8.80876e-03        00000 
-1.65798e-03  7.19189e-03        00000 
-8.22654e-04  3.13350e-03        00000 
-1.03181e-03  7.48930e-04        00000 
-1.02221e-03  1.48756e-04        00000 
-1.01493e-03  1.33435e-04        00000 
-1.20123e-03  3.83250e-04        00000 
-1.73122e-03  8.02508e-04        00000 
-2.42313e-03  5.32683e-04        00000 
-4.29715e-03 -1.77625e-03        00000 
 6.06398e-03 -2.47696e-03        00000 
 3.24753e-03  8.19357e-04        00000 
 1.98732e-03  1.12783e-03        00000 
 1.03549e-03  4.75454e-04        00000 
 5.57456e-04  3.21451e-05        00000 
 3.66914e-04 -1.87917e-04        00000 
 3.27670e-04 -3.25263e-04        00000 
 3.63193e-04 -4.61826e-04        00000 
 4.42311e-04 -6.48064e-04        00000 
 5.63615e-04 -9.32685e-04        00000 
 7.51719e-04 -1.38038e-03        00000 
 1.06443e-03 -2.09015e-03        00000 
 1.61895e-03 -3.23176e-03        00000 
 2.63455e-03 -5.16275e-03        00000 
 4.68211e-03 -8.86381e-03        00000 
 7.59405e-03 -1.71204e-02        00000 
 1.84310e-02 -3.55204e-02        00000 
-2.81663e-02 -2.68284e-02        00000 
-3.79502e-02 -5.86660e-03        00000 
-2.71139e-02  1.05770e-02        00000 
 1.51118e-02  1.74353e-02        00000 
 3.89622e-03  3.50884e-03        00000 
 6.27836e-04  1.03404e-04        00000 
 1.41164e-04  3.89092e-04        00000 
 2.18875e-04  6.75926e-04        00000 
 2.90562e-04  6.10231e-04        00000 
 3.35734e-04  3.80351e-04        00000 
 2.77651e-04  2.17001e-04        00000 
 4.61817e-04  3.14132e-04        00000 
 1.26925e-03  1.00345e-03        00000 
-1.79022e-03  1.41940e-03        00000 
-6.11570e-04  4.37434e-04        00000 
-3.11418e-04  3.18412e-04        00000 
-3.53476e-04  5.82484e-04        00000 
-2.76980e-04  9.82934e-04        00000 
-2.29082e-04  1.34171e-03        00000 
-2.31694e-04  1.68320e-03        00000 
-2.77952e-04  2.07385e-03        00000 
-3.64079e-04  2.57844e-03        00000 
-4.97441e-04  3.26628e-03        00000 
-6.99542e-04  4.22528e-03        00000 
-1.01531e-03  5.58213e-03        00000 
-1.53483e-03  7.54868e-03        00000 
-2.45153e-03  1.05454e-02        00000 
-3.94022e-03  1.53878e-02        00000 
-6.34594e-03  2.29903e-02        00000 
-2.61690e-03  2.82737e-02        00000 
 8.56748e-03  2.23569e-02        00000 
 1.73323e-02  1.01719e-02        00000 
 8.22298e-03 -1.40516e-03        00000 
-1.34427e-03 -7.50499e-03        00000 
-3.57748e-03 -5.11009e-03        00000 
-1.08301e-03 -1.66711e-03        00000 
-2.20322e-04 -7.00984e-04        00000 
-8.13259e-05 -6.05337e-04        00000 
-1.04060e-04 -5.51264e-04        00000 
-9.49649e-05 -4.48404e-04        00000 
-2.57509e-05 -3.95419e-04        00000 
-7.12497e-05 -4.32353e-04        00000 
-5.17983e-04 -6.01687e-04        00000 
 7.29264e-04 -8.62605e-04        00000 
 9.47505e-05 -6.26570e-04        00000 
 2.66530e-05 -5.88700e-04        00000 
 1.27979e-04 -7.00774e-04        00000 
 1.64531e-04 -9.42237e-04        00000 
 1.64135e-04 -1.23118e-03        00000 
 1.76180e-04 -1.54408e-03        00000 
 2.15328e-04 -1.91247e-03        00000 
 2.87140e-04 -2.38660e-03        00000 
 4.00829e-04 -3.02760e-03        00000 
 5.76129e-04 -3.91570e-03        00000 
 8.51902e-04 -5.17047e-03        00000 
 1.30021e-03 -6.99129e-03        00000 
 2.00504e-03 -9.70150e-03        00000 
 2.95015e-03 -1.36231e-02        00000 
 3.03038e-03 -1.79873e-02        00000 
 4.23531e-04 -1.97805e-02        00000 
-4.72360e-03 -1.60099e-02        00000 
-7.36832e-03 -8.69823e-03        00000 
-4.78475e-03 -1.27739e-03        00000 
-4.39930e-04  3.24638e-03        00000 
 1.32290e-03  3.44547e-03        00000 
 1.00395e-03  1.93115e-03        00000 
 3.54536e-04  9.02565e-04        00000 
 1.13493e-04  5.62571e-04        00000 
 6.08192e-05  4.58724e-04        00000 
 3.38162e-05  4.02178e-04        00000 
-9.68746e-06  3.81788e-04        00000 
 1.90019e-05  3.86651e-04        00000 
 2.91626e-04  4.08471e-04        00000 
-4.11267e-04  5.93964e-04        00000 
-2.81729e-05  5.69342e-04        00000 
 8.71984e-06  5.78861e-04        00000 
-6.14032e-05  6.47350e-04        00000 
-1.07239e-04  8.03887e-04        00000 
-1.26305e-04  1.02145e-03        00000 
-1.44443e-04  1.28204e-03        00000 
-1.79355e-04  1.59929e-03        00000 
-2.40448e-04  2.00893e-03        00000 
-3.37887e-04  2.56145e-03        00000 
-4.89264e-04  3.32658e-03        00000 
-7.24718e-04  4.40747e-03        00000 
-1.08137e-03  5.95518e-03        00000 
-1.55596e-03  8.13182e-03        00000 
-1.90711e-03  1.08558e-02        00000 
-1.49412e-03  1.33028e-02        00000 
 2.71255e-04  1.38527e-02        00000 
 2.69039e-03  1.14137e-02        00000 
 3.88425e-03  6.86683e-03        00000 
 2.89765e-03  2.09874e-03        00000 
 9.31520e-04 -1.10390e-03        00000 
-3.57534e-04 -2.01020e-03        00000 
-5.76702e-04 -1.54287e-03        00000 
-3.44866e-04 -9.01643e-04        00000 
-1.44461e-04 -5.42428e-04        00000 
-5.99194e-05 -3.99109e-04        00000 
-2.13965e-05 -3.44653e-04        00000 
 5.93722e-06 -3.27279e-04        00000 
-1.80896e-05 -3.16857e-04        00000 
-2.01557e-04 -3.01799e-04        00000 
 2.85542e-04 -4.45475e-04        00000 
 2.83790e-05 -4.73920e-04        00000 
-2.11643e-06 -5.05200e-04        00000 
 3.87534e-05 -5.61641e-04        00000 
 7.54946e-05 -6.74559e-04        00000 
 9.89317e-05 -8.40906e-04        00000 
 1.20430e-04 -1.05365e-03        00000 
 1.52820e-04 -1.32139e-03        00000 
 2.05896e-04 -1.66995e-03        00000 
 2.89623e-04 -2.13996e-03        00000 
 4.18057e-04 -2.78902e-03        00000 
 6.08809e-04 -3.69625e-03        00000 
 8.67495e-04 -4.95235e-03        00000 
 1.13333e-03 -6.58909e-03        00000 
 1.19772e-03 -8.40419e-03        00000 
 7.32937e-04 -9.78658e-03        00000 
-3.76884e-04 -9.88328e-03        00000 
-1.65565e-03 -8.24581e-03        00000 
-2.27794e-03 -5.33712e-03        00000 
-1.87591e-03 -2.22296e-03        00000 
-8.90090e-04  5.16169e-05        00000 
-6.31274e-05  1.03667e-03        00000 
 2.64250e-04  1.06681e-03        00000 
 2.44596e-04  7.59358e-04        00000 
 1.38301e-04  4.94992e-04        00000 
 6.28111e-05  3.53645e-04        00000 
 2.24073e-05  2.93924e-04        00000 
 1.51308e-06  2.71634e-04        00000 
 2.03297e-05  2.54563e-04        00000 
 1.52573e-04  2.32568e-04        00000 
-2.17355e-04  3.48915e-04        00000 
-3.11862e-05  3.86983e-04        00000 
-5.51496e-06  4.24895e-04        00000 
-2.95328e-05  4.75525e-04        00000 
-5.64079e-05  5.63409e-04        00000 
-7.84671e-05  6.93939e-04        00000 
-1.00346e-04  8.67367e-04        00000 
-1.30307e-04  1.09149e-03        00000 
-1.76555e-04  1.38603e-03        00000 
-2.47561e-04  1.78290e-03        00000 
-3.52730e-04  2.32640e-03        00000 
-4.98083e-04  3.06968e-03        00000 
-6.69151e-04  4.05309e-03        00000 
-7.98401e-04  5.24311e-03        00000 
-7.45586e-04  6.43862e-03        00000 
-3.62537e-04  7.23314e-03        00000 
 3.36583e-04  7.16628e-03        00000 
 1.06452e-03  6.04158e-03        00000 
 1.42752e-03  4.13362e-03        00000 
 1.25396e-03  2.05897e-03        00000 
 7.30046e-04  4.36105e-04        00000 
 2.11269e-04 -4.36092e-04        00000 
-7.66991e-05 -6.68013e-04        00000 
-1.43291e-04 -5.75502e-04        00000 
-1.07460e-04 -4.18832e-04        00000 
-5.83247e-05 -3.07319e-04        00000 
-2.43898e-05 -2.49839e-04        00000 
-6.87425e-06 -2.23855e-04        00000 
-2.04602e-05 -2.04320e-04        00000 
-1.19976e-04 -1.82967e-04        00000 
 1.71611e-04 -2.79199e-04        00000 
 3.02010e-05 -3.15423e-04        00000 
 9.34394e-06 -3.52743e-04        00000 
 2.45040e-05 -3.97981e-04        00000 
 4.40918e-05 -4.69231e-04        00000 
 6.30652e-05 -5.73931e-04        00000 
 8.34844e-05 -7.15841e-04        00000 
 1.10547e-04 -9.02658e-04        00000 
 1.50387e-04 -1.14995e-03        00000 
 2.09212e-04 -1.48201e-03        00000 
 2.91907e-04 -1.93027e-03        00000 
 3.96530e-04 -2.52563e-03        00000 
 5.01858e-04 -3.27643e-03        00000 
 5.52904e-04 -4.12698e-03        00000 
 4.65843e-04 -4.91480e-03        00000 
 1.78734e-04 -5.37854e-03        00000 
-2.67988e-04 -5.26247e-03        00000 
-7.05456e-04 -4.47865e-03        00000 
-9.31069e-04 -3.19982e-03        00000 
-8.56029e-04 -1.79196e-03        00000 
-5.65645e-04 -6.28812e-04        00000 
-2.40876e-04  8.65352e-05        00000 
-2.07283e-05  3.76916e-04        00000 
 6.74210e-05  4.03463e-04        00000 
 7.17769e-05  3.31713e-04        00000 
 4.74355e-05  2.57484e-04        00000 
 2.36688e-05  2.09918e-04        00000 
 9.57888e-06  1.84118e-04        00000 
 1.91668e-05  1.64581e-04        00000 
 9.61443e-05  1.45609e-04        00000 
-1.37598e-04  2.26004e-04        00000 
-2.70796e-05  2.57705e-04        00000 
-1.04455e-05  2.91544e-04        00000 
-2.08779e-05  3.31191e-04        00000 
-3.55100e-05  3.90055e-04        00000 
-5.12960e-05  4.75324e-04        00000 
-6.94101e-05  5.91952e-04        00000 
-9.31757e-05  7.47205e-04        00000 
-1.26816e-04  9.53386e-04        00000 
-1.74232e-04  1.22825e-03        00000 
-2.36825e-04  1.59230e-03        00000 
-3.08745e-04  2.06040e-03        00000 
-3.69601e-04  2.62420e-03        00000 
-3.80264e-04  3.22737e-03        00000 
-2.93475e-04  3.74919e-03        00000 
-8.60669e-05  4.02306e-03        00000 
 2.04393e-04  3.90330e-03        00000 