<?xml version="1.0" encoding="utf-8"?>
<VTKFile byte_order="LittleEndian" type="UnstructuredGrid" version="0.1">
   <UnstructuredGrid>
      <Piece NumberOfCells="3364" NumberOfPoints="1741">
         <Points>
            <DataArray Name="Points" NumberOfComponents="3" format="ascii" type="Float32">
0.0000 1.0000 0.0000
0.0000 1.0345 0.0000
0.0000 1.0690 0.0000
0.0000 1.1034 0.0000
0.0000 1.1379 0.0000
0.0000 1.1724 0.0000
0.0000 1.2069 0.0000
0.0000 1.2414 0.0000
0.0000 1.2759 0.0000
0.0000 1.3103 0.0000
0.0000 1.3448 0.0000
0.0000 1.3793 0.0000
0.0000 1.4138 0.0000
0.0000 1.4483 0.0000
0.0000 1.4828 0.0000
0.0000 1.5172 0.0000
0.0000 1.5517 0.0000
0.0000 1.5862 0.0000
0.0000 1.6207 0.0000
0.0000 1.6552 0.0000
0.0000 1.6897 0.0000
0.0000 1.7241 0.0000
0.0000 1.7586 0.0000
0.0000 1.7931 0.0000
0.0000 1.8276 0.0000
0.0000 1.8621 0.0000
0.0000 1.8966 0.0000
0.0000 1.9310 0.0000
0.0000 1.9655 0.0000
0.0000 2.0000 0.0000
0.0690 1.0000 0.0000
0.0690 1.0345 0.0000
0.0690 1.0690 0.0000
0.0690 1.1034 0.0000
0.0690 1.1379 0.0000
0.0690 1.1724 0.0000
0.0690 1.2069 0.0000
0.0690 1.2414 0.0000
0.0690 1.2759 0.0000
0.0690 1.3103 0.0000
0.0690 1.3448 0.0000
0.0690 1.3793 0.0000
0.0690 1.4138 0.0000
0.0690 1.4483 0.0000
0.0690 1.4828 0.0000
0.0690 1.5172 0.0000
0.0690 1.5517 0.0000
0.0690 1.5862 0.0000
0.0690 1.6207 0.0000
0.0690 1.6552 0.0000
0.0690 1.6897 0.0000
0.0690 1.7241 0.0000
0.0690 1.7586 0.0000
0.0690 1.7931 0.0000
0.0690 1.8276 0.0000
0.0690 1.8621 0.0000
0.0690 1.8966 0.0000
0.0690 1.9310 0.0000
0.0690 1.9655 0.0000
0.0690 2.0000 0.0000
0.1379 1.0000 0.0000
0.1379 1.0345 0.0000
0.1379 1.0690 0.0000
0.1379 1.1034 0.0000
0.1379 1.1379 0.0000
0.1379 1.1724 0.0000
0.1379 1.2069 0.0000
0.1379 1.2414 0.0000
0.1379 1.2759 0.0000
0.1379 1.3103 0.0000
0.1379 1.3448 0.0000
0.1379 1.3793 0.0000
0.1379 1.4138 0.0000
0.1379 1.4483 0.0000
0.1379 1.4828 0.0000
0.1379 1.5172 0.0000
0.1379 1.5517 0.0000
0.1379 1.5862 0.0000
0.1379 1.6207 0.0000
0.1379 1.6552 0.0000
0.1379 1.6897 0.0000
0.1379 1.7241 0.0000
0.1379 1.7586 0.0000
0.1379 1.7931 0.0000
0.1379 1.8276 0.0000
0.1379 1.8621 0.0000
0.1379 1.8966 0.0000
0.1379 1.9310 0.0000
0.1379 1.9655 0.0000
0.1379 2.0000 0.0000
0.2069 1.0000 0.0000
0.2069 1.0345 0.0000
0.2069 1.0690 0.0000
0.2069 1.1034 0.0000
0.2069 1.1379 0.0000
0.2069 1.1724 0.0000
0.2069 1.2069 0.0000
0.2069 1.2414 0.0000
0.2069 1.2759 0.0000
0.2069 1.3103 0.0000
0.2069 1.3448 0.0000
0.2069 1.3793 0.0000
0.2069 1.4138 0.0000
0.2069 1.4483 0.0000
0.2069 1.4828 0.0000
0.2069 1.5172 0.0000
0.2069 1.5517 0.0000
0.2069 1.5862 0.0000
0.2069 1.6207 0.0000
0.2069 1.6552 0.0000
0.2069 1.6897 0.0000
0.2069 1.7241 0.0000
0.2069 1.7586 0.0000
0.2069 1.7931 0.0000
0.2069 1.8276 0.0000
0.2069 1.8621 0.0000
0.2069 1.8966 0.0000
0.2069 1.9310 0.0000
0.2069 1.9655 0.0000
0.2069 2.0000 0.0000
0.2759 1.0000 0.0000
0.2759 1.0345 0.0000
0.2759 1.0690 0.0000
0.2759 1.1034 0.0000
0.2759 1.1379 0.0000
0.2759 1.1724 0.0000
0.2759 1.2069 0.0000
0.2759 1.2414 0.0000
0.2759 1.2759 0.0000
0.2759 1.3103 0.0000
0.2759 1.3448 0.0000
0.2759 1.3793 0.0000
0.2759 1.4138 0.0000
0.2759 1.4483 0.0000
0.2759 1.4828 0.0000
0.2759 1.5172 0.0000
0.2759 1.5517 0.0000
0.2759 1.5862 0.0000
0.2759 1.6207 0.0000
0.2759 1.6552 0.0000
0.2759 1.6897 0.0000
0.2759 1.7241 0.0000
0.2759 1.7586 0.0000
0.2759 1.7931 0.0000
0.2759 1.8276 0.0000
0.2759 1.8621 0.0000
0.2759 1.8966 0.0000
0.2759 1.9310 0.0000
0.2759 1.9655 0.0000
0.2759 2.0000 0.0000
0.3448 1.0000 0.0000
0.3448 1.0345 0.0000
0.3448 1.0690 0.0000
0.3448 1.1034 0.0000
0.3448 1.1379 0.0000
0.3448 1.1724 0.0000
0.3448 1.2069 0.0000
0.3448 1.2414 0.0000
0.3448 1.2759 0.0000
0.3448 1.3103 0.0000
0.3448 1.3448 0.0000
0.3448 1.3793 0.0000
0.3448 1.4138 0.0000
0.3448 1.4483 0.0000
0.3448 1.4828 0.0000
0.3448 1.5172 0.0000
0.3448 1.5517 0.0000
0.3448 1.5862 0.0000
0.3448 1.6207 0.0000
0.3448 1.6552 0.0000
0.3448 1.6897 0.0000
0.3448 1.7241 0.0000
0.3448 1.7586 0.0000
0.3448 1.7931 0.0000
0.3448 1.8276 0.0000
0.3448 1.8621 0.0000
0.3448 1.8966 0.0000
0.3448 1.9310 0.0000
0.3448 1.9655 0.0000
0.3448 2.0000 0.0000
0.4138 1.0000 0.0000
0.4138 1.0345 0.0000
0.4138 1.0690 0.0000
0.4138 1.1034 0.0000
0.4138 1.1379 0.0000
0.4138 1.1724 0.0000
0.4138 1.2069 0.0000
0.4138 1.2414 0.0000
0.4138 1.2759 0.0000
0.4138 1.3103 0.0000
0.4138 1.3448 0.0000
0.4138 1.3793 0.0000
0.4138 1.4138 0.0000
0.4138 1.4483 0.0000
0.4138 1.4828 0.0000
0.4138 1.5172 0.0000
0.4138 1.5517 0.0000
0.4138 1.5862 0.0000
0.4138 1.6207 0.0000
0.4138 1.6552 0.0000
0.4138 1.6897 0.0000
0.4138 1.7241 0.0000
0.4138 1.7586 0.0000
0.4138 1.7931 0.0000
0.4138 1.8276 0.0000
0.4138 1.8621 0.0000
0.4138 1.8966 0.0000
0.4138 1.9310 0.0000
0.4138 1.9655 0.0000
0.4138 2.0000 0.0000
0.4828 1.0000 0.0000
0.4828 1.0345 0.0000
0.4828 1.0690 0.0000
0.4828 1.1034 0.0000
0.4828 1.1379 0.0000
0.4828 1.1724 0.0000
0.4828 1.2069 0.0000
0.4828 1.2414 0.0000
0.4828 1.2759 0.0000
0.4828 1.3103 0.0000
0.4828 1.3448 0.0000
0.4828 1.3793 0.0000
0.4828 1.4138 0.0000
0.4828 1.4483 0.0000
0.4828 1.4828 0.0000
0.4828 1.5172 0.0000
0.4828 1.5517 0.0000
0.4828 1.5862 0.0000
0.4828 1.6207 0.0000
0.4828 1.6552 0.0000
0.4828 1.6897 0.0000
0.4828 1.7241 0.0000
0.4828 1.7586 0.0000
0.4828 1.7931 0.0000
0.4828 1.8276 0.0000
0.4828 1.8621 0.0000
0.4828 1.8966 0.0000
0.4828 1.9310 0.0000
0.4828 1.9655 0.0000
0.4828 2.0000 0.0000
0.5517 1.0000 0.0000
0.5517 1.0345 0.0000
0.5517 1.0690 0.0000
0.5517 1.1034 0.0000
0.5517 1.1379 0.0000
0.5517 1.1724 0.0000
0.5517 1.2069 0.0000
0.5517 1.2414 0.0000
0.5517 1.2759 0.0000
0.5517 1.3103 0.0000
0.5517 1.3448 0.0000
0.5517 1.3793 0.0000
0.5517 1.4138 0.0000
0.5517 1.4483 0.0000
0.5517 1.4828 0.0000
0.5517 1.5172 0.0000
0.5517 1.5517 0.0000
0.5517 1.5862 0.0000
0.5517 1.6207 0.0000
0.5517 1.6552 0.0000
0.5517 1.6897 0.0000
0.5517 1.7241 0.0000
0.5517 1.7586 0.0000
0.5517 1.7931 0.0000
0.5517 1.8276 0.0000
0.5517 1.8621 0.0000
0.5517 1.8966 0.0000
0.5517 1.9310 0.0000
0.5517 1.9655 0.0000
0.5517 2.0000 0.0000
0.6207 1.0000 0.0000
0.6207 1.0345 0.0000
0.6207 1.0690 0.0000
0.6207 1.1034 0.0000
0.6207 1.1379 0.0000
0.6207 1.1724 0.0000
0.6207 1.2069 0.0000
0.6207 1.2414 0.0000
0.6207 1.2759 0.0000
0.6207 1.3103 0.0000
0.6207 1.3448 0.0000
0.6207 1.3793 0.0000
0.6207 1.4138 0.0000
0.6207 1.4483 0.0000
0.6207 1.4828 0.0000
0.6207 1.5172 0.0000
0.6207 1.5517 0.0000
0.6207 1.5862 0.0000
0.6207 1.6207 0.0000
0.6207 1.6552 0.0000
0.6207 1.6897 0.0000
0.6207 1.7241 0.0000
0.6207 1.7586 0.0000
0.6207 1.7931 0.0000
0.6207 1.8276 0.0000
0.6207 1.8621 0.0000
0.6207 1.8966 0.0000
0.6207 1.9310 0.0000
0.6207 1.9655 0.0000
0.6207 2.0000 0.0000
0.6897 1.0000 0.0000
0.6897 1.0345 0.0000
0.6897 1.0690 0.0000
0.6897 1.1034 0.0000
0.6897 1.1379 0.0000
0.6897 1.1724 0.0000
0.6897 1.2069 0.0000
0.6897 1.2414 0.0000
0.6897 1.2759 0.0000
0.6897 1.3103 0.0000
0.6897 1.3448 0.0000
0.6897 1.3793 0.0000
0.6897 1.4138 0.0000
0.6897 1.4483 0.0000
0.6897 1.4828 0.0000
0.6897 1.5172 0.0000
0.6897 1.5517 0.0000
0.6897 1.5862 0.0000
0.6897 1.6207 0.0000
0.6897 1.6552 0.0000
0.6897 1.6897 0.0000
0.6897 1.7241 0.0000
0.6897 1.7586 0.0000
0.6897 1.7931 0.0000
0.6897 1.8276 0.0000
0.6897 1.8621 0.0000
0.6897 1.8966 0.0000
0.6897 1.9310 0.0000
0.6897 1.9655 0.0000
0.6897 2.0000 0.0000
0.7586 1.0000 0.0000
0.7586 1.0345 0.0000
0.7586 1.0690 0.0000
0.7586 1.1034 0.0000
0.7586 1.1379 0.0000
0.7586 1.1724 0.0000
0.7586 1.2069 0.0000
0.7586 1.2414 0.0000
0.7586 1.2759 0.0000
0.7586 1.3103 0.0000
0.7586 1.3448 0.0000
0.7586 1.3793 0.0000
0.7586 1.4138 0.0000
0.7586 1.4483 0.0000
0.7586 1.4828 0.0000
0.7586 1.5172 0.0000
0.7586 1.5517 0.0000
0.7586 1.5862 0.0000
0.7586 1.6207 0.0000
0.7586 1.6552 0.0000
0.7586 1.6897 0.0000
0.7586 1.7241 0.0000
0.7586 1.7586 0.0000
0.7586 1.7931 0.0000
0.7586 1.8276 0.0000
0.7586 1.8621 0.0000
0.7586 1.8966 0.0000
0.7586 1.9310 0.0000
0.7586 1.9655 0.0000
0.7586 2.0000 0.0000
0.8276 1.0000 0.0000
0.8276 1.0345 0.0000
0.8276 1.0690 0.0000
0.8276 1.1034 0.0000
0.8276 1.1379 0.0000
0.8276 1.1724 0.0000
0.8276 1.2069 0.0000
0.8276 1.2414 0.0000
0.8276 1.2759 0.0000
0.8276 1.3103 0.0000
0.8276 1.3448 0.0000
0.8276 1.3793 0.0000
0.8276 1.4138 0.0000
0.8276 1.4483 0.0000
0.8276 1.4828 0.0000
0.8276 1.5172 0.0000
0.8276 1.5517 0.0000
0.8276 1.5862 0.0000
0.8276 1.6207 0.0000
0.8276 1.6552 0.0000
0.8276 1.6897 0.0000
0.8276 1.7241 0.0000
0.8276 1.7586 0.0000
0.8276 1.7931 0.0000
0.8276 1.8276 0.0000
0.8276 1.8621 0.0000
0.8276 1.8966 0.0000
0.8276 1.9310 0.0000
0.8276 1.9655 0.0000
0.8276 2.0000 0.0000
0.8966 1.0000 0.0000
0.8966 1.0345 0.0000
0.8966 1.0690 0.0000
0.8966 1.1034 0.0000
0.8966 1.1379 0.0000
0.8966 1.1724 0.0000
0.8966 1.2069 0.0000
0.8966 1.2414 0.0000
0.8966 1.2759 0.0000
0.8966 1.3103 0.0000
0.8966 1.3448 0.0000
0.8966 1.3793 0.0000
0.8966 1.4138 0.0000
0.8966 1.4483 0.0000
0.8966 1.4828 0.0000
0.8966 1.5172 0.0000
0.8966 1.5517 0.0000
0.8966 1.5862 0.0000
0.8966 1.6207 0.0000
0.8966 1.6552 0.0000
0.8966 1.6897 0.0000
0.8966 1.7241 0.0000
0.8966 1.7586 0.0000
0.8966 1.7931 0.0000
0.8966 1.8276 0.0000
0.8966 1.8621 0.0000
0.8966 1.8966 0.0000
0.8966 1.9310 0.0000
0.8966 1.9655 0.0000
0.8966 2.0000 0.0000
0.9655 1.0000 0.0000
0.9655 1.0345 0.0000
0.9655 1.0690 0.0000
0.9655 1.1034 0.0000
0.9655 1.1379 0.0000
0.9655 1.1724 0.0000
0.9655 1.2069 0.0000
0.9655 1.2414 0.0000
0.9655 1.2759 0.0000
0.9655 1.3103 0.0000
0.9655 1.3448 0.0000
0.9655 1.3793 0.0000
0.9655 1.4138 0.0000
0.9655 1.4483 0.0000
0.9655 1.4828 0.0000
0.9655 1.5172 0.0000
0.9655 1.5517 0.0000
0.9655 1.5862 0.0000
0.9655 1.6207 0.0000
0.9655 1.6552 0.0000
0.9655 1.6897 0.0000
0.9655 1.7241 0.0000
0.9655 1.7586 0.0000
0.9655 1.7931 0.0000
0.9655 1.8276 0.0000
0.9655 1.8621 0.0000
0.9655 1.8966 0.0000
0.9655 1.9310 0.0000
0.9655 1.9655 0.0000
0.9655 2.0000 0.0000
1.0345 1.0000 0.0000
1.0345 1.0345 0.0000
1.0345 1.0690 0.0000
1.0345 1.1034 0.0000
1.0345 1.1379 0.0000
1.0345 1.1724 0.0000
1.0345 1.2069 0.0000
1.0345 1.2414 0.0000
1.0345 1.2759 0.0000
1.0345 1.3103 0.0000
1.0345 1.3448 0.0000
[...]
         <PointData>
            <DataArray Name="fValues" NumberOfComponents="3" format="ascii" type="Float64">
-1.57111e-20  1.14589e-19        00000 
-5.74941e-20  2.29976e-20        00000 
 3.97982e-20        00000        00000 
-4.07171e-20  3.42881e-20        00000 
 1.08024e-19 -1.70564e-20        00000 
-2.84129e-19 -2.36902e-19        00000 
 1.30765e-19 -1.13709e-20        00000 
-9.42923e-20  1.82155e-20        00000 
 1.59193e-19 -2.27418e-20        00000 
-1.01040e-19  1.32876e-19        00000 
 1.13709e-20 -1.08024e-19        00000 
 5.46466e-20  1.44296e-19        00000 
 1.13709e-20 -8.52818e-20        00000 
-9.43286e-20  3.63775e-20        00000 
-1.70564e-20 -2.27418e-20        00000 
 8.21486e-21  1.35724e-20        00000 
 2.84273e-21 -6.82254e-20        00000 
 1.83986e-20 -1.10604e-20        00000 
-2.27418e-20  4.54836e-20        00000 
 8.52738e-21 -1.32152e-20        00000 
-6.39613e-21  2.55845e-20        00000 
-4.29572e-21 -9.41287e-21        00000 
-5.33011e-21        00000        00000 
 2.54482e-21 -1.19651e-20        00000 
-1.59903e-21  9.94954e-21        00000 
-2.57257e-21 -3.96544e-21        00000 
 3.55341e-22 -1.42136e-20        00000 
-6.70939e-23  1.90547e-20        00000 
-2.23993e-23  2.77751e-21        00000 
 5.59982e-24  6.82677e-21        00000 
-6.23532e-04 -9.92020e-04        00000 
-3.52344e-04 -9.11477e-04        00000 
-3.33802e-04 -8.67225e-04        00000 
-4.14495e-04 -8.02023e-04        00000 
-5.35078e-04 -6.88350e-04        00000 
-6.55669e-04 -5.23094e-04        00000 
-7.49313e-04 -3.18765e-04        00000 
-8.00134e-04 -9.65436e-05        00000 
-8.03659e-04  1.19746e-04        00000 
-7.63932e-04  3.09989e-04        00000 
-6.90829e-04  4.59390e-04        00000 
-5.97148e-04  5.61327e-04        00000 
-4.95274e-04  6.15570e-04        00000 
-3.95896e-04  6.27630e-04        00000 
-3.06377e-04  6.06201e-04        00000 
-2.30840e-04  5.61209e-04        00000 
-1.70531e-04  5.02151e-04        00000 
-1.24607e-04  4.37006e-04        00000 
-9.10464e-05  3.71805e-04        00000 
-6.73850e-05  3.10680e-04        00000 
-5.11760e-05  2.56153e-04        00000 
-4.02189e-05  2.09505e-04        00000 
-3.26362e-05  1.71106e-04        00000 
-2.68724e-05  1.40682e-04        00000 
-2.16761e-05  1.17493e-04        00000 
-1.61200e-05  1.00454e-04        00000 
-9.74403e-06  8.82331e-05        00000 
-3.01456e-06  7.94168e-05        00000 
 1.21800e-06  7.29549e-05        00000 
-9.88850e-06  6.90423e-05        00000 
-6.54731e-04 -1.65329e-03        00000 
-5.19142e-04 -1.67635e-03        00000 
-6.43194e-04 -1.61931e-03        00000 
-9.46740e-04 -1.46019e-03        00000 
-1.31181e-03 -1.19025e-03        00000 
-1.64181e-03 -8.25293e-04        00000 
-1.86836e-03 -4.05004e-04        00000 
-1.96119e-03  2.14406e-05        00000 
-1.91853e-03  4.10301e-04        00000 
-1.76307e-03  7.24985e-04        00000 
-1.53092e-03  9.48801e-04        00000 
-1.26017e-03  1.07646e-03        00000 
-9.86992e-04  1.11806e-03        00000 
-7.36977e-04  1.09043e-03        00000 
-5.25881e-04  1.01393e-03        00000 
-3.59439e-04  9.08165e-04        00000 
-2.35845e-04  7.89233e-04        00000 
-1.49133e-04  6.68890e-04        00000 
-9.18403e-05  5.54946e-04        00000 
-5.66207e-05  4.52080e-04        00000 
-3.70104e-05  3.62693e-04        00000 
-2.76593e-05  2.87627e-04        00000 
-2.42701e-05  2.26707e-04        00000 
-2.34178e-05  1.79116e-04        00000 
-2.23634e-05  1.43626e-04        00000 
-1.89562e-05  1.18708e-04        00000 
-1.17107e-05  1.02561e-04        00000 
-1.97686e-07  9.30187e-05        00000 
 1.40823e-05  8.71150e-05        00000 
 2.93664e-05  7.90626e-05        00000 
-1.20908e-04 -2.10027e-03        00000 
-2.49617e-04 -2.25540e-03        00000 
-8.28033e-04 -2.22893e-03        00000 
-1.64647e-03 -1.96357e-03        00000 
-2.47736e-03 -1.46520e-03        00000 
-3.12895e-03 -8.16358e-04        00000 
-3.50308e-03 -1.14705e-04        00000 
-3.56181e-03  5.45934e-04        00000 
-3.34538e-03  1.07948e-03        00000 
-2.92749e-03  1.45404e-03        00000 
-2.39518e-03  1.64756e-03        00000 
-1.84163e-03  1.68680e-03        00000 
-1.32896e-03  1.60505e-03        00000 
-9.00304e-04  1.44627e-03        00000 
-5.70215e-04  1.25077e-03        00000 
-3.32641e-04  1.04746e-03        00000 
-1.72174e-04  8.53959e-04        00000 
-7.13350e-05  6.79540e-04        00000 
-1.40985e-05  5.28022e-04        00000 
 1.28267e-05  4.00012e-04        00000 
 1.98507e-05  2.94395e-04        00000 
 1.48727e-05  2.09277e-04        00000 
 3.84373e-06  1.42538e-04        00000 
-8.65239e-06  9.20970e-05        00000 
-1.88955e-05  5.59873e-05        00000 
-2.36481e-05  3.22702e-05        00000 
-1.99456e-05  1.87979e-05        00000 
-4.97010e-06  1.28354e-05        00000 
 2.43410e-05  1.04373e-05        00000 
 7.13962e-05  6.24985e-06        00000 
 1.50208e-03 -2.19627e-03        00000 
 7.57655e-04 -2.60638e-03        00000 
-8.66144e-04 -2.62088e-03        00000 
-2.74749e-03 -2.10652e-03        00000 
-4.38607e-03 -1.23191e-03        00000 
-5.50350e-03 -1.42061e-04        00000 
-5.92390e-03  9.40577e-04        00000 
-5.73553e-03  1.81737e-03        00000 
-5.04975e-03  2.42913e-03        00000 
-4.06507e-03  2.66832e-03        00000 
-3.01997e-03  2.62915e-03        00000 
-2.04423e-03  2.36068e-03        00000 
-1.26383e-03  1.97691e-03        00000 
-7.03125e-04  1.57354e-03        00000 
-3.29663e-04  1.20324e-03        00000 
-9.77096e-05  8.86971e-04        00000 
 3.39991e-05  6.28247e-04        00000 
 9.78844e-05  4.22362e-04        00000 
 1.17842e-04  2.61549e-04        00000 
 1.10793e-04  1.37589e-04        00000 
 8.83673e-05  4.30493e-05        00000 
 5.84071e-05 -2.82084e-05        00000 
 2.62627e-05 -8.09151e-05        00000 
-4.11979e-06 -1.18506e-04        00000 
-2.93154e-05 -1.43395e-04        00000 
-4.57502e-05 -1.57368e-04        00000 
-4.91320e-05 -1.62042e-04        00000 
-3.41331e-05 -1.59514e-04        00000 
 5.79972e-06 -1.52778e-04        00000 
 7.85904e-05 -1.46337e-04        00000 
 5.64921e-03 -1.08448e-03        00000 
 2.96889e-03 -2.05559e-03        00000 
-8.97080e-04 -1.98037e-03        00000 
-4.79295e-03 -1.22277e-03        00000 
-7.78922e-03  2.93550e-04        00000 
-9.29771e-03  1.90894e-03        00000 
-9.57621e-03  3.34655e-03        00000 
-8.51035e-03  4.42859e-03        00000 
-6.67799e-03  4.65026e-03        00000 
-4.67088e-03  4.41980e-03        00000 
-2.71589e-03  3.62178e-03        00000 
-1.32459e-03  2.66222e-03        00000 
-4.80055e-04  1.80400e-03        00000 
-1.36705e-05  1.12591e-03        00000 
 2.17610e-04  6.22999e-04        00000 
 3.09077e-04  2.64645e-04        00000 
 3.20622e-04  1.70778e-05        00000 
 2.89251e-04 -1.49295e-04        00000 
 2.37427e-04 -2.58187e-04        00000 
 1.78316e-04 -3.27666e-04        00000 
 1.19152e-04 -3.70979e-04        00000 
 6.34790e-05 -3.97429e-04        00000 
 1.27788e-05 -4.13129e-04        00000 
-3.22080e-05 -4.21611e-04        00000 
-7.02722e-05 -4.24383e-04        00000 
-9.87266e-05 -4.21613e-04        00000 
-1.12896e-04 -4.12967e-04        00000 
-1.05286e-04 -3.98054e-04        00000 
-6.57260e-05 -3.77850e-04        00000 
 1.82077e-05 -3.54826e-04        00000 
 1.47231e-02  4.87439e-03        00000 
 7.54852e-03  2.71989e-03        00000 
-1.28885e-03  1.66229e-03        00000 
-8.26973e-03  2.82423e-03        00000 
-1.32232e-02  3.85347e-03        00000 
-1.60637e-02  6.18842e-03        00000 
-1.46307e-02  8.25403e-03        00000 
-1.15213e-02  8.30414e-03        00000 
-7.39843e-03  8.09302e-03        00000 
-2.69006e-03  5.64596e-03        00000 
-2.19458e-04  3.17072e-03        00000 
 7.35508e-04  1.40940e-03        00000 
 9.97856e-04  2.94719e-04        00000 
 9.73353e-04 -3.69560e-04        00000 
 8.37781e-04 -7.41054e-04        00000 
 6.69076e-04 -9.27590e-04        00000 
 5.02858e-04 -1.00055e-03        00000 
 3.54719e-04 -1.00673e-03        00000 
 2.30097e-04 -9.76554e-04        00000 
 1.29089e-04 -9.29552e-04        00000 
 4.89613e-05 -8.78043e-04        00000 
-1.44887e-05 -8.29482e-04        00000 
-6.60768e-05 -7.87900e-04        00000 
-1.10462e-04 -7.54661e-04        00000 
-1.51036e-04 -7.28712e-04        00000 
-1.88067e-04 -7.06700e-04        00000 
-2.16742e-04 -6.83962e-04        00000 
-2.28481e-04 -6.56924e-04        00000 
-2.08531e-04 -6.21449e-04        00000 
-1.36943e-04 -5.77775e-04        00000 
 2.69718e-02  2.38239e-02        00000 
 1.56869e-02  2.10019e-02        00000 
 5.49138e-03  1.52680e-02        00000 
-1.30090e-02  7.19840e-03        00000 
-2.45844e-02  1.15199e-02        00000 
-2.52592e-02  1.29871e-02        00000 
-2.46857e-02  1.37515e-02        00000 
-1.42169e-02  1.71764e-02        00000 
 1.26210e-03  7.77082e-03        00000 
 4.68242e-03  1.18819e-03        00000 
 4.11864e-03 -1.73948e-03        00000 
 3.05832e-03 -2.81801e-03        00000 
 2.16929e-03 -3.08628e-03        00000 
 1.48959e-03 -3.00255e-03        00000 
 9.77892e-04 -2.77161e-03        00000 
 5.96862e-04 -2.49108e-03        00000 
 3.17638e-04 -2.20864e-03        00000 
 1.17623e-04 -1.94687e-03        00000 
-2.12126e-05 -1.71536e-03        00000 
-1.13532e-04 -1.51699e-03        00000 
-1.71610e-04 -1.35145e-03        00000 
-2.06162e-04 -1.21702e-03        00000 
-2.27066e-04 -1.11149e-03        00000 
-2.43929e-04 -1.03243e-03        00000 
-2.66239e-04 -9.76584e-04        00000 
-3.02109e-04 -9.38363e-04        00000 
-3.52576e-04 -9.07165e-04        00000 
-4.01267e-04 -8.68677e-04        00000 
-4.30467e-04 -8.20604e-04        00000 
-4.12692e-04 -7.52969e-04        00000 
 2.45348e-02  5.68104e-02        00000 
 2.20648e-02  5.82166e-02        00000 
 2.59872e-02  5.28766e-02        00000 
 2.21971e-02  3.60499e-02        00000 
-4.54457e-02 -8.45977e-03        00000 
-8.02497e-02  2.08670e-02        00000 
-3.78973e-02  4.79447e-02        00000 
 2.68757e-02 -2.11422e-03        00000 
 1.94906e-02 -1.56405e-02        00000 
 9.53283e-03 -1.44020e-02        00000 
 4.79752e-03 -1.13274e-02        00000 
 2.57429e-03 -8.82385e-03        00000 
 1.35716e-03 -6.95813e-03        00000 
 6.10030e-04 -5.55798e-03        00000 
 1.30992e-04 -4.49479e-03        00000 
-1.76608e-04 -3.68075e-03        00000 
-3.68266e-04 -3.05322e-03        00000 
-4.79146e-04 -2.56622e-03        00000 
-5.32946e-04 -2.18560e-03        00000 
-5.46520e-04 -1.88585e-03        00000 
-5.32593e-04 -1.64799e-03        00000 
-5.01574e-04 -1.45805e-03        00000 
-4.62992e-04 -1.30615e-03        00000 
-4.26889e-04 -1.18588e-03        00000 
-4.05510e-04 -1.09402e-03        00000 
-4.15706e-04 -1.02971e-03        00000 
-4.81121e-04 -9.90532e-04        00000 
-6.15400e-04 -9.55881e-04        00000 
-7.44612e-04 -8.71050e-04        00000 
-8.26009e-04 -7.69641e-04        00000 
-6.89681e-03  5.37645e-02        00000 
 1.08207e-02  6.55743e-02        00000 
 1.70000e-02  9.51792e-02        00000 
 2.54417e-02  1.48020e-01        00000 
 6.91898e-02  2.21128e-01        00000 
-2.03911e-01  1.26208e-02        00000 
 9.11833e-02 -1.91484e-01        00000 
 2.84080e-02 -9.26579e-02        00000 
 4.15008e-03 -3.76641e-02        00000 
-1.35099e-04 -1.99740e-02        00000 
-9.03108e-04 -1.32185e-02        00000 
-1.16458e-03 -9.52146e-03        00000 
-1.30437e-03 -7.10318e-03        00000 
-1.36620e-03 -5.44768e-03        00000 
-1.37415e-03 -4.29620e-03        00000 
-1.34517e-03 -3.48409e-03        00000 
-1.29012e-03 -2.90217e-03        00000 
-1.21623e-03 -2.47726e-03        00000 
-1.12890e-03 -2.15956e-03        00000 
-1.03263e-03 -1.91465e-03        00000 
-9.31690e-04 -1.71810e-03        00000 
-8.30578e-04 -1.55198e-03        00000 
-7.34690e-04 -1.40245e-03        00000 
-6.51262e-04 -1.25819e-03        00000 
-5.90785e-04 -1.10974e-03        00000 
-5.69563e-04 -9.50939e-04        00000 
-6.15804e-04 -7.87509e-04        00000 
-7.92101e-04 -6.64309e-04        00000 
-1.16290e-03 -6.54199e-04        00000 
-1.30637e-03 -5.65748e-04        00000 
 3.47392e-02 -4.25906e-02        00000 
 1.84938e-02 -7.19678e-02        00000 
-3.90458e-03 -8.45616e-02        00000 
-9.45664e-03 -7.22437e-02        00000 
-6.77077e-02  1.94604e-02        00000 
 1.35472e-01 -5.10181e-02        00000 
-6.66821e-02 -1.07261e-01        00000 
-1.20950e-02 -8.24896e-03        00000 
-2.15100e-03  7.78539e-03        00000 
-1.17074e-03  3.38152e-03        00000 
-1.30739e-03  8.81946e-04        00000 
-1.21985e-03  2.33822e-04        00000 
-1.06703e-03  1.07228e-04        00000 
-9.33459e-04  7.07555e-05        00000 
-8.30181e-04  4.57801e-05        00000 
-7.47857e-04  2.46045e-05        00000 
-6.77667e-04  7.32009e-06        00000 
-6.14172e-04 -6.25442e-06        00000 
-5.54518e-04 -1.65738e-05        00000 
-4.97482e-04 -2.40450e-05        00000 
-4.42915e-04 -2.89057e-05        00000 
-3.91537e-04 -3.11531e-05        00000 
-3.45012e-04 -3.04143e-05        00000 
-3.06371e-04 -2.56006e-05        00000 
-2.80900e-04 -1.38778e-05        00000 
-2.77658e-04  1.18298e-05        00000 
-3.09113e-04  6.37268e-05        00000 
-3.87678e-04  1.28384e-04        00000 
-4.64171e-04  4.87115e-05        00000 
-8.05016e-04 -3.69509e-04        00000 
 4.54927e-02 -1.71223e-02        00000 
 2.54705e-02  9.69738e-06        00000 
 7.58487e-03 -1.35345e-02        00000 
 1.37377e-02 -3.36593e-02        00000 
-3.24122e-02 -2.40221e-02        00000 
-3.93214e-02 -2.59950e-03        00000 
-2.61113e-02  1.30744e-02        00000 
 1.62261e-02  1.85074e-02        00000 
 4.22637e-03  3.67484e-03        00000 
 7.60990e-04  6.93401e-05        00000 
 2.24648e-04  3.06500e-04        00000 
 2.60437e-04  5.77106e-04        00000 
 2.67376e-04  5.63320e-04        00000 
 2.38409e-04  4.67097e-04        00000 
 2.04391e-04  3.79769e-04        00000 
 1.75936e-04  3.16142e-04        00000 
 1.53420e-04  2.71429e-04        00000 
 1.35170e-04  2.39492e-04        00000 
 1.19765e-04  2.15827e-04        00000 
 1.06339e-04  1.97309e-04        00000 
 9.44785e-05  1.81683e-04        00000 
 8.41410e-05  1.67160e-04        00000 
 7.56481e-05  1.52080e-04        00000 
 6.97622e-05  1.34486e-04        00000 
 6.76766e-05  1.11583e-04        00000 
 6.98441e-05  8.02551e-05        00000 
 7.18443e-05  4.40326e-05        00000 
 5.25646e-05  3.22344e-05        00000 
 8.30289e-05  6.79566e-05        00000 
 2.40715e-04  1.97460e-04        00000 
-1.84216e-02  1.73876e-02        00000 
-8.54075e-03  1.45413e-02        00000 
-6.02241e-03  2.26287e-02        00000 
-8.98189e-04  2.81483e-02        00000 
 1.01033e-02  2.13473e-02        00000 
 1.78007e-02  8.46665e-03        00000 
 7.78372e-03 -3.05135e-03        00000 
-1.92511e-03 -8.53228e-03        00000 
-3.89644e-03 -5.51117e-03        00000 
-1.19779e-03 -1.74602e-03        00000 
-2.64288e-04 -6.68063e-04        00000 
-8.95768e-05 -5.42741e-04        00000 
-8.39367e-05 -5.06225e-04        00000 
-8.04113e-05 -4.34619e-04        00000 
-6.83741e-05 -3.58951e-04        00000 
-5.54784e-05 -2.98029e-04        00000 
-4.50495e-05 -2.53230e-04        00000 
-3.72759e-05 -2.20707e-04        00000 
-3.15442e-05 -1.96547e-04        00000 
-2.72891e-05 -1.77769e-04        00000 
-2.41607e-05 -1.62170e-04        00000 
-2.20217e-05 -1.48025e-04        00000 
-2.09241e-05 -1.33795e-04        00000 
-2.10306e-05 -1.17904e-04        00000 
-2.21664e-05 -9.89446e-05        00000 
-2.23933e-05 -7.75842e-05        00000 
-1.52297e-05 -6.13494e-05        00000 
 8.10545e-07 -6.25164e-05        00000 
-8.74563e-06 -7.94049e-05        00000 
-9.88620e-05 -1.14171e-04        00000 
 1.08524e-02 -1.41063e-02        00000 
 4.01233e-03 -1.51544e-02        00000 
 2.29914e-03 -1.88389e-02        00000 
-4.31449e-04 -2.00456e-02        00000 
-5.41179e-03 -1.55483e-02        00000 
-7.60154e-03 -7.70289e-03        00000 
-4.59904e-03 -1.95360e-04        00000 
-1.20810e-04  4.04093e-03        00000 
 1.55707e-03  3.85604e-03        00000 
 1.11935e-03  2.07308e-03        00000 
 3.98146e-04  9.15718e-04        00000 
 1.22404e-04  5.30863e-04        00000 
 5.62305e-05  4.19291e-04        00000 
 4.32705e-05  3.55102e-04        00000 
 3.57601e-05  2.97054e-04        00000 
 2.80609e-05  2.47942e-04        00000 
 2.14273e-05  2.10104e-04        00000 
 1.64816e-05  1.82002e-04        00000 
 1.30660e-05  1.60978e-04        00000 
 1.08363e-05  1.44655e-04        00000 
 9.52188e-06  1.31168e-04        00000 
 8.97836e-06  1.19043e-04        00000 
 9.15060e-06  1.07027e-04        00000 
 9.90799e-06  9.40871e-05        00000 
 1.05808e-05  7.99361e-05        00000 
 9.14114e-06  6.65055e-05        00000 
 2.86329e-06  5.89085e-05        00000 
-6.40544e-06  6.13328e-05        00000 
 2.41970e-07  6.80339e-05        00000 
 5.45940e-05  7.47547e-05        00000 
-8.01239e-03  1.13527e-02        00000 
-2.19772e-03  1.27746e-02        00000 
-7.47635e-04  1.44944e-02        00000 
 8.72583e-04  1.43097e-02        00000 
 3.09497e-03  1.12425e-02        00000 
 4.04117e-03  6.28473e-03        00000 
 2.82787e-03  1.39702e-03        00000 
 7.56997e-04 -1.68023e-03        00000 
-5.17426e-04 -2.36159e-03        00000 
-6.75118e-04 -1.70116e-03        00000 
-3.90546e-04 -9.44780e-04        00000 
-1.60107e-04 -5.32642e-04        00000 
-6.59825e-05 -3.66771e-04        00000 
-3.66551e-05 -2.91880e-04        00000 
-2.62763e-05 -2.42112e-04        00000 
-1.98989e-05 -2.02620e-04        00000 
-1.48837e-05 -1.71637e-04        00000 
-1.11050e-05 -1.48095e-04        00000 
-8.49095e-06 -1.30270e-04        00000 
-6.83884e-06 -1.16391e-04        00000 
-5.94829e-06 -1.04956e-04        00000 
-5.67724e-06 -9.47605e-05        00000 
-5.89970e-06 -8.48512e-05        00000 
-6.34591e-06 -7.46447e-05        00000 
-6.31347e-06 -6.43859e-05        00000 
-4.56920e-06 -5.57797e-05        00000 
-2.84954e-07 -5.16147e-05        00000 
 4.39461e-06 -5.27819e-05        00000 
-1.05529e-06 -5.44061e-05        00000 
-3.65311e-05 -5.35141e-05        00000 
 6.26275e-03 -9.03730e-03        00000 
 1.35617e-03 -1.01680e-02        00000 
 8.68631e-05 -1.10011e-02        00000 
-8.57102e-04 -1.04386e-02        00000 
-1.95045e-03 -8.26521e-03        00000 
-2.40385e-03 -5.01878e-03        00000 
-1.86042e-03 -1.77711e-03        00000 
-7.96076e-04  4.55800e-04        00000 
 4.12350e-05  1.31429e-03        00000 
 3.40524e-04  1.21459e-03        00000 
 2.87236e-04  8.15361e-04        00000 
 1.58225e-04  4.99149e-04        00000 
 7.43596e-05  3.29150e-04        00000 
 3.76422e-05  2.46151e-04        00000 
 2.32167e-05  1.98699e-04        00000 
 1.63797e-05  1.65319e-04        00000 
 1.20221e-05  1.39838e-04        00000 
 8.91131e-06  1.20304e-04        00000 
 6.75381e-06  1.05339e-04        00000 
 5.37824e-06  9.36219e-05        00000 
 4.62861e-06  8.39842e-05        00000 
 4.36724e-06  7.54772e-05        00000 
 4.43311e-06  6.74091e-05        00000 
 4.53429e-06  5.94802e-05        00000 
 4.14503e-06  5.20496e-05        00000 
 2.64297e-06  4.62781e-05        00000 
-4.29192e-08  4.35115e-05        00000 
-2.34044e-06  4.35220e-05        00000 
 2.03081e-06  4.28900e-05        00000 
 2.67321e-05  4.01958e-05        00000 
-4.91687e-03  7.11606e-03        00000 
-8.91349e-04  7.93437e-03        00000 
 1.57157e-04  8.35367e-03        00000 
 7.27141e-04  7.75319e-03        00000 
 1.30061e-03  6.18214e-03        00000 
 1.53685e-03  3.98837e-03        00000 
 1.26491e-03  1.78676e-03        00000 
 6.81731e-04  1.60803e-04        00000 
 1.45217e-04 -6.44862e-04        00000 
-1.32498e-04 -7.93301e-04        00000 
-1.79666e-04 -6.32403e-04        00000 
-1.28144e-04 -4.30476e-04        00000 
-7.17942e-05 -2.90110e-04        00000 
-3.80801e-05 -2.10360e-04        00000 
-2.20190e-05 -1.64842e-04        00000 
-1.44320e-05 -1.35335e-04        00000 
-1.02315e-05 -1.13943e-04        00000 