<?xml version="1.0" encoding="utf-8"?>
<VTKFile byte_order="LittleEndian" type="UnstructuredGrid" version="0.1">
   <UnstructuredGrid>
      <Piece NumberOfCells="3364" NumberOfPoints="1741">
         <Points>
            <DataArray Name="Points" NumberOfComponents="3" format="ascii" type="Float32">
0.0000 1.0000 0.0000
0.0000 1.0345 0.0000
0.0000 1.0690 0.0000
0.0000 1.1034 0.0000
0.0000 1.1379 0.0000
0.0000 1.1724 0.0000
0.0000 1.2069 0.0000
0.0000 1.2414 0.0000
0.0000 1.2759 0.0000
0.0000 1.3103 0.0000
0.0000 1.3448 0.0000
0.0000 1.3793 0.0000
0.0000 1.4138 0.0000
0.0000 1.4483 0.0000
0.0000 1.4828 0.0000
0.0000 1.5172 0.0000
0.0000 1.5517 0.0000
0.0000 1.5862 0.0000
0.0000 1.6207 0.0000
0.0000 1.6552 0.0000
0.0000 1.6897 0.0000
0.0000 1.7241 0.0000
0.0000 1.7586 0.0000
0.0000 1.7931 0.0000
0.0000 1.8276 0.0000
0.0000 1.8621 0.0000
0.0000 1.8966 0.0000
0.0000 1.9310 0.0000
0.0000 1.9655 0.0000
0.0000 2.0000 0.0000
0.0690 1.0000 0.0000
0.0690 1.0345 0.0000
0.0690 1.0690 0.0000
0.0690 1.1034 0.0000
0.0690 1.1379 0.0000
0.0690 1.1724 0.0000
0.0690 1.2069 0.0000
0.0690 1.2414 0.0000
0.0690 1.2759 0.0000
0.0690 1.3103 0.0000
0.0690 1.3448 0.0000
0.0690 1.3793 0.0000
0.0690 1.4138 0.0000
0.0690 1.4483 0.0000
0.0690 1.4828 0.0000
0.0690 1.5172 0.0000
0.0690 1.5517 0.0000
0.0690 1.5862 0.0000
0.0690 1.6207 0.0000
0.0690 1.6552 0.0000
0.0690 1.6897 0.0000
0.0690 1.7241 0.0000
0.0690 1.7586 0.0000
0.0690 1.7931 0.0000
0.0690 1.8276 0.0000
0.0690 1.8621 0.0000
0.0690 1.8966 0.0000
0.0690 1.9310 0.0000
0.0690 1.9655 0.0000
0.0690 2.0000 0.0000
0.1379 1.0000 0.0000
0.1379 1.0345 0.0000
0.1379 1.0690 0.0000
0.1379 1.1034 0.0000
0.1379 1.1379 0.0000
0.1379 1.1724 0.0000
0.1379 1.2069 0.0000
0.1379 1.2414 0.0000
0.1379 1.2759 0.0000
0.1379 1.3103 0.0000
0.1379 1.3448 0.0000
0.1379 1.3793 0.0000
0.1379 1.4138 0.0000
0.1379 1.4483 0.0000
0.1379 1.4828 0.0000
0.1379 1.5172 0.0000
0.1379 1.5517 0.0000
0.1379 1.5862 0.0000
0.1379 1.6207 0.0000
0.1379 1.6552 0.0000
0.1379 1.6897 0.0000
0.1379 1.7241 0.0000
0.1379 1.7586 0.0000
0.1379 1.7931 0.0000
0.1379 1.8276 0.0000
0.1379 1.8621 0.0000
0.1379 1.8966 0.0000
0.1379 1.9310 0.0000
0.1379 1.9655 0.0000
0.1379 2.0000 0.0000
0.2069 1.0000 0.0000
0.2069 1.0345 0.0000
0.2069 1.0690 0.0000
0.2069 1.1034 0.0000
0.2069 1.1379 0.0000
0.2069 1.1724 0.0000
0.2069 1.2069 0.0000
0.2069 1.2414 0.0000
0.2069 1.2759 0.0000
0.2069 1.3103 0.0000
0.2069 1.3448 0.0000
0.2069 1.3793 0.0000
0.2069 1.4138 0.0000
0.2069 1.4483 0.0000
0.2069 1.4828 0.0000
0.2069 1.5172 0.0000
0.2069 1.5517 0.0000
0.2069 1.5862 0.0000
0.2069 1.6207 0.0000
0.2069 1.6552 0.0000
0.2069 1.6897 0.0000
0.2069 1.7241 0.0000
0.2069 1.7586 0.0000
0.2069 1.7931 0.0000
0.2069 1.8276 0.0000
0.2069 1.8621 0.0000
0.2069 1.8966 0.0000
0.2069 1.9310 0.0000
0.2069 1.9655 0.0000
0.2069 2.0000 0.0000
0.2759 1.0000 0.0000
0.2759 1.0345 0.0000
0.2759 1.0690 0.0000
0.2759 1.1034 0.0000
0.2759 1.1379 0.0000
0.2759 1.1724 0.0000
0.2759 1.2069 0.0000
0.2759 1.2414 0.0000
0.2759 1.2759 0.0000
0.2759 1.3103 0.0000
0.2759 1.3448 0.0000
0.2759 1.3793 0.0000
0.2759 1.4138 0.0000
0.2759 1.4483 0.0000
0.2759 1.4828 0.0000
0.2759 1.5172 0.0000
0.2759 1.5517 0.0000
0.2759 1.5862 0.0000
0.2759 1.6207 0.0000
0.2759 1.6552 0.0000
0.2759 1.6897 0.0000
0.2759 1.7241 0.0000
0.2759 1.7586 0.0000
0.2759 1.7931 0.0000
0.2759 1.8276 0.0000
0.2759 1.8621 0.0000
0.2759 1.8966 0.0000
0.2759 1.9310 0.0000
0.2759 1.9655 0.0000
0.2759 2.0000 0.0000
0.3448 1.0000 0.0000
0.3448 1.0345 0.0000
0.3448 1.0690 0.0000
0.3448 1.1034 0.0000
0.3448 1.1379 0.0000
0.3448 1.1724 0.0000
0.3448 1.2069 0.0000
0.3448 1.2414 0.0000
0.3448 1.2759 0.0000
0.3448 1.3103 0.0000
0.3448 1.3448 0.0000
0.3448 1.3793 0.0000
0.3448 1.4138 0.0000
0.3448 1.4483 0.0000
0.3448 1.4828 0.0000
0.3448 1.5172 0.0000
0.3448 1.5517 0.0000
0.3448 1.5862 0.0000
0.3448 1.6207 0.0000
0.3448 1.6552 0.0000
0.3448 1.6897 0.0000
0.3448 1.7241 0.0000
0.3448 1.7586 0.0000
0.3448 1.7931 0.0000
0.3448 1.8276 0.0000
0.3448 1.8621 0.0000
0.3448 1.8966 0.0000
0.3448 1.9310 0.0000
0.3448 1.9655 0.0000
0.3448 2.0000 0.0000
0.4138 1.0000 0.0000
0.4138 1.0345 0.0000
0.4138 1.0690 0.0000
0.4138 1.1034 0.0000
0.4138 1.1379 0.0000
0.4138 1.1724 0.0000
0.4138 1.2069 0.0000
0.4138 1.2414 0.0000
0.4138 1.2759 0.0000
0.4138 1.3103 0.0000
0.4138 1.3448 0.0000
0.4138 1.3793 0.0000
0.4138 1.4138 0.0000
0.4138 1.4483 0.0000
0.4138 1.4828 0.0000
0.4138 1.5172 0.0000
0.4138 1.5517 0.0000
0.4138 1.5862 0.0000
0.4138 1.6207 0.0000
0.4138 1.6552 0.0000
0.4138 1.6897 0.0000
0.4138 1.7241 0.0000
0.4138 1.7586 0.0000
0.4138 1.7931 0.0000
0.4138 1.8276 0.0000
0.4138 1.8621 0.0000
0.4138 1.8966 0.0000
0.4138 1.9310 0.0000
0.4138 1.9655 0.0000
0.4138 2.0000 0.0000
0.4828 1.0000 0.0000
0.4828 1.0345 0.0000
0.4828 1.0690 0.0000
0.4828 1.1034 0.0000
0.4828 1.1379 0.0000
0.4828 1.1724 0.0000
0.4828 1.2069 0.0000
0.4828 1.2414 0.0000
0.4828 1.2759 0.0000
0.4828 1.3103 0.0000
0.4828 1.3448 0.0000
0.4828 1.3793 0.0000
0.4828 1.4138 0.0000
0.4828 1.4483 0.0000
0.4828 1.4828 0.0000
0.4828 1.5172 0.0000
0.4828 1.5517 0.0000
0.4828 1.5862 0.0000
0.4828 1.6207 0.0000
0.4828 1.6552 0.0000
0.4828 1.6897 0.0000
0.4828 1.7241 0.0000
0.4828 1.7586 0.0000
0.4828 1.7931 0.0000
0.4828 1.8276 0.0000
0.4828 1.8621 0.0000
0.4828 1.8966 0.0000
0.4828 1.9310 0.0000
0.4828 1.9655 0.0000
0.4828 2.0000 0.0000
0.5517 1.0000 0.0000
0.5517 1.0345 0.0000
0.5517 1.0690 0.0000
0.5517 1.1034 0.0000
0.5517 1.1379 0.0000
0.5517 1.1724 0.0000
0.5517 1.2069 0.0000
0.5517 1.2414 0.0000
0.5517 1.2759 0.0000
0.5517 1.3103 0.0000
0.5517 1.3448 0.0000
0.5517 1.3793 0.0000
0.5517 1.4138 0.0000
0.5517 1.4483 0.0000
0.5517 1.4828 0.0000
0.5517 1.5172 0.0000
0.5517 1.5517 0.0000
0.5517 1.5862 0.0000
0.5517 1.6207 0.0000
0.5517 1.6552 0.0000
0.5517 1.6897 0.0000
0.5517 1.7241 0.0000
0.5517 1.7586 0.0000
0.5517 1.7931 0.0000
0.5517 1.8276 0.0000
0.5517 1.8621 0.0000
0.5517 1.8966 0.0000
0.5517 1.9310 0.0000
0.5517 1.9655 0.0000
0.5517 2.0000 0.0000
0.6207 1.0000 0.0000
0.6207 1.0345 0.0000
0.6207 1.0690 0.0000
0.6207 1.1034 0.0000
0.6207 1.1379 0.0000
0.6207 1.1724 0.0000
0.6207 1.2069 0.0000
0.6207 1.2414 0.0000
0.6207 1.2759 0.0000
0.6207 1.3103 0.0000
0.6207 1.3448 0.0000
0.6207 1.3793 0.0000
0.6207 1.4138 0.0000
0.6207 1.4483 0.0000
0.6207 1.4828 0.0000
0.6207 1.5172 0.0000
0.6207 1.5517 0.0000
0.6207 1.5862 0.0000
0.6207 1.6207 0.0000
0.6207 1.6552 0.0000
0.6207 1.6897 0.0000
0.6207 1.7241 0.0000
0.6207 1.7586 0.0000
0.6207 1.7931 0.0000
0.6207 1.8276 0.0000
0.6207 1.8621 0.0000
0.6207 1.8966 0.0000
0.6207 1.9310 0.0000
0.6207 1.9655 0.0000
0.6207 2.0000 0.0000
0.6897 1.0000 0.0000
0.6897 1.0345 0.0000
0.6897 1.0690 0.0000
0.6897 1.1034 0.0000
0.6897 1.1379 0.0000
0.6897 1.1724 0.0000
0.6897 1.2069 0.0000
0.6897 1.2414 0.0000
0.6897 1.2759 0.0000
0.6897 1.3103 0.0000
0.6897 1.3448 0.0000
0.6897 1.3793 0.0000
0.6897 1.4138 0.0000
0.6897 1.4483 0.0000
0.6897 1.4828 0.0000
0.6897 1.5172 0.0000
0.6897 1.5517 0.0000
0.6897 1.5862 0.0000
0.6897 1.6207 0.0000
0.6897 1.6552 0.0000
0.6897 1.6897 0.0000
0.6897 1.7241 0.0000
0.6897 1.7586 0.0000
0.6897 1.7931 0.0000
0.6897 1.8276 0.0000
0.6897 1.8621 0.0000
0.6897 1.8966 0.0000
0.6897 1.9310 0.0000
0.6897 1.9655 0.0000
0.6897 2.0000 0.0000
0.7586 1.0000 0.0000
0.7586 1.0345 0.0000
0.7586 1.0690 0.0000
0.7586 1.1034 0.0000
0.7586 1.1379 0.0000
0.7586 1.1724 0.0000
0.7586 1.2069 0.0000
0.7586 1.2414 0.0000
0.7586 1.2759 0.0000
0.7586 1.3103 0.0000
0.7586 1.3448 0.0000
0.7586 1.3793 0.0000
0.7586 1.4138 0.0000
0.7586 1.4483 0.0000
0.7586 1.4828 0.0000
0.7586 1.5172 0.0000
0.7586 1.5517 0.0000
0.7586 1.5862 0.0000
0.7586 1.6207 0.0000
0.7586 1.6552 0.0000
0.7586 1.6897 0.0000
0.7586 1.7241 0.0000
0.7586 1.7586 0.0000
0.7586 1.7931 0.0000
0.7586 1.8276 0.0000
0.7586 1.8621 0.0000
0.7586 1.8966 0.0000
0.7586 1.9310 0.0000
0.7586 1.9655 0.0000
0.7586 2.0000 0.0000
0.8276 1.0000 0.0000
0.8276 1.0345 0.0000
0.8276 1.0690 0.0000
0.8276 1.1034 0.0000
0.8276 1.1379 0.0000
0.8276 1.1724 0.0000
0.8276 1.2069 0.0000
0.8276 1.2414 0.0000
0.8276 1.2759 0.0000
0.8276 1.3103 0.0000
0.8276 1.3448 0.0000
0.8276 1.3793 0.0000
0.8276 1.4138 0.0000
0.8276 1.4483 0.0000
0.8276 1.4828 0.0000
0.8276 1.5172 0.0000
0.8276 1.5517 0.0000
0.8276 1.5862 0.0000
0.8276 1.6207 0.0000
0.8276 1.6552 0.0000
0.8276 1.6897 0.0000
0.8276 1.7241 0.0000
0.8276 1.7586 0.0000
0.8276 1.7931 0.0000
0.8276 1.8276 0.0000
0.8276 1.8621 0.0000
0.8276 1.8966 0.0000
0.8276 1.9310 0.0000
0.8276 1.9655 0.0000
0.8276 2.0000 0.0000
0.8966 1.0000 0.0000
0.8966 1.0345 0.0000
0.8966 1.0690 0.0000
0.8966 1.1034 0.0000
0.8966 1.1379 0.0000
0.8966 1.1724 0.0000
0.8966 1.2069 0.0000
0.8966 1.2414 0.0000
0.8966 1.2759 0.0000
0.8966 1.3103 0.0000
0.8966 1.3448 0.0000
0.8966 1.3793 0.0000
0.8966 1.4138 0.0000
0.8966 1.4483 0.0000
0.8966 1.4828 0.0000
0.8966 1.5172 0.0000
0.8966 1.5517 0.0000
0.8966 1.5862 0.0000
0.8966 1.6207 0.0000
0.8966 1.6552 0.0000
0.8966 1.6897 0.0000
0.8966 1.7241 0.0000
0.8966 1.7586 0.0000
0.8966 1.7931 0.0000
0.8966 1.8276 0.0000
0.8966 1.8621 0.0000
0.8966 1.8966 0.0000
0.8966 1.9310 0.0000
0.8966 1.9655 0.0000
0.8966 2.0000 0.0000
0.9655 1.0000 0.0000
0.9655 1.0345 0.0000
0.9655 1.0690 0.0000
0.9655 1.1034 0.0000
0.9655 1.1379 0.0000
0.9655 1.1724 0.0000
0.9655 1.2069 0.0000
0.9655 1.2414 0.0000
0.9655 1.2759 0.0000
0.9655 1.3103 0.0000
0.9655 1.3448 0.0000
0.9655 1.3793 0.0000
0.9655 1.4138 0.0000
0.9655 1.4483 0.0000
0.9655 1.4828 0.0000
0.9655 1.5172 0.0000
0.9655 1.5517 0.0000
0.9655 1.5862 0.0000
0.9655 1.6207 0.0000
0.9655 1.6552 0.0000
0.9655 1.6897 0.0000
0.9655 1.7241 0.0000
0.9655 1.7586 0.0000
0.9655 1.7931 0.0000
0.9655 1.8276 0.0000
0.9655 1.8621 0.0000
0.9655 1.8966 0.0000
0.9655 1.9310 0.0000
0.9655 1.9655 0.0000
0.9655 2.0000 0.0000
1.0345 1.0000 0.0000
1.0345 1.0345 0.0000
1.0345 1.0690 0.0000
1.0345 1.1034 0.0000
1.0345 1.1379 0.0000
1.0345 1.1724 0.0000
1.0345 1.2069 0.0000
1.0345 1.2414 0.0000
1.0345 1.2759 0.0000
1.0345 1.3103 0.0000
1.0345 1.3448 0.0000
[...]
         <PointData>
            <DataArray Name="fValues" NumberOfComponents="3" format="ascii" type="Float64">
 9.02537e-20  2.50538e-20        00000 
       00000  2.01229e-20        00000 
 5.11691e-20 -1.13709e-20        00000 
-4.92891e-20 -2.42874e-20        00000 
-3.97982e-20  6.82254e-20        00000 
 2.20321e-19 -1.51687e-19        00000 
-1.19394e-19  1.25080e-19        00000 
 4.85748e-20 -6.46473e-20        00000 
 6.25400e-20 -9.09672e-20        00000 
 4.50313e-21  1.64107e-19        00000 
-1.13709e-20 -7.95963e-20        00000 
 1.35724e-20  5.71468e-20        00000 
-1.70564e-20 -7.95963e-20        00000 
 6.04791e-20  8.02463e-21        00000 
-2.84273e-21        00000        00000 
-1.17865e-20 -5.35751e-21        00000 
-4.12195e-20  1.13709e-20        00000 
 2.72096e-20  4.74817e-21        00000 
 2.84273e-21 -8.52818e-20        00000 
-1.91978e-20  3.57168e-22        00000 
 2.55845e-20 -5.68545e-20        00000 
-6.24843e-21  8.99000e-20        00000 
-4.26409e-21 -1.25080e-19        00000 
-7.58981e-21  2.75019e-20        00000 
 2.84273e-21  1.70564e-20        00000 
 4.96206e-21 -3.57422e-20        00000 
-5.68545e-21 -5.68545e-21        00000 
 9.57206e-21 -4.86654e-20        00000 
 2.32953e-21  1.79194e-20        00000 
-8.10353e-21 -3.45644e-20        00000 
 7.56602e-04  3.32928e-04        00000 
 7.30406e-04  1.37788e-04        00000 
 7.26906e-04 -3.08790e-05        00000 
 7.12046e-04 -1.75528e-04        00000 
 6.84992e-04 -2.98158e-04        00000 
 6.48121e-04 -3.99845e-04        00000 
 6.04204e-04 -4.81546e-04        00000 
 5.55818e-04 -5.44404e-04        00000 
 5.05204e-04 -5.89822e-04        00000 
 4.54234e-04 -6.19459e-04        00000 
 4.04406e-04 -6.35166e-04        00000 
 3.56872e-04 -6.38918e-04        00000 
 3.12464e-04 -6.32733e-04        00000 
 2.71728e-04 -6.18607e-04        00000 
 2.34959e-04 -5.98450e-04        00000 
 2.02244e-04 -5.74032e-04        00000 
 1.73494e-04 -5.46945e-04        00000 
 1.48490e-04 -5.18566e-04        00000 
 1.26918e-04 -4.90039e-04        00000 
 1.08414e-04 -4.62266e-04        00000 
 9.26093e-05 -4.35905e-04        00000 
 7.91815e-05 -4.11389e-04        00000 
 6.79231e-05 -3.88954e-04        00000 
 5.88370e-05 -3.68692e-04        00000 
 5.22979e-05 -3.50652e-04        00000 
 4.93534e-05 -3.35039e-04        00000 
 5.23634e-05 -3.22605e-04        00000 
 6.65763e-05 -3.15514e-04        00000 
 1.04957e-04 -3.19318e-04        00000 
 2.16501e-04 -3.46139e-04        00000 
 1.55255e-03  1.51710e-04        00000 
 1.62520e-03 -4.96645e-05        00000 
 1.62058e-03 -2.60673e-04        00000 
 1.57548e-03 -4.59160e-04        00000 
 1.50024e-03 -6.35961e-04        00000 
 1.40331e-03 -7.86694e-04        00000 
 1.29202e-03 -9.09555e-04        00000 
 1.17264e-03 -1.00443e-03        00000 
 1.05041e-03 -1.07242e-03        00000 
 9.29587e-04 -1.11551e-03        00000 
 8.13509e-04 -1.13629e-03        00000 
 7.04650e-04 -1.13775e-03        00000 
 6.04724e-04 -1.12308e-03        00000 
 5.14768e-04 -1.09551e-03        00000 
 4.35233e-04 -1.05822e-03        00000 
 3.66076e-04 -1.01419e-03        00000 
 3.06854e-04 -9.66123e-04        00000 
 2.56819e-04 -9.16398e-04        00000 
 2.15019e-04 -8.67018e-04        00000 
 1.80398e-04 -8.19604e-04        00000 
 1.51903e-04 -7.75407e-04        00000 
 1.28594e-04 -7.35342e-04        00000 
 1.09779e-04 -7.00046e-04        00000 
 9.52035e-05 -6.69962e-04        00000 
 8.53209e-05 -6.45452e-04        00000 
 8.17587e-05 -6.26932e-04        00000 
 8.81333e-05 -6.14994e-04        00000 
 1.11524e-04 -6.10288e-04        00000 
 1.64909e-04 -6.12154e-04        00000 
 2.56687e-04 -6.11338e-04        00000 
 2.52974e-03 -1.30518e-04        00000 
 2.62030e-03 -3.72411e-04        00000 
 2.61192e-03 -6.06852e-04        00000 
 2.52790e-03 -8.27047e-04        00000 
 2.39086e-03 -1.02382e-03        00000 
 2.21762e-03 -1.19117e-03        00000 
 2.02183e-03 -1.32592e-03        00000 
 1.81467e-03 -1.42729e-03        00000 
 1.60524e-03 -1.49615e-03        00000 
 1.40071e-03 -1.53470e-03        00000 
 1.20657e-03 -1.54601e-03        00000 
 1.02684e-03 -1.53380e-03        00000 
 8.64159e-04 -1.50214e-03        00000 
 7.20044e-04 -1.45523e-03        00000 
 5.94964e-04 -1.39722e-03        00000 
 4.88541e-04 -1.33204e-03        00000 
 3.99701e-04 -1.26325e-03        00000 
 3.26864e-04 -1.19393e-03        00000 
 2.68123e-04 -1.12668e-03        00000 
 2.21423e-04 -1.06356e-03        00000 
 1.84731e-04 -1.00615e-03        00000 
 1.56204e-04 -9.55572e-04        00000 
 1.34348e-04 -9.12569e-04        00000 
 1.18218e-04 -8.77531e-04        00000 
 1.07654e-04 -8.50529e-04        00000 
 1.03582e-04 -8.31261e-04        00000 
 1.08344e-04 -8.18849e-04        00000 
 1.25782e-04 -8.11287e-04        00000 
 1.59625e-04 -8.04424e-04        00000 
 2.13925e-04 -7.93315e-04        00000 
 3.71170e-03 -4.19636e-04        00000 
 3.77523e-03 -7.04903e-04        00000 
 3.71749e-03 -9.72536e-04        00000 
 3.56373e-03 -1.21351e-03        00000 
 3.33896e-03 -1.42165e-03        00000 
 3.06632e-03 -1.59243e-03        00000 
 2.76544e-03 -1.72398e-03        00000 
 2.45245e-03 -1.81610e-03        00000 
 2.14035e-03 -1.87053e-03        00000 
 1.83926e-03 -1.89003e-03        00000 
 1.55698e-03 -1.87857e-03        00000 
 1.29905e-03 -1.84074e-03        00000 
 1.06913e-03 -1.78176e-03        00000 
 8.69056e-04 -1.70695e-03        00000 
 6.99078e-04 -1.62161e-03        00000 
 5.58092e-04 -1.53062e-03        00000 
 4.43938e-04 -1.43829e-03        00000 
 3.53717e-04 -1.34825e-03        00000 
 2.84107e-04 -1.26337e-03        00000 
 2.31657e-04 -1.18580e-03        00000 
 1.93008e-04 -1.11709e-03        00000 
 1.65080e-04 -1.05819e-03        00000 
 1.45212e-04 -1.00958e-03        00000 
 1.31275e-04 -9.71222e-04        00000 
 1.21781e-04 -9.42596e-04        00000 
 1.15949e-04 -9.22542e-04        00000 
 1.13663e-04 -9.09079e-04        00000 
 1.15191e-04 -8.99177e-04        00000 
 1.21116e-04 -8.88811e-04        00000 
 1.31893e-04 -8.72638e-04        00000 
 5.13332e-03 -6.42000e-04        00000 
 5.12731e-03 -9.81550e-04        00000 
 4.97183e-03 -1.28945e-03        00000 
 4.70101e-03 -1.55664e-03        00000 
 4.34811e-03 -1.77728e-03        00000 
 3.94229e-03 -1.95010e-03        00000 
 3.50825e-03 -2.07418e-03        00000 
 3.06612e-03 -2.15160e-03        00000 
 2.63191e-03 -2.18406e-03        00000 
 2.21877e-03 -2.17581e-03        00000 
 1.83663e-03 -2.13144e-03        00000 
 1.49312e-03 -2.05742e-03        00000 
 1.19278e-03 -1.96068e-03        00000 
 9.37657e-04 -1.84862e-03        00000 
 7.27137e-04 -1.72827e-03        00000 
 5.58546e-04 -1.60586e-03        00000 
 4.27673e-04 -1.48650e-03        00000 
 3.29407e-04 -1.37407e-03        00000 
 2.58304e-04 -1.27132e-03        00000 
 2.09016e-04 -1.18003e-03        00000 
 1.76537e-04 -1.10123e-03        00000 
 1.56333e-04 -1.03538e-03        00000 
 1.44369e-04 -9.82389e-04        00000 
 1.37101e-04 -9.41731e-04        00000 
 1.31433e-04 -9.12327e-04        00000 
 1.24657e-04 -8.92475e-04        00000 
 1.14366e-04 -8.79714e-04        00000 
 9.83823e-05 -8.70744e-04        00000 
 7.46334e-05 -8.61323e-04        00000 
 4.10762e-05 -8.46319e-04        00000 
 6.85694e-03 -7.14685e-04        00000 
 6.72218e-03 -1.12189e-03        00000 
 6.40541e-03 -1.48057e-03        00000 
 5.96029e-03 -1.78109e-03        00000 
 5.43023e-03 -2.02487e-03        00000 
 4.85104e-03 -2.20887e-03        00000 
 4.24961e-03 -2.33746e-03        00000 
 3.64729e-03 -2.40692e-03        00000 
 3.06368e-03 -2.42174e-03        00000 
 2.51448e-03 -2.38272e-03        00000 
 2.01507e-03 -2.29848e-03        00000 
 1.57530e-03 -2.17736e-03        00000 
 1.20205e-03 -2.03123e-03        00000 
 8.96340e-04 -1.87135e-03        00000 
 6.55220e-04 -1.70798e-03        00000 
 4.72295e-04 -1.54929e-03        00000 
 3.39228e-04 -1.40094e-03        00000 
 2.47142e-04 -1.26638e-03        00000 
 1.87560e-04 -1.14739e-03        00000 
 1.52846e-04 -1.04464e-03        00000 
 1.36312e-04 -9.58105e-04        00000 
 1.32108e-04 -8.87362e-04        00000 
 1.35026e-04 -8.31708e-04        00000 
 1.40278e-04 -7.90166e-04        00000 
 1.43307e-04 -7.61395e-04        00000 
 1.39647e-04 -7.43536e-04        00000 
 1.24853e-04 -7.34054e-04        00000 
 9.44892e-05 -7.29581e-04        00000 
 4.41675e-05 -7.25857e-04        00000 
-3.04106e-05 -7.17695e-04        00000 
 8.97116e-03 -4.91319e-04        00000 
 8.60652e-03 -9.85096e-04        00000 
 8.04780e-03 -1.40407e-03        00000 
 7.36643e-03 -1.76398e-03        00000 
 6.61830e-03 -2.05844e-03        00000 
 5.82890e-03 -2.30444e-03        00000 
 5.01870e-03 -2.47449e-03        00000 
 4.21061e-03 -2.57596e-03        00000 
 3.42602e-03 -2.58641e-03        00000 
 2.69822e-03 -2.52104e-03        00000 
 2.04745e-03 -2.38338e-03        00000 
 1.49636e-03 -2.19752e-03        00000 
 1.05016e-03 -1.98322e-03        00000 
 7.07623e-04 -1.76121e-03        00000 
 4.57720e-04 -1.54719e-03        00000 
 2.84759e-04 -1.35063e-03        00000 
 1.72517e-04 -1.17598e-03        00000 
 1.06483e-04 -1.02432e-03        00000 
 7.46237e-05 -8.94929e-04        00000 
 6.73153e-05 -7.86240e-04        00000 
 7.68853e-05 -6.96552e-04        00000 
 9.70062e-05 -6.24339e-04        00000 
 1.22085e-04 -5.68345e-04        00000 
 1.46737e-04 -5.27488e-04        00000 
 1.65391e-04 -5.00644e-04        00000 
 1.72030e-04 -4.86359e-04        00000 
 1.60163e-04 -4.82498e-04        00000 
 1.22922e-04 -4.85996e-04        00000 
 5.33340e-05 -4.92632e-04        00000 
-5.53553e-05 -4.97047e-04        00000 
 1.15486e-02  3.03061e-04        00000 
 1.08009e-02 -2.72340e-04        00000 
 9.91254e-03 -7.88559e-04        00000 
 8.99942e-03 -1.25555e-03        00000 
 8.03450e-03 -1.75328e-03        00000 
 7.01210e-03 -2.16580e-03        00000 
 5.92652e-03 -2.52989e-03        00000 
 4.79938e-03 -2.71099e-03        00000 
 3.71034e-03 -2.76420e-03        00000 
 2.69764e-03 -2.64114e-03        00000 
 1.84435e-03 -2.41516e-03        00000 
 1.16126e-03 -2.11560e-03        00000 
 6.63776e-04 -1.79703e-03        00000 
 3.27163e-04 -1.49573e-03        00000 
 1.15235e-04 -1.22917e-03        00000 
-6.23242e-06 -1.00223e-03        00000 
-6.46889e-05 -8.13082e-04        00000 
-8.04145e-05 -6.57085e-04        00000 
-6.76723e-05 -5.28928e-04        00000 
-3.62266e-05 -4.23790e-04        00000 
 7.19502e-06 -3.37869e-04        00000 
 5.75977e-05 -2.68560e-04        00000 
 1.10574e-04 -2.14412e-04        00000 
 1.61333e-04 -1.74879e-04        00000 
 2.04005e-04 -1.49876e-04        00000 
 2.31305e-04 -1.39208e-04        00000 
 2.34316e-04 -1.42064e-04        00000 
 2.02916e-04 -1.56207e-04        00000 
 1.26413e-04 -1.77762e-04        00000 
-5.54749e-06 -2.00800e-04        00000 
 1.45323e-02  2.28139e-03        00000 
 1.31277e-02  1.63715e-03        00000 
 1.21175e-02  9.99680e-04        00000 
 1.11548e-02  1.80789e-05        00000 
 1.01303e-02 -9.15796e-04        00000 
 8.80519e-03 -2.01933e-03        00000 
 7.20304e-03 -2.66886e-03        00000 
 5.50200e-03 -3.16925e-03        00000 
 3.76615e-03 -3.13184e-03        00000 
 2.32277e-03 -2.89094e-03        00000 
 1.15239e-03 -2.40741e-03        00000 
 3.93682e-04 -1.88759e-03        00000 
-4.64824e-05 -1.42345e-03        00000 
-2.71744e-04 -1.04259e-03        00000 
-3.62863e-04 -7.42475e-04        00000 
-3.74433e-04 -5.10180e-04        00000 
-3.41110e-04 -3.30936e-04        00000 
-2.83811e-04 -1.91477e-04        00000 
-2.14413e-04 -8.10621e-05        00000 
-1.39051e-04  8.39599e-06        00000 
-6.04408e-05  8.24995e-05        00000 
 2.03853e-05  1.44568e-04        00000 
 1.02585e-04  1.95804e-04        00000 
 1.84045e-04  2.35503e-04        00000 
 2.59920e-04  2.61512e-04        00000 
 3.21736e-04  2.71300e-04        00000 
 3.57891e-04  2.63355e-04        00000 
 3.53103e-04  2.37344e-04        00000 
 2.90030e-04  1.96625e-04        00000 
 1.51657e-04  1.47687e-04        00000 
 1.66279e-02  6.43871e-03        00000 
 1.53454e-02  6.00041e-03        00000 
 1.49922e-02  4.45422e-03        00000 
 1.51429e-02  2.68449e-03        00000 
 1.40878e-02 -3.63305e-04        00000 
 1.21205e-02 -2.11935e-03        00000 
 9.35274e-03 -4.22137e-03        00000 
 5.95916e-03 -4.35312e-03        00000 
 3.18629e-03 -4.32394e-03        00000 
 7.02113e-04 -3.21991e-03        00000 
-4.87002e-04 -2.17795e-03        00000 
-9.73881e-04 -1.37250e-03        00000 
-1.09330e-03 -7.95056e-04        00000 
-1.03768e-03 -3.91524e-04        00000 
-9.07157e-04 -1.11475e-04        00000 
-7.53006e-04  8.38516e-05        00000 
-6.00136e-04  2.22361e-04        00000 
-4.59056e-04  3.23647e-04        00000 
-3.32339e-04  4.01294e-04        00000 
-2.18171e-04  4.64607e-04        00000 
-1.12369e-04  5.19745e-04        00000 
-9.66232e-06  5.70315e-04        00000 
 9.52183e-05  6.17507e-04        00000 
 2.06115e-04  6.59812e-04        00000 
 3.23066e-04  6.92563e-04        00000 
 4.38520e-04  7.08068e-04        00000 
 5.34577e-04  6.98587e-04        00000 
 5.89980e-04  6.62504e-04        00000 
 5.76397e-04  5.98122e-04        00000 
 4.60366e-04  5.13979e-04        00000 
 1.28279e-02  1.13498e-02        00000 
 1.51745e-02  1.27206e-02        00000 
 2.17503e-02  1.13717e-02        00000 
 2.31020e-02  4.39087e-03        00000 
 2.35373e-02  8.79354e-04        00000 
 1.92576e-02 -7.17615e-03        00000 
 1.19232e-02 -7.44130e-03        00000 
 5.45555e-03 -9.39440e-03        00000 
-1.83928e-03 -5.25690e-03        00000 
-3.17229e-03 -2.80196e-03        00000 
-3.19755e-03 -1.33861e-03        00000 
-2.77935e-03 -4.81022e-04        00000 
-2.27656e-03  3.64083e-05        00000 
-1.80169e-03  3.55830e-04        00000 
-1.39160e-03  5.57114e-04        00000 
-1.05293e-03  6.86653e-04        00000 
-7.80304e-04  7.72298e-04        00000 
-5.63681e-04  8.31194e-04        00000 
-3.91565e-04  8.74252e-04        00000 
-2.52224e-04  9.08758e-04        00000 
-1.33950e-04  9.39870e-04        00000 
-2.49162e-05  9.71382e-04        00000 
 8.70486e-05  1.00585e-03        00000 
 2.14384e-04  1.04400e-03        00000 
 3.68652e-04  1.08303e-03        00000 
 5.55932e-04  1.11315e-03        00000 
 7.62182e-04  1.11320e-03        00000 
 9.31767e-04  1.05858e-03        00000 
 1.02260e-03  9.65255e-04        00000 
 9.92784e-04  8.30432e-04        00000 
-9.71458e-04  8.76893e-03        00000 
 5.03509e-03  1.32190e-02        00000 
 2.05894e-02  1.96615e-02        00000 
 5.46559e-02  2.12450e-02        00000 
 4.86584e-02 -1.22221e-02        00000 
 3.54400e-02 -1.36469e-02        00000 
 1.44887e-02 -2.96054e-02        00000 
-1.59179e-02 -7.94368e-03        00000 
-1.09126e-02 -3.31414e-03        00000 
-8.23462e-03 -1.23469e-03        00000 
-6.04127e-03 -2.40646e-04        00000 
-4.45401e-03  3.43345e-04        00000 
-3.26901e-03  7.07684e-04        00000 
-2.38202e-03  9.42785e-04        00000 
-1.71856e-03  1.09798e-03        00000 
-1.22378e-03  1.20223e-03        00000 
-8.55903e-04  1.27243e-03        00000 
-5.82929e-04  1.31853e-03        00000 
-3.79952e-04  1.34657e-03        00000 
-2.26856e-04  1.36063e-03        00000 
-1.06390e-04  1.36397e-03        00000 
-2.46822e-06  1.35987e-03        00000 
 1.01412e-04  1.35226e-03        00000 
 2.23874e-04  1.34621e-03        00000 
 3.87827e-04  1.34806e-03        00000 
 6.23483e-04  1.36360e-03        00000 
 9.68511e-04  1.38766e-03        00000 
 1.41819e-03  1.36508e-03        00000 
 1.73371e-03  1.16760e-03        00000 
 1.81202e-03  9.39259e-04        00000 
-1.50034e-02 -1.70151e-03        00000 
-1.64309e-02  1.58801e-03        00000 
-9.43034e-03  6.39044e-03        00000 
 3.34260e-02  2.24843e-02        00000 
 2.34079e-01  5.11100e-02        00000 
 9.24960e-02 -1.12301e-01        00000 
-1.09662e-01 -3.48519e-03        00000 
-2.89724e-02 -6.72424e-03        00000 
-1.94804e-02 -3.90748e-03        00000 
-1.22744e-02 -1.91672e-03        00000 
-8.31875e-03 -4.72215e-04        00000 
-5.71495e-03  4.06781e-04        00000 
-3.96241e-03  9.46164e-04        00000 
-2.74910e-03  1.29557e-03        00000 
-1.89515e-03  1.53517e-03        00000 
-1.28674e-03  1.70427e-03        00000 
-8.49957e-04  1.82264e-03        00000 
-5.34925e-04  1.90053e-03        00000 
-3.06468e-04  1.94313e-03        00000 
-1.38365e-04  1.95260e-03        00000 
-9.55540e-06  1.92912e-03        00000 
 9.86059e-05  1.87148e-03        00000 
 2.04660e-04  1.77766e-03        00000 
 3.29340e-04  1.64564e-03        00000 
 4.98299e-04  1.47517e-03        00000 
 7.46705e-04  1.27368e-03        00000 
 1.13114e-03  1.07770e-03        00000 
 1.77625e-03  1.00966e-03        00000 
 2.77255e-03  1.20703e-03        00000 
 2.90332e-03  1.05296e-03        00000 
-3.54742e-02  2.31604e-02        00000 
-4.38625e-02  2.94933e-02        00000 
-5.45979e-02  3.36054e-02        00000 
-6.74081e-02  2.00826e-02        00000 
 3.43176e-02 -4.12456e-02        00000 
-7.04021e-03  3.73927e-02        00000 
-9.72470e-02 -6.03489e-02        00000 
-1.64647e-02 -1.77097e-02        00000 
-1.27037e-02 -4.83682e-03        00000 
-6.70519e-03 -1.59380e-03        00000 
-4.13207e-03 -7.43925e-04        00000 
-2.64611e-03 -4.63599e-04        00000 
-1.75821e-03 -3.24979e-04        00000 
-1.18252e-03 -2.33183e-04        00000 
-7.93571e-04 -1.65689e-04        00000 
-5.23855e-04 -1.15076e-04        00000 
-3.34016e-04 -7.71535e-05        00000 
-1.99118e-04 -4.90283e-05        00000 
-1.02346e-04 -2.87377e-05        00000 
-3.15779e-05 -1.50787e-05        00000 
 2.26917e-05 -7.50378e-06        00000 
 6.87968e-05 -6.10332e-06        00000 
 1.15135e-04 -1.17582e-05        00000 
 1.71589e-04 -2.67936e-05        00000 
 2.51531e-04 -5.71973e-05        00000 
 3.74580e-04 -1.17912e-04        00000 
 5.63688e-04 -2.32547e-04        00000 
 8.34138e-04 -3.54937e-04        00000 
 1.06577e-03 -1.00391e-04        00000 
 1.98791e-03  9.55086e-04        00000 
-3.23468e-02  2.21848e-02        00000 
-2.79696e-02  1.52469e-02        00000 
-4.43019e-02  2.71920e-02        00000 
-7.98461e-02  5.02524e-02        00000 
-5.54790e-02  6.88769e-03        00000 
-5.30245e-02 -7.49868e-02        00000 
-4.53291e-02 -4.19355e-02        00000 
 7.02986e-03  4.28540e-03        00000 
 2.67299e-03  3.65773e-03        00000 
 2.05627e-03  1.48640e-03        00000 
 1.08959e-03  4.99612e-04        00000 
 6.46825e-04  1.74320e-04        00000 
 4.07243e-04  5.18006e-05        00000 
 2.69323e-04 -1.60523e-05        00000 
 1.80751e-04 -6.59208e-05        00000 
 1.20398e-04 -1.05272e-04        00000 
 7.78768e-05 -1.35835e-04        00000 
 4.72871e-05 -1.58474e-04        00000 
 2.47946e-05 -1.73830e-04        00000 
 7.65984e-06 -1.82271e-04        00000 
-6.27338e-06 -1.83831e-04        00000 
-1.89257e-05 -1.78136e-04        00000 
-3.22978e-05 -1.64235e-04        00000 
-4.87777e-05 -1.40125e-04        00000 
-7.10280e-05 -1.02063e-04        00000 
-9.88096e-05 -4.67502e-05        00000 
-1.18772e-04  1.08025e-05        00000 
-7.91089e-05 -5.69653e-06        00000 
-1.67107e-04 -1.40149e-04        00000 
-5.89943e-04 -4.79607e-04        00000 
 1.45906e-02 -1.64809e-02        00000 
 8.86667e-03 -1.69578e-02        00000 
 1.16121e-02 -2.39435e-02        00000 
 8.27116e-03 -2.31249e-02        00000 
-2.48498e-03  2.36590e-03        00000 
 4.26556e-03  3.00918e-02        00000 
 1.45293e-02  2.76802e-02        00000 
 7.18143e-03  8.07075e-03        00000 
-8.20285e-05 -5.04077e-04        00000 
-5.22470e-04 -8.91776e-04        00000 
-4.40724e-04 -3.98335e-04        00000 
-2.45681e-04 -1.07937e-04        00000 
-1.41349e-04  6.69612e-06        00000 
-8.72210e-05  5.79029e-05        00000 
-5.73655e-05  9.05003e-05        00000 
-3.86087e-05  1.16116e-04        00000 
-2.56783e-05  1.36653e-04        00000 