<?xml version="1.0" encoding="utf-8"?>
<VTKFile byte_order="LittleEndian" type="UnstructuredGrid" version="0.1">
   <UnstructuredGrid>
      <Piece NumberOfCells="3364" NumberOfPoints="1741">
         <Points>
            <DataArray Name="Points" NumberOfComponents="3" format="ascii" type="Float32">
0.0000 1.0000 0.0000
0.0000 1.0345 0.0000
0.0000 1.0690 0.0000
0.0000 1.1034 0.0000
0.0000 1.1379 0.0000
0.0000 1.1724 0.0000
0.0000 1.2069 0.0000
0.0000 1.2414 0.0000
0.0000 1.2759 0.0000
0.0000 1.3103 0.0000
0.0000 1.3448 0.0000
0.0000 1.3793 0.0000
0.0000 1.4138 0.0000
0.0000 1.4483 0.0000
0.0000 1.4828 0.0000
0.0000 1.5172 0.0000
0.0000 1.5517 0.0000
0.0000 1.5862 0.0000
0.0000 1.6207 0.0000
0.0000 1.6552 0.0000
0.0000 1.6897 0.0000
0.0000 1.7241 0.0000
0.0000 1.7586 0.0000
0.0000 1.7931 0.0000
0.0000 1.8276 0.0000
0.0000 1.8621 0.0000
0.0000 1.8966 0.0000
0.0000 1.9310 0.0000
0.0000 1.9655 0.0000
0.0000 2.0000 0.0000
0.0690 1.0000 0.0000
0.0690 1.0345 0.0000
0.0690 1.0690 0.0000
0.0690 1.1034 0.0000
0.0690 1.1379 0.0000
0.0690 1.1724 0.0000
0.0690 1.2069 0.0000
0.0690 1.2414 0.0000
0.0690 1.2759 0.0000
0.0690 1.3103 0.0000
0.0690 1.3448 0.0000
0.0690 1.3793 0.0000
0.0690 1.4138 0.0000
0.0690 1.4483 0.0000
0.0690 1.4828 0.0000
0.0690 1.5172 0.0000
0.0690 1.5517 0.0000
0.0690 1.5862 0.0000
0.0690 1.6207 0.0000
0.0690 1.6552 0.0000
0.0690 1.6897 0.0000
0.0690 1.7241 0.0000
0.0690 1.7586 0.0000
0.0690 1.7931 0.0000
0.0690 1.8276 0.0000
0.0690 1.8621 0.0000
0.0690 1.8966 0.0000
0.0690 1.9310 0.0000
0.0690 1.9655 0.0000
0.0690 2.0000 0.0000
0.1379 1.0000 0.0000
0.1379 1.0345 0.0000
0.1379 1.0690 0.0000
0.1379 1.1034 0.0000
0.1379 1.1379 0.0000
0.1379 1.1724 0.0000
0.1379 1.2069 0.0000
0.1379 1.2414 0.0000
0.1379 1.2759 0.0000
0.1379 1.3103 0.0000
0.1379 1.3448 0.0000
0.1379 1.3793 0.0000
0.1379 1.4138 0.0000
0.1379 1.4483 0.0000
0.1379 1.4828 0.0000
0.1379 1.5172 0.0000
0.1379 1.5517 0.0000
0.1379 1.5862 0.0000
0.1379 1.6207 0.0000
0.1379 1.6552 0.0000
0.1379 1.6897 0.0000
0.1379 1.7241 0.0000
0.1379 1.7586 0.0000
0.1379 1.7931 0.0000
0.1379 1.8276 0.0000
0.1379 1.8621 0.0000
0.1379 1.8966 0.0000
0.1379 1.9310 0.0000
0.1379 1.9655 0.0000
0.1379 2.0000 0.0000
0.2069 1.0000 0.0000
0.2069 1.0345 0.0000
0.2069 1.0690 0.0000
0.2069 1.1034 0.0000
0.2069 1.1379 0.0000
0.2069 1.1724 0.0000
0.2069 1.2069 0.0000
0.2069 1.2414 0.0000
0.2069 1.2759 0.0000
0.2069 1.3103 0.0000
0.2069 1.3448 0.0000
0.2069 1.3793 0.0000
0.2069 1.4138 0.0000
0.2069 1.4483 0.0000
0.2069 1.4828 0.0000
0.2069 1.5172 0.0000
0.2069 1.5517 0.0000
0.2069 1.5862 0.0000
0.2069 1.6207 0.0000
0.2069 1.6552 0.0000
0.2069 1.6897 0.0000
0.2069 1.7241 0.0000
0.2069 1.7586 0.0000
0.2069 1.7931 0.0000
0.2069 1.8276 0.0000
0.2069 1.8621 0.0000
0.2069 1.8966 0.0000
0.2069 1.9310 0.0000
0.2069 1.9655 0.0000
0.2069 2.0000 0.0000
0.2759 1.0000 0.0000
0.2759 1.0345 0.0000
0.2759 1.0690 0.0000
0.2759 1.1034 0.0000
0.2759 1.1379 0.0000
0.2759 1.1724 0.0000
0.2759 1.2069 0.0000
0.2759 1.2414 0.0000
0.2759 1.2759 0.0000
0.2759 1.3103 0.0000
0.2759 1.3448 0.0000
0.2759 1.3793 0.0000
0.2759 1.4138 0.0000
0.2759 1.4483 0.0000
0.2759 1.4828 0.0000
0.2759 1.5172 0.0000
0.2759 1.5517 0.0000
0.2759 1.5862 0.0000
0.2759 1.6207 0.0000
0.2759 1.6552 0.0000
0.2759 1.6897 0.0000
0.2759 1.7241 0.0000
0.2759 1.7586 0.0000
0.2759 1.7931 0.0000
0.2759 1.8276 0.0000
0.2759 1.8621 0.0000
0.2759 1.8966 0.0000
0.2759 1.9310 0.0000
0.2759 1.9655 0.0000
0.2759 2.0000 0.0000
0.3448 1.0000 0.0000
0.3448 1.0345 0.0000
0.3448 1.0690 0.0000
0.3448 1.1034 0.0000
0.3448 1.1379 0.0000
0.3448 1.1724 0.0000
0.3448 1.2069 0.0000
0.3448 1.2414 0.0000
0.3448 1.2759 0.0000
0.3448 1.3103 0.0000
0.3448 1.3448 0.0000
0.3448 1.3793 0.0000
0.3448 1.4138 0.0000
0.3448 1.4483 0.0000
0.3448 1.4828 0.0000
0.3448 1.5172 0.0000
0.3448 1.5517 0.0000
0.3448 1.5862 0.0000
0.3448 1.6207 0.0000
0.3448 1.6552 0.0000
0.3448 1.6897 0.0000
0.3448 1.7241 0.0000
0.3448 1.7586 0.0000
0.3448 1.7931 0.0000
0.3448 1.8276 0.0000
0.3448 1.8621 0.0000
0.3448 1.8966 0.0000
0.3448 1.9310 0.0000
0.3448 1.9655 0.0000
0.3448 2.0000 0.0000
0.4138 1.0000 0.0000
0.4138 1.0345 0.0000
0.4138 1.0690 0.0000
0.4138 1.1034 0.0000
0.4138 1.1379 0.0000
0.4138 1.1724 0.0000
0.4138 1.2069 0.0000
0.4138 1.2414 0.0000
0.4138 1.2759 0.0000
0.4138 1.3103 0.0000
0.4138 1.3448 0.0000
0.4138 1.3793 0.0000
0.4138 1.4138 0.0000
0.4138 1.4483 0.0000
0.4138 1.4828 0.0000
0.4138 1.5172 0.0000
0.4138 1.5517 0.0000
0.4138 1.5862 0.0000
0.4138 1.6207 0.0000
0.4138 1.6552 0.0000
0.4138 1.6897 0.0000
0.4138 1.7241 0.0000
0.4138 1.7586 0.0000
0.4138 1.7931 0.0000
0.4138 1.8276 0.0000
0.4138 1.8621 0.0000
0.4138 1.8966 0.0000
0.4138 1.9310 0.0000
0.4138 1.9655 0.0000
0.4138 2.0000 0.0000
0.4828 1.0000 0.0000
0.4828 1.0345 0.0000
0.4828 1.0690 0.0000
0.4828 1.1034 0.0000
0.4828 1.1379 0.0000
0.4828 1.1724 0.0000
0.4828 1.2069 0.0000
0.4828 1.2414 0.0000
0.4828 1.2759 0.0000
0.4828 1.3103 0.0000
0.4828 1.3448 0.0000
0.4828 1.3793 0.0000
0.4828 1.4138 0.0000
0.4828 1.4483 0.0000
0.4828 1.4828 0.0000
0.4828 1.5172 0.0000
0.4828 1.5517 0.0000
0.4828 1.5862 0.0000
0.4828 1.6207 0.0000
0.4828 1.6552 0.0000
0.4828 1.6897 0.0000
0.4828 1.7241 0.0000
0.4828 1.7586 0.0000
0.4828 1.7931 0.0000
0.4828 1.8276 0.0000
0.4828 1.8621 0.0000
0.4828 1.8966 0.0000
0.4828 1.9310 0.0000
0.4828 1.9655 0.0000
0.4828 2.0000 0.0000
0.5517 1.0000 0.0000
0.5517 1.0345 0.0000
0.5517 1.0690 0.0000
0.5517 1.1034 0.0000
0.5517 1.1379 0.0000
0.5517 1.1724 0.0000
0.5517 1.2069 0.0000
0.5517 1.2414 0.0000
0.5517 1.2759 0.0000
0.5517 1.3103 0.0000
0.5517 1.3448 0.0000
0.5517 1.3793 0.0000
0.5517 1.4138 0.0000
0.5517 1.4483 0.0000
0.5517 1.4828 0.0000
0.5517 1.5172 0.0000
0.5517 1.5517 0.0000
0.5517 1.5862 0.0000
0.5517 1.6207 0.0000
0.5517 1.6552 0.0000
0.5517 1.6897 0.0000
0.5517 1.7241 0.0000
0.5517 1.7586 0.0000
0.5517 1.7931 0.0000
0.5517 1.8276 0.0000
0.5517 1.8621 0.0000
0.5517 1.8966 0.0000
0.5517 1.9310 0.0000
0.5517 1.9655 0.0000
0.5517 2.0000 0.0000
0.6207 1.0000 0.0000
0.6207 1.0345 0.0000
0.6207 1.0690 0.0000
0.6207 1.1034 0.0000
0.6207 1.1379 0.0000
0.6207 1.1724 0.0000
0.6207 1.2069 0.0000
0.6207 1.2414 0.0000
0.6207 1.2759 0.0000
0.6207 1.3103 0.0000
0.6207 1.3448 0.0000
0.6207 1.3793 0.0000
0.6207 1.4138 0.0000
0.6207 1.4483 0.0000
0.6207 1.4828 0.0000
0.6207 1.5172 0.0000
0.6207 1.5517 0.0000
0.6207 1.5862 0.0000
0.6207 1.6207 0.0000
0.6207 1.6552 0.0000
0.6207 1.6897 0.0000
0.6207 1.7241 0.0000
0.6207 1.7586 0.0000
0.6207 1.7931 0.0000
0.6207 1.8276 0.0000
0.6207 1.8621 0.0000
0.6207 1.8966 0.0000
0.6207 1.9310 0.0000
0.6207 1.9655 0.0000
0.6207 2.0000 0.0000
0.6897 1.0000 0.0000
0.6897 1.0345 0.0000
0.6897 1.0690 0.0000
0.6897 1.1034 0.0000
0.6897 1.1379 0.0000
0.6897 1.1724 0.0000
0.6897 1.2069 0.0000
0.6897 1.2414 0.0000
0.6897 1.2759 0.0000
0.6897 1.3103 0.0000
0.6897 1.3448 0.0000
0.6897 1.3793 0.0000
0.6897 1.4138 0.0000
0.6897 1.4483 0.0000
0.6897 1.4828 0.0000
0.6897 1.5172 0.0000
0.6897 1.5517 0.0000
0.6897 1.5862 0.0000
0.6897 1.6207 0.0000
0.6897 1.6552 0.0000
0.6897 1.6897 0.0000
0.6897 1.7241 0.0000
0.6897 1.7586 0.0000
0.6897 1.7931 0.0000
0.6897 1.8276 0.0000
0.6897 1.8621 0.0000
0.6897 1.8966 0.0000
0.6897 1.9310 0.0000
0.6897 1.9655 0.0000
0.6897 2.0000 0.0000
0.7586 1.0000 0.0000
0.7586 1.0345 0.0000
0.7586 1.0690 0.0000
0.7586 1.1034 0.0000
0.7586 1.1379 0.0000
0.7586 1.1724 0.0000
0.7586 1.2069 0.0000
0.7586 1.2414 0.0000
0.7586 1.2759 0.0000
0.7586 1.3103 0.0000
0.7586 1.3448 0.0000
0.7586 1.3793 0.0000
0.7586 1.4138 0.0000
0.7586 1.4483 0.0000
0.7586 1.4828 0.0000
0.7586 1.5172 0.0000
0.7586 1.5517 0.0000
0.7586 1.5862 0.0000
0.7586 1.6207 0.0000
0.7586 1.6552 0.0000
0.7586 1.6897 0.0000
0.7586 1.7241 0.0000
0.7586 1.7586 0.0000
0.7586 1.7931 0.0000
0.7586 1.8276 0.0000
0.7586 1.8621 0.0000
0.7586 1.8966 0.0000
0.7586 1.9310 0.0000
0.7586 1.9655 0.0000
0.7586 2.0000 0.0000
0.8276 1.0000 0.0000
0.8276 1.0345 0.0000
0.8276 1.0690 0.0000
0.8276 1.1034 0.0000
0.8276 1.1379 0.0000
0.8276 1.1724 0.0000
0.8276 1.2069 0.0000
0.8276 1.2414 0.0000
0.8276 1.2759 0.0000
0.8276 1.3103 0.0000
0.8276 1.3448 0.0000
0.8276 1.3793 0.0000
0.8276 1.4138 0.0000
0.8276 1.4483 0.0000
0.8276 1.4828 0.0000
0.8276 1.5172 0.0000
0.8276 1.5517 0.0000
0.8276 1.5862 0.0000
0.8276 1.6207 0.0000
0.8276 1.6552 0.0000
0.8276 1.6897 0.0000
0.8276 1.7241 0.0000
0.8276 1.7586 0.0000
0.8276 1.7931 0.0000
0.8276 1.8276 0.0000
0.8276 1.8621 0.0000
0.8276 1.8966 0.0000
0.8276 1.9310 0.0000
0.8276 1.9655 0.0000
0.8276 2.0000 0.0000
0.8966 1.0000 0.0000
0.8966 1.0345 0.0000
0.8966 1.0690 0.0000
0.8966 1.1034 0.0000
0.8966 1.1379 0.0000
0.8966 1.1724 0.0000
0.8966 1.2069 0.0000
0.8966 1.2414 0.0000
0.8966 1.2759 0.0000
0.8966 1.3103 0.0000
0.8966 1.3448 0.0000
0.8966 1.3793 0.0000
0.8966 1.4138 0.0000
0.8966 1.4483 0.0000
0.8966 1.4828 0.0000
0.8966 1.5172 0.0000
0.8966 1.5517 0.0000
0.8966 1.5862 0.0000
0.8966 1.6207 0.0000
0.8966 1.6552 0.0000
0.8966 1.6897 0.0000
0.8966 1.7241 0.0000
0.8966 1.7586 0.0000
0.8966 1.7931 0.0000
0.8966 1.8276 0.0000
0.8966 1.8621 0.0000
0.8966 1.8966 0.0000
0.8966 1.9310 0.0000
0.8966 1.9655 0.0000
0.8966 2.0000 0.0000
0.9655 1.0000 0.0000
0.9655 1.0345 0.0000
0.9655 1.0690 0.0000
0.9655 1.1034 0.0000
0.9655 1.1379 0.0000
0.9655 1.1724 0.0000
0.9655 1.2069 0.0000
0.9655 1.2414 0.0000
0.9655 1.2759 0.0000
0.9655 1.3103 0.0000
0.9655 1.3448 0.0000
0.9655 1.3793 0.0000
0.9655 1.4138 0.0000
0.9655 1.4483 0.0000
0.9655 1.4828 0.0000
0.9655 1.5172 0.0000
0.9655 1.5517 0.0000
0.9655 1.5862 0.0000
0.9655 1.6207 0.0000
0.9655 1.6552 0.0000
0.9655 1.6897 0.0000
0.9655 1.7241 0.0000
0.9655 1.7586 0.0000
0.9655 1.7931 0.0000
0.9655 1.8276 0.0000
0.9655 1.8621 0.0000
0.9655 1.8966 0.0000
0.9655 1.9310 0.0000
0.9655 1.9655 0.0000
0.9655 2.0000 0.0000
1.0345 1.0000 0.0000
1.0345 1.0345 0.0000
1.0345 1.0690 0.0000
1.0345 1.1034 0.0000
1.0345 1.1379 0.0000
1.0345 1.1724 0.0000
1.0345 1.2069 0.0000
1.0345 1.2414 0.0000
1.0345 1.2759 0.0000
1.0345 1.3103 0.0000
1.0345 1.3448 0.0000
[...]
         <PointData>
            <DataArray Name="fValues" NumberOfComponents="3" format="ascii" type="Float64">
-9.02537e-20  1.07801e-21        00000 
       00000 -4.31206e-21        00000 
-5.11691e-20  9.94954e-21        00000 
 2.14301e-21 -1.82155e-20        00000 
-2.55845e-20 -1.13709e-20        00000 
 1.15986e-20  9.63225e-20        00000 
 1.13709e-20  8.52818e-21        00000 
-6.39330e-20 -3.21451e-20        00000 
 2.84273e-21  1.70564e-20        00000 
 1.53577e-20  1.16275e-19        00000 
       00000 -3.97982e-20        00000 
-9.28636e-21  6.03613e-20        00000 
 2.55845e-20  3.41127e-20        00000 
 1.76006e-20 -4.11834e-20        00000 
-5.68545e-21  2.27418e-20        00000 
 1.12508e-20 -1.03579e-20        00000 
-5.68545e-21  5.68545e-21        00000 
-9.99044e-21 -5.32086e-22        00000 
 5.68545e-21  2.55845e-20        00000 
-3.25915e-21 -2.42874e-20        00000 
-1.20816e-20  1.98991e-20        00000 
 7.93248e-21 -4.48762e-21        00000 
-2.48738e-21 -5.68545e-21        00000 
-4.01814e-21  2.91092e-20        00000 
-3.19807e-21  5.68545e-21        00000 
-3.63937e-21 -2.10496e-20        00000 
 7.10681e-22 -1.13709e-20        00000 
-7.60397e-22  2.11122e-20        00000 
-4.47986e-21        00000        00000 
-1.01618e-20 -1.50423e-20        00000 
-3.06591e-04 -7.96417e-05        00000 
-3.33644e-04  6.78908e-06        00000 
-3.55670e-04  8.88827e-05        00000 
-3.64898e-04  1.64048e-04        00000 
-3.63191e-04  2.30843e-04        00000 
-3.52742e-04  2.88169e-04        00000 
-3.35581e-04  3.35334e-04        00000 
-3.13547e-04  3.72072e-04        00000 
-2.88297e-04  3.98529e-04        00000 
-2.61286e-04  4.15234e-04        00000 
-2.33756e-04  4.23030e-04        00000 
-2.06720e-04  4.23001e-04        00000 
-1.80955e-04  4.16387e-04        00000 
-1.57014e-04  4.04500e-04        00000 
-1.35241e-04  3.88650e-04        00000 
-1.15795e-04  3.70078e-04        00000 
-9.86863e-05  3.49909e-04        00000 
-8.38058e-05  3.29114e-04        00000 
-7.09621e-05  3.08492e-04        00000 
-5.99157e-05  2.88656e-04        00000 
-5.04134e-05  2.70040e-04        00000 
-4.22246e-05  2.52905e-04        00000 
-3.51842e-05  2.37363e-04        00000 
-2.92527e-05  2.23405e-04        00000 
-2.46136e-05  2.10969e-04        00000 
-2.18538e-05  2.00047e-04        00000 
-2.23435e-05  1.90916e-04        00000 
-2.91661e-05  1.84643e-04        00000 
-4.99349e-05  1.84232e-04        00000 
-1.13022e-04  1.96518e-04        00000 
-6.64477e-04  1.21907e-04        00000 
-7.59255e-04  2.18556e-04        00000 
-8.03167e-04  3.23791e-04        00000 
-8.14676e-04  4.26886e-04        00000 
-8.00919e-04  5.21650e-04        00000 
-7.67596e-04  6.04045e-04        00000 
-7.19713e-04  6.71546e-04        00000 
-6.61781e-04  7.22872e-04        00000 
-5.97829e-04  7.57800e-04        00000 
-5.31359e-04  7.76980e-04        00000 
-4.65297e-04  7.81743e-04        00000 
-4.01956e-04  7.73912e-04        00000 
-3.43039e-04  7.55612e-04        00000 
-2.89667e-04  7.29103e-04        00000 
-2.42439e-04  6.96630e-04        00000 
-2.01509e-04  6.60309e-04        00000 
-1.66675e-04  6.22045e-04        00000 
-1.37471e-04  5.83475e-04        00000 
-1.13259e-04  5.45940e-04        00000 
-9.33081e-05  5.10488e-04        00000 
-7.68757e-05  4.77880e-04        00000 
-6.32858e-05  4.48628e-04        00000 
-5.20130e-05  4.23032e-04        00000 
-4.27945e-05  4.01238e-04        00000 
-3.57970e-05  3.83308e-04        00000 
-3.18943e-05  3.69310e-04        00000 
-3.31584e-05  3.59389e-04        00000 
-4.37481e-05  3.53716e-04        00000 
-7.13895e-05  3.51723e-04        00000 
-1.21654e-04  3.47945e-04        00000 
-1.13422e-03  4.10283e-04        00000 
-1.25669e-03  5.31295e-04        00000 
-1.31579e-03  6.52586e-04        00000 
-1.32186e-03  7.69085e-04        00000 
-1.28612e-03  8.74336e-04        00000 
-1.21820e-03  9.63249e-04        00000 
-1.12693e-03  1.03247e-03        00000 
-1.02042e-03  1.08035e-03        00000 
-9.05856e-04  1.10681e-03        00000 
-7.89428e-04  1.11300e-03        00000 
-6.76157e-04  1.10108e-03        00000 
-5.69869e-04  1.07381e-03        00000 
-4.73221e-04  1.03435e-03        00000 
-3.87788e-04  9.85893e-04        00000 
-3.14210e-04  9.31559e-04        00000 
-2.52359e-04  8.74175e-04        00000 
-2.01526e-04  8.16201e-04        00000 
-1.60595e-04  7.59680e-04        00000 
-1.28213e-04  7.06233e-04        00000 
-1.02929e-04  6.57074e-04        00000 
-8.33109e-05  6.13054e-04        00000 
-6.80554e-05  5.74709e-04        00000 
-5.60869e-05  5.42301e-04        00000 
-4.66705e-05  5.15865e-04        00000 
-3.95533e-05  4.95225e-04        00000 
-3.51470e-05  4.79973e-04        00000 
-3.47357e-05  4.69343e-04        00000 
-4.05534e-05  4.61896e-04        00000 
-5.49169e-05  4.54905e-04        00000 
-8.04402e-05  4.45046e-04        00000 
-1.72560e-03  7.43775e-04        00000 
-1.85731e-03  8.91714e-04        00000 
-1.90912e-03  1.03474e-03        00000 
-1.89057e-03  1.16498e-03        00000 
-1.81376e-03  1.27572e-03        00000 
-1.69214e-03  1.36173e-03        00000 
-1.53911e-03  1.41995e-03        00000 
-1.36727e-03  1.44951e-03        00000 
-1.18782e-03  1.45157e-03        00000 
-1.01017e-03  1.42881e-03        00000 
-8.41670e-04  1.38506e-03        00000 
-6.87629e-04  1.32474e-03        00000 
-5.51380e-04  1.25247e-03        00000 
-4.34515e-04  1.17270e-03        00000 
-3.37186e-04  1.08945e-03        00000 
-2.58438e-04  1.00616e-03        00000 
-1.96544e-04  9.25606e-04        00000 
-1.49312e-04  8.49927e-04        00000 
-1.14332e-04  7.80660e-04        00000 
-8.91755e-05  7.18833e-04        00000 
-7.15279e-05  6.65043e-04        00000 
-5.92913e-05  6.19535e-04        00000 
-5.06549e-05  5.82249e-04        00000 
-4.41540e-05  5.52848e-04        00000 
-3.87232e-05  5.30695e-04        00000 
-3.37315e-05  5.14797e-04        00000 
-2.89574e-05  5.03674e-04        00000 
-2.44287e-05  4.95205e-04        00000 
-2.03822e-05  4.86626e-04        00000 
-1.70228e-05  4.74307e-04        00000 
-2.46119e-03  1.10316e-03        00000 
-2.58938e-03  1.28589e-03        00000 
-2.61073e-03  1.45665e-03        00000 
-2.53802e-03  1.60351e-03        00000 
-2.38865e-03  1.71734e-03        00000 
-2.18230e-03  1.79267e-03        00000 
-1.93904e-03  1.82739e-03        00000 
-1.67763e-03  1.82283e-03        00000 
-1.41430e-03  1.78278e-03        00000 
-1.16218e-03  1.71304e-03        00000 
-9.30880e-04  1.62036e-03        00000 
-7.26673e-04  1.51187e-03        00000 
-5.52713e-04  1.39433e-03        00000 
-4.09575e-04  1.27375e-03        00000 
-2.95847e-04  1.15506e-03        00000 
-2.08751e-04  1.04204e-03        00000 
-1.44731e-04  9.37335e-04        00000 
-9.99240e-05  8.42638e-04        00000 
-7.04857e-05  7.58886e-04        00000 
-5.27965e-05  6.86443e-04        00000 
-4.35590e-05  6.25262e-04        00000 
-3.98325e-05  5.74991e-04        00000 
-3.90259e-05  5.35037e-04        00000 
-3.88708e-05  5.04576e-04        00000 
-3.73807e-05  4.82524e-04        00000 
-3.27955e-05  4.67472e-04        00000 
-2.35061e-05  4.57601e-04        00000 
-7.98913e-06  4.50604e-04        00000 
 1.52919e-05  4.43591e-04        00000 
 4.79458e-05  4.33061e-04        00000 
-3.38912e-03  1.47868e-03        00000 
-3.49792e-03  1.70946e-03        00000 
-3.45554e-03  1.91718e-03        00000 
-3.28468e-03  2.08319e-03        00000 
-3.01409e-03  2.19548e-03        00000 
-2.67567e-03  2.24801e-03        00000 
-2.30030e-03  2.24173e-03        00000 
-1.91550e-03  2.18146e-03        00000 
-1.54424e-03  2.07644e-03        00000 
-1.20335e-03  1.93729e-03        00000 
-9.04251e-04  1.77572e-03        00000 
-6.52669e-04  1.60283e-03        00000 
-4.49716e-04  1.42833e-03        00000 
-2.92838e-04  1.25989e-03        00000 
-1.77033e-04  1.10287e-03        00000 
-9.60847e-05  9.60540e-04        00000 
-4.35176e-05  8.34445e-04        00000 
-1.32005e-05  7.24928e-04        00000 
 3.61600e-07  6.31553e-04        00000 
 1.94772e-06  5.53447e-04        00000 
-4.32857e-06  4.89524e-04        00000 
-1.49033e-05  4.38614e-04        00000 
-2.66221e-05  3.99511e-04        00000 
-3.66012e-05  3.70953e-04        00000 
-4.21026e-05  3.51564e-04        00000 
-4.04275e-05  3.39763e-04        00000 
-2.88333e-05  3.33661e-04        00000 
-4.46196e-06  3.30965e-04        00000 
 3.57120e-05  3.28892e-04        00000 
 9.49320e-05  3.24092e-04        00000 
-4.59620e-03  1.85516e-03        00000 
-4.65560e-03  2.15614e-03        00000 
-4.49305e-03  2.41425e-03        00000 
-4.15118e-03  2.60140e-03        00000 
-3.68379e-03  2.70097e-03        00000 
-3.14243e-03  2.71142e-03        00000 
-2.57529e-03  2.63578e-03        00000 
-2.02327e-03  2.48936e-03        00000 
-1.51581e-03  2.28738e-03        00000 
-1.07485e-03  2.05009e-03        00000 
-7.11002e-04  1.79649e-03        00000 
-4.26682e-04  1.54376e-03        00000 
-2.16698e-04  1.30521e-03        00000 
-7.08779e-05  1.08921e-03        00000 
 2.28173e-05  8.99662e-04        00000 
 7.61070e-05  7.37230e-04        00000 
 9.92715e-05  6.00570e-04        00000 
 1.00798e-04  4.87309e-04        00000 
 8.74606e-05  3.94725e-04        00000 
 6.46054e-05  3.20167e-04        00000 
 3.65110e-05  2.61270e-04        00000 
 6.74742e-06  2.16026e-04        00000 
-2.15017e-05  1.82758e-04        00000 
-4.51710e-05  1.60022e-04        00000 
-6.11053e-05  1.46470e-04        00000 
-6.59194e-05  1.40687e-04        00000 
-5.59109e-05  1.41035e-04        00000 
-2.70265e-05  1.45504e-04        00000 
 2.51472e-05  1.51610e-04        00000 
 1.05386e-04  1.56309e-04        00000 
-6.23470e-03  2.18835e-03        00000 
-6.18035e-03  2.59908e-03        00000 
-5.78794e-03  2.92647e-03        00000 
-5.15722e-03  3.13226e-03        00000 
-4.37180e-03  3.20644e-03        00000 
-3.52369e-03  3.13917e-03        00000 
-2.68498e-03  2.96035e-03        00000 
-1.90574e-03  2.68038e-03        00000 
-1.23443e-03  2.33773e-03        00000 
-6.92081e-04  1.96370e-03        00000 
-2.88614e-04  1.59310e-03        00000 
-1.32264e-05  1.25307e-03        00000 
 1.57515e-04  9.58032e-04        00000 
 2.49555e-04  7.11941e-04        00000 
 2.85821e-04  5.12281e-04        00000 
 2.84437e-04  3.53392e-04        00000 
 2.58806e-04  2.28617e-04        00000 
 2.18418e-04  1.31521e-04        00000 
 1.69805e-04  5.64989e-05        00000 
 1.17435e-04 -9.89487e-07        00000 
 6.44888e-05 -4.43977e-05        00000 
 1.34905e-05 -7.61946e-05        00000 
-3.31734e-05 -9.80426e-05        00000 
-7.28653e-05 -1.11028e-04        00000 
-1.02422e-04 -1.15917e-04        00000 
-1.17975e-04 -1.13419e-04        00000 
-1.14911e-04 -1.04470e-04        00000 
-8.79106e-05 -9.04269e-05        00000 
-3.10657e-05 -7.32670e-05        00000 
 6.19721e-05 -5.56194e-05        00000 
-8.56749e-03  2.36466e-03        00000 
-8.23748e-03  2.92800e-03        00000 
-7.44273e-03  3.35860e-03        00000 
-6.30222e-03  3.60079e-03        00000 
-5.03851e-03  3.61425e-03        00000 
-3.74259e-03  3.47950e-03        00000 
-2.48962e-03  3.12849e-03        00000 
-1.40574e-03  2.65480e-03        00000 
-5.33515e-04  2.08844e-03        00000 
 6.60160e-05  1.52188e-03        00000 
 4.18700e-04  1.02450e-03        00000 
 5.89228e-04  6.22715e-04        00000 
 6.40119e-04  3.15299e-04        00000 
 6.18772e-04  8.88483e-05        00000 
 5.57470e-04 -7.32865e-05        00000 
 4.76802e-04 -1.86853e-04        00000 
 3.89139e-04 -2.65124e-04        00000 
 3.01390e-04 -3.18556e-04        00000 
 2.16996e-04 -3.54964e-04        00000 
 1.37358e-04 -3.79875e-04        00000 
 6.28669e-05 -3.96902e-04        00000 
-6.31125e-06 -4.08089e-04        00000 
-6.95954e-05 -4.14231e-04        00000 
-1.25474e-04 -4.15218e-04        00000 
-1.71155e-04 -4.10429e-04        00000 
-2.02428e-04 -3.99150e-04        00000 
-2.13538e-04 -3.80898e-04        00000 
-1.97444e-04 -3.55952e-04        00000 
-1.46159e-04 -3.25470e-04        00000 
-5.12333e-05 -2.91780e-04        00000 
-1.20436e-02  1.90630e-03        00000 
-1.11430e-02  2.84415e-03        00000 
-9.44737e-03  3.39464e-03        00000 
-7.73763e-03  3.68716e-03        00000 
-5.77729e-03  3.96039e-03        00000 
-3.66718e-03  3.66308e-03        00000 
-1.74234e-03  3.13008e-03        00000 
-8.92175e-05  2.18837e-03        00000 
 8.83485e-04  1.22305e-03        00000 
 1.29445e-03  4.52799e-04        00000 
 1.37035e-03 -8.85906e-05        00000 
 1.27627e-03 -4.39144e-04        00000 
 1.10914e-03 -6.49653e-04        00000 
 9.21184e-04 -7.64275e-04        00000 
 7.38650e-04 -8.16678e-04        00000 
 5.73182e-04 -8.30997e-04        00000 
 4.28397e-04 -8.23869e-04        00000 
 3.03641e-04 -8.06392e-04        00000 
 1.96132e-04 -7.85677e-04        00000 
 1.02211e-04 -7.65969e-04        00000 
 1.81124e-05 -7.49400e-04        00000 
-5.94494e-05 -7.36439e-04        00000 
-1.32715e-04 -7.26166e-04        00000 
-2.02206e-04 -7.16463e-04        00000 
-2.65984e-04 -7.04347e-04        00000 
-3.19268e-04 -6.86674e-04        00000 
-3.54947e-04 -6.60988e-04        00000 
-3.63161e-04 -6.25410e-04        00000 
-3.32204e-04 -5.80203e-04        00000 
-2.49921e-04 -5.27324e-04        00000 
-1.71076e-02  3.19959e-04        00000 
-1.41718e-02  5.85732e-04        00000 
-1.29897e-02  1.81721e-03        00000 
-1.04931e-02  3.99797e-03        00000 
-7.05775e-03  4.45280e-03        00000 
-3.00272e-03  4.60208e-03        00000 
 1.22243e-03  2.45964e-03        00000 
 2.92135e-03  4.07795e-04        00000 
 3.11741e-03 -8.75086e-04        00000 
 2.75205e-03 -1.53507e-03        00000 
 2.24699e-03 -1.80966e-03        00000 
 1.75758e-03 -1.86778e-03        00000 
 1.33387e-03 -1.81284e-03        00000 
 9.85833e-04 -1.70541e-03        00000 
 7.08248e-04 -1.57992e-03        00000 
 4.90656e-04 -1.45528e-03        00000 
 3.21531e-04 -1.34126e-03        00000 
 1.89903e-04 -1.24242e-03        00000 
 8.58754e-05 -1.16039e-03        00000 
 6.66148e-07 -1.09522e-03        00000 
-7.34981e-05 -1.04594e-03        00000 
-1.43440e-04 -1.01089e-03        00000 
-2.14868e-04 -9.87490e-04        00000 
-2.91779e-04 -9.71952e-04        00000 
-3.75078e-04 -9.58779e-04        00000 
-4.60221e-04 -9.40805e-04        00000 
-5.35747e-04 -9.11222e-04        00000 
-5.88669e-04 -8.67580e-04        00000 
-6.01669e-04 -8.06655e-04        00000 
-5.53231e-04 -7.30974e-04        00000 
-2.13202e-02 -1.39458e-02        00000 
-2.17427e-02 -6.25708e-03        00000 
-2.26412e-02  1.95671e-03        00000 
-2.04332e-02  7.00952e-03        00000 
-8.36929e-03  1.21411e-02        00000 
 6.91806e-03  3.29029e-03        00000 
 8.83871e-03 -2.32004e-03        00000 
 6.95774e-03 -4.23450e-03        00000 
 4.97542e-03 -4.49100e-03        00000 
 3.47731e-03 -4.16745e-03        00000 
 2.39968e-03 -3.68651e-03        00000 
 1.62783e-03 -3.20424e-03        00000 
 1.07521e-03 -2.77509e-03        00000 
 6.80420e-04 -2.41307e-03        00000 
 3.99558e-04 -2.11595e-03        00000 
 2.00917e-04 -1.87574e-03        00000 
 6.12905e-05 -1.68323e-03        00000 
-3.66602e-05 -1.52996e-03        00000 
-1.06336e-04 -1.40891e-03        00000 
-1.58618e-04 -1.31463e-03        00000 
-2.02931e-04 -1.24306e-03        00000 
-2.48025e-04 -1.19121e-03        00000 
-3.02496e-04 -1.15666e-03        00000 
-3.74924e-04 -1.13667e-03        00000 
-4.73163e-04 -1.12669e-03        00000 
-6.01165e-04 -1.11774e-03        00000 
-7.48863e-04 -1.09342e-03        00000 
-8.78563e-04 -1.03604e-03        00000 
-9.66370e-04 -9.57080e-04        00000 
-9.92825e-04 -8.52293e-04        00000 
 4.44171e-02  2.40634e-02        00000 
-5.29789e-02 -5.20719e-03        00000 
-7.90581e-02  2.92922e-02        00000 
-2.63175e-02  5.17327e-02        00000 
 3.86200e-02 -3.21730e-03        00000 
 2.59177e-02 -1.60639e-02        00000 
 1.31089e-02 -1.36983e-02        00000 
 6.98885e-03 -1.00292e-02        00000 
 4.04762e-03 -7.36166e-03        00000 
 2.42005e-03 -5.56497e-03        00000 
 1.42275e-03 -4.34227e-03        00000 
 7.82577e-04 -3.49605e-03        00000 
 3.63890e-04 -2.90159e-03        00000 
 8.88540e-05 -2.47754e-03        00000 
-9.04686e-05 -2.16961e-03        00000 
-2.04878e-04 -1.94111e-03        00000 
-2.74945e-04 -1.76714e-03        00000 
-3.15057e-04 -1.63071e-03        00000 
-3.35931e-04 -1.52030e-03        00000 
-3.46276e-04 -1.42824e-03        00000 
-3.53994e-04 -1.34973e-03        00000 
-3.67155e-04 -1.28223e-03        00000 
-3.94910e-04 -1.22518e-03        00000 
-4.48488e-04 -1.17985e-03        00000 
-5.42552e-04 -1.14899e-03        00000 
-6.97130e-04 -1.13519e-03        00000 
-9.37359e-04 -1.13310e-03        00000 
-1.25694e-03 -1.10153e-03        00000 
-1.48804e-03 -9.51248e-04        00000 
-1.57678e-03 -7.90317e-04        00000 
 1.70340e-02  2.43924e-01        00000 
 6.15224e-02  2.66417e-01        00000 
-1.77252e-01  2.28025e-02        00000 
 1.24977e-01 -1.88750e-01        00000 
 4.08115e-02 -7.93251e-02        00000 
 1.10951e-02 -2.40509e-02        00000 
 4.51565e-03 -9.13588e-03        00000 
 2.49535e-03 -5.09544e-03        00000 
 1.40755e-03 -3.52265e-03        00000 
 6.98141e-04 -2.70923e-03        00000 
 2.31008e-04 -2.26010e-03        00000 
-7.57845e-05 -2.01335e-03        00000 
-2.76110e-04 -1.87832e-03        00000 
-4.04274e-04 -1.80248e-03        00000 
-4.82382e-04 -1.75579e-03        00000 
-5.25288e-04 -1.72106e-03        00000 
-5.43519e-04 -1.68823e-03        00000 
-5.45039e-04 -1.65112e-03        00000 
-5.36396e-04 -1.60558e-03        00000 
-5.23554e-04 -1.54845e-03        00000 
-5.12599e-04 -1.47704e-03        00000 
-5.10428e-04 -1.38894e-03        00000 
-5.25556e-04 -1.28216e-03        00000 
-5.69135e-04 -1.15551e-03        00000 
-6.56391e-04 -1.01008e-03        00000 
-8.09411e-04 -8.53626e-04        00000 
-1.06499e-03 -7.16340e-04        00000 
-1.50721e-03 -6.90644e-04        00000 
-2.18270e-03 -8.72145e-04        00000 
-2.24083e-03 -8.12676e-04        00000 
-2.64508e-03  7.84880e-03        00000 
-2.38553e-02  3.08699e-02        00000 
 1.56791e-01 -6.18935e-02        00000 
-5.65735e-02 -1.06192e-01        00000 
-6.73779e-03 -4.64411e-03        00000 
 2.03428e-03  9.93802e-03        00000 
 1.58462e-03  4.35969e-03        00000 
 6.34882e-04  1.40540e-03        00000 
 2.18539e-04  5.75277e-04        00000 
 3.59211e-05  3.46140e-04        00000 
-6.84334e-05  2.39956e-04        00000 
-1.40303e-04  1.66795e-04        00000 
-1.90895e-04  1.12998e-04        00000 
-2.24672e-04  7.39350e-05        00000 
-2.45044e-04  4.58483e-05        00000 
-2.55059e-04  2.57632e-05        00000 
-2.57410e-04  1.15653e-05        00000 
-2.54483e-04  1.85891e-06        00000 
-2.48485e-04 -4.19982e-06        00000 
-2.41622e-04 -7.02490e-06        00000 
-2.36298e-04 -6.66602e-06        00000 
-2.35397e-04 -2.81157e-06        00000 
-2.42679e-04  5.32426e-06        00000 
-2.63450e-04  1.94659e-05        00000 
-3.05694e-04  4.38407e-05        00000 
-3.81619e-04  8.88197e-05        00000 
-5.04631e-04  1.69993e-04        00000 
-6.80960e-04  2.49913e-04        00000 
-8.12583e-04  4.54414e-05        00000 
-1.48117e-03 -7.29494e-04        00000 
 1.09316e-01 -6.64090e-02        00000 
-5.07102e-03 -8.36237e-03        00000 
-3.78326e-02  9.06840e-03        00000 
-2.49514e-02  1.57259e-02        00000 
 1.50974e-02  1.59143e-02        00000 
 3.02388e-03  9.09936e-04        00000 
-1.98369e-04 -1.88337e-03        00000 
-4.16043e-04 -9.88506e-04        00000 
-1.82928e-04 -3.17412e-04        00000 
-5.58134e-05 -7.45873e-05        00000 
-5.97624e-06  8.70933e-06        00000 
 1.57290e-05  5.17880e-05        00000 
 2.83575e-05  8.33974e-05        00000 
 3.69330e-05  1.08077e-04        00000 
 4.27596e-05  1.26669e-04        00000 
 4.64485e-05  1.39892e-04        00000 
 4.85250e-05  1.48463e-04        00000 