<?xml version="1.0" encoding="utf-8"?>
<VTKFile byte_order="LittleEndian" type="UnstructuredGrid" version="0.1">
   <UnstructuredGrid>
      <Piece NumberOfCells="3364" NumberOfPoints="1741">
         <Points>
            <DataArray Name="Points" NumberOfComponents="3" format="ascii" type="Float32">
0.0000 1.0000 0.0000
0.0000 1.0345 0.0000
0.0000 1.0690 0.0000
0.0000 1.1034 0.0000
0.0000 1.1379 0.0000
0.0000 1.1724 0.0000
0.0000 1.2069 0.0000
0.0000 1.2414 0.0000
0.0000 1.2759 0.0000
0.0000 1.3103 0.0000
0.0000 1.3448 0.0000
0.0000 1.3793 0.0000
0.0000 1.4138 0.0000
0.0000 1.4483 0.0000
0.0000 1.4828 0.0000
0.0000 1.5172 0.0000
0.0000 1.5517 0.0000
0.0000 1.5862 0.0000
0.0000 1.6207 0.0000
0.0000 1.6552 0.0000
0.0000 1.6897 0.0000
0.0000 1.7241 0.0000
0.0000 1.7586 0.0000
0.0000 1.7931 0.0000
0.0000 1.8276 0.0000
0.0000 1.8621 0.0000
0.0000 1.8966 0.0000
0.0000 1.9310 0.0000
0.0000 1.9655 0.0000
0.0000 2.0000 0.0000
0.0690 1.0000 0.0000
0.0690 1.0345 0.0000
0.0690 1.0690 0.0000
0.0690 1.1034 0.0000
0.0690 1.1379 0.0000
0.0690 1.1724 0.0000
0.0690 1.2069 0.0000
0.0690 1.2414 0.0000
0.0690 1.2759 0.0000
0.0690 1.3103 0.0000
0.0690 1.3448 0.0000
0.0690 1.3793 0.0000
0.0690 1.4138 0.0000
0.0690 1.4483 0.0000
0.0690 1.4828 0.0000
0.0690 1.5172 0.0000
0.0690 1.5517 0.0000
0.0690 1.5862 0.0000
0.0690 1.6207 0.0000
0.0690 1.6552 0.0000
0.0690 1.6897 0.0000
0.0690 1.7241 0.0000
0.0690 1.7586 0.0000
0.0690 1.7931 0.0000
0.0690 1.8276 0.0000
0.0690 1.8621 0.0000
0.0690 1.8966 0.0000
0.0690 1.9310 0.0000
0.0690 1.9655 0.0000
0.0690 2.0000 0.0000
0.1379 1.0000 0.0000
0.1379 1.0345 0.0000
0.1379 1.0690 0.0000
0.1379 1.1034 0.0000
0.1379 1.1379 0.0000
0.1379 1.1724 0.0000
0.1379 1.2069 0.0000
0.1379 1.2414 0.0000
0.1379 1.2759 0.0000
0.1379 1.3103 0.0000
0.1379 1.3448 0.0000
0.1379 1.3793 0.0000
0.1379 1.4138 0.0000
0.1379 1.4483 0.0000
0.1379 1.4828 0.0000
0.1379 1.5172 0.0000
0.1379 1.5517 0.0000
0.1379 1.5862 0.0000
0.1379 1.6207 0.0000
0.1379 1.6552 0.0000
0.1379 1.6897 0.0000
0.1379 1.7241 0.0000
0.1379 1.7586 0.0000
0.1379 1.7931 0.0000
0.1379 1.8276 0.0000
0.1379 1.8621 0.0000
0.1379 1.8966 0.0000
0.1379 1.9310 0.0000
0.1379 1.9655 0.0000
0.1379 2.0000 0.0000
0.2069 1.0000 0.0000
0.2069 1.0345 0.0000
0.2069 1.0690 0.0000
0.2069 1.1034 0.0000
0.2069 1.1379 0.0000
0.2069 1.1724 0.0000
0.2069 1.2069 0.0000
0.2069 1.2414 0.0000
0.2069 1.2759 0.0000
0.2069 1.3103 0.0000
0.2069 1.3448 0.0000
0.2069 1.3793 0.0000
0.2069 1.4138 0.0000
0.2069 1.4483 0.0000
0.2069 1.4828 0.0000
0.2069 1.5172 0.0000
0.2069 1.5517 0.0000
0.2069 1.5862 0.0000
0.2069 1.6207 0.0000
0.2069 1.6552 0.0000
0.2069 1.6897 0.0000
0.2069 1.7241 0.0000
0.2069 1.7586 0.0000
0.2069 1.7931 0.0000
0.2069 1.8276 0.0000
0.2069 1.8621 0.0000
0.2069 1.8966 0.0000
0.2069 1.9310 0.0000
0.2069 1.9655 0.0000
0.2069 2.0000 0.0000
0.2759 1.0000 0.0000
0.2759 1.0345 0.0000
0.2759 1.0690 0.0000
0.2759 1.1034 0.0000
0.2759 1.1379 0.0000
0.2759 1.1724 0.0000
0.2759 1.2069 0.0000
0.2759 1.2414 0.0000
0.2759 1.2759 0.0000
0.2759 1.3103 0.0000
0.2759 1.3448 0.0000
0.2759 1.3793 0.0000
0.2759 1.4138 0.0000
0.2759 1.4483 0.0000
0.2759 1.4828 0.0000
0.2759 1.5172 0.0000
0.2759 1.5517 0.0000
0.2759 1.5862 0.0000
0.2759 1.6207 0.0000
0.2759 1.6552 0.0000
0.2759 1.6897 0.0000
0.2759 1.7241 0.0000
0.2759 1.7586 0.0000
0.2759 1.7931 0.0000
0.2759 1.8276 0.0000
0.2759 1.8621 0.0000
0.2759 1.8966 0.0000
0.2759 1.9310 0.0000
0.2759 1.9655 0.0000
0.2759 2.0000 0.0000
0.3448 1.0000 0.0000
0.3448 1.0345 0.0000
0.3448 1.0690 0.0000
0.3448 1.1034 0.0000
0.3448 1.1379 0.0000
0.3448 1.1724 0.0000
0.3448 1.2069 0.0000
0.3448 1.2414 0.0000
0.3448 1.2759 0.0000
0.3448 1.3103 0.0000
0.3448 1.3448 0.0000
0.3448 1.3793 0.0000
0.3448 1.4138 0.0000
0.3448 1.4483 0.0000
0.3448 1.4828 0.0000
0.3448 1.5172 0.0000
0.3448 1.5517 0.0000
0.3448 1.5862 0.0000
0.3448 1.6207 0.0000
0.3448 1.6552 0.0000
0.3448 1.6897 0.0000
0.3448 1.7241 0.0000
0.3448 1.7586 0.0000
0.3448 1.7931 0.0000
0.3448 1.8276 0.0000
0.3448 1.8621 0.0000
0.3448 1.8966 0.0000
0.3448 1.9310 0.0000
0.3448 1.9655 0.0000
0.3448 2.0000 0.0000
0.4138 1.0000 0.0000
0.4138 1.0345 0.0000
0.4138 1.0690 0.0000
0.4138 1.1034 0.0000
0.4138 1.1379 0.0000
0.4138 1.1724 0.0000
0.4138 1.2069 0.0000
0.4138 1.2414 0.0000
0.4138 1.2759 0.0000
0.4138 1.3103 0.0000
0.4138 1.3448 0.0000
0.4138 1.3793 0.0000
0.4138 1.4138 0.0000
0.4138 1.4483 0.0000
0.4138 1.4828 0.0000
0.4138 1.5172 0.0000
0.4138 1.5517 0.0000
0.4138 1.5862 0.0000
0.4138 1.6207 0.0000
0.4138 1.6552 0.0000
0.4138 1.6897 0.0000
0.4138 1.7241 0.0000
0.4138 1.7586 0.0000
0.4138 1.7931 0.0000
0.4138 1.8276 0.0000
0.4138 1.8621 0.0000
0.4138 1.8966 0.0000
0.4138 1.9310 0.0000
0.4138 1.9655 0.0000
0.4138 2.0000 0.0000
0.4828 1.0000 0.0000
0.4828 1.0345 0.0000
0.4828 1.0690 0.0000
0.4828 1.1034 0.0000
0.4828 1.1379 0.0000
0.4828 1.1724 0.0000
0.4828 1.2069 0.0000
0.4828 1.2414 0.0000
0.4828 1.2759 0.0000
0.4828 1.3103 0.0000
0.4828 1.3448 0.0000
0.4828 1.3793 0.0000
0.4828 1.4138 0.0000
0.4828 1.4483 0.0000
0.4828 1.4828 0.0000
0.4828 1.5172 0.0000
0.4828 1.5517 0.0000
0.4828 1.5862 0.0000
0.4828 1.6207 0.0000
0.4828 1.6552 0.0000
0.4828 1.6897 0.0000
0.4828 1.7241 0.0000
0.4828 1.7586 0.0000
0.4828 1.7931 0.0000
0.4828 1.8276 0.0000
0.4828 1.8621 0.0000
0.4828 1.8966 0.0000
0.4828 1.9310 0.0000
0.4828 1.9655 0.0000
0.4828 2.0000 0.0000
0.5517 1.0000 0.0000
0.5517 1.0345 0.0000
0.5517 1.0690 0.0000
0.5517 1.1034 0.0000
0.5517 1.1379 0.0000
0.5517 1.1724 0.0000
0.5517 1.2069 0.0000
0.5517 1.2414 0.0000
0.5517 1.2759 0.0000
0.5517 1.3103 0.0000
0.5517 1.3448 0.0000
0.5517 1.3793 0.0000
0.5517 1.4138 0.0000
0.5517 1.4483 0.0000
0.5517 1.4828 0.0000
0.5517 1.5172 0.0000
0.5517 1.5517 0.0000
0.5517 1.5862 0.0000
0.5517 1.6207 0.0000
0.5517 1.6552 0.0000
0.5517 1.6897 0.0000
0.5517 1.7241 0.0000
0.5517 1.7586 0.0000
0.5517 1.7931 0.0000
0.5517 1.8276 0.0000
0.5517 1.8621 0.0000
0.5517 1.8966 0.0000
0.5517 1.9310 0.0000
0.5517 1.9655 0.0000
0.5517 2.0000 0.0000
0.6207 1.0000 0.0000
0.6207 1.0345 0.0000
0.6207 1.0690 0.0000
0.6207 1.1034 0.0000
0.6207 1.1379 0.0000
0.6207 1.1724 0.0000
0.6207 1.2069 0.0000
0.6207 1.2414 0.0000
0.6207 1.2759 0.0000
0.6207 1.3103 0.0000
0.6207 1.3448 0.0000
0.6207 1.3793 0.0000
0.6207 1.4138 0.0000
0.6207 1.4483 0.0000
0.6207 1.4828 0.0000
0.6207 1.5172 0.0000
0.6207 1.5517 0.0000
0.6207 1.5862 0.0000
0.6207 1.6207 0.0000
0.6207 1.6552 0.0000
0.6207 1.6897 0.0000
0.6207 1.7241 0.0000
0.6207 1.7586 0.0000
0.6207 1.7931 0.0000
0.6207 1.8276 0.0000
0.6207 1.8621 0.0000
0.6207 1.8966 0.0000
0.6207 1.9310 0.0000
0.6207 1.9655 0.0000
0.6207 2.0000 0.0000
0.6897 1.0000 0.0000
0.6897 1.0345 0.0000
0.6897 1.0690 0.0000
0.6897 1.1034 0.0000
0.6897 1.1379 0.0000
0.6897 1.1724 0.0000
0.6897 1.2069 0.0000
0.6897 1.2414 0.0000
0.6897 1.2759 0.0000
0.6897 1.3103 0.0000
0.6897 1.3448 0.0000
0.6897 1.3793 0.0000
0.6897 1.4138 0.0000
0.6897 1.4483 0.0000
0.6897 1.4828 0.0000
0.6897 1.5172 0.0000
0.6897 1.5517 0.0000
0.6897 1.5862 0.0000
0.6897 1.6207 0.0000
0.6897 1.6552 0.0000
0.6897 1.6897 0.0000
0.6897 1.7241 0.0000
0.6897 1.7586 0.0000
0.6897 1.7931 0.0000
0.6897 1.8276 0.0000
0.6897 1.8621 0.0000
0.6897 1.8966 0.0000
0.6897 1.9310 0.0000
0.6897 1.9655 0.0000
0.6897 2.0000 0.0000
0.7586 1.0000 0.0000
0.7586 1.0345 0.0000
0.7586 1.0690 0.0000
0.7586 1.1034 0.0000
0.7586 1.1379 0.0000
0.7586 1.1724 0.0000
0.7586 1.2069 0.0000
0.7586 1.2414 0.0000
0.7586 1.2759 0.0000
0.7586 1.3103 0.0000
0.7586 1.3448 0.0000
0.7586 1.3793 0.0000
0.7586 1.4138 0.0000
0.7586 1.4483 0.0000
0.7586 1.4828 0.0000
0.7586 1.5172 0.0000
0.7586 1.5517 0.0000
0.7586 1.5862 0.0000
0.7586 1.6207 0.0000
0.7586 1.6552 0.0000
0.7586 1.6897 0.0000
0.7586 1.7241 0.0000
0.7586 1.7586 0.0000
0.7586 1.7931 0.0000
0.7586 1.8276 0.0000
0.7586 1.8621 0.0000
0.7586 1.8966 0.0000
0.7586 1.9310 0.0000
0.7586 1.9655 0.0000
0.7586 2.0000 0.0000
0.8276 1.0000 0.0000
0.8276 1.0345 0.0000
0.8276 1.0690 0.0000
0.8276 1.1034 0.0000
0.8276 1.1379 0.0000
0.8276 1.1724 0.0000
0.8276 1.2069 0.0000
0.8276 1.2414 0.0000
0.8276 1.2759 0.0000
0.8276 1.3103 0.0000
0.8276 1.3448 0.0000
0.8276 1.3793 0.0000
0.8276 1.4138 0.0000
0.8276 1.4483 0.0000
0.8276 1.4828 0.0000
0.8276 1.5172 0.0000
0.8276 1.5517 0.0000
0.8276 1.5862 0.0000
0.8276 1.6207 0.0000
0.8276 1.6552 0.0000
0.8276 1.6897 0.0000
0.8276 1.7241 0.0000
0.8276 1.7586 0.0000
0.8276 1.7931 0.0000
0.8276 1.8276 0.0000
0.8276 1.8621 0.0000
0.8276 1.8966 0.0000
0.8276 1.9310 0.0000
0.8276 1.9655 0.0000
0.8276 2.0000 0.0000
0.8966 1.0000 0.0000
0.8966 1.0345 0.0000
0.8966 1.0690 0.0000
0.8966 1.1034 0.0000
0.8966 1.1379 0.0000
0.8966 1.1724 0.0000
0.8966 1.2069 0.0000
0.8966 1.2414 0.0000
0.8966 1.2759 0.0000
0.8966 1.3103 0.0000
0.8966 1.3448 0.0000
0.8966 1.3793 0.0000
0.8966 1.4138 0.0000
0.8966 1.4483 0.0000
0.8966 1.4828 0.0000
0.8966 1.5172 0.0000
0.8966 1.5517 0.0000
0.8966 1.5862 0.0000
0.8966 1.6207 0.0000
0.8966 1.6552 0.0000
0.8966 1.6897 0.0000
0.8966 1.7241 0.0000
0.8966 1.7586 0.0000
0.8966 1.7931 0.0000
0.8966 1.8276 0.0000
0.8966 1.8621 0.0000
0.8966 1.8966 0.0000
0.8966 1.9310 0.0000
0.8966 1.9655 0.0000
0.8966 2.0000 0.0000
0.9655 1.0000 0.0000
0.9655 1.0345 0.0000
0.9655 1.0690 0.0000
0.9655 1.1034 0.0000
0.9655 1.1379 0.0000
0.9655 1.1724 0.0000
0.9655 1.2069 0.0000
0.9655 1.2414 0.0000
0.9655 1.2759 0.0000
0.9655 1.3103 0.0000
0.9655 1.3448 0.0000
0.9655 1.3793 0.0000
0.9655 1.4138 0.0000
0.9655 1.4483 0.0000
0.9655 1.4828 0.0000
0.9655 1.5172 0.0000
0.9655 1.5517 0.0000
0.9655 1.5862 0.0000
0.9655 1.6207 0.0000
0.9655 1.6552 0.0000
0.9655 1.6897 0.0000
0.9655 1.7241 0.0000
0.9655 1.7586 0.0000
0.9655 1.7931 0.0000
0.9655 1.8276 0.0000
0.9655 1.8621 0.0000
0.9655 1.8966 0.0000
0.9655 1.9310 0.0000
0.9655 1.9655 0.0000
0.9655 2.0000 0.0000
1.0345 1.0000 0.0000
1.0345 1.0345 0.0000
1.0345 1.0690 0.0000
1.0345 1.1034 0.0000
1.0345 1.1379 0.0000
1.0345 1.1724 0.0000
1.0345 1.2069 0.0000
1.0345 1.2414 0.0000
1.0345 1.2759 0.0000
1.0345 1.3103 0.0000
1.0345 1.3448 0.0000
[...]
         <PointData>
            <DataArray Name="fValues" NumberOfComponents="3" format="ascii" type="Float64">
-1.20004e-20 -2.97502e-20        00000 
 2.87470e-21  2.87470e-20        00000 
-1.77670e-21 -5.11691e-20        00000 
 6.19463e-22 -1.46439e-20        00000 
 9.99396e-22  2.55845e-20        00000 
-3.10731e-21 -3.43534e-20        00000 
 6.55159e-21        00000        00000 
 1.30589e-21 -4.10743e-21        00000 
-1.42136e-21  8.52818e-21        00000 
-1.58282e-20 -3.05586e-20        00000 
-8.52818e-21  3.41127e-20        00000 
-1.28580e-20 -1.47555e-20        00000 
 2.84273e-21  8.88352e-21        00000 
 6.17298e-21 -7.90513e-21        00000 
 1.13709e-20  2.13204e-21        00000 
-2.69662e-20  2.41088e-21        00000 
 3.41127e-20 -1.98991e-20        00000 
-2.50837e-20  3.10514e-20        00000 
-8.52818e-21  2.84273e-21        00000 
 1.33938e-20 -9.10777e-21        00000 
-1.98991e-20  1.42136e-20        00000 
-1.25388e-20  1.50357e-20        00000 
 9.94954e-21 -3.69554e-20        00000 
-4.82176e-21  2.60732e-20        00000 
-4.26409e-21 -1.13709e-20        00000 
 5.50639e-21  2.62963e-21        00000 
 1.42136e-21 -2.55845e-20        00000 
-4.47292e-21  3.11315e-20        00000 
-3.40469e-21  6.45099e-21        00000 
-6.66997e-21  3.59930e-20        00000 
-6.67339e-05 -2.03875e-04        00000 
 7.05118e-06 -2.06898e-04        00000 
 2.93171e-05 -2.21807e-04        00000 
 2.96044e-05 -2.38238e-04        00000 
 1.72362e-05 -2.50446e-04        00000 
-2.78647e-06 -2.55418e-04        00000 
-2.70683e-05 -2.51754e-04        00000 
-5.30155e-05 -2.39148e-04        00000 
-7.85721e-05 -2.18086e-04        00000 
-1.02130e-04 -1.89624e-04        00000 
-1.22496e-04 -1.55207e-04        00000 
-1.38863e-04 -1.16499e-04        00000 
-1.50782e-04 -7.52368e-05        00000 
-1.58122e-04 -3.31048e-05        00000 
-1.61015e-04  8.36105e-06        00000 
-1.59800e-04  4.78439e-05        00000 
-1.54971e-04  8.42860e-05        00000 
-1.47114e-04  1.16903e-04        00000 
-1.36872e-04  1.45175e-04        00000 
-1.24901e-04  1.68822e-04        00000 
-1.11862e-04  1.87773e-04        00000 
-9.84102e-05  2.02125e-04        00000 
-8.52299e-05  2.12121e-04        00000 
-7.30834e-05  2.18145e-04        00000 
-6.29216e-05  2.20758e-04        00000 
-5.60906e-05  2.20820e-04        00000 
-5.47636e-05  2.19758e-04        00000 
-6.30075e-05  2.20177e-04        00000 
-9.00919e-05  2.27235e-04        00000 
-1.70604e-04  2.50767e-04        00000 
-3.24640e-06 -4.11009e-04        00000 
 6.89349e-05 -4.35517e-04        00000 
 9.40818e-05 -4.56211e-04        00000 
 8.18368e-05 -4.72568e-04        00000 
 4.44188e-05 -4.80405e-04        00000 
-8.93070e-06 -4.76261e-04        00000 
-7.08439e-05 -4.58215e-04        00000 
-1.35298e-04 -4.25866e-04        00000 
-1.97421e-04 -3.80098e-04        00000 
-2.53426e-04 -3.22775e-04        00000 
-3.00581e-04 -2.56425e-04        00000 
-3.37151e-04 -1.83941e-04        00000 
-3.62312e-04 -1.08307e-04        00000 
-3.76028e-04 -3.23763e-05        00000 
-3.78908e-04  4.13078e-05        00000 
-3.72044e-04  1.10628e-04        00000 
-3.56852e-04  1.73960e-04        00000 
-3.34932e-04  2.30187e-04        00000 
-3.07940e-04  2.78680e-04        00000 
-2.77507e-04  3.19242e-04        00000 
-2.45189e-04  3.52043e-04        00000 
-2.12470e-04  3.77550e-04        00000 
-1.80813e-04  3.96470e-04        00000 
-1.51781e-04  4.09719e-04        00000 
-1.27247e-04  4.18427e-04        00000 
-1.09730e-04  4.23989e-04        00000 
-1.02974e-04  4.28111e-04        00000 
-1.12927e-04  4.32724e-04        00000 
-1.49293e-04  4.39004e-04        00000 
-2.17351e-04  4.42198e-04        00000 
 1.55338e-04 -5.91371e-04        00000 
 2.07393e-04 -6.34192e-04        00000 
 2.05524e-04 -6.67868e-04        00000 
 1.58419e-04 -6.87779e-04        00000 
 7.70432e-05 -6.90486e-04        00000 
-2.66225e-05 -6.73446e-04        00000 
-1.41339e-04 -6.35659e-04        00000 
-2.57246e-04 -5.77813e-04        00000 
-3.66187e-04 -5.02105e-04        00000 
-4.61878e-04 -4.11884e-04        00000 
-5.39944e-04 -3.11233e-04        00000 
-5.97845e-04 -2.04546e-04        00000 
-6.34699e-04 -9.61513e-05        00000 
-6.51033e-04  1.00024e-05        00000 
-6.48484e-04  1.10574e-04        00000 
-6.29478e-04  2.02972e-04        00000 
-5.96917e-04  2.85413e-04        00000 
-5.53903e-04  3.56903e-04        00000 
-5.03505e-04  4.17165e-04        00000 
-4.48600e-04  4.66516e-04        00000 
-3.91787e-04  5.05731e-04        00000 
-3.35385e-04  5.35902e-04        00000 
-2.81507e-04  5.58305e-04        00000 
-2.32217e-04  5.74292e-04        00000 
-1.89765e-04  5.85192e-04        00000 
-1.56881e-04  5.92212e-04        00000 
-1.37091e-04  5.96268e-04        00000 
-1.34806e-04  5.97638e-04        00000 
-1.54152e-04  5.95368e-04        00000 
-1.99348e-04  5.88544e-04        00000 
 4.14442e-04 -7.33032e-04        00000 
 4.34714e-04 -7.99566e-04        00000 
 3.83360e-04 -8.50322e-04        00000 
 2.73187e-04 -8.77589e-04        00000 
 1.19966e-04 -8.76329e-04        00000 
-5.94782e-05 -8.44364e-04        00000 
-2.48809e-04 -7.82143e-04        00000 
-4.33479e-04 -6.92451e-04        00000 
-6.01549e-04 -5.79924e-04        00000 
-7.44103e-04 -4.50463e-04        00000 
-8.55353e-04 -3.10607e-04        00000 
-9.32496e-04 -1.66924e-04        00000 
-9.75380e-04 -2.55072e-05        00000 
-9.86033e-04  1.08442e-04        00000 
-9.68118e-04  2.30874e-04        00000 
-9.26365e-04  3.39028e-04        00000 
-8.66019e-04  4.31428e-04        00000 
-7.92365e-04  5.07769e-04        00000 
-7.10352e-04  5.68722e-04        00000 
-6.24338e-04  6.15687e-04        00000 
-5.37972e-04  6.50528e-04        00000 
-4.54191e-04  6.75316e-04        00000 
-3.75336e-04  6.92105e-04        00000 
-3.03351e-04  7.02733e-04        00000 
-2.40034e-04  7.08663e-04        00000 
-1.87304e-04  7.10836e-04        00000 
-1.47395e-04  7.09538e-04        00000 
-1.22883e-04  7.04320e-04        00000 
-1.16884e-04  6.94215e-04        00000 
-1.32962e-04  6.77756e-04        00000 
 8.09578e-04 -8.23742e-04        00000 
 7.80198e-04 -9.23627e-04        00000 
 6.49146e-04 -9.98148e-04        00000 
 4.38878e-04 -1.03554e-03        00000 
 1.75005e-04 -1.02925e-03        00000 
-1.16346e-04 -9.77619e-04        00000 
-4.10788e-04 -8.83325e-04        00000 
-6.87335e-04 -7.52414e-04        00000 
-9.29448e-04 -5.93349e-04        00000 
-1.12558e-03 -4.15947e-04        00000 
-1.26915e-03 -2.30389e-04        00000 
-1.35824e-03 -4.63631e-05        00000 
-1.39494e-03  1.27721e-04        00000 
-1.38447e-03  2.85195e-04        00000 
-1.33424e-03  4.21509e-04        00000 
-1.25287e-03  5.34237e-04        00000 
-1.14927e-03  6.22972e-04        00000 
-1.03185e-03  6.88986e-04        00000 
-9.07968e-04  7.34806e-04        00000 
-7.83609e-04  7.63735e-04        00000 
-6.63246e-04  7.79400e-04        00000 
-5.49934e-04  7.85344e-04        00000 
-4.45529e-04  7.84715e-04        00000 
-3.51007e-04  7.80021e-04        00000 
-2.66819e-04  7.72970e-04        00000 
-1.93250e-04  7.64366e-04        00000 
-1.30755e-04  7.54064e-04        00000 
-8.03187e-05  7.41024e-04        00000 
-4.37848e-05  7.23399e-04        00000 
-2.42591e-05  6.98823e-04        00000 
 1.40550e-03 -8.32570e-04        00000 
 1.29287e-03 -9.81606e-04        00000 
 1.03337e-03 -1.08945e-03        00000 
 6.66990e-04 -1.13985e-03        00000 
 2.36339e-04 -1.12517e-03        00000 
-2.17582e-04 -1.04567e-03        00000 
-6.58345e-04 -9.07749e-04        00000 
-1.05613e-03 -7.22594e-04        00000 
-1.38890e-03 -5.04284e-04        00000 
-1.64265e-03 -2.68368e-04        00000 
-1.81131e-03 -3.03200e-05        00000 
-1.89589e-03  1.95913e-04        00000 
-1.90335e-03  3.98773e-04        00000 
-1.84507e-03  5.70176e-04        00000 
-1.73509e-03  7.05512e-04        00000 
-1.58850e-03  8.03850e-04        00000 
-1.41979e-03  8.67235e-04        00000 
-1.24170e-03  9.00062e-04        00000 
-1.06447e-03  9.08134e-04        00000 
-8.95455e-04  8.97810e-04        00000 
-7.39249e-04  8.75283e-04        00000 
-5.98015e-04  8.46038e-04        00000 
-4.71996e-04  8.14510e-04        00000 
-3.60076e-04  7.83906e-04        00000 
-2.60319e-04  7.56123e-04        00000 
-1.70476e-04  7.31736e-04        00000 
-8.84666e-05  7.10013e-04        00000 
-1.28679e-05  6.88957e-04        00000 
 5.65348e-05  6.65404e-04        00000 
 1.18119e-04  6.35159e-04        00000 
 2.30558e-03 -6.90692e-04        00000 
 2.04590e-03 -9.12607e-04        00000 
 1.57654e-03 -1.06744e-03        00000 
 9.67787e-04 -1.13486e-03        00000 
 2.88619e-04 -1.10839e-03        00000 
-3.98166e-04 -9.91755e-04        00000 
-1.03979e-03 -7.97619e-04        00000 
-1.59516e-03 -5.43794e-04        00000 
-2.03535e-03 -2.52611e-04        00000 
-2.34475e-03  5.22254e-05        00000 
-2.51946e-03  3.47659e-04        00000 
-2.56721e-03  6.12986e-04        00000 
-2.50445e-03  8.33070e-04        00000 
-2.35389e-03  9.97944e-04        00000 
-2.14147e-03  1.10490e-03        00000 
-1.89265e-03  1.15651e-03        00000 
-1.63038e-03  1.16025e-03        00000 
-1.37280e-03  1.12629e-03        00000 
-1.13268e-03  1.06583e-03        00000 
-9.17479e-04  9.89643e-04        00000 
-7.30043e-04  9.07057e-04        00000 
-5.69717e-04  8.25435e-04        00000 
-4.33418e-04  7.50103e-04        00000 
-3.16522e-04  6.84445e-04        00000 
-2.13557e-04  6.30056e-04        00000 
-1.18742e-04  5.86863e-04        00000 
-2.64710e-05  5.53196e-04        00000 
 6.81792e-05  5.25794e-04        00000 
 1.68851e-04  4.99777e-04        00000 
 2.77141e-04  4.68612e-04        00000 
 3.66464e-03 -2.53167e-04        00000 
 3.13924e-03 -5.81298e-04        00000 
 2.32937e-03 -8.02777e-04        00000 
 1.35134e-03 -8.98894e-04        00000 
 3.10796e-04 -8.66024e-04        00000 
-7.03986e-04 -7.14500e-04        00000 
-1.61947e-03 -4.59816e-04        00000 
-2.37884e-03 -1.29791e-04        00000 
-2.94493e-03  2.44521e-04        00000 
-3.29738e-03  6.26174e-04        00000 
-3.43940e-03  9.78094e-04        00000 
-3.39024e-03  1.27092e-03        00000 
-3.18552e-03  1.48053e-03        00000 
-2.87031e-03  1.59929e-03        00000 
-2.49049e-03  1.62758e-03        00000 
-2.09006e-03  1.57852e-03        00000 
-1.70257e-03  1.47017e-03        00000 
-1.35142e-03  1.32310e-03        00000 
-1.04898e-03  1.15668e-03        00000 
-7.98437e-04  9.86674e-04        00000 
-5.96846e-04  8.24558e-04        00000 
-4.37651e-04  6.77962e-04        00000 
-3.12378e-04  5.51417e-04        00000 
-2.11610e-04  4.47059e-04        00000 
-1.25509e-04  3.65127e-04        00000 
-4.41114e-05  3.04238e-04        00000 
 4.24381e-05  2.61449e-04        00000 
 1.43590e-04  2.32133e-04        00000 
 2.67928e-04  2.09734e-04        00000 
 4.22459e-04  1.85402e-04        00000 
 5.68938e-03  7.78050e-04        00000 
 4.69017e-03  3.03244e-04        00000 
 3.35400e-03 -1.89598e-05        00000 
 1.84971e-03 -1.84953e-04        00000 
 3.03982e-04 -1.98947e-04        00000 
-1.16568e-03 -5.50231e-05        00000 
-2.46332e-03  2.24360e-04        00000 
-3.50520e-03  6.22010e-04        00000 
-4.22298e-03  1.08193e-03        00000 
-4.59720e-03  1.54505e-03        00000 
-4.62849e-03  1.95163e-03        00000 
-4.37008e-03  2.23846e-03        00000 
-3.89705e-03  2.38593e-03        00000 
-3.29485e-03  2.37649e-03        00000 
-2.65667e-03  2.23694e-03        00000 
-2.04737e-03  1.99866e-03        00000 
-1.51509e-03  1.70324e-03        00000 
-1.08040e-03  1.38902e-03        00000 
-7.42953e-04  1.08345e-03        00000 
-4.91798e-04  8.03184e-04        00000 
-3.12067e-04  5.56846e-04        00000 
-1.88252e-04  3.47861e-04        00000 
-1.05398e-04  1.76568e-04        00000 
-4.92624e-05  4.15540e-05        00000 
-6.05389e-06 -5.96303e-05        00000 
 3.79774e-05 -1.30227e-04        00000 
 9.68469e-05 -1.74423e-04        00000 
 1.84998e-04 -1.97717e-04        00000 
 3.17182e-04 -2.07581e-04        00000 
 5.08022e-04 -2.14202e-04        00000 
 8.55071e-03  2.98383e-03        00000 
 6.78528e-03  2.33864e-03        00000 
 4.76120e-03  1.83731e-03        00000 
 2.59939e-03  1.44817e-03        00000 
 4.11736e-04  1.21159e-03        00000 
-1.72251e-03  1.15160e-03        00000 
-3.61825e-03  1.36489e-03        00000 
-5.10348e-03  1.77050e-03        00000 
-6.07251e-03  2.33440e-03        00000 
-6.40341e-03  2.91497e-03        00000 
-6.17716e-03  3.35296e-03        00000 
-5.47876e-03  3.59912e-03        00000 
-4.48167e-03  3.53855e-03        00000 
-3.40955e-03  3.25163e-03        00000 
-2.38757e-03  2.77385e-03        00000 
-1.54493e-03  2.20847e-03        00000 
-9.13643e-04  1.64485e-03        00000 
-4.69447e-04  1.13243e-03        00000 
-1.73384e-04  6.90743e-04        00000 
 1.10465e-05  3.22619e-04        00000 
 1.13669e-04  2.31407e-05        00000 
 1.58033e-04 -2.15391e-04        00000 
 1.63106e-04 -4.00878e-04        00000 
 1.45134e-04 -5.40278e-04        00000 
 1.19294e-04 -6.39350e-04        00000 
 1.00993e-04 -7.02897e-04        00000 
 1.07094e-04 -7.35255e-04        00000 
 1.56559e-04 -7.41362e-04        00000 
 2.70838e-04 -7.27655e-04        00000 
 4.73881e-04 -7.03573e-04        00000 
 1.19938e-02  7.28846e-03        00000 
 9.30986e-03  6.56491e-03        00000 
 6.82857e-03  5.74857e-03        00000 
 4.18982e-03  4.71847e-03        00000 
 1.14227e-03  3.68481e-03        00000 
-1.99144e-03  3.07422e-03        00000 
-5.06577e-03  2.81171e-03        00000 
-7.54707e-03  3.29039e-03        00000 
-8.86428e-03  4.03016e-03        00000 
-9.16301e-03  4.80265e-03        00000 
-8.21013e-03  5.41287e-03        00000 
-6.49596e-03  5.30667e-03        00000 
-4.56739e-03  4.84106e-03        00000 
-2.63639e-03  3.85872e-03        00000 
-1.22325e-03  2.73685e-03        00000 
-3.31882e-04  1.72718e-03        00000 
 1.88488e-04  9.06553e-04        00000 
 4.68837e-04  2.70975e-04        00000 
 5.96863e-04 -2.08894e-04        00000 
 6.27947e-04 -5.65898e-04        00000 
 5.96838e-04 -8.29061e-04        00000 
 5.25697e-04 -1.02156e-03        00000 
 4.29519e-04 -1.16057e-03        00000 
 3.20080e-04 -1.25780e-03        00000 
 2.09049e-04 -1.32041e-03        00000 
 1.10165e-04 -1.35240e-03        00000 
 4.01726e-05 -1.35611e-03        00000 
 2.11066e-05 -1.33260e-03        00000 
 8.09792e-05 -1.28451e-03        00000 
 2.53778e-04 -1.21684e-03        00000 
 1.44408e-02  1.43883e-02        00000 
 1.15222e-02  1.39996e-02        00000 
 9.90731e-03  1.29181e-02        00000 
 8.08266e-03  1.08267e-02        00000 
 4.63740e-03  7.92252e-03        00000 
-1.23655e-03  5.13621e-03        00000 
-6.76385e-03  4.65730e-03        00000 
-1.13721e-02  4.52258e-03        00000 
-1.44569e-02  6.16888e-03        00000 
-1.34720e-02  7.92107e-03        00000 
-1.07815e-02  7.88469e-03        00000 
-6.94368e-03  7.69847e-03        00000 
-2.34473e-03  5.28805e-03        00000 
 1.46751e-04  2.79862e-03        00000 
 1.17355e-03  9.77643e-04        00000 
 1.51421e-03 -2.21694e-04        00000 
 1.55512e-03 -9.79573e-04        00000 
 1.46399e-03 -1.44397e-03        00000 
 1.31543e-03 -1.71780e-03        00000 
 1.14366e-03 -1.87057e-03        00000 
 9.63666e-04 -1.94886e-03        00000 
 7.80690e-04 -1.98347e-03        00000 
 5.95269e-04 -1.99392e-03        00000 
 4.06682e-04 -1.99099e-03        00000 
 2.16334e-04 -1.97827e-03        00000 
 3.19234e-05 -1.95338e-03        00000 
-1.29682e-04 -1.91121e-03        00000 
-2.47667e-04 -1.84896e-03        00000 
-2.90325e-04 -1.75920e-03        00000 
-2.11190e-04 -1.63916e-03        00000 
 1.22932e-02  2.23632e-02        00000 
 1.16539e-02  2.31552e-02        00000 
 1.32238e-02  2.27871e-02        00000 
 1.47456e-02  2.10974e-02        00000 
 1.41734e-02  1.73334e-02        00000 
 8.19711e-03  1.07167e-02        00000 
-9.50325e-03  2.51763e-03        00000 
-2.17022e-02  7.22185e-03        00000 
-2.34205e-02  9.38178e-03        00000 
-2.38799e-02  1.09407e-02        00000 
-1.41096e-02  1.52102e-02        00000 
 1.25683e-03  6.43105e-03        00000 
 4.91296e-03  1.14528e-04        00000 
 4.60644e-03 -2.74523e-03        00000 
 3.74393e-03 -3.83422e-03        00000 
 2.99179e-03 -4.13608e-03        00000 
 2.39798e-03 -4.08654e-03        00000 
 1.92971e-03 -3.88225e-03        00000 
 1.55574e-03 -3.61934e-03        00000 
 1.25115e-03 -3.34725e-03        00000 
 9.95234e-04 -3.09185e-03        00000 
 7.69819e-04 -2.86646e-03        00000 
 5.58154e-04 -2.67731e-03        00000 
 3.44361e-04 -2.52577e-03        00000 
 1.14069e-04 -2.40827e-03        00000 
-1.41704e-04 -2.31383e-03        00000 
-4.13805e-04 -2.22054e-03        00000 
-6.58439e-04 -2.10317e-03        00000 
-8.49603e-04 -1.96923e-03        00000 
-9.57349e-04 -1.79571e-03        00000 
 2.98933e-03  2.23421e-02        00000 
 8.23359e-03  2.45159e-02        00000 
 1.25348e-02  2.75987e-02        00000 
 1.70934e-02  3.24027e-02        00000 
 2.29344e-02  3.74013e-02        00000 
 2.82958e-02  3.81548e-02        00000 
 2.55270e-02  2.62413e-02        00000 
-4.28652e-02 -1.56504e-02        00000 
-8.03094e-02  1.56156e-02        00000 
-3.99137e-02  4.51832e-02        00000 
 2.52167e-02 -3.46484e-03        00000 
 1.90639e-02 -1.69659e-02        00000 
 9.85611e-03 -1.59562e-02        00000 
 5.52108e-03 -1.30333e-02        00000 
 3.52518e-03 -1.05840e-02        00000 
 2.43987e-03 -8.70202e-03        00000 
 1.76177e-03 -7.23882e-03        00000 
 1.30564e-03 -6.08296e-03        00000 
 9.84663e-04 -5.15921e-03        00000 
 7.49105e-04 -4.41443e-03        00000 
 5.66294e-04 -3.81009e-03        00000 
 4.11831e-04 -3.31834e-03        00000 
 2.64612e-04 -2.91959e-03        00000 
 1.03388e-04 -2.60098e-03        00000 
-9.63385e-05 -2.35501e-03        00000 
-3.65763e-04 -2.17667e-03        00000 
-7.43133e-04 -2.05264e-03        00000 
-1.22789e-03 -1.92483e-03        00000 
-1.62441e-03 -1.67560e-03        00000 
-1.91077e-03 -1.43150e-03        00000 
-2.43160e-03 -1.12771e-03        00000 
 4.29993e-03  1.39218e-04        00000 
 2.92001e-03  7.15143e-03        00000 
 2.09790e-03  2.19130e-02        00000 
 5.16507e-03  4.63143e-02        00000 
 1.29159e-02  8.59092e-02        00000 
 2.44861e-02  1.46457e-01        00000 
 7.05823e-02  2.27606e-01        00000 
-2.05706e-01  2.22424e-02        00000 
 8.83656e-02 -1.86758e-01        00000 
 2.82924e-02 -9.34649e-02        00000 
 4.81711e-03 -4.04875e-02        00000 
 7.54677e-04 -2.32776e-02        00000 
 1.06145e-04 -1.65066e-02        00000 
-7.04551e-05 -1.26066e-02        00000 
-1.54357e-04 -9.90014e-03        00000 
-1.88474e-04 -7.92016e-03        00000 
-1.95504e-04 -6.43568e-03        00000 
-1.91021e-04 -5.29736e-03        00000 
-1.85233e-04 -4.40307e-03        00000 
-1.86044e-04 -3.68118e-03        00000 
-2.01603e-04 -3.08000e-03        00000 
-2.42203e-04 -2.56135e-03        00000 
-3.22032e-04 -2.09706e-03        00000 
-4.61220e-04 -1.66831e-03        00000 
-6.89416e-04 -1.27052e-03        00000 
-1.05513e-03 -9.34646e-04        00000 
-1.66394e-03 -7.81802e-04        00000 
-2.55847e-03 -9.53292e-04        00000 
-2.70655e-03 -9.12949e-04        00000 
 3.04994e-02 -2.51734e-02        00000 
 1.69413e-02 -4.08414e-02        00000 
 4.62071e-04 -5.20889e-02        00000 
-4.92968e-03 -6.35047e-02        00000 
-6.73193e-03 -7.34305e-02        00000 
-9.00643e-03 -7.89074e-02        00000 
-1.00147e-02 -6.51693e-02        00000 
-6.83822e-02  2.64458e-02        00000 
 1.36881e-01 -4.54589e-02        00000 
-6.45781e-02 -1.05578e-01        00000 
-1.14789e-02 -8.71652e-03        00000 
-1.76449e-03  7.37861e-03        00000 
-7.83267e-04  3.20376e-03        00000 
-9.00671e-04  7.90593e-04        00000 
-7.96952e-04  1.72188e-04        00000 
-6.30355e-04  6.41347e-05        00000 
-4.87603e-04  4.47942e-05        00000 