<?xml version="1.0" encoding="utf-8"?>
<VTKFile byte_order="LittleEndian" type="UnstructuredGrid" version="0.1">
   <UnstructuredGrid>
      <Piece NumberOfCells="3364" NumberOfPoints="1741">
         <Points>
            <DataArray Name="Points" NumberOfComponents="3" format="ascii" type="Float32">
0.0000 1.0000 0.0000
0.0000 1.0345 0.0000
0.0000 1.0690 0.0000
0.0000 1.1034 0.0000
0.0000 1.1379 0.0000
0.0000 1.1724 0.0000
0.0000 1.2069 0.0000
0.0000 1.2414 0.0000
0.0000 1.2759 0.0000
0.0000 1.3103 0.0000
0.0000 1.3448 0.0000
0.0000 1.3793 0.0000
0.0000 1.4138 0.0000
0.0000 1.4483 0.0000
0.0000 1.4828 0.0000
0.0000 1.5172 0.0000
0.0000 1.5517 0.0000
0.0000 1.5862 0.0000
0.0000 1.6207 0.0000
0.0000 1.6552 0.0000
0.0000 1.6897 0.0000
0.0000 1.7241 0.0000
0.0000 1.7586 0.0000
0.0000 1.7931 0.0000
0.0000 1.8276 0.0000
0.0000 1.8621 0.0000
0.0000 1.8966 0.0000
0.0000 1.9310 0.0000
0.0000 1.9655 0.0000
0.0000 2.0000 0.0000
0.0690 1.0000 0.0000
0.0690 1.0345 0.0000
0.0690 1.0690 0.0000
0.0690 1.1034 0.0000
0.0690 1.1379 0.0000
0.0690 1.1724 0.0000
0.0690 1.2069 0.0000
0.0690 1.2414 0.0000
0.0690 1.2759 0.0000
0.0690 1.3103 0.0000
0.0690 1.3448 0.0000
0.0690 1.3793 0.0000
0.0690 1.4138 0.0000
0.0690 1.4483 0.0000
0.0690 1.4828 0.0000
0.0690 1.5172 0.0000
0.0690 1.5517 0.0000
0.0690 1.5862 0.0000
0.0690 1.6207 0.0000
0.0690 1.6552 0.0000
0.0690 1.6897 0.0000
0.0690 1.7241 0.0000
0.0690 1.7586 0.0000
0.0690 1.7931 0.0000
0.0690 1.8276 0.0000
0.0690 1.8621 0.0000
0.0690 1.8966 0.0000
0.0690 1.9310 0.0000
0.0690 1.9655 0.0000
0.0690 2.0000 0.0000
0.1379 1.0000 0.0000
0.1379 1.0345 0.0000
0.1379 1.0690 0.0000
0.1379 1.1034 0.0000
0.1379 1.1379 0.0000
0.1379 1.1724 0.0000
0.1379 1.2069 0.0000
0.1379 1.2414 0.0000
0.1379 1.2759 0.0000
0.1379 1.3103 0.0000
0.1379 1.3448 0.0000
0.1379 1.3793 0.0000
0.1379 1.4138 0.0000
0.1379 1.4483 0.0000
0.1379 1.4828 0.0000
0.1379 1.5172 0.0000
0.1379 1.5517 0.0000
0.1379 1.5862 0.0000
0.1379 1.6207 0.0000
0.1379 1.6552 0.0000
0.1379 1.6897 0.0000
0.1379 1.7241 0.0000
0.1379 1.7586 0.0000
0.1379 1.7931 0.0000
0.1379 1.8276 0.0000
0.1379 1.8621 0.0000
0.1379 1.8966 0.0000
0.1379 1.9310 0.0000
0.1379 1.9655 0.0000
0.1379 2.0000 0.0000
0.2069 1.0000 0.0000
0.2069 1.0345 0.0000
0.2069 1.0690 0.0000
0.2069 1.1034 0.0000
0.2069 1.1379 0.0000
0.2069 1.1724 0.0000
0.2069 1.2069 0.0000
0.2069 1.2414 0.0000
0.2069 1.2759 0.0000
0.2069 1.3103 0.0000
0.2069 1.3448 0.0000
0.2069 1.3793 0.0000
0.2069 1.4138 0.0000
0.2069 1.4483 0.0000
0.2069 1.4828 0.0000
0.2069 1.5172 0.0000
0.2069 1.5517 0.0000
0.2069 1.5862 0.0000
0.2069 1.6207 0.0000
0.2069 1.6552 0.0000
0.2069 1.6897 0.0000
0.2069 1.7241 0.0000
0.2069 1.7586 0.0000
0.2069 1.7931 0.0000
0.2069 1.8276 0.0000
0.2069 1.8621 0.0000
0.2069 1.8966 0.0000
0.2069 1.9310 0.0000
0.2069 1.9655 0.0000
0.2069 2.0000 0.0000
0.2759 1.0000 0.0000
0.2759 1.0345 0.0000
0.2759 1.0690 0.0000
0.2759 1.1034 0.0000
0.2759 1.1379 0.0000
0.2759 1.1724 0.0000
0.2759 1.2069 0.0000
0.2759 1.2414 0.0000
0.2759 1.2759 0.0000
0.2759 1.3103 0.0000
0.2759 1.3448 0.0000
0.2759 1.3793 0.0000
0.2759 1.4138 0.0000
0.2759 1.4483 0.0000
0.2759 1.4828 0.0000
0.2759 1.5172 0.0000
0.2759 1.5517 0.0000
0.2759 1.5862 0.0000
0.2759 1.6207 0.0000
0.2759 1.6552 0.0000
0.2759 1.6897 0.0000
0.2759 1.7241 0.0000
0.2759 1.7586 0.0000
0.2759 1.7931 0.0000
0.2759 1.8276 0.0000
0.2759 1.8621 0.0000
0.2759 1.8966 0.0000
0.2759 1.9310 0.0000
0.2759 1.9655 0.0000
0.2759 2.0000 0.0000
0.3448 1.0000 0.0000
0.3448 1.0345 0.0000
0.3448 1.0690 0.0000
0.3448 1.1034 0.0000
0.3448 1.1379 0.0000
0.3448 1.1724 0.0000
0.3448 1.2069 0.0000
0.3448 1.2414 0.0000
0.3448 1.2759 0.0000
0.3448 1.3103 0.0000
0.3448 1.3448 0.0000
0.3448 1.3793 0.0000
0.3448 1.4138 0.0000
0.3448 1.4483 0.0000
0.3448 1.4828 0.0000
0.3448 1.5172 0.0000
0.3448 1.5517 0.0000
0.3448 1.5862 0.0000
0.3448 1.6207 0.0000
0.3448 1.6552 0.0000
0.3448 1.6897 0.0000
0.3448 1.7241 0.0000
0.3448 1.7586 0.0000
0.3448 1.7931 0.0000
0.3448 1.8276 0.0000
0.3448 1.8621 0.0000
0.3448 1.8966 0.0000
0.3448 1.9310 0.0000
0.3448 1.9655 0.0000
0.3448 2.0000 0.0000
0.4138 1.0000 0.0000
0.4138 1.0345 0.0000
0.4138 1.0690 0.0000
0.4138 1.1034 0.0000
0.4138 1.1379 0.0000
0.4138 1.1724 0.0000
0.4138 1.2069 0.0000
0.4138 1.2414 0.0000
0.4138 1.2759 0.0000
0.4138 1.3103 0.0000
0.4138 1.3448 0.0000
0.4138 1.3793 0.0000
0.4138 1.4138 0.0000
0.4138 1.4483 0.0000
0.4138 1.4828 0.0000
0.4138 1.5172 0.0000
0.4138 1.5517 0.0000
0.4138 1.5862 0.0000
0.4138 1.6207 0.0000
0.4138 1.6552 0.0000
0.4138 1.6897 0.0000
0.4138 1.7241 0.0000
0.4138 1.7586 0.0000
0.4138 1.7931 0.0000
0.4138 1.8276 0.0000
0.4138 1.8621 0.0000
0.4138 1.8966 0.0000
0.4138 1.9310 0.0000
0.4138 1.9655 0.0000
0.4138 2.0000 0.0000
0.4828 1.0000 0.0000
0.4828 1.0345 0.0000
0.4828 1.0690 0.0000
0.4828 1.1034 0.0000
0.4828 1.1379 0.0000
0.4828 1.1724 0.0000
0.4828 1.2069 0.0000
0.4828 1.2414 0.0000
0.4828 1.2759 0.0000
0.4828 1.3103 0.0000
0.4828 1.3448 0.0000
0.4828 1.3793 0.0000
0.4828 1.4138 0.0000
0.4828 1.4483 0.0000
0.4828 1.4828 0.0000
0.4828 1.5172 0.0000
0.4828 1.5517 0.0000
0.4828 1.5862 0.0000
0.4828 1.6207 0.0000
0.4828 1.6552 0.0000
0.4828 1.6897 0.0000
0.4828 1.7241 0.0000
0.4828 1.7586 0.0000
0.4828 1.7931 0.0000
0.4828 1.8276 0.0000
0.4828 1.8621 0.0000
0.4828 1.8966 0.0000
0.4828 1.9310 0.0000
0.4828 1.9655 0.0000
0.4828 2.0000 0.0000
0.5517 1.0000 0.0000
0.5517 1.0345 0.0000
0.5517 1.0690 0.0000
0.5517 1.1034 0.0000
0.5517 1.1379 0.0000
0.5517 1.1724 0.0000
0.5517 1.2069 0.0000
0.5517 1.2414 0.0000
0.5517 1.2759 0.0000
0.5517 1.3103 0.0000
0.5517 1.3448 0.0000
0.5517 1.3793 0.0000
0.5517 1.4138 0.0000
0.5517 1.4483 0.0000
0.5517 1.4828 0.0000
0.5517 1.5172 0.0000
0.5517 1.5517 0.0000
0.5517 1.5862 0.0000
0.5517 1.6207 0.0000
0.5517 1.6552 0.0000
0.5517 1.6897 0.0000
0.5517 1.7241 0.0000
0.5517 1.7586 0.0000
0.5517 1.7931 0.0000
0.5517 1.8276 0.0000
0.5517 1.8621 0.0000
0.5517 1.8966 0.0000
0.5517 1.9310 0.0000
0.5517 1.9655 0.0000
0.5517 2.0000 0.0000
0.6207 1.0000 0.0000
0.6207 1.0345 0.0000
0.6207 1.0690 0.0000
0.6207 1.1034 0.0000
0.6207 1.1379 0.0000
0.6207 1.1724 0.0000
0.6207 1.2069 0.0000
0.6207 1.2414 0.0000
0.6207 1.2759 0.0000
0.6207 1.3103 0.0000
0.6207 1.3448 0.0000
0.6207 1.3793 0.0000
0.6207 1.4138 0.0000
0.6207 1.4483 0.0000
0.6207 1.4828 0.0000
0.6207 1.5172 0.0000
0.6207 1.5517 0.0000
0.6207 1.5862 0.0000
0.6207 1.6207 0.0000
0.6207 1.6552 0.0000
0.6207 1.6897 0.0000
0.6207 1.7241 0.0000
0.6207 1.7586 0.0000
0.6207 1.7931 0.0000
0.6207 1.8276 0.0000
0.6207 1.8621 0.0000
0.6207 1.8966 0.0000
0.6207 1.9310 0.0000
0.6207 1.9655 0.0000
0.6207 2.0000 0.0000
0.6897 1.0000 0.0000
0.6897 1.0345 0.0000
0.6897 1.0690 0.0000
0.6897 1.1034 0.0000
0.6897 1.1379 0.0000
0.6897 1.1724 0.0000
0.6897 1.2069 0.0000
0.6897 1.2414 0.0000
0.6897 1.2759 0.0000
0.6897 1.3103 0.0000
0.6897 1.3448 0.0000
0.6897 1.3793 0.0000
0.6897 1.4138 0.0000
0.6897 1.4483 0.0000
0.6897 1.4828 0.0000
0.6897 1.5172 0.0000
0.6897 1.5517 0.0000
0.6897 1.5862 0.0000
0.6897 1.6207 0.0000
0.6897 1.6552 0.0000
0.6897 1.6897 0.0000
0.6897 1.7241 0.0000
0.6897 1.7586 0.0000
0.6897 1.7931 0.0000
0.6897 1.8276 0.0000
0.6897 1.8621 0.0000
0.6897 1.8966 0.0000
0.6897 1.9310 0.0000
0.6897 1.9655 0.0000
0.6897 2.0000 0.0000
0.7586 1.0000 0.0000
0.7586 1.0345 0.0000
0.7586 1.0690 0.0000
0.7586 1.1034 0.0000
0.7586 1.1379 0.0000
0.7586 1.1724 0.0000
0.7586 1.2069 0.0000
0.7586 1.2414 0.0000
0.7586 1.2759 0.0000
0.7586 1.3103 0.0000
0.7586 1.3448 0.0000
0.7586 1.3793 0.0000
0.7586 1.4138 0.0000
0.7586 1.4483 0.0000
0.7586 1.4828 0.0000
0.7586 1.5172 0.0000
0.7586 1.5517 0.0000
0.7586 1.5862 0.0000
0.7586 1.6207 0.0000
0.7586 1.6552 0.0000
0.7586 1.6897 0.0000
0.7586 1.7241 0.0000
0.7586 1.7586 0.0000
0.7586 1.7931 0.0000
0.7586 1.8276 0.0000
0.7586 1.8621 0.0000
0.7586 1.8966 0.0000
0.7586 1.9310 0.0000
0.7586 1.9655 0.0000
0.7586 2.0000 0.0000
0.8276 1.0000 0.0000
0.8276 1.0345 0.0000
0.8276 1.0690 0.0000
0.8276 1.1034 0.0000
0.8276 1.1379 0.0000
0.8276 1.1724 0.0000
0.8276 1.2069 0.0000
0.8276 1.2414 0.0000
0.8276 1.2759 0.0000
0.8276 1.3103 0.0000
0.8276 1.3448 0.0000
0.8276 1.3793 0.0000
0.8276 1.4138 0.0000
0.8276 1.4483 0.0000
0.8276 1.4828 0.0000
0.8276 1.5172 0.0000
0.8276 1.5517 0.0000
0.8276 1.5862 0.0000
0.8276 1.6207 0.0000
0.8276 1.6552 0.0000
0.8276 1.6897 0.0000
0.8276 1.7241 0.0000
0.8276 1.7586 0.0000
0.8276 1.7931 0.0000
0.8276 1.8276 0.0000
0.8276 1.8621 0.0000
0.8276 1.8966 0.0000
0.8276 1.9310 0.0000
0.8276 1.9655 0.0000
0.8276 2.0000 0.0000
0.8966 1.0000 0.0000
0.8966 1.0345 0.0000
0.8966 1.0690 0.0000
0.8966 1.1034 0.0000
0.8966 1.1379 0.0000
0.8966 1.1724 0.0000
0.8966 1.2069 0.0000
0.8966 1.2414 0.0000
0.8966 1.2759 0.0000
0.8966 1.3103 0.0000
0.8966 1.3448 0.0000
0.8966 1.3793 0.0000
0.8966 1.4138 0.0000
0.8966 1.4483 0.0000
0.8966 1.4828 0.0000
0.8966 1.5172 0.0000
0.8966 1.5517 0.0000
0.8966 1.5862 0.0000
0.8966 1.6207 0.0000
0.8966 1.6552 0.0000
0.8966 1.6897 0.0000
0.8966 1.7241 0.0000
0.8966 1.7586 0.0000
0.8966 1.7931 0.0000
0.8966 1.8276 0.0000
0.8966 1.8621 0.0000
0.8966 1.8966 0.0000
0.8966 1.9310 0.0000
0.8966 1.9655 0.0000
0.8966 2.0000 0.0000
0.9655 1.0000 0.0000
0.9655 1.0345 0.0000
0.9655 1.0690 0.0000
0.9655 1.1034 0.0000
0.9655 1.1379 0.0000
0.9655 1.1724 0.0000
0.9655 1.2069 0.0000
0.9655 1.2414 0.0000
0.9655 1.2759 0.0000
0.9655 1.3103 0.0000
0.9655 1.3448 0.0000
0.9655 1.3793 0.0000
0.9655 1.4138 0.0000
0.9655 1.4483 0.0000
0.9655 1.4828 0.0000
0.9655 1.5172 0.0000
0.9655 1.5517 0.0000
0.9655 1.5862 0.0000
0.9655 1.6207 0.0000
0.9655 1.6552 0.0000
0.9655 1.6897 0.0000
0.9655 1.7241 0.0000
0.9655 1.7586 0.0000
0.9655 1.7931 0.0000
0.9655 1.8276 0.0000
0.9655 1.8621 0.0000
0.9655 1.8966 0.0000
0.9655 1.9310 0.0000
0.9655 1.9655 0.0000
0.9655 2.0000 0.0000
1.0345 1.0000 0.0000
1.0345 1.0345 0.0000
1.0345 1.0690 0.0000
1.0345 1.1034 0.0000
1.0345 1.1379 0.0000
1.0345 1.1724 0.0000
1.0345 1.2069 0.0000
1.0345 1.2414 0.0000
1.0345 1.2759 0.0000
1.0345 1.3103 0.0000
1.0345 1.3448 0.0000
[...]
         <PointData>
            <DataArray Name="fValues" NumberOfComponents="3" format="ascii" type="Float64">
-1.30784e-20  2.23962e-21        00000 
 7.18676e-21 -1.43735e-21        00000 
-7.10681e-21 -2.13204e-21        00000 
 1.87513e-21 -1.87513e-21        00000 
-1.42136e-20 -4.26409e-21        00000 
 2.13076e-20 -2.68795e-21        00000 
-6.39613e-21 -7.10681e-21        00000 
 4.91106e-22  1.18758e-20        00000 
-1.77670e-21 -9.94954e-21        00000 
 1.32496e-21  4.35751e-21        00000 
       00000 -1.27923e-20        00000 
-3.57168e-22  5.62539e-21        00000 
 1.42136e-21 -7.10681e-22        00000 
 5.94251e-21 -2.27814e-21        00000 
-2.48738e-21        00000        00000 
-1.02239e-20  9.82211e-22        00000 
 4.97477e-21 -3.55341e-21        00000 
-5.31736e-21 -1.62846e-21        00000 
-4.26409e-21  7.10681e-22        00000 
 3.57168e-21 -1.51796e-21        00000 
 7.10681e-21  6.39613e-21        00000 
-1.74779e-20 -2.92249e-21        00000 
 6.39613e-21  2.13204e-21        00000 
-6.25043e-21 -2.90199e-21        00000 
-9.94954e-21  5.68545e-21        00000 
 3.39555e-22 -6.92482e-21        00000 
 1.27923e-20  4.26409e-21        00000 
-1.80706e-20 -3.30996e-21        00000 
-1.29020e-20 -4.30066e-21        00000 
-4.29565e-21  2.36386e-20        00000 
 4.58214e-05 -3.36573e-05        00000 
 6.57735e-05 -5.16839e-05        00000 
 7.22378e-05 -7.11725e-05        00000 
 7.13437e-05 -8.94444e-05        00000 
 6.56937e-05 -1.05100e-04        00000 
 5.67775e-05 -1.17368e-04        00000 
 4.56221e-05 -1.25836e-04        00000 
 3.30249e-05 -1.30327e-04        00000 
 1.96467e-05 -1.30849e-04        00000 
 6.04855e-06 -1.27563e-04        00000 
-7.29440e-06 -1.20751e-04        00000 
-1.99882e-05 -1.10799e-04        00000 
-3.17198e-05 -9.81720e-05        00000 
-4.22563e-05 -8.33883e-05        00000 
-5.14452e-05 -6.69971e-05        00000 
-5.92127e-05 -4.95558e-05        00000 
-6.55615e-05 -3.16067e-05        00000 
-7.05677e-05 -1.36560e-05        00000 
-7.43776e-05  3.84743e-06        00000 
-7.72049e-05  2.05323e-05        00000 
-7.93289e-05  3.61264e-05        00000 
-8.10947e-05  5.04796e-05        00000 
-8.29200e-05  6.35936e-05        00000 
-8.53104e-05  7.56608e-05        00000 
-8.88981e-05  8.71256e-05        00000 
-9.45304e-05  9.87876e-05        00000 
-1.03489e-04  1.11996e-04        00000 
-1.18110e-04  1.29044e-04        00000 
-1.43916e-04  1.54053e-04        00000 
-2.04584e-04  1.94091e-04        00000 
 1.34690e-04 -1.10497e-04        00000 
 1.61967e-04 -1.35336e-04        00000 
 1.69758e-04 -1.60215e-04        00000 
 1.63759e-04 -1.83587e-04        00000 
 1.47957e-04 -2.03649e-04        00000 
 1.25178e-04 -2.18982e-04        00000 
 9.76065e-05 -2.28631e-04        00000 
 6.70454e-05 -2.32062e-04        00000 
 3.50278e-05 -2.29106e-04        00000 
 2.86860e-06 -2.19903e-04        00000 
-2.83181e-05 -2.04850e-04        00000 
-5.76145e-05 -1.84548e-04        00000 
-8.42989e-05 -1.59753e-04        00000 
-1.07846e-04 -1.31328e-04        00000 
-1.27924e-04 -1.00197e-04        00000 
-1.44393e-04 -6.73020e-05        00000 
-1.57292e-04 -3.35589e-05        00000 
-1.66838e-04  1.79063e-07        00000 
-1.73412e-04  3.31584e-05        00000 
-1.77553e-04  6.47595e-05        00000 
-1.79952e-04  9.45293e-05        00000 
-1.81452e-04  1.22215e-04        00000 
-1.83057e-04  1.47799e-04        00000 
-1.85958e-04  1.71537e-04        00000 
-1.91583e-04  1.93999e-04        00000 
-2.01713e-04  2.16105e-04        00000 
-2.18696e-04  2.39126e-04        00000 
-2.45856e-04  2.64520e-04        00000 
-2.88107e-04  2.93054e-04        00000 
-3.44038e-04  3.20775e-04        00000 
 2.65149e-04 -1.84450e-04        00000 
 2.87561e-04 -2.17375e-04        00000 
 2.88662e-04 -2.47754e-04        00000 
 2.71826e-04 -2.74384e-04        00000 
 2.40840e-04 -2.95777e-04        00000 
 1.99268e-04 -3.10552e-04        00000 
 1.50328e-04 -3.17674e-04        00000 
 9.68965e-05 -3.16533e-04        00000 
 4.15216e-05 -3.06953e-04        00000 
-1.35741e-05 -2.89146e-04        00000 
-6.64983e-05 -2.63665e-04        00000 
-1.15698e-04 -2.31337e-04        00000 
-1.59963e-04 -1.93199e-04        00000 
-1.98429e-04 -1.50427e-04        00000 
-2.30571e-04 -1.04278e-04        00000 
-2.56195e-04 -5.60276e-05        00000 
-2.75417e-04 -6.90983e-06        00000 
-2.88651e-04  4.19284e-05        00000 
-2.96587e-04  8.94740e-05        00000 
-3.00171e-04  1.34886e-04        00000 
-3.00586e-04  1.77528e-04        00000 
-2.99246e-04  2.16998e-04        00000 
-2.97787e-04  2.53143e-04        00000 
-2.98073e-04  2.86078e-04        00000 
-3.02205e-04  3.16176e-04        00000 
-3.12527e-04  3.44032e-04        00000 
-3.31596e-04  3.70343e-04        00000 
-3.61918e-04  3.95668e-04        00000 
-4.04702e-04  4.20042e-04        00000 
-4.60466e-04  4.44330e-04        00000 
 4.35975e-04 -2.44743e-04        00000 
 4.47957e-04 -2.86506e-04        00000 
 4.34559e-04 -3.23888e-04        00000 
 3.99126e-04 -3.54916e-04        00000 
 3.45638e-04 -3.77899e-04        00000 
 2.78359e-04 -3.91477e-04        00000 
 2.01521e-04 -3.94712e-04        00000 
 1.19130e-04 -3.87141e-04        00000 
 3.48482e-05 -3.68784e-04        00000 
-4.80812e-05 -3.40110e-04        00000 
-1.26886e-04 -3.01975e-04        00000 
-1.99300e-04 -2.55551e-04        00000 
-2.63577e-04 -2.02249e-04        00000 
-3.18498e-04 -1.43631e-04        00000 
-3.63357e-04 -8.13371e-05        00000 
-3.97947e-04 -1.70054e-05        00000 
-4.22523e-04  4.77938e-05        00000 
-4.37772e-04  1.11617e-04        00000 
-4.44770e-04  1.73194e-04        00000 
-4.44945e-04  2.31469e-04        00000 
-4.40036e-04  2.85619e-04        00000 
-4.32062e-04  3.35079e-04        00000 
-4.23290e-04  3.79536e-04        00000 
-4.16208e-04  4.18928e-04        00000 
-4.13482e-04  4.53423e-04        00000 
-4.17887e-04  4.83379e-04        00000 
-4.32163e-04  5.09302e-04        00000 
-4.58735e-04  5.31831e-04        00000 
-4.99677e-04  5.51951e-04        00000 
-5.56395e-04  5.70897e-04        00000 
 6.53282e-04 -2.85212e-04        00000 
 6.50014e-04 -3.37918e-04        00000 
 6.14656e-04 -3.84179e-04        00000 
 5.51676e-04 -4.21177e-04        00000 
 4.66277e-04 -4.46749e-04        00000 
 3.64021e-04 -4.59392e-04        00000 
 2.50506e-04 -4.58259e-04        00000 
 1.31110e-04 -4.43128e-04        00000 
 1.07929e-05 -4.14365e-04        00000 
-1.06041e-04 -3.72860e-04        00000 
-2.15638e-04 -3.19944e-04        00000 
-3.14957e-04 -2.57296e-04        00000 
-4.01695e-04 -1.86850e-04        00000 
-4.74297e-04 -1.10682e-04        00000 
-5.31938e-04 -3.09214e-05        00000 
-5.74484e-04  5.03494e-05        00000 
-6.02444e-04  1.31174e-04        00000 
-6.16902e-04  2.09789e-04        00000 
-6.19446e-04  2.84676e-04        00000 
-6.12098e-04  3.54591e-04        00000 
-5.97243e-04  4.18579e-04        00000 
-5.77567e-04  4.75977e-04        00000 
-5.56002e-04  5.26393e-04        00000 
-5.35677e-04  5.69695e-04        00000 
-5.19868e-04  6.05981e-04        00000 
-5.11933e-04  6.35577e-04        00000 
-5.15234e-04  6.59049e-04        00000 
-5.33074e-04  6.77277e-04        00000 
-5.68579e-04  6.91516e-04        00000 
-6.24628e-04  7.03577e-04        00000 
 9.29789e-04 -2.98559e-04        00000 
 9.04750e-04 -3.65484e-04        00000 
 8.38076e-04 -4.23257e-04        00000 
 7.36445e-04 -4.68153e-04        00000 
 6.07233e-04 -4.97514e-04        00000 
 4.58085e-04 -5.09682e-04        00000 
 2.96553e-04 -5.03923e-04        00000 
 1.29807e-04 -4.80334e-04        00000 
-3.55970e-05 -4.39746e-04        00000 
-1.93884e-04 -3.83618e-04        00000 
-3.40182e-04 -3.13924e-04        00000 
-4.70600e-04 -2.33035e-04        00000 
-5.82273e-04 -1.43583e-04        00000 
-6.73366e-04 -4.83364e-05        00000 
-7.43046e-04  4.99386e-05        00000 
-7.91421e-04  1.48598e-04        00000 
-8.19452e-04  2.45227e-04        00000 
-8.28843e-04  3.37725e-04        00000 
-8.21916e-04  4.24355e-04        00000 
-8.01487e-04  5.03773e-04        00000 
-7.70749e-04  5.75019e-04        00000 
-7.33171e-04  6.37487e-04        00000 
-6.92422e-04  6.90885e-04        00000 
-6.52320e-04  7.35182e-04        00000 
-6.16808e-04  7.70572e-04        00000 
-5.89946e-04  7.97459e-04        00000 
-5.75924e-04  8.16478e-04        00000 
-5.79066e-04  8.28562e-04        00000 
-6.03841e-04  8.35058e-04        00000 
-6.54824e-04  8.37883e-04        00000 
 1.28472e-03 -2.72279e-04        00000 
 1.22772e-03 -3.57976e-04        00000 
 1.11665e-03 -4.30732e-04        00000 
 9.61635e-04 -4.85985e-04        00000 
 7.73253e-04 -5.20686e-04        00000 
 5.62065e-04 -5.33135e-04        00000 
 3.38223e-04 -5.22811e-04        00000 
 1.11178e-04 -4.90218e-04        00000 
-1.10543e-04 -4.36748e-04        00000 
-3.19512e-04 -3.64557e-04        00000 
-5.09534e-04 -2.76424e-04        00000 
-6.75755e-04 -1.75607e-04        00000 
-8.14721e-04 -6.56755e-05        00000 
-9.24397e-04  4.96768e-05        00000 
-1.00413e-03  1.66821e-04        00000 
-1.05454e-03  2.82378e-04        00000 
-1.07741e-03  3.93370e-04        00000 
-1.07544e-03  4.97343e-04        00000 
-1.05208e-03  5.92425e-04        00000 
-1.01129e-03  6.77337e-04        00000 
-9.57337e-04  7.51349e-04        00000 
-8.94660e-04  8.14199e-04        00000 
-8.27740e-04  8.65976e-04        00000 
-7.61069e-04  9.07015e-04        00000 
-6.99172e-04  9.37796e-04        00000 
-6.46685e-04  9.58886e-04        00000 
-6.08477e-04  9.70936e-04        00000 
-5.89795e-04  9.74743e-04        00000 
-5.96401e-04  9.71392e-04        00000 
-6.34674e-04  9.62476e-04        00000 
 1.74416e-03 -1.84530e-04        00000 
 1.63906e-03 -2.94856e-04        00000 
 1.46498e-03 -3.86979e-04        00000 
 1.23689e-03 -4.55824e-04        00000 
 9.69664e-04 -4.98264e-04        00000 
 6.77500e-04 -5.12760e-04        00000 
 3.73693e-04 -4.99089e-04        00000 
 7.04160e-05 -4.58159e-04        00000 
-2.21426e-04 -3.91913e-04        00000 
-4.92363e-04 -3.03226e-04        00000 
-7.34532e-04 -1.95816e-04        00000 
-9.41857e-04 -7.40749e-05        00000 
-1.11018e-03  5.71532e-05        00000 
-1.23735e-03  1.92851e-04        00000 
-1.32315e-03  3.28147e-04        00000 
-1.36921e-03  4.58612e-04        00000 
-1.37872e-03  5.80531e-04        00000 
-1.35609e-03  6.91074e-04        00000 
-1.30657e-03  7.88391e-04        00000 
-1.23587e-03  8.71576e-04        00000 
-1.14980e-03  9.40552e-04        00000 
-1.05401e-03  9.95875e-04        00000 
-9.53823e-04  1.03850e-03        00000 
-8.54238e-04  1.06953e-03        00000 
-7.60012e-04  1.09004e-03        00000 
-6.75876e-04  1.10089e-03        00000 
-6.06838e-04  1.10267e-03        00000 
-5.58532e-04  1.09581e-03        00000 
-5.37589e-04  1.08063e-03        00000 
-5.51969e-04  1.05776e-03        00000 
 2.34093e-03  1.64486e-06        00000 
 2.16281e-03 -1.40267e-04        00000 
 1.89990e-03 -2.57051e-04        00000 
 1.57351e-03 -3.44055e-04        00000 
 1.20337e-03 -3.98692e-04        00000 
 8.07552e-04 -4.19776e-04        00000 
 4.02579e-04 -4.07184e-04        00000 
 3.58404e-06 -3.61848e-04        00000 
-3.75669e-04 -2.85828e-04        00000 
-7.22980e-04 -1.82512e-04        00000 
-1.02806e-03 -5.65875e-05        00000 
-1.28295e-03  8.60433e-05        00000 
-1.48239e-03  2.38639e-04        00000 
-1.62409e-03  3.94104e-04        00000 
-1.70873e-03  5.45550e-04        00000 
-1.73975e-03  6.86918e-04        00000 
-1.72288e-03  8.13391e-04        00000 
-1.66551e-03  9.21774e-04        00000 
-1.57593e-03  1.01053e-03        00000 
-1.46264e-03  1.07972e-03        00000 
-1.33371e-03  1.13067e-03        00000 
-1.19634e-03  1.16558e-03        00000 
-1.05664e-03  1.18706e-03        00000 
-9.19627e-04  1.19763e-03        00000 
-7.89533e-04  1.19939e-03        00000 
-6.70184e-04  1.19369e-03        00000 
-5.65598e-04  1.18103e-03        00000 
-4.80644e-04  1.16107e-03        00000 
-4.21763e-04  1.13278e-03        00000 
-3.97666e-04  1.09481e-03        00000 
 3.11215e-03  3.46746e-04        00000 
 2.82401e-03  1.66137e-04        00000 
 2.43911e-03  1.86200e-05        00000 
 1.98527e-03 -9.37693e-05        00000 
 1.48594e-03 -1.69973e-04        00000 
 9.61563e-04 -2.08896e-04        00000 
 4.30836e-04 -2.09420e-04        00000 
-8.81959e-05 -1.70897e-04        00000 
-5.78048e-04 -9.42391e-05        00000 
-1.02216e-03  1.75857e-05        00000 
-1.40589e-03  1.58849e-04        00000 
-1.71769e-03  3.21468e-04        00000 
-1.95008e-03  4.95446e-04        00000 
-2.10045e-03  6.69936e-04        00000 
-2.17110e-03  8.34557e-04        00000 
-2.16892e-03  9.80305e-04        00000 
-2.10439e-03  1.10080e-03        00000 
-1.99026e-03  1.19246e-03        00000 
-1.84019e-03  1.25485e-03        00000 
-1.66722e-03  1.29014e-03        00000 
-1.48279e-03  1.30247e-03        00000 
-1.29597e-03  1.29710e-03        00000 
-1.11321e-03  1.27948e-03        00000 
-9.38599e-04  1.25445e-03        00000 
-7.74349e-04  1.22568e-03        00000 
-6.21646e-04  1.19522e-03        00000 
-4.81609e-04  1.16331e-03        00000 
-3.56368e-04  1.12839e-03        00000 
-2.50210e-04  1.08723e-03        00000 
-1.70779e-04  1.03530e-03        00000 
 4.08980e-03  9.46183e-04        00000 
 3.64096e-03  7.22398e-04        00000 
 3.09838e-03  5.37679e-04        00000 
 2.49181e-03  3.87004e-04        00000 
 1.84204e-03  2.68829e-04        00000 
 1.16615e-03  1.85958e-04        00000 
 4.81991e-04  1.44340e-04        00000 
-1.89954e-04  1.49999e-04        00000 
-8.25792e-04  2.07113e-04        00000 
-1.40038e-03  3.14417e-04        00000 
-1.88996e-03  4.65657e-04        00000 
-2.27489e-03  6.48348e-04        00000 
-2.54319e-03  8.46227e-04        00000 
-2.69107e-03  1.04131e-03        00000 
-2.72443e-03  1.21596e-03        00000 
-2.65704e-03  1.35662e-03        00000 
-2.50870e-03  1.45388e-03        00000 
-2.30254e-03  1.50498e-03        00000 
-2.06149e-03  1.51211e-03        00000 
-1.80622e-03  1.48222e-03        00000 
-1.55276e-03  1.42490e-03        00000 
-1.31184e-03  1.35067e-03        00000 
-1.08895e-03  1.26946e-03        00000 
-8.85034e-04  1.18932e-03        00000 
-6.97817e-04  1.11576e-03        00000 
-5.23187e-04  1.05142e-03        00000 
-3.56636e-04  9.95911e-04        00000 
-1.94704e-04  9.45842e-04        00000 
-3.65154e-05  8.94895e-04        00000 
 1.14511e-04  8.34041e-04        00000 
 5.27430e-03  1.94080e-03        00000 
 4.60700e-03  1.67896e-03        00000 
 3.88716e-03  1.45136e-03        00000 
 3.12794e-03  1.23817e-03        00000 
 2.32878e-03  1.03539e-03        00000 
 1.48962e-03  8.53450e-04        00000 
 6.19642e-04  7.11654e-04        00000 
-2.56036e-04  6.32485e-04        00000 
-1.10113e-03  6.30300e-04        00000 
-1.87027e-03  7.12358e-04        00000 
-2.51802e-03  8.68272e-04        00000 
-3.00837e-03  1.07851e-03        00000 
-3.31671e-03  1.31264e-03        00000 
-3.43990e-03  1.53633e-03        00000 
-3.39053e-03  1.72051e-03        00000 
-3.19821e-03  1.83988e-03        00000 
-2.90302e-03  1.88496e-03        00000 
-2.54700e-03  1.85415e-03        00000 
-2.17112e-03  1.75888e-03        00000 
-1.80655e-03  1.61597e-03        00000 
-1.47447e-03  1.44521e-03        00000 
-1.18485e-03  1.26559e-03        00000 
-9.38041e-04  1.09260e-03        00000 
-7.27698e-04  9.37213e-04        00000 
-5.43326e-04  8.05903e-04        00000 
-3.72296e-04  7.00911e-04        00000 
-2.01384e-04  6.20433e-04        00000 
-1.82274e-05  5.58619e-04        00000 
 1.87068e-04  5.05430e-04        00000 
 4.19932e-04  4.46411e-04        00000 
 6.57253e-03  3.50881e-03        00000 
 5.65347e-03  3.23863e-03        00000 
 4.80056e-03  2.96847e-03        00000 
 3.96232e-03  2.65263e-03        00000 
 3.07331e-03  2.28655e-03        00000 
 2.08612e-03  1.90156e-03        00000 
 9.92135e-04  1.55033e-03        00000 
-1.81912e-04  1.28584e-03        00000 
-1.36075e-03  1.16065e-03        00000 
-2.45568e-03  1.18305e-03        00000 
-3.37292e-03  1.35240e-03        00000 
-4.02779e-03  1.61921e-03        00000 
-4.38408e-03  1.92461e-03        00000 
-4.42761e-03  2.20563e-03        00000 
-4.19975e-03  2.39409e-03        00000 
-3.76679e-03  2.46492e-03        00000 
-3.20823e-03  2.39547e-03        00000 
-2.61370e-03  2.20833e-03        00000 
-2.04616e-03  1.93197e-03        00000 
-1.55269e-03  1.60636e-03        00000 
-1.15283e-03  1.26952e-03        00000 
-8.44492e-04  9.49556e-04        00000 
-6.13624e-04  6.64322e-04        00000 
-4.40553e-04  4.23684e-04        00000 
-3.03092e-04  2.31715e-04        00000 
-1.77813e-04  8.80838e-05        00000 
-4.06967e-05 -1.15176e-05        00000 
 1.32256e-04 -7.55476e-05        00000 
 3.63941e-04 -1.17455e-04        00000 
 6.74334e-04 -1.56679e-04        00000 
 7.68357e-03  5.78732e-03        00000 
 6.58732e-03  5.58807e-03        00000 
 5.79564e-03  5.30123e-03        00000 
 5.10762e-03  4.84651e-03        00000 
 4.32002e-03  4.21570e-03        00000 
 3.27271e-03  3.46684e-03        00000 
 1.89837e-03  2.71728e-03        00000 
 2.65798e-04  2.10949e-03        00000 
-1.51957e-03  1.72108e-03        00000 
-3.22472e-03  1.66786e-03        00000 
-4.63124e-03  1.86967e-03        00000 
-5.59572e-03  2.28526e-03        00000 
-5.96692e-03  2.76328e-03        00000 
-5.80395e-03  3.13366e-03        00000 
-5.17648e-03  3.33680e-03        00000 
-4.24823e-03  3.24819e-03        00000 
-3.23841e-03  2.94044e-03        00000 
-2.27143e-03  2.44355e-03        00000 
-1.47807e-03  1.85771e-03        00000 
-8.92875e-04  1.27162e-03        00000 
-4.93474e-04  7.36006e-04        00000 
-2.41089e-04  2.73043e-04        00000 
-9.68575e-05 -1.10798e-04        00000 
-2.53191e-05 -4.16400e-04        00000 
 6.51026e-06 -6.47757e-04        00000 
 3.10137e-05 -8.10361e-04        00000 
 8.20615e-05 -9.11060e-04        00000 
 1.95939e-04 -9.59610e-04        00000 
 4.11516e-04 -9.70251e-04        00000 
 7.69222e-04 -9.64597e-04        00000 
 7.96741e-03  8.62087e-03        00000 
 7.02692e-03  8.64343e-03        00000 
 6.72154e-03  8.43887e-03        00000 
 6.62954e-03  7.91581e-03        00000 
 6.36845e-03  7.03862e-03        00000 
 5.58559e-03  5.83051e-03        00000 
 3.99490e-03  4.42003e-03        00000 
 1.52787e-03  3.10788e-03        00000 
-1.32481e-03  2.32360e-03        00000 
-4.30378e-03  1.96858e-03        00000 
-6.80420e-03  2.41339e-03        00000 
-8.20587e-03  3.16225e-03        00000 
-8.61875e-03  3.97282e-03        00000 
-7.78289e-03  4.63838e-03        00000 
-6.17055e-03  4.59128e-03        00000 
-4.32165e-03  4.17774e-03        00000 
-2.44813e-03  3.23248e-03        00000 
-1.07643e-03  2.12835e-03        00000 
-2.19435e-04  1.11736e-03        00000 
 2.65782e-04  2.79194e-04        00000 
 5.04622e-04 -3.86069e-04        00000 
 5.81762e-04 -9.02846e-04        00000 
 5.52771e-04 -1.29805e-03        00000 
 4.57097e-04 -1.59360e-03        00000 
 3.27884e-04 -1.80482e-03        00000 
 1.98623e-04 -1.94164e-03        00000 
 1.06567e-04 -2.01117e-03        00000 
 9.78151e-05 -2.01878e-03        00000 
 2.28546e-04 -1.97426e-03        00000 
 5.64346e-04 -1.89417e-03        00000 
 6.50371e-03  1.10396e-02        00000 
 6.45564e-03  1.14637e-02        00000 
 7.19198e-03  1.15795e-02        00000 
 8.18358e-03  1.13923e-02        00000 
 9.04482e-03  1.08207e-02        00000 
 9.33695e-03  9.66935e-03        00000 
 8.39595e-03  7.75251e-03        00000 
 5.35475e-03  5.15249e-03        00000 
-3.60784e-04  2.68840e-03        00000 
-5.88539e-03  2.50493e-03        00000 
-1.05973e-02  2.63611e-03        00000 
-1.38500e-02  4.52719e-03        00000 
-1.30434e-02  6.51261e-03        00000 
-1.04999e-02  6.68487e-03        00000 
-6.76078e-03  6.67473e-03        00000 
-2.20516e-03  4.39497e-03        00000 
 2.82028e-04  1.98442e-03        00000 