<?xml version="1.0" encoding="utf-8"?>
<VTKFile byte_order="LittleEndian" type="UnstructuredGrid" version="0.1">
   <UnstructuredGrid>
      <Piece NumberOfCells="3364" NumberOfPoints="1741">
         <Points>
            <DataArray Name="Points" NumberOfComponents="3" format="ascii" type="Float32">
0.0000 1.0000 0.0000
0.0000 1.0345 0.0000
0.0000 1.0690 0.0000
0.0000 1.1034 0.0000
0.0000 1.1379 0.0000
0.0000 1.1724 0.0000
0.0000 1.2069 0.0000
0.0000 1.2414 0.0000
0.0000 1.2759 0.0000
0.0000 1.3103 0.0000
0.0000 1.3448 0.0000
0.0000 1.3793 0.0000
0.0000 1.4138 0.0000
0.0000 1.4483 0.0000
0.0000 1.4828 0.0000
0.0000 1.5172 0.0000
0.0000 1.5517 0.0000
0.0000 1.5862 0.0000
0.0000 1.6207 0.0000
0.0000 1.6552 0.0000
0.0000 1.6897 0.0000
0.0000 1.7241 0.0000
0.0000 1.7586 0.0000
0.0000 1.7931 0.0000
0.0000 1.8276 0.0000
0.0000 1.8621 0.0000
0.0000 1.8966 0.0000
0.0000 1.9310 0.0000
0.0000 1.9655 0.0000
0.0000 2.0000 0.0000
0.0690 1.0000 0.0000
0.0690 1.0345 0.0000
0.0690 1.0690 0.0000
0.0690 1.1034 0.0000
0.0690 1.1379 0.0000
0.0690 1.1724 0.0000
0.0690 1.2069 0.0000
0.0690 1.2414 0.0000
0.0690 1.2759 0.0000
0.0690 1.3103 0.0000
0.0690 1.3448 0.0000
0.0690 1.3793 0.0000
0.0690 1.4138 0.0000
0.0690 1.4483 0.0000
0.0690 1.4828 0.0000
0.0690 1.5172 0.0000
0.0690 1.5517 0.0000
0.0690 1.5862 0.0000
0.0690 1.6207 0.0000
0.0690 1.6552 0.0000
0.0690 1.6897 0.0000
0.0690 1.7241 0.0000
0.0690 1.7586 0.0000
0.0690 1.7931 0.0000
0.0690 1.8276 0.0000
0.0690 1.8621 0.0000
0.0690 1.8966 0.0000
0.0690 1.9310 0.0000
0.0690 1.9655 0.0000
0.0690 2.0000 0.0000
0.1379 1.0000 0.0000
0.1379 1.0345 0.0000
0.1379 1.0690 0.0000
0.1379 1.1034 0.0000
0.1379 1.1379 0.0000
0.1379 1.1724 0.0000
0.1379 1.2069 0.0000
0.1379 1.2414 0.0000
0.1379 1.2759 0.0000
0.1379 1.3103 0.0000
0.1379 1.3448 0.0000
0.1379 1.3793 0.0000
0.1379 1.4138 0.0000
0.1379 1.4483 0.0000
0.1379 1.4828 0.0000
0.1379 1.5172 0.0000
0.1379 1.5517 0.0000
0.1379 1.5862 0.0000
0.1379 1.6207 0.0000
0.1379 1.6552 0.0000
0.1379 1.6897 0.0000
0.1379 1.7241 0.0000
0.1379 1.7586 0.0000
0.1379 1.7931 0.0000
0.1379 1.8276 0.0000
0.1379 1.8621 0.0000
0.1379 1.8966 0.0000
0.1379 1.9310 0.0000
0.1379 1.9655 0.0000
0.1379 2.0000 0.0000
0.2069 1.0000 0.0000
0.2069 1.0345 0.0000
0.2069 1.0690 0.0000
0.2069 1.1034 0.0000
0.2069 1.1379 0.0000
0.2069 1.1724 0.0000
0.2069 1.2069 0.0000
0.2069 1.2414 0.0000
0.2069 1.2759 0.0000
0.2069 1.3103 0.0000
0.2069 1.3448 0.0000
0.2069 1.3793 0.0000
0.2069 1.4138 0.0000
0.2069 1.4483 0.0000
0.2069 1.4828 0.0000
0.2069 1.5172 0.0000
0.2069 1.5517 0.0000
0.2069 1.5862 0.0000
0.2069 1.6207 0.0000
0.2069 1.6552 0.0000
0.2069 1.6897 0.0000
0.2069 1.7241 0.0000
0.2069 1.7586 0.0000
0.2069 1.7931 0.0000
0.2069 1.8276 0.0000
0.2069 1.8621 0.0000
0.2069 1.8966 0.0000
0.2069 1.9310 0.0000
0.2069 1.9655 0.0000
0.2069 2.0000 0.0000
0.2759 1.0000 0.0000
0.2759 1.0345 0.0000
0.2759 1.0690 0.0000
0.2759 1.1034 0.0000
0.2759 1.1379 0.0000
0.2759 1.1724 0.0000
0.2759 1.2069 0.0000
0.2759 1.2414 0.0000
0.2759 1.2759 0.0000
0.2759 1.3103 0.0000
0.2759 1.3448 0.0000
0.2759 1.3793 0.0000
0.2759 1.4138 0.0000
0.2759 1.4483 0.0000
0.2759 1.4828 0.0000
0.2759 1.5172 0.0000
0.2759 1.5517 0.0000
0.2759 1.5862 0.0000
0.2759 1.6207 0.0000
0.2759 1.6552 0.0000
0.2759 1.6897 0.0000
0.2759 1.7241 0.0000
0.2759 1.7586 0.0000
0.2759 1.7931 0.0000
0.2759 1.8276 0.0000
0.2759 1.8621 0.0000
0.2759 1.8966 0.0000
0.2759 1.9310 0.0000
0.2759 1.9655 0.0000
0.2759 2.0000 0.0000
0.3448 1.0000 0.0000
0.3448 1.0345 0.0000
0.3448 1.0690 0.0000
0.3448 1.1034 0.0000
0.3448 1.1379 0.0000
0.3448 1.1724 0.0000
0.3448 1.2069 0.0000
0.3448 1.2414 0.0000
0.3448 1.2759 0.0000
0.3448 1.3103 0.0000
0.3448 1.3448 0.0000
0.3448 1.3793 0.0000
0.3448 1.4138 0.0000
0.3448 1.4483 0.0000
0.3448 1.4828 0.0000
0.3448 1.5172 0.0000
0.3448 1.5517 0.0000
0.3448 1.5862 0.0000
0.3448 1.6207 0.0000
0.3448 1.6552 0.0000
0.3448 1.6897 0.0000
0.3448 1.7241 0.0000
0.3448 1.7586 0.0000
0.3448 1.7931 0.0000
0.3448 1.8276 0.0000
0.3448 1.8621 0.0000
0.3448 1.8966 0.0000
0.3448 1.9310 0.0000
0.3448 1.9655 0.0000
0.3448 2.0000 0.0000
0.4138 1.0000 0.0000
0.4138 1.0345 0.0000
0.4138 1.0690 0.0000
0.4138 1.1034 0.0000
0.4138 1.1379 0.0000
0.4138 1.1724 0.0000
0.4138 1.2069 0.0000
0.4138 1.2414 0.0000
0.4138 1.2759 0.0000
0.4138 1.3103 0.0000
0.4138 1.3448 0.0000
0.4138 1.3793 0.0000
0.4138 1.4138 0.0000
0.4138 1.4483 0.0000
0.4138 1.4828 0.0000
0.4138 1.5172 0.0000
0.4138 1.5517 0.0000
0.4138 1.5862 0.0000
0.4138 1.6207 0.0000
0.4138 1.6552 0.0000
0.4138 1.6897 0.0000
0.4138 1.7241 0.0000
0.4138 1.7586 0.0000
0.4138 1.7931 0.0000
0.4138 1.8276 0.0000
0.4138 1.8621 0.0000
0.4138 1.8966 0.0000
0.4138 1.9310 0.0000
0.4138 1.9655 0.0000
0.4138 2.0000 0.0000
0.4828 1.0000 0.0000
0.4828 1.0345 0.0000
0.4828 1.0690 0.0000
0.4828 1.1034 0.0000
0.4828 1.1379 0.0000
0.4828 1.1724 0.0000
0.4828 1.2069 0.0000
0.4828 1.2414 0.0000
0.4828 1.2759 0.0000
0.4828 1.3103 0.0000
0.4828 1.3448 0.0000
0.4828 1.3793 0.0000
0.4828 1.4138 0.0000
0.4828 1.4483 0.0000
0.4828 1.4828 0.0000
0.4828 1.5172 0.0000
0.4828 1.5517 0.0000
0.4828 1.5862 0.0000
0.4828 1.6207 0.0000
0.4828 1.6552 0.0000
0.4828 1.6897 0.0000
0.4828 1.7241 0.0000
0.4828 1.7586 0.0000
0.4828 1.7931 0.0000
0.4828 1.8276 0.0000
0.4828 1.8621 0.0000
0.4828 1.8966 0.0000
0.4828 1.9310 0.0000
0.4828 1.9655 0.0000
0.4828 2.0000 0.0000
0.5517 1.0000 0.0000
0.5517 1.0345 0.0000
0.5517 1.0690 0.0000
0.5517 1.1034 0.0000
0.5517 1.1379 0.0000
0.5517 1.1724 0.0000
0.5517 1.2069 0.0000
0.5517 1.2414 0.0000
0.5517 1.2759 0.0000
0.5517 1.3103 0.0000
0.5517 1.3448 0.0000
0.5517 1.3793 0.0000
0.5517 1.4138 0.0000
0.5517 1.4483 0.0000
0.5517 1.4828 0.0000
0.5517 1.5172 0.0000
0.5517 1.5517 0.0000
0.5517 1.5862 0.0000
0.5517 1.6207 0.0000
0.5517 1.6552 0.0000
0.5517 1.6897 0.0000
0.5517 1.7241 0.0000
0.5517 1.7586 0.0000
0.5517 1.7931 0.0000
0.5517 1.8276 0.0000
0.5517 1.8621 0.0000
0.5517 1.8966 0.0000
0.5517 1.9310 0.0000
0.5517 1.9655 0.0000
0.5517 2.0000 0.0000
0.6207 1.0000 0.0000
0.6207 1.0345 0.0000
0.6207 1.0690 0.0000
0.6207 1.1034 0.0000
0.6207 1.1379 0.0000
0.6207 1.1724 0.0000
0.6207 1.2069 0.0000
0.6207 1.2414 0.0000
0.6207 1.2759 0.0000
0.6207 1.3103 0.0000
0.6207 1.3448 0.0000
0.6207 1.3793 0.0000
0.6207 1.4138 0.0000
0.6207 1.4483 0.0000
0.6207 1.4828 0.0000
0.6207 1.5172 0.0000
0.6207 1.5517 0.0000
0.6207 1.5862 0.0000
0.6207 1.6207 0.0000
0.6207 1.6552 0.0000
0.6207 1.6897 0.0000
0.6207 1.7241 0.0000
0.6207 1.7586 0.0000
0.6207 1.7931 0.0000
0.6207 1.8276 0.0000
0.6207 1.8621 0.0000
0.6207 1.8966 0.0000
0.6207 1.9310 0.0000
0.6207 1.9655 0.0000
0.6207 2.0000 0.0000
0.6897 1.0000 0.0000
0.6897 1.0345 0.0000
0.6897 1.0690 0.0000
0.6897 1.1034 0.0000
0.6897 1.1379 0.0000
0.6897 1.1724 0.0000
0.6897 1.2069 0.0000
0.6897 1.2414 0.0000
0.6897 1.2759 0.0000
0.6897 1.3103 0.0000
0.6897 1.3448 0.0000
0.6897 1.3793 0.0000
0.6897 1.4138 0.0000
0.6897 1.4483 0.0000
0.6897 1.4828 0.0000
0.6897 1.5172 0.0000
0.6897 1.5517 0.0000
0.6897 1.5862 0.0000
0.6897 1.6207 0.0000
0.6897 1.6552 0.0000
0.6897 1.6897 0.0000
0.6897 1.7241 0.0000
0.6897 1.7586 0.0000
0.6897 1.7931 0.0000
0.6897 1.8276 0.0000
0.6897 1.8621 0.0000
0.6897 1.8966 0.0000
0.6897 1.9310 0.0000
0.6897 1.9655 0.0000
0.6897 2.0000 0.0000
0.7586 1.0000 0.0000
0.7586 1.0345 0.0000
0.7586 1.0690 0.0000
0.7586 1.1034 0.0000
0.7586 1.1379 0.0000
0.7586 1.1724 0.0000
0.7586 1.2069 0.0000
0.7586 1.2414 0.0000
0.7586 1.2759 0.0000
0.7586 1.3103 0.0000
0.7586 1.3448 0.0000
0.7586 1.3793 0.0000
0.7586 1.4138 0.0000
0.7586 1.4483 0.0000
0.7586 1.4828 0.0000
0.7586 1.5172 0.0000
0.7586 1.5517 0.0000
0.7586 1.5862 0.0000
0.7586 1.6207 0.0000
0.7586 1.6552 0.0000
0.7586 1.6897 0.0000
0.7586 1.7241 0.0000
0.7586 1.7586 0.0000
0.7586 1.7931 0.0000
0.7586 1.8276 0.0000
0.7586 1.8621 0.0000
0.7586 1.8966 0.0000
0.7586 1.9310 0.0000
0.7586 1.9655 0.0000
0.7586 2.0000 0.0000
0.8276 1.0000 0.0000
0.8276 1.0345 0.0000
0.8276 1.0690 0.0000
0.8276 1.1034 0.0000
0.8276 1.1379 0.0000
0.8276 1.1724 0.0000
0.8276 1.2069 0.0000
0.8276 1.2414 0.0000
0.8276 1.2759 0.0000
0.8276 1.3103 0.0000
0.8276 1.3448 0.0000
0.8276 1.3793 0.0000
0.8276 1.4138 0.0000
0.8276 1.4483 0.0000
0.8276 1.4828 0.0000
0.8276 1.5172 0.0000
0.8276 1.5517 0.0000
0.8276 1.5862 0.0000
0.8276 1.6207 0.0000
0.8276 1.6552 0.0000
0.8276 1.6897 0.0000
0.8276 1.7241 0.0000
0.8276 1.7586 0.0000
0.8276 1.7931 0.0000
0.8276 1.8276 0.0000
0.8276 1.8621 0.0000
0.8276 1.8966 0.0000
0.8276 1.9310 0.0000
0.8276 1.9655 0.0000
0.8276 2.0000 0.0000
0.8966 1.0000 0.0000
0.8966 1.0345 0.0000
0.8966 1.0690 0.0000
0.8966 1.1034 0.0000
0.8966 1.1379 0.0000
0.8966 1.1724 0.0000
0.8966 1.2069 0.0000
0.8966 1.2414 0.0000
0.8966 1.2759 0.0000
0.8966 1.3103 0.0000
0.8966 1.3448 0.0000
0.8966 1.3793 0.0000
0.8966 1.4138 0.0000
0.8966 1.4483 0.0000
0.8966 1.4828 0.0000
0.8966 1.5172 0.0000
0.8966 1.5517 0.0000
0.8966 1.5862 0.0000
0.8966 1.6207 0.0000
0.8966 1.6552 0.0000
0.8966 1.6897 0.0000
0.8966 1.7241 0.0000
0.8966 1.7586 0.0000
0.8966 1.7931 0.0000
0.8966 1.8276 0.0000
0.8966 1.8621 0.0000
0.8966 1.8966 0.0000
0.8966 1.9310 0.0000
0.8966 1.9655 0.0000
0.8966 2.0000 0.0000
0.9655 1.0000 0.0000
0.9655 1.0345 0.0000
0.9655 1.0690 0.0000
0.9655 1.1034 0.0000
0.9655 1.1379 0.0000
0.9655 1.1724 0.0000
0.9655 1.2069 0.0000
0.9655 1.2414 0.0000
0.9655 1.2759 0.0000
0.9655 1.3103 0.0000
0.9655 1.3448 0.0000
0.9655 1.3793 0.0000
0.9655 1.4138 0.0000
0.9655 1.4483 0.0000
0.9655 1.4828 0.0000
0.9655 1.5172 0.0000
0.9655 1.5517 0.0000
0.9655 1.5862 0.0000
0.9655 1.6207 0.0000
0.9655 1.6552 0.0000
0.9655 1.6897 0.0000
0.9655 1.7241 0.0000
0.9655 1.7586 0.0000
0.9655 1.7931 0.0000
0.9655 1.8276 0.0000
0.9655 1.8621 0.0000
0.9655 1.8966 0.0000
0.9655 1.9310 0.0000
0.9655 1.9655 0.0000
0.9655 2.0000 0.0000
1.0345 1.0000 0.0000
1.0345 1.0345 0.0000
1.0345 1.0690 0.0000
1.0345 1.1034 0.0000
1.0345 1.1379 0.0000
1.0345 1.1724 0.0000
1.0345 1.2069 0.0000
1.0345 1.2414 0.0000
1.0345 1.2759 0.0000
1.0345 1.3103 0.0000
1.0345 1.3448 0.0000
[...]
         <PointData>
            <DataArray Name="fValues" NumberOfComponents="3" format="ascii" type="Float64">
-6.92374e-29  3.20715e-28        00000 
-1.71346e-28 -6.10419e-28        00000 
-4.44779e-28  1.01664e-27        00000 
 2.89528e-27 -6.98274e-27        00000 
-8.13310e-27  2.71103e-27        00000 
 6.64344e-26 -6.02595e-26        00000 
 6.23538e-26  3.28035e-25        00000 
 9.04350e-26  5.03609e-25        00000 
 9.75972e-26  3.47012e-25        00000 
 1.06679e-25  4.31076e-25        00000 
-4.44610e-24  6.41973e-24        00000 
-1.39519e-23  5.49355e-24        00000 
-3.33132e-23  1.38805e-24        00000 
-1.90037e-22 -1.20212e-22        00000 
-1.77670e-22 -2.45685e-22        00000 
 8.23160e-23 -2.06985e-21        00000 
 1.42136e-21  4.26409e-21        00000 
 1.21596e-20 -2.17427e-20        00000 
 5.68545e-21 -4.97477e-21        00000 
 3.14308e-20  1.31438e-19        00000 
-1.13709e-20  2.27418e-19        00000 
 6.11899e-20  4.59887e-19        00000 
-2.27418e-20        00000        00000 
-1.30723e-19  9.14349e-20        00000 
-6.82254e-20 -4.54836e-20        00000 
 1.35374e-20 -3.78728e-19        00000 
 1.13709e-20  2.27418e-20        00000 
 6.01161e-20 -7.58608e-20        00000 
-6.58539e-21  5.01744e-21        00000 
 4.46678e-21  6.26678e-21        00000 
-2.36471e-12  4.86347e-13        00000 
-2.06839e-12 -3.79247e-13        00000 
-3.40189e-12 -5.80340e-12        00000 
 2.09703e-12 -2.45011e-11        00000 
 3.91497e-11 -7.52356e-11        00000 
 1.79831e-10 -1.78146e-10        00000 
 5.83784e-10 -2.82662e-10        00000 
 1.46509e-09  3.06692e-11        00000 
 2.59688e-09  2.47552e-09        00000 
 1.08495e-09  1.23258e-08        00000 
-1.58217e-08  4.22834e-08        00000 
-8.88046e-08  1.12833e-07        00000 
-3.18701e-07  2.18679e-07        00000 
-8.78793e-07  1.45578e-07        00000 
-1.80618e-06 -1.18223e-06        00000 
-1.79376e-06 -7.32069e-06        00000 
 6.07179e-06 -2.62288e-05        00000 
 4.67916e-05 -6.41039e-05        00000 
 1.80601e-04 -8.52420e-05        00000 
 5.26294e-04  1.00232e-04        00000 
 9.70778e-04  7.76463e-04        00000 
 7.64160e-04  1.71167e-03        00000 
-7.28413e-04  1.73562e-03        00000 
-1.80014e-03  2.07039e-04        00000 
-8.19319e-04 -1.36597e-03        00000 
 5.92831e-04 -1.44538e-03        00000 
 7.96971e-04 -6.28036e-04        00000 
 4.05249e-04 -4.40418e-05        00000 
 1.21484e-04  9.70547e-05        00000 
 1.07988e-05  8.51530e-05        00000 
 1.53307e-12 -1.04558e-12        00000 
 1.57682e-12  4.79879e-13        00000 
 2.36036e-12  9.43923e-12        00000 
-1.13426e-12  4.37971e-11        00000 
-2.58646e-11  1.42106e-10        00000 
-1.20916e-10  3.56055e-10        00000 
-3.95272e-10  6.29809e-10        00000 
-9.93176e-10  2.59439e-10        00000 
-1.74873e-09 -3.85498e-09        00000 
-6.76249e-10 -2.16285e-08        00000 
 1.07053e-08 -7.77594e-08        00000 
 5.84480e-08 -2.15133e-07        00000 
 2.04294e-07 -4.43401e-07        00000 
 5.52548e-07 -4.41876e-07        00000 
 1.15045e-06  1.52286e-06        00000 
 1.48453e-06  1.15132e-05        00000 
-1.76490e-06  4.49942e-05        00000 
-2.13804e-05  1.26185e-04        00000 
-1.14451e-04  2.37754e-04        00000 
-3.96097e-04  1.18227e-04        00000 
-1.42553e-03 -1.25138e-03        00000 
-2.08040e-03 -4.25121e-03        00000 
-1.71920e-04 -5.44177e-03        00000 
 1.95889e-03 -4.51600e-04        00000 
-1.01568e-04  4.61570e-03        00000 
-1.84323e-03  3.69195e-03        00000 
-1.18650e-03  9.70683e-04        00000 
-2.44445e-04 -1.98216e-04        00000 
-5.05848e-05 -2.32444e-04        00000 
 1.16907e-05 -1.54066e-04        00000 
 1.00938e-13  1.26656e-12        00000 
 9.45600e-14 -4.48643e-13        00000 
 9.89164e-14 -1.04857e-11        00000 
-2.30777e-13 -4.99021e-11        00000 
-1.89371e-12 -1.64233e-10        00000 
-7.64241e-12 -4.16545e-10        00000 
-2.44152e-11 -7.49583e-10        00000 
-6.79091e-11 -3.59085e-10        00000 
-1.60691e-10  4.32795e-09        00000 
-2.42481e-10  2.46821e-08        00000 
 4.12671e-10  8.85907e-08        00000 
 5.58251e-09  2.43166e-07        00000 
 2.80447e-08  4.97554e-07        00000 
 9.22487e-08  5.16034e-07        00000 
 1.65069e-07 -1.45245e-06        00000 
-1.95527e-07 -1.14795e-05        00000 
-3.15511e-06 -4.61176e-05        00000 
-1.20166e-05 -1.40405e-04        00000 
-3.15974e-05 -3.36026e-04        00000 
 9.13756e-05 -5.08597e-04        00000 
 3.30529e-04  3.94479e-04        00000 
 5.93343e-03  7.74846e-03        00000 
 5.60218e-03  1.57883e-02        00000 
 5.85268e-03  7.04512e-04        00000 
 5.81795e-03 -1.42002e-02        00000 
 5.67901e-03 -6.86758e-03        00000 
 8.16555e-05 -1.33514e-05        00000 
-6.80165e-05  5.69694e-04        00000 
-7.15243e-05  2.84748e-04        00000 
-1.80800e-05  1.44830e-04        00000 
-1.68021e-12 -1.00632e-12        00000 
-1.70738e-12  4.02637e-13        00000 
-2.49244e-12  8.97580e-12        00000 
 1.51577e-12  4.20995e-11        00000 
 2.87874e-11  1.37351e-10        00000 
 1.32596e-10  3.44787e-10        00000 
 4.31876e-10  6.05942e-10        00000 
 1.08966e-09  2.17629e-10        00000 
 1.95059e-09 -3.85631e-09        00000 
 8.73543e-10 -2.10254e-08        00000 
-1.17455e-08 -7.35161e-08        00000 
-6.68485e-08 -1.96252e-07        00000 
-2.40922e-07 -3.87087e-07        00000 
-6.59538e-07 -3.68536e-07        00000 
-1.31483e-06  1.19530e-06        00000 
-1.09039e-06  8.78766e-06        00000 
 5.17742e-06  3.48341e-05        00000 
 3.56150e-05  1.08977e-04        00000 
 1.22113e-04  2.91414e-04        00000 
 4.03895e-04  6.44955e-04        00000 
 2.08377e-04  7.65454e-04        00000 
 3.45054e-03 -3.79236e-03        00000 
-5.67871e-02 -4.83864e-02        00000 
-4.33454e-02 -5.15729e-04        00000 
-5.83501e-02  4.44133e-02        00000 
 2.90909e-03  2.53707e-03        00000 
 5.46261e-04 -1.34785e-03        00000 
 3.62635e-04 -5.70842e-04        00000 
 1.06620e-04 -1.71908e-04        00000 
 4.83834e-06 -6.69302e-05        00000 
 2.32989e-12  4.80442e-13        00000 
 2.04231e-12  3.23364e-14        00000 
 3.29173e-12 -4.44390e-12        00000 
-2.23124e-12 -2.09524e-11        00000 
-3.90032e-11 -6.84083e-11        00000 
-1.78195e-10 -1.71649e-10        00000 
-5.76461e-10 -3.00347e-10        00000 
-1.43724e-09 -9.97447e-11        00000 
-2.49803e-09  1.94729e-09        00000 
-7.80314e-10  1.04825e-08        00000 
 1.64634e-08  3.62584e-08        00000 
 8.86307e-08  9.56217e-08        00000 
 3.08857e-07  1.86419e-07        00000 
 8.24890e-07  1.78193e-07        00000 
 1.63111e-06 -5.45518e-07        00000 
 1.57375e-06 -4.10417e-06        00000 
-5.16461e-06 -1.66792e-05        00000 
-3.75313e-05 -5.38161e-05        00000 
-1.57476e-04 -1.38204e-04        00000 
-4.48105e-04 -2.57437e-04        00000 
-1.58989e-03 -6.45194e-06        00000 
 1.58039e-03 -5.41971e-05        00000 
-2.87278e-02  6.27944e-03        00000 
 8.62872e-01 -6.47979e-03        00000 
-1.07777e-02  1.20515e-02        00000 
 2.52235e-05  4.57716e-03        00000 
 6.70730e-06  1.15966e-03        00000 
 4.34040e-06  2.29328e-04        00000 
 1.30749e-06  1.27826e-05        00000 
-1.78229e-06 -1.93460e-05        00000 
 1.11333e-13 -7.57471e-13        00000 
 2.52537e-14 -2.94137e-12        00000 
 3.87361e-14 -6.37205e-12        00000 
-3.15548e-14 -9.86685e-12        00000 
-4.85932e-13  2.00324e-12        00000 
-2.18920e-12  9.08694e-11        00000 
-7.02666e-12  4.40465e-10        00000 
-1.73792e-11  1.46796e-09        00000 
-2.97500e-11  3.76006e-09        00000 
-7.15268e-12  6.84863e-09        00000 
 2.06796e-10  3.65885e-09        00000 
 1.09188e-09 -3.70869e-08        00000 
 3.77337e-09 -2.13496e-07        00000 
 1.00058e-08 -7.62831e-07        00000 
 1.95720e-08 -2.09147e-06        00000 
 1.79864e-08 -4.38180e-06        00000 
-6.63759e-08 -5.39368e-06        00000 
-4.67022e-07  7.80242e-06        00000 
-1.92791e-06  8.48694e-05        00000 
-5.53119e-06  3.75364e-04        00000 
-1.84976e-05  1.22661e-03        00000 
 1.54307e-05  2.92094e-03        00000 
-2.09812e-04  5.38906e-03        00000 
 1.00878e-02 -1.46238e-19        00000 
 9.55046e-18 -3.64025e-18        00000 
-2.55513e-18  1.34708e-20        00000 
 4.41068e-19  1.33720e-19        00000 
-7.73735e-20 -5.78308e-20        00000 
 1.27633e-20  7.45782e-21        00000 
-4.20672e-21 -2.09136e-21        00000 
-1.66862e-30  1.57386e-28        00000 
-2.18574e-29 -1.84948e-28        00000 
 1.36211e-28  3.02691e-29        00000 
-5.17774e-28  4.65406e-28        00000 
 1.53604e-27 -3.39738e-29        00000 
-2.20932e-27  8.57058e-27        00000 
-7.58731e-28 -3.91586e-26        00000 
 1.26780e-26 -1.80867e-26        00000 
-3.83429e-26  2.55220e-25        00000 
 1.51152e-25  1.05391e-25        00000 
-4.26901e-25 -1.28531e-24        00000 
 9.00864e-25  2.23629e-24        00000 
-3.43889e-24 -3.40572e-24        00000 
 6.82463e-24 -3.00135e-23        00000 
-8.23478e-24  9.93724e-23        00000 
-4.81186e-23  1.09722e-22        00000 
 3.02519e-22 -1.96828e-22        00000 
-4.09410e-22 -3.08765e-23        00000 
-1.11264e-21  1.39772e-20        00000 
 1.52510e-20 -3.45737e-20        00000 
-8.54018e-20  1.19994e-19        00000 
 4.38197e-19 -4.27707e-19        00000 
-1.64215e-18  6.38144e-19        00000 
 3.11036e-18 -3.74776e-19        00000 
-2.01297e-18  3.00929e-19        00000 
 7.25181e-19 -1.52040e-19        00000 
-1.89395e-19 -5.60622e-21        00000 
 3.96705e-20  9.81631e-21        00000 
-7.67939e-21 -3.54485e-21        00000 
 2.65651e-21  1.27102e-21        00000 
-3.66181e-30 -3.40726e-29        00000 
 1.26589e-29  2.03260e-29        00000 
-3.61363e-29  1.90562e-29        00000 
 1.20184e-28 -6.36556e-29        00000 
-2.08195e-28  3.83175e-28        00000 
 2.12990e-28 -1.43642e-27        00000 
 7.62734e-28  4.75619e-27        00000 
-3.31145e-27  1.41973e-26        00000 
 1.32756e-26  4.01279e-27        00000 
-4.40914e-26 -9.44024e-26        00000 
 9.55387e-26  2.62714e-25        00000 
-2.55755e-25 -5.55123e-25        00000 
 5.63116e-25 -5.32123e-25        00000 
-4.72676e-25  1.32228e-24        00000 
-2.80004e-24  7.92728e-24        00000 
 1.51055e-23 -1.82600e-23        00000 
-2.22208e-23 -4.14608e-24        00000 
-1.27622e-23  7.49052e-22        00000 
 1.17535e-21 -2.39422e-21        00000 
-7.24248e-21  1.06762e-20        00000 
 3.30212e-20 -2.89325e-20        00000 
-1.19923e-19  4.78513e-20        00000 
 2.99698e-19 -7.69351e-20        00000 
-4.24354e-19  5.85739e-20        00000 
 3.22801e-19 -4.63062e-20        00000 
-1.61995e-19  2.58739e-20        00000 
 5.56777e-20 -6.81539e-21        00000 
-1.49060e-20 -3.86511e-22        00000 
 3.49378e-21  7.01330e-22        00000 
-1.36854e-21 -4.54080e-22        00000 
 1.72341e-30  4.17719e-30        00000 
-3.24976e-30 -1.85590e-30        00000 
 9.25696e-30 -5.19322e-30        00000 
-2.01547e-29  2.77978e-29        00000 
 2.65814e-29 -9.61751e-29        00000 
 2.54374e-29  2.89022e-28        00000 
-2.59532e-28  1.04323e-28        00000 
 1.06040e-27 -2.91827e-28        00000 
-3.52050e-27 -4.83459e-27        00000 
 9.20906e-27  2.04496e-26        00000 
-2.22907e-26 -4.62559e-26        00000 
 4.85074e-26  3.05802e-26        00000 
-6.18835e-26  4.68332e-26        00000 
-9.97469e-26  2.17612e-25        00000 
 7.81305e-25 -8.64708e-25        00000 
-1.15734e-24 -2.56574e-24        00000 
-7.25048e-24  4.52250e-23        00000 
 9.45537e-23 -2.11318e-22        00000 
-5.75770e-22  7.96615e-22        00000 
 2.57330e-21 -2.37322e-21        00000 
-9.22835e-21  5.06707e-21        00000 
 2.52213e-20 -8.52899e-21        00000 
-4.80402e-20  1.08575e-20        00000 
 6.08888e-20 -1.01222e-20        00000 
-5.16383e-20  7.54579e-21        00000 
 3.06753e-20 -4.70638e-21        00000 
-1.31838e-20  1.86435e-21        00000 
 4.48886e-21 -4.10297e-22        00000 
-1.26607e-21 -5.07270e-23        00000 
 5.70033e-22  8.78677e-23        00000 
-4.92743e-31 -4.16599e-31        00000 
 8.14730e-31 -4.62199e-32        00000 
-1.79440e-30  1.99509e-30        00000 
 2.86663e-30 -8.04806e-30        00000 
-4.27320e-31  2.79689e-29        00000 
-1.73864e-29 -2.49808e-29        00000 
 8.34420e-29  1.87713e-29        00000 
-2.87006e-28 -2.70587e-28        00000 
 8.12582e-28  1.43406e-27        00000 
-2.01373e-27 -3.87452e-27        00000 
 4.39422e-27  5.69333e-27        00000 
-6.98089e-27 -2.88947e-27        00000 
 1.33860e-27  5.08928e-27        00000 
 2.91030e-26 -1.06216e-26        00000 
-5.62778e-27 -3.19524e-25        00000 
-9.10916e-25  3.25574e-24        00000 
 8.07192e-24 -1.65902e-23        00000 
-4.60042e-23  6.30247e-23        00000 
 2.02724e-22 -1.94123e-22        00000 
-7.28448e-22  4.71151e-22        00000 
 2.10290e-21 -9.07273e-22        00000 
-4.66263e-21  1.39539e-21        00000 
 7.66820e-21 -1.69445e-21        00000 
-9.23476e-21  1.62832e-21        00000 
 8.18315e-21 -1.27468e-21        00000 
-5.41849e-21  8.11897e-22        00000 
 2.74273e-21 -3.94766e-22        00000 
-1.10041e-21  1.29323e-22        00000 
 3.83709e-22 -2.19979e-23        00000 
-2.02290e-22  4.71766e-24        00000 
 1.22271e-31  5.26841e-33        00000 
-1.73509e-31  1.13535e-31        00000 
 2.88980e-31 -6.11148e-31        00000 
-2.10719e-31  2.00987e-30        00000 
-1.03614e-30 -3.82295e-30        00000 
 6.30663e-30  5.71898e-30        00000 
-2.33148e-29 -2.08252e-29        00000 
 6.97520e-29  9.85418e-29        00000 
-1.80457e-28 -3.06271e-28        00000 
 4.07495e-28  6.13817e-28        00000 
-7.46052e-28 -7.08115e-28        00000 
 8.51550e-28  3.13686e-28        00000 
-3.61100e-28  2.57855e-27        00000 
 7.62357e-27 -3.42051e-26        00000 
-9.70028e-26  2.55837e-25        00000 
 6.96860e-25 -1.29184e-24        00000 
-3.72784e-24  5.00989e-24        00000 
 1.61545e-23 -1.59806e-23        00000 
-5.83617e-23  4.18176e-23        00000 
 1.75092e-22 -8.97189e-23        00000 
-4.26050e-22  1.58059e-22        00000 
 8.20616e-22 -2.28373e-22        00000 
-1.23282e-21  2.70057e-22        00000 
 1.43796e-21 -2.62596e-22        00000 
-1.30573e-21  2.11644e-22        00000 
 9.30361e-22 -1.41693e-22        00000 
-5.26854e-22  7.63034e-23        00000 
 2.42849e-22 -3.13183e-23        00000 
-9.94744e-23  9.32040e-24        00000 
 5.88278e-23 -3.52205e-24        00000 
-2.36589e-32  1.85440e-32        00000 
 3.36464e-32 -5.10077e-32        00000 
-2.81990e-32  1.75729e-31        00000 
-3.72279e-32 -3.78395e-31        00000 
 5.14261e-31  4.15632e-31        00000 
-1.89929e-30 -3.13427e-30        00000 
 5.78348e-30  7.44927e-30        00000 
-1.59537e-29 -2.34409e-29        00000 
 3.77876e-29  5.66437e-29        00000 
-7.70180e-29 -8.72832e-29        00000 
 1.30745e-28  5.04698e-29        00000 
-2.49806e-28  3.66663e-28        00000 
 1.30413e-27 -3.35462e-27        00000 
-9.74738e-27  2.10302e-26        00000 
 6.04283e-26 -1.02305e-25        00000 
-3.05950e-25  4.01539e-25        00000 
 1.30195e-24 -1.31354e-24        00000 
-4.72547e-24  3.63636e-24        00000 
 1.45908e-23 -8.45325e-24        00000 
-3.78269e-23  1.65282e-23        00000 
 8.09804e-23 -2.71685e-23        00000 
-1.41308e-22  3.75102e-23        00000 
 1.99555e-22 -4.35132e-23        00000 
-2.27612e-22  4.25217e-23        00000 
 2.10073e-22 -3.49767e-23        00000 
-1.57558e-22  2.45228e-23        00000 
 9.68786e-23 -1.42445e-23        00000 
-4.98026e-23  6.70912e-24        00000 
 2.33703e-23 -2.59275e-24        00000 
-1.52704e-23  1.35967e-24        00000 
 4.81486e-33 -7.39092e-33        00000 
-4.52513e-33  1.42153e-32        00000 
-7.07608e-34 -3.52807e-32        00000 
 3.32099e-32  7.01644e-32        00000 
-1.51030e-31 -2.20103e-31        00000 
 4.91837e-31  6.87906e-31        00000 
-1.38771e-30 -1.94075e-30        00000 
 3.47325e-30  4.83750e-30        00000 
-7.71764e-30 -8.86935e-30        00000 
 1.58616e-29  7.02809e-30        00000 
-3.84983e-29  3.52432e-29        00000 
 1.63217e-28 -3.08359e-28        00000 
-9.49632e-28  1.76322e-27        00000 
 5.26143e-27 -8.25234e-27        00000 
-2.53782e-26  3.24330e-26        00000 
 1.06092e-25 -1.08569e-25        00000 
-3.85712e-25  3.12410e-25        00000 
 1.21805e-24 -7.72552e-25        00000 
-3.30732e-24  1.63835e-24        00000 
 7.63625e-24 -2.97789e-24        00000 
-1.48346e-23  4.63643e-24        00000 
 2.40685e-23 -6.18145e-24        00000 
-3.24876e-23  7.06129e-24        00000 
 3.64468e-23 -6.91830e-24        00000 
-3.40254e-23  5.83465e-24        00000 
 2.65120e-23 -4.21488e-24        00000 
-1.73582e-23  2.59894e-24        00000 
 9.73649e-24 -1.35074e-24        00000 
-5.11841e-24  6.20020e-25        00000 
 3.62479e-24 -3.87422e-25        00000 
-7.12984e-34  2.11925e-33        00000 
 3.39446e-34 -3.37133e-33        00000 
 2.05355e-33  7.53452e-33        00000 
-1.14925e-32 -1.97981e-32        00000 
 4.08444e-32  5.85521e-32        00000 
-1.20531e-31 -1.65909e-31        00000 
 3.15748e-31  4.15831e-31        00000 
-7.53582e-31 -8.18999e-31        00000 
 1.73878e-30  8.01197e-31        00000 
-4.65570e-30  2.93623e-30        00000 
 1.80726e-29 -2.70742e-29        00000 
-9.06784e-29  1.48624e-28        00000 
 4.59902e-28 -6.75320e-28        00000 
-2.12448e-27  2.64344e-27        00000 
 8.72831e-27 -8.99045e-27        00000 
-3.17487e-26  2.66771e-26        00000 
 1.01884e-25 -6.89734e-26        00000 
-2.86655e-25  1.56544e-25        00000 
 7.00497e-25 -3.08372e-25        00000 
-1.47467e-24  5.28540e-25        00000 
 2.65629e-24 -7.87906e-25        00000 
-4.07565e-24  1.02149e-24        00000 
 5.31447e-24 -1.15224e-24        00000 
-5.88638e-24  1.13218e-24        00000 
 5.54430e-24 -9.70759e-25        00000 
-4.44825e-24  7.22503e-25        00000 
 3.06091e-24 -4.66845e-25        00000 
-1.84406e-24  2.62061e-25        00000 
 1.06546e-24 -1.36436e-25        00000 
-8.04089e-25  9.50078e-26        00000 
 5.66298e-35 -5.28304e-34        00000 
 9.37383e-35  7.92323e-34        00000 
-8.41038e-34 -1.87460e-33        00000 
 3.31751e-33  5.14516e-33        00000 
-1.03612e-32 -1.42968e-32        00000 
 2.84485e-32  3.60311e-32        00000 
-7.20301e-32 -7.36531e-32        00000 
 1.79700e-31  8.32141e-32        00000 
-5.07988e-31  2.27248e-31        00000 
 1.87644e-30 -2.30567e-30        00000 
-8.53708e-30  1.25122e-29        00000 
 4.03386e-29 -5.58115e-29        00000 
-1.79269e-28  2.17352e-28        00000 
 7.24142e-28 -7.47170e-28        00000 
-2.63085e-27  2.27225e-27        00000 
 8.55096e-27 -6.11260e-27        00000 
-2.47323e-26  1.45525e-26        00000 
 6.31329e-26 -3.06485e-26        00000 
-1.41441e-25  5.68280e-26        00000 
 2.76326e-25 -9.28176e-26        00000 
-4.68634e-25  1.33537e-25        00000 
 6.87952e-25 -1.69213e-25        00000 
-8.72902e-25  1.88920e-25        00000 
 9.57085e-25 -1.86006e-25        00000 
-9.07479e-25  1.61697e-25        00000 
 7.45613e-25 -1.23419e-25        00000 
-5.34343e-25  8.29958e-26        00000 
 3.41769e-25 -4.96128e-26        00000 
-2.13629e-25  2.84652e-26        00000 
 1.69487e-25 -2.13298e-26        00000 
 1.32200e-35  1.27563e-34        00000 
-5.89163e-35 -1.93468e-34        00000 
 2.63130e-34  4.68321e-34        00000 
-8.81210e-34 -1.24525e-33        00000 
 2.57719e-33  3.08007e-33        00000 
-6.83373e-33 -7.74135e-33        00000 
 1.78754e-32  8.20647e-33        00000 
-5.23514e-32  1.69279e-32        00000 
 1.87305e-31 -1.92192e-31        00000 
-7.95604e-31  1.04890e-30        00000 
 3.54902e-30 -4.64437e-30        00000 
-1.52352e-29  1.80602e-29        00000 
 6.05200e-29 -6.25878e-29        00000 
-2.19317e-28  1.93967e-28        00000 
 7.19409e-28 -5.38363e-28        00000 
-2.12568e-27  1.33147e-27        00000 
 5.62021e-27 -2.98375e-27        00000 