<?xml version="1.0" encoding="utf-8"?>
<VTKFile byte_order="LittleEndian" type="UnstructuredGrid" version="0.1">
   <UnstructuredGrid>
      <Piece NumberOfCells="3364" NumberOfPoints="1741">
         <Points>
            <DataArray Name="Points" NumberOfComponents="3" format="ascii" type="Float32">
0.0000 1.0000 0.0000
0.0000 1.0345 0.0000
0.0000 1.0690 0.0000
0.0000 1.1034 0.0000
0.0000 1.1379 0.0000
0.0000 1.1724 0.0000
0.0000 1.2069 0.0000
0.0000 1.2414 0.0000
0.0000 1.2759 0.0000
0.0000 1.3103 0.0000
0.0000 1.3448 0.0000
0.0000 1.3793 0.0000
0.0000 1.4138 0.0000
0.0000 1.4483 0.0000
0.0000 1.4828 0.0000
0.0000 1.5172 0.0000
0.0000 1.5517 0.0000
0.0000 1.5862 0.0000
0.0000 1.6207 0.0000
0.0000 1.6552 0.0000
0.0000 1.6897 0.0000
0.0000 1.7241 0.0000
0.0000 1.7586 0.0000
0.0000 1.7931 0.0000
0.0000 1.8276 0.0000
0.0000 1.8621 0.0000
0.0000 1.8966 0.0000
0.0000 1.9310 0.0000
0.0000 1.9655 0.0000
0.0000 2.0000 0.0000
0.0690 1.0000 0.0000
0.0690 1.0345 0.0000
0.0690 1.0690 0.0000
0.0690 1.1034 0.0000
0.0690 1.1379 0.0000
0.0690 1.1724 0.0000
0.0690 1.2069 0.0000
0.0690 1.2414 0.0000
0.0690 1.2759 0.0000
0.0690 1.3103 0.0000
0.0690 1.3448 0.0000
0.0690 1.3793 0.0000
0.0690 1.4138 0.0000
0.0690 1.4483 0.0000
0.0690 1.4828 0.0000
0.0690 1.5172 0.0000
0.0690 1.5517 0.0000
0.0690 1.5862 0.0000
0.0690 1.6207 0.0000
0.0690 1.6552 0.0000
0.0690 1.6897 0.0000
0.0690 1.7241 0.0000
0.0690 1.7586 0.0000
0.0690 1.7931 0.0000
0.0690 1.8276 0.0000
0.0690 1.8621 0.0000
0.0690 1.8966 0.0000
0.0690 1.9310 0.0000
0.0690 1.9655 0.0000
0.0690 2.0000 0.0000
0.1379 1.0000 0.0000
0.1379 1.0345 0.0000
0.1379 1.0690 0.0000
0.1379 1.1034 0.0000
0.1379 1.1379 0.0000
0.1379 1.1724 0.0000
0.1379 1.2069 0.0000
0.1379 1.2414 0.0000
0.1379 1.2759 0.0000
0.1379 1.3103 0.0000
0.1379 1.3448 0.0000
0.1379 1.3793 0.0000
0.1379 1.4138 0.0000
0.1379 1.4483 0.0000
0.1379 1.4828 0.0000
0.1379 1.5172 0.0000
0.1379 1.5517 0.0000
0.1379 1.5862 0.0000
0.1379 1.6207 0.0000
0.1379 1.6552 0.0000
0.1379 1.6897 0.0000
0.1379 1.7241 0.0000
0.1379 1.7586 0.0000
0.1379 1.7931 0.0000
0.1379 1.8276 0.0000
0.1379 1.8621 0.0000
0.1379 1.8966 0.0000
0.1379 1.9310 0.0000
0.1379 1.9655 0.0000
0.1379 2.0000 0.0000
0.2069 1.0000 0.0000
0.2069 1.0345 0.0000
0.2069 1.0690 0.0000
0.2069 1.1034 0.0000
0.2069 1.1379 0.0000
0.2069 1.1724 0.0000
0.2069 1.2069 0.0000
0.2069 1.2414 0.0000
0.2069 1.2759 0.0000
0.2069 1.3103 0.0000
0.2069 1.3448 0.0000
0.2069 1.3793 0.0000
0.2069 1.4138 0.0000
0.2069 1.4483 0.0000
0.2069 1.4828 0.0000
0.2069 1.5172 0.0000
0.2069 1.5517 0.0000
0.2069 1.5862 0.0000
0.2069 1.6207 0.0000
0.2069 1.6552 0.0000
0.2069 1.6897 0.0000
0.2069 1.7241 0.0000
0.2069 1.7586 0.0000
0.2069 1.7931 0.0000
0.2069 1.8276 0.0000
0.2069 1.8621 0.0000
0.2069 1.8966 0.0000
0.2069 1.9310 0.0000
0.2069 1.9655 0.0000
0.2069 2.0000 0.0000
0.2759 1.0000 0.0000
0.2759 1.0345 0.0000
0.2759 1.0690 0.0000
0.2759 1.1034 0.0000
0.2759 1.1379 0.0000
0.2759 1.1724 0.0000
0.2759 1.2069 0.0000
0.2759 1.2414 0.0000
0.2759 1.2759 0.0000
0.2759 1.3103 0.0000
0.2759 1.3448 0.0000
0.2759 1.3793 0.0000
0.2759 1.4138 0.0000
0.2759 1.4483 0.0000
0.2759 1.4828 0.0000
0.2759 1.5172 0.0000
0.2759 1.5517 0.0000
0.2759 1.5862 0.0000
0.2759 1.6207 0.0000
0.2759 1.6552 0.0000
0.2759 1.6897 0.0000
0.2759 1.7241 0.0000
0.2759 1.7586 0.0000
0.2759 1.7931 0.0000
0.2759 1.8276 0.0000
0.2759 1.8621 0.0000
0.2759 1.8966 0.0000
0.2759 1.9310 0.0000
0.2759 1.9655 0.0000
0.2759 2.0000 0.0000
0.3448 1.0000 0.0000
0.3448 1.0345 0.0000
0.3448 1.0690 0.0000
0.3448 1.1034 0.0000
0.3448 1.1379 0.0000
0.3448 1.1724 0.0000
0.3448 1.2069 0.0000
0.3448 1.2414 0.0000
0.3448 1.2759 0.0000
0.3448 1.3103 0.0000
0.3448 1.3448 0.0000
0.3448 1.3793 0.0000
0.3448 1.4138 0.0000
0.3448 1.4483 0.0000
0.3448 1.4828 0.0000
0.3448 1.5172 0.0000
0.3448 1.5517 0.0000
0.3448 1.5862 0.0000
0.3448 1.6207 0.0000
0.3448 1.6552 0.0000
0.3448 1.6897 0.0000
0.3448 1.7241 0.0000
0.3448 1.7586 0.0000
0.3448 1.7931 0.0000
0.3448 1.8276 0.0000
0.3448 1.8621 0.0000
0.3448 1.8966 0.0000
0.3448 1.9310 0.0000
0.3448 1.9655 0.0000
0.3448 2.0000 0.0000
0.4138 1.0000 0.0000
0.4138 1.0345 0.0000
0.4138 1.0690 0.0000
0.4138 1.1034 0.0000
0.4138 1.1379 0.0000
0.4138 1.1724 0.0000
0.4138 1.2069 0.0000
0.4138 1.2414 0.0000
0.4138 1.2759 0.0000
0.4138 1.3103 0.0000
0.4138 1.3448 0.0000
0.4138 1.3793 0.0000
0.4138 1.4138 0.0000
0.4138 1.4483 0.0000
0.4138 1.4828 0.0000
0.4138 1.5172 0.0000
0.4138 1.5517 0.0000
0.4138 1.5862 0.0000
0.4138 1.6207 0.0000
0.4138 1.6552 0.0000
0.4138 1.6897 0.0000
0.4138 1.7241 0.0000
0.4138 1.7586 0.0000
0.4138 1.7931 0.0000
0.4138 1.8276 0.0000
0.4138 1.8621 0.0000
0.4138 1.8966 0.0000
0.4138 1.9310 0.0000
0.4138 1.9655 0.0000
0.4138 2.0000 0.0000
0.4828 1.0000 0.0000
0.4828 1.0345 0.0000
0.4828 1.0690 0.0000
0.4828 1.1034 0.0000
0.4828 1.1379 0.0000
0.4828 1.1724 0.0000
0.4828 1.2069 0.0000
0.4828 1.2414 0.0000
0.4828 1.2759 0.0000
0.4828 1.3103 0.0000
0.4828 1.3448 0.0000
0.4828 1.3793 0.0000
0.4828 1.4138 0.0000
0.4828 1.4483 0.0000
0.4828 1.4828 0.0000
0.4828 1.5172 0.0000
0.4828 1.5517 0.0000
0.4828 1.5862 0.0000
0.4828 1.6207 0.0000
0.4828 1.6552 0.0000
0.4828 1.6897 0.0000
0.4828 1.7241 0.0000
0.4828 1.7586 0.0000
0.4828 1.7931 0.0000
0.4828 1.8276 0.0000
0.4828 1.8621 0.0000
0.4828 1.8966 0.0000
0.4828 1.9310 0.0000
0.4828 1.9655 0.0000
0.4828 2.0000 0.0000
0.5517 1.0000 0.0000
0.5517 1.0345 0.0000
0.5517 1.0690 0.0000
0.5517 1.1034 0.0000
0.5517 1.1379 0.0000
0.5517 1.1724 0.0000
0.5517 1.2069 0.0000
0.5517 1.2414 0.0000
0.5517 1.2759 0.0000
0.5517 1.3103 0.0000
0.5517 1.3448 0.0000
0.5517 1.3793 0.0000
0.5517 1.4138 0.0000
0.5517 1.4483 0.0000
0.5517 1.4828 0.0000
0.5517 1.5172 0.0000
0.5517 1.5517 0.0000
0.5517 1.5862 0.0000
0.5517 1.6207 0.0000
0.5517 1.6552 0.0000
0.5517 1.6897 0.0000
0.5517 1.7241 0.0000
0.5517 1.7586 0.0000
0.5517 1.7931 0.0000
0.5517 1.8276 0.0000
0.5517 1.8621 0.0000
0.5517 1.8966 0.0000
0.5517 1.9310 0.0000
0.5517 1.9655 0.0000
0.5517 2.0000 0.0000
0.6207 1.0000 0.0000
0.6207 1.0345 0.0000
0.6207 1.0690 0.0000
0.6207 1.1034 0.0000
0.6207 1.1379 0.0000
0.6207 1.1724 0.0000
0.6207 1.2069 0.0000
0.6207 1.2414 0.0000
0.6207 1.2759 0.0000
0.6207 1.3103 0.0000
0.6207 1.3448 0.0000
0.6207 1.3793 0.0000
0.6207 1.4138 0.0000
0.6207 1.4483 0.0000
0.6207 1.4828 0.0000
0.6207 1.5172 0.0000
0.6207 1.5517 0.0000
0.6207 1.5862 0.0000
0.6207 1.6207 0.0000
0.6207 1.6552 0.0000
0.6207 1.6897 0.0000
0.6207 1.7241 0.0000
0.6207 1.7586 0.0000
0.6207 1.7931 0.0000
0.6207 1.8276 0.0000
0.6207 1.8621 0.0000
0.6207 1.8966 0.0000
0.6207 1.9310 0.0000
0.6207 1.9655 0.0000
0.6207 2.0000 0.0000
0.6897 1.0000 0.0000
0.6897 1.0345 0.0000
0.6897 1.0690 0.0000
0.6897 1.1034 0.0000
0.6897 1.1379 0.0000
0.6897 1.1724 0.0000
0.6897 1.2069 0.0000
0.6897 1.2414 0.0000
0.6897 1.2759 0.0000
0.6897 1.3103 0.0000
0.6897 1.3448 0.0000
0.6897 1.3793 0.0000
0.6897 1.4138 0.0000
0.6897 1.4483 0.0000
0.6897 1.4828 0.0000
0.6897 1.5172 0.0000
0.6897 1.5517 0.0000
0.6897 1.5862 0.0000
0.6897 1.6207 0.0000
0.6897 1.6552 0.0000
0.6897 1.6897 0.0000
0.6897 1.7241 0.0000
0.6897 1.7586 0.0000
0.6897 1.7931 0.0000
0.6897 1.8276 0.0000
0.6897 1.8621 0.0000
0.6897 1.8966 0.0000
0.6897 1.9310 0.0000
0.6897 1.9655 0.0000
0.6897 2.0000 0.0000
0.7586 1.0000 0.0000
0.7586 1.0345 0.0000
0.7586 1.0690 0.0000
0.7586 1.1034 0.0000
0.7586 1.1379 0.0000
0.7586 1.1724 0.0000
0.7586 1.2069 0.0000
0.7586 1.2414 0.0000
0.7586 1.2759 0.0000
0.7586 1.3103 0.0000
0.7586 1.3448 0.0000
0.7586 1.3793 0.0000
0.7586 1.4138 0.0000
0.7586 1.4483 0.0000
0.7586 1.4828 0.0000
0.7586 1.5172 0.0000
0.7586 1.5517 0.0000
0.7586 1.5862 0.0000
0.7586 1.6207 0.0000
0.7586 1.6552 0.0000
0.7586 1.6897 0.0000
0.7586 1.7241 0.0000
0.7586 1.7586 0.0000
0.7586 1.7931 0.0000
0.7586 1.8276 0.0000
0.7586 1.8621 0.0000
0.7586 1.8966 0.0000
0.7586 1.9310 0.0000
0.7586 1.9655 0.0000
0.7586 2.0000 0.0000
0.8276 1.0000 0.0000
0.8276 1.0345 0.0000
0.8276 1.0690 0.0000
0.8276 1.1034 0.0000
0.8276 1.1379 0.0000
0.8276 1.1724 0.0000
0.8276 1.2069 0.0000
0.8276 1.2414 0.0000
0.8276 1.2759 0.0000
0.8276 1.3103 0.0000
0.8276 1.3448 0.0000
0.8276 1.3793 0.0000
0.8276 1.4138 0.0000
0.8276 1.4483 0.0000
0.8276 1.4828 0.0000
0.8276 1.5172 0.0000
0.8276 1.5517 0.0000
0.8276 1.5862 0.0000
0.8276 1.6207 0.0000
0.8276 1.6552 0.0000
0.8276 1.6897 0.0000
0.8276 1.7241 0.0000
0.8276 1.7586 0.0000
0.8276 1.7931 0.0000
0.8276 1.8276 0.0000
0.8276 1.8621 0.0000
0.8276 1.8966 0.0000
0.8276 1.9310 0.0000
0.8276 1.9655 0.0000
0.8276 2.0000 0.0000
0.8966 1.0000 0.0000
0.8966 1.0345 0.0000
0.8966 1.0690 0.0000
0.8966 1.1034 0.0000
0.8966 1.1379 0.0000
0.8966 1.1724 0.0000
0.8966 1.2069 0.0000
0.8966 1.2414 0.0000
0.8966 1.2759 0.0000
0.8966 1.3103 0.0000
0.8966 1.3448 0.0000
0.8966 1.3793 0.0000
0.8966 1.4138 0.0000
0.8966 1.4483 0.0000
0.8966 1.4828 0.0000
0.8966 1.5172 0.0000
0.8966 1.5517 0.0000
0.8966 1.5862 0.0000
0.8966 1.6207 0.0000
0.8966 1.6552 0.0000
0.8966 1.6897 0.0000
0.8966 1.7241 0.0000
0.8966 1.7586 0.0000
0.8966 1.7931 0.0000
0.8966 1.8276 0.0000
0.8966 1.8621 0.0000
0.8966 1.8966 0.0000
0.8966 1.9310 0.0000
0.8966 1.9655 0.0000
0.8966 2.0000 0.0000
0.9655 1.0000 0.0000
0.9655 1.0345 0.0000
0.9655 1.0690 0.0000
0.9655 1.1034 0.0000
0.9655 1.1379 0.0000
0.9655 1.1724 0.0000
0.9655 1.2069 0.0000
0.9655 1.2414 0.0000
0.9655 1.2759 0.0000
0.9655 1.3103 0.0000
0.9655 1.3448 0.0000
0.9655 1.3793 0.0000
0.9655 1.4138 0.0000
0.9655 1.4483 0.0000
0.9655 1.4828 0.0000
0.9655 1.5172 0.0000
0.9655 1.5517 0.0000
0.9655 1.5862 0.0000
0.9655 1.6207 0.0000
0.9655 1.6552 0.0000
0.9655 1.6897 0.0000
0.9655 1.7241 0.0000
0.9655 1.7586 0.0000
0.9655 1.7931 0.0000
0.9655 1.8276 0.0000
0.9655 1.8621 0.0000
0.9655 1.8966 0.0000
0.9655 1.9310 0.0000
0.9655 1.9655 0.0000
0.9655 2.0000 0.0000
1.0345 1.0000 0.0000
1.0345 1.0345 0.0000
1.0345 1.0690 0.0000
1.0345 1.1034 0.0000
1.0345 1.1379 0.0000
1.0345 1.1724 0.0000
1.0345 1.2069 0.0000
1.0345 1.2414 0.0000
1.0345 1.2759 0.0000
1.0345 1.3103 0.0000
1.0345 1.3448 0.0000
[...]
         <PointData>
            <DataArray Name="fValues" NumberOfComponents="3" format="ascii" type="Float64">
 1.70311e-20 -5.41939e-21        00000 
-2.29976e-20  2.87470e-21        00000 
 2.13204e-21 -2.13204e-21        00000 
 3.70561e-21 -9.01848e-21        00000 
-1.35029e-20  1.27923e-20        00000 
 7.62742e-21 -1.26463e-20        00000 
-4.97477e-21 -7.10681e-21        00000 
 1.33938e-22  7.50052e-21        00000 
 5.50778e-21  4.26409e-21        00000 
-2.47560e-21 -1.57582e-20        00000 
 1.95437e-21  5.68545e-21        00000 
-1.67422e-21 -1.08936e-20        00000 
 7.10681e-22 -7.81750e-21        00000 
-7.75038e-22  2.62375e-20        00000 
 2.13204e-21 -9.94954e-21        00000 
-1.89745e-21 -5.98256e-21        00000 
-2.13204e-21 -2.84273e-21        00000 
 1.52772e-20  4.75517e-21        00000 
-1.20816e-20 -2.84273e-21        00000 
 6.33973e-21 -4.12975e-22        00000 
-9.94954e-21  8.88352e-22        00000 
-8.05467e-21 -4.18909e-25        00000 
 9.94954e-21 -2.66506e-21        00000 
-1.64297e-20  2.27694e-21        00000 
       00000 -1.42136e-21        00000 
-8.04711e-21 -1.44083e-21        00000 
 4.26409e-21  6.39613e-21        00000 
-1.89652e-20  2.86267e-21        00000 
-1.07517e-21        00000        00000 
 2.68791e-22  7.52114e-21        00000 
 6.46633e-05 -6.96439e-06        00000 
 7.56939e-05 -2.76717e-05        00000 
 7.89685e-05 -4.80232e-05        00000 
 7.70755e-05 -6.64971e-05        00000 
 7.16494e-05 -8.23581e-05        00000 
 6.37091e-05 -9.52048e-05        00000 
 5.39818e-05 -1.04827e-04        00000 
 4.30417e-05 -1.11148e-04        00000 
 3.13690e-05 -1.14198e-04        00000 
 1.93758e-05 -1.14102e-04        00000 
 7.41572e-06 -1.11065e-04        00000 
-4.21325e-06 -1.05361e-04        00000 
-1.52684e-05 -9.73216e-05        00000 
-2.55634e-05 -8.73175e-05        00000 
-3.49689e-05 -7.57463e-05        00000 
-4.34127e-05 -6.30147e-05        00000 
-5.08800e-05 -4.95217e-05        00000 
-5.74120e-05 -3.56422e-05        00000 
-6.31047e-05 -2.17082e-05        00000 
-6.81072e-05 -7.99143e-06        00000 
-7.26206e-05  5.31701e-06        00000 
-7.68980e-05  1.81284e-05        00000 
-8.12479e-05  3.04835e-05        00000 
-8.60446e-05  4.25876e-05        00000 
-9.17559e-05  5.48646e-05        00000 
-9.90102e-05  6.80439e-05        00000 
-1.08771e-04  8.33246e-05        00000 
-1.22840e-04  1.02705e-04        00000 
-1.45662e-04  1.29721e-04        00000 
-1.97423e-04  1.70310e-04        00000 
 1.59548e-04 -6.19522e-05        00000 
 1.78403e-04 -8.72539e-05        00000 
 1.81686e-04 -1.12895e-04        00000 
 1.74636e-04 -1.37083e-04        00000 
 1.60159e-04 -1.58350e-04        00000 
 1.40292e-04 -1.75630e-04        00000 
 1.16608e-04 -1.88215e-04        00000 
 9.04030e-05 -1.95704e-04        00000 
 6.27866e-05 -1.97954e-04        00000 
 3.47190e-05 -1.95038e-04        00000 
 7.02538e-06 -1.87212e-04        00000 
-1.96008e-05 -1.74882e-04        00000 
-4.45989e-05 -1.58573e-04        00000 
-6.75440e-05 -1.38893e-04        00000 
-8.81485e-05 -1.16508e-04        00000 
-1.06263e-04 -9.21067e-05        00000 
-1.21875e-04 -6.63693e-05        00000 
-1.35109e-04 -3.99381e-05        00000 
-1.46218e-04 -1.33867e-05        00000 
-1.55587e-04  1.28110e-05        00000 
-1.63722e-04  3.83108e-05        00000 
-1.71256e-04  6.29291e-05        00000 
-1.78948e-04  8.66750e-05        00000 
-1.87698e-04  1.09783e-04        00000 
-1.98583e-04  1.32747e-04        00000 
-2.12931e-04  1.56340e-04        00000 
-2.32475e-04  1.81603e-04        00000 
-2.59655e-04  2.09676e-04        00000 
-2.98045e-04  2.41004e-04        00000 
-3.44991e-04  2.71776e-04        00000 
 2.88516e-04 -1.16032e-04        00000 
 3.03757e-04 -1.48043e-04        00000 
 3.01978e-04 -1.78064e-04        00000 
 2.86058e-04 -2.05253e-04        00000 
 2.59086e-04 -2.28371e-04        00000 
 2.23759e-04 -2.46284e-04        00000 
 1.82444e-04 -2.58134e-04        00000 
 1.37232e-04 -2.63384e-04        00000 
 8.99766e-05 -2.61807e-04        00000 
 4.23084e-05 -2.53468e-04        00000 
-4.36360e-06 -2.38682e-04        00000 
-4.88559e-05 -2.17974e-04        00000 
-9.02162e-05 -1.92038e-04        00000 
-1.27728e-04 -1.61694e-04        00000 
-1.60916e-04 -1.27840e-04        00000 
-1.89542e-04 -9.14134e-05        00000 
-2.13607e-04 -5.33472e-05        00000 
-2.33342e-04 -1.45296e-05        00000 
-2.49202e-04  2.42343e-05        00000 
-2.61855e-04  6.22579e-05        00000 
-2.72176e-04  9.90063e-05        00000 
-2.81229e-04  1.34125e-04        00000 
-2.90263e-04  1.67462e-04        00000 
-3.00702e-04  1.99085e-04        00000 
-3.14133e-04  2.29273e-04        00000 
-3.32290e-04  2.58482e-04        00000 
-3.56980e-04  2.87245e-04        00000 
-3.89816e-04  3.15953e-04        00000 
-4.31070e-04  3.44545e-04        00000 
-4.80332e-04  3.73802e-04        00000 
 4.50255e-04 -1.58525e-04        00000 
 4.56819e-04 -1.97530e-04        00000 
 4.43583e-04 -2.33145e-04        00000 
 4.13145e-04 -2.63972e-04        00000 
 3.68506e-04 -2.88755e-04        00000 
 3.12822e-04 -3.06401e-04        00000 
 2.49175e-04 -3.16092e-04        00000 
 1.80465e-04 -3.17334e-04        00000 
 1.09354e-04 -3.09977e-04        00000 
 3.82234e-05 -2.94197e-04        00000 
-3.08486e-05 -2.70460e-04        00000 
-9.61130e-05 -2.39484e-04        00000 
-1.56165e-04 -2.02189e-04        00000 
-2.09956e-04 -1.59645e-04        00000 
-2.56795e-04 -1.13022e-04        00000 
-2.96353e-04 -6.35333e-05        00000 
-3.28652e-04 -1.23900e-05        00000 
-3.54057e-04  3.92496e-05        00000 
-3.73256e-04  9.03223e-05        00000 
-3.87244e-04  1.39899e-04        00000 
-3.97296e-04  1.87217e-04        00000 
-4.04945e-04  2.31707e-04        00000 
-4.11944e-04  2.73008e-04        00000 
-4.20230e-04  3.10977e-04        00000 
-4.31867e-04  3.45681e-04        00000 
-4.48951e-04  3.77375e-04        00000 
-4.73451e-04  4.06468e-04        00000 
-5.06941e-04  4.33521e-04        00000 
-5.50568e-04  4.59439e-04        00000 
-6.04787e-04  4.85368e-04        00000 
 6.48299e-04 -1.83500e-04        00000 
 6.42332e-04 -2.30925e-04        00000 
 6.11983e-04 -2.73443e-04        00000 
 5.60435e-04 -3.09096e-04        00000 
 4.91370e-04 -3.36304e-04        00000 
 4.08714e-04 -3.53886e-04        00000 
 3.16424e-04 -3.61062e-04        00000 
 2.18322e-04 -3.57460e-04        00000 
 1.17975e-04 -3.43101e-04        00000 
 1.86099e-05 -3.18377e-04        00000 
-7.69479e-05 -2.84011e-04        00000 
-1.66316e-04 -2.41009e-04        00000 
-2.47588e-04 -1.90606e-04        00000 
-3.19349e-04 -1.34204e-04        00000 
-3.80684e-04 -7.33153e-05        00000 
-4.31179e-04 -9.49605e-06        00000 
-4.70906e-04  5.57114e-05        00000 
-5.00402e-04  1.20835e-04        00000 
-5.20642e-04  1.84521e-04        00000 
-5.33005e-04  2.45577e-04        00000 
-5.39229e-04  3.03007e-04        00000 
-5.41371e-04  3.56031e-04        00000 
-5.41753e-04  4.04107e-04        00000 
-5.42903e-04  4.46938e-04        00000 
-5.47485e-04  4.84481e-04        00000 
-5.58201e-04  5.16957e-04        00000 
-5.77677e-04  5.44881e-04        00000 
-6.08371e-04  5.69124e-04        00000 
-6.52431e-04  5.90951e-04        00000 
-7.11606e-04  6.12150e-04        00000 
 8.91015e-04 -1.85330e-04        00000 
 8.67838e-04 -2.43383e-04        00000 
 8.13762e-04 -2.94671e-04        00000 
 7.33310e-04 -3.36619e-04        00000 
 6.31478e-04 -3.67302e-04        00000 
 5.13465e-04 -3.85402e-04        00000 
 3.84450e-04 -3.90168e-04        00000 
 2.49416e-04 -3.81369e-04        00000 
 1.13007e-04 -3.59252e-04        00000 
-2.05716e-05 -3.24498e-04        00000 
-1.47641e-04 -2.78166e-04        00000 
-2.65106e-04 -2.21643e-04        00000 
-3.70497e-04 -1.56575e-04        00000 
-4.62008e-04 -8.47973e-05        00000 
-5.38498e-04 -8.26000e-06        00000 
-5.99499e-04  7.10506e-05        00000 
-6.45188e-04  1.51187e-04        00000 
-6.76358e-04  2.30311e-04        00000 
-6.94367e-04  3.06752e-04        00000 
-7.01080e-04  3.79053e-04        00000 
-6.98809e-04  4.46007e-04        00000 
-6.90243e-04  5.06676e-04        00000 
-6.78384e-04  5.60404e-04        00000 
-6.66484e-04  6.06821e-04        00000 
-6.57980e-04  6.45862e-04        00000 
-6.56427e-04  6.77780e-04        00000 
-6.65441e-04  7.03194e-04        00000 
-6.88614e-04  7.23140e-04        00000 
-7.29442e-04  7.39161e-04        00000 
-7.91210e-04  7.53389e-04        00000 
 1.19125e-03 -1.55263e-04        00000 
 1.14396e-03 -2.27020e-04        00000 
 1.05736e-03 -2.89521e-04        00000 
 9.38094e-04 -3.39647e-04        00000 
 7.93097e-04 -3.75194e-04        00000 
 6.29342e-04 -3.94766e-04        00000 
 4.53608e-04 -3.97668e-04        00000 
 2.72317e-04 -3.83835e-04        00000 
 9.14131e-05 -3.53758e-04        00000 
-8.37477e-05 -3.08433e-04        00000 
-2.48481e-04 -2.49311e-04        00000 
-3.98854e-04 -1.78230e-04        00000 
-5.31749e-04 -9.73509e-05        00000 
-6.44916e-04 -9.06287e-06        00000 
-7.36995e-04  8.41149e-05        00000 
-8.07517e-04  1.79642e-04        00000 
-8.56876e-04  2.75062e-04        00000 
-8.86267e-04  3.68103e-04        00000 
-8.97607e-04  4.56751e-04        00000 
-8.93437e-04  5.39309e-04        00000 
-8.76820e-04  6.14427e-04        00000 
-8.51238e-04  6.81108e-04        00000 
-8.20516e-04  7.38700e-04        00000 
-7.88744e-04  7.86877e-04        00000 
-7.60244e-04  8.25632e-04        00000 
-7.39539e-04  8.55275e-04        00000 
-7.31344e-04  8.76472e-04        00000 
-7.40550e-04  8.90308e-04        00000 
-7.72197e-04  8.98393e-04        00000 
-8.31403e-04  9.02998e-04        00000 
 1.56631e-03 -7.86183e-05        00000 
 1.48433e-03 -1.67976e-04        00000 
 1.35312e-03 -2.44730e-04        00000 
 1.18224e-03 -3.05461e-04        00000 
 9.81180e-04 -3.47896e-04        00000 
 7.59082e-04 -3.70682e-04        00000 
 5.24599e-04 -3.73226e-04        00000 
 2.85818e-04 -3.55594e-04        00000 
 5.01849e-05 -3.18457e-04        00000 
-1.75567e-04 -2.63074e-04        00000 
-3.85519e-04 -1.91271e-04        00000 
-5.74680e-04 -1.05395e-04        00000 
-7.39102e-04 -8.24154e-06        00000 
-8.75981e-04  9.70656e-05        00000 
-9.83721e-04  2.07226e-04        00000 
-1.06195e-03  3.18934e-04        00000 
-1.11147e-03  4.29049e-04        00000 
-1.13414e-03  5.34751e-04        00000 
-1.13278e-03  6.33658e-04        00000 
-1.11093e-03  7.23891e-04        00000 
-1.07269e-03  8.04097e-04        00000 
-1.02260e-03  8.73419e-04        00000 
-9.65436e-04  9.31432e-04        00000 
-9.06200e-04  9.78062e-04        00000 
-8.50071e-04  1.01351e-03        00000 
-8.02458e-04  1.03822e-03        00000 
-7.69079e-04  1.05285e-03        00000 
-7.56062e-04  1.05835e-03        00000 
-7.70039e-04  1.05613e-03        00000 
-8.18181e-04  1.04820e-03        00000 
 2.03752e-03  6.87570e-05        00000 
 1.90495e-03 -4.27228e-05        00000 
 1.71281e-03 -1.37303e-04        00000 
 1.47436e-03 -2.11862e-04        00000 
 1.20194e-03 -2.64469e-04        00000 
 9.06881e-04 -2.93982e-04        00000 
 5.99700e-04 -2.99833e-04        00000 
 2.90164e-04 -2.81982e-04        00000 
-1.26062e-05 -2.40981e-04        00000 
-3.00184e-04 -1.78094e-04        00000 
-5.64982e-04 -9.53820e-05        00000 
-8.00481e-04  4.26976e-06        00000 
-1.00149e-03  1.17235e-04        00000 
-1.16439e-03  2.39323e-04        00000 
-1.28726e-03  3.66040e-04        00000 
-1.36998e-03  4.92906e-04        00000 
-1.41412e-03  6.15754e-04        00000 
-1.42275e-03  7.31012e-04        00000 
-1.40016e-03  8.35882e-04        00000 
-1.35151e-03  9.28440e-04        00000 
-1.28251e-03  1.00762e-03        00000 
-1.19908e-03  1.07308e-03        00000 
-1.10716e-03  1.12507e-03        00000 
-1.01260e-03  1.16417e-03        00000 
-9.21198e-04  1.19112e-03        00000 
-8.38863e-04  1.20664e-03        00000 
-7.71843e-04  1.21138e-03        00000 
-7.27056e-04  1.20593e-03        00000 
-7.12407e-04  1.19103e-03        00000 
-7.37075e-04  1.16782e-03        00000 
 2.62839e-03  3.25207e-04        00000 
 2.42227e-03  1.87084e-04        00000 
 2.14858e-03  7.07872e-05        00000 
 1.82441e-03 -2.21460e-05        00000 
 1.46428e-03 -9.08213e-05        00000 
 1.08086e-03 -1.34356e-04        00000 
 6.85703e-04 -1.51735e-04        00000 
 2.89930e-04 -1.42013e-04        00000 
-9.55038e-05 -1.04782e-04        00000 
-4.59826e-04 -4.05966e-05        00000 
-7.92812e-04  4.85986e-05        00000 
-1.08535e-03  1.59370e-04        00000 
-1.33003e-03  2.86836e-04        00000 
-1.52180e-03  4.25033e-04        00000 
-1.65821e-03  5.67428e-04        00000 
-1.73969e-03  7.07506e-04        00000 
-1.76927e-03  8.39425e-04        00000 
-1.75229e-03  9.58449e-04        00000 
-1.69573e-03  1.06135e-03        00000 
-1.60752e-03  1.14643e-03        00000 
-1.49592e-03  1.21351e-03        00000 
-1.36886e-03  1.26353e-03        00000 
-1.23365e-03  1.29822e-03        00000 
-1.09678e-03  1.31958e-03        00000 
-9.64039e-04  1.32945e-03        00000 
-8.40913e-04  1.32920e-03        00000 
-7.33087e-04  1.31946e-03        00000 
-6.47131e-04  1.30017e-03        00000 
-5.91231e-04  1.27072e-03        00000 
-5.75897e-04  1.23037e-03        00000 
 3.35925e-03  7.49197e-04        00000 
 3.04854e-03  5.81488e-04        00000 
 2.67069e-03  4.39768e-04        00000 
 2.24449e-03  3.21491e-04        00000 
 1.78352e-03  2.25551e-04        00000 
 1.29862e-03  1.53037e-04        00000 
 8.00205e-04  1.06951e-04        00000 
 2.99781e-04  9.11378e-05        00000 
-1.89371e-04  1.09063e-04        00000 
-6.52563e-04  1.62313e-04        00000 
-1.07462e-03  2.49929e-04        00000 
-1.44132e-03  3.67678e-04        00000 
-1.74097e-03  5.08519e-04        00000 
-1.96558e-03  6.63137e-04        00000 
-2.11190e-03  8.21093e-04        00000 
-2.18146e-03  9.72217e-04        00000 
-2.18040e-03  1.10758e-03        00000 
-2.11847e-03  1.22076e-03        00000 
-2.00769e-03  1.30805e-03        00000 
-1.86109e-03  1.36885e-03        00000 
-1.69112e-03  1.40499e-03        00000 
-1.50877e-03  1.42021e-03        00000 
-1.32283e-03  1.41918e-03        00000 
-1.13977e-03  1.40656e-03        00000 
-9.64104e-04  1.38624e-03        00000 
-7.99109e-04  1.36066e-03        00000 
-6.47831e-04  1.33051e-03        00000 
-5.14320e-04  1.29462e-03        00000 
-4.04939e-04  1.25013e-03        00000 
-3.29720e-04  1.19296e-03        00000 
 4.23376e-03  1.42476e-03        00000 
 3.78196e-03  1.22967e-03        00000 
 3.28372e-03  1.06011e-03        00000 
 2.75159e-03  9.05143e-04        00000 
 2.18941e-03  7.60735e-04        00000 
 1.59871e-03  6.30021e-04        00000 
 9.83827e-04  5.21662e-04        00000 
 3.55236e-04  4.47106e-04        00000 
-2.70127e-04  4.16786e-04        00000 
-8.69447e-04  4.38047e-04        00000 
-1.41724e-03  5.11685e-04        00000 
-1.88869e-03  6.32652e-04        00000 
-2.26284e-03  7.89077e-04        00000 
-2.52635e-03  9.64925e-04        00000 
-2.67414e-03  1.14221e-03        00000 
-2.71092e-03  1.30319e-03        00000 
-2.64939e-03  1.43414e-03        00000 
-2.50834e-03  1.52548e-03        00000 
-2.30998e-03  1.57426e-03        00000 
-2.07632e-03  1.58250e-03        00000 
-1.82712e-03  1.55694e-03        00000 
-1.57751e-03  1.50683e-03        00000 
-1.33742e-03  1.44220e-03        00000 
-1.11165e-03  1.37217e-03        00000 
-9.00839e-04  1.30365e-03        00000 
-7.02955e-04  1.24057e-03        00000 
-5.15085e-04  1.18346e-03        00000 
-3.35284e-04  1.12941e-03        00000 
-1.64542e-04  1.07217e-03        00000 
-8.89384e-06  1.00256e-03        00000 
 5.20956e-03  2.45954e-03        00000 
 4.58745e-03  2.25161e-03        00000 
 3.98007e-03  2.05585e-03        00000 
 3.37323e-03  1.84665e-03        00000 
 2.74133e-03  1.61663e-03        00000 
 2.06130e-03  1.37537e-03        00000 
 1.32249e-03  1.14465e-03        00000 
 5.31123e-04  9.51794e-04        00000 
-2.86575e-04  8.24195e-04        00000 
-1.09146e-03  7.78736e-04        00000 
-1.83491e-03  8.23659e-04        00000 
-2.46844e-03  9.48674e-04        00000 
-2.95342e-03  1.13390e-03        00000 
-3.26310e-03  1.34836e-03        00000 
-3.39256e-03  1.55716e-03        00000 
-3.35296e-03  1.73074e-03        00000 
-3.17270e-03  1.84336e-03        00000 
-2.89084e-03  1.88526e-03        00000 
-2.54841e-03  1.85472e-03        00000 
-2.18540e-03  1.76312e-03        00000 
-1.83183e-03  1.62733e-03        00000 
-1.50755e-03  1.46716e-03        00000 
-1.22100e-03  1.30145e-03        00000 
-9.70884e-04  1.14523e-03        00000 
-7.49161e-04  1.00847e-03        00000 
-5.43985e-04  8.95933e-04        00000 
-3.42113e-04  8.07203e-04        00000 
-1.31117e-04  7.36739e-04        00000 
 9.83329e-05  6.73859e-04        00000 
 3.49789e-04  6.02701e-04        00000 
 6.14367e-03  3.95563e-03        00000 
 5.36457e-03  3.77403e-03        00000 
 4.72772e-03  3.56533e-03        00000 
 4.15222e-03  3.28294e-03        00000 
 3.54820e-03  2.91554e-03        00000 
 2.83926e-03  2.48385e-03        00000 
 1.98170e-03  2.03430e-03        00000 
 9.76212e-04  1.62678e-03        00000 
-1.40577e-04  1.31647e-03        00000 
-1.28510e-03  1.15549e-03        00000 
-2.36233e-03  1.15077e-03        00000 
-3.27390e-03  1.30010e-03        00000 
-3.93175e-03  1.55258e-03        00000 
-4.29715e-03  1.84814e-03        00000 
-4.35406e-03  2.12286e-03        00000 
-4.14242e-03  2.30776e-03        00000 
-3.72748e-03  2.37726e-03        00000 
-3.18796e-03  2.30841e-03        00000 
-2.61278e-03  2.12380e-03        00000 
-2.06411e-03  1.85216e-03        00000 
-1.58795e-03  1.53399e-03        00000 
-1.20226e-03  1.20795e-03        00000 
-9.02733e-04  9.02755e-04        00000 
-6.72392e-04  6.36588e-04        00000 
-4.87987e-04  4.19013e-04        00000 
-3.23314e-04  2.52834e-04        00000 
-1.51017e-04  1.34966e-04        00000 
 5.60419e-05  5.65521e-05        00000 
 3.23019e-04  2.25086e-06        00000 
 6.70454e-04 -5.06937e-05        00000 
 6.71670e-03  5.91121e-03        00000 
 5.90738e-03  5.83411e-03        00000 
 5.44353e-03  5.65523e-03        00000 
 5.12592e-03  5.30971e-03        00000 
 4.76216e-03  4.77827e-03        00000 
 4.18262e-03  4.08202e-03        00000 
 3.26296e-03  3.28823e-03        00000 
 1.96438e-03  2.51251e-03        00000 
 3.74558e-04  1.89233e-03        00000 
-1.38953e-03  1.50038e-03        00000 
-3.08805e-03  1.44897e-03        00000 
-4.49821e-03  1.65573e-03        00000 
-5.47348e-03  2.07802e-03        00000 
-5.86021e-03  2.56355e-03        00000 
-5.71569e-03  2.94144e-03        00000 
-5.10837e-03  3.15145e-03        00000 
-4.20127e-03  3.06855e-03        00000 
-3.21340e-03  2.76518e-03        00000 
-2.26912e-03  2.27150e-03        00000 
-1.49917e-03  1.68836e-03        00000 
-9.37614e-04  1.10554e-03        00000 
-5.60774e-04  5.75281e-04        00000 
-3.27293e-04  1.21516e-04        00000 
-1.94150e-04 -2.47620e-04        00000 
-1.20034e-04 -5.31912e-04        00000 
-6.45578e-05 -7.35371e-04        00000 
 1.37757e-05 -8.65090e-04        00000 
 1.58456e-04 -9.32590e-04        00000 
 4.14913e-04 -9.55464e-04        00000 
 8.28878e-04 -9.60718e-04        00000 
 6.39401e-03  7.99400e-03        00000 
 5.89368e-03  8.13799e-03        00000 
 5.94481e-03  8.08960e-03        00000 
 6.21796e-03  7.80378e-03        00000 
 6.43671e-03  7.24492e-03        00000 
 6.33560e-03  6.38209e-03        00000 
 5.63783e-03  5.21934e-03        00000 
 4.09547e-03  3.86667e-03        00000 
 1.65663e-03  2.61204e-03        00000 
-1.18228e-03  1.87939e-03        00000 
-4.15928e-03  1.56889e-03        00000 
-6.66718e-03  2.05177e-03        00000 
-8.08282e-03  2.83338e-03        00000 
-8.51339e-03  3.67172e-03        00000 
-7.69661e-03  4.36032e-03        00000 
-6.10334e-03  4.33100e-03        00000 
-4.27330e-03  3.92968e-03        00000 