<?xml version="1.0" encoding="utf-8"?>
<VTKFile byte_order="LittleEndian" type="UnstructuredGrid" version="0.1">
   <UnstructuredGrid>
      <Piece NumberOfCells="3364" NumberOfPoints="1741">
         <Points>
            <DataArray Name="Points" NumberOfComponents="3" format="ascii" type="Float32">
0.0000 1.0000 0.0000
0.0000 1.0345 0.0000
0.0000 1.0690 0.0000
0.0000 1.1034 0.0000
0.0000 1.1379 0.0000
0.0000 1.1724 0.0000
0.0000 1.2069 0.0000
0.0000 1.2414 0.0000
0.0000 1.2759 0.0000
0.0000 1.3103 0.0000
0.0000 1.3448 0.0000
0.0000 1.3793 0.0000
0.0000 1.4138 0.0000
0.0000 1.4483 0.0000
0.0000 1.4828 0.0000
0.0000 1.5172 0.0000
0.0000 1.5517 0.0000
0.0000 1.5862 0.0000
0.0000 1.6207 0.0000
0.0000 1.6552 0.0000
0.0000 1.6897 0.0000
0.0000 1.7241 0.0000
0.0000 1.7586 0.0000
0.0000 1.7931 0.0000
0.0000 1.8276 0.0000
0.0000 1.8621 0.0000
0.0000 1.8966 0.0000
0.0000 1.9310 0.0000
0.0000 1.9655 0.0000
0.0000 2.0000 0.0000
0.0690 1.0000 0.0000
0.0690 1.0345 0.0000
0.0690 1.0690 0.0000
0.0690 1.1034 0.0000
0.0690 1.1379 0.0000
0.0690 1.1724 0.0000
0.0690 1.2069 0.0000
0.0690 1.2414 0.0000
0.0690 1.2759 0.0000
0.0690 1.3103 0.0000
0.0690 1.3448 0.0000
0.0690 1.3793 0.0000
0.0690 1.4138 0.0000
0.0690 1.4483 0.0000
0.0690 1.4828 0.0000
0.0690 1.5172 0.0000
0.0690 1.5517 0.0000
0.0690 1.5862 0.0000
0.0690 1.6207 0.0000
0.0690 1.6552 0.0000
0.0690 1.6897 0.0000
0.0690 1.7241 0.0000
0.0690 1.7586 0.0000
0.0690 1.7931 0.0000
0.0690 1.8276 0.0000
0.0690 1.8621 0.0000
0.0690 1.8966 0.0000
0.0690 1.9310 0.0000
0.0690 1.9655 0.0000
0.0690 2.0000 0.0000
0.1379 1.0000 0.0000
0.1379 1.0345 0.0000
0.1379 1.0690 0.0000
0.1379 1.1034 0.0000
0.1379 1.1379 0.0000
0.1379 1.1724 0.0000
0.1379 1.2069 0.0000
0.1379 1.2414 0.0000
0.1379 1.2759 0.0000
0.1379 1.3103 0.0000
0.1379 1.3448 0.0000
0.1379 1.3793 0.0000
0.1379 1.4138 0.0000
0.1379 1.4483 0.0000
0.1379 1.4828 0.0000
0.1379 1.5172 0.0000
0.1379 1.5517 0.0000
0.1379 1.5862 0.0000
0.1379 1.6207 0.0000
0.1379 1.6552 0.0000
0.1379 1.6897 0.0000
0.1379 1.7241 0.0000
0.1379 1.7586 0.0000
0.1379 1.7931 0.0000
0.1379 1.8276 0.0000
0.1379 1.8621 0.0000
0.1379 1.8966 0.0000
0.1379 1.9310 0.0000
0.1379 1.9655 0.0000
0.1379 2.0000 0.0000
0.2069 1.0000 0.0000
0.2069 1.0345 0.0000
0.2069 1.0690 0.0000
0.2069 1.1034 0.0000
0.2069 1.1379 0.0000
0.2069 1.1724 0.0000
0.2069 1.2069 0.0000
0.2069 1.2414 0.0000
0.2069 1.2759 0.0000
0.2069 1.3103 0.0000
0.2069 1.3448 0.0000
0.2069 1.3793 0.0000
0.2069 1.4138 0.0000
0.2069 1.4483 0.0000
0.2069 1.4828 0.0000
0.2069 1.5172 0.0000
0.2069 1.5517 0.0000
0.2069 1.5862 0.0000
0.2069 1.6207 0.0000
0.2069 1.6552 0.0000
0.2069 1.6897 0.0000
0.2069 1.7241 0.0000
0.2069 1.7586 0.0000
0.2069 1.7931 0.0000
0.2069 1.8276 0.0000
0.2069 1.8621 0.0000
0.2069 1.8966 0.0000
0.2069 1.9310 0.0000
0.2069 1.9655 0.0000
0.2069 2.0000 0.0000
0.2759 1.0000 0.0000
0.2759 1.0345 0.0000
0.2759 1.0690 0.0000
0.2759 1.1034 0.0000
0.2759 1.1379 0.0000
0.2759 1.1724 0.0000
0.2759 1.2069 0.0000
0.2759 1.2414 0.0000
0.2759 1.2759 0.0000
0.2759 1.3103 0.0000
0.2759 1.3448 0.0000
0.2759 1.3793 0.0000
0.2759 1.4138 0.0000
0.2759 1.4483 0.0000
0.2759 1.4828 0.0000
0.2759 1.5172 0.0000
0.2759 1.5517 0.0000
0.2759 1.5862 0.0000
0.2759 1.6207 0.0000
0.2759 1.6552 0.0000
0.2759 1.6897 0.0000
0.2759 1.7241 0.0000
0.2759 1.7586 0.0000
0.2759 1.7931 0.0000
0.2759 1.8276 0.0000
0.2759 1.8621 0.0000
0.2759 1.8966 0.0000
0.2759 1.9310 0.0000
0.2759 1.9655 0.0000
0.2759 2.0000 0.0000
0.3448 1.0000 0.0000
0.3448 1.0345 0.0000
0.3448 1.0690 0.0000
0.3448 1.1034 0.0000
0.3448 1.1379 0.0000
0.3448 1.1724 0.0000
0.3448 1.2069 0.0000
0.3448 1.2414 0.0000
0.3448 1.2759 0.0000
0.3448 1.3103 0.0000
0.3448 1.3448 0.0000
0.3448 1.3793 0.0000
0.3448 1.4138 0.0000
0.3448 1.4483 0.0000
0.3448 1.4828 0.0000
0.3448 1.5172 0.0000
0.3448 1.5517 0.0000
0.3448 1.5862 0.0000
0.3448 1.6207 0.0000
0.3448 1.6552 0.0000
0.3448 1.6897 0.0000
0.3448 1.7241 0.0000
0.3448 1.7586 0.0000
0.3448 1.7931 0.0000
0.3448 1.8276 0.0000
0.3448 1.8621 0.0000
0.3448 1.8966 0.0000
0.3448 1.9310 0.0000
0.3448 1.9655 0.0000
0.3448 2.0000 0.0000
0.4138 1.0000 0.0000
0.4138 1.0345 0.0000
0.4138 1.0690 0.0000
0.4138 1.1034 0.0000
0.4138 1.1379 0.0000
0.4138 1.1724 0.0000
0.4138 1.2069 0.0000
0.4138 1.2414 0.0000
0.4138 1.2759 0.0000
0.4138 1.3103 0.0000
0.4138 1.3448 0.0000
0.4138 1.3793 0.0000
0.4138 1.4138 0.0000
0.4138 1.4483 0.0000
0.4138 1.4828 0.0000
0.4138 1.5172 0.0000
0.4138 1.5517 0.0000
0.4138 1.5862 0.0000
0.4138 1.6207 0.0000
0.4138 1.6552 0.0000
0.4138 1.6897 0.0000
0.4138 1.7241 0.0000
0.4138 1.7586 0.0000
0.4138 1.7931 0.0000
0.4138 1.8276 0.0000
0.4138 1.8621 0.0000
0.4138 1.8966 0.0000
0.4138 1.9310 0.0000
0.4138 1.9655 0.0000
0.4138 2.0000 0.0000
0.4828 1.0000 0.0000
0.4828 1.0345 0.0000
0.4828 1.0690 0.0000
0.4828 1.1034 0.0000
0.4828 1.1379 0.0000
0.4828 1.1724 0.0000
0.4828 1.2069 0.0000
0.4828 1.2414 0.0000
0.4828 1.2759 0.0000
0.4828 1.3103 0.0000
0.4828 1.3448 0.0000
0.4828 1.3793 0.0000
0.4828 1.4138 0.0000
0.4828 1.4483 0.0000
0.4828 1.4828 0.0000
0.4828 1.5172 0.0000
0.4828 1.5517 0.0000
0.4828 1.5862 0.0000
0.4828 1.6207 0.0000
0.4828 1.6552 0.0000
0.4828 1.6897 0.0000
0.4828 1.7241 0.0000
0.4828 1.7586 0.0000
0.4828 1.7931 0.0000
0.4828 1.8276 0.0000
0.4828 1.8621 0.0000
0.4828 1.8966 0.0000
0.4828 1.9310 0.0000
0.4828 1.9655 0.0000
0.4828 2.0000 0.0000
0.5517 1.0000 0.0000
0.5517 1.0345 0.0000
0.5517 1.0690 0.0000
0.5517 1.1034 0.0000
0.5517 1.1379 0.0000
0.5517 1.1724 0.0000
0.5517 1.2069 0.0000
0.5517 1.2414 0.0000
0.5517 1.2759 0.0000
0.5517 1.3103 0.0000
0.5517 1.3448 0.0000
0.5517 1.3793 0.0000
0.5517 1.4138 0.0000
0.5517 1.4483 0.0000
0.5517 1.4828 0.0000
0.5517 1.5172 0.0000
0.5517 1.5517 0.0000
0.5517 1.5862 0.0000
0.5517 1.6207 0.0000
0.5517 1.6552 0.0000
0.5517 1.6897 0.0000
0.5517 1.7241 0.0000
0.5517 1.7586 0.0000
0.5517 1.7931 0.0000
0.5517 1.8276 0.0000
0.5517 1.8621 0.0000
0.5517 1.8966 0.0000
0.5517 1.9310 0.0000
0.5517 1.9655 0.0000
0.5517 2.0000 0.0000
0.6207 1.0000 0.0000
0.6207 1.0345 0.0000
0.6207 1.0690 0.0000
0.6207 1.1034 0.0000
0.6207 1.1379 0.0000
0.6207 1.1724 0.0000
0.6207 1.2069 0.0000
0.6207 1.2414 0.0000
0.6207 1.2759 0.0000
0.6207 1.3103 0.0000
0.6207 1.3448 0.0000
0.6207 1.3793 0.0000
0.6207 1.4138 0.0000
0.6207 1.4483 0.0000
0.6207 1.4828 0.0000
0.6207 1.5172 0.0000
0.6207 1.5517 0.0000
0.6207 1.5862 0.0000
0.6207 1.6207 0.0000
0.6207 1.6552 0.0000
0.6207 1.6897 0.0000
0.6207 1.7241 0.0000
0.6207 1.7586 0.0000
0.6207 1.7931 0.0000
0.6207 1.8276 0.0000
0.6207 1.8621 0.0000
0.6207 1.8966 0.0000
0.6207 1.9310 0.0000
0.6207 1.9655 0.0000
0.6207 2.0000 0.0000
0.6897 1.0000 0.0000
0.6897 1.0345 0.0000
0.6897 1.0690 0.0000
0.6897 1.1034 0.0000
0.6897 1.1379 0.0000
0.6897 1.1724 0.0000
0.6897 1.2069 0.0000
0.6897 1.2414 0.0000
0.6897 1.2759 0.0000
0.6897 1.3103 0.0000
0.6897 1.3448 0.0000
0.6897 1.3793 0.0000
0.6897 1.4138 0.0000
0.6897 1.4483 0.0000
0.6897 1.4828 0.0000
0.6897 1.5172 0.0000
0.6897 1.5517 0.0000
0.6897 1.5862 0.0000
0.6897 1.6207 0.0000
0.6897 1.6552 0.0000
0.6897 1.6897 0.0000
0.6897 1.7241 0.0000
0.6897 1.7586 0.0000
0.6897 1.7931 0.0000
0.6897 1.8276 0.0000
0.6897 1.8621 0.0000
0.6897 1.8966 0.0000
0.6897 1.9310 0.0000
0.6897 1.9655 0.0000
0.6897 2.0000 0.0000
0.7586 1.0000 0.0000
0.7586 1.0345 0.0000
0.7586 1.0690 0.0000
0.7586 1.1034 0.0000
0.7586 1.1379 0.0000
0.7586 1.1724 0.0000
0.7586 1.2069 0.0000
0.7586 1.2414 0.0000
0.7586 1.2759 0.0000
0.7586 1.3103 0.0000
0.7586 1.3448 0.0000
0.7586 1.3793 0.0000
0.7586 1.4138 0.0000
0.7586 1.4483 0.0000
0.7586 1.4828 0.0000
0.7586 1.5172 0.0000
0.7586 1.5517 0.0000
0.7586 1.5862 0.0000
0.7586 1.6207 0.0000
0.7586 1.6552 0.0000
0.7586 1.6897 0.0000
0.7586 1.7241 0.0000
0.7586 1.7586 0.0000
0.7586 1.7931 0.0000
0.7586 1.8276 0.0000
0.7586 1.8621 0.0000
0.7586 1.8966 0.0000
0.7586 1.9310 0.0000
0.7586 1.9655 0.0000
0.7586 2.0000 0.0000
0.8276 1.0000 0.0000
0.8276 1.0345 0.0000
0.8276 1.0690 0.0000
0.8276 1.1034 0.0000
0.8276 1.1379 0.0000
0.8276 1.1724 0.0000
0.8276 1.2069 0.0000
0.8276 1.2414 0.0000
0.8276 1.2759 0.0000
0.8276 1.3103 0.0000
0.8276 1.3448 0.0000
0.8276 1.3793 0.0000
0.8276 1.4138 0.0000
0.8276 1.4483 0.0000
0.8276 1.4828 0.0000
0.8276 1.5172 0.0000
0.8276 1.5517 0.0000
0.8276 1.5862 0.0000
0.8276 1.6207 0.0000
0.8276 1.6552 0.0000
0.8276 1.6897 0.0000
0.8276 1.7241 0.0000
0.8276 1.7586 0.0000
0.8276 1.7931 0.0000
0.8276 1.8276 0.0000
0.8276 1.8621 0.0000
0.8276 1.8966 0.0000
0.8276 1.9310 0.0000
0.8276 1.9655 0.0000
0.8276 2.0000 0.0000
0.8966 1.0000 0.0000
0.8966 1.0345 0.0000
0.8966 1.0690 0.0000
0.8966 1.1034 0.0000
0.8966 1.1379 0.0000
0.8966 1.1724 0.0000
0.8966 1.2069 0.0000
0.8966 1.2414 0.0000
0.8966 1.2759 0.0000
0.8966 1.3103 0.0000
0.8966 1.3448 0.0000
0.8966 1.3793 0.0000
0.8966 1.4138 0.0000
0.8966 1.4483 0.0000
0.8966 1.4828 0.0000
0.8966 1.5172 0.0000
0.8966 1.5517 0.0000
0.8966 1.5862 0.0000
0.8966 1.6207 0.0000
0.8966 1.6552 0.0000
0.8966 1.6897 0.0000
0.8966 1.7241 0.0000
0.8966 1.7586 0.0000
0.8966 1.7931 0.0000
0.8966 1.8276 0.0000
0.8966 1.8621 0.0000
0.8966 1.8966 0.0000
0.8966 1.9310 0.0000
0.8966 1.9655 0.0000
0.8966 2.0000 0.0000
0.9655 1.0000 0.0000
0.9655 1.0345 0.0000
0.9655 1.0690 0.0000
0.9655 1.1034 0.0000
0.9655 1.1379 0.0000
0.9655 1.1724 0.0000
0.9655 1.2069 0.0000
0.9655 1.2414 0.0000
0.9655 1.2759 0.0000
0.9655 1.3103 0.0000
0.9655 1.3448 0.0000
0.9655 1.3793 0.0000
0.9655 1.4138 0.0000
0.9655 1.4483 0.0000
0.9655 1.4828 0.0000
0.9655 1.5172 0.0000
0.9655 1.5517 0.0000
0.9655 1.5862 0.0000
0.9655 1.6207 0.0000
0.9655 1.6552 0.0000
0.9655 1.6897 0.0000
0.9655 1.7241 0.0000
0.9655 1.7586 0.0000
0.9655 1.7931 0.0000
0.9655 1.8276 0.0000
0.9655 1.8621 0.0000
0.9655 1.8966 0.0000
0.9655 1.9310 0.0000
0.9655 1.9655 0.0000
0.9655 2.0000 0.0000
1.0345 1.0000 0.0000
1.0345 1.0345 0.0000
1.0345 1.0690 0.0000
1.0345 1.1034 0.0000
1.0345 1.1379 0.0000
1.0345 1.1724 0.0000
1.0345 1.2069 0.0000
1.0345 1.2414 0.0000
1.0345 1.2759 0.0000
1.0345 1.3103 0.0000
1.0345 1.3448 0.0000
[...]
         <PointData>
            <DataArray Name="fValues" NumberOfComponents="3" format="ascii" type="Float64">
 2.08581e-30  2.65200e-30        00000 
-1.33864e-30 -5.35455e-30        00000 
 1.58850e-29  2.25037e-29        00000 
-1.19750e-29  1.72972e-29        00000 
 5.29499e-29  4.23599e-29        00000 
-2.29244e-28  3.88860e-28        00000 
-2.43569e-28 -1.46142e-27        00000 
-1.90801e-27  1.62461e-27        00000 
       00000  4.74431e-27        00000 
-1.36784e-26  1.55890e-26        00000 
 1.69440e-26 -4.67653e-26        00000 
 3.26997e-26 -1.36249e-25        00000 
 6.94025e-25 -4.77142e-25        00000 
-2.81131e-25  1.72633e-24        00000 
 6.94025e-25  1.47480e-24        00000 
 5.22650e-24 -2.20178e-24        00000 
-6.24622e-24  5.55220e-24        00000 
 1.37397e-23  7.24727e-23        00000 
-1.07574e-22  5.55220e-23        00000 
-6.69689e-22  1.17196e-21        00000 
-7.10681e-22 -4.97477e-21        00000 
-2.35630e-21 -2.20376e-21        00000 
-7.10681e-22 -8.88352e-22        00000 
-5.33519e-21 -1.83941e-20        00000 
 1.36451e-19  5.68545e-20        00000 
 2.91477e-19  1.29930e-19        00000 
-5.45803e-19  1.46685e-18        00000 
 1.49718e-18 -2.62722e-18        00000 
 8.94538e-19 -9.63349e-19        00000 
-2.23634e-19  3.12896e-18        00000 
 1.25473e-14 -1.08927e-14        00000 
 2.31859e-14 -1.24368e-14        00000 
 5.86820e-14  4.16211e-15        00000 
 1.00523e-13  1.10265e-13        00000 
 2.45145e-14  5.17335e-13        00000 
-6.99301e-13  1.69560e-12        00000 
-3.71382e-12  4.28536e-12        00000 
-1.29384e-11  7.67541e-12        00000 
-3.46338e-11  3.62862e-12        00000 
-6.82550e-11 -4.40995e-11        00000 
-6.00740e-11 -2.50515e-10        00000 
 2.55004e-10 -9.00548e-10        00000 
 1.77056e-09 -2.50007e-09        00000 
 6.81993e-09 -5.28830e-09        00000 
 1.98672e-08 -6.26334e-09        00000 
 4.43542e-08  1.23602e-08        00000 
 6.08814e-08  1.18308e-07        00000 
-5.85038e-08  5.10701e-07        00000 
-8.07944e-07  1.61617e-06        00000 
-3.64219e-06  3.78741e-06        00000 
-1.17827e-05  4.78320e-06        00000 
-2.89638e-05 -9.79732e-06        00000 
-4.55249e-05 -8.79331e-05        00000 
 2.09808e-05 -3.21268e-04        00000 
 4.82011e-04 -7.20344e-04        00000 
 2.10642e-03 -7.32183e-04        00000 
 5.69535e-03  1.18555e-03        00000 
 9.75790e-03  5.81900e-03        00000 
 8.19897e-03  8.84640e-03        00000 
-2.49942e-02  1.15785e-02        00000 
-8.14177e-15  2.10500e-14        00000 
-1.63951e-14  2.53402e-14        00000 
-3.97288e-14  5.96409e-15        00000 
-6.96582e-14 -1.71511e-13        00000 
-2.36216e-14 -9.07471e-13        00000 
 4.52194e-13 -3.15471e-12        00000 
 2.46972e-12 -8.42656e-12        00000 
 8.72159e-12 -1.65504e-11        00000 
 2.36207e-11 -1.43540e-11        00000 
 4.72061e-11  6.27747e-11        00000 
 4.33257e-11  4.31966e-10        00000 
-1.69736e-10  1.65923e-09        00000 
-1.20440e-09  4.82829e-09        00000 
-4.62979e-09  1.07883e-08        00000 
-1.32792e-08  1.48989e-08        00000 
-2.86568e-08 -1.37997e-08        00000 
-3.62920e-08 -1.95944e-07        00000 
 4.43488e-08 -8.90446e-07        00000 
 4.93176e-07 -2.90233e-06        00000 
 2.09183e-06 -7.19450e-06        00000 
 6.73963e-06 -1.14232e-05        00000 
 1.84261e-05  5.06114e-06        00000 
 4.16599e-05  1.23244e-04        00000 
 5.61813e-05  5.48051e-04        00000 
-1.37050e-04  1.53074e-03        00000 
-1.38977e-03  2.59200e-03        00000 
-6.17957e-03  5.12609e-04        00000 
-1.52378e-02 -9.64553e-03        00000 
-1.34260e-02 -2.44209e-02        00000 
 3.27719e-02 -3.05324e-02        00000 
-6.26067e-16 -2.44586e-14        00000 
-1.17494e-15 -2.98686e-14        00000 
-2.56259e-15 -1.05859e-14        00000 
-3.54271e-15  1.87299e-13        00000 
 3.15464e-15  1.02576e-12        00000 
 4.36130e-14  3.62241e-12        00000 
 1.87074e-13  9.81549e-12        00000 
 5.67782e-13  1.96994e-11        00000 
 1.33097e-12  1.87047e-11        00000 
 2.30575e-12 -6.71856e-11        00000 
 1.95040e-12 -4.90791e-10        00000 
-6.24131e-12 -1.91704e-09        00000 
-5.02909e-11 -5.61843e-09        00000 
-2.56875e-10 -1.25491e-08        00000 
-1.12484e-09 -1.71044e-08        00000 
-4.04965e-09  1.66031e-08        00000 
-1.02844e-08  2.22818e-07        00000 
-7.01326e-09  9.82850e-07        00000 
 9.67406e-08  3.12116e-06        00000 
 6.30334e-07  7.69070e-06        00000 
 2.14675e-06  1.32610e-05        00000 
 3.22450e-06  3.55117e-06        00000 
-1.08984e-05 -9.44804e-05        00000 
-9.46703e-05 -5.19275e-04        00000 
-3.31375e-04 -1.83094e-03        00000 
-3.09436e-04 -4.57630e-03        00000 
 2.55433e-03 -6.34386e-03        00000 
 1.88796e-02  6.34571e-03        00000 
 3.09241e-02  4.14658e-02        00000 
-4.15883e-02  6.38567e-02        00000 
 9.06578e-15  2.01270e-14        00000 
 1.80451e-14  2.45947e-14        00000 
 4.32832e-14  6.72065e-15        00000 
 7.43094e-14 -1.61526e-13        00000 
 1.81041e-14 -8.64571e-13        00000 
-5.16499e-13 -3.02583e-12        00000 
-2.74120e-12 -8.14129e-12        00000 
-9.54658e-12 -1.61599e-11        00000 
-2.55693e-11 -1.45050e-11        00000 
-5.05605e-11  5.98106e-11        00000 
-4.55290e-11  4.20343e-10        00000 
 1.83785e-10  1.62173e-09        00000 
 1.29912e-09  4.68870e-09        00000 
 5.05517e-09  1.02006e-08        00000 
 1.48910e-08  1.27339e-08        00000 
 3.36641e-08 -1.89892e-08        00000 
 4.67770e-08 -1.94721e-07        00000 
-4.58198e-08 -8.04355e-07        00000 
-6.33984e-07 -2.41998e-06        00000 
-2.84834e-06 -5.69583e-06        00000 
-9.04427e-06 -9.84308e-06        00000 
-2.11263e-05 -6.55367e-06        00000 
-2.75970e-05  4.29509e-05        00000 
 4.79344e-05  2.98467e-04        00000 
 4.61833e-04  1.36423e-03        00000 
 1.74495e-03  5.05114e-03        00000 
 2.85876e-03  1.40687e-02        00000 
-1.99417e-03  1.97465e-02        00000 
-6.97970e-02 -4.67784e-02        00000 
 5.22787e-02 -1.71906e-01        00000 
-1.24290e-14 -9.73453e-15        00000 
-2.28462e-14 -1.33821e-14        00000 
-5.73080e-14 -3.52451e-15        00000 
-9.73901e-14  7.99221e-14        00000 
-2.01958e-14  4.28775e-13        00000 
 6.95611e-13  1.50326e-12        00000 
 3.66357e-12  4.05273e-12        00000 
 1.27314e-11  8.06556e-12        00000 
 3.40339e-11  7.28476e-12        00000 
 6.68664e-11 -2.97972e-11        00000 
 5.72466e-11 -2.10194e-10        00000 
-2.60851e-10 -8.11044e-10        00000 
-1.78174e-09 -2.33674e-09        00000 
-6.81162e-09 -5.02858e-09        00000 
-1.95780e-08 -6.01626e-09        00000 
-4.23909e-08  1.05117e-08        00000 
-5.25789e-08  9.80713e-08        00000 
 8.01850e-08  3.91382e-07        00000 
 8.16798e-07  1.13750e-06        00000 
 3.39882e-06  2.58418e-06        00000 
 1.03665e-05  4.44322e-06        00000 
 2.48186e-05  4.47666e-06        00000 
 4.27988e-05 -5.96659e-06        00000 
 2.00866e-05 -7.07674e-05        00000 
-2.54895e-04 -4.67881e-04        00000 
-1.49342e-03 -2.81003e-03        00000 
-6.01954e-03 -1.40119e-02        00000 
-1.47239e-02 -5.12594e-02        00000 
-5.64848e-02 -6.12136e-02        00000 
 7.39411e-02  6.79929e-01        00000 
-4.10455e-16  2.14368e-15        00000 
-2.81275e-16  1.81738e-14        00000 
-6.92630e-16  5.93969e-14        00000 
-1.15825e-15  1.50793e-13        00000 
-1.49225e-16  2.71882e-13        00000 
 8.73024e-15  1.32784e-13        00000 
 4.51257e-14 -1.55915e-12        00000 
 1.55488e-13 -8.93560e-12        00000 
 4.12513e-13 -3.21925e-11        00000 
 8.00833e-13 -8.87140e-11        00000 
 6.45497e-13 -1.82084e-10        00000 
-3.32555e-12 -1.86994e-10        00000 
-2.20220e-11  5.56113e-10        00000 
-8.33600e-11  4.32399e-09        00000 
-2.37837e-10  1.70904e-08        00000 
-5.10074e-10  5.00543e-08        00000 
-6.14470e-10  1.10617e-07        00000 
 1.05564e-09  1.47025e-07        00000 
 1.01372e-08 -1.47195e-07        00000 
 4.17231e-08 -1.85083e-06        00000 
 1.26427e-07 -7.86976e-06        00000 
 3.00430e-07 -2.44645e-05        00000 
 5.09665e-07 -6.21370e-05        00000 
 1.95153e-07 -1.31781e-04        00000 
-3.26042e-06 -2.15376e-04        00000 
-1.85891e-05 -6.19870e-05        00000 
-7.30521e-05  2.20560e-03        00000 
-1.79882e-04  1.78151e-02        00000 
-6.29949e-04  9.94448e-02        00000 
 1.95709e-02  1.92740e-01        00000 
-7.83056e-32 -3.93811e-32        00000 
 1.61337e-31  2.45892e-30        00000 
-3.54716e-31  9.90248e-31        00000 
 9.34516e-31 -8.14271e-30        00000 
-4.06483e-30  9.21269e-30        00000 
 1.31750e-29 -3.00951e-29        00000 
-1.48086e-29 -2.08485e-28        00000 
-3.38984e-29  4.16845e-28        00000 
-1.70934e-28 -2.36408e-27        00000 
 1.53071e-28 -7.26843e-28        00000 
 1.48020e-27 -5.01909e-28        00000 
-4.32439e-27  1.44007e-26        00000 
-7.65835e-28 -1.15078e-25        00000 
 3.12403e-27  7.00391e-25        00000 
 8.42670e-26 -1.72423e-24        00000 
-2.22248e-25  3.76164e-24        00000 
 2.37276e-25 -4.02816e-24        00000 
-3.77791e-25 -2.39184e-24        00000 
-6.24377e-24 -3.28650e-23        00000 
 1.21418e-23 -7.22873e-23        00000 
-3.46546e-23 -3.05115e-22        00000 
 1.63916e-22 -6.06468e-22        00000 
-4.19803e-22  2.57135e-21        00000 
 1.21570e-21 -1.32659e-20        00000 
-6.35408e-21  4.70202e-20        00000 
-5.52826e-21 -1.94516e-19        00000 
 6.37949e-20  5.57119e-19        00000 
-8.54459e-20  6.89408e-19        00000 
 1.57049e-25 -8.28986e-18        00000 
-3.63869e-19  1.74657e-17        00000 
 3.06047e-32  1.69121e-31        00000 
-5.52723e-32 -9.74964e-32        00000 
 1.15639e-31 -3.53110e-31        00000 
-3.05729e-31  7.74411e-31        00000 
 8.37226e-31  1.00366e-31        00000 
-2.82813e-30 -2.19993e-29        00000 
 1.45415e-30  2.27656e-29        00000 
-8.49188e-30 -1.66253e-28        00000 
 1.94217e-29  2.34044e-28        00000 
 5.20252e-29 -1.63427e-28        00000 
-2.69512e-28  1.19721e-27        00000 
 4.50347e-28 -8.69832e-27        00000 
-6.73894e-28  4.71188e-26        00000 
 5.15287e-27 -1.31660e-25        00000 
-2.04950e-26  1.76507e-25        00000 
 4.12139e-26 -4.13071e-25        00000 
-1.70534e-25  8.00632e-26        00000 
-5.62342e-25 -6.73010e-25        00000 
 1.18033e-24 -7.74888e-24        00000 
-4.42765e-24 -7.30903e-24        00000 
 1.32865e-23 -2.87257e-24        00000 
-4.00959e-23  2.63697e-22        00000 
 1.15828e-22 -1.34929e-21        00000 
-3.66546e-22  4.24112e-21        00000 
 2.55829e-22 -1.42993e-20        00000 
 3.10426e-21  3.54815e-20        00000 
-8.54312e-21  1.63522e-20        00000 
 5.04978e-21 -5.42383e-19        00000 
-4.89005e-20  1.30424e-18        00000 
 3.79549e-24 -2.01176e-18        00000 
-8.24896e-33 -1.89170e-32        00000 
 1.23391e-32 -1.29318e-33        00000 
-2.87209e-32  4.45715e-32        00000 
 7.67719e-32  3.21309e-32        00000 
-2.35399e-31 -1.19816e-30        00000 
 3.54874e-31  3.40545e-30        00000 
-6.32555e-31 -1.08375e-29        00000 
 1.25853e-30  2.59569e-29        00000 
 1.47926e-30 -4.43119e-29        00000 
-1.68869e-29  1.29024e-28        00000 
 4.78888e-29 -6.94726e-28        00000 
-1.03317e-28  3.28256e-27        00000 
 3.81623e-28 -1.04501e-26        00000 
-1.47753e-27  2.13585e-26        00000 
 3.88627e-27 -3.73906e-26        00000 
-8.67584e-27  4.32816e-26        00000 
-1.53314e-26 -2.54211e-26        00000 
 1.10022e-25 -2.71226e-25        00000 
-3.72606e-25  4.73931e-25        00000 
 1.16401e-24 -1.59033e-24        00000 
-3.48381e-24  1.83380e-23        00000 
 9.96509e-24 -1.00649e-22        00000 
-2.67745e-23  3.68089e-22        00000 
 3.97720e-23 -1.19881e-21        00000 
 1.56875e-23  3.80139e-21        00000 
-4.01674e-22 -3.28107e-21        00000 
 1.02837e-21 -5.94697e-21        00000 
-1.87703e-21  5.47913e-20        00000 
 1.95411e-22 -2.66766e-19        00000 
-3.57367e-21  2.77611e-19        00000 
 1.97583e-33  1.24930e-33        00000 
-2.95444e-33  4.42040e-34        00000 
 6.88142e-33  3.73108e-33        00000 
-1.69666e-32 -6.64372e-32        00000 
 1.62371e-32  2.57455e-31        00000 
-6.59999e-32 -8.97313e-31        00000 
 1.04706e-31  2.36491e-30        00000 
 1.89770e-32 -5.31302e-30        00000 
-9.94072e-31  1.41883e-29        00000 
 4.01014e-30 -5.81168e-29        00000 
-1.09431e-29  2.46078e-28        00000 
 3.31853e-29 -8.22718e-28        00000 
-1.12452e-28  2.01774e-27        00000 
 3.14659e-28 -3.86754e-27        00000 
-6.18607e-28  5.65696e-27        00000 
-3.99681e-28 -4.72834e-27        00000 
 7.46216e-27 -1.15641e-26        00000 
-3.10642e-26  6.01621e-26        00000 
 1.00680e-25 -2.42622e-25        00000 
-3.01824e-25  1.48584e-24        00000 
 8.53094e-25 -7.68763e-24        00000 
-2.18405e-24  2.99919e-23        00000 
 3.97792e-24 -9.80972e-23        00000 
-1.77297e-24  2.77984e-22        00000 
-2.08317e-23 -4.42695e-22        00000 
 8.26062e-23 -8.32553e-23        00000 
-1.79276e-22  3.24415e-21        00000 
 2.02850e-22 -1.17904e-20        00000 
-3.90640e-22  1.68631e-20        00000 
 3.45685e-22 -2.01644e-20        00000 
-4.68898e-34 -1.76524e-34        00000 
 6.95727e-34  5.73924e-34        00000 
-1.50158e-33 -4.57857e-33        00000 
 2.58578e-33  2.10539e-32        00000 
-4.49203e-33 -7.33344e-32        00000 
 9.67770e-33  2.10440e-31        00000 
-4.56026e-33 -5.39300e-31        00000 
-5.95875e-32  1.47060e-30        00000 
 3.08359e-31 -5.11427e-30        00000 
-9.95656e-31  1.94743e-29        00000 
 2.96805e-30 -6.55879e-29        00000 
-9.10133e-30  1.76832e-28        00000 
 2.50823e-29 -3.79256e-28        00000 
-4.95999e-29  6.39444e-28        00000 
 1.09322e-30 -7.26006e-28        00000 
 4.86644e-28 -3.09480e-28        00000 
-2.43827e-27  5.27424e-27        00000 
 8.52569e-27 -2.56041e-26        00000 
-2.60416e-26  1.28722e-25        00000 
 7.33937e-26 -6.08940e-25        00000 
-1.86257e-25  2.40387e-24        00000 
 3.72250e-25 -7.96576e-24        00000 
-3.72205e-25  2.21419e-23        00000 
-9.34815e-25 -4.28864e-23        00000 
 5.78285e-24  2.69695e-23        00000 
-1.58722e-23  1.73032e-22        00000 
 2.78306e-23 -8.25703e-22        00000 
-4.18571e-23  1.86029e-21        00000 
 5.61765e-23 -2.76077e-21        00000 
-6.19858e-23  3.10598e-21        00000 
 9.79845e-35  1.09520e-34        00000 
-1.44861e-34 -4.06712e-34        00000 
 3.85574e-34  1.54045e-33        00000 
-8.81166e-34 -7.99937e-33        00000 
 1.21508e-33  2.20842e-32        00000 
-1.05659e-33 -4.27677e-32        00000 
-3.40005e-33  1.42435e-31        00000 
 2.31848e-32 -4.70521e-31        00000 
-8.37639e-32  1.60690e-30        00000 
 2.60188e-31 -5.33110e-30        00000 
-7.63986e-31  1.51066e-29        00000 
 2.04157e-30 -3.53129e-29        00000 
-4.12421e-30  6.66370e-29        00000 
 1.86363e-30 -9.22856e-29        00000 
 3.17808e-29  3.29268e-29        00000 
-1.85796e-28  3.99715e-28        00000 
 7.05392e-28 -2.35200e-27        00000 
-2.22525e-27  1.12164e-26        00000 
 6.33367e-27 -4.96268e-26        00000 
-1.61849e-26  1.93414e-25        00000 
 3.43004e-26 -6.46746e-25        00000 
-4.70524e-26  1.81898e-24        00000 
-2.14534e-26 -3.89644e-24        00000 
 3.70131e-25  4.48750e-24        00000 
-1.28396e-24  7.03614e-24        00000 
 2.85159e-24 -5.50888e-23        00000 
-4.88750e-24  1.62256e-22        00000 
 7.16343e-24 -3.11466e-22        00000 
-9.15339e-24  4.41781e-22        00000 
 9.97059e-24 -4.92871e-22        00000 
-2.34748e-35 -6.25949e-35        00000 
 3.61758e-35  1.43987e-34        00000 
-7.86500e-35 -5.82980e-34        00000 
 1.38654e-34  1.87253e-33        00000 
-1.53227e-34 -4.68691e-33        00000 
-1.35352e-34  1.29697e-32        00000 
 1.63765e-33 -4.15848e-32        00000 
-6.81472e-33  1.37660e-31        00000 
 2.21353e-32 -4.42365e-31        00000 
-6.48953e-32  1.28305e-30        00000 
 1.70131e-31 -3.18470e-30        00000 
-3.49863e-31  6.56081e-30        00000 
 2.64656e-31 -1.04604e-29        00000 
 2.07754e-30  8.36870e-30        00000 
-1.39899e-29  2.64795e-29        00000 
 5.70832e-29 -2.00577e-28        00000 
-1.89319e-28  9.59040e-28        00000 
 5.45822e-28 -4.10829e-27        00000 
-1.41674e-27  1.57211e-26        00000 
 3.14066e-27 -5.27516e-26        00000 
-5.12566e-27  1.51152e-25        00000 
 2.38851e-27 -3.46610e-25        00000 
 2.10911e-26  5.23325e-25        00000 
-9.65907e-26  4.19436e-26        00000 
 2.58301e-25 -3.39441e-24        00000 
-5.17041e-25  1.27918e-23        00000 
 8.51247e-25 -3.01257e-23        00000 
-1.20985e-24  5.22932e-23        00000 
 1.50204e-24 -7.12263e-23        00000 
-1.61711e-24  7.86641e-23        00000 
 5.58236e-36  2.32749e-35        00000 
-7.86850e-36 -4.88465e-35        00000 
 1.40745e-35  1.56137e-34        00000 
-1.93483e-35 -4.42294e-34        00000 
 2.79964e-36  1.22711e-33        00000 
 1.09118e-34 -3.71691e-33        00000 
-5.33801e-34  1.18921e-32        00000 
 1.84898e-33 -3.74530e-32        00000 
-5.50098e-33  1.09409e-31        00000 
 1.43881e-32 -2.82333e-31        00000 
-3.01317e-32  6.21649e-31        00000 
 2.97745e-32 -1.10101e-30        00000 
 1.34410e-31  1.21934e-30        00000 
-1.04884e-30  1.37874e-30        00000 
 4.55927e-30 -1.62351e-29        00000 
-1.57349e-29  8.15848e-29        00000 
 4.69185e-29 -3.47195e-28        00000 
-1.24195e-28  1.29065e-27        00000 
 2.86041e-28 -4.33186e-27        00000 
-5.21925e-28  1.26318e-26        00000 
 5.19855e-28 -3.05037e-26        00000 
 9.39635e-28  5.39981e-26        00000 
-6.78348e-27 -3.64965e-26        00000 
 2.16534e-26 -1.82572e-25        00000 
-4.99913e-26  9.38897e-25        00000 
 9.30783e-26 -2.64478e-24        00000 
-1.47283e-25  5.43166e-24        00000 
 2.03456e-25 -8.77494e-24        00000 
-2.47338e-25  1.15542e-23        00000 
 2.64145e-25 -1.26375e-23        00000 
-1.21861e-36 -7.57747e-36        00000 
 1.54682e-36  1.39954e-35        00000 
-2.21535e-36 -3.97589e-35        00000 
 1.54627e-36  1.13573e-34        00000 
 6.48924e-36 -3.35898e-34        00000 
-4.03937e-35  1.03914e-33        00000 
 1.50890e-34 -3.20965e-33        00000 
-4.62700e-34  9.38203e-33        00000 
 1.22315e-33 -2.48386e-32        00000 
-2.62001e-33  5.74627e-32        00000 
 3.08037e-33 -1.10285e-31        00000 
 8.43873e-33  1.48180e-31        00000 
-7.84749e-32  2.71188e-32        00000 
 3.61598e-31 -1.24741e-30        00000 
-1.29806e-30  6.76953e-30        00000 
 3.99400e-30 -2.87021e-29        00000 
-1.08597e-29  1.06667e-28        00000 
 2.59030e-29 -3.58370e-28        00000 
-5.11651e-29  1.06008e-27        00000 
 6.87247e-29 -2.66661e-27        00000 
 1.02418e-29  5.25049e-27        00000 
-4.37369e-28 -6.01137e-27        00000 
 1.70915e-27 -7.02575e-27        00000 
-4.51132e-27  6.42280e-26        00000 
 9.44034e-27 -2.16758e-25        00000 
-1.66074e-26  5.15194e-25        00000 
 2.53576e-26 -9.62011e-25        00000 
-3.41615e-26  1.47133e-24        00000 
 4.08476e-26 -1.88373e-24        00000 
-4.33633e-26  2.04283e-24        00000 
 2.42607e-37  2.19535e-36        00000 
-2.73478e-37 -3.77707e-36        00000 
 2.59449e-37  1.03441e-35        00000 
 3.14650e-37 -3.02315e-35        00000 
-3.35758e-36  9.00946e-35        00000 
 1.28038e-35 -2.75873e-34        00000 
-3.80628e-35  8.10040e-34        00000 
 1.04112e-34 -2.17769e-33        00000 
-2.28486e-34  5.22733e-33        00000 
 3.05317e-34 -1.06755e-32        00000 
 4.94721e-34  1.64064e-32        00000 
-5.85397e-33 -6.55537e-33        00000 
 2.85634e-32 -8.98075e-32        00000 
-1.06361e-31  5.48757e-31        00000 
 3.39032e-31 -2.37368e-30        00000 
-9.47787e-31  8.91810e-30        00000 
 2.33444e-30 -2.99766e-29        00000 