<?xml version="1.0" encoding="utf-8"?>
<VTKFile byte_order="LittleEndian" type="UnstructuredGrid" version="0.1">
   <UnstructuredGrid>
      <Piece NumberOfCells="3364" NumberOfPoints="1741">
         <Points>
            <DataArray Name="Points" NumberOfComponents="3" format="ascii" type="Float32">
0.0000 1.0000 0.0000
0.0000 1.0345 0.0000
0.0000 1.0690 0.0000
0.0000 1.1034 0.0000
0.0000 1.1379 0.0000
0.0000 1.1724 0.0000
0.0000 1.2069 0.0000
0.0000 1.2414 0.0000
0.0000 1.2759 0.0000
0.0000 1.3103 0.0000
0.0000 1.3448 0.0000
0.0000 1.3793 0.0000
0.0000 1.4138 0.0000
0.0000 1.4483 0.0000
0.0000 1.4828 0.0000
0.0000 1.5172 0.0000
0.0000 1.5517 0.0000
0.0000 1.5862 0.0000
0.0000 1.6207 0.0000
0.0000 1.6552 0.0000
0.0000 1.6897 0.0000
0.0000 1.7241 0.0000
0.0000 1.7586 0.0000
0.0000 1.7931 0.0000
0.0000 1.8276 0.0000
0.0000 1.8621 0.0000
0.0000 1.8966 0.0000
0.0000 1.9310 0.0000
0.0000 1.9655 0.0000
0.0000 2.0000 0.0000
0.0690 1.0000 0.0000
0.0690 1.0345 0.0000
0.0690 1.0690 0.0000
0.0690 1.1034 0.0000
0.0690 1.1379 0.0000
0.0690 1.1724 0.0000
0.0690 1.2069 0.0000
0.0690 1.2414 0.0000
0.0690 1.2759 0.0000
0.0690 1.3103 0.0000
0.0690 1.3448 0.0000
0.0690 1.3793 0.0000
0.0690 1.4138 0.0000
0.0690 1.4483 0.0000
0.0690 1.4828 0.0000
0.0690 1.5172 0.0000
0.0690 1.5517 0.0000
0.0690 1.5862 0.0000
0.0690 1.6207 0.0000
0.0690 1.6552 0.0000
0.0690 1.6897 0.0000
0.0690 1.7241 0.0000
0.0690 1.7586 0.0000
0.0690 1.7931 0.0000
0.0690 1.8276 0.0000
0.0690 1.8621 0.0000
0.0690 1.8966 0.0000
0.0690 1.9310 0.0000
0.0690 1.9655 0.0000
0.0690 2.0000 0.0000
0.1379 1.0000 0.0000
0.1379 1.0345 0.0000
0.1379 1.0690 0.0000
0.1379 1.1034 0.0000
0.1379 1.1379 0.0000
0.1379 1.1724 0.0000
0.1379 1.2069 0.0000
0.1379 1.2414 0.0000
0.1379 1.2759 0.0000
0.1379 1.3103 0.0000
0.1379 1.3448 0.0000
0.1379 1.3793 0.0000
0.1379 1.4138 0.0000
0.1379 1.4483 0.0000
0.1379 1.4828 0.0000
0.1379 1.5172 0.0000
0.1379 1.5517 0.0000
0.1379 1.5862 0.0000
0.1379 1.6207 0.0000
0.1379 1.6552 0.0000
0.1379 1.6897 0.0000
0.1379 1.7241 0.0000
0.1379 1.7586 0.0000
0.1379 1.7931 0.0000
0.1379 1.8276 0.0000
0.1379 1.8621 0.0000
0.1379 1.8966 0.0000
0.1379 1.9310 0.0000
0.1379 1.9655 0.0000
0.1379 2.0000 0.0000
0.2069 1.0000 0.0000
0.2069 1.0345 0.0000
0.2069 1.0690 0.0000
0.2069 1.1034 0.0000
0.2069 1.1379 0.0000
0.2069 1.1724 0.0000
0.2069 1.2069 0.0000
0.2069 1.2414 0.0000
0.2069 1.2759 0.0000
0.2069 1.3103 0.0000
0.2069 1.3448 0.0000
0.2069 1.3793 0.0000
0.2069 1.4138 0.0000
0.2069 1.4483 0.0000
0.2069 1.4828 0.0000
0.2069 1.5172 0.0000
0.2069 1.5517 0.0000
0.2069 1.5862 0.0000
0.2069 1.6207 0.0000
0.2069 1.6552 0.0000
0.2069 1.6897 0.0000
0.2069 1.7241 0.0000
0.2069 1.7586 0.0000
0.2069 1.7931 0.0000
0.2069 1.8276 0.0000
0.2069 1.8621 0.0000
0.2069 1.8966 0.0000
0.2069 1.9310 0.0000
0.2069 1.9655 0.0000
0.2069 2.0000 0.0000
0.2759 1.0000 0.0000
0.2759 1.0345 0.0000
0.2759 1.0690 0.0000
0.2759 1.1034 0.0000
0.2759 1.1379 0.0000
0.2759 1.1724 0.0000
0.2759 1.2069 0.0000
0.2759 1.2414 0.0000
0.2759 1.2759 0.0000
0.2759 1.3103 0.0000
0.2759 1.3448 0.0000
0.2759 1.3793 0.0000
0.2759 1.4138 0.0000
0.2759 1.4483 0.0000
0.2759 1.4828 0.0000
0.2759 1.5172 0.0000
0.2759 1.5517 0.0000
0.2759 1.5862 0.0000
0.2759 1.6207 0.0000
0.2759 1.6552 0.0000
0.2759 1.6897 0.0000
0.2759 1.7241 0.0000
0.2759 1.7586 0.0000
0.2759 1.7931 0.0000
0.2759 1.8276 0.0000
0.2759 1.8621 0.0000
0.2759 1.8966 0.0000
0.2759 1.9310 0.0000
0.2759 1.9655 0.0000
0.2759 2.0000 0.0000
0.3448 1.0000 0.0000
0.3448 1.0345 0.0000
0.3448 1.0690 0.0000
0.3448 1.1034 0.0000
0.3448 1.1379 0.0000
0.3448 1.1724 0.0000
0.3448 1.2069 0.0000
0.3448 1.2414 0.0000
0.3448 1.2759 0.0000
0.3448 1.3103 0.0000
0.3448 1.3448 0.0000
0.3448 1.3793 0.0000
0.3448 1.4138 0.0000
0.3448 1.4483 0.0000
0.3448 1.4828 0.0000
0.3448 1.5172 0.0000
0.3448 1.5517 0.0000
0.3448 1.5862 0.0000
0.3448 1.6207 0.0000
0.3448 1.6552 0.0000
0.3448 1.6897 0.0000
0.3448 1.7241 0.0000
0.3448 1.7586 0.0000
0.3448 1.7931 0.0000
0.3448 1.8276 0.0000
0.3448 1.8621 0.0000
0.3448 1.8966 0.0000
0.3448 1.9310 0.0000
0.3448 1.9655 0.0000
0.3448 2.0000 0.0000
0.4138 1.0000 0.0000
0.4138 1.0345 0.0000
0.4138 1.0690 0.0000
0.4138 1.1034 0.0000
0.4138 1.1379 0.0000
0.4138 1.1724 0.0000
0.4138 1.2069 0.0000
0.4138 1.2414 0.0000
0.4138 1.2759 0.0000
0.4138 1.3103 0.0000
0.4138 1.3448 0.0000
0.4138 1.3793 0.0000
0.4138 1.4138 0.0000
0.4138 1.4483 0.0000
0.4138 1.4828 0.0000
0.4138 1.5172 0.0000
0.4138 1.5517 0.0000
0.4138 1.5862 0.0000
0.4138 1.6207 0.0000
0.4138 1.6552 0.0000
0.4138 1.6897 0.0000
0.4138 1.7241 0.0000
0.4138 1.7586 0.0000
0.4138 1.7931 0.0000
0.4138 1.8276 0.0000
0.4138 1.8621 0.0000
0.4138 1.8966 0.0000
0.4138 1.9310 0.0000
0.4138 1.9655 0.0000
0.4138 2.0000 0.0000
0.4828 1.0000 0.0000
0.4828 1.0345 0.0000
0.4828 1.0690 0.0000
0.4828 1.1034 0.0000
0.4828 1.1379 0.0000
0.4828 1.1724 0.0000
0.4828 1.2069 0.0000
0.4828 1.2414 0.0000
0.4828 1.2759 0.0000
0.4828 1.3103 0.0000
0.4828 1.3448 0.0000
0.4828 1.3793 0.0000
0.4828 1.4138 0.0000
0.4828 1.4483 0.0000
0.4828 1.4828 0.0000
0.4828 1.5172 0.0000
0.4828 1.5517 0.0000
0.4828 1.5862 0.0000
0.4828 1.6207 0.0000
0.4828 1.6552 0.0000
0.4828 1.6897 0.0000
0.4828 1.7241 0.0000
0.4828 1.7586 0.0000
0.4828 1.7931 0.0000
0.4828 1.8276 0.0000
0.4828 1.8621 0.0000
0.4828 1.8966 0.0000
0.4828 1.9310 0.0000
0.4828 1.9655 0.0000
0.4828 2.0000 0.0000
0.5517 1.0000 0.0000
0.5517 1.0345 0.0000
0.5517 1.0690 0.0000
0.5517 1.1034 0.0000
0.5517 1.1379 0.0000
0.5517 1.1724 0.0000
0.5517 1.2069 0.0000
0.5517 1.2414 0.0000
0.5517 1.2759 0.0000
0.5517 1.3103 0.0000
0.5517 1.3448 0.0000
0.5517 1.3793 0.0000
0.5517 1.4138 0.0000
0.5517 1.4483 0.0000
0.5517 1.4828 0.0000
0.5517 1.5172 0.0000
0.5517 1.5517 0.0000
0.5517 1.5862 0.0000
0.5517 1.6207 0.0000
0.5517 1.6552 0.0000
0.5517 1.6897 0.0000
0.5517 1.7241 0.0000
0.5517 1.7586 0.0000
0.5517 1.7931 0.0000
0.5517 1.8276 0.0000
0.5517 1.8621 0.0000
0.5517 1.8966 0.0000
0.5517 1.9310 0.0000
0.5517 1.9655 0.0000
0.5517 2.0000 0.0000
0.6207 1.0000 0.0000
0.6207 1.0345 0.0000
0.6207 1.0690 0.0000
0.6207 1.1034 0.0000
0.6207 1.1379 0.0000
0.6207 1.1724 0.0000
0.6207 1.2069 0.0000
0.6207 1.2414 0.0000
0.6207 1.2759 0.0000
0.6207 1.3103 0.0000
0.6207 1.3448 0.0000
0.6207 1.3793 0.0000
0.6207 1.4138 0.0000
0.6207 1.4483 0.0000
0.6207 1.4828 0.0000
0.6207 1.5172 0.0000
0.6207 1.5517 0.0000
0.6207 1.5862 0.0000
0.6207 1.6207 0.0000
0.6207 1.6552 0.0000
0.6207 1.6897 0.0000
0.6207 1.7241 0.0000
0.6207 1.7586 0.0000
0.6207 1.7931 0.0000
0.6207 1.8276 0.0000
0.6207 1.8621 0.0000
0.6207 1.8966 0.0000
0.6207 1.9310 0.0000
0.6207 1.9655 0.0000
0.6207 2.0000 0.0000
0.6897 1.0000 0.0000
0.6897 1.0345 0.0000
0.6897 1.0690 0.0000
0.6897 1.1034 0.0000
0.6897 1.1379 0.0000
0.6897 1.1724 0.0000
0.6897 1.2069 0.0000
0.6897 1.2414 0.0000
0.6897 1.2759 0.0000
0.6897 1.3103 0.0000
0.6897 1.3448 0.0000
0.6897 1.3793 0.0000
0.6897 1.4138 0.0000
0.6897 1.4483 0.0000
0.6897 1.4828 0.0000
0.6897 1.5172 0.0000
0.6897 1.5517 0.0000
0.6897 1.5862 0.0000
0.6897 1.6207 0.0000
0.6897 1.6552 0.0000
0.6897 1.6897 0.0000
0.6897 1.7241 0.0000
0.6897 1.7586 0.0000
0.6897 1.7931 0.0000
0.6897 1.8276 0.0000
0.6897 1.8621 0.0000
0.6897 1.8966 0.0000
0.6897 1.9310 0.0000
0.6897 1.9655 0.0000
0.6897 2.0000 0.0000
0.7586 1.0000 0.0000
0.7586 1.0345 0.0000
0.7586 1.0690 0.0000
0.7586 1.1034 0.0000
0.7586 1.1379 0.0000
0.7586 1.1724 0.0000
0.7586 1.2069 0.0000
0.7586 1.2414 0.0000
0.7586 1.2759 0.0000
0.7586 1.3103 0.0000
0.7586 1.3448 0.0000
0.7586 1.3793 0.0000
0.7586 1.4138 0.0000
0.7586 1.4483 0.0000
0.7586 1.4828 0.0000
0.7586 1.5172 0.0000
0.7586 1.5517 0.0000
0.7586 1.5862 0.0000
0.7586 1.6207 0.0000
0.7586 1.6552 0.0000
0.7586 1.6897 0.0000
0.7586 1.7241 0.0000
0.7586 1.7586 0.0000
0.7586 1.7931 0.0000
0.7586 1.8276 0.0000
0.7586 1.8621 0.0000
0.7586 1.8966 0.0000
0.7586 1.9310 0.0000
0.7586 1.9655 0.0000
0.7586 2.0000 0.0000
0.8276 1.0000 0.0000
0.8276 1.0345 0.0000
0.8276 1.0690 0.0000
0.8276 1.1034 0.0000
0.8276 1.1379 0.0000
0.8276 1.1724 0.0000
0.8276 1.2069 0.0000
0.8276 1.2414 0.0000
0.8276 1.2759 0.0000
0.8276 1.3103 0.0000
0.8276 1.3448 0.0000
0.8276 1.3793 0.0000
0.8276 1.4138 0.0000
0.8276 1.4483 0.0000
0.8276 1.4828 0.0000
0.8276 1.5172 0.0000
0.8276 1.5517 0.0000
0.8276 1.5862 0.0000
0.8276 1.6207 0.0000
0.8276 1.6552 0.0000
0.8276 1.6897 0.0000
0.8276 1.7241 0.0000
0.8276 1.7586 0.0000
0.8276 1.7931 0.0000
0.8276 1.8276 0.0000
0.8276 1.8621 0.0000
0.8276 1.8966 0.0000
0.8276 1.9310 0.0000
0.8276 1.9655 0.0000
0.8276 2.0000 0.0000
0.8966 1.0000 0.0000
0.8966 1.0345 0.0000
0.8966 1.0690 0.0000
0.8966 1.1034 0.0000
0.8966 1.1379 0.0000
0.8966 1.1724 0.0000
0.8966 1.2069 0.0000
0.8966 1.2414 0.0000
0.8966 1.2759 0.0000
0.8966 1.3103 0.0000
0.8966 1.3448 0.0000
0.8966 1.3793 0.0000
0.8966 1.4138 0.0000
0.8966 1.4483 0.0000
0.8966 1.4828 0.0000
0.8966 1.5172 0.0000
0.8966 1.5517 0.0000
0.8966 1.5862 0.0000
0.8966 1.6207 0.0000
0.8966 1.6552 0.0000
0.8966 1.6897 0.0000
0.8966 1.7241 0.0000
0.8966 1.7586 0.0000
0.8966 1.7931 0.0000
0.8966 1.8276 0.0000
0.8966 1.8621 0.0000
0.8966 1.8966 0.0000
0.8966 1.9310 0.0000
0.8966 1.9655 0.0000
0.8966 2.0000 0.0000
0.9655 1.0000 0.0000
0.9655 1.0345 0.0000
0.9655 1.0690 0.0000
0.9655 1.1034 0.0000
0.9655 1.1379 0.0000
0.9655 1.1724 0.0000
0.9655 1.2069 0.0000
0.9655 1.2414 0.0000
0.9655 1.2759 0.0000
0.9655 1.3103 0.0000
0.9655 1.3448 0.0000
0.9655 1.3793 0.0000
0.9655 1.4138 0.0000
0.9655 1.4483 0.0000
0.9655 1.4828 0.0000
0.9655 1.5172 0.0000
0.9655 1.5517 0.0000
0.9655 1.5862 0.0000
0.9655 1.6207 0.0000
0.9655 1.6552 0.0000
0.9655 1.6897 0.0000
0.9655 1.7241 0.0000
0.9655 1.7586 0.0000
0.9655 1.7931 0.0000
0.9655 1.8276 0.0000
0.9655 1.8621 0.0000
0.9655 1.8966 0.0000
0.9655 1.9310 0.0000
0.9655 1.9655 0.0000
0.9655 2.0000 0.0000
1.0345 1.0000 0.0000
1.0345 1.0345 0.0000
1.0345 1.0690 0.0000
1.0345 1.1034 0.0000
1.0345 1.1379 0.0000
1.0345 1.1724 0.0000
1.0345 1.2069 0.0000
1.0345 1.2414 0.0000
1.0345 1.2759 0.0000
1.0345 1.3103 0.0000
1.0345 1.3448 0.0000
[...]
         <PointData>
            <DataArray Name="fValues" NumberOfComponents="3" format="ascii" type="Float64">
-2.29976e-20  1.93076e-18        00000 
 9.19905e-20  4.59953e-19        00000 
-1.13709e-19  6.19714e-19        00000 
 1.36617e-19 -2.05371e-19        00000 
 1.47822e-19 -2.44474e-19        00000 
 1.93350e-21 -9.75897e-20        00000 
 2.84273e-21  3.12700e-20        00000 
 1.25009e-21 -5.17893e-21        00000 
-1.59903e-21  5.75208e-21        00000 
-2.40314e-22  3.44732e-22        00000 
       00000 -1.11044e-22        00000 
-9.51234e-23  6.95849e-23        00000 
-4.68467e-24 -1.66566e-23        00000 
-1.47955e-24 -1.04091e-23        00000 
 1.73506e-24 -7.63427e-24        00000 
-1.22079e-24  4.35996e-24        00000 
 1.06273e-24 -1.32298e-24        00000 
-1.07541e-26  6.22122e-26        00000 
 3.25324e-26  3.25324e-26        00000 
-8.52618e-27 -1.44345e-26        00000 
 2.37215e-27  7.05293e-27        00000 
-6.56284e-28  2.28102e-27        00000 
-1.69440e-28 -9.21328e-28        00000 
-4.89644e-28  9.75295e-28        00000 
 6.48636e-29 -7.41298e-29        00000 
-3.47194e-29  1.05003e-29        00000 
 1.98562e-30  5.29499e-30        00000 
 1.33304e-30  6.66518e-31        00000 
-4.43295e-32  3.28560e-31        00000 
-1.52118e-30  1.45012e-30        00000 
-8.86452e-03 -3.98626e-03        00000 
 2.65442e-03 -3.14524e-03        00000 
 3.37637e-03 -2.28056e-03        00000 
 2.13868e-03 -6.37773e-04        00000 
 8.75201e-04  1.70815e-04        00000 
 2.31920e-04  2.52022e-04        00000 
 2.48668e-05  1.28321e-04        00000 
-1.28953e-05  3.95285e-05        00000 
-1.03840e-05  6.26306e-06        00000 
-4.59244e-06 -1.12739e-06        00000 
-1.52417e-06 -1.32984e-06        00000 
-3.78188e-07 -6.24794e-07        00000 
-4.90729e-08 -2.11560e-07        00000 
 1.52260e-08 -5.40425e-08        00000 
 1.52468e-08 -8.17711e-09        00000 
 7.52574e-09  1.31610e-09        00000 
 2.77440e-09  1.77109e-09        00000 
 7.88592e-10  9.32409e-10        00000 
 1.45824e-10  3.60806e-10        00000 
-6.90988e-12  1.08952e-10        00000 
-2.21418e-11  2.29816e-11        00000 
-1.27777e-11  7.67726e-13        00000 
-5.14573e-12 -2.36016e-12        00000 
-1.59892e-12 -1.54980e-12        00000 
-3.52997e-13 -6.64244e-13        00000 
-2.13496e-14 -2.18444e-13        00000 
 3.00020e-14 -5.28704e-14        00000 
 2.09417e-14 -5.62166e-15        00000 
 8.80977e-15  3.62431e-15        00000 
 5.68848e-15  3.78173e-15        00000 
 1.15515e-02  1.02186e-02        00000 
-4.32768e-03  8.66120e-03        00000 
-5.48259e-03  4.12900e-03        00000 
-2.51303e-03  3.49174e-04        00000 
-6.70957e-04 -7.94048e-04        00000 
-8.61429e-05 -5.77570e-04        00000 
 1.24449e-05 -2.29000e-04        00000 
 1.43138e-05 -5.86244e-05        00000 
 6.80463e-06 -6.09655e-06        00000 
 2.63011e-06  3.28114e-06        00000 
 8.70457e-07  2.58296e-06        00000 
 2.29787e-07  1.13212e-06        00000 
 3.42137e-08  3.72812e-07        00000 
-8.36164e-09  9.18355e-08        00000 
-9.73552e-09  1.17674e-08        00000 
-5.01668e-09 -3.74219e-09        00000 
-1.88405e-09 -3.70860e-09        00000 
-5.37454e-10 -1.82829e-09        00000 
-9.79925e-11 -6.74646e-10        00000 
 5.70776e-12 -1.92234e-10        00000 
 1.54303e-11 -3.57591e-11        00000 
 8.74719e-12  1.57024e-12        00000 
 3.47892e-12  5.35969e-12        00000 
 1.06731e-12  3.10676e-12        00000 
 2.30821e-13  1.25403e-12        00000 
 1.15364e-14  3.90423e-13        00000 
-2.10518e-14  8.63776e-14        00000 
-1.42128e-14  5.13303e-15        00000 
-6.30931e-15 -7.60029e-15        00000 
-3.68860e-15 -7.38375e-15        00000 
-1.46508e-02 -1.96674e-02        00000 
 1.10219e-02 -1.46920e-02        00000 
 7.73189e-03 -4.23724e-03        00000 
 1.72591e-03  1.38537e-03        00000 
-8.90761e-05  1.65080e-03        00000 
-1.25180e-04  7.36994e-04        00000 
-4.24618e-05  2.26552e-04        00000 
-5.79879e-06  4.78588e-05        00000 
 9.66371e-07  2.60173e-06        00000 
 8.48591e-07 -3.99836e-06        00000 
 2.69992e-07 -2.75597e-06        00000 
 4.71279e-08 -1.21198e-06        00000 
-5.18873e-10 -4.10468e-07        00000 
-3.69001e-09 -1.04350e-07        00000 
-1.57664e-09 -1.38786e-08        00000 
-4.54642e-10  4.26072e-09        00000 
-1.07855e-10  4.31998e-09        00000 
-2.29881e-11  2.13317e-09        00000 
-3.97199e-12  7.82150e-10        00000 
 1.23196e-13  2.19682e-10        00000 
 6.85340e-13  3.93511e-11        00000 
 4.69268e-13 -2.67276e-12        00000 
 2.19065e-13 -6.45016e-12        00000 
 7.80991e-14 -3.63564e-12        00000 
 2.04961e-14 -1.44518e-12        00000 
 2.72311e-15 -4.43468e-13        00000 
-9.00541e-16 -9.57121e-14        00000 
-8.86084e-16 -4.43794e-15        00000 
-4.45054e-16  9.04190e-15        00000 
-2.73443e-16  8.61352e-15        00000 
 1.84752e-02  4.23419e-02        00000 
-2.86809e-02  1.61777e-02        00000 
-8.17147e-03 -2.05743e-03        00000 
 1.36493e-03 -5.00915e-03        00000 
 6.87979e-04 -2.01783e-03        00000 
 2.22990e-04 -5.71763e-04        00000 
 3.10707e-05 -1.33389e-04        00000 
-7.00625e-06 -2.38962e-05        00000 
-7.52908e-06 -2.59454e-07        00000 
-3.51445e-06  2.91633e-06        00000 
-1.18889e-06  2.00414e-06        00000 
-2.95499e-07  9.29183e-07        00000 
-3.78354e-08  3.33115e-07        00000 
 1.18645e-08  8.99212e-08        00000 
 1.16252e-08  1.35908e-08        00000 
 5.65422e-09 -2.90519e-09        00000 
 2.05956e-09 -3.47705e-09        00000 
 5.79593e-10 -1.77379e-09        00000 
 1.05887e-10 -6.59862e-10        00000 
-5.59981e-12 -1.87300e-10        00000 
-1.64238e-11 -3.42891e-11        00000 
-9.43473e-12  1.78280e-12        00000 
-3.79671e-12  5.26088e-12        00000 
-1.18020e-12  3.00795e-12        00000 
-2.60753e-13  1.20445e-12        00000 
-1.57973e-14  3.72554e-13        00000 
 2.21726e-14  8.17169e-14        00000 
 1.54313e-14  4.51543e-15        00000 
 6.93002e-15 -7.41817e-15        00000 
 4.09018e-15 -7.05804e-15        00000 
-2.84679e-02 -1.43104e-01        00000 
 7.12315e-02  3.00281e-02        00000 
-8.55484e-03  2.28998e-02        00000 
-1.98887e-03  6.16488e-03        00000 
-7.04123e-04  1.11212e-03        00000 
-1.31521e-04  1.78649e-04        00000 
-5.66653e-06  3.00590e-05        00000 
 1.28185e-05  5.13405e-06        00000 
 8.79284e-06 -3.98579e-07        00000 
 3.99369e-06 -1.26815e-06        00000 
 1.40804e-06 -8.95220e-07        00000 
 3.76837e-07 -4.34274e-07        00000 
 5.70269e-08 -1.61630e-07        00000 
-1.18799e-08 -4.50734e-08        00000 
-1.44124e-08 -7.17674e-09        00000 
-7.39284e-09  1.31101e-09        00000 
-2.76650e-09  1.70809e-09        00000 
-7.91629e-10  8.83454e-10        00000 
-1.47578e-10  3.29988e-10        00000 
 6.00931e-12  9.36622e-11        00000 
 2.16550e-11  1.70909e-11        00000 
 1.25478e-11 -9.13748e-13        00000 
 5.05946e-12 -2.62916e-12        00000 
 1.57522e-12 -1.49818e-12        00000 
 3.49754e-13 -5.98585e-13        00000 
 2.24521e-14 -1.84829e-13        00000 
-2.89106e-14 -4.04721e-14        00000 
-2.04155e-14 -2.16565e-15        00000 
-8.67965e-15  4.22179e-15        00000 
-5.62500e-15  3.40781e-15        00000 
-4.36001e-02  7.23816e-01        00000 
 2.02920e-03 -3.97475e-01        00000 
-8.94581e-05 -7.38431e-03        00000 
-2.45607e-05 -9.22658e-04        00000 
-8.63189e-06 -2.91164e-05        00000 
-1.67081e-06  5.75816e-05        00000 
-8.86636e-08  4.23601e-05        00000 
 1.50914e-07  2.22024e-05        00000 
 1.06137e-07  9.46350e-06        00000 
 4.86106e-08  3.28875e-06        00000 
 1.72470e-08  8.70535e-07        00000 
 4.65651e-09  1.22324e-07        00000 
 7.24962e-10 -3.58612e-08        00000 
-1.33960e-10 -3.80097e-08        00000 
-1.72664e-10 -1.90285e-08        00000 
-8.96060e-11 -6.99297e-09        00000 
-3.37842e-11 -1.94654e-09        00000 
-9.75083e-12 -3.35910e-10        00000 
-1.85349e-12  3.17902e-11        00000 
 5.21880e-14  6.03008e-11        00000 
 2.57724e-13  3.30371e-11        00000 
 1.51698e-13  1.29010e-11        00000 
 6.16637e-14  3.88732e-12        00000 
 1.93488e-14  8.12994e-13        00000 
 4.35490e-15  2.49751e-14        00000 
 3.11883e-16 -8.39035e-14        00000 
-3.40123e-16 -5.46065e-14        00000 
-2.45970e-16 -2.33456e-14        00000 
-1.06943e-16 -7.87805e-15        00000 
-2.11225e-16 -1.23349e-15        00000 
-1.74128e-02  1.75294e-01        00000 
-1.87374e-19  4.00890e-18        00000 
-6.50023e-20 -7.08525e-18        00000 
 1.12651e-20  9.50995e-19        00000 
-1.05547e-21 -1.55379e-19        00000 
 9.33707e-23  3.18289e-20        00000 
 5.20564e-23 -3.69667e-21        00000 
-4.15735e-23  1.21280e-22        00000 
-6.46339e-24  9.20798e-22        00000 
 1.31673e-23 -1.34540e-22        00000 
-1.22351e-23  5.58858e-23        00000 
 5.14156e-24 -1.06401e-24        00000 
-1.88329e-24  2.31423e-24        00000 
 3.51703e-25  2.80143e-25        00000 
-1.16320e-25 -4.98323e-25        00000 
-7.99584e-28  1.46699e-25        00000 
 1.01627e-26 -1.64034e-26        00000 
 1.90784e-27 -1.33788e-26        00000 
-1.05005e-27 -5.13015e-27        00000 
 6.71013e-28  1.31575e-27        00000 
-1.10213e-28  2.32304e-27        00000 
 1.17166e-28 -8.91117e-28        00000 
-9.20165e-29  3.13500e-28        00000 
 2.50560e-29 -4.54284e-29        00000 
-3.31391e-30  2.08303e-29        00000 
 7.59968e-31 -3.10159e-30        00000 
-6.86855e-31  2.96966e-30        00000 
 4.50765e-32  1.94471e-30        00000 
 1.36213e-31 -7.65738e-31        00000 
-1.26687e-31 -1.96494e-31        00000 
-6.39151e-19 -6.27212e-19        00000 
 2.71810e-19 -1.49079e-18        00000 
-2.58443e-20  8.33805e-19        00000 
-1.27550e-22 -4.00942e-19        00000 
 2.37714e-22  8.21425e-20        00000 
-1.04032e-22 -1.55763e-20        00000 
 5.76663e-23  2.81829e-21        00000 
-2.38953e-23 -2.98707e-22        00000 
 4.74165e-24 -3.90979e-23        00000 
-2.40940e-24  5.60885e-23        00000 
 2.67180e-24 -1.54046e-23        00000 
-1.07347e-24  4.30406e-24        00000 
 3.30281e-25 -1.15122e-24        00000 
-1.17774e-25  9.91336e-26        00000 
 4.03326e-26  8.09627e-26        00000 
-5.82260e-27 -5.61648e-26        00000 
-3.65075e-28  1.68217e-26        00000 
 9.68293e-29 -2.22401e-27        00000 
 4.99368e-28  7.22329e-28        00000 
-2.70521e-28 -3.42432e-28        00000 
 7.24146e-29 -1.76796e-28        00000 
-2.33350e-29  2.24735e-28        00000 
 1.23860e-29 -9.35477e-29        00000 
-7.68956e-30  2.61048e-29        00000 
 2.12516e-30 -6.73859e-30        00000 
-3.90543e-31  1.69463e-30        00000 
 1.16508e-31 -4.06721e-31        00000 
-3.49868e-32  2.81420e-32        00000 
-1.12449e-32  1.20025e-31        00000 
 2.03008e-32 -6.62714e-32        00000 
 7.36010e-20 -8.35492e-20        00000 
-5.06291e-20  1.33086e-19        00000 
 1.59211e-20 -1.44748e-19        00000 
-2.27427e-21  7.56121e-20        00000 
 1.88386e-22 -2.76254e-20        00000 
-3.47096e-24  6.60832e-21        00000 
-7.78234e-24 -1.37438e-21        00000 
 4.57431e-24  2.48949e-22        00000 
-1.45374e-24 -2.95039e-23        00000 
 5.94002e-25 -3.12757e-24        00000 
-3.85351e-25  3.48645e-24        00000 
 2.23827e-25 -1.19707e-24        00000 
-8.73609e-26  3.45920e-25        00000 
 2.99282e-26 -7.53484e-26        00000 
-1.01107e-26  1.84064e-27        00000 
 2.75385e-27  7.52623e-27        00000 
-4.23164e-28 -3.96875e-27        00000 
 4.21813e-29  1.13246e-27        00000 
-5.05896e-29 -2.46028e-28        00000 
 4.58344e-29  6.58331e-29        00000 
-2.00175e-29  4.85527e-30        00000 
 6.60375e-30 -2.75837e-29        00000 
-2.67631e-30  1.84829e-29        00000 
 1.34789e-30 -7.13734e-30        00000 
-5.84134e-31  1.91371e-30        00000 
 1.56791e-31 -5.56704e-31        00000 
-3.34518e-32  1.28753e-31        00000 
 8.72436e-33 -3.22448e-32        00000 
-2.85069e-34 -7.08395e-33        00000 
-2.18777e-33  1.43688e-32        00000 
-1.02115e-20  1.89639e-20        00000 
 7.98241e-21 -2.09787e-20        00000 
-3.77986e-21  2.07132e-20        00000 
 1.07021e-21 -1.38068e-20        00000 
-1.88951e-22  6.23340e-21        00000 
 2.43129e-23 -2.07765e-21        00000 
-1.84747e-24  5.31149e-22        00000 
-4.46816e-25 -1.16654e-22        00000 
 3.63857e-25  2.17333e-23        00000 
-1.42803e-25 -2.73919e-24        00000 
 7.21464e-26 -1.39281e-25        00000 
-4.06128e-26  2.30186e-25        00000 
 1.93508e-26 -8.97385e-26        00000 
-7.46977e-27  2.56166e-26        00000 
 2.59559e-27 -4.73559e-27        00000 
-8.13835e-28 -2.37327e-28        00000 
 2.04062e-28  6.25038e-28        00000 
-3.89470e-29 -2.88086e-28        00000 
 1.09786e-29  8.60377e-29        00000 
-7.14571e-30 -2.09497e-29        00000 
 4.05320e-30  2.64736e-30        00000 
-1.67635e-30  2.79508e-30        00000 
 6.40939e-31 -2.91092e-30        00000 
-2.78763e-31  1.52611e-30        00000 
 1.31267e-31 -5.93226e-31        00000 
-4.54185e-32  1.65937e-31        00000 
 1.24492e-32 -4.55666e-32        00000 
-2.99515e-33  1.07568e-32        00000 
 4.76833e-34 -8.46773e-34        00000 
 1.30074e-34 -1.54516e-33        00000 
 1.50979e-21 -3.43218e-21        00000 
-1.25635e-21  3.47049e-21        00000 
 7.21892e-22 -3.20691e-21        00000 
-2.85092e-22  2.32126e-21        00000 
 7.80744e-23 -1.24881e-21        00000 
-1.55585e-23  5.08447e-22        00000 
 2.42598e-24 -1.63057e-22        00000 
-2.54736e-25  4.29707e-23        00000 
-2.88207e-26 -9.75138e-24        00000 
 2.80221e-26  1.87051e-24        00000 
-1.45079e-26 -2.54616e-25        00000 
 7.69909e-27 -7.10117e-29        00000 
-3.89003e-27  1.51369e-26        00000 
 1.69952e-27 -6.46259e-27        00000 
-6.43768e-28  1.79597e-27        00000 
 2.18702e-28 -2.80090e-28        00000 
-6.52987e-29 -4.18374e-29        00000 
 1.64988e-29  5.04706e-29        00000 
-4.02275e-30 -2.17817e-29        00000 
 1.47613e-30  6.60141e-30        00000 
-7.65458e-31 -1.39673e-30        00000 
 3.65396e-31 -1.17001e-31        00000 
-1.51827e-31  3.92250e-31        00000 
 6.27458e-32 -2.75130e-31        00000 
-2.74075e-32  1.09140e-31        00000 
 1.10318e-32 -4.49831e-32        00000 
-3.64487e-33  1.36822e-32        00000 
 1.00986e-33 -3.67382e-33        00000 
-2.31152e-34  7.22122e-34        00000 
 6.63524e-35 -8.18987e-35        00000 
-2.30947e-22  5.89499e-22        00000 
 1.99484e-22 -5.77427e-22        00000 
-1.28389e-22  5.16619e-22        00000 
 6.15121e-23 -3.87578e-22        00000 
-2.20007e-23  2.31876e-22        00000 
 5.97004e-24 -1.09685e-22        00000 
-1.27306e-24  4.16950e-23        00000 
 2.23756e-25 -1.30871e-23        00000 
-2.77210e-26  3.50238e-24        00000 
-8.43219e-28 -8.13607e-25        00000 
 2.38736e-27  1.60384e-25        00000 
-1.45259e-27 -2.35548e-26        00000 
 7.63509e-28  9.51424e-28        00000 
-3.59966e-28  9.43445e-28        00000 
 1.49549e-28 -4.44114e-28        00000 
-5.52033e-29  1.19623e-28        00000 
 1.82488e-29 -1.49954e-29        00000 
-5.35368e-30 -4.80240e-30        00000 
 1.43303e-30  4.08027e-30        00000 
-4.17449e-31 -1.67030e-30        00000 
 1.63947e-31  4.77202e-31        00000 
-7.59585e-32 -6.54960e-32        00000 
 3.38216e-32 -3.94369e-32        00000 
-1.42832e-32  4.23381e-32        00000 
 6.29396e-33 -2.03759e-32        00000 
-2.50523e-33  9.61091e-33        00000 
 9.29233e-34 -3.61912e-33        00000 
-2.97339e-34  1.11033e-33        00000 
 8.38666e-35 -2.91716e-34        00000 
-3.60034e-35  1.09007e-34        00000 
 3.60864e-23 -9.94209e-23        00000 
-3.19507e-23  9.61519e-23        00000 
 2.21685e-23 -8.48443e-23        00000 
-1.20489e-23  6.49940e-23        00000 
 5.13862e-24 -4.15918e-23        00000 
-1.73239e-24  2.18854e-23        00000 
 4.69918e-25 -9.49316e-24        00000 
-1.05374e-25  3.44321e-24        00000 
 1.97033e-26 -1.06607e-24        00000 
-2.69453e-27  2.87253e-25        00000 
 3.02106e-30 -6.78796e-26        00000 
 2.17923e-28  1.37416e-26        00000 
-1.41900e-28 -2.16232e-27        00000 
 7.27396e-29  1.58336e-28        00000 
-3.27136e-29  5.20473e-29        00000 
 1.31012e-29 -2.86941e-29        00000 
-4.71199e-30  7.47654e-30        00000 
 1.52830e-30 -6.36550e-31        00000 
-4.51923e-31 -4.86798e-31        00000 
 1.30000e-31  3.29830e-31        00000 
-4.22277e-32 -1.25711e-31        00000 
 1.68181e-32  3.09547e-32        00000 
-7.36046e-33 -2.62425e-34        00000 
 3.18691e-33 -5.39579e-33        00000 
-1.23946e-33  3.66134e-33        00000 
 5.61820e-34 -1.91913e-33        00000 
-2.20822e-34  8.27709e-34        00000 
 7.84762e-35 -2.97047e-34        00000 
-2.57731e-35  9.37330e-35        00000 
 1.30373e-35 -4.49129e-35        00000 
-5.72171e-24  1.66468e-23        00000 
 5.15627e-24 -1.60167e-23        00000 
-3.77324e-24  1.40707e-23        00000 
 2.24212e-24 -1.09491e-23        00000 
-1.08307e-24  7.33900e-24        00000 
 4.27050e-25 -4.17024e-24        00000 
-1.38737e-25  2.00150e-24        00000 
 3.77287e-26 -8.16122e-25        00000 
-8.73110e-27  2.86253e-25        00000 
 1.70414e-27 -8.76219e-26        00000 
-2.47647e-28  2.37049e-26        00000 
 2.45867e-30 -5.67694e-27        00000 
 2.05929e-29  1.17834e-27        00000 
-1.35679e-29 -1.97141e-28        00000 
 6.76491e-30  1.98162e-29        00000 
-2.93631e-30  2.08291e-30        00000 
 1.14181e-30 -1.68309e-30        00000 
-4.02033e-31  4.21680e-31        00000 
 1.29419e-31 -7.13506e-33        00000 
-3.91853e-32 -4.64826e-32        00000 
 1.20413e-32  2.63089e-32        00000 
-4.16983e-33 -9.02727e-33        00000 
 1.66298e-33  1.66473e-33        00000 
-7.02095e-34  4.10739e-34        00000 
 2.84400e-34 -6.38484e-34        00000 
-1.20880e-34  3.63733e-34        00000 
 5.05964e-35 -1.74623e-34        00000 
-1.93298e-35  7.10605e-35        00000 
 7.10834e-36 -2.61879e-35        00000 
-3.99705e-36  1.44027e-35        00000 
 9.16964e-25 -2.77941e-24        00000 
-8.37337e-25  2.66960e-24        00000 
 6.37586e-25 -2.34609e-24        00000 
-4.04879e-25  1.85035e-24        00000 
 2.14598e-25 -1.28371e-24        00000 
-9.51777e-26  7.72586e-25        00000 
 3.55169e-26 -4.00969e-25        00000 
-1.12575e-26  1.79658e-25        00000 
 3.06729e-27 -6.99590e-26        00000 
-7.24997e-28  2.39126e-26        00000 
 1.45726e-28 -7.25259e-27        00000 
-2.18056e-29  1.96687e-27        00000 
 1.22278e-31 -4.76385e-28        00000 
 1.97006e-30  1.01212e-28        00000 
-1.27581e-30 -1.78823e-29        00000 
 6.19096e-31  2.21227e-30        00000 
-2.61145e-31 -1.74904e-32        00000 
 9.91861e-32 -8.11141e-32        00000 
-3.44255e-32  1.90143e-32        00000 
 1.11117e-32  2.88031e-33        00000 
-3.46867e-33 -4.25186e-33        00000 
 1.12451e-33  2.04044e-33        00000 
-4.04526e-34 -6.01188e-34        00000 
 1.60245e-34  5.28105e-35        00000 
-6.51442e-35  6.95152e-35        00000 
 2.71259e-35 -6.34712e-35        00000 
-1.13252e-35  3.45462e-35        00000 
 4.56306e-36 -1.56981e-35        00000 
-1.82540e-36  6.59328e-36        00000 
 1.10632e-36 -4.02355e-36        00000 
-1.48155e-25  4.63667e-25        00000 
 1.36684e-25 -4.45313e-25        00000 
-1.07332e-25  3.92444e-25        00000 
 7.17517e-26 -3.13316e-25        00000 
-4.08566e-26  2.23364e-25        00000 
 1.98562e-26 -1.40568e-25        00000 
-8.26527e-27  7.75976e-26        00000 
 2.96380e-27 -3.75223e-26        00000 
-9.22890e-28  1.59431e-26        00000 
 2.51810e-28 -5.98937e-27        00000 
-6.03361e-29  2.00603e-27        00000 
 1.23480e-29 -6.03702e-28        00000 
-1.85728e-30  1.64004e-28        00000 
-1.48205e-32 -4.01243e-29        00000 
 1.88585e-31  8.71224e-30        00000 
-1.18418e-31 -1.61623e-30        00000 
 5.60112e-32  2.32153e-31        00000 