<?xml version="1.0" encoding="utf-8"?>
<VTKFile byte_order="LittleEndian" type="UnstructuredGrid" version="0.1">
   <UnstructuredGrid>
      <Piece NumberOfCells="3364" NumberOfPoints="1741">
         <Points>
            <DataArray Name="Points" NumberOfComponents="3" format="ascii" type="Float32">
0.0000 1.0000 0.0000
0.0000 1.0345 0.0000
0.0000 1.0690 0.0000
0.0000 1.1034 0.0000
0.0000 1.1379 0.0000
0.0000 1.1724 0.0000
0.0000 1.2069 0.0000
0.0000 1.2414 0.0000
0.0000 1.2759 0.0000
0.0000 1.3103 0.0000
0.0000 1.3448 0.0000
0.0000 1.3793 0.0000
0.0000 1.4138 0.0000
0.0000 1.4483 0.0000
0.0000 1.4828 0.0000
0.0000 1.5172 0.0000
0.0000 1.5517 0.0000
0.0000 1.5862 0.0000
0.0000 1.6207 0.0000
0.0000 1.6552 0.0000
0.0000 1.6897 0.0000
0.0000 1.7241 0.0000
0.0000 1.7586 0.0000
0.0000 1.7931 0.0000
0.0000 1.8276 0.0000
0.0000 1.8621 0.0000
0.0000 1.8966 0.0000
0.0000 1.9310 0.0000
0.0000 1.9655 0.0000
0.0000 2.0000 0.0000
0.0690 1.0000 0.0000
0.0690 1.0345 0.0000
0.0690 1.0690 0.0000
0.0690 1.1034 0.0000
0.0690 1.1379 0.0000
0.0690 1.1724 0.0000
0.0690 1.2069 0.0000
0.0690 1.2414 0.0000
0.0690 1.2759 0.0000
0.0690 1.3103 0.0000
0.0690 1.3448 0.0000
0.0690 1.3793 0.0000
0.0690 1.4138 0.0000
0.0690 1.4483 0.0000
0.0690 1.4828 0.0000
0.0690 1.5172 0.0000
0.0690 1.5517 0.0000
0.0690 1.5862 0.0000
0.0690 1.6207 0.0000
0.0690 1.6552 0.0000
0.0690 1.6897 0.0000
0.0690 1.7241 0.0000
0.0690 1.7586 0.0000
0.0690 1.7931 0.0000
0.0690 1.8276 0.0000
0.0690 1.8621 0.0000
0.0690 1.8966 0.0000
0.0690 1.9310 0.0000
0.0690 1.9655 0.0000
0.0690 2.0000 0.0000
0.1379 1.0000 0.0000
0.1379 1.0345 0.0000
0.1379 1.0690 0.0000
0.1379 1.1034 0.0000
0.1379 1.1379 0.0000
0.1379 1.1724 0.0000
0.1379 1.2069 0.0000
0.1379 1.2414 0.0000
0.1379 1.2759 0.0000
0.1379 1.3103 0.0000
0.1379 1.3448 0.0000
0.1379 1.3793 0.0000
0.1379 1.4138 0.0000
0.1379 1.4483 0.0000
0.1379 1.4828 0.0000
0.1379 1.5172 0.0000
0.1379 1.5517 0.0000
0.1379 1.5862 0.0000
0.1379 1.6207 0.0000
0.1379 1.6552 0.0000
0.1379 1.6897 0.0000
0.1379 1.7241 0.0000
0.1379 1.7586 0.0000
0.1379 1.7931 0.0000
0.1379 1.8276 0.0000
0.1379 1.8621 0.0000
0.1379 1.8966 0.0000
0.1379 1.9310 0.0000
0.1379 1.9655 0.0000
0.1379 2.0000 0.0000
0.2069 1.0000 0.0000
0.2069 1.0345 0.0000
0.2069 1.0690 0.0000
0.2069 1.1034 0.0000
0.2069 1.1379 0.0000
0.2069 1.1724 0.0000
0.2069 1.2069 0.0000
0.2069 1.2414 0.0000
0.2069 1.2759 0.0000
0.2069 1.3103 0.0000
0.2069 1.3448 0.0000
0.2069 1.3793 0.0000
0.2069 1.4138 0.0000
0.2069 1.4483 0.0000
0.2069 1.4828 0.0000
0.2069 1.5172 0.0000
0.2069 1.5517 0.0000
0.2069 1.5862 0.0000
0.2069 1.6207 0.0000
0.2069 1.6552 0.0000
0.2069 1.6897 0.0000
0.2069 1.7241 0.0000
0.2069 1.7586 0.0000
0.2069 1.7931 0.0000
0.2069 1.8276 0.0000
0.2069 1.8621 0.0000
0.2069 1.8966 0.0000
0.2069 1.9310 0.0000
0.2069 1.9655 0.0000
0.2069 2.0000 0.0000
0.2759 1.0000 0.0000
0.2759 1.0345 0.0000
0.2759 1.0690 0.0000
0.2759 1.1034 0.0000
0.2759 1.1379 0.0000
0.2759 1.1724 0.0000
0.2759 1.2069 0.0000
0.2759 1.2414 0.0000
0.2759 1.2759 0.0000
0.2759 1.3103 0.0000
0.2759 1.3448 0.0000
0.2759 1.3793 0.0000
0.2759 1.4138 0.0000
0.2759 1.4483 0.0000
0.2759 1.4828 0.0000
0.2759 1.5172 0.0000
0.2759 1.5517 0.0000
0.2759 1.5862 0.0000
0.2759 1.6207 0.0000
0.2759 1.6552 0.0000
0.2759 1.6897 0.0000
0.2759 1.7241 0.0000
0.2759 1.7586 0.0000
0.2759 1.7931 0.0000
0.2759 1.8276 0.0000
0.2759 1.8621 0.0000
0.2759 1.8966 0.0000
0.2759 1.9310 0.0000
0.2759 1.9655 0.0000
0.2759 2.0000 0.0000
0.3448 1.0000 0.0000
0.3448 1.0345 0.0000
0.3448 1.0690 0.0000
0.3448 1.1034 0.0000
0.3448 1.1379 0.0000
0.3448 1.1724 0.0000
0.3448 1.2069 0.0000
0.3448 1.2414 0.0000
0.3448 1.2759 0.0000
0.3448 1.3103 0.0000
0.3448 1.3448 0.0000
0.3448 1.3793 0.0000
0.3448 1.4138 0.0000
0.3448 1.4483 0.0000
0.3448 1.4828 0.0000
0.3448 1.5172 0.0000
0.3448 1.5517 0.0000
0.3448 1.5862 0.0000
0.3448 1.6207 0.0000
0.3448 1.6552 0.0000
0.3448 1.6897 0.0000
0.3448 1.7241 0.0000
0.3448 1.7586 0.0000
0.3448 1.7931 0.0000
0.3448 1.8276 0.0000
0.3448 1.8621 0.0000
0.3448 1.8966 0.0000
0.3448 1.9310 0.0000
0.3448 1.9655 0.0000
0.3448 2.0000 0.0000
0.4138 1.0000 0.0000
0.4138 1.0345 0.0000
0.4138 1.0690 0.0000
0.4138 1.1034 0.0000
0.4138 1.1379 0.0000
0.4138 1.1724 0.0000
0.4138 1.2069 0.0000
0.4138 1.2414 0.0000
0.4138 1.2759 0.0000
0.4138 1.3103 0.0000
0.4138 1.3448 0.0000
0.4138 1.3793 0.0000
0.4138 1.4138 0.0000
0.4138 1.4483 0.0000
0.4138 1.4828 0.0000
0.4138 1.5172 0.0000
0.4138 1.5517 0.0000
0.4138 1.5862 0.0000
0.4138 1.6207 0.0000
0.4138 1.6552 0.0000
0.4138 1.6897 0.0000
0.4138 1.7241 0.0000
0.4138 1.7586 0.0000
0.4138 1.7931 0.0000
0.4138 1.8276 0.0000
0.4138 1.8621 0.0000
0.4138 1.8966 0.0000
0.4138 1.9310 0.0000
0.4138 1.9655 0.0000
0.4138 2.0000 0.0000
0.4828 1.0000 0.0000
0.4828 1.0345 0.0000
0.4828 1.0690 0.0000
0.4828 1.1034 0.0000
0.4828 1.1379 0.0000
0.4828 1.1724 0.0000
0.4828 1.2069 0.0000
0.4828 1.2414 0.0000
0.4828 1.2759 0.0000
0.4828 1.3103 0.0000
0.4828 1.3448 0.0000
0.4828 1.3793 0.0000
0.4828 1.4138 0.0000
0.4828 1.4483 0.0000
0.4828 1.4828 0.0000
0.4828 1.5172 0.0000
0.4828 1.5517 0.0000
0.4828 1.5862 0.0000
0.4828 1.6207 0.0000
0.4828 1.6552 0.0000
0.4828 1.6897 0.0000
0.4828 1.7241 0.0000
0.4828 1.7586 0.0000
0.4828 1.7931 0.0000
0.4828 1.8276 0.0000
0.4828 1.8621 0.0000
0.4828 1.8966 0.0000
0.4828 1.9310 0.0000
0.4828 1.9655 0.0000
0.4828 2.0000 0.0000
0.5517 1.0000 0.0000
0.5517 1.0345 0.0000
0.5517 1.0690 0.0000
0.5517 1.1034 0.0000
0.5517 1.1379 0.0000
0.5517 1.1724 0.0000
0.5517 1.2069 0.0000
0.5517 1.2414 0.0000
0.5517 1.2759 0.0000
0.5517 1.3103 0.0000
0.5517 1.3448 0.0000
0.5517 1.3793 0.0000
0.5517 1.4138 0.0000
0.5517 1.4483 0.0000
0.5517 1.4828 0.0000
0.5517 1.5172 0.0000
0.5517 1.5517 0.0000
0.5517 1.5862 0.0000
0.5517 1.6207 0.0000
0.5517 1.6552 0.0000
0.5517 1.6897 0.0000
0.5517 1.7241 0.0000
0.5517 1.7586 0.0000
0.5517 1.7931 0.0000
0.5517 1.8276 0.0000
0.5517 1.8621 0.0000
0.5517 1.8966 0.0000
0.5517 1.9310 0.0000
0.5517 1.9655 0.0000
0.5517 2.0000 0.0000
0.6207 1.0000 0.0000
0.6207 1.0345 0.0000
0.6207 1.0690 0.0000
0.6207 1.1034 0.0000
0.6207 1.1379 0.0000
0.6207 1.1724 0.0000
0.6207 1.2069 0.0000
0.6207 1.2414 0.0000
0.6207 1.2759 0.0000
0.6207 1.3103 0.0000
0.6207 1.3448 0.0000
0.6207 1.3793 0.0000
0.6207 1.4138 0.0000
0.6207 1.4483 0.0000
0.6207 1.4828 0.0000
0.6207 1.5172 0.0000
0.6207 1.5517 0.0000
0.6207 1.5862 0.0000
0.6207 1.6207 0.0000
0.6207 1.6552 0.0000
0.6207 1.6897 0.0000
0.6207 1.7241 0.0000
0.6207 1.7586 0.0000
0.6207 1.7931 0.0000
0.6207 1.8276 0.0000
0.6207 1.8621 0.0000
0.6207 1.8966 0.0000
0.6207 1.9310 0.0000
0.6207 1.9655 0.0000
0.6207 2.0000 0.0000
0.6897 1.0000 0.0000
0.6897 1.0345 0.0000
0.6897 1.0690 0.0000
0.6897 1.1034 0.0000
0.6897 1.1379 0.0000
0.6897 1.1724 0.0000
0.6897 1.2069 0.0000
0.6897 1.2414 0.0000
0.6897 1.2759 0.0000
0.6897 1.3103 0.0000
0.6897 1.3448 0.0000
0.6897 1.3793 0.0000
0.6897 1.4138 0.0000
0.6897 1.4483 0.0000
0.6897 1.4828 0.0000
0.6897 1.5172 0.0000
0.6897 1.5517 0.0000
0.6897 1.5862 0.0000
0.6897 1.6207 0.0000
0.6897 1.6552 0.0000
0.6897 1.6897 0.0000
0.6897 1.7241 0.0000
0.6897 1.7586 0.0000
0.6897 1.7931 0.0000
0.6897 1.8276 0.0000
0.6897 1.8621 0.0000
0.6897 1.8966 0.0000
0.6897 1.9310 0.0000
0.6897 1.9655 0.0000
0.6897 2.0000 0.0000
0.7586 1.0000 0.0000
0.7586 1.0345 0.0000
0.7586 1.0690 0.0000
0.7586 1.1034 0.0000
0.7586 1.1379 0.0000
0.7586 1.1724 0.0000
0.7586 1.2069 0.0000
0.7586 1.2414 0.0000
0.7586 1.2759 0.0000
0.7586 1.3103 0.0000
0.7586 1.3448 0.0000
0.7586 1.3793 0.0000
0.7586 1.4138 0.0000
0.7586 1.4483 0.0000
0.7586 1.4828 0.0000
0.7586 1.5172 0.0000
0.7586 1.5517 0.0000
0.7586 1.5862 0.0000
0.7586 1.6207 0.0000
0.7586 1.6552 0.0000
0.7586 1.6897 0.0000
0.7586 1.7241 0.0000
0.7586 1.7586 0.0000
0.7586 1.7931 0.0000
0.7586 1.8276 0.0000
0.7586 1.8621 0.0000
0.7586 1.8966 0.0000
0.7586 1.9310 0.0000
0.7586 1.9655 0.0000
0.7586 2.0000 0.0000
0.8276 1.0000 0.0000
0.8276 1.0345 0.0000
0.8276 1.0690 0.0000
0.8276 1.1034 0.0000
0.8276 1.1379 0.0000
0.8276 1.1724 0.0000
0.8276 1.2069 0.0000
0.8276 1.2414 0.0000
0.8276 1.2759 0.0000
0.8276 1.3103 0.0000
0.8276 1.3448 0.0000
0.8276 1.3793 0.0000
0.8276 1.4138 0.0000
0.8276 1.4483 0.0000
0.8276 1.4828 0.0000
0.8276 1.5172 0.0000
0.8276 1.5517 0.0000
0.8276 1.5862 0.0000
0.8276 1.6207 0.0000
0.8276 1.6552 0.0000
0.8276 1.6897 0.0000
0.8276 1.7241 0.0000
0.8276 1.7586 0.0000
0.8276 1.7931 0.0000
0.8276 1.8276 0.0000
0.8276 1.8621 0.0000
0.8276 1.8966 0.0000
0.8276 1.9310 0.0000
0.8276 1.9655 0.0000
0.8276 2.0000 0.0000
0.8966 1.0000 0.0000
0.8966 1.0345 0.0000
0.8966 1.0690 0.0000
0.8966 1.1034 0.0000
0.8966 1.1379 0.0000
0.8966 1.1724 0.0000
0.8966 1.2069 0.0000
0.8966 1.2414 0.0000
0.8966 1.2759 0.0000
0.8966 1.3103 0.0000
0.8966 1.3448 0.0000
0.8966 1.3793 0.0000
0.8966 1.4138 0.0000
0.8966 1.4483 0.0000
0.8966 1.4828 0.0000
0.8966 1.5172 0.0000
0.8966 1.5517 0.0000
0.8966 1.5862 0.0000
0.8966 1.6207 0.0000
0.8966 1.6552 0.0000
0.8966 1.6897 0.0000
0.8966 1.7241 0.0000
0.8966 1.7586 0.0000
0.8966 1.7931 0.0000
0.8966 1.8276 0.0000
0.8966 1.8621 0.0000
0.8966 1.8966 0.0000
0.8966 1.9310 0.0000
0.8966 1.9655 0.0000
0.8966 2.0000 0.0000
0.9655 1.0000 0.0000
0.9655 1.0345 0.0000
0.9655 1.0690 0.0000
0.9655 1.1034 0.0000
0.9655 1.1379 0.0000
0.9655 1.1724 0.0000
0.9655 1.2069 0.0000
0.9655 1.2414 0.0000
0.9655 1.2759 0.0000
0.9655 1.3103 0.0000
0.9655 1.3448 0.0000
0.9655 1.3793 0.0000
0.9655 1.4138 0.0000
0.9655 1.4483 0.0000
0.9655 1.4828 0.0000
0.9655 1.5172 0.0000
0.9655 1.5517 0.0000
0.9655 1.5862 0.0000
0.9655 1.6207 0.0000
0.9655 1.6552 0.0000
0.9655 1.6897 0.0000
0.9655 1.7241 0.0000
0.9655 1.7586 0.0000
0.9655 1.7931 0.0000
0.9655 1.8276 0.0000
0.9655 1.8621 0.0000
0.9655 1.8966 0.0000
0.9655 1.9310 0.0000
0.9655 1.9655 0.0000
0.9655 2.0000 0.0000
1.0345 1.0000 0.0000
1.0345 1.0345 0.0000
1.0345 1.0690 0.0000
1.0345 1.1034 0.0000
1.0345 1.1379 0.0000
1.0345 1.1724 0.0000
1.0345 1.2069 0.0000
1.0345 1.2414 0.0000
1.0345 1.2759 0.0000
1.0345 1.3103 0.0000
1.0345 1.3448 0.0000
[...]
         <PointData>
            <DataArray Name="fValues" NumberOfComponents="3" format="ascii" type="Float64">
-1.20004e-20  1.41021e-21        00000 
 2.87470e-21        00000        00000 
 1.56350e-20  7.10681e-22        00000 
-2.14301e-21  1.07150e-21        00000 
-8.52818e-21  7.10681e-21        00000 
 2.53316e-20 -4.12478e-21        00000 
-7.10681e-21 -4.26409e-21        00000 
 5.08964e-21  1.66083e-20        00000 
 2.70059e-20  2.27418e-20        00000 
 4.88399e-21 -5.66812e-21        00000 
-8.52818e-21 -3.12700e-20        00000 
       00000  2.82162e-20        00000 
-2.84273e-21 -1.42136e-20        00000 
 1.54830e-20  2.25781e-20        00000 
-8.52818e-21 -2.84273e-20        00000 
-1.69655e-21 -1.25009e-21        00000 
 2.84273e-21 -4.83263e-20        00000 
-4.49613e-21  2.78295e-20        00000 
-9.94954e-21 -2.27418e-20        00000 
-1.96442e-21  5.35751e-22        00000 
-6.39613e-21 -2.55845e-20        00000 
-1.20693e-20  3.46324e-21        00000 
 9.23886e-21 -8.52818e-21        00000 
 3.75026e-21  1.14294e-20        00000 
-9.94954e-21 -1.98991e-20        00000 
-2.32438e-21  3.83242e-21        00000 
 4.26409e-21 -3.41127e-20        00000 
 8.05126e-21  5.92215e-20        00000 
-1.79194e-20 -2.93879e-20        00000 
 3.45644e-20 -9.79491e-20        00000 
 8.02066e-05  1.02838e-05        00000 
 9.98801e-05 -1.40267e-05        00000 
 1.16174e-04 -3.94613e-05        00000 
 1.27888e-04 -6.47286e-05        00000 
 1.35996e-04 -8.92423e-05        00000 
 1.41275e-04 -1.12662e-04        00000 
 1.44284e-04 -1.34781e-04        00000 
 1.45435e-04 -1.55473e-04        00000 
 1.45044e-04 -1.74652e-04        00000 
 1.43368e-04 -1.92264e-04        00000 
 1.40624e-04 -2.08276e-04        00000 
 1.37004e-04 -2.22668e-04        00000 
 1.32682e-04 -2.35440e-04        00000 
 1.27821e-04 -2.46601e-04        00000 
 1.22577e-04 -2.56172e-04        00000 
 1.17106e-04 -2.64186e-04        00000 
 1.11565e-04 -2.70690e-04        00000 
 1.06122e-04 -2.75738e-04        00000 
 1.00958e-04 -2.79406e-04        00000 
 9.62858e-05 -2.81786e-04        00000 
 9.23578e-05 -2.83007e-04        00000 
 8.94963e-05 -2.83244e-04        00000 
 8.81311e-05 -2.82761e-04        00000 
 8.88694e-05 -2.81963e-04        00000 
 9.26228e-05 -2.81506e-04        00000 
 1.00861e-04 -2.82503e-04        00000 
 1.16171e-04 -2.86929e-04        00000 
 1.43709e-04 -2.98485e-04        00000 
 1.95830e-04 -3.24544e-04        00000 
 3.21595e-04 -3.78979e-04        00000 
 1.78919e-04 -8.75662e-05        00000 
 2.29553e-04 -1.16436e-04        00000 
 2.63098e-04 -1.50247e-04        00000 
 2.86232e-04 -1.86223e-04        00000 
 3.01631e-04 -2.22828e-04        00000 
 3.11026e-04 -2.59060e-04        00000 
 3.15620e-04 -2.94226e-04        00000 
 3.16295e-04 -3.27830e-04        00000 
 3.13735e-04 -3.59515e-04        00000 
 3.08494e-04 -3.89029e-04        00000 
 3.01043e-04 -4.16198e-04        00000 
 2.91799e-04 -4.40909e-04        00000 
 2.81139e-04 -4.63106e-04        00000 
 2.69414e-04 -4.82776e-04        00000 
 2.56962e-04 -4.99949e-04        00000 
 2.44113e-04 -5.14691e-04        00000 
 2.31206e-04 -5.27106e-04        00000 
 2.18593e-04 -5.37338e-04        00000 
 2.06666e-04 -5.45572e-04        00000 
 1.95873e-04 -5.52052e-04        00000 
 1.86758e-04 -5.57095e-04        00000 
 1.80011e-04 -5.61120e-04        00000 
 1.76548e-04 -5.64692e-04        00000 
 1.77639e-04 -5.68585e-04        00000 
 1.85122e-04 -5.73866e-04        00000 
 2.01771e-04 -5.81994e-04        00000 
 2.31966e-04 -5.94878e-04        00000 
 2.82903e-04 -6.14654e-04        00000 
 3.66502e-04 -6.42118e-04        00000 
 4.86194e-04 -6.68964e-04        00000 
 3.16712e-04 -2.29624e-04        00000 
 3.83749e-04 -2.66523e-04        00000 
 4.32085e-04 -3.06043e-04        00000 
 4.65626e-04 -3.47826e-04        00000 
 4.87715e-04 -3.90807e-04        00000 
 5.00650e-04 -4.33979e-04        00000 
 5.06127e-04 -4.76484e-04        00000 
 5.05454e-04 -5.17626e-04        00000 
 4.99685e-04 -5.56857e-04        00000 
 4.89699e-04 -5.93758e-04        00000 
 4.76259e-04 -6.28029e-04        00000 
 4.60044e-04 -6.59467e-04        00000 
 4.41672e-04 -6.87961e-04        00000 
 4.21718e-04 -7.13478e-04        00000 
 4.00730e-04 -7.36054e-04        00000 
 3.79240e-04 -7.55790e-04        00000 
 3.57783e-04 -7.72847e-04        00000 
 3.36916e-04 -7.87444e-04        00000 
 3.17242e-04 -7.99858e-04        00000 
 2.99445e-04 -8.10435e-04        00000 
 2.84336e-04 -8.19593e-04        00000 
 2.72916e-04 -8.27840e-04        00000 
 2.66464e-04 -8.35786e-04        00000 
 2.66654e-04 -8.44154e-04        00000 
 2.75719e-04 -8.53758e-04        00000 
 2.96646e-04 -8.65426e-04        00000 
 3.33355e-04 -8.79768e-04        00000 
 3.90531e-04 -8.96633e-04        00000 
 4.71609e-04 -9.14204e-04        00000 
 5.79679e-04 -9.31030e-04        00000 
 4.92346e-04 -3.94980e-04        00000 
 5.68003e-04 -4.39345e-04        00000 
 6.24764e-04 -4.85183e-04        00000 
 6.65256e-04 -5.32260e-04        00000 
 6.91908e-04 -5.80066e-04        00000 
 7.06891e-04 -6.27877e-04        00000 
 7.12035e-04 -6.74941e-04        00000 
 7.08890e-04 -7.20567e-04        00000 
 6.98793e-04 -7.64164e-04        00000 
 6.82923e-04 -8.05261e-04        00000 
 6.62334e-04 -8.43507e-04        00000 
 6.37983e-04 -8.78669e-04        00000 
 6.10754e-04 -9.10626e-04        00000 
 5.81469e-04 -9.39353e-04        00000 
 5.50902e-04 -9.64918e-04        00000 
 5.19798e-04 -9.87466e-04        00000 
 4.88890e-04 -1.00721e-03        00000 
 4.58920e-04 -1.02443e-03        00000 
 4.30671e-04 -1.03946e-03        00000 
 4.05000e-04 -1.05266e-03        00000 
 3.82886e-04 -1.06446e-03        00000 
 3.65482e-04 -1.07531e-03        00000 
 3.54183e-04 -1.08567e-03        00000 
 3.50691e-04 -1.09600e-03        00000 
 3.57077e-04 -1.10667e-03        00000 
 3.75789e-04 -1.11786e-03        00000 
 4.09535e-04 -1.12942e-03        00000 
 4.60916e-04 -1.14069e-03        00000 
 5.32406e-04 -1.15078e-03        00000 
 6.25871e-04 -1.15820e-03        00000 
 7.03262e-04 -5.71552e-04        00000 
 7.82956e-04 -6.23252e-04        00000 
 8.43673e-04 -6.75499e-04        00000 
 8.87169e-04 -7.28080e-04        00000 
 9.15275e-04 -7.80545e-04        00000 
 9.29804e-04 -8.32315e-04        00000 
 9.32501e-04 -8.82747e-04        00000 
 9.25011e-04 -9.31220e-04        00000 
 9.08869e-04 -9.77186e-04        00000 
 8.85505e-04 -1.02020e-03        00000 
 8.56253e-04 -1.05996e-03        00000 
 8.22355e-04 -1.09625e-03        00000 
 7.84965e-04 -1.12901e-03        00000 
 7.45159e-04 -1.15827e-03        00000 
 7.03941e-04 -1.18418e-03        00000 
 6.62259e-04 -1.20696e-03        00000 
 6.21016e-04 -1.22689e-03        00000 
 5.81098e-04 -1.24430e-03        00000 
 5.43398e-04 -1.25956e-03        00000 
 5.08852e-04 -1.27305e-03        00000 
 4.78474e-04 -1.28513e-03        00000 
 4.53401e-04 -1.29616e-03        00000 
 4.34933e-04 -1.30643e-03        00000 
 4.24557e-04 -1.31611e-03        00000 
 4.23959e-04 -1.32527e-03        00000 
 4.34988e-04 -1.33375e-03        00000 
 4.59571e-04 -1.34116e-03        00000 
 4.99649e-04 -1.34689e-03        00000 
 5.57033e-04 -1.35009e-03        00000 
 6.33348e-04 -1.34986e-03        00000 
 9.47990e-04 -7.52711e-04        00000 
 1.02889e-03 -8.11677e-04        00000 
 1.09032e-03 -8.70519e-04        00000 
 1.13346e-03 -9.28828e-04        00000 
 1.15971e-03 -9.86056e-04        00000 
 1.17066e-03 -1.04158e-03        00000 
 1.16799e-03 -1.09476e-03        00000 
 1.15343e-03 -1.14502e-03        00000 
 1.12869e-03 -1.19185e-03        00000 
 1.09548e-03 -1.23489e-03        00000 
 1.05540e-03 -1.27391e-03        00000 
 1.00999e-03 -1.30882e-03        00000 
 9.60705e-04 -1.33966e-03        00000 
 9.08866e-04 -1.36661e-03        00000 
 8.55701e-04 -1.38992e-03        00000 
 8.02333e-04 -1.40995e-03        00000 
 7.49796e-04 -1.42710e-03        00000 
 6.99056e-04 -1.44178e-03        00000 
 6.51035e-04 -1.45443e-03        00000 
 6.06642e-04 -1.46543e-03        00000 
 5.66806e-04 -1.47514e-03        00000 
 5.32514e-04 -1.48382e-03        00000 
 5.04835e-04 -1.49163e-03        00000 
 4.84946e-04 -1.49858e-03        00000 
 4.74135e-04 -1.50453e-03        00000 
 4.73795e-04 -1.50917e-03        00000 
 4.85407e-04 -1.51199e-03        00000 
 5.10506e-04 -1.51231e-03        00000 
 5.50660e-04 -1.50938e-03        00000 
 6.07443e-04 -1.50233e-03        00000 
 1.22627e-03 -9.34840e-04        00000 
 1.30672e-03 -1.00128e-03        00000 
 1.36643e-03 -1.06705e-03        00000 
 1.40618e-03 -1.13141e-03        00000 
 1.42718e-03 -1.19354e-03        00000 
 1.43094e-03 -1.25266e-03        00000 
 1.41923e-03 -1.30802e-03        00000 
 1.39396e-03 -1.35901e-03        00000 
 1.35713e-03 -1.40518e-03        00000 
 1.31077e-03 -1.44624e-03        00000 
 1.25685e-03 -1.48210e-03        00000 
 1.19726e-03 -1.51284e-03        00000 
 1.13375e-03 -1.53870e-03        00000 
 1.06793e-03 -1.56006e-03        00000 
 1.00123e-03 -1.57739e-03        00000 
 9.34912e-04 -1.59125e-03        00000 
 8.70098e-04 -1.60220e-03        00000 
 8.07758e-04 -1.61083e-03        00000 
 7.48750e-04 -1.61768e-03        00000 
 6.93855e-04 -1.62322e-03        00000 
 6.43805e-04 -1.62781e-03        00000 
 5.99326e-04 -1.63168e-03        00000 
 5.61169e-04 -1.63494e-03        00000 
 5.30143e-04 -1.63749e-03        00000 
 5.07140e-04 -1.63907e-03        00000 
 4.93155e-04 -1.63923e-03        00000 
 4.89301e-04 -1.63733e-03        00000 
 4.96831e-04 -1.63261e-03        00000 
 5.17146e-04 -1.62419e-03        00000 
 5.51820e-04 -1.61113e-03        00000 
 1.53943e-03 -1.11658e-03        00000 
 1.61860e-03 -1.19107e-03        00000 
 1.67457e-03 -1.26439e-03        00000 
 1.70793e-03 -1.33526e-03        00000 
 1.71989e-03 -1.40248e-03        00000 
 1.71213e-03 -1.46493e-03        00000 
 1.68672e-03 -1.52168e-03        00000 
 1.64599e-03 -1.57204e-03        00000 
 1.59241e-03 -1.61559e-03        00000 
 1.52851e-03 -1.65216e-03        00000 
 1.45674e-03 -1.68186e-03        00000 
 1.37944e-03 -1.70502e-03        00000 
 1.29872e-03 -1.72218e-03        00000 
 1.21651e-03 -1.73403e-03        00000 
 1.13442e-03 -1.74136e-03        00000 
 1.05384e-03 -1.74503e-03        00000 
 9.75902e-04 -1.74587e-03        00000 
 9.01490e-04 -1.74471e-03        00000 
 8.31302e-04 -1.74227e-03        00000 
 7.65873e-04 -1.73915e-03        00000 
 7.05623e-04 -1.73580e-03        00000 
 6.50907e-04 -1.73250e-03        00000 
 6.02058e-04 -1.72930e-03        00000 
 5.59438e-04 -1.72605e-03        00000 
 5.23483e-04 -1.72238e-03        00000 
 4.94753e-04 -1.71770e-03        00000 
 4.73971e-04 -1.71121e-03        00000 
 4.62076e-04 -1.70195e-03        00000 
 4.60270e-04 -1.68881e-03        00000 
 4.70070e-04 -1.67060e-03        00000 
 1.89103e-03 -1.29838e-03        00000 
 1.96863e-03 -1.38207e-03        00000 
 2.01885e-03 -1.46397e-03        00000 
 2.04233e-03 -1.54209e-03        00000 
 2.04055e-03 -1.61459e-03        00000 
 2.01570e-03 -1.67991e-03        00000 
 1.97050e-03 -1.73686e-03        00000 
 1.90803e-03 -1.78462e-03        00000 
 1.83154e-03 -1.82283e-03        00000 
 1.74431e-03 -1.85153e-03        00000 
 1.64948e-03 -1.87111e-03        00000 
 1.54999e-03 -1.88231e-03        00000 
 1.44841e-03 -1.88609e-03        00000 
 1.34699e-03 -1.88360e-03        00000 
 1.24756e-03 -1.87608e-03        00000 
 1.15156e-03 -1.86480e-03        00000 
 1.06002e-03 -1.85100e-03        00000 
 9.73658e-04 -1.83581e-03        00000 
 8.92877e-04 -1.82023e-03        00000 
 8.17827e-04 -1.80506e-03        00000 
 7.48478e-04 -1.79089e-03        00000 
 6.84670e-04 -1.77804e-03        00000 
 6.26187e-04 -1.76658e-03        00000 
 5.72821e-04 -1.75631e-03        00000 
 5.24439e-04 -1.74674e-03        00000 
 4.81050e-04 -1.73710e-03        00000 
 4.42877e-04 -1.72639e-03        00000 
 4.10432e-04 -1.71335e-03        00000 
 3.84591e-04 -1.69652e-03        00000 
 3.66675e-04 -1.67433e-03        00000 
 2.28769e-03 -1.48226e-03        00000 
 2.36373e-03 -1.57706e-03        00000 
 2.40570e-03 -1.66922e-03        00000 
 2.41460e-03 -1.75567e-03        00000 
 2.39267e-03 -1.83370e-03        00000 
 2.34311e-03 -1.90114e-03        00000 
 2.26983e-03 -1.95643e-03        00000 
 2.17716e-03 -1.99870e-03        00000 
 2.06957e-03 -2.02771e-03        00000 
 1.95147e-03 -2.04386e-03        00000 
 1.82698e-03 -2.04802e-03        00000 
 1.69979e-03 -2.04152e-03        00000 
 1.57308e-03 -2.02596e-03        00000 
 1.44943e-03 -2.00313e-03        00000 
 1.33082e-03 -1.97488e-03        00000 
 1.21865e-03 -1.94306e-03        00000 
 1.11378e-03 -1.90941e-03        00000 
 1.01655e-03 -1.87547e-03        00000 
 9.26914e-04 -1.84257e-03        00000 
 8.44457e-04 -1.81177e-03        00000 
 7.68516e-04 -1.78381e-03        00000 
 6.98247e-04 -1.75911e-03        00000 
 6.32711e-04 -1.73773e-03        00000 
 5.70960e-04 -1.71942e-03        00000 
 5.12124e-04 -1.70353e-03        00000 
 4.55495e-04 -1.68910e-03        00000 
 4.00619e-04 -1.67483e-03        00000 
 3.47396e-04 -1.65910e-03        00000 
 2.96177e-04 -1.64002e-03        00000 
 2.47872e-04 -1.61544e-03        00000 
 2.74071e-03 -1.67147e-03        00000 
 2.81500e-03 -1.78048e-03        00000 
 2.84483e-03 -1.88547e-03        00000 
 2.83219e-03 -1.98181e-03        00000 
 2.78077e-03 -2.06559e-03        00000 
 2.69563e-03 -2.13383e-03        00000 
 2.58268e-03 -2.18462e-03        00000 
 2.44823e-03 -2.21710e-03        00000 
 2.29865e-03 -2.23141e-03        00000 
 2.13994e-03 -2.22854e-03        00000 
 1.97756e-03 -2.21017e-03        00000 
 1.81618e-03 -2.17851e-03        00000 
 1.65962e-03 -2.13608e-03        00000 
 1.51080e-03 -2.08556e-03        00000 
 1.37172e-03 -2.02962e-03        00000 
 1.24359e-03 -1.97083e-03        00000 
 1.12684e-03 -1.91152e-03        00000 
 1.02126e-03 -1.85373e-03        00000 
 9.26083e-04 -1.79916e-03        00000 
 8.40128e-04 -1.74912e-03        00000 
 7.61870e-04 -1.70452e-03        00000 
 6.89567e-04 -1.66584e-03        00000 
 6.21352e-04 -1.63314e-03        00000 
 5.55337e-04 -1.60605e-03        00000 
 4.89709e-04 -1.58377e-03        00000 
 4.22829e-04 -1.56508e-03        00000 
 3.53344e-04 -1.54833e-03        00000 
 2.80298e-04 -1.53147e-03        00000 
 2.03252e-04 -1.51207e-03        00000 
 1.22423e-04 -1.48734e-03        00000 
 3.26824e-03 -1.86983e-03        00000 
 3.33964e-03 -1.99791e-03        00000 
 3.35072e-03 -2.11959e-03        00000 
 3.30549e-03 -2.22799e-03        00000 
 3.21043e-03 -2.31754e-03        00000 
 3.07375e-03 -2.38433e-03        00000 
 2.90464e-03 -2.42616e-03        00000 
 2.71253e-03 -2.44250e-03        00000 
 2.50651e-03 -2.43423e-03        00000 
 2.29486e-03 -2.40346e-03        00000 
 2.08471e-03 -2.35313e-03        00000 
 1.88188e-03 -2.28678e-03        00000 
 1.69080e-03 -2.20822e-03        00000 
 1.51455e-03 -2.12131e-03        00000 
 1.35493e-03 -2.02976e-03        00000 
 1.21261e-03 -1.93698e-03        00000 
 1.08729e-03 -1.84595e-03        00000 
 9.77864e-04 -1.75923e-03        00000 
 8.82568e-04 -1.67884e-03        00000 
 7.99140e-04 -1.60631e-03        00000 
 7.24955e-04 -1.54265e-03        00000 
 6.57137e-04 -1.48834e-03        00000 
 5.92675e-04 -1.44339e-03        00000 
 5.28524e-04 -1.40729e-03        00000 
 4.61704e-04 -1.37904e-03        00000 
 3.89414e-04 -1.35710e-03        00000 
 3.09138e-04 -1.33948e-03        00000 
 2.18778e-04 -1.32362e-03        00000 
 1.16789e-04 -1.30649e-03        00000 
 2.33617e-06 -1.28455e-03        00000 
 3.89899e-03 -2.08055e-03        00000 
 3.96387e-03 -2.23516e-03        00000 
 3.94440e-03 -2.37922e-03        00000 
 3.84857e-03 -2.50249e-03        00000 
 3.68787e-03 -2.59728e-03        00000 
 3.47590e-03 -2.65867e-03        00000 
 3.22711e-03 -2.68457e-03        00000 
 2.95561e-03 -2.67533e-03        00000 
 2.67439e-03 -2.63339e-03        00000 
 2.39466e-03 -2.56271e-03        00000 
 2.12552e-03 -2.46823e-03        00000 
 1.87391e-03 -2.35542e-03        00000 
 1.64460e-03 -2.22984e-03        00000 
 1.44040e-03 -2.09685e-03        00000 
 1.26240e-03 -1.96135e-03        00000 
 1.11022e-03 -1.82763e-03        00000 
 9.82318e-04 -1.69933e-03        00000 
 8.76235e-04 -1.57935e-03        00000 
 7.88821e-04 -1.46993e-03        00000 
 7.16433e-04 -1.37265e-03        00000 
 6.55082e-04 -1.28848e-03        00000 
 6.00553e-04 -1.21782e-03        00000 
 5.48496e-04 -1.16053e-03        00000 
 4.94517e-04 -1.11592e-03        00000 
 4.34264e-04 -1.08276e-03        00000 
 3.63528e-04 -1.05924e-03        00000 
 2.78353e-04 -1.04295e-03        00000 
 1.75176e-04 -1.03086e-03        00000 
 5.09782e-05 -1.01931e-03        00000 
-9.65448e-05 -1.00398e-03        00000 
 4.67813e-03 -2.30341e-03        00000 
 4.72736e-03 -2.49614e-03        00000 
 4.65592e-03 -2.67073e-03        00000 
 4.47951e-03 -2.81234e-03        00000 
 4.21863e-03 -2.91045e-03        00000 
 3.89593e-03 -2.95968e-03        00000 
 3.53408e-03 -2.95872e-03        00000 
 3.15409e-03 -2.91023e-03        00000 
 2.77407e-03 -2.81932e-03        00000 
 2.40873e-03 -2.69308e-03        00000 
 2.06910e-03 -2.53937e-03        00000 
 1.76277e-03 -2.36637e-03        00000 
 1.49413e-03 -2.18189e-03        00000 
 1.26487e-03 -1.99305e-03        00000 
 1.07444e-03 -1.80600e-03        00000 
 9.20584e-04 -1.62581e-03        00000 
 7.99748e-04 -1.45648e-03        00000 
 7.07532e-04 -1.30097e-03        00000 
 6.38973e-04 -1.16138e-03        00000 
 5.88765e-04 -1.03904e-03        00000 
 5.51385e-04 -9.34646e-04        00000 
 5.21168e-04 -8.48367e-04        00000 
 4.92335e-04 -7.79839e-04        00000 
 4.59031e-04 -7.28189e-04        00000 
 4.15372e-04 -6.91989e-04        00000 
 3.55516e-04 -6.69201e-04        00000 
 2.73773e-04 -6.57108e-04        00000 
 1.64755e-04 -6.52247e-04        00000 
 2.35431e-05 -6.50366e-04        00000 
-1.54101e-04 -6.46366e-04        00000 
 5.67685e-03 -2.52921e-03        00000 
 5.68990e-03 -2.77766e-03        00000 
 5.52724e-03 -2.99464e-03        00000 
 5.21996e-03 -3.15793e-03        00000 
 4.80452e-03 -3.25519e-03        00000 
 4.31863e-03 -3.28066e-03        00000 
 3.79751e-03 -3.23692e-03        00000 
 3.27132e-03 -3.12998e-03        00000 
 2.76456e-03 -2.97036e-03        00000 
 2.29512e-03 -2.76924e-03        00000 
 1.87543e-03 -2.53899e-03        00000 
 1.51238e-03 -2.29114e-03        00000 
 1.20866e-03 -2.03638e-03        00000 
 9.63192e-04 -1.78375e-03        00000 
 7.72282e-04 -1.54045e-03        00000 
 6.30389e-04 -1.31189e-03        00000 
 5.30920e-04 -1.10176e-03        00000 
 4.66833e-04 -9.12406e-04        00000 
 4.30999e-04 -7.45145e-04        00000 
 4.16359e-04 -6.00583e-04        00000 
 4.15932e-04 -4.78832e-04        00000 
 4.22735e-04 -3.79644e-04        00000 
 4.29684e-04 -3.02432e-04        00000 
 4.29508e-04 -2.46232e-04        00000 
 4.14718e-04 -2.09595e-04        00000 
 3.77639e-04 -1.90454e-04        00000 
 3.10521e-04 -1.85975e-04        00000 
 2.05704e-04 -1.92421e-04        00000 
 5.58698e-05 -2.05036e-04        00000 
-1.45738e-04 -2.18006e-04        00000 
 7.00988e-03 -2.72524e-03        00000 
 6.94094e-03 -3.05814e-03        00000 
 6.61509e-03 -3.33265e-03        00000 
 6.09208e-03 -3.52198e-03        00000 
 5.43787e-03 -3.60853e-03        00000 
 4.71368e-03 -3.59506e-03        00000 
 3.97159e-03 -3.48593e-03        00000 
 3.25362e-03 -3.29832e-03        00000 
 2.58892e-03 -3.04621e-03        00000 
 1.99897e-03 -2.74933e-03        00000 
 1.49473e-03 -2.42426e-03        00000 
 1.08124e-03 -2.08811e-03        00000 
 7.56268e-04 -1.75480e-03        00000 
 5.13359e-04 -1.43539e-03        00000 
 3.42896e-04 -1.13755e-03        00000 
 2.33878e-04 -8.65780e-04        00000 
 1.75305e-04 -6.22139e-04        00000 