<?xml version="1.0" encoding="utf-8"?>
<VTKFile byte_order="LittleEndian" type="UnstructuredGrid" version="0.1">
   <UnstructuredGrid>
      <Piece NumberOfCells="3364" NumberOfPoints="1741">
         <Points>
            <DataArray Name="Points" NumberOfComponents="3" format="ascii" type="Float32">
0.0000 1.0000 0.0000
0.0000 1.0345 0.0000
0.0000 1.0690 0.0000
0.0000 1.1034 0.0000
0.0000 1.1379 0.0000
0.0000 1.1724 0.0000
0.0000 1.2069 0.0000
0.0000 1.2414 0.0000
0.0000 1.2759 0.0000
0.0000 1.3103 0.0000
0.0000 1.3448 0.0000
0.0000 1.3793 0.0000
0.0000 1.4138 0.0000
0.0000 1.4483 0.0000
0.0000 1.4828 0.0000
0.0000 1.5172 0.0000
0.0000 1.5517 0.0000
0.0000 1.5862 0.0000
0.0000 1.6207 0.0000
0.0000 1.6552 0.0000
0.0000 1.6897 0.0000
0.0000 1.7241 0.0000
0.0000 1.7586 0.0000
0.0000 1.7931 0.0000
0.0000 1.8276 0.0000
0.0000 1.8621 0.0000
0.0000 1.8966 0.0000
0.0000 1.9310 0.0000
0.0000 1.9655 0.0000
0.0000 2.0000 0.0000
0.0690 1.0000 0.0000
0.0690 1.0345 0.0000
0.0690 1.0690 0.0000
0.0690 1.1034 0.0000
0.0690 1.1379 0.0000
0.0690 1.1724 0.0000
0.0690 1.2069 0.0000
0.0690 1.2414 0.0000
0.0690 1.2759 0.0000
0.0690 1.3103 0.0000
0.0690 1.3448 0.0000
0.0690 1.3793 0.0000
0.0690 1.4138 0.0000
0.0690 1.4483 0.0000
0.0690 1.4828 0.0000
0.0690 1.5172 0.0000
0.0690 1.5517 0.0000
0.0690 1.5862 0.0000
0.0690 1.6207 0.0000
0.0690 1.6552 0.0000
0.0690 1.6897 0.0000
0.0690 1.7241 0.0000
0.0690 1.7586 0.0000
0.0690 1.7931 0.0000
0.0690 1.8276 0.0000
0.0690 1.8621 0.0000
0.0690 1.8966 0.0000
0.0690 1.9310 0.0000
0.0690 1.9655 0.0000
0.0690 2.0000 0.0000
0.1379 1.0000 0.0000
0.1379 1.0345 0.0000
0.1379 1.0690 0.0000
0.1379 1.1034 0.0000
0.1379 1.1379 0.0000
0.1379 1.1724 0.0000
0.1379 1.2069 0.0000
0.1379 1.2414 0.0000
0.1379 1.2759 0.0000
0.1379 1.3103 0.0000
0.1379 1.3448 0.0000
0.1379 1.3793 0.0000
0.1379 1.4138 0.0000
0.1379 1.4483 0.0000
0.1379 1.4828 0.0000
0.1379 1.5172 0.0000
0.1379 1.5517 0.0000
0.1379 1.5862 0.0000
0.1379 1.6207 0.0000
0.1379 1.6552 0.0000
0.1379 1.6897 0.0000
0.1379 1.7241 0.0000
0.1379 1.7586 0.0000
0.1379 1.7931 0.0000
0.1379 1.8276 0.0000
0.1379 1.8621 0.0000
0.1379 1.8966 0.0000
0.1379 1.9310 0.0000
0.1379 1.9655 0.0000
0.1379 2.0000 0.0000
0.2069 1.0000 0.0000
0.2069 1.0345 0.0000
0.2069 1.0690 0.0000
0.2069 1.1034 0.0000
0.2069 1.1379 0.0000
0.2069 1.1724 0.0000
0.2069 1.2069 0.0000
0.2069 1.2414 0.0000
0.2069 1.2759 0.0000
0.2069 1.3103 0.0000
0.2069 1.3448 0.0000
0.2069 1.3793 0.0000
0.2069 1.4138 0.0000
0.2069 1.4483 0.0000
0.2069 1.4828 0.0000
0.2069 1.5172 0.0000
0.2069 1.5517 0.0000
0.2069 1.5862 0.0000
0.2069 1.6207 0.0000
0.2069 1.6552 0.0000
0.2069 1.6897 0.0000
0.2069 1.7241 0.0000
0.2069 1.7586 0.0000
0.2069 1.7931 0.0000
0.2069 1.8276 0.0000
0.2069 1.8621 0.0000
0.2069 1.8966 0.0000
0.2069 1.9310 0.0000
0.2069 1.9655 0.0000
0.2069 2.0000 0.0000
0.2759 1.0000 0.0000
0.2759 1.0345 0.0000
0.2759 1.0690 0.0000
0.2759 1.1034 0.0000
0.2759 1.1379 0.0000
0.2759 1.1724 0.0000
0.2759 1.2069 0.0000
0.2759 1.2414 0.0000
0.2759 1.2759 0.0000
0.2759 1.3103 0.0000
0.2759 1.3448 0.0000
0.2759 1.3793 0.0000
0.2759 1.4138 0.0000
0.2759 1.4483 0.0000
0.2759 1.4828 0.0000
0.2759 1.5172 0.0000
0.2759 1.5517 0.0000
0.2759 1.5862 0.0000
0.2759 1.6207 0.0000
0.2759 1.6552 0.0000
0.2759 1.6897 0.0000
0.2759 1.7241 0.0000
0.2759 1.7586 0.0000
0.2759 1.7931 0.0000
0.2759 1.8276 0.0000
0.2759 1.8621 0.0000
0.2759 1.8966 0.0000
0.2759 1.9310 0.0000
0.2759 1.9655 0.0000
0.2759 2.0000 0.0000
0.3448 1.0000 0.0000
0.3448 1.0345 0.0000
0.3448 1.0690 0.0000
0.3448 1.1034 0.0000
0.3448 1.1379 0.0000
0.3448 1.1724 0.0000
0.3448 1.2069 0.0000
0.3448 1.2414 0.0000
0.3448 1.2759 0.0000
0.3448 1.3103 0.0000
0.3448 1.3448 0.0000
0.3448 1.3793 0.0000
0.3448 1.4138 0.0000
0.3448 1.4483 0.0000
0.3448 1.4828 0.0000
0.3448 1.5172 0.0000
0.3448 1.5517 0.0000
0.3448 1.5862 0.0000
0.3448 1.6207 0.0000
0.3448 1.6552 0.0000
0.3448 1.6897 0.0000
0.3448 1.7241 0.0000
0.3448 1.7586 0.0000
0.3448 1.7931 0.0000
0.3448 1.8276 0.0000
0.3448 1.8621 0.0000
0.3448 1.8966 0.0000
0.3448 1.9310 0.0000
0.3448 1.9655 0.0000
0.3448 2.0000 0.0000
0.4138 1.0000 0.0000
0.4138 1.0345 0.0000
0.4138 1.0690 0.0000
0.4138 1.1034 0.0000
0.4138 1.1379 0.0000
0.4138 1.1724 0.0000
0.4138 1.2069 0.0000
0.4138 1.2414 0.0000
0.4138 1.2759 0.0000
0.4138 1.3103 0.0000
0.4138 1.3448 0.0000
0.4138 1.3793 0.0000
0.4138 1.4138 0.0000
0.4138 1.4483 0.0000
0.4138 1.4828 0.0000
0.4138 1.5172 0.0000
0.4138 1.5517 0.0000
0.4138 1.5862 0.0000
0.4138 1.6207 0.0000
0.4138 1.6552 0.0000
0.4138 1.6897 0.0000
0.4138 1.7241 0.0000
0.4138 1.7586 0.0000
0.4138 1.7931 0.0000
0.4138 1.8276 0.0000
0.4138 1.8621 0.0000
0.4138 1.8966 0.0000
0.4138 1.9310 0.0000
0.4138 1.9655 0.0000
0.4138 2.0000 0.0000
0.4828 1.0000 0.0000
0.4828 1.0345 0.0000
0.4828 1.0690 0.0000
0.4828 1.1034 0.0000
0.4828 1.1379 0.0000
0.4828 1.1724 0.0000
0.4828 1.2069 0.0000
0.4828 1.2414 0.0000
0.4828 1.2759 0.0000
0.4828 1.3103 0.0000
0.4828 1.3448 0.0000
0.4828 1.3793 0.0000
0.4828 1.4138 0.0000
0.4828 1.4483 0.0000
0.4828 1.4828 0.0000
0.4828 1.5172 0.0000
0.4828 1.5517 0.0000
0.4828 1.5862 0.0000
0.4828 1.6207 0.0000
0.4828 1.6552 0.0000
0.4828 1.6897 0.0000
0.4828 1.7241 0.0000
0.4828 1.7586 0.0000
0.4828 1.7931 0.0000
0.4828 1.8276 0.0000
0.4828 1.8621 0.0000
0.4828 1.8966 0.0000
0.4828 1.9310 0.0000
0.4828 1.9655 0.0000
0.4828 2.0000 0.0000
0.5517 1.0000 0.0000
0.5517 1.0345 0.0000
0.5517 1.0690 0.0000
0.5517 1.1034 0.0000
0.5517 1.1379 0.0000
0.5517 1.1724 0.0000
0.5517 1.2069 0.0000
0.5517 1.2414 0.0000
0.5517 1.2759 0.0000
0.5517 1.3103 0.0000
0.5517 1.3448 0.0000
0.5517 1.3793 0.0000
0.5517 1.4138 0.0000
0.5517 1.4483 0.0000
0.5517 1.4828 0.0000
0.5517 1.5172 0.0000
0.5517 1.5517 0.0000
0.5517 1.5862 0.0000
0.5517 1.6207 0.0000
0.5517 1.6552 0.0000
0.5517 1.6897 0.0000
0.5517 1.7241 0.0000
0.5517 1.7586 0.0000
0.5517 1.7931 0.0000
0.5517 1.8276 0.0000
0.5517 1.8621 0.0000
0.5517 1.8966 0.0000
0.5517 1.9310 0.0000
0.5517 1.9655 0.0000
0.5517 2.0000 0.0000
0.6207 1.0000 0.0000
0.6207 1.0345 0.0000
0.6207 1.0690 0.0000
0.6207 1.1034 0.0000
0.6207 1.1379 0.0000
0.6207 1.1724 0.0000
0.6207 1.2069 0.0000
0.6207 1.2414 0.0000
0.6207 1.2759 0.0000
0.6207 1.3103 0.0000
0.6207 1.3448 0.0000
0.6207 1.3793 0.0000
0.6207 1.4138 0.0000
0.6207 1.4483 0.0000
0.6207 1.4828 0.0000
0.6207 1.5172 0.0000
0.6207 1.5517 0.0000
0.6207 1.5862 0.0000
0.6207 1.6207 0.0000
0.6207 1.6552 0.0000
0.6207 1.6897 0.0000
0.6207 1.7241 0.0000
0.6207 1.7586 0.0000
0.6207 1.7931 0.0000
0.6207 1.8276 0.0000
0.6207 1.8621 0.0000
0.6207 1.8966 0.0000
0.6207 1.9310 0.0000
0.6207 1.9655 0.0000
0.6207 2.0000 0.0000
0.6897 1.0000 0.0000
0.6897 1.0345 0.0000
0.6897 1.0690 0.0000
0.6897 1.1034 0.0000
0.6897 1.1379 0.0000
0.6897 1.1724 0.0000
0.6897 1.2069 0.0000
0.6897 1.2414 0.0000
0.6897 1.2759 0.0000
0.6897 1.3103 0.0000
0.6897 1.3448 0.0000
0.6897 1.3793 0.0000
0.6897 1.4138 0.0000
0.6897 1.4483 0.0000
0.6897 1.4828 0.0000
0.6897 1.5172 0.0000
0.6897 1.5517 0.0000
0.6897 1.5862 0.0000
0.6897 1.6207 0.0000
0.6897 1.6552 0.0000
0.6897 1.6897 0.0000
0.6897 1.7241 0.0000
0.6897 1.7586 0.0000
0.6897 1.7931 0.0000
0.6897 1.8276 0.0000
0.6897 1.8621 0.0000
0.6897 1.8966 0.0000
0.6897 1.9310 0.0000
0.6897 1.9655 0.0000
0.6897 2.0000 0.0000
0.7586 1.0000 0.0000
0.7586 1.0345 0.0000
0.7586 1.0690 0.0000
0.7586 1.1034 0.0000
0.7586 1.1379 0.0000
0.7586 1.1724 0.0000
0.7586 1.2069 0.0000
0.7586 1.2414 0.0000
0.7586 1.2759 0.0000
0.7586 1.3103 0.0000
0.7586 1.3448 0.0000
0.7586 1.3793 0.0000
0.7586 1.4138 0.0000
0.7586 1.4483 0.0000
0.7586 1.4828 0.0000
0.7586 1.5172 0.0000
0.7586 1.5517 0.0000
0.7586 1.5862 0.0000
0.7586 1.6207 0.0000
0.7586 1.6552 0.0000
0.7586 1.6897 0.0000
0.7586 1.7241 0.0000
0.7586 1.7586 0.0000
0.7586 1.7931 0.0000
0.7586 1.8276 0.0000
0.7586 1.8621 0.0000
0.7586 1.8966 0.0000
0.7586 1.9310 0.0000
0.7586 1.9655 0.0000
0.7586 2.0000 0.0000
0.8276 1.0000 0.0000
0.8276 1.0345 0.0000
0.8276 1.0690 0.0000
0.8276 1.1034 0.0000
0.8276 1.1379 0.0000
0.8276 1.1724 0.0000
0.8276 1.2069 0.0000
0.8276 1.2414 0.0000
0.8276 1.2759 0.0000
0.8276 1.3103 0.0000
0.8276 1.3448 0.0000
0.8276 1.3793 0.0000
0.8276 1.4138 0.0000
0.8276 1.4483 0.0000
0.8276 1.4828 0.0000
0.8276 1.5172 0.0000
0.8276 1.5517 0.0000
0.8276 1.5862 0.0000
0.8276 1.6207 0.0000
0.8276 1.6552 0.0000
0.8276 1.6897 0.0000
0.8276 1.7241 0.0000
0.8276 1.7586 0.0000
0.8276 1.7931 0.0000
0.8276 1.8276 0.0000
0.8276 1.8621 0.0000
0.8276 1.8966 0.0000
0.8276 1.9310 0.0000
0.8276 1.9655 0.0000
0.8276 2.0000 0.0000
0.8966 1.0000 0.0000
0.8966 1.0345 0.0000
0.8966 1.0690 0.0000
0.8966 1.1034 0.0000
0.8966 1.1379 0.0000
0.8966 1.1724 0.0000
0.8966 1.2069 0.0000
0.8966 1.2414 0.0000
0.8966 1.2759 0.0000
0.8966 1.3103 0.0000
0.8966 1.3448 0.0000
0.8966 1.3793 0.0000
0.8966 1.4138 0.0000
0.8966 1.4483 0.0000
0.8966 1.4828 0.0000
0.8966 1.5172 0.0000
0.8966 1.5517 0.0000
0.8966 1.5862 0.0000
0.8966 1.6207 0.0000
0.8966 1.6552 0.0000
0.8966 1.6897 0.0000
0.8966 1.7241 0.0000
0.8966 1.7586 0.0000
0.8966 1.7931 0.0000
0.8966 1.8276 0.0000
0.8966 1.8621 0.0000
0.8966 1.8966 0.0000
0.8966 1.9310 0.0000
0.8966 1.9655 0.0000
0.8966 2.0000 0.0000
0.9655 1.0000 0.0000
0.9655 1.0345 0.0000
0.9655 1.0690 0.0000
0.9655 1.1034 0.0000
0.9655 1.1379 0.0000
0.9655 1.1724 0.0000
0.9655 1.2069 0.0000
0.9655 1.2414 0.0000
0.9655 1.2759 0.0000
0.9655 1.3103 0.0000
0.9655 1.3448 0.0000
0.9655 1.3793 0.0000
0.9655 1.4138 0.0000
0.9655 1.4483 0.0000
0.9655 1.4828 0.0000
0.9655 1.5172 0.0000
0.9655 1.5517 0.0000
0.9655 1.5862 0.0000
0.9655 1.6207 0.0000
0.9655 1.6552 0.0000
0.9655 1.6897 0.0000
0.9655 1.7241 0.0000
0.9655 1.7586 0.0000
0.9655 1.7931 0.0000
0.9655 1.8276 0.0000
0.9655 1.8621 0.0000
0.9655 1.8966 0.0000
0.9655 1.9310 0.0000
0.9655 1.9655 0.0000
0.9655 2.0000 0.0000
1.0345 1.0000 0.0000
1.0345 1.0345 0.0000
1.0345 1.0690 0.0000
1.0345 1.1034 0.0000
1.0345 1.1379 0.0000
1.0345 1.1724 0.0000
1.0345 1.2069 0.0000
1.0345 1.2414 0.0000
1.0345 1.2759 0.0000
1.0345 1.3103 0.0000
1.0345 1.3448 0.0000
[...]
         <PointData>
            <DataArray Name="fValues" NumberOfComponents="3" format="ascii" type="Float64">
-1.90119e-22  8.84776e-22        00000 
-1.79669e-22 -7.18676e-22        00000 
-1.42136e-21 -4.97477e-21        00000 
-1.42867e-20 -9.64353e-21        00000 
-2.84273e-20 -9.09672e-20        00000 
-1.02218e-19 -1.96884e-20        00000 
-2.27418e-20 -2.84273e-19        00000 
 3.35738e-20 -1.95549e-19        00000 
-5.68545e-20  9.66527e-20        00000 
 1.86398e-19 -1.25460e-21        00000 
-5.68545e-20  2.84273e-21        00000 
 3.89313e-20  1.39385e-19        00000 
-1.70564e-20 -7.10681e-21        00000 
-1.15650e-20  1.34254e-19        00000 
-2.55845e-20  1.70564e-20        00000 
 2.50017e-21  3.48238e-21        00000 
-2.01822e-21  1.77670e-22        00000 
 1.08355e-22 -8.22297e-22        00000 
 6.94025e-23 -3.55341e-22        00000 
 3.33973e-23  7.22009e-23        00000 
 3.05371e-23  1.52685e-23        00000 
 4.56258e-24  2.50277e-23        00000 
 6.24622e-24 -7.63427e-24        00000 
 5.23195e-25  1.39519e-24        00000 
-4.33765e-26  2.43993e-25        00000 
-2.35023e-25  4.61843e-25        00000 
 3.25324e-26  6.23538e-26        00000 
-2.32055e-26 -9.89645e-27        00000 
 1.14552e-27 -6.70755e-27        00000 
 4.64487e-27  6.15984e-27        00000 
 3.91466e-06  4.89477e-06        00000 
-4.61345e-06  9.81686e-06        00000 
-2.06112e-05  2.28584e-05        00000 
-7.29576e-05  3.24748e-05        00000 
-2.01245e-04 -1.26111e-05        00000 
-4.10500e-04 -2.16359e-04        00000 
-5.34324e-04 -6.20155e-04        00000 
-2.16683e-04 -9.78133e-04        00000 
 5.75079e-04 -8.42148e-04        00000 
 1.06436e-03 -1.44794e-04        00000 
 6.40699e-04  5.78472e-04        00000 
-1.04537e-04  7.76121e-04        00000 
-4.15210e-04  4.93062e-04        00000 
-3.16488e-04  1.54310e-04        00000 
-1.42923e-04 -7.78433e-06        00000 
-4.37922e-05 -3.39445e-05        00000 
-8.48301e-06 -1.93924e-05        00000 
 2.38671e-07 -6.81545e-06        00000 
 1.12554e-06 -1.52021e-06        00000 
 6.40925e-07 -7.13029e-08        00000 
 2.51896e-07  1.30853e-07        00000 
 7.64063e-08  8.30566e-08        00000 
 1.64213e-08  3.36967e-08        00000 
 8.49189e-10  1.05006e-08        00000 
-1.46783e-09  2.40834e-09        00000 
-1.00617e-09  2.26989e-10        00000 
-4.40904e-10 -1.48749e-10        00000 
-1.50430e-10 -1.18991e-10        00000 
-4.28052e-11 -5.69443e-11        00000 
 5.54335e-12 -3.10070e-11        00000 
-2.99196e-06 -8.66693e-06        00000 
 2.17297e-06 -1.83175e-05        00000 
 1.26600e-05 -4.63180e-05        00000 
 5.30171e-05 -8.63401e-05        00000 
 1.76596e-04 -6.28511e-05        00000 
 4.96718e-04  2.79248e-04        00000 
 9.15737e-04  1.23849e-03        00000 
 7.30785e-04  2.41455e-03        00000 
-6.71384e-04  2.33767e-03        00000 
-1.68096e-03  3.15524e-04        00000 
-7.55234e-04 -1.76729e-03        00000 
 5.69049e-04 -1.99008e-03        00000 
 7.47746e-04 -9.86542e-04        00000 
 3.73887e-04 -1.69589e-04        00000 
 1.08538e-04  8.92069e-05        00000 
 2.34443e-05  8.07420e-05        00000 
 2.19664e-06  3.61661e-05        00000 
-9.45812e-07  1.10531e-05        00000 
-8.00075e-07  2.10609e-06        00000 
-3.90814e-07 -6.25250e-08        00000 
-1.51992e-07 -2.79513e-07        00000 
-4.77278e-08 -1.57838e-07        00000 
-1.08343e-08 -6.16681e-08        00000 
-7.05181e-10 -1.86149e-08        00000 
 9.38422e-10 -3.98622e-09        00000 
 6.71754e-10 -2.04887e-10        00000 
 2.98458e-10  3.55213e-10        00000 
 1.02198e-10  2.42623e-10        00000 
 2.82706e-11  1.09803e-10        00000 
-3.48049e-12  5.78728e-11        00000 
 9.25692e-07  9.53959e-06        00000 
 7.54995e-07  2.05770e-05        00000 
 9.28238e-07  5.55054e-05        00000 
-5.85170e-06  1.25557e-04        00000 
-7.14621e-05  1.87293e-04        00000 
-3.19434e-04 -4.54550e-05        00000 
-1.34487e-03 -1.57142e-03        00000 
-2.06704e-03 -4.66870e-03        00000 
-2.76561e-04 -5.77505e-03        00000 
 1.78630e-03 -5.24653e-04        00000 
-2.23239e-04  4.80947e-03        00000 
-1.85350e-03  3.99054e-03        00000 
-1.12647e-03  1.20290e-03        00000 
-1.80067e-04 -8.92570e-05        00000 
-8.75626e-06 -2.02373e-04        00000 
 1.29412e-05 -1.06276e-04        00000 
 5.01018e-06 -3.84230e-05        00000 
 9.72517e-07 -1.05030e-05        00000 
-2.09591e-08 -1.82190e-06        00000 
-8.61134e-08  1.43634e-07        00000 
-3.48549e-08  3.09121e-07        00000 
-8.19032e-09  1.72932e-07        00000 
-8.97095e-10  6.86990e-08        00000 
 2.16767e-10  2.11019e-08        00000 
 1.65186e-10  4.56355e-09        00000 
 6.29344e-11  2.22056e-10        00000 
 1.95474e-11 -4.20780e-10        00000 
 5.62869e-12 -2.84513e-10        00000 
 1.54923e-12 -1.27635e-10        00000 
-2.37449e-14 -6.66399e-11        00000 
 1.29223e-06 -8.35422e-06        00000 
-2.58570e-06 -1.78000e-05        00000 
-1.14456e-05 -4.97462e-05        00000 
-3.37891e-05 -1.29365e-04        00000 
-7.47020e-05 -2.83982e-04        00000 
 3.03977e-05 -3.83351e-04        00000 
 2.79360e-04  6.02470e-04        00000 
 5.93607e-03  7.99262e-03        00000 
 5.68112e-03  1.59717e-02        00000 
 5.97711e-03  7.47109e-04        00000 
 5.91638e-03 -1.42916e-02        00000 
 5.70408e-03 -7.01983e-03        00000 
 4.91034e-05 -1.44693e-04        00000 
-1.14568e-04  4.97969e-04        00000 
-1.03355e-04  2.55495e-04        00000 
-3.46083e-05  9.05506e-05        00000 
-7.63699e-06  2.72060e-05        00000 
-1.91209e-07  6.95582e-06        00000 
 7.75900e-07  1.20974e-06        00000 
 4.79413e-07 -1.02570e-07        00000 
 1.92649e-07 -2.27510e-07        00000 
 5.85910e-08 -1.33624e-07        00000 
 1.24687e-08 -5.54686e-08        00000 
 5.95890e-10 -1.77301e-08        00000 
-1.12209e-09 -4.02358e-09        00000 
-7.55655e-10 -2.73333e-10        00000 
-3.27770e-10  3.28339e-10        00000 
-1.11204e-10  2.33938e-10        00000 
-3.08055e-11  1.06614e-10        00000 
 3.47505e-12  5.61547e-11        00000 
-2.90823e-06  5.95876e-06        00000 
 3.40860e-06  1.22983e-05        00000 
 1.60688e-05  3.49188e-05        00000 
 5.75258e-05  9.73110e-05        00000 
 1.57618e-04  2.52990e-04        00000 
 4.46052e-04  5.65033e-04        00000 
 2.36823e-04  6.44219e-04        00000 
 3.44085e-03 -3.92620e-03        00000 
-5.68386e-02 -4.84773e-02        00000 
-4.34259e-02 -5.19258e-04        00000 
-5.84199e-02  4.44471e-02        00000 
 2.88549e-03  2.58753e-03        00000 
 5.60219e-04 -1.30249e-03        00000 
 3.89099e-04 -5.44348e-04        00000 
 1.20791e-04 -1.59499e-04        00000 
 3.29159e-05 -4.13523e-05        00000 
 5.64103e-06 -1.07991e-05        00000 
-4.17430e-07 -2.68328e-06        00000 
-9.83101e-07 -4.75633e-07        00000 
-5.69624e-07  5.04134e-08        00000 
-2.34213e-07  1.04518e-07        00000 
-7.45406e-08  6.31314e-08        00000 
-1.69585e-08  2.68945e-08        00000 
-1.20846e-09  8.78305e-09        00000 
 1.35166e-09  2.03555e-09        00000 
 9.79050e-10  1.51058e-10        00000 
 4.35794e-10 -1.60167e-10        00000 
 1.49580e-10 -1.16283e-10        00000 
 4.25598e-11 -5.23888e-11        00000 
-5.26856e-12 -2.74831e-11        00000 
 3.31646e-06 -2.58617e-06        00000 
-3.34868e-06 -5.15135e-06        00000 
-1.49259e-05 -1.64386e-05        00000 
-5.49140e-05 -4.87761e-05        00000 
-1.82564e-04 -1.23117e-04        00000 
-4.74597e-04 -2.27839e-04        00000 
-1.60445e-03  3.69919e-05        00000 
 1.59132e-03 -6.08094e-06        00000 
-2.86881e-02  6.30645e-03        00000 
 8.62895e-01 -6.57278e-03        00000 
-1.07788e-02  1.20866e-02        00000 
 2.49362e-05  4.65336e-03        00000 
 6.87538e-06  1.23983e-03        00000 
 4.66029e-06  2.91592e-04        00000 
 1.48521e-06  5.79837e-05        00000 
 4.07804e-07  6.01796e-06        00000 
 7.17524e-08 -2.95985e-06        00000 
-4.13723e-09 -2.74614e-06        00000 
-1.17244e-08 -1.42870e-06        00000 
-6.89460e-09 -5.69114e-07        00000 
-2.85571e-09 -1.78319e-07        00000 
-9.15330e-10 -3.93424e-08        00000 
-2.10884e-10 -1.88866e-09        00000 
-1.65023e-11  3.78711e-09        00000 
 1.58950e-11  2.57496e-09        00000 
 1.17952e-11  1.11555e-09        00000 
 5.29847e-12  3.67548e-10        00000 
 1.83191e-12  8.68844e-11        00000 
 5.21356e-13  3.34292e-12        00000 
-9.76463e-13 -9.20725e-12        00000 
 2.46013e-07 -1.97810e-06        00000 
-4.07634e-08 -2.83787e-06        00000 
-1.85153e-07  2.73851e-06        00000 
-6.78220e-07  2.80249e-05        00000 
-2.23236e-06  1.23981e-04        00000 
-5.85238e-06  4.37354e-04        00000 
-1.86740e-05  1.30667e-03        00000 
 1.55633e-05  3.00151e-03        00000 
-2.09336e-04  5.44210e-03        00000 
 1.00881e-02  7.77191e-18        00000 
 2.56069e-17 -2.46762e-18        00000 
-3.57273e-18  7.32637e-19        00000 
 7.18643e-19 -1.59441e-19        00000 
-1.21723e-19  5.47588e-20        00000 
 2.01365e-20 -4.87697e-21        00000 
-3.13980e-21  7.90415e-22        00000 
 4.07416e-22 -8.85206e-22        00000 
-8.92891e-23  5.00094e-22        00000 
 1.64657e-23 -1.59873e-22        00000 
-1.46768e-24  2.61138e-23        00000 
-5.71529e-25 -2.03962e-23        00000 
-2.12447e-25  4.52254e-24        00000 
 1.26722e-25  2.56075e-25        00000 
 4.50396e-26 -9.93794e-26        00000 
-9.69556e-28 -3.87822e-27        00000 
 3.11214e-28  4.89587e-26        00000 
-3.10620e-27 -2.33587e-26        00000 
 3.43881e-28  6.22882e-27        00000 
-6.93642e-28 -5.42863e-28        00000 
 4.55369e-28  8.47198e-29        00000 
-5.93606e-23 -2.30239e-22        00000 
 4.37667e-23  4.40104e-22        00000 
-2.09097e-22 -9.72831e-22        00000 
 1.64349e-21  3.59261e-21        00000 
-8.49253e-21  3.35048e-21        00000 
 4.85601e-20  6.93989e-21        00000 
-2.75418e-19  1.63013e-19        00000 
 1.25330e-18 -3.59612e-19        00000 
-3.31466e-18  7.88997e-19        00000 
 4.50777e-18 -9.54439e-19        00000 
-4.60234e-18  5.89531e-19        00000 
 1.60867e-18 -2.06160e-19        00000 
-3.38718e-19  5.68392e-20        00000 
 6.60747e-20 -1.42467e-20        00000 
-1.20940e-20  3.36976e-21        00000 
 2.12215e-21 -7.14563e-22        00000 
-3.52581e-22  1.72412e-22        00000 
 5.61262e-23 -7.78208e-23        00000 
-1.12214e-23  3.19662e-23        00000 
 1.87156e-24 -1.14755e-23        00000 
-2.21080e-25  3.39261e-24        00000 
 3.89571e-26 -1.54098e-24        00000 
-1.99286e-26  1.18682e-25        00000 
 2.10695e-26 -4.41678e-26        00000 
-5.26561e-28  8.44523e-27        00000 
-1.19109e-28 -5.67208e-27        00000 
 2.64561e-28  4.31148e-27        00000 
-2.02343e-28 -2.02961e-27        00000 
 1.03631e-28  4.79862e-28        00000 
-9.84825e-29 -1.28062e-28        00000 
 1.30767e-23  6.44617e-23        00000 
-2.89929e-23 -9.83241e-23        00000 
 1.56868e-22  2.31254e-22        00000 
-8.39205e-22 -1.36989e-22        00000 
 4.32618e-21 -4.43141e-22        00000 
-2.17079e-20  8.09166e-21        00000 
 9.05031e-20 -3.09340e-20        00000 
-2.68912e-19  7.19779e-20        00000 
 5.22520e-19 -1.16450e-19        00000 
-7.01593e-19  1.35451e-19        00000 
 6.35574e-19 -9.88156e-20        00000 
-3.53979e-19  4.74000e-20        00000 
 1.15807e-19 -1.63037e-20        00000 
-2.76468e-20  4.66624e-21        00000 
 5.85162e-21 -1.20747e-21        00000 
-1.14978e-21  2.90668e-22        00000 
 2.14211e-22 -6.85000e-23        00000 
-3.81704e-23  1.97417e-23        00000 
 6.73316e-24 -7.48673e-24        00000 
-1.23460e-24  2.81744e-24        00000 
 2.10873e-25 -9.77939e-25        00000 
-3.35936e-26  3.28161e-25        00000 
 7.37521e-27 -9.49618e-26        00000 
-3.04623e-27  1.63798e-26        00000 
 6.93739e-28 -4.71002e-27        00000 
-5.95130e-29  1.31374e-27        00000 
 2.63570e-29 -8.13008e-28        00000 
 9.55431e-30  4.73609e-28        00000 
-2.03846e-29 -1.56999e-28        00000 
 1.76479e-29  7.04142e-29        00000 
-6.01782e-24 -1.49718e-23        00000 
 1.59422e-23  2.05002e-23        00000 
-7.80191e-23 -2.23930e-23        00000 
 3.78487e-22 -3.91858e-23        00000 
-1.70804e-21  4.92142e-22        00000 
 6.90702e-21 -2.26867e-21        00000 
-2.16098e-20  6.29919e-21        00000 
 5.00175e-20 -1.24486e-20        00000 
-8.51650e-20  1.81811e-20        00000 
 1.06726e-19 -2.02258e-20        00000 
-9.72534e-20  1.60436e-20        00000 
 6.25656e-20 -9.16169e-21        00000 
-2.78660e-20  3.90194e-21        00000 
 8.85672e-21 -1.32132e-21        00000 
-2.25188e-21  3.85502e-22        00000 
 5.06924e-22 -1.02185e-22        00000 
-1.05458e-22  2.55986e-23        00000 
 2.07291e-23 -6.59106e-24        00000 
-3.91200e-24  1.99415e-24        00000 
 7.24892e-25 -7.02145e-25        00000 
-1.33368e-25  2.50749e-25        00000 
 2.37644e-26 -8.57852e-26        00000 
-4.30473e-27  2.71422e-26        00000 
 9.68683e-28 -7.27080e-27        00000 
-3.20216e-28  2.14494e-27        00000 
 5.96806e-29 -4.94770e-28        00000 
-9.30646e-30  1.74367e-28        00000 
-7.36116e-32 -8.90926e-29        00000 
 2.43620e-30  4.22697e-29        00000 
-1.75223e-30 -2.16061e-29        00000 
 2.92935e-24  2.97697e-24        00000 
-7.36613e-24 -2.84185e-24        00000 
 3.27163e-23 -1.74693e-24        00000 
-1.40942e-22  3.27928e-23        00000 
 5.49470e-22 -1.52462e-22        00000 
-1.74861e-21  5.16853e-22        00000 
 4.46904e-21 -1.19334e-21        00000 
-8.91239e-21  2.10161e-21        00000 
 1.37974e-20 -2.86432e-21        00000 
-1.65682e-20  3.12336e-21        00000 
 1.52707e-20 -2.59453e-21        00000 
-1.06830e-20  1.65187e-21        00000 
 5.62134e-21 -8.18595e-22        00000 
-2.23900e-21  3.25556e-22        00000 
 7.00940e-22 -1.08776e-22        00000 
-1.84692e-22  3.20947e-23        00000 
 4.34939e-23 -8.71139e-24        00000 
-9.47367e-24  2.28004e-24        00000 
 1.94909e-24 -6.22833e-25        00000 
-3.84932e-25  1.91506e-25        00000 
 7.40650e-26 -6.48856e-26        00000 
-1.39794e-26  2.23492e-26        00000 
 2.59816e-27 -7.39603e-27        00000 
-5.00271e-28  2.26345e-27        00000 
 1.13145e-28 -6.53579e-28        00000 
-2.71787e-29  1.79989e-28        00000 
 5.38911e-30 -5.08979e-29        00000 
-7.37143e-31  1.94133e-29        00000 
-1.90296e-31 -9.18685e-30        00000 
 3.24991e-31  6.13296e-30        00000 
-1.30572e-24 -3.81865e-25        00000 
 3.01285e-24  1.40023e-25        00000 
-1.17076e-23  1.91542e-24        00000 
 4.25441e-23 -1.14218e-23        00000 
-1.42170e-22  3.69015e-23        00000 
 3.93676e-22 -1.04593e-22        00000 
-8.62791e-22  2.05530e-22        00000 
 1.54789e-21 -3.45264e-22        00000 
-2.24562e-21  4.56160e-22        00000 
 2.61261e-21 -4.91392e-22        00000 
-2.43289e-21  4.21033e-22        00000 
 1.80066e-21 -2.88384e-22        00000 
-1.05452e-21  1.59254e-22        00000 
 4.89456e-22 -7.20490e-23        00000 
-1.82707e-22  2.73984e-23        00000 
 5.66682e-23 -9.05588e-24        00000 
-1.52706e-23  2.69564e-24        00000 
 3.71864e-24 -7.49134e-25        00000 
-8.40526e-25  2.03845e-25        00000 
 1.79636e-25 -5.78903e-26        00000 
-3.68240e-26  1.79202e-26        00000 
 7.32358e-27 -5.92606e-27        00000 
-1.42436e-27  1.97961e-27        00000 
 2.74234e-28 -6.37938e-28        00000 
-4.98623e-29  1.93136e-28        00000 
 1.13387e-29 -5.62986e-29        00000 
-2.51198e-30  1.61492e-29        00000 
 4.80867e-31 -5.14285e-30        00000 
-4.56241e-32  2.14635e-30        00000 
-2.64749e-32 -1.46563e-30        00000 
 4.90240e-25  1.54917e-26        00000 
-1.03221e-24  1.14585e-25        00000 
 3.55396e-24 -8.07720e-25        00000 
-1.16763e-23  3.00763e-24        00000 
 3.34768e-23 -8.71182e-24        00000 
-8.02317e-23  1.99791e-23        00000 
 1.59902e-22 -3.72330e-23        00000 
-2.65544e-22  5.75736e-23        00000 
 3.66074e-22 -7.37530e-23        00000 
-4.17017e-22  7.83301e-23        00000 
 3.91474e-22 -6.86103e-23        00000 
-3.01822e-22  4.95358e-23        00000 
 1.90605e-22 -2.96333e-23        00000 
-9.86483e-23  1.48265e-23        00000 
 4.21240e-23 -6.29841e-24        00000 
-1.50821e-23  2.32044e-24        00000 
 4.64799e-24 -7.60799e-25        00000 
-1.27189e-24  2.28394e-25        00000 
 3.17740e-25 -6.48941e-26        00000 
-7.40064e-26  1.82286e-26        00000 
 1.63263e-26 -5.31450e-27        00000 
-3.45381e-27  1.64993e-27        00000 
 7.07582e-28 -5.35870e-28        00000 
-1.41461e-28  1.74710e-28        00000 
 2.77761e-29 -5.49695e-29        00000 
-5.45802e-30  1.67131e-29        00000 
 1.15197e-30 -4.94037e-30        00000 
-2.40243e-31  1.50245e-30        00000 
 4.34983e-32 -5.52003e-31        00000 
-9.89136e-33  3.54294e-31        00000 
-1.63833e-25  1.74149e-26        00000 
 3.16532e-25 -5.84211e-26        00000 
-9.77512e-25  2.36148e-25        00000 
 2.85027e-24 -7.28378e-25        00000 
-7.23032e-24  1.82096e-24        00000 
 1.56624e-23 -3.76917e-24        00000 
-2.88606e-23  6.55025e-24        00000 
 4.51712e-23 -9.63168e-24        00000 
-5.98733e-23  1.20587e-23        00000 
 6.71513e-23 -1.26256e-23        00000 
-6.34663e-23  1.12278e-23        00000 
 5.04716e-23 -8.43414e-24        00000 
-3.37222e-23  5.36410e-24        00000 
 1.89335e-23 -2.90534e-24        00000 
-8.96449e-24  1.35277e-24        00000 
 3.61061e-24 -5.48886e-25        00000 
-1.25595e-24  1.97550e-25        00000 
 3.85237e-25 -6.44160e-26        00000 
-1.06602e-25  1.95037e-26        00000 
 2.71688e-26 -5.65244e-27        00000 
-6.48535e-27  1.62820e-27        00000 
 1.46935e-27 -4.83406e-28        00000 
-3.19357e-28  1.50194e-28        00000 
 6.71655e-29 -4.80802e-29        00000 
-1.38014e-29  1.52189e-29        00000 
 2.77718e-30 -4.79330e-30        00000 
-5.61022e-31  1.46073e-30        00000 
 1.15788e-31 -4.44604e-31        00000 
-2.39250e-32  1.52684e-31        00000 
 8.40821e-33 -9.14532e-32        00000 
 4.95830e-26 -8.73473e-27        00000 
-8.85683e-26  1.91391e-26        00000 
 2.44873e-25 -6.02559e-26        00000 
-6.41994e-25  1.61237e-25        00000 
 1.47989e-24 -3.62841e-25        00000 
-2.96052e-24  6.94433e-25        00000 
 5.12144e-24 -1.13970e-24        00000 
-7.64708e-24  1.61270e-24        00000 
 9.84754e-24 -1.97088e-24        00000 
-1.08895e-23  2.05242e-24        00000 
 1.03492e-23 -1.84513e-24        00000 
-8.43350e-24  1.42903e-24        00000 
 5.88741e-24 -9.53756e-25        00000 
-3.52134e-24  5.50491e-25        00000 
 1.80824e-24 -2.76470e-25        00000 
-8.01273e-25  1.21912e-25        00000 
 3.09201e-25 -4.77775e-26        00000 
-1.05306e-25  1.68962e-26        00000 
 3.21835e-26 -5.49119e-27        00000 
-8.98189e-27  1.67662e-27        00000 
 2.32612e-27 -4.94284e-28        00000 
-5.66671e-28  1.45201e-28        00000 
 1.31321e-28 -4.36601e-29        00000 
-2.92181e-29  1.35584e-29        00000 
 6.27996e-30 -4.38388e-30        00000 
-1.31986e-30  1.35600e-30        00000 
 2.72312e-31 -4.21207e-31        00000 
-5.60025e-32  1.29993e-31        00000 
 1.18984e-32 -4.36114e-32        00000 
-4.57690e-33  2.50690e-32        00000 
-1.37854e-26  2.89623e-27        00000 
 2.28746e-26 -5.27571e-27        00000 
-5.70567e-26  1.40615e-26        00000 
 1.36513e-25 -3.39189e-26        00000 
-2.87838e-25  7.26864e-26        00000 
 5.46490e-25 -1.29448e-25        00000 
-8.95419e-25  1.97894e-25        00000 
 1.29282e-24 -2.70687e-25        00000 
-1.62293e-24  3.22938e-25        00000 
 1.77651e-24 -3.35316e-25        00000 
-1.69563e-24  3.04349e-25        00000 
 1.40922e-24 -2.41492e-25        00000 
-1.01898e-24  1.67549e-25        00000 
 6.41106e-25 -1.01855e-25        00000 
-3.51430e-25  5.44751e-26        00000 
 1.68378e-25 -2.57912e-26        00000 
-7.09210e-26  1.09012e-26        00000 