<?xml version="1.0" encoding="utf-8"?>
<VTKFile byte_order="LittleEndian" type="UnstructuredGrid" version="0.1">
   <UnstructuredGrid>
      <Piece NumberOfCells="3364" NumberOfPoints="1741">
         <Points>
            <DataArray Name="Points" NumberOfComponents="3" format="ascii" type="Float32">
0.0000 1.0000 0.0000
0.0000 1.0345 0.0000
0.0000 1.0690 0.0000
0.0000 1.1034 0.0000
0.0000 1.1379 0.0000
0.0000 1.1724 0.0000
0.0000 1.2069 0.0000
0.0000 1.2414 0.0000
0.0000 1.2759 0.0000
0.0000 1.3103 0.0000
0.0000 1.3448 0.0000
0.0000 1.3793 0.0000
0.0000 1.4138 0.0000
0.0000 1.4483 0.0000
0.0000 1.4828 0.0000
0.0000 1.5172 0.0000
0.0000 1.5517 0.0000
0.0000 1.5862 0.0000
0.0000 1.6207 0.0000
0.0000 1.6552 0.0000
0.0000 1.6897 0.0000
0.0000 1.7241 0.0000
0.0000 1.7586 0.0000
0.0000 1.7931 0.0000
0.0000 1.8276 0.0000
0.0000 1.8621 0.0000
0.0000 1.8966 0.0000
0.0000 1.9310 0.0000
0.0000 1.9655 0.0000
0.0000 2.0000 0.0000
0.0690 1.0000 0.0000
0.0690 1.0345 0.0000
0.0690 1.0690 0.0000
0.0690 1.1034 0.0000
0.0690 1.1379 0.0000
0.0690 1.1724 0.0000
0.0690 1.2069 0.0000
0.0690 1.2414 0.0000
0.0690 1.2759 0.0000
0.0690 1.3103 0.0000
0.0690 1.3448 0.0000
0.0690 1.3793 0.0000
0.0690 1.4138 0.0000
0.0690 1.4483 0.0000
0.0690 1.4828 0.0000
0.0690 1.5172 0.0000
0.0690 1.5517 0.0000
0.0690 1.5862 0.0000
0.0690 1.6207 0.0000
0.0690 1.6552 0.0000
0.0690 1.6897 0.0000
0.0690 1.7241 0.0000
0.0690 1.7586 0.0000
0.0690 1.7931 0.0000
0.0690 1.8276 0.0000
0.0690 1.8621 0.0000
0.0690 1.8966 0.0000
0.0690 1.9310 0.0000
0.0690 1.9655 0.0000
0.0690 2.0000 0.0000
0.1379 1.0000 0.0000
0.1379 1.0345 0.0000
0.1379 1.0690 0.0000
0.1379 1.1034 0.0000
0.1379 1.1379 0.0000
0.1379 1.1724 0.0000
0.1379 1.2069 0.0000
0.1379 1.2414 0.0000
0.1379 1.2759 0.0000
0.1379 1.3103 0.0000
0.1379 1.3448 0.0000
0.1379 1.3793 0.0000
0.1379 1.4138 0.0000
0.1379 1.4483 0.0000
0.1379 1.4828 0.0000
0.1379 1.5172 0.0000
0.1379 1.5517 0.0000
0.1379 1.5862 0.0000
0.1379 1.6207 0.0000
0.1379 1.6552 0.0000
0.1379 1.6897 0.0000
0.1379 1.7241 0.0000
0.1379 1.7586 0.0000
0.1379 1.7931 0.0000
0.1379 1.8276 0.0000
0.1379 1.8621 0.0000
0.1379 1.8966 0.0000
0.1379 1.9310 0.0000
0.1379 1.9655 0.0000
0.1379 2.0000 0.0000
0.2069 1.0000 0.0000
0.2069 1.0345 0.0000
0.2069 1.0690 0.0000
0.2069 1.1034 0.0000
0.2069 1.1379 0.0000
0.2069 1.1724 0.0000
0.2069 1.2069 0.0000
0.2069 1.2414 0.0000
0.2069 1.2759 0.0000
0.2069 1.3103 0.0000
0.2069 1.3448 0.0000
0.2069 1.3793 0.0000
0.2069 1.4138 0.0000
0.2069 1.4483 0.0000
0.2069 1.4828 0.0000
0.2069 1.5172 0.0000
0.2069 1.5517 0.0000
0.2069 1.5862 0.0000
0.2069 1.6207 0.0000
0.2069 1.6552 0.0000
0.2069 1.6897 0.0000
0.2069 1.7241 0.0000
0.2069 1.7586 0.0000
0.2069 1.7931 0.0000
0.2069 1.8276 0.0000
0.2069 1.8621 0.0000
0.2069 1.8966 0.0000
0.2069 1.9310 0.0000
0.2069 1.9655 0.0000
0.2069 2.0000 0.0000
0.2759 1.0000 0.0000
0.2759 1.0345 0.0000
0.2759 1.0690 0.0000
0.2759 1.1034 0.0000
0.2759 1.1379 0.0000
0.2759 1.1724 0.0000
0.2759 1.2069 0.0000
0.2759 1.2414 0.0000
0.2759 1.2759 0.0000
0.2759 1.3103 0.0000
0.2759 1.3448 0.0000
0.2759 1.3793 0.0000
0.2759 1.4138 0.0000
0.2759 1.4483 0.0000
0.2759 1.4828 0.0000
0.2759 1.5172 0.0000
0.2759 1.5517 0.0000
0.2759 1.5862 0.0000
0.2759 1.6207 0.0000
0.2759 1.6552 0.0000
0.2759 1.6897 0.0000
0.2759 1.7241 0.0000
0.2759 1.7586 0.0000
0.2759 1.7931 0.0000
0.2759 1.8276 0.0000
0.2759 1.8621 0.0000
0.2759 1.8966 0.0000
0.2759 1.9310 0.0000
0.2759 1.9655 0.0000
0.2759 2.0000 0.0000
0.3448 1.0000 0.0000
0.3448 1.0345 0.0000
0.3448 1.0690 0.0000
0.3448 1.1034 0.0000
0.3448 1.1379 0.0000
0.3448 1.1724 0.0000
0.3448 1.2069 0.0000
0.3448 1.2414 0.0000
0.3448 1.2759 0.0000
0.3448 1.3103 0.0000
0.3448 1.3448 0.0000
0.3448 1.3793 0.0000
0.3448 1.4138 0.0000
0.3448 1.4483 0.0000
0.3448 1.4828 0.0000
0.3448 1.5172 0.0000
0.3448 1.5517 0.0000
0.3448 1.5862 0.0000
0.3448 1.6207 0.0000
0.3448 1.6552 0.0000
0.3448 1.6897 0.0000
0.3448 1.7241 0.0000
0.3448 1.7586 0.0000
0.3448 1.7931 0.0000
0.3448 1.8276 0.0000
0.3448 1.8621 0.0000
0.3448 1.8966 0.0000
0.3448 1.9310 0.0000
0.3448 1.9655 0.0000
0.3448 2.0000 0.0000
0.4138 1.0000 0.0000
0.4138 1.0345 0.0000
0.4138 1.0690 0.0000
0.4138 1.1034 0.0000
0.4138 1.1379 0.0000
0.4138 1.1724 0.0000
0.4138 1.2069 0.0000
0.4138 1.2414 0.0000
0.4138 1.2759 0.0000
0.4138 1.3103 0.0000
0.4138 1.3448 0.0000
0.4138 1.3793 0.0000
0.4138 1.4138 0.0000
0.4138 1.4483 0.0000
0.4138 1.4828 0.0000
0.4138 1.5172 0.0000
0.4138 1.5517 0.0000
0.4138 1.5862 0.0000
0.4138 1.6207 0.0000
0.4138 1.6552 0.0000
0.4138 1.6897 0.0000
0.4138 1.7241 0.0000
0.4138 1.7586 0.0000
0.4138 1.7931 0.0000
0.4138 1.8276 0.0000
0.4138 1.8621 0.0000
0.4138 1.8966 0.0000
0.4138 1.9310 0.0000
0.4138 1.9655 0.0000
0.4138 2.0000 0.0000
0.4828 1.0000 0.0000
0.4828 1.0345 0.0000
0.4828 1.0690 0.0000
0.4828 1.1034 0.0000
0.4828 1.1379 0.0000
0.4828 1.1724 0.0000
0.4828 1.2069 0.0000
0.4828 1.2414 0.0000
0.4828 1.2759 0.0000
0.4828 1.3103 0.0000
0.4828 1.3448 0.0000
0.4828 1.3793 0.0000
0.4828 1.4138 0.0000
0.4828 1.4483 0.0000
0.4828 1.4828 0.0000
0.4828 1.5172 0.0000
0.4828 1.5517 0.0000
0.4828 1.5862 0.0000
0.4828 1.6207 0.0000
0.4828 1.6552 0.0000
0.4828 1.6897 0.0000
0.4828 1.7241 0.0000
0.4828 1.7586 0.0000
0.4828 1.7931 0.0000
0.4828 1.8276 0.0000
0.4828 1.8621 0.0000
0.4828 1.8966 0.0000
0.4828 1.9310 0.0000
0.4828 1.9655 0.0000
0.4828 2.0000 0.0000
0.5517 1.0000 0.0000
0.5517 1.0345 0.0000
0.5517 1.0690 0.0000
0.5517 1.1034 0.0000
0.5517 1.1379 0.0000
0.5517 1.1724 0.0000
0.5517 1.2069 0.0000
0.5517 1.2414 0.0000
0.5517 1.2759 0.0000
0.5517 1.3103 0.0000
0.5517 1.3448 0.0000
0.5517 1.3793 0.0000
0.5517 1.4138 0.0000
0.5517 1.4483 0.0000
0.5517 1.4828 0.0000
0.5517 1.5172 0.0000
0.5517 1.5517 0.0000
0.5517 1.5862 0.0000
0.5517 1.6207 0.0000
0.5517 1.6552 0.0000
0.5517 1.6897 0.0000
0.5517 1.7241 0.0000
0.5517 1.7586 0.0000
0.5517 1.7931 0.0000
0.5517 1.8276 0.0000
0.5517 1.8621 0.0000
0.5517 1.8966 0.0000
0.5517 1.9310 0.0000
0.5517 1.9655 0.0000
0.5517 2.0000 0.0000
0.6207 1.0000 0.0000
0.6207 1.0345 0.0000
0.6207 1.0690 0.0000
0.6207 1.1034 0.0000
0.6207 1.1379 0.0000
0.6207 1.1724 0.0000
0.6207 1.2069 0.0000
0.6207 1.2414 0.0000
0.6207 1.2759 0.0000
0.6207 1.3103 0.0000
0.6207 1.3448 0.0000
0.6207 1.3793 0.0000
0.6207 1.4138 0.0000
0.6207 1.4483 0.0000
0.6207 1.4828 0.0000
0.6207 1.5172 0.0000
0.6207 1.5517 0.0000
0.6207 1.5862 0.0000
0.6207 1.6207 0.0000
0.6207 1.6552 0.0000
0.6207 1.6897 0.0000
0.6207 1.7241 0.0000
0.6207 1.7586 0.0000
0.6207 1.7931 0.0000
0.6207 1.8276 0.0000
0.6207 1.8621 0.0000
0.6207 1.8966 0.0000
0.6207 1.9310 0.0000
0.6207 1.9655 0.0000
0.6207 2.0000 0.0000
0.6897 1.0000 0.0000
0.6897 1.0345 0.0000
0.6897 1.0690 0.0000
0.6897 1.1034 0.0000
0.6897 1.1379 0.0000
0.6897 1.1724 0.0000
0.6897 1.2069 0.0000
0.6897 1.2414 0.0000
0.6897 1.2759 0.0000
0.6897 1.3103 0.0000
0.6897 1.3448 0.0000
0.6897 1.3793 0.0000
0.6897 1.4138 0.0000
0.6897 1.4483 0.0000
0.6897 1.4828 0.0000
0.6897 1.5172 0.0000
0.6897 1.5517 0.0000
0.6897 1.5862 0.0000
0.6897 1.6207 0.0000
0.6897 1.6552 0.0000
0.6897 1.6897 0.0000
0.6897 1.7241 0.0000
0.6897 1.7586 0.0000
0.6897 1.7931 0.0000
0.6897 1.8276 0.0000
0.6897 1.8621 0.0000
0.6897 1.8966 0.0000
0.6897 1.9310 0.0000
0.6897 1.9655 0.0000
0.6897 2.0000 0.0000
0.7586 1.0000 0.0000
0.7586 1.0345 0.0000
0.7586 1.0690 0.0000
0.7586 1.1034 0.0000
0.7586 1.1379 0.0000
0.7586 1.1724 0.0000
0.7586 1.2069 0.0000
0.7586 1.2414 0.0000
0.7586 1.2759 0.0000
0.7586 1.3103 0.0000
0.7586 1.3448 0.0000
0.7586 1.3793 0.0000
0.7586 1.4138 0.0000
0.7586 1.4483 0.0000
0.7586 1.4828 0.0000
0.7586 1.5172 0.0000
0.7586 1.5517 0.0000
0.7586 1.5862 0.0000
0.7586 1.6207 0.0000
0.7586 1.6552 0.0000
0.7586 1.6897 0.0000
0.7586 1.7241 0.0000
0.7586 1.7586 0.0000
0.7586 1.7931 0.0000
0.7586 1.8276 0.0000
0.7586 1.8621 0.0000
0.7586 1.8966 0.0000
0.7586 1.9310 0.0000
0.7586 1.9655 0.0000
0.7586 2.0000 0.0000
0.8276 1.0000 0.0000
0.8276 1.0345 0.0000
0.8276 1.0690 0.0000
0.8276 1.1034 0.0000
0.8276 1.1379 0.0000
0.8276 1.1724 0.0000
0.8276 1.2069 0.0000
0.8276 1.2414 0.0000
0.8276 1.2759 0.0000
0.8276 1.3103 0.0000
0.8276 1.3448 0.0000
0.8276 1.3793 0.0000
0.8276 1.4138 0.0000
0.8276 1.4483 0.0000
0.8276 1.4828 0.0000
0.8276 1.5172 0.0000
0.8276 1.5517 0.0000
0.8276 1.5862 0.0000
0.8276 1.6207 0.0000
0.8276 1.6552 0.0000
0.8276 1.6897 0.0000
0.8276 1.7241 0.0000
0.8276 1.7586 0.0000
0.8276 1.7931 0.0000
0.8276 1.8276 0.0000
0.8276 1.8621 0.0000
0.8276 1.8966 0.0000
0.8276 1.9310 0.0000
0.8276 1.9655 0.0000
0.8276 2.0000 0.0000
0.8966 1.0000 0.0000
0.8966 1.0345 0.0000
0.8966 1.0690 0.0000
0.8966 1.1034 0.0000
0.8966 1.1379 0.0000
0.8966 1.1724 0.0000
0.8966 1.2069 0.0000
0.8966 1.2414 0.0000
0.8966 1.2759 0.0000
0.8966 1.3103 0.0000
0.8966 1.3448 0.0000
0.8966 1.3793 0.0000
0.8966 1.4138 0.0000
0.8966 1.4483 0.0000
0.8966 1.4828 0.0000
0.8966 1.5172 0.0000
0.8966 1.5517 0.0000
0.8966 1.5862 0.0000
0.8966 1.6207 0.0000
0.8966 1.6552 0.0000
0.8966 1.6897 0.0000
0.8966 1.7241 0.0000
0.8966 1.7586 0.0000
0.8966 1.7931 0.0000
0.8966 1.8276 0.0000
0.8966 1.8621 0.0000
0.8966 1.8966 0.0000
0.8966 1.9310 0.0000
0.8966 1.9655 0.0000
0.8966 2.0000 0.0000
0.9655 1.0000 0.0000
0.9655 1.0345 0.0000
0.9655 1.0690 0.0000
0.9655 1.1034 0.0000
0.9655 1.1379 0.0000
0.9655 1.1724 0.0000
0.9655 1.2069 0.0000
0.9655 1.2414 0.0000
0.9655 1.2759 0.0000
0.9655 1.3103 0.0000
0.9655 1.3448 0.0000
0.9655 1.3793 0.0000
0.9655 1.4138 0.0000
0.9655 1.4483 0.0000
0.9655 1.4828 0.0000
0.9655 1.5172 0.0000
0.9655 1.5517 0.0000
0.9655 1.5862 0.0000
0.9655 1.6207 0.0000
0.9655 1.6552 0.0000
0.9655 1.6897 0.0000
0.9655 1.7241 0.0000
0.9655 1.7586 0.0000
0.9655 1.7931 0.0000
0.9655 1.8276 0.0000
0.9655 1.8621 0.0000
0.9655 1.8966 0.0000
0.9655 1.9310 0.0000
0.9655 1.9655 0.0000
0.9655 2.0000 0.0000
1.0345 1.0000 0.0000
1.0345 1.0345 0.0000
1.0345 1.0690 0.0000
1.0345 1.1034 0.0000
1.0345 1.1379 0.0000
1.0345 1.1724 0.0000
1.0345 1.2069 0.0000
1.0345 1.2414 0.0000
1.0345 1.2759 0.0000
1.0345 1.3103 0.0000
1.0345 1.3448 0.0000
[...]
         <PointData>
            <DataArray Name="fValues" NumberOfComponents="3" format="ascii" type="Float64">
-2.87470e-21 -2.01504e-21        00000 
 1.14988e-20  5.39007e-22        00000 
 1.42136e-21  7.10681e-22        00000 
 2.09836e-21 -3.66097e-21        00000 
 4.97477e-21  7.10681e-21        00000 
 9.67081e-21 -2.01027e-20        00000 
 7.10681e-22  7.10681e-22        00000 
-2.72340e-21  2.72340e-21        00000 
 4.97477e-21 -7.81750e-21        00000 
 5.68492e-22  4.56194e-21        00000 
-3.55341e-22        00000        00000 
 1.46216e-21 -1.45546e-20        00000 
 7.10681e-22 -1.42136e-21        00000 
 2.26694e-21  1.26555e-20        00000 
-8.88352e-22 -1.42136e-21        00000 
 2.00907e-22  9.64353e-21        00000 
-6.21846e-22 -7.10681e-21        00000 
 1.55425e-21  2.60908e-20        00000 
-1.42136e-21 -2.55845e-20        00000 
 6.47366e-22  9.19707e-21        00000 
 1.06602e-21        00000        00000 
-5.03415e-21  3.81498e-21        00000 
 3.19807e-21  1.42136e-20        00000 
 7.81304e-22 -1.48225e-20        00000 
-6.75147e-21  9.23886e-21        00000 
 3.24853e-22 -5.04782e-21        00000 
-3.55341e-22  7.10681e-21        00000 
-1.19874e-20 -3.30996e-21        00000 
 4.65905e-21 -1.47835e-21        00000 
-3.04505e-21  3.69588e-22        00000 
 7.23925e-05  2.35294e-05        00000 
 7.19644e-05  3.98839e-06        00000 
 7.16920e-05 -1.33567e-05        00000 
 6.98706e-05 -2.86214e-05        00000 
 6.68204e-05 -4.20605e-05        00000 
 6.28616e-05 -5.38843e-05        00000 
 5.82292e-05 -6.42664e-05        00000 
 5.30895e-05 -7.33473e-05        00000 
 4.75627e-05 -8.12380e-05        00000 
 4.17378e-05 -8.80236e-05        00000 
 3.56837e-05 -9.37665e-05        00000 
 2.94567e-05 -9.85091e-05        00000 
 2.31053e-05 -1.02277e-04        00000 
 1.66748e-05 -1.05083e-04        00000 
 1.02096e-05 -1.06927e-04        00000 
 3.75600e-06 -1.07801e-04        00000 
-2.63619e-06 -1.07691e-04        00000 
-8.91196e-06 -1.06579e-04        00000 
-1.50096e-05 -1.04447e-04        00000 
-2.08590e-05 -1.01275e-04        00000 
-2.63793e-05 -9.70463e-05        00000 
-3.14759e-05 -9.17494e-05        00000 
-3.60347e-05 -8.53780e-05        00000 
-3.99125e-05 -7.79358e-05        00000 
-4.29204e-05 -6.94427e-05        00000 
-4.47903e-05 -5.99496e-05        00000 
-4.51100e-05 -4.95696e-05        00000 
-4.31792e-05 -3.85506e-05        00000 
-3.76513e-05 -2.74431e-05        00000 
-2.53936e-05 -1.74981e-05        00000 
 1.54991e-04  1.60840e-06        00000 
 1.61816e-04 -1.92380e-05        00000 
 1.60743e-04 -4.08450e-05        00000 
 1.55806e-04 -6.17204e-05        00000 
 1.48287e-04 -8.13016e-05        00000 
 1.38963e-04 -9.93575e-05        00000 
 1.28338e-04 -1.15802e-04        00000 
 1.16752e-04 -1.30619e-04        00000 
 1.04440e-04 -1.43821e-04        00000 
 9.15684e-05 -1.55428e-04        00000 
 7.82626e-05 -1.65459e-04        00000 
 6.46212e-05 -1.73922e-04        00000 
 5.07294e-05 -1.80816e-04        00000 
 3.66667e-05 -1.86128e-04        00000 
 2.25143e-05 -1.89838e-04        00000 
 8.35949e-06 -1.91916e-04        00000 
-5.70002e-06 -1.92335e-04        00000 
-1.95529e-05 -1.91067e-04        00000 
-3.30711e-05 -1.88089e-04        00000 
-4.61066e-05 -1.83392e-04        00000 
-5.84868e-05 -1.76984e-04        00000 
-7.00083e-05 -1.68894e-04        00000 
-8.04263e-05 -1.59184e-04        00000 
-8.94362e-05 -1.47958e-04        00000 
-9.66428e-05 -1.35378e-04        00000 
-1.01504e-04 -1.21686e-04        00000 
-1.03231e-04 -1.07231e-04        00000 
-1.00600e-04 -9.25027e-05        00000 
-9.16054e-05 -7.81173e-05        00000 
-7.29370e-05 -6.45519e-05        00000 
 2.56875e-04 -2.14967e-05        00000 
 2.61864e-04 -4.60925e-05        00000 
 2.59074e-04 -6.98786e-05        00000 
 2.50601e-04 -9.30333e-05        00000 
 2.38268e-04 -1.15254e-04        00000 
 2.23204e-04 -1.36278e-04        00000 
 2.06162e-04 -1.55919e-04        00000 
 1.87650e-04 -1.74052e-04        00000 
 1.68018e-04 -1.90589e-04        00000 
 1.47516e-04 -2.05464e-04        00000 
 1.26324e-04 -2.18621e-04        00000 
 1.04583e-04 -2.30003e-04        00000 
 8.24141e-05 -2.39552e-04        00000 
 5.99308e-05 -2.47208e-04        00000 
 3.72519e-05 -2.52906e-04        00000 
 1.45091e-05 -2.56583e-04        00000 
-8.14612e-06 -2.58183e-04        00000 
-3.05372e-05 -2.57661e-04        00000 
-5.24578e-05 -2.54987e-04        00000 
-7.36668e-05 -2.50159e-04        00000 
-9.38828e-05 -2.43205e-04        00000 
-1.12776e-04 -2.34194e-04        00000 
-1.29955e-04 -2.23242e-04        00000 
-1.44950e-04 -2.10525e-04        00000 
-1.57179e-04 -1.96279e-04        00000 
-1.65905e-04 -1.80810e-04        00000 
-1.70170e-04 -1.64473e-04        00000 
-1.68710e-04 -1.47631e-04        00000 
-1.59925e-04 -1.30528e-04        00000 
-1.42117e-04 -1.13051e-04        00000 
 3.75523e-04 -3.48617e-05        00000 
 3.74356e-04 -6.24606e-05        00000 
 3.66176e-04 -8.86502e-05        00000 
 3.52439e-04 -1.13660e-04        00000 
 3.34412e-04 -1.37591e-04        00000 
 3.13145e-04 -1.60397e-04        00000 
 2.89420e-04 -1.81989e-04        00000 
 2.63798e-04 -2.02262e-04        00000 
 2.36683e-04 -2.21112e-04        00000 
 2.08361e-04 -2.38434e-04        00000 
 1.79045e-04 -2.54119e-04        00000 
 1.48902e-04 -2.68055e-04        00000 
 1.18078e-04 -2.80125e-04        00000 
 8.67159e-05 -2.90208e-04        00000 
 5.49695e-05 -2.98187e-04        00000 
 2.30174e-05 -3.03946e-04        00000 
-8.92982e-06 -3.07385e-04        00000 
-4.06217e-05 -3.08419e-04        00000 
-7.17625e-05 -3.06994e-04        00000 
-1.02006e-04 -3.03087e-04        00000 
-1.30952e-04 -2.96718e-04        00000 
-1.58136e-04 -2.87958e-04        00000 
-1.83027e-04 -2.76931e-04        00000 
-2.05014e-04 -2.63816e-04        00000 
-2.23390e-04 -2.48847e-04        00000 
-2.37340e-04 -2.32294e-04        00000 
-2.45929e-04 -2.14435e-04        00000 
-2.48120e-04 -1.95504e-04        00000 
-2.42839e-04 -1.75619e-04        00000 
-2.29061e-04 -1.54747e-04        00000 
 5.08131e-04 -3.16883e-05        00000 
 4.98173e-04 -6.19281e-05        00000 
 4.82206e-04 -9.02727e-05        00000 
 4.61284e-04 -1.17087e-04        00000 
 4.36349e-04 -1.42606e-04        00000 
 4.08191e-04 -1.66966e-04        00000 
 3.77442e-04 -1.90212e-04        00000 
 3.44584e-04 -2.12325e-04        00000 
 3.09965e-04 -2.33238e-04        00000 
 2.73842e-04 -2.52850e-04        00000 
 2.36404e-04 -2.71029e-04        00000 
 1.97804e-04 -2.87622e-04        00000 
 1.58186e-04 -3.02458e-04        00000 
 1.17701e-04 -3.15354e-04        00000 
 7.65285e-05 -3.26125e-04        00000 
 3.48875e-05 -3.34589e-04        00000 
-6.95248e-06 -3.40577e-04        00000 
-4.86634e-05 -3.43946e-04        00000 
-8.98540e-05 -3.44581e-04        00000 
-1.30066e-04 -3.42411e-04        00000 
-1.68772e-04 -3.37413e-04        00000 
-2.05375e-04 -3.29619e-04        00000 
-2.39210e-04 -3.19119e-04        00000 
-2.69543e-04 -3.06059e-04        00000 
-2.95579e-04 -2.90635e-04        00000 
-3.16472e-04 -2.73075e-04        00000 
-3.31344e-04 -2.53619e-04        00000 
-3.39329e-04 -2.32484e-04        00000 
-3.39617e-04 -2.09836e-04        00000 
-3.31529e-04 -1.85765e-04        00000 
 6.52373e-04 -7.62251e-06        00000 
 6.31735e-04 -4.00420e-05        00000 
 6.06282e-04 -7.02538e-05        00000 
 5.76809e-04 -9.87201e-05        00000 
 5.43987e-04 -1.25807e-04        00000 
 5.08359e-04 -1.51774e-04        00000 
 4.70339e-04 -1.76782e-04        00000 
 4.30229e-04 -2.00897e-04        00000 
 3.88238e-04 -2.24106e-04        00000 
 3.44504e-04 -2.46325e-04        00000 
 2.99129e-04 -2.67409e-04        00000 
 2.52197e-04 -2.87169e-04        00000 
 2.03806e-04 -3.05375e-04        00000 
 1.54085e-04 -3.21774e-04        00000 
 1.03216e-04 -3.36099e-04        00000 
 5.14445e-05 -3.48079e-04        00000 
-9.07498e-07 -3.57457e-04        00000 
-5.34354e-05 -3.63997e-04        00000 
-1.05648e-04 -3.67500e-04        00000 
-1.56967e-04 -3.67812e-04        00000 
-2.06730e-04 -3.64836e-04        00000 
-2.54195e-04 -3.58538e-04        00000 
-2.98553e-04 -3.48950e-04        00000 
-3.38939e-04 -3.36170e-04        00000 
-3.74450e-04 -3.20360e-04        00000 
-4.04176e-04 -3.01732e-04        00000 
-4.27226e-04 -2.80538e-04        00000 
-4.42777e-04 -2.57048e-04        00000 
-4.50116e-04 -2.31537e-04        00000 
-4.48701e-04 -2.04267e-04        00000 
 8.05868e-04  4.08039e-05        00000 
 7.73094e-04  6.72108e-06        00000 
 7.36991e-04 -2.49618e-05        00000 
 6.98128e-04 -5.48475e-05        00000 
 6.56920e-04 -8.34347e-05        00000 
 6.13636e-04 -1.11106e-04        00000 
 5.68426e-04 -1.38121e-04        00000 
 5.21345e-04 -1.64622e-04        00000 
 4.72379e-04 -1.90636e-04        00000 
 4.21474e-04 -2.16088e-04        00000 
 3.68569e-04 -2.40815e-04        00000 
 3.13618e-04 -2.64577e-04        00000 
 2.56623e-04 -2.87074e-04        00000 
 1.97649e-04 -3.07961e-04        00000 
 1.36851e-04 -3.26865e-04        00000 
 7.44808e-05 -3.43405e-04        00000 
 1.09030e-05 -3.57203e-04        00000 
-5.34030e-05 -3.67903e-04        00000 
-1.17840e-04 -3.75191e-04        00000 
-1.81696e-04 -3.78801e-04        00000 
-2.44153e-04 -3.78536e-04        00000 
-3.04300e-04 -3.74273e-04        00000 
-3.61147e-04 -3.65973e-04        00000 
-4.13653e-04 -3.53684e-04        00000 
-4.60749e-04 -3.37544e-04        00000 
-5.01381e-04 -3.17771e-04        00000 
-5.34543e-04 -2.94666e-04        00000 
-5.59328e-04 -2.68595e-04        00000 
-5.74978e-04 -2.39980e-04        00000 
-5.80936e-04 -2.09284e-04        00000 
 9.65849e-04  1.16522e-04        00000 
 9.19816e-04  8.14268e-05        00000 
 8.72378e-04  4.87971e-05        00000 
 8.23849e-04  1.78397e-05        00000 
 7.74335e-04 -1.21067e-05        00000 
 7.23776e-04 -4.15557e-05        00000 
 6.71986e-04 -7.08655e-05        00000 
 6.18695e-04 -1.00239e-04        00000 
 5.63582e-04 -1.29731e-04        00000 
 5.06321e-04 -1.59257e-04        00000 
 4.46609e-04 -1.88610e-04        00000 
 3.84206e-04 -2.17477e-04        00000 
 3.18956e-04 -2.45461e-04        00000 
 2.50818e-04 -2.72097e-04        00000 
 1.79885e-04 -2.96877e-04        00000 
 1.06392e-04 -3.19272e-04        00000 
 3.07368e-05 -3.38753e-04        00000 
-4.65266e-05 -3.54812e-04        00000 
-1.24683e-04 -3.66985e-04        00000 
-2.02866e-04 -3.74868e-04        00000 
-2.80067e-04 -3.78136e-04        00000 
-3.55160e-04 -3.76559e-04        00000 
-4.26920e-04 -3.70014e-04        00000 
-4.94055e-04 -3.58495e-04        00000 
-5.55245e-04 -3.42118e-04        00000 
-6.09185e-04 -3.21128e-04        00000 
-6.54635e-04 -2.95892e-04        00000 
-6.90471e-04 -2.66903e-04        00000 
-7.15748e-04 -2.34764e-04        00000 
-7.29759e-04 -2.00176e-04        00000 
 1.12878e-03  2.21997e-04        00000 
 1.06873e-03  1.86745e-04        00000 
 1.00983e-03  1.53871e-04        00000 
 9.52016e-04  1.22332e-04        00000 
 8.94993e-04  9.12674e-05        00000 
 8.38268e-04  6.00169e-05        00000 
 7.81214e-04  2.81230e-05        00000 
 7.23131e-04 -4.66910e-06        00000 
 6.63296e-04 -3.84206e-05        00000 
 6.01012e-04 -7.30130e-05        00000 
 5.35654e-04 -1.08167e-04        00000 
 4.66707e-04 -1.43465e-04        00000 
 3.93799e-04 -1.78373e-04        00000 
 3.16732e-04 -2.12271e-04        00000 
 2.35498e-04 -2.44476e-04        00000 
 1.50297e-04 -2.74273e-04        00000 
 6.15473e-05 -3.00942e-04        00000 
-3.01140e-05 -3.23786e-04        00000 
-1.23836e-04 -3.42154e-04        00000 
-2.18563e-04 -3.55473e-04        00000 
-3.13052e-04 -3.63264e-04        00000 
-4.05900e-04 -3.65167e-04        00000 
-4.95568e-04 -3.60958e-04        00000 
-5.80423e-04 -3.50566e-04        00000 
-6.58785e-04 -3.34086e-04        00000 
-7.28972e-04 -3.11790e-04        00000 
-7.89366e-04 -2.84130e-04        00000 
-8.38476e-04 -2.51744e-04        00000 
-8.75013e-04 -2.15448e-04        00000 
-8.97958e-04 -1.76224e-04        00000 
 1.28996e-03  3.59046e-04        00000 
 1.21568e-03  3.24778e-04        00000 
 1.14589e-03  2.92593e-04        00000 
 1.08001e-03  2.61142e-04        00000 
 1.01718e-03  2.29330e-04        00000 
 9.56318e-04  1.96332e-04        00000 
 8.96211e-04  1.61592e-04        00000 
 8.35598e-04  1.24817e-04        00000 
 7.73229e-04  8.59603e-05        00000 
 7.07928e-04  4.52039e-05        00000 
 6.38649e-04  2.93411e-06        00000 
 5.64518e-04 -4.02860e-05        00000 
 4.84876e-04 -8.37470e-05        00000 
 3.99311e-04 -1.26625e-04        00000 
 3.07679e-04 -1.68019e-04        00000 
 2.10122e-04 -2.06979e-04        00000 
 1.07077e-04 -2.42549e-04        00000 
-7.26378e-07 -2.73798e-04        00000 
-1.12272e-04 -2.99854e-04        00000 
-2.26272e-04 -3.19934e-04        00000 
-3.41188e-04 -3.33377e-04        00000 
-4.55264e-04 -3.39666e-04        00000 
-5.66556e-04 -3.38457e-04        00000 
-6.72981e-04 -3.29599e-04        00000 
-7.72368e-04 -3.13154e-04        00000 
-8.62513e-04 -2.89416e-04        00000 
-9.41256e-04 -2.58927e-04        00000 
-1.00655e-03 -2.22482e-04        00000 
-1.05658e-03 -1.81138e-04        00000 
-1.08980e-03 -1.36204e-04        00000 
 1.44311e-03  5.28427e-04        00000 
 1.35519e-03  4.96647e-04        00000 
 1.27608e-03  4.66380e-04        00000 
 1.20445e-03  4.35914e-04        00000 
 1.13866e-03  4.03894e-04        00000 
 1.07682e-03  3.69324e-04        00000 
 1.01698e-03  3.31557e-04        00000 
 9.57132e-04  2.90278e-04        00000 
 8.95361e-04  2.45480e-04        00000 
 8.29883e-04  1.97441e-04        00000 
 7.59111e-04  1.46688e-04        00000 
 6.81720e-04  9.39731e-05        00000 
 5.96683e-04  4.02270e-05        00000 
 5.03311e-04 -1.34735e-05        00000 
 4.01284e-04 -6.59506e-05        00000 
 2.90665e-04 -1.15969e-04        00000 
 1.71908e-04 -1.62281e-04        00000 
 4.58581e-05 -2.03670e-04        00000 
-8.62620e-05 -2.38995e-04        00000 
-2.22874e-04 -2.67229e-04        00000 
-3.62070e-04 -2.87493e-04        00000 
-5.01650e-04 -2.99090e-04        00000 
-6.39163e-04 -3.01536e-04        00000 
-7.71952e-04 -2.94581e-04        00000 
-8.97214e-04 -2.78242e-04        00000 
-1.01206e-03 -2.52823e-04        00000 
-1.11360e-03 -2.18940e-04        00000 
-1.19902e-03 -1.77550e-04        00000 
-1.26570e-03 -1.29961e-04        00000 
-1.31134e-03 -7.78483e-05        00000 
 1.57995e-03  7.29152e-04        00000 
 1.48018e-03  7.01812e-04        00000 
 1.39468e-03  6.75041e-04        00000 
 1.32105e-03  6.46737e-04        00000 
 1.25656e-03  6.15281e-04        00000 
 1.19832e-03  5.79517e-04        00000 
 1.14337e-03  5.38726e-04        00000 
 1.08882e-03  4.92592e-04        00000 
 1.03190e-03  4.41172e-04        00000 
 9.70077e-04  3.84864e-04        00000 
 9.01101e-04  3.24370e-04        00000 
 8.23072e-04  2.60662e-04        00000 
 7.34500e-04  1.94942e-04        00000 
 6.34347e-04  1.28593e-04        00000 
 5.22062e-04  6.31340e-05        00000 
 3.97606e-04  1.55442e-07        00000 
 2.61460e-04 -5.87330e-05        00000 
 1.14618e-04 -1.11965e-04        00000 
-4.14309e-05 -1.58074e-04        00000 
-2.04735e-04 -1.95742e-04        00000 
-3.72921e-04 -2.23846e-04        00000 
-5.43239e-04 -2.41494e-04        00000 
-7.12609e-04 -2.48049e-04        00000 
-8.77677e-04 -2.43162e-04        00000 
-1.03487e-03 -2.26791e-04        00000 
-1.18044e-03 -1.99234e-04        00000 
-1.31056e-03 -1.61161e-04        00000 
-1.42140e-03 -1.13661e-04        00000 
-1.50927e-03 -5.82788e-05        00000 
-1.57075e-03  2.94086e-06        00000 
 1.68980e-03  9.57466e-04        00000 
 1.58176e-03  9.37026e-04        00000 
 1.49463e-03  9.15728e-04        00000 
 1.42453e-03  8.91103e-04        00000 
 1.36734e-03  8.61310e-04        00000 
 1.31887e-03  8.25076e-04        00000 
 1.27496e-03  7.81642e-04        00000 
 1.23162e-03  7.30714e-04        00000 
 1.18509e-03  6.72422e-04        00000 
 1.13193e-03  6.07286e-04        00000 
 1.06907e-03  5.36186e-04        00000 
 9.93898e-04  4.60335e-04        00000 
 9.04332e-04  3.81237e-04        00000 
 7.98873e-04  3.00639e-04        00000 
 6.76664e-04  2.20477e-04        00000 
 5.37526e-04  1.42794e-04        00000 
 3.81975e-04  6.96645e-05        00000 
 2.11212e-04  3.10596e-06        00000 
 2.70902e-05 -5.50055e-05        00000 
-1.67937e-04 -1.03007e-04        00000 
-3.70885e-04 -1.39504e-04        00000 
-5.78307e-04 -1.63413e-04        00000 
-7.86363e-04 -1.73977e-04        00000 
-9.90874e-04 -1.70778e-04        00000 
-1.18737e-03 -1.53745e-04        00000 
-1.37113e-03 -1.23170e-04        00000 
-1.53723e-03 -7.97456e-05        00000 
-1.68057e-03 -2.46266e-05        00000 
-1.79604e-03  4.04846e-05        00000 
-1.87866e-03  1.13242e-04        00000 
 1.75932e-03  1.20539e-03        00000 
 1.64912e-03  1.19482e-03        00000 
 1.56749e-03  1.18138e-03        00000 
 1.50862e-03  1.16236e-03        00000 
 1.46665e-03  1.13580e-03        00000 
 1.43584e-03  1.10042e-03        00000 
 1.41068e-03  1.05546e-03        00000 
 1.38596e-03  1.00065e-03        00000 
 1.35677e-03  9.36160e-04        00000 
 1.31863e-03  8.62583e-04        00000 
 1.26748e-03  7.80918e-04        00000 
 1.19981e-03  6.92577e-04        00000 
 1.11275e-03  5.99362e-04        00000 
 1.00415e-03  5.03431e-04        00000 
 8.72700e-04  4.07235e-04        00000 
 7.17989e-04  3.13416e-04        00000 
 5.40566e-04  2.24691e-04        00000 
 3.41924e-04  1.43709e-04        00000 
 1.24449e-04  7.29134e-05        00000 
-1.08672e-04  1.44194e-05        00000 
-3.53586e-04 -3.00772e-05        00000 
-6.05905e-04 -5.93428e-05        00000 
-8.60831e-04 -7.26083e-05        00000 
-1.11324e-03 -6.95305e-05        00000 
-1.35771e-03 -5.01423e-05        00000 
-1.58853e-03 -1.48125e-05        00000 
-1.79962e-03  3.57524e-05        00000 
-1.98454e-03  1.00439e-04        00000 
-2.13647e-03  1.77594e-04        00000 
-2.24832e-03  2.64801e-04        00000 
 1.77266e-03  1.45872e-03        00000 
 1.66986e-03  1.46143e-03        00000 
 1.60376e-03  1.45858e-03        00000 
 1.56614e-03  1.44753e-03        00000 
 1.54916e-03  1.42649e-03        00000 
 1.54547e-03  1.39429e-03        00000 
 1.54817e-03  1.35024e-03        00000 
 1.55082e-03  1.29406e-03        00000 
 1.54735e-03  1.22585e-03        00000 
 1.53214e-03  1.14606e-03        00000 
 1.49995e-03  1.05565e-03        00000 
 1.44610e-03  9.56044e-04        00000 
 1.36658e-03  8.49247e-04        00000 
 1.25824e-03  7.37827e-04        00000 
 1.11898e-03  6.24864e-04        00000 
 9.47934e-04  5.13837e-04        00000 
 7.45602e-04  4.08427e-04        00000 
 5.13872e-04  3.12283e-04        00000 
 2.55957e-04  2.28762e-04        00000 
-2.37839e-05  1.60679e-04        00000 
-3.20104e-04  1.10141e-04        00000 
-6.27169e-04  7.84430e-05        00000 
-9.38835e-04  6.61176e-05        00000 
-1.24884e-03  7.30526e-05        00000 
-1.55086e-03  9.87078e-05        00000 
-1.83843e-03  1.42318e-04        00000 
-2.10469e-03  2.03033e-04        00000 
-2.34208e-03  2.79915e-04        00000 
-2.54211e-03  3.71720e-04        00000 
-2.69518e-03  4.76558e-04        00000 
 1.71235e-03  1.69454e-03        00000 
 1.63094e-03  1.71402e-03        00000 
 1.59355e-03  1.72464e-03        00000 
 1.58930e-03  1.72443e-03        00000 
 1.60841e-03  1.71218e-03        00000 
 1.64212e-03  1.68712e-03        00000 
 1.68248e-03  1.64869e-03        00000 
 1.72210e-03  1.59646e-03        00000 
 1.75397e-03  1.53016e-03        00000 
 1.77132e-03  1.44975e-03        00000 
 1.76757e-03  1.35565e-03        00000 
 1.73646e-03  1.24889e-03        00000 
 1.67223e-03  1.13135e-03        00000 
 1.57000e-03  1.00585e-03        00000 
 1.42616e-03  8.76191e-04        00000 
 1.23879e-03  7.47037e-04        00000 
 1.00800e-03  6.23620e-04        00000 