<?xml version="1.0" encoding="utf-8"?>
<VTKFile byte_order="LittleEndian" type="UnstructuredGrid" version="0.1">
   <UnstructuredGrid>
      <Piece NumberOfCells="3364" NumberOfPoints="1741">
         <Points>
            <DataArray Name="Points" NumberOfComponents="3" format="ascii" type="Float32">
0.0000 1.0000 0.0000
0.0000 1.0345 0.0000
0.0000 1.0690 0.0000
0.0000 1.1034 0.0000
0.0000 1.1379 0.0000
0.0000 1.1724 0.0000
0.0000 1.2069 0.0000
0.0000 1.2414 0.0000
0.0000 1.2759 0.0000
0.0000 1.3103 0.0000
0.0000 1.3448 0.0000
0.0000 1.3793 0.0000
0.0000 1.4138 0.0000
0.0000 1.4483 0.0000
0.0000 1.4828 0.0000
0.0000 1.5172 0.0000
0.0000 1.5517 0.0000
0.0000 1.5862 0.0000
0.0000 1.6207 0.0000
0.0000 1.6552 0.0000
0.0000 1.6897 0.0000
0.0000 1.7241 0.0000
0.0000 1.7586 0.0000
0.0000 1.7931 0.0000
0.0000 1.8276 0.0000
0.0000 1.8621 0.0000
0.0000 1.8966 0.0000
0.0000 1.9310 0.0000
0.0000 1.9655 0.0000
0.0000 2.0000 0.0000
0.0690 1.0000 0.0000
0.0690 1.0345 0.0000
0.0690 1.0690 0.0000
0.0690 1.1034 0.0000
0.0690 1.1379 0.0000
0.0690 1.1724 0.0000
0.0690 1.2069 0.0000
0.0690 1.2414 0.0000
0.0690 1.2759 0.0000
0.0690 1.3103 0.0000
0.0690 1.3448 0.0000
0.0690 1.3793 0.0000
0.0690 1.4138 0.0000
0.0690 1.4483 0.0000
0.0690 1.4828 0.0000
0.0690 1.5172 0.0000
0.0690 1.5517 0.0000
0.0690 1.5862 0.0000
0.0690 1.6207 0.0000
0.0690 1.6552 0.0000
0.0690 1.6897 0.0000
0.0690 1.7241 0.0000
0.0690 1.7586 0.0000
0.0690 1.7931 0.0000
0.0690 1.8276 0.0000
0.0690 1.8621 0.0000
0.0690 1.8966 0.0000
0.0690 1.9310 0.0000
0.0690 1.9655 0.0000
0.0690 2.0000 0.0000
0.1379 1.0000 0.0000
0.1379 1.0345 0.0000
0.1379 1.0690 0.0000
0.1379 1.1034 0.0000
0.1379 1.1379 0.0000
0.1379 1.1724 0.0000
0.1379 1.2069 0.0000
0.1379 1.2414 0.0000
0.1379 1.2759 0.0000
0.1379 1.3103 0.0000
0.1379 1.3448 0.0000
0.1379 1.3793 0.0000
0.1379 1.4138 0.0000
0.1379 1.4483 0.0000
0.1379 1.4828 0.0000
0.1379 1.5172 0.0000
0.1379 1.5517 0.0000
0.1379 1.5862 0.0000
0.1379 1.6207 0.0000
0.1379 1.6552 0.0000
0.1379 1.6897 0.0000
0.1379 1.7241 0.0000
0.1379 1.7586 0.0000
0.1379 1.7931 0.0000
0.1379 1.8276 0.0000
0.1379 1.8621 0.0000
0.1379 1.8966 0.0000
0.1379 1.9310 0.0000
0.1379 1.9655 0.0000
0.1379 2.0000 0.0000
0.2069 1.0000 0.0000
0.2069 1.0345 0.0000
0.2069 1.0690 0.0000
0.2069 1.1034 0.0000
0.2069 1.1379 0.0000
0.2069 1.1724 0.0000
0.2069 1.2069 0.0000
0.2069 1.2414 0.0000
0.2069 1.2759 0.0000
0.2069 1.3103 0.0000
0.2069 1.3448 0.0000
0.2069 1.3793 0.0000
0.2069 1.4138 0.0000
0.2069 1.4483 0.0000
0.2069 1.4828 0.0000
0.2069 1.5172 0.0000
0.2069 1.5517 0.0000
0.2069 1.5862 0.0000
0.2069 1.6207 0.0000
0.2069 1.6552 0.0000
0.2069 1.6897 0.0000
0.2069 1.7241 0.0000
0.2069 1.7586 0.0000
0.2069 1.7931 0.0000
0.2069 1.8276 0.0000
0.2069 1.8621 0.0000
0.2069 1.8966 0.0000
0.2069 1.9310 0.0000
0.2069 1.9655 0.0000
0.2069 2.0000 0.0000
0.2759 1.0000 0.0000
0.2759 1.0345 0.0000
0.2759 1.0690 0.0000
0.2759 1.1034 0.0000
0.2759 1.1379 0.0000
0.2759 1.1724 0.0000
0.2759 1.2069 0.0000
0.2759 1.2414 0.0000
0.2759 1.2759 0.0000
0.2759 1.3103 0.0000
0.2759 1.3448 0.0000
0.2759 1.3793 0.0000
0.2759 1.4138 0.0000
0.2759 1.4483 0.0000
0.2759 1.4828 0.0000
0.2759 1.5172 0.0000
0.2759 1.5517 0.0000
0.2759 1.5862 0.0000
0.2759 1.6207 0.0000
0.2759 1.6552 0.0000
0.2759 1.6897 0.0000
0.2759 1.7241 0.0000
0.2759 1.7586 0.0000
0.2759 1.7931 0.0000
0.2759 1.8276 0.0000
0.2759 1.8621 0.0000
0.2759 1.8966 0.0000
0.2759 1.9310 0.0000
0.2759 1.9655 0.0000
0.2759 2.0000 0.0000
0.3448 1.0000 0.0000
0.3448 1.0345 0.0000
0.3448 1.0690 0.0000
0.3448 1.1034 0.0000
0.3448 1.1379 0.0000
0.3448 1.1724 0.0000
0.3448 1.2069 0.0000
0.3448 1.2414 0.0000
0.3448 1.2759 0.0000
0.3448 1.3103 0.0000
0.3448 1.3448 0.0000
0.3448 1.3793 0.0000
0.3448 1.4138 0.0000
0.3448 1.4483 0.0000
0.3448 1.4828 0.0000
0.3448 1.5172 0.0000
0.3448 1.5517 0.0000
0.3448 1.5862 0.0000
0.3448 1.6207 0.0000
0.3448 1.6552 0.0000
0.3448 1.6897 0.0000
0.3448 1.7241 0.0000
0.3448 1.7586 0.0000
0.3448 1.7931 0.0000
0.3448 1.8276 0.0000
0.3448 1.8621 0.0000
0.3448 1.8966 0.0000
0.3448 1.9310 0.0000
0.3448 1.9655 0.0000
0.3448 2.0000 0.0000
0.4138 1.0000 0.0000
0.4138 1.0345 0.0000
0.4138 1.0690 0.0000
0.4138 1.1034 0.0000
0.4138 1.1379 0.0000
0.4138 1.1724 0.0000
0.4138 1.2069 0.0000
0.4138 1.2414 0.0000
0.4138 1.2759 0.0000
0.4138 1.3103 0.0000
0.4138 1.3448 0.0000
0.4138 1.3793 0.0000
0.4138 1.4138 0.0000
0.4138 1.4483 0.0000
0.4138 1.4828 0.0000
0.4138 1.5172 0.0000
0.4138 1.5517 0.0000
0.4138 1.5862 0.0000
0.4138 1.6207 0.0000
0.4138 1.6552 0.0000
0.4138 1.6897 0.0000
0.4138 1.7241 0.0000
0.4138 1.7586 0.0000
0.4138 1.7931 0.0000
0.4138 1.8276 0.0000
0.4138 1.8621 0.0000
0.4138 1.8966 0.0000
0.4138 1.9310 0.0000
0.4138 1.9655 0.0000
0.4138 2.0000 0.0000
0.4828 1.0000 0.0000
0.4828 1.0345 0.0000
0.4828 1.0690 0.0000
0.4828 1.1034 0.0000
0.4828 1.1379 0.0000
0.4828 1.1724 0.0000
0.4828 1.2069 0.0000
0.4828 1.2414 0.0000
0.4828 1.2759 0.0000
0.4828 1.3103 0.0000
0.4828 1.3448 0.0000
0.4828 1.3793 0.0000
0.4828 1.4138 0.0000
0.4828 1.4483 0.0000
0.4828 1.4828 0.0000
0.4828 1.5172 0.0000
0.4828 1.5517 0.0000
0.4828 1.5862 0.0000
0.4828 1.6207 0.0000
0.4828 1.6552 0.0000
0.4828 1.6897 0.0000
0.4828 1.7241 0.0000
0.4828 1.7586 0.0000
0.4828 1.7931 0.0000
0.4828 1.8276 0.0000
0.4828 1.8621 0.0000
0.4828 1.8966 0.0000
0.4828 1.9310 0.0000
0.4828 1.9655 0.0000
0.4828 2.0000 0.0000
0.5517 1.0000 0.0000
0.5517 1.0345 0.0000
0.5517 1.0690 0.0000
0.5517 1.1034 0.0000
0.5517 1.1379 0.0000
0.5517 1.1724 0.0000
0.5517 1.2069 0.0000
0.5517 1.2414 0.0000
0.5517 1.2759 0.0000
0.5517 1.3103 0.0000
0.5517 1.3448 0.0000
0.5517 1.3793 0.0000
0.5517 1.4138 0.0000
0.5517 1.4483 0.0000
0.5517 1.4828 0.0000
0.5517 1.5172 0.0000
0.5517 1.5517 0.0000
0.5517 1.5862 0.0000
0.5517 1.6207 0.0000
0.5517 1.6552 0.0000
0.5517 1.6897 0.0000
0.5517 1.7241 0.0000
0.5517 1.7586 0.0000
0.5517 1.7931 0.0000
0.5517 1.8276 0.0000
0.5517 1.8621 0.0000
0.5517 1.8966 0.0000
0.5517 1.9310 0.0000
0.5517 1.9655 0.0000
0.5517 2.0000 0.0000
0.6207 1.0000 0.0000
0.6207 1.0345 0.0000
0.6207 1.0690 0.0000
0.6207 1.1034 0.0000
0.6207 1.1379 0.0000
0.6207 1.1724 0.0000
0.6207 1.2069 0.0000
0.6207 1.2414 0.0000
0.6207 1.2759 0.0000
0.6207 1.3103 0.0000
0.6207 1.3448 0.0000
0.6207 1.3793 0.0000
0.6207 1.4138 0.0000
0.6207 1.4483 0.0000
0.6207 1.4828 0.0000
0.6207 1.5172 0.0000
0.6207 1.5517 0.0000
0.6207 1.5862 0.0000
0.6207 1.6207 0.0000
0.6207 1.6552 0.0000
0.6207 1.6897 0.0000
0.6207 1.7241 0.0000
0.6207 1.7586 0.0000
0.6207 1.7931 0.0000
0.6207 1.8276 0.0000
0.6207 1.8621 0.0000
0.6207 1.8966 0.0000
0.6207 1.9310 0.0000
0.6207 1.9655 0.0000
0.6207 2.0000 0.0000
0.6897 1.0000 0.0000
0.6897 1.0345 0.0000
0.6897 1.0690 0.0000
0.6897 1.1034 0.0000
0.6897 1.1379 0.0000
0.6897 1.1724 0.0000
0.6897 1.2069 0.0000
0.6897 1.2414 0.0000
0.6897 1.2759 0.0000
0.6897 1.3103 0.0000
0.6897 1.3448 0.0000
0.6897 1.3793 0.0000
0.6897 1.4138 0.0000
0.6897 1.4483 0.0000
0.6897 1.4828 0.0000
0.6897 1.5172 0.0000
0.6897 1.5517 0.0000
0.6897 1.5862 0.0000
0.6897 1.6207 0.0000
0.6897 1.6552 0.0000
0.6897 1.6897 0.0000
0.6897 1.7241 0.0000
0.6897 1.7586 0.0000
0.6897 1.7931 0.0000
0.6897 1.8276 0.0000
0.6897 1.8621 0.0000
0.6897 1.8966 0.0000
0.6897 1.9310 0.0000
0.6897 1.9655 0.0000
0.6897 2.0000 0.0000
0.7586 1.0000 0.0000
0.7586 1.0345 0.0000
0.7586 1.0690 0.0000
0.7586 1.1034 0.0000
0.7586 1.1379 0.0000
0.7586 1.1724 0.0000
0.7586 1.2069 0.0000
0.7586 1.2414 0.0000
0.7586 1.2759 0.0000
0.7586 1.3103 0.0000
0.7586 1.3448 0.0000
0.7586 1.3793 0.0000
0.7586 1.4138 0.0000
0.7586 1.4483 0.0000
0.7586 1.4828 0.0000
0.7586 1.5172 0.0000
0.7586 1.5517 0.0000
0.7586 1.5862 0.0000
0.7586 1.6207 0.0000
0.7586 1.6552 0.0000
0.7586 1.6897 0.0000
0.7586 1.7241 0.0000
0.7586 1.7586 0.0000
0.7586 1.7931 0.0000
0.7586 1.8276 0.0000
0.7586 1.8621 0.0000
0.7586 1.8966 0.0000
0.7586 1.9310 0.0000
0.7586 1.9655 0.0000
0.7586 2.0000 0.0000
0.8276 1.0000 0.0000
0.8276 1.0345 0.0000
0.8276 1.0690 0.0000
0.8276 1.1034 0.0000
0.8276 1.1379 0.0000
0.8276 1.1724 0.0000
0.8276 1.2069 0.0000
0.8276 1.2414 0.0000
0.8276 1.2759 0.0000
0.8276 1.3103 0.0000
0.8276 1.3448 0.0000
0.8276 1.3793 0.0000
0.8276 1.4138 0.0000
0.8276 1.4483 0.0000
0.8276 1.4828 0.0000
0.8276 1.5172 0.0000
0.8276 1.5517 0.0000
0.8276 1.5862 0.0000
0.8276 1.6207 0.0000
0.8276 1.6552 0.0000
0.8276 1.6897 0.0000
0.8276 1.7241 0.0000
0.8276 1.7586 0.0000
0.8276 1.7931 0.0000
0.8276 1.8276 0.0000
0.8276 1.8621 0.0000
0.8276 1.8966 0.0000
0.8276 1.9310 0.0000
0.8276 1.9655 0.0000
0.8276 2.0000 0.0000
0.8966 1.0000 0.0000
0.8966 1.0345 0.0000
0.8966 1.0690 0.0000
0.8966 1.1034 0.0000
0.8966 1.1379 0.0000
0.8966 1.1724 0.0000
0.8966 1.2069 0.0000
0.8966 1.2414 0.0000
0.8966 1.2759 0.0000
0.8966 1.3103 0.0000
0.8966 1.3448 0.0000
0.8966 1.3793 0.0000
0.8966 1.4138 0.0000
0.8966 1.4483 0.0000
0.8966 1.4828 0.0000
0.8966 1.5172 0.0000
0.8966 1.5517 0.0000
0.8966 1.5862 0.0000
0.8966 1.6207 0.0000
0.8966 1.6552 0.0000
0.8966 1.6897 0.0000
0.8966 1.7241 0.0000
0.8966 1.7586 0.0000
0.8966 1.7931 0.0000
0.8966 1.8276 0.0000
0.8966 1.8621 0.0000
0.8966 1.8966 0.0000
0.8966 1.9310 0.0000
0.8966 1.9655 0.0000
0.8966 2.0000 0.0000
0.9655 1.0000 0.0000
0.9655 1.0345 0.0000
0.9655 1.0690 0.0000
0.9655 1.1034 0.0000
0.9655 1.1379 0.0000
0.9655 1.1724 0.0000
0.9655 1.2069 0.0000
0.9655 1.2414 0.0000
0.9655 1.2759 0.0000
0.9655 1.3103 0.0000
0.9655 1.3448 0.0000
0.9655 1.3793 0.0000
0.9655 1.4138 0.0000
0.9655 1.4483 0.0000
0.9655 1.4828 0.0000
0.9655 1.5172 0.0000
0.9655 1.5517 0.0000
0.9655 1.5862 0.0000
0.9655 1.6207 0.0000
0.9655 1.6552 0.0000
0.9655 1.6897 0.0000
0.9655 1.7241 0.0000
0.9655 1.7586 0.0000
0.9655 1.7931 0.0000
0.9655 1.8276 0.0000
0.9655 1.8621 0.0000
0.9655 1.8966 0.0000
0.9655 1.9310 0.0000
0.9655 1.9655 0.0000
0.9655 2.0000 0.0000
1.0345 1.0000 0.0000
1.0345 1.0345 0.0000
1.0345 1.0690 0.0000
1.0345 1.1034 0.0000
1.0345 1.1379 0.0000
1.0345 1.1724 0.0000
1.0345 1.2069 0.0000
1.0345 1.2414 0.0000
1.0345 1.2759 0.0000
1.0345 1.3103 0.0000
1.0345 1.3448 0.0000
[...]
         <PointData>
            <DataArray Name="fValues" NumberOfComponents="3" format="ascii" type="Float64">
 1.98188e-23 -1.60934e-23        00000 
-1.68440e-23  5.61466e-24        00000 
 2.22088e-23  2.49849e-22        00000 
 4.07394e-22  8.37112e-23        00000 
-4.44176e-22  2.66506e-22        00000 
 1.76376e-21  2.53839e-21        00000 
-2.66506e-21  1.06602e-21        00000 
-4.66550e-21  7.75723e-21        00000 
 3.97982e-20 -5.68545e-20        00000 
-1.82296e-19 -3.13259e-20        00000 
-4.77578e-19 -2.99908e-19        00000 
 2.11443e-19 -4.74319e-19        00000 
-3.63869e-19 -1.18257e-18        00000 
-4.14661e-19 -1.39827e-18        00000 
 3.18385e-19 -8.18705e-19        00000 
-1.52868e-19  5.71468e-21        00000 
 1.81934e-19 -2.04676e-19        00000 
 2.34369e-19 -3.60024e-19        00000 
       00000 -1.42136e-19        00000 
 4.97412e-20 -4.62532e-20        00000 
-3.19807e-21  1.45690e-20        00000 
 1.96061e-21  1.01063e-20        00000 
-8.88352e-22  3.55341e-22        00000 
-6.52947e-22  7.81304e-22        00000 
 3.88654e-23  3.71997e-22        00000 
-1.13243e-22 -1.09655e-22        00000 
-1.66566e-23  4.99698e-23        00000 
-1.04834e-24 -2.30635e-23        00000 
 2.84366e-25 -1.55854e-24        00000 
-9.89200e-25  7.84927e-24        00000 
 1.23023e-08 -9.62248e-08        00000 
 1.58429e-07 -1.73378e-07        00000 
 5.19654e-07 -3.61633e-07        00000 
 1.48743e-06 -4.91317e-07        00000 
 3.53356e-06  5.38293e-07        00000 
 6.17400e-06  6.86840e-06        00000 
 3.06016e-06  2.92160e-05        00000 
-3.33068e-05  8.39650e-05        00000 
-1.84470e-04  1.65514e-04        00000 
-6.20229e-04  1.57105e-04        00000 
-1.52926e-03 -2.84804e-04        00000 
-2.76801e-03 -1.62298e-03        00000 
-3.39179e-03 -3.83270e-03        00000 
-2.06757e-03 -5.82038e-03        00000 
 1.03776e-03 -6.15320e-03        00000 
 3.35631e-03 -4.61998e-03        00000 
 3.27336e-03 -2.22465e-03        00000 
 1.93441e-03 -4.63255e-04        00000 
 7.75109e-04  2.01819e-04        00000 
 2.07952e-04  2.29761e-04        00000 
 2.56955e-05  1.11709e-04        00000 
-9.59391e-06  3.43542e-05        00000 
-8.61572e-06  5.75949e-06        00000 
-3.96956e-06 -7.63905e-07        00000 
-1.36438e-06 -1.08071e-06        00000 
-3.55156e-07 -5.30952e-07        00000 
-5.39183e-08 -1.86733e-07        00000 
 8.79697e-09 -4.97202e-08        00000 
 9.69286e-09 -7.24987e-09        00000 
 1.60949e-08  6.39045e-10        00000 
-1.51065e-08  1.84880e-07        00000 
-1.27564e-07  3.35068e-07        00000 
-3.99829e-07  7.33100e-07        00000 
-1.09932e-06  1.16414e-06        00000 
-2.60287e-06 -6.14174e-08        00000 
-5.03858e-06 -9.93517e-06        00000 
-5.86772e-06 -4.89597e-05        00000 
 1.08882e-05 -1.58275e-04        00000 
 1.11582e-04 -3.69248e-04        00000 
 4.98830e-04 -5.40283e-04        00000 
 1.59124e-03  1.67930e-06        00000 
 3.66337e-03  2.56995e-03        00000 
 5.55057e-03  7.80156e-03        00000 
 4.05291e-03  1.32563e-02        00000 
-1.92420e-03  1.43665e-02        00000 
-6.06377e-03  9.98982e-03        00000 
-4.77592e-03  3.85313e-03        00000 
-2.09927e-03  1.52586e-04        00000 
-5.73529e-04 -7.49374e-04        00000 
-8.88556e-05 -5.08695e-04        00000 
 4.33268e-06 -2.00125e-04        00000 
 1.06486e-05 -5.24212e-05        00000 
 5.70275e-06 -6.32585e-06        00000 
 2.34209e-06  2.42977e-06        00000 
 8.04474e-07  2.13774e-06        00000 
 2.20017e-07  9.76728e-07        00000 
 3.67466e-08  3.32930e-07        00000 
-4.43461e-09  8.52183e-08        00000 
-7.21258e-09  1.29460e-08        00000 
-1.04150e-08 -1.73805e-09        00000 
 1.08847e-08 -2.27528e-07        00000 
 4.19929e-08 -4.03652e-07        00000 
 1.04008e-07 -8.64481e-07        00000 
 2.13704e-07 -1.38523e-06        00000 
 4.42307e-07 -2.98939e-07        00000 
 1.38026e-06  9.41178e-06        00000 
 5.60397e-06  5.02324e-05        00000 
 1.82187e-05  1.78225e-04        00000 
 2.78266e-05  4.85377e-04        00000 
-1.04858e-04  9.60696e-04        00000 
-9.57972e-04  9.07796e-04        00000 
-3.84734e-03 -2.09144e-03        00000 
-8.62774e-03 -1.11440e-02        00000 
-8.57834e-03 -2.35693e-02        00000 
 3.78878e-03 -2.75964e-02        00000 
 1.14939e-02 -1.59186e-02        00000 
 5.95244e-03 -3.68202e-03        00000 
 1.20504e-03  1.28421e-03        00000 
-5.83155e-05  1.40495e-03        00000 
-9.32967e-05  6.36671e-04        00000 
-3.14366e-05  2.02725e-04        00000 
-4.42055e-06  4.58022e-05        00000 
 7.03581e-07  3.93811e-06        00000 
 6.41217e-07 -3.00838e-06        00000 
 2.10262e-07 -2.31623e-06        00000 
 3.91786e-08 -1.05996e-06        00000 
 8.21230e-10 -3.69298e-07        00000 
-2.53762e-09 -9.67809e-08        00000 
-1.25477e-09 -1.53962e-08        00000 
-7.04612e-10  1.86903e-09        00000 
-3.04441e-10  2.22908e-07        00000 
 5.64652e-08  3.81685e-07        00000 
 2.09720e-07  7.73668e-07        00000 
 6.60093e-07  1.15983e-06        00000 
 1.63384e-06  2.03019e-07        00000 
 2.56265e-06 -7.25460e-06        00000 
-1.62426e-06 -3.82300e-05        00000 
-3.08816e-05 -1.43846e-04        00000 
-1.32690e-04 -4.56690e-04        00000 
-3.32496e-04 -1.20904e-03        00000 
-2.32157e-04 -2.30181e-03        00000 
 2.14295e-03 -1.20099e-03        00000 
 1.14577e-02  1.07165e-02        00000 
 1.86861e-02  3.88942e-02        00000 
-7.67246e-03  5.92452e-02        00000 
-2.23277e-02  1.85134e-02        00000 
-4.46390e-03 -1.61004e-03        00000 
 1.12096e-03 -3.86397e-03        00000 
 5.92183e-04 -1.64541e-03        00000 
 1.87912e-04 -5.03937e-04        00000 
 2.85370e-05 -1.29513e-04        00000 
-5.11295e-06 -2.65363e-05        00000 
-6.22763e-06 -1.85947e-06        00000 
-3.01911e-06  2.20394e-06        00000 
-1.05466e-06  1.71171e-06        00000 
-2.74545e-07  8.22030e-07        00000 
-4.11000e-08  3.00798e-07        00000 
 6.74960e-09  8.27708e-08        00000 
 8.67804e-09  1.39291e-08        00000 
 1.14902e-08 -7.36131e-10        00000 
-1.44254e-08 -1.71963e-07        00000 
-1.38990e-07 -2.83779e-07        00000 
-4.50602e-07 -5.33667e-07        00000 
-1.25966e-06 -6.94827e-07        00000 
-2.91979e-06  1.68849e-07        00000 
-5.03438e-06  5.01965e-06        00000 
-2.75700e-06  2.26456e-05        00000 
 2.57947e-05  8.22450e-05        00000 
 1.53307e-04  2.92020e-04        00000 
 5.54653e-04  1.02326e-03        00000 
 1.41407e-03  3.16867e-03        00000 
 1.67468e-03  6.89348e-03        00000 
-4.55831e-03  1.83216e-03        00000 
-3.35187e-02 -5.58246e-02        00000 
 1.33526e-02 -1.77386e-01        00000 
 3.49454e-02  1.19632e-02        00000 
-6.29992e-03  1.50282e-02        00000 
-1.88334e-03  4.47451e-03        00000 
-6.35552e-04  9.35502e-04        00000 
-1.34238e-04  1.85016e-04        00000 
-1.12277e-05  3.93071e-05        00000 
 9.55523e-06  8.13437e-06        00000 
 7.43732e-06  4.50791e-07        00000 
 3.51625e-06 -9.81412e-07        00000 
 1.27319e-06 -7.78260e-07        00000 
 3.52484e-07 -3.87930e-07        00000 
 5.95261e-08 -1.46451e-07        00000 
-6.28995e-09 -4.12943e-08        00000 
-9.16203e-09 -5.63195e-09        00000 
-1.59809e-08  1.22621e-10        00000 
 2.14538e-08  8.02494e-08        00000 
 1.57319e-07  1.34807e-07        00000 
 4.90711e-07  2.44689e-07        00000 
 1.30345e-06  3.00448e-07        00000 
 2.88576e-06 -1.11426e-07        00000 
 4.92226e-06 -2.09715e-06        00000 
 4.02081e-06 -8.24200e-06        00000 
-1.46297e-05 -2.64779e-05        00000 
-1.04347e-04 -9.76772e-05        00000 
-4.42127e-04 -4.57852e-04        00000 
-1.54006e-03 -2.24586e-03        00000 
-4.59990e-03 -9.19750e-03        00000 
-1.04205e-02 -2.32283e-02        00000 
-1.93043e-02  3.52238e-02        00000 
 8.34448e-03  7.73190e-01        00000 
 3.19417e-04 -2.43493e-01        00000 
-6.84190e-05 -6.56217e-03        00000 
-2.30452e-05 -1.08837e-03        00000 
-7.79953e-06 -1.23341e-04        00000 
-1.68859e-06  2.66455e-05        00000 
-1.53903e-07  3.29391e-05        00000 
 1.11568e-07  1.91863e-05        00000 
 8.95853e-08  8.49881e-06        00000 
 4.27477e-08  3.02182e-06        00000 
 1.55796e-08  8.24721e-07        00000 
 4.34964e-09  1.29874e-07        00000 
 7.51785e-10 -2.45796e-08        00000 
-6.69216e-11 -3.24246e-08        00000 
-1.13851e-10 -1.90311e-08        00000 
-8.39911e-10 -5.98512e-09        00000 
-1.01292e-09  1.40577e-08        00000 
 1.93418e-09 -5.39546e-08        00000 
 6.00734e-09 -3.29811e-07        00000 
 1.58911e-08 -1.12585e-06        00000 
 3.50140e-08 -3.06094e-06        00000 
 5.91699e-08 -6.92801e-06        00000 
 4.58026e-08 -1.27101e-05        00000 
-1.89555e-07 -1.61342e-05        00000 
-1.30788e-06  2.02933e-06        00000 
-5.48215e-06  1.18062e-04        00000 
-1.89096e-05  6.85900e-04        00000 
-5.56510e-05  3.53084e-03        00000 
-1.24327e-04  1.72995e-02        00000 
-2.21373e-04  7.29553e-02        00000 
 9.30931e-05  2.10875e-01        00000 
-3.88372e-18  2.38375e-17        00000 
 1.51942e-19 -6.57910e-18        00000 
-2.43251e-20  1.18563e-18        00000 
 2.19876e-21 -2.05420e-19        00000 
 8.15050e-22  3.36327e-20        00000 
-1.11638e-22 -3.44625e-21        00000 
-1.79456e-23  6.12222e-22        00000 
 2.84241e-23 -1.04972e-22        00000 
-1.78547e-23  1.26364e-22        00000 
 7.44619e-24 -3.47489e-23        00000 
 1.08793e-24  1.09184e-23        00000 
-2.74165e-24  1.57163e-24        00000 
 8.84281e-25 -4.58381e-25        00000 
-1.77574e-25  1.11176e-24        00000 
-6.50648e-26 -1.12779e-24        00000 
-3.08137e-25  2.97360e-24        00000 
-2.23197e-25 -4.11036e-24        00000 
 3.51776e-24 -2.04739e-23        00000 
-5.49496e-24  4.30410e-23        00000 
 1.16400e-23 -1.14370e-23        00000 
-3.70118e-23 -3.50893e-22        00000 
-5.81572e-23 -8.73001e-23        00000 
-3.09711e-23 -3.30463e-22        00000 
-7.62032e-22 -6.10755e-21        00000 
 5.27297e-21  2.99148e-20        00000 
-4.03309e-21 -5.36733e-20        00000 
-2.91200e-20  5.62450e-19        00000 
 1.40686e-20 -2.32769e-20        00000 
-1.45054e-19  3.32771e-18        00000 
 1.12878e-19 -8.56214e-18        00000 
 1.34247e-19  1.41634e-18        00000 
-1.64783e-19  1.09487e-18        00000 
 2.03541e-20 -4.19895e-19        00000 
-2.87721e-21  9.41525e-20        00000 
 1.45772e-22 -1.77108e-20        00000 
 1.62602e-23  3.21432e-21        00000 
-1.75341e-24 -4.69786e-22        00000 
-3.60007e-24  9.88444e-23        00000 
 3.16129e-24 -3.09071e-23        00000 
-1.05376e-24  1.01973e-23        00000 
 1.58288e-25 -2.92426e-24        00000 
 2.71359e-25  5.09333e-25        00000 
-2.19332e-25  1.91262e-25        00000 
 6.37246e-26 -1.85461e-25        00000 
-1.91087e-26  1.90758e-25        00000 
-2.46897e-26 -4.11239e-25        00000 
 1.81286e-25 -5.57026e-25        00000 
-5.72268e-25  3.18322e-24        00000 
 1.20468e-24 -3.63087e-24        00000 
-2.86049e-24 -1.08471e-23        00000 
 5.86389e-25  2.00850e-23        00000 
 6.21600e-24  1.60488e-23        00000 
-5.07000e-23 -3.87263e-22        00000 
 2.83984e-22  2.14653e-21        00000 
-5.05017e-22 -7.06129e-21        00000 
-8.00193e-22  3.11088e-20        00000 
 3.24167e-21 -6.24679e-20        00000 
-8.83582e-21  1.97855e-19        00000 
 1.63841e-20 -6.33498e-19        00000 
-8.81947e-21  8.71915e-19        00000 
-1.23317e-20 -4.39162e-19        00000 
 1.91049e-20 -1.29769e-20        00000 
-9.15352e-21  7.54433e-20        00000 
 1.71769e-21 -2.89520e-20        00000 
-2.69612e-22  7.29375e-21        00000 
 3.01165e-23 -1.54204e-21        00000 
-2.76573e-24  2.96511e-22        00000 
 7.12120e-25 -5.37237e-23        00000 
-4.90980e-25  1.15691e-23        00000 
 2.41305e-25 -3.24929e-24        00000 
-5.69609e-26  9.83009e-25        00000 
-1.66357e-26 -2.36646e-25        00000 
 4.41300e-26  2.22778e-26        00000 
-1.73910e-26  2.58556e-26        00000 
 8.87018e-27 -3.07030e-26        00000 
 2.24332e-26 -3.90386e-26        00000 
-4.55914e-26  1.73515e-25        00000 
 1.12452e-25 -3.87122e-25        00000 
-2.27388e-25 -7.18296e-26        00000 
 1.50701e-25  1.24426e-24        00000 
 3.97950e-25  1.33807e-24        00000 
-3.73136e-24 -2.88340e-23        00000 
 1.76286e-23  1.62759e-22        00000 
-4.19643e-23 -6.29922e-22        00000 
 2.69505e-24  2.29443e-21        00000 
 2.15518e-22 -6.37611e-21        00000 
-7.22877e-22  1.72308e-20        00000 
 1.55800e-21 -4.84859e-20        00000 
-2.00134e-21  9.71059e-20        00000 
 8.28339e-22 -1.14878e-19        00000 
 1.37991e-21  7.31037e-20        00000 
-2.38613e-21 -1.76301e-20        00000 
 1.64594e-21 -5.86386e-21        00000 
-6.06822e-22  5.64584e-21        00000 
 1.35013e-22 -2.11609e-21        00000 
-2.41926e-23  5.70574e-22        00000 
 3.60929e-24 -1.30232e-22        00000 
-5.38916e-25  2.70145e-23        00000 
 1.30801e-25 -5.45836e-24        00000 
-6.36632e-26  1.20049e-24        00000 
 1.75377e-26 -3.15038e-25        00000 
-4.09609e-28  8.31514e-26        00000 
-4.74223e-27 -1.67479e-26        00000 
 4.02668e-27  2.26058e-28        00000 
-2.54064e-27  2.13835e-27        00000 
-6.62042e-27  2.10339e-26        00000 
 1.02865e-26 -3.26886e-26        00000 
-2.00673e-26  3.36676e-26        00000 
 2.17603e-26  1.83041e-26        00000 
 6.51456e-26  1.08122e-25        00000 
-2.67593e-25 -2.22477e-24        00000 
 1.19822e-24  1.26970e-23        00000 
-3.21522e-24 -5.22644e-23        00000 
 2.98081e-24  1.85400e-22        00000 
 1.02998e-23 -5.61926e-22        00000 
-5.36393e-23  1.54477e-21        00000 
 1.39509e-22 -4.08206e-21        00000 
-2.41492e-22  9.13023e-21        00000 
 2.55822e-22 -1.49138e-20        00000 
-8.83684e-23  1.65145e-20        00000 
-1.73229e-22 -1.17235e-20        00000 
 3.14938e-22  4.66560e-21        00000 
-2.61718e-22 -3.42559e-22        00000 
 1.32376e-22 -6.91817e-22        00000 
-4.41522e-23  4.41541e-22        00000 
 1.06340e-23 -1.61150e-22        00000 
-2.11523e-24  4.52333e-23        00000 
 3.72735e-25 -1.09230e-23        00000 
-6.78238e-26  2.41882e-24        00000 
 1.34892e-26 -5.32174e-25        00000 
-4.96754e-27  1.20054e-25        00000 
 8.94600e-28 -2.95238e-26        00000 
 4.38176e-28  6.98790e-27        00000 
-6.29565e-28 -1.19014e-27        00000 
 5.72470e-28  9.10625e-29        00000 
 1.90916e-27 -8.17999e-27        00000 
-2.17915e-27  8.36320e-27        00000 
 2.31102e-27 -7.77857e-27        00000 
 6.89329e-27  1.40721e-26        00000 
-7.00658e-27 -1.68776e-25        00000 
 1.45883e-25  9.98925e-25        00000 
-2.90530e-25 -4.25063e-24        00000 
 3.68395e-25  1.52730e-23        00000 
 3.12027e-25 -4.81399e-23        00000 
-3.54046e-24  1.36340e-22        00000 
 1.15208e-23 -3.57880e-22        00000 
-2.44819e-23  8.35956e-22        00000 
 3.62387e-23 -1.59419e-21        00000 
-3.39358e-23  2.32183e-21        00000 
 1.01620e-23 -2.48234e-21        00000 
 2.32446e-23  1.87992e-21        00000 
-4.33478e-23 -9.41310e-22        00000 
 4.03385e-23  2.42059e-22        00000 
-2.46220e-23  3.78362e-23        00000 
 1.06007e-23 -6.76711e-23        00000 
-3.37869e-24  3.54352e-23        00000 
 8.50682e-25 -1.26316e-23        00000 
-1.82945e-25  3.63590e-24        00000 
 3.59608e-26 -9.16958e-25        00000 
-7.57288e-27  2.14922e-25        00000 
 1.61193e-27 -4.90597e-26        00000 
-3.78793e-28  1.13693e-26        00000 
 5.88592e-30 -2.69362e-27        00000 
 8.80452e-29  6.03756e-28        00000 
-1.00092e-28 -2.03137e-28        00000 
-3.44032e-28  1.45692e-27        00000 
 3.24240e-28 -1.56856e-27        00000 
 1.02629e-28  2.87819e-27        00000 
-1.36007e-27 -1.47715e-26        00000 
 8.14489e-27  8.00405e-26        00000 
-2.50925e-26 -3.46271e-25        00000 
 4.17145e-26  1.26675e-24        00000 
-1.07336e-26 -4.08795e-24        00000 
-2.09082e-25  1.18936e-23        00000 
 8.80747e-25 -3.16719e-23        00000 
-2.23865e-24  7.62266e-23        00000 
 4.09126e-24 -1.58408e-22        00000 
-5.40272e-24  2.70459e-22        00000 
 4.63493e-24 -3.66070e-22        00000 
-1.22315e-24  3.83314e-22        00000 
-3.25809e-24 -3.03109e-22        00000 
 6.15585e-24  1.73761e-22        00000 
-6.17928e-24 -6.48094e-23        00000 
 4.27547e-24  8.40874e-24        00000 
-2.18584e-24  7.19998e-24        00000 
 8.56341e-25 -6.20736e-24        00000 
-2.66595e-25  2.89200e-24        00000 
 6.91360e-26 -1.01107e-24        00000 
-1.57701e-26  2.96034e-25        00000 
 3.31909e-27 -7.72159e-26        00000 
-7.19435e-28  1.88119e-26        00000 
 1.54005e-28 -4.44281e-27        00000 
-2.45447e-29  1.04572e-27        00000 
-8.46774e-30 -2.51490e-28        00000 
 1.46885e-29  1.03717e-28        00000 
 5.19129e-29 -2.92942e-28        00000 
-2.77541e-29  4.23602e-28        00000 
-8.99865e-29 -1.42445e-27        00000 
 5.57632e-28  6.64436e-27        00000 
-1.89943e-27 -2.83511e-26        00000 
 4.00619e-27  1.05153e-25        00000 
-3.65672e-27 -3.46108e-25        00000 
-1.03046e-26  1.02983e-24        00000 
 6.30648e-26 -2.79952e-24        00000 
-1.89848e-25  6.92550e-24        00000 
 4.08956e-25 -1.52230e-23        00000 
-6.66560e-25  2.87588e-23        00000 
 8.07219e-25 -4.53260e-23        00000 
-6.47767e-25  5.83208e-23        00000 
 1.51322e-25 -6.02624e-23        00000 
 4.71075e-25  4.91598e-23        00000 
-8.95352e-25 -3.08338e-23        00000 
 9.48583e-25  1.40369e-23        00000 
-7.17932e-25 -3.82586e-24        00000 
 4.15197e-25 -1.77921e-25        00000 
-1.89420e-25  8.58740e-25        00000 
 6.99011e-26 -5.53703e-25        00000 
-2.14768e-26  2.38869e-25        00000 
 5.69265e-27 -8.22154e-26        00000 
-1.35053e-27  2.43277e-26        00000 
 3.02749e-28 -6.51949e-27        00000 
-6.64239e-29  1.63728e-27        00000 
 1.31788e-29 -3.97568e-28        00000 
-8.75786e-31  9.88355e-29        00000 
-1.44320e-30 -4.33353e-29        00000 
-5.20667e-30  7.83434e-29        00000 
-2.20591e-30 -1.50166e-28        00000 
 3.74160e-29  5.75168e-28        00000 
-1.41744e-28 -2.35165e-27        00000 
 3.46316e-28  8.75108e-27        00000 
-4.79687e-28 -2.92572e-26        00000 
-2.88915e-28  8.87812e-26        00000 
 4.17187e-27 -2.46515e-25        00000 
-1.51792e-26  6.25956e-25        00000 
 3.77025e-26 -1.43518e-24        00000 
-7.18899e-26  2.90839e-24        00000 
 1.07158e-25 -5.09169e-24        00000 
-1.21235e-25  7.55619e-24        00000 
 9.22107e-26 -9.37022e-24        00000 
-1.89971e-26  9.59607e-24        00000 
-6.97208e-26 -8.01502e-24        00000 
 1.32702e-25  5.36147e-24        00000 
-1.46342e-25 -2.77433e-24        00000 
 1.18477e-25  1.01596e-24        00000 
-7.51763e-26 -1.72995e-25        00000 
 3.85112e-26 -7.94022e-26        00000 
-1.62502e-26  8.89546e-26        00000 
 5.76059e-27 -4.87260e-26        00000 
-1.75600e-27  1.99067e-26        00000 
 4.71699e-28 -6.74141e-27        00000 
-1.16213e-28  2.01979e-27        00000 
 2.69608e-29 -5.52221e-28        00000 
-5.88871e-30  1.42351e-28        00000 
 1.04152e-30 -3.70046e-29        00000 
-1.58412e-31  1.68105e-29        00000 
-1.71697e-31 -2.59615e-29        00000 
 2.19016e-30  5.39697e-29        00000 
-1.02294e-29 -1.99124e-28        00000 
 2.72488e-29  7.32002e-28        00000 
-3.19485e-29 -2.46629e-27        00000 
 1.63662e-31  7.64814e-27        00000 
 2.84389e-28 -2.16088e-26        00000 
-1.15169e-27  5.62625e-26        00000 
 3.27117e-27 -1.33519e-25        00000 
-7.10737e-27  2.85171e-25        00000 
 1.23304e-26 -5.39035e-25        00000 
-1.71090e-26  8.87627e-25        00000 
 1.83195e-26 -1.25712e-24        00000 
-1.33238e-26  1.51588e-24        00000 
 2.39483e-27 -1.54274e-24        00000 
 1.05090e-26  1.31269e-24        00000 
-1.99692e-26 -9.21709e-25        00000 