<?xml version="1.0" encoding="utf-8"?>
<VTKFile byte_order="LittleEndian" type="UnstructuredGrid" version="0.1">
   <UnstructuredGrid>
      <Piece NumberOfCells="3364" NumberOfPoints="1741">
         <Points>
            <DataArray Name="Points" NumberOfComponents="3" format="ascii" type="Float32">
0.0000 1.0000 0.0000
0.0000 1.0345 0.0000
0.0000 1.0690 0.0000
0.0000 1.1034 0.0000
0.0000 1.1379 0.0000
0.0000 1.1724 0.0000
0.0000 1.2069 0.0000
0.0000 1.2414 0.0000
0.0000 1.2759 0.0000
0.0000 1.3103 0.0000
0.0000 1.3448 0.0000
0.0000 1.3793 0.0000
0.0000 1.4138 0.0000
0.0000 1.4483 0.0000
0.0000 1.4828 0.0000
0.0000 1.5172 0.0000
0.0000 1.5517 0.0000
0.0000 1.5862 0.0000
0.0000 1.6207 0.0000
0.0000 1.6552 0.0000
0.0000 1.6897 0.0000
0.0000 1.7241 0.0000
0.0000 1.7586 0.0000
0.0000 1.7931 0.0000
0.0000 1.8276 0.0000
0.0000 1.8621 0.0000
0.0000 1.8966 0.0000
0.0000 1.9310 0.0000
0.0000 1.9655 0.0000
0.0000 2.0000 0.0000
0.0690 1.0000 0.0000
0.0690 1.0345 0.0000
0.0690 1.0690 0.0000
0.0690 1.1034 0.0000
0.0690 1.1379 0.0000
0.0690 1.1724 0.0000
0.0690 1.2069 0.0000
0.0690 1.2414 0.0000
0.0690 1.2759 0.0000
0.0690 1.3103 0.0000
0.0690 1.3448 0.0000
0.0690 1.3793 0.0000
0.0690 1.4138 0.0000
0.0690 1.4483 0.0000
0.0690 1.4828 0.0000
0.0690 1.5172 0.0000
0.0690 1.5517 0.0000
0.0690 1.5862 0.0000
0.0690 1.6207 0.0000
0.0690 1.6552 0.0000
0.0690 1.6897 0.0000
0.0690 1.7241 0.0000
0.0690 1.7586 0.0000
0.0690 1.7931 0.0000
0.0690 1.8276 0.0000
0.0690 1.8621 0.0000
0.0690 1.8966 0.0000
0.0690 1.9310 0.0000
0.0690 1.9655 0.0000
0.0690 2.0000 0.0000
0.1379 1.0000 0.0000
0.1379 1.0345 0.0000
0.1379 1.0690 0.0000
0.1379 1.1034 0.0000
0.1379 1.1379 0.0000
0.1379 1.1724 0.0000
0.1379 1.2069 0.0000
0.1379 1.2414 0.0000
0.1379 1.2759 0.0000
0.1379 1.3103 0.0000
0.1379 1.3448 0.0000
0.1379 1.3793 0.0000
0.1379 1.4138 0.0000
0.1379 1.4483 0.0000
0.1379 1.4828 0.0000
0.1379 1.5172 0.0000
0.1379 1.5517 0.0000
0.1379 1.5862 0.0000
0.1379 1.6207 0.0000
0.1379 1.6552 0.0000
0.1379 1.6897 0.0000
0.1379 1.7241 0.0000
0.1379 1.7586 0.0000
0.1379 1.7931 0.0000
0.1379 1.8276 0.0000
0.1379 1.8621 0.0000
0.1379 1.8966 0.0000
0.1379 1.9310 0.0000
0.1379 1.9655 0.0000
0.1379 2.0000 0.0000
0.2069 1.0000 0.0000
0.2069 1.0345 0.0000
0.2069 1.0690 0.0000
0.2069 1.1034 0.0000
0.2069 1.1379 0.0000
0.2069 1.1724 0.0000
0.2069 1.2069 0.0000
0.2069 1.2414 0.0000
0.2069 1.2759 0.0000
0.2069 1.3103 0.0000
0.2069 1.3448 0.0000
0.2069 1.3793 0.0000
0.2069 1.4138 0.0000
0.2069 1.4483 0.0000
0.2069 1.4828 0.0000
0.2069 1.5172 0.0000
0.2069 1.5517 0.0000
0.2069 1.5862 0.0000
0.2069 1.6207 0.0000
0.2069 1.6552 0.0000
0.2069 1.6897 0.0000
0.2069 1.7241 0.0000
0.2069 1.7586 0.0000
0.2069 1.7931 0.0000
0.2069 1.8276 0.0000
0.2069 1.8621 0.0000
0.2069 1.8966 0.0000
0.2069 1.9310 0.0000
0.2069 1.9655 0.0000
0.2069 2.0000 0.0000
0.2759 1.0000 0.0000
0.2759 1.0345 0.0000
0.2759 1.0690 0.0000
0.2759 1.1034 0.0000
0.2759 1.1379 0.0000
0.2759 1.1724 0.0000
0.2759 1.2069 0.0000
0.2759 1.2414 0.0000
0.2759 1.2759 0.0000
0.2759 1.3103 0.0000
0.2759 1.3448 0.0000
0.2759 1.3793 0.0000
0.2759 1.4138 0.0000
0.2759 1.4483 0.0000
0.2759 1.4828 0.0000
0.2759 1.5172 0.0000
0.2759 1.5517 0.0000
0.2759 1.5862 0.0000
0.2759 1.6207 0.0000
0.2759 1.6552 0.0000
0.2759 1.6897 0.0000
0.2759 1.7241 0.0000
0.2759 1.7586 0.0000
0.2759 1.7931 0.0000
0.2759 1.8276 0.0000
0.2759 1.8621 0.0000
0.2759 1.8966 0.0000
0.2759 1.9310 0.0000
0.2759 1.9655 0.0000
0.2759 2.0000 0.0000
0.3448 1.0000 0.0000
0.3448 1.0345 0.0000
0.3448 1.0690 0.0000
0.3448 1.1034 0.0000
0.3448 1.1379 0.0000
0.3448 1.1724 0.0000
0.3448 1.2069 0.0000
0.3448 1.2414 0.0000
0.3448 1.2759 0.0000
0.3448 1.3103 0.0000
0.3448 1.3448 0.0000
0.3448 1.3793 0.0000
0.3448 1.4138 0.0000
0.3448 1.4483 0.0000
0.3448 1.4828 0.0000
0.3448 1.5172 0.0000
0.3448 1.5517 0.0000
0.3448 1.5862 0.0000
0.3448 1.6207 0.0000
0.3448 1.6552 0.0000
0.3448 1.6897 0.0000
0.3448 1.7241 0.0000
0.3448 1.7586 0.0000
0.3448 1.7931 0.0000
0.3448 1.8276 0.0000
0.3448 1.8621 0.0000
0.3448 1.8966 0.0000
0.3448 1.9310 0.0000
0.3448 1.9655 0.0000
0.3448 2.0000 0.0000
0.4138 1.0000 0.0000
0.4138 1.0345 0.0000
0.4138 1.0690 0.0000
0.4138 1.1034 0.0000
0.4138 1.1379 0.0000
0.4138 1.1724 0.0000
0.4138 1.2069 0.0000
0.4138 1.2414 0.0000
0.4138 1.2759 0.0000
0.4138 1.3103 0.0000
0.4138 1.3448 0.0000
0.4138 1.3793 0.0000
0.4138 1.4138 0.0000
0.4138 1.4483 0.0000
0.4138 1.4828 0.0000
0.4138 1.5172 0.0000
0.4138 1.5517 0.0000
0.4138 1.5862 0.0000
0.4138 1.6207 0.0000
0.4138 1.6552 0.0000
0.4138 1.6897 0.0000
0.4138 1.7241 0.0000
0.4138 1.7586 0.0000
0.4138 1.7931 0.0000
0.4138 1.8276 0.0000
0.4138 1.8621 0.0000
0.4138 1.8966 0.0000
0.4138 1.9310 0.0000
0.4138 1.9655 0.0000
0.4138 2.0000 0.0000
0.4828 1.0000 0.0000
0.4828 1.0345 0.0000
0.4828 1.0690 0.0000
0.4828 1.1034 0.0000
0.4828 1.1379 0.0000
0.4828 1.1724 0.0000
0.4828 1.2069 0.0000
0.4828 1.2414 0.0000
0.4828 1.2759 0.0000
0.4828 1.3103 0.0000
0.4828 1.3448 0.0000
0.4828 1.3793 0.0000
0.4828 1.4138 0.0000
0.4828 1.4483 0.0000
0.4828 1.4828 0.0000
0.4828 1.5172 0.0000
0.4828 1.5517 0.0000
0.4828 1.5862 0.0000
0.4828 1.6207 0.0000
0.4828 1.6552 0.0000
0.4828 1.6897 0.0000
0.4828 1.7241 0.0000
0.4828 1.7586 0.0000
0.4828 1.7931 0.0000
0.4828 1.8276 0.0000
0.4828 1.8621 0.0000
0.4828 1.8966 0.0000
0.4828 1.9310 0.0000
0.4828 1.9655 0.0000
0.4828 2.0000 0.0000
0.5517 1.0000 0.0000
0.5517 1.0345 0.0000
0.5517 1.0690 0.0000
0.5517 1.1034 0.0000
0.5517 1.1379 0.0000
0.5517 1.1724 0.0000
0.5517 1.2069 0.0000
0.5517 1.2414 0.0000
0.5517 1.2759 0.0000
0.5517 1.3103 0.0000
0.5517 1.3448 0.0000
0.5517 1.3793 0.0000
0.5517 1.4138 0.0000
0.5517 1.4483 0.0000
0.5517 1.4828 0.0000
0.5517 1.5172 0.0000
0.5517 1.5517 0.0000
0.5517 1.5862 0.0000
0.5517 1.6207 0.0000
0.5517 1.6552 0.0000
0.5517 1.6897 0.0000
0.5517 1.7241 0.0000
0.5517 1.7586 0.0000
0.5517 1.7931 0.0000
0.5517 1.8276 0.0000
0.5517 1.8621 0.0000
0.5517 1.8966 0.0000
0.5517 1.9310 0.0000
0.5517 1.9655 0.0000
0.5517 2.0000 0.0000
0.6207 1.0000 0.0000
0.6207 1.0345 0.0000
0.6207 1.0690 0.0000
0.6207 1.1034 0.0000
0.6207 1.1379 0.0000
0.6207 1.1724 0.0000
0.6207 1.2069 0.0000
0.6207 1.2414 0.0000
0.6207 1.2759 0.0000
0.6207 1.3103 0.0000
0.6207 1.3448 0.0000
0.6207 1.3793 0.0000
0.6207 1.4138 0.0000
0.6207 1.4483 0.0000
0.6207 1.4828 0.0000
0.6207 1.5172 0.0000
0.6207 1.5517 0.0000
0.6207 1.5862 0.0000
0.6207 1.6207 0.0000
0.6207 1.6552 0.0000
0.6207 1.6897 0.0000
0.6207 1.7241 0.0000
0.6207 1.7586 0.0000
0.6207 1.7931 0.0000
0.6207 1.8276 0.0000
0.6207 1.8621 0.0000
0.6207 1.8966 0.0000
0.6207 1.9310 0.0000
0.6207 1.9655 0.0000
0.6207 2.0000 0.0000
0.6897 1.0000 0.0000
0.6897 1.0345 0.0000
0.6897 1.0690 0.0000
0.6897 1.1034 0.0000
0.6897 1.1379 0.0000
0.6897 1.1724 0.0000
0.6897 1.2069 0.0000
0.6897 1.2414 0.0000
0.6897 1.2759 0.0000
0.6897 1.3103 0.0000
0.6897 1.3448 0.0000
0.6897 1.3793 0.0000
0.6897 1.4138 0.0000
0.6897 1.4483 0.0000
0.6897 1.4828 0.0000
0.6897 1.5172 0.0000
0.6897 1.5517 0.0000
0.6897 1.5862 0.0000
0.6897 1.6207 0.0000
0.6897 1.6552 0.0000
0.6897 1.6897 0.0000
0.6897 1.7241 0.0000
0.6897 1.7586 0.0000
0.6897 1.7931 0.0000
0.6897 1.8276 0.0000
0.6897 1.8621 0.0000
0.6897 1.8966 0.0000
0.6897 1.9310 0.0000
0.6897 1.9655 0.0000
0.6897 2.0000 0.0000
0.7586 1.0000 0.0000
0.7586 1.0345 0.0000
0.7586 1.0690 0.0000
0.7586 1.1034 0.0000
0.7586 1.1379 0.0000
0.7586 1.1724 0.0000
0.7586 1.2069 0.0000
0.7586 1.2414 0.0000
0.7586 1.2759 0.0000
0.7586 1.3103 0.0000
0.7586 1.3448 0.0000
0.7586 1.3793 0.0000
0.7586 1.4138 0.0000
0.7586 1.4483 0.0000
0.7586 1.4828 0.0000
0.7586 1.5172 0.0000
0.7586 1.5517 0.0000
0.7586 1.5862 0.0000
0.7586 1.6207 0.0000
0.7586 1.6552 0.0000
0.7586 1.6897 0.0000
0.7586 1.7241 0.0000
0.7586 1.7586 0.0000
0.7586 1.7931 0.0000
0.7586 1.8276 0.0000
0.7586 1.8621 0.0000
0.7586 1.8966 0.0000
0.7586 1.9310 0.0000
0.7586 1.9655 0.0000
0.7586 2.0000 0.0000
0.8276 1.0000 0.0000
0.8276 1.0345 0.0000
0.8276 1.0690 0.0000
0.8276 1.1034 0.0000
0.8276 1.1379 0.0000
0.8276 1.1724 0.0000
0.8276 1.2069 0.0000
0.8276 1.2414 0.0000
0.8276 1.2759 0.0000
0.8276 1.3103 0.0000
0.8276 1.3448 0.0000
0.8276 1.3793 0.0000
0.8276 1.4138 0.0000
0.8276 1.4483 0.0000
0.8276 1.4828 0.0000
0.8276 1.5172 0.0000
0.8276 1.5517 0.0000
0.8276 1.5862 0.0000
0.8276 1.6207 0.0000
0.8276 1.6552 0.0000
0.8276 1.6897 0.0000
0.8276 1.7241 0.0000
0.8276 1.7586 0.0000
0.8276 1.7931 0.0000
0.8276 1.8276 0.0000
0.8276 1.8621 0.0000
0.8276 1.8966 0.0000
0.8276 1.9310 0.0000
0.8276 1.9655 0.0000
0.8276 2.0000 0.0000
0.8966 1.0000 0.0000
0.8966 1.0345 0.0000
0.8966 1.0690 0.0000
0.8966 1.1034 0.0000
0.8966 1.1379 0.0000
0.8966 1.1724 0.0000
0.8966 1.2069 0.0000
0.8966 1.2414 0.0000
0.8966 1.2759 0.0000
0.8966 1.3103 0.0000
0.8966 1.3448 0.0000
0.8966 1.3793 0.0000
0.8966 1.4138 0.0000
0.8966 1.4483 0.0000
0.8966 1.4828 0.0000
0.8966 1.5172 0.0000
0.8966 1.5517 0.0000
0.8966 1.5862 0.0000
0.8966 1.6207 0.0000
0.8966 1.6552 0.0000
0.8966 1.6897 0.0000
0.8966 1.7241 0.0000
0.8966 1.7586 0.0000
0.8966 1.7931 0.0000
0.8966 1.8276 0.0000
0.8966 1.8621 0.0000
0.8966 1.8966 0.0000
0.8966 1.9310 0.0000
0.8966 1.9655 0.0000
0.8966 2.0000 0.0000
0.9655 1.0000 0.0000
0.9655 1.0345 0.0000
0.9655 1.0690 0.0000
0.9655 1.1034 0.0000
0.9655 1.1379 0.0000
0.9655 1.1724 0.0000
0.9655 1.2069 0.0000
0.9655 1.2414 0.0000
0.9655 1.2759 0.0000
0.9655 1.3103 0.0000
0.9655 1.3448 0.0000
0.9655 1.3793 0.0000
0.9655 1.4138 0.0000
0.9655 1.4483 0.0000
0.9655 1.4828 0.0000
0.9655 1.5172 0.0000
0.9655 1.5517 0.0000
0.9655 1.5862 0.0000
0.9655 1.6207 0.0000
0.9655 1.6552 0.0000
0.9655 1.6897 0.0000
0.9655 1.7241 0.0000
0.9655 1.7586 0.0000
0.9655 1.7931 0.0000
0.9655 1.8276 0.0000
0.9655 1.8621 0.0000
0.9655 1.8966 0.0000
0.9655 1.9310 0.0000
0.9655 1.9655 0.0000
0.9655 2.0000 0.0000
1.0345 1.0000 0.0000
1.0345 1.0345 0.0000
1.0345 1.0690 0.0000
1.0345 1.1034 0.0000
1.0345 1.1379 0.0000
1.0345 1.1724 0.0000
1.0345 1.2069 0.0000
1.0345 1.2414 0.0000
1.0345 1.2759 0.0000
1.0345 1.3103 0.0000
1.0345 1.3448 0.0000
[...]
         <PointData>
            <DataArray Name="fValues" NumberOfComponents="3" format="ascii" type="Float64">
-3.15219e-20  2.65411e-20        00000 
 5.74941e-21 -4.59953e-20        00000 
-1.42136e-21 -2.48738e-20        00000 
-1.97112e-20 -1.07150e-21        00000 
 3.55341e-22  1.77670e-20        00000 
-3.92371e-21 -2.62983e-20        00000 
 2.84273e-21  8.52818e-21        00000 
 5.35751e-22 -9.68817e-21        00000 
-1.77670e-22  6.92914e-21        00000 
 3.67000e-21  9.87160e-22        00000 
-3.55341e-22 -5.86312e-21        00000 
 6.34810e-22 -1.79386e-21        00000 
 1.66566e-22 -3.33132e-23        00000 
 1.28419e-22 -2.69148e-22        00000 
 5.55220e-23  1.94327e-23        00000 
-6.27834e-24  2.33694e-23        00000 
 3.03636e-24 -5.29194e-24        00000 
 8.31662e-25  2.51046e-24        00000 
-2.60259e-25 -1.73506e-25        00000 
 2.42666e-26 -2.52571e-25        00000 
 3.06686e-26  5.55762e-26        00000 
-6.58024e-27  3.26649e-27        00000 
 4.65959e-28  5.42207e-27        00000 
 3.03366e-28 -2.04373e-27        00000 
-1.86384e-27  2.32980e-27        00000 
-3.96263e-28  2.07248e-27        00000 
 1.69440e-28  1.27080e-28        00000 
-2.45278e-28 -3.95911e-28        00000 
 2.26967e-29 -8.44452e-29        00000 
 2.23443e-29 -2.55571e-28        00000 
 3.39703e-04  1.46674e-04        00000 
-6.57403e-05  1.18559e-04        00000 
-1.22986e-04  1.02414e-04        00000 
-1.18626e-04  3.40603e-05        00000 
-7.77147e-05 -2.67070e-05        00000 
-2.87592e-05 -5.54431e-05        00000 
 6.62795e-06 -5.48225e-05        00000 
 2.17089e-05 -3.90997e-05        00000 
 2.17944e-05 -2.17223e-05        00000 
 1.55411e-05 -9.44924e-06        00000 
 8.99018e-06 -3.02077e-06        00000 
 4.45109e-06 -4.94849e-07        00000 
 1.94554e-06  1.70685e-07        00000 
 7.67760e-07  2.03170e-07        00000 
 2.78787e-07  1.15656e-07        00000 
 9.48210e-08  5.02717e-08        00000 
 3.07044e-08  1.86058e-08        00000 
 9.56759e-09  6.24938e-09        00000 
 2.85417e-09  2.03797e-09        00000 
 7.81015e-10  6.96359e-10        00000 
 1.67410e-10  2.61239e-10        00000 
 4.50065e-12  1.05309e-10        00000 
-2.56711e-11  4.28357e-11        00000 
-2.20671e-11  1.65970e-11        00000 
-1.36410e-11  5.86051e-12        00000 
-7.28830e-12  1.78843e-12        00000 
-3.54539e-12  4.13722e-13        00000 
-1.59058e-12  1.82429e-14        00000 
-6.37969e-13 -1.14965e-13        00000 
-7.54304e-13 -7.75795e-14        00000 
-4.55912e-04 -3.62132e-04        00000 
 5.78172e-05 -3.25167e-04        00000 
 1.94596e-04 -2.17594e-04        00000 
 1.75131e-04 -5.21778e-05        00000 
 1.02372e-04  7.99581e-05        00000 
 2.60559e-05  1.33870e-04        00000 
-2.12709e-05  1.21695e-04        00000 
-3.55266e-05  8.04365e-05        00000 
-3.00080e-05  4.09098e-05        00000 
-1.89757e-05  1.57334e-05        00000 
-9.94864e-06  3.92857e-06        00000 
-4.55400e-06 -3.42148e-08        00000 
-1.88587e-06 -7.29858e-07        00000 
-7.26394e-07 -5.24995e-07        00000 
-2.65918e-07 -2.61055e-07        00000 
-9.38596e-08 -1.07117e-07        00000 
-3.21042e-08 -3.88813e-08        00000 
-1.05728e-08 -1.31449e-08        00000 
-3.27843e-09 -4.37241e-09        00000 
-9.06678e-10 -1.50994e-09        00000 
-1.88939e-10 -5.55305e-10        00000 
-1.37210e-12 -2.12903e-10        00000 
 3.05578e-11 -8.09405e-11        00000 
 2.48667e-11 -2.89058e-11        00000 
 1.48724e-11 -9.12059e-12        00000 
 7.76139e-12 -2.24307e-12        00000 
 3.71188e-12 -2.02185e-13        00000 
 1.63906e-12  2.30693e-13        00000 
 7.35486e-13  2.14852e-13        00000 
 7.50417e-13  1.62602e-13        00000 
 6.17673e-04  6.36134e-04        00000 
-9.68709e-05  5.72206e-04        00000 
-2.92730e-04  3.51847e-04        00000 
-2.47156e-04  4.61996e-05        00000 
-1.18961e-04 -1.73727e-04        00000 
-4.41441e-06 -2.43267e-04        00000 
 5.05401e-05 -2.00703e-04        00000 
 5.43817e-05 -1.20683e-04        00000 
 3.68723e-05 -5.50410e-05        00000 
 1.93338e-05 -1.82502e-05        00000 
 8.52274e-06 -3.22914e-06        00000 
 3.35881e-06  9.04157e-07        00000 
 1.25545e-06  1.21122e-06        00000 
 4.68965e-07  7.31340e-07        00000 
 1.79671e-07  3.40669e-07        00000 
 6.97740e-08  1.37369e-07        00000 
 2.65364e-08  5.07230e-08        00000 
 9.52377e-09  1.78975e-08        00000 
 3.10810e-09  6.27064e-09        00000 
 8.70363e-10  2.24468e-09        00000 
 1.75355e-10  8.26782e-10        00000 
-2.49100e-12  3.07726e-10        00000 
-2.94878e-11  1.11781e-10        00000 
-2.24270e-11  3.79018e-11        00000 
-1.27839e-11  1.12200e-11        00000 
-6.42487e-12  2.43274e-12        00000 
-2.98665e-12  5.57814e-15        00000 
-1.29900e-12 -4.07854e-13        00000 
-5.88600e-13 -2.93775e-13        00000 
-5.85105e-13 -2.27671e-13        00000 
-8.86031e-04 -1.03521e-03        00000 
 1.84292e-04 -9.07676e-04        00000 
 4.69604e-04 -5.04506e-04        00000 
 3.57544e-04  1.47545e-05        00000 
 1.24226e-04  3.46039e-04        00000 
-4.82853e-05  4.04727e-04        00000 
-1.01048e-04  2.93796e-04        00000 
-7.89054e-05  1.53994e-04        00000 
-4.17050e-05  5.93511e-05        00000 
-1.68260e-05  1.51670e-05        00000 
-5.49913e-06  6.67715e-07        00000 
-1.56029e-06 -1.99596e-06        00000 
-4.49042e-07 -1.52974e-06        00000 
-1.66724e-07 -7.98590e-07        00000 
-8.03715e-08 -3.54209e-07        00000 
-4.03268e-08 -1.43942e-07        00000 
-1.84436e-08 -5.57188e-08        00000 
-7.39475e-09 -2.10329e-08        00000 
-2.55162e-09 -7.85178e-09        00000 
-7.25184e-10 -2.91579e-09        00000 
-1.42432e-10 -1.07428e-09        00000 
 4.07782e-12 -3.88173e-10        00000 
 2.38868e-11 -1.34677e-10        00000 
 1.69493e-11 -4.33162e-11        00000 
 9.07367e-12 -1.20376e-11        00000 
 4.30600e-12 -2.29909e-12        00000 
 1.90884e-12  2.03676e-13        00000 
 8.03502e-13  5.39378e-13        00000 
 3.59236e-13  3.50370e-13        00000 
 3.53425e-13  2.66540e-13        00000 
 1.34221e-03  1.66123e-03        00000 
-3.51662e-04  1.40287e-03        00000 
-7.84153e-04  6.68489e-04        00000 
-5.21099e-04 -2.00721e-04        00000 
-8.67953e-05 -6.64171e-04        00000 
 1.61038e-04 -6.41399e-04        00000 
 1.78213e-04 -3.91525e-04        00000 
 1.02799e-04 -1.66652e-04        00000 
 3.95882e-05 -4.78070e-05        00000 
 1.01989e-05 -5.84591e-06        00000 
 1.18056e-06  3.09996e-06        00000 
-4.27916e-07  2.90361e-06        00000 
-3.17138e-07  1.57872e-06        00000 
-1.02381e-07  7.27920e-07        00000 
-1.04922e-08  3.15852e-07        00000 
 9.95073e-09  1.33913e-07        00000 
 8.36962e-09  5.58318e-08        00000 
 4.14228e-09  2.27563e-08        00000 
 1.56279e-09  9.00352e-09        00000 
 4.58617e-10  3.44158e-09        00000 
 8.94732e-11  1.26634e-09        00000 
-2.73386e-12  4.45859e-10        00000 
-1.38058e-11  1.48247e-10        00000 
-8.89140e-12  4.51821e-11        00000 
-4.20032e-12  1.16946e-11        00000 
-1.71814e-12  1.88944e-12        00000 
-6.51009e-13 -4.19673e-13        00000 
-2.38245e-13 -6.29483e-13        00000 
-9.73890e-14 -3.80940e-13        00000 
-9.43220e-14 -2.82776e-13        00000 
-2.13312e-03 -2.70532e-03        00000 
 6.35442e-04 -2.19223e-03        00000 
 1.31934e-03 -8.10687e-04        00000 
 7.23839e-04  6.75432e-04        00000 
-8.06044e-05  1.25163e-03        00000 
-3.80368e-04  9.65077e-04        00000 
-2.73203e-04  4.57011e-04        00000 
-1.08632e-04  1.35147e-04        00000 
-2.39437e-05  1.65612e-05        00000 
 5.35793e-07 -7.37475e-06        00000 
 3.56741e-06 -6.41223e-06        00000 
 2.13584e-06 -3.12952e-06        00000 
 8.93350e-07 -1.32162e-06        00000 
 3.04422e-07 -5.60001e-07        00000 
 8.74295e-08 -2.50293e-07        00000 
 2.06041e-08 -1.15367e-07        00000 
 3.47781e-09 -5.25238e-08        00000 
 1.26081e-10 -2.29384e-08        00000 
-1.86272e-10 -9.48776e-09        00000 
-8.34938e-11 -3.70288e-09        00000 
-1.84049e-11 -1.36210e-09        00000 
-9.45677e-13 -4.70745e-10        00000 
 5.55138e-14 -1.51240e-10        00000 
-1.14651e-12 -4.38662e-11        00000 
-1.45571e-12 -1.05265e-11        00000 
-1.12102e-12 -1.35097e-12        00000 
-6.73597e-13  5.97067e-13        00000 
-3.42076e-13  6.68345e-13        00000 
-1.68476e-13  3.82672e-13        00000 
-1.67539e-13  2.77527e-13        00000 
 3.53315e-03  4.55036e-03        00000 
-9.65813e-04  3.62407e-03        00000 
-2.07141e-03  8.43974e-04        00000 
-8.00358e-04 -1.87261e-03        00000 
 6.06983e-04 -2.33933e-03        00000 
 7.40037e-04 -1.32371e-03        00000 
 3.31074e-04 -4.00495e-04        00000 
 6.47227e-05 -3.51038e-05        00000 
-5.55821e-06  2.72868e-05        00000 
-1.26585e-05  1.84776e-05        00000 
-7.30208e-06  7.40234e-06        00000 
-3.19694e-06  2.49503e-06        00000 
-1.23137e-06  8.69905e-07        00000 
-4.43383e-07  3.66854e-07        00000 
-1.52875e-07  1.82385e-07        00000 
-5.08185e-08  9.40341e-08        00000 
-1.62343e-08  4.63887e-08        00000 
-4.94041e-09  2.13247e-08        00000 
-1.40636e-09  9.09682e-09        00000 
-3.55776e-10  3.60659e-09        00000 
-6.49034e-11  1.33024e-09        00000 
 5.09964e-12  4.55155e-10        00000 
 1.53862e-11  1.42864e-10        00000 
 1.20429e-11  3.98438e-11        00000 
 7.35276e-12  8.91994e-12        00000 
 3.96390e-12  8.57481e-13        00000 
 1.95450e-12 -6.79538e-13        00000 
 8.88791e-13 -6.43782e-13        00000 
 4.15095e-13 -3.55019e-13        00000 
 4.11014e-13 -2.52101e-13        00000 
-5.86710e-03 -7.90580e-03        00000 
 4.21362e-04 -6.91803e-03        00000 
 2.25712e-03 -6.05090e-04        00000 
-2.88606e-04  5.13288e-03        00000 
-1.94971e-03  4.30485e-03        00000 
-1.15474e-03  1.44121e-03        00000 
-1.59065e-04  7.11678e-05        00000 
 2.45661e-05 -1.08995e-04        00000 
 3.94807e-05 -6.09530e-05        00000 
 2.09450e-05 -2.08008e-05        00000 
 8.99998e-06 -5.59005e-06        00000 
 3.56334e-06 -1.38578e-06        00000 
 1.38784e-06 -4.31291e-07        00000 
 5.39788e-07 -2.10041e-07        00000 
 2.08216e-07 -1.24645e-07        00000 
 7.82998e-08 -7.14526e-08        00000 
 2.81978e-08 -3.73354e-08        00000 
 9.54575e-09 -1.77589e-08        00000 
 2.95879e-09 -7.74559e-09        00000 
 7.93285e-10 -3.11446e-09        00000 
 1.51188e-10 -1.15643e-09        00000 
-7.16179e-12 -3.95156e-10        00000 
-2.95749e-11 -1.22725e-10        00000 
-2.21299e-11 -3.34729e-11        00000 
-1.27231e-11 -7.17251e-12        00000 
-6.48894e-12 -5.49776e-13        00000 
-3.06257e-12  6.19198e-13        00000 
-1.34977e-12  5.45787e-13        00000 
-6.17211e-13  3.00242e-13        00000 
-6.14582e-13  2.07352e-13        00000 
 9.63944e-03  1.43190e-02        00000 
 4.20724e-03  1.67992e-02        00000 
 6.18945e-03 -1.72623e-04        00000 
 6.14181e-03 -1.48746e-02        00000 
 5.84692e-03 -7.29517e-03        00000 
 9.01110e-05 -2.92348e-04        00000 
-1.22448e-04  4.03405e-04        00000 
-1.26801e-04  1.96970e-04        00000 
-5.64968e-05  5.95303e-05        00000 
-2.25925e-05  1.38382e-05        00000 
-8.69088e-06  2.61857e-06        00000 
-3.45528e-06  4.64815e-07        00000 
-1.42091e-06  1.52219e-07        00000 
-5.92639e-07  1.05516e-07        00000 
-2.43891e-07  7.53382e-08        00000 
-9.68878e-08  4.65384e-08        00000 
-3.65165e-08  2.52468e-08        00000 
-1.28357e-08  1.23105e-08        00000 
-4.10233e-09  5.47286e-09        00000 
-1.12852e-09  2.23423e-09        00000 
-2.22779e-10  8.39104e-10        00000 
 5.11009e-12  2.88875e-10        00000 
 3.85471e-11  9.00380e-11        00000 
 2.88842e-11  2.45773e-11        00000 
 1.63244e-11  5.28755e-12        00000 
 8.15420e-12  4.47926e-13        00000 
 3.77798e-12 -4.07530e-13        00000 
 1.63671e-12 -3.74204e-13        00000 
 7.27699e-13 -2.27868e-13        00000 
 7.42991e-13 -1.41612e-13        00000 
 8.90755e-03 -7.66807e-03        00000 
-5.95192e-02 -4.85560e-02        00000 
-4.40534e-02  8.90332e-04        00000 
-5.88163e-02  4.50008e-02        00000 
 2.76942e-03  2.74062e-03        00000 
 5.27991e-04 -1.24704e-03        00000 
 3.92358e-04 -5.11349e-04        00000 
 1.35948e-04 -1.38192e-04        00000 
 4.85616e-05 -2.95281e-05        00000 
 1.72445e-05 -5.53867e-06        00000 
 6.67090e-06 -9.66810e-07        00000 
 2.76697e-06 -2.19984e-07        00000 
 1.19588e-06 -1.01545e-07        00000 
 5.18572e-07 -6.64239e-08        00000 
 2.19696e-07 -4.20795e-08        00000 
 8.92656e-08 -2.40957e-08        00000 
 3.42874e-08 -1.25154e-08        00000 
 1.22557e-08 -5.94858e-09        00000 
 3.97773e-09 -2.60070e-09        00000 
 1.11196e-09 -1.04719e-09        00000 
 2.25918e-10 -3.87191e-10        00000 
-6.77421e-13 -1.30243e-10        00000 
-3.54168e-11 -3.89671e-11        00000 
-2.69308e-11 -9.75840e-12        00000 
-1.51821e-11 -1.60845e-12        00000 
-7.53068e-12  1.87219e-13        00000 
-3.46432e-12  3.60106e-13        00000 
-1.49802e-12  2.50725e-13        00000 
-5.95703e-13  2.00770e-13        00000 
-6.99754e-13  7.50528e-14        00000 
-2.14152e-03  4.12074e-04        00000 
-2.69732e-02  6.09414e-03        00000 
 8.63402e-01 -9.34373e-03        00000 
-1.07898e-02  1.19038e-02        00000 
 2.34992e-05  4.65818e-03        00000 
 6.47651e-06  1.28888e-03        00000 
 4.69694e-06  3.45391e-04        00000 
 1.66830e-06  1.01626e-04        00000 
 5.97534e-07  3.55654e-05        00000 
 2.12704e-07  1.43932e-05        00000 
 8.20892e-08  6.28032e-06        00000 
 3.39622e-08  2.78862e-06        00000 
 1.46501e-08  1.21907e-06        00000 
 6.34768e-09  5.14937e-07        00000 
 2.68930e-09  2.07463e-07        00000 
 1.09340e-09  7.87353e-08        00000 
 4.20463e-10  2.76837e-08        00000 
 1.50553e-10  8.75779e-09        00000 
 4.89957e-11  2.32760e-09        00000 
 1.37637e-11  4.01172e-10        00000 
 2.83392e-12 -5.74773e-11        00000 
 1.98759e-14 -1.06106e-10        00000 
-4.22847e-13 -7.21746e-11        00000 
-3.25903e-13 -3.89476e-11        00000 
-1.84622e-13 -1.88445e-11        00000 
-9.18189e-14 -8.55711e-12        00000 
-4.23111e-14 -3.73664e-12        00000 
-1.83223e-14 -1.60818e-12        00000 
-7.49036e-15 -7.34107e-13        00000 
-3.21252e-14 -2.12761e-13        00000 
-3.75583e-04  3.42006e-03        00000 
-1.89960e-04  7.20597e-03        00000 
 1.00943e-02  3.68753e-18        00000 
-1.23335e-17 -2.55488e-18        00000 
 3.18815e-18  7.14778e-19        00000 
-4.78496e-19 -3.62141e-20        00000 
 6.23246e-20 -1.05233e-20        00000 
-9.16164e-21  6.60058e-21        00000 
 1.31291e-21  1.55580e-21        00000 
-6.02589e-23  3.37500e-22        00000 
-6.23759e-23  3.02474e-22        00000 
 3.05561e-23 -6.57991e-25        00000 
-1.42102e-23  3.80052e-23        00000 
 6.36623e-24  3.19243e-23        00000 
-3.50042e-24  4.19828e-24        00000 
 2.01256e-24  3.96760e-24        00000 
-3.58839e-25  3.05175e-25        00000 
-8.77080e-26 -7.41697e-25        00000 
 3.83583e-26  2.47946e-25        00000 
-1.26950e-26 -2.32454e-26        00000 
 2.63450e-27 -4.64887e-27        00000 
 5.76212e-28  2.57779e-27        00000 
-1.61964e-28 -2.19529e-27        00000 
 2.35122e-30  1.33537e-27        00000 
-9.57194e-29 -2.53988e-28        00000 
 8.97186e-29 -6.97531e-28        00000 
-1.36655e-29 -1.51681e-28        00000 
-7.60972e-30 -8.32541e-29        00000 
 2.84225e-30  1.92444e-29        00000 
-2.66111e-30 -6.17044e-29        00000 
-1.63457e-18  3.63869e-19        00000 
 3.17346e-18 -2.55078e-19        00000 
-4.16940e-18 -7.49435e-20        00000 
 3.11750e-18  2.79415e-19        00000 
-9.58954e-19 -1.70617e-19        00000 
 2.35936e-19  4.21101e-20        00000 
-4.32938e-20 -3.91437e-21        00000 
 7.05134e-21 -3.98768e-22        00000 
-1.12466e-21  1.55754e-22        00000 
 1.64349e-22  3.23884e-23        00000 
-1.38070e-23 -1.31038e-23        00000 
-3.30733e-24  1.35947e-23        00000 
 2.60993e-24 -2.65095e-24        00000 
-1.34852e-24 -6.28193e-25        00000 
 6.90548e-25  1.05001e-24        00000 
-3.50498e-25 -2.20583e-25        00000 
 1.26169e-25  1.85896e-25        00000 
-1.54323e-26  6.21949e-26        00000 
-5.10165e-27 -5.10288e-26        00000 
 2.80244e-27  1.46268e-26        00000 
-8.58196e-28 -1.62515e-27        00000 
 1.17999e-28 -2.97181e-28        00000 
 2.22826e-29  3.33417e-28        00000 
-1.19519e-29 -2.17381e-28        00000 
 1.43037e-29  8.95684e-29        00000 
-1.21797e-29  3.44552e-29        00000 
 4.93592e-30 -8.43883e-30        00000 
-1.69208e-31  1.64710e-31        00000 
-7.09389e-31 -9.17773e-30        00000 
 5.06793e-31  7.26793e-30        00000 
 4.28958e-19 -4.57175e-20        00000 
-5.16779e-19  2.12221e-20        00000 
 5.96687e-19  6.16909e-21        00000 
-4.71861e-19 -3.15516e-20        00000 
 2.29086e-19  2.71472e-20        00000 
-7.33805e-20 -1.17053e-20        00000 
 1.83943e-20  2.77877e-21        00000 
-3.77535e-21 -3.49853e-22        00000 
 6.94876e-22  7.43756e-24        00000 
-1.20098e-22  6.87900e-25        00000 
 1.86991e-23  2.83771e-24        00000 
-2.06606e-24 -1.84797e-24        00000 
-1.32379e-25  8.14852e-25        00000 
 2.24746e-25 -7.17088e-26        00000 
-1.32711e-25 -1.04374e-25        00000 
 6.75129e-26  7.04434e-26        00000 
-2.83858e-26 -2.74760e-26        00000 
 7.89023e-27  2.16897e-27        00000 
-7.38877e-28  6.48805e-27        00000 
-3.54424e-28 -3.52011e-27        00000 
 1.95817e-28  9.26604e-28        00000 
-5.47459e-29 -1.01816e-28        00000 
 6.72737e-30 -3.50487e-29        00000 
 1.71863e-30  3.45257e-29        00000 
-2.38399e-30 -1.65684e-29        00000 
 1.84309e-30  1.64555e-30        00000 
-9.67758e-31  1.75989e-30        00000 
 2.36295e-31 -8.23892e-31        00000 
 6.78928e-32  1.14124e-30        00000 
-1.05073e-31 -1.30555e-30        00000 
-8.24588e-20  5.55719e-21        00000 
 8.93729e-20 -4.67294e-21        00000 
-9.29872e-20 -1.00157e-21        00000 
 7.45872e-20  3.84085e-21        00000 
-4.34220e-20 -3.73878e-21        00000 
 1.82084e-20  2.28578e-21        00000 
-5.73514e-21 -8.35772e-22        00000 
 1.47407e-21  1.97905e-22        00000 
-3.26970e-22 -3.07944e-23        00000 
 6.47682e-23  3.31138e-24        00000 
-1.19224e-23 -6.44326e-25        00000 
 1.97884e-24  3.44731e-25        00000 
-2.53608e-25 -1.59913e-25        00000 
 4.11714e-28  4.35105e-26        00000 
 1.96250e-26  4.58969e-27        00000 
-1.24353e-26 -1.05337e-26        00000 
 5.95828e-27  5.98323e-27        00000 
-2.14010e-27 -1.36810e-27        00000 
 5.06759e-28 -4.41280e-28        00000 
-3.67628e-29  5.69516e-28        00000 
-2.55372e-29 -2.45865e-28        00000 
 1.33955e-29  5.98604e-29        00000 
-3.55634e-30 -4.78286e-30        00000 
 3.21584e-31 -3.97405e-30        00000 
 5.17799e-31  2.57420e-30        00000 
-3.05938e-31 -8.53127e-31        00000 
 1.74236e-31 -4.11343e-32        00000 
-6.32812e-32  1.93460e-31        00000 
 4.28076e-33 -1.90414e-31        00000 
 1.14975e-32  2.06672e-31        00000 
 1.47444e-20 -1.02887e-21        00000 
-1.51955e-20  4.86385e-22        00000 
 1.47604e-20 -3.27064e-23        00000 
-1.16497e-20 -5.63522e-22        00000 
 8.06909e-21  5.49155e-22        00000 
-3.86833e-21 -3.91415e-22        00000 
 1.47435e-21  1.84228e-22        00000 
-4.57669e-22 -6.16141e-23        00000 
 1.20333e-22  1.48324e-23        00000 
-2.78707e-23 -2.80143e-24        00000 
 5.88041e-24  5.06575e-25        00000 
-1.13804e-24 -7.88453e-26        00000 
 2.00326e-25  3.12253e-26        00000 
-2.72720e-26 -1.03988e-26        00000 
 3.27531e-27  1.72864e-27        00000 
 1.59511e-27  8.38124e-28        00000 
-9.82892e-28 -1.11232e-27        00000 