<?xml version="1.0" encoding="utf-8"?>
<VTKFile byte_order="LittleEndian" type="UnstructuredGrid" version="0.1">
   <UnstructuredGrid>
      <Piece NumberOfCells="3364" NumberOfPoints="1741">
         <Points>
            <DataArray Name="Points" NumberOfComponents="3" format="ascii" type="Float32">
0.0000 1.0000 0.0000
0.0000 1.0345 0.0000
0.0000 1.0690 0.0000
0.0000 1.1034 0.0000
0.0000 1.1379 0.0000
0.0000 1.1724 0.0000
0.0000 1.2069 0.0000
0.0000 1.2414 0.0000
0.0000 1.2759 0.0000
0.0000 1.3103 0.0000
0.0000 1.3448 0.0000
0.0000 1.3793 0.0000
0.0000 1.4138 0.0000
0.0000 1.4483 0.0000
0.0000 1.4828 0.0000
0.0000 1.5172 0.0000
0.0000 1.5517 0.0000
0.0000 1.5862 0.0000
0.0000 1.6207 0.0000
0.0000 1.6552 0.0000
0.0000 1.6897 0.0000
0.0000 1.7241 0.0000
0.0000 1.7586 0.0000
0.0000 1.7931 0.0000
0.0000 1.8276 0.0000
0.0000 1.8621 0.0000
0.0000 1.8966 0.0000
0.0000 1.9310 0.0000
0.0000 1.9655 0.0000
0.0000 2.0000 0.0000
0.0690 1.0000 0.0000
0.0690 1.0345 0.0000
0.0690 1.0690 0.0000
0.0690 1.1034 0.0000
0.0690 1.1379 0.0000
0.0690 1.1724 0.0000
0.0690 1.2069 0.0000
0.0690 1.2414 0.0000
0.0690 1.2759 0.0000
0.0690 1.3103 0.0000
0.0690 1.3448 0.0000
0.0690 1.3793 0.0000
0.0690 1.4138 0.0000
0.0690 1.4483 0.0000
0.0690 1.4828 0.0000
0.0690 1.5172 0.0000
0.0690 1.5517 0.0000
0.0690 1.5862 0.0000
0.0690 1.6207 0.0000
0.0690 1.6552 0.0000
0.0690 1.6897 0.0000
0.0690 1.7241 0.0000
0.0690 1.7586 0.0000
0.0690 1.7931 0.0000
0.0690 1.8276 0.0000
0.0690 1.8621 0.0000
0.0690 1.8966 0.0000
0.0690 1.9310 0.0000
0.0690 1.9655 0.0000
0.0690 2.0000 0.0000
0.1379 1.0000 0.0000
0.1379 1.0345 0.0000
0.1379 1.0690 0.0000
0.1379 1.1034 0.0000
0.1379 1.1379 0.0000
0.1379 1.1724 0.0000
0.1379 1.2069 0.0000
0.1379 1.2414 0.0000
0.1379 1.2759 0.0000
0.1379 1.3103 0.0000
0.1379 1.3448 0.0000
0.1379 1.3793 0.0000
0.1379 1.4138 0.0000
0.1379 1.4483 0.0000
0.1379 1.4828 0.0000
0.1379 1.5172 0.0000
0.1379 1.5517 0.0000
0.1379 1.5862 0.0000
0.1379 1.6207 0.0000
0.1379 1.6552 0.0000
0.1379 1.6897 0.0000
0.1379 1.7241 0.0000
0.1379 1.7586 0.0000
0.1379 1.7931 0.0000
0.1379 1.8276 0.0000
0.1379 1.8621 0.0000
0.1379 1.8966 0.0000
0.1379 1.9310 0.0000
0.1379 1.9655 0.0000
0.1379 2.0000 0.0000
0.2069 1.0000 0.0000
0.2069 1.0345 0.0000
0.2069 1.0690 0.0000
0.2069 1.1034 0.0000
0.2069 1.1379 0.0000
0.2069 1.1724 0.0000
0.2069 1.2069 0.0000
0.2069 1.2414 0.0000
0.2069 1.2759 0.0000
0.2069 1.3103 0.0000
0.2069 1.3448 0.0000
0.2069 1.3793 0.0000
0.2069 1.4138 0.0000
0.2069 1.4483 0.0000
0.2069 1.4828 0.0000
0.2069 1.5172 0.0000
0.2069 1.5517 0.0000
0.2069 1.5862 0.0000
0.2069 1.6207 0.0000
0.2069 1.6552 0.0000
0.2069 1.6897 0.0000
0.2069 1.7241 0.0000
0.2069 1.7586 0.0000
0.2069 1.7931 0.0000
0.2069 1.8276 0.0000
0.2069 1.8621 0.0000
0.2069 1.8966 0.0000
0.2069 1.9310 0.0000
0.2069 1.9655 0.0000
0.2069 2.0000 0.0000
0.2759 1.0000 0.0000
0.2759 1.0345 0.0000
0.2759 1.0690 0.0000
0.2759 1.1034 0.0000
0.2759 1.1379 0.0000
0.2759 1.1724 0.0000
0.2759 1.2069 0.0000
0.2759 1.2414 0.0000
0.2759 1.2759 0.0000
0.2759 1.3103 0.0000
0.2759 1.3448 0.0000
0.2759 1.3793 0.0000
0.2759 1.4138 0.0000
0.2759 1.4483 0.0000
0.2759 1.4828 0.0000
0.2759 1.5172 0.0000
0.2759 1.5517 0.0000
0.2759 1.5862 0.0000
0.2759 1.6207 0.0000
0.2759 1.6552 0.0000
0.2759 1.6897 0.0000
0.2759 1.7241 0.0000
0.2759 1.7586 0.0000
0.2759 1.7931 0.0000
0.2759 1.8276 0.0000
0.2759 1.8621 0.0000
0.2759 1.8966 0.0000
0.2759 1.9310 0.0000
0.2759 1.9655 0.0000
0.2759 2.0000 0.0000
0.3448 1.0000 0.0000
0.3448 1.0345 0.0000
0.3448 1.0690 0.0000
0.3448 1.1034 0.0000
0.3448 1.1379 0.0000
0.3448 1.1724 0.0000
0.3448 1.2069 0.0000
0.3448 1.2414 0.0000
0.3448 1.2759 0.0000
0.3448 1.3103 0.0000
0.3448 1.3448 0.0000
0.3448 1.3793 0.0000
0.3448 1.4138 0.0000
0.3448 1.4483 0.0000
0.3448 1.4828 0.0000
0.3448 1.5172 0.0000
0.3448 1.5517 0.0000
0.3448 1.5862 0.0000
0.3448 1.6207 0.0000
0.3448 1.6552 0.0000
0.3448 1.6897 0.0000
0.3448 1.7241 0.0000
0.3448 1.7586 0.0000
0.3448 1.7931 0.0000
0.3448 1.8276 0.0000
0.3448 1.8621 0.0000
0.3448 1.8966 0.0000
0.3448 1.9310 0.0000
0.3448 1.9655 0.0000
0.3448 2.0000 0.0000
0.4138 1.0000 0.0000
0.4138 1.0345 0.0000
0.4138 1.0690 0.0000
0.4138 1.1034 0.0000
0.4138 1.1379 0.0000
0.4138 1.1724 0.0000
0.4138 1.2069 0.0000
0.4138 1.2414 0.0000
0.4138 1.2759 0.0000
0.4138 1.3103 0.0000
0.4138 1.3448 0.0000
0.4138 1.3793 0.0000
0.4138 1.4138 0.0000
0.4138 1.4483 0.0000
0.4138 1.4828 0.0000
0.4138 1.5172 0.0000
0.4138 1.5517 0.0000
0.4138 1.5862 0.0000
0.4138 1.6207 0.0000
0.4138 1.6552 0.0000
0.4138 1.6897 0.0000
0.4138 1.7241 0.0000
0.4138 1.7586 0.0000
0.4138 1.7931 0.0000
0.4138 1.8276 0.0000
0.4138 1.8621 0.0000
0.4138 1.8966 0.0000
0.4138 1.9310 0.0000
0.4138 1.9655 0.0000
0.4138 2.0000 0.0000
0.4828 1.0000 0.0000
0.4828 1.0345 0.0000
0.4828 1.0690 0.0000
0.4828 1.1034 0.0000
0.4828 1.1379 0.0000
0.4828 1.1724 0.0000
0.4828 1.2069 0.0000
0.4828 1.2414 0.0000
0.4828 1.2759 0.0000
0.4828 1.3103 0.0000
0.4828 1.3448 0.0000
0.4828 1.3793 0.0000
0.4828 1.4138 0.0000
0.4828 1.4483 0.0000
0.4828 1.4828 0.0000
0.4828 1.5172 0.0000
0.4828 1.5517 0.0000
0.4828 1.5862 0.0000
0.4828 1.6207 0.0000
0.4828 1.6552 0.0000
0.4828 1.6897 0.0000
0.4828 1.7241 0.0000
0.4828 1.7586 0.0000
0.4828 1.7931 0.0000
0.4828 1.8276 0.0000
0.4828 1.8621 0.0000
0.4828 1.8966 0.0000
0.4828 1.9310 0.0000
0.4828 1.9655 0.0000
0.4828 2.0000 0.0000
0.5517 1.0000 0.0000
0.5517 1.0345 0.0000
0.5517 1.0690 0.0000
0.5517 1.1034 0.0000
0.5517 1.1379 0.0000
0.5517 1.1724 0.0000
0.5517 1.2069 0.0000
0.5517 1.2414 0.0000
0.5517 1.2759 0.0000
0.5517 1.3103 0.0000
0.5517 1.3448 0.0000
0.5517 1.3793 0.0000
0.5517 1.4138 0.0000
0.5517 1.4483 0.0000
0.5517 1.4828 0.0000
0.5517 1.5172 0.0000
0.5517 1.5517 0.0000
0.5517 1.5862 0.0000
0.5517 1.6207 0.0000
0.5517 1.6552 0.0000
0.5517 1.6897 0.0000
0.5517 1.7241 0.0000
0.5517 1.7586 0.0000
0.5517 1.7931 0.0000
0.5517 1.8276 0.0000
0.5517 1.8621 0.0000
0.5517 1.8966 0.0000
0.5517 1.9310 0.0000
0.5517 1.9655 0.0000
0.5517 2.0000 0.0000
0.6207 1.0000 0.0000
0.6207 1.0345 0.0000
0.6207 1.0690 0.0000
0.6207 1.1034 0.0000
0.6207 1.1379 0.0000
0.6207 1.1724 0.0000
0.6207 1.2069 0.0000
0.6207 1.2414 0.0000
0.6207 1.2759 0.0000
0.6207 1.3103 0.0000
0.6207 1.3448 0.0000
0.6207 1.3793 0.0000
0.6207 1.4138 0.0000
0.6207 1.4483 0.0000
0.6207 1.4828 0.0000
0.6207 1.5172 0.0000
0.6207 1.5517 0.0000
0.6207 1.5862 0.0000
0.6207 1.6207 0.0000
0.6207 1.6552 0.0000
0.6207 1.6897 0.0000
0.6207 1.7241 0.0000
0.6207 1.7586 0.0000
0.6207 1.7931 0.0000
0.6207 1.8276 0.0000
0.6207 1.8621 0.0000
0.6207 1.8966 0.0000
0.6207 1.9310 0.0000
0.6207 1.9655 0.0000
0.6207 2.0000 0.0000
0.6897 1.0000 0.0000
0.6897 1.0345 0.0000
0.6897 1.0690 0.0000
0.6897 1.1034 0.0000
0.6897 1.1379 0.0000
0.6897 1.1724 0.0000
0.6897 1.2069 0.0000
0.6897 1.2414 0.0000
0.6897 1.2759 0.0000
0.6897 1.3103 0.0000
0.6897 1.3448 0.0000
0.6897 1.3793 0.0000
0.6897 1.4138 0.0000
0.6897 1.4483 0.0000
0.6897 1.4828 0.0000
0.6897 1.5172 0.0000
0.6897 1.5517 0.0000
0.6897 1.5862 0.0000
0.6897 1.6207 0.0000
0.6897 1.6552 0.0000
0.6897 1.6897 0.0000
0.6897 1.7241 0.0000
0.6897 1.7586 0.0000
0.6897 1.7931 0.0000
0.6897 1.8276 0.0000
0.6897 1.8621 0.0000
0.6897 1.8966 0.0000
0.6897 1.9310 0.0000
0.6897 1.9655 0.0000
0.6897 2.0000 0.0000
0.7586 1.0000 0.0000
0.7586 1.0345 0.0000
0.7586 1.0690 0.0000
0.7586 1.1034 0.0000
0.7586 1.1379 0.0000
0.7586 1.1724 0.0000
0.7586 1.2069 0.0000
0.7586 1.2414 0.0000
0.7586 1.2759 0.0000
0.7586 1.3103 0.0000
0.7586 1.3448 0.0000
0.7586 1.3793 0.0000
0.7586 1.4138 0.0000
0.7586 1.4483 0.0000
0.7586 1.4828 0.0000
0.7586 1.5172 0.0000
0.7586 1.5517 0.0000
0.7586 1.5862 0.0000
0.7586 1.6207 0.0000
0.7586 1.6552 0.0000
0.7586 1.6897 0.0000
0.7586 1.7241 0.0000
0.7586 1.7586 0.0000
0.7586 1.7931 0.0000
0.7586 1.8276 0.0000
0.7586 1.8621 0.0000
0.7586 1.8966 0.0000
0.7586 1.9310 0.0000
0.7586 1.9655 0.0000
0.7586 2.0000 0.0000
0.8276 1.0000 0.0000
0.8276 1.0345 0.0000
0.8276 1.0690 0.0000
0.8276 1.1034 0.0000
0.8276 1.1379 0.0000
0.8276 1.1724 0.0000
0.8276 1.2069 0.0000
0.8276 1.2414 0.0000
0.8276 1.2759 0.0000
0.8276 1.3103 0.0000
0.8276 1.3448 0.0000
0.8276 1.3793 0.0000
0.8276 1.4138 0.0000
0.8276 1.4483 0.0000
0.8276 1.4828 0.0000
0.8276 1.5172 0.0000
0.8276 1.5517 0.0000
0.8276 1.5862 0.0000
0.8276 1.6207 0.0000
0.8276 1.6552 0.0000
0.8276 1.6897 0.0000
0.8276 1.7241 0.0000
0.8276 1.7586 0.0000
0.8276 1.7931 0.0000
0.8276 1.8276 0.0000
0.8276 1.8621 0.0000
0.8276 1.8966 0.0000
0.8276 1.9310 0.0000
0.8276 1.9655 0.0000
0.8276 2.0000 0.0000
0.8966 1.0000 0.0000
0.8966 1.0345 0.0000
0.8966 1.0690 0.0000
0.8966 1.1034 0.0000
0.8966 1.1379 0.0000
0.8966 1.1724 0.0000
0.8966 1.2069 0.0000
0.8966 1.2414 0.0000
0.8966 1.2759 0.0000
0.8966 1.3103 0.0000
0.8966 1.3448 0.0000
0.8966 1.3793 0.0000
0.8966 1.4138 0.0000
0.8966 1.4483 0.0000
0.8966 1.4828 0.0000
0.8966 1.5172 0.0000
0.8966 1.5517 0.0000
0.8966 1.5862 0.0000
0.8966 1.6207 0.0000
0.8966 1.6552 0.0000
0.8966 1.6897 0.0000
0.8966 1.7241 0.0000
0.8966 1.7586 0.0000
0.8966 1.7931 0.0000
0.8966 1.8276 0.0000
0.8966 1.8621 0.0000
0.8966 1.8966 0.0000
0.8966 1.9310 0.0000
0.8966 1.9655 0.0000
0.8966 2.0000 0.0000
0.9655 1.0000 0.0000
0.9655 1.0345 0.0000
0.9655 1.0690 0.0000
0.9655 1.1034 0.0000
0.9655 1.1379 0.0000
0.9655 1.1724 0.0000
0.9655 1.2069 0.0000
0.9655 1.2414 0.0000
0.9655 1.2759 0.0000
0.9655 1.3103 0.0000
0.9655 1.3448 0.0000
0.9655 1.3793 0.0000
0.9655 1.4138 0.0000
0.9655 1.4483 0.0000
0.9655 1.4828 0.0000
0.9655 1.5172 0.0000
0.9655 1.5517 0.0000
0.9655 1.5862 0.0000
0.9655 1.6207 0.0000
0.9655 1.6552 0.0000
0.9655 1.6897 0.0000
0.9655 1.7241 0.0000
0.9655 1.7586 0.0000
0.9655 1.7931 0.0000
0.9655 1.8276 0.0000
0.9655 1.8621 0.0000
0.9655 1.8966 0.0000
0.9655 1.9310 0.0000
0.9655 1.9655 0.0000
0.9655 2.0000 0.0000
1.0345 1.0000 0.0000
1.0345 1.0345 0.0000
1.0345 1.0690 0.0000
1.0345 1.1034 0.0000
1.0345 1.1379 0.0000
1.0345 1.1724 0.0000
1.0345 1.2069 0.0000
1.0345 1.2414 0.0000
1.0345 1.2759 0.0000
1.0345 1.3103 0.0000
1.0345 1.3448 0.0000
[...]
         <PointData>
            <DataArray Name="fValues" NumberOfComponents="3" format="ascii" type="Float64">
 2.05996e-21  1.59612e-21        00000 
-7.18676e-22 -8.26477e-21        00000 
 7.10681e-22 -7.10681e-22        00000 
 4.84409e-21  1.69655e-20        00000 
       00000  7.10681e-21        00000 
-6.60335e-22 -3.33187e-20        00000 
-1.77670e-22  2.70059e-20        00000 
-4.04046e-21  4.37530e-21        00000 
-7.10681e-22  2.14981e-20        00000 
-1.90011e-20 -1.76849e-21        00000 
 3.55341e-21 -9.23886e-21        00000 
-1.80816e-21 -3.12522e-22        00000 
 3.55341e-22  2.84273e-21        00000 
 2.08518e-21 -2.36742e-20        00000 
 3.55341e-22  6.39613e-21        00000 
-8.70596e-22  6.69689e-22        00000 
 1.55462e-21  3.94206e-22        00000 
 5.97460e-22 -1.08055e-21        00000 
 4.44176e-23  3.55341e-22        00000 
 4.95291e-23 -1.78845e-22        00000 
 4.71937e-23  2.15148e-23        00000 
-3.54317e-24 -6.96167e-24        00000 
 8.32830e-24  2.77610e-24        00000 
-6.10394e-25  1.35159e-24        00000 
 1.24708e-24  4.44610e-25        00000 
-7.81133e-26 -1.41869e-25        00000 
 3.25324e-26  1.08441e-26        00000 
 2.73006e-27  3.82208e-26        00000 
 6.49393e-27 -4.44322e-27        00000 
 9.13560e-27 -2.22005e-26        00000 
 4.64033e-05  7.65091e-06        00000 
 1.89979e-05  1.18292e-05        00000 
 3.34291e-05  3.21103e-05        00000 
 4.31812e-05  5.83813e-05        00000 
 3.91617e-05  8.78377e-05        00000 
 1.50157e-05  1.09255e-04        00000 
-2.54471e-05  1.08992e-04        00000 
-6.59168e-05  8.05475e-05        00000 
-8.58693e-05  3.10047e-05        00000 
-7.51545e-05 -2.14360e-05        00000 
-4.16344e-05 -5.78056e-05        00000 
-4.38892e-06 -6.90293e-05        00000 
 2.05026e-05 -5.91505e-05        00000 
 2.85300e-05 -3.97305e-05        00000 
 2.47384e-05 -2.13761e-05        00000 
 1.66702e-05 -9.08177e-06        00000 
 9.37844e-06 -2.81403e-06        00000 
 4.57158e-06 -4.06207e-07        00000 
 1.97937e-06  2.02240e-07        00000 
 7.76263e-07  2.12898e-07        00000 
 2.80580e-07  1.18385e-07        00000 
 9.50211e-08  5.10410e-08        00000 
 3.05998e-08  1.88581e-08        00000 
 9.45006e-09  6.35016e-09        00000 
 2.77430e-09  2.08143e-09        00000 
 7.36236e-10  7.14392e-10        00000 
 1.47500e-10  2.68728e-10        00000 
 1.42289e-12  1.08794e-10        00000 
-1.76687e-11  3.99985e-11        00000 
-9.42073e-11  2.51587e-11        00000 
-4.78337e-05 -1.47102e-05        00000 
-2.90217e-05 -2.65296e-05        00000 
-4.40928e-05 -5.95194e-05        00000 
-6.20895e-05 -1.16047e-04        00000 
-6.21170e-05 -1.84901e-04        00000 
-3.05515e-05 -2.39208e-04        00000 
 3.10449e-05 -2.44224e-04        00000 
 9.67808e-05 -1.81033e-04        00000 
 1.29413e-04 -6.56869e-05        00000 
 1.09895e-04  5.61577e-05        00000 
 5.38224e-05  1.37029e-04        00000 
-3.63512e-06  1.56255e-04        00000 
-3.67230e-05  1.27201e-04        00000 
-4.25372e-05  8.01228e-05        00000 
-3.28434e-05  3.96031e-05        00000 
-2.00195e-05  1.48134e-05        00000 
-1.03052e-05  3.47511e-06        00000 
-4.66887e-06 -2.15917e-07        00000 
-1.92101e-06 -7.92332e-07        00000 
-7.36458e-07 -5.44106e-07        00000 
-2.68454e-07 -2.66516e-07        00000 
-9.42908e-08 -1.08706e-07        00000 
-3.20386e-08 -3.94017e-08        00000 
-1.04478e-08 -1.33400e-08        00000 
-3.18852e-09 -4.44840e-09        00000 
-8.56587e-10 -1.53740e-09        00000 
-1.67428e-10 -5.64153e-10        00000 
 4.79314e-13 -2.16658e-10        00000 
 3.22752e-11 -8.93241e-11        00000 
 9.77724e-11 -5.15275e-11        00000 
 3.96851e-05  1.74177e-05        00000 
 3.10140e-05  3.50329e-05        00000 
 5.33090e-05  8.17943e-05        00000 
 8.38022e-05  1.71970e-04        00000 
 9.63737e-05  2.93318e-04        00000 
 6.14862e-05  3.99452e-04        00000 
-2.98908e-05  4.21112e-04        00000 
-1.38455e-04  3.14288e-04        00000 
-1.93370e-04  1.06190e-04        00000 
-1.56283e-04 -1.13076e-04        00000 
-6.04541e-05 -2.50064e-04        00000 
 2.61669e-05 -2.69270e-04        00000 
 6.40245e-05 -2.04994e-04        00000 
 5.95760e-05 -1.18831e-04        00000 
 3.87002e-05 -5.28569e-05        00000 
 1.99573e-05 -1.69559e-05        00000 
 8.74118e-06 -2.63925e-06        00000 
 3.43883e-06  1.13247e-06        00000 
 1.28496e-06  1.28992e-06        00000 
 4.79213e-07  7.56453e-07        00000 
 1.82759e-07  3.48440e-07        00000 
 7.04536e-08  1.39836e-07        00000 
 2.65474e-08  5.15592e-08        00000 
 9.42026e-09  1.81970e-08        00000 
 3.02667e-09  6.37684e-09        00000 
 8.25361e-10  2.27869e-09        00000 
 1.56793e-10  8.35772e-10        00000 
-4.48928e-12  3.12566e-10        00000 
-3.24352e-11  1.27594e-10        00000 
-8.32241e-11  7.03046e-11        00000 
-2.61150e-05 -1.55773e-05        00000 
-2.88353e-05 -3.54805e-05        00000 
-6.03196e-05 -9.27900e-05        00000 
-1.11566e-04 -2.19823e-04        00000 
-1.52267e-04 -4.14735e-04        00000 
-1.23915e-04 -6.10523e-04        00000 
 1.48214e-05 -6.76764e-04        00000 
 2.07954e-04 -5.12133e-04        00000 
 3.09467e-04 -1.56479e-04        00000 
 2.33160e-04  2.17012e-04        00000 
 5.74470e-05  4.29201e-04        00000 
-7.59927e-05  4.26308e-04        00000 
-1.10105e-04  2.93796e-04        00000 
-8.12485e-05  1.50095e-04        00000 
-4.22141e-05  5.65125e-05        00000 
-1.69609e-05  1.37325e-05        00000 
-5.56753e-06  6.02571e-08        00000 
-1.60229e-06 -2.22757e-06        00000 
-4.71065e-07 -1.61271e-06        00000 
-1.76128e-07 -8.27396e-07        00000 
-8.35984e-08 -3.64127e-07        00000 
-4.11432e-08 -1.47371e-07        00000 
-1.85234e-08 -5.69089e-08        00000 
-7.32586e-09 -2.14397e-08        00000 
-2.48958e-09 -7.98327e-09        00000 
-6.91104e-10 -2.95278e-09        00000 
-1.28822e-10 -1.08214e-09        00000 
 5.61057e-12 -3.93223e-10        00000 
 2.60022e-11 -1.54986e-10        00000 
 5.84652e-11 -8.25391e-11        00000 
 9.21836e-06  9.61149e-06        00000 
 2.14609e-05  2.70082e-05        00000 
 5.99700e-05  8.54089e-05        00000 
 1.39441e-04  2.44899e-04        00000 
 2.36427e-04  5.39711e-04        00000 
 2.46989e-04  8.95639e-04        00000 
 4.26483e-05  1.07518e-03        00000 
-3.20836e-04  8.36602e-04        00000 
-5.25090e-04  2.21911e-04        00000 
-3.57434e-04 -4.20886e-04        00000 
-1.88630e-05 -7.32660e-04        00000 
 1.79903e-04 -6.48486e-04        00000 
 1.80455e-04 -3.84713e-04        00000 
 1.01817e-04 -1.60827e-04        00000 
 3.88215e-05 -4.47720e-05        00000 
 9.91653e-06 -4.53408e-06        00000 
 1.12557e-06  3.62383e-06        00000 
-4.20592e-07  3.10804e-06        00000 
-3.04677e-07  1.65840e-06        00000 
-9.55272e-08  7.58829e-07        00000 
-7.85770e-09  3.27609e-07        00000 
 1.06949e-08  1.38233e-07        00000 
 8.48839e-09  5.73455e-08        00000 
 4.11743e-09  2.32540e-08        00000 
 1.53013e-09  9.15213e-09        00000 
 4.40559e-10  3.47825e-09        00000 
 8.26332e-11  1.27197e-09        00000 
-3.43245e-12  4.50166e-10        00000 
-1.43832e-11  1.70638e-10        00000 
-2.63752e-11  8.78237e-11        00000 
 8.36190e-06 -1.91104e-06        00000 
-8.31743e-06 -1.15033e-05        00000 
-4.47070e-05 -5.41992e-05        00000 
-1.49819e-04 -2.21745e-04        00000 
-3.41771e-04 -6.31437e-04        00000 
-4.78610e-04 -1.26906e-03        00000 
-2.23511e-04 -1.73689e-03        00000 
 4.77854e-04 -1.43198e-03        00000 
 9.17882e-04 -3.10278e-04        00000 
 5.30366e-04  8.56347e-04        00000 
-1.32887e-04  1.27382e-03        00000 
-3.82710e-04  9.48723e-04        00000 
-2.67256e-04  4.43258e-04        00000 
-1.04646e-04  1.28534e-04        00000 
-2.22544e-05  1.39647e-05        00000 
 1.08956e-06 -8.34629e-06        00000 
 3.71005e-06 -6.79635e-06        00000 
 2.16110e-06 -3.29399e-06        00000 
 8.93526e-07 -1.39438e-06        00000 
 3.02111e-07 -5.91455e-07        00000 
 8.61675e-08 -2.63148e-07        00000 
 2.01489e-08 -1.20260e-07        00000 
 3.35391e-09 -5.42441e-08        00000 
 1.00617e-10 -2.34895e-08        00000 
-1.90955e-10 -9.64299e-09        00000 
-8.55062e-11 -3.73689e-09        00000 
-1.97199e-11 -1.36517e-09        00000 
-1.25064e-12 -4.73685e-10        00000 
-1.04611e-12 -1.73414e-10        00000 
-1.05457e-11 -8.63660e-11        00000 
-2.33169e-05 -4.03060e-06        00000 
-8.59103e-06 -5.25138e-06        00000 
 1.24376e-05  3.89963e-06        00000 
 1.09413e-04  1.21636e-04        00000 
 4.15422e-04  5.97965e-04        00000 
 8.59277e-04  1.68535e-03        00000 
 7.50033e-04  2.89943e-03        00000 
-5.57155e-04  2.70432e-03        00000 
-1.51694e-03  4.33393e-04        00000 
-6.23797e-04 -1.90928e-03        00000 
 6.16078e-04 -2.28100e-03        00000 
 7.21176e-04 -1.28270e-03        00000 
 3.18017e-04 -3.83414e-04        00000 
 5.89588e-05 -2.95907e-05        00000 
-7.65949e-06  2.89152e-05        00000 
-1.33419e-05  1.90276e-05        00000 
-7.50884e-06  7.64702e-06        00000 
-3.25593e-06  2.62111e-06        00000 
-1.24707e-06  9.33797e-07        00000 
-4.47083e-07  3.96730e-07        00000 
-1.53518e-07  1.95115e-07        00000 
-5.08017e-08  9.89758e-08        00000 
-1.61334e-08  4.81318e-08        00000 
-4.86417e-09  2.18760e-08        00000 
-1.36090e-09  9.24678e-09        00000 
-3.31837e-10  3.63669e-09        00000 
-5.48515e-11  1.33128e-09        00000 
 6.35327e-12  4.56518e-10        00000 
 1.79053e-11  1.62509e-10        00000 
 4.87894e-11  7.86992e-11        00000 
 3.34507e-05  6.01558e-06        00000 
 2.38071e-05  1.57907e-05        00000 
 3.04716e-05  4.51938e-05        00000 
-1.78405e-05  3.93573e-05        00000 
-2.61702e-04 -2.78085e-04        00000 
-1.31156e-03 -1.87344e-03        00000 
-2.08883e-03 -4.97899e-03        00000 
-3.61482e-04 -6.00459e-03        00000 
 1.66728e-03 -6.05340e-04        00000 
-3.24584e-04  4.88184e-03        00000 
-1.89975e-03  4.15842e-03        00000 
-1.11810e-03  1.38787e-03        00000 
-1.43136e-04  5.70352e-05        00000 
 3.05097e-05 -1.11913e-04        00000 
 4.15667e-05 -6.15208e-05        00000 
 2.16797e-05 -2.10105e-05        00000 
 9.26260e-06 -5.73236e-06        00000 
 3.65674e-06 -1.47908e-06        00000 
 1.41970e-06 -4.83503e-07        00000 
 5.49756e-07 -2.35526e-07        00000 
 2.10869e-07 -1.35748e-07        00000 
 7.87679e-08 -7.58213e-08        00000 
 2.81398e-08 -3.88875e-08        00000 
 9.42686e-09 -1.82498e-08        00000 
 2.87588e-09 -7.87765e-09        00000 
 7.48829e-10 -3.14007e-09        00000 
 1.32950e-10 -1.15666e-09        00000 
-9.05213e-12 -3.95089e-10        00000 
-3.25896e-11 -1.37341e-10        00000 
-8.35290e-11 -6.54584e-11        00000 
-3.84995e-05 -4.84509e-06        00000 
-3.33301e-05 -1.72608e-05        00000 
-6.32575e-05 -6.66462e-05        00000 
-1.13842e-04 -1.76051e-04        00000 
-7.06898e-06 -2.23893e-04        00000 
 2.62439e-04  7.99293e-04        00000 
 5.95588e-03  8.18714e-03        00000 
 5.73951e-03  1.61110e-02        00000 
 6.05942e-03  7.94923e-04        00000 
 5.99195e-03 -1.43285e-02        00000 
 5.74476e-03 -7.11039e-03        00000 
 5.13300e-05 -2.49224e-04        00000 
-1.36389e-04  4.10286e-04        00000 
-1.31733e-04  1.97410e-04        00000 
-5.83688e-05  5.94411e-05        00000 
-2.33430e-05  1.38705e-05        00000 
-8.99564e-06  2.69525e-06        00000 
-3.57510e-06  5.26097e-07        00000 
-1.46503e-06  1.88323e-07        00000 
-6.07372e-07  1.23528e-07        00000 
-2.48110e-07  8.33105e-08        00000 
-9.77598e-08  4.97200e-08        00000 
-3.65116e-08  2.63922e-08        00000 
-1.26938e-08  1.26772e-08        00000 
-3.99488e-09  5.57277e-09        00000 
-1.06998e-09  2.25426e-09        00000 
-1.98524e-10  8.39923e-10        00000 
 7.02466e-12  2.87787e-10        00000 
 3.95238e-11  9.62468e-11        00000 
 1.07319e-10  4.70707e-11        00000 
 3.93288e-05  2.88836e-06        00000 
 3.50407e-05  1.37885e-05        00000 
 8.06341e-05  5.61712e-05        00000 
 1.85968e-04  1.84842e-04        00000 
 4.70254e-04  4.68399e-04        00000 
 2.44324e-04  5.28341e-04        00000 
 3.42283e-03 -4.03851e-03        00000 
-5.68771e-02 -4.85509e-02        00000 
-4.34812e-02 -5.25854e-04        00000 
-5.84743e-02  4.44639e-02        00000 
 2.85527e-03  2.61876e-03        00000 
 5.54817e-04 -1.26613e-03        00000 
 4.01015e-04 -5.12887e-04        00000 
 1.39299e-04 -1.37942e-04        00000 
 5.00063e-05 -2.94300e-05        00000 
 1.78868e-05 -5.56264e-06        00000 
 6.94827e-06 -1.01084e-06        00000 
 2.88006e-06 -2.51783e-07        00000 
 1.23858e-06 -1.19301e-07        00000 
 5.33158e-07 -7.50166e-08        00000 
 2.23992e-07 -4.58109e-08        00000 
 9.02071e-08 -2.55623e-08        00000 
 3.43197e-08 -1.30340e-08        00000 
 1.21311e-08 -6.10958e-09        00000 
 3.87813e-09 -2.64168e-09        00000 
 1.05694e-09 -1.05367e-09        00000 
 2.02743e-10 -3.86307e-10        00000 
-3.82819e-12 -1.28029e-10        00000 
-2.60432e-11 -3.06968e-11        00000 
-1.04656e-10 -1.93802e-11        00000 
-3.35471e-05 -1.96851e-06        00000 
-2.64732e-05 -1.17045e-05        00000 
-7.15189e-05 -3.37409e-05        00000 
-2.01532e-04 -9.80846e-05        00000 
-4.89426e-04 -1.92975e-04        00000 
-1.60704e-03  7.87741e-05        00000 
 1.60655e-03  3.60662e-05        00000 
-2.86554e-02  6.32999e-03        00000 
 8.62913e-01 -6.66508e-03        00000 
-1.07797e-02  1.20973e-02        00000 
 2.45689e-05  4.70094e-03        00000 
 6.80932e-06  1.30304e-03        00000 
 4.80448e-06  3.51898e-04        00000 
 1.70964e-06  1.04822e-04        00000 
 6.15261e-07  3.70619e-05        00000 
 2.20564e-07  1.50460e-05        00000 
 8.54824e-08  6.54415e-06        00000 
 3.53467e-08  2.88654e-06        00000 
 1.51737e-08  1.25168e-06        00000 
 6.52699e-09  5.24126e-07        00000 
 2.74234e-09  2.09240e-07        00000 
 1.10515e-09  7.86176e-08        00000 
 4.20961e-10  2.73089e-08        00000 
 1.49068e-10  8.48888e-09        00000 
 4.77914e-11  2.17965e-09        00000 
 1.30949e-11  3.27783e-10        00000 
 2.55136e-12 -9.48884e-11        00000 
-1.96146e-14 -1.31538e-10        00000 
-3.41999e-13 -1.01902e-10        00000 
-5.75447e-12 -4.16295e-11        00000 
-1.54300e-06  1.02093e-05        00000 
-3.34823e-07  3.27161e-05        00000 
-8.80000e-07  7.01073e-05        00000 
-2.46251e-06  1.82005e-04        00000 
-6.03216e-06  5.10401e-04        00000 
-1.87053e-05  1.38734e-03        00000 
 1.57480e-05  3.07555e-03        00000 
-2.08943e-04  5.48943e-03        00000 
 1.00883e-02 -6.43548e-18        00000 
-2.57700e-17 -8.73375e-18        00000 
 2.95032e-19  8.44605e-19        00000 
-2.63329e-19 -9.10167e-20        00000 
 2.60172e-20  1.13962e-20        00000 
-9.46202e-21  3.56956e-21        00000 
 1.63294e-21  3.73295e-22        00000 
 1.40477e-22  5.19906e-22        00000 
-3.21533e-23 -1.02493e-23        00000 
 1.50337e-23  1.82730e-23        00000 
-4.70488e-24 -5.07500e-23        00000 
-3.66679e-24  3.15100e-23        00000 
 1.20537e-24 -4.67253e-24        00000 
-2.32911e-26  4.78244e-24        00000 
-3.19284e-25  2.13380e-24        00000 
 9.59816e-26 -8.79450e-25        00000 
 2.91139e-26  1.27131e-25        00000 
-3.19998e-26  6.56645e-26        00000 
 1.24441e-26 -6.89677e-27        00000 
-2.35221e-27 -3.64996e-27        00000 
 7.27617e-28 -1.40976e-27        00000 
-3.40622e-28 -5.66283e-27        00000 
 3.94206e-22        00000        00000 
-2.13457e-22 -3.03583e-21        00000 
-1.35130e-21  8.37969e-21        00000 
 9.32817e-21 -2.41213e-20        00000 
-5.78497e-20  1.64334e-20        00000 
 3.01014e-19  3.21618e-20        00000 
-9.87698e-19  2.61133e-20        00000 
 2.69212e-18 -1.21219e-19        00000 
-3.13487e-18  2.72429e-19        00000 
 3.46401e-18  4.38761e-19        00000 
-1.24632e-18 -4.18106e-19        00000 
 1.36489e-19  7.16019e-20        00000 
-2.54010e-20 -1.04682e-20        00000 
 4.23231e-21  1.18434e-21        00000 
-8.89525e-22 -7.95093e-24        00000 
 1.34973e-22 -1.98188e-23        00000 
-8.75078e-24  2.38152e-23        00000 
-1.21019e-24 -5.87026e-24        00000 
 7.47789e-25  6.33659e-24        00000 
 1.05969e-25 -4.93953e-24        00000 
-2.31719e-25  2.09011e-24        00000 
 5.01159e-26 -6.11107e-25        00000 
 2.27583e-26  2.77615e-26        00000 
-1.90816e-26  1.45387e-25        00000 
 9.16194e-28 -5.41621e-26        00000 
 3.95135e-27  3.23708e-27        00000 
-2.98538e-27 -6.89413e-28        00000 
 9.61004e-28  3.99497e-28        00000 
-2.57272e-28 -3.66991e-28        00000 
 1.22055e-28  3.65456e-28        00000 
-2.40670e-23 -3.57168e-22        00000 
-9.58669e-23  6.67591e-22        00000 
 8.68247e-22 -2.12874e-21        00000 
-4.82730e-21  2.77816e-21        00000 
 2.26977e-20 -2.40327e-22        00000 
-8.11114e-20 -4.11783e-21        00000 
 2.19734e-19 -6.29590e-21        00000 
-4.13034e-19  1.42044e-20        00000 
 6.69501e-19 -1.59079e-20        00000 
-4.64896e-19 -3.98248e-20        00000 
 2.62150e-19  5.35745e-20        00000 
-7.73194e-20 -2.52840e-20        00000 
 1.37712e-20  5.52776e-21        00000 
-2.55371e-21 -9.59028e-22        00000 
 4.70812e-22  1.33052e-22        00000 
-8.93680e-23 -1.13216e-23        00000 
 1.33166e-23 -2.12724e-24        00000 
-1.79983e-24  1.67886e-24        00000 
 1.18249e-25 -1.03357e-24        00000 
-1.07029e-26  7.75833e-25        00000 
 2.55466e-26 -4.25416e-25        00000 
-1.33460e-26  1.57503e-25        00000 
 4.17809e-28 -3.12193e-26        00000 
 2.22411e-27 -9.45298e-27        00000 
-7.73733e-28  1.05336e-26        00000 
-3.27381e-28 -3.07599e-27        00000 
 4.33598e-28  4.48931e-28        00000 
-2.26100e-28 -1.07577e-28        00000 
 8.29520e-29  6.27542e-29        00000 
-4.30393e-29 -6.65786e-29        00000 
-1.90347e-23  1.01147e-22        00000 
 7.43849e-23 -1.66622e-22        00000 
-3.95572e-22  3.12249e-22        00000 
 1.74022e-21 -2.85092e-22        00000 
-6.21517e-21 -3.44274e-22        00000 
 1.83575e-20 -2.03847e-23        00000 
-4.09191e-20  1.01865e-21        00000 
 7.23393e-20 -1.93761e-21        00000 
-9.10265e-20 -7.44026e-23        00000 
 7.81999e-20  4.77304e-21        00000 
-4.63884e-20 -6.94148e-21        00000 
 1.97630e-20  4.63828e-21        00000 
-5.61005e-21 -1.75221e-21        00000 
 1.20378e-21  4.25679e-22        00000 
-2.47096e-22 -8.27219e-23        00000 
 5.22822e-23  1.31995e-23        00000 
-1.41650e-23 -1.53674e-24        00000 
 1.76618e-24 -8.01527e-26        00000 
-2.45776e-25  1.70660e-25        00000 
 3.19618e-26 -1.26189e-25        00000 
-6.52206e-27  7.65570e-26        00000 
 2.67961e-27 -3.48174e-26        00000 
-6.86226e-28  1.05518e-26        00000 
-1.14989e-28 -8.75252e-28        00000 
 1.81792e-28 -1.18165e-27        00000 
 1.33661e-30  7.23248e-28        00000 
-5.41854e-29 -2.08957e-28        00000 
 4.09535e-29  4.63612e-29        00000 
-1.99696e-29 -1.58945e-29        00000 
 1.23586e-29  1.20583e-29        00000 
 1.27347e-23 -2.59068e-23        00000 
-3.31818e-23  3.21424e-23        00000 
 1.36293e-22 -4.86687e-23        00000 
-4.74077e-22  2.63637e-23        00000 
 1.19957e-21 -1.98484e-23        00000 
-2.75935e-21  1.61316e-22        00000 
 8.36900e-21 -5.78966e-22        00000 
-1.12311e-20  6.08696e-22        00000 
 1.54744e-20  4.45119e-23        00000 
-1.44402e-20 -6.58218e-22        00000 
 8.96995e-21  9.36181e-22        00000 
-4.05274e-21 -7.50269e-22        00000 
 1.73338e-21  3.77455e-22        00000 
-3.39937e-22 -1.30200e-22        00000 
 2.29003e-22  3.24367e-23        00000 
-2.39190e-23 -6.92823e-24        00000 
 1.67369e-24  1.20847e-24        00000 