<?xml version="1.0" encoding="utf-8"?>
<VTKFile byte_order="LittleEndian" type="UnstructuredGrid" version="0.1">
   <UnstructuredGrid>
      <Piece NumberOfCells="3364" NumberOfPoints="1741">
         <Points>
            <DataArray Name="Points" NumberOfComponents="3" format="ascii" type="Float32">
0.0000 1.0000 0.0000
0.0000 1.0345 0.0000
0.0000 1.0690 0.0000
0.0000 1.1034 0.0000
0.0000 1.1379 0.0000
0.0000 1.1724 0.0000
0.0000 1.2069 0.0000
0.0000 1.2414 0.0000
0.0000 1.2759 0.0000
0.0000 1.3103 0.0000
0.0000 1.3448 0.0000
0.0000 1.3793 0.0000
0.0000 1.4138 0.0000
0.0000 1.4483 0.0000
0.0000 1.4828 0.0000
0.0000 1.5172 0.0000
0.0000 1.5517 0.0000
0.0000 1.5862 0.0000
0.0000 1.6207 0.0000
0.0000 1.6552 0.0000
0.0000 1.6897 0.0000
0.0000 1.7241 0.0000
0.0000 1.7586 0.0000
0.0000 1.7931 0.0000
0.0000 1.8276 0.0000
0.0000 1.8621 0.0000
0.0000 1.8966 0.0000
0.0000 1.9310 0.0000
0.0000 1.9655 0.0000
0.0000 2.0000 0.0000
0.0690 1.0000 0.0000
0.0690 1.0345 0.0000
0.0690 1.0690 0.0000
0.0690 1.1034 0.0000
0.0690 1.1379 0.0000
0.0690 1.1724 0.0000
0.0690 1.2069 0.0000
0.0690 1.2414 0.0000
0.0690 1.2759 0.0000
0.0690 1.3103 0.0000
0.0690 1.3448 0.0000
0.0690 1.3793 0.0000
0.0690 1.4138 0.0000
0.0690 1.4483 0.0000
0.0690 1.4828 0.0000
0.0690 1.5172 0.0000
0.0690 1.5517 0.0000
0.0690 1.5862 0.0000
0.0690 1.6207 0.0000
0.0690 1.6552 0.0000
0.0690 1.6897 0.0000
0.0690 1.7241 0.0000
0.0690 1.7586 0.0000
0.0690 1.7931 0.0000
0.0690 1.8276 0.0000
0.0690 1.8621 0.0000
0.0690 1.8966 0.0000
0.0690 1.9310 0.0000
0.0690 1.9655 0.0000
0.0690 2.0000 0.0000
0.1379 1.0000 0.0000
0.1379 1.0345 0.0000
0.1379 1.0690 0.0000
0.1379 1.1034 0.0000
0.1379 1.1379 0.0000
0.1379 1.1724 0.0000
0.1379 1.2069 0.0000
0.1379 1.2414 0.0000
0.1379 1.2759 0.0000
0.1379 1.3103 0.0000
0.1379 1.3448 0.0000
0.1379 1.3793 0.0000
0.1379 1.4138 0.0000
0.1379 1.4483 0.0000
0.1379 1.4828 0.0000
0.1379 1.5172 0.0000
0.1379 1.5517 0.0000
0.1379 1.5862 0.0000
0.1379 1.6207 0.0000
0.1379 1.6552 0.0000
0.1379 1.6897 0.0000
0.1379 1.7241 0.0000
0.1379 1.7586 0.0000
0.1379 1.7931 0.0000
0.1379 1.8276 0.0000
0.1379 1.8621 0.0000
0.1379 1.8966 0.0000
0.1379 1.9310 0.0000
0.1379 1.9655 0.0000
0.1379 2.0000 0.0000
0.2069 1.0000 0.0000
0.2069 1.0345 0.0000
0.2069 1.0690 0.0000
0.2069 1.1034 0.0000
0.2069 1.1379 0.0000
0.2069 1.1724 0.0000
0.2069 1.2069 0.0000
0.2069 1.2414 0.0000
0.2069 1.2759 0.0000
0.2069 1.3103 0.0000
0.2069 1.3448 0.0000
0.2069 1.3793 0.0000
0.2069 1.4138 0.0000
0.2069 1.4483 0.0000
0.2069 1.4828 0.0000
0.2069 1.5172 0.0000
0.2069 1.5517 0.0000
0.2069 1.5862 0.0000
0.2069 1.6207 0.0000
0.2069 1.6552 0.0000
0.2069 1.6897 0.0000
0.2069 1.7241 0.0000
0.2069 1.7586 0.0000
0.2069 1.7931 0.0000
0.2069 1.8276 0.0000
0.2069 1.8621 0.0000
0.2069 1.8966 0.0000
0.2069 1.9310 0.0000
0.2069 1.9655 0.0000
0.2069 2.0000 0.0000
0.2759 1.0000 0.0000
0.2759 1.0345 0.0000
0.2759 1.0690 0.0000
0.2759 1.1034 0.0000
0.2759 1.1379 0.0000
0.2759 1.1724 0.0000
0.2759 1.2069 0.0000
0.2759 1.2414 0.0000
0.2759 1.2759 0.0000
0.2759 1.3103 0.0000
0.2759 1.3448 0.0000
0.2759 1.3793 0.0000
0.2759 1.4138 0.0000
0.2759 1.4483 0.0000
0.2759 1.4828 0.0000
0.2759 1.5172 0.0000
0.2759 1.5517 0.0000
0.2759 1.5862 0.0000
0.2759 1.6207 0.0000
0.2759 1.6552 0.0000
0.2759 1.6897 0.0000
0.2759 1.7241 0.0000
0.2759 1.7586 0.0000
0.2759 1.7931 0.0000
0.2759 1.8276 0.0000
0.2759 1.8621 0.0000
0.2759 1.8966 0.0000
0.2759 1.9310 0.0000
0.2759 1.9655 0.0000
0.2759 2.0000 0.0000
0.3448 1.0000 0.0000
0.3448 1.0345 0.0000
0.3448 1.0690 0.0000
0.3448 1.1034 0.0000
0.3448 1.1379 0.0000
0.3448 1.1724 0.0000
0.3448 1.2069 0.0000
0.3448 1.2414 0.0000
0.3448 1.2759 0.0000
0.3448 1.3103 0.0000
0.3448 1.3448 0.0000
0.3448 1.3793 0.0000
0.3448 1.4138 0.0000
0.3448 1.4483 0.0000
0.3448 1.4828 0.0000
0.3448 1.5172 0.0000
0.3448 1.5517 0.0000
0.3448 1.5862 0.0000
0.3448 1.6207 0.0000
0.3448 1.6552 0.0000
0.3448 1.6897 0.0000
0.3448 1.7241 0.0000
0.3448 1.7586 0.0000
0.3448 1.7931 0.0000
0.3448 1.8276 0.0000
0.3448 1.8621 0.0000
0.3448 1.8966 0.0000
0.3448 1.9310 0.0000
0.3448 1.9655 0.0000
0.3448 2.0000 0.0000
0.4138 1.0000 0.0000
0.4138 1.0345 0.0000
0.4138 1.0690 0.0000
0.4138 1.1034 0.0000
0.4138 1.1379 0.0000
0.4138 1.1724 0.0000
0.4138 1.2069 0.0000
0.4138 1.2414 0.0000
0.4138 1.2759 0.0000
0.4138 1.3103 0.0000
0.4138 1.3448 0.0000
0.4138 1.3793 0.0000
0.4138 1.4138 0.0000
0.4138 1.4483 0.0000
0.4138 1.4828 0.0000
0.4138 1.5172 0.0000
0.4138 1.5517 0.0000
0.4138 1.5862 0.0000
0.4138 1.6207 0.0000
0.4138 1.6552 0.0000
0.4138 1.6897 0.0000
0.4138 1.7241 0.0000
0.4138 1.7586 0.0000
0.4138 1.7931 0.0000
0.4138 1.8276 0.0000
0.4138 1.8621 0.0000
0.4138 1.8966 0.0000
0.4138 1.9310 0.0000
0.4138 1.9655 0.0000
0.4138 2.0000 0.0000
0.4828 1.0000 0.0000
0.4828 1.0345 0.0000
0.4828 1.0690 0.0000
0.4828 1.1034 0.0000
0.4828 1.1379 0.0000
0.4828 1.1724 0.0000
0.4828 1.2069 0.0000
0.4828 1.2414 0.0000
0.4828 1.2759 0.0000
0.4828 1.3103 0.0000
0.4828 1.3448 0.0000
0.4828 1.3793 0.0000
0.4828 1.4138 0.0000
0.4828 1.4483 0.0000
0.4828 1.4828 0.0000
0.4828 1.5172 0.0000
0.4828 1.5517 0.0000
0.4828 1.5862 0.0000
0.4828 1.6207 0.0000
0.4828 1.6552 0.0000
0.4828 1.6897 0.0000
0.4828 1.7241 0.0000
0.4828 1.7586 0.0000
0.4828 1.7931 0.0000
0.4828 1.8276 0.0000
0.4828 1.8621 0.0000
0.4828 1.8966 0.0000
0.4828 1.9310 0.0000
0.4828 1.9655 0.0000
0.4828 2.0000 0.0000
0.5517 1.0000 0.0000
0.5517 1.0345 0.0000
0.5517 1.0690 0.0000
0.5517 1.1034 0.0000
0.5517 1.1379 0.0000
0.5517 1.1724 0.0000
0.5517 1.2069 0.0000
0.5517 1.2414 0.0000
0.5517 1.2759 0.0000
0.5517 1.3103 0.0000
0.5517 1.3448 0.0000
0.5517 1.3793 0.0000
0.5517 1.4138 0.0000
0.5517 1.4483 0.0000
0.5517 1.4828 0.0000
0.5517 1.5172 0.0000
0.5517 1.5517 0.0000
0.5517 1.5862 0.0000
0.5517 1.6207 0.0000
0.5517 1.6552 0.0000
0.5517 1.6897 0.0000
0.5517 1.7241 0.0000
0.5517 1.7586 0.0000
0.5517 1.7931 0.0000
0.5517 1.8276 0.0000
0.5517 1.8621 0.0000
0.5517 1.8966 0.0000
0.5517 1.9310 0.0000
0.5517 1.9655 0.0000
0.5517 2.0000 0.0000
0.6207 1.0000 0.0000
0.6207 1.0345 0.0000
0.6207 1.0690 0.0000
0.6207 1.1034 0.0000
0.6207 1.1379 0.0000
0.6207 1.1724 0.0000
0.6207 1.2069 0.0000
0.6207 1.2414 0.0000
0.6207 1.2759 0.0000
0.6207 1.3103 0.0000
0.6207 1.3448 0.0000
0.6207 1.3793 0.0000
0.6207 1.4138 0.0000
0.6207 1.4483 0.0000
0.6207 1.4828 0.0000
0.6207 1.5172 0.0000
0.6207 1.5517 0.0000
0.6207 1.5862 0.0000
0.6207 1.6207 0.0000
0.6207 1.6552 0.0000
0.6207 1.6897 0.0000
0.6207 1.7241 0.0000
0.6207 1.7586 0.0000
0.6207 1.7931 0.0000
0.6207 1.8276 0.0000
0.6207 1.8621 0.0000
0.6207 1.8966 0.0000
0.6207 1.9310 0.0000
0.6207 1.9655 0.0000
0.6207 2.0000 0.0000
0.6897 1.0000 0.0000
0.6897 1.0345 0.0000
0.6897 1.0690 0.0000
0.6897 1.1034 0.0000
0.6897 1.1379 0.0000
0.6897 1.1724 0.0000
0.6897 1.2069 0.0000
0.6897 1.2414 0.0000
0.6897 1.2759 0.0000
0.6897 1.3103 0.0000
0.6897 1.3448 0.0000
0.6897 1.3793 0.0000
0.6897 1.4138 0.0000
0.6897 1.4483 0.0000
0.6897 1.4828 0.0000
0.6897 1.5172 0.0000
0.6897 1.5517 0.0000
0.6897 1.5862 0.0000
0.6897 1.6207 0.0000
0.6897 1.6552 0.0000
0.6897 1.6897 0.0000
0.6897 1.7241 0.0000
0.6897 1.7586 0.0000
0.6897 1.7931 0.0000
0.6897 1.8276 0.0000
0.6897 1.8621 0.0000
0.6897 1.8966 0.0000
0.6897 1.9310 0.0000
0.6897 1.9655 0.0000
0.6897 2.0000 0.0000
0.7586 1.0000 0.0000
0.7586 1.0345 0.0000
0.7586 1.0690 0.0000
0.7586 1.1034 0.0000
0.7586 1.1379 0.0000
0.7586 1.1724 0.0000
0.7586 1.2069 0.0000
0.7586 1.2414 0.0000
0.7586 1.2759 0.0000
0.7586 1.3103 0.0000
0.7586 1.3448 0.0000
0.7586 1.3793 0.0000
0.7586 1.4138 0.0000
0.7586 1.4483 0.0000
0.7586 1.4828 0.0000
0.7586 1.5172 0.0000
0.7586 1.5517 0.0000
0.7586 1.5862 0.0000
0.7586 1.6207 0.0000
0.7586 1.6552 0.0000
0.7586 1.6897 0.0000
0.7586 1.7241 0.0000
0.7586 1.7586 0.0000
0.7586 1.7931 0.0000
0.7586 1.8276 0.0000
0.7586 1.8621 0.0000
0.7586 1.8966 0.0000
0.7586 1.9310 0.0000
0.7586 1.9655 0.0000
0.7586 2.0000 0.0000
0.8276 1.0000 0.0000
0.8276 1.0345 0.0000
0.8276 1.0690 0.0000
0.8276 1.1034 0.0000
0.8276 1.1379 0.0000
0.8276 1.1724 0.0000
0.8276 1.2069 0.0000
0.8276 1.2414 0.0000
0.8276 1.2759 0.0000
0.8276 1.3103 0.0000
0.8276 1.3448 0.0000
0.8276 1.3793 0.0000
0.8276 1.4138 0.0000
0.8276 1.4483 0.0000
0.8276 1.4828 0.0000
0.8276 1.5172 0.0000
0.8276 1.5517 0.0000
0.8276 1.5862 0.0000
0.8276 1.6207 0.0000
0.8276 1.6552 0.0000
0.8276 1.6897 0.0000
0.8276 1.7241 0.0000
0.8276 1.7586 0.0000
0.8276 1.7931 0.0000
0.8276 1.8276 0.0000
0.8276 1.8621 0.0000
0.8276 1.8966 0.0000
0.8276 1.9310 0.0000
0.8276 1.9655 0.0000
0.8276 2.0000 0.0000
0.8966 1.0000 0.0000
0.8966 1.0345 0.0000
0.8966 1.0690 0.0000
0.8966 1.1034 0.0000
0.8966 1.1379 0.0000
0.8966 1.1724 0.0000
0.8966 1.2069 0.0000
0.8966 1.2414 0.0000
0.8966 1.2759 0.0000
0.8966 1.3103 0.0000
0.8966 1.3448 0.0000
0.8966 1.3793 0.0000
0.8966 1.4138 0.0000
0.8966 1.4483 0.0000
0.8966 1.4828 0.0000
0.8966 1.5172 0.0000
0.8966 1.5517 0.0000
0.8966 1.5862 0.0000
0.8966 1.6207 0.0000
0.8966 1.6552 0.0000
0.8966 1.6897 0.0000
0.8966 1.7241 0.0000
0.8966 1.7586 0.0000
0.8966 1.7931 0.0000
0.8966 1.8276 0.0000
0.8966 1.8621 0.0000
0.8966 1.8966 0.0000
0.8966 1.9310 0.0000
0.8966 1.9655 0.0000
0.8966 2.0000 0.0000
0.9655 1.0000 0.0000
0.9655 1.0345 0.0000
0.9655 1.0690 0.0000
0.9655 1.1034 0.0000
0.9655 1.1379 0.0000
0.9655 1.1724 0.0000
0.9655 1.2069 0.0000
0.9655 1.2414 0.0000
0.9655 1.2759 0.0000
0.9655 1.3103 0.0000
0.9655 1.3448 0.0000
0.9655 1.3793 0.0000
0.9655 1.4138 0.0000
0.9655 1.4483 0.0000
0.9655 1.4828 0.0000
0.9655 1.5172 0.0000
0.9655 1.5517 0.0000
0.9655 1.5862 0.0000
0.9655 1.6207 0.0000
0.9655 1.6552 0.0000
0.9655 1.6897 0.0000
0.9655 1.7241 0.0000
0.9655 1.7586 0.0000
0.9655 1.7931 0.0000
0.9655 1.8276 0.0000
0.9655 1.8621 0.0000
0.9655 1.8966 0.0000
0.9655 1.9310 0.0000
0.9655 1.9655 0.0000
0.9655 2.0000 0.0000
1.0345 1.0000 0.0000
1.0345 1.0345 0.0000
1.0345 1.0690 0.0000
1.0345 1.1034 0.0000
1.0345 1.1379 0.0000
1.0345 1.1724 0.0000
1.0345 1.2069 0.0000
1.0345 1.2414 0.0000
1.0345 1.2759 0.0000
1.0345 1.3103 0.0000
1.0345 1.3448 0.0000
[...]
         <PointData>
            <DataArray Name="fValues" NumberOfComponents="3" format="ascii" type="Float64">
 9.28313e-26  5.57435e-25        00000 
 8.77290e-26  8.11493e-25        00000 
 1.73506e-25  3.55688e-24        00000 
 4.01116e-24  8.56731e-24        00000 
 8.32830e-24  1.30130e-23        00000 
-2.37691e-23  2.34657e-23        00000 
 1.13820e-22  1.56156e-24        00000 
-5.28427e-23  2.95845e-22        00000 
 3.10923e-22  6.77368e-22        00000 
 6.79766e-23 -2.31913e-22        00000 
 1.42136e-21 -1.22148e-21        00000 
 5.35751e-22  8.97384e-21        00000 
 7.10681e-21  4.26409e-21        00000 
 2.34047e-20  3.48926e-20        00000 
 1.42136e-20 -1.35029e-20        00000 
 1.79477e-20 -1.39429e-19        00000 
 1.70564e-20  5.68545e-20        00000 
 4.30332e-20 -1.15009e-19        00000 
 1.13709e-20  1.98991e-19        00000 
 2.67876e-21  2.64304e-20        00000 
-5.68545e-21  4.54836e-19        00000 
 3.14725e-22  3.46944e-21        00000 
-3.41127e-20  1.13709e-20        00000 
-1.28580e-20  2.31445e-19        00000 
-1.42136e-20  5.96972e-20        00000 
-3.31098e-20 -9.06227e-21        00000 
 5.68545e-21  4.40622e-20        00000 
-5.36751e-21  1.06456e-20        00000 
 3.18070e-21 -2.62072e-21        00000 
 1.08511e-21  2.30043e-21        00000 
 2.40234e-09 -5.04480e-10        00000 
 2.54856e-09 -8.45522e-10        00000 
 6.89601e-09 -1.25274e-09        00000 
 1.75853e-08 -2.72067e-09        00000 
 4.41603e-08 -7.12141e-09        00000 
 1.11337e-07 -2.12256e-08        00000 
 2.84596e-07 -6.45038e-08        00000 
 7.37080e-07 -1.81009e-07        00000 
 1.91157e-06 -4.36047e-07        00000 
 4.86824e-06 -8.17442e-07        00000 
 1.19089e-05 -8.31944e-07        00000 
 2.74033e-05  1.56636e-06        00000 
 5.82199e-05  1.20052e-05        00000 
 1.12285e-04  4.21711e-05        00000 
 1.93354e-04  1.10436e-04        00000 
 2.91901e-04  2.36717e-04        00000 
 3.77366e-04  4.29313e-04        00000 
 4.02354e-04  6.68611e-04        00000 
 3.25846e-04  9.00941e-04        00000 
 1.45519e-04  1.05457e-03        00000 
-8.75760e-05  1.07400e-03        00000 
-2.91444e-04  9.50832e-04        00000 
-4.00076e-04  7.28999e-04        00000 
-3.98430e-04  4.80561e-04        00000 
-3.20092e-04  2.69021e-04        00000 
-2.16320e-04  1.24922e-04        00000 
-1.25632e-04  4.55444e-05        00000 
-6.31584e-05  1.04010e-05        00000 
-2.65215e-05 -3.19923e-06        00000 
-2.96336e-05 -3.81483e-06        00000 
-2.41857e-09  1.05767e-09        00000 
-2.94449e-09  1.70485e-09        00000 
-7.36799e-09  3.57917e-09        00000 
-1.91296e-08  8.12215e-09        00000 
-4.84689e-08  2.03880e-08        00000 
-1.21761e-07  5.60529e-08        00000 
-3.05600e-07  1.59747e-07        00000 
-7.69206e-07  4.39542e-07        00000 
-1.93951e-06  1.09693e-06        00000 
-4.86122e-06  2.32633e-06        00000 
-1.19373e-05  3.69138e-06        00000 
-2.81651e-05  2.16089e-06        00000 
-6.24631e-05 -1.21770e-05        00000 
-1.27297e-04 -6.24245e-05        00000 
-2.33024e-04 -1.88856e-04        00000 
-3.74060e-04 -4.40810e-04        00000 
-5.11783e-04 -8.47536e-04        00000 
-5.72468e-04 -1.37531e-03        00000 
-4.80722e-04 -1.90399e-03        00000 
-2.20082e-04 -2.26067e-03        00000 
 1.30403e-04 -2.30699e-03        00000 
 4.32266e-04 -2.02145e-03        00000 
 5.76857e-04 -1.51336e-03        00000 
 5.49526e-04 -9.58889e-04        00000 
 4.16833e-04 -5.05439e-04        00000 
 2.63554e-04 -2.13552e-04        00000 
 1.42624e-04 -6.48268e-05        00000 
 6.67756e-05 -6.74582e-06        00000 
 2.97588e-05  7.51079e-06        00000 
 2.75998e-05  8.65064e-06        00000 
 1.93643e-09 -1.50684e-09        00000 
 2.48872e-09 -2.43315e-09        00000 
 6.29121e-09 -5.48173e-09        00000 
 1.66985e-08 -1.26469e-08        00000 
 4.29874e-08 -3.08876e-08        00000 
 1.07712e-07 -8.03929e-08        00000 
 2.63239e-07 -2.17184e-07        00000 
 6.30965e-07 -5.80417e-07        00000 
 1.50093e-06 -1.45543e-06        00000 
 3.59793e-06 -3.23308e-06        00000 
 8.76772e-06 -5.79834e-06        00000 
 2.15196e-05 -6.14958e-06        00000 
 5.16825e-05  7.76700e-06        00000 
 1.16829e-04  6.82074e-05        00000 
 2.39099e-04  2.39069e-04        00000 
 4.27430e-04  6.10848e-04        00000 
 6.43708e-04  1.25544e-03        00000 
 7.79411e-04  2.14080e-03        00000 
 6.94447e-04  3.06548e-03        00000 
 3.31048e-04  3.70602e-03        00000 
-1.91506e-04  3.79183e-03        00000 
-6.30775e-04  3.28009e-03        00000 
-8.03630e-04  2.38323e-03        00000 
-7.11019e-04  1.43760e-03        00000 
-4.88904e-04  7.04854e-04        00000 
-2.74618e-04  2.66978e-04        00000 
-1.30267e-04  6.50252e-05        00000 
-5.36801e-05 -2.52095e-06        00000 
-2.18896e-05 -1.30488e-05        00000 
-1.85316e-05 -1.27811e-05        00000 
-1.26905e-09  1.84534e-09        00000 
-1.74766e-09  3.04899e-09        00000 
-4.58354e-09  7.12032e-09        00000 
-1.25967e-08  1.66631e-08        00000 
-3.31842e-08  3.98264e-08        00000 
-8.31829e-08  9.79776e-08        00000 
-1.97038e-07  2.46689e-07        00000 
-4.40302e-07  6.23403e-07        00000 
-9.40804e-07  1.53198e-06        00000 
-2.00710e-06  3.50280e-06        00000 
-4.60285e-06  6.94574e-06        00000 
-1.19103e-05  1.00714e-05        00000 
-3.32556e-05  1.94641e-06        00000 
-9.07953e-05 -5.37011e-05        00000 
-2.23467e-04 -2.43034e-04        00000 
-4.70379e-04 -7.13343e-04        00000 
-8.12924e-04 -1.62037e-03        00000 
-1.09951e-03 -2.97658e-03        00000 
-1.06419e-03 -4.48425e-03        00000 
-5.37298e-04 -5.56998e-03        00000 
 3.01297e-04 -5.72117e-03        00000 
 9.83568e-04 -4.85668e-03        00000 
 1.17321e-03 -3.37286e-03        00000 
 9.34298e-04 -1.88652e-03        00000 
 5.56371e-04 -8.25635e-04        00000 
 2.59708e-04 -2.60455e-04        00000 
 9.78580e-05 -3.81446e-05        00000 
 3.07469e-05  1.85202e-05        00000 
 9.75511e-06  1.87236e-05        00000 
 7.53248e-06  1.51096e-05        00000 
 5.36458e-10 -2.07572e-09        00000 
 8.75099e-10 -3.51443e-09        00000 
 2.49832e-09 -8.42694e-09        00000 
 7.32101e-09 -1.99831e-08        00000 
 2.00371e-08 -4.70571e-08        00000 
 5.03882e-08 -1.10229e-07        00000 
 1.14119e-07 -2.57148e-07        00000 
 2.25522e-07 -5.98903e-07        00000 
 3.68209e-07 -1.39210e-06        00000 
 4.52824e-07 -3.18607e-06        00000 
 4.40167e-07 -6.88613e-06        00000 
 1.43032e-06 -1.27388e-05        00000 
 9.95079e-06 -1.46318e-05        00000 
 4.90268e-05  1.87434e-05        00000 
 1.75246e-04  1.85479e-04        00000 
 4.78613e-04  7.00354e-04        00000 
 1.00638e-03  1.86868e-03        00000 
 1.58448e-03  3.85189e-03        00000 
 1.72003e-03  6.27262e-03        00000 
 9.43639e-04  8.12028e-03        00000 
-5.08547e-04  8.38985e-03        00000 
-1.63956e-03  6.92658e-03        00000 
-1.77848e-03  4.48552e-03        00000 
-1.21919e-03  2.22280e-03        00000 
-5.86692e-04  8.00222e-04        00000 
-2.00029e-04  1.69854e-04        00000 
-4.32461e-05 -1.61812e-05        00000 
-1.43847e-06 -3.73562e-05        00000 
 3.37881e-06 -2.22114e-05        00000 
 2.64407e-06 -1.48945e-05        00000 
 1.96192e-10  2.18379e-09        00000 
 5.19109e-11  3.77384e-09        00000 
-1.88629e-10  9.22464e-09        00000 
-1.21738e-09  2.20953e-08        00000 
-4.30250e-09  5.15285e-08        00000 
-1.08688e-08  1.16397e-07        00000 
-1.76107e-08  2.53903e-07        00000 
 4.82661e-09  5.38258e-07        00000 
 1.80346e-07  1.13402e-06        00000 
 8.96408e-07  2.46032e-06        00000 
 3.06974e-06  5.59485e-06        00000 
 8.00573e-06  1.27071e-05        00000 
 1.44444e-05  2.49573e-05        00000 
 5.94969e-06  2.73029e-05        00000 
-8.14406e-05 -6.47470e-05        00000 
-4.01869e-04 -5.16855e-04        00000 
-1.15426e-03 -1.85974e-03        00000 
-2.26111e-03 -4.62974e-03        00000 
-2.89362e-03 -8.53059e-03        00000 
-1.79999e-03 -1.17984e-02        00000 
 9.21693e-04 -1.23118e-02        00000 
 2.91943e-03 -9.73344e-03        00000 
 2.73852e-03 -5.62434e-03        00000 
 1.49546e-03 -2.25917e-03        00000 
 5.01178e-04 -5.35938e-04        00000 
 7.12306e-05  1.18983e-05        00000 
-3.00968e-05  8.30844e-05        00000 
-2.81761e-05  5.03357e-05        00000 
-1.44545e-05  2.12127e-05        00000 
-1.05976e-05  1.20254e-05        00000 
-8.83716e-10 -2.15551e-09        00000 
-9.73021e-10 -3.78119e-09        00000 
-2.18881e-09 -9.35327e-09        00000 
-5.26263e-09 -2.25241e-08        00000 
-1.27824e-08 -5.21394e-08        00000 
-3.24013e-08 -1.14904e-07        00000 
-8.67722e-08 -2.38624e-07        00000 
-2.43343e-07 -4.64538e-07        00000 
-7.00004e-07 -8.59718e-07        00000 
-2.01588e-06 -1.61703e-06        00000 
-5.65389e-06 -3.53441e-06        00000 
-1.48904e-05 -9.52071e-06        00000 
-3.47578e-05 -2.71508e-05        00000 
-6.37950e-05 -6.52389e-05        00000 
-5.56024e-05 -9.07541e-05        00000 
 1.80427e-04  1.34592e-04        00000 
 1.08747e-03  1.37289e-03        00000 
 3.02600e-03  4.92382e-03        00000 
 4.95485e-03  1.12100e-02        00000 
 3.74068e-03  1.74016e-02        00000 
-1.79704e-03  1.85844e-02        00000 
-5.55366e-03  1.35703e-02        00000 
-4.11330e-03  6.38082e-03        00000 
-1.51733e-03  1.63025e-03        00000 
-1.80898e-04 -4.20221e-05        00000 
 1.26175e-04 -2.40881e-04        00000 
 1.03244e-04 -1.29552e-04        00000 
 4.98663e-05 -4.85903e-05        00000 
 2.12348e-05 -1.54924e-05        00000 
 1.62834e-05 -7.69005e-06        00000 
 1.49185e-09  1.98198e-09        00000 
 1.82989e-09  3.51093e-09        00000 
 4.46283e-09  8.72153e-09        00000 
 1.15784e-08  2.10084e-08        00000 
 2.96157e-08  4.82620e-08        00000 
 7.52036e-08  1.04519e-07        00000 
 1.89788e-07  2.10226e-07        00000 
 4.75710e-07  3.85195e-07        00000 
 1.18642e-06  6.29323e-07        00000 
 2.96135e-06  9.26482e-07        00000 
 7.44862e-06  1.52707e-06        00000 
 1.88484e-05  4.52990e-06        00000 
 4.68586e-05  1.93821e-05        00000 
 1.07804e-04  7.43182e-05        00000 
 2.01998e-04  2.14108e-04        00000 
 1.90741e-04  3.69011e-04        00000 
-5.31929e-04 -1.94699e-04        00000 
-3.34441e-03 -3.85505e-03        00000 
-8.17321e-03 -1.35609e-02        00000 
-8.32893e-03 -2.63963e-02        00000 
 3.72062e-03 -3.04152e-02        00000 
 1.11223e-02 -1.83227e-02        00000 
 5.42897e-03 -5.43995e-03        00000 
 7.10049e-04  1.87643e-04        00000 
-4.23163e-04  8.28939e-04        00000 
-3.16265e-04  3.88854e-04        00000 
-1.48316e-04  1.21717e-04        00000 
-5.81486e-05  3.15194e-05        00000 
-2.36248e-05  8.02503e-06        00000 
-2.04396e-05  3.83311e-06        00000 
-1.98474e-09 -1.65734e-09        00000 
-2.54721e-09 -2.96038e-09        00000 
-6.42498e-09 -7.30463e-09        00000 
-1.70864e-08 -1.75052e-08        00000 
-4.43149e-08 -3.98427e-08        00000 
-1.12476e-07 -8.49999e-08        00000 
-2.79238e-07 -1.67201e-07        00000 
-6.77354e-07 -2.95066e-07        00000 
-1.60737e-06 -4.41830e-07        00000 
-3.75409e-06 -4.88142e-07        00000 
-8.74319e-06 -2.39564e-07        00000 
-2.06967e-05 -2.46238e-07        00000 
-5.05006e-05 -6.63046e-06        00000 
-1.25398e-04 -4.97038e-05        00000 
-2.97550e-04 -2.30667e-04        00000 
-5.86175e-04 -7.48059e-04        00000 
-5.67706e-04 -1.48845e-03        00000 
 1.77340e-03  4.53001e-05        00000 
 1.11318e-02  1.23630e-02        00000 
 1.84825e-02  4.07404e-02        00000 
-7.66561e-03  6.09839e-02        00000 
-2.20730e-02  1.99424e-02        00000 
-4.06355e-03 -5.47684e-04        00000 
 1.51804e-03 -3.16881e-03        00000 
 9.04210e-04 -1.25644e-03        00000 
 3.95217e-04 -3.22949e-04        00000 
 1.47946e-04 -6.31313e-05        00000 
 5.51315e-05 -1.09734e-05        00000 
 2.28111e-05 -3.10370e-06        00000 
 2.30742e-05 -1.55190e-06        00000 
 2.27967e-09  1.16914e-09        00000 
 2.95715e-09  2.15381e-09        00000 
 7.68058e-09  5.12319e-09        00000 
 2.06650e-08  1.21283e-08        00000 
 5.38173e-08  2.72812e-08        00000 
 1.36316e-07  5.72461e-08        00000 
 3.35680e-07  1.10174e-07        00000 
 8.03067e-07  1.88522e-07        00000 
 1.86773e-06  2.65523e-07        00000 
 4.23717e-06  2.25525e-07        00000 
 9.45580e-06 -2.42307e-07        00000 
 2.11138e-05 -1.58877e-06        00000 
 4.84865e-05 -2.46865e-06        00000 
 1.17734e-04  1.32023e-05        00000 
 3.02044e-04  1.35515e-04        00000 
 7.67526e-04  7.18248e-04        00000 
 1.67658e-03  2.64824e-03        00000 
 1.94301e-03  6.11021e-03        00000 
-4.34110e-03  8.04129e-04        00000 
-3.33671e-02 -5.69182e-02        00000 
 1.33857e-02 -1.78141e-01        00000 
 3.47687e-02  1.15360e-02        00000 
-6.59017e-03  1.46761e-02        00000 
-2.16635e-03  4.22462e-03        00000 
-8.66582e-04  7.90299e-04        00000 
-2.95619e-04  1.16086e-04        00000 
-1.09384e-04  1.39846e-05        00000 
-4.27771e-05  2.90611e-06        00000 
-1.67415e-05  3.65442e-06        00000 
-2.13502e-05  9.33706e-07        00000 
-2.09246e-09 -5.62737e-10        00000 
-2.48442e-09 -1.28624e-09        00000 
-7.00354e-09 -2.65564e-09        00000 
-1.88605e-08 -6.31583e-09        00000 
-4.91381e-08 -1.44557e-08        00000 
-1.24189e-07 -3.11820e-08        00000 
-3.04400e-07 -6.29446e-08        00000 
-7.23510e-07 -1.17717e-07        00000 
-1.66912e-06 -2.00077e-07        00000 
-3.74673e-06 -2.94656e-07        00000 
-8.22475e-06 -3.19200e-07        00000 
-1.78327e-05 -2.72253e-08        00000 
-3.89366e-05  8.72009e-07        00000 
-8.85885e-05 -6.79444e-07        00000 
-2.19013e-04 -3.91610e-05        00000 
-5.99520e-04 -3.44740e-04        00000 
-1.72608e-03 -2.05360e-03        00000 
-4.77815e-03 -8.90112e-03        00000 
-1.05350e-02 -2.28049e-02        00000 
-1.92956e-02  3.56725e-02        00000 
 8.46872e-03  7.72427e-01        00000 
 3.15831e-04 -2.44972e-01        00000 
-7.19329e-05 -7.46173e-03        00000 
-2.64827e-05 -1.73294e-03        00000 
-1.06068e-05 -5.41464e-04        00000 
-3.65077e-06 -2.18261e-04        00000 
-1.34836e-06 -9.72280e-05        00000 
-5.26068e-07 -4.44840e-05        00000 
-2.11507e-07 -2.18139e-05        00000 
-1.00674e-06 -6.76593e-06        00000 
-8.54933e-11  5.26948e-10        00000 
-3.10891e-11  2.27678e-09        00000 
-8.60156e-11  6.01435e-09        00000 
-2.31417e-10  1.64042e-08        00000 
-6.02434e-10  4.40392e-08        00000 
-1.52141e-09  1.15246e-07        00000 
-3.72655e-09  2.92991e-07        00000 
-8.85204e-09  7.22698e-07        00000 
-2.04114e-08  1.72942e-06        00000 
-4.58045e-08  4.01870e-06        00000 
-1.00554e-07  9.08367e-06        00000 
-2.18174e-07  2.00184e-05        00000 
-4.77261e-07  4.31331e-05        00000 
-1.08934e-06  9.13153e-05        00000 
-2.70192e-06  1.92921e-04        00000 
-7.39443e-06  4.29533e-04        00000 
-2.11684e-05  1.15002e-03        00000 
-5.78148e-05  4.15681e-03        00000 
-1.25720e-04  1.80446e-02        00000 
-2.21292e-04  7.36633e-02        00000 
 9.45415e-05  2.11190e-01        00000 
-4.72855e-18  2.63366e-17        00000 
 2.94249e-19 -9.19070e-18        00000 
-1.33629e-20  1.45125e-18        00000 
 1.14162e-20 -2.24890e-19        00000 
-4.61462e-21  8.62328e-21        00000 
 1.62054e-21 -1.73691e-21        00000 
-3.79164e-22 -1.68689e-21        00000 
 6.35801e-23 -1.37790e-21        00000 
-4.46460e-23 -6.91315e-22        00000 
 1.28774e-26 -2.38571e-25        00000 
-5.30786e-27  2.47057e-25        00000 
 3.12398e-26 -1.85996e-25        00000 
-2.41541e-25  9.81499e-25        00000 
 3.26103e-25 -8.33354e-24        00000 
 5.36757e-25  1.57040e-23        00000 
-1.64889e-24 -1.63916e-23        00000 
-4.17379e-24  3.39981e-23        00000 
 1.11227e-23  8.63097e-23        00000 
-1.59518e-23  3.00966e-22        00000 
-5.34888e-23 -2.72436e-23        00000 
 2.51264e-22 -2.76390e-21        00000 
-3.35880e-22  1.98240e-21        00000 
-5.33936e-22  6.03033e-21        00000 
 4.75661e-21 -6.21291e-21        00000 
-1.72775e-20 -4.51012e-20        00000 
 2.39318e-20  8.23536e-20        00000 
-8.48327e-21  1.25745e-18        00000 
 4.39106e-20 -6.06285e-19        00000 
-1.49753e-19 -7.20424e-18        00000 
-2.44919e-20  2.49921e-17        00000 
 3.20623e-19 -1.14720e-17        00000 
-2.19457e-19  2.63375e-18        00000 
 3.00298e-20 -6.82537e-19        00000 
-4.36367e-21  1.29370e-19        00000 
 1.23755e-21 -2.02840e-20        00000 
-3.88446e-22  2.65707e-21        00000 
 1.16324e-22 -4.66243e-22        00000 
-3.17375e-23  1.12817e-23        00000 
 1.35694e-23 -5.50836e-23        00000 
-1.95857e-27  4.35996e-26        00000 
 3.21364e-27 -5.04481e-26        00000 
-1.36221e-26  1.11900e-25        00000 
 3.20373e-26 -5.24219e-25        00000 
-9.38034e-27  1.44729e-24        00000 
-7.24433e-26 -2.93604e-24        00000 
-7.50246e-26  3.68018e-24        00000 
 7.72068e-25 -1.56659e-24        00000 
-1.86909e-24  2.52871e-23        00000 
-1.42004e-24 -1.04581e-23        00000 
 1.47947e-23 -9.63184e-23        00000 
-3.19907e-23  3.23286e-22        00000 
-8.57116e-24 -6.56236e-23        00000 
 2.98976e-22 -4.06538e-22        00000 
-1.21877e-21 -1.54003e-21        00000 
 2.63953e-21  4.75899e-21        00000 
-3.23006e-21  2.75362e-20        00000 
 4.14340e-21 -8.96872e-20        00000 
-1.02710e-20 -3.32574e-19        00000 
 1.14033e-20  1.85410e-18        00000 
 9.51100e-21 -3.32421e-18        00000 
-3.51330e-20  2.21126e-18        00000 
 3.22247e-20 -7.71490e-19        00000 
-1.30038e-20  2.20867e-19        00000 
 2.56894e-21 -5.34842e-20        00000 
-4.99928e-22  1.10677e-20        00000 
 1.25880e-22 -1.97267e-21        00000 
-3.61844e-23  3.22975e-22        00000 
 1.19231e-23 -5.30743e-23        00000 
-6.34746e-24  8.94662e-24        00000 
 5.45154e-28 -9.11714e-27        00000 
-1.03665e-27  1.35597e-26        00000 
 2.63988e-27 -3.89338e-26        00000 
-3.39619e-27  1.19569e-25        00000 
 5.93996e-31 -2.79137e-25        00000 
-1.63632e-27  4.64552e-25        00000 
 4.16099e-26 -5.91984e-25        00000 
-1.31604e-25  1.58851e-24        00000 
 4.99336e-26 -4.85246e-24        00000 
 7.50833e-25 -2.69301e-24        00000 
-2.38875e-24  2.00627e-23        00000 
 1.18124e-24 -2.92133e-23        00000 
 1.74712e-23 -1.28997e-23        00000 
-8.63222e-23 -4.37841e-23        00000 
 2.34228e-22  2.20315e-22        00000 
-4.15600e-22  6.86379e-22        00000 
 5.69705e-22 -2.41665e-21        00000 
-9.42922e-22 -1.40764e-20        00000 
 1.43324e-21  1.13807e-19        00000 
-8.11513e-22 -3.08554e-19        00000 
-1.81310e-21  4.24748e-19        00000 
 4.54192e-21 -3.54421e-19        00000 
-4.62186e-21  1.76031e-19        00000 
 2.63132e-21 -6.11177e-20        00000 
-9.06574e-22  1.68155e-20        00000 
 2.13213e-22 -4.31307e-21        00000 
-4.81125e-23  9.45838e-22        00000 
 1.22005e-23 -1.84284e-22        00000 
-3.64742e-24  3.39521e-23        00000 
 1.95704e-24 -1.09752e-23        00000 
-1.50994e-28  2.48153e-27        00000 
 2.35642e-28 -3.99134e-27        00000 
-4.06499e-28  9.83320e-27        00000 
 4.87327e-28 -2.45140e-26        00000 
-1.35404e-27  4.53002e-26        00000 
 2.42316e-27 -5.88222e-26        00000 
-1.68772e-26  1.02724e-25        00000 
 1.27447e-26 -3.42167e-25        00000 
 2.87964e-26  7.01784e-25        00000 
-1.54842e-25 -1.20986e-24        00000 
 2.41522e-25  2.00987e-24        00000 
 6.17085e-25 -2.29106e-24        00000 
-5.97269e-24 -1.72459e-24        00000 
 1.97331e-23  9.52810e-24        00000 
-4.28940e-23  2.23155e-24        00000 
 7.29713e-23  1.64498e-23        00000 
-1.12218e-22 -1.62157e-21        00000 