<?xml version="1.0" encoding="utf-8"?>
<VTKFile byte_order="LittleEndian" type="UnstructuredGrid" version="0.1">
   <UnstructuredGrid>
      <Piece NumberOfCells="3364" NumberOfPoints="1741">
         <Points>
            <DataArray Name="Points" NumberOfComponents="3" format="ascii" type="Float32">
0.0000 1.0000 0.0000
0.0000 1.0345 0.0000
0.0000 1.0690 0.0000
0.0000 1.1034 0.0000
0.0000 1.1379 0.0000
0.0000 1.1724 0.0000
0.0000 1.2069 0.0000
0.0000 1.2414 0.0000
0.0000 1.2759 0.0000
0.0000 1.3103 0.0000
0.0000 1.3448 0.0000
0.0000 1.3793 0.0000
0.0000 1.4138 0.0000
0.0000 1.4483 0.0000
0.0000 1.4828 0.0000
0.0000 1.5172 0.0000
0.0000 1.5517 0.0000
0.0000 1.5862 0.0000
0.0000 1.6207 0.0000
0.0000 1.6552 0.0000
0.0000 1.6897 0.0000
0.0000 1.7241 0.0000
0.0000 1.7586 0.0000
0.0000 1.7931 0.0000
0.0000 1.8276 0.0000
0.0000 1.8621 0.0000
0.0000 1.8966 0.0000
0.0000 1.9310 0.0000
0.0000 1.9655 0.0000
0.0000 2.0000 0.0000
0.0690 1.0000 0.0000
0.0690 1.0345 0.0000
0.0690 1.0690 0.0000
0.0690 1.1034 0.0000
0.0690 1.1379 0.0000
0.0690 1.1724 0.0000
0.0690 1.2069 0.0000
0.0690 1.2414 0.0000
0.0690 1.2759 0.0000
0.0690 1.3103 0.0000
0.0690 1.3448 0.0000
0.0690 1.3793 0.0000
0.0690 1.4138 0.0000
0.0690 1.4483 0.0000
0.0690 1.4828 0.0000
0.0690 1.5172 0.0000
0.0690 1.5517 0.0000
0.0690 1.5862 0.0000
0.0690 1.6207 0.0000
0.0690 1.6552 0.0000
0.0690 1.6897 0.0000
0.0690 1.7241 0.0000
0.0690 1.7586 0.0000
0.0690 1.7931 0.0000
0.0690 1.8276 0.0000
0.0690 1.8621 0.0000
0.0690 1.8966 0.0000
0.0690 1.9310 0.0000
0.0690 1.9655 0.0000
0.0690 2.0000 0.0000
0.1379 1.0000 0.0000
0.1379 1.0345 0.0000
0.1379 1.0690 0.0000
0.1379 1.1034 0.0000
0.1379 1.1379 0.0000
0.1379 1.1724 0.0000
0.1379 1.2069 0.0000
0.1379 1.2414 0.0000
0.1379 1.2759 0.0000
0.1379 1.3103 0.0000
0.1379 1.3448 0.0000
0.1379 1.3793 0.0000
0.1379 1.4138 0.0000
0.1379 1.4483 0.0000
0.1379 1.4828 0.0000
0.1379 1.5172 0.0000
0.1379 1.5517 0.0000
0.1379 1.5862 0.0000
0.1379 1.6207 0.0000
0.1379 1.6552 0.0000
0.1379 1.6897 0.0000
0.1379 1.7241 0.0000
0.1379 1.7586 0.0000
0.1379 1.7931 0.0000
0.1379 1.8276 0.0000
0.1379 1.8621 0.0000
0.1379 1.8966 0.0000
0.1379 1.9310 0.0000
0.1379 1.9655 0.0000
0.1379 2.0000 0.0000
0.2069 1.0000 0.0000
0.2069 1.0345 0.0000
0.2069 1.0690 0.0000
0.2069 1.1034 0.0000
0.2069 1.1379 0.0000
0.2069 1.1724 0.0000
0.2069 1.2069 0.0000
0.2069 1.2414 0.0000
0.2069 1.2759 0.0000
0.2069 1.3103 0.0000
0.2069 1.3448 0.0000
0.2069 1.3793 0.0000
0.2069 1.4138 0.0000
0.2069 1.4483 0.0000
0.2069 1.4828 0.0000
0.2069 1.5172 0.0000
0.2069 1.5517 0.0000
0.2069 1.5862 0.0000
0.2069 1.6207 0.0000
0.2069 1.6552 0.0000
0.2069 1.6897 0.0000
0.2069 1.7241 0.0000
0.2069 1.7586 0.0000
0.2069 1.7931 0.0000
0.2069 1.8276 0.0000
0.2069 1.8621 0.0000
0.2069 1.8966 0.0000
0.2069 1.9310 0.0000
0.2069 1.9655 0.0000
0.2069 2.0000 0.0000
0.2759 1.0000 0.0000
0.2759 1.0345 0.0000
0.2759 1.0690 0.0000
0.2759 1.1034 0.0000
0.2759 1.1379 0.0000
0.2759 1.1724 0.0000
0.2759 1.2069 0.0000
0.2759 1.2414 0.0000
0.2759 1.2759 0.0000
0.2759 1.3103 0.0000
0.2759 1.3448 0.0000
0.2759 1.3793 0.0000
0.2759 1.4138 0.0000
0.2759 1.4483 0.0000
0.2759 1.4828 0.0000
0.2759 1.5172 0.0000
0.2759 1.5517 0.0000
0.2759 1.5862 0.0000
0.2759 1.6207 0.0000
0.2759 1.6552 0.0000
0.2759 1.6897 0.0000
0.2759 1.7241 0.0000
0.2759 1.7586 0.0000
0.2759 1.7931 0.0000
0.2759 1.8276 0.0000
0.2759 1.8621 0.0000
0.2759 1.8966 0.0000
0.2759 1.9310 0.0000
0.2759 1.9655 0.0000
0.2759 2.0000 0.0000
0.3448 1.0000 0.0000
0.3448 1.0345 0.0000
0.3448 1.0690 0.0000
0.3448 1.1034 0.0000
0.3448 1.1379 0.0000
0.3448 1.1724 0.0000
0.3448 1.2069 0.0000
0.3448 1.2414 0.0000
0.3448 1.2759 0.0000
0.3448 1.3103 0.0000
0.3448 1.3448 0.0000
0.3448 1.3793 0.0000
0.3448 1.4138 0.0000
0.3448 1.4483 0.0000
0.3448 1.4828 0.0000
0.3448 1.5172 0.0000
0.3448 1.5517 0.0000
0.3448 1.5862 0.0000
0.3448 1.6207 0.0000
0.3448 1.6552 0.0000
0.3448 1.6897 0.0000
0.3448 1.7241 0.0000
0.3448 1.7586 0.0000
0.3448 1.7931 0.0000
0.3448 1.8276 0.0000
0.3448 1.8621 0.0000
0.3448 1.8966 0.0000
0.3448 1.9310 0.0000
0.3448 1.9655 0.0000
0.3448 2.0000 0.0000
0.4138 1.0000 0.0000
0.4138 1.0345 0.0000
0.4138 1.0690 0.0000
0.4138 1.1034 0.0000
0.4138 1.1379 0.0000
0.4138 1.1724 0.0000
0.4138 1.2069 0.0000
0.4138 1.2414 0.0000
0.4138 1.2759 0.0000
0.4138 1.3103 0.0000
0.4138 1.3448 0.0000
0.4138 1.3793 0.0000
0.4138 1.4138 0.0000
0.4138 1.4483 0.0000
0.4138 1.4828 0.0000
0.4138 1.5172 0.0000
0.4138 1.5517 0.0000
0.4138 1.5862 0.0000
0.4138 1.6207 0.0000
0.4138 1.6552 0.0000
0.4138 1.6897 0.0000
0.4138 1.7241 0.0000
0.4138 1.7586 0.0000
0.4138 1.7931 0.0000
0.4138 1.8276 0.0000
0.4138 1.8621 0.0000
0.4138 1.8966 0.0000
0.4138 1.9310 0.0000
0.4138 1.9655 0.0000
0.4138 2.0000 0.0000
0.4828 1.0000 0.0000
0.4828 1.0345 0.0000
0.4828 1.0690 0.0000
0.4828 1.1034 0.0000
0.4828 1.1379 0.0000
0.4828 1.1724 0.0000
0.4828 1.2069 0.0000
0.4828 1.2414 0.0000
0.4828 1.2759 0.0000
0.4828 1.3103 0.0000
0.4828 1.3448 0.0000
0.4828 1.3793 0.0000
0.4828 1.4138 0.0000
0.4828 1.4483 0.0000
0.4828 1.4828 0.0000
0.4828 1.5172 0.0000
0.4828 1.5517 0.0000
0.4828 1.5862 0.0000
0.4828 1.6207 0.0000
0.4828 1.6552 0.0000
0.4828 1.6897 0.0000
0.4828 1.7241 0.0000
0.4828 1.7586 0.0000
0.4828 1.7931 0.0000
0.4828 1.8276 0.0000
0.4828 1.8621 0.0000
0.4828 1.8966 0.0000
0.4828 1.9310 0.0000
0.4828 1.9655 0.0000
0.4828 2.0000 0.0000
0.5517 1.0000 0.0000
0.5517 1.0345 0.0000
0.5517 1.0690 0.0000
0.5517 1.1034 0.0000
0.5517 1.1379 0.0000
0.5517 1.1724 0.0000
0.5517 1.2069 0.0000
0.5517 1.2414 0.0000
0.5517 1.2759 0.0000
0.5517 1.3103 0.0000
0.5517 1.3448 0.0000
0.5517 1.3793 0.0000
0.5517 1.4138 0.0000
0.5517 1.4483 0.0000
0.5517 1.4828 0.0000
0.5517 1.5172 0.0000
0.5517 1.5517 0.0000
0.5517 1.5862 0.0000
0.5517 1.6207 0.0000
0.5517 1.6552 0.0000
0.5517 1.6897 0.0000
0.5517 1.7241 0.0000
0.5517 1.7586 0.0000
0.5517 1.7931 0.0000
0.5517 1.8276 0.0000
0.5517 1.8621 0.0000
0.5517 1.8966 0.0000
0.5517 1.9310 0.0000
0.5517 1.9655 0.0000
0.5517 2.0000 0.0000
0.6207 1.0000 0.0000
0.6207 1.0345 0.0000
0.6207 1.0690 0.0000
0.6207 1.1034 0.0000
0.6207 1.1379 0.0000
0.6207 1.1724 0.0000
0.6207 1.2069 0.0000
0.6207 1.2414 0.0000
0.6207 1.2759 0.0000
0.6207 1.3103 0.0000
0.6207 1.3448 0.0000
0.6207 1.3793 0.0000
0.6207 1.4138 0.0000
0.6207 1.4483 0.0000
0.6207 1.4828 0.0000
0.6207 1.5172 0.0000
0.6207 1.5517 0.0000
0.6207 1.5862 0.0000
0.6207 1.6207 0.0000
0.6207 1.6552 0.0000
0.6207 1.6897 0.0000
0.6207 1.7241 0.0000
0.6207 1.7586 0.0000
0.6207 1.7931 0.0000
0.6207 1.8276 0.0000
0.6207 1.8621 0.0000
0.6207 1.8966 0.0000
0.6207 1.9310 0.0000
0.6207 1.9655 0.0000
0.6207 2.0000 0.0000
0.6897 1.0000 0.0000
0.6897 1.0345 0.0000
0.6897 1.0690 0.0000
0.6897 1.1034 0.0000
0.6897 1.1379 0.0000
0.6897 1.1724 0.0000
0.6897 1.2069 0.0000
0.6897 1.2414 0.0000
0.6897 1.2759 0.0000
0.6897 1.3103 0.0000
0.6897 1.3448 0.0000
0.6897 1.3793 0.0000
0.6897 1.4138 0.0000
0.6897 1.4483 0.0000
0.6897 1.4828 0.0000
0.6897 1.5172 0.0000
0.6897 1.5517 0.0000
0.6897 1.5862 0.0000
0.6897 1.6207 0.0000
0.6897 1.6552 0.0000
0.6897 1.6897 0.0000
0.6897 1.7241 0.0000
0.6897 1.7586 0.0000
0.6897 1.7931 0.0000
0.6897 1.8276 0.0000
0.6897 1.8621 0.0000
0.6897 1.8966 0.0000
0.6897 1.9310 0.0000
0.6897 1.9655 0.0000
0.6897 2.0000 0.0000
0.7586 1.0000 0.0000
0.7586 1.0345 0.0000
0.7586 1.0690 0.0000
0.7586 1.1034 0.0000
0.7586 1.1379 0.0000
0.7586 1.1724 0.0000
0.7586 1.2069 0.0000
0.7586 1.2414 0.0000
0.7586 1.2759 0.0000
0.7586 1.3103 0.0000
0.7586 1.3448 0.0000
0.7586 1.3793 0.0000
0.7586 1.4138 0.0000
0.7586 1.4483 0.0000
0.7586 1.4828 0.0000
0.7586 1.5172 0.0000
0.7586 1.5517 0.0000
0.7586 1.5862 0.0000
0.7586 1.6207 0.0000
0.7586 1.6552 0.0000
0.7586 1.6897 0.0000
0.7586 1.7241 0.0000
0.7586 1.7586 0.0000
0.7586 1.7931 0.0000
0.7586 1.8276 0.0000
0.7586 1.8621 0.0000
0.7586 1.8966 0.0000
0.7586 1.9310 0.0000
0.7586 1.9655 0.0000
0.7586 2.0000 0.0000
0.8276 1.0000 0.0000
0.8276 1.0345 0.0000
0.8276 1.0690 0.0000
0.8276 1.1034 0.0000
0.8276 1.1379 0.0000
0.8276 1.1724 0.0000
0.8276 1.2069 0.0000
0.8276 1.2414 0.0000
0.8276 1.2759 0.0000
0.8276 1.3103 0.0000
0.8276 1.3448 0.0000
0.8276 1.3793 0.0000
0.8276 1.4138 0.0000
0.8276 1.4483 0.0000
0.8276 1.4828 0.0000
0.8276 1.5172 0.0000
0.8276 1.5517 0.0000
0.8276 1.5862 0.0000
0.8276 1.6207 0.0000
0.8276 1.6552 0.0000
0.8276 1.6897 0.0000
0.8276 1.7241 0.0000
0.8276 1.7586 0.0000
0.8276 1.7931 0.0000
0.8276 1.8276 0.0000
0.8276 1.8621 0.0000
0.8276 1.8966 0.0000
0.8276 1.9310 0.0000
0.8276 1.9655 0.0000
0.8276 2.0000 0.0000
0.8966 1.0000 0.0000
0.8966 1.0345 0.0000
0.8966 1.0690 0.0000
0.8966 1.1034 0.0000
0.8966 1.1379 0.0000
0.8966 1.1724 0.0000
0.8966 1.2069 0.0000
0.8966 1.2414 0.0000
0.8966 1.2759 0.0000
0.8966 1.3103 0.0000
0.8966 1.3448 0.0000
0.8966 1.3793 0.0000
0.8966 1.4138 0.0000
0.8966 1.4483 0.0000
0.8966 1.4828 0.0000
0.8966 1.5172 0.0000
0.8966 1.5517 0.0000
0.8966 1.5862 0.0000
0.8966 1.6207 0.0000
0.8966 1.6552 0.0000
0.8966 1.6897 0.0000
0.8966 1.7241 0.0000
0.8966 1.7586 0.0000
0.8966 1.7931 0.0000
0.8966 1.8276 0.0000
0.8966 1.8621 0.0000
0.8966 1.8966 0.0000
0.8966 1.9310 0.0000
0.8966 1.9655 0.0000
0.8966 2.0000 0.0000
0.9655 1.0000 0.0000
0.9655 1.0345 0.0000
0.9655 1.0690 0.0000
0.9655 1.1034 0.0000
0.9655 1.1379 0.0000
0.9655 1.1724 0.0000
0.9655 1.2069 0.0000
0.9655 1.2414 0.0000
0.9655 1.2759 0.0000
0.9655 1.3103 0.0000
0.9655 1.3448 0.0000
0.9655 1.3793 0.0000
0.9655 1.4138 0.0000
0.9655 1.4483 0.0000
0.9655 1.4828 0.0000
0.9655 1.5172 0.0000
0.9655 1.5517 0.0000
0.9655 1.5862 0.0000
0.9655 1.6207 0.0000
0.9655 1.6552 0.0000
0.9655 1.6897 0.0000
0.9655 1.7241 0.0000
0.9655 1.7586 0.0000
0.9655 1.7931 0.0000
0.9655 1.8276 0.0000
0.9655 1.8621 0.0000
0.9655 1.8966 0.0000
0.9655 1.9310 0.0000
0.9655 1.9655 0.0000
0.9655 2.0000 0.0000
1.0345 1.0000 0.0000
1.0345 1.0345 0.0000
1.0345 1.0690 0.0000
1.0345 1.1034 0.0000
1.0345 1.1379 0.0000
1.0345 1.1724 0.0000
1.0345 1.2069 0.0000
1.0345 1.2414 0.0000
1.0345 1.2759 0.0000
1.0345 1.3103 0.0000
1.0345 1.3448 0.0000
[...]
         <PointData>
            <DataArray Name="fValues" NumberOfComponents="3" format="ascii" type="Float64">
 2.74153e-27  9.74695e-26        00000 
-1.09661e-26  5.48306e-26        00000 
 6.50648e-26  1.03019e-25        00000 
 1.74398e-25  2.45248e-26        00000 
 6.94025e-25  2.94961e-24        00000 
 1.47411e-24  6.66562e-25        00000 
 5.20519e-24  1.53987e-24        00000 
 8.16402e-24  3.81823e-23        00000 
-1.66566e-23 -3.60893e-23        00000 
 1.59604e-22  2.61875e-22        00000 
 7.21786e-23  3.71997e-22        00000 
 4.35298e-22  5.46913e-22        00000 
 1.06602e-21 -4.88593e-22        00000 
 3.46374e-22  2.88900e-21        00000 
 1.77670e-21  9.37211e-21        00000 
-3.34845e-23  1.16861e-20        00000 
 4.61943e-21  1.70564e-20        00000 
-1.59976e-21  5.42956e-20        00000 
 3.19807e-21  9.94954e-21        00000 
-3.57168e-21  1.48894e-20        00000 
 6.39613e-21  2.84273e-20        00000 
-1.51968e-20 -7.82676e-21        00000 
-4.97477e-21 -4.61943e-21        00000 
 4.10743e-21 -4.82176e-21        00000 
-3.73108e-21 -1.98991e-20        00000 
 3.67630e-21 -2.47361e-20        00000 
-1.95437e-21 -1.42136e-20        00000 
 4.92022e-22 -1.82495e-20        00000 
-1.56795e-22  3.05750e-21        00000 
-9.00944e-22 -4.17239e-21        00000 
 3.09951e-10 -6.54905e-11        00000 
 3.29009e-10 -1.11195e-10        00000 
 8.92226e-10 -1.69024e-10        00000 
 2.28157e-09 -3.64042e-10        00000 
 5.73293e-09 -9.05194e-10        00000 
 1.43992e-08 -2.53508e-09        00000 
 3.64782e-08 -7.42466e-09        00000 
 9.33253e-08 -2.07507e-08        00000 
 2.39280e-07 -5.12167e-08        00000 
 6.05468e-07 -1.01534e-07        00000 
 1.48249e-06 -1.21621e-07        00000 
 3.43928e-06  1.31439e-07        00000 
 7.40195e-06  1.39014e-06        00000 
 1.44608e-05  5.28727e-06        00000 
 2.50277e-05  1.45134e-05        00000 
 3.71893e-05  3.19380e-05        00000 
 4.51415e-05  5.80677e-05        00000 
 4.00527e-05  8.77425e-05        00000 
 1.54101e-05  1.09244e-04        00000 
-2.52776e-05  1.08998e-04        00000 
-6.58478e-05  8.05533e-05        00000 
-8.58493e-05  3.10101e-05        00000 
-7.51703e-05 -2.14279e-05        00000 
-4.17030e-05 -5.77905e-05        00000 
-4.57312e-06 -6.90063e-05        00000 
 2.00477e-05 -5.91386e-05        00000 
 2.74521e-05 -3.97779e-05        00000 
 2.25473e-05 -2.12500e-05        00000 
 1.28906e-05 -7.21376e-06        00000 
 2.83317e-05 -4.10398e-06        00000 
-3.12977e-10  1.36721e-10        00000 
-3.79660e-10  2.22915e-10        00000 
-9.49546e-10  4.73783e-10        00000 
-2.46627e-09  1.07263e-09        00000 
-6.25025e-09  2.62295e-09        00000 
-1.56885e-08  6.92582e-09        00000 
-3.92518e-08  1.90804e-08        00000 
-9.81634e-08  5.17471e-08        00000 
-2.45204e-07  1.30132e-07        00000 
-6.08520e-07  2.84567e-07        00000 
-1.48453e-06  4.82854e-07        00000 
-3.50414e-06  3.86057e-07        00000 
-7.84077e-06 -1.25171e-06        00000 
-1.62263e-05 -7.59298e-06        00000 
-3.01634e-05 -2.45354e-05        00000 
-4.85679e-05 -5.95231e-05        00000 
-6.42799e-05 -1.16092e-04        00000 
-6.30917e-05 -1.84964e-04        00000 
-3.09699e-05 -2.39265e-04        00000 
 3.08664e-05 -2.44261e-04        00000 
 9.67079e-05 -1.81055e-04        00000 
 1.29391e-04 -6.57031e-05        00000 
 1.09911e-04  5.61363e-05        00000 
 5.38932e-05  1.36988e-04        00000 
-3.44429e-06  1.56171e-04        00000 
-3.62389e-05  1.27041e-04        00000 
-4.13752e-05  7.98313e-05        00000 
-3.03287e-05  3.91526e-05        00000 
-1.93050e-05  1.55706e-05        00000 
-2.83993e-05  7.32590e-06        00000 
 2.51943e-10 -1.93874e-10        00000 
 3.20476e-10 -3.15433e-10        00000 
 8.06005e-10 -7.16081e-10        00000 
 2.13199e-09 -1.65145e-09        00000 
 5.48279e-09 -3.97718e-09        00000 
 1.37700e-08 -1.00857e-08        00000 
 3.38187e-08 -2.64844e-08        00000 
 8.14166e-08 -6.93597e-08        00000 
 1.93419e-07 -1.72921e-07        00000 
 4.58468e-07 -3.88990e-07        00000 
 1.09591e-06 -7.25779e-07        00000 
 2.64395e-06 -8.72909e-07        00000 
 6.32910e-06  5.99703e-07        00000 
 1.45317e-05  7.90602e-06        00000 
 3.06312e-05  3.01654e-05        00000 
 5.64286e-05  8.12834e-05        00000 
 8.56136e-05  1.72253e-04        00000 
 9.71899e-05  2.93538e-04        00000 
 6.18382e-05  3.99570e-04        00000 
-2.97410e-05  4.21172e-04        00000 
-1.38393e-04  3.14320e-04        00000 
-1.93351e-04  1.06213e-04        00000 
-1.56296e-04 -1.13046e-04        00000 
-6.05116e-05 -2.50004e-04        00000 
 2.60132e-05 -2.69137e-04        00000 
 6.36448e-05 -2.04709e-04        00000 
 5.86955e-05 -1.18325e-04        00000 
 3.71606e-05 -5.25761e-05        00000 
 2.02977e-05 -1.92340e-05        00000 
 2.19327e-05 -7.38635e-06        00000 
-1.66612e-10  2.36330e-10        00000 
-2.24685e-10  3.91683e-10        00000 
-5.82783e-10  9.17604e-10        00000 
-1.58872e-09  2.14690e-09        00000 
-4.17175e-09  5.10534e-09        00000 
-1.04998e-08  1.24206e-08        00000 
-2.51831e-08  3.07470e-08        00000 
-5.73863e-08  7.61483e-08        00000 
-1.25077e-07  1.83708e-07        00000 
-2.67800e-07  4.15911e-07        00000 
-5.94765e-07  8.31780e-07        00000 
-1.45274e-06  1.27110e-06        00000 
-3.90492e-06  5.50150e-07        00000 
-1.07380e-05 -5.69379e-06        00000 
-2.76325e-05 -2.90333e-05        00000 
-6.18332e-05 -9.17269e-05        00000 
-1.12618e-04 -2.20065e-04        00000 
-1.52805e-04 -4.15015e-04        00000 
-1.24161e-04 -6.10676e-04        00000 
 1.47132e-05 -6.76838e-04        00000 
 2.07909e-04 -5.12172e-04        00000 
 3.09453e-04 -1.56508e-04        00000 
 2.33169e-04  2.16975e-04        00000 
 5.74860e-05  4.29129e-04        00000 
-7.58956e-05  4.26150e-04        00000 
-1.09894e-04  2.93472e-04        00000 
-8.08658e-05  1.49609e-04        00000 
-4.17826e-05  5.65231e-05        00000 
-1.79119e-05  1.67473e-05        00000 
-1.17305e-05  4.23253e-06        00000 
 7.20511e-11 -2.64727e-10        00000 
 1.12044e-10 -4.47953e-10        00000 
 3.13451e-10 -1.07372e-09        00000 
 9.06361e-10 -2.54332e-09        00000 
 2.46601e-09 -5.98799e-09        00000 
 6.22507e-09 -1.40300e-08        00000 
 1.43477e-08 -3.26486e-08        00000 
 2.95127e-08 -7.52396e-08        00000 
 5.23653e-08 -1.70924e-07        00000 
 7.67549e-08 -3.78540e-07        00000 
 9.72694e-08 -7.93807e-07        00000 
 2.06374e-07 -1.46099e-06        00000 
 1.03690e-06 -1.82071e-06        00000 
 5.13638e-06  1.39661e-06        00000 
 1.98179e-05  1.98838e-05        00000 
 5.99079e-05  8.37826e-05        00000 
 1.39663e-04  2.44908e-04        00000 
 2.36621e-04  5.39937e-04        00000 
 2.47104e-04  8.95793e-04        00000 
 4.27063e-05  1.07526e-03        00000 
-3.20810e-04  8.36645e-04        00000 
-5.25081e-04  2.21944e-04        00000 
-3.57438e-04 -4.20844e-04        00000 
-1.88793e-05 -7.32584e-04        00000 
 1.79875e-04 -6.48333e-04        00000 
 1.80441e-04 -3.84442e-04        00000 
 1.01940e-04 -1.60534e-04        00000 
 3.93899e-05 -4.51802e-05        00000 
 1.11518e-05 -7.76228e-06        00000 
-3.52106e-07  1.33717e-06        00000 
 2.33622e-11  2.77499e-10        00000 
 7.59554e-12  4.78213e-10        00000 
-1.73033e-11  1.16619e-09        00000 
-1.28420e-10  2.78757e-09        00000 
-4.65432e-10  6.50887e-09        00000 
-1.17832e-09  1.47860e-08        00000 
-1.87531e-09  3.25401e-08        00000 
 7.03257e-10  6.93999e-08        00000 
 1.99668e-08  1.44746e-07        00000 
 9.74018e-08  3.01020e-07        00000 
 3.33185e-07  6.36434e-07        00000 
 8.90935e-07  1.35122e-06        00000 
 1.75613e-06  2.62575e-06        00000 
 1.50725e-06  3.36278e-06        00000 
-6.73856e-06 -4.45468e-06        00000 
-4.33475e-05 -5.20430e-05        00000 
-1.49285e-04 -2.21420e-04        00000 
-3.41619e-04 -6.31534e-04        00000 
-4.78583e-04 -1.26918e-03        00000 
-2.23512e-04 -1.73697e-03        00000 
 4.77849e-04 -1.43203e-03        00000 
 9.17879e-04 -3.10314e-04        00000 
 5.30364e-04  8.56304e-04        00000 
-1.32897e-04  1.27375e-03        00000 
-3.82756e-04  9.48600e-04        00000 
-2.67431e-04  4.43097e-04        00000 
-1.05184e-04  1.28520e-04        00000 
-2.35150e-05  1.47950e-05        00000 
 5.10776e-08 -5.32985e-06        00000 
 1.18055e-05 -6.85606e-06        00000 
-1.13505e-10 -2.73034e-10        00000 
-1.26406e-10 -4.77225e-10        00000 
-2.86356e-10 -1.17720e-09        00000 
-6.92069e-10 -2.82815e-09        00000 
-1.68587e-09 -6.55258e-09        00000 
-4.27387e-09 -1.45263e-08        00000 
-1.14061e-08 -3.05512e-08        00000 
-3.16812e-08 -6.06556e-08        00000 
-8.93920e-08 -1.14417e-07        00000 
-2.49760e-07 -2.12527e-07        00000 
-6.75175e-07 -4.22955e-07        00000 
-1.72135e-06 -9.84494e-07        00000 
-3.98551e-06 -2.58242e-06        00000 
-7.70600e-06 -6.43261e-06        00000 
-9.47945e-06 -1.15362e-05        00000 
 1.02133e-05  1.42291e-06        00000 
 1.08276e-04  1.20999e-04        00000 
 4.14961e-04  5.97906e-04        00000 
 8.59111e-04  1.68541e-03        00000 
 7.49976e-04  2.89949e-03        00000 
-5.57174e-04  2.70436e-03        00000 
-1.51694e-03  4.33429e-04        00000 
-6.23788e-04 -1.90923e-03        00000 
 6.16115e-04 -2.28094e-03        00000 
 7.21291e-04 -1.28262e-03        00000 
 3.18343e-04 -3.83378e-04        00000 
 5.97763e-05 -2.98217e-05        00000 
-6.08660e-06  2.78470e-05        00000 
-1.30286e-05  1.66278e-05        00000 
-1.98356e-05  9.27787e-06        00000 
 1.93542e-10  2.50358e-10        00000 
 2.36724e-10  4.41946e-10        00000 
 5.76151e-10  1.09543e-09        00000 
 1.49060e-09  2.63372e-09        00000 
 3.80198e-09  6.05311e-09        00000 
 9.64176e-09  1.31595e-08        00000 
 2.43640e-08  2.67267e-08        00000 
 6.12757e-08  5.00254e-08        00000 
 1.53148e-07  8.53843e-08        00000 
 3.80147e-07  1.35058e-07        00000 
 9.36466e-07  2.25160e-07        00000 
 2.28041e-06  5.32088e-07        00000 
 5.40948e-06  1.83264e-06        00000 
 1.21227e-05  6.65586e-06        00000 
 2.36521e-05  2.06980e-05        00000 
 3.31446e-05  4.75737e-05        00000 
-1.62872e-05  4.01714e-05        00000 
-2.61002e-04 -2.77887e-04        00000 
-1.31128e-03 -1.87343e-03        00000 
-2.08872e-03 -4.97903e-03        00000 
-3.61441e-04 -6.00463e-03        00000 
 1.66729e-03 -6.05376e-04        00000 
-3.24600e-04  4.88180e-03        00000 
-1.89981e-03  4.15838e-03        00000 
-1.11827e-03  1.38784e-03        00000 
-1.43556e-04  5.71037e-05        00000 
 2.95592e-05 -1.11561e-04        00000 
 3.99564e-05 -6.05923e-05        00000 
 2.22084e-05 -1.96202e-05        00000 
 2.32158e-05 -7.47132e-06        00000 
-2.58485e-10 -2.08870e-10        00000 
-3.28759e-10 -3.72057e-10        00000 
-8.25661e-10 -9.16754e-10        00000 
-2.18726e-09 -2.19501e-09        00000 
-5.65419e-09 -4.99909e-09        00000 
-1.43248e-08 -1.06858e-08        00000 
-3.55762e-08 -2.11098e-08        00000 
-8.65557e-08 -3.77043e-08        00000 
-2.06478e-07 -5.88202e-08        00000 
-4.84708e-07 -7.62794e-08        00000 
-1.12754e-06 -8.46838e-08        00000 
-2.62059e-06 -1.69803e-07        00000 
-6.12038e-06 -9.16591e-07        00000 
-1.42408e-05 -4.83500e-06        00000 
-3.23792e-05 -2.02874e-05        00000 
-6.61315e-05 -6.84469e-05        00000 
-1.15615e-04 -1.76866e-04        00000 
-7.90978e-06 -2.24183e-04        00000 
 2.62068e-04  7.99233e-04        00000 
 5.95572e-03  8.18716e-03        00000 
 5.73945e-03  1.61110e-02        00000 
 6.05941e-03  7.94957e-04        00000 
 5.99197e-03 -1.43285e-02        00000 
 5.74484e-03 -7.11036e-03        00000 
 5.15263e-05 -2.49232e-04        00000 
-1.35948e-04  4.10164e-04        00000 
-1.30830e-04  1.97061e-04        00000 
-5.68143e-05  5.89964e-05        00000 
-2.40447e-05  1.38720e-05        00000 
-2.27070e-05  3.57545e-06        00000 
 2.97376e-10  1.47059e-10        00000 
 3.80945e-10  2.70669e-10        00000 
 9.84646e-10  6.42783e-10        00000 
 2.63942e-09  1.52176e-09        00000 
 6.85400e-09  3.42748e-09        00000 
 1.73313e-08  7.20078e-09        00000 
 4.26619e-08  1.38596e-08        00000 
 1.02177e-07  2.37168e-08        00000 
 2.38354e-07  3.38854e-08        00000 
 5.43601e-07  3.38648e-08        00000 
 1.22124e-06  5.93312e-09        00000 
 2.73634e-06 -2.69671e-08        00000 
 6.20579e-06  2.78556e-07        00000 
 1.44528e-05  2.72812e-06        00000 
 3.43511e-05  1.43453e-05        00000 
 8.35950e-05  5.70590e-05        00000 
 1.87678e-04  1.85547e-04        00000 
 4.71118e-04  4.68708e-04        00000 
 2.44736e-04  5.28425e-04        00000 
 3.42302e-03 -4.03851e-03        00000 
-5.68771e-02 -4.85510e-02        00000 
-4.34812e-02 -5.25896e-04        00000 
-5.84743e-02  4.44638e-02        00000 
 2.85520e-03  2.61875e-03        00000 
 5.54643e-04 -1.26613e-03        00000 
 4.00657e-04 -5.12820e-04        00000 
 1.38631e-04 -1.37764e-04        00000 
 4.89828e-05 -2.94649e-05        00000 
 1.69189e-05 -7.42392e-06        00000 
 1.86537e-05 -1.14411e-06        00000 
-2.73170e-10 -7.08988e-11        00000 
-3.19313e-10 -1.62997e-10        00000 
-8.96797e-10 -3.34384e-10        00000 
-2.40665e-09 -7.95431e-10        00000 
-6.25472e-09 -1.82328e-09        00000 
-1.57855e-08 -3.93656e-09        00000 
-3.86684e-08 -7.93529e-09        00000 
-9.19100e-08 -1.47622e-08        00000 
-2.12199e-07 -2.49213e-08        00000 
-4.77427e-07 -3.74359e-08        00000 
-1.05382e-06 -5.12785e-08        00000 
-2.30919e-06 -8.94931e-08        00000 
-5.12160e-06 -3.44065e-07        00000 
-1.17663e-05 -1.83433e-06        00000 
-2.87325e-05 -8.67201e-06        00000 
-7.35779e-05 -3.37611e-05        00000 
-2.02828e-04 -9.84261e-05        00000 
-4.90125e-04 -1.93121e-04        00000 
-1.60740e-03  7.87418e-05        00000 
 1.60638e-03  3.60663e-05        00000 
-2.86555e-02  6.33000e-03        00000 
 8.62913e-01 -6.66496e-03        00000 
-1.07797e-02  1.20973e-02        00000 
 2.45680e-05  4.70102e-03        00000 
 6.80720e-06  1.30323e-03        00000 
 4.80012e-06  3.52315e-04        00000 
 1.70151e-06  1.05646e-04        00000 
 6.02912e-07  3.85220e-05        00000 
 2.13838e-07  1.76245e-05        00000 
 8.25720e-07  5.34390e-06        00000 
-1.12362e-11  6.95683e-11        00000 
-3.99669e-12  2.96486e-10        00000 
-1.10133e-11  7.76012e-10        00000 
-2.95280e-11  2.10393e-09        00000 
-7.66811e-11  5.62540e-09        00000 
-1.93383e-10  1.46828e-08        00000 
-4.73395e-10  3.72695e-08        00000 
-1.12456e-09  9.18370e-08        00000 
-2.59525e-09  2.19567e-07        00000 
-5.83800e-09  5.09686e-07        00000 
-1.28884e-08  1.15130e-06        00000 
-2.82614e-08  2.54231e-06        00000 
-6.27594e-08  5.53872e-06        00000 
-1.44433e-07  1.21192e-05        00000 
-3.52961e-07  2.74795e-05        00000 
-9.04870e-07  6.71529e-05        00000 
-2.47829e-06  1.80341e-04        00000 
-6.04069e-06  5.09538e-04        00000 
-1.87096e-05  1.38693e-03        00000 
 1.57459e-05  3.07537e-03        00000 
-2.08944e-04  5.48936e-03        00000 
 1.00883e-02  4.00516e-18        00000 
 3.90650e-18 -3.89120e-19        00000 
 1.23205e-18  1.02391e-20        00000 
-2.02445e-19  8.77206e-20        00000 
 2.63584e-20  1.57851e-21        00000 
-2.92663e-21  1.00364e-20        00000 
 5.07415e-22  1.15048e-21        00000 
       00000 -2.18557e-23        00000 
-4.46460e-23  1.30241e-21        00000 
 5.16791e-27  1.35552e-26        00000 
-7.11736e-27 -4.24629e-26        00000 
 1.72846e-26  1.84046e-25        00000 
-4.50493e-26 -3.68062e-25        00000 
 5.20427e-26 -9.83856e-26        00000 
 5.17587e-26  1.10419e-24        00000 
-4.45471e-25  5.11881e-25        00000 
 8.65373e-25 -6.87419e-24        00000 
-1.34356e-24  2.68584e-23        00000 
-2.54150e-25  3.33673e-23        00000 
 5.01574e-25 -8.10014e-23        00000 
 1.03057e-23  9.42239e-23        00000 
-2.24688e-23 -9.52658e-23        00000 
-7.85199e-23  2.51264e-22        00000 
 5.86611e-22  4.86218e-22        00000 
-2.04062e-21 -3.75842e-21        00000 
 3.62600e-21 -2.20720e-21        00000 
-6.21788e-21  6.65954e-20        00000 
-1.17008e-20 -9.87050e-20        00000 
-3.01517e-21        00000        00000 
 4.37771e-19 -5.44744e-20        00000 
-5.03718e-19 -2.99980e-19        00000 
 7.28629e-20  2.01480e-19        00000 
 3.34821e-20 -2.74907e-20        00000 
 5.87649e-20 -5.49297e-21        00000 
-1.40317e-20  2.02956e-21        00000 
 2.44885e-21 -6.25026e-22        00000 
-3.73142e-22  3.73617e-22        00000 
 5.95079e-23  8.33111e-23        00000 
-8.89316e-24 -1.06920e-22        00000 
-1.17621e-27 -5.96088e-27        00000 
 1.74325e-27  1.21269e-26        00000 
-3.71897e-27 -3.13544e-26        00000 
 6.08093e-27  3.08255e-26        00000 
-1.83654e-27  4.25048e-26        00000 
-2.41324e-26 -9.71125e-26        00000 
 7.81938e-26 -3.48728e-25        00000 
-1.40918e-25  1.74652e-24        00000 
 7.30267e-26 -1.35051e-24        00000 
-5.73464e-26 -4.82326e-24        00000 
 4.11746e-25  1.32912e-23        00000 
-1.21566e-24 -8.54488e-24        00000 
-3.89374e-24  1.34522e-23        00000 
 3.89298e-23 -6.52461e-24        00000 
-1.51452e-22 -1.80153e-22        00000 
 3.61085e-22  9.73681e-23        00000 
-6.37675e-22  2.91610e-21        00000 
 3.89351e-22 -1.17086e-20        00000 
-1.17856e-21  1.18527e-20        00000 
 2.06115e-20  5.71799e-22        00000 
-6.41906e-20 -2.27084e-20        00000 
 5.83304e-20  3.23941e-20        00000 
-2.79172e-20 -3.12623e-20        00000 
 3.79455e-21  1.17212e-20        00000 
-3.69128e-21 -1.18208e-21        00000 
 3.60110e-21 -2.61377e-22        00000 
-1.00110e-21  1.52344e-22        00000 
 2.05663e-22 -6.00553e-23        00000 
-3.81436e-23  8.63324e-24        00000 
 1.19909e-23  1.46316e-23        00000 
 2.70936e-28  1.73338e-27        00000 
-3.73139e-28 -2.66352e-27        00000 
 6.23822e-28  3.90987e-27        00000 
-6.04492e-28 -1.59889e-27        00000 
-9.45623e-28 -6.17873e-27        00000 
 5.66078e-27 -1.20986e-26        00000 
-1.34868e-26  1.03597e-25        00000 
 1.81632e-26 -2.20924e-25        00000 
-1.83617e-26  3.09491e-25        00000 
 2.73492e-26  8.57827e-25        00000 
-5.69121e-26 -1.60925e-24        00000 
-2.45326e-25  1.66997e-24        00000 
 2.58619e-24  5.54444e-25        00000 
-1.11674e-23 -5.39961e-24        00000 
 3.16347e-23  4.34040e-24        00000 
-6.66893e-23  1.38608e-22        00000 
 1.13465e-22 -5.67419e-22        00000 
-2.12680e-22  1.52127e-21        00000 
 1.25684e-21 -1.32719e-21        00000 
-4.75998e-21 -5.97521e-22        00000 
 9.88298e-21  3.67542e-21        00000 
-8.79767e-21 -4.88398e-21        00000 
 5.18426e-21  4.40578e-21        00000 
-1.93640e-21 -2.41339e-21        00000 
 8.64045e-22  6.67551e-22        00000 
-5.23318e-22 -7.38092e-23        00000 
 2.58201e-22 -1.60624e-23        00000 
-7.49610e-23  1.12286e-23        00000 
 1.75840e-23 -3.15525e-24        00000 
-6.73000e-24  1.02036e-25        00000 
-5.70642e-29 -3.95215e-28        00000 
 7.02975e-29  4.57270e-28        00000 
-8.60192e-29 -5.12551e-28        00000 
 1.58448e-29 -7.58755e-29        00000 
 2.65683e-28  1.55490e-27        00000 
-1.32138e-27  6.56382e-27        00000 
 2.10652e-27 -2.03538e-26        00000 
-3.00934e-27  4.05285e-26        00000 
 3.69088e-27 -6.60172e-26        00000 
-3.73623e-27  7.40344e-26        00000 
 4.60147e-27  4.65144e-26        00000 
 7.99407e-26 -3.37168e-26        00000 
-6.04597e-25  7.02366e-25        00000 
 2.08954e-24 -9.31139e-25        00000 
-6.25698e-24  9.68740e-24        00000 
 1.25346e-23 -4.28954e-23        00000 
-3.44785e-23  1.18170e-22        00000 