<?xml version="1.0" encoding="utf-8"?>
<VTKFile byte_order="LittleEndian" type="UnstructuredGrid" version="0.1">
   <UnstructuredGrid>
      <Piece NumberOfCells="3364" NumberOfPoints="1741">
         <Points>
            <DataArray Name="Points" NumberOfComponents="3" format="ascii" type="Float32">
0.0000 1.0000 0.0000
0.0000 1.0345 0.0000
0.0000 1.0690 0.0000
0.0000 1.1034 0.0000
0.0000 1.1379 0.0000
0.0000 1.1724 0.0000
0.0000 1.2069 0.0000
0.0000 1.2414 0.0000
0.0000 1.2759 0.0000
0.0000 1.3103 0.0000
0.0000 1.3448 0.0000
0.0000 1.3793 0.0000
0.0000 1.4138 0.0000
0.0000 1.4483 0.0000
0.0000 1.4828 0.0000
0.0000 1.5172 0.0000
0.0000 1.5517 0.0000
0.0000 1.5862 0.0000
0.0000 1.6207 0.0000
0.0000 1.6552 0.0000
0.0000 1.6897 0.0000
0.0000 1.7241 0.0000
0.0000 1.7586 0.0000
0.0000 1.7931 0.0000
0.0000 1.8276 0.0000
0.0000 1.8621 0.0000
0.0000 1.8966 0.0000
0.0000 1.9310 0.0000
0.0000 1.9655 0.0000
0.0000 2.0000 0.0000
0.0690 1.0000 0.0000
0.0690 1.0345 0.0000
0.0690 1.0690 0.0000
0.0690 1.1034 0.0000
0.0690 1.1379 0.0000
0.0690 1.1724 0.0000
0.0690 1.2069 0.0000
0.0690 1.2414 0.0000
0.0690 1.2759 0.0000
0.0690 1.3103 0.0000
0.0690 1.3448 0.0000
0.0690 1.3793 0.0000
0.0690 1.4138 0.0000
0.0690 1.4483 0.0000
0.0690 1.4828 0.0000
0.0690 1.5172 0.0000
0.0690 1.5517 0.0000
0.0690 1.5862 0.0000
0.0690 1.6207 0.0000
0.0690 1.6552 0.0000
0.0690 1.6897 0.0000
0.0690 1.7241 0.0000
0.0690 1.7586 0.0000
0.0690 1.7931 0.0000
0.0690 1.8276 0.0000
0.0690 1.8621 0.0000
0.0690 1.8966 0.0000
0.0690 1.9310 0.0000
0.0690 1.9655 0.0000
0.0690 2.0000 0.0000
0.1379 1.0000 0.0000
0.1379 1.0345 0.0000
0.1379 1.0690 0.0000
0.1379 1.1034 0.0000
0.1379 1.1379 0.0000
0.1379 1.1724 0.0000
0.1379 1.2069 0.0000
0.1379 1.2414 0.0000
0.1379 1.2759 0.0000
0.1379 1.3103 0.0000
0.1379 1.3448 0.0000
0.1379 1.3793 0.0000
0.1379 1.4138 0.0000
0.1379 1.4483 0.0000
0.1379 1.4828 0.0000
0.1379 1.5172 0.0000
0.1379 1.5517 0.0000
0.1379 1.5862 0.0000
0.1379 1.6207 0.0000
0.1379 1.6552 0.0000
0.1379 1.6897 0.0000
0.1379 1.7241 0.0000
0.1379 1.7586 0.0000
0.1379 1.7931 0.0000
0.1379 1.8276 0.0000
0.1379 1.8621 0.0000
0.1379 1.8966 0.0000
0.1379 1.9310 0.0000
0.1379 1.9655 0.0000
0.1379 2.0000 0.0000
0.2069 1.0000 0.0000
0.2069 1.0345 0.0000
0.2069 1.0690 0.0000
0.2069 1.1034 0.0000
0.2069 1.1379 0.0000
0.2069 1.1724 0.0000
0.2069 1.2069 0.0000
0.2069 1.2414 0.0000
0.2069 1.2759 0.0000
0.2069 1.3103 0.0000
0.2069 1.3448 0.0000
0.2069 1.3793 0.0000
0.2069 1.4138 0.0000
0.2069 1.4483 0.0000
0.2069 1.4828 0.0000
0.2069 1.5172 0.0000
0.2069 1.5517 0.0000
0.2069 1.5862 0.0000
0.2069 1.6207 0.0000
0.2069 1.6552 0.0000
0.2069 1.6897 0.0000
0.2069 1.7241 0.0000
0.2069 1.7586 0.0000
0.2069 1.7931 0.0000
0.2069 1.8276 0.0000
0.2069 1.8621 0.0000
0.2069 1.8966 0.0000
0.2069 1.9310 0.0000
0.2069 1.9655 0.0000
0.2069 2.0000 0.0000
0.2759 1.0000 0.0000
0.2759 1.0345 0.0000
0.2759 1.0690 0.0000
0.2759 1.1034 0.0000
0.2759 1.1379 0.0000
0.2759 1.1724 0.0000
0.2759 1.2069 0.0000
0.2759 1.2414 0.0000
0.2759 1.2759 0.0000
0.2759 1.3103 0.0000
0.2759 1.3448 0.0000
0.2759 1.3793 0.0000
0.2759 1.4138 0.0000
0.2759 1.4483 0.0000
0.2759 1.4828 0.0000
0.2759 1.5172 0.0000
0.2759 1.5517 0.0000
0.2759 1.5862 0.0000
0.2759 1.6207 0.0000
0.2759 1.6552 0.0000
0.2759 1.6897 0.0000
0.2759 1.7241 0.0000
0.2759 1.7586 0.0000
0.2759 1.7931 0.0000
0.2759 1.8276 0.0000
0.2759 1.8621 0.0000
0.2759 1.8966 0.0000
0.2759 1.9310 0.0000
0.2759 1.9655 0.0000
0.2759 2.0000 0.0000
0.3448 1.0000 0.0000
0.3448 1.0345 0.0000
0.3448 1.0690 0.0000
0.3448 1.1034 0.0000
0.3448 1.1379 0.0000
0.3448 1.1724 0.0000
0.3448 1.2069 0.0000
0.3448 1.2414 0.0000
0.3448 1.2759 0.0000
0.3448 1.3103 0.0000
0.3448 1.3448 0.0000
0.3448 1.3793 0.0000
0.3448 1.4138 0.0000
0.3448 1.4483 0.0000
0.3448 1.4828 0.0000
0.3448 1.5172 0.0000
0.3448 1.5517 0.0000
0.3448 1.5862 0.0000
0.3448 1.6207 0.0000
0.3448 1.6552 0.0000
0.3448 1.6897 0.0000
0.3448 1.7241 0.0000
0.3448 1.7586 0.0000
0.3448 1.7931 0.0000
0.3448 1.8276 0.0000
0.3448 1.8621 0.0000
0.3448 1.8966 0.0000
0.3448 1.9310 0.0000
0.3448 1.9655 0.0000
0.3448 2.0000 0.0000
0.4138 1.0000 0.0000
0.4138 1.0345 0.0000
0.4138 1.0690 0.0000
0.4138 1.1034 0.0000
0.4138 1.1379 0.0000
0.4138 1.1724 0.0000
0.4138 1.2069 0.0000
0.4138 1.2414 0.0000
0.4138 1.2759 0.0000
0.4138 1.3103 0.0000
0.4138 1.3448 0.0000
0.4138 1.3793 0.0000
0.4138 1.4138 0.0000
0.4138 1.4483 0.0000
0.4138 1.4828 0.0000
0.4138 1.5172 0.0000
0.4138 1.5517 0.0000
0.4138 1.5862 0.0000
0.4138 1.6207 0.0000
0.4138 1.6552 0.0000
0.4138 1.6897 0.0000
0.4138 1.7241 0.0000
0.4138 1.7586 0.0000
0.4138 1.7931 0.0000
0.4138 1.8276 0.0000
0.4138 1.8621 0.0000
0.4138 1.8966 0.0000
0.4138 1.9310 0.0000
0.4138 1.9655 0.0000
0.4138 2.0000 0.0000
0.4828 1.0000 0.0000
0.4828 1.0345 0.0000
0.4828 1.0690 0.0000
0.4828 1.1034 0.0000
0.4828 1.1379 0.0000
0.4828 1.1724 0.0000
0.4828 1.2069 0.0000
0.4828 1.2414 0.0000
0.4828 1.2759 0.0000
0.4828 1.3103 0.0000
0.4828 1.3448 0.0000
0.4828 1.3793 0.0000
0.4828 1.4138 0.0000
0.4828 1.4483 0.0000
0.4828 1.4828 0.0000
0.4828 1.5172 0.0000
0.4828 1.5517 0.0000
0.4828 1.5862 0.0000
0.4828 1.6207 0.0000
0.4828 1.6552 0.0000
0.4828 1.6897 0.0000
0.4828 1.7241 0.0000
0.4828 1.7586 0.0000
0.4828 1.7931 0.0000
0.4828 1.8276 0.0000
0.4828 1.8621 0.0000
0.4828 1.8966 0.0000
0.4828 1.9310 0.0000
0.4828 1.9655 0.0000
0.4828 2.0000 0.0000
0.5517 1.0000 0.0000
0.5517 1.0345 0.0000
0.5517 1.0690 0.0000
0.5517 1.1034 0.0000
0.5517 1.1379 0.0000
0.5517 1.1724 0.0000
0.5517 1.2069 0.0000
0.5517 1.2414 0.0000
0.5517 1.2759 0.0000
0.5517 1.3103 0.0000
0.5517 1.3448 0.0000
0.5517 1.3793 0.0000
0.5517 1.4138 0.0000
0.5517 1.4483 0.0000
0.5517 1.4828 0.0000
0.5517 1.5172 0.0000
0.5517 1.5517 0.0000
0.5517 1.5862 0.0000
0.5517 1.6207 0.0000
0.5517 1.6552 0.0000
0.5517 1.6897 0.0000
0.5517 1.7241 0.0000
0.5517 1.7586 0.0000
0.5517 1.7931 0.0000
0.5517 1.8276 0.0000
0.5517 1.8621 0.0000
0.5517 1.8966 0.0000
0.5517 1.9310 0.0000
0.5517 1.9655 0.0000
0.5517 2.0000 0.0000
0.6207 1.0000 0.0000
0.6207 1.0345 0.0000
0.6207 1.0690 0.0000
0.6207 1.1034 0.0000
0.6207 1.1379 0.0000
0.6207 1.1724 0.0000
0.6207 1.2069 0.0000
0.6207 1.2414 0.0000
0.6207 1.2759 0.0000
0.6207 1.3103 0.0000
0.6207 1.3448 0.0000
0.6207 1.3793 0.0000
0.6207 1.4138 0.0000
0.6207 1.4483 0.0000
0.6207 1.4828 0.0000
0.6207 1.5172 0.0000
0.6207 1.5517 0.0000
0.6207 1.5862 0.0000
0.6207 1.6207 0.0000
0.6207 1.6552 0.0000
0.6207 1.6897 0.0000
0.6207 1.7241 0.0000
0.6207 1.7586 0.0000
0.6207 1.7931 0.0000
0.6207 1.8276 0.0000
0.6207 1.8621 0.0000
0.6207 1.8966 0.0000
0.6207 1.9310 0.0000
0.6207 1.9655 0.0000
0.6207 2.0000 0.0000
0.6897 1.0000 0.0000
0.6897 1.0345 0.0000
0.6897 1.0690 0.0000
0.6897 1.1034 0.0000
0.6897 1.1379 0.0000
0.6897 1.1724 0.0000
0.6897 1.2069 0.0000
0.6897 1.2414 0.0000
0.6897 1.2759 0.0000
0.6897 1.3103 0.0000
0.6897 1.3448 0.0000
0.6897 1.3793 0.0000
0.6897 1.4138 0.0000
0.6897 1.4483 0.0000
0.6897 1.4828 0.0000
0.6897 1.5172 0.0000
0.6897 1.5517 0.0000
0.6897 1.5862 0.0000
0.6897 1.6207 0.0000
0.6897 1.6552 0.0000
0.6897 1.6897 0.0000
0.6897 1.7241 0.0000
0.6897 1.7586 0.0000
0.6897 1.7931 0.0000
0.6897 1.8276 0.0000
0.6897 1.8621 0.0000
0.6897 1.8966 0.0000
0.6897 1.9310 0.0000
0.6897 1.9655 0.0000
0.6897 2.0000 0.0000
0.7586 1.0000 0.0000
0.7586 1.0345 0.0000
0.7586 1.0690 0.0000
0.7586 1.1034 0.0000
0.7586 1.1379 0.0000
0.7586 1.1724 0.0000
0.7586 1.2069 0.0000
0.7586 1.2414 0.0000
0.7586 1.2759 0.0000
0.7586 1.3103 0.0000
0.7586 1.3448 0.0000
0.7586 1.3793 0.0000
0.7586 1.4138 0.0000
0.7586 1.4483 0.0000
0.7586 1.4828 0.0000
0.7586 1.5172 0.0000
0.7586 1.5517 0.0000
0.7586 1.5862 0.0000
0.7586 1.6207 0.0000
0.7586 1.6552 0.0000
0.7586 1.6897 0.0000
0.7586 1.7241 0.0000
0.7586 1.7586 0.0000
0.7586 1.7931 0.0000
0.7586 1.8276 0.0000
0.7586 1.8621 0.0000
0.7586 1.8966 0.0000
0.7586 1.9310 0.0000
0.7586 1.9655 0.0000
0.7586 2.0000 0.0000
0.8276 1.0000 0.0000
0.8276 1.0345 0.0000
0.8276 1.0690 0.0000
0.8276 1.1034 0.0000
0.8276 1.1379 0.0000
0.8276 1.1724 0.0000
0.8276 1.2069 0.0000
0.8276 1.2414 0.0000
0.8276 1.2759 0.0000
0.8276 1.3103 0.0000
0.8276 1.3448 0.0000
0.8276 1.3793 0.0000
0.8276 1.4138 0.0000
0.8276 1.4483 0.0000
0.8276 1.4828 0.0000
0.8276 1.5172 0.0000
0.8276 1.5517 0.0000
0.8276 1.5862 0.0000
0.8276 1.6207 0.0000
0.8276 1.6552 0.0000
0.8276 1.6897 0.0000
0.8276 1.7241 0.0000
0.8276 1.7586 0.0000
0.8276 1.7931 0.0000
0.8276 1.8276 0.0000
0.8276 1.8621 0.0000
0.8276 1.8966 0.0000
0.8276 1.9310 0.0000
0.8276 1.9655 0.0000
0.8276 2.0000 0.0000
0.8966 1.0000 0.0000
0.8966 1.0345 0.0000
0.8966 1.0690 0.0000
0.8966 1.1034 0.0000
0.8966 1.1379 0.0000
0.8966 1.1724 0.0000
0.8966 1.2069 0.0000
0.8966 1.2414 0.0000
0.8966 1.2759 0.0000
0.8966 1.3103 0.0000
0.8966 1.3448 0.0000
0.8966 1.3793 0.0000
0.8966 1.4138 0.0000
0.8966 1.4483 0.0000
0.8966 1.4828 0.0000
0.8966 1.5172 0.0000
0.8966 1.5517 0.0000
0.8966 1.5862 0.0000
0.8966 1.6207 0.0000
0.8966 1.6552 0.0000
0.8966 1.6897 0.0000
0.8966 1.7241 0.0000
0.8966 1.7586 0.0000
0.8966 1.7931 0.0000
0.8966 1.8276 0.0000
0.8966 1.8621 0.0000
0.8966 1.8966 0.0000
0.8966 1.9310 0.0000
0.8966 1.9655 0.0000
0.8966 2.0000 0.0000
0.9655 1.0000 0.0000
0.9655 1.0345 0.0000
0.9655 1.0690 0.0000
0.9655 1.1034 0.0000
0.9655 1.1379 0.0000
0.9655 1.1724 0.0000
0.9655 1.2069 0.0000
0.9655 1.2414 0.0000
0.9655 1.2759 0.0000
0.9655 1.3103 0.0000
0.9655 1.3448 0.0000
0.9655 1.3793 0.0000
0.9655 1.4138 0.0000
0.9655 1.4483 0.0000
0.9655 1.4828 0.0000
0.9655 1.5172 0.0000
0.9655 1.5517 0.0000
0.9655 1.5862 0.0000
0.9655 1.6207 0.0000
0.9655 1.6552 0.0000
0.9655 1.6897 0.0000
0.9655 1.7241 0.0000
0.9655 1.7586 0.0000
0.9655 1.7931 0.0000
0.9655 1.8276 0.0000
0.9655 1.8621 0.0000
0.9655 1.8966 0.0000
0.9655 1.9310 0.0000
0.9655 1.9655 0.0000
0.9655 2.0000 0.0000
1.0345 1.0000 0.0000
1.0345 1.0345 0.0000
1.0345 1.0690 0.0000
1.0345 1.1034 0.0000
1.0345 1.1379 0.0000
1.0345 1.1724 0.0000
1.0345 1.2069 0.0000
1.0345 1.2414 0.0000
1.0345 1.2759 0.0000
1.0345 1.3103 0.0000
1.0345 1.3448 0.0000
[...]
         <PointData>
            <DataArray Name="fValues" NumberOfComponents="3" format="ascii" type="Float64">
-2.67728e-29  2.56275e-28        00000 
 1.07091e-28 -1.28509e-28        00000 
-3.38879e-28 -5.08319e-28        00000 
 4.59839e-27 -2.12889e-28        00000 
 1.35552e-27  6.77759e-28        00000 
 1.94738e-26  2.95133e-26        00000 
 7.31979e-26 -6.84536e-26        00000 
 1.72355e-25  3.45603e-25        00000 
-8.67531e-26 -1.29045e-24        00000 
 1.82641e-24 -6.48921e-25        00000 
-6.94025e-25 -1.39889e-24        00000 
 1.09871e-23  6.53993e-24        00000 
-1.38805e-23 -5.27459e-23        00000 
 8.96638e-23  6.13857e-23        00000 
-9.99396e-23  2.25558e-22        00000 
 9.87094e-23  4.24093e-22        00000 
 1.77670e-22  1.82112e-21        00000 
 2.22811e-21 -3.90593e-21        00000 
 3.55341e-21  7.12902e-21        00000 
 6.60760e-21  7.58981e-21        00000 
-5.68545e-21  8.52818e-20        00000 
 3.73367e-20 -7.66006e-20        00000 
 2.84273e-21  3.97982e-20        00000 
-2.12515e-20  1.79655e-19        00000 
 7.39109e-20 -2.16047e-19        00000 
 4.50198e-20  5.65120e-19        00000 
-1.70564e-20 -5.11691e-19        00000 
 1.57447e-20  1.33114e-19        00000 
 8.31462e-20 -7.94189e-19        00000 
 9.95518e-20 -3.12891e-19        00000 
-1.07001e-12 -8.10975e-13        00000 
 7.78737e-13 -1.44592e-12        00000 
 3.41234e-12 -3.82821e-12        00000 
 1.28530e-11 -9.87994e-12        00000 
 4.27830e-11 -2.47397e-11        00000 
 1.30880e-10 -5.93103e-11        00000 
 3.76775e-10 -1.35143e-10        00000 
 1.03493e-09 -2.92156e-10        00000 
 2.73863e-09 -6.05642e-10        00000 
 7.04348e-09 -1.25218e-09        00000 
 1.77847e-08 -2.79821e-09        00000 
 4.46150e-08 -7.28978e-09        00000 
 1.12550e-07 -2.15926e-08        00000 
 2.87833e-07 -6.53005e-08        00000 
 7.45543e-07 -1.82779e-07        00000 
 1.93339e-06 -4.40317e-07        00000 
 4.92429e-06 -8.29041e-07        00000 
 1.20537e-05 -8.66042e-07        00000 
 2.77815e-05  1.46688e-06        00000 
 5.92140e-05  1.17399e-05        00000 
 1.14879e-04  4.15721e-05        00000 
 1.99937e-04  1.09436e-04        00000 
 3.07803e-04  2.36151e-04        00000 
 4.13180e-04  4.33253e-04        00000 
 4.76238e-04  6.89264e-04        00000 
 4.63466e-04  9.65125e-04        00000 
 3.75992e-04  1.20064e-03        00000 
 2.35882e-04  1.28709e-03        00000 
 2.20114e-06  9.85861e-04        00000 
-2.86903e-03  1.02783e-03        00000 
 1.05552e-12  1.66312e-12        00000 
-6.83684e-13  3.04800e-12        00000 
-3.54656e-12  7.86000e-12        00000 
-1.32264e-11  2.09674e-11        00000 
-4.39081e-11  5.42422e-11        00000 
-1.34413e-10  1.34788e-10        00000 
-3.88697e-10  3.20891e-10        00000 
-1.07724e-09  7.33333e-10        00000 
-2.88833e-09  1.62595e-09        00000 
-7.54710e-09  3.59177e-09        00000 
-1.93435e-08  8.27293e-09        00000 
-4.89428e-08  2.07739e-08        00000 
-1.23032e-07  5.69562e-08        00000 
-3.09032e-07  1.61823e-07        00000 
-7.78314e-07  4.44365e-07        00000 
-1.96329e-06  1.10867e-06        00000 
-4.92262e-06  2.35702e-06        00000 
-1.20947e-05  3.77645e-06        00000 
-2.85671e-05  2.39912e-06        00000 
-6.34876e-05 -1.15427e-05        00000 
-1.29899e-04 -6.09132e-05        00000 
-2.39551e-04 -1.85877e-04        00000 
-3.90016e-04 -4.36829e-04        00000 
-5.49074e-04 -8.48068e-04        00000 
-6.54123e-04 -1.39991e-03        00000 
-6.45663e-04 -1.99830e-03        00000 
-5.20510e-04 -2.49356e-03        00000 
-3.35272e-04 -2.71110e-03        00000 
 3.95943e-04 -2.56189e-03        00000 
 3.54315e-03 -2.39171e-03        00000 
-8.37981e-13 -2.30840e-12        00000 
 5.52893e-13 -4.24569e-12        00000 
 2.87239e-12 -1.08322e-11        00000 
 1.05497e-11 -2.89466e-11        00000 
 3.47008e-11 -7.53236e-11        00000 
 1.06114e-10 -1.89045e-10        00000 
 3.09126e-10 -4.57283e-10        00000 
 8.70502e-10 -1.06945e-09        00000 
 2.38933e-09 -2.44055e-09        00000 
 6.41720e-09 -5.53695e-09        00000 
 1.68739e-08 -1.28530e-08        00000 
 4.33704e-08 -3.14337e-08        00000 
 1.08753e-07 -8.17090e-08        00000 
 2.66114e-07 -2.20286e-07        00000 
 6.38782e-07 -5.87762e-07        00000 
 1.52176e-06 -1.47331e-06        00000 
 3.65218e-06 -3.27847e-06        00000 
 8.90533e-06 -5.91813e-06        00000 
 2.18593e-05 -6.46984e-06        00000 
 5.25027e-05  6.93393e-06        00000 
 1.18792e-04  6.61986e-05        00000 
 2.43848e-04  2.34854e-04        00000 
 4.39167e-04  6.04055e-04        00000 
 6.73022e-04  1.25077e-03        00000 
 8.51016e-04  2.15961e-03        00000 
 8.58167e-04  3.16503e-03        00000 
 6.65212e-04  3.99192e-03        00000 
 3.35228e-04  4.38982e-03        00000 
-5.99816e-04  4.23345e-03        00000 
-4.17841e-03  3.84367e-03        00000 
 5.25495e-13  2.78087e-12        00000 
-4.08210e-13  5.07971e-12        00000 
-1.96200e-12  1.28237e-11        00000 
-6.91967e-12  3.41171e-11        00000 
-2.22733e-11  8.88451e-11        00000 
-6.78570e-11  2.24488e-10        00000 
-2.00415e-10  5.50798e-10        00000 
-5.81127e-10  1.31736e-09        00000 
-1.65999e-09  3.09334e-09        00000 
-4.65477e-09  7.20974e-09        00000 
-1.27092e-08  1.69141e-08        00000 
-3.34389e-08  4.04879e-08        00000 
-8.38971e-08  9.96073e-08        00000 
-1.99088e-07  2.50621e-07        00000 
-4.46077e-07  6.32888e-07        00000 
-9.56595e-07  1.55510e-06        00000 
-2.04864e-06  3.55997e-06        00000 
-4.70688e-06  7.08874e-06        00000 
-1.21562e-05  1.04299e-05        00000 
-3.38031e-05  2.83356e-06        00000 
-9.19657e-05 -5.15882e-05        00000 
-2.26014e-04 -2.38385e-04        00000 
-4.76563e-04 -7.04596e-04        00000 
-8.30224e-04 -1.60899e-03        00000 
-1.15064e-03 -2.97890e-03        00000 
-1.20615e-03 -4.55916e-03        00000 
-8.74651e-04 -5.85758e-03        00000 
-2.97549e-04 -6.43993e-03        00000 
 8.79175e-04 -6.15656e-03        00000 
 5.00033e-03 -5.50932e-03        00000 
-1.80716e-13 -3.06625e-12        00000 
 2.42133e-13 -5.54760e-12        00000 
 9.32079e-13 -1.38465e-11        00000 
 2.90629e-12 -3.65995e-11        00000 
 8.73187e-12 -9.52861e-11        00000 
 2.63853e-11 -2.42476e-10        00000 
 8.18895e-11 -6.04132e-10        00000 
 2.59430e-10 -1.47885e-09        00000 
 8.19795e-10 -3.57101e-09        00000 
 2.51857e-09 -8.53794e-09        00000 
 7.36456e-09 -2.02637e-08        00000 
 2.01485e-08 -4.77930e-08        00000 
 5.07340e-08 -1.12077e-07        00000 
 1.15205e-07 -2.61699e-07        00000 
 2.28788e-07 -6.10048e-07        00000 
 3.77480e-07 -1.41928e-06        00000 
 4.77391e-07 -3.25180e-06        00000 
 5.00072e-07 -7.04282e-06        00000 
 1.56177e-06 -1.31053e-05        00000 
 1.02008e-05 -1.54752e-05        00000 
 4.94140e-05  1.68226e-05        00000 
 1.75703e-04  1.81155e-04        00000 
 4.79291e-04  6.91032e-04        00000 
 1.01010e-03  1.85118e-03        00000 
 1.60665e-03  3.83052e-03        00000 
 1.81513e-03  6.29004e-03        00000 
 1.24297e-03  8.32533e-03        00000 
 1.39922e-04  9.09479e-03        00000 
-1.41519e-03  8.48210e-03        00000 
-6.05496e-03  7.41367e-03        00000 
-1.54146e-13  3.14867e-12        00000 
-4.92071e-14  5.63752e-12        00000 
 1.53647e-13  1.39056e-11        00000 
 1.16490e-12  3.64980e-11        00000 
 4.72208e-12  9.50409e-11        00000 
 1.45461e-11  2.43881e-10        00000 
 3.59585e-11  6.17684e-10        00000 
 6.75485e-11  1.54656e-09        00000 
 6.53256e-11  3.82795e-09        00000 
-1.63612e-10  9.34418e-09        00000 
-1.19351e-09  2.23867e-08        00000 
-4.26854e-09  5.22950e-08        00000 
-1.08310e-08  1.18354e-07        00000 
-1.76545e-08  2.58806e-07        00000 
 4.37971e-09  5.50366e-07        00000 
 1.78652e-07  1.16344e-06        00000 
 8.91944e-07  2.53010e-06        00000 
 3.06183e-06  5.75501e-06        00000 
 8.00371e-06  1.30605e-05        00000 
 1.45036e-05  2.57094e-05        00000 
 6.28577e-06  2.88869e-05        00000 
-8.01597e-05 -6.12733e-05        00000 
-3.98029e-04 -5.08626e-04        00000 
-1.14555e-03 -1.83965e-03        00000 
-2.25044e-03 -4.58590e-03        00000 
-2.91595e-03 -8.46618e-03        00000 
-1.98871e-03 -1.18181e-02        00000 
 3.27873e-04 -1.27922e-02        00000 
 2.57401e-03 -1.13686e-02        00000 
 7.24263e-03 -9.44644e-03        00000 
 4.48859e-13 -3.02285e-12        00000 
-1.65010e-13 -5.35621e-12        00000 
-1.22747e-12 -1.30615e-11        00000 
-5.01361e-12 -3.40576e-11        00000 
-1.71578e-11 -8.87982e-11        00000 
-5.22107e-11 -2.30059e-10        00000 
-1.45688e-10 -5.92439e-10        00000 
-3.79879e-10 -1.51399e-09        00000 
-9.40500e-10 -3.82241e-09        00000 
-2.25255e-09 -9.46805e-09        00000 
-5.34808e-09 -2.28063e-08        00000 
-1.29544e-08 -5.28896e-08        00000 
-3.28171e-08 -1.16850e-07        00000 
-8.77925e-08 -2.43552e-07        00000 
-2.45857e-07 -4.76734e-07        00000 
-7.06395e-07 -8.89069e-07        00000 
-2.03294e-06 -1.68527e-06        00000 
-5.70122e-06 -3.68645e-06        00000 
-1.50234e-05 -9.84286e-06        00000 
-3.51271e-05 -2.77978e-05        00000 
-6.47984e-05 -6.64922e-05        00000 
-5.82782e-05 -9.32786e-05        00000 
 1.73425e-04  1.28548e-04        00000 
 1.06988e-03  1.35514e-03        00000 
 2.98691e-03  4.86972e-03        00000 
 4.88996e-03  1.10695e-02        00000 
 3.71923e-03  1.71617e-02        00000 
-1.50754e-03  1.85792e-02        00000 
-5.22011e-03  1.49873e-02        00000 
-8.09965e-03  1.10626e-02        00000 
-6.83919e-13  2.69703e-12        00000 
 3.87317e-13  4.73270e-12        00000 
 2.21961e-12  1.14287e-11        00000 
 8.40575e-12  2.96387e-11        00000 
 2.78836e-11  7.74586e-11        00000 
 8.46734e-11  2.02715e-10        00000 
 2.41839e-10  5.30168e-10        00000 
 6.61237e-10  1.37805e-09        00000 
 1.75367e-09  3.52950e-09        00000 
 4.55945e-09  8.81779e-09        00000 
 1.17168e-08  2.12618e-08        00000 
 2.99106e-08  4.89469e-08        00000 
 7.59715e-08  1.06317e-07        00000 
 1.91834e-07  2.14812e-07        00000 
 4.81130e-07  3.96511e-07        00000 
 1.20076e-06  6.56180e-07        00000 
 2.99931e-06  9.87485e-07        00000 
 7.54866e-06  1.65922e-06        00000 
 1.91084e-05  4.80229e-06        00000 
 4.75171e-05  1.99156e-05        00000 
 1.09419e-04  7.53169e-05        00000 
 2.05858e-04  2.15978e-04        00000 
 1.99929e-04  3.73099e-04        00000 
-5.09501e-04 -1.82246e-04        00000 
-3.28753e-03 -3.80843e-03        00000 
-8.03496e-03 -1.33982e-02        00000 
-8.02444e-03 -2.59524e-02        00000 
 4.14916e-03 -2.97814e-02        00000 
 1.12567e-02 -1.91753e-02        00000 
 7.06060e-03 -1.03925e-02        00000 
 8.46663e-13 -2.19014e-12        00000 
-6.00666e-13 -3.80661e-12        00000 
-3.05706e-12 -9.13517e-12        00000 
-1.11325e-11 -2.35968e-11        00000 
-3.63303e-11 -6.18371e-11        00000 
-1.10296e-10 -1.63312e-10        00000 
-3.19195e-10 -4.32519e-10        00000 
-8.93762e-10 -1.13807e-09        00000 
-2.44302e-09 -2.94012e-09        00000 
-6.55097e-09 -7.36816e-09        00000 
-1.72656e-08 -1.77126e-08        00000 
-4.47091e-08 -4.04125e-08        00000 
-1.13544e-07 -8.65046e-08        00000 
-2.82183e-07 -1.71048e-07        00000 
-6.85354e-07 -3.04504e-07        00000 
-1.62873e-06 -4.63872e-07        00000 
-3.81012e-06 -5.36927e-07        00000 
-8.88747e-06 -3.41924e-07        00000 
-2.10603e-05 -4.51581e-07        00000 
-5.13929e-05 -7.03186e-06        00000 
-1.27521e-04 -5.04882e-05        00000 
-3.02441e-04 -2.32234e-04        00000 
-5.97215e-04 -7.51369e-04        00000 
-5.93264e-04 -1.49670e-03        00000 
 1.70905e-03  1.80584e-05        00000 
 1.09471e-02  1.22579e-02        00000 
 1.79728e-02  4.03848e-02        00000 
-9.10712e-03  6.01182e-02        00000 
-2.37174e-02  2.01218e-02        00000 
 8.97516e-05  2.16040e-03        00000 
-9.16841e-13  1.51912e-12        00000 
 7.74919e-13  2.59658e-12        00000 
 3.59522e-12  6.25174e-12        00000 
 1.27514e-11  1.61051e-11        00000 
 4.11841e-11  4.22736e-11        00000 
 1.25040e-10  1.12336e-10        00000 
 3.64895e-10  2.99832e-10        00000 
 1.03603e-09  7.93905e-10        00000 
 2.87787e-09  2.05638e-09        00000 
 7.83195e-09  5.14274e-09        00000 
 2.08611e-08  1.22767e-08        00000 
 5.42699e-08  2.76843e-08        00000 
 1.37575e-07  5.83063e-08        00000 
 3.39216e-07  1.12879e-07        00000 
 8.12781e-07  1.95101e-07        00000 
 1.89372e-06  2.80634e-07        00000 
 4.30481e-06  2.58080e-07        00000 
 9.62713e-06 -1.76460e-07        00000 
 2.15367e-05 -1.46138e-06        00000 
 4.95052e-05 -2.21959e-06        00000 
 1.20134e-04  1.37381e-05        00000 
 3.07580e-04  1.36815e-04        00000 
 7.80100e-04  7.21416e-04        00000 
 1.70525e-03  2.65461e-03        00000 
 2.01310e-03  6.11753e-03        00000 
-4.15023e-03  7.98828e-04        00000 
-3.27611e-02 -5.69553e-02        00000 
 1.48204e-02 -1.78204e-01        00000 
 3.92379e-02  1.18735e-02        00000 
-1.77814e-02  2.10479e-02        00000 
 8.29640e-13 -6.50471e-13        00000 
-8.14804e-13 -1.06187e-12        00000 
-3.24381e-12 -2.85243e-12        00000 
-1.13722e-11 -7.56657e-12        00000 
-3.65015e-11 -2.03285e-11        00000 
-1.10799e-10 -5.51140e-11        00000 
-3.24724e-10 -1.49486e-10        00000 
-9.28380e-10 -4.00738e-10        00000 
-2.59831e-09 -1.04838e-09        00000 
-7.11589e-09 -2.64683e-09        00000 
-1.90270e-08 -6.39143e-09        00000 
-4.95409e-08 -1.46560e-08        00000 
-1.25327e-07 -3.17125e-08        00000 
-3.07624e-07 -6.43126e-08        00000 
-7.32408e-07 -1.21082e-07        00000 
-1.69292e-06 -2.07900e-07        00000 
-3.80834e-06 -3.11789e-07        00000 
-8.37921e-06 -3.54688e-07        00000 
-1.82088e-05 -9.85768e-08        00000 
-3.98313e-05  7.22580e-07        00000 
-9.06862e-05 -1.03991e-06        00000 
-2.23915e-04 -4.01682e-05        00000 
-6.11032e-04 -3.47502e-04        00000 
-1.75341e-03 -2.05892e-03        00000 
-4.84321e-03 -8.89857e-03        00000 
-1.06929e-02 -2.27314e-02        00000 
-1.96480e-02  3.59169e-02        00000 
 7.56722e-03  7.71971e-01        00000 
 3.74990e-04 -2.48323e-01        00000 
-8.60046e-04 -5.97282e-03        00000 
 5.99908e-14 -4.77680e-13        00000 
-9.84464e-15 -6.18278e-13        00000 
-4.01852e-14  7.63246e-13        00000 
-1.40469e-13  5.97266e-12        00000 
-4.50092e-13  2.35845e-11        00000 
-1.36479e-12  7.88160e-11        00000 
-3.99667e-12  2.44491e-10        00000 
-1.14181e-11  7.27567e-10        00000 
-3.19324e-11  2.10544e-09        00000 
-8.73834e-11  5.95229e-09        00000 
-2.33465e-10  1.64414e-08        00000 
-6.07395e-10  4.42894e-08        00000 
-1.53541e-09  1.16088e-07        00000 
-3.76617e-09  2.95538e-07        00000 
-8.96130e-09  7.30065e-07        00000 
-2.07034e-08  1.74998e-06        00000 
-4.65597e-08  4.07408e-06        00000 
-1.02446e-07  9.22779e-06        00000 
-2.22780e-07  2.03808e-05        00000 
-4.88216e-07  4.40170e-05        00000 
-1.11503e-06  9.34221e-05        00000 
-2.76193e-06  1.97898e-04        00000 
-7.53537e-06  4.41398e-04        00000 
-2.15029e-05  1.17894e-03        00000 
-5.86118e-05  4.22763e-03        00000 
-1.27653e-04  1.82071e-02        00000 
-2.25646e-04  7.39613e-02        00000 
 8.37492e-05  2.11473e-01        00000 
-2.60424e-18  8.57772e-18        00000 
 9.14349e-20 -6.01185e-18        00000 
 4.13671e-31  3.70649e-29        00000 
-1.29586e-29 -1.01784e-28        00000 
 3.42903e-29  3.40537e-28        00000 
-8.61148e-29 -8.38683e-28        00000 
-1.60446e-28 -3.14039e-27        00000 
 2.29140e-27  1.24604e-26        00000 
-5.36599e-27 -2.85880e-26        00000 
 6.14032e-27  8.76548e-26        00000 
-1.63793e-26  7.28783e-26        00000 
 6.29312e-26  3.63701e-25        00000 
-2.86565e-25 -2.39379e-24        00000 
 9.20156e-25  4.90750e-24        00000 
-2.04162e-24 -2.29950e-23        00000 
 2.76047e-24  5.49640e-23        00000 
-2.35646e-24 -1.17836e-22        00000 
 2.18066e-24  5.52089e-23        00000 
 2.16581e-26  1.29011e-22        00000 
-1.49956e-23  1.31153e-21        00000 
 3.03691e-23 -1.75748e-21        00000 
-2.74820e-22 -1.50758e-21        00000 
 1.03501e-21  5.10869e-21        00000 
-1.09928e-21  8.04044e-21        00000 
 1.26268e-22 -1.94121e-20        00000 
 7.90145e-21  1.28532e-20        00000 
-3.51738e-20 -5.83139e-19        00000 
 1.04615e-20  1.21530e-18        00000 
 1.62009e-19 -3.11210e-18        00000 
-3.50093e-19  1.25057e-17        00000 
 3.16868e-19 -9.42478e-19        00000 
-2.45143e-19  1.23770e-18        00000 
-1.44490e-30 -1.46361e-29        00000 
 2.78304e-30  2.70014e-29        00000 
-5.21291e-30 -5.10496e-29        00000 
-9.18196e-30 -1.12997e-28        00000 
 1.29682e-28  9.70105e-28        00000 
-4.40020e-28 -3.24384e-27        00000 
 8.68073e-28  6.37734e-27        00000 
-1.75509e-27 -4.97166e-27        00000 
 4.98116e-27  2.36548e-26        00000 
-2.16804e-26 -1.36654e-25        00000 
 7.21659e-26  5.28044e-25        00000 
-1.83106e-25 -1.62826e-24        00000 
 3.31146e-25  4.73399e-24        00000 
-4.03723e-25 -1.01220e-23        00000 
 4.05732e-25  1.50507e-23        00000 
-2.27512e-25 -6.53987e-24        00000 
-7.32665e-25  4.50233e-23        00000 
 4.14684e-24 -2.00816e-22        00000 
-1.86892e-23  1.16296e-22        00000 
 6.92862e-23  2.86510e-22        00000 
-1.33436e-22 -1.19090e-22        00000 
 9.81916e-23 -1.96126e-21        00000 
 3.64609e-22  6.09698e-21        00000 
-2.11375e-21 -3.30628e-20        00000 
 3.14983e-21  9.41394e-20        00000 
 5.86052e-21 -2.96146e-19        00000 
-2.82255e-20  8.41341e-19        00000 
 4.81199e-20 -1.25792e-18        00000 
-5.23992e-20  8.07820e-19        00000 
 5.01840e-20 -4.54919e-20        00000 
 3.61877e-31  3.59100e-30        00000 
-3.99032e-31 -4.07899e-30        00000 
-4.83725e-31 -4.01458e-30        00000 
 7.73326e-30  5.86450e-29        00000 
-3.23691e-29 -2.09106e-28        00000 
 8.49162e-29  5.90768e-28        00000 
-1.90719e-28 -9.85163e-28        00000 
 5.05699e-28  2.18323e-27        00000 
-1.79711e-27 -7.72814e-27        00000 
 5.79730e-27  4.11572e-26        00000 
-1.57659e-26 -1.35362e-25        00000 
 3.32580e-26  3.88372e-25        00000 
-5.29595e-26 -9.13049e-25        00000 
 6.43483e-26  1.68223e-24        00000 
-5.53949e-26 -2.10935e-24        00000 
-1.65097e-26  3.54335e-24        00000 
 2.93845e-25 -9.08148e-24        00000 
-1.41078e-24  2.17733e-23        00000 
 4.96252e-24 -7.37255e-24        00000 
-1.17503e-23 -7.81696e-24        00000 
 1.47954e-23 -1.15167e-22        00000 
 1.12764e-23  5.93619e-22        00000 
-1.23798e-22 -2.46429e-21        00000 
 2.93118e-22  8.22915e-21        00000 
-8.99205e-23 -2.44840e-20        00000 
-1.70122e-21  6.78032e-20        00000 
 4.71880e-21 -1.35184e-19        00000 
-7.56578e-21  1.66086e-19        00000 
 8.61775e-21 -1.25051e-19        00000 
-8.76575e-21  8.16500e-20        00000 
-4.99348e-32 -5.39837e-31        00000 
-9.65048e-33 -6.13417e-32        00000 
 4.73094e-31  3.31556e-30        00000 
-2.06414e-30 -1.51613e-29        00000 
 3.39108e-30  3.71305e-29        00000 
-7.27657e-30 -5.76210e-29        00000 
 3.57364e-29  1.65471e-28        00000 
-1.48894e-28 -6.77793e-28        00000 
 4.90967e-28  2.20739e-27        00000 
-1.46387e-27 -8.07554e-27        00000 
 3.27192e-27  2.28539e-26        00000 
-6.20820e-27 -5.62980e-26        00000 
 8.56289e-27  1.23592e-25        00000 
-1.30226e-26 -2.57256e-25        00000 
 6.10969e-27  3.90854e-25        00000 
 1.25621e-26 -8.08260e-25        00000 
-9.44464e-26  1.67107e-24        00000 