<?xml version="1.0" encoding="utf-8"?>
<VTKFile byte_order="LittleEndian" type="UnstructuredGrid" version="0.1">
   <UnstructuredGrid>
      <Piece NumberOfCells="3364" NumberOfPoints="1741">
         <Points>
            <DataArray Name="Points" NumberOfComponents="3" format="ascii" type="Float32">
0.0000 1.0000 0.0000
0.0000 1.0345 0.0000
0.0000 1.0690 0.0000
0.0000 1.1034 0.0000
0.0000 1.1379 0.0000
0.0000 1.1724 0.0000
0.0000 1.2069 0.0000
0.0000 1.2414 0.0000
0.0000 1.2759 0.0000
0.0000 1.3103 0.0000
0.0000 1.3448 0.0000
0.0000 1.3793 0.0000
0.0000 1.4138 0.0000
0.0000 1.4483 0.0000
0.0000 1.4828 0.0000
0.0000 1.5172 0.0000
0.0000 1.5517 0.0000
0.0000 1.5862 0.0000
0.0000 1.6207 0.0000
0.0000 1.6552 0.0000
0.0000 1.6897 0.0000
0.0000 1.7241 0.0000
0.0000 1.7586 0.0000
0.0000 1.7931 0.0000
0.0000 1.8276 0.0000
0.0000 1.8621 0.0000
0.0000 1.8966 0.0000
0.0000 1.9310 0.0000
0.0000 1.9655 0.0000
0.0000 2.0000 0.0000
0.0690 1.0000 0.0000
0.0690 1.0345 0.0000
0.0690 1.0690 0.0000
0.0690 1.1034 0.0000
0.0690 1.1379 0.0000
0.0690 1.1724 0.0000
0.0690 1.2069 0.0000
0.0690 1.2414 0.0000
0.0690 1.2759 0.0000
0.0690 1.3103 0.0000
0.0690 1.3448 0.0000
0.0690 1.3793 0.0000
0.0690 1.4138 0.0000
0.0690 1.4483 0.0000
0.0690 1.4828 0.0000
0.0690 1.5172 0.0000
0.0690 1.5517 0.0000
0.0690 1.5862 0.0000
0.0690 1.6207 0.0000
0.0690 1.6552 0.0000
0.0690 1.6897 0.0000
0.0690 1.7241 0.0000
0.0690 1.7586 0.0000
0.0690 1.7931 0.0000
0.0690 1.8276 0.0000
0.0690 1.8621 0.0000
0.0690 1.8966 0.0000
0.0690 1.9310 0.0000
0.0690 1.9655 0.0000
0.0690 2.0000 0.0000
0.1379 1.0000 0.0000
0.1379 1.0345 0.0000
0.1379 1.0690 0.0000
0.1379 1.1034 0.0000
0.1379 1.1379 0.0000
0.1379 1.1724 0.0000
0.1379 1.2069 0.0000
0.1379 1.2414 0.0000
0.1379 1.2759 0.0000
0.1379 1.3103 0.0000
0.1379 1.3448 0.0000
0.1379 1.3793 0.0000
0.1379 1.4138 0.0000
0.1379 1.4483 0.0000
0.1379 1.4828 0.0000
0.1379 1.5172 0.0000
0.1379 1.5517 0.0000
0.1379 1.5862 0.0000
0.1379 1.6207 0.0000
0.1379 1.6552 0.0000
0.1379 1.6897 0.0000
0.1379 1.7241 0.0000
0.1379 1.7586 0.0000
0.1379 1.7931 0.0000
0.1379 1.8276 0.0000
0.1379 1.8621 0.0000
0.1379 1.8966 0.0000
0.1379 1.9310 0.0000
0.1379 1.9655 0.0000
0.1379 2.0000 0.0000
0.2069 1.0000 0.0000
0.2069 1.0345 0.0000
0.2069 1.0690 0.0000
0.2069 1.1034 0.0000
0.2069 1.1379 0.0000
0.2069 1.1724 0.0000
0.2069 1.2069 0.0000
0.2069 1.2414 0.0000
0.2069 1.2759 0.0000
0.2069 1.3103 0.0000
0.2069 1.3448 0.0000
0.2069 1.3793 0.0000
0.2069 1.4138 0.0000
0.2069 1.4483 0.0000
0.2069 1.4828 0.0000
0.2069 1.5172 0.0000
0.2069 1.5517 0.0000
0.2069 1.5862 0.0000
0.2069 1.6207 0.0000
0.2069 1.6552 0.0000
0.2069 1.6897 0.0000
0.2069 1.7241 0.0000
0.2069 1.7586 0.0000
0.2069 1.7931 0.0000
0.2069 1.8276 0.0000
0.2069 1.8621 0.0000
0.2069 1.8966 0.0000
0.2069 1.9310 0.0000
0.2069 1.9655 0.0000
0.2069 2.0000 0.0000
0.2759 1.0000 0.0000
0.2759 1.0345 0.0000
0.2759 1.0690 0.0000
0.2759 1.1034 0.0000
0.2759 1.1379 0.0000
0.2759 1.1724 0.0000
0.2759 1.2069 0.0000
0.2759 1.2414 0.0000
0.2759 1.2759 0.0000
0.2759 1.3103 0.0000
0.2759 1.3448 0.0000
0.2759 1.3793 0.0000
0.2759 1.4138 0.0000
0.2759 1.4483 0.0000
0.2759 1.4828 0.0000
0.2759 1.5172 0.0000
0.2759 1.5517 0.0000
0.2759 1.5862 0.0000
0.2759 1.6207 0.0000
0.2759 1.6552 0.0000
0.2759 1.6897 0.0000
0.2759 1.7241 0.0000
0.2759 1.7586 0.0000
0.2759 1.7931 0.0000
0.2759 1.8276 0.0000
0.2759 1.8621 0.0000
0.2759 1.8966 0.0000
0.2759 1.9310 0.0000
0.2759 1.9655 0.0000
0.2759 2.0000 0.0000
0.3448 1.0000 0.0000
0.3448 1.0345 0.0000
0.3448 1.0690 0.0000
0.3448 1.1034 0.0000
0.3448 1.1379 0.0000
0.3448 1.1724 0.0000
0.3448 1.2069 0.0000
0.3448 1.2414 0.0000
0.3448 1.2759 0.0000
0.3448 1.3103 0.0000
0.3448 1.3448 0.0000
0.3448 1.3793 0.0000
0.3448 1.4138 0.0000
0.3448 1.4483 0.0000
0.3448 1.4828 0.0000
0.3448 1.5172 0.0000
0.3448 1.5517 0.0000
0.3448 1.5862 0.0000
0.3448 1.6207 0.0000
0.3448 1.6552 0.0000
0.3448 1.6897 0.0000
0.3448 1.7241 0.0000
0.3448 1.7586 0.0000
0.3448 1.7931 0.0000
0.3448 1.8276 0.0000
0.3448 1.8621 0.0000
0.3448 1.8966 0.0000
0.3448 1.9310 0.0000
0.3448 1.9655 0.0000
0.3448 2.0000 0.0000
0.4138 1.0000 0.0000
0.4138 1.0345 0.0000
0.4138 1.0690 0.0000
0.4138 1.1034 0.0000
0.4138 1.1379 0.0000
0.4138 1.1724 0.0000
0.4138 1.2069 0.0000
0.4138 1.2414 0.0000
0.4138 1.2759 0.0000
0.4138 1.3103 0.0000
0.4138 1.3448 0.0000
0.4138 1.3793 0.0000
0.4138 1.4138 0.0000
0.4138 1.4483 0.0000
0.4138 1.4828 0.0000
0.4138 1.5172 0.0000
0.4138 1.5517 0.0000
0.4138 1.5862 0.0000
0.4138 1.6207 0.0000
0.4138 1.6552 0.0000
0.4138 1.6897 0.0000
0.4138 1.7241 0.0000
0.4138 1.7586 0.0000
0.4138 1.7931 0.0000
0.4138 1.8276 0.0000
0.4138 1.8621 0.0000
0.4138 1.8966 0.0000
0.4138 1.9310 0.0000
0.4138 1.9655 0.0000
0.4138 2.0000 0.0000
0.4828 1.0000 0.0000
0.4828 1.0345 0.0000
0.4828 1.0690 0.0000
0.4828 1.1034 0.0000
0.4828 1.1379 0.0000
0.4828 1.1724 0.0000
0.4828 1.2069 0.0000
0.4828 1.2414 0.0000
0.4828 1.2759 0.0000
0.4828 1.3103 0.0000
0.4828 1.3448 0.0000
0.4828 1.3793 0.0000
0.4828 1.4138 0.0000
0.4828 1.4483 0.0000
0.4828 1.4828 0.0000
0.4828 1.5172 0.0000
0.4828 1.5517 0.0000
0.4828 1.5862 0.0000
0.4828 1.6207 0.0000
0.4828 1.6552 0.0000
0.4828 1.6897 0.0000
0.4828 1.7241 0.0000
0.4828 1.7586 0.0000
0.4828 1.7931 0.0000
0.4828 1.8276 0.0000
0.4828 1.8621 0.0000
0.4828 1.8966 0.0000
0.4828 1.9310 0.0000
0.4828 1.9655 0.0000
0.4828 2.0000 0.0000
0.5517 1.0000 0.0000
0.5517 1.0345 0.0000
0.5517 1.0690 0.0000
0.5517 1.1034 0.0000
0.5517 1.1379 0.0000
0.5517 1.1724 0.0000
0.5517 1.2069 0.0000
0.5517 1.2414 0.0000
0.5517 1.2759 0.0000
0.5517 1.3103 0.0000
0.5517 1.3448 0.0000
0.5517 1.3793 0.0000
0.5517 1.4138 0.0000
0.5517 1.4483 0.0000
0.5517 1.4828 0.0000
0.5517 1.5172 0.0000
0.5517 1.5517 0.0000
0.5517 1.5862 0.0000
0.5517 1.6207 0.0000
0.5517 1.6552 0.0000
0.5517 1.6897 0.0000
0.5517 1.7241 0.0000
0.5517 1.7586 0.0000
0.5517 1.7931 0.0000
0.5517 1.8276 0.0000
0.5517 1.8621 0.0000
0.5517 1.8966 0.0000
0.5517 1.9310 0.0000
0.5517 1.9655 0.0000
0.5517 2.0000 0.0000
0.6207 1.0000 0.0000
0.6207 1.0345 0.0000
0.6207 1.0690 0.0000
0.6207 1.1034 0.0000
0.6207 1.1379 0.0000
0.6207 1.1724 0.0000
0.6207 1.2069 0.0000
0.6207 1.2414 0.0000
0.6207 1.2759 0.0000
0.6207 1.3103 0.0000
0.6207 1.3448 0.0000
0.6207 1.3793 0.0000
0.6207 1.4138 0.0000
0.6207 1.4483 0.0000
0.6207 1.4828 0.0000
0.6207 1.5172 0.0000
0.6207 1.5517 0.0000
0.6207 1.5862 0.0000
0.6207 1.6207 0.0000
0.6207 1.6552 0.0000
0.6207 1.6897 0.0000
0.6207 1.7241 0.0000
0.6207 1.7586 0.0000
0.6207 1.7931 0.0000
0.6207 1.8276 0.0000
0.6207 1.8621 0.0000
0.6207 1.8966 0.0000
0.6207 1.9310 0.0000
0.6207 1.9655 0.0000
0.6207 2.0000 0.0000
0.6897 1.0000 0.0000
0.6897 1.0345 0.0000
0.6897 1.0690 0.0000
0.6897 1.1034 0.0000
0.6897 1.1379 0.0000
0.6897 1.1724 0.0000
0.6897 1.2069 0.0000
0.6897 1.2414 0.0000
0.6897 1.2759 0.0000
0.6897 1.3103 0.0000
0.6897 1.3448 0.0000
0.6897 1.3793 0.0000
0.6897 1.4138 0.0000
0.6897 1.4483 0.0000
0.6897 1.4828 0.0000
0.6897 1.5172 0.0000
0.6897 1.5517 0.0000
0.6897 1.5862 0.0000
0.6897 1.6207 0.0000
0.6897 1.6552 0.0000
0.6897 1.6897 0.0000
0.6897 1.7241 0.0000
0.6897 1.7586 0.0000
0.6897 1.7931 0.0000
0.6897 1.8276 0.0000
0.6897 1.8621 0.0000
0.6897 1.8966 0.0000
0.6897 1.9310 0.0000
0.6897 1.9655 0.0000
0.6897 2.0000 0.0000
0.7586 1.0000 0.0000
0.7586 1.0345 0.0000
0.7586 1.0690 0.0000
0.7586 1.1034 0.0000
0.7586 1.1379 0.0000
0.7586 1.1724 0.0000
0.7586 1.2069 0.0000
0.7586 1.2414 0.0000
0.7586 1.2759 0.0000
0.7586 1.3103 0.0000
0.7586 1.3448 0.0000
0.7586 1.3793 0.0000
0.7586 1.4138 0.0000
0.7586 1.4483 0.0000
0.7586 1.4828 0.0000
0.7586 1.5172 0.0000
0.7586 1.5517 0.0000
0.7586 1.5862 0.0000
0.7586 1.6207 0.0000
0.7586 1.6552 0.0000
0.7586 1.6897 0.0000
0.7586 1.7241 0.0000
0.7586 1.7586 0.0000
0.7586 1.7931 0.0000
0.7586 1.8276 0.0000
0.7586 1.8621 0.0000
0.7586 1.8966 0.0000
0.7586 1.9310 0.0000
0.7586 1.9655 0.0000
0.7586 2.0000 0.0000
0.8276 1.0000 0.0000
0.8276 1.0345 0.0000
0.8276 1.0690 0.0000
0.8276 1.1034 0.0000
0.8276 1.1379 0.0000
0.8276 1.1724 0.0000
0.8276 1.2069 0.0000
0.8276 1.2414 0.0000
0.8276 1.2759 0.0000
0.8276 1.3103 0.0000
0.8276 1.3448 0.0000
0.8276 1.3793 0.0000
0.8276 1.4138 0.0000
0.8276 1.4483 0.0000
0.8276 1.4828 0.0000
0.8276 1.5172 0.0000
0.8276 1.5517 0.0000
0.8276 1.5862 0.0000
0.8276 1.6207 0.0000
0.8276 1.6552 0.0000
0.8276 1.6897 0.0000
0.8276 1.7241 0.0000
0.8276 1.7586 0.0000
0.8276 1.7931 0.0000
0.8276 1.8276 0.0000
0.8276 1.8621 0.0000
0.8276 1.8966 0.0000
0.8276 1.9310 0.0000
0.8276 1.9655 0.0000
0.8276 2.0000 0.0000
0.8966 1.0000 0.0000
0.8966 1.0345 0.0000
0.8966 1.0690 0.0000
0.8966 1.1034 0.0000
0.8966 1.1379 0.0000
0.8966 1.1724 0.0000
0.8966 1.2069 0.0000
0.8966 1.2414 0.0000
0.8966 1.2759 0.0000
0.8966 1.3103 0.0000
0.8966 1.3448 0.0000
0.8966 1.3793 0.0000
0.8966 1.4138 0.0000
0.8966 1.4483 0.0000
0.8966 1.4828 0.0000
0.8966 1.5172 0.0000
0.8966 1.5517 0.0000
0.8966 1.5862 0.0000
0.8966 1.6207 0.0000
0.8966 1.6552 0.0000
0.8966 1.6897 0.0000
0.8966 1.7241 0.0000
0.8966 1.7586 0.0000
0.8966 1.7931 0.0000
0.8966 1.8276 0.0000
0.8966 1.8621 0.0000
0.8966 1.8966 0.0000
0.8966 1.9310 0.0000
0.8966 1.9655 0.0000
0.8966 2.0000 0.0000
0.9655 1.0000 0.0000
0.9655 1.0345 0.0000
0.9655 1.0690 0.0000
0.9655 1.1034 0.0000
0.9655 1.1379 0.0000
0.9655 1.1724 0.0000
0.9655 1.2069 0.0000
0.9655 1.2414 0.0000
0.9655 1.2759 0.0000
0.9655 1.3103 0.0000
0.9655 1.3448 0.0000
0.9655 1.3793 0.0000
0.9655 1.4138 0.0000
0.9655 1.4483 0.0000
0.9655 1.4828 0.0000
0.9655 1.5172 0.0000
0.9655 1.5517 0.0000
0.9655 1.5862 0.0000
0.9655 1.6207 0.0000
0.9655 1.6552 0.0000
0.9655 1.6897 0.0000
0.9655 1.7241 0.0000
0.9655 1.7586 0.0000
0.9655 1.7931 0.0000
0.9655 1.8276 0.0000
0.9655 1.8621 0.0000
0.9655 1.8966 0.0000
0.9655 1.9310 0.0000
0.9655 1.9655 0.0000
0.9655 2.0000 0.0000
1.0345 1.0000 0.0000
1.0345 1.0345 0.0000
1.0345 1.0690 0.0000
1.0345 1.1034 0.0000
1.0345 1.1379 0.0000
1.0345 1.1724 0.0000
1.0345 1.2069 0.0000
1.0345 1.2414 0.0000
1.0345 1.2759 0.0000
1.0345 1.3103 0.0000
1.0345 1.3448 0.0000
[...]
         <PointData>
            <DataArray Name="fValues" NumberOfComponents="3" format="ascii" type="Float64">
-4.26877e-28  5.47424e-29        00000 
-8.56728e-29 -6.53255e-28        00000 
-1.01664e-27 -7.03572e-28        00000 
-7.66399e-28 -1.96323e-27        00000 
-4.06655e-27 -1.16807e-26        00000 
-6.11242e-27 -2.25297e-26        00000 
-1.35552e-26 -3.51270e-26        00000 
-5.68838e-26 -1.13488e-25        00000 
 1.08441e-25 -1.43685e-25        00000 
-7.21746e-25  4.00074e-25        00000 
-5.63895e-25 -4.10315e-24        00000 
 5.23195e-25 -1.01914e-24        00000 
-6.94025e-24 -1.06273e-23        00000 
 3.85182e-25 -2.27075e-24        00000 
-4.30295e-23 -5.91222e-23        00000 
 1.06819e-23 -5.27146e-23        00000 
-2.22088e-23 -2.72058e-22        00000 
-1.93888e-22 -2.42589e-22        00000 
-1.55462e-22 -4.24743e-22        00000 
 8.70596e-22 -7.47820e-22        00000 
-3.90875e-21        00000        00000 
 3.26877e-21  5.99412e-21        00000 
-3.90875e-21 -6.75147e-21        00000 
 1.04918e-21 -3.67994e-20        00000 
-4.61943e-21 -1.42136e-20        00000 
-3.64077e-21 -3.92032e-20        00000 
-1.42136e-21 -2.27418e-20        00000 
 1.81153e-21 -4.32084e-20        00000 
-1.30812e-20  2.16825e-20        00000 
 3.33549e-20  2.84245e-20        00000 
-4.43111e-12  1.15987e-13        00000 
-3.20288e-12  3.64883e-13        00000 
-8.05117e-12  5.69832e-14        00000 
-1.89836e-11  7.29982e-14        00000 
-4.37884e-11  9.31858e-15        00000 
-1.00100e-10 -7.59504e-13        00000 
-2.27428e-10 -4.05374e-12        00000 
-5.13685e-10 -1.48040e-11        00000 
-1.15402e-09 -4.39454e-11        00000 
-2.58329e-09 -1.08934e-10        00000 
-5.78208e-09 -2.16391e-10        00000 
-1.30041e-08 -2.83398e-10        00000 
-2.95359e-08  7.45598e-11        00000 
-6.79293e-08  1.85278e-09        00000 
-1.57808e-07  6.25690e-09        00000 
-3.66958e-07  9.99526e-09        00000 
-8.41526e-07 -1.44061e-08        00000 
-1.86885e-06 -1.76176e-07        00000 
-3.94266e-06 -7.93771e-07        00000 
-7.75263e-06 -2.60072e-06        00000 
-1.39438e-05 -6.93583e-06        00000 
-2.24983e-05 -1.56418e-05        00000 
-3.18673e-05 -3.03041e-05        00000 
-3.85731e-05 -5.07998e-05        00000 
-3.83909e-05 -7.40218e-05        00000 
-2.93782e-05 -9.42959e-05        00000 
-1.48967e-05 -1.05772e-04        00000 
-1.39594e-06 -1.02381e-04        00000 
 1.07559e-05 -7.17733e-05        00000 
 2.09931e-04 -7.10441e-05        00000 
 4.61711e-12 -2.17313e-13        00000 
 3.92675e-12 -5.13948e-13        00000 
 8.60011e-12 -1.29777e-12        00000 
 2.03852e-11 -2.91716e-12        00000 
 4.70428e-11 -6.30524e-12        00000 
 1.07600e-10 -1.29113e-11        00000 
 2.44867e-10 -2.49829e-11        00000 
 5.54754e-10 -4.57953e-11        00000 
 1.25166e-09 -8.21365e-11        00000 
 2.81527e-09 -1.60009e-10        00000 
 6.32390e-09 -3.93270e-10        00000 
 1.42226e-08 -1.21605e-09        00000 
 3.21154e-08 -4.00399e-09        00000 
 7.29635e-08 -1.22869e-08        00000 
 1.66800e-07 -3.27450e-08        00000 
 3.82371e-07 -7.06352e-08        00000 
 8.71866e-07 -1.01018e-07        00000 
 1.95188e-06  3.01971e-08        00000 
 4.21753e-06  8.54130e-07        00000 
 8.62019e-06  3.73835e-06        00000 
 1.62980e-05  1.14346e-05        00000 
 2.78182e-05  2.81466e-05        00000 
 4.17041e-05  5.81126e-05        00000 
 5.30967e-05  1.02155e-04        00000 
 5.47217e-05  1.53809e-04        00000 
 4.19178e-05  1.99102e-04        00000 
 1.90483e-05  2.22598e-04        00000 
-1.15191e-06  2.15314e-04        00000 
-4.64834e-05  1.83721e-04        00000 
-2.53289e-04  1.61886e-04        00000 
-3.98419e-12  2.86538e-13        00000 
-3.46826e-12  6.05898e-13        00000 
-7.41850e-12  2.01288e-12        00000 
-1.74889e-11  4.70368e-12        00000 
-4.03552e-11  1.02784e-11        00000 
-9.23796e-11  2.16042e-11        00000 
-2.10832e-10  4.37498e-11        00000 
-4.80205e-10  8.58730e-11        00000 
-1.09165e-09  1.67285e-10        00000 
-2.47598e-09  3.41435e-10        00000 
-5.59810e-09  7.84739e-10        00000 
-1.26016e-08  2.08136e-09        00000 
-2.82125e-08  5.98835e-09        00000 
-6.28257e-08  1.70454e-08        00000 
-1.39492e-07  4.45562e-08        00000 
-3.10274e-07  9.97818e-08        00000 
-6.94786e-07  1.67330e-07        00000 
-1.56616e-06  9.06310e-08        00000 
-3.51681e-06 -7.54676e-07        00000 
-7.69240e-06 -4.16547e-06        00000 
-1.58882e-05 -1.41799e-05        00000 
-2.99116e-05 -3.77849e-05        00000 
-4.94224e-05 -8.33710e-05        00000 
-6.86329e-05 -1.54890e-04        00000 
-7.54525e-05 -2.43179e-04        00000 
-5.85420e-05 -3.22586e-04        00000 
-2.11238e-05 -3.62285e-04        00000 
 1.70991e-05 -3.48829e-04        00000 
 7.23232e-05 -2.97940e-04        00000 
 2.85602e-04 -2.51222e-04        00000 
 3.00587e-12 -3.06905e-13        00000 
 2.62554e-12 -6.67899e-13        00000 
 5.56554e-12 -2.44356e-12        00000 
 1.30638e-11 -5.80927e-12        00000 
 3.01058e-11 -1.28001e-11        00000 
 6.90091e-11 -2.73265e-11        00000 
 1.58244e-10 -5.68467e-11        00000 
 3.63519e-10 -1.15982e-10        00000 
 8.36025e-10 -2.35868e-10        00000 
 1.91996e-09 -4.92399e-10        00000 
 4.38316e-09 -1.09401e-09        00000 
 9.88758e-09 -2.63876e-09        00000 
 2.19025e-08 -6.78753e-09        00000 
 4.74458e-08 -1.77454e-08        00000 
 1.00666e-07 -4.45465e-08        00000 
 2.11715e-07 -1.00833e-07        00000 
 4.52556e-07 -1.85068e-07        00000 
 1.01290e-06 -1.81851e-07        00000 
 2.39838e-06  4.72906e-07        00000 
 5.84178e-06  3.66528e-06        00000 
 1.38565e-05  1.43111e-05        00000 
 3.01973e-05  4.24162e-05        00000 
 5.73721e-05  1.02743e-04        00000 
 9.01895e-05  2.06925e-04        00000 
 1.09481e-04  3.46376e-04        00000 
 8.91341e-05  4.78962e-04        00000 
 2.40504e-05  5.44790e-04        00000 
-4.90293e-05  5.14493e-04        00000 
-1.14514e-04  4.21411e-04        00000 
-3.17654e-04  3.39504e-04        00000 
-1.83976e-12  3.09238e-13        00000 
-1.59587e-12  7.00354e-13        00000 
-3.35591e-12  2.68636e-12        00000 
-7.83291e-12  6.44734e-12        00000 
-1.80121e-11  1.43309e-11        00000 
-4.14140e-11  3.10981e-11        00000 
-9.58891e-11  6.64302e-11        00000 
-2.23874e-10  1.40432e-10        00000 
-5.25527e-10  2.96231e-10        00000 
-1.23197e-09  6.30359e-10        00000 
-2.85528e-09  1.36748e-09        00000 
-6.46249e-09  3.04217e-09        00000 
-1.40958e-08  6.92610e-09        00000 
-2.92573e-08  1.59659e-08        00000 
-5.73041e-08  3.65273e-08        00000 
-1.06595e-07  8.00512e-08        00000 
-1.97588e-07  1.56021e-07        00000 
-4.11178e-07  2.14669e-07        00000 
-1.07228e-06 -1.09157e-07        00000 
-3.27803e-06 -2.35581e-06        00000 
-9.99732e-06 -1.14621e-05        00000 
-2.73405e-05 -3.98361e-05        00000 
-6.32256e-05 -1.10764e-04        00000 
-1.17713e-04 -2.51543e-04        00000 
-1.64721e-04 -4.64340e-04        00000 
-1.48949e-04 -6.87161e-04        00000 
-3.58751e-05 -8.02888e-04        00000 
 1.13045e-04 -7.37945e-04        00000 
 1.98059e-04 -5.58793e-04        00000 
 3.39076e-04 -4.11036e-04        00000 
 5.68569e-13 -3.01313e-13        00000 
 4.70132e-13 -7.00430e-13        00000 
 9.56839e-13 -2.76308e-12        00000 
 2.18269e-12 -6.67382e-12        00000 
 4.97692e-12 -1.49788e-11        00000 
 1.16496e-11 -3.30857e-11        00000 
 2.83233e-11 -7.25622e-11        00000 
 7.11213e-11 -1.58360e-10        00000 
 1.81027e-10 -3.44047e-10        00000 
 4.55685e-10 -7.42395e-10        00000 
 1.10594e-09 -1.58162e-09        00000 
 2.52147e-09 -3.29640e-09        00000 
 5.22881e-09 -6.65654e-09        00000 
 9.32973e-09 -1.29620e-08        00000 
 1.23900e-08 -2.45433e-08        00000 
 4.15661e-09 -4.63855e-08        00000 
-4.11008e-08 -8.91853e-08        00000 
-1.56161e-07 -1.60766e-07        00000 
-2.68744e-07 -1.55395e-07        00000 
 2.89150e-07  7.38830e-07        00000 
 4.25752e-06  6.23949e-06        00000 
 1.94334e-05  2.88687e-05        00000 
 6.14342e-05  1.00170e-04        00000 
 1.45170e-04  2.73700e-04        00000 
 2.48156e-04  5.87465e-04        00000 
 2.67385e-04  9.70646e-04        00000 
 8.14963e-05  1.19938e-03        00000 
-2.35772e-04  1.07679e-03        00000 
-3.70601e-04  7.15853e-04        00000 
-3.07016e-04  4.17768e-04        00000 
 7.35122e-13  2.85723e-13        00000 
 6.80435e-13  6.69803e-13        00000 
 1.48436e-12  2.68510e-12        00000 
 3.54620e-12  6.51644e-12        00000 
 8.21767e-12  1.47807e-11        00000 
 1.85186e-11  3.32542e-11        00000 
 4.05208e-11  7.47568e-11        00000 
 8.60063e-11  1.67547e-10        00000 
 1.77925e-10  3.71927e-10        00000 
 3.64492e-10  8.08900e-10        00000 
 7.63322e-10  1.69696e-09        00000 
 1.70737e-09  3.36145e-09        00000 
 4.21166e-09  6.10230e-09        00000 
 1.13697e-08  9.69707e-09        00000 
 3.22088e-08  1.24306e-08        00000 
 9.13098e-08  1.08531e-08        00000 
 2.49367e-07  6.01697e-09        00000 
 6.34350e-07  2.91679e-08        00000 
 1.43754e-06  1.82200e-07        00000 
 2.63553e-06  4.98588e-07        00000 
 2.66020e-06 -4.03646e-07        00000 
-5.86310e-06 -1.12683e-05        00000 
-4.43386e-05 -6.50923e-05        00000 
-1.54971e-04 -2.47076e-04        00000 
-3.53677e-04 -6.78781e-04        00000 
-4.93985e-04 -1.34671e-03        00000 
-2.37518e-04 -1.86199e-03        00000 
 4.40025e-04 -1.68558e-03        00000 
 7.12050e-04 -9.21016e-04        00000 
 7.62802e-05 -2.14097e-04        00000 
-1.99866e-12 -2.65062e-13        00000 
-1.78737e-12 -6.14697e-13        00000 
-3.82468e-12 -2.46838e-12        00000 
-9.02560e-12 -6.00786e-12        00000 
-2.08264e-11 -1.37763e-11        00000 
-4.74073e-11 -3.15559e-11        00000 
-1.06828e-10 -7.24992e-11        00000 
-2.38727e-10 -1.65880e-10        00000 
-5.30636e-10 -3.73449e-10        00000 
-1.17883e-09 -8.14107e-10        00000 
-2.63297e-09 -1.68296e-09        00000 
-5.94612e-09 -3.20157e-09        00000 
-1.36267e-08 -5.31404e-09        00000 
-3.17106e-08 -6.72925e-09        00000 
-7.47785e-08 -2.79900e-09        00000 
-1.77975e-07  1.71940e-08        00000 
-4.24861e-07  6.68228e-08        00000 
-1.00643e-06  1.27710e-07        00000 
-2.31748e-06  1.90431e-08        00000 
-4.99035e-06 -8.90569e-07        00000 
-9.22127e-06 -3.73264e-06        00000 
-1.12508e-05 -7.10525e-06        00000 
 9.64736e-06  1.00267e-05        00000 
 1.12648e-04  1.41085e-04        00000 
 4.29214e-04  6.44840e-04        00000 
 8.71201e-04  1.77530e-03        00000 
 7.24346e-04  3.05272e-03        00000 
-6.34496e-04  3.03524e-03        00000 
-1.22475e-03  1.31363e-03        00000 
 8.77597e-04 -6.65414e-04        00000 
 3.14725e-12  2.40844e-13        00000 
 2.78004e-12  5.44843e-13        00000 
 5.92321e-12  2.13008e-12        00000 
 1.39381e-11  5.17853e-12        00000 
 3.21297e-11  1.19997e-11        00000 
 7.33742e-11  2.79416e-11        00000 
 1.66784e-10  6.53522e-11        00000 
 3.77965e-10  1.51757e-10        00000 
 8.55022e-10  3.44325e-10        00000 
 1.93306e-09  7.48970e-10        00000 
 4.37113e-09  1.52496e-09        00000 
 9.88572e-09  2.80214e-09        00000 
 2.23397e-08  4.30550e-09        00000 
 5.03734e-08  4.22605e-09        00000 
 1.13241e-07 -3.41503e-09        00000 
 2.53995e-07 -3.31958e-08        00000 
 5.70027e-07 -1.10150e-07        00000 
 1.28431e-06 -2.44680e-07        00000 
 2.90390e-06 -2.92903e-07        00000 
 6.50543e-06  5.30247e-07        00000 
 1.39828e-05  4.85336e-06        00000 
 2.65132e-05  1.84764e-05        00000 
 3.64380e-05  4.42380e-05        00000 
-1.61926e-05  2.99382e-05        00000 
-2.71487e-04 -3.17382e-04        00000 
-1.33541e-03 -1.99512e-03        00000 
-1.98968e-03 -5.23738e-03        00000 
-9.98333e-05 -6.66957e-03        00000 
 1.04653e-03 -2.42653e-03        00000 
-4.63165e-03  3.88226e-03        00000 
-4.09013e-12 -2.06761e-13        00000 
-3.56357e-12 -4.74955e-13        00000 
-7.61436e-12 -1.67441e-12        00000 
-1.79158e-11 -4.02627e-12        00000 
-4.12848e-11 -9.42346e-12        00000 
-9.44681e-11 -2.22615e-11        00000 
-2.15776e-10 -5.27875e-11        00000 
-4.92585e-10 -1.23751e-10        00000 
-1.12389e-09 -2.81498e-10        00000 
-2.56099e-09 -6.08403e-10        00000 
-5.81971e-09 -1.21686e-09        00000 
-1.31610e-08 -2.15684e-09        00000 
-2.95467e-08 -3.05305e-09        00000 
-6.57071e-08 -2.05363e-09        00000 
-1.44575e-07  6.67567e-09        00000 
-3.15028e-07  3.77194e-08        00000 
-6.82506e-07  1.19648e-07        00000 
-1.48133e-06  2.84226e-07        00000 
-3.25048e-06  4.64860e-07        00000 
-7.25519e-06  4.32128e-08        00000 
-1.63224e-05 -3.69005e-06        00000 
-3.61854e-05 -1.96378e-05        00000 
-7.25950e-05 -6.96532e-05        00000 
-1.24624e-04 -1.79000e-04        00000 
-1.33133e-05 -2.05553e-04        00000 
 2.60901e-04  9.46296e-04        00000 
 5.96410e-03  8.78479e-03        00000 
 4.81913e-03  1.75825e-02        00000 
 8.51836e-03  5.46292e-03        00000 
 1.81091e-02 -1.48731e-02        00000 
 4.64433e-12  1.39429e-13        00000 
 3.91708e-12  4.50458e-13        00000 
 8.54828e-12  1.10168e-12        00000 
 2.01661e-11  2.55151e-12        00000 
 4.64410e-11  6.05176e-12        00000 
 1.06407e-10  1.44906e-11        00000 
 2.43782e-10  3.47290e-11        00000 
 5.58895e-10  8.18497e-11        00000 
 1.28113e-09  1.85745e-10        00000 
 2.93075e-09  3.96544e-10        00000 
 6.67355e-09  7.72366e-10        00000 
 1.50810e-08  1.29746e-09        00000 
 3.37234e-08  1.59605e-09        00000 
 7.44438e-08  1.38657e-10        00000 
 1.62021e-07 -7.64437e-09        00000 
 3.47841e-07 -3.31700e-08        00000 
 7.39044e-07 -1.00241e-07        00000 
 1.56507e-06 -2.43727e-07        00000 
 3.34325e-06 -4.52270e-07        00000 
 7.30807e-06 -3.50344e-07        00000 
 1.65617e-05  2.06306e-06        00000 
 3.86171e-05  1.44540e-05        00000 
 9.25278e-05  6.01559e-05        00000 
 2.06039e-04  1.94492e-04        00000 
 5.07974e-04  4.71597e-04        00000 
 2.99058e-04  4.03992e-04        00000 
 3.51973e-03 -4.93846e-03        00000 
-5.76688e-02 -5.23479e-02        00000 
-4.16439e-02 -8.46151e-03        00000 
-8.93093e-02  6.89064e-02        00000 
-4.25954e-12 -1.47664e-13        00000 
-3.05268e-12 -8.04635e-13        00000 
-7.56493e-12 -9.63692e-13        00000 
-1.77458e-11 -2.11942e-12        00000 
-4.08399e-11 -4.96803e-12        00000 
-9.36442e-11 -1.16928e-11        00000 
-2.14896e-10 -2.75202e-11        00000 
-4.93749e-10 -6.40844e-11        00000 
-1.13432e-09 -1.45725e-10        00000 
-2.59931e-09 -3.19306e-10        00000 
-5.92254e-09 -6.65043e-10        00000 
-1.33733e-08 -1.29593e-09        00000 
-2.98353e-08 -2.30918e-09        00000 
-6.56103e-08 -3.60382e-09        00000 
-1.42048e-07 -4.39685e-09        00000 
-3.02869e-07 -2.21078e-09        00000 
-6.37561e-07  8.46897e-09        00000 
-1.33295e-06  3.40972e-08        00000 
-2.79855e-06  5.29934e-08        00000 
-6.01020e-06 -1.51085e-07        00000 
-1.34978e-05 -1.72260e-06        00000 
-3.24445e-05 -9.19017e-06        00000 
-8.22362e-05 -3.63389e-05        00000 
-2.23932e-04 -1.04345e-04        00000 
-5.38753e-04 -1.93630e-04        00000 
-1.70604e-03  1.35045e-04        00000 
 1.58566e-03  2.29903e-04        00000 
-2.81460e-02  6.76094e-03        00000 
 8.69469e-01 -3.86414e-03        00000 
-9.60114e-03  2.07699e-02        00000 
-2.03440e-13  1.37570e-12        00000 
-3.86045e-14  4.31223e-12        00000 
-9.26192e-14  8.66080e-12        00000 
-2.17190e-13  1.91764e-11        00000 
-4.99841e-13  4.34828e-11        00000 
-1.14615e-12  9.92477e-11        00000 
-2.63021e-12  2.27200e-10        00000 
-6.04298e-12  5.21331e-10        00000 
-1.38815e-11  1.19825e-09        00000 
-3.18042e-11  2.75464e-09        00000 
-7.24494e-11  6.31858e-09        00000 
-1.63549e-10  1.44177e-08        00000 
-3.64765e-10  3.26208e-08        00000 
-8.01921e-10  7.29680e-08        00000 
-1.73576e-09  1.60992e-07        00000 
-3.70040e-09  3.49868e-07        00000 
-7.78990e-09  7.48716e-07        00000 
-1.62920e-08  1.57973e-06        00000 
-3.42335e-08  3.29820e-06        00000 
-7.36187e-08  6.86966e-06        00000 
-1.65627e-07  1.45163e-05        00000 
-3.98435e-07  3.20727e-05        00000 
-1.01086e-06  7.69283e-05        00000 
-2.73566e-06  2.03607e-04        00000 
-6.63083e-06  5.67538e-04        00000 
-1.98792e-05  1.52092e-03        00000 
 1.55594e-05  3.31510e-03        00000 
-2.01991e-04  5.73608e-03        00000 
 1.01649e-02  2.01698e-18        00000 
 2.64556e-17 -8.28633e-19        00000 
 6.38666e-29 -3.20663e-28        00000 
-7.57934e-29  5.08763e-28        00000 
 8.32957e-29 -2.39160e-28        00000 
-1.35396e-28 -1.28354e-27        00000 
 7.49995e-29  2.04680e-27        00000 
 8.73594e-28 -2.46769e-27        00000 
-4.57670e-27  8.27794e-27        00000 
 8.61312e-27 -2.56051e-26        00000 
-2.61947e-26  2.44992e-26        00000 
 1.88919e-26 -1.49548e-25        00000 
 3.24254e-26  1.76249e-25        00000 
-1.39522e-25  3.24224e-26        00000 
-2.77465e-26 -8.13062e-25        00000 
 1.96907e-25  6.51267e-25        00000 
 1.11238e-24  6.54429e-24        00000 
-4.50463e-24 -1.69853e-23        00000 
-1.65294e-25  5.99516e-23        00000 
 1.56791e-24 -2.49179e-23        00000 
 7.61433e-24  1.59023e-22        00000 
-4.32035e-23 -3.50195e-22        00000 
-4.26792e-24  5.64582e-22        00000 
-3.37793e-25 -1.44725e-21        00000 
 5.06592e-22  4.51235e-21        00000 
-4.62677e-21 -7.31864e-21        00000 
 1.85610e-20 -1.12800e-20        00000 
-1.06280e-19 -1.07794e-19        00000 
 7.94630e-19  1.46304e-19        00000 
-2.25487e-18  2.23690e-19        00000 
 2.78754e-18 -2.88757e-19        00000 
-3.35835e-18  2.73665e-19        00000 
-1.19462e-29  6.97155e-29        00000 
 1.18232e-29 -6.45544e-29        00000 
-1.35974e-29 -3.02691e-29        00000 
 1.02962e-29  1.96664e-28        00000 
 6.45579e-29 -4.46349e-28        00000 
-3.02271e-28  7.47755e-28        00000 
 8.58232e-28 -1.98283e-27        00000 
-2.02722e-27  3.92801e-27        00000 
 2.93986e-27 -9.42980e-27        00000 
-8.89923e-28  1.96106e-26        00000 
-7.10887e-27 -1.56438e-26        00000 
 9.96863e-27 -3.06051e-26        00000 
 4.17019e-27  9.42894e-26        00000 
 4.30688e-26  2.83517e-25        00000 
-2.63443e-25 -1.46181e-24        00000 
 3.65314e-25  4.44804e-24        00000 
 1.21957e-25 -8.63992e-24        00000 
 3.18671e-25  1.29146e-23        00000 
-2.46403e-24 -3.13048e-23        00000 
 4.40833e-24  6.51984e-23        00000 
-5.40076e-24 -1.41116e-22        00000 
 5.40763e-23  3.47083e-22        00000 
-3.78192e-22 -6.97264e-22        00000 
 1.84131e-21  4.68434e-22        00000 
-8.47831e-21 -1.49535e-21        00000 
 5.20433e-20  1.31380e-20        00000 
-1.74128e-19 -9.71927e-21        00000 
 3.42729e-19 -2.06632e-20        00000 
-4.71471e-19  4.41190e-20        00000 
 5.17736e-19 -4.74854e-20        00000 
 2.08405e-30 -9.10092e-30        00000 
-1.85709e-30  8.38074e-30        00000 
 1.83052e-30  9.82303e-30        00000 
 3.84071e-30 -3.88635e-29        00000 
-3.30231e-29  9.10795e-29        00000 
 8.69639e-29 -2.14237e-28        00000 
-1.62156e-28  2.99118e-28        00000 
 3.20106e-28 -7.26526e-28        00000 
-3.66115e-28  1.41957e-27        00000 
 2.76366e-28 -4.20955e-28        00000 
-7.83949e-28 -3.15709e-27        00000 
 2.74584e-27  3.71399e-27        00000 
-4.20287e-27  1.25912e-26        00000 
 8.06983e-27 -1.29157e-25        00000 
 1.69045e-26  5.03856e-25        00000 
-1.43330e-27 -9.07915e-25        00000 
-3.03048e-26  1.55539e-24        00000 