<?xml version="1.0" encoding="utf-8"?>
<VTKFile byte_order="LittleEndian" type="UnstructuredGrid" version="0.1">
   <UnstructuredGrid>
      <Piece NumberOfCells="3364" NumberOfPoints="1741">
         <Points>
            <DataArray Name="Points" NumberOfComponents="3" format="ascii" type="Float32">
0.0000 1.0000 0.0000
0.0000 1.0345 0.0000
0.0000 1.0690 0.0000
0.0000 1.1034 0.0000
0.0000 1.1379 0.0000
0.0000 1.1724 0.0000
0.0000 1.2069 0.0000
0.0000 1.2414 0.0000
0.0000 1.2759 0.0000
0.0000 1.3103 0.0000
0.0000 1.3448 0.0000
0.0000 1.3793 0.0000
0.0000 1.4138 0.0000
0.0000 1.4483 0.0000
0.0000 1.4828 0.0000
0.0000 1.5172 0.0000
0.0000 1.5517 0.0000
0.0000 1.5862 0.0000
0.0000 1.6207 0.0000
0.0000 1.6552 0.0000
0.0000 1.6897 0.0000
0.0000 1.7241 0.0000
0.0000 1.7586 0.0000
0.0000 1.7931 0.0000
0.0000 1.8276 0.0000
0.0000 1.8621 0.0000
0.0000 1.8966 0.0000
0.0000 1.9310 0.0000
0.0000 1.9655 0.0000
0.0000 2.0000 0.0000
0.0690 1.0000 0.0000
0.0690 1.0345 0.0000
0.0690 1.0690 0.0000
0.0690 1.1034 0.0000
0.0690 1.1379 0.0000
0.0690 1.1724 0.0000
0.0690 1.2069 0.0000
0.0690 1.2414 0.0000
0.0690 1.2759 0.0000
0.0690 1.3103 0.0000
0.0690 1.3448 0.0000
0.0690 1.3793 0.0000
0.0690 1.4138 0.0000
0.0690 1.4483 0.0000
0.0690 1.4828 0.0000
0.0690 1.5172 0.0000
0.0690 1.5517 0.0000
0.0690 1.5862 0.0000
0.0690 1.6207 0.0000
0.0690 1.6552 0.0000
0.0690 1.6897 0.0000
0.0690 1.7241 0.0000
0.0690 1.7586 0.0000
0.0690 1.7931 0.0000
0.0690 1.8276 0.0000
0.0690 1.8621 0.0000
0.0690 1.8966 0.0000
0.0690 1.9310 0.0000
0.0690 1.9655 0.0000
0.0690 2.0000 0.0000
0.1379 1.0000 0.0000
0.1379 1.0345 0.0000
0.1379 1.0690 0.0000
0.1379 1.1034 0.0000
0.1379 1.1379 0.0000
0.1379 1.1724 0.0000
0.1379 1.2069 0.0000
0.1379 1.2414 0.0000
0.1379 1.2759 0.0000
0.1379 1.3103 0.0000
0.1379 1.3448 0.0000
0.1379 1.3793 0.0000
0.1379 1.4138 0.0000
0.1379 1.4483 0.0000
0.1379 1.4828 0.0000
0.1379 1.5172 0.0000
0.1379 1.5517 0.0000
0.1379 1.5862 0.0000
0.1379 1.6207 0.0000
0.1379 1.6552 0.0000
0.1379 1.6897 0.0000
0.1379 1.7241 0.0000
0.1379 1.7586 0.0000
0.1379 1.7931 0.0000
0.1379 1.8276 0.0000
0.1379 1.8621 0.0000
0.1379 1.8966 0.0000
0.1379 1.9310 0.0000
0.1379 1.9655 0.0000
0.1379 2.0000 0.0000
0.2069 1.0000 0.0000
0.2069 1.0345 0.0000
0.2069 1.0690 0.0000
0.2069 1.1034 0.0000
0.2069 1.1379 0.0000
0.2069 1.1724 0.0000
0.2069 1.2069 0.0000
0.2069 1.2414 0.0000
0.2069 1.2759 0.0000
0.2069 1.3103 0.0000
0.2069 1.3448 0.0000
0.2069 1.3793 0.0000
0.2069 1.4138 0.0000
0.2069 1.4483 0.0000
0.2069 1.4828 0.0000
0.2069 1.5172 0.0000
0.2069 1.5517 0.0000
0.2069 1.5862 0.0000
0.2069 1.6207 0.0000
0.2069 1.6552 0.0000
0.2069 1.6897 0.0000
0.2069 1.7241 0.0000
0.2069 1.7586 0.0000
0.2069 1.7931 0.0000
0.2069 1.8276 0.0000
0.2069 1.8621 0.0000
0.2069 1.8966 0.0000
0.2069 1.9310 0.0000
0.2069 1.9655 0.0000
0.2069 2.0000 0.0000
0.2759 1.0000 0.0000
0.2759 1.0345 0.0000
0.2759 1.0690 0.0000
0.2759 1.1034 0.0000
0.2759 1.1379 0.0000
0.2759 1.1724 0.0000
0.2759 1.2069 0.0000
0.2759 1.2414 0.0000
0.2759 1.2759 0.0000
0.2759 1.3103 0.0000
0.2759 1.3448 0.0000
0.2759 1.3793 0.0000
0.2759 1.4138 0.0000
0.2759 1.4483 0.0000
0.2759 1.4828 0.0000
0.2759 1.5172 0.0000
0.2759 1.5517 0.0000
0.2759 1.5862 0.0000
0.2759 1.6207 0.0000
0.2759 1.6552 0.0000
0.2759 1.6897 0.0000
0.2759 1.7241 0.0000
0.2759 1.7586 0.0000
0.2759 1.7931 0.0000
0.2759 1.8276 0.0000
0.2759 1.8621 0.0000
0.2759 1.8966 0.0000
0.2759 1.9310 0.0000
0.2759 1.9655 0.0000
0.2759 2.0000 0.0000
0.3448 1.0000 0.0000
0.3448 1.0345 0.0000
0.3448 1.0690 0.0000
0.3448 1.1034 0.0000
0.3448 1.1379 0.0000
0.3448 1.1724 0.0000
0.3448 1.2069 0.0000
0.3448 1.2414 0.0000
0.3448 1.2759 0.0000
0.3448 1.3103 0.0000
0.3448 1.3448 0.0000
0.3448 1.3793 0.0000
0.3448 1.4138 0.0000
0.3448 1.4483 0.0000
0.3448 1.4828 0.0000
0.3448 1.5172 0.0000
0.3448 1.5517 0.0000
0.3448 1.5862 0.0000
0.3448 1.6207 0.0000
0.3448 1.6552 0.0000
0.3448 1.6897 0.0000
0.3448 1.7241 0.0000
0.3448 1.7586 0.0000
0.3448 1.7931 0.0000
0.3448 1.8276 0.0000
0.3448 1.8621 0.0000
0.3448 1.8966 0.0000
0.3448 1.9310 0.0000
0.3448 1.9655 0.0000
0.3448 2.0000 0.0000
0.4138 1.0000 0.0000
0.4138 1.0345 0.0000
0.4138 1.0690 0.0000
0.4138 1.1034 0.0000
0.4138 1.1379 0.0000
0.4138 1.1724 0.0000
0.4138 1.2069 0.0000
0.4138 1.2414 0.0000
0.4138 1.2759 0.0000
0.4138 1.3103 0.0000
0.4138 1.3448 0.0000
0.4138 1.3793 0.0000
0.4138 1.4138 0.0000
0.4138 1.4483 0.0000
0.4138 1.4828 0.0000
0.4138 1.5172 0.0000
0.4138 1.5517 0.0000
0.4138 1.5862 0.0000
0.4138 1.6207 0.0000
0.4138 1.6552 0.0000
0.4138 1.6897 0.0000
0.4138 1.7241 0.0000
0.4138 1.7586 0.0000
0.4138 1.7931 0.0000
0.4138 1.8276 0.0000
0.4138 1.8621 0.0000
0.4138 1.8966 0.0000
0.4138 1.9310 0.0000
0.4138 1.9655 0.0000
0.4138 2.0000 0.0000
0.4828 1.0000 0.0000
0.4828 1.0345 0.0000
0.4828 1.0690 0.0000
0.4828 1.1034 0.0000
0.4828 1.1379 0.0000
0.4828 1.1724 0.0000
0.4828 1.2069 0.0000
0.4828 1.2414 0.0000
0.4828 1.2759 0.0000
0.4828 1.3103 0.0000
0.4828 1.3448 0.0000
0.4828 1.3793 0.0000
0.4828 1.4138 0.0000
0.4828 1.4483 0.0000
0.4828 1.4828 0.0000
0.4828 1.5172 0.0000
0.4828 1.5517 0.0000
0.4828 1.5862 0.0000
0.4828 1.6207 0.0000
0.4828 1.6552 0.0000
0.4828 1.6897 0.0000
0.4828 1.7241 0.0000
0.4828 1.7586 0.0000
0.4828 1.7931 0.0000
0.4828 1.8276 0.0000
0.4828 1.8621 0.0000
0.4828 1.8966 0.0000
0.4828 1.9310 0.0000
0.4828 1.9655 0.0000
0.4828 2.0000 0.0000
0.5517 1.0000 0.0000
0.5517 1.0345 0.0000
0.5517 1.0690 0.0000
0.5517 1.1034 0.0000
0.5517 1.1379 0.0000
0.5517 1.1724 0.0000
0.5517 1.2069 0.0000
0.5517 1.2414 0.0000
0.5517 1.2759 0.0000
0.5517 1.3103 0.0000
0.5517 1.3448 0.0000
0.5517 1.3793 0.0000
0.5517 1.4138 0.0000
0.5517 1.4483 0.0000
0.5517 1.4828 0.0000
0.5517 1.5172 0.0000
0.5517 1.5517 0.0000
0.5517 1.5862 0.0000
0.5517 1.6207 0.0000
0.5517 1.6552 0.0000
0.5517 1.6897 0.0000
0.5517 1.7241 0.0000
0.5517 1.7586 0.0000
0.5517 1.7931 0.0000
0.5517 1.8276 0.0000
0.5517 1.8621 0.0000
0.5517 1.8966 0.0000
0.5517 1.9310 0.0000
0.5517 1.9655 0.0000
0.5517 2.0000 0.0000
0.6207 1.0000 0.0000
0.6207 1.0345 0.0000
0.6207 1.0690 0.0000
0.6207 1.1034 0.0000
0.6207 1.1379 0.0000
0.6207 1.1724 0.0000
0.6207 1.2069 0.0000
0.6207 1.2414 0.0000
0.6207 1.2759 0.0000
0.6207 1.3103 0.0000
0.6207 1.3448 0.0000
0.6207 1.3793 0.0000
0.6207 1.4138 0.0000
0.6207 1.4483 0.0000
0.6207 1.4828 0.0000
0.6207 1.5172 0.0000
0.6207 1.5517 0.0000
0.6207 1.5862 0.0000
0.6207 1.6207 0.0000
0.6207 1.6552 0.0000
0.6207 1.6897 0.0000
0.6207 1.7241 0.0000
0.6207 1.7586 0.0000
0.6207 1.7931 0.0000
0.6207 1.8276 0.0000
0.6207 1.8621 0.0000
0.6207 1.8966 0.0000
0.6207 1.9310 0.0000
0.6207 1.9655 0.0000
0.6207 2.0000 0.0000
0.6897 1.0000 0.0000
0.6897 1.0345 0.0000
0.6897 1.0690 0.0000
0.6897 1.1034 0.0000
0.6897 1.1379 0.0000
0.6897 1.1724 0.0000
0.6897 1.2069 0.0000
0.6897 1.2414 0.0000
0.6897 1.2759 0.0000
0.6897 1.3103 0.0000
0.6897 1.3448 0.0000
0.6897 1.3793 0.0000
0.6897 1.4138 0.0000
0.6897 1.4483 0.0000
0.6897 1.4828 0.0000
0.6897 1.5172 0.0000
0.6897 1.5517 0.0000
0.6897 1.5862 0.0000
0.6897 1.6207 0.0000
0.6897 1.6552 0.0000
0.6897 1.6897 0.0000
0.6897 1.7241 0.0000
0.6897 1.7586 0.0000
0.6897 1.7931 0.0000
0.6897 1.8276 0.0000
0.6897 1.8621 0.0000
0.6897 1.8966 0.0000
0.6897 1.9310 0.0000
0.6897 1.9655 0.0000
0.6897 2.0000 0.0000
0.7586 1.0000 0.0000
0.7586 1.0345 0.0000
0.7586 1.0690 0.0000
0.7586 1.1034 0.0000
0.7586 1.1379 0.0000
0.7586 1.1724 0.0000
0.7586 1.2069 0.0000
0.7586 1.2414 0.0000
0.7586 1.2759 0.0000
0.7586 1.3103 0.0000
0.7586 1.3448 0.0000
0.7586 1.3793 0.0000
0.7586 1.4138 0.0000
0.7586 1.4483 0.0000
0.7586 1.4828 0.0000
0.7586 1.5172 0.0000
0.7586 1.5517 0.0000
0.7586 1.5862 0.0000
0.7586 1.6207 0.0000
0.7586 1.6552 0.0000
0.7586 1.6897 0.0000
0.7586 1.7241 0.0000
0.7586 1.7586 0.0000
0.7586 1.7931 0.0000
0.7586 1.8276 0.0000
0.7586 1.8621 0.0000
0.7586 1.8966 0.0000
0.7586 1.9310 0.0000
0.7586 1.9655 0.0000
0.7586 2.0000 0.0000
0.8276 1.0000 0.0000
0.8276 1.0345 0.0000
0.8276 1.0690 0.0000
0.8276 1.1034 0.0000
0.8276 1.1379 0.0000
0.8276 1.1724 0.0000
0.8276 1.2069 0.0000
0.8276 1.2414 0.0000
0.8276 1.2759 0.0000
0.8276 1.3103 0.0000
0.8276 1.3448 0.0000
0.8276 1.3793 0.0000
0.8276 1.4138 0.0000
0.8276 1.4483 0.0000
0.8276 1.4828 0.0000
0.8276 1.5172 0.0000
0.8276 1.5517 0.0000
0.8276 1.5862 0.0000
0.8276 1.6207 0.0000
0.8276 1.6552 0.0000
0.8276 1.6897 0.0000
0.8276 1.7241 0.0000
0.8276 1.7586 0.0000
0.8276 1.7931 0.0000
0.8276 1.8276 0.0000
0.8276 1.8621 0.0000
0.8276 1.8966 0.0000
0.8276 1.9310 0.0000
0.8276 1.9655 0.0000
0.8276 2.0000 0.0000
0.8966 1.0000 0.0000
0.8966 1.0345 0.0000
0.8966 1.0690 0.0000
0.8966 1.1034 0.0000
0.8966 1.1379 0.0000
0.8966 1.1724 0.0000
0.8966 1.2069 0.0000
0.8966 1.2414 0.0000
0.8966 1.2759 0.0000
0.8966 1.3103 0.0000
0.8966 1.3448 0.0000
0.8966 1.3793 0.0000
0.8966 1.4138 0.0000
0.8966 1.4483 0.0000
0.8966 1.4828 0.0000
0.8966 1.5172 0.0000
0.8966 1.5517 0.0000
0.8966 1.5862 0.0000
0.8966 1.6207 0.0000
0.8966 1.6552 0.0000
0.8966 1.6897 0.0000
0.8966 1.7241 0.0000
0.8966 1.7586 0.0000
0.8966 1.7931 0.0000
0.8966 1.8276 0.0000
0.8966 1.8621 0.0000
0.8966 1.8966 0.0000
0.8966 1.9310 0.0000
0.8966 1.9655 0.0000
0.8966 2.0000 0.0000
0.9655 1.0000 0.0000
0.9655 1.0345 0.0000
0.9655 1.0690 0.0000
0.9655 1.1034 0.0000
0.9655 1.1379 0.0000
0.9655 1.1724 0.0000
0.9655 1.2069 0.0000
0.9655 1.2414 0.0000
0.9655 1.2759 0.0000
0.9655 1.3103 0.0000
0.9655 1.3448 0.0000
0.9655 1.3793 0.0000
0.9655 1.4138 0.0000
0.9655 1.4483 0.0000
0.9655 1.4828 0.0000
0.9655 1.5172 0.0000
0.9655 1.5517 0.0000
0.9655 1.5862 0.0000
0.9655 1.6207 0.0000
0.9655 1.6552 0.0000
0.9655 1.6897 0.0000
0.9655 1.7241 0.0000
0.9655 1.7586 0.0000
0.9655 1.7931 0.0000
0.9655 1.8276 0.0000
0.9655 1.8621 0.0000
0.9655 1.8966 0.0000
0.9655 1.9310 0.0000
0.9655 1.9655 0.0000
0.9655 2.0000 0.0000
1.0345 1.0000 0.0000
1.0345 1.0345 0.0000
1.0345 1.0690 0.0000
1.0345 1.1034 0.0000
1.0345 1.1379 0.0000
1.0345 1.1724 0.0000
1.0345 1.2069 0.0000
1.0345 1.2414 0.0000
1.0345 1.2759 0.0000
1.0345 1.3103 0.0000
1.0345 1.3448 0.0000
[...]
         <PointData>
            <DataArray Name="fValues" NumberOfComponents="3" format="ascii" type="Float64">
 3.26549e-25 -9.00488e-23        00000 
 2.80733e-23 -5.57079e-23        00000 
 2.22088e-23  6.38503e-23        00000 
 1.53470e-22  2.26020e-22        00000 
-1.33253e-22  8.88352e-23        00000 
 9.25416e-22  2.45278e-21        00000 
-1.77670e-22  3.44236e-22        00000 
 4.77154e-22  3.77607e-21        00000 
-1.77670e-22  1.42136e-21        00000 
 2.34643e-21  7.56473e-21        00000 
-5.33011e-22  2.06098e-20        00000 
 7.70143e-22  2.18765e-21        00000 
 3.55341e-22  1.49243e-20        00000 
-1.15247e-21  2.33660e-20        00000 
-7.10681e-22  4.26409e-21        00000 
-3.25915e-21 -3.79491e-21        00000 
-1.06602e-21 -1.06602e-21        00000 
-5.42916e-21 -2.27309e-21        00000 
 2.13204e-21 -8.88352e-21        00000 
-7.58981e-22  1.06034e-21        00000 
 1.06602e-21  7.10681e-22        00000 
 2.70879e-22  6.30704e-21        00000 
 1.06602e-21 -7.46215e-21        00000 
-4.79944e-22  1.22776e-21        00000 
 4.66385e-22 -2.49849e-22        00000 
 3.92764e-22  2.92035e-22        00000 
-1.55462e-22 -6.66264e-23        00000 
 1.29994e-22  1.51311e-22        00000 
-4.23487e-23  7.64069e-23        00000 
-4.10257e-24  7.13319e-23        00000 
 2.59450e-07  6.40517e-09        00000 
 1.61162e-07 -7.93875e-10        00000 
 3.88900e-07  4.52850e-08        00000 
 8.58987e-07  1.37239e-07        00000 
 1.78638e-06  4.20014e-07        00000 
 3.49339e-06  1.19871e-06        00000 
 6.33830e-06  3.05543e-06        00000 
 1.04755e-05  6.88850e-06        00000 
 1.54199e-05  1.36976e-05        00000 
 1.95933e-05  2.39580e-05        00000 
 2.03303e-05  3.66920e-05        00000 
 1.48791e-05  4.88240e-05        00000 
 2.33644e-06  5.56691e-05        00000 
-1.46579e-05  5.29102e-05        00000 
-3.01875e-05  3.92032e-05        00000 
-3.78942e-05  1.76281e-05        00000 
-3.47296e-05 -5.33084e-06        00000 
-2.27982e-05 -2.28760e-05        00000 
-7.83570e-06 -3.11005e-05        00000 
 4.37183e-06 -3.02937e-05        00000 
 1.08615e-05 -2.38146e-05        00000 
 1.19610e-05 -1.57171e-05        00000 
 9.83572e-06 -8.84207e-06        00000 
 6.72723e-06 -4.25260e-06        00000 
 4.00844e-06 -1.73401e-06        00000 
 2.13925e-06 -5.83971e-07        00000 
 1.04175e-06 -1.52030e-07        00000 
 4.66332e-07 -2.20657e-08        00000 
 1.87705e-07  2.32136e-08        00000 
 2.54094e-07  1.17165e-08        00000 
-2.72368e-07 -1.66537e-08        00000 
-1.99683e-07 -1.53098e-08        00000 
-4.07971e-07 -2.96036e-08        00000 
-9.11649e-07 -1.30459e-07        00000 
-1.92772e-06 -5.27877e-07        00000 
-3.87887e-06 -1.77371e-06        00000 
-7.32391e-06 -5.02504e-06        00000 
-1.27077e-05 -1.22306e-05        00000 
-1.97514e-05 -2.58226e-05        00000 
-2.65942e-05 -4.74195e-05        00000 
-2.93698e-05 -7.55611e-05        00000 
-2.33414e-05 -1.03731e-04        00000 
-6.04433e-06 -1.20962e-04        00000 
 1.92508e-05 -1.16424e-04        00000 
 4.31935e-05 -8.61509e-05        00000 
 5.50266e-05 -3.71626e-05        00000 
 4.95309e-05  1.48870e-05        00000 
 3.05264e-05  5.36187e-05        00000 
 7.87639e-06  7.01126e-05        00000 
-9.20141e-06  6.59386e-05        00000 
-1.68952e-05  4.98028e-05        00000 
-1.67890e-05  3.13347e-05        00000 
-1.27766e-05  1.66263e-05        00000 
-8.16341e-06  7.41659e-06        00000 
-4.58161e-06  2.71436e-06        00000 
-2.32775e-06  7.52533e-07        00000 
-1.09356e-06  1.07986e-07        00000 
-4.77180e-07 -3.58022e-08        00000 
-2.19789e-07 -3.50167e-08        00000 
-2.60507e-07 -2.12073e-08        00000 
 2.39931e-07  2.88583e-08        00000 
 1.74486e-07  3.39528e-08        00000 
 3.41330e-07  3.53480e-08        00000 
 7.60437e-07  1.36023e-07        00000 
 1.64721e-06  5.87726e-07        00000 
 3.47712e-06  2.10551e-06        00000 
 7.03396e-06  6.33380e-06        00000 
 1.32630e-05  1.63278e-05        00000 
 2.25620e-05  3.64123e-05        00000 
 3.33195e-05  7.03497e-05        00000 
 4.04368e-05  1.17275e-04        00000 
 3.59706e-05  1.67169e-04        00000 
 1.38949e-05  2.00527e-04        00000 
-2.28069e-05  1.96255e-04        00000 
-5.95467e-05  1.45267e-04        00000 
-7.76787e-05  5.97394e-05        00000 
-6.79547e-05 -3.09643e-05        00000 
-3.76022e-05 -9.61918e-05        00000 
-4.03566e-06 -1.20411e-04        00000 
 1.82290e-05 -1.08550e-04        00000 
 2.53066e-05 -7.81163e-05        00000 
 2.19056e-05 -4.64835e-05        00000 
 1.48162e-05 -2.31419e-05        00000 
 8.46658e-06 -9.58871e-06        00000 
 4.28471e-06 -3.19823e-06        00000 
 1.99479e-06 -7.59350e-07        00000 
 8.80995e-07 -4.68612e-08        00000 
 3.74899e-07  7.11379e-08        00000 
 1.78587e-07  3.79718e-08        00000 
 2.19274e-07  2.28563e-08        00000 
-1.89301e-07 -4.46141e-08        00000 
-1.30791e-07 -5.53649e-08        00000 
-2.44561e-07 -5.50007e-08        00000 
-5.38697e-07 -1.49966e-07        00000 
-1.19808e-06 -5.83293e-07        00000 
-2.71076e-06 -2.11267e-06        00000 
-6.07975e-06 -6.68585e-06        00000 
-1.29362e-05 -1.84083e-05        00000 
-2.49366e-05 -4.40552e-05        00000 
-4.15956e-05 -9.12193e-05        00000 
-5.67934e-05 -1.62012e-04        00000 
-5.74028e-05 -2.43690e-04        00000 
-2.97586e-05 -3.04525e-04        00000 
 2.58991e-05 -3.05530e-04        00000 
 8.60682e-05 -2.26678e-04        00000 
 1.15949e-04 -8.73512e-05        00000 
 9.76612e-05  6.00453e-05        00000 
 4.60285e-05  1.60959e-04        00000 
-5.91479e-06  1.90496e-04        00000 
-3.45794e-05  1.61999e-04        00000 
-3.81674e-05  1.08897e-04        00000 
-2.82946e-05  5.98791e-05        00000 
-1.64757e-05  2.72524e-05        00000 
-8.06181e-06  1.01939e-05        00000 
-3.48836e-06  2.99775e-06        00000 
-1.41010e-06  5.71828e-07        00000 
-5.64863e-07 -2.87524e-08        00000 
-2.32954e-07 -8.57586e-08        00000 
-1.16829e-07 -2.98402e-08        00000 
-1.60400e-07 -1.45192e-08        00000 
 1.29106e-07  6.09498e-08        00000 
 8.08524e-08  7.85591e-08        00000 
 1.38792e-07  8.50022e-08        00000 
 2.92474e-07  1.75496e-07        00000 
 6.66396e-07  5.37171e-07        00000 
 1.68728e-06  1.82507e-06        00000 
 4.47284e-06  5.98211e-06        00000 
 1.13830e-05  1.78188e-05        00000 
 2.59961e-05  4.68768e-05        00000 
 5.06312e-05  1.06876e-04        00000 
 7.97521e-05  2.07567e-04        00000 
 9.30649e-05  3.36998e-04        00000 
 6.13736e-05  4.46566e-04        00000 
-2.54393e-05  4.64676e-04        00000 
-1.29822e-04  3.46876e-04        00000 
-1.82652e-04  1.22565e-04        00000 
-1.46389e-04 -1.14006e-04        00000 
-5.37922e-05 -2.65022e-04        00000 
 2.86526e-05 -2.92198e-04        00000 
 6.29494e-05 -2.29496e-04        00000 
 5.64615e-05 -1.40187e-04        00000 
 3.51078e-05 -6.88355e-05        00000 
 1.69175e-05 -2.74636e-05        00000 
 6.63849e-06 -8.79272e-06        00000 
 2.20482e-06 -2.10312e-06        00000 
 6.62912e-07 -2.46932e-07        00000 
 2.10283e-07  9.12475e-08        00000 
 8.42002e-08  7.51938e-08        00000 
 5.16159e-08  1.05398e-08        00000 
 9.42021e-08 -3.42516e-10        00000 
-6.30797e-08 -7.52419e-08        00000 
-2.98523e-08 -1.00638e-07        00000 
-3.53733e-08 -1.21153e-07        00000 
-5.15627e-08 -2.18063e-07        00000 
-1.19622e-07 -4.99016e-07        00000 
-5.12780e-07 -1.39186e-06        00000 
-2.24007e-06 -4.43899e-06        00000 
-8.11606e-06 -1.43637e-05        00000 
-2.40088e-05 -4.29063e-05        00000 
-5.75487e-05 -1.12028e-04        00000 
-1.08519e-04 -2.47028e-04        00000 
-1.50138e-04 -4.47210e-04        00000 
-1.24160e-04 -6.44758e-04        00000 
 1.14072e-05 -7.08058e-04        00000 
 2.01701e-04 -5.35660e-04        00000 
 3.01781e-04 -1.68866e-04        00000 
 2.25963e-04  2.16525e-04        00000 
 5.23659e-05  4.38612e-04        00000 
-7.82320e-05  4.41766e-04        00000 
-1.09787e-04  3.11058e-04        00000 
-7.93079e-05  1.65810e-04        00000 
-3.97074e-05  6.88488e-05        00000 
-1.46664e-05  2.22962e-05        00000 
-3.85328e-06  5.39117e-06        00000 
-5.05646e-07  7.74681e-07        00000 
 1.42547e-07 -7.28132e-08        00000 
 1.27369e-07 -1.01464e-07        00000 
 5.01632e-08 -3.80957e-08        00000 
 8.99973e-09  1.58211e-08        00000 
-2.48728e-08  1.72743e-08        00000 
-5.90573e-09  8.50978e-08        00000 
-1.96393e-08  1.17652e-07        00000 
-5.94805e-08  1.55967e-07        00000 
-1.63604e-07  2.73564e-07        00000 
-3.78931e-07  5.08790e-07        00000 
-6.56390e-07  1.01607e-06        00000 
-3.81893e-07  2.59638e-06        00000 
 3.04016e-06  8.72593e-06        00000 
 1.70794e-05  3.11313e-05        00000 
 5.68329e-05  9.96490e-05        00000 
 1.36874e-04  2.65341e-04        00000 
 2.34951e-04  5.63748e-04        00000 
 2.47326e-04  9.20573e-04        00000 
 4.51761e-05  1.09777e-03        00000 
-3.16399e-04  8.53671e-04        00000 
-5.19675e-04  2.31250e-04        00000 
-3.52289e-04 -4.19801e-04        00000 
-1.50722e-05 -7.38578e-04        00000 
 1.81800e-04 -6.58923e-04        00000 
 1.80560e-04 -3.96835e-04        00000 
 1.00684e-04 -1.72276e-04        00000 
 3.71417e-05 -5.41214e-05        00000 
 8.25073e-06 -1.13145e-05        00000 
-2.12164e-07 -8.06816e-07        00000 
-1.34390e-06  4.76006e-07        00000 
-8.67243e-07  2.27662e-07        00000 
-4.02294e-07  4.10936e-08        00000 
-1.58872e-07 -1.55946e-08        00000 
-6.20549e-08 -4.15692e-08        00000 
-4.51518e-08 -3.13875e-08        00000 
 7.48800e-08 -8.87915e-08        00000 
 6.62433e-08 -1.26048e-07        00000 
 1.43636e-07 -1.80376e-07        00000 
 3.44307e-07 -3.25641e-07        00000 
 7.86668e-07 -5.66422e-07        00000 
 1.65661e-06 -8.44534e-07        00000 
 2.93837e-06 -1.13682e-06        00000 
 3.15864e-06 -2.65114e-06        00000 
-4.68783e-06 -1.33746e-05        00000 
-4.11521e-05 -6.42551e-05        00000 
-1.47392e-04 -2.36756e-04        00000 
-3.40585e-04 -6.49053e-04        00000 
-4.78885e-04 -1.28716e-03        00000 
-2.25346e-04 -1.75319e-03        00000 
 4.74707e-04 -1.44434e-03        00000 
 9.14047e-04 -3.17252e-04        00000 
 5.26662e-04  8.55110e-04        00000 
-1.35727e-04  1.27752e-03        00000 
-3.84283e-04  9.55736e-04        00000 
-2.67571e-04  4.51696e-04        00000 
-1.04026e-04  1.36756e-04        00000 
-2.11488e-05  2.09031e-05        00000 
 2.28267e-06 -3.13138e-06        00000 
 4.73702e-06 -3.25297e-06        00000 
 2.92040e-06 -1.09796e-06        00000 
 1.39107e-06 -1.45326e-07        00000 
 5.95011e-07  6.55698e-08        00000 
 2.41815e-07  6.60796e-08        00000 
 1.07817e-07  5.86954e-08        00000 
 1.13376e-07  3.90758e-08        00000 
-1.40564e-07  8.55815e-08        00000 
-1.08843e-07  1.23822e-07        00000 
-2.17100e-07  1.87404e-07        00000 
-4.91986e-07  3.53291e-07        00000 
-1.09474e-06  6.28847e-07        00000 
-2.38949e-06  8.73323e-07        00000 
-4.96238e-06  5.00395e-07        00000 
-9.00405e-06 -1.65216e-06        00000 
-1.10187e-05 -4.63893e-06        00000 
 8.63752e-06  1.06390e-05        00000 
 1.06985e-04  1.32338e-04        00000 
 4.14325e-04  6.10653e-04        00000 
 8.59424e-04  1.69834e-03        00000 
 7.51339e-04  2.91109e-03        00000 
-5.54918e-04  2.71317e-03        00000 
-1.51419e-03  4.38493e-04        00000 
-6.21078e-04 -1.90814e-03        00000 
 6.18246e-04 -2.28329e-03        00000 
 7.22480e-04 -1.28735e-03        00000 
 3.18421e-04 -3.89177e-04        00000 
 5.86530e-05 -3.53550e-05        00000 
-8.38128e-06  2.39190e-05        00000 
-1.41967e-05  1.51626e-05        00000 
-8.29644e-06  4.93770e-06        00000 
-3.87628e-06  8.84884e-07        00000 
-1.68009e-06 -8.93342e-08        00000 
-7.18191e-07 -1.61414e-07        00000 
-3.05635e-07 -9.43627e-08        00000 
-1.47040e-07 -6.25731e-08        00000 
-1.76202e-07 -3.92567e-08        00000 
 1.99354e-07 -7.57092e-08        00000 
 1.45788e-07 -1.10717e-07        00000 
 2.79527e-07 -1.74810e-07        00000 
 6.11587e-07 -3.42768e-07        00000 
 1.31938e-06 -6.40799e-07        00000 
 2.86102e-06 -9.57796e-07        00000 
 6.21908e-06 -5.77141e-07        00000 
 1.31516e-05  3.00817e-06        00000 
 2.48219e-05  1.55498e-05        00000 
 3.42925e-05  4.08267e-05        00000 
-1.53943e-05  3.20025e-05        00000 
-2.60614e-04 -2.86956e-04        00000 
-1.31157e-03 -1.88255e-03        00000 
-2.08973e-03 -4.98714e-03        00000 
-3.63067e-04 -6.01075e-03        00000 
 1.66527e-03 -6.08896e-04        00000 
-3.26650e-04  4.88095e-03        00000 
-1.90146e-03  4.15980e-03        00000 
-1.11920e-03  1.39084e-03        00000 
-1.43567e-04  6.08063e-05        00000 
 3.06293e-05 -1.08060e-04        00000 
 4.20394e-05 -5.81099e-05        00000 
 2.23009e-05 -1.83115e-05        00000 
 9.87414e-06 -3.79397e-06        00000 
 4.16684e-06 -2.04310e-07        00000 
 1.79560e-06  2.88607e-07        00000 
 7.96888e-07  1.97592e-07        00000 
 3.54490e-07  9.38648e-08        00000 
 1.77574e-07  5.30794e-08        00000 
 2.28195e-07  3.32987e-08        00000 
-2.46666e-07  6.03518e-08        00000 
-1.73588e-07  8.73517e-08        00000 
-3.27748e-07  1.45029e-07        00000 
-7.02558e-07  2.93977e-07        00000 
-1.47552e-06  5.73066e-07        00000 
-3.12745e-06  9.38537e-07        00000 
-6.79943e-06  8.40602e-07        00000 
-1.50712e-05 -2.22454e-06        00000 
-3.32886e-05 -1.66656e-05        00000 
-6.69897e-05 -6.37709e-05        00000 
-1.16248e-04 -1.71274e-04        00000 
-8.14197e-06 -2.18029e-04        00000 
 2.62351e-04  8.05388e-04        00000 
 5.95650e-03  8.19259e-03        00000 
 5.74061e-03  1.61150e-02        00000 
 6.06091e-03  7.97079e-04        00000 
 5.99359e-03 -1.43280e-02        00000 
 5.74615e-03 -7.11116e-03        00000 
 5.22507e-05 -2.50930e-04        00000 
-1.35973e-04  4.08078e-04        00000 
-1.31750e-04  1.95117e-04        00000 
-5.86826e-05  5.73775e-05        00000 
-2.38028e-05  1.22095e-05        00000 
-9.47601e-06  1.48049e-06        00000 
-3.99529e-06 -2.88517e-07        00000 
-1.78825e-06 -3.15671e-07        00000 
-8.28221e-07 -1.65700e-07        00000 
-3.77994e-07 -7.06999e-08        00000 
-1.88955e-07 -3.08789e-08        00000 
-2.58626e-07 -2.39680e-08        00000 
 2.72729e-07 -4.15338e-08        00000 
 1.82185e-07 -5.25219e-08        00000 
 3.49603e-07 -1.01663e-07        00000 
 7.43803e-07 -2.13812e-07        00000 
 1.53219e-06 -4.26407e-07        00000 
 3.17571e-06 -7.43421e-07        00000 
 6.77665e-06 -8.40092e-07        00000 
 1.51301e-05  1.08960e-06        00000 
 3.50708e-05  1.21010e-05        00000 
 8.42523e-05  5.41937e-05        00000 
 1.88141e-04  1.82151e-04        00000 
 4.71255e-04  4.64989e-04        00000 
 2.44461e-04  5.24695e-04        00000 
 3.42236e-03 -4.04182e-03        00000 
-5.68779e-02 -4.85532e-02        00000 
-4.34823e-02 -5.26320e-04        00000 
-5.84756e-02  4.44638e-02        00000 
 2.85427e-03  2.61905e-03        00000 
 5.54133e-04 -1.26553e-03        00000 
 4.00682e-04 -5.12105e-04        00000 
 1.39275e-04 -1.37123e-04        00000 
 5.02021e-05 -2.86878e-05        00000 
 1.81999e-05 -4.96129e-06        00000 
 7.28922e-06 -5.68324e-07        00000 
 3.18770e-06  4.64969e-08        00000 
 1.48176e-06  6.59893e-08        00000 
 7.03614e-07  3.16780e-08        00000 
 3.27596e-07  8.29615e-09        00000 
 1.41807e-07 -1.93119e-08        00000 
 2.37180e-07  5.85873e-09        00000 
-2.47290e-07  1.29445e-08        00000 
-1.33811e-07 -1.13446e-08        00000 
-3.02422e-07  2.18093e-08        00000 
-6.34849e-07  5.32019e-08        00000 
-1.29369e-06  1.06741e-07        00000 
-2.64184e-06  1.72104e-07        00000 
-5.54580e-06  6.35546e-08        00000 
-1.22602e-05 -1.23918e-06        00000 
-2.92473e-05 -7.85998e-06        00000 
-7.40383e-05 -3.27286e-05        00000 
-2.03142e-04 -9.72062e-05        00000 
-4.90202e-04 -1.91784e-04        00000 
-1.60717e-03  8.01119e-05        00000 
 1.60693e-03  3.73867e-05        00000 
-2.86546e-02  6.33079e-03        00000 
 8.62913e-01 -6.66852e-03        00000 
-1.07797e-02  1.20966e-02        00000 
 2.45567e-05  4.70125e-03        00000 
 6.80101e-06  1.30408e-03        00000 
 4.80043e-06  3.53390e-04        00000 
 1.70934e-06  1.06471e-04        00000 
 6.17634e-07  3.86345e-05        00000 
 2.24364e-07  1.63937e-05        00000 
 8.96231e-08  7.60263e-06        00000 
 3.90845e-08  3.65818e-06        00000 
 1.81295e-08  1.77967e-06        00000 
 8.59968e-09  8.68818e-07        00000 
 4.00402e-09  4.31840e-07        00000 
 1.80285e-09  2.35540e-07        00000 
 1.17408e-08  8.08566e-08        00000 
-1.24279e-08  8.62049e-08        00000 
-1.70800e-09  2.42058e-07        00000 
-3.69474e-09  4.24847e-07        00000 
-7.75309e-09  8.25182e-07        00000 
-1.58054e-08  1.64250e-06        00000 
-3.23057e-08  3.28627e-06        00000 
-6.79153e-08  6.61686e-06        00000 
-1.50435e-07  1.36028e-05        00000 
-3.59215e-07  2.94086e-05        00000 
-9.10461e-07  6.95127e-05        00000 
-2.48210e-06  1.83043e-04        00000 
-6.04161e-06  5.12414e-04        00000 
-1.87068e-05  1.38974e-03        00000 
 1.57527e-05  3.07779e-03        00000 
-2.08933e-04  5.49091e-03        00000 
 1.00883e-02  8.45340e-18        00000 
 1.52846e-17  3.26286e-18        00000 
-9.72667e-19 -2.52695e-19        00000 
 6.70871e-20 -5.34549e-20        00000 
-1.14627e-20 -1.12553e-20        00000 
 2.58668e-21  1.36749e-20        00000 
-5.54556e-22 -3.00509e-21        00000 
 2.08220e-22  1.46343e-21        00000 
-1.76620e-23 -6.61423e-22        00000 
 2.26636e-23 -9.23670e-23        00000 
-1.75980e-23  5.68252e-24        00000 
 9.92774e-24  5.86328e-23        00000 
-3.26549e-24 -3.68957e-23        00000 
-1.29094e-25  1.84583e-23        00000 
 8.86916e-25 -4.87420e-24        00000 
 9.86788e-26  6.61183e-25        00000 
-7.74842e-26 -3.75799e-24        00000 
-2.47964e-24  4.35797e-23        00000 
-3.35223e-24 -1.09042e-23        00000 
 3.69616e-24  1.52510e-22        00000 
-5.18836e-24  1.28805e-22        00000 
 4.52041e-24 -2.28208e-22        00000 
-1.42916e-22  7.86527e-22        00000 
 2.61699e-22  2.81992e-21        00000 
-1.86717e-22 -4.61486e-21        00000 
-3.35728e-21  2.48609e-20        00000 
 3.32675e-20 -3.83377e-20        00000 
-2.38595e-19  1.66157e-19        00000 
 1.22110e-18 -3.06089e-19        00000 
-2.73401e-18  1.17976e-18        00000 
 3.47071e-18 -8.30518e-19        00000 
-2.25372e-18  8.79959e-20        00000 
 8.13824e-19  1.26460e-19        00000 
-1.09476e-19 -1.52983e-20        00000 
 1.39283e-20  9.21551e-22        00000 
-2.21988e-21 -1.80705e-21        00000 
 3.80788e-22  9.37478e-22        00000 
-8.01484e-23 -3.23344e-22        00000 
 1.85147e-23  1.25702e-22        00000 
-8.33818e-25 -2.56234e-23        00000 
 2.73029e-24  1.17863e-24        00000 
-1.76689e-24 -7.65185e-24        00000 
 7.73110e-25  5.39549e-24        00000 
-1.37285e-25 -3.45958e-24        00000 
-4.82822e-26  2.24451e-24        00000 
-6.56906e-26 -2.31646e-25        00000 
-5.36992e-26  1.50894e-24        00000 
-6.96835e-26 -3.18761e-24        00000 
 2.97170e-25  6.42290e-24        00000 
-5.89015e-25 -2.96095e-25        00000 
 4.11258e-24 -3.15960e-23        00000 
-5.39854e-24  1.11124e-22        00000 
 1.61778e-23  6.65345e-23        00000 
 2.22306e-23 -4.57001e-22        00000 
-4.62060e-22  1.62193e-21        00000 
 3.39937e-21 -5.08579e-21        00000 
-1.87618e-20  1.24297e-20        00000 
 8.62307e-20 -3.57988e-20        00000 
-2.29268e-19  8.93783e-20        00000 
 4.15563e-19 -1.43978e-19        00000 
-4.85106e-19  1.22050e-19        00000 
 3.57539e-19 -4.12187e-20        00000 