<?xml version="1.0" encoding="utf-8"?>
<VTKFile byte_order="LittleEndian" type="UnstructuredGrid" version="0.1">
   <UnstructuredGrid>
      <Piece NumberOfCells="3364" NumberOfPoints="1741">
         <Points>
            <DataArray Name="Points" NumberOfComponents="3" format="ascii" type="Float32">
0.0000 1.0000 0.0000
0.0000 1.0345 0.0000
0.0000 1.0690 0.0000
0.0000 1.1034 0.0000
0.0000 1.1379 0.0000
0.0000 1.1724 0.0000
0.0000 1.2069 0.0000
0.0000 1.2414 0.0000
0.0000 1.2759 0.0000
0.0000 1.3103 0.0000
0.0000 1.3448 0.0000
0.0000 1.3793 0.0000
0.0000 1.4138 0.0000
0.0000 1.4483 0.0000
0.0000 1.4828 0.0000
0.0000 1.5172 0.0000
0.0000 1.5517 0.0000
0.0000 1.5862 0.0000
0.0000 1.6207 0.0000
0.0000 1.6552 0.0000
0.0000 1.6897 0.0000
0.0000 1.7241 0.0000
0.0000 1.7586 0.0000
0.0000 1.7931 0.0000
0.0000 1.8276 0.0000
0.0000 1.8621 0.0000
0.0000 1.8966 0.0000
0.0000 1.9310 0.0000
0.0000 1.9655 0.0000
0.0000 2.0000 0.0000
0.0690 1.0000 0.0000
0.0690 1.0345 0.0000
0.0690 1.0690 0.0000
0.0690 1.1034 0.0000
0.0690 1.1379 0.0000
0.0690 1.1724 0.0000
0.0690 1.2069 0.0000
0.0690 1.2414 0.0000
0.0690 1.2759 0.0000
0.0690 1.3103 0.0000
0.0690 1.3448 0.0000
0.0690 1.3793 0.0000
0.0690 1.4138 0.0000
0.0690 1.4483 0.0000
0.0690 1.4828 0.0000
0.0690 1.5172 0.0000
0.0690 1.5517 0.0000
0.0690 1.5862 0.0000
0.0690 1.6207 0.0000
0.0690 1.6552 0.0000
0.0690 1.6897 0.0000
0.0690 1.7241 0.0000
0.0690 1.7586 0.0000
0.0690 1.7931 0.0000
0.0690 1.8276 0.0000
0.0690 1.8621 0.0000
0.0690 1.8966 0.0000
0.0690 1.9310 0.0000
0.0690 1.9655 0.0000
0.0690 2.0000 0.0000
0.1379 1.0000 0.0000
0.1379 1.0345 0.0000
0.1379 1.0690 0.0000
0.1379 1.1034 0.0000
0.1379 1.1379 0.0000
0.1379 1.1724 0.0000
0.1379 1.2069 0.0000
0.1379 1.2414 0.0000
0.1379 1.2759 0.0000
0.1379 1.3103 0.0000
0.1379 1.3448 0.0000
0.1379 1.3793 0.0000
0.1379 1.4138 0.0000
0.1379 1.4483 0.0000
0.1379 1.4828 0.0000
0.1379 1.5172 0.0000
0.1379 1.5517 0.0000
0.1379 1.5862 0.0000
0.1379 1.6207 0.0000
0.1379 1.6552 0.0000
0.1379 1.6897 0.0000
0.1379 1.7241 0.0000
0.1379 1.7586 0.0000
0.1379 1.7931 0.0000
0.1379 1.8276 0.0000
0.1379 1.8621 0.0000
0.1379 1.8966 0.0000
0.1379 1.9310 0.0000
0.1379 1.9655 0.0000
0.1379 2.0000 0.0000
0.2069 1.0000 0.0000
0.2069 1.0345 0.0000
0.2069 1.0690 0.0000
0.2069 1.1034 0.0000
0.2069 1.1379 0.0000
0.2069 1.1724 0.0000
0.2069 1.2069 0.0000
0.2069 1.2414 0.0000
0.2069 1.2759 0.0000
0.2069 1.3103 0.0000
0.2069 1.3448 0.0000
0.2069 1.3793 0.0000
0.2069 1.4138 0.0000
0.2069 1.4483 0.0000
0.2069 1.4828 0.0000
0.2069 1.5172 0.0000
0.2069 1.5517 0.0000
0.2069 1.5862 0.0000
0.2069 1.6207 0.0000
0.2069 1.6552 0.0000
0.2069 1.6897 0.0000
0.2069 1.7241 0.0000
0.2069 1.7586 0.0000
0.2069 1.7931 0.0000
0.2069 1.8276 0.0000
0.2069 1.8621 0.0000
0.2069 1.8966 0.0000
0.2069 1.9310 0.0000
0.2069 1.9655 0.0000
0.2069 2.0000 0.0000
0.2759 1.0000 0.0000
0.2759 1.0345 0.0000
0.2759 1.0690 0.0000
0.2759 1.1034 0.0000
0.2759 1.1379 0.0000
0.2759 1.1724 0.0000
0.2759 1.2069 0.0000
0.2759 1.2414 0.0000
0.2759 1.2759 0.0000
0.2759 1.3103 0.0000
0.2759 1.3448 0.0000
0.2759 1.3793 0.0000
0.2759 1.4138 0.0000
0.2759 1.4483 0.0000
0.2759 1.4828 0.0000
0.2759 1.5172 0.0000
0.2759 1.5517 0.0000
0.2759 1.5862 0.0000
0.2759 1.6207 0.0000
0.2759 1.6552 0.0000
0.2759 1.6897 0.0000
0.2759 1.7241 0.0000
0.2759 1.7586 0.0000
0.2759 1.7931 0.0000
0.2759 1.8276 0.0000
0.2759 1.8621 0.0000
0.2759 1.8966 0.0000
0.2759 1.9310 0.0000
0.2759 1.9655 0.0000
0.2759 2.0000 0.0000
0.3448 1.0000 0.0000
0.3448 1.0345 0.0000
0.3448 1.0690 0.0000
0.3448 1.1034 0.0000
0.3448 1.1379 0.0000
0.3448 1.1724 0.0000
0.3448 1.2069 0.0000
0.3448 1.2414 0.0000
0.3448 1.2759 0.0000
0.3448 1.3103 0.0000
0.3448 1.3448 0.0000
0.3448 1.3793 0.0000
0.3448 1.4138 0.0000
0.3448 1.4483 0.0000
0.3448 1.4828 0.0000
0.3448 1.5172 0.0000
0.3448 1.5517 0.0000
0.3448 1.5862 0.0000
0.3448 1.6207 0.0000
0.3448 1.6552 0.0000
0.3448 1.6897 0.0000
0.3448 1.7241 0.0000
0.3448 1.7586 0.0000
0.3448 1.7931 0.0000
0.3448 1.8276 0.0000
0.3448 1.8621 0.0000
0.3448 1.8966 0.0000
0.3448 1.9310 0.0000
0.3448 1.9655 0.0000
0.3448 2.0000 0.0000
0.4138 1.0000 0.0000
0.4138 1.0345 0.0000
0.4138 1.0690 0.0000
0.4138 1.1034 0.0000
0.4138 1.1379 0.0000
0.4138 1.1724 0.0000
0.4138 1.2069 0.0000
0.4138 1.2414 0.0000
0.4138 1.2759 0.0000
0.4138 1.3103 0.0000
0.4138 1.3448 0.0000
0.4138 1.3793 0.0000
0.4138 1.4138 0.0000
0.4138 1.4483 0.0000
0.4138 1.4828 0.0000
0.4138 1.5172 0.0000
0.4138 1.5517 0.0000
0.4138 1.5862 0.0000
0.4138 1.6207 0.0000
0.4138 1.6552 0.0000
0.4138 1.6897 0.0000
0.4138 1.7241 0.0000
0.4138 1.7586 0.0000
0.4138 1.7931 0.0000
0.4138 1.8276 0.0000
0.4138 1.8621 0.0000
0.4138 1.8966 0.0000
0.4138 1.9310 0.0000
0.4138 1.9655 0.0000
0.4138 2.0000 0.0000
0.4828 1.0000 0.0000
0.4828 1.0345 0.0000
0.4828 1.0690 0.0000
0.4828 1.1034 0.0000
0.4828 1.1379 0.0000
0.4828 1.1724 0.0000
0.4828 1.2069 0.0000
0.4828 1.2414 0.0000
0.4828 1.2759 0.0000
0.4828 1.3103 0.0000
0.4828 1.3448 0.0000
0.4828 1.3793 0.0000
0.4828 1.4138 0.0000
0.4828 1.4483 0.0000
0.4828 1.4828 0.0000
0.4828 1.5172 0.0000
0.4828 1.5517 0.0000
0.4828 1.5862 0.0000
0.4828 1.6207 0.0000
0.4828 1.6552 0.0000
0.4828 1.6897 0.0000
0.4828 1.7241 0.0000
0.4828 1.7586 0.0000
0.4828 1.7931 0.0000
0.4828 1.8276 0.0000
0.4828 1.8621 0.0000
0.4828 1.8966 0.0000
0.4828 1.9310 0.0000
0.4828 1.9655 0.0000
0.4828 2.0000 0.0000
0.5517 1.0000 0.0000
0.5517 1.0345 0.0000
0.5517 1.0690 0.0000
0.5517 1.1034 0.0000
0.5517 1.1379 0.0000
0.5517 1.1724 0.0000
0.5517 1.2069 0.0000
0.5517 1.2414 0.0000
0.5517 1.2759 0.0000
0.5517 1.3103 0.0000
0.5517 1.3448 0.0000
0.5517 1.3793 0.0000
0.5517 1.4138 0.0000
0.5517 1.4483 0.0000
0.5517 1.4828 0.0000
0.5517 1.5172 0.0000
0.5517 1.5517 0.0000
0.5517 1.5862 0.0000
0.5517 1.6207 0.0000
0.5517 1.6552 0.0000
0.5517 1.6897 0.0000
0.5517 1.7241 0.0000
0.5517 1.7586 0.0000
0.5517 1.7931 0.0000
0.5517 1.8276 0.0000
0.5517 1.8621 0.0000
0.5517 1.8966 0.0000
0.5517 1.9310 0.0000
0.5517 1.9655 0.0000
0.5517 2.0000 0.0000
0.6207 1.0000 0.0000
0.6207 1.0345 0.0000
0.6207 1.0690 0.0000
0.6207 1.1034 0.0000
0.6207 1.1379 0.0000
0.6207 1.1724 0.0000
0.6207 1.2069 0.0000
0.6207 1.2414 0.0000
0.6207 1.2759 0.0000
0.6207 1.3103 0.0000
0.6207 1.3448 0.0000
0.6207 1.3793 0.0000
0.6207 1.4138 0.0000
0.6207 1.4483 0.0000
0.6207 1.4828 0.0000
0.6207 1.5172 0.0000
0.6207 1.5517 0.0000
0.6207 1.5862 0.0000
0.6207 1.6207 0.0000
0.6207 1.6552 0.0000
0.6207 1.6897 0.0000
0.6207 1.7241 0.0000
0.6207 1.7586 0.0000
0.6207 1.7931 0.0000
0.6207 1.8276 0.0000
0.6207 1.8621 0.0000
0.6207 1.8966 0.0000
0.6207 1.9310 0.0000
0.6207 1.9655 0.0000
0.6207 2.0000 0.0000
0.6897 1.0000 0.0000
0.6897 1.0345 0.0000
0.6897 1.0690 0.0000
0.6897 1.1034 0.0000
0.6897 1.1379 0.0000
0.6897 1.1724 0.0000
0.6897 1.2069 0.0000
0.6897 1.2414 0.0000
0.6897 1.2759 0.0000
0.6897 1.3103 0.0000
0.6897 1.3448 0.0000
0.6897 1.3793 0.0000
0.6897 1.4138 0.0000
0.6897 1.4483 0.0000
0.6897 1.4828 0.0000
0.6897 1.5172 0.0000
0.6897 1.5517 0.0000
0.6897 1.5862 0.0000
0.6897 1.6207 0.0000
0.6897 1.6552 0.0000
0.6897 1.6897 0.0000
0.6897 1.7241 0.0000
0.6897 1.7586 0.0000
0.6897 1.7931 0.0000
0.6897 1.8276 0.0000
0.6897 1.8621 0.0000
0.6897 1.8966 0.0000
0.6897 1.9310 0.0000
0.6897 1.9655 0.0000
0.6897 2.0000 0.0000
0.7586 1.0000 0.0000
0.7586 1.0345 0.0000
0.7586 1.0690 0.0000
0.7586 1.1034 0.0000
0.7586 1.1379 0.0000
0.7586 1.1724 0.0000
0.7586 1.2069 0.0000
0.7586 1.2414 0.0000
0.7586 1.2759 0.0000
0.7586 1.3103 0.0000
0.7586 1.3448 0.0000
0.7586 1.3793 0.0000
0.7586 1.4138 0.0000
0.7586 1.4483 0.0000
0.7586 1.4828 0.0000
0.7586 1.5172 0.0000
0.7586 1.5517 0.0000
0.7586 1.5862 0.0000
0.7586 1.6207 0.0000
0.7586 1.6552 0.0000
0.7586 1.6897 0.0000
0.7586 1.7241 0.0000
0.7586 1.7586 0.0000
0.7586 1.7931 0.0000
0.7586 1.8276 0.0000
0.7586 1.8621 0.0000
0.7586 1.8966 0.0000
0.7586 1.9310 0.0000
0.7586 1.9655 0.0000
0.7586 2.0000 0.0000
0.8276 1.0000 0.0000
0.8276 1.0345 0.0000
0.8276 1.0690 0.0000
0.8276 1.1034 0.0000
0.8276 1.1379 0.0000
0.8276 1.1724 0.0000
0.8276 1.2069 0.0000
0.8276 1.2414 0.0000
0.8276 1.2759 0.0000
0.8276 1.3103 0.0000
0.8276 1.3448 0.0000
0.8276 1.3793 0.0000
0.8276 1.4138 0.0000
0.8276 1.4483 0.0000
0.8276 1.4828 0.0000
0.8276 1.5172 0.0000
0.8276 1.5517 0.0000
0.8276 1.5862 0.0000
0.8276 1.6207 0.0000
0.8276 1.6552 0.0000
0.8276 1.6897 0.0000
0.8276 1.7241 0.0000
0.8276 1.7586 0.0000
0.8276 1.7931 0.0000
0.8276 1.8276 0.0000
0.8276 1.8621 0.0000
0.8276 1.8966 0.0000
0.8276 1.9310 0.0000
0.8276 1.9655 0.0000
0.8276 2.0000 0.0000
0.8966 1.0000 0.0000
0.8966 1.0345 0.0000
0.8966 1.0690 0.0000
0.8966 1.1034 0.0000
0.8966 1.1379 0.0000
0.8966 1.1724 0.0000
0.8966 1.2069 0.0000
0.8966 1.2414 0.0000
0.8966 1.2759 0.0000
0.8966 1.3103 0.0000
0.8966 1.3448 0.0000
0.8966 1.3793 0.0000
0.8966 1.4138 0.0000
0.8966 1.4483 0.0000
0.8966 1.4828 0.0000
0.8966 1.5172 0.0000
0.8966 1.5517 0.0000
0.8966 1.5862 0.0000
0.8966 1.6207 0.0000
0.8966 1.6552 0.0000
0.8966 1.6897 0.0000
0.8966 1.7241 0.0000
0.8966 1.7586 0.0000
0.8966 1.7931 0.0000
0.8966 1.8276 0.0000
0.8966 1.8621 0.0000
0.8966 1.8966 0.0000
0.8966 1.9310 0.0000
0.8966 1.9655 0.0000
0.8966 2.0000 0.0000
0.9655 1.0000 0.0000
0.9655 1.0345 0.0000
0.9655 1.0690 0.0000
0.9655 1.1034 0.0000
0.9655 1.1379 0.0000
0.9655 1.1724 0.0000
0.9655 1.2069 0.0000
0.9655 1.2414 0.0000
0.9655 1.2759 0.0000
0.9655 1.3103 0.0000
0.9655 1.3448 0.0000
0.9655 1.3793 0.0000
0.9655 1.4138 0.0000
0.9655 1.4483 0.0000
0.9655 1.4828 0.0000
0.9655 1.5172 0.0000
0.9655 1.5517 0.0000
0.9655 1.5862 0.0000
0.9655 1.6207 0.0000
0.9655 1.6552 0.0000
0.9655 1.6897 0.0000
0.9655 1.7241 0.0000
0.9655 1.7586 0.0000
0.9655 1.7931 0.0000
0.9655 1.8276 0.0000
0.9655 1.8621 0.0000
0.9655 1.8966 0.0000
0.9655 1.9310 0.0000
0.9655 1.9655 0.0000
0.9655 2.0000 0.0000
1.0345 1.0000 0.0000
1.0345 1.0345 0.0000
1.0345 1.0690 0.0000
1.0345 1.1034 0.0000
1.0345 1.1379 0.0000
1.0345 1.1724 0.0000
1.0345 1.2069 0.0000
1.0345 1.2414 0.0000
1.0345 1.2759 0.0000
1.0345 1.3103 0.0000
1.0345 1.3448 0.0000
[...]
         <PointData>
            <DataArray Name="fValues" NumberOfComponents="3" format="ascii" type="Float64">
-1.78889e-22 -3.11750e-22        00000 
-2.24586e-22 -2.80733e-22        00000 
 4.44176e-23 -1.15486e-21        00000 
-9.15242e-22 -9.26404e-22        00000 
-3.55341e-22 -1.77670e-21        00000 
-1.35722e-21  6.15571e-22        00000 
-8.88352e-22 -9.06119e-21        00000 
-4.79944e-22 -1.05476e-20        00000 
-2.52625e-22 -2.48738e-21        00000 
 3.35004e-22 -1.61306e-20        00000 
 9.29993e-22 -1.49243e-20        00000 
 4.24137e-22 -1.48866e-21        00000 
 1.77670e-21 -3.19807e-21        00000 
-1.29403e-21 -1.40476e-21        00000 
 2.84273e-21  3.33132e-22        00000 
-1.09383e-21  3.77258e-21        00000 
       00000 -3.02040e-21        00000 
-5.11548e-22  8.22679e-21        00000 
-5.33011e-22  1.77670e-21        00000 
 3.65539e-22  2.62295e-22        00000 
-7.10681e-22  4.21967e-22        00000 
 2.12280e-23  1.33259e-21        00000 
-4.44176e-23  2.88714e-22        00000 
-2.20439e-22  5.72026e-23        00000 
-2.49849e-23  1.28048e-22        00000 
-7.57928e-23  2.83327e-24        00000 
 8.32830e-24  1.52685e-23        00000 
-3.14502e-24 -2.27141e-24        00000 
-2.05618e-24  6.17949e-24        00000 
 4.18648e-24 -4.70087e-24        00000 
-2.98692e-06 -3.36114e-07        00000 
-1.42689e-06 -4.64502e-07        00000 
-2.99285e-06 -1.54205e-06        00000 
-5.33675e-06 -3.36643e-06        00000 
-8.39825e-06 -6.71040e-06        00000 
-1.16631e-05 -1.21552e-05        00000 
-1.39585e-05 -1.97493e-05        00000 
-1.35956e-05 -2.85357e-05        00000 
-9.09545e-06 -3.63250e-05        00000 
-2.90660e-07 -4.01639e-05        00000 
 1.08990e-05 -3.75665e-05        00000 
 2.08336e-05 -2.79556e-05        00000 
 2.58056e-05 -1.33710e-05        00000 
 2.40480e-05  2.18371e-06        00000 
 1.67040e-05  1.45000e-05        00000 
 7.05621e-06  2.09934e-05        00000 
-1.36996e-06  2.15331e-05        00000 
-6.47351e-06  1.79400e-05        00000 
-8.06097e-06  1.27008e-05        00000 
-7.22162e-06  7.79342e-06        00000 
-5.34420e-06  4.18497e-06        00000 
-3.44472e-06  1.97520e-06        00000 
-1.99302e-06  8.20461e-07        00000 
-1.05814e-06  3.00208e-07        00000 
-5.25529e-07  9.76079e-08        00000 
-2.48518e-07  2.95618e-08        00000 
-1.13405e-07  9.85981e-09        00000 
-4.99124e-08  4.33224e-09        00000 
-2.05419e-08  3.29042e-11        00000 
-3.39676e-08  1.24050e-09        00000 
 3.11821e-06  6.95375e-07        00000 
 1.93399e-06  1.12074e-06        00000 
 3.40261e-06  2.54354e-06        00000 
 6.34966e-06  5.87677e-06        00000 
 1.04433e-05  1.23982e-05        00000 
 1.52055e-05  2.35100e-05        00000 
 1.91260e-05  3.96853e-05        00000 
 1.96693e-05  5.91794e-05        00000 
 1.42344e-05  7.72346e-05        00000 
 1.99698e-06  8.69314e-05        00000 
-1.44794e-05  8.20882e-05        00000 
-2.95047e-05  6.09422e-05        00000 
-3.69743e-05  2.81322e-05        00000 
-3.39608e-05 -6.81267e-06        00000 
-2.24765e-05 -3.38935e-05        00000 
-8.01929e-06 -4.72273e-05        00000 
 3.85259e-06 -4.69784e-05        00000 
 1.02703e-05 -3.78570e-05        00000 
 1.15074e-05 -2.57869e-05        00000 
 9.60253e-06 -1.51207e-05        00000 
 6.68707e-06 -7.68941e-06        00000 
 4.08383e-06 -3.39137e-06        00000 
 2.25642e-06 -1.28684e-06        00000 
 1.15595e-06 -4.11470e-07        00000 
 5.60992e-07 -1.05990e-07        00000 
 2.62714e-07 -2.01104e-08        00000 
 1.20019e-07 -2.93668e-09        00000 
 5.29208e-08 -1.61473e-09        00000 
 2.59666e-08 -2.52021e-09        00000 
 3.60489e-08 -3.03426e-09        00000 
-2.71616e-06 -9.53502e-07        00000 
-1.82105e-06 -1.58460e-06        00000 
-3.28038e-06 -3.33339e-06        00000 
-6.45539e-06 -7.86124e-06        00000 
-1.14146e-05 -1.72935e-05        00000 
-1.79445e-05 -3.42037e-05        00000 
-2.44025e-05 -6.00746e-05        00000 
-2.72118e-05 -9.28150e-05        00000 
-2.18733e-05 -1.24754e-04        00000 
-5.93851e-06 -1.43529e-04        00000 
 1.76319e-05 -1.37233e-04        00000 
 4.00516e-05 -1.01749e-04        00000 
 5.11273e-05 -4.51255e-05        00000 
 4.59069e-05  1.50862e-05        00000 
 2.80396e-05  6.05060e-05        00000 
 6.89016e-06  8.09101e-05        00000 
-8.87152e-06  7.76567e-05        00000 
-1.57743e-05  6.01719e-05        00000 
-1.54462e-05  3.92172e-05        00000 
-1.16109e-05  2.18979e-05        00000 
-7.34244e-06  1.05593e-05        00000 
-4.09739e-06  4.39909e-06        00000 
-2.09080e-06  1.56989e-06        00000 
-1.00681e-06  4.68758e-07        00000 
-4.70543e-07  1.10982e-07        00000 
-2.17851e-07  1.86058e-08        00000 
-1.00449e-07  2.57994e-09        00000 
-4.54511e-08  2.76327e-09        00000 
-2.34313e-08  5.32052e-09        00000 
-3.23378e-08  4.87883e-09        00000 
 2.09361e-06  1.14034e-06        00000 
 1.48980e-06  1.85140e-06        00000 
 2.86542e-06  3.74536e-06        00000 
 6.13982e-06  9.02238e-06        00000 
 1.19924e-05  2.07985e-05        00000 
 2.08906e-05  4.34027e-05        00000 
 3.14038e-05  8.04122e-05        00000 
 3.86536e-05  1.30468e-04        00000 
 3.48541e-05  1.82766e-04        00000 
 1.39552e-05  2.16925e-04        00000 
-2.13238e-05  2.11231e-04        00000 
-5.68313e-05  1.56567e-04        00000 
-7.43436e-05  6.57932e-05        00000 
-6.48127e-05 -3.05282e-05        00000 
-3.53458e-05 -1.00479e-04        00000 
-2.99062e-06 -1.27661e-04        00000 
 1.81568e-05 -1.16787e-04        00000 
 2.44970e-05 -8.57387e-05        00000 
 2.08100e-05 -5.25729e-05        00000 
 1.37845e-05 -2.74527e-05        00000 
 7.67890e-06 -1.23330e-05        00000 
 3.77372e-06 -4.78483e-06        00000 
 1.71021e-06 -1.59896e-06        00000 
 7.49720e-07 -4.55775e-07        00000 
 3.32725e-07 -1.09841e-07        00000 
 1.53386e-07 -2.40159e-08        00000 
 7.28276e-08 -7.76131e-09        00000 
 3.43608e-08 -6.36373e-09        00000 
 1.85182e-08 -8.28407e-09        00000 
 2.61589e-08 -6.90201e-09        00000 
-1.37272e-06 -1.25541e-06        00000 
-1.03043e-06 -1.94723e-06        00000 
-2.19095e-06 -3.73193e-06        00000 
-5.32422e-06 -9.12865e-06        00000 
-1.19001e-05 -2.22382e-05        00000 
-2.36346e-05 -4.97740e-05        00000 
-4.01699e-05 -9.91427e-05        00000 
-5.55287e-05 -1.72080e-04        00000 
-5.66715e-05 -2.55308e-04        00000 
-2.98956e-05 -3.16539e-04        00000 
 2.47498e-05 -3.16424e-04        00000 
 8.40555e-05 -2.34952e-04        00000 
 1.13498e-04 -9.19669e-05        00000 
 9.53256e-05  5.93530e-05        00000 
 4.42906e-05  1.63636e-04        00000 
-6.80843e-06  1.95403e-04        00000 
-3.46613e-05  1.67814e-04        00000 
-3.76743e-05  1.14489e-04        00000 
-2.75332e-05  6.45339e-05        00000 
-1.57047e-05  3.07021e-05        00000 
-7.43347e-06  1.25059e-05        00000 
-3.05134e-06  4.41360e-06        00000 
-1.14571e-06  1.37012e-06        00000 
-4.27558e-07  3.86864e-07        00000 
-1.75742e-07  1.08738e-07        00000 
-8.32634e-08  3.64781e-08        00000 
-4.28721e-08  1.70312e-08        00000 
-2.18892e-08  1.13054e-08        00000 
-1.25460e-08  1.11592e-08        00000 
-1.84788e-08  8.72268e-09        00000 
 6.27382e-07  1.31959e-06        00000 
 4.95355e-07  1.92389e-06        00000 
 1.27872e-06  3.36133e-06        00000 
 3.87572e-06  8.13991e-06        00000 
 1.05829e-05  2.10321e-05        00000 
 2.50267e-05  5.14904e-05        00000 
 4.96114e-05  1.13067e-04        00000 
 7.88877e-05  2.15232e-04        00000 
 9.26065e-05  3.45667e-04        00000 
 6.15334e-05  4.55412e-04        00000 
-2.45811e-05  4.72654e-04        00000 
-1.28375e-04  3.52975e-04        00000 
-1.80902e-04  1.26086e-04        00000 
-1.44706e-04 -1.13252e-04        00000 
-5.24994e-05 -2.66684e-04        00000 
 2.93756e-05 -2.95532e-04        00000 
 6.31031e-05 -2.33606e-04        00000 
 5.61866e-05 -1.44276e-04        00000 
 3.46045e-05 -7.23608e-05        00000 
 1.63680e-05 -3.01787e-05        00000 
 6.16208e-06 -1.06914e-05        00000 
 1.85206e-06 -3.32139e-06        00000 
 4.33738e-07 -9.69347e-07        00000 
 7.94894e-08 -3.04815e-07        00000 
 2.03601e-08 -1.18508e-07        00000 
 1.57849e-08 -5.56273e-08        00000 
 1.34240e-08 -2.84649e-08        00000 
 8.99897e-09 -1.64612e-08        00000 
 6.00316e-09 -1.35680e-08        00000 
 9.72401e-09 -1.00938e-08        00000 
 8.54006e-08 -1.35521e-06        00000 
 5.57374e-08 -1.84737e-06        00000 
-2.12467e-07 -2.80388e-06        00000 
-1.78875e-06 -6.30268e-06        00000 
-7.51513e-06 -1.70151e-05        00000 
-2.32998e-05 -4.65851e-05        00000 
-5.68280e-05 -1.16831e-04        00000 
-1.07934e-04 -2.52845e-04        00000 
-1.49856e-04 -4.53679e-04        00000 
-1.24316e-04 -6.51286e-04        00000 
 1.07712e-05 -7.13920e-04        00000 
 2.00664e-04 -5.40169e-04        00000 
 3.00535e-04 -1.71547e-04        00000 
 2.24751e-04  2.15806e-04        00000 
 5.14087e-05  4.39631e-04        00000 
-7.88059e-05  4.44031e-04        00000 
-1.09964e-04  3.13960e-04        00000 
-7.91697e-05  1.68786e-04        00000 
-3.93831e-05  7.14944e-05        00000 
-1.42819e-05  2.44019e-05        00000 
-3.49920e-06  6.91749e-06        00000 
-2.27631e-07  1.79293e-06        00000 
 3.35328e-07  5.56584e-07        00000 
 2.47007e-07  2.58462e-07        00000 
 1.16361e-07  1.44455e-07        00000 
 4.40954e-08  7.79105e-08        00000 
 1.41262e-08  3.92918e-08        00000 
 3.80365e-09  2.06516e-08        00000 
 8.15448e-10  1.51364e-08        00000 
-3.05674e-10  1.08522e-08        00000 
-7.29192e-07  1.36913e-06        00000 
-5.59524e-07  1.76936e-06        00000 
-8.58298e-07  2.27524e-06        00000 
-7.07299e-07  4.17199e-06        00000 
 2.59934e-06  1.08793e-05        00000 
 1.65666e-05  3.40309e-05        00000 
 5.63259e-05  1.03346e-04        00000 
 1.36478e-04  2.69735e-04        00000 
 2.34780e-04  5.68565e-04        00000 
 2.47465e-04  9.25388e-04        00000 
 4.56475e-05  1.10208e-03        00000 
-3.15652e-04  8.57002e-04        00000 
-5.18780e-04  2.33281e-04        00000 
-3.51411e-04 -4.19165e-04        00000 
-1.43596e-05 -7.39192e-04        00000 
 1.82253e-04 -6.60457e-04        00000 
 1.80735e-04 -3.98874e-04        00000 
 1.00628e-04 -1.74426e-04        00000 
 3.69371e-05 -5.60853e-05        00000 
 7.98439e-06 -1.29225e-05        00000 
-4.72998e-07 -2.00837e-06        00000 
-1.56060e-06 -3.52202e-07        00000 
-1.02710e-06 -3.02247e-07        00000 
-5.09681e-07 -2.72750e-07        00000 
-2.25362e-07 -1.79702e-07        00000 
-9.49974e-08 -9.67602e-08        00000 
-3.93887e-08 -4.66441e-08        00000 
-1.61846e-08 -2.29623e-08        00000 
-7.62345e-09 -1.56203e-08        00000 
-9.29189e-09 -1.09147e-08        00000 
 1.29125e-06 -1.34734e-06        00000 
 9.70426e-07 -1.69935e-06        00000 
 1.77136e-06 -1.93108e-06        00000 
 3.15829e-06 -2.43771e-06        00000 
 3.47382e-06 -4.36913e-06        00000 
-4.32061e-06 -1.56290e-05        00000 
-4.07964e-05 -6.70716e-05        00000 
-1.47126e-04 -2.40050e-04        00000 
-3.40484e-04 -6.52620e-04        00000 
-4.79004e-04 -1.29069e-03        00000 
-2.25697e-04 -1.75635e-03        00000 
 4.74165e-04 -1.44679e-03        00000 
 9.13398e-04 -3.18774e-04        00000 
 5.26017e-04  8.54579e-04        00000 
-1.36264e-04  1.27788e-03        00000 
-3.84642e-04  9.56768e-04        00000 
-2.67734e-04  4.53117e-04        00000 
-1.04017e-04  1.38292e-04        00000 
-2.10228e-05  2.23385e-05        00000 
 2.46643e-06 -1.92749e-06        00000 
 4.92891e-06 -2.33008e-06        00000 
 3.08899e-06 -4.44319e-07        00000 
 1.52320e-06  2.85000e-07        00000 
 6.90962e-07  3.28002e-07        00000 
 3.07867e-07  2.06962e-07        00000 
 1.38126e-07  1.05499e-07        00000 
 6.23158e-08  4.86991e-08        00000 
 2.77660e-08  2.30074e-08        00000 
 1.40848e-08  1.49441e-08        00000 
 1.85323e-08  1.02669e-08        00000 
-1.77484e-06  1.26521e-06        00000 
-1.27669e-06  1.60153e-06        00000 
-2.42764e-06  1.77421e-06        00000 
-5.09579e-06  1.54314e-06        00000 
-9.22267e-06 -3.12696e-07        00000 
-1.12796e-05 -2.91949e-06        00000 
 8.38791e-06  1.27502e-05        00000 
 1.06805e-04  1.34774e-04        00000 
 4.14267e-04  6.13264e-04        00000 
 8.59524e-04  1.70091e-03        00000 
 7.51601e-04  2.91337e-03        00000 
-5.54522e-04  2.71495e-03        00000 
-1.51371e-03  4.39608e-04        00000 
-6.20594e-04 -1.90772e-03        00000 
 6.18660e-04 -2.28349e-03        00000 
 7.22769e-04 -1.28803e-03        00000 
 3.18568e-04 -3.90148e-04        00000 
 5.86715e-05 -3.64274e-05        00000 
-8.45649e-06  2.28968e-05        00000 
-1.43239e-05  1.42880e-05        00000 
-8.43870e-06  4.25300e-06        00000 
-4.00847e-06  3.89130e-07        00000 
-1.79003e-06 -4.23308e-07        00000 
-8.04423e-07 -3.70096e-07        00000 
-3.71270e-07 -2.09272e-07        00000 
-1.74905e-07 -1.00945e-07        00000 
-8.25017e-08 -4.53182e-08        00000 
-3.80008e-08 -2.09232e-08        00000 
-1.97923e-08 -1.31463e-08        00000 
-2.68554e-08 -8.94925e-09        00000 
 2.18360e-06 -1.10616e-06        00000 
 1.49224e-06 -1.42393e-06        00000 
 2.83187e-06 -1.66474e-06        00000 
 6.28346e-06 -1.37946e-06        00000 
 1.32983e-05  1.99844e-06        00000 
 2.50067e-05  1.42775e-05        00000 
 3.44685e-05  3.92875e-05        00000 
-1.52725e-05  3.02466e-05        00000 
-2.60585e-04 -2.88823e-04        00000 
-1.31166e-03 -1.88438e-03        00000 
-2.08993e-03 -4.98876e-03        00000 
-3.63357e-04 -6.01200e-03        00000 
 1.66491e-03 -6.09674e-04        00000 
-3.27026e-04  4.88064e-03        00000 
-1.90179e-03  4.15991e-03        00000 
-1.11943e-03  1.39127e-03        00000 
-1.43699e-04  6.14423e-05        00000 
 3.05967e-05 -1.07346e-04        00000 
 4.20826e-05 -5.74176e-05        00000 
 2.23901e-05 -1.77095e-05        00000 
 9.98162e-06 -3.31482e-06        00000 
 4.27230e-06  1.48627e-07        00000 
 1.88829e-06  5.30529e-07        00000 
 8.75026e-07  3.51716e-07        00000 
 4.19908e-07  1.81562e-07        00000 
 2.04294e-07  8.47619e-08        00000 
 9.86117e-08  3.77386e-08        00000 
 4.60442e-08  1.71603e-08        00000 
 2.41419e-08  1.02650e-08        00000 
 3.35905e-08  7.07711e-09        00000 
-2.50203e-06  8.74264e-07        00000 
-1.62428e-06  1.13247e-06        00000 
-3.03954e-06  1.44555e-06        00000 
-6.81263e-06  1.42058e-06        00000 
-1.51675e-05 -1.50499e-06        00000 
-3.34206e-05 -1.57744e-05        00000 
-6.71156e-05 -6.27065e-05        00000 
-1.16331e-04 -1.70070e-04        00000 
-8.15332e-06 -2.16756e-04        00000 
 2.62426e-04  8.06632e-04        00000 
 5.95665e-03  8.19369e-03        00000 
 5.74081e-03  1.61158e-02        00000 
 6.06118e-03  7.97549e-04        00000 
 5.99390e-03 -1.43278e-02        00000 
 5.74642e-03 -7.11122e-03        00000 
 5.24496e-05 -2.51181e-04        00000 
-1.35856e-04  4.07705e-04        00000 
-1.31712e-04  1.94692e-04        00000 
-5.87064e-05  5.69610e-05        00000 
-2.38666e-05  1.18428e-05        00000 
-9.55869e-06  1.18491e-06        00000 
-4.08040e-06 -5.09015e-07        00000 
-1.86647e-06 -4.68538e-07        00000 
-8.97586e-07 -2.64127e-07        00000 
-4.42053e-07 -1.30197e-07        00000 
-2.18625e-07 -6.04351e-08        00000 
-1.06743e-07 -2.71769e-08        00000 
-4.99597e-08 -1.20587e-08        00000 
-2.56725e-08 -6.03212e-09        00000 
-3.73636e-08 -4.87038e-09        00000 
 2.65330e-06 -5.91698e-07        00000 
 1.61085e-06 -7.03385e-07        00000 
 3.04057e-06 -1.04535e-06        00000 
 6.76348e-06 -1.21369e-06        00000 
 1.51934e-05  6.35405e-07        00000 
 3.51663e-05  1.15492e-05        00000 
 8.43441e-05  5.35421e-05        00000 
 1.88199e-04  1.81419e-04        00000 
 4.71255e-04  4.64217e-04        00000 
 2.44392e-04  5.23937e-04        00000 
 3.42222e-03 -4.04250e-03        00000 
-5.68780e-02 -4.85537e-02        00000 
-4.34825e-02 -5.26420e-04        00000 
-5.84758e-02  4.44638e-02        00000 
 2.85407e-03  2.61907e-03        00000 
 5.53987e-04 -1.26544e-03        00000 
 4.00593e-04 -5.11973e-04        00000 
 1.39242e-04 -1.36971e-04        00000 
 5.02141e-05 -2.85384e-05        00000 
 1.82423e-05 -4.82913e-06        00000 
 7.34716e-06 -4.61286e-07        00000 
 3.24932e-06  1.26670e-07        00000 
 1.53994e-06  1.21616e-07        00000 
 7.56493e-07  6.72396e-08        00000 
 3.76745e-07  3.22737e-08        00000 
 1.87494e-07  1.43728e-08        00000 
 9.20267e-08  6.09418e-09        00000 
 4.35257e-08  2.11494e-09        00000 
 1.90695e-08 -2.07846e-09        00000 
 3.39748e-08  1.42046e-09        00000 
-2.35988e-06  2.03758e-07        00000 
-1.12937e-06 -1.98579e-08        00000 
-2.54041e-06  2.60524e-07        00000 
-5.52879e-06  2.03804e-07        00000 
-1.22999e-05 -1.07336e-06        00000 
-2.93111e-05 -7.66110e-06        00000 
-7.41000e-05 -3.24945e-05        00000 
-2.03179e-04 -9.69436e-05        00000 
-4.90198e-04 -1.91506e-04        00000 
-1.60711e-03  8.03915e-05        00000 
 1.60705e-03  3.76573e-05        00000 
-2.86544e-02  6.33095e-03        00000 
 8.62914e-01 -6.66929e-03        00000 
-1.07797e-02  1.20964e-02        00000 
 2.45543e-05  4.70124e-03        00000 
 6.79923e-06  1.30423e-03        00000 
 4.79935e-06  3.53640e-04        00000 
 1.70894e-06  1.06774e-04        00000 
 6.17780e-07  3.89473e-05        00000 
 2.24879e-07  1.66823e-05        00000 
 9.03267e-08  7.84693e-06        00000 
 3.98332e-08  3.84966e-06        00000 
 1.88367e-08  1.91835e-06        00000 
 9.24273e-09  9.58971e-07        00000 
 4.60062e-09  4.78085e-07        00000 
 2.28920e-09  2.37257e-07        00000 
 1.12365e-09  1.17717e-07        00000 
 5.31767e-10  5.96690e-08        00000 
 2.43038e-10  3.34215e-08        00000 
 1.69795e-09  1.17463e-08        00000 
-1.20549e-07  8.42442e-07        00000 
-1.45094e-08  2.26180e-06        00000 
-3.10844e-08  3.75801e-06        00000 
-6.77060e-08  7.04816e-06        00000 
-1.50915e-07  1.40497e-05        00000 
-3.59987e-07  2.99024e-05        00000 
-9.11209e-07  7.00624e-05        00000 
-2.48255e-06  1.83637e-04        00000 
-6.04157e-06  5.13023e-04        00000 
-1.87061e-05  1.39032e-03        00000 
 1.57540e-05  3.07829e-03        00000 
-2.08931e-04  5.49124e-03        00000 
 1.00883e-02  8.06953e-18        00000 
 6.98938e-18 -5.75419e-18        00000 
 9.76694e-19  3.99686e-19        00000 
-1.77461e-19 -4.45386e-21        00000 
 2.77866e-21  2.83658e-20        00000 
 1.93974e-21  1.66338e-21        00000 
-4.96299e-22  4.08469e-21        00000 
 9.47199e-24  7.15191e-22        00000 
 4.22555e-23  6.06360e-22        00000 
-2.01021e-24 -2.36570e-22        00000 
 6.18909e-25  2.32962e-22        00000 
-2.62085e-24 -7.59600e-24        00000 
 5.93052e-24  8.86259e-24        00000 
-4.06246e-24  1.42099e-23        00000 
 1.34450e-24  1.14828e-23        00000 
-3.17693e-25 -1.73725e-24        00000 
 1.42575e-25  8.87881e-25        00000 
-1.95194e-25  1.73506e-25        00000 
-1.45753e-23  1.69140e-23        00000 
 1.32751e-23 -2.05212e-23        00000 
-1.50002e-23  2.67092e-23        00000 
-1.10043e-23  7.94495e-23        00000 
-6.92682e-23 -2.49139e-22        00000 
 3.54213e-22 -1.11631e-21        00000 
-6.45023e-23  2.93451e-21        00000 
-5.02525e-21  4.28057e-21        00000 
 3.90606e-20  1.82746e-20        00000 
-2.13704e-19 -3.67719e-20        00000 
 8.57513e-19  1.21306e-19        00000 
-2.05104e-18  8.29660e-20        00000 
 2.72301e-18 -7.70943e-19        00000 
-2.61101e-18  8.12797e-19        00000 
 4.47347e-19 -2.98193e-19        00000 
-1.51156e-20  4.91108e-20        00000 
-1.68956e-21 -9.25996e-21        00000 