<?xml version="1.0" encoding="utf-8"?>
<VTKFile byte_order="LittleEndian" type="UnstructuredGrid" version="0.1">
   <UnstructuredGrid>
      <Piece NumberOfCells="3364" NumberOfPoints="1741">
         <Points>
            <DataArray Name="Points" NumberOfComponents="3" format="ascii" type="Float32">
0.0000 1.0000 0.0000
0.0000 1.0345 0.0000
0.0000 1.0690 0.0000
0.0000 1.1034 0.0000
0.0000 1.1379 0.0000
0.0000 1.1724 0.0000
0.0000 1.2069 0.0000
0.0000 1.2414 0.0000
0.0000 1.2759 0.0000
0.0000 1.3103 0.0000
0.0000 1.3448 0.0000
0.0000 1.3793 0.0000
0.0000 1.4138 0.0000
0.0000 1.4483 0.0000
0.0000 1.4828 0.0000
0.0000 1.5172 0.0000
0.0000 1.5517 0.0000
0.0000 1.5862 0.0000
0.0000 1.6207 0.0000
0.0000 1.6552 0.0000
0.0000 1.6897 0.0000
0.0000 1.7241 0.0000
0.0000 1.7586 0.0000
0.0000 1.7931 0.0000
0.0000 1.8276 0.0000
0.0000 1.8621 0.0000
0.0000 1.8966 0.0000
0.0000 1.9310 0.0000
0.0000 1.9655 0.0000
0.0000 2.0000 0.0000
0.0690 1.0000 0.0000
0.0690 1.0345 0.0000
0.0690 1.0690 0.0000
0.0690 1.1034 0.0000
0.0690 1.1379 0.0000
0.0690 1.1724 0.0000
0.0690 1.2069 0.0000
0.0690 1.2414 0.0000
0.0690 1.2759 0.0000
0.0690 1.3103 0.0000
0.0690 1.3448 0.0000
0.0690 1.3793 0.0000
0.0690 1.4138 0.0000
0.0690 1.4483 0.0000
0.0690 1.4828 0.0000
0.0690 1.5172 0.0000
0.0690 1.5517 0.0000
0.0690 1.5862 0.0000
0.0690 1.6207 0.0000
0.0690 1.6552 0.0000
0.0690 1.6897 0.0000
0.0690 1.7241 0.0000
0.0690 1.7586 0.0000
0.0690 1.7931 0.0000
0.0690 1.8276 0.0000
0.0690 1.8621 0.0000
0.0690 1.8966 0.0000
0.0690 1.9310 0.0000
0.0690 1.9655 0.0000
0.0690 2.0000 0.0000
0.1379 1.0000 0.0000
0.1379 1.0345 0.0000
0.1379 1.0690 0.0000
0.1379 1.1034 0.0000
0.1379 1.1379 0.0000
0.1379 1.1724 0.0000
0.1379 1.2069 0.0000
0.1379 1.2414 0.0000
0.1379 1.2759 0.0000
0.1379 1.3103 0.0000
0.1379 1.3448 0.0000
0.1379 1.3793 0.0000
0.1379 1.4138 0.0000
0.1379 1.4483 0.0000
0.1379 1.4828 0.0000
0.1379 1.5172 0.0000
0.1379 1.5517 0.0000
0.1379 1.5862 0.0000
0.1379 1.6207 0.0000
0.1379 1.6552 0.0000
0.1379 1.6897 0.0000
0.1379 1.7241 0.0000
0.1379 1.7586 0.0000
0.1379 1.7931 0.0000
0.1379 1.8276 0.0000
0.1379 1.8621 0.0000
0.1379 1.8966 0.0000
0.1379 1.9310 0.0000
0.1379 1.9655 0.0000
0.1379 2.0000 0.0000
0.2069 1.0000 0.0000
0.2069 1.0345 0.0000
0.2069 1.0690 0.0000
0.2069 1.1034 0.0000
0.2069 1.1379 0.0000
0.2069 1.1724 0.0000
0.2069 1.2069 0.0000
0.2069 1.2414 0.0000
0.2069 1.2759 0.0000
0.2069 1.3103 0.0000
0.2069 1.3448 0.0000
0.2069 1.3793 0.0000
0.2069 1.4138 0.0000
0.2069 1.4483 0.0000
0.2069 1.4828 0.0000
0.2069 1.5172 0.0000
0.2069 1.5517 0.0000
0.2069 1.5862 0.0000
0.2069 1.6207 0.0000
0.2069 1.6552 0.0000
0.2069 1.6897 0.0000
0.2069 1.7241 0.0000
0.2069 1.7586 0.0000
0.2069 1.7931 0.0000
0.2069 1.8276 0.0000
0.2069 1.8621 0.0000
0.2069 1.8966 0.0000
0.2069 1.9310 0.0000
0.2069 1.9655 0.0000
0.2069 2.0000 0.0000
0.2759 1.0000 0.0000
0.2759 1.0345 0.0000
0.2759 1.0690 0.0000
0.2759 1.1034 0.0000
0.2759 1.1379 0.0000
0.2759 1.1724 0.0000
0.2759 1.2069 0.0000
0.2759 1.2414 0.0000
0.2759 1.2759 0.0000
0.2759 1.3103 0.0000
0.2759 1.3448 0.0000
0.2759 1.3793 0.0000
0.2759 1.4138 0.0000
0.2759 1.4483 0.0000
0.2759 1.4828 0.0000
0.2759 1.5172 0.0000
0.2759 1.5517 0.0000
0.2759 1.5862 0.0000
0.2759 1.6207 0.0000
0.2759 1.6552 0.0000
0.2759 1.6897 0.0000
0.2759 1.7241 0.0000
0.2759 1.7586 0.0000
0.2759 1.7931 0.0000
0.2759 1.8276 0.0000
0.2759 1.8621 0.0000
0.2759 1.8966 0.0000
0.2759 1.9310 0.0000
0.2759 1.9655 0.0000
0.2759 2.0000 0.0000
0.3448 1.0000 0.0000
0.3448 1.0345 0.0000
0.3448 1.0690 0.0000
0.3448 1.1034 0.0000
0.3448 1.1379 0.0000
0.3448 1.1724 0.0000
0.3448 1.2069 0.0000
0.3448 1.2414 0.0000
0.3448 1.2759 0.0000
0.3448 1.3103 0.0000
0.3448 1.3448 0.0000
0.3448 1.3793 0.0000
0.3448 1.4138 0.0000
0.3448 1.4483 0.0000
0.3448 1.4828 0.0000
0.3448 1.5172 0.0000
0.3448 1.5517 0.0000
0.3448 1.5862 0.0000
0.3448 1.6207 0.0000
0.3448 1.6552 0.0000
0.3448 1.6897 0.0000
0.3448 1.7241 0.0000
0.3448 1.7586 0.0000
0.3448 1.7931 0.0000
0.3448 1.8276 0.0000
0.3448 1.8621 0.0000
0.3448 1.8966 0.0000
0.3448 1.9310 0.0000
0.3448 1.9655 0.0000
0.3448 2.0000 0.0000
0.4138 1.0000 0.0000
0.4138 1.0345 0.0000
0.4138 1.0690 0.0000
0.4138 1.1034 0.0000
0.4138 1.1379 0.0000
0.4138 1.1724 0.0000
0.4138 1.2069 0.0000
0.4138 1.2414 0.0000
0.4138 1.2759 0.0000
0.4138 1.3103 0.0000
0.4138 1.3448 0.0000
0.4138 1.3793 0.0000
0.4138 1.4138 0.0000
0.4138 1.4483 0.0000
0.4138 1.4828 0.0000
0.4138 1.5172 0.0000
0.4138 1.5517 0.0000
0.4138 1.5862 0.0000
0.4138 1.6207 0.0000
0.4138 1.6552 0.0000
0.4138 1.6897 0.0000
0.4138 1.7241 0.0000
0.4138 1.7586 0.0000
0.4138 1.7931 0.0000
0.4138 1.8276 0.0000
0.4138 1.8621 0.0000
0.4138 1.8966 0.0000
0.4138 1.9310 0.0000
0.4138 1.9655 0.0000
0.4138 2.0000 0.0000
0.4828 1.0000 0.0000
0.4828 1.0345 0.0000
0.4828 1.0690 0.0000
0.4828 1.1034 0.0000
0.4828 1.1379 0.0000
0.4828 1.1724 0.0000
0.4828 1.2069 0.0000
0.4828 1.2414 0.0000
0.4828 1.2759 0.0000
0.4828 1.3103 0.0000
0.4828 1.3448 0.0000
0.4828 1.3793 0.0000
0.4828 1.4138 0.0000
0.4828 1.4483 0.0000
0.4828 1.4828 0.0000
0.4828 1.5172 0.0000
0.4828 1.5517 0.0000
0.4828 1.5862 0.0000
0.4828 1.6207 0.0000
0.4828 1.6552 0.0000
0.4828 1.6897 0.0000
0.4828 1.7241 0.0000
0.4828 1.7586 0.0000
0.4828 1.7931 0.0000
0.4828 1.8276 0.0000
0.4828 1.8621 0.0000
0.4828 1.8966 0.0000
0.4828 1.9310 0.0000
0.4828 1.9655 0.0000
0.4828 2.0000 0.0000
0.5517 1.0000 0.0000
0.5517 1.0345 0.0000
0.5517 1.0690 0.0000
0.5517 1.1034 0.0000
0.5517 1.1379 0.0000
0.5517 1.1724 0.0000
0.5517 1.2069 0.0000
0.5517 1.2414 0.0000
0.5517 1.2759 0.0000
0.5517 1.3103 0.0000
0.5517 1.3448 0.0000
0.5517 1.3793 0.0000
0.5517 1.4138 0.0000
0.5517 1.4483 0.0000
0.5517 1.4828 0.0000
0.5517 1.5172 0.0000
0.5517 1.5517 0.0000
0.5517 1.5862 0.0000
0.5517 1.6207 0.0000
0.5517 1.6552 0.0000
0.5517 1.6897 0.0000
0.5517 1.7241 0.0000
0.5517 1.7586 0.0000
0.5517 1.7931 0.0000
0.5517 1.8276 0.0000
0.5517 1.8621 0.0000
0.5517 1.8966 0.0000
0.5517 1.9310 0.0000
0.5517 1.9655 0.0000
0.5517 2.0000 0.0000
0.6207 1.0000 0.0000
0.6207 1.0345 0.0000
0.6207 1.0690 0.0000
0.6207 1.1034 0.0000
0.6207 1.1379 0.0000
0.6207 1.1724 0.0000
0.6207 1.2069 0.0000
0.6207 1.2414 0.0000
0.6207 1.2759 0.0000
0.6207 1.3103 0.0000
0.6207 1.3448 0.0000
0.6207 1.3793 0.0000
0.6207 1.4138 0.0000
0.6207 1.4483 0.0000
0.6207 1.4828 0.0000
0.6207 1.5172 0.0000
0.6207 1.5517 0.0000
0.6207 1.5862 0.0000
0.6207 1.6207 0.0000
0.6207 1.6552 0.0000
0.6207 1.6897 0.0000
0.6207 1.7241 0.0000
0.6207 1.7586 0.0000
0.6207 1.7931 0.0000
0.6207 1.8276 0.0000
0.6207 1.8621 0.0000
0.6207 1.8966 0.0000
0.6207 1.9310 0.0000
0.6207 1.9655 0.0000
0.6207 2.0000 0.0000
0.6897 1.0000 0.0000
0.6897 1.0345 0.0000
0.6897 1.0690 0.0000
0.6897 1.1034 0.0000
0.6897 1.1379 0.0000
0.6897 1.1724 0.0000
0.6897 1.2069 0.0000
0.6897 1.2414 0.0000
0.6897 1.2759 0.0000
0.6897 1.3103 0.0000
0.6897 1.3448 0.0000
0.6897 1.3793 0.0000
0.6897 1.4138 0.0000
0.6897 1.4483 0.0000
0.6897 1.4828 0.0000
0.6897 1.5172 0.0000
0.6897 1.5517 0.0000
0.6897 1.5862 0.0000
0.6897 1.6207 0.0000
0.6897 1.6552 0.0000
0.6897 1.6897 0.0000
0.6897 1.7241 0.0000
0.6897 1.7586 0.0000
0.6897 1.7931 0.0000
0.6897 1.8276 0.0000
0.6897 1.8621 0.0000
0.6897 1.8966 0.0000
0.6897 1.9310 0.0000
0.6897 1.9655 0.0000
0.6897 2.0000 0.0000
0.7586 1.0000 0.0000
0.7586 1.0345 0.0000
0.7586 1.0690 0.0000
0.7586 1.1034 0.0000
0.7586 1.1379 0.0000
0.7586 1.1724 0.0000
0.7586 1.2069 0.0000
0.7586 1.2414 0.0000
0.7586 1.2759 0.0000
0.7586 1.3103 0.0000
0.7586 1.3448 0.0000
0.7586 1.3793 0.0000
0.7586 1.4138 0.0000
0.7586 1.4483 0.0000
0.7586 1.4828 0.0000
0.7586 1.5172 0.0000
0.7586 1.5517 0.0000
0.7586 1.5862 0.0000
0.7586 1.6207 0.0000
0.7586 1.6552 0.0000
0.7586 1.6897 0.0000
0.7586 1.7241 0.0000
0.7586 1.7586 0.0000
0.7586 1.7931 0.0000
0.7586 1.8276 0.0000
0.7586 1.8621 0.0000
0.7586 1.8966 0.0000
0.7586 1.9310 0.0000
0.7586 1.9655 0.0000
0.7586 2.0000 0.0000
0.8276 1.0000 0.0000
0.8276 1.0345 0.0000
0.8276 1.0690 0.0000
0.8276 1.1034 0.0000
0.8276 1.1379 0.0000
0.8276 1.1724 0.0000
0.8276 1.2069 0.0000
0.8276 1.2414 0.0000
0.8276 1.2759 0.0000
0.8276 1.3103 0.0000
0.8276 1.3448 0.0000
0.8276 1.3793 0.0000
0.8276 1.4138 0.0000
0.8276 1.4483 0.0000
0.8276 1.4828 0.0000
0.8276 1.5172 0.0000
0.8276 1.5517 0.0000
0.8276 1.5862 0.0000
0.8276 1.6207 0.0000
0.8276 1.6552 0.0000
0.8276 1.6897 0.0000
0.8276 1.7241 0.0000
0.8276 1.7586 0.0000
0.8276 1.7931 0.0000
0.8276 1.8276 0.0000
0.8276 1.8621 0.0000
0.8276 1.8966 0.0000
0.8276 1.9310 0.0000
0.8276 1.9655 0.0000
0.8276 2.0000 0.0000
0.8966 1.0000 0.0000
0.8966 1.0345 0.0000
0.8966 1.0690 0.0000
0.8966 1.1034 0.0000
0.8966 1.1379 0.0000
0.8966 1.1724 0.0000
0.8966 1.2069 0.0000
0.8966 1.2414 0.0000
0.8966 1.2759 0.0000
0.8966 1.3103 0.0000
0.8966 1.3448 0.0000
0.8966 1.3793 0.0000
0.8966 1.4138 0.0000
0.8966 1.4483 0.0000
0.8966 1.4828 0.0000
0.8966 1.5172 0.0000
0.8966 1.5517 0.0000
0.8966 1.5862 0.0000
0.8966 1.6207 0.0000
0.8966 1.6552 0.0000
0.8966 1.6897 0.0000
0.8966 1.7241 0.0000
0.8966 1.7586 0.0000
0.8966 1.7931 0.0000
0.8966 1.8276 0.0000
0.8966 1.8621 0.0000
0.8966 1.8966 0.0000
0.8966 1.9310 0.0000
0.8966 1.9655 0.0000
0.8966 2.0000 0.0000
0.9655 1.0000 0.0000
0.9655 1.0345 0.0000
0.9655 1.0690 0.0000
0.9655 1.1034 0.0000
0.9655 1.1379 0.0000
0.9655 1.1724 0.0000
0.9655 1.2069 0.0000
0.9655 1.2414 0.0000
0.9655 1.2759 0.0000
0.9655 1.3103 0.0000
0.9655 1.3448 0.0000
0.9655 1.3793 0.0000
0.9655 1.4138 0.0000
0.9655 1.4483 0.0000
0.9655 1.4828 0.0000
0.9655 1.5172 0.0000
0.9655 1.5517 0.0000
0.9655 1.5862 0.0000
0.9655 1.6207 0.0000
0.9655 1.6552 0.0000
0.9655 1.6897 0.0000
0.9655 1.7241 0.0000
0.9655 1.7586 0.0000
0.9655 1.7931 0.0000
0.9655 1.8276 0.0000
0.9655 1.8621 0.0000
0.9655 1.8966 0.0000
0.9655 1.9310 0.0000
0.9655 1.9655 0.0000
0.9655 2.0000 0.0000
1.0345 1.0000 0.0000
1.0345 1.0345 0.0000
1.0345 1.0690 0.0000
1.0345 1.1034 0.0000
1.0345 1.1379 0.0000
1.0345 1.1724 0.0000
1.0345 1.2069 0.0000
1.0345 1.2414 0.0000
1.0345 1.2759 0.0000
1.0345 1.3103 0.0000
1.0345 1.3448 0.0000
[...]
         <PointData>
            <DataArray Name="fValues" NumberOfComponents="3" format="ascii" type="Float64">
 1.64016e-26 -2.45227e-26        00000 
-8.22459e-27  1.91907e-26        00000 
 4.87986e-26 -5.96428e-26        00000 
 5.44995e-26  5.29326e-25        00000 
 4.33765e-26  6.94025e-25        00000 
 3.25094e-25  6.41663e-25        00000 
 3.47012e-25 -2.49415e-25        00000 
 4.06021e-25  3.87151e-24        00000 
-1.73506e-24  1.56156e-24        00000 
 4.70355e-24  9.51529e-24        00000 
 9.36933e-24  1.79579e-23        00000 
-6.97593e-25  5.84234e-24        00000 
 6.66264e-23  5.55220e-23        00000 
 9.23709e-23  1.48499e-22        00000 
 9.99396e-23  8.60591e-23        00000 
 6.03418e-23  3.27084e-22        00000 
 3.55341e-22  1.77670e-22        00000 
 7.26893e-22 -3.15296e-21        00000 
 1.24369e-21 -3.46457e-21        00000 
 1.25009e-21 -8.48273e-22        00000 
 3.55341e-21 -9.94954e-21        00000 
 9.03615e-21  1.65587e-20        00000 
 2.84273e-21  1.84777e-20        00000 
-1.03132e-20  7.05406e-20        00000 
 3.41127e-20  8.52818e-21        00000 
-1.30396e-22  1.13957e-19        00000 
 2.27418e-20  6.82254e-20        00000 
 9.30368e-21  1.03056e-19        00000 
 4.30066e-21  1.43355e-19        00000 
 5.90940e-20 -1.26093e-19        00000 
 2.95649e-10  3.39799e-11        00000 
 1.38471e-10  3.59540e-11        00000 
 3.09376e-10  1.05054e-10        00000 
 6.36767e-10  1.99565e-10        00000 
 1.26544e-09  3.82431e-10        00000 
 2.48501e-09  7.45640e-10        00000 
 4.86219e-09  1.45941e-09        00000 
 9.50322e-09  2.85096e-09        00000 
 1.85791e-08  5.53984e-09        00000 
 3.63834e-08  1.06786e-08        00000 
 7.14935e-08  2.03925e-08        00000 
 1.41228e-07  3.86657e-08        00000 
 2.80786e-07  7.34112e-08        00000 
 5.61521e-07  1.41875e-07        00000 
 1.12561e-06  2.84953e-07        00000 
 2.24649e-06  6.02853e-07        00000 
 4.42154e-06  1.33497e-06        00000 
 8.48659e-06  3.01617e-06        00000 
 1.57020e-05  6.73507e-06        00000 
 2.76975e-05  1.44731e-05        00000 
 4.61091e-05  2.93966e-05        00000 
 7.17736e-05  5.58315e-05        00000 
 1.03544e-04  9.85698e-05        00000 
 1.37161e-04  1.61305e-04        00000 
 1.65012e-04  2.44421e-04        00000 
 1.77649e-04  3.42629e-04        00000 
 1.68145e-04  4.40848e-04        00000 
 1.28375e-04  4.94361e-04        00000 
 2.74484e-05  3.94213e-04        00000 
-1.14929e-03  4.20993e-04        00000 
-3.17363e-10 -7.45393e-11        00000 
-1.88252e-10 -9.69147e-11        00000 
-3.41487e-10 -1.63553e-10        00000 
-7.10150e-10 -3.06093e-10        00000 
-1.41386e-09 -5.89041e-10        00000 
-2.77836e-09 -1.15023e-09        00000 
-5.43932e-09 -2.25365e-09        00000 
-1.06380e-08 -4.40513e-09        00000 
-2.08076e-08 -8.55562e-09        00000 
-4.07435e-08 -1.64493e-08        00000 
-7.99624e-08 -3.12255e-08        00000 
-1.57507e-07 -5.85769e-08        00000 
-3.11749e-07 -1.09497e-07        00000 
-6.20160e-07 -2.07996e-07        00000 
-1.23786e-06 -4.13413e-07        00000 
-2.46829e-06 -8.80683e-07        00000 
-4.88009e-06 -2.00544e-06        00000 
-9.47068e-06 -4.72778e-06        00000 
-1.78308e-05 -1.10706e-05        00000 
-3.21734e-05 -2.49082e-05        00000 
-5.49792e-05 -5.27367e-05        00000 
-8.79868e-05 -1.03865e-04        00000 
-1.30481e-04 -1.89169e-04        00000 
-1.77424e-04 -3.17717e-04        00000 
-2.18763e-04 -4.91384e-04        00000 
-2.41808e-04 -6.98255e-04        00000 
-2.36425e-04 -9.04052e-04        00000 
-1.94235e-04 -1.03871e-03        00000 
 1.11805e-04 -1.03141e-03        00000 
 1.43401e-03 -9.89258e-04        00000 
 2.92168e-10  1.09656e-10        00000 
 1.80061e-10  1.49575e-10        00000 
 3.17311e-10  2.29224e-10        00000 
 6.55251e-10  4.19126e-10        00000 
 1.30663e-09  8.07357e-10        00000 
 2.57006e-09  1.57733e-09        00000 
 5.03646e-09  3.09052e-09        00000 
 9.86079e-09  6.04307e-09        00000 
 1.93044e-08  1.17514e-08        00000 
 3.78008e-08  2.26520e-08        00000 
 7.40556e-08  4.31723e-08        00000 
 1.45220e-07  8.13565e-08        00000 
 2.85276e-07  1.52468e-07        00000 
 5.62086e-07  2.88577e-07        00000 
 1.11205e-06  5.66072e-07        00000 
 2.20879e-06  1.18198e-06        00000 
 4.39073e-06  2.64646e-06        00000 
 8.67113e-06  6.21008e-06        00000 
 1.68160e-05  1.46763e-05        00000 
 3.15614e-05  3.36677e-05        00000 
 5.64430e-05  7.30866e-05        00000 
 9.47410e-05  1.47879e-04        00000 
 1.47200e-04  2.76538e-04        00000 
 2.09007e-04  4.75771e-04        00000 
 2.67946e-04  7.50959e-04        00000 
 3.06476e-04  1.08420e-03        00000 
 3.08270e-04  1.42286e-03        00000 
 2.42020e-04  1.67446e-03        00000 
-1.54974e-04  1.71826e-03        00000 
-1.72513e-03  1.61581e-03        00000 
-2.48024e-10 -1.41413e-10        00000 
-1.54754e-10 -1.93622e-10        00000 
-2.70834e-10 -2.89969e-10        00000 
-5.57656e-10 -5.24840e-10        00000 
-1.11251e-09 -1.00964e-09        00000 
-2.19072e-09 -1.97179e-09        00000 
-4.29890e-09 -3.86164e-09        00000 
-8.42933e-09 -7.55154e-09        00000 
-1.65224e-08 -1.47066e-08        00000 
-3.23584e-08 -2.84570e-08        00000 
-6.32607e-08 -5.46070e-08        00000 
-1.23346e-07 -1.03877e-07        00000 
-2.39837e-07 -1.96500e-07        00000 
-4.65852e-07 -3.73180e-07        00000 
-9.07695e-07 -7.24537e-07        00000 
-1.78481e-06 -1.47249e-06        00000 
-3.55841e-06 -3.18416e-06        00000 
-7.18414e-06 -7.28031e-06        00000 
-1.45321e-05 -1.70898e-05        00000 
-2.88998e-05 -3.96790e-05        00000 
-5.52369e-05 -8.83076e-05        00000 
-9.92650e-05 -1.84385e-04        00000 
-1.64562e-04 -3.56429e-04        00000 
-2.47670e-04 -6.32850e-04        00000 
-3.33690e-04 -1.02707e-03        00000 
-3.97028e-04 -1.51788e-03        00000 
-4.08420e-04 -2.03205e-03        00000 
-3.22194e-04 -2.43368e-03        00000 
 1.83242e-04 -2.52913e-03        00000 
 2.13122e-03 -2.37868e-03        00000 
 1.93242e-10  1.67443e-10        00000 
 1.21161e-10  2.28809e-10        00000 
 2.11798e-10  3.40091e-10        00000 
 4.35659e-10  6.12633e-10        00000 
 8.69695e-10  1.17675e-09        00000 
 1.71501e-09  2.29638e-09        00000 
 3.37143e-09  4.49457e-09        00000 
 6.62332e-09  8.78926e-09        00000 
 1.30019e-08  1.71420e-08        00000 
 2.54682e-08  3.33004e-08        00000 
 4.96658e-08  6.43692e-08        00000 
 9.61697e-08  1.23753e-07        00000 
 1.84560e-07  2.36876e-07        00000 
 3.51371e-07  4.53261e-07        00000 
 6.67874e-07  8.75340e-07        00000 
 1.28486e-06  1.73427e-06        00000 
 2.54785e-06  3.59470e-06        00000 
 5.27166e-06  7.88067e-06        00000 
 1.13026e-05  1.80891e-05        00000 
 2.44243e-05  4.21843e-05        00000 
 5.12742e-05  9.63812e-05        00000 
 1.01109e-04  2.09236e-04        00000 
 1.82467e-04  4.22464e-04        00000 
 2.95532e-04  7.82645e-04        00000 
 4.22906e-04  1.31941e-03        00000 
 5.26750e-04  2.01325e-03        00000 
 5.58531e-04  2.76453e-03        00000 
 4.50299e-04  3.37288e-03        00000 
-2.08771e-04  3.54394e-03        00000 
-2.71388e-03  3.34670e-03        00000 
-1.31135e-10 -1.86539e-10        00000 
-8.24011e-11 -2.54439e-10        00000 
-1.44082e-10 -3.76941e-10        00000 
-2.96466e-10 -6.77241e-10        00000 
-5.92676e-10 -1.29918e-09        00000 
-1.17137e-09 -2.53316e-09        00000 
-2.30893e-09 -4.95517e-09        00000 
-4.54804e-09 -9.69070e-09        00000 
-8.94464e-09 -1.89272e-08        00000 
-1.75191e-08 -3.69049e-08        00000 
-3.40370e-08 -7.18246e-08        00000 
-6.52730e-08 -1.39495e-07        00000 
-1.22951e-07 -2.70267e-07        00000 
-2.26952e-07 -5.22367e-07        00000 
-4.12737e-07 -1.00920e-06        00000 
-7.55577e-07 -1.96274e-06        00000 
-1.45396e-06 -3.90128e-06        00000 
-3.08466e-06 -8.09443e-06        00000 
-7.25510e-06 -1.77834e-05        00000 
-1.79350e-05 -4.09907e-05        00000 
-4.34107e-05 -9.58332e-05        00000 
-9.75491e-05 -2.17944e-04        00000 
-1.96970e-04 -4.65666e-04        00000 
-3.50119e-04 -9.13096e-04        00000 
-5.39564e-04 -1.62000e-03        00000 
-7.10581e-04 -2.57881e-03        00000 
-7.82807e-04 -3.65788e-03        00000 
-6.49609e-04 -4.56405e-03        00000 
 2.31124e-04 -4.85714e-03        00000 
 3.53799e-03 -4.61283e-03        00000 
 6.42191e-11  1.98027e-10        00000 
 4.03683e-11  2.69809e-10        00000 
 7.06762e-11  3.99022e-10        00000 
 1.45809e-10  7.15762e-10        00000 
 2.92747e-10  1.37164e-09        00000 
 5.81900e-10  2.67249e-09        00000 
 1.15437e-09  5.22561e-09        00000 
 2.28719e-09  1.02224e-08        00000 
 4.51390e-09  1.99952e-08        00000 
 8.82884e-09  3.91179e-08        00000 
 1.69898e-08  7.65780e-08        00000 
 3.18501e-08  1.50023e-07        00000 
 5.74131e-08  2.93855e-07        00000 
 9.79221e-08  5.74118e-07        00000 
 1.55609e-07  1.11517e-06        00000 
 2.32106e-07  2.15004e-06        00000 
 3.63749e-07  4.13571e-06        00000 
 8.01833e-07  8.08418e-06        00000 
 2.63706e-06  1.65786e-05        00000 
 9.44188e-06  3.66169e-05        00000 
 3.04925e-05  8.62370e-05        00000 
 8.47555e-05  2.06356e-04        00000 
 2.00893e-04  4.74227e-04        00000 
 4.04081e-04  1.00365e-03        00000 
 6.84806e-04  1.90773e-03        00000 
 9.67416e-04  3.21281e-03        00000 
 1.11742e-03  4.75281e-03        00000 
 9.58345e-04  6.09943e-03        00000 
-2.42856e-04  6.59360e-03        00000 
-4.69547e-03  6.30714e-03        00000 
 5.01196e-12 -2.01540e-10        00000 
 3.22774e-12 -2.74453e-10        00000 
 5.48799e-12 -4.05522e-10        00000 
 1.04941e-11 -7.26697e-10        00000 
 1.86574e-11 -1.39147e-09        00000 
 3.09931e-11 -2.70958e-09        00000 
 4.82319e-11 -5.29725e-09        00000 
 7.22315e-11 -1.03680e-08        00000 
 1.17342e-10 -2.03122e-08        00000 
 2.59786e-10 -3.98573e-08        00000 
 8.11350e-10 -7.83964e-08        00000 
 2.86297e-09 -1.54619e-07        00000 
 9.85263e-09 -3.05483e-07        00000 
 3.17426e-08 -6.02671e-07        00000 
 9.49699e-08 -1.18036e-06        00000 
 2.61634e-07 -2.27784e-06        00000 
 6.48884e-07 -4.30664e-06        00000 
 1.37282e-06 -8.01176e-06        00000 
 2.11830e-06 -1.50757e-05        00000 
 5.19325e-07 -3.03851e-05        00000 
-1.21272e-05 -6.89800e-05        00000 
-5.87247e-05 -1.72342e-04        00000 
-1.83445e-04 -4.34812e-04        00000 
-4.41780e-04 -1.02269e-03        00000 
-8.52010e-04 -2.13958e-03        00000 
-1.32037e-03 -3.89207e-03        00000 
-1.61990e-03 -6.08844e-03        00000 
-1.44066e-03 -8.09926e-03        00000 
 2.30672e-04 -8.92624e-03        00000 
 6.32526e-03 -8.61723e-03        00000 
-7.40039e-11  1.96980e-10        00000 
-4.66862e-11  2.68238e-10        00000 
-8.14411e-11  3.96238e-10        00000 
-1.66468e-10  7.09726e-10        00000 
-3.29734e-10  1.35821e-09        00000 
-6.44079e-10  2.64379e-09        00000 
-1.25298e-09  5.16896e-09        00000 
-2.43885e-09  1.01248e-08        00000 
-4.76586e-09  1.98695e-08        00000 
-9.38014e-09  3.90952e-08        00000 
-1.86480e-08  7.71866e-08        00000 
-3.75282e-08  1.52960e-07        00000 
-7.65713e-08  3.03988e-07        00000 
-1.58628e-07  6.04079e-07        00000 
-3.34098e-07  1.19309e-06        00000 
-7.14805e-07  2.31941e-06        00000 
-1.54046e-06  4.38169e-06        00000 
-3.26413e-06  7.94674e-06        00000 
-6.46531e-06  1.38463e-05        00000 
-1.07653e-05  2.42197e-05        00000 
-1.04381e-05  4.79070e-05        00000 
 1.72023e-05  1.18642e-04        00000 
 1.31162e-04  3.37018e-04        00000 
 4.34220e-04  9.27356e-04        00000 
 1.01494e-03  2.23693e-03        00000 
 1.79142e-03  4.54843e-03        00000 
 2.38480e-03  7.69023e-03        00000 
 2.20758e-03  1.07242e-02        00000 
-1.81216e-04  1.21019e-02        00000 
-8.64649e-03  1.18217e-02        00000 
 1.40210e-10 -1.84511e-10        00000 
 8.83127e-11 -2.51389e-10        00000 
 1.54219e-10 -3.71566e-10        00000 
 3.16128e-10 -6.65655e-10        00000 
 6.28609e-10 -1.27352e-09        00000 
 1.23387e-09 -2.47838e-09        00000 
 2.41331e-09 -4.84677e-09        00000 
 4.71984e-09 -9.50284e-09        00000 
 9.24584e-09 -1.86821e-08        00000 
 1.81605e-08 -3.68516e-08        00000 
 3.57866e-08 -7.29762e-08        00000 
 7.07528e-08 -1.45081e-07        00000 
 1.40313e-07 -2.89304e-07        00000 
 2.79164e-07 -5.77265e-07        00000 
 5.58199e-07 -1.14706e-06        00000 
 1.12638e-06 -2.25024e-06        00000 
 2.30576e-06 -4.29594e-06        00000 
 4.78998e-06 -7.80867e-06        00000 
 9.94160e-06 -1.31290e-05        00000 
 1.97024e-05 -1.99510e-05        00000 
 3.37554e-05 -2.90038e-05        00000 
 3.70532e-05 -5.60369e-05        00000 
-3.32128e-05 -1.83153e-04        00000 
-3.35966e-04 -6.71830e-04        00000 
-1.10341e-03 -2.06804e-03        00000 
-2.37685e-03 -5.01828e-03        00000 
-3.56878e-03 -9.53605e-03        00000 
-3.46378e-03 -1.42054e-02        00000 
 1.17251e-04 -1.64974e-02        00000 
 1.20222e-02 -1.63445e-02        00000 
-2.01145e-10  1.64577e-10        00000 
-1.26407e-10  2.24455e-10        00000 
-2.20896e-10  3.32485e-10        00000 
-4.53605e-10  5.96414e-10        00000 
-9.03590e-10  1.14111e-09        00000 
-1.77713e-09  2.22050e-09        00000 
-3.48300e-09  4.34406e-09        00000 
-6.82334e-09  8.52612e-09        00000 
-1.33748e-08  1.67914e-08        00000 
-2.62397e-08  3.31984e-08        00000 
-5.15173e-08  6.59045e-08        00000 
-1.01168e-07  1.31307e-07        00000 
-1.98561e-07  2.62250e-07        00000 
-3.89254e-07  5.23970e-07        00000 
-7.62512e-07  1.04379e-06        00000 
-1.49690e-06  2.06097e-06        00000 
-2.96490e-06  3.98842e-06        00000 
-5.98450e-06  7.40175e-06        00000 
-1.23904e-05  1.26345e-05        00000 
-2.60164e-05  1.82480e-05        00000 
-5.28680e-05  1.81269e-05        00000 
-9.34788e-05  3.61953e-06        00000 
-1.05448e-04  3.05299e-06        00000 
 9.67390e-05  2.38255e-04        00000 
 9.66417e-04  1.44247e-03        00000 
 2.95926e-03  4.93406e-03        00000 
 5.40409e-03  1.14449e-02        00000 
 5.62363e-03  1.89404e-02        00000 
-2.49839e-04  2.28391e-02        00000 
-1.70648e-02  2.28154e-02        00000 
 2.54238e-10 -1.37957e-10        00000 
 1.59025e-10 -1.88172e-10        00000 
 2.78395e-10 -2.80590e-10        00000 
 5.72906e-10 -5.05176e-10        00000 
 1.14264e-09 -9.66968e-10        00000 
 2.24976e-09 -1.88155e-09        00000 
 4.41418e-09 -3.68246e-09        00000 
 8.65454e-09 -7.23508e-09        00000 
 1.69663e-08 -1.42719e-08        00000 
 3.32536e-08 -2.82738e-08        00000 
 6.51352e-08 -5.62417e-08        00000 
 1.27417e-07 -1.12226e-07        00000 
 2.48727e-07 -2.24267e-07        00000 
 4.84144e-07 -4.47868e-07        00000 
 9.39469e-07 -8.91599e-07        00000 
 1.81961e-06 -1.76362e-06        00000 
 3.53298e-06 -3.44497e-06        00000 
 6.94265e-06 -6.54921e-06        00000 
 1.40162e-05 -1.16955e-05        00000 
 2.94474e-05 -1.79252e-05        00000 
 6.38555e-05 -1.69916e-05        00000 
 1.35655e-04  1.90282e-05        00000 
 2.50269e-04  1.39024e-04        00000 
 2.80419e-04  2.93477e-04        00000 
-3.61472e-04 -1.85371e-04        00000 
-3.07051e-03 -3.53494e-03        00000 
-8.00398e-03 -1.26705e-02        00000 
-9.60103e-03 -2.57864e-02        00000 
 1.51935e-03 -3.34514e-02        00000 
 2.45880e-02 -3.18418e-02        00000 
-2.95807e-10  1.05994e-10        00000 
-1.82699e-10  1.42965e-10        00000 
-3.22284e-10  2.18166e-10        00000 
-6.65582e-10  3.96584e-10        00000 
-1.32852e-09  7.59563e-10        00000 
-2.61724e-09  1.47768e-09        00000 
-5.13850e-09  2.89318e-09        00000 
-1.00789e-08  5.68962e-09        00000 
-1.97570e-08  1.12384e-08        00000 
-3.86923e-08  2.22990e-08        00000 
-7.56609e-08  4.44215e-08        00000 
-1.47626e-07  8.87232e-08        00000 
-2.87210e-07  1.77299e-07        00000 
-5.56846e-07  3.53615e-07        00000 
-1.07562e-06  7.02221e-07        00000 
-2.07100e-06  1.38576e-06        00000 
-3.98302e-06  2.71184e-06        00000 
-7.69517e-06  5.23369e-06        00000 
-1.51178e-05  9.77439e-06        00000 
-3.08191e-05  1.66222e-05        00000 
-6.65251e-05  2.05969e-05        00000 
-1.51392e-04 -8.17088e-06        00000 
-3.42364e-04 -1.73508e-04        00000 
-6.71013e-04 -6.89857e-04        00000 
-7.44797e-04 -1.51175e-03        00000 
 1.37221e-03 -3.85028e-04        00000 
 1.02731e-02  1.05869e-02        00000 
 1.68395e-02  3.65023e-02        00000 
-6.84355e-03  5.98326e-02        00000 
-3.39267e-02  4.09580e-02        00000 
 3.16093e-10 -7.06576e-11        00000 
 1.87268e-10 -8.65231e-11        00000 
 3.40690e-10 -1.46442e-10        00000 
 7.08394e-10 -2.72809e-10        00000 
 1.41308e-09 -5.21929e-10        00000 
 2.78440e-09 -1.01483e-09        00000 
 5.46861e-09 -1.98767e-09        00000 
 1.07285e-08 -3.91175e-09        00000 
 2.10273e-08 -7.73365e-09        00000 
 4.11545e-08 -1.53584e-08        00000 
 8.03810e-08 -3.06144e-08        00000 
 1.56566e-07 -6.11529e-08        00000 
 3.03948e-07 -1.22123e-07        00000 
 5.87905e-07 -2.43147e-07        00000 
 1.13296e-06 -4.81393e-07        00000 
 2.17629e-06 -9.45961e-07        00000 
 4.17214e-06 -1.84392e-06        00000 
 8.00559e-06 -3.56669e-06        00000 
 1.54770e-05 -6.82527e-06        00000 
 3.05769e-05 -1.26170e-05        00000 
 6.33150e-05 -2.02418e-05        00000 
 1.41473e-04 -1.39148e-05        00000 
 3.42327e-04  9.85702e-05        00000 
 8.42860e-04  6.82886e-04        00000 
 1.83749e-03  2.67085e-03        00000 
 2.34540e-03  6.40856e-03        00000 
-3.08471e-03  2.20056e-03        00000 
-2.91792e-02 -5.17668e-02        00000 
 2.79303e-02 -1.68371e-01        00000 
 2.82193e-02 -1.61930e-02        00000 
-2.82054e-10  2.41352e-11        00000 
-1.33240e-10 -1.84467e-12        00000 
-2.93733e-10  3.86659e-11        00000 
-6.05604e-10  7.60842e-11        00000 
-1.20657e-09  1.43440e-10        00000 
-2.37742e-09  2.77740e-10        00000 
-4.67006e-09  5.44200e-10        00000 
-9.16246e-09  1.07444e-09        00000 
-1.79557e-08  2.13722e-09        00000 
-3.51288e-08  4.28269e-09        00000 
-6.85643e-08  8.63417e-09        00000 
-1.33418e-07  1.74668e-08        00000 
-2.58697e-07  3.53248e-08        00000 
-4.99737e-07  7.11189e-08        00000 
-9.61919e-07  1.41953e-07        00000 
-1.84614e-06  2.80015e-07        00000 
-3.53702e-06  5.45293e-07        00000 
-6.77826e-06  1.05136e-06        00000 
-1.30385e-05  2.02319e-06        00000 
-2.53566e-05  3.90581e-06        00000 
-5.06401e-05  7.22513e-06        00000 
-1.07087e-04  8.92044e-06        00000 
-2.49929e-04 -2.72911e-05        00000 
-6.57854e-04 -3.40946e-04        00000 
-1.85799e-03 -2.09575e-03        00000 
-5.14104e-03 -9.04012e-03        00000 
-1.16682e-02 -2.27831e-02        00000 
-2.32221e-02  3.72884e-02        00000 
-4.21922e-03  7.70638e-01        00000 
-3.86087e-03 -2.60353e-01        00000 
-1.44295e-11  1.00911e-10        00000 
-1.71154e-12  2.70942e-10        00000 
-3.58774e-12  4.49681e-10        00000 
-7.39234e-12  8.35957e-10        00000 
-1.47274e-11  1.61277e-09        00000 
-2.90186e-11  3.14844e-09        00000 
-5.70017e-11  6.16862e-09        00000 
-1.11833e-10  1.20982e-08        00000 
-2.19151e-10  2.37271e-08        00000 
-4.28735e-10  4.65015e-08        00000 
-8.36763e-10  9.10103e-08        00000 
-1.62816e-09  1.77751e-07        00000 
-3.15684e-09  3.46219e-07        00000 
-6.09796e-09  6.72183e-07        00000 
-1.17373e-08  1.30052e-06        00000 
-2.25263e-08  2.50775e-06        00000 
-4.31595e-08  4.82200e-06        00000 