<?xml version="1.0" encoding="utf-8"?>
<VTKFile byte_order="LittleEndian" type="UnstructuredGrid" version="0.1">
   <UnstructuredGrid>
      <Piece NumberOfCells="3364" NumberOfPoints="1741">
         <Points>
            <DataArray Name="Points" NumberOfComponents="3" format="ascii" type="Float32">
0.0000 1.0000 0.0000
0.0000 1.0345 0.0000
0.0000 1.0690 0.0000
0.0000 1.1034 0.0000
0.0000 1.1379 0.0000
0.0000 1.1724 0.0000
0.0000 1.2069 0.0000
0.0000 1.2414 0.0000
0.0000 1.2759 0.0000
0.0000 1.3103 0.0000
0.0000 1.3448 0.0000
0.0000 1.3793 0.0000
0.0000 1.4138 0.0000
0.0000 1.4483 0.0000
0.0000 1.4828 0.0000
0.0000 1.5172 0.0000
0.0000 1.5517 0.0000
0.0000 1.5862 0.0000
0.0000 1.6207 0.0000
0.0000 1.6552 0.0000
0.0000 1.6897 0.0000
0.0000 1.7241 0.0000
0.0000 1.7586 0.0000
0.0000 1.7931 0.0000
0.0000 1.8276 0.0000
0.0000 1.8621 0.0000
0.0000 1.8966 0.0000
0.0000 1.9310 0.0000
0.0000 1.9655 0.0000
0.0000 2.0000 0.0000
0.0690 1.0000 0.0000
0.0690 1.0345 0.0000
0.0690 1.0690 0.0000
0.0690 1.1034 0.0000
0.0690 1.1379 0.0000
0.0690 1.1724 0.0000
0.0690 1.2069 0.0000
0.0690 1.2414 0.0000
0.0690 1.2759 0.0000
0.0690 1.3103 0.0000
0.0690 1.3448 0.0000
0.0690 1.3793 0.0000
0.0690 1.4138 0.0000
0.0690 1.4483 0.0000
0.0690 1.4828 0.0000
0.0690 1.5172 0.0000
0.0690 1.5517 0.0000
0.0690 1.5862 0.0000
0.0690 1.6207 0.0000
0.0690 1.6552 0.0000
0.0690 1.6897 0.0000
0.0690 1.7241 0.0000
0.0690 1.7586 0.0000
0.0690 1.7931 0.0000
0.0690 1.8276 0.0000
0.0690 1.8621 0.0000
0.0690 1.8966 0.0000
0.0690 1.9310 0.0000
0.0690 1.9655 0.0000
0.0690 2.0000 0.0000
0.1379 1.0000 0.0000
0.1379 1.0345 0.0000
0.1379 1.0690 0.0000
0.1379 1.1034 0.0000
0.1379 1.1379 0.0000
0.1379 1.1724 0.0000
0.1379 1.2069 0.0000
0.1379 1.2414 0.0000
0.1379 1.2759 0.0000
0.1379 1.3103 0.0000
0.1379 1.3448 0.0000
0.1379 1.3793 0.0000
0.1379 1.4138 0.0000
0.1379 1.4483 0.0000
0.1379 1.4828 0.0000
0.1379 1.5172 0.0000
0.1379 1.5517 0.0000
0.1379 1.5862 0.0000
0.1379 1.6207 0.0000
0.1379 1.6552 0.0000
0.1379 1.6897 0.0000
0.1379 1.7241 0.0000
0.1379 1.7586 0.0000
0.1379 1.7931 0.0000
0.1379 1.8276 0.0000
0.1379 1.8621 0.0000
0.1379 1.8966 0.0000
0.1379 1.9310 0.0000
0.1379 1.9655 0.0000
0.1379 2.0000 0.0000
0.2069 1.0000 0.0000
0.2069 1.0345 0.0000
0.2069 1.0690 0.0000
0.2069 1.1034 0.0000
0.2069 1.1379 0.0000
0.2069 1.1724 0.0000
0.2069 1.2069 0.0000
0.2069 1.2414 0.0000
0.2069 1.2759 0.0000
0.2069 1.3103 0.0000
0.2069 1.3448 0.0000
0.2069 1.3793 0.0000
0.2069 1.4138 0.0000
0.2069 1.4483 0.0000
0.2069 1.4828 0.0000
0.2069 1.5172 0.0000
0.2069 1.5517 0.0000
0.2069 1.5862 0.0000
0.2069 1.6207 0.0000
0.2069 1.6552 0.0000
0.2069 1.6897 0.0000
0.2069 1.7241 0.0000
0.2069 1.7586 0.0000
0.2069 1.7931 0.0000
0.2069 1.8276 0.0000
0.2069 1.8621 0.0000
0.2069 1.8966 0.0000
0.2069 1.9310 0.0000
0.2069 1.9655 0.0000
0.2069 2.0000 0.0000
0.2759 1.0000 0.0000
0.2759 1.0345 0.0000
0.2759 1.0690 0.0000
0.2759 1.1034 0.0000
0.2759 1.1379 0.0000
0.2759 1.1724 0.0000
0.2759 1.2069 0.0000
0.2759 1.2414 0.0000
0.2759 1.2759 0.0000
0.2759 1.3103 0.0000
0.2759 1.3448 0.0000
0.2759 1.3793 0.0000
0.2759 1.4138 0.0000
0.2759 1.4483 0.0000
0.2759 1.4828 0.0000
0.2759 1.5172 0.0000
0.2759 1.5517 0.0000
0.2759 1.5862 0.0000
0.2759 1.6207 0.0000
0.2759 1.6552 0.0000
0.2759 1.6897 0.0000
0.2759 1.7241 0.0000
0.2759 1.7586 0.0000
0.2759 1.7931 0.0000
0.2759 1.8276 0.0000
0.2759 1.8621 0.0000
0.2759 1.8966 0.0000
0.2759 1.9310 0.0000
0.2759 1.9655 0.0000
0.2759 2.0000 0.0000
0.3448 1.0000 0.0000
0.3448 1.0345 0.0000
0.3448 1.0690 0.0000
0.3448 1.1034 0.0000
0.3448 1.1379 0.0000
0.3448 1.1724 0.0000
0.3448 1.2069 0.0000
0.3448 1.2414 0.0000
0.3448 1.2759 0.0000
0.3448 1.3103 0.0000
0.3448 1.3448 0.0000
0.3448 1.3793 0.0000
0.3448 1.4138 0.0000
0.3448 1.4483 0.0000
0.3448 1.4828 0.0000
0.3448 1.5172 0.0000
0.3448 1.5517 0.0000
0.3448 1.5862 0.0000
0.3448 1.6207 0.0000
0.3448 1.6552 0.0000
0.3448 1.6897 0.0000
0.3448 1.7241 0.0000
0.3448 1.7586 0.0000
0.3448 1.7931 0.0000
0.3448 1.8276 0.0000
0.3448 1.8621 0.0000
0.3448 1.8966 0.0000
0.3448 1.9310 0.0000
0.3448 1.9655 0.0000
0.3448 2.0000 0.0000
0.4138 1.0000 0.0000
0.4138 1.0345 0.0000
0.4138 1.0690 0.0000
0.4138 1.1034 0.0000
0.4138 1.1379 0.0000
0.4138 1.1724 0.0000
0.4138 1.2069 0.0000
0.4138 1.2414 0.0000
0.4138 1.2759 0.0000
0.4138 1.3103 0.0000
0.4138 1.3448 0.0000
0.4138 1.3793 0.0000
0.4138 1.4138 0.0000
0.4138 1.4483 0.0000
0.4138 1.4828 0.0000
0.4138 1.5172 0.0000
0.4138 1.5517 0.0000
0.4138 1.5862 0.0000
0.4138 1.6207 0.0000
0.4138 1.6552 0.0000
0.4138 1.6897 0.0000
0.4138 1.7241 0.0000
0.4138 1.7586 0.0000
0.4138 1.7931 0.0000
0.4138 1.8276 0.0000
0.4138 1.8621 0.0000
0.4138 1.8966 0.0000
0.4138 1.9310 0.0000
0.4138 1.9655 0.0000
0.4138 2.0000 0.0000
0.4828 1.0000 0.0000
0.4828 1.0345 0.0000
0.4828 1.0690 0.0000
0.4828 1.1034 0.0000
0.4828 1.1379 0.0000
0.4828 1.1724 0.0000
0.4828 1.2069 0.0000
0.4828 1.2414 0.0000
0.4828 1.2759 0.0000
0.4828 1.3103 0.0000
0.4828 1.3448 0.0000
0.4828 1.3793 0.0000
0.4828 1.4138 0.0000
0.4828 1.4483 0.0000
0.4828 1.4828 0.0000
0.4828 1.5172 0.0000
0.4828 1.5517 0.0000
0.4828 1.5862 0.0000
0.4828 1.6207 0.0000
0.4828 1.6552 0.0000
0.4828 1.6897 0.0000
0.4828 1.7241 0.0000
0.4828 1.7586 0.0000
0.4828 1.7931 0.0000
0.4828 1.8276 0.0000
0.4828 1.8621 0.0000
0.4828 1.8966 0.0000
0.4828 1.9310 0.0000
0.4828 1.9655 0.0000
0.4828 2.0000 0.0000
0.5517 1.0000 0.0000
0.5517 1.0345 0.0000
0.5517 1.0690 0.0000
0.5517 1.1034 0.0000
0.5517 1.1379 0.0000
0.5517 1.1724 0.0000
0.5517 1.2069 0.0000
0.5517 1.2414 0.0000
0.5517 1.2759 0.0000
0.5517 1.3103 0.0000
0.5517 1.3448 0.0000
0.5517 1.3793 0.0000
0.5517 1.4138 0.0000
0.5517 1.4483 0.0000
0.5517 1.4828 0.0000
0.5517 1.5172 0.0000
0.5517 1.5517 0.0000
0.5517 1.5862 0.0000
0.5517 1.6207 0.0000
0.5517 1.6552 0.0000
0.5517 1.6897 0.0000
0.5517 1.7241 0.0000
0.5517 1.7586 0.0000
0.5517 1.7931 0.0000
0.5517 1.8276 0.0000
0.5517 1.8621 0.0000
0.5517 1.8966 0.0000
0.5517 1.9310 0.0000
0.5517 1.9655 0.0000
0.5517 2.0000 0.0000
0.6207 1.0000 0.0000
0.6207 1.0345 0.0000
0.6207 1.0690 0.0000
0.6207 1.1034 0.0000
0.6207 1.1379 0.0000
0.6207 1.1724 0.0000
0.6207 1.2069 0.0000
0.6207 1.2414 0.0000
0.6207 1.2759 0.0000
0.6207 1.3103 0.0000
0.6207 1.3448 0.0000
0.6207 1.3793 0.0000
0.6207 1.4138 0.0000
0.6207 1.4483 0.0000
0.6207 1.4828 0.0000
0.6207 1.5172 0.0000
0.6207 1.5517 0.0000
0.6207 1.5862 0.0000
0.6207 1.6207 0.0000
0.6207 1.6552 0.0000
0.6207 1.6897 0.0000
0.6207 1.7241 0.0000
0.6207 1.7586 0.0000
0.6207 1.7931 0.0000
0.6207 1.8276 0.0000
0.6207 1.8621 0.0000
0.6207 1.8966 0.0000
0.6207 1.9310 0.0000
0.6207 1.9655 0.0000
0.6207 2.0000 0.0000
0.6897 1.0000 0.0000
0.6897 1.0345 0.0000
0.6897 1.0690 0.0000
0.6897 1.1034 0.0000
0.6897 1.1379 0.0000
0.6897 1.1724 0.0000
0.6897 1.2069 0.0000
0.6897 1.2414 0.0000
0.6897 1.2759 0.0000
0.6897 1.3103 0.0000
0.6897 1.3448 0.0000
0.6897 1.3793 0.0000
0.6897 1.4138 0.0000
0.6897 1.4483 0.0000
0.6897 1.4828 0.0000
0.6897 1.5172 0.0000
0.6897 1.5517 0.0000
0.6897 1.5862 0.0000
0.6897 1.6207 0.0000
0.6897 1.6552 0.0000
0.6897 1.6897 0.0000
0.6897 1.7241 0.0000
0.6897 1.7586 0.0000
0.6897 1.7931 0.0000
0.6897 1.8276 0.0000
0.6897 1.8621 0.0000
0.6897 1.8966 0.0000
0.6897 1.9310 0.0000
0.6897 1.9655 0.0000
0.6897 2.0000 0.0000
0.7586 1.0000 0.0000
0.7586 1.0345 0.0000
0.7586 1.0690 0.0000
0.7586 1.1034 0.0000
0.7586 1.1379 0.0000
0.7586 1.1724 0.0000
0.7586 1.2069 0.0000
0.7586 1.2414 0.0000
0.7586 1.2759 0.0000
0.7586 1.3103 0.0000
0.7586 1.3448 0.0000
0.7586 1.3793 0.0000
0.7586 1.4138 0.0000
0.7586 1.4483 0.0000
0.7586 1.4828 0.0000
0.7586 1.5172 0.0000
0.7586 1.5517 0.0000
0.7586 1.5862 0.0000
0.7586 1.6207 0.0000
0.7586 1.6552 0.0000
0.7586 1.6897 0.0000
0.7586 1.7241 0.0000
0.7586 1.7586 0.0000
0.7586 1.7931 0.0000
0.7586 1.8276 0.0000
0.7586 1.8621 0.0000
0.7586 1.8966 0.0000
0.7586 1.9310 0.0000
0.7586 1.9655 0.0000
0.7586 2.0000 0.0000
0.8276 1.0000 0.0000
0.8276 1.0345 0.0000
0.8276 1.0690 0.0000
0.8276 1.1034 0.0000
0.8276 1.1379 0.0000
0.8276 1.1724 0.0000
0.8276 1.2069 0.0000
0.8276 1.2414 0.0000
0.8276 1.2759 0.0000
0.8276 1.3103 0.0000
0.8276 1.3448 0.0000
0.8276 1.3793 0.0000
0.8276 1.4138 0.0000
0.8276 1.4483 0.0000
0.8276 1.4828 0.0000
0.8276 1.5172 0.0000
0.8276 1.5517 0.0000
0.8276 1.5862 0.0000
0.8276 1.6207 0.0000
0.8276 1.6552 0.0000
0.8276 1.6897 0.0000
0.8276 1.7241 0.0000
0.8276 1.7586 0.0000
0.8276 1.7931 0.0000
0.8276 1.8276 0.0000
0.8276 1.8621 0.0000
0.8276 1.8966 0.0000
0.8276 1.9310 0.0000
0.8276 1.9655 0.0000
0.8276 2.0000 0.0000
0.8966 1.0000 0.0000
0.8966 1.0345 0.0000
0.8966 1.0690 0.0000
0.8966 1.1034 0.0000
0.8966 1.1379 0.0000
0.8966 1.1724 0.0000
0.8966 1.2069 0.0000
0.8966 1.2414 0.0000
0.8966 1.2759 0.0000
0.8966 1.3103 0.0000
0.8966 1.3448 0.0000
0.8966 1.3793 0.0000
0.8966 1.4138 0.0000
0.8966 1.4483 0.0000
0.8966 1.4828 0.0000
0.8966 1.5172 0.0000
0.8966 1.5517 0.0000
0.8966 1.5862 0.0000
0.8966 1.6207 0.0000
0.8966 1.6552 0.0000
0.8966 1.6897 0.0000
0.8966 1.7241 0.0000
0.8966 1.7586 0.0000
0.8966 1.7931 0.0000
0.8966 1.8276 0.0000
0.8966 1.8621 0.0000
0.8966 1.8966 0.0000
0.8966 1.9310 0.0000
0.8966 1.9655 0.0000
0.8966 2.0000 0.0000
0.9655 1.0000 0.0000
0.9655 1.0345 0.0000
0.9655 1.0690 0.0000
0.9655 1.1034 0.0000
0.9655 1.1379 0.0000
0.9655 1.1724 0.0000
0.9655 1.2069 0.0000
0.9655 1.2414 0.0000
0.9655 1.2759 0.0000
0.9655 1.3103 0.0000
0.9655 1.3448 0.0000
0.9655 1.3793 0.0000
0.9655 1.4138 0.0000
0.9655 1.4483 0.0000
0.9655 1.4828 0.0000
0.9655 1.5172 0.0000
0.9655 1.5517 0.0000
0.9655 1.5862 0.0000
0.9655 1.6207 0.0000
0.9655 1.6552 0.0000
0.9655 1.6897 0.0000
0.9655 1.7241 0.0000
0.9655 1.7586 0.0000
0.9655 1.7931 0.0000
0.9655 1.8276 0.0000
0.9655 1.8621 0.0000
0.9655 1.8966 0.0000
0.9655 1.9310 0.0000
0.9655 1.9655 0.0000
0.9655 2.0000 0.0000
1.0345 1.0000 0.0000
1.0345 1.0345 0.0000
1.0345 1.0690 0.0000
1.0345 1.1034 0.0000
1.0345 1.1379 0.0000
1.0345 1.1724 0.0000
1.0345 1.2069 0.0000
1.0345 1.2414 0.0000
1.0345 1.2759 0.0000
1.0345 1.3103 0.0000
1.0345 1.3448 0.0000
[...]
         <PointData>
            <DataArray Name="fValues" NumberOfComponents="3" format="ascii" type="Float64">
 2.23612e-23 -1.66320e-23        00000 
 2.80733e-23  2.24586e-23        00000 
-1.11044e-23  2.10984e-22        00000 
 7.39449e-23  8.37112e-23        00000 
       00000  9.32769e-22        00000 
 5.16071e-22  1.88335e-21        00000 
 4.44176e-23 -8.88352e-22        00000 
 4.18556e-24  4.89710e-22        00000 
 5.33011e-22  4.08642e-21        00000 
 4.29170e-22 -2.02018e-21        00000 
-2.66506e-22  2.57622e-21        00000 
 3.46006e-22 -2.45553e-21        00000 
-1.77670e-22  5.86312e-21        00000 
-1.76496e-22  3.87598e-21        00000 
-3.55341e-22  5.33011e-22        00000 
-4.99477e-22 -1.78584e-21        00000 
-1.24369e-21  2.22088e-22        00000 
-7.23852e-22 -8.26265e-22        00000 
-1.77670e-22 -2.66506e-22        00000 
-1.13010e-22 -6.47366e-22        00000 
 1.33253e-22        00000        00000 
-2.10459e-22 -3.32765e-21        00000 
 2.44297e-22 -1.77670e-22        00000 
 2.39972e-22  7.81304e-22        00000 
 1.11044e-22 -4.33071e-22        00000 
 1.89698e-22 -7.43871e-23        00000 
-8.88352e-23        00000        00000 
 4.19337e-23 -1.32091e-22        00000 
 2.79991e-24  6.54479e-23        00000 
-5.94589e-23 -1.08173e-22        00000 
 4.88497e-07  7.29438e-08        00000 
 1.98593e-07  8.64965e-08        00000 
 4.15065e-07  2.30857e-07        00000 
 7.68072e-07  4.51068e-07        00000 
 1.30310e-06  8.66173e-07        00000 
 2.05370e-06  1.61257e-06        00000 
 2.99670e-06  2.84428e-06        00000 
 3.99820e-06  4.69072e-06        00000 
 4.78070e-06  7.16941e-06        00000 
 4.94952e-06  1.00816e-05        00000 
 4.11177e-06  1.29482e-05        00000 
 2.07352e-06  1.50548e-05        00000 
-9.70495e-07  1.56447e-05        00000 
-4.38246e-06  1.42130e-05        00000 
-7.24925e-06  1.07725e-05        00000 
-8.73327e-06  5.93846e-06        00000 
-8.43494e-06  7.55290e-07        00000 
-6.56292e-06 -3.67197e-06        00000 
-3.81502e-06 -6.56278e-06        00000 
-1.04776e-06 -7.68000e-06        00000 
 1.07131e-06 -7.30144e-06        00000 
 2.25441e-06 -6.00171e-06        00000 
 2.57588e-06 -4.38429e-06        00000 
 2.31740e-06 -2.89125e-06        00000 
 1.79315e-06 -1.74123e-06        00000 
 1.23736e-06 -9.69520e-07        00000 
 7.72041e-07 -5.08835e-07        00000 
 4.32399e-07 -2.54612e-07        00000 
 2.09897e-07 -9.16388e-08        00000 
 5.04240e-07 -7.33216e-08        00000 
-5.26074e-07 -1.58237e-07        00000 
-2.80901e-07 -2.16990e-07        00000 
-4.67942e-07 -3.94971e-07        00000 
-8.90723e-07 -7.85300e-07        00000 
-1.54726e-06 -1.55924e-06        00000 
-2.50384e-06 -2.99408e-06        00000 
-3.76190e-06 -5.43728e-06        00000 
-5.17799e-06 -9.21263e-06        00000 
-6.39512e-06 -1.44281e-05        00000 
-6.85017e-06 -2.07255e-05        00000 
-5.92535e-06 -2.70976e-05        00000 
-3.24710e-06 -3.19505e-05        00000 
 9.87587e-07 -3.35235e-05        00000 
 5.87533e-06 -3.05855e-05        00000 
 1.00357e-05 -2.30954e-05        00000 
 1.21685e-05 -1.24377e-05        00000 
 1.16546e-05 -1.02092e-06        00000 
 8.83999e-06  8.60949e-06        00000 
 4.82811e-06  1.46984e-05        00000 
 9.26512e-07  1.67870e-05        00000 
-1.90895e-06  1.56072e-05        00000 
-3.34089e-06  1.25277e-05        00000 
-3.57062e-06  8.91450e-06        00000 
-3.06254e-06  5.70996e-06        00000 
-2.27481e-06  3.32970e-06        00000 
-1.51338e-06  1.78872e-06        00000 
-9.13623e-07  9.00823e-07        00000 
-4.93398e-07  4.37059e-07        00000 
-2.96227e-07  2.25334e-07        00000 
-5.38397e-07  1.56647e-07        00000 
 4.88369e-07  2.31011e-07        00000 
 2.74652e-07  3.26305e-07        00000 
 4.51849e-07  5.50449e-07        00000 
 8.75551e-07  1.08221e-06        00000 
 1.57893e-06  2.17749e-06        00000 
 2.66912e-06  4.26096e-06        00000 
 4.20730e-06  7.91113e-06        00000 
 6.08855e-06  1.37250e-05        00000 
 7.91100e-06  2.20067e-05        00000 
 8.92265e-06  3.23163e-05        00000 
 8.17966e-06  4.30804e-05        00000 
 4.97766e-06  5.16059e-05        00000 
-5.90766e-07  5.47614e-05        00000 
-7.31831e-06  5.02356e-05        00000 
-1.31614e-05  3.78077e-05        00000 
-1.61195e-05  1.98548e-05        00000 
-1.52405e-05  6.43566e-07        00000 
-1.11010e-05 -1.53230e-05        00000 
-5.43856e-06 -2.50321e-05        00000 
-2.12381e-07 -2.78554e-05        00000 
 3.27916e-06 -2.52681e-05        00000 
 4.73737e-06 -1.97626e-05        00000 
 4.62929e-06 -1.36788e-05        00000 
 3.70042e-06 -8.51200e-06        00000 
 2.57894e-06 -4.82121e-06        00000 
 1.61770e-06 -2.51853e-06        00000 
 9.26429e-07 -1.23789e-06        00000 
 4.84256e-07 -5.99840e-07        00000 
 2.89279e-07 -3.31794e-07        00000 
 4.91086e-07 -2.24073e-07        00000 
-4.21467e-07 -2.95917e-07        00000 
-2.42266e-07 -4.15189e-07        00000 
-4.05078e-07 -6.78355e-07        00000 
-8.11225e-07 -1.31833e-06        00000 
-1.53682e-06 -2.67178e-06        00000 
-2.75629e-06 -5.32466e-06        00000 
-4.63181e-06 -1.01396e-05        00000 
-7.15432e-06 -1.81122e-05        00000 
-9.91140e-06 -2.99341e-05        00000 
-1.19059e-05 -4.52535e-05        00000 
-1.16715e-05 -6.19156e-05        00000 
-7.88777e-06 -7.57756e-05        00000 
-3.53635e-07 -8.16654e-05        00000 
 9.30040e-06 -7.55061e-05        00000 
 1.79066e-05 -5.66178e-05        00000 
 2.22115e-05 -2.87655e-05        00000 
 2.06635e-05  9.97375e-07        00000 
 1.42769e-05  2.52413e-05        00000 
 5.94067e-06  3.91943e-05        00000 
-1.27260e-06  4.22067e-05        00000 
-5.57226e-06  3.70752e-05        00000 
-6.84549e-06  2.80201e-05        00000 
-6.07518e-06  1.87003e-05        00000 
-4.46637e-06  1.12089e-05        00000 
-2.87248e-06  6.12166e-06        00000 
-1.66770e-06  3.09632e-06        00000 
-8.90436e-07  1.48758e-06        00000 
-4.40664e-07  7.19825e-07        00000 
-2.52836e-07  4.10683e-07        00000 
-4.10828e-07  2.80129e-07        00000 
 3.39828e-07  3.50155e-07        00000 
 1.97041e-07  4.84890e-07        00000 
 3.37729e-07  7.71630e-07        00000 
 7.07394e-07  1.47657e-06        00000 
 1.42743e-06  3.00102e-06        00000 
 2.75836e-06  6.09226e-06        00000 
 5.01673e-06  1.19527e-05        00000 
 8.38250e-06  2.21472e-05        00000 
 1.25233e-05  3.80631e-05        00000 
 1.61691e-05  5.97782e-05        00000 
 1.70565e-05  8.46485e-05        00000 
 1.27491e-05  1.06593e-04        00000 
 2.33335e-06  1.17296e-04        00000 
-1.20280e-05  1.09644e-04        00000 
-2.52523e-05  8.19082e-05        00000 
-3.18047e-05  3.98812e-05        00000 
-2.90279e-05 -4.95030e-06        00000 
-1.87831e-05 -4.05157e-05        00000 
-6.08393e-06 -5.94661e-05        00000 
 4.08782e-06 -6.15115e-05        00000 
 9.28739e-06 -5.18617e-05        00000 
 9.93817e-06 -3.74903e-05        00000 
 7.98549e-06 -2.38589e-05        00000 
 5.34532e-06 -1.36221e-05        00000 
 3.12661e-06 -7.10341e-06        00000 
 1.64993e-06 -3.45691e-06        00000 
 8.04684e-07 -1.62282e-06        00000 
 3.69051e-07 -7.87694e-07        00000 
 1.99891e-07 -4.63592e-07        00000 
 3.13912e-07 -3.22623e-07        00000 
-2.49605e-07 -3.92892e-07        00000 
-1.44055e-07 -5.36534e-07        00000 
-2.53669e-07 -8.30520e-07        00000 
-5.63378e-07 -1.55338e-06        00000 
-1.23318e-06 -3.14249e-06        00000 
-2.61762e-06 -6.48144e-06        00000 
-5.24441e-06 -1.31445e-05        00000 
-9.62388e-06 -2.54604e-05        00000 
-1.57033e-05 -4.59683e-05        00000 
-2.20228e-05 -7.58118e-05        00000 
-2.51950e-05 -1.12237e-04        00000 
-2.08165e-05 -1.46680e-04        00000 
-6.34352e-06 -1.65888e-04        00000 
 1.55770e-05 -1.57410e-04        00000 
 3.66084e-05 -1.17211e-04        00000 
 4.69693e-05 -5.41162e-05        00000 
 4.19039e-05  1.30462e-05        00000 
 2.49582e-05  6.45457e-05        00000 
 5.15282e-06  8.91675e-05        00000 
-9.26478e-06  8.78993e-05        00000 
-1.51519e-05  7.04115e-05        00000 
-1.42759e-05  4.81013e-05        00000 
-1.03190e-05  2.88045e-05        00000 
-6.21014e-06  1.54587e-05        00000 
-3.24504e-06  7.61305e-06        00000 
-1.51960e-06  3.54603e-06        00000 
-6.57000e-07  1.63290e-06        00000 
-2.70443e-07  8.04868e-07        00000 
-1.35710e-07  4.93755e-07        00000 
-2.08581e-07  3.52346e-07        00000 
 1.55128e-07  4.23986e-07        00000 
 8.69412e-08  5.71606e-07        00000 
 1.57745e-07  8.59894e-07        00000 
 3.82267e-07  1.55807e-06        00000 
 9.40853e-07  3.09879e-06        00000 
 2.26829e-06  6.43985e-06        00000 
 5.14311e-06  1.34968e-05        00000 
 1.05874e-05  2.75250e-05        00000 
 1.91959e-05  5.28151e-05        00000 
 2.96675e-05  9.26779e-05        00000 
 3.72424e-05  1.45276e-04        00000 
 3.41801e-05  1.99198e-04        00000 
 1.43470e-05  2.33493e-04        00000 
-1.97598e-05  2.26121e-04        00000 
-5.42912e-05  1.68054e-04        00000 
-7.12950e-05  7.26879e-05        00000 
-6.18531e-05 -2.85735e-05        00000 
-3.30090e-05 -1.02914e-04        00000 
-1.58821e-06 -1.33258e-04        00000 
 1.85944e-05 -1.24031e-04        00000 
 2.41694e-05 -9.32228e-05        00000 
 2.00295e-05 -5.92809e-05        00000 
 1.28554e-05 -3.28501e-05        00000 
 6.81888e-06 -1.63060e-05        00000 
 3.09289e-06 -7.49655e-06        00000 
 1.23058e-06 -3.33860e-06        00000 
 4.41704e-07 -1.52870e-06        00000 
 1.49621e-07 -7.82205e-07        00000 
 6.53309e-08 -5.06354e-07        00000 
 1.01415e-07 -3.71281e-07        00000 
-5.98379e-08 -4.43207e-07        00000 
-2.91457e-08 -5.91461e-07        00000 
-5.67094e-08 -8.66782e-07        00000 
-1.74848e-07 -1.51058e-06        00000 
-5.54778e-07 -2.90380e-06        00000 
-1.66487e-06 -5.97534e-06        00000 
-4.51960e-06 -1.28431e-05        00000 
-1.08229e-05 -2.77053e-05        00000 
-2.23836e-05 -5.72429e-05        00000 
-3.89325e-05 -1.08663e-04        00000 
-5.45645e-05 -1.83361e-04        00000 
-5.62581e-05 -2.67646e-04        00000 
-3.02429e-05 -3.28863e-04        00000 
 2.35853e-05 -3.27468e-04        00000 
 8.22165e-05 -2.43528e-04        00000 
 1.11303e-04 -9.72577e-05        00000 
 9.31777e-05  5.75990e-05        00000 
 4.25548e-05  1.65067e-04        00000 
-7.90785e-06  1.99202e-04        00000 
-3.50833e-05  1.72942e-04        00000 
-3.75351e-05  1.19951e-04        00000 
-2.70354e-05  6.95733e-05        00000 
-1.50587e-05  3.48810e-05        00000 
-6.80155e-06  1.56825e-05        00000 
-2.52654e-06  6.65763e-06        00000 
-7.58938e-07  2.86393e-06        00000 
-1.69022e-07  1.34610e-06        00000 
-1.73761e-08  7.37341e-07        00000 
 5.20741e-09  5.07016e-07        00000 
 2.32070e-09  3.80984e-07        00000 
-3.36960e-08  4.49932e-07        00000 
-2.64017e-08  5.96591e-07        00000 
-4.19701e-08  8.57305e-07        00000 
-4.10919e-08  1.43543e-06        00000 
 1.03819e-07  2.62040e-06        00000 
 8.13379e-07  5.18423e-06        00000 
 3.22415e-06  1.11719e-05        00000 
 9.75834e-06  2.54249e-05        00000 
 2.41064e-05  5.73739e-05        00000 
 4.87326e-05  1.20427e-04        00000 
 7.82317e-05  2.23814e-04        00000 
 9.23585e-05  3.54939e-04        00000 
 6.18271e-05  4.64600e-04        00000 
-2.37175e-05  4.80869e-04        00000 
-1.27045e-04  3.59394e-04        00000 
-1.79321e-04  1.30143e-04        00000 
-1.43147e-04 -1.11740e-04        00000 
-5.12129e-05 -2.67490e-04        00000 
 3.02293e-05 -2.98105e-04        00000 
 6.34826e-05 -2.37233e-04        00000 
 5.61576e-05 -1.48252e-04        00000 
 3.42971e-05 -7.61272e-05        00000 
 1.59262e-05 -3.33868e-05        00000 
 5.70482e-06 -1.32001e-05        00000 
 1.45465e-06 -5.14808e-06        00000 
 1.28857e-07 -2.22555e-06        00000 
-1.30952e-07 -1.14081e-06        00000 
-1.11100e-07 -6.88645e-07        00000 
-7.00361e-08 -4.99355e-07        00000 
-9.93064e-08 -3.81456e-07        00000 
 1.23677e-07 -4.43292e-07        00000 
 7.78180e-08 -5.86325e-07        00000 
 1.32203e-07 -8.33929e-07        00000 
 2.45519e-07 -1.35229e-06        00000 
 3.61391e-07 -2.32332e-06        00000 
 2.04755e-07 -4.25246e-06        00000 
-1.25382e-06 -8.73973e-06        00000 
-6.87907e-06 -2.05063e-05        00000 
-2.26196e-05 -5.11854e-05        00000 
-5.62016e-05 -1.22494e-04        00000 
-1.07487e-04 -2.59359e-04        00000 
-1.49710e-04 -4.60642e-04        00000 
-1.24557e-04 -6.58140e-04        00000 
 1.01301e-05 -7.20037e-04        00000 
 1.99697e-04 -5.44976e-04        00000 
 2.99390e-04 -1.74649e-04        00000 
 2.23614e-04  2.14540e-04        00000 
 5.04514e-05  4.40054e-04        00000 
-7.94675e-05  4.45769e-04        00000 
-1.10292e-04  3.16520e-04        00000 
-7.92009e-05  1.71670e-04        00000 
-3.92003e-05  7.42923e-05        00000 
-1.39836e-05  2.68428e-05        00000 
-3.17151e-06  8.87467e-06        00000 
 6.98252e-08  3.25646e-06        00000 
 5.71701e-07  1.59226e-06        00000 
 4.13992e-07  9.69707e-07        00000 
 2.21307e-07  6.46899e-07        00000 
 1.25358e-07  4.83101e-07        00000 
 1.88311e-07  3.71013e-07        00000 
-2.08731e-07  4.22638e-07        00000 
-1.24393e-07  5.59336e-07        00000 
-2.10961e-07  7.94654e-07        00000 
-4.23112e-07  1.26739e-06        00000 
-7.84410e-07  2.06879e-06        00000 
-1.23976e-06  3.40324e-06        00000 
-1.15605e-06  6.10143e-06        00000 
 2.10123e-06  1.36217e-05        00000 
 1.60586e-05  3.75967e-05        00000 
 5.58756e-05  1.07677e-04        00000 
 1.36171e-04  2.74658e-04        00000 
 2.34697e-04  5.73781e-04        00000 
 2.47659e-04  9.30492e-04        00000 
 4.61247e-05  1.10663e-03        00000 
-3.14945e-04  8.60593e-04        00000 
-5.17945e-04  2.35640e-04        00000 
-3.50574e-04 -4.18133e-04        00000 
-1.36416e-05 -7.39387e-04        00000 
 1.82768e-04 -6.61624e-04        00000 
 1.81014e-04 -4.00673e-04        00000 
 1.00689e-04 -1.76505e-04        00000 
 3.68347e-05 -5.81462e-05        00000 
 7.78531e-06 -1.47590e-05        00000 
-7.06255e-07 -3.51370e-06        00000 
-1.78150e-06 -1.50435e-06        00000 
-1.20802e-06 -1.13815e-06        00000 
-6.39108e-07 -8.62645e-07        00000 
-3.05605e-07 -6.09274e-07        00000 
-1.70598e-07 -4.54397e-07        00000 
-2.69370e-07 -3.47390e-07        00000 
 2.87483e-07 -3.88028e-07        00000 
 1.66138e-07 -5.14689e-07        00000 
 2.78332e-07 -7.35009e-07        00000 
 5.68314e-07 -1.17195e-06        00000 
 1.12590e-06 -1.86704e-06        00000 
 2.12905e-06 -2.79325e-06        00000 
 3.54554e-06 -3.94047e-06        00000 
 3.87257e-06 -6.49307e-06        00000 
-3.93488e-06 -1.83608e-05        00000 
-4.04685e-05 -7.03526e-05        00000 
-1.46912e-04 -2.43743e-04        00000 
-3.40438e-04 -6.56503e-04        00000 
-4.79160e-04 -1.29447e-03        00000 
-2.26053e-04 -1.75971e-03        00000 
 4.73645e-04 -1.44945e-03        00000 
 9.12783e-04 -3.20546e-04        00000 
 5.25393e-04  8.53760e-04        00000 
-1.36810e-04  1.27795e-03        00000 
-3.85047e-04  9.57545e-04        00000 
-2.67969e-04  4.54369e-04        00000 
-1.04092e-04  1.39774e-04        00000 
-2.09715e-05  2.38358e-05        00000 
 2.59760e-06 -5.68165e-07        00000 
 5.09442e-06 -1.19443e-06        00000 
 3.25250e-06  4.42514e-07        00000 
 1.66052e-06  9.42304e-07        00000 
 7.89082e-07  8.02602e-07        00000 
 3.66035e-07  5.61294e-07        00000 
 2.07633e-07  4.08601e-07        00000 
 3.42375e-07  3.09446e-07        00000 
-3.58272e-07  3.40433e-07        00000 
-2.02992e-07  4.52696e-07        00000 
-3.35843e-07  6.51658e-07        00000 
-6.84497e-07  1.05017e-06        00000 
-1.37840e-06  1.68077e-06        00000 
-2.77310e-06  2.42147e-06        00000 
-5.44108e-06  2.68972e-06        00000 
-9.55091e-06  1.29997e-06        00000 
-1.15791e-05 -8.63283e-07        00000 
 8.14455e-06  1.51976e-05        00000 
 1.06655e-04  1.37507e-04        00000 
 4.14245e-04  6.16119e-04        00000 
 8.59648e-04  1.70368e-03        00000 
 7.51868e-04  2.91583e-03        00000 
-5.54137e-04  2.71689e-03        00000 
-1.51325e-03  4.40909e-04        00000 
-6.20119e-04 -1.90709e-03        00000 
 6.19084e-04 -2.28350e-03        00000 
 7.23093e-04 -1.28854e-03        00000 
 3.18768e-04 -3.91003e-04        00000 
 5.87505e-05 -3.74603e-05        00000 
-8.47595e-06  2.18354e-05        00000 
-1.44093e-05  1.33090e-05        00000 
-8.55652e-06  3.42181e-06        00000 
-4.13003e-06 -2.71060e-07        00000 
-1.89420e-06 -9.21528e-07        00000 
-8.77433e-07 -7.36500e-07        00000 
-4.10372e-07 -4.87643e-07        00000 
-2.38162e-07 -3.43673e-07        00000 
-4.05775e-07 -2.58289e-07        00000 
 4.18855e-07 -2.81645e-07        00000 
 2.33914e-07 -3.74881e-07        00000 
 3.84029e-07 -5.45012e-07        00000 
 7.77616e-07 -8.91532e-07        00000 
 1.55835e-06 -1.45706e-06        00000 
 3.17578e-06 -2.14140e-06        00000 
 6.60143e-06 -2.22732e-06        00000 
 1.35769e-05  8.12357e-07        00000 
 2.52460e-05  1.27750e-05        00000 
 3.46540e-05  3.75113e-05        00000 
-1.51644e-05  2.82751e-05        00000 
-2.60576e-04 -2.90873e-04        00000 
-1.31176e-03 -1.88636e-03        00000 
-2.09013e-03 -4.99051e-03        00000 
-3.63640e-04 -6.01337e-03        00000 
 1.66456e-03 -6.10582e-04        00000 
-3.27399e-04  4.88020e-03        00000 
-1.90213e-03  4.15989e-03        00000 
-1.11970e-03  1.39160e-03        00000 
-1.43870e-04  6.20016e-05        00000 
 3.05185e-05 -1.06658e-04        00000 
 4.20828e-05 -5.67011e-05        00000 
 2.24455e-05 -1.70401e-05        00000 
 1.00666e-05 -2.73890e-06        00000 
 4.36405e-06  6.12532e-07        00000 
 1.96830e-06  8.86063e-07        00000 
 9.28984e-07  6.16950e-07        00000 
 4.42942e-07  3.83863e-07        00000 
 2.59798e-07  2.60819e-07        00000 
 4.55028e-07  1.97169e-07        00000 
-4.64983e-07  2.14238e-07        00000 
-2.54995e-07  2.82672e-07        00000 
-4.19823e-07  4.19137e-07        00000 
-8.47163e-07  6.97447e-07        00000 
-1.67966e-06  1.16621e-06        00000 
-3.39019e-06  1.78827e-06        00000 
-7.11109e-06  2.01186e-06        00000 
-1.54096e-05 -6.82362e-07        00000 
-3.36178e-05 -1.47353e-05        00000 
-6.72619e-05 -6.14834e-05        00000 
-1.16412e-04 -1.68719e-04        00000 
-8.15304e-06 -2.15353e-04        00000 
 2.62512e-04  8.07986e-04        00000 
 5.95680e-03  8.19488e-03        00000 
 5.74102e-03  1.61168e-02        00000 
 6.06144e-03  7.98100e-04        00000 
 5.99421e-03 -1.43276e-02        00000 
 5.74670e-03 -7.11121e-03        00000 
 5.26706e-05 -2.51363e-04        00000 
-1.35709e-04  4.07378e-04        00000 
-1.31638e-04  1.94284e-04        00000 
-5.86962e-05  5.65309e-05        00000 
-2.39026e-05  1.14369e-05        00000 
-9.62111e-06  8.32084e-07        00000 
-4.15072e-06 -7.96467e-07        00000 
-1.92884e-06 -6.91978e-07        00000 
-9.38656e-07 -4.33355e-07        00000 
-4.51750e-07 -2.55795e-07        00000 
-2.58582e-07 -1.59051e-07        00000 
-4.76028e-07 -1.30217e-07        00000 
 4.83180e-07 -1.41293e-07        00000 
 2.52589e-07 -1.73008e-07        00000 
 4.29326e-07 -2.77300e-07        00000 
 8.69755e-07 -4.73180e-07        00000 
 1.70679e-06 -8.03782e-07        00000 
 3.39626e-06 -1.27870e-06        00000 
 7.03334e-06 -1.57138e-06        00000 
 1.54035e-05  1.34482e-07        00000 
 3.53313e-05  1.09142e-05        00000 
 8.44624e-05  5.27961e-05        00000 
 1.88261e-04  1.80597e-04        00000 
 4.71250e-04  4.63364e-04        00000 
 2.44315e-04  5.23108e-04        00000 
 3.42209e-03 -4.04323e-03        00000 
-5.68782e-02 -4.85542e-02        00000 
-4.34827e-02 -5.26542e-04        00000 
-5.84760e-02  4.44637e-02        00000 