<?xml version="1.0" encoding="utf-8"?>
<VTKFile byte_order="LittleEndian" type="UnstructuredGrid" version="0.1">
   <UnstructuredGrid>
      <Piece NumberOfCells="9608" NumberOfPoints="4908">
         <Points>
            <DataArray Name="Points" NumberOfComponents="3" format="ascii" type="Float32">
-1.0000 -0.9592 0.0000
-1.0000 -0.9184 0.0000
-1.0000 -0.8776 0.0000
-1.0000 -0.8367 0.0000
-1.0000 -0.7959 0.0000
-1.0000 -0.7551 0.0000
-1.0000 -0.7143 0.0000
-1.0000 -0.6735 0.0000
-1.0000 -0.6327 0.0000
-1.0000 -0.5918 0.0000
-1.0000 -0.5510 0.0000
-1.0000 -0.5102 0.0000
-1.0000 -0.4694 0.0000
-1.0000 -0.4286 0.0000
-1.0000 -0.3878 0.0000
-1.0000 -0.3469 0.0000
-1.0000 -0.3061 0.0000
-1.0000 -0.2653 0.0000
-1.0000 -0.2245 0.0000
-1.0000 -0.1837 0.0000
-1.0000 -0.1429 0.0000
-1.0000 -0.1020 0.0000
-1.0000 -0.0612 0.0000
-1.0000 -0.0204 0.0000
-1.0000 0.0204 0.0000
-1.0000 0.0612 0.0000
-1.0000 0.1020 0.0000
-1.0000 0.1429 0.0000
-1.0000 0.1837 0.0000
-1.0000 0.2245 0.0000
-1.0000 0.2653 0.0000
-1.0000 0.3061 0.0000
-1.0000 0.3469 0.0000
-1.0000 0.3878 0.0000
-1.0000 0.4286 0.0000
-1.0000 0.4694 0.0000
-1.0000 0.5102 0.0000
-1.0000 0.5510 0.0000
-1.0000 0.5918 0.0000
-1.0000 0.6327 0.0000
-1.0000 0.6735 0.0000
-1.0000 0.7143 0.0000
-1.0000 0.7551 0.0000
-1.0000 0.7959 0.0000
-1.0000 0.8367 0.0000
-1.0000 0.8776 0.0000
-1.0000 0.9184 0.0000
-1.0000 0.9592 0.0000
-1.0000 1.0000 0.0000
-0.9592 -0.9592 0.0000
-0.9592 -0.9184 0.0000
-0.9592 -0.8776 0.0000
-0.9592 -0.8367 0.0000
-0.9592 -0.7959 0.0000
-0.9592 -0.7551 0.0000
-0.9592 -0.7143 0.0000
-0.9592 -0.6735 0.0000
-0.9592 -0.6327 0.0000
-0.9592 -0.5918 0.0000
-0.9592 -0.5510 0.0000
-0.9592 -0.5102 0.0000
-0.9592 -0.4694 0.0000
-0.9592 -0.4286 0.0000
-0.9592 -0.3878 0.0000
-0.9592 -0.3469 0.0000
-0.9592 -0.3061 0.0000
-0.9592 -0.2653 0.0000
-0.9592 -0.2245 0.0000
-0.9592 -0.1837 0.0000
-0.9592 -0.1429 0.0000
-0.9592 -0.1020 0.0000
-0.9592 -0.0612 0.0000
-0.9592 -0.0204 0.0000
-0.9592 0.0204 0.0000
-0.9592 0.0612 0.0000
-0.9592 0.1020 0.0000
-0.9592 0.1429 0.0000
-0.9592 0.1837 0.0000
-0.9592 0.2245 0.0000
-0.9592 0.2653 0.0000
-0.9592 0.3061 0.0000
-0.9592 0.3469 0.0000
-0.9592 0.3878 0.0000
-0.9592 0.4286 0.0000
-0.9592 0.4694 0.0000
-0.9592 0.5102 0.0000
-0.9592 0.5510 0.0000
-0.9592 0.5918 0.0000
-0.9592 0.6327 0.0000
-0.9592 0.6735 0.0000
-0.9592 0.7143 0.0000
-0.9592 0.7551 0.0000
-0.9592 0.7959 0.0000
-0.9592 0.8367 0.0000
-0.9592 0.8776 0.0000
-0.9592 0.9184 0.0000
-0.9592 0.9592 0.0000
-0.9592 1.0000 0.0000
-0.9184 -0.9592 0.0000
-0.9184 -0.9184 0.0000
-0.9184 -0.8776 0.0000
-0.9184 -0.8367 0.0000
-0.9184 -0.7959 0.0000
-0.9184 -0.7551 0.0000
-0.9184 -0.7143 0.0000
-0.9184 -0.6735 0.0000
-0.9184 -0.6327 0.0000
-0.9184 -0.5918 0.0000
-0.9184 -0.5510 0.0000
-0.9184 -0.5102 0.0000
-0.9184 -0.4694 0.0000
-0.9184 -0.4286 0.0000
-0.9184 -0.3878 0.0000
-0.9184 -0.3469 0.0000
-0.9184 -0.3061 0.0000
-0.9184 -0.2653 0.0000
-0.9184 -0.2245 0.0000
-0.9184 -0.1837 0.0000
-0.9184 -0.1429 0.0000
-0.9184 -0.1020 0.0000
-0.9184 -0.0612 0.0000
-0.9184 -0.0204 0.0000
-0.9184 0.0204 0.0000
-0.9184 0.0612 0.0000
-0.9184 0.1020 0.0000
-0.9184 0.1429 0.0000
-0.9184 0.1837 0.0000
-0.9184 0.2245 0.0000
-0.9184 0.2653 0.0000
-0.9184 0.3061 0.0000
-0.9184 0.3469 0.0000
-0.9184 0.3878 0.0000
-0.9184 0.4286 0.0000
-0.9184 0.4694 0.0000
-0.9184 0.5102 0.0000
-0.9184 0.5510 0.0000
-0.9184 0.5918 0.0000
-0.9184 0.6327 0.0000
-0.9184 0.6735 0.0000
-0.9184 0.7143 0.0000
-0.9184 0.7551 0.0000
-0.9184 0.7959 0.0000
-0.9184 0.8367 0.0000
-0.9184 0.8776 0.0000
-0.9184 0.9184 0.0000
-0.9184 0.9592 0.0000
-0.9184 1.0000 0.0000
-0.8776 -0.9592 0.0000
-0.8776 -0.9184 0.0000
-0.8776 -0.8776 0.0000
-0.8776 -0.8367 0.0000
-0.8776 -0.7959 0.0000
-0.8776 -0.7551 0.0000
-0.8776 -0.7143 0.0000
-0.8776 -0.6735 0.0000
-0.8776 -0.6327 0.0000
-0.8776 -0.5918 0.0000
-0.8776 -0.5510 0.0000
-0.8776 -0.5102 0.0000
-0.8776 -0.4694 0.0000
-0.8776 -0.4286 0.0000
-0.8776 -0.3878 0.0000
-0.8776 -0.3469 0.0000
-0.8776 -0.3061 0.0000
-0.8776 -0.2653 0.0000
-0.8776 -0.2245 0.0000
-0.8776 -0.1837 0.0000
-0.8776 -0.1429 0.0000
-0.8776 -0.1020 0.0000
-0.8776 -0.0612 0.0000
-0.8776 -0.0204 0.0000
-0.8776 0.0204 0.0000
-0.8776 0.0612 0.0000
-0.8776 0.1020 0.0000
-0.8776 0.1429 0.0000
-0.8776 0.1837 0.0000
-0.8776 0.2245 0.0000
-0.8776 0.2653 0.0000
-0.8776 0.3061 0.0000
-0.8776 0.3469 0.0000
-0.8776 0.3878 0.0000
-0.8776 0.4286 0.0000
-0.8776 0.4694 0.0000
-0.8776 0.5102 0.0000
-0.8776 0.5510 0.0000
-0.8776 0.5918 0.0000
-0.8776 0.6327 0.0000
-0.8776 0.6735 0.0000
-0.8776 0.7143 0.0000
-0.8776 0.7551 0.0000
-0.8776 0.7959 0.0000
-0.8776 0.8367 0.0000
-0.8776 0.8776 0.0000
-0.8776 0.9184 0.0000
-0.8776 0.9592 0.0000
-0.8776 1.0000 0.0000
-0.8367 -0.9592 0.0000
-0.8367 -0.9184 0.0000
-0.8367 -0.8776 0.0000
-0.8367 -0.8367 0.0000
-0.8367 -0.7959 0.0000
-0.8367 -0.7551 0.0000
-0.8367 -0.7143 0.0000
-0.8367 -0.6735 0.0000
-0.8367 -0.6327 0.0000
-0.8367 -0.5918 0.0000
-0.8367 -0.5510 0.0000
-0.8367 -0.5102 0.0000
-0.8367 -0.4694 0.0000
-0.8367 -0.4286 0.0000
-0.8367 -0.3878 0.0000
-0.8367 -0.3469 0.0000
-0.8367 -0.3061 0.0000
-0.8367 -0.2653 0.0000
-0.8367 -0.2245 0.0000
-0.8367 -0.1837 0.0000
-0.8367 -0.1429 0.0000
-0.8367 -0.1020 0.0000
-0.8367 -0.0612 0.0000
-0.8367 -0.0204 0.0000
-0.8367 0.0204 0.0000
-0.8367 0.0612 0.0000
-0.8367 0.1020 0.0000
-0.8367 0.1429 0.0000
-0.8367 0.1837 0.0000
-0.8367 0.2245 0.0000
-0.8367 0.2653 0.0000
-0.8367 0.3061 0.0000
-0.8367 0.3469 0.0000
-0.8367 0.3878 0.0000
-0.8367 0.4286 0.0000
-0.8367 0.4694 0.0000
-0.8367 0.5102 0.0000
-0.8367 0.5510 0.0000
-0.8367 0.5918 0.0000
-0.8367 0.6327 0.0000
-0.8367 0.6735 0.0000
-0.8367 0.7143 0.0000
-0.8367 0.7551 0.0000
-0.8367 0.7959 0.0000
-0.8367 0.8367 0.0000
-0.8367 0.8776 0.0000
-0.8367 0.9184 0.0000
-0.8367 0.9592 0.0000
-0.8367 1.0000 0.0000
-0.7959 -0.9592 0.0000
-0.7959 -0.9184 0.0000
-0.7959 -0.8776 0.0000
-0.7959 -0.8367 0.0000
-0.7959 -0.7959 0.0000
-0.7959 -0.7551 0.0000
-0.7959 -0.7143 0.0000
-0.7959 -0.6735 0.0000
-0.7959 -0.6327 0.0000
-0.7959 -0.5918 0.0000
-0.7959 -0.5510 0.0000
-0.7959 -0.5102 0.0000
-0.7959 -0.4694 0.0000
-0.7959 -0.4286 0.0000
-0.7959 -0.3878 0.0000
-0.7959 -0.3469 0.0000
-0.7959 -0.3061 0.0000
-0.7959 -0.2653 0.0000
-0.7959 -0.2245 0.0000
-0.7959 -0.1837 0.0000
-0.7959 -0.1429 0.0000
-0.7959 -0.1020 0.0000
-0.7959 -0.0612 0.0000
-0.7959 -0.0204 0.0000
-0.7959 0.0204 0.0000
-0.7959 0.0612 0.0000
-0.7959 0.1020 0.0000
-0.7959 0.1429 0.0000
-0.7959 0.1837 0.0000
-0.7959 0.2245 0.0000
-0.7959 0.2653 0.0000
-0.7959 0.3061 0.0000
-0.7959 0.3469 0.0000
-0.7959 0.3878 0.0000
-0.7959 0.4286 0.0000
-0.7959 0.4694 0.0000
-0.7959 0.5102 0.0000
-0.7959 0.5510 0.0000
-0.7959 0.5918 0.0000
-0.7959 0.6327 0.0000
-0.7959 0.6735 0.0000
-0.7959 0.7143 0.0000
-0.7959 0.7551 0.0000
-0.7959 0.7959 0.0000
-0.7959 0.8367 0.0000
-0.7959 0.8776 0.0000
-0.7959 0.9184 0.0000
-0.7959 0.9592 0.0000
-0.7959 1.0000 0.0000
-0.7551 -0.9592 0.0000
-0.7551 -0.9184 0.0000
-0.7551 -0.8776 0.0000
-0.7551 -0.8367 0.0000
-0.7551 -0.7959 0.0000
-0.7551 -0.7551 0.0000
-0.7551 -0.7143 0.0000
-0.7551 -0.6735 0.0000
-0.7551 -0.6327 0.0000
-0.7551 -0.5918 0.0000
-0.7551 -0.5510 0.0000
-0.7551 -0.5102 0.0000
-0.7551 -0.4694 0.0000
-0.7551 -0.4286 0.0000
-0.7551 -0.3878 0.0000
-0.7551 -0.3469 0.0000
-0.7551 -0.3061 0.0000
-0.7551 -0.2653 0.0000
-0.7551 -0.2245 0.0000
-0.7551 -0.1837 0.0000
-0.7551 -0.1429 0.0000
-0.7551 -0.1020 0.0000
-0.7551 -0.0612 0.0000
-0.7551 -0.0204 0.0000
-0.7551 0.0204 0.0000
-0.7551 0.0612 0.0000
-0.7551 0.1020 0.0000
-0.7551 0.1429 0.0000
-0.7551 0.1837 0.0000
-0.7551 0.2245 0.0000
-0.7551 0.2653 0.0000
-0.7551 0.3061 0.0000
-0.7551 0.3469 0.0000
-0.7551 0.3878 0.0000
-0.7551 0.4286 0.0000
-0.7551 0.4694 0.0000
-0.7551 0.5102 0.0000
-0.7551 0.5510 0.0000
-0.7551 0.5918 0.0000
-0.7551 0.6327 0.0000
-0.7551 0.6735 0.0000
-0.7551 0.7143 0.0000
-0.7551 0.7551 0.0000
-0.7551 0.7959 0.0000
-0.7551 0.8367 0.0000
-0.7551 0.8776 0.0000
-0.7551 0.9184 0.0000
-0.7551 0.9592 0.0000
-0.7551 1.0000 0.0000
-0.7143 -0.9592 0.0000
-0.7143 -0.9184 0.0000
-0.7143 -0.8776 0.0000
-0.7143 -0.8367 0.0000
-0.7143 -0.7959 0.0000
-0.7143 -0.7551 0.0000
-0.7143 -0.7143 0.0000
-0.7143 -0.6735 0.0000
-0.7143 -0.6327 0.0000
-0.7143 -0.5918 0.0000
-0.7143 -0.5510 0.0000
-0.7143 -0.5102 0.0000
-0.7143 -0.4694 0.0000
-0.7143 -0.4286 0.0000
-0.7143 -0.3878 0.0000
-0.7143 -0.3469 0.0000
-0.7143 -0.3061 0.0000
-0.7143 -0.2653 0.0000
-0.7143 -0.2245 0.0000
-0.7143 -0.1837 0.0000
-0.7143 -0.1429 0.0000
-0.7143 -0.1020 0.0000
-0.7143 -0.0612 0.0000
-0.7143 -0.0204 0.0000
-0.7143 0.0204 0.0000
-0.7143 0.0612 0.0000
-0.7143 0.1020 0.0000
-0.7143 0.1429 0.0000
-0.7143 0.1837 0.0000
-0.7143 0.2245 0.0000
-0.7143 0.2653 0.0000
-0.7143 0.3061 0.0000
-0.7143 0.3469 0.0000
-0.7143 0.3878 0.0000
-0.7143 0.4286 0.0000
-0.7143 0.4694 0.0000
-0.7143 0.5102 0.0000
-0.7143 0.5510 0.0000
-0.7143 0.5918 0.0000
-0.7143 0.6327 0.0000
-0.7143 0.6735 0.0000
-0.7143 0.7143 0.0000
-0.7143 0.7551 0.0000
-0.7143 0.7959 0.0000
-0.7143 0.8367 0.0000
-0.7143 0.8776 0.0000
-0.7143 0.9184 0.0000
-0.7143 0.9592 0.0000
-0.7143 1.0000 0.0000
-0.6735 -0.9592 0.0000
-0.6735 -0.9184 0.0000
-0.6735 -0.8776 0.0000
-0.6735 -0.8367 0.0000
-0.6735 -0.7959 0.0000
-0.6735 -0.7551 0.0000
-0.6735 -0.7143 0.0000
-0.6735 -0.6735 0.0000
-0.6735 -0.6327 0.0000
-0.6735 -0.5918 0.0000
-0.6735 -0.5510 0.0000
-0.6735 -0.5102 0.0000
-0.6735 -0.4694 0.0000
-0.6735 -0.4286 0.0000
-0.6735 -0.3878 0.0000
-0.6735 -0.3469 0.0000
-0.6735 -0.3061 0.0000
-0.6735 -0.2653 0.0000
-0.6735 -0.2245 0.0000
-0.6735 -0.1837 0.0000
-0.6735 -0.1429 0.0000
-0.6735 -0.1020 0.0000
-0.6735 -0.0612 0.0000
-0.6735 -0.0204 0.0000
-0.6735 0.0204 0.0000
-0.6735 0.0612 0.0000
-0.6735 0.1020 0.0000
-0.6735 0.1429 0.0000
-0.6735 0.1837 0.0000
-0.6735 0.2245 0.0000
-0.6735 0.2653 0.0000
-0.6735 0.3061 0.0000
-0.6735 0.3469 0.0000
-0.6735 0.3878 0.0000
-0.6735 0.4286 0.0000
-0.6735 0.4694 0.0000
-0.6735 0.5102 0.0000
-0.6735 0.5510 0.0000
-0.6735 0.5918 0.0000
[...]
         <PointData>
            <DataArray Name="fValues" NumberOfComponents="3" format="ascii" type="Float64">
 9.80064e-01  1.24960e-04        00000 
 9.58243e-01  2.11617e-03        00000 
 9.37915e-01  2.46457e-03        00000 
 9.17326e-01  2.52861e-03        00000 
 8.97027e-01  3.23287e-03        00000 
 8.77011e-01  3.82094e-03        00000 
 8.54916e-01  2.49537e-03        00000 
 8.33299e-01  1.18201e-03        00000 
 8.10052e-01  1.39395e-04        00000 
 7.92707e-01  1.23707e-04        00000 
 7.76727e-01  5.58079e-04        00000 
 7.54248e-01  1.92473e-04        00000 
 7.33360e-01  3.33569e-04        00000 
 7.13503e-01  7.54045e-04        00000 
 6.94592e-01  6.66828e-04        00000 
 6.76308e-01  2.01237e-04        00000 
 6.54970e-01 -1.33322e-03        00000 
 6.33369e-01 -2.33802e-03        00000 
 6.13149e-01 -2.78086e-03        00000 
 5.92150e-01 -1.91669e-03        00000 
 5.70013e-01 -9.73236e-04        00000 
 5.48873e-01  3.72768e-04        00000 
 5.27709e-01  1.20024e-03        00000 
 5.05515e-01  9.97434e-04        00000 
 4.84707e-01  4.89793e-04        00000 
 4.65106e-01  2.02785e-04        00000 
 4.49343e-01  3.88101e-04        00000 
 4.31685e-01  8.89989e-04        00000 
 4.12962e-01  8.11718e-04        00000 
 3.92580e-01  1.02716e-03        00000 
 3.70736e-01  8.69404e-04        00000 
 3.48712e-01  8.04187e-04        00000 
 3.29384e-01  9.91650e-04        00000 
 3.09738e-01  6.08389e-04        00000 
 2.88949e-01  7.56114e-05        00000 
 2.67532e-01 -6.46592e-04        00000 
 2.45147e-01 -1.42234e-03        00000 
 2.25416e-01 -1.85788e-03        00000 
 2.06059e-01 -1.48432e-03        00000 
 1.85343e-01 -1.08304e-03        00000 
 1.63705e-01 -7.43313e-04        00000 
 1.42909e-01 -7.28989e-04        00000 
 1.21237e-01 -9.87528e-04        00000 
 9.97143e-02 -1.24687e-03        00000 
 7.92900e-02 -1.26722e-03        00000 
 5.99310e-02 -5.01427e-04        00000 
 4.01623e-02 -1.37125e-03        00000 
 1.80783e-02 -2.83464e-03        00000 
-2.09118e-03 -3.95949e-03        00000 
 9.58034e-01  8.81234e-04        00000 
 9.37771e-01  3.71914e-03        00000 
 9.18297e-01  4.70682e-03        00000 
 8.97512e-01  5.06083e-03        00000 
 8.78636e-01  6.13277e-03        00000 
 8.61562e-01  7.46274e-03        00000 
 8.41356e-01  7.68068e-03        00000 
 8.19288e-01  7.44016e-03        00000 
 7.98961e-01  6.74357e-03        00000 
 7.82145e-01  7.70504e-03        00000 
 7.65707e-01  9.84453e-03        00000 
 7.45197e-01  1.10497e-02        00000 
 7.25657e-01  1.20613e-02        00000 
 7.05589e-01  1.25530e-02        00000 
 6.84793e-01  1.18863e-02        00000 
 6.64840e-01  1.08105e-02        00000 
 6.44625e-01  8.99473e-03        00000 
 6.24332e-01  6.81474e-03        00000 
 6.05026e-01  5.77215e-03        00000 
 5.84649e-01  6.50042e-03        00000 
 5.63742e-01  6.68486e-03        00000 
 5.41715e-01  5.84967e-03        00000 
 5.20640e-01  5.96774e-03        00000 
 4.99503e-01  5.60460e-03        00000 
 4.79910e-01  5.20330e-03        00000 
 4.59754e-01  4.97020e-03        00000 
 4.40366e-01  4.75225e-03        00000 
 4.21832e-01  4.29995e-03        00000 
 4.01204e-01  4.05040e-03        00000 
 3.80564e-01  3.96795e-03        00000 
 3.59521e-01  4.06386e-03        00000 
 3.39266e-01  4.35254e-03        00000 
 3.21065e-01  5.05610e-03        00000 
 3.02066e-01  5.41305e-03        00000 
 2.82377e-01  5.38720e-03        00000 
 2.60674e-01  5.30885e-03        00000 
 2.38163e-01  4.75651e-03        00000 
 2.19245e-01  3.71623e-03        00000 
 1.99768e-01  2.55213e-03        00000 
 1.79145e-01  1.71778e-03        00000 
 1.58487e-01  2.68953e-03        00000 
 1.37916e-01  3.05132e-03        00000 
 1.17285e-01  2.89370e-03        00000 
 9.73027e-02  2.57410e-03        00000 
 7.70850e-02  1.93199e-03        00000 
 5.79710e-02  1.31057e-03        00000 
 3.89142e-02  8.68951e-04        00000 
 1.89181e-02 -9.32419e-04        00000 
-2.13158e-03 -2.26625e-03        00000 
 9.38924e-01  5.37294e-05        00000 
 9.21171e-01  4.70294e-03        00000 
 9.03075e-01  8.25042e-03        00000 
 8.84018e-01  9.37514e-03        00000 
 8.65022e-01  1.08297e-02        00000 
 8.46491e-01  1.27002e-02        00000 
 8.26930e-01  1.42534e-02        00000 
 8.06865e-01  1.61330e-02        00000 
 7.86598e-01  1.62344e-02        00000 
 7.69336e-01  1.83378e-02        00000 
 7.53934e-01  2.08202e-02        00000 
 7.35975e-01  2.18350e-02        00000 
 7.16086e-01  2.28159e-02        00000 
 6.95764e-01  2.23114e-02        00000 
 6.76406e-01  2.19038e-02        00000 
 6.55198e-01  2.05240e-02        00000 
 6.35898e-01  1.92644e-02        00000 
 6.17843e-01  1.80224e-02        00000 
 5.98119e-01  1.67241e-02        00000 
 5.78815e-01  1.78068e-02        00000 
 5.57970e-01  1.68784e-02        00000 
 5.37286e-01  1.54739e-02        00000 
 5.16717e-01  1.37787e-02        00000 
 4.95236e-01  1.28529e-02        00000 
 4.75912e-01  1.28043e-02        00000 
 4.54084e-01  1.18154e-02        00000 
 4.33719e-01  1.07263e-02        00000 
 4.14850e-01  1.02622e-02        00000 
 3.95114e-01  1.06581e-02        00000 
 3.73483e-01  1.02319e-02        00000 
 3.51632e-01  9.69793e-03        00000 
 3.30664e-01  1.00566e-02        00000 
 3.12056e-01  1.09340e-02        00000 
 2.92378e-01  1.16377e-02        00000 
 2.72206e-01  1.11303e-02        00000 
 2.51663e-01  1.03517e-02        00000 
 2.31934e-01  9.48943e-03        00000 
 2.12305e-01  8.46579e-03        00000 
 1.93342e-01  7.36637e-03        00000 
 1.74409e-01  8.09073e-03        00000 
 1.53663e-01  8.65730e-03        00000 
 1.33067e-01  8.21186e-03        00000 
 1.14188e-01  7.45030e-03        00000 
 9.45880e-02  6.06834e-03        00000 
 7.59385e-02  4.65168e-03        00000 
 5.61773e-02  4.13865e-03        00000 
 3.69719e-02  3.90729e-03        00000 
 1.70365e-02  1.50223e-03        00000 
-2.80995e-03  8.70119e-05        00000 
 9.21705e-01  6.43343e-04        00000 
 9.06606e-01  7.48404e-03        00000 
 8.88842e-01  9.86221e-03        00000 
 8.68740e-01  1.13324e-02        00000 
 8.49266e-01  1.35157e-02        00000 
 8.31803e-01  1.52551e-02        00000 
 8.12846e-01  1.76121e-02        00000 
 7.92852e-01  2.07397e-02        00000 
 7.74719e-01  2.41037e-02        00000 
 7.58013e-01  2.65484e-02        00000 
 7.39747e-01  2.81714e-02        00000 
 7.20642e-01  2.91534e-02        00000 
 7.03093e-01  3.00212e-02        00000 
 6.85882e-01  3.00919e-02        00000 
 6.67526e-01  3.00716e-02        00000 
 6.47368e-01  2.91984e-02        00000 
 6.27566e-01  2.81332e-02        00000 
 6.10041e-01  2.69401e-02        00000 
 5.90157e-01  2.58622e-02        00000 
 5.70037e-01  2.53019e-02        00000 
 5.50121e-01  2.47568e-02        00000 
 5.30519e-01  2.40595e-02        00000 
 5.10842e-01  2.27758e-02        00000 
 4.91555e-01  2.14055e-02        00000 
 4.71424e-01  2.01814e-02        00000 
 4.48980e-01  1.87270e-02        00000 
 4.28510e-01  1.75730e-02        00000 
 4.09255e-01  1.69520e-02        00000 
 3.87941e-01  1.63091e-02        00000 
 3.66708e-01  1.63167e-02        00000 
 3.44757e-01  1.62431e-02        00000 
 3.22808e-01  1.61592e-02        00000 
 3.03524e-01  1.63796e-02        00000 
 2.83660e-01  1.64479e-02        00000 
 2.65058e-01  1.60507e-02        00000 
 2.46955e-01  1.55565e-02        00000 
 2.27584e-01  1.51144e-02        00000 
 2.07092e-01  1.44446e-02        00000 
 1.87752e-01  1.36067e-02        00000 
 1.68002e-01  1.34391e-02        00000 
 1.47305e-01  1.33554e-02        00000 
 1.29607e-01  1.27621e-02        00000 
 1.11798e-01  1.12171e-02        00000 
 9.25234e-02  9.27062e-03        00000 
 7.21002e-02  7.23404e-03        00000 
 5.25809e-02  6.06120e-03        00000 
 3.43167e-02  5.47947e-03        00000 
 1.59340e-02  3.52296e-03        00000 
-2.22198e-03  2.59341e-03        00000 
 9.04485e-01  4.15170e-03        00000 
 8.89332e-01  1.04675e-02        00000 
 8.68425e-01  1.35360e-02        00000 
 8.50563e-01  1.53240e-02        00000 
 8.33866e-01  1.71829e-02        00000 
 8.17446e-01  1.97680e-02        00000 
 7.98302e-01  2.26354e-02        00000 
 7.80029e-01  2.53751e-02        00000 
 7.64056e-01  2.85067e-02        00000 
 7.46740e-01  3.21052e-02        00000 
 7.28051e-01  3.48904e-02        00000 
 7.08944e-01  3.56709e-02        00000 
 6.92252e-01  3.56603e-02        00000 
 6.76284e-01  3.68015e-02        00000 
 6.60203e-01  3.74838e-02        00000 
 6.41152e-01  3.72151e-02        00000 
 6.22638e-01  3.64965e-02        00000 
 6.03978e-01  3.59977e-02        00000 
 5.82610e-01  3.50255e-02        00000 
 5.61203e-01  3.31925e-02        00000 
 5.41624e-01  3.19547e-02        00000 
 5.23109e-01  3.13178e-02        00000 
 5.04845e-01  3.03352e-02        00000 
 4.86994e-01  2.93208e-02        00000 
 4.65739e-01  2.71253e-02        00000 
 4.43624e-01  2.52557e-02        00000 
 4.22821e-01  2.41193e-02        00000 
 4.02604e-01  2.34682e-02        00000 
 3.81716e-01  2.26737e-02        00000 
 3.60012e-01  2.18397e-02        00000 
 3.37917e-01  2.12121e-02        00000 
 3.16467e-01  2.13785e-02        00000 
 2.96319e-01  2.14673e-02        00000 
 2.77301e-01  2.12376e-02        00000 
 2.60502e-01  2.13491e-02        00000 
 2.42720e-01  2.14351e-02        00000 
 2.23068e-01  2.11745e-02        00000 
 2.02335e-01  2.03547e-02        00000 
 1.81232e-01  1.93386e-02        00000 
 1.61047e-01  1.90097e-02        00000 
 1.42684e-01  1.82652e-02        00000 
 1.25778e-01  1.61101e-02        00000 
 1.07231e-01  1.39517e-02        00000 
 8.89140e-02  1.22864e-02        00000 
 6.98203e-02  1.03111e-02        00000 
 5.01443e-02  7.70219e-03        00000 
 3.27579e-02  5.75682e-03        00000 
 1.45981e-02  2.89396e-03        00000 
-1.78667e-03  2.02762e-03        00000 
 8.85329e-01  5.89516e-03        00000 
 8.68629e-01  1.25474e-02        00000 
 8.49041e-01  1.69718e-02        00000 
 8.31442e-01  1.95746e-02        00000 
 8.16308e-01  2.25676e-02        00000 
 8.01435e-01  2.58506e-02        00000 
 7.82005e-01  2.88308e-02        00000 
 7.64185e-01  3.15503e-02        00000 
 7.48332e-01  3.49004e-02        00000 
 7.32590e-01  3.84301e-02        00000 
 7.15434e-01  4.10717e-02        00000 
 6.97296e-01  4.10882e-02        00000 
 6.80295e-01  4.12051e-02        00000 
 6.66262e-01  4.22998e-02        00000 
 6.51547e-01  4.29938e-02        00000 
 6.34424e-01  4.34952e-02        00000 
 6.16175e-01  4.37791e-02        00000 
 5.97210e-01  4.36873e-02        00000 
 5.75665e-01  4.30390e-02        00000 
 5.54646e-01  4.11576e-02        00000 
 5.33818e-01  3.88496e-02        00000 
 5.15927e-01  3.78401e-02        00000 
 4.99129e-01  3.74021e-02        00000 
 4.80654e-01  3.60580e-02        00000 
 4.59302e-01  3.39335e-02        00000 
 4.36981e-01  3.17783e-02        00000 
 4.16258e-01  3.03676e-02        00000 
 3.95981e-01  2.91417e-02        00000 
 3.75691e-01  2.82735e-02        00000 
 3.54505e-01  2.72457e-02        00000 
 3.32560e-01  2.63332e-02        00000 
 3.10299e-01  2.58467e-02        00000 
 2.88652e-01  2.58474e-02        00000 
 2.71344e-01  2.61375e-02        00000 
 2.54003e-01  2.63631e-02        00000 
 2.36064e-01  2.63757e-02        00000 
 2.16941e-01  2.66576e-02        00000 
 1.96351e-01  2.65891e-02        00000 
 1.75120e-01  2.59206e-02        00000 
 1.56939e-01  2.43418e-02        00000 
 1.39571e-01  2.22901e-02        00000 
 1.21621e-01  1.96971e-02        00000 
 1.03175e-01  1.71293e-02        00000 
 8.46343e-02  1.42284e-02        00000 
 6.55439e-02  1.05510e-02        00000 
 4.74841e-02  7.22863e-03        00000 
 3.05094e-02  4.51906e-03        00000 
 1.43994e-02  2.48637e-03        00000 
-1.37500e-03  1.54804e-03        00000 
 8.64483e-01  6.59603e-03        00000 
 8.48133e-01  1.32470e-02        00000 
 8.29521e-01  1.78767e-02        00000 
 8.13008e-01  2.10414e-02        00000 
 7.98446e-01  2.45873e-02        00000 
 7.83339e-01  2.81384e-02        00000 
 7.66233e-01  3.15201e-02        00000 
 7.48497e-01  3.49930e-02        00000 
 7.33898e-01  3.87905e-02        00000 
 7.17995e-01  4.22749e-02        00000 
 7.02063e-01  4.57036e-02        00000 
 6.84969e-01  4.65656e-02        00000 
 6.68717e-01  4.65814e-02        00000 
 6.53218e-01  4.67813e-02        00000 
 6.38034e-01  4.81867e-02        00000 
 6.23246e-01  4.92123e-02        00000 
 6.07827e-01  5.00067e-02        00000 
 5.89182e-01  5.03082e-02        00000 
 5.68424e-01  4.96335e-02        00000 
 5.46928e-01  4.79695e-02        00000 
 5.27776e-01  4.62171e-02        00000 
 5.08814e-01  4.42670e-02        00000 
 4.92314e-01  4.32772e-02        00000 
 4.73159e-01  4.17649e-02        00000 
 4.53167e-01  4.00316e-02        00000 
 4.32081e-01  3.83305e-02        00000 
 4.11818e-01  3.70327e-02        00000 
 3.92053e-01  3.58012e-02        00000 
 3.72193e-01  3.44941e-02        00000 
 3.50185e-01  3.27498e-02        00000 
 3.27126e-01  3.11305e-02        00000 
 3.03694e-01  2.98782e-02        00000 
 2.82138e-01  2.98794e-02        00000 
 2.64474e-01  2.99612e-02        00000 
 2.46369e-01  2.99126e-02        00000 
 2.28013e-01  3.01671e-02        00000 
 2.09456e-01  3.11530e-02        00000 
 1.90384e-01  3.22234e-02        00000 
 1.72072e-01  3.09429e-02        00000 
 1.53557e-01  2.83793e-02        00000 
 1.35405e-01  2.55539e-02        00000 
 1.17530e-01  2.22914e-02        00000 
 9.95860e-02  1.92679e-02        00000 
 8.16404e-02  1.59557e-02        00000 
 6.38315e-02  1.21036e-02        00000 
 4.60318e-02  8.56322e-03        00000 
 2.92858e-02  5.24100e-03        00000 
 1.41948e-02  3.27916e-03        00000 
-1.43976e-03  1.18033e-03        00000 
 8.43394e-01  6.89178e-03        00000 
 8.29084e-01  1.36933e-02        00000 
 8.11759e-01  1.90939e-02        00000 
 7.96353e-01  2.28983e-02        00000 
 7.81304e-01  2.67465e-02        00000 
 7.66257e-01  3.04829e-02        00000 
 7.49840e-01  3.44852e-02        00000 
 7.34450e-01  3.82877e-02        00000 
 7.19949e-01  4.19390e-02        00000 
 7.03371e-01  4.48356e-02        00000 
 6.88385e-01  4.82336e-02        00000 
 6.72871e-01  5.11779e-02        00000 
 6.57052e-01  5.24827e-02        00000 
 6.41252e-01  5.33234e-02        00000 
 6.25383e-01  5.35304e-02        00000 
 6.11224e-01  5.44256e-02        00000 
 5.97563e-01  5.54845e-02        00000 
 5.80484e-01  5.61284e-02        00000 
 5.60596e-01  5.52734e-02        00000 
 5.41118e-01  5.43899e-02        00000 
 5.22408e-01  5.34698e-02        00000 
 5.04947e-01  5.18518e-02        00000 
 4.86309e-01  4.92269e-02        00000 
 4.67298e-01  4.74866e-02        00000 
 4.48047e-01  4.59210e-02        00000 
 4.28194e-01  4.44139e-02        00000 
 4.08534e-01  4.29427e-02        00000 
 3.87373e-01  4.13358e-02        00000 
 3.66024e-01  3.95125e-02        00000 
 3.43978e-01  3.73351e-02        00000 
 3.21444e-01  3.55556e-02        00000 
 2.99460e-01  3.45228e-02        00000 
 2.79001e-01  3.47043e-02        00000 
 2.59225e-01  3.50432e-02        00000 
 2.41210e-01  3.51799e-02        00000 
 2.22639e-01  3.57329e-02        00000 
 2.04109e-01  3.66683e-02        00000 
 1.85605e-01  3.61439e-02        00000 
 1.68560e-01  3.47075e-02        00000 
 1.49943e-01  3.20474e-02        00000 
 1.30418e-01  2.84877e-02        00000 
 1.12373e-01  2.48364e-02        00000 
 9.60524e-02  2.13407e-02        00000 
 7.96175e-02  1.80397e-02        00000 
 6.20301e-02  1.36955e-02        00000 
 4.47113e-02  9.87124e-03        00000 
 2.88090e-02  6.82663e-03        00000 
 1.33048e-02  3.59926e-03        00000 
-2.55415e-03  1.70524e-03        00000 
 8.23547e-01  6.18533e-03        00000 
 8.09817e-01  1.35832e-02        00000 
 7.94245e-01  2.02197e-02        00000 
 7.79623e-01  2.47909e-02        00000 
 7.64996e-01  2.91547e-02        00000 
 7.50245e-01  3.31045e-02        00000 
 7.34763e-01  3.73172e-02        00000 
 7.19608e-01  4.15058e-02        00000 
 7.03762e-01  4.51857e-02        00000 
 6.88036e-01  4.86298e-02        00000 
 6.73949e-01  5.26563e-02        00000 
 6.59877e-01  5.61855e-02        00000 
 6.45081e-01  5.88429e-02        00000 
 6.30212e-01  6.00745e-02        00000 
 6.15615e-01  6.09041e-02        00000 
 6.00694e-01  6.05229e-02        00000 
 5.85868e-01  6.15984e-02        00000 
 5.70046e-01  6.21679e-02        00000 
 5.52784e-01  6.16465e-02        00000 
 5.35444e-01  6.12279e-02        00000 
 5.17496e-01  6.02659e-02        00000 
 4.99754e-01  5.85123e-02        00000 
 4.80742e-01  5.54617e-02        00000 
 4.61551e-01  5.26360e-02        00000 
 4.42840e-01  5.10513e-02        00000 
 4.23992e-01  4.96476e-02        00000 
 4.03299e-01  4.76904e-02        00000 
 3.82045e-01  4.56600e-02        00000 
 3.60098e-01  4.37958e-02        00000 
 3.38281e-01  4.20719e-02        00000 
 3.16020e-01  4.02607e-02        00000 
 2.93473e-01  3.92007e-02        00000 
 2.74126e-01  3.95507e-02        00000 
 2.54200e-01  4.00160e-02        00000 
 2.36714e-01  4.07816e-02        00000 
 2.18485e-01  4.14171e-02        00000 
 1.99863e-01  4.07903e-02        00000 
 1.81611e-01  4.01497e-02        00000 
 1.64115e-01  3.79899e-02        00000 
 1.45379e-01  3.48224e-02        00000 
 1.26715e-01  3.08997e-02        00000 
 1.10293e-01  2.74277e-02        00000 
 9.40786e-02  2.39898e-02        00000 
 7.81669e-02  2.06230e-02        00000 
 6.04775e-02  1.69561e-02        00000 
 4.41825e-02  1.32004e-02        00000 
 2.84667e-02  8.28671e-03        00000 
 1.23198e-02  3.12627e-03        00000 
-2.25071e-03  7.31781e-04        00000 
 8.03817e-01  6.88998e-03        00000 
 7.89833e-01  1.45486e-02        00000 
 7.73498e-01  2.21642e-02        00000 
 7.57636e-01  2.66782e-02        00000 
 7.45038e-01  3.15134e-02        00000 
 7.30963e-01  3.61870e-02        00000 
 7.17219e-01  4.09675e-02        00000 
 7.03386e-01  4.52578e-02        00000 
 6.87653e-01  4.87620e-02        00000 
 6.73199e-01  5.24700e-02        00000 
 6.60020e-01  5.68884e-02        00000 
 6.47092e-01  6.12862e-02        00000 
 6.33440e-01  6.42880e-02        00000 
 6.20074e-01  6.68992e-02        00000 
 6.06278e-01  6.84953e-02        00000 
 5.91929e-01  6.89937e-02        00000 
 5.76348e-01  6.87865e-02        00000 
 5.59277e-01  6.81784e-02        00000 
 5.44294e-01  6.81740e-02        00000 
 5.29438e-01  6.78361e-02        00000 
 5.13343e-01  6.66373e-02        00000 
 4.95844e-01  6.43391e-02        00000 
 4.74968e-01  6.09779e-02        00000 
 4.55617e-01  5.75652e-02        00000 
 4.36715e-01  5.54747e-02        00000 
 4.16210e-01  5.32626e-02        00000 
 3.95536e-01  5.11941e-02        00000 
 3.75307e-01  4.95171e-02        00000 
 3.54090e-01  4.80427e-02        00000 
 3.31399e-01  4.66372e-02        00000 
 3.08277e-01  4.49141e-02        00000 
 2.87797e-01  4.38727e-02        00000 
 2.69427e-01  4.44946e-02        00000 
 2.50157e-01  4.52343e-02        00000 
 2.32575e-01  4.58992e-02        00000 
 2.14306e-01  4.51882e-02        00000 
 1.95081e-01  4.44410e-02        00000 
 1.76475e-01  4.36223e-02        00000 
 1.58736e-01  4.09740e-02        00000 
 1.41514e-01  3.70224e-02        00000 
 1.25567e-01  3.37408e-02        00000 
 1.09758e-01  3.03143e-02        00000 
 9.36428e-02  2.68856e-02        00000 
 7.70717e-02  2.34430e-02        00000 
 6.05659e-02  1.94017e-02        00000 
 4.41454e-02  1.44379e-02        00000 
 2.82623e-02  9.21293e-03        00000 
 1.25785e-02  3.27394e-03        00000 
-1.56653e-03  2.22800e-04        00000 
 7.82086e-01  8.51436e-03        00000 
 7.66378e-01  1.49235e-02        00000 
 7.50453e-01  2.19163e-02        00000 
 7.37013e-01  2.89030e-02        00000 
 7.24920e-01  3.43483e-02        00000 
 7.11862e-01  3.86278e-02        00000 
 6.99260e-01  4.29331e-02        00000 