<?xml version="1.0" encoding="utf-8"?>
<VTKFile byte_order="LittleEndian" type="UnstructuredGrid" version="0.1">
   <UnstructuredGrid>
      <Piece NumberOfCells="1408" NumberOfPoints="804">
         <Points>
            <DataArray Name="Points" NumberOfComponents="3" format="ascii" type="Float32">
-1.0000 -0.8947 0.0000
-1.0000 -0.7895 0.0000
-1.0000 -0.6842 0.0000
-1.0000 -0.5789 0.0000
-1.0000 -0.4737 0.0000
-1.0000 -0.3684 0.0000
-1.0000 -0.2632 0.0000
-1.0000 -0.1579 0.0000
-1.0000 -0.0526 0.0000
-1.0000 0.0526 0.0000
-1.0000 0.1579 0.0000
-1.0000 0.2632 0.0000
-1.0000 0.3684 0.0000
-1.0000 0.4737 0.0000
-1.0000 0.5789 0.0000
-1.0000 0.6842 0.0000
-1.0000 0.7895 0.0000
-1.0000 0.8947 0.0000
-1.0000 1.0000 0.0000
-0.8947 -0.8947 0.0000
-0.8947 -0.7895 0.0000
-0.8947 -0.6842 0.0000
-0.8947 -0.5789 0.0000
-0.8947 -0.4737 0.0000
-0.8947 -0.3684 0.0000
-0.8947 -0.2632 0.0000
-0.8947 -0.1579 0.0000
-0.8947 -0.0526 0.0000
-0.8947 0.0526 0.0000
-0.8947 0.1579 0.0000
-0.8947 0.2632 0.0000
-0.8947 0.3684 0.0000
-0.8947 0.4737 0.0000
-0.8947 0.5789 0.0000
-0.8947 0.6842 0.0000
-0.8947 0.7895 0.0000
-0.8947 0.8947 0.0000
-0.8947 1.0000 0.0000
-0.7895 -0.8947 0.0000
-0.7895 -0.7895 0.0000
-0.7895 -0.6842 0.0000
-0.7895 -0.5789 0.0000
-0.7895 -0.4737 0.0000
-0.7895 -0.3684 0.0000
-0.7895 -0.2632 0.0000
-0.7895 -0.1579 0.0000
-0.7895 -0.0526 0.0000
-0.7895 0.0526 0.0000
-0.7895 0.1579 0.0000
-0.7895 0.2632 0.0000
-0.7895 0.3684 0.0000
-0.7895 0.4737 0.0000
-0.7895 0.5789 0.0000
-0.7895 0.6842 0.0000
-0.7895 0.7895 0.0000
-0.7895 0.8947 0.0000
-0.7895 1.0000 0.0000
-0.6842 -0.8947 0.0000
-0.6842 -0.7895 0.0000
-0.6842 -0.6842 0.0000
-0.6842 -0.5789 0.0000
-0.6842 -0.4737 0.0000
-0.6842 -0.3684 0.0000
-0.6842 -0.2632 0.0000
-0.6842 -0.1579 0.0000
-0.6842 -0.0526 0.0000
-0.6842 0.0526 0.0000
-0.6842 0.1579 0.0000
-0.6842 0.2632 0.0000
-0.6842 0.3684 0.0000
-0.6842 0.4737 0.0000
-0.6842 0.5789 0.0000
-0.6842 0.6842 0.0000
-0.6842 0.7895 0.0000
-0.6842 0.8947 0.0000
-0.6842 1.0000 0.0000
-0.5789 -0.8947 0.0000
-0.5789 -0.7895 0.0000
-0.5789 -0.6842 0.0000
-0.5789 -0.5789 0.0000
-0.5789 -0.4737 0.0000
-0.5789 -0.3684 0.0000
-0.5789 -0.2632 0.0000
-0.5789 -0.1579 0.0000
-0.5789 -0.0526 0.0000
-0.5789 0.0526 0.0000
-0.5789 0.1579 0.0000
-0.5789 0.2632 0.0000
-0.5789 0.3684 0.0000
-0.5789 0.4737 0.0000
-0.5789 0.5789 0.0000
-0.5789 0.6842 0.0000
-0.5789 0.7895 0.0000
-0.5789 0.8947 0.0000
-0.5789 1.0000 0.0000
-0.4737 -0.8947 0.0000
-0.4737 -0.7895 0.0000
-0.4737 -0.6842 0.0000
-0.4737 -0.5789 0.0000
-0.4737 -0.4737 0.0000
-0.4737 -0.3684 0.0000
-0.4737 -0.2632 0.0000
-0.4737 -0.1579 0.0000
-0.4737 -0.0526 0.0000
-0.4737 0.0526 0.0000
-0.4737 0.1579 0.0000
-0.4737 0.2632 0.0000
-0.4737 0.3684 0.0000
-0.4737 0.4737 0.0000
-0.4737 0.5789 0.0000
-0.4737 0.6842 0.0000
-0.4737 0.7895 0.0000
-0.4737 0.8947 0.0000
-0.4737 1.0000 0.0000
-0.3684 -0.8947 0.0000
-0.3684 -0.7895 0.0000
-0.3684 -0.6842 0.0000
-0.3684 -0.5789 0.0000
-0.3684 -0.4737 0.0000
-0.3684 -0.3684 0.0000
-0.3684 -0.2632 0.0000
-0.3684 -0.1579 0.0000
-0.3684 -0.0526 0.0000
-0.3684 0.0526 0.0000
-0.3684 0.1579 0.0000
-0.3684 0.2632 0.0000
-0.3684 0.3684 0.0000
-0.3684 0.4737 0.0000
-0.3684 0.5789 0.0000
-0.3684 0.6842 0.0000
-0.3684 0.7895 0.0000
-0.3684 0.8947 0.0000
-0.3684 1.0000 0.0000
-0.2632 -0.8947 0.0000
-0.2632 -0.7895 0.0000
-0.2632 -0.6842 0.0000
-0.2632 -0.5789 0.0000
-0.2632 -0.4737 0.0000
-0.2632 -0.3684 0.0000
-0.2632 -0.2632 0.0000
-0.2632 0.3684 0.0000
-0.2632 0.4737 0.0000
-0.2632 0.5789 0.0000
-0.2632 0.6842 0.0000
-0.2632 0.7895 0.0000
-0.2632 0.8947 0.0000
-0.2632 1.0000 0.0000
-0.1579 -0.8947 0.0000
-0.1579 -0.7895 0.0000
-0.1579 -0.6842 0.0000
-0.1579 -0.5789 0.0000
-0.1579 -0.4737 0.0000
-0.1579 -0.3684 0.0000
-0.1579 -0.2632 0.0000
-0.1579 0.3684 0.0000
-0.1579 0.4737 0.0000
-0.1579 0.5789 0.0000
-0.1579 0.6842 0.0000
-0.1579 0.7895 0.0000
-0.1579 0.8947 0.0000
-0.1579 1.0000 0.0000
-0.0526 -0.8947 0.0000
-0.0526 -0.7895 0.0000
-0.0526 -0.6842 0.0000
-0.0526 -0.5789 0.0000
-0.0526 -0.4737 0.0000
-0.0526 -0.3684 0.0000
-0.0526 0.4737 0.0000
-0.0526 0.5789 0.0000
-0.0526 0.6842 0.0000
-0.0526 0.7895 0.0000
-0.0526 0.8947 0.0000
-0.0526 1.0000 0.0000
0.0526 -0.8947 0.0000
0.0526 -0.7895 0.0000
0.0526 -0.6842 0.0000
0.0526 -0.5789 0.0000
0.0526 -0.4737 0.0000
0.0526 -0.3684 0.0000
0.0526 0.4737 0.0000
0.0526 0.5789 0.0000
0.0526 0.6842 0.0000
0.0526 0.7895 0.0000
0.0526 0.8947 0.0000
0.0526 1.0000 0.0000
0.1579 -0.8947 0.0000
0.1579 -0.7895 0.0000
0.1579 -0.6842 0.0000
0.1579 -0.5789 0.0000
0.1579 -0.4737 0.0000
0.1579 -0.3684 0.0000
0.1579 -0.2632 0.0000
0.1579 0.3684 0.0000
0.1579 0.4737 0.0000
0.1579 0.5789 0.0000
0.1579 0.6842 0.0000
0.1579 0.7895 0.0000
0.1579 0.8947 0.0000
0.1579 1.0000 0.0000
0.2632 -0.8947 0.0000
0.2632 -0.7895 0.0000
0.2632 -0.6842 0.0000
0.2632 -0.5789 0.0000
0.2632 -0.4737 0.0000
0.2632 -0.3684 0.0000
0.2632 -0.2632 0.0000
0.2632 -0.1579 0.0000
0.2632 0.2632 0.0000
0.2632 0.3684 0.0000
0.2632 0.4737 0.0000
0.2632 0.5789 0.0000
0.2632 0.6842 0.0000
0.2632 0.7895 0.0000
0.2632 0.8947 0.0000
0.2632 1.0000 0.0000
0.3684 -0.8947 0.0000
0.3684 -0.7895 0.0000
0.3684 -0.6842 0.0000
0.3684 -0.5789 0.0000
0.3684 -0.4737 0.0000
0.3684 -0.3684 0.0000
0.3684 -0.2632 0.0000
0.3684 -0.1579 0.0000
0.3684 -0.0526 0.0000
0.3684 0.0526 0.0000
0.3684 0.1579 0.0000
0.3684 0.2632 0.0000
0.3684 0.3684 0.0000
0.3684 0.4737 0.0000
0.3684 0.5789 0.0000
0.3684 0.6842 0.0000
0.3684 0.7895 0.0000
0.3684 0.8947 0.0000
0.3684 1.0000 0.0000
0.4737 -0.8947 0.0000
0.4737 -0.7895 0.0000
0.4737 -0.6842 0.0000
0.4737 -0.5789 0.0000
0.4737 -0.4737 0.0000
0.4737 -0.3684 0.0000
0.4737 -0.2632 0.0000
0.4737 -0.1579 0.0000
0.4737 -0.0526 0.0000
0.4737 0.0526 0.0000
0.4737 0.1579 0.0000
0.4737 0.2632 0.0000
0.4737 0.3684 0.0000
0.4737 0.4737 0.0000
0.4737 0.5789 0.0000
0.4737 0.6842 0.0000
0.4737 0.7895 0.0000
0.4737 0.8947 0.0000
0.4737 1.0000 0.0000
0.5789 -0.8947 0.0000
0.5789 -0.7895 0.0000
0.5789 -0.6842 0.0000
0.5789 -0.5789 0.0000
0.5789 -0.4737 0.0000
0.5789 -0.3684 0.0000
0.5789 -0.2632 0.0000
0.5789 -0.1579 0.0000
0.5789 -0.0526 0.0000
0.5789 0.0526 0.0000
0.5789 0.1579 0.0000
0.5789 0.2632 0.0000
0.5789 0.3684 0.0000
0.5789 0.4737 0.0000
0.5789 0.5789 0.0000
0.5789 0.6842 0.0000
0.5789 0.7895 0.0000
0.5789 0.8947 0.0000
0.5789 1.0000 0.0000
0.6842 -0.8947 0.0000
0.6842 -0.7895 0.0000
0.6842 -0.6842 0.0000
0.6842 -0.5789 0.0000
0.6842 -0.4737 0.0000
0.6842 -0.3684 0.0000
0.6842 -0.2632 0.0000
0.6842 -0.1579 0.0000
0.6842 -0.0526 0.0000
0.6842 0.0526 0.0000
0.6842 0.1579 0.0000
0.6842 0.2632 0.0000
0.6842 0.3684 0.0000
0.6842 0.4737 0.0000
0.6842 0.5789 0.0000
0.6842 0.6842 0.0000
0.6842 0.7895 0.0000
0.6842 0.8947 0.0000
0.6842 1.0000 0.0000
0.7895 -0.8947 0.0000
0.7895 -0.7895 0.0000
0.7895 -0.6842 0.0000
0.7895 -0.5789 0.0000
0.7895 -0.4737 0.0000
0.7895 -0.3684 0.0000
0.7895 -0.2632 0.0000
0.7895 -0.1579 0.0000
0.7895 -0.0526 0.0000
0.7895 0.0526 0.0000
0.7895 0.1579 0.0000
0.7895 0.2632 0.0000
0.7895 0.3684 0.0000
0.7895 0.4737 0.0000
0.7895 0.5789 0.0000
0.7895 0.6842 0.0000
0.7895 0.7895 0.0000
0.7895 0.8947 0.0000
0.7895 1.0000 0.0000
0.8947 -0.8947 0.0000
0.8947 -0.7895 0.0000
0.8947 -0.6842 0.0000
0.8947 -0.5789 0.0000
0.8947 -0.4737 0.0000
0.8947 -0.3684 0.0000
0.8947 -0.2632 0.0000
0.8947 -0.1579 0.0000
0.8947 -0.0526 0.0000
0.8947 0.0526 0.0000
0.8947 0.1579 0.0000
0.8947 0.2632 0.0000
0.8947 0.3684 0.0000
0.8947 0.4737 0.0000
0.8947 0.5789 0.0000
0.8947 0.6842 0.0000
0.8947 0.7895 0.0000
0.8947 0.8947 0.0000
0.8947 1.0000 0.0000
-0.2632 -0.1579 0.0000
-0.2632 0.1579 0.0000
-0.2632 0.2632 0.0000
-0.0526 0.3684 0.0000
0.0526 0.3684 0.0000
1.0000 -0.8947 0.0000
1.0000 -0.7895 0.0000
1.0000 -0.6842 0.0000
1.0000 -0.5789 0.0000
1.0000 -0.4737 0.0000
1.0000 -0.3684 0.0000
1.0000 -0.2632 0.0000
1.0000 -0.1579 0.0000
1.0000 -0.0526 0.0000
1.0000 0.0526 0.0000
1.0000 0.1579 0.0000
1.0000 0.2632 0.0000
1.0000 0.3684 0.0000
1.0000 0.4737 0.0000
1.0000 0.5789 0.0000
1.0000 0.6842 0.0000
1.0000 0.7895 0.0000
1.0000 0.8947 0.0000
1.0000 1.0000 0.0000
-0.8947 -1.0000 0.0000
-0.7895 -1.0000 0.0000
-0.6842 -1.0000 0.0000
-0.5789 -1.0000 0.0000
-0.4737 -1.0000 0.0000
-0.3684 -1.0000 0.0000
-0.2632 -1.0000 0.0000
-0.1579 -1.0000 0.0000
-0.1579 0.2632 0.0000
-0.0526 -1.0000 0.0000
0.0526 -1.0000 0.0000
0.1579 -1.0000 0.0000
0.1579 0.2632 0.0000
0.2632 -1.0000 0.0000
0.3684 -1.0000 0.0000
0.4737 -1.0000 0.0000
0.5789 -1.0000 0.0000
0.6842 -1.0000 0.0000
0.7895 -1.0000 0.0000
0.8947 -1.0000 0.0000
1.0000 -1.0000 0.0000
-1.0000 -1.0000 0.0000
0.2632 0.1579 0.0000
-0.9474 -0.9474 0.0000
-0.9474 -0.8421 0.0000
-0.9474 -0.7368 0.0000
-0.9474 -0.6316 0.0000
-0.9474 -0.5263 0.0000
-0.9474 -0.4211 0.0000
-0.9474 -0.3158 0.0000
-0.9474 -0.2105 0.0000
-0.9474 -0.1053 0.0000
-0.9474 0.0000 0.0000
-0.9474 0.1053 0.0000
-0.9474 0.2105 0.0000
-0.9474 0.3158 0.0000
-0.9474 0.4211 0.0000
-0.9474 0.5263 0.0000
-0.9474 0.6316 0.0000
-0.9474 0.7368 0.0000
-0.9474 0.8421 0.0000
-0.9474 0.9474 0.0000
-0.8421 -0.9474 0.0000
-0.8421 -0.8421 0.0000
-0.8421 -0.7368 0.0000
-0.8421 -0.6316 0.0000
-0.8421 -0.5263 0.0000
-0.8421 -0.4211 0.0000
-0.8421 -0.3158 0.0000
-0.8421 -0.2105 0.0000
-0.8421 -0.1053 0.0000
-0.8421 0.0000 0.0000
-0.8421 0.1053 0.0000
-0.8421 0.2105 0.0000
-0.8421 0.3158 0.0000
-0.8421 0.4211 0.0000
-0.8421 0.5263 0.0000
-0.8421 0.6316 0.0000
-0.8421 0.7368 0.0000
-0.8421 0.8421 0.0000
-0.8421 0.9474 0.0000
-0.7368 -0.9474 0.0000
-0.7368 -0.8421 0.0000
-0.7368 -0.7368 0.0000
-0.7368 -0.6316 0.0000
-0.7368 -0.5263 0.0000
-0.7368 -0.4211 0.0000
-0.7368 -0.3158 0.0000
-0.7368 -0.2105 0.0000
-0.7368 -0.1053 0.0000
-0.7368 0.0000 0.0000
-0.7368 0.1053 0.0000
-0.7368 0.2105 0.0000
-0.7368 0.3158 0.0000
-0.7368 0.4211 0.0000
-0.7368 0.5263 0.0000
-0.7368 0.6316 0.0000
-0.7368 0.7368 0.0000
-0.7368 0.8421 0.0000
-0.7368 0.9474 0.0000
-0.6316 -0.9474 0.0000
-0.6316 -0.8421 0.0000
-0.6316 -0.7368 0.0000
-0.6316 -0.6316 0.0000
-0.6316 -0.5263 0.0000
-0.6316 -0.4211 0.0000
[...]
         <PointData>
            <DataArray Name="fValues" NumberOfComponents="3" format="ascii" type="Float64">
 9.91384e-04  6.72547e-02        00000 
 4.30381e-03  1.12514e-01        00000 
 1.76549e-03  1.64089e-01        00000 
-3.62882e-03  2.12538e-01        00000 
-6.63330e-03  2.57752e-01        00000 
-6.04947e-03  3.03577e-01        00000 
-4.53877e-03  3.54650e-01        00000 
 1.43940e-02  4.05502e-01        00000 
 1.13051e-02  4.64250e-01        00000 
 7.17592e-03  5.18156e-01        00000 
 3.04672e-03  5.72062e-01        00000 
-1.08249e-03  6.25968e-01        00000 
-4.18730e-03  6.79413e-01        00000 
-6.55194e-03  7.32526e-01        00000 
-9.59085e-03  7.85129e-01        00000 
-1.31653e-02  8.34181e-01        00000 
-1.67397e-02  8.83234e-01        00000 
-9.65742e-03  9.22444e-01        00000 
-6.17439e-04  9.64706e-01        00000 
-5.19952e-03  5.69506e-02        00000 
-6.20331e-03  9.71680e-02        00000 
-7.72389e-03  1.49857e-01        00000 
-9.98804e-03  2.01733e-01        00000 
-1.53823e-02  2.50182e-01        00000 
-1.19013e-02  2.86617e-01        00000 
-1.19004e-02  3.36564e-01        00000 
-1.84922e-03  3.88212e-01        00000 
-3.89629e-03  4.45553e-01        00000 
-8.02550e-03  4.99459e-01        00000 
-1.21547e-02  5.53365e-01        00000 
-1.62839e-02  6.07271e-01        00000 
-2.01330e-02  6.61051e-01        00000 
-2.24977e-02  7.14164e-01        00000 
-2.04800e-02  7.55594e-01        00000 
-1.69734e-02  7.99781e-01        00000 
-2.02354e-02  8.47082e-01        00000 
-1.10994e-02  8.88593e-01        00000 
-2.38833e-03  9.20997e-01        00000 
-1.07154e-02  4.76131e-02        00000 
-1.42212e-02  8.53868e-02        00000 
-1.82310e-02  1.34512e-01        00000 
-1.97516e-02  1.87201e-01        00000 
-2.17416e-02  2.39377e-01        00000 
-2.11045e-02  2.79662e-01        00000 
-1.71842e-02  3.17638e-01        00000 
-1.72564e-02  3.69286e-01        00000 
-1.89654e-02  4.25672e-01        00000 
-2.32269e-02  4.80763e-01        00000 
-2.73561e-02  5.34669e-01        00000 
-3.14853e-02  5.88575e-01        00000 
-3.56145e-02  6.42481e-01        00000 
-3.90249e-02  6.89276e-01        00000 
-3.24596e-02  7.27471e-01        00000 
-2.69186e-02  7.67683e-01        00000 
-2.14469e-02  8.09670e-01        00000 
-1.25947e-02  8.48159e-01        00000 
-4.12011e-03  8.72681e-01        00000 
-1.62312e-02  3.82756e-02        00000 
-2.01206e-02  7.66391e-02        00000 
-2.76923e-02  1.20664e-01        00000 
-3.02587e-02  1.71856e-01        00000 
-3.17793e-02  2.24545e-01        00000 
-3.03077e-02  2.72706e-01        00000 
-2.56214e-02  3.08125e-01        00000 
-2.25402e-02  3.50360e-01        00000 
-3.39673e-02  4.05188e-01        00000 
-3.84216e-02  4.62006e-01        00000 
-4.25576e-02  5.15972e-01        00000 
-4.66868e-02  5.69878e-01        00000 
-5.17663e-02  6.21502e-01        00000 
-5.13204e-02  6.62256e-01        00000 
-4.44905e-02  6.97972e-01        00000 
-3.84985e-02  7.36170e-01        00000 
-2.82646e-02  7.78424e-01        00000 
-1.43101e-02  7.99585e-01        00000 
-5.83546e-03  8.24106e-01        00000 
-2.17249e-02  2.92462e-02        00000 
-2.60201e-02  6.78913e-02        00000 
-3.35917e-02  1.11916e-01        00000 
-4.07658e-02  1.56510e-01        00000 
-4.07709e-02  2.07148e-01        00000 
-3.81598e-02  2.54245e-01        00000 
-3.48923e-02  3.00991e-01        00000 
-2.94796e-02  3.35274e-01        00000 
-4.21678e-02  3.84705e-01        00000 
-5.34234e-02  4.41522e-01        00000 
-5.77590e-02  4.97276e-01        00000 
-6.18882e-02  5.51182e-01        00000 
-6.78462e-02  5.95992e-01        00000 
-6.23437e-02  6.32309e-01        00000 
-5.64467e-02  6.67773e-01        00000 
-5.02343e-02  7.07043e-01        00000 
-3.59310e-02  7.34811e-01        00000 
-1.60255e-02  7.51010e-01        00000 
-7.55082e-03  7.75531e-01        00000 
-2.71175e-02  2.16236e-02        00000 
-3.19195e-02  5.91436e-02        00000 
-3.94912e-02  1.03168e-01        00000 
-4.69814e-02  1.47015e-01        00000 
-4.85563e-02  1.88118e-01        00000 
-4.54273e-02  2.34313e-01        00000 
-4.21130e-02  2.79203e-01        00000 
-3.87986e-02  3.24093e-01        00000 
-4.69801e-02  3.64222e-01        00000 
-6.53026e-02  4.21039e-01        00000 
-7.28796e-02  4.77856e-01        00000 
-7.91321e-02  5.27580e-01        00000 
-7.88553e-02  5.66042e-01        00000 
-7.32771e-02  6.01650e-01        00000 
-6.76989e-02  6.37257e-01        00000 
-5.75287e-02  6.69766e-01        00000 
-3.87843e-02  6.86213e-01        00000 
-2.03758e-02  7.03833e-01        00000 
-8.20741e-03  7.25995e-01        00000 
-2.62586e-02  3.47994e-02        00000 
-3.57331e-02  6.23237e-02        00000 
-4.52844e-02  8.89867e-02        00000 
-5.20134e-02  1.18263e-01        00000 
-5.67828e-02  1.53289e-01        00000 
-5.35270e-02  1.98095e-01        00000 
-5.02127e-02  2.42986e-01        00000 
-4.68983e-02  2.87876e-01        00000 
-5.31240e-02  3.42644e-01        00000 
-7.01150e-02  4.00556e-01        00000 
-8.82646e-02  4.56731e-01        00000 
-9.53669e-02  4.99775e-01        00000 
-8.97887e-02  5.35383e-01        00000 
-8.42105e-02  5.70991e-01        00000 
-7.84970e-02  6.08350e-01        00000 
-5.90952e-02  6.21380e-01        00000 
-4.02086e-02  6.36207e-01        00000 
-2.22558e-02  6.54293e-01        00000 
-4.69998e-03  6.72677e-01        00000 
-2.57231e-02  3.15893e-02        00000 
-3.14289e-02  5.51415e-02        00000 
-4.17385e-02  8.57720e-02        00000 
-4.90863e-02  1.07783e-01        00000 
-5.60296e-02  1.28695e-01        00000 
-5.82370e-02  1.56387e-01        00000 
-5.64160e-02  1.98213e-01        00000 
-1.00722e-01  5.04724e-01        00000 
-9.51439e-02  5.40331e-01        00000 
-7.93078e-02  5.59624e-01        00000 
-5.99060e-02  5.72653e-01        00000 
-4.05042e-02  5.85682e-01        00000 
-2.22923e-02  6.02865e-01        00000 
-4.33951e-03  6.20951e-01        00000 
-2.12289e-02  1.66651e-02        00000 
-2.69346e-02  4.02173e-02        00000 
-3.37025e-02  6.24911e-02        00000 
-4.43705e-02  8.68491e-02        00000 
-5.20119e-02  1.11469e-01        00000 
-5.36596e-02  1.39225e-01        00000 
-5.20661e-02  1.71796e-01        00000 
-1.00080e-01  4.76558e-01        00000 
-9.82817e-02  4.99472e-01        00000 
-8.02015e-02  5.11288e-01        00000 
-6.07168e-02  5.23927e-01        00000 
-4.13150e-02  5.36956e-01        00000 
-2.23289e-02  5.51436e-01        00000 
-4.37604e-03  5.69523e-01        00000 
-1.12479e-02  7.30292e-03        00000 
-2.47509e-02  2.19428e-02        00000 
-3.85137e-02  3.63671e-02        00000 
-4.67087e-02  5.69231e-02        00000 
-5.57785e-02  7.88240e-02        00000 
-6.38804e-02  1.06363e-01        00000 
-8.98422e-02  4.53774e-01        00000 
-8.13803e-02  4.64293e-01        00000 
-6.17898e-02  4.76435e-01        00000 
-4.21994e-02  4.88576e-01        00000 
-2.27240e-02  5.01259e-01        00000 
-4.41257e-03  5.18094e-01        00000 
-9.91282e-03  1.18483e-02        00000 
-1.92652e-02  2.72581e-02        00000 
-2.86175e-02  4.26678e-02        00000 
-3.79699e-02  5.80776e-02        00000 
-4.73222e-02  7.34874e-02        00000 
-5.70394e-02  8.93817e-02        00000 
-8.39560e-02  4.01433e-01        00000 
-7.40431e-02  4.18282e-01        00000 
-6.29686e-02  4.29440e-01        00000 
-4.33781e-02  4.41581e-01        00000 
-2.37877e-02  4.53723e-01        00000 
-4.49580e-03  4.66907e-01        00000 
-1.09092e-02  1.78973e-02        00000 
-1.95177e-02  3.16621e-02        00000 
-2.62227e-02  4.12176e-02        00000 
-3.22546e-02  5.17371e-02        00000 
-3.82029e-02  6.59091e-02        00000 
-4.59100e-02  8.19049e-02        00000 
-5.84542e-02  1.05338e-01        00000 
-8.45286e-02  3.24728e-01        00000 
-7.68680e-02  3.44831e-01        00000 
-6.82849e-02  3.67088e-01        00000 
-5.82440e-02  3.82789e-01        00000 
-4.45569e-02  3.94586e-01        00000 
-2.49665e-02  4.06728e-01        00000 
-5.37600e-03  4.18870e-01        00000 
-6.00157e-03  4.72843e-03        00000 
-1.19946e-02  1.37895e-02        00000 
-1.83010e-02  2.72729e-02        00000 
-2.47789e-02  4.24154e-02        00000 
-3.14491e-02  5.76912e-02        00000 
-3.91561e-02  7.36871e-02        00000 
-5.17414e-02  9.71831e-02        00000 
-6.49554e-02  1.21646e-01        00000 
-8.41219e-02  2.49199e-01        00000 
-7.64436e-02  2.69513e-01        00000 
-6.87829e-02  2.89616e-01        00000 
-6.11223e-02  3.09719e-01        00000 
-5.25979e-02  3.32600e-01        00000 
-4.24448e-02  3.47297e-01        00000 
-2.61452e-02  3.59733e-01        00000 
-6.55477e-03  3.71875e-01        00000 
-5.97962e-03 -3.88618e-03        00000 
-9.61436e-03  7.06886e-03        00000 
-1.60923e-02  2.22113e-02        00000 
-2.25703e-02  3.73537e-02        00000 
-2.90483e-02  5.24961e-02        00000 
-3.55263e-02  6.76385e-02        00000 
-4.69236e-02  9.03443e-02        00000 
-5.89086e-02  1.13953e-01        00000 
-7.14567e-02  1.37954e-01        00000 
-8.46707e-02  1.62416e-01        00000 
-8.30833e-02  1.73932e-01        00000 
-7.97193e-02  1.89265e-01        00000 
-6.84373e-02  2.13356e-01        00000 
-6.06978e-02  2.34400e-01        00000 
-5.30372e-02  2.54503e-01        00000 
-4.53765e-02  2.74606e-01        00000 
-3.67987e-02  2.97108e-01        00000 
-2.66457e-02  3.11805e-01        00000 
-7.73354e-03  3.24880e-01        00000 
-8.92603e-03 -1.35577e-03        00000 
-1.15586e-02  8.12327e-03        00000 
-1.38132e-02  1.71783e-02        00000 
-1.92641e-02  3.10604e-02        00000 
-2.50223e-02  4.53952e-02        00000 
-3.07806e-02  5.97301e-02        00000 
-3.99917e-02  7.93735e-02        00000 
-5.09238e-02  1.01663e-01        00000 
-6.18558e-02  1.23952e-01        00000 
-6.79288e-02  1.34249e-01        00000 
-6.89581e-02  1.34689e-01        00000 
-6.61618e-02  1.40092e-01        00000 
-6.27978e-02  1.55425e-01        00000 
-5.50985e-02  1.75532e-01        00000 
-4.50074e-02  1.98627e-01        00000 
-3.72915e-02  2.19391e-01        00000 
-2.96308e-02  2.39493e-01        00000 
-2.09996e-02  2.61616e-01        00000 
-8.66286e-03  2.76783e-01        00000 
-6.65981e-03 -4.67437e-03        00000 
-8.57265e-03  3.99711e-03        00000 
-1.04855e-02  1.26686e-02        00000 
-1.23983e-02  2.13401e-02        00000 
-1.65396e-02  3.32934e-02        00000 
-2.22978e-02  4.76283e-02        00000 
-2.86456e-02  6.28694e-02        00000 
-3.95776e-02  8.51588e-02        00000 
-4.80112e-02  1.01282e-01        00000 
-5.11744e-02  1.04397e-01        00000 
-5.43376e-02  1.07512e-01        00000 
-5.40052e-02  1.06246e-01        00000 
-5.02519e-02  1.06954e-01        00000 
-4.58764e-02  1.21585e-01        00000 
-4.19101e-02  1.37580e-01        00000 
-3.04403e-02  1.61840e-01        00000 
-2.15776e-02  1.83898e-01        00000 
-1.38851e-02  2.04381e-01        00000 
-5.20045e-03  2.26123e-01        00000 
-3.36923e-03 -8.92681e-03        00000 
-5.24492e-03 -5.12589e-04        00000 
-7.15775e-03  8.15889e-03        00000 
-9.07059e-03  1.68304e-02        00000 
-1.09834e-02  2.55018e-02        00000 
-1.38151e-02  3.55265e-02        00000 
-1.95733e-02  4.98613e-02        00000 
-2.80936e-02  6.83143e-02        00000 
-3.12568e-02  7.14296e-02        00000 
-3.44200e-02  7.45448e-02        00000 
-3.75832e-02  7.76600e-02        00000 
-4.07464e-02  8.07753e-02        00000 
-3.90524e-02  7.78019e-02        00000 
-3.61110e-02  7.50452e-02        00000 
-2.94651e-02  8.80988e-02        00000 
-2.55909e-02  1.03077e-01        00000 
-1.72520e-02  1.23889e-01        00000 
-5.89296e-03  1.48055e-01        00000 
 1.85227e-03  1.69168e-01        00000 
-1.12156e-03 -5.95680e-03        00000 
-2.65288e-03  7.26265e-05        00000 
-4.18421e-03  6.10206e-03        00000 
-5.74286e-03  1.23207e-02        00000 
-7.65570e-03  2.09921e-02        00000 
-9.73116e-03  2.88059e-02        00000 
-1.19771e-02  3.50259e-02        00000 
-1.50009e-02  4.32646e-02        00000 
-1.78791e-02  4.67691e-02        00000 
-2.08788e-02  4.96328e-02        00000 
-2.38784e-02  5.24966e-02        00000 
-2.68781e-02  5.53604e-02        00000 
-2.95792e-02  5.78892e-02        00000 
-2.86264e-02  5.63181e-02        00000 
-2.76737e-02  5.47470e-02        00000 
-2.14346e-02  6.55840e-02        00000 
-1.44638e-02  7.81383e-02        00000 
-9.52441e-03  9.43330e-02        00000 
 2.27021e-03  1.18093e-01        00000 
 1.14336e-03 -3.02533e-03        00000 
-4.05216e-04  3.04264e-03        00000 
-2.44129e-03  6.40981e-03        00000 
-4.48564e-03  9.73337e-03        00000 
-6.52998e-03  1.30569e-02        00000 
-7.20793e-03  1.62202e-02        00000 
-5.80504e-03  1.96167e-02        00000 
-6.24225e-03  2.51033e-02        00000 
-7.25091e-03  2.75758e-02        00000 
-1.04756e-02  2.95455e-02        00000 
-1.34753e-02  3.24093e-02        00000 
-1.64749e-02  3.52731e-02        00000 
-1.94746e-02  3.81369e-02        00000 
-2.12449e-02  3.96213e-02        00000 
-2.02922e-02  3.80502e-02        00000 
-1.93394e-02  3.64791e-02        00000 
-1.43138e-02  4.44678e-02        00000 
-7.34299e-03  5.70221e-02        00000 
-8.64736e-04  6.99184e-02        00000 
-5.57935e-02  2.47671e-01        00000 
-9.21625e-02  4.31923e-01        00000 
-1.00374e-01  4.70393e-01        00000 
-9.96271e-02  4.35779e-01        00000 
-9.26137e-02  3.79944e-01        00000 
 2.86796e-03 -4.59719e-03        00000 
 6.00405e-04 -1.88038e-03        00000 
-1.66715e-03  8.36425e-04        00000 
-3.16108e-03  3.46245e-03        00000 
-3.63763e-04  5.99507e-03        00000 
 2.08496e-03  8.72078e-03        00000 
 9.38399e-04  1.12740e-02        00000 
-2.08166e-04  1.38273e-02        00000 
-1.35473e-03  1.63805e-02        00000 
-3.12239e-03  1.51845e-02        00000 
-4.32748e-03  1.41708e-02        00000 
-6.07173e-03  1.51857e-02        00000 
-9.07138e-03  1.80495e-02        00000 
-1.20710e-02  2.09133e-02        00000 
-1.29107e-02  2.13534e-02        00000 
-1.19579e-02  1.97823e-02        00000 
-1.10052e-02  1.82111e-02        00000 
-7.26408e-03  2.35073e-02        00000 
-2.76610e-03  4.14709e-02        00000 
-3.64120e-03  2.21712e-02        00000 
-9.12406e-03  1.32926e-02        00000 
-1.45167e-02  5.66991e-03        00000 
-1.99093e-02 -1.95275e-03        00000 
-2.11682e-02  1.18971e-03        00000 
-2.06214e-02  1.48651e-02        00000 
-1.98761e-02  1.00030e-02        00000 
-1.54616e-02 -6.03107e-03        00000 
-9.77638e-02  4.42652e-01        00000 
 2.44094e-04 -9.48684e-03        00000 
-5.60466e-04 -3.56152e-03        00000 
-1.80971e-03  2.66310e-03        00000 
-9.21893e-02  3.04626e-01        00000 
-1.71602e-03 -2.32295e-03        00000 
-2.30175e-03 -1.17949e-02        00000 
-6.29349e-03 -1.08348e-02        00000 
-4.74697e-03 -1.33458e-02        00000 
-1.83790e-03 -1.49562e-02        00000 
 4.09771e-04 -1.19862e-02        00000 
 2.75067e-03 -9.22453e-03        00000 
 5.13551e-03 -7.31400e-03        00000 
 1.87464e-03  3.15087e-02        00000 
-9.29450e-02  2.27175e-01        00000 
-1.66244e-03  4.42296e-02        00000 
-1.82400e-03  8.10091e-02        00000 
-1.71004e-03  1.31186e-01        00000 
-4.11127e-03  1.82911e-01        00000 
-9.50558e-03  2.31360e-01        00000 
-9.26731e-03  2.72185e-01        00000 
-9.22243e-03  3.20202e-01        00000 
-3.24087e-03  3.71851e-01        00000 
 5.76902e-03  4.27949e-01        00000 
 1.63981e-03  4.81855e-01        00000 
-2.48939e-03  5.35761e-01        00000 
-6.61860e-03  5.89667e-01        00000 
-1.07478e-02  6.43573e-01        00000 
-1.33425e-02  6.96789e-01        00000 
-1.63590e-02  7.48519e-01        00000 
-1.32821e-02  7.92455e-01        00000 
-1.68565e-02  8.41508e-01        00000 
-1.49233e-02  8.84428e-01        00000 
-5.85619e-03  9.26964e-01        00000 
-7.17828e-03  3.48921e-02        00000 
-8.73660e-03  6.96716e-02        00000 
-1.22172e-02  1.15840e-01        00000 
-1.37377e-02  1.68529e-01        00000 
-1.58648e-02  2.20555e-01        00000 
-1.84705e-02  2.65229e-01        00000 
-1.45062e-02  3.01277e-01        00000 
-1.45784e-02  3.52925e-01        00000 
-9.23730e-03  4.07505e-01        00000 
-1.35616e-02  4.63158e-01        00000 
-1.76908e-02  5.17064e-01        00000 
-2.18200e-02  5.70970e-01        00000 
-2.59492e-02  6.24876e-01        00000 
-2.92882e-02  6.78427e-01        00000 
-2.95945e-02  7.21884e-01        00000 
-2.37630e-02  7.62640e-01        00000 
-2.05427e-02  8.05193e-01        00000 
-1.62731e-02  8.49132e-01        00000 
-7.49975e-03  8.84707e-01        00000 
-1.26941e-02  2.55546e-02        00000 
-1.42524e-02  6.03341e-02        00000 
-2.09568e-02  1.03025e-01        00000 
-2.42449e-02  1.53184e-01        00000 
-2.57654e-02  2.05873e-01        00000 
-2.76183e-02  2.58199e-01        00000 
-2.37207e-02  2.94085e-01        00000 
-1.98622e-02  3.33999e-01        00000 
-2.42392e-02  3.87021e-01        00000 
-2.86935e-02  4.43839e-01        00000 
-3.28922e-02  4.98368e-01        00000 
-3.70214e-02  5.52274e-01        00000 
-4.11507e-02  6.06179e-01        00000 
-4.69598e-02  6.56051e-01        00000 
-4.18900e-02  6.94863e-01        00000 
-3.53788e-02  7.31691e-01        00000 
-3.00447e-02  7.72261e-01        00000 
-1.76897e-02  8.11612e-01        00000 
-9.21510e-03  8.36133e-01        00000 
-1.81208e-02  1.74581e-02        00000 
-1.97683e-02  5.09966e-02        00000 
-2.68562e-02  9.42776e-02        00000 
-3.44278e-02  1.38302e-01        00000 
-3.62726e-02  1.90528e-01        00000 
-3.55727e-02  2.40211e-01        00000 
-3.29418e-02  2.87139e-01        00000 
-2.75220e-02  3.22166e-01        00000 
-3.06003e-02  3.66538e-01        00000 
-4.36953e-02  4.23355e-01        00000 
-4.80937e-02  4.79671e-01        00000 
-5.22229e-02  5.33577e-01        00000 
-5.65727e-02  5.86953e-01        00000 
-5.95906e-02  6.29127e-01        00000 
-5.39212e-02  6.65367e-01        00000 
-4.70160e-02  7.00378e-01        00000 
-4.18044e-02  7.45053e-01        00000 
-2.20148e-02  7.64937e-01        00000 
-1.09305e-02  7.87558e-01        00000 
-2.35134e-02  9.83540e-03        00000 
-2.52841e-02  4.16591e-02        00000 
-3.27556e-02  8.55298e-02        00000 
-4.03273e-02  1.29555e-01        00000 
-4.59691e-02  1.74085e-01        00000 
-4.33580e-02  2.21182e-01        00000 
-4.01414e-02  2.67955e-01        00000 
-3.67190e-02  3.14618e-01        00000 
-3.54126e-02  3.46056e-01        00000 
-5.37352e-02  4.02872e-01        00000 
-6.31515e-02  4.59689e-01        00000 
-6.74243e-02  5.14880e-01        00000 
-7.43257e-02  5.62128e-01        00000 
-7.05995e-02  5.99175e-01        00000 
-6.50213e-02  6.34783e-01        00000 
-5.90207e-02  6.70556e-01        00000 
-4.67998e-02  7.01918e-01        00000 
-2.83913e-02  7.19538e-01        00000 
-1.26458e-02  7.38984e-01        00000 
-2.25607e-02  1.98170e-02        00000 
-2.99352e-02  4.18565e-02        00000 
-3.89531e-02  7.38541e-02        00000 
-4.67132e-02  1.16028e-01        00000 
-5.17487e-02  1.52263e-01        00000 
-5.11344e-02  1.93759e-01        00000 
-4.78200e-02  2.38649e-01        00000 
-4.45056e-02  2.83539e-01        00000 
-4.30855e-02  3.30173e-01        00000 
-5.85475e-02  3.82389e-01        00000 
-7.68701e-02  4.39205e-01        00000 
-8.39386e-02  4.93031e-01        00000 
-8.71111e-02  5.32909e-01        00000 
-8.15329e-02  5.68516e-01        00000 
-7.59547e-02  6.04124e-01        00000 
-6.83907e-02  6.39228e-01        00000 
-4.91668e-02  6.52878e-01        00000 
-3.07688e-02  6.70508e-01        00000 
-1.23602e-02  6.88128e-01        00000 
-2.38604e-02  2.61877e-02        00000 
-3.00937e-02  4.93579e-02        00000 
-4.08488e-02  8.06649e-02        00000 
-4.92694e-02  1.04220e-01        00000 
-5.57170e-02  1.23830e-01        00000 
-5.89697e-02  1.54992e-01        00000 
-5.57862e-02  2.01144e-01        00000 