<?xml version="1.0" encoding="utf-8"?>
<VTKFile byte_order="LittleEndian" type="UnstructuredGrid" version="0.1">
   <UnstructuredGrid>
      <Piece NumberOfCells="1408" NumberOfPoints="804">
         <Points>
            <DataArray Name="Points" NumberOfComponents="3" format="ascii" type="Float32">
-1.0000 -0.8947 0.0000
-1.0000 -0.7895 0.0000
-1.0000 -0.6842 0.0000
-1.0000 -0.5789 0.0000
-1.0000 -0.4737 0.0000
-1.0000 -0.3684 0.0000
-1.0000 -0.2632 0.0000
-1.0000 -0.1579 0.0000
-1.0000 -0.0526 0.0000
-1.0000 0.0526 0.0000
-1.0000 0.1579 0.0000
-1.0000 0.2632 0.0000
-1.0000 0.3684 0.0000
-1.0000 0.4737 0.0000
-1.0000 0.5789 0.0000
-1.0000 0.6842 0.0000
-1.0000 0.7895 0.0000
-1.0000 0.8947 0.0000
-1.0000 1.0000 0.0000
-0.8947 -0.8947 0.0000
-0.8947 -0.7895 0.0000
-0.8947 -0.6842 0.0000
-0.8947 -0.5789 0.0000
-0.8947 -0.4737 0.0000
-0.8947 -0.3684 0.0000
-0.8947 -0.2632 0.0000
-0.8947 -0.1579 0.0000
-0.8947 -0.0526 0.0000
-0.8947 0.0526 0.0000
-0.8947 0.1579 0.0000
-0.8947 0.2632 0.0000
-0.8947 0.3684 0.0000
-0.8947 0.4737 0.0000
-0.8947 0.5789 0.0000
-0.8947 0.6842 0.0000
-0.8947 0.7895 0.0000
-0.8947 0.8947 0.0000
-0.8947 1.0000 0.0000
-0.7895 -0.8947 0.0000
-0.7895 -0.7895 0.0000
-0.7895 -0.6842 0.0000
-0.7895 -0.5789 0.0000
-0.7895 -0.4737 0.0000
-0.7895 -0.3684 0.0000
-0.7895 -0.2632 0.0000
-0.7895 -0.1579 0.0000
-0.7895 -0.0526 0.0000
-0.7895 0.0526 0.0000
-0.7895 0.1579 0.0000
-0.7895 0.2632 0.0000
-0.7895 0.3684 0.0000
-0.7895 0.4737 0.0000
-0.7895 0.5789 0.0000
-0.7895 0.6842 0.0000
-0.7895 0.7895 0.0000
-0.7895 0.8947 0.0000
-0.7895 1.0000 0.0000
-0.6842 -0.8947 0.0000
-0.6842 -0.7895 0.0000
-0.6842 -0.6842 0.0000
-0.6842 -0.5789 0.0000
-0.6842 -0.4737 0.0000
-0.6842 -0.3684 0.0000
-0.6842 -0.2632 0.0000
-0.6842 -0.1579 0.0000
-0.6842 -0.0526 0.0000
-0.6842 0.0526 0.0000
-0.6842 0.1579 0.0000
-0.6842 0.2632 0.0000
-0.6842 0.3684 0.0000
-0.6842 0.4737 0.0000
-0.6842 0.5789 0.0000
-0.6842 0.6842 0.0000
-0.6842 0.7895 0.0000
-0.6842 0.8947 0.0000
-0.6842 1.0000 0.0000
-0.5789 -0.8947 0.0000
-0.5789 -0.7895 0.0000
-0.5789 -0.6842 0.0000
-0.5789 -0.5789 0.0000
-0.5789 -0.4737 0.0000
-0.5789 -0.3684 0.0000
-0.5789 -0.2632 0.0000
-0.5789 -0.1579 0.0000
-0.5789 -0.0526 0.0000
-0.5789 0.0526 0.0000
-0.5789 0.1579 0.0000
-0.5789 0.2632 0.0000
-0.5789 0.3684 0.0000
-0.5789 0.4737 0.0000
-0.5789 0.5789 0.0000
-0.5789 0.6842 0.0000
-0.5789 0.7895 0.0000
-0.5789 0.8947 0.0000
-0.5789 1.0000 0.0000
-0.4737 -0.8947 0.0000
-0.4737 -0.7895 0.0000
-0.4737 -0.6842 0.0000
-0.4737 -0.5789 0.0000
-0.4737 -0.4737 0.0000
-0.4737 -0.3684 0.0000
-0.4737 -0.2632 0.0000
-0.4737 -0.1579 0.0000
-0.4737 -0.0526 0.0000
-0.4737 0.0526 0.0000
-0.4737 0.1579 0.0000
-0.4737 0.2632 0.0000
-0.4737 0.3684 0.0000
-0.4737 0.4737 0.0000
-0.4737 0.5789 0.0000
-0.4737 0.6842 0.0000
-0.4737 0.7895 0.0000
-0.4737 0.8947 0.0000
-0.4737 1.0000 0.0000
-0.3684 -0.8947 0.0000
-0.3684 -0.7895 0.0000
-0.3684 -0.6842 0.0000
-0.3684 -0.5789 0.0000
-0.3684 -0.4737 0.0000
-0.3684 -0.3684 0.0000
-0.3684 -0.2632 0.0000
-0.3684 -0.1579 0.0000
-0.3684 -0.0526 0.0000
-0.3684 0.0526 0.0000
-0.3684 0.1579 0.0000
-0.3684 0.2632 0.0000
-0.3684 0.3684 0.0000
-0.3684 0.4737 0.0000
-0.3684 0.5789 0.0000
-0.3684 0.6842 0.0000
-0.3684 0.7895 0.0000
-0.3684 0.8947 0.0000
-0.3684 1.0000 0.0000
-0.2632 -0.8947 0.0000
-0.2632 -0.7895 0.0000
-0.2632 -0.6842 0.0000
-0.2632 -0.5789 0.0000
-0.2632 -0.4737 0.0000
-0.2632 -0.3684 0.0000
-0.2632 -0.2632 0.0000
-0.2632 0.3684 0.0000
-0.2632 0.4737 0.0000
-0.2632 0.5789 0.0000
-0.2632 0.6842 0.0000
-0.2632 0.7895 0.0000
-0.2632 0.8947 0.0000
-0.2632 1.0000 0.0000
-0.1579 -0.8947 0.0000
-0.1579 -0.7895 0.0000
-0.1579 -0.6842 0.0000
-0.1579 -0.5789 0.0000
-0.1579 -0.4737 0.0000
-0.1579 -0.3684 0.0000
-0.1579 -0.2632 0.0000
-0.1579 0.3684 0.0000
-0.1579 0.4737 0.0000
-0.1579 0.5789 0.0000
-0.1579 0.6842 0.0000
-0.1579 0.7895 0.0000
-0.1579 0.8947 0.0000
-0.1579 1.0000 0.0000
-0.0526 -0.8947 0.0000
-0.0526 -0.7895 0.0000
-0.0526 -0.6842 0.0000
-0.0526 -0.5789 0.0000
-0.0526 -0.4737 0.0000
-0.0526 -0.3684 0.0000
-0.0526 0.4737 0.0000
-0.0526 0.5789 0.0000
-0.0526 0.6842 0.0000
-0.0526 0.7895 0.0000
-0.0526 0.8947 0.0000
-0.0526 1.0000 0.0000
0.0526 -0.8947 0.0000
0.0526 -0.7895 0.0000
0.0526 -0.6842 0.0000
0.0526 -0.5789 0.0000
0.0526 -0.4737 0.0000
0.0526 -0.3684 0.0000
0.0526 0.4737 0.0000
0.0526 0.5789 0.0000
0.0526 0.6842 0.0000
0.0526 0.7895 0.0000
0.0526 0.8947 0.0000
0.0526 1.0000 0.0000
0.1579 -0.8947 0.0000
0.1579 -0.7895 0.0000
0.1579 -0.6842 0.0000
0.1579 -0.5789 0.0000
0.1579 -0.4737 0.0000
0.1579 -0.3684 0.0000
0.1579 -0.2632 0.0000
0.1579 0.3684 0.0000
0.1579 0.4737 0.0000
0.1579 0.5789 0.0000
0.1579 0.6842 0.0000
0.1579 0.7895 0.0000
0.1579 0.8947 0.0000
0.1579 1.0000 0.0000
0.2632 -0.8947 0.0000
0.2632 -0.7895 0.0000
0.2632 -0.6842 0.0000
0.2632 -0.5789 0.0000
0.2632 -0.4737 0.0000
0.2632 -0.3684 0.0000
0.2632 -0.2632 0.0000
0.2632 -0.1579 0.0000
0.2632 0.2632 0.0000
0.2632 0.3684 0.0000
0.2632 0.4737 0.0000
0.2632 0.5789 0.0000
0.2632 0.6842 0.0000
0.2632 0.7895 0.0000
0.2632 0.8947 0.0000
0.2632 1.0000 0.0000
0.3684 -0.8947 0.0000
0.3684 -0.7895 0.0000
0.3684 -0.6842 0.0000
0.3684 -0.5789 0.0000
0.3684 -0.4737 0.0000
0.3684 -0.3684 0.0000
0.3684 -0.2632 0.0000
0.3684 -0.1579 0.0000
0.3684 -0.0526 0.0000
0.3684 0.0526 0.0000
0.3684 0.1579 0.0000
0.3684 0.2632 0.0000
0.3684 0.3684 0.0000
0.3684 0.4737 0.0000
0.3684 0.5789 0.0000
0.3684 0.6842 0.0000
0.3684 0.7895 0.0000
0.3684 0.8947 0.0000
0.3684 1.0000 0.0000
0.4737 -0.8947 0.0000
0.4737 -0.7895 0.0000
0.4737 -0.6842 0.0000
0.4737 -0.5789 0.0000
0.4737 -0.4737 0.0000
0.4737 -0.3684 0.0000
0.4737 -0.2632 0.0000
0.4737 -0.1579 0.0000
0.4737 -0.0526 0.0000
0.4737 0.0526 0.0000
0.4737 0.1579 0.0000
0.4737 0.2632 0.0000
0.4737 0.3684 0.0000
0.4737 0.4737 0.0000
0.4737 0.5789 0.0000
0.4737 0.6842 0.0000
0.4737 0.7895 0.0000
0.4737 0.8947 0.0000
0.4737 1.0000 0.0000
0.5789 -0.8947 0.0000
0.5789 -0.7895 0.0000
0.5789 -0.6842 0.0000
0.5789 -0.5789 0.0000
0.5789 -0.4737 0.0000
0.5789 -0.3684 0.0000
0.5789 -0.2632 0.0000
0.5789 -0.1579 0.0000
0.5789 -0.0526 0.0000
0.5789 0.0526 0.0000
0.5789 0.1579 0.0000
0.5789 0.2632 0.0000
0.5789 0.3684 0.0000
0.5789 0.4737 0.0000
0.5789 0.5789 0.0000
0.5789 0.6842 0.0000
0.5789 0.7895 0.0000
0.5789 0.8947 0.0000
0.5789 1.0000 0.0000
0.6842 -0.8947 0.0000
0.6842 -0.7895 0.0000
0.6842 -0.6842 0.0000
0.6842 -0.5789 0.0000
0.6842 -0.4737 0.0000
0.6842 -0.3684 0.0000
0.6842 -0.2632 0.0000
0.6842 -0.1579 0.0000
0.6842 -0.0526 0.0000
0.6842 0.0526 0.0000
0.6842 0.1579 0.0000
0.6842 0.2632 0.0000
0.6842 0.3684 0.0000
0.6842 0.4737 0.0000
0.6842 0.5789 0.0000
0.6842 0.6842 0.0000
0.6842 0.7895 0.0000
0.6842 0.8947 0.0000
0.6842 1.0000 0.0000
0.7895 -0.8947 0.0000
0.7895 -0.7895 0.0000
0.7895 -0.6842 0.0000
0.7895 -0.5789 0.0000
0.7895 -0.4737 0.0000
0.7895 -0.3684 0.0000
0.7895 -0.2632 0.0000
0.7895 -0.1579 0.0000
0.7895 -0.0526 0.0000
0.7895 0.0526 0.0000
0.7895 0.1579 0.0000
0.7895 0.2632 0.0000
0.7895 0.3684 0.0000
0.7895 0.4737 0.0000
0.7895 0.5789 0.0000
0.7895 0.6842 0.0000
0.7895 0.7895 0.0000
0.7895 0.8947 0.0000
0.7895 1.0000 0.0000
0.8947 -0.8947 0.0000
0.8947 -0.7895 0.0000
0.8947 -0.6842 0.0000
0.8947 -0.5789 0.0000
0.8947 -0.4737 0.0000
0.8947 -0.3684 0.0000
0.8947 -0.2632 0.0000
0.8947 -0.1579 0.0000
0.8947 -0.0526 0.0000
0.8947 0.0526 0.0000
0.8947 0.1579 0.0000
0.8947 0.2632 0.0000
0.8947 0.3684 0.0000
0.8947 0.4737 0.0000
0.8947 0.5789 0.0000
0.8947 0.6842 0.0000
0.8947 0.7895 0.0000
0.8947 0.8947 0.0000
0.8947 1.0000 0.0000
-0.2632 -0.1579 0.0000
-0.2632 0.1579 0.0000
-0.2632 0.2632 0.0000
-0.0526 0.3684 0.0000
0.0526 0.3684 0.0000
1.0000 -0.8947 0.0000
1.0000 -0.7895 0.0000
1.0000 -0.6842 0.0000
1.0000 -0.5789 0.0000
1.0000 -0.4737 0.0000
1.0000 -0.3684 0.0000
1.0000 -0.2632 0.0000
1.0000 -0.1579 0.0000
1.0000 -0.0526 0.0000
1.0000 0.0526 0.0000
1.0000 0.1579 0.0000
1.0000 0.2632 0.0000
1.0000 0.3684 0.0000
1.0000 0.4737 0.0000
1.0000 0.5789 0.0000
1.0000 0.6842 0.0000
1.0000 0.7895 0.0000
1.0000 0.8947 0.0000
1.0000 1.0000 0.0000
-0.8947 -1.0000 0.0000
-0.7895 -1.0000 0.0000
-0.6842 -1.0000 0.0000
-0.5789 -1.0000 0.0000
-0.4737 -1.0000 0.0000
-0.3684 -1.0000 0.0000
-0.2632 -1.0000 0.0000
-0.1579 -1.0000 0.0000
-0.1579 0.2632 0.0000
-0.0526 -1.0000 0.0000
0.0526 -1.0000 0.0000
0.1579 -1.0000 0.0000
0.1579 0.2632 0.0000
0.2632 -1.0000 0.0000
0.3684 -1.0000 0.0000
0.4737 -1.0000 0.0000
0.5789 -1.0000 0.0000
0.6842 -1.0000 0.0000
0.7895 -1.0000 0.0000
0.8947 -1.0000 0.0000
1.0000 -1.0000 0.0000
-1.0000 -1.0000 0.0000
0.2632 0.1579 0.0000
-0.9474 -0.9474 0.0000
-0.9474 -0.8421 0.0000
-0.9474 -0.7368 0.0000
-0.9474 -0.6316 0.0000
-0.9474 -0.5263 0.0000
-0.9474 -0.4211 0.0000
-0.9474 -0.3158 0.0000
-0.9474 -0.2105 0.0000
-0.9474 -0.1053 0.0000
-0.9474 0.0000 0.0000
-0.9474 0.1053 0.0000
-0.9474 0.2105 0.0000
-0.9474 0.3158 0.0000
-0.9474 0.4211 0.0000
-0.9474 0.5263 0.0000
-0.9474 0.6316 0.0000
-0.9474 0.7368 0.0000
-0.9474 0.8421 0.0000
-0.9474 0.9474 0.0000
-0.8421 -0.9474 0.0000
-0.8421 -0.8421 0.0000
-0.8421 -0.7368 0.0000
-0.8421 -0.6316 0.0000
-0.8421 -0.5263 0.0000
-0.8421 -0.4211 0.0000
-0.8421 -0.3158 0.0000
-0.8421 -0.2105 0.0000
-0.8421 -0.1053 0.0000
-0.8421 0.0000 0.0000
-0.8421 0.1053 0.0000
-0.8421 0.2105 0.0000
-0.8421 0.3158 0.0000
-0.8421 0.4211 0.0000
-0.8421 0.5263 0.0000
-0.8421 0.6316 0.0000
-0.8421 0.7368 0.0000
-0.8421 0.8421 0.0000
-0.8421 0.9474 0.0000
-0.7368 -0.9474 0.0000
-0.7368 -0.8421 0.0000
-0.7368 -0.7368 0.0000
-0.7368 -0.6316 0.0000
-0.7368 -0.5263 0.0000
-0.7368 -0.4211 0.0000
-0.7368 -0.3158 0.0000
-0.7368 -0.2105 0.0000
-0.7368 -0.1053 0.0000
-0.7368 0.0000 0.0000
-0.7368 0.1053 0.0000
-0.7368 0.2105 0.0000
-0.7368 0.3158 0.0000
-0.7368 0.4211 0.0000
-0.7368 0.5263 0.0000
-0.7368 0.6316 0.0000
-0.7368 0.7368 0.0000
-0.7368 0.8421 0.0000
-0.7368 0.9474 0.0000
-0.6316 -0.9474 0.0000
-0.6316 -0.8421 0.0000
-0.6316 -0.7368 0.0000
-0.6316 -0.6316 0.0000
-0.6316 -0.5263 0.0000
-0.6316 -0.4211 0.0000
[...]
         <PointData>
            <DataArray Name="fValues" NumberOfComponents="3" format="ascii" type="Float64">
-8.80157e-03  9.91377e-04        00000 
-1.68977e-03  4.02793e-03        00000 
 1.95907e-03  5.87500e-03        00000 
 7.31073e-04  6.04695e-03        00000 
-4.96927e-04  6.21889e-03        00000 
-1.72493e-03  6.39084e-03        00000 
-2.95293e-03  6.56278e-03        00000 
-4.18092e-03  6.73472e-03        00000 
-5.86322e-03  6.26068e-03        00000 
-1.09039e-02  1.61115e-03        00000 
-5.25314e-03  7.46370e-03        00000 
 8.97125e-04  1.32984e-02        00000 
 7.71952e-04  1.14804e-02        00000 
 6.46780e-04  9.66246e-03        00000 
 1.70186e-03  7.37043e-03        00000 
 2.84756e-03  5.04200e-03        00000 
 3.99327e-03  2.71358e-03        00000 
 8.51322e-03 -7.08080e-04        00000 
 2.41023e-02 -7.71604e-03        00000 
-5.33401e-03  2.49658e-03        00000 
 1.77779e-03  5.53313e-03        00000 
 8.88960e-03  8.56968e-03        00000 
 9.59053e-03  9.40419e-03        00000 
 8.36253e-03  9.57613e-03        00000 
 7.13453e-03  9.74808e-03        00000 
 5.90653e-03  9.92002e-03        00000 
 4.67853e-03  1.00920e-02        00000 
 4.29980e-03  5.71464e-03        00000 
 6.89087e-03  8.56171e-03        00000 
 1.51853e-02  1.70112e-02        00000 
 2.28430e-02  2.46840e-02        00000 
 2.27178e-02  2.28661e-02        00000 
 2.38163e-02  2.05566e-02        00000 
 2.49620e-02  1.82282e-02        00000 
 2.61077e-02  1.58998e-02        00000 
 3.51611e-02  1.10093e-02        00000 
 5.07502e-02  4.00134e-03        00000 
 6.63393e-02 -3.00662e-03        00000 
-2.41085e-03  4.92872e-03        00000 
 5.24535e-03  7.03833e-03        00000 
 1.23572e-02  1.00749e-02        00000 
 1.84500e-02  1.27614e-02        00000 
 1.72220e-02  1.29334e-02        00000 
 1.59940e-02  1.31053e-02        00000 
 1.47660e-02  1.32773e-02        00000 
 1.38755e-02  1.24411e-02        00000 
 1.90349e-02  9.65972e-03        00000 
 2.73294e-02  1.81092e-02        00000 
 3.56238e-02  2.65586e-02        00000 
 4.39183e-02  3.50081e-02        00000 
 4.59307e-02  3.37428e-02        00000 
 4.70764e-02  3.14144e-02        00000 
 4.82221e-02  2.90859e-02        00000 
 6.18090e-02  2.27267e-02        00000 
 7.73981e-02  1.57187e-02        00000 
 9.29872e-02  8.71076e-03        00000 
 1.10439e-01 -1.28794e-03        00000 
-1.72780e-04  4.55055e-03        00000 
 8.71292e-03  8.54353e-03        00000 
 1.58247e-02  1.15801e-02        00000 
 2.29365e-02  1.46166e-02        00000 
 2.60814e-02  1.62906e-02        00000 
 2.48534e-02  1.64626e-02        00000 
 2.36254e-02  1.66345e-02        00000 
 2.55550e-02  1.33788e-02        00000 
 3.94734e-02  1.92072e-02        00000 
 4.77678e-02  2.76567e-02        00000 
 5.61202e-02  3.61125e-02        00000 
 6.62723e-02  4.47671e-02        00000 
 6.91909e-02  4.46006e-02        00000 
 7.28678e-02  4.14520e-02        00000 
 8.84569e-02  3.44441e-02        00000 
 1.04046e-01  2.74361e-02        00000 
 1.19635e-01  2.04281e-02        00000 
 1.37516e-01  9.74024e-03        00000 
 1.57174e-01 -3.80147e-03        00000 
 2.06635e-03  4.12903e-03        00000 
 1.22365e-02  7.74470e-03        00000 
 1.92923e-02  1.30853e-02        00000 
 2.64041e-02  1.61218e-02        00000 
 3.35159e-02  1.91584e-02        00000 
 3.37129e-02  1.98198e-02        00000 
 3.28197e-02  1.89918e-02        00000 
 4.59975e-02  2.29244e-02        00000 
 5.99119e-02  2.87547e-02        00000 
 6.83277e-02  3.72175e-02        00000 
 7.84798e-02  4.58721e-02        00000 
 8.86319e-02  5.45266e-02        00000 
 9.95157e-02  5.31694e-02        00000 
 1.15105e-01  4.61614e-02        00000 
 1.30694e-01  3.91535e-02        00000 
 1.46283e-01  3.21455e-02        00000 
 1.64593e-01  2.07684e-02        00000 
 1.84447e-01  7.35480e-03        00000 
 2.09209e-01 -2.85145e-03        00000 
 1.09172e-02  1.38608e-03        00000 
 1.46775e-02  6.97957e-03        00000 
 2.27710e-02  1.41311e-02        00000 
 2.98716e-02  1.76270e-02        00000 
 3.69835e-02  2.06636e-02        00000 
 4.25724e-02  2.31771e-02        00000 
 5.17149e-02  2.70176e-02        00000 
 6.64399e-02  3.24700e-02        00000 
 8.05351e-02  3.83225e-02        00000 
 9.06872e-02  4.69771e-02        00000 
 1.00839e-01  5.56317e-02        00000 
 1.23005e-01  6.10346e-02        00000 
 1.41753e-01  5.78788e-02        00000 
 1.57342e-01  5.08709e-02        00000 
 1.72931e-01  4.38629e-02        00000 
 1.91670e-01  3.17966e-02        00000 
 2.14851e-01  2.05571e-02        00000 
 2.39612e-01  1.03508e-02        00000 
 2.64374e-01  1.44591e-04        00000 
 2.13985e-02  3.29580e-03        00000 
 2.18258e-02  5.73156e-03        00000 
 2.63406e-02  1.14442e-02        00000 
 3.33392e-02  1.91322e-02        00000 
 4.04510e-02  2.21688e-02        00000 
 5.39122e-02  2.98932e-02        00000 
 7.21574e-02  3.65632e-02        00000 
 8.70551e-02  4.20783e-02        00000 
 1.02895e-01  4.80821e-02        00000 
 1.14796e-01  5.62634e-02        00000 
 1.39908e-01  6.08687e-02        00000 
 1.65020e-01  6.54740e-02        00000 
 1.83990e-01  6.25882e-02        00000 
 1.99579e-01  5.55803e-02        00000 
 2.20493e-01  4.39656e-02        00000 
 2.45254e-01  3.37594e-02        00000 
 2.70016e-01  2.35531e-02        00000 
 2.94777e-01  1.33469e-02        00000 
 3.20049e-01  1.06584e-03        00000 
 2.73737e-02  1.17136e-02        00000 
 3.64901e-02  1.48053e-02        00000 
 3.99200e-02  1.71355e-02        00000 
 4.17804e-02  2.26491e-02        00000 
 4.96904e-02  2.93436e-02        00000 
 7.03731e-02  3.80616e-02        00000 
 9.28167e-02  4.61874e-02        00000 
 2.26227e-01  6.72977e-02        00000 
 2.50896e-01  5.71679e-02        00000 
 2.75658e-01  4.69617e-02        00000 
 3.00419e-01  3.67554e-02        00000 
 3.25181e-01  2.65492e-02        00000 
 3.49942e-01  1.63429e-02        00000 
 3.75947e-01  1.08667e-03        00000 
 2.63813e-02  1.09069e-02        00000 
 4.31727e-02  2.41594e-02        00000 
 5.15818e-02  2.63147e-02        00000 
 5.70528e-02  3.14579e-02        00000 
 6.27628e-02  3.73650e-02        00000 
 8.71898e-02  4.63576e-02        00000 
 1.14595e-01  5.62178e-02        00000 
 2.81300e-01  7.03702e-02        00000 
 3.06061e-01  6.01639e-02        00000 
 3.30822e-01  4.99577e-02        00000 
 3.55584e-01  3.97514e-02        00000 
 3.80345e-01  2.95452e-02        00000 
 4.05819e-01  1.64463e-02        00000 
 4.31844e-01  1.10751e-03        00000 
 2.53888e-02  1.01002e-02        00000 
 4.29545e-02  2.43778e-02        00000 
 5.82643e-02  3.56689e-02        00000 
 6.66734e-02  3.78242e-02        00000 
 8.62196e-02  4.76680e-02        00000 
 1.11681e-01  5.63468e-02        00000 
 3.61226e-01  6.31600e-02        00000 
 3.85987e-01  5.29537e-02        00000 
 4.10749e-01  4.27475e-02        00000 
 4.35691e-01  3.18058e-02        00000 
 4.61717e-01  1.64671e-02        00000 
 4.87742e-01  1.12834e-03        00000 
 2.43964e-02  9.29356e-03        00000 
 4.19620e-02  2.35711e-02        00000 
 5.95277e-02  3.78487e-02        00000 
 7.57174e-02  4.74785e-02        00000 
 1.02153e-01  5.68746e-02        00000 
 1.46390e-01  6.22652e-02        00000 
 4.16391e-01  6.61560e-02        00000 
 4.41152e-01  5.59498e-02        00000 
 4.65914e-01  4.57435e-02        00000 
 4.91589e-01  3.18267e-02        00000 
 5.17614e-01  1.64879e-02        00000 
 5.43639e-01  1.14918e-03        00000 
 2.34039e-02  8.48688e-03        00000 
 4.09696e-02  2.27644e-02        00000 
 5.85352e-02  3.70420e-02        00000 
 8.79146e-02  5.15237e-02        00000 
 1.30212e-01  5.81367e-02        00000 
 1.67820e-01  7.16282e-02        00000 
 2.14712e-01  8.00802e-02        00000 
 4.41682e-01  8.21670e-02        00000 
 4.68081e-01  7.10610e-02        00000 
 4.94480e-01  5.99550e-02        00000 
 5.21076e-01  4.73978e-02        00000 
 5.47486e-01  3.18475e-02        00000 
 5.73511e-01  1.65088e-02        00000 
 5.99537e-01  1.17001e-03        00000 
 2.24115e-02  7.68021e-03        00000 
 3.99771e-02  2.19578e-02        00000 
 5.95639e-02  3.61531e-02        00000 
 1.03212e-01  4.86748e-02        00000 
 1.49828e-01  6.19677e-02        00000 
 1.92573e-01  7.83353e-02        00000 
 2.39730e-01  8.85511e-02        00000 
 2.88057e-01  9.46747e-02        00000 
 4.61027e-01  9.39597e-02        00000 
 4.91092e-01  8.83247e-02        00000 
 5.17491e-01  7.72187e-02        00000 
 5.43890e-01  6.61126e-02        00000 
 5.70863e-01  5.07758e-02        00000 
 5.97911e-01  3.48748e-02        00000 
 6.24960e-01  1.89737e-02        00000 
 6.52009e-01  3.07264e-03        00000 
 2.14190e-02  6.87354e-03        00000 
 3.89847e-02  2.11511e-02        00000 
 7.27270e-02  3.35218e-02        00000 
 1.18509e-01  4.58258e-02        00000 
 1.64840e-01  5.75305e-02        00000 
 2.12732e-01  7.25021e-02        00000 
 2.65544e-01  8.62929e-02        00000 
 3.15332e-01  9.25557e-02        00000 
 3.64771e-01  9.47876e-02        00000 
 4.14210e-01  9.70195e-02        00000 
 4.61181e-01  9.91164e-02        00000 
 5.03645e-01  9.89893e-02        00000 
 5.40502e-01  9.44823e-02        00000 
 5.66901e-01  8.33763e-02        00000 
 5.93601e-01  7.00549e-02        00000 
 6.20649e-01  5.41539e-02        00000 
 6.47698e-01  3.82528e-02        00000 
 6.74747e-01  2.23517e-02        00000 
 7.01796e-01  6.45067e-03        00000 
 2.04266e-02  6.06686e-03        00000 
 3.99963e-02  2.02629e-02        00000 
 8.77781e-02  3.03814e-02        00000 
 1.33806e-01  4.29768e-02        00000 
 1.78906e-01  5.29665e-02        00000 
 2.29223e-01  6.66416e-02        00000 
 2.82412e-01  6.83324e-02        00000 
 3.37698e-01  7.80108e-02        00000 
 3.91667e-01  8.83027e-02        00000 
 4.41485e-01  9.49006e-02        00000 
 4.90924e-01  9.71325e-02        00000 
 5.40362e-01  9.93644e-02        00000 
 5.80232e-01  9.68687e-02        00000 
 6.16339e-01  8.93340e-02        00000 
 6.43387e-01  7.34330e-02        00000 
 6.70436e-01  5.75319e-02        00000 
 6.97485e-01  4.16308e-02        00000 
 7.24534e-01  2.57298e-02        00000 
 7.51582e-01  9.82870e-03        00000 
 1.94341e-02  5.26019e-03        00000 
 5.54870e-02  1.71359e-02        00000 
 1.02829e-01  2.72410e-02        00000 
 1.49103e-01  4.01279e-02        00000 
 1.94438e-01  5.10200e-02        00000 
 2.46368e-01  5.65069e-02        00000 
 2.99434e-01  5.77294e-02        00000 
 3.52983e-01  6.07883e-02        00000 
 4.08269e-01  7.04667e-02        00000 
 4.63554e-01  8.01452e-02        00000 
 5.17791e-01  9.03125e-02        00000 
 5.65587e-01  9.41840e-02        00000 
 6.10960e-01  9.03484e-02        00000 
 6.50371e-01  8.22082e-02        00000 
 6.86152e-01  7.14462e-02        00000 
 7.19786e-01  6.04451e-02        00000 
 7.47272e-01  4.50089e-02        00000 
 7.74321e-01  2.91078e-02        00000 
 8.01369e-01  1.32067e-02        00000 
 2.17021e-02  4.06845e-03        00000 
 7.15267e-02  1.38777e-02        00000 
 1.17880e-01  2.41006e-02        00000 
 1.62748e-01  3.74638e-02        00000 
 2.09451e-01  4.51125e-02        00000 
 2.63513e-01  4.63722e-02        00000 
 3.16580e-01  4.75946e-02        00000 
 3.69646e-01  4.88171e-02        00000 
 4.23553e-01  5.32442e-02        00000 
 4.78839e-01  6.29227e-02        00000 
 5.34125e-01  7.26011e-02        00000 
 5.86810e-01  7.44442e-02        00000 
 6.33780e-01  7.67514e-02        00000 
 6.77116e-01  7.20523e-02        00000 
 7.18663e-01  6.26777e-02        00000 
 7.54445e-01  5.19157e-02        00000 
 7.90226e-01  4.11536e-02        00000 
 8.22296e-01  2.99502e-02        00000 
 8.52958e-01  1.67017e-02        00000 
 3.77418e-02  8.10235e-04        00000 
 8.75665e-02  1.06195e-02        00000 
 1.32644e-01  2.13405e-02        00000 
 1.74346e-01  3.23954e-02        00000 
 2.26747e-01  3.54087e-02        00000 
 2.80658e-01  3.62374e-02        00000 
 3.33725e-01  3.74599e-02        00000 
 3.86791e-01  3.86824e-02        00000 
 4.39957e-01  3.63250e-02        00000 
 4.94283e-01  3.99633e-02        00000 
 5.48672e-01  4.88485e-02        00000 
 6.00960e-01  5.38020e-02        00000 
 6.50250e-01  5.15613e-02        00000 
 6.98667e-01  4.84163e-02        00000 
 7.42852e-01  4.73464e-02        00000 
 7.87505e-01  4.30200e-02        00000 
 8.25577e-01  3.25827e-02        00000 
 8.62682e-01  2.19127e-02        00000 
 8.97096e-01  1.09432e-02        00000 
 5.37815e-02 -2.44798e-03        00000 
 1.03606e-01  7.36125e-03        00000 
 1.44357e-01  2.01620e-02        00000 
 1.88213e-01  2.38961e-02        00000 
 2.44699e-01  2.48981e-02        00000 
 2.97803e-01  2.61027e-02        00000 
 3.50870e-01  2.73252e-02        00000 
 4.03937e-01  2.85255e-02        00000 
 4.57152e-01  2.43757e-02        00000 
 5.10367e-01  2.02259e-02        00000 
 5.62966e-01  2.29998e-02        00000 
 6.13813e-01  2.67127e-02        00000 
 6.62820e-01  2.73872e-02        00000 
 7.12086e-01  2.59090e-02        00000 
 7.61390e-01  2.30596e-02        00000 
 8.10694e-01  2.02102e-02        00000 
 8.57866e-01  1.83546e-02        00000 
 8.98679e-01  1.33866e-02        00000 
 9.35784e-01  2.71666e-03        00000 
 1.08834e-01  5.21086e-02        00000 
 1.81923e-01  6.53080e-02        00000 
 2.07036e-01  6.99134e-02        00000 
 3.36464e-01  7.33662e-02        00000 
 3.90015e-01  7.71146e-02        00000 
 6.98213e-02 -5.70620e-03        00000 
 1.17678e-01  4.72537e-03        00000 
 1.56966e-01  1.71745e-02        00000 
 2.03299e-01  1.60940e-02        00000 
 2.61882e-01  1.47455e-02        00000 
 3.14949e-01  1.59680e-02        00000 
 3.68015e-01  1.71905e-02        00000 
 4.21132e-01  1.65762e-02        00000 
 4.74348e-01  1.24264e-02        00000 
 5.27638e-01  8.31999e-03        00000 
 5.76361e-01 -3.37476e-03        00000 
 6.25726e-01 -4.09672e-03        00000 
 6.75777e-01 -2.22975e-03        00000 
 7.25829e-01 -3.62779e-04        00000 
 7.75567e-01  8.04998e-04        00000 
 8.24871e-01 -2.04439e-03        00000 
 8.74175e-01 -4.89378e-03        00000 
 9.23479e-01 -7.74317e-03        00000 
 9.71568e-01 -1.07090e-02        00000 
-1.50230e-02  2.12154e-03        00000 
-1.27839e-02  1.70001e-03        00000 
-8.39060e-03  5.22142e-04        00000 
 6.81553e-04 -2.29849e-03        00000 
 9.46466e-03 -5.11177e-03        00000 
 1.08005e-02 -1.75730e-03        00000 
 9.80808e-03 -2.56398e-03        00000 
 9.32305e-03 -2.95821e-03        00000 
 2.53950e-01  7.67130e-02        00000 
 9.32305e-03 -2.95821e-03        00000 
 9.32305e-03 -2.95821e-03        00000 
 9.32305e-03 -2.95821e-03        00000 
 4.11886e-01  8.82039e-02        00000 
 9.32305e-03 -2.95821e-03        00000 
 9.32305e-03 -2.95821e-03        00000 
 9.32305e-03 -2.95821e-03        00000 
 9.32305e-03 -2.95821e-03        00000 
 9.32305e-03 -2.95821e-03        00000 
 9.32305e-03 -2.95821e-03        00000 
 1.34065e-02 -3.54334e-03        00000 
 3.03453e-02 -5.97255e-03        00000 
-1.72040e-02  1.52299e-04        00000 
 4.23895e-01  9.51490e-02        00000 
-1.08760e-02  6.55234e-04        00000 
-3.51189e-03  3.26225e-03        00000 
 3.59991e-03  6.29881e-03        00000 
 5.77480e-03  7.63960e-03        00000 
 4.54680e-03  7.81154e-03        00000 
 3.31880e-03  7.98349e-03        00000 
 2.09080e-03  8.15543e-03        00000 
 8.62803e-04  8.32737e-03        00000 
-3.65197e-04  8.49932e-03        00000 
-3.30204e-03  3.66290e-03        00000 
 8.18866e-04  8.01270e-03        00000 
 9.11333e-03  1.64622e-02        00000 
 1.18075e-02  1.80822e-02        00000 
 1.16823e-02  1.62643e-02        00000 
 1.27591e-02  1.39635e-02        00000 
 1.39048e-02  1.16351e-02        00000 
 1.50505e-02  9.30667e-03        00000 
 2.18372e-02  5.15061e-03        00000 
 3.74262e-02 -1.85735e-03        00000 
-8.71747e-03  3.54681e-03        00000 
-4.43294e-05  4.76746e-03        00000 
 7.06748e-03  7.80401e-03        00000 
 1.41793e-02  1.08406e-02        00000 
 1.34063e-02  1.11688e-02        00000 
 1.21783e-02  1.13407e-02        00000 
 1.09503e-02  1.15127e-02        00000 
 9.72226e-03  1.16846e-02        00000 
 9.48697e-03  8.89177e-03        00000 
 1.29629e-02  9.11072e-03        00000 
 2.12573e-02  1.75602e-02        00000 
 2.95518e-02  2.60096e-02        00000 
 3.37533e-02  2.94679e-02        00000 
 3.48735e-02  2.71497e-02        00000 
 3.60192e-02  2.48213e-02        00000 
 3.71649e-02  2.24929e-02        00000 
 4.84851e-02  1.68680e-02        00000 
 6.40741e-02  9.86003e-03        00000 
 7.96632e-02  2.85207e-03        00000 
-6.47834e-03  3.12528e-03        00000 
 3.42323e-03  6.27266e-03        00000 
 1.05350e-02  9.30921e-03        00000 
 1.76468e-02  1.23458e-02        00000 
 2.22657e-02  1.45260e-02        00000 
 2.10377e-02  1.46980e-02        00000 
 1.98097e-02  1.48699e-02        00000 
 1.85817e-02  1.50419e-02        00000 
 2.26962e-02  1.13322e-02        00000 
 3.34014e-02  1.86582e-02        00000 
 4.16958e-02  2.71077e-02        00000 
 5.00165e-02  3.55600e-02        00000 
 5.69879e-02  4.03359e-02        00000 
 5.81336e-02  3.80075e-02        00000 
 5.95439e-02  3.55933e-02        00000 
 7.51330e-02  2.85854e-02        00000 
 9.07220e-02  2.15774e-02        00000 
 1.06311e-01  1.45694e-02        00000 
 1.23977e-01  4.22615e-03        00000 
-3.27275e-03  2.36442e-03        00000 
 6.13278e-03  5.97583e-03        00000 
 1.40026e-02  1.08144e-02        00000 
 2.11144e-02  1.38510e-02        00000 
 2.82262e-02  1.68875e-02        00000 
 2.98972e-02  1.80552e-02        00000 
 2.86692e-02  1.82272e-02        00000 
 2.84311e-02  1.54425e-02        00000 
 4.31387e-02  2.08778e-02        00000 
 5.38398e-02  2.82057e-02        00000 
 6.22239e-02  3.66650e-02        00000 
 7.23760e-02  4.53196e-02        00000 
 8.02481e-02  5.11936e-02        00000 
 8.61918e-02  4.73107e-02        00000 
 1.01781e-01  4.03027e-02        00000 
 1.17370e-01  3.32948e-02        00000 
 1.32959e-01  2.62868e-02        00000 
 1.51055e-01  1.52543e-02        00000 
 1.70713e-01  1.71263e-03        00000 
 5.79940e-03 -4.56203e-04        00000 
 8.37191e-03  5.55430e-03        00000 
 1.75038e-02  1.09379e-02        00000 
 2.45820e-02  1.53562e-02        00000 
 3.16938e-02  1.83927e-02        00000 
 3.87566e-02  2.14125e-02        00000 
 3.75286e-02  2.15844e-02        00000 
 4.88562e-02  2.49710e-02        00000 
 6.35812e-02  3.04235e-02        00000 
 7.44314e-02  3.77700e-02        00000 
 8.45835e-02  4.64246e-02        00000 
 9.47356e-02  5.50792e-02        00000 
 1.12840e-01  5.90281e-02        00000 
 1.28429e-01  5.20201e-02        00000 
 1.44018e-01  4.50122e-02        00000 
 1.59607e-01  3.80042e-02        00000 
 1.78132e-01  2.62825e-02        00000 
 1.99649e-01  1.39559e-02        00000 
 2.24411e-01  3.74969e-03        00000 
 1.38527e-02 -2.45893e-03        00000 
 1.60351e-02  3.22836e-03        00000 
 2.09830e-02  8.40484e-03        00000 
 2.80495e-02  1.68614e-02        00000 
 3.51613e-02  1.98979e-02        00000 
 4.22731e-02  2.29345e-02        00000 
 5.45737e-02  2.90641e-02        00000 
 6.92987e-02  3.45166e-02        00000 
 8.41743e-02  4.00237e-02        00000 
 9.67910e-02  4.75296e-02        00000 
 1.06943e-01  5.61842e-02        00000 
 1.31456e-01  6.09517e-02        00000 
 1.55077e-01  6.37375e-02        00000 
 1.70666e-01  5.67295e-02        00000 
 1.86255e-01  4.97216e-02        00000 
 2.05291e-01  3.73645e-02        00000 
 2.30053e-01  2.71582e-02        00000 
 2.54814e-01  1.69520e-02        00000 
 2.79575e-01  6.74573e-03        00000 
 1.90871e-02  4.97814e-03        00000 
 2.89443e-02  9.05053e-03        00000 
 3.08729e-02  1.14335e-02        00000 
 3.24488e-02  1.54636e-02        00000 
 3.90683e-02  2.18348e-02        00000 
 5.09056e-02  2.95131e-02        00000 
 7.50162e-02  3.86098e-02        00000 