<?xml version="1.0" encoding="utf-8"?>
<VTKFile byte_order="LittleEndian" type="UnstructuredGrid" version="0.1">
   <UnstructuredGrid>
      <Piece NumberOfCells="1408" NumberOfPoints="804">
         <Points>
            <DataArray Name="Points" NumberOfComponents="3" format="ascii" type="Float32">
-1.0000 -0.8947 0.0000
-1.0000 -0.7895 0.0000
-1.0000 -0.6842 0.0000
-1.0000 -0.5789 0.0000
-1.0000 -0.4737 0.0000
-1.0000 -0.3684 0.0000
-1.0000 -0.2632 0.0000
-1.0000 -0.1579 0.0000
-1.0000 -0.0526 0.0000
-1.0000 0.0526 0.0000
-1.0000 0.1579 0.0000
-1.0000 0.2632 0.0000
-1.0000 0.3684 0.0000
-1.0000 0.4737 0.0000
-1.0000 0.5789 0.0000
-1.0000 0.6842 0.0000
-1.0000 0.7895 0.0000
-1.0000 0.8947 0.0000
-1.0000 1.0000 0.0000
-0.8947 -0.8947 0.0000
-0.8947 -0.7895 0.0000
-0.8947 -0.6842 0.0000
-0.8947 -0.5789 0.0000
-0.8947 -0.4737 0.0000
-0.8947 -0.3684 0.0000
-0.8947 -0.2632 0.0000
-0.8947 -0.1579 0.0000
-0.8947 -0.0526 0.0000
-0.8947 0.0526 0.0000
-0.8947 0.1579 0.0000
-0.8947 0.2632 0.0000
-0.8947 0.3684 0.0000
-0.8947 0.4737 0.0000
-0.8947 0.5789 0.0000
-0.8947 0.6842 0.0000
-0.8947 0.7895 0.0000
-0.8947 0.8947 0.0000
-0.8947 1.0000 0.0000
-0.7895 -0.8947 0.0000
-0.7895 -0.7895 0.0000
-0.7895 -0.6842 0.0000
-0.7895 -0.5789 0.0000
-0.7895 -0.4737 0.0000
-0.7895 -0.3684 0.0000
-0.7895 -0.2632 0.0000
-0.7895 -0.1579 0.0000
-0.7895 -0.0526 0.0000
-0.7895 0.0526 0.0000
-0.7895 0.1579 0.0000
-0.7895 0.2632 0.0000
-0.7895 0.3684 0.0000
-0.7895 0.4737 0.0000
-0.7895 0.5789 0.0000
-0.7895 0.6842 0.0000
-0.7895 0.7895 0.0000
-0.7895 0.8947 0.0000
-0.7895 1.0000 0.0000
-0.6842 -0.8947 0.0000
-0.6842 -0.7895 0.0000
-0.6842 -0.6842 0.0000
-0.6842 -0.5789 0.0000
-0.6842 -0.4737 0.0000
-0.6842 -0.3684 0.0000
-0.6842 -0.2632 0.0000
-0.6842 -0.1579 0.0000
-0.6842 -0.0526 0.0000
-0.6842 0.0526 0.0000
-0.6842 0.1579 0.0000
-0.6842 0.2632 0.0000
-0.6842 0.3684 0.0000
-0.6842 0.4737 0.0000
-0.6842 0.5789 0.0000
-0.6842 0.6842 0.0000
-0.6842 0.7895 0.0000
-0.6842 0.8947 0.0000
-0.6842 1.0000 0.0000
-0.5789 -0.8947 0.0000
-0.5789 -0.7895 0.0000
-0.5789 -0.6842 0.0000
-0.5789 -0.5789 0.0000
-0.5789 -0.4737 0.0000
-0.5789 -0.3684 0.0000
-0.5789 -0.2632 0.0000
-0.5789 -0.1579 0.0000
-0.5789 -0.0526 0.0000
-0.5789 0.0526 0.0000
-0.5789 0.1579 0.0000
-0.5789 0.2632 0.0000
-0.5789 0.3684 0.0000
-0.5789 0.4737 0.0000
-0.5789 0.5789 0.0000
-0.5789 0.6842 0.0000
-0.5789 0.7895 0.0000
-0.5789 0.8947 0.0000
-0.5789 1.0000 0.0000
-0.4737 -0.8947 0.0000
-0.4737 -0.7895 0.0000
-0.4737 -0.6842 0.0000
-0.4737 -0.5789 0.0000
-0.4737 -0.4737 0.0000
-0.4737 -0.3684 0.0000
-0.4737 -0.2632 0.0000
-0.4737 -0.1579 0.0000
-0.4737 -0.0526 0.0000
-0.4737 0.0526 0.0000
-0.4737 0.1579 0.0000
-0.4737 0.2632 0.0000
-0.4737 0.3684 0.0000
-0.4737 0.4737 0.0000
-0.4737 0.5789 0.0000
-0.4737 0.6842 0.0000
-0.4737 0.7895 0.0000
-0.4737 0.8947 0.0000
-0.4737 1.0000 0.0000
-0.3684 -0.8947 0.0000
-0.3684 -0.7895 0.0000
-0.3684 -0.6842 0.0000
-0.3684 -0.5789 0.0000
-0.3684 -0.4737 0.0000
-0.3684 -0.3684 0.0000
-0.3684 -0.2632 0.0000
-0.3684 -0.1579 0.0000
-0.3684 -0.0526 0.0000
-0.3684 0.0526 0.0000
-0.3684 0.1579 0.0000
-0.3684 0.2632 0.0000
-0.3684 0.3684 0.0000
-0.3684 0.4737 0.0000
-0.3684 0.5789 0.0000
-0.3684 0.6842 0.0000
-0.3684 0.7895 0.0000
-0.3684 0.8947 0.0000
-0.3684 1.0000 0.0000
-0.2632 -0.8947 0.0000
-0.2632 -0.7895 0.0000
-0.2632 -0.6842 0.0000
-0.2632 -0.5789 0.0000
-0.2632 -0.4737 0.0000
-0.2632 -0.3684 0.0000
-0.2632 -0.2632 0.0000
-0.2632 0.3684 0.0000
-0.2632 0.4737 0.0000
-0.2632 0.5789 0.0000
-0.2632 0.6842 0.0000
-0.2632 0.7895 0.0000
-0.2632 0.8947 0.0000
-0.2632 1.0000 0.0000
-0.1579 -0.8947 0.0000
-0.1579 -0.7895 0.0000
-0.1579 -0.6842 0.0000
-0.1579 -0.5789 0.0000
-0.1579 -0.4737 0.0000
-0.1579 -0.3684 0.0000
-0.1579 -0.2632 0.0000
-0.1579 0.3684 0.0000
-0.1579 0.4737 0.0000
-0.1579 0.5789 0.0000
-0.1579 0.6842 0.0000
-0.1579 0.7895 0.0000
-0.1579 0.8947 0.0000
-0.1579 1.0000 0.0000
-0.0526 -0.8947 0.0000
-0.0526 -0.7895 0.0000
-0.0526 -0.6842 0.0000
-0.0526 -0.5789 0.0000
-0.0526 -0.4737 0.0000
-0.0526 -0.3684 0.0000
-0.0526 0.4737 0.0000
-0.0526 0.5789 0.0000
-0.0526 0.6842 0.0000
-0.0526 0.7895 0.0000
-0.0526 0.8947 0.0000
-0.0526 1.0000 0.0000
0.0526 -0.8947 0.0000
0.0526 -0.7895 0.0000
0.0526 -0.6842 0.0000
0.0526 -0.5789 0.0000
0.0526 -0.4737 0.0000
0.0526 -0.3684 0.0000
0.0526 0.4737 0.0000
0.0526 0.5789 0.0000
0.0526 0.6842 0.0000
0.0526 0.7895 0.0000
0.0526 0.8947 0.0000
0.0526 1.0000 0.0000
0.1579 -0.8947 0.0000
0.1579 -0.7895 0.0000
0.1579 -0.6842 0.0000
0.1579 -0.5789 0.0000
0.1579 -0.4737 0.0000
0.1579 -0.3684 0.0000
0.1579 -0.2632 0.0000
0.1579 0.3684 0.0000
0.1579 0.4737 0.0000
0.1579 0.5789 0.0000
0.1579 0.6842 0.0000
0.1579 0.7895 0.0000
0.1579 0.8947 0.0000
0.1579 1.0000 0.0000
0.2632 -0.8947 0.0000
0.2632 -0.7895 0.0000
0.2632 -0.6842 0.0000
0.2632 -0.5789 0.0000
0.2632 -0.4737 0.0000
0.2632 -0.3684 0.0000
0.2632 -0.2632 0.0000
0.2632 -0.1579 0.0000
0.2632 0.2632 0.0000
0.2632 0.3684 0.0000
0.2632 0.4737 0.0000
0.2632 0.5789 0.0000
0.2632 0.6842 0.0000
0.2632 0.7895 0.0000
0.2632 0.8947 0.0000
0.2632 1.0000 0.0000
0.3684 -0.8947 0.0000
0.3684 -0.7895 0.0000
0.3684 -0.6842 0.0000
0.3684 -0.5789 0.0000
0.3684 -0.4737 0.0000
0.3684 -0.3684 0.0000
0.3684 -0.2632 0.0000
0.3684 -0.1579 0.0000
0.3684 -0.0526 0.0000
0.3684 0.0526 0.0000
0.3684 0.1579 0.0000
0.3684 0.2632 0.0000
0.3684 0.3684 0.0000
0.3684 0.4737 0.0000
0.3684 0.5789 0.0000
0.3684 0.6842 0.0000
0.3684 0.7895 0.0000
0.3684 0.8947 0.0000
0.3684 1.0000 0.0000
0.4737 -0.8947 0.0000
0.4737 -0.7895 0.0000
0.4737 -0.6842 0.0000
0.4737 -0.5789 0.0000
0.4737 -0.4737 0.0000
0.4737 -0.3684 0.0000
0.4737 -0.2632 0.0000
0.4737 -0.1579 0.0000
0.4737 -0.0526 0.0000
0.4737 0.0526 0.0000
0.4737 0.1579 0.0000
0.4737 0.2632 0.0000
0.4737 0.3684 0.0000
0.4737 0.4737 0.0000
0.4737 0.5789 0.0000
0.4737 0.6842 0.0000
0.4737 0.7895 0.0000
0.4737 0.8947 0.0000
0.4737 1.0000 0.0000
0.5789 -0.8947 0.0000
0.5789 -0.7895 0.0000
0.5789 -0.6842 0.0000
0.5789 -0.5789 0.0000
0.5789 -0.4737 0.0000
0.5789 -0.3684 0.0000
0.5789 -0.2632 0.0000
0.5789 -0.1579 0.0000
0.5789 -0.0526 0.0000
0.5789 0.0526 0.0000
0.5789 0.1579 0.0000
0.5789 0.2632 0.0000
0.5789 0.3684 0.0000
0.5789 0.4737 0.0000
0.5789 0.5789 0.0000
0.5789 0.6842 0.0000
0.5789 0.7895 0.0000
0.5789 0.8947 0.0000
0.5789 1.0000 0.0000
0.6842 -0.8947 0.0000
0.6842 -0.7895 0.0000
0.6842 -0.6842 0.0000
0.6842 -0.5789 0.0000
0.6842 -0.4737 0.0000
0.6842 -0.3684 0.0000
0.6842 -0.2632 0.0000
0.6842 -0.1579 0.0000
0.6842 -0.0526 0.0000
0.6842 0.0526 0.0000
0.6842 0.1579 0.0000
0.6842 0.2632 0.0000
0.6842 0.3684 0.0000
0.6842 0.4737 0.0000
0.6842 0.5789 0.0000
0.6842 0.6842 0.0000
0.6842 0.7895 0.0000
0.6842 0.8947 0.0000
0.6842 1.0000 0.0000
0.7895 -0.8947 0.0000
0.7895 -0.7895 0.0000
0.7895 -0.6842 0.0000
0.7895 -0.5789 0.0000
0.7895 -0.4737 0.0000
0.7895 -0.3684 0.0000
0.7895 -0.2632 0.0000
0.7895 -0.1579 0.0000
0.7895 -0.0526 0.0000
0.7895 0.0526 0.0000
0.7895 0.1579 0.0000
0.7895 0.2632 0.0000
0.7895 0.3684 0.0000
0.7895 0.4737 0.0000
0.7895 0.5789 0.0000
0.7895 0.6842 0.0000
0.7895 0.7895 0.0000
0.7895 0.8947 0.0000
0.7895 1.0000 0.0000
0.8947 -0.8947 0.0000
0.8947 -0.7895 0.0000
0.8947 -0.6842 0.0000
0.8947 -0.5789 0.0000
0.8947 -0.4737 0.0000
0.8947 -0.3684 0.0000
0.8947 -0.2632 0.0000
0.8947 -0.1579 0.0000
0.8947 -0.0526 0.0000
0.8947 0.0526 0.0000
0.8947 0.1579 0.0000
0.8947 0.2632 0.0000
0.8947 0.3684 0.0000
0.8947 0.4737 0.0000
0.8947 0.5789 0.0000
0.8947 0.6842 0.0000
0.8947 0.7895 0.0000
0.8947 0.8947 0.0000
0.8947 1.0000 0.0000
-0.2632 -0.1579 0.0000
-0.2632 0.1579 0.0000
-0.2632 0.2632 0.0000
-0.0526 0.3684 0.0000
0.0526 0.3684 0.0000
1.0000 -0.8947 0.0000
1.0000 -0.7895 0.0000
1.0000 -0.6842 0.0000
1.0000 -0.5789 0.0000
1.0000 -0.4737 0.0000
1.0000 -0.3684 0.0000
1.0000 -0.2632 0.0000
1.0000 -0.1579 0.0000
1.0000 -0.0526 0.0000
1.0000 0.0526 0.0000
1.0000 0.1579 0.0000
1.0000 0.2632 0.0000
1.0000 0.3684 0.0000
1.0000 0.4737 0.0000
1.0000 0.5789 0.0000
1.0000 0.6842 0.0000
1.0000 0.7895 0.0000
1.0000 0.8947 0.0000
1.0000 1.0000 0.0000
-0.8947 -1.0000 0.0000
-0.7895 -1.0000 0.0000
-0.6842 -1.0000 0.0000
-0.5789 -1.0000 0.0000
-0.4737 -1.0000 0.0000
-0.3684 -1.0000 0.0000
-0.2632 -1.0000 0.0000
-0.1579 -1.0000 0.0000
-0.1579 0.2632 0.0000
-0.0526 -1.0000 0.0000
0.0526 -1.0000 0.0000
0.1579 -1.0000 0.0000
0.1579 0.2632 0.0000
0.2632 -1.0000 0.0000
0.3684 -1.0000 0.0000
0.4737 -1.0000 0.0000
0.5789 -1.0000 0.0000
0.6842 -1.0000 0.0000
0.7895 -1.0000 0.0000
0.8947 -1.0000 0.0000
1.0000 -1.0000 0.0000
-1.0000 -1.0000 0.0000
0.2632 0.1579 0.0000
-0.9474 -0.9474 0.0000
-0.9474 -0.8421 0.0000
-0.9474 -0.7368 0.0000
-0.9474 -0.6316 0.0000
-0.9474 -0.5263 0.0000
-0.9474 -0.4211 0.0000
-0.9474 -0.3158 0.0000
-0.9474 -0.2105 0.0000
-0.9474 -0.1053 0.0000
-0.9474 0.0000 0.0000
-0.9474 0.1053 0.0000
-0.9474 0.2105 0.0000
-0.9474 0.3158 0.0000
-0.9474 0.4211 0.0000
-0.9474 0.5263 0.0000
-0.9474 0.6316 0.0000
-0.9474 0.7368 0.0000
-0.9474 0.8421 0.0000
-0.9474 0.9474 0.0000
-0.8421 -0.9474 0.0000
-0.8421 -0.8421 0.0000
-0.8421 -0.7368 0.0000
-0.8421 -0.6316 0.0000
-0.8421 -0.5263 0.0000
-0.8421 -0.4211 0.0000
-0.8421 -0.3158 0.0000
-0.8421 -0.2105 0.0000
-0.8421 -0.1053 0.0000
-0.8421 0.0000 0.0000
-0.8421 0.1053 0.0000
-0.8421 0.2105 0.0000
-0.8421 0.3158 0.0000
-0.8421 0.4211 0.0000
-0.8421 0.5263 0.0000
-0.8421 0.6316 0.0000
-0.8421 0.7368 0.0000
-0.8421 0.8421 0.0000
-0.8421 0.9474 0.0000
-0.7368 -0.9474 0.0000
-0.7368 -0.8421 0.0000
-0.7368 -0.7368 0.0000
-0.7368 -0.6316 0.0000
-0.7368 -0.5263 0.0000
-0.7368 -0.4211 0.0000
-0.7368 -0.3158 0.0000
-0.7368 -0.2105 0.0000
-0.7368 -0.1053 0.0000
-0.7368 0.0000 0.0000
-0.7368 0.1053 0.0000
-0.7368 0.2105 0.0000
-0.7368 0.3158 0.0000
-0.7368 0.4211 0.0000
-0.7368 0.5263 0.0000
-0.7368 0.6316 0.0000
-0.7368 0.7368 0.0000
-0.7368 0.8421 0.0000
-0.7368 0.9474 0.0000
-0.6316 -0.9474 0.0000
-0.6316 -0.8421 0.0000
-0.6316 -0.7368 0.0000
-0.6316 -0.6316 0.0000
-0.6316 -0.5263 0.0000
-0.6316 -0.4211 0.0000
[...]
         <PointData>
            <DataArray Name="fValues" NumberOfComponents="3" format="ascii" type="Float64">
 7.80054e-02 -2.64083e-02        00000 
 1.19433e-01 -3.08066e-02        00000 
 1.63190e-01 -3.90705e-02        00000 
 2.15151e-01 -4.68392e-02        00000 
 2.68486e-01 -4.93885e-02        00000 
 3.26733e-01 -5.05554e-02        00000 
 3.86096e-01 -5.09961e-02        00000 
 4.44123e-01 -5.17648e-02        00000 
 4.93224e-01 -5.07193e-02        00000 
 5.49444e-01 -5.35365e-02        00000 
 5.92311e-01 -5.71589e-02        00000 
 6.41750e-01 -5.54549e-02        00000 
 6.88564e-01 -5.38378e-02        00000 
 7.44902e-01 -4.37844e-02        00000 
 7.95879e-01 -3.12929e-02        00000 
 8.45267e-01 -1.83659e-02        00000 
 8.91654e-01 -5.78828e-03        00000 
 9.25193e-01  2.61258e-03        00000 
 9.57259e-01  1.02138e-02        00000 
 6.62193e-02 -2.51540e-02        00000 
 1.07585e-01 -2.95487e-02        00000 
 1.49068e-01 -3.40399e-02        00000 
 1.99898e-01 -4.61102e-02        00000 
 2.53232e-01 -4.86594e-02        00000 
 3.09942e-01 -5.02590e-02        00000 
 3.68652e-01 -5.12954e-02        00000 
 4.25884e-01 -5.17721e-02        00000 
 4.80408e-01 -5.30617e-02        00000 
 5.26054e-01 -6.20334e-02        00000 
 5.69873e-01 -6.68230e-02        00000 
 6.20445e-01 -6.29929e-02        00000 
 6.68980e-01 -6.14851e-02        00000 
 7.23310e-01 -5.00388e-02        00000 
 7.72697e-01 -3.71118e-02        00000 
 8.25869e-01 -2.09963e-02        00000 
 8.55618e-01 -1.46518e-02        00000 
 8.85367e-01 -8.30718e-03        00000 
 9.15117e-01 -1.96260e-03        00000 
 5.48472e-02 -2.22788e-02        00000 
 9.57365e-02 -2.82908e-02        00000 
 1.37164e-01 -3.26892e-02        00000 
 1.84644e-01 -4.53811e-02        00000 
 2.37979e-01 -4.79303e-02        00000 
 2.93151e-01 -4.99625e-02        00000 
 3.51861e-01 -5.09990e-02        00000 
 4.06183e-01 -5.32985e-02        00000 
 4.62718e-01 -5.71193e-02        00000 
 5.00348e-01 -7.07695e-02        00000 
 5.47958e-01 -7.55071e-02        00000 
 5.99141e-01 -7.05309e-02        00000 
 6.47915e-01 -6.80110e-02        00000 
 7.00128e-01 -5.58577e-02        00000 
 7.53977e-01 -3.95173e-02        00000 
 7.83727e-01 -3.31727e-02        00000 
 8.13476e-01 -2.68281e-02        00000 
 8.43225e-01 -2.04835e-02        00000 
 8.74041e-01 -1.00852e-02        00000 
 4.38177e-02 -1.93021e-02        00000 
 8.38882e-02 -2.70329e-02        00000 
 1.25316e-01 -3.14312e-02        00000 
 1.70202e-01 -4.15682e-02        00000 
 2.22725e-01 -4.72012e-02        00000 
 2.76360e-01 -4.96661e-02        00000 
 3.34947e-01 -5.07639e-02        00000 
 3.79148e-01 -5.89676e-02        00000 
 4.37837e-01 -6.31884e-02        00000 
 4.74269e-01 -8.10006e-02        00000 
 5.26654e-01 -8.30451e-02        00000 
 5.77318e-01 -7.77848e-02        00000 
 6.26781e-01 -7.43908e-02        00000 
 6.81634e-01 -5.82304e-02        00000 
 7.11835e-01 -5.16936e-02        00000 
 7.41880e-01 -4.42249e-02        00000 
 7.72825e-01 -3.33372e-02        00000 
 8.03770e-01 -2.24496e-02        00000 
 8.29531e-01 -1.44495e-02        00000 
 3.83397e-02 -1.63998e-02        00000 
 7.20399e-02 -2.57749e-02        00000 
 1.13468e-01 -3.01733e-02        00000 
 1.56080e-01 -3.65377e-02        00000 
 2.07471e-01 -4.64722e-02        00000 
 2.60806e-01 -4.90214e-02        00000 
 3.03943e-01 -5.75477e-02        00000 
 3.48480e-01 -6.69792e-02        00000 
 4.03560e-01 -7.01032e-02        00000 
 4.53076e-01 -8.91341e-02        00000 
 5.05350e-01 -9.05831e-02        00000 
 5.54200e-01 -8.43300e-02        00000 
 6.08861e-01 -7.71259e-02        00000 
 6.40664e-01 -6.74769e-02        00000 
 6.71609e-01 -5.65893e-02        00000 
 7.02554e-01 -4.57016e-02        00000 
 7.33499e-01 -3.48139e-02        00000 
 7.62524e-01 -2.51196e-02        00000 
 7.80179e-01 -2.02667e-02        00000 
 3.33645e-02 -1.36485e-02        00000 
 6.05009e-02 -2.37104e-02        00000 
 1.01619e-01 -2.89154e-02        00000 
 1.43047e-01 -3.33137e-02        00000 
 1.92218e-01 -4.57431e-02        00000 
 2.38185e-01 -5.25352e-02        00000 
 2.77876e-01 -6.29421e-02        00000 
 3.23109e-01 -7.24988e-02        00000 
 3.69315e-01 -7.70581e-02        00000 
 4.32190e-01 -9.71181e-02        00000 
 4.83849e-01 -9.80134e-02        00000 
 5.35062e-01 -8.88699e-02        00000 
 5.70393e-01 -7.98413e-02        00000 
 6.01338e-01 -6.89536e-02        00000 
 6.32283e-01 -5.80659e-02        00000 
 6.63227e-01 -4.71782e-02        00000 
 6.91887e-01 -3.74202e-02        00000 
 7.12029e-01 -2.73163e-02        00000 
 7.30892e-01 -1.67890e-02        00000 
 2.81675e-02 -1.15145e-02        00000 
 4.91141e-02 -2.08271e-02        00000 
 8.97710e-02 -2.76574e-02        00000 
 1.31199e-01 -3.20558e-02        00000 
 1.73581e-01 -4.43801e-02        00000 
 2.12471e-01 -5.78303e-02        00000 
 2.52162e-01 -6.82373e-02        00000 
 2.97565e-01 -7.87306e-02        00000 
 3.38228e-01 -8.32367e-02        00000 
 4.11304e-01 -1.05102e-01        00000 
 4.64522e-01 -1.02649e-01        00000 
 5.00122e-01 -9.22056e-02        00000 
 5.31066e-01 -8.13179e-02        00000 
 5.62011e-01 -7.04303e-02        00000 
 5.92280e-01 -5.70444e-02        00000 
 6.19610e-01 -4.47079e-02        00000 
 6.38474e-01 -3.41806e-02        00000 
 6.57338e-01 -2.36534e-02        00000 
 6.78554e-01 -1.37703e-02        00000 
 2.26043e-02 -1.03988e-02        00000 
 4.08099e-02 -1.77659e-02        00000 
 7.79228e-02 -2.63995e-02        00000 
 1.18607e-01 -3.10798e-02        00000 
 1.50378e-01 -4.01350e-02        00000 
 1.87909e-01 -5.87489e-02        00000 
 2.26448e-01 -7.35324e-02        00000 
 4.90455e-01 -7.80475e-02        00000 
 5.20611e-01 -6.42491e-02        00000 
 5.46055e-01 -5.15722e-02        00000 
 5.64919e-01 -4.10450e-02        00000 
 5.83783e-01 -3.05177e-02        00000 
 6.05482e-01 -2.07668e-02        00000 
 6.28084e-01 -1.12626e-02        00000 
 2.01990e-02 -8.32011e-03        00000 
 3.58348e-02 -1.50146e-02        00000 
 6.61546e-02 -2.51420e-02        00000 
 9.89817e-02 -3.27720e-02        00000 
 1.30265e-01 -4.10183e-02        00000 
 1.64706e-01 -5.45038e-02        00000 
 2.01055e-01 -7.40107e-02        00000 
 4.41214e-01 -7.57868e-02        00000 
 4.68731e-01 -6.05498e-02        00000 
 4.91364e-01 -4.79093e-02        00000 
 5.10228e-01 -3.73821e-02        00000 
 5.32410e-01 -2.77632e-02        00000 
 5.55012e-01 -1.82591e-02        00000 
 5.77613e-01 -8.75491e-03        00000 
 1.80436e-02 -6.64179e-03        00000 
 3.08596e-02 -1.22633e-02        00000 
 5.41314e-02 -2.59620e-02        00000 
 7.93563e-02 -3.44642e-02        00000 
 1.10640e-01 -4.27105e-02        00000 
 1.41037e-01 -5.11577e-02        00000 
 4.08222e-01 -6.01491e-02        00000 
 4.32571e-01 -4.65994e-02        00000 
 4.59338e-01 -3.47597e-02        00000 
 4.81939e-01 -2.52556e-02        00000 
 5.04541e-01 -1.57514e-02        00000 
 5.27142e-01 -6.24723e-03        00000 
 1.59229e-02 -5.01976e-03        00000 
 2.60490e-02 -1.22026e-02        00000 
 4.66067e-02 -2.65385e-02        00000 
 6.72868e-02 -3.66025e-02        00000 
 9.10142e-02 -4.44027e-02        00000 
 1.19676e-01 -5.33152e-02        00000 
 3.48302e-01 -5.98733e-02        00000 
 3.76620e-01 -4.71644e-02        00000 
 4.04937e-01 -3.44555e-02        00000 
 4.31469e-01 -2.27479e-02        00000 
 4.54070e-01 -1.32437e-02        00000 
 4.76671e-01 -3.73955e-03        00000 
 1.32372e-02 -3.60306e-03        00000 
 2.18877e-02 -1.36543e-02        00000 
 3.94659e-02 -2.63549e-02        00000 
 5.71408e-02 -3.77270e-02        00000 
 8.14852e-02 -4.54118e-02        00000 
 1.02454e-01 -5.33561e-02        00000 
 1.14153e-01 -6.01849e-02        00000 
 2.77147e-01 -6.35712e-02        00000 
 2.98370e-01 -5.82856e-02        00000 
 3.20668e-01 -4.77294e-02        00000 
 3.48986e-01 -3.50205e-02        00000 
 3.77303e-01 -2.23115e-02        00000 
 4.03599e-01 -1.07360e-02        00000 
 4.26200e-01 -1.23186e-03        00000 
 8.65418e-03 -4.13333e-03        00000 
 1.77265e-02 -1.51059e-02        00000 
 3.36014e-02 -2.64628e-02        00000 
 5.21818e-02 -3.57098e-02        00000 
 7.75480e-02 -4.38869e-02        00000 
 7.78124e-02 -5.03887e-02        00000 
 9.09791e-02 -5.02353e-02        00000 
 1.00354e-01 -5.66463e-02        00000 
 2.05352e-01 -6.16095e-02        00000 
 2.29306e-01 -5.78182e-02        00000 
 2.53260e-01 -5.40268e-02        00000 
 2.70130e-01 -4.63586e-02        00000 
 2.93034e-01 -3.55855e-02        00000 
 3.21352e-01 -2.28766e-02        00000 
 3.49669e-01 -1.01676e-02        00000 
 3.75729e-01  1.27582e-03        00000 
 4.61627e-03 -5.54733e-03        00000 
 1.35652e-02 -1.65575e-02        00000 
 3.01365e-02 -2.39130e-02        00000 
 5.61329e-02 -3.14364e-02        00000 
 6.21221e-02 -4.04828e-02        00000 
 6.80764e-02 -3.90402e-02        00000 
 8.54632e-02 -4.54709e-02        00000 
 7.85204e-02 -4.83440e-02        00000 
 7.25692e-02 -5.07023e-02        00000 
 1.15668e-01 -4.96394e-02        00000 
 1.42374e-01 -4.72178e-02        00000 
 1.64955e-01 -5.40265e-02        00000 
 1.81465e-01 -5.20651e-02        00000 
 2.05419e-01 -4.82737e-02        00000 
 2.26065e-01 -4.26723e-02        00000 
 2.41889e-01 -3.44316e-02        00000 
 2.65400e-01 -2.34416e-02        00000 
 2.93718e-01 -1.07326e-02        00000 
 3.22035e-01  1.97631e-03        00000 
 2.36850e-03 -6.65230e-03        00000 
 1.55083e-02 -1.45065e-02        00000 
 3.57148e-02 -1.90942e-02        00000 
 4.68888e-02 -2.94444e-02        00000 
 5.12348e-02 -2.90751e-02        00000 
 6.25950e-02 -3.10214e-02        00000 
 6.75920e-02 -3.69338e-02        00000 
 6.06493e-02 -3.98068e-02        00000 
 6.20029e-02 -4.70886e-02        00000 
 1.00000e-01 -4.35351e-02        00000 
 1.16148e-01 -4.25675e-02        00000 
 1.24663e-01 -4.37334e-02        00000 
 1.40883e-01 -4.45275e-02        00000 
 1.57578e-01 -4.25207e-02        00000 
 1.81532e-01 -3.87293e-02        00000 
 1.97825e-01 -3.07453e-02        00000 
 2.13648e-01 -2.25046e-02        00000 
 2.37766e-01 -1.12977e-02        00000 
 2.66084e-01  1.41129e-03        00000 
 4.21629e-03 -4.38331e-03        00000 
 1.99779e-02 -1.04533e-02        00000 
 3.09317e-02 -1.61902e-02        00000 
 3.51806e-02 -1.93413e-02        00000 
 4.27782e-02 -2.03729e-02        00000 
 5.66636e-02 -2.55236e-02        00000 
 4.97209e-02 -2.83966e-02        00000 
 4.71016e-02 -3.31466e-02        00000 
 5.40903e-02 -3.94979e-02        00000 
 8.33465e-02 -3.75666e-02        00000 
 8.99230e-02 -3.79172e-02        00000 
 9.64995e-02 -3.82679e-02        00000 
 1.04325e-01 -3.68683e-02        00000 
 1.16812e-01 -3.50285e-02        00000 
 1.33691e-01 -3.29763e-02        00000 
 1.53761e-01 -2.70590e-02        00000 
 1.69584e-01 -1.88183e-02        00000 
 1.85408e-01 -1.05776e-02        00000 
 2.10132e-01  8.46271e-04        00000 
 6.80647e-03 -9.03255e-04        00000 
 1.51104e-02 -9.19672e-03        00000 
 1.77635e-02 -1.36113e-02        00000 
 2.65531e-02 -1.03605e-02        00000 
 3.44295e-02 -1.18462e-02        00000 
 3.87925e-02 -1.69865e-02        00000 
 3.24964e-02 -1.95238e-02        00000 
 3.82313e-02 -3.13616e-02        00000 
 4.29692e-02 -3.31347e-02        00000 
 5.71210e-02 -3.29163e-02        00000 
 6.36975e-02 -3.32669e-02        00000 
 7.02740e-02 -3.36176e-02        00000 
 7.73651e-02 -3.32469e-02        00000 
 8.65079e-02 -3.00002e-02        00000 
 9.56507e-02 -2.67536e-02        00000 
 1.09696e-01 -2.33726e-02        00000 
 1.25520e-01 -1.51320e-02        00000 
 1.41344e-01 -6.89129e-03        00000 
 1.57167e-01  1.34938e-03        00000 
 1.38489e-02  9.94911e-05        00000 
 5.34839e-03 -7.97097e-03        00000 
 9.97067e-03 -9.23977e-03        00000 
 1.79833e-02 -7.33412e-03        00000 
 2.75875e-02 -7.51947e-03        00000 
 2.09213e-02 -8.44934e-03        00000 
 2.33301e-02 -1.74196e-02        00000 
 3.02042e-02 -2.63722e-02        00000 
 3.18482e-02 -2.67715e-02        00000 
 3.08955e-02 -2.82660e-02        00000 
 3.74720e-02 -2.86166e-02        00000 
 4.40485e-02 -2.89673e-02        00000 
 5.06250e-02 -2.93180e-02        00000 
 5.95484e-02 -2.63787e-02        00000 
 6.86912e-02 -2.31321e-02        00000 
 7.70979e-02 -1.94827e-02        00000 
 8.56164e-02 -1.14219e-02        00000 
 9.72794e-02 -3.20498e-03        00000 
 1.13103e-01  5.03569e-03        00000 
-3.44109e-04  1.93997e-03        00000 
-6.76792e-03 -8.93739e-03        00000 
 1.38788e-03 -6.53724e-03        00000 
 9.40053e-03 -4.63159e-03        00000 
 9.32089e-03 -4.53923e-03        00000 
 8.04406e-03 -7.77144e-03        00000 
 1.43623e-02 -1.67221e-02        00000 
 2.08614e-02 -1.89971e-02        00000 
 2.07271e-02 -2.04082e-02        00000 
 4.66998e-03 -2.36157e-02        00000 
 1.12465e-02 -2.39663e-02        00000 
 1.78230e-02 -2.43170e-02        00000 
 2.43994e-02 -2.46677e-02        00000 
 3.25890e-02 -2.27573e-02        00000 
 4.17317e-02 -1.95106e-02        00000 
 4.93279e-02 -1.54176e-02        00000 
 5.15888e-02 -7.67832e-03        00000 
 6.31347e-02  5.37940e-04        00000 
 7.46805e-02  8.75420e-03        00000 
 2.72021e-01 -8.49624e-02        00000 
 4.29803e-01 -1.08949e-01        00000 
 4.58127e-01 -9.30632e-02        00000 
 3.83941e-01 -7.37133e-02        00000 
 3.28976e-01 -6.95296e-02        00000 
-1.17538e-02 -3.05302e-04        00000 
-1.52075e-02 -5.74035e-03        00000 
-7.19490e-03 -3.83471e-03        00000 
-8.89783e-04 -2.66989e-03        00000 
-7.63788e-03 -2.54194e-03        00000 
-1.31967e-03 -1.14926e-02        00000 
 5.28712e-03 -1.93467e-02        00000 
 9.29494e-03 -1.57199e-02        00000 
 9.58216e-03 -1.42103e-02        00000 
-2.04643e-02 -2.05752e-02        00000 
-1.49790e-02 -1.93160e-02        00000 
-8.40255e-03 -1.96667e-02        00000 
-1.82606e-03 -2.00174e-02        00000 
 5.62950e-03 -1.91358e-02        00000 
 1.47723e-02 -1.58892e-02        00000 
 2.15579e-02 -1.13526e-02        00000 
 2.26051e-02 -3.67563e-03        00000 
 2.91070e-02  4.28153e-03        00000 
 4.06529e-02  1.24978e-02        00000 
 3.58694e-02 -1.50338e-02        00000 
 3.08943e-02 -1.22825e-02        00000 
 2.54053e-02 -1.09605e-02        00000 
 2.14088e-02 -9.36707e-03        00000 
 1.91113e-02 -7.45845e-03        00000 
 1.69906e-02 -5.83643e-03        00000 
 1.48699e-02 -4.21440e-03        00000 
 1.27492e-02 -2.59237e-03        00000 
 4.08024e-01 -9.11274e-02        00000 
 1.06285e-02 -9.70345e-04        00000 
 8.50778e-03  6.51682e-04        00000 
 6.38707e-03  2.27371e-03        00000 
 2.56578e-01 -6.75368e-02        00000 
 4.26636e-03  3.89574e-03        00000 
-5.72924e-04  4.52971e-03        00000 
-5.34471e-03  4.92583e-03        00000 
-5.32526e-03  4.21226e-03        00000 
-3.20913e-03  6.91898e-03        00000 
-6.18951e-04  1.03990e-02        00000 
 8.87418e-03  1.19076e-02        00000 
-7.06895e-04  1.04643e-02        00000 
 4.08446e-02 -1.77851e-02        00000 
 1.82020e-01 -5.75131e-02        00000 
 5.20203e-02 -2.15630e-02        00000 
 9.27951e-02 -2.79785e-02        00000 
 1.34223e-01 -3.23769e-02        00000 
 1.80857e-01 -4.52001e-02        00000 
 2.34192e-01 -4.77493e-02        00000 
 2.88982e-01 -4.98890e-02        00000 
 3.47693e-01 -5.09254e-02        00000 
 4.05990e-01 -5.13841e-02        00000 
 4.56337e-01 -5.10168e-02        00000 
 5.12234e-01 -5.60799e-02        00000 
 5.58671e-01 -5.89693e-02        00000 
 6.05506e-01 -6.17120e-02        00000 
 6.51495e-01 -5.80496e-02        00000 
 7.06976e-01 -5.27078e-02        00000 
 7.59595e-01 -4.06659e-02        00000 
 8.08982e-01 -2.77388e-02        00000 
 8.61815e-01 -1.17359e-02        00000 
 8.91564e-01 -5.39129e-03        00000 
 9.21313e-01  9.53286e-04        00000 
 4.20797e-02 -1.84681e-02        00000 
 8.09468e-02 -2.67206e-02        00000 
 1.22374e-01 -3.11189e-02        00000 
 1.66696e-01 -4.03193e-02        00000 
 2.18938e-01 -4.70202e-02        00000 
 2.72273e-01 -4.95695e-02        00000 
 3.30902e-01 -5.06290e-02        00000 
 3.90053e-01 -5.10732e-02        00000 
 4.42962e-01 -5.33747e-02        00000 
 4.90515e-01 -6.20367e-02        00000 
 5.36092e-01 -6.84599e-02        00000 
 5.84202e-01 -6.92500e-02        00000 
 6.31911e-01 -6.56969e-02        00000 
 6.85841e-01 -5.90876e-02        00000 
 7.36412e-01 -4.64847e-02        00000 
 7.89923e-01 -3.02568e-02        00000 
 8.19672e-01 -2.39122e-02        00000 
 8.49422e-01 -1.75676e-02        00000 
 8.79171e-01 -1.12231e-02        00000 
 3.71046e-02 -1.57168e-02        00000 
 6.90985e-02 -2.54627e-02        00000 
 1.10526e-01 -2.98610e-02        00000 
 1.52574e-01 -3.52888e-02        00000 
 2.03684e-01 -4.62912e-02        00000 
 2.57019e-01 -4.88404e-02        00000 
 3.14110e-01 -5.03326e-02        00000 
 3.70535e-01 -5.25078e-02        00000 
 4.16406e-01 -5.82714e-02        00000 
 4.68254e-01 -6.83352e-02        00000 
 5.13655e-01 -7.81240e-02        00000 
 5.62898e-01 -7.67880e-02        00000 
 6.11109e-01 -7.26774e-02        00000 
 6.63843e-01 -6.52307e-02        00000 
 7.18020e-01 -4.87826e-02        00000 
 7.47781e-01 -4.24332e-02        00000 
 7.77530e-01 -3.60886e-02        00000 
 8.07961e-01 -2.71551e-02        00000 
 8.38906e-01 -1.62674e-02        00000 
 3.21294e-02 -1.29655e-02        00000 
 5.76740e-02 -2.29946e-02        00000 
 9.86779e-02 -2.86031e-02        00000 
 1.40106e-01 -3.30014e-02        00000 
 1.88431e-01 -4.55621e-02        00000 
 2.41766e-01 -4.81113e-02        00000 
 2.97319e-01 -5.00361e-02        00000 
 3.39531e-01 -5.92916e-02        00000 
 3.89753e-01 -6.32289e-02        00000 
 4.47343e-01 -7.62877e-02        00000 
 4.91217e-01 -8.77881e-02        00000 
 5.41593e-01 -8.43259e-02        00000 
 5.89878e-01 -7.94234e-02        00000 
 6.45247e-01 -6.76782e-02        00000 
 6.75890e-01 -6.09541e-02        00000 
 7.06745e-01 -5.04071e-02        00000 
 7.37689e-01 -3.95194e-02        00000 
 7.68634e-01 -2.86317e-02        00000 
 7.97809e-01 -1.88447e-02        00000 
 2.67864e-02 -1.12375e-02        00000 
 4.62872e-02 -2.01114e-02        00000 
 8.68296e-02 -2.73452e-02        00000 
 1.28257e-01 -3.17435e-02        00000 
 1.73708e-01 -4.28171e-02        00000 
 2.26512e-01 -4.73822e-02        00000 
 2.70888e-01 -5.50911e-02        00000 
 3.10579e-01 -6.54981e-02        00000 
 3.59935e-01 -7.01350e-02        00000 
 4.25968e-01 -8.42340e-02        00000 
 4.67782e-01 -9.71331e-02        00000 
 5.19024e-01 -9.11717e-02        00000 
 5.72723e-01 -8.41165e-02        00000 
 6.05529e-01 -7.36591e-02        00000 
 6.36473e-01 -6.27714e-02        00000 
 6.67418e-01 -5.18837e-02        00000 
 6.98363e-01 -4.09961e-02        00000 
 7.27239e-01 -3.13945e-02        00000 
 7.48610e-01 -2.39877e-02        00000 
 2.20054e-02 -9.88331e-03        00000 
 3.95748e-02 -1.70829e-02        00000 
 7.49814e-02 -2.60872e-02        00000 
 1.16409e-01 -3.04856e-02        00000 
 1.59586e-01 -3.77865e-02        00000 
 2.05483e-01 -4.99792e-02        00000 
 2.45174e-01 -6.03862e-02        00000 
 2.85109e-01 -7.07509e-02        00000 
 3.30441e-01 -7.79072e-02        00000 
 3.91723e-01 -9.11890e-02        00000 
 4.42693e-01 -1.05508e-01        00000 
 4.99792e-01 -9.57592e-02        00000 
 5.35257e-01 -8.60234e-02        00000 
 5.66202e-01 -7.51358e-02        00000 
 5.97147e-01 -6.42481e-02        00000 
 6.28092e-01 -5.33604e-02        00000 
 6.55903e-01 -4.11153e-02        00000 
 6.75251e-01 -3.07485e-02        00000 
 6.94115e-01 -2.02212e-02        00000 
 1.96378e-02 -7.86113e-03        00000 
 3.45997e-02 -1.43316e-02        00000 
 6.33277e-02 -2.44262e-02        00000 
 1.04561e-01 -2.92277e-02        00000 
 1.44061e-01 -3.43569e-02        00000 
 1.80745e-01 -5.15645e-02        00000 
 2.19460e-01 -6.56813e-02        00000 