<?xml version="1.0" encoding="utf-8"?>
<VTKFile byte_order="LittleEndian" type="UnstructuredGrid" version="0.1">
   <UnstructuredGrid>
      <Piece NumberOfCells="9608" NumberOfPoints="4908">
         <Points>
            <DataArray Name="Points" NumberOfComponents="3" format="ascii" type="Float32">
-1.0000 -0.9592 0.0000
-1.0000 -0.9184 0.0000
-1.0000 -0.8776 0.0000
-1.0000 -0.8367 0.0000
-1.0000 -0.7959 0.0000
-1.0000 -0.7551 0.0000
-1.0000 -0.7143 0.0000
-1.0000 -0.6735 0.0000
-1.0000 -0.6327 0.0000
-1.0000 -0.5918 0.0000
-1.0000 -0.5510 0.0000
-1.0000 -0.5102 0.0000
-1.0000 -0.4694 0.0000
-1.0000 -0.4286 0.0000
-1.0000 -0.3878 0.0000
-1.0000 -0.3469 0.0000
-1.0000 -0.3061 0.0000
-1.0000 -0.2653 0.0000
-1.0000 -0.2245 0.0000
-1.0000 -0.1837 0.0000
-1.0000 -0.1429 0.0000
-1.0000 -0.1020 0.0000
-1.0000 -0.0612 0.0000
-1.0000 -0.0204 0.0000
-1.0000 0.0204 0.0000
-1.0000 0.0612 0.0000
-1.0000 0.1020 0.0000
-1.0000 0.1429 0.0000
-1.0000 0.1837 0.0000
-1.0000 0.2245 0.0000
-1.0000 0.2653 0.0000
-1.0000 0.3061 0.0000
-1.0000 0.3469 0.0000
-1.0000 0.3878 0.0000
-1.0000 0.4286 0.0000
-1.0000 0.4694 0.0000
-1.0000 0.5102 0.0000
-1.0000 0.5510 0.0000
-1.0000 0.5918 0.0000
-1.0000 0.6327 0.0000
-1.0000 0.6735 0.0000
-1.0000 0.7143 0.0000
-1.0000 0.7551 0.0000
-1.0000 0.7959 0.0000
-1.0000 0.8367 0.0000
-1.0000 0.8776 0.0000
-1.0000 0.9184 0.0000
-1.0000 0.9592 0.0000
-1.0000 1.0000 0.0000
-0.9592 -0.9592 0.0000
-0.9592 -0.9184 0.0000
-0.9592 -0.8776 0.0000
-0.9592 -0.8367 0.0000
-0.9592 -0.7959 0.0000
-0.9592 -0.7551 0.0000
-0.9592 -0.7143 0.0000
-0.9592 -0.6735 0.0000
-0.9592 -0.6327 0.0000
-0.9592 -0.5918 0.0000
-0.9592 -0.5510 0.0000
-0.9592 -0.5102 0.0000
-0.9592 -0.4694 0.0000
-0.9592 -0.4286 0.0000
-0.9592 -0.3878 0.0000
-0.9592 -0.3469 0.0000
-0.9592 -0.3061 0.0000
-0.9592 -0.2653 0.0000
-0.9592 -0.2245 0.0000
-0.9592 -0.1837 0.0000
-0.9592 -0.1429 0.0000
-0.9592 -0.1020 0.0000
-0.9592 -0.0612 0.0000
-0.9592 -0.0204 0.0000
-0.9592 0.0204 0.0000
-0.9592 0.0612 0.0000
-0.9592 0.1020 0.0000
-0.9592 0.1429 0.0000
-0.9592 0.1837 0.0000
-0.9592 0.2245 0.0000
-0.9592 0.2653 0.0000
-0.9592 0.3061 0.0000
-0.9592 0.3469 0.0000
-0.9592 0.3878 0.0000
-0.9592 0.4286 0.0000
-0.9592 0.4694 0.0000
-0.9592 0.5102 0.0000
-0.9592 0.5510 0.0000
-0.9592 0.5918 0.0000
-0.9592 0.6327 0.0000
-0.9592 0.6735 0.0000
-0.9592 0.7143 0.0000
-0.9592 0.7551 0.0000
-0.9592 0.7959 0.0000
-0.9592 0.8367 0.0000
-0.9592 0.8776 0.0000
-0.9592 0.9184 0.0000
-0.9592 0.9592 0.0000
-0.9592 1.0000 0.0000
-0.9184 -0.9592 0.0000
-0.9184 -0.9184 0.0000
-0.9184 -0.8776 0.0000
-0.9184 -0.8367 0.0000
-0.9184 -0.7959 0.0000
-0.9184 -0.7551 0.0000
-0.9184 -0.7143 0.0000
-0.9184 -0.6735 0.0000
-0.9184 -0.6327 0.0000
-0.9184 -0.5918 0.0000
-0.9184 -0.5510 0.0000
-0.9184 -0.5102 0.0000
-0.9184 -0.4694 0.0000
-0.9184 -0.4286 0.0000
-0.9184 -0.3878 0.0000
-0.9184 -0.3469 0.0000
-0.9184 -0.3061 0.0000
-0.9184 -0.2653 0.0000
-0.9184 -0.2245 0.0000
-0.9184 -0.1837 0.0000
-0.9184 -0.1429 0.0000
-0.9184 -0.1020 0.0000
-0.9184 -0.0612 0.0000
-0.9184 -0.0204 0.0000
-0.9184 0.0204 0.0000
-0.9184 0.0612 0.0000
-0.9184 0.1020 0.0000
-0.9184 0.1429 0.0000
-0.9184 0.1837 0.0000
-0.9184 0.2245 0.0000
-0.9184 0.2653 0.0000
-0.9184 0.3061 0.0000
-0.9184 0.3469 0.0000
-0.9184 0.3878 0.0000
-0.9184 0.4286 0.0000
-0.9184 0.4694 0.0000
-0.9184 0.5102 0.0000
-0.9184 0.5510 0.0000
-0.9184 0.5918 0.0000
-0.9184 0.6327 0.0000
-0.9184 0.6735 0.0000
-0.9184 0.7143 0.0000
-0.9184 0.7551 0.0000
-0.9184 0.7959 0.0000
-0.9184 0.8367 0.0000
-0.9184 0.8776 0.0000
-0.9184 0.9184 0.0000
-0.9184 0.9592 0.0000
-0.9184 1.0000 0.0000
-0.8776 -0.9592 0.0000
-0.8776 -0.9184 0.0000
-0.8776 -0.8776 0.0000
-0.8776 -0.8367 0.0000
-0.8776 -0.7959 0.0000
-0.8776 -0.7551 0.0000
-0.8776 -0.7143 0.0000
-0.8776 -0.6735 0.0000
-0.8776 -0.6327 0.0000
-0.8776 -0.5918 0.0000
-0.8776 -0.5510 0.0000
-0.8776 -0.5102 0.0000
-0.8776 -0.4694 0.0000
-0.8776 -0.4286 0.0000
-0.8776 -0.3878 0.0000
-0.8776 -0.3469 0.0000
-0.8776 -0.3061 0.0000
-0.8776 -0.2653 0.0000
-0.8776 -0.2245 0.0000
-0.8776 -0.1837 0.0000
-0.8776 -0.1429 0.0000
-0.8776 -0.1020 0.0000
-0.8776 -0.0612 0.0000
-0.8776 -0.0204 0.0000
-0.8776 0.0204 0.0000
-0.8776 0.0612 0.0000
-0.8776 0.1020 0.0000
-0.8776 0.1429 0.0000
-0.8776 0.1837 0.0000
-0.8776 0.2245 0.0000
-0.8776 0.2653 0.0000
-0.8776 0.3061 0.0000
-0.8776 0.3469 0.0000
-0.8776 0.3878 0.0000
-0.8776 0.4286 0.0000
-0.8776 0.4694 0.0000
-0.8776 0.5102 0.0000
-0.8776 0.5510 0.0000
-0.8776 0.5918 0.0000
-0.8776 0.6327 0.0000
-0.8776 0.6735 0.0000
-0.8776 0.7143 0.0000
-0.8776 0.7551 0.0000
-0.8776 0.7959 0.0000
-0.8776 0.8367 0.0000
-0.8776 0.8776 0.0000
-0.8776 0.9184 0.0000
-0.8776 0.9592 0.0000
-0.8776 1.0000 0.0000
-0.8367 -0.9592 0.0000
-0.8367 -0.9184 0.0000
-0.8367 -0.8776 0.0000
-0.8367 -0.8367 0.0000
-0.8367 -0.7959 0.0000
-0.8367 -0.7551 0.0000
-0.8367 -0.7143 0.0000
-0.8367 -0.6735 0.0000
-0.8367 -0.6327 0.0000
-0.8367 -0.5918 0.0000
-0.8367 -0.5510 0.0000
-0.8367 -0.5102 0.0000
-0.8367 -0.4694 0.0000
-0.8367 -0.4286 0.0000
-0.8367 -0.3878 0.0000
-0.8367 -0.3469 0.0000
-0.8367 -0.3061 0.0000
-0.8367 -0.2653 0.0000
-0.8367 -0.2245 0.0000
-0.8367 -0.1837 0.0000
-0.8367 -0.1429 0.0000
-0.8367 -0.1020 0.0000
-0.8367 -0.0612 0.0000
-0.8367 -0.0204 0.0000
-0.8367 0.0204 0.0000
-0.8367 0.0612 0.0000
-0.8367 0.1020 0.0000
-0.8367 0.1429 0.0000
-0.8367 0.1837 0.0000
-0.8367 0.2245 0.0000
-0.8367 0.2653 0.0000
-0.8367 0.3061 0.0000
-0.8367 0.3469 0.0000
-0.8367 0.3878 0.0000
-0.8367 0.4286 0.0000
-0.8367 0.4694 0.0000
-0.8367 0.5102 0.0000
-0.8367 0.5510 0.0000
-0.8367 0.5918 0.0000
-0.8367 0.6327 0.0000
-0.8367 0.6735 0.0000
-0.8367 0.7143 0.0000
-0.8367 0.7551 0.0000
-0.8367 0.7959 0.0000
-0.8367 0.8367 0.0000
-0.8367 0.8776 0.0000
-0.8367 0.9184 0.0000
-0.8367 0.9592 0.0000
-0.8367 1.0000 0.0000
-0.7959 -0.9592 0.0000
-0.7959 -0.9184 0.0000
-0.7959 -0.8776 0.0000
-0.7959 -0.8367 0.0000
-0.7959 -0.7959 0.0000
-0.7959 -0.7551 0.0000
-0.7959 -0.7143 0.0000
-0.7959 -0.6735 0.0000
-0.7959 -0.6327 0.0000
-0.7959 -0.5918 0.0000
-0.7959 -0.5510 0.0000
-0.7959 -0.5102 0.0000
-0.7959 -0.4694 0.0000
-0.7959 -0.4286 0.0000
-0.7959 -0.3878 0.0000
-0.7959 -0.3469 0.0000
-0.7959 -0.3061 0.0000
-0.7959 -0.2653 0.0000
-0.7959 -0.2245 0.0000
-0.7959 -0.1837 0.0000
-0.7959 -0.1429 0.0000
-0.7959 -0.1020 0.0000
-0.7959 -0.0612 0.0000
-0.7959 -0.0204 0.0000
-0.7959 0.0204 0.0000
-0.7959 0.0612 0.0000
-0.7959 0.1020 0.0000
-0.7959 0.1429 0.0000
-0.7959 0.1837 0.0000
-0.7959 0.2245 0.0000
-0.7959 0.2653 0.0000
-0.7959 0.3061 0.0000
-0.7959 0.3469 0.0000
-0.7959 0.3878 0.0000
-0.7959 0.4286 0.0000
-0.7959 0.4694 0.0000
-0.7959 0.5102 0.0000
-0.7959 0.5510 0.0000
-0.7959 0.5918 0.0000
-0.7959 0.6327 0.0000
-0.7959 0.6735 0.0000
-0.7959 0.7143 0.0000
-0.7959 0.7551 0.0000
-0.7959 0.7959 0.0000
-0.7959 0.8367 0.0000
-0.7959 0.8776 0.0000
-0.7959 0.9184 0.0000
-0.7959 0.9592 0.0000
-0.7959 1.0000 0.0000
-0.7551 -0.9592 0.0000
-0.7551 -0.9184 0.0000
-0.7551 -0.8776 0.0000
-0.7551 -0.8367 0.0000
-0.7551 -0.7959 0.0000
-0.7551 -0.7551 0.0000
-0.7551 -0.7143 0.0000
-0.7551 -0.6735 0.0000
-0.7551 -0.6327 0.0000
-0.7551 -0.5918 0.0000
-0.7551 -0.5510 0.0000
-0.7551 -0.5102 0.0000
-0.7551 -0.4694 0.0000
-0.7551 -0.4286 0.0000
-0.7551 -0.3878 0.0000
-0.7551 -0.3469 0.0000
-0.7551 -0.3061 0.0000
-0.7551 -0.2653 0.0000
-0.7551 -0.2245 0.0000
-0.7551 -0.1837 0.0000
-0.7551 -0.1429 0.0000
-0.7551 -0.1020 0.0000
-0.7551 -0.0612 0.0000
-0.7551 -0.0204 0.0000
-0.7551 0.0204 0.0000
-0.7551 0.0612 0.0000
-0.7551 0.1020 0.0000
-0.7551 0.1429 0.0000
-0.7551 0.1837 0.0000
-0.7551 0.2245 0.0000
-0.7551 0.2653 0.0000
-0.7551 0.3061 0.0000
-0.7551 0.3469 0.0000
-0.7551 0.3878 0.0000
-0.7551 0.4286 0.0000
-0.7551 0.4694 0.0000
-0.7551 0.5102 0.0000
-0.7551 0.5510 0.0000
-0.7551 0.5918 0.0000
-0.7551 0.6327 0.0000
-0.7551 0.6735 0.0000
-0.7551 0.7143 0.0000
-0.7551 0.7551 0.0000
-0.7551 0.7959 0.0000
-0.7551 0.8367 0.0000
-0.7551 0.8776 0.0000
-0.7551 0.9184 0.0000
-0.7551 0.9592 0.0000
-0.7551 1.0000 0.0000
-0.7143 -0.9592 0.0000
-0.7143 -0.9184 0.0000
-0.7143 -0.8776 0.0000
-0.7143 -0.8367 0.0000
-0.7143 -0.7959 0.0000
-0.7143 -0.7551 0.0000
-0.7143 -0.7143 0.0000
-0.7143 -0.6735 0.0000
-0.7143 -0.6327 0.0000
-0.7143 -0.5918 0.0000
-0.7143 -0.5510 0.0000
-0.7143 -0.5102 0.0000
-0.7143 -0.4694 0.0000
-0.7143 -0.4286 0.0000
-0.7143 -0.3878 0.0000
-0.7143 -0.3469 0.0000
-0.7143 -0.3061 0.0000
-0.7143 -0.2653 0.0000
-0.7143 -0.2245 0.0000
-0.7143 -0.1837 0.0000
-0.7143 -0.1429 0.0000
-0.7143 -0.1020 0.0000
-0.7143 -0.0612 0.0000
-0.7143 -0.0204 0.0000
-0.7143 0.0204 0.0000
-0.7143 0.0612 0.0000
-0.7143 0.1020 0.0000
-0.7143 0.1429 0.0000
-0.7143 0.1837 0.0000
-0.7143 0.2245 0.0000
-0.7143 0.2653 0.0000
-0.7143 0.3061 0.0000
-0.7143 0.3469 0.0000
-0.7143 0.3878 0.0000
-0.7143 0.4286 0.0000
-0.7143 0.4694 0.0000
-0.7143 0.5102 0.0000
-0.7143 0.5510 0.0000
-0.7143 0.5918 0.0000
-0.7143 0.6327 0.0000
-0.7143 0.6735 0.0000
-0.7143 0.7143 0.0000
-0.7143 0.7551 0.0000
-0.7143 0.7959 0.0000
-0.7143 0.8367 0.0000
-0.7143 0.8776 0.0000
-0.7143 0.9184 0.0000
-0.7143 0.9592 0.0000
-0.7143 1.0000 0.0000
-0.6735 -0.9592 0.0000
-0.6735 -0.9184 0.0000
-0.6735 -0.8776 0.0000
-0.6735 -0.8367 0.0000
-0.6735 -0.7959 0.0000
-0.6735 -0.7551 0.0000
-0.6735 -0.7143 0.0000
-0.6735 -0.6735 0.0000
-0.6735 -0.6327 0.0000
-0.6735 -0.5918 0.0000
-0.6735 -0.5510 0.0000
-0.6735 -0.5102 0.0000
-0.6735 -0.4694 0.0000
-0.6735 -0.4286 0.0000
-0.6735 -0.3878 0.0000
-0.6735 -0.3469 0.0000
-0.6735 -0.3061 0.0000
-0.6735 -0.2653 0.0000
-0.6735 -0.2245 0.0000
-0.6735 -0.1837 0.0000
-0.6735 -0.1429 0.0000
-0.6735 -0.1020 0.0000
-0.6735 -0.0612 0.0000
-0.6735 -0.0204 0.0000
-0.6735 0.0204 0.0000
-0.6735 0.0612 0.0000
-0.6735 0.1020 0.0000
-0.6735 0.1429 0.0000
-0.6735 0.1837 0.0000
-0.6735 0.2245 0.0000
-0.6735 0.2653 0.0000
-0.6735 0.3061 0.0000
-0.6735 0.3469 0.0000
-0.6735 0.3878 0.0000
-0.6735 0.4286 0.0000
-0.6735 0.4694 0.0000
-0.6735 0.5102 0.0000
-0.6735 0.5510 0.0000
-0.6735 0.5918 0.0000
[...]
         <PointData>
            <DataArray Name="fValues" NumberOfComponents="3" format="ascii" type="Float64">
-1.39084e-03  9.78844e-01        00000 
-4.61630e-04  9.59317e-01        00000 
-1.94799e-04  9.39778e-01        00000 
 2.66831e-04  9.19789e-01        00000 
 1.30280e-03  9.00092e-01        00000 
 2.03520e-03  8.80506e-01        00000 
 3.35964e-04  8.57524e-01        00000 
-5.01441e-04  8.34358e-01        00000 
-9.05827e-04  8.10425e-01        00000 
-7.41180e-04  7.92766e-01        00000 
-4.51024e-04  7.76282e-01        00000 
-4.52852e-04  7.52050e-01        00000 
 2.86280e-05  7.29241e-01        00000 
 3.89998e-04  7.07275e-01        00000 
 7.68714e-04  6.87409e-01        00000 
 5.21669e-04  6.69305e-01        00000 
-5.35549e-04  6.47754e-01        00000 
-1.33760e-03  6.26970e-01        00000 
-1.70279e-03  6.08087e-01        00000 
-9.06090e-04  5.88314e-01        00000 
 1.52358e-04  5.67129e-01        00000 
 2.26847e-03  5.46770e-01        00000 
 3.49670e-03  5.26312e-01        00000 
 3.20145e-03  5.05082e-01        00000 
 2.76324e-03  4.84601e-01        00000 
 2.49206e-03  4.64881e-01        00000 
 2.29381e-03  4.48179e-01        00000 
 2.30149e-03  4.30470e-01        00000 
 2.09867e-03  4.11744e-01        00000 
 2.17753e-03  3.91137e-01        00000 
 2.19441e-03  3.68709e-01        00000 
 2.55119e-03  3.45998e-01        00000 
 3.01063e-03  3.25999e-01        00000 
 2.84780e-03  3.06344e-01        00000 
 2.74023e-03  2.85452e-01        00000 
 2.17246e-03  2.64206e-01        00000 
 1.40085e-03  2.42100e-01        00000 
 1.19185e-03  2.22149e-01        00000 
 1.47128e-03  2.02760e-01        00000 
 1.87943e-03  1.82086e-01        00000 
 2.24524e-03  1.60565e-01        00000 
 2.37900e-03  1.40102e-01        00000 
 2.24604e-03  1.18687e-01        00000 
 1.76363e-03  9.73153e-02        00000 
 1.32493e-03  7.68574e-02        00000 
 1.90930e-03  5.81848e-02        00000 
 1.73480e-03  3.83897e-02        00000 
 1.46432e-03  1.62322e-02        00000 
 1.51892e-03 -4.26785e-03        00000 
 3.87475e-04  9.59799e-01        00000 
 2.93888e-03  9.41996e-01        00000 
 4.65231e-03  9.23485e-01        00000 
 5.35042e-03  9.03212e-01        00000 
 5.74531e-03  8.84107e-01        00000 
 6.12621e-03  8.66106e-01        00000 
 6.09199e-03  8.45243e-01        00000 
 6.36255e-03  8.22264e-01        00000 
 6.31656e-03  8.00577e-01        00000 
 6.75339e-03  7.82700e-01        00000 
 7.56209e-03  7.64628e-01        00000 
 7.77369e-03  7.41424e-01        00000 
 7.89535e-03  7.19383e-01        00000 
 8.13271e-03  6.97479e-01        00000 
 8.29817e-03  6.76044e-01        00000 
 8.21754e-03  6.55930e-01        00000 
 7.26110e-03  6.35701e-01        00000 
 6.03600e-03  6.16261e-01        00000 
 5.55236e-03  5.98501e-01        00000 
 6.68258e-03  5.78599e-01        00000 
 7.30078e-03  5.57490e-01        00000 
 6.70415e-03  5.37599e-01        00000 
 6.91246e-03  5.19145e-01        00000 
 6.84270e-03  4.99156e-01        00000 
 6.47569e-03  4.79706e-01        00000 
 5.86140e-03  4.59825e-01        00000 
 5.43757e-03  4.40685e-01        00000 
 4.64053e-03  4.21771e-01        00000 
 4.28850e-03  4.00929e-01        00000 
 4.16852e-03  3.80042e-01        00000 
 4.58395e-03  3.59007e-01        00000 
 5.26653e-03  3.38755e-01        00000 
 6.11732e-03  3.20243e-01        00000 
 6.75356e-03  3.00979e-01        00000 
 6.55285e-03  2.81116e-01        00000 
 6.17746e-03  2.59464e-01        00000 
 5.86423e-03  2.36983e-01        00000 
 6.16144e-03  2.18425e-01        00000 
 6.45450e-03  1.99427e-01        00000 
 6.56360e-03  1.79786e-01        00000 
 7.16705e-03  1.59794e-01        00000 
 7.04120e-03  1.39920e-01        00000 
 6.75345e-03  1.19561e-01        00000 
 6.46258e-03  9.95885e-02        00000 
 5.66355e-03  7.92096e-02        00000 
 4.35787e-03  6.00030e-02        00000 
 2.50202e-03  3.99638e-02        00000 
 1.32291e-03  1.96138e-02        00000 
 1.71615e-03 -1.65237e-03        00000 
 1.37545e-03  9.41005e-01        00000 
 6.13910e-03  9.26535e-01        00000 
 8.04510e-03  9.08138e-01        00000 
 8.75148e-03  8.88009e-01        00000 
 1.01119e-02  8.69054e-01        00000 
 1.21566e-02  8.51540e-01        00000 
 1.38733e-02  8.32201e-01        00000 
 1.52818e-02  8.10972e-01        00000 
 1.53154e-02  7.89210e-01        00000 
 1.51446e-02  7.69002e-01        00000 
 1.55121e-02  7.50605e-01        00000 
 1.52564e-02  7.29157e-01        00000 
 1.58842e-02  7.07295e-01        00000 
 1.62488e-02  6.86392e-01        00000 
 1.64565e-02  6.66179e-01        00000 
 1.55322e-02  6.44159e-01        00000 
 1.46337e-02  6.24457e-01        00000 
 1.37936e-02  6.06242e-01        00000 
 1.30031e-02  5.87967e-01        00000 
 1.42262e-02  5.68930e-01        00000 
 1.37219e-02  5.49812e-01        00000 
 1.26862e-02  5.31269e-01        00000 
 1.13491e-02  5.12749e-01        00000 
 1.03387e-02  4.93119e-01        00000 
 9.88463e-03  4.73886e-01        00000 
 9.00459e-03  4.52184e-01        00000 
 8.27847e-03  4.33006e-01        00000 
 7.95926e-03  4.15113e-01        00000 
 8.20688e-03  3.95267e-01        00000 
 8.27582e-03  3.73623e-01        00000 
 8.09738e-03  3.51547e-01        00000 
 8.50285e-03  3.30265e-01        00000 
 9.51285e-03  3.11177e-01        00000 
 1.04647e-02  2.90960e-01        00000 
 1.02007e-02  2.71340e-01        00000 
 9.85808e-03  2.51406e-01        00000 
 9.66384e-03  2.31712e-01        00000 
 9.68888e-03  2.12687e-01        00000 
 9.74674e-03  1.94159e-01        00000 
 1.03431e-02  1.75982e-01        00000 
 1.09878e-02  1.55963e-01        00000 
 1.10732e-02  1.36382e-01        00000 
 1.07636e-02  1.18342e-01        00000 
 9.99572e-03  9.95200e-02        00000 
 8.13120e-03  7.96470e-02        00000 
 6.71651e-03  5.94437e-02        00000 
 5.56025e-03  3.97175e-02        00000 
 4.13896e-03  1.97568e-02        00000 
 2.72669e-03 -8.29759e-04        00000 
 2.37091e-03  9.21504e-01        00000 
 5.66131e-03  9.07269e-01        00000 
 7.88650e-03  8.89250e-01        00000 
 1.11241e-02  8.70965e-01        00000 
 1.42542e-02  8.53070e-01        00000 
 1.53642e-02  8.35742e-01        00000 
 1.75659e-02  8.16637e-01        00000 
 2.07447e-02  7.96470e-01        00000 
 2.19894e-02  7.75829e-01        00000 
 2.21789e-02  7.56074e-01        00000 
 2.22942e-02  7.34957e-01        00000 
 2.24081e-02  7.12665e-01        00000 
 2.28873e-02  6.92261e-01        00000 
 2.30471e-02  6.72886e-01        00000 
 2.34814e-02  6.53733e-01        00000 
 2.27830e-02  6.32843e-01        00000 
 2.17317e-02  6.12366e-01        00000 
 2.08913e-02  5.94519e-01        00000 
 2.02259e-02  5.75968e-01        00000 
 1.96794e-02  5.58196e-01        00000 
 1.89878e-02  5.40085e-01        00000 
 1.81712e-02  5.22309e-01        00000 
 1.67110e-02  5.04224e-01        00000 
 1.50039e-02  4.86133e-01        00000 
 1.35742e-02  4.66427e-01        00000 
 1.24950e-02  4.44603e-01        00000 
 1.16065e-02  4.25161e-01        00000 
 1.14896e-02  4.07072e-01        00000 
 1.21997e-02  3.87604e-01        00000 
 1.30621e-02  3.67419e-01        00000 
 1.34197e-02  3.45651e-01        00000 
 1.34658e-02  3.23662e-01        00000 
 1.37751e-02  3.03534e-01        00000 
 1.39897e-02  2.82955e-01        00000 
 1.39654e-02  2.64819e-01        00000 
 1.39473e-02  2.47012e-01        00000 
 1.37533e-02  2.28096e-01        00000 
 1.37063e-02  2.08296e-01        00000 
 1.39613e-02  1.89349e-01        00000 
 1.43402e-02  1.70492e-01        00000 
 1.46610e-02  1.50581e-01        00000 
 1.45740e-02  1.33714e-01        00000 
 1.41918e-02  1.16844e-01        00000 
 1.28795e-02  9.77476e-02        00000 
 1.08780e-02  7.75182e-02        00000 
 9.71533e-03  5.76989e-02        00000 
 8.80077e-03  3.90212e-02        00000 
 7.44619e-03  2.01927e-02        00000 
 5.34458e-03  1.63208e-03        00000 
 3.91893e-03  9.00629e-01        00000 
 8.53148e-03  8.87200e-01        00000 
 1.31384e-02  8.69022e-01        00000 
 1.56857e-02  8.52060e-01        00000 
 1.73633e-02  8.35608e-01        00000 
 2.00958e-02  8.20331e-01        00000 
 2.26016e-02  8.00957e-01        00000 
 2.46861e-02  7.81760e-01        00000 
 2.50912e-02  7.62849e-01        00000 
 2.62515e-02  7.42697e-01        00000 
 2.80963e-02  7.21248e-01        00000 
 2.85147e-02  6.98722e-01        00000 
 2.76946e-02  6.78859e-01        00000 
 2.84557e-02  6.60479e-01        00000 
 2.88500e-02  6.42319e-01        00000 
 2.87163e-02  6.22379e-01        00000 
 2.77435e-02  6.02990e-01        00000 
 2.65547e-02  5.84153e-01        00000 
 2.55635e-02  5.65093e-01        00000 
 2.40723e-02  5.46573e-01        00000 
 2.30522e-02  5.28756e-01        00000 
 2.23920e-02  5.11890e-01        00000 
 2.10317e-02  4.94464e-01        00000 
 1.95292e-02  4.77402e-01        00000 
 1.75435e-02  4.57698e-01        00000 
 1.61175e-02  4.35922e-01        00000 
 1.54131e-02  4.16263e-01        00000 
 1.58277e-02  3.97812e-01        00000 
 1.62960e-02  3.78932e-01        00000 
 1.68662e-02  3.59255e-01        00000 
 1.75572e-02  3.38651e-01        00000 
 1.83674e-02  3.17816e-01        00000 
 1.87144e-02  2.97402e-01        00000 
 1.85231e-02  2.78166e-01        00000 
 1.86053e-02  2.61024e-01        00000 
 1.84738e-02  2.43226e-01        00000 
 1.81926e-02  2.23622e-01        00000 
 1.79770e-02  2.03950e-01        00000 
 1.81501e-02  1.83828e-01        00000 
 1.85682e-02  1.64952e-01        00000 
 1.86021e-02  1.47403e-01        00000 
 1.80646e-02  1.31553e-01        00000 
 1.73489e-02  1.13130e-01        00000 
 1.59637e-02  9.46283e-02        00000 
 1.44656e-02  7.55282e-02        00000 
 1.24758e-02  5.63405e-02        00000 
 1.09594e-02  3.85422e-02        00000 
 8.58846e-03  1.98421e-02        00000 
 5.67303e-03  4.00270e-03        00000 
 4.02345e-03  8.80046e-01        00000 
 1.22856e-02  8.67568e-01        00000 
 1.81338e-02  8.50444e-01        00000 
 2.14147e-02  8.33562e-01        00000 
 2.39772e-02  8.18675e-01        00000 
 2.56720e-02  8.03208e-01        00000 
 2.88772e-02  7.83832e-01        00000 
 3.18088e-02  7.65966e-01        00000 
 3.36841e-02  7.48051e-01        00000 
 3.46061e-02  7.28536e-01        00000 
 3.47981e-02  7.07446e-01        00000 
 3.41324e-02  6.85718e-01        00000 
 3.33075e-02  6.65361e-01        00000 
 3.26914e-02  6.47832e-01        00000 
 3.27353e-02  6.30727e-01        00000 
 3.25138e-02  6.12842e-01        00000 
 3.23036e-02  5.94242e-01        00000 
 3.18788e-02  5.74972e-01        00000 
 3.11065e-02  5.54927e-01        00000 
 2.95134e-02  5.36006e-01        00000 
 2.76172e-02  5.17438e-01        00000 
 2.61354e-02  5.00052e-01        00000 
 2.48252e-02  4.83510e-01        00000 
 2.31891e-02  4.65962e-01        00000 
 2.15593e-02  4.46567e-01        00000 
 2.02964e-02  4.26479e-01        00000 
 1.99532e-02  4.07733e-01        00000 
 1.97667e-02  3.88989e-01        00000 
 2.00845e-02  3.70531e-01        00000 
 2.04357e-02  3.51388e-01        00000 
 2.09997e-02  3.31355e-01        00000 
 2.17931e-02  3.10837e-01        00000 
 2.22680e-02  2.89763e-01        00000 
 2.26018e-02  2.72149e-01        00000 
 2.28632e-02  2.54811e-01        00000 
 2.28364e-02  2.37283e-01        00000 
 2.28653e-02  2.18543e-01        00000 
 2.29975e-02  1.99222e-01        00000 
 2.29809e-02  1.79290e-01        00000 
 2.26961e-02  1.61358e-01        00000 
 2.24736e-02  1.44527e-01        00000 
 2.16122e-02  1.27154e-01        00000 
 2.03965e-02  1.09122e-01        00000 
 1.82050e-02  9.09680e-02        00000 
 1.60509e-02  7.25070e-02        00000 
 1.34968e-02  5.41581e-02        00000 
 1.12156e-02  3.66429e-02        00000 
 8.69716e-03  2.09544e-02        00000 
 5.81764e-03  5.79917e-03        00000 
 4.61060e-03  8.60360e-01        00000 
 1.41200e-02  8.48437e-01        00000 
 1.95869e-02  8.31377e-01        00000 
 2.33354e-02  8.15563e-01        00000 
 2.60200e-02  8.00855e-01        00000 
 2.80014e-02  7.84493e-01        00000 
 3.12668e-02  7.66799e-01        00000 
 3.55295e-02  7.49028e-01        00000 
 3.80220e-02  7.32030e-01        00000 
 3.99480e-02  7.13517e-01        00000 
 4.12494e-02  6.94635e-01        00000 
 4.04309e-02  6.72771e-01        00000 
 3.93818e-02  6.53007e-01        00000 
 3.77110e-02  6.34068e-01        00000 
 3.80347e-02  6.17112e-01        00000 
 3.79813e-02  6.00840e-01        00000 
 3.77200e-02  5.83900e-01        00000 
 3.74296e-02  5.65061e-01        00000 
 3.65541e-02  5.45485e-01        00000 
 3.49731e-02  5.25070e-01        00000 
 3.30325e-02  5.07184e-01        00000 
 3.04732e-02  4.88975e-01        00000 
 2.87052e-02  4.72539e-01        00000 
 2.70598e-02  4.54381e-01        00000 
 2.54580e-02  4.35852e-01        00000 
 2.39824e-02  4.16951e-01        00000 
 2.37583e-02  3.99372e-01        00000 
 2.37987e-02  3.81590e-01        00000 
 2.41277e-02  3.63933e-01        00000 
 2.40102e-02  3.43691e-01        00000 
 2.42423e-02  3.22482e-01        00000 
 2.46285e-02  3.00933e-01        00000 
 2.52532e-02  2.81277e-01        00000 
 2.55736e-02  2.64142e-01        00000 
 2.57118e-02  2.46892e-01        00000 
 2.58595e-02  2.29128e-01        00000 
 2.61343e-02  2.10791e-01        00000 
 2.65300e-02  1.92305e-01        00000 
 2.65423e-02  1.75383e-01        00000 
 2.61036e-02  1.56641e-01        00000 
 2.50939e-02  1.38298e-01        00000 
 2.36697e-02  1.20881e-01        00000 
 2.14271e-02  1.03527e-01        00000 
 1.88982e-02  8.59594e-02        00000 
 1.63078e-02  6.81690e-02        00000 
 1.37127e-02  5.01597e-02        00000 
 1.09593e-02  3.47935e-02        00000 
 8.51258e-03  2.08388e-02        00000 
 4.72090e-03  4.94872e-03        00000 
 5.64179e-03  8.40766e-01        00000 
 1.50982e-02  8.29666e-01        00000 
 2.15815e-02  8.14074e-01        00000 
 2.55615e-02  7.99215e-01        00000 
 2.82317e-02  7.83258e-01        00000 
 3.10370e-02  7.67188e-01        00000 
 3.52673e-02  7.49865e-01        00000 
 3.92375e-02  7.33848e-01        00000 
 4.19822e-02  7.17765e-01        00000 
 4.36543e-02  6.99765e-01        00000 
 4.53455e-02  6.83129e-01        00000 
 4.58735e-02  6.63339e-01        00000 
 4.55714e-02  6.42996e-01        00000 
 4.53471e-02  6.23371e-01        00000 
 4.39626e-02  6.04368e-01        00000 
 4.38353e-02  5.88290e-01        00000 
 4.38011e-02  5.73075e-01        00000 
 4.33076e-02  5.55386e-01        00000 
 4.20178e-02  5.36011e-01        00000 
 4.03823e-02  5.16848e-01        00000 
 3.79531e-02  4.97623e-01        00000 
 3.53536e-02  4.80400e-01        00000 
 3.23881e-02  4.62397e-01        00000 
 3.05641e-02  4.44321e-01        00000 
 2.89417e-02  4.26350e-01        00000 
 2.76952e-02  4.08265e-01        00000 
 2.70738e-02  3.91568e-01        00000 
 2.69452e-02  3.72941e-01        00000 
 2.71323e-02  3.53851e-01        00000 
 2.74055e-02  3.34160e-01        00000 
 2.72264e-02  3.13198e-01        00000 
 2.72503e-02  2.92592e-01        00000 
 2.79687e-02  2.74217e-01        00000 
 2.87074e-02  2.56679e-01        00000 
 2.89341e-02  2.39678e-01        00000 
 2.92261e-02  2.22016e-01        00000 
 2.94995e-02  2.04032e-01        00000 
 2.96195e-02  1.86539e-01        00000 
 2.97625e-02  1.70397e-01        00000 
 2.89486e-02  1.51178e-01        00000 
 2.75702e-02  1.32177e-01        00000 
 2.52063e-02  1.14561e-01        00000 
 2.23776e-02  9.81837e-02        00000 
 1.95404e-02  8.15738e-02        00000 
 1.67359e-02  6.38293e-02        00000 
 1.38852e-02  4.67556e-02        00000 
 1.08168e-02  3.37515e-02        00000 
 7.62845e-03  1.93734e-02        00000 
 4.17300e-03  4.08243e-03        00000 
 5.08490e-03  8.21025e-01        00000 
 1.50741e-02  8.10599e-01        00000 
 2.31056e-02  7.96963e-01        00000 
 2.78220e-02  7.82323e-01        00000 
 3.11373e-02  7.66676e-01        00000 
 3.47697e-02  7.51035e-01        00000 
 3.91404e-02  7.35123e-01        00000 
 4.34301e-02  7.19962e-01        00000 
 4.63062e-02  7.03566e-01        00000 
 4.79700e-02  6.86504e-01        00000 
 5.01959e-02  6.70859e-01        00000 
 5.20279e-02  6.53984e-01        00000 
 5.28313e-02  6.33769e-01        00000 
 5.31452e-02  6.14488e-01        00000 
 5.22153e-02  5.95422e-01        00000 
 4.97126e-02  5.77007e-01        00000 
 4.97621e-02  5.60401e-01        00000 
 4.90219e-02  5.44527e-01        00000 
 4.74802e-02  5.27155e-01        00000 
 4.57475e-02  5.09055e-01        00000 
 4.31136e-02  4.90065e-01        00000 
 4.00018e-02  4.71505e-01        00000 
 3.67677e-02  4.53307e-01        00000 
 3.40830e-02  4.34937e-01        00000 
 3.21717e-02  4.17396e-01        00000 
 3.10072e-02  4.00000e-01        00000 
 3.00928e-02  3.81656e-01        00000 
 2.96291e-02  3.63317e-01        00000 
 2.96425e-02  3.43947e-01        00000 
 2.97887e-02  3.24355e-01        00000 
 2.99507e-02  3.04209e-01        00000 
 2.99300e-02  2.83580e-01        00000 
 3.06155e-02  2.66703e-01        00000 
 3.15983e-02  2.49441e-01        00000 
 3.21607e-02  2.33164e-01        00000 
 3.26348e-02  2.16065e-01        00000 
 3.29252e-02  1.98551e-01        00000 
 3.30386e-02  1.80874e-01        00000 
 3.25050e-02  1.64035e-01        00000 
 3.15013e-02  1.45777e-01        00000 
 2.97623e-02  1.27783e-01        00000 
 2.70426e-02  1.11088e-01        00000 
 2.42208e-02  9.45968e-02        00000 
 2.12751e-02  7.83206e-02        00000 
 1.80638e-02  6.04480e-02        00000 
 1.44464e-02  4.49422e-02        00000 
 1.07234e-02  3.15141e-02        00000 
 7.05420e-03  1.77770e-02        00000 
 3.18640e-03  3.45598e-03        00000 
 5.90673e-03  8.01889e-01        00000 
 1.61158e-02  7.91111e-01        00000 
 2.53071e-02  7.77398e-01        00000 
 3.03703e-02  7.62555e-01        00000 
 3.40120e-02  7.48964e-01        00000 
 3.89291e-02  7.34410e-01        00000 
 4.38336e-02  7.20182e-01        00000 
 4.81297e-02  7.06008e-01        00000 
 5.09356e-02  6.89648e-01        00000 
 5.30369e-02  6.73897e-01        00000 
 5.56508e-02  6.58867e-01        00000 
 5.85500e-02  6.44115e-01        00000 
 5.96481e-02  6.25467e-01        00000 
 6.03955e-02  6.06921e-01        00000 
 6.10160e-02  5.89042e-01        00000 
 5.94011e-02  5.70381e-01        00000 
 5.63269e-02  5.50618e-01        00000 
 5.42489e-02  5.32643e-01        00000 
 5.28619e-02  5.17267e-01        00000 
 5.08288e-02  5.01392e-01        00000 
 4.78784e-02  4.83490e-01        00000 
 4.45983e-02  4.65101e-01        00000 
 4.11478e-02  4.44439e-01        00000 
 3.79429e-02  4.26102e-01        00000 
 3.58506e-02  4.08144e-01        00000 
 3.44358e-02  3.89046e-01        00000 
 3.33884e-02  3.70382e-01        00000 
 3.26594e-02  3.52770e-01        00000 
 3.22681e-02  3.33921e-01        00000 
 3.24792e-02  3.13954e-01        00000 
 3.26809e-02  2.93619e-01        00000 
 3.30947e-02  2.75802e-01        00000 
 3.40273e-02  2.59971e-01        00000 
 3.48537e-02  2.43183e-01        00000 
 3.58057e-02  2.27501e-01        00000 
 3.62465e-02  2.10540e-01        00000 
 3.66163e-02  1.92519e-01        00000 
 3.62484e-02  1.74431e-01        00000 
 3.52413e-02  1.57366e-01        00000 
 3.38194e-02  1.40839e-01        00000 
 3.17295e-02  1.25197e-01        00000 
 2.90907e-02  1.09215e-01        00000 
 2.62143e-02  9.25531e-02        00000 
 2.30761e-02  7.52626e-02        00000 
 1.93327e-02  5.79243e-02        00000 
 1.55470e-02  4.26920e-02        00000 
 1.15738e-02  2.86850e-02        00000 
 7.49170e-03  1.67939e-02        00000 
 2.43227e-03  3.53897e-03        00000 
 8.35379e-03  7.81210e-01        00000 
 1.80167e-02  7.70637e-01        00000 
 2.65837e-02  7.57765e-01        00000 
 3.29644e-02  7.45032e-01        00000 
 3.76351e-02  7.31466e-01        00000 
 4.21470e-02  7.17771e-01        00000 
 4.67936e-02  7.04714e-01        00000 