<?xml version="1.0" encoding="utf-8"?>
<VTKFile byte_order="LittleEndian" type="UnstructuredGrid" version="0.1">
   <UnstructuredGrid>
      <Piece NumberOfCells="9608" NumberOfPoints="4908">
         <Points>
            <DataArray Name="Points" NumberOfComponents="3" format="ascii" type="Float32">
-1.0000 -0.9592 0.0000
-1.0000 -0.9184 0.0000
-1.0000 -0.8776 0.0000
-1.0000 -0.8367 0.0000
-1.0000 -0.7959 0.0000
-1.0000 -0.7551 0.0000
-1.0000 -0.7143 0.0000
-1.0000 -0.6735 0.0000
-1.0000 -0.6327 0.0000
-1.0000 -0.5918 0.0000
-1.0000 -0.5510 0.0000
-1.0000 -0.5102 0.0000
-1.0000 -0.4694 0.0000
-1.0000 -0.4286 0.0000
-1.0000 -0.3878 0.0000
-1.0000 -0.3469 0.0000
-1.0000 -0.3061 0.0000
-1.0000 -0.2653 0.0000
-1.0000 -0.2245 0.0000
-1.0000 -0.1837 0.0000
-1.0000 -0.1429 0.0000
-1.0000 -0.1020 0.0000
-1.0000 -0.0612 0.0000
-1.0000 -0.0204 0.0000
-1.0000 0.0204 0.0000
-1.0000 0.0612 0.0000
-1.0000 0.1020 0.0000
-1.0000 0.1429 0.0000
-1.0000 0.1837 0.0000
-1.0000 0.2245 0.0000
-1.0000 0.2653 0.0000
-1.0000 0.3061 0.0000
-1.0000 0.3469 0.0000
-1.0000 0.3878 0.0000
-1.0000 0.4286 0.0000
-1.0000 0.4694 0.0000
-1.0000 0.5102 0.0000
-1.0000 0.5510 0.0000
-1.0000 0.5918 0.0000
-1.0000 0.6327 0.0000
-1.0000 0.6735 0.0000
-1.0000 0.7143 0.0000
-1.0000 0.7551 0.0000
-1.0000 0.7959 0.0000
-1.0000 0.8367 0.0000
-1.0000 0.8776 0.0000
-1.0000 0.9184 0.0000
-1.0000 0.9592 0.0000
-1.0000 1.0000 0.0000
-0.9592 -0.9592 0.0000
-0.9592 -0.9184 0.0000
-0.9592 -0.8776 0.0000
-0.9592 -0.8367 0.0000
-0.9592 -0.7959 0.0000
-0.9592 -0.7551 0.0000
-0.9592 -0.7143 0.0000
-0.9592 -0.6735 0.0000
-0.9592 -0.6327 0.0000
-0.9592 -0.5918 0.0000
-0.9592 -0.5510 0.0000
-0.9592 -0.5102 0.0000
-0.9592 -0.4694 0.0000
-0.9592 -0.4286 0.0000
-0.9592 -0.3878 0.0000
-0.9592 -0.3469 0.0000
-0.9592 -0.3061 0.0000
-0.9592 -0.2653 0.0000
-0.9592 -0.2245 0.0000
-0.9592 -0.1837 0.0000
-0.9592 -0.1429 0.0000
-0.9592 -0.1020 0.0000
-0.9592 -0.0612 0.0000
-0.9592 -0.0204 0.0000
-0.9592 0.0204 0.0000
-0.9592 0.0612 0.0000
-0.9592 0.1020 0.0000
-0.9592 0.1429 0.0000
-0.9592 0.1837 0.0000
-0.9592 0.2245 0.0000
-0.9592 0.2653 0.0000
-0.9592 0.3061 0.0000
-0.9592 0.3469 0.0000
-0.9592 0.3878 0.0000
-0.9592 0.4286 0.0000
-0.9592 0.4694 0.0000
-0.9592 0.5102 0.0000
-0.9592 0.5510 0.0000
-0.9592 0.5918 0.0000
-0.9592 0.6327 0.0000
-0.9592 0.6735 0.0000
-0.9592 0.7143 0.0000
-0.9592 0.7551 0.0000
-0.9592 0.7959 0.0000
-0.9592 0.8367 0.0000
-0.9592 0.8776 0.0000
-0.9592 0.9184 0.0000
-0.9592 0.9592 0.0000
-0.9592 1.0000 0.0000
-0.9184 -0.9592 0.0000
-0.9184 -0.9184 0.0000
-0.9184 -0.8776 0.0000
-0.9184 -0.8367 0.0000
-0.9184 -0.7959 0.0000
-0.9184 -0.7551 0.0000
-0.9184 -0.7143 0.0000
-0.9184 -0.6735 0.0000
-0.9184 -0.6327 0.0000
-0.9184 -0.5918 0.0000
-0.9184 -0.5510 0.0000
-0.9184 -0.5102 0.0000
-0.9184 -0.4694 0.0000
-0.9184 -0.4286 0.0000
-0.9184 -0.3878 0.0000
-0.9184 -0.3469 0.0000
-0.9184 -0.3061 0.0000
-0.9184 -0.2653 0.0000
-0.9184 -0.2245 0.0000
-0.9184 -0.1837 0.0000
-0.9184 -0.1429 0.0000
-0.9184 -0.1020 0.0000
-0.9184 -0.0612 0.0000
-0.9184 -0.0204 0.0000
-0.9184 0.0204 0.0000
-0.9184 0.0612 0.0000
-0.9184 0.1020 0.0000
-0.9184 0.1429 0.0000
-0.9184 0.1837 0.0000
-0.9184 0.2245 0.0000
-0.9184 0.2653 0.0000
-0.9184 0.3061 0.0000
-0.9184 0.3469 0.0000
-0.9184 0.3878 0.0000
-0.9184 0.4286 0.0000
-0.9184 0.4694 0.0000
-0.9184 0.5102 0.0000
-0.9184 0.5510 0.0000
-0.9184 0.5918 0.0000
-0.9184 0.6327 0.0000
-0.9184 0.6735 0.0000
-0.9184 0.7143 0.0000
-0.9184 0.7551 0.0000
-0.9184 0.7959 0.0000
-0.9184 0.8367 0.0000
-0.9184 0.8776 0.0000
-0.9184 0.9184 0.0000
-0.9184 0.9592 0.0000
-0.9184 1.0000 0.0000
-0.8776 -0.9592 0.0000
-0.8776 -0.9184 0.0000
-0.8776 -0.8776 0.0000
-0.8776 -0.8367 0.0000
-0.8776 -0.7959 0.0000
-0.8776 -0.7551 0.0000
-0.8776 -0.7143 0.0000
-0.8776 -0.6735 0.0000
-0.8776 -0.6327 0.0000
-0.8776 -0.5918 0.0000
-0.8776 -0.5510 0.0000
-0.8776 -0.5102 0.0000
-0.8776 -0.4694 0.0000
-0.8776 -0.4286 0.0000
-0.8776 -0.3878 0.0000
-0.8776 -0.3469 0.0000
-0.8776 -0.3061 0.0000
-0.8776 -0.2653 0.0000
-0.8776 -0.2245 0.0000
-0.8776 -0.1837 0.0000
-0.8776 -0.1429 0.0000
-0.8776 -0.1020 0.0000
-0.8776 -0.0612 0.0000
-0.8776 -0.0204 0.0000
-0.8776 0.0204 0.0000
-0.8776 0.0612 0.0000
-0.8776 0.1020 0.0000
-0.8776 0.1429 0.0000
-0.8776 0.1837 0.0000
-0.8776 0.2245 0.0000
-0.8776 0.2653 0.0000
-0.8776 0.3061 0.0000
-0.8776 0.3469 0.0000
-0.8776 0.3878 0.0000
-0.8776 0.4286 0.0000
-0.8776 0.4694 0.0000
-0.8776 0.5102 0.0000
-0.8776 0.5510 0.0000
-0.8776 0.5918 0.0000
-0.8776 0.6327 0.0000
-0.8776 0.6735 0.0000
-0.8776 0.7143 0.0000
-0.8776 0.7551 0.0000
-0.8776 0.7959 0.0000
-0.8776 0.8367 0.0000
-0.8776 0.8776 0.0000
-0.8776 0.9184 0.0000
-0.8776 0.9592 0.0000
-0.8776 1.0000 0.0000
-0.8367 -0.9592 0.0000
-0.8367 -0.9184 0.0000
-0.8367 -0.8776 0.0000
-0.8367 -0.8367 0.0000
-0.8367 -0.7959 0.0000
-0.8367 -0.7551 0.0000
-0.8367 -0.7143 0.0000
-0.8367 -0.6735 0.0000
-0.8367 -0.6327 0.0000
-0.8367 -0.5918 0.0000
-0.8367 -0.5510 0.0000
-0.8367 -0.5102 0.0000
-0.8367 -0.4694 0.0000
-0.8367 -0.4286 0.0000
-0.8367 -0.3878 0.0000
-0.8367 -0.3469 0.0000
-0.8367 -0.3061 0.0000
-0.8367 -0.2653 0.0000
-0.8367 -0.2245 0.0000
-0.8367 -0.1837 0.0000
-0.8367 -0.1429 0.0000
-0.8367 -0.1020 0.0000
-0.8367 -0.0612 0.0000
-0.8367 -0.0204 0.0000
-0.8367 0.0204 0.0000
-0.8367 0.0612 0.0000
-0.8367 0.1020 0.0000
-0.8367 0.1429 0.0000
-0.8367 0.1837 0.0000
-0.8367 0.2245 0.0000
-0.8367 0.2653 0.0000
-0.8367 0.3061 0.0000
-0.8367 0.3469 0.0000
-0.8367 0.3878 0.0000
-0.8367 0.4286 0.0000
-0.8367 0.4694 0.0000
-0.8367 0.5102 0.0000
-0.8367 0.5510 0.0000
-0.8367 0.5918 0.0000
-0.8367 0.6327 0.0000
-0.8367 0.6735 0.0000
-0.8367 0.7143 0.0000
-0.8367 0.7551 0.0000
-0.8367 0.7959 0.0000
-0.8367 0.8367 0.0000
-0.8367 0.8776 0.0000
-0.8367 0.9184 0.0000
-0.8367 0.9592 0.0000
-0.8367 1.0000 0.0000
-0.7959 -0.9592 0.0000
-0.7959 -0.9184 0.0000
-0.7959 -0.8776 0.0000
-0.7959 -0.8367 0.0000
-0.7959 -0.7959 0.0000
-0.7959 -0.7551 0.0000
-0.7959 -0.7143 0.0000
-0.7959 -0.6735 0.0000
-0.7959 -0.6327 0.0000
-0.7959 -0.5918 0.0000
-0.7959 -0.5510 0.0000
-0.7959 -0.5102 0.0000
-0.7959 -0.4694 0.0000
-0.7959 -0.4286 0.0000
-0.7959 -0.3878 0.0000
-0.7959 -0.3469 0.0000
-0.7959 -0.3061 0.0000
-0.7959 -0.2653 0.0000
-0.7959 -0.2245 0.0000
-0.7959 -0.1837 0.0000
-0.7959 -0.1429 0.0000
-0.7959 -0.1020 0.0000
-0.7959 -0.0612 0.0000
-0.7959 -0.0204 0.0000
-0.7959 0.0204 0.0000
-0.7959 0.0612 0.0000
-0.7959 0.1020 0.0000
-0.7959 0.1429 0.0000
-0.7959 0.1837 0.0000
-0.7959 0.2245 0.0000
-0.7959 0.2653 0.0000
-0.7959 0.3061 0.0000
-0.7959 0.3469 0.0000
-0.7959 0.3878 0.0000
-0.7959 0.4286 0.0000
-0.7959 0.4694 0.0000
-0.7959 0.5102 0.0000
-0.7959 0.5510 0.0000
-0.7959 0.5918 0.0000
-0.7959 0.6327 0.0000
-0.7959 0.6735 0.0000
-0.7959 0.7143 0.0000
-0.7959 0.7551 0.0000
-0.7959 0.7959 0.0000
-0.7959 0.8367 0.0000
-0.7959 0.8776 0.0000
-0.7959 0.9184 0.0000
-0.7959 0.9592 0.0000
-0.7959 1.0000 0.0000
-0.7551 -0.9592 0.0000
-0.7551 -0.9184 0.0000
-0.7551 -0.8776 0.0000
-0.7551 -0.8367 0.0000
-0.7551 -0.7959 0.0000
-0.7551 -0.7551 0.0000
-0.7551 -0.7143 0.0000
-0.7551 -0.6735 0.0000
-0.7551 -0.6327 0.0000
-0.7551 -0.5918 0.0000
-0.7551 -0.5510 0.0000
-0.7551 -0.5102 0.0000
-0.7551 -0.4694 0.0000
-0.7551 -0.4286 0.0000
-0.7551 -0.3878 0.0000
-0.7551 -0.3469 0.0000
-0.7551 -0.3061 0.0000
-0.7551 -0.2653 0.0000
-0.7551 -0.2245 0.0000
-0.7551 -0.1837 0.0000
-0.7551 -0.1429 0.0000
-0.7551 -0.1020 0.0000
-0.7551 -0.0612 0.0000
-0.7551 -0.0204 0.0000
-0.7551 0.0204 0.0000
-0.7551 0.0612 0.0000
-0.7551 0.1020 0.0000
-0.7551 0.1429 0.0000
-0.7551 0.1837 0.0000
-0.7551 0.2245 0.0000
-0.7551 0.2653 0.0000
-0.7551 0.3061 0.0000
-0.7551 0.3469 0.0000
-0.7551 0.3878 0.0000
-0.7551 0.4286 0.0000
-0.7551 0.4694 0.0000
-0.7551 0.5102 0.0000
-0.7551 0.5510 0.0000
-0.7551 0.5918 0.0000
-0.7551 0.6327 0.0000
-0.7551 0.6735 0.0000
-0.7551 0.7143 0.0000
-0.7551 0.7551 0.0000
-0.7551 0.7959 0.0000
-0.7551 0.8367 0.0000
-0.7551 0.8776 0.0000
-0.7551 0.9184 0.0000
-0.7551 0.9592 0.0000
-0.7551 1.0000 0.0000
-0.7143 -0.9592 0.0000
-0.7143 -0.9184 0.0000
-0.7143 -0.8776 0.0000
-0.7143 -0.8367 0.0000
-0.7143 -0.7959 0.0000
-0.7143 -0.7551 0.0000
-0.7143 -0.7143 0.0000
-0.7143 -0.6735 0.0000
-0.7143 -0.6327 0.0000
-0.7143 -0.5918 0.0000
-0.7143 -0.5510 0.0000
-0.7143 -0.5102 0.0000
-0.7143 -0.4694 0.0000
-0.7143 -0.4286 0.0000
-0.7143 -0.3878 0.0000
-0.7143 -0.3469 0.0000
-0.7143 -0.3061 0.0000
-0.7143 -0.2653 0.0000
-0.7143 -0.2245 0.0000
-0.7143 -0.1837 0.0000
-0.7143 -0.1429 0.0000
-0.7143 -0.1020 0.0000
-0.7143 -0.0612 0.0000
-0.7143 -0.0204 0.0000
-0.7143 0.0204 0.0000
-0.7143 0.0612 0.0000
-0.7143 0.1020 0.0000
-0.7143 0.1429 0.0000
-0.7143 0.1837 0.0000
-0.7143 0.2245 0.0000
-0.7143 0.2653 0.0000
-0.7143 0.3061 0.0000
-0.7143 0.3469 0.0000
-0.7143 0.3878 0.0000
-0.7143 0.4286 0.0000
-0.7143 0.4694 0.0000
-0.7143 0.5102 0.0000
-0.7143 0.5510 0.0000
-0.7143 0.5918 0.0000
-0.7143 0.6327 0.0000
-0.7143 0.6735 0.0000
-0.7143 0.7143 0.0000
-0.7143 0.7551 0.0000
-0.7143 0.7959 0.0000
-0.7143 0.8367 0.0000
-0.7143 0.8776 0.0000
-0.7143 0.9184 0.0000
-0.7143 0.9592 0.0000
-0.7143 1.0000 0.0000
-0.6735 -0.9592 0.0000
-0.6735 -0.9184 0.0000
-0.6735 -0.8776 0.0000
-0.6735 -0.8367 0.0000
-0.6735 -0.7959 0.0000
-0.6735 -0.7551 0.0000
-0.6735 -0.7143 0.0000
-0.6735 -0.6735 0.0000
-0.6735 -0.6327 0.0000
-0.6735 -0.5918 0.0000
-0.6735 -0.5510 0.0000
-0.6735 -0.5102 0.0000
-0.6735 -0.4694 0.0000
-0.6735 -0.4286 0.0000
-0.6735 -0.3878 0.0000
-0.6735 -0.3469 0.0000
-0.6735 -0.3061 0.0000
-0.6735 -0.2653 0.0000
-0.6735 -0.2245 0.0000
-0.6735 -0.1837 0.0000
-0.6735 -0.1429 0.0000
-0.6735 -0.1020 0.0000
-0.6735 -0.0612 0.0000
-0.6735 -0.0204 0.0000
-0.6735 0.0204 0.0000
-0.6735 0.0612 0.0000
-0.6735 0.1020 0.0000
-0.6735 0.1429 0.0000
-0.6735 0.1837 0.0000
-0.6735 0.2245 0.0000
-0.6735 0.2653 0.0000
-0.6735 0.3061 0.0000
-0.6735 0.3469 0.0000
-0.6735 0.3878 0.0000
-0.6735 0.4286 0.0000
-0.6735 0.4694 0.0000
-0.6735 0.5102 0.0000
-0.6735 0.5510 0.0000
-0.6735 0.5918 0.0000
[...]
         <PointData>
            <DataArray Name="fValues" NumberOfComponents="3" format="ascii" type="Float64">
-3.51317e-03  1.74578e-02        00000 
-3.07475e-03  3.87550e-02        00000 
-2.93184e-03  5.96632e-02        00000 
-3.71778e-03  7.93329e-02        00000 
-4.24886e-03  9.74798e-02        00000 
-4.23032e-03  1.16280e-01        00000 
-3.99404e-03  1.39052e-01        00000 
-2.73372e-03  1.60996e-01        00000 
-2.80729e-03  1.84667e-01        00000 
-2.46196e-03  2.02476e-01        00000 
-1.35152e-03  2.18995e-01        00000 
-5.83292e-04  2.42099e-01        00000 
 3.93468e-05  2.64469e-01        00000 
 6.26014e-04  2.85876e-01        00000 
 9.33470e-04  3.06042e-01        00000 
 7.35065e-04  3.24070e-01        00000 
 1.12646e-03  3.45794e-01        00000 
 1.31989e-03  3.65495e-01        00000 
 1.04042e-03  3.82972e-01        00000 
-1.42451e-04  4.04690e-01        00000 
-9.66542e-04  4.25915e-01        00000 
-2.17374e-03  4.45233e-01        00000 
-2.73493e-03  4.65092e-01        00000 
-2.88330e-03  4.86989e-01        00000 
-2.89656e-03  5.09342e-01        00000 
-3.06488e-03  5.31889e-01        00000 
-1.98280e-03  5.50019e-01        00000 
-8.53060e-04  5.68074e-01        00000 
-5.27002e-04  5.86657e-01        00000 
-1.28950e-04  6.07500e-01        00000 
-2.53205e-04  6.29762e-01        00000 
-7.59325e-04  6.52217e-01        00000 
-6.42215e-04  6.73443e-01        00000 
-3.61834e-04  6.92212e-01        00000 
-3.24230e-04  7.11997e-01        00000 
 3.32054e-04  7.31555e-01        00000 
 1.20309e-03  7.51870e-01        00000 
 1.40241e-03  7.71017e-01        00000 
 1.11225e-03  7.90832e-01        00000 
 4.41621e-04  8.11973e-01        00000 
-2.91542e-04  8.34060e-01        00000 
-2.06025e-04  8.53891e-01        00000 
 1.90493e-04  8.74201e-01        00000 
 1.31444e-03  8.95051e-01        00000 
 3.01517e-03  9.16062e-01        00000 
 3.30112e-03  9.36831e-01        00000 
 2.29330e-03  9.57553e-01        00000 
-1.01118e-03  9.78286e-01        00000 
-4.41664e-03  9.97409e-01        00000 
-3.83450e-03  1.82625e-02        00000 
-4.10108e-03  3.81100e-02        00000 
-5.30003e-03  5.80492e-02        00000 
-6.20380e-03  7.79450e-02        00000 
-7.04580e-03  9.58151e-02        00000 
-6.88097e-03  1.11895e-01        00000 
-5.78108e-03  1.32529e-01        00000 
-5.22073e-03  1.56189e-01        00000 
-4.85889e-03  1.78647e-01        00000 
-4.39003e-03  1.96328e-01        00000 
-3.96556e-03  2.14077e-01        00000 
-3.65774e-03  2.36070e-01        00000 
-3.14718e-03  2.57286e-01        00000 
-3.50034e-03  2.78417e-01        00000 
-4.65490e-03  2.99914e-01        00000 
-5.02196e-03  3.19871e-01        00000 
-4.34606e-03  3.40897e-01        00000 
-3.73291e-03  3.60626e-01        00000 
-3.85596e-03  3.77410e-01        00000 
-5.53434e-03  3.98022e-01        00000 
-6.38301e-03  4.18428e-01        00000 
-5.40293e-03  4.37337e-01        00000 
-4.76208e-03  4.54544e-01        00000 
-5.15098e-03  4.75886e-01        00000 
-5.52770e-03  4.97877e-01        00000 
-6.08996e-03  5.19840e-01        00000 
-7.12522e-03  5.39281e-01        00000 
-6.83303e-03  5.58893e-01        00000 
-5.71155e-03  5.80965e-01        00000 
-5.26268e-03  6.02098e-01        00000 
-5.50612e-03  6.22874e-01        00000 
-6.04974e-03  6.43405e-01        00000 
-5.69345e-03  6.62331e-01        00000 
-5.71189e-03  6.81937e-01        00000 
-5.73016e-03  7.01150e-01        00000 
-5.21177e-03  7.20164e-01        00000 
-5.13544e-03  7.40575e-01        00000 
-5.11376e-03  7.59548e-01        00000 
-5.24945e-03  7.79018e-01        00000 
-5.55685e-03  7.99345e-01        00000 
-5.70520e-03  8.20519e-01        00000 
-5.12258e-03  8.41545e-01        00000 
-4.64363e-03  8.61611e-01        00000 
-3.83753e-03  8.80929e-01        00000 
-2.44284e-03  9.01240e-01        00000 
-1.69981e-03  9.22049e-01        00000 
-1.71130e-03  9.41251e-01        00000 
-2.58267e-03  9.60331e-01        00000 
-2.93943e-03  9.79027e-01        00000 
-2.64571e-03  1.77859e-02        00000 
-4.89636e-03  3.67500e-02        00000 
-7.79035e-03  5.61337e-02        00000 
-8.93877e-03  7.45201e-02        00000 
-9.57157e-03  9.22386e-02        00000 
-9.76454e-03  1.09531e-01        00000 
-9.97920e-03  1.29500e-01        00000 
-1.10507e-02  1.51222e-01        00000 
-9.62007e-03  1.73766e-01        00000 
-7.64121e-03  1.93268e-01        00000 
-6.84369e-03  2.10831e-01        00000 
-6.99582e-03  2.31109e-01        00000 
-7.87303e-03  2.51602e-01        00000 
-9.20417e-03  2.72460e-01        00000 
-1.01379e-02  2.92573e-01        00000 
-1.01741e-02  3.14894e-01        00000 
-9.68159e-03  3.35757e-01        00000 
-9.07374e-03  3.55252e-01        00000 
-9.05412e-03  3.73311e-01        00000 
-1.05840e-02  3.93089e-01        00000 
-9.88860e-03  4.11151e-01        00000 
-8.82974e-03  4.28749e-01        00000 
-7.96925e-03  4.46700e-01        00000 
-8.21680e-03  4.65011e-01        00000 
-9.04641e-03  4.85507e-01        00000 
-1.12363e-02  5.08455e-01        00000 
-1.20346e-02  5.27624e-01        00000 
-1.24473e-02  5.45617e-01        00000 
-1.22683e-02  5.66223e-01        00000 
-1.23710e-02  5.89192e-01        00000 
-1.34252e-02  6.12390e-01        00000 
-1.32853e-02  6.33559e-01        00000 
-1.31318e-02  6.52923e-01        00000 
-1.30438e-02  6.73352e-01        00000 
-1.27731e-02  6.90936e-01        00000 
-1.25682e-02  7.09612e-01        00000 
-1.29526e-02  7.30650e-01        00000 
-1.25167e-02  7.49120e-01        00000 
-1.22982e-02  7.67268e-01        00000 
-1.24032e-02  7.86448e-01        00000 
-1.31180e-02  8.06909e-01        00000 
-1.29270e-02  8.27105e-01        00000 
-1.09651e-02  8.46993e-01        00000 
-9.52390e-03  8.66570e-01        00000 
-7.79904e-03  8.85186e-01        00000 
-5.45551e-03  9.03562e-01        00000 
-4.80728e-03  9.22786e-01        00000 
-2.90764e-03  9.41546e-01        00000 
-1.93535e-03  9.59958e-01        00000 
-3.43302e-03  1.63917e-02        00000 
-6.10206e-03  3.35207e-02        00000 
-8.11703e-03  5.15967e-02        00000 
-1.00539e-02  7.10218e-02        00000 
-1.16791e-02  8.95546e-02        00000 
-1.21360e-02  1.06413e-01        00000 
-1.32913e-02  1.26025e-01        00000 
-1.50026e-02  1.47263e-01        00000 
-1.50704e-02  1.68293e-01        00000 
-1.34902e-02  1.88223e-01        00000 
-1.12646e-02  2.08568e-01        00000 
-1.15774e-02  2.29117e-01        00000 
-1.29717e-02  2.47615e-01        00000 
-1.43315e-02  2.65895e-01        00000 
-1.51744e-02  2.84954e-01        00000 
-1.52377e-02  3.06946e-01        00000 
-1.49762e-02  3.28974e-01        00000 
-1.44454e-02  3.48213e-01        00000 
-1.50193e-02  3.66524e-01        00000 
-1.47371e-02  3.85146e-01        00000 
-1.37759e-02  4.01798e-01        00000 
-1.28314e-02  4.18300e-01        00000 
-1.23578e-02  4.36006e-01        00000 
-1.22195e-02  4.54762e-01        00000 
-1.33430e-02  4.75098e-01        00000 
-1.61950e-02  4.96755e-01        00000 
-1.74587e-02  5.15917e-01        00000 
-1.78301e-02  5.33350e-01        00000 
-1.90246e-02  5.52602e-01        00000 
-2.05265e-02  5.73169e-01        00000 
-2.13195e-02  5.96480e-01        00000 
-2.12235e-02  6.18710e-01        00000 
-2.06509e-02  6.39182e-01        00000 
-1.99607e-02  6.59634e-01        00000 
-1.98806e-02  6.77420e-01        00000 
-2.00924e-02  6.96632e-01        00000 
-1.97696e-02  7.16144e-01        00000 
-1.90629e-02  7.35637e-01        00000 
-1.94988e-02  7.53974e-01        00000 
-2.02648e-02  7.73408e-01        00000 
-2.11583e-02  7.94229e-01        00000 
-1.96408e-02  8.12618e-01        00000 
-1.72994e-02  8.30416e-01        00000 
-1.40998e-02  8.50021e-01        00000 
-1.00189e-02  8.68416e-01        00000 
-7.67883e-03  8.86357e-01        00000 
-7.17653e-03  9.04413e-01        00000 
-5.13236e-03  9.21910e-01        00000 
-3.05683e-03  9.39781e-01        00000 
-4.86185e-03  1.55228e-02        00000 
-7.99778e-03  3.21692e-02        00000 
-1.04032e-02  5.23963e-02        00000 
-1.18573e-02  7.10793e-02        00000 
-1.33203e-02  8.83155e-02        00000 
-1.52917e-02  1.04472e-01        00000 
-1.73721e-02  1.24218e-01        00000 
-1.82897e-02  1.44087e-01        00000 
-1.78330e-02  1.63263e-01        00000 
-1.84204e-02  1.83618e-01        00000 
-1.82141e-02  2.03539e-01        00000 
-1.67589e-02  2.24224e-01        00000 
-1.61866e-02  2.42755e-01        00000 
-1.77287e-02  2.60607e-01        00000 
-1.87727e-02  2.78233e-01        00000 
-1.87811e-02  2.99180e-01        00000 
-1.83423e-02  3.19895e-01        00000 
-1.77901e-02  3.40319e-01        00000 
-1.82535e-02  3.59454e-01        00000 
-1.78633e-02  3.76403e-01        00000 
-1.68465e-02  3.92782e-01        00000 
-1.61925e-02  4.08680e-01        00000 
-1.63390e-02  4.27089e-01        00000 
-1.65662e-02  4.45250e-01        00000 
-1.81641e-02  4.64917e-01        00000 
-2.02449e-02  4.87436e-01        00000 
-2.17237e-02  5.06907e-01        00000 
-2.35124e-02  5.24704e-01        00000 
-2.52074e-02  5.42807e-01        00000 
-2.68494e-02  5.62220e-01        00000 
-2.85937e-02  5.82977e-01        00000 
-2.96642e-02  6.03460e-01        00000 
-2.97359e-02  6.23808e-01        00000 
-2.84487e-02  6.43295e-01        00000 
-2.79260e-02  6.63305e-01        00000 
-2.77156e-02  6.82181e-01        00000 
-2.75806e-02  7.02221e-01        00000 
-2.64560e-02  7.21032e-01        00000 
-2.66214e-02  7.39493e-01        00000 
-2.70325e-02  7.58085e-01        00000 
-2.67244e-02  7.77299e-01        00000 
-2.46121e-02  7.94316e-01        00000 
-2.23857e-02  8.12784e-01        00000 
-1.86430e-02  8.30990e-01        00000 
-1.47037e-02  8.50244e-01        00000 
-1.11383e-02  8.68705e-01        00000 
-1.01040e-02  8.83984e-01        00000 
-7.62258e-03  9.00015e-01        00000 
-4.36679e-03  9.15746e-01        00000 
-4.93980e-03  1.55895e-02        00000 
-9.32919e-03  3.33289e-02        00000 
-1.27519e-02  5.25036e-02        00000 
-1.52993e-02  6.95413e-02        00000 
-1.71770e-02  8.58882e-02        00000 
-1.86256e-02  1.02203e-01        00000 
-2.07757e-02  1.21899e-01        00000 
-2.24372e-02  1.40676e-01        00000 
-2.31968e-02  1.57325e-01        00000 
-2.36703e-02  1.76346e-01        00000 
-2.37968e-02  1.97349e-01        00000 
-2.20114e-02  2.18145e-01        00000 
-1.98982e-02  2.38306e-01        00000 
-1.99092e-02  2.57256e-01        00000 
-2.06428e-02  2.73619e-01        00000 
-2.06355e-02  2.91817e-01        00000 
-2.04528e-02  3.11842e-01        00000 
-2.09844e-02  3.32457e-01        00000 
-2.21118e-02  3.52478e-01        00000 
-2.15100e-02  3.68972e-01        00000 
-2.04580e-02  3.84642e-01        00000 
-2.01547e-02  4.02545e-01        00000 
-2.03447e-02  4.20222e-01        00000 
-2.12077e-02  4.38302e-01        00000 
-2.28681e-02  4.57427e-01        00000 
-2.47592e-02  4.77396e-01        00000 
-2.66599e-02  4.97721e-01        00000 
-2.90968e-02  5.16746e-01        00000 
-3.09952e-02  5.34535e-01        00000 
-3.29330e-02  5.52868e-01        00000 
-3.47251e-02  5.73041e-01        00000 
-3.61106e-02  5.93159e-01        00000 
-3.68011e-02  6.12707e-01        00000 
-3.64336e-02  6.31515e-01        00000 
-3.55942e-02  6.50635e-01        00000 
-3.55567e-02  6.68037e-01        00000 
-3.54272e-02  6.86915e-01        00000 
-3.45350e-02  7.05457e-01        00000 
-3.37068e-02  7.24129e-01        00000 
-3.26864e-02  7.42119e-01        00000 
-3.08700e-02  7.59114e-01        00000 
-2.86750e-02  7.76735e-01        00000 
-2.58332e-02  7.95254e-01        00000 
-2.17033e-02  8.12724e-01        00000 
-1.81293e-02  8.29913e-01        00000 
-1.53493e-02  8.47524e-01        00000 
-1.26296e-02  8.64081e-01        00000 
-8.61961e-03  8.79476e-01        00000 
-5.51875e-03  8.94489e-01        00000 
-4.46471e-03  1.64811e-02        00000 
-1.06275e-02  3.32114e-02        00000 
-1.41567e-02  5.03465e-02        00000 
-1.68534e-02  6.71517e-02        00000 
-1.88984e-02  8.37570e-02        00000 
-2.03524e-02  1.01067e-01        00000 
-2.21917e-02  1.20871e-01        00000 
-2.50522e-02  1.38606e-01        00000 
-2.59030e-02  1.53746e-01        00000 
-2.65878e-02  1.71249e-01        00000 
-2.70782e-02  1.90887e-01        00000 
-2.56943e-02  2.11714e-01        00000 
-2.31548e-02  2.30939e-01        00000 
-2.09838e-02  2.50492e-01        00000 
-2.21143e-02  2.68827e-01        00000 
-2.30039e-02  2.86144e-01        00000 
-2.35252e-02  3.05077e-01        00000 
-2.45372e-02  3.26107e-01        00000 
-2.52660e-02  3.44708e-01        00000 
-2.50784e-02  3.62442e-01        00000 
-2.42031e-02  3.78666e-01        00000 
-2.38376e-02  3.96754e-01        00000 
-2.41972e-02  4.14086e-01        00000 
-2.58506e-02  4.31954e-01        00000 
-2.76209e-02  4.49795e-01        00000 
-3.00340e-02  4.68123e-01        00000 
-3.22161e-02  4.85993e-01        00000 
-3.43424e-02  5.05063e-01        00000 
-3.67393e-02  5.23125e-01        00000 
-3.93664e-02  5.42366e-01        00000 
-4.18135e-02  5.62566e-01        00000 
-4.36012e-02  5.83033e-01        00000 
-4.35699e-02  6.01279e-01        00000 
-4.30054e-02  6.20832e-01        00000 
-4.11846e-02  6.39679e-01        00000 
-4.04291e-02  6.57776e-01        00000 
-4.02476e-02  6.76373e-01        00000 
-3.99607e-02  6.95040e-01        00000 
-3.88238e-02  7.10653e-01        00000 
-3.66296e-02  7.27465e-01        00000 
-3.42635e-02  7.45499e-01        00000 
-3.09832e-02  7.63287e-01        00000 
-2.70714e-02  7.80026e-01        00000 
-2.35765e-02  7.97265e-01        00000 
-2.03101e-02  8.13645e-01        00000 
-1.73173e-02  8.30800e-01        00000 
-1.34975e-02  8.46094e-01        00000 
-9.32531e-03  8.60938e-01        00000 
-4.22498e-03  8.75453e-01        00000 
-4.88055e-03  1.62535e-02        00000 
-1.15274e-02  3.13547e-02        00000 
-1.55829e-02  4.77550e-02        00000 
-1.84410e-02  6.47362e-02        00000 
-2.06175e-02  8.16311e-02        00000 
-2.21695e-02  9.99250e-02        00000 
-2.48633e-02  1.18326e-01        00000 
-2.68635e-02  1.35007e-01        00000 
-2.76128e-02  1.50218e-01        00000 
-2.77649e-02  1.67002e-01        00000 
-2.79030e-02  1.83915e-01        00000 
-2.76700e-02  2.03512e-01        00000 
-2.62772e-02  2.23409e-01        00000 
-2.51482e-02  2.43374e-01        00000 
-2.40931e-02  2.63179e-01        00000 
-2.47626e-02  2.80159e-01        00000 
-2.55573e-02  2.96391e-01        00000 
-2.73262e-02  3.14751e-01        00000 
-2.75443e-02  3.33267e-01        00000 
-2.73107e-02  3.51241e-01        00000 
-2.76003e-02  3.72098e-01        00000 
-2.73439e-02  3.89687e-01        00000 
-2.79685e-02  4.06968e-01        00000 
-3.01145e-02  4.24031e-01        00000 
-3.20385e-02  4.41534e-01        00000 
-3.52632e-02  4.59791e-01        00000 
-3.75522e-02  4.76258e-01        00000 
-4.01018e-02  4.94639e-01        00000 
-4.26123e-02  5.13225e-01        00000 
-4.59055e-02  5.32248e-01        00000 
-4.84520e-02  5.52059e-01        00000 
-4.99394e-02  5.71697e-01        00000 
-4.95645e-02  5.89753e-01        00000 
-4.83276e-02  6.09061e-01        00000 
-4.65253e-02  6.27616e-01        00000 
-4.51080e-02  6.47378e-01        00000 
-4.51714e-02  6.66579e-01        00000 
-4.45452e-02  6.83272e-01        00000 
-4.19542e-02  6.97872e-01        00000 
-4.04462e-02  7.15562e-01        00000 
-3.80445e-02  7.33377e-01        00000 
-3.40345e-02  7.50053e-01        00000 
-2.96341e-02  7.65810e-01        00000 
-2.58234e-02  7.81661e-01        00000 
-2.22473e-02  7.98256e-01        00000 
-1.87826e-02  8.14969e-01        00000 
-1.40195e-02  8.29065e-01        00000 
-8.66387e-03  8.41674e-01        00000 
-3.47706e-03  8.53703e-01        00000 
-5.93871e-03  1.42656e-02        00000 
-1.14034e-02  2.95111e-02        00000 
-1.60333e-02  4.53570e-02        00000 
-1.97565e-02  6.24250e-02        00000 
-2.25239e-02  7.95340e-02        00000 
-2.42639e-02  9.72365e-02        00000 
-2.65251e-02  1.14370e-01        00000 
-2.84941e-02  1.30351e-01        00000 
-2.97804e-02  1.46763e-01        00000 
-2.97368e-02  1.62938e-01        00000 
-2.98897e-02  1.79032e-01        00000 
-3.03864e-02  1.96384e-01        00000 
-3.11898e-02  2.16536e-01        00000 
-3.02377e-02  2.36055e-01        00000 
-2.88208e-02  2.56096e-01        00000 
-2.74322e-02  2.74664e-01        00000 
-2.86592e-02  2.91977e-01        00000 
-2.90951e-02  3.06392e-01        00000 
-2.92092e-02  3.20241e-01        00000 
-2.88776e-02  3.37555e-01        00000 
-2.95745e-02  3.58905e-01        00000 
-3.05055e-02  3.79933e-01        00000 
-3.13970e-02  3.98339e-01        00000 
-3.35924e-02  4.15728e-01        00000 
-3.61272e-02  4.33319e-01        00000 
-3.99150e-02  4.51802e-01        00000 
-4.31879e-02  4.69113e-01        00000 
-4.58741e-02  4.86197e-01        00000 
-4.84053e-02  5.04397e-01        00000 
-5.10115e-02  5.22748e-01        00000 
-5.39490e-02  5.41823e-01        00000 
-5.53344e-02  5.61523e-01        00000 
-5.41544e-02  5.79692e-01        00000 
-5.31168e-02  5.98739e-01        00000 
-5.17267e-02  6.16961e-01        00000 
-5.02930e-02  6.35590e-01        00000 
-4.87662e-02  6.52573e-01        00000 
-4.72149e-02  6.70220e-01        00000 
-4.54945e-02  6.87336e-01        00000 
-4.38543e-02  7.03410e-01        00000 
-4.08436e-02  7.18880e-01        00000 
-3.70742e-02  7.32916e-01        00000 
-3.32092e-02  7.47451e-01        00000 
-2.91998e-02  7.63048e-01        00000 
-2.54497e-02  7.81298e-01        00000 
-2.02703e-02  7.97573e-01        00000 
-1.40486e-02  8.09108e-01        00000 
-7.43658e-03  8.20597e-01        00000 
-2.14485e-03  8.30524e-01        00000 
-6.87903e-03  1.35043e-02        00000 
-1.20891e-02  2.86445e-02        00000 
-1.77276e-02  4.51591e-02        00000 
-2.14357e-02  6.21017e-02        00000 
-2.34189e-02  7.71698e-02        00000 
-2.66610e-02  9.41444e-02        00000 
-2.87674e-02  1.10852e-01        00000 
-3.05954e-02  1.25939e-01        00000 
-3.23862e-02  1.42356e-01        00000 
-3.25958e-02  1.57651e-01        00000 
-3.30583e-02  1.74468e-01        00000 
-3.39595e-02  1.91322e-01        00000 
-3.47272e-02  2.10210e-01        00000 
-3.49603e-02  2.29258e-01        00000 
-3.40688e-02  2.47585e-01        00000 
-3.27573e-02  2.66530e-01        00000 
-3.15998e-02  2.85919e-01        00000 
-3.08380e-02  3.00297e-01        00000 
-3.01539e-02  3.13313e-01        00000 
-3.05692e-02  3.27743e-01        00000 
-3.16300e-02  3.47170e-01        00000 
-3.27971e-02  3.67284e-01        00000 
-3.47512e-02  3.88083e-01        00000 
-3.61136e-02  4.06040e-01        00000 
-3.98970e-02  4.23054e-01        00000 
-4.45399e-02  4.40666e-01        00000 
-4.83674e-02  4.58145e-01        00000 
-5.07181e-02  4.74958e-01        00000 
-5.32022e-02  4.93218e-01        00000 
-5.55848e-02  5.11827e-01        00000 
-5.83893e-02  5.29758e-01        00000 
-5.93436e-02  5.48775e-01        00000 
-5.86400e-02  5.67385e-01        00000 
-5.78902e-02  5.87046e-01        00000 
-5.64700e-02  6.04120e-01        00000 
-5.39576e-02  6.20174e-01        00000 
-5.15516e-02  6.37706e-01        00000 
-5.06362e-02  6.57801e-01        00000 
-4.90950e-02  6.75128e-01        00000 
-4.67203e-02  6.89600e-01        00000 
-4.40569e-02  7.02140e-01        00000 
-4.03986e-02  7.15167e-01        00000 
-3.66370e-02  7.29657e-01        00000 
-3.27761e-02  7.45814e-01        00000 
-2.79561e-02  7.62698e-01        00000 
-2.04585e-02  7.76623e-01        00000 
-1.30814e-02  7.90036e-01        00000 
-6.57919e-03  8.00953e-01        00000 
-1.19097e-03  8.09078e-01        00000 
-9.05237e-03  1.45237e-02        00000 
-1.36273e-02  2.89454e-02        00000 
-1.90764e-02  4.53731e-02        00000 
-2.24563e-02  6.00349e-02        00000 
-2.55502e-02  7.46152e-02        00000 
-2.86719e-02  8.96857e-02        00000 
-3.11587e-02  1.05110e-01        00000 