<?xml version="1.0" encoding="utf-8"?>
<VTKFile byte_order="LittleEndian" type="UnstructuredGrid" version="0.1">
   <UnstructuredGrid>
      <Piece NumberOfCells="1408" NumberOfPoints="804">
         <Points>
            <DataArray Name="Points" NumberOfComponents="3" format="ascii" type="Float32">
-1.0000 -0.8947 0.0000
-1.0000 -0.7895 0.0000
-1.0000 -0.6842 0.0000
-1.0000 -0.5789 0.0000
-1.0000 -0.4737 0.0000
-1.0000 -0.3684 0.0000
-1.0000 -0.2632 0.0000
-1.0000 -0.1579 0.0000
-1.0000 -0.0526 0.0000
-1.0000 0.0526 0.0000
-1.0000 0.1579 0.0000
-1.0000 0.2632 0.0000
-1.0000 0.3684 0.0000
-1.0000 0.4737 0.0000
-1.0000 0.5789 0.0000
-1.0000 0.6842 0.0000
-1.0000 0.7895 0.0000
-1.0000 0.8947 0.0000
-1.0000 1.0000 0.0000
-0.8947 -0.8947 0.0000
-0.8947 -0.7895 0.0000
-0.8947 -0.6842 0.0000
-0.8947 -0.5789 0.0000
-0.8947 -0.4737 0.0000
-0.8947 -0.3684 0.0000
-0.8947 -0.2632 0.0000
-0.8947 -0.1579 0.0000
-0.8947 -0.0526 0.0000
-0.8947 0.0526 0.0000
-0.8947 0.1579 0.0000
-0.8947 0.2632 0.0000
-0.8947 0.3684 0.0000
-0.8947 0.4737 0.0000
-0.8947 0.5789 0.0000
-0.8947 0.6842 0.0000
-0.8947 0.7895 0.0000
-0.8947 0.8947 0.0000
-0.8947 1.0000 0.0000
-0.7895 -0.8947 0.0000
-0.7895 -0.7895 0.0000
-0.7895 -0.6842 0.0000
-0.7895 -0.5789 0.0000
-0.7895 -0.4737 0.0000
-0.7895 -0.3684 0.0000
-0.7895 -0.2632 0.0000
-0.7895 -0.1579 0.0000
-0.7895 -0.0526 0.0000
-0.7895 0.0526 0.0000
-0.7895 0.1579 0.0000
-0.7895 0.2632 0.0000
-0.7895 0.3684 0.0000
-0.7895 0.4737 0.0000
-0.7895 0.5789 0.0000
-0.7895 0.6842 0.0000
-0.7895 0.7895 0.0000
-0.7895 0.8947 0.0000
-0.7895 1.0000 0.0000
-0.6842 -0.8947 0.0000
-0.6842 -0.7895 0.0000
-0.6842 -0.6842 0.0000
-0.6842 -0.5789 0.0000
-0.6842 -0.4737 0.0000
-0.6842 -0.3684 0.0000
-0.6842 -0.2632 0.0000
-0.6842 -0.1579 0.0000
-0.6842 -0.0526 0.0000
-0.6842 0.0526 0.0000
-0.6842 0.1579 0.0000
-0.6842 0.2632 0.0000
-0.6842 0.3684 0.0000
-0.6842 0.4737 0.0000
-0.6842 0.5789 0.0000
-0.6842 0.6842 0.0000
-0.6842 0.7895 0.0000
-0.6842 0.8947 0.0000
-0.6842 1.0000 0.0000
-0.5789 -0.8947 0.0000
-0.5789 -0.7895 0.0000
-0.5789 -0.6842 0.0000
-0.5789 -0.5789 0.0000
-0.5789 -0.4737 0.0000
-0.5789 -0.3684 0.0000
-0.5789 -0.2632 0.0000
-0.5789 -0.1579 0.0000
-0.5789 -0.0526 0.0000
-0.5789 0.0526 0.0000
-0.5789 0.1579 0.0000
-0.5789 0.2632 0.0000
-0.5789 0.3684 0.0000
-0.5789 0.4737 0.0000
-0.5789 0.5789 0.0000
-0.5789 0.6842 0.0000
-0.5789 0.7895 0.0000
-0.5789 0.8947 0.0000
-0.5789 1.0000 0.0000
-0.4737 -0.8947 0.0000
-0.4737 -0.7895 0.0000
-0.4737 -0.6842 0.0000
-0.4737 -0.5789 0.0000
-0.4737 -0.4737 0.0000
-0.4737 -0.3684 0.0000
-0.4737 -0.2632 0.0000
-0.4737 -0.1579 0.0000
-0.4737 -0.0526 0.0000
-0.4737 0.0526 0.0000
-0.4737 0.1579 0.0000
-0.4737 0.2632 0.0000
-0.4737 0.3684 0.0000
-0.4737 0.4737 0.0000
-0.4737 0.5789 0.0000
-0.4737 0.6842 0.0000
-0.4737 0.7895 0.0000
-0.4737 0.8947 0.0000
-0.4737 1.0000 0.0000
-0.3684 -0.8947 0.0000
-0.3684 -0.7895 0.0000
-0.3684 -0.6842 0.0000
-0.3684 -0.5789 0.0000
-0.3684 -0.4737 0.0000
-0.3684 -0.3684 0.0000
-0.3684 -0.2632 0.0000
-0.3684 -0.1579 0.0000
-0.3684 -0.0526 0.0000
-0.3684 0.0526 0.0000
-0.3684 0.1579 0.0000
-0.3684 0.2632 0.0000
-0.3684 0.3684 0.0000
-0.3684 0.4737 0.0000
-0.3684 0.5789 0.0000
-0.3684 0.6842 0.0000
-0.3684 0.7895 0.0000
-0.3684 0.8947 0.0000
-0.3684 1.0000 0.0000
-0.2632 -0.8947 0.0000
-0.2632 -0.7895 0.0000
-0.2632 -0.6842 0.0000
-0.2632 -0.5789 0.0000
-0.2632 -0.4737 0.0000
-0.2632 -0.3684 0.0000
-0.2632 -0.2632 0.0000
-0.2632 0.3684 0.0000
-0.2632 0.4737 0.0000
-0.2632 0.5789 0.0000
-0.2632 0.6842 0.0000
-0.2632 0.7895 0.0000
-0.2632 0.8947 0.0000
-0.2632 1.0000 0.0000
-0.1579 -0.8947 0.0000
-0.1579 -0.7895 0.0000
-0.1579 -0.6842 0.0000
-0.1579 -0.5789 0.0000
-0.1579 -0.4737 0.0000
-0.1579 -0.3684 0.0000
-0.1579 -0.2632 0.0000
-0.1579 0.3684 0.0000
-0.1579 0.4737 0.0000
-0.1579 0.5789 0.0000
-0.1579 0.6842 0.0000
-0.1579 0.7895 0.0000
-0.1579 0.8947 0.0000
-0.1579 1.0000 0.0000
-0.0526 -0.8947 0.0000
-0.0526 -0.7895 0.0000
-0.0526 -0.6842 0.0000
-0.0526 -0.5789 0.0000
-0.0526 -0.4737 0.0000
-0.0526 -0.3684 0.0000
-0.0526 0.4737 0.0000
-0.0526 0.5789 0.0000
-0.0526 0.6842 0.0000
-0.0526 0.7895 0.0000
-0.0526 0.8947 0.0000
-0.0526 1.0000 0.0000
0.0526 -0.8947 0.0000
0.0526 -0.7895 0.0000
0.0526 -0.6842 0.0000
0.0526 -0.5789 0.0000
0.0526 -0.4737 0.0000
0.0526 -0.3684 0.0000
0.0526 0.4737 0.0000
0.0526 0.5789 0.0000
0.0526 0.6842 0.0000
0.0526 0.7895 0.0000
0.0526 0.8947 0.0000
0.0526 1.0000 0.0000
0.1579 -0.8947 0.0000
0.1579 -0.7895 0.0000
0.1579 -0.6842 0.0000
0.1579 -0.5789 0.0000
0.1579 -0.4737 0.0000
0.1579 -0.3684 0.0000
0.1579 -0.2632 0.0000
0.1579 0.3684 0.0000
0.1579 0.4737 0.0000
0.1579 0.5789 0.0000
0.1579 0.6842 0.0000
0.1579 0.7895 0.0000
0.1579 0.8947 0.0000
0.1579 1.0000 0.0000
0.2632 -0.8947 0.0000
0.2632 -0.7895 0.0000
0.2632 -0.6842 0.0000
0.2632 -0.5789 0.0000
0.2632 -0.4737 0.0000
0.2632 -0.3684 0.0000
0.2632 -0.2632 0.0000
0.2632 -0.1579 0.0000
0.2632 0.2632 0.0000
0.2632 0.3684 0.0000
0.2632 0.4737 0.0000
0.2632 0.5789 0.0000
0.2632 0.6842 0.0000
0.2632 0.7895 0.0000
0.2632 0.8947 0.0000
0.2632 1.0000 0.0000
0.3684 -0.8947 0.0000
0.3684 -0.7895 0.0000
0.3684 -0.6842 0.0000
0.3684 -0.5789 0.0000
0.3684 -0.4737 0.0000
0.3684 -0.3684 0.0000
0.3684 -0.2632 0.0000
0.3684 -0.1579 0.0000
0.3684 -0.0526 0.0000
0.3684 0.0526 0.0000
0.3684 0.1579 0.0000
0.3684 0.2632 0.0000
0.3684 0.3684 0.0000
0.3684 0.4737 0.0000
0.3684 0.5789 0.0000
0.3684 0.6842 0.0000
0.3684 0.7895 0.0000
0.3684 0.8947 0.0000
0.3684 1.0000 0.0000
0.4737 -0.8947 0.0000
0.4737 -0.7895 0.0000
0.4737 -0.6842 0.0000
0.4737 -0.5789 0.0000
0.4737 -0.4737 0.0000
0.4737 -0.3684 0.0000
0.4737 -0.2632 0.0000
0.4737 -0.1579 0.0000
0.4737 -0.0526 0.0000
0.4737 0.0526 0.0000
0.4737 0.1579 0.0000
0.4737 0.2632 0.0000
0.4737 0.3684 0.0000
0.4737 0.4737 0.0000
0.4737 0.5789 0.0000
0.4737 0.6842 0.0000
0.4737 0.7895 0.0000
0.4737 0.8947 0.0000
0.4737 1.0000 0.0000
0.5789 -0.8947 0.0000
0.5789 -0.7895 0.0000
0.5789 -0.6842 0.0000
0.5789 -0.5789 0.0000
0.5789 -0.4737 0.0000
0.5789 -0.3684 0.0000
0.5789 -0.2632 0.0000
0.5789 -0.1579 0.0000
0.5789 -0.0526 0.0000
0.5789 0.0526 0.0000
0.5789 0.1579 0.0000
0.5789 0.2632 0.0000
0.5789 0.3684 0.0000
0.5789 0.4737 0.0000
0.5789 0.5789 0.0000
0.5789 0.6842 0.0000
0.5789 0.7895 0.0000
0.5789 0.8947 0.0000
0.5789 1.0000 0.0000
0.6842 -0.8947 0.0000
0.6842 -0.7895 0.0000
0.6842 -0.6842 0.0000
0.6842 -0.5789 0.0000
0.6842 -0.4737 0.0000
0.6842 -0.3684 0.0000
0.6842 -0.2632 0.0000
0.6842 -0.1579 0.0000
0.6842 -0.0526 0.0000
0.6842 0.0526 0.0000
0.6842 0.1579 0.0000
0.6842 0.2632 0.0000
0.6842 0.3684 0.0000
0.6842 0.4737 0.0000
0.6842 0.5789 0.0000
0.6842 0.6842 0.0000
0.6842 0.7895 0.0000
0.6842 0.8947 0.0000
0.6842 1.0000 0.0000
0.7895 -0.8947 0.0000
0.7895 -0.7895 0.0000
0.7895 -0.6842 0.0000
0.7895 -0.5789 0.0000
0.7895 -0.4737 0.0000
0.7895 -0.3684 0.0000
0.7895 -0.2632 0.0000
0.7895 -0.1579 0.0000
0.7895 -0.0526 0.0000
0.7895 0.0526 0.0000
0.7895 0.1579 0.0000
0.7895 0.2632 0.0000
0.7895 0.3684 0.0000
0.7895 0.4737 0.0000
0.7895 0.5789 0.0000
0.7895 0.6842 0.0000
0.7895 0.7895 0.0000
0.7895 0.8947 0.0000
0.7895 1.0000 0.0000
0.8947 -0.8947 0.0000
0.8947 -0.7895 0.0000
0.8947 -0.6842 0.0000
0.8947 -0.5789 0.0000
0.8947 -0.4737 0.0000
0.8947 -0.3684 0.0000
0.8947 -0.2632 0.0000
0.8947 -0.1579 0.0000
0.8947 -0.0526 0.0000
0.8947 0.0526 0.0000
0.8947 0.1579 0.0000
0.8947 0.2632 0.0000
0.8947 0.3684 0.0000
0.8947 0.4737 0.0000
0.8947 0.5789 0.0000
0.8947 0.6842 0.0000
0.8947 0.7895 0.0000
0.8947 0.8947 0.0000
0.8947 1.0000 0.0000
-0.2632 -0.1579 0.0000
-0.2632 0.1579 0.0000
-0.2632 0.2632 0.0000
-0.0526 0.3684 0.0000
0.0526 0.3684 0.0000
1.0000 -0.8947 0.0000
1.0000 -0.7895 0.0000
1.0000 -0.6842 0.0000
1.0000 -0.5789 0.0000
1.0000 -0.4737 0.0000
1.0000 -0.3684 0.0000
1.0000 -0.2632 0.0000
1.0000 -0.1579 0.0000
1.0000 -0.0526 0.0000
1.0000 0.0526 0.0000
1.0000 0.1579 0.0000
1.0000 0.2632 0.0000
1.0000 0.3684 0.0000
1.0000 0.4737 0.0000
1.0000 0.5789 0.0000
1.0000 0.6842 0.0000
1.0000 0.7895 0.0000
1.0000 0.8947 0.0000
1.0000 1.0000 0.0000
-0.8947 -1.0000 0.0000
-0.7895 -1.0000 0.0000
-0.6842 -1.0000 0.0000
-0.5789 -1.0000 0.0000
-0.4737 -1.0000 0.0000
-0.3684 -1.0000 0.0000
-0.2632 -1.0000 0.0000
-0.1579 -1.0000 0.0000
-0.1579 0.2632 0.0000
-0.0526 -1.0000 0.0000
0.0526 -1.0000 0.0000
0.1579 -1.0000 0.0000
0.1579 0.2632 0.0000
0.2632 -1.0000 0.0000
0.3684 -1.0000 0.0000
0.4737 -1.0000 0.0000
0.5789 -1.0000 0.0000
0.6842 -1.0000 0.0000
0.7895 -1.0000 0.0000
0.8947 -1.0000 0.0000
1.0000 -1.0000 0.0000
-1.0000 -1.0000 0.0000
0.2632 0.1579 0.0000
-0.9474 -0.9474 0.0000
-0.9474 -0.8421 0.0000
-0.9474 -0.7368 0.0000
-0.9474 -0.6316 0.0000
-0.9474 -0.5263 0.0000
-0.9474 -0.4211 0.0000
-0.9474 -0.3158 0.0000
-0.9474 -0.2105 0.0000
-0.9474 -0.1053 0.0000
-0.9474 0.0000 0.0000
-0.9474 0.1053 0.0000
-0.9474 0.2105 0.0000
-0.9474 0.3158 0.0000
-0.9474 0.4211 0.0000
-0.9474 0.5263 0.0000
-0.9474 0.6316 0.0000
-0.9474 0.7368 0.0000
-0.9474 0.8421 0.0000
-0.9474 0.9474 0.0000
-0.8421 -0.9474 0.0000
-0.8421 -0.8421 0.0000
-0.8421 -0.7368 0.0000
-0.8421 -0.6316 0.0000
-0.8421 -0.5263 0.0000
-0.8421 -0.4211 0.0000
-0.8421 -0.3158 0.0000
-0.8421 -0.2105 0.0000
-0.8421 -0.1053 0.0000
-0.8421 0.0000 0.0000
-0.8421 0.1053 0.0000
-0.8421 0.2105 0.0000
-0.8421 0.3158 0.0000
-0.8421 0.4211 0.0000
-0.8421 0.5263 0.0000
-0.8421 0.6316 0.0000
-0.8421 0.7368 0.0000
-0.8421 0.8421 0.0000
-0.8421 0.9474 0.0000
-0.7368 -0.9474 0.0000
-0.7368 -0.8421 0.0000
-0.7368 -0.7368 0.0000
-0.7368 -0.6316 0.0000
-0.7368 -0.5263 0.0000
-0.7368 -0.4211 0.0000
-0.7368 -0.3158 0.0000
-0.7368 -0.2105 0.0000
-0.7368 -0.1053 0.0000
-0.7368 0.0000 0.0000
-0.7368 0.1053 0.0000
-0.7368 0.2105 0.0000
-0.7368 0.3158 0.0000
-0.7368 0.4211 0.0000
-0.7368 0.5263 0.0000
-0.7368 0.6316 0.0000
-0.7368 0.7368 0.0000
-0.7368 0.8421 0.0000
-0.7368 0.9474 0.0000
-0.6316 -0.9474 0.0000
-0.6316 -0.8421 0.0000
-0.6316 -0.7368 0.0000
-0.6316 -0.6316 0.0000
-0.6316 -0.5263 0.0000
-0.6316 -0.4211 0.0000
[...]
         <PointData>
            <DataArray Name="fValues" NumberOfComponents="3" format="ascii" type="Float64">
 7.45780e-19  5.26316e-02        00000 
       00000  1.05263e-01        00000 
 6.80205e-19  1.57895e-01        00000 
 3.20287e-18  2.10526e-01        00000 
-4.59603e-18  2.63158e-01        00000 
-1.68572e-19  3.15789e-01        00000 
-2.37979e-18  3.68421e-01        00000 
-1.18000e-18  4.21053e-01        00000 
 1.28138e-18  4.73684e-01        00000 
-4.04573e-18  5.26316e-01        00000 
 5.24966e-18  5.78947e-01        00000 
-5.56288e-18  6.31579e-01        00000 
 4.32069e-18  6.84211e-01        00000 
-4.88859e-18  7.36842e-01        00000 
 1.93134e-18  7.89474e-01        00000 
 1.68572e-19  8.42105e-01        00000 
 2.34474e-18  8.94737e-01        00000 
-2.31611e-18  9.47368e-01        00000 
 1.81891e-18  1.00000e+00        00000 
-6.22897e-03  4.68937e-02        00000 
-9.12057e-03  9.63231e-02        00000 
-1.07771e-02  1.46729e-01        00000 
-1.15836e-02  1.97479e-01        00000 
-1.18090e-02  2.48208e-01        00000 
-1.17234e-02  2.98667e-01        00000 
-1.16562e-02  3.48742e-01        00000 
-1.19519e-02  3.98509e-01        00000 
-1.28407e-02  4.48250e-01        00000 
-1.42957e-02  4.98336e-01        00000 
-1.60024e-02  5.49037e-01        00000 
-1.74934e-02  6.00360e-01        00000 
-1.83591e-02  6.52042e-01        00000 
-1.83779e-02  7.03688e-01        00000 
-1.75006e-02  7.54925e-01        00000 
-1.57313e-02  8.05462e-01        00000 
-1.29491e-02  8.55012e-01        00000 
-8.71663e-03  9.02966e-01        00000 
-3.17553e-18  9.47368e-01        00000 
-1.04347e-02  4.37112e-02        00000 
-1.67286e-02  8.96166e-02        00000 
-2.02844e-02  1.37094e-01        00000 
-2.19778e-02  1.85358e-01        00000 
-2.23318e-02  2.33837e-01        00000 
-2.19130e-02  2.82093e-01        00000 
-2.14708e-02  3.29859e-01        00000 
-2.18671e-02  3.77173e-01        00000 
-2.37358e-02  4.24446e-01        00000 
-2.70502e-02  4.72287e-01        00000 
-3.09946e-02  5.21123e-01        00000 
-3.43600e-02  5.70873e-01        00000 
-3.61573e-02  6.20977e-01        00000 
-3.59522e-02  6.70691e-01        00000 
-3.37610e-02  7.19385e-01        00000 
-2.96956e-02  7.66617e-01        00000 
-2.35824e-02  8.11992e-01        00000 
-1.43889e-02  8.54860e-01        00000 
 1.70906e-18  8.94737e-01        00000 
-1.38448e-02  4.08173e-02        00000 
-2.30249e-02  8.36167e-02        00000 
-2.85367e-02  1.28022e-01        00000 
-3.12006e-02  1.73551e-01        00000 
-3.16733e-02  2.19677e-01        00000 
-3.07224e-02  2.65870e-01        00000 
-2.95333e-02  3.11667e-01        00000 
-2.96983e-02  3.56927e-01        00000 
-3.25874e-02  4.02081e-01        00000 
-3.82859e-02  4.47989e-01        00000 
-4.51561e-02  4.95220e-01        00000 
-5.07718e-02  5.43481e-01        00000 
-5.33673e-02  5.91724e-01        00000 
-5.24518e-02  6.38834e-01        00000 
-4.83775e-02  6.84083e-01        00000 
-4.15771e-02  7.27158e-01        00000 
-3.19635e-02  7.67914e-01        00000 
-1.86442e-02  8.06245e-01        00000 
-1.01143e-18  8.42105e-01        00000 
-1.67612e-02  3.78062e-02        00000 
-2.83685e-02  7.73680e-02        00000 
-3.56786e-02  1.18513e-01        00000 
-3.93888e-02  1.61043e-01        00000 
-4.00703e-02  2.04684e-01        00000 
-3.84769e-02  2.49013e-01        00000 
-3.60631e-02  2.93440e-01        00000 
-3.53847e-02  3.37437e-01        00000 
-3.92196e-02  3.81279e-01        00000 
-4.81505e-02  4.26008e-01        00000 
-5.90390e-02  4.72378e-01        00000 
-6.72724e-02  5.19507e-01        00000 
-7.01490e-02  5.65619e-01        00000 
-6.76413e-02  6.09277e-01        00000 
-6.09742e-02  6.50063e-01        00000 
-5.11434e-02  6.88150e-01        00000 
-3.83193e-02  7.23886e-01        00000 
-2.17637e-02  7.57579e-01        00000 
 2.29271e-18  7.89474e-01        00000 
-1.91697e-02  3.44536e-02        00000 
-3.27658e-02  7.03484e-02        00000 
-4.16819e-02  1.07694e-01        00000 
-4.65224e-02  1.46597e-01        00000 
-4.76608e-02  1.87169e-01        00000 
-4.55823e-02  2.29413e-01        00000 
-4.16784e-02  2.73094e-01        00000 
-3.92685e-02  3.17676e-01        00000 
-4.37358e-02  3.62438e-01        00000 
-5.72971e-02  4.08373e-01        00000 
-7.37975e-02  4.55429e-01        00000 
-8.45922e-02  5.01746e-01        00000 
-8.63653e-02  5.44475e-01        00000 
-8.09235e-02  5.82992e-01        00000 
-7.09079e-02  6.17803e-01        00000 
-5.79933e-02  6.49888e-01        00000 
-4.24899e-02  6.80080e-01        00000 
-2.36599e-02  7.08939e-01        00000 
-1.46550e-18  7.36842e-01        00000 
-2.08943e-02  3.06798e-02        00000 
-3.59434e-02  6.23027e-02        00000 
-4.61680e-02  9.50061e-02        00000 
-5.21448e-02  1.29103e-01        00000 
-5.40417e-02  1.65076e-01        00000 
-5.19074e-02  2.03541e-01        00000 
-4.68320e-02  2.45361e-01        00000 
-4.31885e-02  2.92407e-01        00000 
-4.83079e-02  3.46572e-01        00000 
-6.82076e-02  4.01611e-01        00000 
-9.08247e-02  4.52629e-01        00000 
-1.02239e-01  4.94252e-01        00000 
-1.00849e-01  5.29640e-01        00000 
-9.09177e-02  5.59828e-01        00000 
-7.71446e-02  5.86643e-01        00000 
-6.15502e-02  6.11737e-01        00000 
-4.42116e-02  6.36080e-01        00000 
-2.42028e-02  6.60133e-01        00000 
-3.08310e-18  6.84211e-01        00000 
-2.16930e-02  2.65658e-02        00000 
-3.74788e-02  5.33649e-02        00000 
-4.84786e-02  8.05332e-02        00000 
-5.52660e-02  1.08324e-01        00000 
-5.78527e-02  1.37162e-01        00000 
-5.56320e-02  1.67707e-01        00000 
-4.87866e-02  2.00893e-01        00000 
-1.10791e-01  5.19001e-01        00000 
-9.55446e-02  5.36943e-01        00000 
-7.85838e-02  5.54186e-01        00000 
-6.14366e-02  5.72109e-01        00000 
-4.34325e-02  5.91005e-01        00000 
-2.34102e-02  6.10809e-01        00000 
-1.46550e-18  6.31579e-01        00000 
-2.13872e-02  2.23709e-02        00000 
-3.70343e-02  4.41476e-02        00000 
-4.79999e-02  6.53284e-02        00000 
-5.47881e-02  8.57860e-02        00000 
-5.71528e-02  1.05274e-01        00000 
-5.35165e-02  1.23022e-01        00000 
-3.87191e-02  1.35203e-01        00000 
-1.13411e-01  5.02644e-01        00000 
-9.32147e-02  5.07616e-01        00000 
-7.50464e-02  5.16497e-01        00000 
-5.80144e-02  5.28902e-01        00000 
-4.05889e-02  5.43838e-01        00000 
-2.15705e-02  5.60591e-01        00000 
 1.20289e-19  5.78947e-01        00000 
-1.99929e-02  1.84748e-02        00000 
-3.46240e-02  3.56179e-02        00000 
-4.46662e-02  5.12700e-02        00000 
-5.03936e-02  6.48764e-02        00000 
-5.13414e-02  7.53859e-02        00000 
-4.45188e-02  8.08686e-02        00000 
-8.53052e-02  4.64129e-01        00000 
-6.82217e-02  4.70208e-01        00000 
-5.26543e-02  4.80664e-01        00000 
-3.66449e-02  4.93972e-01        00000 
-1.92306e-02  5.09280e-01        00000 
-1.92878e-18  5.26316e-01        00000 
-1.77772e-02  1.52383e-02        00000 
-3.07451e-02  2.87132e-02        00000 
-3.92476e-02  4.02449e-02        00000 
-4.32980e-02  4.92133e-02        00000 
-4.23316e-02  5.45734e-02        00000 
-3.48232e-02  5.54649e-02        00000 
-7.62819e-02  4.05881e-01        00000 
-6.11306e-02  4.15678e-01        00000 
-4.72374e-02  4.27804e-01        00000 
-3.27675e-02  4.41686e-01        00000 
-1.70157e-02  4.57002e-01        00000 
-1.31718e-18  4.73684e-01        00000 
-1.51875e-02  1.28508e-02        00000 
-2.62350e-02  2.39014e-02        00000 
-3.31003e-02  3.31271e-02        00000 
-3.56822e-02  4.02659e-02        00000 
-3.38076e-02  4.50852e-02        00000 
-2.81418e-02  4.79921e-02        00000 
-2.37701e-02  4.96069e-02        00000 
-8.79518e-02  3.26333e-01        00000 
-6.98879e-02  3.41989e-01        00000 
-5.59458e-02  3.57427e-01        00000 
-4.31210e-02  3.72626e-01        00000 
-2.97939e-02  3.88104e-01        00000 
-1.53732e-02  4.04183e-01        00000 
-2.60307e-18  4.21053e-01        00000 
-1.26859e-02  1.12615e-02        00000 
-2.19295e-02  2.09969e-02        00000 
-2.74900e-02  2.94011e-02        00000 
-2.93698e-02  3.66947e-02        00000 
-2.79669e-02  4.34042e-02        00000 
-2.48217e-02  5.05865e-02        00000 
-2.36236e-02  5.94139e-02        00000 
-2.90925e-02  7.05994e-02        00000 
-9.22498e-02  2.40815e-01        00000 
-8.00370e-02  2.62603e-01        00000 
-6.56690e-02  2.82457e-01        00000 
-5.27020e-02  3.00772e-01        00000 
-4.04576e-02  3.17943e-01        00000 
-2.78901e-02  3.34625e-01        00000 
-1.44068e-02  3.51360e-01        00000 
 9.35713e-19  3.68421e-01        00000 
-1.05866e-02  1.02290e-02        00000 
-1.83479e-02  1.93306e-02        00000 
-2.30604e-02  2.76520e-02        00000 
-2.49367e-02  3.57203e-02        00000 
-2.47438e-02  4.43698e-02        00000 
-2.41348e-02  5.47637e-02        00000 
-2.58190e-02  6.82012e-02        00000 
-3.25465e-02  8.60307e-02        00000 
-4.66330e-02  1.11068e-01        00000 
-6.60411e-02  1.40745e-01        00000 
-8.00053e-02  1.69255e-01        00000 
-8.13245e-02  1.92217e-01        00000 
-7.31405e-02  2.12027e-01        00000 
-6.16512e-02  2.30700e-01        00000 
-4.99539e-02  2.48520e-01        00000 
-3.84554e-02  2.65595e-01        00000 
-2.66247e-02  2.82281e-01        00000 
-1.38999e-02  2.98955e-01        00000 
-2.76854e-18  3.15789e-01        00000 
-8.98138e-03  9.43753e-03        00000 
-1.55814e-02  1.80939e-02        00000 
-1.97532e-02  2.63527e-02        00000 
-2.19041e-02  3.48169e-02        00000 
-2.29303e-02  4.42841e-02        00000 
-2.43118e-02  5.56410e-02        00000 
-2.79859e-02  6.96300e-02        00000 
-3.58903e-02  8.65828e-02        00000 
-4.82588e-02  1.05371e-01        00000 
-6.17127e-02  1.23842e-01        00000 
-7.02969e-02  1.40396e-01        00000 
-7.08731e-02  1.55621e-01        00000 
-6.51243e-02  1.70498e-01        00000 
-5.62192e-02  1.85559e-01        00000 
-4.63081e-02  2.00780e-01        00000 
-3.60776e-02  2.16062e-01        00000 
-2.53145e-02  2.31476e-01        00000 
-1.34765e-02  2.47169e-01        00000 
-1.36052e-18  2.63158e-01        00000 
-7.76001e-03  8.60113e-03        00000 
-1.33729e-02  1.66090e-02        00000 
-1.70605e-02  2.43684e-02        00000 
-1.93712e-02  3.24292e-02        00000 
-2.11610e-02  4.14092e-02        00000 
-2.35768e-02  5.18225e-02        00000 
-2.78851e-02  6.38547e-02        00000 
-3.48908e-02  7.70443e-02        00000 
-4.40300e-02  9.02959e-02        00000 
-5.29240e-02  1.02435e-01        00000 
-5.84843e-02  1.13183e-01        00000 
-5.90602e-02  1.23248e-01        00000 
-5.52466e-02  1.33583e-01        00000 
-4.87444e-02  1.44648e-01        00000 
-4.09697e-02  1.56472e-01        00000 
-3.25361e-02  1.68971e-01        00000 
-2.33315e-02  1.82138e-01        00000 
-1.27668e-02  1.96014e-01        00000 
-5.77108e-19  2.10526e-01        00000 
-6.67879e-03  7.50928e-03        00000 
-1.12664e-02  1.44177e-02        00000 
-1.43157e-02  2.10412e-02        00000 
-1.64630e-02  2.78635e-02        00000 
-1.84149e-02  3.53316e-02        00000 
-2.09453e-02  4.36806e-02        00000 
-2.47396e-02  5.27975e-02        00000 
-3.00355e-02  6.21705e-02        00000 
-3.62395e-02  7.10521e-02        00000 
-4.19232e-02  7.88888e-02        00000 
-4.54627e-02  8.57033e-02        00000 
-4.59538e-02  9.20849e-02        00000 
-4.35810e-02  9.87531e-02        00000 
-3.91953e-02  1.06178e-01        00000 
-3.36465e-02  1.14515e-01        00000 
-2.73630e-02  1.23785e-01        00000 
-2.02105e-02  1.34054e-01        00000 
-1.14812e-02  1.45429e-01        00000 
-7.27128e-19  1.57895e-01        00000 
-5.41126e-03  6.00147e-03        00000 
-8.71371e-03  1.12167e-02        00000 
-1.08687e-02  1.60195e-02        00000 
-1.25155e-02  2.09184e-02        00000 
-1.41176e-02  2.62155e-02        00000 
-1.61081e-02  3.19835e-02        00000 
-1.88019e-02  3.80395e-02        00000 
-2.22238e-02  4.39834e-02        00000 
-2.59713e-02  4.93620e-02        00000 
-2.92791e-02  5.39112e-02        00000 
-3.13365e-02  5.77319e-02        00000 
-3.16770e-02  6.12449e-02        00000 
-3.03444e-02  6.49639e-02        00000 
-2.77364e-02  6.92707e-02        00000 
-2.43008e-02  7.43497e-02        00000 
-2.02832e-02  8.02757e-02        00000 
-1.55704e-02  8.71776e-02        00000 
-9.36707e-03  9.54285e-02        00000 
-3.37144e-19  1.05263e-01        00000 
-3.50019e-03  3.89780e-03        00000 
-5.09243e-03  6.61198e-03        00000 
-6.19830e-03  9.06120e-03        00000 
-7.10246e-03  1.15915e-02        00000 
-8.01404e-03  1.43454e-02        00000 
-9.10104e-03  1.73191e-02        00000 
-1.04662e-02  2.03685e-02        00000 
-1.20864e-02  2.32521e-02        00000 
-1.37771e-02  2.57297e-02        00000 
-1.52298e-02  2.76863e-02        00000 
-1.61312e-02  2.92053e-02        00000 
-1.62973e-02  3.05368e-02        00000 
-1.57326e-02  3.19804e-02        00000 
-1.45812e-02  3.37666e-02        00000 
-1.30196e-02  3.60109e-02        00000 
-1.11534e-02  3.87520e-02        00000 
-8.92193e-03  4.20552e-02        00000 
-5.98840e-03  4.62427e-02        00000 
 1.19328e-18  5.26316e-02        00000 
-4.52557e-02  2.42071e-01        00000 
-1.03175e-01  4.76379e-01        00000 
-1.17230e-01  4.98709e-01        00000 
-1.08539e-01  4.63969e-01        00000 
-9.89526e-02  3.99649e-01        00000 
-2.17095e-19 -4.18316e-19        00000 
 8.71278e-19 -3.15026e-19        00000 
 7.82155e-19 -3.09658e-19        00000 
-5.61584e-19  2.21184e-20        00000 
 2.24286e-18  1.63526e-18        00000 
 2.83448e-19  4.15312e-18        00000 
-4.28257e-19  8.56514e-19        00000 
-2.22268e-19 -1.91547e-18        00000 
 1.99001e-19  1.69880e-18        00000 
 9.13778e-19  6.01278e-18        00000 
-9.92850e-19  7.81434e-19        00000 
-1.10909e-18  1.62990e-18        00000 
-1.05648e-18  2.79606e-18        00000 
-7.09086e-19 -1.93995e-18        00000 
 4.87175e-19  8.27929e-18        00000 
-2.39481e-18 -5.98568e-18        00000 
-1.03391e-19  6.41798e-18        00000 
 6.54549e-19 -1.30910e-17        00000 
-4.61957e-19  2.85440e-17        00000 
-3.27274e-19 -1.17819e-17        00000 
 5.67190e-19  6.01578e-18        00000 
-1.45229e-18 -3.46628e-18        00000 
-9.08009e-19 -8.11227e-18        00000 
 4.02002e-19  9.34519e-18        00000 
 6.63877e-19 -1.68481e-18        00000 
-2.12405e-18  2.18369e-18        00000 
 1.41660e-18 -2.25151e-18        00000 
-1.26716e-01  5.00857e-01        00000 
-1.11262e-18  4.20655e-18        00000 
-1.75062e-18  4.33171e-19        00000 
-2.13910e-18  9.99196e-19        00000 
-1.12198e-01  3.14289e-01        00000 
 1.62737e-18  1.71302e-19        00000 
-6.21957e-19 -8.55096e-19        00000 
-1.81308e-18  6.44225e-20        00000 
-3.63210e-19 -1.24001e-18        00000 
-8.15083e-19 -3.39952e-19        00000 
 9.03563e-19  1.08912e-19        00000 
-4.90911e-19  3.27274e-19        00000 
 5.11501e-19 -3.11739e-19        00000 
-3.27626e-19  1.78400e-17        00000 
-8.71536e-02  2.10553e-01        00000 
-2.27448e-03  2.41027e-02        00000 
-4.23765e-03  7.49164e-02        00000 
-5.25264e-03  1.26345e-01        00000 
-5.82536e-03  1.78056e-01        00000 
-6.08600e-03  2.29815e-01        00000 
-6.15467e-03  2.81466e-01        00000 
-6.16453e-03  3.32913e-01        00000 
-6.26000e-03  3.84144e-01        00000 
-6.55956e-03  4.35263e-01        00000 
-7.10227e-03  4.86464e-01        00000 
-7.81580e-03  5.37946e-01        00000 
-8.53753e-03  5.89795e-01        00000 
-9.08182e-03  6.41940e-01        00000 
-9.30744e-03  6.94194e-01        00000 
-9.14400e-03  7.46342e-01        00000 
-8.56979e-03  7.98213e-01        00000 
-7.55531e-03  8.49677e-01        00000 
-6.00105e-03  9.00550e-01        00000 
-3.20786e-03  9.50515e-01        00000 
-4.56374e-03  2.21255e-02        00000 
-1.10687e-02  6.87109e-02        00000 
-1.45937e-02  1.17203e-01        00000 
-1.64665e-02  1.66554e-01        00000 
-1.72067e-02  2.16204e-01        00000 
-1.72198e-02  2.65743e-01        00000 
-1.69795e-02  3.14887e-01        00000 
-1.70432e-02  3.63558e-01        00000 
-1.79073e-02  4.11972e-01        00000 
-1.97612e-02  4.60597e-01        00000 
-2.23189e-02  5.09916e-01        00000 
-2.49092e-02  5.60114e-01        00000 
-2.67897e-02  6.10947e-01        00000 
-2.74531e-02  6.61878e-01        00000 
-2.67158e-02  7.12337e-01        00000 
-2.45852e-02  7.61884e-01        00000 
-2.10115e-02  8.10187e-01        00000 
-1.55451e-02  8.56828e-01        00000 
-6.34201e-03  9.00692e-01        00000 
-6.43163e-03  2.07059e-02        00000 
-1.63965e-02  6.40797e-02        00000 
-2.25276e-02  1.09343e-01        00000 
-2.58417e-02  1.55885e-01        00000 
-2.70901e-02  2.03091e-01        00000 
-2.69179e-02  2.50436e-01        00000 
-2.61560e-02  2.97465e-01        00000 
-2.58990e-02  3.43935e-01        00000 
-2.72370e-02  3.90029e-01        00000 
-3.06565e-02  4.36403e-01        00000 
-3.55723e-02  4.83789e-01        00000 
-4.05069e-02  5.32393e-01        00000 
-4.38967e-02  5.81664e-01        00000 
-4.48076e-02  6.30645e-01        00000 
-4.30662e-02  6.78483e-01        00000 
-3.88724e-02  7.24652e-01        00000 
-3.22821e-02  7.68858e-01        00000 
-2.27118e-02  8.10768e-01        00000 
-8.76034e-03  8.50019e-01        00000 
-8.02790e-03  1.92913e-02        00000 
-2.09045e-02  5.95987e-02        00000 
-2.93097e-02  1.01655e-01        00000 
-3.40760e-02  1.45152e-01        00000 
-3.58939e-02  1.89713e-01        00000 
-3.54688e-02  2.34891e-01        00000 
-3.38701e-02  2.80151e-01        00000 
-3.28278e-02  3.24973e-01        00000 
-3.43866e-02  3.69313e-01        00000 
-3.97082e-02  4.13935e-01        00000 
-4.77656e-02  4.59896e-01        00000 
-5.57012e-02  5.07319e-01        00000 
-6.06565e-02  5.55048e-01        00000 
-6.13338e-02  6.01562e-01        00000 
-5.79190e-02  6.45888e-01        00000 
-5.11416e-02  6.87742e-01        00000 
-4.13784e-02  7.27178e-01        00000 
-2.82524e-02  7.64310e-01        00000 
-1.05977e-02  7.99241e-01        00000 
-9.40179e-03  1.77639e-02        00000 
-2.47247e-02  5.47455e-02        00000 
-3.50986e-02  9.32802e-02        00000 
-4.12714e-02  1.33321e-01        00000 
-4.37942e-02  1.74816e-01        00000 
-4.32081e-02  2.17631e-01        00000 
-4.05435e-02  2.61427e-01        00000 
-3.80256e-02  3.05629e-01        00000 
-3.92871e-02  3.49629e-01        00000 
-4.69501e-02  3.93946e-01        00000 
-5.94852e-02  4.39845e-01        00000 
-7.12770e-02  4.86945e-01        00000 
-7.75176e-02  5.32975e-01        00000 
-7.69124e-02  5.75957e-01        00000 
-7.08586e-02  6.15452e-01        00000 
-6.10050e-02  6.51861e-01        00000 
-4.81795e-02  6.85836e-01        00000 
-3.21625e-02  7.17905e-01        00000 
-1.18548e-02  7.48445e-01        00000 
-1.04877e-02  1.60678e-02        00000 
-2.77273e-02  4.92645e-02        00000 
-3.97201e-02  8.36743e-02        00000 
-4.72300e-02  1.19458e-01        00000 
-5.06673e-02  1.56891e-01        00000 
-5.02705e-02  1.96307e-01        00000 
-4.67326e-02  2.37999e-01        00000 
-4.24338e-02  2.82289e-01        00000 
-4.24498e-02  3.29692e-01        00000 
-5.32491e-02  3.78956e-01        00000 
-7.20365e-02  4.28746e-01        00000 
-8.84499e-02  4.75937e-01        00000 
-9.44289e-02  5.17923e-01        00000 
-9.08052e-02  5.54795e-01        00000 
-8.09730e-02  5.87286e-01        00000 
-6.77728e-02  6.16853e-01        00000 
-5.22924e-02  6.44675e-01        00000 
-3.42417e-02  6.71455e-01        00000 
-1.24440e-02  6.97599e-01        00000 
-1.11611e-02  1.42116e-02        00000 
-2.96053e-02  4.31362e-02        00000 
-4.27091e-02  7.27048e-02        00000 
-5.13026e-02  1.03140e-01        00000 
-5.57182e-02  1.34830e-01        00000 
-5.58485e-02  1.68382e-01        00000 
-5.18688e-02  2.04597e-01        00000 