<?xml version="1.0" encoding="utf-8"?>
<VTKFile byte_order="LittleEndian" type="UnstructuredGrid" version="0.1">
   <UnstructuredGrid>
      <Piece NumberOfCells="1408" NumberOfPoints="804">
         <Points>
            <DataArray Name="Points" NumberOfComponents="3" format="ascii" type="Float32">
-1.0000 -0.8947 0.0000
-1.0000 -0.7895 0.0000
-1.0000 -0.6842 0.0000
-1.0000 -0.5789 0.0000
-1.0000 -0.4737 0.0000
-1.0000 -0.3684 0.0000
-1.0000 -0.2632 0.0000
-1.0000 -0.1579 0.0000
-1.0000 -0.0526 0.0000
-1.0000 0.0526 0.0000
-1.0000 0.1579 0.0000
-1.0000 0.2632 0.0000
-1.0000 0.3684 0.0000
-1.0000 0.4737 0.0000
-1.0000 0.5789 0.0000
-1.0000 0.6842 0.0000
-1.0000 0.7895 0.0000
-1.0000 0.8947 0.0000
-1.0000 1.0000 0.0000
-0.8947 -0.8947 0.0000
-0.8947 -0.7895 0.0000
-0.8947 -0.6842 0.0000
-0.8947 -0.5789 0.0000
-0.8947 -0.4737 0.0000
-0.8947 -0.3684 0.0000
-0.8947 -0.2632 0.0000
-0.8947 -0.1579 0.0000
-0.8947 -0.0526 0.0000
-0.8947 0.0526 0.0000
-0.8947 0.1579 0.0000
-0.8947 0.2632 0.0000
-0.8947 0.3684 0.0000
-0.8947 0.4737 0.0000
-0.8947 0.5789 0.0000
-0.8947 0.6842 0.0000
-0.8947 0.7895 0.0000
-0.8947 0.8947 0.0000
-0.8947 1.0000 0.0000
-0.7895 -0.8947 0.0000
-0.7895 -0.7895 0.0000
-0.7895 -0.6842 0.0000
-0.7895 -0.5789 0.0000
-0.7895 -0.4737 0.0000
-0.7895 -0.3684 0.0000
-0.7895 -0.2632 0.0000
-0.7895 -0.1579 0.0000
-0.7895 -0.0526 0.0000
-0.7895 0.0526 0.0000
-0.7895 0.1579 0.0000
-0.7895 0.2632 0.0000
-0.7895 0.3684 0.0000
-0.7895 0.4737 0.0000
-0.7895 0.5789 0.0000
-0.7895 0.6842 0.0000
-0.7895 0.7895 0.0000
-0.7895 0.8947 0.0000
-0.7895 1.0000 0.0000
-0.6842 -0.8947 0.0000
-0.6842 -0.7895 0.0000
-0.6842 -0.6842 0.0000
-0.6842 -0.5789 0.0000
-0.6842 -0.4737 0.0000
-0.6842 -0.3684 0.0000
-0.6842 -0.2632 0.0000
-0.6842 -0.1579 0.0000
-0.6842 -0.0526 0.0000
-0.6842 0.0526 0.0000
-0.6842 0.1579 0.0000
-0.6842 0.2632 0.0000
-0.6842 0.3684 0.0000
-0.6842 0.4737 0.0000
-0.6842 0.5789 0.0000
-0.6842 0.6842 0.0000
-0.6842 0.7895 0.0000
-0.6842 0.8947 0.0000
-0.6842 1.0000 0.0000
-0.5789 -0.8947 0.0000
-0.5789 -0.7895 0.0000
-0.5789 -0.6842 0.0000
-0.5789 -0.5789 0.0000
-0.5789 -0.4737 0.0000
-0.5789 -0.3684 0.0000
-0.5789 -0.2632 0.0000
-0.5789 -0.1579 0.0000
-0.5789 -0.0526 0.0000
-0.5789 0.0526 0.0000
-0.5789 0.1579 0.0000
-0.5789 0.2632 0.0000
-0.5789 0.3684 0.0000
-0.5789 0.4737 0.0000
-0.5789 0.5789 0.0000
-0.5789 0.6842 0.0000
-0.5789 0.7895 0.0000
-0.5789 0.8947 0.0000
-0.5789 1.0000 0.0000
-0.4737 -0.8947 0.0000
-0.4737 -0.7895 0.0000
-0.4737 -0.6842 0.0000
-0.4737 -0.5789 0.0000
-0.4737 -0.4737 0.0000
-0.4737 -0.3684 0.0000
-0.4737 -0.2632 0.0000
-0.4737 -0.1579 0.0000
-0.4737 -0.0526 0.0000
-0.4737 0.0526 0.0000
-0.4737 0.1579 0.0000
-0.4737 0.2632 0.0000
-0.4737 0.3684 0.0000
-0.4737 0.4737 0.0000
-0.4737 0.5789 0.0000
-0.4737 0.6842 0.0000
-0.4737 0.7895 0.0000
-0.4737 0.8947 0.0000
-0.4737 1.0000 0.0000
-0.3684 -0.8947 0.0000
-0.3684 -0.7895 0.0000
-0.3684 -0.6842 0.0000
-0.3684 -0.5789 0.0000
-0.3684 -0.4737 0.0000
-0.3684 -0.3684 0.0000
-0.3684 -0.2632 0.0000
-0.3684 -0.1579 0.0000
-0.3684 -0.0526 0.0000
-0.3684 0.0526 0.0000
-0.3684 0.1579 0.0000
-0.3684 0.2632 0.0000
-0.3684 0.3684 0.0000
-0.3684 0.4737 0.0000
-0.3684 0.5789 0.0000
-0.3684 0.6842 0.0000
-0.3684 0.7895 0.0000
-0.3684 0.8947 0.0000
-0.3684 1.0000 0.0000
-0.2632 -0.8947 0.0000
-0.2632 -0.7895 0.0000
-0.2632 -0.6842 0.0000
-0.2632 -0.5789 0.0000
-0.2632 -0.4737 0.0000
-0.2632 -0.3684 0.0000
-0.2632 -0.2632 0.0000
-0.2632 0.3684 0.0000
-0.2632 0.4737 0.0000
-0.2632 0.5789 0.0000
-0.2632 0.6842 0.0000
-0.2632 0.7895 0.0000
-0.2632 0.8947 0.0000
-0.2632 1.0000 0.0000
-0.1579 -0.8947 0.0000
-0.1579 -0.7895 0.0000
-0.1579 -0.6842 0.0000
-0.1579 -0.5789 0.0000
-0.1579 -0.4737 0.0000
-0.1579 -0.3684 0.0000
-0.1579 -0.2632 0.0000
-0.1579 0.3684 0.0000
-0.1579 0.4737 0.0000
-0.1579 0.5789 0.0000
-0.1579 0.6842 0.0000
-0.1579 0.7895 0.0000
-0.1579 0.8947 0.0000
-0.1579 1.0000 0.0000
-0.0526 -0.8947 0.0000
-0.0526 -0.7895 0.0000
-0.0526 -0.6842 0.0000
-0.0526 -0.5789 0.0000
-0.0526 -0.4737 0.0000
-0.0526 -0.3684 0.0000
-0.0526 0.4737 0.0000
-0.0526 0.5789 0.0000
-0.0526 0.6842 0.0000
-0.0526 0.7895 0.0000
-0.0526 0.8947 0.0000
-0.0526 1.0000 0.0000
0.0526 -0.8947 0.0000
0.0526 -0.7895 0.0000
0.0526 -0.6842 0.0000
0.0526 -0.5789 0.0000
0.0526 -0.4737 0.0000
0.0526 -0.3684 0.0000
0.0526 0.4737 0.0000
0.0526 0.5789 0.0000
0.0526 0.6842 0.0000
0.0526 0.7895 0.0000
0.0526 0.8947 0.0000
0.0526 1.0000 0.0000
0.1579 -0.8947 0.0000
0.1579 -0.7895 0.0000
0.1579 -0.6842 0.0000
0.1579 -0.5789 0.0000
0.1579 -0.4737 0.0000
0.1579 -0.3684 0.0000
0.1579 -0.2632 0.0000
0.1579 0.3684 0.0000
0.1579 0.4737 0.0000
0.1579 0.5789 0.0000
0.1579 0.6842 0.0000
0.1579 0.7895 0.0000
0.1579 0.8947 0.0000
0.1579 1.0000 0.0000
0.2632 -0.8947 0.0000
0.2632 -0.7895 0.0000
0.2632 -0.6842 0.0000
0.2632 -0.5789 0.0000
0.2632 -0.4737 0.0000
0.2632 -0.3684 0.0000
0.2632 -0.2632 0.0000
0.2632 -0.1579 0.0000
0.2632 0.2632 0.0000
0.2632 0.3684 0.0000
0.2632 0.4737 0.0000
0.2632 0.5789 0.0000
0.2632 0.6842 0.0000
0.2632 0.7895 0.0000
0.2632 0.8947 0.0000
0.2632 1.0000 0.0000
0.3684 -0.8947 0.0000
0.3684 -0.7895 0.0000
0.3684 -0.6842 0.0000
0.3684 -0.5789 0.0000
0.3684 -0.4737 0.0000
0.3684 -0.3684 0.0000
0.3684 -0.2632 0.0000
0.3684 -0.1579 0.0000
0.3684 -0.0526 0.0000
0.3684 0.0526 0.0000
0.3684 0.1579 0.0000
0.3684 0.2632 0.0000
0.3684 0.3684 0.0000
0.3684 0.4737 0.0000
0.3684 0.5789 0.0000
0.3684 0.6842 0.0000
0.3684 0.7895 0.0000
0.3684 0.8947 0.0000
0.3684 1.0000 0.0000
0.4737 -0.8947 0.0000
0.4737 -0.7895 0.0000
0.4737 -0.6842 0.0000
0.4737 -0.5789 0.0000
0.4737 -0.4737 0.0000
0.4737 -0.3684 0.0000
0.4737 -0.2632 0.0000
0.4737 -0.1579 0.0000
0.4737 -0.0526 0.0000
0.4737 0.0526 0.0000
0.4737 0.1579 0.0000
0.4737 0.2632 0.0000
0.4737 0.3684 0.0000
0.4737 0.4737 0.0000
0.4737 0.5789 0.0000
0.4737 0.6842 0.0000
0.4737 0.7895 0.0000
0.4737 0.8947 0.0000
0.4737 1.0000 0.0000
0.5789 -0.8947 0.0000
0.5789 -0.7895 0.0000
0.5789 -0.6842 0.0000
0.5789 -0.5789 0.0000
0.5789 -0.4737 0.0000
0.5789 -0.3684 0.0000
0.5789 -0.2632 0.0000
0.5789 -0.1579 0.0000
0.5789 -0.0526 0.0000
0.5789 0.0526 0.0000
0.5789 0.1579 0.0000
0.5789 0.2632 0.0000
0.5789 0.3684 0.0000
0.5789 0.4737 0.0000
0.5789 0.5789 0.0000
0.5789 0.6842 0.0000
0.5789 0.7895 0.0000
0.5789 0.8947 0.0000
0.5789 1.0000 0.0000
0.6842 -0.8947 0.0000
0.6842 -0.7895 0.0000
0.6842 -0.6842 0.0000
0.6842 -0.5789 0.0000
0.6842 -0.4737 0.0000
0.6842 -0.3684 0.0000
0.6842 -0.2632 0.0000
0.6842 -0.1579 0.0000
0.6842 -0.0526 0.0000
0.6842 0.0526 0.0000
0.6842 0.1579 0.0000
0.6842 0.2632 0.0000
0.6842 0.3684 0.0000
0.6842 0.4737 0.0000
0.6842 0.5789 0.0000
0.6842 0.6842 0.0000
0.6842 0.7895 0.0000
0.6842 0.8947 0.0000
0.6842 1.0000 0.0000
0.7895 -0.8947 0.0000
0.7895 -0.7895 0.0000
0.7895 -0.6842 0.0000
0.7895 -0.5789 0.0000
0.7895 -0.4737 0.0000
0.7895 -0.3684 0.0000
0.7895 -0.2632 0.0000
0.7895 -0.1579 0.0000
0.7895 -0.0526 0.0000
0.7895 0.0526 0.0000
0.7895 0.1579 0.0000
0.7895 0.2632 0.0000
0.7895 0.3684 0.0000
0.7895 0.4737 0.0000
0.7895 0.5789 0.0000
0.7895 0.6842 0.0000
0.7895 0.7895 0.0000
0.7895 0.8947 0.0000
0.7895 1.0000 0.0000
0.8947 -0.8947 0.0000
0.8947 -0.7895 0.0000
0.8947 -0.6842 0.0000
0.8947 -0.5789 0.0000
0.8947 -0.4737 0.0000
0.8947 -0.3684 0.0000
0.8947 -0.2632 0.0000
0.8947 -0.1579 0.0000
0.8947 -0.0526 0.0000
0.8947 0.0526 0.0000
0.8947 0.1579 0.0000
0.8947 0.2632 0.0000
0.8947 0.3684 0.0000
0.8947 0.4737 0.0000
0.8947 0.5789 0.0000
0.8947 0.6842 0.0000
0.8947 0.7895 0.0000
0.8947 0.8947 0.0000
0.8947 1.0000 0.0000
-0.2632 -0.1579 0.0000
-0.2632 0.1579 0.0000
-0.2632 0.2632 0.0000
-0.0526 0.3684 0.0000
0.0526 0.3684 0.0000
1.0000 -0.8947 0.0000
1.0000 -0.7895 0.0000
1.0000 -0.6842 0.0000
1.0000 -0.5789 0.0000
1.0000 -0.4737 0.0000
1.0000 -0.3684 0.0000
1.0000 -0.2632 0.0000
1.0000 -0.1579 0.0000
1.0000 -0.0526 0.0000
1.0000 0.0526 0.0000
1.0000 0.1579 0.0000
1.0000 0.2632 0.0000
1.0000 0.3684 0.0000
1.0000 0.4737 0.0000
1.0000 0.5789 0.0000
1.0000 0.6842 0.0000
1.0000 0.7895 0.0000
1.0000 0.8947 0.0000
1.0000 1.0000 0.0000
-0.8947 -1.0000 0.0000
-0.7895 -1.0000 0.0000
-0.6842 -1.0000 0.0000
-0.5789 -1.0000 0.0000
-0.4737 -1.0000 0.0000
-0.3684 -1.0000 0.0000
-0.2632 -1.0000 0.0000
-0.1579 -1.0000 0.0000
-0.1579 0.2632 0.0000
-0.0526 -1.0000 0.0000
0.0526 -1.0000 0.0000
0.1579 -1.0000 0.0000
0.1579 0.2632 0.0000
0.2632 -1.0000 0.0000
0.3684 -1.0000 0.0000
0.4737 -1.0000 0.0000
0.5789 -1.0000 0.0000
0.6842 -1.0000 0.0000
0.7895 -1.0000 0.0000
0.8947 -1.0000 0.0000
1.0000 -1.0000 0.0000
-1.0000 -1.0000 0.0000
0.2632 0.1579 0.0000
-0.9474 -0.9474 0.0000
-0.9474 -0.8421 0.0000
-0.9474 -0.7368 0.0000
-0.9474 -0.6316 0.0000
-0.9474 -0.5263 0.0000
-0.9474 -0.4211 0.0000
-0.9474 -0.3158 0.0000
-0.9474 -0.2105 0.0000
-0.9474 -0.1053 0.0000
-0.9474 0.0000 0.0000
-0.9474 0.1053 0.0000
-0.9474 0.2105 0.0000
-0.9474 0.3158 0.0000
-0.9474 0.4211 0.0000
-0.9474 0.5263 0.0000
-0.9474 0.6316 0.0000
-0.9474 0.7368 0.0000
-0.9474 0.8421 0.0000
-0.9474 0.9474 0.0000
-0.8421 -0.9474 0.0000
-0.8421 -0.8421 0.0000
-0.8421 -0.7368 0.0000
-0.8421 -0.6316 0.0000
-0.8421 -0.5263 0.0000
-0.8421 -0.4211 0.0000
-0.8421 -0.3158 0.0000
-0.8421 -0.2105 0.0000
-0.8421 -0.1053 0.0000
-0.8421 0.0000 0.0000
-0.8421 0.1053 0.0000
-0.8421 0.2105 0.0000
-0.8421 0.3158 0.0000
-0.8421 0.4211 0.0000
-0.8421 0.5263 0.0000
-0.8421 0.6316 0.0000
-0.8421 0.7368 0.0000
-0.8421 0.8421 0.0000
-0.8421 0.9474 0.0000
-0.7368 -0.9474 0.0000
-0.7368 -0.8421 0.0000
-0.7368 -0.7368 0.0000
-0.7368 -0.6316 0.0000
-0.7368 -0.5263 0.0000
-0.7368 -0.4211 0.0000
-0.7368 -0.3158 0.0000
-0.7368 -0.2105 0.0000
-0.7368 -0.1053 0.0000
-0.7368 0.0000 0.0000
-0.7368 0.1053 0.0000
-0.7368 0.2105 0.0000
-0.7368 0.3158 0.0000
-0.7368 0.4211 0.0000
-0.7368 0.5263 0.0000
-0.7368 0.6316 0.0000
-0.7368 0.7368 0.0000
-0.7368 0.8421 0.0000
-0.7368 0.9474 0.0000
-0.6316 -0.9474 0.0000
-0.6316 -0.8421 0.0000
-0.6316 -0.7368 0.0000
-0.6316 -0.6316 0.0000
-0.6316 -0.5263 0.0000
-0.6316 -0.4211 0.0000
[...]
         <PointData>
            <DataArray Name="fValues" NumberOfComponents="3" format="ascii" type="Float64">
 5.26316e-02 -9.58859e-20        00000 
 1.05263e-01  5.05716e-19        00000 
 1.57895e-01  1.70051e-18        00000 
 2.10526e-01 -3.37144e-19        00000 
 2.63158e-01  4.34187e-19        00000 
 3.15789e-01 -1.68572e-19        00000 
 3.68421e-01 -3.40542e-19        00000 
 4.21053e-01 -1.01143e-18        00000 
 4.73684e-01 -1.63085e-18        00000 
 5.26316e-01  3.37144e-19        00000 
 5.78947e-01 -2.49696e-18        00000 
 6.31579e-01 -3.70858e-18        00000 
 6.84211e-01  1.27079e-19        00000 
 7.36842e-01  6.74288e-19        00000 
 7.89474e-01  2.08744e-19        00000 
 8.42105e-01  1.68572e-18        00000 
 8.94737e-01 -7.00238e-19        00000 
 9.47368e-01  7.50358e-19        00000 
 1.00000e+00 -2.46401e-19        00000 
 4.62509e-02 -5.98549e-03        00000 
 9.54402e-02 -9.36617e-03        00000 
 1.45441e-01 -1.14849e-02        00000 
 1.96021e-01 -1.27757e-02        00000 
 2.47169e-01 -1.34889e-02        00000 
 2.98945e-01 -1.39120e-02        00000 
 3.51342e-01 -1.44142e-02        00000 
 4.04161e-01 -1.53734e-02        00000 
 4.56980e-01 -1.70090e-02        00000 
 5.09261e-01 -1.92198e-02        00000 
 5.60575e-01 -2.15589e-02        00000 
 6.10796e-01 -2.33999e-02        00000 
 6.60121e-01 -2.41946e-02        00000 
 7.08926e-01 -2.36529e-02        00000 
 7.57566e-01 -2.17569e-02        00000 
 8.06233e-01 -1.86373e-02        00000 
 8.54850e-01 -1.43823e-02        00000 
 9.02960e-01 -8.71184e-03        00000 
 9.47368e-01  2.35248e-19        00000 
 4.20721e-02 -8.91679e-03        00000 
 8.72036e-02 -1.55661e-02        00000 
 1.34081e-01 -2.02118e-02        00000 
 1.82157e-01 -2.33407e-02        00000 
 2.31477e-01 -2.53300e-02        00000 
 2.82260e-01 -2.66403e-02        00000 
 3.34584e-01 -2.78977e-02        00000 
 3.88053e-01 -2.97890e-02        00000 
 4.41638e-01 -3.27511e-02        00000 
 4.93933e-01 -3.66228e-02        00000 
 5.43807e-01 -4.05667e-02        00000 
 5.90980e-01 -4.34142e-02        00000 
 6.36056e-01 -4.41972e-02        00000 
 6.80054e-01 -4.24778e-02        00000 
 7.23859e-01 -3.83074e-02        00000 
 7.67889e-01 -3.19514e-02        00000 
 8.11973e-01 -2.35714e-02        00000 
 8.55000e-01 -1.29420e-02        00000 
 8.94737e-01  6.83624e-19        00000 
 3.87780e-02 -1.11433e-02        00000 
 8.03172e-02 -2.02696e-02        00000 
 1.23831e-01 -2.73527e-02        00000 
 1.69007e-01 -3.25354e-02        00000 
 2.16070e-01 -3.60880e-02        00000 
 2.65561e-01 -3.84686e-02        00000 
 3.17871e-01 -4.04610e-02        00000 
 3.72539e-01 -4.31047e-02        00000 
 4.27726e-01 -4.72065e-02        00000 
 4.80605e-01 -5.26171e-02        00000 
 5.28860e-01 -5.79821e-02        00000 
 5.72076e-01 -6.14121e-02        00000 
 6.11704e-01 -6.15334e-02        00000 
 6.49849e-01 -5.79787e-02        00000 
 6.88109e-01 -5.11273e-02        00000 
 7.27120e-01 -4.15595e-02        00000 
 7.66588e-01 -2.96800e-02        00000 
 8.05446e-01 -1.57218e-02        00000 
 8.42105e-01        00000        00000 
 3.60444e-02 -1.30010e-02        00000 
 7.44058e-02 -2.42692e-02        00000 
 1.14583e-01 -3.36109e-02        00000 
 1.56533e-01 -4.09426e-02        00000 
 2.00806e-01 -4.63001e-02        00000 
 2.48474e-01 -4.99616e-02        00000 
 3.00658e-01 -5.26951e-02        00000 
 3.57290e-01 -5.59161e-02        00000 
 4.15566e-01 -6.10732e-02        00000 
 4.70134e-01 -6.81702e-02        00000 
 5.16451e-01 -7.50010e-02        00000 
 5.54155e-01 -7.85599e-02        00000 
 5.86602e-01 -7.71302e-02        00000 
 6.17748e-01 -7.08940e-02        00000 
 6.50002e-01 -6.09525e-02        00000 
 6.84029e-01 -4.83514e-02        00000 
 7.19347e-01 -3.37383e-02        00000 
 7.54905e-01 -1.74877e-02        00000 
 7.89474e-01 -7.38660e-19        00000 
 3.38030e-02 -1.45512e-02        00000 
 6.93356e-02 -2.76781e-02        00000 
 1.06266e-01 -3.91160e-02        00000 
 1.44746e-01 -4.86634e-02        00000 
 1.85624e-01 -5.61619e-02        00000 
 2.30667e-01 -6.16350e-02        00000 
 2.82265e-01 -6.56774e-02        00000 
 3.41776e-01 -6.98116e-02        00000 
 4.05734e-01 -7.62242e-02        00000 
 4.64045e-01 -8.52046e-02        00000 
 5.07586e-01 -9.31794e-02        00000 
 5.36924e-01 -9.55221e-02        00000 
 5.59784e-01 -9.09223e-02        00000 
 5.82905e-01 -8.09103e-02        00000 
 6.09185e-01 -6.76056e-02        00000 
 6.38763e-01 -5.24089e-02        00000 
 6.70648e-01 -3.59187e-02        00000 
 7.03668e-01 -1.83607e-02        00000 
 7.36842e-01 -6.07693e-19        00000 
 3.20122e-02 -1.56909e-02        00000 
 6.50258e-02 -3.02558e-02        00000 
 9.88487e-02 -4.34446e-02        00000 
 1.33718e-01 -5.50713e-02        00000 
 1.70636e-01 -6.49610e-02        00000 
 2.12044e-01 -7.30270e-02        00000 
 2.62378e-01 -7.99883e-02        00000 
 3.25915e-01 -8.81236e-02        00000 
 3.99443e-01 -9.86021e-02        00000 
 4.63967e-01 -1.08554e-01        00000 
 5.02599e-01 -1.13301e-01        00000 
 5.19072e-01 -1.10847e-01        00000 
 5.29562e-01 -1.00889e-01        00000 
 5.44320e-01 -8.63353e-02        00000 
 5.65485e-01 -7.00723e-02        00000 
 5.91643e-01 -5.32984e-02        00000 
 6.20936e-01 -3.61118e-02        00000 
 6.52027e-01 -1.83384e-02        00000 
 6.84211e-01 -5.65234e-18        00000 
 3.05561e-02 -1.62487e-02        00000 
 6.12883e-02 -3.15678e-02        00000 
 9.21638e-02 -4.57698e-02        00000 
 1.23378e-01 -5.87849e-02        00000 
 1.55859e-01 -7.04934e-02        00000 
 1.92373e-01 -8.10192e-02        00000 
 2.40381e-01 -9.18141e-02        00000 
 4.94016e-01 -1.02289e-01        00000 
 5.01458e-01 -8.44303e-02        00000 
 5.19359e-01 -6.71317e-02        00000 
 5.43410e-01 -5.06818e-02        00000 
 5.70846e-01 -3.43110e-02        00000 
 6.00355e-01 -1.74739e-02        00000 
 6.31579e-01  1.58374e-18        00000 
 2.92077e-02 -1.60853e-02        00000 
 5.77473e-02 -3.12309e-02        00000 
 8.57421e-02 -4.52770e-02        00000 
 1.13269e-01 -5.81803e-02        00000 
 1.40549e-01 -6.98031e-02        00000 
 1.69974e-01 -7.92205e-02        00000 
 2.09329e-01 -8.62860e-02        00000 
 4.51785e-01 -9.03339e-02        00000 
 4.55170e-01 -7.34600e-02        00000 
 4.72270e-01 -5.88817e-02        00000 
 4.95182e-01 -4.50844e-02        00000 
 5.21118e-01 -3.09650e-02        00000 
 5.49045e-01 -1.59932e-02        00000 
 5.78947e-01 -2.51628e-18        00000 
 2.76750e-02 -1.51972e-02        00000 
 5.39024e-02 -2.92060e-02        00000 
 7.88917e-02 -4.17985e-02        00000 
 1.02454e-01 -5.27242e-02        00000 
 1.23923e-01 -6.13739e-02        00000 
 1.40686e-01 -6.51532e-02        00000 
 4.08296e-01 -5.71126e-02        00000 
 4.25970e-01 -4.81248e-02        00000 
 4.47983e-01 -3.83011e-02        00000 
 4.72297e-01 -2.70690e-02        00000 
 4.98351e-01 -1.43069e-02        00000 
 5.26316e-01 -2.27030e-18        00000 
 2.57135e-02 -1.37635e-02        00000 
 4.93460e-02 -2.59460e-02        00000 
 7.10470e-02 -3.62094e-02        00000 
 9.03165e-02 -4.40188e-02        00000 
 1.05423e-01 -4.83360e-02        00000 
 1.11265e-01 -4.72644e-02        00000 
 3.62332e-01 -4.41820e-02        00000 
 3.81243e-01 -3.94563e-02        00000 
 4.02067e-01 -3.27269e-02        00000 
 4.24449e-01 -2.38155e-02        00000 
 4.48260e-01 -1.28756e-02        00000 
 4.73684e-01 -1.25586e-18        00000 
 2.32405e-02 -1.20898e-02        00000 
 4.39772e-02 -2.22386e-02        00000 
 6.21870e-02 -3.00766e-02        00000 
 7.71092e-02 -3.49873e-02        00000 
 8.67579e-02 -3.61055e-02        00000 
 8.65530e-02 -3.28599e-02        00000 
 7.04078e-02 -2.92201e-02        00000 
 2.91366e-01 -4.41507e-02        00000 
 3.17439e-01 -3.98846e-02        00000 
 3.37309e-01 -3.57495e-02        00000 
 3.56867e-01 -2.99146e-02        00000 
 3.77147e-01 -2.19875e-02        00000 
 3.98503e-01 -1.20035e-02        00000 
 4.21053e-01 -2.10173e-18        00000 
 2.03664e-02 -1.04796e-02        00000 
 3.80500e-02 -1.88368e-02        00000 
 5.28389e-02 -2.48052e-02        00000 
 6.39531e-02 -2.79916e-02        00000 
 6.98264e-02 -2.81212e-02        00000 
 6.84058e-02 -2.58678e-02        00000 
 5.94160e-02 -2.36235e-02        00000 
 4.95699e-02 -2.37045e-02        00000 
 2.01496e-01 -4.90396e-02        00000 
 2.45174e-01 -4.70384e-02        00000 
 2.72766e-01 -4.20847e-02        00000 
 2.93260e-01 -3.63726e-02        00000 
 3.11558e-01 -2.97416e-02        00000 
 3.29799e-01 -2.15942e-02        00000 
 3.48715e-01 -1.17109e-02        00000 
 3.68421e-01  2.37095e-19        00000 
 1.73259e-02 -9.11762e-03        00000 
 3.20069e-02 -1.61456e-02        00000 
 4.37335e-02 -2.10049e-02        00000 
 5.19181e-02 -2.36512e-02        00000 
 5.57683e-02 -2.43714e-02        00000 
 5.48702e-02 -2.41591e-02        00000 
 5.06180e-02 -2.48217e-02        00000 
 4.80457e-02 -2.81671e-02        00000 
 5.55150e-02 -3.49170e-02        00000 
 8.11230e-02 -4.47598e-02        00000 
 1.23448e-01 -5.34295e-02        00000 
 1.68035e-01 -5.56245e-02        00000 
 2.03551e-01 -5.19573e-02        00000 
 2.29248e-01 -4.57161e-02        00000 
 2.48840e-01 -3.86545e-02        00000 
 2.65747e-01 -3.08681e-02        00000 
 2.82013e-01 -2.20095e-02        00000 
 2.98626e-01 -1.17692e-02        00000 
 3.15789e-01 -1.75174e-18        00000 
 1.43575e-02 -8.02956e-03        00000 
 2.62439e-02 -1.41495e-02        00000 
 3.53822e-02 -1.84598e-02        00000 
 4.14825e-02 -2.12091e-02        00000 
 4.43678e-02 -2.29696e-02        00000 
 4.44400e-02 -2.47706e-02        00000 
 4.34561e-02 -2.79997e-02        00000 
 4.51505e-02 -3.38613e-02        00000 
 5.46876e-02 -4.24187e-02        00000 
 7.55641e-02 -5.14126e-02        00000 
 1.05523e-01 -5.72107e-02        00000 
 1.37388e-01 -5.78341e-02        00000 
 1.65136e-01 -5.40265e-02        00000 
 1.87100e-01 -4.76919e-02        00000 
 2.04568e-01 -4.01390e-02        00000 
 2.19568e-01 -3.17507e-02        00000 
 2.33758e-01 -2.23917e-02        00000 
 2.48163e-01 -1.18407e-02        00000 
 2.63158e-01 -1.43567e-18        00000 
 1.16050e-02 -7.11548e-03        00000 
 2.09457e-02 -1.25403e-02        00000 
 2.79053e-02 -1.64957e-02        00000 
 3.24831e-02 -1.94061e-02        00000 
 3.48753e-02 -2.19365e-02        00000 
 3.57754e-02 -2.49685e-02        00000 
 3.67490e-02 -2.94081e-02        00000 
 4.03357e-02 -3.57329e-02        00000 
 4.93121e-02 -4.33540e-02        00000 
 6.50132e-02 -5.04465e-02        00000 
 8.59476e-02 -5.48125e-02        00000 
 1.08461e-01 -5.52585e-02        00000 
 1.29163e-01 -5.21196e-02        00000 
 1.46574e-01 -4.65119e-02        00000 
 1.60974e-01 -3.94028e-02        00000 
 1.73471e-01 -3.12295e-02        00000 
 1.85291e-01 -2.20073e-02        00000 
 1.97439e-01 -1.16020e-02        00000 
 2.10526e-01  6.08264e-19        00000 
 9.07344e-03 -6.20876e-03        00000 
 1.60421e-02 -1.08877e-02        00000 
 2.10730e-02 -1.43402e-02        00000 
 2.44070e-02 -1.70873e-02        00000 
 2.63945e-02 -1.97809e-02        00000 
 2.76949e-02 -2.30900e-02        00000 
 2.94480e-02 -2.75241e-02        00000 
 3.31852e-02 -3.31388e-02        00000 
 4.03213e-02 -3.92864e-02        00000 
 5.13653e-02 -4.46954e-02        00000 
 6.54313e-02 -4.80101e-02        00000 
 8.06187e-02 -4.84656e-02        00000 
 9.50495e-02 -4.61421e-02        00000 
 1.07690e-01 -4.16586e-02        00000 
 1.18474e-01 -3.56685e-02        00000 
 1.27970e-01 -2.85400e-02        00000 
 1.37046e-01 -2.02948e-02        00000 
 1.46699e-01 -1.07863e-02        00000 
 1.57895e-01  2.11058e-18        00000 
 6.62151e-03 -5.10048e-03        00000 
 1.12331e-02 -8.72762e-03        00000 
 1.44394e-02 -1.12840e-02        00000 
 1.66344e-02 -1.33925e-02        00000 
 1.81217e-02 -1.56025e-02        00000 
 1.93604e-02 -1.83709e-02        00000 
 2.10304e-02 -2.19547e-02        00000 
 2.39420e-02 -2.62614e-02        00000 
 2.87634e-02 -3.07688e-02        00000 
 3.56765e-02 -3.46389e-02        00000 
 4.42076e-02 -3.70349e-02        00000 
 5.34141e-02 -3.74642e-02        00000 
 6.23296e-02 -3.59192e-02        00000 
 7.03495e-02 -3.27414e-02        00000 
 7.73486e-02 -2.83516e-02        00000 
 8.35871e-02 -2.30182e-02        00000 
 8.95875e-02 -1.67300e-02        00000 
 9.63042e-02 -9.12475e-03        00000 
 1.05263e-01 -1.51715e-18        00000 
 3.90356e-03 -3.50552e-03        00000 
 6.01033e-03 -5.41952e-03        00000 
 7.52046e-03 -6.68877e-03        00000 
 8.61403e-03 -7.77104e-03        00000 
 9.45169e-03 -8.99330e-03        00000 
 1.02444e-02 -1.05996e-02        00000 
 1.12788e-02 -1.26999e-02        00000 
 1.28711e-02 -1.52015e-02        00000 
 1.52624e-02 -1.77888e-02        00000 
 1.85016e-02 -1.99987e-02        00000 
 2.23973e-02 -2.13846e-02        00000 
 2.65873e-02 -2.16818e-02        00000 
 3.06922e-02 -2.08775e-02        00000 
 3.44552e-02 -1.91524e-02        00000 
 3.77989e-02 -1.67480e-02        00000 
 4.08050e-02 -1.38380e-02        00000 
 4.36984e-02 -1.04340e-02        00000 
 4.68848e-02 -6.23133e-03        00000 
 5.26316e-02  8.52342e-19        00000 
 3.13512e-01 -1.11230e-01        00000 
 5.00938e-01 -1.27212e-01        00000 
 4.98876e-01 -1.17413e-01        00000 
 4.01417e-01 -6.70846e-02        00000 
 3.46635e-01 -4.96873e-02        00000 
-2.41127e-19 -2.85283e-19        00000 
 4.92622e-19  4.67947e-19        00000 
-9.96683e-19 -6.51238e-19        00000 
 5.76908e-19  5.52233e-19        00000 
-6.15092e-19  3.23873e-19        00000 
-6.40311e-19  1.07261e-18        00000 
 1.88433e-18 -8.56514e-19        00000 
 3.74256e-18 -1.79311e-18        00000 
-1.46229e-18 -1.91060e-18        00000 
 2.85677e-18 -2.80032e-18        00000 
-2.23458e-18 -3.27560e-18        00000 
 5.89106e-18  1.24540e-18        00000 
 1.30483e-18 -2.33302e-18        00000 
 2.47530e-18  3.92199e-18        00000 
-1.61410e-18 -6.27706e-19        00000 
-5.58995e-19 -7.98024e-19        00000 
-1.95692e-18  1.66207e-19        00000 
-5.23639e-18 -1.63637e-19        00000 
 2.31920e-17 -6.18176e-19        00000 
-5.23639e-18 -6.54549e-19        00000 
 4.91860e-18  1.13734e-18        00000 
-3.14373e-18 -2.08096e-18        00000 
-3.18790e-18  8.13302e-19        00000 
-1.09437e-19  1.12191e-18        00000 
 9.57480e-19 -1.25901e-18        00000 
-1.71474e-20  8.26321e-19        00000 
 4.96008e-18  2.31542e-19        00000 
 4.76968e-01 -1.03189e-01        00000 
 6.57141e-19 -3.53683e-19        00000 
 1.29636e-18 -2.52980e-18        00000 
-1.98616e-18 -3.83028e-19        00000 
 2.43693e-01 -4.59815e-02        00000 
-5.13905e-19  6.42382e-19        00000 
-3.00437e-19 -5.51600e-19        00000 
-1.23108e-18 -1.23768e-19        00000 
 1.05047e-18 -4.58012e-19        00000 
-1.72653e-18 -6.67859e-19        00000 
 1.22252e-18 -1.21057e-19        00000 
-3.27274e-19  1.63637e-19        00000 
 5.88100e-19  3.04115e-20        00000 
 1.42720e-17 -3.53912e-20        00000 
 1.36024e-01 -3.92562e-02        00000 
 2.39724e-02 -2.29396e-03        00000 
 7.44739e-02 -4.26820e-03        00000 
 1.25745e-01 -5.54165e-03        00000 
 1.77309e-01 -6.32156e-03        00000 
 2.29129e-01 -6.75166e-03        00000 
 2.81212e-01 -6.95707e-03        00000 
 3.33562e-01 -7.11095e-03        00000 
 3.86124e-01 -7.42351e-03        00000 
 4.38765e-01 -8.07215e-03        00000 
 4.91284e-01 -9.10096e-03        00000 
 5.43483e-01 -1.03593e-02        00000 
 5.95244e-01 -1.15411e-02        00000 
 6.46577e-01 -1.23120e-02        00000 
 6.97592e-01 -1.24402e-02        00000 
 7.48439e-01 -1.18513e-02        00000 
 7.99234e-01 -1.05941e-02        00000 
 8.50013e-01 -8.75670e-03        00000 
 9.00688e-01 -6.33873e-03        00000 
 9.50513e-01 -3.20586e-03        00000 
 2.17143e-02 -4.24793e-03        00000 
 6.73331e-02 -1.04659e-02        00000 
 1.15226e-01 -1.45476e-02        00000 
 1.64195e-01 -1.72664e-02        00000 
 2.14046e-01 -1.89622e-02        00000 
 2.64852e-01 -1.99670e-02        00000 
 3.16688e-01 -2.07251e-02        00000 
 3.69418e-01 -2.17873e-02        00000 
 4.22542e-01 -2.36349e-02        00000 
 4.75245e-01 -2.63990e-02        00000 
 5.26693e-01 -2.96720e-02        00000 
 5.76414e-01 -3.26158e-02        00000 
 6.24489e-01 -3.43326e-02        00000 
 6.71436e-01 -3.42314e-02        00000 
 7.17886e-01 -3.21532e-02        00000 
 7.64291e-01 -2.82429e-02        00000 
 8.10752e-01 -2.27023e-02        00000 
 8.56816e-01 -1.55372e-02        00000 
 9.00545e-01 -5.99744e-03        00000 
 1.99342e-02 -5.42679e-03        00000 
 6.17831e-02 -1.44230e-02        00000 
 1.06054e-01 -2.12706e-02        00000 
 1.52012e-01 -2.62225e-02        00000 
 1.99482e-01 -2.96057e-02        00000 
 2.48708e-01 -3.17931e-02        00000 
 2.99977e-01 -3.33686e-02        00000 
 3.53168e-01 -3.51633e-02        00000 
 4.07347e-01 -3.80126e-02        00000 
 4.60783e-01 -4.22263e-02        00000 
 5.11624e-01 -4.71495e-02        00000 
 5.58858e-01 -5.13385e-02        00000 
 6.02787e-01 -5.33202e-02        00000 
 6.44645e-01 -5.22785e-02        00000 
 6.85803e-01 -4.81660e-02        00000 
 7.27146e-01 -4.13638e-02        00000 
 7.68830e-01 -3.22675e-02        00000 
 8.10168e-01 -2.10001e-02        00000 
 8.49669e-01 -7.55057e-03        00000 
 1.84734e-02 -6.37778e-03        00000 
 5.71186e-02 -1.75680e-02        00000 
 9.80017e-02 -2.67927e-02        00000 
 1.40720e-01 -3.40136e-02        00000 
 1.85378e-01 -3.93153e-02        00000 
 2.32568e-01 -4.29325e-02        00000 
 2.83048e-01 -4.54123e-02        00000 
 3.37017e-01 -4.77987e-02        00000 
 3.93148e-01 -5.14389e-02        00000 
 4.48297e-01 -5.70557e-02        00000 
 4.98829e-01 -6.36849e-02        00000 
 5.42869e-01 -6.89278e-02        00000 
 5.81328e-01 -7.05564e-02        00000 
 6.16811e-01 -6.77591e-02        00000 
 6.51813e-01 -6.09888e-02        00000 
 6.87694e-01 -5.11207e-02        00000 
 7.24613e-01 -3.88511e-02        00000 
 7.61858e-01 -2.45694e-02        00000 
 7.98203e-01 -8.56375e-03        00000 
 1.72681e-02 -7.16823e-03        00000 
 5.31649e-02 -2.02285e-02        00000 
 9.08856e-02 -3.15743e-02        00000 
 1.30255e-01 -4.10172e-02        00000 
 1.71660e-01 -4.84412e-02        00000 
 2.16166e-01 -5.38429e-02        00000 
 2.65352e-01 -5.75655e-02        00000 
 3.20383e-01 -6.06652e-02        00000 
 3.79934e-01 -6.50460e-02        00000 
 4.38634e-01 -7.22001e-02        00000 
 4.89411e-01 -8.07358e-02        00000 
 5.28931e-01 -8.66113e-02        00000 
 5.59763e-01 -8.67321e-02        00000 
 5.87232e-01 -8.09672e-02        00000 
 6.15380e-01 -7.08373e-02        00000 
 6.45819e-01 -5.78858e-02        00000 
 6.78431e-01 -4.30335e-02        00000 
 7.12305e-01 -2.66936e-02        00000 
 7.46331e-01 -9.13642e-03        00000 
 1.63113e-02 -7.78439e-03        00000 
 4.98644e-02 -2.23589e-02        00000 
 8.46503e-02 -3.55121e-02        00000 
 1.20635e-01 -4.70250e-02        00000 
 1.58382e-01 -5.67095e-02        00000 
 1.99419e-01 -6.44005e-02        00000 
 2.46474e-01 -7.02400e-02        00000 
 3.02583e-01 -7.53970e-02        00000 
 3.67709e-01 -8.19942e-02        00000 
 4.33176e-01 -9.13696e-02        00000 
 4.84953e-01 -1.00674e-01        00000 
 5.17145e-01 -1.04821e-01        00000 
 5.37005e-01 -1.01091e-01        00000 
 5.54710e-01 -9.08095e-02        00000 
 5.75844e-01 -7.68702e-02        00000 
 6.01467e-01 -6.12738e-02        00000 
 6.30585e-01 -4.47584e-02        00000 
 6.61847e-01 -2.74237e-02        00000 
 6.94184e-01 -9.29857e-03        00000 
 1.55723e-02 -8.16692e-03        00000 
 4.71263e-02 -2.37260e-02        00000 
 7.92050e-02 -3.81279e-02        00000 
 1.11854e-01 -5.12246e-02        00000 
 1.45670e-01 -6.28823e-02        00000 
 1.82421e-01 -7.29869e-02        00000 
 2.26315e-01 -8.17529e-02        00000 