<?xml version="1.0" encoding="utf-8"?>
<VTKFile byte_order="LittleEndian" type="UnstructuredGrid" version="0.1">
   <UnstructuredGrid>
      <Piece NumberOfCells="9608" NumberOfPoints="4908">
         <Points>
            <DataArray Name="Points" NumberOfComponents="3" format="ascii" type="Float32">
-1.0000 -0.9592 0.0000
-1.0000 -0.9184 0.0000
-1.0000 -0.8776 0.0000
-1.0000 -0.8367 0.0000
-1.0000 -0.7959 0.0000
-1.0000 -0.7551 0.0000
-1.0000 -0.7143 0.0000
-1.0000 -0.6735 0.0000
-1.0000 -0.6327 0.0000
-1.0000 -0.5918 0.0000
-1.0000 -0.5510 0.0000
-1.0000 -0.5102 0.0000
-1.0000 -0.4694 0.0000
-1.0000 -0.4286 0.0000
-1.0000 -0.3878 0.0000
-1.0000 -0.3469 0.0000
-1.0000 -0.3061 0.0000
-1.0000 -0.2653 0.0000
-1.0000 -0.2245 0.0000
-1.0000 -0.1837 0.0000
-1.0000 -0.1429 0.0000
-1.0000 -0.1020 0.0000
-1.0000 -0.0612 0.0000
-1.0000 -0.0204 0.0000
-1.0000 0.0204 0.0000
-1.0000 0.0612 0.0000
-1.0000 0.1020 0.0000
-1.0000 0.1429 0.0000
-1.0000 0.1837 0.0000
-1.0000 0.2245 0.0000
-1.0000 0.2653 0.0000
-1.0000 0.3061 0.0000
-1.0000 0.3469 0.0000
-1.0000 0.3878 0.0000
-1.0000 0.4286 0.0000
-1.0000 0.4694 0.0000
-1.0000 0.5102 0.0000
-1.0000 0.5510 0.0000
-1.0000 0.5918 0.0000
-1.0000 0.6327 0.0000
-1.0000 0.6735 0.0000
-1.0000 0.7143 0.0000
-1.0000 0.7551 0.0000
-1.0000 0.7959 0.0000
-1.0000 0.8367 0.0000
-1.0000 0.8776 0.0000
-1.0000 0.9184 0.0000
-1.0000 0.9592 0.0000
-1.0000 1.0000 0.0000
-0.9592 -0.9592 0.0000
-0.9592 -0.9184 0.0000
-0.9592 -0.8776 0.0000
-0.9592 -0.8367 0.0000
-0.9592 -0.7959 0.0000
-0.9592 -0.7551 0.0000
-0.9592 -0.7143 0.0000
-0.9592 -0.6735 0.0000
-0.9592 -0.6327 0.0000
-0.9592 -0.5918 0.0000
-0.9592 -0.5510 0.0000
-0.9592 -0.5102 0.0000
-0.9592 -0.4694 0.0000
-0.9592 -0.4286 0.0000
-0.9592 -0.3878 0.0000
-0.9592 -0.3469 0.0000
-0.9592 -0.3061 0.0000
-0.9592 -0.2653 0.0000
-0.9592 -0.2245 0.0000
-0.9592 -0.1837 0.0000
-0.9592 -0.1429 0.0000
-0.9592 -0.1020 0.0000
-0.9592 -0.0612 0.0000
-0.9592 -0.0204 0.0000
-0.9592 0.0204 0.0000
-0.9592 0.0612 0.0000
-0.9592 0.1020 0.0000
-0.9592 0.1429 0.0000
-0.9592 0.1837 0.0000
-0.9592 0.2245 0.0000
-0.9592 0.2653 0.0000
-0.9592 0.3061 0.0000
-0.9592 0.3469 0.0000
-0.9592 0.3878 0.0000
-0.9592 0.4286 0.0000
-0.9592 0.4694 0.0000
-0.9592 0.5102 0.0000
-0.9592 0.5510 0.0000
-0.9592 0.5918 0.0000
-0.9592 0.6327 0.0000
-0.9592 0.6735 0.0000
-0.9592 0.7143 0.0000
-0.9592 0.7551 0.0000
-0.9592 0.7959 0.0000
-0.9592 0.8367 0.0000
-0.9592 0.8776 0.0000
-0.9592 0.9184 0.0000
-0.9592 0.9592 0.0000
-0.9592 1.0000 0.0000
-0.9184 -0.9592 0.0000
-0.9184 -0.9184 0.0000
-0.9184 -0.8776 0.0000
-0.9184 -0.8367 0.0000
-0.9184 -0.7959 0.0000
-0.9184 -0.7551 0.0000
-0.9184 -0.7143 0.0000
-0.9184 -0.6735 0.0000
-0.9184 -0.6327 0.0000
-0.9184 -0.5918 0.0000
-0.9184 -0.5510 0.0000
-0.9184 -0.5102 0.0000
-0.9184 -0.4694 0.0000
-0.9184 -0.4286 0.0000
-0.9184 -0.3878 0.0000
-0.9184 -0.3469 0.0000
-0.9184 -0.3061 0.0000
-0.9184 -0.2653 0.0000
-0.9184 -0.2245 0.0000
-0.9184 -0.1837 0.0000
-0.9184 -0.1429 0.0000
-0.9184 -0.1020 0.0000
-0.9184 -0.0612 0.0000
-0.9184 -0.0204 0.0000
-0.9184 0.0204 0.0000
-0.9184 0.0612 0.0000
-0.9184 0.1020 0.0000
-0.9184 0.1429 0.0000
-0.9184 0.1837 0.0000
-0.9184 0.2245 0.0000
-0.9184 0.2653 0.0000
-0.9184 0.3061 0.0000
-0.9184 0.3469 0.0000
-0.9184 0.3878 0.0000
-0.9184 0.4286 0.0000
-0.9184 0.4694 0.0000
-0.9184 0.5102 0.0000
-0.9184 0.5510 0.0000
-0.9184 0.5918 0.0000
-0.9184 0.6327 0.0000
-0.9184 0.6735 0.0000
-0.9184 0.7143 0.0000
-0.9184 0.7551 0.0000
-0.9184 0.7959 0.0000
-0.9184 0.8367 0.0000
-0.9184 0.8776 0.0000
-0.9184 0.9184 0.0000
-0.9184 0.9592 0.0000
-0.9184 1.0000 0.0000
-0.8776 -0.9592 0.0000
-0.8776 -0.9184 0.0000
-0.8776 -0.8776 0.0000
-0.8776 -0.8367 0.0000
-0.8776 -0.7959 0.0000
-0.8776 -0.7551 0.0000
-0.8776 -0.7143 0.0000
-0.8776 -0.6735 0.0000
-0.8776 -0.6327 0.0000
-0.8776 -0.5918 0.0000
-0.8776 -0.5510 0.0000
-0.8776 -0.5102 0.0000
-0.8776 -0.4694 0.0000
-0.8776 -0.4286 0.0000
-0.8776 -0.3878 0.0000
-0.8776 -0.3469 0.0000
-0.8776 -0.3061 0.0000
-0.8776 -0.2653 0.0000
-0.8776 -0.2245 0.0000
-0.8776 -0.1837 0.0000
-0.8776 -0.1429 0.0000
-0.8776 -0.1020 0.0000
-0.8776 -0.0612 0.0000
-0.8776 -0.0204 0.0000
-0.8776 0.0204 0.0000
-0.8776 0.0612 0.0000
-0.8776 0.1020 0.0000
-0.8776 0.1429 0.0000
-0.8776 0.1837 0.0000
-0.8776 0.2245 0.0000
-0.8776 0.2653 0.0000
-0.8776 0.3061 0.0000
-0.8776 0.3469 0.0000
-0.8776 0.3878 0.0000
-0.8776 0.4286 0.0000
-0.8776 0.4694 0.0000
-0.8776 0.5102 0.0000
-0.8776 0.5510 0.0000
-0.8776 0.5918 0.0000
-0.8776 0.6327 0.0000
-0.8776 0.6735 0.0000
-0.8776 0.7143 0.0000
-0.8776 0.7551 0.0000
-0.8776 0.7959 0.0000
-0.8776 0.8367 0.0000
-0.8776 0.8776 0.0000
-0.8776 0.9184 0.0000
-0.8776 0.9592 0.0000
-0.8776 1.0000 0.0000
-0.8367 -0.9592 0.0000
-0.8367 -0.9184 0.0000
-0.8367 -0.8776 0.0000
-0.8367 -0.8367 0.0000
-0.8367 -0.7959 0.0000
-0.8367 -0.7551 0.0000
-0.8367 -0.7143 0.0000
-0.8367 -0.6735 0.0000
-0.8367 -0.6327 0.0000
-0.8367 -0.5918 0.0000
-0.8367 -0.5510 0.0000
-0.8367 -0.5102 0.0000
-0.8367 -0.4694 0.0000
-0.8367 -0.4286 0.0000
-0.8367 -0.3878 0.0000
-0.8367 -0.3469 0.0000
-0.8367 -0.3061 0.0000
-0.8367 -0.2653 0.0000
-0.8367 -0.2245 0.0000
-0.8367 -0.1837 0.0000
-0.8367 -0.1429 0.0000
-0.8367 -0.1020 0.0000
-0.8367 -0.0612 0.0000
-0.8367 -0.0204 0.0000
-0.8367 0.0204 0.0000
-0.8367 0.0612 0.0000
-0.8367 0.1020 0.0000
-0.8367 0.1429 0.0000
-0.8367 0.1837 0.0000
-0.8367 0.2245 0.0000
-0.8367 0.2653 0.0000
-0.8367 0.3061 0.0000
-0.8367 0.3469 0.0000
-0.8367 0.3878 0.0000
-0.8367 0.4286 0.0000
-0.8367 0.4694 0.0000
-0.8367 0.5102 0.0000
-0.8367 0.5510 0.0000
-0.8367 0.5918 0.0000
-0.8367 0.6327 0.0000
-0.8367 0.6735 0.0000
-0.8367 0.7143 0.0000
-0.8367 0.7551 0.0000
-0.8367 0.7959 0.0000
-0.8367 0.8367 0.0000
-0.8367 0.8776 0.0000
-0.8367 0.9184 0.0000
-0.8367 0.9592 0.0000
-0.8367 1.0000 0.0000
-0.7959 -0.9592 0.0000
-0.7959 -0.9184 0.0000
-0.7959 -0.8776 0.0000
-0.7959 -0.8367 0.0000
-0.7959 -0.7959 0.0000
-0.7959 -0.7551 0.0000
-0.7959 -0.7143 0.0000
-0.7959 -0.6735 0.0000
-0.7959 -0.6327 0.0000
-0.7959 -0.5918 0.0000
-0.7959 -0.5510 0.0000
-0.7959 -0.5102 0.0000
-0.7959 -0.4694 0.0000
-0.7959 -0.4286 0.0000
-0.7959 -0.3878 0.0000
-0.7959 -0.3469 0.0000
-0.7959 -0.3061 0.0000
-0.7959 -0.2653 0.0000
-0.7959 -0.2245 0.0000
-0.7959 -0.1837 0.0000
-0.7959 -0.1429 0.0000
-0.7959 -0.1020 0.0000
-0.7959 -0.0612 0.0000
-0.7959 -0.0204 0.0000
-0.7959 0.0204 0.0000
-0.7959 0.0612 0.0000
-0.7959 0.1020 0.0000
-0.7959 0.1429 0.0000
-0.7959 0.1837 0.0000
-0.7959 0.2245 0.0000
-0.7959 0.2653 0.0000
-0.7959 0.3061 0.0000
-0.7959 0.3469 0.0000
-0.7959 0.3878 0.0000
-0.7959 0.4286 0.0000
-0.7959 0.4694 0.0000
-0.7959 0.5102 0.0000
-0.7959 0.5510 0.0000
-0.7959 0.5918 0.0000
-0.7959 0.6327 0.0000
-0.7959 0.6735 0.0000
-0.7959 0.7143 0.0000
-0.7959 0.7551 0.0000
-0.7959 0.7959 0.0000
-0.7959 0.8367 0.0000
-0.7959 0.8776 0.0000
-0.7959 0.9184 0.0000
-0.7959 0.9592 0.0000
-0.7959 1.0000 0.0000
-0.7551 -0.9592 0.0000
-0.7551 -0.9184 0.0000
-0.7551 -0.8776 0.0000
-0.7551 -0.8367 0.0000
-0.7551 -0.7959 0.0000
-0.7551 -0.7551 0.0000
-0.7551 -0.7143 0.0000
-0.7551 -0.6735 0.0000
-0.7551 -0.6327 0.0000
-0.7551 -0.5918 0.0000
-0.7551 -0.5510 0.0000
-0.7551 -0.5102 0.0000
-0.7551 -0.4694 0.0000
-0.7551 -0.4286 0.0000
-0.7551 -0.3878 0.0000
-0.7551 -0.3469 0.0000
-0.7551 -0.3061 0.0000
-0.7551 -0.2653 0.0000
-0.7551 -0.2245 0.0000
-0.7551 -0.1837 0.0000
-0.7551 -0.1429 0.0000
-0.7551 -0.1020 0.0000
-0.7551 -0.0612 0.0000
-0.7551 -0.0204 0.0000
-0.7551 0.0204 0.0000
-0.7551 0.0612 0.0000
-0.7551 0.1020 0.0000
-0.7551 0.1429 0.0000
-0.7551 0.1837 0.0000
-0.7551 0.2245 0.0000
-0.7551 0.2653 0.0000
-0.7551 0.3061 0.0000
-0.7551 0.3469 0.0000
-0.7551 0.3878 0.0000
-0.7551 0.4286 0.0000
-0.7551 0.4694 0.0000
-0.7551 0.5102 0.0000
-0.7551 0.5510 0.0000
-0.7551 0.5918 0.0000
-0.7551 0.6327 0.0000
-0.7551 0.6735 0.0000
-0.7551 0.7143 0.0000
-0.7551 0.7551 0.0000
-0.7551 0.7959 0.0000
-0.7551 0.8367 0.0000
-0.7551 0.8776 0.0000
-0.7551 0.9184 0.0000
-0.7551 0.9592 0.0000
-0.7551 1.0000 0.0000
-0.7143 -0.9592 0.0000
-0.7143 -0.9184 0.0000
-0.7143 -0.8776 0.0000
-0.7143 -0.8367 0.0000
-0.7143 -0.7959 0.0000
-0.7143 -0.7551 0.0000
-0.7143 -0.7143 0.0000
-0.7143 -0.6735 0.0000
-0.7143 -0.6327 0.0000
-0.7143 -0.5918 0.0000
-0.7143 -0.5510 0.0000
-0.7143 -0.5102 0.0000
-0.7143 -0.4694 0.0000
-0.7143 -0.4286 0.0000
-0.7143 -0.3878 0.0000
-0.7143 -0.3469 0.0000
-0.7143 -0.3061 0.0000
-0.7143 -0.2653 0.0000
-0.7143 -0.2245 0.0000
-0.7143 -0.1837 0.0000
-0.7143 -0.1429 0.0000
-0.7143 -0.1020 0.0000
-0.7143 -0.0612 0.0000
-0.7143 -0.0204 0.0000
-0.7143 0.0204 0.0000
-0.7143 0.0612 0.0000
-0.7143 0.1020 0.0000
-0.7143 0.1429 0.0000
-0.7143 0.1837 0.0000
-0.7143 0.2245 0.0000
-0.7143 0.2653 0.0000
-0.7143 0.3061 0.0000
-0.7143 0.3469 0.0000
-0.7143 0.3878 0.0000
-0.7143 0.4286 0.0000
-0.7143 0.4694 0.0000
-0.7143 0.5102 0.0000
-0.7143 0.5510 0.0000
-0.7143 0.5918 0.0000
-0.7143 0.6327 0.0000
-0.7143 0.6735 0.0000
-0.7143 0.7143 0.0000
-0.7143 0.7551 0.0000
-0.7143 0.7959 0.0000
-0.7143 0.8367 0.0000
-0.7143 0.8776 0.0000
-0.7143 0.9184 0.0000
-0.7143 0.9592 0.0000
-0.7143 1.0000 0.0000
-0.6735 -0.9592 0.0000
-0.6735 -0.9184 0.0000
-0.6735 -0.8776 0.0000
-0.6735 -0.8367 0.0000
-0.6735 -0.7959 0.0000
-0.6735 -0.7551 0.0000
-0.6735 -0.7143 0.0000
-0.6735 -0.6735 0.0000
-0.6735 -0.6327 0.0000
-0.6735 -0.5918 0.0000
-0.6735 -0.5510 0.0000
-0.6735 -0.5102 0.0000
-0.6735 -0.4694 0.0000
-0.6735 -0.4286 0.0000
-0.6735 -0.3878 0.0000
-0.6735 -0.3469 0.0000
-0.6735 -0.3061 0.0000
-0.6735 -0.2653 0.0000
-0.6735 -0.2245 0.0000
-0.6735 -0.1837 0.0000
-0.6735 -0.1429 0.0000
-0.6735 -0.1020 0.0000
-0.6735 -0.0612 0.0000
-0.6735 -0.0204 0.0000
-0.6735 0.0204 0.0000
-0.6735 0.0612 0.0000
-0.6735 0.1020 0.0000
-0.6735 0.1429 0.0000
-0.6735 0.1837 0.0000
-0.6735 0.2245 0.0000
-0.6735 0.2653 0.0000
-0.6735 0.3061 0.0000
-0.6735 0.3469 0.0000
-0.6735 0.3878 0.0000
-0.6735 0.4286 0.0000
-0.6735 0.4694 0.0000
-0.6735 0.5102 0.0000
-0.6735 0.5510 0.0000
-0.6735 0.5918 0.0000
[...]
         <PointData>
            <DataArray Name="fValues" NumberOfComponents="3" format="ascii" type="Float64">
 2.00290e-02  1.85945e-04        00000 
 3.99727e-02 -1.40235e-03        00000 
 6.16286e-02 -2.04201e-03        00000 
 8.17310e-02 -2.75100e-03        00000 
 9.97031e-02 -3.39740e-03        00000 
 1.18543e-01 -3.74297e-03        00000 
 1.39759e-01 -2.99096e-03        00000 
 1.63305e-01 -1.40262e-03        00000 
 1.88303e-01 -9.42973e-04        00000 
 2.06637e-01 -7.55970e-04        00000 
 2.22988e-01 -1.66036e-04        00000 
 2.44916e-01  1.34484e-03        00000 
 2.66072e-01  2.63637e-03        00000 
 2.86577e-01  3.50945e-03        00000 
 3.05160e-01  4.56503e-03        00000 
 3.21617e-01  4.92273e-03        00000 
 3.45257e-01  5.54589e-03        00000 
 3.67542e-01  5.20857e-03        00000 
 3.87281e-01  4.17422e-03        00000 
 4.07947e-01  2.71109e-03        00000 
 4.27597e-01  1.82142e-03        00000 
 4.46105e-01  9.01745e-04        00000 
 4.65631e-01  2.57341e-04        00000 
 4.88095e-01 -3.80920e-04        00000 
 5.11255e-01 -5.85897e-04        00000 
 5.33435e-01 -6.27362e-04        00000 
 5.50221e-01  2.20584e-04        00000 
 5.67595e-01  5.35238e-04        00000 
 5.85575e-01  6.93224e-04        00000 
 6.05388e-01  9.27837e-04        00000 
 6.26563e-01  1.22720e-03        00000 
 6.47947e-01  1.44172e-03        00000 
 6.69265e-01  1.65434e-03        00000 
 6.89137e-01  1.76958e-03        00000 
 7.10156e-01  1.90257e-03        00000 
 7.31572e-01  2.13351e-03        00000 
 7.53803e-01  2.37651e-03        00000 
 7.73292e-01  2.64915e-03        00000 
 7.91646e-01  2.37829e-03        00000 
 8.11200e-01  1.90149e-03        00000 
 8.31635e-01  1.41377e-03        00000 
 8.51505e-01  1.31686e-03        00000 
 8.72554e-01  1.38911e-03        00000 
 8.94190e-01  1.74309e-03        00000 
 9.16174e-01  2.28603e-03        00000 
 9.37267e-01  1.65678e-03        00000 
 9.58890e-01  1.33508e-03        00000 
 9.78392e-01  4.51153e-04        00000 
 9.95506e-01 -3.83066e-04        00000 
 1.84836e-02  1.69985e-04        00000 
 3.89049e-02 -2.10439e-03        00000 
 6.01963e-02 -3.44484e-03        00000 
 7.95148e-02 -4.10413e-03        00000 
 9.71072e-02 -5.58594e-03        00000 
 1.13711e-01 -6.60349e-03        00000 
 1.34345e-01 -6.00714e-03        00000 
 1.57799e-01 -4.99364e-03        00000 
 1.80086e-01 -3.78983e-03        00000 
 1.97781e-01 -3.99758e-03        00000 
 2.14766e-01 -4.86254e-03        00000 
 2.35577e-01 -4.88901e-03        00000 
 2.55730e-01 -4.71238e-03        00000 
 2.76313e-01 -4.80690e-03        00000 
 2.96897e-01 -4.56043e-03        00000 
 3.17058e-01 -3.87546e-03        00000 
 3.40217e-01 -2.78241e-03        00000 
 3.62390e-01 -1.85510e-03        00000 
 3.81392e-01 -2.27574e-03        00000 
 4.02430e-01 -3.81892e-03        00000 
 4.22724e-01 -4.25619e-03        00000 
 4.40844e-01 -3.68920e-03        00000 
 4.56922e-01 -3.81575e-03        00000 
 4.78395e-01 -4.24897e-03        00000 
 5.00858e-01 -4.64726e-03        00000 
 5.23776e-01 -5.67369e-03        00000 
 5.43828e-01 -6.84289e-03        00000 
 5.62971e-01 -6.70303e-03        00000 
 5.83907e-01 -5.80356e-03        00000 
 6.04181e-01 -5.40564e-03        00000 
 6.23654e-01 -5.24761e-03        00000 
 6.43100e-01 -5.36342e-03        00000 
 6.62233e-01 -5.34409e-03        00000 
 6.82103e-01 -5.41166e-03        00000 
 7.02716e-01 -5.95301e-03        00000 
 7.24101e-01 -6.44392e-03        00000 
 7.45473e-01 -6.41433e-03        00000 
 7.62486e-01 -4.95964e-03        00000 
 7.79963e-01 -3.52276e-03        00000 
 7.98159e-01 -2.82089e-03        00000 
 8.18276e-01 -3.65000e-03        00000 
 8.37944e-01 -3.78308e-03        00000 
 8.58118e-01 -3.74628e-03        00000 
 8.78545e-01 -3.44794e-03        00000 
 9.00264e-01 -2.77850e-03        00000 
 9.22064e-01 -2.91564e-03        00000 
 9.40837e-01 -3.66097e-03        00000 
 9.59865e-01 -3.31162e-03        00000 
 9.78793e-01 -2.07670e-03        00000 
 1.67200e-02  2.88633e-03        00000 
 3.60477e-02 -1.30339e-03        00000 
 5.64564e-02 -6.00457e-03        00000 
 7.59103e-02 -7.57055e-03        00000 
 9.36109e-02 -8.74575e-03        00000 
 1.10043e-01 -9.64584e-03        00000 
 1.27634e-01 -9.88308e-03        00000 
 1.47647e-01 -1.09996e-02        00000 
 1.71520e-01 -9.99769e-03        00000 
 1.92419e-01 -1.04231e-02        00000 
 2.09407e-01 -1.13379e-02        00000 
 2.28751e-01 -1.16789e-02        00000 
 2.49174e-01 -1.24427e-02        00000 
 2.69269e-01 -1.24026e-02        00000 
 2.88990e-01 -1.22864e-02        00000 
 3.12474e-01 -1.17039e-02        00000 
 3.35235e-01 -1.11253e-02        00000 
 3.56653e-01 -1.05084e-02        00000 
 3.76876e-01 -1.07231e-02        00000 
 3.96771e-01 -1.23290e-02        00000 
 4.14990e-01 -1.18854e-02        00000 
 4.32705e-01 -1.11743e-02        00000 
 4.50941e-01 -1.05310e-02        00000 
 4.70540e-01 -1.13976e-02        00000 
 4.92297e-01 -1.27005e-02        00000 
 5.16566e-01 -1.43719e-02        00000 
 5.36653e-01 -1.50244e-02        00000 
 5.54922e-01 -1.55482e-02        00000 
 5.74360e-01 -1.55509e-02        00000 
 5.95293e-01 -1.48846e-02        00000 
 6.16810e-01 -1.49710e-02        00000 
 6.37037e-01 -1.48487e-02        00000 
 6.56550e-01 -1.49999e-02        00000 
 6.77176e-01 -1.50607e-02        00000 
 6.96163e-01 -1.51168e-02        00000 
 7.15520e-01 -1.48733e-02        00000 
 7.35038e-01 -1.42750e-02        00000 
 7.51815e-01 -1.28785e-02        00000 
 7.68154e-01 -1.14638e-02        00000 
 7.86147e-01 -1.19876e-02        00000 
 8.05687e-01 -1.28020e-02        00000 
 8.24876e-01 -1.23716e-02        00000 
 8.44676e-01 -1.07979e-02        00000 
 8.64338e-01 -9.30360e-03        00000 
 8.84932e-01 -8.20464e-03        00000 
 9.03277e-01 -7.11424e-03        00000 
 9.21881e-01 -7.21200e-03        00000 
 9.39929e-01 -4.44410e-03        00000 
 9.58057e-01 -3.23486e-03        00000 
 1.67623e-02  2.72412e-03        00000 
 3.50353e-02 -4.57176e-03        00000 
 5.40387e-02 -7.09600e-03        00000 
 7.28100e-02 -8.17063e-03        00000 
 8.99369e-02 -9.66267e-03        00000 
 1.06442e-01 -1.11313e-02        00000 
 1.23549e-01 -1.23864e-02        00000 
 1.40919e-01 -1.38089e-02        00000 
 1.60686e-01 -1.55754e-02        00000 
 1.81526e-01 -1.62629e-02        00000 
 2.02354e-01 -1.56240e-02        00000 
 2.24988e-01 -1.64238e-02        00000 
 2.44357e-01 -1.74885e-02        00000 
 2.62758e-01 -1.79617e-02        00000 
 2.81301e-01 -1.80145e-02        00000 
 3.04139e-01 -1.77813e-02        00000 
 3.27336e-01 -1.74628e-02        00000 
 3.48111e-01 -1.68341e-02        00000 
 3.68752e-01 -1.76205e-02        00000 
 3.88485e-01 -1.82676e-02        00000 
 4.05960e-01 -1.83306e-02        00000 
 4.23128e-01 -1.83081e-02        00000 
 4.42271e-01 -1.85815e-02        00000 
 4.62384e-01 -1.90723e-02        00000 
 4.84475e-01 -2.03085e-02        00000 
 5.08871e-01 -2.25491e-02        00000 
 5.30015e-01 -2.37768e-02        00000 
 5.48048e-01 -2.41060e-02        00000 
 5.65738e-01 -2.41386e-02        00000 
 5.83625e-01 -2.44905e-02        00000 
 6.04121e-01 -2.43691e-02        00000 
 6.24198e-01 -2.38914e-02        00000 
 6.45100e-01 -2.35429e-02        00000 
 6.66520e-01 -2.31694e-02        00000 
 6.84350e-01 -2.30072e-02        00000 
 7.02341e-01 -2.26665e-02        00000 
 7.20808e-01 -2.22393e-02        00000 
 7.38960e-01 -2.11798e-02        00000 
 7.56305e-01 -2.04873e-02        00000 
 7.74551e-01 -2.07429e-02        00000 
 7.94240e-01 -2.12127e-02        00000 
 8.12339e-01 -1.99117e-02        00000 
 8.29659e-01 -1.72762e-02        00000 
 8.49265e-01 -1.42094e-02        00000 
 8.67133e-01 -1.07964e-02        00000 
 8.85220e-01 -8.90327e-03        00000 
 9.02980e-01 -8.64765e-03        00000 
 9.20454e-01 -6.23125e-03        00000 
 9.38393e-01 -5.43072e-03        00000 
 1.76474e-02 -2.80583e-04        00000 
 3.44090e-02 -6.40253e-03        00000 
 5.32583e-02 -8.54769e-03        00000 
 7.17301e-02 -9.91016e-03        00000 
 8.89560e-02 -1.18516e-02        00000 
 1.04457e-01 -1.43053e-02        00000 
 1.21164e-01 -1.63534e-02        00000 
 1.37965e-01 -1.75223e-02        00000 
 1.56430e-01 -1.92747e-02        00000 
 1.76675e-01 -2.18526e-02        00000 
 1.96423e-01 -2.25057e-02        00000 
 2.17610e-01 -2.11689e-02        00000 
 2.37808e-01 -2.08821e-02        00000 
 2.56148e-01 -2.21718e-02        00000 
 2.74297e-01 -2.29995e-02        00000 
 2.96788e-01 -2.30468e-02        00000 
 3.18890e-01 -2.28934e-02        00000 
 3.41001e-01 -2.32985e-02        00000 
 3.62405e-01 -2.45944e-02        00000 
 3.81821e-01 -2.49310e-02        00000 
 3.99269e-01 -2.45096e-02        00000 
 4.15872e-01 -2.46196e-02        00000 
 4.35801e-01 -2.54229e-02        00000 
 4.55461e-01 -2.63381e-02        00000 
 4.77158e-01 -2.76998e-02        00000 
 5.02494e-01 -2.91817e-02        00000 
 5.24074e-01 -3.05229e-02        00000 
 5.41358e-01 -3.13786e-02        00000 
 5.58787e-01 -3.20143e-02        00000 
 5.76926e-01 -3.23795e-02        00000 
 5.95365e-01 -3.25739e-02        00000 
 6.12749e-01 -3.25994e-02        00000 
 6.31983e-01 -3.23536e-02        00000 
 6.51899e-01 -3.15467e-02        00000 
 6.70455e-01 -3.10416e-02        00000 
 6.88716e-01 -3.11509e-02        00000 
 7.08347e-01 -3.11322e-02        00000 
 7.26856e-01 -3.00666e-02        00000 
 7.44498e-01 -2.92542e-02        00000 
 7.61640e-01 -2.91158e-02        00000 
 7.79710e-01 -2.82750e-02        00000 
 7.95698e-01 -2.51992e-02        00000 
 8.13537e-01 -2.20196e-02        00000 
 8.30994e-01 -1.86408e-02        00000 
 8.49483e-01 -1.49282e-02        00000 
 8.68124e-01 -1.15020e-02        00000 
 8.85011e-01 -1.02649e-02        00000 
 9.02112e-01 -7.50610e-03        00000 
 9.18298e-01 -6.85928e-03        00000 
 1.72332e-02 -1.59940e-03        00000 
 3.31936e-02 -6.63006e-03        00000 
 5.17525e-02 -1.01109e-02        00000 
 6.96336e-02 -1.27463e-02        00000 
 8.64510e-02 -1.56348e-02        00000 
 1.02644e-01 -1.87824e-02        00000 
 1.19002e-01 -2.04978e-02        00000 
 1.34911e-01 -2.18524e-02        00000 
 1.51804e-01 -2.40620e-02        00000 
 1.71286e-01 -2.64972e-02        00000 
 1.91626e-01 -2.79902e-02        00000 
 2.12478e-01 -2.62481e-02        00000 
 2.32309e-01 -2.44811e-02        00000 
 2.51517e-01 -2.52638e-02        00000 
 2.69011e-01 -2.61750e-02        00000 
 2.89259e-01 -2.72048e-02        00000 
 3.11637e-01 -2.80659e-02        00000 
 3.33907e-01 -2.90650e-02        00000 
 3.55761e-01 -3.07046e-02        00000 
 3.74794e-01 -3.07126e-02        00000 
 3.92958e-01 -3.02019e-02        00000 
 4.12915e-01 -3.07458e-02        00000 
 4.32701e-01 -3.20732e-02        00000 
 4.52695e-01 -3.33339e-02        00000 
 4.73705e-01 -3.46465e-02        00000 
 4.95229e-01 -3.58381e-02        00000 
 5.15646e-01 -3.67632e-02        00000 
 5.35228e-01 -3.80915e-02        00000 
 5.52746e-01 -3.89383e-02        00000 
 5.70650e-01 -3.96500e-02        00000 
 5.89345e-01 -3.99697e-02        00000 
 6.07306e-01 -4.00767e-02        00000 
 6.24963e-01 -4.01263e-02        00000 
 6.42895e-01 -3.98527e-02        00000 
 6.60382e-01 -3.91727e-02        00000 
 6.77302e-01 -3.93749e-02        00000 
 6.95376e-01 -3.96991e-02        00000 
 7.12930e-01 -3.92477e-02        00000 
 7.30158e-01 -3.82134e-02        00000 
 7.46625e-01 -3.59969e-02        00000 
 7.62108e-01 -3.27702e-02        00000 
 7.78908e-01 -2.93418e-02        00000 
 7.96580e-01 -2.56937e-02        00000 
 8.14005e-01 -2.16245e-02        00000 
 8.31938e-01 -1.73317e-02        00000 
 8.50270e-01 -1.40449e-02        00000 
 8.67268e-01 -1.10930e-02        00000 
 8.83618e-01 -8.46696e-03        00000 
 8.99334e-01 -7.88903e-03        00000 
 1.56545e-02 -1.34879e-03        00000 
 3.09672e-02 -6.85744e-03        00000 
 4.83963e-02 -1.08317e-02        00000 
 6.60729e-02 -1.38354e-02        00000 
 8.29382e-02 -1.71857e-02        00000 
 9.95710e-02 -2.00913e-02        00000 
 1.16993e-01 -2.19478e-02        00000 
 1.33034e-01 -2.42340e-02        00000 
 1.49017e-01 -2.65726e-02        00000 
 1.65780e-01 -2.84669e-02        00000 
 1.84510e-01 -3.04721e-02        00000 
 2.06567e-01 -2.99454e-02        00000 
 2.26478e-01 -2.81038e-02        00000 
 2.46295e-01 -2.71262e-02        00000 
 2.65467e-01 -2.89689e-02        00000 
 2.84103e-01 -3.06889e-02        00000 
 3.05006e-01 -3.22049e-02        00000 
 3.27557e-01 -3.38545e-02        00000 
 3.48253e-01 -3.52136e-02        00000 
 3.68116e-01 -3.53634e-02        00000 
 3.87197e-01 -3.54006e-02        00000 
 4.09254e-01 -3.61531e-02        00000 
 4.29354e-01 -3.74323e-02        00000 
 4.49768e-01 -3.92562e-02        00000 
 4.69989e-01 -4.09958e-02        00000 
 4.90084e-01 -4.32111e-02        00000 
 5.07375e-01 -4.44044e-02        00000 
 5.25996e-01 -4.52752e-02        00000 
 5.43817e-01 -4.61386e-02        00000 
 5.63644e-01 -4.70772e-02        00000 
 5.83285e-01 -4.75383e-02        00000 
 6.02462e-01 -4.76545e-02        00000 
 6.18310e-01 -4.73573e-02        00000 
 6.34805e-01 -4.65222e-02        00000 
 6.51642e-01 -4.51024e-02        00000 
 6.68001e-01 -4.47177e-02        00000 
 6.84751e-01 -4.52929e-02        00000 
 7.01282e-01 -4.58269e-02        00000 
 7.16179e-01 -4.41082e-02        00000 
 7.31209e-01 -3.99821e-02        00000 
 7.48225e-01 -3.60589e-02        00000 
 7.65271e-01 -3.15627e-02        00000 
 7.80871e-01 -2.73665e-02        00000 
 7.97203e-01 -2.33567e-02        00000 
 8.14376e-01 -1.92675e-02        00000 
 8.32129e-01 -1.56236e-02        00000 
 8.47316e-01 -1.20104e-02        00000 
 8.63052e-01 -9.47403e-03        00000 
 8.79052e-01 -6.87658e-03        00000 
 1.41464e-02 -1.33669e-03        00000 
 2.85843e-02 -7.18262e-03        00000 
 4.47878e-02 -1.15510e-02        00000 
 6.25045e-02 -1.51154e-02        00000 
 7.93499e-02 -1.85994e-02        00000 
 9.64922e-02 -2.11319e-02        00000 
 1.14037e-01 -2.37840e-02        00000 
 1.30162e-01 -2.60595e-02        00000 
 1.45785e-01 -2.81154e-02        00000 
 1.61789e-01 -2.95160e-02        00000 
 1.77642e-01 -3.13273e-02        00000 
 1.98213e-01 -3.29212e-02        00000 
 2.20201e-01 -3.27415e-02        00000 
 2.41145e-01 -3.21738e-02        00000 
 2.61785e-01 -3.20019e-02        00000 
 2.80565e-01 -3.34559e-02        00000 
 2.98398e-01 -3.51682e-02        00000 
 3.18663e-01 -3.78240e-02        00000 
 3.38985e-01 -3.86679e-02        00000 
 3.58716e-01 -3.93432e-02        00000 
 3.82277e-01 -4.09204e-02        00000 
 4.04119e-01 -4.20392e-02        00000 
 4.25756e-01 -4.31482e-02        00000 
 4.46047e-01 -4.53369e-02        00000 
 4.66132e-01 -4.73661e-02        00000 
 4.85449e-01 -4.99224e-02        00000 
 5.01320e-01 -5.13623e-02        00000 
 5.19585e-01 -5.24806e-02        00000 
 5.37894e-01 -5.30026e-02        00000 
 5.56929e-01 -5.37336e-02        00000 
 5.76859e-01 -5.44809e-02        00000 
 5.95426e-01 -5.47742e-02        00000 
 6.09772e-01 -5.41396e-02        00000 
 6.23421e-01 -5.27118e-02        00000 
 6.39633e-01 -5.14077e-02        00000 
 6.56687e-01 -5.06658e-02        00000 
 6.73422e-01 -5.13227e-02        00000 
 6.89041e-01 -5.05283e-02        00000 
 7.02132e-01 -4.72253e-02        00000 
 7.18570e-01 -4.37775e-02        00000 
 7.34154e-01 -3.92665e-02        00000 
 7.49654e-01 -3.43996e-02        00000 
 7.65275e-01 -2.98221e-02        00000 
 7.81003e-01 -2.58481e-02        00000 
 7.98043e-01 -2.10553e-02        00000 
 8.14979e-01 -1.70015e-02        00000 
 8.28614e-01 -1.35859e-02        00000 
 8.41821e-01 -9.39711e-03        00000 
 8.54195e-01 -6.68382e-03        00000 
 1.25817e-02 -1.87333e-03        00000 
 2.78223e-02 -7.26776e-03        00000 
 4.25230e-02 -1.20638e-02        00000 
 5.91513e-02 -1.61035e-02        00000 
 7.55048e-02 -1.99073e-02        00000 
 9.29740e-02 -2.24161e-02        00000 
 1.10354e-01 -2.52461e-02        00000 
 1.26305e-01 -2.79627e-02        00000 
 1.42515e-01 -3.04974e-02        00000 
 1.58988e-01 -3.25924e-02        00000 
 1.74718e-01 -3.48670e-02        00000 
 1.91787e-01 -3.68237e-02        00000 
 2.12725e-01 -3.83174e-02        00000 
 2.34110e-01 -3.79226e-02        00000 
 2.56058e-01 -3.76677e-02        00000 
 2.76962e-01 -3.76525e-02        00000 
 2.96059e-01 -3.95911e-02        00000 
 3.12395e-01 -4.15057e-02        00000 
 3.28243e-01 -4.26460e-02        00000 
 3.47742e-01 -4.36034e-02        00000 
 3.72615e-01 -4.56065e-02        00000 
 3.97326e-01 -4.73953e-02        00000 
 4.20456e-01 -4.85803e-02        00000 
 4.42014e-01 -5.04414e-02        00000 
 4.62352e-01 -5.30933e-02        00000 
 4.81215e-01 -5.58575e-02        00000 
 4.98781e-01 -5.77114e-02        00000 
 5.15400e-01 -5.87429e-02        00000 
 5.33367e-01 -5.94634e-02        00000 
 5.51243e-01 -6.01423e-02        00000 
 5.69823e-01 -6.09191e-02        00000 
 5.87857e-01 -6.11715e-02        00000 
 6.00812e-01 -5.99749e-02        00000 
 6.13427e-01 -5.85925e-02        00000 
 6.28459e-01 -5.78648e-02        00000 
 6.44224e-01 -5.70974e-02        00000 
 6.59168e-01 -5.52674e-02        00000 
 6.74742e-01 -5.33791e-02        00000 
 6.90640e-01 -5.04473e-02        00000 
 7.04746e-01 -4.66442e-02        00000 
 7.18832e-01 -4.17851e-02        00000 
 7.32259e-01 -3.74361e-02        00000 
 7.46587e-01 -3.32186e-02        00000 
 7.62187e-01 -2.90935e-02        00000 
 7.78902e-01 -2.47759e-02        00000 
 7.95359e-01 -2.02929e-02        00000 
 8.07821e-01 -1.45077e-02        00000 
 8.20595e-01 -8.25438e-03        00000 
 8.32052e-01 -5.39977e-03        00000 
 1.32377e-02 -3.16980e-03        00000 
 2.92218e-02 -8.65239e-03        00000 
 4.14522e-02 -1.38871e-02        00000 
 5.68728e-02 -1.76681e-02        00000 
 7.24748e-02 -2.14354e-02        00000 
 8.97611e-02 -2.50650e-02        00000 
 1.06737e-01 -2.79758e-02        00000 
 1.22361e-01 -3.07081e-02        00000 
 1.38682e-01 -3.34762e-02        00000 
 1.54659e-01 -3.58120e-02        00000 
 1.71093e-01 -3.83524e-02        00000 
 1.86712e-01 -4.08191e-02        00000 
 2.06218e-01 -4.25276e-02        00000 
 2.26412e-01 -4.37499e-02        00000 
 2.46772e-01 -4.36895e-02        00000 
 2.69414e-01 -4.40836e-02        00000 
 2.91994e-01 -4.47993e-02        00000 
 3.08793e-01 -4.54271e-02        00000 
 3.23932e-01 -4.63467e-02        00000 
 3.40567e-01 -4.80530e-02        00000 
 3.64270e-01 -5.02459e-02        00000 
 3.88716e-01 -5.18778e-02        00000 
 4.14034e-01 -5.34557e-02        00000 
 4.36805e-01 -5.46567e-02        00000 
 4.56977e-01 -5.78145e-02        00000 
 4.76267e-01 -6.07797e-02        00000 
 4.94461e-01 -6.30106e-02        00000 
 5.10098e-01 -6.41306e-02        00000 
 5.27260e-01 -6.52763e-02        00000 
 5.44710e-01 -6.60843e-02        00000 
 5.61873e-01 -6.69480e-02        00000 
 5.76750e-01 -6.63150e-02        00000 
 5.89046e-01 -6.53564e-02        00000 
 6.02275e-01 -6.45260e-02        00000 
 6.15583e-01 -6.34612e-02        00000 
 6.28916e-01 -6.06351e-02        00000 
 6.43678e-01 -5.78756e-02        00000 
 6.60420e-01 -5.63448e-02        00000 
 6.76674e-01 -5.34055e-02        00000 
 6.90426e-01 -4.88713e-02        00000 
 7.02213e-01 -4.51840e-02        00000 
 7.14805e-01 -4.09605e-02        00000 
 7.28856e-01 -3.67457e-02        00000 
 7.44500e-01 -3.25868e-02        00000 
 7.61467e-01 -2.76985e-02        00000 
 7.76649e-01 -2.07853e-02        00000 
 7.90789e-01 -1.38980e-02        00000 
 8.01688e-01 -7.31030e-03        00000 
 8.10663e-01 -4.59480e-03        00000 
 1.45258e-02 -5.05281e-03        00000 
 2.90725e-02 -9.55678e-03        00000 
 4.11876e-02 -1.45708e-02        00000 
 5.45391e-02 -1.96856e-02        00000 
 7.06919e-02 -2.42234e-02        00000 
 8.66147e-02 -2.77010e-02        00000 
 1.02282e-01 -3.05755e-02        00000 