<?xml version="1.0" encoding="utf-8"?>
<VTKFile byte_order="LittleEndian" type="UnstructuredGrid" version="0.1">
   <UnstructuredGrid>
      <Piece NumberOfCells="9608" NumberOfPoints="4908">
         <Points>
            <DataArray Name="Points" NumberOfComponents="3" format="ascii" type="Float32">
-1.0000 -0.9592 0.0000
-1.0000 -0.9184 0.0000
-1.0000 -0.8776 0.0000
-1.0000 -0.8367 0.0000
-1.0000 -0.7959 0.0000
-1.0000 -0.7551 0.0000
-1.0000 -0.7143 0.0000
-1.0000 -0.6735 0.0000
-1.0000 -0.6327 0.0000
-1.0000 -0.5918 0.0000
-1.0000 -0.5510 0.0000
-1.0000 -0.5102 0.0000
-1.0000 -0.4694 0.0000
-1.0000 -0.4286 0.0000
-1.0000 -0.3878 0.0000
-1.0000 -0.3469 0.0000
-1.0000 -0.3061 0.0000
-1.0000 -0.2653 0.0000
-1.0000 -0.2245 0.0000
-1.0000 -0.1837 0.0000
-1.0000 -0.1429 0.0000
-1.0000 -0.1020 0.0000
-1.0000 -0.0612 0.0000
-1.0000 -0.0204 0.0000
-1.0000 0.0204 0.0000
-1.0000 0.0612 0.0000
-1.0000 0.1020 0.0000
-1.0000 0.1429 0.0000
-1.0000 0.1837 0.0000
-1.0000 0.2245 0.0000
-1.0000 0.2653 0.0000
-1.0000 0.3061 0.0000
-1.0000 0.3469 0.0000
-1.0000 0.3878 0.0000
-1.0000 0.4286 0.0000
-1.0000 0.4694 0.0000
-1.0000 0.5102 0.0000
-1.0000 0.5510 0.0000
-1.0000 0.5918 0.0000
-1.0000 0.6327 0.0000
-1.0000 0.6735 0.0000
-1.0000 0.7143 0.0000
-1.0000 0.7551 0.0000
-1.0000 0.7959 0.0000
-1.0000 0.8367 0.0000
-1.0000 0.8776 0.0000
-1.0000 0.9184 0.0000
-1.0000 0.9592 0.0000
-1.0000 1.0000 0.0000
-0.9592 -0.9592 0.0000
-0.9592 -0.9184 0.0000
-0.9592 -0.8776 0.0000
-0.9592 -0.8367 0.0000
-0.9592 -0.7959 0.0000
-0.9592 -0.7551 0.0000
-0.9592 -0.7143 0.0000
-0.9592 -0.6735 0.0000
-0.9592 -0.6327 0.0000
-0.9592 -0.5918 0.0000
-0.9592 -0.5510 0.0000
-0.9592 -0.5102 0.0000
-0.9592 -0.4694 0.0000
-0.9592 -0.4286 0.0000
-0.9592 -0.3878 0.0000
-0.9592 -0.3469 0.0000
-0.9592 -0.3061 0.0000
-0.9592 -0.2653 0.0000
-0.9592 -0.2245 0.0000
-0.9592 -0.1837 0.0000
-0.9592 -0.1429 0.0000
-0.9592 -0.1020 0.0000
-0.9592 -0.0612 0.0000
-0.9592 -0.0204 0.0000
-0.9592 0.0204 0.0000
-0.9592 0.0612 0.0000
-0.9592 0.1020 0.0000
-0.9592 0.1429 0.0000
-0.9592 0.1837 0.0000
-0.9592 0.2245 0.0000
-0.9592 0.2653 0.0000
-0.9592 0.3061 0.0000
-0.9592 0.3469 0.0000
-0.9592 0.3878 0.0000
-0.9592 0.4286 0.0000
-0.9592 0.4694 0.0000
-0.9592 0.5102 0.0000
-0.9592 0.5510 0.0000
-0.9592 0.5918 0.0000
-0.9592 0.6327 0.0000
-0.9592 0.6735 0.0000
-0.9592 0.7143 0.0000
-0.9592 0.7551 0.0000
-0.9592 0.7959 0.0000
-0.9592 0.8367 0.0000
-0.9592 0.8776 0.0000
-0.9592 0.9184 0.0000
-0.9592 0.9592 0.0000
-0.9592 1.0000 0.0000
-0.9184 -0.9592 0.0000
-0.9184 -0.9184 0.0000
-0.9184 -0.8776 0.0000
-0.9184 -0.8367 0.0000
-0.9184 -0.7959 0.0000
-0.9184 -0.7551 0.0000
-0.9184 -0.7143 0.0000
-0.9184 -0.6735 0.0000
-0.9184 -0.6327 0.0000
-0.9184 -0.5918 0.0000
-0.9184 -0.5510 0.0000
-0.9184 -0.5102 0.0000
-0.9184 -0.4694 0.0000
-0.9184 -0.4286 0.0000
-0.9184 -0.3878 0.0000
-0.9184 -0.3469 0.0000
-0.9184 -0.3061 0.0000
-0.9184 -0.2653 0.0000
-0.9184 -0.2245 0.0000
-0.9184 -0.1837 0.0000
-0.9184 -0.1429 0.0000
-0.9184 -0.1020 0.0000
-0.9184 -0.0612 0.0000
-0.9184 -0.0204 0.0000
-0.9184 0.0204 0.0000
-0.9184 0.0612 0.0000
-0.9184 0.1020 0.0000
-0.9184 0.1429 0.0000
-0.9184 0.1837 0.0000
-0.9184 0.2245 0.0000
-0.9184 0.2653 0.0000
-0.9184 0.3061 0.0000
-0.9184 0.3469 0.0000
-0.9184 0.3878 0.0000
-0.9184 0.4286 0.0000
-0.9184 0.4694 0.0000
-0.9184 0.5102 0.0000
-0.9184 0.5510 0.0000
-0.9184 0.5918 0.0000
-0.9184 0.6327 0.0000
-0.9184 0.6735 0.0000
-0.9184 0.7143 0.0000
-0.9184 0.7551 0.0000
-0.9184 0.7959 0.0000
-0.9184 0.8367 0.0000
-0.9184 0.8776 0.0000
-0.9184 0.9184 0.0000
-0.9184 0.9592 0.0000
-0.9184 1.0000 0.0000
-0.8776 -0.9592 0.0000
-0.8776 -0.9184 0.0000
-0.8776 -0.8776 0.0000
-0.8776 -0.8367 0.0000
-0.8776 -0.7959 0.0000
-0.8776 -0.7551 0.0000
-0.8776 -0.7143 0.0000
-0.8776 -0.6735 0.0000
-0.8776 -0.6327 0.0000
-0.8776 -0.5918 0.0000
-0.8776 -0.5510 0.0000
-0.8776 -0.5102 0.0000
-0.8776 -0.4694 0.0000
-0.8776 -0.4286 0.0000
-0.8776 -0.3878 0.0000
-0.8776 -0.3469 0.0000
-0.8776 -0.3061 0.0000
-0.8776 -0.2653 0.0000
-0.8776 -0.2245 0.0000
-0.8776 -0.1837 0.0000
-0.8776 -0.1429 0.0000
-0.8776 -0.1020 0.0000
-0.8776 -0.0612 0.0000
-0.8776 -0.0204 0.0000
-0.8776 0.0204 0.0000
-0.8776 0.0612 0.0000
-0.8776 0.1020 0.0000
-0.8776 0.1429 0.0000
-0.8776 0.1837 0.0000
-0.8776 0.2245 0.0000
-0.8776 0.2653 0.0000
-0.8776 0.3061 0.0000
-0.8776 0.3469 0.0000
-0.8776 0.3878 0.0000
-0.8776 0.4286 0.0000
-0.8776 0.4694 0.0000
-0.8776 0.5102 0.0000
-0.8776 0.5510 0.0000
-0.8776 0.5918 0.0000
-0.8776 0.6327 0.0000
-0.8776 0.6735 0.0000
-0.8776 0.7143 0.0000
-0.8776 0.7551 0.0000
-0.8776 0.7959 0.0000
-0.8776 0.8367 0.0000
-0.8776 0.8776 0.0000
-0.8776 0.9184 0.0000
-0.8776 0.9592 0.0000
-0.8776 1.0000 0.0000
-0.8367 -0.9592 0.0000
-0.8367 -0.9184 0.0000
-0.8367 -0.8776 0.0000
-0.8367 -0.8367 0.0000
-0.8367 -0.7959 0.0000
-0.8367 -0.7551 0.0000
-0.8367 -0.7143 0.0000
-0.8367 -0.6735 0.0000
-0.8367 -0.6327 0.0000
-0.8367 -0.5918 0.0000
-0.8367 -0.5510 0.0000
-0.8367 -0.5102 0.0000
-0.8367 -0.4694 0.0000
-0.8367 -0.4286 0.0000
-0.8367 -0.3878 0.0000
-0.8367 -0.3469 0.0000
-0.8367 -0.3061 0.0000
-0.8367 -0.2653 0.0000
-0.8367 -0.2245 0.0000
-0.8367 -0.1837 0.0000
-0.8367 -0.1429 0.0000
-0.8367 -0.1020 0.0000
-0.8367 -0.0612 0.0000
-0.8367 -0.0204 0.0000
-0.8367 0.0204 0.0000
-0.8367 0.0612 0.0000
-0.8367 0.1020 0.0000
-0.8367 0.1429 0.0000
-0.8367 0.1837 0.0000
-0.8367 0.2245 0.0000
-0.8367 0.2653 0.0000
-0.8367 0.3061 0.0000
-0.8367 0.3469 0.0000
-0.8367 0.3878 0.0000
-0.8367 0.4286 0.0000
-0.8367 0.4694 0.0000
-0.8367 0.5102 0.0000
-0.8367 0.5510 0.0000
-0.8367 0.5918 0.0000
-0.8367 0.6327 0.0000
-0.8367 0.6735 0.0000
-0.8367 0.7143 0.0000
-0.8367 0.7551 0.0000
-0.8367 0.7959 0.0000
-0.8367 0.8367 0.0000
-0.8367 0.8776 0.0000
-0.8367 0.9184 0.0000
-0.8367 0.9592 0.0000
-0.8367 1.0000 0.0000
-0.7959 -0.9592 0.0000
-0.7959 -0.9184 0.0000
-0.7959 -0.8776 0.0000
-0.7959 -0.8367 0.0000
-0.7959 -0.7959 0.0000
-0.7959 -0.7551 0.0000
-0.7959 -0.7143 0.0000
-0.7959 -0.6735 0.0000
-0.7959 -0.6327 0.0000
-0.7959 -0.5918 0.0000
-0.7959 -0.5510 0.0000
-0.7959 -0.5102 0.0000
-0.7959 -0.4694 0.0000
-0.7959 -0.4286 0.0000
-0.7959 -0.3878 0.0000
-0.7959 -0.3469 0.0000
-0.7959 -0.3061 0.0000
-0.7959 -0.2653 0.0000
-0.7959 -0.2245 0.0000
-0.7959 -0.1837 0.0000
-0.7959 -0.1429 0.0000
-0.7959 -0.1020 0.0000
-0.7959 -0.0612 0.0000
-0.7959 -0.0204 0.0000
-0.7959 0.0204 0.0000
-0.7959 0.0612 0.0000
-0.7959 0.1020 0.0000
-0.7959 0.1429 0.0000
-0.7959 0.1837 0.0000
-0.7959 0.2245 0.0000
-0.7959 0.2653 0.0000
-0.7959 0.3061 0.0000
-0.7959 0.3469 0.0000
-0.7959 0.3878 0.0000
-0.7959 0.4286 0.0000
-0.7959 0.4694 0.0000
-0.7959 0.5102 0.0000
-0.7959 0.5510 0.0000
-0.7959 0.5918 0.0000
-0.7959 0.6327 0.0000
-0.7959 0.6735 0.0000
-0.7959 0.7143 0.0000
-0.7959 0.7551 0.0000
-0.7959 0.7959 0.0000
-0.7959 0.8367 0.0000
-0.7959 0.8776 0.0000
-0.7959 0.9184 0.0000
-0.7959 0.9592 0.0000
-0.7959 1.0000 0.0000
-0.7551 -0.9592 0.0000
-0.7551 -0.9184 0.0000
-0.7551 -0.8776 0.0000
-0.7551 -0.8367 0.0000
-0.7551 -0.7959 0.0000
-0.7551 -0.7551 0.0000
-0.7551 -0.7143 0.0000
-0.7551 -0.6735 0.0000
-0.7551 -0.6327 0.0000
-0.7551 -0.5918 0.0000
-0.7551 -0.5510 0.0000
-0.7551 -0.5102 0.0000
-0.7551 -0.4694 0.0000
-0.7551 -0.4286 0.0000
-0.7551 -0.3878 0.0000
-0.7551 -0.3469 0.0000
-0.7551 -0.3061 0.0000
-0.7551 -0.2653 0.0000
-0.7551 -0.2245 0.0000
-0.7551 -0.1837 0.0000
-0.7551 -0.1429 0.0000
-0.7551 -0.1020 0.0000
-0.7551 -0.0612 0.0000
-0.7551 -0.0204 0.0000
-0.7551 0.0204 0.0000
-0.7551 0.0612 0.0000
-0.7551 0.1020 0.0000
-0.7551 0.1429 0.0000
-0.7551 0.1837 0.0000
-0.7551 0.2245 0.0000
-0.7551 0.2653 0.0000
-0.7551 0.3061 0.0000
-0.7551 0.3469 0.0000
-0.7551 0.3878 0.0000
-0.7551 0.4286 0.0000
-0.7551 0.4694 0.0000
-0.7551 0.5102 0.0000
-0.7551 0.5510 0.0000
-0.7551 0.5918 0.0000
-0.7551 0.6327 0.0000
-0.7551 0.6735 0.0000
-0.7551 0.7143 0.0000
-0.7551 0.7551 0.0000
-0.7551 0.7959 0.0000
-0.7551 0.8367 0.0000
-0.7551 0.8776 0.0000
-0.7551 0.9184 0.0000
-0.7551 0.9592 0.0000
-0.7551 1.0000 0.0000
-0.7143 -0.9592 0.0000
-0.7143 -0.9184 0.0000
-0.7143 -0.8776 0.0000
-0.7143 -0.8367 0.0000
-0.7143 -0.7959 0.0000
-0.7143 -0.7551 0.0000
-0.7143 -0.7143 0.0000
-0.7143 -0.6735 0.0000
-0.7143 -0.6327 0.0000
-0.7143 -0.5918 0.0000
-0.7143 -0.5510 0.0000
-0.7143 -0.5102 0.0000
-0.7143 -0.4694 0.0000
-0.7143 -0.4286 0.0000
-0.7143 -0.3878 0.0000
-0.7143 -0.3469 0.0000
-0.7143 -0.3061 0.0000
-0.7143 -0.2653 0.0000
-0.7143 -0.2245 0.0000
-0.7143 -0.1837 0.0000
-0.7143 -0.1429 0.0000
-0.7143 -0.1020 0.0000
-0.7143 -0.0612 0.0000
-0.7143 -0.0204 0.0000
-0.7143 0.0204 0.0000
-0.7143 0.0612 0.0000
-0.7143 0.1020 0.0000
-0.7143 0.1429 0.0000
-0.7143 0.1837 0.0000
-0.7143 0.2245 0.0000
-0.7143 0.2653 0.0000
-0.7143 0.3061 0.0000
-0.7143 0.3469 0.0000
-0.7143 0.3878 0.0000
-0.7143 0.4286 0.0000
-0.7143 0.4694 0.0000
-0.7143 0.5102 0.0000
-0.7143 0.5510 0.0000
-0.7143 0.5918 0.0000
-0.7143 0.6327 0.0000
-0.7143 0.6735 0.0000
-0.7143 0.7143 0.0000
-0.7143 0.7551 0.0000
-0.7143 0.7959 0.0000
-0.7143 0.8367 0.0000
-0.7143 0.8776 0.0000
-0.7143 0.9184 0.0000
-0.7143 0.9592 0.0000
-0.7143 1.0000 0.0000
-0.6735 -0.9592 0.0000
-0.6735 -0.9184 0.0000
-0.6735 -0.8776 0.0000
-0.6735 -0.8367 0.0000
-0.6735 -0.7959 0.0000
-0.6735 -0.7551 0.0000
-0.6735 -0.7143 0.0000
-0.6735 -0.6735 0.0000
-0.6735 -0.6327 0.0000
-0.6735 -0.5918 0.0000
-0.6735 -0.5510 0.0000
-0.6735 -0.5102 0.0000
-0.6735 -0.4694 0.0000
-0.6735 -0.4286 0.0000
-0.6735 -0.3878 0.0000
-0.6735 -0.3469 0.0000
-0.6735 -0.3061 0.0000
-0.6735 -0.2653 0.0000
-0.6735 -0.2245 0.0000
-0.6735 -0.1837 0.0000
-0.6735 -0.1429 0.0000
-0.6735 -0.1020 0.0000
-0.6735 -0.0612 0.0000
-0.6735 -0.0204 0.0000
-0.6735 0.0204 0.0000
-0.6735 0.0612 0.0000
-0.6735 0.1020 0.0000
-0.6735 0.1429 0.0000
-0.6735 0.1837 0.0000
-0.6735 0.2245 0.0000
-0.6735 0.2653 0.0000
-0.6735 0.3061 0.0000
-0.6735 0.3469 0.0000
-0.6735 0.3878 0.0000
-0.6735 0.4286 0.0000
-0.6735 0.4694 0.0000
-0.6735 0.5102 0.0000
-0.6735 0.5510 0.0000
-0.6735 0.5918 0.0000
[...]
         <PointData>
            <DataArray Name="fValues" NumberOfComponents="3" format="ascii" type="Float64">
-1.43072e-03  6.46517e-04        00000 
-3.00080e-04  1.86671e-03        00000 
-9.25582e-04  1.59342e-03        00000 
-2.46296e-04  2.16344e-03        00000 
 1.18380e-03  2.42371e-03        00000 
 1.91654e-03  2.64676e-03        00000 
 3.58361e-03  2.88374e-03        00000 
 2.57656e-03  2.16736e-03        00000 
 1.95821e-03  1.89760e-03        00000 
 1.59168e-03  9.92010e-04        00000 
 1.20215e-03  1.77649e-04        00000 
 4.19565e-04 -7.93342e-04        00000 
 7.49516e-04 -1.57362e-03        00000 
 8.11554e-04 -2.46684e-03        00000 
 1.88798e-05 -3.08815e-03        00000 
-1.29106e-03 -2.56636e-03        00000 
-3.72924e-03 -2.14106e-03        00000 
-3.04840e-03 -1.31399e-03        00000 
-6.58835e-04 -5.71670e-04        00000 
-1.45654e-04 -8.74867e-05        00000 
-1.84557e-04  3.22015e-04        00000 
-5.20046e-04  7.19314e-04        00000 
-6.43374e-04  1.17472e-03        00000 
-3.13444e-04  2.49734e-03        00000 
-1.52104e-03  3.29077e-03        00000 
-3.14430e-03  3.77938e-03        00000 
-4.10941e-03  2.72744e-03        00000 
-3.85327e-03  2.47471e-03        00000 
-3.82766e-03  2.36661e-03        00000 
-3.99819e-03  1.83011e-03        00000 
-3.92590e-03  1.11238e-03        00000 
-3.68290e-03  7.48847e-04        00000 
-4.18413e-03  6.51672e-05        00000 
-3.39758e-03  6.29580e-04        00000 
-2.73028e-03  1.29775e-03        00000 
-1.58568e-03  2.19919e-03        00000 
-1.78454e-04  3.15135e-03        00000 
-2.27347e-04  2.78843e-03        00000 
 2.40051e-04  1.63872e-03        00000 
 1.07437e-03  7.61053e-04        00000 
 1.66982e-03  2.00634e-04        00000 
 1.74775e-03  6.50094e-04        00000 
 1.99168e-03  9.12093e-04        00000 
 1.97433e-03  9.42081e-04        00000 
 1.14886e-03  3.11710e-04        00000 
 1.03350e-04 -3.63252e-04        00000 
-1.41623e-03 -1.01807e-03        00000 
 6.20915e-04  3.12613e-04        00000 
 2.79211e-03  1.14810e-03        00000 
 2.18031e-03  2.91744e-03        00000 
 3.30814e-03  4.08303e-03        00000 
 3.21510e-03  5.34294e-03        00000 
 4.07404e-03  6.26023e-03        00000 
 4.98322e-03  5.94836e-03        00000 
 5.46864e-03  4.95279e-03        00000 
 5.86034e-03  5.33597e-03        00000 
 5.04989e-03  5.63442e-03        00000 
 4.07687e-03  4.87188e-03        00000 
 3.85156e-03  4.11054e-03        00000 
 3.72661e-03  3.28858e-03        00000 
 3.87838e-03  2.58610e-03        00000 
 3.86922e-03  1.76498e-03        00000 
 4.00108e-03  1.81541e-03        00000 
 4.30168e-03  2.64984e-03        00000 
 3.71567e-03  3.27201e-03        00000 
 1.44244e-03  3.60017e-03        00000 
 1.31792e-03  4.54762e-03        00000 
 4.32664e-03  5.44658e-03        00000 
 5.24296e-03  5.87251e-03        00000 
 5.39367e-03  5.77324e-03        00000 
 7.82109e-03  6.56177e-03        00000 
 1.02174e-02  7.76587e-03        00000 
 1.09464e-02  9.10976e-03        00000 
 9.81167e-03  9.86410e-03        00000 
 8.70759e-03  1.09274e-02        00000 
 8.11111e-03  1.14931e-02        00000 
 8.02490e-03  1.08418e-02        00000 
 8.29776e-03  9.37679e-03        00000 
 8.82059e-03  8.80767e-03        00000 
 9.61301e-03  8.96798e-03        00000 
 1.02549e-02  9.04183e-03        00000 
 9.87552e-03  8.44756e-03        00000 
 9.73592e-03  8.13245e-03        00000 
 1.01299e-02  8.33524e-03        00000 
 1.13506e-02  9.04310e-03        00000 
 1.34014e-02  9.56069e-03        00000 
 1.45946e-02  8.40674e-03        00000 
 1.55470e-02  7.25377e-03        00000 
 1.77483e-02  6.24975e-03        00000 
 1.79073e-02  5.88925e-03        00000 
 1.76424e-02  5.42404e-03        00000 
 1.76449e-02  5.31644e-03        00000 
 1.75938e-02  5.13440e-03        00000 
 1.66884e-02  4.81865e-03        00000 
 1.46688e-02  4.15800e-03        00000 
 1.60705e-02  2.75245e-03        00000 
 1.87148e-02  2.92056e-03        00000 
 2.26079e-02  2.16414e-03        00000 
 1.59412e-03  4.09412e-03        00000 
 3.65478e-03  5.40813e-03        00000 
 4.76371e-03  6.30073e-03        00000 
 5.51906e-03  6.43932e-03        00000 
 6.05520e-03  5.72346e-03        00000 
 6.62385e-03  4.69741e-03        00000 
 8.28306e-03  4.47209e-03        00000 
 9.13564e-03  5.59174e-03        00000 
 7.27795e-03  6.83508e-03        00000 
 6.10902e-03  8.02585e-03        00000 
 5.64125e-03  7.17077e-03        00000 
 6.46230e-03  5.92480e-03        00000 
 6.85098e-03  6.07442e-03        00000 
 7.24655e-03  6.76495e-03        00000 
 7.42341e-03  7.42250e-03        00000 
 6.90481e-03  8.00530e-03        00000 
 5.19628e-03  8.26316e-03        00000 
 3.30896e-03  8.41885e-03        00000 
 5.98211e-03  9.84521e-03        00000 
 7.02660e-03  1.02087e-02        00000 
 9.74493e-03  1.11078e-02        00000 
 1.29389e-02  1.21460e-02        00000 
 1.61142e-02  1.33122e-02        00000 
 1.91754e-02  1.52751e-02        00000 
 1.85090e-02  1.63530e-02        00000 
 1.75855e-02  1.71781e-02        00000 
 1.83917e-02  1.78797e-02        00000 
 1.93179e-02  1.83745e-02        00000 
 1.95898e-02  1.76689e-02        00000 
 2.08261e-02  1.69596e-02        00000 
 2.19511e-02  1.68340e-02        00000 
 2.23685e-02  1.60143e-02        00000 
 2.19425e-02  1.50419e-02        00000 
 2.13972e-02  1.40536e-02        00000 
 2.30555e-02  1.48598e-02        00000 
 2.51087e-02  1.53655e-02        00000 
 2.74846e-02  1.45564e-02        00000 
 3.00682e-02  1.33499e-02        00000 
 3.17856e-02  1.18656e-02        00000 
 3.22490e-02  1.15649e-02        00000 
 3.30982e-02  1.16329e-02        00000 
 3.36807e-02  1.15439e-02        00000 
 3.27611e-02  1.03859e-02        00000 
 3.27382e-02  9.43494e-03        00000 
 3.17902e-02  8.18174e-03        00000 
 3.42648e-02  6.16296e-03        00000 
 3.62314e-02  4.14598e-03        00000 
 4.06720e-02  2.17995e-03        00000 
 4.36191e-02  7.03680e-04        00000 
 1.92700e-03  2.86056e-03        00000 
 2.65119e-03  4.66768e-03        00000 
 3.95330e-03  6.72669e-03        00000 
 5.05337e-03  7.92285e-03        00000 
 6.85763e-03  7.89040e-03        00000 
 8.50272e-03  7.52485e-03        00000 
 1.02843e-02  7.66207e-03        00000 
 1.23433e-02  8.45820e-03        00000 
 1.29566e-02  9.47295e-03        00000 
 1.18898e-02  1.03629e-02        00000 
 9.67067e-03  1.13187e-02        00000 
 9.00180e-03  1.25388e-02        00000 
 9.78399e-03  1.27572e-02        00000 
 1.06245e-02  1.29277e-02        00000 
 1.10296e-02  1.33436e-02        00000 
 1.05766e-02  1.36523e-02        00000 
 9.70724e-03  1.38084e-02        00000 
 8.16477e-03  1.36392e-02        00000 
 1.04452e-02  1.51214e-02        00000 
 1.31765e-02  1.67339e-02        00000 
 1.60014e-02  1.77238e-02        00000 
 1.88543e-02  1.87030e-02        00000 
 2.15972e-02  2.00196e-02        00000 
 2.37778e-02  2.10263e-02        00000 
 2.45670e-02  2.17200e-02        00000 
 2.60874e-02  2.35238e-02        00000 
 2.71502e-02  2.44361e-02        00000 
 2.89698e-02  2.45535e-02        00000 
 3.21271e-02  2.47690e-02        00000 
 3.42201e-02  2.47690e-02        00000 
 3.52943e-02  2.40761e-02        00000 
 3.58273e-02  2.33241e-02        00000 
 3.50795e-02  2.19179e-02        00000 
 3.46859e-02  2.07384e-02        00000 
 3.65726e-02  2.08507e-02        00000 
 3.87483e-02  2.01248e-02        00000 
 4.18531e-02  1.89192e-02        00000 
 4.46446e-02  1.78502e-02        00000 
 4.59493e-02  1.75540e-02        00000 
 4.73332e-02  1.77139e-02        00000 
 4.83741e-02  1.78371e-02        00000 
 4.79485e-02  1.68743e-02        00000 
 4.93955e-02  1.47929e-02        00000 
 4.97200e-02  1.17259e-02        00000 
 5.28216e-02  8.97627e-03        00000 
 5.55660e-02  7.09326e-03        00000 
 5.77613e-02  5.29980e-03        00000 
 6.14490e-02  2.92061e-03        00000 
 6.37358e-02  9.08972e-04        00000 
 1.14029e-03  5.38109e-04        00000 
 2.34380e-03  2.61910e-03        00000 
 3.40838e-03  5.12296e-03        00000 
 5.08582e-03  6.93113e-03        00000 
 7.70133e-03  8.50331e-03        00000 
 1.01612e-02  9.17630e-03        00000 
 1.20826e-02  1.04454e-02        00000 
 1.35309e-02  1.15393e-02        00000 
 1.40083e-02  1.22537e-02        00000 
 1.45351e-02  1.39880e-02        00000 
 1.38452e-02  1.53486e-02        00000 
 1.35401e-02  1.63515e-02        00000 
 1.27603e-02  1.70817e-02        00000 
 1.35781e-02  1.73795e-02        00000 
 1.42331e-02  1.74564e-02        00000 
 1.33378e-02  1.77544e-02        00000 
 1.24903e-02  1.77458e-02        00000 
 1.19056e-02  1.82665e-02        00000 
 1.49924e-02  2.08420e-02        00000 
 1.88916e-02  2.35237e-02        00000 
 2.15291e-02  2.44215e-02        00000 
 2.41291e-02  2.49003e-02        00000 
 2.57936e-02  2.52745e-02        00000 
 2.74557e-02  2.55851e-02        00000 
 3.03735e-02  2.65985e-02        00000 
 3.17278e-02  2.74016e-02        00000 
 3.32692e-02  2.82033e-02        00000 
 3.70652e-02  2.89691e-02        00000 
 4.12602e-02  2.97792e-02        00000 
 4.49146e-02  3.04049e-02        00000 
 4.76943e-02  3.06652e-02        00000 
 4.91604e-02  3.04301e-02        00000 
 4.89973e-02  2.96243e-02        00000 
 4.89863e-02  2.85570e-02        00000 
 4.98317e-02  2.66652e-02        00000 
 5.22815e-02  2.54971e-02        00000 
 5.51824e-02  2.44763e-02        00000 
 5.78003e-02  2.35076e-02        00000 
 6.06638e-02  2.37118e-02        00000 
 6.29861e-02  2.39193e-02        00000 
 6.44371e-02  2.28717e-02        00000 
 6.70927e-02  2.06382e-02        00000 
 6.88957e-02  1.76739e-02        00000 
 7.12594e-02  1.44764e-02        00000 
 7.34868e-02  1.13628e-02        00000 
 7.55857e-02  8.98109e-03        00000 
 7.82878e-02  7.47910e-03        00000 
 8.18718e-02  5.61700e-03        00000 
 8.40101e-02  3.67518e-03        00000 
 3.09209e-04 -2.25719e-04        00000 
 1.57913e-03  1.80592e-03        00000 
 3.48208e-03  4.54357e-03        00000 
 6.93525e-03  6.93054e-03        00000 
 9.95741e-03  8.56172e-03        00000 
 1.19660e-02  9.77938e-03        00000 
 1.44181e-02  1.12356e-02        00000 
 1.64521e-02  1.26262e-02        00000 
 1.80029e-02  1.42630e-02        00000 
 1.80804e-02  1.59764e-02        00000 
 1.77723e-02  1.77537e-02        00000 
 1.73565e-02  1.88981e-02        00000 
 1.68407e-02  1.97228e-02        00000 
 1.59836e-02  1.95147e-02        00000 
 1.69203e-02  1.95333e-02        00000 
 1.71858e-02  2.02880e-02        00000 
 1.63366e-02  2.10361e-02        00000 
 1.58339e-02  2.19656e-02        00000 
 1.96186e-02  2.43984e-02        00000 
 2.31443e-02  2.65251e-02        00000 
 2.66276e-02  2.85549e-02        00000 
 2.77136e-02  2.90568e-02        00000 
 2.86919e-02  2.92835e-02        00000 
 3.07073e-02  2.97142e-02        00000 
 3.43694e-02  3.06628e-02        00000 
 3.84894e-02  3.17219e-02        00000 
 4.14847e-02  3.20877e-02        00000 
 4.47998e-02  3.31520e-02        00000 
 4.88777e-02  3.40780e-02        00000 
 5.32550e-02  3.51177e-02        00000 
 5.64261e-02  3.57178e-02        00000 
 5.93024e-02  3.61066e-02        00000 
 6.11296e-02  3.64618e-02        00000 
 6.21920e-02  3.49632e-02        00000 
 6.37055e-02  3.29242e-02        00000 
 6.66549e-02  3.23763e-02        00000 
 6.96946e-02  3.15085e-02        00000 
 7.29885e-02  3.05589e-02        00000 
 7.61370e-02  2.98999e-02        00000 
 7.88454e-02  2.79807e-02        00000 
 8.23382e-02  2.54640e-02        00000 
 8.48566e-02  2.27464e-02        00000 
 8.73816e-02  1.97824e-02        00000 
 9.05063e-02  1.72208e-02        00000 
 9.35763e-02  1.53525e-02        00000 
 9.59171e-02  1.26063e-02        00000 
 9.83999e-02  1.00400e-02        00000 
 1.00512e-01  7.71416e-03        00000 
 1.02562e-01  6.06521e-03        00000 
-5.70255e-04 -1.12783e-04        00000 
 2.29493e-03  2.83675e-03        00000 
 6.44845e-03  5.93999e-03        00000 
 9.78531e-03  8.01892e-03        00000 
 1.24482e-02  9.37566e-03        00000 
 1.40123e-02  1.05826e-02        00000 
 1.65074e-02  1.28245e-02        00000 
 1.86868e-02  1.45863e-02        00000 
 2.00811e-02  1.57092e-02        00000 
 2.09988e-02  1.69593e-02        00000 
 2.13201e-02  1.86536e-02        00000 
 2.10063e-02  1.96710e-02        00000 
 2.05057e-02  2.04551e-02        00000 
 2.00704e-02  2.09081e-02        00000 
 2.09634e-02  2.16432e-02        00000 
 2.16932e-02  2.25782e-02        00000 
 2.10865e-02  2.31569e-02        00000 
 2.07257e-02  2.45665e-02        00000 
 2.44960e-02  2.68306e-02        00000 
 2.83052e-02  2.88813e-02        00000 
 3.03972e-02  3.04304e-02        00000 
 3.18163e-02  3.21960e-02        00000 
 3.28727e-02  3.27955e-02        00000 
 3.57358e-02  3.34724e-02        00000 
 3.93844e-02  3.43963e-02        00000 
 4.37008e-02  3.57522e-02        00000 
 4.88020e-02  3.66590e-02        00000 
 5.25912e-02  3.70493e-02        00000 
 5.71142e-02  3.79498e-02        00000 
 6.18442e-02  3.94630e-02        00000 
 6.60916e-02  4.08004e-02        00000 
 6.99788e-02  4.17318e-02        00000 
 7.36258e-02  4.19778e-02        00000 
 7.57251e-02  4.00136e-02        00000 
 7.73649e-02  3.78363e-02        00000 
 8.01429e-02  3.65214e-02        00000 
 8.32935e-02  3.53534e-02        00000 
 8.62522e-02  3.43444e-02        00000 
 9.00113e-02  3.29459e-02        00000 
 9.55786e-02  2.98050e-02        00000 
 9.82689e-02  2.63612e-02        00000 
 1.00272e-01  2.28969e-02        00000 
 1.03813e-01  2.04744e-02        00000 
 1.07154e-01  1.83895e-02        00000 
 1.10510e-01  1.61460e-02        00000 
 1.12994e-01  1.33131e-02        00000 
 1.16457e-01  1.09058e-02        00000 
 1.18511e-01  8.73606e-03        00000 
 1.22844e-01  5.81499e-03        00000 
-1.93236e-04  5.69980e-04        00000 
 4.78139e-03  4.06109e-03        00000 
 9.01241e-03  6.96563e-03        00000 
 1.22481e-02  8.71099e-03        00000 
 1.41666e-02  9.87683e-03        00000 
 1.57754e-02  1.11573e-02        00000 
 1.81735e-02  1.35795e-02        00000 
 2.06857e-02  1.57920e-02        00000 
 2.25626e-02  1.73183e-02        00000 
 2.43198e-02  1.89775e-02        00000 
 2.54235e-02  1.96940e-02        00000 
 2.53442e-02  2.07369e-02        00000 
 2.46743e-02  2.15345e-02        00000 
 2.43160e-02  2.22107e-02        00000 
 2.48121e-02  2.33795e-02        00000 
 2.54812e-02  2.42924e-02        00000 
 2.58856e-02  2.50572e-02        00000 
 2.84170e-02  2.68968e-02        00000 
 3.10742e-02  2.88227e-02        00000 
 3.34742e-02  3.04845e-02        00000 
 3.42506e-02  3.21618e-02        00000 
 3.52105e-02  3.38292e-02        00000 
 3.76144e-02  3.57594e-02        00000 
 4.09878e-02  3.68368e-02        00000 
 4.43995e-02  3.77901e-02        00000 
 4.85403e-02  3.91581e-02        00000 
 5.36993e-02  4.02714e-02        00000 
 5.94958e-02  4.15352e-02        00000 
 6.52391e-02  4.25932e-02        00000 
 7.12089e-02  4.41747e-02        00000 
 7.61660e-02  4.53415e-02        00000 
 7.99181e-02  4.61383e-02        00000 
 8.38352e-02  4.56664e-02        00000 
 8.78578e-02  4.37225e-02        00000 
 8.98414e-02  4.15485e-02        00000 
 9.19315e-02  3.94928e-02        00000 
 9.51940e-02  3.84923e-02        00000 
 1.00788e-01  3.69466e-02        00000 
 1.05346e-01  3.42121e-02        00000 
 1.09186e-01  3.10139e-02        00000 
 1.13908e-01  2.78746e-02        00000 
 1.17593e-01  2.48310e-02        00000 
 1.20248e-01  2.19453e-02        00000 
 1.23100e-01  1.92120e-02        00000 
 1.26196e-01  1.66721e-02        00000 
 1.28869e-01  1.39244e-02        00000 
 1.32705e-01  1.15991e-02        00000 
 1.39883e-01  8.48856e-03        00000 
 1.46144e-01  5.67429e-03        00000 
 2.85180e-03  1.50008e-03        00000 
 6.93662e-03  4.90150e-03        00000 
 1.11431e-02  7.69355e-03        00000 
 1.40453e-02  9.12788e-03        00000 
 1.52139e-02  9.91117e-03        00000 
 1.75342e-02  1.17127e-02        00000 
 2.02984e-02  1.43112e-02        00000 
 2.29707e-02  1.66586e-02        00000 
 2.51981e-02  1.87615e-02        00000 
 2.70145e-02  2.06220e-02        00000 
 2.79469e-02  2.11770e-02        00000 
 2.87324e-02  2.15366e-02        00000 
 2.88285e-02  2.20156e-02        00000 
 2.81422e-02  2.24829e-02        00000 
 2.76829e-02  2.32070e-02        00000 
 2.78418e-02  2.48758e-02        00000 
 2.85496e-02  2.62807e-02        00000 
 3.33748e-02  2.87757e-02        00000 
 3.85437e-02  3.08484e-02        00000 
 3.97874e-02  3.18522e-02        00000 
 4.00573e-02  3.36297e-02        00000 
 4.08768e-02  3.55699e-02        00000 
 4.30801e-02  3.77379e-02        00000 
 4.63466e-02  3.95649e-02        00000 
 4.95718e-02  4.09113e-02        00000 
 5.33516e-02  4.23411e-02        00000 
 5.87559e-02  4.39987e-02        00000 
 6.53789e-02  4.56517e-02        00000 
 7.23336e-02  4.69862e-02        00000 
 7.90851e-02  4.80154e-02        00000 
 8.55961e-02  4.91971e-02        00000 
 9.03455e-02  5.01076e-02        00000 
 9.42647e-02  4.86188e-02        00000 
 9.88455e-02  4.68355e-02        00000 
 1.01352e-01  4.48401e-02        00000 
 1.04408e-01  4.26870e-02        00000 
 1.10443e-01  4.03409e-02        00000 
 1.16208e-01  3.78414e-02        00000 
 1.18612e-01  3.49854e-02        00000 
 1.23677e-01  3.22593e-02        00000 
 1.28996e-01  2.92925e-02        00000 
 1.34093e-01  2.66429e-02        00000 
 1.38200e-01  2.38917e-02        00000 
 1.40663e-01  2.08176e-02        00000 
 1.43130e-01  1.74888e-02        00000 
 1.46446e-01  1.40743e-02        00000 
 1.54032e-01  1.09141e-02        00000 
 1.61629e-01  7.76617e-03        00000 
 1.67553e-01  4.85236e-03        00000 
 4.47508e-03  2.26300e-03        00000 
 7.79514e-03  5.54589e-03        00000 
 1.18040e-02  7.76755e-03        00000 
 1.48821e-02  9.14934e-03        00000 
 1.67942e-02  1.01370e-02        00000 
 1.95655e-02  1.26580e-02        00000 
 2.20016e-02  1.51248e-02        00000 
 2.48397e-02  1.76122e-02        00000 
 2.72903e-02  1.98036e-02        00000 
 2.90745e-02  2.14542e-02        00000 
 3.04659e-02  2.20838e-02        00000 
 3.18149e-02  2.22439e-02        00000 
 3.19830e-02  2.23609e-02        00000 
 3.16844e-02  2.25983e-02        00000 
 3.12215e-02  2.29718e-02        00000 
 3.10941e-02  2.42870e-02        00000 
 3.09331e-02  2.66998e-02        00000 
 3.61507e-02  2.96586e-02        00000 
 4.07381e-02  3.17625e-02        00000 
 4.44078e-02  3.33195e-02        00000 
 4.54213e-02  3.49352e-02        00000 
 4.65210e-02  3.68686e-02        00000 
 4.95358e-02  3.93396e-02        00000 
 5.24069e-02  4.16300e-02        00000 
 5.65296e-02  4.36983e-02        00000 
 6.18331e-02  4.59967e-02        00000 
 6.72004e-02  4.79171e-02        00000 
 7.36163e-02  4.91739e-02        00000 
 8.01881e-02  5.02565e-02        00000 
 8.81205e-02  5.13060e-02        00000 
 9.65739e-02  5.30169e-02        00000 
 1.02543e-01  5.25949e-02        00000 
 1.06701e-01  5.09021e-02        00000 
 1.10681e-01  4.92960e-02        00000 
 1.14399e-01  4.72670e-02        00000 
 1.20567e-01  4.44354e-02        00000 
 1.26502e-01  4.14562e-02        00000 
 1.31033e-01  3.84281e-02        00000 
 1.33753e-01  3.58850e-02        00000 
 1.38054e-01  3.32747e-02        00000 
 1.43825e-01  3.09436e-02        00000 
 1.49108e-01  2.84301e-02        00000 
 1.53397e-01  2.54881e-02        00000 
 1.56789e-01  2.22675e-02        00000 
 1.61130e-01  1.81579e-02        00000 
 1.66414e-01  1.36754e-02        00000 
 1.72198e-01  9.40311e-03        00000 
 1.80174e-01  6.57203e-03        00000 
 1.87835e-01  3.93509e-03        00000 
 4.12041e-03  2.16461e-03        00000 
 8.22395e-03  5.76033e-03        00000 
 1.31463e-02  8.29666e-03        00000 
 1.66654e-02  9.69972e-03        00000 
 1.87765e-02  1.09793e-02        00000 
 2.17706e-02  1.37168e-02        00000 
 2.46112e-02  1.61560e-02        00000 