<?xml version="1.0" encoding="utf-8"?>
<VTKFile byte_order="LittleEndian" type="UnstructuredGrid" version="0.1">
   <UnstructuredGrid>
      <Piece NumberOfCells="1444" NumberOfPoints="761">
         <Points>
            <DataArray Name="Points" NumberOfComponents="3" format="ascii" type="Float32">
-1.0000 -1.0000 0.0000
-1.0000 -0.8947 0.0000
-1.0000 -0.7895 0.0000
-1.0000 -0.6842 0.0000
-1.0000 -0.5789 0.0000
-1.0000 -0.4737 0.0000
-1.0000 -0.3684 0.0000
-1.0000 -0.2632 0.0000
-1.0000 -0.1579 0.0000
-1.0000 -0.0526 0.0000
-1.0000 0.0526 0.0000
-1.0000 0.1579 0.0000
-1.0000 0.2632 0.0000
-1.0000 0.3684 0.0000
-1.0000 0.4737 0.0000
-1.0000 0.5789 0.0000
-1.0000 0.6842 0.0000
-1.0000 0.7895 0.0000
-1.0000 0.8947 0.0000
-1.0000 1.0000 0.0000
-0.8947 -1.0000 0.0000
-0.8947 -0.8947 0.0000
-0.8947 -0.7895 0.0000
-0.8947 -0.6842 0.0000
-0.8947 -0.5789 0.0000
-0.8947 -0.4737 0.0000
-0.8947 -0.3684 0.0000
-0.8947 -0.2632 0.0000
-0.8947 -0.1579 0.0000
-0.8947 -0.0526 0.0000
-0.8947 0.0526 0.0000
-0.8947 0.1579 0.0000
-0.8947 0.2632 0.0000
-0.8947 0.3684 0.0000
-0.8947 0.4737 0.0000
-0.8947 0.5789 0.0000
-0.8947 0.6842 0.0000
-0.8947 0.7895 0.0000
-0.8947 0.8947 0.0000
-0.8947 1.0000 0.0000
-0.7895 -1.0000 0.0000
-0.7895 -0.8947 0.0000
-0.7895 -0.7895 0.0000
-0.7895 -0.6842 0.0000
-0.7895 -0.5789 0.0000
-0.7895 -0.4737 0.0000
-0.7895 -0.3684 0.0000
-0.7895 -0.2632 0.0000
-0.7895 -0.1579 0.0000
-0.7895 -0.0526 0.0000
-0.7895 0.0526 0.0000
-0.7895 0.1579 0.0000
-0.7895 0.2632 0.0000
-0.7895 0.3684 0.0000
-0.7895 0.4737 0.0000
-0.7895 0.5789 0.0000
-0.7895 0.6842 0.0000
-0.7895 0.7895 0.0000
-0.7895 0.8947 0.0000
-0.7895 1.0000 0.0000
-0.6842 -1.0000 0.0000
-0.6842 -0.8947 0.0000
-0.6842 -0.7895 0.0000
-0.6842 -0.6842 0.0000
-0.6842 -0.5789 0.0000
-0.6842 -0.4737 0.0000
-0.6842 -0.3684 0.0000
-0.6842 -0.2632 0.0000
-0.6842 -0.1579 0.0000
-0.6842 -0.0526 0.0000
-0.6842 0.0526 0.0000
-0.6842 0.1579 0.0000
-0.6842 0.2632 0.0000
-0.6842 0.3684 0.0000
-0.6842 0.4737 0.0000
-0.6842 0.5789 0.0000
-0.6842 0.6842 0.0000
-0.6842 0.7895 0.0000
-0.6842 0.8947 0.0000
-0.6842 1.0000 0.0000
-0.5789 -1.0000 0.0000
-0.5789 -0.8947 0.0000
-0.5789 -0.7895 0.0000
-0.5789 -0.6842 0.0000
-0.5789 -0.5789 0.0000
-0.5789 -0.4737 0.0000
-0.5789 -0.3684 0.0000
-0.5789 -0.2632 0.0000
-0.5789 -0.1579 0.0000
-0.5789 -0.0526 0.0000
-0.5789 0.0526 0.0000
-0.5789 0.1579 0.0000
-0.5789 0.2632 0.0000
-0.5789 0.3684 0.0000
-0.5789 0.4737 0.0000
-0.5789 0.5789 0.0000
-0.5789 0.6842 0.0000
-0.5789 0.7895 0.0000
-0.5789 0.8947 0.0000
-0.5789 1.0000 0.0000
-0.4737 -1.0000 0.0000
-0.4737 -0.8947 0.0000
-0.4737 -0.7895 0.0000
-0.4737 -0.6842 0.0000
-0.4737 -0.5789 0.0000
-0.4737 -0.4737 0.0000
-0.4737 -0.3684 0.0000
-0.4737 -0.2632 0.0000
-0.4737 -0.1579 0.0000
-0.4737 -0.0526 0.0000
-0.4737 0.0526 0.0000
-0.4737 0.1579 0.0000
-0.4737 0.2632 0.0000
-0.4737 0.3684 0.0000
-0.4737 0.4737 0.0000
-0.4737 0.5789 0.0000
-0.4737 0.6842 0.0000
-0.4737 0.7895 0.0000
-0.4737 0.8947 0.0000
-0.4737 1.0000 0.0000
-0.3684 -1.0000 0.0000
-0.3684 -0.8947 0.0000
-0.3684 -0.7895 0.0000
-0.3684 -0.6842 0.0000
-0.3684 -0.5789 0.0000
-0.3684 -0.4737 0.0000
-0.3684 -0.3684 0.0000
-0.3684 -0.2632 0.0000
-0.3684 -0.1579 0.0000
-0.3684 -0.0526 0.0000
-0.3684 0.0526 0.0000
-0.3684 0.1579 0.0000
-0.3684 0.2632 0.0000
-0.3684 0.3684 0.0000
-0.3684 0.4737 0.0000
-0.3684 0.5789 0.0000
-0.3684 0.6842 0.0000
-0.3684 0.7895 0.0000
-0.3684 0.8947 0.0000
-0.3684 1.0000 0.0000
-0.2632 -1.0000 0.0000
-0.2632 -0.8947 0.0000
-0.2632 -0.7895 0.0000
-0.2632 -0.6842 0.0000
-0.2632 -0.5789 0.0000
-0.2632 -0.4737 0.0000
-0.2632 -0.3684 0.0000
-0.2632 -0.2632 0.0000
-0.2632 -0.1579 0.0000
-0.2632 -0.0526 0.0000
-0.2632 0.0526 0.0000
-0.2632 0.1579 0.0000
-0.2632 0.2632 0.0000
-0.2632 0.3684 0.0000
-0.2632 0.4737 0.0000
-0.2632 0.5789 0.0000
-0.2632 0.6842 0.0000
-0.2632 0.7895 0.0000
-0.2632 0.8947 0.0000
-0.2632 1.0000 0.0000
-0.1579 -1.0000 0.0000
-0.1579 -0.8947 0.0000
-0.1579 -0.7895 0.0000
-0.1579 -0.6842 0.0000
-0.1579 -0.5789 0.0000
-0.1579 -0.4737 0.0000
-0.1579 -0.3684 0.0000
-0.1579 -0.2632 0.0000
-0.1579 -0.1579 0.0000
-0.1579 -0.0526 0.0000
-0.1579 0.0526 0.0000
-0.1579 0.1579 0.0000
-0.1579 0.2632 0.0000
-0.1579 0.3684 0.0000
-0.1579 0.4737 0.0000
-0.1579 0.5789 0.0000
-0.1579 0.6842 0.0000
-0.1579 0.7895 0.0000
-0.1579 0.8947 0.0000
-0.1579 1.0000 0.0000
-0.0526 -1.0000 0.0000
-0.0526 -0.8947 0.0000
-0.0526 -0.7895 0.0000
-0.0526 -0.6842 0.0000
-0.0526 -0.5789 0.0000
-0.0526 -0.4737 0.0000
-0.0526 -0.3684 0.0000
-0.0526 -0.2632 0.0000
-0.0526 -0.1579 0.0000
-0.0526 -0.0526 0.0000
-0.0526 0.0526 0.0000
-0.0526 0.1579 0.0000
-0.0526 0.2632 0.0000
-0.0526 0.3684 0.0000
-0.0526 0.4737 0.0000
-0.0526 0.5789 0.0000
-0.0526 0.6842 0.0000
-0.0526 0.7895 0.0000
-0.0526 0.8947 0.0000
-0.0526 1.0000 0.0000
0.0526 -1.0000 0.0000
0.0526 -0.8947 0.0000
0.0526 -0.7895 0.0000
0.0526 -0.6842 0.0000
0.0526 -0.5789 0.0000
0.0526 -0.4737 0.0000
0.0526 -0.3684 0.0000
0.0526 -0.2632 0.0000
0.0526 -0.1579 0.0000
0.0526 -0.0526 0.0000
0.0526 0.0526 0.0000
0.0526 0.1579 0.0000
0.0526 0.2632 0.0000
0.0526 0.3684 0.0000
0.0526 0.4737 0.0000
0.0526 0.5789 0.0000
0.0526 0.6842 0.0000
0.0526 0.7895 0.0000
0.0526 0.8947 0.0000
0.0526 1.0000 0.0000
0.1579 -1.0000 0.0000
0.1579 -0.8947 0.0000
0.1579 -0.7895 0.0000
0.1579 -0.6842 0.0000
0.1579 -0.5789 0.0000
0.1579 -0.4737 0.0000
0.1579 -0.3684 0.0000
0.1579 -0.2632 0.0000
0.1579 -0.1579 0.0000
0.1579 -0.0526 0.0000
0.1579 0.0526 0.0000
0.1579 0.1579 0.0000
0.1579 0.2632 0.0000
0.1579 0.3684 0.0000
0.1579 0.4737 0.0000
0.1579 0.5789 0.0000
0.1579 0.6842 0.0000
0.1579 0.7895 0.0000
0.1579 0.8947 0.0000
0.1579 1.0000 0.0000
0.2632 -1.0000 0.0000
0.2632 -0.8947 0.0000
0.2632 -0.7895 0.0000
0.2632 -0.6842 0.0000
0.2632 -0.5789 0.0000
0.2632 -0.4737 0.0000
0.2632 -0.3684 0.0000
0.2632 -0.2632 0.0000
0.2632 -0.1579 0.0000
0.2632 -0.0526 0.0000
0.2632 0.0526 0.0000
0.2632 0.1579 0.0000
0.2632 0.2632 0.0000
0.2632 0.3684 0.0000
0.2632 0.4737 0.0000
0.2632 0.5789 0.0000
0.2632 0.6842 0.0000
0.2632 0.7895 0.0000
0.2632 0.8947 0.0000
0.2632 1.0000 0.0000
0.3684 -1.0000 0.0000
0.3684 -0.8947 0.0000
0.3684 -0.7895 0.0000
0.3684 -0.6842 0.0000
0.3684 -0.5789 0.0000
0.3684 -0.4737 0.0000
0.3684 -0.3684 0.0000
0.3684 -0.2632 0.0000
0.3684 -0.1579 0.0000
0.3684 -0.0526 0.0000
0.3684 0.0526 0.0000
0.3684 0.1579 0.0000
0.3684 0.2632 0.0000
0.3684 0.3684 0.0000
0.3684 0.4737 0.0000
0.3684 0.5789 0.0000
0.3684 0.6842 0.0000
0.3684 0.7895 0.0000
0.3684 0.8947 0.0000
0.3684 1.0000 0.0000
0.4737 -1.0000 0.0000
0.4737 -0.8947 0.0000
0.4737 -0.7895 0.0000
0.4737 -0.6842 0.0000
0.4737 -0.5789 0.0000
0.4737 -0.4737 0.0000
0.4737 -0.3684 0.0000
0.4737 -0.2632 0.0000
0.4737 -0.1579 0.0000
0.4737 -0.0526 0.0000
0.4737 0.0526 0.0000
0.4737 0.1579 0.0000
0.4737 0.2632 0.0000
0.4737 0.3684 0.0000
0.4737 0.4737 0.0000
0.4737 0.5789 0.0000
0.4737 0.6842 0.0000
0.4737 0.7895 0.0000
0.4737 0.8947 0.0000
0.4737 1.0000 0.0000
0.5789 -1.0000 0.0000
0.5789 -0.8947 0.0000
0.5789 -0.7895 0.0000
0.5789 -0.6842 0.0000
0.5789 -0.5789 0.0000
0.5789 -0.4737 0.0000
0.5789 -0.3684 0.0000
0.5789 -0.2632 0.0000
0.5789 -0.1579 0.0000
0.5789 -0.0526 0.0000
0.5789 0.0526 0.0000
0.5789 0.1579 0.0000
0.5789 0.2632 0.0000
0.5789 0.3684 0.0000
0.5789 0.4737 0.0000
0.5789 0.5789 0.0000
0.5789 0.6842 0.0000
0.5789 0.7895 0.0000
0.5789 0.8947 0.0000
0.5789 1.0000 0.0000
0.6842 -1.0000 0.0000
0.6842 -0.8947 0.0000
0.6842 -0.7895 0.0000
0.6842 -0.6842 0.0000
0.6842 -0.5789 0.0000
0.6842 -0.4737 0.0000
0.6842 -0.3684 0.0000
0.6842 -0.2632 0.0000
0.6842 -0.1579 0.0000
0.6842 -0.0526 0.0000
0.6842 0.0526 0.0000
0.6842 0.1579 0.0000
0.6842 0.2632 0.0000
0.6842 0.3684 0.0000
0.6842 0.4737 0.0000
0.6842 0.5789 0.0000
0.6842 0.6842 0.0000
0.6842 0.7895 0.0000
0.6842 0.8947 0.0000
0.6842 1.0000 0.0000
0.7895 -1.0000 0.0000
0.7895 -0.8947 0.0000
0.7895 -0.7895 0.0000
0.7895 -0.6842 0.0000
0.7895 -0.5789 0.0000
0.7895 -0.4737 0.0000
0.7895 -0.3684 0.0000
0.7895 -0.2632 0.0000
0.7895 -0.1579 0.0000
0.7895 -0.0526 0.0000
0.7895 0.0526 0.0000
0.7895 0.1579 0.0000
0.7895 0.2632 0.0000
0.7895 0.3684 0.0000
0.7895 0.4737 0.0000
0.7895 0.5789 0.0000
0.7895 0.6842 0.0000
0.7895 0.7895 0.0000
0.7895 0.8947 0.0000
0.7895 1.0000 0.0000
0.8947 -1.0000 0.0000
0.8947 -0.8947 0.0000
0.8947 -0.7895 0.0000
0.8947 -0.6842 0.0000
0.8947 -0.5789 0.0000
0.8947 -0.4737 0.0000
0.8947 -0.3684 0.0000
0.8947 -0.2632 0.0000
0.8947 -0.1579 0.0000
0.8947 -0.0526 0.0000
0.8947 0.0526 0.0000
0.8947 0.1579 0.0000
0.8947 0.2632 0.0000
0.8947 0.3684 0.0000
0.8947 0.4737 0.0000
0.8947 0.5789 0.0000
0.8947 0.6842 0.0000
0.8947 0.7895 0.0000
0.8947 0.8947 0.0000
0.8947 1.0000 0.0000
1.0000 -1.0000 0.0000
1.0000 -0.8947 0.0000
1.0000 -0.7895 0.0000
1.0000 -0.6842 0.0000
1.0000 -0.5789 0.0000
1.0000 -0.4737 0.0000
1.0000 -0.3684 0.0000
1.0000 -0.2632 0.0000
1.0000 -0.1579 0.0000
1.0000 -0.0526 0.0000
1.0000 0.0526 0.0000
1.0000 0.1579 0.0000
1.0000 0.2632 0.0000
1.0000 0.3684 0.0000
1.0000 0.4737 0.0000
1.0000 0.5789 0.0000
1.0000 0.6842 0.0000
1.0000 0.7895 0.0000
1.0000 0.8947 0.0000
1.0000 1.0000 0.0000
-0.9474 -0.9474 0.0000
-0.9474 -0.8421 0.0000
-0.9474 -0.7368 0.0000
-0.9474 -0.6316 0.0000
-0.9474 -0.5263 0.0000
-0.9474 -0.4211 0.0000
-0.9474 -0.3158 0.0000
-0.9474 -0.2105 0.0000
-0.9474 -0.1053 0.0000
-0.9474 0.0000 0.0000
-0.9474 0.1053 0.0000
-0.9474 0.2105 0.0000
-0.9474 0.3158 0.0000
-0.9474 0.4211 0.0000
-0.9474 0.5263 0.0000
-0.9474 0.6316 0.0000
-0.9474 0.7368 0.0000
-0.9474 0.8421 0.0000
-0.9474 0.9474 0.0000
-0.8421 -0.9474 0.0000
-0.8421 -0.8421 0.0000
-0.8421 -0.7368 0.0000
-0.8421 -0.6316 0.0000
-0.8421 -0.5263 0.0000
-0.8421 -0.4211 0.0000
-0.8421 -0.3158 0.0000
-0.8421 -0.2105 0.0000
-0.8421 -0.1053 0.0000
-0.8421 0.0000 0.0000
-0.8421 0.1053 0.0000
-0.8421 0.2105 0.0000
-0.8421 0.3158 0.0000
-0.8421 0.4211 0.0000
-0.8421 0.5263 0.0000
-0.8421 0.6316 0.0000
-0.8421 0.7368 0.0000
-0.8421 0.8421 0.0000
-0.8421 0.9474 0.0000
-0.7368 -0.9474 0.0000
-0.7368 -0.8421 0.0000
[...]
         <PointData>
            <DataArray Name="fValues" NumberOfComponents="3" format="ascii" type="Float64">
 1.07040e-17 -8.00646e-19        00000 
 5.26316e-02  8.53860e-19        00000 
 1.05263e-01 -7.58574e-19        00000 
 1.57895e-01 -1.80029e-19        00000 
 2.10526e-01  3.37144e-19        00000 
 2.63158e-01  2.03859e-18        00000 
 3.15789e-01 -3.70858e-18        00000 
 3.68421e-01 -3.04990e-18        00000 
 4.21053e-01 -1.68572e-18        00000 
 4.73684e-01 -6.80204e-19        00000 
 5.26316e-01 -1.18000e-18        00000 
 5.78947e-01 -1.39787e-18        00000 
 6.31579e-01 -3.03430e-18        00000 
 6.84211e-01 -6.13931e-18        00000 
 7.36842e-01 -1.68572e-19        00000 
 7.89474e-01 -7.41294e-19        00000 
 8.42105e-01 -2.02286e-18        00000 
 8.94737e-01 -6.80252e-19        00000 
 9.47368e-01  1.70018e-19        00000 
       00001 -2.22440e-19        00000 
       00000 -3.27274e-19        00000 
 4.66258e-02 -5.92830e-03        00000 
 9.59908e-02 -9.52661e-03        00000 
 1.45972e-01 -1.20906e-02        00000 
 1.96263e-01 -1.40293e-02        00000 
 2.46734e-01 -1.55154e-02        00000 
 2.97334e-01 -1.66544e-02        00000 
 3.48024e-01 -1.75270e-02        00000 
 3.98762e-01 -1.81929e-02        00000 
 4.49486e-01 -1.86777e-02        00000 
 5.00135e-01 -1.89617e-02        00000 
 5.50667e-01 -1.89851e-02        00000 
 6.01076e-01 -1.86705e-02        00000 
 6.51384e-01 -1.79507e-02        00000 
 7.01618e-01 -1.67814e-02        00000 
 7.51789e-01 -1.51320e-02        00000 
 8.01858e-01 -1.29544e-02        00000 
 8.51687e-01 -1.01212e-02        00000 
 9.00940e-01 -6.24490e-03        00000 
 9.47368e-01 -1.72259e-19        00000 
 3.85483e-18 -3.17706e-19        00000 
 4.28755e-02 -8.75756e-03        00000 
 8.84726e-02 -1.55651e-02        00000 
 1.35448e-01 -2.06976e-02        00000 
 1.83090e-01 -2.46374e-02        00000 
 2.31147e-01 -2.76668e-02        00000 
 2.79513e-01 -2.99784e-02        00000 
 3.28113e-01 -3.17269e-02        00000 
 3.76845e-01 -3.30332e-02        00000 
 4.25558e-01 -3.39554e-02        00000 
 4.74086e-01 -3.44613e-02        00000 
 5.22319e-01 -3.44354e-02        00000 
 5.70246e-01 -3.37287e-02        00000 
 6.17933e-01 -3.22166e-02        00000 
 6.65462e-01 -2.98212e-02        00000 
 7.12859e-01 -2.64872e-02        00000 
 7.60035e-01 -2.21236e-02        00000 
 8.06708e-01 -1.65202e-02        00000 
 8.52093e-01 -9.22922e-03        00000 
 8.94737e-01  1.27964e-18        00000 
-1.68572e-18 -1.18000e-18        00000 
 3.99838e-02 -1.06977e-02        00000 
 8.22960e-02 -1.96521e-02        00000 
 1.26133e-01 -2.68958e-02        00000 
 1.70909e-01 -3.26314e-02        00000 
 2.16324e-01 -3.70949e-02        00000 
 2.62258e-01 -4.04954e-02        00000 
 3.08626e-01 -4.30393e-02        00000 
 3.55273e-01 -4.49182e-02        00000 
 4.01915e-01 -4.62440e-02        00000 
 4.48215e-01 -4.69737e-02        00000 
 4.93944e-01 -4.69106e-02        00000 
 5.39102e-01 -4.58082e-02        00000 
 5.83856e-01 -4.34887e-02        00000 
 6.28386e-01 -3.98761e-02        00000 
 6.72755e-01 -3.49421e-02        00000 
 7.16833e-01 -2.86248e-02        00000 
 7.60243e-01 -2.07753e-02        00000 
 8.02301e-01 -1.12341e-02        00000 
 8.42105e-01 -1.43800e-18        00000 
 6.77764e-19  4.44783e-19        00000 
 3.75035e-02 -1.21179e-02        00000 
 7.69065e-02 -2.26458e-02        00000 
 1.17716e-01 -3.14991e-02        00000 
 1.59525e-01 -3.87212e-02        00000 
 2.02113e-01 -4.44215e-02        00000 
 2.45420e-01 -4.87548e-02        00000 
 2.89434e-01 -5.19458e-02        00000 
 3.33990e-01 -5.42805e-02        00000 
 3.78620e-01 -5.59779e-02        00000 
 4.22660e-01 -5.69917e-02        00000 
 4.65662e-01 -5.69725e-02        00000 
 5.07696e-01 -5.55070e-02        00000 
 5.49166e-01 -5.23764e-02        00000 
 5.90437e-01 -4.75842e-02        00000 
 6.31622e-01 -4.12091e-02        00000 
 6.72564e-01 -3.32807e-02        00000 
 7.12883e-01 -2.37645e-02        00000 
 7.52046e-01 -1.26374e-02        00000 
 7.89474e-01  1.25198e-18        00000 
-3.03430e-18 -1.68572e-19        00000 
 3.52624e-02 -1.31917e-02        00000 
 7.20083e-02 -2.49029e-02        00000 
 1.09923e-01 -3.50012e-02        00000 
 1.48741e-01 -4.34321e-02        00000 
 1.88342e-01 -5.01846e-02        00000 
 2.28801e-01 -5.52979e-02        00000 
 2.70316e-01 -5.89513e-02        00000 
 3.12880e-01 -6.15598e-02        00000 
 3.55791e-01 -6.35866e-02        00000 
 3.97699e-01 -6.50258e-02        00000 
 4.37667e-01 -6.52022e-02        00000 
 4.76050e-01 -6.33699e-02        00000 
 5.13820e-01 -5.93470e-02        00000 
 5.51637e-01 -5.33797e-02        00000 
 5.89617e-01 -4.57455e-02        00000 
 6.27521e-01 -3.65625e-02        00000 
 6.64967e-01 -2.58445e-02        00000 
 7.01532e-01 -1.36176e-02        00000 
 7.36842e-01 -3.62944e-18        00000 
-2.72082e-18 -3.40102e-19        00000 
 3.31804e-02 -1.39905e-02        00000 
 6.74440e-02 -2.65867e-02        00000 
 1.02585e-01 -3.76445e-02        00000 
 1.38428e-01 -4.70686e-02        00000 
 1.74907e-01 -5.47727e-02        00000 
 2.12216e-01 -6.06279e-02        00000 
 2.50935e-01 -6.46209e-02        00000 
 2.91664e-01 -6.72356e-02        00000 
 3.33644e-01 -6.94999e-02        00000 
 3.73915e-01 -7.16707e-02        00000 
 4.10199e-01 -7.22431e-02        00000 
 4.43998e-01 -6.98245e-02        00000 
 4.77617e-01 -6.45901e-02        00000 
 5.11977e-01 -5.74161e-02        00000 
 5.46896e-01 -4.87658e-02        00000 
 5.81939e-01 -3.86998e-02        00000 
 6.16710e-01 -2.71925e-02        00000 
 6.50879e-01 -1.42582e-02        00000 
 6.84211e-01  5.67719e-19        00000 
 1.68572e-18 -1.68572e-19        00000 
 3.12083e-02 -1.45386e-02        00000 
 6.31142e-02 -2.77472e-02        00000 
 9.55924e-02 -3.94930e-02        00000 
 1.28522e-01 -4.96928e-02        00000 
 1.61845e-01 -5.82731e-02        00000 
 1.95667e-01 -6.50773e-02        00000 
 2.30886e-01 -6.96179e-02        00000 
 2.69639e-01 -7.20535e-02        00000 
 3.12489e-01 -7.43277e-02        00000 
 3.52727e-01 -7.78035e-02        00000 
 3.83249e-01 -7.89444e-02        00000 
 4.10760e-01 -7.47573e-02        00000 
 4.40217e-01 -6.77325e-02        00000 
 4.71525e-01 -5.95860e-02        00000 
 5.03660e-01 -5.03424e-02        00000 
 5.36036e-01 -3.98231e-02        00000 
 5.68284e-01 -2.79163e-02        00000 
 6.00172e-01 -1.46132e-02        00000 
 6.31579e-01 -1.95010e-18        00000 
-1.05899e-18  8.15424e-19        00000 
 2.92988e-02 -1.48389e-02        00000 
 5.89264e-02 -2.83783e-02        00000 
 8.88311e-02 -4.05016e-02        00000 
 1.18943e-01 -5.11571e-02        00000 
 1.49190e-01 -6.03522e-02        00000 
 1.79578e-01 -6.81214e-02        00000 
 2.10213e-01 -7.43353e-02        00000 
 2.45278e-01 -7.72704e-02        00000 
 2.92773e-01 -8.02496e-02        00000 
 3.37791e-01 -8.64171e-02        00000 
 3.54280e-01 -8.47137e-02        00000 
 3.74928e-01 -7.60540e-02        00000 
 4.01752e-01 -6.80163e-02        00000 
 4.30603e-01 -5.97887e-02        00000 
 4.60208e-01 -5.05980e-02        00000 
 4.90033e-01 -4.00831e-02        00000 
 5.19834e-01 -2.81255e-02        00000 
 5.49481e-01 -1.47348e-02        00000 
 5.78947e-01 -1.01869e-18        00000 
 3.37144e-19 -2.36001e-18        00000 
 2.73976e-02 -1.48952e-02        00000 
 5.47733e-02 -2.84768e-02        00000 
 8.21431e-02 -4.06277e-02        00000 
 1.09487e-01 -5.12905e-02        00000 
 1.36758e-01 -6.04804e-02        00000 
 1.63838e-01 -6.83263e-02        00000 
 1.90668e-01 -7.52286e-02        00000 
 2.15315e-01 -8.15386e-02        00000 
 2.67842e-01 -8.58868e-02        00000 
 3.24625e-01 -9.30707e-02        00000 
 3.17400e-01 -7.90129e-02        00000 
 3.37798e-01 -7.16627e-02        00000 
 3.63116e-01 -6.55078e-02        00000 
 3.89780e-01 -5.84474e-02        00000 
 4.16858e-01 -4.98905e-02        00000 
 4.44122e-01 -3.97233e-02        00000 
 4.71465e-01 -2.79612e-02        00000 
 4.98853e-01 -1.46825e-02        00000 
 5.26316e-01 -1.78153e-18        00000 
 3.40091e-18  1.02027e-18        00000 
 2.54517e-02 -1.47280e-02        00000 
 5.05487e-02 -2.80892e-02        00000 
 7.53534e-02 -3.99456e-02        00000 
 9.98791e-02 -5.01806e-02        00000 
 1.24070e-01 -5.86759e-02        00000 
 1.47739e-01 -6.52320e-02        00000 
 1.70019e-01 -6.92050e-02        00000 
 1.87582e-01 -6.84967e-02        00000 
 1.79726e-01 -5.85225e-02        00000 
 2.27894e-01 -6.61574e-02        00000 
 2.79934e-01 -6.58360e-02        00000 
 3.01553e-01 -6.55876e-02        00000 
 3.25327e-01 -6.24008e-02        00000 
 3.49404e-01 -5.66379e-02        00000 
 3.73783e-01 -4.87783e-02        00000 
 3.98386e-01 -3.90399e-02        00000 
 4.23216e-01 -2.75730e-02        00000 
 4.48298e-01 -1.45150e-02        00000 
 4.73684e-01 -2.08964e-18        00000 
 1.01143e-18 -1.34858e-18        00000 
 2.34270e-02 -1.43744e-02        00000 
 4.61825e-02 -2.73145e-02        00000 
 6.83497e-02 -3.86603e-02        00000 
 8.99499e-02 -4.82420e-02        00000 
 1.10891e-01 -5.58362e-02        00000 
 1.30788e-01 -6.10497e-02        00000 
 1.48530e-01 -6.31628e-02        00000 
 1.60420e-01 -6.15289e-02        00000 
 1.68103e-01 -6.32126e-02        00000 
 2.01292e-01 -6.92828e-02        00000 
 2.39941e-01 -6.90663e-02        00000 
 2.66382e-01 -6.48685e-02        00000 
 2.87904e-01 -6.09299e-02        00000 
 3.09329e-01 -5.52643e-02        00000 
 3.30907e-01 -4.76782e-02        00000 
 3.52791e-01 -3.82391e-02        00000 
 3.75060e-01 -2.70603e-02        00000 
 3.97794e-01 -1.42696e-02        00000 
 4.21053e-01 -3.80783e-18        00000 
 2.39332e-18 -4.23597e-20        00000 
 2.13176e-02 -1.38723e-02        00000 
 4.16605e-02 -2.62545e-02        00000 
 6.11256e-02 -3.69872e-02        00000 
 7.97518e-02 -4.59101e-02        00000 
 9.74452e-02 -5.28491e-02        00000 
 1.13866e-01 -5.76330e-02        00000 
 1.28234e-01 -6.03277e-02        00000 
 1.40572e-01 -6.25537e-02        00000 
 1.55426e-01 -6.66770e-02        00000 
 1.79320e-01 -7.01705e-02        00000 
 2.06516e-01 -6.94464e-02        00000 
 2.30118e-01 -6.54854e-02        00000 
 2.50268e-01 -6.02866e-02        00000 
 2.69197e-01 -5.41574e-02        00000 
 2.88073e-01 -4.65558e-02        00000 
 3.07252e-01 -3.73147e-02        00000 
 3.26945e-01 -2.64219e-02        00000 
 3.47304e-01 -1.39461e-02        00000 
 3.68421e-01  1.38940e-18        00000 
-1.68572e-19 -1.34858e-18        00000 
 1.91377e-02 -1.32380e-02        00000 
 3.70053e-02 -2.49521e-02        00000 
 5.37381e-02 -3.50092e-02        00000 
 6.94379e-02 -4.33182e-02        00000 
 8.41118e-02 -4.98510e-02        00000 
 9.76549e-02 -5.47195e-02        00000 
 1.10118e-01 -5.84281e-02        00000 
 1.22494e-01 -6.18647e-02        00000 
 1.37040e-01 -6.52916e-02        00000 
 1.55376e-01 -6.74635e-02        00000 
 1.75627e-01 -6.68818e-02        00000 
 1.94945e-01 -6.36390e-02        00000 
 2.12517e-01 -5.86868e-02        00000 
 2.29013e-01 -5.24944e-02        00000 
 2.45245e-01 -4.50140e-02        00000 
 2.61743e-01 -3.60629e-02        00000 
 2.78844e-01 -2.55567e-02        00000 
 2.96805e-01 -1.35051e-02        00000 
 3.15789e-01 -4.81926e-18        00000 
-2.72082e-18 -1.70051e-18        00000 
 1.68995e-02 -1.24528e-02        00000 
 3.22272e-02 -2.33573e-02        00000 
 4.62128e-02 -3.26230e-02        00000 
 5.90786e-02 -4.02546e-02        00000 
 7.09848e-02 -4.63600e-02        00000 
 8.20872e-02 -5.11850e-02        00000 
 9.27464e-02 -5.51185e-02        00000 
 1.03747e-01 -5.85010e-02        00000 
 1.16129e-01 -6.12453e-02        00000 
 1.30365e-01 -6.26869e-02        00000 
 1.45695e-01 -6.21485e-02        00000 
 1.60883e-01 -5.95436e-02        00000 
 1.75294e-01 -5.52386e-02        00000 
 1.89040e-01 -4.95575e-02        00000 
 2.02568e-01 -4.25685e-02        00000 
 2.16347e-01 -3.41839e-02        00000 
 2.30801e-01 -2.42984e-02        00000 
 2.46307e-01 -1.28783e-02        00000 
 2.63158e-01  1.55329e-18        00000 
 1.18000e-18  5.05716e-19        00000 
 1.45860e-02 -1.14578e-02        00000 
 2.72732e-02 -2.13245e-02        00000 
 3.84732e-02 -2.95669e-02        00000 
 4.85732e-02 -3.62988e-02        00000 
 5.78720e-02 -4.17278e-02        00000 
 6.66427e-02 -4.61139e-02        00000 
 7.52491e-02 -4.97111e-02        00000 
 8.41948e-02 -5.26501e-02        00000 
 9.39721e-02 -5.48064e-02        00000 
 1.04738e-01 -5.58216e-02        00000 
 1.16145e-01 -5.53459e-02        00000 
 1.27617e-01 -5.32769e-02        00000 
 1.38771e-01 -4.97396e-02        00000 
 1.49580e-01 -4.48932e-02        00000 
 1.60283e-01 -3.87881e-02        00000 
 1.71251e-01 -3.13489e-02        00000 
 1.82939e-01 -2.24431e-02        00000 
 1.95866e-01 -1.19772e-02        00000 
 2.10526e-01 -3.24909e-19        00000 
-4.13007e-19  2.75338e-19        00000 
 1.21207e-02 -1.01490e-02        00000 
 2.19826e-02 -1.86080e-02        00000 
 3.03131e-02 -2.54511e-02        00000 
 3.76845e-02 -3.09334e-02        00000 
 4.44625e-02 -3.53473e-02        00000 
 5.09149e-02 -3.89360e-02        00000 
 5.73162e-02 -4.18702e-02        00000 
 6.39631e-02 -4.42025e-02        00000 
 7.10949e-02 -4.58366e-02        00000 
 7.87683e-02 -4.65673e-02        00000 
 8.68143e-02 -4.61975e-02        00000 
 9.49525e-02 -4.46425e-02        00000 
 1.02971e-01 -4.19326e-02        00000 
 1.10827e-01 -3.81311e-02        00000 
 1.18654e-01 -3.32458e-02        00000 
 1.26723e-01 -2.71809e-02        00000 
 1.35480e-01 -1.97315e-02        00000 
 1.45595e-01 -1.06855e-02        00000 
 1.57895e-01 -1.71292e-19        00000 
-6.74288e-19  4.21430e-19        00000 
 9.32023e-03 -8.33568e-03        00000 
 1.60334e-02 -1.48103e-02        00000 
 2.14007e-02 -1.97177e-02        00000 
 2.61167e-02 -2.35609e-02        00000 
 3.04710e-02 -2.66475e-02        00000 
 3.46533e-02 -2.91716e-02        00000 
 3.88298e-02 -3.12413e-02        00000 
 4.31561e-02 -3.28756e-02        00000 
 4.77429e-02 -3.40069e-02        00000 
 5.26101e-02 -3.45134e-02        00000 
 5.76766e-02 -3.42796e-02        00000 
 6.28095e-02 -3.32454e-02        00000 
 6.79005e-02 -3.14123e-02        00000 
 7.29205e-02 -2.88039e-02        00000 
 7.79357e-02 -2.54121e-02        00000 
 8.31170e-02 -2.11444e-02        00000 
 8.87870e-02 -1.57658e-02        00000 
 9.57113e-02 -8.80740e-03        00000 
 1.05263e-01 -4.93481e-19        00000 
 1.53421e-18  1.70468e-19        00000 
 5.73164e-03 -5.65471e-03        00000 
 8.84975e-03 -9.09239e-03        00000 
 1.13740e-02 -1.15665e-02        00000 
 1.36043e-02 -1.34914e-02        00000 
 1.56877e-02 -1.50503e-02        00000 
 1.77086e-02 -1.63443e-02        00000 
 1.97364e-02 -1.74220e-02        00000 
 2.18312e-02 -1.82844e-02        00000 
 2.40325e-02 -1.88904e-02        00000 
 2.63452e-02 -1.91748e-02        00000 
 2.87383e-02 -1.90776e-02        00000 
 3.11619e-02 -1.85668e-02        00000 
 3.35738e-02 -1.76420e-02        00000 
 3.59598e-02 -1.63176e-02        00000 
 3.83440e-02 -1.45950e-02        00000 
 4.07962e-02 -1.24308e-02        00000 
 4.34730e-02 -9.68716e-03        00000 
 4.67031e-02 -5.97134e-03        00000 
 5.26316e-02  1.36282e-18        00000 
-2.06728e-18  8.01108e-20        00000 
 4.90911e-19 -4.90911e-19        00000 
 9.53335e-19 -5.78110e-19        00000 
 5.02705e-19 -6.02868e-20        00000 
 4.21589e-20  8.44015e-19        00000 
 2.01985e-18 -2.58887e-18        00000 
 5.50893e-19  2.31295e-18        00000 
-1.95617e-19 -3.51790e-21        00000 
-1.98137e-18  2.40926e-18        00000 
 1.15296e-18 -4.21782e-18        00000 
-5.22259e-18  1.52219e-19        00000 
 2.91193e-18 -2.12139e-18        00000 
 1.71314e-18 -3.34062e-18        00000 
 4.59765e-18  1.58719e-18        00000 
-7.87007e-18 -1.54217e-18        00000 
 7.84063e-18  1.64322e-18        00000 
 3.51162e-18 -1.76496e-18        00000 
 1.09994e-18  2.95730e-19        00000 
-1.57092e-17  6.54549e-19        00000 
 2.49760e-17 -9.50341e-19        00000 
 2.40733e-02 -2.23280e-03        00000 
 7.46781e-02 -4.27205e-03        00000 
 1.25960e-01 -5.73560e-03        00000 
 1.77422e-01 -6.82252e-03        00000 
 2.28985e-01 -7.65621e-03        00000 
 2.80611e-01 -8.29648e-03        00000 
 3.32283e-01 -8.78796e-03        00000 
 3.83982e-01 -9.16676e-03        00000 
 4.35685e-01 -9.45608e-03        00000 
 4.87370e-01 -9.65766e-03        00000 
 5.39013e-01 -9.74908e-03        00000 
 5.90607e-01 -9.69173e-03        00000 
 6.42152e-01 -9.44585e-03        00000 
 6.93660e-01 -8.98267e-03        00000 
 7.45137e-01 -8.28597e-03        00000 
 7.96579e-01 -7.34188e-03        00000 
 8.47951e-01 -6.11928e-03        00000 
 8.99167e-01 -4.51386e-03        00000 
 9.49700e-01 -2.33658e-03        00000 
 2.20217e-02 -4.14025e-03        00000 
 6.80900e-02 -1.04154e-02        00000 
 1.16150e-01 -1.48457e-02        00000 
 1.64943e-01 -1.81950e-02        00000 
 2.14116e-01 -2.07639e-02        00000 
 2.63535e-01 -2.27329e-02        00000 
 3.13137e-01 -2.42330e-02        00000 
 3.62856e-01 -2.53707e-02        00000 
 4.12608e-01 -2.62163e-02        00000 
 4.62288e-01 -2.67792e-02        00000 
 5.11808e-01 -2.69983e-02        00000 
 5.61126e-01 -2.67652e-02        00000 
 6.10259e-01 -2.59692e-02        00000 
 6.59252e-01 -2.45307e-02        00000 
 7.08143e-01 -2.24021e-02        00000 
 7.56909e-01 -1.95360e-02        00000 
 8.05418e-01 -1.58243e-02        00000 
 8.53284e-01 -1.10123e-02        00000 
 8.99158e-01 -4.34170e-03        00000 
 2.04723e-02 -5.22527e-03        00000 
 6.31386e-02 -1.40787e-02        00000 
 1.07824e-01 -2.10950e-02        00000 
 1.53670e-01 -2.65737e-02        00000 
 2.00188e-01 -3.08379e-02        00000 
 2.47174e-01 -3.41129e-02        00000 
 2.94528e-01 -3.65890e-02        00000 
 3.42143e-01 -3.84400e-02        00000 
 3.89847e-01 -3.97965e-02        00000 
 4.37415e-01 -4.06872e-02        00000 
 4.84646e-01 -4.10082e-02        00000 
 5.31452e-01 -4.05668e-02        00000 
 5.77885e-01 -3.91772e-02        00000 
 6.24061e-01 -3.67255e-02        00000 
 6.70065e-01 -3.31603e-02        00000 
 7.15865e-01 -2.84316e-02        00000 
 7.61235e-01 -2.24188e-02        00000 
 8.05618e-01 -1.48557e-02        00000 
 8.48060e-01 -5.47070e-03        00000 
 1.91943e-02 -6.01393e-03        00000 
 5.89758e-02 -1.66420e-02        00000 
 1.00562e-01 -2.55516e-02        00000 
 1.43385e-01 -3.28077e-02        00000 
 1.87063e-01 -3.85707e-02        00000 
 2.31412e-01 -4.30199e-02        00000 
 2.76353e-01 -4.63532e-02        00000 
 3.21774e-01 -4.88073e-02        00000 
 3.67403e-01 -5.06067e-02        00000 
 4.12817e-01 -5.18293e-02        00000 
 4.57615e-01 -5.23030e-02        00000 
 5.01647e-01 -5.16900e-02        00000 
 5.45057e-01 -4.97056e-02        00000 
 5.88109e-01 -4.62388e-02        00000 
 6.30980e-01 -4.13008e-02        00000 
 6.73645e-01 -3.49063e-02        00000 
 7.15839e-01 -2.69976e-02        00000 
 7.57066e-01 -1.74648e-02        00000 
 7.96657e-01 -6.26492e-03        00000 
 1.80572e-02 -6.60754e-03        00000 
 5.52723e-02 -1.85467e-02        00000 
 9.39826e-02 -2.88741e-02        00000 
 1.33825e-01 -3.75374e-02        00000 
 1.74549e-01 -4.45632e-02        00000 
 2.16071e-01 -5.00207e-02        00000 
 2.58435e-01 -5.40497e-02        00000 
 3.01621e-01 -5.69334e-02        00000 
 3.45279e-01 -5.90661e-02        00000 
 3.88639e-01 -6.06619e-02        00000 
 4.30897e-01 -6.14274e-02        00000 
 4.71815e-01 -6.07193e-02        00000 
 5.11795e-01 -5.81125e-02        00000 
 5.51412e-01 -5.36035e-02        00000 
 5.90986e-01 -4.73803e-02        00000 
 6.30488e-01 -3.95792e-02        00000 
 6.69634e-01 -3.02224e-02        00000 
 7.07994e-01 -1.92906e-02        00000 
 7.45096e-01 -6.82853e-03        00000 
 1.70109e-02 -7.05580e-03        00000 
 5.18631e-02 -1.99782e-02        00000 