<?xml version="1.0" encoding="utf-8"?>
<VTKFile byte_order="LittleEndian" type="UnstructuredGrid" version="0.1">
   <UnstructuredGrid>
      <Piece NumberOfCells="1444" NumberOfPoints="761">
         <Points>
            <DataArray Name="Points" NumberOfComponents="3" format="ascii" type="Float32">
-1.0000 -1.0000 0.0000
-1.0000 -0.8947 0.0000
-1.0000 -0.7895 0.0000
-1.0000 -0.6842 0.0000
-1.0000 -0.5789 0.0000
-1.0000 -0.4737 0.0000
-1.0000 -0.3684 0.0000
-1.0000 -0.2632 0.0000
-1.0000 -0.1579 0.0000
-1.0000 -0.0526 0.0000
-1.0000 0.0526 0.0000
-1.0000 0.1579 0.0000
-1.0000 0.2632 0.0000
-1.0000 0.3684 0.0000
-1.0000 0.4737 0.0000
-1.0000 0.5789 0.0000
-1.0000 0.6842 0.0000
-1.0000 0.7895 0.0000
-1.0000 0.8947 0.0000
-1.0000 1.0000 0.0000
-0.8947 -1.0000 0.0000
-0.8947 -0.8947 0.0000
-0.8947 -0.7895 0.0000
-0.8947 -0.6842 0.0000
-0.8947 -0.5789 0.0000
-0.8947 -0.4737 0.0000
-0.8947 -0.3684 0.0000
-0.8947 -0.2632 0.0000
-0.8947 -0.1579 0.0000
-0.8947 -0.0526 0.0000
-0.8947 0.0526 0.0000
-0.8947 0.1579 0.0000
-0.8947 0.2632 0.0000
-0.8947 0.3684 0.0000
-0.8947 0.4737 0.0000
-0.8947 0.5789 0.0000
-0.8947 0.6842 0.0000
-0.8947 0.7895 0.0000
-0.8947 0.8947 0.0000
-0.8947 1.0000 0.0000
-0.7895 -1.0000 0.0000
-0.7895 -0.8947 0.0000
-0.7895 -0.7895 0.0000
-0.7895 -0.6842 0.0000
-0.7895 -0.5789 0.0000
-0.7895 -0.4737 0.0000
-0.7895 -0.3684 0.0000
-0.7895 -0.2632 0.0000
-0.7895 -0.1579 0.0000
-0.7895 -0.0526 0.0000
-0.7895 0.0526 0.0000
-0.7895 0.1579 0.0000
-0.7895 0.2632 0.0000
-0.7895 0.3684 0.0000
-0.7895 0.4737 0.0000
-0.7895 0.5789 0.0000
-0.7895 0.6842 0.0000
-0.7895 0.7895 0.0000
-0.7895 0.8947 0.0000
-0.7895 1.0000 0.0000
-0.6842 -1.0000 0.0000
-0.6842 -0.8947 0.0000
-0.6842 -0.7895 0.0000
-0.6842 -0.6842 0.0000
-0.6842 -0.5789 0.0000
-0.6842 -0.4737 0.0000
-0.6842 -0.3684 0.0000
-0.6842 -0.2632 0.0000
-0.6842 -0.1579 0.0000
-0.6842 -0.0526 0.0000
-0.6842 0.0526 0.0000
-0.6842 0.1579 0.0000
-0.6842 0.2632 0.0000
-0.6842 0.3684 0.0000
-0.6842 0.4737 0.0000
-0.6842 0.5789 0.0000
-0.6842 0.6842 0.0000
-0.6842 0.7895 0.0000
-0.6842 0.8947 0.0000
-0.6842 1.0000 0.0000
-0.5789 -1.0000 0.0000
-0.5789 -0.8947 0.0000
-0.5789 -0.7895 0.0000
-0.5789 -0.6842 0.0000
-0.5789 -0.5789 0.0000
-0.5789 -0.4737 0.0000
-0.5789 -0.3684 0.0000
-0.5789 -0.2632 0.0000
-0.5789 -0.1579 0.0000
-0.5789 -0.0526 0.0000
-0.5789 0.0526 0.0000
-0.5789 0.1579 0.0000
-0.5789 0.2632 0.0000
-0.5789 0.3684 0.0000
-0.5789 0.4737 0.0000
-0.5789 0.5789 0.0000
-0.5789 0.6842 0.0000
-0.5789 0.7895 0.0000
-0.5789 0.8947 0.0000
-0.5789 1.0000 0.0000
-0.4737 -1.0000 0.0000
-0.4737 -0.8947 0.0000
-0.4737 -0.7895 0.0000
-0.4737 -0.6842 0.0000
-0.4737 -0.5789 0.0000
-0.4737 -0.4737 0.0000
-0.4737 -0.3684 0.0000
-0.4737 -0.2632 0.0000
-0.4737 -0.1579 0.0000
-0.4737 -0.0526 0.0000
-0.4737 0.0526 0.0000
-0.4737 0.1579 0.0000
-0.4737 0.2632 0.0000
-0.4737 0.3684 0.0000
-0.4737 0.4737 0.0000
-0.4737 0.5789 0.0000
-0.4737 0.6842 0.0000
-0.4737 0.7895 0.0000
-0.4737 0.8947 0.0000
-0.4737 1.0000 0.0000
-0.3684 -1.0000 0.0000
-0.3684 -0.8947 0.0000
-0.3684 -0.7895 0.0000
-0.3684 -0.6842 0.0000
-0.3684 -0.5789 0.0000
-0.3684 -0.4737 0.0000
-0.3684 -0.3684 0.0000
-0.3684 -0.2632 0.0000
-0.3684 -0.1579 0.0000
-0.3684 -0.0526 0.0000
-0.3684 0.0526 0.0000
-0.3684 0.1579 0.0000
-0.3684 0.2632 0.0000
-0.3684 0.3684 0.0000
-0.3684 0.4737 0.0000
-0.3684 0.5789 0.0000
-0.3684 0.6842 0.0000
-0.3684 0.7895 0.0000
-0.3684 0.8947 0.0000
-0.3684 1.0000 0.0000
-0.2632 -1.0000 0.0000
-0.2632 -0.8947 0.0000
-0.2632 -0.7895 0.0000
-0.2632 -0.6842 0.0000
-0.2632 -0.5789 0.0000
-0.2632 -0.4737 0.0000
-0.2632 -0.3684 0.0000
-0.2632 -0.2632 0.0000
-0.2632 -0.1579 0.0000
-0.2632 -0.0526 0.0000
-0.2632 0.0526 0.0000
-0.2632 0.1579 0.0000
-0.2632 0.2632 0.0000
-0.2632 0.3684 0.0000
-0.2632 0.4737 0.0000
-0.2632 0.5789 0.0000
-0.2632 0.6842 0.0000
-0.2632 0.7895 0.0000
-0.2632 0.8947 0.0000
-0.2632 1.0000 0.0000
-0.1579 -1.0000 0.0000
-0.1579 -0.8947 0.0000
-0.1579 -0.7895 0.0000
-0.1579 -0.6842 0.0000
-0.1579 -0.5789 0.0000
-0.1579 -0.4737 0.0000
-0.1579 -0.3684 0.0000
-0.1579 -0.2632 0.0000
-0.1579 -0.1579 0.0000
-0.1579 -0.0526 0.0000
-0.1579 0.0526 0.0000
-0.1579 0.1579 0.0000
-0.1579 0.2632 0.0000
-0.1579 0.3684 0.0000
-0.1579 0.4737 0.0000
-0.1579 0.5789 0.0000
-0.1579 0.6842 0.0000
-0.1579 0.7895 0.0000
-0.1579 0.8947 0.0000
-0.1579 1.0000 0.0000
-0.0526 -1.0000 0.0000
-0.0526 -0.8947 0.0000
-0.0526 -0.7895 0.0000
-0.0526 -0.6842 0.0000
-0.0526 -0.5789 0.0000
-0.0526 -0.4737 0.0000
-0.0526 -0.3684 0.0000
-0.0526 -0.2632 0.0000
-0.0526 -0.1579 0.0000
-0.0526 -0.0526 0.0000
-0.0526 0.0526 0.0000
-0.0526 0.1579 0.0000
-0.0526 0.2632 0.0000
-0.0526 0.3684 0.0000
-0.0526 0.4737 0.0000
-0.0526 0.5789 0.0000
-0.0526 0.6842 0.0000
-0.0526 0.7895 0.0000
-0.0526 0.8947 0.0000
-0.0526 1.0000 0.0000
0.0526 -1.0000 0.0000
0.0526 -0.8947 0.0000
0.0526 -0.7895 0.0000
0.0526 -0.6842 0.0000
0.0526 -0.5789 0.0000
0.0526 -0.4737 0.0000
0.0526 -0.3684 0.0000
0.0526 -0.2632 0.0000
0.0526 -0.1579 0.0000
0.0526 -0.0526 0.0000
0.0526 0.0526 0.0000
0.0526 0.1579 0.0000
0.0526 0.2632 0.0000
0.0526 0.3684 0.0000
0.0526 0.4737 0.0000
0.0526 0.5789 0.0000
0.0526 0.6842 0.0000
0.0526 0.7895 0.0000
0.0526 0.8947 0.0000
0.0526 1.0000 0.0000
0.1579 -1.0000 0.0000
0.1579 -0.8947 0.0000
0.1579 -0.7895 0.0000
0.1579 -0.6842 0.0000
0.1579 -0.5789 0.0000
0.1579 -0.4737 0.0000
0.1579 -0.3684 0.0000
0.1579 -0.2632 0.0000
0.1579 -0.1579 0.0000
0.1579 -0.0526 0.0000
0.1579 0.0526 0.0000
0.1579 0.1579 0.0000
0.1579 0.2632 0.0000
0.1579 0.3684 0.0000
0.1579 0.4737 0.0000
0.1579 0.5789 0.0000
0.1579 0.6842 0.0000
0.1579 0.7895 0.0000
0.1579 0.8947 0.0000
0.1579 1.0000 0.0000
0.2632 -1.0000 0.0000
0.2632 -0.8947 0.0000
0.2632 -0.7895 0.0000
0.2632 -0.6842 0.0000
0.2632 -0.5789 0.0000
0.2632 -0.4737 0.0000
0.2632 -0.3684 0.0000
0.2632 -0.2632 0.0000
0.2632 -0.1579 0.0000
0.2632 -0.0526 0.0000
0.2632 0.0526 0.0000
0.2632 0.1579 0.0000
0.2632 0.2632 0.0000
0.2632 0.3684 0.0000
0.2632 0.4737 0.0000
0.2632 0.5789 0.0000
0.2632 0.6842 0.0000
0.2632 0.7895 0.0000
0.2632 0.8947 0.0000
0.2632 1.0000 0.0000
0.3684 -1.0000 0.0000
0.3684 -0.8947 0.0000
0.3684 -0.7895 0.0000
0.3684 -0.6842 0.0000
0.3684 -0.5789 0.0000
0.3684 -0.4737 0.0000
0.3684 -0.3684 0.0000
0.3684 -0.2632 0.0000
0.3684 -0.1579 0.0000
0.3684 -0.0526 0.0000
0.3684 0.0526 0.0000
0.3684 0.1579 0.0000
0.3684 0.2632 0.0000
0.3684 0.3684 0.0000
0.3684 0.4737 0.0000
0.3684 0.5789 0.0000
0.3684 0.6842 0.0000
0.3684 0.7895 0.0000
0.3684 0.8947 0.0000
0.3684 1.0000 0.0000
0.4737 -1.0000 0.0000
0.4737 -0.8947 0.0000
0.4737 -0.7895 0.0000
0.4737 -0.6842 0.0000
0.4737 -0.5789 0.0000
0.4737 -0.4737 0.0000
0.4737 -0.3684 0.0000
0.4737 -0.2632 0.0000
0.4737 -0.1579 0.0000
0.4737 -0.0526 0.0000
0.4737 0.0526 0.0000
0.4737 0.1579 0.0000
0.4737 0.2632 0.0000
0.4737 0.3684 0.0000
0.4737 0.4737 0.0000
0.4737 0.5789 0.0000
0.4737 0.6842 0.0000
0.4737 0.7895 0.0000
0.4737 0.8947 0.0000
0.4737 1.0000 0.0000
0.5789 -1.0000 0.0000
0.5789 -0.8947 0.0000
0.5789 -0.7895 0.0000
0.5789 -0.6842 0.0000
0.5789 -0.5789 0.0000
0.5789 -0.4737 0.0000
0.5789 -0.3684 0.0000
0.5789 -0.2632 0.0000
0.5789 -0.1579 0.0000
0.5789 -0.0526 0.0000
0.5789 0.0526 0.0000
0.5789 0.1579 0.0000
0.5789 0.2632 0.0000
0.5789 0.3684 0.0000
0.5789 0.4737 0.0000
0.5789 0.5789 0.0000
0.5789 0.6842 0.0000
0.5789 0.7895 0.0000
0.5789 0.8947 0.0000
0.5789 1.0000 0.0000
0.6842 -1.0000 0.0000
0.6842 -0.8947 0.0000
0.6842 -0.7895 0.0000
0.6842 -0.6842 0.0000
0.6842 -0.5789 0.0000
0.6842 -0.4737 0.0000
0.6842 -0.3684 0.0000
0.6842 -0.2632 0.0000
0.6842 -0.1579 0.0000
0.6842 -0.0526 0.0000
0.6842 0.0526 0.0000
0.6842 0.1579 0.0000
0.6842 0.2632 0.0000
0.6842 0.3684 0.0000
0.6842 0.4737 0.0000
0.6842 0.5789 0.0000
0.6842 0.6842 0.0000
0.6842 0.7895 0.0000
0.6842 0.8947 0.0000
0.6842 1.0000 0.0000
0.7895 -1.0000 0.0000
0.7895 -0.8947 0.0000
0.7895 -0.7895 0.0000
0.7895 -0.6842 0.0000
0.7895 -0.5789 0.0000
0.7895 -0.4737 0.0000
0.7895 -0.3684 0.0000
0.7895 -0.2632 0.0000
0.7895 -0.1579 0.0000
0.7895 -0.0526 0.0000
0.7895 0.0526 0.0000
0.7895 0.1579 0.0000
0.7895 0.2632 0.0000
0.7895 0.3684 0.0000
0.7895 0.4737 0.0000
0.7895 0.5789 0.0000
0.7895 0.6842 0.0000
0.7895 0.7895 0.0000
0.7895 0.8947 0.0000
0.7895 1.0000 0.0000
0.8947 -1.0000 0.0000
0.8947 -0.8947 0.0000
0.8947 -0.7895 0.0000
0.8947 -0.6842 0.0000
0.8947 -0.5789 0.0000
0.8947 -0.4737 0.0000
0.8947 -0.3684 0.0000
0.8947 -0.2632 0.0000
0.8947 -0.1579 0.0000
0.8947 -0.0526 0.0000
0.8947 0.0526 0.0000
0.8947 0.1579 0.0000
0.8947 0.2632 0.0000
0.8947 0.3684 0.0000
0.8947 0.4737 0.0000
0.8947 0.5789 0.0000
0.8947 0.6842 0.0000
0.8947 0.7895 0.0000
0.8947 0.8947 0.0000
0.8947 1.0000 0.0000
1.0000 -1.0000 0.0000
1.0000 -0.8947 0.0000
1.0000 -0.7895 0.0000
1.0000 -0.6842 0.0000
1.0000 -0.5789 0.0000
1.0000 -0.4737 0.0000
1.0000 -0.3684 0.0000
1.0000 -0.2632 0.0000
1.0000 -0.1579 0.0000
1.0000 -0.0526 0.0000
1.0000 0.0526 0.0000
1.0000 0.1579 0.0000
1.0000 0.2632 0.0000
1.0000 0.3684 0.0000
1.0000 0.4737 0.0000
1.0000 0.5789 0.0000
1.0000 0.6842 0.0000
1.0000 0.7895 0.0000
1.0000 0.8947 0.0000
1.0000 1.0000 0.0000
-0.9474 -0.9474 0.0000
-0.9474 -0.8421 0.0000
-0.9474 -0.7368 0.0000
-0.9474 -0.6316 0.0000
-0.9474 -0.5263 0.0000
-0.9474 -0.4211 0.0000
-0.9474 -0.3158 0.0000
-0.9474 -0.2105 0.0000
-0.9474 -0.1053 0.0000
-0.9474 0.0000 0.0000
-0.9474 0.1053 0.0000
-0.9474 0.2105 0.0000
-0.9474 0.3158 0.0000
-0.9474 0.4211 0.0000
-0.9474 0.5263 0.0000
-0.9474 0.6316 0.0000
-0.9474 0.7368 0.0000
-0.9474 0.8421 0.0000
-0.9474 0.9474 0.0000
-0.8421 -0.9474 0.0000
-0.8421 -0.8421 0.0000
-0.8421 -0.7368 0.0000
-0.8421 -0.6316 0.0000
-0.8421 -0.5263 0.0000
-0.8421 -0.4211 0.0000
-0.8421 -0.3158 0.0000
-0.8421 -0.2105 0.0000
-0.8421 -0.1053 0.0000
-0.8421 0.0000 0.0000
-0.8421 0.1053 0.0000
-0.8421 0.2105 0.0000
-0.8421 0.3158 0.0000
-0.8421 0.4211 0.0000
-0.8421 0.5263 0.0000
-0.8421 0.6316 0.0000
-0.8421 0.7368 0.0000
-0.8421 0.8421 0.0000
-0.8421 0.9474 0.0000
-0.7368 -0.9474 0.0000
-0.7368 -0.8421 0.0000
[...]
         <PointData>
            <DataArray Name="fValues" NumberOfComponents="3" format="ascii" type="Float64">
 2.36102e-19  2.49760e-17        00000 
 5.12316e-19  5.26316e-02        00000 
-9.27146e-19  1.05263e-01        00000 
 1.69439e-19  1.57895e-01        00000 
 2.36001e-18  2.10526e-01        00000 
-8.98686e-19  2.63158e-01        00000 
-2.02286e-18  3.15789e-01        00000 
 1.00604e-18  3.68421e-01        00000 
-8.42860e-20  4.21053e-01        00000 
-1.02031e-18  4.73684e-01        00000 
-2.27572e-18  5.26316e-01        00000 
 1.16489e-19  5.78947e-01        00000 
-6.06859e-18  6.31579e-01        00000 
-1.00264e-18  6.84211e-01        00000 
-2.69715e-18  7.36842e-01        00000 
-8.47194e-19  7.89474e-01        00000 
-1.51715e-18  8.42105e-01        00000 
 1.36050e-18  8.94737e-01        00000 
-2.21023e-18  9.47368e-01        00000 
 5.61651e-19  1.00000e+00        00000 
 3.27274e-19 -1.44001e-17        00000 
-7.30601e-03  4.62847e-02        00000 
-1.05485e-02  9.56956e-02        00000 
-1.20984e-02  1.46404e-01        00000 
-1.24032e-02  1.97676e-01        00000 
-1.17836e-02  2.49064e-01        00000 
-1.06281e-02  3.00194e-01        00000 
-9.52706e-03  3.50805e-01        00000 
-9.21928e-03  4.00882e-01        00000 
-1.02907e-02  4.50755e-01        00000 
-1.28414e-02  5.00939e-01        00000 
-1.64000e-02  5.51884e-01        00000 
-2.00806e-02  6.03714e-01        00000 
-2.29419e-02  6.56137e-01        00000 
-2.43260e-02  7.08552e-01        00000 
-2.40023e-02  7.60293e-01        00000 
-2.20098e-02  8.10828e-01        00000 
-1.83008e-02  8.59714e-01        00000 
-1.23633e-02  9.06131e-01        00000 
-1.82037e-18  9.47368e-01        00000 
 1.90624e-19  1.35131e-17        00000 
-1.24860e-02  4.25319e-02        00000 
-1.96367e-02  8.78696e-02        00000 
-2.31194e-02  1.35295e-01        00000 
-2.39638e-02  1.83993e-01        00000 
-2.27674e-02  2.33414e-01        00000 
-2.02549e-02  2.83081e-01        00000 
-1.76738e-02  3.32556e-01        00000 
-1.67430e-02  3.81728e-01        00000 
-1.89124e-02  4.30832e-01        00000 
-2.43928e-02  4.80377e-01        00000 
-3.20974e-02  5.30632e-01        00000 
-3.99795e-02  5.81585e-01        00000 
-4.58470e-02  6.32696e-01        00000 
-4.82462e-02  6.83031e-01        00000 
-4.68305e-02  7.31609e-01        00000 
-4.19004e-02  7.77691e-01        00000 
-3.35468e-02  8.20737e-01        00000 
-2.05572e-02  8.59945e-01        00000 
-3.49552e-18  8.94737e-01        00000 
-2.19144e-18  6.74288e-19        00000 
-1.67352e-02  3.86759e-02        00000 
-2.71878e-02  7.98462e-02        00000 
-3.27279e-02  1.23150e-01        00000 
-3.43791e-02  1.68252e-01        00000 
-3.29213e-02  2.14916e-01        00000 
-2.92756e-02  2.63045e-01        00000 
-2.50853e-02  3.12442e-01        00000 
-2.34346e-02  3.62662e-01        00000 
-2.69273e-02  4.14002e-01        00000 
-3.54546e-02  4.65564e-01        00000 
-4.75278e-02  5.16773e-01        00000 
-5.96849e-02  5.66906e-01        00000 
-6.84116e-02  6.15559e-01        00000 
-7.11075e-02  6.62050e-01        00000 
-6.75754e-02  7.05349e-01        00000 
-5.88748e-02  7.45036e-01        00000 
-4.55183e-02  7.81019e-01        00000 
-2.66538e-02  8.13340e-01        00000 
 1.90042e-18  8.42105e-01        00000 
 4.23602e-19 -7.62484e-18        00000 
-2.01515e-02  3.42531e-02        00000 
-3.32187e-02  7.04888e-02        00000 
-4.05812e-02  1.08636e-01        00000 
-4.31680e-02  1.48759e-01        00000 
-4.17829e-02  1.91035e-01        00000 
-3.76972e-02  2.36166e-01        00000 
-3.28436e-02  2.85809e-01        00000 
-3.07341e-02  3.41117e-01        00000 
-3.73381e-02  3.99928e-01        00000 
-4.82672e-02  4.61170e-01        00000 
-6.30210e-02  5.16022e-01        00000 
-7.86973e-02  5.64088e-01        00000 
-9.01908e-02  6.07897e-01        00000 
-9.20262e-02  6.47429e-01        00000 
-8.52548e-02  6.82741e-01        00000 
-7.22103e-02  7.14046e-01        00000 
-5.42082e-02  7.41886e-01        00000 
-3.08270e-02  7.66846e-01        00000 
-3.00581e-18  7.89474e-01        00000 
-3.70858e-18  8.42860e-18        00000 
-2.24753e-02  2.91244e-02        00000 
-3.73118e-02  5.94315e-02        00000 
-4.60057e-02  9.10043e-02        00000 
-4.93626e-02  1.24120e-01        00000 
-4.78105e-02  1.59168e-01        00000 
-4.31693e-02  1.96663e-01        00000 
-3.98570e-02  2.40361e-01        00000 
-4.37401e-02  3.02607e-01        00000 
-5.80549e-02  3.91290e-01        00000 
-6.91609e-02  4.78199e-01        00000 
-7.77001e-02  5.40674e-01        00000 
-9.37628e-02  5.83550e-01        00000 
-1.08919e-01  6.12450e-01        00000 
-1.09347e-01  6.39269e-01        00000 
-9.85261e-02  6.63110e-01        00000 
-8.10672e-02  6.84186e-01        00000 
-5.91652e-02  7.03013e-01        00000 
-3.28003e-02  7.20318e-01        00000 
-3.83103e-18  7.36842e-01        00000 
 6.80204e-19 -5.44163e-18        00000 
-2.33590e-02  2.34650e-02        00000 
-3.88787e-02  4.70129e-02        00000 
-4.80430e-02  7.06867e-02        00000 
-5.14449e-02  9.44554e-02        00000 
-4.88065e-02  1.18352e-01        00000 
-3.98952e-02  1.42000e-01        00000 
-4.38343e-02  1.75589e-01        00000 
-5.95424e-02  2.61419e-01        00000 
-7.15525e-02  3.48208e-01        00000 
-8.08762e-02  4.31402e-01        00000 
-9.45213e-02  5.24327e-01        00000 
-9.78743e-02  6.20822e-01        00000 
-1.21286e-01  6.24476e-01        00000 
-1.21140e-01  6.32126e-01        00000 
-1.06345e-01  6.42709e-01        00000 
-8.47613e-02  6.53021e-01        00000 
-6.00316e-02  6.62970e-01        00000 
-3.23844e-02  6.73138e-01        00000 
-6.56006e-18  6.84211e-01        00000 
-1.68572e-18 -6.74288e-19        00000 
-2.25937e-02  1.77399e-02        00000 
-3.75471e-02  3.43582e-02        00000 
-4.60756e-02  4.96974e-02        00000 
-4.81136e-02  6.31153e-02        00000 
-4.23221e-02  7.24771e-02        00000 
-2.41469e-02  7.49267e-02        00000 
-5.04456e-02  1.63249e-01        00000 
-6.87333e-02  2.37146e-01        00000 
-8.12647e-02  3.11262e-01        00000 
-9.32606e-02  3.86688e-01        00000 
-1.05601e-01  4.59721e-01        00000 
-1.08287e-01  5.27787e-01        00000 
-1.34112e-01  6.12888e-01        00000 
-1.29462e-01  6.14290e-01        00000 
-1.08971e-01  6.15199e-01        00000 
-8.33637e-02  6.16750e-01        00000 
-5.70442e-02  6.19682e-01        00000 
-2.97856e-02  6.24465e-01        00000 
-6.00275e-18  6.31579e-01        00000 
-5.50676e-19 -1.27079e-19        00000 
-2.02967e-02  1.25751e-02        00000 
-3.35692e-02  2.30639e-02        00000 
-4.04695e-02  3.12225e-02        00000 
-4.05127e-02  3.61446e-02        00000 
-2.97332e-02  3.61055e-02        00000 
-3.55796e-02  8.93981e-02        00000 
-5.53951e-02  1.48868e-01        00000 
-7.11616e-02  2.12501e-01        00000 
-8.48077e-02  2.76516e-01        00000 
-9.69407e-02  3.40488e-01        00000 
-1.07320e-01  4.03447e-01        00000 
-1.19269e-01  4.67673e-01        00000 
-1.34699e-01  5.24862e-01        00000 
-1.40697e-01  5.75723e-01        00000 
-1.07804e-01  5.74496e-01        00000 
-7.80241e-02  5.71820e-01        00000 
-5.12839e-02  5.71327e-01        00000 
-2.57293e-02  5.73605e-01        00000 
-9.21809e-19  5.78947e-01        00000 
-2.69715e-18  1.09572e-18        00000 
-1.69499e-02  8.50638e-03        00000 
-2.78645e-02  1.44766e-02        00000 
-3.28653e-02  1.78659e-02        00000 
-3.12801e-02  1.83282e-02        00000 
-2.25953e-02  1.71110e-02        00000 
-3.71567e-02  7.40766e-02        00000 
-5.34358e-02  1.30542e-01        00000 
-6.88411e-02  1.85762e-01        00000 
-8.22813e-02  2.41469e-01        00000 
-9.43332e-02  2.97239e-01        00000 
-1.05994e-01  3.53021e-01        00000 
-1.18298e-01  4.08017e-01        00000 
-1.30975e-01  4.62121e-01        00000 
-1.51858e-01  5.19226e-01        00000 
-1.03773e-01  5.19074e-01        00000 
-7.05932e-02  5.17140e-01        00000 
-4.44511e-02  5.17396e-01        00000 
-2.13054e-02  5.20399e-01        00000 
-5.66561e-18  5.26316e-01        00000 
 3.40091e-19 -1.70045e-19        00000 
-1.32294e-02  5.76369e-03        00000 
-2.16723e-02  9.07580e-03        00000 
-2.50919e-02  1.01981e-02        00000 
-2.34087e-02  9.48456e-03        00000 
-1.81234e-02  8.31861e-03        00000 
-3.42963e-02  5.90609e-02        00000 
-4.78636e-02  1.07801e-01        00000 
-6.21066e-02  1.56707e-01        00000 
-7.53158e-02  2.06006e-01        00000 
-8.73867e-02  2.55440e-01        00000 
-9.93043e-02  3.04714e-01        00000 
-1.12662e-01  3.53887e-01        00000 
-1.28047e-01  4.04841e-01        00000 
-1.47069e-01  4.55370e-01        00000 
-9.60461e-02  4.53422e-01        00000 
-6.27899e-02  4.55027e-01        00000 
-3.82430e-02  4.59186e-01        00000 
-1.75718e-02  4.65389e-01        00000 
 1.06246e-18  4.73684e-01        00000 
-6.74288e-19  2.52858e-19        00000 
-9.75874e-03  4.23812e-03        00000 
-1.60222e-02  6.45555e-03        00000 
-1.84095e-02  7.12478e-03        00000 
-1.72973e-02  6.79798e-03        00000 
-1.41316e-02  5.99901e-03        00000 
-2.34269e-02  4.12670e-02        00000 
-3.81913e-02  8.16620e-02        00000 
-5.21316e-02  1.25892e-01        00000 
-6.46791e-02  1.69466e-01        00000 
-7.68479e-02  2.13702e-01        00000 
-8.84031e-02  2.58284e-01        00000 
-1.02095e-01  3.01963e-01        00000 
-1.21761e-01  3.44719e-01        00000 
-1.26685e-01  3.83033e-01        00000 
-8.44906e-02  3.82896e-01        00000 
-5.59346e-02  3.89980e-01        00000 
-3.36893e-02  3.99237e-01        00000 
-1.51609e-02  4.09619e-01        00000 
-4.43095e-18  4.21053e-01        00000 
 2.40921e-19 -2.48863e-19        00000 
-6.93471e-03  3.60647e-03        00000 
-1.14910e-02  5.74717e-03        00000 
-1.32486e-02  6.91476e-03        00000 
-1.25462e-02  7.58084e-03        00000 
-1.04826e-02  8.05941e-03        00000 
-9.46375e-03  8.26240e-03        00000 
-2.77816e-02  5.57401e-02        00000 
-3.78459e-02  9.24236e-02        00000 
-5.11384e-02  1.31520e-01        00000 
-6.31443e-02  1.70891e-01        00000 
-7.47738e-02  2.10884e-01        00000 
-8.58335e-02  2.52989e-01        00000 
-1.17972e-01  3.02738e-01        00000 
-9.77880e-02  3.04617e-01        00000 
-7.35283e-02  3.13862e-01        00000 
-5.04969e-02  3.26605e-01        00000 
-3.09482e-02  3.40216e-01        00000 
-1.40946e-02  3.54197e-01        00000 
 6.73020e-19  3.68421e-01        00000 
-1.30643e-18  2.52858e-19        00000 
-4.89957e-03  3.49262e-03        00000 
-8.23075e-03  6.04849e-03        00000 
-9.58849e-03  8.09220e-03        00000 
-9.20677e-03  1.00770e-02        00000 
-7.89117e-03  1.23822e-02        00000 
-6.85735e-03  1.50376e-02        00000 
-5.89111e-03  1.88321e-02        00000 
-2.31660e-02  5.66761e-02        00000 
-3.51071e-02  9.42486e-02        00000 
-4.46800e-02  1.26752e-01        00000 
-5.80424e-02  1.58660e-01        00000 
-6.05273e-02  1.85759e-01        00000 
-8.77316e-02  2.18655e-01        00000 
-8.02539e-02  2.37124e-01        00000 
-6.42164e-02  2.52638e-01        00000 
-4.63368e-02  2.68106e-01        00000 
-2.93681e-02  2.83930e-01        00000 
-1.39067e-02  2.99893e-01        00000 
-2.74523e-18  3.15789e-01        00000 
 8.50255e-20 -8.50255e-20        00000 
-3.60104e-03  3.56649e-03        00000 
-6.11800e-03  6.62292e-03        00000 
-7.25129e-03  9.51859e-03        00000 
-7.19006e-03  1.26957e-02        00000 
-6.49998e-03  1.65792e-02        00000 
-5.91557e-03  2.15140e-02        00000 
-6.20268e-03  2.79750e-02        00000 
-7.45930e-03  3.87035e-02        00000 
-1.15195e-02  5.39657e-02        00000 
-2.18342e-02  7.92274e-02        00000 
-4.07434e-02  1.15418e-01        00000 
-6.03841e-02  1.48013e-01        00000 
-7.14953e-02  1.69362e-01        00000 
-6.79505e-02  1.85018e-01        00000 
-5.63824e-02  2.00050e-01        00000 
-4.23436e-02  2.15240e-01        00000 
-2.79781e-02  2.30895e-01        00000 
-1.39219e-02  2.46975e-01        00000 
-2.10392e-18  2.63158e-01        00000 
-4.21430e-19  8.42860e-20        00000 
-2.86626e-03  3.57785e-03        00000 
-4.86475e-03  6.92785e-03        00000 
-5.88164e-03  1.03325e-02        00000 
-6.11958e-03  1.42110e-02        00000 
-6.02102e-03  1.90263e-02        00000 
-6.19962e-03  2.52907e-02        00000 
-7.49262e-03  3.36784e-02        00000 
-1.04973e-02  4.47930e-02        00000 
-1.67518e-02  5.97128e-02        00000 
-2.77017e-02  7.87257e-02        00000 
-4.21907e-02  9.83642e-02        00000 
-5.35621e-02  1.16188e-01        00000 
-5.86713e-02  1.30512e-01        00000 
-5.62165e-02  1.42467e-01        00000 
-4.81982e-02  1.54269e-01        00000 
-3.75241e-02  1.66960e-01        00000 
-2.58645e-02  1.80673e-01        00000 
-1.35455e-02  1.95311e-01        00000 
 1.90323e-18  2.10526e-01        00000 
 2.46216e-19  1.95914e-19        00000 
-2.45493e-03  3.35682e-03        00000 
-4.07571e-03  6.59973e-03        00000 
-4.98718e-03  9.96879e-03        00000 
-5.44225e-03  1.38495e-02        00000 
-5.81274e-03  1.86648e-02        00000 
-6.61056e-03  2.48195e-02        00000 
-8.43007e-03  3.26312e-02        00000 
-1.19550e-02  4.23819e-02        00000 
-1.79970e-02  5.39552e-02        00000 
-2.65245e-02  6.63341e-02        00000 
-3.58810e-02  7.80521e-02        00000 
-4.29742e-02  8.80242e-02        00000 
-4.57728e-02  9.65012e-02        00000 
-4.39905e-02  1.04318e-01        00000 
-3.86340e-02  1.12522e-01        00000 
-3.11393e-02  1.21827e-01        00000 
-2.24141e-02  1.32521e-01        00000 
-1.23789e-02  1.44619e-01        00000 
-6.85167e-19  1.57895e-01        00000 
-1.89644e-19 -4.21430e-20        00000 
-2.08826e-03  2.79705e-03        00000 
-3.29696e-03  5.42869e-03        00000 
-4.02047e-03  8.13458e-03        00000 
-4.53908e-03  1.12767e-02        00000 
-5.11658e-03  1.51686e-02        00000 
-6.08124e-03  2.00460e-02        00000 
-7.82157e-03  2.60309e-02        00000 
-1.07442e-02  3.30373e-02        00000 
-1.50872e-02  4.06333e-02        00000 
-2.05469e-02  4.80625e-02        00000 
-2.60446e-02  5.45391e-02        00000 
-3.00929e-02  5.97882e-02        00000 
-3.16675e-02  6.41536e-02        00000 
-3.05997e-02  6.83577e-02        00000 
-2.74076e-02  7.30999e-02        00000 
-2.28056e-02  7.88658e-02        00000 
-1.72126e-02  8.59559e-02        00000 
-1.01639e-02  9.47209e-02        00000 
 1.22894e-18  1.05263e-01        00000 
-1.27851e-19  4.26171e-20        00000 
-1.43942e-03  1.82935e-03        00000 
-2.05036e-03  3.26817e-03        00000 
-2.47821e-03  4.76135e-03        00000 
-2.85846e-03  6.53704e-03        00000 
-3.31985e-03  8.75886e-03        00000 
-4.01021e-03  1.15305e-02        00000 
-5.09425e-03  1.48564e-02        00000 
-6.71339e-03  1.85894e-02        00000 
-8.89701e-03  2.24024e-02        00000 
-1.14407e-02  2.58579e-02        00000 
-1.38767e-02  2.86105e-02        00000 
-1.56347e-02  3.06067e-02        00000 
-1.63202e-02  3.21264e-02        00000 
-1.58635e-02  3.36154e-02        00000 
-1.44603e-02  3.54855e-02        00000 
-1.23925e-02  3.80004e-02        00000 
-9.80591e-03  4.13180e-02        00000 
-6.49943e-03  4.57522e-02        00000 
 1.77543e-19  5.26316e-02        00000 
 2.75417e-19 -5.15636e-20        00000 
-8.18186e-20  1.63637e-19        00000 
 4.01320e-20  3.26000e-20        00000 
-4.79446e-20  1.57079e-19        00000 
 8.12228e-20  1.60898e-19        00000 
 2.89199e-19  4.94223e-19        00000 
-7.63582e-20  3.13232e-19        00000 
-6.88815e-19  1.45590e-18        00000 
 2.03383e-19  8.57542e-19        00000 
-1.45274e-20  2.75891e-19        00000 
 6.56465e-19 -3.66869e-18        00000 
-1.85276e-18  6.34780e-20        00000 
-2.14143e-20 -8.88692e-19        00000 
-2.02133e-18  3.77206e-18        00000 
 1.48148e-19 -3.24510e-18        00000 
-7.15484e-19  2.82591e-18        00000 
 5.76740e-19 -1.80265e-18        00000 
-2.10417e-19  6.55174e-18        00000 
 3.27274e-19 -1.57092e-17        00000 
-7.95204e-19  3.03280e-17        00000 
-2.61986e-03  2.38158e-02        00000 
-4.86621e-03  7.45635e-02        00000 
-5.90213e-03  1.26121e-01        00000 
-6.29537e-03  1.78087e-01        00000 
-6.20208e-03  2.30183e-01        00000 
-5.79061e-03  2.82196e-01        00000 
-5.29143e-03  3.33940e-01        00000 
-5.00594e-03  3.85328e-01        00000 
-5.22225e-03  4.36459e-01        00000 
-6.08900e-03  4.87605e-01        00000 
-7.52108e-03  5.39077e-01        00000 
-9.22045e-03  5.91071e-01        00000 
-1.07817e-02  6.43552e-01        00000 
-1.18441e-02  6.96262e-01        00000 
-1.21934e-02  7.48831e-01        00000 
-1.17651e-02  8.00924e-01        00000 
-1.05458e-02  8.52309e-01        00000 
-8.44279e-03  9.02730e-01        00000 
-4.51508e-03  9.51762e-01        00000 
-5.41710e-03  2.15567e-02        00000 
-1.30035e-02  6.76069e-02        00000 
-1.67611e-02  1.16074e-01        00000 
-1.82179e-02  1.65775e-01        00000 
-1.79754e-02  2.16109e-01        00000 
-1.65414e-02  2.66608e-01        00000 
-1.46629e-02  3.16844e-01        00000 
-1.34039e-02  3.66571e-01        00000 
-1.38876e-02  4.15912e-01        00000 
-1.66891e-02  4.65359e-01        00000 
-2.15193e-02  5.15440e-01        00000 
-2.72489e-02  5.66429e-01        00000 
-3.23763e-02  6.18157e-01        00000 
-3.56003e-02  6.69977e-01        00000 
-3.62465e-02  7.21008e-01        00000 
-3.42424e-02  7.70472e-01        00000 
-2.96695e-02  8.17823e-01        00000 
-2.20931e-02  8.62513e-01        00000 
-9.03584e-03  9.03070e-01        00000 
-7.78730e-03  1.97708e-02        00000 
-1.95324e-02  6.18182e-02        00000 
-2.61832e-02  1.06283e-01        00000 
-2.89971e-02  1.52572e-01        00000 
-2.88526e-02  2.00177e-01        00000 
-2.64970e-02  2.48756e-01        00000 
-2.30822e-02  2.97982e-01        00000 
-2.06032e-02  3.47437e-01        00000 
-2.12248e-02  3.97141e-01        00000 
-2.61696e-02  4.47313e-01        00000 
-3.47489e-02  4.97790e-01        00000 
-4.49249e-02  5.48440e-01        00000 
-5.37879e-02  5.98829e-01        00000 
-5.88836e-02  6.48297e-01        00000 
-5.90998e-02  6.95774e-01        00000 
-5.45946e-02  7.40393e-01        00000 
-4.58430e-02  7.81746e-01        00000 
-3.24299e-02  8.19495e-01        00000 
-1.25561e-02  8.53294e-01        00000 
-9.77455e-03  1.78052e-02        00000 
-2.49401e-02  5.54892e-02        00000 
-3.40734e-02  9.53023e-02        00000 
-3.83365e-02  1.37082e-01        00000 
-3.86113e-02  1.80731e-01        00000 
-3.57939e-02  2.26345e-01        00000 
-3.11947e-02  2.74448e-01        00000 
-2.73884e-02  3.25565e-01        00000 
-2.86747e-02  3.79038e-01        00000 
-3.57868e-02  4.34866e-01        00000 
-4.81122e-02  4.89547e-01        00000 
-6.24910e-02  5.40507e-01        00000 
-7.48518e-02  5.88267e-01        00000 
-8.13038e-02  6.33341e-01        00000 
-7.99893e-02  6.74797e-01        00000 
-7.20267e-02  7.12336e-01        00000 
-5.87206e-02  7.46078e-01        00000 
-4.02221e-02  7.76337e-01        00000 
-1.51373e-02  8.03463e-01        00000 
-1.12978e-02  1.55539e-02        00000 
-2.90304e-02  4.81033e-02        00000 
-4.01011e-02  8.22237e-02        00000 
-4.56553e-02  1.18034e-01        00000 
-4.64345e-02  1.55792e-01        00000 
-4.35695e-02  1.95828e-01        00000 
-3.91349e-02  2.39557e-01        00000 
-3.59265e-02  2.91725e-01        00000 
-3.93357e-02  3.58969e-01        00000 
-5.02997e-02  4.30266e-01        00000 
-6.36738e-02  4.99537e-01        00000 
-7.89441e-02  5.51035e-01        00000 
-9.47561e-02  5.91538e-01        00000 
-1.01710e-01  6.26937e-01        00000 
-9.77225e-02  6.58644e-01        00000 
-8.55431e-02  6.86573e-01        00000 
-6.77894e-02  7.11270e-01        00000 
-4.52069e-02  7.33389e-01        00000 
-1.66698e-02  7.53617e-01        00000 
-1.21660e-02  1.30369e-02        00000 
-3.13511e-02  3.96730e-02        00000 