<?xml version="1.0" encoding="utf-8"?>
<VTKFile byte_order="LittleEndian" type="UnstructuredGrid" version="0.1">
   <UnstructuredGrid>
      <Piece NumberOfCells="7944" NumberOfPoints="4296">
         <Points>
            <DataArray Name="Points" NumberOfComponents="3" format="ascii" type="Float32">
-1.0000 -0.9592 0.0000
-1.0000 -0.9184 0.0000
-1.0000 -0.8776 0.0000
-1.0000 -0.8367 0.0000
-1.0000 -0.7959 0.0000
-1.0000 -0.7551 0.0000
-1.0000 -0.7143 0.0000
-1.0000 -0.6735 0.0000
-1.0000 -0.6327 0.0000
-1.0000 -0.5918 0.0000
-1.0000 -0.5510 0.0000
-1.0000 -0.5102 0.0000
-1.0000 -0.4694 0.0000
-1.0000 -0.4286 0.0000
-1.0000 -0.3878 0.0000
-1.0000 -0.3469 0.0000
-1.0000 -0.3061 0.0000
-1.0000 -0.2653 0.0000
-1.0000 -0.2245 0.0000
-1.0000 -0.1837 0.0000
-1.0000 -0.1429 0.0000
-1.0000 -0.1020 0.0000
-1.0000 -0.0612 0.0000
-1.0000 -0.0204 0.0000
-1.0000 0.0204 0.0000
-1.0000 0.0612 0.0000
-1.0000 0.1020 0.0000
-1.0000 0.1429 0.0000
-1.0000 0.1837 0.0000
-1.0000 0.2245 0.0000
-1.0000 0.2653 0.0000
-1.0000 0.3061 0.0000
-1.0000 0.3469 0.0000
-1.0000 0.3878 0.0000
-1.0000 0.4286 0.0000
-1.0000 0.4694 0.0000
-1.0000 0.5102 0.0000
-1.0000 0.5510 0.0000
-1.0000 0.5918 0.0000
-1.0000 0.6327 0.0000
-1.0000 0.6735 0.0000
-1.0000 0.7143 0.0000
-1.0000 0.7551 0.0000
-1.0000 0.7959 0.0000
-1.0000 0.8367 0.0000
-1.0000 0.8776 0.0000
-1.0000 0.9184 0.0000
-1.0000 0.9592 0.0000
-1.0000 1.0000 0.0000
-0.9592 -0.9592 0.0000
-0.9592 -0.9184 0.0000
-0.9592 -0.8776 0.0000
-0.9592 -0.8367 0.0000
-0.9592 -0.7959 0.0000
-0.9592 -0.7551 0.0000
-0.9592 -0.7143 0.0000
-0.9592 -0.6735 0.0000
-0.9592 -0.6327 0.0000
-0.9592 -0.5918 0.0000
-0.9592 -0.5510 0.0000
-0.9592 -0.5102 0.0000
-0.9592 -0.4694 0.0000
-0.9592 -0.4286 0.0000
-0.9592 -0.3878 0.0000
-0.9592 -0.3469 0.0000
-0.9592 -0.3061 0.0000
-0.9592 -0.2653 0.0000
-0.9592 -0.2245 0.0000
-0.9592 -0.1837 0.0000
-0.9592 -0.1429 0.0000
-0.9592 -0.1020 0.0000
-0.9592 -0.0612 0.0000
-0.9592 -0.0204 0.0000
-0.9592 0.0204 0.0000
-0.9592 0.0612 0.0000
-0.9592 0.1020 0.0000
-0.9592 0.1429 0.0000
-0.9592 0.1837 0.0000
-0.9592 0.2245 0.0000
-0.9592 0.2653 0.0000
-0.9592 0.3061 0.0000
-0.9592 0.3469 0.0000
-0.9592 0.3878 0.0000
-0.9592 0.4286 0.0000
-0.9592 0.4694 0.0000
-0.9592 0.5102 0.0000
-0.9592 0.5510 0.0000
-0.9592 0.5918 0.0000
-0.9592 0.6327 0.0000
-0.9592 0.6735 0.0000
-0.9592 0.7143 0.0000
-0.9592 0.7551 0.0000
-0.9592 0.7959 0.0000
-0.9592 0.8367 0.0000
-0.9592 0.8776 0.0000
-0.9592 0.9184 0.0000
-0.9592 0.9592 0.0000
-0.9592 1.0000 0.0000
-0.9184 -0.9592 0.0000
-0.9184 -0.9184 0.0000
-0.9184 -0.8776 0.0000
-0.9184 -0.8367 0.0000
-0.9184 -0.7959 0.0000
-0.9184 -0.7551 0.0000
-0.9184 -0.7143 0.0000
-0.9184 -0.6735 0.0000
-0.9184 -0.6327 0.0000
-0.9184 -0.5918 0.0000
-0.9184 -0.5510 0.0000
-0.9184 -0.5102 0.0000
-0.9184 -0.4694 0.0000
-0.9184 -0.4286 0.0000
-0.9184 -0.3878 0.0000
-0.9184 -0.3469 0.0000
-0.9184 -0.3061 0.0000
-0.9184 -0.2653 0.0000
-0.9184 -0.2245 0.0000
-0.9184 -0.1837 0.0000
-0.9184 -0.1429 0.0000
-0.9184 -0.1020 0.0000
-0.9184 -0.0612 0.0000
-0.9184 -0.0204 0.0000
-0.9184 0.0204 0.0000
-0.9184 0.0612 0.0000
-0.9184 0.1020 0.0000
-0.9184 0.1429 0.0000
-0.9184 0.1837 0.0000
-0.9184 0.2245 0.0000
-0.9184 0.2653 0.0000
-0.9184 0.3061 0.0000
-0.9184 0.3469 0.0000
-0.9184 0.3878 0.0000
-0.9184 0.4286 0.0000
-0.9184 0.4694 0.0000
-0.9184 0.5102 0.0000
-0.9184 0.5510 0.0000
-0.9184 0.5918 0.0000
-0.9184 0.6327 0.0000
-0.9184 0.6735 0.0000
-0.9184 0.7143 0.0000
-0.9184 0.7551 0.0000
-0.9184 0.7959 0.0000
-0.9184 0.8367 0.0000
-0.9184 0.8776 0.0000
-0.9184 0.9184 0.0000
-0.9184 0.9592 0.0000
-0.9184 1.0000 0.0000
-0.8776 -0.9592 0.0000
-0.8776 -0.9184 0.0000
-0.8776 -0.8776 0.0000
-0.8776 -0.8367 0.0000
-0.8776 -0.7959 0.0000
-0.8776 -0.7551 0.0000
-0.8776 -0.7143 0.0000
-0.8776 -0.6735 0.0000
-0.8776 -0.6327 0.0000
-0.8776 -0.5918 0.0000
-0.8776 -0.5510 0.0000
-0.8776 -0.5102 0.0000
-0.8776 -0.4694 0.0000
-0.8776 -0.4286 0.0000
-0.8776 -0.3878 0.0000
-0.8776 -0.3469 0.0000
-0.8776 -0.3061 0.0000
-0.8776 -0.2653 0.0000
-0.8776 -0.2245 0.0000
-0.8776 -0.1837 0.0000
-0.8776 -0.1429 0.0000
-0.8776 -0.1020 0.0000
-0.8776 -0.0612 0.0000
-0.8776 -0.0204 0.0000
-0.8776 0.0204 0.0000
-0.8776 0.0612 0.0000
-0.8776 0.1020 0.0000
-0.8776 0.1429 0.0000
-0.8776 0.1837 0.0000
-0.8776 0.2245 0.0000
-0.8776 0.2653 0.0000
-0.8776 0.3061 0.0000
-0.8776 0.3469 0.0000
-0.8776 0.3878 0.0000
-0.8776 0.4286 0.0000
-0.8776 0.4694 0.0000
-0.8776 0.5102 0.0000
-0.8776 0.5510 0.0000
-0.8776 0.5918 0.0000
-0.8776 0.6327 0.0000
-0.8776 0.6735 0.0000
-0.8776 0.7143 0.0000
-0.8776 0.7551 0.0000
-0.8776 0.7959 0.0000
-0.8776 0.8367 0.0000
-0.8776 0.8776 0.0000
-0.8776 0.9184 0.0000
-0.8776 0.9592 0.0000
-0.8776 1.0000 0.0000
-0.8367 -0.9592 0.0000
-0.8367 -0.9184 0.0000
-0.8367 -0.8776 0.0000
-0.8367 -0.8367 0.0000
-0.8367 -0.7959 0.0000
-0.8367 -0.7551 0.0000
-0.8367 -0.7143 0.0000
-0.8367 -0.6735 0.0000
-0.8367 -0.6327 0.0000
-0.8367 -0.5918 0.0000
-0.8367 -0.5510 0.0000
-0.8367 -0.5102 0.0000
-0.8367 -0.4694 0.0000
-0.8367 -0.4286 0.0000
-0.8367 -0.3878 0.0000
-0.8367 -0.3469 0.0000
-0.8367 -0.3061 0.0000
-0.8367 -0.2653 0.0000
-0.8367 -0.2245 0.0000
-0.8367 -0.1837 0.0000
-0.8367 -0.1429 0.0000
-0.8367 -0.1020 0.0000
-0.8367 -0.0612 0.0000
-0.8367 -0.0204 0.0000
-0.8367 0.0204 0.0000
-0.8367 0.0612 0.0000
-0.8367 0.1020 0.0000
-0.8367 0.1429 0.0000
-0.8367 0.1837 0.0000
-0.8367 0.2245 0.0000
-0.8367 0.2653 0.0000
-0.8367 0.3061 0.0000
-0.8367 0.3469 0.0000
-0.8367 0.3878 0.0000
-0.8367 0.4286 0.0000
-0.8367 0.4694 0.0000
-0.8367 0.5102 0.0000
-0.8367 0.5510 0.0000
-0.8367 0.5918 0.0000
-0.8367 0.6327 0.0000
-0.8367 0.6735 0.0000
-0.8367 0.7143 0.0000
-0.8367 0.7551 0.0000
-0.8367 0.7959 0.0000
-0.8367 0.8367 0.0000
-0.8367 0.8776 0.0000
-0.8367 0.9184 0.0000
-0.8367 0.9592 0.0000
-0.8367 1.0000 0.0000
-0.7959 -0.9592 0.0000
-0.7959 -0.9184 0.0000
-0.7959 -0.8776 0.0000
-0.7959 -0.8367 0.0000
-0.7959 -0.7959 0.0000
-0.7959 -0.7551 0.0000
-0.7959 -0.7143 0.0000
-0.7959 -0.6735 0.0000
-0.7959 -0.6327 0.0000
-0.7959 -0.5918 0.0000
-0.7959 -0.5510 0.0000
-0.7959 -0.5102 0.0000
-0.7959 -0.4694 0.0000
-0.7959 -0.4286 0.0000
-0.7959 -0.3878 0.0000
-0.7959 -0.3469 0.0000
-0.7959 -0.3061 0.0000
-0.7959 -0.2653 0.0000
-0.7959 -0.2245 0.0000
-0.7959 -0.1837 0.0000
-0.7959 -0.1429 0.0000
-0.7959 -0.1020 0.0000
-0.7959 -0.0612 0.0000
-0.7959 -0.0204 0.0000
-0.7959 0.0204 0.0000
-0.7959 0.0612 0.0000
-0.7959 0.1020 0.0000
-0.7959 0.1429 0.0000
-0.7959 0.1837 0.0000
-0.7959 0.2245 0.0000
-0.7959 0.2653 0.0000
-0.7959 0.3061 0.0000
-0.7959 0.3469 0.0000
-0.7959 0.3878 0.0000
-0.7959 0.4286 0.0000
-0.7959 0.4694 0.0000
-0.7959 0.5102 0.0000
-0.7959 0.5510 0.0000
-0.7959 0.5918 0.0000
-0.7959 0.6327 0.0000
-0.7959 0.6735 0.0000
-0.7959 0.7143 0.0000
-0.7959 0.7551 0.0000
-0.7959 0.7959 0.0000
-0.7959 0.8367 0.0000
-0.7959 0.8776 0.0000
-0.7959 0.9184 0.0000
-0.7959 0.9592 0.0000
-0.7959 1.0000 0.0000
-0.7551 -0.9592 0.0000
-0.7551 -0.9184 0.0000
-0.7551 -0.8776 0.0000
-0.7551 -0.8367 0.0000
-0.7551 -0.7959 0.0000
-0.7551 -0.7551 0.0000
-0.7551 -0.7143 0.0000
-0.7551 -0.6735 0.0000
-0.7551 -0.6327 0.0000
-0.7551 -0.5918 0.0000
-0.7551 -0.5510 0.0000
-0.7551 -0.5102 0.0000
-0.7551 -0.4694 0.0000
-0.7551 -0.4286 0.0000
-0.7551 -0.3878 0.0000
-0.7551 -0.3469 0.0000
-0.7551 -0.3061 0.0000
-0.7551 -0.2653 0.0000
-0.7551 -0.2245 0.0000
-0.7551 -0.1837 0.0000
-0.7551 -0.1429 0.0000
-0.7551 -0.1020 0.0000
-0.7551 -0.0612 0.0000
-0.7551 -0.0204 0.0000
-0.7551 0.0204 0.0000
-0.7551 0.0612 0.0000
-0.7551 0.1020 0.0000
-0.7551 0.1429 0.0000
-0.7551 0.1837 0.0000
-0.7551 0.2245 0.0000
-0.7551 0.2653 0.0000
-0.7551 0.3061 0.0000
-0.7551 0.3469 0.0000
-0.7551 0.3878 0.0000
-0.7551 0.4286 0.0000
-0.7551 0.4694 0.0000
-0.7551 0.5102 0.0000
-0.7551 0.5510 0.0000
-0.7551 0.5918 0.0000
-0.7551 0.6327 0.0000
-0.7551 0.6735 0.0000
-0.7551 0.7143 0.0000
-0.7551 0.7551 0.0000
-0.7551 0.7959 0.0000
-0.7551 0.8367 0.0000
-0.7551 0.8776 0.0000
-0.7551 0.9184 0.0000
-0.7551 0.9592 0.0000
-0.7551 1.0000 0.0000
-0.7143 -0.9592 0.0000
-0.7143 -0.9184 0.0000
-0.7143 -0.8776 0.0000
-0.7143 -0.8367 0.0000
-0.7143 -0.7959 0.0000
-0.7143 -0.7551 0.0000
-0.7143 -0.7143 0.0000
-0.7143 -0.6735 0.0000
-0.7143 -0.6327 0.0000
-0.7143 -0.5918 0.0000
-0.7143 -0.5510 0.0000
-0.7143 -0.5102 0.0000
-0.7143 -0.4694 0.0000
-0.7143 -0.4286 0.0000
-0.7143 -0.3878 0.0000
-0.7143 -0.3469 0.0000
-0.7143 -0.3061 0.0000
-0.7143 -0.2653 0.0000
-0.7143 -0.2245 0.0000
-0.7143 -0.1837 0.0000
-0.7143 -0.1429 0.0000
-0.7143 -0.1020 0.0000
-0.7143 -0.0612 0.0000
-0.7143 -0.0204 0.0000
-0.7143 0.0204 0.0000
-0.7143 0.0612 0.0000
-0.7143 0.1020 0.0000
-0.7143 0.1429 0.0000
-0.7143 0.1837 0.0000
-0.7143 0.2245 0.0000
-0.7143 0.2653 0.0000
-0.7143 0.3061 0.0000
-0.7143 0.3469 0.0000
-0.7143 0.3878 0.0000
-0.7143 0.4286 0.0000
-0.7143 0.4694 0.0000
-0.7143 0.5102 0.0000
-0.7143 0.5510 0.0000
-0.7143 0.5918 0.0000
-0.7143 0.6327 0.0000
-0.7143 0.6735 0.0000
-0.7143 0.7143 0.0000
-0.7143 0.7551 0.0000
-0.7143 0.7959 0.0000
-0.7143 0.8367 0.0000
-0.7143 0.8776 0.0000
-0.7143 0.9184 0.0000
-0.7143 0.9592 0.0000
-0.7143 1.0000 0.0000
-0.6735 -0.9592 0.0000
-0.6735 -0.9184 0.0000
-0.6735 -0.8776 0.0000
-0.6735 -0.8367 0.0000
-0.6735 -0.7959 0.0000
-0.6735 -0.7551 0.0000
-0.6735 -0.7143 0.0000
-0.6735 -0.6735 0.0000
-0.6735 -0.6327 0.0000
-0.6735 -0.5918 0.0000
-0.6735 -0.5510 0.0000
-0.6735 -0.5102 0.0000
-0.6735 -0.4694 0.0000
-0.6735 -0.4286 0.0000
-0.6735 -0.3878 0.0000
-0.6735 -0.3469 0.0000
-0.6735 -0.3061 0.0000
-0.6735 -0.2653 0.0000
-0.6735 -0.2245 0.0000
-0.6735 -0.1837 0.0000
-0.6735 -0.1429 0.0000
-0.6735 -0.1020 0.0000
-0.6735 -0.0612 0.0000
-0.6735 -0.0204 0.0000
-0.6735 0.0204 0.0000
-0.6735 0.0612 0.0000
-0.6735 0.1020 0.0000
-0.6735 0.1429 0.0000
-0.6735 0.1837 0.0000
-0.6735 0.2245 0.0000
-0.6735 0.2653 0.0000
-0.6735 0.3061 0.0000
-0.6735 0.3469 0.0000
-0.6735 0.3878 0.0000
-0.6735 0.4286 0.0000
-0.6735 0.4694 0.0000
-0.6735 0.5102 0.0000
-0.6735 0.5510 0.0000
-0.6735 0.5918 0.0000
[...]
         <PointData>
            <DataArray Name="fValues" NumberOfComponents="3" format="ascii" type="Float64">
 6.86223e-03  1.98610e-03        00000 
 8.38528e-03  1.38330e-03        00000 
 8.73235e-03  1.09070e-03        00000 
 7.50223e-03  1.40186e-03        00000 
 7.61761e-03  1.45673e-04        00000 
 6.02672e-03 -2.56863e-04        00000 
 3.89723e-03 -1.56567e-04        00000 
 2.12025e-03 -9.59651e-05        00000 
 2.23344e-03 -1.25219e-03        00000 
 3.19005e-03 -2.93053e-03        00000 
 3.58223e-03 -4.17248e-03        00000 
 3.77311e-03 -5.32658e-03        00000 
 4.12917e-03 -5.28619e-03        00000 
 3.16638e-03 -5.09553e-03        00000 
 2.87646e-03 -5.68662e-03        00000 
 1.88786e-03 -6.63235e-03        00000 
 4.91445e-04 -6.47191e-03        00000 
-1.39333e-03 -5.30213e-03        00000 
-1.23390e-03 -4.56276e-03        00000 
 1.03397e-03 -4.73204e-03        00000 
 2.22348e-03 -3.93482e-03        00000 
 2.89333e-03 -3.06113e-03        00000 
 3.78358e-03 -2.62471e-03        00000 
 4.29656e-03 -2.23300e-03        00000 
 4.55154e-03 -1.86091e-03        00000 
 4.89623e-03 -1.27574e-03        00000 
 4.10439e-03 -7.87455e-04        00000 
 3.31770e-03 -7.56181e-04        00000 
 2.48377e-03 -8.37386e-04        00000 
 1.25741e-03 -9.83103e-04        00000 
 5.21808e-05 -1.20686e-03        00000 
-1.13648e-03 -1.25653e-03        00000 
-9.12436e-04  8.48566e-05        00000 
 8.83458e-05  1.69275e-03        00000 
-5.29635e-04  2.82030e-03        00000 
-1.43919e-03  2.45579e-03        00000 
-2.15193e-03  1.97871e-03        00000 
-2.65638e-03  1.32901e-03        00000 
-2.18957e-03  9.07627e-04        00000 
-9.97499e-04  1.98544e-03        00000 
-4.25312e-04  3.13025e-03        00000 
-2.53557e-04  1.73071e-03        00000 
 3.62447e-04  3.10420e-04        00000 
 1.23134e-03  9.63142e-04        00000 
 1.58305e-03  1.19444e-03        00000 
 1.07234e-03  4.16449e-04        00000 
-5.44638e-04  4.35656e-04        00000 
-3.64567e-04  2.42525e-03        00000 
 1.93671e-03  5.76967e-03        00000 
 1.93248e-02 -6.51649e-04        00000 
 1.89725e-02 -2.64552e-03        00000 
 1.91974e-02 -4.65118e-03        00000 
 1.83886e-02 -5.79197e-03        00000 
 1.79426e-02 -5.90543e-03        00000 
 1.64444e-02 -6.26697e-03        00000 
 1.50331e-02 -6.67896e-03        00000 
 1.30844e-02 -6.57271e-03        00000 
 1.19394e-02 -6.92815e-03        00000 
 1.26777e-02 -8.62187e-03        00000 
 1.30169e-02 -9.97330e-03        00000 
 1.34907e-02 -1.13456e-02        00000 
 1.33302e-02 -1.18196e-02        00000 
 1.26042e-02 -1.26334e-02        00000 
 1.19351e-02 -1.34731e-02        00000 
 1.19009e-02 -1.36164e-02        00000 
 1.07412e-02 -1.27518e-02        00000 
 8.65180e-03 -1.11954e-02        00000 
 6.96225e-03 -1.03538e-02        00000 
 6.66377e-03 -1.07895e-02        00000 
 6.14572e-03 -1.09661e-02        00000 
 5.75304e-03 -9.88408e-03        00000 
 5.61357e-03 -8.44797e-03        00000 
 5.89972e-03 -7.27887e-03        00000 
 6.48274e-03 -6.14836e-03        00000 
 7.15610e-03 -5.81986e-03        00000 
 6.98008e-03 -5.67594e-03        00000 
 5.86795e-03 -5.72528e-03        00000 
 4.90266e-03 -6.11494e-03        00000 
 3.97710e-03 -6.46908e-03        00000 
 3.46267e-03 -5.86636e-03        00000 
 3.70732e-03 -5.09544e-03        00000 
 4.11662e-03 -3.54384e-03        00000 
 4.80385e-03 -1.46016e-03        00000 
 2.92895e-03  4.27900e-04        00000 
 1.71174e-03 -2.10235e-04        00000 
 1.56012e-03 -2.51617e-04        00000 
 1.19581e-03 -7.53582e-04        00000 
 8.23868e-04 -1.22685e-03        00000 
 6.54522e-04 -5.41213e-04        00000 
 1.32998e-03 -1.68625e-04        00000 
 1.92724e-03 -4.31388e-04        00000 
 2.63269e-03 -7.33896e-04        00000 
 3.62519e-03 -2.29773e-04        00000 
 3.73013e-03 -7.86074e-04        00000 
 2.31417e-03 -1.84179e-03        00000 
 8.53319e-04 -2.47199e-03        00000 
 1.03943e-03 -6.34758e-04        00000 
 1.99368e-03  2.22031e-03        00000 
 3.73793e-02 -3.48204e-03        00000 
 3.61977e-02 -5.71343e-03        00000 
 3.53829e-02 -7.75053e-03        00000 
 3.25099e-02 -9.07357e-03        00000 
 3.05405e-02 -1.05518e-02        00000 
 2.99672e-02 -1.14494e-02        00000 
 2.77276e-02 -1.15322e-02        00000 
 2.55147e-02 -1.17100e-02        00000 
 2.35192e-02 -1.26969e-02        00000 
 2.23737e-02 -1.37860e-02        00000 
 2.24596e-02 -1.50971e-02        00000 
 2.27056e-02 -1.71607e-02        00000 
 2.26469e-02 -1.91800e-02        00000 
 2.20264e-02 -2.05541e-02        00000 
 2.12802e-02 -2.12643e-02        00000 
 2.07623e-02 -2.15756e-02        00000 
 1.98258e-02 -2.08638e-02        00000 
 1.85067e-02 -1.99199e-02        00000 
 1.66583e-02 -1.84150e-02        00000 
 1.46175e-02 -1.67507e-02        00000 
 1.24647e-02 -1.51849e-02        00000 
 1.16218e-02 -1.49125e-02        00000 
 1.06964e-02 -1.45116e-02        00000 
 9.81511e-03 -1.38655e-02        00000 
 9.52754e-03 -1.23018e-02        00000 
 9.69521e-03 -1.03176e-02        00000 
 9.87961e-03 -8.64866e-03        00000 
 8.78531e-03 -8.03965e-03        00000 
 7.93335e-03 -8.14128e-03        00000 
 7.70610e-03 -8.06425e-03        00000 
 7.55001e-03 -7.91260e-03        00000 
 7.66323e-03 -6.64301e-03        00000 
 7.88870e-03 -4.58814e-03        00000 
 7.17701e-03 -2.95522e-03        00000 
 5.20847e-03 -1.71057e-03        00000 
 4.02031e-03 -1.68270e-03        00000 
 3.39421e-03 -1.68202e-03        00000 
 2.88019e-03 -1.95870e-03        00000 
 2.57203e-03 -2.32822e-03        00000 
 2.38419e-03 -3.68961e-03        00000 
 2.70420e-03 -3.34356e-03        00000 
 2.83529e-03 -2.53207e-03        00000 
 3.78813e-03 -2.36310e-03        00000 
 4.63505e-03 -1.97159e-03        00000 
 4.56141e-03 -2.60662e-03        00000 
 3.47560e-03 -3.67760e-03        00000 
 5.68514e-03 -2.91584e-03        00000 
 4.27520e-03 -4.86883e-04        00000 
 1.32626e-03  1.79244e-03        00000 
 5.70018e-02 -6.32305e-03        00000 
 5.44877e-02 -9.38772e-03        00000 
 5.34427e-02 -1.13935e-02        00000 
 5.03572e-02 -1.26259e-02        00000 
 4.82565e-02 -1.37868e-02        00000 
 4.52837e-02 -1.49017e-02        00000 
 4.18306e-02 -1.55797e-02        00000 
 3.87467e-02 -1.62003e-02        00000 
 3.62682e-02 -1.70742e-02        00000 
 3.44845e-02 -1.86391e-02        00000 
 3.31044e-02 -2.09768e-02        00000 
 3.19170e-02 -2.32646e-02        00000 
 3.11899e-02 -2.54937e-02        00000 
 2.95643e-02 -2.65667e-02        00000 
 2.90626e-02 -2.73923e-02        00000 
 2.84936e-02 -2.78462e-02        00000 
 2.70736e-02 -2.75289e-02        00000 
 2.59230e-02 -2.75557e-02        00000 
 2.41428e-02 -2.67340e-02        00000 
 2.20520e-02 -2.51876e-02        00000 
 1.85146e-02 -2.26582e-02        00000 
 1.64101e-02 -2.04606e-02        00000 
 1.60305e-02 -1.96169e-02        00000 
 1.58406e-02 -1.88838e-02        00000 
 1.52316e-02 -1.79962e-02        00000 
 1.47555e-02 -1.67547e-02        00000 
 1.42548e-02 -1.46504e-02        00000 
 1.30279e-02 -1.21323e-02        00000 
 1.11772e-02 -9.67821e-03        00000 
 1.00133e-02 -7.95542e-03        00000 
 9.84081e-03 -7.51203e-03        00000 
 9.89118e-03 -6.51644e-03        00000 
 9.75272e-03 -5.19804e-03        00000 
 8.29164e-03 -3.22012e-03        00000 
 7.38880e-03 -2.47284e-03        00000 
 6.06853e-03 -2.68083e-03        00000 
 4.85687e-03 -2.71048e-03        00000 
 4.52451e-03 -3.42908e-03        00000 
 4.23484e-03 -4.78023e-03        00000 
 3.77337e-03 -6.11098e-03        00000 
 3.63509e-03 -5.58620e-03        00000 
 3.85964e-03 -4.26636e-03        00000 
 4.89046e-03 -3.45419e-03        00000 
 5.32767e-03 -4.17878e-03        00000 
 6.12771e-03 -5.16496e-03        00000 
 5.94721e-03 -4.12665e-03        00000 
 4.66831e-03 -2.57060e-03        00000 
 2.41049e-03 -7.53121e-04        00000 
 3.85978e-04  1.18194e-03        00000 
 7.68107e-02 -7.68349e-03        00000 
 7.27103e-02 -1.10613e-02        00000 
 7.03584e-02 -1.36591e-02        00000 
 6.79016e-02 -1.52755e-02        00000 
 6.57918e-02 -1.67545e-02        00000 
 6.29048e-02 -1.81641e-02        00000 
 5.79819e-02 -1.93311e-02        00000 
 5.27607e-02 -2.10038e-02        00000 
 4.81529e-02 -2.24011e-02        00000 
 4.63336e-02 -2.45292e-02        00000 
 4.55575e-02 -2.70442e-02        00000 
 4.40045e-02 -2.93035e-02        00000 
 4.21581e-02 -3.14062e-02        00000 
 3.87367e-02 -3.31762e-02        00000 
 3.59266e-02 -3.31866e-02        00000 
 3.42892e-02 -3.23949e-02        00000 
 3.30580e-02 -3.23981e-02        00000 
 3.10709e-02 -3.23183e-02        00000 
 2.96845e-02 -3.23844e-02        00000 
 2.81856e-02 -3.17135e-02        00000 
 2.48032e-02 -2.96944e-02        00000 
 2.18340e-02 -2.75211e-02        00000 
 1.98498e-02 -2.31400e-02        00000 
 1.98059e-02 -2.19617e-02        00000 
 1.97376e-02 -2.12453e-02        00000 
 1.94714e-02 -2.02627e-02        00000 
 1.87660e-02 -1.87730e-02        00000 
 1.78431e-02 -1.65746e-02        00000 
 1.63314e-02 -1.41914e-02        00000 
 1.45885e-02 -1.15426e-02        00000 
 1.26778e-02 -8.56108e-03        00000 
 1.08924e-02 -6.19498e-03        00000 
 1.03933e-02 -4.57169e-03        00000 
 9.90986e-03 -3.43718e-03        00000 
 9.35365e-03 -2.90859e-03        00000 
 8.05399e-03 -2.99929e-03        00000 
 6.64422e-03 -3.58699e-03        00000 
 6.20391e-03 -5.16804e-03        00000 
 5.46943e-03 -6.65438e-03        00000 
 4.92609e-03 -6.94770e-03        00000 
 4.54157e-03 -7.03608e-03        00000 
 5.23631e-03 -5.88547e-03        00000 
 4.64670e-03 -5.73710e-03        00000 
 4.23326e-03 -5.55082e-03        00000 
 5.44754e-03 -5.24883e-03        00000 
 4.77449e-03 -4.57145e-03        00000 
 3.51620e-03 -3.30140e-03        00000 
 1.38579e-03 -1.61033e-03        00000 
-1.20698e-03  6.51876e-04        00000 
 9.87752e-02 -8.63367e-03        00000 
 9.16846e-02 -1.15632e-02        00000 
 8.79164e-02 -1.42750e-02        00000 
 8.54112e-02 -1.64519e-02        00000 
 8.28189e-02 -1.81768e-02        00000 
 7.94032e-02 -2.00296e-02        00000 
 7.32583e-02 -2.26191e-02        00000 
 6.86130e-02 -2.53593e-02        00000 
 6.41469e-02 -2.76923e-02        00000 
 6.06793e-02 -3.01157e-02        00000 
 5.72776e-02 -3.22883e-02        00000 
 5.56076e-02 -3.45342e-02        00000 
 5.40815e-02 -3.67363e-02        00000 
 5.02930e-02 -3.89493e-02        00000 
 4.53406e-02 -4.03649e-02        00000 
 4.05421e-02 -3.83946e-02        00000 
 3.96701e-02 -3.81827e-02        00000 
 3.78577e-02 -3.80261e-02        00000 
 3.58045e-02 -3.77179e-02        00000 
 3.33398e-02 -3.66163e-02        00000 
 3.02903e-02 -3.45734e-02        00000 
 2.76017e-02 -3.21101e-02        00000 
 2.51366e-02 -2.82419e-02        00000 
 2.32000e-02 -2.43709e-02        00000 
 2.24627e-02 -2.28525e-02        00000 
 2.15960e-02 -2.10433e-02        00000 
 2.08726e-02 -1.92845e-02        00000 
 2.02818e-02 -1.75645e-02        00000 
 1.90225e-02 -1.51744e-02        00000 
 1.73376e-02 -1.26458e-02        00000 
 1.50808e-02 -9.70554e-03        00000 
 1.25234e-02 -6.37170e-03        00000 
 1.11053e-02 -4.04465e-03        00000 
 1.06970e-02 -3.47871e-03        00000 
 1.04672e-02 -3.36089e-03        00000 
 8.97305e-03 -3.64833e-03        00000 
 7.71488e-03 -4.29157e-03        00000 
 7.20258e-03 -5.38631e-03        00000 
 6.48210e-03 -6.67438e-03        00000 
 5.51058e-03 -7.78379e-03        00000 
 4.81921e-03 -7.85072e-03        00000 
 3.10997e-03 -7.18193e-03        00000 
 2.08678e-03 -6.89081e-03        00000 
 2.76101e-03 -6.33608e-03        00000 
 3.31035e-03 -5.68823e-03        00000 
 3.58737e-03 -4.91893e-03        00000 
 3.90514e-03 -4.33628e-03        00000 
 2.23467e-03 -2.33473e-03        00000 
-1.19794e-03  6.24730e-04        00000 
 1.17504e-01 -8.18880e-03        00000 
 1.11228e-01 -1.16020e-02        00000 
 1.05932e-01 -1.45553e-02        00000 
 1.02905e-01 -1.73664e-02        00000 
 9.83894e-02 -1.92410e-02        00000 
 9.41829e-02 -2.19070e-02        00000 
 8.87221e-02 -2.49519e-02        00000 
 8.42777e-02 -2.79334e-02        00000 
 8.01347e-02 -3.09045e-02        00000 
 7.68714e-02 -3.42285e-02        00000 
 7.30996e-02 -3.66210e-02        00000 
 6.88721e-02 -3.88740e-02        00000 
 6.33012e-02 -4.05478e-02        00000 
 5.95407e-02 -4.27562e-02        00000 
 5.55870e-02 -4.52911e-02        00000 
 5.06444e-02 -4.67883e-02        00000 
 4.61902e-02 -4.54107e-02        00000 
 4.26491e-02 -4.33068e-02        00000 
 4.18028e-02 -4.32199e-02        00000 
 3.87397e-02 -4.19438e-02        00000 
 3.53760e-02 -4.00358e-02        00000 
 3.29830e-02 -3.70628e-02        00000 
 3.04381e-02 -3.30841e-02        00000 
 2.64352e-02 -2.91835e-02        00000 
 2.30682e-02 -2.43108e-02        00000 
 2.12905e-02 -2.13458e-02        00000 
 2.04279e-02 -1.92799e-02        00000 
 1.94942e-02 -1.69251e-02        00000 
 1.83335e-02 -1.46455e-02        00000 
 1.71599e-02 -1.24150e-02        00000 
 1.49874e-02 -9.47454e-03        00000 
 1.36182e-02 -6.62914e-03        00000 
 1.29864e-02 -5.09554e-03        00000 
 1.19234e-02 -3.53822e-03        00000 
 1.09519e-02 -2.33914e-03        00000 
 9.53577e-03 -3.01603e-03        00000 
 8.50166e-03 -4.03609e-03        00000 
 7.67453e-03 -4.60565e-03        00000 
 6.83919e-03 -5.87031e-03        00000 
 5.24882e-03 -7.44358e-03        00000 
 5.12032e-03 -8.59319e-03        00000 
 3.25786e-03 -6.87627e-03        00000 
 2.01099e-03 -6.83986e-03        00000 
 2.18219e-03 -6.35931e-03        00000 
 3.16657e-03 -5.88757e-03        00000 
 4.40382e-03 -5.89234e-03        00000 
 3.14803e-03 -4.31291e-03        00000 
 1.56700e-03 -2.11538e-03        00000 
-2.12041e-03  1.48298e-03        00000 
 1.40486e-01 -7.50181e-03        00000 
 1.33878e-01 -1.16383e-02        00000 
 1.25503e-01 -1.47359e-02        00000 
 1.18571e-01 -1.75245e-02        00000 
 1.14655e-01 -2.07343e-02        00000 
 1.08951e-01 -2.37201e-02        00000 
 1.03658e-01 -2.69797e-02        00000 
 9.89726e-02 -2.99978e-02        00000 
 9.49789e-02 -3.32335e-02        00000 
 9.14080e-02 -3.68767e-02        00000 
 8.62965e-02 -3.98402e-02        00000 
 8.08437e-02 -4.20983e-02        00000 
 7.51795e-02 -4.39439e-02        00000 
 6.80449e-02 -4.57171e-02        00000 
 6.26643e-02 -4.79954e-02        00000 
 5.83781e-02 -4.99991e-02        00000 
 5.25874e-02 -5.04282e-02        00000 
 4.82047e-02 -5.03025e-02        00000 
 4.44986e-02 -4.79369e-02        00000 
 4.24019e-02 -4.62121e-02        00000 
 4.02006e-02 -4.38135e-02        00000 
 3.74896e-02 -4.12227e-02        00000 
 3.36754e-02 -3.67277e-02        00000 
 2.87820e-02 -3.22459e-02        00000 
 2.45187e-02 -2.80077e-02        00000 
 2.07693e-02 -2.22313e-02        00000 
 1.82471e-02 -1.80468e-02        00000 
 1.72636e-02 -1.57318e-02        00000 
 1.61345e-02 -1.35293e-02        00000 
 1.58481e-02 -1.19611e-02        00000 
 1.47269e-02 -9.57673e-03        00000 
 1.34911e-02 -7.10804e-03        00000 
 1.27580e-02 -5.62027e-03        00000 
 1.21311e-02 -4.85983e-03        00000 
 1.10812e-02 -3.66851e-03        00000 
 9.69250e-03 -3.32673e-03        00000 
 1.01713e-02 -4.37714e-03        00000 
 8.96296e-03 -5.01111e-03        00000 
 6.56297e-03 -5.82971e-03        00000 
 6.22348e-03 -7.32277e-03        00000 
 5.56329e-03 -8.34407e-03        00000 
 3.43008e-03 -7.18912e-03        00000 
 3.78769e-03 -6.80187e-03        00000 
 4.16674e-03 -6.52509e-03        00000 
 4.55469e-03 -6.63373e-03        00000 
 4.59765e-03 -5.71801e-03        00000 
 3.25660e-03 -4.09021e-03        00000 
 8.86894e-04 -1.40237e-03        00000 
-1.78589e-03  2.02674e-03        00000 
 1.61273e-01 -6.37674e-03        00000 
 1.56866e-01 -1.11656e-02        00000 
 1.48177e-01 -1.47349e-02        00000 
 1.40050e-01 -1.82832e-02        00000 
 1.33565e-01 -2.18278e-02        00000 
 1.27084e-01 -2.50688e-02        00000 
 1.19548e-01 -2.84736e-02        00000 
 1.14537e-01 -3.15777e-02        00000 
 1.09372e-01 -3.46723e-02        00000 
 1.03073e-01 -3.81658e-02        00000 
 9.72854e-02 -4.15439e-02        00000 
 9.11087e-02 -4.43613e-02        00000 
 8.42023e-02 -4.68510e-02        00000 
 7.68761e-02 -4.87841e-02        00000 
 7.00926e-02 -5.00980e-02        00000 
 6.35863e-02 -5.06760e-02        00000 
 5.79158e-02 -5.13155e-02        00000 
 5.31091e-02 -5.12836e-02        00000 
 4.81361e-02 -5.00258e-02        00000 
 4.39123e-02 -4.80404e-02        00000 
 4.23689e-02 -4.56169e-02        00000 
 3.93009e-02 -4.15137e-02        00000 
 3.49689e-02 -3.78780e-02        00000 
 2.99041e-02 -3.37528e-02        00000 
 2.43458e-02 -2.92593e-02        00000 
 2.01325e-02 -2.43819e-02        00000 
 1.71144e-02 -1.94341e-02        00000 
 1.57983e-02 -1.62235e-02        00000 
 1.46550e-02 -1.37228e-02        00000 
 1.49156e-02 -1.25137e-02        00000 
 1.39496e-02 -1.02981e-02        00000 
 1.27087e-02 -8.00506e-03        00000 
 1.20010e-02 -6.62351e-03        00000 
 1.18323e-02 -5.94400e-03        00000 
 1.28657e-02 -6.35491e-03        00000 
 1.16993e-02 -4.94599e-03        00000 
 9.07483e-03 -4.08016e-03        00000 
 7.21243e-03 -4.23499e-03        00000 
 6.76739e-03 -6.03395e-03        00000 
 7.11749e-03 -7.36939e-03        00000 
 7.27044e-03 -8.72744e-03        00000 
 6.54772e-03 -7.91136e-03        00000 
 6.14093e-03 -7.45147e-03        00000 
 5.17633e-03 -7.09181e-03        00000 
 4.60846e-03 -6.17467e-03        00000 
 4.52371e-03 -5.34889e-03        00000 
 3.62276e-03 -4.01313e-03        00000 
 1.32517e-03 -1.29371e-03        00000 
-1.36868e-03  2.37387e-03        00000 
 1.78529e-01 -5.97261e-03        00000 
 1.76113e-01 -9.96053e-03        00000 
 1.68569e-01 -1.45661e-02        00000 
 1.60689e-01 -1.88808e-02        00000 
 1.53779e-01 -2.25444e-02        00000 
 1.47100e-01 -2.59046e-02        00000 
 1.39668e-01 -2.90671e-02        00000 
 1.30680e-01 -3.26729e-02        00000 
 1.21441e-01 -3.55874e-02        00000 
 1.14154e-01 -3.89936e-02        00000 
 1.07577e-01 -4.22026e-02        00000 
 1.01039e-01 -4.60645e-02        00000 
 9.42292e-02 -4.83134e-02        00000 
 8.68604e-02 -4.96845e-02        00000 
 7.81507e-02 -5.02409e-02        00000 
 7.00354e-02 -5.05107e-02        00000 
 6.34273e-02 -5.06630e-02        00000 
 5.75418e-02 -5.02889e-02        00000 
 5.22251e-02 -4.87283e-02        00000 
 4.70282e-02 -4.63660e-02        00000 
 4.22121e-02 -4.29100e-02        00000 
 3.83364e-02 -4.00445e-02        00000 
 3.28286e-02 -3.75446e-02        00000 
 2.76659e-02 -3.31991e-02        00000 
 2.22766e-02 -2.87991e-02        00000 
 1.76586e-02 -2.45357e-02        00000 
 1.50927e-02 -2.01150e-02        00000 
 1.44299e-02 -1.74885e-02        00000 
 1.47839e-02 -1.56529e-02        00000 
 1.56774e-02 -1.43119e-02        00000 
 1.55050e-02 -1.24524e-02        00000 
 1.50082e-02 -1.09330e-02        00000 
 1.56043e-02 -9.60384e-03        00000 
 1.61927e-02 -8.38957e-03        00000 
 1.41626e-02 -7.26383e-03        00000 
 1.08172e-02 -5.99852e-03        00000 
 8.32063e-03 -4.77283e-03        00000 
 6.24680e-03 -4.37750e-03        00000 
 7.14559e-03 -5.73973e-03        00000 
 8.25361e-03 -7.34017e-03        00000 
 7.94361e-03 -8.30113e-03        00000 
 7.49386e-03 -7.93510e-03        00000 
 7.43983e-03 -7.62291e-03        00000 
 6.45712e-03 -6.99217e-03        00000 
 4.78948e-03 -6.12349e-03        00000 
 5.07403e-03 -5.38154e-03        00000 
 3.61405e-03 -3.69942e-03        00000 
 1.69929e-03 -7.65075e-04        00000 
-1.00213e-03  3.34378e-03        00000 
 1.95847e-01 -6.22392e-03        00000 
 1.94482e-01 -1.10232e-02        00000 
 1.88594e-01 -1.50754e-02        00000 
 1.80481e-01 -1.93279e-02        00000 
 1.73123e-01 -2.30416e-02        00000 
 1.65923e-01 -2.64061e-02        00000 
 1.56504e-01 -2.90449e-02        00000 