<?xml version="1.0" encoding="utf-8"?>
<VTKFile byte_order="LittleEndian" type="UnstructuredGrid" version="0.1">
   <UnstructuredGrid>
      <Piece NumberOfCells="7944" NumberOfPoints="4296">
         <Points>
            <DataArray Name="Points" NumberOfComponents="3" format="ascii" type="Float32">
-1.0000 -0.9592 0.0000
-1.0000 -0.9184 0.0000
-1.0000 -0.8776 0.0000
-1.0000 -0.8367 0.0000
-1.0000 -0.7959 0.0000
-1.0000 -0.7551 0.0000
-1.0000 -0.7143 0.0000
-1.0000 -0.6735 0.0000
-1.0000 -0.6327 0.0000
-1.0000 -0.5918 0.0000
-1.0000 -0.5510 0.0000
-1.0000 -0.5102 0.0000
-1.0000 -0.4694 0.0000
-1.0000 -0.4286 0.0000
-1.0000 -0.3878 0.0000
-1.0000 -0.3469 0.0000
-1.0000 -0.3061 0.0000
-1.0000 -0.2653 0.0000
-1.0000 -0.2245 0.0000
-1.0000 -0.1837 0.0000
-1.0000 -0.1429 0.0000
-1.0000 -0.1020 0.0000
-1.0000 -0.0612 0.0000
-1.0000 -0.0204 0.0000
-1.0000 0.0204 0.0000
-1.0000 0.0612 0.0000
-1.0000 0.1020 0.0000
-1.0000 0.1429 0.0000
-1.0000 0.1837 0.0000
-1.0000 0.2245 0.0000
-1.0000 0.2653 0.0000
-1.0000 0.3061 0.0000
-1.0000 0.3469 0.0000
-1.0000 0.3878 0.0000
-1.0000 0.4286 0.0000
-1.0000 0.4694 0.0000
-1.0000 0.5102 0.0000
-1.0000 0.5510 0.0000
-1.0000 0.5918 0.0000
-1.0000 0.6327 0.0000
-1.0000 0.6735 0.0000
-1.0000 0.7143 0.0000
-1.0000 0.7551 0.0000
-1.0000 0.7959 0.0000
-1.0000 0.8367 0.0000
-1.0000 0.8776 0.0000
-1.0000 0.9184 0.0000
-1.0000 0.9592 0.0000
-1.0000 1.0000 0.0000
-0.9592 -0.9592 0.0000
-0.9592 -0.9184 0.0000
-0.9592 -0.8776 0.0000
-0.9592 -0.8367 0.0000
-0.9592 -0.7959 0.0000
-0.9592 -0.7551 0.0000
-0.9592 -0.7143 0.0000
-0.9592 -0.6735 0.0000
-0.9592 -0.6327 0.0000
-0.9592 -0.5918 0.0000
-0.9592 -0.5510 0.0000
-0.9592 -0.5102 0.0000
-0.9592 -0.4694 0.0000
-0.9592 -0.4286 0.0000
-0.9592 -0.3878 0.0000
-0.9592 -0.3469 0.0000
-0.9592 -0.3061 0.0000
-0.9592 -0.2653 0.0000
-0.9592 -0.2245 0.0000
-0.9592 -0.1837 0.0000
-0.9592 -0.1429 0.0000
-0.9592 -0.1020 0.0000
-0.9592 -0.0612 0.0000
-0.9592 -0.0204 0.0000
-0.9592 0.0204 0.0000
-0.9592 0.0612 0.0000
-0.9592 0.1020 0.0000
-0.9592 0.1429 0.0000
-0.9592 0.1837 0.0000
-0.9592 0.2245 0.0000
-0.9592 0.2653 0.0000
-0.9592 0.3061 0.0000
-0.9592 0.3469 0.0000
-0.9592 0.3878 0.0000
-0.9592 0.4286 0.0000
-0.9592 0.4694 0.0000
-0.9592 0.5102 0.0000
-0.9592 0.5510 0.0000
-0.9592 0.5918 0.0000
-0.9592 0.6327 0.0000
-0.9592 0.6735 0.0000
-0.9592 0.7143 0.0000
-0.9592 0.7551 0.0000
-0.9592 0.7959 0.0000
-0.9592 0.8367 0.0000
-0.9592 0.8776 0.0000
-0.9592 0.9184 0.0000
-0.9592 0.9592 0.0000
-0.9592 1.0000 0.0000
-0.9184 -0.9592 0.0000
-0.9184 -0.9184 0.0000
-0.9184 -0.8776 0.0000
-0.9184 -0.8367 0.0000
-0.9184 -0.7959 0.0000
-0.9184 -0.7551 0.0000
-0.9184 -0.7143 0.0000
-0.9184 -0.6735 0.0000
-0.9184 -0.6327 0.0000
-0.9184 -0.5918 0.0000
-0.9184 -0.5510 0.0000
-0.9184 -0.5102 0.0000
-0.9184 -0.4694 0.0000
-0.9184 -0.4286 0.0000
-0.9184 -0.3878 0.0000
-0.9184 -0.3469 0.0000
-0.9184 -0.3061 0.0000
-0.9184 -0.2653 0.0000
-0.9184 -0.2245 0.0000
-0.9184 -0.1837 0.0000
-0.9184 -0.1429 0.0000
-0.9184 -0.1020 0.0000
-0.9184 -0.0612 0.0000
-0.9184 -0.0204 0.0000
-0.9184 0.0204 0.0000
-0.9184 0.0612 0.0000
-0.9184 0.1020 0.0000
-0.9184 0.1429 0.0000
-0.9184 0.1837 0.0000
-0.9184 0.2245 0.0000
-0.9184 0.2653 0.0000
-0.9184 0.3061 0.0000
-0.9184 0.3469 0.0000
-0.9184 0.3878 0.0000
-0.9184 0.4286 0.0000
-0.9184 0.4694 0.0000
-0.9184 0.5102 0.0000
-0.9184 0.5510 0.0000
-0.9184 0.5918 0.0000
-0.9184 0.6327 0.0000
-0.9184 0.6735 0.0000
-0.9184 0.7143 0.0000
-0.9184 0.7551 0.0000
-0.9184 0.7959 0.0000
-0.9184 0.8367 0.0000
-0.9184 0.8776 0.0000
-0.9184 0.9184 0.0000
-0.9184 0.9592 0.0000
-0.9184 1.0000 0.0000
-0.8776 -0.9592 0.0000
-0.8776 -0.9184 0.0000
-0.8776 -0.8776 0.0000
-0.8776 -0.8367 0.0000
-0.8776 -0.7959 0.0000
-0.8776 -0.7551 0.0000
-0.8776 -0.7143 0.0000
-0.8776 -0.6735 0.0000
-0.8776 -0.6327 0.0000
-0.8776 -0.5918 0.0000
-0.8776 -0.5510 0.0000
-0.8776 -0.5102 0.0000
-0.8776 -0.4694 0.0000
-0.8776 -0.4286 0.0000
-0.8776 -0.3878 0.0000
-0.8776 -0.3469 0.0000
-0.8776 -0.3061 0.0000
-0.8776 -0.2653 0.0000
-0.8776 -0.2245 0.0000
-0.8776 -0.1837 0.0000
-0.8776 -0.1429 0.0000
-0.8776 -0.1020 0.0000
-0.8776 -0.0612 0.0000
-0.8776 -0.0204 0.0000
-0.8776 0.0204 0.0000
-0.8776 0.0612 0.0000
-0.8776 0.1020 0.0000
-0.8776 0.1429 0.0000
-0.8776 0.1837 0.0000
-0.8776 0.2245 0.0000
-0.8776 0.2653 0.0000
-0.8776 0.3061 0.0000
-0.8776 0.3469 0.0000
-0.8776 0.3878 0.0000
-0.8776 0.4286 0.0000
-0.8776 0.4694 0.0000
-0.8776 0.5102 0.0000
-0.8776 0.5510 0.0000
-0.8776 0.5918 0.0000
-0.8776 0.6327 0.0000
-0.8776 0.6735 0.0000
-0.8776 0.7143 0.0000
-0.8776 0.7551 0.0000
-0.8776 0.7959 0.0000
-0.8776 0.8367 0.0000
-0.8776 0.8776 0.0000
-0.8776 0.9184 0.0000
-0.8776 0.9592 0.0000
-0.8776 1.0000 0.0000
-0.8367 -0.9592 0.0000
-0.8367 -0.9184 0.0000
-0.8367 -0.8776 0.0000
-0.8367 -0.8367 0.0000
-0.8367 -0.7959 0.0000
-0.8367 -0.7551 0.0000
-0.8367 -0.7143 0.0000
-0.8367 -0.6735 0.0000
-0.8367 -0.6327 0.0000
-0.8367 -0.5918 0.0000
-0.8367 -0.5510 0.0000
-0.8367 -0.5102 0.0000
-0.8367 -0.4694 0.0000
-0.8367 -0.4286 0.0000
-0.8367 -0.3878 0.0000
-0.8367 -0.3469 0.0000
-0.8367 -0.3061 0.0000
-0.8367 -0.2653 0.0000
-0.8367 -0.2245 0.0000
-0.8367 -0.1837 0.0000
-0.8367 -0.1429 0.0000
-0.8367 -0.1020 0.0000
-0.8367 -0.0612 0.0000
-0.8367 -0.0204 0.0000
-0.8367 0.0204 0.0000
-0.8367 0.0612 0.0000
-0.8367 0.1020 0.0000
-0.8367 0.1429 0.0000
-0.8367 0.1837 0.0000
-0.8367 0.2245 0.0000
-0.8367 0.2653 0.0000
-0.8367 0.3061 0.0000
-0.8367 0.3469 0.0000
-0.8367 0.3878 0.0000
-0.8367 0.4286 0.0000
-0.8367 0.4694 0.0000
-0.8367 0.5102 0.0000
-0.8367 0.5510 0.0000
-0.8367 0.5918 0.0000
-0.8367 0.6327 0.0000
-0.8367 0.6735 0.0000
-0.8367 0.7143 0.0000
-0.8367 0.7551 0.0000
-0.8367 0.7959 0.0000
-0.8367 0.8367 0.0000
-0.8367 0.8776 0.0000
-0.8367 0.9184 0.0000
-0.8367 0.9592 0.0000
-0.8367 1.0000 0.0000
-0.7959 -0.9592 0.0000
-0.7959 -0.9184 0.0000
-0.7959 -0.8776 0.0000
-0.7959 -0.8367 0.0000
-0.7959 -0.7959 0.0000
-0.7959 -0.7551 0.0000
-0.7959 -0.7143 0.0000
-0.7959 -0.6735 0.0000
-0.7959 -0.6327 0.0000
-0.7959 -0.5918 0.0000
-0.7959 -0.5510 0.0000
-0.7959 -0.5102 0.0000
-0.7959 -0.4694 0.0000
-0.7959 -0.4286 0.0000
-0.7959 -0.3878 0.0000
-0.7959 -0.3469 0.0000
-0.7959 -0.3061 0.0000
-0.7959 -0.2653 0.0000
-0.7959 -0.2245 0.0000
-0.7959 -0.1837 0.0000
-0.7959 -0.1429 0.0000
-0.7959 -0.1020 0.0000
-0.7959 -0.0612 0.0000
-0.7959 -0.0204 0.0000
-0.7959 0.0204 0.0000
-0.7959 0.0612 0.0000
-0.7959 0.1020 0.0000
-0.7959 0.1429 0.0000
-0.7959 0.1837 0.0000
-0.7959 0.2245 0.0000
-0.7959 0.2653 0.0000
-0.7959 0.3061 0.0000
-0.7959 0.3469 0.0000
-0.7959 0.3878 0.0000
-0.7959 0.4286 0.0000
-0.7959 0.4694 0.0000
-0.7959 0.5102 0.0000
-0.7959 0.5510 0.0000
-0.7959 0.5918 0.0000
-0.7959 0.6327 0.0000
-0.7959 0.6735 0.0000
-0.7959 0.7143 0.0000
-0.7959 0.7551 0.0000
-0.7959 0.7959 0.0000
-0.7959 0.8367 0.0000
-0.7959 0.8776 0.0000
-0.7959 0.9184 0.0000
-0.7959 0.9592 0.0000
-0.7959 1.0000 0.0000
-0.7551 -0.9592 0.0000
-0.7551 -0.9184 0.0000
-0.7551 -0.8776 0.0000
-0.7551 -0.8367 0.0000
-0.7551 -0.7959 0.0000
-0.7551 -0.7551 0.0000
-0.7551 -0.7143 0.0000
-0.7551 -0.6735 0.0000
-0.7551 -0.6327 0.0000
-0.7551 -0.5918 0.0000
-0.7551 -0.5510 0.0000
-0.7551 -0.5102 0.0000
-0.7551 -0.4694 0.0000
-0.7551 -0.4286 0.0000
-0.7551 -0.3878 0.0000
-0.7551 -0.3469 0.0000
-0.7551 -0.3061 0.0000
-0.7551 -0.2653 0.0000
-0.7551 -0.2245 0.0000
-0.7551 -0.1837 0.0000
-0.7551 -0.1429 0.0000
-0.7551 -0.1020 0.0000
-0.7551 -0.0612 0.0000
-0.7551 -0.0204 0.0000
-0.7551 0.0204 0.0000
-0.7551 0.0612 0.0000
-0.7551 0.1020 0.0000
-0.7551 0.1429 0.0000
-0.7551 0.1837 0.0000
-0.7551 0.2245 0.0000
-0.7551 0.2653 0.0000
-0.7551 0.3061 0.0000
-0.7551 0.3469 0.0000
-0.7551 0.3878 0.0000
-0.7551 0.4286 0.0000
-0.7551 0.4694 0.0000
-0.7551 0.5102 0.0000
-0.7551 0.5510 0.0000
-0.7551 0.5918 0.0000
-0.7551 0.6327 0.0000
-0.7551 0.6735 0.0000
-0.7551 0.7143 0.0000
-0.7551 0.7551 0.0000
-0.7551 0.7959 0.0000
-0.7551 0.8367 0.0000
-0.7551 0.8776 0.0000
-0.7551 0.9184 0.0000
-0.7551 0.9592 0.0000
-0.7551 1.0000 0.0000
-0.7143 -0.9592 0.0000
-0.7143 -0.9184 0.0000
-0.7143 -0.8776 0.0000
-0.7143 -0.8367 0.0000
-0.7143 -0.7959 0.0000
-0.7143 -0.7551 0.0000
-0.7143 -0.7143 0.0000
-0.7143 -0.6735 0.0000
-0.7143 -0.6327 0.0000
-0.7143 -0.5918 0.0000
-0.7143 -0.5510 0.0000
-0.7143 -0.5102 0.0000
-0.7143 -0.4694 0.0000
-0.7143 -0.4286 0.0000
-0.7143 -0.3878 0.0000
-0.7143 -0.3469 0.0000
-0.7143 -0.3061 0.0000
-0.7143 -0.2653 0.0000
-0.7143 -0.2245 0.0000
-0.7143 -0.1837 0.0000
-0.7143 -0.1429 0.0000
-0.7143 -0.1020 0.0000
-0.7143 -0.0612 0.0000
-0.7143 -0.0204 0.0000
-0.7143 0.0204 0.0000
-0.7143 0.0612 0.0000
-0.7143 0.1020 0.0000
-0.7143 0.1429 0.0000
-0.7143 0.1837 0.0000
-0.7143 0.2245 0.0000
-0.7143 0.2653 0.0000
-0.7143 0.3061 0.0000
-0.7143 0.3469 0.0000
-0.7143 0.3878 0.0000
-0.7143 0.4286 0.0000
-0.7143 0.4694 0.0000
-0.7143 0.5102 0.0000
-0.7143 0.5510 0.0000
-0.7143 0.5918 0.0000
-0.7143 0.6327 0.0000
-0.7143 0.6735 0.0000
-0.7143 0.7143 0.0000
-0.7143 0.7551 0.0000
-0.7143 0.7959 0.0000
-0.7143 0.8367 0.0000
-0.7143 0.8776 0.0000
-0.7143 0.9184 0.0000
-0.7143 0.9592 0.0000
-0.7143 1.0000 0.0000
-0.6735 -0.9592 0.0000
-0.6735 -0.9184 0.0000
-0.6735 -0.8776 0.0000
-0.6735 -0.8367 0.0000
-0.6735 -0.7959 0.0000
-0.6735 -0.7551 0.0000
-0.6735 -0.7143 0.0000
-0.6735 -0.6735 0.0000
-0.6735 -0.6327 0.0000
-0.6735 -0.5918 0.0000
-0.6735 -0.5510 0.0000
-0.6735 -0.5102 0.0000
-0.6735 -0.4694 0.0000
-0.6735 -0.4286 0.0000
-0.6735 -0.3878 0.0000
-0.6735 -0.3469 0.0000
-0.6735 -0.3061 0.0000
-0.6735 -0.2653 0.0000
-0.6735 -0.2245 0.0000
-0.6735 -0.1837 0.0000
-0.6735 -0.1429 0.0000
-0.6735 -0.1020 0.0000
-0.6735 -0.0612 0.0000
-0.6735 -0.0204 0.0000
-0.6735 0.0204 0.0000
-0.6735 0.0612 0.0000
-0.6735 0.1020 0.0000
-0.6735 0.1429 0.0000
-0.6735 0.1837 0.0000
-0.6735 0.2245 0.0000
-0.6735 0.2653 0.0000
-0.6735 0.3061 0.0000
-0.6735 0.3469 0.0000
-0.6735 0.3878 0.0000
-0.6735 0.4286 0.0000
-0.6735 0.4694 0.0000
-0.6735 0.5102 0.0000
-0.6735 0.5510 0.0000
-0.6735 0.5918 0.0000
[...]
         <PointData>
            <DataArray Name="fValues" NumberOfComponents="3" format="ascii" type="Float64">
 4.91219e-03  2.19605e-03        00000 
 4.98941e-03  3.06142e-03        00000 
 4.51922e-03  3.54146e-03        00000 
 3.80440e-03  3.05460e-03        00000 
 2.12401e-03  4.20531e-03        00000 
 1.64741e-03  3.66381e-03        00000 
 2.09364e-03  2.30289e-03        00000 
 2.42254e-03  9.37005e-04        00000 
 1.64109e-03  1.61367e-03        00000 
-4.22801e-05  3.26352e-03        00000 
-1.26538e-03  4.25420e-03        00000 
-2.20045e-03  5.21534e-03        00000 
-1.92722e-03  5.92140e-03        00000 
-7.62092e-04  4.69361e-03        00000 
-3.08303e-04  3.47744e-03        00000 
-1.65346e-03  1.54389e-03        00000 
-1.36923e-03 -7.77085e-04        00000 
 9.30892e-04 -3.64149e-03        00000 
 2.09683e-03 -4.04320e-03        00000 
 1.64499e-03 -1.70471e-03        00000 
 2.21509e-03 -2.66634e-04        00000 
 2.99261e-03  5.86006e-04        00000 
 3.41713e-03  1.40453e-03        00000 
 3.67253e-03  1.86636e-03        00000 
 3.54267e-03  2.11092e-03        00000 
 3.14085e-03  2.57493e-03        00000 
 3.05651e-03  1.66575e-03        00000 
 2.78377e-03  6.45749e-04        00000 
 2.38121e-03 -4.61189e-04        00000 
 2.09525e-03 -9.68863e-04        00000 
 1.66857e-03 -1.37952e-03        00000 
 1.02244e-03 -1.90906e-03        00000 
 9.89394e-04 -2.73573e-03        00000 
 1.75935e-03 -2.93195e-03        00000 
 2.66652e-03 -3.37216e-03        00000 
 4.00370e-03 -3.51831e-03        00000 
 4.03302e-03 -3.82915e-03        00000 
 3.53735e-03 -3.29983e-03        00000 
 2.87148e-03 -3.69900e-03        00000 
 2.45457e-03 -3.13308e-03        00000 
 2.76904e-03 -3.17491e-03        00000 
 1.11892e-03 -3.61311e-03        00000 
-1.37288e-03 -3.20042e-03        00000 
-9.57548e-04 -2.85147e-03        00000 
-1.86748e-04 -1.87635e-03        00000 
 2.22267e-04 -1.54082e-03        00000 
 6.14715e-04 -1.78163e-03        00000 
 7.84629e-04 -6.08670e-04        00000 
-9.14931e-04 -1.63315e-04        00000 
 2.83155e-03  1.61891e-02        00000 
 2.08768e-03  1.54552e-02        00000 
 2.81371e-04  1.57326e-02        00000 
-1.42671e-03  1.52821e-02        00000 
-1.97616e-03  1.48303e-02        00000 
-3.08411e-03  1.46230e-02        00000 
-4.76558e-03  1.46975e-02        00000 
-4.48808e-03  1.36508e-02        00000 
-4.70319e-03  1.31604e-02        00000 
-6.32552e-03  1.46762e-02        00000 
-7.58455e-03  1.57188e-02        00000 
-8.65618e-03  1.68607e-02        00000 
-9.01920e-03  1.71538e-02        00000 
-8.72635e-03  1.63197e-02        00000 
-9.08968e-03  1.55271e-02        00000 
-9.77708e-03  1.46795e-02        00000 
-1.06846e-02  1.27390e-02        00000 
-9.20757e-03  1.00201e-02        00000 
-7.18865e-03  7.42797e-03        00000 
-6.96286e-03  6.98033e-03        00000 
-6.41724e-03  6.59747e-03        00000 
-5.20570e-03  6.40927e-03        00000 
-3.78062e-03  6.49951e-03        00000 
-2.70823e-03  7.01041e-03        00000 
-1.79058e-03  7.21387e-03        00000 
-1.56122e-03  7.36950e-03        00000 
-2.00679e-03  7.00791e-03        00000 
-2.43668e-03  5.86173e-03        00000 
-3.01419e-03  5.01162e-03        00000 
-3.56161e-03  4.12474e-03        00000 
-3.48048e-03  3.37706e-03        00000 
-3.42855e-03  3.12195e-03        00000 
-2.43430e-03  2.44280e-03        00000 
-1.04849e-03  1.70218e-03        00000 
 5.93918e-04 -1.09321e-03        00000 
 9.44967e-04 -1.50462e-03        00000 
 8.85879e-04 -5.44080e-04        00000 
 7.93642e-04  1.37295e-04        00000 
 2.94392e-04  6.42540e-04        00000 
 2.93149e-04  1.05638e-03        00000 
-8.17937e-04  1.08177e-03        00000 
-2.06455e-03  7.91288e-04        00000 
-2.36194e-03  1.17485e-03        00000 
-2.04654e-03  1.33996e-03        00000 
-2.41415e-03  1.39249e-03        00000 
-1.75082e-03  6.76898e-05        00000 
-1.51428e-03  8.40776e-04        00000 
 8.66739e-04 -6.05151e-04        00000 
 2.15972e-03 -3.03393e-03        00000 
-3.27603e-04  3.52661e-02        00000 
-2.31484e-03  3.43576e-02        00000 
-4.03392e-03  3.37081e-02        00000 
-5.61558e-03  3.19975e-02        00000 
-7.31323e-03  3.04987e-02        00000 
-8.22920e-03  3.05388e-02        00000 
-9.12305e-03  2.97896e-02        00000 
-1.02451e-02  2.88958e-02        00000 
-1.10186e-02  2.71719e-02        00000 
-1.18773e-02  2.65706e-02        00000 
-1.31339e-02  2.73070e-02        00000 
-1.41666e-02  2.84769e-02        00000 
-1.49383e-02  2.91304e-02        00000 
-1.53586e-02  2.86364e-02        00000 
-1.53499e-02  2.80518e-02        00000 
-1.57230e-02  2.72915e-02        00000 
-1.65393e-02  2.57580e-02        00000 
-1.70670e-02  2.37780e-02        00000 
-1.58101e-02  2.15983e-02        00000 
-1.40815e-02  1.89308e-02        00000 
-1.22816e-02  1.62041e-02        00000 
-1.16211e-02  1.55867e-02        00000 
-1.09313e-02  1.48295e-02        00000 
-1.01987e-02  1.37854e-02        00000 
-9.09168e-03  1.23500e-02        00000 
-7.50023e-03  1.15806e-02        00000 
-6.20324e-03  1.15287e-02        00000 
-5.65038e-03  1.01605e-02        00000 
-5.87935e-03  9.31302e-03        00000 
-5.72176e-03  8.11002e-03        00000 
-5.51497e-03  6.76933e-03        00000 
-4.55120e-03  5.92709e-03        00000 
-2.63325e-03  4.83933e-03        00000 
-1.49661e-03  2.68233e-03        00000 
-3.37880e-04 -5.05142e-04        00000 
 8.38490e-04 -1.21302e-03        00000 
 9.21202e-04 -1.05358e-04        00000 
 6.36960e-04  1.48597e-03        00000 
-1.96988e-04  2.51956e-03        00000 
-2.23317e-03  2.29770e-03        00000 
-3.42992e-03  3.94918e-03        00000 
-2.79385e-03  4.80830e-03        00000 
-2.83040e-03  5.12441e-03        00000 
-2.88182e-03  4.01812e-03        00000 
-3.68142e-03  2.82704e-03        00000 
-3.95812e-03  2.62817e-03        00000 
-2.40161e-03  2.83945e-03        00000 
 1.07590e-03  1.78847e-03        00000 
 3.95738e-03 -2.58472e-03        00000 
-3.42701e-03  5.55829e-02        00000 
-7.61067e-03  5.37938e-02        00000 
-9.29985e-03  5.30323e-02        00000 
-1.07405e-02  5.12248e-02        00000 
-1.21392e-02  5.01687e-02        00000 
-1.37600e-02  4.83728e-02        00000 
-1.47780e-02  4.64897e-02        00000 
-1.61159e-02  4.53780e-02        00000 
-1.78371e-02  4.50627e-02        00000 
-1.93437e-02  4.48554e-02        00000 
-1.98073e-02  4.36693e-02        00000 
-2.01561e-02  4.26348e-02        00000 
-2.06852e-02  4.21610e-02        00000 
-2.09368e-02  3.91911e-02        00000 
-2.09377e-02  3.86617e-02        00000 
-2.12180e-02  3.80738e-02        00000 
-2.10730e-02  3.65495e-02        00000 
-2.19951e-02  3.56666e-02        00000 
-2.19191e-02  3.42646e-02        00000 
-2.03229e-02  3.19588e-02        00000 
-1.70772e-02  2.77599e-02        00000 
-1.56162e-02  2.47409e-02        00000 
-1.53105e-02  2.35024e-02        00000 
-1.47566e-02  2.22040e-02        00000 
-1.41481e-02  2.08886e-02        00000 
-1.32295e-02  1.91864e-02        00000 
-1.15673e-02  1.74622e-02        00000 
-9.11973e-03  1.46610e-02        00000 
-6.97148e-03  1.10486e-02        00000 
-5.48800e-03  8.80307e-03        00000 
-4.78398e-03  7.39754e-03        00000 
-3.69396e-03  6.32181e-03        00000 
-2.68784e-03  5.18861e-03        00000 
-1.30240e-03  2.24194e-03        00000 
-7.39461e-04  7.90545e-04        00000 
 4.82635e-04  2.58754e-04        00000 
 1.25871e-03  4.54127e-04        00000 
 3.30663e-04  2.24201e-03        00000 
-1.76328e-03  3.51636e-03        00000 
-4.15105e-03  4.46691e-03        00000 
-4.05541e-03  5.52061e-03        00000 
-3.11711e-03  5.98636e-03        00000 
-3.07283e-03  6.08966e-03        00000 
-4.77626e-03  5.41238e-03        00000 
-5.10113e-03  5.19933e-03        00000 
-4.12453e-03  5.50934e-03        00000 
-1.41759e-03  4.52384e-03        00000 
 1.69343e-03  2.33486e-03        00000 
 4.09627e-03 -2.84760e-03        00000 
-3.85950e-03  7.46239e-02        00000 
-1.07887e-02  7.45116e-02        00000 
-1.30330e-02  7.20606e-02        00000 
-1.51369e-02  7.07391e-02        00000 
-1.67951e-02  6.94782e-02        00000 
-1.89366e-02  6.78160e-02        00000 
-2.01602e-02  6.63958e-02        00000 
-2.12142e-02  6.44188e-02        00000 
-2.35561e-02  6.28419e-02        00000 
-2.59749e-02  6.30918e-02        00000 
-2.81037e-02  6.34475e-02        00000 
-2.83639e-02  6.19582e-02        00000 
-2.83393e-02  5.99595e-02        00000 
-2.80304e-02  5.45691e-02        00000 
-2.68419e-02  4.93304e-02        00000 
-2.55921e-02  4.69372e-02        00000 
-2.58510e-02  4.60576e-02        00000 
-2.62921e-02  4.51253e-02        00000 
-2.69072e-02  4.44493e-02        00000 
-2.57166e-02  4.29845e-02        00000 
-2.25111e-02  3.91711e-02        00000 
-1.94915e-02  3.52000e-02        00000 
-1.73890e-02  2.96290e-02        00000 
-1.69668e-02  2.79849e-02        00000 
-1.63618e-02  2.67185e-02        00000 
-1.54880e-02  2.51286e-02        00000 
-1.40157e-02  2.29265e-02        00000 
-1.18657e-02  2.00530e-02        00000 
-9.35138e-03  1.64482e-02        00000 
-7.03900e-03  1.27765e-02        00000 
-4.59687e-03  8.73155e-03        00000 
-3.00656e-03  6.27209e-03        00000 
-1.92307e-03  5.05596e-03        00000 
-1.56108e-03  3.70551e-03        00000 
-1.22686e-03  2.70108e-03        00000 
 2.32595e-04  2.33467e-03        00000 
 3.05800e-04  2.27910e-03        00000 
-1.01009e-03  3.98366e-03        00000 
-2.91248e-03  4.79130e-03        00000 
-3.60399e-03  5.42844e-03        00000 
-3.87563e-03  4.77650e-03        00000 
-3.80448e-03  4.99171e-03        00000 
-4.36863e-03  5.29968e-03        00000 
-5.05848e-03  5.32789e-03        00000 
-5.08514e-03  7.15629e-03        00000 
-3.49742e-03  6.60131e-03        00000 
-1.04854e-03  5.36077e-03        00000 
 1.43618e-03  1.68747e-03        00000 
 3.09560e-03 -2.53024e-03        00000 
-4.37280e-03  9.54333e-02        00000 
-1.08742e-02  9.34129e-02        00000 
-1.56438e-02  9.29536e-02        00000 
-1.77250e-02  9.07843e-02        00000 
-1.96816e-02  8.90547e-02        00000 
-2.21731e-02  8.71345e-02        00000 
-2.44796e-02  8.51087e-02        00000 
-2.73083e-02  8.34794e-02        00000 
-2.94239e-02  8.25446e-02        00000 
-3.17802e-02  8.17642e-02        00000 
-3.40414e-02  8.07217e-02        00000 
-3.58127e-02  8.03900e-02        00000 
-3.59876e-02  7.88618e-02        00000 
-3.54098e-02  7.31006e-02        00000 
-3.45286e-02  6.53241e-02        00000 
-3.22654e-02  5.80057e-02        00000 
-3.19578e-02  5.63825e-02        00000 
-3.20311e-02  5.56635e-02        00000 
-3.20768e-02  5.44630e-02        00000 
-3.05903e-02  5.22531e-02        00000 
-2.77541e-02  4.87427e-02        00000 
-2.46238e-02  4.42826e-02        00000 
-2.13764e-02  3.82263e-02        00000 
-1.82900e-02  3.27411e-02        00000 
-1.66502e-02  3.04121e-02        00000 
-1.46708e-02  2.78299e-02        00000 
-1.28325e-02  2.53457e-02        00000 
-1.11173e-02  2.29435e-02        00000 
-9.49800e-03  2.00453e-02        00000 
-8.07029e-03  1.70248e-02        00000 
-5.75046e-03  1.34517e-02        00000 
-3.45502e-03  9.71113e-03        00000 
-2.00466e-03  7.01936e-03        00000 
-1.92527e-03  6.14637e-03        00000 
-2.30790e-03  5.73721e-03        00000 
-1.37204e-03  5.40628e-03        00000 
-8.24672e-04  5.42215e-03        00000 
-1.51175e-03  5.99745e-03        00000 
-3.22977e-03  5.73256e-03        00000 
-3.96731e-03  4.70405e-03        00000 
-4.27117e-03  4.61578e-03        00000 
-4.06098e-03  5.25635e-03        00000 
-4.95129e-03  5.02114e-03        00000 
-4.68687e-03  5.16208e-03        00000 
-3.76417e-03  5.77524e-03        00000 
-2.66767e-03  6.23350e-03        00000 
-2.13773e-03  6.92633e-03        00000 
-5.79600e-04  3.20968e-03        00000 
 3.63152e-03 -9.59874e-04        00000 
-4.35734e-03  1.14731e-01        00000 
-1.07537e-02  1.12757e-01        00000 
-1.63043e-02  1.11248e-01        00000 
-1.99865e-02  1.10434e-01        00000 
-2.20049e-02  1.07056e-01        00000 
-2.48450e-02  1.05090e-01        00000 
-2.79592e-02  1.03764e-01        00000 
-3.10829e-02  1.02392e-01        00000 
-3.41933e-02  1.01624e-01        00000 
-3.68468e-02  1.01330e-01        00000 
-3.92018e-02  1.00011e-01        00000 
-4.14515e-02  9.81697e-02        00000 
-4.20056e-02  9.39887e-02        00000 
-4.15787e-02  8.84676e-02        00000 
-4.16785e-02  8.30179e-02        00000 
-4.12840e-02  7.56695e-02        00000 
-3.94803e-02  6.98032e-02        00000 
-3.74652e-02  6.55671e-02        00000 
-3.75942e-02  6.46760e-02        00000 
-3.55695e-02  6.19246e-02        00000 
-3.24156e-02  5.82022e-02        00000 
-2.90008e-02  5.29415e-02        00000 
-2.59182e-02  4.71051e-02        00000 
-2.14628e-02  4.14630e-02        00000 
-1.61441e-02  3.45041e-02        00000 
-1.29141e-02  3.05021e-02        00000 
-1.11490e-02  2.78567e-02        00000 
-9.44602e-03  2.48050e-02        00000 
-8.10822e-03  2.21740e-02        00000 
-7.04548e-03  1.97724e-02        00000 
-5.16390e-03  1.65637e-02        00000 
-4.13327e-03  1.38678e-02        00000 
-3.96218e-03  1.24886e-02        00000 
-2.99546e-03  1.04139e-02        00000 
-2.23806e-03  8.79965e-03        00000 
-1.46355e-03  9.02715e-03        00000 
-1.25648e-03  9.30823e-03        00000 
-1.25410e-03  7.74612e-03        00000 
-2.24832e-03  6.87223e-03        00000 
-3.40586e-03  6.54117e-03        00000 
-4.92887e-03  7.00645e-03        00000 
-5.15606e-03  5.82438e-03        00000 
-5.10851e-03  4.58254e-03        00000 
-4.40524e-03  4.92980e-03        00000 
-3.78014e-03  6.05313e-03        00000 
-3.78140e-03  8.09368e-03        00000 
-2.38964e-03  6.08952e-03        00000 
-6.88311e-04  3.48124e-03        00000 
 4.72794e-03 -3.97218e-04        00000 
-4.25114e-03  1.38290e-01        00000 
-1.09321e-02  1.35459e-01        00000 
-1.67362e-02  1.30802e-01        00000 
-2.05281e-02  1.26278e-01        00000 
-2.48105e-02  1.24732e-01        00000 
-2.79792e-02  1.22461e-01        00000 
-3.12983e-02  1.21663e-01        00000 
-3.42446e-02  1.20296e-01        00000 
-3.71689e-02  1.19525e-01        00000 
-4.11001e-02  1.18906e-01        00000 
-4.39059e-02  1.16929e-01        00000 
-4.61972e-02  1.14304e-01        00000 
-4.74690e-02  1.09892e-01        00000 
-4.74820e-02  1.02898e-01        00000 
-4.74227e-02  9.66300e-02        00000 
-4.67345e-02  9.07526e-02        00000 
-4.58023e-02  8.40367e-02        00000 
-4.46797e-02  7.88683e-02        00000 
-4.22997e-02  7.41925e-02        00000 
-3.96716e-02  7.05258e-02        00000 
-3.62438e-02  6.57860e-02        00000 
-3.26052e-02  6.05783e-02        00000 
-2.84752e-02  5.37076e-02        00000 
-2.31299e-02  4.76446e-02        00000 
-1.81550e-02  4.21273e-02        00000 
-1.24011e-02  3.44763e-02        00000 
-8.62835e-03  2.90098e-02        00000 
-6.97358e-03  2.61083e-02        00000 
-5.96218e-03  2.36977e-02        00000 
-5.82262e-03  2.22001e-02        00000 
-5.27987e-03  2.03640e-02        00000 
-4.55648e-03  1.82470e-02        00000 
-4.52257e-03  1.72088e-02        00000 
-4.33470e-03  1.63541e-02        00000 
-3.49581e-03  1.47187e-02        00000 
-2.05659e-03  1.31757e-02        00000 
-1.94743e-03  1.25699e-02        00000 
-2.06277e-03  1.08456e-02        00000 
-2.91336e-03  9.41366e-03        00000 
-4.19117e-03  8.74340e-03        00000 
-5.74534e-03  8.00716e-03        00000 
-5.66480e-03  5.89528e-03        00000 
-5.13535e-03  5.89651e-03        00000 
-4.97876e-03  7.18049e-03        00000 
-5.14411e-03  8.41382e-03        00000 
-4.42008e-03  8.01234e-03        00000 
-3.57212e-03  5.83409e-03        00000 
-8.35618e-06  3.45519e-03        00000 
 4.65636e-03  1.25433e-03        00000 
-4.68196e-03  1.60502e-01        00000 
-1.10894e-02  1.58684e-01        00000 
-1.70825e-02  1.53790e-01        00000 
-2.22159e-02  1.48457e-01        00000 
-2.68440e-02  1.44213e-01        00000 
-3.12316e-02  1.40050e-01        00000 
-3.45321e-02  1.38665e-01        00000 
-3.73832e-02  1.37319e-01        00000 
-4.03133e-02  1.35659e-01        00000 
-4.42654e-02  1.33331e-01        00000 
-4.80010e-02  1.31203e-01        00000 
-5.02707e-02  1.28180e-01        00000 
-5.24624e-02  1.23309e-01        00000 
-5.26992e-02  1.16481e-01        00000 
-5.24687e-02  1.09753e-01        00000 
-5.07127e-02  1.03582e-01        00000 
-4.95874e-02  9.72674e-02        00000 
-4.86104e-02  9.11294e-02        00000 
-4.60203e-02  8.45616e-02        00000 
-4.25476e-02  7.75093e-02        00000 
-3.87086e-02  7.18765e-02        00000 
-3.44843e-02  6.48453e-02        00000 
-2.94485e-02  5.88035e-02        00000 
-2.35188e-02  5.23213e-02        00000 
-1.78497e-02  4.57934e-02        00000 
-1.23452e-02  3.88339e-02        00000 
-7.69354e-03  3.23895e-02        00000 
-5.95141e-03  2.91418e-02        00000 
-4.87472e-03  2.66318e-02        00000 
-5.19271e-03  2.56772e-02        00000 
-4.70346e-03  2.40610e-02        00000 
-4.34066e-03  2.25953e-02        00000 
-4.82273e-03  2.21220e-02        00000 
-4.92920e-03  2.14009e-02        00000 
-4.67182e-03  2.05451e-02        00000 
-2.82937e-03  1.74324e-02        00000 
-2.01662e-03  1.48214e-02        00000 
-2.91675e-03  1.26920e-02        00000 
-4.36103e-03  1.21896e-02        00000 
-5.38957e-03  1.10302e-02        00000 
-6.60070e-03  9.83706e-03        00000 
-5.59241e-03  8.45196e-03        00000 
-5.74366e-03  8.86805e-03        00000 
-6.10851e-03  8.72965e-03        00000 
-5.75618e-03  8.40848e-03        00000 
-5.70614e-03  7.74388e-03        00000 
-4.71978e-03  6.53088e-03        00000 
-4.34534e-04  4.74612e-03        00000 
 4.51049e-03  2.52628e-03        00000 
-5.58195e-03  1.79095e-01        00000 
-1.18355e-02  1.79196e-01        00000 
-1.81973e-02  1.74952e-01        00000 
-2.43057e-02  1.70187e-01        00000 
-2.89545e-02  1.65570e-01        00000 
-3.32579e-02  1.61214e-01        00000 
-3.77962e-02  1.58601e-01        00000 
-4.07380e-02  1.55106e-01        00000 
-4.33716e-02  1.50369e-01        00000 
-4.70590e-02  1.46968e-01        00000 
-5.01830e-02  1.43800e-01        00000 
-5.43801e-02  1.41063e-01        00000 
-5.68791e-02  1.36213e-01        00000 
-5.67081e-02  1.29175e-01        00000 
-5.55232e-02  1.22424e-01        00000 
-5.39062e-02  1.15703e-01        00000 
-5.24548e-02  1.09066e-01        00000 
-5.11761e-02  1.01209e-01        00000 
-4.81065e-02  9.43986e-02        00000 
-4.36211e-02  8.63829e-02        00000 
-3.86994e-02  7.66988e-02        00000 
-3.36040e-02  6.93160e-02        00000 
-2.78187e-02  6.17162e-02        00000 
-2.18880e-02  5.47749e-02        00000 
-1.63987e-02  4.83399e-02        00000 
-1.15794e-02  4.24149e-02        00000 
-7.82894e-03  3.66510e-02        00000 
-6.33738e-03  3.37051e-02        00000 
-5.48359e-03  3.15852e-02        00000 
-5.22449e-03  2.99725e-02        00000 
-4.79131e-03  2.86162e-02        00000 
-4.81891e-03  2.77129e-02        00000 
-4.58128e-03  2.65907e-02        00000 
-4.96863e-03  2.54843e-02        00000 
-4.37432e-03  2.32077e-02        00000 
-3.11472e-03  2.01978e-02        00000 
-3.02011e-03  1.73128e-02        00000 
-3.87671e-03  1.48603e-02        00000 
-5.67567e-03  1.43061e-02        00000 
-6.88382e-03  1.31271e-02        00000 
-6.72703e-03  1.05960e-02        00000 
-6.30503e-03  1.01528e-02        00000 
-6.52442e-03  1.07355e-02        00000 
-6.90850e-03  1.03519e-02        00000 
-7.75470e-03  8.58259e-03        00000 
-8.03169e-03  8.19959e-03        00000 
-5.20549e-03  6.84302e-03        00000 
-7.56380e-04  5.66398e-03        00000 
 4.02636e-03  3.75434e-03        00000 
-6.87649e-03  1.97809e-01        00000 
-1.37618e-02  1.98433e-01        00000 
-2.02572e-02  1.95668e-01        00000 
-2.62313e-02  1.91340e-01        00000 
-3.09255e-02  1.86649e-01        00000 
-3.51787e-02  1.81777e-01        00000 
-3.97585e-02  1.77178e-01        00000 