<?xml version="1.0" encoding="utf-8"?>
<VTKFile byte_order="LittleEndian" type="UnstructuredGrid" version="0.1">
   <UnstructuredGrid>
      <Piece NumberOfCells="7944" NumberOfPoints="4296">
         <Points>
            <DataArray Name="Points" NumberOfComponents="3" format="ascii" type="Float32">
-1.0000 -0.9592 0.0000
-1.0000 -0.9184 0.0000
-1.0000 -0.8776 0.0000
-1.0000 -0.8367 0.0000
-1.0000 -0.7959 0.0000
-1.0000 -0.7551 0.0000
-1.0000 -0.7143 0.0000
-1.0000 -0.6735 0.0000
-1.0000 -0.6327 0.0000
-1.0000 -0.5918 0.0000
-1.0000 -0.5510 0.0000
-1.0000 -0.5102 0.0000
-1.0000 -0.4694 0.0000
-1.0000 -0.4286 0.0000
-1.0000 -0.3878 0.0000
-1.0000 -0.3469 0.0000
-1.0000 -0.3061 0.0000
-1.0000 -0.2653 0.0000
-1.0000 -0.2245 0.0000
-1.0000 -0.1837 0.0000
-1.0000 -0.1429 0.0000
-1.0000 -0.1020 0.0000
-1.0000 -0.0612 0.0000
-1.0000 -0.0204 0.0000
-1.0000 0.0204 0.0000
-1.0000 0.0612 0.0000
-1.0000 0.1020 0.0000
-1.0000 0.1429 0.0000
-1.0000 0.1837 0.0000
-1.0000 0.2245 0.0000
-1.0000 0.2653 0.0000
-1.0000 0.3061 0.0000
-1.0000 0.3469 0.0000
-1.0000 0.3878 0.0000
-1.0000 0.4286 0.0000
-1.0000 0.4694 0.0000
-1.0000 0.5102 0.0000
-1.0000 0.5510 0.0000
-1.0000 0.5918 0.0000
-1.0000 0.6327 0.0000
-1.0000 0.6735 0.0000
-1.0000 0.7143 0.0000
-1.0000 0.7551 0.0000
-1.0000 0.7959 0.0000
-1.0000 0.8367 0.0000
-1.0000 0.8776 0.0000
-1.0000 0.9184 0.0000
-1.0000 0.9592 0.0000
-1.0000 1.0000 0.0000
-0.9592 -0.9592 0.0000
-0.9592 -0.9184 0.0000
-0.9592 -0.8776 0.0000
-0.9592 -0.8367 0.0000
-0.9592 -0.7959 0.0000
-0.9592 -0.7551 0.0000
-0.9592 -0.7143 0.0000
-0.9592 -0.6735 0.0000
-0.9592 -0.6327 0.0000
-0.9592 -0.5918 0.0000
-0.9592 -0.5510 0.0000
-0.9592 -0.5102 0.0000
-0.9592 -0.4694 0.0000
-0.9592 -0.4286 0.0000
-0.9592 -0.3878 0.0000
-0.9592 -0.3469 0.0000
-0.9592 -0.3061 0.0000
-0.9592 -0.2653 0.0000
-0.9592 -0.2245 0.0000
-0.9592 -0.1837 0.0000
-0.9592 -0.1429 0.0000
-0.9592 -0.1020 0.0000
-0.9592 -0.0612 0.0000
-0.9592 -0.0204 0.0000
-0.9592 0.0204 0.0000
-0.9592 0.0612 0.0000
-0.9592 0.1020 0.0000
-0.9592 0.1429 0.0000
-0.9592 0.1837 0.0000
-0.9592 0.2245 0.0000
-0.9592 0.2653 0.0000
-0.9592 0.3061 0.0000
-0.9592 0.3469 0.0000
-0.9592 0.3878 0.0000
-0.9592 0.4286 0.0000
-0.9592 0.4694 0.0000
-0.9592 0.5102 0.0000
-0.9592 0.5510 0.0000
-0.9592 0.5918 0.0000
-0.9592 0.6327 0.0000
-0.9592 0.6735 0.0000
-0.9592 0.7143 0.0000
-0.9592 0.7551 0.0000
-0.9592 0.7959 0.0000
-0.9592 0.8367 0.0000
-0.9592 0.8776 0.0000
-0.9592 0.9184 0.0000
-0.9592 0.9592 0.0000
-0.9592 1.0000 0.0000
-0.9184 -0.9592 0.0000
-0.9184 -0.9184 0.0000
-0.9184 -0.8776 0.0000
-0.9184 -0.8367 0.0000
-0.9184 -0.7959 0.0000
-0.9184 -0.7551 0.0000
-0.9184 -0.7143 0.0000
-0.9184 -0.6735 0.0000
-0.9184 -0.6327 0.0000
-0.9184 -0.5918 0.0000
-0.9184 -0.5510 0.0000
-0.9184 -0.5102 0.0000
-0.9184 -0.4694 0.0000
-0.9184 -0.4286 0.0000
-0.9184 -0.3878 0.0000
-0.9184 -0.3469 0.0000
-0.9184 -0.3061 0.0000
-0.9184 -0.2653 0.0000
-0.9184 -0.2245 0.0000
-0.9184 -0.1837 0.0000
-0.9184 -0.1429 0.0000
-0.9184 -0.1020 0.0000
-0.9184 -0.0612 0.0000
-0.9184 -0.0204 0.0000
-0.9184 0.0204 0.0000
-0.9184 0.0612 0.0000
-0.9184 0.1020 0.0000
-0.9184 0.1429 0.0000
-0.9184 0.1837 0.0000
-0.9184 0.2245 0.0000
-0.9184 0.2653 0.0000
-0.9184 0.3061 0.0000
-0.9184 0.3469 0.0000
-0.9184 0.3878 0.0000
-0.9184 0.4286 0.0000
-0.9184 0.4694 0.0000
-0.9184 0.5102 0.0000
-0.9184 0.5510 0.0000
-0.9184 0.5918 0.0000
-0.9184 0.6327 0.0000
-0.9184 0.6735 0.0000
-0.9184 0.7143 0.0000
-0.9184 0.7551 0.0000
-0.9184 0.7959 0.0000
-0.9184 0.8367 0.0000
-0.9184 0.8776 0.0000
-0.9184 0.9184 0.0000
-0.9184 0.9592 0.0000
-0.9184 1.0000 0.0000
-0.8776 -0.9592 0.0000
-0.8776 -0.9184 0.0000
-0.8776 -0.8776 0.0000
-0.8776 -0.8367 0.0000
-0.8776 -0.7959 0.0000
-0.8776 -0.7551 0.0000
-0.8776 -0.7143 0.0000
-0.8776 -0.6735 0.0000
-0.8776 -0.6327 0.0000
-0.8776 -0.5918 0.0000
-0.8776 -0.5510 0.0000
-0.8776 -0.5102 0.0000
-0.8776 -0.4694 0.0000
-0.8776 -0.4286 0.0000
-0.8776 -0.3878 0.0000
-0.8776 -0.3469 0.0000
-0.8776 -0.3061 0.0000
-0.8776 -0.2653 0.0000
-0.8776 -0.2245 0.0000
-0.8776 -0.1837 0.0000
-0.8776 -0.1429 0.0000
-0.8776 -0.1020 0.0000
-0.8776 -0.0612 0.0000
-0.8776 -0.0204 0.0000
-0.8776 0.0204 0.0000
-0.8776 0.0612 0.0000
-0.8776 0.1020 0.0000
-0.8776 0.1429 0.0000
-0.8776 0.1837 0.0000
-0.8776 0.2245 0.0000
-0.8776 0.2653 0.0000
-0.8776 0.3061 0.0000
-0.8776 0.3469 0.0000
-0.8776 0.3878 0.0000
-0.8776 0.4286 0.0000
-0.8776 0.4694 0.0000
-0.8776 0.5102 0.0000
-0.8776 0.5510 0.0000
-0.8776 0.5918 0.0000
-0.8776 0.6327 0.0000
-0.8776 0.6735 0.0000
-0.8776 0.7143 0.0000
-0.8776 0.7551 0.0000
-0.8776 0.7959 0.0000
-0.8776 0.8367 0.0000
-0.8776 0.8776 0.0000
-0.8776 0.9184 0.0000
-0.8776 0.9592 0.0000
-0.8776 1.0000 0.0000
-0.8367 -0.9592 0.0000
-0.8367 -0.9184 0.0000
-0.8367 -0.8776 0.0000
-0.8367 -0.8367 0.0000
-0.8367 -0.7959 0.0000
-0.8367 -0.7551 0.0000
-0.8367 -0.7143 0.0000
-0.8367 -0.6735 0.0000
-0.8367 -0.6327 0.0000
-0.8367 -0.5918 0.0000
-0.8367 -0.5510 0.0000
-0.8367 -0.5102 0.0000
-0.8367 -0.4694 0.0000
-0.8367 -0.4286 0.0000
-0.8367 -0.3878 0.0000
-0.8367 -0.3469 0.0000
-0.8367 -0.3061 0.0000
-0.8367 -0.2653 0.0000
-0.8367 -0.2245 0.0000
-0.8367 -0.1837 0.0000
-0.8367 -0.1429 0.0000
-0.8367 -0.1020 0.0000
-0.8367 -0.0612 0.0000
-0.8367 -0.0204 0.0000
-0.8367 0.0204 0.0000
-0.8367 0.0612 0.0000
-0.8367 0.1020 0.0000
-0.8367 0.1429 0.0000
-0.8367 0.1837 0.0000
-0.8367 0.2245 0.0000
-0.8367 0.2653 0.0000
-0.8367 0.3061 0.0000
-0.8367 0.3469 0.0000
-0.8367 0.3878 0.0000
-0.8367 0.4286 0.0000
-0.8367 0.4694 0.0000
-0.8367 0.5102 0.0000
-0.8367 0.5510 0.0000
-0.8367 0.5918 0.0000
-0.8367 0.6327 0.0000
-0.8367 0.6735 0.0000
-0.8367 0.7143 0.0000
-0.8367 0.7551 0.0000
-0.8367 0.7959 0.0000
-0.8367 0.8367 0.0000
-0.8367 0.8776 0.0000
-0.8367 0.9184 0.0000
-0.8367 0.9592 0.0000
-0.8367 1.0000 0.0000
-0.7959 -0.9592 0.0000
-0.7959 -0.9184 0.0000
-0.7959 -0.8776 0.0000
-0.7959 -0.8367 0.0000
-0.7959 -0.7959 0.0000
-0.7959 -0.7551 0.0000
-0.7959 -0.7143 0.0000
-0.7959 -0.6735 0.0000
-0.7959 -0.6327 0.0000
-0.7959 -0.5918 0.0000
-0.7959 -0.5510 0.0000
-0.7959 -0.5102 0.0000
-0.7959 -0.4694 0.0000
-0.7959 -0.4286 0.0000
-0.7959 -0.3878 0.0000
-0.7959 -0.3469 0.0000
-0.7959 -0.3061 0.0000
-0.7959 -0.2653 0.0000
-0.7959 -0.2245 0.0000
-0.7959 -0.1837 0.0000
-0.7959 -0.1429 0.0000
-0.7959 -0.1020 0.0000
-0.7959 -0.0612 0.0000
-0.7959 -0.0204 0.0000
-0.7959 0.0204 0.0000
-0.7959 0.0612 0.0000
-0.7959 0.1020 0.0000
-0.7959 0.1429 0.0000
-0.7959 0.1837 0.0000
-0.7959 0.2245 0.0000
-0.7959 0.2653 0.0000
-0.7959 0.3061 0.0000
-0.7959 0.3469 0.0000
-0.7959 0.3878 0.0000
-0.7959 0.4286 0.0000
-0.7959 0.4694 0.0000
-0.7959 0.5102 0.0000
-0.7959 0.5510 0.0000
-0.7959 0.5918 0.0000
-0.7959 0.6327 0.0000
-0.7959 0.6735 0.0000
-0.7959 0.7143 0.0000
-0.7959 0.7551 0.0000
-0.7959 0.7959 0.0000
-0.7959 0.8367 0.0000
-0.7959 0.8776 0.0000
-0.7959 0.9184 0.0000
-0.7959 0.9592 0.0000
-0.7959 1.0000 0.0000
-0.7551 -0.9592 0.0000
-0.7551 -0.9184 0.0000
-0.7551 -0.8776 0.0000
-0.7551 -0.8367 0.0000
-0.7551 -0.7959 0.0000
-0.7551 -0.7551 0.0000
-0.7551 -0.7143 0.0000
-0.7551 -0.6735 0.0000
-0.7551 -0.6327 0.0000
-0.7551 -0.5918 0.0000
-0.7551 -0.5510 0.0000
-0.7551 -0.5102 0.0000
-0.7551 -0.4694 0.0000
-0.7551 -0.4286 0.0000
-0.7551 -0.3878 0.0000
-0.7551 -0.3469 0.0000
-0.7551 -0.3061 0.0000
-0.7551 -0.2653 0.0000
-0.7551 -0.2245 0.0000
-0.7551 -0.1837 0.0000
-0.7551 -0.1429 0.0000
-0.7551 -0.1020 0.0000
-0.7551 -0.0612 0.0000
-0.7551 -0.0204 0.0000
-0.7551 0.0204 0.0000
-0.7551 0.0612 0.0000
-0.7551 0.1020 0.0000
-0.7551 0.1429 0.0000
-0.7551 0.1837 0.0000
-0.7551 0.2245 0.0000
-0.7551 0.2653 0.0000
-0.7551 0.3061 0.0000
-0.7551 0.3469 0.0000
-0.7551 0.3878 0.0000
-0.7551 0.4286 0.0000
-0.7551 0.4694 0.0000
-0.7551 0.5102 0.0000
-0.7551 0.5510 0.0000
-0.7551 0.5918 0.0000
-0.7551 0.6327 0.0000
-0.7551 0.6735 0.0000
-0.7551 0.7143 0.0000
-0.7551 0.7551 0.0000
-0.7551 0.7959 0.0000
-0.7551 0.8367 0.0000
-0.7551 0.8776 0.0000
-0.7551 0.9184 0.0000
-0.7551 0.9592 0.0000
-0.7551 1.0000 0.0000
-0.7143 -0.9592 0.0000
-0.7143 -0.9184 0.0000
-0.7143 -0.8776 0.0000
-0.7143 -0.8367 0.0000
-0.7143 -0.7959 0.0000
-0.7143 -0.7551 0.0000
-0.7143 -0.7143 0.0000
-0.7143 -0.6735 0.0000
-0.7143 -0.6327 0.0000
-0.7143 -0.5918 0.0000
-0.7143 -0.5510 0.0000
-0.7143 -0.5102 0.0000
-0.7143 -0.4694 0.0000
-0.7143 -0.4286 0.0000
-0.7143 -0.3878 0.0000
-0.7143 -0.3469 0.0000
-0.7143 -0.3061 0.0000
-0.7143 -0.2653 0.0000
-0.7143 -0.2245 0.0000
-0.7143 -0.1837 0.0000
-0.7143 -0.1429 0.0000
-0.7143 -0.1020 0.0000
-0.7143 -0.0612 0.0000
-0.7143 -0.0204 0.0000
-0.7143 0.0204 0.0000
-0.7143 0.0612 0.0000
-0.7143 0.1020 0.0000
-0.7143 0.1429 0.0000
-0.7143 0.1837 0.0000
-0.7143 0.2245 0.0000
-0.7143 0.2653 0.0000
-0.7143 0.3061 0.0000
-0.7143 0.3469 0.0000
-0.7143 0.3878 0.0000
-0.7143 0.4286 0.0000
-0.7143 0.4694 0.0000
-0.7143 0.5102 0.0000
-0.7143 0.5510 0.0000
-0.7143 0.5918 0.0000
-0.7143 0.6327 0.0000
-0.7143 0.6735 0.0000
-0.7143 0.7143 0.0000
-0.7143 0.7551 0.0000
-0.7143 0.7959 0.0000
-0.7143 0.8367 0.0000
-0.7143 0.8776 0.0000
-0.7143 0.9184 0.0000
-0.7143 0.9592 0.0000
-0.7143 1.0000 0.0000
-0.6735 -0.9592 0.0000
-0.6735 -0.9184 0.0000
-0.6735 -0.8776 0.0000
-0.6735 -0.8367 0.0000
-0.6735 -0.7959 0.0000
-0.6735 -0.7551 0.0000
-0.6735 -0.7143 0.0000
-0.6735 -0.6735 0.0000
-0.6735 -0.6327 0.0000
-0.6735 -0.5918 0.0000
-0.6735 -0.5510 0.0000
-0.6735 -0.5102 0.0000
-0.6735 -0.4694 0.0000
-0.6735 -0.4286 0.0000
-0.6735 -0.3878 0.0000
-0.6735 -0.3469 0.0000
-0.6735 -0.3061 0.0000
-0.6735 -0.2653 0.0000
-0.6735 -0.2245 0.0000
-0.6735 -0.1837 0.0000
-0.6735 -0.1429 0.0000
-0.6735 -0.1020 0.0000
-0.6735 -0.0612 0.0000
-0.6735 -0.0204 0.0000
-0.6735 0.0204 0.0000
-0.6735 0.0612 0.0000
-0.6735 0.1020 0.0000
-0.6735 0.1429 0.0000
-0.6735 0.1837 0.0000
-0.6735 0.2245 0.0000
-0.6735 0.2653 0.0000
-0.6735 0.3061 0.0000
-0.6735 0.3469 0.0000
-0.6735 0.3878 0.0000
-0.6735 0.4286 0.0000
-0.6735 0.4694 0.0000
-0.6735 0.5102 0.0000
-0.6735 0.5510 0.0000
-0.6735 0.5918 0.0000
[...]
         <PointData>
            <DataArray Name="fValues" NumberOfComponents="3" format="ascii" type="Float64">
 3.79136e-03  1.80374e-02        00000 
 4.45606e-03  3.76407e-02        00000 
 3.72049e-03  5.67071e-02        00000 
 1.58158e-03  7.71844e-02        00000 
-2.37494e-04  9.88507e-02        00000 
-2.63206e-04  1.21846e-01        00000 
 2.17213e-04  1.44858e-01        00000 
 1.07724e-03  1.66811e-01        00000 
 8.27459e-04  1.86767e-01        00000 
 1.63413e-04  2.06141e-01        00000 
-1.93114e-04  2.24750e-01        00000 
 1.08508e-04  2.42869e-01        00000 
 1.93279e-03  2.61422e-01        00000 
 3.11176e-03  2.83377e-01        00000 
 4.18638e-03  3.05122e-01        00000 
 4.05500e-03  3.27419e-01        00000 
 3.54366e-03  3.50674e-01        00000 
 3.28747e-03  3.74591e-01        00000 
 2.96224e-03  3.97774e-01        00000 
 2.83912e-03  4.14716e-01        00000 
 2.20443e-03  4.33034e-01        00000 
 1.58492e-03  4.52101e-01        00000 
 1.18797e-03  4.71056e-01        00000 
 7.61721e-04  4.89824e-01        00000 
 4.73286e-04  5.09168e-01        00000 
-1.63153e-04  5.28676e-01        00000 
-1.03147e-03  5.50040e-01        00000 
-1.66790e-03  5.70752e-01        00000 
-2.15894e-03  5.91743e-01        00000 
-1.99731e-03  6.11638e-01        00000 
-1.67530e-03  6.31799e-01        00000 
-1.28403e-03  6.52108e-01        00000 
-3.96994e-04  6.72820e-01        00000 
 1.16569e-04  6.93008e-01        00000 
 1.38595e-03  7.09687e-01        00000 
 7.82194e-04  7.29256e-01        00000 
 3.24818e-04  7.49884e-01        00000 
-6.10257e-04  7.71040e-01        00000 
-8.74014e-04  7.93520e-01        00000 
-5.57927e-04  8.13998e-01        00000 
-4.01595e-04  8.35212e-01        00000 
-1.20241e-03  8.55751e-01        00000 
-1.17632e-03  8.77539e-01        00000 
-2.27032e-04  9.01221e-01        00000 
 4.39072e-04  9.22493e-01        00000 
 9.65647e-04  9.40933e-01        00000 
 1.65494e-03  9.60189e-01        00000 
 2.40821e-03  9.79723e-01        00000 
 2.62526e-03  9.96814e-01        00000 
-4.02989e-04  1.79941e-02        00000 
 2.18633e-05  3.82618e-02        00000 
-1.34585e-03  5.66752e-02        00000 
-3.15503e-03  7.46653e-02        00000 
-5.19399e-03  9.51105e-02        00000 
-5.63290e-03  1.16645e-01        00000 
-5.55235e-03  1.36442e-01        00000 
-5.23729e-03  1.57825e-01        00000 
-4.78580e-03  1.78474e-01        00000 
-4.56423e-03  1.97727e-01        00000 
-4.31997e-03  2.16363e-01        00000 
-3.94919e-03  2.34265e-01        00000 
-3.38136e-03  2.52463e-01        00000 
-3.09948e-03  2.73396e-01        00000 
-2.90381e-03  2.95004e-01        00000 
-2.21429e-03  3.15314e-01        00000 
-2.36985e-03  3.36700e-01        00000 
-3.16493e-03  3.58768e-01        00000 
-3.14572e-03  3.81335e-01        00000 
-3.19245e-03  4.03610e-01        00000 
-4.68440e-03  4.25316e-01        00000 
-5.80760e-03  4.46688e-01        00000 
-6.59403e-03  4.66993e-01        00000 
-7.14917e-03  4.85319e-01        00000 
-7.46845e-03  5.03471e-01        00000 
-7.55724e-03  5.21584e-01        00000 
-7.76239e-03  5.40840e-01        00000 
-8.35443e-03  5.61248e-01        00000 
-8.66303e-03  5.80942e-01        00000 
-8.81776e-03  6.00877e-01        00000 
-8.26737e-03  6.21196e-01        00000 
-7.53030e-03  6.41592e-01        00000 
-7.59475e-03  6.63032e-01        00000 
-8.12382e-03  6.84660e-01        00000 
-8.19369e-03  7.02108e-01        00000 
-9.13313e-03  7.21741e-01        00000 
-8.72180e-03  7.41336e-01        00000 
-9.14669e-03  7.61232e-01        00000 
-9.02547e-03  7.81865e-01        00000 
-7.94450e-03  8.01712e-01        00000 
-9.38474e-03  8.24273e-01        00000 
-1.08317e-02  8.45188e-01        00000 
-9.14834e-03  8.64893e-01        00000 
-7.71190e-03  8.86580e-01        00000 
-6.87583e-03  9.03893e-01        00000 
-6.08323e-03  9.22289e-01        00000 
-4.84658e-03  9.40964e-01        00000 
-3.82443e-03  9.60699e-01        00000 
-4.09076e-05  9.81965e-01        00000 
-3.29075e-03  1.53747e-02        00000 
-3.17790e-03  3.42200e-02        00000 
-3.85348e-03  5.26346e-02        00000 
-6.09315e-03  7.17143e-02        00000 
-8.07410e-03  9.04604e-02        00000 
-9.59379e-03  1.10882e-01        00000 
-9.42732e-03  1.31224e-01        00000 
-9.00156e-03  1.50276e-01        00000 
-8.96028e-03  1.71330e-01        00000 
-8.80273e-03  1.91476e-01        00000 
-8.50050e-03  2.09710e-01        00000 
-7.86266e-03  2.28485e-01        00000 
-7.85414e-03  2.47658e-01        00000 
-7.96174e-03  2.69327e-01        00000 
-7.66921e-03  2.91101e-01        00000 
-7.38717e-03  3.12025e-01        00000 
-7.52156e-03  3.31878e-01        00000 
-7.50529e-03  3.51639e-01        00000 
-7.51475e-03  3.71277e-01        00000 
-7.18293e-03  3.91417e-01        00000 
-7.49372e-03  4.13671e-01        00000 
-9.07341e-03  4.34327e-01        00000 
-1.05700e-02  4.54763e-01        00000 
-1.19768e-02  4.75033e-01        00000 
-1.29594e-02  4.95197e-01        00000 
-1.33164e-02  5.14778e-01        00000 
-1.34599e-02  5.32960e-01        00000 
-1.32660e-02  5.52928e-01        00000 
-1.33352e-02  5.72073e-01        00000 
-1.40776e-02  5.91858e-01        00000 
-1.48065e-02  6.12099e-01        00000 
-1.52641e-02  6.32499e-01        00000 
-1.61578e-02  6.53717e-01        00000 
-1.73502e-02  6.76116e-01        00000 
-1.79455e-02  6.94447e-01        00000 
-1.85034e-02  7.12574e-01        00000 
-1.81276e-02  7.30213e-01        00000 
-1.80427e-02  7.49838e-01        00000 
-1.75431e-02  7.70599e-01        00000 
-1.82108e-02  7.92383e-01        00000 
-1.81459e-02  8.09235e-01        00000 
-1.70091e-02  8.28472e-01        00000 
-1.53931e-02  8.47203e-01        00000 
-1.43102e-02  8.66450e-01        00000 
-1.33690e-02  8.85501e-01        00000 
-1.14537e-02  9.06018e-01        00000 
-8.85105e-03  9.23830e-01        00000 
-5.88327e-03  9.41885e-01        00000 
-7.76646e-04  9.61169e-01        00000 
-5.44062e-03  1.35075e-02        00000 
-6.03935e-03  3.25500e-02        00000 
-6.63852e-03  5.00625e-02        00000 
-8.74036e-03  6.81863e-02        00000 
-1.06283e-02  8.62335e-02        00000 
-1.22798e-02  1.04810e-01        00000 
-1.31544e-02  1.23955e-01        00000 
-1.36231e-02  1.42834e-01        00000 
-1.39198e-02  1.62313e-01        00000 
-1.40698e-02  1.81862e-01        00000 
-1.30736e-02  2.03549e-01        00000 
-1.21218e-02  2.24246e-01        00000 
-1.22499e-02  2.43105e-01        00000 
-1.24349e-02  2.66441e-01        00000 
-1.20797e-02  2.87842e-01        00000 
-1.17940e-02  3.08135e-01        00000 
-1.15317e-02  3.28261e-01        00000 
-1.07334e-02  3.47922e-01        00000 
-1.00030e-02  3.66438e-01        00000 
-9.86209e-03  3.85694e-01        00000 
-1.00193e-02  4.07923e-01        00000 
-9.97336e-03  4.27328e-01        00000 
-1.08588e-02  4.46249e-01        00000 
-1.21584e-02  4.66093e-01        00000 
-1.36287e-02  4.85849e-01        00000 
-1.54639e-02  5.05291e-01        00000 
-1.71511e-02  5.24354e-01        00000 
-1.83680e-02  5.45554e-01        00000 
-1.96590e-02  5.66864e-01        00000 
-2.09598e-02  5.86681e-01        00000 
-2.23485e-02  6.06868e-01        00000 
-2.39733e-02  6.27887e-01        00000 
-2.54238e-02  6.48671e-01        00000 
-2.67029e-02  6.67827e-01        00000 
-2.65803e-02  6.85166e-01        00000 
-2.68235e-02  7.02638e-01        00000 
-2.62768e-02  7.20492e-01        00000 
-2.67270e-02  7.39801e-01        00000 
-2.67868e-02  7.58304e-01        00000 
-2.70866e-02  7.78339e-01        00000 
-2.60892e-02  7.97778e-01        00000 
-2.44025e-02  8.15540e-01        00000 
-2.13585e-02  8.33255e-01        00000 
-1.93228e-02  8.50676e-01        00000 
-1.76896e-02  8.71516e-01        00000 
-1.43825e-02  8.89853e-01        00000 
-1.03110e-02  9.05351e-01        00000 
-5.78445e-03  9.21675e-01        00000 
-1.29019e-03  9.41253e-01        00000 
-6.61859e-03  1.21874e-02        00000 
-8.72395e-03  2.79184e-02        00000 
-8.89374e-03  4.65097e-02        00000 
-1.09184e-02  6.54354e-02        00000 
-1.30546e-02  8.37466e-02        00000 
-1.48298e-02  1.00502e-01        00000 
-1.63147e-02  1.19706e-01        00000 
-1.85288e-02  1.40829e-01        00000 
-1.96434e-02  1.59689e-01        00000 
-1.94129e-02  1.77373e-01        00000 
-1.82544e-02  1.95643e-01        00000 
-1.77275e-02  2.15549e-01        00000 
-1.73566e-02  2.34614e-01        00000 
-1.72289e-02  2.58601e-01        00000 
-1.65218e-02  2.82358e-01        00000 
-1.58308e-02  3.03112e-01        00000 
-1.49152e-02  3.23373e-01        00000 
-1.38457e-02  3.42993e-01        00000 
-1.27050e-02  3.61286e-01        00000 
-1.22901e-02  3.79837e-01        00000 
-1.23643e-02  4.02120e-01        00000 
-1.23223e-02  4.23789e-01        00000 
-1.27276e-02  4.41071e-01        00000 
-1.44558e-02  4.59136e-01        00000 
-1.66527e-02  4.78304e-01        00000 
-1.88200e-02  4.97534e-01        00000 
-2.12448e-02  5.17431e-01        00000 
-2.37995e-02  5.37667e-01        00000 
-2.55747e-02  5.59873e-01        00000 
-2.73688e-02  5.82196e-01        00000 
-2.97843e-02  6.05979e-01        00000 
-3.29909e-02  6.24606e-01        00000 
-3.41859e-02  6.43051e-01        00000 
-3.43571e-02  6.60064e-01        00000 
-3.43300e-02  6.76970e-01        00000 
-3.44320e-02  6.94079e-01        00000 
-3.46143e-02  7.10511e-01        00000 
-3.50215e-02  7.28622e-01        00000 
-3.50692e-02  7.46247e-01        00000 
-3.50712e-02  7.67901e-01        00000 
-3.42701e-02  7.88548e-01        00000 
-3.12623e-02  8.05766e-01        00000 
-2.83129e-02  8.22097e-01        00000 
-2.52278e-02  8.38941e-01        00000 
-2.05228e-02  8.54925e-01        00000 
-1.53780e-02  8.71981e-01        00000 
-1.08518e-02  8.88313e-01        00000 
-6.73759e-03  9.04985e-01        00000 
-8.03846e-04  9.22103e-01        00000 
-7.31948e-03  1.06054e-02        00000 
-9.65209e-03  2.71898e-02        00000 
-1.10063e-02  4.28928e-02        00000 
-1.25101e-02  6.14968e-02        00000 
-1.47160e-02  7.94907e-02        00000 
-1.73966e-02  9.64842e-02        00000 
-1.95691e-02  1.16622e-01        00000 
-2.17172e-02  1.35870e-01        00000 
-2.40002e-02  1.55711e-01        00000 
-2.36043e-02  1.74804e-01        00000 
-2.31206e-02  1.92191e-01        00000 
-2.28663e-02  2.07430e-01        00000 
-2.24736e-02  2.25766e-01        00000 
-2.19685e-02  2.47426e-01        00000 
-2.15665e-02  2.71317e-01        00000 
-1.95572e-02  2.95544e-01        00000 
-1.82917e-02  3.15815e-01        00000 
-1.69737e-02  3.34375e-01        00000 
-1.58104e-02  3.53722e-01        00000 
-1.51902e-02  3.73674e-01        00000 
-1.50256e-02  3.94320e-01        00000 
-1.54740e-02  4.15322e-01        00000 
-1.63203e-02  4.34650e-01        00000 
-1.79507e-02  4.53560e-01        00000 
-2.07886e-02  4.74031e-01        00000 
-2.36404e-02  4.94115e-01        00000 
-2.63962e-02  5.14014e-01        00000 
-2.90625e-02  5.33795e-01        00000 
-3.19282e-02  5.54971e-01        00000 
-3.47840e-02  5.76620e-01        00000 
-3.81328e-02  5.97540e-01        00000 
-4.16172e-02  6.16713e-01        00000 
-4.28288e-02  6.35810e-01        00000 
-4.29053e-02  6.52041e-01        00000 
-4.32761e-02  6.68425e-01        00000 
-4.38142e-02  6.83867e-01        00000 
-4.45174e-02  6.99942e-01        00000 
-4.48147e-02  7.17664e-01        00000 
-4.40132e-02  7.37916e-01        00000 
-4.27993e-02  7.58885e-01        00000 
-4.05954e-02  7.76125e-01        00000 
-3.82299e-02  7.94198e-01        00000 
-3.53173e-02  8.10682e-01        00000 
-3.02580e-02  8.24980e-01        00000 
-2.42798e-02  8.39823e-01        00000 
-1.83221e-02  8.55666e-01        00000 
-1.18821e-02  8.70788e-01        00000 
-8.05517e-03  8.86762e-01        00000 
-7.04369e-05  9.01173e-01        00000 
-7.82011e-03  1.16461e-02        00000 
-1.02511e-02  2.68705e-02        00000 
-1.21673e-02  4.22570e-02        00000 
-1.37122e-02  5.77662e-02        00000 
-1.63575e-02  7.66800e-02        00000 
-1.98030e-02  9.44236e-02        00000 
-2.25746e-02  1.12747e-01        00000 
-2.48801e-02  1.31365e-01        00000 
-2.67006e-02  1.49341e-01        00000 
-2.68309e-02  1.68544e-01        00000 
-2.69403e-02  1.85334e-01        00000 
-2.68709e-02  2.00934e-01        00000 
-2.68243e-02  2.17058e-01        00000 
-2.63784e-02  2.37543e-01        00000 
-2.53886e-02  2.59056e-01        00000 
-2.37182e-02  2.82768e-01        00000 
-2.17370e-02  3.04982e-01        00000 
-1.95623e-02  3.25504e-01        00000 
-1.81145e-02  3.43066e-01        00000 
-1.75401e-02  3.64005e-01        00000 
-1.74914e-02  3.85933e-01        00000 
-1.88354e-02  4.06709e-01        00000 
-2.01724e-02  4.25970e-01        00000 
-2.29280e-02  4.47945e-01        00000 
-2.60330e-02  4.70649e-01        00000 
-2.95319e-02  4.90543e-01        00000 
-3.28656e-02  5.10791e-01        00000 
-3.61130e-02  5.32466e-01        00000 
-3.92892e-02  5.52469e-01        00000 
-4.25114e-02  5.71805e-01        00000 
-4.62464e-02  5.89805e-01        00000 
-4.97481e-02  6.07961e-01        00000 
-5.16692e-02  6.25561e-01        00000 
-5.20024e-02  6.43473e-01        00000 
-5.23721e-02  6.60988e-01        00000 
-5.31433e-02  6.75861e-01        00000 
-5.31971e-02  6.91324e-01        00000 
-5.33649e-02  7.09849e-01        00000 
-5.30548e-02  7.31125e-01        00000 
-5.03201e-02  7.47019e-01        00000 
-4.73917e-02  7.62639e-01        00000 
-4.45140e-02  7.80366e-01        00000 
-4.08103e-02  7.96648e-01        00000 
-3.50992e-02  8.10038e-01        00000 
-2.85090e-02  8.22937e-01        00000 
-2.05712e-02  8.35232e-01        00000 
-1.61363e-02  8.53487e-01        00000 
-9.38449e-03  8.66793e-01        00000 
-1.72867e-03  8.79421e-01        00000 
-8.55982e-03  1.14694e-02        00000 
-1.13000e-02  2.45292e-02        00000 
-1.32013e-02  4.08683e-02        00000 
-1.57132e-02  5.85843e-02        00000 
-1.87516e-02  7.36169e-02        00000 
-2.18438e-02  9.11680e-02        00000 
-2.52652e-02  1.08882e-01        00000 
-2.78889e-02  1.27516e-01        00000 
-2.96067e-02  1.45637e-01        00000 
-2.98896e-02  1.61531e-01        00000 
-3.03088e-02  1.77340e-01        00000 
-3.03338e-02  1.92540e-01        00000 
-3.00883e-02  2.07816e-01        00000 
-2.96048e-02  2.28288e-01        00000 
-2.85347e-02  2.50607e-01        00000 
-2.62367e-02  2.71966e-01        00000 
-2.41547e-02  2.93263e-01        00000 
-2.23932e-02  3.13945e-01        00000 
-2.05155e-02  3.34678e-01        00000 
-2.00863e-02  3.55677e-01        00000 
-2.11049e-02  3.76892e-01        00000 
-2.24070e-02  3.98660e-01        00000 
-2.40763e-02  4.20133e-01        00000 
-2.78404e-02  4.42362e-01        00000 
-3.18088e-02  4.63832e-01        00000 
-3.55533e-02  4.86745e-01        00000 
-3.89509e-02  5.09032e-01        00000 
-4.23016e-02  5.30119e-01        00000 
-4.62036e-02  5.50494e-01        00000 
-5.04378e-02  5.69989e-01        00000 
-5.41604e-02  5.85566e-01        00000 
-5.79946e-02  6.01597e-01        00000 
-6.02419e-02  6.17285e-01        00000 
-6.10284e-02  6.33760e-01        00000 
-6.15815e-02  6.51372e-01        00000 
-6.22236e-02  6.68081e-01        00000 
-6.21837e-02  6.84410e-01        00000 
-6.13030e-02  7.03086e-01        00000 
-5.93771e-02  7.20349e-01        00000 
-5.67688e-02  7.35275e-01        00000 
-5.39598e-02  7.51452e-01        00000 
-5.02232e-02  7.67602e-01        00000 
-4.51801e-02  7.81311e-01        00000 
-3.84149e-02  7.92867e-01        00000 
-3.06774e-02  8.04470e-01        00000 
-2.53292e-02  8.19231e-01        00000 
-2.01787e-02  8.36050e-01        00000 
-1.12534e-02  8.45841e-01        00000 
-1.84979e-03  8.53483e-01        00000 
-9.13333e-03  1.19346e-02        00000 
-1.23325e-02  2.28153e-02        00000 
-1.50386e-02  3.82407e-02        00000 
-1.84153e-02  5.52019e-02        00000 
-2.14457e-02  7.08156e-02        00000 
-2.39821e-02  8.56012e-02        00000 
-2.75970e-02  1.03773e-01        00000 
-3.05560e-02  1.22340e-01        00000 
-3.30142e-02  1.38891e-01        00000 
-3.32088e-02  1.54200e-01        00000 
-3.32337e-02  1.68717e-01        00000 
-3.33163e-02  1.84772e-01        00000 
-3.26842e-02  2.01897e-01        00000 
-3.21142e-02  2.22947e-01        00000 
-3.11185e-02  2.43069e-01        00000 
-2.87018e-02  2.62786e-01        00000 
-2.65328e-02  2.82394e-01        00000 
-2.49896e-02  3.02710e-01        00000 
-2.39438e-02  3.24530e-01        00000 
-2.36418e-02  3.46835e-01        00000 
-2.48634e-02  3.67959e-01        00000 
-2.65274e-02  3.89412e-01        00000 
-2.97671e-02  4.12538e-01        00000 
-3.37472e-02  4.37329e-01        00000 
-3.77007e-02  4.62376e-01        00000 
-4.13847e-02  4.86012e-01        00000 
-4.52721e-02  5.08634e-01        00000 
-4.97950e-02  5.29398e-01        00000 
-5.42589e-02  5.48800e-01        00000 
-5.82155e-02  5.67939e-01        00000 
-6.20364e-02  5.83231e-01        00000 
-6.57852e-02  5.97710e-01        00000 
-6.81356e-02  6.12064e-01        00000 
-7.04926e-02  6.27845e-01        00000 
-7.08932e-02  6.45395e-01        00000 
-6.99149e-02  6.62337e-01        00000 
-6.92321e-02  6.75967e-01        00000 
-6.74165e-02  6.92943e-01        00000 
-6.54269e-02  7.08216e-01        00000 
-6.26226e-02  7.22720e-01        00000 
-5.94069e-02  7.36980e-01        00000 
-5.47803e-02  7.51896e-01        00000 
-4.78131e-02  7.64017e-01        00000 
-4.08217e-02  7.77474e-01        00000 
-3.52103e-02  7.90724e-01        00000 
-2.98495e-02  8.02482e-01        00000 
-2.19984e-02  8.14538e-01        00000 
-1.20993e-02  8.22414e-01        00000 
-1.93013e-03  8.32230e-01        00000 
-8.78464e-03  1.35006e-02        00000 
-1.31801e-02  2.32782e-02        00000 
-1.75773e-02  3.70450e-02        00000 
-2.11891e-02  5.15616e-02        00000 
-2.40212e-02  6.69389e-02        00000 
-2.64127e-02  8.16286e-02        00000 
-2.88394e-02  9.56169e-02        00000 
-3.28309e-02  1.13845e-01        00000 
-3.57029e-02  1.30853e-01        00000 
-3.63711e-02  1.47085e-01        00000 
-3.66259e-02  1.63135e-01        00000 
-3.62324e-02  1.78945e-01        00000 
-3.54665e-02  1.95185e-01        00000 
-3.49002e-02  2.15742e-01        00000 
-3.30864e-02  2.34030e-01        00000 
-3.09499e-02  2.52346e-01        00000 
-2.90869e-02  2.70295e-01        00000 
-2.78560e-02  2.91138e-01        00000 
-2.70326e-02  3.13538e-01        00000 
-2.70295e-02  3.36130e-01        00000 
-2.84770e-02  3.59194e-01        00000 
-3.14786e-02  3.83061e-01        00000 
-3.55577e-02  4.09595e-01        00000 
-3.98155e-02  4.35159e-01        00000 
-4.37640e-02  4.59479e-01        00000 
-4.80122e-02  4.82682e-01        00000 
-5.24571e-02  5.04620e-01        00000 
-5.71043e-02  5.26095e-01        00000 
-6.22067e-02  5.47144e-01        00000 
-6.68287e-02  5.67705e-01        00000 
-7.11848e-02  5.83693e-01        00000 
-7.46408e-02  5.97372e-01        00000 
-7.73689e-02  6.11015e-01        00000 
-7.91535e-02  6.26156e-01        00000 
-7.86815e-02  6.41388e-01        00000 
-7.75129e-02  6.56559e-01        00000 
-7.58677e-02  6.68485e-01        00000 
-7.45244e-02  6.84300e-01        00000 
-7.21969e-02  6.95277e-01        00000 
-6.96850e-02  7.09097e-01        00000 
-6.56129e-02  7.23438e-01        00000 
-5.92276e-02  7.35942e-01        00000 
-5.17058e-02  7.48315e-01        00000 
-4.46271e-02  7.60838e-01        00000 
-3.87504e-02  7.72888e-01        00000 
-3.29438e-02  7.83601e-01        00000 
-2.36292e-02  7.94167e-01        00000 
-1.29971e-02  8.03299e-01        00000 
-2.44135e-03  8.12453e-01        00000 
-8.82612e-03  1.33735e-02        00000 
-1.42357e-02  2.24770e-02        00000 
-2.00734e-02  3.53104e-02        00000 
-2.34528e-02  4.88212e-02        00000 
-2.61357e-02  6.34967e-02        00000 
-2.84927e-02  7.80469e-02        00000 
-3.05178e-02  8.96108e-02        00000 