<?xml version="1.0" encoding="utf-8"?>
<VTKFile byte_order="LittleEndian" type="UnstructuredGrid" version="0.1">
   <UnstructuredGrid>
      <Piece NumberOfCells="7944" NumberOfPoints="4296">
         <Points>
            <DataArray Name="Points" NumberOfComponents="3" format="ascii" type="Float32">
-1.0000 -0.9592 0.0000
-1.0000 -0.9184 0.0000
-1.0000 -0.8776 0.0000
-1.0000 -0.8367 0.0000
-1.0000 -0.7959 0.0000
-1.0000 -0.7551 0.0000
-1.0000 -0.7143 0.0000
-1.0000 -0.6735 0.0000
-1.0000 -0.6327 0.0000
-1.0000 -0.5918 0.0000
-1.0000 -0.5510 0.0000
-1.0000 -0.5102 0.0000
-1.0000 -0.4694 0.0000
-1.0000 -0.4286 0.0000
-1.0000 -0.3878 0.0000
-1.0000 -0.3469 0.0000
-1.0000 -0.3061 0.0000
-1.0000 -0.2653 0.0000
-1.0000 -0.2245 0.0000
-1.0000 -0.1837 0.0000
-1.0000 -0.1429 0.0000
-1.0000 -0.1020 0.0000
-1.0000 -0.0612 0.0000
-1.0000 -0.0204 0.0000
-1.0000 0.0204 0.0000
-1.0000 0.0612 0.0000
-1.0000 0.1020 0.0000
-1.0000 0.1429 0.0000
-1.0000 0.1837 0.0000
-1.0000 0.2245 0.0000
-1.0000 0.2653 0.0000
-1.0000 0.3061 0.0000
-1.0000 0.3469 0.0000
-1.0000 0.3878 0.0000
-1.0000 0.4286 0.0000
-1.0000 0.4694 0.0000
-1.0000 0.5102 0.0000
-1.0000 0.5510 0.0000
-1.0000 0.5918 0.0000
-1.0000 0.6327 0.0000
-1.0000 0.6735 0.0000
-1.0000 0.7143 0.0000
-1.0000 0.7551 0.0000
-1.0000 0.7959 0.0000
-1.0000 0.8367 0.0000
-1.0000 0.8776 0.0000
-1.0000 0.9184 0.0000
-1.0000 0.9592 0.0000
-1.0000 1.0000 0.0000
-0.9592 -0.9592 0.0000
-0.9592 -0.9184 0.0000
-0.9592 -0.8776 0.0000
-0.9592 -0.8367 0.0000
-0.9592 -0.7959 0.0000
-0.9592 -0.7551 0.0000
-0.9592 -0.7143 0.0000
-0.9592 -0.6735 0.0000
-0.9592 -0.6327 0.0000
-0.9592 -0.5918 0.0000
-0.9592 -0.5510 0.0000
-0.9592 -0.5102 0.0000
-0.9592 -0.4694 0.0000
-0.9592 -0.4286 0.0000
-0.9592 -0.3878 0.0000
-0.9592 -0.3469 0.0000
-0.9592 -0.3061 0.0000
-0.9592 -0.2653 0.0000
-0.9592 -0.2245 0.0000
-0.9592 -0.1837 0.0000
-0.9592 -0.1429 0.0000
-0.9592 -0.1020 0.0000
-0.9592 -0.0612 0.0000
-0.9592 -0.0204 0.0000
-0.9592 0.0204 0.0000
-0.9592 0.0612 0.0000
-0.9592 0.1020 0.0000
-0.9592 0.1429 0.0000
-0.9592 0.1837 0.0000
-0.9592 0.2245 0.0000
-0.9592 0.2653 0.0000
-0.9592 0.3061 0.0000
-0.9592 0.3469 0.0000
-0.9592 0.3878 0.0000
-0.9592 0.4286 0.0000
-0.9592 0.4694 0.0000
-0.9592 0.5102 0.0000
-0.9592 0.5510 0.0000
-0.9592 0.5918 0.0000
-0.9592 0.6327 0.0000
-0.9592 0.6735 0.0000
-0.9592 0.7143 0.0000
-0.9592 0.7551 0.0000
-0.9592 0.7959 0.0000
-0.9592 0.8367 0.0000
-0.9592 0.8776 0.0000
-0.9592 0.9184 0.0000
-0.9592 0.9592 0.0000
-0.9592 1.0000 0.0000
-0.9184 -0.9592 0.0000
-0.9184 -0.9184 0.0000
-0.9184 -0.8776 0.0000
-0.9184 -0.8367 0.0000
-0.9184 -0.7959 0.0000
-0.9184 -0.7551 0.0000
-0.9184 -0.7143 0.0000
-0.9184 -0.6735 0.0000
-0.9184 -0.6327 0.0000
-0.9184 -0.5918 0.0000
-0.9184 -0.5510 0.0000
-0.9184 -0.5102 0.0000
-0.9184 -0.4694 0.0000
-0.9184 -0.4286 0.0000
-0.9184 -0.3878 0.0000
-0.9184 -0.3469 0.0000
-0.9184 -0.3061 0.0000
-0.9184 -0.2653 0.0000
-0.9184 -0.2245 0.0000
-0.9184 -0.1837 0.0000
-0.9184 -0.1429 0.0000
-0.9184 -0.1020 0.0000
-0.9184 -0.0612 0.0000
-0.9184 -0.0204 0.0000
-0.9184 0.0204 0.0000
-0.9184 0.0612 0.0000
-0.9184 0.1020 0.0000
-0.9184 0.1429 0.0000
-0.9184 0.1837 0.0000
-0.9184 0.2245 0.0000
-0.9184 0.2653 0.0000
-0.9184 0.3061 0.0000
-0.9184 0.3469 0.0000
-0.9184 0.3878 0.0000
-0.9184 0.4286 0.0000
-0.9184 0.4694 0.0000
-0.9184 0.5102 0.0000
-0.9184 0.5510 0.0000
-0.9184 0.5918 0.0000
-0.9184 0.6327 0.0000
-0.9184 0.6735 0.0000
-0.9184 0.7143 0.0000
-0.9184 0.7551 0.0000
-0.9184 0.7959 0.0000
-0.9184 0.8367 0.0000
-0.9184 0.8776 0.0000
-0.9184 0.9184 0.0000
-0.9184 0.9592 0.0000
-0.9184 1.0000 0.0000
-0.8776 -0.9592 0.0000
-0.8776 -0.9184 0.0000
-0.8776 -0.8776 0.0000
-0.8776 -0.8367 0.0000
-0.8776 -0.7959 0.0000
-0.8776 -0.7551 0.0000
-0.8776 -0.7143 0.0000
-0.8776 -0.6735 0.0000
-0.8776 -0.6327 0.0000
-0.8776 -0.5918 0.0000
-0.8776 -0.5510 0.0000
-0.8776 -0.5102 0.0000
-0.8776 -0.4694 0.0000
-0.8776 -0.4286 0.0000
-0.8776 -0.3878 0.0000
-0.8776 -0.3469 0.0000
-0.8776 -0.3061 0.0000
-0.8776 -0.2653 0.0000
-0.8776 -0.2245 0.0000
-0.8776 -0.1837 0.0000
-0.8776 -0.1429 0.0000
-0.8776 -0.1020 0.0000
-0.8776 -0.0612 0.0000
-0.8776 -0.0204 0.0000
-0.8776 0.0204 0.0000
-0.8776 0.0612 0.0000
-0.8776 0.1020 0.0000
-0.8776 0.1429 0.0000
-0.8776 0.1837 0.0000
-0.8776 0.2245 0.0000
-0.8776 0.2653 0.0000
-0.8776 0.3061 0.0000
-0.8776 0.3469 0.0000
-0.8776 0.3878 0.0000
-0.8776 0.4286 0.0000
-0.8776 0.4694 0.0000
-0.8776 0.5102 0.0000
-0.8776 0.5510 0.0000
-0.8776 0.5918 0.0000
-0.8776 0.6327 0.0000
-0.8776 0.6735 0.0000
-0.8776 0.7143 0.0000
-0.8776 0.7551 0.0000
-0.8776 0.7959 0.0000
-0.8776 0.8367 0.0000
-0.8776 0.8776 0.0000
-0.8776 0.9184 0.0000
-0.8776 0.9592 0.0000
-0.8776 1.0000 0.0000
-0.8367 -0.9592 0.0000
-0.8367 -0.9184 0.0000
-0.8367 -0.8776 0.0000
-0.8367 -0.8367 0.0000
-0.8367 -0.7959 0.0000
-0.8367 -0.7551 0.0000
-0.8367 -0.7143 0.0000
-0.8367 -0.6735 0.0000
-0.8367 -0.6327 0.0000
-0.8367 -0.5918 0.0000
-0.8367 -0.5510 0.0000
-0.8367 -0.5102 0.0000
-0.8367 -0.4694 0.0000
-0.8367 -0.4286 0.0000
-0.8367 -0.3878 0.0000
-0.8367 -0.3469 0.0000
-0.8367 -0.3061 0.0000
-0.8367 -0.2653 0.0000
-0.8367 -0.2245 0.0000
-0.8367 -0.1837 0.0000
-0.8367 -0.1429 0.0000
-0.8367 -0.1020 0.0000
-0.8367 -0.0612 0.0000
-0.8367 -0.0204 0.0000
-0.8367 0.0204 0.0000
-0.8367 0.0612 0.0000
-0.8367 0.1020 0.0000
-0.8367 0.1429 0.0000
-0.8367 0.1837 0.0000
-0.8367 0.2245 0.0000
-0.8367 0.2653 0.0000
-0.8367 0.3061 0.0000
-0.8367 0.3469 0.0000
-0.8367 0.3878 0.0000
-0.8367 0.4286 0.0000
-0.8367 0.4694 0.0000
-0.8367 0.5102 0.0000
-0.8367 0.5510 0.0000
-0.8367 0.5918 0.0000
-0.8367 0.6327 0.0000
-0.8367 0.6735 0.0000
-0.8367 0.7143 0.0000
-0.8367 0.7551 0.0000
-0.8367 0.7959 0.0000
-0.8367 0.8367 0.0000
-0.8367 0.8776 0.0000
-0.8367 0.9184 0.0000
-0.8367 0.9592 0.0000
-0.8367 1.0000 0.0000
-0.7959 -0.9592 0.0000
-0.7959 -0.9184 0.0000
-0.7959 -0.8776 0.0000
-0.7959 -0.8367 0.0000
-0.7959 -0.7959 0.0000
-0.7959 -0.7551 0.0000
-0.7959 -0.7143 0.0000
-0.7959 -0.6735 0.0000
-0.7959 -0.6327 0.0000
-0.7959 -0.5918 0.0000
-0.7959 -0.5510 0.0000
-0.7959 -0.5102 0.0000
-0.7959 -0.4694 0.0000
-0.7959 -0.4286 0.0000
-0.7959 -0.3878 0.0000
-0.7959 -0.3469 0.0000
-0.7959 -0.3061 0.0000
-0.7959 -0.2653 0.0000
-0.7959 -0.2245 0.0000
-0.7959 -0.1837 0.0000
-0.7959 -0.1429 0.0000
-0.7959 -0.1020 0.0000
-0.7959 -0.0612 0.0000
-0.7959 -0.0204 0.0000
-0.7959 0.0204 0.0000
-0.7959 0.0612 0.0000
-0.7959 0.1020 0.0000
-0.7959 0.1429 0.0000
-0.7959 0.1837 0.0000
-0.7959 0.2245 0.0000
-0.7959 0.2653 0.0000
-0.7959 0.3061 0.0000
-0.7959 0.3469 0.0000
-0.7959 0.3878 0.0000
-0.7959 0.4286 0.0000
-0.7959 0.4694 0.0000
-0.7959 0.5102 0.0000
-0.7959 0.5510 0.0000
-0.7959 0.5918 0.0000
-0.7959 0.6327 0.0000
-0.7959 0.6735 0.0000
-0.7959 0.7143 0.0000
-0.7959 0.7551 0.0000
-0.7959 0.7959 0.0000
-0.7959 0.8367 0.0000
-0.7959 0.8776 0.0000
-0.7959 0.9184 0.0000
-0.7959 0.9592 0.0000
-0.7959 1.0000 0.0000
-0.7551 -0.9592 0.0000
-0.7551 -0.9184 0.0000
-0.7551 -0.8776 0.0000
-0.7551 -0.8367 0.0000
-0.7551 -0.7959 0.0000
-0.7551 -0.7551 0.0000
-0.7551 -0.7143 0.0000
-0.7551 -0.6735 0.0000
-0.7551 -0.6327 0.0000
-0.7551 -0.5918 0.0000
-0.7551 -0.5510 0.0000
-0.7551 -0.5102 0.0000
-0.7551 -0.4694 0.0000
-0.7551 -0.4286 0.0000
-0.7551 -0.3878 0.0000
-0.7551 -0.3469 0.0000
-0.7551 -0.3061 0.0000
-0.7551 -0.2653 0.0000
-0.7551 -0.2245 0.0000
-0.7551 -0.1837 0.0000
-0.7551 -0.1429 0.0000
-0.7551 -0.1020 0.0000
-0.7551 -0.0612 0.0000
-0.7551 -0.0204 0.0000
-0.7551 0.0204 0.0000
-0.7551 0.0612 0.0000
-0.7551 0.1020 0.0000
-0.7551 0.1429 0.0000
-0.7551 0.1837 0.0000
-0.7551 0.2245 0.0000
-0.7551 0.2653 0.0000
-0.7551 0.3061 0.0000
-0.7551 0.3469 0.0000
-0.7551 0.3878 0.0000
-0.7551 0.4286 0.0000
-0.7551 0.4694 0.0000
-0.7551 0.5102 0.0000
-0.7551 0.5510 0.0000
-0.7551 0.5918 0.0000
-0.7551 0.6327 0.0000
-0.7551 0.6735 0.0000
-0.7551 0.7143 0.0000
-0.7551 0.7551 0.0000
-0.7551 0.7959 0.0000
-0.7551 0.8367 0.0000
-0.7551 0.8776 0.0000
-0.7551 0.9184 0.0000
-0.7551 0.9592 0.0000
-0.7551 1.0000 0.0000
-0.7143 -0.9592 0.0000
-0.7143 -0.9184 0.0000
-0.7143 -0.8776 0.0000
-0.7143 -0.8367 0.0000
-0.7143 -0.7959 0.0000
-0.7143 -0.7551 0.0000
-0.7143 -0.7143 0.0000
-0.7143 -0.6735 0.0000
-0.7143 -0.6327 0.0000
-0.7143 -0.5918 0.0000
-0.7143 -0.5510 0.0000
-0.7143 -0.5102 0.0000
-0.7143 -0.4694 0.0000
-0.7143 -0.4286 0.0000
-0.7143 -0.3878 0.0000
-0.7143 -0.3469 0.0000
-0.7143 -0.3061 0.0000
-0.7143 -0.2653 0.0000
-0.7143 -0.2245 0.0000
-0.7143 -0.1837 0.0000
-0.7143 -0.1429 0.0000
-0.7143 -0.1020 0.0000
-0.7143 -0.0612 0.0000
-0.7143 -0.0204 0.0000
-0.7143 0.0204 0.0000
-0.7143 0.0612 0.0000
-0.7143 0.1020 0.0000
-0.7143 0.1429 0.0000
-0.7143 0.1837 0.0000
-0.7143 0.2245 0.0000
-0.7143 0.2653 0.0000
-0.7143 0.3061 0.0000
-0.7143 0.3469 0.0000
-0.7143 0.3878 0.0000
-0.7143 0.4286 0.0000
-0.7143 0.4694 0.0000
-0.7143 0.5102 0.0000
-0.7143 0.5510 0.0000
-0.7143 0.5918 0.0000
-0.7143 0.6327 0.0000
-0.7143 0.6735 0.0000
-0.7143 0.7143 0.0000
-0.7143 0.7551 0.0000
-0.7143 0.7959 0.0000
-0.7143 0.8367 0.0000
-0.7143 0.8776 0.0000
-0.7143 0.9184 0.0000
-0.7143 0.9592 0.0000
-0.7143 1.0000 0.0000
-0.6735 -0.9592 0.0000
-0.6735 -0.9184 0.0000
-0.6735 -0.8776 0.0000
-0.6735 -0.8367 0.0000
-0.6735 -0.7959 0.0000
-0.6735 -0.7551 0.0000
-0.6735 -0.7143 0.0000
-0.6735 -0.6735 0.0000
-0.6735 -0.6327 0.0000
-0.6735 -0.5918 0.0000
-0.6735 -0.5510 0.0000
-0.6735 -0.5102 0.0000
-0.6735 -0.4694 0.0000
-0.6735 -0.4286 0.0000
-0.6735 -0.3878 0.0000
-0.6735 -0.3469 0.0000
-0.6735 -0.3061 0.0000
-0.6735 -0.2653 0.0000
-0.6735 -0.2245 0.0000
-0.6735 -0.1837 0.0000
-0.6735 -0.1429 0.0000
-0.6735 -0.1020 0.0000
-0.6735 -0.0612 0.0000
-0.6735 -0.0204 0.0000
-0.6735 0.0204 0.0000
-0.6735 0.0612 0.0000
-0.6735 0.1020 0.0000
-0.6735 0.1429 0.0000
-0.6735 0.1837 0.0000
-0.6735 0.2245 0.0000
-0.6735 0.2653 0.0000
-0.6735 0.3061 0.0000
-0.6735 0.3469 0.0000
-0.6735 0.3878 0.0000
-0.6735 0.4286 0.0000
-0.6735 0.4694 0.0000
-0.6735 0.5102 0.0000
-0.6735 0.5510 0.0000
-0.6735 0.5918 0.0000
[...]
         <PointData>
            <DataArray Name="fValues" NumberOfComponents="3" format="ascii" type="Float64">
 9.82274e-01  1.26440e-03        00000 
 9.60636e-01  2.66435e-03        00000 
 9.40447e-01  3.94966e-03        00000 
 9.20299e-01  4.89953e-03        00000 
 8.99340e-01  5.70668e-03        00000 
 8.78162e-01  5.84968e-03        00000 
 8.56981e-01  5.74564e-03        00000 
 8.36403e-01  5.30177e-03        00000 
 8.16672e-01  5.47179e-03        00000 
 7.96593e-01  5.93227e-03        00000 
 7.77841e-01  6.21117e-03        00000 
 7.60659e-01  6.68083e-03        00000 
 7.43527e-01  5.88661e-03        00000 
 7.24395e-01  5.04107e-03        00000 
 7.03398e-01  3.74831e-03        00000 
 6.81884e-01  3.03134e-03        00000 
 6.59642e-01  2.26424e-03        00000 
 6.37267e-01  1.15332e-03        00000 
 6.13794e-01  5.40243e-04        00000 
 5.92934e-01  5.59071e-04        00000 
 5.72109e-01  7.38820e-04        00000 
 5.51435e-01  9.62295e-04        00000 
 5.31016e-01  1.03699e-03        00000 
 5.10962e-01  1.16871e-03        00000 
 4.90980e-01  1.14944e-03        00000 
 4.71129e-01  1.23171e-03        00000 
 4.50579e-01  1.33101e-03        00000 
 4.30346e-01  1.43843e-03        00000 
 4.09777e-01  1.49883e-03        00000 
 3.88767e-01  2.39821e-03        00000 
 3.67190e-01  3.33101e-03        00000 
 3.45421e-01  4.37378e-03        00000 
 3.23472e-01  4.92970e-03        00000 
 3.01621e-01  4.58560e-03        00000 
 2.84129e-01  4.37681e-03        00000 
 2.66792e-01  4.21956e-03        00000 
 2.49132e-01  3.47884e-03        00000 
 2.27893e-01  3.36266e-03        00000 
 2.05726e-01  2.26697e-03        00000 
 1.85974e-01  1.49443e-03        00000 
 1.67296e-01  4.72590e-04        00000 
 1.47802e-01 -4.01249e-04        00000 
 1.26477e-01 -1.27664e-03        00000 
 1.02937e-01 -2.26600e-03        00000 
 8.01368e-02 -2.47205e-03        00000 
 6.04719e-02 -2.94891e-03        00000 
 4.22348e-02 -4.44603e-03        00000 
 1.96483e-02 -5.35851e-03        00000 
 1.82070e-03 -7.32439e-03        00000 
 9.63789e-01  5.44343e-03        00000 
 9.42596e-01  7.45839e-03        00000 
 9.22684e-01  8.70758e-03        00000 
 9.04672e-01  9.38611e-03        00000 
 8.85120e-01  9.60360e-03        00000 
 8.65954e-01  1.03140e-02        00000 
 8.47353e-01  1.11099e-02        00000 
 8.27740e-01  1.15981e-02        00000 
 8.08113e-01  1.18548e-02        00000 
 7.88116e-01  1.23899e-02        00000 
 7.69305e-01  1.29045e-02        00000 
 7.51706e-01  1.33743e-02        00000 
 7.34935e-01  1.35078e-02        00000 
 7.16167e-01  1.41027e-02        00000 
 6.95765e-01  1.45510e-02        00000 
 6.74086e-01  1.37386e-02        00000 
 6.53150e-01  1.28795e-02        00000 
 6.31538e-01  1.13632e-02        00000 
 6.10253e-01  1.03032e-02        00000 
 5.87723e-01  1.01893e-02        00000 
 5.66008e-01  1.06416e-02        00000 
 5.44165e-01  1.08863e-02        00000 
 5.23095e-01  1.10320e-02        00000 
 5.03480e-01  1.11637e-02        00000 
 4.83886e-01  1.10263e-02        00000 
 4.64066e-01  1.06796e-02        00000 
 4.44087e-01  1.05300e-02        00000 
 4.23649e-01  1.06871e-02        00000 
 4.03289e-01  1.12481e-02        00000 
 3.82594e-01  1.17821e-02        00000 
 3.61363e-01  1.23532e-02        00000 
 3.39143e-01  1.26832e-02        00000 
 3.16148e-01  1.24194e-02        00000 
 2.92859e-01  1.19653e-02        00000 
 2.74769e-01  1.17620e-02        00000 
 2.57439e-01  1.07996e-02        00000 
 2.38854e-01  1.05193e-02        00000 
 2.17529e-01  1.03891e-02        00000 
 1.96981e-01  9.73942e-03        00000 
 1.80083e-01  8.54508e-03        00000 
 1.58671e-01  8.00586e-03        00000 
 1.37484e-01  7.38067e-03        00000 
 1.16601e-01  6.17048e-03        00000 
 9.49555e-02  4.92489e-03        00000 
 7.63108e-02  3.90262e-03        00000 
 5.86188e-02  2.05837e-03        00000 
 3.88366e-02  1.20534e-03        00000 
 2.04751e-02 -7.37716e-04        00000 
 2.11228e-03 -5.46154e-03        00000 
 9.45852e-01  7.86291e-03        00000 
 9.26643e-01  1.05782e-02        00000 
 9.07628e-01  1.25604e-02        00000 
 8.90267e-01  1.45117e-02        00000 
 8.73770e-01  1.57280e-02        00000 
 8.53891e-01  1.67540e-02        00000 
 8.35500e-01  1.76044e-02        00000 
 8.18719e-01  1.82252e-02        00000 
 7.99249e-01  1.83461e-02        00000 
 7.79649e-01  1.87922e-02        00000 
 7.60835e-01  1.93032e-02        00000 
 7.43488e-01  2.02257e-02        00000 
 7.26658e-01  2.12739e-02        00000 
 7.07544e-01  2.22324e-02        00000 
 6.88081e-01  2.30516e-02        00000 
 6.67791e-01  2.32576e-02        00000 
 6.47560e-01  2.28608e-02        00000 
 6.28289e-01  2.22523e-02        00000 
 6.06978e-01  2.18347e-02        00000 
 5.85661e-01  2.10207e-02        00000 
 5.63789e-01  2.09224e-02        00000 
 5.42551e-01  2.10844e-02        00000 
 5.21388e-01  2.10710e-02        00000 
 5.00272e-01  2.08540e-02        00000 
 4.79236e-01  2.04605e-02        00000 
 4.58861e-01  2.02519e-02        00000 
 4.39769e-01  2.00934e-02        00000 
 4.19987e-01  2.02815e-02        00000 
 4.00106e-01  2.07379e-02        00000 
 3.78711e-01  2.00663e-02        00000 
 3.56758e-01  1.92670e-02        00000 
 3.34753e-01  1.90495e-02        00000 
 3.12200e-01  1.88050e-02        00000 
 2.88550e-01  1.86096e-02        00000 
 2.68358e-01  1.79186e-02        00000 
 2.49935e-01  1.63629e-02        00000 
 2.33487e-01  1.61795e-02        00000 
 2.13266e-01  1.63653e-02        00000 
 1.93114e-01  1.57946e-02        00000 
 1.72057e-01  1.47362e-02        00000 
 1.54084e-01  1.47293e-02        00000 
 1.33442e-01  1.39851e-02        00000 
 1.13851e-01  1.28159e-02        00000 
 9.41693e-02  1.07354e-02        00000 
 7.56218e-02  8.55286e-03        00000 
 5.50230e-02  6.64952e-03        00000 
 3.71730e-02  3.57690e-03        00000 
 1.72225e-02  3.82270e-05        00000 
-8.47036e-04 -6.62391e-03        00000 
 9.26051e-01  1.00094e-02        00000 
 9.07599e-01  1.39523e-02        00000 
 8.89581e-01  1.60063e-02        00000 
 8.73270e-01  1.80738e-02        00000 
 8.57606e-01  1.98309e-02        00000 
 8.41536e-01  2.17530e-02        00000 
 8.24661e-01  2.36416e-02        00000 
 8.07668e-01  2.50451e-02        00000 
 7.90518e-01  2.60165e-02        00000 
 7.72680e-01  2.68462e-02        00000 
 7.54019e-01  2.79338e-02        00000 
 7.36415e-01  2.88055e-02        00000 
 7.19351e-01  2.98744e-02        00000 
 6.98967e-01  2.97755e-02        00000 
 6.79781e-01  3.05126e-02        00000 
 6.60629e-01  3.10481e-02        00000 
 6.42819e-01  3.15299e-02        00000 
 6.24269e-01  3.26252e-02        00000 
 6.05246e-01  3.36551e-02        00000 
 5.84788e-01  3.35434e-02        00000 
 5.64313e-01  3.34027e-02        00000 
 5.43011e-01  3.32462e-02        00000 
 5.21655e-01  3.29259e-02        00000 
 5.00672e-01  3.21373e-02        00000 
 4.79705e-01  3.11903e-02        00000 
 4.58412e-01  2.98602e-02        00000 
 4.36956e-01  2.85866e-02        00000 
 4.15337e-01  2.75546e-02        00000 
 3.93397e-01  2.67276e-02        00000 
 3.72394e-01  2.66339e-02        00000 
 3.50350e-01  2.62108e-02        00000 
 3.27698e-01  2.55907e-02        00000 
 3.05382e-01  2.52142e-02        00000 
 2.84416e-01  2.52739e-02        00000 
 2.63134e-01  2.41702e-02        00000 
 2.45109e-01  2.24526e-02        00000 
 2.28443e-01  2.12250e-02        00000 
 2.06952e-01  2.17282e-02        00000 
 1.87390e-01  2.15014e-02        00000 
 1.67748e-01  2.09918e-02        00000 
 1.47301e-01  2.03029e-02        00000 
 1.28883e-01  1.90534e-02        00000 
 1.10219e-01  1.69154e-02        00000 
 9.20195e-02  1.44265e-02        00000 
 7.19029e-02  1.06586e-02        00000 
 5.14366e-02  7.57325e-03        00000 
 3.40402e-02  4.76271e-03        00000 
 1.62886e-02  1.23656e-03        00000 
-6.33017e-04 -6.07248e-03        00000 
 9.06608e-01  1.06188e-02        00000 
 8.93273e-01  1.68685e-02        00000 
 8.73922e-01  1.96762e-02        00000 
 8.56184e-01  2.15756e-02        00000 
 8.39837e-01  2.33697e-02        00000 
 8.25223e-01  2.55460e-02        00000 
 8.10901e-01  2.81761e-02        00000 
 7.95313e-01  3.05422e-02        00000 
 7.78520e-01  3.31934e-02        00000 
 7.62717e-01  3.55264e-02        00000 
 7.46861e-01  3.72281e-02        00000 
 7.29563e-01  3.83963e-02        00000 
 7.13215e-01  3.93968e-02        00000 
 6.93984e-01  3.92868e-02        00000 
 6.74000e-01  3.84342e-02        00000 
 6.55571e-01  3.86762e-02        00000 
 6.36469e-01  4.00298e-02        00000 
 6.19131e-01  4.24855e-02        00000 
 6.01820e-01  4.42121e-02        00000 
 5.82657e-01  4.44991e-02        00000 
 5.63142e-01  4.47517e-02        00000 
 5.43665e-01  4.45727e-02        00000 
 5.21947e-01  4.30343e-02        00000 
 5.00184e-01  4.14569e-02        00000 
 4.78686e-01  3.96036e-02        00000 
 4.56941e-01  3.76713e-02        00000 
 4.34660e-01  3.60593e-02        00000 
 4.11929e-01  3.51828e-02        00000 
 3.89397e-01  3.46464e-02        00000 
 3.66148e-01  3.39090e-02        00000 
 3.41330e-01  3.23832e-02        00000 
 3.20682e-01  3.16753e-02        00000 
 3.00299e-01  3.14920e-02        00000 
 2.78422e-01  3.09573e-02        00000 
 2.57033e-01  2.99765e-02        00000 
 2.39453e-01  2.85425e-02        00000 
 2.21433e-01  2.67992e-02        00000 
 1.99838e-01  2.73189e-02        00000 
 1.83288e-01  2.68698e-02        00000 
 1.61993e-01  2.62002e-02        00000 
 1.41053e-01  2.42906e-02        00000 
 1.22500e-01  2.20662e-02        00000 
 1.04884e-01  1.93676e-02        00000 
 8.56090e-02  1.52611e-02        00000 
 6.73160e-02  1.21438e-02        00000 
 4.99995e-02  9.40812e-03        00000 
 3.21988e-02  6.58339e-03        00000 
 1.63993e-02  1.79284e-03        00000 
 1.35995e-03 -4.94950e-03        00000 
 8.85818e-01  1.03356e-02        00000 
 8.74602e-01  1.72954e-02        00000 
 8.60012e-01  2.26140e-02        00000 
 8.42014e-01  2.49540e-02        00000 
 8.25738e-01  2.69334e-02        00000 
 8.11271e-01  2.96054e-02        00000 
 7.96770e-01  3.25496e-02        00000 
 7.80155e-01  3.51099e-02        00000 
 7.63851e-01  3.82976e-02        00000 
 7.49087e-01  4.19290e-02        00000 
 7.35540e-01  4.50854e-02        00000 
 7.22488e-01  4.71304e-02        00000 
 7.06623e-01  4.82071e-02        00000 
 6.89026e-01  4.85850e-02        00000 
 6.71565e-01  4.80113e-02        00000 
 6.52296e-01  4.76163e-02        00000 
 6.32971e-01  4.87209e-02        00000 
 6.15439e-01  5.12462e-02        00000 
 5.98327e-01  5.32966e-02        00000 
 5.80156e-01  5.43525e-02        00000 
 5.61125e-01  5.45605e-02        00000 
 5.40758e-01  5.33866e-02        00000 
 5.19321e-01  5.10524e-02        00000 
 4.98420e-01  4.92349e-02        00000 
 4.76406e-01  4.82490e-02        00000 
 4.54023e-01  4.72186e-02        00000 
 4.31525e-01  4.59968e-02        00000 
 4.08858e-01  4.46083e-02        00000 
 3.84540e-01  4.28053e-02        00000 
 3.60102e-01  4.11608e-02        00000 
 3.37919e-01  4.00635e-02        00000 
 3.16757e-01  3.82572e-02        00000 
 2.94546e-01  3.78831e-02        00000 
 2.73525e-01  3.73058e-02        00000 
 2.51319e-01  3.62753e-02        00000 
 2.33897e-01  3.53096e-02        00000 
 2.15699e-01  3.42880e-02        00000 
 1.94301e-01  3.35048e-02        00000 
 1.75118e-01  3.17646e-02        00000 
 1.55307e-01  2.94474e-02        00000 
 1.37637e-01  2.71522e-02        00000 
 1.17602e-01  2.44316e-02        00000 
 9.86841e-02  2.05405e-02        00000 
 8.14284e-02  1.79150e-02        00000 
 6.53504e-02  1.49072e-02        00000 
 4.84944e-02  1.13942e-02        00000 
 3.02826e-02  8.03323e-03        00000 
 1.62824e-02  2.45041e-03        00000 
 2.60694e-03 -3.17374e-03        00000 
 8.67190e-01  1.04045e-02        00000 
 8.55297e-01  1.72175e-02        00000 
 8.43563e-01  2.33087e-02        00000 
 8.28582e-01  2.74935e-02        00000 
 8.12128e-01  3.02152e-02        00000 
 7.96523e-01  3.36159e-02        00000 
 7.82287e-01  3.70349e-02        00000 
 7.66106e-01  3.96667e-02        00000 
 7.51224e-01  4.26261e-02        00000 
 7.37068e-01  4.65983e-02        00000 
 7.23759e-01  5.01476e-02        00000 
 7.12574e-01  5.34670e-02        00000 
 7.02418e-01  5.60456e-02        00000 
 6.85968e-01  5.65189e-02        00000 
 6.68466e-01  5.76471e-02        00000 
 6.50425e-01  5.78134e-02        00000 
 6.32744e-01  5.89019e-02        00000 
 6.15383e-01  6.05919e-02        00000 
 5.97808e-01  6.22209e-02        00000 
 5.80479e-01  6.38592e-02        00000 
 5.62192e-01  6.48052e-02        00000 
 5.41019e-01  6.35918e-02        00000 
 5.18865e-01  6.18799e-02        00000 
 4.96308e-01  6.09457e-02        00000 
 4.74537e-01  6.02092e-02        00000 
 4.52958e-01  5.91282e-02        00000 
 4.29772e-01  5.76134e-02        00000 
 4.05144e-01  5.56048e-02        00000 
 3.81425e-01  5.35915e-02        00000 
 3.57799e-01  5.14250e-02        00000 
 3.37437e-01  4.95023e-02        00000 
 3.13140e-01  4.64831e-02        00000 
 2.89002e-01  4.42451e-02        00000 
 2.67163e-01  4.37451e-02        00000 
 2.45395e-01  4.33332e-02        00000 
 2.28567e-01  4.26460e-02        00000 
 2.09217e-01  4.17986e-02        00000 
 1.89491e-01  3.85895e-02        00000 
 1.68141e-01  3.50256e-02        00000 
 1.51498e-01  3.20086e-02        00000 
 1.33843e-01  2.87804e-02        00000 
 1.14696e-01  2.57256e-02        00000 
 9.66368e-02  2.25603e-02        00000 
 8.08524e-02  2.01763e-02        00000 
 6.43315e-02  1.68376e-02        00000 
 4.69286e-02  1.36291e-02        00000 
 2.95097e-02  9.62880e-03        00000 
 1.63549e-02  3.70238e-03        00000 
 3.34221e-03 -1.88071e-03        00000 
 8.45520e-01  9.76829e-03        00000 
 8.34276e-01  1.70659e-02        00000 
 8.25557e-01  2.35163e-02        00000 
 8.12355e-01  2.79977e-02        00000 
 7.96562e-01  3.27213e-02        00000 
 7.81671e-01  3.73473e-02        00000 
 7.68329e-01  4.11883e-02        00000 
 7.52647e-01  4.40928e-02        00000 
 7.38341e-01  4.72852e-02        00000 
 7.25559e-01  5.09628e-02        00000 
 7.15695e-01  5.51428e-02        00000 
 7.06588e-01  5.90099e-02        00000 
 6.96654e-01  6.15151e-02        00000 
 6.83088e-01  6.41614e-02        00000 
 6.66555e-01  6.62313e-02        00000 
 6.49362e-01  6.75354e-02        00000 
 6.33622e-01  6.96260e-02        00000 
 6.17558e-01  7.18589e-02        00000 
 6.00411e-01  7.35058e-02        00000 
 5.81110e-01  7.44934e-02        00000 
 5.60665e-01  7.40911e-02        00000 
 5.40686e-01  7.35126e-02        00000 
 5.18814e-01  7.28478e-02        00000 
 4.96076e-01  7.22408e-02        00000 
 4.74071e-01  7.13711e-02        00000 
 4.51461e-01  7.00341e-02        00000 
 4.27861e-01  6.84950e-02        00000 
 4.03831e-01  6.67347e-02        00000 
 3.79379e-01  6.48137e-02        00000 
 3.53510e-01  6.21408e-02        00000 
 3.30680e-01  5.87781e-02        00000 
 3.08183e-01  5.51457e-02        00000 
 2.85635e-01  5.22763e-02        00000 
 2.63678e-01  5.11479e-02        00000 
 2.42209e-01  5.08581e-02        00000 
 2.23770e-01  4.97692e-02        00000 
 2.03427e-01  4.67269e-02        00000 
 1.82489e-01  4.25842e-02        00000 
 1.63254e-01  3.83320e-02        00000 
 1.46292e-01  3.38528e-02        00000 
 1.28818e-01  3.05366e-02        00000 
 1.12229e-01  2.76127e-02        00000 
 9.62119e-02  2.41904e-02        00000 
 7.94781e-02  2.15622e-02        00000 
 6.20398e-02  1.85733e-02        00000 
 4.55891e-02  1.48614e-02        00000 
 2.92486e-02  1.02001e-02        00000 
 1.65659e-02  4.55360e-03        00000 
 3.94809e-03 -1.15608e-03        00000 
 8.24005e-01  9.69404e-03        00000 
 8.12866e-01  1.66750e-02        00000 
 8.03881e-01  2.34685e-02        00000 
 7.91067e-01  2.90665e-02        00000 
 7.76884e-01  3.39638e-02        00000 
 7.64233e-01  3.86540e-02        00000 
 7.53566e-01  4.38930e-02        00000 
 7.38677e-01  4.71292e-02        00000 
 7.26006e-01  5.04568e-02        00000 
 7.17270e-01  5.52788e-02        00000 
 7.09134e-01  5.96289e-02        00000 
 7.01240e-01  6.38840e-02        00000 
 6.91154e-01  6.80604e-02        00000 
 6.77223e-01  7.14482e-02        00000 
 6.63213e-01  7.42942e-02        00000 
 6.48107e-01  7.81765e-02        00000 
 6.32445e-01  8.10381e-02        00000 
 6.16364e-01  8.28926e-02        00000 
 6.00108e-01  8.45583e-02        00000 
 5.81545e-01  8.48104e-02        00000 
 5.59971e-01  8.35135e-02        00000 
 5.38297e-01  8.29718e-02        00000 
 5.17693e-01  8.26589e-02        00000 
 4.94944e-01  8.20032e-02        00000 
 4.71564e-01  8.10680e-02        00000 
 4.49039e-01  7.98560e-02        00000 
 4.26043e-01  7.85406e-02        00000 
 4.00503e-01  7.67914e-02        00000 
 3.75671e-01  7.50215e-02        00000 
 3.48119e-01  7.11468e-02        00000 
 3.25483e-01  6.79620e-02        00000 
 3.03586e-01  6.44955e-02        00000 
 2.81799e-01  6.13930e-02        00000 
 2.59484e-01  5.83811e-02        00000 
 2.36387e-01  5.59129e-02        00000 
 2.14999e-01  5.39599e-02        00000 
 1.96791e-01  5.12100e-02        00000 
 1.76376e-01  4.65908e-02        00000 
 1.59376e-01  4.24524e-02        00000 
 1.42988e-01  3.77010e-02        00000 
 1.26075e-01  3.33524e-02        00000 
 1.09875e-01  2.96956e-02        00000 
 9.42342e-02  2.60731e-02        00000 
 7.73054e-02  2.26806e-02        00000 
 5.97830e-02  1.96549e-02        00000 
 4.46419e-02  1.54021e-02        00000 
 2.91944e-02  1.02526e-02        00000 
 1.66660e-02  4.92419e-03        00000 
 2.45723e-03 -1.51807e-03        00000 
 8.03316e-01  9.41084e-03        00000 
 7.92520e-01  1.68488e-02        00000 
 7.81243e-01  2.40392e-02        00000 
 7.69919e-01  3.04468e-02        00000 
 7.56284e-01  3.54209e-02        00000 
 7.43761e-01  4.01846e-02        00000 
 7.34309e-01  4.59098e-02        00000 
 7.25369e-01  5.08244e-02        00000 
 7.17392e-01  5.49061e-02        00000 
 7.09087e-01  5.94547e-02        00000 
 7.01211e-01  6.39711e-02        00000 
 6.92946e-01  6.94169e-02        00000 
 6.82897e-01  7.36082e-02        00000 
 6.69050e-01  7.69092e-02        00000 
 6.57287e-01  8.21384e-02        00000 
 6.44471e-01  8.70026e-02        00000 
 6.29829e-01  9.07210e-02        00000 
 6.13708e-01  9.21747e-02        00000 
 5.97712e-01  9.39789e-02        00000 
 5.80141e-01  9.44687e-02        00000 
 5.59095e-01  9.36077e-02        00000 
 5.38448e-01  9.28133e-02        00000 
 5.16713e-01  9.26137e-02        00000 
 4.93272e-01  9.16489e-02        00000 
 4.70492e-01  9.08063e-02        00000 
 4.47194e-01  8.96106e-02        00000 
 4.23401e-01  8.78753e-02        00000 
 3.98264e-01  8.61036e-02        00000 
 3.71943e-01  8.33100e-02        00000 
 3.43772e-01  7.92165e-02        00000 
 3.19982e-01  7.60869e-02        00000 
 2.98836e-01  7.25903e-02        00000 
 2.78017e-01  6.86087e-02        00000 
 2.54018e-01  6.41391e-02        00000 
 2.28770e-01  6.09187e-02        00000 
 2.06486e-01  5.83886e-02        00000 
 1.90578e-01  5.46423e-02        00000 
 1.72414e-01  5.07904e-02        00000 
 1.55602e-01  4.57006e-02        00000 
 1.38132e-01  4.06225e-02        00000 
 1.22608e-01  3.59209e-02        00000 
 1.06413e-01  3.24836e-02        00000 
 9.03892e-02  2.86713e-02        00000 
 7.33861e-02  2.45434e-02        00000 
 5.85821e-02  1.96139e-02        00000 
 4.42138e-02  1.50555e-02        00000 
 2.93987e-02  1.02188e-02        00000 
 1.51825e-02  4.48439e-03        00000 
 1.21757e-03 -2.43245e-03        00000 
 7.82548e-01  9.63843e-03        00000 
 7.69764e-01  1.72480e-02        00000 
 7.58591e-01  2.45582e-02        00000 
 7.48167e-01  3.18089e-02        00000 
 7.35557e-01  3.72806e-02        00000 
 7.23661e-01  4.20915e-02        00000 
 7.16969e-01  4.89213e-02        00000 