<?xml version="1.0" encoding="utf-8"?>
<VTKFile byte_order="LittleEndian" type="UnstructuredGrid" version="0.1">
   <UnstructuredGrid>
      <Piece NumberOfCells="1408" NumberOfPoints="804">
         <Points>
            <DataArray Name="Points" NumberOfComponents="3" format="ascii" type="Float32">
-1.0000 -0.8947 0.0000
-1.0000 -0.7895 0.0000
-1.0000 -0.6842 0.0000
-1.0000 -0.5789 0.0000
-1.0000 -0.4737 0.0000
-1.0000 -0.3684 0.0000
-1.0000 -0.2632 0.0000
-1.0000 -0.1579 0.0000
-1.0000 -0.0526 0.0000
-1.0000 0.0526 0.0000
-1.0000 0.1579 0.0000
-1.0000 0.2632 0.0000
-1.0000 0.3684 0.0000
-1.0000 0.4737 0.0000
-1.0000 0.5789 0.0000
-1.0000 0.6842 0.0000
-1.0000 0.7895 0.0000
-1.0000 0.8947 0.0000
-1.0000 1.0000 0.0000
-0.8947 -0.8947 0.0000
-0.8947 -0.7895 0.0000
-0.8947 -0.6842 0.0000
-0.8947 -0.5789 0.0000
-0.8947 -0.4737 0.0000
-0.8947 -0.3684 0.0000
-0.8947 -0.2632 0.0000
-0.8947 -0.1579 0.0000
-0.8947 -0.0526 0.0000
-0.8947 0.0526 0.0000
-0.8947 0.1579 0.0000
-0.8947 0.2632 0.0000
-0.8947 0.3684 0.0000
-0.8947 0.4737 0.0000
-0.8947 0.5789 0.0000
-0.8947 0.6842 0.0000
-0.8947 0.7895 0.0000
-0.8947 0.8947 0.0000
-0.8947 1.0000 0.0000
-0.7895 -0.8947 0.0000
-0.7895 -0.7895 0.0000
-0.7895 -0.6842 0.0000
-0.7895 -0.5789 0.0000
-0.7895 -0.4737 0.0000
-0.7895 -0.3684 0.0000
-0.7895 -0.2632 0.0000
-0.7895 -0.1579 0.0000
-0.7895 -0.0526 0.0000
-0.7895 0.0526 0.0000
-0.7895 0.1579 0.0000
-0.7895 0.2632 0.0000
-0.7895 0.3684 0.0000
-0.7895 0.4737 0.0000
-0.7895 0.5789 0.0000
-0.7895 0.6842 0.0000
-0.7895 0.7895 0.0000
-0.7895 0.8947 0.0000
-0.7895 1.0000 0.0000
-0.6842 -0.8947 0.0000
-0.6842 -0.7895 0.0000
-0.6842 -0.6842 0.0000
-0.6842 -0.5789 0.0000
-0.6842 -0.4737 0.0000
-0.6842 -0.3684 0.0000
-0.6842 -0.2632 0.0000
-0.6842 -0.1579 0.0000
-0.6842 -0.0526 0.0000
-0.6842 0.0526 0.0000
-0.6842 0.1579 0.0000
-0.6842 0.2632 0.0000
-0.6842 0.3684 0.0000
-0.6842 0.4737 0.0000
-0.6842 0.5789 0.0000
-0.6842 0.6842 0.0000
-0.6842 0.7895 0.0000
-0.6842 0.8947 0.0000
-0.6842 1.0000 0.0000
-0.5789 -0.8947 0.0000
-0.5789 -0.7895 0.0000
-0.5789 -0.6842 0.0000
-0.5789 -0.5789 0.0000
-0.5789 -0.4737 0.0000
-0.5789 -0.3684 0.0000
-0.5789 -0.2632 0.0000
-0.5789 -0.1579 0.0000
-0.5789 -0.0526 0.0000
-0.5789 0.0526 0.0000
-0.5789 0.1579 0.0000
-0.5789 0.2632 0.0000
-0.5789 0.3684 0.0000
-0.5789 0.4737 0.0000
-0.5789 0.5789 0.0000
-0.5789 0.6842 0.0000
-0.5789 0.7895 0.0000
-0.5789 0.8947 0.0000
-0.5789 1.0000 0.0000
-0.4737 -0.8947 0.0000
-0.4737 -0.7895 0.0000
-0.4737 -0.6842 0.0000
-0.4737 -0.5789 0.0000
-0.4737 -0.4737 0.0000
-0.4737 -0.3684 0.0000
-0.4737 -0.2632 0.0000
-0.4737 -0.1579 0.0000
-0.4737 -0.0526 0.0000
-0.4737 0.0526 0.0000
-0.4737 0.1579 0.0000
-0.4737 0.2632 0.0000
-0.4737 0.3684 0.0000
-0.4737 0.4737 0.0000
-0.4737 0.5789 0.0000
-0.4737 0.6842 0.0000
-0.4737 0.7895 0.0000
-0.4737 0.8947 0.0000
-0.4737 1.0000 0.0000
-0.3684 -0.8947 0.0000
-0.3684 -0.7895 0.0000
-0.3684 -0.6842 0.0000
-0.3684 -0.5789 0.0000
-0.3684 -0.4737 0.0000
-0.3684 -0.3684 0.0000
-0.3684 -0.2632 0.0000
-0.3684 -0.1579 0.0000
-0.3684 -0.0526 0.0000
-0.3684 0.0526 0.0000
-0.3684 0.1579 0.0000
-0.3684 0.2632 0.0000
-0.3684 0.3684 0.0000
-0.3684 0.4737 0.0000
-0.3684 0.5789 0.0000
-0.3684 0.6842 0.0000
-0.3684 0.7895 0.0000
-0.3684 0.8947 0.0000
-0.3684 1.0000 0.0000
-0.2632 -0.8947 0.0000
-0.2632 -0.7895 0.0000
-0.2632 -0.6842 0.0000
-0.2632 -0.5789 0.0000
-0.2632 -0.4737 0.0000
-0.2632 -0.3684 0.0000
-0.2632 -0.2632 0.0000
-0.2632 0.3684 0.0000
-0.2632 0.4737 0.0000
-0.2632 0.5789 0.0000
-0.2632 0.6842 0.0000
-0.2632 0.7895 0.0000
-0.2632 0.8947 0.0000
-0.2632 1.0000 0.0000
-0.1579 -0.8947 0.0000
-0.1579 -0.7895 0.0000
-0.1579 -0.6842 0.0000
-0.1579 -0.5789 0.0000
-0.1579 -0.4737 0.0000
-0.1579 -0.3684 0.0000
-0.1579 -0.2632 0.0000
-0.1579 0.3684 0.0000
-0.1579 0.4737 0.0000
-0.1579 0.5789 0.0000
-0.1579 0.6842 0.0000
-0.1579 0.7895 0.0000
-0.1579 0.8947 0.0000
-0.1579 1.0000 0.0000
-0.0526 -0.8947 0.0000
-0.0526 -0.7895 0.0000
-0.0526 -0.6842 0.0000
-0.0526 -0.5789 0.0000
-0.0526 -0.4737 0.0000
-0.0526 -0.3684 0.0000
-0.0526 0.4737 0.0000
-0.0526 0.5789 0.0000
-0.0526 0.6842 0.0000
-0.0526 0.7895 0.0000
-0.0526 0.8947 0.0000
-0.0526 1.0000 0.0000
0.0526 -0.8947 0.0000
0.0526 -0.7895 0.0000
0.0526 -0.6842 0.0000
0.0526 -0.5789 0.0000
0.0526 -0.4737 0.0000
0.0526 -0.3684 0.0000
0.0526 0.4737 0.0000
0.0526 0.5789 0.0000
0.0526 0.6842 0.0000
0.0526 0.7895 0.0000
0.0526 0.8947 0.0000
0.0526 1.0000 0.0000
0.1579 -0.8947 0.0000
0.1579 -0.7895 0.0000
0.1579 -0.6842 0.0000
0.1579 -0.5789 0.0000
0.1579 -0.4737 0.0000
0.1579 -0.3684 0.0000
0.1579 -0.2632 0.0000
0.1579 0.3684 0.0000
0.1579 0.4737 0.0000
0.1579 0.5789 0.0000
0.1579 0.6842 0.0000
0.1579 0.7895 0.0000
0.1579 0.8947 0.0000
0.1579 1.0000 0.0000
0.2632 -0.8947 0.0000
0.2632 -0.7895 0.0000
0.2632 -0.6842 0.0000
0.2632 -0.5789 0.0000
0.2632 -0.4737 0.0000
0.2632 -0.3684 0.0000
0.2632 -0.2632 0.0000
0.2632 -0.1579 0.0000
0.2632 0.2632 0.0000
0.2632 0.3684 0.0000
0.2632 0.4737 0.0000
0.2632 0.5789 0.0000
0.2632 0.6842 0.0000
0.2632 0.7895 0.0000
0.2632 0.8947 0.0000
0.2632 1.0000 0.0000
0.3684 -0.8947 0.0000
0.3684 -0.7895 0.0000
0.3684 -0.6842 0.0000
0.3684 -0.5789 0.0000
0.3684 -0.4737 0.0000
0.3684 -0.3684 0.0000
0.3684 -0.2632 0.0000
0.3684 -0.1579 0.0000
0.3684 -0.0526 0.0000
0.3684 0.0526 0.0000
0.3684 0.1579 0.0000
0.3684 0.2632 0.0000
0.3684 0.3684 0.0000
0.3684 0.4737 0.0000
0.3684 0.5789 0.0000
0.3684 0.6842 0.0000
0.3684 0.7895 0.0000
0.3684 0.8947 0.0000
0.3684 1.0000 0.0000
0.4737 -0.8947 0.0000
0.4737 -0.7895 0.0000
0.4737 -0.6842 0.0000
0.4737 -0.5789 0.0000
0.4737 -0.4737 0.0000
0.4737 -0.3684 0.0000
0.4737 -0.2632 0.0000
0.4737 -0.1579 0.0000
0.4737 -0.0526 0.0000
0.4737 0.0526 0.0000
0.4737 0.1579 0.0000
0.4737 0.2632 0.0000
0.4737 0.3684 0.0000
0.4737 0.4737 0.0000
0.4737 0.5789 0.0000
0.4737 0.6842 0.0000
0.4737 0.7895 0.0000
0.4737 0.8947 0.0000
0.4737 1.0000 0.0000
0.5789 -0.8947 0.0000
0.5789 -0.7895 0.0000
0.5789 -0.6842 0.0000
0.5789 -0.5789 0.0000
0.5789 -0.4737 0.0000
0.5789 -0.3684 0.0000
0.5789 -0.2632 0.0000
0.5789 -0.1579 0.0000
0.5789 -0.0526 0.0000
0.5789 0.0526 0.0000
0.5789 0.1579 0.0000
0.5789 0.2632 0.0000
0.5789 0.3684 0.0000
0.5789 0.4737 0.0000
0.5789 0.5789 0.0000
0.5789 0.6842 0.0000
0.5789 0.7895 0.0000
0.5789 0.8947 0.0000
0.5789 1.0000 0.0000
0.6842 -0.8947 0.0000
0.6842 -0.7895 0.0000
0.6842 -0.6842 0.0000
0.6842 -0.5789 0.0000
0.6842 -0.4737 0.0000
0.6842 -0.3684 0.0000
0.6842 -0.2632 0.0000
0.6842 -0.1579 0.0000
0.6842 -0.0526 0.0000
0.6842 0.0526 0.0000
0.6842 0.1579 0.0000
0.6842 0.2632 0.0000
0.6842 0.3684 0.0000
0.6842 0.4737 0.0000
0.6842 0.5789 0.0000
0.6842 0.6842 0.0000
0.6842 0.7895 0.0000
0.6842 0.8947 0.0000
0.6842 1.0000 0.0000
0.7895 -0.8947 0.0000
0.7895 -0.7895 0.0000
0.7895 -0.6842 0.0000
0.7895 -0.5789 0.0000
0.7895 -0.4737 0.0000
0.7895 -0.3684 0.0000
0.7895 -0.2632 0.0000
0.7895 -0.1579 0.0000
0.7895 -0.0526 0.0000
0.7895 0.0526 0.0000
0.7895 0.1579 0.0000
0.7895 0.2632 0.0000
0.7895 0.3684 0.0000
0.7895 0.4737 0.0000
0.7895 0.5789 0.0000
0.7895 0.6842 0.0000
0.7895 0.7895 0.0000
0.7895 0.8947 0.0000
0.7895 1.0000 0.0000
0.8947 -0.8947 0.0000
0.8947 -0.7895 0.0000
0.8947 -0.6842 0.0000
0.8947 -0.5789 0.0000
0.8947 -0.4737 0.0000
0.8947 -0.3684 0.0000
0.8947 -0.2632 0.0000
0.8947 -0.1579 0.0000
0.8947 -0.0526 0.0000
0.8947 0.0526 0.0000
0.8947 0.1579 0.0000
0.8947 0.2632 0.0000
0.8947 0.3684 0.0000
0.8947 0.4737 0.0000
0.8947 0.5789 0.0000
0.8947 0.6842 0.0000
0.8947 0.7895 0.0000
0.8947 0.8947 0.0000
0.8947 1.0000 0.0000
-0.2632 -0.1579 0.0000
-0.2632 0.1579 0.0000
-0.2632 0.2632 0.0000
-0.0526 0.3684 0.0000
0.0526 0.3684 0.0000
1.0000 -0.8947 0.0000
1.0000 -0.7895 0.0000
1.0000 -0.6842 0.0000
1.0000 -0.5789 0.0000
1.0000 -0.4737 0.0000
1.0000 -0.3684 0.0000
1.0000 -0.2632 0.0000
1.0000 -0.1579 0.0000
1.0000 -0.0526 0.0000
1.0000 0.0526 0.0000
1.0000 0.1579 0.0000
1.0000 0.2632 0.0000
1.0000 0.3684 0.0000
1.0000 0.4737 0.0000
1.0000 0.5789 0.0000
1.0000 0.6842 0.0000
1.0000 0.7895 0.0000
1.0000 0.8947 0.0000
1.0000 1.0000 0.0000
-0.8947 -1.0000 0.0000
-0.7895 -1.0000 0.0000
-0.6842 -1.0000 0.0000
-0.5789 -1.0000 0.0000
-0.4737 -1.0000 0.0000
-0.3684 -1.0000 0.0000
-0.2632 -1.0000 0.0000
-0.1579 -1.0000 0.0000
-0.1579 0.2632 0.0000
-0.0526 -1.0000 0.0000
0.0526 -1.0000 0.0000
0.1579 -1.0000 0.0000
0.1579 0.2632 0.0000
0.2632 -1.0000 0.0000
0.3684 -1.0000 0.0000
0.4737 -1.0000 0.0000
0.5789 -1.0000 0.0000
0.6842 -1.0000 0.0000
0.7895 -1.0000 0.0000
0.8947 -1.0000 0.0000
1.0000 -1.0000 0.0000
-1.0000 -1.0000 0.0000
0.2632 0.1579 0.0000
-0.9474 -0.9474 0.0000
-0.9474 -0.8421 0.0000
-0.9474 -0.7368 0.0000
-0.9474 -0.6316 0.0000
-0.9474 -0.5263 0.0000
-0.9474 -0.4211 0.0000
-0.9474 -0.3158 0.0000
-0.9474 -0.2105 0.0000
-0.9474 -0.1053 0.0000
-0.9474 0.0000 0.0000
-0.9474 0.1053 0.0000
-0.9474 0.2105 0.0000
-0.9474 0.3158 0.0000
-0.9474 0.4211 0.0000
-0.9474 0.5263 0.0000
-0.9474 0.6316 0.0000
-0.9474 0.7368 0.0000
-0.9474 0.8421 0.0000
-0.9474 0.9474 0.0000
-0.8421 -0.9474 0.0000
-0.8421 -0.8421 0.0000
-0.8421 -0.7368 0.0000
-0.8421 -0.6316 0.0000
-0.8421 -0.5263 0.0000
-0.8421 -0.4211 0.0000
-0.8421 -0.3158 0.0000
-0.8421 -0.2105 0.0000
-0.8421 -0.1053 0.0000
-0.8421 0.0000 0.0000
-0.8421 0.1053 0.0000
-0.8421 0.2105 0.0000
-0.8421 0.3158 0.0000
-0.8421 0.4211 0.0000
-0.8421 0.5263 0.0000
-0.8421 0.6316 0.0000
-0.8421 0.7368 0.0000
-0.8421 0.8421 0.0000
-0.8421 0.9474 0.0000
-0.7368 -0.9474 0.0000
-0.7368 -0.8421 0.0000
-0.7368 -0.7368 0.0000
-0.7368 -0.6316 0.0000
-0.7368 -0.5263 0.0000
-0.7368 -0.4211 0.0000
-0.7368 -0.3158 0.0000
-0.7368 -0.2105 0.0000
-0.7368 -0.1053 0.0000
-0.7368 0.0000 0.0000
-0.7368 0.1053 0.0000
-0.7368 0.2105 0.0000
-0.7368 0.3158 0.0000
-0.7368 0.4211 0.0000
-0.7368 0.5263 0.0000
-0.7368 0.6316 0.0000
-0.7368 0.7368 0.0000
-0.7368 0.8421 0.0000
-0.7368 0.9474 0.0000
-0.6316 -0.9474 0.0000
-0.6316 -0.8421 0.0000
-0.6316 -0.7368 0.0000
-0.6316 -0.6316 0.0000
-0.6316 -0.5263 0.0000
-0.6316 -0.4211 0.0000
[...]
         <PointData>
            <DataArray Name="fValues" NumberOfComponents="3" format="ascii" type="Float64">
-1.43829e-19 -1.97099e-19        00000 
 3.37144e-19  4.21430e-19        00000 
-5.10154e-19 -3.40103e-19        00000 
-2.52858e-19  6.74288e-19        00000 
 8.26014e-19  8.89553e-19        00000 
 6.74288e-19  2.86572e-18        00000 
-2.34027e-22  6.80553e-19        00000 
 8.42860e-19  2.86572e-18        00000 
 1.82147e-18 -7.62474e-19        00000 
 4.72002e-18  2.19144e-18        00000 
-1.32852e-18  1.98016e-18        00000 
 4.72002e-18  4.38287e-18        00000 
 2.24506e-18 -4.04535e-18        00000 
       00000  3.70858e-18        00000 
 1.02014e-18  2.73842e-19        00000 
 2.36001e-18  5.05716e-19        00000 
 4.71070e-18 -1.34743e-18        00000 
-6.03564e-18  1.19115e-18        00000 
 1.04289e-17  1.97327e-20        00000 
 4.02699e-03  3.64843e-03        00000 
 6.20252e-03  5.66288e-03        00000 
 7.78071e-03  7.01195e-03        00000 
 8.94970e-03  8.15260e-03        00000 
 9.87040e-03  9.40462e-03        00000 
 1.07481e-02  1.10040e-02        00000 
 1.18587e-02  1.30541e-02        00000 
 1.35012e-02  1.54607e-02        00000 
 1.58967e-02  1.79145e-02        00000 
 1.90815e-02  1.99800e-02        00000 
 2.28885e-02  2.12454e-02        00000 
 2.69666e-02  2.14583e-02        00000 
 3.09549e-02  2.06220e-02        00000 
 3.46103e-02  1.89088e-02        00000 
 3.78642e-02  1.65453e-02        00000 
 4.08116e-02  1.36967e-02        00000 
 4.36846e-02  1.03547e-02        00000 
 4.68756e-02  6.20050e-03        00000 
 5.26310e-02  5.13918e-19        00000 
 6.80576e-03  5.31404e-03        00000 
 1.15607e-02  9.12713e-03        00000 
 1.49114e-02  1.18366e-02        00000 
 1.72717e-02  1.40606e-02        00000 
 1.89457e-02  1.63367e-02        00000 
 2.04554e-02  1.91513e-02        00000 
 2.23465e-02  2.27060e-02        00000 
 2.56831e-02  2.70145e-02        00000 
 3.06616e-02  3.14039e-02        00000 
 3.75219e-02  3.50145e-02        00000 
 4.58063e-02  3.71069e-02        00000 
 5.43678e-02  3.72382e-02        00000 
 6.28825e-02  3.55980e-02        00000 
 7.06525e-02  3.23955e-02        00000 
 7.74419e-02  2.80573e-02        00000 
 8.35546e-02  2.28079e-02        00000 
 8.95232e-02  1.66120e-02        00000 
 9.62627e-02  9.07920e-03        00000 
 1.05262e-01 -1.70906e-19        00000 
 9.28618e-03  6.46684e-03        00000 
 1.64544e-02  1.13892e-02        00000 
 2.17063e-02  1.50574e-02        00000 
 2.53040e-02  1.79778e-02        00000 
 2.76854e-02  2.08361e-02        00000 
 2.96912e-02  2.44222e-02        00000 
 3.15669e-02  2.87179e-02        00000 
 3.49787e-02  3.38378e-02        00000 
 4.20497e-02  3.96087e-02        00000 
 5.29333e-02  4.47804e-02        00000 
 6.66836e-02  4.78771e-02        00000 
 8.21865e-02  4.84267e-02        00000 
 9.65725e-02  4.59871e-02        00000 
 1.08432e-01  4.14713e-02        00000 
 1.18575e-01  3.53628e-02        00000 
 1.27847e-01  2.83128e-02        00000 
 1.36903e-01  2.01701e-02        00000 
 1.46613e-01  1.07405e-02        00000 
 1.57893e-01 -6.74288e-19        00000 
 1.18220e-02  7.39833e-03        00000 
 2.13986e-02  1.31058e-02        00000 
 2.86453e-02  1.73277e-02        00000 
 3.38572e-02  2.06874e-02        00000 
 3.66402e-02  2.33489e-02        00000 
 3.75500e-02  2.60801e-02        00000 
 3.85814e-02  3.02045e-02        00000 
 4.29489e-02  3.65908e-02        00000 
 5.21396e-02  4.42324e-02        00000 
 6.77590e-02  5.09505e-02        00000 
 8.81600e-02  5.48246e-02        00000 
 1.08790e-01  5.44465e-02        00000 
 1.29266e-01  5.16103e-02        00000 
 1.47739e-01  4.66161e-02        00000 
 1.61953e-01  3.93669e-02        00000 
 1.73216e-01  3.09937e-02        00000 
 1.85035e-01  2.18835e-02        00000 
 1.97303e-01  1.15604e-02        00000 
 2.10524e-01  1.69174e-18        00000 
 1.45575e-02  8.31816e-03        00000 
 2.66953e-02  1.47412e-02        00000 
 3.62362e-02  1.94155e-02        00000 
 4.29750e-02  2.25320e-02        00000 
 4.56824e-02  2.40057e-02        00000 
 4.66982e-02  2.60809e-02        00000 
 4.77980e-02  3.00532e-02        00000 
 5.11866e-02  3.65342e-02        00000 
 6.15802e-02  4.52464e-02        00000 
 8.28195e-02  5.44113e-02        00000 
 1.12602e-01  5.97984e-02        00000 
 1.42258e-01  5.90361e-02        00000 
 1.65202e-01  5.31812e-02        00000 
 1.85990e-01  4.70253e-02        00000 
 2.05565e-01  4.03088e-02        00000 
 2.19395e-01  3.15906e-02        00000 
 2.33366e-01  2.22714e-02        00000 
 2.47979e-01  1.18207e-02        00000 
 2.63155e-01 -3.00441e-19        00000 
 1.74910e-02  9.39115e-03        00000 
 3.24186e-02  1.67203e-02        00000 
 4.48372e-02  2.21634e-02        00000 
 5.29057e-02  2.46559e-02        00000 
 5.74361e-02  2.57218e-02        00000 
 5.97774e-02  2.69736e-02        00000 
 5.55470e-02  2.72639e-02        00000 
 5.01514e-02  2.93090e-02        00000 
 5.70430e-02  3.52261e-02        00000 
 8.21559e-02  4.40740e-02        00000 
 1.24286e-01  5.36413e-02        00000 
 1.74228e-01  5.80347e-02        00000 
 2.08920e-01  5.33042e-02        00000 
 2.28261e-01  4.55023e-02        00000 
 2.47820e-01  3.87185e-02        00000 
 2.67209e-01  3.18827e-02        00000 
 2.81920e-01  2.23503e-02        00000 
 2.98441e-01  1.18589e-02        00000 
 3.15786e-01 -5.13849e-19        00000 
 2.04854e-02  1.07146e-02        00000 
 3.84555e-02  1.94045e-02        00000 
 5.37873e-02  2.57764e-02        00000 
 6.43508e-02  2.87050e-02        00000 
 7.29360e-02  3.03719e-02        00000 
 7.31091e-02  2.82443e-02        00000 
 6.06777e-02  2.42961e-02        00000 
 2.49781e-01  4.76549e-02        00000 
 2.74348e-01  4.25664e-02        00000 
 2.91422e-01  3.64397e-02        00000 
 3.11523e-01  2.99871e-02        00000 
 3.29740e-01  2.17530e-02        00000 
 3.48664e-01  1.18041e-02        00000 
 3.68417e-01  2.90243e-18        00000 
 2.33149e-02  1.22640e-02        00000 
 4.45330e-02  2.28802e-02        00000 
 6.24653e-02  3.05007e-02        00000 
 7.76594e-02  3.57831e-02        00000 
 9.13241e-02  3.88794e-02        00000 
 8.76267e-02  3.34925e-02        00000 
 7.44585e-02  2.96370e-02        00000 
 2.92185e-01  4.40869e-02        00000 
 3.19752e-01  4.03244e-02        00000 
 3.36168e-01  3.67475e-02        00000 
 3.56191e-01  3.01045e-02        00000 
 3.77340e-01  2.21177e-02        00000 
 3.98469e-01  1.21272e-02        00000 
 4.21048e-01 -5.42791e-19        00000 
 2.57548e-02  1.38694e-02        00000 
 4.99953e-02  2.65165e-02        00000 
 7.07934e-02  3.62277e-02        00000 
 9.08890e-02  4.45888e-02        00000 
 1.10148e-01  5.12528e-02        00000 
 1.10312e-01  4.62906e-02        00000 
 3.59850e-01  4.37446e-02        00000 
 3.81855e-01  4.05810e-02        00000 
 4.02012e-01  3.33699e-02        00000 
 4.23993e-01  2.38060e-02        00000 
 4.48141e-01  1.29833e-02        00000 
 4.73679e-01  2.94686e-18        00000 
 2.76892e-02  1.52514e-02        00000 
 5.45591e-02  2.96914e-02        00000 
 7.85403e-02  4.15238e-02        00000 
 1.02192e-01  5.28558e-02        00000 
 1.28599e-01  6.43692e-02        00000 
 1.38716e-01  6.43869e-02        00000 
 4.03077e-01  5.69176e-02        00000 
 4.25527e-01  4.88736e-02        00000 
 4.48958e-01  3.87605e-02        00000 
 4.71332e-01  2.70484e-02        00000 
 4.98374e-01  1.44209e-02        00000 
 5.26310e-01  3.58408e-18        00000 
 2.91806e-02  1.60970e-02        00000 
 5.82636e-02  3.16490e-02        00000 
 8.57463e-02  4.49381e-02        00000 
 1.12630e-01  5.77086e-02        00000 
 1.42955e-01  7.20800e-02        00000 
 1.69377e-01  7.87302e-02        00000 
 2.07831e-01  8.36934e-02        00000 
 4.51253e-01  8.91904e-02        00000 
 4.46190e-01  7.36695e-02        00000 
 4.73824e-01  5.86912e-02        00000 
 4.95452e-01  4.46593e-02        00000 
 5.20010e-01  3.09674e-02        00000 
 5.49113e-01  1.59514e-02        00000 
 5.78941e-01 -7.61722e-19        00000 
 3.04936e-02  1.62049e-02        00000 
 6.15086e-02  3.16608e-02        00000 
 9.29197e-02  4.59220e-02        00000 
 1.22323e-01  5.76308e-02        00000 
 1.56302e-01  7.10231e-02        00000 
 1.92917e-01  8.24565e-02        00000 
 2.39725e-01  9.25653e-02        00000 
 3.13932e-01  1.12094e-01        00000 
 4.98715e-01  1.15569e-01        00000 
 4.84134e-01  1.01784e-01        00000 
 4.96586e-01  8.31357e-02        00000 
 5.22089e-01  6.53245e-02        00000 
 5.41925e-01  5.00823e-02        00000 
 5.70329e-01  3.39985e-02        00000 
 6.00395e-01  1.73196e-02        00000 
 6.31572e-01  2.74008e-18        00000 
 3.19809e-02  1.55931e-02        00000 
 6.50788e-02  3.01256e-02        00000 
 9.93157e-02  4.35369e-02        00000 
 1.33699e-01  5.45003e-02        00000 
 1.70090e-01  6.36852e-02        00000 
 2.11447e-01  7.21800e-02        00000 
 2.58962e-01  7.75407e-02        00000 
 3.25757e-01  8.77523e-02        00000 
 3.98704e-01  1.01583e-01        00000 
 4.62057e-01  1.10365e-01        00000 
 4.99727e-01  1.11991e-01        00000 
 5.11282e-01  1.07963e-01        00000 
 5.19849e-01  9.82080e-02        00000 
 5.44191e-01  8.33118e-02        00000 
 5.65716e-01  6.84435e-02        00000 
 5.88655e-01  5.31268e-02        00000 
 6.20926e-01  3.55354e-02        00000 
 6.52059e-01  1.80525e-02        00000 
 6.84203e-01  3.22214e-18        00000 
 3.38097e-02  1.44804e-02        00000 
 6.93643e-02  2.75412e-02        00000 
 1.06546e-01  3.91120e-02        00000 
 1.45134e-01  4.87836e-02        00000 
 1.85560e-01  5.58913e-02        00000 
 2.31355e-01  6.15261e-02        00000 
 2.80148e-01  6.35234e-02        00000 
 3.36836e-01  6.48927e-02        00000 
 3.98999e-01  6.87166e-02        00000 
 4.56443e-01  7.80512e-02        00000 
 4.99264e-01  8.82725e-02        00000 
 5.29678e-01  9.26365e-02        00000 
 5.56657e-01  8.86595e-02        00000 
 5.82722e-01  7.88672e-02        00000 
 6.06362e-01  6.64914e-02        00000 
 6.37937e-01  5.12096e-02        00000 
 6.70528e-01  3.50799e-02        00000 
 7.03640e-01  1.79897e-02        00000 
 7.36834e-01 -2.62984e-18        00000 
 3.60745e-02  1.29506e-02        00000 
 7.44652e-02  2.41545e-02        00000 
 1.14690e-01  3.34132e-02        00000 
 1.56622e-01  4.06574e-02        00000 
 2.00376e-01  4.57397e-02        00000 
 2.48604e-01  4.98651e-02        00000 
 3.01116e-01  5.38836e-02        00000 
 3.56270e-01  5.66457e-02        00000 
 4.13268e-01  6.14114e-02        00000 
 4.66703e-01  6.81567e-02        00000 
 5.12506e-01  7.48959e-02        00000 
 5.51401e-01  7.81373e-02        00000 
 5.84506e-01  7.53973e-02        00000 
 6.15245e-01  6.89410e-02        00000 
 6.47579e-01  5.93179e-02        00000 
 6.83458e-01  4.70858e-02        00000 
 7.19092e-01  3.29350e-02        00000 
 7.54787e-01  1.71108e-02        00000 
 7.89464e-01  2.54785e-18        00000 
 3.88171e-02  1.11131e-02        00000 
 8.03892e-02  2.02111e-02        00000 
 1.23936e-01  2.72814e-02        00000 
 1.69110e-01  3.24811e-02        00000 
 2.15822e-01  3.58594e-02        00000 
 2.64954e-01  3.82364e-02        00000 
 3.16878e-01  3.98996e-02        00000 
 3.71774e-01  4.35959e-02        00000 
 4.26359e-01  4.80951e-02        00000 
 4.78570e-01  5.32537e-02        00000 
 5.26512e-01  5.75412e-02        00000 
 5.69302e-01  5.95145e-02        00000 
 6.08676e-01  5.95965e-02        00000 
 6.48043e-01  5.64883e-02        00000 
 6.87007e-01  4.98544e-02        00000 
 7.26513e-01  4.05313e-02        00000 
 7.66247e-01  2.89918e-02        00000 
 8.05273e-01  1.53867e-02        00000 
 8.42095e-01 -4.91669e-18        00000 
 4.21041e-02  8.90570e-03        00000 
 8.72578e-02  1.55577e-02        00000 
 1.34147e-01  2.02295e-02        00000 
 1.82195e-01  2.34204e-02        00000 
 2.31449e-01  2.55230e-02        00000 
 2.82126e-01  2.68867e-02        00000 
 3.33940e-01  2.80346e-02        00000 
 3.86693e-01  2.95066e-02        00000 
 4.39871e-01  3.21562e-02        00000 
 4.91901e-01  3.57439e-02        00000 
 5.41791e-01  3.95555e-02        00000 
 5.89315e-01  4.24905e-02        00000 
 6.34465e-01  4.32754e-02        00000 
 6.78942e-01  4.15473e-02        00000 
 7.23079e-01  3.74051e-02        00000 
 7.67381e-01  3.11950e-02        00000 
 8.11650e-01  2.30406e-02        00000 
 8.54817e-01  1.26703e-02        00000 
 8.94726e-01  1.85429e-18        00000 
 4.62666e-02  5.98327e-03        00000 
 9.54636e-02  9.37643e-03        00000 
 1.45462e-01  1.15258e-02        00000 
 1.96021e-01  1.28668e-02        00000 
 2.47141e-01  1.36439e-02        00000 
 2.98867e-01  1.41529e-02        00000 
 3.51110e-01  1.46988e-02        00000 
 4.03746e-01  1.56019e-02        00000 
 4.56418e-01  1.71332e-02        00000 
 5.08584e-01  1.91939e-02        00000 
 5.59845e-01  2.13815e-02        00000 
 6.10049e-01  2.30942e-02        00000 
 6.59414e-01  2.37555e-02        00000 
 7.08366e-01  2.31381e-02        00000 
 7.57152e-01  2.12503e-02        00000 
 8.05935e-01  1.82053e-02        00000 
 8.54639e-01  1.40662e-02        00000 
 9.02820e-01  8.53480e-03        00000 
 9.47357e-01 -1.36375e-18        00000 
 5.31334e-02  2.47335e-02        00000 
 1.38386e-01  3.84419e-02        00000 
 2.00858e-01  4.74741e-02        00000 
 3.47943e-01  5.07304e-02        00000 
 4.03382e-01  6.88304e-02        00000 
 5.26310e-02 -2.66760e-19        00000 
 1.05262e-01  6.26053e-19        00000 
 1.57893e-01 -1.68472e-18        00000 
 2.10524e-01 -8.91095e-19        00000 
 2.63155e-01 -2.80630e-19        00000 
 3.15786e-01 -7.47704e-19        00000 
 3.68417e-01  1.02782e-18        00000 
 4.21048e-01  4.32301e-19        00000 
 4.73679e-01  1.30786e-18        00000 
 5.26310e-01  6.04899e-19        00000 
 5.78941e-01  9.71441e-19        00000 
 6.31572e-01  9.42044e-19        00000 
 6.84203e-01  2.63686e-18        00000 
 7.36834e-01 -1.89921e-19        00000 
 7.89464e-01 -2.06112e-18        00000 
 8.42095e-01  1.66437e-18        00000 
 8.94726e-01 -8.15480e-19        00000 
 9.47357e-01  3.27274e-19        00000 
 9.99988e-01  3.61182e-20        00000 
       00000  4.90911e-19        00000 
 5.33938e-19 -9.93005e-19        00000 
 9.28251e-19 -8.77141e-19        00000 
-1.19547e-18  4.79929e-19        00000 
 2.53963e-19 -4.55711e-19        00000 
 1.27076e-18 -2.47300e-19        00000 
 1.09913e-18  7.26004e-19        00000 
 8.21220e-18 -7.24028e-19        00000 
 2.44356e-01  4.78845e-02        00000 
 3.45914e-18  2.41172e-18        00000 
-6.35424e-19 -8.40336e-19        00000 
 5.05038e-18  9.44135e-19        00000 
 4.73026e-01  1.01819e-01        00000 
-4.62515e-18  9.42160e-19        00000 
 4.37610e-18 -9.10157e-19        00000 
 3.59791e-18  9.47359e-19        00000 
 1.84467e-18  2.65490e-18        00000 
 2.49477e-18  5.91571e-19        00000 
-4.23532e-18 -1.22553e-18        00000 
-5.23639e-18        00000        00000 
 5.35200e-18 -1.56310e-19        00000 
 3.70457e-19  1.49547e-19        00000 
 4.94483e-01  1.25322e-01        00000 
 1.46280e-03  1.41548e-03        00000 
 2.80919e-03  2.59977e-03        00000 
 3.66444e-03  3.36598e-03        00000 
 4.32518e-03  3.93726e-03        00000 
 4.86153e-03  4.50439e-03        00000 
 5.35454e-03  5.21186e-03        00000 
 5.90794e-03  6.15335e-03        00000 
 6.64075e-03  7.33400e-03        00000 
 7.65609e-03  8.64320e-03        00000 
 9.00241e-03  9.87141e-03        00000 
 1.06503e-02  1.07818e-02        00000 
 1.24904e-02  1.11855e-02        00000 
 1.43756e-02  1.10183e-02        00000 
 1.61772e-02  1.03396e-02        00000 
 1.78232e-02  9.27027e-03        00000 
 1.93129e-02  7.92894e-03        00000 
 2.07063e-02  6.37197e-03        00000 
 2.21208e-02  4.53766e-03        00000 
 2.41016e-02  2.26955e-03        00000 
 2.91639e-03  2.58796e-03        00000 
 7.37383e-03  6.26055e-03        00000 
 1.02839e-02  8.63120e-03        00000 
 1.23638e-02  1.04144e-02        00000 
 1.38874e-02  1.20828e-02        00000 
 1.51327e-02  1.40333e-02        00000 
 1.65396e-02  1.65760e-02        00000 
 1.85007e-02  1.97065e-02        00000 
 2.16791e-02  2.32726e-02        00000 
 2.59860e-02  2.65434e-02        00000 
 3.14298e-02  2.88980e-02        00000 
 3.74198e-02  2.98427e-02        00000 
 4.36536e-02  2.92814e-02        00000 
 4.95864e-02  2.73949e-02        00000 
 5.48952e-02  2.44189e-02        00000 
 5.96180e-02  2.06725e-02        00000 
 6.40368e-02  1.62548e-02        00000 
 6.86642e-02  1.10052e-02        00000 
 7.48980e-02  4.22540e-03        00000 
 4.16708e-03  3.25527e-03        00000 
 1.11654e-02  8.37597e-03        00000 
 1.62781e-02  1.20902e-02        00000 
 1.98854e-02  1.48877e-02        00000 
 2.23464e-02  1.73676e-02        00000 
 2.42922e-02  2.02488e-02        00000 
 2.62247e-02  2.38381e-02        00000 
 2.89393e-02  2.82315e-02        00000 
 3.35158e-02  3.32280e-02        00000 
 4.09854e-02  3.82028e-02        00000 
 5.08625e-02  4.18789e-02        00000 
 6.25063e-02  4.34713e-02        00000 
 7.40865e-02  4.26012e-02        00000 
 8.43400e-02  3.93350e-02        00000 
 9.34957e-02  3.47505e-02        00000 
 1.01628e-01  2.90298e-02        00000 
 1.09214e-01  2.23616e-02        00000 
 1.17088e-01  1.45218e-02        00000 
 1.26300e-01  5.24005e-03        00000 
 5.39349e-03  3.78328e-03        00000 
 1.48385e-02  9.89110e-03        00000 
 2.21204e-02  1.44694e-02        00000 
 2.73708e-02  1.79058e-02        00000 
 3.09467e-02  2.08509e-02        00000 
 3.29664e-02  2.36889e-02        00000 
 3.43529e-02  2.72672e-02        00000 
 3.69011e-02  3.22249e-02        00000 
 4.32505e-02  3.88320e-02        00000 
 5.39018e-02  4.54730e-02        00000 
 6.89492e-02  5.03970e-02        00000 
 8.60300e-02  5.21330e-02        00000 
 1.04161e-01  5.08560e-02        00000 
 1.20713e-01  4.71716e-02        00000 
 1.34230e-01  4.11732e-02        00000 
 1.45111e-01  3.38052e-02        00000 
 1.55627e-01  2.56850e-02        00000 
 1.66352e-01  1.64084e-02        00000 
 1.77981e-01  5.81782e-03        00000 
 6.70985e-03  4.27105e-03        00000 
 1.87078e-02  1.12110e-02        00000 
 2.82761e-02  1.64109e-02        00000 
 3.54943e-02  2.02710e-02        00000 
 3.96623e-02  2.26539e-02        00000 
 4.13109e-02  2.46830e-02        00000 
 4.22128e-02  2.77512e-02        00000 
 4.50172e-02  3.31301e-02        00000 
 5.21326e-02  4.07760e-02        00000 
 6.64302e-02  4.94069e-02        00000 
 8.81143e-02  5.62243e-02        00000 
 1.12802e-01  5.82127e-02        00000 
 1.35433e-01  5.50085e-02        00000 
 1.56493e-01  4.99492e-02        00000 
 1.75388e-01  4.39760e-02        00000 
 1.90246e-01  3.58753e-02        00000 
 2.02680e-01  2.69751e-02        00000 
 2.15904e-01  1.71772e-02        00000 
 2.29708e-01  6.08967e-03        00000 
 8.14625e-03  4.79402e-03        00000 
 2.29035e-02  1.26410e-02        00000 
 3.50718e-02  1.85509e-02        00000 
 4.43348e-02  2.25155e-02        00000 
 4.94519e-02  2.42440e-02        00000 
 5.21951e-02  2.57751e-02        00000 
 5.27660e-02  2.75316e-02        00000 
 5.16106e-02  3.04372e-02        00000 
 5.46221e-02  3.61382e-02        00000 
 7.08337e-02  4.52244e-02        00000 
 1.00965e-01  5.45258e-02        00000 
 1.39954e-01  5.98916e-02        00000 
 1.73835e-01  5.72179e-02        00000 
 1.96819e-01  4.96348e-02        00000 
 2.16464e-01  4.29389e-02        00000 
 2.35706e-01  3.63738e-02        00000 
 2.50345e-01  2.70310e-02        00000 
 2.65403e-01  1.73310e-02        00000 
 2.81335e-01  6.19102e-03        00000 
 9.65954e-03  5.40073e-03        00000 
 2.73600e-02  1.44148e-02        00000 
 4.25892e-02  2.14790e-02        00000 
 5.40467e-02  2.56588e-02        00000 
 6.15499e-02  2.75080e-02        00000 
 6.61860e-02  2.81776e-02        00000 
 6.15374e-02  2.55212e-02        00000 