<?xml version="1.0" encoding="utf-8"?>
<VTKFile byte_order="LittleEndian" type="UnstructuredGrid" version="0.1">
   <UnstructuredGrid>
      <Piece NumberOfCells="1408" NumberOfPoints="804">
         <Points>
            <DataArray Name="Points" NumberOfComponents="3" format="ascii" type="Float32">
-1.0000 -0.8947 0.0000
-1.0000 -0.7895 0.0000
-1.0000 -0.6842 0.0000
-1.0000 -0.5789 0.0000
-1.0000 -0.4737 0.0000
-1.0000 -0.3684 0.0000
-1.0000 -0.2632 0.0000
-1.0000 -0.1579 0.0000
-1.0000 -0.0526 0.0000
-1.0000 0.0526 0.0000
-1.0000 0.1579 0.0000
-1.0000 0.2632 0.0000
-1.0000 0.3684 0.0000
-1.0000 0.4737 0.0000
-1.0000 0.5789 0.0000
-1.0000 0.6842 0.0000
-1.0000 0.7895 0.0000
-1.0000 0.8947 0.0000
-1.0000 1.0000 0.0000
-0.8947 -0.8947 0.0000
-0.8947 -0.7895 0.0000
-0.8947 -0.6842 0.0000
-0.8947 -0.5789 0.0000
-0.8947 -0.4737 0.0000
-0.8947 -0.3684 0.0000
-0.8947 -0.2632 0.0000
-0.8947 -0.1579 0.0000
-0.8947 -0.0526 0.0000
-0.8947 0.0526 0.0000
-0.8947 0.1579 0.0000
-0.8947 0.2632 0.0000
-0.8947 0.3684 0.0000
-0.8947 0.4737 0.0000
-0.8947 0.5789 0.0000
-0.8947 0.6842 0.0000
-0.8947 0.7895 0.0000
-0.8947 0.8947 0.0000
-0.8947 1.0000 0.0000
-0.7895 -0.8947 0.0000
-0.7895 -0.7895 0.0000
-0.7895 -0.6842 0.0000
-0.7895 -0.5789 0.0000
-0.7895 -0.4737 0.0000
-0.7895 -0.3684 0.0000
-0.7895 -0.2632 0.0000
-0.7895 -0.1579 0.0000
-0.7895 -0.0526 0.0000
-0.7895 0.0526 0.0000
-0.7895 0.1579 0.0000
-0.7895 0.2632 0.0000
-0.7895 0.3684 0.0000
-0.7895 0.4737 0.0000
-0.7895 0.5789 0.0000
-0.7895 0.6842 0.0000
-0.7895 0.7895 0.0000
-0.7895 0.8947 0.0000
-0.7895 1.0000 0.0000
-0.6842 -0.8947 0.0000
-0.6842 -0.7895 0.0000
-0.6842 -0.6842 0.0000
-0.6842 -0.5789 0.0000
-0.6842 -0.4737 0.0000
-0.6842 -0.3684 0.0000
-0.6842 -0.2632 0.0000
-0.6842 -0.1579 0.0000
-0.6842 -0.0526 0.0000
-0.6842 0.0526 0.0000
-0.6842 0.1579 0.0000
-0.6842 0.2632 0.0000
-0.6842 0.3684 0.0000
-0.6842 0.4737 0.0000
-0.6842 0.5789 0.0000
-0.6842 0.6842 0.0000
-0.6842 0.7895 0.0000
-0.6842 0.8947 0.0000
-0.6842 1.0000 0.0000
-0.5789 -0.8947 0.0000
-0.5789 -0.7895 0.0000
-0.5789 -0.6842 0.0000
-0.5789 -0.5789 0.0000
-0.5789 -0.4737 0.0000
-0.5789 -0.3684 0.0000
-0.5789 -0.2632 0.0000
-0.5789 -0.1579 0.0000
-0.5789 -0.0526 0.0000
-0.5789 0.0526 0.0000
-0.5789 0.1579 0.0000
-0.5789 0.2632 0.0000
-0.5789 0.3684 0.0000
-0.5789 0.4737 0.0000
-0.5789 0.5789 0.0000
-0.5789 0.6842 0.0000
-0.5789 0.7895 0.0000
-0.5789 0.8947 0.0000
-0.5789 1.0000 0.0000
-0.4737 -0.8947 0.0000
-0.4737 -0.7895 0.0000
-0.4737 -0.6842 0.0000
-0.4737 -0.5789 0.0000
-0.4737 -0.4737 0.0000
-0.4737 -0.3684 0.0000
-0.4737 -0.2632 0.0000
-0.4737 -0.1579 0.0000
-0.4737 -0.0526 0.0000
-0.4737 0.0526 0.0000
-0.4737 0.1579 0.0000
-0.4737 0.2632 0.0000
-0.4737 0.3684 0.0000
-0.4737 0.4737 0.0000
-0.4737 0.5789 0.0000
-0.4737 0.6842 0.0000
-0.4737 0.7895 0.0000
-0.4737 0.8947 0.0000
-0.4737 1.0000 0.0000
-0.3684 -0.8947 0.0000
-0.3684 -0.7895 0.0000
-0.3684 -0.6842 0.0000
-0.3684 -0.5789 0.0000
-0.3684 -0.4737 0.0000
-0.3684 -0.3684 0.0000
-0.3684 -0.2632 0.0000
-0.3684 -0.1579 0.0000
-0.3684 -0.0526 0.0000
-0.3684 0.0526 0.0000
-0.3684 0.1579 0.0000
-0.3684 0.2632 0.0000
-0.3684 0.3684 0.0000
-0.3684 0.4737 0.0000
-0.3684 0.5789 0.0000
-0.3684 0.6842 0.0000
-0.3684 0.7895 0.0000
-0.3684 0.8947 0.0000
-0.3684 1.0000 0.0000
-0.2632 -0.8947 0.0000
-0.2632 -0.7895 0.0000
-0.2632 -0.6842 0.0000
-0.2632 -0.5789 0.0000
-0.2632 -0.4737 0.0000
-0.2632 -0.3684 0.0000
-0.2632 -0.2632 0.0000
-0.2632 0.3684 0.0000
-0.2632 0.4737 0.0000
-0.2632 0.5789 0.0000
-0.2632 0.6842 0.0000
-0.2632 0.7895 0.0000
-0.2632 0.8947 0.0000
-0.2632 1.0000 0.0000
-0.1579 -0.8947 0.0000
-0.1579 -0.7895 0.0000
-0.1579 -0.6842 0.0000
-0.1579 -0.5789 0.0000
-0.1579 -0.4737 0.0000
-0.1579 -0.3684 0.0000
-0.1579 -0.2632 0.0000
-0.1579 0.3684 0.0000
-0.1579 0.4737 0.0000
-0.1579 0.5789 0.0000
-0.1579 0.6842 0.0000
-0.1579 0.7895 0.0000
-0.1579 0.8947 0.0000
-0.1579 1.0000 0.0000
-0.0526 -0.8947 0.0000
-0.0526 -0.7895 0.0000
-0.0526 -0.6842 0.0000
-0.0526 -0.5789 0.0000
-0.0526 -0.4737 0.0000
-0.0526 -0.3684 0.0000
-0.0526 0.4737 0.0000
-0.0526 0.5789 0.0000
-0.0526 0.6842 0.0000
-0.0526 0.7895 0.0000
-0.0526 0.8947 0.0000
-0.0526 1.0000 0.0000
0.0526 -0.8947 0.0000
0.0526 -0.7895 0.0000
0.0526 -0.6842 0.0000
0.0526 -0.5789 0.0000
0.0526 -0.4737 0.0000
0.0526 -0.3684 0.0000
0.0526 0.4737 0.0000
0.0526 0.5789 0.0000
0.0526 0.6842 0.0000
0.0526 0.7895 0.0000
0.0526 0.8947 0.0000
0.0526 1.0000 0.0000
0.1579 -0.8947 0.0000
0.1579 -0.7895 0.0000
0.1579 -0.6842 0.0000
0.1579 -0.5789 0.0000
0.1579 -0.4737 0.0000
0.1579 -0.3684 0.0000
0.1579 -0.2632 0.0000
0.1579 0.3684 0.0000
0.1579 0.4737 0.0000
0.1579 0.5789 0.0000
0.1579 0.6842 0.0000
0.1579 0.7895 0.0000
0.1579 0.8947 0.0000
0.1579 1.0000 0.0000
0.2632 -0.8947 0.0000
0.2632 -0.7895 0.0000
0.2632 -0.6842 0.0000
0.2632 -0.5789 0.0000
0.2632 -0.4737 0.0000
0.2632 -0.3684 0.0000
0.2632 -0.2632 0.0000
0.2632 -0.1579 0.0000
0.2632 0.2632 0.0000
0.2632 0.3684 0.0000
0.2632 0.4737 0.0000
0.2632 0.5789 0.0000
0.2632 0.6842 0.0000
0.2632 0.7895 0.0000
0.2632 0.8947 0.0000
0.2632 1.0000 0.0000
0.3684 -0.8947 0.0000
0.3684 -0.7895 0.0000
0.3684 -0.6842 0.0000
0.3684 -0.5789 0.0000
0.3684 -0.4737 0.0000
0.3684 -0.3684 0.0000
0.3684 -0.2632 0.0000
0.3684 -0.1579 0.0000
0.3684 -0.0526 0.0000
0.3684 0.0526 0.0000
0.3684 0.1579 0.0000
0.3684 0.2632 0.0000
0.3684 0.3684 0.0000
0.3684 0.4737 0.0000
0.3684 0.5789 0.0000
0.3684 0.6842 0.0000
0.3684 0.7895 0.0000
0.3684 0.8947 0.0000
0.3684 1.0000 0.0000
0.4737 -0.8947 0.0000
0.4737 -0.7895 0.0000
0.4737 -0.6842 0.0000
0.4737 -0.5789 0.0000
0.4737 -0.4737 0.0000
0.4737 -0.3684 0.0000
0.4737 -0.2632 0.0000
0.4737 -0.1579 0.0000
0.4737 -0.0526 0.0000
0.4737 0.0526 0.0000
0.4737 0.1579 0.0000
0.4737 0.2632 0.0000
0.4737 0.3684 0.0000
0.4737 0.4737 0.0000
0.4737 0.5789 0.0000
0.4737 0.6842 0.0000
0.4737 0.7895 0.0000
0.4737 0.8947 0.0000
0.4737 1.0000 0.0000
0.5789 -0.8947 0.0000
0.5789 -0.7895 0.0000
0.5789 -0.6842 0.0000
0.5789 -0.5789 0.0000
0.5789 -0.4737 0.0000
0.5789 -0.3684 0.0000
0.5789 -0.2632 0.0000
0.5789 -0.1579 0.0000
0.5789 -0.0526 0.0000
0.5789 0.0526 0.0000
0.5789 0.1579 0.0000
0.5789 0.2632 0.0000
0.5789 0.3684 0.0000
0.5789 0.4737 0.0000
0.5789 0.5789 0.0000
0.5789 0.6842 0.0000
0.5789 0.7895 0.0000
0.5789 0.8947 0.0000
0.5789 1.0000 0.0000
0.6842 -0.8947 0.0000
0.6842 -0.7895 0.0000
0.6842 -0.6842 0.0000
0.6842 -0.5789 0.0000
0.6842 -0.4737 0.0000
0.6842 -0.3684 0.0000
0.6842 -0.2632 0.0000
0.6842 -0.1579 0.0000
0.6842 -0.0526 0.0000
0.6842 0.0526 0.0000
0.6842 0.1579 0.0000
0.6842 0.2632 0.0000
0.6842 0.3684 0.0000
0.6842 0.4737 0.0000
0.6842 0.5789 0.0000
0.6842 0.6842 0.0000
0.6842 0.7895 0.0000
0.6842 0.8947 0.0000
0.6842 1.0000 0.0000
0.7895 -0.8947 0.0000
0.7895 -0.7895 0.0000
0.7895 -0.6842 0.0000
0.7895 -0.5789 0.0000
0.7895 -0.4737 0.0000
0.7895 -0.3684 0.0000
0.7895 -0.2632 0.0000
0.7895 -0.1579 0.0000
0.7895 -0.0526 0.0000
0.7895 0.0526 0.0000
0.7895 0.1579 0.0000
0.7895 0.2632 0.0000
0.7895 0.3684 0.0000
0.7895 0.4737 0.0000
0.7895 0.5789 0.0000
0.7895 0.6842 0.0000
0.7895 0.7895 0.0000
0.7895 0.8947 0.0000
0.7895 1.0000 0.0000
0.8947 -0.8947 0.0000
0.8947 -0.7895 0.0000
0.8947 -0.6842 0.0000
0.8947 -0.5789 0.0000
0.8947 -0.4737 0.0000
0.8947 -0.3684 0.0000
0.8947 -0.2632 0.0000
0.8947 -0.1579 0.0000
0.8947 -0.0526 0.0000
0.8947 0.0526 0.0000
0.8947 0.1579 0.0000
0.8947 0.2632 0.0000
0.8947 0.3684 0.0000
0.8947 0.4737 0.0000
0.8947 0.5789 0.0000
0.8947 0.6842 0.0000
0.8947 0.7895 0.0000
0.8947 0.8947 0.0000
0.8947 1.0000 0.0000
-0.2632 -0.1579 0.0000
-0.2632 0.1579 0.0000
-0.2632 0.2632 0.0000
-0.0526 0.3684 0.0000
0.0526 0.3684 0.0000
1.0000 -0.8947 0.0000
1.0000 -0.7895 0.0000
1.0000 -0.6842 0.0000
1.0000 -0.5789 0.0000
1.0000 -0.4737 0.0000
1.0000 -0.3684 0.0000
1.0000 -0.2632 0.0000
1.0000 -0.1579 0.0000
1.0000 -0.0526 0.0000
1.0000 0.0526 0.0000
1.0000 0.1579 0.0000
1.0000 0.2632 0.0000
1.0000 0.3684 0.0000
1.0000 0.4737 0.0000
1.0000 0.5789 0.0000
1.0000 0.6842 0.0000
1.0000 0.7895 0.0000
1.0000 0.8947 0.0000
1.0000 1.0000 0.0000
-0.8947 -1.0000 0.0000
-0.7895 -1.0000 0.0000
-0.6842 -1.0000 0.0000
-0.5789 -1.0000 0.0000
-0.4737 -1.0000 0.0000
-0.3684 -1.0000 0.0000
-0.2632 -1.0000 0.0000
-0.1579 -1.0000 0.0000
-0.1579 0.2632 0.0000
-0.0526 -1.0000 0.0000
0.0526 -1.0000 0.0000
0.1579 -1.0000 0.0000
0.1579 0.2632 0.0000
0.2632 -1.0000 0.0000
0.3684 -1.0000 0.0000
0.4737 -1.0000 0.0000
0.5789 -1.0000 0.0000
0.6842 -1.0000 0.0000
0.7895 -1.0000 0.0000
0.8947 -1.0000 0.0000
1.0000 -1.0000 0.0000
-1.0000 -1.0000 0.0000
0.2632 0.1579 0.0000
-0.9474 -0.9474 0.0000
-0.9474 -0.8421 0.0000
-0.9474 -0.7368 0.0000
-0.9474 -0.6316 0.0000
-0.9474 -0.5263 0.0000
-0.9474 -0.4211 0.0000
-0.9474 -0.3158 0.0000
-0.9474 -0.2105 0.0000
-0.9474 -0.1053 0.0000
-0.9474 0.0000 0.0000
-0.9474 0.1053 0.0000
-0.9474 0.2105 0.0000
-0.9474 0.3158 0.0000
-0.9474 0.4211 0.0000
-0.9474 0.5263 0.0000
-0.9474 0.6316 0.0000
-0.9474 0.7368 0.0000
-0.9474 0.8421 0.0000
-0.9474 0.9474 0.0000
-0.8421 -0.9474 0.0000
-0.8421 -0.8421 0.0000
-0.8421 -0.7368 0.0000
-0.8421 -0.6316 0.0000
-0.8421 -0.5263 0.0000
-0.8421 -0.4211 0.0000
-0.8421 -0.3158 0.0000
-0.8421 -0.2105 0.0000
-0.8421 -0.1053 0.0000
-0.8421 0.0000 0.0000
-0.8421 0.1053 0.0000
-0.8421 0.2105 0.0000
-0.8421 0.3158 0.0000
-0.8421 0.4211 0.0000
-0.8421 0.5263 0.0000
-0.8421 0.6316 0.0000
-0.8421 0.7368 0.0000
-0.8421 0.8421 0.0000
-0.8421 0.9474 0.0000
-0.7368 -0.9474 0.0000
-0.7368 -0.8421 0.0000
-0.7368 -0.7368 0.0000
-0.7368 -0.6316 0.0000
-0.7368 -0.5263 0.0000
-0.7368 -0.4211 0.0000
-0.7368 -0.3158 0.0000
-0.7368 -0.2105 0.0000
-0.7368 -0.1053 0.0000
-0.7368 0.0000 0.0000
-0.7368 0.1053 0.0000
-0.7368 0.2105 0.0000
-0.7368 0.3158 0.0000
-0.7368 0.4211 0.0000
-0.7368 0.5263 0.0000
-0.7368 0.6316 0.0000
-0.7368 0.7368 0.0000
-0.7368 0.8421 0.0000
-0.7368 0.9474 0.0000
-0.6316 -0.9474 0.0000
-0.6316 -0.8421 0.0000
-0.6316 -0.7368 0.0000
-0.6316 -0.6316 0.0000
-0.6316 -0.5263 0.0000
-0.6316 -0.4211 0.0000
[...]
         <PointData>
            <DataArray Name="fValues" NumberOfComponents="3" format="ascii" type="Float64">
-1.32110e-18  9.47357e-01        00000 
 8.42860e-19  8.94726e-01        00000 
 1.02031e-18  8.42095e-01        00000 
 1.68572e-18  7.89464e-01        00000 
 3.17698e-19  7.36834e-01        00000 
 1.01143e-18  6.84203e-01        00000 
 1.01983e-18  6.31572e-01        00000 
 2.19144e-18  5.78941e-01        00000 
 2.22388e-19  5.26310e-01        00000 
 3.20287e-18  4.73679e-01        00000 
-2.68893e-18  4.21048e-01        00000 
 3.54001e-18  3.68417e-01        00000 
-1.02722e-18  3.15786e-01        00000 
 5.05716e-19  2.63155e-01        00000 
-1.15656e-18  2.10524e-01        00000 
-3.37144e-19  1.57893e-01        00000 
 6.47190e-19  1.05262e-01        00000 
-9.96423e-19  5.26310e-02        00000 
 6.40846e-19  2.31920e-17        00000 
 8.53457e-03  9.02816e-01        00000 
 1.26697e-02  8.54810e-01        00000 
 1.53842e-02  8.05262e-01        00000 
 1.71075e-02  7.54775e-01        00000 
 1.79739e-02  7.03626e-01        00000 
 1.80474e-02  6.52060e-01        00000 
 1.72771e-02  6.00334e-01        00000 
 1.59422e-02  5.49021e-01        00000 
 1.43570e-02  4.98415e-01        00000 
 1.30607e-02  4.48189e-01        00000 
 1.21486e-02  3.98378e-01        00000 
 1.18692e-02  3.48605e-01        00000 
 1.18800e-02  2.98448e-01        00000 
 1.18469e-02  2.47959e-01        00000 
 1.15597e-02  1.97288e-01        00000 
 1.07407e-02  1.46600e-01        00000 
 9.07871e-03  9.62543e-02        00000 
 6.20033e-03  4.68718e-02        00000 
-6.74964e-19 -7.39445e-18        00000 
 1.40684e-02  8.54633e-01        00000 
 2.30425e-02  8.11637e-01        00000 
 2.89898e-02  7.66226e-01        00000 
 3.29247e-02  7.19066e-01        00000 
 3.50551e-02  6.70533e-01        00000 
 3.56734e-02  6.20489e-01        00000 
 3.39516e-02  5.70224e-01        00000 
 3.08360e-02  5.19821e-01        00000 
 2.69519e-02  4.71440e-01        00000 
 2.39040e-02  4.24139e-01        00000 
 2.22827e-02  3.77215e-01        00000 
 2.18356e-02  3.29754e-01        00000 
 2.22518e-02  2.81580e-01        00000 
 2.23194e-02  2.33390e-01        00000 
 2.18842e-02  1.85000e-01        00000 
 2.01669e-02  1.36875e-01        00000 
 1.66067e-02  8.95068e-02        00000 
 1.03513e-02  4.36779e-02        00000 
 1.36725e-18 -3.41812e-18        00000 
 1.82124e-02  8.05930e-01        00000 
 3.12033e-02  7.67366e-01        00000 
 4.05378e-02  7.26481e-01        00000 
 4.70738e-02  6.83410e-01        00000 
 5.12665e-02  6.37768e-01        00000 
 5.31446e-02  5.88523e-01        00000 
 5.00442e-02  5.41678e-01        00000 
 4.44556e-02  4.95540e-01        00000 
 3.86031e-02  4.48573e-01        00000 
 3.34867e-02  4.01647e-01        00000 
 3.03360e-02  3.56413e-01        00000 
 3.00623e-02  3.11390e-01        00000 
 3.18895e-02  2.67317e-01        00000 
 3.15575e-02  2.19193e-01        00000 
 3.09878e-02  1.73146e-01        00000 
 2.82982e-02  1.27808e-01        00000 
 2.27928e-02  8.35341e-02        00000 
 1.36875e-02  4.08040e-02        00000 
-6.74288e-19  2.69715e-18        00000 
 2.12627e-02  7.57151e-01        00000 
 3.74222e-02  7.23073e-01        00000 
 4.98719e-02  6.86987e-01        00000 
 5.93401e-02  6.47534e-01        00000 
 6.65396e-02  6.06274e-01        00000 
 6.84871e-02  5.65492e-01        00000 
 6.52511e-02  5.21782e-01        00000 
 5.85677e-02  4.73417e-01        00000 
 4.87635e-02  4.24883e-01        00000 
 4.05970e-02  3.81180e-01        00000 
 3.68322e-02  3.35739e-01        00000 
 3.65441e-02  2.91095e-01        00000 
 3.87536e-02  2.47557e-01        00000 
 4.03447e-02  2.05507e-01        00000 
 3.92960e-02  1.61859e-01        00000 
 3.53243e-02  1.18538e-01        00000 
 2.80304e-02  7.74267e-02        00000 
 1.65295e-02  3.78599e-02        00000 
-3.86966e-19 -2.37036e-18        00000 
 2.31513e-02  7.08366e-01        00000 
 4.15875e-02  6.78941e-01        00000 
 5.65056e-02  6.48054e-01        00000 
 6.90200e-02  6.15241e-01        00000 
 7.89043e-02  5.82751e-01        00000 
 8.34213e-02  5.44157e-01        00000 
 8.31344e-02  4.96257e-01        00000 
 7.33586e-02  4.45732e-01        00000 
 5.67125e-02  4.00835e-01        00000 
 4.38160e-02  3.57413e-01        00000 
 4.06086e-02  3.19076e-01        00000 
 4.26129e-02  2.73774e-01        00000 
 4.55321e-02  2.28107e-01        00000 
 4.69599e-02  1.85990e-01        00000 
 4.65670e-02  1.47820e-01        00000 
 4.14208e-02  1.08466e-01        00000 
 3.23743e-02  7.06751e-02        00000 
 1.88904e-02  3.46208e-02        00000 
 1.30304e-18  2.75971e-18        00000 
 2.37723e-02  6.59420e-01        00000 
 4.33780e-02  6.34604e-01        00000 
 5.98647e-02  6.08867e-01        00000 
 7.54196e-02  5.84627e-01        00000 
 8.86459e-02  5.56781e-01        00000 
 9.84692e-02  5.19908e-01        00000 
 1.01837e-01  4.84202e-01        00000 
 8.92539e-02  4.50518e-01        00000 
 6.86423e-02  4.02690e-01        00000 
 5.09183e-02  3.47302e-01        00000 
 4.40370e-02  2.91499e-01        00000 
 4.78241e-02  2.50365e-01        00000 
 5.35822e-02  2.09519e-01        00000 
 5.30753e-02  1.65464e-01        00000 
 5.15498e-02  1.29465e-01        00000 
 4.59608e-02  9.67888e-02        00000 
 3.55926e-02  6.30611e-02        00000 
 2.06124e-02  3.09769e-02        00000 
 2.99745e-18  8.56416e-18        00000 
 2.31010e-02  6.10055e-01        00000 
 4.25956e-02  5.89367e-01        00000 
 5.96467e-02  5.69405e-01        00000 
 7.81660e-02  5.51562e-01        00000 
 9.25618e-02  5.29836e-01        00000 
 1.08331e-01  5.11303e-01        00000 
 1.15756e-01  4.98770e-01        00000 
 5.81822e-02  1.74472e-01        00000 
 5.88644e-02  1.42461e-01        00000 
 5.43972e-02  1.08982e-01        00000 
 4.84095e-02  8.23269e-02        00000 
 3.72535e-02  5.44556e-02        00000 
 2.14543e-02  2.69952e-02        00000 
 1.47162e-18  2.08543e-18        00000 
 2.13798e-02  5.59855e-01        00000 
 3.96060e-02  5.41819e-01        00000 
 5.76472e-02  5.26580e-01        00000 
 7.49235e-02  5.12640e-01        00000 
 8.82307e-02  4.99399e-01        00000 
 1.12190e-01  4.99808e-01        00000 
 1.25851e-01  4.94566e-01        00000 
 5.34897e-02  1.24381e-01        00000 
 5.96213e-02  1.12711e-01        00000 
 5.47753e-02  8.82547e-02        00000 
 4.79056e-02  6.67792e-02        00000 
 3.71215e-02  4.58678e-02        00000 
 2.12491e-02  2.29109e-02        00000 
 7.18314e-19  2.75255e-18        00000 
 1.91855e-02  5.08588e-01        00000 
 3.57585e-02  4.91932e-01        00000 
 5.32896e-02  4.78650e-01        00000 
 6.81927e-02  4.66827e-01        00000 
 7.80682e-02  4.56592e-01        00000 
 1.10555e-01  4.62066e-01        00000 
 5.42001e-02  8.28344e-02        00000 
 5.08831e-02  6.77892e-02        00000 
 4.47645e-02  5.29728e-02        00000 
 3.50371e-02  3.75548e-02        00000 
 1.99949e-02  1.90994e-02        00000 
 4.28291e-18  3.38298e-18        00000 
 1.71134e-02  4.56408e-01        00000 
 3.21108e-02  4.39871e-01        00000 
 4.80979e-02  4.26396e-01        00000 
 6.15059e-02  4.13357e-01        00000 
 6.90975e-02  3.99131e-01        00000 
 1.01657e-01  3.98724e-01        00000 
 4.50596e-02  6.15786e-02        00000 
 4.41692e-02  5.21343e-02        00000 
 3.95859e-02  4.20455e-02        00000 
 3.14123e-02  3.06638e-02        00000 
 1.79278e-02  1.59004e-02        00000 
 3.75955e-18 -1.61584e-19        00000 
 1.55931e-02  4.03731e-01        00000 
 2.94485e-02  3.86646e-01        00000 
 4.34734e-02  3.71718e-01        00000 
 5.67114e-02  3.56279e-01        00000 
 6.51854e-02  3.36827e-01        00000 
 8.78103e-02  3.25729e-01        00000 
 1.11223e-01  3.13881e-01        00000 
 2.92032e-02  5.01375e-02        00000 
 3.64604e-02  5.11512e-02        00000 
 3.65467e-02  4.29190e-02        00000 
 3.38258e-02  3.49506e-02        00000 
 2.70075e-02  2.56697e-02        00000 
 1.54675e-02  1.34994e-02        00000 
-2.68539e-19  1.02297e-18        00000 
 1.46940e-02  3.51085e-01        00000 
 2.79430e-02  3.33872e-01        00000 
 3.98229e-02  3.16793e-01        00000 
 5.39446e-02  3.01024e-01        00000 
 6.38254e-02  2.80051e-01        00000 
 7.70449e-02  2.58688e-01        00000 
 9.23524e-02  2.39457e-01        00000 
 8.36484e-02  2.06549e-01        00000 
 2.42834e-02  6.06358e-02        00000 
 2.72439e-02  5.54952e-02        00000 
 2.99978e-02  4.77461e-02        00000 
 3.01641e-02  3.85204e-02        00000 
 2.86797e-02  3.15184e-02        00000 
 2.26772e-02  2.23136e-02        00000 
 1.30562e-02  1.18559e-02        00000 
 1.88818e-19  9.41670e-19        00000 
 1.41472e-02  2.98849e-01        00000 
 2.68341e-02  2.82007e-01        00000 
 3.80579e-02  2.64833e-01        00000 
 4.99277e-02  2.48467e-01        00000 
 6.16652e-02  2.31169e-01        00000 
 7.15994e-02  2.10843e-01        00000 
 8.22039e-02  1.92380e-01        00000 
 7.86459e-02  1.69610e-01        00000 
 6.42026e-02  1.38993e-01        00000 
 4.64749e-02  1.10639e-01        00000 
 3.35632e-02  8.79072e-02        00000 
 2.82749e-02  7.30880e-02        00000 
 2.70150e-02  5.97128e-02        00000 
 2.60615e-02  4.66511e-02        00000 
 2.60558e-02  3.74923e-02        00000 
 2.43589e-02  2.95941e-02        00000 
 1.91067e-02  2.03761e-02        00000 
 1.10027e-02  1.07463e-02        00000 
 2.20252e-18  1.86048e-18        00000 
 1.36523e-02  2.47131e-01        00000 
 2.55097e-02  2.31425e-01        00000 
 3.59036e-02  2.15793e-01        00000 
 4.57229e-02  2.00284e-01        00000 
 5.59130e-02  1.85593e-01        00000 
 6.35014e-02  1.70254e-01        00000 
 7.08947e-02  1.56693e-01        00000 
 7.19403e-02  1.43398e-01        00000 
 6.43544e-02  1.29350e-01        00000 
 5.14013e-02  1.10705e-01        00000 
 3.90458e-02  9.15485e-02        00000 
 3.04551e-02  7.30807e-02        00000 
 2.57662e-02  5.74808e-02        00000 
 2.40123e-02  4.56875e-02        00000 
 2.33358e-02  3.66326e-02        00000 
 2.08251e-02  2.76805e-02        00000 
 1.63309e-02  1.89458e-02        00000 
 9.40144e-03  9.87058e-03        00000 
 1.02479e-18 -8.65746e-20        00000 
 1.28733e-02  1.96027e-01        00000 
 2.34353e-02  1.82211e-01        00000 
 3.25079e-02  1.69140e-01        00000 
 4.07093e-02  1.56693e-01        00000 
 4.86787e-02  1.45145e-01        00000 
 5.43459e-02  1.33809e-01        00000 
 5.74854e-02  1.22454e-01        00000 
 5.76421e-02  1.12766e-01        00000 
 5.28654e-02  1.02393e-01        00000 
 4.46733e-02  9.10583e-02        00000 
 3.58884e-02  7.77728e-02        00000 
 2.88194e-02  6.44603e-02        00000 
 2.47316e-02  5.29774e-02        00000 
 2.25528e-02  4.30162e-02        00000 
 2.06841e-02  3.38800e-02        00000 
 1.79720e-02  2.53158e-02        00000 
 1.40555e-02  1.72776e-02        00000 
 8.14943e-03  8.95219e-03        00000 
 1.79659e-19  2.36619e-18        00000 
 1.15297e-02  1.45468e-01        00000 
 2.02388e-02  1.34162e-01        00000 
 2.72906e-02  1.23962e-01        00000 
 3.34258e-02  1.14738e-01        00000 
 3.90676e-02  1.06622e-01        00000 
 4.34006e-02  9.91782e-02        00000 
 4.57963e-02  9.28857e-02        00000 
 4.48239e-02  8.56575e-02        00000 
 4.15016e-02  7.85903e-02        00000 
 3.62906e-02  7.08633e-02        00000 
 3.05871e-02  6.25110e-02        00000 
 2.58649e-02  5.38681e-02        00000 
 2.22750e-02  4.49415e-02        00000 
 1.94361e-02  3.62797e-02        00000 
 1.73331e-02  2.86731e-02        00000 
 1.50565e-02  2.17235e-02        00000 
 1.18341e-02  1.49209e-02        00000 
 7.01010e-03  7.78472e-03        00000 
 4.18289e-19 -4.45223e-19        00000 
 9.37780e-03  9.54689e-02        00000 
 1.55610e-02  8.72707e-02        00000 
 2.02142e-02  8.04121e-02        00000 
 2.41566e-02  7.44984e-02        00000 
 2.75018e-02  6.93746e-02        00000 
 3.00039e-02  6.50632e-02        00000 
 3.15674e-02  6.14490e-02        00000 
 3.15649e-02  5.82299e-02        00000 
 2.96608e-02  5.45227e-02        00000 
 2.65456e-02  4.99960e-02        00000 
 2.29307e-02  4.45643e-02        00000 
 1.94622e-02  3.85164e-02        00000 
 1.68025e-02  3.25004e-02        00000 
 1.47576e-02  2.67246e-02        00000 
 1.31132e-02  2.14220e-02        00000 
 1.13914e-02  1.64705e-02        00000 
 9.12723e-03  1.15703e-02        00000 
 5.66269e-03  6.20669e-03        00000 
 2.52858e-19  5.90002e-19        00000 
 5.98290e-03  4.62699e-02        00000 
 8.90566e-03  4.21115e-02        00000 
 1.11129e-02  3.88291e-02        00000 
 1.29494e-02  3.60916e-02        00000 
 1.44610e-02  3.38311e-02        00000 
 1.55637e-02  3.19897e-02        00000 
 1.61650e-02  3.05029e-02        00000 
 1.60667e-02  2.91816e-02        00000 
 1.52296e-02  2.76707e-02        00000 
 1.38776e-02  2.57428e-02        00000 
 1.22820e-02  2.33179e-02        00000 
 1.07319e-02  2.04974e-02        00000 
 9.40454e-03  1.75069e-02        00000 
 8.32723e-03  1.45736e-02        00000 
 7.40349e-03  1.18357e-02        00000 
 6.46936e-03  9.29617e-03        00000 
 5.31523e-03  6.81193e-03        00000 
 3.64919e-03  4.02986e-03        00000 
-8.52342e-20 -2.55702e-19        00000 
 1.01918e-01  4.73705e-01        00000 
 4.78076e-02  2.45955e-01        00000 
 4.75126e-02  2.01138e-01        00000 
 4.39345e-02  8.21645e-02        00000 
 3.51019e-02  5.70626e-02        00000 
 2.67817e-19 -3.52647e-18        00000 
-1.22552e-18 -3.67755e-18        00000 
-1.72274e-18 -4.34505e-19        00000 
-8.88379e-19 -3.34040e-18        00000 
-2.15151e-18 -4.95954e-19        00000 
 8.89073e-19 -8.45591e-19        00000 
 1.71303e-18  2.39824e-18        00000 
 1.56336e-18 -1.85702e-18        00000 
-1.73851e-18  2.72338e-18        00000 
 1.90934e-18 -1.62384e-18        00000 
-7.70730e-19  3.85365e-18        00000 
 2.24649e-18 -3.30956e-18        00000 
-2.26104e-18  1.75534e-18        00000 
 5.91245e-19  3.72994e-19        00000 
-1.73991e-20 -5.01897e-19        00000 
-2.51615e-19  1.72157e-18        00000 
 1.10659e-18 -2.46162e-19        00000 
-3.27274e-19  4.90911e-19        00000 
 6.60627e-19 -5.88022e-20        00000 
-1.30910e-18  9.47357e-01        00000 
 2.15415e-18  8.94726e-01        00000 
-2.06903e-19  8.42095e-01        00000 
 2.89664e-18  7.89464e-01        00000 
 4.67385e-19  7.36834e-01        00000 
-3.02168e-19  6.84203e-01        00000 
-1.22663e-18  6.31572e-01        00000 
 3.01272e-18  5.78941e-01        00000 
 3.88327e-02  1.38491e-01        00000 
 1.13338e-18  5.26310e-01        00000 
-8.74024e-19  4.73679e-01        00000 
 1.49268e-18  4.21048e-01        00000 
 2.46843e-02  5.31046e-02        00000 
 3.42603e-19  3.68417e-01        00000 
-2.44717e-20  3.15786e-01        00000 
 1.59025e-18  2.63155e-01        00000 
-5.28086e-19  2.10524e-01        00000 
 3.13185e-19  1.57893e-01        00000 
-1.20554e-18  1.05262e-01        00000 
 1.14546e-18  5.26310e-02        00000 
-5.76319e-19  8.01761e-18        00000 
 8.80548e-19  9.99988e-01        00000 
 2.96602e-02  7.40961e-02        00000 
 3.14488e-03  9.50447e-01        00000 
 5.87909e-03  9.00444e-01        00000 
 7.39894e-03  8.49563e-01        00000 
 8.39089e-03  7.98115e-01        00000 
 8.95561e-03  7.46283e-01        00000 
 9.13839e-03  6.94190e-01        00000 
 8.94593e-03  6.41942e-01        00000 
 8.46620e-03  5.89814e-01        00000 
 7.82920e-03  5.37965e-01        00000 
 7.17461e-03  4.86496e-01        00000 
 6.65931e-03  4.35227e-01        00000 
 6.35855e-03  3.84067e-01        00000 
 6.24814e-03  3.32818e-01        00000 
 6.19948e-03  2.81333e-01        00000 
 6.09654e-03  2.29696e-01        00000 
 5.81801e-03  1.77974e-01        00000 
 5.24050e-03  1.26295e-01        00000 
 4.22582e-03  7.48950e-02        00000 
 2.26998e-03  2.41007e-02        00000 
 6.20676e-03  9.00575e-01        00000 
 1.52051e-02  8.56579e-01        00000 
 2.05385e-02  8.09888e-01        00000 
 2.40175e-02  7.61609e-01        00000 
 2.60908e-02  7.12161e-01        00000 
 2.68927e-02  6.61810e-01        00000 
 2.64113e-02  6.10689e-01        00000 
 2.46689e-02  5.59775e-01        00000 
 2.22355e-02  5.09431e-01        00000 
 1.99161e-02  4.60272e-01        00000 
 1.82007e-02  4.11946e-01        00000 
 1.73099e-02  3.63310e-01        00000 
 1.72841e-02  3.14811e-01        00000 
 1.73659e-02  2.65345e-01        00000 
 1.71848e-02  2.15884e-01        00000 
 1.64082e-02  1.66328e-01        00000 
 1.45205e-02  1.17072e-01        00000 
 1.10035e-02  6.86556e-02        00000 
 4.53713e-03  2.21186e-02        00000 
 8.56112e-03  8.49864e-01        00000 
 2.21857e-02  8.10394e-01        00000 
 3.15092e-02  7.68351e-01        00000 
 3.78904e-02  7.24124e-01        00000 
 4.19488e-02  6.78062e-01        00000 
 4.38696e-02  6.29514e-01        00000 
 4.33561e-02  5.80324e-01        00000 
 4.02585e-02  5.31064e-01        00000 
 3.53901e-02  4.83582e-01        00000 
 3.07925e-02  4.36196e-01        00000 
 2.77049e-02  3.89647e-01        00000 
 2.64385e-02  3.44030e-01        00000 
 2.66522e-02  2.96966e-01        00000 
 2.72361e-02  2.50826e-01        00000 
 2.69846e-02  2.02595e-01        00000 
 2.56811e-02  1.55582e-01        00000 
 2.23530e-02  1.09188e-01        00000 
 1.62469e-02  6.40245e-02        00000 
 6.36894e-03  2.07034e-02        00000 
 1.03503e-02  7.99042e-01        00000 
 2.75859e-02  7.63776e-01        00000 
 4.03578e-02  7.26368e-01        00000 
 4.97606e-02  6.86655e-01        00000 
 5.64939e-02  6.43796e-01        00000 
 6.08034e-02  5.98935e-01        00000 
 5.95716e-02  5.54438e-01        00000 
 5.43650e-02  5.08917e-01        00000 
 4.75132e-02  4.60074e-01        00000 
 4.07922e-02  4.13822e-01        00000 
 3.54767e-02  3.69055e-01        00000 
 3.34246e-02  3.22973e-01        00000 
 3.44011e-02  2.79389e-01        00000 
 3.64174e-02  2.35582e-01        00000 
 3.58118e-02  1.90093e-01        00000 
 3.37717e-02  1.45046e-01        00000 
 2.90053e-02  1.01600e-01        00000 
 2.06555e-02  5.96067e-02        00000 
 7.92227e-03  1.93107e-02        00000 
 1.15842e-02  7.48190e-01        00000 
 3.14380e-02  7.17168e-01        00000 
 4.70446e-02  6.84638e-01        00000 
 5.93735e-02  6.49571e-01        00000 
 6.95128e-02  6.13244e-01        00000 
 7.47679e-02  5.75699e-01        00000 
 7.47776e-02  5.33507e-01        00000 
 6.99077e-02  4.84073e-01        00000 
 5.96499e-02  4.35607e-01        00000 
 4.73464e-02  3.90859e-01        00000 
 4.07765e-02  3.48438e-01        00000 
 3.90534e-02  3.05043e-01        00000 
 4.05964e-02  2.59396e-01        00000 
 4.28972e-02  2.16269e-01        00000 
 4.39680e-02  1.75406e-01        00000 
 4.11016e-02  1.34216e-01        00000 
 3.47074e-02  9.34922e-02        00000 
 2.43947e-02  5.48970e-02        00000 
 9.25988e-03  1.78251e-02        00000 
 1.21915e-02  6.97283e-01        00000 
 3.35541e-02  6.70474e-01        00000 
 5.13609e-02  6.42880e-01        00000 
 6.60560e-02  6.14170e-01        00000 
 7.88267e-02  5.85840e-01        00000 
 8.77003e-02  5.51733e-01        00000 
 9.27736e-02  5.09819e-01        00000 
 8.84561e-02  4.66668e-01        00000 
 7.16614e-02  4.24572e-01        00000 
 5.35794e-02  3.76153e-01        00000 
 4.27628e-02  3.28011e-01        00000 
 4.44236e-02  2.85521e-01        00000 
 4.79267e-02  2.42104e-01        00000 
 4.95754e-02  1.96914e-01        00000 
 4.98227e-02  1.56596e-01        00000 
 4.71284e-02  1.20845e-01        00000 
 3.93699e-02  8.46147e-02        00000 
 2.73696e-02  4.96119e-02        00000 
 1.03312e-02  1.61842e-02        00000 
 1.21271e-02  6.46228e-01        00000 
 3.37980e-02  6.23378e-01        00000 
 5.16631e-02  6.00554e-01        00000 
 6.90466e-02  5.78925e-01        00000 
 8.49236e-02  5.56672e-01        00000 
 9.86520e-02  5.28742e-01        00000 
 1.09085e-01  5.04487e-01        00000 