<?xml version="1.0" encoding="utf-8"?>
<VTKFile byte_order="LittleEndian" type="UnstructuredGrid" version="0.1">
   <UnstructuredGrid>
      <Piece NumberOfCells="9064" NumberOfPoints="4760">
         <Points>
            <DataArray Name="Points" NumberOfComponents="3" format="ascii" type="Float32">
-1.0000 -0.9592 0.0000
-1.0000 -0.9184 0.0000
-1.0000 -0.8776 0.0000
-1.0000 -0.8367 0.0000
-1.0000 -0.7959 0.0000
-1.0000 -0.7551 0.0000
-1.0000 -0.7143 0.0000
-1.0000 -0.6735 0.0000
-1.0000 -0.6327 0.0000
-1.0000 -0.5918 0.0000
-1.0000 -0.5510 0.0000
-1.0000 -0.5102 0.0000
-1.0000 -0.4694 0.0000
-1.0000 -0.4286 0.0000
-1.0000 -0.3878 0.0000
-1.0000 -0.3469 0.0000
-1.0000 -0.3061 0.0000
-1.0000 -0.2653 0.0000
-1.0000 -0.2245 0.0000
-1.0000 -0.1837 0.0000
-1.0000 -0.1429 0.0000
-1.0000 -0.1020 0.0000
-1.0000 -0.0612 0.0000
-1.0000 -0.0204 0.0000
-1.0000 0.0204 0.0000
-1.0000 0.0612 0.0000
-1.0000 0.1020 0.0000
-1.0000 0.1429 0.0000
-1.0000 0.1837 0.0000
-1.0000 0.2245 0.0000
-1.0000 0.2653 0.0000
-1.0000 0.3061 0.0000
-1.0000 0.3469 0.0000
-1.0000 0.3878 0.0000
-1.0000 0.4286 0.0000
-1.0000 0.4694 0.0000
-1.0000 0.5102 0.0000
-1.0000 0.5510 0.0000
-1.0000 0.5918 0.0000
-1.0000 0.6327 0.0000
-1.0000 0.6735 0.0000
-1.0000 0.7143 0.0000
-1.0000 0.7551 0.0000
-1.0000 0.7959 0.0000
-1.0000 0.8367 0.0000
-1.0000 0.8776 0.0000
-1.0000 0.9184 0.0000
-1.0000 0.9592 0.0000
-1.0000 1.0000 0.0000
-0.9592 -0.9592 0.0000
-0.9592 -0.9184 0.0000
-0.9592 -0.8776 0.0000
-0.9592 -0.8367 0.0000
-0.9592 -0.7959 0.0000
-0.9592 -0.7551 0.0000
-0.9592 -0.7143 0.0000
-0.9592 -0.6735 0.0000
-0.9592 -0.6327 0.0000
-0.9592 -0.5918 0.0000
-0.9592 -0.5510 0.0000
-0.9592 -0.5102 0.0000
-0.9592 -0.4694 0.0000
-0.9592 -0.4286 0.0000
-0.9592 -0.3878 0.0000
-0.9592 -0.3469 0.0000
-0.9592 -0.3061 0.0000
-0.9592 -0.2653 0.0000
-0.9592 -0.2245 0.0000
-0.9592 -0.1837 0.0000
-0.9592 -0.1429 0.0000
-0.9592 -0.1020 0.0000
-0.9592 -0.0612 0.0000
-0.9592 -0.0204 0.0000
-0.9592 0.0204 0.0000
-0.9592 0.0612 0.0000
-0.9592 0.1020 0.0000
-0.9592 0.1429 0.0000
-0.9592 0.1837 0.0000
-0.9592 0.2245 0.0000
-0.9592 0.2653 0.0000
-0.9592 0.3061 0.0000
-0.9592 0.3469 0.0000
-0.9592 0.3878 0.0000
-0.9592 0.4286 0.0000
-0.9592 0.4694 0.0000
-0.9592 0.5102 0.0000
-0.9592 0.5510 0.0000
-0.9592 0.5918 0.0000
-0.9592 0.6327 0.0000
-0.9592 0.6735 0.0000
-0.9592 0.7143 0.0000
-0.9592 0.7551 0.0000
-0.9592 0.7959 0.0000
-0.9592 0.8367 0.0000
-0.9592 0.8776 0.0000
-0.9592 0.9184 0.0000
-0.9592 0.9592 0.0000
-0.9592 1.0000 0.0000
-0.9184 -0.9592 0.0000
-0.9184 -0.9184 0.0000
-0.9184 -0.8776 0.0000
-0.9184 -0.8367 0.0000
-0.9184 -0.7959 0.0000
-0.9184 -0.7551 0.0000
-0.9184 -0.7143 0.0000
-0.9184 -0.6735 0.0000
-0.9184 -0.6327 0.0000
-0.9184 -0.5918 0.0000
-0.9184 -0.5510 0.0000
-0.9184 -0.5102 0.0000
-0.9184 -0.4694 0.0000
-0.9184 -0.4286 0.0000
-0.9184 -0.3878 0.0000
-0.9184 -0.3469 0.0000
-0.9184 -0.3061 0.0000
-0.9184 -0.2653 0.0000
-0.9184 -0.2245 0.0000
-0.9184 -0.1837 0.0000
-0.9184 -0.1429 0.0000
-0.9184 -0.1020 0.0000
-0.9184 -0.0612 0.0000
-0.9184 -0.0204 0.0000
-0.9184 0.0204 0.0000
-0.9184 0.0612 0.0000
-0.9184 0.1020 0.0000
-0.9184 0.1429 0.0000
-0.9184 0.1837 0.0000
-0.9184 0.2245 0.0000
-0.9184 0.2653 0.0000
-0.9184 0.3061 0.0000
-0.9184 0.3469 0.0000
-0.9184 0.3878 0.0000
-0.9184 0.4286 0.0000
-0.9184 0.4694 0.0000
-0.9184 0.5102 0.0000
-0.9184 0.5510 0.0000
-0.9184 0.5918 0.0000
-0.9184 0.6327 0.0000
-0.9184 0.6735 0.0000
-0.9184 0.7143 0.0000
-0.9184 0.7551 0.0000
-0.9184 0.7959 0.0000
-0.9184 0.8367 0.0000
-0.9184 0.8776 0.0000
-0.9184 0.9184 0.0000
-0.9184 0.9592 0.0000
-0.9184 1.0000 0.0000
-0.8776 -0.9592 0.0000
-0.8776 -0.9184 0.0000
-0.8776 -0.8776 0.0000
-0.8776 -0.8367 0.0000
-0.8776 -0.7959 0.0000
-0.8776 -0.7551 0.0000
-0.8776 -0.7143 0.0000
-0.8776 -0.6735 0.0000
-0.8776 -0.6327 0.0000
-0.8776 -0.5918 0.0000
-0.8776 -0.5510 0.0000
-0.8776 -0.5102 0.0000
-0.8776 -0.4694 0.0000
-0.8776 -0.4286 0.0000
-0.8776 -0.3878 0.0000
-0.8776 -0.3469 0.0000
-0.8776 -0.3061 0.0000
-0.8776 -0.2653 0.0000
-0.8776 -0.2245 0.0000
-0.8776 -0.1837 0.0000
-0.8776 -0.1429 0.0000
-0.8776 -0.1020 0.0000
-0.8776 -0.0612 0.0000
-0.8776 -0.0204 0.0000
-0.8776 0.0204 0.0000
-0.8776 0.0612 0.0000
-0.8776 0.1020 0.0000
-0.8776 0.1429 0.0000
-0.8776 0.1837 0.0000
-0.8776 0.2245 0.0000
-0.8776 0.2653 0.0000
-0.8776 0.3061 0.0000
-0.8776 0.3469 0.0000
-0.8776 0.3878 0.0000
-0.8776 0.4286 0.0000
-0.8776 0.4694 0.0000
-0.8776 0.5102 0.0000
-0.8776 0.5510 0.0000
-0.8776 0.5918 0.0000
-0.8776 0.6327 0.0000
-0.8776 0.6735 0.0000
-0.8776 0.7143 0.0000
-0.8776 0.7551 0.0000
-0.8776 0.7959 0.0000
-0.8776 0.8367 0.0000
-0.8776 0.8776 0.0000
-0.8776 0.9184 0.0000
-0.8776 0.9592 0.0000
-0.8776 1.0000 0.0000
-0.8367 -0.9592 0.0000
-0.8367 -0.9184 0.0000
-0.8367 -0.8776 0.0000
-0.8367 -0.8367 0.0000
-0.8367 -0.7959 0.0000
-0.8367 -0.7551 0.0000
-0.8367 -0.7143 0.0000
-0.8367 -0.6735 0.0000
-0.8367 -0.6327 0.0000
-0.8367 -0.5918 0.0000
-0.8367 -0.5510 0.0000
-0.8367 -0.5102 0.0000
-0.8367 -0.4694 0.0000
-0.8367 -0.4286 0.0000
-0.8367 -0.3878 0.0000
-0.8367 -0.3469 0.0000
-0.8367 -0.3061 0.0000
-0.8367 -0.2653 0.0000
-0.8367 -0.2245 0.0000
-0.8367 -0.1837 0.0000
-0.8367 -0.1429 0.0000
-0.8367 -0.1020 0.0000
-0.8367 -0.0612 0.0000
-0.8367 -0.0204 0.0000
-0.8367 0.0204 0.0000
-0.8367 0.0612 0.0000
-0.8367 0.1020 0.0000
-0.8367 0.1429 0.0000
-0.8367 0.1837 0.0000
-0.8367 0.2245 0.0000
-0.8367 0.2653 0.0000
-0.8367 0.3061 0.0000
-0.8367 0.3469 0.0000
-0.8367 0.3878 0.0000
-0.8367 0.4286 0.0000
-0.8367 0.4694 0.0000
-0.8367 0.5102 0.0000
-0.8367 0.5510 0.0000
-0.8367 0.5918 0.0000
-0.8367 0.6327 0.0000
-0.8367 0.6735 0.0000
-0.8367 0.7143 0.0000
-0.8367 0.7551 0.0000
-0.8367 0.7959 0.0000
-0.8367 0.8367 0.0000
-0.8367 0.8776 0.0000
-0.8367 0.9184 0.0000
-0.8367 0.9592 0.0000
-0.8367 1.0000 0.0000
-0.7959 -0.9592 0.0000
-0.7959 -0.9184 0.0000
-0.7959 -0.8776 0.0000
-0.7959 -0.8367 0.0000
-0.7959 -0.7959 0.0000
-0.7959 -0.7551 0.0000
-0.7959 -0.7143 0.0000
-0.7959 -0.6735 0.0000
-0.7959 -0.6327 0.0000
-0.7959 -0.5918 0.0000
-0.7959 -0.5510 0.0000
-0.7959 -0.5102 0.0000
-0.7959 -0.4694 0.0000
-0.7959 -0.4286 0.0000
-0.7959 -0.3878 0.0000
-0.7959 -0.3469 0.0000
-0.7959 -0.3061 0.0000
-0.7959 -0.2653 0.0000
-0.7959 -0.2245 0.0000
-0.7959 -0.1837 0.0000
-0.7959 -0.1429 0.0000
-0.7959 -0.1020 0.0000
-0.7959 -0.0612 0.0000
-0.7959 -0.0204 0.0000
-0.7959 0.0204 0.0000
-0.7959 0.0612 0.0000
-0.7959 0.1020 0.0000
-0.7959 0.1429 0.0000
-0.7959 0.1837 0.0000
-0.7959 0.2245 0.0000
-0.7959 0.2653 0.0000
-0.7959 0.3061 0.0000
-0.7959 0.3469 0.0000
-0.7959 0.3878 0.0000
-0.7959 0.4286 0.0000
-0.7959 0.4694 0.0000
-0.7959 0.5102 0.0000
-0.7959 0.5510 0.0000
-0.7959 0.5918 0.0000
-0.7959 0.6327 0.0000
-0.7959 0.6735 0.0000
-0.7959 0.7143 0.0000
-0.7959 0.7551 0.0000
-0.7959 0.7959 0.0000
-0.7959 0.8367 0.0000
-0.7959 0.8776 0.0000
-0.7959 0.9184 0.0000
-0.7959 0.9592 0.0000
-0.7959 1.0000 0.0000
-0.7551 -0.9592 0.0000
-0.7551 -0.9184 0.0000
-0.7551 -0.8776 0.0000
-0.7551 -0.8367 0.0000
-0.7551 -0.7959 0.0000
-0.7551 -0.7551 0.0000
-0.7551 -0.7143 0.0000
-0.7551 -0.6735 0.0000
-0.7551 -0.6327 0.0000
-0.7551 -0.5918 0.0000
-0.7551 -0.5510 0.0000
-0.7551 -0.5102 0.0000
-0.7551 -0.4694 0.0000
-0.7551 -0.4286 0.0000
-0.7551 -0.3878 0.0000
-0.7551 -0.3469 0.0000
-0.7551 -0.3061 0.0000
-0.7551 -0.2653 0.0000
-0.7551 -0.2245 0.0000
-0.7551 -0.1837 0.0000
-0.7551 -0.1429 0.0000
-0.7551 -0.1020 0.0000
-0.7551 -0.0612 0.0000
-0.7551 -0.0204 0.0000
-0.7551 0.0204 0.0000
-0.7551 0.0612 0.0000
-0.7551 0.1020 0.0000
-0.7551 0.1429 0.0000
-0.7551 0.1837 0.0000
-0.7551 0.2245 0.0000
-0.7551 0.2653 0.0000
-0.7551 0.3061 0.0000
-0.7551 0.3469 0.0000
-0.7551 0.3878 0.0000
-0.7551 0.4286 0.0000
-0.7551 0.4694 0.0000
-0.7551 0.5102 0.0000
-0.7551 0.5510 0.0000
-0.7551 0.5918 0.0000
-0.7551 0.6327 0.0000
-0.7551 0.6735 0.0000
-0.7551 0.7143 0.0000
-0.7551 0.7551 0.0000
-0.7551 0.7959 0.0000
-0.7551 0.8367 0.0000
-0.7551 0.8776 0.0000
-0.7551 0.9184 0.0000
-0.7551 0.9592 0.0000
-0.7551 1.0000 0.0000
-0.7143 -0.9592 0.0000
-0.7143 -0.9184 0.0000
-0.7143 -0.8776 0.0000
-0.7143 -0.8367 0.0000
-0.7143 -0.7959 0.0000
-0.7143 -0.7551 0.0000
-0.7143 -0.7143 0.0000
-0.7143 -0.6735 0.0000
-0.7143 -0.6327 0.0000
-0.7143 -0.5918 0.0000
-0.7143 -0.5510 0.0000
-0.7143 -0.5102 0.0000
-0.7143 -0.4694 0.0000
-0.7143 -0.4286 0.0000
-0.7143 -0.3878 0.0000
-0.7143 -0.3469 0.0000
-0.7143 -0.3061 0.0000
-0.7143 -0.2653 0.0000
-0.7143 -0.2245 0.0000
-0.7143 -0.1837 0.0000
-0.7143 -0.1429 0.0000
-0.7143 -0.1020 0.0000
-0.7143 -0.0612 0.0000
-0.7143 -0.0204 0.0000
-0.7143 0.0204 0.0000
-0.7143 0.0612 0.0000
-0.7143 0.1020 0.0000
-0.7143 0.1429 0.0000
-0.7143 0.1837 0.0000
-0.7143 0.2245 0.0000
-0.7143 0.2653 0.0000
-0.7143 0.3061 0.0000
-0.7143 0.3469 0.0000
-0.7143 0.3878 0.0000
-0.7143 0.4286 0.0000
-0.7143 0.4694 0.0000
-0.7143 0.5102 0.0000
-0.7143 0.5510 0.0000
-0.7143 0.5918 0.0000
-0.7143 0.6327 0.0000
-0.7143 0.6735 0.0000
-0.7143 0.7143 0.0000
-0.7143 0.7551 0.0000
-0.7143 0.7959 0.0000
-0.7143 0.8367 0.0000
-0.7143 0.8776 0.0000
-0.7143 0.9184 0.0000
-0.7143 0.9592 0.0000
-0.7143 1.0000 0.0000
-0.6735 -0.9592 0.0000
-0.6735 -0.9184 0.0000
-0.6735 -0.8776 0.0000
-0.6735 -0.8367 0.0000
-0.6735 -0.7959 0.0000
-0.6735 -0.7551 0.0000
-0.6735 -0.7143 0.0000
-0.6735 -0.6735 0.0000
-0.6735 -0.6327 0.0000
-0.6735 -0.5918 0.0000
-0.6735 -0.5510 0.0000
-0.6735 -0.5102 0.0000
-0.6735 -0.4694 0.0000
-0.6735 -0.4286 0.0000
-0.6735 -0.3878 0.0000
-0.6735 -0.3469 0.0000
-0.6735 -0.3061 0.0000
-0.6735 -0.2653 0.0000
-0.6735 -0.2245 0.0000
-0.6735 -0.1837 0.0000
-0.6735 -0.1429 0.0000
-0.6735 -0.1020 0.0000
-0.6735 -0.0612 0.0000
-0.6735 -0.0204 0.0000
-0.6735 0.0204 0.0000
-0.6735 0.0612 0.0000
-0.6735 0.1020 0.0000
-0.6735 0.1429 0.0000
-0.6735 0.1837 0.0000
-0.6735 0.2245 0.0000
-0.6735 0.2653 0.0000
-0.6735 0.3061 0.0000
-0.6735 0.3469 0.0000
-0.6735 0.3878 0.0000
-0.6735 0.4286 0.0000
-0.6735 0.4694 0.0000
-0.6735 0.5102 0.0000
-0.6735 0.5510 0.0000
-0.6735 0.5918 0.0000
[...]
         <PointData>
            <DataArray Name="fValues" NumberOfComponents="3" format="ascii" type="Float64">
 2.04315e-02 -3.36582e-19        00000 
 4.08630e-02  4.89081e-19        00000 
 6.12945e-02 -4.38553e-19        00000 
 8.17259e-02  1.16836e-18        00000 
 1.02157e-01 -2.01417e-19        00000 
 1.22589e-01  4.34738e-19        00000 
 1.43020e-01 -1.07261e-18        00000 
 1.63452e-01  1.14119e-18        00000 
 1.83883e-01 -4.23318e-19        00000 
 2.04315e-01  1.35856e-18        00000 
 2.24746e-01 -1.27733e-18        00000 
 2.45178e-01 -2.17369e-19        00000 
 2.65609e-01 -2.38970e-19        00000 
 2.86041e-01  2.17369e-19        00000 
 3.06472e-01 -1.00359e-18        00000 
 3.26904e-01 -1.08685e-19        00000 
 3.47335e-01  3.51627e-19        00000 
 3.67767e-01  1.08685e-19        00000 
 3.88198e-01 -5.89787e-19        00000 
 4.08630e-01  7.06450e-19        00000 
 4.29061e-01 -8.32981e-19        00000 
 4.49493e-01  7.06450e-19        00000 
 4.69924e-01 -7.31911e-19        00000 
 4.90356e-01 -6.52108e-19        00000 
 5.10787e-01 -2.59453e-19        00000 
 5.31219e-01 -1.08685e-19        00000 
 5.51650e-01 -1.19724e-18        00000 
 5.72082e-01  3.26054e-19        00000 
 5.92513e-01 -1.52941e-18        00000 
 6.12945e-01 -4.34738e-19        00000 
 6.33376e-01 -2.83955e-18        00000 
 6.53808e-01 -5.43423e-19        00000 
 6.74239e-01 -1.98004e-19        00000 
 6.94671e-01 -8.69477e-19        00000 
 7.15102e-01 -1.17947e-18        00000 
 7.35534e-01        00000        00000 
 7.55965e-01  1.51575e-18        00000 
 7.76396e-01  1.30422e-18        00000 
 7.96828e-01 -1.31566e-18        00000 
 8.17259e-01  1.95632e-18        00000 
 8.37691e-01 -1.91176e-18        00000 
 8.58122e-01  9.78161e-19        00000 
 8.78554e-01 -2.28227e-18        00000 
 8.98985e-01  1.30422e-18        00000 
 9.19417e-01 -7.78359e-19        00000 
 9.39848e-01  1.41290e-18        00000 
 9.60280e-01 -3.28938e-19        00000 
 9.80711e-01  1.09617e-19        00000 
 1.00114e+00  1.43576e-19        00000 
 1.88772e-02 -1.52959e-03        00000 
 3.84966e-02 -2.45488e-03        00000 
 5.83059e-02 -3.12282e-03        00000 
 7.82200e-02 -3.64570e-03        00000 
 9.81991e-02 -4.06932e-03        00000 
 1.18225e-01 -4.41693e-03        00000 
 1.38290e-01 -4.70182e-03        00000 
 1.58387e-01 -4.93258e-03        00000 
 1.78515e-01 -5.11546e-03        00000 
 1.98673e-01 -5.25582e-03        00000 
 2.18863e-01 -5.35918e-03        00000 
 2.39085e-01 -5.43171e-03        00000 
 2.59339e-01 -5.48020e-03        00000 
 2.79626e-01 -5.51193e-03        00000 
 2.99948e-01 -5.53601e-03        00000 
 3.20302e-01 -5.56204e-03        00000 
 3.40688e-01 -5.60097e-03        00000 
 3.61103e-01 -5.66331e-03        00000 
 3.81539e-01 -5.75956e-03        00000 
 4.01991e-01 -5.89871e-03        00000 
 4.22450e-01 -6.08793e-03        00000 
 4.42903e-01 -6.33133e-03        00000 
 4.63341e-01 -6.62884e-03        00000 
 4.83753e-01 -6.97580e-03        00000 
 5.04127e-01 -7.36333e-03        00000 
 5.24454e-01 -7.77850e-03        00000 
 5.44728e-01 -8.20542e-03        00000 
 5.64944e-01 -8.62654e-03        00000 
 5.85101e-01 -9.02329e-03        00000 
 6.05200e-01 -9.37853e-03        00000 
 6.25246e-01 -9.67600e-03        00000 
 6.45243e-01 -9.90295e-03        00000 
 6.65200e-01 -1.00493e-02        00000 
 6.85125e-01 -1.01092e-02        00000 
 7.05025e-01 -1.00794e-02        00000 
 7.24909e-01 -9.96021e-03        00000 
 7.44783e-01 -9.75443e-03        00000 
 7.64651e-01 -9.46617e-03        00000 
 7.84518e-01 -9.10024e-03        00000 
 8.04384e-01 -8.66133e-03        00000 
 8.24250e-01 -8.15365e-03        00000 
 8.44114e-01 -7.58009e-03        00000 
 8.63971e-01 -6.94117e-03        00000 
 8.83811e-01 -6.23330e-03        00000 
 9.03618e-01 -5.44571e-03        00000 
 9.23364e-01 -4.55366e-03        00000 
 9.42988e-01 -3.50137e-03        00000 
 9.62364e-01 -2.14140e-03        00000 
 9.80711e-01  1.78737e-19        00000 
 1.79022e-02 -2.29129e-03        00000 
 3.65858e-02 -4.08151e-03        00000 
 5.56926e-02 -5.45943e-03        00000 
 7.50234e-02 -6.56113e-03        00000 
 9.44981e-02 -7.46330e-03        00000 
 1.14076e-01 -8.21036e-03        00000 
 1.33735e-01 -8.82967e-03        00000 
 1.53465e-01 -9.33954e-03        00000 
 1.73259e-01 -9.75355e-03        00000 
 1.93118e-01 -1.00829e-02        00000 
 2.13043e-01 -1.03384e-02        00000 
 2.33036e-01 -1.05324e-02        00000 
 2.53099e-01 -1.06778e-02        00000 
 2.73233e-01 -1.07890e-02        00000 
 2.93441e-01 -1.08808e-02        00000 
 3.13723e-01 -1.09748e-02        00000 
 3.34074e-01 -1.10870e-02        00000 
 3.54489e-01 -1.12382e-02        00000 
 3.74916e-01 -1.14145e-02        00000 
 3.95413e-01 -1.16837e-02        00000 
 4.15931e-01 -1.20487e-02        00000 
 4.36430e-01 -1.25076e-02        00000 
 4.56905e-01 -1.30650e-02        00000 
 4.77324e-01 -1.37126e-02        00000 
 4.97662e-01 -1.44330e-02        00000 
 5.17901e-01 -1.52033e-02        00000 
 5.38021e-01 -1.59907e-02        00000 
 5.58023e-01 -1.67685e-02        00000 
 5.77897e-01 -1.75008e-02        00000 
 5.97635e-01 -1.81461e-02        00000 
 6.17284e-01 -1.86916e-02        00000 
 6.36797e-01 -1.90790e-02        00000 
 6.56224e-01 -1.93139e-02        00000 
 6.75582e-01 -1.93839e-02        00000 
 6.94891e-01 -1.92837e-02        00000 
 7.14169e-01 -1.90136e-02        00000 
 7.33430e-01 -1.85776e-02        00000 
 7.52683e-01 -1.79835e-02        00000 
 7.71936e-01 -1.72392e-02        00000 
 7.91190e-01 -1.63524e-02        00000 
 8.10447e-01 -1.53294e-02        00000 
 8.29701e-01 -1.41735e-02        00000 
 8.48939e-01 -1.28827e-02        00000 
 8.68141e-01 -1.14465e-02        00000 
 8.87271e-01 -9.84028e-03        00000 
 9.06262e-01 -8.01474e-03        00000 
 9.24995e-01 -5.87496e-03        00000 
 9.43177e-01 -3.24233e-03        00000 
 9.60280e-01 -5.44027e-19        00000 
 1.71544e-02 -2.85280e-03        00000 
 3.50367e-02 -5.26528e-03        00000 
 5.34205e-02 -7.26809e-03        00000 
 7.21308e-02 -8.93058e-03        00000 
 9.10609e-02 -1.03223e-02        00000 
 1.10152e-01 -1.14931e-02        00000 
 1.29372e-01 -1.24777e-02        00000 
 1.48702e-01 -1.33014e-02        00000 
 1.68135e-01 -1.39837e-02        00000 
 1.87667e-01 -1.45412e-02        00000 
 2.07303e-01 -1.49887e-02        00000 
 2.27050e-01 -1.53426e-02        00000 
 2.46906e-01 -1.56223e-02        00000 
 2.66873e-01 -1.58453e-02        00000 
 2.86963e-01 -1.60406e-02        00000 
 3.07130e-01 -1.61823e-02        00000 
 3.27437e-01 -1.63545e-02        00000 
 3.47846e-01 -1.65772e-02        00000 
 3.68352e-01 -1.68938e-02        00000 
 3.88925e-01 -1.73153e-02        00000 
 4.09537e-01 -1.78637e-02        00000 
 4.30162e-01 -1.85541e-02        00000 
 4.50715e-01 -1.93688e-02        00000 
 4.71172e-01 -2.02927e-02        00000 
 4.91496e-01 -2.13055e-02        00000 
 5.11644e-01 -2.23693e-02        00000 
 5.31607e-01 -2.34537e-02        00000 
 5.51343e-01 -2.45031e-02        00000 
 5.70891e-01 -2.54856e-02        00000 
 5.90237e-01 -2.63535e-02        00000 
 6.09394e-01 -2.70579e-02        00000 
 6.28393e-01 -2.75760e-02        00000 
 6.47249e-01 -2.78768e-02        00000 
 6.66023e-01 -2.79487e-02        00000 
 6.84681e-01 -2.77423e-02        00000 
 7.03297e-01 -2.72862e-02        00000 
 7.21892e-01 -2.65920e-02        00000 
 7.40481e-01 -2.56700e-02        00000 
 7.59072e-01 -2.45314e-02        00000 
 7.77671e-01 -2.31857e-02        00000 
 7.96278e-01 -2.16412e-02        00000 
 8.14881e-01 -1.99010e-02        00000 
 8.33462e-01 -1.79606e-02        00000 
 8.51986e-01 -1.58049e-02        00000 
 8.70397e-01 -1.34027e-02        00000 
 8.88601e-01 -1.06997e-02        00000 
 9.06435e-01 -7.61286e-03        00000 
 9.23634e-01 -4.05702e-03        00000 
 9.39848e-01 -1.52985e-19        00000 
 1.65218e-02 -3.30664e-03        00000 
 3.37117e-02 -6.22015e-03        00000 
 5.14190e-02 -8.74482e-03        00000 
 6.95065e-02 -1.09155e-02        00000 
 8.78728e-02 -1.27777e-02        00000 
 1.06452e-01 -1.43736e-02        00000 
 1.25204e-01 -1.57374e-02        00000 
 1.44107e-01 -1.68959e-02        00000 
 1.63151e-01 -1.78722e-02        00000 
 1.82332e-01 -1.86867e-02        00000 
 2.01655e-01 -1.93594e-02        00000 
 2.21135e-01 -1.99105e-02        00000 
 2.40762e-01 -2.03477e-02        00000 
 2.60507e-01 -2.06597e-02        00000 
 2.80432e-01 -2.09135e-02        00000 
 3.00542e-01 -2.11739e-02        00000 
 3.20832e-01 -2.14627e-02        00000 
 3.41304e-01 -2.18272e-02        00000 
 3.61927e-01 -2.23127e-02        00000 
 3.82620e-01 -2.29071e-02        00000 
 4.03382e-01 -2.36535e-02        00000 
 4.24135e-01 -2.45470e-02        00000 
 4.44801e-01 -2.55884e-02        00000 
 4.65326e-01 -2.67620e-02        00000 
 4.85654e-01 -2.80376e-02        00000 
 5.05727e-01 -2.93707e-02        00000 
 5.25524e-01 -3.07148e-02        00000 
 5.44995e-01 -3.20047e-02        00000 
 5.64180e-01 -3.31873e-02        00000 
 5.83081e-01 -3.42083e-02        00000 
 6.01681e-01 -3.49979e-02        00000 
 6.20059e-01 -3.55475e-02        00000 
 6.38281e-01 -3.58318e-02        00000 
 6.56351e-01 -3.58187e-02        00000 
 6.74335e-01 -3.55144e-02        00000 
 6.92275e-01 -3.48879e-02        00000 
 7.10150e-01 -3.39081e-02        00000 
 7.28029e-01 -3.26328e-02        00000 
 7.45916e-01 -3.10808e-02        00000 
 7.63820e-01 -2.92667e-02        00000 
 7.81741e-01 -2.71998e-02        00000 
 7.99662e-01 -2.48832e-02        00000 
 8.17555e-01 -2.23121e-02        00000 
 8.35377e-01 -1.94717e-02        00000 
 8.53056e-01 -1.63340e-02        00000 
 8.70485e-01 -1.28570e-02        00000 
 8.87503e-01 -8.99201e-03        00000 
 9.03895e-01 -4.70369e-03        00000 
 9.19417e-01  6.20201e-19        00000 
 1.59601e-02 -3.69728e-03        00000 
 3.25358e-02 -7.03601e-03        00000 
 4.96197e-02 -1.00104e-02        00000 
 6.71062e-02 -1.26352e-02        00000 
 8.49078e-02 -1.49370e-02        00000 
 1.02961e-01 -1.69460e-02        00000 
 1.21226e-01 -1.86906e-02        00000 
 1.39679e-01 -2.01953e-02        00000 
 1.58311e-01 -2.14818e-02        00000 
 1.77117e-01 -2.25701e-02        00000 
 1.96095e-01 -2.34789e-02        00000 
 2.15253e-01 -2.42079e-02        00000 
 2.34592e-01 -2.47734e-02        00000 
 2.54146e-01 -2.52440e-02        00000 
 2.73963e-01 -2.56747e-02        00000 
 2.94042e-01 -2.61017e-02        00000 
 3.14336e-01 -2.65433e-02        00000 
 3.34888e-01 -2.70686e-02        00000 
 3.55607e-01 -2.76816e-02        00000 
 3.76452e-01 -2.84175e-02        00000 
 3.97350e-01 -2.93034e-02        00000 
 4.18256e-01 -3.03644e-02        00000 
 4.39064e-01 -3.15947e-02        00000 
 4.59692e-01 -3.29931e-02        00000 
 4.80053e-01 -3.45194e-02        00000 
 5.00077e-01 -3.61207e-02        00000 
 5.19716e-01 -3.77321e-02        00000 
 5.38948e-01 -3.92777e-02        00000 
 5.57745e-01 -4.06588e-02        00000 
 5.76149e-01 -4.18101e-02        00000 
 5.94175e-01 -4.26707e-02        00000 
 6.11891e-01 -4.32055e-02        00000 
 6.29391e-01 -4.34086e-02        00000 
 6.46679e-01 -4.32299e-02        00000 
 6.63858e-01 -4.26930e-02        00000 
 6.80992e-01 -4.18059e-02        00000 
 6.98134e-01 -4.05669e-02        00000 
 7.15316e-01 -3.89509e-02        00000 
 7.32455e-01 -3.69765e-02        00000 
 7.49633e-01 -3.46909e-02        00000 
 7.66840e-01 -3.21066e-02        00000 
 7.84055e-01 -2.92298e-02        00000 
 8.01245e-01 -2.60589e-02        00000 
 8.18359e-01 -2.25841e-02        00000 
 8.35319e-01 -1.87865e-02        00000 
 8.52018e-01 -1.46418e-02        00000 
 8.68313e-01 -1.01278e-02        00000 
 8.84029e-01 -5.23909e-03        00000 
 8.98985e-01  8.25177e-19        00000 
 1.54484e-02 -4.04598e-03        00000 
 3.14675e-02 -7.76084e-03        00000 
 4.79758e-02 -1.11344e-02        00000 
 6.48900e-02 -1.41698e-02        00000 
 8.21377e-02 -1.68804e-02        00000 
 9.96634e-02 -1.92850e-02        00000 
 1.17430e-01 -2.14045e-02        00000 
 1.35414e-01 -2.32601e-02        00000 
 1.53615e-01 -2.48746e-02        00000 
 1.72027e-01 -2.62620e-02        00000 
 1.90594e-01 -2.73801e-02        00000 
 2.09411e-01 -2.83104e-02        00000 
 2.28503e-01 -2.91029e-02        00000 
 2.47883e-01 -2.97896e-02        00000 
 2.67588e-01 -3.04135e-02        00000 
 2.87599e-01 -3.09948e-02        00000 
 3.07904e-01 -3.15783e-02        00000 
 3.28472e-01 -3.21870e-02        00000 
 3.49265e-01 -3.28673e-02        00000 
 3.70247e-01 -3.36716e-02        00000 
 3.91294e-01 -3.46255e-02        00000 
 4.12380e-01 -3.57987e-02        00000 
 4.33375e-01 -3.71873e-02        00000 
 4.54152e-01 -3.87904e-02        00000 
 4.74590e-01 -4.05588e-02        00000 
 4.94590e-01 -4.24313e-02        00000 
 5.14097e-01 -4.43363e-02        00000 
 5.33096e-01 -4.61661e-02        00000 
 5.51483e-01 -4.77781e-02        00000 
 5.69394e-01 -4.90984e-02        00000 
 5.86787e-01 -5.00483e-02        00000 
 6.03812e-01 -5.05944e-02        00000 
 6.20524e-01 -5.06743e-02        00000 
 6.36982e-01 -5.02929e-02        00000 
 6.53336e-01 -4.95064e-02        00000 
 6.69581e-01 -4.82922e-02        00000 
 6.85843e-01 -4.66703e-02        00000 
 7.02237e-01 -4.46854e-02        00000 
 7.18674e-01 -4.23104e-02        00000 
 7.35105e-01 -3.95430e-02        00000 
 7.51581e-01 -3.64463e-02        00000 
 7.68078e-01 -3.30312e-02        00000 
 7.84562e-01 -2.92990e-02        00000 
 8.00978e-01 -2.52460e-02        00000 
 8.17250e-01 -2.08640e-02        00000 
 8.33274e-01 -1.61437e-02        00000 
 8.48927e-01 -1.10821e-02        00000 
 8.64068e-01 -5.69015e-03        00000 
 8.78554e-01 -1.87979e-19        00000 
 1.49761e-02 -4.36465e-03        00000 
 3.04840e-02 -8.42155e-03        00000 
 4.64572e-02 -1.21582e-02        00000 
 6.28287e-02 -1.55710e-02        00000 
 7.95384e-02 -1.86641e-02        00000 
 9.65392e-02 -2.14465e-02        00000 
 1.13801e-01 -2.39310e-02        00000 
 1.31305e-01 -2.61327e-02        00000 
 1.49047e-01 -2.80584e-02        00000 
 1.66999e-01 -2.97030e-02        00000 
 1.85174e-01 -3.10992e-02        00000 
 2.03661e-01 -3.23089e-02        00000 
 2.22499e-01 -3.33675e-02        00000 
 2.41679e-01 -3.42693e-02        00000 
 2.61214e-01 -3.50574e-02        00000 
 2.81128e-01 -3.57883e-02        00000 
 3.01350e-01 -3.64123e-02        00000 
 3.21886e-01 -3.70065e-02        00000 
 3.42751e-01 -3.76939e-02        00000 
 3.63878e-01 -3.85134e-02        00000 
 3.85154e-01 -3.95202e-02        00000 
 4.06491e-01 -4.07923e-02        00000 
 4.27743e-01 -4.23373e-02        00000 
 4.48735e-01 -4.41412e-02        00000 
 4.69303e-01 -4.61551e-02        00000 
 4.89318e-01 -4.83008e-02        00000 
 5.08697e-01 -5.04852e-02        00000 
 5.27401e-01 -5.25763e-02        00000 
 5.45354e-01 -5.44358e-02        00000 
 5.62697e-01 -5.59559e-02        00000 
 5.79400e-01 -5.70231e-02        00000 
 5.95695e-01 -5.76189e-02        00000 
 6.11604e-01 -5.76253e-02        00000 
 6.27246e-01 -5.70334e-02        00000 
 6.42682e-01 -5.59432e-02        00000 
 6.58010e-01 -5.43709e-02        00000 
 6.73368e-01 -5.23435e-02        00000 
 6.88825e-01 -4.99105e-02        00000 
 7.04419e-01 -4.70773e-02        00000 
 7.20235e-01 -4.38690e-02        00000 
 7.35972e-01 -4.02788e-02        00000 
 7.51749e-01 -3.63552e-02        00000 
 7.67536e-01 -3.21047e-02        00000 
 7.83277e-01 -2.75305e-02        00000 
 7.98897e-01 -2.26337e-02        00000 
 8.14303e-01 -1.74170e-02        00000 
 8.29388e-01 -1.18896e-02        00000 
 8.44033e-01 -6.07209e-03        00000 
 8.58122e-01  1.35933e-18        00000 
 1.45381e-02 -4.66016e-03        00000 
 2.95722e-02 -9.03386e-03        00000 
 4.50455e-02 -1.31070e-02        00000 
 6.09021e-02 -1.68712e-02        00000 
 7.70916e-02 -2.03247e-02        00000 
 9.35736e-02 -2.34691e-02        00000 
 1.10328e-01 -2.63108e-02        00000 
 1.27345e-01 -2.88511e-02        00000 
 1.44602e-01 -3.10936e-02        00000 
 1.62095e-01 -3.30563e-02        00000 
 1.79893e-01 -3.47841e-02        00000 
 1.98028e-01 -3.62887e-02        00000 
 2.16551e-01 -3.75911e-02        00000 
 2.35459e-01 -3.86882e-02        00000 
 2.54766e-01 -3.96130e-02        00000 
 2.74455e-01 -4.03447e-02        00000 
 2.94540e-01 -4.09394e-02        00000 
 3.15073e-01 -4.15230e-02        00000 
 3.36070e-01 -4.22097e-02        00000 
 3.57420e-01 -4.30723e-02        00000 
 3.79064e-01 -4.41986e-02        00000 
 4.00775e-01 -4.56231e-02        00000 
 4.22384e-01 -4.73580e-02        00000 
 4.43673e-01 -4.93914e-02        00000 
 4.64435e-01 -5.16548e-02        00000 
 4.84496e-01 -5.40577e-02        00000 
 5.03723e-01 -5.64691e-02        00000 
 5.22028e-01 -5.87459e-02        00000 
 5.39480e-01 -6.07923e-02        00000 
 5.56099e-01 -6.24417e-02        00000 
 5.72023e-01 -6.36026e-02        00000 
 5.87445e-01 -6.41973e-02        00000 
 6.02472e-01 -6.41480e-02        00000 
 6.17237e-01 -6.34180e-02        00000 
 6.31820e-01 -6.20291e-02        00000 
 6.46283e-01 -6.00884e-02        00000 
 6.60726e-01 -5.76501e-02        00000 
 6.75236e-01 -5.47607e-02        00000 
 6.89855e-01 -5.14453e-02        00000 
 7.04808e-01 -4.77331e-02        00000 
 7.19907e-01 -4.36528e-02        00000 
 7.35085e-01 -3.92492e-02        00000 
 7.50193e-01 -3.45256e-02        00000 
 7.65287e-01 -2.94857e-02        00000 
 7.80297e-01 -2.41384e-02        00000 
 7.95140e-01 -1.84945e-02        00000 
 8.09720e-01 -1.25710e-02        00000 
 8.23936e-01 -6.39389e-03        00000 
 8.37691e-01 -7.71568e-19        00000 
 1.41319e-02 -4.93627e-03        00000 
 2.87254e-02 -9.60658e-03        00000 
 4.37294e-02 -1.39952e-02        00000 
 5.90965e-02 -1.80901e-02        00000 
 7.47846e-02 -2.18846e-02        00000 
 9.07537e-02 -2.53736e-02        00000 
 1.07008e-01 -2.85692e-02        00000 
 1.23537e-01 -3.14663e-02        00000 
 1.40305e-01 -3.40576e-02        00000 
 1.57330e-01 -3.63522e-02        00000 
 1.74700e-01 -3.83855e-02        00000 
 1.92445e-01 -4.01558e-02        00000 
 2.10553e-01 -4.16528e-02        00000 
 2.29116e-01 -4.29164e-02        00000 
 2.48091e-01 -4.38995e-02        00000 
 2.67529e-01 -4.46642e-02        00000 
 2.87538e-01 -4.53278e-02        00000 
 3.08167e-01 -4.60065e-02        00000 
 3.29375e-01 -4.67884e-02        00000 
 3.51120e-01 -4.77776e-02        00000 
 3.73250e-01 -4.91102e-02        00000 
 3.95476e-01 -5.07489e-02        00000 
 4.17557e-01 -5.27271e-02        00000 
 4.39242e-01 -5.50160e-02        00000 
 4.60266e-01 -5.75412e-02        00000 
 4.80399e-01 -6.01813e-02        00000 
 4.99447e-01 -6.27728e-02        00000 
 5.17286e-01 -6.51754e-02        00000 
 5.34123e-01 -6.72961e-02        00000 
 5.49854e-01 -6.89694e-02        00000 
 5.64849e-01 -7.00802e-02        00000 
 5.79157e-01 -7.05274e-02        00000 
 5.93099e-01 -7.02863e-02        00000 
 6.06843e-01 -6.93269e-02        00000 
 6.20496e-01 -6.76613e-02        00000 
 6.34131e-01 -6.53382e-02        00000 
 6.47778e-01 -6.24836e-02        00000 
 6.61381e-01 -5.91334e-02        00000 
 6.75114e-01 -5.53690e-02        00000 
 6.89068e-01 -5.11928e-02        00000 
 7.03418e-01 -4.66462e-02        00000 
 7.17985e-01 -4.17554e-02        00000 
 7.32557e-01 -3.65918e-02        00000 
 7.47037e-01 -3.11415e-02        00000 
 7.61480e-01 -2.54041e-02        00000 
 7.75809e-01 -1.93958e-02        00000 
 7.89941e-01 -1.31385e-02        00000 
 8.03786e-01 -6.66095e-03        00000 
 8.17259e-01  1.19630e-18        00000 
 1.37569e-02 -5.19452e-03        00000 
 2.79406e-02 -1.01435e-02        00000 
 4.25032e-02 -1.48302e-02        00000 
 5.74031e-02 -1.92395e-02        00000 
 7.26099e-02 -2.33608e-02        00000 
 8.80765e-02 -2.71811e-02        00000 
 1.03866e-01 -3.07405e-02        00000 