<?xml version="1.0" encoding="utf-8"?>
<VTKFile byte_order="LittleEndian" type="UnstructuredGrid" version="0.1">
   <UnstructuredGrid>
      <Piece NumberOfCells="9064" NumberOfPoints="4760">
         <Points>
            <DataArray Name="Points" NumberOfComponents="3" format="ascii" type="Float32">
-1.0000 -0.9592 0.0000
-1.0000 -0.9184 0.0000
-1.0000 -0.8776 0.0000
-1.0000 -0.8367 0.0000
-1.0000 -0.7959 0.0000
-1.0000 -0.7551 0.0000
-1.0000 -0.7143 0.0000
-1.0000 -0.6735 0.0000
-1.0000 -0.6327 0.0000
-1.0000 -0.5918 0.0000
-1.0000 -0.5510 0.0000
-1.0000 -0.5102 0.0000
-1.0000 -0.4694 0.0000
-1.0000 -0.4286 0.0000
-1.0000 -0.3878 0.0000
-1.0000 -0.3469 0.0000
-1.0000 -0.3061 0.0000
-1.0000 -0.2653 0.0000
-1.0000 -0.2245 0.0000
-1.0000 -0.1837 0.0000
-1.0000 -0.1429 0.0000
-1.0000 -0.1020 0.0000
-1.0000 -0.0612 0.0000
-1.0000 -0.0204 0.0000
-1.0000 0.0204 0.0000
-1.0000 0.0612 0.0000
-1.0000 0.1020 0.0000
-1.0000 0.1429 0.0000
-1.0000 0.1837 0.0000
-1.0000 0.2245 0.0000
-1.0000 0.2653 0.0000
-1.0000 0.3061 0.0000
-1.0000 0.3469 0.0000
-1.0000 0.3878 0.0000
-1.0000 0.4286 0.0000
-1.0000 0.4694 0.0000
-1.0000 0.5102 0.0000
-1.0000 0.5510 0.0000
-1.0000 0.5918 0.0000
-1.0000 0.6327 0.0000
-1.0000 0.6735 0.0000
-1.0000 0.7143 0.0000
-1.0000 0.7551 0.0000
-1.0000 0.7959 0.0000
-1.0000 0.8367 0.0000
-1.0000 0.8776 0.0000
-1.0000 0.9184 0.0000
-1.0000 0.9592 0.0000
-1.0000 1.0000 0.0000
-0.9592 -0.9592 0.0000
-0.9592 -0.9184 0.0000
-0.9592 -0.8776 0.0000
-0.9592 -0.8367 0.0000
-0.9592 -0.7959 0.0000
-0.9592 -0.7551 0.0000
-0.9592 -0.7143 0.0000
-0.9592 -0.6735 0.0000
-0.9592 -0.6327 0.0000
-0.9592 -0.5918 0.0000
-0.9592 -0.5510 0.0000
-0.9592 -0.5102 0.0000
-0.9592 -0.4694 0.0000
-0.9592 -0.4286 0.0000
-0.9592 -0.3878 0.0000
-0.9592 -0.3469 0.0000
-0.9592 -0.3061 0.0000
-0.9592 -0.2653 0.0000
-0.9592 -0.2245 0.0000
-0.9592 -0.1837 0.0000
-0.9592 -0.1429 0.0000
-0.9592 -0.1020 0.0000
-0.9592 -0.0612 0.0000
-0.9592 -0.0204 0.0000
-0.9592 0.0204 0.0000
-0.9592 0.0612 0.0000
-0.9592 0.1020 0.0000
-0.9592 0.1429 0.0000
-0.9592 0.1837 0.0000
-0.9592 0.2245 0.0000
-0.9592 0.2653 0.0000
-0.9592 0.3061 0.0000
-0.9592 0.3469 0.0000
-0.9592 0.3878 0.0000
-0.9592 0.4286 0.0000
-0.9592 0.4694 0.0000
-0.9592 0.5102 0.0000
-0.9592 0.5510 0.0000
-0.9592 0.5918 0.0000
-0.9592 0.6327 0.0000
-0.9592 0.6735 0.0000
-0.9592 0.7143 0.0000
-0.9592 0.7551 0.0000
-0.9592 0.7959 0.0000
-0.9592 0.8367 0.0000
-0.9592 0.8776 0.0000
-0.9592 0.9184 0.0000
-0.9592 0.9592 0.0000
-0.9592 1.0000 0.0000
-0.9184 -0.9592 0.0000
-0.9184 -0.9184 0.0000
-0.9184 -0.8776 0.0000
-0.9184 -0.8367 0.0000
-0.9184 -0.7959 0.0000
-0.9184 -0.7551 0.0000
-0.9184 -0.7143 0.0000
-0.9184 -0.6735 0.0000
-0.9184 -0.6327 0.0000
-0.9184 -0.5918 0.0000
-0.9184 -0.5510 0.0000
-0.9184 -0.5102 0.0000
-0.9184 -0.4694 0.0000
-0.9184 -0.4286 0.0000
-0.9184 -0.3878 0.0000
-0.9184 -0.3469 0.0000
-0.9184 -0.3061 0.0000
-0.9184 -0.2653 0.0000
-0.9184 -0.2245 0.0000
-0.9184 -0.1837 0.0000
-0.9184 -0.1429 0.0000
-0.9184 -0.1020 0.0000
-0.9184 -0.0612 0.0000
-0.9184 -0.0204 0.0000
-0.9184 0.0204 0.0000
-0.9184 0.0612 0.0000
-0.9184 0.1020 0.0000
-0.9184 0.1429 0.0000
-0.9184 0.1837 0.0000
-0.9184 0.2245 0.0000
-0.9184 0.2653 0.0000
-0.9184 0.3061 0.0000
-0.9184 0.3469 0.0000
-0.9184 0.3878 0.0000
-0.9184 0.4286 0.0000
-0.9184 0.4694 0.0000
-0.9184 0.5102 0.0000
-0.9184 0.5510 0.0000
-0.9184 0.5918 0.0000
-0.9184 0.6327 0.0000
-0.9184 0.6735 0.0000
-0.9184 0.7143 0.0000
-0.9184 0.7551 0.0000
-0.9184 0.7959 0.0000
-0.9184 0.8367 0.0000
-0.9184 0.8776 0.0000
-0.9184 0.9184 0.0000
-0.9184 0.9592 0.0000
-0.9184 1.0000 0.0000
-0.8776 -0.9592 0.0000
-0.8776 -0.9184 0.0000
-0.8776 -0.8776 0.0000
-0.8776 -0.8367 0.0000
-0.8776 -0.7959 0.0000
-0.8776 -0.7551 0.0000
-0.8776 -0.7143 0.0000
-0.8776 -0.6735 0.0000
-0.8776 -0.6327 0.0000
-0.8776 -0.5918 0.0000
-0.8776 -0.5510 0.0000
-0.8776 -0.5102 0.0000
-0.8776 -0.4694 0.0000
-0.8776 -0.4286 0.0000
-0.8776 -0.3878 0.0000
-0.8776 -0.3469 0.0000
-0.8776 -0.3061 0.0000
-0.8776 -0.2653 0.0000
-0.8776 -0.2245 0.0000
-0.8776 -0.1837 0.0000
-0.8776 -0.1429 0.0000
-0.8776 -0.1020 0.0000
-0.8776 -0.0612 0.0000
-0.8776 -0.0204 0.0000
-0.8776 0.0204 0.0000
-0.8776 0.0612 0.0000
-0.8776 0.1020 0.0000
-0.8776 0.1429 0.0000
-0.8776 0.1837 0.0000
-0.8776 0.2245 0.0000
-0.8776 0.2653 0.0000
-0.8776 0.3061 0.0000
-0.8776 0.3469 0.0000
-0.8776 0.3878 0.0000
-0.8776 0.4286 0.0000
-0.8776 0.4694 0.0000
-0.8776 0.5102 0.0000
-0.8776 0.5510 0.0000
-0.8776 0.5918 0.0000
-0.8776 0.6327 0.0000
-0.8776 0.6735 0.0000
-0.8776 0.7143 0.0000
-0.8776 0.7551 0.0000
-0.8776 0.7959 0.0000
-0.8776 0.8367 0.0000
-0.8776 0.8776 0.0000
-0.8776 0.9184 0.0000
-0.8776 0.9592 0.0000
-0.8776 1.0000 0.0000
-0.8367 -0.9592 0.0000
-0.8367 -0.9184 0.0000
-0.8367 -0.8776 0.0000
-0.8367 -0.8367 0.0000
-0.8367 -0.7959 0.0000
-0.8367 -0.7551 0.0000
-0.8367 -0.7143 0.0000
-0.8367 -0.6735 0.0000
-0.8367 -0.6327 0.0000
-0.8367 -0.5918 0.0000
-0.8367 -0.5510 0.0000
-0.8367 -0.5102 0.0000
-0.8367 -0.4694 0.0000
-0.8367 -0.4286 0.0000
-0.8367 -0.3878 0.0000
-0.8367 -0.3469 0.0000
-0.8367 -0.3061 0.0000
-0.8367 -0.2653 0.0000
-0.8367 -0.2245 0.0000
-0.8367 -0.1837 0.0000
-0.8367 -0.1429 0.0000
-0.8367 -0.1020 0.0000
-0.8367 -0.0612 0.0000
-0.8367 -0.0204 0.0000
-0.8367 0.0204 0.0000
-0.8367 0.0612 0.0000
-0.8367 0.1020 0.0000
-0.8367 0.1429 0.0000
-0.8367 0.1837 0.0000
-0.8367 0.2245 0.0000
-0.8367 0.2653 0.0000
-0.8367 0.3061 0.0000
-0.8367 0.3469 0.0000
-0.8367 0.3878 0.0000
-0.8367 0.4286 0.0000
-0.8367 0.4694 0.0000
-0.8367 0.5102 0.0000
-0.8367 0.5510 0.0000
-0.8367 0.5918 0.0000
-0.8367 0.6327 0.0000
-0.8367 0.6735 0.0000
-0.8367 0.7143 0.0000
-0.8367 0.7551 0.0000
-0.8367 0.7959 0.0000
-0.8367 0.8367 0.0000
-0.8367 0.8776 0.0000
-0.8367 0.9184 0.0000
-0.8367 0.9592 0.0000
-0.8367 1.0000 0.0000
-0.7959 -0.9592 0.0000
-0.7959 -0.9184 0.0000
-0.7959 -0.8776 0.0000
-0.7959 -0.8367 0.0000
-0.7959 -0.7959 0.0000
-0.7959 -0.7551 0.0000
-0.7959 -0.7143 0.0000
-0.7959 -0.6735 0.0000
-0.7959 -0.6327 0.0000
-0.7959 -0.5918 0.0000
-0.7959 -0.5510 0.0000
-0.7959 -0.5102 0.0000
-0.7959 -0.4694 0.0000
-0.7959 -0.4286 0.0000
-0.7959 -0.3878 0.0000
-0.7959 -0.3469 0.0000
-0.7959 -0.3061 0.0000
-0.7959 -0.2653 0.0000
-0.7959 -0.2245 0.0000
-0.7959 -0.1837 0.0000
-0.7959 -0.1429 0.0000
-0.7959 -0.1020 0.0000
-0.7959 -0.0612 0.0000
-0.7959 -0.0204 0.0000
-0.7959 0.0204 0.0000
-0.7959 0.0612 0.0000
-0.7959 0.1020 0.0000
-0.7959 0.1429 0.0000
-0.7959 0.1837 0.0000
-0.7959 0.2245 0.0000
-0.7959 0.2653 0.0000
-0.7959 0.3061 0.0000
-0.7959 0.3469 0.0000
-0.7959 0.3878 0.0000
-0.7959 0.4286 0.0000
-0.7959 0.4694 0.0000
-0.7959 0.5102 0.0000
-0.7959 0.5510 0.0000
-0.7959 0.5918 0.0000
-0.7959 0.6327 0.0000
-0.7959 0.6735 0.0000
-0.7959 0.7143 0.0000
-0.7959 0.7551 0.0000
-0.7959 0.7959 0.0000
-0.7959 0.8367 0.0000
-0.7959 0.8776 0.0000
-0.7959 0.9184 0.0000
-0.7959 0.9592 0.0000
-0.7959 1.0000 0.0000
-0.7551 -0.9592 0.0000
-0.7551 -0.9184 0.0000
-0.7551 -0.8776 0.0000
-0.7551 -0.8367 0.0000
-0.7551 -0.7959 0.0000
-0.7551 -0.7551 0.0000
-0.7551 -0.7143 0.0000
-0.7551 -0.6735 0.0000
-0.7551 -0.6327 0.0000
-0.7551 -0.5918 0.0000
-0.7551 -0.5510 0.0000
-0.7551 -0.5102 0.0000
-0.7551 -0.4694 0.0000
-0.7551 -0.4286 0.0000
-0.7551 -0.3878 0.0000
-0.7551 -0.3469 0.0000
-0.7551 -0.3061 0.0000
-0.7551 -0.2653 0.0000
-0.7551 -0.2245 0.0000
-0.7551 -0.1837 0.0000
-0.7551 -0.1429 0.0000
-0.7551 -0.1020 0.0000
-0.7551 -0.0612 0.0000
-0.7551 -0.0204 0.0000
-0.7551 0.0204 0.0000
-0.7551 0.0612 0.0000
-0.7551 0.1020 0.0000
-0.7551 0.1429 0.0000
-0.7551 0.1837 0.0000
-0.7551 0.2245 0.0000
-0.7551 0.2653 0.0000
-0.7551 0.3061 0.0000
-0.7551 0.3469 0.0000
-0.7551 0.3878 0.0000
-0.7551 0.4286 0.0000
-0.7551 0.4694 0.0000
-0.7551 0.5102 0.0000
-0.7551 0.5510 0.0000
-0.7551 0.5918 0.0000
-0.7551 0.6327 0.0000
-0.7551 0.6735 0.0000
-0.7551 0.7143 0.0000
-0.7551 0.7551 0.0000
-0.7551 0.7959 0.0000
-0.7551 0.8367 0.0000
-0.7551 0.8776 0.0000
-0.7551 0.9184 0.0000
-0.7551 0.9592 0.0000
-0.7551 1.0000 0.0000
-0.7143 -0.9592 0.0000
-0.7143 -0.9184 0.0000
-0.7143 -0.8776 0.0000
-0.7143 -0.8367 0.0000
-0.7143 -0.7959 0.0000
-0.7143 -0.7551 0.0000
-0.7143 -0.7143 0.0000
-0.7143 -0.6735 0.0000
-0.7143 -0.6327 0.0000
-0.7143 -0.5918 0.0000
-0.7143 -0.5510 0.0000
-0.7143 -0.5102 0.0000
-0.7143 -0.4694 0.0000
-0.7143 -0.4286 0.0000
-0.7143 -0.3878 0.0000
-0.7143 -0.3469 0.0000
-0.7143 -0.3061 0.0000
-0.7143 -0.2653 0.0000
-0.7143 -0.2245 0.0000
-0.7143 -0.1837 0.0000
-0.7143 -0.1429 0.0000
-0.7143 -0.1020 0.0000
-0.7143 -0.0612 0.0000
-0.7143 -0.0204 0.0000
-0.7143 0.0204 0.0000
-0.7143 0.0612 0.0000
-0.7143 0.1020 0.0000
-0.7143 0.1429 0.0000
-0.7143 0.1837 0.0000
-0.7143 0.2245 0.0000
-0.7143 0.2653 0.0000
-0.7143 0.3061 0.0000
-0.7143 0.3469 0.0000
-0.7143 0.3878 0.0000
-0.7143 0.4286 0.0000
-0.7143 0.4694 0.0000
-0.7143 0.5102 0.0000
-0.7143 0.5510 0.0000
-0.7143 0.5918 0.0000
-0.7143 0.6327 0.0000
-0.7143 0.6735 0.0000
-0.7143 0.7143 0.0000
-0.7143 0.7551 0.0000
-0.7143 0.7959 0.0000
-0.7143 0.8367 0.0000
-0.7143 0.8776 0.0000
-0.7143 0.9184 0.0000
-0.7143 0.9592 0.0000
-0.7143 1.0000 0.0000
-0.6735 -0.9592 0.0000
-0.6735 -0.9184 0.0000
-0.6735 -0.8776 0.0000
-0.6735 -0.8367 0.0000
-0.6735 -0.7959 0.0000
-0.6735 -0.7551 0.0000
-0.6735 -0.7143 0.0000
-0.6735 -0.6735 0.0000
-0.6735 -0.6327 0.0000
-0.6735 -0.5918 0.0000
-0.6735 -0.5510 0.0000
-0.6735 -0.5102 0.0000
-0.6735 -0.4694 0.0000
-0.6735 -0.4286 0.0000
-0.6735 -0.3878 0.0000
-0.6735 -0.3469 0.0000
-0.6735 -0.3061 0.0000
-0.6735 -0.2653 0.0000
-0.6735 -0.2245 0.0000
-0.6735 -0.1837 0.0000
-0.6735 -0.1429 0.0000
-0.6735 -0.1020 0.0000
-0.6735 -0.0612 0.0000
-0.6735 -0.0204 0.0000
-0.6735 0.0204 0.0000
-0.6735 0.0612 0.0000
-0.6735 0.1020 0.0000
-0.6735 0.1429 0.0000
-0.6735 0.1837 0.0000
-0.6735 0.2245 0.0000
-0.6735 0.2653 0.0000
-0.6735 0.3061 0.0000
-0.6735 0.3469 0.0000
-0.6735 0.3878 0.0000
-0.6735 0.4286 0.0000
-0.6735 0.4694 0.0000
-0.6735 0.5102 0.0000
-0.6735 0.5510 0.0000
-0.6735 0.5918 0.0000
[...]
         <PointData>
            <DataArray Name="fValues" NumberOfComponents="3" format="ascii" type="Float64">
 9.79588e-01 -3.65116e-16        00000 
 9.59180e-01 -1.56403e-15        00000 
 9.38772e-01 -1.32443e-16        00000 
 9.18364e-01 -3.78603e-16        00000 
 8.97956e-01 -3.05554e-16        00000 
 8.77547e-01 -4.49411e-16        00000 
 8.57139e-01 -1.83748e-16        00000 
 8.36731e-01 -4.06480e-17        00000 
 8.16323e-01  2.74064e-17        00000 
 7.95915e-01  4.34738e-17        00000 
 7.75507e-01 -1.04036e-17        00000 
 7.55099e-01 -9.78161e-19        00000 
 7.34691e-01  1.28702e-17        00000 
 7.14283e-01 -3.36922e-18        00000 
 6.93875e-01  1.02224e-17        00000 
 6.73467e-01  6.08634e-18        00000 
 6.53059e-01 -6.00839e-19        00000 
 6.32650e-01  9.56424e-18        00000 
 6.12242e-01  1.04844e-17        00000 
 5.91834e-01 -8.36871e-18        00000 
 5.71426e-01 -4.01469e-18        00000 
 5.51018e-01 -7.39055e-18        00000 
 5.30610e-01 -5.80642e-19        00000 
 5.10202e-01  2.17369e-19        00000 
 4.89794e-01  9.69535e-19        00000 
 4.69386e-01  2.17369e-19        00000 
 4.48978e-01  6.17357e-19        00000 
 4.28570e-01 -7.06450e-19        00000 
 4.08162e-01  5.22320e-19        00000 
 3.87754e-01  3.26054e-19        00000 
 3.67345e-01  1.34541e-18        00000 
 3.46937e-01 -8.15134e-19        00000 
 3.26529e-01  2.42384e-19        00000 
 3.06121e-01 -3.26054e-19        00000 
 2.85713e-01  9.87814e-19        00000 
 2.65305e-01 -5.43423e-19        00000 
 2.44897e-01 -4.77940e-19        00000 
 2.24489e-01        00000        00000 
 2.04081e-01  1.09638e-18        00000 
 1.83673e-01 -1.63027e-19        00000 
 1.63265e-01 -2.66281e-19        00000 
 1.42857e-01 -4.89081e-19        00000 
 1.22448e-01  1.49355e-18        00000 
 1.02040e-01 -3.80396e-19        00000 
 8.16323e-02  3.00419e-19        00000 
 6.12242e-02 -8.15134e-20        00000 
 4.08162e-02 -5.48230e-19        00000 
 2.04081e-02 -2.74042e-20        00000 
 2.41544e-17 -2.92253e-20        00000 
 9.61255e-01  2.13254e-03        00000 
 9.41898e-01  3.48704e-03        00000 
 9.22293e-01  4.53536e-03        00000 
 9.02567e-01  5.42442e-03        00000 
 8.82780e-01  6.20979e-03        00000 
 8.62961e-01  6.91611e-03        00000 
 8.43126e-01  7.55400e-03        00000 
 8.23283e-01  8.12689e-03        00000 
 8.03439e-01  8.63417e-03        00000 
 7.83596e-01  9.07280e-03        00000 
 7.63753e-01  9.43823e-03        00000 
 7.43909e-01  9.72541e-03        00000 
 7.24058e-01  9.92981e-03        00000 
 7.04197e-01  1.00482e-02        00000 
 6.84320e-01  1.00774e-02        00000 
 6.64419e-01  1.00169e-02        00000 
 6.44486e-01  9.86867e-03        00000 
 6.24513e-01  9.64008e-03        00000 
 6.04490e-01  9.34084e-03        00000 
 5.84413e-01  8.98523e-03        00000 
 5.64277e-01  8.59016e-03        00000 
 5.44080e-01  8.17281e-03        00000 
 5.23827e-01  7.75132e-03        00000 
 5.03520e-01  7.34282e-03        00000 
 4.83169e-01  6.96241e-03        00000 
 4.62781e-01  6.62203e-03        00000 
 4.42367e-01  6.32970e-03        00000 
 4.21937e-01  6.08854e-03        00000 
 4.01504e-01  5.90004e-03        00000 
 3.81078e-01  5.75967e-03        00000 
 3.60666e-01  5.66352e-03        00000 
 3.40278e-01  5.60174e-03        00000 
 3.19919e-01  5.56429e-03        00000 
 2.99590e-01  5.53819e-03        00000 
 2.79295e-01  5.51356e-03        00000 
 2.59034e-01  5.48087e-03        00000 
 2.38805e-01  5.43148e-03        00000 
 2.18610e-01  5.35787e-03        00000 
 1.98445e-01  5.25329e-03        00000 
 1.78311e-01  5.11202e-03        00000 
 1.58207e-01  4.92859e-03        00000 
 1.38134e-01  4.69736e-03        00000 
 1.18093e-01  4.41196e-03        00000 
 9.80902e-02  4.06395e-03        00000 
 7.81338e-02  3.64019e-03        00000 
 5.82421e-02  3.11758e-03        00000 
 3.84549e-02  2.45042e-03        00000 
 1.88571e-02  1.52665e-03        00000 
-6.25210e-18 -1.43247e-19        00000 
 9.42086e-01  3.22917e-03        00000 
 9.23917e-01  5.85139e-03        00000 
 9.05200e-01  7.98315e-03        00000 
 8.86224e-01  9.80246e-03        00000 
 8.67112e-01  1.14039e-02        00000 
 8.47927e-01  1.28365e-02        00000 
 8.28707e-01  1.41246e-02        00000 
 8.09473e-01  1.52784e-02        00000 
 7.90237e-01  1.62995e-02        00000 
 7.71005e-01  1.71848e-02        00000 
 7.51777e-01  1.79275e-02        00000 
 7.32549e-01  1.85193e-02        00000 
 7.13312e-01  1.89524e-02        00000 
 6.94054e-01  1.92210e-02        00000 
 6.74768e-01  1.93217e-02        00000 
 6.55434e-01  1.92502e-02        00000 
 6.36033e-01  1.90136e-02        00000 
 6.16545e-01  1.86214e-02        00000 
 5.97022e-01  1.81490e-02        00000 
 5.77330e-01  1.75484e-02        00000 
 5.57493e-01  1.68482e-02        00000 
 5.37497e-01  1.60831e-02        00000 
 5.17393e-01  1.53077e-02        00000 
 4.97165e-01  1.45479e-02        00000 
 4.76844e-01  1.38408e-02        00000 
 4.56449e-01  1.32073e-02        00000 
 4.36000e-01  1.26604e-02        00000 
 4.15531e-01  1.22028e-02        00000 
 3.95031e-01  1.18088e-02        00000 
 3.74534e-01  1.14915e-02        00000 
 3.54041e-01  1.12393e-02        00000 
 3.33653e-01  1.10884e-02        00000 
 3.13330e-01  1.09762e-02        00000 
 2.93078e-01  1.08818e-02        00000 
 2.72899e-01  1.07868e-02        00000 
 2.52793e-01  1.06736e-02        00000 
 2.32759e-01  1.05270e-02        00000 
 2.12795e-01  1.03315e-02        00000 
 1.92897e-01  1.00744e-02        00000 
 1.73063e-01  9.74444e-03        00000 
 1.53293e-01  9.33033e-03        00000 
 1.33588e-01  8.82009e-03        00000 
 1.13952e-01  8.20020e-03        00000 
 9.43975e-02  7.45279e-03        00000 
 7.49447e-02  6.55083e-03        00000 
 5.56349e-02  5.45010e-03        00000 
 3.65486e-02  4.07410e-03        00000 
 1.78844e-02  2.28694e-03        00000 
 2.55498e-18  6.72254e-19        00000 
 9.22562e-01  4.04089e-03        00000 
 9.05372e-01  7.58296e-03        00000 
 8.87549e-01  1.06584e-02        00000 
 8.69356e-01  1.33520e-02        00000 
 8.50958e-01  1.57468e-02        00000 
 8.32448e-01  1.78966e-02        00000 
 8.13883e-01  1.98323e-02        00000 
 7.95297e-01  2.15685e-02        00000 
 7.76711e-01  2.31088e-02        00000 
 7.58133e-01  2.44499e-02        00000 
 7.39566e-01  2.55849e-02        00000 
 7.21007e-01  2.65033e-02        00000 
 7.02435e-01  2.71931e-02        00000 
 6.83834e-01  2.76492e-02        00000 
 6.65195e-01  2.78593e-02        00000 
 6.46562e-01  2.78943e-02        00000 
 6.27757e-01  2.76489e-02        00000 
 6.08818e-01  2.71571e-02        00000 
 5.89626e-01  2.63814e-02        00000 
 5.70301e-01  2.54884e-02        00000 
 5.50778e-01  2.44871e-02        00000 
 5.30901e-01  2.33498e-02        00000 
 5.10901e-01  2.22126e-02        00000 
 4.90745e-01  2.11405e-02        00000 
 4.70435e-01  2.01511e-02        00000 
 4.50021e-01  1.92814e-02        00000 
 4.29540e-01  1.85595e-02        00000 
 4.09072e-01  1.79571e-02        00000 
 3.88520e-01  1.74823e-02        00000 
 3.67989e-01  1.71061e-02        00000 
 3.47552e-01  1.68234e-02        00000 
 3.27146e-01  1.65533e-02        00000 
 3.06851e-01  1.63038e-02        00000 
 2.86601e-01  1.60384e-02        00000 
 2.66538e-01  1.58329e-02        00000 
 2.46599e-01  1.56076e-02        00000 
 2.26774e-01  1.53262e-02        00000 
 2.07062e-01  1.49708e-02        00000 
 1.87453e-01  1.45229e-02        00000 
 1.67944e-01  1.39673e-02        00000 
 1.48537e-01  1.32862e-02        00000 
 1.29233e-01  1.24624e-02        00000 
 1.10038e-01  1.14772e-02        00000 
 9.09686e-02  1.03065e-02        00000 
 7.20592e-02  8.91568e-03        00000 
 5.33685e-02  7.25516e-03        00000 
 3.50033e-02  5.25548e-03        00000 
 1.71385e-02  2.84730e-03        00000 
 4.62513e-20 -4.60834e-19        00000 
 9.02844e-01  4.68546e-03        00000 
 8.86457e-01  8.95756e-03        00000 
 8.69445e-01  1.28086e-02        00000 
 8.52023e-01  1.62736e-02        00000 
 8.34353e-01  1.94012e-02        00000 
 8.16541e-01  2.22333e-02        00000 
 7.98660e-01  2.47975e-02        00000 
 7.80755e-01  2.71083e-02        00000 
 7.62854e-01  2.91691e-02        00000 
 7.44970e-01  3.09748e-02        00000 
 7.27106e-01  3.25147e-02        00000 
 7.09266e-01  3.37758e-02        00000 
 6.91402e-01  3.47649e-02        00000 
 6.73596e-01  3.55306e-02        00000 
 6.55674e-01  3.59241e-02        00000 
 6.37579e-01  3.58784e-02        00000 
 6.19431e-01  3.55297e-02        00000 
 6.00925e-01  3.48146e-02        00000 
 5.82161e-01  3.37872e-02        00000 
 5.63207e-01  3.26261e-02        00000 
 5.44021e-01  3.13974e-02        00000 
 5.24461e-01  3.00698e-02        00000 
 5.04622e-01  2.87124e-02        00000 
 4.84523e-01  2.73684e-02        00000 
 4.64203e-01  2.60971e-02        00000 
 4.43707e-01  2.49428e-02        00000 
 4.23096e-01  2.39328e-02        00000 
 4.02430e-01  2.31183e-02        00000 
 3.81769e-01  2.25141e-02        00000 
 3.61192e-01  2.20805e-02        00000 
 3.40756e-01  2.18092e-02        00000 
 3.20468e-01  2.15809e-02        00000 
 3.00269e-01  2.13785e-02        00000 
 2.80242e-01  2.11498e-02        00000 
 2.60306e-01  2.07778e-02        00000 
 2.40463e-01  2.03178e-02        00000 
 2.20857e-01  1.98660e-02        00000 
 2.01421e-01  1.93226e-02        00000 
 1.82121e-01  1.86589e-02        00000 
 1.62964e-01  1.78493e-02        00000 
 1.43950e-01  1.68741e-02        00000 
 1.25075e-01  1.57150e-02        00000 
 1.06347e-01  1.43511e-02        00000 
 8.77889e-02  1.27561e-02        00000 
 6.94419e-02  1.08959e-02        00000 
 5.13722e-02  8.72839e-03        00000 
 3.36817e-02  6.20810e-03        00000 
 1.65075e-02  3.30010e-03        00000 
-6.47518e-19  3.65345e-19        00000 
 8.82998e-01  5.21944e-03        00000 
 8.67283e-01  1.00903e-02        00000 
 8.50991e-01  1.45884e-02        00000 
 8.34295e-01  1.87193e-02        00000 
 8.17339e-01  2.25048e-02        00000 
 8.00231e-01  2.59690e-02        00000 
 7.83050e-01  2.91299e-02        00000 
 7.65848e-01  3.19977e-02        00000 
 7.48662e-01  3.45745e-02        00000 
 7.31505e-01  3.68548e-02        00000 
 7.14373e-01  3.88313e-02        00000 
 6.97393e-01  4.05437e-02        00000 
 6.80296e-01  4.18935e-02        00000 
 6.63079e-01  4.27441e-02        00000 
 6.45768e-01  4.30833e-02        00000 
 6.28343e-01  4.29667e-02        00000 
 6.10842e-01  4.25067e-02        00000 
 5.93081e-01  4.18205e-02        00000 
 5.75100e-01  4.09226e-02        00000 
 5.56599e-01  3.97449e-02        00000 
 5.37976e-01  3.85652e-02        00000 
 5.18721e-01  3.71534e-02        00000 
 4.99125e-01  3.56855e-02        00000 
 4.79102e-01  3.41401e-02        00000 
 4.58760e-01  3.26156e-02        00000 
 4.38159e-01  3.11707e-02        00000 
 4.17364e-01  2.98258e-02        00000 
 3.96307e-01  2.86136e-02        00000 
 3.75390e-01  2.76259e-02        00000 
 3.54583e-01  2.69027e-02        00000 
 3.33896e-01  2.63699e-02        00000 
 3.13471e-01  2.60205e-02        00000 
 2.93376e-01  2.58350e-02        00000 
 2.73574e-01  2.56698e-02        00000 
 2.53977e-01  2.54251e-02        00000 
 2.34460e-01  2.49730e-02        00000 
 2.15087e-01  2.42852e-02        00000 
 1.95890e-01  2.34692e-02        00000 
 1.76907e-01  2.25451e-02        00000 
 1.58128e-01  2.14516e-02        00000 
 1.39532e-01  2.01631e-02        00000 
 1.21107e-01  1.86588e-02        00000 
 1.02866e-01  1.69159e-02        00000 
 8.48321e-02  1.49092e-02        00000 
 6.70479e-02  1.26107e-02        00000 
 4.95775e-02  9.99055e-03        00000 
 3.25086e-02  7.02184e-03        00000 
 1.59471e-02  3.68979e-03        00000 
 4.80990e-19  1.91273e-19        00000 
 8.63058e-01  5.66974e-03        00000 
 8.47915e-01  1.10429e-02        00000 
 8.32261e-01  1.60877e-02        00000 
 8.16235e-01  2.07931e-02        00000 
 7.99963e-01  2.51621e-02        00000 
 7.83549e-01  2.92032e-02        00000 
 7.67071e-01  3.29234e-02        00000 
 7.50584e-01  3.63235e-02        00000 
 7.34133e-01  3.93966e-02        00000 
 7.17739e-01  4.21367e-02        00000 
 7.01511e-01  4.46143e-02        00000 
 6.85071e-01  4.66342e-02        00000 
 6.68585e-01  4.81199e-02        00000 
 6.52080e-01  4.90902e-02        00000 
 6.35729e-01  4.96125e-02        00000 
 6.19173e-01  4.97430e-02        00000 
 6.02658e-01  4.94878e-02        00000 
 5.85866e-01  4.91645e-02        00000 
 5.68663e-01  4.85207e-02        00000 
 5.50758e-01  4.74741e-02        00000 
 5.32538e-01  4.62341e-02        00000 
 5.13643e-01  4.47434e-02        00000 
 4.94237e-01  4.30855e-02        00000 
 4.74307e-01  4.13352e-02        00000 
 4.53933e-01  3.95745e-02        00000 
 4.33207e-01  3.78789e-02        00000 
 4.12204e-01  3.62939e-02        00000 
 3.90935e-01  3.48296e-02        00000 
 3.69723e-01  3.35051e-02        00000 
 3.48537e-01  3.24329e-02        00000 
 3.27606e-01  3.15015e-02        00000 
 3.06805e-01  3.06406e-02        00000 
 2.86555e-01  3.01943e-02        00000 
 2.66747e-01  2.98073e-02        00000 
 2.47354e-01  2.95264e-02        00000 
 2.28222e-01  2.90912e-02        00000 
 2.09338e-01  2.84536e-02        00000 
 1.90500e-01  2.74506e-02        00000 
 1.71799e-01  2.61900e-02        00000 
 1.53432e-01  2.48115e-02        00000 
 1.35277e-01  2.32117e-02        00000 
 1.17320e-01  2.13627e-02        00000 
 9.95773e-02  1.92474e-02        00000 
 8.20701e-02  1.68465e-02        00000 
 6.48377e-02  1.41407e-02        00000 
 4.79375e-02  1.11114e-02        00000 
 3.14427e-02  7.74480e-03        00000 
 1.54364e-02  4.03765e-03        00000 
 2.87796e-18  1.21248e-20        00000 
 8.43044e-01  6.05161e-03        00000 
 8.28394e-01  1.18503e-02        00000 
 8.13303e-01  1.73608e-02        00000 
 7.97891e-01  2.25626e-02        00000 
 7.82266e-01  2.74466e-02        00000 
 7.66523e-01  3.20098e-02        00000 
 7.50738e-01  3.62501e-02        00000 
 7.34969e-01  4.01631e-02        00000 
 7.19426e-01  4.37565e-02        00000 
 7.03813e-01  4.69895e-02        00000 
 6.88027e-01  4.98469e-02        00000 
 6.72230e-01  5.21532e-02        00000 
 6.56485e-01  5.39220e-02        00000 
 6.40988e-01  5.52422e-02        00000 
 6.25774e-01  5.61634e-02        00000 
 6.10614e-01  5.66765e-02        00000 
 5.95100e-01  5.70175e-02        00000 
 5.79119e-01  5.69364e-02        00000 
 5.62503e-01  5.63645e-02        00000 
 5.45253e-01  5.53491e-02        00000 
 5.27288e-01  5.38494e-02        00000 
 5.08739e-01  5.21185e-02        00000 
 4.89472e-01  5.01651e-02        00000 
 4.69602e-01  4.81531e-02        00000 
 4.49168e-01  4.61707e-02        00000 
 4.28284e-01  4.42854e-02        00000 
 4.07068e-01  4.25749e-02        00000 
 3.85722e-01  4.10254e-02        00000 
 3.64280e-01  3.96189e-02        00000 
 3.42919e-01  3.83426e-02        00000 
 3.21748e-01  3.71560e-02        00000 
 3.00773e-01  3.60272e-02        00000 
 2.80183e-01  3.49439e-02        00000 
 2.60307e-01  3.43726e-02        00000 
 2.40843e-01  3.36824e-02        00000 
 2.21915e-01  3.30168e-02        00000 
 2.03444e-01  3.22649e-02        00000 
 1.85137e-01  3.12152e-02        00000 
 1.66853e-01  2.97421e-02        00000 
 1.48899e-01  2.80237e-02        00000 
 1.31177e-01  2.60790e-02        00000 
 1.13701e-01  2.38834e-02        00000 
 9.64641e-02  2.14030e-02        00000 
 7.94790e-02  1.86248e-02        00000 
 6.27816e-02  1.55383e-02        00000 
 4.64222e-02  1.21330e-02        00000 
 3.04610e-02  8.40418e-03        00000 
 1.49649e-02  4.35572e-03        00000 
-3.64445e-18 -3.24545e-19        00000 
 8.22968e-01  6.37403e-03        00000 
 8.08743e-01  1.25331e-02        00000 
 7.94153e-01  1.84404e-02        00000 
 7.79300e-01  2.40706e-02        00000 
 7.64279e-01  2.94070e-02        00000 
 7.49177e-01  3.44387e-02        00000 
 7.34066e-01  3.91561e-02        00000 
 7.19202e-01  4.35539e-02        00000 
 7.04345e-01  4.75929e-02        00000 
 6.89219e-01  5.12851e-02        00000 
 6.73665e-01  5.44734e-02        00000 
 6.58912e-01  5.72223e-02        00000 
 6.44596e-01  5.95169e-02        00000 
 6.30582e-01  6.14265e-02        00000 
 6.16631e-01  6.28958e-02        00000 
 6.02401e-01  6.39965e-02        00000 
 5.87660e-01  6.45289e-02        00000 
 5.72288e-01  6.44519e-02        00000 
 5.56412e-01  6.38389e-02        00000 
 5.39593e-01  6.26048e-02        00000 
 5.21968e-01  6.07667e-02        00000 
 5.03727e-01  5.86741e-02        00000 
 4.84589e-01  5.63563e-02        00000 
 4.64717e-01  5.40335e-02        00000 
 4.44156e-01  5.18108e-02        00000 
 4.23048e-01  4.97785e-02        00000 
 4.01588e-01  4.79778e-02        00000 
 3.80101e-01  4.64629e-02        00000 
 3.58495e-01  4.51403e-02        00000 
 3.37046e-01  4.39080e-02        00000 
 3.15778e-01  4.27408e-02        00000 
 2.94843e-01  4.16087e-02        00000 
 2.74254e-01  4.04677e-02        00000 
 2.54140e-01  3.92248e-02        00000 
 2.34662e-01  3.81009e-02        00000 
 2.15775e-01  3.69901e-02        00000 
 1.97556e-01  3.59238e-02        00000 
 1.79664e-01  3.46409e-02        00000 
 1.61976e-01  3.30427e-02        00000 
 1.44489e-01  3.10802e-02        00000 
 1.27219e-01  2.88129e-02        00000 
 1.10239e-01  2.62588e-02        00000 
 9.35138e-02  2.34208e-02        00000 
 7.70396e-02  2.02825e-02        00000 
 6.08592e-02  1.68374e-02        00000 
 4.50135e-02  1.30808e-02        00000 
 2.95509e-02  9.01581e-03        00000 
 1.45273e-02  4.65092e-03        00000 
 5.37482e-18 -7.81918e-19        00000 
 8.02838e-01  6.64225e-03        00000 
 7.88981e-01  1.31034e-02        00000 
 7.74836e-01  1.93461e-02        00000 
 7.60490e-01  2.53424e-02        00000 
 7.46029e-01  3.10727e-02        00000 
 7.31532e-01  3.65202e-02        00000 
 7.17087e-01  4.16555e-02        00000 
 7.03070e-01  4.64381e-02        00000 
 6.88593e-01  5.09627e-02        00000 
 6.73464e-01  5.52026e-02        00000 
 6.59071e-01  5.90166e-02        00000 
 6.46104e-01  6.22255e-02        00000 
 6.33305e-01  6.51602e-02        00000 
 6.20511e-01  6.75641e-02        00000 
 6.07409e-01  6.94753e-02        00000 
 5.93874e-01  7.07741e-02        00000 
 5.79781e-01  7.13892e-02        00000 
 5.65059e-01  7.12488e-02        00000 
 5.49934e-01  7.04692e-02        00000 
 5.33718e-01  6.89716e-02        00000 
 5.16543e-01  6.67389e-02        00000 
 4.98631e-01  6.42086e-02        00000 
 4.79614e-01  6.14658e-02        00000 
 4.59669e-01  5.87770e-02        00000 
 4.38874e-01  5.62959e-02        00000 
 4.17440e-01  5.41189e-02        00000 
 3.95642e-01  5.23032e-02        00000 
 3.73880e-01  5.08588e-02        00000 
 3.52072e-01  4.97090e-02        00000 
 3.30537e-01  4.86277e-02        00000 
 3.09268e-01  4.76981e-02        00000 
 2.88465e-01  4.67342e-02        00000 
 2.68123e-01  4.56362e-02        00000 
 2.48148e-01  4.43034e-02        00000 
 2.28804e-01  4.28817e-02        00000 
 2.10054e-01  4.13756e-02        00000 
 1.91885e-01  3.97371e-02        00000 
 1.74262e-01  3.80027e-02        00000 
 1.57158e-01  3.61869e-02        00000 
 1.40198e-01  3.40037e-02        00000 
 1.23385e-01  3.13903e-02        00000 
 1.06915e-01  2.85091e-02        00000 
 9.07191e-02  2.53355e-02        00000 
 7.47371e-02  2.18465e-02        00000 
 5.90580e-02  1.80579e-02        00000 
 4.37009e-02  1.39692e-02        00000 
 2.87056e-02  9.58839e-03        00000 
 1.41214e-02  4.92706e-03        00000 
-4.07919e-18 -3.78887e-19        00000 
 7.82660e-01  6.85906e-03        00000 
 7.69121e-01  1.35674e-02        00000 
 7.55371e-01  2.00884e-02        00000 
 7.41485e-01  2.63922e-02        00000 
 7.27536e-01  3.24588e-02        00000 
 7.13624e-01  3.82593e-02        00000 
 7.00107e-01  4.36908e-02        00000 