<?xml version="1.0" encoding="utf-8"?>
<VTKFile byte_order="LittleEndian" type="UnstructuredGrid" version="0.1">
   <UnstructuredGrid>
      <Piece NumberOfCells="1408" NumberOfPoints="804">
         <Points>
            <DataArray Name="Points" NumberOfComponents="3" format="ascii" type="Float32">
-1.0000 -0.8947 0.0000
-1.0000 -0.7895 0.0000
-1.0000 -0.6842 0.0000
-1.0000 -0.5789 0.0000
-1.0000 -0.4737 0.0000
-1.0000 -0.3684 0.0000
-1.0000 -0.2632 0.0000
-1.0000 -0.1579 0.0000
-1.0000 -0.0526 0.0000
-1.0000 0.0526 0.0000
-1.0000 0.1579 0.0000
-1.0000 0.2632 0.0000
-1.0000 0.3684 0.0000
-1.0000 0.4737 0.0000
-1.0000 0.5789 0.0000
-1.0000 0.6842 0.0000
-1.0000 0.7895 0.0000
-1.0000 0.8947 0.0000
-1.0000 1.0000 0.0000
-0.8947 -0.8947 0.0000
-0.8947 -0.7895 0.0000
-0.8947 -0.6842 0.0000
-0.8947 -0.5789 0.0000
-0.8947 -0.4737 0.0000
-0.8947 -0.3684 0.0000
-0.8947 -0.2632 0.0000
-0.8947 -0.1579 0.0000
-0.8947 -0.0526 0.0000
-0.8947 0.0526 0.0000
-0.8947 0.1579 0.0000
-0.8947 0.2632 0.0000
-0.8947 0.3684 0.0000
-0.8947 0.4737 0.0000
-0.8947 0.5789 0.0000
-0.8947 0.6842 0.0000
-0.8947 0.7895 0.0000
-0.8947 0.8947 0.0000
-0.8947 1.0000 0.0000
-0.7895 -0.8947 0.0000
-0.7895 -0.7895 0.0000
-0.7895 -0.6842 0.0000
-0.7895 -0.5789 0.0000
-0.7895 -0.4737 0.0000
-0.7895 -0.3684 0.0000
-0.7895 -0.2632 0.0000
-0.7895 -0.1579 0.0000
-0.7895 -0.0526 0.0000
-0.7895 0.0526 0.0000
-0.7895 0.1579 0.0000
-0.7895 0.2632 0.0000
-0.7895 0.3684 0.0000
-0.7895 0.4737 0.0000
-0.7895 0.5789 0.0000
-0.7895 0.6842 0.0000
-0.7895 0.7895 0.0000
-0.7895 0.8947 0.0000
-0.7895 1.0000 0.0000
-0.6842 -0.8947 0.0000
-0.6842 -0.7895 0.0000
-0.6842 -0.6842 0.0000
-0.6842 -0.5789 0.0000
-0.6842 -0.4737 0.0000
-0.6842 -0.3684 0.0000
-0.6842 -0.2632 0.0000
-0.6842 -0.1579 0.0000
-0.6842 -0.0526 0.0000
-0.6842 0.0526 0.0000
-0.6842 0.1579 0.0000
-0.6842 0.2632 0.0000
-0.6842 0.3684 0.0000
-0.6842 0.4737 0.0000
-0.6842 0.5789 0.0000
-0.6842 0.6842 0.0000
-0.6842 0.7895 0.0000
-0.6842 0.8947 0.0000
-0.6842 1.0000 0.0000
-0.5789 -0.8947 0.0000
-0.5789 -0.7895 0.0000
-0.5789 -0.6842 0.0000
-0.5789 -0.5789 0.0000
-0.5789 -0.4737 0.0000
-0.5789 -0.3684 0.0000
-0.5789 -0.2632 0.0000
-0.5789 -0.1579 0.0000
-0.5789 -0.0526 0.0000
-0.5789 0.0526 0.0000
-0.5789 0.1579 0.0000
-0.5789 0.2632 0.0000
-0.5789 0.3684 0.0000
-0.5789 0.4737 0.0000
-0.5789 0.5789 0.0000
-0.5789 0.6842 0.0000
-0.5789 0.7895 0.0000
-0.5789 0.8947 0.0000
-0.5789 1.0000 0.0000
-0.4737 -0.8947 0.0000
-0.4737 -0.7895 0.0000
-0.4737 -0.6842 0.0000
-0.4737 -0.5789 0.0000
-0.4737 -0.4737 0.0000
-0.4737 -0.3684 0.0000
-0.4737 -0.2632 0.0000
-0.4737 -0.1579 0.0000
-0.4737 -0.0526 0.0000
-0.4737 0.0526 0.0000
-0.4737 0.1579 0.0000
-0.4737 0.2632 0.0000
-0.4737 0.3684 0.0000
-0.4737 0.4737 0.0000
-0.4737 0.5789 0.0000
-0.4737 0.6842 0.0000
-0.4737 0.7895 0.0000
-0.4737 0.8947 0.0000
-0.4737 1.0000 0.0000
-0.3684 -0.8947 0.0000
-0.3684 -0.7895 0.0000
-0.3684 -0.6842 0.0000
-0.3684 -0.5789 0.0000
-0.3684 -0.4737 0.0000
-0.3684 -0.3684 0.0000
-0.3684 -0.2632 0.0000
-0.3684 -0.1579 0.0000
-0.3684 -0.0526 0.0000
-0.3684 0.0526 0.0000
-0.3684 0.1579 0.0000
-0.3684 0.2632 0.0000
-0.3684 0.3684 0.0000
-0.3684 0.4737 0.0000
-0.3684 0.5789 0.0000
-0.3684 0.6842 0.0000
-0.3684 0.7895 0.0000
-0.3684 0.8947 0.0000
-0.3684 1.0000 0.0000
-0.2632 -0.8947 0.0000
-0.2632 -0.7895 0.0000
-0.2632 -0.6842 0.0000
-0.2632 -0.5789 0.0000
-0.2632 -0.4737 0.0000
-0.2632 -0.3684 0.0000
-0.2632 -0.2632 0.0000
-0.2632 0.3684 0.0000
-0.2632 0.4737 0.0000
-0.2632 0.5789 0.0000
-0.2632 0.6842 0.0000
-0.2632 0.7895 0.0000
-0.2632 0.8947 0.0000
-0.2632 1.0000 0.0000
-0.1579 -0.8947 0.0000
-0.1579 -0.7895 0.0000
-0.1579 -0.6842 0.0000
-0.1579 -0.5789 0.0000
-0.1579 -0.4737 0.0000
-0.1579 -0.3684 0.0000
-0.1579 -0.2632 0.0000
-0.1579 0.3684 0.0000
-0.1579 0.4737 0.0000
-0.1579 0.5789 0.0000
-0.1579 0.6842 0.0000
-0.1579 0.7895 0.0000
-0.1579 0.8947 0.0000
-0.1579 1.0000 0.0000
-0.0526 -0.8947 0.0000
-0.0526 -0.7895 0.0000
-0.0526 -0.6842 0.0000
-0.0526 -0.5789 0.0000
-0.0526 -0.4737 0.0000
-0.0526 -0.3684 0.0000
-0.0526 0.4737 0.0000
-0.0526 0.5789 0.0000
-0.0526 0.6842 0.0000
-0.0526 0.7895 0.0000
-0.0526 0.8947 0.0000
-0.0526 1.0000 0.0000
0.0526 -0.8947 0.0000
0.0526 -0.7895 0.0000
0.0526 -0.6842 0.0000
0.0526 -0.5789 0.0000
0.0526 -0.4737 0.0000
0.0526 -0.3684 0.0000
0.0526 0.4737 0.0000
0.0526 0.5789 0.0000
0.0526 0.6842 0.0000
0.0526 0.7895 0.0000
0.0526 0.8947 0.0000
0.0526 1.0000 0.0000
0.1579 -0.8947 0.0000
0.1579 -0.7895 0.0000
0.1579 -0.6842 0.0000
0.1579 -0.5789 0.0000
0.1579 -0.4737 0.0000
0.1579 -0.3684 0.0000
0.1579 -0.2632 0.0000
0.1579 0.3684 0.0000
0.1579 0.4737 0.0000
0.1579 0.5789 0.0000
0.1579 0.6842 0.0000
0.1579 0.7895 0.0000
0.1579 0.8947 0.0000
0.1579 1.0000 0.0000
0.2632 -0.8947 0.0000
0.2632 -0.7895 0.0000
0.2632 -0.6842 0.0000
0.2632 -0.5789 0.0000
0.2632 -0.4737 0.0000
0.2632 -0.3684 0.0000
0.2632 -0.2632 0.0000
0.2632 -0.1579 0.0000
0.2632 0.2632 0.0000
0.2632 0.3684 0.0000
0.2632 0.4737 0.0000
0.2632 0.5789 0.0000
0.2632 0.6842 0.0000
0.2632 0.7895 0.0000
0.2632 0.8947 0.0000
0.2632 1.0000 0.0000
0.3684 -0.8947 0.0000
0.3684 -0.7895 0.0000
0.3684 -0.6842 0.0000
0.3684 -0.5789 0.0000
0.3684 -0.4737 0.0000
0.3684 -0.3684 0.0000
0.3684 -0.2632 0.0000
0.3684 -0.1579 0.0000
0.3684 -0.0526 0.0000
0.3684 0.0526 0.0000
0.3684 0.1579 0.0000
0.3684 0.2632 0.0000
0.3684 0.3684 0.0000
0.3684 0.4737 0.0000
0.3684 0.5789 0.0000
0.3684 0.6842 0.0000
0.3684 0.7895 0.0000
0.3684 0.8947 0.0000
0.3684 1.0000 0.0000
0.4737 -0.8947 0.0000
0.4737 -0.7895 0.0000
0.4737 -0.6842 0.0000
0.4737 -0.5789 0.0000
0.4737 -0.4737 0.0000
0.4737 -0.3684 0.0000
0.4737 -0.2632 0.0000
0.4737 -0.1579 0.0000
0.4737 -0.0526 0.0000
0.4737 0.0526 0.0000
0.4737 0.1579 0.0000
0.4737 0.2632 0.0000
0.4737 0.3684 0.0000
0.4737 0.4737 0.0000
0.4737 0.5789 0.0000
0.4737 0.6842 0.0000
0.4737 0.7895 0.0000
0.4737 0.8947 0.0000
0.4737 1.0000 0.0000
0.5789 -0.8947 0.0000
0.5789 -0.7895 0.0000
0.5789 -0.6842 0.0000
0.5789 -0.5789 0.0000
0.5789 -0.4737 0.0000
0.5789 -0.3684 0.0000
0.5789 -0.2632 0.0000
0.5789 -0.1579 0.0000
0.5789 -0.0526 0.0000
0.5789 0.0526 0.0000
0.5789 0.1579 0.0000
0.5789 0.2632 0.0000
0.5789 0.3684 0.0000
0.5789 0.4737 0.0000
0.5789 0.5789 0.0000
0.5789 0.6842 0.0000
0.5789 0.7895 0.0000
0.5789 0.8947 0.0000
0.5789 1.0000 0.0000
0.6842 -0.8947 0.0000
0.6842 -0.7895 0.0000
0.6842 -0.6842 0.0000
0.6842 -0.5789 0.0000
0.6842 -0.4737 0.0000
0.6842 -0.3684 0.0000
0.6842 -0.2632 0.0000
0.6842 -0.1579 0.0000
0.6842 -0.0526 0.0000
0.6842 0.0526 0.0000
0.6842 0.1579 0.0000
0.6842 0.2632 0.0000
0.6842 0.3684 0.0000
0.6842 0.4737 0.0000
0.6842 0.5789 0.0000
0.6842 0.6842 0.0000
0.6842 0.7895 0.0000
0.6842 0.8947 0.0000
0.6842 1.0000 0.0000
0.7895 -0.8947 0.0000
0.7895 -0.7895 0.0000
0.7895 -0.6842 0.0000
0.7895 -0.5789 0.0000
0.7895 -0.4737 0.0000
0.7895 -0.3684 0.0000
0.7895 -0.2632 0.0000
0.7895 -0.1579 0.0000
0.7895 -0.0526 0.0000
0.7895 0.0526 0.0000
0.7895 0.1579 0.0000
0.7895 0.2632 0.0000
0.7895 0.3684 0.0000
0.7895 0.4737 0.0000
0.7895 0.5789 0.0000
0.7895 0.6842 0.0000
0.7895 0.7895 0.0000
0.7895 0.8947 0.0000
0.7895 1.0000 0.0000
0.8947 -0.8947 0.0000
0.8947 -0.7895 0.0000
0.8947 -0.6842 0.0000
0.8947 -0.5789 0.0000
0.8947 -0.4737 0.0000
0.8947 -0.3684 0.0000
0.8947 -0.2632 0.0000
0.8947 -0.1579 0.0000
0.8947 -0.0526 0.0000
0.8947 0.0526 0.0000
0.8947 0.1579 0.0000
0.8947 0.2632 0.0000
0.8947 0.3684 0.0000
0.8947 0.4737 0.0000
0.8947 0.5789 0.0000
0.8947 0.6842 0.0000
0.8947 0.7895 0.0000
0.8947 0.8947 0.0000
0.8947 1.0000 0.0000
-0.2632 -0.1579 0.0000
-0.2632 0.1579 0.0000
-0.2632 0.2632 0.0000
-0.0526 0.3684 0.0000
0.0526 0.3684 0.0000
1.0000 -0.8947 0.0000
1.0000 -0.7895 0.0000
1.0000 -0.6842 0.0000
1.0000 -0.5789 0.0000
1.0000 -0.4737 0.0000
1.0000 -0.3684 0.0000
1.0000 -0.2632 0.0000
1.0000 -0.1579 0.0000
1.0000 -0.0526 0.0000
1.0000 0.0526 0.0000
1.0000 0.1579 0.0000
1.0000 0.2632 0.0000
1.0000 0.3684 0.0000
1.0000 0.4737 0.0000
1.0000 0.5789 0.0000
1.0000 0.6842 0.0000
1.0000 0.7895 0.0000
1.0000 0.8947 0.0000
1.0000 1.0000 0.0000
-0.8947 -1.0000 0.0000
-0.7895 -1.0000 0.0000
-0.6842 -1.0000 0.0000
-0.5789 -1.0000 0.0000
-0.4737 -1.0000 0.0000
-0.3684 -1.0000 0.0000
-0.2632 -1.0000 0.0000
-0.1579 -1.0000 0.0000
-0.1579 0.2632 0.0000
-0.0526 -1.0000 0.0000
0.0526 -1.0000 0.0000
0.1579 -1.0000 0.0000
0.1579 0.2632 0.0000
0.2632 -1.0000 0.0000
0.3684 -1.0000 0.0000
0.4737 -1.0000 0.0000
0.5789 -1.0000 0.0000
0.6842 -1.0000 0.0000
0.7895 -1.0000 0.0000
0.8947 -1.0000 0.0000
1.0000 -1.0000 0.0000
-1.0000 -1.0000 0.0000
0.2632 0.1579 0.0000
-0.9474 -0.9474 0.0000
-0.9474 -0.8421 0.0000
-0.9474 -0.7368 0.0000
-0.9474 -0.6316 0.0000
-0.9474 -0.5263 0.0000
-0.9474 -0.4211 0.0000
-0.9474 -0.3158 0.0000
-0.9474 -0.2105 0.0000
-0.9474 -0.1053 0.0000
-0.9474 0.0000 0.0000
-0.9474 0.1053 0.0000
-0.9474 0.2105 0.0000
-0.9474 0.3158 0.0000
-0.9474 0.4211 0.0000
-0.9474 0.5263 0.0000
-0.9474 0.6316 0.0000
-0.9474 0.7368 0.0000
-0.9474 0.8421 0.0000
-0.9474 0.9474 0.0000
-0.8421 -0.9474 0.0000
-0.8421 -0.8421 0.0000
-0.8421 -0.7368 0.0000
-0.8421 -0.6316 0.0000
-0.8421 -0.5263 0.0000
-0.8421 -0.4211 0.0000
-0.8421 -0.3158 0.0000
-0.8421 -0.2105 0.0000
-0.8421 -0.1053 0.0000
-0.8421 0.0000 0.0000
-0.8421 0.1053 0.0000
-0.8421 0.2105 0.0000
-0.8421 0.3158 0.0000
-0.8421 0.4211 0.0000
-0.8421 0.5263 0.0000
-0.8421 0.6316 0.0000
-0.8421 0.7368 0.0000
-0.8421 0.8421 0.0000
-0.8421 0.9474 0.0000
-0.7368 -0.9474 0.0000
-0.7368 -0.8421 0.0000
-0.7368 -0.7368 0.0000
-0.7368 -0.6316 0.0000
-0.7368 -0.5263 0.0000
-0.7368 -0.4211 0.0000
-0.7368 -0.3158 0.0000
-0.7368 -0.2105 0.0000
-0.7368 -0.1053 0.0000
-0.7368 0.0000 0.0000
-0.7368 0.1053 0.0000
-0.7368 0.2105 0.0000
-0.7368 0.3158 0.0000
-0.7368 0.4211 0.0000
-0.7368 0.5263 0.0000
-0.7368 0.6316 0.0000
-0.7368 0.7368 0.0000
-0.7368 0.8421 0.0000
-0.7368 0.9474 0.0000
-0.6316 -0.9474 0.0000
-0.6316 -0.8421 0.0000
-0.6316 -0.7368 0.0000
-0.6316 -0.6316 0.0000
-0.6316 -0.5263 0.0000
-0.6316 -0.4211 0.0000
[...]
         <PointData>
            <DataArray Name="fValues" NumberOfComponents="3" format="ascii" type="Float64">
 6.80817e-02  1.64894e-01        00000 
 6.76000e-02  1.69061e-01        00000 
 6.73292e-02  1.73223e-01        00000 
 6.73281e-02  1.77368e-01        00000 
 6.76598e-02  1.81519e-01        00000 
 6.83769e-02  1.85667e-01        00000 
 6.94798e-02  1.89796e-01        00000 
 7.08911e-02  1.93896e-01        00000 
 7.24484e-02  1.97969e-01        00000 
 7.39289e-02  2.02030e-01        00000 
 7.51036e-02  2.06104e-01        00000 
 7.57973e-02  2.10205e-01        00000 
 7.59271e-02  2.14335e-01        00000 
 7.55036e-02  2.18484e-01        00000 
 7.46049e-02  2.22636e-01        00000 
 7.33399e-02  2.26781e-01        00000 
 7.18035e-02  2.30944e-01        00000 
 7.00692e-02  2.35111e-01        00000 
 7.11400e-02  2.40370e-01        00000 
 6.86747e-02  1.68736e-01        00000 
 6.77219e-02  1.72556e-01        00000 
 6.73944e-02  1.76637e-01        00000 
 6.73728e-02  1.80840e-01        00000 
 6.77230e-02  1.85125e-01        00000 
 6.84995e-02  1.89466e-01        00000 
 6.97021e-02  1.93825e-01        00000 
 7.12362e-02  1.98150e-01        00000 
 7.29050e-02  2.02405e-01        00000 
 7.44482e-02  2.06584e-01        00000 
 7.56158e-02  2.10716e-01        00000 
 7.62399e-02  2.14847e-01        00000 
 7.62665e-02  2.19014e-01        00000 
 7.57408e-02  2.23227e-01        00000 
 7.47651e-02  2.27472e-01        00000 
 7.34586e-02  2.31724e-01        00000 
 7.19438e-02  2.35944e-01        00000 
 7.05602e-02  2.40035e-01        00000 
 6.97530e-02  2.44194e-01        00000 
 6.85273e-02  1.71711e-01        00000 
 6.78251e-02  1.75831e-01        00000 
 6.73539e-02  1.79913e-01        00000 
 6.72414e-02  1.84140e-01        00000 
 6.75354e-02  1.88527e-01        00000 
 6.83238e-02  1.93057e-01        00000 
 6.96349e-02  1.97670e-01        00000 
 7.13717e-02  2.02271e-01        00000 
 7.32849e-02  2.06765e-01        00000 
 7.50274e-02  2.11112e-01        00000 
 7.62778e-02  2.15350e-01        00000 
 7.68545e-02  2.19560e-01        00000 
 7.67477e-02  2.23810e-01        00000 
 7.60677e-02  2.28121e-01        00000 
 7.49681e-02  2.32466e-01        00000 
 7.35970e-02  2.36793e-01        00000 
 7.21093e-02  2.41037e-01        00000 
 7.06848e-02  2.45204e-01        00000 
 6.92531e-02  2.49452e-01        00000 
 6.83983e-02  1.74902e-01        00000 
 6.77620e-02  1.78942e-01        00000 
 6.72308e-02  1.83003e-01        00000 
 6.69597e-02  1.87193e-01        00000 
 6.71017e-02  1.91614e-01        00000 
 6.78159e-02  1.96296e-01        00000 
 6.92130e-02  2.01183e-01        00000 
 7.12326e-02  2.06129e-01        00000 
 7.35543e-02  2.10953e-01        00000 
 7.56658e-02  2.15560e-01        00000 
 7.70948e-02  2.19985e-01        00000 
 7.76270e-02  2.24356e-01        00000 
 7.73354e-02  2.28771e-01        00000 
 7.64447e-02  2.33250e-01        00000 
 7.51872e-02  2.37740e-01        00000 
 7.37382e-02  2.42167e-01        00000 
 7.22190e-02  2.46484e-01        00000 
 7.06810e-02  2.50704e-01        00000 
 6.90810e-02  2.54858e-01        00000 
 6.83945e-02  1.78249e-01        00000 
 6.77392e-02  1.82095e-01        00000 
 6.70956e-02  1.85957e-01        00000 
 6.66046e-02  1.89966e-01        00000 
 6.64669e-02  1.94268e-01        00000 
 6.69532e-02  1.98978e-01        00000 
 6.83389e-02  2.04104e-01        00000 
 7.06946e-02  2.09472e-01        00000 
 7.36368e-02  2.14789e-01        00000 
 7.63498e-02  2.19830e-01        00000 
 7.80674e-02  2.24619e-01        00000 
 7.85248e-02  2.29313e-01        00000 
 7.79659e-02  2.34039e-01        00000 
 7.68074e-02  2.38783e-01        00000 
 7.53738e-02  2.43467e-01        00000 
 7.38476e-02  2.48009e-01        00000 
 7.22980e-02  2.52369e-01        00000 
 7.07231e-02  2.56548e-01        00000 
 6.90783e-02  2.60574e-01        00000 
 6.85813e-02  1.81836e-01        00000 
 6.78891e-02  1.85379e-01        00000 
 6.71056e-02  1.88890e-01        00000 
 6.63301e-02  1.92501e-01        00000 
 6.57686e-02  1.96411e-01        00000 
 6.57937e-02  2.00849e-01        00000 
 6.69200e-02  2.05981e-01        00000 
 6.95544e-02  2.11772e-01        00000 
 7.33535e-02  2.17824e-01        00000 
 7.69927e-02  2.23746e-01        00000 
 7.91427e-02  2.29318e-01        00000 
 7.94628e-02  2.34705e-01        00000 
 7.85549e-02  2.39920e-01        00000 
 7.70850e-02  2.45000e-01        00000 
 7.54930e-02  2.49872e-01        00000 
 7.39325e-02  2.54475e-01        00000 
 7.24082e-02  2.58795e-01        00000 
 7.08693e-02  2.62854e-01        00000 
 6.92537e-02  2.66683e-01        00000 
 6.90140e-02  1.85760e-01        00000 
 6.83160e-02  1.88944e-01        00000 
 6.74231e-02  1.91989e-01        00000 
 6.63632e-02  1.94992e-01        00000 
 6.52805e-02  1.98148e-01        00000 
 6.45870e-02  2.01769e-01        00000 
 6.50819e-02  2.06207e-01        00000 
 6.76251e-02  2.11759e-01        00000 
 7.23308e-02  2.18773e-01        00000 
 7.70463e-02  2.26748e-01        00000 
 8.00335e-02  2.34800e-01        00000 
 8.04031e-02  2.41270e-01        00000 
 7.90497e-02  2.47016e-01        00000 
 7.72614e-02  2.52317e-01        00000 
 7.55711e-02  2.57211e-01        00000 
 7.40499e-02  2.61710e-01        00000 
 7.26157e-02  2.65856e-01        00000 
 7.11723e-02  2.69701e-01        00000 
 6.96409e-02  2.73280e-01        00000 
 6.97104e-02  1.90116e-01        00000 
 6.90682e-02  1.92973e-01        00000 
 6.81625e-02  1.95563e-01        00000 
 6.69328e-02  1.97875e-01        00000 
 6.53805e-02  1.99990e-01        00000 
 6.38236e-02  2.02161e-01        00000 
 6.34046e-02  2.04696e-01        00000 
 7.96321e-02  2.56232e-01        00000 
 7.74684e-02  2.61165e-01        00000 
 7.57410e-02  2.65657e-01        00000 
 7.43150e-02  2.69757e-01        00000 
 7.30007e-02  2.73552e-01        00000 
 7.16751e-02  2.77098e-01        00000 
 7.02564e-02  2.80409e-01        00000 
 7.06233e-02  1.94958e-01        00000 
 7.00976e-02  1.97641e-01        00000 
 6.93054e-02  1.99970e-01        00000 
 6.81212e-02  2.01805e-01        00000 
 6.63571e-02  2.03007e-01        00000 
 6.39766e-02  2.03604e-01        00000 
 6.22968e-02  2.03776e-01        00000 
 8.08239e-02  2.68120e-01        00000 
 7.80199e-02  2.71599e-01        00000 
 7.62428e-02  2.75061e-01        00000 
 7.48742e-02  2.78430e-01        00000 
 7.36334e-02  2.81728e-01        00000 
 7.23906e-02  2.84943e-01        00000 
 7.10716e-02  2.88034e-01        00000 
 7.16330e-02  2.00255e-01        00000 
 7.12454e-02  2.03014e-01        00000 
 7.06495e-02  2.05449e-01        00000 
 6.97012e-02  2.07358e-01        00000 
 6.80990e-02  2.08457e-01        00000 
 6.51013e-02  2.08494e-01        00000 
 7.92540e-02  2.82667e-01        00000 
 7.72792e-02  2.84724e-01        00000 
 7.58107e-02  2.87247e-01        00000 
 7.45209e-02  2.90057e-01        00000 
 7.32746e-02  2.93018e-01        00000 
 7.19998e-02  2.96016e-01        00000 
 7.25733e-02  2.05866e-01        00000 
 7.22864e-02  2.08974e-01        00000 
 7.18675e-02  2.11913e-01        00000 
 7.11832e-02  2.14542e-01        00000 
 6.99179e-02  2.16662e-01        00000 
 6.70712e-02  2.17928e-01        00000 
 8.10718e-02  2.92381e-01        00000 
 7.87607e-02  2.93545e-01        00000 
 7.70281e-02  2.95560e-01        00000 
 7.55613e-02  2.98124e-01        00000 
 7.42143e-02  3.01031e-01        00000 
 7.29069e-02  3.04128e-01        00000 
 7.32814e-02  2.11564e-01        00000 
 7.30164e-02  2.15223e-01        00000 
 7.26693e-02  2.18920e-01        00000 
 7.21151e-02  2.22630e-01        00000 
 7.10836e-02  2.26352e-01        00000 
 6.89750e-02  2.29986e-01        00000 
 6.52550e-02  2.32686e-01        00000 
 8.58177e-02  2.98457e-01        00000 
 8.27453e-02  2.99209e-01        00000 
 8.02351e-02  3.00672e-01        00000 
 7.82366e-02  3.02849e-01        00000 
 7.65505e-02  3.05577e-01        00000 
 7.50471e-02  3.08704e-01        00000 
 7.36426e-02  3.12110e-01        00000 
 7.36461e-02  2.17103e-01        00000 
 7.33276e-02  2.21390e-01        00000 
 7.29416e-02  2.25871e-01        00000 
 7.23682e-02  2.30598e-01        00000 
 7.14162e-02  2.35654e-01        00000 
 6.99135e-02  2.41109e-01        00000 
 6.82847e-02  2.47110e-01        00000 
 6.89843e-02  2.55016e-01        00000 
 8.65409e-02  2.97629e-01        00000 
 8.57210e-02  3.00667e-01        00000 
 8.35015e-02  3.03359e-01        00000 
 8.11738e-02  3.06039e-01        00000 
 7.90914e-02  3.08977e-01        00000 
 7.72575e-02  3.12253e-01        00000 
 7.56084e-02  3.15852e-01        00000 
 7.40806e-02  3.19734e-01        00000 
 7.36277e-02  2.22291e-01        00000 
 7.32220e-02  2.27170e-01        00000 
 7.27500e-02  2.32299e-01        00000 
 7.21125e-02  2.37733e-01        00000 
 7.12079e-02  2.43526e-01        00000 
 7.00536e-02  2.49717e-01        00000 
 6.90810e-02  2.56374e-01        00000 
 6.95073e-02  2.63782e-01        00000 
 7.23415e-02  2.72840e-01        00000 
 7.70375e-02  2.81803e-01        00000 
 8.19058e-02  2.89811e-01        00000 
 8.44017e-02  2.96313e-01        00000 
 8.45143e-02  3.01665e-01        00000 
 8.31856e-02  3.06177e-01        00000 
 8.13167e-02  3.10232e-01        00000 
 7.93731e-02  3.14169e-01        00000 
 7.75182e-02  3.18198e-01        00000 
 7.57829e-02  3.22417e-01        00000 
 7.41483e-02  3.26863e-01        00000 
 7.32460e-02  2.27031e-01        00000 
 7.27696e-02  2.32407e-01        00000 
 7.22370e-02  2.38001e-01        00000 
 7.15876e-02  2.43840e-01        00000 
 7.07962e-02  2.49917e-01        00000 
 6.99634e-02  2.56187e-01        00000 
 6.94663e-02  2.62583e-01        00000 
 6.99450e-02  2.69129e-01        00000 
 7.20949e-02  2.75802e-01        00000 
 7.57289e-02  2.82793e-01        00000 
 7.95253e-02  2.89943e-01        00000 
 8.20032e-02  2.96893e-01        00000 
 8.27201e-02  3.03209e-01        00000 
 8.21078e-02  3.08838e-01        00000 
 8.07456e-02  3.13954e-01        00000 
 7.90591e-02  3.18802e-01        00000 
 7.72844e-02  3.23587e-01        00000 
 7.55304e-02  3.28447e-01        00000 
 7.38320e-02  3.33459e-01        00000 
 7.25528e-02  2.31321e-01        00000 
 7.20551e-02  2.37085e-01        00000 
 7.15245e-02  2.42998e-01        00000 
 7.09447e-02  2.49056e-01        00000 
 7.03488e-02  2.55216e-01        00000 
 6.98709e-02  2.61397e-01        00000 
 6.97917e-02  2.67520e-01        00000 
 7.05191e-02  2.73554e-01        00000 
 7.23414e-02  2.79625e-01        00000 
 7.50516e-02  2.85921e-01        00000 
 7.78859e-02  2.92519e-01        00000 
 7.99704e-02  2.99227e-01        00000 
 8.08767e-02  3.05751e-01        00000 
 8.06826e-02  3.11900e-01        00000 
 7.97073e-02  3.17679e-01        00000 
 7.82704e-02  3.23203e-01        00000 
 7.66087e-02  3.28619e-01        00000 
 7.48775e-02  3.34049e-01        00000 
 7.31622e-02  3.39568e-01        00000 
 7.16082e-02  2.35221e-01        00000 
 7.11473e-02  2.41281e-01        00000 
 7.06770e-02  2.47417e-01        00000 
 7.02273e-02  2.53619e-01        00000 
 6.98729e-02  2.59830e-01        00000 
 6.97401e-02  2.65972e-01        00000 
 7.00219e-02  2.71988e-01        00000 
 7.09252e-02  2.77892e-01        00000 
 7.25308e-02  2.83795e-01        00000 
 7.46401e-02  2.89858e-01        00000 
 7.67816e-02  2.96161e-01        00000 
 7.84279e-02  3.02640e-01        00000 
 7.92508e-02  3.09127e-01        00000 
 7.92071e-02  3.15473e-01        00000 
 7.84465e-02  3.21616e-01        00000 
 7.71772e-02  3.27582e-01        00000 
 7.55985e-02  3.33461e-01        00000 
 7.38868e-02  3.39341e-01        00000 
 7.21875e-02  3.45284e-01        00000 
 7.04720e-02  2.38823e-01        00000 
 7.00991e-02  2.45085e-01        00000 
 6.97063e-02  2.51404e-01        00000 
 6.94119e-02  2.57744e-01        00000 
 6.93062e-02  2.64041e-01        00000 
 6.94877e-02  2.70234e-01        00000 
 7.00645e-02  2.76290e-01        00000 
 7.11118e-02  2.82230e-01        00000 
 7.25998e-02  2.88144e-01        00000 
 7.43399e-02  2.94146e-01        00000 
 7.60114e-02  3.00316e-01        00000 
 7.72748e-02  3.06648e-01        00000 
 7.79009e-02  3.13068e-01        00000 
 7.78276e-02  3.19482e-01        00000 
 7.71285e-02  3.25821e-01        00000 
 7.59409e-02  3.32062e-01        00000 
 7.43767e-02  3.38217e-01        00000 
 7.26254e-02  3.44431e-01        00000 
 7.09435e-02  3.50690e-01        00000 
 6.92676e-02  2.42131e-01        00000 
 6.89191e-02  2.48590e-01        00000 
 6.85913e-02  2.55093e-01        00000 
 6.84539e-02  2.61579e-01        00000 
 6.85828e-02  2.68004e-01        00000 
 6.90455e-02  2.74322e-01        00000 
 6.98856e-02  2.80508e-01        00000 
 7.10902e-02  2.86573e-01        00000 
 7.25593e-02  2.92576e-01        00000 
 7.40998e-02  2.98603e-01        00000 
 7.54620e-02  3.04730e-01        00000 
 7.64120e-02  3.10990e-01        00000 
 7.67994e-02  3.17369e-01        00000 
 7.65874e-02  3.23817e-01        00000 
 7.58341e-02  3.30281e-01        00000 
 7.46456e-02  3.36719e-01        00000 
 7.31337e-02  3.43082e-01        00000 
 7.11488e-02  3.49269e-01        00000 
 6.93772e-02  3.55949e-01        00000 
 6.59763e-02  2.07520e-01        00000 
 8.08519e-02  2.43303e-01        00000 
 8.16576e-02  2.50736e-01        00000 
 8.28064e-02  2.81398e-01        00000 
 8.47796e-02  2.92348e-01        00000 
 6.80689e-02  2.45347e-01        00000 
 6.75888e-02  2.51973e-01        00000 
 6.73195e-02  2.58601e-01        00000 
 6.73196e-02  2.65208e-01        00000 
 6.76520e-02  2.71778e-01        00000 
 6.83690e-02  2.78270e-01        00000 
 6.94707e-02  2.84647e-01        00000 
 7.08797e-02  2.90893e-01        00000 
 7.24337e-02  2.97034e-01        00000 
 7.39106e-02  3.03136e-01        00000 
 7.50821e-02  3.09279e-01        00000 
 7.57738e-02  3.15525e-01        00000 
 7.59028e-02  3.21902e-01        00000 
 7.54797e-02  3.28395e-01        00000 
 7.45821e-02  3.34964e-01        00000 
 7.33188e-02  3.41571e-01        00000 
 7.17845e-02  3.48197e-01        00000 
 7.00524e-02  3.54822e-01        00000 
 6.72295e-02  3.59772e-01        00000 
 6.96464e-02  1.64315e-01        00000 
 6.91457e-02  1.67500e-01        00000 
 6.89726e-02  1.70801e-01        00000 
 6.89690e-02  1.74339e-01        00000 
 6.91435e-02  1.78182e-01        00000 
 6.95302e-02  1.82400e-01        00000 
 7.01455e-02  1.87028e-01        00000 
 7.09607e-02  1.92037e-01        00000 
 8.50162e-02  2.65470e-01        00000 
 7.18892e-02  1.97321e-01        00000 
 7.27968e-02  2.02705e-01        00000 
 7.35331e-02  2.07988e-01        00000 
 8.79866e-02  2.98236e-01        00000 
 7.39720e-02  2.12997e-01        00000 
 7.40403e-02  2.17625e-01        00000 
 7.37246e-02  2.21842e-01        00000 
 7.30553e-02  2.25685e-01        00000 
 7.20810e-02  2.29224e-01        00000 
 7.08373e-02  2.32525e-01        00000 
 6.92712e-02  2.35711e-01        00000 
 6.71227e-02  2.37828e-01        00000 
 7.10335e-02  1.62199e-01        00000 
 8.38605e-02  2.94341e-01        00000 
 6.95748e-02  1.65284e-01        00000 
 6.79762e-02  1.68753e-01        00000 
 6.75013e-02  1.72862e-01        00000 
 6.73634e-02  1.77014e-01        00000 
 6.75376e-02  1.81215e-01        00000 
 6.80890e-02  1.85452e-01        00000 
 6.90432e-02  1.89701e-01        00000 
 7.03555e-02  1.93932e-01        00000 
 7.18930e-02  1.98119e-01        00000 
 7.34472e-02  2.02255e-01        00000 
 7.47814e-02  2.06358e-01        00000 
 7.56929e-02  2.10459e-01        00000 
 7.60623e-02  2.14587e-01        00000 
 7.58675e-02  2.18752e-01        00000 
 7.51652e-02  2.22945e-01        00000 
 7.40554e-02  2.27148e-01        00000 
 7.26437e-02  2.31351e-01        00000 
 7.10846e-02  2.35552e-01        00000 
 7.02431e-02  2.39693e-01        00000 
 6.89723e-02  1.68110e-01        00000 
 6.82248e-02  1.72240e-01        00000 
 6.75739e-02  1.76216e-01        00000 
 6.73436e-02  1.80371e-01        00000 
 6.74809e-02  1.84651e-01        00000 
 6.80440e-02  1.89045e-01        00000 
 6.90720e-02  1.93518e-01        00000 
 7.05206e-02  1.98004e-01        00000 
 7.22293e-02  2.02428e-01        00000 
 7.39375e-02  2.06741e-01        00000 
 7.53556e-02  2.10951e-01        00000 
 7.62568e-02  2.15112e-01        00000 
 7.65375e-02  2.19291e-01        00000 
 7.62179e-02  2.23524e-01        00000 
 7.53980e-02  2.27806e-01        00000 
 7.42065e-02  2.32106e-01        00000 
 7.27802e-02  2.36378e-01        00000 
 7.13341e-02  2.40550e-01        00000 
 7.00739e-02  2.44643e-01        00000 
 6.87472e-02  1.71234e-01        00000 
 6.81182e-02  1.75355e-01        00000 
 6.75403e-02  1.79415e-01        00000 
 6.71919e-02  1.83542e-01        00000 
 6.72138e-02  1.87849e-01        00000 
 6.77132e-02  1.92364e-01        00000 
 6.87811e-02  1.97062e-01        00000 
 7.04062e-02  2.01849e-01        00000 
 7.24022e-02  2.06580e-01        00000 
 7.44154e-02  2.11144e-01        00000 
 7.60398e-02  2.15524e-01        00000 
 7.69837e-02  2.19807e-01        00000 
 7.71619e-02  2.24101e-01        00000 
 7.66699e-02  2.28462e-01        00000 
 7.56849e-02  2.32874e-01        00000 
 7.43852e-02  2.37282e-01        00000 
 7.29250e-02  2.41616e-01        00000 
 7.14301e-02  2.45843e-01        00000 
 6.99132e-02  2.50034e-01        00000 
 6.86596e-02  1.74573e-01        00000 
 6.80491e-02  1.78544e-01        00000 
 6.74322e-02  1.82485e-01        00000 
 6.69500e-02  1.86502e-01        00000 
 6.67683e-02  1.90726e-01        00000 
 6.70879e-02  1.95261e-01        00000 
 6.81101e-02  2.00139e-01        00000 
 6.99226e-02  2.05264e-01        00000 
 7.23411e-02  2.10413e-01        00000 
 7.48559e-02  2.15358e-01        00000 
 7.68400e-02  2.20034e-01        00000 
 7.78688e-02  2.24559e-01        00000 
 7.79021e-02  2.29086e-01        00000 
 7.71715e-02  2.33678e-01        00000 
 7.59776e-02  2.38288e-01        00000 
 7.45510e-02  2.42836e-01        00000 
 7.30310e-02  2.47254e-01        00000 
 7.14752e-02  2.51522e-01        00000 
 6.98748e-02  2.55666e-01        00000 
 6.87402e-02  1.78153e-01        00000 
 6.81132e-02  1.81885e-01        00000 
 6.74133e-02  1.85563e-01        00000 
 6.67343e-02  1.89293e-01        00000 
 6.62436e-02  1.93234e-01        00000 
 6.62115e-02  1.97569e-01        00000 
 6.70022e-02  2.02445e-01        00000 
 6.89299e-02  2.07867e-01        00000 
 7.19017e-02  2.13571e-01        00000 
 7.51935e-02  2.19163e-01        00000 
 7.77359e-02  2.24432e-01        00000 
 7.88861e-02  2.29472e-01        00000 
 7.86881e-02  2.34451e-01        00000 
 7.76454e-02  2.39397e-01        00000 
 7.62133e-02  2.44261e-01        00000 
 7.46693e-02  2.48952e-01        00000 
 7.31166e-02  2.53415e-01        00000 
 7.15596e-02  2.57646e-01        00000 
 6.99566e-02  2.61668e-01        00000 
 6.90305e-02  1.82050e-01        00000 
 6.84052e-02  1.85479e-01        00000 
 6.76254e-02  1.88787e-01        00000 
 6.67294e-02  1.92058e-01        00000 
 6.58413e-02  1.95448e-01        00000 
 6.52554e-02  1.99204e-01        00000 
 6.55090e-02  2.03622e-01        00000 
 6.72654e-02  2.08918e-01        00000 
 7.08363e-02  2.15145e-01        00000 
 7.51873e-02  2.21907e-01        00000 
 7.86138e-02  2.28758e-01        00000 
 7.98959e-02  2.35029e-01        00000 
 7.94340e-02  2.40672e-01        00000 
 7.80153e-02  2.46023e-01        00000 
 7.63555e-02  2.51088e-01        00000 
 7.47486e-02  2.55822e-01        00000 
 7.32298e-02  2.60220e-01        00000 
 7.17396e-02  2.64314e-01        00000 
 7.02027e-02  2.68140e-01        00000 
 6.95660e-02  1.86336e-01        00000 
 6.89863e-02  1.89455e-01        00000 
 6.81855e-02  1.92366e-01        00000 
 6.71341e-02  1.95084e-01        00000 
 6.58593e-02  1.97693e-01        00000 
 6.45866e-02  2.00409e-01        00000 
 6.39863e-02  2.03594e-01        00000 