<?xml version="1.0" encoding="utf-8"?>
<VTKFile byte_order="LittleEndian" type="UnstructuredGrid" version="0.1">
   <UnstructuredGrid>
      <Piece NumberOfCells="720" NumberOfPoints="768">
         <Points>
            <DataArray Name="Points" NumberOfComponents="3" format="ascii" type="Float32">
0.2121 0.2121 0.0000
0.2647 0.2647 0.0000
0.3172 0.3172 0.0000
0.3697 0.3697 0.0000
0.4222 0.4222 0.0000
0.4748 0.4748 0.0000
0.5273 0.5273 0.0000
0.5798 0.5798 0.0000
0.6323 0.6323 0.0000
0.6849 0.6849 0.0000
0.7374 0.7374 0.0000
0.7899 0.7899 0.0000
0.8424 0.8424 0.0000
0.8950 0.8950 0.0000
0.9475 0.9475 0.0000
1.0000 1.0000 0.0000
0.1921 0.2305 0.0000
0.2348 0.2818 0.0000
0.2776 0.3331 0.0000
0.3203 0.3844 0.0000
0.3631 0.4357 0.0000
0.4058 0.4870 0.0000
0.4486 0.5383 0.0000
0.4913 0.5896 0.0000
0.5341 0.6409 0.0000
0.5768 0.6922 0.0000
0.6196 0.7435 0.0000
0.6623 0.7948 0.0000
0.7051 0.8461 0.0000
0.7478 0.8974 0.0000
0.7906 0.9487 0.0000
0.8333 1.0000 0.0000
0.1664 0.2496 0.0000
0.1998 0.2996 0.0000
0.2331 0.3497 0.0000
0.2665 0.3997 0.0000
0.2998 0.4497 0.0000
0.3332 0.4997 0.0000
0.3665 0.5498 0.0000
0.3999 0.5998 0.0000
0.4332 0.6498 0.0000
0.4666 0.6998 0.0000
0.4999 0.7499 0.0000
0.5333 0.7999 0.0000
0.5666 0.8499 0.0000
0.6000 0.8999 0.0000
0.6333 0.9500 0.0000
0.6667 1.0000 0.0000
0.1342 0.2683 0.0000
0.1586 0.3171 0.0000
0.1829 0.3659 0.0000
0.2073 0.4147 0.0000
0.2317 0.4634 0.0000
0.2561 0.5122 0.0000
0.2805 0.5610 0.0000
0.3049 0.6098 0.0000
0.3293 0.6586 0.0000
0.3537 0.7073 0.0000
0.3781 0.7561 0.0000
0.4024 0.8049 0.0000
0.4268 0.8537 0.0000
0.4512 0.9024 0.0000
0.4756 0.9512 0.0000
0.5000 1.0000 0.0000
0.0949 0.2846 0.0000
0.1108 0.3323 0.0000
0.1267 0.3800 0.0000
0.1426 0.4277 0.0000
0.1585 0.4754 0.0000
0.1744 0.5231 0.0000
0.1903 0.5708 0.0000
0.2062 0.6185 0.0000
0.2220 0.6661 0.0000
0.2379 0.7138 0.0000
0.2538 0.7615 0.0000
0.2697 0.8092 0.0000
0.2856 0.8569 0.0000
0.3015 0.9046 0.0000
0.3174 0.9523 0.0000
0.3333 1.0000 0.0000
0.0493 0.2959 0.0000
0.0571 0.3429 0.0000
0.0650 0.3898 0.0000
0.0728 0.4367 0.0000
0.0806 0.4837 0.0000
0.0884 0.5306 0.0000
0.0963 0.5776 0.0000
0.1041 0.6245 0.0000
0.1119 0.6714 0.0000
0.1197 0.7184 0.0000
0.1276 0.7653 0.0000
0.1354 0.8122 0.0000
0.1432 0.8592 0.0000
0.1510 0.9061 0.0000
0.1588 0.9531 0.0000
0.1667 1.0000 0.0000
0.0000 0.3000 0.0000
0.0000 0.3467 0.0000
0.0000 0.3933 0.0000
0.0000 0.4400 0.0000
0.0000 0.4867 0.0000
0.0000 0.5333 0.0000
0.0000 0.5800 0.0000
0.0000 0.6267 0.0000
0.0000 0.6733 0.0000
0.0000 0.7200 0.0000
0.0000 0.7667 0.0000
0.0000 0.8133 0.0000
0.0000 0.8600 0.0000
0.0000 0.9067 0.0000
0.0000 0.9533 0.0000
0.0000 1.0000 0.0000
-0.0493 0.2959 0.0000
-0.0571 0.3429 0.0000
-0.0650 0.3898 0.0000
-0.0728 0.4367 0.0000
-0.0806 0.4837 0.0000
-0.0884 0.5306 0.0000
-0.0963 0.5776 0.0000
-0.1041 0.6245 0.0000
-0.1119 0.6714 0.0000
-0.1197 0.7184 0.0000
-0.1276 0.7653 0.0000
-0.1354 0.8122 0.0000
-0.1432 0.8592 0.0000
-0.1510 0.9061 0.0000
-0.1588 0.9531 0.0000
-0.1667 1.0000 0.0000
-0.0949 0.2846 0.0000
-0.1108 0.3323 0.0000
-0.1267 0.3800 0.0000
-0.1426 0.4277 0.0000
-0.1585 0.4754 0.0000
-0.1744 0.5231 0.0000
-0.1903 0.5708 0.0000
-0.2062 0.6185 0.0000
-0.2220 0.6661 0.0000
-0.2379 0.7138 0.0000
-0.2538 0.7615 0.0000
-0.2697 0.8092 0.0000
-0.2856 0.8569 0.0000
-0.3015 0.9046 0.0000
-0.3174 0.9523 0.0000
-0.3333 1.0000 0.0000
-0.1342 0.2683 0.0000
-0.1586 0.3171 0.0000
-0.1829 0.3659 0.0000
-0.2073 0.4147 0.0000
-0.2317 0.4634 0.0000
-0.2561 0.5122 0.0000
-0.2805 0.5610 0.0000
-0.3049 0.6098 0.0000
-0.3293 0.6586 0.0000
-0.3537 0.7073 0.0000
-0.3781 0.7561 0.0000
-0.4024 0.8049 0.0000
-0.4268 0.8537 0.0000
-0.4512 0.9024 0.0000
-0.4756 0.9512 0.0000
-0.5000 1.0000 0.0000
-0.1664 0.2496 0.0000
-0.1998 0.2996 0.0000
-0.2331 0.3497 0.0000
-0.2665 0.3997 0.0000
-0.2998 0.4497 0.0000
-0.3332 0.4997 0.0000
-0.3665 0.5498 0.0000
-0.3999 0.5998 0.0000
-0.4332 0.6498 0.0000
-0.4666 0.6998 0.0000
-0.4999 0.7499 0.0000
-0.5333 0.7999 0.0000
-0.5666 0.8499 0.0000
-0.6000 0.8999 0.0000
-0.6333 0.9500 0.0000
-0.6667 1.0000 0.0000
-0.1921 0.2305 0.0000
-0.2348 0.2818 0.0000
-0.2776 0.3331 0.0000
-0.3203 0.3844 0.0000
-0.3631 0.4357 0.0000
-0.4058 0.4870 0.0000
-0.4486 0.5383 0.0000
-0.4913 0.5896 0.0000
-0.5341 0.6409 0.0000
-0.5768 0.6922 0.0000
-0.6196 0.7435 0.0000
-0.6623 0.7948 0.0000
-0.7051 0.8461 0.0000
-0.7478 0.8974 0.0000
-0.7906 0.9487 0.0000
-0.8333 1.0000 0.0000
-0.2121 0.2121 0.0000
-0.2647 0.2647 0.0000
-0.3172 0.3172 0.0000
-0.3697 0.3697 0.0000
-0.4222 0.4222 0.0000
-0.4748 0.4748 0.0000
-0.5273 0.5273 0.0000
-0.5798 0.5798 0.0000
-0.6323 0.6323 0.0000
-0.6849 0.6849 0.0000
-0.7374 0.7374 0.0000
-0.7899 0.7899 0.0000
-0.8424 0.8424 0.0000
-0.8950 0.8950 0.0000
-0.9475 0.9475 0.0000
-1.0000 1.0000 0.0000
-0.2305 0.1921 0.0000
-0.2818 0.2348 0.0000
-0.3331 0.2776 0.0000
-0.3844 0.3203 0.0000
-0.4357 0.3631 0.0000
-0.4870 0.4058 0.0000
-0.5383 0.4486 0.0000
-0.5896 0.4913 0.0000
-0.6409 0.5341 0.0000
-0.6922 0.5768 0.0000
-0.7435 0.6196 0.0000
-0.7948 0.6623 0.0000
-0.8461 0.7051 0.0000
-0.8974 0.7478 0.0000
-0.9487 0.7906 0.0000
-1.0000 0.8333 0.0000
-0.2496 0.1664 0.0000
-0.2996 0.1998 0.0000
-0.3497 0.2331 0.0000
-0.3997 0.2665 0.0000
-0.4497 0.2998 0.0000
-0.4997 0.3332 0.0000
-0.5498 0.3665 0.0000
-0.5998 0.3999 0.0000
-0.6498 0.4332 0.0000
-0.6998 0.4666 0.0000
-0.7499 0.4999 0.0000
-0.7999 0.5333 0.0000
-0.8499 0.5666 0.0000
-0.8999 0.6000 0.0000
-0.9500 0.6333 0.0000
-1.0000 0.6667 0.0000
-0.2683 0.1342 0.0000
-0.3171 0.1586 0.0000
-0.3659 0.1829 0.0000
-0.4147 0.2073 0.0000
-0.4634 0.2317 0.0000
-0.5122 0.2561 0.0000
-0.5610 0.2805 0.0000
-0.6098 0.3049 0.0000
-0.6586 0.3293 0.0000
-0.7073 0.3537 0.0000
-0.7561 0.3781 0.0000
-0.8049 0.4024 0.0000
-0.8537 0.4268 0.0000
-0.9024 0.4512 0.0000
-0.9512 0.4756 0.0000
-1.0000 0.5000 0.0000
-0.2846 0.0949 0.0000
-0.3323 0.1108 0.0000
-0.3800 0.1267 0.0000
-0.4277 0.1426 0.0000
-0.4754 0.1585 0.0000
-0.5231 0.1744 0.0000
-0.5708 0.1903 0.0000
-0.6185 0.2062 0.0000
-0.6661 0.2220 0.0000
-0.7138 0.2379 0.0000
-0.7615 0.2538 0.0000
-0.8092 0.2697 0.0000
-0.8569 0.2856 0.0000
-0.9046 0.3015 0.0000
-0.9523 0.3174 0.0000
-1.0000 0.3333 0.0000
-0.2959 0.0493 0.0000
-0.3429 0.0571 0.0000
-0.3898 0.0650 0.0000
-0.4367 0.0728 0.0000
-0.4837 0.0806 0.0000
-0.5306 0.0884 0.0000
-0.5776 0.0963 0.0000
-0.6245 0.1041 0.0000
-0.6714 0.1119 0.0000
-0.7184 0.1197 0.0000
-0.7653 0.1276 0.0000
-0.8122 0.1354 0.0000
-0.8592 0.1432 0.0000
-0.9061 0.1510 0.0000
-0.9531 0.1588 0.0000
-1.0000 0.1667 0.0000
-0.3000 0.0000 0.0000
-0.3467 0.0000 0.0000
-0.3933 0.0000 0.0000
-0.4400 0.0000 0.0000
-0.4867 0.0000 0.0000
-0.5333 0.0000 0.0000
-0.5800 0.0000 0.0000
-0.6267 0.0000 0.0000
-0.6733 0.0000 0.0000
-0.7200 0.0000 0.0000
-0.7667 0.0000 0.0000
-0.8133 0.0000 0.0000
-0.8600 0.0000 0.0000
-0.9067 0.0000 0.0000
-0.9533 0.0000 0.0000
-1.0000 0.0000 0.0000
-0.2959 -0.0493 0.0000
-0.3429 -0.0571 0.0000
-0.3898 -0.0650 0.0000
-0.4367 -0.0728 0.0000
-0.4837 -0.0806 0.0000
-0.5306 -0.0884 0.0000
-0.5776 -0.0963 0.0000
-0.6245 -0.1041 0.0000
-0.6714 -0.1119 0.0000
-0.7184 -0.1197 0.0000
-0.7653 -0.1276 0.0000
-0.8122 -0.1354 0.0000
-0.8592 -0.1432 0.0000
-0.9061 -0.1510 0.0000
-0.9531 -0.1588 0.0000
-1.0000 -0.1667 0.0000
-0.2846 -0.0949 0.0000
-0.3323 -0.1108 0.0000
-0.3800 -0.1267 0.0000
-0.4277 -0.1426 0.0000
-0.4754 -0.1585 0.0000
-0.5231 -0.1744 0.0000
-0.5708 -0.1903 0.0000
-0.6185 -0.2062 0.0000
-0.6661 -0.2220 0.0000
-0.7138 -0.2379 0.0000
-0.7615 -0.2538 0.0000
-0.8092 -0.2697 0.0000
-0.8569 -0.2856 0.0000
-0.9046 -0.3015 0.0000
-0.9523 -0.3174 0.0000
-1.0000 -0.3333 0.0000
-0.2683 -0.1342 0.0000
-0.3171 -0.1586 0.0000
-0.3659 -0.1829 0.0000
-0.4147 -0.2073 0.0000
-0.4634 -0.2317 0.0000
-0.5122 -0.2561 0.0000
-0.5610 -0.2805 0.0000
-0.6098 -0.3049 0.0000
-0.6586 -0.3293 0.0000
-0.7073 -0.3537 0.0000
-0.7561 -0.3781 0.0000
-0.8049 -0.4024 0.0000
-0.8537 -0.4268 0.0000
-0.9024 -0.4512 0.0000
-0.9512 -0.4756 0.0000
-1.0000 -0.5000 0.0000
-0.2496 -0.1664 0.0000
-0.2996 -0.1998 0.0000
-0.3497 -0.2331 0.0000
-0.3997 -0.2665 0.0000
-0.4497 -0.2998 0.0000
-0.4997 -0.3332 0.0000
-0.5498 -0.3665 0.0000
-0.5998 -0.3999 0.0000
-0.6498 -0.4332 0.0000
-0.6998 -0.4666 0.0000
-0.7499 -0.4999 0.0000
-0.7999 -0.5333 0.0000
-0.8499 -0.5666 0.0000
-0.8999 -0.6000 0.0000
-0.9500 -0.6333 0.0000
-1.0000 -0.6667 0.0000
-0.2305 -0.1921 0.0000
-0.2818 -0.2348 0.0000
-0.3331 -0.2776 0.0000
-0.3844 -0.3203 0.0000
-0.4357 -0.3631 0.0000
-0.4870 -0.4058 0.0000
-0.5383 -0.4486 0.0000
-0.5896 -0.4913 0.0000
-0.6409 -0.5341 0.0000
-0.6922 -0.5768 0.0000
-0.7435 -0.6196 0.0000
-0.7948 -0.6623 0.0000
-0.8461 -0.7051 0.0000
-0.8974 -0.7478 0.0000
-0.9487 -0.7906 0.0000
-1.0000 -0.8333 0.0000
-0.2121 -0.2121 0.0000
-0.2647 -0.2647 0.0000
-0.3172 -0.3172 0.0000
-0.3697 -0.3697 0.0000
-0.4222 -0.4222 0.0000
-0.4748 -0.4748 0.0000
-0.5273 -0.5273 0.0000
-0.5798 -0.5798 0.0000
-0.6323 -0.6323 0.0000
-0.6849 -0.6849 0.0000
-0.7374 -0.7374 0.0000
-0.7899 -0.7899 0.0000
-0.8424 -0.8424 0.0000
-0.8950 -0.8950 0.0000
-0.9475 -0.9475 0.0000
-1.0000 -1.0000 0.0000
-0.1921 -0.2305 0.0000
-0.2348 -0.2818 0.0000
-0.2776 -0.3331 0.0000
-0.3203 -0.3844 0.0000
-0.3631 -0.4357 0.0000
-0.4058 -0.4870 0.0000
-0.4486 -0.5383 0.0000
-0.4913 -0.5896 0.0000
-0.5341 -0.6409 0.0000
-0.5768 -0.6922 0.0000
-0.6196 -0.7435 0.0000
-0.6623 -0.7948 0.0000
-0.7051 -0.8461 0.0000
-0.7478 -0.8974 0.0000
-0.7906 -0.9487 0.0000
-0.8333 -1.0000 0.0000
-0.1664 -0.2496 0.0000
-0.1998 -0.2996 0.0000
-0.2331 -0.3497 0.0000
-0.2665 -0.3997 0.0000
-0.2998 -0.4497 0.0000
-0.3332 -0.4997 0.0000
-0.3665 -0.5498 0.0000
-0.3999 -0.5998 0.0000
-0.4332 -0.6498 0.0000
-0.4666 -0.6998 0.0000
-0.4999 -0.7499 0.0000
-0.5333 -0.7999 0.0000
-0.5666 -0.8499 0.0000
-0.6000 -0.8999 0.0000
-0.6333 -0.9500 0.0000
-0.6667 -1.0000 0.0000
-0.1342 -0.2683 0.0000
-0.1586 -0.3171 0.0000
-0.1829 -0.3659 0.0000
-0.2073 -0.4147 0.0000
-0.2317 -0.4634 0.0000
-0.2561 -0.5122 0.0000
-0.2805 -0.5610 0.0000
[...]
         <PointData>
            <DataArray Name="fValues" NumberOfComponents="3" format="ascii" type="Float64">
-4.51890e-02  1.89087e-01        00000 
-4.82305e-02  1.91905e-01        00000 
-5.10410e-02  1.97654e-01        00000 
-5.17809e-02  2.00536e-01        00000 
-5.05713e-02  1.97552e-01        00000 
-4.89359e-02  1.91548e-01        00000 
-4.49279e-02  1.77682e-01        00000 
-4.07607e-02  1.61666e-01        00000 
-3.59226e-02  1.47222e-01        00000 
-2.76763e-02  1.31386e-01        00000 
-2.21901e-02  1.11369e-01        00000 
-1.82682e-02  8.96838e-02        00000 
-1.25452e-02  6.92172e-02        00000 
-6.22205e-03  4.84682e-02        00000 
-4.32102e-03  2.42191e-02        00000 
-3.86922e-04 -1.37240e-03        00000 
-4.37705e-02  1.70435e-01        00000 
-4.74912e-02  1.72641e-01        00000 
-5.18764e-02  1.77844e-01        00000 
-5.41317e-02  1.80069e-01        00000 
-5.33381e-02  1.77922e-01        00000 
-5.09140e-02  1.73055e-01        00000 
-4.89320e-02  1.62536e-01        00000 
-4.48856e-02  1.46403e-01        00000 
-3.95638e-02  1.30838e-01        00000 
-3.52195e-02  1.16784e-01        00000 
-2.68381e-02  9.95188e-02        00000 
-2.08095e-02  7.96538e-02        00000 
-1.73157e-02  6.34043e-02        00000 
-1.23320e-02  4.59179e-02        00000 
-5.26607e-03  2.52794e-02        00000 
 1.17136e-03 -7.93416e-04        00000 
-4.26159e-02  1.51230e-01        00000 
-4.64790e-02  1.52449e-01        00000 
-5.21624e-02  1.56570e-01        00000 
-5.58071e-02  1.57025e-01        00000 
-5.59663e-02  1.56561e-01        00000 
-5.41202e-02  1.52342e-01        00000 
-5.20454e-02  1.43707e-01        00000 
-4.91960e-02  1.31634e-01        00000 
-4.49151e-02  1.17400e-01        00000 
-3.93665e-02  1.03304e-01        00000 
-3.42482e-02  8.67757e-02        00000 
-2.76013e-02  7.03890e-02        00000 
-2.12614e-02  5.34986e-02        00000 
-1.42391e-02  3.53212e-02        00000 
-7.48193e-03  1.91263e-02        00000 
-2.02899e-04  3.83200e-03        00000 
-4.05236e-02  1.29727e-01        00000 
-4.48499e-02  1.30265e-01        00000 
-5.06011e-02  1.35097e-01        00000 
-5.52837e-02  1.35226e-01        00000 
-5.68030e-02  1.33475e-01        00000 
-5.62526e-02  1.30298e-01        00000 
-5.52004e-02  1.22830e-01        00000 
-5.21054e-02  1.14824e-01        00000 
-4.84210e-02  1.03001e-01        00000 
-4.41843e-02  9.15518e-02        00000 
-3.92034e-02  7.97851e-02        00000 
-3.22467e-02  6.53284e-02        00000 
-2.45857e-02  4.92081e-02        00000 
-1.45756e-02  3.42716e-02        00000 
-6.74898e-03  1.41872e-02        00000 
-1.38383e-03 -1.55864e-03        00000 
-3.75335e-02  1.07341e-01        00000 
-4.24630e-02  1.07266e-01        00000 
-4.84845e-02  1.10159e-01        00000 
-5.35000e-02  1.13491e-01        00000 
-5.49248e-02  1.09613e-01        00000 
-5.64305e-02  1.07021e-01        00000 
-5.68024e-02  1.02345e-01        00000 
-5.38705e-02  9.55651e-02        00000 
-4.99636e-02  8.51163e-02        00000 
-4.67089e-02  7.53639e-02        00000 
-4.25689e-02  6.49461e-02        00000 
-3.65206e-02  5.34706e-02        00000 
-2.77662e-02  4.16211e-02        00000 
-1.70089e-02  2.92636e-02        00000 
-7.84964e-03  1.34941e-02        00000 
-2.34278e-03 -4.18016e-03        00000 
-3.36314e-02  8.78564e-02        00000 
-3.87146e-02  8.64170e-02        00000 
-4.47791e-02  8.53123e-02        00000 
-4.89196e-02  8.68351e-02        00000 
-5.11214e-02  8.54874e-02        00000 
-5.22153e-02  8.08329e-02        00000 
-5.26430e-02  7.94121e-02        00000 
-5.13801e-02  7.53518e-02        00000 
-4.88422e-02  6.96802e-02        00000 
-4.54130e-02  6.08277e-02        00000 
-4.14399e-02  5.09531e-02        00000 
-3.28807e-02  3.81697e-02        00000 
-2.46236e-02  2.95514e-02        00000 
-1.63134e-02  2.20241e-02        00000 
-8.28153e-03  1.29406e-02        00000 
 4.82569e-04 -4.10529e-03        00000 
-2.82548e-02  7.18394e-02        00000 
-3.45920e-02  7.06217e-02        00000 
-4.10991e-02  7.13576e-02        00000 
-4.48719e-02  7.14602e-02        00000 
-4.67064e-02  6.82167e-02        00000 
-4.81630e-02  6.44349e-02        00000 
-4.79843e-02  6.12207e-02        00000 
-4.59231e-02  5.83005e-02        00000 
-4.31580e-02  5.42336e-02        00000 
-3.85918e-02  4.64134e-02        00000 
-3.36104e-02  3.81226e-02        00000 
-2.77488e-02  3.14535e-02        00000 
-2.21756e-02  2.36768e-02        00000 
-1.60898e-02  1.67330e-02        00000 
-8.47693e-03  1.07168e-02        00000 
-1.00008e-03 -8.20394e-04        00000 
-2.55646e-02  6.10552e-02        00000 
-3.12888e-02  6.10437e-02        00000 
-3.73691e-02  6.26875e-02        00000 
-4.17573e-02  6.24319e-02        00000 
-4.29476e-02  5.97750e-02        00000 
-4.33205e-02  5.59055e-02        00000 
-4.15970e-02  5.00386e-02        00000 
-3.89882e-02  4.58103e-02        00000 
-3.57077e-02  4.12248e-02        00000 
-3.12544e-02  3.65609e-02        00000 
-2.68613e-02  3.00689e-02        00000 
-2.35350e-02  2.39141e-02        00000 
-1.88822e-02  2.03982e-02        00000 
-1.31930e-02  1.52726e-02        00000 
-6.08136e-03  7.94634e-03        00000 
 3.55025e-04  2.46624e-03        00000 
-2.22911e-02  5.60638e-02        00000 
-2.78325e-02  5.41842e-02        00000 
-3.28754e-02  5.66786e-02        00000 
-3.72574e-02  5.64639e-02        00000 
-3.88820e-02  5.30706e-02        00000 
-3.91677e-02  4.86007e-02        00000 
-3.71083e-02  4.42847e-02        00000 
-3.26781e-02  3.87330e-02        00000 
-2.88972e-02  3.38054e-02        00000 
-2.56931e-02  2.83950e-02        00000 
-2.34334e-02  2.29190e-02        00000 
-1.88789e-02  2.02296e-02        00000 
-1.55233e-02  1.76058e-02        00000 
-9.54328e-03  1.17864e-02        00000 
-3.33287e-03  5.28976e-03        00000 
 8.50240e-04 -2.65871e-03        00000 
-1.93446e-02  5.55723e-02        00000 
-2.53028e-02  5.42168e-02        00000 
-3.04320e-02  5.46072e-02        00000 
-3.39029e-02  5.32402e-02        00000 
-3.50402e-02  4.94993e-02        00000 
-3.46345e-02  4.37392e-02        00000 
-3.08334e-02  3.81397e-02        00000 
-2.70562e-02  3.29662e-02        00000 
-2.49044e-02  2.83127e-02        00000 
-2.17621e-02  2.26203e-02        00000 
-1.86451e-02  2.00847e-02        00000 
-1.61279e-02  1.68261e-02        00000 
-1.52265e-02  1.13312e-02        00000 
-1.17696e-02  9.77365e-03        00000 
-5.75352e-03  3.78578e-03        00000 
-9.03953e-05  1.77430e-03        00000 
-2.03812e-02  5.97722e-02        00000 
-2.46863e-02  5.70365e-02        00000 
-2.93028e-02  5.54304e-02        00000 
-3.24743e-02  5.35867e-02        00000 
-3.40241e-02  4.79365e-02        00000 
-3.29953e-02  4.21187e-02        00000 
-3.06174e-02  3.79228e-02        00000 
-2.83757e-02  3.37727e-02        00000 
-2.35099e-02  2.84786e-02        00000 
-1.89052e-02  2.68818e-02        00000 
-1.62372e-02  2.23261e-02        00000 
-1.42029e-02  1.61466e-02        00000 
-1.37045e-02  1.31574e-02        00000 
-1.17875e-02  1.01286e-02        00000 
-4.06002e-03  3.03578e-03        00000 
 3.12366e-03 -8.15330e-05        00000 
-2.21850e-02  6.40944e-02        00000 
-2.50727e-02  6.12555e-02        00000 
-2.85312e-02  5.97220e-02        00000 
-3.16533e-02  5.44378e-02        00000 
-3.30116e-02  4.68178e-02        00000 
-3.18280e-02  4.19370e-02        00000 
-2.77290e-02  3.71760e-02        00000 
-2.21219e-02  3.15077e-02        00000 
-1.80521e-02  2.96587e-02        00000 
-1.60968e-02  2.50621e-02        00000 
-1.45833e-02  1.76533e-02        00000 
-1.45583e-02  1.48564e-02        00000 
-1.24873e-02  1.45700e-02        00000 
-4.35104e-03  1.29000e-02        00000 
-1.91445e-04  4.10026e-03        00000 
 2.53139e-03  1.68517e-03        00000 
-2.41299e-02  6.89281e-02        00000 
-2.58728e-02  6.53732e-02        00000 
-2.83507e-02  6.24286e-02        00000 
-2.96980e-02  5.59324e-02        00000 
-3.01424e-02  4.79183e-02        00000 
-2.78998e-02  4.07102e-02        00000 
-2.27662e-02  3.47435e-02        00000 
-1.91726e-02  3.20128e-02        00000 
-1.69593e-02  2.56440e-02        00000 
-1.48362e-02  2.12139e-02        00000 
-1.42871e-02  1.60265e-02        00000 
-1.14510e-02  1.04501e-02        00000 
-6.68834e-03  6.51423e-03        00000 
-5.10542e-03  4.42874e-03        00000 
-2.22901e-03  5.85322e-03        00000 
 6.54008e-03  3.00987e-03        00000 
-2.62086e-02  7.37913e-02        00000 
-2.60448e-02  6.91045e-02        00000 
-2.72119e-02  6.52979e-02        00000 
-2.89815e-02  6.29620e-02        00000 
-2.91529e-02  5.62973e-02        00000 
-2.71211e-02  4.83807e-02        00000 
-2.47109e-02  4.19718e-02        00000 
-2.12104e-02  3.65642e-02        00000 
-1.92699e-02  3.07008e-02        00000 
-1.74639e-02  2.61386e-02        00000 
-1.49019e-02  2.16215e-02        00000 
-1.17010e-02  1.80758e-02        00000 
-1.10018e-02  1.25065e-02        00000 
-7.70611e-03  6.45317e-03        00000 
-3.51035e-03  5.99440e-03        00000 
 1.12961e-03  2.37865e-03        00000 
-2.88485e-02  8.00271e-02        00000 
-2.76104e-02  7.65380e-02        00000 
-2.67177e-02  7.17029e-02        00000 
-2.82588e-02  6.90042e-02        00000 
-2.91967e-02  6.51646e-02        00000 
-2.76762e-02  5.61783e-02        00000 
-2.70777e-02  5.21451e-02        00000 
-2.62133e-02  4.77686e-02        00000 
-2.28482e-02  4.12570e-02        00000 
-1.95356e-02  3.38771e-02        00000 
-1.71901e-02  2.54907e-02        00000 
-1.40811e-02  2.19786e-02        00000 
-1.23554e-02  1.77023e-02        00000 
-1.18462e-02  1.02565e-02        00000 
-7.15257e-03  4.64224e-03        00000 
-1.75510e-03  9.26547e-04        00000 
-3.23892e-02  8.82552e-02        00000 
-3.04377e-02  8.59572e-02        00000 
-2.91629e-02  8.18281e-02        00000 
-2.85721e-02  7.82376e-02        00000 
-2.97700e-02  7.55065e-02        00000 
-2.90530e-02  6.87050e-02        00000 
-2.84789e-02  6.49882e-02        00000 
-2.86492e-02  6.12998e-02        00000 
-2.79245e-02  5.44995e-02        00000 
-2.49299e-02  4.61088e-02        00000 
-2.23575e-02  3.67049e-02        00000 
-1.82512e-02  2.71791e-02        00000 
-1.43322e-02  2.07141e-02        00000 
-9.01955e-03  1.35930e-02        00000 
-2.87134e-03  7.71408e-03        00000 
 8.44383e-04  1.24523e-03        00000 
-3.68036e-02  9.76851e-02        00000 
-3.54212e-02  9.69236e-02        00000 
-3.35526e-02  9.46485e-02        00000 
-3.17771e-02  9.13026e-02        00000 
-3.22368e-02  8.68987e-02        00000 
-3.26099e-02  8.18596e-02        00000 
-3.22680e-02  7.65375e-02        00000 
-3.11902e-02  7.00322e-02        00000 
-2.86789e-02  6.21741e-02        00000 
-2.60674e-02  5.32149e-02        00000 
-2.35129e-02  4.26946e-02        00000 
-2.06995e-02  3.23765e-02        00000 
-1.53395e-02  2.23972e-02        00000 
-7.70416e-03  1.34625e-02        00000 
-1.84320e-03  9.18090e-03        00000 
 3.02391e-03  1.27001e-03        00000 
-4.41586e-02  1.09487e-01        00000 
-4.39781e-02  1.08455e-01        00000 
-4.27636e-02  1.06205e-01        00000 
-4.10014e-02  1.03921e-01        00000 
-4.10288e-02  1.00663e-01        00000 
-4.00350e-02  9.48752e-02        00000 
-3.83084e-02  8.74297e-02        00000 
-3.61963e-02  7.84005e-02        00000 
-3.34343e-02  6.97991e-02        00000 
-3.02982e-02  6.06475e-02        00000 
-2.62793e-02  5.00883e-02        00000 
-2.26118e-02  4.00284e-02        00000 
-1.72430e-02  3.02022e-02        00000 
-1.12753e-02  2.04669e-02        00000 
-3.08920e-03  1.06865e-02        00000 
 1.86007e-03  9.78596e-04        00000 
-5.33372e-02  1.23254e-01        00000 
-5.37427e-02  1.22813e-01        00000 
-5.30173e-02  1.21398e-01        00000 
-5.14302e-02  1.18295e-01        00000 
-5.01299e-02  1.13502e-01        00000 
-4.84272e-02  1.06859e-01        00000 
-4.60041e-02  9.74270e-02        00000 
-4.36206e-02  8.63215e-02        00000 
-4.09867e-02  7.74289e-02        00000 
-3.60513e-02  6.80368e-02        00000 
-2.95686e-02  5.77686e-02        00000 
-2.33534e-02  4.76882e-02        00000 
-1.93485e-02  3.70308e-02        00000 
-1.14536e-02  2.44364e-02        00000 
-4.63697e-03  1.32678e-02        00000 
 5.83815e-04  4.37307e-03        00000 
-6.29634e-02  1.46322e-01        00000 
-6.34854e-02  1.41892e-01        00000 
-6.25750e-02  1.37904e-01        00000 
-6.13855e-02  1.33501e-01        00000 
-5.81084e-02  1.24953e-01        00000 
-5.54378e-02  1.16813e-01        00000 
-5.29105e-02  1.05485e-01        00000 
-4.97997e-02  9.29700e-02        00000 
-4.70915e-02  8.44688e-02        00000 
-4.20018e-02  7.51393e-02        00000 
-3.49041e-02  6.23591e-02        00000 
-2.68601e-02  5.12660e-02        00000 
-1.98126e-02  3.84078e-02        00000 
-1.39292e-02  2.44702e-02        00000 
-7.56840e-03  1.15879e-02        00000 
 1.98656e-03  7.62135e-04        00000 
-7.26908e-02  1.72838e-01        00000 
-7.18824e-02  1.65896e-01        00000 
-7.05269e-02  1.58961e-01        00000 
-6.83346e-02  1.50730e-01        00000 
-6.40182e-02  1.39414e-01        00000 
-6.11242e-02  1.29390e-01        00000 
-5.81932e-02  1.18018e-01        00000 
-5.49552e-02  1.05587e-01        00000 
-5.03022e-02  9.38567e-02        00000 
-4.43680e-02  8.44679e-02        00000 
-3.71765e-02  7.09917e-02        00000 
-2.91768e-02  5.65969e-02        00000 
-2.11789e-02  4.20830e-02        00000 
-1.42309e-02  2.60427e-02        00000 
-9.04020e-03  1.42944e-02        00000 
-1.86854e-03  2.62960e-03        00000 
-8.15700e-02  1.97232e-01        00000 
-7.94959e-02  1.88843e-01        00000 
-7.71845e-02  1.80304e-01        00000 
-7.36952e-02  1.69123e-01        00000 
-6.90887e-02  1.55752e-01        00000 
-6.39994e-02  1.44098e-01        00000 
-5.97128e-02  1.31803e-01        00000 
-5.52038e-02  1.17916e-01        00000 
-5.02454e-02  1.03723e-01        00000 
-4.27804e-02  8.90495e-02        00000 
-3.50247e-02  7.66402e-02        00000 
-2.67281e-02  6.17090e-02        00000 
-1.88837e-02  4.57845e-02        00000 
-1.24626e-02  3.09324e-02        00000 
-6.95867e-03  1.70966e-02        00000 
-1.63927e-03  7.68159e-05        00000 
-8.86271e-02  2.19165e-01        00000 
-8.58227e-02  2.08626e-01        00000 
-8.04270e-02  1.97933e-01        00000 
-7.56786e-02  1.86172e-01        00000 
-7.05633e-02  1.74155e-01        00000 
-6.45545e-02  1.59700e-01        00000 
-5.89732e-02  1.46537e-01        00000 
-5.32241e-02  1.31125e-01        00000 
-4.68335e-02  1.14870e-01        00000 
-3.98760e-02  9.94554e-02        00000 
-3.14501e-02  8.35190e-02        00000 
-2.18345e-02  6.82281e-02        00000 
-1.41202e-02  5.42121e-02        00000 
-7.61926e-03  3.66082e-02        00000 
-2.54643e-03  1.75636e-02        00000 
 4.71846e-03 -5.11231e-03        00000 
-9.58110e-02  2.42035e-01        00000 
-9.00111e-02  2.29042e-01        00000 
-8.07343e-02  2.14026e-01        00000 
-7.37549e-02  2.00563e-01        00000 
-6.79023e-02  1.88436e-01        00000 
-6.24080e-02  1.74568e-01        00000 
-5.61901e-02  1.61621e-01        00000 
-5.02541e-02  1.46229e-01        00000 
-4.35209e-02  1.29024e-01        00000 
-3.45976e-02  1.10913e-01        00000 
-2.65985e-02  9.26067e-02        00000 
-1.92474e-02  7.55610e-02        00000 
-1.27239e-02  5.95508e-02        00000 
-6.67733e-03  4.20137e-02        00000 
-2.82127e-03  2.60001e-02        00000 
 4.10384e-03  1.25657e-03        00000 
-1.00949e-01  2.61992e-01        00000 
-9.20135e-02  2.47435e-01        00000 
-8.03801e-02  2.31763e-01        00000 
-7.11367e-02  2.16977e-01        00000 
-6.33701e-02  2.02305e-01        00000 
-5.65054e-02  1.86924e-01        00000 
-4.96950e-02  1.73106e-01        00000 
-4.27731e-02  1.60214e-01        00000 
-3.60462e-02  1.44302e-01        00000 
-2.79504e-02  1.24555e-01        00000 
-1.92792e-02  1.04523e-01        00000 
-1.41414e-02  8.62622e-02        00000 
-1.06750e-02  6.73071e-02        00000 
-7.67930e-03  4.66977e-02        00000 
-3.79650e-03  2.42858e-02        00000 
-1.75168e-03  1.74443e-03        00000 
-1.04078e-01  2.82732e-01        00000 
-9.52403e-02  2.69665e-01        00000 
-8.45167e-02  2.55729e-01        00000 
-7.42866e-02  2.43456e-01        00000 
-6.62329e-02  2.31752e-01        00000 
-5.88075e-02  2.17523e-01        00000 
-5.12331e-02  2.05257e-01        00000 
-4.41128e-02  1.93463e-01        00000 
-3.79657e-02  1.85146e-01        00000 
-3.23544e-02  1.73257e-01        00000 
-2.57958e-02  1.57664e-01        00000 
-1.87371e-02  1.45479e-01        00000 
-1.52218e-02  1.32159e-01        00000 
-1.21968e-02  1.14322e-01        00000 
-8.66405e-03  1.01033e-01        00000 
 3.50715e-04  8.44699e-02        00000 
-1.07528e-01  3.08226e-01        00000 
-9.87530e-02  2.97154e-01        00000 
-8.84779e-02  2.85271e-01        00000 
-7.81407e-02  2.74880e-01        00000 
-6.92887e-02  2.65371e-01        00000 
-6.24149e-02  2.56075e-01        00000 
-5.52479e-02  2.47193e-01        00000 
-4.74775e-02  2.40157e-01        00000 
-4.09612e-02  2.32003e-01        00000 
-3.39478e-02  2.22478e-01        00000 
-2.77307e-02  2.12271e-01        00000 
-2.28726e-02  2.04928e-01        00000 
-1.72067e-02  1.95797e-01        00000 
-1.23436e-02  1.87576e-01        00000 
-7.87435e-03  1.79437e-01        00000 
-2.93151e-03  1.68675e-01        00000 
-1.11369e-01  3.37358e-01        00000 
-1.01684e-01  3.27829e-01        00000 
-9.12758e-02  3.19582e-01        00000 
-8.17121e-02  3.12437e-01        00000 
-7.24546e-02  3.02472e-01        00000 
-6.44671e-02  2.94574e-01        00000 
-5.73393e-02  2.89208e-01        00000 
-5.00453e-02  2.85195e-01        00000 
-4.34246e-02  2.80334e-01        00000 
-3.71639e-02  2.77515e-01        00000 
-3.04042e-02  2.73018e-01        00000 
-2.40473e-02  2.66441e-01        00000 
-2.10256e-02  2.63953e-01        00000 
-1.51310e-02  2.57692e-01        00000 
-5.47003e-03  2.54590e-01        00000 
 1.77596e-03  2.50990e-01        00000 
-1.13985e-01  3.67686e-01        00000 
-1.04672e-01  3.62098e-01        00000 
-9.44500e-02  3.56296e-01        00000 
-8.41733e-02  3.50354e-01        00000 
-7.47436e-02  3.45376e-01        00000 
-6.59365e-02  3.41219e-01        00000 
-5.79592e-02  3.38303e-01        00000 
-5.12144e-02  3.37340e-01        00000 
-4.53904e-02  3.36652e-01        00000 
-3.86250e-02  3.35587e-01        00000 
-3.11803e-02  3.33745e-01        00000 
-2.54694e-02  3.31689e-01        00000 
-1.85560e-02  3.30835e-01        00000 
-1.32435e-02  3.33122e-01        00000 
-4.84805e-03  3.33563e-01        00000 
-1.01920e-03  3.32959e-01        00000 
-1.16054e-01  3.97547e-01        00000 
-1.07705e-01  3.96474e-01        00000 
-9.86948e-02  3.94514e-01        00000 
-8.89393e-02  3.91895e-01        00000 
-7.87388e-02  3.93646e-01        00000 
-6.92640e-02  3.93733e-01        00000 
-6.14067e-02  3.93095e-01        00000 
-5.47526e-02  3.93915e-01        00000 
-4.75906e-02  3.95544e-01        00000 
-4.05589e-02  3.95735e-01        00000 
-3.32570e-02  3.96776e-01        00000 
-2.62889e-02  4.01916e-01        00000 
-1.80760e-02  4.03842e-01        00000 
-1.32752e-02  4.11352e-01        00000 
-7.67366e-03  4.14591e-01        00000 
-2.13052e-04  4.16162e-01        00000 
-1.18940e-01  4.28151e-01        00000 
-1.11806e-01  4.30786e-01        00000 
-1.03560e-01  4.30590e-01        00000 
-9.42871e-02  4.30054e-01        00000 
-8.39132e-02  4.35456e-01        00000 
-7.41330e-02  4.40895e-01        00000 
-6.56060e-02  4.41522e-01        00000 
-5.90926e-02  4.44549e-01        00000 
-5.33540e-02  4.51167e-01        00000 
-4.66662e-02  4.57000e-01        00000 
-3.82592e-02  4.62426e-01        00000 
-3.04107e-02  4.65720e-01        00000 
-2.19647e-02  4.74249e-01        00000 
-1.65752e-02  4.85303e-01        00000 
-8.56282e-03  4.91267e-01        00000 
 6.21301e-04  4.98644e-01        00000 
-1.22365e-01  4.56720e-01        00000 