<?xml version="1.0" encoding="utf-8"?>
<VTKFile byte_order="LittleEndian" type="UnstructuredGrid" version="0.1">
   <UnstructuredGrid>
      <Piece NumberOfCells="1408" NumberOfPoints="804">
         <Points>
            <DataArray Name="Points" NumberOfComponents="3" format="ascii" type="Float32">
-1.0000 -0.8947 0.0000
-1.0000 -0.7895 0.0000
-1.0000 -0.6842 0.0000
-1.0000 -0.5789 0.0000
-1.0000 -0.4737 0.0000
-1.0000 -0.3684 0.0000
-1.0000 -0.2632 0.0000
-1.0000 -0.1579 0.0000
-1.0000 -0.0526 0.0000
-1.0000 0.0526 0.0000
-1.0000 0.1579 0.0000
-1.0000 0.2632 0.0000
-1.0000 0.3684 0.0000
-1.0000 0.4737 0.0000
-1.0000 0.5789 0.0000
-1.0000 0.6842 0.0000
-1.0000 0.7895 0.0000
-1.0000 0.8947 0.0000
-1.0000 1.0000 0.0000
-0.8947 -0.8947 0.0000
-0.8947 -0.7895 0.0000
-0.8947 -0.6842 0.0000
-0.8947 -0.5789 0.0000
-0.8947 -0.4737 0.0000
-0.8947 -0.3684 0.0000
-0.8947 -0.2632 0.0000
-0.8947 -0.1579 0.0000
-0.8947 -0.0526 0.0000
-0.8947 0.0526 0.0000
-0.8947 0.1579 0.0000
-0.8947 0.2632 0.0000
-0.8947 0.3684 0.0000
-0.8947 0.4737 0.0000
-0.8947 0.5789 0.0000
-0.8947 0.6842 0.0000
-0.8947 0.7895 0.0000
-0.8947 0.8947 0.0000
-0.8947 1.0000 0.0000
-0.7895 -0.8947 0.0000
-0.7895 -0.7895 0.0000
-0.7895 -0.6842 0.0000
-0.7895 -0.5789 0.0000
-0.7895 -0.4737 0.0000
-0.7895 -0.3684 0.0000
-0.7895 -0.2632 0.0000
-0.7895 -0.1579 0.0000
-0.7895 -0.0526 0.0000
-0.7895 0.0526 0.0000
-0.7895 0.1579 0.0000
-0.7895 0.2632 0.0000
-0.7895 0.3684 0.0000
-0.7895 0.4737 0.0000
-0.7895 0.5789 0.0000
-0.7895 0.6842 0.0000
-0.7895 0.7895 0.0000
-0.7895 0.8947 0.0000
-0.7895 1.0000 0.0000
-0.6842 -0.8947 0.0000
-0.6842 -0.7895 0.0000
-0.6842 -0.6842 0.0000
-0.6842 -0.5789 0.0000
-0.6842 -0.4737 0.0000
-0.6842 -0.3684 0.0000
-0.6842 -0.2632 0.0000
-0.6842 -0.1579 0.0000
-0.6842 -0.0526 0.0000
-0.6842 0.0526 0.0000
-0.6842 0.1579 0.0000
-0.6842 0.2632 0.0000
-0.6842 0.3684 0.0000
-0.6842 0.4737 0.0000
-0.6842 0.5789 0.0000
-0.6842 0.6842 0.0000
-0.6842 0.7895 0.0000
-0.6842 0.8947 0.0000
-0.6842 1.0000 0.0000
-0.5789 -0.8947 0.0000
-0.5789 -0.7895 0.0000
-0.5789 -0.6842 0.0000
-0.5789 -0.5789 0.0000
-0.5789 -0.4737 0.0000
-0.5789 -0.3684 0.0000
-0.5789 -0.2632 0.0000
-0.5789 -0.1579 0.0000
-0.5789 -0.0526 0.0000
-0.5789 0.0526 0.0000
-0.5789 0.1579 0.0000
-0.5789 0.2632 0.0000
-0.5789 0.3684 0.0000
-0.5789 0.4737 0.0000
-0.5789 0.5789 0.0000
-0.5789 0.6842 0.0000
-0.5789 0.7895 0.0000
-0.5789 0.8947 0.0000
-0.5789 1.0000 0.0000
-0.4737 -0.8947 0.0000
-0.4737 -0.7895 0.0000
-0.4737 -0.6842 0.0000
-0.4737 -0.5789 0.0000
-0.4737 -0.4737 0.0000
-0.4737 -0.3684 0.0000
-0.4737 -0.2632 0.0000
-0.4737 -0.1579 0.0000
-0.4737 -0.0526 0.0000
-0.4737 0.0526 0.0000
-0.4737 0.1579 0.0000
-0.4737 0.2632 0.0000
-0.4737 0.3684 0.0000
-0.4737 0.4737 0.0000
-0.4737 0.5789 0.0000
-0.4737 0.6842 0.0000
-0.4737 0.7895 0.0000
-0.4737 0.8947 0.0000
-0.4737 1.0000 0.0000
-0.3684 -0.8947 0.0000
-0.3684 -0.7895 0.0000
-0.3684 -0.6842 0.0000
-0.3684 -0.5789 0.0000
-0.3684 -0.4737 0.0000
-0.3684 -0.3684 0.0000
-0.3684 -0.2632 0.0000
-0.3684 -0.1579 0.0000
-0.3684 -0.0526 0.0000
-0.3684 0.0526 0.0000
-0.3684 0.1579 0.0000
-0.3684 0.2632 0.0000
-0.3684 0.3684 0.0000
-0.3684 0.4737 0.0000
-0.3684 0.5789 0.0000
-0.3684 0.6842 0.0000
-0.3684 0.7895 0.0000
-0.3684 0.8947 0.0000
-0.3684 1.0000 0.0000
-0.2632 -0.8947 0.0000
-0.2632 -0.7895 0.0000
-0.2632 -0.6842 0.0000
-0.2632 -0.5789 0.0000
-0.2632 -0.4737 0.0000
-0.2632 -0.3684 0.0000
-0.2632 -0.2632 0.0000
-0.2632 0.3684 0.0000
-0.2632 0.4737 0.0000
-0.2632 0.5789 0.0000
-0.2632 0.6842 0.0000
-0.2632 0.7895 0.0000
-0.2632 0.8947 0.0000
-0.2632 1.0000 0.0000
-0.1579 -0.8947 0.0000
-0.1579 -0.7895 0.0000
-0.1579 -0.6842 0.0000
-0.1579 -0.5789 0.0000
-0.1579 -0.4737 0.0000
-0.1579 -0.3684 0.0000
-0.1579 -0.2632 0.0000
-0.1579 0.3684 0.0000
-0.1579 0.4737 0.0000
-0.1579 0.5789 0.0000
-0.1579 0.6842 0.0000
-0.1579 0.7895 0.0000
-0.1579 0.8947 0.0000
-0.1579 1.0000 0.0000
-0.0526 -0.8947 0.0000
-0.0526 -0.7895 0.0000
-0.0526 -0.6842 0.0000
-0.0526 -0.5789 0.0000
-0.0526 -0.4737 0.0000
-0.0526 -0.3684 0.0000
-0.0526 0.4737 0.0000
-0.0526 0.5789 0.0000
-0.0526 0.6842 0.0000
-0.0526 0.7895 0.0000
-0.0526 0.8947 0.0000
-0.0526 1.0000 0.0000
0.0526 -0.8947 0.0000
0.0526 -0.7895 0.0000
0.0526 -0.6842 0.0000
0.0526 -0.5789 0.0000
0.0526 -0.4737 0.0000
0.0526 -0.3684 0.0000
0.0526 0.4737 0.0000
0.0526 0.5789 0.0000
0.0526 0.6842 0.0000
0.0526 0.7895 0.0000
0.0526 0.8947 0.0000
0.0526 1.0000 0.0000
0.1579 -0.8947 0.0000
0.1579 -0.7895 0.0000
0.1579 -0.6842 0.0000
0.1579 -0.5789 0.0000
0.1579 -0.4737 0.0000
0.1579 -0.3684 0.0000
0.1579 -0.2632 0.0000
0.1579 0.3684 0.0000
0.1579 0.4737 0.0000
0.1579 0.5789 0.0000
0.1579 0.6842 0.0000
0.1579 0.7895 0.0000
0.1579 0.8947 0.0000
0.1579 1.0000 0.0000
0.2632 -0.8947 0.0000
0.2632 -0.7895 0.0000
0.2632 -0.6842 0.0000
0.2632 -0.5789 0.0000
0.2632 -0.4737 0.0000
0.2632 -0.3684 0.0000
0.2632 -0.2632 0.0000
0.2632 -0.1579 0.0000
0.2632 0.2632 0.0000
0.2632 0.3684 0.0000
0.2632 0.4737 0.0000
0.2632 0.5789 0.0000
0.2632 0.6842 0.0000
0.2632 0.7895 0.0000
0.2632 0.8947 0.0000
0.2632 1.0000 0.0000
0.3684 -0.8947 0.0000
0.3684 -0.7895 0.0000
0.3684 -0.6842 0.0000
0.3684 -0.5789 0.0000
0.3684 -0.4737 0.0000
0.3684 -0.3684 0.0000
0.3684 -0.2632 0.0000
0.3684 -0.1579 0.0000
0.3684 -0.0526 0.0000
0.3684 0.0526 0.0000
0.3684 0.1579 0.0000
0.3684 0.2632 0.0000
0.3684 0.3684 0.0000
0.3684 0.4737 0.0000
0.3684 0.5789 0.0000
0.3684 0.6842 0.0000
0.3684 0.7895 0.0000
0.3684 0.8947 0.0000
0.3684 1.0000 0.0000
0.4737 -0.8947 0.0000
0.4737 -0.7895 0.0000
0.4737 -0.6842 0.0000
0.4737 -0.5789 0.0000
0.4737 -0.4737 0.0000
0.4737 -0.3684 0.0000
0.4737 -0.2632 0.0000
0.4737 -0.1579 0.0000
0.4737 -0.0526 0.0000
0.4737 0.0526 0.0000
0.4737 0.1579 0.0000
0.4737 0.2632 0.0000
0.4737 0.3684 0.0000
0.4737 0.4737 0.0000
0.4737 0.5789 0.0000
0.4737 0.6842 0.0000
0.4737 0.7895 0.0000
0.4737 0.8947 0.0000
0.4737 1.0000 0.0000
0.5789 -0.8947 0.0000
0.5789 -0.7895 0.0000
0.5789 -0.6842 0.0000
0.5789 -0.5789 0.0000
0.5789 -0.4737 0.0000
0.5789 -0.3684 0.0000
0.5789 -0.2632 0.0000
0.5789 -0.1579 0.0000
0.5789 -0.0526 0.0000
0.5789 0.0526 0.0000
0.5789 0.1579 0.0000
0.5789 0.2632 0.0000
0.5789 0.3684 0.0000
0.5789 0.4737 0.0000
0.5789 0.5789 0.0000
0.5789 0.6842 0.0000
0.5789 0.7895 0.0000
0.5789 0.8947 0.0000
0.5789 1.0000 0.0000
0.6842 -0.8947 0.0000
0.6842 -0.7895 0.0000
0.6842 -0.6842 0.0000
0.6842 -0.5789 0.0000
0.6842 -0.4737 0.0000
0.6842 -0.3684 0.0000
0.6842 -0.2632 0.0000
0.6842 -0.1579 0.0000
0.6842 -0.0526 0.0000
0.6842 0.0526 0.0000
0.6842 0.1579 0.0000
0.6842 0.2632 0.0000
0.6842 0.3684 0.0000
0.6842 0.4737 0.0000
0.6842 0.5789 0.0000
0.6842 0.6842 0.0000
0.6842 0.7895 0.0000
0.6842 0.8947 0.0000
0.6842 1.0000 0.0000
0.7895 -0.8947 0.0000
0.7895 -0.7895 0.0000
0.7895 -0.6842 0.0000
0.7895 -0.5789 0.0000
0.7895 -0.4737 0.0000
0.7895 -0.3684 0.0000
0.7895 -0.2632 0.0000
0.7895 -0.1579 0.0000
0.7895 -0.0526 0.0000
0.7895 0.0526 0.0000
0.7895 0.1579 0.0000
0.7895 0.2632 0.0000
0.7895 0.3684 0.0000
0.7895 0.4737 0.0000
0.7895 0.5789 0.0000
0.7895 0.6842 0.0000
0.7895 0.7895 0.0000
0.7895 0.8947 0.0000
0.7895 1.0000 0.0000
0.8947 -0.8947 0.0000
0.8947 -0.7895 0.0000
0.8947 -0.6842 0.0000
0.8947 -0.5789 0.0000
0.8947 -0.4737 0.0000
0.8947 -0.3684 0.0000
0.8947 -0.2632 0.0000
0.8947 -0.1579 0.0000
0.8947 -0.0526 0.0000
0.8947 0.0526 0.0000
0.8947 0.1579 0.0000
0.8947 0.2632 0.0000
0.8947 0.3684 0.0000
0.8947 0.4737 0.0000
0.8947 0.5789 0.0000
0.8947 0.6842 0.0000
0.8947 0.7895 0.0000
0.8947 0.8947 0.0000
0.8947 1.0000 0.0000
-0.2632 -0.1579 0.0000
-0.2632 0.1579 0.0000
-0.2632 0.2632 0.0000
-0.0526 0.3684 0.0000
0.0526 0.3684 0.0000
1.0000 -0.8947 0.0000
1.0000 -0.7895 0.0000
1.0000 -0.6842 0.0000
1.0000 -0.5789 0.0000
1.0000 -0.4737 0.0000
1.0000 -0.3684 0.0000
1.0000 -0.2632 0.0000
1.0000 -0.1579 0.0000
1.0000 -0.0526 0.0000
1.0000 0.0526 0.0000
1.0000 0.1579 0.0000
1.0000 0.2632 0.0000
1.0000 0.3684 0.0000
1.0000 0.4737 0.0000
1.0000 0.5789 0.0000
1.0000 0.6842 0.0000
1.0000 0.7895 0.0000
1.0000 0.8947 0.0000
1.0000 1.0000 0.0000
-0.8947 -1.0000 0.0000
-0.7895 -1.0000 0.0000
-0.6842 -1.0000 0.0000
-0.5789 -1.0000 0.0000
-0.4737 -1.0000 0.0000
-0.3684 -1.0000 0.0000
-0.2632 -1.0000 0.0000
-0.1579 -1.0000 0.0000
-0.1579 0.2632 0.0000
-0.0526 -1.0000 0.0000
0.0526 -1.0000 0.0000
0.1579 -1.0000 0.0000
0.1579 0.2632 0.0000
0.2632 -1.0000 0.0000
0.3684 -1.0000 0.0000
0.4737 -1.0000 0.0000
0.5789 -1.0000 0.0000
0.6842 -1.0000 0.0000
0.7895 -1.0000 0.0000
0.8947 -1.0000 0.0000
1.0000 -1.0000 0.0000
-1.0000 -1.0000 0.0000
0.2632 0.1579 0.0000
-0.9474 -0.9474 0.0000
-0.9474 -0.8421 0.0000
-0.9474 -0.7368 0.0000
-0.9474 -0.6316 0.0000
-0.9474 -0.5263 0.0000
-0.9474 -0.4211 0.0000
-0.9474 -0.3158 0.0000
-0.9474 -0.2105 0.0000
-0.9474 -0.1053 0.0000
-0.9474 0.0000 0.0000
-0.9474 0.1053 0.0000
-0.9474 0.2105 0.0000
-0.9474 0.3158 0.0000
-0.9474 0.4211 0.0000
-0.9474 0.5263 0.0000
-0.9474 0.6316 0.0000
-0.9474 0.7368 0.0000
-0.9474 0.8421 0.0000
-0.9474 0.9474 0.0000
-0.8421 -0.9474 0.0000
-0.8421 -0.8421 0.0000
-0.8421 -0.7368 0.0000
-0.8421 -0.6316 0.0000
-0.8421 -0.5263 0.0000
-0.8421 -0.4211 0.0000
-0.8421 -0.3158 0.0000
-0.8421 -0.2105 0.0000
-0.8421 -0.1053 0.0000
-0.8421 0.0000 0.0000
-0.8421 0.1053 0.0000
-0.8421 0.2105 0.0000
-0.8421 0.3158 0.0000
-0.8421 0.4211 0.0000
-0.8421 0.5263 0.0000
-0.8421 0.6316 0.0000
-0.8421 0.7368 0.0000
-0.8421 0.8421 0.0000
-0.8421 0.9474 0.0000
-0.7368 -0.9474 0.0000
-0.7368 -0.8421 0.0000
-0.7368 -0.7368 0.0000
-0.7368 -0.6316 0.0000
-0.7368 -0.5263 0.0000
-0.7368 -0.4211 0.0000
-0.7368 -0.3158 0.0000
-0.7368 -0.2105 0.0000
-0.7368 -0.1053 0.0000
-0.7368 0.0000 0.0000
-0.7368 0.1053 0.0000
-0.7368 0.2105 0.0000
-0.7368 0.3158 0.0000
-0.7368 0.4211 0.0000
-0.7368 0.5263 0.0000
-0.7368 0.6316 0.0000
-0.7368 0.7368 0.0000
-0.7368 0.8421 0.0000
-0.7368 0.9474 0.0000
-0.6316 -0.9474 0.0000
-0.6316 -0.8421 0.0000
-0.6316 -0.7368 0.0000
-0.6316 -0.6316 0.0000
-0.6316 -0.5263 0.0000
-0.6316 -0.4211 0.0000
[...]
         <PointData>
            <DataArray Name="fValues" NumberOfComponents="3" format="ascii" type="Float64">
 3.55805e-01  7.06224e-02        00000 
 3.50628e-01  7.14837e-02        00000 
 3.45220e-01  7.23011e-02        00000 
 3.39505e-01  7.30801e-02        00000 
 3.33393e-01  7.36267e-02        00000 
 3.26793e-01  7.38533e-02        00000 
 3.19660e-01  7.37126e-02        00000 
 3.12030e-01  7.32101e-02        00000 
 3.04045e-01  7.24139e-02        00000 
 2.95929e-01  7.14473e-02        00000 
 2.87944e-01  7.04580e-02        00000 
 2.80315e-01  6.95773e-02        00000 
 2.73182e-01  6.88871e-02        00000 
 2.66583e-01  6.84076e-02        00000 
 2.60471e-01  6.81049e-02        00000 
 2.54756e-01  6.79056e-02        00000 
 2.49347e-01  6.76590e-02        00000 
 2.44169e-01  6.73493e-02        00000 
 2.31441e-01  6.65869e-02        00000 
 3.47209e-01  7.01128e-02        00000 
 3.44092e-01  7.24110e-02        00000 
 3.39198e-01  7.37658e-02        00000 
 3.33971e-01  7.46942e-02        00000 
 3.28392e-01  7.52743e-02        00000 
 3.22371e-01  7.54599e-02        00000 
 3.15810e-01  7.52251e-02        00000 
 3.08663e-01  7.46075e-02        00000 
 3.00990e-01  7.37202e-02        00000 
 2.92975e-01  7.27261e-02        00000 
 2.84896e-01  7.17863e-02        00000 
 2.77045e-01  7.10122e-02        00000 
 2.69640e-01  7.04456e-02        00000 
 2.62784e-01  7.00703e-02        00000 
 2.56466e-01  6.98396e-02        00000 
 2.50592e-01  6.97052e-02        00000 
 2.44999e-01  6.96961e-02        00000 
 2.38697e-01  7.00982e-02        00000 
 2.31490e-01  6.96474e-02        00000 
 3.41133e-01  7.22852e-02        00000 
 3.37353e-01  7.36314e-02        00000 
 3.33141e-01  7.51197e-02        00000 
 3.28475e-01  7.62211e-02        00000 
 3.23517e-01  7.69079e-02        00000 
 3.18162e-01  7.71227e-02        00000 
 3.12234e-01  7.68313e-02        00000 
 3.05568e-01  7.60885e-02        00000 
 2.98120e-01  7.50607e-02        00000 
 2.90052e-01  7.39797e-02        00000 
 2.81718e-01  7.30508e-02        00000 
 2.73531e-01  7.23777e-02        00000 
 2.65817e-01  7.19557e-02        00000 
 2.58729e-01  7.17200e-02        00000 
 2.52256e-01  7.16034e-02        00000 
 2.46263e-01  7.15781e-02        00000 
 2.40456e-01  7.16726e-02        00000 
 2.34547e-01  7.16792e-02        00000 
 2.28913e-01  7.13058e-02        00000 
 3.35193e-01  7.39357e-02        00000 
 3.31116e-01  7.51792e-02        00000 
 3.27096e-01  7.65127e-02        00000 
 3.22971e-01  7.77130e-02        00000 
 3.18692e-01  7.85567e-02        00000 
 3.14123e-01  7.88907e-02        00000 
 3.08966e-01  7.86095e-02        00000 
 3.02860e-01  7.77440e-02        00000 
 2.95582e-01  7.65181e-02        00000 
 2.87273e-01  7.52790e-02        00000 
 2.78447e-01  7.43205e-02        00000 
 2.69754e-01  7.37429e-02        00000 
 2.61672e-01  7.34704e-02        00000 
 2.54384e-01  7.33645e-02        00000 
 2.47830e-01  7.33227e-02        00000 
 2.41812e-01  7.33041e-02        00000 
 2.36104e-01  7.32670e-02        00000 
 2.30601e-01  7.31286e-02        00000 
 2.25430e-01  7.28491e-02        00000 
 3.29109e-01  7.52124e-02        00000 
 3.24971e-01  7.64137e-02        00000 
 3.21090e-01  7.77427e-02        00000 
 3.17387e-01  7.90582e-02        00000 
 3.13805e-01  8.01492e-02        00000 
 3.10165e-01  8.07568e-02        00000 
 3.06022e-01  8.06366e-02        00000 
 3.00690e-01  7.97112e-02        00000 
 2.93584e-01  7.82404e-02        00000 
 2.84770e-01  7.67592e-02        00000 
 2.75096e-01  7.57190e-02        00000 
 2.65661e-01  7.52199e-02        00000 
 2.57160e-01  7.50646e-02        00000 
 2.49745e-01  7.50214e-02        00000 
 2.43229e-01  7.49558e-02        00000 
 2.37331e-01  7.48296e-02        00000 
 2.31822e-01  7.46422e-02        00000 
 2.26592e-01  7.43959e-02        00000 
 2.21653e-01  7.41169e-02        00000 
 3.22921e-01  7.60152e-02        00000 
 3.18776e-01  7.71590e-02        00000 
 3.14987e-01  7.85079e-02        00000 
 3.11600e-01  7.99966e-02        00000 
 3.08669e-01  8.14519e-02        00000 
 3.06091e-01  8.25626e-02        00000 
 3.03329e-01  8.29149e-02        00000 
 2.99223e-01  8.21881e-02        00000 
 2.92427e-01  8.05474e-02        00000 
 2.82725e-01  7.87418e-02        00000 
 2.71649e-01  7.75311e-02        00000 
 2.61174e-01  7.69885e-02        00000 
 2.52244e-01  7.68162e-02        00000 
 2.44837e-01  7.66851e-02        00000 
 2.38515e-01  7.64515e-02        00000 
 2.32849e-01  7.61170e-02        00000 
 2.27565e-01  7.57330e-02        00000 
 2.22538e-01  7.53501e-02        00000 
 2.17743e-01  7.50185e-02        00000 
 3.16696e-01  7.62537e-02        00000 
 3.12513e-01  7.72631e-02        00000 
 3.08718e-01  7.85650e-02        00000 
 3.05482e-01  8.01792e-02        00000 
 3.03050e-01  8.20279e-02        00000 
 3.01573e-01  8.38369e-02        00000 
 3.00610e-01  8.50734e-02        00000 
 2.98464e-01  8.52346e-02        00000 
 2.92377e-01  8.42235e-02        00000 
 2.81465e-01  8.23576e-02        00000 
 2.68201e-01  8.03231e-02        00000 
 2.56237e-01  7.92043e-02        00000 
 2.46914e-01  7.86696e-02        00000 
 2.39728e-01  7.82185e-02        00000 
 2.33769e-01  7.76570e-02        00000 
 2.28412e-01  7.70248e-02        00000 
 2.23354e-01  7.64066e-02        00000 
 2.18482e-01  7.58641e-02        00000 
 2.13775e-01  7.54427e-02        00000 
 3.10509e-01  7.58760e-02        00000 
 3.06238e-01  7.66512e-02        00000 
 3.02323e-01  7.77495e-02        00000 
 2.99010e-01  7.92701e-02        00000 
 2.96773e-01  8.13006e-02        00000 
 2.96245e-01  8.36772e-02        00000 
 2.97549e-01  8.58157e-02        00000 
 2.41124e-01  8.01044e-02        00000 
 2.34490e-01  7.92076e-02        00000 
 2.29068e-01  7.82549e-02        00000 
 2.24059e-01  7.73277e-02        00000 
 2.19206e-01  7.65083e-02        00000 
 2.14450e-01  7.58288e-02        00000 
 2.09793e-01  7.53106e-02        00000 
 3.04419e-01  7.49225e-02        00000 
 3.00043e-01  7.53859e-02        00000 
 2.95941e-01  7.60969e-02        00000 
 2.92359e-01  7.71741e-02        00000 
 2.89853e-01  7.88240e-02        00000 
 2.89851e-01  8.12227e-02        00000 
 2.94203e-01  8.31002e-02        00000 
 2.34512e-01  7.98968e-02        00000 
 2.29139e-01  7.89421e-02        00000 
 2.24424e-01  7.78155e-02        00000 
 2.19764e-01  7.67951e-02        00000 
 2.15100e-01  7.59228e-02        00000 
 2.10443e-01  7.51950e-02        00000 
 2.05824e-01  7.46105e-02        00000 
 2.98453e-01  7.35469e-02        00000 
 2.94010e-01  7.36993e-02        00000 
 2.89739e-01  7.39323e-02        00000 
 2.85823e-01  7.43041e-02        00000 
 2.82715e-01  7.49799e-02        00000 
 2.81768e-01  7.64327e-02        00000 
 2.23612e-01  7.67703e-02        00000 
 2.19698e-01  7.60776e-02        00000 
 2.15419e-01  7.53490e-02        00000 
 2.10963e-01  7.46577e-02        00000 
 2.06428e-01  7.40152e-02        00000 
 2.01873e-01  7.34261e-02        00000 
 2.92585e-01  7.19882e-02        00000 
 2.88145e-01  7.19371e-02        00000 
 2.83785e-01  7.17916e-02        00000 
 2.79604e-01  7.15393e-02        00000 
 2.75780e-01  7.12288e-02        00000 
 2.72771e-01  7.13046e-02        00000 
 2.17727e-01  7.30243e-02        00000 
 2.14708e-01  7.33155e-02        00000 
 2.10888e-01  7.32104e-02        00000 
 2.06713e-01  7.28977e-02        00000 
 2.02363e-01  7.24592e-02        00000 
 1.97930e-01  7.19349e-02        00000 
 2.86745e-01  7.05008e-02        00000 
 2.82374e-01  7.04281e-02        00000 
 2.77995e-01  7.01627e-02        00000 
 2.73621e-01  6.96907e-02        00000 
 2.69172e-01  6.90515e-02        00000 
 2.63937e-01  6.85399e-02        00000 
 2.54638e-01  6.80348e-02        00000 
 2.11545e-01  6.72239e-02        00000 
 2.11671e-01  6.91774e-02        00000 
 2.09429e-01  7.03382e-02        00000 
 2.06131e-01  7.08666e-02        00000 
 2.02313e-01  7.09713e-02        00000 
 1.98221e-01  7.07811e-02        00000 
 1.93979e-01  7.03688e-02        00000 
 2.80853e-01  6.92807e-02        00000 
 2.76578e-01  6.93644e-02        00000 
 2.72201e-01  6.92513e-02        00000 
 2.67661e-01  6.89755e-02        00000 
 2.62678e-01  6.86261e-02        00000 
 2.56386e-01  6.82835e-02        00000 
 2.46923e-01  6.74916e-02        00000 
 2.32383e-01  6.44067e-02        00000 
 2.04579e-01  6.30278e-02        00000 
 2.06079e-01  6.47112e-02        00000 
 2.05894e-01  6.65390e-02        00000 
 2.04094e-01  6.79673e-02        00000 
 2.01249e-01  6.88373e-02        00000 
 1.97808e-01  6.92308e-02        00000 
 1.94015e-01  6.92449e-02        00000 
 1.90009e-01  6.89529e-02        00000 
 2.74859e-01  6.84260e-02        00000 
 2.70670e-01  6.87728e-02        00000 
 2.66280e-01  6.89714e-02        00000 
 2.61585e-01  6.90880e-02        00000 
 2.56269e-01  6.92037e-02        00000 
 2.49688e-01  6.93378e-02        00000 
 2.40959e-01  6.92465e-02        00000 
 2.29753e-01  6.83787e-02        00000 
 2.17697e-01  6.64318e-02        00000 
 2.08290e-01  6.45626e-02        00000 
 2.03413e-01  6.34718e-02        00000 
 2.02023e-01  6.33783e-02        00000 
 2.01656e-01  6.41725e-02        00000 
 2.00786e-01  6.53987e-02        00000 
 1.98997e-01  6.65727e-02        00000 
 1.96421e-01  6.74399e-02        00000 
 1.93291e-01  6.79270e-02        00000 
 1.89789e-01  6.80495e-02        00000 
 1.86026e-01  6.78503e-02        00000 
 2.68764e-01  6.79433e-02        00000 
 2.64626e-01  6.85709e-02        00000 
 2.60209e-01  6.91089e-02        00000 
 2.55415e-01  6.96065e-02        00000 
 2.49975e-01  7.00993e-02        00000 
 2.43470e-01  7.05607e-02        00000 
 2.35501e-01  7.08076e-02        00000 
 2.26147e-01  7.04884e-02        00000 
 2.16440e-01  6.93478e-02        00000 
 2.08237e-01  6.75432e-02        00000 
 2.02811e-01  6.58325e-02        00000 
 1.99827e-01  6.48839e-02        00000 
 1.98026e-01  6.48175e-02        00000 
 1.96349e-01  6.53374e-02        00000 
 1.94301e-01  6.60681e-02        00000 
 1.91785e-01  6.67268e-02        00000 
 1.88861e-01  6.71557e-02        00000 
 1.85602e-01  6.72915e-02        00000 
 1.82058e-01  6.71376e-02        00000 
 2.62616e-01  6.77780e-02        00000 
 2.58469e-01  6.86452e-02        00000 
 2.54027e-01  6.94770e-02        00000 
 2.49229e-01  7.02587e-02        00000 
 2.43860e-01  7.09654e-02        00000 
 2.37651e-01  7.15344e-02        00000 
 2.30446e-01  7.18117e-02        00000 
 2.22436e-01  7.15661e-02        00000 
 2.14330e-01  7.06334e-02        00000 
 2.07146e-01  6.91527e-02        00000 
 2.01607e-01  6.75754e-02        00000 
 1.97701e-01  6.63974e-02        00000 
 1.94854e-01  6.58459e-02        00000 
 1.92420e-01  6.58426e-02        00000 
 1.89985e-01  6.61628e-02        00000 
 1.87380e-01  6.65722e-02        00000 
 1.84565e-01  6.68837e-02        00000 
 1.81508e-01  6.69734e-02        00000 
 1.78149e-01  6.68129e-02        00000 
 2.56486e-01  6.78439e-02        00000 
 2.52221e-01  6.89074e-02        00000 
 2.47775e-01  6.99838e-02        00000 
 2.43100e-01  7.09466e-02        00000 
 2.37974e-01  7.17209e-02        00000 
 2.32196e-01  7.22575e-02        00000 
 2.25720e-01  7.24493e-02        00000 
 2.18740e-01  7.21636e-02        00000 
 2.11720e-01  7.13426e-02        00000 
 2.05254e-01  7.01040e-02        00000 
 1.99782e-01  6.87417e-02        00000 
 1.95389e-01  6.75853e-02        00000 
 1.91839e-01  6.68409e-02        00000 
 1.88779e-01  6.65335e-02        00000 
 1.85927e-01  6.65623e-02        00000 
 1.83145e-01  6.67823e-02        00000 
 1.80385e-01  6.70037e-02        00000 
 1.77544e-01  6.70466e-02        00000 
 1.74372e-01  6.68218e-02        00000 
 2.50420e-01  6.80381e-02        00000 
 2.45811e-01  6.93363e-02        00000 
 2.41464e-01  7.06615e-02        00000 
 2.37093e-01  7.16631e-02        00000 
 2.32335e-01  7.23914e-02        00000 
 2.27056e-01  7.28263e-02        00000 
 2.21250e-01  7.29012e-02        00000 
 2.15067e-01  7.25533e-02        00000 
 2.08809e-01  7.17842e-02        00000 
 2.02847e-01  7.07039e-02        00000 
 1.97476e-01  6.95172e-02        00000 
 1.92814e-01  6.84502e-02        00000 
 1.88794e-01  6.76628e-02        00000 
 1.85248e-01  6.72078e-02        00000 
 1.82005e-01  6.70505e-02        00000 
 1.78960e-01  6.71256e-02        00000 
 1.76207e-01  6.73838e-02        00000 
 1.73724e-01  6.74390e-02        00000 
 1.70890e-01  6.71041e-02        00000 
 2.44074e-01  6.82579e-02        00000 
 2.39009e-01  7.02845e-02        00000 
 2.35227e-01  7.15000e-02        00000 
 2.31261e-01  7.23795e-02        00000 
 2.26943e-01  7.29998e-02        00000 
 2.22186e-01  7.33151e-02        00000 
 2.16987e-01  7.32734e-02        00000 
 2.11440e-01  7.28524e-02        00000 
 2.05738e-01  7.20903e-02        00000 
 2.00126e-01  7.10967e-02        00000 
 1.94829e-01  7.00328e-02        00000 
 1.89987e-01  6.90629e-02        00000 
 1.85632e-01  6.83039e-02        00000 
 1.81711e-01  6.77995e-02        00000 
 1.78131e-01  6.75288e-02        00000 
 1.74813e-01  6.74435e-02        00000 
 1.71728e-01  6.75737e-02        00000 
 1.69847e-01  6.82472e-02        00000 
 1.68314e-01  6.75361e-02        00000 
 2.98214e-01  8.72408e-02        00000 
 2.65620e-01  8.47766e-02        00000 
 2.50775e-01  8.13551e-02        00000 
 2.26658e-01  7.69737e-02        00000 
 2.18635e-01  7.18649e-02        00000 
 2.35581e-01  7.05393e-02        00000 
 2.32455e-01  7.13994e-02        00000 
 2.29152e-01  7.22158e-02        00000 
 2.25612e-01  7.29940e-02        00000 
 2.21766e-01  7.35399e-02        00000 
 2.17545e-01  7.37661e-02        00000 
 2.12915e-01  7.36253e-02        00000 
 2.07903e-01  7.31229e-02        00000 
 2.02619e-01  7.23270e-02        00000 
 1.97234e-01  7.13609e-02        00000 
 1.91950e-01  7.03722e-02        00000 
 1.86940e-01  6.94923e-02        00000 
 1.82310e-01  6.88027e-02        00000 
 1.78089e-01  6.83236e-02        00000 
 1.74244e-01  6.80213e-02        00000 
 1.70704e-01  6.78223e-02        00000 
 1.67400e-01  6.75761e-02        00000 
 1.64274e-01  6.72670e-02        00000 
 1.68362e-01  6.90632e-02        00000 
 3.49769e-01  6.96804e-02        00000 
 3.45414e-01  7.13405e-02        00000 
 3.39729e-01  7.28854e-02        00000 
 3.33642e-01  7.41544e-02        00000 
 3.27416e-01  7.50568e-02        00000 
 3.21180e-01  7.54810e-02        00000 
 3.15013e-01  7.53477e-02        00000 
 3.08951e-01  7.46453e-02        00000 
 2.43521e-01  8.07036e-02        00000 
 3.02980e-01  7.34576e-02        00000 
 2.97045e-01  7.19628e-02        00000 
 2.91073e-01  7.03936e-02        00000 
 2.07457e-01  6.56376e-02        00000 
 2.85010e-01  6.89756e-02        00000 
 2.78842e-01  6.78722e-02        00000 
 2.72605e-01  6.71598e-02        00000 
 2.66377e-01  6.68362e-02        00000 
 2.60290e-01  6.68468e-02        00000 
 2.54604e-01  6.71310e-02        00000 
 2.50249e-01  6.75653e-02        00000 
 2.49798e-01  6.90933e-02        00000 
 3.50221e-01  6.66194e-02        00000 
 2.03611e-01  6.19304e-02        00000 
 3.50305e-01  6.82408e-02        00000 
 3.49613e-01  7.14149e-02        00000 
 3.44852e-01  7.25547e-02        00000 
 3.39492e-01  7.35214e-02        00000 
 3.33819e-01  7.42353e-02        00000 
 3.27732e-01  7.46260e-02        00000 
 3.21147e-01  7.46343e-02        00000 
 3.14027e-01  7.42491e-02        00000 
 3.06421e-01  7.35269e-02        00000 
 2.98481e-01  7.25895e-02        00000 
 2.90442e-01  7.15928e-02        00000 
 2.82563e-01  7.06806e-02        00000 
 2.75061e-01  6.99466e-02        00000 
 2.68060e-01  6.94206e-02        00000 
 2.61585e-01  6.90798e-02        00000 
 2.55579e-01  6.88689e-02        00000 
 2.49953e-01  6.87185e-02        00000 
 2.44392e-01  6.85600e-02        00000 
 2.36488e-01  6.91105e-02        00000 
 3.45946e-01  7.06396e-02        00000 
 3.42328e-01  7.20272e-02        00000 
 3.38463e-01  7.38172e-02        00000 
 3.33718e-01  7.50203e-02        00000 
 3.28602e-01  7.58520e-02        00000 
 3.23114e-01  7.62744e-02        00000 
 3.17137e-01  7.62389e-02        00000 
 3.10553e-01  7.57482e-02        00000 
 3.03318e-01  7.48974e-02        00000 
 2.95523e-01  7.38651e-02        00000 
 2.87412e-01  7.28537e-02        00000 
 2.79310e-01  7.20148e-02        00000 
 2.71526e-01  7.14092e-02        00000 
 2.64260e-01  7.10190e-02        00000 
 2.57573e-01  7.07888e-02        00000 
 2.51408e-01  7.06668e-02        00000 
 2.45591e-01  7.06362e-02        00000 
 2.39625e-01  7.08357e-02        00000 
 2.33421e-01  7.08793e-02        00000 
 3.40380e-01  7.25798e-02        00000 
 3.36186e-01  7.37209e-02        00000 
 3.32157e-01  7.51347e-02        00000 
 3.27933e-01  7.64593e-02        00000 
 3.23433e-01  7.74346e-02        00000 
 3.18638e-01  7.79677e-02        00000 
 3.13373e-01  7.79599e-02        00000 
 3.07392e-01  7.73883e-02        00000 
 3.00508e-01  7.63742e-02        00000 
 2.92737e-01  7.51791e-02        00000 
 2.84369e-01  7.40961e-02        00000 
 2.75874e-01  7.33097e-02        00000 
 2.67712e-01  7.28407e-02        00000 
 2.60167e-01  7.26026e-02        00000 
 2.53309e-01  7.24926e-02        00000 
 2.47041e-01  7.24489e-02        00000 
 2.41143e-01  7.24679e-02        00000 
 2.35409e-01  7.24876e-02        00000 
 2.29885e-01  7.22985e-02        00000 
 3.34419e-01  7.40473e-02        00000 
 3.30092e-01  7.51776e-02        00000 
 3.26068e-01  7.64795e-02        00000 
 3.22151e-01  7.78093e-02        00000 
 3.18245e-01  7.89565e-02        00000 
 3.14231e-01  7.97045e-02        00000 
 3.09839e-01  7.98502e-02        00000 
 3.04627e-01  7.92721e-02        00000 
 2.98148e-01  7.80748e-02        00000 
 2.90272e-01  7.66361e-02        00000 
 2.81386e-01  7.54135e-02        00000 
 2.72249e-01  7.46578e-02        00000 
 2.63576e-01  7.43221e-02        00000 
 2.55748e-01  7.42142e-02        00000 
 2.48794e-01  7.41709e-02        00000 
 2.42537e-01  7.41182e-02        00000 
 2.36749e-01  7.40355e-02        00000 
 2.31266e-01  7.38925e-02        00000 
 2.26069e-01  7.36518e-02        00000 
 3.28259e-01  7.51145e-02        00000 
 3.23937e-01  7.61992e-02        00000 
 3.19959e-01  7.74672e-02        00000 
 3.16288e-01  7.88659e-02        00000 
 3.12911e-01  8.02454e-02        00000 
 3.09746e-01  8.13629e-02        00000 
 3.06461e-01  8.18903e-02        00000 
 3.02341e-01  8.15160e-02        00000 
 2.96460e-01  8.02106e-02        00000 
 2.88336e-01  7.84612e-02        00000 
 2.78539e-01  7.70124e-02        00000 
 2.68389e-01  7.62346e-02        00000 
 2.59057e-01  7.59686e-02        00000 
 2.50986e-01  7.58980e-02        00000 
 2.44060e-01  7.58027e-02        00000 
 2.37955e-01  7.56174e-02        00000 
 2.32367e-01  7.53586e-02        00000 
 2.27112e-01  7.50557e-02        00000 
 2.22125e-01  7.47383e-02        00000 
 3.22030e-01  7.57031e-02        00000 
 3.17710e-01  7.66679e-02        00000 
 3.13743e-01  7.78730e-02        00000 
 3.10212e-01  7.93310e-02        00000 
 3.07249e-01  8.09762e-02        00000 
 3.04933e-01  8.26075e-02        00000 
 3.03011e-01  8.38219e-02        00000 
 3.00517e-01  8.40978e-02        00000 
 2.95702e-01  8.31369e-02        00000 
 2.87241e-01  8.13163e-02        00000 
 2.75907e-01  7.94649e-02        00000 
 2.64243e-01  7.83257e-02        00000 
 2.54097e-01  7.78706e-02        00000 
 2.45891e-01  7.76249e-02        00000 
 2.39171e-01  7.72983e-02        00000 
 2.33349e-01  7.68512e-02        00000 
 2.28016e-01  7.63486e-02        00000 
 2.22965e-01  7.58578e-02        00000 
 2.18123e-01  7.54299e-02        00000 
 3.15819e-01  7.57370e-02        00000 
 3.11460e-01  7.65000e-02        00000 
 3.07423e-01  7.75423e-02        00000 
 3.03871e-01  7.89314e-02        00000 
 3.01101e-01  8.07188e-02        00000 
 2.99481e-01  8.28293e-02        00000 
 2.99107e-01  8.48841e-02        00000 