<?xml version="1.0" encoding="utf-8"?>
<VTKFile byte_order="LittleEndian" type="UnstructuredGrid" version="0.1">
   <UnstructuredGrid>
      <Piece NumberOfCells="9064" NumberOfPoints="4760">
         <Points>
            <DataArray Name="Points" NumberOfComponents="3" format="ascii" type="Float32">
-1.0000 -0.9592 0.0000
-1.0000 -0.9184 0.0000
-1.0000 -0.8776 0.0000
-1.0000 -0.8367 0.0000
-1.0000 -0.7959 0.0000
-1.0000 -0.7551 0.0000
-1.0000 -0.7143 0.0000
-1.0000 -0.6735 0.0000
-1.0000 -0.6327 0.0000
-1.0000 -0.5918 0.0000
-1.0000 -0.5510 0.0000
-1.0000 -0.5102 0.0000
-1.0000 -0.4694 0.0000
-1.0000 -0.4286 0.0000
-1.0000 -0.3878 0.0000
-1.0000 -0.3469 0.0000
-1.0000 -0.3061 0.0000
-1.0000 -0.2653 0.0000
-1.0000 -0.2245 0.0000
-1.0000 -0.1837 0.0000
-1.0000 -0.1429 0.0000
-1.0000 -0.1020 0.0000
-1.0000 -0.0612 0.0000
-1.0000 -0.0204 0.0000
-1.0000 0.0204 0.0000
-1.0000 0.0612 0.0000
-1.0000 0.1020 0.0000
-1.0000 0.1429 0.0000
-1.0000 0.1837 0.0000
-1.0000 0.2245 0.0000
-1.0000 0.2653 0.0000
-1.0000 0.3061 0.0000
-1.0000 0.3469 0.0000
-1.0000 0.3878 0.0000
-1.0000 0.4286 0.0000
-1.0000 0.4694 0.0000
-1.0000 0.5102 0.0000
-1.0000 0.5510 0.0000
-1.0000 0.5918 0.0000
-1.0000 0.6327 0.0000
-1.0000 0.6735 0.0000
-1.0000 0.7143 0.0000
-1.0000 0.7551 0.0000
-1.0000 0.7959 0.0000
-1.0000 0.8367 0.0000
-1.0000 0.8776 0.0000
-1.0000 0.9184 0.0000
-1.0000 0.9592 0.0000
-1.0000 1.0000 0.0000
-0.9592 -0.9592 0.0000
-0.9592 -0.9184 0.0000
-0.9592 -0.8776 0.0000
-0.9592 -0.8367 0.0000
-0.9592 -0.7959 0.0000
-0.9592 -0.7551 0.0000
-0.9592 -0.7143 0.0000
-0.9592 -0.6735 0.0000
-0.9592 -0.6327 0.0000
-0.9592 -0.5918 0.0000
-0.9592 -0.5510 0.0000
-0.9592 -0.5102 0.0000
-0.9592 -0.4694 0.0000
-0.9592 -0.4286 0.0000
-0.9592 -0.3878 0.0000
-0.9592 -0.3469 0.0000
-0.9592 -0.3061 0.0000
-0.9592 -0.2653 0.0000
-0.9592 -0.2245 0.0000
-0.9592 -0.1837 0.0000
-0.9592 -0.1429 0.0000
-0.9592 -0.1020 0.0000
-0.9592 -0.0612 0.0000
-0.9592 -0.0204 0.0000
-0.9592 0.0204 0.0000
-0.9592 0.0612 0.0000
-0.9592 0.1020 0.0000
-0.9592 0.1429 0.0000
-0.9592 0.1837 0.0000
-0.9592 0.2245 0.0000
-0.9592 0.2653 0.0000
-0.9592 0.3061 0.0000
-0.9592 0.3469 0.0000
-0.9592 0.3878 0.0000
-0.9592 0.4286 0.0000
-0.9592 0.4694 0.0000
-0.9592 0.5102 0.0000
-0.9592 0.5510 0.0000
-0.9592 0.5918 0.0000
-0.9592 0.6327 0.0000
-0.9592 0.6735 0.0000
-0.9592 0.7143 0.0000
-0.9592 0.7551 0.0000
-0.9592 0.7959 0.0000
-0.9592 0.8367 0.0000
-0.9592 0.8776 0.0000
-0.9592 0.9184 0.0000
-0.9592 0.9592 0.0000
-0.9592 1.0000 0.0000
-0.9184 -0.9592 0.0000
-0.9184 -0.9184 0.0000
-0.9184 -0.8776 0.0000
-0.9184 -0.8367 0.0000
-0.9184 -0.7959 0.0000
-0.9184 -0.7551 0.0000
-0.9184 -0.7143 0.0000
-0.9184 -0.6735 0.0000
-0.9184 -0.6327 0.0000
-0.9184 -0.5918 0.0000
-0.9184 -0.5510 0.0000
-0.9184 -0.5102 0.0000
-0.9184 -0.4694 0.0000
-0.9184 -0.4286 0.0000
-0.9184 -0.3878 0.0000
-0.9184 -0.3469 0.0000
-0.9184 -0.3061 0.0000
-0.9184 -0.2653 0.0000
-0.9184 -0.2245 0.0000
-0.9184 -0.1837 0.0000
-0.9184 -0.1429 0.0000
-0.9184 -0.1020 0.0000
-0.9184 -0.0612 0.0000
-0.9184 -0.0204 0.0000
-0.9184 0.0204 0.0000
-0.9184 0.0612 0.0000
-0.9184 0.1020 0.0000
-0.9184 0.1429 0.0000
-0.9184 0.1837 0.0000
-0.9184 0.2245 0.0000
-0.9184 0.2653 0.0000
-0.9184 0.3061 0.0000
-0.9184 0.3469 0.0000
-0.9184 0.3878 0.0000
-0.9184 0.4286 0.0000
-0.9184 0.4694 0.0000
-0.9184 0.5102 0.0000
-0.9184 0.5510 0.0000
-0.9184 0.5918 0.0000
-0.9184 0.6327 0.0000
-0.9184 0.6735 0.0000
-0.9184 0.7143 0.0000
-0.9184 0.7551 0.0000
-0.9184 0.7959 0.0000
-0.9184 0.8367 0.0000
-0.9184 0.8776 0.0000
-0.9184 0.9184 0.0000
-0.9184 0.9592 0.0000
-0.9184 1.0000 0.0000
-0.8776 -0.9592 0.0000
-0.8776 -0.9184 0.0000
-0.8776 -0.8776 0.0000
-0.8776 -0.8367 0.0000
-0.8776 -0.7959 0.0000
-0.8776 -0.7551 0.0000
-0.8776 -0.7143 0.0000
-0.8776 -0.6735 0.0000
-0.8776 -0.6327 0.0000
-0.8776 -0.5918 0.0000
-0.8776 -0.5510 0.0000
-0.8776 -0.5102 0.0000
-0.8776 -0.4694 0.0000
-0.8776 -0.4286 0.0000
-0.8776 -0.3878 0.0000
-0.8776 -0.3469 0.0000
-0.8776 -0.3061 0.0000
-0.8776 -0.2653 0.0000
-0.8776 -0.2245 0.0000
-0.8776 -0.1837 0.0000
-0.8776 -0.1429 0.0000
-0.8776 -0.1020 0.0000
-0.8776 -0.0612 0.0000
-0.8776 -0.0204 0.0000
-0.8776 0.0204 0.0000
-0.8776 0.0612 0.0000
-0.8776 0.1020 0.0000
-0.8776 0.1429 0.0000
-0.8776 0.1837 0.0000
-0.8776 0.2245 0.0000
-0.8776 0.2653 0.0000
-0.8776 0.3061 0.0000
-0.8776 0.3469 0.0000
-0.8776 0.3878 0.0000
-0.8776 0.4286 0.0000
-0.8776 0.4694 0.0000
-0.8776 0.5102 0.0000
-0.8776 0.5510 0.0000
-0.8776 0.5918 0.0000
-0.8776 0.6327 0.0000
-0.8776 0.6735 0.0000
-0.8776 0.7143 0.0000
-0.8776 0.7551 0.0000
-0.8776 0.7959 0.0000
-0.8776 0.8367 0.0000
-0.8776 0.8776 0.0000
-0.8776 0.9184 0.0000
-0.8776 0.9592 0.0000
-0.8776 1.0000 0.0000
-0.8367 -0.9592 0.0000
-0.8367 -0.9184 0.0000
-0.8367 -0.8776 0.0000
-0.8367 -0.8367 0.0000
-0.8367 -0.7959 0.0000
-0.8367 -0.7551 0.0000
-0.8367 -0.7143 0.0000
-0.8367 -0.6735 0.0000
-0.8367 -0.6327 0.0000
-0.8367 -0.5918 0.0000
-0.8367 -0.5510 0.0000
-0.8367 -0.5102 0.0000
-0.8367 -0.4694 0.0000
-0.8367 -0.4286 0.0000
-0.8367 -0.3878 0.0000
-0.8367 -0.3469 0.0000
-0.8367 -0.3061 0.0000
-0.8367 -0.2653 0.0000
-0.8367 -0.2245 0.0000
-0.8367 -0.1837 0.0000
-0.8367 -0.1429 0.0000
-0.8367 -0.1020 0.0000
-0.8367 -0.0612 0.0000
-0.8367 -0.0204 0.0000
-0.8367 0.0204 0.0000
-0.8367 0.0612 0.0000
-0.8367 0.1020 0.0000
-0.8367 0.1429 0.0000
-0.8367 0.1837 0.0000
-0.8367 0.2245 0.0000
-0.8367 0.2653 0.0000
-0.8367 0.3061 0.0000
-0.8367 0.3469 0.0000
-0.8367 0.3878 0.0000
-0.8367 0.4286 0.0000
-0.8367 0.4694 0.0000
-0.8367 0.5102 0.0000
-0.8367 0.5510 0.0000
-0.8367 0.5918 0.0000
-0.8367 0.6327 0.0000
-0.8367 0.6735 0.0000
-0.8367 0.7143 0.0000
-0.8367 0.7551 0.0000
-0.8367 0.7959 0.0000
-0.8367 0.8367 0.0000
-0.8367 0.8776 0.0000
-0.8367 0.9184 0.0000
-0.8367 0.9592 0.0000
-0.8367 1.0000 0.0000
-0.7959 -0.9592 0.0000
-0.7959 -0.9184 0.0000
-0.7959 -0.8776 0.0000
-0.7959 -0.8367 0.0000
-0.7959 -0.7959 0.0000
-0.7959 -0.7551 0.0000
-0.7959 -0.7143 0.0000
-0.7959 -0.6735 0.0000
-0.7959 -0.6327 0.0000
-0.7959 -0.5918 0.0000
-0.7959 -0.5510 0.0000
-0.7959 -0.5102 0.0000
-0.7959 -0.4694 0.0000
-0.7959 -0.4286 0.0000
-0.7959 -0.3878 0.0000
-0.7959 -0.3469 0.0000
-0.7959 -0.3061 0.0000
-0.7959 -0.2653 0.0000
-0.7959 -0.2245 0.0000
-0.7959 -0.1837 0.0000
-0.7959 -0.1429 0.0000
-0.7959 -0.1020 0.0000
-0.7959 -0.0612 0.0000
-0.7959 -0.0204 0.0000
-0.7959 0.0204 0.0000
-0.7959 0.0612 0.0000
-0.7959 0.1020 0.0000
-0.7959 0.1429 0.0000
-0.7959 0.1837 0.0000
-0.7959 0.2245 0.0000
-0.7959 0.2653 0.0000
-0.7959 0.3061 0.0000
-0.7959 0.3469 0.0000
-0.7959 0.3878 0.0000
-0.7959 0.4286 0.0000
-0.7959 0.4694 0.0000
-0.7959 0.5102 0.0000
-0.7959 0.5510 0.0000
-0.7959 0.5918 0.0000
-0.7959 0.6327 0.0000
-0.7959 0.6735 0.0000
-0.7959 0.7143 0.0000
-0.7959 0.7551 0.0000
-0.7959 0.7959 0.0000
-0.7959 0.8367 0.0000
-0.7959 0.8776 0.0000
-0.7959 0.9184 0.0000
-0.7959 0.9592 0.0000
-0.7959 1.0000 0.0000
-0.7551 -0.9592 0.0000
-0.7551 -0.9184 0.0000
-0.7551 -0.8776 0.0000
-0.7551 -0.8367 0.0000
-0.7551 -0.7959 0.0000
-0.7551 -0.7551 0.0000
-0.7551 -0.7143 0.0000
-0.7551 -0.6735 0.0000
-0.7551 -0.6327 0.0000
-0.7551 -0.5918 0.0000
-0.7551 -0.5510 0.0000
-0.7551 -0.5102 0.0000
-0.7551 -0.4694 0.0000
-0.7551 -0.4286 0.0000
-0.7551 -0.3878 0.0000
-0.7551 -0.3469 0.0000
-0.7551 -0.3061 0.0000
-0.7551 -0.2653 0.0000
-0.7551 -0.2245 0.0000
-0.7551 -0.1837 0.0000
-0.7551 -0.1429 0.0000
-0.7551 -0.1020 0.0000
-0.7551 -0.0612 0.0000
-0.7551 -0.0204 0.0000
-0.7551 0.0204 0.0000
-0.7551 0.0612 0.0000
-0.7551 0.1020 0.0000
-0.7551 0.1429 0.0000
-0.7551 0.1837 0.0000
-0.7551 0.2245 0.0000
-0.7551 0.2653 0.0000
-0.7551 0.3061 0.0000
-0.7551 0.3469 0.0000
-0.7551 0.3878 0.0000
-0.7551 0.4286 0.0000
-0.7551 0.4694 0.0000
-0.7551 0.5102 0.0000
-0.7551 0.5510 0.0000
-0.7551 0.5918 0.0000
-0.7551 0.6327 0.0000
-0.7551 0.6735 0.0000
-0.7551 0.7143 0.0000
-0.7551 0.7551 0.0000
-0.7551 0.7959 0.0000
-0.7551 0.8367 0.0000
-0.7551 0.8776 0.0000
-0.7551 0.9184 0.0000
-0.7551 0.9592 0.0000
-0.7551 1.0000 0.0000
-0.7143 -0.9592 0.0000
-0.7143 -0.9184 0.0000
-0.7143 -0.8776 0.0000
-0.7143 -0.8367 0.0000
-0.7143 -0.7959 0.0000
-0.7143 -0.7551 0.0000
-0.7143 -0.7143 0.0000
-0.7143 -0.6735 0.0000
-0.7143 -0.6327 0.0000
-0.7143 -0.5918 0.0000
-0.7143 -0.5510 0.0000
-0.7143 -0.5102 0.0000
-0.7143 -0.4694 0.0000
-0.7143 -0.4286 0.0000
-0.7143 -0.3878 0.0000
-0.7143 -0.3469 0.0000
-0.7143 -0.3061 0.0000
-0.7143 -0.2653 0.0000
-0.7143 -0.2245 0.0000
-0.7143 -0.1837 0.0000
-0.7143 -0.1429 0.0000
-0.7143 -0.1020 0.0000
-0.7143 -0.0612 0.0000
-0.7143 -0.0204 0.0000
-0.7143 0.0204 0.0000
-0.7143 0.0612 0.0000
-0.7143 0.1020 0.0000
-0.7143 0.1429 0.0000
-0.7143 0.1837 0.0000
-0.7143 0.2245 0.0000
-0.7143 0.2653 0.0000
-0.7143 0.3061 0.0000
-0.7143 0.3469 0.0000
-0.7143 0.3878 0.0000
-0.7143 0.4286 0.0000
-0.7143 0.4694 0.0000
-0.7143 0.5102 0.0000
-0.7143 0.5510 0.0000
-0.7143 0.5918 0.0000
-0.7143 0.6327 0.0000
-0.7143 0.6735 0.0000
-0.7143 0.7143 0.0000
-0.7143 0.7551 0.0000
-0.7143 0.7959 0.0000
-0.7143 0.8367 0.0000
-0.7143 0.8776 0.0000
-0.7143 0.9184 0.0000
-0.7143 0.9592 0.0000
-0.7143 1.0000 0.0000
-0.6735 -0.9592 0.0000
-0.6735 -0.9184 0.0000
-0.6735 -0.8776 0.0000
-0.6735 -0.8367 0.0000
-0.6735 -0.7959 0.0000
-0.6735 -0.7551 0.0000
-0.6735 -0.7143 0.0000
-0.6735 -0.6735 0.0000
-0.6735 -0.6327 0.0000
-0.6735 -0.5918 0.0000
-0.6735 -0.5510 0.0000
-0.6735 -0.5102 0.0000
-0.6735 -0.4694 0.0000
-0.6735 -0.4286 0.0000
-0.6735 -0.3878 0.0000
-0.6735 -0.3469 0.0000
-0.6735 -0.3061 0.0000
-0.6735 -0.2653 0.0000
-0.6735 -0.2245 0.0000
-0.6735 -0.1837 0.0000
-0.6735 -0.1429 0.0000
-0.6735 -0.1020 0.0000
-0.6735 -0.0612 0.0000
-0.6735 -0.0204 0.0000
-0.6735 0.0204 0.0000
-0.6735 0.0612 0.0000
-0.6735 0.1020 0.0000
-0.6735 0.1429 0.0000
-0.6735 0.1837 0.0000
-0.6735 0.2245 0.0000
-0.6735 0.2653 0.0000
-0.6735 0.3061 0.0000
-0.6735 0.3469 0.0000
-0.6735 0.3878 0.0000
-0.6735 0.4286 0.0000
-0.6735 0.4694 0.0000
-0.6735 0.5102 0.0000
-0.6735 0.5510 0.0000
-0.6735 0.5918 0.0000
[...]
         <PointData>
            <DataArray Name="fValues" NumberOfComponents="3" format="ascii" type="Float64">
 2.04081e-02  2.33547e-19        00000 
 4.08162e-02  5.43423e-20        00000 
 6.12242e-02  1.09638e-19        00000 
 8.16323e-02  3.53225e-19        00000 
 1.02040e-01 -2.97005e-19        00000 
 1.22448e-01  1.14119e-18        00000 
 1.42857e-01 -7.70240e-19        00000 
 1.63265e-01  3.80396e-19        00000 
 1.83673e-01 -4.84768e-19        00000 
 2.04081e-01  1.52158e-18        00000 
 2.24489e-01 -6.85666e-19        00000 
 2.44897e-01  7.06450e-19        00000 
 2.65305e-01 -4.43801e-19        00000 
 2.85713e-01  6.52108e-19        00000 
 3.06121e-01 -1.95435e-18        00000 
 3.26529e-01  2.71711e-19        00000 
 3.46937e-01 -3.61869e-19        00000 
 3.67345e-01  5.43423e-19        00000 
 3.87754e-01 -5.18372e-19        00000 
 4.08162e-01 -2.71711e-19        00000 
 4.28570e-01  7.71531e-19        00000 
 4.48978e-01 -3.80396e-19        00000 
 4.69386e-01  6.44264e-19        00000 
 4.89794e-01 -4.89081e-19        00000 
 5.10202e-01 -3.82352e-19        00000 
 5.30610e-01        00000        00000 
 5.51018e-01 -2.37928e-18        00000 
 5.71426e-01  1.30422e-18        00000 
 5.91834e-01 -9.90018e-19        00000 
 6.12242e-01 -6.52108e-19        00000 
 6.32650e-01 -1.99359e-18        00000 
 6.53059e-01 -5.43423e-19        00000 
 6.73467e-01  1.26995e-18        00000 
 6.93875e-01 -5.43423e-19        00000 
 7.14283e-01 -2.27628e-18        00000 
 7.34691e-01 -3.26054e-19        00000 
 7.55099e-01 -5.05251e-19        00000 
 7.75507e-01  1.84764e-18        00000 
 7.95915e-01 -2.85059e-18        00000 
 8.16323e-01  1.73895e-18        00000 
 8.36731e-01 -1.48844e-18        00000 
 8.57139e-01  1.19553e-18        00000 
 8.77547e-01 -1.37101e-19        00000 
 8.97956e-01  1.84764e-18        00000 
 9.18364e-01 -4.16490e-19        00000 
 9.38772e-01  1.08685e-19        00000 
 9.59180e-01  8.77167e-19        00000 
 9.79588e-01 -6.57701e-19        00000 
 9.99996e-01  2.64009e-19        00000 
 1.88570e-02 -1.52649e-03        00000 
 3.84547e-02 -2.44996e-03        00000 
 5.82420e-02 -3.11672e-03        00000 
 7.81338e-02 -3.63890e-03        00000 
 9.80905e-02 -4.06229e-03        00000 
 1.18094e-01 -4.41013e-03        00000 
 1.38135e-01 -4.69568e-03        00000 
 1.58209e-01 -4.92744e-03        00000 
 1.78312e-01 -5.11165e-03        00000 
 1.98446e-01 -5.25365e-03        00000 
 2.18609e-01 -5.35844e-03        00000 
 2.38804e-01 -5.43157e-03        00000 
 2.59033e-01 -5.48009e-03        00000 
 2.79295e-01 -5.51277e-03        00000 
 2.99590e-01 -5.53762e-03        00000 
 3.19919e-01 -5.56409e-03        00000 
 3.40279e-01 -5.60214e-03        00000 
 3.60667e-01 -5.66466e-03        00000 
 3.81078e-01 -5.76107e-03        00000 
 4.01505e-01 -5.90067e-03        00000 
 4.21938e-01 -6.09010e-03        00000 
 4.42367e-01 -6.33122e-03        00000 
 4.62781e-01 -6.62374e-03        00000 
 4.83169e-01 -6.96385e-03        00000 
 5.03520e-01 -7.34361e-03        00000 
 5.23827e-01 -7.75154e-03        00000 
 5.44080e-01 -8.17281e-03        00000 
 5.64276e-01 -8.58977e-03        00000 
 5.84412e-01 -8.98500e-03        00000 
 6.04489e-01 -9.33989e-03        00000 
 6.24512e-01 -9.63902e-03        00000 
 6.44485e-01 -9.86784e-03        00000 
 6.64418e-01 -1.00162e-02        00000 
 6.84319e-01 -1.00768e-02        00000 
 7.04196e-01 -1.00475e-02        00000 
 7.24057e-01 -9.92898e-03        00000 
 7.43907e-01 -9.72385e-03        00000 
 7.63752e-01 -9.43623e-03        00000 
 7.83596e-01 -9.07090e-03        00000 
 8.03440e-01 -8.63280e-03        00000 
 8.23285e-01 -8.12618e-03        00000 
 8.43127e-01 -7.55387e-03        00000 
 8.62962e-01 -6.91636e-03        00000 
 8.82781e-01 -6.21024e-03        00000 
 9.02568e-01 -5.42492e-03        00000 
 9.22294e-01 -4.53583e-03        00000 
 9.41898e-01 -3.48742e-03        00000 
 9.61256e-01 -2.13277e-03        00000 
 9.79588e-01 -3.98336e-19        00000 
 1.78840e-02 -2.28666e-03        00000 
 3.65480e-02 -4.07333e-03        00000 
 5.56343e-02 -5.44867e-03        00000 
 7.49444e-02 -6.54863e-03        00000 
 9.43979e-02 -7.44986e-03        00000 
 1.13954e-01 -8.19678e-03        00000 
 1.33590e-01 -8.81666e-03        00000 
 1.53296e-01 -9.32758e-03        00000 
 1.73066e-01 -9.74291e-03        00000 
 1.92899e-01 -1.00742e-02        00000 
 2.12794e-01 -1.03322e-02        00000 
 2.32756e-01 -1.05273e-02        00000 
 2.52790e-01 -1.06727e-02        00000 
 2.72900e-01 -1.07847e-02        00000 
 2.93078e-01 -1.08814e-02        00000 
 3.13330e-01 -1.09748e-02        00000 
 3.33654e-01 -1.10893e-02        00000 
 3.54043e-01 -1.12406e-02        00000 
 3.74553e-01 -1.15141e-02        00000 
 3.95041e-01 -1.18280e-02        00000 
 4.15534e-01 -1.22110e-02        00000 
 4.36002e-01 -1.26691e-02        00000 
 4.56448e-01 -1.32123e-02        00000 
 4.76844e-01 -1.38439e-02        00000 
 4.97164e-01 -1.45485e-02        00000 
 5.17391e-01 -1.53059e-02        00000 
 5.37495e-01 -1.60776e-02        00000 
 5.57489e-01 -1.68390e-02        00000 
 5.77306e-01 -1.75217e-02        00000 
 5.97011e-01 -1.81358e-02        00000 
 6.16543e-01 -1.86195e-02        00000 
 6.36031e-01 -1.90117e-02        00000 
 6.55432e-01 -1.92493e-02        00000 
 6.74766e-01 -1.93201e-02        00000 
 6.94053e-01 -1.92201e-02        00000 
 7.13308e-01 -1.89504e-02        00000 
 7.32545e-01 -1.85164e-02        00000 
 7.51775e-01 -1.79242e-02        00000 
 7.71005e-01 -1.71819e-02        00000 
 7.90239e-01 -1.62977e-02        00000 
 8.09476e-01 -1.52776e-02        00000 
 8.28710e-01 -1.41247e-02        00000 
 8.47930e-01 -1.28370e-02        00000 
 8.67114e-01 -1.14046e-02        00000 
 8.86226e-01 -9.80327e-03        00000 
 9.05201e-01 -7.98388e-03        00000 
 9.23918e-01 -5.85195e-03        00000 
 9.42086e-01 -3.22949e-03        00000 
 9.59180e-01  2.15992e-19        00000 
 1.71378e-02 -2.84703e-03        00000 
 3.50021e-02 -5.25466e-03        00000 
 5.33672e-02 -7.25353e-03        00000 
 7.20583e-02 -8.91301e-03        00000 
 9.09687e-02 -1.03026e-02        00000 
 1.10040e-01 -1.14723e-02        00000 
 1.29237e-01 -1.24569e-02        00000 
 1.48543e-01 -1.32811e-02        00000 
 1.67950e-01 -1.39636e-02        00000 
 1.87456e-01 -1.45211e-02        00000 
 2.07061e-01 -1.49703e-02        00000 
 2.26768e-01 -1.53269e-02        00000 
 2.46593e-01 -1.56072e-02        00000 
 2.66543e-01 -1.58379e-02        00000 
 2.86601e-01 -1.60323e-02        00000 
 3.06851e-01 -1.63038e-02        00000 
 3.27140e-01 -1.65516e-02        00000 
 3.47558e-01 -1.68307e-02        00000 
 3.67971e-01 -1.70829e-02        00000 
 3.88518e-01 -1.74716e-02        00000 
 4.09079e-01 -1.79548e-02        00000 
 4.29505e-01 -1.85251e-02        00000 
 4.50004e-01 -1.92606e-02        00000 
 4.70435e-01 -2.01489e-02        00000 
 4.90748e-01 -2.11534e-02        00000 
 5.10939e-01 -2.22553e-02        00000 
 5.30912e-01 -2.33706e-02        00000 
 5.50772e-01 -2.44912e-02        00000 
 5.70320e-01 -2.55145e-02        00000 
 5.89629e-01 -2.63938e-02        00000 
 6.08814e-01 -2.71533e-02        00000 
 6.27782e-01 -2.76566e-02        00000 
 6.46557e-01 -2.78916e-02        00000 
 6.65191e-01 -2.78599e-02        00000 
 6.83833e-01 -2.76433e-02        00000 
 7.02428e-01 -2.71899e-02        00000 
 7.21000e-01 -2.64991e-02        00000 
 7.39563e-01 -2.55813e-02        00000 
 7.58134e-01 -2.44471e-02        00000 
 7.76715e-01 -2.31074e-02        00000 
 7.95302e-01 -2.15684e-02        00000 
 8.13888e-01 -1.98330e-02        00000 
 8.32452e-01 -1.78976e-02        00000 
 8.50961e-01 -1.57478e-02        00000 
 8.69359e-01 -1.33530e-02        00000 
 8.87550e-01 -1.06592e-02        00000 
 9.05373e-01 -7.58356e-03        00000 
 9.22563e-01 -4.04123e-03        00000 
 9.38772e-01  2.03090e-19        00000 
 1.65063e-02 -3.29998e-03        00000 
 3.36797e-02 -6.20756e-03        00000 
 5.13699e-02 -8.72706e-03        00000 
 6.94398e-02 -1.08934e-02        00000 
 8.77880e-02 -1.27520e-02        00000 
 1.06348e-01 -1.43453e-02        00000 
 1.25079e-01 -1.57074e-02        00000 
 1.43959e-01 -1.68658e-02        00000 
 1.62975e-01 -1.78418e-02        00000 
 1.82128e-01 -1.86541e-02        00000 
 2.01421e-01 -1.93196e-02        00000 
 2.20846e-01 -1.98571e-02        00000 
 2.40455e-01 -2.03180e-02        00000 
 2.60306e-01 -2.07807e-02        00000 
 2.80240e-01 -2.11389e-02        00000 
 3.00269e-01 -2.13644e-02        00000 
 3.20473e-01 -2.15963e-02        00000 
 3.40753e-01 -2.18125e-02        00000 
 3.61154e-01 -2.20473e-02        00000 
 3.81757e-01 -2.24919e-02        00000 
 4.02463e-01 -2.31240e-02        00000 
 4.23095e-01 -2.39383e-02        00000 
 4.43706e-01 -2.49579e-02        00000 
 4.64205e-01 -2.61058e-02        00000 
 4.84532e-01 -2.73767e-02        00000 
 5.04622e-01 -2.87044e-02        00000 
 5.24463e-01 -3.00702e-02        00000 
 5.43981e-01 -3.13894e-02        00000 
 5.63243e-01 -3.26656e-02        00000 
 5.82168e-01 -3.38101e-02        00000 
 6.00927e-01 -3.48160e-02        00000 
 6.19440e-01 -3.55204e-02        00000 
 6.37580e-01 -3.58821e-02        00000 
 6.55668e-01 -3.59267e-02        00000 
 6.73591e-01 -3.55243e-02        00000 
 6.91393e-01 -3.47603e-02        00000 
 7.09254e-01 -3.37771e-02        00000 
 7.27103e-01 -3.25119e-02        00000 
 7.44974e-01 -3.09732e-02        00000 
 7.62861e-01 -2.91696e-02        00000 
 7.80762e-01 -2.71098e-02        00000 
 7.98666e-01 -2.47990e-02        00000 
 8.16546e-01 -2.22346e-02        00000 
 8.34356e-01 -1.94023e-02        00000 
 8.52026e-01 -1.62745e-02        00000 
 8.69447e-01 -1.28093e-02        00000 
 8.86458e-01 -8.95810e-03        00000 
 9.02845e-01 -4.68576e-03        00000 
 9.18364e-01 -5.60887e-19        00000 
 1.59456e-02 -3.68997e-03        00000 
 3.25060e-02 -7.02195e-03        00000 
 4.95741e-02 -9.99017e-03        00000 
 6.70444e-02 -1.26093e-02        00000 
 8.48296e-02 -1.49060e-02        00000 
 1.02866e-01 -1.69104e-02        00000 
 1.21112e-01 -1.86504e-02        00000 
 1.39542e-01 -2.01515e-02        00000 
 1.58143e-01 -2.14376e-02        00000 
 1.76921e-01 -2.25313e-02        00000 
 1.95889e-01 -2.34589e-02        00000 
 2.15071e-01 -2.42806e-02        00000 
 2.34451e-01 -2.49668e-02        00000 
 2.53975e-01 -2.54226e-02        00000 
 2.73572e-01 -2.56744e-02        00000 
 2.93388e-01 -2.58333e-02        00000 
 3.13474e-01 -2.60097e-02        00000 
 3.33881e-01 -2.63568e-02        00000 
 3.54558e-01 -2.68935e-02        00000 
 3.75397e-01 -2.76449e-02        00000 
 3.96445e-01 -2.86704e-02        00000 
 4.17370e-01 -2.98373e-02        00000 
 4.38163e-01 -3.11851e-02        00000 
 4.58759e-01 -3.26216e-02        00000 
 4.79100e-01 -3.41365e-02        00000 
 4.99116e-01 -3.56753e-02        00000 
 5.18713e-01 -3.71258e-02        00000 
 5.37778e-01 -3.84553e-02        00000 
 5.56615e-01 -3.97470e-02        00000 
 5.75100e-01 -4.09308e-02        00000 
 5.93077e-01 -4.18273e-02        00000 
 6.10846e-01 -4.25123e-02        00000 
 6.28350e-01 -4.29642e-02        00000 
 6.45764e-01 -4.30750e-02        00000 
 6.63076e-01 -4.27399e-02        00000 
 6.80284e-01 -4.18924e-02        00000 
 6.97376e-01 -4.05418e-02        00000 
 7.14369e-01 -3.88331e-02        00000 
 7.31513e-01 -3.68589e-02        00000 
 7.48673e-01 -3.45789e-02        00000 
 7.65857e-01 -3.20009e-02        00000 
 7.83057e-01 -2.91317e-02        00000 
 8.00237e-01 -2.59699e-02        00000 
 8.17343e-01 -2.25054e-02        00000 
 8.34298e-01 -1.87197e-02        00000 
 8.50993e-01 -1.45888e-02        00000 
 8.67284e-01 -1.00906e-02        00000 
 8.82999e-01 -5.21965e-03        00000 
 8.97956e-01  8.00856e-19        00000 
 1.54347e-02 -4.03826e-03        00000 
 3.14396e-02 -7.74592e-03        00000 
 4.79331e-02 -1.11126e-02        00000 
 6.48325e-02 -1.41414e-02        00000 
 8.20654e-02 -1.68457e-02        00000 
 9.95753e-02 -1.92445e-02        00000 
 1.17323e-01 -2.13571e-02        00000 
 1.35287e-01 -2.32014e-02        00000 
 1.53449e-01 -2.47927e-02        00000 
 1.71820e-01 -2.61627e-02        00000 
 1.90507e-01 -2.74234e-02        00000 
 2.09284e-01 -2.84054e-02        00000 
 2.28205e-01 -2.90689e-02        00000 
 2.47353e-01 -2.95079e-02        00000 
 2.66778e-01 -2.98365e-02        00000 
 2.86571e-01 -3.02398e-02        00000 
 3.06805e-01 -3.06253e-02        00000 
 3.27591e-01 -3.14574e-02        00000 
 3.48592e-01 -3.24105e-02        00000 
 3.69765e-01 -3.35289e-02        00000 
 3.91041e-01 -3.48453e-02        00000 
 4.12227e-01 -3.62946e-02        00000 
 4.33213e-01 -3.78777e-02        00000 
 4.53929e-01 -3.95707e-02        00000 
 4.74294e-01 -4.13206e-02        00000 
 4.94214e-01 -4.30541e-02        00000 
 5.13587e-01 -4.46837e-02        00000 
 5.32375e-01 -4.61658e-02        00000 
 5.50745e-01 -4.74551e-02        00000 
 5.68473e-01 -4.84595e-02        00000 
 5.85855e-01 -4.91878e-02        00000 
 6.02655e-01 -4.94931e-02        00000 
 6.19177e-01 -4.97046e-02        00000 
 6.35650e-01 -4.95669e-02        00000 
 6.52084e-01 -4.90998e-02        00000 
 6.68584e-01 -4.81359e-02        00000 
 6.85222e-01 -4.66978e-02        00000 
 7.01508e-01 -4.46287e-02        00000 
 7.17751e-01 -4.21505e-02        00000 
 7.34145e-01 -3.94037e-02        00000 
 7.50593e-01 -3.63254e-02        00000 
 7.67078e-01 -3.29232e-02        00000 
 7.83555e-01 -2.92025e-02        00000 
 7.99968e-01 -2.51615e-02        00000 
 8.16239e-01 -2.07927e-02        00000 
 8.32263e-01 -1.60876e-02        00000 
 8.47917e-01 -1.10429e-02        00000 
 8.63059e-01 -5.66982e-03        00000 
 8.77547e-01 -3.40863e-19        00000 
 1.49633e-02 -4.35677e-03        00000 
 3.04579e-02 -8.40644e-03        00000 
 4.64172e-02 -1.21364e-02        00000 
 6.27747e-02 -1.55423e-02        00000 
 7.94714e-02 -1.86282e-02        00000 
 9.64596e-02 -2.14044e-02        00000 
 1.13703e-01 -2.38842e-02        00000 
 1.31185e-01 -2.60810e-02        00000 
 1.48911e-01 -2.80263e-02        00000 
 1.66896e-01 -2.97338e-02        00000 
 1.85153e-01 -3.11855e-02        00000 
 2.03389e-01 -3.22092e-02        00000 
 2.21871e-01 -3.29761e-02        00000 
 2.40853e-01 -3.36728e-02        00000 
 2.60321e-01 -3.43327e-02        00000 
 2.80208e-01 -3.49755e-02        00000 
 3.00767e-01 -3.60356e-02        00000 
 3.21758e-01 -3.71663e-02        00000 
 3.42943e-01 -3.83455e-02        00000 
 3.64342e-01 -3.96328e-02        00000 
 3.85720e-01 -4.10037e-02        00000 
 4.07097e-01 -4.25467e-02        00000 
 4.28289e-01 -4.42762e-02        00000 
 4.49160e-01 -4.61544e-02        00000 
 4.69581e-01 -4.81294e-02        00000 
 4.89439e-01 -5.01307e-02        00000 
 5.08673e-01 -5.20838e-02        00000 
 5.27314e-01 -5.38779e-02        00000 
 5.45188e-01 -5.53040e-02        00000 
 5.62455e-01 -5.63608e-02        00000 
 5.79084e-01 -5.69247e-02        00000 
 5.95082e-01 -5.70004e-02        00000 
 6.10606e-01 -5.66404e-02        00000 
 6.25749e-01 -5.61890e-02        00000 
 6.40992e-01 -5.52593e-02        00000 
 6.56496e-01 -5.39706e-02        00000 
 6.72264e-01 -5.21919e-02        00000 
 6.88052e-01 -4.98512e-02        00000 
 7.03827e-01 -4.69871e-02        00000 
 7.19270e-01 -4.37346e-02        00000 
 7.34978e-01 -4.01570e-02        00000 
 7.50746e-01 -3.62459e-02        00000 
 7.66530e-01 -3.20069e-02        00000 
 7.82272e-01 -2.74444e-02        00000 
 7.97896e-01 -2.25612e-02        00000 
 8.13307e-01 -1.73600e-02        00000 
 8.28396e-01 -1.18500e-02        00000 
 8.43045e-01 -6.05153e-03        00000 
 8.57139e-01  6.67587e-19        00000 
 1.45263e-02 -4.65220e-03        00000 
 2.95484e-02 -9.01885e-03        00000 
 4.50088e-02 -1.30861e-02        00000 
 6.08514e-02 -1.68449e-02        00000 
 7.70288e-02 -2.02916e-02        00000 
 9.35046e-02 -2.34296e-02        00000 
 1.10243e-01 -2.62648e-02        00000 
 1.27225e-01 -2.88173e-02        00000 
 1.44495e-01 -3.11018e-02        00000 
 1.62022e-01 -3.30554e-02        00000 
 1.79703e-01 -3.45943e-02        00000 
 1.97462e-01 -3.58142e-02        00000 
 2.15726e-01 -3.69096e-02        00000 
 2.34662e-01 -3.80684e-02        00000 
 2.54173e-01 -3.92065e-02        00000 
 2.74280e-01 -4.04533e-02        00000 
 2.94854e-01 -4.16212e-02        00000 
 3.15788e-01 -4.27444e-02        00000 
 3.37072e-01 -4.39058e-02        00000 
 3.58531e-01 -4.51423e-02        00000 
 3.80024e-01 -4.64335e-02        00000 
 4.01606e-01 -4.79685e-02        00000 
 4.23051e-01 -4.97604e-02        00000 
 4.44143e-01 -5.17883e-02        00000 
 4.64695e-01 -5.40125e-02        00000 
 4.84563e-01 -5.63414e-02        00000 
 5.03702e-01 -5.86814e-02        00000 
 5.22144e-01 -6.08507e-02        00000 
 5.39559e-01 -6.25810e-02        00000 
 5.56374e-01 -6.38258e-02        00000 
 5.72256e-01 -6.44390e-02        00000 
 5.87641e-01 -6.45080e-02        00000 
 6.02396e-01 -6.39951e-02        00000 
 6.16633e-01 -6.29084e-02        00000 
 6.30575e-01 -6.14602e-02        00000 
 6.44586e-01 -5.95827e-02        00000 
 6.58875e-01 -5.72950e-02        00000 
 6.73698e-01 -5.44890e-02        00000 
 6.89215e-01 -5.12447e-02        00000 
 7.04287e-01 -4.75567e-02        00000 
 7.19220e-01 -4.35310e-02        00000 
 7.34077e-01 -3.91495e-02        00000 
 7.49185e-01 -3.44331e-02        00000 
 7.64287e-01 -2.94031e-02        00000 
 7.79306e-01 -2.40681e-02        00000 
 7.94158e-01 -1.84390e-02        00000 
 8.08746e-01 -1.25324e-02        00000 
 8.22970e-01 -6.37377e-03        00000 
 8.36731e-01 -9.77499e-19        00000 
 1.41212e-02 -4.92817e-03        00000 
 2.87043e-02 -9.59125e-03        00000 
 4.36976e-02 -1.39746e-02        00000 
 5.90510e-02 -1.80671e-02        00000 
 7.47239e-02 -2.18601e-02        00000 
 9.07014e-02 -2.53510e-02        00000 
 1.06914e-01 -2.85130e-02        00000 
 1.23409e-01 -3.13916e-02        00000 
 1.40163e-01 -3.39650e-02        00000 
 1.57191e-01 -3.62250e-02        00000 
 1.74398e-01 -3.81365e-02        00000 
 1.91884e-01 -3.96806e-02        00000 
 2.10027e-01 -4.13478e-02        00000 
 2.28795e-01 -4.28881e-02        00000 
 2.48213e-01 -4.43437e-02        00000 
 2.68133e-01 -4.56034e-02        00000 
 2.88484e-01 -4.66939e-02        00000 
 3.09277e-01 -4.76728e-02        00000 
 3.30565e-01 -4.86588e-02        00000 
 3.52079e-01 -4.97122e-02        00000 
 3.73777e-01 -5.08457e-02        00000 
 3.95639e-01 -5.23046e-02        00000 
 4.17433e-01 -5.41123e-02        00000 
 4.38861e-01 -5.62863e-02        00000 
 4.59654e-01 -5.87740e-02        00000 
 4.79610e-01 -6.14775e-02        00000 
 4.98656e-01 -6.42504e-02        00000 
 5.16802e-01 -6.68345e-02        00000 
 5.33715e-01 -6.89457e-02        00000 
 5.49913e-01 -7.04351e-02        00000 
 5.65033e-01 -7.12490e-02        00000 
 5.79771e-01 -7.13961e-02        00000 
 5.93867e-01 -7.07789e-02        00000 
 6.07436e-01 -6.94376e-02        00000 
 6.20491e-01 -6.75566e-02        00000 
 6.33266e-01 -6.51773e-02        00000 
 6.45642e-01 -6.22232e-02        00000 
 6.59154e-01 -5.89152e-02        00000 
 6.73454e-01 -5.51670e-02        00000 
 6.88535e-01 -5.09741e-02        00000 
 7.03096e-01 -4.64177e-02        00000 
 7.17303e-01 -4.16349e-02        00000 
 7.31543e-01 -3.65132e-02        00000 
 7.46039e-01 -3.10675e-02        00000 
 7.60498e-01 -2.53390e-02        00000 
 7.74842e-01 -1.93440e-02        00000 
 7.88984e-01 -1.31022e-02        00000 
 8.02840e-01 -6.64179e-03        00000 
 8.16323e-01  3.95875e-19        00000 
 1.37468e-02 -5.18637e-03        00000 
 2.79217e-02 -1.01275e-02        00000 
 4.24769e-02 -1.48072e-02        00000 
 5.73670e-02 -1.92129e-02        00000 
 7.25478e-02 -2.33328e-02        00000 
 8.80335e-02 -2.71712e-02        00000 
 1.03711e-01 -3.06714e-02        00000 