<?xml version="1.0" encoding="utf-8"?>
<VTKFile byte_order="LittleEndian" type="UnstructuredGrid" version="0.1">
   <UnstructuredGrid>
      <Piece NumberOfCells="1408" NumberOfPoints="804">
         <Points>
            <DataArray Name="Points" NumberOfComponents="3" format="ascii" type="Float32">
-1.0000 -0.8947 0.0000
-1.0000 -0.7895 0.0000
-1.0000 -0.6842 0.0000
-1.0000 -0.5789 0.0000
-1.0000 -0.4737 0.0000
-1.0000 -0.3684 0.0000
-1.0000 -0.2632 0.0000
-1.0000 -0.1579 0.0000
-1.0000 -0.0526 0.0000
-1.0000 0.0526 0.0000
-1.0000 0.1579 0.0000
-1.0000 0.2632 0.0000
-1.0000 0.3684 0.0000
-1.0000 0.4737 0.0000
-1.0000 0.5789 0.0000
-1.0000 0.6842 0.0000
-1.0000 0.7895 0.0000
-1.0000 0.8947 0.0000
-1.0000 1.0000 0.0000
-0.8947 -0.8947 0.0000
-0.8947 -0.7895 0.0000
-0.8947 -0.6842 0.0000
-0.8947 -0.5789 0.0000
-0.8947 -0.4737 0.0000
-0.8947 -0.3684 0.0000
-0.8947 -0.2632 0.0000
-0.8947 -0.1579 0.0000
-0.8947 -0.0526 0.0000
-0.8947 0.0526 0.0000
-0.8947 0.1579 0.0000
-0.8947 0.2632 0.0000
-0.8947 0.3684 0.0000
-0.8947 0.4737 0.0000
-0.8947 0.5789 0.0000
-0.8947 0.6842 0.0000
-0.8947 0.7895 0.0000
-0.8947 0.8947 0.0000
-0.8947 1.0000 0.0000
-0.7895 -0.8947 0.0000
-0.7895 -0.7895 0.0000
-0.7895 -0.6842 0.0000
-0.7895 -0.5789 0.0000
-0.7895 -0.4737 0.0000
-0.7895 -0.3684 0.0000
-0.7895 -0.2632 0.0000
-0.7895 -0.1579 0.0000
-0.7895 -0.0526 0.0000
-0.7895 0.0526 0.0000
-0.7895 0.1579 0.0000
-0.7895 0.2632 0.0000
-0.7895 0.3684 0.0000
-0.7895 0.4737 0.0000
-0.7895 0.5789 0.0000
-0.7895 0.6842 0.0000
-0.7895 0.7895 0.0000
-0.7895 0.8947 0.0000
-0.7895 1.0000 0.0000
-0.6842 -0.8947 0.0000
-0.6842 -0.7895 0.0000
-0.6842 -0.6842 0.0000
-0.6842 -0.5789 0.0000
-0.6842 -0.4737 0.0000
-0.6842 -0.3684 0.0000
-0.6842 -0.2632 0.0000
-0.6842 -0.1579 0.0000
-0.6842 -0.0526 0.0000
-0.6842 0.0526 0.0000
-0.6842 0.1579 0.0000
-0.6842 0.2632 0.0000
-0.6842 0.3684 0.0000
-0.6842 0.4737 0.0000
-0.6842 0.5789 0.0000
-0.6842 0.6842 0.0000
-0.6842 0.7895 0.0000
-0.6842 0.8947 0.0000
-0.6842 1.0000 0.0000
-0.5789 -0.8947 0.0000
-0.5789 -0.7895 0.0000
-0.5789 -0.6842 0.0000
-0.5789 -0.5789 0.0000
-0.5789 -0.4737 0.0000
-0.5789 -0.3684 0.0000
-0.5789 -0.2632 0.0000
-0.5789 -0.1579 0.0000
-0.5789 -0.0526 0.0000
-0.5789 0.0526 0.0000
-0.5789 0.1579 0.0000
-0.5789 0.2632 0.0000
-0.5789 0.3684 0.0000
-0.5789 0.4737 0.0000
-0.5789 0.5789 0.0000
-0.5789 0.6842 0.0000
-0.5789 0.7895 0.0000
-0.5789 0.8947 0.0000
-0.5789 1.0000 0.0000
-0.4737 -0.8947 0.0000
-0.4737 -0.7895 0.0000
-0.4737 -0.6842 0.0000
-0.4737 -0.5789 0.0000
-0.4737 -0.4737 0.0000
-0.4737 -0.3684 0.0000
-0.4737 -0.2632 0.0000
-0.4737 -0.1579 0.0000
-0.4737 -0.0526 0.0000
-0.4737 0.0526 0.0000
-0.4737 0.1579 0.0000
-0.4737 0.2632 0.0000
-0.4737 0.3684 0.0000
-0.4737 0.4737 0.0000
-0.4737 0.5789 0.0000
-0.4737 0.6842 0.0000
-0.4737 0.7895 0.0000
-0.4737 0.8947 0.0000
-0.4737 1.0000 0.0000
-0.3684 -0.8947 0.0000
-0.3684 -0.7895 0.0000
-0.3684 -0.6842 0.0000
-0.3684 -0.5789 0.0000
-0.3684 -0.4737 0.0000
-0.3684 -0.3684 0.0000
-0.3684 -0.2632 0.0000
-0.3684 -0.1579 0.0000
-0.3684 -0.0526 0.0000
-0.3684 0.0526 0.0000
-0.3684 0.1579 0.0000
-0.3684 0.2632 0.0000
-0.3684 0.3684 0.0000
-0.3684 0.4737 0.0000
-0.3684 0.5789 0.0000
-0.3684 0.6842 0.0000
-0.3684 0.7895 0.0000
-0.3684 0.8947 0.0000
-0.3684 1.0000 0.0000
-0.2632 -0.8947 0.0000
-0.2632 -0.7895 0.0000
-0.2632 -0.6842 0.0000
-0.2632 -0.5789 0.0000
-0.2632 -0.4737 0.0000
-0.2632 -0.3684 0.0000
-0.2632 -0.2632 0.0000
-0.2632 0.3684 0.0000
-0.2632 0.4737 0.0000
-0.2632 0.5789 0.0000
-0.2632 0.6842 0.0000
-0.2632 0.7895 0.0000
-0.2632 0.8947 0.0000
-0.2632 1.0000 0.0000
-0.1579 -0.8947 0.0000
-0.1579 -0.7895 0.0000
-0.1579 -0.6842 0.0000
-0.1579 -0.5789 0.0000
-0.1579 -0.4737 0.0000
-0.1579 -0.3684 0.0000
-0.1579 -0.2632 0.0000
-0.1579 0.3684 0.0000
-0.1579 0.4737 0.0000
-0.1579 0.5789 0.0000
-0.1579 0.6842 0.0000
-0.1579 0.7895 0.0000
-0.1579 0.8947 0.0000
-0.1579 1.0000 0.0000
-0.0526 -0.8947 0.0000
-0.0526 -0.7895 0.0000
-0.0526 -0.6842 0.0000
-0.0526 -0.5789 0.0000
-0.0526 -0.4737 0.0000
-0.0526 -0.3684 0.0000
-0.0526 0.4737 0.0000
-0.0526 0.5789 0.0000
-0.0526 0.6842 0.0000
-0.0526 0.7895 0.0000
-0.0526 0.8947 0.0000
-0.0526 1.0000 0.0000
0.0526 -0.8947 0.0000
0.0526 -0.7895 0.0000
0.0526 -0.6842 0.0000
0.0526 -0.5789 0.0000
0.0526 -0.4737 0.0000
0.0526 -0.3684 0.0000
0.0526 0.4737 0.0000
0.0526 0.5789 0.0000
0.0526 0.6842 0.0000
0.0526 0.7895 0.0000
0.0526 0.8947 0.0000
0.0526 1.0000 0.0000
0.1579 -0.8947 0.0000
0.1579 -0.7895 0.0000
0.1579 -0.6842 0.0000
0.1579 -0.5789 0.0000
0.1579 -0.4737 0.0000
0.1579 -0.3684 0.0000
0.1579 -0.2632 0.0000
0.1579 0.3684 0.0000
0.1579 0.4737 0.0000
0.1579 0.5789 0.0000
0.1579 0.6842 0.0000
0.1579 0.7895 0.0000
0.1579 0.8947 0.0000
0.1579 1.0000 0.0000
0.2632 -0.8947 0.0000
0.2632 -0.7895 0.0000
0.2632 -0.6842 0.0000
0.2632 -0.5789 0.0000
0.2632 -0.4737 0.0000
0.2632 -0.3684 0.0000
0.2632 -0.2632 0.0000
0.2632 -0.1579 0.0000
0.2632 0.2632 0.0000
0.2632 0.3684 0.0000
0.2632 0.4737 0.0000
0.2632 0.5789 0.0000
0.2632 0.6842 0.0000
0.2632 0.7895 0.0000
0.2632 0.8947 0.0000
0.2632 1.0000 0.0000
0.3684 -0.8947 0.0000
0.3684 -0.7895 0.0000
0.3684 -0.6842 0.0000
0.3684 -0.5789 0.0000
0.3684 -0.4737 0.0000
0.3684 -0.3684 0.0000
0.3684 -0.2632 0.0000
0.3684 -0.1579 0.0000
0.3684 -0.0526 0.0000
0.3684 0.0526 0.0000
0.3684 0.1579 0.0000
0.3684 0.2632 0.0000
0.3684 0.3684 0.0000
0.3684 0.4737 0.0000
0.3684 0.5789 0.0000
0.3684 0.6842 0.0000
0.3684 0.7895 0.0000
0.3684 0.8947 0.0000
0.3684 1.0000 0.0000
0.4737 -0.8947 0.0000
0.4737 -0.7895 0.0000
0.4737 -0.6842 0.0000
0.4737 -0.5789 0.0000
0.4737 -0.4737 0.0000
0.4737 -0.3684 0.0000
0.4737 -0.2632 0.0000
0.4737 -0.1579 0.0000
0.4737 -0.0526 0.0000
0.4737 0.0526 0.0000
0.4737 0.1579 0.0000
0.4737 0.2632 0.0000
0.4737 0.3684 0.0000
0.4737 0.4737 0.0000
0.4737 0.5789 0.0000
0.4737 0.6842 0.0000
0.4737 0.7895 0.0000
0.4737 0.8947 0.0000
0.4737 1.0000 0.0000
0.5789 -0.8947 0.0000
0.5789 -0.7895 0.0000
0.5789 -0.6842 0.0000
0.5789 -0.5789 0.0000
0.5789 -0.4737 0.0000
0.5789 -0.3684 0.0000
0.5789 -0.2632 0.0000
0.5789 -0.1579 0.0000
0.5789 -0.0526 0.0000
0.5789 0.0526 0.0000
0.5789 0.1579 0.0000
0.5789 0.2632 0.0000
0.5789 0.3684 0.0000
0.5789 0.4737 0.0000
0.5789 0.5789 0.0000
0.5789 0.6842 0.0000
0.5789 0.7895 0.0000
0.5789 0.8947 0.0000
0.5789 1.0000 0.0000
0.6842 -0.8947 0.0000
0.6842 -0.7895 0.0000
0.6842 -0.6842 0.0000
0.6842 -0.5789 0.0000
0.6842 -0.4737 0.0000
0.6842 -0.3684 0.0000
0.6842 -0.2632 0.0000
0.6842 -0.1579 0.0000
0.6842 -0.0526 0.0000
0.6842 0.0526 0.0000
0.6842 0.1579 0.0000
0.6842 0.2632 0.0000
0.6842 0.3684 0.0000
0.6842 0.4737 0.0000
0.6842 0.5789 0.0000
0.6842 0.6842 0.0000
0.6842 0.7895 0.0000
0.6842 0.8947 0.0000
0.6842 1.0000 0.0000
0.7895 -0.8947 0.0000
0.7895 -0.7895 0.0000
0.7895 -0.6842 0.0000
0.7895 -0.5789 0.0000
0.7895 -0.4737 0.0000
0.7895 -0.3684 0.0000
0.7895 -0.2632 0.0000
0.7895 -0.1579 0.0000
0.7895 -0.0526 0.0000
0.7895 0.0526 0.0000
0.7895 0.1579 0.0000
0.7895 0.2632 0.0000
0.7895 0.3684 0.0000
0.7895 0.4737 0.0000
0.7895 0.5789 0.0000
0.7895 0.6842 0.0000
0.7895 0.7895 0.0000
0.7895 0.8947 0.0000
0.7895 1.0000 0.0000
0.8947 -0.8947 0.0000
0.8947 -0.7895 0.0000
0.8947 -0.6842 0.0000
0.8947 -0.5789 0.0000
0.8947 -0.4737 0.0000
0.8947 -0.3684 0.0000
0.8947 -0.2632 0.0000
0.8947 -0.1579 0.0000
0.8947 -0.0526 0.0000
0.8947 0.0526 0.0000
0.8947 0.1579 0.0000
0.8947 0.2632 0.0000
0.8947 0.3684 0.0000
0.8947 0.4737 0.0000
0.8947 0.5789 0.0000
0.8947 0.6842 0.0000
0.8947 0.7895 0.0000
0.8947 0.8947 0.0000
0.8947 1.0000 0.0000
-0.2632 -0.1579 0.0000
-0.2632 0.1579 0.0000
-0.2632 0.2632 0.0000
-0.0526 0.3684 0.0000
0.0526 0.3684 0.0000
1.0000 -0.8947 0.0000
1.0000 -0.7895 0.0000
1.0000 -0.6842 0.0000
1.0000 -0.5789 0.0000
1.0000 -0.4737 0.0000
1.0000 -0.3684 0.0000
1.0000 -0.2632 0.0000
1.0000 -0.1579 0.0000
1.0000 -0.0526 0.0000
1.0000 0.0526 0.0000
1.0000 0.1579 0.0000
1.0000 0.2632 0.0000
1.0000 0.3684 0.0000
1.0000 0.4737 0.0000
1.0000 0.5789 0.0000
1.0000 0.6842 0.0000
1.0000 0.7895 0.0000
1.0000 0.8947 0.0000
1.0000 1.0000 0.0000
-0.8947 -1.0000 0.0000
-0.7895 -1.0000 0.0000
-0.6842 -1.0000 0.0000
-0.5789 -1.0000 0.0000
-0.4737 -1.0000 0.0000
-0.3684 -1.0000 0.0000
-0.2632 -1.0000 0.0000
-0.1579 -1.0000 0.0000
-0.1579 0.2632 0.0000
-0.0526 -1.0000 0.0000
0.0526 -1.0000 0.0000
0.1579 -1.0000 0.0000
0.1579 0.2632 0.0000
0.2632 -1.0000 0.0000
0.3684 -1.0000 0.0000
0.4737 -1.0000 0.0000
0.5789 -1.0000 0.0000
0.6842 -1.0000 0.0000
0.7895 -1.0000 0.0000
0.8947 -1.0000 0.0000
1.0000 -1.0000 0.0000
-1.0000 -1.0000 0.0000
0.2632 0.1579 0.0000
-0.9474 -0.9474 0.0000
-0.9474 -0.8421 0.0000
-0.9474 -0.7368 0.0000
-0.9474 -0.6316 0.0000
-0.9474 -0.5263 0.0000
-0.9474 -0.4211 0.0000
-0.9474 -0.3158 0.0000
-0.9474 -0.2105 0.0000
-0.9474 -0.1053 0.0000
-0.9474 0.0000 0.0000
-0.9474 0.1053 0.0000
-0.9474 0.2105 0.0000
-0.9474 0.3158 0.0000
-0.9474 0.4211 0.0000
-0.9474 0.5263 0.0000
-0.9474 0.6316 0.0000
-0.9474 0.7368 0.0000
-0.9474 0.8421 0.0000
-0.9474 0.9474 0.0000
-0.8421 -0.9474 0.0000
-0.8421 -0.8421 0.0000
-0.8421 -0.7368 0.0000
-0.8421 -0.6316 0.0000
-0.8421 -0.5263 0.0000
-0.8421 -0.4211 0.0000
-0.8421 -0.3158 0.0000
-0.8421 -0.2105 0.0000
-0.8421 -0.1053 0.0000
-0.8421 0.0000 0.0000
-0.8421 0.1053 0.0000
-0.8421 0.2105 0.0000
-0.8421 0.3158 0.0000
-0.8421 0.4211 0.0000
-0.8421 0.5263 0.0000
-0.8421 0.6316 0.0000
-0.8421 0.7368 0.0000
-0.8421 0.8421 0.0000
-0.8421 0.9474 0.0000
-0.7368 -0.9474 0.0000
-0.7368 -0.8421 0.0000
-0.7368 -0.7368 0.0000
-0.7368 -0.6316 0.0000
-0.7368 -0.5263 0.0000
-0.7368 -0.4211 0.0000
-0.7368 -0.3158 0.0000
-0.7368 -0.2105 0.0000
-0.7368 -0.1053 0.0000
-0.7368 0.0000 0.0000
-0.7368 0.1053 0.0000
-0.7368 0.2105 0.0000
-0.7368 0.3158 0.0000
-0.7368 0.4211 0.0000
-0.7368 0.5263 0.0000
-0.7368 0.6316 0.0000
-0.7368 0.7368 0.0000
-0.7368 0.8421 0.0000
-0.7368 0.9474 0.0000
-0.6316 -0.9474 0.0000
-0.6316 -0.8421 0.0000
-0.6316 -0.7368 0.0000
-0.6316 -0.6316 0.0000
-0.6316 -0.5263 0.0000
-0.6316 -0.4211 0.0000
[...]
         <PointData>
            <DataArray Name="fValues" NumberOfComponents="3" format="ascii" type="Float64">
 2.35662e-01 -7.05374e-02        00000 
 2.32533e-01 -7.13959e-02        00000 
 2.29227e-01 -7.22108e-02        00000 
 2.25687e-01 -7.29878e-02        00000 
 2.21843e-01 -7.35332e-02        00000 
 2.17625e-01 -7.37597e-02        00000 
 2.12997e-01 -7.36200e-02        00000 
 2.07988e-01 -7.31194e-02        00000 
 2.02705e-01 -7.23258e-02        00000 
 1.97322e-01 -7.13621e-02        00000 
 1.92038e-01 -7.03757e-02        00000 
 1.87029e-01 -6.94975e-02        00000 
 1.82401e-01 -6.88090e-02        00000 
 1.78182e-01 -6.83302e-02        00000 
 1.74338e-01 -6.80274e-02        00000 
 1.70798e-01 -6.78273e-02        00000 
 1.67493e-01 -6.75796e-02        00000 
 1.64365e-01 -6.72688e-02        00000 
 1.68449e-01 -6.90662e-02        00000 
 2.44153e-01 -6.82658e-02        00000 
 2.39086e-01 -7.02895e-02        00000 
 2.35302e-01 -7.15023e-02        00000 
 2.31337e-01 -7.23795e-02        00000 
 2.27022e-01 -7.29983e-02        00000 
 2.22269e-01 -7.33132e-02        00000 
 2.17074e-01 -7.32726e-02        00000 
 2.11531e-01 -7.28537e-02        00000 
 2.05830e-01 -7.20941e-02        00000 
 2.00219e-01 -7.11028e-02        00000 
 1.94922e-01 -7.00408e-02        00000 
 1.90081e-01 -6.90723e-02        00000 
 1.85727e-01 -6.83142e-02        00000 
 1.81806e-01 -6.78100e-02        00000 
 1.78226e-01 -6.75391e-02        00000 
 1.74907e-01 -6.74532e-02        00000 
 1.71820e-01 -6.75824e-02        00000 
 1.69936e-01 -6.82545e-02        00000 
 1.68401e-01 -6.75413e-02        00000 
 2.50498e-01 -6.80542e-02        00000 
 2.45885e-01 -6.93496e-02        00000 
 2.41536e-01 -7.06714e-02        00000 
 2.37168e-01 -7.16696e-02        00000 
 2.32414e-01 -7.23951e-02        00000 
 2.27142e-01 -7.28290e-02        00000 
 2.21342e-01 -7.29049e-02        00000 
 2.15164e-01 -7.25595e-02        00000 
 2.08908e-01 -7.17932e-02        00000 
 2.02946e-01 -7.07150e-02        00000 
 1.97575e-01 -6.95297e-02        00000 
 1.92912e-01 -6.84635e-02        00000 
 1.88892e-01 -6.76766e-02        00000 
 1.85346e-01 -6.72218e-02        00000 
 1.82102e-01 -6.70646e-02        00000 
 1.79055e-01 -6.71395e-02        00000 
 1.76299e-01 -6.73971e-02        00000 
 1.73813e-01 -6.74509e-02        00000 
 1.70975e-01 -6.71142e-02        00000 
 2.56561e-01 -6.78688e-02        00000 
 2.52292e-01 -6.89296e-02        00000 
 2.47843e-01 -7.00022e-02        00000 
 2.43171e-01 -7.09604e-02        00000 
 2.38052e-01 -7.17302e-02        00000 
 2.32285e-01 -7.22645e-02        00000 
 2.25820e-01 -7.24574e-02        00000 
 2.18846e-01 -7.21752e-02        00000 
 2.11827e-01 -7.13572e-02        00000 
 2.05359e-01 -7.01205e-02        00000 
 1.99886e-01 -6.87585e-02        00000 
 1.95491e-01 -6.76020e-02        00000 
 1.91940e-01 -6.68573e-02        00000 
 1.88880e-01 -6.65502e-02        00000 
 1.86026e-01 -6.65797e-02        00000 
 1.83242e-01 -6.68000e-02        00000 
 1.80477e-01 -6.70211e-02        00000 
 1.77632e-01 -6.70631e-02        00000 
 1.74456e-01 -6.68369e-02        00000 
 2.62689e-01 -6.78113e-02        00000 
 2.58536e-01 -6.86770e-02        00000 
 2.54090e-01 -6.95056e-02        00000 
 2.49293e-01 -7.02819e-02        00000 
 2.43934e-01 -7.09817e-02        00000 
 2.37742e-01 -7.15454e-02        00000 
 2.30554e-01 -7.18243e-02        00000 
 2.22552e-01 -7.15830e-02        00000 
 2.14444e-01 -7.06553e-02        00000 
 2.07256e-01 -6.91740e-02        00000 
 2.01714e-01 -6.75964e-02        00000 
 1.97805e-01 -6.64159e-02        00000 
 1.94958e-01 -6.58636e-02        00000 
 1.92524e-01 -6.58610e-02        00000 
 1.90087e-01 -6.61828e-02        00000 
 1.87478e-01 -6.65933e-02        00000 
 1.84658e-01 -6.69049e-02        00000 
 1.81596e-01 -6.69941e-02        00000 
 1.78231e-01 -6.68326e-02        00000 
 2.68836e-01 -6.79838e-02        00000 
 2.64689e-01 -6.86122e-02        00000 
 2.60265e-01 -6.91502e-02        00000 
 2.55469e-01 -6.96437e-02        00000 
 2.50038e-01 -7.01274e-02        00000 
 2.43559e-01 -7.05774e-02        00000 
 2.35626e-01 -7.08198e-02        00000 
 2.26279e-01 -7.05159e-02        00000 
 2.16562e-01 -6.93732e-02        00000 
 2.08352e-01 -6.75743e-02        00000 
 2.02918e-01 -6.58537e-02        00000 
 1.99932e-01 -6.49028e-02        00000 
 1.98133e-01 -6.48332e-02        00000 
 1.96459e-01 -6.53562e-02        00000 
 1.94409e-01 -6.60906e-02        00000 
 1.91886e-01 -6.67511e-02        00000 
 1.88955e-01 -6.71798e-02        00000 
 1.85690e-01 -6.73151e-02        00000 
 1.82140e-01 -6.71610e-02        00000 
 2.74930e-01 -6.84703e-02        00000 
 2.70733e-01 -6.88218e-02        00000 
 2.66333e-01 -6.90264e-02        00000 
 2.61628e-01 -6.91473e-02        00000 
 2.56313e-01 -6.92545e-02        00000 
 2.49765e-01 -6.93724e-02        00000 
 2.41097e-01 -6.92671e-02        00000 
 2.29924e-01 -6.83680e-02        00000 
 2.17831e-01 -6.65080e-02        00000 
 2.08392e-01 -6.45823e-02        00000 
 2.03524e-01 -6.35011e-02        00000 
 2.02119e-01 -6.33852e-02        00000 
 2.01771e-01 -6.41828e-02        00000 
 2.00907e-01 -6.54192e-02        00000 
 1.99111e-01 -6.65997e-02        00000 
 1.96524e-01 -6.74666e-02        00000 
 1.93386e-01 -6.79520e-02        00000 
 1.89876e-01 -6.80737e-02        00000 
 1.86108e-01 -6.78751e-02        00000 
 2.80926e-01 -6.93230e-02        00000 
 2.76643e-01 -6.94153e-02        00000 
 2.72256e-01 -6.93154e-02        00000 
 2.67703e-01 -6.90574e-02        00000 
 2.62692e-01 -6.87277e-02        00000 
 2.56425e-01 -6.83541e-02        00000 
 2.47112e-01 -6.75804e-02        00000 
 2.06219e-01 -6.47190e-02        00000 
 2.06035e-01 -6.65748e-02        00000 
 2.04211e-01 -6.79998e-02        00000 
 2.01351e-01 -6.88630e-02        00000 
 1.97901e-01 -6.92525e-02        00000 
 1.94102e-01 -6.92657e-02        00000 
 1.90090e-01 -6.89755e-02        00000 
 2.86822e-01 -7.05336e-02        00000 
 2.82444e-01 -7.04711e-02        00000 
 2.78059e-01 -7.02220e-02        00000 
 2.73672e-01 -6.97769e-02        00000 
 2.69204e-01 -6.91838e-02        00000 
 2.63822e-01 -6.87406e-02        00000 
 2.55020e-01 -6.82184e-02        00000 
 2.11770e-01 -6.73010e-02        00000 
 2.11809e-01 -6.92328e-02        00000 
 2.09539e-01 -7.03659e-02        00000 
 2.06229e-01 -7.08825e-02        00000 
 2.02404e-01 -7.09833e-02        00000 
 1.98308e-01 -7.07937e-02        00000 
 1.94062e-01 -7.03848e-02        00000 
 2.92665e-01 -7.20046e-02        00000 
 2.88222e-01 -7.19621e-02        00000 
 2.83857e-01 -7.18281e-02        00000 
 2.79671e-01 -7.15941e-02        00000 
 2.75832e-01 -7.13208e-02        00000 
 2.72858e-01 -7.15535e-02        00000 
 2.17834e-01 -7.30454e-02        00000 
 2.14808e-01 -7.33137e-02        00000 
 2.10982e-01 -7.32042e-02        00000 
 2.06803e-01 -7.28936e-02        00000 
 2.02450e-01 -7.24594e-02        00000 
 1.98015e-01 -7.19406e-02        00000 
 2.98536e-01 -7.35440e-02        00000 
 2.94089e-01 -7.37012e-02        00000 
 2.89813e-01 -7.39363e-02        00000 
 2.85890e-01 -7.43032e-02        00000 
 2.82775e-01 -7.49538e-02        00000 
 2.81796e-01 -7.62484e-02        00000 
 2.23726e-01 -7.66834e-02        00000 
 2.19798e-01 -7.60255e-02        00000 
 2.15515e-01 -7.53146e-02        00000 
 2.11056e-01 -7.46349e-02        00000 
 2.06519e-01 -7.40015e-02        00000 
 2.01961e-01 -7.34200e-02        00000 
 3.04504e-01 -7.49021e-02        00000 
 3.00122e-01 -7.53675e-02        00000 
 2.96011e-01 -7.60752e-02        00000 
 2.92416e-01 -7.71403e-02        00000 
 2.89880e-01 -7.87607e-02        00000 
 2.89781e-01 -8.11357e-02        00000 
 2.94344e-01 -8.30913e-02        00000 
 2.34782e-01 -7.97060e-02        00000 
 2.29271e-01 -7.88176e-02        00000 
 2.24540e-01 -7.77353e-02        00000 
 2.19869e-01 -7.67414e-02        00000 
 2.15199e-01 -7.58861e-02        00000 
 2.10538e-01 -7.51701e-02        00000 
 2.05915e-01 -7.45940e-02        00000 
 3.10595e-01 -7.58438e-02        00000 
 3.06315e-01 -7.66202e-02        00000 
 3.02389e-01 -7.77159e-02        00000 
 2.99060e-01 -7.92306e-02        00000 
 2.96797e-01 -8.12589e-02        00000 
 2.96271e-01 -8.36689e-02        00000 
 2.97634e-01 -8.58307e-02        00000 
 2.98292e-01 -8.73080e-02        00000 
 2.50760e-01 -8.12631e-02        00000 
 2.41251e-01 -8.00343e-02        00000 
 2.34641e-01 -7.91119e-02        00000 
 2.29194e-01 -7.81800e-02        00000 
 2.24172e-01 -7.72714e-02        00000 
 2.19312e-01 -7.64666e-02        00000 
 2.14550e-01 -7.57979e-02        00000 
 2.09888e-01 -7.52876e-02        00000 
 3.16783e-01 -7.62164e-02        00000 
 3.12591e-01 -7.72275e-02        00000 
 3.08784e-01 -7.85296e-02        00000 
 3.05535e-01 -8.01453e-02        00000 
 3.03095e-01 -8.20030e-02        00000 
 3.01627e-01 -8.38246e-02        00000 
 3.00686e-01 -8.50656e-02        00000 
 2.98522e-01 -8.52006e-02        00000 
 2.92446e-01 -8.42070e-02        00000 
 2.81502e-01 -8.22781e-02        00000 
 2.68199e-01 -8.03384e-02        00000 
 2.56270e-01 -7.91846e-02        00000 
 2.47007e-01 -7.86369e-02        00000 
 2.39852e-01 -7.81721e-02        00000 
 2.33893e-01 -7.76046e-02        00000 
 2.28528e-01 -7.69785e-02        00000 
 2.23463e-01 -7.63682e-02        00000 
 2.18584e-01 -7.58330e-02        00000 
 2.13872e-01 -7.54175e-02        00000 
 3.23008e-01 -7.59783e-02        00000 
 3.18855e-01 -7.71241e-02        00000 
 3.15056e-01 -7.84749e-02        00000 
 3.11661e-01 -7.99673e-02        00000 
 3.08728e-01 -8.14282e-02        00000 
 3.06153e-01 -8.25437e-02        00000 
 3.03394e-01 -8.28933e-02        00000 
 2.99286e-01 -8.21658e-02        00000 
 2.92484e-01 -8.05153e-02        00000 
 2.82773e-01 -7.87175e-02        00000 
 2.71687e-01 -7.75046e-02        00000 
 2.61219e-01 -7.69789e-02        00000 
 2.52325e-01 -7.68027e-02        00000 
 2.44943e-01 -7.66618e-02        00000 
 2.38630e-01 -7.64210e-02        00000 
 2.32963e-01 -7.60845e-02        00000 
 2.27674e-01 -7.57024e-02        00000 
 2.22641e-01 -7.53229e-02        00000 
 2.17841e-01 -7.49947e-02        00000 
 3.29197e-01 -7.51798e-02        00000 
 3.25051e-01 -7.63825e-02        00000 
 3.21163e-01 -7.77134e-02        00000 
 3.17455e-01 -7.90317e-02        00000 
 3.13871e-01 -8.01259e-02        00000 
 3.10231e-01 -8.07354e-02        00000 
 3.06088e-01 -8.06156e-02        00000 
 3.00754e-01 -7.96887e-02        00000 
 2.93644e-01 -7.82186e-02        00000 
 2.84826e-01 -7.67378e-02        00000 
 2.75151e-01 -7.57036e-02        00000 
 2.65723e-01 -7.52098e-02        00000 
 2.57239e-01 -7.50573e-02        00000 
 2.49841e-01 -7.50102e-02        00000 
 2.43335e-01 -7.49391e-02        00000 
 2.37440e-01 -7.48092e-02        00000 
 2.31928e-01 -7.46204e-02        00000 
 2.26694e-01 -7.43745e-02        00000 
 2.21751e-01 -7.40967e-02        00000 
 3.35281e-01 -7.39094e-02        00000 
 3.31197e-01 -7.51533e-02        00000 
 3.27171e-01 -7.64879e-02        00000 
 3.23043e-01 -7.76897e-02        00000 
 3.18762e-01 -7.85352e-02        00000 
 3.14192e-01 -7.88706e-02        00000 
 3.09035e-01 -7.85902e-02        00000 
 3.02927e-01 -7.77256e-02        00000 
 2.95648e-01 -7.65011e-02        00000 
 2.87337e-01 -7.52649e-02        00000 
 2.78512e-01 -7.43105e-02        00000 
 2.69825e-01 -7.37374e-02        00000 
 2.61754e-01 -7.34670e-02        00000 
 2.54477e-01 -7.33600e-02        00000 
 2.47930e-01 -7.33149e-02        00000 
 2.41915e-01 -7.32929e-02        00000 
 2.36207e-01 -7.32533e-02        00000 
 2.30702e-01 -7.31136e-02        00000 
 2.25527e-01 -7.28336e-02        00000 
 3.41220e-01 -7.22664e-02        00000 
 3.37434e-01 -7.36118e-02        00000 
 3.33218e-01 -7.51000e-02        00000 
 3.28549e-01 -7.62019e-02        00000 
 3.23589e-01 -7.68896e-02        00000 
 3.18234e-01 -7.71054e-02        00000 
 3.12307e-01 -7.68154e-02        00000 
 3.05641e-01 -7.60744e-02        00000 
 2.98192e-01 -7.50490e-02        00000 
 2.90125e-01 -7.39713e-02        00000 
 2.81792e-01 -7.30462e-02        00000 
 2.73609e-01 -7.23766e-02        00000 
 2.65901e-01 -7.19565e-02        00000 
 2.58821e-01 -7.17206e-02        00000 
 2.52352e-01 -7.16021e-02        00000 
 2.46362e-01 -7.15740e-02        00000 
 2.40555e-01 -7.16656e-02        00000 
 2.34645e-01 -7.16701e-02        00000 
 2.29008e-01 -7.12953e-02        00000 
 3.47293e-01 -7.01016e-02        00000 
 3.44172e-01 -7.23983e-02        00000 
 3.39274e-01 -7.37521e-02        00000 
 3.34046e-01 -7.46800e-02        00000 
 3.28467e-01 -7.52601e-02        00000 
 3.22447e-01 -7.54466e-02        00000 
 3.15887e-01 -7.52133e-02        00000 
 3.08741e-01 -7.45979e-02        00000 
 3.01069e-01 -7.37136e-02        00000 
 2.93054e-01 -7.27229e-02        00000 
 2.84977e-01 -7.17866e-02        00000 
 2.77129e-01 -7.10155e-02        00000 
 2.69728e-01 -7.04506e-02        00000 
 2.62876e-01 -7.00755e-02        00000 
 2.56560e-01 -6.98436e-02        00000 
 2.50687e-01 -6.97071e-02        00000 
 2.45094e-01 -6.96952e-02        00000 
 2.38791e-01 -7.00943e-02        00000 
 2.31582e-01 -6.96418e-02        00000 
 2.32635e-01 -6.45816e-02        00000 
 2.03705e-01 -6.18754e-02        00000 
 2.04667e-01 -6.30159e-02        00000 
 2.18775e-01 -7.20298e-02        00000 
 2.26738e-01 -7.67441e-02        00000 
 3.55885e-01 -7.06198e-02        00000 
 3.50706e-01 -7.14788e-02        00000 
 3.45295e-01 -7.22941e-02        00000 
 3.39580e-01 -7.30715e-02        00000 
 3.33469e-01 -7.36173e-02        00000 
 3.26872e-01 -7.38443e-02        00000 
 3.19741e-01 -7.37051e-02        00000 
 3.12114e-01 -7.32052e-02        00000 
 3.04130e-01 -7.24122e-02        00000 
 2.96016e-01 -7.14490e-02        00000 
 2.88032e-01 -7.04629e-02        00000 
 2.80404e-01 -6.95849e-02        00000 
 2.73273e-01 -6.88962e-02        00000 
 2.66675e-01 -6.84170e-02        00000 
 2.60564e-01 -6.81136e-02        00000 
 2.54849e-01 -6.79127e-02        00000 
 2.49438e-01 -6.76640e-02        00000 
 2.44259e-01 -6.73520e-02        00000 
 2.31533e-01 -6.65835e-02        00000 
 2.50334e-01 -6.75747e-02        00000 
 2.54688e-01 -6.71493e-02        00000 
 2.60372e-01 -6.68736e-02        00000 
 2.66458e-01 -6.68706e-02        00000 
 2.72685e-01 -6.71997e-02        00000 
 2.78922e-01 -6.79138e-02        00000 
 2.85090e-01 -6.90130e-02        00000 
 2.91155e-01 -7.04201e-02        00000 
 2.07498e-01 -6.56471e-02        00000 
 2.97129e-01 -7.19725e-02        00000 
 3.03067e-01 -7.34483e-02        00000 
 3.09041e-01 -7.46192e-02        00000 
 2.43320e-01 -8.05194e-02        00000 
 3.15106e-01 -7.53107e-02        00000 
 3.21275e-01 -7.54398e-02        00000 
 3.27512e-01 -7.50173e-02        00000 
 3.33739e-01 -7.41205e-02        00000 
 3.39824e-01 -7.28591e-02        00000 
 3.45508e-01 -7.13227e-02        00000 
 3.49860e-01 -6.96714e-02        00000 
 3.50312e-01 -6.66140e-02        00000 
 2.49883e-01 -6.90991e-02        00000 
 2.65539e-01 -8.45895e-02        00000 
 2.45102e-01 -6.78642e-02        00000 
 2.37713e-01 -7.03644e-02        00000 
 2.33987e-01 -7.14094e-02        00000 
 2.30376e-01 -7.23232e-02        00000 
 2.26463e-01 -7.30336e-02        00000 
 2.22178e-01 -7.34679e-02        00000 
 2.17479e-01 -7.35623e-02        00000 
 2.12387e-01 -7.32832e-02        00000 
 2.07009e-01 -7.26504e-02        00000 
 2.01522e-01 -7.17497e-02        00000 
 1.96135e-01 -7.07220e-02        00000 
 1.91029e-01 -6.97256e-02        00000 
 1.86318e-01 -6.88890e-02        00000 
 1.82032e-01 -6.82785e-02        00000 
 1.78134e-01 -6.78937e-02        00000 
 1.74553e-01 -6.76842e-02        00000 
 1.71207e-01 -6.75833e-02        00000 
 1.68280e-01 -6.75157e-02        00000 
 1.68102e-01 -6.87353e-02        00000 
 2.49892e-01 -6.75121e-02        00000 
 2.44996e-01 -6.89330e-02        00000 
 2.40439e-01 -7.05238e-02        00000 
 2.36321e-01 -7.16061e-02        00000 
 2.31972e-01 -7.24154e-02        00000 
 2.27197e-01 -7.29488e-02        00000 
 2.21942e-01 -7.31555e-02        00000 
 2.16269e-01 -7.29771e-02        00000 
 2.10359e-01 -7.23945e-02        00000 
 2.04487e-01 -7.14701e-02        00000 
 1.98931e-01 -7.03564e-02        00000 
 1.93885e-01 -6.92543e-02        00000 
 1.89407e-01 -6.83399e-02        00000 
 1.85437e-01 -6.77089e-02        00000 
 1.81856e-01 -6.73669e-02        00000 
 1.78552e-01 -6.72650e-02        00000 
 1.75504e-01 -6.73517e-02        00000 
 1.73044e-01 -6.77466e-02        00000 
 1.70734e-01 -6.77529e-02        00000 
 2.55519e-01 -6.74391e-02        00000 
 2.51338e-01 -6.85076e-02        00000 
 2.46920e-01 -6.97507e-02        00000 
 2.42435e-01 -7.08638e-02        00000 
 2.37696e-01 -7.17346e-02        00000 
 2.32461e-01 -7.23666e-02        00000 
 2.26633e-01 -7.26971e-02        00000 
 2.20285e-01 -7.26237e-02        00000 
 2.13693e-01 -7.20667e-02        00000 
 2.07280e-01 -7.10597e-02        00000 
 2.01463e-01 -6.97937e-02        00000 
 1.96477e-01 -6.85549e-02        00000 
 1.92304e-01 -6.75913e-02        00000 
 1.88746e-01 -6.70157e-02        00000 
 1.85565e-01 -6.68053e-02        00000 
 1.82588e-01 -6.68632e-02        00000 
 1.79773e-01 -6.70905e-02        00000 
 1.77057e-01 -6.72779e-02        00000 
 1.74205e-01 -6.71587e-02        00000 
 2.61527e-01 -6.73508e-02        00000 
 2.57544e-01 -6.83072e-02        00000 
 2.53221e-01 -6.92782e-02        00000 
 2.48622e-01 -7.02031e-02        00000 
 2.43621e-01 -7.10186e-02        00000 
 2.37999e-01 -7.16836e-02        00000 
 2.31589e-01 -7.21133e-02        00000 
 2.24438e-01 -7.21384e-02        00000 
 2.16931e-01 -7.15788e-02        00000 
 2.09752e-01 -7.04168e-02        00000 
 2.03581e-01 -6.89210e-02        00000 
 1.98727e-01 -6.75324e-02        00000 
 1.95025e-01 -6.65967e-02        00000 
 1.92037e-01 -6.62048e-02        00000 
 1.89343e-01 -6.62413e-02        00000 
 1.86685e-01 -6.65170e-02        00000 
 1.83952e-01 -6.68368e-02        00000 
 1.81085e-01 -6.70230e-02        00000 
 1.77971e-01 -6.69552e-02        00000 
 2.67687e-01 -6.74764e-02        00000 
 2.63717e-01 -6.82701e-02        00000 
 2.59431e-01 -6.89835e-02        00000 
 2.54815e-01 -6.96453e-02        00000 
 2.49711e-01 -7.02675e-02        00000 
 2.43832e-01 -7.08440e-02        00000 
 2.36875e-01 -7.12848e-02        00000 
 2.28761e-01 -7.13539e-02        00000 
 2.19986e-01 -7.07330e-02        00000 
 2.11693e-01 -6.93220e-02        00000 
 2.05078e-01 -6.75360e-02        00000 
 2.00564e-01 -6.60769e-02        00000 
 1.97647e-01 -6.53729e-02        00000 
 1.95453e-01 -6.53835e-02        00000 
 1.93318e-01 -6.58243e-02        00000 
 1.90934e-01 -6.63937e-02        00000 
 1.88230e-01 -6.68712e-02        00000 
 1.85219e-01 -6.71238e-02        00000 
 1.81913e-01 -6.70989e-02        00000 
 2.73872e-01 -6.79096e-02        00000 
 2.69832e-01 -6.84784e-02        00000 
 2.65547e-01 -6.88996e-02        00000 
 2.60970e-01 -6.92305e-02        00000 
 2.55909e-01 -6.95288e-02        00000 
 2.49960e-01 -6.98415e-02        00000 
 2.42555e-01 -7.01010e-02        00000 
 2.33306e-01 -6.99710e-02        00000 
 2.22739e-01 -6.89883e-02        00000 
 2.12800e-01 -6.71630e-02        00000 
 2.05716e-01 -6.53071e-02        00000 
 2.02019e-01 -6.42132e-02        00000 
 2.00380e-01 -6.41446e-02        00000 
 1.99228e-01 -6.48466e-02        00000 
 1.97666e-01 -6.58347e-02        00000 
 1.95457e-01 -6.67351e-02        00000 
 1.92680e-01 -6.73632e-02        00000 
 1.89478e-01 -6.76607e-02        00000 
 1.85959e-01 -6.76335e-02        00000 
 2.79998e-01 -6.87016e-02        00000 
 2.75841e-01 -6.90183e-02        00000 
 2.71529e-01 -6.91432e-02        00000 
 2.67027e-01 -6.91176e-02        00000 
 2.62139e-01 -6.90086e-02        00000 
 2.56360e-01 -6.88921e-02        00000 
 2.48683e-01 -6.87242e-02        00000 