<?xml version="1.0" encoding="utf-8"?>
<VTKFile byte_order="LittleEndian" type="UnstructuredGrid" version="0.1">
   <UnstructuredGrid>
      <Piece NumberOfCells="1136" NumberOfPoints="736">
         <Points>
            <DataArray Name="Points" NumberOfComponents="3" format="ascii" type="Float32">
-1.0000 -0.8947 0.0000
-1.0000 -0.7895 0.0000
-1.0000 -0.6842 0.0000
-1.0000 -0.5789 0.0000
-1.0000 -0.4737 0.0000
-1.0000 -0.3684 0.0000
-1.0000 -0.2632 0.0000
-1.0000 -0.1579 0.0000
-1.0000 -0.0526 0.0000
-1.0000 0.0526 0.0000
-1.0000 0.1579 0.0000
-1.0000 0.2632 0.0000
-1.0000 0.3684 0.0000
-1.0000 0.4737 0.0000
-1.0000 0.5789 0.0000
-1.0000 0.6842 0.0000
-1.0000 0.7895 0.0000
-1.0000 0.8947 0.0000
-1.0000 1.0000 0.0000
-0.8947 -0.8947 0.0000
-0.8947 -0.7895 0.0000
-0.8947 -0.6842 0.0000
-0.8947 -0.5789 0.0000
-0.8947 -0.4737 0.0000
-0.8947 -0.3684 0.0000
-0.8947 -0.2632 0.0000
-0.8947 -0.1579 0.0000
-0.8947 -0.0526 0.0000
-0.8947 0.0526 0.0000
-0.8947 0.1579 0.0000
-0.8947 0.2632 0.0000
-0.8947 0.3684 0.0000
-0.8947 0.4737 0.0000
-0.8947 0.5789 0.0000
-0.8947 0.6842 0.0000
-0.8947 0.7895 0.0000
-0.8947 0.8947 0.0000
-0.8947 1.0000 0.0000
-0.7895 -0.8947 0.0000
-0.7895 -0.7895 0.0000
-0.7895 -0.6842 0.0000
-0.7895 -0.5789 0.0000
-0.7895 -0.4737 0.0000
-0.7895 -0.3684 0.0000
-0.7895 -0.2632 0.0000
-0.7895 -0.1579 0.0000
-0.7895 -0.0526 0.0000
-0.7895 0.0526 0.0000
-0.7895 0.1579 0.0000
-0.7895 0.2632 0.0000
-0.7895 0.3684 0.0000
-0.7895 0.4737 0.0000
-0.7895 0.5789 0.0000
-0.7895 0.6842 0.0000
-0.7895 0.7895 0.0000
-0.7895 0.8947 0.0000
-0.7895 1.0000 0.0000
-0.6842 -0.8947 0.0000
-0.6842 -0.7895 0.0000
-0.6842 -0.6842 0.0000
-0.6842 -0.5789 0.0000
-0.6842 -0.4737 0.0000
-0.6842 -0.3684 0.0000
-0.6842 -0.2632 0.0000
-0.6842 -0.1579 0.0000
-0.6842 -0.0526 0.0000
-0.6842 0.0526 0.0000
-0.6842 0.1579 0.0000
-0.6842 0.2632 0.0000
-0.6842 0.3684 0.0000
-0.6842 0.4737 0.0000
-0.6842 0.5789 0.0000
-0.6842 0.6842 0.0000
-0.6842 0.7895 0.0000
-0.6842 0.8947 0.0000
-0.6842 1.0000 0.0000
-0.5789 -0.8947 0.0000
-0.5789 -0.7895 0.0000
-0.5789 -0.6842 0.0000
-0.5789 -0.5789 0.0000
-0.5789 -0.4737 0.0000
-0.5789 -0.3684 0.0000
-0.5789 -0.2632 0.0000
-0.5789 0.3684 0.0000
-0.5789 0.4737 0.0000
-0.5789 0.5789 0.0000
-0.5789 0.6842 0.0000
-0.5789 0.7895 0.0000
-0.5789 0.8947 0.0000
-0.5789 1.0000 0.0000
-0.4737 -0.8947 0.0000
-0.4737 -0.7895 0.0000
-0.4737 -0.6842 0.0000
-0.4737 -0.5789 0.0000
-0.4737 -0.4737 0.0000
-0.4737 0.5789 0.0000
-0.4737 0.6842 0.0000
-0.4737 0.7895 0.0000
-0.4737 0.8947 0.0000
-0.4737 1.0000 0.0000
-0.3684 -0.8947 0.0000
-0.3684 -0.7895 0.0000
-0.3684 -0.6842 0.0000
-0.3684 -0.5789 0.0000
-0.3684 0.6842 0.0000
-0.3684 0.7895 0.0000
-0.3684 0.8947 0.0000
-0.3684 1.0000 0.0000
-0.2632 -0.8947 0.0000
-0.2632 -0.7895 0.0000
-0.2632 -0.6842 0.0000
-0.2632 -0.5789 0.0000
-0.2632 0.6842 0.0000
-0.2632 0.7895 0.0000
-0.2632 0.8947 0.0000
-0.2632 1.0000 0.0000
-0.1579 -0.8947 0.0000
-0.1579 -0.7895 0.0000
-0.1579 -0.6842 0.0000
-0.1579 0.7895 0.0000
-0.1579 0.8947 0.0000
-0.1579 1.0000 0.0000
-0.0526 -0.8947 0.0000
-0.0526 -0.7895 0.0000
-0.0526 -0.6842 0.0000
-0.0526 0.7895 0.0000
-0.0526 0.8947 0.0000
-0.0526 1.0000 0.0000
0.0526 -0.8947 0.0000
0.0526 -0.7895 0.0000
0.0526 -0.6842 0.0000
0.0526 0.7895 0.0000
0.0526 0.8947 0.0000
0.0526 1.0000 0.0000
0.1579 -0.8947 0.0000
0.1579 -0.7895 0.0000
0.1579 -0.6842 0.0000
0.1579 0.7895 0.0000
0.1579 0.8947 0.0000
0.1579 1.0000 0.0000
0.2632 -0.8947 0.0000
0.2632 -0.7895 0.0000
0.2632 -0.6842 0.0000
0.2632 -0.5789 0.0000
0.2632 0.6842 0.0000
0.2632 0.7895 0.0000
0.2632 0.8947 0.0000
0.2632 1.0000 0.0000
0.3684 -0.8947 0.0000
0.3684 -0.7895 0.0000
0.3684 -0.6842 0.0000
0.3684 -0.5789 0.0000
0.3684 0.6842 0.0000
0.3684 0.7895 0.0000
0.3684 0.8947 0.0000
0.3684 1.0000 0.0000
0.4737 -0.8947 0.0000
0.4737 -0.7895 0.0000
0.4737 -0.6842 0.0000
0.4737 -0.5789 0.0000
0.4737 -0.4737 0.0000
0.4737 0.5789 0.0000
0.4737 0.6842 0.0000
0.4737 0.7895 0.0000
0.4737 0.8947 0.0000
0.4737 1.0000 0.0000
0.5789 -0.8947 0.0000
0.5789 -0.7895 0.0000
0.5789 -0.6842 0.0000
0.5789 -0.5789 0.0000
0.5789 -0.4737 0.0000
0.5789 -0.3684 0.0000
0.5789 -0.2632 0.0000
0.5789 0.3684 0.0000
0.5789 0.4737 0.0000
0.5789 0.5789 0.0000
0.5789 0.6842 0.0000
0.5789 0.7895 0.0000
0.5789 0.8947 0.0000
0.5789 1.0000 0.0000
0.6842 -0.8947 0.0000
0.6842 -0.7895 0.0000
0.6842 -0.6842 0.0000
0.6842 -0.5789 0.0000
0.6842 -0.4737 0.0000
0.6842 -0.3684 0.0000
0.6842 -0.2632 0.0000
0.6842 -0.1579 0.0000
0.6842 -0.0526 0.0000
0.6842 0.0526 0.0000
0.6842 0.1579 0.0000
0.6842 0.2632 0.0000
0.6842 0.3684 0.0000
0.6842 0.4737 0.0000
0.6842 0.5789 0.0000
0.6842 0.6842 0.0000
0.6842 0.7895 0.0000
0.6842 0.8947 0.0000
0.6842 1.0000 0.0000
0.7895 -0.8947 0.0000
0.7895 -0.7895 0.0000
0.7895 -0.6842 0.0000
0.7895 -0.5789 0.0000
0.7895 -0.4737 0.0000
0.7895 -0.3684 0.0000
0.7895 -0.2632 0.0000
0.7895 -0.1579 0.0000
0.7895 -0.0526 0.0000
0.7895 0.0526 0.0000
0.7895 0.1579 0.0000
0.7895 0.2632 0.0000
0.7895 0.3684 0.0000
0.7895 0.4737 0.0000
0.7895 0.5789 0.0000
0.7895 0.6842 0.0000
0.7895 0.7895 0.0000
0.7895 0.8947 0.0000
0.7895 1.0000 0.0000
0.8947 -0.8947 0.0000
0.8947 -0.7895 0.0000
0.8947 -0.6842 0.0000
0.8947 -0.5789 0.0000
0.8947 -0.4737 0.0000
0.8947 -0.3684 0.0000
0.8947 -0.2632 0.0000
0.8947 -0.1579 0.0000
0.8947 -0.0526 0.0000
0.8947 0.0526 0.0000
0.8947 0.1579 0.0000
0.8947 0.2632 0.0000
0.8947 0.3684 0.0000
0.8947 0.4737 0.0000
0.8947 0.5789 0.0000
0.8947 0.6842 0.0000
0.8947 0.7895 0.0000
0.8947 0.8947 0.0000
0.8947 1.0000 0.0000
-0.5789 0.2632 0.0000
-0.4737 0.4737 0.0000
-0.3684 0.5789 0.0000
-0.2632 0.5789 0.0000
-0.1579 0.6842 0.0000
-0.0526 0.6842 0.0000
0.0526 0.6842 0.0000
0.1579 0.6842 0.0000
0.3684 0.5789 0.0000
1.0000 -0.8947 0.0000
1.0000 -0.7895 0.0000
1.0000 -0.6842 0.0000
1.0000 -0.5789 0.0000
1.0000 -0.4737 0.0000
1.0000 -0.3684 0.0000
1.0000 -0.2632 0.0000
1.0000 -0.1579 0.0000
1.0000 -0.0526 0.0000
1.0000 0.0526 0.0000
1.0000 0.1579 0.0000
1.0000 0.2632 0.0000
1.0000 0.3684 0.0000
1.0000 0.4737 0.0000
1.0000 0.5789 0.0000
1.0000 0.6842 0.0000
1.0000 0.7895 0.0000
1.0000 0.8947 0.0000
1.0000 1.0000 0.0000
-0.8947 -1.0000 0.0000
-0.7895 -1.0000 0.0000
-0.6842 -1.0000 0.0000
-0.5789 -1.0000 0.0000
-0.4737 -1.0000 0.0000
-0.3684 -1.0000 0.0000
-0.2632 -1.0000 0.0000
-0.1579 -1.0000 0.0000
-0.0526 -1.0000 0.0000
0.0526 -1.0000 0.0000
0.1579 -1.0000 0.0000
0.2632 -1.0000 0.0000
0.2632 0.5789 0.0000
0.3684 -1.0000 0.0000
0.4737 -1.0000 0.0000
0.4737 0.4737 0.0000
0.5789 -1.0000 0.0000
0.5789 0.2632 0.0000
0.6842 -1.0000 0.0000
0.7895 -1.0000 0.0000
0.8947 -1.0000 0.0000
1.0000 -1.0000 0.0000
-1.0000 -1.0000 0.0000
-0.9474 -0.9474 0.0000
-0.9474 -0.8421 0.0000
-0.9474 -0.7368 0.0000
-0.9474 -0.6316 0.0000
-0.9474 -0.5263 0.0000
-0.9474 -0.4211 0.0000
-0.9474 -0.3158 0.0000
-0.9474 -0.2105 0.0000
-0.9474 -0.1053 0.0000
-0.9474 0.0000 0.0000
-0.9474 0.1053 0.0000
-0.9474 0.2105 0.0000
-0.9474 0.3158 0.0000
-0.9474 0.4211 0.0000
-0.9474 0.5263 0.0000
-0.9474 0.6316 0.0000
-0.9474 0.7368 0.0000
-0.9474 0.8421 0.0000
-0.9474 0.9474 0.0000
-0.8421 -0.9474 0.0000
-0.8421 -0.8421 0.0000
-0.8421 -0.7368 0.0000
-0.8421 -0.6316 0.0000
-0.8421 -0.5263 0.0000
-0.8421 -0.4211 0.0000
-0.8421 -0.3158 0.0000
-0.8421 -0.2105 0.0000
-0.8421 -0.1053 0.0000
-0.8421 0.0000 0.0000
-0.8421 0.1053 0.0000
-0.8421 0.2105 0.0000
-0.8421 0.3158 0.0000
-0.8421 0.4211 0.0000
-0.8421 0.5263 0.0000
-0.8421 0.6316 0.0000
-0.8421 0.7368 0.0000
-0.8421 0.8421 0.0000
-0.8421 0.9474 0.0000
-0.7368 -0.9474 0.0000
-0.7368 -0.8421 0.0000
-0.7368 -0.7368 0.0000
-0.7368 -0.6316 0.0000
-0.7368 -0.5263 0.0000
-0.7368 -0.4211 0.0000
-0.7368 -0.3158 0.0000
-0.7368 -0.2105 0.0000
-0.7368 -0.1053 0.0000
-0.7368 0.0000 0.0000
-0.7368 0.1053 0.0000
-0.7368 0.2105 0.0000
-0.7368 0.3158 0.0000
-0.7368 0.4211 0.0000
-0.7368 0.5263 0.0000
-0.7368 0.6316 0.0000
-0.7368 0.7368 0.0000
-0.7368 0.8421 0.0000
-0.7368 0.9474 0.0000
-0.6316 -0.9474 0.0000
-0.6316 -0.8421 0.0000
-0.6316 -0.7368 0.0000
-0.6316 -0.6316 0.0000
-0.6316 -0.5263 0.0000
-0.6316 -0.4211 0.0000
-0.6316 -0.3158 0.0000
-0.6316 -0.2105 0.0000
-0.6316 -0.1053 0.0000
-0.6316 0.0000 0.0000
-0.6316 0.1053 0.0000
-0.6316 0.2105 0.0000
-0.6316 0.3158 0.0000
-0.6316 0.4211 0.0000
-0.6316 0.5263 0.0000
-0.6316 0.6316 0.0000
-0.6316 0.7368 0.0000
-0.6316 0.8421 0.0000
-0.6316 0.9474 0.0000
-0.5263 -0.9474 0.0000
-0.5263 -0.8421 0.0000
-0.5263 -0.7368 0.0000
-0.5263 -0.6316 0.0000
-0.5263 -0.5263 0.0000
-0.5263 -0.4211 0.0000
-0.5263 -0.3158 0.0000
-0.5263 0.3158 0.0000
-0.5263 0.4211 0.0000
-0.5263 0.5263 0.0000
-0.5263 0.6316 0.0000
-0.5263 0.7368 0.0000
-0.5263 0.8421 0.0000
-0.5263 0.9474 0.0000
-0.4211 -0.9474 0.0000
-0.4211 -0.8421 0.0000
-0.4211 -0.7368 0.0000
-0.4211 -0.6316 0.0000
-0.4211 -0.5263 0.0000
-0.4211 0.5263 0.0000
-0.4211 0.6316 0.0000
-0.4211 0.7368 0.0000
-0.4211 0.8421 0.0000
-0.4211 0.9474 0.0000
-0.3158 -0.9474 0.0000
-0.3158 -0.8421 0.0000
-0.3158 -0.7368 0.0000
-0.3158 -0.6316 0.0000
-0.3158 0.6316 0.0000
-0.3158 0.7368 0.0000
-0.3158 0.8421 0.0000
-0.3158 0.9474 0.0000
-0.2105 -0.9474 0.0000
-0.2105 -0.8421 0.0000
-0.2105 -0.7368 0.0000
-0.2105 -0.6316 0.0000
-0.2105 0.6316 0.0000
-0.2105 0.7368 0.0000
-0.2105 0.8421 0.0000
-0.2105 0.9474 0.0000
-0.1053 -0.9474 0.0000
-0.1053 -0.8421 0.0000
-0.1053 -0.7368 0.0000
-0.1053 0.7368 0.0000
-0.1053 0.8421 0.0000
-0.1053 0.9474 0.0000
0.0000 -0.9474 0.0000
0.0000 -0.8421 0.0000
0.0000 -0.7368 0.0000
0.0000 0.7368 0.0000
0.0000 0.8421 0.0000
0.0000 0.9474 0.0000
0.1053 -0.9474 0.0000
0.1053 -0.8421 0.0000
0.1053 -0.7368 0.0000
0.1053 0.7368 0.0000
0.1053 0.8421 0.0000
0.1053 0.9474 0.0000
0.2105 -0.9474 0.0000
0.2105 -0.8421 0.0000
0.2105 -0.7368 0.0000
0.2105 0.7368 0.0000
0.2105 0.8421 0.0000
0.2105 0.9474 0.0000
0.3158 -0.9474 0.0000
0.3158 -0.8421 0.0000
0.3158 -0.7368 0.0000
0.3158 -0.6316 0.0000
0.3158 0.6316 0.0000
0.3158 0.7368 0.0000
0.3158 0.8421 0.0000
0.3158 0.9474 0.0000
0.4211 -0.9474 0.0000
0.4211 -0.8421 0.0000
[...]
         <PointData>
            <DataArray Name="fValues" NumberOfComponents="3" format="ascii" type="Float64">
 1.61383e-01  5.16195e-02        00000 
 1.63084e-01  5.11693e-02        00000 
 1.65201e-01  5.08381e-02        00000 
 1.67963e-01  5.07026e-02        00000 
 1.71584e-01  5.09325e-02        00000 
 1.76222e-01  5.16000e-02        00000 
 1.81937e-01  5.27080e-02        00000 
 1.88630e-01  5.41875e-02        00000 
 1.96021e-01  5.59067e-02        00000 
 2.03666e-01  5.76860e-02        00000 
 2.11057e-01  5.93129e-02        00000 
 2.17751e-01  6.05688e-02        00000 
 2.23465e-01  6.12693e-02        00000 
 2.28105e-01  6.13103e-02        00000 
 2.31726e-01  6.06922e-02        00000 
 2.34489e-01  5.95159e-02        00000 
 2.36606e-01  5.80232e-02        00000 
 2.38308e-01  5.63069e-02        00000 
 2.49254e-01  5.26523e-02        00000 
 1.66174e-01  5.02973e-02        00000 
 1.66629e-01  4.90887e-02        00000 
 1.68211e-01  4.84151e-02        00000 
 1.70364e-01  4.81081e-02        00000 
 1.73297e-01  4.82072e-02        00000 
 1.77238e-01  4.87763e-02        00000 
 1.82350e-01  4.98175e-02        00000 
 1.88641e-01  5.12589e-02        00000 
 1.95909e-01  5.29610e-02        00000 
 2.03745e-01  5.47396e-02        00000 
 2.11643e-01  5.63881e-02        00000 
 2.19124e-01  5.76893e-02        00000 
 2.25818e-01  5.84538e-02        00000 
 2.31497e-01  5.85606e-02        00000 
 2.36090e-01  5.79929e-02        00000 
 2.39692e-01  5.68040e-02        00000 
 2.42544e-01  5.49856e-02        00000 
 2.46142e-01  5.21817e-02        00000 
 2.50023e-01  5.06998e-02        00000 
 1.69731e-01  4.80795e-02        00000 
 1.70273e-01  4.71800e-02        00000 
 1.71193e-01  4.62737e-02        00000 
 1.72641e-01  4.57028e-02        00000 
 1.74787e-01  4.55578e-02        00000 
 1.77953e-01  4.58963e-02        00000 
 1.82440e-01  4.67224e-02        00000 
 1.88377e-01  4.79712e-02        00000 
 1.95631e-01  4.95392e-02        00000 
 2.03787e-01  5.12957e-02        00000 
 2.12307e-01  5.30529e-02        00000 
 2.20670e-01  5.45713e-02        00000 
 2.28430e-01  5.55581e-02        00000 
 2.35197e-01  5.58358e-02        00000 
 2.40765e-01  5.53622e-02        00000 
 2.45174e-01  5.42019e-02        00000 
 2.48814e-01  5.24095e-02        00000 
 2.51998e-01  5.04575e-02        00000 
 2.54232e-01  4.86848e-02        00000 
 1.73221e-01  4.64678e-02        00000 
 1.73739e-01  4.55205e-02        00000 
 1.74199e-01  4.45059e-02        00000 
 1.74889e-01  4.36562e-02        00000 
 1.76137e-01  4.31523e-02        00000 
 1.78441e-01  4.30918e-02        00000 
 1.82296e-01  4.33875e-02        00000 
 1.87910e-01  4.40303e-02        00000 
 1.95214e-01  4.50763e-02        00000 
 2.03650e-01  4.66748e-02        00000 
 2.12784e-01  4.88168e-02        00000 
 2.22110e-01  5.09512e-02        00000 
 2.31147e-01  5.25643e-02        00000 
 2.39174e-01  5.32242e-02        00000 
 2.45743e-01  5.30218e-02        00000 
 2.50891e-01  5.20806e-02        00000 
 2.54846e-01  5.06502e-02        00000 
 2.57799e-01  4.89796e-02        00000 
 2.59681e-01  4.72069e-02        00000 
 1.76904e-01  4.56661e-02        00000 
 1.77269e-01  4.46146e-02        00000 
 1.77273e-01  4.34263e-02        00000 
 1.77179e-01  4.23061e-02        00000 
 1.77442e-01  4.14184e-02        00000 
 1.78737e-01  4.07343e-02        00000 
 1.82156e-01  4.02014e-02        00000 
 2.33787e-01  4.93940e-02        00000 
 2.43327e-01  5.09429e-02        00000 
 2.51038e-01  5.11967e-02        00000 
 2.56799e-01  5.05856e-02        00000 
 2.60942e-01  4.94910e-02        00000 
 2.63821e-01  4.81099e-02        00000 
 2.65592e-01  4.64764e-02        00000 
 1.80815e-01  4.58858e-02        00000 
 1.81006e-01  4.47510e-02        00000 
 1.80528e-01  4.34115e-02        00000 
 1.79542e-01  4.21036e-02        00000 
 1.78585e-01  4.10681e-02        00000 
 2.56828e-01  5.01725e-02        00000 
 2.63012e-01  4.98551e-02        00000 
 2.67202e-01  4.91403e-02        00000 
 2.70037e-01  4.80810e-02        00000 
 2.71760e-01  4.67063e-02        00000 
 1.84958e-01  4.72771e-02        00000 
 1.85034e-01  4.61358e-02        00000 
 1.84064e-01  4.47175e-02        00000 
 1.81970e-01  4.34088e-02        00000 
 2.69593e-01  5.03385e-02        00000 
 2.73705e-01  4.98297e-02        00000 
 2.76396e-01  4.90826e-02        00000 
 2.78083e-01  4.80405e-02        00000 
 1.89316e-01  4.98567e-02        00000 
 1.89395e-01  4.88091e-02        00000 
 1.88076e-01  4.74418e-02        00000 
 1.84486e-01  4.62219e-02        00000 
 2.77045e-01  5.22909e-02        00000 
 2.80480e-01  5.16936e-02        00000 
 2.82847e-01  5.12073e-02        00000 
 2.84491e-01  5.05028e-02        00000 
 1.93857e-01  5.34442e-02        00000 
 1.94132e-01  5.25681e-02        00000 
 1.92761e-01  5.12884e-02        00000 
 2.87456e-01  5.47688e-02        00000 
 2.89348e-01  5.44016e-02        00000 
 2.90941e-01  5.39430e-02        00000 
 1.98527e-01  5.76440e-02        00000 
 1.99243e-01  5.70083e-02        00000 
 1.98446e-01  5.58051e-02        00000 
 2.94576e-01  5.89230e-02        00000 
 2.95885e-01  5.83928e-02        00000 
 2.97411e-01  5.80026e-02        00000 
 2.03248e-01  6.18808e-02        00000 
 2.04584e-01  6.15434e-02        00000 
 2.05065e-01  6.07158e-02        00000 
 3.01693e-01  6.34637e-02        00000 
 3.02440e-01  6.26314e-02        00000 
 3.03887e-01  6.21358e-02        00000 
 2.07939e-01  6.55049e-02        00000 
 2.09940e-01  6.54012e-02        00000 
 2.11914e-01  6.50767e-02        00000 
 3.08573e-01  6.76080e-02        00000 
 3.08957e-01  6.64635e-02        00000 
 3.10353e-01  6.57310e-02        00000 
 2.12556e-01  6.79968e-02        00000 
 2.15150e-01  6.79403e-02        00000 
 2.18529e-01  6.77779e-02        00000 
 2.23949e-01  6.72323e-02        00000 
 3.16439e-01  7.26016e-02        00000 
 3.15078e-01  7.08173e-02        00000 
 3.15383e-01  6.93428e-02        00000 
 3.16797e-01  6.82827e-02        00000 
 2.17057e-01  6.91158e-02        00000 
 2.20116e-01  6.90231e-02        00000 
 2.24329e-01  6.91399e-02        00000 
 2.30162e-01  6.96730e-02        00000 
 3.22109e-01  7.47505e-02        00000 
 3.21242e-01  7.27055e-02        00000 
 3.21690e-01  7.09124e-02        00000 
 3.23197e-01  6.95031e-02        00000 
 2.21392e-01  6.88430e-02        00000 
 2.24745e-01  6.86705e-02        00000 
 2.29246e-01  6.88099e-02        00000 
 2.35536e-01  6.92802e-02        00000 
 2.44557e-01  7.05686e-02        00000 
 3.28200e-01  7.73462e-02        00000 
 3.27315e-01  7.52484e-02        00000 
 3.27146e-01  7.30519e-02        00000 
 3.27856e-01  7.10291e-02        00000 
 3.29509e-01  6.93259e-02        00000 
 2.25522e-01  6.73163e-02        00000 
 2.29054e-01  6.70247e-02        00000 
 2.33706e-01  6.69898e-02        00000 
 2.39894e-01  6.73613e-02        00000 
 2.48030e-01  6.84648e-02        00000 
 2.58183e-01  7.07185e-02        00000 
 2.70370e-01  7.39159e-02        00000 
 3.29402e-01  7.93778e-02        00000 
 3.31309e-01  7.79875e-02        00000 
 3.31994e-01  7.62489e-02        00000 
 3.32324e-01  7.41448e-02        00000 
 3.32835e-01  7.18952e-02        00000 
 3.33854e-01  6.97527e-02        00000 
 3.35666e-01  6.78599e-02        00000 
 2.29422e-01  6.47814e-02        00000 
 2.33121e-01  6.43588e-02        00000 
 2.37777e-01  6.41367e-02        00000 
 2.43674e-01  6.42890e-02        00000 
 2.51111e-01  6.50000e-02        00000 
 2.60285e-01  6.63500e-02        00000 
 2.70969e-01  6.84586e-02        00000 
 2.82642e-01  7.09077e-02        00000 
 2.94781e-01  7.32299e-02        00000 
 3.06476e-01  7.48224e-02        00000 
 3.16783e-01  7.56971e-02        00000 
 3.24720e-01  7.60127e-02        00000 
 3.30231e-01  7.58145e-02        00000 
 3.33684e-01  7.50676e-02        00000 
 3.35799e-01  7.36508e-02        00000 
 3.37236e-01  7.17074e-02        00000 
 3.38396e-01  6.94837e-02        00000 
 3.39659e-01  6.72879e-02        00000 
 3.41566e-01  6.53301e-02        00000 
 2.33086e-01  6.15347e-02        00000 
 2.37024e-01  6.09631e-02        00000 
 2.41570e-01  6.05008e-02        00000 
 2.47070e-01  6.04712e-02        00000 
 2.53932e-01  6.09078e-02        00000 
 2.62305e-01  6.18527e-02        00000 
 2.72120e-01  6.32573e-02        00000 
 2.83075e-01  6.49871e-02        00000 
 2.94651e-01  6.68184e-02        00000 
 3.06049e-01  6.85759e-02        00000 
 3.16354e-01  7.00687e-02        00000 
 3.24876e-01  7.11054e-02        00000 
 3.31416e-01  7.15100e-02        00000 
 3.36190e-01  7.11812e-02        00000 
 3.39628e-01  7.01267e-02        00000 
 3.42166e-01  6.84253e-02        00000 
 3.43991e-01  6.61889e-02        00000 
 3.45286e-01  6.39090e-02        00000 
 3.47005e-01  6.20281e-02        00000 
 2.36701e-01  5.79866e-02        00000 
 2.40990e-01  5.68360e-02        00000 
 2.45075e-01  5.63341e-02        00000 
 2.50104e-01  5.62468e-02        00000 
 2.56383e-01  5.65672e-02        00000 
 2.64087e-01  5.73249e-02        00000 
 2.73218e-01  5.85042e-02        00000 
 2.83560e-01  6.00228e-02        00000 
 2.94653e-01  6.17556e-02        00000 
 3.05810e-01  6.35345e-02        00000 
 3.16269e-01  6.51531e-02        00000 
 3.25418e-01  6.63759e-02        00000 
 3.32964e-01  6.70006e-02        00000 
 3.38929e-01  6.69176e-02        00000 
 3.43546e-01  6.61284e-02        00000 
 3.47126e-01  6.47200e-02        00000 
 3.49939e-01  6.27303e-02        00000 
 3.51083e-01  5.98690e-02        00000 
 3.51207e-01  5.82319e-02        00000 
 2.22877e-01  4.67665e-02        00000 
 2.47713e-01  4.95030e-02        00000 
 2.63553e-01  5.03018e-02        00000 
 2.71024e-01  5.31973e-02        00000 
 2.85380e-01  5.53934e-02        00000 
 2.94035e-01  6.00559e-02        00000 
 3.02545e-01  6.49913e-02        00000 
 3.10060e-01  6.91996e-02        00000 
 3.24422e-01  7.65634e-02        00000 
 2.41591e-01  5.27736e-02        00000 
 2.44649e-01  5.23339e-02        00000 
 2.48268e-01  5.20143e-02        00000 
 2.52764e-01  5.18910e-02        00000 
 2.58426e-01  5.21326e-02        00000 
 2.65475e-01  5.28107e-02        00000 
 2.73989e-01  5.39269e-02        00000 
 2.83839e-01  5.54124e-02        00000 
 2.94639e-01  5.71351e-02        00000 
 3.05786e-01  5.89150e-02        00000 
 3.16586e-01  6.05391e-02        00000 
 3.26434e-01  6.17884e-02        00000 
 3.34946e-01  6.24791e-02        00000 
 3.41992e-01  6.25086e-02        00000 
 3.47652e-01  6.18783e-02        00000 
 3.52145e-01  6.06902e-02        00000 
 3.55762e-01  5.91865e-02        00000 
 3.58817e-01  5.74603e-02        00000 
 3.51978e-01  5.47351e-02        00000 
 1.66421e-01  5.06717e-02        00000 
 1.68931e-01  4.86578e-02        00000 
 1.72283e-01  4.71809e-02        00000 
 1.75993e-01  4.64512e-02        00000 
 1.79945e-01  4.66821e-02        00000 
 1.84082e-01  4.80183e-02        00000 
 1.88361e-01  5.04845e-02        00000 
 1.92737e-01  5.39283e-02        00000 
 1.97174e-01  5.79886e-02        00000 
 2.01632e-01  6.21202e-02        00000 
 2.06071e-01  6.57151e-02        00000 
 2.10453e-01  6.82686e-02        00000 
 3.20639e-01  7.41706e-02        00000 
 2.14740e-01  6.94900e-02        00000 
 2.18889e-01  6.93115e-02        00000 
 3.29254e-01  7.90024e-02        00000 
 2.22852e-01  6.78428e-02        00000 
 3.24683e-01  8.04730e-02        00000 
 2.26573e-01  6.53097e-02        00000 
 2.29934e-01  6.20045e-02        00000 
 2.32450e-01  5.82052e-02        00000 
 2.32706e-01  5.47059e-02        00000 
 1.66162e-01  5.26229e-02        00000 
 1.65114e-01  5.18694e-02        00000 
 1.64223e-01  5.03879e-02        00000 
 1.65738e-01  4.98110e-02        00000 
 1.67913e-01  4.94398e-02        00000 
 1.70786e-01  4.94016e-02        00000 
 1.74573e-01  4.97918e-02        00000 
 1.79428e-01  5.06501e-02        00000 
 1.85385e-01  5.19427e-02        00000 
 1.92298e-01  5.35631e-02        00000 
 1.99835e-01  5.53472e-02        00000 
 2.07531e-01  5.70951e-02        00000 
 2.14900e-01  5.85882e-02        00000 
 2.21548e-01  5.96177e-02        00000 
 2.27230e-01  6.00284e-02        00000 
 2.31861e-01  5.97604e-02        00000 
 2.35498e-01  5.88561e-02        00000 
 2.38292e-01  5.74240e-02        00000 
 2.40764e-01  5.56114e-02        00000 
 2.46203e-01  5.20770e-02        00000 
 1.67789e-01  4.95575e-02        00000 
 1.68240e-01  4.86722e-02        00000 
 1.69047e-01  4.76566e-02        00000 
 1.70569e-01  4.70369e-02        00000 
 1.72742e-01  4.67955e-02        00000 
 1.75790e-01  4.70126e-02        00000 
 1.79968e-01  4.77249e-02        00000 
 1.85428e-01  4.88982e-02        00000 
 1.92123e-01  5.04309e-02        00000 
 1.99765e-01  5.21739e-02        00000 
 2.07884e-01  5.39467e-02        00000 
 2.15964e-01  5.55357e-02        00000 
 2.23538e-01  5.67013e-02        00000 
 2.30257e-01  5.72381e-02        00000 
 2.35899e-01  5.70597e-02        00000 
 2.40434e-01  5.61913e-02        00000 
 2.44059e-01  5.46987e-02        00000 
 2.47481e-01  5.24567e-02        00000 
 2.50562e-01  5.03000e-02        00000 
 1.71025e-01  4.76137e-02        00000 
 1.71735e-01  4.68089e-02        00000 
 1.72338e-01  4.58125e-02        00000 
 1.73196e-01  4.49398e-02        00000 
 1.74569e-01  4.44051e-02        00000 
 1.76780e-01  4.43167e-02        00000 
 1.80216e-01  4.46956e-02        00000 
 1.85180e-01  4.54874e-02        00000 
 1.91718e-01  4.66605e-02        00000 
 1.99551e-01  4.81814e-02        00000 
 2.08180e-01  5.00369e-02        00000 
 2.17045e-01  5.19683e-02        00000 
 2.25668e-01  5.35710e-02        00000 
 2.33535e-01  5.44531e-02        00000 
 2.40254e-01  5.44862e-02        00000 
 2.45671e-01  5.37590e-02        00000 
 2.49977e-01  5.23749e-02        00000 
 2.53400e-01  5.05952e-02        00000 
 2.55927e-01  4.87882e-02        00000 
 1.74591e-01  4.64381e-02        00000 
 1.75270e-01  4.55482e-02        00000 
 1.75599e-01  4.44598e-02        00000 
 1.75851e-01  4.33756e-02        00000 
 1.76364e-01  4.25101e-02        00000 
 1.77611e-01  4.19732e-02        00000 
 1.80304e-01  4.17991e-02        00000 
 1.84809e-01  4.16981e-02        00000 
 1.91248e-01  4.16845e-02        00000 
 1.99185e-01  4.24693e-02        00000 
 2.08098e-01  4.45204e-02        00000 
 2.17781e-01  4.74889e-02        00000 
 2.27607e-01  5.01532e-02        00000 
 2.36970e-01  5.17205e-02        00000 
 2.44878e-01  5.22391e-02        00000 
 2.51159e-01  5.17977e-02        00000 
 2.55912e-01  5.07254e-02        00000 
 2.59388e-01  4.92985e-02        00000 
 2.61741e-01  4.76794e-02        00000 
 1.78413e-01  4.61663e-02        00000 
 1.78988e-01  4.52076e-02        00000 
 1.79000e-01  4.39905e-02        00000 
 1.78607e-01  4.27005e-02        00000 
 1.78168e-01  4.15716e-02        00000 
 1.78372e-01  4.07305e-02        00000 
 1.80277e-01  3.96862e-02        00000 
 2.28803e-01  4.60861e-02        00000 
 2.40340e-01  4.94855e-02        00000 
 2.49778e-01  5.06293e-02        00000 
 2.56956e-01  5.05054e-02        00000 
 2.62036e-01  4.97738e-02        00000 
 2.65541e-01  4.87001e-02        00000 
 2.67835e-01  4.73374e-02        00000 
 1.82457e-01  4.69665e-02        00000 
 1.82953e-01  4.59980e-02        00000 
 1.82648e-01  4.46926e-02        00000 
 1.81526e-01  4.32717e-02        00000 
 1.79872e-01  4.20958e-02        00000 
 2.55236e-01  5.00380e-02        00000 
 2.63291e-01  5.01488e-02        00000 
 2.68404e-01  4.97813e-02        00000 
 2.71874e-01  4.90154e-02        00000 
 2.74111e-01  4.79730e-02        00000 
 1.86694e-01  4.89191e-02        00000 
 1.87187e-01  4.80200e-02        00000 
 1.86649e-01  4.67324e-02        00000 
 1.84660e-01  4.52606e-02        00000 
 2.70186e-01  5.15297e-02        00000 
 2.75195e-01  5.09534e-02        00000 
 2.78390e-01  5.04128e-02        00000 
 2.80497e-01  4.97030e-02        00000 
 1.91086e-01  5.19490e-02        00000 
 1.91697e-01  5.11942e-02        00000 
 1.91102e-01  5.00203e-02        00000 
 1.88395e-01  4.86008e-02        00000 
 2.78640e-01  5.42650e-02        00000 
 2.82587e-01  5.33668e-02        00000 
 2.85048e-01  5.29585e-02        00000 
 2.86938e-01  5.25072e-02        00000 
 1.95591e-01  5.57805e-02        00000 
 1.96470e-01  5.52212e-02        00000 
 1.96155e-01  5.42392e-02        00000 
 2.90298e-01  5.70934e-02        00000 
 2.91796e-01  5.65486e-02        00000 
 2.93405e-01  5.61766e-02        00000 
 2.00158e-01  5.99412e-02        00000 
 2.01438e-01  5.95967e-02        00000 
 2.01882e-01  5.89279e-02        00000 
 2.98163e-01  6.16842e-02        00000 
 2.98611e-01  6.07825e-02        00000 
 2.99893e-01  6.02807e-02        00000 
 2.04726e-01  6.38368e-02        00000 
 2.06457e-01  6.36656e-02        00000 
 2.07939e-01  6.33709e-02        00000 
 3.05710e-01  6.62363e-02        00000 
 3.05377e-01  6.49963e-02        00000 
 3.06380e-01  6.42341e-02        00000 
 2.09247e-01  6.69007e-02        00000 
 2.11402e-01  6.67850e-02        00000 
 2.13903e-01  6.67246e-02        00000 
 3.12513e-01  7.00724e-02        00000 
 3.11956e-01  6.85479e-02        00000 
 3.12832e-01  6.74572e-02        00000 
 2.13688e-01  6.87445e-02        00000 
 2.16215e-01  6.85771e-02        00000 
 2.19566e-01  6.85745e-02        00000 
 2.24377e-01  6.85073e-02        00000 
 3.20872e-01  7.47573e-02        00000 
 3.18684e-01  7.27806e-02        00000 
 3.18308e-01  7.09624e-02        00000 
 3.19223e-01  6.95218e-02        00000 
 2.18008e-01  6.92134e-02        00000 
 2.20817e-01  6.89498e-02        00000 
 2.24612e-01  6.89469e-02        00000 
 2.29810e-01  6.92828e-02        00000 
 3.25476e-01  7.61557e-02        00000 
 3.24434e-01  7.40262e-02        00000 
 3.24455e-01  7.19576e-02        00000 
 3.25526e-01  7.02108e-02        00000 
 2.22156e-01  6.83493e-02        00000 
 2.25164e-01  6.79860e-02        00000 
 2.29166e-01  6.78926e-02        00000 
 2.34583e-01  6.80975e-02        00000 
 2.41981e-01  6.88081e-02        00000 
 3.30179e-01  7.78638e-02        00000 
 3.29957e-01  7.58990e-02        00000 
 3.29898e-01  7.36701e-02        00000 
 3.30408e-01  7.14708e-02        00000 
 3.31698e-01  6.95117e-02        00000 
 2.26092e-01  6.63349e-02        00000 
 2.29263e-01  6.58911e-02        00000 
 2.33391e-01  6.56281e-02        00000 
 2.38735e-01  6.56578e-02        00000 
 2.45628e-01  6.61915e-02        00000 
 2.54289e-01  6.75109e-02        00000 
 2.64816e-01  6.96730e-02        00000 
 3.27371e-01  7.80185e-02        00000 
 3.31237e-01  7.72551e-02        00000 
 3.33237e-01  7.59174e-02        00000 
 3.34358e-01  7.40763e-02        00000 
 3.35201e-01  7.18889e-02        00000 
 3.36180e-01  6.96354e-02        00000 
 3.37678e-01  6.75695e-02        00000 
 2.29761e-01  6.34454e-02        00000 
 2.33145e-01  6.29394e-02        00000 
 2.37343e-01  6.24760e-02        00000 
 2.42500e-01  6.22999e-02        00000 
 2.48912e-01  6.25949e-02        00000 
 2.56858e-01  6.34277e-02        00000 
 2.66332e-01  6.48710e-02        00000 
 2.77112e-01  6.68129e-02        00000 
 2.88726e-01  6.89154e-02        00000 
 3.00510e-01  7.08244e-02        00000 
 3.11493e-01  7.22909e-02        00000 
 3.20774e-01  7.32940e-02        00000 
 3.27886e-01  7.37393e-02        00000 
 3.32933e-01  7.35585e-02        00000 
 3.36371e-01  7.26720e-02        00000 
 3.38738e-01  7.11152e-02        00000 
 3.40445e-01  6.90344e-02        00000 
 3.41822e-01  6.67214e-02        00000 
 3.43388e-01  6.46154e-02        00000 
 2.33074e-01  6.00702e-02        00000 
 2.36878e-01  5.93739e-02        00000 
 2.41160e-01  5.86009e-02        00000 
 2.45948e-01  5.83294e-02        00000 
 2.51858e-01  5.84755e-02        00000 
 2.59153e-01  5.90795e-02        00000 
 2.67904e-01  6.01492e-02        00000 
 2.77967e-01  6.16163e-02        00000 
 2.88973e-01  6.33356e-02        00000 
 3.00293e-01  6.51410e-02        00000 