<?xml version="1.0" encoding="utf-8"?>
<VTKFile byte_order="LittleEndian" type="UnstructuredGrid" version="0.1">
   <UnstructuredGrid>
      <Piece NumberOfCells="1136" NumberOfPoints="736">
         <Points>
            <DataArray Name="Points" NumberOfComponents="3" format="ascii" type="Float32">
-1.0000 -0.8947 0.0000
-1.0000 -0.7895 0.0000
-1.0000 -0.6842 0.0000
-1.0000 -0.5789 0.0000
-1.0000 -0.4737 0.0000
-1.0000 -0.3684 0.0000
-1.0000 -0.2632 0.0000
-1.0000 -0.1579 0.0000
-1.0000 -0.0526 0.0000
-1.0000 0.0526 0.0000
-1.0000 0.1579 0.0000
-1.0000 0.2632 0.0000
-1.0000 0.3684 0.0000
-1.0000 0.4737 0.0000
-1.0000 0.5789 0.0000
-1.0000 0.6842 0.0000
-1.0000 0.7895 0.0000
-1.0000 0.8947 0.0000
-1.0000 1.0000 0.0000
-0.8947 -0.8947 0.0000
-0.8947 -0.7895 0.0000
-0.8947 -0.6842 0.0000
-0.8947 -0.5789 0.0000
-0.8947 -0.4737 0.0000
-0.8947 -0.3684 0.0000
-0.8947 -0.2632 0.0000
-0.8947 -0.1579 0.0000
-0.8947 -0.0526 0.0000
-0.8947 0.0526 0.0000
-0.8947 0.1579 0.0000
-0.8947 0.2632 0.0000
-0.8947 0.3684 0.0000
-0.8947 0.4737 0.0000
-0.8947 0.5789 0.0000
-0.8947 0.6842 0.0000
-0.8947 0.7895 0.0000
-0.8947 0.8947 0.0000
-0.8947 1.0000 0.0000
-0.7895 -0.8947 0.0000
-0.7895 -0.7895 0.0000
-0.7895 -0.6842 0.0000
-0.7895 -0.5789 0.0000
-0.7895 -0.4737 0.0000
-0.7895 -0.3684 0.0000
-0.7895 -0.2632 0.0000
-0.7895 -0.1579 0.0000
-0.7895 -0.0526 0.0000
-0.7895 0.0526 0.0000
-0.7895 0.1579 0.0000
-0.7895 0.2632 0.0000
-0.7895 0.3684 0.0000
-0.7895 0.4737 0.0000
-0.7895 0.5789 0.0000
-0.7895 0.6842 0.0000
-0.7895 0.7895 0.0000
-0.7895 0.8947 0.0000
-0.7895 1.0000 0.0000
-0.6842 -0.8947 0.0000
-0.6842 -0.7895 0.0000
-0.6842 -0.6842 0.0000
-0.6842 -0.5789 0.0000
-0.6842 -0.4737 0.0000
-0.6842 -0.3684 0.0000
-0.6842 -0.2632 0.0000
-0.6842 -0.1579 0.0000
-0.6842 -0.0526 0.0000
-0.6842 0.0526 0.0000
-0.6842 0.1579 0.0000
-0.6842 0.2632 0.0000
-0.6842 0.3684 0.0000
-0.6842 0.4737 0.0000
-0.6842 0.5789 0.0000
-0.6842 0.6842 0.0000
-0.6842 0.7895 0.0000
-0.6842 0.8947 0.0000
-0.6842 1.0000 0.0000
-0.5789 -0.8947 0.0000
-0.5789 -0.7895 0.0000
-0.5789 -0.6842 0.0000
-0.5789 -0.5789 0.0000
-0.5789 -0.4737 0.0000
-0.5789 -0.3684 0.0000
-0.5789 -0.2632 0.0000
-0.5789 0.3684 0.0000
-0.5789 0.4737 0.0000
-0.5789 0.5789 0.0000
-0.5789 0.6842 0.0000
-0.5789 0.7895 0.0000
-0.5789 0.8947 0.0000
-0.5789 1.0000 0.0000
-0.4737 -0.8947 0.0000
-0.4737 -0.7895 0.0000
-0.4737 -0.6842 0.0000
-0.4737 -0.5789 0.0000
-0.4737 -0.4737 0.0000
-0.4737 0.5789 0.0000
-0.4737 0.6842 0.0000
-0.4737 0.7895 0.0000
-0.4737 0.8947 0.0000
-0.4737 1.0000 0.0000
-0.3684 -0.8947 0.0000
-0.3684 -0.7895 0.0000
-0.3684 -0.6842 0.0000
-0.3684 -0.5789 0.0000
-0.3684 0.6842 0.0000
-0.3684 0.7895 0.0000
-0.3684 0.8947 0.0000
-0.3684 1.0000 0.0000
-0.2632 -0.8947 0.0000
-0.2632 -0.7895 0.0000
-0.2632 -0.6842 0.0000
-0.2632 -0.5789 0.0000
-0.2632 0.6842 0.0000
-0.2632 0.7895 0.0000
-0.2632 0.8947 0.0000
-0.2632 1.0000 0.0000
-0.1579 -0.8947 0.0000
-0.1579 -0.7895 0.0000
-0.1579 -0.6842 0.0000
-0.1579 0.7895 0.0000
-0.1579 0.8947 0.0000
-0.1579 1.0000 0.0000
-0.0526 -0.8947 0.0000
-0.0526 -0.7895 0.0000
-0.0526 -0.6842 0.0000
-0.0526 0.7895 0.0000
-0.0526 0.8947 0.0000
-0.0526 1.0000 0.0000
0.0526 -0.8947 0.0000
0.0526 -0.7895 0.0000
0.0526 -0.6842 0.0000
0.0526 0.7895 0.0000
0.0526 0.8947 0.0000
0.0526 1.0000 0.0000
0.1579 -0.8947 0.0000
0.1579 -0.7895 0.0000
0.1579 -0.6842 0.0000
0.1579 0.7895 0.0000
0.1579 0.8947 0.0000
0.1579 1.0000 0.0000
0.2632 -0.8947 0.0000
0.2632 -0.7895 0.0000
0.2632 -0.6842 0.0000
0.2632 -0.5789 0.0000
0.2632 0.6842 0.0000
0.2632 0.7895 0.0000
0.2632 0.8947 0.0000
0.2632 1.0000 0.0000
0.3684 -0.8947 0.0000
0.3684 -0.7895 0.0000
0.3684 -0.6842 0.0000
0.3684 -0.5789 0.0000
0.3684 0.6842 0.0000
0.3684 0.7895 0.0000
0.3684 0.8947 0.0000
0.3684 1.0000 0.0000
0.4737 -0.8947 0.0000
0.4737 -0.7895 0.0000
0.4737 -0.6842 0.0000
0.4737 -0.5789 0.0000
0.4737 -0.4737 0.0000
0.4737 0.5789 0.0000
0.4737 0.6842 0.0000
0.4737 0.7895 0.0000
0.4737 0.8947 0.0000
0.4737 1.0000 0.0000
0.5789 -0.8947 0.0000
0.5789 -0.7895 0.0000
0.5789 -0.6842 0.0000
0.5789 -0.5789 0.0000
0.5789 -0.4737 0.0000
0.5789 -0.3684 0.0000
0.5789 -0.2632 0.0000
0.5789 0.3684 0.0000
0.5789 0.4737 0.0000
0.5789 0.5789 0.0000
0.5789 0.6842 0.0000
0.5789 0.7895 0.0000
0.5789 0.8947 0.0000
0.5789 1.0000 0.0000
0.6842 -0.8947 0.0000
0.6842 -0.7895 0.0000
0.6842 -0.6842 0.0000
0.6842 -0.5789 0.0000
0.6842 -0.4737 0.0000
0.6842 -0.3684 0.0000
0.6842 -0.2632 0.0000
0.6842 -0.1579 0.0000
0.6842 -0.0526 0.0000
0.6842 0.0526 0.0000
0.6842 0.1579 0.0000
0.6842 0.2632 0.0000
0.6842 0.3684 0.0000
0.6842 0.4737 0.0000
0.6842 0.5789 0.0000
0.6842 0.6842 0.0000
0.6842 0.7895 0.0000
0.6842 0.8947 0.0000
0.6842 1.0000 0.0000
0.7895 -0.8947 0.0000
0.7895 -0.7895 0.0000
0.7895 -0.6842 0.0000
0.7895 -0.5789 0.0000
0.7895 -0.4737 0.0000
0.7895 -0.3684 0.0000
0.7895 -0.2632 0.0000
0.7895 -0.1579 0.0000
0.7895 -0.0526 0.0000
0.7895 0.0526 0.0000
0.7895 0.1579 0.0000
0.7895 0.2632 0.0000
0.7895 0.3684 0.0000
0.7895 0.4737 0.0000
0.7895 0.5789 0.0000
0.7895 0.6842 0.0000
0.7895 0.7895 0.0000
0.7895 0.8947 0.0000
0.7895 1.0000 0.0000
0.8947 -0.8947 0.0000
0.8947 -0.7895 0.0000
0.8947 -0.6842 0.0000
0.8947 -0.5789 0.0000
0.8947 -0.4737 0.0000
0.8947 -0.3684 0.0000
0.8947 -0.2632 0.0000
0.8947 -0.1579 0.0000
0.8947 -0.0526 0.0000
0.8947 0.0526 0.0000
0.8947 0.1579 0.0000
0.8947 0.2632 0.0000
0.8947 0.3684 0.0000
0.8947 0.4737 0.0000
0.8947 0.5789 0.0000
0.8947 0.6842 0.0000
0.8947 0.7895 0.0000
0.8947 0.8947 0.0000
0.8947 1.0000 0.0000
-0.5789 0.2632 0.0000
-0.4737 0.4737 0.0000
-0.3684 0.5789 0.0000
-0.2632 0.5789 0.0000
-0.1579 0.6842 0.0000
-0.0526 0.6842 0.0000
0.0526 0.6842 0.0000
0.1579 0.6842 0.0000
0.3684 0.5789 0.0000
1.0000 -0.8947 0.0000
1.0000 -0.7895 0.0000
1.0000 -0.6842 0.0000
1.0000 -0.5789 0.0000
1.0000 -0.4737 0.0000
1.0000 -0.3684 0.0000
1.0000 -0.2632 0.0000
1.0000 -0.1579 0.0000
1.0000 -0.0526 0.0000
1.0000 0.0526 0.0000
1.0000 0.1579 0.0000
1.0000 0.2632 0.0000
1.0000 0.3684 0.0000
1.0000 0.4737 0.0000
1.0000 0.5789 0.0000
1.0000 0.6842 0.0000
1.0000 0.7895 0.0000
1.0000 0.8947 0.0000
1.0000 1.0000 0.0000
-0.8947 -1.0000 0.0000
-0.7895 -1.0000 0.0000
-0.6842 -1.0000 0.0000
-0.5789 -1.0000 0.0000
-0.4737 -1.0000 0.0000
-0.3684 -1.0000 0.0000
-0.2632 -1.0000 0.0000
-0.1579 -1.0000 0.0000
-0.0526 -1.0000 0.0000
0.0526 -1.0000 0.0000
0.1579 -1.0000 0.0000
0.2632 -1.0000 0.0000
0.2632 0.5789 0.0000
0.3684 -1.0000 0.0000
0.4737 -1.0000 0.0000
0.4737 0.4737 0.0000
0.5789 -1.0000 0.0000
0.5789 0.2632 0.0000
0.6842 -1.0000 0.0000
0.7895 -1.0000 0.0000
0.8947 -1.0000 0.0000
1.0000 -1.0000 0.0000
-1.0000 -1.0000 0.0000
-0.9474 -0.9474 0.0000
-0.9474 -0.8421 0.0000
-0.9474 -0.7368 0.0000
-0.9474 -0.6316 0.0000
-0.9474 -0.5263 0.0000
-0.9474 -0.4211 0.0000
-0.9474 -0.3158 0.0000
-0.9474 -0.2105 0.0000
-0.9474 -0.1053 0.0000
-0.9474 0.0000 0.0000
-0.9474 0.1053 0.0000
-0.9474 0.2105 0.0000
-0.9474 0.3158 0.0000
-0.9474 0.4211 0.0000
-0.9474 0.5263 0.0000
-0.9474 0.6316 0.0000
-0.9474 0.7368 0.0000
-0.9474 0.8421 0.0000
-0.9474 0.9474 0.0000
-0.8421 -0.9474 0.0000
-0.8421 -0.8421 0.0000
-0.8421 -0.7368 0.0000
-0.8421 -0.6316 0.0000
-0.8421 -0.5263 0.0000
-0.8421 -0.4211 0.0000
-0.8421 -0.3158 0.0000
-0.8421 -0.2105 0.0000
-0.8421 -0.1053 0.0000
-0.8421 0.0000 0.0000
-0.8421 0.1053 0.0000
-0.8421 0.2105 0.0000
-0.8421 0.3158 0.0000
-0.8421 0.4211 0.0000
-0.8421 0.5263 0.0000
-0.8421 0.6316 0.0000
-0.8421 0.7368 0.0000
-0.8421 0.8421 0.0000
-0.8421 0.9474 0.0000
-0.7368 -0.9474 0.0000
-0.7368 -0.8421 0.0000
-0.7368 -0.7368 0.0000
-0.7368 -0.6316 0.0000
-0.7368 -0.5263 0.0000
-0.7368 -0.4211 0.0000
-0.7368 -0.3158 0.0000
-0.7368 -0.2105 0.0000
-0.7368 -0.1053 0.0000
-0.7368 0.0000 0.0000
-0.7368 0.1053 0.0000
-0.7368 0.2105 0.0000
-0.7368 0.3158 0.0000
-0.7368 0.4211 0.0000
-0.7368 0.5263 0.0000
-0.7368 0.6316 0.0000
-0.7368 0.7368 0.0000
-0.7368 0.8421 0.0000
-0.7368 0.9474 0.0000
-0.6316 -0.9474 0.0000
-0.6316 -0.8421 0.0000
-0.6316 -0.7368 0.0000
-0.6316 -0.6316 0.0000
-0.6316 -0.5263 0.0000
-0.6316 -0.4211 0.0000
-0.6316 -0.3158 0.0000
-0.6316 -0.2105 0.0000
-0.6316 -0.1053 0.0000
-0.6316 0.0000 0.0000
-0.6316 0.1053 0.0000
-0.6316 0.2105 0.0000
-0.6316 0.3158 0.0000
-0.6316 0.4211 0.0000
-0.6316 0.5263 0.0000
-0.6316 0.6316 0.0000
-0.6316 0.7368 0.0000
-0.6316 0.8421 0.0000
-0.6316 0.9474 0.0000
-0.5263 -0.9474 0.0000
-0.5263 -0.8421 0.0000
-0.5263 -0.7368 0.0000
-0.5263 -0.6316 0.0000
-0.5263 -0.5263 0.0000
-0.5263 -0.4211 0.0000
-0.5263 -0.3158 0.0000
-0.5263 0.3158 0.0000
-0.5263 0.4211 0.0000
-0.5263 0.5263 0.0000
-0.5263 0.6316 0.0000
-0.5263 0.7368 0.0000
-0.5263 0.8421 0.0000
-0.5263 0.9474 0.0000
-0.4211 -0.9474 0.0000
-0.4211 -0.8421 0.0000
-0.4211 -0.7368 0.0000
-0.4211 -0.6316 0.0000
-0.4211 -0.5263 0.0000
-0.4211 0.5263 0.0000
-0.4211 0.6316 0.0000
-0.4211 0.7368 0.0000
-0.4211 0.8421 0.0000
-0.4211 0.9474 0.0000
-0.3158 -0.9474 0.0000
-0.3158 -0.8421 0.0000
-0.3158 -0.7368 0.0000
-0.3158 -0.6316 0.0000
-0.3158 0.6316 0.0000
-0.3158 0.7368 0.0000
-0.3158 0.8421 0.0000
-0.3158 0.9474 0.0000
-0.2105 -0.9474 0.0000
-0.2105 -0.8421 0.0000
-0.2105 -0.7368 0.0000
-0.2105 -0.6316 0.0000
-0.2105 0.6316 0.0000
-0.2105 0.7368 0.0000
-0.2105 0.8421 0.0000
-0.2105 0.9474 0.0000
-0.1053 -0.9474 0.0000
-0.1053 -0.8421 0.0000
-0.1053 -0.7368 0.0000
-0.1053 0.7368 0.0000
-0.1053 0.8421 0.0000
-0.1053 0.9474 0.0000
0.0000 -0.9474 0.0000
0.0000 -0.8421 0.0000
0.0000 -0.7368 0.0000
0.0000 0.7368 0.0000
0.0000 0.8421 0.0000
0.0000 0.9474 0.0000
0.1053 -0.9474 0.0000
0.1053 -0.8421 0.0000
0.1053 -0.7368 0.0000
0.1053 0.7368 0.0000
0.1053 0.8421 0.0000
0.1053 0.9474 0.0000
0.2105 -0.9474 0.0000
0.2105 -0.8421 0.0000
0.2105 -0.7368 0.0000
0.2105 0.7368 0.0000
0.2105 0.8421 0.0000
0.2105 0.9474 0.0000
0.3158 -0.9474 0.0000
0.3158 -0.8421 0.0000
0.3158 -0.7368 0.0000
0.3158 -0.6316 0.0000
0.3158 0.6316 0.0000
0.3158 0.7368 0.0000
0.3158 0.8421 0.0000
0.3158 0.9474 0.0000
0.4211 -0.9474 0.0000
0.4211 -0.8421 0.0000
[...]
         <PointData>
            <DataArray Name="fValues" NumberOfComponents="3" format="ascii" type="Float64">
-5.88261e-02  2.35284e-01        00000 
-6.25969e-02  2.31485e-01        00000 
-6.59035e-02  2.27592e-01        00000 
-6.84362e-02  2.23577e-01        00000 
-6.99050e-02  2.19417e-01        00000 
-7.00834e-02  2.15119e-01        00000 
-6.88618e-02  2.10709e-01        00000 
-6.63080e-02  2.06222e-01        00000 
-6.27123e-02  2.01688e-01        00000 
-5.85795e-02  1.97138e-01        00000 
-5.45177e-02  1.92607e-01        00000 
-5.10722e-02  1.88125e-01        00000 
-4.86043e-02  1.83724e-01        00000 
-4.72662e-02  1.79438e-01        00000 
-4.70335e-02  1.75290e-01        00000 
-4.77611e-02  1.71287e-01        00000 
-4.92369e-02  1.67405e-01        00000 
-5.12269e-02  1.63615e-01        00000 
-5.44251e-02  1.59593e-01        00000 
-5.82752e-02  2.37828e-01        00000 
-6.19032e-02  2.34166e-01        00000 
-6.52212e-02  2.30267e-01        00000 
-6.77981e-02  2.26169e-01        00000 
-6.93471e-02  2.21880e-01        00000 
-6.96339e-02  2.17413e-01        00000 
-6.85263e-02  2.12799e-01        00000 
-6.60442e-02  2.08083e-01        00000 
-6.24258e-02  2.03301e-01        00000 
-5.81878e-02  1.98493e-01        00000 
-5.39801e-02  1.93732e-01        00000 
-5.03808e-02  1.89091e-01        00000 
-4.77879e-02  1.84620e-01        00000 
-4.63806e-02  1.80346e-01        00000 
-4.61364e-02  1.76276e-01        00000 
-4.68938e-02  1.72394e-01        00000 
-4.84272e-02  1.68663e-01        00000 
-5.05752e-02  1.65056e-01        00000 
-5.31981e-02  1.61426e-01        00000 
-5.75963e-02  2.41144e-01        00000 
-6.14024e-02  2.37486e-01        00000 
-6.47736e-02  2.33640e-01        00000 
-6.74532e-02  2.29525e-01        00000 
-6.91143e-02  2.25135e-01        00000 
-6.94807e-02  2.20418e-01        00000 
-6.84145e-02  2.15362e-01        00000 
-6.58940e-02  2.10067e-01        00000 
-6.20485e-02  2.04631e-01        00000 
-5.75120e-02  1.99213e-01        00000 
-5.30573e-02  1.94022e-01        00000 
-4.92779e-02  1.89199e-01        00000 
-4.65860e-02  1.84749e-01        00000 
-4.51852e-02  1.80632e-01        00000 
-4.50311e-02  1.76814e-01        00000 
-4.59200e-02  1.73235e-01        00000 
-4.76018e-02  1.69827e-01        00000 
-4.98364e-02  1.66494e-01        00000 
-5.23399e-02  1.63102e-01        00000 
-5.71504e-02  2.45123e-01        00000 
-6.11008e-02  2.41728e-01        00000 
-6.46143e-02  2.38040e-01        00000 
-6.74264e-02  2.34003e-01        00000 
-6.92308e-02  2.29527e-01        00000 
-6.95581e-02  2.24566e-01        00000 
-6.82092e-02  2.18707e-01        00000 
-6.55336e-02  2.12025e-01        00000 
-6.11921e-02  2.05108e-01        00000 
-5.62795e-02  1.98418e-01        00000 
-5.17414e-02  1.92663e-01        00000 
-4.78680e-02  1.87912e-01        00000 
-4.51282e-02  1.83841e-01        00000 
-4.38226e-02  1.80260e-01        00000 
-4.38505e-02  1.76991e-01        00000 
-4.49687e-02  1.73950e-01        00000 
-4.68577e-02  1.71050e-01        00000 
-4.92133e-02  1.68176e-01        00000 
-5.17692e-02  1.65216e-01        00000 
-5.70346e-02  2.50116e-01        00000 
-6.11323e-02  2.47129e-01        00000 
-6.48371e-02  2.43794e-01        00000 
-6.78350e-02  2.40063e-01        00000 
-6.97065e-02  2.35725e-01        00000 
-7.00711e-02  2.30348e-01        00000 
-6.76367e-02  2.24114e-01        00000 
-4.37994e-02  1.81796e-01        00000 
-4.25200e-02  1.79365e-01        00000 
-4.27675e-02  1.77022e-01        00000 
-4.41898e-02  1.74780e-01        00000 
-4.63470e-02  1.72594e-01        00000 
-4.88763e-02  1.70363e-01        00000 
-5.15291e-02  1.67976e-01        00000 
-5.73223e-02  2.56378e-01        00000 
-6.15857e-02  2.53943e-01        00000 
-6.55915e-02  2.51156e-01        00000 
-6.89790e-02  2.48111e-01        00000 
-7.10137e-02  2.44668e-01        00000 
-4.19202e-02  1.77369e-01        00000 
-4.37289e-02  1.76101e-01        00000 
-4.62184e-02  1.74784e-01        00000 
-4.89423e-02  1.73310e-01        00000 
-5.16971e-02  1.71596e-01        00000 
-5.80510e-02  2.64070e-01        00000 
-6.25306e-02  2.62288e-01        00000 
-6.69652e-02  2.60279e-01        00000 
-7.12657e-02  2.58195e-01        00000 
-4.36918e-02  1.78453e-01        00000 
-4.65566e-02  1.77977e-01        00000 
-4.94825e-02  1.77261e-01        00000 
-5.23224e-02  1.76234e-01        00000 
-5.92050e-02  2.73191e-01        00000 
-6.39280e-02  2.72082e-01        00000 
-6.90864e-02  2.70928e-01        00000 
-7.44864e-02  2.70331e-01        00000 
-4.39999e-02  1.82341e-01        00000 
-4.73756e-02  1.82482e-01        00000 
-5.04983e-02  1.82381e-01        00000 
-5.33972e-02  1.81950e-01        00000 
-6.07003e-02  2.83524e-01        00000 
-6.56486e-02  2.83023e-01        00000 
-7.15436e-02  2.82582e-01        00000 
-4.86151e-02  1.88432e-01        00000 
-5.19165e-02  1.88679e-01        00000 
-5.48483e-02  1.88646e-01        00000 
-6.24117e-02  2.94611e-01        00000 
-6.74713e-02  2.94591e-01        00000 
-7.38765e-02  2.94713e-01        00000 
-5.01744e-02  1.95691e-01        00000 
-5.35972e-02  1.95951e-01        00000 
-5.65414e-02  1.96041e-01        00000 
-6.41700e-02  3.05763e-01        00000 
-6.92210e-02  3.05986e-01        00000 
-7.54820e-02  3.06406e-01        00000 
-5.19232e-02  2.03848e-01        00000 
-5.53551e-02  2.03789e-01        00000 
-5.82957e-02  2.03689e-01        00000 
-6.57680e-02  3.16222e-01        00000 
-7.07061e-02  3.16296e-01        00000 
-7.63681e-02  3.16719e-01        00000 
-5.36726e-02  2.12362e-01        00000 
-5.69831e-02  2.11686e-01        00000 
-5.98974e-02  2.11084e-01        00000 
-6.69705e-02  3.25376e-01        00000 
-7.17368e-02  3.24834e-01        00000 
-7.66964e-02  3.24685e-01        00000 
-8.12271e-02  3.24656e-01        00000 
-5.16193e-02  2.22140e-01        00000 
-5.51852e-02  2.20707e-01        00000 
-5.82639e-02  2.19160e-01        00000 
-6.11274e-02  2.17780e-01        00000 
-6.75755e-02  3.32934e-01        00000 
-7.21417e-02  3.31403e-01        00000 
-7.65190e-02  3.30247e-01        00000 
-8.01609e-02  3.29450e-01        00000 
-5.32536e-02  2.31123e-01        00000 
-5.61722e-02  2.28435e-01        00000 
-5.90087e-02  2.25841e-01        00000 
-6.17995e-02  2.23496e-01        00000 
-6.74734e-02  3.38916e-01        00000 
-7.18257e-02  3.36221e-01        00000 
-7.58088e-02  3.33774e-01        00000 
-7.88125e-02  3.31455e-01        00000 
-7.98993e-02  3.29442e-01        00000 
-5.17555e-02  2.43171e-01        00000 
-5.39506e-02  2.39074e-01        00000 
-5.64630e-02  2.35155e-01        00000 
-5.90965e-02  2.31500e-01        00000 
-6.18056e-02  2.28135e-01        00000 
-6.66677e-02  3.43563e-01        00000 
-7.08093e-02  3.39735e-01        00000 
-7.44533e-02  3.36001e-01        00000 
-7.71224e-02  3.32262e-01        00000 
-7.82583e-02  3.28489e-01        00000 
-7.74892e-02  3.24700e-01        00000 
-7.50633e-02  3.20883e-01        00000 
-5.12202e-02  2.63261e-01        00000 
-5.10747e-02  2.56525e-01        00000 
-5.20578e-02  2.50757e-01        00000 
-5.38097e-02  2.45528e-01        00000 
-5.60280e-02  2.40645e-01        00000 
-5.85126e-02  2.36060e-01        00000 
-6.11365e-02  2.31754e-01        00000 
-6.52606e-02  3.47213e-01        00000 
-6.92063e-02  3.42431e-01        00000 
-7.26011e-02  3.37650e-01        00000 
-7.50541e-02  3.32771e-01        00000 
-7.61526e-02  3.27726e-01        00000 
-7.56369e-02  3.22448e-01        00000 
-7.34510e-02  3.16688e-01        00000 
-7.00005e-02  3.10209e-01        00000 
-6.57572e-02  3.02591e-01        00000 
-6.08193e-02  2.93973e-01        00000 
-5.61898e-02  2.85216e-01        00000 
-5.31353e-02  2.76780e-01        00000 
-5.12175e-02  2.69237e-01        00000 
-5.07494e-02  2.62585e-01        00000 
-5.14825e-02  2.56337e-01        00000 
-5.29595e-02  2.50461e-01        00000 
-5.49671e-02  2.44893e-01        00000 
-5.73265e-02  2.39590e-01        00000 
-5.98709e-02  2.34514e-01        00000 
-6.34114e-02  3.50211e-01        00000 
-6.71969e-02  3.44730e-01        00000 
-7.04354e-02  3.39180e-01        00000 
-7.27904e-02  3.33524e-01        00000 
-7.39043e-02  3.27704e-01        00000 
-7.35235e-02  3.21664e-01        00000 
-7.15998e-02  3.15366e-01        00000 
-6.83552e-02  3.08736e-01        00000 
-6.41871e-02  3.01740e-01        00000 
-5.96449e-02  2.94511e-01        00000 
-5.55121e-02  2.87275e-01        00000 
-5.24706e-02  2.80174e-01        00000 
-5.06404e-02  2.73266e-01        00000 
-4.99832e-02  2.66626e-01        00000 
-5.03742e-02  2.60236e-01        00000 
-5.15866e-02  2.54046e-01        00000 
-5.34001e-02  2.48056e-01        00000 
-5.56542e-02  2.42250e-01        00000 
-5.81475e-02  2.36629e-01        00000 
-6.12939e-02  3.52933e-01        00000 
-6.49289e-02  3.46913e-01        00000 
-6.81555e-02  3.40893e-01        00000 
-7.05412e-02  3.34782e-01        00000 
-7.17756e-02  3.28545e-01        00000 
-7.16318e-02  3.22183e-01        00000 
-7.00401e-02  3.15710e-01        00000 
-6.71419e-02  3.09140e-01        00000 
-6.32977e-02  3.02493e-01        00000 
-5.90578e-02  2.95812e-01        00000 
-5.50764e-02  2.89145e-01        00000 
-5.18991e-02  2.82499e-01        00000 
-4.97946e-02  2.75882e-01        00000 
-4.88182e-02  2.69328e-01        00000 
-4.88869e-02  2.62873e-01        00000 
-4.98336e-02  2.56547e-01        00000 
-5.14566e-02  2.50357e-01        00000 
-5.35962e-02  2.44281e-01        00000 
-5.61596e-02  2.38306e-01        00000 
-4.66209e-02  1.84333e-01        00000 
-4.15032e-02  1.78483e-01        00000 
-4.12690e-02  1.78732e-01        00000 
-4.07590e-02  1.82198e-01        00000 
-4.46511e-02  1.87974e-01        00000 
-4.57073e-02  1.95283e-01        00000 
-4.73188e-02  2.03718e-01        00000 
-4.94728e-02  2.12845e-01        00000 
-5.01646e-02  2.33730e-01        00000 
-5.88577e-02  3.55331e-01        00000 
-6.26258e-02  3.49232e-01        00000 
-6.59295e-02  3.43029e-01        00000 
-6.84593e-02  3.36698e-01        00000 
-6.99256e-02  3.30251e-01        00000 
-7.01031e-02  3.23719e-01        00000 
-6.88827e-02  3.17140e-01        00000 
-6.63308e-02  3.10544e-01        00000 
-6.27349e-02  3.03941e-01        00000 
-5.86004e-02  2.97334e-01        00000 
-5.45392e-02  2.90728e-01        00000 
-5.10973e-02  2.84125e-01        00000 
-4.86330e-02  2.77537e-01        00000 
-4.72967e-02  2.70994e-01        00000 
-4.70646e-02  2.64536e-01        00000 
-4.77927e-02  2.58193e-01        00000 
-4.92691e-02  2.51978e-01        00000 
-5.12599e-02  2.45868e-01        00000 
-5.41872e-02  2.40139e-01        00000 
-5.43823e-02  2.41613e-01        00000 
-5.35304e-02  2.44644e-01        00000 
-5.29696e-02  2.48265e-01        00000 
-5.27407e-02  2.52760e-01        00000 
-5.29201e-02  2.58423e-01        00000 
-5.35555e-02  2.65469e-01        00000 
-5.46385e-02  2.73980e-01        00000 
-5.60955e-02  2.83825e-01        00000 
-5.77920e-02  2.94620e-01        00000 
-5.95468e-02  3.05761e-01        00000 
-6.11458e-02  3.16556e-01        00000 
-6.23693e-02  3.26399e-01        00000 
-4.75076e-02  2.22898e-01        00000 
-6.30319e-02  3.34908e-01        00000 
-6.30267e-02  3.41952e-01        00000 
-5.03900e-02  2.47514e-01        00000 
-6.23459e-02  3.47612e-01        00000 
-5.40847e-02  2.70767e-01        00000 
-6.10693e-02  3.52105e-01        00000 
-5.93366e-02  3.55724e-01        00000 
-5.73431e-02  3.58753e-01        00000 
-5.53728e-02  3.61988e-01        00000 
-5.56110e-02  2.38376e-01        00000 
-5.68603e-02  2.38191e-01        00000 
-6.03833e-02  2.34709e-01        00000 
-6.39069e-02  2.30876e-01        00000 
-6.68502e-02  2.26896e-01        00000 
-6.88877e-02  2.22751e-01        00000 
-6.97634e-02  2.18444e-01        00000 
-6.93018e-02  2.13996e-01        00000 
-6.74637e-02  2.09444e-01        00000 
-6.44036e-02  2.04826e-01        00000 
-6.05087e-02  2.00168e-01        00000 
-5.63449e-02  1.95511e-01        00000 
-5.25076e-02  1.90908e-01        00000 
-4.94701e-02  1.86406e-01        00000 
-4.75082e-02  1.82041e-01        00000 
-4.66945e-02  1.77839e-01        00000 
-4.69411e-02  1.73808e-01        00000 
-4.80608e-02  1.69930e-01        00000 
-4.98437e-02  1.66165e-01        00000 
-5.23074e-02  1.62494e-01        00000 
-5.59105e-02  2.41285e-01        00000 
-5.97936e-02  2.37634e-01        00000 
-6.33186e-02  2.33883e-01        00000 
-6.63136e-02  2.29887e-01        00000 
-6.84409e-02  2.25663e-01        00000 
-6.94254e-02  2.21202e-01        00000 
-6.90690e-02  2.16493e-01        00000 
-6.72921e-02  2.11583e-01        00000 
-6.41848e-02  2.06549e-01        00000 
-6.01199e-02  2.01447e-01        00000 
-5.57381e-02  1.96396e-01        00000 
-5.16969e-02  1.91533e-01        00000 
-4.85055e-02  1.86927e-01        00000 
-4.64652e-02  1.82586e-01        00000 
-4.56518e-02  1.78506e-01        00000 
-4.59574e-02  1.74663e-01        00000 
-4.71703e-02  1.71011e-01        00000 
-4.90759e-02  1.67499e-01        00000 
-5.14578e-02  1.64035e-01        00000 
-5.52670e-02  2.44780e-01        00000 
-5.92797e-02  2.41352e-01        00000 
-6.29529e-02  2.37706e-01        00000 
-6.60573e-02  2.33785e-01        00000 
-6.83169e-02  2.29530e-01        00000 
-6.93763e-02  2.24916e-01        00000 
-6.90161e-02  2.19799e-01        00000 
-6.71862e-02  2.14060e-01        00000 
-6.38523e-02  2.08020e-01        00000 
-5.94169e-02  2.01889e-01        00000 
-5.47180e-02  1.96089e-01        00000 
-5.04773e-02  1.90961e-01        00000 
-4.71676e-02  1.86431e-01        00000 
-4.51135e-02  1.82358e-01        00000 
-4.44038e-02  1.78651e-01        00000 
-4.48752e-02  1.75219e-01        00000 
-4.62736e-02  1.71989e-01        00000 
-4.83200e-02  1.68872e-01        00000 
-5.07355e-02  1.65740e-01        00000 
-5.49115e-02  2.49052e-01        00000 
-5.90535e-02  2.46005e-01        00000 
-6.28770e-02  2.42649e-01        00000 
-6.61399e-02  2.38952e-01        00000 
-6.85324e-02  2.34821e-01        00000 
-6.96937e-02  2.30037e-01        00000 
-6.89155e-02  2.24570e-01        00000 
-6.66326e-02  2.17617e-01        00000 
-6.28685e-02  2.08887e-01        00000 
-5.78854e-02  2.00248e-01        00000 
-5.31639e-02  1.93360e-01        00000 
-4.90241e-02  1.88262e-01        00000 
-4.56624e-02  1.84480e-01        00000 
-4.36739e-02  1.81312e-01        00000 
-4.31243e-02  1.78382e-01        00000 
-4.38442e-02  1.75648e-01        00000 
-4.55016e-02  1.73060e-01        00000 
-4.77432e-02  1.70524e-01        00000 
-5.02754e-02  1.67920e-01        00000 
-5.49294e-02  2.54406e-01        00000 
-5.91997e-02  2.51871e-01        00000 
-6.32182e-02  2.48968e-01        00000 
-6.67248e-02  2.45732e-01        00000 
-6.92718e-02  2.42121e-01        00000 
-7.03845e-02  2.37788e-01        00000 
-6.89993e-02  2.31239e-01        00000 
-4.46785e-02  1.81198e-01        00000 
-4.24996e-02  1.79726e-01        00000 
-4.20241e-02  1.78038e-01        00000 
-4.30298e-02  1.76270e-01        00000 
-4.50125e-02  1.74523e-01        00000 
-4.75013e-02  1.72738e-01        00000 
-5.01771e-02  1.70798e-01        00000 
-5.53815e-02  2.61073e-01        00000 
-5.97909e-02  2.59143e-01        00000 
-6.40710e-02  2.56863e-01        00000 
-6.80803e-02  2.54321e-01        00000 
-7.10983e-02  2.51724e-01        00000 
-4.12133e-02  1.78320e-01        00000 
-4.25289e-02  1.77587e-01        00000 
-4.49437e-02  1.76782e-01        00000 
-4.77053e-02  1.75808e-01        00000 
-5.05251e-02  1.74589e-01        00000 
-5.62863e-02  2.69169e-01        00000 
-6.08444e-02  2.67877e-01        00000 
-6.55207e-02  2.66304e-01        00000 
-7.02650e-02  2.64796e-01        00000 
-4.23771e-02  1.80329e-01        00000 
-4.53289e-02  1.80250e-01        00000 
-4.84014e-02  1.80001e-01        00000 
-5.13506e-02  1.79449e-01        00000 
-5.75987e-02  2.78625e-01        00000 
-6.22945e-02  2.77927e-01        00000 
-6.74626e-02  2.77062e-01        00000 
-7.34781e-02  2.76410e-01        00000 
-4.22927e-02  1.84865e-01        00000 
-4.61208e-02  1.85234e-01        00000 
-4.95578e-02  1.85471e-01        00000 
-5.26153e-02  1.85410e-01        00000 
-5.92134e-02  2.89143e-01        00000 
-6.39977e-02  2.88923e-01        00000 
-6.95646e-02  2.88664e-01        00000 
-4.72931e-02  1.91782e-01        00000 
-5.10742e-02  1.92173e-01        00000 
-5.42106e-02  1.92328e-01        00000 
-6.09787e-02  3.00188e-01        00000 
-6.57882e-02  3.00239e-01        00000 
-7.14754e-02  3.00442e-01        00000 
-4.88157e-02  1.99618e-01        00000 
-5.28023e-02  1.99819e-01        00000 
-5.59710e-02  1.99868e-01        00000 
-6.26996e-02  3.11076e-01        00000 
-6.74848e-02  3.11081e-01        00000 
-7.29440e-02  3.11426e-01        00000 
-5.06735e-02  2.08244e-01        00000 
-5.45606e-02  2.07936e-01        00000 
-5.76957e-02  2.07565e-01        00000 
-6.41495e-02  3.21141e-01        00000 
-6.88724e-02  3.20704e-01        00000 
-7.39483e-02  3.20721e-01        00000 
-5.26063e-02  2.17092e-01        00000 
-5.61351e-02  2.16007e-01        00000 
-5.91652e-02  2.14934e-01        00000 
-6.51058e-02  3.29911e-01        00000 
-6.97296e-02  3.28662e-01        00000 
-7.43993e-02  3.27865e-01        00000 
-7.87469e-02  3.27371e-01        00000 
-5.08674e-02  2.27601e-01        00000 
-5.42144e-02  2.25682e-01        00000 
-5.72884e-02  2.23566e-01        00000 
-6.01705e-02  2.21578e-01        00000 
-6.54096e-02  3.37190e-01        00000 
-6.98996e-02  3.34895e-01        00000 
-7.42352e-02  3.32961e-01        00000 
-7.80156e-02  3.31311e-01        00000 
-5.24672e-02  2.36886e-01        00000 
-5.51136e-02  2.33497e-01        00000 
-5.78178e-02  2.30258e-01        00000 
-6.05551e-02  2.27253e-01        00000 
-6.50050e-02  3.43026e-01        00000 
-6.93357e-02  3.39635e-01        00000 
-7.33850e-02  3.36475e-01        00000 
-7.67268e-02  3.33415e-01        00000 
-7.87431e-02  3.30406e-01        00000 
-5.14975e-02  2.49539e-01        00000 
-5.30349e-02  2.44688e-01        00000 
-5.51834e-02  2.40137e-01        00000 
-5.76411e-02  2.35859e-01        00000 
-6.02554e-02  2.31873e-01        00000 
-6.39413e-02  3.47640e-01        00000 
-6.81051e-02  3.43260e-01        00000 
-7.18984e-02  3.38986e-01        00000 
-7.49502e-02  3.34698e-01        00000 
-7.68058e-02  3.30317e-01        00000 
-7.70704e-02  3.25809e-01        00000 
-7.56530e-02  3.21150e-01        00000 
-5.24192e-02  2.69893e-01        00000 
-5.10549e-02  2.62942e-01        00000 
-5.14011e-02  2.56582e-01        00000 
-5.26582e-02  2.50805e-01        00000 
-5.45268e-02  2.45408e-01        00000 
-5.67983e-02  2.40312e-01        00000 
-5.93078e-02  2.35490e-01        00000 
-6.23472e-02  3.51328e-01        00000 
-6.63562e-02  3.46167e-01        00000 
-6.99561e-02  3.41017e-01        00000 
-7.28173e-02  3.35793e-01        00000 
-7.45723e-02  3.30429e-01        00000 
-7.48996e-02  3.24869e-01        00000 
-7.36199e-02  3.19009e-01        00000 
-7.08706e-02  3.12724e-01        00000 
-6.69972e-02  3.05810e-01        00000 
-6.24287e-02  2.98154e-01        00000 
-5.78514e-02  2.90182e-01        00000 
-5.41601e-02  2.82359e-01        00000 
-5.17865e-02  2.74853e-01        00000 
-5.06461e-02  2.67952e-01        00000 
-5.06650e-02  2.61488e-01        00000 
-5.16400e-02  2.55303e-01        00000 
-5.32810e-02  2.49388e-01        00000 
-5.53998e-02  2.43710e-01        00000 
-5.78180e-02  2.38252e-01        00000 
-6.03846e-02  3.54421e-01        00000 
-6.42751e-02  3.48716e-01        00000 
-6.77379e-02  3.42931e-01        00000 
-7.05375e-02  3.37091e-01        00000 
-7.23050e-02  3.31124e-01        00000 
-7.27490e-02  3.24994e-01        00000 
-7.17208e-02  3.18689e-01        00000 
-6.92767e-02  3.12195e-01        00000 
-6.57019e-02  3.05487e-01        00000 
-6.14782e-02  2.98601e-01        00000 