<?xml version="1.0" encoding="utf-8"?>
<VTKFile byte_order="LittleEndian" type="UnstructuredGrid" version="0.1">
   <UnstructuredGrid>
      <Piece NumberOfCells="1136" NumberOfPoints="736">
         <Points>
            <DataArray Name="Points" NumberOfComponents="3" format="ascii" type="Float32">
-1.0000 -0.8947 0.0000
-1.0000 -0.7895 0.0000
-1.0000 -0.6842 0.0000
-1.0000 -0.5789 0.0000
-1.0000 -0.4737 0.0000
-1.0000 -0.3684 0.0000
-1.0000 -0.2632 0.0000
-1.0000 -0.1579 0.0000
-1.0000 -0.0526 0.0000
-1.0000 0.0526 0.0000
-1.0000 0.1579 0.0000
-1.0000 0.2632 0.0000
-1.0000 0.3684 0.0000
-1.0000 0.4737 0.0000
-1.0000 0.5789 0.0000
-1.0000 0.6842 0.0000
-1.0000 0.7895 0.0000
-1.0000 0.8947 0.0000
-1.0000 1.0000 0.0000
-0.8947 -0.8947 0.0000
-0.8947 -0.7895 0.0000
-0.8947 -0.6842 0.0000
-0.8947 -0.5789 0.0000
-0.8947 -0.4737 0.0000
-0.8947 -0.3684 0.0000
-0.8947 -0.2632 0.0000
-0.8947 -0.1579 0.0000
-0.8947 -0.0526 0.0000
-0.8947 0.0526 0.0000
-0.8947 0.1579 0.0000
-0.8947 0.2632 0.0000
-0.8947 0.3684 0.0000
-0.8947 0.4737 0.0000
-0.8947 0.5789 0.0000
-0.8947 0.6842 0.0000
-0.8947 0.7895 0.0000
-0.8947 0.8947 0.0000
-0.8947 1.0000 0.0000
-0.7895 -0.8947 0.0000
-0.7895 -0.7895 0.0000
-0.7895 -0.6842 0.0000
-0.7895 -0.5789 0.0000
-0.7895 -0.4737 0.0000
-0.7895 -0.3684 0.0000
-0.7895 -0.2632 0.0000
-0.7895 -0.1579 0.0000
-0.7895 -0.0526 0.0000
-0.7895 0.0526 0.0000
-0.7895 0.1579 0.0000
-0.7895 0.2632 0.0000
-0.7895 0.3684 0.0000
-0.7895 0.4737 0.0000
-0.7895 0.5789 0.0000
-0.7895 0.6842 0.0000
-0.7895 0.7895 0.0000
-0.7895 0.8947 0.0000
-0.7895 1.0000 0.0000
-0.6842 -0.8947 0.0000
-0.6842 -0.7895 0.0000
-0.6842 -0.6842 0.0000
-0.6842 -0.5789 0.0000
-0.6842 -0.4737 0.0000
-0.6842 -0.3684 0.0000
-0.6842 -0.2632 0.0000
-0.6842 -0.1579 0.0000
-0.6842 -0.0526 0.0000
-0.6842 0.0526 0.0000
-0.6842 0.1579 0.0000
-0.6842 0.2632 0.0000
-0.6842 0.3684 0.0000
-0.6842 0.4737 0.0000
-0.6842 0.5789 0.0000
-0.6842 0.6842 0.0000
-0.6842 0.7895 0.0000
-0.6842 0.8947 0.0000
-0.6842 1.0000 0.0000
-0.5789 -0.8947 0.0000
-0.5789 -0.7895 0.0000
-0.5789 -0.6842 0.0000
-0.5789 -0.5789 0.0000
-0.5789 -0.4737 0.0000
-0.5789 -0.3684 0.0000
-0.5789 -0.2632 0.0000
-0.5789 0.3684 0.0000
-0.5789 0.4737 0.0000
-0.5789 0.5789 0.0000
-0.5789 0.6842 0.0000
-0.5789 0.7895 0.0000
-0.5789 0.8947 0.0000
-0.5789 1.0000 0.0000
-0.4737 -0.8947 0.0000
-0.4737 -0.7895 0.0000
-0.4737 -0.6842 0.0000
-0.4737 -0.5789 0.0000
-0.4737 -0.4737 0.0000
-0.4737 0.5789 0.0000
-0.4737 0.6842 0.0000
-0.4737 0.7895 0.0000
-0.4737 0.8947 0.0000
-0.4737 1.0000 0.0000
-0.3684 -0.8947 0.0000
-0.3684 -0.7895 0.0000
-0.3684 -0.6842 0.0000
-0.3684 -0.5789 0.0000
-0.3684 0.6842 0.0000
-0.3684 0.7895 0.0000
-0.3684 0.8947 0.0000
-0.3684 1.0000 0.0000
-0.2632 -0.8947 0.0000
-0.2632 -0.7895 0.0000
-0.2632 -0.6842 0.0000
-0.2632 -0.5789 0.0000
-0.2632 0.6842 0.0000
-0.2632 0.7895 0.0000
-0.2632 0.8947 0.0000
-0.2632 1.0000 0.0000
-0.1579 -0.8947 0.0000
-0.1579 -0.7895 0.0000
-0.1579 -0.6842 0.0000
-0.1579 0.7895 0.0000
-0.1579 0.8947 0.0000
-0.1579 1.0000 0.0000
-0.0526 -0.8947 0.0000
-0.0526 -0.7895 0.0000
-0.0526 -0.6842 0.0000
-0.0526 0.7895 0.0000
-0.0526 0.8947 0.0000
-0.0526 1.0000 0.0000
0.0526 -0.8947 0.0000
0.0526 -0.7895 0.0000
0.0526 -0.6842 0.0000
0.0526 0.7895 0.0000
0.0526 0.8947 0.0000
0.0526 1.0000 0.0000
0.1579 -0.8947 0.0000
0.1579 -0.7895 0.0000
0.1579 -0.6842 0.0000
0.1579 0.7895 0.0000
0.1579 0.8947 0.0000
0.1579 1.0000 0.0000
0.2632 -0.8947 0.0000
0.2632 -0.7895 0.0000
0.2632 -0.6842 0.0000
0.2632 -0.5789 0.0000
0.2632 0.6842 0.0000
0.2632 0.7895 0.0000
0.2632 0.8947 0.0000
0.2632 1.0000 0.0000
0.3684 -0.8947 0.0000
0.3684 -0.7895 0.0000
0.3684 -0.6842 0.0000
0.3684 -0.5789 0.0000
0.3684 0.6842 0.0000
0.3684 0.7895 0.0000
0.3684 0.8947 0.0000
0.3684 1.0000 0.0000
0.4737 -0.8947 0.0000
0.4737 -0.7895 0.0000
0.4737 -0.6842 0.0000
0.4737 -0.5789 0.0000
0.4737 -0.4737 0.0000
0.4737 0.5789 0.0000
0.4737 0.6842 0.0000
0.4737 0.7895 0.0000
0.4737 0.8947 0.0000
0.4737 1.0000 0.0000
0.5789 -0.8947 0.0000
0.5789 -0.7895 0.0000
0.5789 -0.6842 0.0000
0.5789 -0.5789 0.0000
0.5789 -0.4737 0.0000
0.5789 -0.3684 0.0000
0.5789 -0.2632 0.0000
0.5789 0.3684 0.0000
0.5789 0.4737 0.0000
0.5789 0.5789 0.0000
0.5789 0.6842 0.0000
0.5789 0.7895 0.0000
0.5789 0.8947 0.0000
0.5789 1.0000 0.0000
0.6842 -0.8947 0.0000
0.6842 -0.7895 0.0000
0.6842 -0.6842 0.0000
0.6842 -0.5789 0.0000
0.6842 -0.4737 0.0000
0.6842 -0.3684 0.0000
0.6842 -0.2632 0.0000
0.6842 -0.1579 0.0000
0.6842 -0.0526 0.0000
0.6842 0.0526 0.0000
0.6842 0.1579 0.0000
0.6842 0.2632 0.0000
0.6842 0.3684 0.0000
0.6842 0.4737 0.0000
0.6842 0.5789 0.0000
0.6842 0.6842 0.0000
0.6842 0.7895 0.0000
0.6842 0.8947 0.0000
0.6842 1.0000 0.0000
0.7895 -0.8947 0.0000
0.7895 -0.7895 0.0000
0.7895 -0.6842 0.0000
0.7895 -0.5789 0.0000
0.7895 -0.4737 0.0000
0.7895 -0.3684 0.0000
0.7895 -0.2632 0.0000
0.7895 -0.1579 0.0000
0.7895 -0.0526 0.0000
0.7895 0.0526 0.0000
0.7895 0.1579 0.0000
0.7895 0.2632 0.0000
0.7895 0.3684 0.0000
0.7895 0.4737 0.0000
0.7895 0.5789 0.0000
0.7895 0.6842 0.0000
0.7895 0.7895 0.0000
0.7895 0.8947 0.0000
0.7895 1.0000 0.0000
0.8947 -0.8947 0.0000
0.8947 -0.7895 0.0000
0.8947 -0.6842 0.0000
0.8947 -0.5789 0.0000
0.8947 -0.4737 0.0000
0.8947 -0.3684 0.0000
0.8947 -0.2632 0.0000
0.8947 -0.1579 0.0000
0.8947 -0.0526 0.0000
0.8947 0.0526 0.0000
0.8947 0.1579 0.0000
0.8947 0.2632 0.0000
0.8947 0.3684 0.0000
0.8947 0.4737 0.0000
0.8947 0.5789 0.0000
0.8947 0.6842 0.0000
0.8947 0.7895 0.0000
0.8947 0.8947 0.0000
0.8947 1.0000 0.0000
-0.5789 0.2632 0.0000
-0.4737 0.4737 0.0000
-0.3684 0.5789 0.0000
-0.2632 0.5789 0.0000
-0.1579 0.6842 0.0000
-0.0526 0.6842 0.0000
0.0526 0.6842 0.0000
0.1579 0.6842 0.0000
0.3684 0.5789 0.0000
1.0000 -0.8947 0.0000
1.0000 -0.7895 0.0000
1.0000 -0.6842 0.0000
1.0000 -0.5789 0.0000
1.0000 -0.4737 0.0000
1.0000 -0.3684 0.0000
1.0000 -0.2632 0.0000
1.0000 -0.1579 0.0000
1.0000 -0.0526 0.0000
1.0000 0.0526 0.0000
1.0000 0.1579 0.0000
1.0000 0.2632 0.0000
1.0000 0.3684 0.0000
1.0000 0.4737 0.0000
1.0000 0.5789 0.0000
1.0000 0.6842 0.0000
1.0000 0.7895 0.0000
1.0000 0.8947 0.0000
1.0000 1.0000 0.0000
-0.8947 -1.0000 0.0000
-0.7895 -1.0000 0.0000
-0.6842 -1.0000 0.0000
-0.5789 -1.0000 0.0000
-0.4737 -1.0000 0.0000
-0.3684 -1.0000 0.0000
-0.2632 -1.0000 0.0000
-0.1579 -1.0000 0.0000
-0.0526 -1.0000 0.0000
0.0526 -1.0000 0.0000
0.1579 -1.0000 0.0000
0.2632 -1.0000 0.0000
0.2632 0.5789 0.0000
0.3684 -1.0000 0.0000
0.4737 -1.0000 0.0000
0.4737 0.4737 0.0000
0.5789 -1.0000 0.0000
0.5789 0.2632 0.0000
0.6842 -1.0000 0.0000
0.7895 -1.0000 0.0000
0.8947 -1.0000 0.0000
1.0000 -1.0000 0.0000
-1.0000 -1.0000 0.0000
-0.9474 -0.9474 0.0000
-0.9474 -0.8421 0.0000
-0.9474 -0.7368 0.0000
-0.9474 -0.6316 0.0000
-0.9474 -0.5263 0.0000
-0.9474 -0.4211 0.0000
-0.9474 -0.3158 0.0000
-0.9474 -0.2105 0.0000
-0.9474 -0.1053 0.0000
-0.9474 0.0000 0.0000
-0.9474 0.1053 0.0000
-0.9474 0.2105 0.0000
-0.9474 0.3158 0.0000
-0.9474 0.4211 0.0000
-0.9474 0.5263 0.0000
-0.9474 0.6316 0.0000
-0.9474 0.7368 0.0000
-0.9474 0.8421 0.0000
-0.9474 0.9474 0.0000
-0.8421 -0.9474 0.0000
-0.8421 -0.8421 0.0000
-0.8421 -0.7368 0.0000
-0.8421 -0.6316 0.0000
-0.8421 -0.5263 0.0000
-0.8421 -0.4211 0.0000
-0.8421 -0.3158 0.0000
-0.8421 -0.2105 0.0000
-0.8421 -0.1053 0.0000
-0.8421 0.0000 0.0000
-0.8421 0.1053 0.0000
-0.8421 0.2105 0.0000
-0.8421 0.3158 0.0000
-0.8421 0.4211 0.0000
-0.8421 0.5263 0.0000
-0.8421 0.6316 0.0000
-0.8421 0.7368 0.0000
-0.8421 0.8421 0.0000
-0.8421 0.9474 0.0000
-0.7368 -0.9474 0.0000
-0.7368 -0.8421 0.0000
-0.7368 -0.7368 0.0000
-0.7368 -0.6316 0.0000
-0.7368 -0.5263 0.0000
-0.7368 -0.4211 0.0000
-0.7368 -0.3158 0.0000
-0.7368 -0.2105 0.0000
-0.7368 -0.1053 0.0000
-0.7368 0.0000 0.0000
-0.7368 0.1053 0.0000
-0.7368 0.2105 0.0000
-0.7368 0.3158 0.0000
-0.7368 0.4211 0.0000
-0.7368 0.5263 0.0000
-0.7368 0.6316 0.0000
-0.7368 0.7368 0.0000
-0.7368 0.8421 0.0000
-0.7368 0.9474 0.0000
-0.6316 -0.9474 0.0000
-0.6316 -0.8421 0.0000
-0.6316 -0.7368 0.0000
-0.6316 -0.6316 0.0000
-0.6316 -0.5263 0.0000
-0.6316 -0.4211 0.0000
-0.6316 -0.3158 0.0000
-0.6316 -0.2105 0.0000
-0.6316 -0.1053 0.0000
-0.6316 0.0000 0.0000
-0.6316 0.1053 0.0000
-0.6316 0.2105 0.0000
-0.6316 0.3158 0.0000
-0.6316 0.4211 0.0000
-0.6316 0.5263 0.0000
-0.6316 0.6316 0.0000
-0.6316 0.7368 0.0000
-0.6316 0.8421 0.0000
-0.6316 0.9474 0.0000
-0.5263 -0.9474 0.0000
-0.5263 -0.8421 0.0000
-0.5263 -0.7368 0.0000
-0.5263 -0.6316 0.0000
-0.5263 -0.5263 0.0000
-0.5263 -0.4211 0.0000
-0.5263 -0.3158 0.0000
-0.5263 0.3158 0.0000
-0.5263 0.4211 0.0000
-0.5263 0.5263 0.0000
-0.5263 0.6316 0.0000
-0.5263 0.7368 0.0000
-0.5263 0.8421 0.0000
-0.5263 0.9474 0.0000
-0.4211 -0.9474 0.0000
-0.4211 -0.8421 0.0000
-0.4211 -0.7368 0.0000
-0.4211 -0.6316 0.0000
-0.4211 -0.5263 0.0000
-0.4211 0.5263 0.0000
-0.4211 0.6316 0.0000
-0.4211 0.7368 0.0000
-0.4211 0.8421 0.0000
-0.4211 0.9474 0.0000
-0.3158 -0.9474 0.0000
-0.3158 -0.8421 0.0000
-0.3158 -0.7368 0.0000
-0.3158 -0.6316 0.0000
-0.3158 0.6316 0.0000
-0.3158 0.7368 0.0000
-0.3158 0.8421 0.0000
-0.3158 0.9474 0.0000
-0.2105 -0.9474 0.0000
-0.2105 -0.8421 0.0000
-0.2105 -0.7368 0.0000
-0.2105 -0.6316 0.0000
-0.2105 0.6316 0.0000
-0.2105 0.7368 0.0000
-0.2105 0.8421 0.0000
-0.2105 0.9474 0.0000
-0.1053 -0.9474 0.0000
-0.1053 -0.8421 0.0000
-0.1053 -0.7368 0.0000
-0.1053 0.7368 0.0000
-0.1053 0.8421 0.0000
-0.1053 0.9474 0.0000
0.0000 -0.9474 0.0000
0.0000 -0.8421 0.0000
0.0000 -0.7368 0.0000
0.0000 0.7368 0.0000
0.0000 0.8421 0.0000
0.0000 0.9474 0.0000
0.1053 -0.9474 0.0000
0.1053 -0.8421 0.0000
0.1053 -0.7368 0.0000
0.1053 0.7368 0.0000
0.1053 0.8421 0.0000
0.1053 0.9474 0.0000
0.2105 -0.9474 0.0000
0.2105 -0.8421 0.0000
0.2105 -0.7368 0.0000
0.2105 0.7368 0.0000
0.2105 0.8421 0.0000
0.2105 0.9474 0.0000
0.3158 -0.9474 0.0000
0.3158 -0.8421 0.0000
0.3158 -0.7368 0.0000
0.3158 -0.6316 0.0000
0.3158 0.6316 0.0000
0.3158 0.7368 0.0000
0.3158 0.8421 0.0000
0.3158 0.9474 0.0000
0.4211 -0.9474 0.0000
0.4211 -0.8421 0.0000
[...]
         <PointData>
            <DataArray Name="fValues" NumberOfComponents="3" format="ascii" type="Float64">
 5.12243e-02  1.63566e-01        00000 
 4.92303e-02  1.67356e-01        00000 
 4.77495e-02  1.71239e-01        00000 
 4.70161e-02  1.75243e-01        00000 
 4.72443e-02  1.79389e-01        00000 
 4.85836e-02  1.83672e-01        00000 
 5.10610e-02  1.88069e-01        00000 
 5.45179e-02  1.92549e-01        00000 
 5.85814e-02  1.97083e-01        00000 
 6.27094e-02  2.01637e-01        00000 
 6.63068e-02  2.06175e-01        00000 
 6.88720e-02  2.10662e-01        00000 
 7.01031e-02  2.15067e-01        00000 
 6.99259e-02  2.19361e-01        00000 
 6.84527e-02  2.23519e-01        00000 
 6.59141e-02  2.27535e-01        00000 
 6.26026e-02  2.31430e-01        00000 
 5.88278e-02  2.35231e-01        00000 
 5.56068e-02  2.38325e-01        00000 
 5.05716e-02  1.65009e-01        00000 
 4.84205e-02  1.68616e-01        00000 
 4.68832e-02  1.72346e-01        00000 
 4.61214e-02  1.76226e-01        00000 
 4.63618e-02  1.80294e-01        00000 
 4.77705e-02  1.84567e-01        00000 
 5.03734e-02  1.89037e-01        00000 
 5.39834e-02  1.93673e-01        00000 
 5.81867e-02  1.98430e-01        00000 
 6.24108e-02  2.03242e-01        00000 
 6.60356e-02  2.08036e-01        00000 
 6.85434e-02  2.12752e-01        00000 
 6.96646e-02  2.17358e-01        00000 
 6.93743e-02  2.21818e-01        00000 
 6.78153e-02  2.26108e-01        00000 
 6.52307e-02  2.30210e-01        00000 
 6.19070e-02  2.34112e-01        00000 
 5.82744e-02  2.37778e-01        00000 
 5.43773e-02  2.41564e-01        00000 
 4.98325e-02  1.66449e-01        00000 
 4.75957e-02  1.69782e-01        00000 
 4.59116e-02  1.73187e-01        00000 
 4.50197e-02  1.76763e-01        00000 
 4.51699e-02  1.80576e-01        00000 
 4.65645e-02  1.84689e-01        00000 
 4.92688e-02  1.89150e-01        00000 
 5.30784e-02  1.93965e-01        00000 
 5.75175e-02  1.99139e-01        00000 
 6.20076e-02  2.04566e-01        00000 
 6.58604e-02  2.10019e-01        00000 
 6.84530e-02  2.15321e-01        00000 
 6.95346e-02  2.20345e-01        00000 
 6.91427e-02  2.25067e-01        00000 
 6.74678e-02  2.29466e-01        00000 
 6.47806e-02  2.33586e-01        00000 
 6.14036e-02  2.37436e-01        00000 
 5.75931e-02  2.41096e-01        00000 
 5.35240e-02  2.44598e-01        00000 
 4.92095e-02  1.68133e-01        00000 
 4.68529e-02  1.71006e-01        00000 
 4.49630e-02  1.73904e-01        00000 
 4.38437e-02  1.76941e-01        00000 
 4.38132e-02  1.80204e-01        00000 
 4.51102e-02  1.83773e-01        00000 
 4.78224e-02  1.87831e-01        00000 
 5.17936e-02  1.92649e-01        00000 
 5.63519e-02  1.98342e-01        00000 
 6.10643e-02  2.05003e-01        00000 
 6.54372e-02  2.12044e-01        00000 
 6.83531e-02  2.18588e-01        00000 
 6.96112e-02  2.24472e-01        00000 
 6.92488e-02  2.29469e-01        00000 
 6.74375e-02  2.33952e-01        00000 
 6.46185e-02  2.37993e-01        00000 
 6.10993e-02  2.41682e-01        00000 
 5.71450e-02  2.45079e-01        00000 
 5.29618e-02  2.48222e-01        00000 
 4.88730e-02  1.70322e-01        00000 
 4.63432e-02  1.72552e-01        00000 
 4.41866e-02  1.74736e-01        00000 
 4.27653e-02  1.76976e-01        00000 
 4.25163e-02  1.79316e-01        00000 
 4.37920e-02  1.81745e-01        00000 
 4.65675e-02  1.84270e-01        00000 
 7.00768e-02  2.30332e-01        00000 
 6.97234e-02  2.35696e-01        00000 
 6.78461e-02  2.40026e-01        00000 
 6.48397e-02  2.43755e-01        00000 
 6.11280e-02  2.47090e-01        00000 
 5.70274e-02  2.50077e-01        00000 
 5.27325e-02  2.52720e-01        00000 
 4.89403e-02  1.73269e-01        00000 
 4.62146e-02  1.74740e-01        00000 
 4.37265e-02  1.76059e-01        00000 
 4.19222e-02  1.77327e-01        00000 
 4.15044e-02  1.78440e-01        00000 
 6.89969e-02  2.48082e-01        00000 
 6.55913e-02  2.51123e-01        00000 
 6.15770e-02  2.53913e-01        00000 
 5.73150e-02  2.56346e-01        00000 
 5.29136e-02  2.58385e-01        00000 
 4.94832e-02  1.77218e-01        00000 
 4.65538e-02  1.77929e-01        00000 
 4.36843e-02  1.78403e-01        00000 
 4.12757e-02  1.78693e-01        00000 
 6.69469e-02  2.60265e-01        00000 
 6.25202e-02  2.62272e-01        00000 
 5.80482e-02  2.64041e-01        00000 
 5.35531e-02  2.65431e-01        00000 
 5.05023e-02  1.82336e-01        00000 
 4.73779e-02  1.82433e-01        00000 
 4.39923e-02  1.82276e-01        00000 
 4.07533e-02  1.82110e-01        00000 
 6.90560e-02  2.70961e-01        00000 
 6.39330e-02  2.72061e-01        00000 
 5.92081e-02  2.73156e-01        00000 
 5.46411e-02  2.73938e-01        00000 
 5.19224e-02  1.88634e-01        00000 
 4.86189e-02  1.88387e-01        00000 
 4.46565e-02  1.87936e-01        00000 
 6.56533e-02  2.82966e-01        00000 
 6.07065e-02  2.83474e-01        00000 
 5.60994e-02  2.83777e-01        00000 
 5.36007e-02  1.95904e-01        00000 
 5.01803e-02  1.95651e-01        00000 
 4.57034e-02  1.95240e-01        00000 
 6.74742e-02  2.94516e-01        00000 
 6.24127e-02  2.94548e-01        00000 
 5.77929e-02  2.94566e-01        00000 
 5.53545e-02  2.03738e-01        00000 
 5.19211e-02  2.03807e-01        00000 
 4.73374e-02  2.03697e-01        00000 
 6.92142e-02  3.05909e-01        00000 
 6.41661e-02  3.05696e-01        00000 
 5.95421e-02  3.05703e-01        00000 
 5.69780e-02  2.11625e-01        00000 
 5.36679e-02  2.12306e-01        00000 
 4.94481e-02  2.12808e-01        00000 
 7.07023e-02  3.16228e-01        00000 
 6.57610e-02  3.16156e-01        00000 
 6.11380e-02  3.16492e-01        00000 
 5.82607e-02  2.19087e-01        00000 
 5.51793e-02  2.20622e-01        00000 
 5.16403e-02  2.22012e-01        00000 
 4.74936e-02  2.22723e-01        00000 
 7.67133e-02  3.24656e-01        00000 
 7.17352e-02  3.24779e-01        00000 
 6.69666e-02  3.25314e-01        00000 
 6.23630e-02  3.26331e-01        00000 
 5.90098e-02  2.25765e-01        00000 
 5.61781e-02  2.28348e-01        00000 
 5.32638e-02  2.31035e-01        00000 
 5.01361e-02  2.33663e-01        00000 
 7.65344e-02  3.30195e-01        00000 
 7.21490e-02  3.31349e-01        00000 
 6.75765e-02  3.32871e-01        00000 
 6.30305e-02  3.34838e-01        00000 
 5.91008e-02  2.31428e-01        00000 
 5.64671e-02  2.35082e-01        00000 
 5.39464e-02  2.39002e-01        00000 
 5.17357e-02  2.43094e-01        00000 
 5.03658e-02  2.47426e-01        00000 
 7.88123e-02  3.31391e-01        00000 
 7.58156e-02  3.33711e-01        00000 
 7.18340e-02  3.36161e-01        00000 
 6.74785e-02  3.38853e-01        00000 
 6.30296e-02  3.41884e-01        00000 
 5.85166e-02  2.35996e-01        00000 
 5.60284e-02  2.40581e-01        00000 
 5.38034e-02  2.45464e-01        00000 
 5.20438e-02  2.50690e-01        00000 
 5.10549e-02  2.56450e-01        00000 
 5.12119e-02  2.63172e-01        00000 
 5.38150e-02  2.70732e-01        00000 
 7.74992e-02  3.24646e-01        00000 
 7.82649e-02  3.28434e-01        00000 
 7.71275e-02  3.32204e-01        00000 
 7.44602e-02  3.35942e-01        00000 
 7.08171e-02  3.39675e-01        00000 
 6.66742e-02  3.43502e-01        00000 
 6.23504e-02  3.47548e-01        00000 
 5.73288e-02  2.39532e-01        00000 
 5.49648e-02  2.44836e-01        00000 
 5.29513e-02  2.50407e-01        00000 
 5.14671e-02  2.56286e-01        00000 
 5.07264e-02  2.62545e-01        00000 
 5.11539e-02  2.69239e-01        00000 
 5.29660e-02  2.76812e-01        00000 
 5.63047e-02  2.85084e-01        00000 
 6.09724e-02  2.93988e-01        00000 
 6.56596e-02  3.02577e-01        00000 
 6.99298e-02  3.10110e-01        00000 
 7.35221e-02  3.16682e-01        00000 
 7.56653e-02  3.22424e-01        00000 
 7.61670e-02  3.27684e-01        00000 
 7.50652e-02  3.32720e-01        00000 
 7.26108e-02  3.37595e-01        00000 
 6.92150e-02  3.42374e-01        00000 
 6.52674e-02  3.47155e-01        00000 
 6.10735e-02  3.52046e-01        00000 
 5.56547e-02  2.42198e-01        00000 
 5.33951e-02  2.48006e-01        00000 
 5.15748e-02  2.54000e-01        00000 
 5.03536e-02  2.60195e-01        00000 
 4.99468e-02  2.66597e-01        00000 
 5.05748e-02  2.73243e-01        00000 
 5.24247e-02  2.80114e-01        00000 
 5.55522e-02  2.87223e-01        00000 
 5.96916e-02  2.94481e-01        00000 
 6.41759e-02  3.01719e-01        00000 
 6.83277e-02  3.08694e-01        00000 
 7.16163e-02  3.15314e-01        00000 
 7.35566e-02  3.21628e-01        00000 
 7.39276e-02  3.27663e-01        00000 
 7.28077e-02  3.33476e-01        00000 
 7.04486e-02  3.39127e-01        00000 
 6.72068e-02  3.44676e-01        00000 
 6.34180e-02  3.50157e-01        00000 
 5.93395e-02  3.55671e-01        00000 
 5.35947e-02  2.44233e-01        00000 
 5.14491e-02  2.50311e-01        00000 
 4.98186e-02  2.56504e-01        00000 
 4.88623e-02  2.62834e-01        00000 
 4.87819e-02  2.69291e-01        00000 
 4.97550e-02  2.75838e-01        00000 
 5.18775e-02  2.82446e-01        00000 
 5.50864e-02  2.89092e-01        00000 
 5.90747e-02  2.95772e-01        00000 
 6.32969e-02  3.02457e-01        00000 
 6.71372e-02  3.09099e-01        00000 
 7.00519e-02  3.15665e-01        00000 
 7.16580e-02  3.22138e-01        00000 
 7.18035e-02  3.28499e-01        00000 
 7.05636e-02  3.34732e-01        00000 
 6.81716e-02  3.40841e-01        00000 
 6.49394e-02  3.46861e-01        00000 
 6.12998e-02  3.52882e-01        00000 
 5.73446e-02  3.58703e-01        00000 
 6.78692e-02  2.24052e-01        00000 
 7.10368e-02  2.44649e-01        00000 
 7.12938e-02  2.58155e-01        00000 
 7.44925e-02  2.70423e-01        00000 
 7.15711e-02  2.82500e-01        00000 
 7.38519e-02  2.94615e-01        00000 
 7.54918e-02  3.06329e-01        00000 
 7.63599e-02  3.16638e-01        00000 
 8.01546e-02  3.29382e-01        00000 
 5.12568e-02  2.45823e-01        00000 
 4.92601e-02  2.51934e-01        00000 
 4.77765e-02  2.58150e-01        00000 
 4.70401e-02  2.64493e-01        00000 
 4.72660e-02  2.70950e-01        00000 
 4.86043e-02  2.77490e-01        00000 
 5.10830e-02  2.84073e-01        00000 
 5.45417e-02  2.90675e-01        00000 
 5.86050e-02  2.97283e-01        00000 
 6.27313e-02  3.03895e-01        00000 
 6.63293e-02  3.10501e-01        00000 
 6.88980e-02  3.17097e-01        00000 
 7.01327e-02  3.23671e-01        00000 
 6.99573e-02  3.30200e-01        00000 
 6.84848e-02  3.36644e-01        00000 
 6.59466e-02  3.42976e-01        00000 
 6.26357e-02  3.49181e-01        00000 
 5.88617e-02  3.55282e-01        00000 
 5.53736e-02  3.61942e-01        00000 
 5.31974e-02  1.61378e-01        00000 
 5.23384e-02  1.63057e-01        00000 
 5.17670e-02  1.65174e-01        00000 
 5.15267e-02  1.67937e-01        00000 
 5.16962e-02  1.71559e-01        00000 
 5.23245e-02  1.76197e-01        00000 
 5.34029e-02  1.81910e-01        00000 
 5.48548e-02  1.88600e-01        00000 
 5.65455e-02  1.95988e-01        00000 
 5.82953e-02  2.03632e-01        00000 
 5.98947e-02  2.11021e-01        00000 
 6.11254e-02  2.17712e-01        00000 
 8.12406e-02  3.24661e-01        00000 
 6.18011e-02  2.23427e-01        00000 
 6.18103e-02  2.28068e-01        00000 
 7.98993e-02  3.29378e-01        00000 
 6.11424e-02  2.31692e-01        00000 
 7.51539e-02  3.20849e-01        00000 
 5.98767e-02  2.34457e-01        00000 
 5.81525e-02  2.36576e-01        00000 
 5.61639e-02  2.38257e-01        00000 
 5.41911e-02  2.40095e-01        00000 
 5.44246e-02  1.59543e-01        00000 
 5.23054e-02  1.62446e-01        00000 
 4.98387e-02  1.66117e-01        00000 
 4.80517e-02  1.69882e-01        00000 
 4.69272e-02  1.73760e-01        00000 
 4.66761e-02  1.77789e-01        00000 
 4.74888e-02  1.81989e-01        00000 
 4.94563e-02  1.86352e-01        00000 
 5.25035e-02  1.90851e-01        00000 
 5.63452e-02  1.95451e-01        00000 
 6.05043e-02  2.00110e-01        00000 
 6.43977e-02  2.04776e-01        00000 
 6.74680e-02  2.09399e-01        00000 
 6.93208e-02  2.13946e-01        00000 
 6.97877e-02  2.18387e-01        00000 
 6.89085e-02  2.22691e-01        00000 
 6.68640e-02  2.26837e-01        00000 
 6.39145e-02  2.30820e-01        00000 
 6.03859e-02  2.34655e-01        00000 
 5.68582e-02  2.38140e-01        00000 
 5.14553e-02  1.63988e-01        00000 
 4.90707e-02  1.67453e-01        00000 
 4.71622e-02  1.70964e-01        00000 
 4.59459e-02  1.74614e-01        00000 
 4.56364e-02  1.78453e-01        00000 
 4.64466e-02  1.82529e-01        00000 
 4.84933e-02  1.86873e-01        00000 
 5.16983e-02  1.91481e-01        00000 
 5.57437e-02  1.96331e-01        00000 
 6.01075e-02  2.01378e-01        00000 
 6.41609e-02  2.06495e-01        00000 
 6.72964e-02  2.11543e-01        00000 
 6.91011e-02  2.16439e-01        00000 
 6.94618e-02  2.21134e-01        00000 
 6.84637e-02  2.25600e-01        00000 
 6.63259e-02  2.29830e-01        00000 
 6.33240e-02  2.33830e-01        00000 
 5.97938e-02  2.37583e-01        00000 
 5.59065e-02  2.41237e-01        00000 
 5.07326e-02  1.65697e-01        00000 
 4.83153e-02  1.68827e-01        00000 
 4.62673e-02  1.71944e-01        00000 
 4.48672e-02  1.75170e-01        00000 
 4.43930e-02  1.78598e-01        00000 
 4.50963e-02  1.82298e-01        00000 
 4.71411e-02  1.86362e-01        00000 
 5.04912e-02  1.90919e-01        00000 
 5.47503e-02  1.96039e-01        00000 
 5.93895e-02  2.01790e-01        00000 
 6.37909e-02  2.07973e-01        00000 
 6.71812e-02  2.14034e-01        00000 
 6.90955e-02  2.19704e-01        00000 
 6.94186e-02  2.24842e-01        00000 
 6.83348e-02  2.29472e-01        00000 
 6.60662e-02  2.33733e-01        00000 
 6.29554e-02  2.37657e-01        00000 
 5.92773e-02  2.41306e-01        00000 
 5.52612e-02  2.44735e-01        00000 
 5.02724e-02  1.67879e-01        00000 
 4.77393e-02  1.70481e-01        00000 
 4.54973e-02  1.73016e-01        00000 
 4.38400e-02  1.75601e-01        00000 
 4.31192e-02  1.78332e-01        00000 
 4.36656e-02  1.81257e-01        00000 
 4.56313e-02  1.84413e-01        00000 
 4.89797e-02  1.88130e-01        00000 
 5.32991e-02  1.93308e-01        00000 
 5.78750e-02  2.00348e-01        00000 
 6.26202e-02  2.08760e-01        00000 
 6.67617e-02  2.17390e-01        00000 
 6.90271e-02  2.24480e-01        00000 
 6.97111e-02  2.29994e-01        00000 
 6.85447e-02  2.34778e-01        00000 
 6.61465e-02  2.38908e-01        00000 
 6.28770e-02  2.42606e-01        00000 
 5.90488e-02  2.45964e-01        00000 
 5.49041e-02  2.49011e-01        00000 
 5.01747e-02  1.70759e-01        00000 
 4.74980e-02  1.72696e-01        00000 
 4.50095e-02  1.74481e-01        00000 
 4.30286e-02  1.76227e-01        00000 
 4.20238e-02  1.77994e-01        00000 
 4.24958e-02  1.79680e-01        00000 
 4.46658e-02  1.81160e-01        00000 
 6.90164e-02  2.31281e-01        00000 
 7.04000e-02  2.37773e-01        00000 
 6.92887e-02  2.42093e-01        00000 
 6.67324e-02  2.45697e-01        00000 
 6.32160e-02  2.48932e-01        00000 
 5.91924e-02  2.51836e-01        00000 
 5.49216e-02  2.54369e-01        00000 
 5.05248e-02  1.74550e-01        00000 
 4.77029e-02  1.75764e-01        00000 
 4.49393e-02  1.76735e-01        00000 
 4.25300e-02  1.77545e-01        00000 
 4.12178e-02  1.78279e-01        00000 
 7.11245e-02  2.51694e-01        00000 
 6.80910e-02  2.54288e-01        00000 
 6.40609e-02  2.56842e-01        00000 
 5.97821e-02  2.59117e-01        00000 
 5.53763e-02  2.61039e-01        00000 
 5.13540e-02  1.79408e-01        00000 
 4.84025e-02  1.79955e-01        00000 
 4.53233e-02  1.80196e-01        00000 
 4.23694e-02  1.80267e-01        00000 
 7.02509e-02  2.64815e-01        00000 
 6.55006e-02  2.66303e-01        00000 
 6.08430e-02  2.67851e-01        00000 
 5.62868e-02  2.69133e-01        00000 
 5.26216e-02  1.85366e-01        00000 
 4.95626e-02  1.85425e-01        00000 
 4.61246e-02  1.85186e-01        00000 
 4.22741e-02  1.84804e-01        00000 
 7.34015e-02  2.76434e-01        00000 
 6.74741e-02  2.77023e-01        00000 
 6.23019e-02  2.77887e-01        00000 
 5.76039e-02  2.78581e-01        00000 
 5.42161e-02  1.92280e-01        00000 
 5.10797e-02  1.92129e-01        00000 
 4.72948e-02  1.91739e-01        00000 
 6.95669e-02  2.88592e-01        00000 
 6.40023e-02  2.88862e-01        00000 
 5.92173e-02  2.89090e-01        00000 
 5.59728e-02  1.99816e-01        00000 
 5.28045e-02  1.99773e-01        00000 
 4.88231e-02  1.99585e-01        00000 
 7.14680e-02  3.00355e-01        00000 
 6.57861e-02  3.00169e-01        00000 
 6.09769e-02  3.00128e-01        00000 
 5.76929e-02  2.07507e-01        00000 
 5.45568e-02  2.07884e-01        00000 
 5.06702e-02  2.08200e-01        00000 
 7.29433e-02  3.11354e-01        00000 
 6.74786e-02  3.11011e-01        00000 
 6.26930e-02  3.11012e-01        00000 
 5.91610e-02  2.14868e-01        00000 
 5.61283e-02  2.15939e-01        00000 
 5.25949e-02  2.17022e-01        00000 
 7.39443e-02  3.20660e-01        00000 
 6.88671e-02  3.20641e-01        00000 
 6.41423e-02  3.21075e-01        00000 
 6.01697e-02  2.21507e-01        00000 
 5.72880e-02  2.23487e-01        00000 
 5.42276e-02  2.25583e-01        00000 
 5.08731e-02  2.27486e-01        00000 
 7.87630e-02  3.27337e-01        00000 
 7.44118e-02  3.27819e-01        00000 
 6.97303e-02  3.28603e-01        00000 
 6.51029e-02  3.29846e-01        00000 
 6.05583e-02  2.27182e-01        00000 
 5.78227e-02  2.30180e-01        00000 
 5.51180e-02  2.33416e-01        00000 
 5.24535e-02  2.36813e-01        00000 
 7.80175e-02  3.31248e-01        00000 
 7.42452e-02  3.32904e-01        00000 
 6.99058e-02  3.34836e-01        00000 
 6.54118e-02  3.37124e-01        00000 
 6.02605e-02  2.31807e-01        00000 
 5.76446e-02  2.35790e-01        00000 
 5.51816e-02  2.40069e-01        00000 
 5.30242e-02  2.44619e-01        00000 
 5.14785e-02  2.49462e-01        00000 
 7.87455e-02  3.30346e-01        00000 
 7.67311e-02  3.33353e-01        00000 
 7.33921e-02  3.36414e-01        00000 
 6.93428e-02  3.39574e-01        00000 
 6.50101e-02  3.42963e-01        00000 
 5.93125e-02  2.35429e-01        00000 
 5.67996e-02  2.40252e-01        00000 
 5.45230e-02  2.45348e-01        00000 
 5.26480e-02  2.50746e-01        00000 
 5.13854e-02  2.56524e-01        00000 
 5.10332e-02  2.62885e-01        00000 
 5.22883e-02  2.69890e-01        00000 
 7.57034e-02  3.21125e-01        00000 
 7.70830e-02  3.25764e-01        00000 
 7.68144e-02  3.30265e-01        00000 
 7.49581e-02  3.34642e-01        00000 
 7.19066e-02  3.38927e-01        00000 
 6.81126e-02  3.43201e-01        00000 
 6.39470e-02  3.47579e-01        00000 
 5.78215e-02  2.38197e-01        00000 
 5.53988e-02  2.43656e-01        00000 
 5.32743e-02  2.49336e-01        00000 
 5.16263e-02  2.55255e-01        00000 
 5.06414e-02  2.61448e-01        00000 
 5.05945e-02  2.67931e-01        00000 
 5.16920e-02  2.74857e-01        00000 
 5.41666e-02  2.82282e-01        00000 
 5.79243e-02  2.90128e-01        00000 
 6.24561e-02  2.98166e-01        00000 
 6.69534e-02  3.05760e-01        00000 
 7.08551e-02  3.12662e-01        00000 
 7.36616e-02  3.18987e-01        00000 
 7.49261e-02  3.24834e-01        00000 
 7.45890e-02  3.30384e-01        00000 
 7.28301e-02  3.35741e-01        00000 
 6.99665e-02  3.40962e-01        00000 
 6.63642e-02  3.46110e-01        00000 
 6.23524e-02  3.51271e-01        00000 
 5.59358e-02  2.40307e-01        00000 
 5.35571e-02  2.46201e-01        00000 
 5.15842e-02  2.52229e-01        00000 
 5.01691e-02  2.58416e-01        00000 
 4.94930e-02  2.64770e-01        00000 
 4.97523e-02  2.71285e-01        00000 
 5.11252e-02  2.77944e-01        00000 
 5.36772e-02  2.84729e-01        00000 
 5.72791e-02  2.91623e-01        00000 
 6.14906e-02  2.98574e-01        00000 