<?xml version="1.0" encoding="utf-8"?>
<VTKFile byte_order="LittleEndian" type="UnstructuredGrid" version="0.1">
   <UnstructuredGrid>
      <Piece NumberOfCells="1444" NumberOfPoints="761">
         <Points>
            <DataArray Name="Points" NumberOfComponents="3" format="ascii" type="Float32">
-1.0000 -1.0000 0.0000
-1.0000 -0.8947 0.0000
-1.0000 -0.7895 0.0000
-1.0000 -0.6842 0.0000
-1.0000 -0.5789 0.0000
-1.0000 -0.4737 0.0000
-1.0000 -0.3684 0.0000
-1.0000 -0.2632 0.0000
-1.0000 -0.1579 0.0000
-1.0000 -0.0526 0.0000
-1.0000 0.0526 0.0000
-1.0000 0.1579 0.0000
-1.0000 0.2632 0.0000
-1.0000 0.3684 0.0000
-1.0000 0.4737 0.0000
-1.0000 0.5789 0.0000
-1.0000 0.6842 0.0000
-1.0000 0.7895 0.0000
-1.0000 0.8947 0.0000
-1.0000 1.0000 0.0000
-0.8947 -1.0000 0.0000
-0.8947 -0.8947 0.0000
-0.8947 -0.7895 0.0000
-0.8947 -0.6842 0.0000
-0.8947 -0.5789 0.0000
-0.8947 -0.4737 0.0000
-0.8947 -0.3684 0.0000
-0.8947 -0.2632 0.0000
-0.8947 -0.1579 0.0000
-0.8947 -0.0526 0.0000
-0.8947 0.0526 0.0000
-0.8947 0.1579 0.0000
-0.8947 0.2632 0.0000
-0.8947 0.3684 0.0000
-0.8947 0.4737 0.0000
-0.8947 0.5789 0.0000
-0.8947 0.6842 0.0000
-0.8947 0.7895 0.0000
-0.8947 0.8947 0.0000
-0.8947 1.0000 0.0000
-0.7895 -1.0000 0.0000
-0.7895 -0.8947 0.0000
-0.7895 -0.7895 0.0000
-0.7895 -0.6842 0.0000
-0.7895 -0.5789 0.0000
-0.7895 -0.4737 0.0000
-0.7895 -0.3684 0.0000
-0.7895 -0.2632 0.0000
-0.7895 -0.1579 0.0000
-0.7895 -0.0526 0.0000
-0.7895 0.0526 0.0000
-0.7895 0.1579 0.0000
-0.7895 0.2632 0.0000
-0.7895 0.3684 0.0000
-0.7895 0.4737 0.0000
-0.7895 0.5789 0.0000
-0.7895 0.6842 0.0000
-0.7895 0.7895 0.0000
-0.7895 0.8947 0.0000
-0.7895 1.0000 0.0000
-0.6842 -1.0000 0.0000
-0.6842 -0.8947 0.0000
-0.6842 -0.7895 0.0000
-0.6842 -0.6842 0.0000
-0.6842 -0.5789 0.0000
-0.6842 -0.4737 0.0000
-0.6842 -0.3684 0.0000
-0.6842 -0.2632 0.0000
-0.6842 -0.1579 0.0000
-0.6842 -0.0526 0.0000
-0.6842 0.0526 0.0000
-0.6842 0.1579 0.0000
-0.6842 0.2632 0.0000
-0.6842 0.3684 0.0000
-0.6842 0.4737 0.0000
-0.6842 0.5789 0.0000
-0.6842 0.6842 0.0000
-0.6842 0.7895 0.0000
-0.6842 0.8947 0.0000
-0.6842 1.0000 0.0000
-0.5789 -1.0000 0.0000
-0.5789 -0.8947 0.0000
-0.5789 -0.7895 0.0000
-0.5789 -0.6842 0.0000
-0.5789 -0.5789 0.0000
-0.5789 -0.4737 0.0000
-0.5789 -0.3684 0.0000
-0.5789 -0.2632 0.0000
-0.5789 -0.1579 0.0000
-0.5789 -0.0526 0.0000
-0.5789 0.0526 0.0000
-0.5789 0.1579 0.0000
-0.5789 0.2632 0.0000
-0.5789 0.3684 0.0000
-0.5789 0.4737 0.0000
-0.5789 0.5789 0.0000
-0.5789 0.6842 0.0000
-0.5789 0.7895 0.0000
-0.5789 0.8947 0.0000
-0.5789 1.0000 0.0000
-0.4737 -1.0000 0.0000
-0.4737 -0.8947 0.0000
-0.4737 -0.7895 0.0000
-0.4737 -0.6842 0.0000
-0.4737 -0.5789 0.0000
-0.4737 -0.4737 0.0000
-0.4737 -0.3684 0.0000
-0.4737 -0.2632 0.0000
-0.4737 -0.1579 0.0000
-0.4737 -0.0526 0.0000
-0.4737 0.0526 0.0000
-0.4737 0.1579 0.0000
-0.4737 0.2632 0.0000
-0.4737 0.3684 0.0000
-0.4737 0.4737 0.0000
-0.4737 0.5789 0.0000
-0.4737 0.6842 0.0000
-0.4737 0.7895 0.0000
-0.4737 0.8947 0.0000
-0.4737 1.0000 0.0000
-0.3684 -1.0000 0.0000
-0.3684 -0.8947 0.0000
-0.3684 -0.7895 0.0000
-0.3684 -0.6842 0.0000
-0.3684 -0.5789 0.0000
-0.3684 -0.4737 0.0000
-0.3684 -0.3684 0.0000
-0.3684 -0.2632 0.0000
-0.3684 -0.1579 0.0000
-0.3684 -0.0526 0.0000
-0.3684 0.0526 0.0000
-0.3684 0.1579 0.0000
-0.3684 0.2632 0.0000
-0.3684 0.3684 0.0000
-0.3684 0.4737 0.0000
-0.3684 0.5789 0.0000
-0.3684 0.6842 0.0000
-0.3684 0.7895 0.0000
-0.3684 0.8947 0.0000
-0.3684 1.0000 0.0000
-0.2632 -1.0000 0.0000
-0.2632 -0.8947 0.0000
-0.2632 -0.7895 0.0000
-0.2632 -0.6842 0.0000
-0.2632 -0.5789 0.0000
-0.2632 -0.4737 0.0000
-0.2632 -0.3684 0.0000
-0.2632 -0.2632 0.0000
-0.2632 -0.1579 0.0000
-0.2632 -0.0526 0.0000
-0.2632 0.0526 0.0000
-0.2632 0.1579 0.0000
-0.2632 0.2632 0.0000
-0.2632 0.3684 0.0000
-0.2632 0.4737 0.0000
-0.2632 0.5789 0.0000
-0.2632 0.6842 0.0000
-0.2632 0.7895 0.0000
-0.2632 0.8947 0.0000
-0.2632 1.0000 0.0000
-0.1579 -1.0000 0.0000
-0.1579 -0.8947 0.0000
-0.1579 -0.7895 0.0000
-0.1579 -0.6842 0.0000
-0.1579 -0.5789 0.0000
-0.1579 -0.4737 0.0000
-0.1579 -0.3684 0.0000
-0.1579 -0.2632 0.0000
-0.1579 -0.1579 0.0000
-0.1579 -0.0526 0.0000
-0.1579 0.0526 0.0000
-0.1579 0.1579 0.0000
-0.1579 0.2632 0.0000
-0.1579 0.3684 0.0000
-0.1579 0.4737 0.0000
-0.1579 0.5789 0.0000
-0.1579 0.6842 0.0000
-0.1579 0.7895 0.0000
-0.1579 0.8947 0.0000
-0.1579 1.0000 0.0000
-0.0526 -1.0000 0.0000
-0.0526 -0.8947 0.0000
-0.0526 -0.7895 0.0000
-0.0526 -0.6842 0.0000
-0.0526 -0.5789 0.0000
-0.0526 -0.4737 0.0000
-0.0526 -0.3684 0.0000
-0.0526 -0.2632 0.0000
-0.0526 -0.1579 0.0000
-0.0526 -0.0526 0.0000
-0.0526 0.0526 0.0000
-0.0526 0.1579 0.0000
-0.0526 0.2632 0.0000
-0.0526 0.3684 0.0000
-0.0526 0.4737 0.0000
-0.0526 0.5789 0.0000
-0.0526 0.6842 0.0000
-0.0526 0.7895 0.0000
-0.0526 0.8947 0.0000
-0.0526 1.0000 0.0000
0.0526 -1.0000 0.0000
0.0526 -0.8947 0.0000
0.0526 -0.7895 0.0000
0.0526 -0.6842 0.0000
0.0526 -0.5789 0.0000
0.0526 -0.4737 0.0000
0.0526 -0.3684 0.0000
0.0526 -0.2632 0.0000
0.0526 -0.1579 0.0000
0.0526 -0.0526 0.0000
0.0526 0.0526 0.0000
0.0526 0.1579 0.0000
0.0526 0.2632 0.0000
0.0526 0.3684 0.0000
0.0526 0.4737 0.0000
0.0526 0.5789 0.0000
0.0526 0.6842 0.0000
0.0526 0.7895 0.0000
0.0526 0.8947 0.0000
0.0526 1.0000 0.0000
0.1579 -1.0000 0.0000
0.1579 -0.8947 0.0000
0.1579 -0.7895 0.0000
0.1579 -0.6842 0.0000
0.1579 -0.5789 0.0000
0.1579 -0.4737 0.0000
0.1579 -0.3684 0.0000
0.1579 -0.2632 0.0000
0.1579 -0.1579 0.0000
0.1579 -0.0526 0.0000
0.1579 0.0526 0.0000
0.1579 0.1579 0.0000
0.1579 0.2632 0.0000
0.1579 0.3684 0.0000
0.1579 0.4737 0.0000
0.1579 0.5789 0.0000
0.1579 0.6842 0.0000
0.1579 0.7895 0.0000
0.1579 0.8947 0.0000
0.1579 1.0000 0.0000
0.2632 -1.0000 0.0000
0.2632 -0.8947 0.0000
0.2632 -0.7895 0.0000
0.2632 -0.6842 0.0000
0.2632 -0.5789 0.0000
0.2632 -0.4737 0.0000
0.2632 -0.3684 0.0000
0.2632 -0.2632 0.0000
0.2632 -0.1579 0.0000
0.2632 -0.0526 0.0000
0.2632 0.0526 0.0000
0.2632 0.1579 0.0000
0.2632 0.2632 0.0000
0.2632 0.3684 0.0000
0.2632 0.4737 0.0000
0.2632 0.5789 0.0000
0.2632 0.6842 0.0000
0.2632 0.7895 0.0000
0.2632 0.8947 0.0000
0.2632 1.0000 0.0000
0.3684 -1.0000 0.0000
0.3684 -0.8947 0.0000
0.3684 -0.7895 0.0000
0.3684 -0.6842 0.0000
0.3684 -0.5789 0.0000
0.3684 -0.4737 0.0000
0.3684 -0.3684 0.0000
0.3684 -0.2632 0.0000
0.3684 -0.1579 0.0000
0.3684 -0.0526 0.0000
0.3684 0.0526 0.0000
0.3684 0.1579 0.0000
0.3684 0.2632 0.0000
0.3684 0.3684 0.0000
0.3684 0.4737 0.0000
0.3684 0.5789 0.0000
0.3684 0.6842 0.0000
0.3684 0.7895 0.0000
0.3684 0.8947 0.0000
0.3684 1.0000 0.0000
0.4737 -1.0000 0.0000
0.4737 -0.8947 0.0000
0.4737 -0.7895 0.0000
0.4737 -0.6842 0.0000
0.4737 -0.5789 0.0000
0.4737 -0.4737 0.0000
0.4737 -0.3684 0.0000
0.4737 -0.2632 0.0000
0.4737 -0.1579 0.0000
0.4737 -0.0526 0.0000
0.4737 0.0526 0.0000
0.4737 0.1579 0.0000
0.4737 0.2632 0.0000
0.4737 0.3684 0.0000
0.4737 0.4737 0.0000
0.4737 0.5789 0.0000
0.4737 0.6842 0.0000
0.4737 0.7895 0.0000
0.4737 0.8947 0.0000
0.4737 1.0000 0.0000
0.5789 -1.0000 0.0000
0.5789 -0.8947 0.0000
0.5789 -0.7895 0.0000
0.5789 -0.6842 0.0000
0.5789 -0.5789 0.0000
0.5789 -0.4737 0.0000
0.5789 -0.3684 0.0000
0.5789 -0.2632 0.0000
0.5789 -0.1579 0.0000
0.5789 -0.0526 0.0000
0.5789 0.0526 0.0000
0.5789 0.1579 0.0000
0.5789 0.2632 0.0000
0.5789 0.3684 0.0000
0.5789 0.4737 0.0000
0.5789 0.5789 0.0000
0.5789 0.6842 0.0000
0.5789 0.7895 0.0000
0.5789 0.8947 0.0000
0.5789 1.0000 0.0000
0.6842 -1.0000 0.0000
0.6842 -0.8947 0.0000
0.6842 -0.7895 0.0000
0.6842 -0.6842 0.0000
0.6842 -0.5789 0.0000
0.6842 -0.4737 0.0000
0.6842 -0.3684 0.0000
0.6842 -0.2632 0.0000
0.6842 -0.1579 0.0000
0.6842 -0.0526 0.0000
0.6842 0.0526 0.0000
0.6842 0.1579 0.0000
0.6842 0.2632 0.0000
0.6842 0.3684 0.0000
0.6842 0.4737 0.0000
0.6842 0.5789 0.0000
0.6842 0.6842 0.0000
0.6842 0.7895 0.0000
0.6842 0.8947 0.0000
0.6842 1.0000 0.0000
0.7895 -1.0000 0.0000
0.7895 -0.8947 0.0000
0.7895 -0.7895 0.0000
0.7895 -0.6842 0.0000
0.7895 -0.5789 0.0000
0.7895 -0.4737 0.0000
0.7895 -0.3684 0.0000
0.7895 -0.2632 0.0000
0.7895 -0.1579 0.0000
0.7895 -0.0526 0.0000
0.7895 0.0526 0.0000
0.7895 0.1579 0.0000
0.7895 0.2632 0.0000
0.7895 0.3684 0.0000
0.7895 0.4737 0.0000
0.7895 0.5789 0.0000
0.7895 0.6842 0.0000
0.7895 0.7895 0.0000
0.7895 0.8947 0.0000
0.7895 1.0000 0.0000
0.8947 -1.0000 0.0000
0.8947 -0.8947 0.0000
0.8947 -0.7895 0.0000
0.8947 -0.6842 0.0000
0.8947 -0.5789 0.0000
0.8947 -0.4737 0.0000
0.8947 -0.3684 0.0000
0.8947 -0.2632 0.0000
0.8947 -0.1579 0.0000
0.8947 -0.0526 0.0000
0.8947 0.0526 0.0000
0.8947 0.1579 0.0000
0.8947 0.2632 0.0000
0.8947 0.3684 0.0000
0.8947 0.4737 0.0000
0.8947 0.5789 0.0000
0.8947 0.6842 0.0000
0.8947 0.7895 0.0000
0.8947 0.8947 0.0000
0.8947 1.0000 0.0000
1.0000 -1.0000 0.0000
1.0000 -0.8947 0.0000
1.0000 -0.7895 0.0000
1.0000 -0.6842 0.0000
1.0000 -0.5789 0.0000
1.0000 -0.4737 0.0000
1.0000 -0.3684 0.0000
1.0000 -0.2632 0.0000
1.0000 -0.1579 0.0000
1.0000 -0.0526 0.0000
1.0000 0.0526 0.0000
1.0000 0.1579 0.0000
1.0000 0.2632 0.0000
1.0000 0.3684 0.0000
1.0000 0.4737 0.0000
1.0000 0.5789 0.0000
1.0000 0.6842 0.0000
1.0000 0.7895 0.0000
1.0000 0.8947 0.0000
1.0000 1.0000 0.0000
-0.9474 -0.9474 0.0000
-0.9474 -0.8421 0.0000
-0.9474 -0.7368 0.0000
-0.9474 -0.6316 0.0000
-0.9474 -0.5263 0.0000
-0.9474 -0.4211 0.0000
-0.9474 -0.3158 0.0000
-0.9474 -0.2105 0.0000
-0.9474 -0.1053 0.0000
-0.9474 0.0000 0.0000
-0.9474 0.1053 0.0000
-0.9474 0.2105 0.0000
-0.9474 0.3158 0.0000
-0.9474 0.4211 0.0000
-0.9474 0.5263 0.0000
-0.9474 0.6316 0.0000
-0.9474 0.7368 0.0000
-0.9474 0.8421 0.0000
-0.9474 0.9474 0.0000
-0.8421 -0.9474 0.0000
-0.8421 -0.8421 0.0000
-0.8421 -0.7368 0.0000
-0.8421 -0.6316 0.0000
-0.8421 -0.5263 0.0000
-0.8421 -0.4211 0.0000
-0.8421 -0.3158 0.0000
-0.8421 -0.2105 0.0000
-0.8421 -0.1053 0.0000
-0.8421 0.0000 0.0000
-0.8421 0.1053 0.0000
-0.8421 0.2105 0.0000
-0.8421 0.3158 0.0000
-0.8421 0.4211 0.0000
-0.8421 0.5263 0.0000
-0.8421 0.6316 0.0000
-0.8421 0.7368 0.0000
-0.8421 0.8421 0.0000
-0.8421 0.9474 0.0000
-0.7368 -0.9474 0.0000
-0.7368 -0.8421 0.0000
[...]
         <PointData>
            <DataArray Name="fValues" NumberOfComponents="3" format="ascii" type="Float64">
 1.18950e-18  1.00000e+00        00000 
-6.83088e-19  9.47368e-01        00000 
-8.42860e-19  8.94737e-01        00000 
-1.50377e-18  8.42105e-01        00000 
 3.03430e-18  7.89474e-01        00000 
-3.18387e-18  7.36842e-01        00000 
 5.73145e-18  6.84211e-01        00000 
 1.73675e-18  6.31579e-01        00000 
 1.18000e-18  5.78947e-01        00000 
 4.08122e-18  5.26316e-01        00000 
 5.05716e-19  4.73684e-01        00000 
 2.91223e-18  4.21053e-01        00000 
 1.18000e-18  3.68421e-01        00000 
-3.50601e-19  3.15789e-01        00000 
 1.34858e-18  2.63158e-01        00000 
-1.57790e-18  2.10526e-01        00000 
 4.21430e-19  1.57895e-01        00000 
 3.40126e-19  1.05263e-01        00000 
-8.50090e-19  5.26316e-02        00000 
 1.31696e-18  1.24880e-17        00000 
-2.29092e-18  9.47368e-01        00000 
 1.23668e-02  9.06139e-01        00000 
 1.83055e-02  8.59729e-01        00000 
 2.20169e-02  8.10853e-01        00000 
 2.40146e-02  7.60327e-01        00000 
 2.43440e-02  7.08591e-01        00000 
 2.29610e-02  6.56179e-01        00000 
 2.00934e-02  6.03759e-01        00000 
 1.64091e-02  5.51940e-01        00000 
 1.28580e-02  5.00993e-01        00000 
 1.03042e-02  4.50791e-01        00000 
 9.20840e-03  4.00897e-01        00000 
 9.47068e-03  3.50816e-01        00000 
 1.05453e-02  3.00233e-01        00000 
 1.17124e-02  2.49129e-01        00000 
 1.23623e-02  1.97747e-01        00000 
 1.20846e-02  1.46460e-01        00000 
 1.05483e-02  9.57290e-02        00000 
 7.30823e-03  4.62984e-02        00000 
 4.22349e-20  1.74984e-19        00000 
 1.90624e-18  8.94737e-01        00000 
 2.05600e-02  8.59957e-01        00000 
 3.35511e-02  8.20763e-01        00000 
 4.19076e-02  7.77734e-01        00000 
 4.68463e-02  7.31672e-01        00000 
 4.82825e-02  6.83112e-01        00000 
 4.58881e-02  6.32774e-01        00000 
 3.99964e-02  5.81682e-01        00000 
 3.20971e-02  5.30754e-01        00000 
 2.44305e-02  4.80521e-01        00000 
 1.89662e-02  4.30949e-01        00000 
 1.67498e-02  3.81779e-01        00000 
 1.75425e-02  3.32606e-01        00000 
 2.00543e-02  2.83167e-01        00000 
 2.26115e-02  2.33550e-01        00000 
 2.38975e-02  1.84114e-01        00000 
 2.31105e-02  1.35377e-01        00000 
 1.96513e-02  8.79144e-02        00000 
 1.25005e-02  4.25487e-02        00000 
 4.54862e-18 -1.29988e-18        00000 
-1.01143e-18  8.42105e-01        00000 
 2.66538e-02  8.13354e-01        00000 
 4.55191e-02  7.81049e-01        00000 
 5.88767e-02  7.45085e-01        00000 
 6.75813e-02  7.05426e-01        00000 
 7.11375e-02  6.62172e-01        00000 
 6.85194e-02  6.15721e-01        00000 
 5.97046e-02  5.66969e-01        00000 
 4.74055e-02  5.17023e-01        00000 
 3.55722e-02  4.65848e-01        00000 
 2.70041e-02  4.14233e-01        00000 
 2.35973e-02  3.62846e-01        00000 
 2.48216e-02  3.12440e-01        00000 
 2.88549e-02  2.63272e-01        00000 
 3.27145e-02  2.15126e-01        00000 
 3.43238e-02  1.68385e-01        00000 
 3.27458e-02  1.23218e-01        00000 
 2.72265e-02  7.98747e-02        00000 
 1.67656e-02  3.86835e-02        00000 
-4.61321e-18  1.13158e-18        00000 
 4.87143e-19  7.89474e-01        00000 
 3.08223e-02  7.66861e-01        00000 
 5.42053e-02  7.41918e-01        00000 
 7.22106e-02  7.14090e-01        00000 
 8.52446e-02  6.82798e-01        00000 
 9.20091e-02  6.47539e-01        00000 
 9.02614e-02  6.08141e-01        00000 
 7.91062e-02  5.64477e-01        00000 
 6.23461e-02  5.15735e-01        00000 
 4.84057e-02  4.61941e-01        00000 
 3.75007e-02  4.00866e-01        00000 
 3.16531e-02  3.40647e-01        00000 
 3.18047e-02  2.86328e-01        00000 
 3.71626e-02  2.36558e-01        00000 
 4.16135e-02  1.91220e-01        00000 
 4.31716e-02  1.48809e-01        00000 
 4.06378e-02  1.08630e-01        00000 
 3.32795e-02  7.04697e-02        00000 
 2.01929e-02  3.42395e-02        00000 
 5.58471e-18  3.03793e-18        00000 
-2.02286e-18  7.36842e-01        00000 
 3.27874e-02  7.20331e-01        00000 
 5.91559e-02  7.03045e-01        00000 
 8.10767e-02  6.84231e-01        00000 
 9.85373e-02  6.63135e-01        00000 
 1.09270e-01  6.39252e-01        00000 
 1.08834e-01  6.12516e-01        00000 
 9.42978e-02  5.83733e-01        00000 
 7.68704e-02  5.44246e-01        00000 
 6.80815e-02  4.74866e-01        00000 
 5.90543e-02  3.87634e-01        00000 
 4.56013e-02  3.08390e-01        00000 
 3.81457e-02  2.40599e-01        00000 
 4.26987e-02  1.96750e-01        00000 
 4.77687e-02  1.59033e-01        00000 
 4.94256e-02  1.23958e-01        00000 
 4.60843e-02  9.08723e-02        00000 
 3.73754e-02  5.93443e-02        00000 
 2.25141e-02  2.90843e-02        00000 
-1.24177e-18  5.17731e-18        00000 
 6.80204e-19  6.84211e-01        00000 
 3.23608e-02  6.73142e-01        00000 
 6.00046e-02  6.62990e-01        00000 
 8.47687e-02  6.53081e-01        00000 
 1.06425e-01  6.42783e-01        00000 
 1.21164e-01  6.32079e-01        00000 
 1.20878e-01  6.24170e-01        00000 
 9.89038e-02  6.19413e-01        00000 
 9.45240e-02  5.22730e-01        00000 
 8.12525e-02  4.30276e-01        00000 
 7.10747e-02  3.46884e-01        00000 
 5.95108e-02  2.58498e-01        00000 
 4.06650e-02  1.72092e-01        00000 
 3.93261e-02  1.40718e-01        00000 
 4.88029e-02  1.17749e-01        00000 
 5.15113e-02  9.40658e-02        00000 
 4.81007e-02  7.04336e-02        00000 
 3.89139e-02  4.68741e-02        00000 
 2.33800e-02  2.34059e-02        00000 
 1.61728e-18  2.19718e-18        00000 
-3.03430e-18  6.31579e-01        00000 
 2.97554e-02  6.24449e-01        00000 
 5.70012e-02  6.19658e-01        00000 
 8.33158e-02  6.16745e-01        00000 
 1.09056e-01  6.15356e-01        00000 
 1.29629e-01  6.14719e-01        00000 
 1.32850e-01  6.13861e-01        00000 
 1.08841e-01  5.27761e-01        00000 
 1.05892e-01  4.59187e-01        00000 
 9.33832e-02  3.85810e-01        00000 
 8.12831e-02  3.10150e-01        00000 
 6.83206e-02  2.36124e-01        00000 
 4.88560e-02  1.62187e-01        00000 
 2.33201e-02  7.37599e-02        00000 
 4.22102e-02  7.17293e-02        00000 
 4.81584e-02  6.26421e-02        00000 
 4.60586e-02  4.94486e-02        00000 
 3.75430e-02  3.42199e-02        00000 
 2.25901e-02  1.76806e-02        00000 
 7.93901e-18  2.79369e-18        00000 
-1.22843e-18  5.78947e-01        00000 
 2.57093e-02  5.73564e-01        00000 
 5.12436e-02  5.71231e-01        00000 
 7.79827e-02  5.71655e-01        00000 
 1.07707e-01  5.74171e-01        00000 
 1.41955e-01  5.74941e-01        00000 
 1.34194e-01  5.24560e-01        00000 
 1.19661e-01  4.67360e-01        00000 
 1.07741e-01  4.03093e-01        00000 
 9.71512e-02  3.40009e-01        00000 
 8.47490e-02  2.76026e-01        00000 
 7.06728e-02  2.12080e-01        00000 
 5.45148e-02  1.48434e-01        00000 
 3.47617e-02  8.90675e-02        00000 
 3.06858e-02  3.63548e-02        00000 
 4.04248e-02  3.60637e-02        00000 
 4.04444e-02  3.10985e-02        00000 
 3.35386e-02  2.29743e-02        00000 
 2.02763e-02  1.25325e-02        00000 
-2.58576e-18  1.00854e-18        00000 
 2.36001e-18  5.26316e-01        00000 
 2.13114e-02  5.20347e-01        00000 
 4.44541e-02  5.17266e-01        00000 
 7.05568e-02  5.16900e-01        00000 
 1.03842e-01  5.18754e-01        00000 
 1.51586e-01  5.19311e-01        00000 
 1.31232e-01  4.62041e-01        00000 
 1.18696e-01  4.07752e-01        00000 
 1.06408e-01  3.52745e-01        00000 
 9.45110e-02  2.97018e-01        00000 
 8.21616e-02  2.41306e-01        00000 
 6.84154e-02  1.85639e-01        00000 
 5.28051e-02  1.30418e-01        00000 
 3.67011e-02  7.38946e-02        00000 
 2.25448e-02  1.71166e-02        00000 
 3.13780e-02  1.83094e-02        00000 
 3.28486e-02  1.78205e-02        00000 
 2.78354e-02  1.44381e-02        00000 
 1.69253e-02  8.48457e-03        00000 
 1.36470e-18  1.61368e-18        00000 
-1.70045e-18  4.73684e-01        00000 
 1.76095e-02  4.65353e-01        00000 
 3.82880e-02  4.59090e-01        00000 
 6.28365e-02  4.54841e-01        00000 
 9.58036e-02  4.53132e-01        00000 
 1.47437e-01  4.55339e-01        00000 
 1.28570e-01  4.04923e-01        00000 
 1.13356e-01  3.53764e-01        00000 
 9.96848e-02  3.04633e-01        00000 
 8.74875e-02  2.55448e-01        00000 
 7.51569e-02  2.06073e-01        00000 
 6.17371e-02  1.56778e-01        00000 
 4.74018e-02  1.07820e-01        00000 
 3.39721e-02  5.90421e-02        00000 
 1.80786e-02  8.20764e-03        00000 
 2.34842e-02  9.49544e-03        00000 
 2.50984e-02  1.02063e-02        00000 
 2.16534e-02  9.07126e-03        00000 
 1.32103e-02  5.75817e-03        00000 
-6.38933e-19  3.22769e-19        00000 
 2.52858e-18  4.21053e-01        00000 
 1.52118e-02  4.09625e-01        00000 
 3.37676e-02  3.99243e-01        00000 
 5.59893e-02  3.89957e-01        00000 
 8.46761e-02  3.82643e-01        00000 
 1.24142e-01  3.81923e-01        00000 
 1.23365e-01  3.44804e-01        00000 
 1.02945e-01  3.02232e-01        00000 
 8.87787e-02  2.58581e-01        00000 
 7.68707e-02  2.14020e-01        00000 
 6.45044e-02  1.69773e-01        00000 
 5.18236e-02  1.26122e-01        00000 
 3.78294e-02  8.18101e-02        00000 
 2.31471e-02  4.13227e-02        00000 
 1.44635e-02  5.92092e-03        00000 
 1.72961e-02  6.78873e-03        00000 
 1.84213e-02  7.14194e-03        00000 
 1.60149e-02  6.46849e-03        00000 
 9.74831e-03  4.24198e-03        00000 
-1.92919e-19  1.46720e-18        00000 
-3.60057e-19  3.68421e-01        00000 
 1.41302e-02  3.54248e-01        00000 
 3.09922e-02  3.40351e-01        00000 
 5.05537e-02  3.26887e-01        00000 
 7.33590e-02  3.14578e-01        00000 
 9.77343e-02  3.05921e-01        00000 
 1.20256e-01  3.05089e-01        00000 
 8.72130e-02  2.54286e-01        00000 
 7.51258e-02  2.11732e-01        00000 
 6.31159e-02  1.71641e-01        00000 
 5.10258e-02  1.32037e-01        00000 
 3.76150e-02  9.27826e-02        00000 
 2.74382e-02  5.60002e-02        00000 
 9.26855e-03  8.47415e-03        00000 
 1.04815e-02  8.18718e-03        00000 
 1.25859e-02  7.66672e-03        00000 
 1.32567e-02  6.95304e-03        00000 
 1.14941e-02  5.76801e-03        00000 
 6.93292e-03  3.61442e-03        00000 
 3.40864e-19 -1.07068e-18        00000 
 2.19144e-18  3.15789e-01        00000 
 1.39039e-02  2.99964e-01        00000 
 2.93485e-02  2.84108e-01        00000 
 4.62491e-02  2.68453e-01        00000 
 6.40407e-02  2.53148e-01        00000 
 8.02282e-02  2.37743e-01        00000 
 8.88169e-02  2.19769e-01        00000 
 6.31004e-02  1.88254e-01        00000 
 5.81765e-02  1.60499e-01        00000 
 4.49086e-02  1.27466e-01        00000 
 3.49800e-02  9.47639e-02        00000 
 2.30607e-02  5.71916e-02        00000 
 5.45778e-03  1.92380e-02        00000 
 6.74849e-03  1.51747e-02        00000 
 7.89653e-03  1.24445e-02        00000 
 9.23609e-03  1.01235e-02        00000 
 9.61113e-03  8.12661e-03        00000 
 8.24212e-03  6.06646e-03        00000 
 4.90481e-03  3.49971e-03        00000 
 7.34227e-19  9.61480e-19        00000 
 3.40102e-19  2.63158e-01        00000 
 1.38873e-02  2.47031e-01        00000 
 2.79078e-02  2.31020e-01        00000 
 4.22342e-02  2.15423e-01        00000 
 5.62906e-02  2.00236e-01        00000 
 6.80782e-02  1.85119e-01        00000 
 7.21362e-02  1.69287e-01        00000 
 6.18198e-02  1.47876e-01        00000 
 3.95581e-02  1.12233e-01        00000 
 2.16262e-02  8.02014e-02        00000 
 1.18076e-02  5.46173e-02        00000 
 7.61313e-03  3.77286e-02        00000 
 5.94337e-03  2.78935e-02        00000 
 5.83096e-03  2.14592e-02        00000 
 6.49054e-03  1.65621e-02        00000 
 7.20766e-03  1.26954e-02        00000 
 7.27265e-03  9.52449e-03        00000 
 6.13394e-03  6.62870e-03        00000 
 3.60984e-03  3.56910e-03        00000 
-2.10041e-19  5.80205e-20        00000 
 1.85429e-18  2.10526e-01        00000 
 1.35003e-02  1.95337e-01        00000 
 2.57934e-02  1.80716e-01        00000 
 3.74542e-02  1.66992e-01        00000 
 4.82028e-02  1.54239e-01        00000 
 5.64337e-02  1.42325e-01        00000 
 5.92278e-02  1.30255e-01        00000 
 5.43852e-02  1.15906e-01        00000 
 4.18652e-02  9.85387e-02        00000 
 2.75183e-02  7.82516e-02        00000 
 1.66342e-02  5.94057e-02        00000 
 1.05787e-02  4.47833e-02        00000 
 7.29949e-03  3.35251e-02        00000 
 6.10716e-03  2.51809e-02        00000 
 5.99027e-03  1.89593e-02        00000 
 6.12164e-03  1.41744e-02        00000 
 5.89466e-03  1.03144e-02        00000 
 4.87794e-03  6.91985e-03        00000 
 2.87476e-03  3.57512e-03        00000 
-1.22606e-19  3.12674e-19        00000 
-2.64748e-18  1.57895e-01        00000 
 1.23431e-02  1.44619e-01        00000 
 2.23674e-02  1.32507e-01        00000 
 3.11162e-02  1.21777e-01        00000 
 3.86939e-02  1.12416e-01        00000 
 4.42057e-02  1.04159e-01        00000 
 4.61673e-02  9.63495e-02        00000 
 4.32934e-02  8.80233e-02        00000 
 3.58854e-02  7.79996e-02        00000 
 2.64474e-02  6.62480e-02        00000 
 1.78796e-02  5.38161e-02        00000 
 1.19101e-02  4.22629e-02        00000 
 8.35489e-03  3.25654e-02        00000 
 6.52902e-03  2.47329e-02        00000 
 5.77421e-03  1.85940e-02        00000 
 5.43181e-03  1.38007e-02        00000 
 4.99050e-03  9.93889e-03        00000 
 4.08280e-03  6.58367e-03        00000 
 2.46028e-03  3.35041e-03        00000 
-5.35287e-20  3.42583e-19        00000 
 1.85429e-18  1.05263e-01        00000 
 1.01449e-02  9.47091e-02        00000 
 1.71925e-02  8.59202e-02        00000 
 2.28104e-02  7.87972e-02        00000 
 2.74721e-02  7.29998e-02        00000 
 3.07512e-02  6.82504e-02        00000 
 3.18740e-02  6.40913e-02        00000 
 3.02586e-02  5.97781e-02        00000 
 2.60917e-02  5.45514e-02        00000 
 2.05138e-02  4.80402e-02        00000 
 1.50288e-02  4.05850e-02        00000 
 1.06906e-02  3.29787e-02        00000 
 7.77032e-03  2.59738e-02        00000 
 6.03434e-03  1.99918e-02        00000 
 5.08461e-03  1.51156e-02        00000 
 4.52516e-03  1.12345e-02        00000 
 4.01740e-03  8.10562e-03        00000 
 3.29829e-03  5.41177e-03        00000 
 2.08984e-03  2.78987e-03        00000 
 6.70380e-20 -2.44702e-20        00000 
-3.40937e-19  5.26316e-02        00000 
 6.49448e-03  4.57414e-02        00000 
 9.80279e-03  4.12893e-02        00000 
 1.24034e-02  3.79516e-02        00000 
 1.44984e-02  3.54238e-02        00000 
 1.59334e-02  3.35607e-02        00000 
 1.64068e-02  3.20993e-02        00000 
 1.57042e-02  3.06134e-02        00000 
 1.39050e-02  2.86296e-02        00000 
 1.14342e-02  2.58677e-02        00000 
 8.87339e-03  2.23936e-02        00000 
 6.68694e-03  1.85680e-02        00000 
 5.06836e-03  1.48294e-02        00000 
 3.98739e-03  1.15008e-02        00000 
 3.30315e-03  8.72993e-03        00000 
 2.84882e-03  6.51199e-03        00000 
 2.47401e-03  4.74303e-03        00000 
 2.04887e-03  3.25698e-03        00000 
 1.43860e-03  1.82432e-03        00000 
-1.52099e-19  3.10753e-19        00000 
-4.83493e-19  1.24880e-17        00000 
 4.90911e-19 -2.61819e-18        00000 
-1.11626e-18 -2.98583e-18        00000 
 1.55477e-18  1.97082e-18        00000 
-2.88671e-18 -3.99138e-18        00000 
 2.73477e-18  1.63367e-18        00000 
-1.39157e-18  5.51282e-19        00000 
 1.21251e-19  4.36774e-18        00000 
 6.62491e-19  2.11846e-19        00000 
 9.64111e-19  9.96300e-19        00000 
-2.01843e-19  9.22875e-19        00000 
-7.07636e-19  3.17144e-22        00000 
-1.23132e-19  2.35557e-18        00000 
-3.70492e-19 -2.02255e-18        00000 
-1.75368e-19  1.06054e-18        00000 
 1.88780e-19 -1.60183e-19        00000 
 3.07083e-19 -7.07452e-19        00000 
 3.79346e-19 -1.18214e-19        00000 
 4.09093e-20  2.45456e-19        00000 
 2.50797e-19 -2.50552e-19        00000 
 4.51695e-03  9.51765e-01        00000 
 8.44587e-03  9.02736e-01        00000 
 1.05500e-02  8.52320e-01        00000 
 1.17711e-02  8.00939e-01        00000 
 1.22016e-02  7.48849e-01        00000 
 1.18537e-02  6.96283e-01        00000 
 1.07901e-02  6.43573e-01        00000 
 9.22716e-03  5.91096e-01        00000 
 7.52741e-03  5.39105e-01        00000 
 6.09420e-03  4.87627e-01        00000 
 5.22026e-03  4.36469e-01        00000 
 4.98870e-03  3.85329e-01        00000 
 5.26007e-03  3.33949e-01        00000 
 5.75529e-03  2.82223e-01        00000 
 6.17487e-03  2.30221e-01        00000 
 6.27979e-03  1.78122e-01        00000 
 5.89587e-03  1.26145e-01        00000 
 4.86426e-03  7.45755e-02        00000 
 2.61871e-03  2.38190e-02        00000 
 9.03799e-03  9.03074e-01        00000 
 2.20977e-02  8.62529e-01        00000 
 2.96762e-02  8.17850e-01        00000 
 3.42544e-02  7.70514e-01        00000 
 3.62689e-02  7.21064e-01        00000 
 3.56280e-02  6.70037e-01        00000 
 3.24006e-02  6.18220e-01        00000 
 2.72604e-02  5.66507e-01        00000 
 2.15378e-02  5.15538e-01        00000 
 1.67186e-02  4.65450e-01        00000 
 1.38977e-02  4.15964e-01        00000 
 1.33562e-02  3.66591e-01        00000 
 1.45462e-02  3.16885e-01        00000 
 1.64169e-02  2.66694e-01        00000 
 1.78892e-02  2.16214e-01        00000 
 1.81825e-02  1.65861e-01        00000 
 1.67572e-02  1.16130e-01        00000 
 1.30102e-02  6.76338e-02        00000 
 5.42090e-03  2.15627e-02        00000 
 1.25571e-02  8.53300e-01        00000 
 3.24322e-02  8.19515e-01        00000 
 4.58467e-02  7.81783e-01        00000 
 5.46032e-02  7.40450e-01        00000 
 5.91252e-02  6.95861e-01        00000 
 5.89428e-02  6.48417e-01        00000 
 5.38196e-02  5.98921e-01        00000 
 4.49237e-02  5.48557e-01        00000 
 3.47586e-02  4.98016e-01        00000 
 2.62377e-02  4.47500e-01        00000 
 2.13023e-02  3.97303e-01        00000 
 2.05238e-02  3.47472e-01        00000 
 2.28522e-02  2.98061e-01        00000 
 2.62427e-02  2.48942e-01        00000 
 2.87238e-02  2.00334e-01        00000 
 2.89656e-02  1.52675e-01        00000 
 2.61985e-02  1.06338e-01        00000 
 1.95578e-02  6.18416e-02        00000 
 7.79969e-03  1.97749e-02        00000 
 1.51362e-02  8.03470e-01        00000 
 4.02205e-02  7.76360e-01        00000 
 5.87199e-02  7.46116e-01        00000 
 7.20242e-02  7.12391e-01        00000 
 7.99925e-02  6.74885e-01        00000 
 8.13635e-02  6.33502e-01        00000 
 7.50339e-02  5.88535e-01        00000 
 6.22910e-02  5.40494e-01        00000 
 4.81049e-02  4.89873e-01        00000 
 3.59382e-02  4.35430e-01        00000 
 2.88348e-02  3.79343e-01        00000 
 2.74801e-02  3.25431e-01        00000 
 3.05857e-02  2.74815e-01        00000 
 3.54373e-02  2.26618e-01        00000 
 3.84971e-02  1.80879e-01        00000 
 3.83433e-02  1.37141e-01        00000 
 3.41202e-02  9.53181e-02        00000 
 2.49863e-02  5.54886e-02        00000 
 9.79515e-03  1.78024e-02        00000 
 1.66652e-02  7.53623e-01        00000 
 4.51998e-02  7.33412e-01        00000 
 6.77889e-02  7.11310e-01        00000 
 8.55417e-02  6.86617e-01        00000 
 9.76874e-02  6.58677e-01        00000 
 1.01676e-01  6.27026e-01        00000 
 9.49848e-02  5.91794e-01        00000 
 7.93120e-02  5.51964e-01        00000 
 6.22232e-02  4.99486e-01        00000 
 5.05935e-02  4.34761e-01        00000 
 4.13827e-02  3.59250e-01        00000 
 3.51171e-02  2.93040e-01        00000 
 3.81931e-02  2.39958e-01        00000 
 4.32635e-02  1.95967e-01        00000 
 4.64120e-02  1.55767e-01        00000 
 4.57164e-02  1.17966e-01        00000 
 4.01733e-02  8.21602e-02        00000 
 2.90868e-02  4.80626e-02        00000 
 1.13212e-02  1.55408e-02        00000 
 1.69674e-02  7.03578e-01        00000 
 4.69690e-02  6.90037e-01        00000 