<?xml version="1.0" encoding="utf-8"?>
<VTKFile byte_order="LittleEndian" type="UnstructuredGrid" version="0.1">
   <UnstructuredGrid>
      <Piece NumberOfCells="16" NumberOfPoints="13">
         <Points>
            <DataArray Name="Points" NumberOfComponents="3" format="ascii" type="Float32">
0.0000 0.0000 0.0000
0.0100 0.0100 0.0000
0.0000 0.0200 0.0000
0.0200 0.0000 0.0000
0.0200 0.0200 0.0000
0.0100 0.0300 0.0000
0.0300 0.0100 0.0000
0.0000 0.0400 0.0000
0.0400 0.0000 0.0000
0.0300 0.0300 0.0000
0.0400 0.0200 0.0000
0.0200 0.0400 0.0000
0.0400 0.0400 0.0000</DataArray>
         </Points>
         <Cells>
            <DataArray Name="connectivity" format="ascii" type="Int32">
 4 1 3
 2 1 4
 0 1 2
 3 1 0
 11 5 4
 7 5 11
 2 5 7
 4 5 2
 10 6 8
 4 6 10
 3 6 4
 8 6 3
 12 9 10
 11 9 12
 4 9 11
 10 9 4</DataArray>
            <DataArray Name="offsets" format="ascii" type="Int32">3 6 9 12 15 18 21 24 27 30 33 36 39 42 45 48 </DataArray>
            <DataArray Name="types" format="ascii" type="UInt8">5 5 5 5 5 5 5 5 5 5 5 5 5 5 5 5 </DataArray>
         </Cells>
         <PointData>
            <DataArray Name="fValues" NumberOfComponents="3" format="ascii" type="Float64">
-1.50231e-16 -2.25347e-16        00000 
-4.19043e-01 -8.99050e-01        00000 
-4.40032e-17  2.87861e-16        00000 
-1.85906e+00 -2.44576e+00        00000 
 8.31086e-17 -2.07997e+00        00000 
 4.19043e-01 -8.99050e-01        00000 
-1.18498e+00 -3.92680e+00        00000 
-6.41149e-17  3.15043e-18        00000 
-2.40092e+00 -5.42913e+00        00000 
 1.18498e+00 -3.92680e+00        00000 
 3.44224e-16 -6.02324e+00        00000 
 1.85906e+00 -2.44576e+00        00000 
 2.40092e+00 -5.42913e+00        00000 </DataArray>
         </PointData>
         <CellData/>
      </Piece>
   </UnstructuredGrid>
</VTKFile>