<?xml version="1.0" encoding="utf-8"?>
<VTKFile byte_order="LittleEndian" type="UnstructuredGrid" version="0.1">
   <UnstructuredGrid>
      <Piece NumberOfCells="1444" NumberOfPoints="761">
         <Points>
            <DataArray Name="Points" NumberOfComponents="3" format="ascii" type="Float32">
0.0000 1.0000 0.0000
0.0000 1.0526 0.0000
0.0000 1.1053 0.0000
0.0000 1.1579 0.0000
0.0000 1.2105 0.0000
0.0000 1.2632 0.0000
0.0000 1.3158 0.0000
0.0000 1.3684 0.0000
0.0000 1.4211 0.0000
0.0000 1.4737 0.0000
0.0000 1.5263 0.0000
0.0000 1.5789 0.0000
0.0000 1.6316 0.0000
0.0000 1.6842 0.0000
0.0000 1.7368 0.0000
0.0000 1.7895 0.0000
0.0000 1.8421 0.0000
0.0000 1.8947 0.0000
0.0000 1.9474 0.0000
0.0000 2.0000 0.0000
0.1053 1.0000 0.0000
0.1053 1.0526 0.0000
0.1053 1.1053 0.0000
0.1053 1.1579 0.0000
0.1053 1.2105 0.0000
0.1053 1.2632 0.0000
0.1053 1.3158 0.0000
0.1053 1.3684 0.0000
0.1053 1.4211 0.0000
0.1053 1.4737 0.0000
0.1053 1.5263 0.0000
0.1053 1.5789 0.0000
0.1053 1.6316 0.0000
0.1053 1.6842 0.0000
0.1053 1.7368 0.0000
0.1053 1.7895 0.0000
0.1053 1.8421 0.0000
0.1053 1.8947 0.0000
0.1053 1.9474 0.0000
0.1053 2.0000 0.0000
0.2105 1.0000 0.0000
0.2105 1.0526 0.0000
0.2105 1.1053 0.0000
0.2105 1.1579 0.0000
0.2105 1.2105 0.0000
0.2105 1.2632 0.0000
0.2105 1.3158 0.0000
0.2105 1.3684 0.0000
0.2105 1.4211 0.0000
0.2105 1.4737 0.0000
0.2105 1.5263 0.0000
0.2105 1.5789 0.0000
0.2105 1.6316 0.0000
0.2105 1.6842 0.0000
0.2105 1.7368 0.0000
0.2105 1.7895 0.0000
0.2105 1.8421 0.0000
0.2105 1.8947 0.0000
0.2105 1.9474 0.0000
0.2105 2.0000 0.0000
0.3158 1.0000 0.0000
0.3158 1.0526 0.0000
0.3158 1.1053 0.0000
0.3158 1.1579 0.0000
0.3158 1.2105 0.0000
0.3158 1.2632 0.0000
0.3158 1.3158 0.0000
0.3158 1.3684 0.0000
0.3158 1.4211 0.0000
0.3158 1.4737 0.0000
0.3158 1.5263 0.0000
0.3158 1.5789 0.0000
0.3158 1.6316 0.0000
0.3158 1.6842 0.0000
0.3158 1.7368 0.0000
0.3158 1.7895 0.0000
0.3158 1.8421 0.0000
0.3158 1.8947 0.0000
0.3158 1.9474 0.0000
0.3158 2.0000 0.0000
0.4211 1.0000 0.0000
0.4211 1.0526 0.0000
0.4211 1.1053 0.0000
0.4211 1.1579 0.0000
0.4211 1.2105 0.0000
0.4211 1.2632 0.0000
0.4211 1.3158 0.0000
0.4211 1.3684 0.0000
0.4211 1.4211 0.0000
0.4211 1.4737 0.0000
0.4211 1.5263 0.0000
0.4211 1.5789 0.0000
0.4211 1.6316 0.0000
0.4211 1.6842 0.0000
0.4211 1.7368 0.0000
0.4211 1.7895 0.0000
0.4211 1.8421 0.0000
0.4211 1.8947 0.0000
0.4211 1.9474 0.0000
0.4211 2.0000 0.0000
0.5263 1.0000 0.0000
0.5263 1.0526 0.0000
0.5263 1.1053 0.0000
0.5263 1.1579 0.0000
0.5263 1.2105 0.0000
0.5263 1.2632 0.0000
0.5263 1.3158 0.0000
0.5263 1.3684 0.0000
0.5263 1.4211 0.0000
0.5263 1.4737 0.0000
0.5263 1.5263 0.0000
0.5263 1.5789 0.0000
0.5263 1.6316 0.0000
0.5263 1.6842 0.0000
0.5263 1.7368 0.0000
0.5263 1.7895 0.0000
0.5263 1.8421 0.0000
0.5263 1.8947 0.0000
0.5263 1.9474 0.0000
0.5263 2.0000 0.0000
0.6316 1.0000 0.0000
0.6316 1.0526 0.0000
0.6316 1.1053 0.0000
0.6316 1.1579 0.0000
0.6316 1.2105 0.0000
0.6316 1.2632 0.0000
0.6316 1.3158 0.0000
0.6316 1.3684 0.0000
0.6316 1.4211 0.0000
0.6316 1.4737 0.0000
0.6316 1.5263 0.0000
0.6316 1.5789 0.0000
0.6316 1.6316 0.0000
0.6316 1.6842 0.0000
0.6316 1.7368 0.0000
0.6316 1.7895 0.0000
0.6316 1.8421 0.0000
0.6316 1.8947 0.0000
0.6316 1.9474 0.0000
0.6316 2.0000 0.0000
0.7368 1.0000 0.0000
0.7368 1.0526 0.0000
0.7368 1.1053 0.0000
0.7368 1.1579 0.0000
0.7368 1.2105 0.0000
0.7368 1.2632 0.0000
0.7368 1.3158 0.0000
0.7368 1.3684 0.0000
0.7368 1.4211 0.0000
0.7368 1.4737 0.0000
0.7368 1.5263 0.0000
0.7368 1.5789 0.0000
0.7368 1.6316 0.0000
0.7368 1.6842 0.0000
0.7368 1.7368 0.0000
0.7368 1.7895 0.0000
0.7368 1.8421 0.0000
0.7368 1.8947 0.0000
0.7368 1.9474 0.0000
0.7368 2.0000 0.0000
0.8421 1.0000 0.0000
0.8421 1.0526 0.0000
0.8421 1.1053 0.0000
0.8421 1.1579 0.0000
0.8421 1.2105 0.0000
0.8421 1.2632 0.0000
0.8421 1.3158 0.0000
0.8421 1.3684 0.0000
0.8421 1.4211 0.0000
0.8421 1.4737 0.0000
0.8421 1.5263 0.0000
0.8421 1.5789 0.0000
0.8421 1.6316 0.0000
0.8421 1.6842 0.0000
0.8421 1.7368 0.0000
0.8421 1.7895 0.0000
0.8421 1.8421 0.0000
0.8421 1.8947 0.0000
0.8421 1.9474 0.0000
0.8421 2.0000 0.0000
0.9474 1.0000 0.0000
0.9474 1.0526 0.0000
0.9474 1.1053 0.0000
0.9474 1.1579 0.0000
0.9474 1.2105 0.0000
0.9474 1.2632 0.0000
0.9474 1.3158 0.0000
0.9474 1.3684 0.0000
0.9474 1.4211 0.0000
0.9474 1.4737 0.0000
0.9474 1.5263 0.0000
0.9474 1.5789 0.0000
0.9474 1.6316 0.0000
0.9474 1.6842 0.0000
0.9474 1.7368 0.0000
0.9474 1.7895 0.0000
0.9474 1.8421 0.0000
0.9474 1.8947 0.0000
0.9474 1.9474 0.0000
0.9474 2.0000 0.0000
1.0526 1.0000 0.0000
1.0526 1.0526 0.0000
1.0526 1.1053 0.0000
1.0526 1.1579 0.0000
1.0526 1.2105 0.0000
1.0526 1.2632 0.0000
1.0526 1.3158 0.0000
1.0526 1.3684 0.0000
1.0526 1.4211 0.0000
1.0526 1.4737 0.0000
1.0526 1.5263 0.0000
1.0526 1.5789 0.0000
1.0526 1.6316 0.0000
1.0526 1.6842 0.0000
1.0526 1.7368 0.0000
1.0526 1.7895 0.0000
1.0526 1.8421 0.0000
1.0526 1.8947 0.0000
1.0526 1.9474 0.0000
1.0526 2.0000 0.0000
1.1579 1.0000 0.0000
1.1579 1.0526 0.0000
1.1579 1.1053 0.0000
1.1579 1.1579 0.0000
1.1579 1.2105 0.0000
1.1579 1.2632 0.0000
1.1579 1.3158 0.0000
1.1579 1.3684 0.0000
1.1579 1.4211 0.0000
1.1579 1.4737 0.0000
1.1579 1.5263 0.0000
1.1579 1.5789 0.0000
1.1579 1.6316 0.0000
1.1579 1.6842 0.0000
1.1579 1.7368 0.0000
1.1579 1.7895 0.0000
1.1579 1.8421 0.0000
1.1579 1.8947 0.0000
1.1579 1.9474 0.0000
1.1579 2.0000 0.0000
1.2632 1.0000 0.0000
1.2632 1.0526 0.0000
1.2632 1.1053 0.0000
1.2632 1.1579 0.0000
1.2632 1.2105 0.0000
1.2632 1.2632 0.0000
1.2632 1.3158 0.0000
1.2632 1.3684 0.0000
1.2632 1.4211 0.0000
1.2632 1.4737 0.0000
1.2632 1.5263 0.0000
1.2632 1.5789 0.0000
1.2632 1.6316 0.0000
1.2632 1.6842 0.0000
1.2632 1.7368 0.0000
1.2632 1.7895 0.0000
1.2632 1.8421 0.0000
1.2632 1.8947 0.0000
1.2632 1.9474 0.0000
1.2632 2.0000 0.0000
1.3684 1.0000 0.0000
1.3684 1.0526 0.0000
1.3684 1.1053 0.0000
1.3684 1.1579 0.0000
1.3684 1.2105 0.0000
1.3684 1.2632 0.0000
1.3684 1.3158 0.0000
1.3684 1.3684 0.0000
1.3684 1.4211 0.0000
1.3684 1.4737 0.0000
1.3684 1.5263 0.0000
1.3684 1.5789 0.0000
1.3684 1.6316 0.0000
1.3684 1.6842 0.0000
1.3684 1.7368 0.0000
1.3684 1.7895 0.0000
1.3684 1.8421 0.0000
1.3684 1.8947 0.0000
1.3684 1.9474 0.0000
1.3684 2.0000 0.0000
1.4737 1.0000 0.0000
1.4737 1.0526 0.0000
1.4737 1.1053 0.0000
1.4737 1.1579 0.0000
1.4737 1.2105 0.0000
1.4737 1.2632 0.0000
1.4737 1.3158 0.0000
1.4737 1.3684 0.0000
1.4737 1.4211 0.0000
1.4737 1.4737 0.0000
1.4737 1.5263 0.0000
1.4737 1.5789 0.0000
1.4737 1.6316 0.0000
1.4737 1.6842 0.0000
1.4737 1.7368 0.0000
1.4737 1.7895 0.0000
1.4737 1.8421 0.0000
1.4737 1.8947 0.0000
1.4737 1.9474 0.0000
1.4737 2.0000 0.0000
1.5789 1.0000 0.0000
1.5789 1.0526 0.0000
1.5789 1.1053 0.0000
1.5789 1.1579 0.0000
1.5789 1.2105 0.0000
1.5789 1.2632 0.0000
1.5789 1.3158 0.0000
1.5789 1.3684 0.0000
1.5789 1.4211 0.0000
1.5789 1.4737 0.0000
1.5789 1.5263 0.0000
1.5789 1.5789 0.0000
1.5789 1.6316 0.0000
1.5789 1.6842 0.0000
1.5789 1.7368 0.0000
1.5789 1.7895 0.0000
1.5789 1.8421 0.0000
1.5789 1.8947 0.0000
1.5789 1.9474 0.0000
1.5789 2.0000 0.0000
1.6842 1.0000 0.0000
1.6842 1.0526 0.0000
1.6842 1.1053 0.0000
1.6842 1.1579 0.0000
1.6842 1.2105 0.0000
1.6842 1.2632 0.0000
1.6842 1.3158 0.0000
1.6842 1.3684 0.0000
1.6842 1.4211 0.0000
1.6842 1.4737 0.0000
1.6842 1.5263 0.0000
1.6842 1.5789 0.0000
1.6842 1.6316 0.0000
1.6842 1.6842 0.0000
1.6842 1.7368 0.0000
1.6842 1.7895 0.0000
1.6842 1.8421 0.0000
1.6842 1.8947 0.0000
1.6842 1.9474 0.0000
1.6842 2.0000 0.0000
1.7895 1.0000 0.0000
1.7895 1.0526 0.0000
1.7895 1.1053 0.0000
1.7895 1.1579 0.0000
1.7895 1.2105 0.0000
1.7895 1.2632 0.0000
1.7895 1.3158 0.0000
1.7895 1.3684 0.0000
1.7895 1.4211 0.0000
1.7895 1.4737 0.0000
1.7895 1.5263 0.0000
1.7895 1.5789 0.0000
1.7895 1.6316 0.0000
1.7895 1.6842 0.0000
1.7895 1.7368 0.0000
1.7895 1.7895 0.0000
1.7895 1.8421 0.0000
1.7895 1.8947 0.0000
1.7895 1.9474 0.0000
1.7895 2.0000 0.0000
1.8947 1.0000 0.0000
1.8947 1.0526 0.0000
1.8947 1.1053 0.0000
1.8947 1.1579 0.0000
1.8947 1.2105 0.0000
1.8947 1.2632 0.0000
1.8947 1.3158 0.0000
1.8947 1.3684 0.0000
1.8947 1.4211 0.0000
1.8947 1.4737 0.0000
1.8947 1.5263 0.0000
1.8947 1.5789 0.0000
1.8947 1.6316 0.0000
1.8947 1.6842 0.0000
1.8947 1.7368 0.0000
1.8947 1.7895 0.0000
1.8947 1.8421 0.0000
1.8947 1.8947 0.0000
1.8947 1.9474 0.0000
1.8947 2.0000 0.0000
2.0000 1.0000 0.0000
2.0000 1.0526 0.0000
2.0000 1.1053 0.0000
2.0000 1.1579 0.0000
2.0000 1.2105 0.0000
2.0000 1.2632 0.0000
2.0000 1.3158 0.0000
2.0000 1.3684 0.0000
2.0000 1.4211 0.0000
2.0000 1.4737 0.0000
2.0000 1.5263 0.0000
2.0000 1.5789 0.0000
2.0000 1.6316 0.0000
2.0000 1.6842 0.0000
2.0000 1.7368 0.0000
2.0000 1.7895 0.0000
2.0000 1.8421 0.0000
2.0000 1.8947 0.0000
2.0000 1.9474 0.0000
2.0000 2.0000 0.0000
0.0526 1.0263 0.0000
0.0526 1.0789 0.0000
0.0526 1.1316 0.0000
0.0526 1.1842 0.0000
0.0526 1.2368 0.0000
0.0526 1.2895 0.0000
0.0526 1.3421 0.0000
0.0526 1.3947 0.0000
0.0526 1.4474 0.0000
0.0526 1.5000 0.0000
0.0526 1.5526 0.0000
0.0526 1.6053 0.0000
0.0526 1.6579 0.0000
0.0526 1.7105 0.0000
0.0526 1.7632 0.0000
0.0526 1.8158 0.0000
0.0526 1.8684 0.0000
0.0526 1.9211 0.0000
0.0526 1.9737 0.0000
0.1579 1.0263 0.0000
0.1579 1.0789 0.0000
0.1579 1.1316 0.0000
0.1579 1.1842 0.0000
0.1579 1.2368 0.0000
0.1579 1.2895 0.0000
0.1579 1.3421 0.0000
0.1579 1.3947 0.0000
0.1579 1.4474 0.0000
0.1579 1.5000 0.0000
0.1579 1.5526 0.0000
0.1579 1.6053 0.0000
0.1579 1.6579 0.0000
0.1579 1.7105 0.0000
0.1579 1.7632 0.0000
0.1579 1.8158 0.0000
0.1579 1.8684 0.0000
0.1579 1.9211 0.0000
0.1579 1.9737 0.0000
0.2632 1.0263 0.0000
0.2632 1.0789 0.0000
0.2632 1.1316 0.0000
0.2632 1.1842 0.0000
0.2632 1.2368 0.0000
0.2632 1.2895 0.0000
0.2632 1.3421 0.0000
0.2632 1.3947 0.0000
0.2632 1.4474 0.0000
0.2632 1.5000 0.0000
0.2632 1.5526 0.0000
0.2632 1.6053 0.0000
0.2632 1.6579 0.0000
0.2632 1.7105 0.0000
0.2632 1.7632 0.0000
0.2632 1.8158 0.0000
0.2632 1.8684 0.0000
0.2632 1.9211 0.0000
0.2632 1.9737 0.0000
0.3684 1.0263 0.0000
0.3684 1.0789 0.0000
0.3684 1.1316 0.0000
0.3684 1.1842 0.0000
[...]
         <PointData>
            <DataArray Name="displacement" NumberOfComponents="2" format="ascii" type="Float64">
 6.79070e+13  2.99975e+00 
 6.64613e+13  9.29605e-01 
 6.50156e+13  1.65838e+00 
 6.35698e+13  2.21962e+00 
 6.21241e+13  2.64469e+00 
 6.06784e+13  2.99410e+00 
 5.92327e+13  3.26384e+00 
 5.77869e+13  3.46881e+00 
 5.63412e+13  3.59781e+00 
 5.48955e+13  3.69886e+00 
 5.34497e+13  3.78906e+00 
 5.20040e+13  3.87774e+00 
 5.05583e+13  3.93195e+00 
 4.91126e+13  3.98108e+00 
 4.76668e+13  4.02932e+00 
 4.62211e+13  4.05530e+00 
 4.47754e+13  4.07602e+00 
 4.33296e+13  4.08554e+00 
 4.18839e+13  4.08672e+00 
 4.04382e+13  4.08908e+00 
 6.79070e+13  2.89146e+12 
 6.64613e+13  2.89146e+12 
 6.50156e+13  2.89146e+12 
 6.35698e+13  2.89146e+12 
 6.21241e+13  2.89146e+12 
 6.06784e+13  2.89146e+12 
 5.92327e+13  2.89146e+12 
 5.77869e+13  2.89146e+12 
 5.63412e+13  2.89146e+12 
 5.48955e+13  2.89146e+12 
 5.34497e+13  2.89146e+12 
 5.20040e+13  2.89146e+12 
 5.05583e+13  2.89146e+12 
 4.91126e+13  2.89146e+12 
 4.76668e+13  2.89146e+12 
 4.62211e+13  2.89146e+12 
 4.47754e+13  2.89146e+12 
 4.33296e+13  2.89146e+12 
 4.18839e+13  2.89146e+12 
 4.04382e+13  2.89146e+12 
 6.79070e+13  5.78291e+12 
 6.64613e+13  5.78291e+12 
 6.50156e+13  5.78291e+12 
 6.35698e+13  5.78291e+12 
 6.21241e+13  5.78291e+12 
 6.06784e+13  5.78291e+12 
 5.92327e+13  5.78291e+12 
 5.77869e+13  5.78291e+12 
 5.63412e+13  5.78291e+12 
 5.48955e+13  5.78291e+12 
 5.34497e+13  5.78291e+12 
 5.20040e+13  5.78291e+12 
 5.05583e+13  5.78291e+12 
 4.91126e+13  5.78291e+12 
 4.76668e+13  5.78291e+12 
 4.62211e+13  5.78291e+12 
 4.47754e+13  5.78291e+12 
 4.33296e+13  5.78291e+12 
 4.18839e+13  5.78291e+12 
 4.04382e+13  5.78291e+12 
 6.79070e+13  8.67437e+12 
 6.64613e+13  8.67437e+12 
 6.50156e+13  8.67437e+12 
 6.35698e+13  8.67437e+12 
 6.21241e+13  8.67437e+12 
 6.06784e+13  8.67437e+12 
 5.92327e+13  8.67437e+12 
 5.77869e+13  8.67437e+12 
 5.63412e+13  8.67437e+12 
 5.48955e+13  8.67437e+12 
 5.34497e+13  8.67437e+12 
 5.20040e+13  8.67437e+12 
 5.05583e+13  8.67437e+12 
 4.91126e+13  8.67437e+12 
 4.76668e+13  8.67437e+12 
 4.62211e+13  8.67437e+12 
 4.47754e+13  8.67437e+12 
 4.33296e+13  8.67437e+12 
 4.18839e+13  8.67437e+12 
 4.04382e+13  8.67437e+12 
 6.79070e+13  1.15658e+13 
 6.64613e+13  1.15658e+13 
 6.50156e+13  1.15658e+13 
 6.35698e+13  1.15658e+13 
 6.21241e+13  1.15658e+13 
 6.06784e+13  1.15658e+13 
 5.92327e+13  1.15658e+13 
 5.77869e+13  1.15658e+13 
 5.63412e+13  1.15658e+13 
 5.48955e+13  1.15658e+13 
 5.34497e+13  1.15658e+13 
 5.20040e+13  1.15658e+13 
 5.05583e+13  1.15658e+13 
 4.91126e+13  1.15658e+13 
 4.76668e+13  1.15658e+13 
 4.62211e+13  1.15658e+13 
 4.47754e+13  1.15658e+13 
43329648336220  1.15658e+13 
 4.18839e+13  1.15658e+13 
 4.04382e+13  1.15658e+13 
 6.79070e+13  1.44573e+13 
 6.64613e+13  1.44573e+13 
 6.50156e+13  1.44573e+13 
 6.35698e+13  1.44573e+13 
 6.21241e+13  1.44573e+13 
 6.06784e+13  1.44573e+13 
 5.92327e+13  1.44573e+13 
 5.77869e+13  1.44573e+13 
 5.63412e+13  1.44573e+13 
 5.48955e+13  1.44573e+13 
 5.34497e+13  1.44573e+13 
 5.20040e+13  1.44573e+13 
 5.05583e+13  1.44573e+13 
 4.91126e+13  1.44573e+13 
 4.76668e+13  1.44573e+13 
 4.62211e+13  1.44573e+13 
 4.47754e+13  1.44573e+13 
 4.33296e+13  1.44573e+13 
 4.18839e+13  1.44573e+13 
 4.04382e+13  1.44573e+13 
 6.79070e+13  1.73487e+13 
 6.64613e+13  1.73487e+13 
 6.50156e+13  1.73487e+13 
 6.35698e+13  1.73487e+13 
 6.21241e+13  1.73487e+13 
 6.06784e+13  1.73487e+13 
 5.92327e+13  1.73487e+13 
 5.77869e+13  1.73487e+13 
 5.63412e+13  1.73487e+13 
 5.48955e+13  1.73487e+13 
 5.34497e+13  1.73487e+13 
 5.20040e+13  1.73487e+13 
 5.05583e+13  1.73487e+13 
 4.91126e+13  1.73487e+13 
 4.76668e+13  1.73487e+13 
 4.62211e+13  1.73487e+13 
 4.47754e+13  1.73487e+13 
 4.33296e+13  1.73487e+13 
 4.18839e+13  1.73487e+13 
 4.04382e+13  1.73487e+13 
 6.79070e+13  2.02402e+13 
 6.64613e+13  2.02402e+13 
 6.50156e+13  2.02402e+13 
 6.35698e+13  2.02402e+13 
 6.21241e+13  2.02402e+13 
 6.06784e+13  2.02402e+13 
 5.92327e+13  2.02402e+13 
 5.77869e+13  2.02402e+13 
 5.63412e+13  2.02402e+13 
 5.48955e+13  2.02402e+13 
 5.34497e+13  2.02402e+13 
 5.20040e+13  2.02402e+13 
 5.05583e+13  2.02402e+13 
 4.91126e+13  2.02402e+13 
 4.76668e+13  2.02402e+13 
 4.62211e+13  2.02402e+13 
 4.47754e+13  2.02402e+13 
 4.33296e+13  2.02402e+13 
 4.18839e+13  2.02402e+13 
 4.04382e+13  2.02402e+13 
 6.79070e+13  2.31316e+13 
 6.64613e+13  2.31316e+13 
 6.50156e+13  2.31316e+13 
 6.35698e+13  2.31316e+13 
 6.21241e+13  2.31316e+13 
 6.06784e+13  2.31316e+13 
 5.92327e+13  2.31316e+13 
 5.77869e+13  2.31316e+13 
 5.63412e+13  2.31316e+13 
 5.48955e+13  2.31316e+13 
 5.34497e+13  2.31316e+13 
 5.20040e+13  2.31316e+13 
 5.05583e+13  2.31316e+13 
 4.91126e+13  2.31316e+13 
 4.76668e+13  2.31316e+13 
 4.62211e+13  2.31316e+13 
 4.47754e+13  2.31316e+13 
 4.33296e+13  2.31316e+13 
 4.18839e+13  2.31316e+13 
 4.04382e+13  2.31316e+13 
 6.79070e+13  2.60231e+13 
 6.64613e+13  2.60231e+13 
 6.50156e+13  2.60231e+13 
 6.35698e+13  2.60231e+13 
 6.21241e+13  2.60231e+13 
 6.06784e+13  2.60231e+13 
 5.92327e+13  2.60231e+13 
 5.77869e+13  2.60231e+13 
 5.63412e+13  2.60231e+13 
 5.48955e+13  2.60231e+13 
 5.34497e+13  2.60231e+13 
 5.20040e+13  2.60231e+13 
 5.05583e+13  2.60231e+13 
 4.91126e+13  2.60231e+13 
 4.76668e+13  2.60231e+13 
 4.62211e+13  2.60231e+13 
 4.47754e+13  2.60231e+13 
 4.33296e+13  2.60231e+13 
41883920732131  2.60231e+13 
 4.04382e+13  2.60231e+13 
 6.79070e+13  2.89146e+13 
 6.64613e+13  2.89146e+13 
 6.50156e+13  2.89146e+13 
 6.35698e+13  2.89146e+13 
 6.21241e+13  2.89146e+13 
 6.06784e+13  2.89146e+13 
 5.92327e+13  2.89146e+13 
 5.77869e+13  2.89146e+13 
 5.63412e+13  2.89146e+13 
 5.48955e+13  2.89146e+13 
 5.34497e+13  2.89146e+13 
 5.20040e+13  2.89146e+13 
 5.05583e+13  2.89146e+13 
 4.91126e+13  2.89146e+13 
 4.76668e+13  2.89146e+13 
 4.62211e+13  2.89146e+13 
 4.47754e+13  2.89146e+13 
 4.33296e+13  2.89146e+13 
 4.18839e+13  2.89146e+13 
 4.04382e+13  2.89146e+13 
 6.79070e+13  3.18060e+13 
 6.64613e+13  3.18060e+13 
 6.50156e+13  3.18060e+13 
 6.35698e+13  3.18060e+13 
 6.21241e+13  3.18060e+13 
 6.06784e+13  3.18060e+13 
 5.92327e+13  3.18060e+13 
 5.77869e+13  3.18060e+13 
 5.63412e+13  3.18060e+13 
 5.48955e+13  3.18060e+13 
 5.34497e+13  3.18060e+13 
 5.20040e+13  3.18060e+13 
 5.05583e+13  3.18060e+13 
 4.91126e+13  3.18060e+13 
 4.76668e+13  3.18060e+13 
 4.62211e+13  3.18060e+13 
 4.47754e+13  3.18060e+13 
 4.33296e+13  3.18060e+13 
 4.18839e+13  3.18060e+13 
 4.04382e+13  3.18060e+13 
 6.79070e+13  3.46975e+13 
 6.64613e+13  3.46975e+13 
 6.50156e+13  3.46975e+13 
 6.35698e+13 34697462498177 
 6.21241e+13  3.46975e+13 
 6.06784e+13  3.46975e+13 
 5.92327e+13  3.46975e+13 
 5.77869e+13  3.46975e+13 
 5.63412e+13  3.46975e+13 
 5.48955e+13  3.46975e+13 
 5.34497e+13  3.46975e+13 
 5.20040e+13  3.46975e+13 
 5.05583e+13  3.46975e+13 
 4.91126e+13  3.46975e+13 
 4.76668e+13  3.46975e+13 
 4.62211e+13  3.46975e+13 
 4.47754e+13  3.46975e+13 
 4.33296e+13  3.46975e+13 
 4.18839e+13  3.46975e+13 
 4.04382e+13  3.46975e+13 
 6.79070e+13  3.75889e+13 
 6.64613e+13  3.75889e+13 
 6.50156e+13  3.75889e+13 
 6.35698e+13  3.75889e+13 
 6.21241e+13  3.75889e+13 
 6.06784e+13  3.75889e+13 
 5.92327e+13  3.75889e+13 
 5.77869e+13  3.75889e+13 
 5.63412e+13  3.75889e+13 
 5.48955e+13  3.75889e+13 
 5.34497e+13  3.75889e+13 
 5.20040e+13  3.75889e+13 
 5.05583e+13  3.75889e+13 
 4.91126e+13  3.75889e+13 
 4.76668e+13  3.75889e+13 
 4.62211e+13  3.75889e+13 
 4.47754e+13  3.75889e+13 
 4.33296e+13  3.75889e+13 
 4.18839e+13  3.75889e+13 
 4.04382e+13  3.75889e+13 
 6.79070e+13  4.04804e+13 
 6.64613e+13  4.04804e+13 
 6.50156e+13  4.04804e+13 
 6.35698e+13  4.04804e+13 
 6.21241e+13  4.04804e+13 
 6.06784e+13  4.04804e+13 
 5.92327e+13  4.04804e+13 
 5.77869e+13  4.04804e+13 
 5.63412e+13  4.04804e+13 
 5.48955e+13  4.04804e+13 
 5.34497e+13  4.04804e+13 
 5.20040e+13  4.04804e+13 
 5.05583e+13  4.04804e+13 
 4.91126e+13  4.04804e+13 
 4.76668e+13  4.04804e+13 
 4.62211e+13  4.04804e+13 
 4.47754e+13  4.04804e+13 
 4.33296e+13  4.04804e+13 
 4.18839e+13  4.04804e+13 
 4.04382e+13  4.04804e+13 
 6.79070e+13  4.33718e+13 
 6.64613e+13  4.33718e+13 
 6.50156e+13  4.33718e+13 
 6.35698e+13  4.33718e+13 
 6.21241e+13  4.33718e+13 
 6.06784e+13  4.33718e+13 
 5.92327e+13  4.33718e+13 
 5.77869e+13  4.33718e+13 
 5.63412e+13  4.33718e+13 
 5.48955e+13  4.33718e+13 
 5.34497e+13  4.33718e+13 
 5.20040e+13  4.33718e+13 
 5.05583e+13  4.33718e+13 
 4.91126e+13  4.33718e+13 
 4.76668e+13  4.33718e+13 
 4.62211e+13  4.33718e+13 
 4.47754e+13  4.33718e+13 
 4.33296e+13  4.33718e+13 
 4.18839e+13  4.33718e+13 
 4.04382e+13  4.33718e+13 
 6.79070e+13  4.62633e+13 
 6.64613e+13  4.62633e+13 
 6.50156e+13  4.62633e+13 
 6.35698e+13  4.62633e+13 
 6.21241e+13  4.62633e+13 
 6.06784e+13  4.62633e+13 
 5.92327e+13  4.62633e+13 
 5.77869e+13  4.62633e+13 
 5.63412e+13  4.62633e+13 
 5.48955e+13  4.62633e+13 
 5.34497e+13  4.62633e+13 
 5.20040e+13  4.62633e+13 
 5.05583e+13  4.62633e+13 
 4.91126e+13  4.62633e+13 
 4.76668e+13  4.62633e+13 
 4.62211e+13  4.62633e+13 
 4.47754e+13  4.62633e+13 
 4.33296e+13  4.62633e+13 
 4.18839e+13  4.62633e+13 
 4.04382e+13  4.62633e+13 
 6.79070e+13  4.91547e+13 
 6.64613e+13  4.91547e+13 
 6.50156e+13  4.91547e+13 
 6.35698e+13  4.91547e+13 
 6.21241e+13  4.91547e+13 
 6.06784e+13  4.91547e+13 
 5.92327e+13  4.91547e+13 
 5.77869e+13  4.91547e+13 
 5.63412e+13  4.91547e+13 
 5.48955e+13  4.91547e+13 
 5.34497e+13  4.91547e+13 
 5.20040e+13  4.91547e+13 
 5.05583e+13  4.91547e+13 
 4.91126e+13  4.91547e+13 
 4.76668e+13  4.91547e+13 
 4.62211e+13  4.91547e+13 
 4.47754e+13  4.91547e+13 
 4.33296e+13  4.91547e+13 
 4.18839e+13  4.91547e+13 
 4.04382e+13  4.91547e+13 
 6.79070e+13  5.20462e+13 
 6.64613e+13  5.20462e+13 
 6.50156e+13  5.20462e+13 
 6.35698e+13  5.20462e+13 
 6.21241e+13  5.20462e+13 
 6.06784e+13  5.20462e+13 
 5.92327e+13  5.20462e+13 
 5.77869e+13  5.20462e+13 
 5.63412e+13  5.20462e+13 
 5.48955e+13  5.20462e+13 
 5.34497e+13  5.20462e+13 
 5.20040e+13  5.20462e+13 
 5.05583e+13  5.20462e+13 
 4.91126e+13  5.20462e+13 
 4.76668e+13  5.20462e+13 
 4.62211e+13  5.20462e+13 
 4.47754e+13  5.20462e+13 
 4.33296e+13  5.20462e+13 
 4.18839e+13  5.20462e+13 
 4.04382e+13  5.20462e+13 
 6.79070e+13  5.49376e+13 
 6.64613e+13  5.49376e+13 
 6.50156e+13  5.49376e+13 
 6.35698e+13  5.49376e+13 
 6.21241e+13  5.49376e+13 
 6.06784e+13  5.49376e+13 
 5.92327e+13  5.49376e+13 
 5.77869e+13  5.49376e+13 
 5.63412e+13  5.49376e+13 
 5.48955e+13  5.49376e+13 
 5.34497e+13  5.49376e+13 
 5.20040e+13  5.49376e+13 
 5.05583e+13  5.49376e+13 
 4.91126e+13  5.49376e+13 
 4.76668e+13  5.49376e+13 
 4.62211e+13  5.49376e+13 
 4.47754e+13  5.49376e+13 
 4.33296e+13  5.49376e+13 
 4.18839e+13  5.49376e+13 
 4.04382e+13  5.49376e+13 
 6.71842e+13  1.44573e+12 
 6.57384e+13  1.44573e+12 
 6.42927e+13  1.44573e+12 
 6.28470e+13  1.44573e+12 
 6.14012e+13  1.44573e+12 
 5.99555e+13  1.44573e+12 
 5.85098e+13  1.44573e+12 
 5.70641e+13  1.44573e+12 
 5.56183e+13  1.44573e+12 
 5.41726e+13  1.44573e+12 
 5.27269e+13  1.44573e+12 
 5.12812e+13  1.44573e+12 
 4.98354e+13  1.44573e+12 
 4.83897e+13  1.44573e+12 
 4.69440e+13  1.44573e+12 
 4.54982e+13  1.44573e+12 
 4.40525e+13  1.44573e+12 
 4.26068e+13  1.44573e+12 
 4.11611e+13  1.44573e+12 
 6.71842e+13  4.33718e+12 
 6.57384e+13  4.33718e+12 
 6.42927e+13  4.33718e+12 
 6.28470e+13  4.33718e+12 
 6.14012e+13  4.33718e+12 
 5.99555e+13  4.33718e+12 
 5.85098e+13  4.33718e+12 
 5.70641e+13  4.33718e+12 
 5.56183e+13  4.33718e+12 
 5.41726e+13  4.33718e+12 
 5.27269e+13  4.33718e+12 
 5.12812e+13  4.33718e+12 
 4.98354e+13  4.33718e+12 
 4.83897e+13  4.33718e+12 
 4.69440e+13  4.33718e+12 
 4.54982e+13  4.33718e+12 
 4.40525e+13  4.33718e+12 
 4.26068e+13  4.33718e+12 
 4.11611e+13  4.33718e+12 
 6.71842e+13  7.22864e+12 
 6.57384e+13  7.22864e+12 
 6.42927e+13  7.22864e+12 
 6.28470e+13  7.22864e+12 
 6.14012e+13  7.22864e+12 
 5.99555e+13  7.22864e+12 
 5.85098e+13  7.22864e+12 
 5.70641e+13  7.22864e+12 
 5.56183e+13  7.22864e+12 
 5.41726e+13  7.22864e+12 
 5.27269e+13  7.22864e+12 
 5.12812e+13  7.22864e+12 
 4.98354e+13  7.22864e+12 
 4.83897e+13  7.22864e+12 
 4.69440e+13  7.22864e+12 
 4.54982e+13  7.22864e+12 
 4.40525e+13  7.22864e+12 
 4.26068e+13  7.22864e+12 
 4.11611e+13  7.22864e+12 
 6.71842e+13  1.01201e+13 
 6.57384e+13  1.01201e+13 
 6.42927e+13  1.01201e+13 
62846970991442  1.01201e+13 
 6.14012e+13  1.01201e+13 
 5.99555e+13  1.01201e+13 
 5.85098e+13  1.01201e+13 
 5.70641e+13  1.01201e+13 
 5.56183e+13  1.01201e+13 
 5.41726e+13  1.01201e+13 
 5.27269e+13  1.01201e+13 
 5.12812e+13  1.01201e+13 
 4.98354e+13  1.01201e+13 
 4.83897e+13  1.01201e+13 
 4.69440e+13  1.01201e+13 
 4.54982e+13  1.01201e+13 
 4.40525e+13  1.01201e+13 
 4.26068e+13  1.01201e+13 
41161056930084  1.01201e+13 
 6.71842e+13  1.30115e+13 
 6.57384e+13  1.30115e+13 
 6.42927e+13  1.30115e+13 
 6.28470e+13  1.30115e+13 
 6.14012e+13  1.30115e+13 
 5.99555e+13  1.30115e+13 
 5.85098e+13  1.30115e+13 
 5.70641e+13  1.30115e+13 
 5.56183e+13  1.30115e+13 
 5.41726e+13  1.30115e+13 
 5.27269e+13  1.30115e+13 
 5.12812e+13  1.30115e+13 
 4.98354e+13  1.30115e+13 
 4.83897e+13  1.30115e+13 
 4.69440e+13  1.30115e+13 
 4.54982e+13  1.30115e+13 
 4.40525e+13  1.30115e+13 
 4.26068e+13  1.30115e+13 
 4.11611e+13  1.30115e+13 
 6.71842e+13  1.59030e+13 
 6.57384e+13  1.59030e+13 
 6.42927e+13  1.59030e+13 
 6.28470e+13  1.59030e+13 
 6.14012e+13  1.59030e+13 
 5.99555e+13  1.59030e+13 
 5.85098e+13  1.59030e+13 
 5.70641e+13  1.59030e+13 
 5.56183e+13  1.59030e+13 
 5.41726e+13  1.59030e+13 
 5.27269e+13  1.59030e+13 
 5.12812e+13  1.59030e+13 
 4.98354e+13  1.59030e+13 
 4.83897e+13  1.59030e+13 
 4.69440e+13  1.59030e+13 
 4.54982e+13  1.59030e+13 
 4.40525e+13  1.59030e+13 
 4.26068e+13  1.59030e+13 
 4.11611e+13  1.59030e+13 
 6.71842e+13  1.87945e+13 
 6.57384e+13  1.87945e+13 
 6.42927e+13  1.87945e+13 
 6.28470e+13  1.87945e+13 
 6.14012e+13  1.87945e+13 
 5.99555e+13  1.87945e+13 
 5.85098e+13  1.87945e+13 
 5.70641e+13  1.87945e+13 
 5.56183e+13  1.87945e+13 
 5.41726e+13  1.87945e+13 
 5.27269e+13  1.87945e+13 
 5.12812e+13  1.87945e+13 
 4.98354e+13  1.87945e+13 
 4.83897e+13  1.87945e+13 
 4.69440e+13  1.87945e+13 
 4.54982e+13  1.87945e+13 
 4.40525e+13  1.87945e+13 
 4.26068e+13  1.87945e+13 
 4.11611e+13  1.87945e+13 
 6.71842e+13  2.16859e+13 
 6.57384e+13  2.16859e+13 
 6.42927e+13  2.16859e+13 
 6.28470e+13  2.16859e+13 
 6.14012e+13  2.16859e+13 
59955515783260  2.16859e+13 
 5.85098e+13  2.16859e+13 
 5.70641e+13  2.16859e+13 
 5.56183e+13  2.16859e+13 
 5.41726e+13  2.16859e+13 
 5.27269e+13  2.16859e+13 
 5.12812e+13  2.16859e+13 
 4.98354e+13  2.16859e+13 
 4.83897e+13  2.16859e+13 
 4.69440e+13  2.16859e+13 
 4.54982e+13  2.16859e+13 
 4.40525e+13  2.16859e+13 
 4.26068e+13  2.16859e+13 
 4.11611e+13  2.16859e+13 
 6.71842e+13  2.45774e+13 
 6.57384e+13  2.45774e+13 
 6.42927e+13  2.45774e+13 
 6.28470e+13  2.45774e+13 
 6.14012e+13  2.45774e+13 
 5.99555e+13  2.45774e+13 
 5.85098e+13  2.45774e+13 
 5.70641e+13  2.45774e+13 
 5.56183e+13  2.45774e+13 
 5.41726e+13  2.45774e+13 
 5.27269e+13  2.45774e+13 
 5.12812e+13  2.45774e+13 
 4.98354e+13  2.45774e+13 
 4.83897e+13  2.45774e+13 
 4.69440e+13  2.45774e+13 
 4.54982e+13  2.45774e+13 
 4.40525e+13  2.45774e+13 
 4.26068e+13  2.45774e+13 
 4.11611e+13  2.45774e+13 
 6.71842e+13  2.74688e+13 
 6.57384e+13  2.74688e+13 
 6.42927e+13  2.74688e+13 
 6.28470e+13  2.74688e+13 
 6.14012e+13  2.74688e+13 
 5.99555e+13  2.74688e+13 
 5.85098e+13  2.74688e+13 
 5.70641e+13  2.74688e+13 
 5.56183e+13  2.74688e+13 
 5.41726e+13  2.74688e+13 
 5.27269e+13  2.74688e+13 
 5.12812e+13  2.74688e+13 
 4.98354e+13  2.74688e+13 
 4.83897e+13  2.74688e+13 
 4.69440e+13  2.74688e+13 
 4.54982e+13  2.74688e+13 
 4.40525e+13  2.74688e+13 
 4.26068e+13  2.74688e+13 
 4.11611e+13  2.74688e+13 
 6.71842e+13  3.03603e+13 
 6.57384e+13  3.03603e+13 
 6.42927e+13  3.03603e+13 
 6.28470e+13  3.03603e+13 
 6.14012e+13  3.03603e+13 
 5.99555e+13  3.03603e+13 
 5.85098e+13  3.03603e+13 
 5.70641e+13  3.03603e+13 
 5.56183e+13  3.03603e+13 
 5.41726e+13  3.03603e+13 
 5.27269e+13  3.03603e+13 
 5.12812e+13  3.03603e+13 
 4.98354e+13  3.03603e+13 
 4.83897e+13  3.03603e+13 
 4.69440e+13  3.03603e+13 
 4.54982e+13  3.03603e+13 
 4.40525e+13  3.03603e+13 
 4.26068e+13  3.03603e+13 
 4.11611e+13  3.03603e+13 
 6.71842e+13  3.32517e+13 
 6.57384e+13  3.32517e+13 
 6.42927e+13  3.32517e+13 
 6.28470e+13  3.32517e+13 
 6.14012e+13  3.32517e+13 
 5.99555e+13  3.32517e+13 
 5.85098e+13  3.32517e+13 
 5.70641e+13  3.32517e+13 
 5.56183e+13  3.32517e+13 
 5.41726e+13  3.32517e+13 
 5.27269e+13  3.32517e+13 
 5.12812e+13  3.32517e+13 
 4.98354e+13  3.32517e+13 
 4.83897e+13  3.32517e+13 
 4.69440e+13  3.32517e+13 
 4.54982e+13  3.32517e+13 
 4.40525e+13  3.32517e+13 
 4.26068e+13  3.32517e+13 
 4.11611e+13  3.32517e+13 
 6.71842e+13  3.61432e+13 
 6.57384e+13  3.61432e+13 
 6.42927e+13  3.61432e+13 
 6.28470e+13  3.61432e+13 
 6.14012e+13  3.61432e+13 
 5.99555e+13  3.61432e+13 
 5.85098e+13  3.61432e+13 
 5.70641e+13  3.61432e+13 
 5.56183e+13  3.61432e+13 
 5.41726e+13  3.61432e+13 
 5.27269e+13  3.61432e+13 
 5.12812e+13  3.61432e+13 
 4.98354e+13  3.61432e+13 
 4.83897e+13  3.61432e+13 
 4.69440e+13  3.61432e+13 
 4.54982e+13  3.61432e+13 
 4.40525e+13  3.61432e+13 
 4.26068e+13  3.61432e+13 
 4.11611e+13  3.61432e+13 
 6.71842e+13  3.90346e+13 
 6.57384e+13  3.90346e+13 
 6.42927e+13  3.90346e+13 
 6.28470e+13  3.90346e+13 
 6.14012e+13  3.90346e+13 
 5.99555e+13  3.90346e+13 
 5.85098e+13  3.90346e+13 
 5.70641e+13  3.90346e+13 
 5.56183e+13  3.90346e+13 
 5.41726e+13  3.90346e+13 
 5.27269e+13  3.90346e+13 
 5.12812e+13  3.90346e+13 
 4.98354e+13  3.90346e+13 
 4.83897e+13  3.90346e+13 
 4.69440e+13  3.90346e+13 
 4.54982e+13  3.90346e+13 
 4.40525e+13  3.90346e+13 
 4.26068e+13  3.90346e+13 
 4.11611e+13  3.90346e+13 
 6.71842e+13  4.19261e+13 
 6.57384e+13  4.19261e+13 
 6.42927e+13  4.19261e+13 
 6.28470e+13  4.19261e+13 
 6.14012e+13  4.19261e+13 
 5.99555e+13  4.19261e+13 
 5.85098e+13  4.19261e+13 
 5.70641e+13  4.19261e+13 
 5.56183e+13  4.19261e+13 
 5.41726e+13  4.19261e+13 
 5.27269e+13  4.19261e+13 
 5.12812e+13  4.19261e+13 
 4.98354e+13  4.19261e+13 
 4.83897e+13  4.19261e+13 
 4.69440e+13  4.19261e+13 
 4.54982e+13  4.19261e+13 
 4.40525e+13  4.19261e+13 
 4.26068e+13  4.19261e+13 
 4.11611e+13  4.19261e+13 
 6.71842e+13  4.48176e+13 
 6.57384e+13  4.48176e+13 
 6.42927e+13  4.48176e+13 
 6.28470e+13  4.48176e+13 
 6.14012e+13  4.48176e+13 
 5.99555e+13  4.48176e+13 
 5.85098e+13  4.48176e+13 
 5.70641e+13  4.48176e+13 
 5.56183e+13  4.48176e+13 
 5.41726e+13  4.48176e+13 
 5.27269e+13  4.48176e+13 
 5.12812e+13  4.48176e+13 
 4.98354e+13  4.48176e+13 
 4.83897e+13  4.48176e+13 
 4.69440e+13  4.48176e+13 
 4.54982e+13  4.48176e+13 
 4.40525e+13  4.48176e+13 
 4.26068e+13  4.48176e+13 
 4.11611e+13  4.48176e+13 
 6.71842e+13  4.77090e+13 
 6.57384e+13  4.77090e+13 
 6.42927e+13  4.77090e+13 
 6.28470e+13  4.77090e+13 
 6.14012e+13  4.77090e+13 
 5.99555e+13  4.77090e+13 
 5.85098e+13  4.77090e+13 
 5.70641e+13  4.77090e+13 
 5.56183e+13  4.77090e+13 
 5.41726e+13  4.77090e+13 
 5.27269e+13  4.77090e+13 
 5.12812e+13  4.77090e+13 
 4.98354e+13  4.77090e+13 
 4.83897e+13  4.77090e+13 
 4.69440e+13  4.77090e+13 
 4.54982e+13  4.77090e+13 
 4.40525e+13  4.77090e+13 
 4.26068e+13  4.77090e+13 
 4.11611e+13  4.77090e+13 
 6.71842e+13  5.06005e+13 
 6.57384e+13  5.06005e+13 
 6.42927e+13  5.06005e+13 
 6.28470e+13  5.06005e+13 
 6.14012e+13  5.06005e+13 
 5.99555e+13  5.06005e+13 
 5.85098e+13  5.06005e+13 
 5.70641e+13  5.06005e+13 
 5.56183e+13  5.06005e+13 
 5.41726e+13  5.06005e+13 
 5.27269e+13  5.06005e+13 
 5.12812e+13  5.06005e+13 