<?xml version="1.0" encoding="utf-8"?>
<VTKFile byte_order="LittleEndian" type="UnstructuredGrid" version="0.1">
   <UnstructuredGrid>
      <Piece NumberOfCells="2084" NumberOfPoints="560">
         <Points>
            <DataArray Name="Points" NumberOfComponents="3" format="ascii" type="Float32">
0.0000 2.0000 2.0000
0.0000 1.7500 2.0000
0.0000 2.0000 1.7500
0.2500 2.0000 2.0000
0.2500 1.7500 2.0000
0.2500 2.0000 1.7500
0.0000 1.7500 1.7500
0.0000 1.5000 2.0000
0.0000 2.0000 1.5000
0.5000 2.0000 2.0000
0.5000 1.7500 2.0000
0.0000 1.7500 1.5000
0.2500 2.0000 1.5000
0.0000 1.5000 1.7500
0.2500 1.5000 2.0000
0.5000 2.0000 1.7500
0.3333 1.7457 1.5833
0.4167 1.5833 1.7457
0.5000 2.0000 1.5000
0.0000 1.5000 1.5000
0.5000 1.5000 2.0000
0.2543 1.4167 1.6667
0.0000 1.2500 2.0000
0.0000 2.0000 1.2500
0.7500 2.0000 2.0000
0.5708 1.7838 1.5333
0.2500 1.2500 2.0000
0.2500 2.0000 1.2500
0.0000 1.7500 1.2500
0.7500 1.7500 2.0000
0.7500 2.0000 1.7500
0.0000 1.2500 1.7500
0.6667 1.5833 1.7457
0.3162 1.4042 1.4660
0.5000 1.2500 2.0000
0.0000 1.2500 1.5000
0.7500 1.5000 2.0000
0.5000 2.0000 1.2500
0.7500 2.0000 1.5000
0.0000 1.5000 1.2500
0.2543 1.1667 1.6667
0.2543 1.6667 1.1667
0.8013 1.6788 1.6146
0.6667 1.3333 1.7457
0.0000 1.0000 2.0000
1.0000 2.0000 2.0000
0.0000 2.0000 1.0000
1.0000 2.0000 1.7500
1.0000 1.7500 2.0000
0.0000 1.0000 1.7500
0.0000 1.7500 1.0000
0.2500 2.0000 1.0000
0.2500 1.0000 2.0000
0.2543 1.4167 1.1667
0.7500 1.2500 2.0000
0.7500 2.0000 1.2500
0.0000 1.2500 1.2500
0.9542 1.5458 1.7457
0.8333 1.7457 1.3333
0.5833 1.7457 1.0833
0.0000 1.5000 1.0000
1.0000 2.0000 1.5000
0.0000 1.0000 1.5000
0.5000 2.0000 1.0000
0.5000 1.0000 2.0000
1.0000 1.5000 2.0000
0.2543 0.9167 1.6667
0.6667 1.0833 1.7457
1.0833 1.7457 1.5833
0.4167 1.7457 0.9167
0.2543 1.1667 1.1667
1.0000 1.2500 2.0000
1.0000 2.0000 1.2500
0.7500 1.0000 2.0000
0.0000 1.2500 1.0000
1.2500 2.0000 2.0000
0.0000 0.7500 2.0000
0.0000 2.0000 0.7500
0.7500 2.0000 1.0000
0.0000 1.0000 1.2500
0.2543 1.4167 0.9167
0.2543 0.9167 1.4167
0.6889 1.3333 1.1827
0.8333 1.7457 1.0833
1.1667 1.5833 1.7457
0.0000 0.7500 1.7500
0.2500 0.7500 2.0000
1.2500 2.0000 1.7500
1.2500 1.7500 2.0000
0.0000 1.7500 0.7500
0.2500 2.0000 0.7500
0.9167 1.0833 1.7457
0.5000 0.7500 2.0000
0.0000 1.5000 0.7500
0.0000 0.7500 1.5000
0.5000 2.0000 0.7500
1.2500 2.0000 1.5000
1.2500 1.5000 2.0000
0.6667 0.8333 1.7457
1.1667 1.3333 1.7457
0.2543 0.7042 1.6292
0.2543 0.9167 1.1667
0.5357 1.4750 0.8149
0.0000 1.0000 1.0000
1.0000 2.0000 1.0000
1.0000 1.0000 2.0000
1.3333 1.7457 1.5833
1.0833 1.7457 1.0833
0.2635 1.6683 0.6076
0.8333 1.7457 0.8333
0.7500 0.7500 2.0000
0.0000 0.7500 1.2500
0.0000 1.2500 0.7500
0.7500 2.0000 0.7500
1.2500 1.2500 2.0000
1.2500 2.0000 1.2500
0.2557 1.4544 0.6578
1.4167 1.5833 1.7457
0.0000 0.5000 2.0000
0.0000 2.0000 0.5000
1.5000 2.0000 2.0000
1.1667 1.0833 1.7457
1.3333 1.7457 1.3333
1.5000 1.7500 2.0000
0.2500 2.0000 0.5000
1.5000 2.0000 1.7500
0.0000 1.7500 0.5000
0.2500 0.5000 2.0000
0.0000 0.5000 1.7500
0.2543 0.9167 0.9167
0.5833 1.7457 0.5833
0.6059 0.5885 1.6575
0.6903 0.8684 1.1479
0.0000 1.5000 0.5000
1.5000 2.0000 1.5000
0.0000 0.5000 1.5000
0.5000 0.5000 2.0000
0.5000 2.0000 0.5000
1.5000 1.5000 2.0000
0.2779 1.1858 0.6603
1.0000 0.7500 2.0000
1.0000 2.0000 0.7500
0.0000 0.7500 1.0000
0.0000 1.0000 0.7500
1.2500 1.0000 2.0000
1.2500 2.0000 1.0000
0.5740 1.2999 0.6473
0.2543 0.4167 1.6667
1.3333 1.7457 1.0833
0.1128 1.9149 0.3674
0.2616 0.6175 1.1579
0.1121 1.7239 0.3764
1.5833 1.7457 1.5833
0.8333 1.7457 0.5833
1.1667 0.8333 1.7457
0.7500 0.5000 2.0000
1.5000 1.2500 2.0000
0.0000 0.5000 1.2500
1.5000 2.0000 1.2500
0.0000 1.2500 0.5000
0.7500 2.0000 0.5000
0.2162 1.4292 0.4292
0.2543 0.4310 1.4273
0.4260 1.5424 0.4193
1.4167 1.0833 1.7457
0.9167 0.5833 1.7457
1.6667 1.5833 1.7457
0.2543 0.9167 0.6667
1.7500 2.0000 2.0000
0.0000 0.2500 2.0000
0.0000 2.0000 0.2500
0.0000 0.7500 0.7500
0.2500 2.0000 0.2500
0.0000 1.7500 0.2500
0.2500 0.2500 2.0000
1.2500 0.7500 2.0000
0.0000 0.2500 1.7500
1.7500 1.7500 2.0000
1.2500 2.0000 0.7500
1.7500 2.0000 1.7500
1.2762 1.0958 1.1675
0.5833 1.7457 0.3333
0.3158 1.6775 0.2727
0.8723 1.3125 0.6016
1.3333 1.7457 0.8333
1.5000 2.0000 1.0000
0.0000 0.5000 1.0000
1.0000 2.0000 0.5000
0.0000 1.0000 0.5000
1.0000 0.5000 2.0000
1.5000 1.0000 2.0000
0.6667 0.3333 1.7457
0.0000 1.5000 0.2500
0.5000 2.0000 0.2500
0.5000 0.2500 2.0000
0.0000 0.2500 1.5000
1.7500 1.5000 2.0000
1.7500 2.0000 1.5000
1.6792 1.3208 1.7838
1.1184 1.6427 0.5795
1.0833 0.6667 1.3071
1.1667 0.5833 1.7457
0.3821 1.3806 0.2682
0.8292 1.7584 0.3292
0.4292 0.2162 1.5708
1.7457 1.4167 1.5833
1.7457 1.6667 1.3333
1.7500 1.2500 2.0000
0.0000 0.2500 1.2500
1.7500 2.0000 1.2500
0.7500 0.2500 2.0000
0.7500 2.0000 0.2500
0.0000 1.2500 0.2500
0.3031 0.3392 1.1079
0.2746 0.9878 0.3950
1.6667 1.0833 1.7457
0.2739 0.6623 0.6469
0.2543 0.4167 0.9167
0.5750 0.2543 1.3894
0.6417 1.5333 0.2162
1.5000 0.7500 2.0000
1.5000 2.0000 0.7500
0.0000 0.5000 0.7500
1.2500 0.5000 2.0000
1.2500 2.0000 0.5000
0.0000 0.7500 0.5000
0.2609 0.1754 1.3520
1.3319 1.6576 0.5866
1.7457 1.1292 1.5833
1.7457 1.6667 1.0833
2.0000 2.0000 2.0000
0.0000 0.0000 2.0000
0.0000 2.0000 0.0000
0.6105 1.1033 0.3180
0.6417 1.3208 0.2162
0.9167 1.5833 0.2543
0.9167 0.2543 1.5833
1.0000 0.2500 2.0000
0.2500 2.0000 0.0000
0.0000 0.2500 1.0000
1.0000 2.0000 0.2500
2.0000 2.0000 1.7500
2.0000 1.7500 2.0000
0.0000 1.7500 0.0000
0.0000 0.0000 1.7500
1.7500 2.0000 1.0000
0.2500 0.0000 2.0000
0.0000 1.0000 0.2500
1.7500 1.0000 2.0000
1.4167 0.5833 1.7457
0.5833 0.2543 1.1667
0.4291 1.0715 0.2565
0.2500 1.7500 0.0000
2.0000 1.7500 1.7500
0.2500 0.0000 1.7500
1.7457 1.1667 1.3333
1.1667 0.3333 1.7457
1.6838 1.6785 0.8708
0.6667 0.5086 0.7500
0.5000 2.0000 0.0000
0.0000 1.5000 0.0000
2.0000 2.0000 1.5000
0.5000 0.0000 2.0000
0.0000 0.0000 1.5000
2.0000 1.5000 2.0000
1.6792 0.8208 1.7838
1.7584 1.4083 1.0792
0.2500 0.0000 1.5000
2.0000 1.5000 1.7500
0.2500 1.5000 0.0000
0.5000 1.7500 0.0000
0.5000 0.0000 1.7500
2.0000 1.7500 1.5000
0.2543 0.4167 0.6667
1.0517 0.7635 0.6792
1.7457 0.9167 1.5833
1.3236 1.1583 0.6048
0.8333 0.2543 1.1667
1.1473 1.5731 0.2687
1.5000 0.5000 2.0000
1.5000 2.0000 0.5000
0.5000 0.0000 1.5000
0.0000 0.5000 0.5000
2.0000 1.5000 1.5000
0.5000 1.5000 0.0000
0.5124 0.4877 0.5875
0.5833 0.2543 0.9167
1.0833 0.2543 1.4167
2.0000 2.0000 1.2500
0.7500 0.0000 2.0000
2.0000 1.2500 2.0000
0.0000 1.2500 0.0000
0.0000 0.0000 1.2500
0.7500 2.0000 0.0000
0.6757 0.8707 0.3139
1.7457 1.1667 1.0833
0.2500 1.2500 0.0000
0.2500 0.0000 1.2500
1.7500 2.0000 0.7500
0.0000 0.7500 0.2500
1.2500 0.2500 2.0000
2.0000 1.2500 1.7500
2.0000 1.7500 1.2500
0.7500 1.7500 0.0000
1.7500 0.7500 2.0000
0.0000 0.2500 0.7500
0.7500 0.0000 1.7500
1.2500 2.0000 0.2500
0.9144 1.0948 0.2717
1.3417 1.7584 0.3292
1.1877 1.2958 0.3162
0.5000 0.0000 1.2500
0.5000 1.2500 0.0000
0.7500 1.5000 0.0000
2.0000 1.2500 1.5000
0.7500 0.0000 1.5000
2.0000 1.5000 1.2500
1.6667 0.5833 1.7457
1.0833 0.2543 1.1667
0.0000 1.0000 0.0000
1.0000 2.0000 0.0000
1.0000 0.0000 2.0000
2.0000 2.0000 1.0000
2.0000 1.0000 2.0000
0.0000 0.0000 1.0000
1.7457 0.9167 1.0833
0.2500 0.0000 1.0000
1.0000 1.7500 0.0000
2.0000 1.7500 1.0000
1.0000 0.0000 1.7500
2.0000 1.0000 1.7500
0.2500 1.0000 0.0000
1.5422 0.6500 1.0667
0.2543 0.4167 0.4167
1.7457 1.1667 0.8333
1.7213 0.6048 1.5583
1.5458 1.7457 0.3708
0.7500 1.2500 0.0000
2.0000 1.2500 1.2500
0.7500 0.0000 1.2500
0.5833 0.2543 0.6667
1.4167 1.5833 0.2543
1.1667 1.0833 0.2543
0.5000 0.0000 1.0000
1.0000 0.0000 1.5000
0.5000 1.0000 0.0000
2.0000 1.5000 1.0000
2.0000 1.0000 1.5000
1.0000 1.5000 0.0000
1.7500 0.5000 2.0000
0.0000 0.2500 0.5000
1.7500 2.0000 0.5000
0.0000 0.5000 0.2500
1.5000 2.0000 0.2500
1.5000 0.2500 2.0000
1.7838 1.6417 0.5708
1.0833 0.2543 0.9167
0.4292 0.5708 0.2162
0.6469 0.5792 0.2708
1.7413 1.4398 0.5339
1.3333 0.2543 1.1667
0.8333 0.2543 0.6667
1.0000 1.2500 0.0000
2.0000 1.0000 1.2500
2.0000 2.0000 0.7500
2.0000 0.7500 2.0000
2.0000 1.2500 1.0000
1.2500 0.0000 2.0000
0.7500 1.0000 0.0000
0.0000 0.7500 0.0000
1.0000 0.0000 1.2500
0.7500 0.0000 1.0000
0.0000 0.0000 0.7500
1.2500 2.0000 0.0000
1.7514 0.5992 1.2677
0.2500 0.0000 0.7500
2.0000 1.7500 0.7500
2.0000 0.7500 1.7500
1.2500 1.7500 0.0000
1.2500 0.0000 1.7500
0.2500 0.7500 0.0000
1.5833 0.2543 1.6667
1.7457 0.6667 1.0833
1.7457 1.1667 0.5833
1.1667 0.8333 0.2543
1.3301 0.6545 0.5108
0.5000 0.7500 0.0000
0.5000 0.0000 0.7500
2.0000 0.7500 1.5000
2.0000 1.5000 0.7500
1.2500 1.5000 0.0000
1.2500 0.0000 1.5000
0.9167 0.5833 0.2543
1.5833 0.2543 1.4167
1.4167 1.0833 0.2543
0.4523 0.3037 0.3215
1.0833 0.2543 0.6667
2.0000 1.0000 1.0000
1.0000 0.0000 1.0000
1.0000 1.0000 0.0000
1.8254 0.4125 1.6000
1.4960 0.5669 0.6792
1.1494 0.6104 0.3180
0.7500 0.7500 0.0000
1.2500 0.0000 1.2500
2.0000 1.2500 0.7500
0.0000 0.2500 0.2500
1.7500 2.0000 0.2500
0.7500 0.0000 0.7500
2.0000 0.7500 1.2500
1.2500 1.2500 0.0000
1.7500 0.2500 2.0000
1.7167 1.5708 0.2537
1.7457 0.6667 0.8333
1.7457 0.9167 0.5833
1.5994 0.2594 1.1895
0.8333 0.2543 0.4167
2.0000 0.5000 2.0000
2.0000 2.0000 0.5000
0.0000 0.5000 0.0000
1.5000 2.0000 0.0000
1.5000 0.0000 2.0000
0.0000 0.0000 0.5000
1.5000 1.7500 0.0000
1.5000 0.0000 1.7500
2.0000 0.5000 1.7500
0.2500 0.5000 0.0000
0.2500 0.0000 0.5000
2.0000 1.7500 0.5000
0.6417 0.3208 0.2162
1.7838 0.4292 1.1083
1.5000 0.0000 1.5000
0.5000 0.5000 0.0000
2.0000 1.5000 0.5000
0.5000 0.0000 0.5000
1.5000 1.5000 0.0000
2.0000 0.5000 1.5000
1.7457 1.1667 0.3333
1.0000 0.7500 0.0000
2.0000 1.0000 0.7500
1.2500 1.0000 0.0000
1.2500 0.0000 1.0000
1.0000 0.0000 0.7500
2.0000 0.7500 1.0000
1.3060 0.2416 0.6583
1.8325 0.2829 1.3765
1.5833 0.9167 0.2543
1.5833 0.2543 0.9167
0.7500 0.5000 0.0000
0.7500 0.0000 0.5000
2.0000 0.5000 1.2500
2.0000 1.2500 0.5000
1.5000 1.2500 0.0000
1.5000 0.0000 1.2500
1.7457 0.6667 0.5833
1.4167 0.5833 0.2543
0.0000 0.0000 0.2500
1.7500 2.0000 0.0000
2.0000 0.2500 2.0000
2.0000 2.0000 0.2500
1.7500 0.0000 2.0000
[...]
         <PointData>
            <DataArray Name="fValues" NumberOfComponents="1" format="ascii" type="Float64">
 4.34256e+00 
 3.89828e+00 
 4.34446e+00 
 3.40607e+00 
 2.96319e+00 
 3.40250e+00 
 3.89779e+00 
 3.59672e+00 
 4.34930e+00 
 2.59671e+00 
 2.15002e+00 
 3.88946e+00 
 3.39984e+00 
 3.57758e+00 
 2.65479e+00 
 2.57788e+00 
 2.67200e+00 
 2.18295e+00 
 2.59624e+00 
 3.59480e+00 
 1.84619e+00 
 2.55795e+00 
 3.40293e+00 
 4.34619e+00 
 1.90632e+00 
 1.98864e+00 
 2.46608e+00 
 3.39807e+00 
 3.90391e+00 
 1.46981e+00 
 1.89555e+00 
 3.40586e+00 
 1.45016e+00 
 2.31898e+00 
 1.64798e+00 
 3.40314e+00 
 1.15770e+00 
 2.57966e+00 
 1.90326e+00 
 3.59318e+00 
 2.40766e+00 
 2.82245e+00 
 1.22587e+00 
 1.22423e+00 
 3.33798e+00 
 1.34611e+00 
 4.34618e+00 
 1.32386e+00 
 9.03754e-01 
 3.33973e+00 
 3.89571e+00 
 3.39740e+00 
 2.40830e+00 
 2.56247e+00 
 9.70584e-01 
 1.89666e+00 
 3.40627e+00 
 7.26773e-01 
 1.25535e+00 
 1.89845e+00 
 3.59219e+00 
 1.34270e+00 
 3.34739e+00 
 2.58934e+00 
 1.58821e+00 
 5.92383e-01 
 2.38750e+00 
 1.12114e+00 
 7.31180e-01 
 2.39869e+00 
 2.41039e+00 
 3.97194e-01 
 1.34959e+00 
 9.09427e-01 
 3.39990e+00 
 9.05121e-01 
 3.39985e+00 
 4.34652e+00 
 1.91136e+00 
 3.34534e+00 
 2.55549e+00 
 2.36869e+00 
 1.11158e+00 
 1.26547e+00 
 3.63021e-01 
 3.40337e+00 
 2.46901e+00 
 8.92227e-01 
 4.63804e-01 
 3.90009e+00 
 3.39769e+00 
 5.23734e-01 
 1.64943e+00 
 3.59587e+00 
 3.40542e+00 
 2.58685e+00 
 9.14930e-01 
 1.66148e-01 
 1.13706e+00 
 1.15370e-01 
 2.47197e+00 
 2.39585e+00 
 1.71223e+00 
 3.34329e+00 
 1.34780e+00 
 3.33180e-01 
 3.52498e-01 
 6.99068e-01 
 2.79489e+00 
 1.20655e+00 
 9.71758e-01 
 3.40609e+00 
 3.40180e+00 
 1.91987e+00 
-3.06088e-02 
 9.23625e-01 
 2.58803e+00 
 1.58456e-02 
 3.58812e+00 
 4.34774e+00 
 5.89405e-01 
 6.91703e-02 
 2.75402e-01 
 1.58680e-01 
 3.39693e+00 
 5.92571e-01 
 3.90480e+00 
 2.65738e+00 
 3.58919e+00 
 2.36580e+00 
 1.89759e+00 
 1.44472e+00 
 1.02669e+00 
 3.59542e+00 
 5.94053e-01 
 3.59806e+00 
 1.84356e+00 
 2.57878e+00 
-1.55027e-01 
 2.33879e+00 
 3.92036e-01 
 1.34950e+00 
 3.40430e+00 
 3.34754e+00 
-9.65840e-02 
 9.29996e-01 
 1.44771e+00 
 2.71092e+00 
 3.07245e-01 
 3.75820e+00 
 2.49158e+00 
 3.43398e+00 
 5.03007e-02 
 1.24708e+00 
 4.04453e-02 
 1.16127e+00 
-3.55521e-01 
 3.59455e+00 
 5.98868e-01 
 3.39893e+00 
 1.91009e+00 
 2.70694e+00 
 2.70815e+00 
 2.11976e+00 
-3.05164e-01 
 6.80060e-01 
-2.12230e-01 
 2.37762e+00 
 4.06009e-01 
 3.90153e+00 
 4.34914e+00 
 3.41142e+00 
 3.38806e+00 
 3.90150e+00 
 2.96701e+00 
-2.92353e-02 
 3.90203e+00 
-3.92525e-02 
 9.12988e-01 
 3.89745e-01 
-2.10780e-01 
 1.91016e+00 
 2.63279e+00 
 6.75036e-01 
 2.74980e-01 
 5.88807e-01 
 3.59629e+00 
 1.31957e+00 
 3.35378e+00 
 5.88755e-01 
-4.08551e-01 
 1.54745e+00 
 3.57937e+00 
 2.58581e+00 
 2.14842e+00 
 3.90025e+00 
-3.44392e-01 
 4.08046e-01 
-4.66262e-01 
 5.19872e-01 
 2.37535e-01 
 2.29680e-01 
 2.10523e+00 
 1.28958e+00 
 2.42971e+00 
-4.59606e-01 
-1.96036e-01 
-5.33971e-01 
 3.90216e+00 
 4.00587e-01 
 1.46908e+00 
 1.90462e+00 
 3.38679e+00 
 2.63225e+00 
 2.29301e+00 
-5.34565e-01 
 2.41618e+00 
 2.69171e+00 
 1.87755e+00 
 1.46920e+00 
-3.56679e-01 
 5.91277e-01 
 3.60438e+00 
 1.57040e-01 
 8.95952e-01 
 3.39533e+00 
 3.05766e+00 
 1.99773e-01 
-5.91216e-01 
-1.51945e-01 
 3.39580e-01 
 4.33644e+00 
 4.34011e+00 
 1.28517e+00 
 1.27812e+00 
 8.44329e-01 
 1.07096e+00 
 8.92399e-01 
 3.40139e+00 
 3.90416e+00 
 1.32880e+00 
 3.45662e-01 
-9.38713e-02 
 3.90697e+00 
 4.34035e+00 
 3.96372e-01 
 3.40651e+00 
 3.34007e+00 
-5.97993e-01 
-1.55836e-01 
 1.88320e+00 
 1.79965e+00 
 2.96001e+00 
-1.05341e-01 
 3.39085e+00 
-5.75290e-01 
 4.59503e-01 
-1.38073e-01 
 1.34052e+00 
 2.59691e+00 
 3.59528e+00 
 3.44514e-01 
 2.59756e+00 
 4.35167e+00 
-4.09419e-01 
-5.34654e-01 
-4.61608e-01 
 3.38659e+00 
-4.11527e-01 
 2.65939e+00 
 2.15515e+00 
 2.57636e+00 
-1.04875e-01 
 2.71331e+00 
 2.41838e-01 
-6.29953e-01 
-2.27456e-01 
 1.22887e+00 
 3.89348e-01 
-1.55441e-01 
 5.74906e-01 
 2.59272e+00 
 3.60168e+00 
-4.10311e-01 
 1.84518e+00 
 1.82606e+00 
 1.87968e+00 
 7.33455e-01 
 3.39280e-01 
 1.90600e+00 
-5.96049e-01 
 3.40812e+00 
 4.34437e+00 
 1.90190e+00 
 1.10357e+00 
-5.68151e-01 
 2.45874e+00 
 3.40134e+00 
 4.00814e-01 
 3.38238e+00 
 4.71312e-01 
-6.02722e-01 
-9.26974e-02 
 1.46490e+00 
-5.35220e-01 
 3.89861e+00 
 1.89949e+00 
 8.90870e-01 
 5.23006e-01 
 3.57557e-01 
 7.90431e-02 
 2.60320e+00 
 1.66292e+00 
 1.15638e+00 
-5.86531e-01 
 1.91519e+00 
-4.05905e-01 
-3.66683e-01 
 7.46159e-01 
 3.34146e+00 
 1.34364e+00 
 1.34842e+00 
 3.44384e-01 
-6.58397e-01 
 4.34604e+00 
-5.85911e-01 
 3.38977e+00 
 9.00229e-01 
-9.91175e-02 
 1.32344e+00 
-6.61020e-01 
 2.41183e+00 
-3.57506e-01 
 2.71002e+00 
-5.70398e-01 
-4.68387e-01 
 9.83924e-02 
 9.65299e-01 
-6.00011e-01 
 1.91366e+00 
 1.90392e+00 
-1.60504e-03 
 5.19807e-02 
 2.60328e+00 
 1.34818e+00 
 1.59368e+00 
-4.08292e-01 
-6.50204e-01 
 5.94516e-01 
-3.50505e-01 
 3.90329e+00 
 3.90361e-01 
 3.58788e+00 
 5.89996e-01 
 1.45306e-01 
-2.11776e-01 
 7.18618e-01 
 1.97609e+00 
 1.34479e+00 
-4.12279e-01 
 3.01756e-01 
 1.25539e+00 
 3.90671e-01 
-6.55554e-01 
 3.42880e-01 
-5.97384e-01 
-5.91885e-01 
 9.04750e-01 
 9.06395e-01 
 3.40949e+00 
 1.34352e+00 
 1.90950e+00 
 4.35028e+00 
 9.10533e-01 
-4.83288e-01 
 3.38757e+00 
-9.27547e-02 
-6.00182e-01 
 4.64032e-01 
 9.01389e-01 
 2.46133e+00 
 5.93173e-02 
-4.85714e-01 
-5.67633e-01 
 5.29587e-02 
-1.19943e-01 
 1.65186e+00 
 2.58268e+00 
-5.76480e-01 
-4.02892e-01 
 1.62220e-01 
 8.94632e-01 
 6.79168e-01 
 3.06422e-02 
-3.14175e-01 
 2.22611e+00 
 7.25497e-01 
-6.56157e-01 
 1.33720e+00 
 3.40902e-01 
-2.70130e-01 
-2.28493e-01 
 2.12485e-01 
 9.69737e-01 
 9.11870e-01 
-6.01740e-01 
 3.90079e+00 
 3.99458e-01 
 1.90796e+00 
-5.96473e-01 
-2.93683e-02 
-3.30035e-02 
-2.54180e-01 
-5.46415e-01 
-5.97688e-01 
 4.35702e-02 
 1.23983e+00 
-4.04781e-01 
 3.52604e-01 
 3.58932e+00 
 5.90521e-01 
 5.95213e-01 
 4.35174e+00 
 1.61032e-01 
 5.80303e-01 
-4.07778e-01 
 2.65887e+00 
 3.38050e+00 
-1.06146e-01 
 1.64644e+00 
-2.71941e-01 
 6.10438e-01 
 1.84792e+00 
-4.02505e-01 
 2.57852e+00 
-1.57268e-01 
-3.94520e-01 
-5.88392e-01 
 3.93593e-01 
-6.57649e-01 
-9.41259e-02 
 9.09062e-01 
 1.34681e+00 
-5.86526e-01 
 3.74327e-01 
-1.01597e-01 
-4.82532e-01 
 2.50545e-02 
 1.15647e+00 
 1.90218e+00 
-3.94907e-01 
-5.93709e-01 
-3.59943e-01 
 6.05082e-01 
-4.78624e-01 
-1.41105e-01 
 4.35239e+00 
 4.01800e-01 
-9.34033e-02 
 3.50669e-01 
 4.07165e-01 
 3.89868e+00 
 4.03274e-01 
-1.11999e-01 
-3.54283e-02 
-2.69316e-02 
 3.39083e+00 
 9.12369e-01 
-1.11833e-01 
 2.96959e+00 
-5.84893e-01 
 4.72307e-01 
-1.00578e-01 
 4.88344e-02 
-2.69929e-01 
 1.34068e+00 
-4.04045e-01 
-6.52065e-01 
-4.09779e-01 
 6.01081e-01 
 5.90566e-01 
-4.05298e-01 
 2.56769e-01 
 2.67023e-01 
 3.95987e-01 
 2.14889e+00 
-3.48421e-01 
-4.11722e-01 
-1.01107e-01 
 2.58861e+00 
 3.97635e-01 
-5.30630e-01 
-1.10096e-01 
 1.47010e+00 
-5.93641e-01 
 1.90439e+00 
-5.00655e-01 
-3.52760e-01 
-4.00810e-01 
 1.55214e-01 
-5.94014e-01 
 9.03586e-01 
 6.10891e-01 
 1.28049e-01 
 3.37782e-01 
 4.34056e+00 
 3.51309e-01 
 3.95335e-01 
-9.70886e-02 
 9.01330e-01 
 1.33790e+00 
 3.44181e-01 
-6.65739e-01 
 3.40771e+00 
-1.04957e-01 
-5.97717e-01 
-2.69235e-01 
 1.27636e-01 
 3.49329e-01 
 2.58955e+00 
-4.06160e-01 
-1.67612e-01 
-1.55972e-01 
-4.13046e-01 
 5.98561e-01 
 1.90103e+00 
-6.00725e-01 
 3.49604e-01 
-3.62929e-01 
-5.32159e-01 
-5.98760e-01 
 8.95232e-01 
 4.08243e-01 
 4.63730e-01 
-1.11561e-01 
-2.84684e-01 
-6.59129e-01 
 1.34416e+00 
 3.47429e-01 
 1.97075e-01 
-3.35899e-03 
-3.47652e-01 
 1.53185e-01 
-1.06747e-01 
 5.86590e-01 
 3.88721e-01 
-4.06483e-01 
 3.48197e-01 
 9.05098e-01 
-5.97054e-01 
-1.05745e-01 
 3.96320e-01 
-3.40896e-02 
 5.94643e-01 
-4.07686e-01 
 3.54083e-01 
 4.00519e-01 
-9.33642e-02 
 3.48357e-01 
 3.44447e-01 </DataArray>
         </PointData>
         <CellData/>
      </Piece>
   </UnstructuredGrid>
</VTKFile>