<?xml version="1.0" encoding="utf-8"?>
<VTKFile byte_order="LittleEndian" type="UnstructuredGrid" version="0.1">
   <UnstructuredGrid>
      <Piece NumberOfCells="392" NumberOfPoints="435">
         <Points>
            <DataArray Name="Points" NumberOfComponents="3" format="ascii" type="Float32">
-1.0000 -1.0000 0.0000
1.0000 -1.0000 0.0000
1.0000 1.0000 0.0000
-1.0000 1.0000 0.0000
3.0000 -1.0000 0.0000
3.0000 1.0000 0.0000
5.0000 -1.0000 0.0000
5.0000 1.0000 0.0000
7.0000 -1.0000 0.0000
7.0000 1.0000 0.0000
9.0000 -1.0000 0.0000
9.0000 1.0000 0.0000
11.0000 -1.0000 0.0000
11.0000 1.0000 0.0000
13.0000 -1.0000 0.0000
13.0000 1.0000 0.0000
15.0000 -1.0000 0.0000
15.0000 1.0000 0.0000
17.0000 -1.0000 0.0000
17.0000 1.0000 0.0000
19.0000 -1.0000 0.0000
19.0000 1.0000 0.0000
21.0000 -1.0000 0.0000
21.0000 1.0000 0.0000
23.0000 -1.0000 0.0000
23.0000 1.0000 0.0000
25.0000 -1.0000 0.0000
25.0000 1.0000 0.0000
27.0000 -1.0000 0.0000
27.0000 1.0000 0.0000
29.0000 -1.0000 0.0000
29.0000 1.0000 0.0000
31.0000 -1.0000 0.0000
31.0000 1.0000 0.0000
33.0000 -1.0000 0.0000
33.0000 1.0000 0.0000
35.0000 -1.0000 0.0000
35.0000 1.0000 0.0000
37.0000 -1.0000 0.0000
37.0000 1.0000 0.0000
39.0000 -1.0000 0.0000
39.0000 1.0000 0.0000
41.0000 -1.0000 0.0000
41.0000 1.0000 0.0000
43.0000 -1.0000 0.0000
43.0000 1.0000 0.0000
45.0000 -1.0000 0.0000
45.0000 1.0000 0.0000
47.0000 -1.0000 0.0000
47.0000 1.0000 0.0000
49.0000 -1.0000 0.0000
49.0000 1.0000 0.0000
51.0000 -1.0000 0.0000
51.0000 1.0000 0.0000
53.0000 -1.0000 0.0000
53.0000 1.0000 0.0000
55.0000 -1.0000 0.0000
55.0000 1.0000 0.0000
1.0000 3.0000 0.0000
-1.0000 3.0000 0.0000
3.0000 3.0000 0.0000
5.0000 3.0000 0.0000
7.0000 3.0000 0.0000
9.0000 3.0000 0.0000
11.0000 3.0000 0.0000
13.0000 3.0000 0.0000
15.0000 3.0000 0.0000
17.0000 3.0000 0.0000
19.0000 3.0000 0.0000
21.0000 3.0000 0.0000
23.0000 3.0000 0.0000
25.0000 3.0000 0.0000
27.0000 3.0000 0.0000
29.0000 3.0000 0.0000
31.0000 3.0000 0.0000
33.0000 3.0000 0.0000
35.0000 3.0000 0.0000
37.0000 3.0000 0.0000
39.0000 3.0000 0.0000
41.0000 3.0000 0.0000
43.0000 3.0000 0.0000
45.0000 3.0000 0.0000
47.0000 3.0000 0.0000
49.0000 3.0000 0.0000
51.0000 3.0000 0.0000
53.0000 3.0000 0.0000
55.0000 3.0000 0.0000
1.0000 5.0000 0.0000
-1.0000 5.0000 0.0000
3.0000 5.0000 0.0000
5.0000 5.0000 0.0000
7.0000 5.0000 0.0000
9.0000 5.0000 0.0000
11.0000 5.0000 0.0000
13.0000 5.0000 0.0000
15.0000 5.0000 0.0000
17.0000 5.0000 0.0000
19.0000 5.0000 0.0000
21.0000 5.0000 0.0000
23.0000 5.0000 0.0000
25.0000 5.0000 0.0000
27.0000 5.0000 0.0000
29.0000 5.0000 0.0000
31.0000 5.0000 0.0000
33.0000 5.0000 0.0000
35.0000 5.0000 0.0000
37.0000 5.0000 0.0000
39.0000 5.0000 0.0000
41.0000 5.0000 0.0000
43.0000 5.0000 0.0000
45.0000 5.0000 0.0000
47.0000 5.0000 0.0000
49.0000 5.0000 0.0000
51.0000 5.0000 0.0000
53.0000 5.0000 0.0000
55.0000 5.0000 0.0000
1.0000 7.0000 0.0000
-1.0000 7.0000 0.0000
3.0000 7.0000 0.0000
5.0000 7.0000 0.0000
7.0000 7.0000 0.0000
9.0000 7.0000 0.0000
11.0000 7.0000 0.0000
13.0000 7.0000 0.0000
15.0000 7.0000 0.0000
17.0000 7.0000 0.0000
19.0000 7.0000 0.0000
21.0000 7.0000 0.0000
23.0000 7.0000 0.0000
25.0000 7.0000 0.0000
27.0000 7.0000 0.0000
29.0000 7.0000 0.0000
31.0000 7.0000 0.0000
33.0000 7.0000 0.0000
35.0000 7.0000 0.0000
37.0000 7.0000 0.0000
39.0000 7.0000 0.0000
41.0000 7.0000 0.0000
43.0000 7.0000 0.0000
45.0000 7.0000 0.0000
47.0000 7.0000 0.0000
49.0000 7.0000 0.0000
51.0000 7.0000 0.0000
53.0000 7.0000 0.0000
55.0000 7.0000 0.0000
1.0000 9.0000 0.0000
-1.0000 9.0000 0.0000
3.0000 9.0000 0.0000
5.0000 9.0000 0.0000
7.0000 9.0000 0.0000
9.0000 9.0000 0.0000
11.0000 9.0000 0.0000
13.0000 9.0000 0.0000
15.0000 9.0000 0.0000
17.0000 9.0000 0.0000
19.0000 9.0000 0.0000
21.0000 9.0000 0.0000
23.0000 9.0000 0.0000
25.0000 9.0000 0.0000
27.0000 9.0000 0.0000
29.0000 9.0000 0.0000
31.0000 9.0000 0.0000
33.0000 9.0000 0.0000
35.0000 9.0000 0.0000
37.0000 9.0000 0.0000
39.0000 9.0000 0.0000
41.0000 9.0000 0.0000
43.0000 9.0000 0.0000
45.0000 9.0000 0.0000
47.0000 9.0000 0.0000
49.0000 9.0000 0.0000
51.0000 9.0000 0.0000
53.0000 9.0000 0.0000
55.0000 9.0000 0.0000
1.0000 11.0000 0.0000
-1.0000 11.0000 0.0000
3.0000 11.0000 0.0000
5.0000 11.0000 0.0000
7.0000 11.0000 0.0000
9.0000 11.0000 0.0000
11.0000 11.0000 0.0000
13.0000 11.0000 0.0000
15.0000 11.0000 0.0000
17.0000 11.0000 0.0000
19.0000 11.0000 0.0000
21.0000 11.0000 0.0000
23.0000 11.0000 0.0000
25.0000 11.0000 0.0000
27.0000 11.0000 0.0000
29.0000 11.0000 0.0000
31.0000 11.0000 0.0000
33.0000 11.0000 0.0000
35.0000 11.0000 0.0000
37.0000 11.0000 0.0000
39.0000 11.0000 0.0000
41.0000 11.0000 0.0000
43.0000 11.0000 0.0000
45.0000 11.0000 0.0000
47.0000 11.0000 0.0000
49.0000 11.0000 0.0000
51.0000 11.0000 0.0000
53.0000 11.0000 0.0000
55.0000 11.0000 0.0000
1.0000 13.0000 0.0000
-1.0000 13.0000 0.0000
3.0000 13.0000 0.0000
5.0000 13.0000 0.0000
7.0000 13.0000 0.0000
9.0000 13.0000 0.0000
11.0000 13.0000 0.0000
13.0000 13.0000 0.0000
15.0000 13.0000 0.0000
17.0000 13.0000 0.0000
19.0000 13.0000 0.0000
21.0000 13.0000 0.0000
23.0000 13.0000 0.0000
25.0000 13.0000 0.0000
27.0000 13.0000 0.0000
29.0000 13.0000 0.0000
31.0000 13.0000 0.0000
33.0000 13.0000 0.0000
35.0000 13.0000 0.0000
37.0000 13.0000 0.0000
39.0000 13.0000 0.0000
41.0000 13.0000 0.0000
43.0000 13.0000 0.0000
45.0000 13.0000 0.0000
47.0000 13.0000 0.0000
49.0000 13.0000 0.0000
51.0000 13.0000 0.0000
53.0000 13.0000 0.0000
55.0000 13.0000 0.0000
1.0000 15.0000 0.0000
-1.0000 15.0000 0.0000
3.0000 15.0000 0.0000
5.0000 15.0000 0.0000
7.0000 15.0000 0.0000
9.0000 15.0000 0.0000
11.0000 15.0000 0.0000
13.0000 15.0000 0.0000
15.0000 15.0000 0.0000
17.0000 15.0000 0.0000
19.0000 15.0000 0.0000
21.0000 15.0000 0.0000
23.0000 15.0000 0.0000
25.0000 15.0000 0.0000
27.0000 15.0000 0.0000
29.0000 15.0000 0.0000
31.0000 15.0000 0.0000
33.0000 15.0000 0.0000
35.0000 15.0000 0.0000
37.0000 15.0000 0.0000
39.0000 15.0000 0.0000
41.0000 15.0000 0.0000
43.0000 15.0000 0.0000
45.0000 15.0000 0.0000
47.0000 15.0000 0.0000
49.0000 15.0000 0.0000
51.0000 15.0000 0.0000
53.0000 15.0000 0.0000
55.0000 15.0000 0.0000
1.0000 17.0000 0.0000
-1.0000 17.0000 0.0000
3.0000 17.0000 0.0000
5.0000 17.0000 0.0000
7.0000 17.0000 0.0000
9.0000 17.0000 0.0000
11.0000 17.0000 0.0000
13.0000 17.0000 0.0000
15.0000 17.0000 0.0000
17.0000 17.0000 0.0000
19.0000 17.0000 0.0000
21.0000 17.0000 0.0000
23.0000 17.0000 0.0000
25.0000 17.0000 0.0000
27.0000 17.0000 0.0000
29.0000 17.0000 0.0000
31.0000 17.0000 0.0000
33.0000 17.0000 0.0000
35.0000 17.0000 0.0000
37.0000 17.0000 0.0000
39.0000 17.0000 0.0000
41.0000 17.0000 0.0000
43.0000 17.0000 0.0000
45.0000 17.0000 0.0000
47.0000 17.0000 0.0000
49.0000 17.0000 0.0000
51.0000 17.0000 0.0000
53.0000 17.0000 0.0000
55.0000 17.0000 0.0000
1.0000 19.0000 0.0000
-1.0000 19.0000 0.0000
3.0000 19.0000 0.0000
5.0000 19.0000 0.0000
7.0000 19.0000 0.0000
9.0000 19.0000 0.0000
11.0000 19.0000 0.0000
13.0000 19.0000 0.0000
15.0000 19.0000 0.0000
17.0000 19.0000 0.0000
19.0000 19.0000 0.0000
21.0000 19.0000 0.0000
23.0000 19.0000 0.0000
25.0000 19.0000 0.0000
27.0000 19.0000 0.0000
29.0000 19.0000 0.0000
31.0000 19.0000 0.0000
33.0000 19.0000 0.0000
35.0000 19.0000 0.0000
37.0000 19.0000 0.0000
39.0000 19.0000 0.0000
41.0000 19.0000 0.0000
43.0000 19.0000 0.0000
45.0000 19.0000 0.0000
47.0000 19.0000 0.0000
49.0000 19.0000 0.0000
51.0000 19.0000 0.0000
53.0000 19.0000 0.0000
55.0000 19.0000 0.0000
1.0000 21.0000 0.0000
-1.0000 21.0000 0.0000
3.0000 21.0000 0.0000
5.0000 21.0000 0.0000
7.0000 21.0000 0.0000
9.0000 21.0000 0.0000
11.0000 21.0000 0.0000
13.0000 21.0000 0.0000
15.0000 21.0000 0.0000
17.0000 21.0000 0.0000
19.0000 21.0000 0.0000
21.0000 21.0000 0.0000
23.0000 21.0000 0.0000
25.0000 21.0000 0.0000
27.0000 21.0000 0.0000
29.0000 21.0000 0.0000
31.0000 21.0000 0.0000
33.0000 21.0000 0.0000
35.0000 21.0000 0.0000
37.0000 21.0000 0.0000
39.0000 21.0000 0.0000
41.0000 21.0000 0.0000
43.0000 21.0000 0.0000
45.0000 21.0000 0.0000
47.0000 21.0000 0.0000
49.0000 21.0000 0.0000
51.0000 21.0000 0.0000
53.0000 21.0000 0.0000
55.0000 21.0000 0.0000
1.0000 23.0000 0.0000
-1.0000 23.0000 0.0000
3.0000 23.0000 0.0000
5.0000 23.0000 0.0000
7.0000 23.0000 0.0000
9.0000 23.0000 0.0000
11.0000 23.0000 0.0000
13.0000 23.0000 0.0000
15.0000 23.0000 0.0000
17.0000 23.0000 0.0000
19.0000 23.0000 0.0000
21.0000 23.0000 0.0000
23.0000 23.0000 0.0000
25.0000 23.0000 0.0000
27.0000 23.0000 0.0000
29.0000 23.0000 0.0000
31.0000 23.0000 0.0000
33.0000 23.0000 0.0000
35.0000 23.0000 0.0000
37.0000 23.0000 0.0000
39.0000 23.0000 0.0000
41.0000 23.0000 0.0000
43.0000 23.0000 0.0000
45.0000 23.0000 0.0000
47.0000 23.0000 0.0000
49.0000 23.0000 0.0000
51.0000 23.0000 0.0000
53.0000 23.0000 0.0000
55.0000 23.0000 0.0000
1.0000 25.0000 0.0000
-1.0000 25.0000 0.0000
3.0000 25.0000 0.0000
5.0000 25.0000 0.0000
7.0000 25.0000 0.0000
9.0000 25.0000 0.0000
11.0000 25.0000 0.0000
13.0000 25.0000 0.0000
15.0000 25.0000 0.0000
17.0000 25.0000 0.0000
19.0000 25.0000 0.0000
21.0000 25.0000 0.0000
23.0000 25.0000 0.0000
25.0000 25.0000 0.0000
27.0000 25.0000 0.0000
29.0000 25.0000 0.0000
31.0000 25.0000 0.0000
33.0000 25.0000 0.0000
35.0000 25.0000 0.0000
37.0000 25.0000 0.0000
39.0000 25.0000 0.0000
41.0000 25.0000 0.0000
43.0000 25.0000 0.0000
45.0000 25.0000 0.0000
47.0000 25.0000 0.0000
49.0000 25.0000 0.0000
51.0000 25.0000 0.0000
53.0000 25.0000 0.0000
55.0000 25.0000 0.0000
1.0000 27.0000 0.0000
-1.0000 27.0000 0.0000
3.0000 27.0000 0.0000
5.0000 27.0000 0.0000
7.0000 27.0000 0.0000
9.0000 27.0000 0.0000
11.0000 27.0000 0.0000
13.0000 27.0000 0.0000
15.0000 27.0000 0.0000
17.0000 27.0000 0.0000
19.0000 27.0000 0.0000
21.0000 27.0000 0.0000
23.0000 27.0000 0.0000
25.0000 27.0000 0.0000
27.0000 27.0000 0.0000
29.0000 27.0000 0.0000
31.0000 27.0000 0.0000
33.0000 27.0000 0.0000
35.0000 27.0000 0.0000
37.0000 27.0000 0.0000
39.0000 27.0000 0.0000
41.0000 27.0000 0.0000
43.0000 27.0000 0.0000
45.0000 27.0000 0.0000
47.0000 27.0000 0.0000
49.0000 27.0000 0.0000
51.0000 27.0000 0.0000
53.0000 27.0000 0.0000
55.0000 27.0000 0.0000</DataArray>
         </Points>
         <Cells>
            <DataArray Name="connectivity" format="ascii" type="Int32">
 1 2 3 0
 4 5 2 1
 6 7 5 4
 8 9 7 6
 10 11 9 8
 12 13 11 10
 14 15 13 12
 16 17 15 14
 18 19 17 16
 20 21 19 18
 22 23 21 20
 24 25 23 22
 26 27 25 24
 28 29 27 26
 30 31 29 28
 32 33 31 30
 34 35 33 32
 36 37 35 34
 38 39 37 36
 40 41 39 38
 42 43 41 40
 44 45 43 42
 46 47 45 44
 48 49 47 46
 50 51 49 48
 52 53 51 50
 54 55 53 52
 56 57 55 54
 2 58 59 3
 5 60 58 2
 7 61 60 5
 9 62 61 7
 11 63 62 9
 13 64 63 11
 15 65 64 13
 17 66 65 15
 19 67 66 17
 21 68 67 19
 23 69 68 21
 25 70 69 23
 27 71 70 25
 29 72 71 27
 31 73 72 29
 33 74 73 31
 35 75 74 33
 37 76 75 35
 39 77 76 37
 41 78 77 39
 43 79 78 41
 45 80 79 43
 47 81 80 45
 49 82 81 47
 51 83 82 49
 53 84 83 51
 55 85 84 53
 57 86 85 55
 58 87 88 59
 60 89 87 58
 61 90 89 60
 62 91 90 61
 63 92 91 62
 64 93 92 63
 65 94 93 64
 66 95 94 65
 67 96 95 66
 68 97 96 67
 69 98 97 68
 70 99 98 69
 71 100 99 70
 72 101 100 71
 73 102 101 72
 74 103 102 73
 75 104 103 74
 76 105 104 75
 77 106 105 76
 78 107 106 77
 79 108 107 78
 80 109 108 79
 81 110 109 80
 82 111 110 81
 83 112 111 82
 84 113 112 83
 85 114 113 84
 86 115 114 85
 87 116 117 88
 89 118 116 87
 90 119 118 89
 91 120 119 90
 92 121 120 91
 93 122 121 92
 94 123 122 93
 95 124 123 94
 96 125 124 95
 97 126 125 96
 98 127 126 97
 99 128 127 98
 100 129 128 99
 101 130 129 100
 102 131 130 101
 103 132 131 102
 104 133 132 103
 105 134 133 104
 106 135 134 105
 107 136 135 106
 108 137 136 107
 109 138 137 108
 110 139 138 109
 111 140 139 110
 112 141 140 111
 113 142 141 112
 114 143 142 113
 115 144 143 114
 116 145 146 117
 118 147 145 116
 119 148 147 118
 120 149 148 119
 121 150 149 120
 122 151 150 121
 123 152 151 122
 124 153 152 123
 125 154 153 124
 126 155 154 125
 127 156 155 126
 128 157 156 127
 129 158 157 128
 130 159 158 129
 131 160 159 130
 132 161 160 131
 133 162 161 132
 134 163 162 133
 135 164 163 134
 136 165 164 135
 137 166 165 136
 138 167 166 137
 139 168 167 138
 140 169 168 139
 141 170 169 140
 142 171 170 141
 143 172 171 142
 144 173 172 143
 145 174 175 146
 147 176 174 145
 148 177 176 147
 149 178 177 148
 150 179 178 149
 151 180 179 150
 152 181 180 151
 153 182 181 152
 154 183 182 153
 155 184 183 154
 156 185 184 155
 157 186 185 156
 158 187 186 157
 159 188 187 158
 160 189 188 159
 161 190 189 160
 162 191 190 161
 163 192 191 162
 164 193 192 163
 165 194 193 164
 166 195 194 165
 167 196 195 166
 168 197 196 167
 169 198 197 168
 170 199 198 169
 171 200 199 170
 172 201 200 171
 173 202 201 172
 174 203 204 175
 176 205 203 174
 177 206 205 176
 178 207 206 177
 179 208 207 178
 180 209 208 179
 181 210 209 180
 182 211 210 181
 183 212 211 182
 184 213 212 183
 185 214 213 184
 186 215 214 185
 187 216 215 186
 188 217 216 187
 189 218 217 188
 190 219 218 189
 191 220 219 190
 192 221 220 191
 193 222 221 192
 194 223 222 193
 195 224 223 194
 196 225 224 195
 197 226 225 196
 198 227 226 197
 199 228 227 198
 200 229 228 199
 201 230 229 200
 202 231 230 201
 203 232 233 204
 205 234 232 203
 206 235 234 205
 207 236 235 206
 208 237 236 207
 209 238 237 208
 210 239 238 209
 211 240 239 210
 212 241 240 211
 213 242 241 212
 214 243 242 213
 215 244 243 214
 216 245 244 215
 217 246 245 216
 218 247 246 217
 219 248 247 218
 220 249 248 219
 221 250 249 220
 222 251 250 221
 223 252 251 222
 224 253 252 223
 225 254 253 224
 226 255 254 225
 227 256 255 226
 228 257 256 227
 229 258 257 228
 230 259 258 229
 231 260 259 230
 232 261 262 233
 234 263 261 232
 235 264 263 234
 236 265 264 235
 237 266 265 236
 238 267 266 237
 239 268 267 238
 240 269 268 239
 241 270 269 240
 242 271 270 241
 243 272 271 242
 244 273 272 243
 245 274 273 244
 246 275 274 245
 247 276 275 246
 248 277 276 247
 249 278 277 248
 250 279 278 249
 251 280 279 250
 252 281 280 251
 253 282 281 252
 254 283 282 253
 255 284 283 254
 256 285 284 255
 257 286 285 256
 258 287 286 257
 259 288 287 258
 260 289 288 259
 261 290 291 262
 263 292 290 261
 264 293 292 263
 265 294 293 264
 266 295 294 265
 267 296 295 266
 268 297 296 267
 269 298 297 268
 270 299 298 269
 271 300 299 270
 272 301 300 271
 273 302 301 272
 274 303 302 273
 275 304 303 274
 276 305 304 275
 277 306 305 276
 278 307 306 277
 279 308 307 278
 280 309 308 279
 281 310 309 280
 282 311 310 281
 283 312 311 282
 284 313 312 283
 285 314 313 284
 286 315 314 285
 287 316 315 286
 288 317 316 287
 289 318 317 288
 290 319 320 291
 292 321 319 290
 293 322 321 292
 294 323 322 293
 295 324 323 294
 296 325 324 295
 297 326 325 296
 298 327 326 297
 299 328 327 298
 300 329 328 299
 301 330 329 300
 302 331 330 301
 303 332 331 302
 304 333 332 303
 305 334 333 304
 306 335 334 305
 307 336 335 306
 308 337 336 307
 309 338 337 308
 310 339 338 309
 311 340 339 310
 312 341 340 311
 313 342 341 312
 314 343 342 313
 315 344 343 314
 316 345 344 315
 317 346 345 316
 318 347 346 317
 319 348 349 320
 321 350 348 319
 322 351 350 321
 323 352 351 322
 324 353 352 323
 325 354 353 324
 326 355 354 325
 327 356 355 326
 328 357 356 327
 329 358 357 328
 330 359 358 329
 331 360 359 330
 332 361 360 331
 333 362 361 332
 334 363 362 333
 335 364 363 334
 336 365 364 335
 337 366 365 336
 338 367 366 337
 339 368 367 338
 340 369 368 339
 341 370 369 340
 342 371 370 341
 343 372 371 342
 344 373 372 343
 345 374 373 344
 346 375 374 345
 347 376 375 346
 348 377 378 349
 350 379 377 348
 351 380 379 350
 352 381 380 351
 353 382 381 352
 354 383 382 353
 355 384 383 354
 356 385 384 355
 357 386 385 356
 358 387 386 357
 359 388 387 358
 360 389 388 359
 361 390 389 360
 362 391 390 361
 363 392 391 362
 364 393 392 363
 365 394 393 364
 366 395 394 365
 367 396 395 366
 368 397 396 367
 369 398 397 368
 370 399 398 369
 371 400 399 370
 372 401 400 371
 373 402 401 372
 374 403 402 373
 375 404 403 374
 376 405 404 375
 377 406 407 378
 379 408 406 377
 380 409 408 379
 381 410 409 380
 382 411 410 381
 383 412 411 382
 384 413 412 383
 385 414 413 384
 386 415 414 385
 387 416 415 386
 388 417 416 387
 389 418 417 388
 390 419 418 389
 391 420 419 390
 392 421 420 391
 393 422 421 392
 394 423 422 393
 395 424 423 394
 396 425 424 395
 397 426 425 396
 398 427 426 397
 399 428 427 398
 400 429 428 399
 401 430 429 400
 402 431 430 401
 403 432 431 402
 404 433 432 403
 405 434 433 404</DataArray>
            <DataArray Name="offsets" format="ascii" type="Int32">4 8 12 16 20 24 28 32 36 40 44 48 52 56 60 64 68 72 76 80 84 88 92 96 100 104 108 112 116 120 124 128 132 136 140 144 148 152 156 160 164 168 172 176 180 184 188 192 196 200 204 208 212 216 220 224 228 232 236 240 244 248 252 256 260 264 268 272 276 280 284 288 292 296 300 304 308 312 316 320 324 328 332 336 340 344 348 352 356 360 364 368 372 376 380 384 388 392 396 400 404 408 412 416 420 424 428 432 436 440 444 448 452 456 460 464 468 472 476 480 484 488 492 496 500 504 508 512 516 520 524 528 532 536 540 544 548 552 556 560 564 568 572 576 580 584 588 592 596 600 604 608 612 616 620 624 628 632 636 640 644 648 652 656 660 664 668 672 676 680 684 688 692 696 700 704 708 712 716 720 724 728 732 736 740 744 748 752 756 760 764 768 772 776 780 784 788 792 796 800 804 808 812 816 820 824 828 832 836 840 844 848 852 856 860 864 868 872 876 880 884 888 892 896 900 904 908 912 916 920 924 928 932 936 940 944 948 952 956 960 964 968 972 976 980 984 988 992 996 1000 1004 1008 1012 1016 1020 1024 1028 1032 1036 1040 1044 1048 1052 1056 1060 1064 1068 1072 1076 1080 1084 1088 1092 1096 1100 1104 1108 1112 1116 1120 1124 1128 1132 1136 1140 1144 1148 1152 1156 1160 1164 1168 1172 1176 1180 1184 1188 1192 1196 1200 1204 1208 1212 1216 1220 1224 1228 1232 1236 1240 1244 1248 1252 1256 1260 1264 1268 1272 1276 1280 1284 1288 1292 1296 1300 1304 1308 1312 1316 1320 1324 1328 1332 1336 1340 1344 1348 1352 1356 1360 1364 1368 1372 1376 1380 1384 1388 1392 1396 1400 1404 1408 1412 1416 1420 1424 1428 1432 1436 1440 1444 1448 1452 1456 1460 1464 1468 1472 1476 1480 1484 1488 1492 1496 1500 1504 1508 1512 1516 1520 1524 1528 1532 1536 1540 1544 1548 1552 1556 1560 1564 1568 </DataArray>
            <DataArray Name="types" format="ascii" type="UInt8">9 9 9 9 9 9 9 9 9 9 9 9 9 9 9 9 9 9 9 9 9 9 9 9 9 9 9 9 9 9 9 9 9 9 9 9 9 9 9 9 9 9 9 9 9 9 9 9 9 9 9 9 9 9 9 9 9 9 9 9 9 9 9 9 9 9 9 9 9 9 9 9 9 9 9 9 9 9 9 9 9 9 9 9 9 9 9 9 9 9 9 9 9 9 9 9 9 9 9 9 9 9 9 9 9 9 9 9 9 9 9 9 9 9 9 9 9 9 9 9 9 9 9 9 9 9 9 9 9 9 9 9 9 9 9 9 9 9 9 9 9 9 9 9 9 9 9 9 9 9 9 9 9 9 9 9 9 9 9 9 9 9 9 9 9 9 9 9 9 9 9 9 9 9 9 9 9 9 9 9 9 9 9 9 9 9 9 9 9 9 9 9 9 9 9 9 9 9 9 9 9 9 9 9 9 9 9 9 9 9 9 9 9 9 9 9 9 9 9 9 9 9 9 9 9 9 9 9 9 9 9 9 9 9 9 9 9 9 9 9 9 9 9 9 9 9 9 9 9 9 9 9 9 9 9 9 9 9 9 9 9 9 9 9 9 9 9 9 9 9 9 9 9 9 9 9 9 9 9 9 9 9 9 9 9 9 9 9 9 9 9 9 9 9 9 9 9 9 9 9 9 9 9 9 9 9 9 9 9 9 9 9 9 9 9 9 9 9 9 9 9 9 9 9 9 9 9 9 9 9 9 9 9 9 9 9 9 9 9 9 9 9 9 9 9 9 9 9 9 9 9 9 9 9 9 9 9 9 9 9 9 9 9 9 9 9 9 9 9 9 9 9 9 9 9 9 9 9 9 9 9 9 9 9 9 9 9 9 9 9 9 9 </DataArray>
         </Cells>
         <PointData/>
         <CellData>
            <DataArray Name="fValues" NumberOfComponents="1" format="ascii" type="Float64">
 3.67765e+00 
 3.67765e+00 
 3.67765e+00 
 3.67765e+00 
 3.67765e+00 
 3.67765e+00 
 3.67765e+00 
 3.67765e+00 
 3.67765e+00 
 3.67765e+00 
 3.67765e+00 
 3.67765e+00 
 3.67765e+00 
 3.67765e+00 
 3.67765e+00 
 3.67765e+00 
 2.77428e+00 
 2.77428e+00 
 2.77428e+00 
 2.77428e+00 
 1.23452e+00 
 1.00581e+00 
 8.40558e-01 
 8.40558e-01 
 8.40558e-01 
 8.40558e-01 
 8.40558e-01 
 8.40558e-01 
 3.67765e+00 
 3.67765e+00 
 3.67765e+00 
 3.67765e+00 
 3.67765e+00 
 3.67765e+00 
 3.67765e+00 
 3.67765e+00 
 3.67765e+00 
 3.67765e+00 
 2.77428e+00 
 2.77428e+00 
 2.77428e+00 
 2.77428e+00 
 2.77428e+00 
 2.77428e+00 
 2.77428e+00 
 2.77428e+00 
 2.77428e+00 
 2.77428e+00 
 2.77428e+00 
 8.40558e-01 
 8.40558e-01 
 8.40558e-01 
 8.40558e-01 
 8.40558e-01 
 8.40558e-01 
 8.40558e-01 
 3.67765e+00 
 3.67765e+00 
 3.67765e+00 
 3.67765e+00 
 3.67765e+00 
 2.77428e+00 
 2.77428e+00 
 2.77428e+00 
 2.77428e+00 
 2.77428e+00 
 2.77428e+00 
 2.77428e+00 
 2.77428e+00 
 2.77428e+00 
 2.77428e+00 
 2.77428e+00 
 2.77428e+00 
 2.77428e+00 
 2.77428e+00 
 2.77428e+00 
 2.77428e+00 
 2.77428e+00 
 2.77428e+00 
 8.40558e-01 
 8.40558e-01 
 8.40558e-01 
 8.40558e-01 
 8.40558e-01 
 2.77428e+00 
 2.77428e+00 
 2.77428e+00 
 2.77428e+00 
 2.77428e+00 
 2.77428e+00 
 2.77428e+00 
 2.77428e+00 
 2.77428e+00 
 2.77428e+00 
 2.77428e+00 
 2.77428e+00 
 2.77428e+00 
 2.77428e+00 
 1.87545e+00 
 2.77428e+00 
 2.77428e+00 
 8.40558e-01 
 2.77428e+00 
 2.77428e+00 
 2.77428e+00 
 2.77428e+00 
 2.77428e+00 
 2.77428e+00 
 2.77428e+00 
 8.40558e-01 
 8.40558e-01 
 8.40558e-01 
 8.40558e-01 
 8.40558e-01 
 2.77428e+00 
 2.77428e+00 
 2.77428e+00 
 2.77428e+00 
 2.77428e+00 
 2.77428e+00 
 2.77428e+00 
 2.77428e+00 
 2.77428e+00 
 2.77428e+00 
 2.77428e+00 
 2.77428e+00 
 2.77428e+00 
 8.40558e-01 
 8.40558e-01 
 2.77428e+00 
 8.40558e-01 
 8.40558e-01 
 2.36711e+00 
 2.77428e+00 
 2.77428e+00 
 2.77428e+00 
 2.77428e+00 
 2.77428e+00 
 8.40558e-01 
 2.77428e+00 
 8.40558e-01 
 8.40558e-01 
 8.40558e-01 
 8.40558e-01 
 8.40558e-01 
 2.77428e+00 
 2.77428e+00 
 2.77428e+00 
 2.77428e+00 
 2.77428e+00 
 2.77428e+00 
 2.77428e+00 
 2.77428e+00 
 2.77428e+00 
 2.77428e+00 
 2.77428e+00 
 2.77428e+00 
 8.40558e-01 
 2.77428e+00 
 8.40558e-01 
 8.40558e-01 
 8.40558e-01 
 2.77428e+00 
 2.77428e+00 
 2.77428e+00 
 2.77428e+00 
 2.77428e+00 
 2.77428e+00 
 8.40558e-01 
 8.40558e-01 
 8.40558e-01 
 8.40558e-01 
 8.40558e-01 
 8.40558e-01 
 2.71219e+00 
 2.77428e+00 
 2.77428e+00 
 2.77428e+00 
 2.77428e+00 
 2.77428e+00 
 2.77428e+00 
 2.66708e+00 
 2.75185e+00 
 2.77428e+00 
 2.77428e+00 
 2.77428e+00 
 8.40558e-01 
 8.40558e-01 
 8.40558e-01 
 8.40558e-01 
 8.40558e-01 
 8.40558e-01 
 2.77428e+00 
 2.77428e+00 
 2.77428e+00 
 2.85757e+00 
 8.40558e-01 
 8.40558e-01 
 8.40558e-01 
 8.40558e-01 
 8.40558e-01 
 8.40558e-01 
 2.71219e+00 
 2.77428e+00 
 2.77428e+00 
 2.77428e+00 
 2.77428e+00 
 2.77428e+00 
 2.77428e+00 
 2.66708e+00 
 2.75185e+00 
 2.77428e+00 
 2.77428e+00 
 2.77428e+00 
 8.40558e-01 
 8.40558e-01 
 8.40558e-01 
 8.40558e-01 
 8.40558e-01 
 8.40558e-01 
 2.77428e+00 
 2.77428e+00 
 2.77428e+00 
 2.85757e+00 
 8.40558e-01 
 8.40558e-01 
 8.40558e-01 
 8.40558e-01 
 8.40558e-01 
 2.77428e+00 
 2.77428e+00 
 2.77428e+00 
 2.77428e+00 
 2.77428e+00 
 2.77428e+00 
 2.77428e+00 
 2.77428e+00 
 2.77428e+00 
 2.77428e+00 
 2.77428e+00 
 2.77428e+00 
 8.40558e-01 
 2.77428e+00 
 8.40558e-01 
 8.40558e-01 
 8.40558e-01 
 2.77428e+00 
 2.77428e+00 
 2.77428e+00 
 2.77428e+00 
 2.77428e+00 
 2.77428e+00 
 8.40558e-01 
 8.40558e-01 
 2.77428e+00 
 2.77428e+00 
 2.77428e+00 
 2.77428e+00 
 2.77428e+00 
 2.77428e+00 
 2.77428e+00 
 2.77428e+00 
 2.77428e+00 
 2.77428e+00 
 2.77428e+00 
 2.77428e+00 
 2.77428e+00 
 8.40558e-01 
 8.40558e-01 
 2.77428e+00 
 8.40558e-01 
 8.40558e-01 
 2.36711e+00 
 2.77428e+00 
 2.77428e+00 
 2.77428e+00 
 2.77428e+00 
 2.77428e+00 
 8.40558e-01 
 2.77428e+00 
 2.77428e+00 
 2.77428e+00 
 2.77428e+00 
 2.77428e+00 
 2.77428e+00 
 2.77428e+00 
 2.77428e+00 
 2.77428e+00 
 2.77428e+00 
 2.77428e+00 
 2.77428e+00 
 2.77428e+00 
 2.77428e+00 
 2.77428e+00 
 1.87545e+00 
 2.77428e+00 
 2.77428e+00 
 8.40558e-01 
 2.77428e+00 
 2.77428e+00 
 2.77428e+00 
 2.77428e+00 
 2.77428e+00 
 2.77428e+00 
 2.77428e+00 
 8.40558e-01 
 8.40558e-01 
 8.40558e-01 
 3.67765e+00 
 3.67765e+00 
 3.67765e+00 
 3.67765e+00 
 3.67765e+00 
 2.77428e+00 
 2.77428e+00 
 2.77428e+00 
 2.77428e+00 
 2.77428e+00 
 2.77428e+00 
 2.77428e+00 
 2.77428e+00 
 2.77428e+00 
 2.77428e+00 
 2.77428e+00 
 2.77428e+00 
 2.77428e+00 
 2.77428e+00 
 2.77428e+00 
 2.77428e+00 
 2.77428e+00 
 2.77428e+00 
 8.40558e-01 
 8.40558e-01 
 8.40558e-01 
 8.40558e-01 
 8.40558e-01 
 3.67765e+00 
 3.67765e+00 
 3.67765e+00 
 3.67765e+00 
 3.67765e+00 
 3.67765e+00 
 3.67765e+00 
 3.67765e+00 
 3.67765e+00 
 3.67765e+00 
 2.77428e+00 
 2.77428e+00 
 2.77428e+00 
 2.77428e+00 
 2.77428e+00 
 2.77428e+00 
 2.77428e+00 
 2.77428e+00 
 2.77428e+00 
 2.77428e+00 
 2.77428e+00 
 8.40558e-01 
 8.40558e-01 
 8.40558e-01 
 8.40558e-01 
 8.40558e-01 
 8.40558e-01 
 8.40558e-01 
 3.67765e+00 
 3.67765e+00 
 3.67765e+00 
 3.67765e+00 
 3.67765e+00 
 3.67765e+00 
 3.67765e+00 
 3.67765e+00 
 3.67765e+00 
 3.67765e+00 
 3.67765e+00 
 3.67765e+00 
 3.67765e+00 
 3.67765e+00 
 3.67765e+00 
 3.67765e+00 
 2.77428e+00 
 2.77428e+00 
 2.77428e+00 
 2.77428e+00 
 1.23452e+00 
 1.00581e+00 
 8.40558e-01 
 8.40558e-01 
 8.40558e-01 
 8.40558e-01 
 8.40558e-01 
 8.40558e-01 </DataArray>
         </CellData>
      </Piece>
   </UnstructuredGrid>
</VTKFile>