<?xml version="1.0" encoding="utf-8"?>
<VTKFile byte_order="LittleEndian" type="UnstructuredGrid" version="0.1">
   <UnstructuredGrid>
      <Piece NumberOfCells="800" NumberOfPoints="861">
         <Points>
            <DataArray Name="Points" NumberOfComponents="3" format="ascii" type="Float32">
2.0000 0.0000 0.0000
2.0000 0.0250 0.0000
2.0000 0.0500 0.0000
2.0000 0.0750 0.0000
2.0000 0.1000 0.0000
1.9000 0.0000 0.0000
1.9000 0.0250 0.0000
1.9000 0.0500 0.0000
2.0000 0.1250 0.0000
1.9000 0.0750 0.0000
1.9000 0.1000 0.0000
2.0000 0.1500 0.0000
1.9000 0.1250 0.0000
2.0000 0.1750 0.0000
1.9000 0.1500 0.0000
1.8000 0.0000 0.0000
2.0000 0.2000 0.0000
1.9000 0.1750 0.0000
1.8000 0.0250 0.0000
1.8000 0.0500 0.0000
1.8000 0.0750 0.0000
1.8000 0.1000 0.0000
1.9000 0.2000 0.0000
2.0000 0.2250 0.0000
1.8000 0.1250 0.0000
1.9000 0.2250 0.0000
2.0000 0.2500 0.0000
1.8000 0.1500 0.0000
1.8000 0.1750 0.0000
1.9000 0.2500 0.0000
2.0000 0.2750 0.0000
1.8000 0.2000 0.0000
1.9000 0.2750 0.0000
2.0000 0.3000 0.0000
1.7000 0.0000 0.0000
1.7000 0.0250 0.0000
1.8000 0.2250 0.0000
1.7000 0.0500 0.0000
1.7000 0.0750 0.0000
1.9000 0.3000 0.0000
1.7000 0.1000 0.0000
1.8000 0.2500 0.0000
2.0000 0.3250 0.0000
1.7000 0.1250 0.0000
1.7000 0.1500 0.0000
1.9000 0.3250 0.0000
1.8000 0.2750 0.0000
1.7000 0.1750 0.0000
2.0000 0.3500 0.0000
1.7000 0.2000 0.0000
1.8000 0.3000 0.0000
1.9000 0.3500 0.0000
1.7000 0.2250 0.0000
2.0000 0.3750 0.0000
1.8000 0.3250 0.0000
1.9000 0.3750 0.0000
1.7000 0.2500 0.0000
1.6000 0.0000 0.0000
2.0000 0.4000 0.0000
1.6000 0.0250 0.0000
1.8000 0.3500 0.0000
1.6000 0.0500 0.0000
1.7000 0.2750 0.0000
1.6000 0.0750 0.0000
1.6000 0.1000 0.0000
1.9000 0.4000 0.0000
1.6000 0.1250 0.0000
1.7000 0.3000 0.0000
2.0000 0.4250 0.0000
1.8000 0.3750 0.0000
1.6000 0.1500 0.0000
1.9000 0.4250 0.0000
1.6000 0.1750 0.0000
1.7000 0.3250 0.0000
1.8000 0.4000 0.0000
1.6000 0.2000 0.0000
2.0000 0.4500 0.0000
1.6000 0.2250 0.0000
1.9000 0.4500 0.0000
1.7000 0.3500 0.0000
1.8000 0.4250 0.0000
1.6000 0.2500 0.0000
2.0000 0.4750 0.0000
1.7000 0.3750 0.0000
1.9000 0.4750 0.0000
1.6000 0.2750 0.0000
1.8000 0.4500 0.0000
1.7000 0.4000 0.0000
2.0000 0.5000 0.0000
1.5000 0.0000 0.0000
1.6000 0.3000 0.0000
1.5000 0.0250 0.0000
1.5000 0.0500 0.0000
1.5000 0.0750 0.0000
1.9000 0.5000 0.0000
1.5000 0.1000 0.0000
1.5000 0.1250 0.0000
1.6000 0.3250 0.0000
1.8000 0.4750 0.0000
1.7000 0.4250 0.0000
1.5000 0.1500 0.0000
2.0000 0.5250 0.0000
1.5000 0.1750 0.0000
1.6000 0.3500 0.0000
1.9000 0.5250 0.0000
1.5000 0.2000 0.0000
1.8000 0.5000 0.0000
1.7000 0.4500 0.0000
1.5000 0.2250 0.0000
1.6000 0.3750 0.0000
2.0000 0.5500 0.0000
1.9000 0.5500 0.0000
1.5000 0.2500 0.0000
1.8000 0.5250 0.0000
1.7000 0.4750 0.0000
1.6000 0.4000 0.0000
1.5000 0.2750 0.0000
2.0000 0.5750 0.0000
1.7000 0.5000 0.0000
1.5000 0.3000 0.0000
1.6000 0.4250 0.0000
1.9000 0.5750 0.0000
1.8000 0.5500 0.0000
1.5000 0.3250 0.0000
2.0000 0.6000 0.0000
1.4000 0.0000 0.0000
1.4000 0.0250 0.0000
1.4000 0.0500 0.0000
1.6000 0.4500 0.0000
1.7000 0.5250 0.0000
1.4000 0.0750 0.0000
1.4000 0.1000 0.0000
1.9000 0.6000 0.0000
1.8000 0.5750 0.0000
1.5000 0.3500 0.0000
1.4000 0.1250 0.0000
1.4000 0.1500 0.0000
1.6000 0.4750 0.0000
2.0000 0.6250 0.0000
1.5000 0.3750 0.0000
1.4000 0.1750 0.0000
1.7000 0.5500 0.0000
1.4000 0.2000 0.0000
1.8000 0.6000 0.0000
1.9000 0.6250 0.0000
1.5000 0.4000 0.0000
1.6000 0.5000 0.0000
1.4000 0.2250 0.0000
1.7000 0.5750 0.0000
2.0000 0.6500 0.0000
1.4000 0.2500 0.0000
1.5000 0.4250 0.0000
1.8000 0.6250 0.0000
1.9000 0.6500 0.0000
1.4000 0.2750 0.0000
1.6000 0.5250 0.0000
1.7000 0.6000 0.0000
1.4000 0.3000 0.0000
1.5000 0.4500 0.0000
2.0000 0.6750 0.0000
1.8000 0.6500 0.0000
1.6000 0.5500 0.0000
1.4000 0.3250 0.0000
1.9000 0.6750 0.0000
1.5000 0.4750 0.0000
1.7000 0.6250 0.0000
1.4000 0.3500 0.0000
1.3000 0.0000 0.0000
2.0000 0.7000 0.0000
1.3000 0.0250 0.0000
1.6000 0.5750 0.0000
1.3000 0.0500 0.0000
1.3000 0.0750 0.0000
1.8000 0.6750 0.0000
1.3000 0.1000 0.0000
1.5000 0.5000 0.0000
1.9000 0.7000 0.0000
1.4000 0.3750 0.0000
1.3000 0.1250 0.0000
1.7000 0.6500 0.0000
1.3000 0.1500 0.0000
1.4000 0.4000 0.0000
1.6000 0.6000 0.0000
1.3000 0.1750 0.0000
1.5000 0.5250 0.0000
2.0000 0.7250 0.0000
1.3000 0.2000 0.0000
1.8000 0.7000 0.0000
1.9000 0.7250 0.0000
1.4000 0.4250 0.0000
1.3000 0.2250 0.0000
1.7000 0.6750 0.0000
1.6000 0.6250 0.0000
1.5000 0.5500 0.0000
1.3000 0.2500 0.0000
1.4000 0.4500 0.0000
2.0000 0.7500 0.0000
1.3000 0.2750 0.0000
1.8000 0.7250 0.0000
1.9000 0.7500 0.0000
1.7000 0.7000 0.0000
1.3000 0.3000 0.0000
1.5000 0.5750 0.0000
1.6000 0.6500 0.0000
1.4000 0.4750 0.0000
1.3000 0.3250 0.0000
2.0000 0.7750 0.0000
1.8000 0.7500 0.0000
1.4000 0.5000 0.0000
1.5000 0.6000 0.0000
1.9000 0.7750 0.0000
1.3000 0.3500 0.0000
1.7000 0.7250 0.0000
1.6000 0.6750 0.0000
1.3000 0.3750 0.0000
1.4000 0.5250 0.0000
2.0000 0.8000 0.0000
1.2000 0.0000 0.0000
1.8000 0.7750 0.0000
1.5000 0.6250 0.0000
1.2000 0.0250 0.0000
1.2000 0.0500 0.0000
1.2000 0.0750 0.0000
1.3000 0.4000 0.0000
1.9000 0.8000 0.0000
1.2000 0.1000 0.0000
1.6000 0.7000 0.0000
1.7000 0.7500 0.0000
1.2000 0.1250 0.0000
1.4000 0.5500 0.0000
1.2000 0.1500 0.0000
1.3000 0.4250 0.0000
1.2000 0.1750 0.0000
1.5000 0.6500 0.0000
1.8000 0.8000 0.0000
1.2000 0.2000 0.0000
2.0000 0.8250 0.0000
1.6000 0.7250 0.0000
1.9000 0.8250 0.0000
1.2000 0.2250 0.0000
1.4000 0.5750 0.0000
1.7000 0.7750 0.0000
1.3000 0.4500 0.0000
1.2000 0.2500 0.0000
1.5000 0.6750 0.0000
1.3000 0.4750 0.0000
1.2000 0.2750 0.0000
1.4000 0.6000 0.0000
1.8000 0.8250 0.0000
2.0000 0.8500 0.0000
1.6000 0.7500 0.0000
1.7000 0.8000 0.0000
1.2000 0.3000 0.0000
1.9000 0.8500 0.0000
1.3000 0.5000 0.0000
1.5000 0.7000 0.0000
1.2000 0.3250 0.0000
1.4000 0.6250 0.0000
1.6000 0.7750 0.0000
1.2000 0.3500 0.0000
1.8000 0.8500 0.0000
1.3000 0.5250 0.0000
2.0000 0.8750 0.0000
1.7000 0.8250 0.0000
1.5000 0.7250 0.0000
1.9000 0.8750 0.0000
1.2000 0.3750 0.0000
1.4000 0.6500 0.0000
1.3000 0.5500 0.0000
1.2000 0.4000 0.0000
1.6000 0.8000 0.0000
1.8000 0.8750 0.0000
1.1000 0.0000 0.0000
2.0000 0.9000 0.0000
1.1000 0.0250 0.0000
1.5000 0.7500 0.0000
1.1000 0.0500 0.0000
1.7000 0.8500 0.0000
1.4000 0.6750 0.0000
1.1000 0.0750 0.0000
1.9000 0.9000 0.0000
1.1000 0.1000 0.0000
1.3000 0.5750 0.0000
1.2000 0.4250 0.0000
1.1000 0.1250 0.0000
1.1000 0.1500 0.0000
1.6000 0.8250 0.0000
1.1000 0.1750 0.0000
1.2000 0.4500 0.0000
1.3000 0.6000 0.0000
1.8000 0.9000 0.0000
1.4000 0.7000 0.0000
1.1000 0.2000 0.0000
1.5000 0.7750 0.0000
2.0000 0.9250 0.0000
1.7000 0.8750 0.0000
1.1000 0.2250 0.0000
1.2000 0.4750 0.0000
1.9000 0.9250 0.0000
1.1000 0.2500 0.0000
1.3000 0.6250 0.0000
1.6000 0.8500 0.0000
1.4000 0.7250 0.0000
1.1000 0.2750 0.0000
1.5000 0.8000 0.0000
1.2000 0.5000 0.0000
1.8000 0.9250 0.0000
1.7000 0.9000 0.0000
1.1000 0.3000 0.0000
2.0000 0.9500 0.0000
1.3000 0.6500 0.0000
1.9000 0.9500 0.0000
1.2000 0.5250 0.0000
1.1000 0.3250 0.0000
1.4000 0.7500 0.0000
1.6000 0.8750 0.0000
1.5000 0.8250 0.0000
1.1000 0.3500 0.0000
1.2000 0.5500 0.0000
1.8000 0.9500 0.0000
1.3000 0.6750 0.0000
1.7000 0.9250 0.0000
2.0000 0.9750 0.0000
1.1000 0.3750 0.0000
1.9000 0.9750 0.0000
1.4000 0.7750 0.0000
1.1000 0.4000 0.0000
1.6000 0.9000 0.0000
1.2000 0.5750 0.0000
1.5000 0.8500 0.0000
1.3000 0.7000 0.0000
1.8000 0.9750 0.0000
1.1000 0.4250 0.0000
1.7000 0.9500 0.0000
1.4000 0.8000 0.0000
1.0000 0.0000 0.0000
2.0000 1.0000 0.0000
1.2000 0.6000 0.0000
1.0000 0.0250 0.0000
1.0000 0.0500 0.0000
1.0000 0.0750 0.0000
1.9000 1.0000 0.0000
1.0000 0.1000 0.0000
1.1000 0.4500 0.0000
1.5000 0.8750 0.0000
1.3000 0.7250 0.0000
1.0000 0.1250 0.0000
1.6000 0.9250 0.0000
1.0000 0.1500 0.0000
1.2000 0.6250 0.0000
1.0000 0.1750 0.0000
1.1000 0.4750 0.0000
1.8000 1.0000 0.0000
1.0000 0.2000 0.0000
1.4000 0.8250 0.0000
1.7000 0.9750 0.0000
1.0000 0.2250 0.0000
1.3000 0.7500 0.0000
1.1000 0.5000 0.0000
1.5000 0.9000 0.0000
1.2000 0.6500 0.0000
1.6000 0.9500 0.0000
1.0000 0.2500 0.0000
1.0000 0.2750 0.0000
1.4000 0.8500 0.0000
1.1000 0.5250 0.0000
1.7000 1.0000 0.0000
1.0000 0.3000 0.0000
1.3000 0.7750 0.0000
1.2000 0.6750 0.0000
1.0000 0.3250 0.0000
1.5000 0.9250 0.0000
1.6000 0.9750 0.0000
1.1000 0.5500 0.0000
1.0000 0.3500 0.0000
1.4000 0.8750 0.0000
1.2000 0.7000 0.0000
1.3000 0.8000 0.0000
1.1000 0.5750 0.0000
1.0000 0.3750 0.0000
1.5000 0.9500 0.0000
1.6000 1.0000 0.0000
1.0000 0.4000 0.0000
1.2000 0.7250 0.0000
1.1000 0.6000 0.0000
1.4000 0.9000 0.0000
1.3000 0.8250 0.0000
1.0000 0.4250 0.0000
1.1000 0.6250 0.0000
1.5000 0.9750 0.0000
1.2000 0.7500 0.0000
1.0000 0.4500 0.0000
0.9000 0.0000 0.0000
0.9000 0.0250 0.0000
1.3000 0.8500 0.0000
0.9000 0.0500 0.0000
0.9000 0.0750 0.0000
1.4000 0.9250 0.0000
0.9000 0.1000 0.0000
0.9000 0.1250 0.0000
1.0000 0.4750 0.0000
1.1000 0.6500 0.0000
0.9000 0.1500 0.0000
1.2000 0.7750 0.0000
0.9000 0.1750 0.0000
1.5000 1.0000 0.0000
1.0000 0.5000 0.0000
0.9000 0.2000 0.0000
1.3000 0.8750 0.0000
0.9000 0.2250 0.0000
1.4000 0.9500 0.0000
1.1000 0.6750 0.0000
0.9000 0.2500 0.0000
1.0000 0.5250 0.0000
1.2000 0.8000 0.0000
0.9000 0.2750 0.0000
0.9000 0.3000 0.0000
1.3000 0.9000 0.0000
1.1000 0.7000 0.0000
1.0000 0.5500 0.0000
1.4000 0.9750 0.0000
0.9000 0.3250 0.0000
1.2000 0.8250 0.0000
1.0000 0.5750 0.0000
0.9000 0.3500 0.0000
1.1000 0.7250 0.0000
1.3000 0.9250 0.0000
0.9000 0.3750 0.0000
1.0000 0.6000 0.0000
1.4000 1.0000 0.0000
1.2000 0.8500 0.0000
0.9000 0.4000 0.0000
1.1000 0.7500 0.0000
0.9000 0.4250 0.0000
1.0000 0.6250 0.0000
1.3000 0.9500 0.0000
1.2000 0.8750 0.0000
1.1000 0.7750 0.0000
0.9000 0.4500 0.0000
1.0000 0.6500 0.0000
0.9000 0.4750 0.0000
0.8000 0.0000 0.0000
0.8000 0.0250 0.0000
1.3000 0.9750 0.0000
0.8000 0.0500 0.0000
0.8000 0.0750 0.0000
0.8000 0.1000 0.0000
1.2000 0.9000 0.0000
1.1000 0.8000 0.0000
0.8000 0.1250 0.0000
1.0000 0.6750 0.0000
0.9000 0.5000 0.0000
0.8000 0.1500 0.0000
0.8000 0.1750 0.0000
0.8000 0.2000 0.0000
0.9000 0.5250 0.0000
1.3000 1.0000 0.0000
1.0000 0.7000 0.0000
0.8000 0.2250 0.0000
1.1000 0.8250 0.0000
1.2000 0.9250 0.0000
[...]
         <PointData>
            <DataArray Name="compliance" NumberOfComponents="1" format="ascii" type="Float64">
0.6917 
1.7818 
2.6600 
2.4570 
2.7673 
0.2040 
0.0354 
-0.0358 
3.6417 
-0.0030 
-0.0333 
4.5985 
-0.1255 
4.5779 
-0.2127 
0.1561 
3.5969 
-0.2092 
0.1130 
0.1113 
0.1089 
0.1144 
-0.0791 
2.6967 
0.1545 
0.1021 
2.2706 
0.1987 
0.2504 
0.1187 
2.1536 
0.1286 
0.2141 
2.1788 
-0.0003 
0.0194 
0.4017 
0.0200 
0.0195 
0.4864 
0.0208 
1.7581 
2.3199 
0.0080 
0.0200 
0.8453 
2.2187 
-0.0671 
2.0736 
0.0972 
1.4674 
1.1981 
2.1342 
1.4658 
0.9116 
1.3456 
4.3708 
0.0223 
0.9998 
0.0183 
0.6438 
0.0204 
3.0049 
0.0235 
0.0224 
1.4045 
0.0393 
0.7461 
0.6353 
0.6717 
-0.0176 
1.4493 
0.1555 
0.1387 
0.9359 
1.8480 
0.3087 
3.9938 
1.3493 
0.0196 
1.2693 
3.0401 
0.0691 
0.0514 
1.0938 
0.5684 
1.6231 
0.1426 
-0.0591 
0.0085 
-0.1661 
0.0096 
0.0106 
0.0102 
0.7630 
0.0192 
-0.0105 
0.0112 
2.0766 
0.1493 
0.1280 
-0.0892 
1.6027 
0.0328 
0.4361 
3.6484 
2.5705 
0.1316 
2.9142 
0.0268 
-0.0032 
0.0335 
0.5960 
2.9377 
0.2286 
0.0142 
-0.0794 
0.1028 
0.4751 
0.0824 
0.0154 
-0.2348 
3.0573 
0.0739 
0.0922 
0.0031 
0.0038 
0.0038 
0.0197 
0.8593 
0.0094 
-0.0036 
-0.2101 
2.4533 
0.0536 
0.0529 
1.2126 
0.0112 
0.0490 
0.0543 
3.3343 
1.3906 
3.1407 
1.3352 
-0.1103 
0.0431 
-0.0319 
0.8617 
2.1871 
0.0194 
-0.0373 
0.0447 
0.5686 
-0.0433 
0.1101 
-0.0879 
3.3084 
0.1376 
0.0516 
-0.0013 
0.1961 
-0.0824 
0.1160 
0.0045 
0.0447 
3.8509 
0.1258 
0.0002 
-0.0094 
0.0007 
-0.0066 
0.0009 
0.0053 
-0.0126 
-0.0404 
0.0331 
0.0230 
0.1129 
0.9327 
3.0694 
3.2129 
0.1687 
0.1452 
3.4311 
-0.0013 
-0.0094 
1.1356 
-0.0936 
0.0229 
0.1299 
-0.0317 
2.1401 
0.4758 
-0.0729 
0.1356 
0.0273 
-0.0060 
0.1970 
-0.0929 
0.0149 
1.5319 
0.1655 
-0.1392 
0.8962 
0.0594 
0.1696 
-0.0032 
-0.0580 
0.1500 
-0.1789 
0.0080 
0.1954 
0.9605 
1.3820 
0.2299 
0.3289 
-0.0005 
0.0014 
-0.0275 
-0.0345 
-0.0015 
0.0117 
-0.0620 
0.0557 
0.0014 
0.6090 
1.9285 
0.4904 
2.8575 
0.6556 
3.8191 
0.0987 
1.6434 
0.0548 
-0.0008 
-0.0011 
0.0013 
2.2353 
-0.0029 
0.1185 
1.1019 
0.2121 
0.5143 
0.1863 
0.1356 
1.0067 
0.1408 
1.6129 
0.0161 
0.0004 
2.1112 
0.0455 
0.1727 
-0.0008 
1.5288 
0.5096 
0.2184 
2.3289 
1.7110 
0.1119 
0.0061 
1.9375 
-0.0001 
-0.0439 
1.1053 
0.0004 
-0.0300 
2.2372 
2.0913 
0.3863 
1.1396 
0.0002 
-0.0022 
0.0001 
0.0165 
1.7417 
-0.0509 
-0.0038 
1.4396 
0.3759 
-0.0001 
2.1358 
1.8559 
1.4097 
3.2887 
1.8420 
0.4963 
0.0697 
2.2990 
1.4863 
0.0019 
1.1286 
-0.0393 
2.3621 
0.0000 
0.0168 
0.1451 
2.4780 
0.0000 
0.0951 
1.0484 
0.0589 
1.0038 
0.1115 
2.8063 
2.1323 
0.0009 
0.0041 
0.0344 
0.0000 
0.8172 
-0.0000 
1.5115 
-0.0430 
1.1629 
-0.0223 
2.4804 
0.0699 
0.7983 
0.0006 
1.0207 
0.0047 
0.0000 
0.7607 
-0.0000 
1.9549 
2.2081 
0.0148 
0.4693 
1.2200 
1.1940 
0.0003 
3.2562 
0.0033 
2.8322 
-0.0047 
0.0000 
0.3349 
0.0402 
-0.1364 
0.9433 
0.0000 
3.3433 
3.0800 
0.1815 
0.9349 
3.1666 
0.0070 
1.1831 
-0.0801 
0.6835 
2.1425 
0.0001 
1.0397 
3.2722 
0.0026 
1.0534 
0.4133 
1.1894 
-0.0169 
-0.2122 
0.0076 
0.9242 
0.7550 
2.9544 
0.7863 
0.0023 
0.5437 
0.8921 
-0.1559 
0.6167 
0.0140 
0.0076 
0.8313 
1.3609 
1.2046 
-0.2095 
2.7291 
1.5178 
2.5239 
0.0081 
0.0088 
3.2684 
-0.1465 
2.1954 
-0.0270 
3.5805 
3.0909 
1.2784 
0.0113 
-0.0856 
1.9174 
0.0040 
0.0249 
3.6301 
-0.0604 
0.4508 
0.0134 
2.2764 
2.5811 
0.6435 
0.1359 
1.3690 
0.1013 
0.5898 
0.0134 
0.2431 
0.2549 
2.2028 
0.2262 
0.0065 
-0.0510 
0.3426 
0.5272 
2.3547 
0.6505 
1.3053 
0.2146 
0.0130 
0.7020 
0.0094 
2.1798 
4.0618 
1.0874 
2.9005 
0.0170 
-0.0303 
3.0920 
2.3948 
0.0106 
3.8222 
2.3717 
0.0163 
1.1673 
2.9184 
0.0128 
2.6700 
-0.1329 
0.2679 
1.8437 
-0.0475 
0.0065 
0.0036 
0.0033 
0.0094 
-0.0323 
0.7512 
0.6223 
1.6421 
1.7230 
0.7755 
-0.0007 
1.5236 
0.9448 
0.6966 
-0.0264 
0.0063 
0.2857 
0.7242 
3.8659 
-0.0804 
1.1027 
-0.0982 
1.7426 
0.1930 
2.3524 
3.8373 
-0.1135 
0.0213 
2.4410 
0.2522 
1.8539 
0.2103 
2.9984 
1.0198 
-0.0015 
0.3695 
0.1873 
0.9929 
1.1630 
0.0323 
2.1484 
1.2460 
0.0046 
-0.0043 
0.0630 
2.7885 
-0.0545 
2.9577 
0.0544 
0.0070 
0.0049 
0.0342 
-0.1021 
0.4733 
1.9291 
1.8398 
2.2305 
0.0153 
0.0636 
2.0511 
3.2767 
2.1030 
0.8876 
2.3537 
0.0797 
2.5693 
-0.0006 
3.1466 
2.2051 
0.0790 
0.3419 
1.3211 
0.5488 
-0.0017 
0.0035 
1.7907 
0.2561 
0.1451 
-0.0152 
-0.0242 
0.9538 
-0.0345 
0.1144 
0.2352 
0.0345 
1.9391 
0.0428 
0.6762 
-0.0165 
0.0289 
1.2861 
2.4319 
0.0317 
0.0075 
-0.0055 
-0.0110 
-0.0890 
1.8114 
0.2948 
0.0293 
1.8669 
3.0990 
2.9404 
3.1775 
3.1709 
0.0266 
0.0009 
3.4118 
1.7589 
3.2133 
2.0894 
0.0260 
1.9186 
0.5731 
1.4177 
0.0396 
0.0258 
-0.0570 
0.3042 
1.3778 
0.0427 
-0.0066 
0.0327 
-0.0162 
-0.0508 
0.0359 
1.7057 
0.0255 
-0.0342 
0.0161 
2.0919 
0.0248 
0.0861 
0.0282 
2.7150 
0.0281 
-0.0011 
0.4017 
0.0287 
0.0600 
2.0518 
0.1109 
0.5265 
1.1871 
1.9246 
3.3623 
0.0286 
3.6158 
3.4852 
3.6517 
3.2000 
0.0276 
2.3794 
0.3755 
1.5760 
0.1913 
0.0240 
-0.0936 
2.8522 
0.0139 
-0.0510 
0.0215 
0.0336 
2.7320 
0.0238 
0.0297 
0.0186 
0.0177 
0.0188 
2.7669 
0.0262 
0.0219 
-0.0037 
0.0016 
0.0233 
3.1124 
0.0234 
-0.0793 
0.0238 
2.7073 
-0.0186 
0.0237 
0.8397 
0.0235 
0.1937 
0.5699 
1.0187 
1.4918 
2.6618 
3.2325 
3.4303 
0.0231 
3.7475 
3.2395 
-0.1233 
1.4646 
2.7787 
0.0228 
0.0918 
-0.0483 
0.0493 
3.4678 
0.0299 
0.0219 
0.0179 
0.0167 
0.0186 
3.4096 
0.0187 
0.0006 
0.0203 
0.0185 
0.0210 
3.5685 
0.0195 
0.0208 
0.0207 
3.7011 
0.0443 
0.0210 
0.0211 
-0.0044 
2.3380 
0.0211 
-0.0340 
0.0211 
0.3961 
1.3745 
1.2090 
0.0210 
1.5956 
2.2540 
2.8622 
3.4094 
3.8751 
-0.0608 
3.2718 
0.0207 
1.4352 
0.1079 
3.0549 
-0.0203 
0.0206 
0.0481 
0.0057 
0.0149 
3.5551 
0.0228 
0.0210 
0.0215 
0.0205 
0.0204 
3.4512 
0.0196 
0.0190 
0.0205 
3.6550 
0.0188 
0.0114 
0.0186 
3.3752 
0.0185 
0.0351 
0.0184 
1.8263 
-0.0148 
0.0184 
0.0184 
0.1414 
0.4076 
0.0186 
4.7904 
5.1143 
1.7276 
4.7221 
4.1032 
0.1230 
3.3914 
0.0188 
2.3263 
0.9599 
0.0481 
-0.0179 
0.0191 
3.3732 
0.0518 
0.0186 
0.0194 
0.0252 
3.5163 
0.0202 
0.0201 
0.0189 
0.0177 
3.2547 
0.0207 
0.0171 
0.0165 
0.0241 
3.0457 
0.0161 
0.0158 
0.0181 
2.3456 
0.0156 
0.0155 
0.0383 
1.2469 
0.0154 
-0.0396 
0.0154 
0.6330 
0.3523 
0.0155 
0.0157 
16.8813 
10.9590 
2.0776 
6.7349 
3.6878 
1.4944 
0.4679 
0.0159 
-0.0361 
-0.0150 
0.0507 
3.6460 
0.0136 
0.0164 
0.0200 
0.0155 
0.0171 
0.0153 
3.7543 
0.0147 
0.0181 
0.0144 
3.3134 
0.0141 
0.0192 
0.0139 
0.0138 
2.8854 
0.0226 
0.0137 
0.0136 
2.4332 
0.0237 
0.0135 
0.0414 
0.0134 
2.2929 
0.0133 
-0.0467 
0.0132 
0.3524 
0.0130 
35.0834 
0.0129 
19.5459 
10.2931 
5.0337 
1.8421 
2.1588 
1.2442 
0.2737 
-0.0182 
0.0128 
0.0161 
3.5206 
0.0102 
0.0115 
0.0128 
0.0118 
0.0121 
4.4494 
0.0129 
0.0123 
0.0125 
0.0133 
0.0127 
5.1268 
0.0128 
0.0136 
0.0128 
5.7752 
0.0128 
0.0156 
0.0128 
5.7679 
0.0127 
0.0130 
0.0126 
0.0430 
0.0124 
0.0122 
-0.0857 
0.0119 
0.1767 
0.0115 
1.3415 
0.0110 
0.0105 
3.6101 
0.0099 
6.5572 
0.0091 
10.5851 
0.0083 
0.0069 
15.8671 
0.0070 
0.0014 
0.0231 
0.2587 
1.0051 
4.1287 
9.0552 
17.3240 
30.7323 </DataArray>
            <DataArray Name="strain" NumberOfComponents="3" format="ascii" type="Float64">
4.3504 14.9505 -12.5683 
1.9182 17.7122 -8.9425 
0.5350 16.0705 -6.5968 
-0.3265 10.4471 -5.1715 
-1.1594 9.4076 -4.6197 
-19.3961 -4.6263 22.4418 
-11.9925 -6.1046 19.1666 
-7.2903 -5.7764 14.1976 
-1.7251 10.2529 -4.1541 
-4.1420 -3.4827 10.7907 
-1.6479 -3.0425 8.6164 
-1.8392 11.0986 -3.3907 
-0.3208 -3.2757 7.0185 
-1.6528 9.7269 -2.3908 
-0.2116 -3.4292 5.3410 
-24.2163 8.7722 2.4799 
-1.1489 6.8070 -1.8626 
-0.4556 -2.7206 3.7758 
-19.0532 6.3551 8.6772 
-14.2049 3.0546 14.1098 
-10.6759 1.3488 12.0254 
-8.1180 -0.7368 12.2791 
-1.2054 -1.4598 2.5791 
-1.0046 4.6235 -1.5891 
-6.3447 -3.2528 14.3774 
-1.3952 -0.4366 1.2022 
-0.9495 3.4777 -1.5582 
-5.3104 -4.9111 15.2634 
-6.3868 -4.1126 12.3914 
-1.2492 0.1763 -0.1118 
-0.8746 3.0694 -1.8645 
-5.3145 -1.2817 6.3018 
-1.1418 0.4240 -0.9704 
-0.9274 3.0211 -2.3914 
-7.8880 2.7936 -0.4950 
-10.6329 3.4228 0.6778 
-4.1909 0.7253 1.3215 
-11.4664 3.6835 2.8783 
-11.6816 3.0966 5.7719 
-0.9750 0.5349 -1.7798 
-11.8886 2.6918 7.9759 
-3.4091 0.9275 -0.5698 
-1.0556 3.1504 -3.1422 
-11.6959 2.5437 8.2694 
-11.6335 1.9397 13.3477 
-0.6877 0.5604 -2.9941 
-2.8892 0.5056 -1.6904 
-9.0940 1.3602 6.5322 
-1.0016 2.7645 -3.3806 
-6.8054 1.4053 -4.7676 
-2.4481 -0.0769 -3.6043 
-0.4873 0.5769 -4.1214 
-5.4806 1.3443 -3.5452 
-0.6760 1.7873 -3.0539 
-2.3031 -0.3588 -4.7375 
-0.3447 0.6849 -4.3979 
-4.7871 1.2452 -3.3547 
-9.0127 2.9447 0.5431 
-0.2072 0.9136 -2.9440 
-8.4766 2.8741 1.0546 
-2.4587 0.1056 -5.5323 
-8.7118 3.0200 2.2603 
-4.3368 1.0734 -3.2210 
-8.9381 3.3207 3.5974 
-8.9843 3.5464 4.7058 
-0.3531 0.9015 -4.0969 
-9.1149 3.6530 9.0475 
-4.1589 0.9786 -4.3071 
0.2224 0.2168 -2.7835 
-2.0689 1.3773 -7.7903 
-7.3262 2.2987 3.7203 
-0.3773 1.0847 -3.6475 
-4.4351 1.1250 -4.4879 
-3.2062 1.4743 -6.1072 
0.0246 2.8060 -10.4801 
-4.1831 1.2060 -3.3551 
0.4803 -0.2591 -2.2789 
-4.1518 1.1348 -3.0075 
-0.1694 1.0208 -3.1073 
-1.7063 2.7271 -8.6402 
2.2676 3.2529 -11.1231 
-3.9387 1.3198 -2.3824 
0.5903 -0.4530 -1.5826 
-0.9376 7.3581 -16.3655 
0.1766 0.7079 -2.5334 
-3.6517 0.7002 -1.1117 
2.9104 2.9187 -9.9258 
-0.8043 12.3321 -23.7889 
0.5716 -0.3107 -0.7230 
-6.3591 2.1536 0.4280 
-3.0585 3.7671 -5.3587 
-6.4743 2.2217 1.6617 
-6.4440 2.2820 3.5986 
-6.5041 2.4335 5.3015 
0.5719 0.2309 -1.9150 
-6.6910 2.4379 7.8526 
-5.3365 1.5440 2.8562 
-1.2099 9.2361 -13.2020 
2.5015 2.5780 -8.4394 
-0.2634 10.1245 -20.2135 
-3.4057 0.9179 -3.1084 
0.4397 -0.1405 -0.0351 
-3.9145 1.0672 -2.5879 
-0.1523 9.8065 -13.2427 
0.8551 -0.1849 -1.3152 
-4.0282 1.1388 -2.5743 
1.7372 2.3053 -6.9530 
0.8393 4.9784 -13.1549 
-3.9713 1.2094 -2.5452 
0.2583 8.3475 -11.2288 
0.0817 0.0654 0.1464 
0.9342 -0.5513 -0.7755 
-3.8075 0.8011 -2.1935 
1.1550 2.0696 -5.7715 
2.1980 2.6529 -10.9890 
-1.0099 8.8247 -10.5037 
-3.2598 2.2675 -3.6936 
-0.6420 0.0779 1.1085 
4.0246 1.7271 -11.0014 
-1.2169 10.2802 -13.3240 
-3.4702 10.9708 -10.1879 
0.9192 -0.8184 -0.1746 
0.9771 2.0922 -5.4177 
-1.3385 13.9379 -16.3737 
-1.1331 -0.6621 4.0652 
-3.5789 1.1999 0.6091 
-3.7050 1.1994 1.8630 
-3.8703 1.2646 3.5282 
-4.4405 12.6270 -10.4987 
4.8373 1.0651 -9.7900 
-3.8986 1.0540 5.9931 
-3.1448 0.6964 2.7889 
0.8235 -0.6984 0.6013 
1.0183 1.8130 -5.1107 
-1.6976 11.9619 -14.0853 
-2.3230 0.7180 -1.8404 
-3.2549 0.9319 -1.7164 
-3.7956 14.0676 -13.5944 
-0.9467 -0.6332 4.6214 
-1.8616 12.1982 -14.6201 
-3.7206 1.1114 -2.2064 
3.8806 0.9977 -8.3151 
-4.1270 1.2237 -2.7290 
1.2976 0.7855 -3.9647 
0.6595 -0.4051 1.1839 
-1.7520 9.9573 -13.4793 
-2.4585 11.5158 -14.2699 
-4.3915 1.0770 -3.1236 
2.7842 1.6911 -8.1122 
-1.0699 -0.1418 3.1312 
-4.3542 2.7746 -4.9641 
-0.8135 8.7750 -13.4001 
1.7070 -0.0472 -3.1680 
0.2500 0.5848 0.4832 
-3.0340 15.9617 -16.3211 
-0.9417 3.7911 -5.6178 
2.0665 2.6047 -8.3360 
-2.9795 22.4188 -20.4216 
-1.6649 10.2235 -13.7071 
-0.8556 -0.2125 2.3669 
1.9657 -0.1151 -3.5514 
-0.0868 -0.2713 -0.1347 
-3.7142 19.1484 -18.2472 
-0.2223 1.8447 -0.1530 
-3.9465 10.8766 -13.5428 
1.7433 2.8384 -7.8473 
-4.3724 19.7030 -20.0952 
-1.1572 0.4183 0.3484 
-0.5789 -0.0145 1.2762 
-1.6197 0.4580 0.9067 
0.2884 -0.2024 -1.7757 
-1.7416 0.1955 2.3983 
-1.6813 0.1771 1.5301 
1.8164 -0.0927 -3.3381 
-1.6769 0.6062 -0.6095 
-6.5647 11.4999 -12.5162 
-0.8509 2.1350 0.4904 
-4.4422 18.1809 -19.9360 
-2.8225 0.8898 -1.1547 
1.6809 2.3460 -6.8118 
-3.5333 1.0756 -1.9027 
-4.2643 23.4781 -24.4090 
0.5493 -0.1930 -2.4382 
-4.1753 1.3066 -2.8781 
-7.7477 9.6553 -8.4920 
-0.4351 0.2416 0.4259 
-4.7377 0.9415 -3.5558 
1.6410 -0.2495 -2.5629 
-1.5167 2.0847 0.8309 
-4.3941 20.6716 -23.3134 
-5.2602 4.1947 -5.8112 
1.8424 1.8910 -6.6341 
0.5960 -0.0377 -2.1753 
-6.6849 5.1204 -4.0615 
-4.5869 20.6403 -15.9482 
-4.0856 7.2759 -14.7012 
-0.1817 0.2513 -0.1331 
-5.0252 27.4377 -19.5126 
1.5497 -0.2003 -2.5640 
-2.0302 2.1580 0.3706 
2.3419 1.5653 -7.2826 
-6.4379 23.6029 -17.8739 
-5.2386 2.3886 -3.4113 
0.3769 0.2585 -2.3105 
-3.7526 2.1558 -11.5274 
-6.4489 24.0816 -19.0998 
0.1618 0.2703 -0.5864 
1.3342 0.2339 -3.2266 
-3.4732 1.1508 -11.7114 
-3.9360 1.5275 -3.8563 
-2.0224 1.7237 0.0544 
-5.8698 26.4881 -19.8709 
3.0557 1.0730 -7.8286 
0.3161 0.6376 -3.1315 
-5.7436 29.3994 -21.0197 
-3.4314 -0.0309 -10.7148 
-0.0391 0.3419 -0.6830 
-1.2144 0.4312 -0.3063 
0.7850 1.9063 -6.8362 
-2.5858 1.1346 -2.2959 
-1.7171 0.3785 -1.1639 
-1.9106 0.2495 -2.0422 
-1.8936 0.4895 -1.3164 
-5.3988 13.7371 -14.8600 
-1.0231 0.9991 -0.4032 
-2.6694 0.8443 -0.8518 
0.4148 0.9718 -4.1194 
3.7784 0.3561 -7.4941 
-3.4291 0.9859 -1.6099 
-3.1246 -1.0112 -9.3662 
-4.4344 1.3378 -2.5230 
-5.9275 0.7743 -6.6695 
-5.6452 1.1830 -3.6668 
-1.2329 0.6293 -0.7624 
0.0394 3.1694 -8.5907 
-6.5031 3.8327 -5.9277 
-0.1158 0.2400 -0.5584 
0.6751 1.0769 -4.8532 
-0.2030 0.6178 -0.9873 
-5.6438 19.4459 -15.7356 
-2.5642 -1.6976 -8.0820 
4.1186 -0.3804 -6.4394 
-5.3712 1.2644 -5.2875 
-5.3445 25.8057 -19.6147 
-0.2813 0.1412 -1.2011 
-3.7606 -0.1669 -5.3970 
-5.9546 22.2233 -16.6781 
-2.2710 -1.9893 -6.9855 
-0.6921 2.8112 -6.1038 
0.0219 0.0400 -0.4294 
1.1371 0.8624 -5.1253 
3.5130 -1.0139 -4.7036 
-5.6646 25.2639 -17.8404 
-0.0118 0.4995 -1.0698 
-2.3101 -0.8266 -5.7789 
0.3402 -0.0539 -2.1704 
-5.6513 29.2265 -19.2118 
-2.1646 -2.1945 -6.5065 
1.9943 0.3924 -5.0600 
-4.9969 17.8917 -15.6644 
-0.3700 2.0586 -4.7912 
-1.1724 -1.4697 -5.8330 
0.1048 -0.1066 -0.2525 
2.9795 -1.1438 -6.8905 
0.8001 -0.1193 -3.0985 
-0.0005 0.4406 -0.9575 
-4.7234 2.8659 -7.1958 
-1.7923 -2.0912 -5.4990 
-0.4502 -1.7560 -5.4985 
-4.6774 1.5511 -3.4588 
3.4089 -0.1825 -5.0079 
0.3957 1.1544 -4.3917 
-3.7787 1.2282 -0.6771 
0.0784 -0.1498 -0.0840 
-3.7205 1.3249 -1.7290 
1.3098 -0.1724 -3.5790 
-3.8188 1.1656 -3.3888 
2.7327 -0.8776 -10.7416 
-1.1407 -2.1584 -4.2670 
-3.8713 1.0515 -2.8999 
0.1158 0.2990 -0.7852 
-3.6793 1.1468 -1.5793 
-0.1426 -1.7009 -4.6712 
-3.3772 0.4252 -3.7630 
-3.6593 1.1445 -1.4032 
-3.7709 1.1268 -1.1610 
4.9000 -0.8071 -5.0965 
-3.8209 1.6722 -1.8091 
-2.3375 0.2953 -4.4723 
0.0292 -1.6325 -3.7128 
0.8017 0.5348 -3.8445 
-0.2001 -2.6787 -3.7115 
-3.5291 13.1373 -10.6997 
1.8670 -0.2624 -3.7874 
0.0605 -0.1368 0.0537 
2.6110 -0.5345 -9.3683 
-3.3551 22.2429 -16.0961 
-1.7073 -0.0017 -4.5111 
0.1986 0.1389 -0.5740 
-4.0281 21.0153 -12.2768 
0.0412 -1.6618 -2.7376 
5.3158 -1.2458 -5.3019 
0.9410 -2.6308 -3.1408 
-3.6324 19.4543 -11.7047 
2.3805 -0.3676 -4.0877 
-1.1025 -0.1925 -4.3146 
0.9782 0.1831 -2.9308 
2.6201 -0.4872 -6.7218 
-3.4021 11.1419 -9.4732 
0.0348 -0.0980 0.1273 
-0.2514 -2.8524 -3.6241 
0.1927 0.0366 -0.3078 
-0.5132 -0.2372 -3.6504 
-3.3068 3.6855 -6.6702 
1.8825 -2.0449 -3.0205 
5.2894 -2.5000 -5.6969 
2.9545 -0.5359 -4.2274 
-4.0713 1.5152 -3.2398 
0.0317 -0.2026 -2.4244 
1.0617 -0.0921 -2.0428 
0.4355 -6.7564 -6.2927 
2.9112 -0.7883 -5.3507 
-0.0204 -0.0295 0.1068 
-3.8239 0.5153 -3.3801 
0.0901 0.0083 -0.0903 
2.6067 -1.5812 -2.7901 
-3.3325 0.6155 -4.0867 
5.5621 -2.9552 -5.7078 
0.7594 -0.2107 -1.0880 
3.8565 -0.8379 -3.7394 
2.0499 -10.7079 -6.8630 
0.9677 -0.2207 -0.9757 
-3.1781 0.7270 -3.5640 
3.0498 -0.9226 -3.7892 
3.1083 -1.4036 -2.4087 
-6.3722 2.0730 -0.3191 
-0.0869 0.0113 0.0557 
1.5947 -0.4315 -0.3092 
-5.4075 1.8731 -0.9321 
-4.4890 1.8590 -0.8016 
-4.5267 1.8647 -0.1413 
-0.1044 0.0190 0.0039 
-4.1068 1.6401 -0.0996 
-2.9373 0.6505 -3.4741 
4.8572 -1.0355 -4.3282 
2.9686 -10.4166 -5.3009 
-3.3347 1.5873 0.0996 
5.2450 -2.1682 -4.4690 
-2.3929 1.7910 -0.3007 
2.7242 -0.2365 1.1356 
-1.2910 3.5043 -2.6351 
-2.3414 0.6098 -3.9814 
0.6833 -0.2398 -0.3023 
-0.5434 5.8954 -5.0933 
3.3952 -1.3143 -2.2081 
3.1211 -1.0054 -1.8771 
-1.3131 6.4529 -4.0609 
3.5120 -5.4523 -2.9006 
-1.6496 0.7142 -4.1668 
5.7552 -2.1879 -1.3260 
4.0329 -2.3809 -0.1570 
5.3106 -1.9941 -3.0240 
-1.6395 6.0376 -3.0283 
-2.1136 5.3763 -1.9081 
3.5363 -1.2570 -1.9095 
-0.7214 0.9953 -4.1827 
3.1198 -1.0346 -0.6318 
-2.3690 3.6259 -1.4041 
3.7689 -1.7934 -2.1845 
4.8489 -10.2051 -6.7428 
-2.5292 1.7854 -2.0791 
5.9900 -2.8677 1.0352 
5.6306 -1.9589 -1.5598 
0.8891 0.8121 -4.0869 
-2.5322 1.0471 -3.3631 
3.6590 -1.1368 -2.6066 
5.0055 -13.3392 -8.2582 
3.8496 -1.4735 -1.4493 
2.1376 -0.0263 -3.1333 
-2.7806 0.8923 -3.6746 
6.2924 -2.4001 -0.3976 
6.1259 -2.0038 -0.5297 
-3.0131 0.7474 -3.3755 
4.9433 -13.4290 -5.6494 
3.3270 -0.7617 -2.6069 
3.9803 -1.3456 -0.9775 
3.8498 -1.3778 -1.0507 
-2.9977 0.6990 -3.4236 
4.3648 -1.1190 -2.5962 
6.8302 -2.4317 -0.0493 
4.7392 -7.8592 -5.0991 
-3.1038 0.6912 -3.6639 
-6.7556 2.1626 0.5228 
-6.0015 2.2967 -0.4990 
3.8664 -1.3368 -0.7629 
-5.4075 1.7182 2.3615 
-4.7801 1.1875 4.5164 
5.3194 -1.8703 1.9808 
-4.0098 1.2204 2.3791 
-3.0732 0.9338 1.9874 
-3.9380 0.8195 -4.5647 
5.4742 -1.4170 -2.3250 
-2.1706 0.6674 1.8921 
4.7600 -0.8616 -2.5331 
-1.5172 0.5255 1.4039 
7.5902 -2.4733 -0.0545 
-3.4736 2.0773 -8.3553 
-1.2680 0.5188 0.4873 
3.8524 -1.3159 -0.6631 
-0.9782 0.5651 -0.8376 
5.7177 -2.0340 2.0310 
5.7031 -2.2870 -2.9503 
-0.9541 0.5098 -1.9267 
-0.1326 4.6753 -14.8431 
4.4674 -1.4995 -1.0360 
-1.0765 0.3512 -3.1489 
-1.4253 0.2365 -4.1152 
3.7234 -1.1675 -1.8922 
5.2416 -6.1297 -5.2915 
3.3827 3.8497 -13.4110 
6.1884 -2.1025 0.9905 
-1.7898 0.1435 -4.3818 
4.1754 -1.3113 -0.6830 
4.3622 0.6825 -6.5127 
-2.1239 0.0826 -4.3096 
5.4993 -8.3582 -5.5305 
4.0637 -1.1739 0.6557 
-2.3896 0.1151 -4.6199 
3.2841 -0.0789 -4.5157 
6.7567 -2.2029 0.3709 
3.9388 -1.2780 -0.7123 
-2.7852 0.3023 -4.6610 
5.7249 -10.1493 -5.6465 
-3.8997 0.6462 -3.9356 
2.9207 0.0483 -4.9726 
4.3625 -1.3931 2.8831 
3.7492 -1.2227 -0.4946 
5.3885 -5.9866 -2.9394 
-4.9166 1.0080 -3.5945 
2.9186 -0.1426 -4.9232 
-2.9249 2.0676 -7.2829 
-5.2037 1.6771 0.3805 
-5.0783 1.6095 1.3282 
4.6541 -1.5238 0.9700 
-5.0933 1.4943 2.7685 
-4.2267 1.2839 2.4744 
-3.4074 1.0174 1.2669 
3.4882 -1.1286 -1.1406 
4.7114 -0.5500 -0.4402 
-2.8989 0.7874 0.9585 
3.4330 -0.7678 -4.8767 
-1.0571 6.3584 -20.2742 
-2.4260 0.4780 0.8821 
-1.9239 0.1138 0.4044 
-1.4922 -0.1986 -0.3620 
-0.4265 8.8632 -29.9971 
4.8660 -1.5999 0.4360 
4.0899 -2.0258 -5.4716 
-1.3177 -0.4121 -1.2421 
4.2865 -1.5925 -0.7692 
3.1032 -0.8947 0.0169 
-1.2927 -0.5056 -2.1553 
-0.0879 5.0185 -22.2895 
-1.3909 -0.5592 -2.9987 
4.1976 -3.7940 -5.6692 
-1.5086 -0.6515 -4.0429 
3.9477 -1.2147 -0.7869 
2.0550 0.1017 -7.8175 
3.3780 -0.9212 1.2993 
-1.7744 -0.5863 -4.9208 
4.2455 -5.3372 -3.6261 
-2.4479 -0.2375 -5.0851 
4.4199 -1.3502 -2.1929 
3.6658 -1.1913 -0.6917 
-3.7882 0.2147 -4.7971 
3.4867 -1.1276 0.4219 
-4.8562 0.8192 -5.3334 
4.0224 -3.8530 -0.6736 
3.6264 -0.6470 -3.3767 
3.4045 -1.1046 -0.8344 
-3.2527 1.0672 -4.3525 
2.5419 0.0048 -4.9492 
3.9837 -1.6131 0.8324 
3.4236 -1.1379 0.2200 
-0.8703 2.9248 -14.4088 
0.7558 4.2606 -24.4535 
2.1346 0.5562 -6.4292 
3.1757 -0.9683 -0.9983 
3.8360 -1.4077 -0.0748 
1.2248 2.8734 -21.5012 
-3.8422 1.2958 0.1092 
-3.9407 1.2645 0.3376 
-3.5514 0.9345 0.4381 
-3.2813 0.8290 -0.5866 
-3.1405 1.0008 -0.9356 
1.8702 0.3272 -5.6439 
-3.0803 0.9298 -0.6597 
-2.9593 0.7669 -1.0800 
3.3270 -0.9560 -0.4713 
-0.7418 3.0313 -20.1589 
-2.8346 0.5640 -1.4756 
3.6995 -1.2872 -0.4055 
-2.7374 0.3981 -1.9685 
1.6904 -0.4013 -4.0020 
-2.6527 0.2637 -2.5341 
-2.8043 4.7753 -21.6541 
-2.6127 0.1004 -3.3756 
3.2244 -1.0330 -0.0909 
3.6122 -1.2214 -0.6068 
-2.5463 -0.0618 -4.3411 
-2.7130 5.1262 -23.8075 
1.5291 -0.8894 -2.5976 
-2.9763 -0.0140 -4.7281 
-3.8255 0.3051 -4.4999 
-0.4990 1.6156 -13.0222 
3.0700 -1.0224 -0.0653 
3.5669 -1.1966 -0.6010 
1.8001 -1.0444 -0.7319 
-3.9332 0.8213 -4.5195 
2.3267 -0.9887 -3.9440 
-2.0823 1.1527 -3.7949 
2.4588 -1.1372 0.5033 
-0.2339 1.7597 -12.1611 
3.4804 -1.1098 -1.4618 
4.6653 -0.6244 -5.8233 
1.3312 2.1114 -22.2205 
2.9228 -1.1958 0.5789 
2.7456 1.1056 -20.2027 
3.9634 -0.2937 -5.0293 
3.4364 -1.1048 -1.1841 