<?xml version="1.0" encoding="utf-8"?>
<VTKFile byte_order="LittleEndian" type="UnstructuredGrid" version="0.1">
   <UnstructuredGrid>
      <Piece NumberOfCells="641" NumberOfPoints="730">
         <Points>
            <DataArray Name="Points" NumberOfComponents="3" format="ascii" type="Float32">
1.0000 1.0000 0.0000
0.9600 1.0000 0.0000
1.0000 0.9600 0.0000
0.9603 0.9614 0.0000
1.0000 0.9200 0.0000
0.9200 1.0000 0.0000
0.9612 0.9231 0.0000
0.9211 0.9624 0.0000
0.9230 0.9260 0.0000
1.0000 0.8800 0.0000
0.8800 1.0000 0.0000
0.9614 0.8856 0.0000
0.8829 0.9623 0.0000
0.9240 0.8918 0.0000
0.8875 0.9262 0.0000
0.8933 0.8971 0.0000
0.9597 0.8473 0.0000
1.0000 0.8400 0.0000
0.8400 1.0000 0.0000
0.8440 0.9601 0.0000
0.9173 0.8563 0.0000
0.8514 0.9190 0.0000
0.8690 0.8729 0.0000
0.9592 0.8063 0.0000
1.0000 0.8000 0.0000
0.8000 1.0000 0.0000
0.8021 0.9589 0.0000
0.9165 0.8130 0.0000
0.8054 0.9165 0.0000
0.8676 0.8205 0.0000
0.8109 0.8707 0.0000
0.9597 0.7652 0.0000
1.0000 0.7600 0.0000
0.7600 1.0000 0.0000
0.7590 0.9590 0.0000
0.9161 0.7702 0.0000
0.7581 0.9167 0.0000
0.8122 0.8209 0.0000
0.8679 0.7733 0.0000
0.7569 0.8708 0.0000
0.9590 0.7242 0.0000
1.0000 0.7200 0.0000
0.7200 1.0000 0.0000
0.9153 0.7275 0.0000
0.7165 0.9591 0.0000
0.8165 0.7719 0.0000
0.7126 0.9181 0.0000
0.8686 0.7282 0.0000
0.7510 0.8174 0.0000
0.7082 0.8753 0.0000
0.9580 0.6829 0.0000
1.0000 0.6800 0.0000
0.6800 1.0000 0.0000
0.7693 0.7706 0.0000
0.9140 0.6851 0.0000
0.6742 0.9594 0.0000
0.8161 0.7213 0.0000
0.8740 0.6885 0.0000
0.6685 0.9181 0.0000
0.7012 0.8339 0.0000
0.7734 0.7344 0.0000
0.7152 0.7855 0.0000
0.6650 0.8760 0.0000
0.7356 0.7577 0.0000
1.0000 0.6400 0.0000
0.6400 1.0000 0.0000
0.8350 0.6800 0.0000
0.9558 0.6404 0.0000
0.8757 0.6585 0.0000
0.7480 0.7370 0.0000
0.6333 0.9593 0.0000
0.6862 0.8039 0.0000
0.9052 0.6395 0.0000
0.6619 0.8374 0.0000
0.7838 0.6876 0.0000
0.7581 0.7055 0.0000
0.6270 0.9175 0.0000
0.6640 0.8136 0.0000
0.8474 0.6471 0.0000
0.7341 0.7184 0.0000
0.6889 0.7621 0.0000
0.8018 0.6601 0.0000
0.7087 0.7349 0.0000
0.6240 0.8728 0.0000
0.6655 0.7821 0.0000
1.0000 0.6000 0.0000
0.6000 1.0000 0.0000
0.9579 0.5979 0.0000
0.8635 0.6181 0.0000
0.6438 0.7994 0.0000
0.5930 0.9599 0.0000
0.7406 0.6813 0.0000
0.8153 0.6317 0.0000
0.7215 0.6960 0.0000
0.7582 0.6627 0.0000
0.9144 0.5934 0.0000
0.6224 0.8262 0.0000
0.7025 0.7080 0.0000
0.6817 0.7264 0.0000
0.5880 0.9170 0.0000
0.6661 0.7445 0.0000
0.6874 0.7117 0.0000
0.7729 0.6402 0.0000
0.6462 0.7610 0.0000
0.8270 0.6029 0.0000
0.5855 0.8736 0.0000
0.7078 0.6759 0.0000
0.8731 0.5824 0.0000
0.6922 0.6895 0.0000
0.6247 0.7752 0.0000
0.7227 0.6602 0.0000
0.6777 0.7007 0.0000
1.0000 0.5600 0.0000
0.5600 1.0000 0.0000
0.7852 0.6159 0.0000
0.6645 0.7138 0.0000
0.7363 0.6426 0.0000
0.9599 0.5572 0.0000
0.6483 0.7278 0.0000
0.5542 0.9595 0.0000
0.6026 0.7897 0.0000
0.5823 0.8324 0.0000
0.6299 0.7405 0.0000
0.9195 0.5531 0.0000
0.7477 0.6223 0.0000
0.5507 0.9171 0.0000
0.6803 0.6732 0.0000
0.6658 0.6871 0.0000
0.8355 0.5722 0.0000
0.7947 0.5901 0.0000
0.6936 0.6581 0.0000
0.6502 0.6999 0.0000
0.6098 0.7514 0.0000
0.7057 0.6420 0.0000
0.7579 0.6014 0.0000
0.6336 0.7113 0.0000
0.5497 0.8744 0.0000
0.8778 0.5472 0.0000
0.7165 0.6250 0.0000
0.5740 0.7964 0.0000
0.6162 0.7214 0.0000
0.5892 0.7610 0.0000
0.7259 0.6072 0.0000
0.8020 0.5638 0.0000
1.0000 0.5200 0.0000
0.5200 1.0000 0.0000
0.5492 0.8345 0.0000
0.7657 0.5790 0.0000
0.9606 0.5179 0.0000
0.5980 0.7300 0.0000
0.8398 0.5417 0.0000
0.5158 0.9583 0.0000
0.7338 0.5887 0.0000
0.9203 0.5154 0.0000
0.5665 0.7670 0.0000
0.5131 0.9159 0.0000
0.5474 0.8009 0.0000
0.5792 0.7371 0.0000
0.7720 0.5563 0.0000
0.8787 0.5129 0.0000
0.8059 0.5366 0.0000
0.5141 0.8719 0.0000
0.7401 0.5696 0.0000
0.5598 0.7427 0.0000
0.5440 0.7719 0.0000
0.5175 0.8314 0.0000
0.8405 0.5118 0.0000
0.7450 0.5500 0.0000
0.5225 0.8010 0.0000
0.7754 0.5328 0.0000
1.0000 0.4800 0.0000
0.4800 1.0000 0.0000
0.9602 0.4791 0.0000
0.5401 0.7468 0.0000
0.4767 0.9571 0.0000
0.8069 0.5110 0.0000
0.9179 0.4782 0.0000
0.5221 0.7741 0.0000
0.4748 0.9127 0.0000
0.7482 0.5301 0.0000
0.8747 0.4784 0.0000
0.5027 0.7984 0.0000
0.7768 0.5101 0.0000
0.4760 0.8661 0.0000
0.5201 0.7492 0.0000
0.8373 0.4828 0.0000
0.4848 0.8182 0.0000
0.5012 0.7757 0.0000
0.7498 0.5101 0.0000
0.8046 0.4854 0.0000
0.5000 0.7500 0.0000
0.7754 0.4874 0.0000
1.0000 0.4400 0.0000
0.4400 1.0000 0.0000
0.9587 0.4395 0.0000
0.4799 0.7803 0.0000
0.4361 0.9573 0.0000
0.9156 0.4395 0.0000
0.7498 0.4899 0.0000
0.8291 0.4561 0.0000
0.4343 0.9109 0.0000
0.8003 0.4626 0.0000
0.8632 0.4393 0.0000
0.4799 0.7492 0.0000
0.7730 0.4662 0.0000
0.4477 0.8146 0.0000
0.4327 0.8588 0.0000
0.7482 0.4699 0.0000
0.8161 0.4410 0.0000
0.4541 0.7785 0.0000
0.7944 0.4428 0.0000
0.4599 0.7468 0.0000
1.0000 0.4000 0.0000
0.4000 1.0000 0.0000
0.7686 0.4455 0.0000
0.9592 0.3996 0.0000
0.8248 0.4242 0.0000
0.3968 0.9575 0.0000
0.7450 0.4500 0.0000
0.9170 0.3993 0.0000
0.4159 0.8309 0.0000
0.4229 0.8031 0.0000
0.3948 0.9133 0.0000
0.4316 0.7723 0.0000
0.7936 0.4233 0.0000
0.4402 0.7427 0.0000
0.8698 0.3967 0.0000
0.7652 0.4264 0.0000
0.3936 0.8689 0.0000
0.7401 0.4304 0.0000
0.3920 0.8309 0.0000
0.8264 0.3924 0.0000
0.3992 0.7968 0.0000
0.4094 0.7650 0.0000
0.4208 0.7371 0.0000
0.7903 0.3985 0.0000
1.0000 0.3600 0.0000
0.3600 1.0000 0.0000
0.7600 0.4056 0.0000
0.9598 0.3592 0.0000
0.3583 0.9570 0.0000
0.7338 0.4113 0.0000
0.9182 0.3582 0.0000
0.3575 0.9135 0.0000
0.3585 0.8699 0.0000
0.4020 0.7300 0.0000
0.8721 0.3546 0.0000
0.3871 0.7558 0.0000
0.3627 0.8272 0.0000
0.3723 0.7881 0.0000
0.7509 0.3845 0.0000
0.7810 0.3713 0.0000
0.7259 0.3928 0.0000
0.8206 0.3501 0.0000
0.3838 0.7214 0.0000
1.0000 0.3200 0.0000
0.3200 1.0000 0.0000
0.9609 0.3186 0.0000
0.3188 0.9571 0.0000
0.3655 0.7452 0.0000
0.7165 0.3750 0.0000
0.3191 0.9130 0.0000
0.7387 0.3639 0.0000
0.9203 0.3164 0.0000
0.3226 0.8674 0.0000
0.7625 0.3483 0.0000
0.3295 0.8214 0.0000
0.3412 0.7756 0.0000
0.3664 0.7113 0.0000
0.8783 0.3117 0.0000
0.3501 0.7297 0.0000
0.7057 0.3580 0.0000
0.7858 0.3237 0.0000
0.7257 0.3455 0.0000
0.3355 0.7477 0.0000
0.8363 0.3032 0.0000
0.3498 0.6999 0.0000
0.7447 0.3291 0.0000
1.0000 0.2800 0.0000
0.2800 1.0000 0.0000
0.2794 0.9569 0.0000
0.9615 0.2779 0.0000
0.3326 0.7179 0.0000
0.2801 0.9127 0.0000
0.6936 0.3419 0.0000
0.2847 0.8665 0.0000
0.9228 0.2753 0.0000
0.7128 0.3285 0.0000
0.2921 0.8195 0.0000
0.7602 0.3086 0.0000
0.3033 0.7758 0.0000
0.3147 0.7412 0.0000
0.3342 0.6871 0.0000
0.7305 0.3141 0.0000
0.8833 0.2705 0.0000
0.7998 0.2876 0.0000
0.7436 0.3019 0.0000
0.6803 0.3268 0.0000
0.3147 0.7039 0.0000
0.6989 0.3111 0.0000
0.8465 0.2623 0.0000
0.3197 0.6732 0.0000
0.7181 0.2951 0.0000
0.7660 0.2772 0.0000
1.0000 0.2400 0.0000
0.2400 1.0000 0.0000
0.2395 0.9570 0.0000
0.9623 0.2379 0.0000
0.3033 0.6872 0.0000
0.2867 0.7266 0.0000
0.7391 0.2819 0.0000
0.6658 0.3129 0.0000
0.2402 0.9130 0.0000
0.2441 0.8665 0.0000
0.9241 0.2355 0.0000
0.2521 0.8179 0.0000
0.2648 0.7698 0.0000
0.2877 0.7007 0.0000
0.3064 0.6581 0.0000
0.6834 0.2942 0.0000
0.8864 0.2325 0.0000
0.8108 0.2442 0.0000
0.2899 0.6725 0.0000
0.6502 0.3001 0.0000
0.8557 0.2306 0.0000
0.7030 0.2743 0.0000
0.2943 0.6420 0.0000
0.2710 0.6909 0.0000
0.7273 0.2535 0.0000
0.6657 0.2787 0.0000
1.0000 0.2000 0.0000
0.2000 1.0000 0.0000
0.6336 0.2887 0.0000
0.2514 0.7173 0.0000
0.2756 0.6564 0.0000
0.1992 0.9576 0.0000
0.9620 0.1981 0.0000
0.7627 0.2311 0.0000
0.1993 0.9141 0.0000
0.9233 0.1961 0.0000
0.2835 0.6250 0.0000
0.2019 0.8680 0.0000
0.6830 0.2545 0.0000
0.2075 0.8181 0.0000
0.8823 0.1948 0.0000
0.2539 0.6737 0.0000
0.6460 0.2652 0.0000
0.6162 0.2786 0.0000
0.8346 0.1977 0.0000
0.2163 0.7604 0.0000
0.2633 0.6381 0.0000
0.2741 0.6072 0.0000
0.7040 0.2284 0.0000
0.2284 0.6955 0.0000
0.6248 0.2559 0.0000
0.5980 0.2700 0.0000
0.6595 0.2370 0.0000
0.7292 0.2095 0.0000
0.2397 0.6531 0.0000
0.2516 0.6187 0.0000
1.0000 0.1600 0.0000
0.1600 1.0000 0.0000
0.2662 0.5887 0.0000
0.1588 0.9585 0.0000
0.9622 0.1583 0.0000
0.1581 0.9163 0.0000
0.9233 0.1564 0.0000
0.6042 0.2491 0.0000
0.5792 0.2629 0.0000
0.1589 0.8722 0.0000
0.1958 0.7202 0.0000
0.8836 0.1548 0.0000
0.2123 0.6706 0.0000
0.6322 0.2291 0.0000
0.2599 0.5696 0.0000
0.7803 0.1720 0.0000
0.1609 0.8259 0.0000
0.2262 0.6315 0.0000
0.2418 0.5979 0.0000
0.8442 0.1523 0.0000
0.5598 0.2573 0.0000
0.5842 0.2424 0.0000
0.6765 0.1983 0.0000
0.1621 0.7781 0.0000
0.6083 0.2254 0.0000
0.2550 0.5500 0.0000
0.8115 0.1450 0.0000
0.1814 0.6889 0.0000
0.2335 0.5759 0.0000
0.1986 0.6460 0.0000
0.7210 0.1689 0.0000
0.5401 0.2532 0.0000
0.2141 0.6084 0.0000
0.5648 0.2361 0.0000
1.0000 0.1200 0.0000
0.1200 1.0000 0.0000
0.5886 0.2216 0.0000
0.6361 0.1981 0.0000
0.9623 0.1186 0.0000
0.1185 0.9594 0.0000
0.2518 0.5301 0.0000
0.1554 0.7378 0.0000
0.9238 0.1169 0.0000
0.1171 0.9188 0.0000
0.5201 0.2508 0.0000
0.6081 0.2005 0.0000
0.1177 0.8757 0.0000
0.8845 0.1155 0.0000
0.2278 0.5529 0.0000
0.5447 0.2310 0.0000
0.5916 0.2048 0.0000
0.2502 0.5101 0.0000
0.5703 0.2140 0.0000
0.1692 0.6615 0.0000
0.1178 0.8329 0.0000
0.2039 0.5833 0.0000
0.1845 0.6209 0.0000
0.8462 0.1139 0.0000
0.5000 0.2500 0.0000
0.1474 0.7037 0.0000
0.5242 0.2284 0.0000
0.2502 0.4899 0.0000
0.8095 0.1132 0.0000
0.1175 0.7897 0.0000
0.2245 0.5293 0.0000
0.6911 0.1470 0.0000
0.6623 0.1569 0.0000
0.7718 0.1199 0.0000
0.5787 0.1926 0.0000
0.4799 0.2508 0.0000
0.5494 0.2063 0.0000
0.6277 0.1636 0.0000
0.2518 0.4699 0.0000
0.1972 0.5560 0.0000
0.1405 0.6744 0.0000
0.5036 0.2260 0.0000
0.5965 0.1735 0.0000
0.1148 0.7499 0.0000
1.0000 0.0800 0.0000
0.0800 1.0000 0.0000
0.2237 0.5060 0.0000
0.1547 0.6362 0.0000
0.7277 0.1206 0.0000
0.4599 0.2532 0.0000
0.9618 0.0790 0.0000
0.0786 0.9601 0.0000
0.1700 0.5930 0.0000
0.9229 0.0780 0.0000
0.0778 0.9196 0.0000
0.2550 0.4500 0.0000
0.5267 0.2034 0.0000
0.4402 0.2573 0.0000
0.8839 0.0770 0.0000
0.0771 0.8790 0.0000
0.1358 0.6525 0.0000
0.2250 0.4832 0.0000
0.1115 0.7133 0.0000
0.1942 0.5282 0.0000
0.2599 0.4304 0.0000
0.5565 0.1781 0.0000
0.4830 0.2210 0.0000
[...]
         <PointData>
            <DataArray Name="Displacement" NumberOfComponents="3" format="ascii" type="Float64">
-1.68589e-17  9.50000e-01        00000 
 9.78211e-18  9.50000e-01        00000 
-2.67908e-02  9.13360e-01        00000 
-1.72600e-02  9.19537e-01        00000 
-4.05362e-02  8.79829e-01        00000 
-6.49697e-18  9.50000e-01        00000 
-3.13846e-02  8.87186e-01        00000 
-1.19786e-02  9.22132e-01        00000 
-2.32782e-02  8.93313e-01        00000 
-5.17478e-02  8.46602e-01        00000 
 2.13111e-18  9.50000e-01        00000 
-4.18749e-02  8.55771e-01        00000 
-8.50228e-03  9.23638e-01        00000 
-3.25850e-02  8.65389e-01        00000 
-1.76795e-02  8.96391e-01        00000 
-2.55214e-02  8.73137e-01        00000 
-5.10229e-02  8.23516e-01        00000 
-6.16977e-02  8.12691e-01        00000 
-1.16027e-18  9.50000e-01        00000 
-5.93126e-03  9.23902e-01        00000 
-3.97166e-02  8.36779e-01        00000 
-1.40769e-02  8.94530e-01        00000 
-2.62539e-02  8.57467e-01        00000 
-6.04866e-02  7.88082e-01        00000 
-7.11771e-02  7.77906e-01        00000 
-6.16751e-19  9.50000e-01        00000 
-3.27150e-03  9.25346e-01        00000 
-4.93783e-02  8.00097e-01        00000 
-8.71097e-03  8.97879e-01        00000 
-3.70762e-02  8.15473e-01        00000 
-1.64468e-02  8.65501e-01        00000 
-6.98754e-02  7.51273e-01        00000 
-8.03373e-02  7.42065e-01        00000 
-3.29165e-19  9.50000e-01        00000 
-8.11612e-04  9.28035e-01        00000 
-5.87120e-02  7.62512e-01        00000 
-3.58620e-03  9.04154e-01        00000 
-2.54774e-02  8.28607e-01        00000 
-4.70285e-02  7.75429e-01        00000 
-8.25738e-03  8.76871e-01        00000 
-7.85349e-02  7.13307e-01        00000 
-8.90631e-02  7.04936e-01        00000 
 7.50046e-19  9.50000e-01        00000 
-6.75857e-02  7.23324e-01        00000 
 1.09265e-03  9.31007e-01        00000 
-3.58766e-02  7.89022e-01        00000 
 3.49528e-04  9.11509e-01        00000 
-5.64756e-02  7.34575e-01        00000 
-1.44255e-02  8.44716e-01        00000 
-1.75702e-03  8.90940e-01        00000 
-8.64548e-02  6.73350e-01        00000 
-9.70647e-02  6.66337e-01        00000 
-7.62690e-19  9.50000e-01        00000 
-2.60651e-02  8.05649e-01        00000 
-7.55245e-02  6.82602e-01        00000 
 2.33551e-03  9.34121e-01        00000 
-4.57090e-02  7.45828e-01        00000 
-6.53243e-02  6.95082e-01        00000 
 2.85960e-03  9.18228e-01        00000 
-4.75945e-03  8.72040e-01        00000 
-3.38139e-02  7.76199e-01        00000 
-1.33576e-02  8.39563e-01        00000 
 1.99153e-03  9.02052e-01        00000 
-2.18252e-02  8.12239e-01        00000 
-1.03945e-01  6.26153e-01        00000 
 8.89751e-20  9.50000e-01        00000 
-5.74753e-02  6.99278e-01        00000 
-9.30858e-02  6.30300e-01        00000 
-7.07407e-02  6.64136e-01        00000 
-2.80866e-02  7.91614e-01        00000 
 2.85077e-03  9.36830e-01        00000 
-6.27060e-03  8.62981e-01        00000 
-8.09768e-02  6.37132e-01        00000 
-9.02468e-05  8.87405e-01        00000 
-4.42585e-02  7.30085e-01        00000 
-3.57264e-02  7.61194e-01        00000 
 3.94668e-03  9.24137e-01        00000 
-2.50322e-03  8.77065e-01        00000 
-6.56366e-02  6.60377e-01        00000 
-2.86676e-02  7.86663e-01        00000 
-1.31605e-02  8.41373e-01        00000 
-5.26736e-02  6.93016e-01        00000 
-2.12238e-02  8.14260e-01        00000 
 3.74946e-03  9.10987e-01        00000 
-6.63900e-03  8.63525e-01        00000 
-1.09436e-01  5.84457e-01        00000 
-3.29424e-20  9.50000e-01        00000 
-9.92034e-02  5.84973e-01        00000 
-7.33813e-02  6.23028e-01        00000 
-1.87344e-03  8.80850e-01        00000 
 2.61257e-03  9.39318e-01        00000 
-3.58100e-02  7.52736e-01        00000 
-5.96692e-02  6.55344e-01        00000 
-3.00416e-02  7.79639e-01        00000 
-4.20330e-02  7.22110e-01        00000 
-8.88873e-02  5.84744e-01        00000 
 2.23884e-03  8.97772e-01        00000 
-2.50366e-02  8.03361e-01        00000 
-1.88307e-02  8.29450e-01        00000 
 3.77716e-03  9.28981e-01        00000 
-1.33444e-02  8.48411e-01        00000 
-2.22677e-02  8.18162e-01        00000 
-4.80810e-02  6.87857e-01        00000 
-7.95179e-03  8.67111e-01        00000 
-6.57229e-02  6.15990e-01        00000 
 4.05270e-03  9.19508e-01        00000 
-3.04098e-02  7.77212e-01        00000 
-7.95451e-02  5.78585e-01        00000 
-2.64136e-02  8.01872e-01        00000 
-3.43822e-03  8.83197e-01        00000 
-3.47147e-02  7.49423e-01        00000 
-2.30551e-02  8.21914e-01        00000 
-1.13244e-01  5.41378e-01        00000 
 2.46255e-19  9.50000e-01        00000 
-5.35217e-02  6.51136e-01        00000 
-1.94447e-02  8.39079e-01        00000 
-3.90755e-02  7.18958e-01        00000 
-1.03288e-01  5.39819e-01        00000 
-1.51615e-02  8.56712e-01        00000 
 1.80775e-03  9.40834e-01        00000 
 4.24911e-05  8.96836e-01        00000 
 3.40493e-03  9.12222e-01        00000 
-1.09042e-02  8.72997e-01        00000 
-9.34036e-02  5.37779e-01        00000 
-4.31833e-02  6.85260e-01        00000 
 2.62071e-03  9.32493e-01        00000 
-2.70882e-02  8.05750e-01        00000 
-2.43029e-02  8.29094e-01        00000 
-7.04506e-02  5.74178e-01        00000 
-5.80307e-02  6.12421e-01        00000 
-2.99021e-02  7.79519e-01        00000 
-2.15046e-02  8.49376e-01        00000 
-7.07418e-03  8.87342e-01        00000 
-3.26731e-02  7.50647e-01        00000 
-4.69918e-02  6.49440e-01        00000 
-1.86135e-02  8.66940e-01        00000 
 2.93465e-03  9.25330e-01        00000 
-8.31079e-02  5.34650e-01        00000 
-3.53598e-02  7.19302e-01        00000 
 1.63934e-03  9.09184e-01        00000 
-1.57370e-02  8.81845e-01        00000 
-3.85083e-03  8.99190e-01        00000 
-3.78844e-02  6.85764e-01        00000 
-6.15734e-02  5.72415e-01        00000 
-1.15176e-01  4.97297e-01        00000 
-3.79798e-19  9.50000e-01        00000 
 2.71845e-03  9.20101e-01        00000 
-5.01217e-02  6.11478e-01        00000 
-1.05181e-01  4.95456e-01        00000 
-1.29072e-02  8.94206e-01        00000 
-7.32336e-02  5.32560e-01        00000 
 5.93832e-04  9.41417e-01        00000 
-4.01333e-02  6.50247e-01        00000 
-9.50561e-02  4.93319e-01        00000 
-1.78431e-03  9.09394e-01        00000 
 7.60291e-04  9.34011e-01        00000 
 1.81755e-03  9.17300e-01        00000 
-1.01459e-02  9.04125e-01        00000 
-5.26652e-02  5.72227e-01        00000 
-8.44214e-02  4.91370e-01        00000 
-6.36900e-02  5.31134e-01        00000 
 9.50164e-04  9.27928e-01        00000 
-4.20570e-02  6.13059e-01        00000 
-7.46454e-03  9.11910e-01        00000 
-4.57564e-04  9.16688e-01        00000 
 1.06213e-03  9.23834e-01        00000 
-7.41507e-02  4.91327e-01        00000 
-4.35647e-02  5.74542e-01        00000 
 1.06046e-03  9.21604e-01        00000 
-5.41799e-02  5.31862e-01        00000 
-1.15148e-01  4.52867e-01        00000 
 1.73915e-19  9.50000e-01        00000 
-1.04974e-01  4.51290e-01        00000 
-4.85784e-03  9.17459e-01        00000 
-8.23864e-04  9.41056e-01        00000 
-6.44390e-02  4.91853e-01        00000 
-9.43111e-02  4.49048e-01        00000 
-6.01652e-06  9.21027e-01        00000 
-1.36654e-03  9.33081e-01        00000 
-4.46063e-02  5.35029e-01        00000 
-8.31995e-02  4.47372e-01        00000 
 1.94488e-04  9.22709e-01        00000 
-5.47915e-02  4.92480e-01        00000 
-1.52404e-03  9.26683e-01        00000 
-2.35687e-03  9.20847e-01        00000 
-7.32105e-02  4.50903e-01        00000 
-8.72341e-04  9.23177e-01        00000 
 6.22419e-05  9.22574e-01        00000 
-4.51264e-02  4.94982e-01        00000 
-6.36952e-02  4.52246e-01        00000 
 1.14650e-04  9.21947e-01        00000 
-5.43258e-02  4.52800e-01        00000 
-1.13173e-01  4.08793e-01        00000 
-4.56073e-19  9.50000e-01        00000 
-1.02712e-01  4.06617e-01        00000 
-1.97315e-04  9.21254e-01        00000 
-2.08079e-03  9.39953e-01        00000 
-9.19068e-02  4.03356e-01        00000 
-4.51145e-02  4.54696e-01        00000 
-7.01643e-02  4.12310e-01        00000 
-3.16615e-03  9.29921e-01        00000 
-6.19564e-02  4.16305e-01        00000 
-7.86419e-02  3.96338e-01        00000 
 2.43253e-03  9.20674e-01        00000 
-5.33321e-02  4.15466e-01        00000 
-2.35431e-03  9.17362e-01        00000 
-3.63750e-03  9.20143e-01        00000 
-4.45660e-02  4.14686e-01        00000 
-6.57840e-02  3.88454e-01        00000 
-1.70097e-04  9.16409e-01        00000 
-5.95603e-02  3.84581e-01        00000 
 4.79400e-03  9.17360e-01        00000 
-1.09383e-01  3.65644e-01        00000 
-1.74715e-19  9.50000e-01        00000 
-5.15985e-02  3.79099e-01        00000 
-9.91740e-02  3.62622e-01        00000 
-6.72774e-02  3.68294e-01        00000 
-2.79899e-03  9.38112e-01        00000 
-4.35207e-02  3.75230e-01        00000 
-8.87066e-02  3.57575e-01        00000 
-3.15694e-03  9.11471e-01        00000 
-1.99182e-03  9.09313e-01        00000 
-4.02689e-03  9.25940e-01        00000 
 9.83424e-04  9.09175e-01        00000 
-5.84649e-02  3.55950e-01        00000 
 7.32235e-03  9.11970e-01        00000 
-7.67102e-02  3.45846e-01        00000 
-5.00952e-02  3.46589e-01        00000 
-3.98351e-03  9.14003e-01        00000 
-4.20068e-02  3.36898e-01        00000 
-2.90815e-03  9.04081e-01        00000 
-6.51113e-02  3.27942e-01        00000 
-8.07861e-04  8.99274e-01        00000 
 3.09881e-03  8.99111e-01        00000 
 1.00279e-02  9.04297e-01        00000 
-5.60220e-02  3.20324e-01        00000 
-1.03920e-01  3.23848e-01        00000 
 3.74009e-19  9.50000e-01        00000 
-4.78525e-02  3.12006e-01        00000 
-9.39514e-02  3.19712e-01        00000 
-2.89716e-03  9.35509e-01        00000 
-4.00914e-02  2.99847e-01        00000 
-8.36669e-02  3.12977e-01        00000 
-3.68370e-03  9.20520e-01        00000 
-3.03792e-03  9.05702e-01        00000 
 1.28482e-02  8.94271e-01        00000 
-7.19246e-02  2.99279e-01        00000 
 6.21546e-03  8.86095e-01        00000 
-1.23794e-03  8.92596e-01        00000 
 1.81836e-03  8.85072e-01        00000 
-4.43710e-02  2.76212e-01        00000 
-5.12144e-02  2.80789e-01        00000 
-3.78497e-02  2.64350e-01        00000 
-5.87398e-02  2.76742e-01        00000 
 1.56459e-02  8.81822e-01        00000 
-9.70463e-02  2.83611e-01        00000 
 1.69433e-18  9.50000e-01        00000 
-8.73863e-02  2.78444e-01        00000 
-2.24574e-03  9.32673e-01        00000 
 1.00790e-02  8.70553e-01        00000 
-3.53392e-02  2.30686e-01        00000 
-2.16835e-03  9.14146e-01        00000 
-4.00901e-02  2.40363e-01        00000 
-7.72583e-02  2.70151e-01        00000 
-5.78092e-04  8.95175e-01        00000 
-4.43199e-02  2.42227e-01        00000 
 2.27912e-03  8.77547e-01        00000 
 6.63063e-03  8.64516e-01        00000 
 1.85032e-02  8.67107e-01        00000 
-6.63603e-02  2.56093e-01        00000 
 1.47679e-02  8.56159e-01        00000 
-3.26426e-02  1.99287e-01        00000 
-4.64522e-02  2.31802e-01        00000 
-3.57919e-02  2.08673e-01        00000 
 1.26703e-02  8.51222e-01        00000 
-5.49537e-02  2.34597e-01        00000 
 2.13353e-02  8.49344e-01        00000 
-3.80134e-02  2.09701e-01        00000 
-8.90725e-02  2.44980e-01        00000 
-3.93863e-19  9.50000e-01        00000 
-9.33477e-04  9.29632e-01        00000 
-7.95720e-02  2.38976e-01        00000 
 1.87681e-02  8.37925e-01        00000 
 4.64128e-04  9.07685e-01        00000 
-2.98688e-02  1.70560e-01        00000 
 3.29450e-03  8.84627e-01        00000 
-6.98982e-02  2.30471e-01        00000 
-3.17063e-02  1.81119e-01        00000 
 7.28729e-03  8.61924e-01        00000 
-3.84425e-02  2.02182e-01        00000 
 1.19816e-02  8.43971e-01        00000 
 1.63487e-02  8.33859e-01        00000 
 2.42078e-02  8.28757e-01        00000 
-3.31470e-02  1.85289e-01        00000 
-5.96485e-02  2.17617e-01        00000 
-4.36818e-02  2.05310e-01        00000 
-3.39084e-02  1.85335e-01        00000 
-2.70468e-02  1.44596e-01        00000 
 2.32277e-02  8.15716e-01        00000 
-2.73473e-02  1.55211e-01        00000 
-4.94328e-02  2.00013e-01        00000 
 2.70665e-02  8.05637e-01        00000 
-2.80216e-02  1.61446e-01        00000 
-3.43968e-02  1.79179e-01        00000 
-8.03438e-02  2.07831e-01        00000 
-5.20178e-19  9.50000e-01        00000 
 9.69872e-04  9.26852e-01        00000 
-7.11688e-02  2.01793e-01        00000 
 2.73055e-02  7.96064e-01        00000 
 2.34004e-02  8.05819e-01        00000 
-2.97008e-02  1.67052e-01        00000 
-2.42011e-02  1.21419e-01        00000 
 4.08062e-03  9.01746e-01        00000 
 8.59207e-03  8.74459e-01        00000 
-6.17751e-02  1.93840e-01        00000 
 1.39280e-02  8.46203e-01        00000 
 1.96026e-02  8.20703e-01        00000 
 2.78112e-02  7.90707e-01        00000 
 2.99130e-02  7.79536e-01        00000 
-2.27112e-02  1.31526e-01        00000 
-5.24645e-02  1.83745e-01        00000 
-3.78018e-02  1.72479e-01        00000 
 3.11892e-02  7.72284e-01        00000 
-2.13639e-02  1.01002e-01        00000 
-4.50502e-02  1.74613e-01        00000 
-2.18950e-02  1.37029e-01        00000 
 3.27122e-02  7.50617e-01        00000 
 3.22017e-02  7.69501e-01        00000 
-2.22811e-02  1.40301e-01        00000 
-1.79195e-02  1.09639e-01        00000 
-7.11737e-02  1.71993e-01        00000 
 3.60941e-19  9.50000e-01        00000 
-1.85506e-02  8.32580e-02        00000 
 3.16664e-02  7.76199e-01        00000 
 3.54239e-02  7.44194e-01        00000 
 3.32777e-03  9.24575e-01        00000 
-6.21143e-02  1.66053e-01        00000 
-2.50270e-02  1.42839e-01        00000 
 8.47554e-03  8.96891e-01        00000 
-5.29266e-02  1.58798e-01        00000 
 3.53981e-02  7.19301e-01        00000 
 1.48102e-02  8.66238e-01        00000 
-1.52547e-02  1.12810e-01        00000 
 2.21735e-02  8.32188e-01        00000 
-4.34540e-02  1.50282e-01        00000 
 3.79947e-02  7.41534e-01        00000 
-1.33548e-02  8.99491e-02        00000 
-1.57823e-02  6.80765e-02        00000 
-3.36496e-02  1.41685e-01        00000 
 3.09860e-02  7.91612e-01        00000 
 3.95200e-02  7.13627e-01        00000 
 3.78911e-02  6.85744e-01        00000 
-1.38145e-02  1.11928e-01        00000 
 4.02734e-02  7.44105e-01        00000 
-9.76043e-03  7.29071e-02        00000 
-1.30169e-02  5.55001e-02        00000 
-9.05319e-03  9.05647e-02        00000 
-1.50680e-02  1.13189e-01        00000 
 4.36534e-02  7.10661e-01        00000 
 4.35864e-02  6.80023e-01        00000 
-6.16959e-02  1.37242e-01        00000 
 1.49721e-18  9.50000e-01        00000 
 4.01393e-02  6.50246e-01        00000 
 6.02413e-03  9.22896e-01        00000 
-5.28975e-02  1.31487e-01        00000 
 1.33626e-02  8.93529e-01        00000 
-4.39459e-02  1.24704e-01        00000 
-6.99873e-03  5.92032e-02        00000 
-1.02397e-02  4.54967e-02        00000 
 2.13985e-02  8.61300e-01        00000 
 4.31357e-02  7.49910e-01        00000 
-3.51390e-02  1.17097e-01        00000 
 4.77773e-02  7.11370e-01        00000 
-4.85549e-03  7.18809e-02        00000 
 4.20586e-02  6.13033e-01        00000 
-1.80466e-02  1.07342e-01        00000 
 2.99653e-02  8.25950e-01        00000 
 4.91772e-02  6.77214e-01        00000 
 4.72345e-02  6.44353e-01        00000 
-2.67893e-02  1.08034e-01        00000 
-7.52892e-03  3.79110e-02        00000 
-4.48861e-03  4.82416e-02        00000 
-5.14672e-03  8.37608e-02        00000 
 3.93240e-02  7.87240e-01        00000 
-2.50371e-03  5.83009e-02        00000 
 4.35774e-02  5.74519e-01        00000 
-1.93783e-02  9.60919e-02        00000 
 5.21064e-02  7.14584e-01        00000 
 5.04731e-02  6.06195e-01        00000 
 5.44338e-02  6.78024e-01        00000 
-7.66470e-03  8.68119e-02        00000 
-4.93001e-03  3.25450e-02        00000 
 5.43212e-02  6.41249e-01        00000 
-2.39827e-03  3.99258e-02        00000 
-5.17383e-02  1.03373e-01        00000 
-2.90614e-18  9.50000e-01        00000 
-9.20383e-04  4.84387e-02        00000 
-1.03359e-03  6.49051e-02        00000 
-4.31496e-02  9.78182e-02        00000 
 9.06625e-03  9.21621e-01        00000 
 4.46235e-02  5.35012e-01        00000 
 4.89932e-02  7.50493e-01        00000 
-3.46947e-02  9.17173e-02        00000 
 1.86994e-02  8.91235e-01        00000 
-2.41671e-03  2.92391e-02        00000 
 6.23372e-04  5.32687e-02        00000 
 2.82615e-02  8.57650e-01        00000 
-2.67742e-02  8.56424e-02        00000 
 5.28279e-02  5.66556e-01        00000 
-9.65366e-04  3.35664e-02        00000 
 8.36408e-04  4.73397e-02        00000 
 4.51490e-02  4.94977e-01        00000 
 5.76670e-04  4.05302e-02        00000 
 5.94366e-02  6.81744e-01        00000 
 3.75275e-02  8.22855e-01        00000 
 5.88458e-02  6.02385e-01        00000 
 6.09630e-02  6.42473e-01        00000 
-1.97191e-02  7.91636e-02        00000 
 8.20467e-05  2.81705e-02        00000 
 5.74585e-02  7.16442e-01        00000 
-3.26706e-04  2.93889e-02        00000 
 4.51319e-02  4.54727e-01        00000 
-1.37134e-02  7.30458e-02        00000 
 4.68511e-02  7.86262e-01        00000 
 5.42689e-02  5.25858e-01        00000 
-1.83107e-03  6.51612e-02        00000 
 3.21752e-04  6.02394e-02        00000 
-9.10131e-03  7.04355e-02        00000 
 2.19782e-03  4.08421e-02        00000 
 2.39998e-03  2.94765e-02        00000 
 1.29325e-03  3.37672e-02        00000 
 2.41886e-03  5.10574e-02        00000 
 4.45879e-02  4.14723e-01        00000 
 6.21606e-02  5.60751e-01        00000 
 6.43255e-02  6.85117e-01        00000 
-7.32907e-05  2.75811e-02        00000 
 3.00108e-03  4.31953e-02        00000 
 5.58996e-02  7.50476e-01        00000 
-4.05017e-02  7.01538e-02        00000 
 3.95902e-18  9.50000e-01        00000 
 5.46586e-02  4.85410e-01        00000 
 6.65857e-02  6.48917e-01        00000 
-3.64828e-03  6.15295e-02        00000 
 4.73319e-03  3.27983e-02        00000 
-3.21388e-02  6.46308e-02        00000 
 1.27369e-02  9.20372e-01        00000 
 6.73988e-02  6.02559e-01        00000 
-2.43750e-02  5.98264e-02        00000 
 2.48967e-02  8.88262e-01        00000 
 4.35337e-02  3.75272e-01        00000 
 9.35093e-04  2.92081e-02        00000 
 7.25813e-03  3.81522e-02        00000 
-1.78921e-02  5.55852e-02        00000 
 3.55205e-02  8.54880e-01        00000 
 6.89265e-02  6.60822e-01        00000 
 5.41567e-02  4.45351e-01        00000 
 6.40890e-02  7.15715e-01        00000 
 6.38607e-02  5.18358e-01        00000 
 4.20110e-02  3.36799e-01        00000 
 2.62888e-03  3.29801e-02        00000 
-2.35619e-04  2.85616e-02        00000 
 1.93904e-04  2.75974e-02        00000 
-1.24515e-02  5.13780e-02        00000 
 4.93707e-04  5.03815e-02        00000 
 4.52782e-02  8.20127e-01        00000 
 1.00007e-02  4.56600e-02        00000 
 4.00664e-02  2.99648e-01        00000 
 5.28371e-02  4.06937e-01        00000 
 1.28479e-02  5.55947e-02        00000 
-7.87135e-03  4.73849e-02        00000 
 5.46266e-02  7.84683e-01        00000 
 7.17098e-02  5.57170e-01        00000 
 2.71940e-03  4.35187e-02        00000 
 3.77940e-02  2.64141e-01        00000 
 7.09125e-02  6.81805e-01        00000 
 6.41333e-02  4.76511e-01        00000 
-1.98009e-04  3.30596e-02        00000 
 1.57267e-02  6.79840e-02        00000 
 5.11065e-02  3.69537e-01        00000 
 3.52793e-02  2.30572e-01        00000 
-4.04150e-03  4.38589e-02        00000 
 1.35472e-03  2.73142e-02        00000 
 1.85587e-02  8.29894e-02        00000 
 3.26111e-02  1.99265e-01        00000 
 3.93963e-03  3.68137e-02        00000 
 2.13793e-02  1.00671e-01        00000 
 7.56305e-02  6.48852e-01        00000 
 6.34935e-02  7.49286e-01        00000 
 7.68017e-02  6.10074e-01        00000 
 2.98673e-02  1.70555e-01        00000 
 2.42115e-02  1.21165e-01        00000 
 2.70462e-02  1.44459e-01        00000 
 1.05323e-03  4.05768e-02        00000 
 4.88050e-02  3.33250e-01        00000 
 6.29329e-02  4.36181e-01        00000 
-6.43964e-18  9.50000e-01        00000 
-2.67923e-02  3.66662e-02        00000 