<?xml version="1.0" encoding="utf-8"?>
<VTKFile byte_order="LittleEndian" type="UnstructuredGrid" version="0.1">
   <UnstructuredGrid>
      <Piece NumberOfCells="641" NumberOfPoints="730">
         <Points>
            <DataArray Name="Points" NumberOfComponents="3" format="ascii" type="Float32">
1.0000 1.0000 0.0000
0.9600 1.0000 0.0000
1.0000 0.9600 0.0000
0.9603 0.9614 0.0000
1.0000 0.9200 0.0000
0.9200 1.0000 0.0000
0.9612 0.9231 0.0000
0.9211 0.9624 0.0000
0.9230 0.9260 0.0000
1.0000 0.8800 0.0000
0.8800 1.0000 0.0000
0.9614 0.8856 0.0000
0.8829 0.9623 0.0000
0.9240 0.8918 0.0000
0.8875 0.9262 0.0000
0.8933 0.8971 0.0000
0.9597 0.8473 0.0000
1.0000 0.8400 0.0000
0.8400 1.0000 0.0000
0.8440 0.9601 0.0000
0.9173 0.8563 0.0000
0.8514 0.9190 0.0000
0.8690 0.8729 0.0000
0.9592 0.8063 0.0000
1.0000 0.8000 0.0000
0.8000 1.0000 0.0000
0.8021 0.9589 0.0000
0.9165 0.8130 0.0000
0.8054 0.9165 0.0000
0.8676 0.8205 0.0000
0.8109 0.8707 0.0000
0.9597 0.7652 0.0000
1.0000 0.7600 0.0000
0.7600 1.0000 0.0000
0.7590 0.9590 0.0000
0.9161 0.7702 0.0000
0.7581 0.9167 0.0000
0.8122 0.8209 0.0000
0.8679 0.7733 0.0000
0.7569 0.8708 0.0000
0.9590 0.7242 0.0000
1.0000 0.7200 0.0000
0.7200 1.0000 0.0000
0.9153 0.7275 0.0000
0.7165 0.9591 0.0000
0.8165 0.7719 0.0000
0.7126 0.9181 0.0000
0.8686 0.7282 0.0000
0.7510 0.8174 0.0000
0.7082 0.8753 0.0000
0.9580 0.6829 0.0000
1.0000 0.6800 0.0000
0.6800 1.0000 0.0000
0.7693 0.7706 0.0000
0.9140 0.6851 0.0000
0.6742 0.9594 0.0000
0.8161 0.7213 0.0000
0.8740 0.6885 0.0000
0.6685 0.9181 0.0000
0.7012 0.8339 0.0000
0.7734 0.7344 0.0000
0.7152 0.7855 0.0000
0.6650 0.8760 0.0000
0.7356 0.7577 0.0000
1.0000 0.6400 0.0000
0.6400 1.0000 0.0000
0.8350 0.6800 0.0000
0.9558 0.6404 0.0000
0.8757 0.6585 0.0000
0.7480 0.7370 0.0000
0.6333 0.9593 0.0000
0.6862 0.8039 0.0000
0.9052 0.6395 0.0000
0.6619 0.8374 0.0000
0.7838 0.6876 0.0000
0.7581 0.7055 0.0000
0.6270 0.9175 0.0000
0.6640 0.8136 0.0000
0.8474 0.6471 0.0000
0.7341 0.7184 0.0000
0.6889 0.7621 0.0000
0.8018 0.6601 0.0000
0.7087 0.7349 0.0000
0.6240 0.8728 0.0000
0.6655 0.7821 0.0000
1.0000 0.6000 0.0000
0.6000 1.0000 0.0000
0.9579 0.5979 0.0000
0.8635 0.6181 0.0000
0.6438 0.7994 0.0000
0.5930 0.9599 0.0000
0.7406 0.6813 0.0000
0.8153 0.6317 0.0000
0.7215 0.6960 0.0000
0.7582 0.6627 0.0000
0.9144 0.5934 0.0000
0.6224 0.8262 0.0000
0.7025 0.7080 0.0000
0.6817 0.7264 0.0000
0.5880 0.9170 0.0000
0.6661 0.7445 0.0000
0.6874 0.7117 0.0000
0.7729 0.6402 0.0000
0.6462 0.7610 0.0000
0.8270 0.6029 0.0000
0.5855 0.8736 0.0000
0.7078 0.6759 0.0000
0.8731 0.5824 0.0000
0.6922 0.6895 0.0000
0.6247 0.7752 0.0000
0.7227 0.6602 0.0000
0.6777 0.7007 0.0000
1.0000 0.5600 0.0000
0.5600 1.0000 0.0000
0.7852 0.6159 0.0000
0.6645 0.7138 0.0000
0.7363 0.6426 0.0000
0.9599 0.5572 0.0000
0.6483 0.7278 0.0000
0.5542 0.9595 0.0000
0.6026 0.7897 0.0000
0.5823 0.8324 0.0000
0.6299 0.7405 0.0000
0.9195 0.5531 0.0000
0.7477 0.6223 0.0000
0.5507 0.9171 0.0000
0.6803 0.6732 0.0000
0.6658 0.6871 0.0000
0.8355 0.5722 0.0000
0.7947 0.5901 0.0000
0.6936 0.6581 0.0000
0.6502 0.6999 0.0000
0.6098 0.7514 0.0000
0.7057 0.6420 0.0000
0.7579 0.6014 0.0000
0.6336 0.7113 0.0000
0.5497 0.8744 0.0000
0.8778 0.5472 0.0000
0.7165 0.6250 0.0000
0.5740 0.7964 0.0000
0.6162 0.7214 0.0000
0.5892 0.7610 0.0000
0.7259 0.6072 0.0000
0.8020 0.5638 0.0000
1.0000 0.5200 0.0000
0.5200 1.0000 0.0000
0.5492 0.8345 0.0000
0.7657 0.5790 0.0000
0.9606 0.5179 0.0000
0.5980 0.7300 0.0000
0.8398 0.5417 0.0000
0.5158 0.9583 0.0000
0.7338 0.5887 0.0000
0.9203 0.5154 0.0000
0.5665 0.7670 0.0000
0.5131 0.9159 0.0000
0.5474 0.8009 0.0000
0.5792 0.7371 0.0000
0.7720 0.5563 0.0000
0.8787 0.5129 0.0000
0.8059 0.5366 0.0000
0.5141 0.8719 0.0000
0.7401 0.5696 0.0000
0.5598 0.7427 0.0000
0.5440 0.7719 0.0000
0.5175 0.8314 0.0000
0.8405 0.5118 0.0000
0.7450 0.5500 0.0000
0.5225 0.8010 0.0000
0.7754 0.5328 0.0000
1.0000 0.4800 0.0000
0.4800 1.0000 0.0000
0.9602 0.4791 0.0000
0.5401 0.7468 0.0000
0.4767 0.9571 0.0000
0.8069 0.5110 0.0000
0.9179 0.4782 0.0000
0.5221 0.7741 0.0000
0.4748 0.9127 0.0000
0.7482 0.5301 0.0000
0.8747 0.4784 0.0000
0.5027 0.7984 0.0000
0.7768 0.5101 0.0000
0.4760 0.8661 0.0000
0.5201 0.7492 0.0000
0.8373 0.4828 0.0000
0.4848 0.8182 0.0000
0.5012 0.7757 0.0000
0.7498 0.5101 0.0000
0.8046 0.4854 0.0000
0.5000 0.7500 0.0000
0.7754 0.4874 0.0000
1.0000 0.4400 0.0000
0.4400 1.0000 0.0000
0.9587 0.4395 0.0000
0.4799 0.7803 0.0000
0.4361 0.9573 0.0000
0.9156 0.4395 0.0000
0.7498 0.4899 0.0000
0.8291 0.4561 0.0000
0.4343 0.9109 0.0000
0.8003 0.4626 0.0000
0.8632 0.4393 0.0000
0.4799 0.7492 0.0000
0.7730 0.4662 0.0000
0.4477 0.8146 0.0000
0.4327 0.8588 0.0000
0.7482 0.4699 0.0000
0.8161 0.4410 0.0000
0.4541 0.7785 0.0000
0.7944 0.4428 0.0000
0.4599 0.7468 0.0000
1.0000 0.4000 0.0000
0.4000 1.0000 0.0000
0.7686 0.4455 0.0000
0.9592 0.3996 0.0000
0.8248 0.4242 0.0000
0.3968 0.9575 0.0000
0.7450 0.4500 0.0000
0.9170 0.3993 0.0000
0.4159 0.8309 0.0000
0.4229 0.8031 0.0000
0.3948 0.9133 0.0000
0.4316 0.7723 0.0000
0.7936 0.4233 0.0000
0.4402 0.7427 0.0000
0.8698 0.3967 0.0000
0.7652 0.4264 0.0000
0.3936 0.8689 0.0000
0.7401 0.4304 0.0000
0.3920 0.8309 0.0000
0.8264 0.3924 0.0000
0.3992 0.7968 0.0000
0.4094 0.7650 0.0000
0.4208 0.7371 0.0000
0.7903 0.3985 0.0000
1.0000 0.3600 0.0000
0.3600 1.0000 0.0000
0.7600 0.4056 0.0000
0.9598 0.3592 0.0000
0.3583 0.9570 0.0000
0.7338 0.4113 0.0000
0.9182 0.3582 0.0000
0.3575 0.9135 0.0000
0.3585 0.8699 0.0000
0.4020 0.7300 0.0000
0.8721 0.3546 0.0000
0.3871 0.7558 0.0000
0.3627 0.8272 0.0000
0.3723 0.7881 0.0000
0.7509 0.3845 0.0000
0.7810 0.3713 0.0000
0.7259 0.3928 0.0000
0.8206 0.3501 0.0000
0.3838 0.7214 0.0000
1.0000 0.3200 0.0000
0.3200 1.0000 0.0000
0.9609 0.3186 0.0000
0.3188 0.9571 0.0000
0.3655 0.7452 0.0000
0.7165 0.3750 0.0000
0.3191 0.9130 0.0000
0.7387 0.3639 0.0000
0.9203 0.3164 0.0000
0.3226 0.8674 0.0000
0.7625 0.3483 0.0000
0.3295 0.8214 0.0000
0.3412 0.7756 0.0000
0.3664 0.7113 0.0000
0.8783 0.3117 0.0000
0.3501 0.7297 0.0000
0.7057 0.3580 0.0000
0.7858 0.3237 0.0000
0.7257 0.3455 0.0000
0.3355 0.7477 0.0000
0.8363 0.3032 0.0000
0.3498 0.6999 0.0000
0.7447 0.3291 0.0000
1.0000 0.2800 0.0000
0.2800 1.0000 0.0000
0.2794 0.9569 0.0000
0.9615 0.2779 0.0000
0.3326 0.7179 0.0000
0.2801 0.9127 0.0000
0.6936 0.3419 0.0000
0.2847 0.8665 0.0000
0.9228 0.2753 0.0000
0.7128 0.3285 0.0000
0.2921 0.8195 0.0000
0.7602 0.3086 0.0000
0.3033 0.7758 0.0000
0.3147 0.7412 0.0000
0.3342 0.6871 0.0000
0.7305 0.3141 0.0000
0.8833 0.2705 0.0000
0.7998 0.2876 0.0000
0.7436 0.3019 0.0000
0.6803 0.3268 0.0000
0.3147 0.7039 0.0000
0.6989 0.3111 0.0000
0.8465 0.2623 0.0000
0.3197 0.6732 0.0000
0.7181 0.2951 0.0000
0.7660 0.2772 0.0000
1.0000 0.2400 0.0000
0.2400 1.0000 0.0000
0.2395 0.9570 0.0000
0.9623 0.2379 0.0000
0.3033 0.6872 0.0000
0.2867 0.7266 0.0000
0.7391 0.2819 0.0000
0.6658 0.3129 0.0000
0.2402 0.9130 0.0000
0.2441 0.8665 0.0000
0.9241 0.2355 0.0000
0.2521 0.8179 0.0000
0.2648 0.7698 0.0000
0.2877 0.7007 0.0000
0.3064 0.6581 0.0000
0.6834 0.2942 0.0000
0.8864 0.2325 0.0000
0.8108 0.2442 0.0000
0.2899 0.6725 0.0000
0.6502 0.3001 0.0000
0.8557 0.2306 0.0000
0.7030 0.2743 0.0000
0.2943 0.6420 0.0000
0.2710 0.6909 0.0000
0.7273 0.2535 0.0000
0.6657 0.2787 0.0000
1.0000 0.2000 0.0000
0.2000 1.0000 0.0000
0.6336 0.2887 0.0000
0.2514 0.7173 0.0000
0.2756 0.6564 0.0000
0.1992 0.9576 0.0000
0.9620 0.1981 0.0000
0.7627 0.2311 0.0000
0.1993 0.9141 0.0000
0.9233 0.1961 0.0000
0.2835 0.6250 0.0000
0.2019 0.8680 0.0000
0.6830 0.2545 0.0000
0.2075 0.8181 0.0000
0.8823 0.1948 0.0000
0.2539 0.6737 0.0000
0.6460 0.2652 0.0000
0.6162 0.2786 0.0000
0.8346 0.1977 0.0000
0.2163 0.7604 0.0000
0.2633 0.6381 0.0000
0.2741 0.6072 0.0000
0.7040 0.2284 0.0000
0.2284 0.6955 0.0000
0.6248 0.2559 0.0000
0.5980 0.2700 0.0000
0.6595 0.2370 0.0000
0.7292 0.2095 0.0000
0.2397 0.6531 0.0000
0.2516 0.6187 0.0000
1.0000 0.1600 0.0000
0.1600 1.0000 0.0000
0.2662 0.5887 0.0000
0.1588 0.9585 0.0000
0.9622 0.1583 0.0000
0.1581 0.9163 0.0000
0.9233 0.1564 0.0000
0.6042 0.2491 0.0000
0.5792 0.2629 0.0000
0.1589 0.8722 0.0000
0.1958 0.7202 0.0000
0.8836 0.1548 0.0000
0.2123 0.6706 0.0000
0.6322 0.2291 0.0000
0.2599 0.5696 0.0000
0.7803 0.1720 0.0000
0.1609 0.8259 0.0000
0.2262 0.6315 0.0000
0.2418 0.5979 0.0000
0.8442 0.1523 0.0000
0.5598 0.2573 0.0000
0.5842 0.2424 0.0000
0.6765 0.1983 0.0000
0.1621 0.7781 0.0000
0.6083 0.2254 0.0000
0.2550 0.5500 0.0000
0.8115 0.1450 0.0000
0.1814 0.6889 0.0000
0.2335 0.5759 0.0000
0.1986 0.6460 0.0000
0.7210 0.1689 0.0000
0.5401 0.2532 0.0000
0.2141 0.6084 0.0000
0.5648 0.2361 0.0000
1.0000 0.1200 0.0000
0.1200 1.0000 0.0000
0.5886 0.2216 0.0000
0.6361 0.1981 0.0000
0.9623 0.1186 0.0000
0.1185 0.9594 0.0000
0.2518 0.5301 0.0000
0.1554 0.7378 0.0000
0.9238 0.1169 0.0000
0.1171 0.9188 0.0000
0.5201 0.2508 0.0000
0.6081 0.2005 0.0000
0.1177 0.8757 0.0000
0.8845 0.1155 0.0000
0.2278 0.5529 0.0000
0.5447 0.2310 0.0000
0.5916 0.2048 0.0000
0.2502 0.5101 0.0000
0.5703 0.2140 0.0000
0.1692 0.6615 0.0000
0.1178 0.8329 0.0000
0.2039 0.5833 0.0000
0.1845 0.6209 0.0000
0.8462 0.1139 0.0000
0.5000 0.2500 0.0000
0.1474 0.7037 0.0000
0.5242 0.2284 0.0000
0.2502 0.4899 0.0000
0.8095 0.1132 0.0000
0.1175 0.7897 0.0000
0.2245 0.5293 0.0000
0.6911 0.1470 0.0000
0.6623 0.1569 0.0000
0.7718 0.1199 0.0000
0.5787 0.1926 0.0000
0.4799 0.2508 0.0000
0.5494 0.2063 0.0000
0.6277 0.1636 0.0000
0.2518 0.4699 0.0000
0.1972 0.5560 0.0000
0.1405 0.6744 0.0000
0.5036 0.2260 0.0000
0.5965 0.1735 0.0000
0.1148 0.7499 0.0000
1.0000 0.0800 0.0000
0.0800 1.0000 0.0000
0.2237 0.5060 0.0000
0.1547 0.6362 0.0000
0.7277 0.1206 0.0000
0.4599 0.2532 0.0000
0.9618 0.0790 0.0000
0.0786 0.9601 0.0000
0.1700 0.5930 0.0000
0.9229 0.0780 0.0000
0.0778 0.9196 0.0000
0.2550 0.4500 0.0000
0.5267 0.2034 0.0000
0.4402 0.2573 0.0000
0.8839 0.0770 0.0000
0.0771 0.8790 0.0000
0.1358 0.6525 0.0000
0.2250 0.4832 0.0000
0.1115 0.7133 0.0000
0.1942 0.5282 0.0000
0.2599 0.4304 0.0000
0.5565 0.1781 0.0000
0.4830 0.2210 0.0000
[...]
         <PointData>
            <DataArray Name="Displacement" NumberOfComponents="3" format="ascii" type="Float64">
 5.61965e-18  8.00000e-01        00000 
-4.89106e-18  8.00000e-01        00000 
-2.35548e-02  7.67892e-01        00000 
-1.50360e-02  7.73758e-01        00000 
-3.57095e-02  7.38973e-01        00000 
-1.43844e-18  8.00000e-01        00000 
-2.75443e-02  7.45831e-01        00000 
-1.03644e-02  7.76159e-01        00000 
-2.03169e-02  7.51431e-01        00000 
-4.57418e-02  7.10441e-01        00000 
 1.48251e-18  8.00000e-01        00000 
-3.69306e-02  7.18833e-01        00000 
-7.29301e-03  7.77552e-01        00000 
-2.86333e-02  7.27468e-01        00000 
-1.53454e-02  7.54255e-01        00000 
-2.23418e-02  7.34331e-01        00000 
-4.52344e-02  6.91252e-01        00000 
-5.47719e-02  6.81428e-01        00000 
 1.16027e-18  8.00000e-01        00000 
-5.00999e-03  7.77855e-01        00000 
-3.51195e-02  7.03054e-01        00000 
-1.21448e-02  7.52812e-01        00000 
-2.30452e-02  7.21097e-01        00000 
-5.39461e-02  6.61067e-01        00000 
-6.34928e-02  6.51794e-01        00000 
 1.32161e-18  8.00000e-01        00000 
-2.65257e-03  7.79155e-01        00000 
-4.40119e-02  6.71790e-01        00000 
-7.38725e-03  7.55828e-01        00000 
-3.29948e-02  6.85303e-01        00000 
-1.43381e-02  7.28258e-01        00000 
-6.27098e-02  6.29854e-01        00000 
-7.20312e-02  6.21421e-01        00000 
 3.05653e-19  8.00000e-01        00000 
-4.80284e-04  7.81505e-01        00000 
-5.27528e-02  6.39903e-01        00000 
-2.85229e-03  7.61322e-01        00000 
-2.26546e-02  6.96863e-01        00000 
-4.23294e-02  6.51297e-01        00000 
-7.06811e-03  7.38214e-01        00000 
-7.09250e-02  5.97859e-01        00000 
-8.02663e-02  5.90156e-01        00000 
-1.32361e-19  8.00000e-01        00000 
-6.12102e-02  6.06835e-01        00000 
 1.19297e-03  7.84091e-01        00000 
-3.24055e-02  6.63230e-01        00000 
 6.14404e-04  7.67721e-01        00000 
-5.13679e-02  6.16782e-01        00000 
-1.28205e-02  7.10989e-01        00000 
-1.30530e-03  7.50432e-01        00000 
-7.85538e-02  5.64386e-01        00000 
-8.79042e-02  5.57874e-01        00000 
 1.90672e-19  8.00000e-01        00000 
-2.36634e-02  6.77727e-01        00000 
-6.89179e-02  5.72662e-01        00000 
 2.26968e-03  7.86793e-01        00000 
-4.19317e-02  6.26757e-01        00000 
-5.98876e-02  5.83539e-01        00000 
 2.80094e-03  7.73578e-01        00000 
-4.14493e-03  7.34573e-01        00000 
-3.11282e-02  6.52833e-01        00000 
-1.21500e-02  7.06996e-01        00000 
 1.97772e-03  7.60115e-01        00000 
-2.00503e-02  6.83678e-01        00000 
-9.45408e-02  5.24481e-01        00000 
-4.44876e-20  8.00000e-01        00000 
-5.31478e-02  5.87479e-01        00000 
-8.50623e-02  5.28535e-01        00000 
-6.52148e-02  5.57628e-01        00000 
-2.59818e-02  6.66155e-01        00000 
 2.69271e-03  7.89148e-01        00000 
-5.67844e-03  7.27111e-01        00000 
-7.45199e-02  5.34767e-01        00000 
-1.59018e-05  7.47914e-01        00000 
-4.13325e-02  6.13995e-01        00000 
-3.33956e-02  6.40474e-01        00000 
 3.71101e-03  7.78731e-01        00000 
-2.28581e-03  7.39241e-01        00000 
-6.09723e-02  5.54789e-01        00000 
-2.68592e-02  6.62247e-01        00000 
-1.22427e-02  7.08902e-01        00000 
-4.93430e-02  5.82698e-01        00000 
-1.98835e-02  6.85819e-01        00000 
 3.46873e-03  7.67943e-01        00000 
-6.20099e-03  7.27882e-01        00000 
-9.98849e-02  4.90007e-01        00000 
 3.95309e-19  8.00000e-01        00000 
-9.10267e-02  4.90893e-01        00000 
-6.82649e-02  5.23432e-01        00000 
-1.83662e-03  7.42723e-01        00000 
 2.43705e-03  7.91300e-01        00000 
-3.40425e-02  6.33851e-01        00000 
-5.60524e-02  5.51011e-01        00000 
-2.86026e-02  6.56737e-01        00000 
-3.99454e-02  6.07892e-01        00000 
-8.21366e-02  4.91081e-01        00000 
 1.94511e-03  7.57096e-01        00000 
-2.38888e-02  6.76974e-01        00000 
-1.79435e-02  6.99157e-01        00000 
 3.49852e-03  7.82954e-01        00000 
-1.26766e-02  7.15265e-01        00000 
-2.13612e-02  6.89711e-01        00000 
-4.57398e-02  5.78974e-01        00000 
-7.60937e-03  7.31256e-01        00000 
-6.18479e-02  5.17971e-01        00000 
 3.67766e-03  7.75341e-01        00000 
-2.94861e-02  6.55330e-01        00000 
-7.41760e-02  4.86290e-01        00000 
-2.56377e-02  6.76251e-01        00000 
-3.44166e-03  7.45046e-01        00000 
-3.36263e-02  6.31785e-01        00000 
-2.23898e-02  6.93261e-01        00000 
-1.03614e-01  4.54529e-01        00000 
-1.67901e-19  8.00000e-01        00000 
-5.09692e-02  5.48033e-01        00000 
-1.88302e-02  7.07753e-01        00000 
-3.78229e-02  6.06011e-01        00000 
-9.50187e-02  4.53522e-01        00000 
-1.46520e-02  7.22696e-01        00000 
 1.67610e-03  7.92623e-01        00000 
-2.57514e-04  7.56704e-01        00000 
 2.94942e-03  7.69542e-01        00000 
-1.05608e-02  7.36563e-01        00000 
-8.65009e-02  4.52057e-01        00000 
-4.18024e-02  5.77554e-01        00000 
 2.41001e-03  7.86005e-01        00000 
-2.67848e-02  6.80283e-01        00000 
-2.39879e-02  6.99948e-01        00000 
-6.63965e-02  4.82942e-01        00000 
-5.53183e-02  5.15462e-01        00000 
-2.95812e-02  6.58156e-01        00000 
-2.11551e-02  7.17020e-01        00000 
-6.94255e-03  7.48817e-01        00000 
-3.23102e-02  6.33773e-01        00000 
-4.54710e-02  5.47292e-01        00000 
-1.82290e-02  7.31803e-01        00000 
 2.64104e-03  7.80379e-01        00000 
-7.76364e-02  4.49666e-01        00000 
-3.49349e-02  6.07268e-01        00000 
 1.18625e-03  7.67277e-01        00000 
-1.53240e-02  7.44353e-01        00000 
-3.94185e-03  7.58934e-01        00000 
-3.73873e-02  5.78876e-01        00000 
-5.87324e-02  4.81828e-01        00000 
-1.05514e-01  4.18309e-01        00000 
 2.37374e-19  8.00000e-01        00000 
 2.34162e-03  7.76312e-01        00000 
-4.84984e-02  5.15240e-01        00000 
-9.68790e-02  4.16884e-01        00000 
-1.24903e-02  7.54768e-01        00000 
-6.91050e-02  4.48125e-01        00000 
 5.49321e-04  7.93146e-01        00000 
-3.95621e-02  5.48775e-01        00000 
-8.81376e-02  4.15185e-01        00000 
-2.02258e-03  7.67620e-01        00000 
 6.98213e-04  7.87343e-01        00000 
 1.40243e-03  7.74182e-01        00000 
-9.76417e-03  7.63129e-01        00000 
-5.09460e-02  4.82092e-01        00000 
-7.89476e-02  4.13626e-01        00000 
-6.07977e-02  4.47150e-01        00000 
 8.51995e-04  7.82657e-01        00000 
-4.14159e-02  5.17232e-01        00000 
-7.15556e-03  7.69690e-01        00000 
-7.40061e-04  7.73779e-01        00000 
 9.07438e-04  7.79540e-01        00000 
-7.00365e-02  4.13648e-01        00000 
-4.28649e-02  4.84540e-01        00000 
 8.22365e-04  7.77837e-01        00000 
-5.24202e-02  4.48013e-01        00000 
-1.05486e-01  3.81829e-01        00000 
-2.93482e-19  8.00000e-01        00000 
-9.66876e-02  3.80429e-01        00000 
-4.64991e-03  7.74352e-01        00000 
-7.62038e-04  7.92851e-01        00000 
-6.15484e-02  4.14154e-01        00000 
-8.74741e-02  3.78478e-01        00000 
-1.93286e-04  7.77410e-01        00000 
-1.25016e-03  7.86583e-01        00000 
-4.38642e-02  4.50987e-01        00000 
-7.78643e-02  3.76985e-01        00000 
 1.57737e-04  7.78774e-01        00000 
-5.30226e-02  4.14759e-01        00000 
-1.35228e-03  7.81653e-01        00000 
-2.25740e-03  7.77187e-01        00000 
-6.92054e-02  3.79837e-01        00000 
-7.19897e-04  7.79087e-01        00000 
 4.56823e-05  7.78698e-01        00000 
-4.43628e-02  4.16971e-01        00000 
-6.08863e-02  3.80872e-01        00000 
 1.00413e-04  7.78106e-01        00000 
-5.26044e-02  3.81243e-01        00000 
-1.03544e-01  3.45611e-01        00000 
 1.16197e-20  8.00000e-01        00000 
-9.44819e-02  3.43522e-01        00000 
-2.19921e-05  7.77594e-01        00000 
-1.93188e-03  7.91891e-01        00000 
-8.51299e-02  3.40564e-01        00000 
-4.43514e-02  3.82749e-01        00000 
-6.64127e-02  3.47502e-01        00000 
-2.91385e-03  7.83865e-01        00000 
-5.92682e-02  3.50649e-01        00000 
-7.36524e-02  3.34409e-01        00000 
 2.32730e-03  7.77044e-01        00000 
-5.16612e-02  3.49700e-01        00000 
-1.92843e-03  7.74133e-01        00000 
-3.24281e-03  7.76090e-01        00000 
-4.38257e-02  3.48764e-01        00000 
-6.24593e-02  3.27427e-01        00000 
 1.66266e-04  7.73527e-01        00000 
-5.70239e-02  3.23941e-01        00000 
 4.60096e-03  7.74272e-01        00000 
-9.98330e-02  3.10073e-01        00000 
 4.36788e-20  8.00000e-01        00000 
-5.00117e-02  3.18963e-01        00000 
-9.09603e-02  3.07123e-01        00000 
-6.35854e-02  3.10657e-01        00000 
-2.61775e-03  7.90287e-01        00000 
-4.28220e-02  3.15254e-01        00000 
-8.18681e-02  3.02554e-01        00000 
-2.71874e-03  7.68898e-01        00000 
-1.53464e-03  7.67324e-01        00000 
-3.74369e-03  7.80364e-01        00000 
 1.28845e-03  7.67414e-01        00000 
-5.58664e-02  2.99909e-01        00000 
 7.03724e-03  7.69740e-01        00000 
-7.14104e-02  2.92375e-01        00000 
-4.85263e-02  2.91523e-01        00000 
-3.62997e-03  7.70626e-01        00000 
-4.13653e-02  2.82718e-01        00000 
-2.53081e-03  7.62510e-01        00000 
-6.12381e-02  2.76956e-01        00000 
-4.63739e-04  7.58733e-01        00000 
 3.24396e-03  7.58843e-01        00000 
 9.66356e-03  7.63275e-01        00000 
-5.33911e-02  2.70016e-01        00000 
-9.45184e-02  2.75519e-01        00000 
-3.74009e-19  8.00000e-01        00000 
-4.63160e-02  2.62352e-01        00000 
-8.58092e-02  2.71522e-01        00000 
-2.74731e-03  7.88032e-01        00000 
-3.95194e-02  2.51293e-01        00000 
-7.68178e-02  2.65448e-01        00000 
-3.49730e-03  7.75642e-01        00000 
-2.85326e-03  7.63389e-01        00000 
 1.24385e-02  7.54815e-01        00000 
-6.64977e-02  2.53549e-01        00000 
 6.12364e-03  7.47710e-01        00000 
-1.07807e-03  7.52585e-01        00000 
 1.89476e-03  7.46530e-01        00000 
-4.29519e-02  2.32125e-01        00000 
-4.87035e-02  2.36777e-01        00000 
-3.73533e-02  2.21212e-01        00000 
-5.48789e-02  2.34114e-01        00000 
 1.52320e-02  7.44318e-01        00000 
-8.78873e-02  2.42081e-01        00000 
 3.91000e-19  8.00000e-01        00000 
-7.93942e-02  2.37148e-01        00000 
-2.20220e-03  7.85566e-01        00000 
 9.74205e-03  7.34402e-01        00000 
-3.49161e-02  1.92710e-01        00000 
-2.20176e-03  7.70096e-01        00000 
-3.88374e-02  2.01816e-01        00000 
-7.04693e-02  2.29707e-01        00000 
-7.15837e-04  7.54249e-01        00000 
-4.21968e-02  2.04155e-01        00000 
 2.03165e-03  7.39562e-01        00000 
 6.25085e-03  7.28832e-01        00000 
 1.81158e-02  7.31935e-01        00000 
-6.08031e-02  2.17485e-01        00000 
 1.42394e-02  7.22175e-01        00000 
-3.22829e-02  1.66159e-01        00000 
-4.35161e-02  1.95966e-01        00000 
-3.46976e-02  1.75012e-01        00000 
 1.20281e-02  7.17648e-01        00000 
-5.05832e-02  1.99012e-01        00000 
 2.09918e-02  7.16987e-01        00000 
-3.62297e-02  1.76584e-01        00000 
-8.02730e-02  2.09774e-01        00000 
-4.86536e-19  8.00000e-01        00000 
-1.06178e-03  7.82927e-01        00000 
-7.18717e-02  2.04096e-01        00000 
 1.80935e-02  7.06653e-01        00000 
 9.99227e-05  7.64468e-01        00000 
-2.95502e-02  1.41901e-01        00000 
 2.68896e-03  7.45057e-01        00000 
-6.32963e-02  1.96446e-01        00000 
-3.07255e-02  1.51734e-01        00000 
 6.46521e-03  7.25969e-01        00000 
-3.61150e-02  1.70727e-01        00000 
 1.10266e-02  7.10972e-01        00000 
 1.54096e-02  7.02701e-01        00000 
 2.38912e-02  6.99659e-01        00000 
-3.15906e-02  1.55892e-01        00000 
-5.41586e-02  1.85204e-01        00000 
-4.03018e-02  1.74000e-01        00000 
-3.19607e-02  1.56295e-01        00000 
-2.67422e-02  1.20008e-01        00000 
 2.24147e-02  6.87798e-01        00000 
-2.64524e-02  1.29870e-01        00000 
-4.49687e-02  1.70013e-01        00000 
 2.67609e-02  6.80194e-01        00000 
-2.65964e-02  1.35771e-01        00000 
-3.18519e-02  1.51589e-01        00000 
-7.20347e-02  1.78496e-01        00000 
 3.90134e-19  8.00000e-01        00000 
 6.12828e-04  7.80504e-01        00000 
-6.38916e-02  1.72779e-01        00000 
 2.64679e-02  6.71289e-01        00000 
 2.19746e-02  6.78661e-01        00000 
-2.77771e-02  1.40961e-01        00000 
-2.38854e-02  1.00489e-01        00000 
 3.28892e-03  7.59278e-01        00000 
 7.37616e-03  7.36177e-01        00000 
-5.55395e-02  1.65565e-01        00000 
 1.23772e-02  7.12282e-01        00000 
 1.79019e-02  6.90837e-01        00000 
 2.65265e-02  6.66214e-01        00000 
 2.95928e-02  6.58183e-01        00000 
-2.19128e-02  1.09860e-01        00000 
-4.72393e-02  1.56636e-01        00000 
-3.43441e-02  1.46442e-01        00000 
 3.02531e-02  6.51185e-01        00000 
-2.10175e-02  8.33083e-02        00000 
-4.06315e-02  1.48623e-01        00000 
-2.06750e-02  1.15103e-01        00000 
 3.23510e-02  6.33759e-01        00000 
 3.06292e-02  6.48101e-01        00000 
-2.06265e-02  1.18333e-01        00000 
-1.72576e-02  9.13032e-02        00000 
-6.34870e-02  1.48125e-01        00000 
-6.25834e-19  8.00000e-01        00000 
-1.81674e-02  6.83765e-02        00000 
 2.95390e-02  6.53219e-01        00000 
 3.43404e-02  6.27406e-01        00000 
 2.69781e-03  7.78505e-01        00000 
-5.54297e-02  1.42488e-01        00000 
-2.27440e-02  1.20935e-01        00000 
 7.17908e-03  7.55006e-01        00000 
-4.72495e-02  1.35846e-01        00000 
 3.49779e-02  6.07278e-01        00000 
 1.28903e-02  7.28955e-01        00000 
-1.43609e-02  9.44765e-02        00000 
 1.97233e-02  7.00039e-01        00000 
-3.88096e-02  1.28209e-01        00000 
 3.61457e-02  6.24386e-01        00000 
-1.28732e-02  7.45366e-02        00000 
-1.53702e-02  5.55904e-02        00000 
-3.00939e-02  1.20536e-01        00000 
 2.81835e-02  6.65700e-01        00000 
 3.83118e-02  6.01580e-01        00000 
 3.74003e-02  5.78866e-01        00000 
-1.27015e-02  9.41137e-02        00000 
 3.76421e-02  6.25939e-01        00000 
-9.47210e-03  5.99551e-02        00000 
-1.25989e-02  4.49866e-02        00000 
-8.56487e-03  7.54278e-02        00000 
-1.36349e-02  9.54893e-02        00000 
 4.15899e-02  5.98311e-01        00000 
 4.22251e-02  5.73168e-01        00000 
-5.47672e-02  1.18517e-01        00000 
 1.76142e-19  8.00000e-01        00000 
 3.95739e-02  5.48782e-01        00000 
 5.08603e-03  7.77006e-01        00000 
-4.69313e-02  1.13053e-01        00000 
 1.15115e-02  7.51997e-01        00000 
-3.89510e-02  1.06811e-01        00000 
-6.88059e-03  4.82227e-02        00000 
-9.85466e-03  3.65512e-02        00000 
 1.87327e-02  7.24521e-01        00000 
 3.96804e-02  6.30337e-01        00000 
-3.10960e-02  9.99685e-02        00000 
 4.48131e-02  5.98287e-01        00000 
-4.74107e-03  5.93186e-02        00000 
 4.14228e-02  5.17215e-01        00000 
-1.59728e-02  9.09731e-02        00000 
 2.66148e-02  6.94421e-01        00000 
 4.68818e-02  5.70081e-01        00000 
 4.57371e-02  5.43028e-01        00000 
-2.36446e-02  9.19723e-02        00000 
-7.21564e-03  3.01635e-02        00000 
-4.53675e-03  3.88633e-02        00000 
-4.69470e-03  7.00218e-02        00000 
 3.54173e-02  6.61559e-01        00000 
-2.63187e-03  4.76065e-02        00000 
 4.28823e-02  4.84526e-01        00000 
-1.70229e-02  8.16015e-02        00000 
 4.82365e-02  6.00511e-01        00000 
 4.88459e-02  5.10787e-01        00000 
 5.11897e-02  5.70190e-01        00000 
-6.72160e-03  7.31063e-02        00000 
-4.71534e-03  2.56571e-02        00000 
 5.18012e-02  5.39758e-01        00000 
-2.58584e-03  3.17986e-02        00000 
-4.57323e-02  8.95357e-02        00000 
-3.06098e-18  8.00000e-01        00000 
-1.20679e-03  3.91386e-02        00000 
-1.09061e-03  5.36165e-02        00000 
-3.80762e-02  8.42533e-02        00000 
 7.77951e-03  7.75834e-01        00000 
 4.38861e-02  4.50977e-01        00000 
 4.45775e-02  6.30423e-01        00000 
-3.05336e-02  7.86141e-02        00000 
 1.62454e-02  7.49868e-01        00000 
-2.31536e-03  2.28887e-02        00000 
 3.25942e-04  4.34987e-02        00000 
 2.48273e-02  7.21163e-01        00000 
-2.34761e-02  7.31170e-02        00000 
 5.11196e-02  4.77315e-01        00000 
-1.20941e-03  2.64361e-02        00000 
 4.66227e-04  3.83354e-02        00000 
 4.43901e-02  4.16972e-01        00000 
 1.75754e-04  3.24084e-02        00000 
 5.52521e-02  5.72863e-01        00000 
 3.33060e-02  6.91476e-01        00000 
 5.61276e-02  5.07037e-01        00000 
 5.73941e-02  5.40261e-01        00000 
-1.72007e-02  6.73710e-02        00000 
 6.33224e-05  2.19952e-02        00000 
 5.26714e-02  6.01686e-01        00000 
-5.01662e-04  2.29417e-02        00000 
 4.43737e-02  3.82779e-01        00000 
-1.18637e-02  6.19839e-02        00000 
 4.19919e-02  6.60361e-01        00000 
 5.25188e-02  4.42950e-01        00000 
-1.46490e-03  5.45554e-02        00000 
 3.82948e-04  5.01246e-02        00000 
-7.78204e-03  5.95830e-02        00000 
 1.73948e-03  3.28456e-02        00000 
 2.28958e-03  2.30843e-02        00000 
 8.91100e-04  2.66869e-02        00000 
 2.15990e-03  4.20256e-02        00000 
 4.38522e-02  3.48799e-01        00000 
 5.93247e-02  4.72039e-01        00000 
 5.92858e-02  5.75351e-01        00000 
-9.77142e-05  2.14341e-02        00000 
 2.57617e-03  3.50821e-02        00000 
 5.05293e-02  6.30039e-01        00000 
-3.56788e-02  6.10114e-02        00000 
 4.49889e-18  8.00000e-01        00000 
 5.29147e-02  4.08792e-01        00000 
 6.20161e-02  5.45250e-01        00000 
-2.96081e-03  5.17867e-02        00000 
 4.53989e-03  2.58606e-02        00000 
-2.82149e-02  5.57400e-02        00000 
 1.10255e-02  7.74649e-01        00000 
 6.34646e-02  5.06716e-01        00000 
-2.12880e-02  5.12619e-02        00000 
 2.17518e-02  7.47102e-01        00000 
 4.28401e-02  3.15295e-01        00000 
 6.74589e-04  2.28319e-02        00000 
 6.97532e-03  3.03579e-02        00000 
-1.55309e-02  4.74167e-02        00000 
 3.12839e-02  7.18480e-01        00000 
 6.37453e-02  5.54982e-01        00000 
 5.24528e-02  3.74953e-01        00000 
 5.83562e-02  6.00716e-01        00000 
 6.09958e-02  4.36425e-01        00000 
 4.13762e-02  2.82637e-01        00000 
 2.20079e-03  2.62177e-02        00000 
-7.92784e-05  2.22480e-02        00000 
 1.28827e-04  2.14733e-02        00000 
-1.07078e-02  4.36738e-02        00000 
 6.97853e-04  4.21398e-02        00000 
 4.01781e-02  6.88782e-01        00000 
 9.63540e-03  3.66841e-02        00000 
 3.95022e-02  2.51122e-01        00000 
 5.12069e-02  3.42489e-01        00000 
 1.24361e-02  4.50622e-02        00000 
-6.64933e-03  4.01491e-02        00000 
 4.88350e-02  6.58615e-01        00000 
 6.76356e-02  4.68715e-01        00000 
 2.61877e-03  3.61006e-02        00000 
 3.73060e-02  2.21031e-01        00000 
 6.49790e-02  5.72251e-01        00000 
 6.12943e-02  4.01268e-01        00000 
 1.25171e-04  2.60205e-02        00000 
 1.53102e-02  5.55052e-02        00000 
 4.95425e-02  3.10885e-01        00000 
 3.48650e-02  1.92611e-01        00000 
-3.25711e-03  3.70308e-02        00000 
 1.13501e-03  2.13935e-02        00000 
 1.81728e-02  6.81412e-02        00000 
 3.22586e-02  1.66138e-01        00000 
 3.62488e-03  3.01648e-02        00000 
 2.10361e-02  8.30202e-02        00000 
 6.97175e-02  5.44730e-01        00000 
 5.71626e-02  6.28622e-01        00000 
 7.14149e-02  5.12536e-01        00000 
 2.95547e-02  1.41897e-01        00000 
 2.39023e-02  1.00269e-01        00000 
 2.67491e-02  1.19889e-01        00000 
 1.34931e-03  3.23676e-02        00000 
 4.73200e-02  2.80226e-01        00000 
 6.01916e-02  3.67369e-01        00000 
 8.04955e-18  8.00000e-01        00000 
-2.35554e-02  3.21319e-02        00000 