<?xml version="1.0" encoding="utf-8"?>
<VTKFile byte_order="LittleEndian" type="UnstructuredGrid" version="0.1">
   <UnstructuredGrid>
      <Piece NumberOfCells="641" NumberOfPoints="730">
         <Points>
            <DataArray Name="Points" NumberOfComponents="3" format="ascii" type="Float32">
1.0000 1.0000 0.0000
0.9600 1.0000 0.0000
1.0000 0.9600 0.0000
0.9603 0.9614 0.0000
1.0000 0.9200 0.0000
0.9200 1.0000 0.0000
0.9612 0.9231 0.0000
0.9211 0.9624 0.0000
0.9230 0.9260 0.0000
1.0000 0.8800 0.0000
0.8800 1.0000 0.0000
0.9614 0.8856 0.0000
0.8829 0.9623 0.0000
0.9240 0.8918 0.0000
0.8875 0.9262 0.0000
0.8933 0.8971 0.0000
0.9597 0.8473 0.0000
1.0000 0.8400 0.0000
0.8400 1.0000 0.0000
0.8440 0.9601 0.0000
0.9173 0.8563 0.0000
0.8514 0.9190 0.0000
0.8690 0.8729 0.0000
0.9592 0.8063 0.0000
1.0000 0.8000 0.0000
0.8000 1.0000 0.0000
0.8021 0.9589 0.0000
0.9165 0.8130 0.0000
0.8054 0.9165 0.0000
0.8676 0.8205 0.0000
0.8109 0.8707 0.0000
0.9597 0.7652 0.0000
1.0000 0.7600 0.0000
0.7600 1.0000 0.0000
0.7590 0.9590 0.0000
0.9161 0.7702 0.0000
0.7581 0.9167 0.0000
0.8122 0.8209 0.0000
0.8679 0.7733 0.0000
0.7569 0.8708 0.0000
0.9590 0.7242 0.0000
1.0000 0.7200 0.0000
0.7200 1.0000 0.0000
0.9153 0.7275 0.0000
0.7165 0.9591 0.0000
0.8165 0.7719 0.0000
0.7126 0.9181 0.0000
0.8686 0.7282 0.0000
0.7510 0.8174 0.0000
0.7082 0.8753 0.0000
0.9580 0.6829 0.0000
1.0000 0.6800 0.0000
0.6800 1.0000 0.0000
0.7693 0.7706 0.0000
0.9140 0.6851 0.0000
0.6742 0.9594 0.0000
0.8161 0.7213 0.0000
0.8740 0.6885 0.0000
0.6685 0.9181 0.0000
0.7012 0.8339 0.0000
0.7734 0.7344 0.0000
0.7152 0.7855 0.0000
0.6650 0.8760 0.0000
0.7356 0.7577 0.0000
1.0000 0.6400 0.0000
0.6400 1.0000 0.0000
0.8350 0.6800 0.0000
0.9558 0.6404 0.0000
0.8757 0.6585 0.0000
0.7480 0.7370 0.0000
0.6333 0.9593 0.0000
0.6862 0.8039 0.0000
0.9052 0.6395 0.0000
0.6619 0.8374 0.0000
0.7838 0.6876 0.0000
0.7581 0.7055 0.0000
0.6270 0.9175 0.0000
0.6640 0.8136 0.0000
0.8474 0.6471 0.0000
0.7341 0.7184 0.0000
0.6889 0.7621 0.0000
0.8018 0.6601 0.0000
0.7087 0.7349 0.0000
0.6240 0.8728 0.0000
0.6655 0.7821 0.0000
1.0000 0.6000 0.0000
0.6000 1.0000 0.0000
0.9579 0.5979 0.0000
0.8635 0.6181 0.0000
0.6438 0.7994 0.0000
0.5930 0.9599 0.0000
0.7406 0.6813 0.0000
0.8153 0.6317 0.0000
0.7215 0.6960 0.0000
0.7582 0.6627 0.0000
0.9144 0.5934 0.0000
0.6224 0.8262 0.0000
0.7025 0.7080 0.0000
0.6817 0.7264 0.0000
0.5880 0.9170 0.0000
0.6661 0.7445 0.0000
0.6874 0.7117 0.0000
0.7729 0.6402 0.0000
0.6462 0.7610 0.0000
0.8270 0.6029 0.0000
0.5855 0.8736 0.0000
0.7078 0.6759 0.0000
0.8731 0.5824 0.0000
0.6922 0.6895 0.0000
0.6247 0.7752 0.0000
0.7227 0.6602 0.0000
0.6777 0.7007 0.0000
1.0000 0.5600 0.0000
0.5600 1.0000 0.0000
0.7852 0.6159 0.0000
0.6645 0.7138 0.0000
0.7363 0.6426 0.0000
0.9599 0.5572 0.0000
0.6483 0.7278 0.0000
0.5542 0.9595 0.0000
0.6026 0.7897 0.0000
0.5823 0.8324 0.0000
0.6299 0.7405 0.0000
0.9195 0.5531 0.0000
0.7477 0.6223 0.0000
0.5507 0.9171 0.0000
0.6803 0.6732 0.0000
0.6658 0.6871 0.0000
0.8355 0.5722 0.0000
0.7947 0.5901 0.0000
0.6936 0.6581 0.0000
0.6502 0.6999 0.0000
0.6098 0.7514 0.0000
0.7057 0.6420 0.0000
0.7579 0.6014 0.0000
0.6336 0.7113 0.0000
0.5497 0.8744 0.0000
0.8778 0.5472 0.0000
0.7165 0.6250 0.0000
0.5740 0.7964 0.0000
0.6162 0.7214 0.0000
0.5892 0.7610 0.0000
0.7259 0.6072 0.0000
0.8020 0.5638 0.0000
1.0000 0.5200 0.0000
0.5200 1.0000 0.0000
0.5492 0.8345 0.0000
0.7657 0.5790 0.0000
0.9606 0.5179 0.0000
0.5980 0.7300 0.0000
0.8398 0.5417 0.0000
0.5158 0.9583 0.0000
0.7338 0.5887 0.0000
0.9203 0.5154 0.0000
0.5665 0.7670 0.0000
0.5131 0.9159 0.0000
0.5474 0.8009 0.0000
0.5792 0.7371 0.0000
0.7720 0.5563 0.0000
0.8787 0.5129 0.0000
0.8059 0.5366 0.0000
0.5141 0.8719 0.0000
0.7401 0.5696 0.0000
0.5598 0.7427 0.0000
0.5440 0.7719 0.0000
0.5175 0.8314 0.0000
0.8405 0.5118 0.0000
0.7450 0.5500 0.0000
0.5225 0.8010 0.0000
0.7754 0.5328 0.0000
1.0000 0.4800 0.0000
0.4800 1.0000 0.0000
0.9602 0.4791 0.0000
0.5401 0.7468 0.0000
0.4767 0.9571 0.0000
0.8069 0.5110 0.0000
0.9179 0.4782 0.0000
0.5221 0.7741 0.0000
0.4748 0.9127 0.0000
0.7482 0.5301 0.0000
0.8747 0.4784 0.0000
0.5027 0.7984 0.0000
0.7768 0.5101 0.0000
0.4760 0.8661 0.0000
0.5201 0.7492 0.0000
0.8373 0.4828 0.0000
0.4848 0.8182 0.0000
0.5012 0.7757 0.0000
0.7498 0.5101 0.0000
0.8046 0.4854 0.0000
0.5000 0.7500 0.0000
0.7754 0.4874 0.0000
1.0000 0.4400 0.0000
0.4400 1.0000 0.0000
0.9587 0.4395 0.0000
0.4799 0.7803 0.0000
0.4361 0.9573 0.0000
0.9156 0.4395 0.0000
0.7498 0.4899 0.0000
0.8291 0.4561 0.0000
0.4343 0.9109 0.0000
0.8003 0.4626 0.0000
0.8632 0.4393 0.0000
0.4799 0.7492 0.0000
0.7730 0.4662 0.0000
0.4477 0.8146 0.0000
0.4327 0.8588 0.0000
0.7482 0.4699 0.0000
0.8161 0.4410 0.0000
0.4541 0.7785 0.0000
0.7944 0.4428 0.0000
0.4599 0.7468 0.0000
1.0000 0.4000 0.0000
0.4000 1.0000 0.0000
0.7686 0.4455 0.0000
0.9592 0.3996 0.0000
0.8248 0.4242 0.0000
0.3968 0.9575 0.0000
0.7450 0.4500 0.0000
0.9170 0.3993 0.0000
0.4159 0.8309 0.0000
0.4229 0.8031 0.0000
0.3948 0.9133 0.0000
0.4316 0.7723 0.0000
0.7936 0.4233 0.0000
0.4402 0.7427 0.0000
0.8698 0.3967 0.0000
0.7652 0.4264 0.0000
0.3936 0.8689 0.0000
0.7401 0.4304 0.0000
0.3920 0.8309 0.0000
0.8264 0.3924 0.0000
0.3992 0.7968 0.0000
0.4094 0.7650 0.0000
0.4208 0.7371 0.0000
0.7903 0.3985 0.0000
1.0000 0.3600 0.0000
0.3600 1.0000 0.0000
0.7600 0.4056 0.0000
0.9598 0.3592 0.0000
0.3583 0.9570 0.0000
0.7338 0.4113 0.0000
0.9182 0.3582 0.0000
0.3575 0.9135 0.0000
0.3585 0.8699 0.0000
0.4020 0.7300 0.0000
0.8721 0.3546 0.0000
0.3871 0.7558 0.0000
0.3627 0.8272 0.0000
0.3723 0.7881 0.0000
0.7509 0.3845 0.0000
0.7810 0.3713 0.0000
0.7259 0.3928 0.0000
0.8206 0.3501 0.0000
0.3838 0.7214 0.0000
1.0000 0.3200 0.0000
0.3200 1.0000 0.0000
0.9609 0.3186 0.0000
0.3188 0.9571 0.0000
0.3655 0.7452 0.0000
0.7165 0.3750 0.0000
0.3191 0.9130 0.0000
0.7387 0.3639 0.0000
0.9203 0.3164 0.0000
0.3226 0.8674 0.0000
0.7625 0.3483 0.0000
0.3295 0.8214 0.0000
0.3412 0.7756 0.0000
0.3664 0.7113 0.0000
0.8783 0.3117 0.0000
0.3501 0.7297 0.0000
0.7057 0.3580 0.0000
0.7858 0.3237 0.0000
0.7257 0.3455 0.0000
0.3355 0.7477 0.0000
0.8363 0.3032 0.0000
0.3498 0.6999 0.0000
0.7447 0.3291 0.0000
1.0000 0.2800 0.0000
0.2800 1.0000 0.0000
0.2794 0.9569 0.0000
0.9615 0.2779 0.0000
0.3326 0.7179 0.0000
0.2801 0.9127 0.0000
0.6936 0.3419 0.0000
0.2847 0.8665 0.0000
0.9228 0.2753 0.0000
0.7128 0.3285 0.0000
0.2921 0.8195 0.0000
0.7602 0.3086 0.0000
0.3033 0.7758 0.0000
0.3147 0.7412 0.0000
0.3342 0.6871 0.0000
0.7305 0.3141 0.0000
0.8833 0.2705 0.0000
0.7998 0.2876 0.0000
0.7436 0.3019 0.0000
0.6803 0.3268 0.0000
0.3147 0.7039 0.0000
0.6989 0.3111 0.0000
0.8465 0.2623 0.0000
0.3197 0.6732 0.0000
0.7181 0.2951 0.0000
0.7660 0.2772 0.0000
1.0000 0.2400 0.0000
0.2400 1.0000 0.0000
0.2395 0.9570 0.0000
0.9623 0.2379 0.0000
0.3033 0.6872 0.0000
0.2867 0.7266 0.0000
0.7391 0.2819 0.0000
0.6658 0.3129 0.0000
0.2402 0.9130 0.0000
0.2441 0.8665 0.0000
0.9241 0.2355 0.0000
0.2521 0.8179 0.0000
0.2648 0.7698 0.0000
0.2877 0.7007 0.0000
0.3064 0.6581 0.0000
0.6834 0.2942 0.0000
0.8864 0.2325 0.0000
0.8108 0.2442 0.0000
0.2899 0.6725 0.0000
0.6502 0.3001 0.0000
0.8557 0.2306 0.0000
0.7030 0.2743 0.0000
0.2943 0.6420 0.0000
0.2710 0.6909 0.0000
0.7273 0.2535 0.0000
0.6657 0.2787 0.0000
1.0000 0.2000 0.0000
0.2000 1.0000 0.0000
0.6336 0.2887 0.0000
0.2514 0.7173 0.0000
0.2756 0.6564 0.0000
0.1992 0.9576 0.0000
0.9620 0.1981 0.0000
0.7627 0.2311 0.0000
0.1993 0.9141 0.0000
0.9233 0.1961 0.0000
0.2835 0.6250 0.0000
0.2019 0.8680 0.0000
0.6830 0.2545 0.0000
0.2075 0.8181 0.0000
0.8823 0.1948 0.0000
0.2539 0.6737 0.0000
0.6460 0.2652 0.0000
0.6162 0.2786 0.0000
0.8346 0.1977 0.0000
0.2163 0.7604 0.0000
0.2633 0.6381 0.0000
0.2741 0.6072 0.0000
0.7040 0.2284 0.0000
0.2284 0.6955 0.0000
0.6248 0.2559 0.0000
0.5980 0.2700 0.0000
0.6595 0.2370 0.0000
0.7292 0.2095 0.0000
0.2397 0.6531 0.0000
0.2516 0.6187 0.0000
1.0000 0.1600 0.0000
0.1600 1.0000 0.0000
0.2662 0.5887 0.0000
0.1588 0.9585 0.0000
0.9622 0.1583 0.0000
0.1581 0.9163 0.0000
0.9233 0.1564 0.0000
0.6042 0.2491 0.0000
0.5792 0.2629 0.0000
0.1589 0.8722 0.0000
0.1958 0.7202 0.0000
0.8836 0.1548 0.0000
0.2123 0.6706 0.0000
0.6322 0.2291 0.0000
0.2599 0.5696 0.0000
0.7803 0.1720 0.0000
0.1609 0.8259 0.0000
0.2262 0.6315 0.0000
0.2418 0.5979 0.0000
0.8442 0.1523 0.0000
0.5598 0.2573 0.0000
0.5842 0.2424 0.0000
0.6765 0.1983 0.0000
0.1621 0.7781 0.0000
0.6083 0.2254 0.0000
0.2550 0.5500 0.0000
0.8115 0.1450 0.0000
0.1814 0.6889 0.0000
0.2335 0.5759 0.0000
0.1986 0.6460 0.0000
0.7210 0.1689 0.0000
0.5401 0.2532 0.0000
0.2141 0.6084 0.0000
0.5648 0.2361 0.0000
1.0000 0.1200 0.0000
0.1200 1.0000 0.0000
0.5886 0.2216 0.0000
0.6361 0.1981 0.0000
0.9623 0.1186 0.0000
0.1185 0.9594 0.0000
0.2518 0.5301 0.0000
0.1554 0.7378 0.0000
0.9238 0.1169 0.0000
0.1171 0.9188 0.0000
0.5201 0.2508 0.0000
0.6081 0.2005 0.0000
0.1177 0.8757 0.0000
0.8845 0.1155 0.0000
0.2278 0.5529 0.0000
0.5447 0.2310 0.0000
0.5916 0.2048 0.0000
0.2502 0.5101 0.0000
0.5703 0.2140 0.0000
0.1692 0.6615 0.0000
0.1178 0.8329 0.0000
0.2039 0.5833 0.0000
0.1845 0.6209 0.0000
0.8462 0.1139 0.0000
0.5000 0.2500 0.0000
0.1474 0.7037 0.0000
0.5242 0.2284 0.0000
0.2502 0.4899 0.0000
0.8095 0.1132 0.0000
0.1175 0.7897 0.0000
0.2245 0.5293 0.0000
0.6911 0.1470 0.0000
0.6623 0.1569 0.0000
0.7718 0.1199 0.0000
0.5787 0.1926 0.0000
0.4799 0.2508 0.0000
0.5494 0.2063 0.0000
0.6277 0.1636 0.0000
0.2518 0.4699 0.0000
0.1972 0.5560 0.0000
0.1405 0.6744 0.0000
0.5036 0.2260 0.0000
0.5965 0.1735 0.0000
0.1148 0.7499 0.0000
1.0000 0.0800 0.0000
0.0800 1.0000 0.0000
0.2237 0.5060 0.0000
0.1547 0.6362 0.0000
0.7277 0.1206 0.0000
0.4599 0.2532 0.0000
0.9618 0.0790 0.0000
0.0786 0.9601 0.0000
0.1700 0.5930 0.0000
0.9229 0.0780 0.0000
0.0778 0.9196 0.0000
0.2550 0.4500 0.0000
0.5267 0.2034 0.0000
0.4402 0.2573 0.0000
0.8839 0.0770 0.0000
0.0771 0.8790 0.0000
0.1358 0.6525 0.0000
0.2250 0.4832 0.0000
0.1115 0.7133 0.0000
0.1942 0.5282 0.0000
0.2599 0.4304 0.0000
0.5565 0.1781 0.0000
0.4830 0.2210 0.0000
[...]
         <PointData>
            <DataArray Name="Displacement" NumberOfComponents="3" format="ascii" type="Float64">
-5.10877e-18  5.00000e-01        00000 
 6.52141e-18  5.00000e-01        00000 
-1.62336e-02  4.77692e-01        00000 
-1.00969e-02  4.82533e-01        00000 
-2.47474e-02  4.58307e-01        00000 
-2.51728e-18  5.00000e-01        00000 
-1.88823e-02  4.63815e-01        00000 
-6.81342e-03  4.84404e-01        00000 
-1.37010e-02  4.68110e-01        00000 
-3.19819e-02  4.39393e-01        00000 
-1.01923e-18  5.00000e-01        00000 
-2.56475e-02  4.45912e-01        00000 
-4.66716e-03  4.85496e-01        00000 
-1.96760e-02  4.52309e-01        00000 
-1.01780e-02  4.70295e-01        00000 
-1.51836e-02  4.57220e-01        00000 
-3.18440e-02  4.27859e-01        00000 
-3.87178e-02  4.20336e-01        00000 
       00000  5.00000e-01        00000 
-3.05497e-03  4.85829e-01        00000 
-2.45379e-02  4.36446e-01        00000 
-7.91041e-03  4.69620e-01        00000 
-1.57712e-02  4.48887e-01        00000 
-3.85677e-02  4.08298e-01        00000 
-4.54374e-02  4.01091e-01        00000 
 8.81073e-20  5.00000e-01        00000 
-1.40352e-03  4.86792e-01        00000 
-3.13993e-02  4.16187e-01        00000 
-4.56650e-03  4.71863e-01        00000 
-2.34248e-02  4.25715e-01        00000 
-9.61821e-03  4.54095e-01        00000 
-4.55575e-02  3.88324e-01        00000 
-5.22234e-02  3.81654e-01        00000 
-3.52677e-20  5.00000e-01        00000 
 9.89071e-05  4.88416e-01        00000 
-3.84203e-02  3.95773e-01        00000 
-1.40493e-03  4.75677e-01        00000 
-1.60285e-02  4.33876e-01        00000 
-3.09394e-02  4.03889e-01        00000 
-4.49794e-03  4.61017e-01        00000 
-5.23625e-02  3.68218e-01        00000 
-5.89636e-02  3.62021e-01        00000 
 3.08842e-19  5.00000e-01        00000 
-4.54949e-02  3.74913e-01        00000 
 1.23615e-03  4.90181e-01        00000 
-2.38553e-02  4.12260e-01        00000 
 9.72662e-04  4.80044e-01        00000 
-3.85533e-02  3.82029e-01        00000 
-9.04065e-03  4.43754e-01        00000 
-4.68116e-04  4.69317e-01        00000 
-5.89134e-02  3.47567e-01        00000 
-6.53870e-02  3.42187e-01        00000 
-1.90672e-19  5.00000e-01        00000 
-1.75954e-02  4.22247e-01        00000 
-5.22237e-02  3.53708e-01        00000 
 1.93525e-03  4.92010e-01        00000 
-3.20630e-02  3.89143e-01        00000 
-4.58697e-02  3.61191e-01        00000 
 2.41853e-03  4.84045e-01        00000 
-2.77809e-03  4.59530e-01        00000 
-2.39279e-02  4.06397e-01        00000 
-9.05687e-03  4.41887e-01        00000 
 1.73986e-03  4.75929e-01        00000 
-1.52936e-02  4.26689e-01        00000 
-7.11132e-02  3.22124e-01        00000 
 2.22438e-19  5.00000e-01        00000 
-4.15235e-02  3.64337e-01        00000 
-6.47528e-02  3.25893e-01        00000 
-5.06809e-02  3.45217e-01        00000 
-2.01543e-02  4.15366e-01        00000 
 2.16270e-03  4.93606e-01        00000 
-4.20314e-03  4.55178e-01        00000 
-5.77156e-02  3.30713e-01        00000 
 7.32452e-05  4.68564e-01        00000 
-3.29449e-02  3.81923e-01        00000 
-2.65829e-02  3.99051e-01        00000 
 2.94558e-03  4.87558e-01        00000 
-1.74940e-03  4.63222e-01        00000 
-4.82539e-02  3.43986e-01        00000 
-2.14209e-02  4.13320e-01        00000 
-9.58506e-03  4.43752e-01        00000 
-3.97339e-02  3.62147e-01        00000 
-1.58027e-02  4.28766e-01        00000 
 2.64402e-03  4.81318e-01        00000 
-4.92555e-03  4.56218e-01        00000 
-7.58262e-02  3.01814e-01        00000 
 6.28901e-19  5.00000e-01        00000 
-7.00614e-02  3.03367e-01        00000 
-5.43019e-02  3.24581e-01        00000 
-1.64865e-03  4.65909e-01        00000 
 1.90140e-03  4.95043e-01        00000 
-2.81564e-02  3.95694e-01        00000 
-4.55540e-02  3.42392e-01        00000 
-2.36431e-02  4.10493e-01        00000 
-3.31427e-02  3.79105e-01        00000 
-6.43465e-02  3.04228e-01        00000 
 1.23219e-03  4.75053e-01        00000 
-1.97702e-02  4.23690e-01        00000 
-1.47615e-02  4.38064e-01        00000 
 2.68084e-03  4.90419e-01        00000 
-1.03652e-02  4.48477e-01        00000 
-1.78487e-02  4.32175e-01        00000 
-3.81753e-02  3.60871e-01        00000 
-6.35101e-03  4.58935e-01        00000 
-5.05826e-02  3.21964e-01        00000 
 2.67571e-03  4.86275e-01        00000 
-2.53944e-02  4.10668e-01        00000 
-5.94304e-02  3.01946e-01        00000 
-2.20370e-02  4.24088e-01        00000 
-3.17795e-03  4.67948e-01        00000 
-2.90227e-02  3.95644e-01        00000 
-1.92007e-02  4.35021e-01        00000 
-7.91698e-02  2.81248e-01        00000 
 1.34321e-19  5.00000e-01        00000 
-4.27748e-02  3.41517e-01        00000 
-1.60098e-02  4.44232e-01        00000 
-3.27276e-02  3.79293e-01        00000 
-7.36494e-02  2.81302e-01        00000 
-1.23935e-02  4.53822e-01        00000 
 1.28824e-03  4.95941e-01        00000 
-7.88955e-04  4.75465e-01        00000 
 1.87801e-03  4.83220e-01        00000 
-8.99713e-03  4.62797e-01        00000 
-6.81914e-02  2.80888e-01        00000 
-3.63139e-02  3.61375e-01        00000 
 1.81374e-03  4.92464e-01        00000 
-2.39994e-02  4.27916e-01        00000 
-2.13171e-02  4.40251e-01        00000 
-5.45865e-02  3.00486e-01        00000 
-4.66462e-02  3.21277e-01        00000 
-2.66523e-02  4.14006e-01        00000 
-1.85984e-02  4.50943e-01        00000 
-6.11158e-03  4.70735e-01        00000 
-2.92149e-02  3.98645e-01        00000 
-3.95899e-02  3.42326e-01        00000 
-1.58356e-02  4.60208e-01        00000 
 1.87994e-03  4.89608e-01        00000 
-6.25325e-02  2.79837e-01        00000 
-3.16511e-02  3.81910e-01        00000 
 2.79796e-04  4.82276e-01        00000 
-1.31410e-02  4.68071e-01        00000 
-3.77988e-03  4.77226e-01        00000 
-3.39079e-02  3.63939e-01        00000 
-4.96868e-02  3.00455e-01        00000 
-8.08903e-02  2.60471e-01        00000 
       00000  5.00000e-01        00000 
 1.46989e-03  4.87611e-01        00000 
-4.23293e-02  3.22217e-01        00000 
-7.53460e-02  2.59857e-01        00000 
-1.05789e-02  4.74587e-01        00000 
-5.70420e-02  2.79260e-01        00000 
 4.19847e-04  4.96318e-01        00000 
-3.58942e-02  3.44836e-01        00000 
-6.97165e-02  2.58999e-01        00000 
-2.26776e-03  4.82719e-01        00000 
 5.23408e-04  4.93388e-01        00000 
 5.59883e-04  4.86635e-01        00000 
-8.18769e-03  4.79798e-01        00000 
-4.45199e-02  3.01423e-01        00000 
-6.37828e-02  2.58178e-01        00000 
-5.15857e-02  2.79060e-01        00000 
 6.00201e-04  4.91153e-01        00000 
-3.75761e-02  3.24776e-01        00000 
-5.95911e-03  4.83863e-01        00000 
-1.14965e-03  4.86525e-01        00000 
 5.55668e-04  4.89727e-01        00000 
-5.79712e-02  2.58293e-01        00000 
-3.88835e-02  3.03948e-01        00000 
 3.43441e-04  4.88925e-01        00000 
-4.58794e-02  2.80078e-01        00000 
-8.08644e-02  2.39615e-01        00000 
-3.69569e-19  5.00000e-01        00000 
-7.51940e-02  2.38571e-01        00000 
-3.86185e-03  4.86720e-01        00000 
-5.81878e-04  4.96150e-01        00000 
-5.23208e-02  2.58719e-01        00000 
-6.92430e-02  2.37230e-01        00000 
-4.80730e-04  4.88719e-01        00000 
-9.28163e-04  4.92952e-01        00000 
-3.97820e-02  2.82547e-01        00000 
-6.30222e-02  2.36159e-01        00000 
 8.15801e-05  4.89506e-01        00000 
-4.64529e-02  2.59243e-01        00000 
-9.27019e-04  4.90601e-01        00000 
-1.87672e-03  4.88440e-01        00000 
-5.73934e-02  2.37716e-01        00000 
-3.92299e-04  4.89594e-01        00000 
 1.42906e-05  4.89489e-01        00000 
-4.02298e-02  2.60834e-01        00000 
-5.18527e-02  2.38184e-01        00000 
 6.66754e-05  4.88996e-01        00000 
-4.61499e-02  2.38229e-01        00000 
-7.91063e-02  2.18829e-01        00000 
 3.74735e-19  5.00000e-01        00000 
-7.32180e-02  2.16942e-01        00000 
 2.68809e-04  4.88831e-01        00000 
-1.48949e-03  4.95501e-01        00000 
-6.71321e-02  2.14679e-01        00000 
-4.02207e-02  2.38980e-01        00000 
-5.52209e-02  2.17933e-01        00000 
-2.19723e-03  4.91175e-01        00000 
-5.05369e-02  2.19490e-01        00000 
-5.96740e-02  2.10427e-01        00000 
 1.92944e-03  4.88360e-01        00000 
-4.53356e-02  2.18433e-01        00000 
-1.01434e-03  4.86456e-01        00000 
-2.24977e-03  4.87080e-01        00000 
-3.97501e-02  2.17282e-01        00000 
-5.22876e-02  2.05481e-01        00000 
 7.21573e-04  4.86355e-01        00000 
-4.86770e-02  2.02905e-01        00000 
 3.84081e-03  4.86678e-01        00000 
-7.57821e-02  1.98227e-01        00000 
 1.74715e-19  5.00000e-01        00000 
-4.39012e-02  1.99112e-01        00000 
-6.99334e-02  1.95476e-01        00000 
-5.26174e-02  1.95427e-01        00000 
-2.05479e-03  4.94414e-01        00000 
-3.88470e-02  1.95896e-01        00000 
-6.39298e-02  1.91991e-01        00000 
-1.69728e-03  4.82801e-01        00000 
-5.90622e-04  4.82208e-01        00000 
-2.89423e-03  4.88763e-01        00000 
 1.71404e-03  4.82565e-01        00000 
-4.74187e-02  1.88106e-01        00000 
 5.89092e-03  4.83897e-01        00000 
-5.69332e-02  1.85123e-01        00000 
-4.24800e-02  1.81930e-01        00000 
-2.66660e-03  4.83220e-01        00000 
-3.75297e-02  1.75164e-01        00000 
-1.62568e-03  4.78577e-01        00000 
-5.00019e-02  1.74941e-01        00000 
 2.03540e-04  4.76680e-01        00000 
 3.23815e-03  4.77135e-01        00000 
 8.12584e-03  4.79889e-01        00000 
-4.49516e-02  1.69692e-01        00000 
-7.10975e-02  1.77877e-01        00000 
       00000  5.00000e-01        00000 
-4.03844e-02  1.63687e-01        00000 
-6.52388e-02  1.74245e-01        00000 
-2.22563e-03  4.92902e-01        00000 
-3.58554e-02  1.55185e-01        00000 
-5.91631e-02  1.69647e-01        00000 
-2.83407e-03  4.85560e-01        00000 
-2.24613e-03  4.78308e-01        00000 
 1.05433e-02  4.74603e-01        00000 
-5.20599e-02  1.61564e-01        00000 
 5.44113e-03  4.69961e-01        00000 
-6.71092e-04  4.71987e-01        00000 
 1.89464e-03  4.68711e-01        00000 
-3.73538e-02  1.44695e-01        00000 
-4.06817e-02  1.49057e-01        00000 
-3.38807e-02  1.36101e-01        00000 
-4.39785e-02  1.48671e-01        00000 
 1.30557e-02  4.68025e-01        00000 
-6.53734e-02  1.57787e-01        00000 
 6.08222e-19  5.00000e-01        00000 
-5.95336e-02  1.53447e-01        00000 
-1.91078e-03  4.91230e-01        00000 
 8.27166e-03  4.61295e-01        00000 
-3.16402e-02  1.18057e-01        00000 
-2.02710e-03  4.81797e-01        00000 
-3.37079e-02  1.25558e-01        00000 
-5.33483e-02  1.47873e-01        00000 
-8.44865e-04  4.72140e-01        00000 
-3.52132e-02  1.28400e-01        00000 
 1.47012e-03  4.63272e-01        00000 
 5.06570e-03  4.57019e-01        00000 
 1.57268e-02  4.60281e-01        00000 
-4.65102e-02  1.39516e-01        00000 
 1.19896e-02  4.53418e-01        00000 
-2.91959e-02  1.01290e-01        00000 
-3.49685e-02  1.24259e-01        00000 
-3.00373e-02  1.08581e-01        00000 
 9.82510e-03  4.50000e-01        00000 
-3.90614e-02  1.27302e-01        00000 
 1.84629e-02  4.50918e-01        00000 
-3.01888e-02  1.10801e-01        00000 
-5.89633e-02  1.37940e-01        00000 
-3.41734e-19  5.00000e-01        00000 
-1.16274e-03  4.89442e-01        00000 
-5.30797e-02  1.33078e-01        00000 
 1.52397e-02  4.43353e-01        00000 
-4.86521e-04  4.77953e-01        00000 
-2.66250e-02  8.60158e-02        00000 
 1.47342e-03  4.65858e-01        00000 
-4.70333e-02  1.27311e-01        00000 
-2.64623e-02  9.38535e-02        00000 
 4.54455e-03  4.54009e-01        00000 
-2.91142e-02  1.07905e-01        00000 
 8.44014e-03  4.44850e-01        00000 
 1.23916e-02  4.40051e-01        00000 
 2.12274e-02  4.40060e-01        00000 
-2.62312e-02  9.75619e-02        00000 
-4.04833e-02  1.19477e-01        00000 
-3.12177e-02  1.11002e-01        00000 
-2.59032e-02  9.84103e-02        00000 
-2.39530e-02  7.22669e-02        00000 
 1.89765e-02  4.31200e-01        00000 
-2.25869e-02  8.00251e-02        00000 
-3.37337e-02  1.09286e-01        00000 
 2.39733e-02  4.27874e-01        00000 
-2.18080e-02  8.48001e-02        00000 
-2.48112e-02  9.62158e-02        00000 
-5.22200e-02  1.18304e-01        00000 
-6.50223e-20  5.00000e-01        00000 
-2.02394e-05  4.87783e-01        00000 
-4.64545e-02  1.13430e-01        00000 
 2.27056e-02  4.20847e-01        00000 
 1.75658e-02  4.24163e-01        00000 
-2.20775e-02  8.88301e-02        00000 
-2.12197e-02  6.00334e-02        00000 
 1.70803e-03  4.74372e-01        00000 
 4.73424e-03  4.59736e-01        00000 
-4.05170e-02  1.07885e-01        00000 
 8.72812e-03  4.44635e-01        00000 
 1.34730e-02  4.31248e-01        00000 
 2.19869e-02  4.16732e-01        00000 
 2.66677e-02  4.14046e-01        00000 
-1.85347e-02  6.72951e-02        00000 
-3.45720e-02  1.01473e-01        00000 
-2.56406e-02  9.37985e-02        00000 
 2.61001e-02  4.08073e-01        00000 
-1.84792e-02  4.92742e-02        00000 
-2.98408e-02  9.58541e-02        00000 
-1.67151e-02  7.15579e-02        00000 
 2.92596e-02  3.98660e-01        00000 
 2.53043e-02  4.04891e-01        00000 
-1.59968e-02  7.43656e-02        00000 
-1.45030e-02  5.53656e-02        00000 
-4.54271e-02  9.88664e-02        00000 
 4.83618e-19  5.00000e-01        00000 
-1.57851e-02  3.99227e-02        00000 
 2.33716e-02  4.07279e-01        00000 
 2.97163e-02  3.92943e-01        00000 
 1.42680e-03  4.86385e-01        00000 
-3.96871e-02  9.40727e-02        00000 
-1.69429e-02  7.67981e-02        00000 
 4.42166e-03  4.71369e-01        00000 
-3.38501e-02  8.88715e-02        00000 
 3.17040e-02  3.81938e-01        00000 
 8.60671e-03  4.54672e-01        00000 
-1.15219e-02  5.81365e-02        00000 
 1.39594e-02  4.36164e-01        00000 
-2.78175e-02  8.32020e-02        00000 
 2.99897e-02  3.89694e-01        00000 
-1.08407e-02  4.44884e-02        00000 
-1.31868e-02  3.19086e-02        00000 
-2.16204e-02  7.75853e-02        00000 
 2.10635e-02  4.14324e-01        00000 
 3.32897e-02  3.76632e-01        00000 
 3.39360e-02  3.63946e-01        00000 
-9.69265e-03  5.85487e-02        00000 
 3.00160e-02  3.89662e-01        00000 
-8.11319e-03  3.49676e-02        00000 
-1.06744e-02  2.52647e-02        00000 
-6.96660e-03  4.56226e-02        00000 
-1.00400e-02  5.99799e-02        00000 
 3.47512e-02  3.73205e-01        00000 
 3.67675e-02  3.58685e-01        00000 
-3.87082e-02  7.96315e-02        00000 
 8.36676e-19  5.00000e-01        00000 
 3.59205e-02  3.44852e-01        00000 
 3.09675e-03  4.85293e-01        00000 
-3.31035e-02  7.50137e-02        00000 
 7.46445e-03  4.69160e-01        00000 
-2.73876e-02  7.00910e-02        00000 
-6.07678e-03  2.73499e-02        00000 
-8.26214e-03  2.00038e-02        00000 
 1.27197e-02  4.51389e-01        00000 
 3.05254e-02  3.91635e-01        00000 
-2.17591e-02  6.49850e-02        00000 
 3.61366e-02  3.72139e-01        00000 
-4.14986e-03  3.49161e-02        00000 
 3.75965e-02  3.24775e-01        00000 
-1.11553e-02  5.78994e-02        00000 
 1.87878e-02  4.31970e-01        00000 
 3.93612e-02  3.55434e-01        00000 
 3.99021e-02  3.39708e-01        00000 
-1.64186e-02  5.93058e-02        00000 
-6.00584e-03  1.60534e-02        00000 
-4.23980e-03  2.13568e-02        00000 
-3.53986e-03  4.28089e-02        00000 
 2.59076e-02  4.10901e-01        00000 
-2.65613e-03  2.71802e-02        00000 
 3.89123e-02  3.03951e-01        00000 
-1.16631e-02  5.22428e-02        00000 
 3.77453e-02  3.72750e-01        00000 
 4.26626e-02  3.19439e-01        00000 
 4.16438e-02  3.54513e-01        00000 
-4.57723e-03  4.56713e-02        00000 
-3.91079e-03  1.32939e-02        00000 
 4.36444e-02  3.36448e-01        00000 
-2.68939e-03  1.69157e-02        00000 
-3.19726e-02  6.05889e-02        00000 
-3.87089e-19  5.00000e-01        00000 
-1.62537e-03  2.16810e-02        00000 
-1.12770e-03  3.16666e-02        00000 
-2.64822e-02  5.61417e-02        00000 
 4.98402e-03  4.84386e-01        00000 
 3.98142e-02  2.82551e-01        00000 
 3.34559e-02  3.91007e-01        00000 
-2.10676e-02  5.16759e-02        00000 
 1.08026e-02  4.67470e-01        00000 
-1.92612e-03  1.16119e-02        00000 
-2.49001e-04  2.48493e-02        00000 
 1.70331e-02  4.48762e-01        00000 
-1.60230e-02  4.75330e-02        00000 
 4.47155e-02  2.98451e-01        00000 
-1.50971e-03  1.36136e-02        00000 
-2.41891e-04  2.13776e-02        00000 
 4.02668e-02  2.60843e-01        00000 
-5.46921e-04  1.74214e-02        00000 
 4.37494e-02  3.55426e-01        00000 
 2.34847e-02  4.29490e-01        00000 
 4.74194e-02  3.16083e-01        00000 
 4.69257e-02  3.35833e-01        00000 
-1.15641e-02  4.34071e-02        00000 
 2.70321e-05  1.10689e-02        00000 
 4.02926e-02  3.72846e-01        00000 
-7.38776e-04  1.15030e-02        00000 
 4.02527e-02  2.39007e-01        00000 
-7.78699e-03  3.96063e-02        00000 
 3.03752e-02  4.09458e-01        00000 
 4.59988e-02  2.76919e-01        00000 
-7.55096e-04  3.35236e-02        00000 
 4.13210e-04  3.02556e-02        00000 
-4.93504e-03  3.77296e-02        00000 
 7.74651e-04  1.79545e-02        00000 
 1.88855e-03  1.17222e-02        00000 
 1.19067e-04  1.38597e-02        00000 
 1.48913e-03  2.45862e-02        00000 
 3.97852e-02  2.17311e-01        00000 
 5.02742e-02  2.94431e-01        00000 
 4.60026e-02  3.56401e-01        00000 
-1.27600e-04  1.05952e-02        00000 
 1.58751e-03  1.97431e-02        00000 
 3.73515e-02  3.90104e-01        00000 
-2.47249e-02  4.16805e-02        00000 
 2.69933e-19  5.00000e-01        00000 
 4.64035e-02  2.55513e-01        00000 
 4.94177e-02  3.38215e-01        00000 
-1.58512e-03  3.23210e-02        00000 
 3.78664e-03  1.34017e-02        00000 
-1.93577e-02  3.72423e-02        00000 
 7.25826e-03  4.83409e-01        00000 
 5.20152e-02  3.15053e-01        00000 
-1.43819e-02  3.36619e-02        00000 
 1.47105e-02  4.65267e-01        00000 
 3.88751e-02  1.95932e-01        00000 
 1.72558e-04  1.14674e-02        00000 
 5.84045e-03  1.61591e-02        00000 
-1.03020e-02  3.07650e-02        00000 
 2.16290e-02  4.46431e-01        00000 
 4.99241e-02  3.43808e-01        00000 
 4.60397e-02  2.34288e-01        00000 
 4.39469e-02  3.71612e-01        00000 
 5.18385e-02  2.72462e-01        00000 
 3.75541e-02  1.75117e-01        00000 
 1.25470e-03  1.38527e-02        00000 
 1.85344e-04  1.10693e-02        00000 
 8.09749e-06  1.06310e-02        00000 
-6.90694e-03  2.80625e-02        00000 
 9.41972e-04  2.58372e-02        00000 
 2.83368e-02  4.27051e-01        00000 
 8.10002e-03  2.00800e-02        00000 
 3.58548e-02  1.55071e-01        00000 
 4.49795e-02  2.13896e-01        00000 
 1.05395e-02  2.53067e-02        00000 
-4.05976e-03  2.55636e-02        00000 
 3.51136e-02  4.07567e-01        00000 
 5.57389e-02  2.91810e-01        00000 
 2.17643e-03  2.16210e-02        00000 
 3.38526e-02  1.35975e-01        00000 
 4.97390e-02  3.53925e-01        00000 
 5.21860e-02  2.50780e-01        00000 
 6.61167e-04  1.33609e-02        00000 
 1.31229e-02  3.18446e-02        00000 
 4.34896e-02  1.94040e-01        00000 
 3.16094e-02  1.17985e-01        00000 
-1.68939e-03  2.33431e-02        00000 
 6.51265e-04  1.07998e-02        00000 
 1.57817e-02  3.97597e-02        00000 
 2.91880e-02  1.01271e-01        00000 
 2.72802e-03  1.74386e-02        00000 
 1.85010e-02  4.90760e-02        00000 
 5.41997e-02  3.37101e-01        00000 
 4.18507e-02  3.88425e-01        00000 
 5.67741e-02  3.17809e-01        00000 
 2.66429e-02  8.60103e-02        00000 
 2.12487e-02  5.98818e-02        00000 
 2.39762e-02  7.21828e-02        00000 
 1.75442e-03  1.72873e-02        00000 
 4.14813e-02  1.74778e-01        00000 
 5.13227e-02  2.29843e-01        00000 
 8.04955e-19  5.00000e-01        00000 
-1.62322e-02  2.23264e-02        00000 