<?xml version="1.0" encoding="utf-8"?>
<VTKFile byte_order="LittleEndian" type="UnstructuredGrid" version="0.1">
   <UnstructuredGrid>
      <Piece NumberOfCells="641" NumberOfPoints="730">
         <Points>
            <DataArray Name="Points" NumberOfComponents="3" format="ascii" type="Float32">
1.0000 1.0000 0.0000
0.9600 1.0000 0.0000
1.0000 0.9600 0.0000
0.9603 0.9614 0.0000
1.0000 0.9200 0.0000
0.9200 1.0000 0.0000
0.9612 0.9231 0.0000
0.9211 0.9624 0.0000
0.9230 0.9260 0.0000
1.0000 0.8800 0.0000
0.8800 1.0000 0.0000
0.9614 0.8856 0.0000
0.8829 0.9623 0.0000
0.9240 0.8918 0.0000
0.8875 0.9262 0.0000
0.8933 0.8971 0.0000
0.9597 0.8473 0.0000
1.0000 0.8400 0.0000
0.8400 1.0000 0.0000
0.8440 0.9601 0.0000
0.9173 0.8563 0.0000
0.8514 0.9190 0.0000
0.8690 0.8729 0.0000
0.9592 0.8063 0.0000
1.0000 0.8000 0.0000
0.8000 1.0000 0.0000
0.8021 0.9589 0.0000
0.9165 0.8130 0.0000
0.8054 0.9165 0.0000
0.8676 0.8205 0.0000
0.8109 0.8707 0.0000
0.9597 0.7652 0.0000
1.0000 0.7600 0.0000
0.7600 1.0000 0.0000
0.7590 0.9590 0.0000
0.9161 0.7702 0.0000
0.7581 0.9167 0.0000
0.8122 0.8209 0.0000
0.8679 0.7733 0.0000
0.7569 0.8708 0.0000
0.9590 0.7242 0.0000
1.0000 0.7200 0.0000
0.7200 1.0000 0.0000
0.9153 0.7275 0.0000
0.7165 0.9591 0.0000
0.8165 0.7719 0.0000
0.7126 0.9181 0.0000
0.8686 0.7282 0.0000
0.7510 0.8174 0.0000
0.7082 0.8753 0.0000
0.9580 0.6829 0.0000
1.0000 0.6800 0.0000
0.6800 1.0000 0.0000
0.7693 0.7706 0.0000
0.9140 0.6851 0.0000
0.6742 0.9594 0.0000
0.8161 0.7213 0.0000
0.8740 0.6885 0.0000
0.6685 0.9181 0.0000
0.7012 0.8339 0.0000
0.7734 0.7344 0.0000
0.7152 0.7855 0.0000
0.6650 0.8760 0.0000
0.7356 0.7577 0.0000
1.0000 0.6400 0.0000
0.6400 1.0000 0.0000
0.8350 0.6800 0.0000
0.9558 0.6404 0.0000
0.8757 0.6585 0.0000
0.7480 0.7370 0.0000
0.6333 0.9593 0.0000
0.6862 0.8039 0.0000
0.9052 0.6395 0.0000
0.6619 0.8374 0.0000
0.7838 0.6876 0.0000
0.7581 0.7055 0.0000
0.6270 0.9175 0.0000
0.6640 0.8136 0.0000
0.8474 0.6471 0.0000
0.7341 0.7184 0.0000
0.6889 0.7621 0.0000
0.8018 0.6601 0.0000
0.7087 0.7349 0.0000
0.6240 0.8728 0.0000
0.6655 0.7821 0.0000
1.0000 0.6000 0.0000
0.6000 1.0000 0.0000
0.9579 0.5979 0.0000
0.8635 0.6181 0.0000
0.6438 0.7994 0.0000
0.5930 0.9599 0.0000
0.7406 0.6813 0.0000
0.8153 0.6317 0.0000
0.7215 0.6960 0.0000
0.7582 0.6627 0.0000
0.9144 0.5934 0.0000
0.6224 0.8262 0.0000
0.7025 0.7080 0.0000
0.6817 0.7264 0.0000
0.5880 0.9170 0.0000
0.6661 0.7445 0.0000
0.6874 0.7117 0.0000
0.7729 0.6402 0.0000
0.6462 0.7610 0.0000
0.8270 0.6029 0.0000
0.5855 0.8736 0.0000
0.7078 0.6759 0.0000
0.8731 0.5824 0.0000
0.6922 0.6895 0.0000
0.6247 0.7752 0.0000
0.7227 0.6602 0.0000
0.6777 0.7007 0.0000
1.0000 0.5600 0.0000
0.5600 1.0000 0.0000
0.7852 0.6159 0.0000
0.6645 0.7138 0.0000
0.7363 0.6426 0.0000
0.9599 0.5572 0.0000
0.6483 0.7278 0.0000
0.5542 0.9595 0.0000
0.6026 0.7897 0.0000
0.5823 0.8324 0.0000
0.6299 0.7405 0.0000
0.9195 0.5531 0.0000
0.7477 0.6223 0.0000
0.5507 0.9171 0.0000
0.6803 0.6732 0.0000
0.6658 0.6871 0.0000
0.8355 0.5722 0.0000
0.7947 0.5901 0.0000
0.6936 0.6581 0.0000
0.6502 0.6999 0.0000
0.6098 0.7514 0.0000
0.7057 0.6420 0.0000
0.7579 0.6014 0.0000
0.6336 0.7113 0.0000
0.5497 0.8744 0.0000
0.8778 0.5472 0.0000
0.7165 0.6250 0.0000
0.5740 0.7964 0.0000
0.6162 0.7214 0.0000
0.5892 0.7610 0.0000
0.7259 0.6072 0.0000
0.8020 0.5638 0.0000
1.0000 0.5200 0.0000
0.5200 1.0000 0.0000
0.5492 0.8345 0.0000
0.7657 0.5790 0.0000
0.9606 0.5179 0.0000
0.5980 0.7300 0.0000
0.8398 0.5417 0.0000
0.5158 0.9583 0.0000
0.7338 0.5887 0.0000
0.9203 0.5154 0.0000
0.5665 0.7670 0.0000
0.5131 0.9159 0.0000
0.5474 0.8009 0.0000
0.5792 0.7371 0.0000
0.7720 0.5563 0.0000
0.8787 0.5129 0.0000
0.8059 0.5366 0.0000
0.5141 0.8719 0.0000
0.7401 0.5696 0.0000
0.5598 0.7427 0.0000
0.5440 0.7719 0.0000
0.5175 0.8314 0.0000
0.8405 0.5118 0.0000
0.7450 0.5500 0.0000
0.5225 0.8010 0.0000
0.7754 0.5328 0.0000
1.0000 0.4800 0.0000
0.4800 1.0000 0.0000
0.9602 0.4791 0.0000
0.5401 0.7468 0.0000
0.4767 0.9571 0.0000
0.8069 0.5110 0.0000
0.9179 0.4782 0.0000
0.5221 0.7741 0.0000
0.4748 0.9127 0.0000
0.7482 0.5301 0.0000
0.8747 0.4784 0.0000
0.5027 0.7984 0.0000
0.7768 0.5101 0.0000
0.4760 0.8661 0.0000
0.5201 0.7492 0.0000
0.8373 0.4828 0.0000
0.4848 0.8182 0.0000
0.5012 0.7757 0.0000
0.7498 0.5101 0.0000
0.8046 0.4854 0.0000
0.5000 0.7500 0.0000
0.7754 0.4874 0.0000
1.0000 0.4400 0.0000
0.4400 1.0000 0.0000
0.9587 0.4395 0.0000
0.4799 0.7803 0.0000
0.4361 0.9573 0.0000
0.9156 0.4395 0.0000
0.7498 0.4899 0.0000
0.8291 0.4561 0.0000
0.4343 0.9109 0.0000
0.8003 0.4626 0.0000
0.8632 0.4393 0.0000
0.4799 0.7492 0.0000
0.7730 0.4662 0.0000
0.4477 0.8146 0.0000
0.4327 0.8588 0.0000
0.7482 0.4699 0.0000
0.8161 0.4410 0.0000
0.4541 0.7785 0.0000
0.7944 0.4428 0.0000
0.4599 0.7468 0.0000
1.0000 0.4000 0.0000
0.4000 1.0000 0.0000
0.7686 0.4455 0.0000
0.9592 0.3996 0.0000
0.8248 0.4242 0.0000
0.3968 0.9575 0.0000
0.7450 0.4500 0.0000
0.9170 0.3993 0.0000
0.4159 0.8309 0.0000
0.4229 0.8031 0.0000
0.3948 0.9133 0.0000
0.4316 0.7723 0.0000
0.7936 0.4233 0.0000
0.4402 0.7427 0.0000
0.8698 0.3967 0.0000
0.7652 0.4264 0.0000
0.3936 0.8689 0.0000
0.7401 0.4304 0.0000
0.3920 0.8309 0.0000
0.8264 0.3924 0.0000
0.3992 0.7968 0.0000
0.4094 0.7650 0.0000
0.4208 0.7371 0.0000
0.7903 0.3985 0.0000
1.0000 0.3600 0.0000
0.3600 1.0000 0.0000
0.7600 0.4056 0.0000
0.9598 0.3592 0.0000
0.3583 0.9570 0.0000
0.7338 0.4113 0.0000
0.9182 0.3582 0.0000
0.3575 0.9135 0.0000
0.3585 0.8699 0.0000
0.4020 0.7300 0.0000
0.8721 0.3546 0.0000
0.3871 0.7558 0.0000
0.3627 0.8272 0.0000
0.3723 0.7881 0.0000
0.7509 0.3845 0.0000
0.7810 0.3713 0.0000
0.7259 0.3928 0.0000
0.8206 0.3501 0.0000
0.3838 0.7214 0.0000
1.0000 0.3200 0.0000
0.3200 1.0000 0.0000
0.9609 0.3186 0.0000
0.3188 0.9571 0.0000
0.3655 0.7452 0.0000
0.7165 0.3750 0.0000
0.3191 0.9130 0.0000
0.7387 0.3639 0.0000
0.9203 0.3164 0.0000
0.3226 0.8674 0.0000
0.7625 0.3483 0.0000
0.3295 0.8214 0.0000
0.3412 0.7756 0.0000
0.3664 0.7113 0.0000
0.8783 0.3117 0.0000
0.3501 0.7297 0.0000
0.7057 0.3580 0.0000
0.7858 0.3237 0.0000
0.7257 0.3455 0.0000
0.3355 0.7477 0.0000
0.8363 0.3032 0.0000
0.3498 0.6999 0.0000
0.7447 0.3291 0.0000
1.0000 0.2800 0.0000
0.2800 1.0000 0.0000
0.2794 0.9569 0.0000
0.9615 0.2779 0.0000
0.3326 0.7179 0.0000
0.2801 0.9127 0.0000
0.6936 0.3419 0.0000
0.2847 0.8665 0.0000
0.9228 0.2753 0.0000
0.7128 0.3285 0.0000
0.2921 0.8195 0.0000
0.7602 0.3086 0.0000
0.3033 0.7758 0.0000
0.3147 0.7412 0.0000
0.3342 0.6871 0.0000
0.7305 0.3141 0.0000
0.8833 0.2705 0.0000
0.7998 0.2876 0.0000
0.7436 0.3019 0.0000
0.6803 0.3268 0.0000
0.3147 0.7039 0.0000
0.6989 0.3111 0.0000
0.8465 0.2623 0.0000
0.3197 0.6732 0.0000
0.7181 0.2951 0.0000
0.7660 0.2772 0.0000
1.0000 0.2400 0.0000
0.2400 1.0000 0.0000
0.2395 0.9570 0.0000
0.9623 0.2379 0.0000
0.3033 0.6872 0.0000
0.2867 0.7266 0.0000
0.7391 0.2819 0.0000
0.6658 0.3129 0.0000
0.2402 0.9130 0.0000
0.2441 0.8665 0.0000
0.9241 0.2355 0.0000
0.2521 0.8179 0.0000
0.2648 0.7698 0.0000
0.2877 0.7007 0.0000
0.3064 0.6581 0.0000
0.6834 0.2942 0.0000
0.8864 0.2325 0.0000
0.8108 0.2442 0.0000
0.2899 0.6725 0.0000
0.6502 0.3001 0.0000
0.8557 0.2306 0.0000
0.7030 0.2743 0.0000
0.2943 0.6420 0.0000
0.2710 0.6909 0.0000
0.7273 0.2535 0.0000
0.6657 0.2787 0.0000
1.0000 0.2000 0.0000
0.2000 1.0000 0.0000
0.6336 0.2887 0.0000
0.2514 0.7173 0.0000
0.2756 0.6564 0.0000
0.1992 0.9576 0.0000
0.9620 0.1981 0.0000
0.7627 0.2311 0.0000
0.1993 0.9141 0.0000
0.9233 0.1961 0.0000
0.2835 0.6250 0.0000
0.2019 0.8680 0.0000
0.6830 0.2545 0.0000
0.2075 0.8181 0.0000
0.8823 0.1948 0.0000
0.2539 0.6737 0.0000
0.6460 0.2652 0.0000
0.6162 0.2786 0.0000
0.8346 0.1977 0.0000
0.2163 0.7604 0.0000
0.2633 0.6381 0.0000
0.2741 0.6072 0.0000
0.7040 0.2284 0.0000
0.2284 0.6955 0.0000
0.6248 0.2559 0.0000
0.5980 0.2700 0.0000
0.6595 0.2370 0.0000
0.7292 0.2095 0.0000
0.2397 0.6531 0.0000
0.2516 0.6187 0.0000
1.0000 0.1600 0.0000
0.1600 1.0000 0.0000
0.2662 0.5887 0.0000
0.1588 0.9585 0.0000
0.9622 0.1583 0.0000
0.1581 0.9163 0.0000
0.9233 0.1564 0.0000
0.6042 0.2491 0.0000
0.5792 0.2629 0.0000
0.1589 0.8722 0.0000
0.1958 0.7202 0.0000
0.8836 0.1548 0.0000
0.2123 0.6706 0.0000
0.6322 0.2291 0.0000
0.2599 0.5696 0.0000
0.7803 0.1720 0.0000
0.1609 0.8259 0.0000
0.2262 0.6315 0.0000
0.2418 0.5979 0.0000
0.8442 0.1523 0.0000
0.5598 0.2573 0.0000
0.5842 0.2424 0.0000
0.6765 0.1983 0.0000
0.1621 0.7781 0.0000
0.6083 0.2254 0.0000
0.2550 0.5500 0.0000
0.8115 0.1450 0.0000
0.1814 0.6889 0.0000
0.2335 0.5759 0.0000
0.1986 0.6460 0.0000
0.7210 0.1689 0.0000
0.5401 0.2532 0.0000
0.2141 0.6084 0.0000
0.5648 0.2361 0.0000
1.0000 0.1200 0.0000
0.1200 1.0000 0.0000
0.5886 0.2216 0.0000
0.6361 0.1981 0.0000
0.9623 0.1186 0.0000
0.1185 0.9594 0.0000
0.2518 0.5301 0.0000
0.1554 0.7378 0.0000
0.9238 0.1169 0.0000
0.1171 0.9188 0.0000
0.5201 0.2508 0.0000
0.6081 0.2005 0.0000
0.1177 0.8757 0.0000
0.8845 0.1155 0.0000
0.2278 0.5529 0.0000
0.5447 0.2310 0.0000
0.5916 0.2048 0.0000
0.2502 0.5101 0.0000
0.5703 0.2140 0.0000
0.1692 0.6615 0.0000
0.1178 0.8329 0.0000
0.2039 0.5833 0.0000
0.1845 0.6209 0.0000
0.8462 0.1139 0.0000
0.5000 0.2500 0.0000
0.1474 0.7037 0.0000
0.5242 0.2284 0.0000
0.2502 0.4899 0.0000
0.8095 0.1132 0.0000
0.1175 0.7897 0.0000
0.2245 0.5293 0.0000
0.6911 0.1470 0.0000
0.6623 0.1569 0.0000
0.7718 0.1199 0.0000
0.5787 0.1926 0.0000
0.4799 0.2508 0.0000
0.5494 0.2063 0.0000
0.6277 0.1636 0.0000
0.2518 0.4699 0.0000
0.1972 0.5560 0.0000
0.1405 0.6744 0.0000
0.5036 0.2260 0.0000
0.5965 0.1735 0.0000
0.1148 0.7499 0.0000
1.0000 0.0800 0.0000
0.0800 1.0000 0.0000
0.2237 0.5060 0.0000
0.1547 0.6362 0.0000
0.7277 0.1206 0.0000
0.4599 0.2532 0.0000
0.9618 0.0790 0.0000
0.0786 0.9601 0.0000
0.1700 0.5930 0.0000
0.9229 0.0780 0.0000
0.0778 0.9196 0.0000
0.2550 0.4500 0.0000
0.5267 0.2034 0.0000
0.4402 0.2573 0.0000
0.8839 0.0770 0.0000
0.0771 0.8790 0.0000
0.1358 0.6525 0.0000
0.2250 0.4832 0.0000
0.1115 0.7133 0.0000
0.1942 0.5282 0.0000
0.2599 0.4304 0.0000
0.5565 0.1781 0.0000
0.4830 0.2210 0.0000
[...]
         <PointData>
            <DataArray Name="Displacement" NumberOfComponents="3" format="ascii" type="Float64">
-1.53263e-17  6.00000e-01        00000 
 8.15176e-18  6.00000e-01        00000 
-1.88242e-02  5.74275e-01        00000 
-1.18278e-02  5.79537e-01        00000 
-2.86341e-02  5.51641e-01        00000 
-5.63390e-18  6.00000e-01        00000 
-2.19422e-02  5.57670e-01        00000 
-8.05088e-03  5.81612e-01        00000 
-1.60259e-02  5.62450e-01        00000 
-3.68806e-02  5.29467e-01        00000 
 3.89159e-18  6.00000e-01        00000 
-2.96559e-02  5.36678e-01        00000 
-5.57558e-03  5.82819e-01        00000 
-2.28466e-02  5.43876e-01        00000 
-1.19846e-02  5.64875e-01        00000 
-1.77080e-02  5.49476e-01        00000 
-3.66313e-02  5.15405e-01        00000 
-4.44643e-02  5.07050e-01        00000 
 1.54702e-18  6.00000e-01        00000 
-3.72281e-03  5.83150e-01        00000 
-2.83110e-02  5.25126e-01        00000 
-9.38260e-03  5.63956e-01        00000 
-1.83446e-02  5.39500e-01        00000 
-4.41075e-02  4.92269e-01        00000 
-5.19404e-02  4.84314e-01        00000 
 1.05729e-18  6.00000e-01        00000 
-1.81817e-03  5.84235e-01        00000 
-3.59408e-02  5.01157e-01        00000 
-5.53230e-03  5.66478e-01        00000 
-2.68656e-02  5.12069e-01        00000 
-1.12763e-02  5.45401e-01        00000 
-5.17873e-02  4.68532e-01        00000 
-5.94060e-02  4.61223e-01        00000 
-3.52677e-19  6.00000e-01        00000 
-7.60172e-05  5.86110e-01        00000 
-4.36363e-02  4.76897e-01        00000 
-1.87880e-03  5.70875e-01        00000 
-1.84103e-02  5.21414e-01        00000 
-3.50977e-02  4.86154e-01        00000 
-5.38396e-03  5.53376e-01        00000 
-5.91630e-02  4.44467e-01        00000 
-6.67424e-02  4.37724e-01        00000 
 3.52963e-19  6.00000e-01        00000 
-5.12790e-02  4.51967e-01        00000 
 1.25249e-03  5.88159e-01        00000 
-2.69970e-02  4.95761e-01        00000 
 8.87858e-04  5.75944e-01        00000 
-4.33056e-02  4.60073e-01        00000 
-1.03993e-02  5.32766e-01        00000 
-7.31161e-04  5.63025e-01        00000 
-6.61717e-02  4.19568e-01        00000 
-7.36652e-02  4.13775e-01        00000 
-7.62690e-19  6.00000e-01        00000 
-1.98466e-02  5.07302e-01        00000 
-5.84386e-02  4.26461e-01        00000 
 2.08478e-03  5.90289e-01        00000 
-3.57839e-02  4.68196e-01        00000 
-5.11338e-02  4.35114e-01        00000 
 2.59604e-03  5.80588e-01        00000 
-3.25506e-03  5.51212e-01        00000 
-2.66669e-02  4.88439e-01        00000 
-1.02080e-02  5.30224e-01        00000 
 1.85933e-03  5.70702e-01        00000 
-1.70983e-02  5.12290e-01        00000 
-7.97790e-02  3.89321e-01        00000 
 1.15668e-18  6.00000e-01        00000 
-4.59645e-02  4.38576e-01        00000 
-7.23217e-02  3.93216e-01        00000 
-5.61893e-02  4.15853e-01        00000 
-2.23959e-02  4.98892e-01        00000 
 2.37864e-03  5.92147e-01        00000 
-4.74491e-03  5.45837e-01        00000 
-6.40573e-02  3.98551e-01        00000 
 5.60128e-05  5.61733e-01        00000 
-3.62278e-02  4.59204e-01        00000 
-2.92623e-02  4.79468e-01        00000 
 3.25456e-03  5.84673e-01        00000 
-1.94499e-03  5.55280e-01        00000 
-5.31491e-02  4.14131e-01        00000 
-2.35758e-02  4.96263e-01        00000 
-1.06184e-02  5.32145e-01        00000 
-4.35120e-02  4.35592e-01        00000 
-1.74207e-02  5.14440e-01        00000 
 2.96660e-03  5.76946e-01        00000 
-5.42151e-03  5.46822e-01        00000 
-8.47704e-02  3.64355e-01        00000 
-8.29550e-19  6.00000e-01        00000 
-7.79222e-02  3.65710e-01        00000 
-5.96827e-02  3.90754e-01        00000 
-1.73194e-03  5.58267e-01        00000 
 2.11335e-03  5.93831e-01        00000 
-3.05777e-02  4.75094e-01        00000 
-4.96987e-02  4.11871e-01        00000 
-2.56973e-02  4.92601e-01        00000 
-3.59304e-02  4.55376e-01        00000 
-7.11016e-02  3.66382e-01        00000 
 1.49135e-03  5.69180e-01        00000 
-2.14895e-02  5.08163e-01        00000 
-1.60832e-02  5.25149e-01        00000 
 3.00012e-03  5.88009e-01        00000 
-1.13128e-02  5.37468e-01        00000 
-1.93412e-02  5.18091e-01        00000 
-4.12748e-02  4.33582e-01        00000 
-6.87403e-03  5.49801e-01        00000 
-5.50388e-02  3.87251e-01        00000 
 3.05380e-03  5.82751e-01        00000 
-2.72038e-02  4.92334e-01        00000 
-6.51325e-02  3.63312e-01        00000 
-2.36375e-02  5.08262e-01        00000 
-3.31662e-03  5.60445e-01        00000 
-3.10461e-02  4.74465e-01        00000 
-2.06213e-02  5.21226e-01        00000 
-8.82895e-02  3.38892e-01        00000 
-2.23868e-19  6.00000e-01        00000 
-4.61327e-02  4.10367e-01        00000 
-1.72499e-02  5.32192e-01        00000 
-3.49548e-02  4.54967e-01        00000 
-8.16916e-02  3.38609e-01        00000 
-1.33752e-02  5.43570e-01        00000 
 1.43985e-03  5.94877e-01        00000 
-6.28180e-04  5.69377e-01        00000 
 2.26098e-03  5.78822e-01        00000 
-9.67877e-03  5.54195e-01        00000 
-7.51662e-02  3.37868e-01        00000 
-3.87069e-02  4.33531e-01        00000 
 2.04346e-03  5.90405e-01        00000 
-2.53659e-02  5.12256e-01        00000 
-2.26098e-02  5.27031e-01        00000 
-5.92667e-02  3.61271e-01        00000 
-5.02011e-02  3.86017e-01        00000 
-2.80968e-02  4.95605e-01        00000 
-1.98097e-02  5.39845e-01        00000 
-6.49419e-03  5.63602e-01        00000 
-3.07395e-02  4.77231e-01        00000 
-4.21427e-02  4.10733e-01        00000 
-1.69415e-02  5.50948e-01        00000 
 2.16340e-03  5.86676e-01        00000 
-6.83890e-02  3.36399e-01        00000 
-3.32589e-02  4.57227e-01        00000 
 5.76574e-04  5.77478e-01        00000 
-1.41220e-02  5.60374e-01        00000 
-3.90148e-03  5.71333e-01        00000 
-3.55976e-02  4.35763e-01        00000 
-5.33942e-02  3.60923e-01        00000 
-9.00935e-02  3.13045e-01        00000 
 9.49496e-20  6.00000e-01        00000 
 1.77866e-03  5.84034e-01        00000 
-4.50002e-02  3.86628e-01        00000 
-8.34641e-02  3.12167e-01        00000 
-1.14150e-02  5.68196e-01        00000 
-6.18313e-02  3.35528e-01        00000 
 4.70227e-04  5.95308e-01        00000 
-3.76603e-02  4.12970e-01        00000 
-7.67469e-02  3.11039e-01        00000 
-2.23442e-03  5.77916e-01        00000 
 5.90599e-04  5.91476e-01        00000 
 8.38220e-04  5.82705e-01        00000 
-8.86293e-03  5.74465e-01        00000 
-4.72935e-02  3.61698e-01        00000 
-6.96734e-02  3.09981e-01        00000 
-5.53649e-02  3.35096e-01        00000 
 6.93492e-04  5.88482e-01        00000 
-3.94102e-02  3.89053e-01        00000 
-6.46467e-03  5.79370e-01        00000 
-1.04653e-03  5.82518e-01        00000 
 6.79153e-04  5.86537e-01        00000 
-6.27701e-02  3.10072e-01        00000 
-4.07730e-02  3.64237e-01        00000 
 5.00915e-04  5.85460e-01        00000 
-4.87007e-02  3.36087e-01        00000 
-9.00664e-02  2.87058e-01        00000 
-4.02178e-19  6.00000e-01        00000 
-8.32971e-02  2.85894e-01        00000 
-4.19334e-03  5.82833e-01        00000 
-6.52016e-04  5.95099e-01        00000 
-5.61109e-02  3.10532e-01        00000 
-7.62055e-02  2.84344e-01        00000 
-4.03393e-04  5.85193e-01        00000 
-1.05114e-03  5.90935e-01        00000 
-4.17106e-02  3.38749e-01        00000 
-6.87975e-02  2.83121e-01        00000 
 1.07082e-04  5.86162e-01        00000 
-4.92874e-02  3.11091e-01        00000 
-1.08235e-03  5.87785e-01        00000 
-2.03722e-03  5.84925e-01        00000 
-6.21019e-02  2.85096e-01        00000 
-5.04048e-04  5.86312e-01        00000 
 2.42491e-05  5.86134e-01        00000 
-4.21780e-02  3.12898e-01        00000 
-5.55728e-02  2.85742e-01        00000 
 7.87393e-05  5.85602e-01        00000 
-4.89424e-02  2.85887e-01        00000 
-8.82228e-02  2.61205e-01        00000 
 2.78873e-19  6.00000e-01        00000 
-8.12197e-02  2.59241e-01        00000 
 1.85023e-04  5.85326e-01        00000 
-1.66292e-03  5.94340e-01        00000 
-7.39917e-02  2.56726e-01        00000 
-4.21679e-02  2.86883e-01        00000 
-5.97008e-02  2.61134e-01        00000 
-2.47376e-03  5.88834e-01        00000 
-5.41437e-02  2.63197e-01        00000 
-6.51274e-02  2.51805e-01        00000 
 2.09665e-03  5.84824e-01        00000 
-4.80786e-02  2.62153e-01        00000 
-1.32607e-03  5.82554e-01        00000 
-2.61523e-03  5.83568e-01        00000 
-4.16759e-02  2.61052e-01        00000 
-5.63972e-02  2.46135e-01        00000 
 5.63022e-04  5.82316e-01        00000 
-5.21385e-02  2.43229e-01        00000 
 4.16348e-03  5.82778e-01        00000 
-8.47226e-02  2.35698e-01        00000 
 3.93109e-19  6.00000e-01        00000 
-4.65612e-02  2.39005e-01        00000 
-7.78115e-02  2.32861e-01        00000 
-5.69971e-02  2.33862e-01        00000 
-2.27885e-03  5.93073e-01        00000 
-4.07335e-02  2.35590e-01        00000 
-7.07265e-02  2.28987e-01        00000 
-2.06081e-03  5.78326e-01        00000 
-9.05784e-04  5.77439e-01        00000 
-3.22851e-03  5.86036e-01        00000 
 1.61205e-03  5.77740e-01        00000 
-5.09043e-02  2.25354e-01        00000 
 6.37962e-03  5.79409e-01        00000 
-6.25163e-02  2.20975e-01        00000 
-4.51091e-02  2.18389e-01        00000 
-3.03311e-03  5.79128e-01        00000 
-3.93615e-02  2.10890e-01        00000 
-1.95255e-03  5.73352e-01        00000 
-5.44421e-02  2.08998e-01        00000 
-1.12471e-05  5.70862e-01        00000 
 3.29905e-03  5.71237e-01        00000 
 8.78771e-03  5.74575e-01        00000 
-4.84127e-02  2.03120e-01        00000 
-7.97607e-02  2.10679e-01        00000 
 1.87004e-19  6.00000e-01        00000 
-4.29599e-02  1.96493e-01        00000 
-7.28982e-02  2.06898e-01        00000 
-2.44043e-03  5.91305e-01        00000 
-3.76190e-02  1.87066e-01        00000 
-6.57973e-02  2.01774e-01        00000 
-3.10882e-03  5.82304e-01        00000 
-2.49232e-03  5.73405e-01        00000 
 1.13738e-02  5.68221e-01        00000 
-5.75603e-02  1.92376e-01        00000 
 5.76163e-03  5.62708e-01        00000 
-8.22328e-04  5.65611e-01        00000 
 1.92384e-03  5.61438e-01        00000 
-3.97923e-02  1.73744e-01        00000 
-4.39598e-02  1.78291e-01        00000 
-3.55670e-02  1.64292e-01        00000 
-4.82317e-02  1.77242e-01        00000 
 1.40324e-02  5.60329e-01        00000 
-7.36505e-02  1.86192e-01        00000 
 2.60667e-19  6.00000e-01        00000 
-6.68722e-02  1.81619e-01        00000 
-2.04646e-03  5.89359e-01        00000 
 8.90693e-03  5.52457e-01        00000 
-3.32445e-02  1.42743e-01        00000 
-2.13159e-03  5.77923e-01        00000 
-3.59562e-02  1.50872e-01        00000 
-5.97167e-02  1.75387e-01        00000 
-8.31016e-04  5.66209e-01        00000 
-3.80874e-02  1.53634e-01        00000 
 1.66753e-03  5.55411e-01        00000 
 5.53653e-03  5.47686e-01        00000 
 1.68287e-02  5.51038e-01        00000 
-5.18720e-02  1.65703e-01        00000 
 1.29588e-02  5.43118e-01        00000 
-3.07174e-02  1.22701e-01        00000 
-3.83362e-02  1.48225e-01        00000 
-3.20914e-02  1.30613e-01        00000 
 1.07259e-02  5.39280e-01        00000 
-4.34266e-02  1.51361e-01        00000 
 1.96619e-02  5.39816e-01        00000 
-3.26906e-02  1.32702e-01        00000 
-6.67446e-02  1.62226e-01        00000 
-6.25547e-19  6.00000e-01        00000 
-1.15966e-03  5.87277e-01        00000 
-5.99657e-02  1.57050e-01        00000 
 1.64724e-02  5.31220e-01        00000 
-3.20663e-04  5.73461e-01        00000 
-2.80685e-02  1.04427e-01        00000 
 1.87514e-03  5.58919e-01        00000 
-5.30174e-02  1.50616e-01        00000 
-2.83423e-02  1.13037e-01        00000 
 5.23125e-03  5.44651e-01        00000 
-3.18992e-02  1.28886e-01        00000 
 9.42262e-03  5.33554e-01        00000 
 1.36054e-02  5.27628e-01        00000 
 2.25158e-02  5.26807e-01        00000 
-2.84554e-02  1.16975e-01        00000 
-4.55393e-02  1.41607e-01        00000 
-3.46824e-02  1.32126e-01        00000 
-2.83372e-02  1.17724e-01        00000 
-2.53210e-02  8.79629e-02        00000 
 2.04692e-02  5.16826e-01        00000 
-2.42807e-02  9.65381e-02        00000 
-3.79043e-02  1.29714e-01        00000 
 2.53402e-02  5.12198e-01        00000 
-2.37738e-02  1.01772e-01        00000 
-2.75226e-02  1.14760e-01        00000 
-5.94050e-02  1.38721e-01        00000 
 8.66964e-20  6.00000e-01        00000 
 1.72957e-04  5.85354e-01        00000 
-5.27906e-02  1.33519e-01        00000 
 2.43684e-02  5.04440e-01        00000 
 1.93244e-02  5.08984e-01        00000 
-2.43253e-02  1.06248e-01        00000 
-2.25093e-02  7.33051e-02        00000 
 2.22951e-03  5.69322e-01        00000 
 5.64749e-03  5.51841e-01        00000 
-4.59886e-02  1.27375e-01        00000 
 1.00393e-02  5.33789e-01        00000 
 1.51341e-02  5.17717e-01        00000 
 2.38783e-02  4.99933e-01        00000 
 2.81107e-02  4.95643e-01        00000 
-2.00005e-02  8.13889e-02        00000 
-3.91977e-02  1.20084e-01        00000 
-2.88689e-02  1.11497e-01        00000 
 2.79389e-02  4.89226e-01        00000 
-1.96819e-02  6.04103e-02        00000 
-3.37931e-02  1.13635e-01        00000 
-1.83179e-02  8.60604e-02        00000 
 3.07830e-02  4.77237e-01        00000 
 2.75014e-02  4.85982e-01        00000 
-1.77817e-02  8.90677e-02        00000 
-1.56880e-02  6.72476e-02        00000 
-5.19316e-02  1.15631e-01        00000 
 8.98707e-19  6.00000e-01        00000 
-1.68857e-02  4.92013e-02        00000 
 2.57871e-02  4.89204e-01        00000 
 3.17547e-02  4.71208e-01        00000 
 1.84868e-03  5.83747e-01        00000 
-4.53623e-02  1.10503e-01        00000 
-1.90995e-02  9.16095e-02        00000 
 5.36476e-03  5.65876e-01        00000 
-3.86847e-02  1.04774e-01        00000 
 3.33085e-02  4.57250e-01        00000 
 1.01088e-02  5.46026e-01        00000 
-1.26593e-02  7.02222e-02        00000 
 1.60326e-02  5.24014e-01        00000 
-3.17874e-02  9.84044e-02        00000 
 3.25250e-02  4.67941e-01        00000 
-1.17142e-02  5.43894e-02        00000 
-1.41687e-02  3.95943e-02        00000 
-2.46885e-02  9.20600e-02        00000 
 2.37124e-02  4.97991e-01        00000 
 3.54982e-02  4.51723e-01        00000 
 3.56204e-02  4.35766e-01        00000 
-1.08351e-02  7.04209e-02        00000 
 3.30102e-02  4.68354e-01        00000 
-8.70950e-03  4.31484e-02        00000 
-1.15173e-02  3.16236e-02        00000 
-7.61091e-03  5.54939e-02        00000 
-1.13672e-02  7.18656e-02        00000 
 3.75721e-02  4.48261e-01        00000 
 3.91538e-02  4.30278e-01        00000 
-4.44561e-02  9.29106e-02        00000 
-1.76142e-19  6.00000e-01        00000 
 3.76814e-02  4.12984e-01        00000 
 3.77602e-03  5.82510e-01        00000 
-3.80517e-02  8.79542e-02        00000 
 8.86961e-03  5.63380e-01        00000 
-3.15222e-02  8.25411e-02        00000 
-6.45083e-03  3.41238e-02        00000 
-8.94458e-03  2.52957e-02        00000 
 1.48410e-02  5.42330e-01        00000 
 3.39968e-02  4.71067e-01        00000 
-2.50926e-02  7.68129e-02        00000 
 3.95635e-02  4.47461e-01        00000 
-4.41337e-03  4.29338e-02        00000 
 3.94258e-02  3.89047e-01        00000 
-1.28775e-02  6.90129e-02        00000 
 2.15961e-02  5.19309e-01        00000 
 4.24598e-02  4.27004e-01        00000 
 4.24412e-02  4.07567e-01        00000 
-1.89913e-02  7.03238e-02        00000 
-6.51674e-03  2.05258e-02        00000 
-4.41547e-03  2.69790e-02        00000 
-3.96778e-03  5.18506e-02        00000 
 2.93848e-02  4.94281e-01        00000 
-2.69355e-03  3.38264e-02        00000 
 4.07978e-02  3.64234e-01        00000 
-1.35615e-02  6.21237e-02        00000 
 4.17664e-02  4.48542e-01        00000 
 4.53404e-02  3.83291e-01        00000 
 4.54287e-02  4.26354e-01        00000 
-5.33444e-03  5.48419e-02        00000 
-4.24834e-03  1.71803e-02        00000 
 4.69983e-02  4.04236e-01        00000 
-2.71041e-03  2.16440e-02        00000 
-3.68712e-02  7.05128e-02        00000 
-6.43163e-19  6.00000e-01        00000 
-1.51916e-03  2.73053e-02        00000 
-1.12985e-03  3.88831e-02        00000 
-3.06038e-02  6.57270e-02        00000 
 5.95140e-03  5.81504e-01        00000 
 4.17394e-02  3.38749e-01        00000 
 3.75857e-02  4.70627e-01        00000 
-2.44241e-02  6.08186e-02        00000 
 1.27073e-02  5.61523e-01        00000 
-2.09041e-03  1.51352e-02        00000 
-6.40560e-05  3.09164e-02        00000 
 1.97925e-02  5.39430e-01        00000 
-1.86561e-02  5.61839e-02        00000 
 4.74825e-02  3.58122e-01        00000 
-1.44885e-03  1.76462e-02        00000 
-1.61965e-05  2.68521e-02        00000 
 4.22118e-02  3.12904e-01        00000 
-3.26325e-04  2.22035e-02        00000 
 4.81886e-02  4.27790e-01        00000 
 2.70033e-02  5.16640e-01        00000 
 5.09932e-02  3.79748e-01        00000 
 5.10776e-02  4.03928e-01        00000 
-1.35451e-02  5.14866e-02        00000 
 3.86780e-05  1.44755e-02        00000 
 4.49448e-02  4.48946e-01        00000 
-6.83023e-04  1.50731e-02        00000 
 4.21969e-02  2.86912e-01        00000 
-9.20797e-03  4.71318e-02        00000 
 3.45903e-02  4.92882e-01        00000 
 4.88136e-02  3.32291e-01        00000 
-9.84301e-04  4.05174e-02        00000 
 4.21594e-04  3.68274e-02        00000 
-5.91601e-03  4.50598e-02        00000 
 1.10035e-03  2.27316e-02        00000 
 2.05540e-03  1.52739e-02        00000 
 3.65443e-04  1.79104e-02        00000 
 1.73983e-03  3.02987e-02        00000 
 4.17084e-02  2.61084e-01        00000 
 5.39879e-02  3.53644e-01        00000 
 5.10394e-02  4.29220e-01        00000 
-1.21513e-04  1.39660e-02        00000 
 1.93930e-03  2.47076e-02        00000 
 4.21906e-02  4.69857e-01        00000 
-2.86087e-02  4.83448e-02        00000 
 3.59911e-19  6.00000e-01        00000 
 4.92174e-02  3.06612e-01        00000 
 5.42908e-02  4.07120e-01        00000 
-2.03919e-03  3.88219e-02        00000 
 4.10559e-03  1.73193e-02        00000 
-2.24877e-02  4.35624e-02        00000 
 8.57160e-03  5.80441e-01        00000 
 5.65479e-02  3.78897e-01        00000 
-1.68104e-02  3.96342e-02        00000 
 1.71875e-02  5.59103e-01        00000 
 4.07585e-02  2.35628e-01        00000 
 3.33322e-04  1.50227e-02        00000 
 6.32410e-03  2.06602e-02        00000 
-1.21304e-02  3.63902e-02        00000 
 2.50554e-02  5.36946e-01        00000 
 5.51947e-02  4.14051e-01        00000 
 4.88173e-02  2.81159e-01        00000 
 4.92966e-02  4.47758e-01        00000 
 5.56009e-02  3.27123e-01        00000 
 3.93815e-02  2.10832e-01        00000 
 1.58235e-03  1.77789e-02        00000 
 1.07817e-04  1.45537e-02        00000 
 4.58240e-05  1.40099e-02        00000 
-8.22461e-03  3.33186e-02        00000 
 8.93592e-04  3.12518e-02        00000 
 3.25766e-02  5.14079e-01        00000 
 8.76038e-03  2.53903e-02        00000 
 3.76129e-02  1.86933e-01        00000 
 4.76865e-02  2.56720e-01        00000 
 1.13701e-02  3.16761e-02        00000 
-4.94372e-03  3.04600e-02        00000 
 4.00730e-02  4.91001e-01        00000 
 6.04596e-02  3.50751e-01        00000 
 2.36911e-03  2.63946e-02        00000 
 3.55323e-02  1.64147e-01        00000 
 5.54538e-02  4.26498e-01        00000 
 5.59341e-02  3.00943e-01        00000 
 5.07545e-04  1.73421e-02        00000 
 1.41048e-02  3.95222e-02        00000 
 4.61274e-02  2.32926e-01        00000 
 3.32066e-02  1.42661e-01        00000 
-2.20687e-03  2.79240e-02        00000 
 8.18363e-04  1.41216e-02        00000 
 1.68857e-02  4.90133e-02        00000 
 3.07038e-02  1.22682e-01        00000 
 3.07499e-03  2.15882e-02        00000 
 1.97033e-02  6.01814e-02        00000 
 6.00768e-02  4.06142e-01        00000 
 4.74378e-02  4.68226e-01        00000 
 6.24078e-02  3.82608e-01        00000 
 2.80819e-02  1.04422e-01        00000 
 2.25346e-02  7.31306e-02        00000 
 2.53388e-02  8.78673e-02        00000 
 1.65973e-03  2.20867e-02        00000 
 4.40324e-02  2.09848e-01        00000 
 5.49824e-02  2.75677e-01        00000 
-8.04955e-19  6.00000e-01        00000 
-1.88235e-02  2.57452e-02        00000 