<?xml version="1.0" encoding="utf-8"?>
<VTKFile byte_order="LittleEndian" type="UnstructuredGrid" version="0.1">
   <UnstructuredGrid>
      <Piece NumberOfCells="641" NumberOfPoints="730">
         <Points>
            <DataArray Name="Points" NumberOfComponents="3" format="ascii" type="Float32">
1.0000 1.0000 0.0000
0.9600 1.0000 0.0000
1.0000 0.9600 0.0000
0.9603 0.9614 0.0000
1.0000 0.9200 0.0000
0.9200 1.0000 0.0000
0.9612 0.9231 0.0000
0.9211 0.9624 0.0000
0.9230 0.9260 0.0000
1.0000 0.8800 0.0000
0.8800 1.0000 0.0000
0.9614 0.8856 0.0000
0.8829 0.9623 0.0000
0.9240 0.8918 0.0000
0.8875 0.9262 0.0000
0.8933 0.8971 0.0000
0.9597 0.8473 0.0000
1.0000 0.8400 0.0000
0.8400 1.0000 0.0000
0.8440 0.9601 0.0000
0.9173 0.8563 0.0000
0.8514 0.9190 0.0000
0.8690 0.8729 0.0000
0.9592 0.8063 0.0000
1.0000 0.8000 0.0000
0.8000 1.0000 0.0000
0.8021 0.9589 0.0000
0.9165 0.8130 0.0000
0.8054 0.9165 0.0000
0.8676 0.8205 0.0000
0.8109 0.8707 0.0000
0.9597 0.7652 0.0000
1.0000 0.7600 0.0000
0.7600 1.0000 0.0000
0.7590 0.9590 0.0000
0.9161 0.7702 0.0000
0.7581 0.9167 0.0000
0.8122 0.8209 0.0000
0.8679 0.7733 0.0000
0.7569 0.8708 0.0000
0.9590 0.7242 0.0000
1.0000 0.7200 0.0000
0.7200 1.0000 0.0000
0.9153 0.7275 0.0000
0.7165 0.9591 0.0000
0.8165 0.7719 0.0000
0.7126 0.9181 0.0000
0.8686 0.7282 0.0000
0.7510 0.8174 0.0000
0.7082 0.8753 0.0000
0.9580 0.6829 0.0000
1.0000 0.6800 0.0000
0.6800 1.0000 0.0000
0.7693 0.7706 0.0000
0.9140 0.6851 0.0000
0.6742 0.9594 0.0000
0.8161 0.7213 0.0000
0.8740 0.6885 0.0000
0.6685 0.9181 0.0000
0.7012 0.8339 0.0000
0.7734 0.7344 0.0000
0.7152 0.7855 0.0000
0.6650 0.8760 0.0000
0.7356 0.7577 0.0000
1.0000 0.6400 0.0000
0.6400 1.0000 0.0000
0.8350 0.6800 0.0000
0.9558 0.6404 0.0000
0.8757 0.6585 0.0000
0.7480 0.7370 0.0000
0.6333 0.9593 0.0000
0.6862 0.8039 0.0000
0.9052 0.6395 0.0000
0.6619 0.8374 0.0000
0.7838 0.6876 0.0000
0.7581 0.7055 0.0000
0.6270 0.9175 0.0000
0.6640 0.8136 0.0000
0.8474 0.6471 0.0000
0.7341 0.7184 0.0000
0.6889 0.7621 0.0000
0.8018 0.6601 0.0000
0.7087 0.7349 0.0000
0.6240 0.8728 0.0000
0.6655 0.7821 0.0000
1.0000 0.6000 0.0000
0.6000 1.0000 0.0000
0.9579 0.5979 0.0000
0.8635 0.6181 0.0000
0.6438 0.7994 0.0000
0.5930 0.9599 0.0000
0.7406 0.6813 0.0000
0.8153 0.6317 0.0000
0.7215 0.6960 0.0000
0.7582 0.6627 0.0000
0.9144 0.5934 0.0000
0.6224 0.8262 0.0000
0.7025 0.7080 0.0000
0.6817 0.7264 0.0000
0.5880 0.9170 0.0000
0.6661 0.7445 0.0000
0.6874 0.7117 0.0000
0.7729 0.6402 0.0000
0.6462 0.7610 0.0000
0.8270 0.6029 0.0000
0.5855 0.8736 0.0000
0.7078 0.6759 0.0000
0.8731 0.5824 0.0000
0.6922 0.6895 0.0000
0.6247 0.7752 0.0000
0.7227 0.6602 0.0000
0.6777 0.7007 0.0000
1.0000 0.5600 0.0000
0.5600 1.0000 0.0000
0.7852 0.6159 0.0000
0.6645 0.7138 0.0000
0.7363 0.6426 0.0000
0.9599 0.5572 0.0000
0.6483 0.7278 0.0000
0.5542 0.9595 0.0000
0.6026 0.7897 0.0000
0.5823 0.8324 0.0000
0.6299 0.7405 0.0000
0.9195 0.5531 0.0000
0.7477 0.6223 0.0000
0.5507 0.9171 0.0000
0.6803 0.6732 0.0000
0.6658 0.6871 0.0000
0.8355 0.5722 0.0000
0.7947 0.5901 0.0000
0.6936 0.6581 0.0000
0.6502 0.6999 0.0000
0.6098 0.7514 0.0000
0.7057 0.6420 0.0000
0.7579 0.6014 0.0000
0.6336 0.7113 0.0000
0.5497 0.8744 0.0000
0.8778 0.5472 0.0000
0.7165 0.6250 0.0000
0.5740 0.7964 0.0000
0.6162 0.7214 0.0000
0.5892 0.7610 0.0000
0.7259 0.6072 0.0000
0.8020 0.5638 0.0000
1.0000 0.5200 0.0000
0.5200 1.0000 0.0000
0.5492 0.8345 0.0000
0.7657 0.5790 0.0000
0.9606 0.5179 0.0000
0.5980 0.7300 0.0000
0.8398 0.5417 0.0000
0.5158 0.9583 0.0000
0.7338 0.5887 0.0000
0.9203 0.5154 0.0000
0.5665 0.7670 0.0000
0.5131 0.9159 0.0000
0.5474 0.8009 0.0000
0.5792 0.7371 0.0000
0.7720 0.5563 0.0000
0.8787 0.5129 0.0000
0.8059 0.5366 0.0000
0.5141 0.8719 0.0000
0.7401 0.5696 0.0000
0.5598 0.7427 0.0000
0.5440 0.7719 0.0000
0.5175 0.8314 0.0000
0.8405 0.5118 0.0000
0.7450 0.5500 0.0000
0.5225 0.8010 0.0000
0.7754 0.5328 0.0000
1.0000 0.4800 0.0000
0.4800 1.0000 0.0000
0.9602 0.4791 0.0000
0.5401 0.7468 0.0000
0.4767 0.9571 0.0000
0.8069 0.5110 0.0000
0.9179 0.4782 0.0000
0.5221 0.7741 0.0000
0.4748 0.9127 0.0000
0.7482 0.5301 0.0000
0.8747 0.4784 0.0000
0.5027 0.7984 0.0000
0.7768 0.5101 0.0000
0.4760 0.8661 0.0000
0.5201 0.7492 0.0000
0.8373 0.4828 0.0000
0.4848 0.8182 0.0000
0.5012 0.7757 0.0000
0.7498 0.5101 0.0000
0.8046 0.4854 0.0000
0.5000 0.7500 0.0000
0.7754 0.4874 0.0000
1.0000 0.4400 0.0000
0.4400 1.0000 0.0000
0.9587 0.4395 0.0000
0.4799 0.7803 0.0000
0.4361 0.9573 0.0000
0.9156 0.4395 0.0000
0.7498 0.4899 0.0000
0.8291 0.4561 0.0000
0.4343 0.9109 0.0000
0.8003 0.4626 0.0000
0.8632 0.4393 0.0000
0.4799 0.7492 0.0000
0.7730 0.4662 0.0000
0.4477 0.8146 0.0000
0.4327 0.8588 0.0000
0.7482 0.4699 0.0000
0.8161 0.4410 0.0000
0.4541 0.7785 0.0000
0.7944 0.4428 0.0000
0.4599 0.7468 0.0000
1.0000 0.4000 0.0000
0.4000 1.0000 0.0000
0.7686 0.4455 0.0000
0.9592 0.3996 0.0000
0.8248 0.4242 0.0000
0.3968 0.9575 0.0000
0.7450 0.4500 0.0000
0.9170 0.3993 0.0000
0.4159 0.8309 0.0000
0.4229 0.8031 0.0000
0.3948 0.9133 0.0000
0.4316 0.7723 0.0000
0.7936 0.4233 0.0000
0.4402 0.7427 0.0000
0.8698 0.3967 0.0000
0.7652 0.4264 0.0000
0.3936 0.8689 0.0000
0.7401 0.4304 0.0000
0.3920 0.8309 0.0000
0.8264 0.3924 0.0000
0.3992 0.7968 0.0000
0.4094 0.7650 0.0000
0.4208 0.7371 0.0000
0.7903 0.3985 0.0000
1.0000 0.3600 0.0000
0.3600 1.0000 0.0000
0.7600 0.4056 0.0000
0.9598 0.3592 0.0000
0.3583 0.9570 0.0000
0.7338 0.4113 0.0000
0.9182 0.3582 0.0000
0.3575 0.9135 0.0000
0.3585 0.8699 0.0000
0.4020 0.7300 0.0000
0.8721 0.3546 0.0000
0.3871 0.7558 0.0000
0.3627 0.8272 0.0000
0.3723 0.7881 0.0000
0.7509 0.3845 0.0000
0.7810 0.3713 0.0000
0.7259 0.3928 0.0000
0.8206 0.3501 0.0000
0.3838 0.7214 0.0000
1.0000 0.3200 0.0000
0.3200 1.0000 0.0000
0.9609 0.3186 0.0000
0.3188 0.9571 0.0000
0.3655 0.7452 0.0000
0.7165 0.3750 0.0000
0.3191 0.9130 0.0000
0.7387 0.3639 0.0000
0.9203 0.3164 0.0000
0.3226 0.8674 0.0000
0.7625 0.3483 0.0000
0.3295 0.8214 0.0000
0.3412 0.7756 0.0000
0.3664 0.7113 0.0000
0.8783 0.3117 0.0000
0.3501 0.7297 0.0000
0.7057 0.3580 0.0000
0.7858 0.3237 0.0000
0.7257 0.3455 0.0000
0.3355 0.7477 0.0000
0.8363 0.3032 0.0000
0.3498 0.6999 0.0000
0.7447 0.3291 0.0000
1.0000 0.2800 0.0000
0.2800 1.0000 0.0000
0.2794 0.9569 0.0000
0.9615 0.2779 0.0000
0.3326 0.7179 0.0000
0.2801 0.9127 0.0000
0.6936 0.3419 0.0000
0.2847 0.8665 0.0000
0.9228 0.2753 0.0000
0.7128 0.3285 0.0000
0.2921 0.8195 0.0000
0.7602 0.3086 0.0000
0.3033 0.7758 0.0000
0.3147 0.7412 0.0000
0.3342 0.6871 0.0000
0.7305 0.3141 0.0000
0.8833 0.2705 0.0000
0.7998 0.2876 0.0000
0.7436 0.3019 0.0000
0.6803 0.3268 0.0000
0.3147 0.7039 0.0000
0.6989 0.3111 0.0000
0.8465 0.2623 0.0000
0.3197 0.6732 0.0000
0.7181 0.2951 0.0000
0.7660 0.2772 0.0000
1.0000 0.2400 0.0000
0.2400 1.0000 0.0000
0.2395 0.9570 0.0000
0.9623 0.2379 0.0000
0.3033 0.6872 0.0000
0.2867 0.7266 0.0000
0.7391 0.2819 0.0000
0.6658 0.3129 0.0000
0.2402 0.9130 0.0000
0.2441 0.8665 0.0000
0.9241 0.2355 0.0000
0.2521 0.8179 0.0000
0.2648 0.7698 0.0000
0.2877 0.7007 0.0000
0.3064 0.6581 0.0000
0.6834 0.2942 0.0000
0.8864 0.2325 0.0000
0.8108 0.2442 0.0000
0.2899 0.6725 0.0000
0.6502 0.3001 0.0000
0.8557 0.2306 0.0000
0.7030 0.2743 0.0000
0.2943 0.6420 0.0000
0.2710 0.6909 0.0000
0.7273 0.2535 0.0000
0.6657 0.2787 0.0000
1.0000 0.2000 0.0000
0.2000 1.0000 0.0000
0.6336 0.2887 0.0000
0.2514 0.7173 0.0000
0.2756 0.6564 0.0000
0.1992 0.9576 0.0000
0.9620 0.1981 0.0000
0.7627 0.2311 0.0000
0.1993 0.9141 0.0000
0.9233 0.1961 0.0000
0.2835 0.6250 0.0000
0.2019 0.8680 0.0000
0.6830 0.2545 0.0000
0.2075 0.8181 0.0000
0.8823 0.1948 0.0000
0.2539 0.6737 0.0000
0.6460 0.2652 0.0000
0.6162 0.2786 0.0000
0.8346 0.1977 0.0000
0.2163 0.7604 0.0000
0.2633 0.6381 0.0000
0.2741 0.6072 0.0000
0.7040 0.2284 0.0000
0.2284 0.6955 0.0000
0.6248 0.2559 0.0000
0.5980 0.2700 0.0000
0.6595 0.2370 0.0000
0.7292 0.2095 0.0000
0.2397 0.6531 0.0000
0.2516 0.6187 0.0000
1.0000 0.1600 0.0000
0.1600 1.0000 0.0000
0.2662 0.5887 0.0000
0.1588 0.9585 0.0000
0.9622 0.1583 0.0000
0.1581 0.9163 0.0000
0.9233 0.1564 0.0000
0.6042 0.2491 0.0000
0.5792 0.2629 0.0000
0.1589 0.8722 0.0000
0.1958 0.7202 0.0000
0.8836 0.1548 0.0000
0.2123 0.6706 0.0000
0.6322 0.2291 0.0000
0.2599 0.5696 0.0000
0.7803 0.1720 0.0000
0.1609 0.8259 0.0000
0.2262 0.6315 0.0000
0.2418 0.5979 0.0000
0.8442 0.1523 0.0000
0.5598 0.2573 0.0000
0.5842 0.2424 0.0000
0.6765 0.1983 0.0000
0.1621 0.7781 0.0000
0.6083 0.2254 0.0000
0.2550 0.5500 0.0000
0.8115 0.1450 0.0000
0.1814 0.6889 0.0000
0.2335 0.5759 0.0000
0.1986 0.6460 0.0000
0.7210 0.1689 0.0000
0.5401 0.2532 0.0000
0.2141 0.6084 0.0000
0.5648 0.2361 0.0000
1.0000 0.1200 0.0000
0.1200 1.0000 0.0000
0.5886 0.2216 0.0000
0.6361 0.1981 0.0000
0.9623 0.1186 0.0000
0.1185 0.9594 0.0000
0.2518 0.5301 0.0000
0.1554 0.7378 0.0000
0.9238 0.1169 0.0000
0.1171 0.9188 0.0000
0.5201 0.2508 0.0000
0.6081 0.2005 0.0000
0.1177 0.8757 0.0000
0.8845 0.1155 0.0000
0.2278 0.5529 0.0000
0.5447 0.2310 0.0000
0.5916 0.2048 0.0000
0.2502 0.5101 0.0000
0.5703 0.2140 0.0000
0.1692 0.6615 0.0000
0.1178 0.8329 0.0000
0.2039 0.5833 0.0000
0.1845 0.6209 0.0000
0.8462 0.1139 0.0000
0.5000 0.2500 0.0000
0.1474 0.7037 0.0000
0.5242 0.2284 0.0000
0.2502 0.4899 0.0000
0.8095 0.1132 0.0000
0.1175 0.7897 0.0000
0.2245 0.5293 0.0000
0.6911 0.1470 0.0000
0.6623 0.1569 0.0000
0.7718 0.1199 0.0000
0.5787 0.1926 0.0000
0.4799 0.2508 0.0000
0.5494 0.2063 0.0000
0.6277 0.1636 0.0000
0.2518 0.4699 0.0000
0.1972 0.5560 0.0000
0.1405 0.6744 0.0000
0.5036 0.2260 0.0000
0.5965 0.1735 0.0000
0.1148 0.7499 0.0000
1.0000 0.0800 0.0000
0.0800 1.0000 0.0000
0.2237 0.5060 0.0000
0.1547 0.6362 0.0000
0.7277 0.1206 0.0000
0.4599 0.2532 0.0000
0.9618 0.0790 0.0000
0.0786 0.9601 0.0000
0.1700 0.5930 0.0000
0.9229 0.0780 0.0000
0.0778 0.9196 0.0000
0.2550 0.4500 0.0000
0.5267 0.2034 0.0000
0.4402 0.2573 0.0000
0.8839 0.0770 0.0000
0.0771 0.8790 0.0000
0.1358 0.6525 0.0000
0.2250 0.4832 0.0000
0.1115 0.7133 0.0000
0.1942 0.5282 0.0000
0.2599 0.4304 0.0000
0.5565 0.1781 0.0000
0.4830 0.2210 0.0000
[...]
         <PointData>
            <DataArray Name="Displacement" NumberOfComponents="3" format="ascii" type="Float64">
-4.59789e-18  3.50000e-01        00000 
 2.85312e-18  3.50000e-01        00000 
-1.19873e-02  3.33252e-01        00000 
-7.30928e-03  3.37241e-01        00000 
-1.83525e-02  3.18971e-01        00000 
-1.63024e-18  3.50000e-01        00000 
-1.38830e-02  3.23485e-01        00000 
-4.84394e-03  3.38733e-01        00000 
-9.94182e-03  3.26908e-01        00000 
-2.38673e-02  3.05131e-01        00000 
-9.72897e-19  3.50000e-01        00000 
-1.90363e-02  3.10404e-01        00000 
-3.24241e-03  3.39611e-01        00000 
-1.44832e-02  3.15426e-01        00000 
-7.28620e-03  3.28657e-01        00000 
-1.10793e-02  3.19195e-01        00000 
-2.38653e-02  2.97326e-01        00000 
-2.91156e-02  2.91266e-01        00000 
-1.93378e-19  3.50000e-01        00000 
-2.03305e-03  3.39920e-01        00000 
-1.82826e-02  3.04015e-01        00000 
-5.57962e-03  3.28311e-01        00000 
-1.15666e-02  3.13351e-01        00000 
-2.92207e-02  2.83247e-01        00000 
-3.44619e-02  2.77368e-01        00000 
 8.81073e-19  3.50000e-01        00000 
-8.04272e-04  3.40675e-01        00000 
-2.37467e-02  2.89454e-01        00000 
-3.08165e-03  3.30075e-01        00000 
-1.76471e-02  2.96731e-01        00000 
-6.94640e-03  3.17396e-01        00000 
-3.49044e-02  2.68993e-01        00000 
-3.99681e-02  2.63471e-01        00000 
-2.35118e-19  3.50000e-01        00000 
 3.00544e-04  3.41894e-01        00000 
-2.94769e-02  2.74895e-01        00000 
-7.39207e-04  3.32946e-01        00000 
-1.20374e-02  3.02960e-01        00000 
-2.37805e-02  2.81145e-01        00000 
-3.11966e-03  3.22616e-01        00000 
-4.05671e-02  2.54831e-01        00000 
-4.55391e-02  2.49629e-01        00000 
-8.82407e-20  3.50000e-01        00000 
-3.53917e-02  2.60165e-01        00000 
 1.12321e-03  3.43206e-01        00000 
-1.84018e-02  2.87512e-01        00000 
 9.95860e-04  3.36191e-01        00000 
-3.01602e-02  2.65654e-01        00000 
-6.77149e-03  3.10452e-01        00000 
-1.31394e-04  3.28766e-01        00000 
-4.61387e-02  2.40492e-01        00000 
-5.09395e-02  2.35889e-01        00000 
-2.86009e-19  3.50000e-01        00000 
-1.36412e-02  2.95018e-01        00000 
-4.11590e-02  2.45365e-01        00000 
 1.60856e-03  3.44556e-01        00000 
-2.53373e-02  2.71101e-01        00000 
-3.63743e-02  2.50982e-01        00000 
 2.01709e-03  3.39159e-01        00000 
-2.02199e-03  3.22023e-01        00000 
-1.89311e-02  2.83722e-01        00000 
-7.03483e-03  3.09501e-01        00000 
 1.45163e-03  3.33666e-01        00000 
-1.20292e-02  2.98521e-01        00000 
-5.58329e-02  2.22258e-01        00000 
-4.44876e-20  3.50000e-01        00000 
-3.33035e-02  2.53517e-01        00000 
-5.12365e-02  2.25694e-01        00000 
-4.05842e-02  2.39871e-01        00000 
-1.60118e-02  2.90362e-01        00000 
 1.73740e-03  3.45732e-01        00000 
-3.27091e-03  3.19166e-01        00000 
-4.61575e-02  2.29597e-01        00000 
 6.42151e-05  3.28684e-01        00000 
-2.66736e-02  2.66367e-01        00000 
-2.14567e-02  2.78720e-01        00000 
 2.34462e-03  3.41751e-01        00000 
-1.41488e-03  3.25010e-01        00000 
-3.90626e-02  2.39263e-01        00000 
-1.72777e-02  2.89110e-01        00000 
-7.66323e-03  3.11170e-01        00000 
-3.24339e-02  2.52342e-01        00000 
-1.27087e-02  3.00359e-01        00000 
 2.04238e-03  3.37664e-01        00000 
-4.00130e-03  3.20190e-01        00000 
-5.99182e-02  2.08713e-01        00000 
-1.58723e-19  3.50000e-01        00000 
-5.58698e-02  2.10450e-01        00000 
-4.41542e-02  2.25767e-01        00000 
-1.46353e-03  3.27146e-01        00000 
 1.49974e-03  3.46778e-01        00000 
-2.32299e-02  2.76715e-01        00000 
-3.74628e-02  2.38497e-01        00000 
-1.94559e-02  2.87398e-01        00000 
-2.74617e-02  2.64847e-01        00000 
-5.18877e-02  2.11474e-01        00000 
 8.00383e-04  3.33573e-01        00000 
-1.62555e-02  2.96976e-01        00000 
-1.20953e-02  3.07364e-01        00000 
 2.08705e-03  3.43846e-01        00000 
-8.48796e-03  3.14858e-01        00000 
-1.47456e-02  3.03206e-01        00000 
-3.18204e-02  2.51947e-01        00000 
-5.29468e-03  3.22397e-01        00000 
-4.18265e-02  2.24305e-01        00000 
 2.00631e-03  3.41263e-01        00000 
-2.13975e-02  2.88016e-01        00000 
-4.85933e-02  2.10230e-01        00000 
-1.85106e-02  2.97638e-01        00000 
-2.82192e-03  3.28859e-01        00000 
-2.45462e-02  2.77285e-01        00000 
-1.60864e-02  3.05485e-01        00000 
-6.28495e-02  1.95228e-01        00000 
 3.91769e-20  3.50000e-01        00000 
-3.58520e-02  2.38365e-01        00000 
-1.33461e-02  3.12050e-01        00000 
-2.77933e-02  2.65669e-01        00000 
-5.90287e-02  1.95711e-01        00000 
-1.03194e-02  3.18913e-01        00000 
 1.00591e-03  3.47437e-01        00000 
-9.62085e-04  3.34174e-01        00000 
 1.25676e-03  3.39414e-01        00000 
-7.55006e-03  3.25337e-01        00000 
-5.52430e-02  1.95706e-01        00000 
-3.09894e-02  2.53029e-01        00000 
 1.39500e-03  3.45330e-01        00000 
-2.06600e-02  3.00948e-01        00000 
-1.82260e-02  3.09617e-01        00000 
-4.53392e-02  2.09509e-01        00000 
-3.92818e-02  2.24262e-01        00000 
-2.30712e-02  2.91155e-01        00000 
-1.57815e-02  3.17120e-01        00000 
-5.24397e-03  3.30984e-01        00000 
-2.54039e-02  2.80329e-01        00000 
-3.39065e-02  2.39617e-01        00000 
-1.33394e-02  3.23617e-01        00000 
 1.38865e-03  3.43655e-01        00000 
-5.13364e-02  1.95192e-01        00000 
-2.76197e-02  2.68522e-01        00000 
-1.22352e-04  3.38972e-01        00000 
-1.09938e-02  3.29117e-01        00000 
-3.39229e-03  3.35549e-01        00000 
-2.96711e-02  2.55826e-01        00000 
-4.19838e-02  2.09822e-01        00000 
-6.43688e-02  1.81762e-01        00000 
 1.89899e-19  3.50000e-01        00000 
 9.76922e-04  3.42520e-01        00000 
-3.63729e-02  2.25513e-01        00000 
-6.05374e-02  1.81509e-01        00000 
-8.79824e-03  3.33654e-01        00000 
-4.75351e-02  1.94972e-01        00000 
 3.26648e-04  3.47722e-01        00000 
-3.14748e-02  2.42308e-01        00000 
-5.66170e-02  1.81025e-01        00000 
-2.16189e-03  3.39360e-01        00000 
 4.01452e-04  3.46009e-01        00000 
 1.71985e-04  3.41995e-01        00000 
-6.77926e-03  3.37260e-01        00000 
-3.83366e-02  2.10946e-01        00000 
-5.24807e-02  1.80529e-01        00000 
-4.37060e-02  1.95042e-01        00000 
 4.40043e-04  3.44777e-01        00000 
-3.29989e-02  2.28095e-01        00000 
-4.91828e-03  3.40054e-01        00000 
-1.19547e-03  3.41960e-01        00000 
 3.61695e-04  3.44020e-01        00000 
-4.84104e-02  1.80656e-01        00000 
-3.41814e-02  2.13320e-01        00000 
 1.25042e-04  3.43572e-01        00000 
-3.95794e-02  1.96023e-01        00000 
-6.43460e-02  1.68298e-01        00000 
-2.28263e-19  3.50000e-01        00000 
-6.04131e-02  1.67450e-01        00000 
-3.18255e-03  3.42000e-01        00000 
-4.52101e-04  3.47613e-01        00000 
-4.43973e-02  1.81010e-01        00000 
-5.62564e-02  1.66443e-01        00000 
-5.38043e-04  3.43438e-01        00000 
-7.06915e-04  3.45726e-01        00000 
-3.49929e-02  1.98124e-01        00000 
-5.19107e-02  1.65629e-01        00000 
 4.46738e-05  3.43968e-01        00000 
-4.01144e-02  1.81459e-01        00000 
-6.65818e-04  3.44429e-01        00000 
-1.54714e-03  3.43164e-01        00000 
-4.79815e-02  1.66603e-01        00000 
-2.25557e-04  3.43993e-01        00000 
 1.42367e-06  3.43954e-01        00000 
-3.53975e-02  1.82698e-01        00000 
-4.40465e-02  1.66837e-01        00000 
 4.71199e-05  3.43541e-01        00000 
-3.98833e-02  1.66762e-01        00000 
-6.27946e-02  1.54819e-01        00000 
 3.63115e-19  3.50000e-01        00000 
-5.86737e-02  1.53110e-01        00000 
 3.50705e-04  3.43519e-01        00000 
-1.16522e-03  3.47139e-01        00000 
-5.43893e-02  1.51290e-01        00000 
-3.53905e-02  1.67167e-01        00000 
-4.62173e-02  1.53035e-01        00000 
-1.69177e-03  3.44459e-01        00000 
-4.29420e-02  1.53906e-01        00000 
-4.91512e-02  1.48132e-01        00000 
 1.58755e-03  3.43114e-01        00000 
-3.91692e-02  1.52902e-01        00000 
-5.50360e-04  3.41811e-01        00000 
-1.62767e-03  3.41979e-01        00000 
-3.49671e-02  1.51748e-01        00000 
-4.39204e-02  1.44398e-01        00000 
 8.67288e-04  3.41845e-01        00000 
-4.13596e-02  1.42391e-01        00000 
 3.17305e-03  3.41977e-01        00000 
-5.98825e-02  1.41311e-01        00000 
 3.93109e-19  3.50000e-01        00000 
-3.79048e-02  1.39353e-01        00000 
-5.57279e-02  1.38786e-01        00000 
-4.38663e-02  1.37598e-01        00000 
-1.62683e-03  3.46342e-01        00000 
-3.41517e-02  1.36555e-01        00000 
-5.14416e-02  1.35983e-01        00000 
-1.11231e-03  3.39116e-01        00000 
-1.43588e-04  3.38884e-01        00000 
-2.26565e-03  3.42679e-01        00000 
 1.73252e-03  3.39248e-01        00000 
-4.01178e-02  1.32176e-01        00000 
 4.87479e-03  3.40079e-01        00000 
-4.63815e-02  1.30935e-01        00000 
-3.65786e-02  1.27337e-01        00000 
-2.00962e-03  3.39095e-01        00000 
-3.29592e-02  1.21843e-01        00000 
-1.08621e-03  3.36082e-01        00000 
-4.12952e-02  1.23568e-01        00000 
 4.81392e-04  3.34990e-01        00000 
 2.96376e-03  3.35473e-01        00000 
 6.73769e-03  3.37325e-01        00000 
-3.77899e-02  1.19446e-01        00000 
-5.58221e-02  1.27748e-01        00000 
-9.35022e-19  3.50000e-01        00000 
-3.46385e-02  1.14580e-01        00000 
-5.15804e-02  1.24468e-01        00000 
-1.79705e-03  3.45239e-01        00000 
-3.14425e-02  1.07692e-01        00000 
-4.71541e-02  1.20776e-01        00000 
-2.28253e-03  3.40328e-01        00000 
-1.76547e-03  3.35491e-01        00000 
 8.77182e-03  3.33661e-01        00000 
-4.18893e-02  1.14782e-01        00000 
 4.69947e-03  3.30415e-01        00000 
-4.11349e-04  3.31321e-01        00000 
 1.76062e-03  3.29306e-01        00000 
-3.19226e-02  1.01235e-01        00000 
-3.39665e-02  1.05060e-01        00000 
-2.96517e-02  9.41926e-02        00000 
-3.58360e-02  1.05405e-01        00000 
 1.09208e-02  3.29076e-01        00000 
-5.09280e-02  1.14099e-01        00000 
 9.12334e-19  3.50000e-01        00000 
-4.66204e-02  1.10257e-01        00000 
-1.60265e-03  3.44006e-01        00000 
 6.93596e-03  3.24228e-01        00000 
-2.76154e-02  8.14449e-02        00000 
-1.74234e-03  3.37555e-01        00000 
-2.86988e-02  8.77149e-02        00000 
-4.20239e-02  1.05802e-01        00000 
-7.82052e-04  3.30966e-01        00000 
-2.93056e-02  9.04235e-02        00000 
 1.15158e-03  3.24965e-01        00000 
 4.16405e-03  3.20863e-01        00000 
 1.32446e-02  3.23667e-01        00000 
-3.68538e-02  9.95525e-02        00000 
 9.96231e-03  3.18602e-01        00000 
-2.53901e-02  6.96139e-02        00000 
-2.84641e-02  8.79726e-02        00000 
-2.54667e-02  7.56757e-02        00000 
 8.04569e-03  3.15938e-01        00000 
-3.10934e-02  9.06408e-02        00000 
 1.56727e-02  3.17103e-01        00000 
-2.50379e-02  7.78543e-02        00000 
-4.55348e-02  1.00348e-01        00000 
-6.19755e-19  3.50000e-01        00000 
-1.07850e-03  3.42684e-01        00000 
-4.11321e-02  9.61247e-02        00000 
 1.26439e-02  3.11357e-01        00000 
-6.42248e-04  3.34702e-01        00000 
-2.30450e-02  5.88544e-02        00000 
 8.97972e-04  3.26303e-01        00000 
-3.65842e-02  9.14959e-02        00000 
-2.23122e-02  6.52223e-02        00000 
 3.40980e-03  3.18099e-01        00000 
-2.36892e-02  7.61693e-02        00000 
 6.66648e-03  3.11834e-01        00000 
 1.00379e-02  3.08664e-01        00000 
 1.81485e-02  3.09478e-01        00000 
-2.16674e-02  6.83685e-02        00000 
-3.15942e-02  8.55485e-02        00000 
-2.48503e-02  7.88444e-02        00000 
-2.11134e-02  6.92442e-02        00000 
-2.06118e-02  4.91828e-02        00000 
 1.57916e-02  3.02617e-01        00000 
-1.89082e-02  5.53943e-02        00000 
-2.63641e-02  7.80220e-02        00000 
 2.06342e-02  3.00925e-01        00000 
-1.78554e-02  5.92631e-02        00000 
-1.97780e-02  6.80453e-02        00000 
-3.99613e-02  8.65054e-02        00000 
 5.63526e-19  3.50000e-01        00000 
-2.49441e-04  3.41447e-01        00000 
-3.56115e-02  8.23016e-02        00000 
 1.90587e-02  2.95289e-01        00000 
 1.41719e-02  2.97054e-01        00000 
-1.77792e-02  6.24754e-02        00000 
-1.81381e-02  4.05876e-02        00000 
 9.63685e-04  3.32021e-01        00000 
 3.30670e-03  3.21720e-01        00000 
-3.11221e-02  7.78057e-02        00000 
 6.53942e-03  3.11107e-01        00000 
 1.05172e-02  3.01765e-01        00000 
 1.81127e-02  2.91953e-01        00000 
 2.30883e-02  2.91195e-01        00000 
-1.54128e-02  4.63039e-02        00000 
-2.66016e-02  7.28385e-02        00000 
-1.99551e-02  6.67475e-02        00000 
 2.20249e-02  2.86185e-01        00000 
-1.56823e-02  3.30356e-02        00000 
-2.30032e-02  6.85648e-02        00000 
-1.35684e-02  4.97514e-02        00000 
 2.54485e-02  2.80351e-01        00000 
 2.08350e-02  2.83348e-01        00000 
-1.26985e-02  5.21149e-02        00000 
-1.20204e-02  3.77378e-02        00000 
-3.44501e-02  7.26076e-02        00000 
-5.66072e-19  3.50000e-01        00000 
-1.33000e-02  2.64811e-02        00000 
 1.87875e-02  2.84660e-01        00000 
 2.51834e-02  2.75403e-01        00000 
 8.17273e-04  3.40390e-01        00000 
-3.00998e-02  6.84984e-02        00000 
-1.31462e-02  5.42461e-02        00000 
 2.97475e-03  3.29742e-01        00000 
-2.56762e-02  6.42473e-02        00000 
 2.76752e-02  2.68553e-01        00000 
 6.19451e-03  3.17879e-01        00000 
-9.32684e-03  4.00386e-02        00000 
 1.04845e-02  3.04730e-01        00000 
-2.10998e-02  5.97691e-02        00000 
 2.48095e-02  2.72444e-01        00000 
-9.01741e-03  2.99127e-02        00000 
-1.10344e-02  2.08756e-02        00000 
-1.64141e-02  5.53755e-02        00000 
 1.63870e-02  2.89243e-01        00000 
 2.83533e-02  2.63857e-01        00000 
 2.97063e-02  2.55838e-01        00000 
-7.63200e-03  4.06586e-02        00000 
 2.42838e-02  2.71954e-01        00000 
-6.83606e-03  2.30773e-02        00000 
-8.87692e-03  1.62458e-02        00000 
-5.71347e-03  3.09720e-02        00000 
-7.73394e-03  4.19786e-02        00000 
 2.89377e-02  2.60738e-01        00000 
 3.14328e-02  2.51172e-01        00000 
-2.91044e-02  5.87123e-02        00000 
 2.20178e-20  3.50000e-01        00000 
 3.15081e-02  2.42327e-01        00000 
 2.05812e-03  3.39544e-01        00000 
-2.48439e-02  5.47870e-02        00000 
 5.24572e-03  3.28018e-01        00000 
-2.05003e-02  5.07614e-02        00000 
-5.21900e-03  1.76617e-02        00000 
-6.83808e-03  1.26047e-02        00000 
 9.27271e-03  3.15300e-01        00000 
 2.42006e-02  2.72978e-01        00000 
-1.62248e-02  4.67243e-02        00000 
 2.94874e-02  2.59487e-01        00000 
-3.57093e-03  2.31964e-02        00000 
 3.30261e-02  2.28100e-01        00000 
-8.29952e-03  4.09460e-02        00000 
 1.40922e-02  3.01414e-01        00000 
 3.29476e-02  2.48191e-01        00000 
 3.42258e-02  2.37811e-01        00000 
-1.21713e-02  4.23756e-02        00000 
-4.95473e-03  9.89318e-03        00000 
-3.74836e-03  1.34598e-02        00000 
-2.79421e-03  2.93116e-02        00000 
 1.99120e-02  2.86386e-01        00000 
-2.45810e-03  1.76335e-02        00000 
 3.42152e-02  2.13329e-01        00000 
-8.55938e-03  3.71223e-02        00000 
 3.02771e-02  2.59560e-01        00000 
 3.66843e-02  2.23575e-01        00000 
 3.42261e-02  2.47063e-01        00000 
-3.35164e-03  3.18217e-02        00000 
-3.22078e-03  8.01350e-03        00000 
 3.66870e-02  2.34868e-01        00000 
-2.48481e-03  1.03915e-02        00000 
-2.38583e-02  4.48547e-02        00000 
-2.32253e-19  3.50000e-01        00000 
-1.66791e-03  1.37387e-02        00000 
-1.07722e-03  2.11011e-02        00000 
-1.96766e-02  4.11019e-02        00000 
 3.46591e-03  3.38817e-01        00000 
 3.50292e-02  1.98134e-01        00000 
 2.61548e-02  2.72197e-01        00000 
-1.55541e-02  3.74577e-02        00000 
 7.74901e-03  3.26642e-01        00000 
-1.58815e-03  6.87363e-03        00000 
-4.87738e-04  1.61320e-02        00000 
 1.25174e-02  3.13170e-01        00000 
-1.17292e-02  3.41740e-02        00000 
 3.85348e-02  2.08880e-01        00000 
-1.47768e-03  8.14059e-03        00000 
-5.26975e-04  1.36169e-02        00000 
 3.54375e-02  1.82710e-01        00000 
-7.94903e-04  1.07769e-02        00000 
 3.53939e-02  2.47358e-01        00000 
 1.76090e-02  2.99318e-01        00000 
 3.99963e-02  2.20669e-01        00000 
 3.87530e-02  2.33976e-01        00000 
-8.36611e-03  3.09986e-02        00000 
 1.16074e-05  6.50430e-03        00000 
 3.19012e-02  2.59326e-01        00000 
-7.50904e-04  6.71828e-03        00000 
 3.54253e-02  1.67192e-01        00000 
-5.52870e-03  2.81042e-02        00000 
 2.31874e-02  2.84987e-01        00000 
 3.97042e-02  1.93822e-01        00000 
-4.42609e-04  2.30606e-02        00000 
 3.49741e-04  2.05210e-02        00000 
-3.40983e-03  2.65816e-02        00000 
 3.01506e-04  1.12537e-02        00000 
 1.55102e-03  6.94260e-03        00000 
-1.97742e-04  8.32832e-03        00000 
 1.05205e-03  1.62717e-02        00000 
 3.50042e-02  1.51773e-01        00000 
 4.25386e-02  2.05667e-01        00000 
 3.67754e-02  2.47775e-01        00000 
-1.25079e-04  6.10522e-03        00000 
 1.02170e-03  1.26695e-02        00000 
 2.89367e-02  2.71205e-01        00000 
-1.83345e-02  3.10196e-02        00000 
 7.19822e-19  3.50000e-01        00000 
 4.00967e-02  1.78857e-01        00000 
 4.01887e-02  2.35305e-01        00000 
-9.36184e-04  2.25142e-02        00000 
 3.12820e-03  8.07760e-03        00000 
-1.42408e-02  2.72958e-02        00000 
 5.16630e-03  3.38011e-01        00000 
 4.30882e-02  2.19535e-01        00000 
-1.04503e-02  2.43778e-02        00000 
 1.06976e-02  3.24849e-01        00000 
 3.41826e-02  1.36586e-01        00000 
-3.74281e-05  6.68850e-03        00000 
 4.83486e-03  9.95808e-03        00000 
-7.37525e-03  2.20908e-02        00000 
 1.59927e-02  3.11179e-01        00000 
 4.01680e-02  2.39002e-01        00000 
 3.97984e-02  1.64006e-01        00000 
 3.44737e-02  2.58138e-01        00000 
 4.39729e-02  1.90498e-01        00000 
 3.29883e-02  1.21813e-01        00000 
 7.52631e-04  8.43996e-03        00000 
 2.65630e-04  6.41202e-03        00000 
-3.84567e-05  6.11912e-03        00000 
-4.83227e-03  2.00071e-02        00000 
 9.17450e-04  1.77509e-02        00000 
 2.12580e-02  2.97183e-01        00000 
 6.71586e-03  1.26543e-02        00000 
 3.14494e-02  1.07607e-01        00000 
 3.88772e-02  1.49718e-01        00000 
 8.76832e-03  1.62729e-02        00000 
-2.70861e-03  1.81000e-02        00000 
 2.67036e-02  2.83205e-01        00000 
 4.63843e-02  2.03563e-01        00000 
 1.76799e-03  1.45861e-02        00000 
 2.96336e-02  9.40967e-02        00000 
 3.94465e-02  2.45769e-01        00000 
 4.43275e-02  1.75537e-01        00000 
 8.04548e-04  7.96030e-03        00000 
 1.09755e-02  2.08260e-02        00000 
 3.75394e-02  1.35799e-01        00000 
 2.75954e-02  8.13869e-02        00000 
-9.49796e-04  1.63999e-02        00000 
 3.96267e-04  6.31812e-03        00000 
 1.32917e-02  2.63587e-02        00000 
 2.53901e-02  6.95962e-02        00000 
 2.09074e-03  1.14419e-02        00000 
 1.57024e-02  3.28861e-02        00000 
 4.34317e-02  2.34152e-01        00000 
 3.22278e-02  2.69577e-01        00000 
 4.61666e-02  2.21047e-01        00000 
 2.30684e-02  5.88475e-02        00000 
 1.81704e-02  4.04720e-02        00000 
 2.06416e-02  4.91171e-02        00000 
 1.76085e-03  1.06468e-02        00000 
 3.57281e-02  1.22287e-01        00000 
 4.36228e-02  1.61074e-01        00000 
 8.04955e-19  3.50000e-01        00000 
-1.19848e-02  1.67627e-02        00000 