<?xml version="1.0" encoding="utf-8"?>
<VTKFile byte_order="LittleEndian" type="UnstructuredGrid" version="0.1">
   <UnstructuredGrid>
      <Piece NumberOfCells="641" NumberOfPoints="730">
         <Points>
            <DataArray Name="Points" NumberOfComponents="3" format="ascii" type="Float32">
1.0000 1.0000 0.0000
0.9600 1.0000 0.0000
1.0000 0.9600 0.0000
0.9603 0.9614 0.0000
1.0000 0.9200 0.0000
0.9200 1.0000 0.0000
0.9612 0.9231 0.0000
0.9211 0.9624 0.0000
0.9230 0.9260 0.0000
1.0000 0.8800 0.0000
0.8800 1.0000 0.0000
0.9614 0.8856 0.0000
0.8829 0.9623 0.0000
0.9240 0.8918 0.0000
0.8875 0.9262 0.0000
0.8933 0.8971 0.0000
0.9597 0.8473 0.0000
1.0000 0.8400 0.0000
0.8400 1.0000 0.0000
0.8440 0.9601 0.0000
0.9173 0.8563 0.0000
0.8514 0.9190 0.0000
0.8690 0.8729 0.0000
0.9592 0.8063 0.0000
1.0000 0.8000 0.0000
0.8000 1.0000 0.0000
0.8021 0.9589 0.0000
0.9165 0.8130 0.0000
0.8054 0.9165 0.0000
0.8676 0.8205 0.0000
0.8109 0.8707 0.0000
0.9597 0.7652 0.0000
1.0000 0.7600 0.0000
0.7600 1.0000 0.0000
0.7590 0.9590 0.0000
0.9161 0.7702 0.0000
0.7581 0.9167 0.0000
0.8122 0.8209 0.0000
0.8679 0.7733 0.0000
0.7569 0.8708 0.0000
0.9590 0.7242 0.0000
1.0000 0.7200 0.0000
0.7200 1.0000 0.0000
0.9153 0.7275 0.0000
0.7165 0.9591 0.0000
0.8165 0.7719 0.0000
0.7126 0.9181 0.0000
0.8686 0.7282 0.0000
0.7510 0.8174 0.0000
0.7082 0.8753 0.0000
0.9580 0.6829 0.0000
1.0000 0.6800 0.0000
0.6800 1.0000 0.0000
0.7693 0.7706 0.0000
0.9140 0.6851 0.0000
0.6742 0.9594 0.0000
0.8161 0.7213 0.0000
0.8740 0.6885 0.0000
0.6685 0.9181 0.0000
0.7012 0.8339 0.0000
0.7734 0.7344 0.0000
0.7152 0.7855 0.0000
0.6650 0.8760 0.0000
0.7356 0.7577 0.0000
1.0000 0.6400 0.0000
0.6400 1.0000 0.0000
0.8350 0.6800 0.0000
0.9558 0.6404 0.0000
0.8757 0.6585 0.0000
0.7480 0.7370 0.0000
0.6333 0.9593 0.0000
0.6862 0.8039 0.0000
0.9052 0.6395 0.0000
0.6619 0.8374 0.0000
0.7838 0.6876 0.0000
0.7581 0.7055 0.0000
0.6270 0.9175 0.0000
0.6640 0.8136 0.0000
0.8474 0.6471 0.0000
0.7341 0.7184 0.0000
0.6889 0.7621 0.0000
0.8018 0.6601 0.0000
0.7087 0.7349 0.0000
0.6240 0.8728 0.0000
0.6655 0.7821 0.0000
1.0000 0.6000 0.0000
0.6000 1.0000 0.0000
0.9579 0.5979 0.0000
0.8635 0.6181 0.0000
0.6438 0.7994 0.0000
0.5930 0.9599 0.0000
0.7406 0.6813 0.0000
0.8153 0.6317 0.0000
0.7215 0.6960 0.0000
0.7582 0.6627 0.0000
0.9144 0.5934 0.0000
0.6224 0.8262 0.0000
0.7025 0.7080 0.0000
0.6817 0.7264 0.0000
0.5880 0.9170 0.0000
0.6661 0.7445 0.0000
0.6874 0.7117 0.0000
0.7729 0.6402 0.0000
0.6462 0.7610 0.0000
0.8270 0.6029 0.0000
0.5855 0.8736 0.0000
0.7078 0.6759 0.0000
0.8731 0.5824 0.0000
0.6922 0.6895 0.0000
0.6247 0.7752 0.0000
0.7227 0.6602 0.0000
0.6777 0.7007 0.0000
1.0000 0.5600 0.0000
0.5600 1.0000 0.0000
0.7852 0.6159 0.0000
0.6645 0.7138 0.0000
0.7363 0.6426 0.0000
0.9599 0.5572 0.0000
0.6483 0.7278 0.0000
0.5542 0.9595 0.0000
0.6026 0.7897 0.0000
0.5823 0.8324 0.0000
0.6299 0.7405 0.0000
0.9195 0.5531 0.0000
0.7477 0.6223 0.0000
0.5507 0.9171 0.0000
0.6803 0.6732 0.0000
0.6658 0.6871 0.0000
0.8355 0.5722 0.0000
0.7947 0.5901 0.0000
0.6936 0.6581 0.0000
0.6502 0.6999 0.0000
0.6098 0.7514 0.0000
0.7057 0.6420 0.0000
0.7579 0.6014 0.0000
0.6336 0.7113 0.0000
0.5497 0.8744 0.0000
0.8778 0.5472 0.0000
0.7165 0.6250 0.0000
0.5740 0.7964 0.0000
0.6162 0.7214 0.0000
0.5892 0.7610 0.0000
0.7259 0.6072 0.0000
0.8020 0.5638 0.0000
1.0000 0.5200 0.0000
0.5200 1.0000 0.0000
0.5492 0.8345 0.0000
0.7657 0.5790 0.0000
0.9606 0.5179 0.0000
0.5980 0.7300 0.0000
0.8398 0.5417 0.0000
0.5158 0.9583 0.0000
0.7338 0.5887 0.0000
0.9203 0.5154 0.0000
0.5665 0.7670 0.0000
0.5131 0.9159 0.0000
0.5474 0.8009 0.0000
0.5792 0.7371 0.0000
0.7720 0.5563 0.0000
0.8787 0.5129 0.0000
0.8059 0.5366 0.0000
0.5141 0.8719 0.0000
0.7401 0.5696 0.0000
0.5598 0.7427 0.0000
0.5440 0.7719 0.0000
0.5175 0.8314 0.0000
0.8405 0.5118 0.0000
0.7450 0.5500 0.0000
0.5225 0.8010 0.0000
0.7754 0.5328 0.0000
1.0000 0.4800 0.0000
0.4800 1.0000 0.0000
0.9602 0.4791 0.0000
0.5401 0.7468 0.0000
0.4767 0.9571 0.0000
0.8069 0.5110 0.0000
0.9179 0.4782 0.0000
0.5221 0.7741 0.0000
0.4748 0.9127 0.0000
0.7482 0.5301 0.0000
0.8747 0.4784 0.0000
0.5027 0.7984 0.0000
0.7768 0.5101 0.0000
0.4760 0.8661 0.0000
0.5201 0.7492 0.0000
0.8373 0.4828 0.0000
0.4848 0.8182 0.0000
0.5012 0.7757 0.0000
0.7498 0.5101 0.0000
0.8046 0.4854 0.0000
0.5000 0.7500 0.0000
0.7754 0.4874 0.0000
1.0000 0.4400 0.0000
0.4400 1.0000 0.0000
0.9587 0.4395 0.0000
0.4799 0.7803 0.0000
0.4361 0.9573 0.0000
0.9156 0.4395 0.0000
0.7498 0.4899 0.0000
0.8291 0.4561 0.0000
0.4343 0.9109 0.0000
0.8003 0.4626 0.0000
0.8632 0.4393 0.0000
0.4799 0.7492 0.0000
0.7730 0.4662 0.0000
0.4477 0.8146 0.0000
0.4327 0.8588 0.0000
0.7482 0.4699 0.0000
0.8161 0.4410 0.0000
0.4541 0.7785 0.0000
0.7944 0.4428 0.0000
0.4599 0.7468 0.0000
1.0000 0.4000 0.0000
0.4000 1.0000 0.0000
0.7686 0.4455 0.0000
0.9592 0.3996 0.0000
0.8248 0.4242 0.0000
0.3968 0.9575 0.0000
0.7450 0.4500 0.0000
0.9170 0.3993 0.0000
0.4159 0.8309 0.0000
0.4229 0.8031 0.0000
0.3948 0.9133 0.0000
0.4316 0.7723 0.0000
0.7936 0.4233 0.0000
0.4402 0.7427 0.0000
0.8698 0.3967 0.0000
0.7652 0.4264 0.0000
0.3936 0.8689 0.0000
0.7401 0.4304 0.0000
0.3920 0.8309 0.0000
0.8264 0.3924 0.0000
0.3992 0.7968 0.0000
0.4094 0.7650 0.0000
0.4208 0.7371 0.0000
0.7903 0.3985 0.0000
1.0000 0.3600 0.0000
0.3600 1.0000 0.0000
0.7600 0.4056 0.0000
0.9598 0.3592 0.0000
0.3583 0.9570 0.0000
0.7338 0.4113 0.0000
0.9182 0.3582 0.0000
0.3575 0.9135 0.0000
0.3585 0.8699 0.0000
0.4020 0.7300 0.0000
0.8721 0.3546 0.0000
0.3871 0.7558 0.0000
0.3627 0.8272 0.0000
0.3723 0.7881 0.0000
0.7509 0.3845 0.0000
0.7810 0.3713 0.0000
0.7259 0.3928 0.0000
0.8206 0.3501 0.0000
0.3838 0.7214 0.0000
1.0000 0.3200 0.0000
0.3200 1.0000 0.0000
0.9609 0.3186 0.0000
0.3188 0.9571 0.0000
0.3655 0.7452 0.0000
0.7165 0.3750 0.0000
0.3191 0.9130 0.0000
0.7387 0.3639 0.0000
0.9203 0.3164 0.0000
0.3226 0.8674 0.0000
0.7625 0.3483 0.0000
0.3295 0.8214 0.0000
0.3412 0.7756 0.0000
0.3664 0.7113 0.0000
0.8783 0.3117 0.0000
0.3501 0.7297 0.0000
0.7057 0.3580 0.0000
0.7858 0.3237 0.0000
0.7257 0.3455 0.0000
0.3355 0.7477 0.0000
0.8363 0.3032 0.0000
0.3498 0.6999 0.0000
0.7447 0.3291 0.0000
1.0000 0.2800 0.0000
0.2800 1.0000 0.0000
0.2794 0.9569 0.0000
0.9615 0.2779 0.0000
0.3326 0.7179 0.0000
0.2801 0.9127 0.0000
0.6936 0.3419 0.0000
0.2847 0.8665 0.0000
0.9228 0.2753 0.0000
0.7128 0.3285 0.0000
0.2921 0.8195 0.0000
0.7602 0.3086 0.0000
0.3033 0.7758 0.0000
0.3147 0.7412 0.0000
0.3342 0.6871 0.0000
0.7305 0.3141 0.0000
0.8833 0.2705 0.0000
0.7998 0.2876 0.0000
0.7436 0.3019 0.0000
0.6803 0.3268 0.0000
0.3147 0.7039 0.0000
0.6989 0.3111 0.0000
0.8465 0.2623 0.0000
0.3197 0.6732 0.0000
0.7181 0.2951 0.0000
0.7660 0.2772 0.0000
1.0000 0.2400 0.0000
0.2400 1.0000 0.0000
0.2395 0.9570 0.0000
0.9623 0.2379 0.0000
0.3033 0.6872 0.0000
0.2867 0.7266 0.0000
0.7391 0.2819 0.0000
0.6658 0.3129 0.0000
0.2402 0.9130 0.0000
0.2441 0.8665 0.0000
0.9241 0.2355 0.0000
0.2521 0.8179 0.0000
0.2648 0.7698 0.0000
0.2877 0.7007 0.0000
0.3064 0.6581 0.0000
0.6834 0.2942 0.0000
0.8864 0.2325 0.0000
0.8108 0.2442 0.0000
0.2899 0.6725 0.0000
0.6502 0.3001 0.0000
0.8557 0.2306 0.0000
0.7030 0.2743 0.0000
0.2943 0.6420 0.0000
0.2710 0.6909 0.0000
0.7273 0.2535 0.0000
0.6657 0.2787 0.0000
1.0000 0.2000 0.0000
0.2000 1.0000 0.0000
0.6336 0.2887 0.0000
0.2514 0.7173 0.0000
0.2756 0.6564 0.0000
0.1992 0.9576 0.0000
0.9620 0.1981 0.0000
0.7627 0.2311 0.0000
0.1993 0.9141 0.0000
0.9233 0.1961 0.0000
0.2835 0.6250 0.0000
0.2019 0.8680 0.0000
0.6830 0.2545 0.0000
0.2075 0.8181 0.0000
0.8823 0.1948 0.0000
0.2539 0.6737 0.0000
0.6460 0.2652 0.0000
0.6162 0.2786 0.0000
0.8346 0.1977 0.0000
0.2163 0.7604 0.0000
0.2633 0.6381 0.0000
0.2741 0.6072 0.0000
0.7040 0.2284 0.0000
0.2284 0.6955 0.0000
0.6248 0.2559 0.0000
0.5980 0.2700 0.0000
0.6595 0.2370 0.0000
0.7292 0.2095 0.0000
0.2397 0.6531 0.0000
0.2516 0.6187 0.0000
1.0000 0.1600 0.0000
0.1600 1.0000 0.0000
0.2662 0.5887 0.0000
0.1588 0.9585 0.0000
0.9622 0.1583 0.0000
0.1581 0.9163 0.0000
0.9233 0.1564 0.0000
0.6042 0.2491 0.0000
0.5792 0.2629 0.0000
0.1589 0.8722 0.0000
0.1958 0.7202 0.0000
0.8836 0.1548 0.0000
0.2123 0.6706 0.0000
0.6322 0.2291 0.0000
0.2599 0.5696 0.0000
0.7803 0.1720 0.0000
0.1609 0.8259 0.0000
0.2262 0.6315 0.0000
0.2418 0.5979 0.0000
0.8442 0.1523 0.0000
0.5598 0.2573 0.0000
0.5842 0.2424 0.0000
0.6765 0.1983 0.0000
0.1621 0.7781 0.0000
0.6083 0.2254 0.0000
0.2550 0.5500 0.0000
0.8115 0.1450 0.0000
0.1814 0.6889 0.0000
0.2335 0.5759 0.0000
0.1986 0.6460 0.0000
0.7210 0.1689 0.0000
0.5401 0.2532 0.0000
0.2141 0.6084 0.0000
0.5648 0.2361 0.0000
1.0000 0.1200 0.0000
0.1200 1.0000 0.0000
0.5886 0.2216 0.0000
0.6361 0.1981 0.0000
0.9623 0.1186 0.0000
0.1185 0.9594 0.0000
0.2518 0.5301 0.0000
0.1554 0.7378 0.0000
0.9238 0.1169 0.0000
0.1171 0.9188 0.0000
0.5201 0.2508 0.0000
0.6081 0.2005 0.0000
0.1177 0.8757 0.0000
0.8845 0.1155 0.0000
0.2278 0.5529 0.0000
0.5447 0.2310 0.0000
0.5916 0.2048 0.0000
0.2502 0.5101 0.0000
0.5703 0.2140 0.0000
0.1692 0.6615 0.0000
0.1178 0.8329 0.0000
0.2039 0.5833 0.0000
0.1845 0.6209 0.0000
0.8462 0.1139 0.0000
0.5000 0.2500 0.0000
0.1474 0.7037 0.0000
0.5242 0.2284 0.0000
0.2502 0.4899 0.0000
0.8095 0.1132 0.0000
0.1175 0.7897 0.0000
0.2245 0.5293 0.0000
0.6911 0.1470 0.0000
0.6623 0.1569 0.0000
0.7718 0.1199 0.0000
0.5787 0.1926 0.0000
0.4799 0.2508 0.0000
0.5494 0.2063 0.0000
0.6277 0.1636 0.0000
0.2518 0.4699 0.0000
0.1972 0.5560 0.0000
0.1405 0.6744 0.0000
0.5036 0.2260 0.0000
0.5965 0.1735 0.0000
0.1148 0.7499 0.0000
1.0000 0.0800 0.0000
0.0800 1.0000 0.0000
0.2237 0.5060 0.0000
0.1547 0.6362 0.0000
0.7277 0.1206 0.0000
0.4599 0.2532 0.0000
0.9618 0.0790 0.0000
0.0786 0.9601 0.0000
0.1700 0.5930 0.0000
0.9229 0.0780 0.0000
0.0778 0.9196 0.0000
0.2550 0.4500 0.0000
0.5267 0.2034 0.0000
0.4402 0.2573 0.0000
0.8839 0.0770 0.0000
0.0771 0.8790 0.0000
0.1358 0.6525 0.0000
0.2250 0.4832 0.0000
0.1115 0.7133 0.0000
0.1942 0.5282 0.0000
0.2599 0.4304 0.0000
0.5565 0.1781 0.0000
0.4830 0.2210 0.0000
[...]
         <PointData>
            <DataArray Name="Displacement" NumberOfComponents="3" format="ascii" type="Float64">
 5.10877e-19  2.50000e-01        00000 
 1.22276e-18  2.50000e-01        00000 
-8.86847e-03  2.37369e-01        00000 
-5.31022e-03  2.40580e-01        00000 
-1.36299e-02  2.26724e-01        00000 
-2.57721e-19  2.50000e-01        00000 
-1.02282e-02  2.30363e-01        00000 
-3.45727e-03  2.41752e-01        00000 
-7.23473e-03  2.33064e-01        00000 
-1.78235e-02  2.16459e-01        00000 
       00000  2.50000e-01        00000 
-1.41434e-02  2.20684e-01        00000 
-2.26145e-03  2.42448e-01        00000 
-1.06786e-02  2.24618e-01        00000 
-5.23458e-03  2.34450e-01        00000 
-8.10352e-03  2.27515e-01        00000 
-1.78831e-02  2.11072e-01        00000 
-2.18870e-02  2.06218e-01        00000 
-1.93378e-19  2.50000e-01        00000 
-1.35555e-03  2.42718e-01        00000 
-1.36276e-02  2.16289e-01        00000 
-3.95232e-03  2.34287e-01        00000 
-8.49968e-03  2.23351e-01        00000 
-2.21049e-02  2.00775e-01        00000 
-2.60977e-02  1.96010e-01        00000 
 8.37020e-19  2.50000e-01        00000 
-4.42903e-04  2.43308e-01        00000 
-1.79342e-02  2.05663e-01        00000 
-2.08916e-03  2.35671e-01        00000 
-1.32816e-02  2.11253e-01        00000 
-5.03527e-03  2.26495e-01        00000 
-2.66603e-02  1.90417e-01        00000 
-3.05035e-02  1.85885e-01        00000 
-1.52827e-19  2.50000e-01        00000 
 3.67967e-04  2.44229e-01        00000 
-2.25380e-02  1.95097e-01        00000 
-3.56755e-04  2.37845e-01        00000 
-9.03431e-03  2.16035e-01        00000 
-1.82050e-02  1.99936e-01        00000 
-2.18132e-03  2.30457e-01        00000 
-3.12804e-02  1.80238e-01        00000 
-3.50270e-02  1.75917e-01        00000 
-4.41203e-20  2.50000e-01        00000 
-2.73768e-02  1.84488e-01        00000 
 9.61624e-04  2.45213e-01        00000 
-1.41220e-02  2.04814e-01        00000 
 9.06934e-04  2.40277e-01        00000 
-2.34257e-02  1.88743e-01        00000 
-5.07446e-03  2.21756e-01        00000 
 2.90667e-05  2.35054e-01        00000 
-3.59017e-02  1.70056e-01        00000 
-3.94712e-02  1.66174e-01        00000 
       00000  2.50000e-01        00000 
-1.05057e-02  2.10510e-01        00000 
-3.21811e-02  1.73927e-01        00000 
 1.29729e-03  2.46218e-01        00000 
-1.98174e-02  1.92933e-01        00000 
-2.85654e-02  1.78186e-01        00000 
 1.62661e-03  2.42493e-01        00000 
-1.49126e-03  2.30333e-01        00000 
-1.48062e-02  2.02307e-01        00000 
-5.43477e-03  2.21318e-01        00000 
 1.16201e-03  2.38710e-01        00000 
-9.36647e-03  2.13270e-01        00000 
-4.35500e-02  1.56685e-01        00000 
-1.33463e-19  2.50000e-01        00000 
-2.63652e-02  1.80196e-01        00000 
-4.02123e-02  1.59709e-01        00000 
-3.21236e-02  1.70269e-01        00000 
-1.25567e-02  2.07287e-01        00000 
 1.36542e-03  2.47091e-01        00000 
-2.54606e-03  2.28426e-01        00000 
-3.65182e-02  1.62847e-01        00000 
 3.07188e-05  2.35281e-01        00000 
-2.12343e-02  1.89723e-01        00000 
-1.70249e-02  1.98805e-01        00000 
 1.82628e-03  2.44417e-01        00000 
-1.15039e-03  2.32713e-01        00000 
-3.11660e-02  1.69977e-01        00000 
-1.36941e-02  2.06502e-01        00000 
-6.05488e-03  2.22744e-01        00000 
-2.60041e-02  1.79550e-01        00000 
-1.00559e-02  2.14828e-01        00000 
 1.54612e-03  2.41686e-01        00000 
-3.21875e-03  2.29344e-01        00000 
-4.69939e-02  1.47431e-01        00000 
-3.56377e-19  2.50000e-01        00000 
-4.41358e-02  1.49135e-01        00000 
-3.53733e-02  1.60374e-01        00000 
-1.27161e-03  2.34389e-01        00000 
 1.16136e-03  2.47858e-01        00000 
-1.87231e-02  1.97561e-01        00000 
-3.02348e-02  1.69617e-01        00000 
-1.56405e-02  2.05426e-01        00000 
-2.22281e-02  1.88886e-01        00000 
-4.13386e-02  1.50139e-01        00000 
 4.92631e-04  2.38963e-01        00000 
-1.30591e-02  2.12500e-01        00000 
-9.70486e-03  2.20134e-01        00000 
 1.59705e-03  2.45958e-01        00000 
-6.82645e-03  2.25607e-01        00000 
-1.18897e-02  2.17132e-01        00000 
-2.59020e-02  1.79549e-01        00000 
-4.33375e-03  2.31101e-01        00000 
-3.39273e-02  1.59528e-01        00000 
 1.48337e-03  2.44314e-01        00000 
-1.75011e-02  2.06148e-01        00000 
-3.91182e-02  1.49453e-01        00000 
-1.50990e-02  2.13184e-01        00000 
-2.42695e-03  2.35774e-01        00000 
-2.01489e-02  1.98321e-01        00000 
-1.30979e-02  2.18918e-01        00000 
-4.94879e-02  1.38381e-01        00000 
-1.34321e-19  2.50000e-01        00000 
-2.93404e-02  1.69797e-01        00000 
-1.08361e-02  2.23686e-01        00000 
-2.29098e-02  1.89885e-01        00000 
-4.68314e-02  1.39041e-01        00000 
-8.38760e-03  2.28672e-01        00000 
 7.72427e-04  2.48343e-01        00000 
-9.85989e-04  2.39567e-01        00000 
 8.23512e-04  2.43171e-01        00000 
-6.18746e-03  2.33322e-01        00000 
-4.41852e-02  1.39221e-01        00000 
-2.56695e-02  1.80768e-01        00000 
 1.05685e-03  2.47040e-01        00000 
-1.71660e-02  2.15901e-01        00000 
-1.50578e-02  2.22115e-01        00000 
-3.69280e-02  1.49102e-01        00000 
-3.22960e-02  1.59750e-01        00000 
-1.92644e-02  2.08868e-01        00000 
-1.29622e-02  2.27478e-01        00000 
-4.37475e-03  2.37375e-01        00000 
-2.13040e-02  2.01083e-01        00000 
-2.81954e-02  1.71120e-01        00000 
-1.08997e-02  2.32113e-01        00000 
 1.01415e-03  2.46041e-01        00000 
-4.14707e-02  1.38983e-01        00000 
-2.32464e-02  1.92584e-01        00000 
-3.22024e-04  2.42978e-01        00000 
-8.94254e-03  2.36022e-01        00000 
-2.91749e-03  2.40613e-01        00000 
-2.50492e-02  1.83435e-01        00000 
-3.46343e-02  1.49521e-01        00000 
-5.07884e-02  1.29461e-01        00000 
       00000  2.50000e-01        00000 
 6.39382e-04  2.45385e-01        00000 
-3.03537e-02  1.61021e-01        00000 
-4.81293e-02  1.29405e-01        00000 
-7.13028e-03  2.39227e-01        00000 
-3.88321e-02  1.38927e-01        00000 
 2.50109e-04  2.48559e-01        00000 
-2.66364e-02  1.73681e-01        00000 
-4.53775e-02  1.29133e-01        00000 
-1.92336e-03  2.43285e-01        00000 
 3.03480e-04  2.47540e-01        00000 
-3.82189e-05  2.45098e-01        00000 
-5.47875e-03  2.41757e-01        00000 
-3.20699e-02  1.50612e-01        00000 
-4.24760e-02  1.28825e-01        00000 
-3.61487e-02  1.39100e-01        00000 
 3.19402e-04  2.46857e-01        00000 
-2.79779e-02  1.63416e-01        00000 
-3.96621e-03  2.43705e-01        00000 
-1.10954e-03  2.45085e-01        00000 
 2.31735e-04  2.46456e-01        00000 
-3.96189e-02  1.28941e-01        00000 
-2.90182e-02  1.52734e-01        00000 
 6.37057e-06  2.46196e-01        00000 
-3.31731e-02  1.39975e-01        00000 
-5.07693e-02  1.20582e-01        00000 
-5.43484e-21  2.50000e-01        00000 
-4.80289e-02  1.19890e-01        00000 
-2.56358e-03  2.45051e-01        00000 
-3.45589e-04  2.48487e-01        00000 
-3.67726e-02  1.29225e-01        00000 
-4.51018e-02  1.19126e-01        00000 
-5.14804e-04  2.46098e-01        00000 
-5.30908e-04  2.47353e-01        00000 
-2.97318e-02  1.41740e-01        00000 
-4.20476e-02  1.18511e-01        00000 
 2.27333e-05  2.46470e-01        00000 
-3.36554e-02  1.29599e-01        00000 
-4.73772e-04  2.46633e-01        00000 
-1.24645e-03  2.45852e-01        00000 
-3.92996e-02  1.19138e-01        00000 
-1.22184e-04  2.46472e-01        00000 
-4.69864e-06  2.46452e-01        00000 
-3.00880e-02  1.30574e-01        00000 
-3.65100e-02  1.19249e-01        00000 
 3.33591e-05  2.46113e-01        00000 
-3.34798e-02  1.19125e-01        00000 
-4.94425e-02  1.11649e-01        00000 
 1.16197e-19  2.50000e-01        00000 
-4.65437e-02  1.10146e-01        00000 
 3.57759e-04  2.46160e-01        00000 
-8.95969e-04  2.48139e-01        00000 
-4.35020e-02  1.08692e-01        00000 
-3.00829e-02  1.19329e-01        00000 
-3.78760e-02  1.09638e-01        00000 
-1.28235e-03  2.46442e-01        00000 
-3.55932e-02  1.10127e-01        00000 
-3.97954e-02  1.06344e-01        00000 
 1.27702e-03  2.45821e-01        00000 
-3.28650e-02  1.09237e-01        00000 
-2.65993e-04  2.44937e-01        00000 
-1.16401e-03  2.44908e-01        00000 
-2.97118e-02  1.08164e-01        00000 
-3.60803e-02  1.03528e-01        00000 
 8.61346e-04  2.45009e-01        00000 
-3.42652e-02  1.01973e-01        00000 
 2.56005e-03  2.45038e-01        00000 
-4.69663e-02  1.02585e-01        00000 
 4.36788e-20  2.50000e-01        00000 
-3.17723e-02  9.95518e-02        00000 
-4.39994e-02  1.00351e-01        00000 
-3.58221e-02  9.88158e-02        00000 
-1.26348e-03  2.47552e-01        00000 
-2.89951e-02  9.71650e-02        00000 
-4.09141e-02  9.81066e-02        00000 
-7.09562e-04  2.42958e-01        00000 
 1.02960e-04  2.42894e-01        00000 
-1.74104e-03  2.45126e-01        00000 
 1.59482e-03  2.43207e-01        00000 
-3.31116e-02  9.47698e-02        00000 
 3.93809e-03  2.43724e-01        00000 
-3.72216e-02  9.43644e-02        00000 
-3.05790e-02  9.09791e-02        00000 
-1.48984e-03  2.42760e-01        00000 
-2.79455e-02  8.65262e-02        00000 
-7.03243e-04  2.40765e-01        00000 
-3.34604e-02  8.89746e-02        00000 
 5.97876e-04  2.40127e-01        00000 
 2.58380e-03  2.40555e-01        00000 
 5.45037e-03  2.41804e-01        00000 
-3.10149e-02  8.57695e-02        00000 
-4.35430e-02  9.33233e-02        00000 
-2.80507e-19  2.50000e-01        00000 
-2.88463e-02  8.18728e-02        00000 
-4.04580e-02  9.04531e-02        00000 
-1.41780e-03  2.46740e-01        00000 
-2.66112e-02  7.63086e-02        00000 
-3.72122e-02  8.74962e-02        00000 
-1.79338e-03  2.43391e-01        00000 
-1.35239e-03  2.40104e-01        00000 
 7.11058e-03  2.39231e-01        00000 
-3.32823e-02  8.30058e-02        00000 
 3.94326e-03  2.36959e-01        00000 
-2.22431e-04  2.37301e-01        00000 
 1.56797e-03  2.36040e-01        00000 
-2.64817e-02  7.22933e-02        00000 
-2.77016e-02  7.55064e-02        00000 
-2.50368e-02  6.65727e-02        00000 
-2.87138e-02  7.61020e-02        00000 
 8.88361e-03  2.35989e-01        00000 
-3.94615e-02  8.38219e-02        00000 
-6.51667e-20  2.50000e-01        00000 
-3.62746e-02  8.05082e-02        00000 
-1.30086e-03  2.45824e-01        00000 
 5.68641e-03  2.32505e-01        00000 
-2.32470e-02  5.73868e-02        00000 
-1.43340e-03  2.41335e-01        00000 
-2.37098e-02  6.25333e-02        00000 
-3.28463e-02  7.69475e-02        00000 
-6.62332e-04  2.36761e-01        00000 
-2.38088e-02  6.49082e-02        00000 
 9.16972e-04  2.32630e-01        00000 
 3.37994e-03  2.29895e-01        00000 
 1.08221e-02  2.32151e-01        00000 
-2.89255e-02  7.22218e-02        00000 
 8.08854e-03  2.28438e-01        00000 
-2.12938e-02  4.88697e-02        00000 
-2.27549e-02  6.34026e-02        00000 
-2.09487e-02  5.38060e-02        00000 
 6.47319e-03  2.26383e-01        00000 
-2.44710e-02  6.56231e-02        00000 
 1.28779e-02  2.27468e-01        00000 
-2.02657e-02  5.57367e-02        00000 
-3.50207e-02  7.40714e-02        00000 
-2.34580e-19  2.50000e-01        00000 
-9.34826e-04  2.44839e-01        00000 
-3.17219e-02  7.04793e-02        00000 
 1.02354e-02  2.23152e-01        00000 
-6.49455e-04  2.39202e-01        00000 
-1.92394e-02  4.11356e-02        00000 
 5.52833e-04  2.33276e-01        00000 
-2.82974e-02  6.67688e-02        00000 
-1.82615e-02  4.62186e-02        00000 
 2.57064e-03  2.27506e-01        00000 
-1.89111e-02  5.47202e-02        00000 
 5.22241e-03  2.23148e-01        00000 
 7.99607e-03  2.21012e-01        00000 
 1.49938e-02  2.22012e-01        00000 
-1.74720e-02  4.87929e-02        00000 
-2.44957e-02  6.22128e-02        00000 
-1.95382e-02  5.69348e-02        00000 
-1.68669e-02  4.95830e-02        00000 
-1.71192e-02  3.41940e-02        00000 
 1.27972e-02  2.16761e-01        00000 
-1.53857e-02  3.90764e-02        00000 
-2.04539e-02  5.65794e-02        00000 
 1.71421e-02  2.15888e-01        00000 
-1.43015e-02  4.21488e-02        00000 
-1.55523e-02  4.89206e-02        00000 
-3.04950e-02  6.41030e-02        00000 
 6.50223e-20  2.50000e-01        00000 
-3.34742e-04  2.43909e-01        00000 
-2.72130e-02  6.05529e-02        00000 
 1.55393e-02  2.11454e-01        00000 
 1.12360e-02  2.12414e-01        00000 
-1.40771e-02  4.46836e-02        00000 
-1.49820e-02  2.80349e-02        00000 
 5.23200e-04  2.37180e-01        00000 
 2.32805e-03  2.29820e-01        00000 
-2.38198e-02  5.69253e-02        00000 
 4.90317e-03  2.22247e-01        00000 
 8.14563e-03  2.15617e-01        00000 
 1.45727e-02  2.08805e-01        00000 
 1.92811e-02  2.08903e-01        00000 
-1.24838e-02  3.24508e-02        00000 
-2.03854e-02  5.30601e-02        00000 
-1.54216e-02  4.82407e-02        00000 
 1.80367e-02  2.04825e-01        00000 
-1.28826e-02  2.26338e-02        00000 
-1.76501e-02  4.97860e-02        00000 
-1.08065e-02  3.51816e-02        00000 
 2.13454e-02  2.01105e-01        00000 
 1.67609e-02  2.02442e-01        00000 
-9.95337e-03  3.71190e-02        00000 
-9.72584e-03  2.61954e-02        00000 
-2.60856e-02  5.39758e-02        00000 
-1.72746e-19  2.50000e-01        00000 
-1.08697e-02  1.79597e-02        00000 
 1.48609e-02  2.03178e-01        00000 
 2.07069e-02  1.96975e-01        00000 
 4.49854e-04  2.43105e-01        00000 
-2.27901e-02  5.05291e-02        00000 
-1.01301e-02  3.89184e-02        00000 
 2.01063e-03  2.35441e-01        00000 
-1.94412e-02  4.70847e-02        00000 
 2.33000e-02  1.92613e-01        00000 
 4.47729e-03  2.26891e-01        00000 
-7.42941e-03  2.80448e-02        00000 
 7.87044e-03  2.17409e-01        00000 
-1.59741e-02  4.35517e-02        00000 
 2.00433e-02  1.94451e-01        00000 
-7.33229e-03  2.04937e-02        00000 
-8.97590e-03  1.39772e-02        00000 
-1.24335e-02  4.01110e-02        00000 
 1.26553e-02  2.06240e-01        00000 
 2.34275e-02  1.88618e-01        00000 
 2.50866e-02  1.83448e-01        00000 
-5.95814e-03  2.86984e-02        00000 
 1.93117e-02  1.93833e-01        00000 
-5.62190e-03  1.55415e-02        00000 
-7.19169e-03  1.07049e-02        00000 
-4.61514e-03  2.14017e-02        00000 
-5.93108e-03  2.98505e-02        00000 
 2.35176e-02  1.85947e-01        00000 
 2.60772e-02  1.79454e-01        00000 
-2.18755e-02  4.37674e-02        00000 
-4.40356e-20  2.50000e-01        00000 
 2.66723e-02  1.73699e-01        00000 
 1.37035e-03  2.42449e-01        00000 
-1.86391e-02  4.05027e-02        00000 
 3.70280e-03  2.34097e-01        00000 
-1.53432e-02  3.72466e-02        00000 
-4.35334e-03  1.16614e-02        00000 
-5.52323e-03  8.14991e-03        00000 
 6.77777e-03  2.24868e-01        00000 
 1.89700e-02  1.94358e-01        00000 
-1.21016e-02  3.40634e-02        00000 
 2.36206e-02  1.84764e-01        00000 
-2.99967e-03  1.57116e-02        00000 
 2.80076e-02  1.63423e-01        00000 
-6.18044e-03  2.94010e-02        00000 
 1.05656e-02  2.14793e-01        00000 
 2.69133e-02  1.76885e-01        00000 
 2.84985e-02  1.69846e-01        00000 
-9.03193e-03  3.07191e-02        00000 
-3.99393e-03  6.26158e-03        00000 
-3.18617e-03  8.68975e-03        00000 
-2.20470e-03  2.04178e-02        00000 
 1.52389e-02  2.03893e-01        00000 
-2.16871e-03  1.16865e-02        00000 
 2.90532e-02  1.52745e-01        00000 
-6.29585e-03  2.67751e-02        00000 
 2.39604e-02  1.84617e-01        00000 
 3.06338e-02  1.59641e-01        00000 
 2.75905e-02  1.75800e-01        00000 
-2.47052e-03  2.25330e-02        00000 
-2.59316e-03  4.96086e-03        00000 
 3.00979e-02  1.67325e-01        00000 
-2.16700e-03  6.54591e-03        00000 
-1.78150e-02  3.35300e-02        00000 
-9.29013e-19  2.50000e-01        00000 
-1.55877e-03  8.90779e-03        00000 
-9.84312e-04  1.43341e-02        00000 
-1.46326e-02  3.04339e-02        00000 
 2.41975e-03  2.41872e-01        00000 
 2.97683e-02  1.41751e-01        00000 
 2.02964e-02  1.93587e-01        00000 
-1.14991e-02  2.74984e-02        00000 
 5.57785e-03  2.32991e-01        00000 
-1.27941e-03  4.17512e-03        00000 
-5.85676e-04  1.06967e-02        00000 
 9.21527e-03  2.23160e-01        00000 
-8.60421e-03  2.49096e-02        00000 
 3.22579e-02  1.49146e-01        00000 
-1.32768e-03  4.98906e-03        00000 
-6.39335e-04  8.86956e-03        00000 
 3.01272e-02  1.30587e-01        00000 
-8.55988e-04  6.82593e-03        00000 
 2.82101e-02  1.75823e-01        00000 
 1.31988e-02  2.13058e-01        00000 
 3.29307e-02  1.57209e-01        00000 
 3.13838e-02  1.66421e-01        00000 
-6.07167e-03  2.24608e-02        00000 
 3.71768e-06  3.91932e-03        00000 
 2.50101e-02  1.84274e-01        00000 
-6.85952e-04  4.01365e-03        00000 
 3.01169e-02  1.19350e-01        00000 
-3.94394e-03  2.02459e-02        00000 
 1.76507e-02  2.02639e-01        00000 
 3.32937e-02  1.38412e-01        00000 
-2.69392e-04  1.61390e-02        00000 
 2.64856e-04  1.41744e-02        00000 
-2.37258e-03  1.90223e-02        00000 
 2.76231e-05  7.21563e-03        00000 
 1.24672e-03  4.21858e-03        00000 
-3.39049e-04  5.12030e-03        00000 
 7.20882e-04  1.09865e-02        00000 
 2.97474e-02  1.08185e-01        00000 
 3.51354e-02  1.46594e-01        00000 
 2.90585e-02  1.75974e-01        00000 
-1.11777e-04  3.59152e-03        00000 
 6.33565e-04  8.30886e-03        00000 
 2.23014e-02  1.92646e-01        00000 
-1.36155e-02  2.32687e-02        00000 
 1.57461e-18  2.50000e-01        00000 
 3.36569e-02  1.27750e-01        00000 
 3.21820e-02  1.67188e-01        00000 
-5.49634e-04  1.59435e-02        00000 
 2.52452e-03  4.99903e-03        00000 
-1.04970e-02  2.02191e-02        00000 
 3.69156e-03  2.41222e-01        00000 
 3.50079e-02  1.56160e-01        00000 
-7.61428e-03  1.78798e-02        00000 
 7.80027e-03  2.31554e-01        00000 
 2.90254e-02  9.71922e-02        00000 
-1.36975e-04  3.98113e-03        00000 
 3.90748e-03  6.30182e-03        00000 
-5.29862e-03  1.60859e-02        00000 
 1.18396e-02  2.21505e-01        00000 
 3.19071e-02  1.69715e-01        00000 
 3.34141e-02  1.17162e-01        00000 
 2.68427e-02  1.83222e-01        00000 
 3.64069e-02  1.35906e-01        00000 
 2.79751e-02  8.65067e-02        00000 
 4.29994e-04  5.25803e-03        00000 
 2.79729e-04  3.79246e-03        00000 
-5.74693e-05  3.58820e-03        00000 
-3.39555e-03  1.44781e-02        00000 
 8.07006e-04  1.24116e-02        00000 
 1.59418e-02  2.11253e-01        00000 
 5.43262e-03  8.18272e-03        00000 
 2.66213e-02  7.62440e-02        00000 
 3.26267e-02  1.06959e-01        00000 
 7.10733e-03  1.07228e-02        00000 
-1.81367e-03  1.30169e-02        00000 
 2.02649e-02  2.01061e-01        00000 
 3.78426e-02  1.44935e-01        00000 
 1.39145e-03  1.00290e-02        00000 
 2.50249e-02  6.64974e-02        00000 
 3.09895e-02  1.74375e-01        00000 
 3.67439e-02  1.25377e-01        00000 
 8.02707e-04  4.85538e-03        00000 
 8.92564e-03  1.39392e-02        00000 
 3.14548e-02  9.70111e-02        00000 
 2.32339e-02  5.73392e-02        00000 
-5.11444e-04  1.17107e-02        00000 
 2.32754e-04  3.76725e-03        00000 
 1.08595e-02  1.78671e-02        00000 
 2.12979e-02  4.88532e-02        00000 
 1.57312e-03  7.66534e-03        00000 
 1.28997e-02  2.25202e-02        00000 
 3.44053e-02  1.66154e-01        00000 
 2.47195e-02  1.91182e-01        00000 
 3.69960e-02  1.57011e-01        00000 
 1.92640e-02  4.11283e-02        00000 
 1.50132e-02  2.79458e-02        00000 
 1.71503e-02  3.41423e-02        00000 
 1.61434e-03  6.71954e-03        00000 
 2.98645e-02  8.73426e-02        00000 
 3.61726e-02  1.15188e-01        00000 
 8.04955e-19  2.50000e-01        00000 
-8.86548e-03  1.26425e-02        00000 