<?xml version="1.0" encoding="utf-8"?>
<VTKFile byte_order="LittleEndian" type="UnstructuredGrid" version="0.1">
   <UnstructuredGrid>
      <Piece NumberOfCells="641" NumberOfPoints="730">
         <Points>
            <DataArray Name="Points" NumberOfComponents="3" format="ascii" type="Float32">
1.0000 1.0000 0.0000
0.9600 1.0000 0.0000
1.0000 0.9600 0.0000
0.9603 0.9614 0.0000
1.0000 0.9200 0.0000
0.9200 1.0000 0.0000
0.9612 0.9231 0.0000
0.9211 0.9624 0.0000
0.9230 0.9260 0.0000
1.0000 0.8800 0.0000
0.8800 1.0000 0.0000
0.9614 0.8856 0.0000
0.8829 0.9623 0.0000
0.9240 0.8918 0.0000
0.8875 0.9262 0.0000
0.8933 0.8971 0.0000
0.9597 0.8473 0.0000
1.0000 0.8400 0.0000
0.8400 1.0000 0.0000
0.8440 0.9601 0.0000
0.9173 0.8563 0.0000
0.8514 0.9190 0.0000
0.8690 0.8729 0.0000
0.9592 0.8063 0.0000
1.0000 0.8000 0.0000
0.8000 1.0000 0.0000
0.8021 0.9589 0.0000
0.9165 0.8130 0.0000
0.8054 0.9165 0.0000
0.8676 0.8205 0.0000
0.8109 0.8707 0.0000
0.9597 0.7652 0.0000
1.0000 0.7600 0.0000
0.7600 1.0000 0.0000
0.7590 0.9590 0.0000
0.9161 0.7702 0.0000
0.7581 0.9167 0.0000
0.8122 0.8209 0.0000
0.8679 0.7733 0.0000
0.7569 0.8708 0.0000
0.9590 0.7242 0.0000
1.0000 0.7200 0.0000
0.7200 1.0000 0.0000
0.9153 0.7275 0.0000
0.7165 0.9591 0.0000
0.8165 0.7719 0.0000
0.7126 0.9181 0.0000
0.8686 0.7282 0.0000
0.7510 0.8174 0.0000
0.7082 0.8753 0.0000
0.9580 0.6829 0.0000
1.0000 0.6800 0.0000
0.6800 1.0000 0.0000
0.7693 0.7706 0.0000
0.9140 0.6851 0.0000
0.6742 0.9594 0.0000
0.8161 0.7213 0.0000
0.8740 0.6885 0.0000
0.6685 0.9181 0.0000
0.7012 0.8339 0.0000
0.7734 0.7344 0.0000
0.7152 0.7855 0.0000
0.6650 0.8760 0.0000
0.7356 0.7577 0.0000
1.0000 0.6400 0.0000
0.6400 1.0000 0.0000
0.8350 0.6800 0.0000
0.9558 0.6404 0.0000
0.8757 0.6585 0.0000
0.7480 0.7370 0.0000
0.6333 0.9593 0.0000
0.6862 0.8039 0.0000
0.9052 0.6395 0.0000
0.6619 0.8374 0.0000
0.7838 0.6876 0.0000
0.7581 0.7055 0.0000
0.6270 0.9175 0.0000
0.6640 0.8136 0.0000
0.8474 0.6471 0.0000
0.7341 0.7184 0.0000
0.6889 0.7621 0.0000
0.8018 0.6601 0.0000
0.7087 0.7349 0.0000
0.6240 0.8728 0.0000
0.6655 0.7821 0.0000
1.0000 0.6000 0.0000
0.6000 1.0000 0.0000
0.9579 0.5979 0.0000
0.8635 0.6181 0.0000
0.6438 0.7994 0.0000
0.5930 0.9599 0.0000
0.7406 0.6813 0.0000
0.8153 0.6317 0.0000
0.7215 0.6960 0.0000
0.7582 0.6627 0.0000
0.9144 0.5934 0.0000
0.6224 0.8262 0.0000
0.7025 0.7080 0.0000
0.6817 0.7264 0.0000
0.5880 0.9170 0.0000
0.6661 0.7445 0.0000
0.6874 0.7117 0.0000
0.7729 0.6402 0.0000
0.6462 0.7610 0.0000
0.8270 0.6029 0.0000
0.5855 0.8736 0.0000
0.7078 0.6759 0.0000
0.8731 0.5824 0.0000
0.6922 0.6895 0.0000
0.6247 0.7752 0.0000
0.7227 0.6602 0.0000
0.6777 0.7007 0.0000
1.0000 0.5600 0.0000
0.5600 1.0000 0.0000
0.7852 0.6159 0.0000
0.6645 0.7138 0.0000
0.7363 0.6426 0.0000
0.9599 0.5572 0.0000
0.6483 0.7278 0.0000
0.5542 0.9595 0.0000
0.6026 0.7897 0.0000
0.5823 0.8324 0.0000
0.6299 0.7405 0.0000
0.9195 0.5531 0.0000
0.7477 0.6223 0.0000
0.5507 0.9171 0.0000
0.6803 0.6732 0.0000
0.6658 0.6871 0.0000
0.8355 0.5722 0.0000
0.7947 0.5901 0.0000
0.6936 0.6581 0.0000
0.6502 0.6999 0.0000
0.6098 0.7514 0.0000
0.7057 0.6420 0.0000
0.7579 0.6014 0.0000
0.6336 0.7113 0.0000
0.5497 0.8744 0.0000
0.8778 0.5472 0.0000
0.7165 0.6250 0.0000
0.5740 0.7964 0.0000
0.6162 0.7214 0.0000
0.5892 0.7610 0.0000
0.7259 0.6072 0.0000
0.8020 0.5638 0.0000
1.0000 0.5200 0.0000
0.5200 1.0000 0.0000
0.5492 0.8345 0.0000
0.7657 0.5790 0.0000
0.9606 0.5179 0.0000
0.5980 0.7300 0.0000
0.8398 0.5417 0.0000
0.5158 0.9583 0.0000
0.7338 0.5887 0.0000
0.9203 0.5154 0.0000
0.5665 0.7670 0.0000
0.5131 0.9159 0.0000
0.5474 0.8009 0.0000
0.5792 0.7371 0.0000
0.7720 0.5563 0.0000
0.8787 0.5129 0.0000
0.8059 0.5366 0.0000
0.5141 0.8719 0.0000
0.7401 0.5696 0.0000
0.5598 0.7427 0.0000
0.5440 0.7719 0.0000
0.5175 0.8314 0.0000
0.8405 0.5118 0.0000
0.7450 0.5500 0.0000
0.5225 0.8010 0.0000
0.7754 0.5328 0.0000
1.0000 0.4800 0.0000
0.4800 1.0000 0.0000
0.9602 0.4791 0.0000
0.5401 0.7468 0.0000
0.4767 0.9571 0.0000
0.8069 0.5110 0.0000
0.9179 0.4782 0.0000
0.5221 0.7741 0.0000
0.4748 0.9127 0.0000
0.7482 0.5301 0.0000
0.8747 0.4784 0.0000
0.5027 0.7984 0.0000
0.7768 0.5101 0.0000
0.4760 0.8661 0.0000
0.5201 0.7492 0.0000
0.8373 0.4828 0.0000
0.4848 0.8182 0.0000
0.5012 0.7757 0.0000
0.7498 0.5101 0.0000
0.8046 0.4854 0.0000
0.5000 0.7500 0.0000
0.7754 0.4874 0.0000
1.0000 0.4400 0.0000
0.4400 1.0000 0.0000
0.9587 0.4395 0.0000
0.4799 0.7803 0.0000
0.4361 0.9573 0.0000
0.9156 0.4395 0.0000
0.7498 0.4899 0.0000
0.8291 0.4561 0.0000
0.4343 0.9109 0.0000
0.8003 0.4626 0.0000
0.8632 0.4393 0.0000
0.4799 0.7492 0.0000
0.7730 0.4662 0.0000
0.4477 0.8146 0.0000
0.4327 0.8588 0.0000
0.7482 0.4699 0.0000
0.8161 0.4410 0.0000
0.4541 0.7785 0.0000
0.7944 0.4428 0.0000
0.4599 0.7468 0.0000
1.0000 0.4000 0.0000
0.4000 1.0000 0.0000
0.7686 0.4455 0.0000
0.9592 0.3996 0.0000
0.8248 0.4242 0.0000
0.3968 0.9575 0.0000
0.7450 0.4500 0.0000
0.9170 0.3993 0.0000
0.4159 0.8309 0.0000
0.4229 0.8031 0.0000
0.3948 0.9133 0.0000
0.4316 0.7723 0.0000
0.7936 0.4233 0.0000
0.4402 0.7427 0.0000
0.8698 0.3967 0.0000
0.7652 0.4264 0.0000
0.3936 0.8689 0.0000
0.7401 0.4304 0.0000
0.3920 0.8309 0.0000
0.8264 0.3924 0.0000
0.3992 0.7968 0.0000
0.4094 0.7650 0.0000
0.4208 0.7371 0.0000
0.7903 0.3985 0.0000
1.0000 0.3600 0.0000
0.3600 1.0000 0.0000
0.7600 0.4056 0.0000
0.9598 0.3592 0.0000
0.3583 0.9570 0.0000
0.7338 0.4113 0.0000
0.9182 0.3582 0.0000
0.3575 0.9135 0.0000
0.3585 0.8699 0.0000
0.4020 0.7300 0.0000
0.8721 0.3546 0.0000
0.3871 0.7558 0.0000
0.3627 0.8272 0.0000
0.3723 0.7881 0.0000
0.7509 0.3845 0.0000
0.7810 0.3713 0.0000
0.7259 0.3928 0.0000
0.8206 0.3501 0.0000
0.3838 0.7214 0.0000
1.0000 0.3200 0.0000
0.3200 1.0000 0.0000
0.9609 0.3186 0.0000
0.3188 0.9571 0.0000
0.3655 0.7452 0.0000
0.7165 0.3750 0.0000
0.3191 0.9130 0.0000
0.7387 0.3639 0.0000
0.9203 0.3164 0.0000
0.3226 0.8674 0.0000
0.7625 0.3483 0.0000
0.3295 0.8214 0.0000
0.3412 0.7756 0.0000
0.3664 0.7113 0.0000
0.8783 0.3117 0.0000
0.3501 0.7297 0.0000
0.7057 0.3580 0.0000
0.7858 0.3237 0.0000
0.7257 0.3455 0.0000
0.3355 0.7477 0.0000
0.8363 0.3032 0.0000
0.3498 0.6999 0.0000
0.7447 0.3291 0.0000
1.0000 0.2800 0.0000
0.2800 1.0000 0.0000
0.2794 0.9569 0.0000
0.9615 0.2779 0.0000
0.3326 0.7179 0.0000
0.2801 0.9127 0.0000
0.6936 0.3419 0.0000
0.2847 0.8665 0.0000
0.9228 0.2753 0.0000
0.7128 0.3285 0.0000
0.2921 0.8195 0.0000
0.7602 0.3086 0.0000
0.3033 0.7758 0.0000
0.3147 0.7412 0.0000
0.3342 0.6871 0.0000
0.7305 0.3141 0.0000
0.8833 0.2705 0.0000
0.7998 0.2876 0.0000
0.7436 0.3019 0.0000
0.6803 0.3268 0.0000
0.3147 0.7039 0.0000
0.6989 0.3111 0.0000
0.8465 0.2623 0.0000
0.3197 0.6732 0.0000
0.7181 0.2951 0.0000
0.7660 0.2772 0.0000
1.0000 0.2400 0.0000
0.2400 1.0000 0.0000
0.2395 0.9570 0.0000
0.9623 0.2379 0.0000
0.3033 0.6872 0.0000
0.2867 0.7266 0.0000
0.7391 0.2819 0.0000
0.6658 0.3129 0.0000
0.2402 0.9130 0.0000
0.2441 0.8665 0.0000
0.9241 0.2355 0.0000
0.2521 0.8179 0.0000
0.2648 0.7698 0.0000
0.2877 0.7007 0.0000
0.3064 0.6581 0.0000
0.6834 0.2942 0.0000
0.8864 0.2325 0.0000
0.8108 0.2442 0.0000
0.2899 0.6725 0.0000
0.6502 0.3001 0.0000
0.8557 0.2306 0.0000
0.7030 0.2743 0.0000
0.2943 0.6420 0.0000
0.2710 0.6909 0.0000
0.7273 0.2535 0.0000
0.6657 0.2787 0.0000
1.0000 0.2000 0.0000
0.2000 1.0000 0.0000
0.6336 0.2887 0.0000
0.2514 0.7173 0.0000
0.2756 0.6564 0.0000
0.1992 0.9576 0.0000
0.9620 0.1981 0.0000
0.7627 0.2311 0.0000
0.1993 0.9141 0.0000
0.9233 0.1961 0.0000
0.2835 0.6250 0.0000
0.2019 0.8680 0.0000
0.6830 0.2545 0.0000
0.2075 0.8181 0.0000
0.8823 0.1948 0.0000
0.2539 0.6737 0.0000
0.6460 0.2652 0.0000
0.6162 0.2786 0.0000
0.8346 0.1977 0.0000
0.2163 0.7604 0.0000
0.2633 0.6381 0.0000
0.2741 0.6072 0.0000
0.7040 0.2284 0.0000
0.2284 0.6955 0.0000
0.6248 0.2559 0.0000
0.5980 0.2700 0.0000
0.6595 0.2370 0.0000
0.7292 0.2095 0.0000
0.2397 0.6531 0.0000
0.2516 0.6187 0.0000
1.0000 0.1600 0.0000
0.1600 1.0000 0.0000
0.2662 0.5887 0.0000
0.1588 0.9585 0.0000
0.9622 0.1583 0.0000
0.1581 0.9163 0.0000
0.9233 0.1564 0.0000
0.6042 0.2491 0.0000
0.5792 0.2629 0.0000
0.1589 0.8722 0.0000
0.1958 0.7202 0.0000
0.8836 0.1548 0.0000
0.2123 0.6706 0.0000
0.6322 0.2291 0.0000
0.2599 0.5696 0.0000
0.7803 0.1720 0.0000
0.1609 0.8259 0.0000
0.2262 0.6315 0.0000
0.2418 0.5979 0.0000
0.8442 0.1523 0.0000
0.5598 0.2573 0.0000
0.5842 0.2424 0.0000
0.6765 0.1983 0.0000
0.1621 0.7781 0.0000
0.6083 0.2254 0.0000
0.2550 0.5500 0.0000
0.8115 0.1450 0.0000
0.1814 0.6889 0.0000
0.2335 0.5759 0.0000
0.1986 0.6460 0.0000
0.7210 0.1689 0.0000
0.5401 0.2532 0.0000
0.2141 0.6084 0.0000
0.5648 0.2361 0.0000
1.0000 0.1200 0.0000
0.1200 1.0000 0.0000
0.5886 0.2216 0.0000
0.6361 0.1981 0.0000
0.9623 0.1186 0.0000
0.1185 0.9594 0.0000
0.2518 0.5301 0.0000
0.1554 0.7378 0.0000
0.9238 0.1169 0.0000
0.1171 0.9188 0.0000
0.5201 0.2508 0.0000
0.6081 0.2005 0.0000
0.1177 0.8757 0.0000
0.8845 0.1155 0.0000
0.2278 0.5529 0.0000
0.5447 0.2310 0.0000
0.5916 0.2048 0.0000
0.2502 0.5101 0.0000
0.5703 0.2140 0.0000
0.1692 0.6615 0.0000
0.1178 0.8329 0.0000
0.2039 0.5833 0.0000
0.1845 0.6209 0.0000
0.8462 0.1139 0.0000
0.5000 0.2500 0.0000
0.1474 0.7037 0.0000
0.5242 0.2284 0.0000
0.2502 0.4899 0.0000
0.8095 0.1132 0.0000
0.1175 0.7897 0.0000
0.2245 0.5293 0.0000
0.6911 0.1470 0.0000
0.6623 0.1569 0.0000
0.7718 0.1199 0.0000
0.5787 0.1926 0.0000
0.4799 0.2508 0.0000
0.5494 0.2063 0.0000
0.6277 0.1636 0.0000
0.2518 0.4699 0.0000
0.1972 0.5560 0.0000
0.1405 0.6744 0.0000
0.5036 0.2260 0.0000
0.5965 0.1735 0.0000
0.1148 0.7499 0.0000
1.0000 0.0800 0.0000
0.0800 1.0000 0.0000
0.2237 0.5060 0.0000
0.1547 0.6362 0.0000
0.7277 0.1206 0.0000
0.4599 0.2532 0.0000
0.9618 0.0790 0.0000
0.0786 0.9601 0.0000
0.1700 0.5930 0.0000
0.9229 0.0780 0.0000
0.0778 0.9196 0.0000
0.2550 0.4500 0.0000
0.5267 0.2034 0.0000
0.4402 0.2573 0.0000
0.8839 0.0770 0.0000
0.0771 0.8790 0.0000
0.1358 0.6525 0.0000
0.2250 0.4832 0.0000
0.1115 0.7133 0.0000
0.1942 0.5282 0.0000
0.2599 0.4304 0.0000
0.5565 0.1781 0.0000
0.4830 0.2210 0.0000
[...]
         <PointData>
            <DataArray Name="Displacement" NumberOfComponents="3" format="ascii" type="Float64">
-7.40771e-18  4.00000e-01        00000 
 4.07588e-18  4.00000e-01        00000 
-1.34562e-02  3.81328e-01        00000 
-8.26587e-03  3.85637e-01        00000 
-2.05686e-02  3.65307e-01        00000 
-2.03779e-18  4.00000e-01        00000 
-1.56098e-02  3.70188e-01        00000 
-5.51585e-03  3.87267e-01        00000 
-1.12339e-02  3.73925e-01        00000 
-2.66876e-02  3.49745e-01        00000 
-6.94926e-19  4.00000e-01        00000 
-2.13294e-02  3.55468e-01        00000 
-3.72501e-03  3.88223e-01        00000 
-1.62784e-02  3.60977e-01        00000 
-8.27531e-03  3.75831e-01        00000 
-1.24933e-02  3.65145e-01        00000 
-2.66452e-02  3.40707e-01        00000 
-3.24655e-02  3.34123e-01        00000 
       00000  4.00000e-01        00000 
-2.37503e-03  3.88544e-01        00000 
-2.04567e-02  3.48063e-01        00000 
-6.37268e-03  3.75382e-01        00000 
-1.30183e-02  3.58467e-01        00000 
-3.24946e-02  3.24781e-01        00000 
-3.83072e-02  3.18423e-01        00000 
 1.32161e-19  4.00000e-01        00000 
-9.98993e-04  3.89373e-01        00000 
-2.64253e-02  3.31580e-01        00000 
-3.57976e-03  3.77316e-01        00000 
-1.96661e-02  3.39636e-01        00000 
-7.86287e-03  3.62921e-01        00000 
-3.86572e-02  3.08607e-01        00000 
-4.42818e-02  3.02668e-01        00000 
 3.52677e-20  4.00000e-01        00000 
 2.43880e-04  3.90731e-01        00000 
-3.26306e-02  3.15054e-01        00000 
-9.52288e-04  3.80512e-01        00000 
-1.34304e-02  3.46536e-01        00000 
-2.63088e-02  3.21952e-01        00000 
-3.58466e-03  3.68728e-01        00000 
-4.47474e-02  2.92461e-01        00000 
-5.02871e-02  2.86895e-01        00000 
 2.20602e-19  4.00000e-01        00000 
-3.89822e-02  2.98276e-01        00000 
 1.17528e-03  3.92199e-01        00000 
-2.03337e-02  3.29012e-01        00000 
 1.00537e-03  3.84143e-01        00000 
-3.31559e-02  3.04332e-01        00000 
-7.56196e-03  3.54852e-01        00000 
-2.33472e-04  3.75615e-01        00000 
-5.06939e-02  2.76027e-01        00000 
-5.60735e-02  2.71135e-01        00000 
-5.72017e-19  4.00000e-01        00000 
-1.50479e-02  3.37371e-01        00000 
-4.51226e-02  2.81347e-01        00000 
 1.73363e-03  3.93713e-01        00000 
-2.77589e-02  3.10359e-01        00000 
-3.97931e-02  2.87605e-01        00000 
 2.17224e-03  3.87466e-01        00000 
-2.27939e-03  3.67857e-01        00000 
-2.07353e-02  3.24549e-01        00000 
-7.75373e-03  3.53612e-01        00000 
 1.56485e-03  3.81104e-01        00000 
-1.32032e-02  3.41207e-01        00000 
-6.12865e-02  2.55385e-01        00000 
 3.11413e-19  4.00000e-01        00000 
-3.62924e-02  2.90364e-01        00000 
-5.60858e-02  2.58960e-01        00000 
-4.42435e-02  2.74882e-01        00000 
-1.75140e-02  3.31983e-01        00000 
 1.89483e-03  3.95033e-01        00000 
-3.59978e-03  3.64509e-01        00000 
-5.03381e-02  2.63193e-01        00000 
 7.25511e-05  3.75332e-01        00000 
-2.89791e-02  3.04821e-01        00000 
-2.33405e-02  3.18778e-01        00000 
 2.56603e-03  3.90375e-01        00000 
-1.53296e-03  3.71103e-01        00000 
-4.24248e-02  2.74085e-01        00000 
-1.88016e-02  3.30478e-01        00000 
-8.36112e-03  3.55365e-01        00000 
-3.51312e-02  2.88877e-01        00000 
-1.38435e-02  3.43144e-01        00000 
 2.26057e-03  3.85582e-01        00000 
-4.33763e-03  3.65555e-01        00000 
-6.56167e-02  2.39622e-01        00000 
-1.10806e-19  4.00000e-01        00000 
-6.09851e-02  2.41320e-01        00000 
-4.78743e-02  2.58627e-01        00000 
-1.53558e-03  3.73439e-01        00000 
 1.64636e-03  3.96212e-01        00000 
-2.50802e-02  3.16348e-01        00000 
-4.04661e-02  2.73068e-01        00000 
-2.10276e-02  3.28413e-01        00000 
-2.95990e-02  3.02901e-01        00000 
-5.64172e-02  2.42310e-01        00000 
 9.49664e-04  3.80780e-01        00000 
-1.75747e-02  3.39212e-01        00000 
-1.30907e-02  3.50942e-01        00000 
 2.30224e-03  3.92733e-01        00000 
-9.18464e-03  3.59421e-01        00000 
-1.59161e-02  3.46208e-01        00000 
-3.42188e-02  2.88223e-01        00000 
-5.68994e-03  3.67950e-01        00000 
-4.50865e-02  2.56807e-01        00000 
 2.24424e-03  3.89647e-01        00000 
-2.29378e-02  3.28918e-01        00000 
-5.25797e-02  2.40742e-01        00000 
-1.98667e-02  3.39814e-01        00000 
-2.96549e-03  3.75279e-01        00000 
-2.62745e-02  3.16751e-01        00000 
-1.72810e-02  3.48697e-01        00000 
-6.87110e-02  2.23822e-01        00000 
-3.58188e-19  4.00000e-01        00000 
-3.84722e-02  2.72721e-01        00000 
-1.43606e-02  3.56148e-01        00000 
-2.97019e-02  3.03554e-01        00000 
-6.43145e-02  2.24178e-01        00000 
-1.11052e-02  3.63929e-01        00000 
 1.10828e-03  3.96953e-01        00000 
-9.17375e-04  3.81339e-01        00000 
 1.46933e-03  3.87412e-01        00000 
-8.09977e-03  3.71217e-01        00000 
-5.99639e-02  2.24050e-01        00000 
-3.30542e-02  2.89154e-01        00000 
 1.54557e-03  3.94409e-01        00000 
-2.19845e-02  3.43339e-01        00000 
-1.94430e-02  3.53231e-01        00000 
-4.87909e-02  2.39797e-01        00000 
-4.20761e-02  2.56578e-01        00000 
-2.44993e-02  3.32172e-01        00000 
-1.68807e-02  3.61799e-01        00000 
-5.58104e-03  3.77640e-01        00000 
-2.69293e-02  3.19832e-01        00000 
-3.61133e-02  2.73862e-01        00000 
-1.43044e-02  3.69222e-01        00000 
 1.56174e-03  3.92360e-01        00000 
-5.54655e-02  2.23371e-01        00000 
-2.92370e-02  3.06379e-01        00000 
 2.52973e-06  3.86818e-01        00000 
-1.18162e-02  3.75513e-01        00000 
-3.55613e-03  3.82856e-01        00000 
-3.13729e-02  2.91919e-01        00000 
-4.49113e-02  2.40017e-01        00000 
-7.03105e-02  2.07971e-01        00000 
 2.13637e-19  4.00000e-01        00000 
 1.14443e-03  3.90954e-01        00000 
-3.86889e-02  2.57756e-01        00000 
-6.58990e-02  2.07605e-01        00000 
-9.47461e-03  3.80712e-01        00000 
-5.10911e-02  2.23046e-01        00000 
 3.60356e-04  3.97271e-01        00000 
-3.32508e-02  2.76532e-01        00000 
-6.14006e-02  2.07002e-01        00000 
-2.22390e-03  3.87234e-01        00000 
 4.45224e-04  3.95173e-01        00000 
 2.94819e-04  3.90291e-01        00000 
-7.31100e-03  3.84855e-01        00000 
-4.07421e-02  2.41111e-01        00000 
-5.66552e-02  2.06402e-01        00000 
-4.67055e-02  2.23039e-01        00000 
 4.96235e-04  3.93628e-01        00000 
-3.48385e-02  2.60361e-01        00000 
-5.30969e-03  3.88074e-01        00000 
-1.19882e-03  3.90236e-01        00000 
 4.27114e-04  3.92664e-01        00000 
-5.19919e-02  2.06529e-01        00000 
-3.60709e-02  2.43558e-01        00000 
 1.94121e-04  3.92106e-01        00000 
-4.20325e-02  2.24045e-01        00000 
-7.02864e-02  1.92097e-01        00000 
-4.02178e-19  4.00000e-01        00000 
-6.57646e-02  1.91181e-01        00000 
-3.43762e-03  3.90323e-01        00000 
-4.99037e-04  3.97143e-01        00000 
-4.74167e-02  2.06910e-01        00000 
-6.10006e-02  1.90059e-01        00000 
-5.28874e-04  3.91951e-01        00000 
-7.86049e-04  3.94840e-01        00000 
-3.69170e-02  2.26283e-01        00000 
-5.60191e-02  1.89154e-01        00000 
 5.66396e-05  3.92565e-01        00000 
-4.25841e-02  2.07388e-01        00000 
-7.56683e-04  3.93214e-01        00000 
-1.67097e-03  3.91671e-01        00000 
-5.15114e-02  1.90315e-01        00000 
-2.80407e-04  3.92606e-01        00000 
 5.33586e-06  3.92551e-01        00000 
-3.73388e-02  2.08749e-01        00000 
-4.70250e-02  1.90622e-01        00000 
 5.38148e-05  3.92108e-01        00000 
-4.23276e-02  1.90582e-01        00000 
-6.86526e-02  1.76235e-01        00000 
 2.51276e-19  4.00000e-01        00000 
-6.39314e-02  1.74454e-01        00000 
 3.30958e-04  3.92042e-01        00000 
-1.28298e-03  3.96609e-01        00000 
-5.90362e-02  1.72474e-01        00000 
-3.73310e-02  1.91099e-01        00000 
-4.96002e-02  1.74687e-01        00000 
-1.87372e-03  3.93400e-01        00000 
-4.58428e-02  1.75774e-01        00000 
-5.30452e-02  1.68938e-01        00000 
 1.71580e-03  3.91612e-01        00000 
-4.15754e-02  1.74740e-01        00000 
-7.02649e-04  3.90103e-01        00000 
-1.84518e-03  3.90403e-01        00000 
-3.68889e-02  1.73574e-01        00000 
-4.70782e-02  1.64781e-01        00000 
 8.34857e-04  3.90102e-01        00000 
-4.41574e-02  1.62572e-01        00000 
 3.42456e-03  3.90294e-01        00000 
-6.55777e-02  1.60408e-01        00000 
       00000  4.00000e-01        00000 
-4.02458e-02  1.59264e-01        00000 
-6.08456e-02  1.57788e-01        00000 
-4.71460e-02  1.56909e-01        00000 
-1.78351e-03  3.95712e-01        00000 
-3.60385e-02  1.56306e-01        00000 
-5.59747e-02  1.54741e-01        00000 
-1.31168e-03  3.87073e-01        00000 
-2.86273e-04  3.86733e-01        00000 
-2.49440e-03  3.91401e-01        00000 
 1.74983e-03  3.87107e-01        00000 
-4.28994e-02  1.50835e-01        00000 
 5.25812e-03  3.88102e-01        00000 
-5.02537e-02  1.49070e-01        00000 
-3.88782e-02  1.45524e-01        00000 
-2.24426e-03  3.87178e-01        00000 
-3.47961e-02  1.39577e-01        00000 
-1.27213e-03  3.83633e-01        00000 
-4.45341e-02  1.40746e-01        00000 
 3.97963e-04  3.82287e-01        00000 
 3.08644e-03  3.82774e-01        00000 
 7.26269e-03  3.84929e-01        00000 
-4.05053e-02  1.36219e-01        00000 
-6.12739e-02  1.44619e-01        00000 
 1.87004e-19  4.00000e-01        00000 
-3.68717e-02  1.30939e-01        00000 
-5.64779e-02  1.41197e-01        00000 
-1.95642e-03  3.94469e-01        00000 
-3.32159e-02  1.23474e-01        00000 
-5.14861e-02  1.37182e-01        00000 
-2.48794e-03  3.88757e-01        00000 
-1.94262e-03  3.83125e-01        00000 
 9.44504e-03  3.80722e-01        00000 
-4.55884e-02  1.30473e-01        00000 
 4.98945e-03  3.77000e-01        00000 
-5.02118e-04  3.78248e-01        00000 
 1.82098e-03  3.75826e-01        00000 
-3.40303e-02  1.15711e-01        00000 
-3.65014e-02  1.19758e-01        00000 
-3.13504e-02  1.08106e-01        00000 
-3.88356e-02  1.19901e-01        00000 
 1.17381e-02  3.75469e-01        00000 
-5.60613e-02  1.28848e-01        00000 
 2.17222e-19  4.00000e-01        00000 
-5.12246e-02  1.24812e-01        00000 
-1.72195e-03  3.93086e-01        00000 
 7.44188e-03  3.69970e-01        00000 
-2.92303e-02  9.35880e-02        00000 
-1.85770e-03  3.85645e-01        00000 
-3.06404e-02  1.00317e-01        00000 
-4.60787e-02  1.19960e-01        00000 
-8.16428e-04  3.78036e-01        00000 
-3.15357e-02  1.03111e-01        00000 
 1.26123e-03  3.71085e-01        00000 
 4.49543e-03  3.66276e-01        00000 
 1.42036e-02  3.69279e-01        00000 
-4.03284e-02  1.12989e-01        00000 
 1.07280e-02  3.63584e-01        00000 
-2.69137e-02  8.01077e-02        00000 
-3.08656e-02  1.00130e-01        00000 
-2.72352e-02  8.66294e-02        00000 
 8.70554e-03  3.60650e-01        00000 
-3.39745e-02  1.02958e-01        00000 
 1.67617e-02  3.61780e-01        00000 
-2.69812e-02  8.88595e-02        00000 
-5.02841e-02  1.13077e-01        00000 
-2.89605e-19  4.00000e-01        00000 
-1.12115e-03  3.91604e-01        00000 
-4.53669e-02  1.08610e-01        00000 
 1.36264e-02  3.55386e-01        00000 
-6.06041e-04  3.82451e-01        00000 
-2.44727e-02  6.78412e-02        00000 
 1.08425e-03  3.72817e-01        00000 
-4.02973e-02  1.03577e-01        00000 
-2.39119e-02  7.47500e-02        00000 
 3.80329e-03  3.63396e-01        00000 
-2.56965e-02  8.67962e-02        00000 
 7.30369e-03  3.56168e-01        00000 
 1.09050e-02  3.52464e-01        00000 
 1.93606e-02  3.53075e-01        00000 
-2.33855e-02  7.81178e-02        00000 
-3.47613e-02  9.69798e-02        00000 
-2.71572e-02  8.96438e-02        00000 
-2.28910e-02  7.90029e-02        00000 
-2.19367e-02  5.68091e-02        00000 
 1.70031e-02  3.45498e-01        00000 
-2.03169e-02  6.35875e-02        00000 
-2.89944e-02  8.85462e-02        00000 
 2.19584e-02  3.43310e-01        00000 
-1.93317e-02  6.77920e-02        00000 
-2.16071e-02  7.74955e-02        00000 
-4.42760e-02  9.73026e-02        00000 
 1.30045e-19  4.00000e-01        00000 
-1.83618e-04  3.90222e-01        00000 
-3.94324e-02  9.28439e-02        00000 
 2.04595e-02  3.37163e-01        00000 
 1.54209e-02  3.39403e-01        00000 
-1.93574e-02  7.13000e-02        00000 
-1.93511e-02  4.70000e-02        00000 
 1.20403e-03  3.79460e-01        00000 
 3.78942e-03  3.67703e-01        00000 
-3.44370e-02  8.79722e-02        00000 
 7.30171e-03  3.55585e-01        00000 
 1.15736e-02  3.44892e-01        00000 
 1.95688e-02  3.33539e-01        00000 
 2.45160e-02  3.32212e-01        00000 
-1.65995e-02  5.32796e-02        00000 
-2.94177e-02  8.25011e-02        00000 
-2.19809e-02  7.58471e-02        00000 
 2.35974e-02  3.26833e-01        00000 
-1.67737e-02  3.83772e-02        00000 
-2.54227e-02  7.77624e-02        00000 
-1.47332e-02  5.70297e-02        00000 
 2.69744e-02  3.19852e-01        00000 
 2.25122e-02  3.23842e-01        00000 
-1.38940e-02  5.95637e-02        00000 
-1.29585e-02  4.35826e-02        00000 
-3.82958e-02  8.15468e-02        00000 
-1.35224e-20  4.00000e-01        00000 
-1.42608e-02  3.08879e-02        00000 
 2.04665e-02  3.25487e-01        00000 
 2.69368e-02  3.14598e-01        00000 
 1.01531e-03  3.89047e-01        00000 
-3.34597e-02  7.71774e-02        00000 
-1.44979e-02  6.18172e-02        00000 
 3.45963e-03  3.76930e-01        00000 
-2.85415e-02  7.25822e-02        00000 
 2.92921e-02  3.06409e-01        00000 
 7.02060e-03  3.63439e-01        00000 
-1.01343e-02  4.60648e-02        00000 
 1.16973e-02  3.48487e-01        00000 
-2.34552e-02  6.76827e-02        00000 
 2.67587e-02  3.11500e-01        00000 
-9.70574e-03  3.47257e-02        00000 
-1.18592e-02  2.44761e-02        00000 
-1.82412e-02  6.28592e-02        00000 
 1.80543e-02  3.30868e-01        00000 
 3.02684e-02  3.01463e-01        00000 
 3.14059e-02  2.91930e-01        00000 
-8.37193e-03  4.66332e-02        00000 
 2.63920e-02  3.11131e-01        00000 
-7.32279e-03  2.69783e-02        00000 
-9.55999e-03  1.91715e-02        00000 
-6.17608e-03  3.58279e-02        00000 
-8.55026e-03  4.80055e-02        00000 
 3.11341e-02  2.98199e-01        00000 
 3.35051e-02  2.87021e-01        00000 
-3.24547e-02  6.58517e-02        00000 
 2.64213e-19  4.00000e-01        00000 
 3.32821e-02  2.76550e-01        00000 
 2.40556e-03  3.88114e-01        00000 
-2.77237e-02  6.16639e-02        00000 
 5.99968e-03  3.75035e-01        00000 
-2.28992e-02  5.73118e-02        00000 
-5.55333e-03  2.08152e-02        00000 
-7.37576e-03  1.49882e-02        00000 
 1.04597e-02  3.60611e-01        00000 
 2.64846e-02  3.12447e-01        00000 
-1.81493e-02  5.28955e-02        00000 
 3.19469e-02  2.96977e-01        00000 
-3.79398e-03  2.70517e-02        00000 
 3.48636e-02  2.60365e-01        00000 
-9.29152e-03  4.66419e-02        00000 
 1.57298e-02  3.44860e-01        00000 
 3.53769e-02  2.83912e-01        00000 
 3.64331e-02  2.71787e-01        00000 
-1.36444e-02  4.80841e-02        00000 
-5.34992e-03  1.18632e-02        00000 
-3.95022e-03  1.60080e-02        00000 
-3.05866e-03  3.37980e-02        00000 
 2.20304e-02  3.27801e-01        00000 
-2.54856e-03  2.07474e-02        00000 
 3.61033e-02  2.43565e-01        00000 
-9.63098e-03  4.22103e-02        00000 
 3.29953e-02  2.97204e-01        00000 
 3.90099e-02  2.55537e-01        00000 
 3.69821e-02  2.82822e-01        00000 
-3.77268e-03  3.64518e-02        00000 
-3.47969e-03  9.69077e-03        00000 
 3.93267e-02  2.68704e-01        00000 
-2.58226e-03  1.24787e-02        00000 
-2.66785e-02  5.02394e-02        00000 
-2.97760e-20  4.00000e-01        00000 
-1.67460e-03  1.63080e-02        00000 
-1.10259e-03  2.45798e-02        00000 
-2.20383e-02  4.62238e-02        00000 
 3.98028e-03  3.87322e-01        00000 
 3.69522e-02  2.26291e-01        00000 
 2.87613e-02  3.11698e-01        00000 
-1.74627e-02  4.22794e-02        00000 
 8.79423e-03  3.73544e-01        00000 
-1.71520e-03  8.37103e-03        00000 
-4.16237e-04  1.89760e-02        00000 
 1.40777e-02  3.58301e-01        00000 
-1.32105e-02  3.86891e-02        00000 
 4.09410e-02  2.38743e-01        00000 
-1.50918e-03  9.87740e-03        00000 
-4.42665e-04  1.61323e-02        00000 
 3.73781e-02  2.08760e-01        00000 
-7.27671e-04  1.29095e-02        00000 
 3.84523e-02  2.83297e-01        00000 
 1.96574e-02  3.42618e-01        00000 
 4.28160e-02  2.52453e-01        00000 
 4.17966e-02  2.67874e-01        00000 
-9.46414e-03  3.51814e-02        00000 
 1.63745e-05  7.94411e-03        00000 
 3.49216e-02  2.97060e-01        00000 
-7.58809e-04  8.22713e-03        00000 
 3.73652e-02  1.91124e-01        00000 
-6.29840e-03  3.19725e-02        00000 
 2.57159e-02  3.26368e-01        00000 
 4.21565e-02  2.21525e-01        00000 
-5.41139e-04  2.65426e-02        00000 
 3.78773e-04  2.37449e-02        00000 
-3.92427e-03  3.03216e-02        00000 
 4.54567e-04  1.34144e-02        00000 
 1.67722e-03  8.45351e-03        00000 
-1.02291e-04  1.00885e-02        00000 
 1.20620e-03  1.90019e-02        00000 
 3.69257e-02  1.73601e-01        00000 
 4.54815e-02  2.35241e-01        00000 
 4.01180e-02  2.83881e-01        00000 
-1.27845e-04  7.51661e-03        00000 
 1.21443e-03  1.49682e-02        00000 
 3.19213e-02  3.10718e-01        00000 
-2.05490e-02  3.46819e-02        00000 
-8.09800e-19  4.00000e-01        00000 
 4.25559e-02  2.04410e-01        00000 
 4.35764e-02  2.69529e-01        00000 
-1.14594e-03  2.57913e-02        00000 
 3.37604e-03  9.76896e-03        00000 
-1.60086e-02  3.06872e-02        00000 
 5.88028e-03  3.86453e-01        00000 
 4.64154e-02  2.51328e-01        00000 
-1.18023e-02  2.75255e-02        00000 
 1.20781e-02  3.71600e-01        00000 
 3.60689e-02  1.56339e-01        00000 
 2.66273e-05  8.19721e-03        00000 
 5.21425e-03  1.19413e-02        00000 
-8.37638e-03  2.50207e-02        00000 
 1.79450e-02  3.56178e-01        00000 
 4.37175e-02  2.73841e-01        00000 
 4.22339e-02  1.87431e-01        00000 
 3.78591e-02  2.95838e-01        00000 
 4.69701e-02  2.17813e-01        00000 
 3.48239e-02  1.39541e-01        00000 
 9.19859e-04  1.01706e-02        00000 
 2.45106e-04  7.87846e-03        00000 
-2.47678e-05  7.53880e-03        00000 
-5.53632e-03  2.27201e-02        00000 
 9.41493e-04  2.04400e-02        00000 
 2.37260e-02  3.40362e-01        00000 
 7.23927e-03  1.50466e-02        00000 
 3.32205e-02  1.23380e-01        00000 
 4.12603e-02  1.71104e-01        00000 
 9.44141e-03  1.92034e-02        00000 
-3.16056e-03  2.06072e-02        00000 
 2.96554e-02  3.24529e-01        00000 
 4.98805e-02  2.32947e-01        00000 
 1.92268e-03  1.69106e-02        00000 
 3.13291e-02  1.08001e-01        00000 
 4.31505e-02  2.81702e-01        00000 
 4.73253e-02  2.00617e-01        00000 
 7.72012e-04  9.67349e-03        00000 
 1.17977e-02  2.44214e-02        00000 
 3.98626e-02  1.55203e-01        00000 
 2.92067e-02  9.35252e-02        00000 
-1.18876e-03  1.87259e-02        00000 
 4.81072e-04  7.73551e-03        00000 
 1.42541e-02  3.07515e-02        00000 
 2.69112e-02  8.00897e-02        00000 
 2.32052e-03  1.34045e-02        00000 
 1.67947e-02  3.82110e-02        00000 
 4.73342e-02  2.68363e-01        00000 
 3.56277e-02  3.09052e-01        00000 
 5.00535e-02  2.53224e-01        00000 
 2.44946e-02  6.78347e-02        00000 
 1.93828e-02  4.68720e-02        00000 
 2.19647e-02  5.67370e-02        00000 
 1.78234e-03  1.27739e-02        00000 
 3.79727e-02  1.39772e-01        00000 
 4.65633e-02  1.84002e-01        00000 
 1.60991e-18  4.00000e-01        00000 
-1.34540e-02  1.86875e-02        00000 