<?xml version="1.0" encoding="utf-8"?>
<VTKFile byte_order="LittleEndian" type="UnstructuredGrid" version="0.1">
   <UnstructuredGrid>
      <Piece NumberOfCells="641" NumberOfPoints="730">
         <Points>
            <DataArray Name="Points" NumberOfComponents="3" format="ascii" type="Float32">
1.0000 1.0000 0.0000
0.9600 1.0000 0.0000
1.0000 0.9600 0.0000
0.9603 0.9614 0.0000
1.0000 0.9200 0.0000
0.9200 1.0000 0.0000
0.9612 0.9231 0.0000
0.9211 0.9624 0.0000
0.9230 0.9260 0.0000
1.0000 0.8800 0.0000
0.8800 1.0000 0.0000
0.9614 0.8856 0.0000
0.8829 0.9623 0.0000
0.9240 0.8918 0.0000
0.8875 0.9262 0.0000
0.8933 0.8971 0.0000
0.9597 0.8473 0.0000
1.0000 0.8400 0.0000
0.8400 1.0000 0.0000
0.8440 0.9601 0.0000
0.9173 0.8563 0.0000
0.8514 0.9190 0.0000
0.8690 0.8729 0.0000
0.9592 0.8063 0.0000
1.0000 0.8000 0.0000
0.8000 1.0000 0.0000
0.8021 0.9589 0.0000
0.9165 0.8130 0.0000
0.8054 0.9165 0.0000
0.8676 0.8205 0.0000
0.8109 0.8707 0.0000
0.9597 0.7652 0.0000
1.0000 0.7600 0.0000
0.7600 1.0000 0.0000
0.7590 0.9590 0.0000
0.9161 0.7702 0.0000
0.7581 0.9167 0.0000
0.8122 0.8209 0.0000
0.8679 0.7733 0.0000
0.7569 0.8708 0.0000
0.9590 0.7242 0.0000
1.0000 0.7200 0.0000
0.7200 1.0000 0.0000
0.9153 0.7275 0.0000
0.7165 0.9591 0.0000
0.8165 0.7719 0.0000
0.7126 0.9181 0.0000
0.8686 0.7282 0.0000
0.7510 0.8174 0.0000
0.7082 0.8753 0.0000
0.9580 0.6829 0.0000
1.0000 0.6800 0.0000
0.6800 1.0000 0.0000
0.7693 0.7706 0.0000
0.9140 0.6851 0.0000
0.6742 0.9594 0.0000
0.8161 0.7213 0.0000
0.8740 0.6885 0.0000
0.6685 0.9181 0.0000
0.7012 0.8339 0.0000
0.7734 0.7344 0.0000
0.7152 0.7855 0.0000
0.6650 0.8760 0.0000
0.7356 0.7577 0.0000
1.0000 0.6400 0.0000
0.6400 1.0000 0.0000
0.8350 0.6800 0.0000
0.9558 0.6404 0.0000
0.8757 0.6585 0.0000
0.7480 0.7370 0.0000
0.6333 0.9593 0.0000
0.6862 0.8039 0.0000
0.9052 0.6395 0.0000
0.6619 0.8374 0.0000
0.7838 0.6876 0.0000
0.7581 0.7055 0.0000
0.6270 0.9175 0.0000
0.6640 0.8136 0.0000
0.8474 0.6471 0.0000
0.7341 0.7184 0.0000
0.6889 0.7621 0.0000
0.8018 0.6601 0.0000
0.7087 0.7349 0.0000
0.6240 0.8728 0.0000
0.6655 0.7821 0.0000
1.0000 0.6000 0.0000
0.6000 1.0000 0.0000
0.9579 0.5979 0.0000
0.8635 0.6181 0.0000
0.6438 0.7994 0.0000
0.5930 0.9599 0.0000
0.7406 0.6813 0.0000
0.8153 0.6317 0.0000
0.7215 0.6960 0.0000
0.7582 0.6627 0.0000
0.9144 0.5934 0.0000
0.6224 0.8262 0.0000
0.7025 0.7080 0.0000
0.6817 0.7264 0.0000
0.5880 0.9170 0.0000
0.6661 0.7445 0.0000
0.6874 0.7117 0.0000
0.7729 0.6402 0.0000
0.6462 0.7610 0.0000
0.8270 0.6029 0.0000
0.5855 0.8736 0.0000
0.7078 0.6759 0.0000
0.8731 0.5824 0.0000
0.6922 0.6895 0.0000
0.6247 0.7752 0.0000
0.7227 0.6602 0.0000
0.6777 0.7007 0.0000
1.0000 0.5600 0.0000
0.5600 1.0000 0.0000
0.7852 0.6159 0.0000
0.6645 0.7138 0.0000
0.7363 0.6426 0.0000
0.9599 0.5572 0.0000
0.6483 0.7278 0.0000
0.5542 0.9595 0.0000
0.6026 0.7897 0.0000
0.5823 0.8324 0.0000
0.6299 0.7405 0.0000
0.9195 0.5531 0.0000
0.7477 0.6223 0.0000
0.5507 0.9171 0.0000
0.6803 0.6732 0.0000
0.6658 0.6871 0.0000
0.8355 0.5722 0.0000
0.7947 0.5901 0.0000
0.6936 0.6581 0.0000
0.6502 0.6999 0.0000
0.6098 0.7514 0.0000
0.7057 0.6420 0.0000
0.7579 0.6014 0.0000
0.6336 0.7113 0.0000
0.5497 0.8744 0.0000
0.8778 0.5472 0.0000
0.7165 0.6250 0.0000
0.5740 0.7964 0.0000
0.6162 0.7214 0.0000
0.5892 0.7610 0.0000
0.7259 0.6072 0.0000
0.8020 0.5638 0.0000
1.0000 0.5200 0.0000
0.5200 1.0000 0.0000
0.5492 0.8345 0.0000
0.7657 0.5790 0.0000
0.9606 0.5179 0.0000
0.5980 0.7300 0.0000
0.8398 0.5417 0.0000
0.5158 0.9583 0.0000
0.7338 0.5887 0.0000
0.9203 0.5154 0.0000
0.5665 0.7670 0.0000
0.5131 0.9159 0.0000
0.5474 0.8009 0.0000
0.5792 0.7371 0.0000
0.7720 0.5563 0.0000
0.8787 0.5129 0.0000
0.8059 0.5366 0.0000
0.5141 0.8719 0.0000
0.7401 0.5696 0.0000
0.5598 0.7427 0.0000
0.5440 0.7719 0.0000
0.5175 0.8314 0.0000
0.8405 0.5118 0.0000
0.7450 0.5500 0.0000
0.5225 0.8010 0.0000
0.7754 0.5328 0.0000
1.0000 0.4800 0.0000
0.4800 1.0000 0.0000
0.9602 0.4791 0.0000
0.5401 0.7468 0.0000
0.4767 0.9571 0.0000
0.8069 0.5110 0.0000
0.9179 0.4782 0.0000
0.5221 0.7741 0.0000
0.4748 0.9127 0.0000
0.7482 0.5301 0.0000
0.8747 0.4784 0.0000
0.5027 0.7984 0.0000
0.7768 0.5101 0.0000
0.4760 0.8661 0.0000
0.5201 0.7492 0.0000
0.8373 0.4828 0.0000
0.4848 0.8182 0.0000
0.5012 0.7757 0.0000
0.7498 0.5101 0.0000
0.8046 0.4854 0.0000
0.5000 0.7500 0.0000
0.7754 0.4874 0.0000
1.0000 0.4400 0.0000
0.4400 1.0000 0.0000
0.9587 0.4395 0.0000
0.4799 0.7803 0.0000
0.4361 0.9573 0.0000
0.9156 0.4395 0.0000
0.7498 0.4899 0.0000
0.8291 0.4561 0.0000
0.4343 0.9109 0.0000
0.8003 0.4626 0.0000
0.8632 0.4393 0.0000
0.4799 0.7492 0.0000
0.7730 0.4662 0.0000
0.4477 0.8146 0.0000
0.4327 0.8588 0.0000
0.7482 0.4699 0.0000
0.8161 0.4410 0.0000
0.4541 0.7785 0.0000
0.7944 0.4428 0.0000
0.4599 0.7468 0.0000
1.0000 0.4000 0.0000
0.4000 1.0000 0.0000
0.7686 0.4455 0.0000
0.9592 0.3996 0.0000
0.8248 0.4242 0.0000
0.3968 0.9575 0.0000
0.7450 0.4500 0.0000
0.9170 0.3993 0.0000
0.4159 0.8309 0.0000
0.4229 0.8031 0.0000
0.3948 0.9133 0.0000
0.4316 0.7723 0.0000
0.7936 0.4233 0.0000
0.4402 0.7427 0.0000
0.8698 0.3967 0.0000
0.7652 0.4264 0.0000
0.3936 0.8689 0.0000
0.7401 0.4304 0.0000
0.3920 0.8309 0.0000
0.8264 0.3924 0.0000
0.3992 0.7968 0.0000
0.4094 0.7650 0.0000
0.4208 0.7371 0.0000
0.7903 0.3985 0.0000
1.0000 0.3600 0.0000
0.3600 1.0000 0.0000
0.7600 0.4056 0.0000
0.9598 0.3592 0.0000
0.3583 0.9570 0.0000
0.7338 0.4113 0.0000
0.9182 0.3582 0.0000
0.3575 0.9135 0.0000
0.3585 0.8699 0.0000
0.4020 0.7300 0.0000
0.8721 0.3546 0.0000
0.3871 0.7558 0.0000
0.3627 0.8272 0.0000
0.3723 0.7881 0.0000
0.7509 0.3845 0.0000
0.7810 0.3713 0.0000
0.7259 0.3928 0.0000
0.8206 0.3501 0.0000
0.3838 0.7214 0.0000
1.0000 0.3200 0.0000
0.3200 1.0000 0.0000
0.9609 0.3186 0.0000
0.3188 0.9571 0.0000
0.3655 0.7452 0.0000
0.7165 0.3750 0.0000
0.3191 0.9130 0.0000
0.7387 0.3639 0.0000
0.9203 0.3164 0.0000
0.3226 0.8674 0.0000
0.7625 0.3483 0.0000
0.3295 0.8214 0.0000
0.3412 0.7756 0.0000
0.3664 0.7113 0.0000
0.8783 0.3117 0.0000
0.3501 0.7297 0.0000
0.7057 0.3580 0.0000
0.7858 0.3237 0.0000
0.7257 0.3455 0.0000
0.3355 0.7477 0.0000
0.8363 0.3032 0.0000
0.3498 0.6999 0.0000
0.7447 0.3291 0.0000
1.0000 0.2800 0.0000
0.2800 1.0000 0.0000
0.2794 0.9569 0.0000
0.9615 0.2779 0.0000
0.3326 0.7179 0.0000
0.2801 0.9127 0.0000
0.6936 0.3419 0.0000
0.2847 0.8665 0.0000
0.9228 0.2753 0.0000
0.7128 0.3285 0.0000
0.2921 0.8195 0.0000
0.7602 0.3086 0.0000
0.3033 0.7758 0.0000
0.3147 0.7412 0.0000
0.3342 0.6871 0.0000
0.7305 0.3141 0.0000
0.8833 0.2705 0.0000
0.7998 0.2876 0.0000
0.7436 0.3019 0.0000
0.6803 0.3268 0.0000
0.3147 0.7039 0.0000
0.6989 0.3111 0.0000
0.8465 0.2623 0.0000
0.3197 0.6732 0.0000
0.7181 0.2951 0.0000
0.7660 0.2772 0.0000
1.0000 0.2400 0.0000
0.2400 1.0000 0.0000
0.2395 0.9570 0.0000
0.9623 0.2379 0.0000
0.3033 0.6872 0.0000
0.2867 0.7266 0.0000
0.7391 0.2819 0.0000
0.6658 0.3129 0.0000
0.2402 0.9130 0.0000
0.2441 0.8665 0.0000
0.9241 0.2355 0.0000
0.2521 0.8179 0.0000
0.2648 0.7698 0.0000
0.2877 0.7007 0.0000
0.3064 0.6581 0.0000
0.6834 0.2942 0.0000
0.8864 0.2325 0.0000
0.8108 0.2442 0.0000
0.2899 0.6725 0.0000
0.6502 0.3001 0.0000
0.8557 0.2306 0.0000
0.7030 0.2743 0.0000
0.2943 0.6420 0.0000
0.2710 0.6909 0.0000
0.7273 0.2535 0.0000
0.6657 0.2787 0.0000
1.0000 0.2000 0.0000
0.2000 1.0000 0.0000
0.6336 0.2887 0.0000
0.2514 0.7173 0.0000
0.2756 0.6564 0.0000
0.1992 0.9576 0.0000
0.9620 0.1981 0.0000
0.7627 0.2311 0.0000
0.1993 0.9141 0.0000
0.9233 0.1961 0.0000
0.2835 0.6250 0.0000
0.2019 0.8680 0.0000
0.6830 0.2545 0.0000
0.2075 0.8181 0.0000
0.8823 0.1948 0.0000
0.2539 0.6737 0.0000
0.6460 0.2652 0.0000
0.6162 0.2786 0.0000
0.8346 0.1977 0.0000
0.2163 0.7604 0.0000
0.2633 0.6381 0.0000
0.2741 0.6072 0.0000
0.7040 0.2284 0.0000
0.2284 0.6955 0.0000
0.6248 0.2559 0.0000
0.5980 0.2700 0.0000
0.6595 0.2370 0.0000
0.7292 0.2095 0.0000
0.2397 0.6531 0.0000
0.2516 0.6187 0.0000
1.0000 0.1600 0.0000
0.1600 1.0000 0.0000
0.2662 0.5887 0.0000
0.1588 0.9585 0.0000
0.9622 0.1583 0.0000
0.1581 0.9163 0.0000
0.9233 0.1564 0.0000
0.6042 0.2491 0.0000
0.5792 0.2629 0.0000
0.1589 0.8722 0.0000
0.1958 0.7202 0.0000
0.8836 0.1548 0.0000
0.2123 0.6706 0.0000
0.6322 0.2291 0.0000
0.2599 0.5696 0.0000
0.7803 0.1720 0.0000
0.1609 0.8259 0.0000
0.2262 0.6315 0.0000
0.2418 0.5979 0.0000
0.8442 0.1523 0.0000
0.5598 0.2573 0.0000
0.5842 0.2424 0.0000
0.6765 0.1983 0.0000
0.1621 0.7781 0.0000
0.6083 0.2254 0.0000
0.2550 0.5500 0.0000
0.8115 0.1450 0.0000
0.1814 0.6889 0.0000
0.2335 0.5759 0.0000
0.1986 0.6460 0.0000
0.7210 0.1689 0.0000
0.5401 0.2532 0.0000
0.2141 0.6084 0.0000
0.5648 0.2361 0.0000
1.0000 0.1200 0.0000
0.1200 1.0000 0.0000
0.5886 0.2216 0.0000
0.6361 0.1981 0.0000
0.9623 0.1186 0.0000
0.1185 0.9594 0.0000
0.2518 0.5301 0.0000
0.1554 0.7378 0.0000
0.9238 0.1169 0.0000
0.1171 0.9188 0.0000
0.5201 0.2508 0.0000
0.6081 0.2005 0.0000
0.1177 0.8757 0.0000
0.8845 0.1155 0.0000
0.2278 0.5529 0.0000
0.5447 0.2310 0.0000
0.5916 0.2048 0.0000
0.2502 0.5101 0.0000
0.5703 0.2140 0.0000
0.1692 0.6615 0.0000
0.1178 0.8329 0.0000
0.2039 0.5833 0.0000
0.1845 0.6209 0.0000
0.8462 0.1139 0.0000
0.5000 0.2500 0.0000
0.1474 0.7037 0.0000
0.5242 0.2284 0.0000
0.2502 0.4899 0.0000
0.8095 0.1132 0.0000
0.1175 0.7897 0.0000
0.2245 0.5293 0.0000
0.6911 0.1470 0.0000
0.6623 0.1569 0.0000
0.7718 0.1199 0.0000
0.5787 0.1926 0.0000
0.4799 0.2508 0.0000
0.5494 0.2063 0.0000
0.6277 0.1636 0.0000
0.2518 0.4699 0.0000
0.1972 0.5560 0.0000
0.1405 0.6744 0.0000
0.5036 0.2260 0.0000
0.5965 0.1735 0.0000
0.1148 0.7499 0.0000
1.0000 0.0800 0.0000
0.0800 1.0000 0.0000
0.2237 0.5060 0.0000
0.1547 0.6362 0.0000
0.7277 0.1206 0.0000
0.4599 0.2532 0.0000
0.9618 0.0790 0.0000
0.0786 0.9601 0.0000
0.1700 0.5930 0.0000
0.9229 0.0780 0.0000
0.0778 0.9196 0.0000
0.2550 0.4500 0.0000
0.5267 0.2034 0.0000
0.4402 0.2573 0.0000
0.8839 0.0770 0.0000
0.0771 0.8790 0.0000
0.1358 0.6525 0.0000
0.2250 0.4832 0.0000
0.1115 0.7133 0.0000
0.1942 0.5282 0.0000
0.2599 0.4304 0.0000
0.5565 0.1781 0.0000
0.4830 0.2210 0.0000
[...]
         <PointData>
            <DataArray Name="Displacement" NumberOfComponents="3" format="ascii" type="Float64">
-1.07284e-17  7.00000e-01        00000 
 4.07588e-18  7.00000e-01        00000 
-2.12567e-02  6.71023e-01        00000 
-1.34705e-02  6.76619e-01        00000 
-3.22754e-02  6.45219e-01        00000 
-3.38034e-18  7.00000e-01        00000 
-2.48208e-02  6.51691e-01        00000 
-9.23276e-03  6.78869e-01        00000 
-1.82259e-02  6.56902e-01        00000 
-4.14497e-02  6.19846e-01        00000 
 1.85314e-19  7.00000e-01        00000 
-3.34036e-02  6.27674e-01        00000 
-6.45027e-03  6.80175e-01        00000 
-2.58232e-02  6.35613e-01        00000 
-1.37040e-02  6.59537e-01        00000 
-2.00878e-02  6.41860e-01        00000 
-4.10766e-02  6.03231e-01        00000 
-4.97929e-02  5.94116e-01        00000 
-1.54702e-18  7.00000e-01        00000 
-4.37485e-03  6.80496e-01        00000 
-3.18250e-02  6.14017e-01        00000 
-1.07924e-02  6.58362e-01        00000 
-2.07623e-02  6.30251e-01        00000 
-4.92093e-02  5.76558e-01        00000 
-5.79301e-02  5.67922e-01        00000 
 8.81073e-20  7.00000e-01        00000 
-2.23582e-03  6.81692e-01        00000 
-4.01256e-02  5.86385e-01        00000 
-6.47288e-03  6.61140e-01        00000 
-3.00416e-02  5.98619e-01        00000 
-1.28464e-02  6.36800e-01        00000 
-5.74731e-02  5.49079e-01        00000 
-6.59729e-02  5.41189e-01        00000 
-2.35118e-19  7.00000e-01        00000 
-2.71152e-04  6.83809e-01        00000 
-4.83868e-02  5.58304e-01        00000 
-2.36333e-03  6.66094e-01        00000 
-2.06100e-02  6.09093e-01        00000 
-3.88721e-02  5.68649e-01        00000 
-6.24062e-03  6.45782e-01        00000 
-6.53108e-02  5.21053e-01        00000 
-7.38000e-02  5.13815e-01        00000 
 1.32361e-19  7.00000e-01        00000 
-5.64815e-02  5.29307e-01        00000 
 1.23553e-03  6.86129e-01        00000 
-2.98293e-02  5.79439e-01        00000 
 7.65216e-04  6.71839e-01        00000 
-4.75449e-02  5.38352e-01        00000 
-1.16546e-02  6.21855e-01        00000 
-1.01244e-03  6.56734e-01        00000 
-7.26701e-02  4.91878e-01        00000 
-8.11199e-02  4.85714e-01        00000 
 9.53362e-19  7.00000e-01        00000 
-2.18556e-02  5.92479e-01        00000 
-6.39576e-02  4.99478e-01        00000 
 2.19354e-03  6.88550e-01        00000 
-3.90437e-02  5.47425e-01        00000 
-5.57637e-02  5.09258e-01        00000 
 2.71986e-03  6.77100e-01        00000 
-3.71046e-03  6.42897e-01        00000 
-2.90443e-02  5.70604e-01        00000 
-1.12325e-02  6.18603e-01        00000 
 1.93556e-03  6.65431e-01        00000 
-1.86704e-02  5.97966e-01        00000 
-8.75296e-02  4.56811e-01        00000 
-4.44876e-20  7.00000e-01        00000 
-4.97962e-02  5.12982e-01        00000 
-7.90343e-02  4.60796e-01        00000 
-6.09833e-02  4.86684e-01        00000 
-2.43186e-02  5.82505e-01        00000 
 2.55277e-03  6.90661e-01        00000 
-5.23440e-03  6.36485e-01        00000 
-6.96025e-02  4.66596e-01        00000 
 2.50910e-05  6.54849e-01        00000 
-3.89858e-02  5.36582e-01        00000 
-3.15029e-02  5.59961e-01        00000 
 3.50629e-03  6.81729e-01        00000 
-2.12317e-03  6.47286e-01        00000 
-5.73358e-02  4.84422e-01        00000 
-2.53643e-02  5.79254e-01        00000 
-1.14957e-02  6.20534e-01        00000 
-4.66675e-02  5.09130e-01        00000 
-1.87642e-02  6.00135e-01        00000 
 3.23868e-03  6.72485e-01        00000 
-5.84270e-03  6.37378e-01        00000 
-9.27250e-02  4.27116e-01        00000 
 4.82157e-19  7.00000e-01        00000 
-8.48457e-02  4.28243e-01        00000 
-6.42769e-02  4.57059e-01        00000 
-1.79321e-03  6.50536e-01        00000 
 2.28990e-03  6.92582e-01        00000 
-3.25019e-02  5.54494e-01        00000 
-5.31422e-02  4.81430e-01        00000 
-2.73191e-02  5.74695e-01        00000 
-3.81530e-02  5.31653e-01        00000 
-7.69661e-02  4.28687e-01        00000 
 1.72818e-03  6.63190e-01        00000 
-2.28368e-02  5.92600e-01        00000 
-1.71264e-02  6.12186e-01        00000 
 3.27002e-03  6.85517e-01        00000 
-1.20724e-02  6.26400e-01        00000 
-2.04886e-02  6.03944e-01        00000 
-4.37439e-02  5.06297e-01        00000 
-7.28711e-03  6.40572e-01        00000 
-5.87311e-02  4.52602e-01        00000 
 3.38564e-03  6.79102e-01        00000 
-2.85290e-02  5.73895e-01        00000 
-6.99805e-02  4.24776e-01        00000 
-2.48049e-02  5.92321e-01        00000 
-3.40066e-03  6.52805e-01        00000 
-3.25360e-02  5.53186e-01        00000 
-2.16566e-02  6.07309e-01        00000 
-9.63680e-02  3.96672e-01        00000 
-1.56707e-19  7.00000e-01        00000 
-4.88053e-02  4.79218e-01        00000 
-1.81685e-02  6.20035e-01        00000 
-3.66028e-02  5.30547e-01        00000 
-8.87446e-02  3.96031e-01        00000 
-1.41129e-02  6.33194e-01        00000 
 1.56787e-03  6.93770e-01        00000 
-4.48611e-04  6.63115e-01        00000 
 2.61765e-03  6.74256e-01        00000 
-1.01896e-02  6.45445e-01        00000 
-8.11985e-02  3.94937e-01        00000 
-4.04805e-02  5.05597e-01        00000 
 2.24058e-03  6.88248e-01        00000 
-2.62546e-02  5.96376e-01        00000 
-2.34658e-02  6.13594e-01        00000 
-6.31351e-02  4.22101e-01        00000 
-5.30275e-02  4.50755e-01        00000 
-2.90282e-02  5.76987e-01        00000 
-2.06334e-02  6.28534e-01        00000 
-6.76362e-03  6.56288e-01        00000 
-3.17217e-02  5.55605e-01        00000 
-4.40425e-02  4.79060e-01        00000 
-1.77165e-02  6.41474e-01        00000 
 2.41588e-03  6.83594e-01        00000 
-7.33519e-02  3.93018e-01        00000 
-3.42998e-02  5.32344e-01        00000 
 8.80867e-04  6.72469e-01        00000 
-1.48320e-02  6.52462e-01        00000 
-3.94947e-03  6.65225e-01        00000 
-3.67003e-02  5.07407e-01        00000 
-5.63410e-02  4.21387e-01        00000 
-9.82294e-02  3.65664e-01        00000 
       00000  7.00000e-01        00000 
 2.06918e-03  6.80259e-01        00000 
-4.69923e-02  4.50973e-01        00000 
-9.05691e-02  3.64514e-01        00000 
-1.20388e-02  6.61581e-01        00000 
-6.57804e-02  3.91824e-01        00000 
 5.12985e-04  6.94249e-01        00000 
-3.88228e-02  4.80947e-01        00000 
-8.28139e-02  3.63104e-01        00000 
-2.14762e-03  6.72872e-01        00000 
 6.48412e-04  6.89457e-01        00000 
 1.12075e-03  6.78545e-01        00000 
-9.37847e-03  6.68900e-01        00000 
-4.93685e-02  4.21923e-01        00000 
-7.46546e-02  3.61800e-01        00000 
-5.83645e-02  3.91130e-01        00000 
 7.77080e-04  6.85643e-01        00000 
-4.06277e-02  4.53203e-01        00000 
-6.85634e-03  6.74636e-01        00000 
-9.06312e-04  6.78259e-01        00000 
 7.96498e-04  6.83133e-01        00000 
-6.67184e-02  3.61859e-01        00000 
-4.20358e-02  4.24432e-01        00000 
 6.61530e-04  6.81754e-01        00000 
-5.08121e-02  3.92067e-01        00000 
-9.82015e-02  3.34456e-01        00000 
-2.17394e-19  7.00000e-01        00000 
-9.03892e-02  3.33174e-01        00000 
-4.45140e-03  6.78701e-01        00000 
-7.11512e-04  6.93997e-01        00000 
-5.91146e-02  3.62345e-01        00000 
-8.22094e-02  3.31421e-01        00000 
-3.05621e-04  6.81414e-01        00000 
-1.15770e-03  6.88808e-01        00000 
-4.30059e-02  3.94895e-01        00000 
-7.36714e-02  3.30059e-01        00000 
 1.32575e-04  6.82575e-01        00000 
-5.14077e-02  3.62930e-01        00000 
-1.22368e-03  6.84795e-01        00000 
-2.16185e-03  6.81166e-01        00000 
-6.59660e-02  3.32467e-01        00000 
-6.13588e-04  6.82800e-01        00000 
 3.48020e-05  6.82528e-01        00000 
-4.34896e-02  3.64943e-01        00000 
-5.85121e-02  3.33303e-01        00000 
 8.99783e-05  6.81964e-01        00000 
-5.10245e-02  3.33558e-01        00000 
-9.62992e-02  3.03447e-01        00000 
 4.79312e-19  7.00000e-01        00000 
-8.82380e-02  3.01418e-01        00000 
 8.65693e-05  6.81571e-01        00000 
-1.80889e-03  6.93136e-01        00000 
-7.99209e-02  2.98674e-01        00000 
-4.34787e-02  3.34807e-01        00000 
-6.33600e-02  3.04317e-01        00000 
-2.71061e-03  6.86393e-01        00000 
-5.69836e-02  3.06913e-01        00000 
-6.97165e-02  2.93121e-01        00000 
 2.22696e-03  6.81044e-01        00000 
-5.01186e-02  3.05908e-01        00000 
-1.63173e-03  6.78437e-01        00000 
-2.94497e-03  6.79899e-01        00000 
-4.29690e-02  3.04881e-01        00000 
-5.97183e-02  2.86776e-01        00000 
 3.74629e-04  6.78030e-01        00000 
-5.48521e-02  2.83569e-01        00000 
 4.41216e-03  6.78634e-01        00000 
-9.26747e-02  2.72950e-01        00000 
-8.73575e-20  7.00000e-01        00000 
-4.85312e-02  2.78953e-01        00000 
-8.47561e-02  2.70051e-01        00000 
-6.05856e-02  2.72261e-01        00000 
-2.46428e-03  6.91697e-01        00000 
-4.19943e-02  2.75378e-01        00000 
-7.66418e-02  2.65819e-01        00000 
-2.40100e-03  6.73685e-01        00000 
-1.22207e-03  6.72469e-01        00000 
-3.50864e-03  6.83234e-01        00000 
 1.46564e-03  6.72680e-01        00000 
-5.36539e-02  2.62614e-01        00000 
 6.75451e-03  6.74681e-01        00000 
-6.72787e-02  2.56707e-01        00000 
-4.70598e-02  2.54917e-01        00000 
-3.35187e-03  6.74926e-01        00000 
-4.05776e-02  2.46744e-01        00000 
-2.25350e-03  6.67992e-01        00000 
-5.81256e-02  2.42987e-01        00000 
-2.35507e-04  6.64872e-01        00000 
 3.29551e-03  6.65130e-01        00000 
 9.29028e-03  6.69028e-01        00000 
-5.11638e-02  2.36551e-01        00000 
-8.75091e-02  2.43188e-01        00000 
-9.35022e-19  7.00000e-01        00000 
-4.48754e-02  2.29377e-01        00000 
-7.96978e-02  2.39291e-01        00000 
-2.61163e-03  6.89681e-01        00000 
-3.87804e-02  2.19105e-01        00000 
-7.16263e-02  2.33679e-01        00000 
-3.32634e-03  6.78997e-01        00000 
-2.69187e-03  6.68430e-01        00000 
 1.19922e-02  6.61617e-01        00000 
-6.23190e-02  2.23013e-01        00000 
 5.98239e-03  6.55283e-01        00000 
-9.57224e-04  6.59140e-01        00000 
 1.92146e-03  6.54040e-01        00000 
-4.16009e-02  2.02881e-01        00000 
-4.65782e-02  2.07517e-01        00000 
-3.66674e-02  1.92665e-01        00000 
-5.18140e-02  2.05702e-01        00000 
 1.47405e-02  6.52420e-01        00000 
-8.11040e-02  2.14247e-01        00000 
 1.08611e-18  7.00000e-01        00000 
-7.34435e-02  2.09483e-01        00000 
-2.14078e-03  6.87471e-01        00000 
 9.38781e-03  6.43489e-01        00000 
-3.42829e-02  1.67629e-01        00000 
-2.18622e-03  6.74023e-01        00000 
-3.76138e-02  1.76285e-01        00000 
-6.53773e-02  2.02632e-01        00000 
-7.85451e-04  6.60246e-01        00000 
-4.03666e-02  1.78872e-01        00000 
 1.85457e-03  6.47509e-01        00000 
 5.92722e-03  6.38290e-01        00000 
 1.76026e-02  6.41585e-01        00000 
-5.65933e-02  1.91663e-01        00000 
 1.36944e-02  6.32703e-01        00000 
-3.16968e-02  1.44326e-01        00000 
-4.11437e-02  1.72108e-01        00000 
-3.35983e-02  1.52749e-01        00000 
 1.14501e-02  6.28498e-01        00000 
-4.72289e-02  1.75239e-01        00000 
 2.04766e-02  6.28502e-01        00000 
-3.46625e-02  1.54615e-01        00000 
-7.38046e-02  1.86126e-01        00000 
-5.44457e-19  7.00000e-01        00000 
-1.12339e-03  6.85107e-01        00000 
-6.61894e-02  1.80684e-01        00000 
 1.74041e-02  6.18989e-01        00000 
-1.22149e-04  6.68968e-01        00000 
-2.89986e-02  1.23057e-01        00000 
 2.28185e-03  6.51990e-01        00000 
-5.84014e-02  1.73627e-01        00000 
-2.97229e-02  1.32323e-01        00000 
 5.86972e-03  6.35310e-01        00000 
-3.41975e-02  1.49808e-01        00000 
 1.02781e-02  6.22268e-01        00000 
 1.45985e-02  6.15184e-01        00000 
 2.33696e-02  6.13337e-01        00000 
-3.02062e-02  1.36405e-01        00000 
-5.00646e-02  1.63487e-01        00000 
-3.76793e-02  1.53102e-01        00000 
-3.03244e-02  1.37003e-01        00000 
-2.62111e-02  1.03879e-01        00000 
 2.15890e-02  6.02365e-01        00000 
-2.55359e-02  1.13146e-01        00000 
-4.16211e-02  1.49930e-01        00000 
 2.62297e-02  5.96303e-01        00000 
-2.53421e-02  1.18750e-01        00000 
-2.98442e-02  1.33199e-01        00000 
-6.59742e-02  1.58741e-01        00000 
-3.90134e-19  7.00000e-01        00000 
 3.86073e-04  6.82930e-01        00000 
-5.85707e-02  1.53264e-01        00000 
 2.55886e-02  5.87927e-01        00000 
 2.07746e-02  5.93829e-01        00000 
-2.62005e-02  1.23609e-01        00000 
-2.33639e-02  8.67930e-02        00000 
 2.75841e-03  6.64295e-01        00000 
 6.52787e-03  6.43996e-01        00000 
-5.09673e-02  1.46569e-01        00000 
 1.12513e-02  6.23015e-01        00000 
 1.65996e-02  6.04259e-01        00000 
 2.53624e-02  5.83104e-01        00000 
 2.90408e-02  5.77020e-01        00000 
-2.11011e-02  9.55716e-02        00000 
-4.33951e-02  1.38444e-01        00000 
-3.17492e-02  1.29022e-01        00000 
 2.92832e-02  5.70270e-01        00000 
-2.04998e-02  7.17586e-02        00000 
-3.73679e-02  1.31200e-01        00000 
-1.96186e-02  1.00565e-01        00000 
 3.17639e-02  5.55602e-01        00000 
 2.92427e-02  5.67065e-01        00000 
-1.93096e-02  1.03710e-01        00000 
-1.65879e-02  7.92241e-02        00000 
-5.79227e-02  1.32009e-01        00000 
 4.39220e-19  7.00000e-01        00000 
-1.76571e-02  5.86910e-02        00000 
 2.78172e-02  5.71201e-01        00000 
 3.32501e-02  5.49370e-01        00000 
 2.27367e-03  6.81123e-01        00000 
-5.05846e-02  1.26607e-01        00000 
-2.10199e-02  1.06306e-01        00000 
 6.28432e-03  6.60428e-01        00000 
-4.31295e-02  1.20403e-01        00000 
 3.43461e-02  5.32361e-01        00000 
 1.15341e-02  6.37463e-01        00000 
-1.35939e-02  8.23298e-02        00000 
 1.79461e-02  6.11987e-01        00000 
-3.54337e-02  1.13383e-01        00000 
 3.45362e-02  5.46187e-01        00000 
-1.23791e-02  6.44069e-02        00000 
-1.48787e-02  4.74950e-02        00000 
-2.74992e-02  1.06357e-01        00000 
 2.60687e-02  5.81802e-01        00000 
 3.71205e-02  5.26712e-01        00000 
 3.67180e-02  5.07403e-01        00000 
-1.18303e-02  8.22681e-02        00000 
 3.55176e-02  5.47133e-01        00000 
-9.15305e-03  5.14832e-02        00000 
-1.21452e-02  3.82057e-02        00000 
-8.13709e-03  6.54284e-02        00000 
-1.25586e-02  8.36919e-02        00000 
 3.98034e-02  5.23310e-01        00000 
 4.09162e-02  5.01778e-01        00000 
-4.97864e-02  1.05837e-01        00000 
-1.62932e-18  7.00000e-01        00000 
 3.88390e-02  4.80958e-01        00000 
 4.43952e-03  6.79751e-01        00000 
-4.26418e-02  1.00605e-01        00000 
 1.02172e-02  6.57667e-01        00000 
-3.53612e-02  9.47570e-02        00000 
-6.71102e-03  4.10901e-02        00000 
-9.46532e-03  3.08205e-02        00000 
 1.68404e-02  6.33387e-01        00000 
 3.70191e-02  5.50658e-01        00000 
-2.81932e-02  8.84544e-02        00000 
 4.24120e-02  5.22863e-01        00000 
-4.60593e-03  5.10724e-02        00000 
 4.06388e-02  4.53192e-01        00000 
-1.44779e-02  8.00249e-02        00000 
 2.41945e-02  6.06810e-01        00000 
 4.49118e-02  4.98565e-01        00000 
 4.43251e-02  4.75345e-01        00000 
-2.13918e-02  8.11967e-02        00000 
-6.91280e-03  2.52383e-02        00000 
-4.50788e-03  3.28247e-02        00000 
-4.35078e-03  6.09193e-02        00000 
 3.25360e-02  5.77856e-01        00000 
-2.68138e-03  4.06430e-02        00000 
 4.20568e-02  4.24424e-01        00000 
-1.53432e-02  7.18974e-02        00000 
 4.52239e-02  5.24487e-01        00000 
 4.73367e-02  4.47077e-01        00000 
 4.85589e-02  4.98265e-01        00000 
-6.04799e-03  6.39803e-02        00000 
-4.51185e-03  2.13102e-02        00000 
 4.96566e-02  4.72017e-01        00000 
-2.67044e-03  2.66154e-02        00000 
-4.14403e-02  8.01323e-02        00000 
-1.42925e-18  7.00000e-01        00000 
-1.37574e-03  3.31340e-02        00000 
-1.11627e-03  4.62033e-02        00000 
-3.44546e-02  7.50742e-02        00000 
 6.88257e-03  6.78657e-01        00000 
 4.30311e-02  3.94890e-01        00000 
 4.12649e-02  5.50458e-01        00000 
-2.75692e-02  6.97796e-02        00000 
 1.45182e-02  6.55666e-01        00000 
-2.21782e-03  1.89027e-02        00000 
 1.29133e-04  3.71397e-02        00000 
 2.23828e-02  6.30246e-01        00000 
-2.11335e-02  6.46973e-02        00000 
 4.95498e-02  4.17746e-01        00000 
-1.34472e-03  2.19303e-02        00000 
 2.22036e-04  3.25131e-02        00000 
 4.35201e-02  3.64947e-01        00000 
-8.22249e-05  2.72090e-02        00000 
 5.19746e-02  5.00292e-01        00000 
 3.02638e-02  6.03990e-01        00000 
 5.38304e-02  4.43408e-01        00000 
 5.45084e-02  4.72087e-01        00000 
-1.54199e-02  5.94630e-02        00000 
 5.08737e-05  1.81262e-02        00000 
 4.90336e-02  5.25253e-01        00000 
-6.01690e-04  1.88954e-02        00000 
 4.35044e-02  3.34836e-01        00000 
-1.05651e-02  5.45817e-02        00000 
 3.84421e-02  5.76542e-01        00000 
 5.09178e-02  3.87636e-01        00000 
-1.22235e-03  4.75255e-02        00000 
 4.09901e-04  4.34505e-02        00000 
-6.86491e-03  5.23368e-02        00000 
 1.42327e-03  2.77039e-02        00000 
 2.18689e-03  1.90700e-02        00000 
 6.25103e-04  2.21959e-02        00000 
 1.96206e-03  3.61154e-02        00000 
 4.29985e-02  3.04914e-01        00000 
 5.69354e-02  4.12852e-01        00000 
 5.54213e-02  5.02229e-01        00000 
-1.11182e-04  1.75882e-02        00000 
 2.26852e-03  2.98271e-02        00000 
 4.65545e-02  5.49864e-01        00000 
-3.22473e-02  5.47662e-02        00000 
-2.33942e-18  7.00000e-01        00000 
 5.13181e-02  3.57705e-01        00000 
 5.84346e-02  4.76153e-01        00000 
-2.49948e-03  4.53059e-02        00000 
 4.35208e-03  2.14812e-02        00000 
-2.54310e-02  4.97121e-02        00000 
 9.82540e-03  6.77527e-01        00000 
 6.02995e-02  4.42799e-01        00000 
-1.91068e-02  4.54889e-02        00000 
 1.95288e-02  6.53060e-01        00000 
 4.20159e-02  2.75417e-01        00000 
 5.02057e-04  1.88204e-02        00000 
 6.69524e-03  2.54023e-02        00000 
-1.38702e-02  4.19315e-02        00000 
 2.82630e-02  6.27648e-01        00000 
 5.97499e-02  4.84468e-01        00000 
 5.08856e-02  3.28046e-01        00000 
 5.40623e-02  5.24156e-01        00000 
 5.85817e-02  3.81780e-01        00000 
 4.05931e-02  2.46674e-01        00000 
 1.89828e-03  2.19091e-02        00000 
 1.83435e-05  1.82894e-02        00000 
 8.64735e-05  1.76334e-02        00000 
-9.49046e-03  3.85151e-02        00000 
 8.09216e-04  3.66842e-02        00000 
 3.65074e-02  6.01347e-01        00000 
 9.26220e-03  3.09340e-02        00000 
 3.87686e-02  2.18952e-01        00000 
 4.96941e-02  2.99583e-01        00000 
 1.19889e-02  3.82695e-02        00000 
-5.80745e-03  3.53161e-02        00000 
 4.46240e-02  5.74713e-01        00000 
 6.43551e-02  4.09729e-01        00000 
 2.51337e-03  3.12218e-02        00000 
 3.66263e-02  1.92502e-01        00000 
 6.04878e-02  4.99302e-01        00000 
 5.88980e-02  3.51105e-01        00000 
 3.25758e-04  2.15720e-02        00000 
 1.48163e-02  4.74159e-02        00000 
 4.80786e-02  2.71872e-01        00000 
 3.42382e-02  1.67539e-01        00000 
-2.73132e-03  3.24823e-02        00000 
 9.79951e-04  1.76615e-02        00000 
 1.76600e-02  5.84789e-02        00000 
 3.16777e-02  1.44306e-01        00000 
 3.37122e-03  2.58335e-02        00000 
 2.05200e-02  7.14999e-02        00000 
 6.51954e-02  4.75378e-01        00000 
 5.25114e-02  5.48325e-01        00000 
 6.72256e-02  4.47537e-01        00000 
 2.90075e-02  1.23053e-01        00000 
 2.33850e-02  8.65958e-02        00000 
 2.62233e-02  1.03772e-01        00000 
 1.52011e-03  2.71238e-02        00000 
 4.59150e-02  2.44994e-01        00000 
 5.78672e-02  3.21517e-01        00000 
 1.60991e-18  7.00000e-01        00000 
-2.12567e-02  2.89998e-02        00000 