<?xml version="1.0" encoding="utf-8"?>
<VTKFile byte_order="LittleEndian" type="UnstructuredGrid" version="0.1">
   <UnstructuredGrid>
      <Piece NumberOfCells="641" NumberOfPoints="730">
         <Points>
            <DataArray Name="Points" NumberOfComponents="3" format="ascii" type="Float32">
1.0000 1.0000 0.0000
0.9600 1.0000 0.0000
1.0000 0.9600 0.0000
0.9603 0.9614 0.0000
1.0000 0.9200 0.0000
0.9200 1.0000 0.0000
0.9612 0.9231 0.0000
0.9211 0.9624 0.0000
0.9230 0.9260 0.0000
1.0000 0.8800 0.0000
0.8800 1.0000 0.0000
0.9614 0.8856 0.0000
0.8829 0.9623 0.0000
0.9240 0.8918 0.0000
0.8875 0.9262 0.0000
0.8933 0.8971 0.0000
0.9597 0.8473 0.0000
1.0000 0.8400 0.0000
0.8400 1.0000 0.0000
0.8440 0.9601 0.0000
0.9173 0.8563 0.0000
0.8514 0.9190 0.0000
0.8690 0.8729 0.0000
0.9592 0.8063 0.0000
1.0000 0.8000 0.0000
0.8000 1.0000 0.0000
0.8021 0.9589 0.0000
0.9165 0.8130 0.0000
0.8054 0.9165 0.0000
0.8676 0.8205 0.0000
0.8109 0.8707 0.0000
0.9597 0.7652 0.0000
1.0000 0.7600 0.0000
0.7600 1.0000 0.0000
0.7590 0.9590 0.0000
0.9161 0.7702 0.0000
0.7581 0.9167 0.0000
0.8122 0.8209 0.0000
0.8679 0.7733 0.0000
0.7569 0.8708 0.0000
0.9590 0.7242 0.0000
1.0000 0.7200 0.0000
0.7200 1.0000 0.0000
0.9153 0.7275 0.0000
0.7165 0.9591 0.0000
0.8165 0.7719 0.0000
0.7126 0.9181 0.0000
0.8686 0.7282 0.0000
0.7510 0.8174 0.0000
0.7082 0.8753 0.0000
0.9580 0.6829 0.0000
1.0000 0.6800 0.0000
0.6800 1.0000 0.0000
0.7693 0.7706 0.0000
0.9140 0.6851 0.0000
0.6742 0.9594 0.0000
0.8161 0.7213 0.0000
0.8740 0.6885 0.0000
0.6685 0.9181 0.0000
0.7012 0.8339 0.0000
0.7734 0.7344 0.0000
0.7152 0.7855 0.0000
0.6650 0.8760 0.0000
0.7356 0.7577 0.0000
1.0000 0.6400 0.0000
0.6400 1.0000 0.0000
0.8350 0.6800 0.0000
0.9558 0.6404 0.0000
0.8757 0.6585 0.0000
0.7480 0.7370 0.0000
0.6333 0.9593 0.0000
0.6862 0.8039 0.0000
0.9052 0.6395 0.0000
0.6619 0.8374 0.0000
0.7838 0.6876 0.0000
0.7581 0.7055 0.0000
0.6270 0.9175 0.0000
0.6640 0.8136 0.0000
0.8474 0.6471 0.0000
0.7341 0.7184 0.0000
0.6889 0.7621 0.0000
0.8018 0.6601 0.0000
0.7087 0.7349 0.0000
0.6240 0.8728 0.0000
0.6655 0.7821 0.0000
1.0000 0.6000 0.0000
0.6000 1.0000 0.0000
0.9579 0.5979 0.0000
0.8635 0.6181 0.0000
0.6438 0.7994 0.0000
0.5930 0.9599 0.0000
0.7406 0.6813 0.0000
0.8153 0.6317 0.0000
0.7215 0.6960 0.0000
0.7582 0.6627 0.0000
0.9144 0.5934 0.0000
0.6224 0.8262 0.0000
0.7025 0.7080 0.0000
0.6817 0.7264 0.0000
0.5880 0.9170 0.0000
0.6661 0.7445 0.0000
0.6874 0.7117 0.0000
0.7729 0.6402 0.0000
0.6462 0.7610 0.0000
0.8270 0.6029 0.0000
0.5855 0.8736 0.0000
0.7078 0.6759 0.0000
0.8731 0.5824 0.0000
0.6922 0.6895 0.0000
0.6247 0.7752 0.0000
0.7227 0.6602 0.0000
0.6777 0.7007 0.0000
1.0000 0.5600 0.0000
0.5600 1.0000 0.0000
0.7852 0.6159 0.0000
0.6645 0.7138 0.0000
0.7363 0.6426 0.0000
0.9599 0.5572 0.0000
0.6483 0.7278 0.0000
0.5542 0.9595 0.0000
0.6026 0.7897 0.0000
0.5823 0.8324 0.0000
0.6299 0.7405 0.0000
0.9195 0.5531 0.0000
0.7477 0.6223 0.0000
0.5507 0.9171 0.0000
0.6803 0.6732 0.0000
0.6658 0.6871 0.0000
0.8355 0.5722 0.0000
0.7947 0.5901 0.0000
0.6936 0.6581 0.0000
0.6502 0.6999 0.0000
0.6098 0.7514 0.0000
0.7057 0.6420 0.0000
0.7579 0.6014 0.0000
0.6336 0.7113 0.0000
0.5497 0.8744 0.0000
0.8778 0.5472 0.0000
0.7165 0.6250 0.0000
0.5740 0.7964 0.0000
0.6162 0.7214 0.0000
0.5892 0.7610 0.0000
0.7259 0.6072 0.0000
0.8020 0.5638 0.0000
1.0000 0.5200 0.0000
0.5200 1.0000 0.0000
0.5492 0.8345 0.0000
0.7657 0.5790 0.0000
0.9606 0.5179 0.0000
0.5980 0.7300 0.0000
0.8398 0.5417 0.0000
0.5158 0.9583 0.0000
0.7338 0.5887 0.0000
0.9203 0.5154 0.0000
0.5665 0.7670 0.0000
0.5131 0.9159 0.0000
0.5474 0.8009 0.0000
0.5792 0.7371 0.0000
0.7720 0.5563 0.0000
0.8787 0.5129 0.0000
0.8059 0.5366 0.0000
0.5141 0.8719 0.0000
0.7401 0.5696 0.0000
0.5598 0.7427 0.0000
0.5440 0.7719 0.0000
0.5175 0.8314 0.0000
0.8405 0.5118 0.0000
0.7450 0.5500 0.0000
0.5225 0.8010 0.0000
0.7754 0.5328 0.0000
1.0000 0.4800 0.0000
0.4800 1.0000 0.0000
0.9602 0.4791 0.0000
0.5401 0.7468 0.0000
0.4767 0.9571 0.0000
0.8069 0.5110 0.0000
0.9179 0.4782 0.0000
0.5221 0.7741 0.0000
0.4748 0.9127 0.0000
0.7482 0.5301 0.0000
0.8747 0.4784 0.0000
0.5027 0.7984 0.0000
0.7768 0.5101 0.0000
0.4760 0.8661 0.0000
0.5201 0.7492 0.0000
0.8373 0.4828 0.0000
0.4848 0.8182 0.0000
0.5012 0.7757 0.0000
0.7498 0.5101 0.0000
0.8046 0.4854 0.0000
0.5000 0.7500 0.0000
0.7754 0.4874 0.0000
1.0000 0.4400 0.0000
0.4400 1.0000 0.0000
0.9587 0.4395 0.0000
0.4799 0.7803 0.0000
0.4361 0.9573 0.0000
0.9156 0.4395 0.0000
0.7498 0.4899 0.0000
0.8291 0.4561 0.0000
0.4343 0.9109 0.0000
0.8003 0.4626 0.0000
0.8632 0.4393 0.0000
0.4799 0.7492 0.0000
0.7730 0.4662 0.0000
0.4477 0.8146 0.0000
0.4327 0.8588 0.0000
0.7482 0.4699 0.0000
0.8161 0.4410 0.0000
0.4541 0.7785 0.0000
0.7944 0.4428 0.0000
0.4599 0.7468 0.0000
1.0000 0.4000 0.0000
0.4000 1.0000 0.0000
0.7686 0.4455 0.0000
0.9592 0.3996 0.0000
0.8248 0.4242 0.0000
0.3968 0.9575 0.0000
0.7450 0.4500 0.0000
0.9170 0.3993 0.0000
0.4159 0.8309 0.0000
0.4229 0.8031 0.0000
0.3948 0.9133 0.0000
0.4316 0.7723 0.0000
0.7936 0.4233 0.0000
0.4402 0.7427 0.0000
0.8698 0.3967 0.0000
0.7652 0.4264 0.0000
0.3936 0.8689 0.0000
0.7401 0.4304 0.0000
0.3920 0.8309 0.0000
0.8264 0.3924 0.0000
0.3992 0.7968 0.0000
0.4094 0.7650 0.0000
0.4208 0.7371 0.0000
0.7903 0.3985 0.0000
1.0000 0.3600 0.0000
0.3600 1.0000 0.0000
0.7600 0.4056 0.0000
0.9598 0.3592 0.0000
0.3583 0.9570 0.0000
0.7338 0.4113 0.0000
0.9182 0.3582 0.0000
0.3575 0.9135 0.0000
0.3585 0.8699 0.0000
0.4020 0.7300 0.0000
0.8721 0.3546 0.0000
0.3871 0.7558 0.0000
0.3627 0.8272 0.0000
0.3723 0.7881 0.0000
0.7509 0.3845 0.0000
0.7810 0.3713 0.0000
0.7259 0.3928 0.0000
0.8206 0.3501 0.0000
0.3838 0.7214 0.0000
1.0000 0.3200 0.0000
0.3200 1.0000 0.0000
0.9609 0.3186 0.0000
0.3188 0.9571 0.0000
0.3655 0.7452 0.0000
0.7165 0.3750 0.0000
0.3191 0.9130 0.0000
0.7387 0.3639 0.0000
0.9203 0.3164 0.0000
0.3226 0.8674 0.0000
0.7625 0.3483 0.0000
0.3295 0.8214 0.0000
0.3412 0.7756 0.0000
0.3664 0.7113 0.0000
0.8783 0.3117 0.0000
0.3501 0.7297 0.0000
0.7057 0.3580 0.0000
0.7858 0.3237 0.0000
0.7257 0.3455 0.0000
0.3355 0.7477 0.0000
0.8363 0.3032 0.0000
0.3498 0.6999 0.0000
0.7447 0.3291 0.0000
1.0000 0.2800 0.0000
0.2800 1.0000 0.0000
0.2794 0.9569 0.0000
0.9615 0.2779 0.0000
0.3326 0.7179 0.0000
0.2801 0.9127 0.0000
0.6936 0.3419 0.0000
0.2847 0.8665 0.0000
0.9228 0.2753 0.0000
0.7128 0.3285 0.0000
0.2921 0.8195 0.0000
0.7602 0.3086 0.0000
0.3033 0.7758 0.0000
0.3147 0.7412 0.0000
0.3342 0.6871 0.0000
0.7305 0.3141 0.0000
0.8833 0.2705 0.0000
0.7998 0.2876 0.0000
0.7436 0.3019 0.0000
0.6803 0.3268 0.0000
0.3147 0.7039 0.0000
0.6989 0.3111 0.0000
0.8465 0.2623 0.0000
0.3197 0.6732 0.0000
0.7181 0.2951 0.0000
0.7660 0.2772 0.0000
1.0000 0.2400 0.0000
0.2400 1.0000 0.0000
0.2395 0.9570 0.0000
0.9623 0.2379 0.0000
0.3033 0.6872 0.0000
0.2867 0.7266 0.0000
0.7391 0.2819 0.0000
0.6658 0.3129 0.0000
0.2402 0.9130 0.0000
0.2441 0.8665 0.0000
0.9241 0.2355 0.0000
0.2521 0.8179 0.0000
0.2648 0.7698 0.0000
0.2877 0.7007 0.0000
0.3064 0.6581 0.0000
0.6834 0.2942 0.0000
0.8864 0.2325 0.0000
0.8108 0.2442 0.0000
0.2899 0.6725 0.0000
0.6502 0.3001 0.0000
0.8557 0.2306 0.0000
0.7030 0.2743 0.0000
0.2943 0.6420 0.0000
0.2710 0.6909 0.0000
0.7273 0.2535 0.0000
0.6657 0.2787 0.0000
1.0000 0.2000 0.0000
0.2000 1.0000 0.0000
0.6336 0.2887 0.0000
0.2514 0.7173 0.0000
0.2756 0.6564 0.0000
0.1992 0.9576 0.0000
0.9620 0.1981 0.0000
0.7627 0.2311 0.0000
0.1993 0.9141 0.0000
0.9233 0.1961 0.0000
0.2835 0.6250 0.0000
0.2019 0.8680 0.0000
0.6830 0.2545 0.0000
0.2075 0.8181 0.0000
0.8823 0.1948 0.0000
0.2539 0.6737 0.0000
0.6460 0.2652 0.0000
0.6162 0.2786 0.0000
0.8346 0.1977 0.0000
0.2163 0.7604 0.0000
0.2633 0.6381 0.0000
0.2741 0.6072 0.0000
0.7040 0.2284 0.0000
0.2284 0.6955 0.0000
0.6248 0.2559 0.0000
0.5980 0.2700 0.0000
0.6595 0.2370 0.0000
0.7292 0.2095 0.0000
0.2397 0.6531 0.0000
0.2516 0.6187 0.0000
1.0000 0.1600 0.0000
0.1600 1.0000 0.0000
0.2662 0.5887 0.0000
0.1588 0.9585 0.0000
0.9622 0.1583 0.0000
0.1581 0.9163 0.0000
0.9233 0.1564 0.0000
0.6042 0.2491 0.0000
0.5792 0.2629 0.0000
0.1589 0.8722 0.0000
0.1958 0.7202 0.0000
0.8836 0.1548 0.0000
0.2123 0.6706 0.0000
0.6322 0.2291 0.0000
0.2599 0.5696 0.0000
0.7803 0.1720 0.0000
0.1609 0.8259 0.0000
0.2262 0.6315 0.0000
0.2418 0.5979 0.0000
0.8442 0.1523 0.0000
0.5598 0.2573 0.0000
0.5842 0.2424 0.0000
0.6765 0.1983 0.0000
0.1621 0.7781 0.0000
0.6083 0.2254 0.0000
0.2550 0.5500 0.0000
0.8115 0.1450 0.0000
0.1814 0.6889 0.0000
0.2335 0.5759 0.0000
0.1986 0.6460 0.0000
0.7210 0.1689 0.0000
0.5401 0.2532 0.0000
0.2141 0.6084 0.0000
0.5648 0.2361 0.0000
1.0000 0.1200 0.0000
0.1200 1.0000 0.0000
0.5886 0.2216 0.0000
0.6361 0.1981 0.0000
0.9623 0.1186 0.0000
0.1185 0.9594 0.0000
0.2518 0.5301 0.0000
0.1554 0.7378 0.0000
0.9238 0.1169 0.0000
0.1171 0.9188 0.0000
0.5201 0.2508 0.0000
0.6081 0.2005 0.0000
0.1177 0.8757 0.0000
0.8845 0.1155 0.0000
0.2278 0.5529 0.0000
0.5447 0.2310 0.0000
0.5916 0.2048 0.0000
0.2502 0.5101 0.0000
0.5703 0.2140 0.0000
0.1692 0.6615 0.0000
0.1178 0.8329 0.0000
0.2039 0.5833 0.0000
0.1845 0.6209 0.0000
0.8462 0.1139 0.0000
0.5000 0.2500 0.0000
0.1474 0.7037 0.0000
0.5242 0.2284 0.0000
0.2502 0.4899 0.0000
0.8095 0.1132 0.0000
0.1175 0.7897 0.0000
0.2245 0.5293 0.0000
0.6911 0.1470 0.0000
0.6623 0.1569 0.0000
0.7718 0.1199 0.0000
0.5787 0.1926 0.0000
0.4799 0.2508 0.0000
0.5494 0.2063 0.0000
0.6277 0.1636 0.0000
0.2518 0.4699 0.0000
0.1972 0.5560 0.0000
0.1405 0.6744 0.0000
0.5036 0.2260 0.0000
0.5965 0.1735 0.0000
0.1148 0.7499 0.0000
1.0000 0.0800 0.0000
0.0800 1.0000 0.0000
0.2237 0.5060 0.0000
0.1547 0.6362 0.0000
0.7277 0.1206 0.0000
0.4599 0.2532 0.0000
0.9618 0.0790 0.0000
0.0786 0.9601 0.0000
0.1700 0.5930 0.0000
0.9229 0.0780 0.0000
0.0778 0.9196 0.0000
0.2550 0.4500 0.0000
0.5267 0.2034 0.0000
0.4402 0.2573 0.0000
0.8839 0.0770 0.0000
0.0771 0.8790 0.0000
0.1358 0.6525 0.0000
0.2250 0.4832 0.0000
0.1115 0.7133 0.0000
0.1942 0.5282 0.0000
0.2599 0.4304 0.0000
0.5565 0.1781 0.0000
0.4830 0.2210 0.0000
[...]
         <PointData>
            <DataArray Name="Displacement" NumberOfComponents="3" format="ascii" type="Float64">
-3.57614e-18  3.00000e-01        00000 
 8.15176e-19  3.00000e-01        00000 
-1.04593e-02  2.85261e-01        00000 
-6.32407e-03  2.88886e-01        00000 
-1.60420e-02  2.72768e-01        00000 
-1.21069e-18  3.00000e-01        00000 
-1.20903e-02  2.76872e-01        00000 
-4.15723e-03  2.90227e-01        00000 
-8.60884e-03  2.79951e-01        00000 
-2.09165e-02  2.60692e-01        00000 
 1.85314e-19  3.00000e-01        00000 
-1.66435e-02  2.65468e-01        00000 
-2.75376e-03  2.91018e-01        00000 
-1.26178e-02  2.69968e-01        00000 
-6.27209e-03  2.81527e-01        00000 
-9.61639e-03  2.73315e-01        00000 
-2.09489e-02  2.54105e-01        00000 
-2.55953e-02  2.48618e-01        00000 
 3.86755e-19  3.00000e-01        00000 
-1.69220e-03  2.91311e-01        00000 
-1.60089e-02  2.60085e-01        00000 
-4.77193e-03  2.81278e-01        00000 
-1.00611e-02  2.68309e-01        00000 
-2.57643e-02  2.41901e-01        00000 
-3.04005e-02  2.36548e-01        00000 
 1.32161e-19  3.00000e-01        00000 
-6.17738e-04  2.91987e-01        00000 
-2.09216e-02  2.47474e-01        00000 
-2.58350e-03  2.82860e-01        00000 
-1.55225e-02  2.53932e-01        00000 
-6.00363e-03  2.71920e-01        00000 
-3.09157e-02  2.29584e-01        00000 
-3.53870e-02  2.24526e-01        00000 
-2.93897e-20  3.00000e-01        00000 
 3.43121e-04  2.93060e-01        00000 
-2.61215e-02  2.34901e-01        00000 
-5.39193e-04  2.85390e-01        00000 
-1.05741e-02  2.59457e-01        00000 
-2.10864e-02  2.40466e-01        00000 
-2.65107e-03  2.76526e-01        00000 
-3.60924e-02  2.17410e-01        00000 
-4.04678e-02  2.12619e-01        00000 
 2.20602e-20  3.00000e-01        00000 
-3.15363e-02  2.22227e-01        00000 
 1.05314e-03  2.94211e-01        00000 
-1.63370e-02  2.46108e-01        00000 
 9.64528e-04  2.88237e-01        00000 
-2.69287e-02  2.27118e-01        00000 
-5.94330e-03  2.66087e-01        00000 
-4.28170e-05  2.81914e-01        00000 
-4.12269e-02  2.05156e-01        00000 
-4.54250e-02  2.00884e-01        00000 
 1.90672e-19  3.00000e-01        00000 
-1.21315e-02  2.52730e-01        00000 
-3.68632e-02  2.09548e-01        00000 
 1.46410e-03  2.95392e-01        00000 
-2.27011e-02  2.31954e-01        00000 
-3.26487e-02  2.14501e-01        00000 
 1.83645e-03  2.90836e-01        00000 
-1.75930e-03  2.76184e-01        00000 
-1.69627e-02  2.42972e-01        00000 
-6.26405e-03  2.65405e-01        00000 
 1.31819e-03  2.86204e-01        00000 
-1.07547e-02  2.55876e-01        00000 
-4.99447e-02  1.89342e-01        00000 
-4.44876e-20  3.00000e-01        00000 
-3.00117e-02  2.16788e-01        00000 
-4.59693e-02  1.92599e-01        00000 
-3.65654e-02  2.04992e-01        00000 
-1.43662e-02  2.48796e-01        00000 
 1.56167e-03  2.96419e-01        00000 
-2.92080e-03  2.73809e-01        00000 
-4.15749e-02  1.96139e-01        00000 
 5.01798e-05  2.82004e-01        00000 
-2.41065e-02  2.27997e-01        00000 
-1.93625e-02  2.38727e-01        00000 
 2.09891e-03  2.93101e-01        00000 
-1.28823e-03  2.78885e-01        00000 
-3.53321e-02  2.04553e-01        00000 
-1.55836e-02  2.47784e-01        00000 
-6.89784e-03  2.66967e-01        00000 
-2.94112e-02  2.15893e-01        00000 
-1.14520e-02  2.57589e-01        00000 
 1.80462e-03  2.89702e-01        00000 
-3.63056e-03  2.74792e-01        00000 
-5.37385e-02  1.77970e-01        00000 
 6.13927e-20  3.00000e-01        00000 
-5.02820e-02  1.79713e-01        00000 
-4.00140e-02  1.93009e-01        00000 
-1.37716e-03  2.80802e-01        00000 
 1.33856e-03  2.97327e-01        00000 
-2.11254e-02  2.37117e-01        00000 
-3.40770e-02  2.04007e-01        00000 
-1.76716e-02  2.46402e-01        00000 
-2.50231e-02  2.26838e-01        00000 
-4.68912e-02  1.80744e-01        00000 
 6.47231e-04  2.86306e-01        00000 
-1.47594e-02  2.54741e-01        00000 
-1.09732e-02  2.63766e-01        00000 
 1.85250e-03  2.94924e-01        00000 
-7.70651e-03  2.70259e-01        00000 
-1.34119e-02  2.60184e-01        00000 
-2.90710e-02  2.15718e-01        00000 
-4.84621e-03  2.76788e-01        00000 
-3.81360e-02  1.91872e-01        00000 
 1.75274e-03  2.92822e-01        00000 
-1.96006e-02  2.47094e-01        00000 
-4.41376e-02  1.79794e-01        00000 
-1.69339e-02  2.55431e-01        00000 
-2.64541e-03  2.82364e-01        00000 
-2.25230e-02  2.37809e-01        00000 
-1.47025e-02  2.62230e-01        00000 
-5.64728e-02  1.66739e-01        00000 
-5.03702e-20  3.00000e-01        00000 
-3.28354e-02  2.04052e-01        00000 
-1.21794e-02  2.67901e-01        00000 
-2.55517e-02  2.27779e-01        00000 
-5.32331e-02  1.67326e-01        00000 
-9.41985e-03  2.73834e-01        00000 
 8.94221e-04  2.97901e-01        00000 
-9.87398e-04  2.86923e-01        00000 
 1.04060e-03  2.91338e-01        00000 
-6.91785e-03  2.79379e-01        00000 
-5.00167e-02  1.67425e-01        00000 
-2.85542e-02  2.16899e-01        00000 
 1.23233e-03  2.96209e-01        00000 
-1.90709e-02  2.58474e-01        00000 
-1.67784e-02  2.65918e-01        00000 
-4.14181e-02  1.79272e-01        00000 
-3.60532e-02  1.91982e-01        00000 
-2.13466e-02  2.50059e-01        00000 
-1.44867e-02  2.72352e-01        00000 
-4.84633e-03  2.84236e-01        00000 
-2.35523e-02  2.40751e-01        00000 
-3.12972e-02  2.05368e-01        00000 
-1.22135e-02  2.77920e-01        00000 
 1.20603e-03  2.94886e-01        00000 
-4.67061e-02  1.67059e-01        00000 
-2.56494e-02  2.30595e-01        00000 
-2.32584e-04  2.91031e-01        00000 
-1.00429e-02  2.82627e-01        00000 
-3.18315e-03  2.88141e-01        00000 
-2.75926e-02  2.19669e-01        00000 
-3.85928e-02  1.79654e-01        00000 
-5.78940e-02  1.55589e-01        00000 
-7.12122e-20  3.00000e-01        00000 
 8.07866e-04  2.94001e-01        00000 
-3.36277e-02  1.93267e-01        00000 
-5.46481e-02  1.55441e-01        00000 
-8.02222e-03  2.86498e-01        00000 
-4.34847e-02  1.66930e-01        00000 
 2.89978e-04  2.98153e-01        00000 
-2.93017e-02  2.08028e-01        00000 
-5.13110e-02  1.55067e-01        00000 
-2.06463e-03  2.91383e-01        00000 
 3.54266e-04  2.96801e-01        00000 
 5.95385e-05  2.93603e-01        00000 
-6.17259e-03  2.89566e-01        00000 
-3.54815e-02  1.80779e-01        00000 
-4.77904e-02  1.54669e-01        00000 
-4.02241e-02  1.67061e-01        00000 
 3.81049e-04  2.95858e-01        00000 
-3.07459e-02  1.95783e-01        00000 
-4.47335e-03  2.91936e-01        00000 
-1.16767e-03  2.93581e-01        00000 
 2.96262e-04  2.95289e-01        00000 
-4.43233e-02  1.54793e-01        00000 
-3.18659e-02  1.83047e-01        00000 
 6.17254e-05  2.94940e-01        00000 
-3.66636e-02  1.67999e-01        00000 
-5.78728e-02  1.44462e-01        00000 
-1.79350e-19  3.00000e-01        00000 
-5.45351e-02  1.43688e-01        00000 
-2.89305e-03  2.93581e-01        00000 
-4.01057e-04  2.98062e-01        00000 
-4.08872e-02  1.55114e-01        00000 
-5.09917e-02  1.42801e-01        00000 
-5.34337e-04  2.94824e-01        00000 
-6.21949e-04  2.96566e-01        00000 
-3.26343e-02  1.69945e-01        00000 
-4.72896e-02  1.42083e-01        00000 
 3.32850e-05  2.95275e-01        00000 
-3.71762e-02  1.55529e-01        00000 
-5.71363e-04  2.95573e-01        00000 
-1.40653e-03  2.94562e-01        00000 
-4.39481e-02  1.42878e-01        00000 
-1.72437e-04  2.95286e-01        00000 
-1.96923e-06  2.95259e-01        00000 
-3.30176e-02  1.56641e-01        00000 
-4.05794e-02  1.43046e-01        00000 
 4.02861e-05  2.94880e-01        00000 
-3.69719e-02  1.42943e-01        00000 
-5.64221e-02  1.33299e-01        00000 
 5.22886e-20  3.00000e-01        00000 
-5.29097e-02  1.31680e-01        00000 
 3.60468e-04  2.94896e-01        00000 
-1.03654e-03  2.97650e-01        00000 
-4.92440e-02  1.30034e-01        00000 
-3.30115e-02  1.43244e-01        00000 
-4.23452e-02  1.31354e-01        00000 
-1.49495e-03  2.95476e-01        00000 
-3.95624e-02  1.32025e-01        00000 
-4.47685e-02  1.27272e-01        00000 
 1.44219e-03  2.94521e-01        00000 
-3.63029e-02  1.31069e-01        00000 
-4.03593e-04  2.93427e-01        00000 
-1.40030e-03  2.93485e-01        00000 
-3.26112e-02  1.29943e-01        00000 
-4.02894e-02  1.23984e-01        00000 
 8.78026e-04  2.93486e-01        00000 
-3.80977e-02  1.22194e-01        00000 
 2.88675e-03  2.93563e-01        00000 
-5.37065e-02  1.22050e-01        00000 
 6.11503e-19  3.00000e-01        00000 
-3.51160e-02  1.19450e-01        00000 
-5.01409e-02  1.19650e-01        00000 
-4.01246e-02  1.18238e-01        00000 
-1.45405e-03  2.96957e-01        00000 
-3.18392e-02  1.16839e-01        00000 
-4.64502e-02  1.17112e-01        00000 
-9.10652e-04  2.91083e-01        00000 
-1.20125e-05  2.90943e-01        00000 
-2.01516e-03  2.93923e-01        00000 
 1.68365e-03  2.91287e-01        00000 
-3.68885e-02  1.13491e-01        00000 
 4.43771e-03  2.91958e-01        00000 
-4.20663e-02  1.12707e-01        00000 
-3.38460e-02  1.09156e-01        00000 
-1.75824e-03  2.90959e-01        00000 
-3.07095e-02  1.04157e-01        00000 
-8.95767e-04  2.88465e-01        00000 
-3.76325e-02  1.06317e-01        00000 
 5.50158e-04  2.87609e-01        00000 
 2.79978e-03  2.88073e-01        00000 
 6.13769e-03  2.89622e-01        00000 
-3.46562e-02  1.02633e-01        00000 
-4.99357e-02  1.10665e-01        00000 
 5.61013e-19  3.00000e-01        00000 
-3.19944e-02  9.82259e-02        00000 
-4.62644e-02  1.07565e-01        00000 
-1.61834e-03  2.95997e-01        00000 
-2.92727e-02  9.19663e-02        00000 
-4.24199e-02  1.04223e-01        00000 
-2.05200e-03  2.91875e-01        00000 
-1.56921e-03  2.87821e-01        00000 
 7.99907e-03  2.86504e-01        00000 
-3.78102e-02  9.89672e-02        00000 
 4.35492e-03  2.83742e-01        00000 
-3.17474e-04  2.84344e-01        00000 
 1.67860e-03  2.82717e-01        00000 
-2.94340e-02  8.67632e-02        00000 
-3.10582e-02  9.03140e-02        00000 
-2.75765e-02  8.03439e-02        00000 
-3.24837e-02  9.08118e-02        00000 
 9.97631e-03  2.82589e-01        00000 
-4.54143e-02  9.91077e-02        00000 
 4.34445e-20  3.00000e-01        00000 
-4.16561e-02  9.55024e-02        00000 
-1.46334e-03  2.94919e-01        00000 
 6.35559e-03  2.78413e-01        00000 
-2.56475e-02  6.93733e-02        00000 
-1.60221e-03  2.89454e-01        00000 
-2.64123e-02  7.51210e-02        00000 
-3.76315e-02  9.14743e-02        00000 
-7.31457e-04  2.83877e-01        00000 
-2.67504e-02  7.76928e-02        00000 
 1.03737e-03  2.78817e-01        00000 
 3.79479e-03  2.75408e-01        00000 
 1.21263e-02  2.77965e-01        00000 
-3.30699e-02  8.59716e-02        00000 
 9.08856e-03  2.73560e-01        00000 
-2.35402e-02  5.91962e-02        00000 
-2.57770e-02  7.57352e-02        00000 
-2.33911e-02  6.47342e-02        00000 
 7.30599e-03  2.71188e-01        00000 
-2.79404e-02  7.82024e-02        00000 
 1.43894e-02  2.72339e-01        00000 
-2.28159e-02  6.68155e-02        00000 
-4.04624e-02  8.73644e-02        00000 
-4.05447e-20  3.00000e-01        00000 
-1.01760e-03  2.93763e-01        00000 
-3.65983e-02  8.34277e-02        00000 
 1.15210e-02  2.67284e-01        00000 
-6.58208e-04  2.86954e-01        00000 
-2.13208e-02  4.99472e-02        00000 
 7.19941e-04  2.79791e-01        00000 
-3.25978e-02  7.92366e-02        00000 
-2.04450e-02  5.57105e-02        00000 
 2.99946e-03  2.72806e-01        00000 
-2.14406e-02  6.54804e-02        00000 
 5.97533e-03  2.67497e-01        00000 
 9.07310e-03  2.64851e-01        00000 
 1.67070e-02  2.65797e-01        00000 
-1.97096e-02  5.85943e-02        00000 
-2.81845e-02  7.39674e-02        00000 
-2.23221e-02  6.79460e-02        00000 
-1.91170e-02  5.94391e-02        00000 
-1.90230e-02  4.16387e-02        00000 
 1.43993e-02  2.59708e-01        00000 
-1.72770e-02  4.72214e-02        00000 
-2.35273e-02  6.73724e-02        00000 
 1.90458e-02  2.58457e-01        00000 
-1.61886e-02  5.07145e-02        00000 
-1.77687e-02  5.85227e-02        00000 
-3.53793e-02  7.54560e-02        00000 
 8.66964e-20  3.00000e-01        00000 
-3.01065e-04  2.92676e-01        00000 
-3.15490e-02  7.15507e-02        00000 
 1.74315e-02  2.53388e-01        00000 
 1.27836e-02  2.54726e-01        00000 
-1.60277e-02  5.36039e-02        00000 
-1.66957e-02  3.42598e-02        00000 
 7.35260e-04  2.84595e-01        00000 
 2.81885e-03  2.75759e-01        00000 
-2.75924e-02  6.74664e-02        00000 
 5.74087e-03  2.66662e-01        00000 
 9.37813e-03  2.58675e-01        00000 
 1.64579e-02  2.50377e-01        00000 
 2.13637e-02  2.50097e-01        00000 
-1.40502e-02  3.93568e-02        00000 
-2.35991e-02  6.30320e-02        00000 
-1.77757e-02  5.75492e-02        00000 
 2.01874e-02  2.45517e-01        00000 
-1.43965e-02  2.77813e-02        00000 
-2.04196e-02  5.92448e-02        00000 
-1.22662e-02  4.24661e-02        00000 
 2.35958e-02  2.40774e-01        00000 
 1.89303e-02  2.42881e-01        00000 
-1.13901e-02  4.46323e-02        00000 
-1.09498e-02  3.19363e-02        00000 
-3.03884e-02  6.34327e-02        00000 
-4.16538e-20  3.00000e-01        00000 
-1.21786e-02  2.21652e-02        00000 
 1.69280e-02  2.43889e-01        00000 
 2.31263e-02  2.36196e-01        00000 
 6.27598e-04  2.91742e-01        00000 
-2.65506e-02  5.96272e-02        00000 
-1.16944e-02  4.66140e-02        00000 
 2.49046e-03  2.82579e-01        00000 
-2.26489e-02  5.57565e-02        00000 
 2.57045e-02  2.30626e-01        00000 
 5.34641e-03  2.72362e-01        00000 
-8.42974e-03  3.40274e-02        00000 
 9.21069e-03  2.61036e-01        00000 
-1.86111e-02  5.17313e-02        00000 
 2.25871e-02  2.33425e-01        00000 
-8.23186e-03  2.51619e-02        00000 
-1.00804e-02  1.73696e-02        00000 
-1.44820e-02  4.77963e-02        00000 
 1.45929e-02  2.47698e-01        00000 
 2.60964e-02  2.26242e-01        00000 
 2.76293e-02  2.19682e-01        00000 
-6.83022e-03  3.46772e-02        00000 
 2.19367e-02  2.32851e-01        00000 
-6.27404e-03  1.92579e-02        00000 
-8.09294e-03  1.34176e-02        00000 
-5.19647e-03  2.61574e-02        00000 
-6.86300e-03  3.59254e-02        00000 
 2.64191e-02  2.23317e-01        00000 
 2.89840e-02  2.15315e-01        00000 
-2.55839e-02  5.13641e-02        00000 
-3.30267e-19  3.00000e-01        00000 
 2.93368e-02  2.08047e-01        00000 
 1.71200e-03  2.90988e-01        00000 
-2.18204e-02  4.77430e-02        00000 
 4.47914e-03  2.81038e-01        00000 
-1.79852e-02  4.40799e-02        00000 
-4.82345e-03  1.46035e-02        00000 
-6.22466e-03  1.03198e-02        00000 
 8.04558e-03  2.70050e-01        00000 
 2.17064e-02  2.33610e-01        00000 
-1.42113e-02  4.04516e-02        00000 
 2.67296e-02  2.22078e-01        00000 
-3.30930e-03  1.94097e-02        00000 
 3.07747e-02  1.95789e-01        00000 
-7.26347e-03  3.51997e-02        00000 
 1.23733e-02  2.58056e-01        00000 
 3.01510e-02  2.12511e-01        00000 
 3.16116e-02  2.03829e-01        00000 
-1.06352e-02  3.65902e-02        00000 
-4.50565e-03  8.02112e-03        00000 
-3.49747e-03  1.10142e-02        00000 
-2.51074e-03  2.48472e-02        00000 
 1.76541e-02  2.45079e-01        00000 
-2.33463e-03  1.46065e-02        00000 
 3.19007e-02  1.83057e-01        00000 
-7.44812e-03  3.19787e-02        00000 
 2.72810e-02  2.22025e-01        00000 
 3.39259e-02  1.91608e-01        00000 
 3.11178e-02  2.11383e-01        00000 
-2.91767e-03  2.71802e-02        00000 
-2.92714e-03  6.43245e-03        00000 
 3.36396e-02  2.01071e-01        00000 
-2.34936e-03  8.40838e-03        00000 
-2.09077e-02  3.92956e-02        00000 
-1.50667e-18  3.00000e-01        00000 
-1.63223e-03  1.12657e-02        00000 
-1.03940e-03  1.76802e-02        00000 
-1.72107e-02  3.58462e-02        00000 
 2.94490e-03  2.90332e-01        00000 
 3.26711e-02  1.69955e-01        00000 
 2.33433e-02  2.32821e-01        00000 
-1.35678e-02  3.25358e-02        00000 
 6.67640e-03  2.79789e-01        00000 
-1.44381e-03  5.47085e-03        00000 
-5.46185e-04  1.33662e-02        00000 
 1.08974e-02  2.68120e-01        00000 
-1.01944e-02  2.95842e-02        00000 
 3.56764e-02  1.79013e-01        00000 
-1.41922e-03  6.50622e-03        00000 
-5.94743e-04  1.11900e-02        00000 
 3.30576e-02  1.56653e-01        00000 
-8.40063e-04  8.74333e-03        00000 
 3.19999e-02  2.11526e-01        00000 
 1.54592e-02  2.56126e-01        00000 
 3.67336e-02  1.88917e-01        00000 
 3.53087e-02  2.00152e-01        00000 
-7.23512e-03  2.67604e-02        00000 
 7.34780e-06  5.15863e-03        00000 
 2.86118e-02  2.21724e-01        00000 
-7.27723e-04  5.30926e-03        00000 
 3.30463e-02  1.43266e-01        00000 
-4.74318e-03  2.41963e-02        00000 
 2.05052e-02  2.43737e-01        00000 
 3.67875e-02  1.66118e-01        00000 
-3.51524e-04  1.95900e-02        00000 
 3.11876e-04  1.73270e-02        00000 
-2.89164e-03  2.28151e-02        00000 
 1.57486e-04  9.18187e-03        00000 
 1.40839e-03  5.52675e-03        00000 
-2.78340e-04  6.66709e-03        00000 
 8.89851e-04  1.35951e-02        00000 
 3.26480e-02  1.29966e-01        00000 
 3.91255e-02  1.76115e-01        00000 
 3.31076e-02  2.11798e-01        00000 
-1.19885e-04  4.79247e-03        00000 
 8.27046e-04  1.04445e-02        00000 
 2.57401e-02  2.31841e-01        00000 
-1.60258e-02  2.72231e-02        00000 
 6.74833e-19  3.00000e-01        00000 
 3.71685e-02  1.53304e-01        00000 
 3.64148e-02  2.01184e-01        00000 
-7.36285e-04  1.92303e-02        00000 
 2.84622e-03  6.48314e-03        00000 
-1.24048e-02  2.38114e-02        00000 
 4.43620e-03  2.89600e-01        00000 
 3.93164e-02  1.87807e-01        00000 
-9.05439e-03  2.11657e-02        00000 
 9.27186e-03  2.78163e-01        00000 
 3.18702e-02  1.16869e-01        00000 
-9.28948e-05  5.27838e-03        00000 
 4.40220e-03  8.07335e-03        00000 
-6.34878e-03  1.91146e-02        00000 
 1.39593e-02  2.66282e-01        00000 
 3.62532e-02  2.04286e-01        00000 
 3.68964e-02  1.40584e-01        00000 
 3.08157e-02  2.20591e-01        00000 
 4.04893e-02  1.63194e-01        00000 
 3.07393e-02  1.04132e-01        00000 
 5.88254e-04  6.79750e-03        00000 
 2.77871e-04  5.04546e-03        00000 
-4.96035e-05  4.79766e-03        00000 
-4.11768e-03  1.72610e-02        00000 
 8.73764e-04  1.50727e-02        00000 
 1.86671e-02  2.54140e-01        00000 
 6.11774e-03  1.03609e-02        00000 
 2.92814e-02  9.18916e-02        00000 
 3.60363e-02  1.28337e-01        00000 
 7.99571e-03  1.34400e-02        00000 
-2.25834e-03  1.55704e-02        00000 
 2.35802e-02  2.42040e-01        00000 
 4.24062e-02  1.74221e-01        00000 
 1.59171e-03  1.22893e-02        00000 
 2.75616e-02  8.02582e-02        00000 
 3.54114e-02  2.09985e-01        00000 
 4.08385e-02  1.50456e-01        00000 
 8.16580e-04  6.34925e-03        00000 
 1.00251e-02  1.73256e-02        00000 
 3.47721e-02  1.16402e-01        00000 
 2.56310e-02  6.93204e-02        00000 
-7.22536e-04  1.40614e-02        00000 
 3.12980e-04  4.99081e-03        00000 
 1.21691e-02  2.20573e-02        00000 
 2.35425e-02  5.91790e-02        00000 
 1.84191e-03  9.52524e-03        00000 
 1.44154e-02  2.76494e-02        00000 
 3.91450e-02  2.00074e-01        00000 
 2.86019e-02  2.30277e-01        00000 
 4.18423e-02  1.88969e-01        00000 
 2.13452e-02  4.99400e-02        00000 
 1.67280e-02  3.41570e-02        00000 
 1.90539e-02  4.15797e-02        00000 
 1.70766e-03  8.62301e-03        00000 
 3.30583e-02  1.04812e-01        00000 
 4.01969e-02  1.38137e-01        00000 
 8.04955e-19  3.00000e-01        00000 
-1.04566e-02  1.47522e-02        00000 