<?xml version="1.0" encoding="utf-8"?>
<VTKFile byte_order="LittleEndian" type="UnstructuredGrid" version="0.1">
   <UnstructuredGrid>
      <Piece NumberOfCells="641" NumberOfPoints="730">
         <Points>
            <DataArray Name="Points" NumberOfComponents="3" format="ascii" type="Float32">
1.0000 1.0000 0.0000
0.9600 1.0000 0.0000
1.0000 0.9600 0.0000
0.9603 0.9614 0.0000
1.0000 0.9200 0.0000
0.9200 1.0000 0.0000
0.9612 0.9231 0.0000
0.9211 0.9624 0.0000
0.9230 0.9260 0.0000
1.0000 0.8800 0.0000
0.8800 1.0000 0.0000
0.9614 0.8856 0.0000
0.8829 0.9623 0.0000
0.9240 0.8918 0.0000
0.8875 0.9262 0.0000
0.8933 0.8971 0.0000
0.9597 0.8473 0.0000
1.0000 0.8400 0.0000
0.8400 1.0000 0.0000
0.8440 0.9601 0.0000
0.9173 0.8563 0.0000
0.8514 0.9190 0.0000
0.8690 0.8729 0.0000
0.9592 0.8063 0.0000
1.0000 0.8000 0.0000
0.8000 1.0000 0.0000
0.8021 0.9589 0.0000
0.9165 0.8130 0.0000
0.8054 0.9165 0.0000
0.8676 0.8205 0.0000
0.8109 0.8707 0.0000
0.9597 0.7652 0.0000
1.0000 0.7600 0.0000
0.7600 1.0000 0.0000
0.7590 0.9590 0.0000
0.9161 0.7702 0.0000
0.7581 0.9167 0.0000
0.8122 0.8209 0.0000
0.8679 0.7733 0.0000
0.7569 0.8708 0.0000
0.9590 0.7242 0.0000
1.0000 0.7200 0.0000
0.7200 1.0000 0.0000
0.9153 0.7275 0.0000
0.7165 0.9591 0.0000
0.8165 0.7719 0.0000
0.7126 0.9181 0.0000
0.8686 0.7282 0.0000
0.7510 0.8174 0.0000
0.7082 0.8753 0.0000
0.9580 0.6829 0.0000
1.0000 0.6800 0.0000
0.6800 1.0000 0.0000
0.7693 0.7706 0.0000
0.9140 0.6851 0.0000
0.6742 0.9594 0.0000
0.8161 0.7213 0.0000
0.8740 0.6885 0.0000
0.6685 0.9181 0.0000
0.7012 0.8339 0.0000
0.7734 0.7344 0.0000
0.7152 0.7855 0.0000
0.6650 0.8760 0.0000
0.7356 0.7577 0.0000
1.0000 0.6400 0.0000
0.6400 1.0000 0.0000
0.8350 0.6800 0.0000
0.9558 0.6404 0.0000
0.8757 0.6585 0.0000
0.7480 0.7370 0.0000
0.6333 0.9593 0.0000
0.6862 0.8039 0.0000
0.9052 0.6395 0.0000
0.6619 0.8374 0.0000
0.7838 0.6876 0.0000
0.7581 0.7055 0.0000
0.6270 0.9175 0.0000
0.6640 0.8136 0.0000
0.8474 0.6471 0.0000
0.7341 0.7184 0.0000
0.6889 0.7621 0.0000
0.8018 0.6601 0.0000
0.7087 0.7349 0.0000
0.6240 0.8728 0.0000
0.6655 0.7821 0.0000
1.0000 0.6000 0.0000
0.6000 1.0000 0.0000
0.9579 0.5979 0.0000
0.8635 0.6181 0.0000
0.6438 0.7994 0.0000
0.5930 0.9599 0.0000
0.7406 0.6813 0.0000
0.8153 0.6317 0.0000
0.7215 0.6960 0.0000
0.7582 0.6627 0.0000
0.9144 0.5934 0.0000
0.6224 0.8262 0.0000
0.7025 0.7080 0.0000
0.6817 0.7264 0.0000
0.5880 0.9170 0.0000
0.6661 0.7445 0.0000
0.6874 0.7117 0.0000
0.7729 0.6402 0.0000
0.6462 0.7610 0.0000
0.8270 0.6029 0.0000
0.5855 0.8736 0.0000
0.7078 0.6759 0.0000
0.8731 0.5824 0.0000
0.6922 0.6895 0.0000
0.6247 0.7752 0.0000
0.7227 0.6602 0.0000
0.6777 0.7007 0.0000
1.0000 0.5600 0.0000
0.5600 1.0000 0.0000
0.7852 0.6159 0.0000
0.6645 0.7138 0.0000
0.7363 0.6426 0.0000
0.9599 0.5572 0.0000
0.6483 0.7278 0.0000
0.5542 0.9595 0.0000
0.6026 0.7897 0.0000
0.5823 0.8324 0.0000
0.6299 0.7405 0.0000
0.9195 0.5531 0.0000
0.7477 0.6223 0.0000
0.5507 0.9171 0.0000
0.6803 0.6732 0.0000
0.6658 0.6871 0.0000
0.8355 0.5722 0.0000
0.7947 0.5901 0.0000
0.6936 0.6581 0.0000
0.6502 0.6999 0.0000
0.6098 0.7514 0.0000
0.7057 0.6420 0.0000
0.7579 0.6014 0.0000
0.6336 0.7113 0.0000
0.5497 0.8744 0.0000
0.8778 0.5472 0.0000
0.7165 0.6250 0.0000
0.5740 0.7964 0.0000
0.6162 0.7214 0.0000
0.5892 0.7610 0.0000
0.7259 0.6072 0.0000
0.8020 0.5638 0.0000
1.0000 0.5200 0.0000
0.5200 1.0000 0.0000
0.5492 0.8345 0.0000
0.7657 0.5790 0.0000
0.9606 0.5179 0.0000
0.5980 0.7300 0.0000
0.8398 0.5417 0.0000
0.5158 0.9583 0.0000
0.7338 0.5887 0.0000
0.9203 0.5154 0.0000
0.5665 0.7670 0.0000
0.5131 0.9159 0.0000
0.5474 0.8009 0.0000
0.5792 0.7371 0.0000
0.7720 0.5563 0.0000
0.8787 0.5129 0.0000
0.8059 0.5366 0.0000
0.5141 0.8719 0.0000
0.7401 0.5696 0.0000
0.5598 0.7427 0.0000
0.5440 0.7719 0.0000
0.5175 0.8314 0.0000
0.8405 0.5118 0.0000
0.7450 0.5500 0.0000
0.5225 0.8010 0.0000
0.7754 0.5328 0.0000
1.0000 0.4800 0.0000
0.4800 1.0000 0.0000
0.9602 0.4791 0.0000
0.5401 0.7468 0.0000
0.4767 0.9571 0.0000
0.8069 0.5110 0.0000
0.9179 0.4782 0.0000
0.5221 0.7741 0.0000
0.4748 0.9127 0.0000
0.7482 0.5301 0.0000
0.8747 0.4784 0.0000
0.5027 0.7984 0.0000
0.7768 0.5101 0.0000
0.4760 0.8661 0.0000
0.5201 0.7492 0.0000
0.8373 0.4828 0.0000
0.4848 0.8182 0.0000
0.5012 0.7757 0.0000
0.7498 0.5101 0.0000
0.8046 0.4854 0.0000
0.5000 0.7500 0.0000
0.7754 0.4874 0.0000
1.0000 0.4400 0.0000
0.4400 1.0000 0.0000
0.9587 0.4395 0.0000
0.4799 0.7803 0.0000
0.4361 0.9573 0.0000
0.9156 0.4395 0.0000
0.7498 0.4899 0.0000
0.8291 0.4561 0.0000
0.4343 0.9109 0.0000
0.8003 0.4626 0.0000
0.8632 0.4393 0.0000
0.4799 0.7492 0.0000
0.7730 0.4662 0.0000
0.4477 0.8146 0.0000
0.4327 0.8588 0.0000
0.7482 0.4699 0.0000
0.8161 0.4410 0.0000
0.4541 0.7785 0.0000
0.7944 0.4428 0.0000
0.4599 0.7468 0.0000
1.0000 0.4000 0.0000
0.4000 1.0000 0.0000
0.7686 0.4455 0.0000
0.9592 0.3996 0.0000
0.8248 0.4242 0.0000
0.3968 0.9575 0.0000
0.7450 0.4500 0.0000
0.9170 0.3993 0.0000
0.4159 0.8309 0.0000
0.4229 0.8031 0.0000
0.3948 0.9133 0.0000
0.4316 0.7723 0.0000
0.7936 0.4233 0.0000
0.4402 0.7427 0.0000
0.8698 0.3967 0.0000
0.7652 0.4264 0.0000
0.3936 0.8689 0.0000
0.7401 0.4304 0.0000
0.3920 0.8309 0.0000
0.8264 0.3924 0.0000
0.3992 0.7968 0.0000
0.4094 0.7650 0.0000
0.4208 0.7371 0.0000
0.7903 0.3985 0.0000
1.0000 0.3600 0.0000
0.3600 1.0000 0.0000
0.7600 0.4056 0.0000
0.9598 0.3592 0.0000
0.3583 0.9570 0.0000
0.7338 0.4113 0.0000
0.9182 0.3582 0.0000
0.3575 0.9135 0.0000
0.3585 0.8699 0.0000
0.4020 0.7300 0.0000
0.8721 0.3546 0.0000
0.3871 0.7558 0.0000
0.3627 0.8272 0.0000
0.3723 0.7881 0.0000
0.7509 0.3845 0.0000
0.7810 0.3713 0.0000
0.7259 0.3928 0.0000
0.8206 0.3501 0.0000
0.3838 0.7214 0.0000
1.0000 0.3200 0.0000
0.3200 1.0000 0.0000
0.9609 0.3186 0.0000
0.3188 0.9571 0.0000
0.3655 0.7452 0.0000
0.7165 0.3750 0.0000
0.3191 0.9130 0.0000
0.7387 0.3639 0.0000
0.9203 0.3164 0.0000
0.3226 0.8674 0.0000
0.7625 0.3483 0.0000
0.3295 0.8214 0.0000
0.3412 0.7756 0.0000
0.3664 0.7113 0.0000
0.8783 0.3117 0.0000
0.3501 0.7297 0.0000
0.7057 0.3580 0.0000
0.7858 0.3237 0.0000
0.7257 0.3455 0.0000
0.3355 0.7477 0.0000
0.8363 0.3032 0.0000
0.3498 0.6999 0.0000
0.7447 0.3291 0.0000
1.0000 0.2800 0.0000
0.2800 1.0000 0.0000
0.2794 0.9569 0.0000
0.9615 0.2779 0.0000
0.3326 0.7179 0.0000
0.2801 0.9127 0.0000
0.6936 0.3419 0.0000
0.2847 0.8665 0.0000
0.9228 0.2753 0.0000
0.7128 0.3285 0.0000
0.2921 0.8195 0.0000
0.7602 0.3086 0.0000
0.3033 0.7758 0.0000
0.3147 0.7412 0.0000
0.3342 0.6871 0.0000
0.7305 0.3141 0.0000
0.8833 0.2705 0.0000
0.7998 0.2876 0.0000
0.7436 0.3019 0.0000
0.6803 0.3268 0.0000
0.3147 0.7039 0.0000
0.6989 0.3111 0.0000
0.8465 0.2623 0.0000
0.3197 0.6732 0.0000
0.7181 0.2951 0.0000
0.7660 0.2772 0.0000
1.0000 0.2400 0.0000
0.2400 1.0000 0.0000
0.2395 0.9570 0.0000
0.9623 0.2379 0.0000
0.3033 0.6872 0.0000
0.2867 0.7266 0.0000
0.7391 0.2819 0.0000
0.6658 0.3129 0.0000
0.2402 0.9130 0.0000
0.2441 0.8665 0.0000
0.9241 0.2355 0.0000
0.2521 0.8179 0.0000
0.2648 0.7698 0.0000
0.2877 0.7007 0.0000
0.3064 0.6581 0.0000
0.6834 0.2942 0.0000
0.8864 0.2325 0.0000
0.8108 0.2442 0.0000
0.2899 0.6725 0.0000
0.6502 0.3001 0.0000
0.8557 0.2306 0.0000
0.7030 0.2743 0.0000
0.2943 0.6420 0.0000
0.2710 0.6909 0.0000
0.7273 0.2535 0.0000
0.6657 0.2787 0.0000
1.0000 0.2000 0.0000
0.2000 1.0000 0.0000
0.6336 0.2887 0.0000
0.2514 0.7173 0.0000
0.2756 0.6564 0.0000
0.1992 0.9576 0.0000
0.9620 0.1981 0.0000
0.7627 0.2311 0.0000
0.1993 0.9141 0.0000
0.9233 0.1961 0.0000
0.2835 0.6250 0.0000
0.2019 0.8680 0.0000
0.6830 0.2545 0.0000
0.2075 0.8181 0.0000
0.8823 0.1948 0.0000
0.2539 0.6737 0.0000
0.6460 0.2652 0.0000
0.6162 0.2786 0.0000
0.8346 0.1977 0.0000
0.2163 0.7604 0.0000
0.2633 0.6381 0.0000
0.2741 0.6072 0.0000
0.7040 0.2284 0.0000
0.2284 0.6955 0.0000
0.6248 0.2559 0.0000
0.5980 0.2700 0.0000
0.6595 0.2370 0.0000
0.7292 0.2095 0.0000
0.2397 0.6531 0.0000
0.2516 0.6187 0.0000
1.0000 0.1600 0.0000
0.1600 1.0000 0.0000
0.2662 0.5887 0.0000
0.1588 0.9585 0.0000
0.9622 0.1583 0.0000
0.1581 0.9163 0.0000
0.9233 0.1564 0.0000
0.6042 0.2491 0.0000
0.5792 0.2629 0.0000
0.1589 0.8722 0.0000
0.1958 0.7202 0.0000
0.8836 0.1548 0.0000
0.2123 0.6706 0.0000
0.6322 0.2291 0.0000
0.2599 0.5696 0.0000
0.7803 0.1720 0.0000
0.1609 0.8259 0.0000
0.2262 0.6315 0.0000
0.2418 0.5979 0.0000
0.8442 0.1523 0.0000
0.5598 0.2573 0.0000
0.5842 0.2424 0.0000
0.6765 0.1983 0.0000
0.1621 0.7781 0.0000
0.6083 0.2254 0.0000
0.2550 0.5500 0.0000
0.8115 0.1450 0.0000
0.1814 0.6889 0.0000
0.2335 0.5759 0.0000
0.1986 0.6460 0.0000
0.7210 0.1689 0.0000
0.5401 0.2532 0.0000
0.2141 0.6084 0.0000
0.5648 0.2361 0.0000
1.0000 0.1200 0.0000
0.1200 1.0000 0.0000
0.5886 0.2216 0.0000
0.6361 0.1981 0.0000
0.9623 0.1186 0.0000
0.1185 0.9594 0.0000
0.2518 0.5301 0.0000
0.1554 0.7378 0.0000
0.9238 0.1169 0.0000
0.1171 0.9188 0.0000
0.5201 0.2508 0.0000
0.6081 0.2005 0.0000
0.1177 0.8757 0.0000
0.8845 0.1155 0.0000
0.2278 0.5529 0.0000
0.5447 0.2310 0.0000
0.5916 0.2048 0.0000
0.2502 0.5101 0.0000
0.5703 0.2140 0.0000
0.1692 0.6615 0.0000
0.1178 0.8329 0.0000
0.2039 0.5833 0.0000
0.1845 0.6209 0.0000
0.8462 0.1139 0.0000
0.5000 0.2500 0.0000
0.1474 0.7037 0.0000
0.5242 0.2284 0.0000
0.2502 0.4899 0.0000
0.8095 0.1132 0.0000
0.1175 0.7897 0.0000
0.2245 0.5293 0.0000
0.6911 0.1470 0.0000
0.6623 0.1569 0.0000
0.7718 0.1199 0.0000
0.5787 0.1926 0.0000
0.4799 0.2508 0.0000
0.5494 0.2063 0.0000
0.6277 0.1636 0.0000
0.2518 0.4699 0.0000
0.1972 0.5560 0.0000
0.1405 0.6744 0.0000
0.5036 0.2260 0.0000
0.5965 0.1735 0.0000
0.1148 0.7499 0.0000
1.0000 0.0800 0.0000
0.0800 1.0000 0.0000
0.2237 0.5060 0.0000
0.1547 0.6362 0.0000
0.7277 0.1206 0.0000
0.4599 0.2532 0.0000
0.9618 0.0790 0.0000
0.0786 0.9601 0.0000
0.1700 0.5930 0.0000
0.9229 0.0780 0.0000
0.0778 0.9196 0.0000
0.2550 0.4500 0.0000
0.5267 0.2034 0.0000
0.4402 0.2573 0.0000
0.8839 0.0770 0.0000
0.0771 0.8790 0.0000
0.1358 0.6525 0.0000
0.2250 0.4832 0.0000
0.1115 0.7133 0.0000
0.1942 0.5282 0.0000
0.2599 0.4304 0.0000
0.5565 0.1781 0.0000
0.4830 0.2210 0.0000
[...]
         <PointData>
            <DataArray Name="Displacement" NumberOfComponents="3" format="ascii" type="Float64">
-8.94034e-19  1.50000e-01        00000 
 8.15176e-19  1.50000e-01        00000 
-5.48907e-03  1.41947e-01        00000 
-3.20516e-03  1.44137e-01        00000 
-8.47875e-03  1.35224e-01        00000 
 2.99676e-21  1.50000e-01        00000 
-6.29167e-03  1.37726e-01        00000 
-2.03288e-03  1.44916e-01        00000 
-4.37399e-03  1.39539e-01        00000 
-1.11681e-02  1.28773e-01        00000 
-8.10747e-20  1.50000e-01        00000 
-8.79929e-03  1.31672e-01        00000 
-1.28398e-03  1.45386e-01        00000 
-6.57455e-03  1.34300e-01        00000 
-3.10760e-03  1.40474e-01        00000 
-4.93464e-03  1.36194e-01        00000 
-1.12534e-02  1.25703e-01        00000 
-1.38335e-02  1.22365e-01        00000 
 4.83444e-19  1.50000e-01        00000 
-7.15299e-04  1.45585e-01        00000 
-8.51541e-03  1.29182e-01        00000 
-2.29956e-03  1.40445e-01        00000 
-5.21081e-03  1.33718e-01        00000 
-1.40857e-02  1.19343e-01        00000 
-1.66543e-02  1.16015e-01        00000 
 1.10134e-19  1.50000e-01        00000 
-1.49716e-04  1.45979e-01        00000 
-1.14035e-02  1.22644e-01        00000 
-1.13755e-03  1.41371e-01        00000 
-8.40795e-03  1.26310e-01        00000 
-3.03292e-03  1.35803e-01        00000 
-1.72030e-02  1.12991e-01        00000 
-1.96631e-02  1.09775e-01        00000 
-1.76338e-20  1.50000e-01        00000 
 3.43998e-04  1.46570e-01        00000 
-1.45612e-02  1.16182e-01        00000 
-7.06231e-05  1.42770e-01        00000 
-5.70004e-03  1.29440e-01        00000 
-1.17773e-02  1.19387e-01        00000 
-1.25405e-03  1.38360e-01        00000 
-2.04300e-02  1.06829e-01        00000 
-2.28065e-02  1.03719e-01        00000 
       00000  1.50000e-01        00000 
-1.79476e-02  1.09745e-01        00000 
 6.96265e-04  1.47195e-01        00000 
-9.15984e-03  1.22579e-01        00000 
 6.90195e-04  1.44312e-01        00000 
-1.54258e-02  1.12568e-01        00000 
-3.20233e-03  1.33164e-01        00000 
 1.07093e-04  1.41265e-01        00000 
-2.37179e-02  1.00756e-01        00000 
-2.59437e-02  9.79148e-02        00000 
 3.81345e-19  1.50000e-01        00000 
-6.84239e-03  1.26264e-01        00000 
-2.13755e-02  1.03403e-01        00000 
 8.82598e-04  1.47826e-01        00000 
-1.31427e-02  1.15322e-01        00000 
-1.90612e-02  1.06157e-01        00000 
 1.10254e-03  1.45708e-01        00000 
-9.36666e-04  1.38530e-01        00000 
-9.81077e-03  1.21238e-01        00000 
-3.56539e-03  1.33100e-01        00000 
 7.72310e-04  1.43564e-01        00000 
-6.18072e-03  1.28127e-01        00000 
-2.88656e-02  9.24008e-02        00000 
 4.00388e-19  1.50000e-01        00000 
-1.77393e-02  1.07512e-01        00000 
-2.68485e-02  9.47065e-02        00000 
-2.16364e-02  1.01401e-01        00000 
-8.34444e-03  1.24418e-01        00000 
 9.01610e-04  1.48371e-01        00000 
-1.70085e-03  1.37501e-01        00000 
-2.45996e-02  9.68741e-02        00000 
-1.76626e-05  1.41624e-01        00000 
-1.43506e-02  1.13511e-01        00000 
-1.14546e-02  1.19186e-01        00000 
 1.19025e-03  1.46907e-01        00000 
-8.21526e-04  1.40139e-01        00000 
-2.11699e-02  1.01323e-01        00000 
-9.20198e-03  1.24033e-01        00000 
-4.07987e-03  1.34140e-01        00000 
-1.77300e-02  1.07253e-01        00000 
-6.75584e-03  1.29259e-01        00000 
 9.66172e-04  1.45425e-01        00000 
-2.23014e-03  1.38193e-01        00000 
-3.13648e-02  8.71667e-02        00000 
-5.76492e-20  1.50000e-01        00000 
-2.97054e-02  8.85874e-02        00000 
-2.41584e-02  9.55700e-02        00000 
-9.69610e-04  1.41250e-01        00000 
 7.53261e-04  1.48843e-01        00000 
-1.28060e-02  1.18569e-01        00000 
-2.07881e-02  1.01228e-01        00000 
-1.06656e-02  1.23491e-01        00000 
-1.52864e-02  1.13179e-01        00000 
-2.80849e-02  8.94076e-02        00000 
 1.99226e-04  1.43954e-01        00000 
-8.90586e-03  1.27924e-01        00000 
-6.62670e-03  1.32665e-01        00000 
 1.01892e-03  1.47857e-01        00000 
-4.69151e-03  1.36024e-01        00000 
-8.14728e-03  1.30839e-01        00000 
-1.79455e-02  1.07444e-01        00000 
-3.05151e-03  1.39374e-01        00000 
-2.34826e-02  9.51880e-02        00000 
 9.01488e-04  1.47026e-01        00000 
-1.21581e-02  1.24119e-01        00000 
-2.68785e-02  8.91372e-02        00000 
-1.04617e-02  1.28476e-01        00000 
-1.80776e-03  1.42189e-01        00000 
-1.40580e-02  1.19275e-01        00000 
-9.06445e-03  1.32016e-01        00000 
-3.31945e-02  8.21884e-02        00000 
-1.06337e-19  1.50000e-01        00000 
-2.04759e-02  1.01523e-01        00000 
-7.48858e-03  1.34930e-01        00000 
-1.60723e-02  1.14077e-01        00000 
-3.16861e-02  8.28549e-02        00000 
-5.81824e-03  1.37967e-01        00000 
 4.95799e-04  1.49143e-01        00000 
-8.56610e-04  1.44435e-01        00000 
 4.06533e-04  1.46474e-01        00000 
-4.34164e-03  1.40775e-01        00000 
-3.01638e-02  8.31076e-02        00000 
-1.81288e-02  1.08508e-01        00000 
 6.66054e-04  1.48515e-01        00000 
-1.21368e-02  1.30337e-01        00000 
-1.05765e-02  1.34075e-01        00000 
-2.56986e-02  8.90301e-02        00000 
-2.26829e-02  9.54937e-02        00000 
-1.37027e-02  1.26088e-01        00000 
-9.04712e-03  1.37283e-01        00000 
-3.13190e-03  1.43190e-01        00000 
-1.52379e-02  1.21373e-01        00000 
-2.00260e-02  1.02642e-01        00000 
-7.56797e-03  1.40044e-01        00000 
 6.07286e-04  1.48063e-01        00000 
-2.86189e-02  8.30537e-02        00000 
-1.67095e-02  1.16215e-01        00000 
-4.00721e-04  1.46441e-01        00000 
-6.18241e-03  1.42356e-01        00000 
-2.15212e-03  1.45089e-01        00000 
-1.80836e-02  1.10654e-01        00000 
-2.44423e-02  8.94151e-02        00000 
-3.41556e-02  7.73850e-02        00000 
 3.56061e-20  1.50000e-01        00000 
 3.18908e-04  1.47782e-01        00000 
-2.16719e-02  9.65491e-02        00000 
-3.26483e-02  7.74565e-02        00000 
-4.91256e-03  1.44235e-01        00000 
-2.71293e-02  8.30841e-02        00000 
 1.60003e-04  1.49279e-01        00000 
-1.92990e-02  1.04716e-01        00000 
-3.10550e-02  7.73514e-02        00000 
-1.45938e-03  1.46635e-01        00000 
 1.90825e-04  1.48822e-01        00000 
-1.63803e-04  1.47668e-01        00000 
-3.76466e-03  1.45704e-01        00000 
-2.29832e-02  9.02954e-02        00000 
-2.93813e-02  7.71997e-02        00000 
-2.56035e-02  8.32730e-02        00000 
 1.89899e-04  1.48557e-01        00000 
-2.03290e-02  9.84599e-02        00000 
-2.71927e-03  1.46825e-01        00000 
-8.69654e-04  1.47662e-01        00000 
 1.11484e-04  1.48414e-01        00000 
-2.77426e-02  7.72843e-02        00000 
-2.11287e-02  9.19421e-02        00000 
-6.75073e-05  1.48298e-01        00000 
-2.38420e-02  8.39359e-02        00000 
-3.41420e-02  7.26404e-02        00000 
-2.28263e-19  1.50000e-01        00000 
-3.25789e-02  7.21484e-02        00000 
-1.75543e-03  1.47592e-01        00000 
-2.20442e-04  1.49240e-01        00000 
-2.60952e-02  7.74758e-02        00000 
-3.08755e-02  7.16552e-02        00000 
-4.12028e-04  1.48232e-01        00000 
-3.30669e-04  1.48721e-01        00000 
-2.16777e-02  8.52298e-02        00000 
-2.91093e-02  7.12651e-02        00000 
 5.66752e-06  1.48453e-01        00000 
-2.42243e-02  7.77426e-02        00000 
-2.73250e-04  1.48440e-01        00000 
-8.53613e-04  1.48046e-01        00000 
-2.75427e-02  7.15945e-02        00000 
-3.73352e-05  1.48447e-01        00000 
-7.37895e-06  1.48431e-01        00000 
-2.19523e-02  7.84081e-02        00000 
-2.59304e-02  7.16202e-02        00000 
 1.94987e-05  1.48194e-01        00000 
-2.41120e-02  7.14893e-02        00000 
-3.31629e-02  6.78261e-02        00000 
 2.75968e-19  1.50000e-01        00000 
-3.14865e-02  6.66798e-02        00000 
 3.01006e-04  1.48273e-01        00000 
-5.75880e-04  1.49027e-01        00000 
-2.96951e-02  6.56844e-02        00000 
-2.19496e-02  7.15343e-02        00000 
-2.65527e-02  6.60508e-02        00000 
-8.08121e-04  1.48177e-01        00000 
-2.52697e-02  6.62477e-02        00000 
-2.75246e-02  6.42185e-02        00000 
 8.73045e-04  1.48031e-01        00000 
-2.36487e-02  6.55746e-02        00000 
-4.13342e-05  1.47556e-01        00000 
-6.74205e-04  1.47439e-01        00000 
-2.16652e-02  6.47095e-02        00000 
-2.53520e-02  6.24345e-02        00000 
 7.13380e-04  1.47624e-01        00000 
-2.43002e-02  6.14150e-02        00000 
 1.75583e-03  1.47587e-01        00000 
-3.13478e-02  6.28419e-02        00000 
-2.62073e-19  1.50000e-01        00000 
-2.28218e-02  5.97610e-02        00000 
-2.95952e-02  6.11276e-02        00000 
-2.49962e-02  5.97128e-02        00000 
-8.22272e-04  1.48665e-01        00000 
-2.11145e-02  5.79865e-02        00000 
-2.77427e-02  5.95843e-02        00000 
-3.30069e-04  1.46348e-01        00000 
 2.48414e-04  1.46379e-01        00000 
-1.11595e-03  1.47363e-01        00000 
 1.24900e-03  1.46592e-01        00000 
-2.33679e-02  5.71640e-02        00000 
 2.70483e-03  1.46837e-01        00000 
-2.54775e-02  5.72430e-02        00000 
-2.18811e-02  5.46245e-02        00000 
-9.06005e-04  1.46101e-01        00000 
-2.03072e-02  5.14928e-02        00000 
-3.31797e-04  1.45031e-01        00000 
-2.31281e-02  5.39268e-02        00000 
 5.88992e-04  1.44751e-01        00000 
 1.93354e-03  1.45055e-01        00000 
 3.74874e-03  1.45733e-01        00000 
-2.17288e-02  5.18216e-02        00000 
-2.88627e-02  5.76092e-02        00000 
-2.80507e-19  1.50000e-01        00000 
-2.05302e-02  4.91549e-02        00000 
-2.69945e-02  5.54306e-02        00000 
-9.40386e-04  1.48163e-01        00000 
-1.92835e-02  4.52695e-02        00000 
-2.49980e-02  5.33914e-02        00000 
-1.17996e-03  1.46291e-01        00000 
-8.54580e-04  1.44463e-01        00000 
 4.90035e-03  1.44238e-01        00000 
-2.25149e-02  5.05357e-02        00000 
 2.84437e-03  1.42940e-01        00000 
-4.59928e-05  1.42928e-01        00000 
 1.21567e-03  1.42309e-01        00000 
-1.87414e-02  4.33497e-02        00000 
-1.92466e-02  4.56431e-02        00000 
-1.80792e-02  3.93465e-02        00000 
-1.95798e-02  4.62409e-02        00000 
 6.14319e-03  1.42337e-01        00000 
-2.59367e-02  5.20886e-02        00000 
 2.60667e-19  1.50000e-01        00000 
-2.39631e-02  4.96090e-02        00000 
-8.91214e-04  1.47590e-01        00000 
 3.99727e-03  1.40275e-01        00000 
-1.67142e-02  3.37635e-02        00000 
-9.91387e-04  1.45008e-01        00000 
-1.66813e-02  3.73839e-02        00000 
-2.18105e-02  4.71561e-02        00000 
-4.59815e-04  1.42388e-01        00000 
-1.64473e-02  3.91379e-02        00000 
 6.43952e-04  1.40051e-01        00000 
 2.36537e-03  1.38576e-01        00000 
 7.51538e-03  1.40070e-01        00000 
-1.92896e-02  4.41087e-02        00000 
 5.60748e-03  1.37822e-01        00000 
-1.52316e-02  2.85940e-02        00000 
-1.54520e-02  3.83975e-02        00000 
-1.46532e-02  3.20185e-02        00000 
 4.45241e-03  1.36490e-01        00000 
-1.63544e-02  3.99615e-02        00000 
 8.99324e-03  1.37281e-01        00000 
-1.39278e-02  3.34512e-02        00000 
-2.27997e-02  4.62788e-02        00000 
-2.29512e-19  1.50000e-01        00000 
-6.84813e-04  1.46970e-01        00000 
-2.07232e-02  4.36313e-02        00000 
 7.05565e-03  1.34589e-01        00000 
-5.34467e-04  1.43662e-01        00000 
-1.36813e-02  2.39118e-02        00000 
 2.64823e-04  1.40191e-01        00000 
-1.85504e-02  4.10673e-02        00000 
-1.26959e-02  2.73469e-02        00000 
 1.64750e-03  1.36826e-01        00000 
-1.28089e-02  3.29678e-02        00000 
 3.48740e-03  1.34325e-01        00000 
 5.42563e-03  1.33154e-01        00000 
 1.05324e-02  1.34010e-01        00000 
-1.19540e-02  2.91299e-02        00000 
-1.60985e-02  3.80827e-02        00000 
-1.30290e-02  3.45281e-02        00000 
-1.14289e-02  2.97255e-02        00000 
-1.20973e-02  1.97216e-02        00000 
 8.81309e-03  1.30650e-01        00000 
-1.06309e-02  2.29482e-02        00000 
-1.34455e-02  3.44951e-02        00000 
 1.21177e-02  1.30331e-01        00000 
-9.71733e-03  2.50150e-02        00000 
-1.03646e-02  2.94714e-02        00000 
-1.96547e-02  4.02214e-02        00000 
 1.67974e-19  1.50000e-01        00000 
-3.27165e-04  1.46378e-01        00000 
-1.75697e-02  3.76282e-02        00000 
 1.07609e-02  1.27400e-01        00000 
 7.56002e-03  1.27772e-01        00000 
-9.44921e-03  2.67211e-02        00000 
-1.05210e-02  1.60169e-02        00000 
 1.74028e-04  1.42370e-01        00000 
 1.35210e-03  1.37983e-01        00000 
-1.54089e-02  3.51068e-02        00000 
 3.09768e-03  1.33475e-01        00000 
 5.34613e-03  1.29556e-01        00000 
 9.95025e-03  1.25619e-01        00000 
 1.37164e-02  1.26113e-01        00000 
-8.59342e-03  1.88647e-02        00000 
-1.32058e-02  3.25304e-02        00000 
-1.00856e-02  2.92616e-02        00000 
 1.25481e-02  1.23309e-01        00000 
-8.99374e-03  1.27824e-02        00000 
-1.14489e-02  3.03893e-02        00000 
-7.30961e-03  2.06942e-02        00000 
 1.52708e-02  1.21390e-01        00000 
 1.14390e-02  1.21625e-01        00000 
-6.61575e-03  2.20516e-02        00000 
-6.70316e-03  1.50175e-02        00000 
-1.66437e-02  3.39788e-02        00000 
-9.47357e-20  1.50000e-01        00000 
-7.54864e-03  1.00001e-02        00000 
 9.96670e-03  1.21921e-01        00000 
 1.44762e-02  1.18461e-01        00000 
 1.51917e-04  1.45858e-01        00000 
-1.45387e-02  3.14847e-02        00000 
-6.60208e-03  2.33547e-02        00000 
 1.08995e-03  1.41242e-01        00000 
-1.24029e-02  2.90846e-02        00000 
 1.67539e-02  1.16237e-01        00000 
 2.68769e-03  1.36082e-01        00000 
-5.04428e-03  1.62706e-02        00000 
 4.96903e-03  1.30353e-01        00000 
-1.01895e-02  2.66966e-02        00000 
 1.37474e-02  1.16646e-01        00000 
-5.09544e-03  1.15371e-02        00000 
-6.20421e-03  7.64587e-03        00000 
-7.93640e-03  2.43895e-02        00000 
 8.26775e-03  1.23591e-01        00000 
 1.64826e-02  1.13331e-01        00000 
 1.81176e-02  1.10665e-01        00000 
-3.95699e-03  1.68280e-02        00000 
 1.30307e-02  1.16082e-01        00000 
-3.96126e-03  8.54783e-03        00000 
-4.95132e-03  5.72747e-03        00000 
-3.19981e-03  1.21858e-02        00000 
-3.85206e-03  1.76875e-02        00000 
 1.62502e-02  1.11398e-01        00000 
 1.84525e-02  1.07726e-01        00000 
-1.38233e-02  2.76274e-02        00000 
-1.26602e-19  1.50000e-01        00000 
 1.93321e-02  1.04731e-01        00000 
 7.21464e-04  1.45424e-01        00000 
-1.17478e-02  2.52923e-02        00000 
 2.14369e-03  1.40348e-01        00000 
-9.63978e-03  2.30328e-02        00000 
-3.11261e-03  6.24333e-03        00000 
-3.79174e-03  4.24465e-03        00000 
 4.12672e-03  1.34726e-01        00000 
 1.26081e-02  1.16244e-01        00000 
-7.56943e-03  2.08858e-02        00000 
 1.60778e-02  1.10481e-01        00000 
-2.17792e-03  8.70461e-03        00000 
 2.03568e-02  9.84672e-02        00000 
-3.86347e-03  1.76593e-02        00000 
 6.65602e-03  1.28584e-01        00000 
 1.87246e-02  1.05848e-01        00000 
 2.02752e-02  1.01888e-01        00000 
-5.61303e-03  1.86938e-02        00000 
-2.73662e-03  3.15912e-03        00000 
-2.31835e-03  4.50734e-03        00000 
-1.50107e-03  1.17560e-02        00000 
 9.85255e-03  1.21931e-01        00000 
-1.65174e-03  6.28330e-03        00000 
 2.11599e-02  9.19532e-02        00000 
-3.86880e-03  1.61827e-02        00000 
 1.61064e-02  1.10254e-01        00000 
 2.18918e-02  9.57227e-02        00000 
 1.89306e-02  1.05001e-01        00000 
-1.53539e-03  1.32740e-02        00000 
-1.77467e-03  2.41716e-03        00000 
 2.10691e-02  1.00051e-01        00000 
-1.61211e-03  3.27235e-03        00000 
-1.11610e-02  2.12197e-02        00000 
-2.55330e-19  1.50000e-01        00000 
-1.24577e-03  4.64227e-03        00000 
-7.89283e-04  7.97288e-03        00000 
-9.11468e-03  1.90313e-02        00000 
 1.37603e-03  1.45034e-01        00000 
 2.17095e-02  8.52408e-02        00000 
 1.33455e-02  1.15613e-01        00000 
-7.10558e-03  1.70092e-02        00000 
 3.32081e-03  1.39589e-01        00000 
-8.75862e-04  1.97095e-03        00000 
-5.69013e-04  5.75236e-03        00000 
 5.66320e-03  1.33553e-01        00000 
-5.26143e-03  1.52675e-02        00000 
 2.31388e-02  8.94249e-02        00000 
-1.01157e-03  2.38533e-03        00000 
-6.17319e-04  4.65010e-03        00000 
 2.19855e-02  7.84195e-02        00000 
-7.57745e-04  3.43367e-03        00000 
 1.91280e-02  1.04891e-01        00000 
 8.31024e-03  1.27353e-01        00000 
 2.31727e-02  9.39848e-02        00000 
 2.16671e-02  9.93231e-02        00000 
-3.65963e-03  1.36594e-02        00000 
-1.08666e-06  1.82455e-03        00000 
 1.66471e-02  1.09918e-01        00000 
-5.28622e-04  1.83491e-03        00000 
 2.19780e-02  7.15507e-02        00000 
-2.32226e-03  1.22167e-02        00000 
 1.13383e-02  1.20972e-01        00000 
 2.39436e-02  8.30076e-02        00000 
-1.37193e-04  9.35674e-03        00000 
 1.46740e-04  8.06965e-03        00000 
-1.35103e-03  1.13740e-02        00000 
-1.56859e-04  3.69336e-03        00000 
 8.52215e-04  1.99225e-03        00000 
-3.71249e-04  2.45370e-03        00000 
 3.76113e-04  6.05997e-03        00000 
 2.16943e-02  6.47253e-02        00000 
 2.48363e-02  8.76911e-02        00000 
 1.95240e-02  1.04881e-01        00000 
-8.42425e-05  1.59486e-03        00000 
 2.72956e-04  4.39605e-03        00000 
 1.45500e-02  1.14862e-01        00000 
-8.46864e-03  1.47711e-02        00000 
 1.07973e-18  1.50000e-01        00000 
 2.42392e-02  7.66430e-02        00000 
 2.19534e-02  9.96676e-02        00000 
-2.34382e-04  9.39661e-03        00000 
 1.73247e-03  2.43399e-03        00000 
-6.46110e-03  1.26414e-02        00000 
 2.17426e-03  1.44589e-01        00000 
 2.42825e-02  9.31918e-02        00000 
-4.61143e-03  1.10450e-02        00000 
 4.72903e-03  1.38606e-01        00000 
 2.11396e-02  5.80073e-02        00000 
-1.74787e-04  1.80156e-03        00000 
 2.68539e-03  3.17826e-03        00000 
-3.14569e-03  9.84736e-03        00000 
 7.32989e-03  1.32378e-01        00000 
 2.15741e-02  1.01115e-01        00000 
 2.40683e-02  7.03174e-02        00000 
 1.77343e-02  1.09129e-01        00000 
 2.58199e-02  8.14002e-02        00000 
 2.03327e-02  5.14826e-02        00000 
 1.53158e-04  2.57007e-03        00000 
 2.40506e-04  1.69995e-03        00000 
-5.91638e-05  1.57879e-03        00000 
-1.95198e-03  8.79187e-03        00000 
 5.88563e-04  7.18853e-03        00000 
 1.00425e-02  1.26044e-01        00000 
 3.73650e-03  4.26193e-03        00000 
 1.92939e-02  4.52260e-02        00000 
 2.34796e-02  6.42063e-02        00000 
 4.89733e-03  5.73704e-03        00000 
-9.67003e-04  7.83933e-03        00000 
 1.29668e-02  1.19777e-01        00000 
 2.63918e-02  8.65890e-02        00000 
 9.10588e-04  5.67565e-03        00000 
 1.80726e-02  3.92940e-02        00000 
 2.06945e-02  1.03796e-01        00000 
 2.60993e-02  7.52202e-02        00000 
 6.66756e-04  2.29964e-03        00000 
 6.16880e-03  7.62146e-03        00000 
 2.25800e-02  5.82351e-02        00000 
 1.67072e-02  3.37284e-02        00000 
-1.64061e-04  6.98457e-03        00000 
 9.13581e-05  1.70525e-03        00000 
 7.53909e-03  9.94098e-03        00000 
 1.52374e-02  2.85802e-02        00000 
 9.76217e-04  4.18213e-03        00000 
 9.00547e-03  1.27091e-02        00000 
 2.32022e-02  9.89016e-02        00000 
 1.60354e-02  1.13739e-01        00000 
 2.52820e-02  9.35559e-02        00000 
 1.37027e-02  2.39052e-02        00000 
 1.05459e-02  1.59584e-02        00000 
 1.21241e-02  1.96868e-02        00000 
 1.25942e-03  3.36594e-03        00000 
 2.13591e-02  5.24149e-02        00000 
 2.56994e-02  6.92330e-02        00000 
-1.20743e-18  1.50000e-01        00000 
-5.48606e-03  8.05988e-03        00000 