<?xml version="1.0" encoding="utf-8"?>
<VTKFile byte_order="LittleEndian" type="UnstructuredGrid" version="0.1">
   <UnstructuredGrid>
      <Piece NumberOfCells="641" NumberOfPoints="730">
         <Points>
            <DataArray Name="Points" NumberOfComponents="3" format="ascii" type="Float32">
1.0000 1.0000 0.0000
0.9600 1.0000 0.0000
1.0000 0.9600 0.0000
0.9603 0.9614 0.0000
1.0000 0.9200 0.0000
0.9200 1.0000 0.0000
0.9612 0.9231 0.0000
0.9211 0.9624 0.0000
0.9230 0.9260 0.0000
1.0000 0.8800 0.0000
0.8800 1.0000 0.0000
0.9614 0.8856 0.0000
0.8829 0.9623 0.0000
0.9240 0.8918 0.0000
0.8875 0.9262 0.0000
0.8933 0.8971 0.0000
0.9597 0.8473 0.0000
1.0000 0.8400 0.0000
0.8400 1.0000 0.0000
0.8440 0.9601 0.0000
0.9173 0.8563 0.0000
0.8514 0.9190 0.0000
0.8690 0.8729 0.0000
0.9592 0.8063 0.0000
1.0000 0.8000 0.0000
0.8000 1.0000 0.0000
0.8021 0.9589 0.0000
0.9165 0.8130 0.0000
0.8054 0.9165 0.0000
0.8676 0.8205 0.0000
0.8109 0.8707 0.0000
0.9597 0.7652 0.0000
1.0000 0.7600 0.0000
0.7600 1.0000 0.0000
0.7590 0.9590 0.0000
0.9161 0.7702 0.0000
0.7581 0.9167 0.0000
0.8122 0.8209 0.0000
0.8679 0.7733 0.0000
0.7569 0.8708 0.0000
0.9590 0.7242 0.0000
1.0000 0.7200 0.0000
0.7200 1.0000 0.0000
0.9153 0.7275 0.0000
0.7165 0.9591 0.0000
0.8165 0.7719 0.0000
0.7126 0.9181 0.0000
0.8686 0.7282 0.0000
0.7510 0.8174 0.0000
0.7082 0.8753 0.0000
0.9580 0.6829 0.0000
1.0000 0.6800 0.0000
0.6800 1.0000 0.0000
0.7693 0.7706 0.0000
0.9140 0.6851 0.0000
0.6742 0.9594 0.0000
0.8161 0.7213 0.0000
0.8740 0.6885 0.0000
0.6685 0.9181 0.0000
0.7012 0.8339 0.0000
0.7734 0.7344 0.0000
0.7152 0.7855 0.0000
0.6650 0.8760 0.0000
0.7356 0.7577 0.0000
1.0000 0.6400 0.0000
0.6400 1.0000 0.0000
0.8350 0.6800 0.0000
0.9558 0.6404 0.0000
0.8757 0.6585 0.0000
0.7480 0.7370 0.0000
0.6333 0.9593 0.0000
0.6862 0.8039 0.0000
0.9052 0.6395 0.0000
0.6619 0.8374 0.0000
0.7838 0.6876 0.0000
0.7581 0.7055 0.0000
0.6270 0.9175 0.0000
0.6640 0.8136 0.0000
0.8474 0.6471 0.0000
0.7341 0.7184 0.0000
0.6889 0.7621 0.0000
0.8018 0.6601 0.0000
0.7087 0.7349 0.0000
0.6240 0.8728 0.0000
0.6655 0.7821 0.0000
1.0000 0.6000 0.0000
0.6000 1.0000 0.0000
0.9579 0.5979 0.0000
0.8635 0.6181 0.0000
0.6438 0.7994 0.0000
0.5930 0.9599 0.0000
0.7406 0.6813 0.0000
0.8153 0.6317 0.0000
0.7215 0.6960 0.0000
0.7582 0.6627 0.0000
0.9144 0.5934 0.0000
0.6224 0.8262 0.0000
0.7025 0.7080 0.0000
0.6817 0.7264 0.0000
0.5880 0.9170 0.0000
0.6661 0.7445 0.0000
0.6874 0.7117 0.0000
0.7729 0.6402 0.0000
0.6462 0.7610 0.0000
0.8270 0.6029 0.0000
0.5855 0.8736 0.0000
0.7078 0.6759 0.0000
0.8731 0.5824 0.0000
0.6922 0.6895 0.0000
0.6247 0.7752 0.0000
0.7227 0.6602 0.0000
0.6777 0.7007 0.0000
1.0000 0.5600 0.0000
0.5600 1.0000 0.0000
0.7852 0.6159 0.0000
0.6645 0.7138 0.0000
0.7363 0.6426 0.0000
0.9599 0.5572 0.0000
0.6483 0.7278 0.0000
0.5542 0.9595 0.0000
0.6026 0.7897 0.0000
0.5823 0.8324 0.0000
0.6299 0.7405 0.0000
0.9195 0.5531 0.0000
0.7477 0.6223 0.0000
0.5507 0.9171 0.0000
0.6803 0.6732 0.0000
0.6658 0.6871 0.0000
0.8355 0.5722 0.0000
0.7947 0.5901 0.0000
0.6936 0.6581 0.0000
0.6502 0.6999 0.0000
0.6098 0.7514 0.0000
0.7057 0.6420 0.0000
0.7579 0.6014 0.0000
0.6336 0.7113 0.0000
0.5497 0.8744 0.0000
0.8778 0.5472 0.0000
0.7165 0.6250 0.0000
0.5740 0.7964 0.0000
0.6162 0.7214 0.0000
0.5892 0.7610 0.0000
0.7259 0.6072 0.0000
0.8020 0.5638 0.0000
1.0000 0.5200 0.0000
0.5200 1.0000 0.0000
0.5492 0.8345 0.0000
0.7657 0.5790 0.0000
0.9606 0.5179 0.0000
0.5980 0.7300 0.0000
0.8398 0.5417 0.0000
0.5158 0.9583 0.0000
0.7338 0.5887 0.0000
0.9203 0.5154 0.0000
0.5665 0.7670 0.0000
0.5131 0.9159 0.0000
0.5474 0.8009 0.0000
0.5792 0.7371 0.0000
0.7720 0.5563 0.0000
0.8787 0.5129 0.0000
0.8059 0.5366 0.0000
0.5141 0.8719 0.0000
0.7401 0.5696 0.0000
0.5598 0.7427 0.0000
0.5440 0.7719 0.0000
0.5175 0.8314 0.0000
0.8405 0.5118 0.0000
0.7450 0.5500 0.0000
0.5225 0.8010 0.0000
0.7754 0.5328 0.0000
1.0000 0.4800 0.0000
0.4800 1.0000 0.0000
0.9602 0.4791 0.0000
0.5401 0.7468 0.0000
0.4767 0.9571 0.0000
0.8069 0.5110 0.0000
0.9179 0.4782 0.0000
0.5221 0.7741 0.0000
0.4748 0.9127 0.0000
0.7482 0.5301 0.0000
0.8747 0.4784 0.0000
0.5027 0.7984 0.0000
0.7768 0.5101 0.0000
0.4760 0.8661 0.0000
0.5201 0.7492 0.0000
0.8373 0.4828 0.0000
0.4848 0.8182 0.0000
0.5012 0.7757 0.0000
0.7498 0.5101 0.0000
0.8046 0.4854 0.0000
0.5000 0.7500 0.0000
0.7754 0.4874 0.0000
1.0000 0.4400 0.0000
0.4400 1.0000 0.0000
0.9587 0.4395 0.0000
0.4799 0.7803 0.0000
0.4361 0.9573 0.0000
0.9156 0.4395 0.0000
0.7498 0.4899 0.0000
0.8291 0.4561 0.0000
0.4343 0.9109 0.0000
0.8003 0.4626 0.0000
0.8632 0.4393 0.0000
0.4799 0.7492 0.0000
0.7730 0.4662 0.0000
0.4477 0.8146 0.0000
0.4327 0.8588 0.0000
0.7482 0.4699 0.0000
0.8161 0.4410 0.0000
0.4541 0.7785 0.0000
0.7944 0.4428 0.0000
0.4599 0.7468 0.0000
1.0000 0.4000 0.0000
0.4000 1.0000 0.0000
0.7686 0.4455 0.0000
0.9592 0.3996 0.0000
0.8248 0.4242 0.0000
0.3968 0.9575 0.0000
0.7450 0.4500 0.0000
0.9170 0.3993 0.0000
0.4159 0.8309 0.0000
0.4229 0.8031 0.0000
0.3948 0.9133 0.0000
0.4316 0.7723 0.0000
0.7936 0.4233 0.0000
0.4402 0.7427 0.0000
0.8698 0.3967 0.0000
0.7652 0.4264 0.0000
0.3936 0.8689 0.0000
0.7401 0.4304 0.0000
0.3920 0.8309 0.0000
0.8264 0.3924 0.0000
0.3992 0.7968 0.0000
0.4094 0.7650 0.0000
0.4208 0.7371 0.0000
0.7903 0.3985 0.0000
1.0000 0.3600 0.0000
0.3600 1.0000 0.0000
0.7600 0.4056 0.0000
0.9598 0.3592 0.0000
0.3583 0.9570 0.0000
0.7338 0.4113 0.0000
0.9182 0.3582 0.0000
0.3575 0.9135 0.0000
0.3585 0.8699 0.0000
0.4020 0.7300 0.0000
0.8721 0.3546 0.0000
0.3871 0.7558 0.0000
0.3627 0.8272 0.0000
0.3723 0.7881 0.0000
0.7509 0.3845 0.0000
0.7810 0.3713 0.0000
0.7259 0.3928 0.0000
0.8206 0.3501 0.0000
0.3838 0.7214 0.0000
1.0000 0.3200 0.0000
0.3200 1.0000 0.0000
0.9609 0.3186 0.0000
0.3188 0.9571 0.0000
0.3655 0.7452 0.0000
0.7165 0.3750 0.0000
0.3191 0.9130 0.0000
0.7387 0.3639 0.0000
0.9203 0.3164 0.0000
0.3226 0.8674 0.0000
0.7625 0.3483 0.0000
0.3295 0.8214 0.0000
0.3412 0.7756 0.0000
0.3664 0.7113 0.0000
0.8783 0.3117 0.0000
0.3501 0.7297 0.0000
0.7057 0.3580 0.0000
0.7858 0.3237 0.0000
0.7257 0.3455 0.0000
0.3355 0.7477 0.0000
0.8363 0.3032 0.0000
0.3498 0.6999 0.0000
0.7447 0.3291 0.0000
1.0000 0.2800 0.0000
0.2800 1.0000 0.0000
0.2794 0.9569 0.0000
0.9615 0.2779 0.0000
0.3326 0.7179 0.0000
0.2801 0.9127 0.0000
0.6936 0.3419 0.0000
0.2847 0.8665 0.0000
0.9228 0.2753 0.0000
0.7128 0.3285 0.0000
0.2921 0.8195 0.0000
0.7602 0.3086 0.0000
0.3033 0.7758 0.0000
0.3147 0.7412 0.0000
0.3342 0.6871 0.0000
0.7305 0.3141 0.0000
0.8833 0.2705 0.0000
0.7998 0.2876 0.0000
0.7436 0.3019 0.0000
0.6803 0.3268 0.0000
0.3147 0.7039 0.0000
0.6989 0.3111 0.0000
0.8465 0.2623 0.0000
0.3197 0.6732 0.0000
0.7181 0.2951 0.0000
0.7660 0.2772 0.0000
1.0000 0.2400 0.0000
0.2400 1.0000 0.0000
0.2395 0.9570 0.0000
0.9623 0.2379 0.0000
0.3033 0.6872 0.0000
0.2867 0.7266 0.0000
0.7391 0.2819 0.0000
0.6658 0.3129 0.0000
0.2402 0.9130 0.0000
0.2441 0.8665 0.0000
0.9241 0.2355 0.0000
0.2521 0.8179 0.0000
0.2648 0.7698 0.0000
0.2877 0.7007 0.0000
0.3064 0.6581 0.0000
0.6834 0.2942 0.0000
0.8864 0.2325 0.0000
0.8108 0.2442 0.0000
0.2899 0.6725 0.0000
0.6502 0.3001 0.0000
0.8557 0.2306 0.0000
0.7030 0.2743 0.0000
0.2943 0.6420 0.0000
0.2710 0.6909 0.0000
0.7273 0.2535 0.0000
0.6657 0.2787 0.0000
1.0000 0.2000 0.0000
0.2000 1.0000 0.0000
0.6336 0.2887 0.0000
0.2514 0.7173 0.0000
0.2756 0.6564 0.0000
0.1992 0.9576 0.0000
0.9620 0.1981 0.0000
0.7627 0.2311 0.0000
0.1993 0.9141 0.0000
0.9233 0.1961 0.0000
0.2835 0.6250 0.0000
0.2019 0.8680 0.0000
0.6830 0.2545 0.0000
0.2075 0.8181 0.0000
0.8823 0.1948 0.0000
0.2539 0.6737 0.0000
0.6460 0.2652 0.0000
0.6162 0.2786 0.0000
0.8346 0.1977 0.0000
0.2163 0.7604 0.0000
0.2633 0.6381 0.0000
0.2741 0.6072 0.0000
0.7040 0.2284 0.0000
0.2284 0.6955 0.0000
0.6248 0.2559 0.0000
0.5980 0.2700 0.0000
0.6595 0.2370 0.0000
0.7292 0.2095 0.0000
0.2397 0.6531 0.0000
0.2516 0.6187 0.0000
1.0000 0.1600 0.0000
0.1600 1.0000 0.0000
0.2662 0.5887 0.0000
0.1588 0.9585 0.0000
0.9622 0.1583 0.0000
0.1581 0.9163 0.0000
0.9233 0.1564 0.0000
0.6042 0.2491 0.0000
0.5792 0.2629 0.0000
0.1589 0.8722 0.0000
0.1958 0.7202 0.0000
0.8836 0.1548 0.0000
0.2123 0.6706 0.0000
0.6322 0.2291 0.0000
0.2599 0.5696 0.0000
0.7803 0.1720 0.0000
0.1609 0.8259 0.0000
0.2262 0.6315 0.0000
0.2418 0.5979 0.0000
0.8442 0.1523 0.0000
0.5598 0.2573 0.0000
0.5842 0.2424 0.0000
0.6765 0.1983 0.0000
0.1621 0.7781 0.0000
0.6083 0.2254 0.0000
0.2550 0.5500 0.0000
0.8115 0.1450 0.0000
0.1814 0.6889 0.0000
0.2335 0.5759 0.0000
0.1986 0.6460 0.0000
0.7210 0.1689 0.0000
0.5401 0.2532 0.0000
0.2141 0.6084 0.0000
0.5648 0.2361 0.0000
1.0000 0.1200 0.0000
0.1200 1.0000 0.0000
0.5886 0.2216 0.0000
0.6361 0.1981 0.0000
0.9623 0.1186 0.0000
0.1185 0.9594 0.0000
0.2518 0.5301 0.0000
0.1554 0.7378 0.0000
0.9238 0.1169 0.0000
0.1171 0.9188 0.0000
0.5201 0.2508 0.0000
0.6081 0.2005 0.0000
0.1177 0.8757 0.0000
0.8845 0.1155 0.0000
0.2278 0.5529 0.0000
0.5447 0.2310 0.0000
0.5916 0.2048 0.0000
0.2502 0.5101 0.0000
0.5703 0.2140 0.0000
0.1692 0.6615 0.0000
0.1178 0.8329 0.0000
0.2039 0.5833 0.0000
0.1845 0.6209 0.0000
0.8462 0.1139 0.0000
0.5000 0.2500 0.0000
0.1474 0.7037 0.0000
0.5242 0.2284 0.0000
0.2502 0.4899 0.0000
0.8095 0.1132 0.0000
0.1175 0.7897 0.0000
0.2245 0.5293 0.0000
0.6911 0.1470 0.0000
0.6623 0.1569 0.0000
0.7718 0.1199 0.0000
0.5787 0.1926 0.0000
0.4799 0.2508 0.0000
0.5494 0.2063 0.0000
0.6277 0.1636 0.0000
0.2518 0.4699 0.0000
0.1972 0.5560 0.0000
0.1405 0.6744 0.0000
0.5036 0.2260 0.0000
0.5965 0.1735 0.0000
0.1148 0.7499 0.0000
1.0000 0.0800 0.0000
0.0800 1.0000 0.0000
0.2237 0.5060 0.0000
0.1547 0.6362 0.0000
0.7277 0.1206 0.0000
0.4599 0.2532 0.0000
0.9618 0.0790 0.0000
0.0786 0.9601 0.0000
0.1700 0.5930 0.0000
0.9229 0.0780 0.0000
0.0778 0.9196 0.0000
0.2550 0.4500 0.0000
0.5267 0.2034 0.0000
0.4402 0.2573 0.0000
0.8839 0.0770 0.0000
0.0771 0.8790 0.0000
0.1358 0.6525 0.0000
0.2250 0.4832 0.0000
0.1115 0.7133 0.0000
0.1942 0.5282 0.0000
0.2599 0.4304 0.0000
0.5565 0.1781 0.0000
0.4830 0.2210 0.0000
[...]
         <PointData>
            <DataArray Name="Displacement" NumberOfComponents="3" format="ascii" type="Float64">
-5.74736e-19  5.00000e-02        00000 
 2.03794e-19  5.00000e-02        00000 
-1.86561e-03  4.71338e-02        00000 
-1.04863e-03  4.79680e-02        00000 
-2.90105e-03  4.47495e-02        00000 
-1.13877e-19  5.00000e-02        00000 
-2.11632e-03  4.57211e-02        00000 
-6.37296e-04  4.82577e-02        00000 
-1.43323e-03  4.64065e-02        00000 
-3.86040e-03  4.24713e-02        00000 
 4.92239e-20  5.00000e-02        00000 
-3.00932e-03  4.36022e-02        00000 
-3.78937e-04  4.84361e-02        00000 
-2.21450e-03  4.45958e-02        00000 
-9.90035e-04  4.67620e-02        00000 
-1.63585e-03  4.52937e-02        00000 
-3.91279e-03  4.15298e-02        00000 
-4.84032e-03  4.02173e-02        00000 
       00000  5.00000e-02        00000 
-1.82717e-04  4.85196e-02        00000 
-2.93212e-03  4.28464e-02        00000 
-7.09978e-04  4.67849e-02        00000 
-1.74644e-03  4.44872e-02        00000 
-4.98595e-03  3.93328e-02        00000 
-5.90632e-03  3.79976e-02        00000 
 4.95604e-20  5.00000e-02        00000 
 8.42045e-06  4.86685e-02        00000 
-4.02566e-03  4.06046e-02        00000 
-3.13271e-04  4.71364e-02        00000 
-2.95157e-03  4.19667e-02        00000 
-9.93329e-04  4.52703e-02        00000 
-6.19665e-03  3.71540e-02        00000 
-7.07129e-03  3.58383e-02        00000 
 4.70236e-20  5.00000e-02        00000 
 1.70624e-04  4.88818e-02        00000 
-5.25439e-03  3.83994e-02        00000 
 4.38560e-05  4.76431e-02        00000 
-1.99418e-03  4.31275e-02        00000 
-4.25651e-03  3.96079e-02        00000 
-3.86750e-04  4.62002e-02        00000 
-7.48063e-03  3.50717e-02        00000 
-8.31475e-03  3.37781e-02        00000 
-2.75752e-20  5.00000e-02        00000 
-6.60237e-03  3.62192e-02        00000 
 2.81506e-04  4.91041e-02        00000 
-3.32095e-03  4.07937e-02        00000 
 2.89545e-04  4.81897e-02        00000 
-5.70240e-03  3.72865e-02        00000 
-1.12707e-03  4.44993e-02        00000 
 6.90439e-05  4.72263e-02        00000 
-8.81564e-03  3.30559e-02        00000 
-9.57901e-03  3.18536e-02        00000 
 1.19170e-19  5.00000e-02        00000 
-2.49547e-03  4.21455e-02        00000 
-7.99488e-03  3.40941e-02        00000 
 3.33514e-04  4.93253e-02        00000 
-4.89301e-03  3.83170e-02        00000 
-7.16253e-03  3.51055e-02        00000 
 4.12203e-04  4.86794e-02        00000 
-3.38364e-04  4.63707e-02        00000 
-3.64691e-03  4.04277e-02        00000 
-1.32250e-03  4.45725e-02        00000 
 2.76007e-04  4.80302e-02        00000 
-2.29342e-03  4.28626e-02        00000 
-1.07764e-02  3.00879e-02        00000 
 1.16780e-19  5.00000e-02        00000 
-6.72061e-03  3.56230e-02        00000 
-1.01145e-02  3.11000e-02        00000 
-8.22185e-03  3.35057e-02        00000 
-3.11427e-03  4.15769e-02        00000 
 3.28646e-04  4.95141e-02        00000 
-6.55168e-04  4.60845e-02        00000 
-9.35878e-03  3.19572e-02        00000 
-3.88351e-05  4.74441e-02        00000 
-5.45089e-03  3.77609e-02        00000 
-4.32719e-03  3.97668e-02        00000 
 4.24882e-04  4.90932e-02        00000 
-3.49038e-04  4.69802e-02        00000 
-8.11571e-03  3.35173e-02        00000 
-3.47519e-03  4.14905e-02        00000 
-1.56434e-03  4.50006e-02        00000 
-6.80808e-03  3.55860e-02        00000 
-2.56136e-03  4.33317e-02        00000 
 3.21608e-04  4.86728e-02        00000 
-8.92440e-04  4.63738e-02        00000 
-1.18157e-02  2.84794e-02        00000 
-1.56851e-19  5.00000e-02        00000 
-1.13030e-02  2.91487e-02        00000 
-9.32906e-03  3.15905e-02        00000 
-4.35581e-04  4.73887e-02        00000 
 2.68435e-04  4.96742e-02        00000 
-4.92066e-03  3.96141e-02        00000 
-8.06882e-03  3.35278e-02        00000 
-4.08916e-03  4.13546e-02        00000 
-5.91086e-03  3.77170e-02        00000 
-1.07974e-02  2.95222e-02        00000 
 2.69744e-06  4.82586e-02        00000 
-3.42309e-03  4.29142e-02        00000 
-2.56351e-03  4.45546e-02        00000 
 3.54173e-04  4.94149e-02        00000 
-1.83861e-03  4.56929e-02        00000 
-3.15362e-03  4.39383e-02        00000 
-7.00501e-03  3.57233e-02        00000 
-1.23552e-03  4.68133e-02        00000 
-9.19651e-03  3.15037e-02        00000 
 2.90111e-04  4.92073e-02        00000 
-4.75405e-03  4.16391e-02        00000 
-1.04598e-02  2.94866e-02        00000 
-4.08545e-03  4.31513e-02        00000 
-7.78700e-04  4.77384e-02        00000 
-5.51955e-03  3.99494e-02        00000 
-3.54225e-03  4.43673e-02        00000 
-1.25860e-02  2.70191e-02        00000 
 8.53496e-20  5.00000e-02        00000 
-8.07224e-03  3.36950e-02        00000 
-2.93025e-03  4.53529e-02        00000 
-6.35169e-03  3.81387e-02        00000 
-1.21351e-02  2.73728e-02        00000 
-2.29386e-03  4.63697e-02        00000 
 1.74327e-04  4.97761e-02        00000 
-4.21601e-04  4.84599e-02        00000 
 8.02674e-05  4.90795e-02        00000 
-1.73738e-03  4.72954e-02        00000 
-1.16654e-02  2.75230e-02        00000 
-7.22772e-03  3.62169e-02        00000 
 2.27951e-04  4.96339e-02        00000 
-4.84057e-03  4.38435e-02        00000 
-4.18795e-03  4.50866e-02        00000 
-1.01387e-02  2.94839e-02        00000 
-9.02376e-03  3.16679e-02        00000 
-5.50361e-03  4.24182e-02        00000 
-3.55924e-03  4.61425e-02        00000 
-1.28029e-03  4.80767e-02        00000 
-6.16256e-03  4.08264e-02        00000 
-8.05020e-03  3.42073e-02        00000 
-2.96264e-03  4.70432e-02        00000 
 1.91928e-04  4.95461e-02        00000 
-1.11981e-02  2.75397e-02        00000 
-6.80185e-03  3.90777e-02        00000 
-2.38671e-04  4.90987e-02        00000 
-2.41081e-03  4.77889e-02        00000 
-9.04739e-04  4.86793e-02        00000 
-7.40618e-03  3.71864e-02        00000 
-9.79290e-03  2.96599e-02        00000 
-1.29943e-02  2.56637e-02        00000 
       00000  5.00000e-02        00000 
 6.75097e-05  4.94981e-02        00000 
-8.78134e-03  3.21470e-02        00000 
-1.25431e-02  2.57382e-02        00000 
-1.90963e-03  4.83866e-02        00000 
-1.07595e-02  2.75697e-02        00000 
 5.60459e-05  4.98237e-02        00000 
-7.94649e-03  3.51614e-02        00000 
-1.20461e-02  2.57294e-02        00000 
-6.27075e-04  4.91609e-02        00000 
 6.51875e-05  4.97372e-02        00000 
-1.24866e-04  4.94809e-02        00000 
-1.45971e-03  4.88478e-02        00000 
-9.36937e-03  3.00528e-02        00000 
-1.15298e-02  2.56920e-02        00000 
-1.03127e-02  2.76629e-02        00000 
 5.95526e-05  4.97087e-02        00000 
-8.40810e-03  3.30252e-02        00000 
-1.05196e-03  4.91955e-02        00000 
-3.82765e-04  4.94754e-02        00000 
 2.14607e-05  4.97000e-02        00000 
-1.10360e-02  2.57242e-02        00000 
-8.76864e-03  3.07973e-02        00000 
-5.74317e-05  4.96753e-02        00000 
-9.76433e-03  2.79454e-02        00000 
-1.29889e-02  2.43446e-02        00000 
-2.85329e-20  5.00000e-02        00000 
-1.25160e-02  2.41424e-02        00000 
-6.78197e-04  4.94306e-02        00000 
-7.67964e-05  4.98128e-02        00000 
-1.05398e-02  2.57947e-02        00000 
-1.19800e-02  2.39616e-02        00000 
-1.83874e-04  4.96475e-02        00000 
-1.11209e-04  4.97093e-02        00000 
-9.01709e-03  2.85019e-02        00000 
-1.14332e-02  2.38253e-02        00000 
-1.99559e-06  4.97218e-02        00000 
-9.94424e-03  2.59026e-02        00000 
-8.10932e-05  4.96779e-02        00000 
-3.29795e-04  4.95685e-02        00000 
-1.09664e-02  2.39174e-02        00000 
 6.41053e-06  4.97192e-02        00000 
-4.47986e-06  4.97081e-02        00000 
-9.14200e-03  2.61678e-02        00000 
-1.04828e-02  2.39105e-02        00000 
 6.23194e-06  4.96140e-02        00000 
-9.90456e-03  2.38408e-02        00000 
-1.25741e-02  2.29842e-02        00000 
 2.36025e-20  5.00000e-02        00000 
-1.20567e-02  2.24814e-02        00000 
 1.40158e-04  4.96636e-02        00000 
-2.02712e-04  4.97411e-02        00000 
-1.14822e-02  2.20921e-02        00000 
-9.14161e-03  2.38143e-02        00000 
-1.05702e-02  2.21435e-02        00000 
-2.76084e-04  4.95325e-02        00000 
-1.02053e-02  2.21716e-02        00000 
-1.07928e-02  2.15863e-02        00000 
 3.36778e-04  4.95651e-02        00000 
-9.69825e-03  2.18837e-02        00000 
 4.87300e-05  4.94398e-02        00000 
-2.00230e-04  4.93646e-02        00000 
-9.01346e-03  2.14766e-02        00000 
-1.01124e-02  2.09624e-02        00000 
 3.29194e-04  4.94672e-02        00000 
-9.79225e-03  2.05899e-02        00000 
 6.79526e-04  4.94306e-02        00000 
-1.18106e-02  2.15235e-02        00000 
 1.09197e-20  5.00000e-02        00000 
-9.32898e-03  1.99462e-02        00000 
-1.12533e-02  2.07670e-02        00000 
-9.88769e-03  2.00958e-02        00000 
-2.94171e-04  4.96180e-02        00000 
-8.76463e-03  1.91733e-02        00000 
-1.06425e-02  2.01595e-02        00000 
-5.12123e-05  4.90392e-02        00000 
 1.79921e-04  4.90745e-02        00000 
-3.89757e-04  4.92560e-02        00000 
 5.53129e-04  4.91495e-02        00000 
-9.35388e-03  1.92005e-02        00000 
 1.04834e-03  4.92004e-02        00000 
-9.86744e-03  1.93399e-02        00000 
-8.89233e-03  1.82338e-02        00000 
-2.89899e-04  4.89080e-02        00000 
-8.40041e-03  1.69527e-02        00000 
-5.10150e-05  4.86085e-02        00000 
-9.04182e-03  1.82047e-02        00000 
 3.17078e-04  4.85562e-02        00000 
 8.25566e-04  4.86694e-02        00000 
 1.45498e-03  4.88581e-02        00000 
-8.61255e-03  1.74326e-02        00000 
-1.07766e-02  1.99186e-02        00000 
 2.33756e-20  5.00000e-02        00000 
-8.27703e-03  1.63975e-02        00000 
-1.01619e-02  1.89654e-02        00000 
-3.44575e-04  4.94470e-02        00000 
-7.94194e-03  1.48304e-02        00000 
-9.48213e-03  1.81584e-02        00000 
-4.25577e-04  4.88903e-02        00000 
-2.86660e-04  4.83520e-02        00000 
 1.90564e-03  4.83888e-02        00000 
-8.59934e-03  1.71331e-02        00000 
 1.17452e-03  4.79966e-02        00000 
 4.37618e-05  4.79109e-02        00000 
 5.48484e-04  4.77634e-02        00000 
-7.49378e-03  1.44186e-02        00000 
-7.54388e-03  1.53411e-02        00000 
-7.40708e-03  1.28131e-02        00000 
-7.52831e-03  1.56331e-02        00000 
 2.39693e-03  4.77836e-02        00000 
-9.57619e-03  1.81510e-02        00000 
 1.62917e-20  5.00000e-02        00000 
-8.90658e-03  1.70797e-02        00000 
-3.39388e-04  4.92476e-02        00000 
 1.60649e-03  4.71308e-02        00000 
-6.80600e-03  1.09142e-02        00000 
-3.78304e-04  4.84468e-02        00000 
-6.61593e-03  1.23592e-02        00000 
-8.15565e-03  1.61090e-02        00000 
-1.67890e-04  4.76407e-02        00000 
-6.39380e-03  1.30832e-02        00000 
 2.71881e-04  4.69347e-02        00000 
 9.56667e-04  4.65225e-02        00000 
 2.94348e-03  4.70540e-02        00000 
-7.24362e-03  1.49930e-02        00000 
 2.21160e-03  4.63223e-02        00000 
-6.16025e-03  9.16060e-03        00000 
-5.90089e-03  1.28973e-02        00000 
-5.76984e-03  1.04943e-02        00000 
 1.74736e-03  4.58454e-02        00000 
-6.14828e-03  1.35210e-02        00000 
 3.54088e-03  4.61438e-02        00000 
-5.37951e-03  1.10855e-02        00000 
-8.31093e-03  1.62237e-02        00000 
-9.25378e-20  5.00000e-02        00000 
-2.80031e-04  4.90298e-02        00000 
-7.59025e-03  1.50968e-02        00000 
 2.75681e-03  4.52341e-02        00000 
-2.38336e-04  4.79732e-02        00000 
-5.49291e-03  7.58072e-03        00000 
 6.31652e-05  4.68690e-02        00000 
-6.82414e-03  1.40793e-02        00000 
-4.96705e-03  8.87145e-03        00000 
 6.01063e-04  4.58064e-02        00000 
-4.87319e-03  1.09743e-02        00000 
 1.32480e-03  4.50356e-02        00000 
 2.08987e-03  4.47005e-02        00000 
 4.17161e-03  4.50641e-02        00000 
-4.59616e-03  9.56412e-03        00000 
-5.93796e-03  1.29662e-02        00000 
-4.87897e-03  1.16006e-02        00000 
-4.35032e-03  9.81578e-03        00000 
-4.82181e-03  6.17620e-03        00000 
 3.42726e-03  4.38884e-02        00000 
-4.13780e-03  7.34973e-03        00000 
-4.95732e-03  1.16733e-02        00000 
 4.83222e-03  4.38422e-02        00000 
-3.71456e-03  8.12924e-03        00000 
-3.87683e-03  9.79561e-03        00000 
-7.06670e-03  1.41627e-02        00000 
 4.09776e-20  5.00000e-02        00000 
-1.66655e-04  4.88183e-02        00000 
-6.33352e-03  1.30706e-02        00000 
 4.19890e-03  4.27774e-02        00000 
 2.86712e-03  4.28223e-02        00000 
-3.56373e-03  8.78115e-03        00000 
-4.16542e-03  4.94402e-03        00000 
-8.39752e-06  4.75105e-02        00000 
 4.23935e-04  4.60783e-02        00000 
-5.56971e-03  1.20653e-02        00000 
 1.09277e-03  4.46095e-02        00000 
 1.97368e-03  4.33447e-02        00000 
 3.82448e-03  4.21067e-02        00000 
 5.50981e-03  4.24273e-02        00000 
-3.34111e-03  5.94513e-03        00000 
-4.78169e-03  1.10867e-02        00000 
-3.69356e-03  9.82127e-03        00000 
 4.91370e-03  4.13600e-02        00000 
-3.53955e-03  3.87805e-03        00000 
-4.15165e-03  1.02920e-02        00000 
-2.79094e-03  6.62981e-03        00000 
 6.17707e-03  4.08330e-02        00000 
 4.38771e-03  4.06956e-02        00000 
-2.47525e-03  7.17002e-03        00000 
-2.62000e-03  4.63501e-03        00000 
-5.90094e-03  1.20019e-02        00000 
-5.91699e-21  5.00000e-02        00000 
-2.95541e-03  2.97120e-03        00000 
 3.75504e-03  4.07318e-02        00000 
 5.69648e-03  3.96713e-02        00000 
-8.61449e-06  4.86288e-02        00000 
-5.15419e-03  1.09645e-02        00000 
-2.41033e-03  7.70878e-03        00000 
 2.97956e-04  4.70978e-02        00000 
-4.39854e-03  1.00075e-02        00000 
 6.82268e-03  3.90866e-02        00000 
 8.77131e-04  4.53826e-02        00000 
-1.94630e-03  5.10596e-03        00000 
 1.74198e-03  4.34722e-02        00000 
-3.61386e-03  9.08840e-03        00000 
 5.29853e-03  3.89418e-02        00000 
-2.01678e-03  3.46838e-03        00000 
-2.41779e-03  2.21285e-03        00000 
-2.81846e-03  8.20771e-03        00000 
 3.02436e-03  4.12065e-02        00000 
 6.53597e-03  3.78926e-02        00000 
 7.42362e-03  3.71908e-02        00000 
-1.49000e-03  5.36463e-03        00000 
 4.93917e-03  3.86718e-02        00000 
-1.59263e-03  2.48488e-03        00000 
-1.92214e-03  1.60262e-03        00000 
-1.27344e-03  3.72151e-03        00000 
-1.40778e-03  5.72776e-03        00000 
 6.31797e-03  3.71075e-02        00000 
 7.37478e-03  3.59554e-02        00000 
-4.83510e-03  9.78058e-03        00000 
 1.18518e-19  5.00000e-02        00000 
 7.96394e-03  3.51677e-02        00000 
 1.83430e-04  4.84668e-02        00000 
-4.09381e-03  8.82463e-03        00000 
 6.56795e-04  4.67610e-02        00000 
-3.34513e-03  7.93053e-03        00000 
-1.26850e-03  1.74354e-03        00000 
-1.46809e-03  1.13739e-03        00000 
 1.37073e-03  4.48664e-02        00000 
 4.70399e-03  3.86564e-02        00000 
-2.61167e-03  7.10799e-03        00000 
 6.15672e-03  3.67162e-02        00000 
-9.13394e-04  2.55415e-03        00000 
 8.42302e-03  3.30290e-02        00000 
-1.33782e-03  5.83517e-03        00000 
 2.32203e-03  4.27915e-02        00000 
 7.34626e-03  3.51842e-02        00000 
 8.16830e-03  3.39584e-02        00000 
-1.92095e-03  6.29525e-03        00000 
-1.05774e-03  8.00943e-04        00000 
-9.58981e-04  1.19635e-03        00000 
-5.93956e-04  3.64893e-03        00000 
 3.55757e-03  4.05327e-02        00000 
-7.23282e-04  1.76219e-03        00000 
 8.78476e-03  3.08034e-02        00000 
-1.30487e-03  5.39683e-03        00000 
 6.09117e-03  3.65823e-02        00000 
 8.88210e-03  3.18713e-02        00000 
 7.32236e-03  3.48240e-02        00000 
-5.36596e-04  4.26192e-03        00000 
-6.85115e-04  5.73257e-04        00000 
 8.33842e-03  3.32037e-02        00000 
-6.79102e-04  8.13191e-04        00000 
-3.85683e-03  7.52600e-03        00000 
-7.59754e-20  5.00000e-02        00000 
-5.66280e-04  1.23804e-03        00000 
-3.71834e-04  2.35177e-03        00000 
-3.12257e-03  6.64572e-03        00000 
 4.07291e-04  4.83175e-02        00000 
 9.03319e-03  2.85081e-02        00000 
 4.92195e-03  3.83667e-02        00000 
-2.40636e-03  5.85533e-03        00000 
 1.06298e-03  4.64653e-02        00000 
-3.38108e-04  4.37090e-04        00000 
-3.05451e-04  1.61125e-03        00000 
 1.90416e-03  4.44089e-02        00000 
-1.75573e-03  5.19195e-03        00000 
 9.44470e-03  2.97668e-02        00000 
-4.34099e-04  5.41306e-04        00000 
-3.25555e-04  1.25028e-03        00000 
 9.15830e-03  2.61741e-02        00000 
-3.71099e-04  8.59365e-04        00000 
 7.31141e-03  3.47413e-02        00000 
 2.89447e-03  4.22931e-02        00000 
 9.24252e-03  3.11688e-02        00000 
 8.45201e-03  3.28906e-02        00000 
-1.19657e-03  4.59555e-03        00000 
-1.62238e-06  3.91848e-04        00000 
 6.23215e-03  3.64138e-02        00000 
-2.28483e-04  3.74548e-04        00000 
 9.15510e-03  2.38222e-02        00000 
-7.34303e-04  4.06486e-03        00000 
 4.05981e-03  4.01162e-02        00000 
 9.81438e-03  2.76412e-02        00000 
-4.52234e-05  2.93562e-03        00000 
 2.70502e-05  2.46429e-03        00000 
-4.07861e-04  3.73435e-03        00000 
-1.43920e-04  9.51235e-04        00000 
 3.28936e-04  4.42017e-04        00000 
-2.05123e-04  5.56003e-04        00000 
 8.04055e-05  1.76430e-03        00000 
 9.02696e-03  2.14841e-02        00000 
 9.97305e-03  2.90987e-02        00000 
 7.39317e-03  3.46982e-02        00000 
-3.55424e-05  3.00803e-04        00000 
 2.51948e-05  1.19731e-03        00000 
 5.31745e-03  3.80302e-02        00000 
-2.89691e-03  5.24865e-03        00000 
 8.99778e-20  5.00000e-02        00000 
 9.95737e-03  2.55424e-02        00000 
 8.45818e-03  3.29667e-02        00000 
-3.72478e-05  3.02084e-03        00000 
 6.71114e-04  5.76165e-04        00000 
-2.17524e-03  4.40881e-03        00000 
 6.83454e-04  4.81450e-02        00000 
 9.53721e-03  3.08448e-02        00000 
-1.51500e-03  3.79486e-03        00000 
 1.55615e-03  4.60859e-02        00000 
 8.77635e-03  1.91829e-02        00000 
-1.02668e-04  3.55170e-04        00000 
 1.04160e-03  8.05038e-04        00000 
-1.00227e-03  3.34383e-03        00000 
 2.48941e-03  4.39348e-02        00000 
 8.23269e-03  3.34285e-02        00000 
 9.88760e-03  2.34548e-02        00000 
 6.58557e-03  3.60795e-02        00000 
 1.04180e-02  2.70598e-02        00000 
 8.41288e-03  1.69497e-02        00000 
-6.50946e-06  6.04184e-04        00000 
 1.13757e-04  3.28471e-04        00000 
-3.13102e-05  2.87621e-04        00000 
-5.90527e-04  2.95292e-03        00000 
 2.32243e-04  2.25268e-03        00000 
 3.49835e-03  4.17526e-02        00000 
 1.45016e-03  1.14192e-03        00000 
 7.94750e-03  1.48124e-02        00000 
 9.62800e-03  2.14277e-02        00000 
 1.90375e-03  1.60523e-03        00000 
-2.54891e-04  2.60243e-03        00000 
 4.61760e-03  3.96024e-02        00000 
 1.04417e-02  2.86940e-02        00000 
 3.21624e-04  1.71852e-03        00000 
 7.40499e-03  1.27905e-02        00000 
 7.78719e-03  3.42807e-02        00000 
 1.05536e-02  2.50703e-02        00000 
 3.08170e-04  5.09664e-04        00000 
 2.40446e-03  2.20425e-03        00000 
 9.22045e-03  1.94362e-02        00000 
 6.80398e-03  1.08980e-02        00000 
 1.41369e-05  2.28642e-03        00000 
 4.35003e-06  3.33715e-04        00000 
 2.95088e-03  2.95034e-03        00000 
 6.16366e-03  9.15350e-03        00000 
 3.22353e-04  1.19657e-03        00000 
 3.54384e-03  3.85176e-03        00000 
 8.83399e-03  3.26546e-02        00000 
 5.81789e-03  3.75412e-02        00000 
 9.77375e-03  3.09172e-02        00000 
 5.50295e-03  7.57735e-03        00000 
 4.17615e-03  4.92249e-03        00000 
 4.83425e-03  6.16299e-03        00000 
 5.55523e-04  8.38074e-04        00000 
 8.67012e-03  1.74809e-02        00000 
 1.03917e-02  2.31402e-02        00000 
-4.02478e-19  5.00000e-02        00000 
-1.86392e-03  2.86865e-03        00000 