<?xml version="1.0" encoding="utf-8"?>
<VTKFile byte_order="LittleEndian" type="UnstructuredGrid" version="0.1">
   <UnstructuredGrid>
      <Piece NumberOfCells="641" NumberOfPoints="730">
         <Points>
            <DataArray Name="Points" NumberOfComponents="3" format="ascii" type="Float32">
1.0000 1.0000 0.0000
0.9600 1.0000 0.0000
1.0000 0.9600 0.0000
0.9603 0.9614 0.0000
1.0000 0.9200 0.0000
0.9200 1.0000 0.0000
0.9612 0.9231 0.0000
0.9211 0.9624 0.0000
0.9230 0.9260 0.0000
1.0000 0.8800 0.0000
0.8800 1.0000 0.0000
0.9614 0.8856 0.0000
0.8829 0.9623 0.0000
0.9240 0.8918 0.0000
0.8875 0.9262 0.0000
0.8933 0.8971 0.0000
0.9597 0.8473 0.0000
1.0000 0.8400 0.0000
0.8400 1.0000 0.0000
0.8440 0.9601 0.0000
0.9173 0.8563 0.0000
0.8514 0.9190 0.0000
0.8690 0.8729 0.0000
0.9592 0.8063 0.0000
1.0000 0.8000 0.0000
0.8000 1.0000 0.0000
0.8021 0.9589 0.0000
0.9165 0.8130 0.0000
0.8054 0.9165 0.0000
0.8676 0.8205 0.0000
0.8109 0.8707 0.0000
0.9597 0.7652 0.0000
1.0000 0.7600 0.0000
0.7600 1.0000 0.0000
0.7590 0.9590 0.0000
0.9161 0.7702 0.0000
0.7581 0.9167 0.0000
0.8122 0.8209 0.0000
0.8679 0.7733 0.0000
0.7569 0.8708 0.0000
0.9590 0.7242 0.0000
1.0000 0.7200 0.0000
0.7200 1.0000 0.0000
0.9153 0.7275 0.0000
0.7165 0.9591 0.0000
0.8165 0.7719 0.0000
0.7126 0.9181 0.0000
0.8686 0.7282 0.0000
0.7510 0.8174 0.0000
0.7082 0.8753 0.0000
0.9580 0.6829 0.0000
1.0000 0.6800 0.0000
0.6800 1.0000 0.0000
0.7693 0.7706 0.0000
0.9140 0.6851 0.0000
0.6742 0.9594 0.0000
0.8161 0.7213 0.0000
0.8740 0.6885 0.0000
0.6685 0.9181 0.0000
0.7012 0.8339 0.0000
0.7734 0.7344 0.0000
0.7152 0.7855 0.0000
0.6650 0.8760 0.0000
0.7356 0.7577 0.0000
1.0000 0.6400 0.0000
0.6400 1.0000 0.0000
0.8350 0.6800 0.0000
0.9558 0.6404 0.0000
0.8757 0.6585 0.0000
0.7480 0.7370 0.0000
0.6333 0.9593 0.0000
0.6862 0.8039 0.0000
0.9052 0.6395 0.0000
0.6619 0.8374 0.0000
0.7838 0.6876 0.0000
0.7581 0.7055 0.0000
0.6270 0.9175 0.0000
0.6640 0.8136 0.0000
0.8474 0.6471 0.0000
0.7341 0.7184 0.0000
0.6889 0.7621 0.0000
0.8018 0.6601 0.0000
0.7087 0.7349 0.0000
0.6240 0.8728 0.0000
0.6655 0.7821 0.0000
1.0000 0.6000 0.0000
0.6000 1.0000 0.0000
0.9579 0.5979 0.0000
0.8635 0.6181 0.0000
0.6438 0.7994 0.0000
0.5930 0.9599 0.0000
0.7406 0.6813 0.0000
0.8153 0.6317 0.0000
0.7215 0.6960 0.0000
0.7582 0.6627 0.0000
0.9144 0.5934 0.0000
0.6224 0.8262 0.0000
0.7025 0.7080 0.0000
0.6817 0.7264 0.0000
0.5880 0.9170 0.0000
0.6661 0.7445 0.0000
0.6874 0.7117 0.0000
0.7729 0.6402 0.0000
0.6462 0.7610 0.0000
0.8270 0.6029 0.0000
0.5855 0.8736 0.0000
0.7078 0.6759 0.0000
0.8731 0.5824 0.0000
0.6922 0.6895 0.0000
0.6247 0.7752 0.0000
0.7227 0.6602 0.0000
0.6777 0.7007 0.0000
1.0000 0.5600 0.0000
0.5600 1.0000 0.0000
0.7852 0.6159 0.0000
0.6645 0.7138 0.0000
0.7363 0.6426 0.0000
0.9599 0.5572 0.0000
0.6483 0.7278 0.0000
0.5542 0.9595 0.0000
0.6026 0.7897 0.0000
0.5823 0.8324 0.0000
0.6299 0.7405 0.0000
0.9195 0.5531 0.0000
0.7477 0.6223 0.0000
0.5507 0.9171 0.0000
0.6803 0.6732 0.0000
0.6658 0.6871 0.0000
0.8355 0.5722 0.0000
0.7947 0.5901 0.0000
0.6936 0.6581 0.0000
0.6502 0.6999 0.0000
0.6098 0.7514 0.0000
0.7057 0.6420 0.0000
0.7579 0.6014 0.0000
0.6336 0.7113 0.0000
0.5497 0.8744 0.0000
0.8778 0.5472 0.0000
0.7165 0.6250 0.0000
0.5740 0.7964 0.0000
0.6162 0.7214 0.0000
0.5892 0.7610 0.0000
0.7259 0.6072 0.0000
0.8020 0.5638 0.0000
1.0000 0.5200 0.0000
0.5200 1.0000 0.0000
0.5492 0.8345 0.0000
0.7657 0.5790 0.0000
0.9606 0.5179 0.0000
0.5980 0.7300 0.0000
0.8398 0.5417 0.0000
0.5158 0.9583 0.0000
0.7338 0.5887 0.0000
0.9203 0.5154 0.0000
0.5665 0.7670 0.0000
0.5131 0.9159 0.0000
0.5474 0.8009 0.0000
0.5792 0.7371 0.0000
0.7720 0.5563 0.0000
0.8787 0.5129 0.0000
0.8059 0.5366 0.0000
0.5141 0.8719 0.0000
0.7401 0.5696 0.0000
0.5598 0.7427 0.0000
0.5440 0.7719 0.0000
0.5175 0.8314 0.0000
0.8405 0.5118 0.0000
0.7450 0.5500 0.0000
0.5225 0.8010 0.0000
0.7754 0.5328 0.0000
1.0000 0.4800 0.0000
0.4800 1.0000 0.0000
0.9602 0.4791 0.0000
0.5401 0.7468 0.0000
0.4767 0.9571 0.0000
0.8069 0.5110 0.0000
0.9179 0.4782 0.0000
0.5221 0.7741 0.0000
0.4748 0.9127 0.0000
0.7482 0.5301 0.0000
0.8747 0.4784 0.0000
0.5027 0.7984 0.0000
0.7768 0.5101 0.0000
0.4760 0.8661 0.0000
0.5201 0.7492 0.0000
0.8373 0.4828 0.0000
0.4848 0.8182 0.0000
0.5012 0.7757 0.0000
0.7498 0.5101 0.0000
0.8046 0.4854 0.0000
0.5000 0.7500 0.0000
0.7754 0.4874 0.0000
1.0000 0.4400 0.0000
0.4400 1.0000 0.0000
0.9587 0.4395 0.0000
0.4799 0.7803 0.0000
0.4361 0.9573 0.0000
0.9156 0.4395 0.0000
0.7498 0.4899 0.0000
0.8291 0.4561 0.0000
0.4343 0.9109 0.0000
0.8003 0.4626 0.0000
0.8632 0.4393 0.0000
0.4799 0.7492 0.0000
0.7730 0.4662 0.0000
0.4477 0.8146 0.0000
0.4327 0.8588 0.0000
0.7482 0.4699 0.0000
0.8161 0.4410 0.0000
0.4541 0.7785 0.0000
0.7944 0.4428 0.0000
0.4599 0.7468 0.0000
1.0000 0.4000 0.0000
0.4000 1.0000 0.0000
0.7686 0.4455 0.0000
0.9592 0.3996 0.0000
0.8248 0.4242 0.0000
0.3968 0.9575 0.0000
0.7450 0.4500 0.0000
0.9170 0.3993 0.0000
0.4159 0.8309 0.0000
0.4229 0.8031 0.0000
0.3948 0.9133 0.0000
0.4316 0.7723 0.0000
0.7936 0.4233 0.0000
0.4402 0.7427 0.0000
0.8698 0.3967 0.0000
0.7652 0.4264 0.0000
0.3936 0.8689 0.0000
0.7401 0.4304 0.0000
0.3920 0.8309 0.0000
0.8264 0.3924 0.0000
0.3992 0.7968 0.0000
0.4094 0.7650 0.0000
0.4208 0.7371 0.0000
0.7903 0.3985 0.0000
1.0000 0.3600 0.0000
0.3600 1.0000 0.0000
0.7600 0.4056 0.0000
0.9598 0.3592 0.0000
0.3583 0.9570 0.0000
0.7338 0.4113 0.0000
0.9182 0.3582 0.0000
0.3575 0.9135 0.0000
0.3585 0.8699 0.0000
0.4020 0.7300 0.0000
0.8721 0.3546 0.0000
0.3871 0.7558 0.0000
0.3627 0.8272 0.0000
0.3723 0.7881 0.0000
0.7509 0.3845 0.0000
0.7810 0.3713 0.0000
0.7259 0.3928 0.0000
0.8206 0.3501 0.0000
0.3838 0.7214 0.0000
1.0000 0.3200 0.0000
0.3200 1.0000 0.0000
0.9609 0.3186 0.0000
0.3188 0.9571 0.0000
0.3655 0.7452 0.0000
0.7165 0.3750 0.0000
0.3191 0.9130 0.0000
0.7387 0.3639 0.0000
0.9203 0.3164 0.0000
0.3226 0.8674 0.0000
0.7625 0.3483 0.0000
0.3295 0.8214 0.0000
0.3412 0.7756 0.0000
0.3664 0.7113 0.0000
0.8783 0.3117 0.0000
0.3501 0.7297 0.0000
0.7057 0.3580 0.0000
0.7858 0.3237 0.0000
0.7257 0.3455 0.0000
0.3355 0.7477 0.0000
0.8363 0.3032 0.0000
0.3498 0.6999 0.0000
0.7447 0.3291 0.0000
1.0000 0.2800 0.0000
0.2800 1.0000 0.0000
0.2794 0.9569 0.0000
0.9615 0.2779 0.0000
0.3326 0.7179 0.0000
0.2801 0.9127 0.0000
0.6936 0.3419 0.0000
0.2847 0.8665 0.0000
0.9228 0.2753 0.0000
0.7128 0.3285 0.0000
0.2921 0.8195 0.0000
0.7602 0.3086 0.0000
0.3033 0.7758 0.0000
0.3147 0.7412 0.0000
0.3342 0.6871 0.0000
0.7305 0.3141 0.0000
0.8833 0.2705 0.0000
0.7998 0.2876 0.0000
0.7436 0.3019 0.0000
0.6803 0.3268 0.0000
0.3147 0.7039 0.0000
0.6989 0.3111 0.0000
0.8465 0.2623 0.0000
0.3197 0.6732 0.0000
0.7181 0.2951 0.0000
0.7660 0.2772 0.0000
1.0000 0.2400 0.0000
0.2400 1.0000 0.0000
0.2395 0.9570 0.0000
0.9623 0.2379 0.0000
0.3033 0.6872 0.0000
0.2867 0.7266 0.0000
0.7391 0.2819 0.0000
0.6658 0.3129 0.0000
0.2402 0.9130 0.0000
0.2441 0.8665 0.0000
0.9241 0.2355 0.0000
0.2521 0.8179 0.0000
0.2648 0.7698 0.0000
0.2877 0.7007 0.0000
0.3064 0.6581 0.0000
0.6834 0.2942 0.0000
0.8864 0.2325 0.0000
0.8108 0.2442 0.0000
0.2899 0.6725 0.0000
0.6502 0.3001 0.0000
0.8557 0.2306 0.0000
0.7030 0.2743 0.0000
0.2943 0.6420 0.0000
0.2710 0.6909 0.0000
0.7273 0.2535 0.0000
0.6657 0.2787 0.0000
1.0000 0.2000 0.0000
0.2000 1.0000 0.0000
0.6336 0.2887 0.0000
0.2514 0.7173 0.0000
0.2756 0.6564 0.0000
0.1992 0.9576 0.0000
0.9620 0.1981 0.0000
0.7627 0.2311 0.0000
0.1993 0.9141 0.0000
0.9233 0.1961 0.0000
0.2835 0.6250 0.0000
0.2019 0.8680 0.0000
0.6830 0.2545 0.0000
0.2075 0.8181 0.0000
0.8823 0.1948 0.0000
0.2539 0.6737 0.0000
0.6460 0.2652 0.0000
0.6162 0.2786 0.0000
0.8346 0.1977 0.0000
0.2163 0.7604 0.0000
0.2633 0.6381 0.0000
0.2741 0.6072 0.0000
0.7040 0.2284 0.0000
0.2284 0.6955 0.0000
0.6248 0.2559 0.0000
0.5980 0.2700 0.0000
0.6595 0.2370 0.0000
0.7292 0.2095 0.0000
0.2397 0.6531 0.0000
0.2516 0.6187 0.0000
1.0000 0.1600 0.0000
0.1600 1.0000 0.0000
0.2662 0.5887 0.0000
0.1588 0.9585 0.0000
0.9622 0.1583 0.0000
0.1581 0.9163 0.0000
0.9233 0.1564 0.0000
0.6042 0.2491 0.0000
0.5792 0.2629 0.0000
0.1589 0.8722 0.0000
0.1958 0.7202 0.0000
0.8836 0.1548 0.0000
0.2123 0.6706 0.0000
0.6322 0.2291 0.0000
0.2599 0.5696 0.0000
0.7803 0.1720 0.0000
0.1609 0.8259 0.0000
0.2262 0.6315 0.0000
0.2418 0.5979 0.0000
0.8442 0.1523 0.0000
0.5598 0.2573 0.0000
0.5842 0.2424 0.0000
0.6765 0.1983 0.0000
0.1621 0.7781 0.0000
0.6083 0.2254 0.0000
0.2550 0.5500 0.0000
0.8115 0.1450 0.0000
0.1814 0.6889 0.0000
0.2335 0.5759 0.0000
0.1986 0.6460 0.0000
0.7210 0.1689 0.0000
0.5401 0.2532 0.0000
0.2141 0.6084 0.0000
0.5648 0.2361 0.0000
1.0000 0.1200 0.0000
0.1200 1.0000 0.0000
0.5886 0.2216 0.0000
0.6361 0.1981 0.0000
0.9623 0.1186 0.0000
0.1185 0.9594 0.0000
0.2518 0.5301 0.0000
0.1554 0.7378 0.0000
0.9238 0.1169 0.0000
0.1171 0.9188 0.0000
0.5201 0.2508 0.0000
0.6081 0.2005 0.0000
0.1177 0.8757 0.0000
0.8845 0.1155 0.0000
0.2278 0.5529 0.0000
0.5447 0.2310 0.0000
0.5916 0.2048 0.0000
0.2502 0.5101 0.0000
0.5703 0.2140 0.0000
0.1692 0.6615 0.0000
0.1178 0.8329 0.0000
0.2039 0.5833 0.0000
0.1845 0.6209 0.0000
0.8462 0.1139 0.0000
0.5000 0.2500 0.0000
0.1474 0.7037 0.0000
0.5242 0.2284 0.0000
0.2502 0.4899 0.0000
0.8095 0.1132 0.0000
0.1175 0.7897 0.0000
0.2245 0.5293 0.0000
0.6911 0.1470 0.0000
0.6623 0.1569 0.0000
0.7718 0.1199 0.0000
0.5787 0.1926 0.0000
0.4799 0.2508 0.0000
0.5494 0.2063 0.0000
0.6277 0.1636 0.0000
0.2518 0.4699 0.0000
0.1972 0.5560 0.0000
0.1405 0.6744 0.0000
0.5036 0.2260 0.0000
0.5965 0.1735 0.0000
0.1148 0.7499 0.0000
1.0000 0.0800 0.0000
0.0800 1.0000 0.0000
0.2237 0.5060 0.0000
0.1547 0.6362 0.0000
0.7277 0.1206 0.0000
0.4599 0.2532 0.0000
0.9618 0.0790 0.0000
0.0786 0.9601 0.0000
0.1700 0.5930 0.0000
0.9229 0.0780 0.0000
0.0778 0.9196 0.0000
0.2550 0.4500 0.0000
0.5267 0.2034 0.0000
0.4402 0.2573 0.0000
0.8839 0.0770 0.0000
0.0771 0.8790 0.0000
0.1358 0.6525 0.0000
0.2250 0.4832 0.0000
0.1115 0.7133 0.0000
0.1942 0.5282 0.0000
0.2599 0.4304 0.0000
0.5565 0.1781 0.0000
0.4830 0.2210 0.0000
[...]
         <PointData>
            <DataArray Name="Displacement" NumberOfComponents="3" format="ascii" type="Float64">
-8.68491e-18  8.50000e-01        00000 
       00000  8.50000e-01        00000 
-2.46596e-02  8.16363e-01        00000 
-1.57929e-02  8.22344e-01        00000 
-3.73584e-02  7.85900e-01        00000 
 2.10972e-18  8.50000e-01        00000 
-2.88548e-02  7.92933e-01        00000 
-1.09130e-02  8.24813e-01        00000 
-2.13259e-02  7.98715e-01        00000 
-4.77971e-02  7.55799e-01        00000 
 9.26568e-19  8.50000e-01        00000 
-3.86215e-02  7.64458e-01        00000 
-7.70312e-03  8.26246e-01        00000 
-2.99833e-02  7.73427e-01        00000 
-1.61396e-02  8.01628e-01        00000 
-2.34268e-02  7.80590e-01        00000 
-4.72192e-02  7.35315e-01        00000 
-5.71474e-02  7.25151e-01        00000 
 7.73510e-19  8.50000e-01        00000 
-5.32121e-03  8.26537e-01        00000 
-3.66945e-02  7.47611e-01        00000 
-1.28011e-02  8.00048e-01        00000 
-2.41417e-02  7.66543e-01        00000 
-5.61958e-02  7.03379e-01        00000 
-6.61354e-02  6.93799e-01        00000 
 9.69181e-19  8.50000e-01        00000 
-2.85988e-03  8.27886e-01        00000 
-4.58578e-02  7.14538e-01        00000 
-7.83474e-03  8.03178e-01        00000 
-3.43983e-02  7.28678e-01        00000 
-1.50572e-02  7.74001e-01        00000 
-6.51829e-02  6.70301e-01        00000 
-7.48957e-02  6.61605e-01        00000 
-2.82141e-19  8.50000e-01        00000 
-5.88758e-04  8.30351e-01        00000 
-5.48115e-02  6.80751e-01        00000 
-3.09719e-03  8.08935e-01        00000 
-2.36258e-02  7.40770e-01        00000 
-4.39554e-02  6.92659e-01        00000 
-7.47128e-03  7.84434e-01        00000 
-7.35608e-02  6.36318e-01        00000 
-8.33090e-02  6.28390e-01        00000 
       00000  8.50000e-01        00000 
-6.34228e-02  6.45645e-01        00000 
 1.16387e-03  8.33067e-01        00000 
-3.36108e-02  7.05152e-01        00000 
 5.30619e-04  8.15656e-01        00000 
-5.31467e-02  6.56033e-01        00000 
-1.33734e-02  7.55564e-01        00000 
-1.45463e-03  7.97275e-01        00000 
-8.12999e-02  6.00688e-01        00000 
-9.10817e-02  5.94008e-01        00000 
-3.81345e-19  8.50000e-01        00000 
-2.45020e-02  7.20366e-01        00000 
-7.12211e-02  6.09294e-01        00000 
 2.29747e-03  8.35907e-01        00000 
-4.32580e-02  6.66443e-01        00000 
-6.17902e-02  6.20710e-01        00000 
 2.82808e-03  8.21804e-01        00000 
-4.35460e-03  7.80403e-01        00000 
-3.20769e-02  6.93957e-01        00000 
-1.25734e-02  7.51191e-01        00000 
 1.98823e-03  8.07440e-01        00000 
-2.06780e-02  7.26536e-01        00000 
-9.78108e-02  5.58357e-01        00000 
 2.22438e-19  8.50000e-01        00000 
-5.46742e-02  6.24743e-01        00000 
-8.78600e-02  5.62443e-01        00000 
-6.71553e-02  5.93124e-01        00000 
-2.67307e-02  7.07980e-01        00000 
 2.75171e-03  8.38382e-01        00000 
-5.88513e-03  7.72411e-01        00000 
-7.67826e-02  5.68879e-01        00000 
-3.92585e-05  7.94426e-01        00000 
-4.23787e-02  6.52700e-01        00000 
-3.42334e-02  6.80725e-01        00000 
 3.79828e-03  8.27213e-01        00000 
-2.36170e-03  7.85198e-01        00000 
-6.26212e-02  5.89985e-01        00000 
-2.75142e-02  7.03733e-01        00000 
-1.25736e-02  7.53072e-01        00000 
-5.05340e-02  6.19480e-01        00000 
-2.03714e-02  7.28647e-01        00000 
 3.57018e-03  8.15643e-01        00000 
-6.35936e-03  7.73113e-01        00000 
-1.03213e-01  5.21481e-01        00000 
-7.90618e-19  8.50000e-01        00000 
-9.38843e-02  5.22244e-01        00000 
-7.00732e-02  5.56630e-01        00000 
-1.85244e-03  7.88786e-01        00000 
 2.50109e-03  8.40647e-01        00000 
-3.46958e-02  6.73502e-01        00000 
-5.73461e-02  5.85797e-01        00000 
-2.91400e-02  6.97729e-01        00000 
-4.07118e-02  6.45986e-01        00000 
-8.45070e-02  5.22296e-01        00000 
 2.04693e-03  8.04012e-01        00000 
-2.43229e-02  7.19129e-01        00000 
-1.82802e-02  7.42612e-01        00000 
 3.59928e-03  8.31646e-01        00000 
-1.29284e-02  7.59668e-01        00000 
-2.17116e-02  7.32557e-01        00000 
-4.65963e-02  6.15289e-01        00000 
-7.74091e-03  7.76564e-01        00000 
-6.32335e-02  5.50652e-01        00000 
 3.81048e-03  8.23421e-01        00000 
-2.98539e-02  6.95994e-01        00000 
-7.60751e-02  5.17055e-01        00000 
-2.59521e-02  7.18163e-01        00000 
-3.44847e-03  7.91124e-01        00000 
-3.40527e-02  6.71034e-01        00000 
-2.26632e-02  7.36183e-01        00000 
-1.06974e-01  4.83474e-01        00000 
-5.93249e-19  8.50000e-01        00000 
-5.19006e-02  5.82419e-01        00000 
-1.90805e-02  7.51563e-01        00000 
-3.83072e-02  6.43694e-01        00000 
-9.79126e-02  4.82283e-01        00000 
-1.48582e-02  7.67400e-01        00000 
 1.72376e-03  8.42035e-01        00000 
-1.58973e-04  8.03447e-01        00000 
 3.10661e-03  8.17134e-01        00000 
-1.07014e-02  7.82073e-01        00000 
-8.89272e-02  4.80628e-01        00000 
-4.23318e-02  6.13487e-01        00000 
 2.48561e-03  8.34854e-01        00000 
-2.69431e-02  7.22158e-01        00000 
-2.41478e-02  7.43048e-01        00000 
-6.78459e-02  5.13360e-01        00000 
-5.63062e-02  5.47797e-01        00000 
-2.97467e-02  6.98662e-01        00000 
-2.13230e-02  7.61188e-01        00000 
-7.00315e-03  7.95027e-01        00000 
-3.24905e-02  6.72781e-01        00000 
-4.60490e-02  5.81369e-01        00000 
-1.84032e-02  7.76896e-01        00000 
 2.74443e-03  8.28725e-01        00000 
-7.95731e-02  4.77994e-01        00000 
-3.51364e-02  6.44659e-01        00000 
 1.33821e-03  8.14618e-01        00000 
-1.55010e-02  7.90229e-01        00000 
-3.92103e-03  8.05725e-01        00000 
-3.76131e-02  6.14547e-01        00000 
-5.97655e-02  5.12035e-01        00000 
-1.08888e-01  4.44637e-01        00000 
       00000  8.50000e-01        00000 
 2.47133e-03  8.24279e-01        00000 
-4.91119e-02  5.47341e-01        00000 
-9.97860e-02  4.43073e-01        00000 
-1.26609e-02  8.01292e-01        00000 
-7.05814e-02  4.76274e-01        00000 
 5.65389e-04  8.42579e-01        00000 
-3.98128e-02  5.82635e-01        00000 
-9.05709e-02  4.41229e-01        00000 
-1.94900e-03  8.14922e-01        00000 
 7.20468e-04  8.36254e-01        00000 
 1.54202e-03  8.21931e-01        00000 
-9.91544e-03  8.10173e-01        00000 
-5.15926e-02  5.12153e-01        00000 
-8.08862e-02  4.39541e-01        00000 
-6.18490e-02  4.75151e-01        00000 
 8.86502e-04  8.31113e-01        00000 
-4.16900e-02  5.49203e-01        00000 
-7.27561e-03  8.17143e-01        00000 
-6.49608e-04  8.21463e-01        00000 
 9.60533e-04  8.27679e-01        00000 
-7.15085e-02  4.39542e-01        00000 
-4.31587e-02  5.14561e-01        00000 
 9.02295e-04  8.25805e-01        00000 
-5.30807e-02  4.75972e-01        00000 
-1.08860e-01  4.05509e-01        00000 
-4.34788e-19  8.50000e-01        00000 
-9.95893e-02  4.04051e-01        00000 
-4.73016e-03  8.22101e-01        00000 
-7.84366e-04  8.42263e-01        00000 
-6.25994e-02  4.40055e-01        00000 
-8.98794e-02  4.02002e-01        00000 
-1.32976e-04  8.25331e-01        00000 
-1.29172e-03  8.35437e-01        00000 
-4.41722e-02  4.79013e-01        00000 
-7.97551e-02  4.00447e-01        00000 
 1.70134e-04  8.26799e-01        00000 
-5.36862e-02  4.40669e-01        00000 
-1.41220e-03  8.30030e-01        00000 
-2.29589e-03  8.25121e-01        00000 
-7.06399e-02  4.03524e-01        00000 
-7.71676e-04  8.27160e-01        00000 
 5.11870e-05  8.26705e-01        00000 
-4.46780e-02  4.42979e-01        00000 
-6.19091e-02  4.04660e-01        00000 
 1.05341e-04  8.26101e-01        00000 
-5.32515e-02  4.05092e-01        00000 
-1.06904e-01  3.66676e-01        00000 
 3.25351e-19  8.50000e-01        00000 
-9.73620e-02  3.64559e-01        00000 
-7.90592e-05  8.25528e-01        00000 
-1.98589e-03  8.41254e-01        00000 
-8.75126e-02  3.61498e-01        00000 
-4.46664e-02  4.06727e-01        00000 
-6.77595e-02  3.69100e-01        00000 
-3.00443e-03  8.32569e-01        00000 
-6.02492e-02  3.72527e-01        00000 
-7.54233e-02  3.55050e-01        00000 
 2.36789e-03  8.24969e-01        00000 
-5.22909e-02  3.71612e-01        00000 
-2.07300e-03  8.21916e-01        00000 
-3.38090e-03  8.24138e-01        00000 
-4.41330e-02  3.70725e-01        00000 
-6.36588e-02  3.47761e-01        00000 
 5.67201e-05  8.21201e-01        00000 
-5.79522e-02  3.44143e-01        00000 
 4.67628e-03  8.22015e-01        00000 
-1.03160e-01  3.28606e-01        00000 
-4.36788e-20  8.50000e-01        00000 
-5.06125e-02  3.38991e-01        00000 
-9.38301e-02  3.25632e-01        00000 
-6.49103e-02  3.29861e-01        00000 
-2.68416e-03  8.39570e-01        00000 
-4.31153e-02  3.35225e-01        00000 
-8.42675e-02  3.20901e-01        00000 
-2.86970e-03  8.16454e-01        00000 
-1.68874e-03  8.14691e-01        00000 
-3.84660e-03  8.28905e-01        00000 
 1.19121e-03  8.14711e-01        00000 
-5.68156e-02  3.18575e-01        00000 
 7.14921e-03  8.17196e-01        00000 
-7.32835e-02  3.10199e-01        00000 
-4.91209e-02  3.09857e-01        00000 
-3.75567e-03  8.18441e-01        00000 
-4.16394e-02  3.00750e-01        00000 
-2.66142e-03  8.09728e-01        00000 
-6.26226e-02  2.93944e-01        00000 
-5.78412e-04  8.05613e-01        00000 
 3.20365e-03  8.05637e-01        00000 
 9.80886e-03  8.10327e-01        00000 
-5.43503e-02  2.86769e-01        00000 
-9.77876e-02  2.91643e-01        00000 
-3.74009e-19  8.50000e-01        00000 
-4.68994e-02  2.78877e-01        00000 
-8.86474e-02  2.87599e-01        00000 
-2.80379e-03  8.37197e-01        00000 
-3.97702e-02  2.67442e-01        00000 
-7.92138e-02  2.81302e-01        00000 
-3.56795e-03  8.23947e-01        00000 
-2.92179e-03  8.10843e-01        00000 
 1.26067e-02  8.01345e-01        00000 
-6.84073e-02  2.68797e-01        00000 
 6.16893e-03  7.93871e-01        00000 
-1.13396e-03  7.99276e-01        00000 
 1.87375e-03  7.92736e-01        00000 
-4.34945e-02  2.46790e-01        00000 
-4.96194e-02  2.51429e-01        00000 
-3.75787e-02  2.35550e-01        00000 
-5.62531e-02  2.48318e-01        00000 
 1.54091e-02  7.90197e-01        00000 
-9.10643e-02  2.55945e-01        00000 
 8.25445e-19  8.50000e-01        00000 
-8.21718e-02  2.50933e-01        00000 
-2.22257e-03  8.34607e-01        00000 
 9.87823e-03  7.79815e-01        00000 
-3.51168e-02  2.05322e-01        00000 
-2.19740e-03  8.18121e-01        00000 
-3.93221e-02  2.14631e-01        00000 
-7.28352e-02  2.43204e-01        00000 
-6.73816e-04  8.01235e-01        00000 
-4.29772e-02  2.16823e-01        00000 
 2.11653e-03  7.85571e-01        00000 
 6.39057e-03  7.74078e-01        00000 
 1.82908e-02  7.77039e-01        00000 
-6.27470e-02  2.30365e-01        00000 
 1.44507e-02  7.66867e-01        00000 
-3.24621e-02  1.77151e-01        00000 
-4.45688e-02  2.07901e-01        00000 
-3.51267e-02  1.86195e-01        00000 
 1.22697e-02  7.62195e-01        00000 
-5.21196e-02  2.10878e-01        00000 
 2.11573e-02  7.61155e-01        00000 
-3.68909e-02  1.87598e-01        00000 
-8.33167e-02  2.21536e-01        00000 
-2.31684e-19  8.50000e-01        00000 
-1.02327e-03  8.31833e-01        00000 
-7.45390e-02  2.15746e-01        00000 
 1.83617e-02  7.50442e-01        00000 
 2.17769e-04  8.12212e-01        00000 
-2.97150e-02  1.51401e-01        00000 
 2.89173e-03  7.91586e-01        00000 
-6.55872e-02  2.07808e-01        00000 
-3.11135e-02  1.61492e-01        00000 
 6.74823e-03  7.71294e-01        00000 
-3.69561e-02  1.81198e-01        00000 
 1.13657e-02  7.55315e-01        00000 
 1.57565e-02  7.46438e-01        00000 
 2.40514e-02  7.42742e-01        00000 
-3.21709e-02  1.65666e-01        00000 
-5.60678e-02  1.96023e-01        00000 
-4.14953e-02  1.84436e-01        00000 
-3.26703e-02  1.65958e-01        00000 
-2.69010e-02  1.28151e-01        00000 
 2.27364e-02  7.30470e-01        00000 
-2.68073e-02  1.38282e-01        00000 
-4.65245e-02  1.80024e-01        00000 
 2.69199e-02  7.22060e-01        00000 
-2.71259e-02  1.44307e-01        00000 
-3.27566e-02  1.60780e-01        00000 
-7.49003e-02  1.88304e-01        00000 
 6.06875e-19  8.50000e-01        00000 
 7.29971e-04  8.29289e-01        00000 
-6.64037e-02  1.82477e-01        00000 
 2.68038e-02  7.12918e-01        00000 
 2.24952e-02  7.21063e-01        00000 
-2.84714e-02  1.49645e-01        00000 
-2.40455e-02  1.07415e-01        00000 
 3.55364e-03  8.06770e-01        00000 
 7.78877e-03  7.82272e-01        00000 
-5.76944e-02  1.75012e-01        00000 
 1.29114e-02  7.56922e-01        00000 
 1.84999e-02  7.34129e-01        00000 
 2.70096e-02  7.07737e-01        00000 
 2.97580e-02  6.98686e-01        00000 
-2.22290e-02  1.17049e-01        00000 
-4.90473e-02  1.65690e-01        00000 
-3.55497e-02  1.55128e-01        00000 
 3.06257e-02  6.91589e-01        00000 
-2.11841e-02  8.91573e-02        00000 
-4.21628e-02  1.57300e-01        00000 
-2.11257e-02  1.22393e-01        00000 
 3.25307e-02  6.72762e-01        00000 
 3.12135e-02  6.88591e-01        00000 
-2.12171e-02  1.25648e-01        00000 
-1.75197e-02  9.73848e-02        00000 
-6.61303e-02  1.56113e-01        00000 
-7.16799e-19  8.50000e-01        00000 
-1.83409e-02  7.32903e-02        00000 
 3.03029e-02  6.94223e-01        00000 
 3.47656e-02  6.66372e-01        00000 
 2.90880e-03  8.27197e-01        00000 
-5.77297e-02  1.50370e-01        00000 
-2.35422e-02  1.28238e-01        00000 
 7.61721e-03  8.02301e-01        00000 
-4.92038e-02  1.43518e-01        00000 
 3.51777e-02  6.44665e-01        00000 
 1.35447e-02  7.74712e-01        00000 
-1.46902e-02  1.00570e-01        00000 
 2.05668e-02  7.44083e-01        00000 
-4.04094e-02  1.35584e-01        00000 
 3.68286e-02  6.63459e-01        00000 
-1.30654e-02  7.96444e-02        00000 
-1.55469e-02  5.97075e-02        00000 
-3.13206e-02  1.27597e-01        00000 
 2.91629e-02  7.07667e-01        00000 
 3.87812e-02  6.38964e-01        00000 
 3.76239e-02  6.14534e-01        00000 
-1.30964e-02  1.00043e-01        00000 
 3.85855e-02  6.65337e-01        00000 
-9.59152e-03  6.42402e-02        00000 
-1.27702e-02  4.84467e-02        00000 
-8.74659e-03  8.04540e-02        00000 
-1.41350e-02  1.01386e-01        00000 
 4.23497e-02  6.35784e-01        00000 
 4.27479e-02  6.08818e-01        00000 
-5.71436e-02  1.24791e-01        00000 
 1.62932e-18  8.50000e-01        00000 
 3.98225e-02  5.82639e-01        00000 
 5.40290e-03  8.25636e-01        00000 
-4.89777e-02  1.19223e-01        00000 
 1.21400e-02  7.99171e-01        00000 
-4.06641e-02  1.12795e-01        00000 
-6.93659e-03  5.18465e-02        00000 
-1.00073e-02  3.94881e-02        00000 
 1.96429e-02  7.70107e-01        00000 
 4.08970e-02  6.70193e-01        00000 
-3.24822e-02  1.05692e-01        00000 
 4.58767e-02  6.35992e-01        00000 
-4.79010e-03  6.34804e-02        00000 
 4.16951e-02  5.49183e-01        00000 
-1.66851e-02  9.64332e-02        00000 
 2.77663e-02  7.38253e-01        00000 
 4.77237e-02  6.05814e-01        00000 
 4.63070e-02  5.76830e-01        00000 
-2.47220e-02  9.73358e-02        00000 
-7.33726e-03  3.26998e-02        00000 
-4.53166e-03  4.19484e-02        00000 
-4.85342e-03  7.45888e-02        00000 
 3.67705e-02  7.03441e-01        00000 
-2.59564e-03  5.11391e-02        00000 
 4.31745e-02  5.14544e-01        00000 
-1.78286e-02  8.64372e-02        00000 
 4.96043e-02  6.38536e-01        00000 
 4.94607e-02  5.42612e-01        00000 
 5.23538e-02  6.06146e-01        00000 
-7.04453e-03  7.76705e-02        00000 
-4.79792e-03  2.79058e-02        00000 
 5.27220e-02  5.73607e-01        00000 
-2.53038e-03  3.44627e-02        00000 
-4.77876e-02  9.41774e-02        00000 
-1.35779e-18  8.50000e-01        00000 
-1.11509e-03  4.22011e-02        00000 
-1.07391e-03  5.73569e-02        00000 
-3.98117e-02  8.87969e-02        00000 
 8.21593e-03  8.24428e-01        00000 
 4.41925e-02  4.79001e-01        00000 
 4.61167e-02  6.70436e-01        00000 
-3.19560e-02  8.29974e-02        00000 
 1.70806e-02  7.96984e-01        00000 
-2.35461e-03  2.49578e-02        00000 
 4.24947e-04  4.67253e-02        00000 
 2.60010e-02  7.66647e-01        00000 
-2.46023e-02  7.73025e-02        00000 
 5.17624e-02  5.07077e-01        00000 
-1.13276e-03  2.87654e-02        00000 
 5.89377e-04  4.13020e-02        00000 
 4.47037e-02  4.42978e-01        00000 
 3.08033e-04  3.50744e-02        00000 
 5.67341e-02  6.09158e-01        00000 
 3.47554e-02  7.35254e-01        00000 
 5.71178e-02  5.38834e-01        00000 
 5.86729e-02  5.74341e-01        00000 
-1.80594e-02  7.13083e-02        00000 
 6.95759e-05  2.40059e-02        00000 
 5.43479e-02  6.39930e-01        00000 
-4.46199e-04  2.50424e-02        00000 
 4.46871e-02  4.06757e-01        00000 
-1.24927e-02  6.56743e-02        00000 
 4.36689e-02  7.02311e-01        00000 
 5.31760e-02  4.70594e-01        00000 
-1.58691e-03  5.80814e-02        00000 
 3.64943e-04  5.34818e-02        00000 
-8.22910e-03  6.32007e-02        00000 
 1.89448e-03  3.54747e-02        00000 
 2.33170e-03  2.51674e-02        00000 
 1.02509e-03  2.90031e-02        00000 
 2.25085e-03  4.50142e-02        00000 
 4.41579e-02  3.70761e-01        00000 
 6.03563e-02  5.01620e-01        00000 
 6.10567e-02  6.11934e-01        00000 
-9.00589e-05  2.34346e-02        00000 
 2.72244e-03  3.77567e-02        00000 
 5.23917e-02  6.70168e-01        00000 
-3.73265e-02  6.40840e-02        00000 
 3.95902e-18  8.50000e-01        00000 
 5.35697e-02  4.34333e-01        00000 
 6.36346e-02  5.79807e-01        00000 
-3.19084e-03  5.50299e-02        00000 
 4.61509e-03  2.81259e-02        00000 
-2.95541e-02  5.87200e-02        00000 
 1.16072e-02  8.23219e-01        00000 
 6.48713e-02  5.38671e-01        00000 
-2.23401e-02  5.41266e-02        00000 
 2.28238e-02  7.94145e-01        00000 
 4.31317e-02  3.35267e-01        00000 
 7.61424e-04  2.49113e-02        00000 
 7.08631e-03  3.29097e-02        00000 
-1.63343e-02  5.01453e-02        00000 
 3.27326e-02  7.63930e-01        00000 
 6.55694e-02  5.90258e-01        00000 
 5.30939e-02  3.98414e-01        00000 
 6.03531e-02  6.39034e-01        00000 
 6.20378e-02  4.63741e-01        00000 
 4.16481e-02  3.00662e-01        00000 
 2.34688e-03  2.84335e-02        00000 
-1.30311e-04  2.43044e-02        00000 
 1.50385e-04  2.34680e-02        00000 
-1.12996e-02  4.62446e-02        00000 
 6.34128e-04  4.48785e-02        00000 
 4.19282e-02  7.32544e-01        00000 
 9.78087e-03  3.96309e-02        00000 
 3.97503e-02  2.67262e-01        00000 
 5.18226e-02  3.63960e-01        00000 
 1.26049e-02  4.85285e-02        00000 
-7.06204e-03  4.25614e-02        00000 
 5.08301e-02  7.00616e-01        00000 
 6.90926e-02  4.98205e-01        00000 
 2.65923e-03  3.85597e-02        00000 
 3.75285e-02  2.35359e-01        00000 
 6.70538e-02  6.08758e-01        00000 
 6.23275e-02  4.26349e-01        00000 
 1.98468e-05  2.83200e-02        00000 
 1.54883e-02  5.96197e-02        00000 
 5.01355e-02  3.30417e-01        00000 
 3.50627e-02  2.05218e-01        00000 
-3.51942e-03  3.93050e-02        00000 
 1.20996e-03  2.33257e-02        00000 
 1.83474e-02  7.30438e-02        00000 
 3.24353e-02  1.77130e-01        00000 
 3.73786e-03  3.23612e-02        00000 
 2.12016e-02  8.88547e-02        00000 
 7.17929e-02  5.79430e-01        00000 
 5.93519e-02  6.68821e-01        00000 
 7.33171e-02  5.45047e-01        00000 
 2.97174e-02  1.51397e-01        00000 
 2.40601e-02  1.07183e-01        00000 
 2.69053e-02  1.28027e-01        00000 
 1.25512e-03  3.50601e-02        00000 
 4.78857e-02  2.97877e-01        00000 
 6.11910e-02  3.90301e-01        00000 
       00000  8.50000e-01        00000 
-2.46605e-02  3.36620e-02        00000 