<?xml version="1.0" encoding="utf-8"?>
<VTKFile byte_order="LittleEndian" type="UnstructuredGrid" version="0.1">
   <UnstructuredGrid>
      <Piece NumberOfCells="641" NumberOfPoints="730">
         <Points>
            <DataArray Name="Points" NumberOfComponents="3" format="ascii" type="Float32">
1.0000 1.0000 0.0000
0.9600 1.0000 0.0000
1.0000 0.9600 0.0000
0.9603 0.9614 0.0000
1.0000 0.9200 0.0000
0.9200 1.0000 0.0000
0.9612 0.9231 0.0000
0.9211 0.9624 0.0000
0.9230 0.9260 0.0000
1.0000 0.8800 0.0000
0.8800 1.0000 0.0000
0.9614 0.8856 0.0000
0.8829 0.9623 0.0000
0.9240 0.8918 0.0000
0.8875 0.9262 0.0000
0.8933 0.8971 0.0000
0.9597 0.8473 0.0000
1.0000 0.8400 0.0000
0.8400 1.0000 0.0000
0.8440 0.9601 0.0000
0.9173 0.8563 0.0000
0.8514 0.9190 0.0000
0.8690 0.8729 0.0000
0.9592 0.8063 0.0000
1.0000 0.8000 0.0000
0.8000 1.0000 0.0000
0.8021 0.9589 0.0000
0.9165 0.8130 0.0000
0.8054 0.9165 0.0000
0.8676 0.8205 0.0000
0.8109 0.8707 0.0000
0.9597 0.7652 0.0000
1.0000 0.7600 0.0000
0.7600 1.0000 0.0000
0.7590 0.9590 0.0000
0.9161 0.7702 0.0000
0.7581 0.9167 0.0000
0.8122 0.8209 0.0000
0.8679 0.7733 0.0000
0.7569 0.8708 0.0000
0.9590 0.7242 0.0000
1.0000 0.7200 0.0000
0.7200 1.0000 0.0000
0.9153 0.7275 0.0000
0.7165 0.9591 0.0000
0.8165 0.7719 0.0000
0.7126 0.9181 0.0000
0.8686 0.7282 0.0000
0.7510 0.8174 0.0000
0.7082 0.8753 0.0000
0.9580 0.6829 0.0000
1.0000 0.6800 0.0000
0.6800 1.0000 0.0000
0.7693 0.7706 0.0000
0.9140 0.6851 0.0000
0.6742 0.9594 0.0000
0.8161 0.7213 0.0000
0.8740 0.6885 0.0000
0.6685 0.9181 0.0000
0.7012 0.8339 0.0000
0.7734 0.7344 0.0000
0.7152 0.7855 0.0000
0.6650 0.8760 0.0000
0.7356 0.7577 0.0000
1.0000 0.6400 0.0000
0.6400 1.0000 0.0000
0.8350 0.6800 0.0000
0.9558 0.6404 0.0000
0.8757 0.6585 0.0000
0.7480 0.7370 0.0000
0.6333 0.9593 0.0000
0.6862 0.8039 0.0000
0.9052 0.6395 0.0000
0.6619 0.8374 0.0000
0.7838 0.6876 0.0000
0.7581 0.7055 0.0000
0.6270 0.9175 0.0000
0.6640 0.8136 0.0000
0.8474 0.6471 0.0000
0.7341 0.7184 0.0000
0.6889 0.7621 0.0000
0.8018 0.6601 0.0000
0.7087 0.7349 0.0000
0.6240 0.8728 0.0000
0.6655 0.7821 0.0000
1.0000 0.6000 0.0000
0.6000 1.0000 0.0000
0.9579 0.5979 0.0000
0.8635 0.6181 0.0000
0.6438 0.7994 0.0000
0.5930 0.9599 0.0000
0.7406 0.6813 0.0000
0.8153 0.6317 0.0000
0.7215 0.6960 0.0000
0.7582 0.6627 0.0000
0.9144 0.5934 0.0000
0.6224 0.8262 0.0000
0.7025 0.7080 0.0000
0.6817 0.7264 0.0000
0.5880 0.9170 0.0000
0.6661 0.7445 0.0000
0.6874 0.7117 0.0000
0.7729 0.6402 0.0000
0.6462 0.7610 0.0000
0.8270 0.6029 0.0000
0.5855 0.8736 0.0000
0.7078 0.6759 0.0000
0.8731 0.5824 0.0000
0.6922 0.6895 0.0000
0.6247 0.7752 0.0000
0.7227 0.6602 0.0000
0.6777 0.7007 0.0000
1.0000 0.5600 0.0000
0.5600 1.0000 0.0000
0.7852 0.6159 0.0000
0.6645 0.7138 0.0000
0.7363 0.6426 0.0000
0.9599 0.5572 0.0000
0.6483 0.7278 0.0000
0.5542 0.9595 0.0000
0.6026 0.7897 0.0000
0.5823 0.8324 0.0000
0.6299 0.7405 0.0000
0.9195 0.5531 0.0000
0.7477 0.6223 0.0000
0.5507 0.9171 0.0000
0.6803 0.6732 0.0000
0.6658 0.6871 0.0000
0.8355 0.5722 0.0000
0.7947 0.5901 0.0000
0.6936 0.6581 0.0000
0.6502 0.6999 0.0000
0.6098 0.7514 0.0000
0.7057 0.6420 0.0000
0.7579 0.6014 0.0000
0.6336 0.7113 0.0000
0.5497 0.8744 0.0000
0.8778 0.5472 0.0000
0.7165 0.6250 0.0000
0.5740 0.7964 0.0000
0.6162 0.7214 0.0000
0.5892 0.7610 0.0000
0.7259 0.6072 0.0000
0.8020 0.5638 0.0000
1.0000 0.5200 0.0000
0.5200 1.0000 0.0000
0.5492 0.8345 0.0000
0.7657 0.5790 0.0000
0.9606 0.5179 0.0000
0.5980 0.7300 0.0000
0.8398 0.5417 0.0000
0.5158 0.9583 0.0000
0.7338 0.5887 0.0000
0.9203 0.5154 0.0000
0.5665 0.7670 0.0000
0.5131 0.9159 0.0000
0.5474 0.8009 0.0000
0.5792 0.7371 0.0000
0.7720 0.5563 0.0000
0.8787 0.5129 0.0000
0.8059 0.5366 0.0000
0.5141 0.8719 0.0000
0.7401 0.5696 0.0000
0.5598 0.7427 0.0000
0.5440 0.7719 0.0000
0.5175 0.8314 0.0000
0.8405 0.5118 0.0000
0.7450 0.5500 0.0000
0.5225 0.8010 0.0000
0.7754 0.5328 0.0000
1.0000 0.4800 0.0000
0.4800 1.0000 0.0000
0.9602 0.4791 0.0000
0.5401 0.7468 0.0000
0.4767 0.9571 0.0000
0.8069 0.5110 0.0000
0.9179 0.4782 0.0000
0.5221 0.7741 0.0000
0.4748 0.9127 0.0000
0.7482 0.5301 0.0000
0.8747 0.4784 0.0000
0.5027 0.7984 0.0000
0.7768 0.5101 0.0000
0.4760 0.8661 0.0000
0.5201 0.7492 0.0000
0.8373 0.4828 0.0000
0.4848 0.8182 0.0000
0.5012 0.7757 0.0000
0.7498 0.5101 0.0000
0.8046 0.4854 0.0000
0.5000 0.7500 0.0000
0.7754 0.4874 0.0000
1.0000 0.4400 0.0000
0.4400 1.0000 0.0000
0.9587 0.4395 0.0000
0.4799 0.7803 0.0000
0.4361 0.9573 0.0000
0.9156 0.4395 0.0000
0.7498 0.4899 0.0000
0.8291 0.4561 0.0000
0.4343 0.9109 0.0000
0.8003 0.4626 0.0000
0.8632 0.4393 0.0000
0.4799 0.7492 0.0000
0.7730 0.4662 0.0000
0.4477 0.8146 0.0000
0.4327 0.8588 0.0000
0.7482 0.4699 0.0000
0.8161 0.4410 0.0000
0.4541 0.7785 0.0000
0.7944 0.4428 0.0000
0.4599 0.7468 0.0000
1.0000 0.4000 0.0000
0.4000 1.0000 0.0000
0.7686 0.4455 0.0000
0.9592 0.3996 0.0000
0.8248 0.4242 0.0000
0.3968 0.9575 0.0000
0.7450 0.4500 0.0000
0.9170 0.3993 0.0000
0.4159 0.8309 0.0000
0.4229 0.8031 0.0000
0.3948 0.9133 0.0000
0.4316 0.7723 0.0000
0.7936 0.4233 0.0000
0.4402 0.7427 0.0000
0.8698 0.3967 0.0000
0.7652 0.4264 0.0000
0.3936 0.8689 0.0000
0.7401 0.4304 0.0000
0.3920 0.8309 0.0000
0.8264 0.3924 0.0000
0.3992 0.7968 0.0000
0.4094 0.7650 0.0000
0.4208 0.7371 0.0000
0.7903 0.3985 0.0000
1.0000 0.3600 0.0000
0.3600 1.0000 0.0000
0.7600 0.4056 0.0000
0.9598 0.3592 0.0000
0.3583 0.9570 0.0000
0.7338 0.4113 0.0000
0.9182 0.3582 0.0000
0.3575 0.9135 0.0000
0.3585 0.8699 0.0000
0.4020 0.7300 0.0000
0.8721 0.3546 0.0000
0.3871 0.7558 0.0000
0.3627 0.8272 0.0000
0.3723 0.7881 0.0000
0.7509 0.3845 0.0000
0.7810 0.3713 0.0000
0.7259 0.3928 0.0000
0.8206 0.3501 0.0000
0.3838 0.7214 0.0000
1.0000 0.3200 0.0000
0.3200 1.0000 0.0000
0.9609 0.3186 0.0000
0.3188 0.9571 0.0000
0.3655 0.7452 0.0000
0.7165 0.3750 0.0000
0.3191 0.9130 0.0000
0.7387 0.3639 0.0000
0.9203 0.3164 0.0000
0.3226 0.8674 0.0000
0.7625 0.3483 0.0000
0.3295 0.8214 0.0000
0.3412 0.7756 0.0000
0.3664 0.7113 0.0000
0.8783 0.3117 0.0000
0.3501 0.7297 0.0000
0.7057 0.3580 0.0000
0.7858 0.3237 0.0000
0.7257 0.3455 0.0000
0.3355 0.7477 0.0000
0.8363 0.3032 0.0000
0.3498 0.6999 0.0000
0.7447 0.3291 0.0000
1.0000 0.2800 0.0000
0.2800 1.0000 0.0000
0.2794 0.9569 0.0000
0.9615 0.2779 0.0000
0.3326 0.7179 0.0000
0.2801 0.9127 0.0000
0.6936 0.3419 0.0000
0.2847 0.8665 0.0000
0.9228 0.2753 0.0000
0.7128 0.3285 0.0000
0.2921 0.8195 0.0000
0.7602 0.3086 0.0000
0.3033 0.7758 0.0000
0.3147 0.7412 0.0000
0.3342 0.6871 0.0000
0.7305 0.3141 0.0000
0.8833 0.2705 0.0000
0.7998 0.2876 0.0000
0.7436 0.3019 0.0000
0.6803 0.3268 0.0000
0.3147 0.7039 0.0000
0.6989 0.3111 0.0000
0.8465 0.2623 0.0000
0.3197 0.6732 0.0000
0.7181 0.2951 0.0000
0.7660 0.2772 0.0000
1.0000 0.2400 0.0000
0.2400 1.0000 0.0000
0.2395 0.9570 0.0000
0.9623 0.2379 0.0000
0.3033 0.6872 0.0000
0.2867 0.7266 0.0000
0.7391 0.2819 0.0000
0.6658 0.3129 0.0000
0.2402 0.9130 0.0000
0.2441 0.8665 0.0000
0.9241 0.2355 0.0000
0.2521 0.8179 0.0000
0.2648 0.7698 0.0000
0.2877 0.7007 0.0000
0.3064 0.6581 0.0000
0.6834 0.2942 0.0000
0.8864 0.2325 0.0000
0.8108 0.2442 0.0000
0.2899 0.6725 0.0000
0.6502 0.3001 0.0000
0.8557 0.2306 0.0000
0.7030 0.2743 0.0000
0.2943 0.6420 0.0000
0.2710 0.6909 0.0000
0.7273 0.2535 0.0000
0.6657 0.2787 0.0000
1.0000 0.2000 0.0000
0.2000 1.0000 0.0000
0.6336 0.2887 0.0000
0.2514 0.7173 0.0000
0.2756 0.6564 0.0000
0.1992 0.9576 0.0000
0.9620 0.1981 0.0000
0.7627 0.2311 0.0000
0.1993 0.9141 0.0000
0.9233 0.1961 0.0000
0.2835 0.6250 0.0000
0.2019 0.8680 0.0000
0.6830 0.2545 0.0000
0.2075 0.8181 0.0000
0.8823 0.1948 0.0000
0.2539 0.6737 0.0000
0.6460 0.2652 0.0000
0.6162 0.2786 0.0000
0.8346 0.1977 0.0000
0.2163 0.7604 0.0000
0.2633 0.6381 0.0000
0.2741 0.6072 0.0000
0.7040 0.2284 0.0000
0.2284 0.6955 0.0000
0.6248 0.2559 0.0000
0.5980 0.2700 0.0000
0.6595 0.2370 0.0000
0.7292 0.2095 0.0000
0.2397 0.6531 0.0000
0.2516 0.6187 0.0000
1.0000 0.1600 0.0000
0.1600 1.0000 0.0000
0.2662 0.5887 0.0000
0.1588 0.9585 0.0000
0.9622 0.1583 0.0000
0.1581 0.9163 0.0000
0.9233 0.1564 0.0000
0.6042 0.2491 0.0000
0.5792 0.2629 0.0000
0.1589 0.8722 0.0000
0.1958 0.7202 0.0000
0.8836 0.1548 0.0000
0.2123 0.6706 0.0000
0.6322 0.2291 0.0000
0.2599 0.5696 0.0000
0.7803 0.1720 0.0000
0.1609 0.8259 0.0000
0.2262 0.6315 0.0000
0.2418 0.5979 0.0000
0.8442 0.1523 0.0000
0.5598 0.2573 0.0000
0.5842 0.2424 0.0000
0.6765 0.1983 0.0000
0.1621 0.7781 0.0000
0.6083 0.2254 0.0000
0.2550 0.5500 0.0000
0.8115 0.1450 0.0000
0.1814 0.6889 0.0000
0.2335 0.5759 0.0000
0.1986 0.6460 0.0000
0.7210 0.1689 0.0000
0.5401 0.2532 0.0000
0.2141 0.6084 0.0000
0.5648 0.2361 0.0000
1.0000 0.1200 0.0000
0.1200 1.0000 0.0000
0.5886 0.2216 0.0000
0.6361 0.1981 0.0000
0.9623 0.1186 0.0000
0.1185 0.9594 0.0000
0.2518 0.5301 0.0000
0.1554 0.7378 0.0000
0.9238 0.1169 0.0000
0.1171 0.9188 0.0000
0.5201 0.2508 0.0000
0.6081 0.2005 0.0000
0.1177 0.8757 0.0000
0.8845 0.1155 0.0000
0.2278 0.5529 0.0000
0.5447 0.2310 0.0000
0.5916 0.2048 0.0000
0.2502 0.5101 0.0000
0.5703 0.2140 0.0000
0.1692 0.6615 0.0000
0.1178 0.8329 0.0000
0.2039 0.5833 0.0000
0.1845 0.6209 0.0000
0.8462 0.1139 0.0000
0.5000 0.2500 0.0000
0.1474 0.7037 0.0000
0.5242 0.2284 0.0000
0.2502 0.4899 0.0000
0.8095 0.1132 0.0000
0.1175 0.7897 0.0000
0.2245 0.5293 0.0000
0.6911 0.1470 0.0000
0.6623 0.1569 0.0000
0.7718 0.1199 0.0000
0.5787 0.1926 0.0000
0.4799 0.2508 0.0000
0.5494 0.2063 0.0000
0.6277 0.1636 0.0000
0.2518 0.4699 0.0000
0.1972 0.5560 0.0000
0.1405 0.6744 0.0000
0.5036 0.2260 0.0000
0.5965 0.1735 0.0000
0.1148 0.7499 0.0000
1.0000 0.0800 0.0000
0.0800 1.0000 0.0000
0.2237 0.5060 0.0000
0.1547 0.6362 0.0000
0.7277 0.1206 0.0000
0.4599 0.2532 0.0000
0.9618 0.0790 0.0000
0.0786 0.9601 0.0000
0.1700 0.5930 0.0000
0.9229 0.0780 0.0000
0.0778 0.9196 0.0000
0.2550 0.4500 0.0000
0.5267 0.2034 0.0000
0.4402 0.2573 0.0000
0.8839 0.0770 0.0000
0.0771 0.8790 0.0000
0.1358 0.6525 0.0000
0.2250 0.4832 0.0000
0.1115 0.7133 0.0000
0.1942 0.5282 0.0000
0.2599 0.4304 0.0000
0.5565 0.1781 0.0000
0.4830 0.2210 0.0000
[...]
         <PointData>
            <DataArray Name="Displacement" NumberOfComponents="3" format="ascii" type="Float64">
-2.80982e-18  4.50000e-01        00000 
-1.63035e-18  4.50000e-01        00000 
-1.48702e-02  4.29478e-01        00000 
-9.19467e-03  4.34069e-01        00000 
-2.26979e-02  4.11759e-01        00000 
 1.67818e-18  4.50000e-01        00000 
-1.72747e-02  4.16968e-01        00000 
-6.17234e-03  4.35826e-01        00000 
-1.24863e-02  4.20995e-01        00000 
-2.93890e-02  3.94507e-01        00000 
-8.80240e-19  4.50000e-01        00000 
-2.35307e-02  4.00643e-01        00000 
-4.20017e-03  4.36852e-01        00000 
-1.80078e-02  4.06609e-01        00000 
-9.23910e-03  4.23046e-01        00000 
-1.38606e-02  4.11157e-01        00000 
-2.93010e-02  3.84225e-01        00000 
-3.56613e-02  3.77156e-01        00000 
 5.80133e-19  4.50000e-01        00000 
-2.71612e-03  4.37181e-01        00000 
-2.25393e-02  3.92211e-01        00000 
-7.14979e-03  4.22486e-01        00000 
-1.44188e-02  4.03649e-01        00000 
-3.56048e-02  3.66472e-01        00000 
-4.19591e-02  3.59675e-01        00000 
-8.81073e-20  4.50000e-01        00000 
-1.19936e-03  4.38079e-01        00000 
-2.89719e-02  3.73830e-01        00000 
-4.07527e-03  4.24580e-01        00000 
-2.15890e-02  3.82635e-01        00000 
-8.75323e-03  4.08489e-01        00000 
-4.22006e-02  3.48393e-01        00000 
-4.83583e-02  3.42074e-01        00000 
-2.35118e-19  4.50000e-01        00000 
 1.75942e-04  4.39572e-01        00000 
-3.56052e-02  3.55354e-01        00000 
-1.17505e-03  4.28089e-01        00000 
-1.47589e-02  3.90177e-01        00000 
-2.86898e-02  3.62872e-01        00000 
-4.04443e-03  4.14863e-01        00000 
-4.86691e-02  3.30266e-01        00000 
-5.47510e-02  3.24371e-01        00000 
 3.52963e-19  4.50000e-01        00000 
-4.23408e-02  3.36533e-01        00000 
 1.21217e-03  4.41190e-01        00000 
-2.21473e-02  3.70599e-01        00000 
 9.96661e-04  4.32094e-01        00000 
-3.59453e-02  3.43129e-01        00000 
-8.31748e-03  3.99287e-01        00000 
-3.46423e-04  4.22465e-01        00000 
-5.49393e-02  3.11728e-01        00000 
-6.08759e-02  3.06580e-01        00000 
-1.90672e-19  4.50000e-01        00000 
-1.63627e-02  3.79783e-01        00000 
-4.87986e-02  3.17469e-01        00000 
 1.84182e-03  4.42864e-01        00000 
-2.99931e-02  3.49711e-01        00000 
-4.29467e-02  3.24348e-01        00000 
 2.30512e-03  4.35760e-01        00000 
-2.53144e-03  4.13692e-01        00000 
-2.23953e-02  3.65444e-01        00000 
-8.42620e-03  3.97741e-01        00000 
 1.66021e-03  4.28524e-01        00000 
-1.42881e-02  3.83931e-01        00000 
-6.63640e-02  2.88685e-01        00000 
 4.89363e-19  4.50000e-01        00000 
-3.90207e-02  3.27310e-01        00000 
-6.05754e-02  2.92368e-01        00000 
-4.75950e-02  3.10004e-01        00000 
-1.88900e-02  3.73653e-01        00000 
 2.03601e-03  4.44324e-01        00000 
-3.90989e-03  4.09845e-01        00000 
-5.41750e-02  2.96905e-01        00000 
 7.54101e-05  4.21958e-01        00000 
-3.10595e-02  3.43344e-01        00000 
-2.50415e-02  3.58891e-01        00000 
 2.76560e-03  4.38976e-01        00000 
-1.64411e-03  4.17172e-01        00000 
-4.54737e-02  3.08998e-01        00000 
-2.01766e-02  3.71883e-01        00000 
-8.99954e-03  3.99558e-01        00000 
-3.75513e-02  3.25484e-01        00000 
-1.48707e-02  3.85947e-01        00000 
 2.46062e-03  4.33465e-01        00000 
-4.64447e-03  4.10895e-01        00000 
-7.09011e-02  2.70664e-01        00000 
-3.20440e-19  4.50000e-01        00000 
-6.56970e-02  2.72298e-01        00000 
-5.12394e-02  2.91570e-01        00000 
-1.59655e-03  4.19690e-01        00000 
 1.77983e-03  4.45634e-01        00000 
-2.67123e-02  3.56011e-01        00000 
-4.31470e-02  3.07704e-01        00000 
-2.24153e-02  3.69447e-01        00000 
-3.14802e-02  3.40990e-01        00000 
-6.05510e-02  2.73233e-01        00000 
 1.09379e-03  4.27937e-01        00000 
-1.87398e-02  3.81451e-01        00000 
-1.39750e-02  3.94508e-01        00000 
 2.49966e-03  4.41589e-01        00000 
-9.80745e-03  4.03959e-01        00000 
-1.69446e-02  3.89197e-01        00000 
-3.63220e-02  3.24535e-01        00000 
-6.04001e-03  4.13460e-01        00000 
-4.79864e-02  2.89364e-01        00000 
 2.46710e-03  4.37982e-01        00000 
-2.42596e-02  3.69803e-01        00000 
-5.61720e-02  2.71319e-01        00000 
-2.10335e-02  3.81963e-01        00000 
-3.08259e-03  4.21639e-01        00000 
-2.77541e-02  3.56205e-01        00000 
-1.83119e-02  3.91874e-01        00000 
-7.41311e-02  2.52501e-01        00000 
 8.39504e-20  4.50000e-01        00000 
-4.07621e-02  3.07108e-01        00000 
-1.52430e-02  4.00207e-01        00000 
-3.13319e-02  3.41430e-01        00000 
-6.91675e-02  2.52712e-01        00000 
-1.17925e-02  4.08896e-01        00000 
 1.20214e-03  4.46454e-01        00000 
-8.58438e-04  4.28433e-01        00000 
 1.67671e-03  4.35345e-01        00000 
-8.57899e-03  4.17033e-01        00000 
-6.42588e-02  2.52448e-01        00000 
-3.48121e-02  3.25271e-01        00000 
 1.68486e-03  4.43452e-01        00000 
-2.30864e-02  3.85659e-01        00000 
-2.04639e-02  3.96773e-01        00000 
-5.18523e-02  2.70126e-01        00000 
-4.45110e-02  2.88919e-01        00000 
-2.56798e-02  3.73120e-01        00000 
-1.78120e-02  4.06404e-01        00000 
-5.86766e-03  4.24220e-01        00000 
-2.81846e-02  3.59269e-01        00000 
-3.79888e-02  3.08100e-01        00000 
-1.51304e-02  4.14749e-01        00000 
 1.72540e-03  4.41009e-01        00000 
-5.91756e-02  2.51589e-01        00000 
-3.05640e-02  3.44173e-01        00000 
 1.37643e-04  4.34583e-01        00000 
-1.25272e-02  4.21827e-01        00000 
-3.68315e-03  4.30078e-01        00000 
-3.27668e-02  3.27955e-01        00000 
-4.74573e-02  2.70230e-01        00000 
-7.57968e-02  2.34210e-01        00000 
-4.74748e-20  4.50000e-01        00000 
 1.30903e-03  4.39315e-01        00000 
-4.06538e-02  2.89991e-01        00000 
-7.08136e-02  2.33722e-01        00000 
-1.00645e-02  4.27686e-01        00000 
-5.42375e-02  2.51144e-01        00000 
 3.91346e-04  4.46803e-01        00000 
-3.47044e-02  3.10706e-01        00000 
-6.57449e-02  2.32994e-01        00000 
-2.25743e-03  4.35016e-01        00000 
 4.85800e-04  4.44298e-01        00000 
 4.24890e-04  4.38501e-01        00000 
-7.77775e-03  4.32365e-01        00000 
-4.27813e-02  2.71271e-01        00000 
-6.03998e-02  2.32286e-01        00000 
-4.93092e-02  2.51046e-01        00000 
 5.49604e-04  4.42418e-01        00000 
-3.63435e-02  2.92587e-01        00000 
-5.65470e-03  4.36007e-01        00000 
-1.18234e-03  4.38421e-01        00000 
 4.91907e-04  4.41230e-01        00000 
-5.51556e-02  2.32408e-01        00000 
-3.76168e-02  2.73767e-01        00000 
 2.67329e-04  4.40554e-01        00000 
-4.41098e-02  2.52064e-01        00000 
-7.57717e-02  2.15868e-01        00000 
 5.43484e-20  4.50000e-01        00000 
-7.06700e-02  2.14886e-01        00000 
-3.66282e-03  4.38560e-01        00000 
-5.42190e-04  4.46655e-01        00000 
-5.00345e-02  2.32813e-01        00000 
-6.53074e-02  2.13654e-01        00000 
-5.09155e-04  4.40375e-01        00000 
-8.59678e-04  4.43914e-01        00000 
-3.84913e-02  2.54423e-01        00000 
-5.97002e-02  2.12663e-01        00000 
 6.89895e-05  4.41074e-01        00000 
-4.46738e-02  2.33316e-01        00000 
-8.43763e-04  4.41936e-01        00000 
-1.78023e-03  4.40094e-01        00000 
-5.46255e-02  2.14019e-01        00000 
-3.36180e-04  4.41137e-01        00000 
 9.65445e-06  4.41060e-01        00000 
-3.89272e-02  2.34794e-01        00000 
-4.96037e-02  2.14404e-01        00000 
 6.03398e-05  4.40591e-01        00000 
-4.43934e-02  2.14405e-01        00000 
-7.40699e-02  1.97566e-01        00000 
-1.16197e-19  4.50000e-01        00000 
-6.87591e-02  1.95727e-01        00000 
 3.03155e-04  4.40476e-01        00000 
-1.39077e-03  4.46062e-01        00000 
-6.32629e-02  1.93601e-01        00000 
-3.89187e-02  2.15036e-01        00000 
-5.25789e-02  1.96318e-01        00000 
-2.04186e-03  4.42304e-01        00000 
-4.83516e-02  1.97634e-01        00000 
-5.65313e-02  1.89700e-01        00000 
 1.82916e-03  4.40024e-01        00000 
-4.36082e-02  1.96583e-01        00000 
-8.57907e-04  4.38315e-01        00000 
-2.05252e-03  4.38768e-01        00000 
-3.84612e-02  1.95420e-01        00000 
-4.98454e-02  1.85140e-01        00000 
 7.85143e-04  4.38269e-01        00000 
-4.65745e-02  1.82741e-01        00000 
 3.64589e-03  4.38525e-01        00000 
-7.08593e-02  1.79371e-01        00000 
-1.74715e-19  4.50000e-01        00000 
-4.22227e-02  1.79183e-01        00000 
-6.55623e-02  1.76678e-01        00000 
-5.00421e-02  1.76182e-01        00000 
-1.92568e-03  4.45069e-01        00000 
-3.75822e-02  1.76087e-01        00000 
-6.01188e-02  1.73405e-01        00000 
-1.50701e-03  4.34965e-01        00000 
-4.36197e-04  4.34505e-01        00000 
-2.70333e-03  4.40094e-01        00000 
 1.74202e-03  4.34875e-01        00000 
-4.53121e-02  1.69476e-01        00000 
 5.59487e-03  4.36038e-01        00000 
-5.37522e-02  1.67127e-01        00000 
-4.08244e-02  1.63721e-01        00000 
-2.46293e-03  4.35218e-01        00000 
-3.62989e-02  1.57352e-01        00000 
-1.45216e-03  4.31129e-01        00000 
-4.74179e-02  1.57866e-01        00000 
 3.04310e-04  4.29514e-01        00000 
 3.17587e-03  4.29991e-01        00000 
 7.72268e-03  4.32447e-01        00000 
-4.28735e-02  1.52965e-01        00000 
-6.63498e-02  1.61318e-01        00000 
-3.74009e-19  4.50000e-01        00000 
-3.87675e-02  1.47307e-01        00000 
-6.10148e-02  1.57780e-01        00000 
-2.09863e-03  4.43690e-01        00000 
-3.46673e-02  1.39307e-01        00000 
-5.54734e-02  1.53466e-01        00000 
-2.67097e-03  4.37167e-01        00000 
-2.10229e-03  4.30729e-01        00000 
 1.00319e-02  4.27699e-01        00000 
-4.89635e-02  1.46061e-01        00000 
 5.23429e-03  4.23511e-01        00000 
-5.88824e-04  4.25134e-01        00000 
 1.86451e-03  4.22292e-01        00000 
-3.58230e-02  1.30197e-01        00000 
-3.87234e-02  1.34420e-01        00000 
-3.27418e-02  1.22077e-01        00000 
-4.15353e-02  1.34317e-01        00000 
 1.24451e-02  4.21781e-01        00000 
-6.08629e-02  1.43399e-01        00000 
-8.68889e-20  4.50000e-01        00000 
-5.55161e-02  1.39199e-01        00000 
-1.82391e-03  4.42160e-01        00000 
 7.88428e-03  4.15656e-01        00000 
-3.05551e-02  1.05794e-01        00000 
-1.95167e-03  4.33725e-01        00000 
-3.22946e-02  1.12930e-01        00000 
-4.98411e-02  1.33976e-01        00000 
-8.36730e-04  4.25094e-01        00000 
-3.34912e-02  1.15767e-01        00000 
 1.36724e-03  4.17186e-01        00000 
 4.79456e-03  4.11659e-01        00000 
 1.50250e-02  4.14814e-01        00000 
-4.35356e-02  1.26304e-01        00000 
 1.13999e-02  4.08520e-01        00000 
-2.81673e-02  9.06683e-02        00000 
-3.30225e-02  1.12221e-01        00000 
-2.87454e-02  9.75970e-02        00000 
 9.29591e-03  4.05335e-01        00000 
-3.66204e-02  1.15173e-01        00000 
 1.76842e-02  4.06381e-01        00000 
-2.86868e-02  9.98390e-02        00000 
-5.47493e-02  1.25596e-01        00000 
-7.52973e-20  4.50000e-01        00000 
-1.14844e-03  4.40524e-01        00000 
-4.93392e-02  1.20918e-01        00000 
 1.44867e-02  3.99383e-01        00000 
-5.53173e-04  4.30201e-01        00000 
-2.56529e-02  7.68972e-02        00000 
 1.27664e-03  4.19335e-01        00000 
-4.37708e-02  1.15508e-01        00000 
-2.52842e-02  8.42932e-02        00000 
 4.18119e-03  4.08698e-01        00000 
-2.74956e-02  9.73711e-02        00000 
 7.89321e-03  4.00506e-01        00000 
 1.16863e-02  3.96259e-01        00000 
 2.03775e-02  3.96600e-01        00000 
-2.48974e-02  8.78469e-02        00000 
-3.77158e-02  1.08283e-01        00000 
-2.92717e-02  1.00359e-01        00000 
-2.44794e-02  8.87223e-02        00000 
-2.30392e-02  6.45062e-02        00000 
 1.80580e-02  3.88358e-01        00000 
-2.15345e-02  7.17977e-02        00000 
-3.14439e-02  9.89620e-02        00000 
 2.30602e-02  3.85624e-01        00000 
-2.06422e-02  7.63031e-02        00000 
-2.32785e-02  8.68824e-02        00000 
-4.83537e-02  1.07890e-01        00000 
 1.08370e-19  4.50000e-01        00000 
-1.06476e-04  4.39000e-01        00000 
-4.30389e-02  1.03211e-01        00000 
 2.16662e-02  3.79015e-01        00000 
 1.65475e-02  3.81773e-01        00000 
-2.07840e-02  8.00827e-02        00000 
-2.03689e-02  5.34846e-02        00000 
 1.45297e-03  4.26910e-01        00000 
 4.26556e-03  4.13709e-01        00000 
-3.75617e-02  9.79912e-02        00000 
 8.03045e-03  4.00096e-01        00000 
 1.25563e-02  3.88054e-01        00000 
 2.08528e-02  3.75133e-01        00000 
 2.56958e-02  3.73161e-01        00000 
-1.76336e-02  6.02776e-02        00000 
-3.20684e-02  9.20397e-02        00000 
-2.38710e-02  8.48601e-02        00000 
 2.49449e-02  3.67463e-01        00000 
-1.76984e-02  4.37931e-02        00000 
-2.76966e-02  8.68538e-02        00000 
-1.57774e-02  6.42983e-02        00000 
 2.82297e-02  3.59286e-01        00000 
 2.39932e-02  3.64359e-01        00000 
-1.49897e-02  6.69795e-02        00000 
-1.37814e-02  4.94605e-02        00000 
-4.19482e-02  9.02891e-02        00000 
-1.77485e-20  4.50000e-01        00000 
-1.50832e-02  3.53717e-02        00000 
 2.19881e-02  3.66362e-01        00000 
 2.84347e-02  3.53779e-01        00000 
 1.21911e-03  4.37712e-01        00000 
-3.66498e-02  8.56937e-02        00000 
-1.57604e-02  6.93324e-02        00000 
 3.94251e-03  4.24140e-01        00000 
-3.12613e-02  8.07836e-02        00000 
 3.06182e-02  3.44202e-01        00000 
 7.82453e-03  4.09038e-01        00000 
-1.08630e-02  5.20986e-02        00000 
 1.28540e-02  3.92300e-01        00000 
-2.56905e-02  7.54886e-02        00000 
 2.84743e-02  3.50587e-01        00000 
-1.03100e-02  3.95872e-02        00000 
-1.25719e-02  2.81572e-02        00000 
-1.99735e-02  7.02588e-02        00000 
 1.96090e-02  3.72565e-01        00000 
 3.18985e-02  3.39055e-01        00000 
 3.27975e-02  3.27964e-01        00000 
-9.05690e-03  5.25969e-02        00000 
 2.82937e-02  3.50371e-01        00000 
-7.74556e-03  3.09454e-02        00000 
-1.01555e-02  2.21813e-02        00000 
-6.59184e-03  4.07138e-02        00000 
-9.31738e-03  5.40054e-02        00000 
 3.30583e-02  3.35692e-01        00000 
 3.52659e-02  3.22860e-01        00000 
-3.56510e-02  7.28155e-02        00000 
-5.06409e-19  4.50000e-01        00000 
 3.47332e-02  3.10724e-01        00000 
 2.75224e-03  4.36698e-01        00000 
-3.04728e-02  6.83989e-02        00000 
 6.73948e-03  4.22083e-01        00000 
-2.51918e-02  6.37495e-02        00000 
-5.83664e-03  2.40485e-02        00000 
-7.84771e-03  1.74579e-02        00000 
 1.16081e-02  4.05976e-01        00000 
 2.85853e-02  3.52004e-01        00000 
-1.99918e-02  5.89783e-02        00000 
 3.41513e-02  3.34532e-01        00000 
-3.98526e-03  3.09616e-02        00000 
 3.63663e-02  2.92589e-01        00000 
-1.02425e-02  5.22913e-02        00000 
 1.72929e-02  3.88382e-01        00000 
 3.74986e-02  3.19663e-01        00000 
 3.83059e-02  3.05753e-01        00000 
-1.50587e-02  5.37245e-02        00000 
-5.69833e-03  1.39196e-02        00000 
-4.11177e-03  1.86440e-02        00000 
-3.30659e-03  3.82987e-02        00000 
 2.40245e-02  3.69310e-01        00000 
-2.61288e-03  2.39333e-02        00000 
 3.76474e-02  2.73772e-01        00000 
-1.06648e-02  4.72485e-02        00000 
 3.54741e-02  3.34939e-01        00000 
 4.09818e-02  2.87493e-01        00000 
 3.94399e-02  3.18643e-01        00000 
-4.18109e-03  4.10684e-02        00000 
-3.70843e-03  1.14537e-02        00000 
 4.16273e-02  3.02567e-01        00000 
-2.64863e-03  1.46569e-02        00000 
-2.93797e-02  5.54766e-02        00000 
 2.69175e-18  4.50000e-01        00000 
-1.65881e-03  1.89591e-02        00000 
-1.11870e-03  2.81044e-02        00000 
-2.43042e-02  5.12313e-02        00000 
 4.48657e-03  4.35846e-01        00000 
 3.85251e-02  2.54429e-01        00000 
 3.11879e-02  3.51307e-01        00000 
-1.92987e-02  4.70146e-02        00000 
 9.81190e-03  4.20488e-01        00000 
-1.82723e-03  9.95312e-03        00000 
-3.35728e-04  2.18851e-02        00000 
 1.55817e-02  4.03501e-01        00000 
-1.46407e-02  4.31391e-02        00000 
 4.29791e-02  2.68601e-01        00000 
-1.51858e-03  1.17049e-02        00000 
-3.46517e-04  1.87226e-02        00000 
 3.89655e-02  2.34804e-01        00000 
-6.43684e-04  1.51278e-02        00000 
 4.12240e-02  3.19326e-01        00000 
 2.16132e-02  3.86013e-01        00000 
 4.52699e-02  2.84261e-01        00000 
 4.45035e-02  3.01831e-01        00000 
-1.05297e-02  3.93155e-02        00000 
 2.15451e-05  9.46827e-03        00000 
 3.77089e-02  3.34906e-01        00000 
-7.54065e-04  9.82495e-03        00000 
 3.89519e-02  2.15063e-01        00000 
-7.05126e-03  3.58051e-02        00000 
 2.81071e-02  3.67864e-01        00000 
 4.42319e-02  2.49224e-01        00000 
-6.45711e-04  3.00311e-02        00000 
 3.99657e-04  2.69913e-02        00000 
-4.43307e-03  3.40368e-02        00000 
 6.13109e-04  1.56512e-02        00000 
 1.78914e-03  1.00494e-02        00000 
 4.25480e-06  1.19356e-02        00000 
 1.35188e-03  2.17758e-02        00000 
 3.84973e-02  1.95447e-01        00000 
 4.80379e-02  2.64831e-01        00000 
 4.31812e-02  3.20096e-01        00000 
-1.28578e-04  9.01608e-03        00000 
 1.40340e-03  1.73289e-02        00000 
 3.47191e-02  3.50357e-01        00000 
-2.26767e-02  3.82299e-02        00000 
-8.99778e-19  4.50000e-01        00000 
 4.46350e-02  2.29962e-01        00000 
 4.66368e-02  3.03838e-01        00000 
-1.36293e-03  2.90603e-02        00000 
 3.59428e-03  1.15465e-02        00000 
-1.77127e-02  3.39989e-02        00000 
 6.57758e-03  4.34920e-01        00000 
 4.93714e-02  2.83171e-01        00000 
-1.31122e-02  3.06176e-02        00000 
 1.34149e-02  4.18409e-01        00000 
 3.76115e-02  1.76122e-01        00000 
 9.71585e-05  9.79318e-03        00000 
 5.54749e-03  1.40113e-02        00000 
-9.35183e-03  2.79102e-02        00000 
 1.98219e-02  4.01267e-01        00000 
 4.69549e-02  3.08783e-01        00000 
 4.42913e-02  2.10858e-01        00000 
 4.10070e-02  3.33670e-01        00000 
 4.95688e-02  2.45135e-01        00000 
 3.63252e-02  1.57311e-01        00000 
 1.08772e-03  1.19778e-02        00000 
 2.17921e-04  9.43382e-03        00000 
-9.10383e-06  9.04569e-03        00000 
-6.22815e-03  2.54039e-02        00000 
 9.48838e-04  2.31361e-02        00000 
 2.60823e-02  3.83657e-01        00000 
 7.69793e-03  1.75251e-02        00000 
 3.46694e-02  1.39202e-01        00000 
 4.32719e-02  1.92496e-01        00000 
 1.00282e-02  2.22181e-02        00000 
-3.61153e-03  2.30942e-02        00000 
 3.24535e-02  3.65990e-01        00000 
 5.29770e-02  2.62366e-01        00000 
 2.05811e-03  1.92568e-02        00000 
 3.27171e-02  1.21962e-01        00000 
 4.65689e-02  3.17761e-01        00000 
 4.99213e-02  2.25698e-01        00000 
 7.23139e-04  1.14769e-02        00000 
 1.25088e-02  2.80977e-02        00000 
 4.18243e-02  1.74616e-01        00000 
 3.05279e-02  1.05726e-01        00000 
-1.43611e-03  2.10398e-02        00000 
 5.66319e-04  9.23224e-03        00000 
 1.50780e-02  3.52218e-02        00000 
 2.81621e-02  9.06500e-02        00000 
 2.53250e-03  1.54053e-02        00000 
 1.77200e-02  4.36107e-02        00000 
 5.09084e-02  3.02686e-01        00000 
 3.88279e-02  3.48675e-01        00000 
 5.35710e-02  2.85483e-01        00000 
 2.56729e-02  7.68911e-02        00000 
 2.03995e-02  5.33446e-02        00000 
 2.30649e-02  6.44280e-02        00000 
 1.77855e-03  1.49909e-02        00000 
 3.98700e-02  1.57268e-01        00000 
 4.91067e-02  2.06924e-01        00000 
       00000  4.50000e-01        00000 
-1.48684e-02  2.05387e-02        00000 