<?xml version="1.0" encoding="utf-8"?>
<VTKFile byte_order="LittleEndian" type="UnstructuredGrid" version="0.1">
   <UnstructuredGrid>
      <Piece NumberOfCells="641" NumberOfPoints="730">
         <Points>
            <DataArray Name="Points" NumberOfComponents="3" format="ascii" type="Float32">
1.0000 1.0000 0.0000
0.9600 1.0000 0.0000
1.0000 0.9600 0.0000
0.9603 0.9614 0.0000
1.0000 0.9200 0.0000
0.9200 1.0000 0.0000
0.9612 0.9231 0.0000
0.9211 0.9624 0.0000
0.9230 0.9260 0.0000
1.0000 0.8800 0.0000
0.8800 1.0000 0.0000
0.9614 0.8856 0.0000
0.8829 0.9623 0.0000
0.9240 0.8918 0.0000
0.8875 0.9262 0.0000
0.8933 0.8971 0.0000
0.9597 0.8473 0.0000
1.0000 0.8400 0.0000
0.8400 1.0000 0.0000
0.8440 0.9601 0.0000
0.9173 0.8563 0.0000
0.8514 0.9190 0.0000
0.8690 0.8729 0.0000
0.9592 0.8063 0.0000
1.0000 0.8000 0.0000
0.8000 1.0000 0.0000
0.8021 0.9589 0.0000
0.9165 0.8130 0.0000
0.8054 0.9165 0.0000
0.8676 0.8205 0.0000
0.8109 0.8707 0.0000
0.9597 0.7652 0.0000
1.0000 0.7600 0.0000
0.7600 1.0000 0.0000
0.7590 0.9590 0.0000
0.9161 0.7702 0.0000
0.7581 0.9167 0.0000
0.8122 0.8209 0.0000
0.8679 0.7733 0.0000
0.7569 0.8708 0.0000
0.9590 0.7242 0.0000
1.0000 0.7200 0.0000
0.7200 1.0000 0.0000
0.9153 0.7275 0.0000
0.7165 0.9591 0.0000
0.8165 0.7719 0.0000
0.7126 0.9181 0.0000
0.8686 0.7282 0.0000
0.7510 0.8174 0.0000
0.7082 0.8753 0.0000
0.9580 0.6829 0.0000
1.0000 0.6800 0.0000
0.6800 1.0000 0.0000
0.7693 0.7706 0.0000
0.9140 0.6851 0.0000
0.6742 0.9594 0.0000
0.8161 0.7213 0.0000
0.8740 0.6885 0.0000
0.6685 0.9181 0.0000
0.7012 0.8339 0.0000
0.7734 0.7344 0.0000
0.7152 0.7855 0.0000
0.6650 0.8760 0.0000
0.7356 0.7577 0.0000
1.0000 0.6400 0.0000
0.6400 1.0000 0.0000
0.8350 0.6800 0.0000
0.9558 0.6404 0.0000
0.8757 0.6585 0.0000
0.7480 0.7370 0.0000
0.6333 0.9593 0.0000
0.6862 0.8039 0.0000
0.9052 0.6395 0.0000
0.6619 0.8374 0.0000
0.7838 0.6876 0.0000
0.7581 0.7055 0.0000
0.6270 0.9175 0.0000
0.6640 0.8136 0.0000
0.8474 0.6471 0.0000
0.7341 0.7184 0.0000
0.6889 0.7621 0.0000
0.8018 0.6601 0.0000
0.7087 0.7349 0.0000
0.6240 0.8728 0.0000
0.6655 0.7821 0.0000
1.0000 0.6000 0.0000
0.6000 1.0000 0.0000
0.9579 0.5979 0.0000
0.8635 0.6181 0.0000
0.6438 0.7994 0.0000
0.5930 0.9599 0.0000
0.7406 0.6813 0.0000
0.8153 0.6317 0.0000
0.7215 0.6960 0.0000
0.7582 0.6627 0.0000
0.9144 0.5934 0.0000
0.6224 0.8262 0.0000
0.7025 0.7080 0.0000
0.6817 0.7264 0.0000
0.5880 0.9170 0.0000
0.6661 0.7445 0.0000
0.6874 0.7117 0.0000
0.7729 0.6402 0.0000
0.6462 0.7610 0.0000
0.8270 0.6029 0.0000
0.5855 0.8736 0.0000
0.7078 0.6759 0.0000
0.8731 0.5824 0.0000
0.6922 0.6895 0.0000
0.6247 0.7752 0.0000
0.7227 0.6602 0.0000
0.6777 0.7007 0.0000
1.0000 0.5600 0.0000
0.5600 1.0000 0.0000
0.7852 0.6159 0.0000
0.6645 0.7138 0.0000
0.7363 0.6426 0.0000
0.9599 0.5572 0.0000
0.6483 0.7278 0.0000
0.5542 0.9595 0.0000
0.6026 0.7897 0.0000
0.5823 0.8324 0.0000
0.6299 0.7405 0.0000
0.9195 0.5531 0.0000
0.7477 0.6223 0.0000
0.5507 0.9171 0.0000
0.6803 0.6732 0.0000
0.6658 0.6871 0.0000
0.8355 0.5722 0.0000
0.7947 0.5901 0.0000
0.6936 0.6581 0.0000
0.6502 0.6999 0.0000
0.6098 0.7514 0.0000
0.7057 0.6420 0.0000
0.7579 0.6014 0.0000
0.6336 0.7113 0.0000
0.5497 0.8744 0.0000
0.8778 0.5472 0.0000
0.7165 0.6250 0.0000
0.5740 0.7964 0.0000
0.6162 0.7214 0.0000
0.5892 0.7610 0.0000
0.7259 0.6072 0.0000
0.8020 0.5638 0.0000
1.0000 0.5200 0.0000
0.5200 1.0000 0.0000
0.5492 0.8345 0.0000
0.7657 0.5790 0.0000
0.9606 0.5179 0.0000
0.5980 0.7300 0.0000
0.8398 0.5417 0.0000
0.5158 0.9583 0.0000
0.7338 0.5887 0.0000
0.9203 0.5154 0.0000
0.5665 0.7670 0.0000
0.5131 0.9159 0.0000
0.5474 0.8009 0.0000
0.5792 0.7371 0.0000
0.7720 0.5563 0.0000
0.8787 0.5129 0.0000
0.8059 0.5366 0.0000
0.5141 0.8719 0.0000
0.7401 0.5696 0.0000
0.5598 0.7427 0.0000
0.5440 0.7719 0.0000
0.5175 0.8314 0.0000
0.8405 0.5118 0.0000
0.7450 0.5500 0.0000
0.5225 0.8010 0.0000
0.7754 0.5328 0.0000
1.0000 0.4800 0.0000
0.4800 1.0000 0.0000
0.9602 0.4791 0.0000
0.5401 0.7468 0.0000
0.4767 0.9571 0.0000
0.8069 0.5110 0.0000
0.9179 0.4782 0.0000
0.5221 0.7741 0.0000
0.4748 0.9127 0.0000
0.7482 0.5301 0.0000
0.8747 0.4784 0.0000
0.5027 0.7984 0.0000
0.7768 0.5101 0.0000
0.4760 0.8661 0.0000
0.5201 0.7492 0.0000
0.8373 0.4828 0.0000
0.4848 0.8182 0.0000
0.5012 0.7757 0.0000
0.7498 0.5101 0.0000
0.8046 0.4854 0.0000
0.5000 0.7500 0.0000
0.7754 0.4874 0.0000
1.0000 0.4400 0.0000
0.4400 1.0000 0.0000
0.9587 0.4395 0.0000
0.4799 0.7803 0.0000
0.4361 0.9573 0.0000
0.9156 0.4395 0.0000
0.7498 0.4899 0.0000
0.8291 0.4561 0.0000
0.4343 0.9109 0.0000
0.8003 0.4626 0.0000
0.8632 0.4393 0.0000
0.4799 0.7492 0.0000
0.7730 0.4662 0.0000
0.4477 0.8146 0.0000
0.4327 0.8588 0.0000
0.7482 0.4699 0.0000
0.8161 0.4410 0.0000
0.4541 0.7785 0.0000
0.7944 0.4428 0.0000
0.4599 0.7468 0.0000
1.0000 0.4000 0.0000
0.4000 1.0000 0.0000
0.7686 0.4455 0.0000
0.9592 0.3996 0.0000
0.8248 0.4242 0.0000
0.3968 0.9575 0.0000
0.7450 0.4500 0.0000
0.9170 0.3993 0.0000
0.4159 0.8309 0.0000
0.4229 0.8031 0.0000
0.3948 0.9133 0.0000
0.4316 0.7723 0.0000
0.7936 0.4233 0.0000
0.4402 0.7427 0.0000
0.8698 0.3967 0.0000
0.7652 0.4264 0.0000
0.3936 0.8689 0.0000
0.7401 0.4304 0.0000
0.3920 0.8309 0.0000
0.8264 0.3924 0.0000
0.3992 0.7968 0.0000
0.4094 0.7650 0.0000
0.4208 0.7371 0.0000
0.7903 0.3985 0.0000
1.0000 0.3600 0.0000
0.3600 1.0000 0.0000
0.7600 0.4056 0.0000
0.9598 0.3592 0.0000
0.3583 0.9570 0.0000
0.7338 0.4113 0.0000
0.9182 0.3582 0.0000
0.3575 0.9135 0.0000
0.3585 0.8699 0.0000
0.4020 0.7300 0.0000
0.8721 0.3546 0.0000
0.3871 0.7558 0.0000
0.3627 0.8272 0.0000
0.3723 0.7881 0.0000
0.7509 0.3845 0.0000
0.7810 0.3713 0.0000
0.7259 0.3928 0.0000
0.8206 0.3501 0.0000
0.3838 0.7214 0.0000
1.0000 0.3200 0.0000
0.3200 1.0000 0.0000
0.9609 0.3186 0.0000
0.3188 0.9571 0.0000
0.3655 0.7452 0.0000
0.7165 0.3750 0.0000
0.3191 0.9130 0.0000
0.7387 0.3639 0.0000
0.9203 0.3164 0.0000
0.3226 0.8674 0.0000
0.7625 0.3483 0.0000
0.3295 0.8214 0.0000
0.3412 0.7756 0.0000
0.3664 0.7113 0.0000
0.8783 0.3117 0.0000
0.3501 0.7297 0.0000
0.7057 0.3580 0.0000
0.7858 0.3237 0.0000
0.7257 0.3455 0.0000
0.3355 0.7477 0.0000
0.8363 0.3032 0.0000
0.3498 0.6999 0.0000
0.7447 0.3291 0.0000
1.0000 0.2800 0.0000
0.2800 1.0000 0.0000
0.2794 0.9569 0.0000
0.9615 0.2779 0.0000
0.3326 0.7179 0.0000
0.2801 0.9127 0.0000
0.6936 0.3419 0.0000
0.2847 0.8665 0.0000
0.9228 0.2753 0.0000
0.7128 0.3285 0.0000
0.2921 0.8195 0.0000
0.7602 0.3086 0.0000
0.3033 0.7758 0.0000
0.3147 0.7412 0.0000
0.3342 0.6871 0.0000
0.7305 0.3141 0.0000
0.8833 0.2705 0.0000
0.7998 0.2876 0.0000
0.7436 0.3019 0.0000
0.6803 0.3268 0.0000
0.3147 0.7039 0.0000
0.6989 0.3111 0.0000
0.8465 0.2623 0.0000
0.3197 0.6732 0.0000
0.7181 0.2951 0.0000
0.7660 0.2772 0.0000
1.0000 0.2400 0.0000
0.2400 1.0000 0.0000
0.2395 0.9570 0.0000
0.9623 0.2379 0.0000
0.3033 0.6872 0.0000
0.2867 0.7266 0.0000
0.7391 0.2819 0.0000
0.6658 0.3129 0.0000
0.2402 0.9130 0.0000
0.2441 0.8665 0.0000
0.9241 0.2355 0.0000
0.2521 0.8179 0.0000
0.2648 0.7698 0.0000
0.2877 0.7007 0.0000
0.3064 0.6581 0.0000
0.6834 0.2942 0.0000
0.8864 0.2325 0.0000
0.8108 0.2442 0.0000
0.2899 0.6725 0.0000
0.6502 0.3001 0.0000
0.8557 0.2306 0.0000
0.7030 0.2743 0.0000
0.2943 0.6420 0.0000
0.2710 0.6909 0.0000
0.7273 0.2535 0.0000
0.6657 0.2787 0.0000
1.0000 0.2000 0.0000
0.2000 1.0000 0.0000
0.6336 0.2887 0.0000
0.2514 0.7173 0.0000
0.2756 0.6564 0.0000
0.1992 0.9576 0.0000
0.9620 0.1981 0.0000
0.7627 0.2311 0.0000
0.1993 0.9141 0.0000
0.9233 0.1961 0.0000
0.2835 0.6250 0.0000
0.2019 0.8680 0.0000
0.6830 0.2545 0.0000
0.2075 0.8181 0.0000
0.8823 0.1948 0.0000
0.2539 0.6737 0.0000
0.6460 0.2652 0.0000
0.6162 0.2786 0.0000
0.8346 0.1977 0.0000
0.2163 0.7604 0.0000
0.2633 0.6381 0.0000
0.2741 0.6072 0.0000
0.7040 0.2284 0.0000
0.2284 0.6955 0.0000
0.6248 0.2559 0.0000
0.5980 0.2700 0.0000
0.6595 0.2370 0.0000
0.7292 0.2095 0.0000
0.2397 0.6531 0.0000
0.2516 0.6187 0.0000
1.0000 0.1600 0.0000
0.1600 1.0000 0.0000
0.2662 0.5887 0.0000
0.1588 0.9585 0.0000
0.9622 0.1583 0.0000
0.1581 0.9163 0.0000
0.9233 0.1564 0.0000
0.6042 0.2491 0.0000
0.5792 0.2629 0.0000
0.1589 0.8722 0.0000
0.1958 0.7202 0.0000
0.8836 0.1548 0.0000
0.2123 0.6706 0.0000
0.6322 0.2291 0.0000
0.2599 0.5696 0.0000
0.7803 0.1720 0.0000
0.1609 0.8259 0.0000
0.2262 0.6315 0.0000
0.2418 0.5979 0.0000
0.8442 0.1523 0.0000
0.5598 0.2573 0.0000
0.5842 0.2424 0.0000
0.6765 0.1983 0.0000
0.1621 0.7781 0.0000
0.6083 0.2254 0.0000
0.2550 0.5500 0.0000
0.8115 0.1450 0.0000
0.1814 0.6889 0.0000
0.2335 0.5759 0.0000
0.1986 0.6460 0.0000
0.7210 0.1689 0.0000
0.5401 0.2532 0.0000
0.2141 0.6084 0.0000
0.5648 0.2361 0.0000
1.0000 0.1200 0.0000
0.1200 1.0000 0.0000
0.5886 0.2216 0.0000
0.6361 0.1981 0.0000
0.9623 0.1186 0.0000
0.1185 0.9594 0.0000
0.2518 0.5301 0.0000
0.1554 0.7378 0.0000
0.9238 0.1169 0.0000
0.1171 0.9188 0.0000
0.5201 0.2508 0.0000
0.6081 0.2005 0.0000
0.1177 0.8757 0.0000
0.8845 0.1155 0.0000
0.2278 0.5529 0.0000
0.5447 0.2310 0.0000
0.5916 0.2048 0.0000
0.2502 0.5101 0.0000
0.5703 0.2140 0.0000
0.1692 0.6615 0.0000
0.1178 0.8329 0.0000
0.2039 0.5833 0.0000
0.1845 0.6209 0.0000
0.8462 0.1139 0.0000
0.5000 0.2500 0.0000
0.1474 0.7037 0.0000
0.5242 0.2284 0.0000
0.2502 0.4899 0.0000
0.8095 0.1132 0.0000
0.1175 0.7897 0.0000
0.2245 0.5293 0.0000
0.6911 0.1470 0.0000
0.6623 0.1569 0.0000
0.7718 0.1199 0.0000
0.5787 0.1926 0.0000
0.4799 0.2508 0.0000
0.5494 0.2063 0.0000
0.6277 0.1636 0.0000
0.2518 0.4699 0.0000
0.1972 0.5560 0.0000
0.1405 0.6744 0.0000
0.5036 0.2260 0.0000
0.5965 0.1735 0.0000
0.1148 0.7499 0.0000
1.0000 0.0800 0.0000
0.0800 1.0000 0.0000
0.2237 0.5060 0.0000
0.1547 0.6362 0.0000
0.7277 0.1206 0.0000
0.4599 0.2532 0.0000
0.9618 0.0790 0.0000
0.0786 0.9601 0.0000
0.1700 0.5930 0.0000
0.9229 0.0780 0.0000
0.0778 0.9196 0.0000
0.2550 0.4500 0.0000
0.5267 0.2034 0.0000
0.4402 0.2573 0.0000
0.8839 0.0770 0.0000
0.0771 0.8790 0.0000
0.1358 0.6525 0.0000
0.2250 0.4832 0.0000
0.1115 0.7133 0.0000
0.1942 0.5282 0.0000
0.2599 0.4304 0.0000
0.5565 0.1781 0.0000
0.4830 0.2210 0.0000
[...]
         <PointData>
            <DataArray Name="Displacement" NumberOfComponents="3" format="ascii" type="Float64">
-2.93754e-18  2.00000e-01        00000 
 2.85312e-18  2.00000e-01        00000 
-7.21194e-03  1.89592e-01        00000 
-4.26924e-03  1.92327e-01        00000 
-1.11100e-02  1.80865e-01        00000 
-1.43844e-18  2.00000e-01        00000 
-8.29486e-03  1.83975e-01        00000 
-2.74725e-03  1.93314e-01        00000 
-5.82132e-03  1.86257e-01        00000 
-1.45770e-02  1.72471e-01        00000 
 1.38985e-19  2.00000e-01        00000 
-1.15299e-02  1.76076e-01        00000 
-1.76941e-03  1.93904e-01        00000 
-8.66374e-03  1.79389e-01        00000 
-4.17738e-03  1.87430e-01        00000 
-6.54154e-03  1.81805e-01        00000 
-1.46550e-02  1.68259e-01        00000 
-1.79722e-02  1.64115e-01        00000 
 8.70199e-19  2.00000e-01        00000 
-1.02765e-03  1.94143e-01        00000 
-1.11314e-02  1.72648e-01        00000 
-3.12553e-03  1.87342e-01        00000 
-6.88206e-03  1.78485e-01        00000 
-1.82199e-02  1.59907e-01        00000 
-2.15255e-02  1.55810e-01        00000 
-3.52429e-19  2.00000e-01        00000 
-2.84634e-04  1.94640e-01        00000 
-1.47673e-02  1.64044e-01        00000 
-1.60435e-03  1.88508e-01        00000 
-1.09137e-02  1.68709e-01        00000 
-4.04352e-03  1.81123e-01        00000 
-2.21028e-02  1.51536e-01        00000 
-2.52773e-02  1.47609e-01        00000 
 1.88094e-19  2.00000e-01        00000 
 3.70327e-04  1.95400e-01        00000 
-1.86961e-02  1.55514e-01        00000 
-1.97902e-04  1.90308e-01        00000 
-7.41158e-03  1.72695e-01        00000 
-1.51114e-02  1.59570e-01        00000 
-1.71396e-03  1.84405e-01        00000 
-2.60799e-02  1.43360e-01        00000 
-2.91615e-02  1.39590e-01        00000 
-2.20602e-20  2.00000e-01        00000 
-2.28661e-02  1.46983e-01        00000 
 8.44394e-04  1.96209e-01        00000 
-1.17373e-02  1.63636e-01        00000 
 8.17662e-04  1.92305e-01        00000 
-1.96086e-02  1.50553e-01        00000 
-4.16189e-03  1.77453e-01        00000 
 8.04685e-05  1.88176e-01        00000 
-3.00938e-02  1.35239e-01        00000 
-3.30065e-02  1.31824e-01        00000 
 4.76681e-19  2.00000e-01        00000 
-8.74860e-03  1.68358e-01        00000 
-2.70459e-02  1.38533e-01        00000 
 1.10473e-03  1.97032e-01        00000 
-1.66471e-02  1.54052e-01        00000 
-2.40620e-02  1.42062e-01        00000 
 1.38343e-03  1.94121e-01        00000 
-1.21745e-03  1.84456e-01        00000 
-1.24335e-02  1.61730e-01        00000 
-4.53875e-03  1.77224e-01        00000 
 9.80680e-04  1.91170e-01        00000 
-7.84830e-03  1.70693e-01        00000 
-3.65604e-02  1.24347e-01        00000 
 4.44876e-20  2.00000e-01        00000 
-2.23004e-02  1.43764e-01        00000 
-3.38761e-02  1.27063e-01        00000 
-2.71801e-02  1.35729e-01        00000 
-1.05591e-02  1.65832e-01        00000 
 1.14621e-03  1.97743e-01        00000 
-2.14185e-03  1.83000e-01        00000 
-3.08976e-02  1.29747e-01        00000 
 7.07960e-06  1.88496e-01        00000 
-1.80037e-02  1.51558e-01        00000 
-1.44047e-02  1.58960e-01        00000 
 1.52413e-03  1.95690e-01        00000 
-9.97140e-04  1.86475e-01        00000 
-2.64802e-02  1.35558e-01        00000 
-1.15790e-02  1.65257e-01        00000 
-5.12135e-03  1.78479e-01        00000 
-2.21401e-02  1.43330e-01        00000 
-8.49928e-03  1.72061e-01        00000 
 1.26638e-03  1.93600e-01        00000 
-2.75648e-03  1.83823e-01        00000 
-3.95800e-02  1.17143e-01        00000 
-1.30272e-19  2.00000e-01        00000 
-3.73228e-02  1.18747e-01        00000 
-3.01307e-02  1.27885e-01        00000 
-1.13953e-03  1.87883e-01        00000 
 9.66679e-04  1.98365e-01        00000 
-1.59709e-02  1.58047e-01        00000 
-2.58436e-02  1.35350e-01        00000 
-1.33216e-02  1.64462e-01        00000 
-1.90097e-02  1.50998e-01        00000 
-3.51175e-02  1.19685e-01        00000 
 3.40865e-04  1.91522e-01        00000 
-1.11214e-02  1.70237e-01        00000 
-8.26634e-03  1.76446e-01        00000 
 1.31941e-03  1.96940e-01        00000 
-5.82963e-03  1.80876e-01        00000 
-1.01478e-02  1.74029e-01        00000 
-2.22284e-02  1.43453e-01        00000 
-3.74249e-03  1.85310e-01        00000 
-2.90896e-02  1.27291e-01        00000 
 1.19891e-03  1.95722e-01        00000 
-1.50430e-02  1.65164e-01        00000 
-3.34159e-02  1.19227e-01        00000 
-1.29603e-02  1.70876e-01        00000 
-2.15382e-03  1.89061e-01        00000 
-1.73553e-02  1.58814e-01        00000 
-1.12344e-02  1.75526e-01        00000 
-4.17782e-02  1.10184e-01        00000 
-9.51438e-20  2.00000e-01        00000 
-2.52638e-02  1.35614e-01        00000 
-9.28555e-03  1.79376e-01        00000 
-1.97843e-02  1.51987e-01        00000 
-3.97012e-02  1.10876e-01        00000 
-7.19794e-03  1.83397e-01        00000 
 6.39793e-04  1.98759e-01        00000 
-9.47404e-04  1.92083e-01        00000 
 6.09853e-04  1.94891e-01        00000 
-5.33810e-03  1.87134e-01        00000 
-3.76216e-02  1.11110e-01        00000 
-2.22360e-02  1.44638e-01        00000 
 8.68071e-04  1.97813e-01        00000 
-1.48812e-02  1.73202e-01        00000 
-1.30122e-02  1.78181e-01        00000 
-3.17422e-02  1.19014e-01        00000 
-2.78902e-02  1.27581e-01        00000 
-1.67485e-02  1.67557e-01        00000 
-1.11664e-02  1.82468e-01        00000 
-3.81134e-03  1.90372e-01        00000 
-1.85701e-02  1.61302e-01        00000 
-2.44869e-02  1.36877e-01        00000 
-9.36502e-03  1.86167e-01        00000 
 8.13926e-04  1.97106e-01        00000 
-3.54981e-02  1.10976e-01        00000 
-2.03097e-02  1.54468e-01        00000 
-3.82088e-04  1.94791e-01        00000 
-7.66662e-03  1.89277e-01        00000 
-2.58046e-03  1.92940e-01        00000 
-2.19281e-02  1.47106e-01        00000 
-2.99748e-02  1.19436e-01        00000 
-4.29285e-02  1.03388e-01        00000 
 9.49496e-20  2.00000e-01        00000 
 4.74737e-04  1.96653e-01        00000 
-2.64235e-02  1.28780e-01        00000 
-4.08514e-02  1.03407e-01        00000 
-6.10221e-03  1.91816e-01        00000 
-3.34395e-02  1.10974e-01        00000 
 2.06830e-04  1.98936e-01        00000 
-2.33556e-02  1.39252e-01        00000 
-3.86827e-02  1.03226e-01        00000 
-1.72662e-03  1.95045e-01        00000 
 2.48986e-04  1.98218e-01        00000 
-1.15382e-04  1.96461e-01        00000 
-4.68249e-03  1.93812e-01        00000 
-2.79639e-02  1.20449e-01        00000 
-3.63990e-02  1.03000e-01        00000 
-3.13372e-02  1.11167e-01        00000 
 2.55457e-04  1.97763e-01        00000 
-2.45631e-02  1.30981e-01        00000 
-3.38604e-03  1.95343e-01        00000 
-1.01349e-03  1.96453e-01        00000 
 1.69474e-04  1.97505e-01        00000 
-3.41538e-02  1.03103e-01        00000 
-2.54999e-02  1.22370e-01        00000 
-3.80524e-05  1.97323e-01        00000 
-2.89629e-02  1.11953e-01        00000 
-4.29117e-02  9.66460e-02        00000 
-2.17394e-19  2.00000e-01        00000 
-4.07654e-02  9.60460e-02        00000 
-2.18725e-03  1.96396e-01        00000 
-2.85432e-04  1.98881e-01        00000 
-3.19060e-02  1.03344e-01        00000 
-3.84534e-02  9.54136e-02        00000 
-4.75662e-04  1.97240e-01        00000 
-4.33728e-04  1.98075e-01        00000 
-2.61426e-02  1.13505e-01        00000 
-3.60467e-02  9.49073e-02        00000 
 1.33696e-05  1.97536e-01        00000 
-2.94034e-02  1.03670e-01        00000 
-3.73902e-04  1.97595e-01        00000 
-1.06354e-03  1.97020e-01        00000 
-3.38929e-02  9.53791e-02        00000 
-7.63964e-05  1.97533e-01        00000 
-6.58017e-06  1.97516e-01        00000 
-2.64636e-02  1.04498e-01        00000 
-3.16911e-02  9.54415e-02        00000 
 2.64025e-05  1.97224e-01        00000 
-2.92583e-02  9.53078e-02        00000 
-4.17390e-02  8.98377e-02        00000 
 3.93617e-19  2.00000e-01        00000 
-3.94543e-02  8.84880e-02        00000 
 3.39351e-04  1.97293e-01        00000 
-7.42632e-04  1.98600e-01        00000 
-3.70389e-02  8.72491e-02        00000 
-2.64597e-02  9.54247e-02        00000 
-3.26713e-02  8.78746e-02        00000 
-1.05339e-03  1.97347e-01        00000 
-3.08911e-02  8.82044e-02        00000 
-3.41027e-02  8.53320e-02        00000 
 1.08870e-03  1.96997e-01        00000 
-2.87105e-02  8.74067e-02        00000 
-1.42759e-04  1.96322e-01        00000 
-9.20769e-04  1.96234e-01        00000 
-2.61261e-02  8.64166e-02        00000 
-3.11589e-02  8.30166e-02        00000 
 8.09759e-04  1.96397e-01        00000 
-2.97252e-02  8.17171e-02        00000 
 2.18598e-03  1.96387e-01        00000 
-3.95574e-02  8.28691e-02        00000 
-1.96554e-19  2.00000e-01        00000 
-2.77348e-02  7.96565e-02        00000 
-3.71962e-02  8.08561e-02        00000 
-3.08330e-02  7.93143e-02        00000 
-1.05340e-03  1.98124e-01        00000 
-2.54810e-02  7.75425e-02        00000 
-3.47244e-02  7.89404e-02        00000 
-5.13628e-04  1.94722e-01        00000 
 1.93502e-04  1.94715e-01        00000 
-1.44164e-03  1.96277e-01        00000 
 1.45487e-03  1.94984e-01        00000 
-2.86594e-02  7.59996e-02        00000 
 3.36502e-03  1.95359e-01        00000 
-3.17381e-02  7.58853e-02        00000 
-2.66472e-02  7.28032e-02        00000 
-1.20503e-03  1.94481e-01        00000 
-2.45356e-02  6.89648e-02        00000 
-5.12888e-04  1.92963e-01        00000 
-2.86710e-02  7.15195e-02        00000 
 6.15307e-04  1.92518e-01        00000 
 2.30150e-03  1.92893e-01        00000 
 4.66046e-03  1.93850e-01        00000 
-2.67535e-02  6.88386e-02        00000 
-3.65555e-02  7.56627e-02        00000 
 3.74009e-19  2.00000e-01        00000 
-2.50756e-02  6.55170e-02        00000 
-3.40720e-02  7.30913e-02        00000 
-1.19274e-03  1.97464e-01        00000 
-2.33350e-02  6.07349e-02        00000 
-3.14421e-02  7.05640e-02        00000 
-1.50363e-03  1.94868e-01        00000 
-1.11409e-03  1.92325e-01        00000 
 6.08615e-03  1.91820e-01        00000 
-2.82197e-02  6.68715e-02        00000 
 3.44750e-03  1.90038e-01        00000 
-1.29816e-04  1.90172e-01        00000 
 1.41863e-03  1.89250e-01        00000 
-2.29614e-02  5.78225e-02        00000 
-2.38032e-02  6.06216e-02        00000 
-2.19198e-02  5.28974e-02        00000 
-2.44457e-02  6.12529e-02        00000 
 7.61679e-03  1.89250e-01        00000 
-3.29980e-02  6.81760e-02        00000 
 6.51667e-19  2.00000e-01        00000 
-3.04056e-02  6.52285e-02        00000 
-1.11155e-03  1.96716e-01        00000 
 4.90912e-03  1.86473e-01        00000 
-2.03126e-02  4.55062e-02        00000 
-1.23143e-03  1.93190e-01        00000 
-2.05029e-02  4.99524e-02        00000 
-2.76006e-02  6.21874e-02        00000 
-5.72393e-04  1.89605e-01        00000 
-2.04052e-02  5.20592e-02        00000 
 7.87523e-04  1.86384e-01        00000 
 2.90869e-03  1.84296e-01        00000 
 9.29883e-03  1.86199e-01        00000 
-2.43579e-02  5.82769e-02        00000 
 6.93866e-03  1.83207e-01        00000 
-1.85619e-02  3.86572e-02        00000 
-1.93377e-02  5.09607e-02        00000 
-1.80661e-02  4.28963e-02        00000 
 5.52988e-03  1.81497e-01        00000 
-2.06311e-02  5.28826e-02        00000 
 1.10965e-02  1.82462e-01        00000 
-1.73271e-02  4.46143e-02        00000 
-2.91547e-02  6.04034e-02        00000 
-6.95052e-19  2.00000e-01        00000 
-8.25722e-04  1.95909e-01        00000 
-2.64509e-02  5.72322e-02        00000 
 8.75903e-03  1.78934e-01        00000 
-6.10460e-04  1.91441e-01        00000 
-1.67247e-02  3.24445e-02        00000 
 3.99884e-04  1.86748e-01        00000 
-2.36345e-02  5.40583e-02        00000 
-1.57025e-02  3.67569e-02        00000 
 2.12112e-03  1.82188e-01        00000 
-1.60530e-02  4.38826e-02        00000 
 4.39763e-03  1.78767e-01        00000 
 6.78831e-03  1.77125e-01        00000 
 1.29572e-02  1.78096e-01        00000 
-1.49061e-02  3.89673e-02        00000 
-2.04845e-02  5.02597e-02        00000 
-1.64572e-02  4.57983e-02        00000 
-1.43210e-02  3.96757e-02        00000 
-1.48369e-02  2.68751e-02        00000 
 1.09499e-02  1.73753e-01        00000 
-1.31888e-02  3.09756e-02        00000 
-1.71077e-02  4.56254e-02        00000 
 1.48592e-02  1.73193e-01        00000 
-1.21587e-02  3.35752e-02        00000 
-1.30970e-02  3.92355e-02        00000 
-2.52686e-02  5.23838e-02        00000 
 4.17226e-19  2.00000e-01        00000 
-3.45578e-04  1.95144e-01        00000 
-2.25671e-02  4.92629e-02        00000 
 1.33349e-02  1.69468e-01        00000 
 9.50475e-03  1.70104e-01        00000 
-1.18966e-02  3.57181e-02        00000 
-1.29452e-02  2.19405e-02        00000 
 3.33466e-04  1.89774e-01        00000 
 1.83758e-03  1.83899e-01        00000 
-1.97712e-02  4.61504e-02        00000 
 4.02323e-03  1.77857e-01        00000 
 6.80686e-03  1.72584e-01        00000 
 1.24189e-02  1.67227e-01        00000 
 1.67641e-02  1.67587e-01        00000 
-1.06791e-02  2.56079e-02        00000 
-1.69320e-02  4.29004e-02        00000 
-1.28679e-02  3.88130e-02        00000 
 1.55141e-02  1.64097e-01        00000 
-1.10990e-02  1.76208e-02        00000 
-1.46695e-02  4.01721e-02        00000 
-9.16445e-03  2.79144e-02        00000 
 1.86082e-02  1.61322e-01        00000 
 1.42817e-02  1.62028e-01        00000 
-8.36953e-03  2.95850e-02        00000 
-8.32177e-03  2.05419e-02        00000 
-2.15138e-02  4.41806e-02        00000 
-3.22280e-19  2.00000e-01        00000 
-9.34020e-03  1.38920e-02        00000 
 1.25535e-02  1.62525e-01        00000 
 1.78530e-02  1.57735e-01        00000 
 2.88996e-04  1.94477e-01        00000 
-1.87945e-02  4.11638e-02        00000 
-8.43836e-03  3.11618e-02        00000 
 1.54100e-03  1.88330e-01        00000 
-1.60329e-02  3.82041e-02        00000 
 2.03599e-02  1.54494e-01        00000 
 3.58955e-03  1.81466e-01        00000 
-6.30855e-03  2.21137e-02        00000 
 6.45831e-03  1.73849e-01        00000 
-1.31726e-02  3.52125e-02        00000 
 1.71201e-02  1.55526e-01        00000 
-6.29666e-03  1.59378e-02        00000 
-7.69474e-03  1.07244e-02        00000 
-1.02561e-02  3.23105e-02        00000 
 1.05546e-02  1.64872e-01        00000 
 2.02591e-02  1.50983e-01        00000 
 2.19649e-02  1.47118e-01        00000 
-5.00507e-03  2.27391e-02        00000 
 1.63618e-02  1.54909e-01        00000 
-4.85990e-03  1.19580e-02        00000 
-6.15293e-03  8.13121e-03        00000 
-3.95592e-03  1.67315e-02        00000 
-4.93056e-03  2.37644e-02        00000 
 2.01584e-02  1.48639e-01        00000 
 2.26098e-02  1.43591e-01        00000 
-1.79611e-02  3.58744e-02        00000 
 1.70638e-19  2.00000e-01        00000 
 2.33911e-02  1.39269e-01        00000 
 1.03785e-03  1.93927e-01        00000 
-1.52858e-02  3.30321e-02        00000 
 2.92163e-03  1.87201e-01        00000 
-1.25643e-02  3.02389e-02        00000 
-3.79096e-03  8.86267e-03        00000 
-4.71860e-03  6.11590e-03        00000 
 5.47027e-03  1.79759e-01        00000 
 1.59527e-02  1.55233e-01        00000 
-9.88918e-03  2.75457e-02        00000 
 2.00961e-02  1.47560e-01        00000 
-2.62883e-03  1.21303e-02        00000 
 2.45928e-02  1.30989e-01        00000 
-5.04778e-03  2.35516e-02        00000 
 8.66202e-03  1.71634e-01        00000 
 2.31426e-02  1.41326e-01        00000 
 2.47696e-02  1.35865e-01        00000 
-7.35834e-03  2.47551e-02        00000 
-3.40877e-03  4.63309e-03        00000 
-2.79965e-03  6.51053e-03        00000 
-1.87083e-03  1.60437e-02        00000 
 1.26461e-02  1.62841e-01        00000 
-1.94722e-03  8.90014e-03        00000 
 2.55339e-02  1.22382e-01        00000 
-5.10225e-03  2.15091e-02        00000 
 2.02587e-02  1.47354e-01        00000 
 2.66784e-02  1.27677e-01        00000 
 2.35621e-02  1.40332e-01        00000 
-2.00994e-03  1.78912e-02        00000 
-2.21190e-03  3.61544e-03        00000 
 2.59536e-02  1.33645e-01        00000 
-1.92623e-03  4.82506e-03        00000 
-1.45690e-02  2.75198e-02        00000 
-5.19592e-19  2.00000e-01        00000 
-1.43547e-03  6.68936e-03        00000 
-9.04677e-04  1.10870e-02        00000 
-1.19353e-02  2.48388e-02        00000 
 1.89457e-03  1.93439e-01        00000 
 2.61776e-02  1.13516e-01        00000 
 1.69782e-02  1.54512e-01        00000 
-9.34499e-03  2.23287e-02        00000 
 4.45696e-03  1.86256e-01        00000 
-1.09152e-03  3.00202e-03        00000 
-5.97549e-04  8.14785e-03        00000 
 7.46987e-03  1.78301e-01        00000 
-6.95880e-03  2.01404e-02        00000 
 2.81396e-02  1.19282e-01        00000 
-1.19518e-03  3.60766e-03        00000 
-6.51339e-04  6.67923e-03        00000 
 2.65008e-02  1.04510e-01        00000 
-8.32965e-04  5.04667e-03        00000 
 2.39501e-02  1.40270e-01        00000 
 1.08185e-02  1.70129e-01        00000 
 2.84634e-02  1.25558e-01        00000 
 2.68785e-02  1.32803e-01        00000 
-4.87807e-03  1.80948e-02        00000 
 8.55822e-07  2.80162e-03        00000 
 2.10434e-02  1.46998e-01        00000 
-6.21383e-04  2.84846e-03        00000 
 2.64917e-02  9.54437e-02        00000 
-3.13482e-03  1.62519e-02        00000 
 1.46029e-02  1.61710e-01        00000 
 2.90766e-02  1.10708e-01        00000 
-1.97641e-04  1.27209e-02        00000 
 2.09140e-04  1.10802e-02        00000 
-1.85695e-03  1.52061e-02        00000 
-8.07096e-05  5.37669e-03        00000 
 1.06270e-03  3.03384e-03        00000 
-3.73085e-04  3.70755e-03        00000 
 5.47896e-04  8.46548e-03        00000 
 2.61592e-02  8.64351e-02        00000 
 3.04315e-02  1.17115e-01        00000 
 2.45592e-02  1.40326e-01        00000 
-1.00148e-04  2.51882e-03        00000 
 4.46233e-04  6.28337e-03        00000 
 1.85853e-02  1.53645e-01        00000 
-1.10976e-02  1.91288e-02        00000 
-8.09800e-19  2.00000e-01        00000 
 2.94128e-02  1.02196e-01        00000 
 2.73995e-02  1.33340e-01        00000 
-3.80543e-04  1.26612e-02        00000 
 2.15618e-03  3.64222e-03        00000 
-8.51532e-03  1.65021e-02        00000 
 2.93561e-03  1.92884e-01        00000 
 3.00460e-02  1.24614e-01        00000 
-6.13155e-03  1.45097e-02        00000 
 6.28431e-03  1.85032e-01        00000 
 2.55094e-02  7.75669e-02        00000 
-1.65941e-04  2.81467e-03        00000 
 3.33978e-03  4.66221e-03        00000 
-4.22851e-03  1.29985e-02        00000 
 9.63004e-03  1.76864e-01        00000 
 2.70482e-02  1.35316e-01        00000 
 2.92033e-02  9.37403e-02        00000 
 2.25031e-02  1.46059e-01        00000 
 3.15802e-02  1.08639e-01        00000 
 2.45640e-02  6.89502e-02        00000 
 2.82631e-04  3.84068e-03        00000 
 2.68472e-04  2.67016e-03        00000 
-6.10836e-05  2.50803e-03        00000 
-2.67092e-03  1.16555e-02        00000 
 7.13307e-04  9.77818e-03        00000 
 1.30704e-02  1.68546e-01        00000 
 4.64527e-03  6.14071e-03        00000 
 2.33457e-02  6.06806e-02        00000 
 2.85043e-02  8.55834e-02        00000 
 6.08299e-03  8.14484e-03        00000 
-1.38040e-03  1.04392e-02        00000 
 1.67352e-02  1.60297e-01        00000 
 3.25611e-02  1.15718e-01        00000 
 1.16494e-03  7.81807e-03        00000 
 2.19106e-02  5.28331e-02        00000 
 2.61122e-02  1.38968e-01        00000 
 3.18954e-02  1.00298e-01        00000 
 7.55866e-04  3.49758e-03        00000 
 7.65103e-03  1.06929e-02        00000 
 2.74503e-02  7.76231e-02        00000 
 2.03027e-02  4.54644e-02        00000 
-3.22563e-04  9.34999e-03        00000 
 1.57815e-04  2.66473e-03        00000 
 9.32989e-03  1.38156e-02        00000 
 1.85672e-02  3.86418e-02        00000 
 1.28417e-03  5.87733e-03        00000 
 1.11136e-02  1.75267e-02        00000 
 2.91269e-02  1.32419e-01        00000 
 2.05446e-02  1.52324e-01        00000 
 3.15209e-02  1.25198e-01        00000 
 1.67485e-02  3.24373e-02        00000 
 1.29741e-02  2.18660e-02        00000 
 1.48669e-02  2.68313e-02        00000 
 1.46983e-03  4.95801e-03        00000 
 2.60196e-02  6.98779e-02        00000 
 3.14037e-02  9.22225e-02        00000 
 1.60991e-18  2.00000e-01        00000 
-7.20884e-03  1.04176e-02        00000 