<?xml version="1.0" encoding="utf-8"?>
<VTKFile byte_order="LittleEndian" type="UnstructuredGrid" version="0.1">
   <UnstructuredGrid>
      <Piece NumberOfCells="641" NumberOfPoints="730">
         <Points>
            <DataArray Name="Points" NumberOfComponents="3" format="ascii" type="Float32">
1.0000 1.0000 0.0000
0.9600 1.0000 0.0000
1.0000 0.9600 0.0000
0.9603 0.9614 0.0000
1.0000 0.9200 0.0000
0.9200 1.0000 0.0000
0.9612 0.9231 0.0000
0.9211 0.9624 0.0000
0.9230 0.9260 0.0000
1.0000 0.8800 0.0000
0.8800 1.0000 0.0000
0.9614 0.8856 0.0000
0.8829 0.9623 0.0000
0.9240 0.8918 0.0000
0.8875 0.9262 0.0000
0.8933 0.8971 0.0000
0.9597 0.8473 0.0000
1.0000 0.8400 0.0000
0.8400 1.0000 0.0000
0.8440 0.9601 0.0000
0.9173 0.8563 0.0000
0.8514 0.9190 0.0000
0.8690 0.8729 0.0000
0.9592 0.8063 0.0000
1.0000 0.8000 0.0000
0.8000 1.0000 0.0000
0.8021 0.9589 0.0000
0.9165 0.8130 0.0000
0.8054 0.9165 0.0000
0.8676 0.8205 0.0000
0.8109 0.8707 0.0000
0.9597 0.7652 0.0000
1.0000 0.7600 0.0000
0.7600 1.0000 0.0000
0.7590 0.9590 0.0000
0.9161 0.7702 0.0000
0.7581 0.9167 0.0000
0.8122 0.8209 0.0000
0.8679 0.7733 0.0000
0.7569 0.8708 0.0000
0.9590 0.7242 0.0000
1.0000 0.7200 0.0000
0.7200 1.0000 0.0000
0.9153 0.7275 0.0000
0.7165 0.9591 0.0000
0.8165 0.7719 0.0000
0.7126 0.9181 0.0000
0.8686 0.7282 0.0000
0.7510 0.8174 0.0000
0.7082 0.8753 0.0000
0.9580 0.6829 0.0000
1.0000 0.6800 0.0000
0.6800 1.0000 0.0000
0.7693 0.7706 0.0000
0.9140 0.6851 0.0000
0.6742 0.9594 0.0000
0.8161 0.7213 0.0000
0.8740 0.6885 0.0000
0.6685 0.9181 0.0000
0.7012 0.8339 0.0000
0.7734 0.7344 0.0000
0.7152 0.7855 0.0000
0.6650 0.8760 0.0000
0.7356 0.7577 0.0000
1.0000 0.6400 0.0000
0.6400 1.0000 0.0000
0.8350 0.6800 0.0000
0.9558 0.6404 0.0000
0.8757 0.6585 0.0000
0.7480 0.7370 0.0000
0.6333 0.9593 0.0000
0.6862 0.8039 0.0000
0.9052 0.6395 0.0000
0.6619 0.8374 0.0000
0.7838 0.6876 0.0000
0.7581 0.7055 0.0000
0.6270 0.9175 0.0000
0.6640 0.8136 0.0000
0.8474 0.6471 0.0000
0.7341 0.7184 0.0000
0.6889 0.7621 0.0000
0.8018 0.6601 0.0000
0.7087 0.7349 0.0000
0.6240 0.8728 0.0000
0.6655 0.7821 0.0000
1.0000 0.6000 0.0000
0.6000 1.0000 0.0000
0.9579 0.5979 0.0000
0.8635 0.6181 0.0000
0.6438 0.7994 0.0000
0.5930 0.9599 0.0000
0.7406 0.6813 0.0000
0.8153 0.6317 0.0000
0.7215 0.6960 0.0000
0.7582 0.6627 0.0000
0.9144 0.5934 0.0000
0.6224 0.8262 0.0000
0.7025 0.7080 0.0000
0.6817 0.7264 0.0000
0.5880 0.9170 0.0000
0.6661 0.7445 0.0000
0.6874 0.7117 0.0000
0.7729 0.6402 0.0000
0.6462 0.7610 0.0000
0.8270 0.6029 0.0000
0.5855 0.8736 0.0000
0.7078 0.6759 0.0000
0.8731 0.5824 0.0000
0.6922 0.6895 0.0000
0.6247 0.7752 0.0000
0.7227 0.6602 0.0000
0.6777 0.7007 0.0000
1.0000 0.5600 0.0000
0.5600 1.0000 0.0000
0.7852 0.6159 0.0000
0.6645 0.7138 0.0000
0.7363 0.6426 0.0000
0.9599 0.5572 0.0000
0.6483 0.7278 0.0000
0.5542 0.9595 0.0000
0.6026 0.7897 0.0000
0.5823 0.8324 0.0000
0.6299 0.7405 0.0000
0.9195 0.5531 0.0000
0.7477 0.6223 0.0000
0.5507 0.9171 0.0000
0.6803 0.6732 0.0000
0.6658 0.6871 0.0000
0.8355 0.5722 0.0000
0.7947 0.5901 0.0000
0.6936 0.6581 0.0000
0.6502 0.6999 0.0000
0.6098 0.7514 0.0000
0.7057 0.6420 0.0000
0.7579 0.6014 0.0000
0.6336 0.7113 0.0000
0.5497 0.8744 0.0000
0.8778 0.5472 0.0000
0.7165 0.6250 0.0000
0.5740 0.7964 0.0000
0.6162 0.7214 0.0000
0.5892 0.7610 0.0000
0.7259 0.6072 0.0000
0.8020 0.5638 0.0000
1.0000 0.5200 0.0000
0.5200 1.0000 0.0000
0.5492 0.8345 0.0000
0.7657 0.5790 0.0000
0.9606 0.5179 0.0000
0.5980 0.7300 0.0000
0.8398 0.5417 0.0000
0.5158 0.9583 0.0000
0.7338 0.5887 0.0000
0.9203 0.5154 0.0000
0.5665 0.7670 0.0000
0.5131 0.9159 0.0000
0.5474 0.8009 0.0000
0.5792 0.7371 0.0000
0.7720 0.5563 0.0000
0.8787 0.5129 0.0000
0.8059 0.5366 0.0000
0.5141 0.8719 0.0000
0.7401 0.5696 0.0000
0.5598 0.7427 0.0000
0.5440 0.7719 0.0000
0.5175 0.8314 0.0000
0.8405 0.5118 0.0000
0.7450 0.5500 0.0000
0.5225 0.8010 0.0000
0.7754 0.5328 0.0000
1.0000 0.4800 0.0000
0.4800 1.0000 0.0000
0.9602 0.4791 0.0000
0.5401 0.7468 0.0000
0.4767 0.9571 0.0000
0.8069 0.5110 0.0000
0.9179 0.4782 0.0000
0.5221 0.7741 0.0000
0.4748 0.9127 0.0000
0.7482 0.5301 0.0000
0.8747 0.4784 0.0000
0.5027 0.7984 0.0000
0.7768 0.5101 0.0000
0.4760 0.8661 0.0000
0.5201 0.7492 0.0000
0.8373 0.4828 0.0000
0.4848 0.8182 0.0000
0.5012 0.7757 0.0000
0.7498 0.5101 0.0000
0.8046 0.4854 0.0000
0.5000 0.7500 0.0000
0.7754 0.4874 0.0000
1.0000 0.4400 0.0000
0.4400 1.0000 0.0000
0.9587 0.4395 0.0000
0.4799 0.7803 0.0000
0.4361 0.9573 0.0000
0.9156 0.4395 0.0000
0.7498 0.4899 0.0000
0.8291 0.4561 0.0000
0.4343 0.9109 0.0000
0.8003 0.4626 0.0000
0.8632 0.4393 0.0000
0.4799 0.7492 0.0000
0.7730 0.4662 0.0000
0.4477 0.8146 0.0000
0.4327 0.8588 0.0000
0.7482 0.4699 0.0000
0.8161 0.4410 0.0000
0.4541 0.7785 0.0000
0.7944 0.4428 0.0000
0.4599 0.7468 0.0000
1.0000 0.4000 0.0000
0.4000 1.0000 0.0000
0.7686 0.4455 0.0000
0.9592 0.3996 0.0000
0.8248 0.4242 0.0000
0.3968 0.9575 0.0000
0.7450 0.4500 0.0000
0.9170 0.3993 0.0000
0.4159 0.8309 0.0000
0.4229 0.8031 0.0000
0.3948 0.9133 0.0000
0.4316 0.7723 0.0000
0.7936 0.4233 0.0000
0.4402 0.7427 0.0000
0.8698 0.3967 0.0000
0.7652 0.4264 0.0000
0.3936 0.8689 0.0000
0.7401 0.4304 0.0000
0.3920 0.8309 0.0000
0.8264 0.3924 0.0000
0.3992 0.7968 0.0000
0.4094 0.7650 0.0000
0.4208 0.7371 0.0000
0.7903 0.3985 0.0000
1.0000 0.3600 0.0000
0.3600 1.0000 0.0000
0.7600 0.4056 0.0000
0.9598 0.3592 0.0000
0.3583 0.9570 0.0000
0.7338 0.4113 0.0000
0.9182 0.3582 0.0000
0.3575 0.9135 0.0000
0.3585 0.8699 0.0000
0.4020 0.7300 0.0000
0.8721 0.3546 0.0000
0.3871 0.7558 0.0000
0.3627 0.8272 0.0000
0.3723 0.7881 0.0000
0.7509 0.3845 0.0000
0.7810 0.3713 0.0000
0.7259 0.3928 0.0000
0.8206 0.3501 0.0000
0.3838 0.7214 0.0000
1.0000 0.3200 0.0000
0.3200 1.0000 0.0000
0.9609 0.3186 0.0000
0.3188 0.9571 0.0000
0.3655 0.7452 0.0000
0.7165 0.3750 0.0000
0.3191 0.9130 0.0000
0.7387 0.3639 0.0000
0.9203 0.3164 0.0000
0.3226 0.8674 0.0000
0.7625 0.3483 0.0000
0.3295 0.8214 0.0000
0.3412 0.7756 0.0000
0.3664 0.7113 0.0000
0.8783 0.3117 0.0000
0.3501 0.7297 0.0000
0.7057 0.3580 0.0000
0.7858 0.3237 0.0000
0.7257 0.3455 0.0000
0.3355 0.7477 0.0000
0.8363 0.3032 0.0000
0.3498 0.6999 0.0000
0.7447 0.3291 0.0000
1.0000 0.2800 0.0000
0.2800 1.0000 0.0000
0.2794 0.9569 0.0000
0.9615 0.2779 0.0000
0.3326 0.7179 0.0000
0.2801 0.9127 0.0000
0.6936 0.3419 0.0000
0.2847 0.8665 0.0000
0.9228 0.2753 0.0000
0.7128 0.3285 0.0000
0.2921 0.8195 0.0000
0.7602 0.3086 0.0000
0.3033 0.7758 0.0000
0.3147 0.7412 0.0000
0.3342 0.6871 0.0000
0.7305 0.3141 0.0000
0.8833 0.2705 0.0000
0.7998 0.2876 0.0000
0.7436 0.3019 0.0000
0.6803 0.3268 0.0000
0.3147 0.7039 0.0000
0.6989 0.3111 0.0000
0.8465 0.2623 0.0000
0.3197 0.6732 0.0000
0.7181 0.2951 0.0000
0.7660 0.2772 0.0000
1.0000 0.2400 0.0000
0.2400 1.0000 0.0000
0.2395 0.9570 0.0000
0.9623 0.2379 0.0000
0.3033 0.6872 0.0000
0.2867 0.7266 0.0000
0.7391 0.2819 0.0000
0.6658 0.3129 0.0000
0.2402 0.9130 0.0000
0.2441 0.8665 0.0000
0.9241 0.2355 0.0000
0.2521 0.8179 0.0000
0.2648 0.7698 0.0000
0.2877 0.7007 0.0000
0.3064 0.6581 0.0000
0.6834 0.2942 0.0000
0.8864 0.2325 0.0000
0.8108 0.2442 0.0000
0.2899 0.6725 0.0000
0.6502 0.3001 0.0000
0.8557 0.2306 0.0000
0.7030 0.2743 0.0000
0.2943 0.6420 0.0000
0.2710 0.6909 0.0000
0.7273 0.2535 0.0000
0.6657 0.2787 0.0000
1.0000 0.2000 0.0000
0.2000 1.0000 0.0000
0.6336 0.2887 0.0000
0.2514 0.7173 0.0000
0.2756 0.6564 0.0000
0.1992 0.9576 0.0000
0.9620 0.1981 0.0000
0.7627 0.2311 0.0000
0.1993 0.9141 0.0000
0.9233 0.1961 0.0000
0.2835 0.6250 0.0000
0.2019 0.8680 0.0000
0.6830 0.2545 0.0000
0.2075 0.8181 0.0000
0.8823 0.1948 0.0000
0.2539 0.6737 0.0000
0.6460 0.2652 0.0000
0.6162 0.2786 0.0000
0.8346 0.1977 0.0000
0.2163 0.7604 0.0000
0.2633 0.6381 0.0000
0.2741 0.6072 0.0000
0.7040 0.2284 0.0000
0.2284 0.6955 0.0000
0.6248 0.2559 0.0000
0.5980 0.2700 0.0000
0.6595 0.2370 0.0000
0.7292 0.2095 0.0000
0.2397 0.6531 0.0000
0.2516 0.6187 0.0000
1.0000 0.1600 0.0000
0.1600 1.0000 0.0000
0.2662 0.5887 0.0000
0.1588 0.9585 0.0000
0.9622 0.1583 0.0000
0.1581 0.9163 0.0000
0.9233 0.1564 0.0000
0.6042 0.2491 0.0000
0.5792 0.2629 0.0000
0.1589 0.8722 0.0000
0.1958 0.7202 0.0000
0.8836 0.1548 0.0000
0.2123 0.6706 0.0000
0.6322 0.2291 0.0000
0.2599 0.5696 0.0000
0.7803 0.1720 0.0000
0.1609 0.8259 0.0000
0.2262 0.6315 0.0000
0.2418 0.5979 0.0000
0.8442 0.1523 0.0000
0.5598 0.2573 0.0000
0.5842 0.2424 0.0000
0.6765 0.1983 0.0000
0.1621 0.7781 0.0000
0.6083 0.2254 0.0000
0.2550 0.5500 0.0000
0.8115 0.1450 0.0000
0.1814 0.6889 0.0000
0.2335 0.5759 0.0000
0.1986 0.6460 0.0000
0.7210 0.1689 0.0000
0.5401 0.2532 0.0000
0.2141 0.6084 0.0000
0.5648 0.2361 0.0000
1.0000 0.1200 0.0000
0.1200 1.0000 0.0000
0.5886 0.2216 0.0000
0.6361 0.1981 0.0000
0.9623 0.1186 0.0000
0.1185 0.9594 0.0000
0.2518 0.5301 0.0000
0.1554 0.7378 0.0000
0.9238 0.1169 0.0000
0.1171 0.9188 0.0000
0.5201 0.2508 0.0000
0.6081 0.2005 0.0000
0.1177 0.8757 0.0000
0.8845 0.1155 0.0000
0.2278 0.5529 0.0000
0.5447 0.2310 0.0000
0.5916 0.2048 0.0000
0.2502 0.5101 0.0000
0.5703 0.2140 0.0000
0.1692 0.6615 0.0000
0.1178 0.8329 0.0000
0.2039 0.5833 0.0000
0.1845 0.6209 0.0000
0.8462 0.1139 0.0000
0.5000 0.2500 0.0000
0.1474 0.7037 0.0000
0.5242 0.2284 0.0000
0.2502 0.4899 0.0000
0.8095 0.1132 0.0000
0.1175 0.7897 0.0000
0.2245 0.5293 0.0000
0.6911 0.1470 0.0000
0.6623 0.1569 0.0000
0.7718 0.1199 0.0000
0.5787 0.1926 0.0000
0.4799 0.2508 0.0000
0.5494 0.2063 0.0000
0.6277 0.1636 0.0000
0.2518 0.4699 0.0000
0.1972 0.5560 0.0000
0.1405 0.6744 0.0000
0.5036 0.2260 0.0000
0.5965 0.1735 0.0000
0.1148 0.7499 0.0000
1.0000 0.0800 0.0000
0.0800 1.0000 0.0000
0.2237 0.5060 0.0000
0.1547 0.6362 0.0000
0.7277 0.1206 0.0000
0.4599 0.2532 0.0000
0.9618 0.0790 0.0000
0.0786 0.9601 0.0000
0.1700 0.5930 0.0000
0.9229 0.0780 0.0000
0.0778 0.9196 0.0000
0.2550 0.4500 0.0000
0.5267 0.2034 0.0000
0.4402 0.2573 0.0000
0.8839 0.0770 0.0000
0.0771 0.8790 0.0000
0.1358 0.6525 0.0000
0.2250 0.4832 0.0000
0.1115 0.7133 0.0000
0.1942 0.5282 0.0000
0.2599 0.4304 0.0000
0.5565 0.1781 0.0000
0.4830 0.2210 0.0000
[...]
         <PointData>
            <DataArray Name="Displacement" NumberOfComponents="3" format="ascii" type="Float64">
 1.91579e-19  1.00000e-01        00000 
-4.07588e-19  1.00000e-01        00000 
-3.70333e-03  9.44549e-02        00000 
-2.12638e-03  9.60149e-02        00000 
-5.73818e-03  8.98383e-02        00000 
 2.03779e-19  1.00000e-01        00000 
-4.22606e-03  9.16350e-02        00000 
-1.32404e-03  9.65633e-02        00000 
-2.90411e-03  9.29202e-02        00000 
-7.59325e-03  8.54190e-02        00000 
-1.62149e-19  1.00000e-01        00000 
-5.95437e-03  8.75029e-02        00000 
-8.15216e-04  9.68968e-02        00000 
-4.41862e-03  8.93642e-02        00000 
-2.03794e-03  9.35843e-02        00000 
-3.29282e-03  9.06893e-02        00000 
-7.67159e-03  8.34453e-02        00000 
-9.45739e-03  8.10381e-02        00000 
 1.45033e-19  1.00000e-01        00000 
-4.28630e-04  9.70455e-02        00000 
-5.77932e-03  8.59090e-02        00000 
-1.48744e-03  9.35946e-02        00000 
-3.49354e-03  8.90536e-02        00000 
-9.68006e-03  7.91332e-02        00000 
-1.14556e-02  7.67106e-02        00000 
-1.43174e-19  1.00000e-01        00000 
-4.76196e-05  9.73245e-02        00000 
-7.82674e-03  8.14903e-02        00000 
-7.01160e-04  9.42516e-02        00000 
-5.75551e-03  8.40632e-02        00000 
-2.01162e-03  9.05252e-02        00000 
-1.19164e-02  7.48419e-02        00000 
-1.36112e-02  7.24790e-02        00000 
 6.17184e-20  1.00000e-01        00000 
 2.80903e-04  9.77336e-02        00000 
-1.00944e-02  7.71342e-02        00000 
 1.45357e-05  9.52223e-02        00000 
-3.89497e-03  8.62582e-02        00000 
-8.17051e-03  7.93989e-02        00000 
-8.08577e-04  9.23023e-02        00000 
-1.42585e-02  7.07088e-02        00000 
-1.58862e-02  6.84053e-02        00000 
-5.51504e-20  1.00000e-01        00000 
-1.25533e-02  7.28117e-02        00000 
 5.11026e-04  9.81636e-02        00000 
-6.36398e-03  8.16378e-02        00000 
 5.16936e-04  9.62813e-02        00000 
-1.08152e-02  7.48087e-02        00000 
-2.19222e-03  8.88614e-02        00000 
 1.04499e-04  9.42946e-02        00000 
-1.66685e-02  6.66706e-02        00000 
-1.81770e-02  6.45478e-02        00000 
 4.76681e-20  1.00000e-01        00000 
-4.76626e-03  8.42076e-02        00000 
-1.50675e-02  6.85758e-02        00000 
 6.26815e-04  9.85949e-02        00000 
-9.24731e-03  7.67464e-02        00000 
-1.34676e-02  7.04968e-02        00000 
 7.79785e-04  9.72360e-02        00000 
-6.45880e-04  9.25197e-02        00000 
-6.89794e-03  8.08163e-02        00000 
-2.50025e-03  8.89046e-02        00000 
 5.36490e-04  9.58650e-02        00000 
-4.33951e-03  8.55372e-02        00000 
-2.03280e-02  6.09409e-02        00000 
-4.44876e-20  1.00000e-01        00000 
-1.25856e-02  7.14606e-02        00000 
-1.89880e-02  6.26965e-02        00000 
-1.53688e-02  6.73161e-02        00000 
-5.87731e-03  8.30178e-02        00000 
 6.29488e-04  9.89654e-02        00000 
-1.21156e-03  9.18852e-02        00000 
-1.74810e-02  6.42638e-02        00000 
-3.70959e-05  9.46254e-02        00000 
-1.01975e-02  7.55836e-02        00000 
-8.11804e-03  7.94688e-02        00000 
 8.23472e-04  9.80503e-02        00000 
-6.11970e-04  9.36627e-02        00000 
-1.51035e-02  6.73000e-02        00000 
-6.51900e-03  8.27985e-02        00000 
-2.90609e-03  8.96738e-02        00000 
-1.26641e-02  7.13352e-02        00000 
-4.79171e-03  8.63760e-02        00000 
 6.48720e-04  9.71290e-02        00000 
-1.61930e-03  9.24021e-02        00000 
-2.21809e-02  5.75790e-02        00000 
 3.29424e-20  1.00000e-01        00000 
-2.11077e-02  5.87023e-02        00000 
-1.72937e-02  6.34602e-02        00000 
-7.44202e-04  9.44408e-02        00000 
 5.20378e-04  9.92832e-02        00000 
-9.15279e-03  7.91067e-02        00000 
-1.49235e-02  6.72786e-02        00000 
-7.61284e-03  8.24786e-02        00000 
-1.09597e-02  7.54252e-02        00000 
-2.00571e-02  5.93406e-02        00000 
 7.98607e-05  9.62183e-02        00000 
-6.36175e-03  8.55106e-02        00000 
-4.74479e-03  8.87313e-02        00000 
 6.96189e-04  9.86897e-02        00000 
-3.37775e-03  9.09925e-02        00000 
-5.83817e-03  8.75052e-02        00000 
-1.29237e-02  7.15332e-02        00000 
-2.23065e-03  9.32349e-02        00000 
-1.69275e-02  6.32469e-02        00000 
 5.95678e-04  9.82001e-02        00000 
-8.76295e-03  8.29694e-02        00000 
-1.93106e-02  5.92127e-02        00000 
-7.53315e-03  8.59307e-02        00000 
-1.36231e-03  9.51041e-02        00000 
-1.01545e-02  7.96726e-02        00000 
-6.52712e-03  8.83269e-02        00000 
-2.35457e-02  5.44447e-02        00000 
-1.17531e-19  1.00000e-01        00000 
-1.48135e-02  6.75422e-02        00000 
-5.39356e-03  9.02861e-02        00000 
-1.16466e-02  7.61399e-02        00000 
-2.25844e-02  5.50078e-02        00000 
-4.20413e-03  9.23197e-02        00000 
 3.40378e-04  9.94854e-02        00000 
-6.91865e-04  9.65799e-02        00000 
 2.24396e-04  9.78850e-02        00000 
-3.15938e-03  9.41870e-02        00000 
-2.16023e-02  5.52367e-02        00000 
-1.31911e-02  7.23731e-02        00000 
 4.51793e-04  9.91291e-02        00000 
-8.83225e-03  8.72466e-02        00000 
-7.66947e-03  8.97383e-02        00000 
-1.85878e-02  5.91754e-02        00000 
-1.64780e-02  6.35124e-02        00000 
-1.00058e-02  8.44041e-02        00000 
-6.53914e-03  9.18678e-02        00000 
-2.30337e-03  9.57793e-02        00000 
-1.11634e-02  8.12417e-02        00000 
-1.46262e-02  6.84189e-02        00000 
-5.45622e-03  9.36933e-02        00000 
 3.97855e-04  9.88868e-02        00000 
-2.06139e-02  5.52340e-02        00000 
-1.22788e-02  7.77767e-02        00000 
-3.60924e-04  9.78928e-02        00000 
-4.44832e-03  9.52143e-02        00000 
-1.60566e-03  9.70203e-02        00000 
-1.33258e-02  7.40365e-02        00000 
-1.78126e-02  5.94796e-02        00000 
-2.42657e-02  5.14691e-02        00000 
 1.18687e-19  1.00000e-01        00000 
 1.79409e-04  9.87430e-02        00000 
-1.58844e-02  6.43348e-02        00000 
-2.33052e-02  5.15626e-02        00000 
-3.52896e-03  9.64426e-02        00000 
-1.96701e-02  5.52750e-02        00000 
 1.09643e-04  9.95785e-02        00000 
-1.42558e-02  7.00380e-02        00000 
-2.22724e-02  5.15167e-02        00000 
-1.10170e-03  9.80215e-02        00000 
 1.29304e-04  9.93353e-02        00000 
-1.72194e-04  9.86875e-02        00000 
-2.70088e-03  9.73972e-02        00000 
-1.68902e-02  6.01590e-02        00000 
-2.11921e-02  5.14281e-02        00000 
-1.87032e-02  5.54312e-02        00000 
 1.23929e-04  9.92152e-02        00000 
-1.50462e-02  6.58225e-02        00000 
-1.94866e-03  9.81216e-02        00000 
-6.65100e-04  9.86811e-02        00000 
 6.07108e-05  9.91573e-02        00000 
-2.01429e-02  5.14889e-02        00000 
-1.56613e-02  6.14285e-02        00000 
-7.64835e-05  9.90939e-02        00000 
-1.75565e-02  5.59303e-02        00000 
-2.42558e-02  4.85477e-02        00000 
-1.05979e-19  1.00000e-01        00000 
-2.32552e-02  4.81854e-02        00000 
-1.25714e-03  9.86147e-02        00000 
-1.50716e-04  9.95545e-02        00000 
-1.90861e-02  5.16236e-02        00000 
-2.21469e-02  4.78417e-02        00000 
-3.17546e-04  9.90448e-02        00000 
-2.22563e-04  9.92733e-02        00000 
-1.60840e-02  5.69020e-02        00000 
-2.10050e-02  4.75751e-02        00000 
 2.63377e-07  9.91925e-02        00000 
-1.78562e-02  5.18191e-02        00000 
-1.74304e-04  9.91449e-02        00000 
-6.11327e-04  9.89051e-02        00000 
-2.00068e-02  4.77774e-02        00000 
-8.20934e-06  9.91874e-02        00000 
-6.79945e-06  9.91726e-02        00000 
-1.62959e-02  5.23003e-02        00000 
-1.89740e-02  4.77793e-02        00000 
 1.27445e-05  9.90004e-02        00000 
-1.77790e-02  4.76682e-02        00000 
-2.35232e-02  4.55635e-02        00000 
 6.68132e-20  1.00000e-01        00000 
-2.24403e-02  4.46907e-02        00000 
 2.37112e-04  9.90746e-02        00000 
-3.95601e-04  9.94114e-02        00000 
-2.12651e-02  4.39749e-02        00000 
-1.62944e-02  4.76621e-02        00000 
-1.92873e-02  4.41487e-02        00000 
-5.47859e-04  9.89140e-02        00000 
-1.84831e-02  4.42436e-02        00000 
-1.98472e-02  4.29797e-02        00000 
 6.24718e-04  9.88965e-02        00000 
-1.74254e-02  4.37363e-02        00000 
 2.76083e-05  9.86085e-02        00000 
-4.30565e-04  9.84948e-02        00000 
-1.60760e-02  4.30563e-02        00000 
-1.84346e-02  4.17598e-02        00000 
 5.59064e-04  9.86596e-02        00000 
-1.77578e-02  4.10481e-02        00000 
 1.25847e-03  9.86130e-02        00000 
-2.21699e-02  4.24267e-02        00000 
 5.45985e-20  1.00000e-01        00000 
-1.67933e-02  3.98606e-02        00000 
-2.10223e-02  4.11175e-02        00000 
-1.81040e-02  3.99848e-02        00000 
-5.69124e-04  9.91673e-02        00000 
-1.56522e-02  3.85190e-02        00000 
-1.97917e-02  4.00043e-02        00000 
-1.70132e-04  9.78023e-02        00000 
 2.51608e-04  9.78475e-02        00000 
-7.64325e-04  9.83651e-02        00000 
 9.57355e-04  9.79952e-02        00000 
-1.70245e-02  3.82410e-02        00000 
 1.94010e-03  9.81306e-02        00000 
-1.82629e-02  3.84065e-02        00000 
-1.60596e-02  3.64374e-02        00000 
-5.97733e-04  9.75904e-02        00000 
-1.50311e-02  3.41403e-02        00000 
-1.71587e-04  9.69294e-02        00000 
-1.66584e-02  3.61669e-02        00000 
 4.99232e-04  9.67822e-02        00000 
 1.45358e-03  9.69984e-02        00000 
 2.69077e-03  9.74171e-02        00000 
-1.57588e-02  3.46956e-02        00000 
-2.03269e-02  3.90684e-02        00000 
-1.87004e-19  1.00000e-01        00000 
-1.50143e-02  3.27827e-02        00000 
-1.90843e-02  3.74125e-02        00000 
-6.58207e-04  9.88287e-02        00000 
-1.42458e-02  2.99492e-02        00000 
-1.77381e-02  3.59380e-02        00000 
-8.20499e-04  9.76408e-02        00000 
-5.76449e-04  9.64860e-02        00000 
 3.52080e-03  9.64455e-02        00000 
-1.60320e-02  3.39672e-02        00000 
 2.10168e-03  9.56147e-02        00000 
 1.80666e-05  9.55270e-02        00000 
 9.36806e-04  9.51698e-02        00000 
-1.36552e-02  2.88781e-02        00000 
-1.38867e-02  3.05542e-02        00000 
-1.33247e-02  2.59630e-02        00000 
-1.39919e-02  3.10417e-02        00000 
 4.42117e-03  9.52022e-02        00000 
-1.81719e-02  3.54573e-02        00000 
 1.19472e-19  1.00000e-01        00000 
-1.68406e-02  3.35852e-02        00000 
-6.35316e-04  9.84382e-02        00000 
 2.91388e-03  9.38543e-02        00000 
-1.22842e-02  2.22077e-02        00000 
-7.08357e-04  9.67691e-02        00000 
-1.21084e-02  2.48423e-02        00000 
-1.53721e-02  3.18118e-02        00000 
-3.24119e-04  9.50818e-02        00000 
-1.18223e-02  2.61422e-02        00000 
 4.77321e-04  9.35885e-02        00000 
 1.72661e-03  9.26774e-02        00000 
 5.41936e-03  9.37124e-02        00000 
-1.36245e-02  2.96894e-02        00000 
 4.05194e-03  9.22233e-02        00000 
-1.11591e-02  1.87343e-02        00000 
-1.10089e-02  2.57073e-02        00000 
-1.05994e-02  2.12001e-02        00000 
 3.20761e-03  9.13011e-02        00000 
-1.15599e-02  2.68438e-02        00000 
 6.50256e-03  9.18678e-02        00000 
-9.98029e-03  2.22624e-02        00000 
-1.58803e-02  3.15952e-02        00000 
-1.12222e-20  1.00000e-01        00000 
-5.05489e-04  9.80141e-02        00000 
-1.44651e-02  2.96114e-02        00000 
 5.07708e-03  9.00526e-02        00000 
-4.13446e-04  9.58474e-02        00000 
-9.98840e-03  1.55949e-02        00000 
 1.51538e-04  9.35780e-02        00000 
-1.29748e-02  2.77550e-02        00000 
-9.15359e-03  1.80281e-02        00000 
 1.14414e-03  9.13853e-02        00000 
-9.10982e-03  2.19873e-02        00000 
 2.47257e-03  8.97727e-02        00000 
 3.87512e-03  8.90416e-02        00000 
 7.63825e-03  8.96942e-02        00000 
-8.54575e-03  1.93097e-02        00000 
-1.12747e-02  2.56579e-02        00000 
-9.19358e-03  2.31240e-02        00000 
-8.12985e-03  1.97557e-02        00000 
-8.80078e-03  1.27928e-02        00000 
 6.33045e-03  8.73917e-02        00000 
-7.64298e-03  1.50447e-02        00000 
-9.41564e-03  2.31779e-02        00000 
 8.81760e-03  8.72435e-02        00000 
-6.92468e-03  1.65088e-02        00000 
-7.30956e-03  1.96451e-02        00000 
-1.36040e-02  2.75206e-02        00000 
 1.30045e-19  1.00000e-01        00000 
-2.71133e-04  9.76059e-02        00000 
-1.21747e-02  2.55874e-02        00000 
 7.74588e-03  8.51981e-02        00000 
 5.36405e-03  8.53706e-02        00000 
-6.69002e-03  1.77228e-02        00000 
-7.62857e-03  1.03231e-02        00000 
 5.54639e-05  9.49558e-02        00000 
 8.78065e-04  9.20541e-02        00000 
-1.06905e-02  2.37573e-02        00000 
 2.12259e-03  8.90751e-02        00000 
 3.74370e-03  8.64961e-02        00000 
 7.10950e-03  8.39372e-02        00000 
 1.00165e-02  8.44216e-02        00000 
-6.17175e-03  1.22799e-02        00000 
-9.16939e-03  2.19304e-02        00000 
-7.04060e-03  1.95910e-02        00000 
 9.05073e-03  8.24214e-02        00000 
-6.50165e-03  8.17511e-03        00000 
-7.95511e-03  2.04288e-02        00000 
-5.20265e-03  1.35717e-02        00000 
 1.11887e-02  8.12542e-02        00000 
 8.16751e-03  8.12004e-02        00000 
-4.66341e-03  1.45576e-02        00000 
-4.82389e-03  9.68464e-03        00000 
-1.14469e-02  2.32867e-02        00000 
-1.00762e-20  1.00000e-01        00000 
-5.44269e-03  6.33614e-03        00000 
 7.05319e-03  8.13405e-02        00000 
 1.04681e-02  7.91243e-02        00000 
 4.82385e-05  9.72441e-02        00000 
-9.99838e-03  2.14382e-02        00000 
-4.60089e-03  1.55215e-02        00000 
 6.69706e-04  9.41695e-02        00000 
-8.53045e-03  1.96954e-02        00000 
 1.23139e-02  7.77932e-02        00000 
 1.77941e-03  9.07290e-02        00000 
-3.60522e-03  1.05725e-02        00000 
 3.39800e-03  8.69038e-02        00000 
-7.00799e-03  1.79905e-02        00000 
 9.84062e-03  7.77972e-02        00000 
-3.68792e-03  7.35243e-03        00000 
-4.46291e-03  4.78819e-03        00000 
-5.46120e-03  1.63503e-02        00000 
 5.76810e-03  8.23806e-02        00000 
 1.19634e-02  7.56462e-02        00000 
 1.33538e-02  7.40446e-02        00000 
-2.79464e-03  1.10120e-02        00000 
 9.25037e-03  7.73455e-02        00000 
-2.88922e-03  5.36585e-03        00000 
-3.55476e-03  3.53392e-03        00000 
-2.31930e-03  7.82190e-03        00000 
-2.68341e-03  1.16556e-02        00000 
 1.16816e-02  7.42257e-02        00000 
 1.34421e-02  7.18520e-02        00000 
-9.44903e-03  1.89572e-02        00000 
-1.37611e-20  1.00000e-01        00000 
 1.42834e-02  7.00489e-02        00000 
 4.31530e-04  9.69389e-02        00000 
-8.01673e-03  1.72392e-02        00000 
 1.38195e-03  9.35375e-02        00000 
-6.56534e-03  1.56038e-02        00000 
-2.28628e-03  3.85017e-03        00000 
-2.71856e-03  2.57057e-03        00000 
 2.75515e-03  8.97657e-02        00000 
 8.88066e-03  7.73902e-02        00000 
-5.14145e-03  1.40740e-02        00000 
 1.14700e-02  7.35342e-02        00000 
-1.61952e-03  5.48824e-03        00000 
 1.50697e-02  6.58287e-02        00000 
-2.62658e-03  1.17423e-02        00000 
 4.54292e-03  8.56413e-02        00000 
 1.35175e-02  7.04649e-02        00000 
 1.48233e-02  6.79192e-02        00000 
-3.79794e-03  1.25366e-02        00000 
-1.96031e-03  1.86934e-03        00000 
-1.71632e-03  2.71942e-03        00000 
-1.08250e-03  7.60132e-03        00000 
 6.83234e-03  8.11654e-02        00000 
-1.25616e-03  3.88331e-03        00000 
 1.56871e-02  6.14380e-02        00000 
-2.59996e-03  1.08049e-02        00000 
 1.14184e-02  7.33286e-02        00000 
 1.60551e-02  6.37840e-02        00000 
 1.35693e-02  6.98261e-02        00000 
-1.04548e-03  8.71370e-03        00000 
-1.27048e-03  1.39225e-03        00000 
 1.52705e-02  6.65623e-02        00000 
-1.20502e-03  1.92115e-03        00000 
-7.58747e-03  1.45759e-02        00000 
 1.15382e-20  1.00000e-01        00000 
-9.66689e-04  2.80762e-03        00000 
-6.20731e-04  5.03926e-03        00000 
-6.17259e-03  1.29785e-02        00000 
 8.74708e-04  9.66610e-02        00000 
 1.61100e-02  5.69114e-02        00000 
 9.34702e-03  7.68976e-02        00000 
-4.78703e-03  1.15229e-02        00000 
 2.18217e-03  9.29919e-02        00000 
-6.27040e-04  1.10607e-03        00000 
-4.81078e-04  3.55410e-03        00000 
 3.80251e-03  8.89225e-02        00000 
-3.52097e-03  1.02848e-02        00000 
 1.70143e-02  5.95825e-02        00000 
-7.63654e-04  1.35117e-03        00000 
-5.17985e-04  2.82285e-03        00000 
 1.63226e-02  5.23099e-02        00000 
-6.12144e-04  2.02279e-03        00000 
 1.36291e-02  6.97084e-02        00000 
 5.66867e-03  8.47400e-02        00000 
 1.68538e-02  6.25111e-02        00000 
 1.55914e-02  6.60088e-02        00000 
-2.42651e-03  9.15651e-03        00000 
-1.95728e-06  1.01166e-03        00000 
 1.17423e-02  7.30527e-02        00000 
-4.00691e-04  9.99404e-04        00000 
 1.63170e-02  4.76750e-02        00000 
-1.51667e-03  8.14841e-03        00000 
 7.83222e-03  8.04375e-02        00000 
 1.76382e-02  5.53159e-02        00000 
-8.75871e-05  6.07875e-03        00000 
 8.26034e-05  5.17981e-03        00000 
-8.63828e-04  7.54105e-03        00000 
-1.85392e-04  2.20243e-03        00000 
 6.09938e-04  1.11826e-03        00000 
-3.20994e-04  1.39009e-03        00000 
 2.14888e-04  3.80850e-03        00000 
 1.60988e-02  4.30686e-02        00000 
 1.81183e-02  5.83430e-02        00000 
 1.38463e-02  6.96638e-02        00000 
-6.31089e-05  8.45083e-04        00000 
 1.26156e-04  2.68423e-03        00000 
 1.01463e-02  7.63187e-02        00000 
-5.73077e-03  1.01581e-02        00000 
 6.29844e-19  1.00000e-01        00000 
 1.78731e-02  5.10912e-02        00000 
 1.57000e-02  6.61994e-02        00000 
-1.17577e-04  6.17146e-03        00000 
 1.24226e-03  1.40096e-03        00000 
-4.34162e-03  8.61697e-03        00000 
 1.41777e-03  9.63413e-02        00000 
 1.75274e-02  6.19236e-02        00000 
-3.06531e-03  7.47588e-03        00000 
 3.14571e-03  9.22886e-02        00000 
 1.56719e-02  3.85352e-02        00000 
-1.56756e-04  9.70034e-04        00000 
 1.92686e-03  1.88000e-03        00000 
-2.06298e-03  6.62895e-03        00000 
 4.94438e-03  8.80629e-02        00000 
 1.53562e-02  6.71428e-02        00000 
 1.77478e-02  4.68905e-02        00000 
 1.24595e-02  7.24614e-02        00000 
 1.88765e-02  5.42017e-02        00000 
 1.50516e-02  3.41340e-02        00000 
 5.17987e-05  1.47780e-03        00000 
 1.91061e-04  9.08437e-04        00000 
-5.00024e-05  8.27503e-04        00000 
-1.25173e-03  5.88877e-03        00000 
 4.28976e-04  4.66753e-03        00000 
 6.85149e-03  8.37717e-02        00000 
 2.68195e-03  2.58099e-03        00000 
 1.42545e-02  2.99175e-02        00000 
 1.73006e-02  4.28240e-02        00000 
 3.51811e-03  3.53978e-03        00000 
-5.85848e-04  5.22303e-03        00000 
 8.93510e-03  7.95358e-02        00000 
 1.91143e-02  5.75708e-02        00000 
 6.28384e-04  3.62925e-03        00000 
 1.33204e-02  2.59239e-02        00000 
 1.46303e-02  6.88891e-02        00000 
 1.90994e-02  5.01441e-02        00000 
 5.23026e-04  1.29134e-03        00000 
 4.43765e-03  4.77142e-03        00000 
 1.66078e-02  3.88423e-02        00000 
 1.22798e-02  2.21807e-02        00000 
-4.69389e-05  4.62428e-03        00000 
 3.79903e-05  9.16594e-04        00000 
 5.43500e-03  6.29555e-03        00000 
 1.11643e-02  1.87230e-02        00000 
 6.52931e-04  2.60864e-03        00000 
 6.50990e-03  8.12439e-03        00000 
 1.64953e-02  6.56346e-02        00000 
 1.11443e-02  7.54654e-02        00000 
 1.81066e-02  6.21167e-02        00000 
 1.00054e-02  1.55894e-02        00000 
 7.64756e-03  1.02821e-02        00000 
 8.82200e-03  1.27680e-02        00000 
 9.63451e-04  1.97808e-03        00000 
 1.56690e-02  3.49506e-02        00000 
 1.88074e-02  4.62103e-02        00000 
 6.03717e-19  1.00000e-01        00000 
-3.70072e-03  5.54999e-03        00000 