<?xml version="1.0" encoding="utf-8"?>
<VTKFile byte_order="LittleEndian" type="UnstructuredGrid" version="0.1">
   <UnstructuredGrid>
      <Piece NumberOfCells="2970" NumberOfPoints="2181">
         <Points>
            <DataArray Name="Points" NumberOfComponents="3" format="ascii" type="Float32">
0.0000 0.4500 0.0000
0.0000 0.4600 0.0000
0.0104 0.4550 0.0000
0.0084 0.4416 0.0000
0.0104 0.4650 0.0000
0.0000 0.4700 0.0000
0.0242 0.4461 0.0000
0.0104 0.4750 0.0000
0.0193 0.4307 0.0000
0.0258 0.4652 0.0000
0.0000 0.4800 0.0000
0.0092 0.4860 0.0000
0.0000 0.4900 0.0000
0.0401 0.4326 0.0000
0.0090 0.4942 0.0000
0.0329 0.4171 0.0000
0.0253 0.4900 0.0000
0.0000 0.5000 0.0000
0.0500 0.4500 0.0000
0.0500 0.4750 0.0000
0.0104 0.5050 0.0000
0.0000 0.5100 0.0000
0.0104 0.5150 0.0000
0.0260 0.5143 0.0000
0.0000 0.5200 0.0000
0.0678 0.4322 0.0000
0.0498 0.4002 0.0000
0.0500 0.5000 0.0000
0.0104 0.5250 0.0000
0.0000 0.5300 0.0000
0.0104 0.5350 0.0000
0.0257 0.5355 0.0000
0.0000 0.5400 0.0000
0.0500 0.5250 0.0000
0.0104 0.5450 0.0000
0.0889 0.4111 0.0000
0.0706 0.3794 0.0000
0.0000 0.5500 0.0000
0.0231 0.5540 0.0000
0.0080 0.5580 0.0000
0.0500 0.5500 0.0000
0.0181 0.5681 0.0000
0.0393 0.5695 0.0000
0.1144 0.3856 0.0000
0.0306 0.5806 0.0000
0.0960 0.3540 0.0000
0.0681 0.5681 0.0000
0.0462 0.5962 0.0000
0.0901 0.5901 0.0000
0.1448 0.3552 0.0000
0.0654 0.6154 0.0000
0.1269 0.3231 0.0000
0.1166 0.6166 0.0000
0.0890 0.6390 0.0000
0.1809 0.3191 0.0000
0.1639 0.2861 0.0000
0.1481 0.6481 0.0000
0.1177 0.6677 0.0000
0.2229 0.2771 0.0000
0.2079 0.2421 0.0000
0.1523 0.7023 0.0000
0.1853 0.6853 0.0000
0.2714 0.2286 0.0000
0.1936 0.7436 0.0000
0.2286 0.7286 0.0000
0.2564 0.1936 0.0000
0.3147 0.1853 0.0000
0.2421 0.7921 0.0000
0.2977 0.1523 0.0000
0.2771 0.7771 0.0000
0.3519 0.1481 0.0000
0.3323 0.1177 0.0000
0.2861 0.8361 0.0000
0.3191 0.8191 0.0000
0.3834 0.1166 0.0000
0.3610 0.0890 0.0000
0.3231 0.8731 0.0000
0.3552 0.8552 0.0000
0.3846 0.0654 0.0000
0.4099 0.0901 0.0000
0.4038 0.0462 0.0000
0.3540 0.9040 0.0000
0.4319 0.0681 0.0000
0.3856 0.8856 0.0000
0.4194 0.0306 0.0000
0.4305 0.0393 0.0000
0.4500 0.0500 0.0000
0.4319 0.0181 0.0000
0.3794 0.9294 0.0000
0.4460 0.0231 0.0000
0.4111 0.9111 0.0000
0.4750 0.0500 0.0000
0.4420 0.0080 0.0000
0.4637 0.0257 0.0000
0.4550 0.0104 0.0000
0.4500 0.0000 0.0000
0.4650 0.0104 0.0000
0.5000 0.0500 0.0000
0.4002 0.9502 0.0000
0.4600 0.0000 0.0000
0.4862 0.0260 0.0000
0.4750 0.0104 0.0000
0.4322 0.9322 0.0000
0.4700 0.0000 0.0000
0.4850 0.0104 0.0000
0.4800 0.0000 0.0000
0.5250 0.0500 0.0000
0.4950 0.0104 0.0000
0.5100 0.0253 0.0000
0.4171 0.9671 0.0000
0.4900 0.0000 0.0000
0.4326 0.9599 0.0000
0.5058 0.0090 0.0000
0.4500 0.9500 0.0000
0.5000 0.0000 0.0000
0.5140 0.0092 0.0000
0.5500 0.0500 0.0000
0.5100 0.0000 0.0000
0.5348 0.0258 0.0000
0.4307 0.9807 0.0000
0.5678 0.0678 0.0000
0.5250 0.0104 0.0000
0.5200 0.0000 0.0000
0.4461 0.9758 0.0000
0.4750 0.9500 0.0000
0.5889 0.0889 0.0000
0.5350 0.0104 0.0000
0.5300 0.0000 0.0000
0.5539 0.0242 0.0000
0.4416 0.9916 0.0000
0.5674 0.0401 0.0000
0.6144 0.1144 0.0000
0.5450 0.0104 0.0000
0.4652 0.9742 0.0000
0.5400 0.0000 0.0000
0.4550 0.9896 0.0000
0.5000 0.9500 0.0000
0.4500 1.0000 0.0000
0.5500 0.0000 0.0000
0.5584 0.0084 0.0000
0.4650 0.9896 0.0000
0.6448 0.1448 0.0000
0.5693 0.0193 0.0000
0.5829 0.0329 0.0000
0.4600 1.0000 0.0000
0.4900 0.9747 0.0000
0.4750 0.9896 0.0000
0.5998 0.0498 0.0000
0.4700 1.0000 0.0000
0.5250 0.9500 0.0000
0.4860 0.9908 0.0000
0.6206 0.0706 0.0000
0.4800 1.0000 0.0000
0.6809 0.1809 0.0000
0.4942 0.9910 0.0000
0.5143 0.9740 0.0000
0.4900 1.0000 0.0000
0.6460 0.0960 0.0000
0.5050 0.9896 0.0000
0.5500 0.9500 0.0000
0.5000 1.0000 0.0000
0.5681 0.9319 0.0000
0.5150 0.9896 0.0000
0.5901 0.9099 0.0000
0.5355 0.9742 0.0000
0.6769 0.1269 0.0000
0.5100 1.0000 0.0000
0.5250 0.9896 0.0000
0.6166 0.8834 0.0000
0.5200 1.0000 0.0000
0.7229 0.2229 0.0000
0.5350 0.9896 0.0000
0.6481 0.8519 0.0000
0.5300 1.0000 0.0000
0.5540 0.9769 0.0000
0.5695 0.9607 0.0000
0.5450 0.9896 0.0000
0.7139 0.1639 0.0000
0.5400 1.0000 0.0000
0.6853 0.8147 0.0000
0.5500 1.0000 0.0000
0.5580 0.9920 0.0000
0.5681 0.9819 0.0000
0.5806 0.9694 0.0000
0.5962 0.9538 0.0000
0.6154 0.9346 0.0000
0.6390 0.9110 0.0000
0.7714 0.2714 0.0000
0.6677 0.8823 0.0000
0.7579 0.2079 0.0000
0.7286 0.7714 0.0000
0.7023 0.8477 0.0000
0.7771 0.7229 0.0000
0.7436 0.8064 0.0000
0.8147 0.3147 0.0000
0.8064 0.2564 0.0000
0.7921 0.7579 0.0000
0.8191 0.6809 0.0000
0.8519 0.3519 0.0000
0.8477 0.2977 0.0000
0.8361 0.7139 0.0000
0.8552 0.6448 0.0000
0.8834 0.3834 0.0000
0.8823 0.3323 0.0000
0.8856 0.6144 0.0000
0.8731 0.6769 0.0000
0.9099 0.4099 0.0000
0.9110 0.3610 0.0000
0.9111 0.5889 0.0000
0.9040 0.6460 0.0000
0.9319 0.4319 0.0000
0.9346 0.3846 0.0000
0.9322 0.5678 0.0000
0.9294 0.6206 0.0000
0.9500 0.4500 0.0000
0.9500 0.4750 0.0000
0.9500 0.5000 0.0000
0.9500 0.5250 0.0000
0.9538 0.4038 0.0000
0.9500 0.5500 0.0000
0.9607 0.4305 0.0000
0.9502 0.5998 0.0000
0.9599 0.5674 0.0000
0.9694 0.4194 0.0000
0.9747 0.4600 0.0000
0.9671 0.5829 0.0000
0.9769 0.4460 0.0000
0.9765 0.4823 0.0000
0.9747 0.5200 0.0000
0.9742 0.5363 0.0000
0.9780 0.5025 0.0000
0.9758 0.5539 0.0000
0.9819 0.4319 0.0000
0.9807 0.5693 0.0000
0.9896 0.4550 0.0000
0.9896 0.4650 0.0000
0.9896 0.4850 0.0000
0.9896 0.4950 0.0000
0.9908 0.4760 0.0000
0.9896 0.5050 0.0000
0.9896 0.5150 0.0000
0.9920 0.4420 0.0000
0.9896 0.5250 0.0000
0.9896 0.5350 0.0000
0.9896 0.5450 0.0000
0.9916 0.5584 0.0000
1.0000 0.4500 0.0000
1.0000 0.4600 0.0000
1.0000 0.4700 0.0000
1.0000 0.4800 0.0000
1.0000 0.4900 0.0000
1.0000 0.5000 0.0000
1.0000 0.5100 0.0000
1.0000 0.5200 0.0000
1.0000 0.5300 0.0000
1.0000 0.5400 0.0000
1.0000 0.5500 0.0000
1.0104 0.4550 0.0000
1.0084 0.4416 0.0000
1.0104 0.4650 0.0000
1.0242 0.4461 0.0000
1.0104 0.4750 0.0000
1.0193 0.4307 0.0000
1.0258 0.4652 0.0000
1.0092 0.4860 0.0000
1.0401 0.4326 0.0000
1.0090 0.4942 0.0000
1.0329 0.4171 0.0000
1.0253 0.4900 0.0000
1.0500 0.4500 0.0000
1.0500 0.4750 0.0000
1.0104 0.5050 0.0000
1.0104 0.5150 0.0000
1.0260 0.5143 0.0000
1.0678 0.4322 0.0000
1.0498 0.4002 0.0000
1.0500 0.5000 0.0000
1.0104 0.5250 0.0000
1.0104 0.5350 0.0000
1.0257 0.5355 0.0000
1.0500 0.5250 0.0000
1.0104 0.5450 0.0000
1.0889 0.4111 0.0000
1.0706 0.3794 0.0000
1.0231 0.5540 0.0000
1.0080 0.5580 0.0000
1.0500 0.5500 0.0000
1.0181 0.5681 0.0000
1.0393 0.5695 0.0000
1.1144 0.3856 0.0000
1.0306 0.5806 0.0000
1.0960 0.3540 0.0000
1.0681 0.5681 0.0000
1.0462 0.5962 0.0000
1.0901 0.5901 0.0000
1.1448 0.3552 0.0000
1.0654 0.6154 0.0000
1.1269 0.3231 0.0000
1.1166 0.6166 0.0000
1.0890 0.6390 0.0000
1.1809 0.3191 0.0000
1.1639 0.2861 0.0000
1.1481 0.6481 0.0000
1.1177 0.6677 0.0000
1.2229 0.2771 0.0000
1.2079 0.2421 0.0000
1.1523 0.7023 0.0000
1.1853 0.6853 0.0000
1.2714 0.2286 0.0000
1.1936 0.7436 0.0000
1.2286 0.7286 0.0000
1.2564 0.1936 0.0000
1.3147 0.1853 0.0000
1.2421 0.7921 0.0000
1.2977 0.1523 0.0000
1.2771 0.7771 0.0000
1.3519 0.1481 0.0000
1.3323 0.1177 0.0000
1.2861 0.8361 0.0000
1.3191 0.8191 0.0000
1.3834 0.1166 0.0000
1.3610 0.0890 0.0000
1.3231 0.8731 0.0000
1.3552 0.8552 0.0000
1.3846 0.0654 0.0000
1.4099 0.0901 0.0000
1.4038 0.0462 0.0000
1.3540 0.9040 0.0000
1.4319 0.0681 0.0000
1.3856 0.8856 0.0000
1.4194 0.0306 0.0000
1.4305 0.0393 0.0000
1.4500 0.0500 0.0000
1.4319 0.0181 0.0000
1.3794 0.9294 0.0000
1.4460 0.0231 0.0000
1.4111 0.9111 0.0000
1.4750 0.0500 0.0000
1.4420 0.0080 0.0000
1.4637 0.0257 0.0000
1.4550 0.0104 0.0000
1.4500 0.0000 0.0000
1.4650 0.0104 0.0000
1.5000 0.0500 0.0000
1.4002 0.9502 0.0000
1.4600 0.0000 0.0000
1.4862 0.0260 0.0000
1.4750 0.0104 0.0000
1.4322 0.9322 0.0000
1.4700 0.0000 0.0000
1.4850 0.0104 0.0000
1.4800 0.0000 0.0000
1.5250 0.0500 0.0000
1.4950 0.0104 0.0000
1.5100 0.0253 0.0000
1.4171 0.9671 0.0000
1.4900 0.0000 0.0000
1.4326 0.9599 0.0000
1.5058 0.0090 0.0000
1.4500 0.9500 0.0000
1.5000 0.0000 0.0000
1.5140 0.0092 0.0000
1.5500 0.0500 0.0000
1.5100 0.0000 0.0000
1.5348 0.0258 0.0000
1.4307 0.9807 0.0000
1.5678 0.0678 0.0000
1.5250 0.0104 0.0000
1.5200 0.0000 0.0000
1.4461 0.9758 0.0000
1.4750 0.9500 0.0000
1.5889 0.0889 0.0000
1.5350 0.0104 0.0000
1.5300 0.0000 0.0000
1.5539 0.0242 0.0000
1.4416 0.9916 0.0000
1.5674 0.0401 0.0000
1.6144 0.1144 0.0000
1.5450 0.0104 0.0000
1.4652 0.9742 0.0000
1.5400 0.0000 0.0000
1.4550 0.9896 0.0000
1.5000 0.9500 0.0000
1.4500 1.0000 0.0000
1.5500 0.0000 0.0000
1.5584 0.0084 0.0000
1.4650 0.9896 0.0000
1.6448 0.1448 0.0000
1.5693 0.0193 0.0000
1.5829 0.0329 0.0000
1.4600 1.0000 0.0000
1.4900 0.9747 0.0000
1.4750 0.9896 0.0000
1.5998 0.0498 0.0000
1.4700 1.0000 0.0000
1.5250 0.9500 0.0000
1.4860 0.9908 0.0000
1.6206 0.0706 0.0000
1.4800 1.0000 0.0000
1.6809 0.1809 0.0000
1.4942 0.9910 0.0000
1.5143 0.9740 0.0000
1.4900 1.0000 0.0000
1.6460 0.0960 0.0000
1.5050 0.9896 0.0000
1.5500 0.9500 0.0000
1.5000 1.0000 0.0000
1.5681 0.9319 0.0000
1.5150 0.9896 0.0000
1.5901 0.9099 0.0000
1.5355 0.9742 0.0000
1.6769 0.1269 0.0000
1.5100 1.0000 0.0000
1.5250 0.9896 0.0000
1.6166 0.8834 0.0000
1.5200 1.0000 0.0000
1.7229 0.2229 0.0000
1.5350 0.9896 0.0000
1.6481 0.8519 0.0000
1.5300 1.0000 0.0000
1.5540 0.9769 0.0000
1.5695 0.9607 0.0000
1.5450 0.9896 0.0000
1.7139 0.1639 0.0000
1.5400 1.0000 0.0000
1.6853 0.8147 0.0000
1.5500 1.0000 0.0000
1.5580 0.9920 0.0000
1.5681 0.9819 0.0000
1.5806 0.9694 0.0000
1.5962 0.9538 0.0000
1.6154 0.9346 0.0000
1.6390 0.9110 0.0000
1.7714 0.2714 0.0000
1.6677 0.8823 0.0000
1.7579 0.2079 0.0000
1.7286 0.7714 0.0000
1.7023 0.8477 0.0000
1.7771 0.7229 0.0000
1.7436 0.8064 0.0000
1.8147 0.3147 0.0000
1.8064 0.2564 0.0000
1.7921 0.7579 0.0000
1.8191 0.6809 0.0000
1.8519 0.3519 0.0000
1.8477 0.2977 0.0000
1.8361 0.7139 0.0000
1.8552 0.6448 0.0000
1.8834 0.3834 0.0000
1.8823 0.3323 0.0000
1.8856 0.6144 0.0000
1.8731 0.6769 0.0000
1.9099 0.4099 0.0000
1.9110 0.3610 0.0000
1.9111 0.5889 0.0000
1.9040 0.6460 0.0000
1.9319 0.4319 0.0000
1.9346 0.3846 0.0000
1.9322 0.5678 0.0000
1.9294 0.6206 0.0000
1.9500 0.4500 0.0000
[...]
         <PointData>
            <DataArray Name="displacement" NumberOfComponents="2" format="ascii" type="Float64">
       00000 -5.03468e-14 
-1.15298e-14 -3.45894e-14 
 1.89989e+02 -2.68180e+02 
 1.27732e+03 -5.11387e+02 
-6.70001e+01 -5.41092e+01 
-3.26835e-14 -1.25287e-13 
 9.41200e+02  1.33050e+02 
-1.34611e+02  1.03331e+02 
 3.22419e+03 -6.53371e+02 
-3.41862e+02  6.05494e+02 
-2.91164e-14 -1.33935e-13 
-7.10350e+01  1.59577e+02 
-8.15020e-15 -1.57374e-14 
 2.90888e+03  1.62264e+03 
-6.89944e+01  1.87860e+02 
 7.44066e+03  3.30885e+02 
-2.17414e+02  5.92314e+02 
-2.64278e-14 -4.69828e-14 
 9.62263e+01  3.29243e+03 
-1.64649e+02  1.76254e+03 
-7.08661e+01  2.53162e+02 
-1.03271e-14  3.46002e-14 
-4.35551e+01  2.64779e+02 
-1.11714e+02  5.64119e+02 
 1.29376e-14 -1.15001e-14 
 2.83637e+03  9.84683e+03 
 1.35035e+04  3.58718e+03 
-9.87959e+01  1.06939e+03 
-3.75986e+01  2.85545e+02 
-2.72362e-15        00000 
-1.69303e+01  3.18950e+02 
-7.03500e+01  5.74628e+02 
-4.32643e-15 -9.22971e-14 
-5.91601e+01  7.40231e+02 
 1.82318e+01  3.75571e+02 
 9.53802e+03  1.86877e+04 
 2.29804e+04  1.09818e+04 
-1.75350e-14 -2.55055e-14 
 9.78018e+01  6.54570e+02 
 7.54707e+01  4.04364e+02 
 1.52409e+01  5.52132e+02 
 3.46278e+02  6.84550e+02 
 4.97873e+02  7.24912e+02 
 2.02893e+04  3.15473e+04 
 8.94623e+02  8.13608e+02 
 3.65256e+04  2.22547e+04 
 5.37875e+02 -4.78784e+01 
 1.73569e+03  7.09731e+02 
 1.60478e+03 -8.62456e+02 
 3.61307e+04  4.93870e+04 
 3.01754e+03  1.13656e+02 
 5.53685e+04  3.87817e+04 
 3.29182e+03 -2.13867e+03 
 4.63492e+03 -7.31922e+02 
 5.82279e+04  7.31877e+04 
 8.06474e+04  6.19151e+04 
 5.52888e+03 -3.79329e+03 
 6.77797e+03 -2.09518e+03 
 8.73698e+04  1.03545e+05 
 1.13079e+05  9.26607e+04 
 9.44362e+03 -3.92356e+03 
 8.36142e+03 -5.79463e+03 
 1.23580e+05  1.40304e+05 
 1.24844e+04 -6.12020e+03 
 1.16349e+04 -7.89890e+03 
 1.50286e+05  1.29012e+05 
 1.56966e+05  1.73464e+05 
 1.55213e+04 -8.35872e+03 
 1.82036e+05  1.60679e+05 
 1.48889e+04 -9.65256e+03 
 1.85514e+05  2.01163e+05 
 2.07874e+05  1.86930e+05 
 1.73948e+04 -9.77562e+03 
 1.70310e+04 -1.02842e+04 
 2.08934e+05  2.23435e+05 
 2.28230e+05  2.07929e+05 
 1.79884e+04 -1.01874e+04 
 1.80611e+04 -9.83067e+03 
 2.43481e+05  2.24287e+05 
 2.27787e+05  2.41059e+05 
 2.55443e+05  2.37389e+05 
 1.75728e+04 -9.76734e+03 
 2.42138e+05  2.54002e+05 
 1.81551e+04 -8.51098e+03 
 2.63327e+05  2.46970e+05 
 2.59005e+05  2.53202e+05 
 2.53660e+05  2.63041e+05 
 2.68658e+05  2.53913e+05 
 1.64742e+04 -8.76664e+03 
 2.66186e+05  2.60703e+05 
 1.75562e+04 -6.60556e+03 
 2.55076e+05  2.73097e+05 
 2.72561e+05  2.58750e+05 
 2.64744e+05  2.68840e+05 
 2.71287e+05  2.64671e+05 
 2.75724e+05  2.62341e+05 
 2.70993e+05  2.69072e+05 
 2.56468e+05  2.82312e+05 
 1.50033e+04 -7.43676e+03 
 2.75462e+05  2.66727e+05 
 2.64634e+05  2.77700e+05 
 2.70706e+05  2.73244e+05 
 1.64758e+04 -4.32913e+03 
 2.75052e+05  2.71002e+05 
 2.70451e+05  2.77050e+05 
 2.74566e+05  2.75002e+05 
 2.57843e+05  2.90313e+05 
 2.70181e+05  2.80762e+05 
 2.64955e+05  2.85978e+05 
 1.29578e+04 -5.84632e+03 
 2.74111e+05  2.78756e+05 
 1.39294e+04 -4.12343e+03 
 2.70363e+05  2.84370e+05 
 1.53018e+04 -1.54008e+03 
 2.73613e+05  2.82295e+05 
 2.70042e+05  2.87018e+05 
 2.59317e+05  2.97434e+05 
 2.73133e+05  2.85580e+05 
 2.64842e+05  2.93405e+05 
 1.07787e+04 -4.32170e+03 
 2.58721e+05  3.00780e+05 
 2.69391e+05  2.90431e+05 
 2.72659e+05  2.88743e+05 
 1.14466e+04 -1.92918e+03 
 1.59200e+04  3.11961e+03 
 2.58650e+05  3.02503e+05 
 2.69090e+05  2.93121e+05 
 2.72163e+05  2.91614e+05 
 2.64898e+05  2.97813e+05 
 8.74949e+03 -2.59191e+03 
 2.61124e+05  3.00590e+05 
 2.60002e+05  3.02781e+05 
 2.68794e+05  2.95588e+05 
 1.16209e+04  1.25187e+03 
 2.71744e+05  2.94208e+05 
 8.99010e+03 -3.01467e+02 
 1.64701e+04  7.61098e+03 
 7.04723e+03 -1.03734e+03 
 2.71467e+05  2.96669e+05 
 2.68987e+05  2.98667e+05 
 8.94572e+03  1.37275e+03 
 2.63158e+05  3.01167e+05 
 2.65703e+05  3.00842e+05 
 2.62350e+05  3.02125e+05 
 7.05221e+03  6.11493e+02 
 1.16769e+04  5.70734e+03 
 8.92406e+03  3.07759e+03 
 2.59731e+05  3.03013e+05 
 7.06626e+03  2.28270e+03 
 1.72395e+04  1.22239e+04 
 8.71890e+03  5.05864e+03 
 2.58799e+05  3.02770e+05 
 7.06653e+03  4.02155e+03 
 2.68440e+05  2.97196e+05 
 8.67203e+03  6.53919e+03 
 1.19333e+04  1.00786e+04 
 7.06275e+03  5.82375e+03 
 2.59138e+05  3.01218e+05 
 8.90930e+03  8.46423e+03 
 1.85351e+04  1.70574e+04 
 7.03553e+03  7.64071e+03 
 2.70451e+04  2.25754e+04 
 8.84781e+03  1.03450e+04 
 3.79052e+04  3.16922e+04 
 1.19367e+04  1.39971e+04 
 2.61380e+05  2.97863e+05 
 6.96603e+03  9.50207e+03 
 8.74855e+03  1.21815e+04 
 5.30399e+04  4.52236e+04 
 6.86982e+03  1.13991e+04 
 2.75832e+05  2.90740e+05 
 8.56689e+03  1.41740e+04 
 7.25452e+04  6.30545e+04 
 6.69567e+03  1.33318e+04 
 1.09894e+04  1.85674e+04 
 1.51184e+04  2.31907e+04 
 8.34467e+03  1.63274e+04 
 2.66055e+05  2.92361e+05 
 6.49768e+03  1.53075e+04 
 9.73986e+04  8.63225e+04 
 6.34508e+03  1.72664e+04 
 7.68315e+03  1.95651e+04 
 9.53182e+03  2.26652e+04 
 1.24292e+04  2.74723e+04 
 1.73777e+04  3.44389e+04 
 2.61563e+04  4.46534e+04 
 3.76275e+04  5.75894e+04 
 2.84718e+05  2.82259e+05 
 5.39149e+04  7.48958e+04 
 2.73347e+05  2.84767e+05 
 1.27877e+05  1.15623e+05 
 7.55263e+04  9.74593e+04 
 1.62574e+05  1.49818e+05 
 1.03392e+05  1.25962e+05 
 2.91878e+05  2.74782e+05 
 2.82247e+05  2.76290e+05 
 1.37742e+05  1.60356e+05 
 1.92216e+05  1.79602e+05 
 2.96541e+05  2.69288e+05 
 2.89484e+05  2.69985e+05 
 1.69211e+05  1.91204e+05 
 2.16376e+05  2.04387e+05 
 2.98898e+05  2.65892e+05 
 2.94550e+05  2.66109e+05 
 2.35305e+05  2.24269e+05 
 1.95198e+05  2.16095e+05 
 2.99628e+05  2.64087e+05 
 2.97600e+05  2.64278e+05 
 2.49690e+05  2.39789e+05 
 2.15862e+05  2.35422e+05 
 2.98351e+05  2.64094e+05 
 2.99006e+05  2.64450e+05 
 2.60266e+05  2.51600e+05 
 2.31850e+05  2.50011e+05 
 2.95493e+05  2.64496e+05 
 2.88947e+05  2.63368e+05 
 2.82072e+05  2.62765e+05 
 2.74799e+05  2.62132e+05 
 2.99872e+05  2.65096e+05 
 2.67349e+05  2.61021e+05 
 2.98449e+05  2.66113e+05 
 2.44007e+05  2.60838e+05 
 2.60391e+05  2.64969e+05 
 2.99422e+05  2.67544e+05 
 2.93090e+05  2.69378e+05 
 2.52883e+05  2.67911e+05 
 2.95948e+05  2.69607e+05 
 2.86968e+05  2.70005e+05 
 2.76341e+05  2.69827e+05 
 2.71720e+05  2.69766e+05 
 2.81149e+05  2.70619e+05 
 2.65657e+05  2.70571e+05 
 2.98340e+05  2.70496e+05 
 2.59588e+05  2.72528e+05 
 2.94190e+05  2.72767e+05 
 2.91589e+05  2.73024e+05 
 2.85937e+05  2.73536e+05 
 2.83122e+05  2.73759e+05 
 2.88458e+05  2.73624e+05 
 2.80254e+05  2.73968e+05 
 2.77495e+05  2.74188e+05 
 2.96850e+05  2.73228e+05 
 2.74724e+05  2.74419e+05 
 2.71841e+05  2.74667e+05 
 2.68824e+05  2.74922e+05 
 2.64060e+05  2.75693e+05 
 2.95683e+05  2.75386e+05 
 2.92836e+05  2.75634e+05 
 2.89965e+05  2.75965e+05 
 2.87106e+05  2.76281e+05 
 2.84298e+05  2.76542e+05 
 2.81456e+05  2.76790e+05 
 2.78645e+05  2.77030e+05 
 2.75865e+05  2.77283e+05 
 2.73072e+05  2.77594e+05 
 2.70289e+05  2.77902e+05 
 2.67488e+05  2.78131e+05 
 2.94327e+05  2.78614e+05 
 2.99201e+05  2.77801e+05 
 2.91223e+05  2.78895e+05 
 2.97541e+05  2.83015e+05 
 2.88265e+05  2.79167e+05 
 3.03854e+05  2.80962e+05 
 2.90888e+05  2.83893e+05 
 2.85225e+05  2.79086e+05 
 3.03000e+05  2.88776e+05 
 2.82909e+05  2.79196e+05 
 3.11000e+05  2.85689e+05 
 2.83795e+05  2.83879e+05 
 2.95733e+05  2.92918e+05 
 2.88140e+05  2.91657e+05 
 2.79795e+05  2.79821e+05 
 2.77043e+05  2.80026e+05 
 2.76976e+05  2.84189e+05 
 3.03098e+05  3.03063e+05 
 3.20525e+05  2.93116e+05 
 2.81016e+05  2.90925e+05 
 2.74201e+05  2.80256e+05 
 2.71513e+05  2.80516e+05 
 2.71114e+05  2.84237e+05 
 2.74112e+05  2.90189e+05 
 2.68971e+05  2.80784e+05 
 3.14382e+05  3.15868e+05 
 3.33723e+05  3.04761e+05 
 2.67135e+05  2.83966e+05 
 2.66257e+05  2.80337e+05 
 2.67560e+05  2.89006e+05 
 2.64777e+05  2.83084e+05 
 2.64678e+05  2.87415e+05 
 3.29936e+05  3.32876e+05 
 2.63743e+05  2.86008e+05 
 3.51252e+05  3.20626e+05 
 2.64785e+05  2.89320e+05 
 2.63366e+05  2.88388e+05 
 2.63616e+05  2.89237e+05 
 3.50658e+05  3.54906e+05 
 2.64288e+05  2.88949e+05 
 3.74164e+05  3.41889e+05 
 2.64437e+05  2.87382e+05 
 2.65741e+05  2.89023e+05 
 3.77464e+05  3.82721e+05 
 4.03361e+05  3.69641e+05 
 2.66839e+05  2.84040e+05 
 2.68758e+05  2.87135e+05 
 4.10861e+05  4.16667e+05 
 4.39302e+05  4.04579e+05 
 2.73585e+05  2.83336e+05 
 2.71374e+05  2.78864e+05 
 4.50664e+05  4.56399e+05 
 2.80139e+05  2.77455e+05 
 2.77997e+05  2.72228e+05 
 4.79301e+05  4.44271e+05 
 4.86336e+05  4.91320e+05 
 2.87572e+05  2.70069e+05 
 5.12606e+05  4.77901e+05 
 2.85658e+05  2.65364e+05 
 5.16177e+05  5.19942e+05 
 5.39246e+05  5.05235e+05 
 2.92745e+05  2.64110e+05 
 2.91313e+05  2.61088e+05 
 5.40293e+05  5.42673e+05 
 5.60005e+05  5.26815e+05 
 2.94870e+05  2.60646e+05 
 2.94454e+05  2.59738e+05 
 5.75417e+05  5.43477e+05 
 5.59528e+05  5.60531e+05 
 5.87475e+05  5.56783e+05 
 2.94345e+05  2.59561e+05 
 5.74039e+05  5.73516e+05 
 2.95230e+05  2.60992e+05 
 5.95325e+05  5.66427e+05 
 5.91010e+05  5.72683e+05 
 5.85652e+05  5.82507e+05 
 6.00603e+05  5.73384e+05 
 2.91897e+05  2.60337e+05 
 5.98133e+05  5.80147e+05 
 2.94125e+05  2.64200e+05 
 5.87092e+05  5.92435e+05 
 6.04453e+05  5.78199e+05 
 5.96678e+05  5.88234e+05 
 6.03179e+05  5.84079e+05 
 6.07580e+05  5.81762e+05 
 6.02876e+05  5.88449e+05 
 5.88490e+05  6.01530e+05 
 2.88319e+05  2.62338e+05 
 6.07311e+05  5.86116e+05 
 5.96566e+05  5.96985e+05 
 6.02581e+05  5.92580e+05 
 2.91631e+05  2.68797e+05 
 6.06891e+05  5.90355e+05 
 6.02322e+05  5.96339e+05 
 6.06396e+05  5.94312e+05 
 5.89851e+05  6.09411e+05 
 6.02049e+05  6.00002e+05 
 5.96880e+05  6.05143e+05 
 2.83014e+05  2.65378e+05 
 6.05936e+05  5.98018e+05 
 2.85395e+05  2.69098e+05 
 6.02225e+05  6.03557e+05 
 2.88793e+05  2.75177e+05 
 6.05435e+05  6.01510e+05 
 6.01906e+05  6.06165e+05 
 5.91290e+05  6.16413e+05 
 6.04957e+05  6.04747e+05 
 5.96768e+05  6.12453e+05 
 2.77251e+05  2.68464e+05 
 5.90610e+05  6.19716e+05 
 6.01262e+05  6.09527e+05 
 6.04486e+05  6.07863e+05 
 2.78898e+05  2.74082e+05 
 2.90308e+05  2.87269e+05 
 5.90393e+05  6.21483e+05 
 6.00966e+05  6.12177e+05 
 6.03997e+05  6.10693e+05 
 5.96833e+05  6.16804e+05 
 2.71853e+05  2.72248e+05 
 5.93099e+05  6.19548e+05 
 5.91463e+05  6.21910e+05 
 6.00676e+05  6.14612e+05 
 2.79263e+05  2.82225e+05 
 6.03587e+05  6.13251e+05 
 2.72532e+05  2.77818e+05 
 2.91158e+05  2.99796e+05 
 2.67551e+05  2.75359e+05 
 6.03315e+05  6.15681e+05 
 6.00872e+05  6.17654e+05 
 2.72277e+05  2.82446e+05 
 5.94116e+05  6.20622e+05 
 5.97638e+05  6.19807e+05 
 5.94326e+05  6.21118e+05 
 2.67365e+05  2.80174e+05 
 2.79043e+05  2.94619e+05 
 2.72052e+05  2.87268e+05 
 5.91716e+05  6.22066e+05 
 2.67122e+05  2.85024e+05 
 2.91764e+05  3.12521e+05 
 2.71321e+05  2.92815e+05 
 5.90692e+05  6.21973e+05 
 2.66891e+05  2.89942e+05 
 5.98539e+05  6.17280e+05 
 2.71105e+05  2.96920e+05 
 2.79411e+05  3.06957e+05 
 2.66733e+05  2.94935e+05 
 5.90828e+05  6.20711e+05 
 2.71690e+05  3.02330e+05 
 2.92403e+05  3.25315e+05 
 2.66598e+05  2.99944e+05 
 3.03889e+05  3.35531e+05 
 2.71619e+05  3.07438e+05 
 3.18053e+05  3.49037e+05 
 2.79315e+05  3.17778e+05 
 5.92670e+05  6.17883e+05 
 2.66488e+05  3.04986e+05 
 2.71546e+05  3.12523e+05 
 3.36026e+05  3.66462e+05 
 2.66401e+05  3.10074e+05 
 6.04522e+05  6.11944e+05 
 2.71448e+05  3.17699e+05 
 3.58064e+05  3.87985e+05 
 2.66309e+05  3.15202e+05 
 2.77754e+05  3.27718e+05 
 2.86380e+05  3.36355e+05 
 2.71329e+05  3.22932e+05 
 5.96605e+05  6.13304e+05 
 2.66231e+05  3.20369e+05 
 3.84776e+05  4.14314e+05 
 2.66177e+05  3.25526e+05 
 2.70015e+05  3.29860e+05 
 2.74980e+05  3.35491e+05 
 2.81496e+05  3.42996e+05 
 2.90246e+05  3.52795e+05 
 3.02301e+05  3.65630e+05 
 3.17418e+05  3.81555e+05 
 6.11201e+05  6.05306e+05 
 3.36867e+05  4.01617e+05 
 6.02601e+05  6.07259e+05 
 4.16335e+05  4.45784e+05 
 3.61157e+05  4.26486e+05 
 4.51538e+05  4.81296e+05 
 3.90897e+05  4.56648e+05 
 6.15756e+05  6.00011e+05 
 6.09496e+05  6.01076e+05 
 4.26254e+05  4.92133e+05 
 4.81430e+05  5.11785e+05 
 6.17603e+05  5.96918e+05 
 6.14480e+05  5.97336e+05 
 4.58082e+05  5.23685e+05 
 5.06026e+05  5.37183e+05 
 6.17122e+05  5.95996e+05 
 6.17170e+05  5.96132e+05 
 5.25751e+05  5.57831e+05 
 4.84289e+05  5.49335e+05 
 6.15174e+05  5.96557e+05 
 6.17878e+05  5.96899e+05 
 5.41278e+05  5.74324e+05 
 5.05331e+05  5.69676e+05 
 6.11267e+05  5.98872e+05 
 6.17077e+05  5.99582e+05 
 5.53274e+05  5.87292e+05 
 5.21926e+05  5.85528e+05 
 6.05884e+05  6.01273e+05 
 5.95453e+05  5.99945e+05 
 5.84610e+05  5.99210e+05 
 5.73374e+05  5.98609e+05 
 6.16073e+05  6.02379e+05 
 5.62210e+05  5.97858e+05 
 6.11506e+05  6.04322e+05 
 5.34870e+05  5.97761e+05 
 5.53417e+05  6.02888e+05 
 6.13858e+05  6.06961e+05 
 6.01945e+05  6.09690e+05 
 5.44725e+05  6.06583e+05 
 6.06842e+05  6.10205e+05 
 5.92394e+05  6.10542e+05 
 5.75737e+05  6.09828e+05 
 5.68483e+05  6.09597e+05 
 5.83406e+05  6.11251e+05 
 5.60105e+05  6.10527e+05 
 6.11218e+05  6.11811e+05 
 5.52375e+05  6.13001e+05 
 6.03733e+05  6.15386e+05 
 5.99680e+05  6.15654e+05 
 5.91010e+05  6.16073e+05 
 5.86636e+05  6.16223e+05 
 5.94894e+05  6.16395e+05 
 5.82202e+05  6.16331e+05 
 5.77816e+05  6.16429e+05 
 6.08328e+05  6.16172e+05 
 5.73394e+05  6.16522e+05 
 5.68877e+05  6.16631e+05 
 5.64278e+05  6.16759e+05 
 5.57891e+05  6.17784e+05 
 6.05935e+05  6.19744e+05 
 6.01652e+05  6.19960e+05 
 5.97344e+05  6.20244e+05 
 5.92999e+05  6.20490e+05 
 5.88667e+05  6.20683e+05 
 5.84289e+05  6.20842e+05 
 5.79895e+05  6.20966e+05 
 5.75495e+05  6.21076e+05 
 5.71035e+05  6.21190e+05 
 5.66522e+05  6.21288e+05 
 5.61986e+05  6.21360e+05 
 6.03876e+05  6.24659e+05 
 6.10532e+05  6.23650e+05 
 5.99377e+05  6.24856e+05 
 6.08293e+05  6.31178e+05 
 5.94984e+05  6.25059e+05 
 6.16395e+05  6.28585e+05 
 5.99135e+05  6.32165e+05 
 5.90269e+05  6.24725e+05 
 6.15315e+05  6.39053e+05 
 5.86703e+05  6.24745e+05 
 6.24540e+05  6.35186e+05 
 5.88344e+05  6.32091e+05 
 6.06137e+05  6.44307e+05 
 5.94874e+05  6.43526e+05 
 5.81961e+05  6.25517e+05 
 5.77598e+05  6.25618e+05 
 5.77796e+05  6.32536e+05 
 6.15460e+05  6.55507e+05 
 6.35070e+05  6.44362e+05 
 5.83969e+05  6.43267e+05 
 5.73173e+05  6.25714e+05 
 5.68736e+05  6.25778e+05 
 5.68502e+05  6.32539e+05 
 5.73059e+05  6.43251e+05 
 5.64266e+05  6.25817e+05 
 6.28223e+05  6.69344e+05 
 6.49037e+05  6.57319e+05 
 5.60339e+05  6.31376e+05 
 5.58562e+05  6.24766e+05 
 5.62157e+05  6.43307e+05 
 5.54166e+05  6.29149e+05 
 5.53551e+05  6.38558e+05 
 6.44920e+05  6.87120e+05 
 5.48600e+05  6.34673e+05 
 6.67109e+05  6.74278e+05 
 5.54206e+05  6.51548e+05 
 5.41633e+05  6.41590e+05 
 5.44424e+05  6.61595e+05 
 6.66370e+05  7.09623e+05 
 5.32877e+05  6.50320e+05 
 6.90276e+05  6.96288e+05 
 5.32428e+05  6.73900e+05 
 5.22073e+05  6.61088e+05 
 6.93466e+05  7.37664e+05 
 7.19511e+05  7.24419e+05 
 5.17931e+05  6.88818e+05 
 5.08692e+05  6.74436e+05 
 7.26905e+05  7.71851e+05 
 7.55594e+05  7.59578e+05 
 4.92167e+05  6.90869e+05 
 5.00430e+05  7.06891e+05 
 7.66985e+05  8.12410e+05 
 4.71826e+05  7.11043e+05 
 4.79370e+05  7.28685e+05 
 7.96417e+05  7.99848e+05 
 8.03589e+05  8.49158e+05 
 4.46960e+05  7.35667e+05 
 8.31540e+05  8.34771e+05 
 4.54861e+05  7.54029e+05 
 8.35257e+05  8.80670e+05 
 8.60926e+05  8.64196e+05 
 4.23374e+05  7.58876e+05 
 4.32665e+05  7.77053e+05 
 8.61977e+05  9.07063e+05 
 8.85001e+05  8.88440e+05 
 4.02523e+05  7.79311e+05 
 4.12819e+05  7.97711e+05 
 9.04295e+05  9.08092e+05 
 8.84183e+05  9.28872e+05 
 9.19854e+05  9.24037e+05 
 3.84378e+05  7.97040e+05 
 9.02210e+05  9.46420e+05 
 3.95338e+05  8.15962e+05 
 9.31820e+05  9.36603e+05 
 9.25139e+05  9.45348e+05 
 9.16982e+05  9.60318e+05 
 9.41082e+05  9.46446e+05 
 3.68827e+05  8.12203e+05 
 9.37237e+05  9.57120e+05 
 3.80150e+05  8.31858e+05 
 9.17505e+05  9.78591e+05 
 9.48371e+05  9.54073e+05 
 9.35232e+05  9.70448e+05 
 9.46529e+05  9.63842e+05 
 9.54211e+05  9.60073e+05 
 9.46422e+05  9.71286e+05 
 9.18030e+05  9.96543e+05 
 3.55690e+05  8.24998e+05 
 9.54114e+05  9.67511e+05 
 9.34982e+05  9.86837e+05 
 9.46316e+05  9.78648e+05 
 3.67096e+05  8.45561e+05 
 9.53964e+05  9.74910e+05 
 9.46221e+05  9.85874e+05 
 9.53783e+05  9.82207e+05 
 9.18557e+05  1.01403e+06 
 9.46119e+05  9.93064e+05 
 9.35508e+05  1.00372e+06 
 3.44414e+05  8.35760e+05 
 9.53613e+05  9.89413e+05 
 3.49245e+05  8.45920e+05 
 9.46997e+05  1.00068e+06 
 3.55917e+05  8.57712e+05 
 9.53424e+05  9.96538e+05 
 9.46740e+05  1.00642e+06 
 9.19133e+05  1.03119e+06 
 9.53241e+05  1.00357e+06 
 9.35183e+05  1.02090e+06 
 3.34961e+05  8.44606e+05 
 9.08724e+05  1.04271e+06 
 9.45817e+05  1.01408e+06 
 9.53059e+05  1.01055e+06 
 3.38226e+05  8.55173e+05 
 3.56292e+05  8.75489e+05 
 8.96609e+05  1.05551e+06 
 9.45700e+05  1.02088e+06 
 9.52866e+05  1.01742e+06 
 9.36134e+05  1.03356e+06 
 3.27186e+05  8.52045e+05 
 9.25506e+05  1.04239e+06 
 8.82617e+05  1.07020e+06 
 9.45583e+05  1.02759e+06 
 3.39276e+05  8.68438e+05 
 9.52703e+05  1.02418e+06 
 3.28512e+05  8.61374e+05 
 3.56520e+05  8.93314e+05 
 3.21151e+05  8.57853e+05 
 9.52594e+05  1.03088e+06 
 9.46784e+05  1.03650e+06 
 3.28459e+05  8.68403e+05 
 8.66586e+05  1.08692e+06 
 9.39225e+05  1.04362e+06 
 9.30101e+05  1.05192e+06 
 3.21123e+05  8.64905e+05 
 3.38950e+05  8.86139e+05 
 3.28416e+05  8.75481e+05 
 9.19395e+05  1.06193e+06 
 3.21086e+05  8.71975e+05 
 3.56709e+05  9.11205e+05 
 3.27559e+05  8.83330e+05 
 9.07129e+05  1.07371e+06 
 3.21047e+05  8.79078e+05 
 8.48381e+05  1.10577e+06 
 3.27368e+05  8.89182e+05 
 3.39426e+05  9.03503e+05 
 3.21016e+05  8.86210e+05 
 8.92731e+05  1.08759e+06 
 3.28341e+05  8.96887e+05 
 3.56938e+05  9.29189e+05 
 3.20984e+05  8.93350e+05 
 3.70791e+05  9.42653e+05 
 3.28314e+05  9.04053e+05 
 3.87663e+05  9.59397e+05 
 3.39258e+05  9.18683e+05 
 8.76053e+05  1.10376e+06 
 3.20949e+05  9.00502e+05 
 3.28279e+05  9.11209e+05 
 4.08285e+05  9.79965e+05 
 3.20914e+05  9.07667e+05 
 8.27850e+05  1.12683e+06 
 3.28233e+05  9.18397e+05 
 4.33036e+05  1.00473e+06 
 3.20867e+05  9.14838e+05 
 3.37280e+05  9.32199e+05 
 3.49062e+05  9.43656e+05 
 3.28179e+05  9.25610e+05 
 8.56940e+05  1.12243e+06 
 3.20820e+05  9.22014e+05 
 4.62378e+05  1.03420e+06 
 3.20786e+05  9.29176e+05 
 3.26449e+05  9.35096e+05 
 3.33583e+05  9.42550e+05 
 3.42617e+05  9.52025e+05 
 3.54089e+05  9.63965e+05 
 3.68722e+05  9.78970e+05 
 3.86800e+05  9.97441e+05 
 8.04729e+05  1.15034e+06 
 4.09168e+05  1.02014e+06 
 8.35213e+05  1.14387e+06 
 4.96494e+05  1.06865e+06 
 4.36385e+05  1.04766e+06 
 5.34297e+05  1.10700e+06 
 4.68954e+05  1.08046e+06 
 7.84198e+05  1.17103e+06 
 8.11937e+05  1.16710e+06 
 5.07091e+05  1.11871e+06 
 5.66482e+05  1.13983e+06 
 7.66408e+05  1.18878e+06 
 7.92374e+05  1.18679e+06 
 5.41252e+05  1.15275e+06 
 5.93301e+05  1.16736e+06 
 7.51037e+05  1.20400e+06 
 7.75907e+05  1.20349e+06 
 6.15257e+05  1.19005e+06 
 5.69501e+05  1.18072e+06 
 7.37870e+05  1.21697e+06 
 7.62075e+05  1.21761e+06 
 6.33007e+05  1.20851e+06 
 5.92455e+05  1.20332e+06 
 7.26495e+05  1.22808e+06 
 7.50493e+05  1.22957e+06 
 6.47187e+05  1.22338e+06 
 6.10869e+05  1.22136e+06 
 7.16684e+05  1.23733e+06 
 7.02550e+05  1.23698e+06 
 6.88202e+05  1.23662e+06 
 6.73387e+05  1.23620e+06 
 7.41000e+05  1.23943e+06 
 6.58424e+05  1.23567e+06 
 7.27219e+05  1.24311e+06 
 6.25520e+05  1.23566e+06 
 6.47390e+05  1.24197e+06 
 7.33054e+05  1.24788e+06 
 7.11090e+05  1.25104e+06 
 6.37006e+05  1.24658e+06 
 7.18802e+05  1.25220e+06 
 6.98460e+05  1.25213e+06 
 6.76485e+05  1.25105e+06 
 6.66757e+05  1.25074e+06 
 6.86742e+05  1.25302e+06 
 6.55841e+05  1.25185e+06 
 7.26458e+05  1.25494e+06 
 6.46069e+05  1.25497e+06 
 7.13788e+05  1.25945e+06 
 7.08229e+05  1.25953e+06 
 6.96852e+05  1.25969e+06 
 6.91089e+05  1.25977e+06 
 7.01988e+05  1.26028e+06 
 6.85249e+05  1.25985e+06 
 6.79400e+05  1.25993e+06 
 7.20987e+05  1.26070e+06 
 6.73469e+05  1.26001e+06 
 6.67418e+05  1.26010e+06 