<?xml version="1.0" encoding="utf-8"?>
<VTKFile byte_order="LittleEndian" type="UnstructuredGrid" version="0.1">
   <UnstructuredGrid>
      <Piece NumberOfCells="16" NumberOfPoints="13">
         <Points>
            <DataArray Name="Points" NumberOfComponents="3" format="ascii" type="Float32">
0.0000 1.0000 0.0000
0.0000 1.5000 0.0000
0.0000 2.0000 0.0000
1.0000 1.0000 0.0000
1.0000 1.5000 0.0000
1.0000 2.0000 0.0000
2.0000 1.0000 0.0000
2.0000 1.5000 0.0000
2.0000 2.0000 0.0000
0.5000 1.2500 0.0000
0.5000 1.7500 0.0000
1.5000 1.2500 0.0000
1.5000 1.7500 0.0000</DataArray>
         </Points>
         <Cells>
            <DataArray Name="connectivity" format="ascii" type="Int32">
 1 0 9
 2 1 10
 4 3 11
 5 4 12
 4 1 9
 5 2 10
 7 4 11
 8 5 12
 3 4 9
 4 5 10
 6 7 11
 7 8 12
 0 3 9
 1 4 10
 3 6 11
 4 7 12</DataArray>
            <DataArray Name="offsets" format="ascii" type="Int32">3 6 9 12 15 18 21 24 27 30 33 36 39 42 45 48 </DataArray>
            <DataArray Name="types" format="ascii" type="UInt8">5 5 5 5 5 5 5 5 5 5 5 5 5 5 5 5 </DataArray>
         </Cells>
         <PointData>
            <DataArray Name="fValues" NumberOfComponents="3" format="ascii" type="Float64">
 1.35974e-16  1.08779e-15        00000 
-2.03682e-16 -1.34939e-15        00000 
 3.22868e-16  1.15319e-15        00000 
-3.50854e+00 -5.20401e+00        00000 
-5.94123e-03 -4.77131e+00        00000 
 3.50222e+00 -5.21067e+00        00000 
-4.79465e+00 -1.51905e+01        00000 
-1.81887e-03 -1.54658e+01        00000 
 4.80060e+00 -1.52314e+01        00000 
-8.03810e-01 -2.19659e+00        00000 
 7.98107e-01 -2.19779e+00        00000 
-2.20015e+00 -1.00484e+01        00000 
 2.19025e+00 -1.00600e+01        00000 </DataArray>
         </PointData>
         <CellData/>
      </Piece>
   </UnstructuredGrid>
</VTKFile>