<?xml version="1.0" encoding="utf-8"?>
<VTKFile byte_order="LittleEndian" type="UnstructuredGrid" version="0.1">
   <UnstructuredGrid>
      <Piece NumberOfCells="784" NumberOfPoints="421">
         <Points>
            <DataArray Name="Points" NumberOfComponents="3" format="ascii" type="Float32">
0.0000 1.0000 0.0000
0.0000 1.0714 0.0000
0.0000 1.1429 0.0000
0.0000 1.2143 0.0000
0.0000 1.2857 0.0000
0.0000 1.3571 0.0000
0.0000 1.4286 0.0000
0.0000 1.5000 0.0000
0.0000 1.5714 0.0000
0.0000 1.6429 0.0000
0.0000 1.7143 0.0000
0.0000 1.7857 0.0000
0.0000 1.8571 0.0000
0.0000 1.9286 0.0000
0.0000 2.0000 0.0000
0.5000 1.0000 0.0000
0.5000 1.0714 0.0000
0.5000 1.1429 0.0000
0.5000 1.2143 0.0000
0.5000 1.2857 0.0000
0.5000 1.3571 0.0000
0.5000 1.4286 0.0000
0.5000 1.5000 0.0000
0.5000 1.5714 0.0000
0.5000 1.6429 0.0000
0.5000 1.7143 0.0000
0.5000 1.7857 0.0000
0.5000 1.8571 0.0000
0.5000 1.9286 0.0000
0.5000 2.0000 0.0000
1.0000 1.0000 0.0000
1.0000 1.0714 0.0000
1.0000 1.1429 0.0000
1.0000 1.2143 0.0000
1.0000 1.2857 0.0000
1.0000 1.3571 0.0000
1.0000 1.4286 0.0000
1.0000 1.5000 0.0000
1.0000 1.5714 0.0000
1.0000 1.6429 0.0000
1.0000 1.7143 0.0000
1.0000 1.7857 0.0000
1.0000 1.8571 0.0000
1.0000 1.9286 0.0000
1.0000 2.0000 0.0000
1.5000 1.0000 0.0000
1.5000 1.0714 0.0000
1.5000 1.1429 0.0000
1.5000 1.2143 0.0000
1.5000 1.2857 0.0000
1.5000 1.3571 0.0000
1.5000 1.4286 0.0000
1.5000 1.5000 0.0000
1.5000 1.5714 0.0000
1.5000 1.6429 0.0000
1.5000 1.7143 0.0000
1.5000 1.7857 0.0000
1.5000 1.8571 0.0000
1.5000 1.9286 0.0000
1.5000 2.0000 0.0000
2.0000 1.0000 0.0000
2.0000 1.0714 0.0000
2.0000 1.1429 0.0000
2.0000 1.2143 0.0000
2.0000 1.2857 0.0000
2.0000 1.3571 0.0000
2.0000 1.4286 0.0000
2.0000 1.5000 0.0000
2.0000 1.5714 0.0000
2.0000 1.6429 0.0000
2.0000 1.7143 0.0000
2.0000 1.7857 0.0000
2.0000 1.8571 0.0000
2.0000 1.9286 0.0000
2.0000 2.0000 0.0000
2.5000 1.0000 0.0000
2.5000 1.0714 0.0000
2.5000 1.1429 0.0000
2.5000 1.2143 0.0000
2.5000 1.2857 0.0000
2.5000 1.3571 0.0000
2.5000 1.4286 0.0000
2.5000 1.5000 0.0000
2.5000 1.5714 0.0000
2.5000 1.6429 0.0000
2.5000 1.7143 0.0000
2.5000 1.7857 0.0000
2.5000 1.8571 0.0000
2.5000 1.9286 0.0000
2.5000 2.0000 0.0000
3.0000 1.0000 0.0000
3.0000 1.0714 0.0000
3.0000 1.1429 0.0000
3.0000 1.2143 0.0000
3.0000 1.2857 0.0000
3.0000 1.3571 0.0000
3.0000 1.4286 0.0000
3.0000 1.5000 0.0000
3.0000 1.5714 0.0000
3.0000 1.6429 0.0000
3.0000 1.7143 0.0000
3.0000 1.7857 0.0000
3.0000 1.8571 0.0000
3.0000 1.9286 0.0000
3.0000 2.0000 0.0000
3.5000 1.0000 0.0000
3.5000 1.0714 0.0000
3.5000 1.1429 0.0000
3.5000 1.2143 0.0000
3.5000 1.2857 0.0000
3.5000 1.3571 0.0000
3.5000 1.4286 0.0000
3.5000 1.5000 0.0000
3.5000 1.5714 0.0000
3.5000 1.6429 0.0000
3.5000 1.7143 0.0000
3.5000 1.7857 0.0000
3.5000 1.8571 0.0000
3.5000 1.9286 0.0000
3.5000 2.0000 0.0000
4.0000 1.0000 0.0000
4.0000 1.0714 0.0000
4.0000 1.1429 0.0000
4.0000 1.2143 0.0000
4.0000 1.2857 0.0000
4.0000 1.3571 0.0000
4.0000 1.4286 0.0000
4.0000 1.5000 0.0000
4.0000 1.5714 0.0000
4.0000 1.6429 0.0000
4.0000 1.7143 0.0000
4.0000 1.7857 0.0000
4.0000 1.8571 0.0000
4.0000 1.9286 0.0000
4.0000 2.0000 0.0000
4.5000 1.0000 0.0000
4.5000 1.0714 0.0000
4.5000 1.1429 0.0000
4.5000 1.2143 0.0000
4.5000 1.2857 0.0000
4.5000 1.3571 0.0000
4.5000 1.4286 0.0000
4.5000 1.5000 0.0000
4.5000 1.5714 0.0000
4.5000 1.6429 0.0000
4.5000 1.7143 0.0000
4.5000 1.7857 0.0000
4.5000 1.8571 0.0000
4.5000 1.9286 0.0000
4.5000 2.0000 0.0000
5.0000 1.0000 0.0000
5.0000 1.0714 0.0000
5.0000 1.1429 0.0000
5.0000 1.2143 0.0000
5.0000 1.2857 0.0000
5.0000 1.3571 0.0000
5.0000 1.4286 0.0000
5.0000 1.5000 0.0000
5.0000 1.5714 0.0000
5.0000 1.6429 0.0000
5.0000 1.7143 0.0000
5.0000 1.7857 0.0000
5.0000 1.8571 0.0000
5.0000 1.9286 0.0000
5.0000 2.0000 0.0000
5.5000 1.0000 0.0000
5.5000 1.0714 0.0000
5.5000 1.1429 0.0000
5.5000 1.2143 0.0000
5.5000 1.2857 0.0000
5.5000 1.3571 0.0000
5.5000 1.4286 0.0000
5.5000 1.5000 0.0000
5.5000 1.5714 0.0000
5.5000 1.6429 0.0000
5.5000 1.7143 0.0000
5.5000 1.7857 0.0000
5.5000 1.8571 0.0000
5.5000 1.9286 0.0000
5.5000 2.0000 0.0000
6.0000 1.0000 0.0000
6.0000 1.0714 0.0000
6.0000 1.1429 0.0000
6.0000 1.2143 0.0000
6.0000 1.2857 0.0000
6.0000 1.3571 0.0000
6.0000 1.4286 0.0000
6.0000 1.5000 0.0000
6.0000 1.5714 0.0000
6.0000 1.6429 0.0000
6.0000 1.7143 0.0000
6.0000 1.7857 0.0000
6.0000 1.8571 0.0000
6.0000 1.9286 0.0000
6.0000 2.0000 0.0000
6.5000 1.0000 0.0000
6.5000 1.0714 0.0000
6.5000 1.1429 0.0000
6.5000 1.2143 0.0000
6.5000 1.2857 0.0000
6.5000 1.3571 0.0000
6.5000 1.4286 0.0000
6.5000 1.5000 0.0000
6.5000 1.5714 0.0000
6.5000 1.6429 0.0000
6.5000 1.7143 0.0000
6.5000 1.7857 0.0000
6.5000 1.8571 0.0000
6.5000 1.9286 0.0000
6.5000 2.0000 0.0000
7.0000 1.0000 0.0000
7.0000 1.0714 0.0000
7.0000 1.1429 0.0000
7.0000 1.2143 0.0000
7.0000 1.2857 0.0000
7.0000 1.3571 0.0000
7.0000 1.4286 0.0000
7.0000 1.5000 0.0000
7.0000 1.5714 0.0000
7.0000 1.6429 0.0000
7.0000 1.7143 0.0000
7.0000 1.7857 0.0000
7.0000 1.8571 0.0000
7.0000 1.9286 0.0000
7.0000 2.0000 0.0000
0.2500 1.0357 0.0000
0.2500 1.1071 0.0000
0.2500 1.1786 0.0000
0.2500 1.2500 0.0000
0.2500 1.3214 0.0000
0.2500 1.3929 0.0000
0.2500 1.4643 0.0000
0.2500 1.5357 0.0000
0.2500 1.6071 0.0000
0.2500 1.6786 0.0000
0.2500 1.7500 0.0000
0.2500 1.8214 0.0000
0.2500 1.8929 0.0000
0.2500 1.9643 0.0000
0.7500 1.0357 0.0000
0.7500 1.1071 0.0000
0.7500 1.1786 0.0000
0.7500 1.2500 0.0000
0.7500 1.3214 0.0000
0.7500 1.3929 0.0000
0.7500 1.4643 0.0000
0.7500 1.5357 0.0000
0.7500 1.6071 0.0000
0.7500 1.6786 0.0000
0.7500 1.7500 0.0000
0.7500 1.8214 0.0000
0.7500 1.8929 0.0000
0.7500 1.9643 0.0000
1.2500 1.0357 0.0000
1.2500 1.1071 0.0000
1.2500 1.1786 0.0000
1.2500 1.2500 0.0000
1.2500 1.3214 0.0000
1.2500 1.3929 0.0000
1.2500 1.4643 0.0000
1.2500 1.5357 0.0000
1.2500 1.6071 0.0000
1.2500 1.6786 0.0000
1.2500 1.7500 0.0000
1.2500 1.8214 0.0000
1.2500 1.8929 0.0000
1.2500 1.9643 0.0000
1.7500 1.0357 0.0000
1.7500 1.1071 0.0000
1.7500 1.1786 0.0000
1.7500 1.2500 0.0000
1.7500 1.3214 0.0000
1.7500 1.3929 0.0000
1.7500 1.4643 0.0000
1.7500 1.5357 0.0000
1.7500 1.6071 0.0000
1.7500 1.6786 0.0000
1.7500 1.7500 0.0000
1.7500 1.8214 0.0000
1.7500 1.8929 0.0000
1.7500 1.9643 0.0000
2.2500 1.0357 0.0000
2.2500 1.1071 0.0000
2.2500 1.1786 0.0000
2.2500 1.2500 0.0000
2.2500 1.3214 0.0000
2.2500 1.3929 0.0000
2.2500 1.4643 0.0000
2.2500 1.5357 0.0000
2.2500 1.6071 0.0000
2.2500 1.6786 0.0000
2.2500 1.7500 0.0000
2.2500 1.8214 0.0000
2.2500 1.8929 0.0000
2.2500 1.9643 0.0000
2.7500 1.0357 0.0000
2.7500 1.1071 0.0000
2.7500 1.1786 0.0000
2.7500 1.2500 0.0000
2.7500 1.3214 0.0000
2.7500 1.3929 0.0000
2.7500 1.4643 0.0000
2.7500 1.5357 0.0000
2.7500 1.6071 0.0000
2.7500 1.6786 0.0000
2.7500 1.7500 0.0000
2.7500 1.8214 0.0000
2.7500 1.8929 0.0000
2.7500 1.9643 0.0000
3.2500 1.0357 0.0000
3.2500 1.1071 0.0000
3.2500 1.1786 0.0000
3.2500 1.2500 0.0000
3.2500 1.3214 0.0000
3.2500 1.3929 0.0000
3.2500 1.4643 0.0000
3.2500 1.5357 0.0000
3.2500 1.6071 0.0000
3.2500 1.6786 0.0000
3.2500 1.7500 0.0000
3.2500 1.8214 0.0000
3.2500 1.8929 0.0000
3.2500 1.9643 0.0000
3.7500 1.0357 0.0000
3.7500 1.1071 0.0000
3.7500 1.1786 0.0000
3.7500 1.2500 0.0000
3.7500 1.3214 0.0000
3.7500 1.3929 0.0000
3.7500 1.4643 0.0000
3.7500 1.5357 0.0000
3.7500 1.6071 0.0000
3.7500 1.6786 0.0000
3.7500 1.7500 0.0000
3.7500 1.8214 0.0000
3.7500 1.8929 0.0000
3.7500 1.9643 0.0000
4.2500 1.0357 0.0000
4.2500 1.1071 0.0000
4.2500 1.1786 0.0000
4.2500 1.2500 0.0000
4.2500 1.3214 0.0000
4.2500 1.3929 0.0000
4.2500 1.4643 0.0000
4.2500 1.5357 0.0000
4.2500 1.6071 0.0000
4.2500 1.6786 0.0000
4.2500 1.7500 0.0000
4.2500 1.8214 0.0000
4.2500 1.8929 0.0000
4.2500 1.9643 0.0000
4.7500 1.0357 0.0000
4.7500 1.1071 0.0000
4.7500 1.1786 0.0000
4.7500 1.2500 0.0000
4.7500 1.3214 0.0000
4.7500 1.3929 0.0000
4.7500 1.4643 0.0000
4.7500 1.5357 0.0000
4.7500 1.6071 0.0000
4.7500 1.6786 0.0000
4.7500 1.7500 0.0000
4.7500 1.8214 0.0000
4.7500 1.8929 0.0000
4.7500 1.9643 0.0000
5.2500 1.0357 0.0000
5.2500 1.1071 0.0000
5.2500 1.1786 0.0000
5.2500 1.2500 0.0000
5.2500 1.3214 0.0000
5.2500 1.3929 0.0000
5.2500 1.4643 0.0000
5.2500 1.5357 0.0000
5.2500 1.6071 0.0000
5.2500 1.6786 0.0000
5.2500 1.7500 0.0000
5.2500 1.8214 0.0000
5.2500 1.8929 0.0000
5.2500 1.9643 0.0000
5.7500 1.0357 0.0000
5.7500 1.1071 0.0000
5.7500 1.1786 0.0000
5.7500 1.2500 0.0000
5.7500 1.3214 0.0000
5.7500 1.3929 0.0000
5.7500 1.4643 0.0000
5.7500 1.5357 0.0000
5.7500 1.6071 0.0000
5.7500 1.6786 0.0000
5.7500 1.7500 0.0000
5.7500 1.8214 0.0000
5.7500 1.8929 0.0000
5.7500 1.9643 0.0000
6.2500 1.0357 0.0000
6.2500 1.1071 0.0000
6.2500 1.1786 0.0000
6.2500 1.2500 0.0000
6.2500 1.3214 0.0000
6.2500 1.3929 0.0000
6.2500 1.4643 0.0000
6.2500 1.5357 0.0000
6.2500 1.6071 0.0000
6.2500 1.6786 0.0000
6.2500 1.7500 0.0000
6.2500 1.8214 0.0000
6.2500 1.8929 0.0000
6.2500 1.9643 0.0000
6.7500 1.0357 0.0000
6.7500 1.1071 0.0000
6.7500 1.1786 0.0000
6.7500 1.2500 0.0000
6.7500 1.3214 0.0000
6.7500 1.3929 0.0000
6.7500 1.4643 0.0000
6.7500 1.5357 0.0000
6.7500 1.6071 0.0000
6.7500 1.6786 0.0000
6.7500 1.7500 0.0000
6.7500 1.8214 0.0000
6.7500 1.8929 0.0000
6.7500 1.9643 0.0000</DataArray>
         </Points>
         <Cells>
            <DataArray Name="connectivity" format="ascii" type="Int32">
 1 0 225
 2 1 226
 3 2 227
 4 3 228
 5 4 229
 6 5 230
 7 6 231
 8 7 232
 9 8 233
 10 9 234
 11 10 235
 12 11 236
 13 12 237
 14 13 238
 16 15 239
 17 16 240
 18 17 241
 19 18 242
 20 19 243
 21 20 244
 22 21 245
 23 22 246
 24 23 247
 25 24 248
 26 25 249
 27 26 250
 28 27 251
 29 28 252
 31 30 253
 32 31 254
 33 32 255
 34 33 256
 35 34 257
 36 35 258
 37 36 259
 38 37 260
 39 38 261
 40 39 262
 41 40 263
 42 41 264
 43 42 265
 44 43 266
 46 45 267
 47 46 268
 48 47 269
 49 48 270
 50 49 271
 51 50 272
 52 51 273
 53 52 274
 54 53 275
 55 54 276
 56 55 277
 57 56 278
 58 57 279
 59 58 280
 61 60 281
 62 61 282
 63 62 283
 64 63 284
 65 64 285
 66 65 286
 67 66 287
 68 67 288
 69 68 289
 70 69 290
 71 70 291
 72 71 292
 73 72 293
[...]
         <PointData>
            <DataArray Name="fValues" NumberOfComponents="3" format="ascii" type="Float64">
 3.17980e-16 -3.92392e-16        00000 
       00000  1.70455e-16        00000 
-2.16333e-16 -1.02157e-16        00000 
 6.13076e-16 -1.10233e-16        00000 
-1.44222e-16  2.16333e-16        00000 
 1.24922e-16 -1.88203e-16        00000 
 2.40370e-16 -2.40370e-17        00000 
 1.81205e-17 -2.21976e-16        00000 
-2.40370e-16 -2.88444e-16        00000 
-2.44184e-16  8.48914e-16        00000 
-4.80741e-16 -6.00926e-16        00000 
 4.89253e-16  3.32208e-16        00000 
 5.28815e-16 -5.76889e-16        00000 
-1.94459e-16  1.94459e-16        00000 
-1.22331e-15  4.60153e-16        00000 
 1.43545e+00 -7.82695e-01        00000 
 1.71181e+00 -7.24717e-01        00000 
 2.32679e+00 -9.39609e-01        00000 
 2.83143e+00 -1.18819e+00        00000 
 3.48581e+00 -1.41380e+00        00000 
 4.21758e+00 -1.63781e+00        00000 
 4.61307e+00 -1.93969e+00        00000 
 5.11786e+00 -2.20812e+00        00000 
 5.33950e+00 -2.59889e+00        00000 
 5.40082e+00 -2.99100e+00        00000 
 5.52397e+00 -3.28254e+00        00000 
 5.69029e+00 -3.74689e+00        00000 
 6.03064e+00 -4.09636e+00        00000 
 6.73823e+00 -4.33986e+00        00000 
 7.92496e+00 -4.64775e+00        00000 
 1.21937e-01 -1.19819e+01        00000 
 2.10198e+00 -1.20602e+01        00000 
 3.68605e+00 -1.22745e+01        00000 
 5.32278e+00 -1.24249e+01        00000 
 6.25596e+00 -1.25514e+01        00000 
 7.03711e+00 -1.26555e+01        00000 
 7.76355e+00 -1.27510e+01        00000 
 8.24055e+00 -1.28079e+01        00000 
 9.34092e+00 -1.27738e+01        00000 
 9.98544e+00 -1.28757e+01        00000 
 1.01628e+01 -1.30561e+01        00000 
 1.06247e+01 -1.32013e+01        00000 
 1.12874e+01 -1.34688e+01        00000 
 1.24447e+01 -1.35307e+01        00000 
 1.41528e+01 -1.37776e+01        00000 
 3.40666e+00 -2.45609e+01        00000 
 4.73028e+00 -2.47640e+01        00000 
 6.05483e+00 -2.48334e+01        00000 
 7.17584e+00 -2.48360e+01        00000 
 8.04717e+00 -2.49353e+01        00000 
 8.67539e+00 -2.50210e+01        00000 
 9.56037e+00 -2.52089e+01        00000 
 1.03687e+01 -2.54222e+01        00000 
 1.11513e+01 -2.57384e+01        00000 
 1.21096e+01 -2.57636e+01        00000 
 1.27137e+01 -2.56649e+01        00000 
 1.32830e+01 -2.55831e+01        00000 
 1.37826e+01 -2.54250e+01        00000 
 1.47615e+01 -2.54626e+01        00000 
 1.58988e+01 -2.55786e+01        00000 
 1.22536e+00 -3.63577e+01        00000 
 2.53317e+00 -3.59883e+01        00000 
 3.76494e+00 -3.57532e+01        00000 
 4.91590e+00 -3.55491e+01        00000 
 5.98773e+00 -3.53627e+01        00000 
 7.25222e+00 -3.51550e+01        00000 
 8.73171e+00 -3.49786e+01        00000 
 9.91965e+00 -3.48851e+01        00000 
 1.11773e+01 -3.48571e+01        00000 
 1.21461e+01 -3.48999e+01        00000 
 1.29580e+01 -3.49480e+01        00000 
 1.39149e+01 -3.51598e+01        00000 
 1.51526e+01 -3.55174e+01        00000 
 1.66205e+01 -3.56102e+01        00000 
 1.81848e+01 -3.57847e+01        00000 
-2.25503e+00 -4.87508e+01        00000 
-4.41532e-01 -4.86380e+01        00000 
 1.46972e+00 -4.84623e+01        00000 
 3.20553e+00 -4.84013e+01        00000 
 4.59581e+00 -4.83594e+01        00000 
 5.89149e+00 -4.83602e+01        00000 
 6.94575e+00 -4.82778e+01        00000 
 8.47379e+00 -4.79835e+01        00000 
 1.01501e+01 -4.76250e+01        00000 
 1.16221e+01 -4.73315e+01        00000 
 1.33202e+01 -4.71924e+01        00000 
 1.46880e+01 -4.70334e+01        00000 
 1.60325e+01 -4.68496e+01        00000 
 1.77762e+01 -4.66798e+01        00000 
 1.93860e+01 -4.66890e+01        00000 
 1.20287e+00 -5.86270e+01        00000 
 2.47062e+00 -5.88997e+01        00000 
 3.53542e+00 -5.89700e+01        00000 
 4.45604e+00 -5.91365e+01        00000 
 5.52898e+00 -5.92910e+01        00000 
 6.65202e+00 -5.95867e+01        00000 
 7.73863e+00 -5.98193e+01        00000 
 8.63798e+00 -6.00220e+01        00000 
 9.86696e+00 -6.00542e+01        00000 
 1.10788e+01 -6.00400e+01        00000 
 1.20228e+01 -6.00569e+01        00000 
 1.27541e+01 -6.00101e+01        00000 
 1.37435e+01 -5.98889e+01        00000 
 1.51428e+01 -5.98311e+01        00000 
 1.63892e+01 -5.96237e+01        00000 
 6.12338e+00 -6.50805e+01        00000 
 6.76624e+00 -6.50899e+01        00000 
 6.97132e+00 -6.47318e+01        00000 
 7.10684e+00 -6.47286e+01        00000 
 7.78301e+00 -6.50292e+01        00000 
 8.50131e+00 -6.53158e+01        00000 
 8.98813e+00 -6.53863e+01        00000 
 9.38044e+00 -6.57009e+01        00000 
 9.92179e+00 -6.58118e+01        00000 
 1.06526e+01 -6.58813e+01        00000 
 1.11332e+01 -6.62120e+01        00000 
 1.17105e+01 -6.64486e+01        00000 
 1.26507e+01 -6.65575e+01        00000 
 1.37627e+01 -6.64965e+01        00000 
 1.47737e+01 -6.65558e+01        00000 
 7.94888e+00 -6.96362e+01        00000 
 8.40655e+00 -6.97920e+01        00000 
 9.13197e+00 -6.99697e+01        00000 
 9.84141e+00 -7.00604e+01        00000 
 1.00892e+01 -6.98639e+01        00000 
 1.03062e+01 -6.98380e+01        00000 
 1.06814e+01 -6.99144e+01        00000 
 1.11027e+01 -7.00843e+01        00000 
 1.14151e+01 -7.03182e+01        00000 
 1.20503e+01 -7.03980e+01        00000 
 1.29121e+01 -7.02651e+01        00000 
 1.38105e+01 -7.00804e+01        00000 
 1.41748e+01 -6.99778e+01        00000 
 1.41041e+01 -7.00356e+01        00000 
 1.47381e+01 -6.99320e+01        00000 
 1.19244e+01 -7.27467e+01        00000 
 1.20845e+01 -7.30386e+01        00000 
 1.17836e+01 -7.32606e+01        00000 
 1.13032e+01 -7.34596e+01        00000 
 1.07923e+01 -7.35090e+01        00000 
 1.04860e+01 -7.35222e+01        00000 
 1.02750e+01 -7.33195e+01        00000 
 1.02885e+01 -7.33187e+01        00000 
 1.03921e+01 -7.34658e+01        00000 
 1.02882e+01 -7.35567e+01        00000 
 1.04733e+01 -7.35782e+01        00000 
 1.09371e+01 -7.35463e+01        00000 
 1.14064e+01 -7.33644e+01        00000 
 1.16682e+01 -7.31268e+01        00000 
 1.14754e+01 -7.29145e+01        00000 
 1.17339e+01 -7.18227e+01        00000 
 1.14124e+01 -7.17369e+01        00000 
 1.09573e+01 -7.14683e+01        00000 
 1.06726e+01 -7.13749e+01        00000 
 1.00143e+01 -7.13922e+01        00000 
 9.20561e+00 -7.14521e+01        00000 
 8.91896e+00 -7.15050e+01        00000 
 8.66773e+00 -7.13883e+01        00000 
 8.50232e+00 -7.11985e+01        00000 
 8.19008e+00 -7.09725e+01        00000 
 7.68805e+00 -7.12266e+01        00000 
 7.29465e+00 -7.13411e+01        00000 
 6.96763e+00 -7.14955e+01        00000 
 6.79161e+00 -7.13960e+01        00000 
 6.45902e+00 -7.12114e+01        00000 
 1.01074e+01 -6.68209e+01        00000 
 9.00445e+00 -6.65225e+01        00000 
 7.98638e+00 -6.63950e+01        00000 
 7.09813e+00 -6.61037e+01        00000 
 6.48275e+00 -6.58208e+01        00000 
 6.04823e+00 -6.54143e+01        00000 
 5.05528e+00 -6.50391e+01        00000 
 3.74615e+00 -6.48293e+01        00000 
 2.92182e+00 -6.45662e+01        00000 
 2.75143e+00 -6.40712e+01        00000 
 2.78795e+00 -6.33920e+01        00000 
 2.28245e+00 -6.27198e+01        00000 
 1.64250e+00 -6.21321e+01        00000 
 6.32003e-01 -6.16838e+01        00000 
-1.49093e-01 -6.12876e+01        00000 
 5.03522e+00 -6.04879e+01        00000 
 4.27755e+00 -6.04549e+01        00000 
 3.24282e+00 -6.03076e+01        00000 
 2.05462e+00 -6.00857e+01        00000 
 6.74090e-01 -5.98611e+01        00000 
-8.66614e-01 -5.95153e+01        00000 
-1.80868e+00 -5.89901e+01        00000 
-2.50166e+00 -5.85321e+01        00000 
-3.41060e+00 -5.81407e+01        00000 
-4.56429e+00 -5.76168e+01        00000 
-5.56234e+00 -5.72984e+01        00000 
-5.86841e+00 -5.70090e+01        00000 
-6.17777e+00 -5.65139e+01        00000 
-6.75192e+00 -5.59665e+01        00000 
-7.40995e+00 -5.56141e+01        00000 
 4.52854e-01 -5.31087e+01        00000 
-9.52885e-01 -5.29487e+01        00000 
-2.35369e+00 -5.29286e+01        00000 
-3.76254e+00 -5.27418e+01        00000 
-5.29995e+00 -5.25403e+01        00000 
-6.16388e+00 -5.22301e+01        00000 
-7.23176e+00 -5.20149e+01        00000 
-8.35480e+00 -5.18112e+01        00000 
-9.25339e+00 -5.14307e+01        00000 
-9.82150e+00 -5.11546e+01        00000 
-1.06104e+01 -5.09670e+01        00000 
-1.18804e+01 -5.05026e+01        00000 
-1.32150e+01 -4.99406e+01        00000 
-1.45210e+01 -4.93758e+01        00000 
-1.56566e+01 -4.88765e+01        00000 
-8.18274e-01 -4.31052e+01        00000 
-1.94819e+00 -4.32797e+01        00000 
-3.89680e+00 -4.32648e+01        00000 
-5.47542e+00 -4.31114e+01        00000 
-7.08834e+00 -4.30953e+01        00000 
-8.87815e+00 -4.30340e+01        00000 
-9.83806e+00 -4.30224e+01        00000 
-1.11996e+01 -4.29172e+01        00000 
-1.29207e+01 -4.24417e+01        00000 
-1.43342e+01 -4.19181e+01        00000 
-1.55809e+01 -4.12605e+01        00000 
-1.59807e+01 -4.08518e+01        00000 
-1.66877e+01 -4.07254e+01        00000 
-1.81729e+01 -4.06411e+01        00000 
-1.91679e+01 -4.05252e+01        00000 
 7.71479e-01 -3.73884e-01        00000 
 1.03433e+00 -3.98900e-01        00000 
 1.24449e+00 -5.70359e-01        00000 
 1.62242e+00 -6.19847e-01        00000 
 1.84108e+00 -6.66092e-01        00000 
 2.14088e+00 -8.57885e-01        00000 
 2.49656e+00 -9.76617e-01        00000 
 2.62610e+00 -1.17596e+00        00000 
 2.67158e+00 -1.38156e+00        00000 
 2.72597e+00 -1.62527e+00        00000 
 2.74684e+00 -1.68166e+00        00000 
 2.99785e+00 -1.98016e+00        00000 
 3.00047e+00 -2.12960e+00        00000 
 3.68420e+00 -2.19850e+00        00000 
 1.34291e+00 -6.35184e+00        00000 
 2.40922e+00 -6.39407e+00        00000 
 3.51418e+00 -6.65044e+00        00000 
 4.60542e+00 -6.89030e+00        00000 
 5.23583e+00 -7.07154e+00        00000 
 6.02796e+00 -7.20099e+00        00000 
 6.55578e+00 -7.38613e+00        00000 
 6.97200e+00 -7.51097e+00        00000 
 7.75993e+00 -7.81601e+00        00000 
 7.74782e+00 -8.02636e+00        00000 
 7.87648e+00 -8.28021e+00        00000 
 8.49621e+00 -8.59999e+00        00000 
 9.06389e+00 -8.86923e+00        00000 
 1.03465e+01 -9.11074e+00        00000 
 2.67166e+00 -1.83796e+01        00000 
 4.25608e+00 -1.85293e+01        00000 
 5.63485e+00 -1.85674e+01        00000 
 6.82862e+00 -1.86993e+01        00000 
 7.65565e+00 -1.88299e+01        00000 
 8.27214e+00 -1.89126e+01        00000 
 8.84917e+00 -1.90214e+01        00000 
 9.78178e+00 -1.92518e+01        00000 
 1.07549e+01 -1.92292e+01        00000 
 1.13898e+01 -1.93054e+01        00000 
 1.18596e+01 -1.93946e+01        00000 
 1.22727e+01 -1.93941e+01        00000 
 1.29376e+01 -1.94591e+01        00000 
 1.43624e+01 -1.96434e+01        00000 
 3.11821e+00 -3.04455e+01        00000 
 4.38929e+00 -3.03380e+01        00000 
 5.48498e+00 -3.02438e+01        00000 
 6.63212e+00 -3.02094e+01        00000 
 7.66440e+00 -3.00955e+01        00000 
 8.41035e+00 -3.00395e+01        00000 
 9.61388e+00 -3.00865e+01        00000 
 1.09741e+01 -3.02447e+01        00000 
 1.16096e+01 -3.03603e+01        00000 
 1.24207e+01 -3.03764e+01        00000 
 1.31605e+01 -3.03021e+01        00000 
 1.39252e+01 -3.03918e+01        00000 
 1.48679e+01 -3.05743e+01        00000 
 1.62800e+01 -3.06729e+01        00000 
 2.79941e-01 -4.24449e+01        00000 
 1.80672e+00 -4.21349e+01        00000 
 3.38984e+00 -4.20348e+01        00000 
 4.51439e+00 -4.19357e+01        00000 
 5.86827e+00 -4.18286e+01        00000 
 7.19120e+00 -4.17815e+01        00000 
 8.44390e+00 -4.14774e+01        00000 
 9.92781e+00 -4.13380e+01        00000 
 1.12863e+01 -4.12477e+01        00000 
 1.25377e+01 -4.10904e+01        00000 
 1.37493e+01 -4.10458e+01        00000 
 1.48661e+01 -4.11740e+01        00000 
 1.64682e+01 -4.11795e+01        00000 
 1.80133e+01 -4.12373e+01        00000 
 1.63091e-01 -5.37309e+01        00000 
 1.81445e+00 -5.37415e+01        00000 
 3.10859e+00 -5.37827e+01        00000 
 4.41012e+00 -5.38326e+01        00000 
 5.55329e+00 -5.38376e+01        00000 
 6.77891e+00 -5.40647e+01        00000 
 8.02463e+00 -5.41277e+01        00000 
 9.23179e+00 -5.39973e+01        00000 
 1.06838e+01 -5.36605e+01        00000 
 1.18961e+01 -5.36592e+01        00000 
 1.31566e+01 -5.35552e+01        00000 
 1.44371e+01 -5.35144e+01        00000 
 1.56958e+01 -5.33073e+01        00000 
 1.70670e+01 -5.32440e+01        00000 
 4.28888e+00 -6.19279e+01        00000 
 5.07903e+00 -6.19377e+01        00000 
 5.42370e+00 -6.18511e+01        00000 
 6.25213e+00 -6.20558e+01        00000 
 7.10784e+00 -6.22526e+01        00000 
 7.96135e+00 -6.25463e+01        00000 
 8.60155e+00 -6.26986e+01        00000 
 9.40535e+00 -6.29465e+01        00000 
 1.05475e+01 -6.29024e+01        00000 
 1.11606e+01 -6.30553e+01        00000 
 1.16915e+01 -6.31384e+01        00000 
 1.27306e+01 -6.32785e+01        00000 
 1.37919e+01 -6.32247e+01        00000 
 1.50988e+01 -6.31211e+01        00000 
 7.39467e+00 -6.73946e+01        00000 
 7.72676e+00 -6.73261e+01        00000 
 8.34494e+00 -6.73741e+01        00000 
 8.63217e+00 -6.73218e+01        00000 
 9.24923e+00 -6.75053e+01        00000 
 9.72369e+00 -6.75655e+01        00000 
 9.97739e+00 -6.77553e+01        00000 
 1.04272e+01 -6.79117e+01        00000 
 1.09881e+01 -6.81816e+01        00000 
 1.16459e+01 -6.82101e+01        00000 
 1.24511e+01 -6.82035e+01        00000 
 1.31450e+01 -6.82624e+01        00000 
 1.36074e+01 -6.82873e+01        00000 
 1.44461e+01 -6.82532e+01        00000 
 1.02089e+01 -7.12132e+01        00000 
 1.03309e+01 -7.15533e+01        00000 
 1.05235e+01 -7.18102e+01        00000 
 1.05265e+01 -7.17444e+01        00000 
 1.05370e+01 -7.16293e+01        00000 
 1.04362e+01 -7.16288e+01        00000 
 1.05016e+01 -7.17244e+01        00000 
 1.08913e+01 -7.17491e+01        00000 
 1.10305e+01 -7.19273e+01        00000 
 1.15136e+01 -7.19694e+01        00000 
 1.22585e+01 -7.18384e+01        00000 
 1.26847e+01 -7.17672e+01        00000 
 1.28560e+01 -7.16004e+01        00000 
 1.29034e+01 -7.15186e+01        00000 
 1.18729e+01 -7.23356e+01        00000 
 1.16456e+01 -7.24211e+01        00000 
 1.12470e+01 -7.23701e+01        00000 
 1.07547e+01 -7.24293e+01        00000 
 1.01208e+01 -7.25724e+01        00000 
 9.66035e+00 -7.25203e+01        00000 
 9.60736e+00 -7.23764e+01        00000 
 9.44160e+00 -7.23561e+01        00000 
 9.38091e+00 -7.23068e+01        00000 
 9.23561e+00 -7.23485e+01        00000 
 9.05919e+00 -7.24905e+01        00000 
 9.03164e+00 -7.24582e+01        00000 
 9.29988e+00 -7.23653e+01        00000 
 9.08080e+00 -7.22169e+01        00000 
 1.06806e+01 -6.92813e+01        00000 
 9.81166e+00 -6.90540e+01        00000 
 9.12580e+00 -6.87802e+01        00000 
 8.60739e+00 -6.86718e+01        00000 
 8.03291e+00 -6.85269e+01        00000 
 7.35999e+00 -6.83742e+01        00000 
 6.59795e+00 -6.82550e+01        00000 
 5.87593e+00 -6.80371e+01        00000 
 5.58517e+00 -6.77202e+01        00000 
 5.52098e+00 -6.75133e+01        00000 
 5.02389e+00 -6.72036e+01        00000 
 4.44352e+00 -6.68460e+01        00000 
 4.06654e+00 -6.67734e+01        00000 
 3.41197e+00 -6.63889e+01        00000 
 7.05560e+00 -6.35498e+01        00000 
 6.19529e+00 -6.34917e+01        00000 
 5.15357e+00 -6.32191e+01        00000 
 4.07662e+00 -6.30000e+01        00000 
 3.13341e+00 -6.27263e+01        00000 
 2.11857e+00 -6.22315e+01        00000 
 9.95325e-01 -6.18258e+01        00000 
 2.42978e-01 -6.15563e+01        00000 
-6.68878e-01 -6.11001e+01        00000 
-1.39468e+00 -6.06096e+01        00000 
-1.66374e+00 -6.01176e+01        00000 
-1.96987e+00 -5.95858e+01        00000 
-2.55649e+00 -5.89781e+01        00000 
-3.46021e+00 -5.86429e+01        00000 
 2.23644e+00 -5.67761e+01        00000 
 1.01763e+00 -5.67101e+01        00000 
-1.67998e-01 -5.64263e+01        00000 
-1.63770e+00 -5.62861e+01        00000 
-2.91596e+00 -5.61327e+01        00000 
-4.11060e+00 -5.56964e+01        00000 
-5.04264e+00 -5.53351e+01        00000 
-5.92345e+00 -5.49489e+01        00000 
-6.66492e+00 -5.45388e+01        00000 
-7.65729e+00 -5.42363e+01        00000 
-8.36372e+00 -5.39742e+01        00000 
-9.23946e+00 -5.35159e+01        00000 
-1.01255e+01 -5.28916e+01        00000 
-1.12599e+01 -5.24410e+01        00000 
-7.94553e-01 -4.81042e+01        00000 
-2.40187e+00 -4.81443e+01        00000 
-3.82395e+00 -4.79980e+01        00000 
-5.45295e+00 -4.79131e+01        00000 
-7.11396e+00 -4.76324e+01        00000 
-7.89677e+00 -4.75637e+01        00000 
-9.08532e+00 -4.74411e+01        00000 
-1.05687e+01 -4.71872e+01        00000 
-1.17106e+01 -4.66820e+01        00000 
-1.23919e+01 -4.64545e+01        00000 
-1.34045e+01 -4.58214e+01        00000 
-1.43782e+01 -4.54576e+01        00000 
-1.55523e+01 -4.51992e+01        00000 
-1.70267e+01 -4.48170e+01        00000 </DataArray>
         </PointData>
         <CellData/>
      </Piece>
   </UnstructuredGrid>
</VTKFile>