<?xml version="1.0" encoding="utf-8"?>
<VTKFile byte_order="LittleEndian" type="UnstructuredGrid" version="0.1">
   <UnstructuredGrid>
      <Piece NumberOfCells="784" NumberOfPoints="421">
         <Points>
            <DataArray Name="Points" NumberOfComponents="3" format="ascii" type="Float32">
0.0000 1.0000 0.0000
0.0000 1.0714 0.0000
0.0000 1.1429 0.0000
0.0000 1.2143 0.0000
0.0000 1.2857 0.0000
0.0000 1.3571 0.0000
0.0000 1.4286 0.0000
0.0000 1.5000 0.0000
0.0000 1.5714 0.0000
0.0000 1.6429 0.0000
0.0000 1.7143 0.0000
0.0000 1.7857 0.0000
0.0000 1.8571 0.0000
0.0000 1.9286 0.0000
0.0000 2.0000 0.0000
0.5000 1.0000 0.0000
0.5000 1.0714 0.0000
0.5000 1.1429 0.0000
0.5000 1.2143 0.0000
0.5000 1.2857 0.0000
0.5000 1.3571 0.0000
0.5000 1.4286 0.0000
0.5000 1.5000 0.0000
0.5000 1.5714 0.0000
0.5000 1.6429 0.0000
0.5000 1.7143 0.0000
0.5000 1.7857 0.0000
0.5000 1.8571 0.0000
0.5000 1.9286 0.0000
0.5000 2.0000 0.0000
1.0000 1.0000 0.0000
1.0000 1.0714 0.0000
1.0000 1.1429 0.0000
1.0000 1.2143 0.0000
1.0000 1.2857 0.0000
1.0000 1.3571 0.0000
1.0000 1.4286 0.0000
1.0000 1.5000 0.0000
1.0000 1.5714 0.0000
1.0000 1.6429 0.0000
1.0000 1.7143 0.0000
1.0000 1.7857 0.0000
1.0000 1.8571 0.0000
1.0000 1.9286 0.0000
1.0000 2.0000 0.0000
1.5000 1.0000 0.0000
1.5000 1.0714 0.0000
1.5000 1.1429 0.0000
1.5000 1.2143 0.0000
1.5000 1.2857 0.0000
1.5000 1.3571 0.0000
1.5000 1.4286 0.0000
1.5000 1.5000 0.0000
1.5000 1.5714 0.0000
1.5000 1.6429 0.0000
1.5000 1.7143 0.0000
1.5000 1.7857 0.0000
1.5000 1.8571 0.0000
1.5000 1.9286 0.0000
1.5000 2.0000 0.0000
2.0000 1.0000 0.0000
2.0000 1.0714 0.0000
2.0000 1.1429 0.0000
2.0000 1.2143 0.0000
2.0000 1.2857 0.0000
2.0000 1.3571 0.0000
2.0000 1.4286 0.0000
2.0000 1.5000 0.0000
2.0000 1.5714 0.0000
2.0000 1.6429 0.0000
2.0000 1.7143 0.0000
2.0000 1.7857 0.0000
2.0000 1.8571 0.0000
2.0000 1.9286 0.0000
2.0000 2.0000 0.0000
2.5000 1.0000 0.0000
2.5000 1.0714 0.0000
2.5000 1.1429 0.0000
2.5000 1.2143 0.0000
2.5000 1.2857 0.0000
2.5000 1.3571 0.0000
2.5000 1.4286 0.0000
2.5000 1.5000 0.0000
2.5000 1.5714 0.0000
2.5000 1.6429 0.0000
2.5000 1.7143 0.0000
2.5000 1.7857 0.0000
2.5000 1.8571 0.0000
2.5000 1.9286 0.0000
2.5000 2.0000 0.0000
3.0000 1.0000 0.0000
3.0000 1.0714 0.0000
3.0000 1.1429 0.0000
3.0000 1.2143 0.0000
3.0000 1.2857 0.0000
3.0000 1.3571 0.0000
3.0000 1.4286 0.0000
3.0000 1.5000 0.0000
3.0000 1.5714 0.0000
3.0000 1.6429 0.0000
3.0000 1.7143 0.0000
3.0000 1.7857 0.0000
3.0000 1.8571 0.0000
3.0000 1.9286 0.0000
3.0000 2.0000 0.0000
3.5000 1.0000 0.0000
3.5000 1.0714 0.0000
3.5000 1.1429 0.0000
3.5000 1.2143 0.0000
3.5000 1.2857 0.0000
3.5000 1.3571 0.0000
3.5000 1.4286 0.0000
3.5000 1.5000 0.0000
3.5000 1.5714 0.0000
3.5000 1.6429 0.0000
3.5000 1.7143 0.0000
3.5000 1.7857 0.0000
3.5000 1.8571 0.0000
3.5000 1.9286 0.0000
3.5000 2.0000 0.0000
4.0000 1.0000 0.0000
4.0000 1.0714 0.0000
4.0000 1.1429 0.0000
4.0000 1.2143 0.0000
4.0000 1.2857 0.0000
4.0000 1.3571 0.0000
4.0000 1.4286 0.0000
4.0000 1.5000 0.0000
4.0000 1.5714 0.0000
4.0000 1.6429 0.0000
4.0000 1.7143 0.0000
4.0000 1.7857 0.0000
4.0000 1.8571 0.0000
4.0000 1.9286 0.0000
4.0000 2.0000 0.0000
4.5000 1.0000 0.0000
4.5000 1.0714 0.0000
4.5000 1.1429 0.0000
4.5000 1.2143 0.0000
4.5000 1.2857 0.0000
4.5000 1.3571 0.0000
4.5000 1.4286 0.0000
4.5000 1.5000 0.0000
4.5000 1.5714 0.0000
4.5000 1.6429 0.0000
4.5000 1.7143 0.0000
4.5000 1.7857 0.0000
4.5000 1.8571 0.0000
4.5000 1.9286 0.0000
4.5000 2.0000 0.0000
5.0000 1.0000 0.0000
5.0000 1.0714 0.0000
5.0000 1.1429 0.0000
5.0000 1.2143 0.0000
5.0000 1.2857 0.0000
5.0000 1.3571 0.0000
5.0000 1.4286 0.0000
5.0000 1.5000 0.0000
5.0000 1.5714 0.0000
5.0000 1.6429 0.0000
5.0000 1.7143 0.0000
5.0000 1.7857 0.0000
5.0000 1.8571 0.0000
5.0000 1.9286 0.0000
5.0000 2.0000 0.0000
5.5000 1.0000 0.0000
5.5000 1.0714 0.0000
5.5000 1.1429 0.0000
5.5000 1.2143 0.0000
5.5000 1.2857 0.0000
5.5000 1.3571 0.0000
5.5000 1.4286 0.0000
5.5000 1.5000 0.0000
5.5000 1.5714 0.0000
5.5000 1.6429 0.0000
5.5000 1.7143 0.0000
5.5000 1.7857 0.0000
5.5000 1.8571 0.0000
5.5000 1.9286 0.0000
5.5000 2.0000 0.0000
6.0000 1.0000 0.0000
6.0000 1.0714 0.0000
6.0000 1.1429 0.0000
6.0000 1.2143 0.0000
6.0000 1.2857 0.0000
6.0000 1.3571 0.0000
6.0000 1.4286 0.0000
6.0000 1.5000 0.0000
6.0000 1.5714 0.0000
6.0000 1.6429 0.0000
6.0000 1.7143 0.0000
6.0000 1.7857 0.0000
6.0000 1.8571 0.0000
6.0000 1.9286 0.0000
6.0000 2.0000 0.0000
6.5000 1.0000 0.0000
6.5000 1.0714 0.0000
6.5000 1.1429 0.0000
6.5000 1.2143 0.0000
6.5000 1.2857 0.0000
6.5000 1.3571 0.0000
6.5000 1.4286 0.0000
6.5000 1.5000 0.0000
6.5000 1.5714 0.0000
6.5000 1.6429 0.0000
6.5000 1.7143 0.0000
6.5000 1.7857 0.0000
6.5000 1.8571 0.0000
6.5000 1.9286 0.0000
6.5000 2.0000 0.0000
7.0000 1.0000 0.0000
7.0000 1.0714 0.0000
7.0000 1.1429 0.0000
7.0000 1.2143 0.0000
7.0000 1.2857 0.0000
7.0000 1.3571 0.0000
7.0000 1.4286 0.0000
7.0000 1.5000 0.0000
7.0000 1.5714 0.0000
7.0000 1.6429 0.0000
7.0000 1.7143 0.0000
7.0000 1.7857 0.0000
7.0000 1.8571 0.0000
7.0000 1.9286 0.0000
7.0000 2.0000 0.0000
0.2500 1.0357 0.0000
0.2500 1.1071 0.0000
0.2500 1.1786 0.0000
0.2500 1.2500 0.0000
0.2500 1.3214 0.0000
0.2500 1.3929 0.0000
0.2500 1.4643 0.0000
0.2500 1.5357 0.0000
0.2500 1.6071 0.0000
0.2500 1.6786 0.0000
0.2500 1.7500 0.0000
0.2500 1.8214 0.0000
0.2500 1.8929 0.0000
0.2500 1.9643 0.0000
0.7500 1.0357 0.0000
0.7500 1.1071 0.0000
0.7500 1.1786 0.0000
0.7500 1.2500 0.0000
0.7500 1.3214 0.0000
0.7500 1.3929 0.0000
0.7500 1.4643 0.0000
0.7500 1.5357 0.0000
0.7500 1.6071 0.0000
0.7500 1.6786 0.0000
0.7500 1.7500 0.0000
0.7500 1.8214 0.0000
0.7500 1.8929 0.0000
0.7500 1.9643 0.0000
1.2500 1.0357 0.0000
1.2500 1.1071 0.0000
1.2500 1.1786 0.0000
1.2500 1.2500 0.0000
1.2500 1.3214 0.0000
1.2500 1.3929 0.0000
1.2500 1.4643 0.0000
1.2500 1.5357 0.0000
1.2500 1.6071 0.0000
1.2500 1.6786 0.0000
1.2500 1.7500 0.0000
1.2500 1.8214 0.0000
1.2500 1.8929 0.0000
1.2500 1.9643 0.0000
1.7500 1.0357 0.0000
1.7500 1.1071 0.0000
1.7500 1.1786 0.0000
1.7500 1.2500 0.0000
1.7500 1.3214 0.0000
1.7500 1.3929 0.0000
1.7500 1.4643 0.0000
1.7500 1.5357 0.0000
1.7500 1.6071 0.0000
1.7500 1.6786 0.0000
1.7500 1.7500 0.0000
1.7500 1.8214 0.0000
1.7500 1.8929 0.0000
1.7500 1.9643 0.0000
2.2500 1.0357 0.0000
2.2500 1.1071 0.0000
2.2500 1.1786 0.0000
2.2500 1.2500 0.0000
2.2500 1.3214 0.0000
2.2500 1.3929 0.0000
2.2500 1.4643 0.0000
2.2500 1.5357 0.0000
2.2500 1.6071 0.0000
2.2500 1.6786 0.0000
2.2500 1.7500 0.0000
2.2500 1.8214 0.0000
2.2500 1.8929 0.0000
2.2500 1.9643 0.0000
2.7500 1.0357 0.0000
2.7500 1.1071 0.0000
2.7500 1.1786 0.0000
2.7500 1.2500 0.0000
2.7500 1.3214 0.0000
2.7500 1.3929 0.0000
2.7500 1.4643 0.0000
2.7500 1.5357 0.0000
2.7500 1.6071 0.0000
2.7500 1.6786 0.0000
2.7500 1.7500 0.0000
2.7500 1.8214 0.0000
2.7500 1.8929 0.0000
2.7500 1.9643 0.0000
3.2500 1.0357 0.0000
3.2500 1.1071 0.0000
3.2500 1.1786 0.0000
3.2500 1.2500 0.0000
3.2500 1.3214 0.0000
3.2500 1.3929 0.0000
3.2500 1.4643 0.0000
3.2500 1.5357 0.0000
3.2500 1.6071 0.0000
3.2500 1.6786 0.0000
3.2500 1.7500 0.0000
3.2500 1.8214 0.0000
3.2500 1.8929 0.0000
3.2500 1.9643 0.0000
3.7500 1.0357 0.0000
3.7500 1.1071 0.0000
3.7500 1.1786 0.0000
3.7500 1.2500 0.0000
3.7500 1.3214 0.0000
3.7500 1.3929 0.0000
3.7500 1.4643 0.0000
3.7500 1.5357 0.0000
3.7500 1.6071 0.0000
3.7500 1.6786 0.0000
3.7500 1.7500 0.0000
3.7500 1.8214 0.0000
3.7500 1.8929 0.0000
3.7500 1.9643 0.0000
4.2500 1.0357 0.0000
4.2500 1.1071 0.0000
4.2500 1.1786 0.0000
4.2500 1.2500 0.0000
4.2500 1.3214 0.0000
4.2500 1.3929 0.0000
4.2500 1.4643 0.0000
4.2500 1.5357 0.0000
4.2500 1.6071 0.0000
4.2500 1.6786 0.0000
4.2500 1.7500 0.0000
4.2500 1.8214 0.0000
4.2500 1.8929 0.0000
4.2500 1.9643 0.0000
4.7500 1.0357 0.0000
4.7500 1.1071 0.0000
4.7500 1.1786 0.0000
4.7500 1.2500 0.0000
4.7500 1.3214 0.0000
4.7500 1.3929 0.0000
4.7500 1.4643 0.0000
4.7500 1.5357 0.0000
4.7500 1.6071 0.0000
4.7500 1.6786 0.0000
4.7500 1.7500 0.0000
4.7500 1.8214 0.0000
4.7500 1.8929 0.0000
4.7500 1.9643 0.0000
5.2500 1.0357 0.0000
5.2500 1.1071 0.0000
5.2500 1.1786 0.0000
5.2500 1.2500 0.0000
5.2500 1.3214 0.0000
5.2500 1.3929 0.0000
5.2500 1.4643 0.0000
5.2500 1.5357 0.0000
5.2500 1.6071 0.0000
5.2500 1.6786 0.0000
5.2500 1.7500 0.0000
5.2500 1.8214 0.0000
5.2500 1.8929 0.0000
5.2500 1.9643 0.0000
5.7500 1.0357 0.0000
5.7500 1.1071 0.0000
5.7500 1.1786 0.0000
5.7500 1.2500 0.0000
5.7500 1.3214 0.0000
5.7500 1.3929 0.0000
5.7500 1.4643 0.0000
5.7500 1.5357 0.0000
5.7500 1.6071 0.0000
5.7500 1.6786 0.0000
5.7500 1.7500 0.0000
5.7500 1.8214 0.0000
5.7500 1.8929 0.0000
5.7500 1.9643 0.0000
6.2500 1.0357 0.0000
6.2500 1.1071 0.0000
6.2500 1.1786 0.0000
6.2500 1.2500 0.0000
6.2500 1.3214 0.0000
6.2500 1.3929 0.0000
6.2500 1.4643 0.0000
6.2500 1.5357 0.0000
6.2500 1.6071 0.0000
6.2500 1.6786 0.0000
6.2500 1.7500 0.0000
6.2500 1.8214 0.0000
6.2500 1.8929 0.0000
6.2500 1.9643 0.0000
6.7500 1.0357 0.0000
6.7500 1.1071 0.0000
6.7500 1.1786 0.0000
6.7500 1.2500 0.0000
6.7500 1.3214 0.0000
6.7500 1.3929 0.0000
6.7500 1.4643 0.0000
6.7500 1.5357 0.0000
6.7500 1.6071 0.0000
6.7500 1.6786 0.0000
6.7500 1.7500 0.0000
6.7500 1.8214 0.0000
6.7500 1.8929 0.0000
6.7500 1.9643 0.0000</DataArray>
         </Points>
         <Cells>
            <DataArray Name="connectivity" format="ascii" type="Int32">
 1 0 225
 2 1 226
 3 2 227
 4 3 228
 5 4 229
 6 5 230
 7 6 231
 8 7 232
 9 8 233
 10 9 234
 11 10 235
 12 11 236
 13 12 237
 14 13 238
 16 15 239
 17 16 240
 18 17 241
 19 18 242
 20 19 243
 21 20 244
 22 21 245
 23 22 246
 24 23 247
 25 24 248
 26 25 249
 27 26 250
 28 27 251
 29 28 252
 31 30 253
 32 31 254
 33 32 255
 34 33 256
 35 34 257
 36 35 258
 37 36 259
 38 37 260
 39 38 261
 40 39 262
 41 40 263
 42 41 264
 43 42 265
 44 43 266
 46 45 267
 47 46 268
 48 47 269
 49 48 270
 50 49 271
 51 50 272
 52 51 273
 53 52 274
 54 53 275
 55 54 276
 56 55 277
 57 56 278
 58 57 279
 59 58 280
 61 60 281
 62 61 282
 63 62 283
 64 63 284
 65 64 285
 66 65 286
 67 66 287
 68 67 288
 69 68 289
 70 69 290
 71 70 291
 72 71 292
 73 72 293
[...]
         <PointData>
            <DataArray Name="fValues" NumberOfComponents="3" format="ascii" type="Float64">
 2.21015e-17 -4.66043e-16        00000 
 1.46104e-16  3.37866e-16        00000 
-2.34361e-16 -1.51734e-16        00000 
 1.02683e-16 -3.88835e-17        00000 
-3.12481e-16  1.20185e-16        00000 
 2.64956e-16 -1.53878e-16        00000 
 2.16333e-16  2.34361e-16        00000 
 2.61237e-16 -2.43494e-16        00000 
-4.80741e-17  3.12481e-16        00000 
-5.21306e-17 -1.60548e-16        00000 
 1.92296e-16 -3.60556e-17        00000 
 1.05703e-17  1.35903e-16        00000 
 2.40370e-16 -2.40370e-16        00000 
-1.45845e-16  3.88919e-16        00000 
 4.18037e-16  2.99623e-17        00000 
-2.02289e-02  1.16265e-01        00000 
 5.31690e-01  1.20239e-01        00000 
 9.95136e-01  1.18060e-01        00000 
 1.18335e+00 -7.75799e-02        00000 
 1.45027e+00 -2.62104e-01        00000 
 1.90971e+00 -4.39180e-01        00000 
 2.06792e+00 -6.82746e-01        00000 
 2.25592e+00 -1.04016e+00        00000 
 2.22053e+00 -1.35936e+00        00000 
 2.30863e+00 -1.48769e+00        00000 
 2.29939e+00 -1.74772e+00        00000 
 2.10706e+00 -2.11678e+00        00000 
 2.11340e+00 -2.43970e+00        00000 
 2.39751e+00 -2.67011e+00        00000 
 2.85671e+00 -2.91715e+00        00000 
-3.55093e-02 -7.87431e+00        00000 
 1.06502e+00 -7.92787e+00        00000 
 1.92280e+00 -7.86666e+00        00000 
 2.73368e+00 -7.92457e+00        00000 
 3.43630e+00 -8.01188e+00        00000 
 4.26884e+00 -8.20183e+00        00000 
 4.83079e+00 -8.41628e+00        00000 
 5.32175e+00 -8.68712e+00        00000 
 5.72242e+00 -8.94640e+00        00000 
 5.79688e+00 -9.29120e+00        00000 
 5.91893e+00 -9.59915e+00        00000 
 6.07534e+00 -9.88224e+00        00000 
 6.26463e+00 -1.01434e+01        00000 
 6.53574e+00 -1.03853e+01        00000 
 7.17287e+00 -1.05994e+01        00000 
-5.23781e-01 -1.76088e+01        00000 
 7.52004e-01 -1.75968e+01        00000 
 1.67728e+00 -1.75399e+01        00000 
 2.58148e+00 -1.75311e+01        00000 
 3.69341e+00 -1.74930e+01        00000 
 4.68689e+00 -1.75227e+01        00000 
 5.88320e+00 -1.75227e+01        00000 
 6.48195e+00 -1.74764e+01        00000 
 7.23576e+00 -1.76312e+01        00000 
 7.68753e+00 -1.79056e+01        00000 
 7.94202e+00 -1.81100e+01        00000 
 8.36294e+00 -1.83920e+01        00000 
 8.64585e+00 -1.87632e+01        00000 
 9.28841e+00 -1.91157e+01        00000 
 9.89740e+00 -1.93408e+01        00000 
-2.28772e+00 -2.59964e+01        00000 
-1.15908e+00 -2.58611e+01        00000 
 5.59800e-02 -2.56608e+01        00000 
 1.12409e+00 -2.55746e+01        00000 
 2.31437e+00 -2.54684e+01        00000 
 3.31622e+00 -2.52550e+01        00000 
 4.21288e+00 -2.49869e+01        00000 
 5.44070e+00 -2.48596e+01        00000 
 6.70107e+00 -2.46355e+01        00000 
 7.95934e+00 -2.43671e+01        00000 
 9.32106e+00 -2.41742e+01        00000 
 1.04081e+01 -2.41177e+01        00000 
 1.15568e+01 -2.41197e+01        00000 
 1.23437e+01 -2.41367e+01        00000 
 1.31431e+01 -2.42901e+01        00000 
-1.64854e+00 -3.43991e+01        00000 
-6.99348e-01 -3.44793e+01        00000 
 1.41281e-02 -3.45939e+01        00000 
 1.00449e+00 -3.45928e+01        00000 
 1.93447e+00 -3.46427e+01        00000 
 3.04925e+00 -3.45920e+01        00000 
 4.20374e+00 -3.45787e+01        00000 
 5.56227e+00 -3.45472e+01        00000 
 6.72292e+00 -3.45117e+01        00000 
 7.95435e+00 -3.45208e+01        00000 
 9.45102e+00 -3.45614e+01        00000 
 1.09008e+01 -3.45149e+01        00000 
 1.23767e+01 -3.43139e+01        00000 
 1.39197e+01 -3.42090e+01        00000 
 1.54589e+01 -3.41321e+01        00000 
 5.74278e-01 -4.27505e+01        00000 
 1.51794e+00 -4.29824e+01        00000 
 2.54928e+00 -4.33045e+01        00000 
 3.44515e+00 -4.35481e+01        00000 
 4.15561e+00 -4.38930e+01        00000 
 4.87741e+00 -4.40558e+01        00000 
 5.61070e+00 -4.41582e+01        00000 
 6.38088e+00 -4.42515e+01        00000 
 7.09697e+00 -4.43071e+01        00000 
 8.11107e+00 -4.43244e+01        00000 
 9.21942e+00 -4.42957e+01        00000 
 1.01193e+01 -4.42678e+01        00000 
 1.13726e+01 -4.41604e+01        00000 
 1.27031e+01 -4.40534e+01        00000 
 1.35762e+01 -4.39600e+01        00000 
 4.79414e+00 -4.99604e+01        00000 
 5.69441e+00 -5.01321e+01        00000 
 6.45615e+00 -5.05385e+01        00000 
 7.15498e+00 -5.08336e+01        00000 
 7.61411e+00 -5.09639e+01        00000 
 7.67328e+00 -5.09891e+01        00000 
 8.14230e+00 -5.09993e+01        00000 
 8.61242e+00 -5.08971e+01        00000 
 8.89159e+00 -5.08777e+01        00000 
 9.68115e+00 -5.10408e+01        00000 
 1.04827e+01 -5.11293e+01        00000 
 1.13566e+01 -5.11190e+01        00000 
 1.21813e+01 -5.12007e+01        00000 
 1.27124e+01 -5.11564e+01        00000 
 1.32618e+01 -5.11015e+01        00000 
 6.05079e+00 -5.59883e+01        00000 
 7.03617e+00 -5.61872e+01        00000 
 7.44243e+00 -5.62531e+01        00000 
 7.70307e+00 -5.62482e+01        00000 
 8.08864e+00 -5.62684e+01        00000 
 8.57770e+00 -5.62929e+01        00000 
 9.08544e+00 -5.61524e+01        00000 
 9.51261e+00 -5.59619e+01        00000 
 1.01512e+01 -5.58901e+01        00000 
 1.07422e+01 -5.56672e+01        00000 
 1.13293e+01 -5.54844e+01        00000 
 1.22853e+01 -5.54698e+01        00000 
 1.35146e+01 -5.54630e+01        00000 
 1.46691e+01 -5.54498e+01        00000 
 1.58955e+01 -5.55147e+01        00000 
 8.86811e+00 -6.12095e+01        00000 
 9.11356e+00 -6.11754e+01        00000 
 9.25310e+00 -6.11466e+01        00000 
 9.19778e+00 -6.12301e+01        00000 
 9.36249e+00 -6.12534e+01        00000 
 9.43651e+00 -6.14249e+01        00000 
 9.23426e+00 -6.16812e+01        00000 
 9.55425e+00 -6.18764e+01        00000 
 1.01514e+01 -6.18984e+01        00000 
 1.04971e+01 -6.18863e+01        00000 
 1.11489e+01 -6.18866e+01        00000 
 1.17263e+01 -6.19141e+01        00000 
 1.20591e+01 -6.20110e+01        00000 
 1.27803e+01 -6.19611e+01        00000 
 1.36521e+01 -6.18415e+01        00000 
 7.50296e+00 -6.34783e+01        00000 
 7.71149e+00 -6.33642e+01        00000 
 7.69011e+00 -6.33202e+01        00000 
 7.84510e+00 -6.34177e+01        00000 
 7.92417e+00 -6.34703e+01        00000 
 8.13832e+00 -6.35919e+01        00000 
 8.50375e+00 -6.38465e+01        00000 
 8.61526e+00 -6.40555e+01        00000 
 8.69409e+00 -6.43832e+01        00000 
 9.04762e+00 -6.46436e+01        00000 
 9.42567e+00 -6.48036e+01        00000 
 9.64680e+00 -6.47787e+01        00000 
 9.70645e+00 -6.47183e+01        00000 
 9.62925e+00 -6.45437e+01        00000 
 9.49277e+00 -6.43557e+01        00000 
 5.18478e+00 -6.55168e+01        00000 
 5.48949e+00 -6.53690e+01        00000 
 5.90326e+00 -6.51643e+01        00000 
 6.12277e+00 -6.50790e+01        00000 
 6.22665e+00 -6.49123e+01        00000 
 6.00320e+00 -6.46587e+01        00000 
 6.01240e+00 -6.42228e+01        00000 
 6.06418e+00 -6.38683e+01        00000 
 6.19352e+00 -6.34950e+01        00000 
 5.71997e+00 -6.30693e+01        00000 
 5.05841e+00 -6.27118e+01        00000 
 4.80769e+00 -6.23911e+01        00000 
 4.90817e+00 -6.21040e+01        00000 
 4.54332e+00 -6.18494e+01        00000 
 4.36368e+00 -6.16225e+01        00000 
 1.80538e+00 -6.53401e+01        00000 
 1.58223e+00 -6.49666e+01        00000 
 1.59723e+00 -6.45313e+01        00000 
 1.65266e+00 -6.40877e+01        00000 
 1.53532e+00 -6.36005e+01        00000 
 1.55589e+00 -6.33619e+01        00000 
 1.45632e+00 -6.32520e+01        00000 
 4.68559e-01 -6.31106e+01        00000 
-2.12340e-01 -6.28766e+01        00000 
-2.46090e-02 -6.27136e+01        00000 
 1.94554e-01 -6.25159e+01        00000 
-4.69411e-02 -6.22227e+01        00000 
-1.66383e-01 -6.20652e+01        00000 
 1.98930e-01 -6.19823e+01        00000 
 5.00040e-01 -6.15769e+01        00000 
-2.76276e+00 -6.46339e+01        00000 
-2.59093e+00 -6.45060e+01        00000 
-2.80216e+00 -6.43444e+01        00000 
-2.72522e+00 -6.40022e+01        00000 
-2.60731e+00 -6.36492e+01        00000 
-2.69625e+00 -6.34548e+01        00000 
-2.85216e+00 -6.32724e+01        00000 
-2.90003e+00 -6.30959e+01        00000 
-3.06929e+00 -6.29664e+01        00000 
-3.93734e+00 -6.28532e+01        00000 
-4.87372e+00 -6.27757e+01        00000 
-5.29233e+00 -6.28269e+01        00000 
-5.56743e+00 -6.27581e+01        00000 
-5.96226e+00 -6.28199e+01        00000 
-6.14103e+00 -6.26717e+01        00000 
-1.85782e+00 -6.23720e+01        00000 
-3.00617e+00 -6.24960e+01        00000 
-3.70077e+00 -6.24777e+01        00000 
-4.71911e+00 -6.29548e+01        00000 
-5.34909e+00 -6.34501e+01        00000 
-5.46262e+00 -6.34053e+01        00000 
-5.81177e+00 -6.30784e+01        00000 
-5.39277e+00 -6.28088e+01        00000 
-4.77651e+00 -6.24563e+01        00000 
-4.87369e+00 -6.23168e+01        00000 
-5.26121e+00 -6.19645e+01        00000 
-6.39996e+00 -6.12493e+01        00000 
-7.29329e+00 -6.07750e+01        00000 
-7.03366e+00 -6.04907e+01        00000 
-7.24843e+00 -6.04796e+01        00000 
 7.43822e-02  5.61231e-02        00000 
 4.04444e-01  8.33658e-02        00000 
 5.04420e-01  3.61711e-02        00000 
 6.86389e-01 -5.86282e-02        00000 
 7.42274e-01 -1.91153e-01        00000 
 8.90248e-01 -2.33467e-01        00000 
 1.07985e+00 -4.08075e-01        00000 
 1.04030e+00 -6.12417e-01        00000 
 1.10082e+00 -6.77978e-01        00000 
 1.06331e+00 -7.95395e-01        00000 
 9.73857e-01 -9.79708e-01        00000 
 1.00913e+00 -1.11010e+00        00000 
 9.41908e-01 -1.30186e+00        00000 
 1.26326e+00 -1.37925e+00        00000 
 3.07734e-01 -3.86610e+00        00000 
 1.06267e+00 -3.86112e+00        00000 
 1.74406e+00 -3.93514e+00        00000 
 2.25904e+00 -4.07145e+00        00000 
 2.76119e+00 -4.20619e+00        00000 
 3.25054e+00 -4.39850e+00        00000 
 3.72324e+00 -4.68006e+00        00000 
 3.98424e+00 -5.02948e+00        00000 
 4.05861e+00 -5.27900e+00        00000 
 3.96344e+00 -5.47815e+00        00000 
 4.00451e+00 -5.85791e+00        00000 
 4.24416e+00 -6.15809e+00        00000 
 4.21664e+00 -6.41718e+00        00000 
 4.52305e+00 -6.66417e+00        00000 
 3.61461e-01 -1.27038e+01        00000 
 1.41115e+00 -1.27269e+01        00000 
 2.33285e+00 -1.27311e+01        00000 
 3.19230e+00 -1.27025e+01        00000 
 3.99017e+00 -1.27886e+01        00000 
 5.03640e+00 -1.28849e+01        00000 
 5.70151e+00 -1.30628e+01        00000 
 6.17188e+00 -1.31784e+01        00000 
 6.65302e+00 -1.34320e+01        00000 
 6.90030e+00 -1.37277e+01        00000 
 7.19169e+00 -1.39675e+01        00000 
 7.40376e+00 -1.43318e+01        00000 
 7.62645e+00 -1.46165e+01        00000 
 8.13296e+00 -1.49272e+01        00000 
-8.53414e-01 -2.17679e+01        00000 
 3.47195e-01 -2.16645e+01        00000 
 1.30588e+00 -2.16013e+01        00000 
 2.58012e+00 -2.15285e+01        00000 
 3.47362e+00 -2.14624e+01        00000 
 4.44777e+00 -2.13058e+01        00000 
 5.65991e+00 -2.11709e+01        00000 
 6.58825e+00 -2.11154e+01        00000 
 7.37151e+00 -2.11124e+01        00000 
 8.31562e+00 -2.11071e+01        00000 
 9.04938e+00 -2.11758e+01        00000 
 9.80402e+00 -2.13020e+01        00000 
 1.03804e+01 -2.16074e+01        00000 
 1.10686e+01 -2.17074e+01        00000 
-1.50063e+00 -3.01676e+01        00000 
-6.05860e-01 -3.01347e+01        00000 
 6.24442e-01 -3.00942e+01        00000 
 1.48705e+00 -3.01120e+01        00000 
 2.52341e+00 -2.99924e+01        00000 
 3.66129e+00 -2.98085e+01        00000 
 4.88104e+00 -2.97149e+01        00000 
 5.95246e+00 -2.96547e+01        00000 
 7.19645e+00 -2.95293e+01        00000 
 8.83241e+00 -2.93466e+01        00000 
 9.93213e+00 -2.93727e+01        00000 
 1.12990e+01 -2.92605e+01        00000 
 1.26424e+01 -2.91994e+01        00000 
 1.37828e+01 -2.91448e+01        00000 
-6.38907e-02 -3.86534e+01        00000 
 7.68397e-01 -3.88263e+01        00000 
 1.72214e+00 -3.90230e+01        00000 
 2.62147e+00 -3.91431e+01        00000 
 3.36216e+00 -3.93345e+01        00000 
 4.47908e+00 -3.93111e+01        00000 
 5.57888e+00 -3.94400e+01        00000 
 6.37283e+00 -3.94327e+01        00000 
 7.45295e+00 -3.94162e+01        00000 
 8.61564e+00 -3.94107e+01        00000 
 1.00303e+01 -3.94282e+01        00000 
 1.11319e+01 -3.93524e+01        00000 
 1.26182e+01 -3.91811e+01        00000 
 1.38545e+01 -3.90999e+01        00000 
 3.14048e+00 -4.64778e+01        00000 
 4.05366e+00 -4.67155e+01        00000 
 4.98857e+00 -4.70835e+01        00000 
 5.79668e+00 -4.73826e+01        00000 
 6.05424e+00 -4.75359e+01        00000 
 6.50773e+00 -4.75588e+01        00000 
 7.09931e+00 -4.75799e+01        00000 
 7.74899e+00 -4.74746e+01        00000 
 8.44785e+00 -4.76941e+01        00000 
 9.34775e+00 -4.77048e+01        00000 
 1.01841e+01 -4.77172e+01        00000 
 1.11984e+01 -4.76577e+01        00000 
 1.22966e+01 -4.77190e+01        00000 
 1.30548e+01 -4.75796e+01        00000 
 6.05585e+00 -5.30627e+01        00000 
 6.66387e+00 -5.32979e+01        00000 
 7.29451e+00 -5.34398e+01        00000 
 7.61112e+00 -5.35727e+01        00000 
 7.90497e+00 -5.36386e+01        00000 
 8.42602e+00 -5.36487e+01        00000 
 8.97014e+00 -5.34862e+01        00000 
 9.19571e+00 -5.33930e+01        00000 
 9.80456e+00 -5.33678e+01        00000 
 1.05450e+01 -5.33856e+01        00000 
 1.12176e+01 -5.32754e+01        00000 
 1.22715e+01 -5.32938e+01        00000 
 1.33220e+01 -5.33160e+01        00000 
 1.42372e+01 -5.32835e+01        00000 
 7.83083e+00 -5.86738e+01        00000 
 8.31573e+00 -5.87202e+01        00000 
 8.44523e+00 -5.87231e+01        00000 
 8.54791e+00 -5.87396e+01        00000 
 8.89744e+00 -5.88148e+01        00000 
 9.08010e+00 -5.89295e+01        00000 
 9.24889e+00 -5.89335e+01        00000 
 9.80559e+00 -5.89537e+01        00000 
 1.04152e+01 -5.88361e+01        00000 
 1.09866e+01 -5.87099e+01        00000 
 1.16760e+01 -5.86892e+01        00000 
 1.24711e+01 -5.87122e+01        00000 
 1.32608e+01 -5.87143e+01        00000 
 1.42779e+01 -5.87508e+01        00000 
 8.33084e+00 -6.22894e+01        00000 
 8.41844e+00 -6.22662e+01        00000 
 8.63427e+00 -6.22441e+01        00000 
 8.59521e+00 -6.23566e+01        00000 
 8.70351e+00 -6.24454e+01        00000 
 8.92251e+00 -6.26235e+01        00000 
 9.05671e+00 -6.29086e+01        00000 
 9.18833e+00 -6.30122e+01        00000 
 9.50465e+00 -6.32121e+01        00000 
 1.01226e+01 -6.33652e+01        00000 
 1.06480e+01 -6.33452e+01        00000 
 1.08759e+01 -6.33386e+01        00000 
 1.11431e+01 -6.33404e+01        00000 
 1.13894e+01 -6.32140e+01        00000 
 6.60569e+00 -6.44044e+01        00000 
 6.72273e+00 -6.42694e+01        00000 
 6.88089e+00 -6.42523e+01        00000 
 7.12063e+00 -6.41921e+01        00000 
 7.10964e+00 -6.41623e+01        00000 
 7.12317e+00 -6.40836e+01        00000 
 7.33514e+00 -6.40476e+01        00000 
 7.55554e+00 -6.39515e+01        00000 
 7.56920e+00 -6.39432e+01        00000 
 7.34601e+00 -6.38562e+01        00000 
 7.29513e+00 -6.37050e+01        00000 
 7.25878e+00 -6.35209e+01        00000 
 7.28803e+00 -6.32833e+01        00000 
 6.89762e+00 -6.30574e+01        00000 
 3.49537e+00 -6.53284e+01        00000 
 3.73765e+00 -6.49620e+01        00000 
 3.86903e+00 -6.47735e+01        00000 
 3.89774e+00 -6.44509e+01        00000 
 3.91283e+00 -6.40417e+01        00000 
 3.74208e+00 -6.39004e+01        00000 
 3.44923e+00 -6.36599e+01        00000 
 3.22117e+00 -6.33178e+01        00000 
 2.83347e+00 -6.30373e+01        00000 
 2.57529e+00 -6.27116e+01        00000 
 2.42023e+00 -6.24108e+01        00000 
 2.40402e+00 -6.22143e+01        00000 
 2.38046e+00 -6.19692e+01        00000 
 2.26020e+00 -6.17335e+01        00000 
-4.50502e-01 -6.48472e+01        00000 
-6.39172e-01 -6.45799e+01        00000 
-6.36839e-01 -6.42860e+01        00000 
-5.28811e-01 -6.37769e+01        00000 
-4.34624e-01 -6.34510e+01        00000 
-7.41138e-01 -6.34001e+01        00000 
-9.86620e-01 -6.31828e+01        00000 
-1.35679e+00 -6.29207e+01        00000 
-1.83854e+00 -6.29005e+01        00000 
-2.30193e+00 -6.27559e+01        00000 
-2.53193e+00 -6.24874e+01        00000 
-2.75856e+00 -6.24707e+01        00000 
-3.00349e+00 -6.24276e+01        00000 
-3.07682e+00 -6.22589e+01        00000 
-2.54307e+00 -6.35502e+01        00000 
-3.11394e+00 -6.34051e+01        00000 
-3.58790e+00 -6.34834e+01        00000 
-3.91813e+00 -6.35443e+01        00000 
-4.10084e+00 -6.34443e+01        00000 
-4.22646e+00 -6.32926e+01        00000 
-4.31114e+00 -6.31037e+01        00000 
-3.94139e+00 -6.27752e+01        00000 
-4.13282e+00 -6.26847e+01        00000 
-4.82834e+00 -6.24271e+01        00000 
-5.50515e+00 -6.22566e+01        00000 
-6.11023e+00 -6.19118e+01        00000 
-6.42238e+00 -6.16770e+01        00000 
-6.76426e+00 -6.15703e+01        00000 </DataArray>
         </PointData>
         <CellData/>
      </Piece>
   </UnstructuredGrid>
</VTKFile>