<?xml version="1.0" encoding="utf-8"?>
<VTKFile byte_order="LittleEndian" type="UnstructuredGrid" version="0.1">
   <UnstructuredGrid>
      <Piece NumberOfCells="1248" NumberOfPoints="708">
         <Points>
            <DataArray Name="Points" NumberOfComponents="3" format="ascii" type="Float32">
0.0000 0.0526 0.0000
0.0000 0.1053 0.0000
0.0000 0.1579 0.0000
0.0000 0.2105 0.0000
0.0000 0.2632 0.0000
0.0000 0.3158 0.0000
0.0000 0.3684 0.0000
0.0000 0.4211 0.0000
0.0000 0.4737 0.0000
0.0000 0.5263 0.0000
0.0000 0.5789 0.0000
0.0000 0.6316 0.0000
0.0000 0.6842 0.0000
0.0000 0.7368 0.0000
0.0000 0.7895 0.0000
0.0000 0.8421 0.0000
0.0000 0.8947 0.0000
0.0000 0.9474 0.0000
0.0000 1.0000 0.0000
0.0526 0.0526 0.0000
0.0526 0.1053 0.0000
0.0526 0.1579 0.0000
0.0526 0.2105 0.0000
0.0526 0.2632 0.0000
0.0526 0.3158 0.0000
0.0526 0.3684 0.0000
0.0526 0.4211 0.0000
0.0526 0.4737 0.0000
0.0526 0.5263 0.0000
0.0526 0.5789 0.0000
0.0526 0.6316 0.0000
0.0526 0.6842 0.0000
0.0526 0.7368 0.0000
0.0526 0.7895 0.0000
0.0526 0.8421 0.0000
0.0526 0.8947 0.0000
0.0526 0.9474 0.0000
0.0526 1.0000 0.0000
0.1053 0.0526 0.0000
0.1053 0.1053 0.0000
0.1053 0.1579 0.0000
0.1053 0.2105 0.0000
0.1053 0.2632 0.0000
0.1053 0.3158 0.0000
0.1053 0.3684 0.0000
0.1053 0.4211 0.0000
0.1053 0.4737 0.0000
0.1053 0.5263 0.0000
0.1053 0.5789 0.0000
0.1053 0.6316 0.0000
0.1053 0.6842 0.0000
0.1053 0.7368 0.0000
0.1053 0.7895 0.0000
0.1053 0.8421 0.0000
0.1053 0.8947 0.0000
0.1053 0.9474 0.0000
0.1053 1.0000 0.0000
0.1579 0.0526 0.0000
0.1579 0.1053 0.0000
0.1579 0.1579 0.0000
0.1579 0.2105 0.0000
0.1579 0.2632 0.0000
0.1579 0.3158 0.0000
0.1579 0.3684 0.0000
0.1579 0.4211 0.0000
0.1579 0.4737 0.0000
0.1579 0.5263 0.0000
0.1579 0.5789 0.0000
0.1579 0.6316 0.0000
0.1579 0.6842 0.0000
0.1579 0.7368 0.0000
0.1579 0.7895 0.0000
0.1579 0.8421 0.0000
0.1579 0.8947 0.0000
0.1579 0.9474 0.0000
0.1579 1.0000 0.0000
0.2105 0.0526 0.0000
0.2105 0.1053 0.0000
0.2105 0.1579 0.0000
0.2105 0.2105 0.0000
0.2105 0.2632 0.0000
0.2105 0.3158 0.0000
0.2105 0.3684 0.0000
0.2105 0.4211 0.0000
0.2105 0.4737 0.0000
0.2105 0.5263 0.0000
0.2105 0.5789 0.0000
0.2105 0.6316 0.0000
0.2105 0.6842 0.0000
0.2105 0.7368 0.0000
0.2105 0.7895 0.0000
0.2105 0.8421 0.0000
0.2105 0.8947 0.0000
0.2105 0.9474 0.0000
0.2105 1.0000 0.0000
0.2632 0.0526 0.0000
0.2632 0.1053 0.0000
0.2632 0.1579 0.0000
0.2632 0.2105 0.0000
0.2632 0.2632 0.0000
0.2632 0.3158 0.0000
0.2632 0.3684 0.0000
0.2632 0.6842 0.0000
0.2632 0.7368 0.0000
0.2632 0.7895 0.0000
0.2632 0.8421 0.0000
0.2632 0.8947 0.0000
0.2632 0.9474 0.0000
0.2632 1.0000 0.0000
0.3158 0.0526 0.0000
0.3158 0.1053 0.0000
0.3158 0.1579 0.0000
0.3158 0.2105 0.0000
0.3158 0.2632 0.0000
0.3158 0.3158 0.0000
0.3158 0.7368 0.0000
0.3158 0.7895 0.0000
0.3158 0.8421 0.0000
0.3158 0.8947 0.0000
0.3158 0.9474 0.0000
0.3158 1.0000 0.0000
0.3684 0.0526 0.0000
0.3684 0.1053 0.0000
0.3684 0.1579 0.0000
0.3684 0.2105 0.0000
0.3684 0.2632 0.0000
0.3684 0.7895 0.0000
0.3684 0.8421 0.0000
0.3684 0.8947 0.0000
0.3684 0.9474 0.0000
0.3684 1.0000 0.0000
0.4211 0.0526 0.0000
0.4211 0.1053 0.0000
0.4211 0.1579 0.0000
0.4211 0.2105 0.0000
0.4211 0.8421 0.0000
0.4211 0.8947 0.0000
0.4211 0.9474 0.0000
0.4211 1.0000 0.0000
0.4737 0.0526 0.0000
0.4737 0.1053 0.0000
0.4737 0.1579 0.0000
0.4737 0.2105 0.0000
0.4737 0.8421 0.0000
0.4737 0.8947 0.0000
0.4737 0.9474 0.0000
0.4737 1.0000 0.0000
0.5263 0.0526 0.0000
0.5263 0.1053 0.0000
0.5263 0.1579 0.0000
0.5263 0.2105 0.0000
0.5263 0.8421 0.0000
0.5263 0.8947 0.0000
0.5263 0.9474 0.0000
0.5263 1.0000 0.0000
0.5789 0.0526 0.0000
0.5789 0.1053 0.0000
0.5789 0.1579 0.0000
0.5789 0.2105 0.0000
0.5789 0.8421 0.0000
0.5789 0.8947 0.0000
0.5789 0.9474 0.0000
0.5789 1.0000 0.0000
0.6316 0.0526 0.0000
0.6316 0.1053 0.0000
0.6316 0.1579 0.0000
0.6316 0.2105 0.0000
0.6316 0.2632 0.0000
0.6316 0.7895 0.0000
0.6316 0.8421 0.0000
0.6316 0.8947 0.0000
0.6316 0.9474 0.0000
0.6316 1.0000 0.0000
0.6842 0.0526 0.0000
0.6842 0.1053 0.0000
0.6842 0.1579 0.0000
0.6842 0.2105 0.0000
0.6842 0.2632 0.0000
0.6842 0.3158 0.0000
0.6842 0.7368 0.0000
0.6842 0.7895 0.0000
0.6842 0.8421 0.0000
0.6842 0.8947 0.0000
0.6842 0.9474 0.0000
0.6842 1.0000 0.0000
0.7368 0.0526 0.0000
0.7368 0.1053 0.0000
0.7368 0.1579 0.0000
0.7368 0.2105 0.0000
0.7368 0.2632 0.0000
0.7368 0.3158 0.0000
0.7368 0.3684 0.0000
0.7368 0.6842 0.0000
0.7368 0.7368 0.0000
0.7368 0.7895 0.0000
0.7368 0.8421 0.0000
0.7368 0.8947 0.0000
0.7368 0.9474 0.0000
0.7368 1.0000 0.0000
0.7895 0.0526 0.0000
0.7895 0.1053 0.0000
0.7895 0.1579 0.0000
0.7895 0.2105 0.0000
0.7895 0.2632 0.0000
0.7895 0.3158 0.0000
0.7895 0.3684 0.0000
0.7895 0.4211 0.0000
0.7895 0.4737 0.0000
0.7895 0.5263 0.0000
0.7895 0.5789 0.0000
0.7895 0.6316 0.0000
0.7895 0.6842 0.0000
0.7895 0.7368 0.0000
0.7895 0.7895 0.0000
0.7895 0.8421 0.0000
0.7895 0.8947 0.0000
0.7895 0.9474 0.0000
0.7895 1.0000 0.0000
0.8421 0.0526 0.0000
0.8421 0.1053 0.0000
0.8421 0.1579 0.0000
0.8421 0.2105 0.0000
0.8421 0.2632 0.0000
0.8421 0.3158 0.0000
0.8421 0.3684 0.0000
0.8421 0.4211 0.0000
0.8421 0.4737 0.0000
0.8421 0.5263 0.0000
0.8421 0.5789 0.0000
0.8421 0.6316 0.0000
0.8421 0.6842 0.0000
0.8421 0.7368 0.0000
0.8421 0.7895 0.0000
0.8421 0.8421 0.0000
0.8421 0.8947 0.0000
0.8421 0.9474 0.0000
0.8421 1.0000 0.0000
0.8947 0.0526 0.0000
0.8947 0.1053 0.0000
0.8947 0.1579 0.0000
0.8947 0.2105 0.0000
0.8947 0.2632 0.0000
0.8947 0.3158 0.0000
0.8947 0.3684 0.0000
0.8947 0.4211 0.0000
0.8947 0.4737 0.0000
0.8947 0.5263 0.0000
0.8947 0.5789 0.0000
0.8947 0.6316 0.0000
0.8947 0.6842 0.0000
0.8947 0.7368 0.0000
0.8947 0.7895 0.0000
0.8947 0.8421 0.0000
0.8947 0.8947 0.0000
0.8947 0.9474 0.0000
0.8947 1.0000 0.0000
0.9474 0.0526 0.0000
0.9474 0.1053 0.0000
0.9474 0.1579 0.0000
0.9474 0.2105 0.0000
0.9474 0.2632 0.0000
0.9474 0.3158 0.0000
0.9474 0.3684 0.0000
0.9474 0.4211 0.0000
0.9474 0.4737 0.0000
0.9474 0.5263 0.0000
0.9474 0.5789 0.0000
0.9474 0.6316 0.0000
0.9474 0.6842 0.0000
0.9474 0.7368 0.0000
0.9474 0.7895 0.0000
0.9474 0.8421 0.0000
0.9474 0.8947 0.0000
0.9474 0.9474 0.0000
0.9474 1.0000 0.0000
0.2632 0.6316 0.0000
0.3158 0.6842 0.0000
0.3684 0.7368 0.0000
0.4211 0.7895 0.0000
0.4737 0.7895 0.0000
0.5263 0.7895 0.0000
0.5789 0.7895 0.0000
1.0000 0.0526 0.0000
1.0000 0.1053 0.0000
1.0000 0.1579 0.0000
1.0000 0.2105 0.0000
1.0000 0.2632 0.0000
1.0000 0.3158 0.0000
1.0000 0.3684 0.0000
1.0000 0.4211 0.0000
1.0000 0.4737 0.0000
1.0000 0.5263 0.0000
1.0000 0.5789 0.0000
1.0000 0.6316 0.0000
1.0000 0.6842 0.0000
1.0000 0.7368 0.0000
1.0000 0.7895 0.0000
1.0000 0.8421 0.0000
1.0000 0.8947 0.0000
1.0000 0.9474 0.0000
1.0000 1.0000 0.0000
0.0526 0.0000 0.0000
0.1053 0.0000 0.0000
0.1579 0.0000 0.0000
0.2105 0.0000 0.0000
0.2632 0.0000 0.0000
0.3158 0.0000 0.0000
0.3684 0.0000 0.0000
0.4211 0.0000 0.0000
0.4737 0.0000 0.0000
0.5263 0.0000 0.0000
0.5789 0.0000 0.0000
0.6316 0.0000 0.0000
0.6316 0.7368 0.0000
0.6842 0.0000 0.0000
0.6842 0.6842 0.0000
0.7368 0.0000 0.0000
0.7368 0.6316 0.0000
0.7895 0.0000 0.0000
0.8421 0.0000 0.0000
0.8947 0.0000 0.0000
0.9474 0.0000 0.0000
1.0000 0.0000 0.0000
0.0000 0.0000 0.0000
0.0263 0.0263 0.0000
0.0263 0.0789 0.0000
0.0263 0.1316 0.0000
0.0263 0.1842 0.0000
0.0263 0.2368 0.0000
0.0263 0.2895 0.0000
0.0263 0.3421 0.0000
0.0263 0.3947 0.0000
0.0263 0.4474 0.0000
0.0263 0.5000 0.0000
0.0263 0.5526 0.0000
0.0263 0.6053 0.0000
0.0263 0.6579 0.0000
0.0263 0.7105 0.0000
0.0263 0.7632 0.0000
0.0263 0.8158 0.0000
0.0263 0.8684 0.0000
0.0263 0.9211 0.0000
0.0263 0.9737 0.0000
0.0789 0.0263 0.0000
0.0789 0.0789 0.0000
0.0789 0.1316 0.0000
0.0789 0.1842 0.0000
0.0789 0.2368 0.0000
0.0789 0.2895 0.0000
0.0789 0.3421 0.0000
0.0789 0.3947 0.0000
0.0789 0.4474 0.0000
0.0789 0.5000 0.0000
0.0789 0.5526 0.0000
0.0789 0.6053 0.0000
0.0789 0.6579 0.0000
0.0789 0.7105 0.0000
0.0789 0.7632 0.0000
0.0789 0.8158 0.0000
0.0789 0.8684 0.0000
0.0789 0.9211 0.0000
0.0789 0.9737 0.0000
0.1316 0.0263 0.0000
0.1316 0.0789 0.0000
0.1316 0.1316 0.0000
0.1316 0.1842 0.0000
0.1316 0.2368 0.0000
0.1316 0.2895 0.0000
0.1316 0.3421 0.0000
0.1316 0.3947 0.0000
0.1316 0.4474 0.0000
0.1316 0.5000 0.0000
0.1316 0.5526 0.0000
0.1316 0.6053 0.0000
0.1316 0.6579 0.0000
0.1316 0.7105 0.0000
0.1316 0.7632 0.0000
0.1316 0.8158 0.0000
0.1316 0.8684 0.0000
0.1316 0.9211 0.0000
0.1316 0.9737 0.0000
0.1842 0.0263 0.0000
0.1842 0.0789 0.0000
0.1842 0.1316 0.0000
0.1842 0.1842 0.0000
0.1842 0.2368 0.0000
0.1842 0.2895 0.0000
0.1842 0.3421 0.0000
0.1842 0.3947 0.0000
0.1842 0.4474 0.0000
0.1842 0.5000 0.0000
0.1842 0.5526 0.0000
0.1842 0.6053 0.0000
0.1842 0.6579 0.0000
0.1842 0.7105 0.0000
0.1842 0.7632 0.0000
0.1842 0.8158 0.0000
0.1842 0.8684 0.0000
0.1842 0.9211 0.0000
0.1842 0.9737 0.0000
0.2368 0.0263 0.0000
0.2368 0.0789 0.0000
0.2368 0.1316 0.0000
0.2368 0.1842 0.0000
0.2368 0.2368 0.0000
0.2368 0.2895 0.0000
0.2368 0.3421 0.0000
0.2368 0.3947 0.0000
0.2368 0.4474 0.0000
0.2368 0.5000 0.0000
0.2368 0.5526 0.0000
0.2368 0.6053 0.0000
0.2368 0.6579 0.0000
0.2368 0.7105 0.0000
0.2368 0.7632 0.0000
0.2368 0.8158 0.0000
0.2368 0.8684 0.0000
0.2368 0.9211 0.0000
0.2368 0.9737 0.0000
0.2895 0.0263 0.0000
0.2895 0.0789 0.0000
0.2895 0.1316 0.0000
0.2895 0.1842 0.0000
0.2895 0.2368 0.0000
0.2895 0.2895 0.0000
0.2895 0.3421 0.0000
0.2895 0.6579 0.0000
0.2895 0.7105 0.0000
0.2895 0.7632 0.0000
0.2895 0.8158 0.0000
0.2895 0.8684 0.0000
0.2895 0.9211 0.0000
0.2895 0.9737 0.0000
0.3421 0.0263 0.0000
0.3421 0.0789 0.0000
0.3421 0.1316 0.0000
0.3421 0.1842 0.0000
0.3421 0.2368 0.0000
0.3421 0.2895 0.0000
0.3421 0.7105 0.0000
0.3421 0.7632 0.0000
0.3421 0.8158 0.0000
0.3421 0.8684 0.0000
0.3421 0.9211 0.0000
0.3421 0.9737 0.0000
0.3947 0.0263 0.0000
0.3947 0.0789 0.0000
0.3947 0.1316 0.0000
0.3947 0.1842 0.0000
0.3947 0.2368 0.0000
0.3947 0.7632 0.0000
0.3947 0.8158 0.0000
0.3947 0.8684 0.0000
0.3947 0.9211 0.0000
0.3947 0.9737 0.0000
0.4474 0.0263 0.0000
0.4474 0.0789 0.0000
0.4474 0.1316 0.0000
0.4474 0.1842 0.0000
0.4474 0.8158 0.0000
0.4474 0.8684 0.0000
[...]
         <PointData>
            <DataArray Name="fValues" NumberOfComponents="1" format="ascii" type="Float64">
 7.33343e-01 
 7.55584e-01 
 7.83750e-01 
 8.15257e-01 
 8.49246e-01 
 8.85184e-01 
 9.21673e-01 
 9.54954e-01 
 9.78062e-01 
 9.84495e-01 
 9.68018e-01 
 9.31551e-01 
 8.79945e-01 
 8.25041e-01 
 7.75764e-01 
 7.39141e-01 
 7.17658e-01 
 7.10002e-01 
 7.05489e-01 
 7.42204e-01 
 7.78182e-01 
 8.17610e-01 
 8.57448e-01 
 8.95990e-01 
 9.32166e-01 
 9.64168e-01 
 9.87771e-01 
 9.97545e-01 
 9.84726e-01 
 9.52080e-01 
 8.96795e-01 
 8.35064e-01 
 7.73835e-01 
 7.25901e-01 
 6.95867e-01 
 6.85132e-01 
 6.91160e-01 
 6.87952e-01 
 7.55325e-01 
 8.17108e-01 
 8.76782e-01 
 9.30462e-01 
 9.76214e-01 
 1.01419e+00 
 1.04365e+00 
 1.05773e+00 
 1.04288e+00 
 1.00764e+00 
 9.25230e-01 
 8.49930e-01 
 7.53065e-01 
 6.79253e-01 
 6.27656e-01 
 6.07401e-01 
 6.15956e-01 
 6.48056e-01 
 6.47436e-01 
 7.63140e-01 
 8.55759e-01 
 9.44374e-01 
 1.02539e+00 
 1.09924e+00 
 1.16740e+00 
 1.21732e+00 
 1.22314e+00 
 1.16703e+00 
 9.87747e-01 
 9.09634e-01 
 6.78806e-01 
 6.05182e-01 
 5.20952e-01 
 4.84522e-01 
 4.87332e-01 
 5.25668e-01 
 5.90403e-01 
 5.95185e-01 
 7.63243e-01 
 8.89561e-01 
 1.01387e+00 
 1.13684e+00 
 1.26881e+00 
 1.41829e+00 
 1.59330e+00 
 1.58579e+00 
 1.21459e+00 
 8.84003e-01 
-1.02168e-01 
 4.57798e-01 
 3.12309e-01 
 2.83550e-01 
 2.90602e-01 
 3.37716e-01 
 4.18083e-01 
 5.21772e-01 
 5.34447e-01 
 7.50093e-01 
 9.04057e-01 
 1.06029e+00 
 1.22621e+00 
 1.42973e+00 
 1.75843e+00 
 1.95630e+00 
-1.14467e-01 
-1.42322e-02 
 7.12872e-02 
 1.80076e-01 
 3.09008e-01 
 4.51241e-01 
 4.73019e-01 
 7.16443e-01 
 8.79049e-01 
 1.04257e+00 
 1.21658e+00 
 1.43957e+00 
 1.79476e+00 
-2.67527e-01 
-1.03678e-01 
 5.71313e-02 
 2.25530e-01 
 3.93161e-01 
 4.22397e-01 
 6.58653e-01 
 7.97573e-01 
 9.33142e-01 
 1.03076e+00 
 1.12507e+00 
-1.53173e-01 
 1.99311e-02 
 1.96705e-01 
 3.63012e-01 
 3.94855e-01 
 5.79747e-01 
 6.66641e-01 
 7.19689e-01 
 7.92611e-01 
 9.15605e-02 
 2.39072e-01 
 3.71402e-01 
 3.98688e-01 
 4.93959e-01 
 5.02418e-01 
 4.94384e-01 
 3.49782e-01 
 2.51703e-01 
 3.50742e-01 
 4.18178e-01 
 4.34886e-01 
 4.18178e-01 
 3.50742e-01 
 2.51703e-01 
 1.84217e-01 
 4.94384e-01 
 5.02418e-01 
 4.93959e-01 
 4.95431e-01 
 3.71402e-01 
 2.39072e-01 
 9.15605e-02 
-3.48142e-02 
 7.19689e-01 
 6.66641e-01 
 5.79747e-01 
 5.67272e-01 
 3.63012e-01 
 1.96705e-01 
 1.99311e-02 
-1.53173e-01 
-2.64019e-01 
 1.03076e+00 
 9.33142e-01 
 7.97573e-01 
 6.58653e-01 
 6.35369e-01 
 3.93161e-01 
 2.25530e-01 
 5.71313e-02 
-1.03678e-01 
-2.67527e-01 
-4.05219e-01 
 1.43957e+00 
 1.21658e+00 
 1.04257e+00 
 8.79049e-01 
 7.16443e-01 
 6.89455e-01 
 4.51241e-01 
 3.09008e-01 
 1.80076e-01 
 7.12872e-02 
-1.42322e-02 
-1.14467e-01 
-8.62161e-03 
 1.75843e+00 
 1.42973e+00 
 1.22621e+00 
 1.06029e+00 
 9.04057e-01 
 7.50093e-01 
 7.24991e-01 
 5.21772e-01 
 4.18083e-01 
 3.37716e-01 
 2.90602e-01 
 2.83550e-01 
 3.12309e-01 
 4.57798e-01 
-1.02168e-01 
 8.84003e-01 
 1.21459e+00 
 1.58579e+00 
 1.59330e+00 
 1.41829e+00 
 1.26881e+00 
 1.13684e+00 
 1.01387e+00 
 8.89561e-01 
 7.63243e-01 
 7.43622e-01 
 5.90403e-01 
 5.25668e-01 
 4.87332e-01 
 4.84522e-01 
 5.20952e-01 
 6.05182e-01 
 6.78806e-01 
 9.09634e-01 
 9.87747e-01 
 1.16703e+00 
 1.22314e+00 
 1.21732e+00 
 1.16740e+00 
 1.09924e+00 
 1.02539e+00 
 9.44374e-01 
 8.55759e-01 
 7.63140e-01 
 7.49448e-01 
 6.48056e-01 
 6.15956e-01 
 6.07401e-01 
 6.27656e-01 
 6.79253e-01 
 7.53065e-01 
 8.49930e-01 
 9.25230e-01 
 1.00764e+00 
 1.04288e+00 
 1.05773e+00 
 1.04365e+00 
 1.01419e+00 
 9.76214e-01 
 9.30462e-01 
 8.76782e-01 
 8.17108e-01 
 7.55325e-01 
 7.46236e-01 
 6.91160e-01 
 6.85132e-01 
 6.95867e-01 
 7.25901e-01 
 7.73835e-01 
 8.35064e-01 
 8.96795e-01 
 9.52080e-01 
 9.84726e-01 
 9.97545e-01 
 9.87771e-01 
 9.64168e-01 
 9.32166e-01 
 8.95990e-01 
 8.57448e-01 
 8.17610e-01 
 7.78182e-01 
 7.42204e-01 
 7.35483e-01 
-8.62161e-03 
-4.05219e-01 
-2.64019e-01 
-3.48142e-02 
 1.84217e-01 
 3.49782e-01 
 7.92611e-01 
 7.10002e-01 
 7.17658e-01 
 7.39141e-01 
 7.75764e-01 
 8.25041e-01 
 8.79945e-01 
 9.31551e-01 
 9.68018e-01 
 9.84495e-01 
 9.78062e-01 
 9.54954e-01 
 9.21673e-01 
 8.85184e-01 
 8.49246e-01 
 8.15257e-01 
 7.83750e-01 
 7.55584e-01 
 7.33343e-01 
 7.27897e-01 
 7.35483e-01 
 7.46236e-01 
 7.49448e-01 
 7.43622e-01 
 7.24991e-01 
 6.89455e-01 
 6.35369e-01 
 5.67272e-01 
 4.95431e-01 
 4.34886e-01 
 3.98688e-01 
 3.94855e-01 
 1.12507e+00 
 4.22397e-01 
 1.79476e+00 
 4.73019e-01 
 1.95630e+00 
 5.34447e-01 
 5.95185e-01 
 6.47436e-01 
 6.87952e-01 
 7.05489e-01 
 7.27897e-01 
-7.47352e-01 
-7.88216e-01 
-8.37200e-01 
-8.80663e-01 
-9.15158e-01 
-9.40928e-01 
-9.60827e-01 
-9.77190e-01 
-9.88061e-01 
-9.86207e-01 
-9.63852e-01 
-9.17062e-01 
-8.50809e-01 
-7.78190e-01 
-7.14463e-01 
-6.72021e-01 
-6.56031e-01 
-6.65101e-01 
-6.86031e-01 
-7.84371e-01 
-8.86390e-01 
-9.93103e-01 
-1.07364e+00 
-1.12034e+00 
-1.13434e+00 
-1.12488e+00 
-1.10109e+00 
-1.06360e+00 
-1.00820e+00 
-9.25302e-01 
-8.18254e-01 
-6.97379e-01 
-5.80602e-01 
-4.96350e-01 
-4.61146e-01 
-4.80407e-01 
-5.46891e-01 
-6.29092e-01 
-8.24138e-01 
-1.00200e+00 
-1.18845e+00 
-1.33333e+00 
-1.42559e+00 
-1.46417e+00 
-1.45559e+00 
-1.39736e+00 
-1.26627e+00 
-1.05133e+00 
-8.13987e-01 
-5.79000e-01 
-3.76790e-01 
-2.39703e-01 
-1.60332e-01 
-1.62645e-01 
-2.44143e-01 
-3.90853e-01 
-5.49669e-01 
-8.60065e-01 
-1.12615e+00 
-1.41456e+00 
-1.66171e+00 
-1.85924e+00 
-2.01552e+00 
-2.12799e+00 
-2.11208e+00 
-1.76134e+00 
-1.06334e+00 
-2.06101e-01 
 2.21171e-01 
 2.65386e-01 
 3.46591e-01 
 3.31765e-01 
 2.31548e-01 
 4.64666e-02 
-2.05758e-01 
-4.55251e-01 
-8.83828e-01 
-1.23749e+00 
-1.63628e+00 
-2.01351e+00 
-2.37938e+00 
-2.79057e+00 
-3.28139e+00 
-3.55597e+00 
-1.76159e+00 
-5.58376e-01 
 1.83505e+00 
 1.61082e+00 
 1.43805e+00 
 1.20496e+00 
 9.56178e-01 
 6.84288e-01 
 3.58121e-01 
-1.42793e-02 
-3.56779e-01 
-8.80790e-01 
-1.29458e+00 
-1.77546e+00 
-2.26031e+00 
-2.78381e+00 
-3.49805e+00 
-4.59293e+00 
 2.90554e+00 
 2.09278e+00 
 1.53433e+00 
 1.07270e+00 
 6.11035e-01 
 1.37437e-01 
-2.74410e-01 
-8.35716e-01 
-1.24945e+00 
-1.73519e+00 
-2.21988e+00 
-2.70771e+00 
-3.34063e+00 
 2.23146e+00 
 1.70181e+00 
 1.20906e+00 
 6.97280e-01 
 1.91914e-01 
-2.32621e-01 
-7.41814e-01 
-1.07541e+00 
-1.45554e+00 
-1.80555e+00 
-1.96794e+00 
 1.18960e+00 
 9.55622e-01 
 5.39466e-01 
 1.07206e-01 
-2.50435e-01 
-6.08436e-01 
-7.86825e-01 
-9.77439e-01 
-1.09493e+00 
 3.82645e-01 
 1.48387e-01 
-1.18714e-01 
-3.31455e-01 
-4.60613e-01 
-4.41324e-01 
-3.99812e-01 
-3.20021e-01 
-3.20021e-01 
-3.99812e-01 
-4.41324e-01 
-4.60613e-01 
-3.31455e-01 
-1.18714e-01 
 1.48387e-01 
 3.82645e-01 
-1.09493e+00 
-9.77439e-01 
-7.86825e-01 
-6.08436e-01 
-2.50435e-01 
 1.07206e-01 
 5.39466e-01 
 9.55622e-01 
-1.80555e+00 
-1.45554e+00 
-1.07541e+00 
-7.41814e-01 
-2.32621e-01 
 1.91914e-01 
 6.97280e-01 
 1.20906e+00 
 1.70181e+00 
-2.70771e+00 
-2.21988e+00 
-1.73519e+00 
-1.24945e+00 
-8.35716e-01 
-2.74410e-01 
 1.37437e-01 
 6.11035e-01 
 1.07270e+00 
 1.53433e+00 
 2.09278e+00 
-3.49805e+00 
-2.78381e+00 
-2.26031e+00 
-1.77546e+00 
-1.29458e+00 
-8.80790e-01 
-3.56779e-01 
-1.42793e-02 
 3.58121e-01 
 6.84288e-01 
 9.56178e-01 
 1.20496e+00 
 1.43805e+00 
-3.28139e+00 
-2.79057e+00 
-2.37938e+00 
-2.01351e+00 
-1.63628e+00 
-1.23749e+00 
-8.83828e-01 
-4.55251e-01 
-2.05758e-01 
 4.64666e-02 
 2.31548e-01 
 3.31765e-01 
 3.46591e-01 
 2.65386e-01 
 2.21171e-01 
-2.06101e-01 
-1.06334e+00 
-1.76134e+00 
-2.11208e+00 
-2.12799e+00 
-2.01552e+00 
-1.85924e+00 
-1.66171e+00 
-1.41456e+00 
-1.12615e+00 
-8.60065e-01 
-5.49669e-01 
-3.90853e-01 
-2.44143e-01 
-1.62645e-01 
-1.60332e-01 
-2.39703e-01 
-3.76790e-01 
-5.79000e-01 
-8.13987e-01 
-1.05133e+00 
-1.26627e+00 
-1.39736e+00 
-1.45559e+00 
-1.46417e+00 
-1.42559e+00 
-1.33333e+00 
-1.18845e+00 
-1.00200e+00 
-8.24138e-01 
-6.29092e-01 
-5.46891e-01 
-4.80407e-01 
-4.61146e-01 
-4.96350e-01 
-5.80602e-01 
-6.97379e-01 
-8.18254e-01 
-9.25302e-01 
-1.00820e+00 
-1.06360e+00 
-1.10109e+00 
-1.12488e+00 
-1.13434e+00 
-1.12034e+00 
-1.07364e+00 
-9.93103e-01 
-8.86390e-01 
-7.84371e-01 
-6.86031e-01 
-6.65101e-01 
-6.56031e-01 
-6.72021e-01 
-7.14463e-01 
-7.78190e-01 
-8.50809e-01 
-9.17062e-01 
-9.63852e-01 
-9.86207e-01 
-9.88061e-01 
-9.77190e-01 
-9.60827e-01 
-9.40928e-01 
-9.15158e-01 
-8.80663e-01 
-8.37200e-01 
-7.88216e-01 
-7.47352e-01 
 2.65724e-01 
-2.38707e-01 
-5.74275e-01 
-1.96794e+00 
-3.34063e+00 
-4.59293e+00 
-3.55597e+00 
 1.18960e+00 
 2.23146e+00 
 2.90554e+00 
 1.61082e+00 
 1.83505e+00 
-5.58376e-01 
-1.76159e+00 
-5.74275e-01 
-2.38707e-01 
 2.65724e-01 
 5.57174e-01 
 1.46035e+00 
 5.58181e-01 
 1.72152e+00 
 2.60108e+00 
 2.47019e+00 
-5.63064e+00 
 3.07254e+00 
 1.75934e+00 
-1.06958e+00 
 1.92360e+00 
-1.81281e+00 
 1.34172e+00 
-3.58567e-01 
-3.86614e-01 
-3.97856e-01 
-5.87035e-01 
 3.59544e+00 
 2.01269e+00 
 1.54543e+00 
-4.48582e+00 
 1.98383e+00 
-4.36526e-01 
-2.49120e-01 
-4.15046e-01 
 3.11441e+00 
 1.32208e+00 
 7.98975e-01 
-2.10636e+00 
 1.39167e+00 
-4.02701e-01 
-3.05956e-01 
-1.52963e-01 
 1.30726e+00 
 5.65612e-01 
 9.90603e-01 
-8.24808e-02 
 4.92345e-02 
-4.68616e-01 
 7.73374e-03 
 2.44768e-01 
-1.13643e-01 
 5.72994e-01 
 1.23023e-01 
 3.50092e-01 
-1.58604e-01 
 1.23023e-01 
-1.58604e-01 
 3.50092e-01 
 2.44768e-01 
 5.72994e-01 
-1.13643e-01 
 4.92345e-02 
-1.52963e-01 
 7.73374e-03 
-4.68616e-01 
 5.65612e-01 
 7.98975e-01 
-8.24808e-02 
 9.90603e-01 
-4.02701e-01 
 1.30726e+00 
-4.15046e-01 
-3.05956e-01 
 1.32208e+00 
 1.54543e+00 
 1.39167e+00 
-2.10636e+00 
-4.36526e-01 
 3.11441e+00 
-5.87035e-01 
-2.49120e-01 
 2.01269e+00 
 2.47019e+00 
 1.98383e+00 
-4.48582e+00 
-3.58567e-01 
 3.59544e+00 
 1.72152e+00 
-3.97856e-01 
-3.86614e-01 
 5.58181e-01 
 1.34172e+00 
-1.81281e+00 
 1.46035e+00 
 1.92360e+00 
-1.06958e+00 
 2.60108e+00 
 5.57174e-01 
 1.75934e+00 
 3.07254e+00 
-5.63064e+00 </DataArray>
         </PointData>
         <CellData/>
      </Piece>
   </UnstructuredGrid>
</VTKFile>