<?xml version="1.0" encoding="utf-8"?>
<VTKFile byte_order="LittleEndian" type="UnstructuredGrid" version="0.1">
   <UnstructuredGrid>
      <Piece NumberOfCells="1444" NumberOfPoints="761">
         <Points>
            <DataArray Name="Points" NumberOfComponents="3" format="ascii" type="Float32">
0.0000 0.0000 0.0000
0.0000 0.0526 0.0000
0.0000 0.1053 0.0000
0.0000 0.1579 0.0000
0.0000 0.2105 0.0000
0.0000 0.2632 0.0000
0.0000 0.3158 0.0000
0.0000 0.3684 0.0000
0.0000 0.4211 0.0000
0.0000 0.4737 0.0000
0.0000 0.5263 0.0000
0.0000 0.5789 0.0000
0.0000 0.6316 0.0000
0.0000 0.6842 0.0000
0.0000 0.7368 0.0000
0.0000 0.7895 0.0000
0.0000 0.8421 0.0000
0.0000 0.8947 0.0000
0.0000 0.9474 0.0000
0.0000 1.0000 0.0000
0.0526 0.0000 0.0000
0.0526 0.0526 0.0000
0.0526 0.1053 0.0000
0.0526 0.1579 0.0000
0.0526 0.2105 0.0000
0.0526 0.2632 0.0000
0.0526 0.3158 0.0000
0.0526 0.3684 0.0000
0.0526 0.4211 0.0000
0.0526 0.4737 0.0000
0.0526 0.5263 0.0000
0.0526 0.5789 0.0000
0.0526 0.6316 0.0000
0.0526 0.6842 0.0000
0.0526 0.7368 0.0000
0.0526 0.7895 0.0000
0.0526 0.8421 0.0000
0.0526 0.8947 0.0000
0.0526 0.9474 0.0000
0.0526 1.0000 0.0000
0.1053 0.0000 0.0000
0.1053 0.0526 0.0000
0.1053 0.1053 0.0000
0.1053 0.1579 0.0000
0.1053 0.2105 0.0000
0.1053 0.2632 0.0000
0.1053 0.3158 0.0000
0.1053 0.3684 0.0000
0.1053 0.4211 0.0000
0.1053 0.4737 0.0000
0.1053 0.5263 0.0000
0.1053 0.5789 0.0000
0.1053 0.6316 0.0000
0.1053 0.6842 0.0000
0.1053 0.7368 0.0000
0.1053 0.7895 0.0000
0.1053 0.8421 0.0000
0.1053 0.8947 0.0000
0.1053 0.9474 0.0000
0.1053 1.0000 0.0000
0.1579 0.0000 0.0000
0.1579 0.0526 0.0000
0.1579 0.1053 0.0000
0.1579 0.1579 0.0000
0.1579 0.2105 0.0000
0.1579 0.2632 0.0000
0.1579 0.3158 0.0000
0.1579 0.3684 0.0000
0.1579 0.4211 0.0000
0.1579 0.4737 0.0000
0.1579 0.5263 0.0000
0.1579 0.5789 0.0000
0.1579 0.6316 0.0000
0.1579 0.6842 0.0000
0.1579 0.7368 0.0000
0.1579 0.7895 0.0000
0.1579 0.8421 0.0000
0.1579 0.8947 0.0000
0.1579 0.9474 0.0000
0.1579 1.0000 0.0000
0.2105 0.0000 0.0000
0.2105 0.0526 0.0000
0.2105 0.1053 0.0000
0.2105 0.1579 0.0000
0.2105 0.2105 0.0000
0.2105 0.2632 0.0000
0.2105 0.3158 0.0000
0.2105 0.3684 0.0000
0.2105 0.4211 0.0000
0.2105 0.4737 0.0000
0.2105 0.5263 0.0000
0.2105 0.5789 0.0000
0.2105 0.6316 0.0000
0.2105 0.6842 0.0000
0.2105 0.7368 0.0000
0.2105 0.7895 0.0000
0.2105 0.8421 0.0000
0.2105 0.8947 0.0000
0.2105 0.9474 0.0000
0.2105 1.0000 0.0000
0.2632 0.0000 0.0000
0.2632 0.0526 0.0000
0.2632 0.1053 0.0000
0.2632 0.1579 0.0000
0.2632 0.2105 0.0000
0.2632 0.2632 0.0000
0.2632 0.3158 0.0000
0.2632 0.3684 0.0000
0.2632 0.4211 0.0000
0.2632 0.4737 0.0000
0.2632 0.5263 0.0000
0.2632 0.5789 0.0000
0.2632 0.6316 0.0000
0.2632 0.6842 0.0000
0.2632 0.7368 0.0000
0.2632 0.7895 0.0000
0.2632 0.8421 0.0000
0.2632 0.8947 0.0000
0.2632 0.9474 0.0000
0.2632 1.0000 0.0000
0.3158 0.0000 0.0000
0.3158 0.0526 0.0000
0.3158 0.1053 0.0000
0.3158 0.1579 0.0000
0.3158 0.2105 0.0000
0.3158 0.2632 0.0000
0.3158 0.3158 0.0000
0.3158 0.3684 0.0000
0.3158 0.4211 0.0000
0.3158 0.4737 0.0000
0.3158 0.5263 0.0000
0.3158 0.5789 0.0000
0.3158 0.6316 0.0000
0.3158 0.6842 0.0000
0.3158 0.7368 0.0000
0.3158 0.7895 0.0000
0.3158 0.8421 0.0000
0.3158 0.8947 0.0000
0.3158 0.9474 0.0000
0.3158 1.0000 0.0000
0.3684 0.0000 0.0000
0.3684 0.0526 0.0000
0.3684 0.1053 0.0000
0.3684 0.1579 0.0000
0.3684 0.2105 0.0000
0.3684 0.2632 0.0000
0.3684 0.3158 0.0000
0.3684 0.3684 0.0000
0.3684 0.4211 0.0000
0.3684 0.4737 0.0000
0.3684 0.5263 0.0000
0.3684 0.5789 0.0000
0.3684 0.6316 0.0000
0.3684 0.6842 0.0000
0.3684 0.7368 0.0000
0.3684 0.7895 0.0000
0.3684 0.8421 0.0000
0.3684 0.8947 0.0000
0.3684 0.9474 0.0000
0.3684 1.0000 0.0000
0.4211 0.0000 0.0000
0.4211 0.0526 0.0000
0.4211 0.1053 0.0000
0.4211 0.1579 0.0000
0.4211 0.2105 0.0000
0.4211 0.2632 0.0000
0.4211 0.3158 0.0000
0.4211 0.3684 0.0000
0.4211 0.4211 0.0000
0.4211 0.4737 0.0000
0.4211 0.5263 0.0000
0.4211 0.5789 0.0000
0.4211 0.6316 0.0000
0.4211 0.6842 0.0000
0.4211 0.7368 0.0000
0.4211 0.7895 0.0000
0.4211 0.8421 0.0000
0.4211 0.8947 0.0000
0.4211 0.9474 0.0000
0.4211 1.0000 0.0000
0.4737 0.0000 0.0000
0.4737 0.0526 0.0000
0.4737 0.1053 0.0000
0.4737 0.1579 0.0000
0.4737 0.2105 0.0000
0.4737 0.2632 0.0000
0.4737 0.3158 0.0000
0.4737 0.3684 0.0000
0.4737 0.4211 0.0000
0.4737 0.4737 0.0000
0.4737 0.5263 0.0000
0.4737 0.5789 0.0000
0.4737 0.6316 0.0000
0.4737 0.6842 0.0000
0.4737 0.7368 0.0000
0.4737 0.7895 0.0000
0.4737 0.8421 0.0000
0.4737 0.8947 0.0000
0.4737 0.9474 0.0000
0.4737 1.0000 0.0000
0.5263 0.0000 0.0000
0.5263 0.0526 0.0000
0.5263 0.1053 0.0000
0.5263 0.1579 0.0000
0.5263 0.2105 0.0000
0.5263 0.2632 0.0000
0.5263 0.3158 0.0000
0.5263 0.3684 0.0000
0.5263 0.4211 0.0000
0.5263 0.4737 0.0000
0.5263 0.5263 0.0000
0.5263 0.5789 0.0000
0.5263 0.6316 0.0000
0.5263 0.6842 0.0000
0.5263 0.7368 0.0000
0.5263 0.7895 0.0000
0.5263 0.8421 0.0000
0.5263 0.8947 0.0000
0.5263 0.9474 0.0000
0.5263 1.0000 0.0000
0.5789 0.0000 0.0000
0.5789 0.0526 0.0000
0.5789 0.1053 0.0000
0.5789 0.1579 0.0000
0.5789 0.2105 0.0000
0.5789 0.2632 0.0000
0.5789 0.3158 0.0000
0.5789 0.3684 0.0000
0.5789 0.4211 0.0000
0.5789 0.4737 0.0000
0.5789 0.5263 0.0000
0.5789 0.5789 0.0000
0.5789 0.6316 0.0000
0.5789 0.6842 0.0000
0.5789 0.7368 0.0000
0.5789 0.7895 0.0000
0.5789 0.8421 0.0000
0.5789 0.8947 0.0000
0.5789 0.9474 0.0000
0.5789 1.0000 0.0000
0.6316 0.0000 0.0000
0.6316 0.0526 0.0000
0.6316 0.1053 0.0000
0.6316 0.1579 0.0000
0.6316 0.2105 0.0000
0.6316 0.2632 0.0000
0.6316 0.3158 0.0000
0.6316 0.3684 0.0000
0.6316 0.4211 0.0000
0.6316 0.4737 0.0000
0.6316 0.5263 0.0000
0.6316 0.5789 0.0000
0.6316 0.6316 0.0000
0.6316 0.6842 0.0000
0.6316 0.7368 0.0000
0.6316 0.7895 0.0000
0.6316 0.8421 0.0000
0.6316 0.8947 0.0000
0.6316 0.9474 0.0000
0.6316 1.0000 0.0000
0.6842 0.0000 0.0000
0.6842 0.0526 0.0000
0.6842 0.1053 0.0000
0.6842 0.1579 0.0000
0.6842 0.2105 0.0000
0.6842 0.2632 0.0000
0.6842 0.3158 0.0000
0.6842 0.3684 0.0000
0.6842 0.4211 0.0000
0.6842 0.4737 0.0000
0.6842 0.5263 0.0000
0.6842 0.5789 0.0000
0.6842 0.6316 0.0000
0.6842 0.6842 0.0000
0.6842 0.7368 0.0000
0.6842 0.7895 0.0000
0.6842 0.8421 0.0000
0.6842 0.8947 0.0000
0.6842 0.9474 0.0000
0.6842 1.0000 0.0000
0.7368 0.0000 0.0000
0.7368 0.0526 0.0000
0.7368 0.1053 0.0000
0.7368 0.1579 0.0000
0.7368 0.2105 0.0000
0.7368 0.2632 0.0000
0.7368 0.3158 0.0000
0.7368 0.3684 0.0000
0.7368 0.4211 0.0000
0.7368 0.4737 0.0000
0.7368 0.5263 0.0000
0.7368 0.5789 0.0000
0.7368 0.6316 0.0000
0.7368 0.6842 0.0000
0.7368 0.7368 0.0000
0.7368 0.7895 0.0000
0.7368 0.8421 0.0000
0.7368 0.8947 0.0000
0.7368 0.9474 0.0000
0.7368 1.0000 0.0000
0.7895 0.0000 0.0000
0.7895 0.0526 0.0000
0.7895 0.1053 0.0000
0.7895 0.1579 0.0000
0.7895 0.2105 0.0000
0.7895 0.2632 0.0000
0.7895 0.3158 0.0000
0.7895 0.3684 0.0000
0.7895 0.4211 0.0000
0.7895 0.4737 0.0000
0.7895 0.5263 0.0000
0.7895 0.5789 0.0000
0.7895 0.6316 0.0000
0.7895 0.6842 0.0000
0.7895 0.7368 0.0000
0.7895 0.7895 0.0000
0.7895 0.8421 0.0000
0.7895 0.8947 0.0000
0.7895 0.9474 0.0000
0.7895 1.0000 0.0000
0.8421 0.0000 0.0000
0.8421 0.0526 0.0000
0.8421 0.1053 0.0000
0.8421 0.1579 0.0000
0.8421 0.2105 0.0000
0.8421 0.2632 0.0000
0.8421 0.3158 0.0000
0.8421 0.3684 0.0000
0.8421 0.4211 0.0000
0.8421 0.4737 0.0000
0.8421 0.5263 0.0000
0.8421 0.5789 0.0000
0.8421 0.6316 0.0000
0.8421 0.6842 0.0000
0.8421 0.7368 0.0000
0.8421 0.7895 0.0000
0.8421 0.8421 0.0000
0.8421 0.8947 0.0000
0.8421 0.9474 0.0000
0.8421 1.0000 0.0000
0.8947 0.0000 0.0000
0.8947 0.0526 0.0000
0.8947 0.1053 0.0000
0.8947 0.1579 0.0000
0.8947 0.2105 0.0000
0.8947 0.2632 0.0000
0.8947 0.3158 0.0000
0.8947 0.3684 0.0000
0.8947 0.4211 0.0000
0.8947 0.4737 0.0000
0.8947 0.5263 0.0000
0.8947 0.5789 0.0000
0.8947 0.6316 0.0000
0.8947 0.6842 0.0000
0.8947 0.7368 0.0000
0.8947 0.7895 0.0000
0.8947 0.8421 0.0000
0.8947 0.8947 0.0000
0.8947 0.9474 0.0000
0.8947 1.0000 0.0000
0.9474 0.0000 0.0000
0.9474 0.0526 0.0000
0.9474 0.1053 0.0000
0.9474 0.1579 0.0000
0.9474 0.2105 0.0000
0.9474 0.2632 0.0000
0.9474 0.3158 0.0000
0.9474 0.3684 0.0000
0.9474 0.4211 0.0000
0.9474 0.4737 0.0000
0.9474 0.5263 0.0000
0.9474 0.5789 0.0000
0.9474 0.6316 0.0000
0.9474 0.6842 0.0000
0.9474 0.7368 0.0000
0.9474 0.7895 0.0000
0.9474 0.8421 0.0000
0.9474 0.8947 0.0000
0.9474 0.9474 0.0000
0.9474 1.0000 0.0000
1.0000 0.0000 0.0000
1.0000 0.0526 0.0000
1.0000 0.1053 0.0000
1.0000 0.1579 0.0000
1.0000 0.2105 0.0000
1.0000 0.2632 0.0000
1.0000 0.3158 0.0000
1.0000 0.3684 0.0000
1.0000 0.4211 0.0000
1.0000 0.4737 0.0000
1.0000 0.5263 0.0000
1.0000 0.5789 0.0000
1.0000 0.6316 0.0000
1.0000 0.6842 0.0000
1.0000 0.7368 0.0000
1.0000 0.7895 0.0000
1.0000 0.8421 0.0000
1.0000 0.8947 0.0000
1.0000 0.9474 0.0000
1.0000 1.0000 0.0000
0.0263 0.0263 0.0000
0.0263 0.0789 0.0000
0.0263 0.1316 0.0000
0.0263 0.1842 0.0000
0.0263 0.2368 0.0000
0.0263 0.2895 0.0000
0.0263 0.3421 0.0000
0.0263 0.3947 0.0000
0.0263 0.4474 0.0000
0.0263 0.5000 0.0000
0.0263 0.5526 0.0000
0.0263 0.6053 0.0000
0.0263 0.6579 0.0000
0.0263 0.7105 0.0000
0.0263 0.7632 0.0000
0.0263 0.8158 0.0000
0.0263 0.8684 0.0000
0.0263 0.9211 0.0000
0.0263 0.9737 0.0000
0.0789 0.0263 0.0000
0.0789 0.0789 0.0000
0.0789 0.1316 0.0000
0.0789 0.1842 0.0000
0.0789 0.2368 0.0000
0.0789 0.2895 0.0000
0.0789 0.3421 0.0000
0.0789 0.3947 0.0000
0.0789 0.4474 0.0000
0.0789 0.5000 0.0000
0.0789 0.5526 0.0000
0.0789 0.6053 0.0000
0.0789 0.6579 0.0000
0.0789 0.7105 0.0000
0.0789 0.7632 0.0000
0.0789 0.8158 0.0000
0.0789 0.8684 0.0000
0.0789 0.9211 0.0000
0.0789 0.9737 0.0000
0.1316 0.0263 0.0000
0.1316 0.0789 0.0000
0.1316 0.1316 0.0000
0.1316 0.1842 0.0000
0.1316 0.2368 0.0000
0.1316 0.2895 0.0000
0.1316 0.3421 0.0000
0.1316 0.3947 0.0000
0.1316 0.4474 0.0000
0.1316 0.5000 0.0000
0.1316 0.5526 0.0000
0.1316 0.6053 0.0000
0.1316 0.6579 0.0000
0.1316 0.7105 0.0000
0.1316 0.7632 0.0000
0.1316 0.8158 0.0000
0.1316 0.8684 0.0000
0.1316 0.9211 0.0000
0.1316 0.9737 0.0000
0.1842 0.0263 0.0000
0.1842 0.0789 0.0000
0.1842 0.1316 0.0000
0.1842 0.1842 0.0000
[...]
         <PointData>
            <DataArray Name="fValues" NumberOfComponents="1" format="ascii" type="Float64">
-1.56594e-16 
-1.09884e-16 
-1.25038e-16 
-1.50714e-16 
-8.97661e-17 
-9.61650e-17 
 1.30822e-17 
-7.67561e-17 
 6.09229e-18 
-6.64960e-17 
 1.58831e-16 
 1.26435e-16 
 1.03401e-16 
 1.15876e-16 
 9.83219e-17 
 6.71566e-17 
 2.87530e-16 
 1.82134e-16 
 1.61007e-16 
 4.74221e-17 
-8.20532e-17 
-8.39160e-17 
-9.15647e-17 
-1.03288e-16 
-8.25750e-17 
-4.20004e-17 
-2.01872e-17 
-5.03531e-17 
 1.36561e-17 
-1.92569e-17 
 1.35605e-16 
 9.68773e-17 
 1.07366e-16 
 1.01412e-16 
 7.91736e-17 
 1.07907e-16 
 2.22629e-16 
 1.58978e-16 
 1.13688e-16 
-4.27694e-17 
-2.46189e-17 
-6.27426e-17 
-1.72125e-17 
-5.82440e-17 
-4.87095e-17 
-3.42323e-17 
-3.46022e-17 
-6.67286e-18 
 3.69733e-18 
-3.59168e-18 
 7.41749e-17 
 1.10120e-16 
 9.77086e-17 
 9.19079e-17 
 1.05348e-16 
 1.11857e-16 
 1.48316e-16 
 1.36468e-16 
 9.96830e-17 
 6.82233e-17 
 2.10298e-18 
 8.35680e-18 
-6.17957e-18 
-4.31976e-17 
-3.30087e-17 
-1.99322e-17 
-3.50924e-17 
-1.11958e-17 
-1.51333e-17 
-1.31493e-18 
 5.29012e-17 
 1.05924e-16 
 1.02308e-16 
 1.10695e-16 
 1.16636e-16 
 1.21135e-16 
 1.32625e-16 
 1.58185e-16 
 1.18271e-16 
 1.09295e-16 
 6.46448e-17 
 3.01568e-17 
-1.53595e-17 
-2.15950e-17 
-2.70735e-17 
 3.36845e-18 
-1.15251e-17 
-9.81673e-18 
-1.43774e-18 
 2.94897e-17 
 8.48447e-17 
 9.30753e-17 
 1.02295e-16 
 1.10948e-16 
 1.03936e-16 
 8.69241e-17 
 1.49923e-16 
 1.56588e-16 
 1.32775e-16 
 1.44302e-16 
 1.28225e-16 
 1.06576e-16 
 9.76036e-17 
 4.57558e-17 
 5.36651e-17 
 7.22749e-17 
 6.47480e-17 
 7.86866e-17 
 1.06642e-16 
 1.04469e-16 
 1.46389e-16 
 1.39519e-16 
 1.43506e-16 
 1.67005e-16 
 1.60592e-16 
 1.62499e-16 
 1.93183e-16 
 2.32042e-16 
 2.24046e-16 
 2.30980e-16 
 2.04091e-17 
 7.33981e-17 
 8.12264e-17 
 5.18282e-18 
-9.63646e-18 
 1.28174e-18 
-8.39022e-18 
 1.00180e-17 
 1.20208e-17 
-1.40801e-18 
 6.24236e-17 
 7.13597e-17 
 5.81553e-17 
 9.54400e-17 
 1.03213e-16 
 1.21520e-16 
 1.29940e-16 
 1.90699e-16 
 1.92302e-16 
 2.76488e-16 
 3.03793e-17 
 4.01634e-17 
 3.09670e-17 
-3.41785e-17 
-3.32706e-17 
-5.27711e-17 
-8.75493e-17 
-9.52737e-17 
-8.48430e-17 
-8.69272e-17 
-5.22659e-17 
 2.92586e-17 
 2.50367e-18 
 3.36619e-17 
 5.03311e-17 
 5.87004e-17 
 8.85710e-17 
 1.02453e-16 
 1.37251e-16 
 1.78598e-16 
-6.29484e-17 
-5.68938e-17 
-3.52106e-17 
-7.57094e-17 
-1.03206e-16 
-1.04789e-16 
-1.37180e-16 
-1.47484e-16 
-1.68398e-16 
-1.80681e-16 
-8.84611e-17 
-4.38406e-17 
-3.15272e-17 
-2.99449e-17 
 1.34113e-18 
-2.53385e-17 
 1.55259e-17 
 5.30778e-17 
 6.98200e-17 
 9.54382e-17 
 3.43333e-17 
 3.56603e-17 
 1.46322e-17 
-1.81261e-17 
-1.46505e-18 
-9.83003e-18 
-4.30230e-17 
-6.85992e-17 
-7.89236e-17 
-8.83379e-17 
-4.61486e-17 
-2.48949e-18 
 3.49808e-17 
 4.18152e-17 
 7.51045e-17 
 5.52555e-17 
 1.21819e-16 
 1.04554e-16 
 1.15902e-16 
 1.14543e-16 
-3.62409e-17 
-5.02510e-17 
-1.31586e-17 
-2.12431e-17 
-4.45742e-17 
-4.61276e-17 
-9.75701e-17 
-9.09373e-17 
-1.35187e-16 
-1.61188e-16 
-1.24550e-16 
-3.54511e-17 
-5.77874e-17 
-1.10861e-17 
-4.58632e-17 
 3.68717e-17 
-1.85240e-17 
 6.85007e-17 
 8.56160e-18 
 1.04546e-16 
-8.43929e-17 
-3.22974e-17 
-2.69015e-18 
-4.69719e-17 
-3.68961e-17 
-3.17312e-17 
-8.49596e-17 
-6.88951e-17 
-1.18982e-16 
-1.35090e-16 
-1.37492e-16 
-8.80929e-17 
-8.75449e-17 
-6.45310e-17 
-7.40149e-17 
-5.71641e-17 
 7.92914e-20 
 1.97784e-17 
 1.69386e-17 
 8.90319e-17 
-5.63546e-17 
-7.01521e-17 
-7.28140e-17 
-6.64596e-17 
-7.26969e-17 
-4.92171e-17 
-8.54394e-17 
-7.94180e-17 
-1.21014e-16 
-1.39979e-16 
-1.11383e-16 
-8.30797e-17 
-5.22455e-17 
-2.09284e-17 
-5.18424e-17 
-1.13816e-17 
-2.05532e-17 
 2.16960e-17 
-2.29907e-19 
 5.91878e-18 
-5.18059e-17 
-5.92496e-17 
-3.99067e-17 
-5.66261e-17 
-3.09847e-17 
-1.63776e-17 
-4.48491e-17 
-9.06104e-18 
-2.85798e-17 
-5.03204e-17 
-7.81425e-17 
-6.31292e-17 
-8.80659e-17 
-3.66728e-17 
-6.61710e-17 
-6.17780e-17 
-1.56247e-18 
 3.46295e-17 
 6.17361e-18 
 3.50144e-17 
-7.09732e-17 
-1.10644e-16 
-1.10521e-16 
-6.68956e-17 
-7.31226e-17 
-2.94083e-17 
-6.61522e-17 
-2.04208e-17 
-2.53851e-17 
-6.87584e-17 
-6.54083e-17 
-7.22708e-17 
-3.76603e-17 
-4.10840e-17 
-4.60154e-17 
-3.85352e-17 
 7.81259e-18 
 2.87645e-17 
-2.20759e-17 
-2.10216e-17 
-7.26412e-17 
-7.64855e-17 
-5.57328e-17 
-6.60485e-17 
-4.29311e-17 
-9.33252e-18 
 1.27221e-17 
 2.53657e-17 
 1.73631e-17 
 3.33437e-18 
-3.99485e-17 
-9.61780e-18 
-8.46424e-17 
-1.51207e-17 
-8.54035e-17 
-4.02458e-17 
-5.53244e-17 
 3.62998e-17 
-2.04005e-18 
 5.76129e-17 
-1.23592e-16 
-6.28383e-17 
-5.06859e-17 
-3.18528e-17 
-2.39573e-17 
 1.30416e-17 
-5.44984e-18 
 8.89963e-18 
 1.84036e-17 
-3.04476e-17 
 9.78992e-18 
-5.04327e-17 
-2.89544e-17 
-7.44359e-17 
-1.71024e-17 
-3.34210e-17 
 2.60108e-17 
 3.01606e-17 
 2.65708e-17 
-5.28960e-17 
-9.41257e-17 
-7.18382e-17 
-3.85141e-17 
-5.61589e-17 
-2.66340e-17 
-3.41770e-17 
-6.60251e-17 
-1.79083e-17 
-7.10095e-17 
-4.27195e-17 
 2.24011e-19 
-2.06683e-17 
-2.49292e-17 
-7.56283e-17 
-1.95348e-17 
-7.89929e-17 
 3.35327e-18 
-6.56009e-17 
-2.07811e-17 
-6.62088e-18 
-3.77058e-17 
-3.42729e-17 
-1.77231e-17 
-1.25941e-17 
-4.64071e-17 
 1.25164e-17 
-8.00253e-17 
-2.31536e-17 
-8.27365e-17 
-4.85864e-17 
-5.13302e-17 
-5.24776e-17 
-2.06192e-17 
-3.44248e-17 
-4.03540e-17 
 5.46684e-18 
-9.64357e-17 
-5.79566e-17 
-1.07471e-16 
-4.86099e-17 
 1.09875e-16 
 1.20004e-16 
 1.22952e-16 
 9.93900e-17 
 5.17289e-17 
 1.08192e-16 
-2.93445e-17 
 1.11289e-16 
-2.26543e-17 
 6.70968e-17 
-7.47404e-17 
-1.73915e-17 
-1.20257e-17 
 9.20341e-18 
 1.57059e-17 
 4.46829e-17 
-1.37293e-16 
-3.22402e-17 
-9.22315e-17 
 6.31845e-18 
 1.30582e-16 
 6.76519e-17 
 1.11761e-16 
 1.86095e-16 
 4.29334e-17 
-1.04409e-17 
 1.93054e-16 
-3.26250e-17 
 2.02893e-16 
-7.29193e-17 
-2.08942e-16 
-6.20463e-17 
-1.98149e-16 
-5.21118e-17 
-1.41550e-16 
-2.44607e-16 
-2.46115e-16 
-2.27625e-16 
 2.28198e-17 
 1.14582e-16 
 3.58429e-17 
 7.52309e-17 
 1.66487e-16 
-1.43190e-17 
 6.42931e-17 
 8.93975e-17 
 4.79897e-17 
 1.03409e-16 
 2.64614e-17 
-2.33485e-16 
-6.73568e-17 
-1.88639e-16 
-6.17488e-17 
-2.03162e-16 
-9.28582e-17 
-2.76431e-16 
-1.10990e-16 
-5.93161e-17 
 7.00935e-18 
 6.33673e-18 
 1.29599e-17 
 1.38448e-16 
-3.46094e-17 
 7.40251e-17 
 6.03471e-17 
 4.34747e-17 
 6.97756e-17 
 6.26390e-17 
-2.16620e-16 
-9.04432e-17 
-2.10590e-16 
-7.00812e-17 
-2.16846e-16 
-3.07534e-17 
-2.53432e-16 
-1.23195e-16 
-1.69705e-16 
-6.98819e-17 
-5.43942e-18 
 2.42222e-18 
 1.18685e-16 
-4.42167e-17 
 6.23382e-17 
 7.16808e-17 
 4.31118e-17 
 7.13374e-17 
 3.70432e-17 
-1.90920e-16 
-9.53781e-17 
-1.87285e-16 
-5.64001e-17 
-1.94913e-16 
-5.29239e-17 
-2.86191e-16 
-1.74042e-16 
-2.43791e-16 
-1.32122e-16 
-8.48046e-17 
-2.70217e-17 
 7.57952e-17 
-6.36879e-17 
 1.05531e-17 
 2.10299e-17 
-1.10198e-17 
 4.09452e-17 
-2.46520e-17 
-2.32874e-16 
-1.44139e-16 
-2.71932e-16 
-1.59412e-16 
-2.78880e-16 
-8.01556e-17 
-3.14155e-16 
-2.10876e-16 
-3.05376e-16 
-9.11492e-17 
-1.01360e-16 
-5.78017e-17 
 7.85924e-17 
-5.97967e-17 
 2.62495e-17 
 1.26800e-17 
-1.46196e-18 
 3.01739e-17 
 6.89840e-18 
-2.47698e-16 
-1.31452e-16 
-2.22827e-16 
-1.54090e-16 
-2.55212e-16 
-9.18564e-17 
-2.87713e-16 
-2.49998e-16 
-3.42754e-16 
-1.06252e-16 
-1.19379e-16 
-9.67481e-17 
 1.01733e-16 
-2.19905e-17 
 1.10815e-16 
 1.01172e-16 
 1.04049e-16 
 1.01881e-16 
 1.11918e-16 
-1.73714e-16 
-6.67279e-17 
-1.02060e-16 
-1.05018e-16 
-1.63676e-16 
-5.87271e-17 
-1.76808e-16 
-2.42828e-16 
-3.59946e-16 
-5.09902e-17 
-8.89856e-17 
-8.05077e-17 
 1.31910e-16 
-1.66544e-18 
 1.49795e-16 
 1.80523e-16 
 2.11322e-16 
 2.07145e-16 
 1.92074e-16 
-6.37297e-17 
-4.02128e-17 
-2.11477e-17 
-5.40594e-17 
-8.01212e-17 
 2.04504e-17 
-1.11691e-16 
-1.76045e-16 
-2.41999e-16 
-7.79125e-17 
-9.34258e-17 
-8.54874e-17 
 8.92903e-17 
-4.88505e-17 
 1.00751e-16 
 1.21167e-16 
 1.48415e-16 
 1.85158e-16 
 1.91293e-16 
-3.40106e-17 
-3.90162e-17 
-6.86385e-17 
-4.72725e-17 
-1.26850e-16 
 2.48758e-17 
-1.54624e-16 
-1.77688e-16 
-2.49211e-16 
-6.59651e-17 
-1.06146e-16 
-8.56514e-17 
 5.02293e-17 
-1.11274e-16 
 5.66829e-17 
 6.00896e-17 
 1.12234e-16 
 1.53862e-16 
 1.94941e-16 
 3.75408e-18 
 1.30875e-17 
-4.33997e-17 
-1.98774e-17 
-9.90820e-17 
 2.11838e-17 
-1.80588e-16 
-1.56939e-16 
-1.85360e-16 
 2.77590e-17 
 6.21909e-19 
 1.08599e-17 
 1.11958e-16 
-2.66062e-17 
 1.27460e-16 
 1.36555e-16 
 1.36611e-16 
 2.25784e-16 
 2.47047e-16 
 1.51359e-16 
 3.21987e-17 
 3.92174e-17 
 5.44257e-17 
 3.14446e-17 
 1.38838e-17 
-8.60590e-17 
-9.52024e-17 
-5.05551e-17 
-4.21090e-17 
-1.75490e-17 
-1.87232e-17 
 9.13004e-17 
-3.64397e-17 
 9.51473e-17 
 1.37411e-16 
 1.00865e-16 
 1.92956e-16 
 2.26399e-16 
 1.54901e-16 
 6.12826e-17 
 1.33049e-17 
 3.29787e-17 
 6.20610e-17 
 2.17503e-17 
-7.88399e-17 
-1.04415e-16 
-5.81170e-17 
 3.26636e-17 
 5.96806e-17 
 2.97674e-17 
 1.33413e-16 
-5.57522e-18 
 1.21773e-16 
 1.26771e-16 
 7.18489e-17 
 1.76927e-16 
 2.21345e-16 
 1.52088e-16 
 3.56120e-17 
 2.19404e-18 
 5.98654e-18 
 6.15152e-17 
-1.18775e-17 
-8.22349e-17 
-8.37327e-17 
 1.36727e-17 
 3.78309e-17 
 8.38452e-17 
 1.87588e-17 
 1.30769e-16 
-2.97236e-17 
 7.82007e-17 
 9.73600e-17 
-6.93802e-18 
 1.17673e-16 
 1.58629e-16 
 1.29381e-16 
 6.34909e-17 
 7.51568e-17 
 5.86889e-17 
 9.70877e-17 
 4.51239e-17 
-6.35485e-17 
-3.76796e-17 
 3.26648e-17 
 8.69395e-17 
 1.40536e-16 
 8.03245e-17 
 1.57687e-16 
 1.29440e-18 
 6.46463e-17 
 9.19279e-17 
 6.97518e-18 
 1.05598e-16 
 1.51293e-16 
 9.82867e-17 
 3.56389e-17 
 4.61214e-17 
 2.10703e-17 
 3.75720e-17 
 5.16243e-17 
-6.27894e-17 
-2.15171e-17 
 5.31957e-17 
 9.37815e-17 
 8.58505e-17 
 3.45014e-17 
 1.24484e-16 
-2.19056e-17 
 7.43346e-17 
 2.21658e-17 
 1.40669e-17 
 7.15534e-17 
 8.42400e-17 
 5.24057e-17 
 2.02398e-17 
 1.03715e-16 
 6.46063e-18 
 9.34037e-17 
 1.71404e-17 
 1.25625e-17 
-4.56291e-17 
 6.12471e-17 
 9.99298e-17 
 7.07946e-17 
 4.15674e-17 
 1.51056e-16 
-1.00347e-17 
 1.33140e-16 
 4.80834e-17 
 1.08407e-16 
 1.08841e-16 
 1.32244e-16 
 2.13131e-17 
 1.96230e-17 
 1.35449e-16 
 3.43610e-17 
 7.66692e-17 
-8.75374e-18 
 1.80198e-17 
-4.01189e-17 
 1.47698e-17 
 8.03394e-17 
 2.10529e-17 
-1.25459e-17 
 1.34138e-16 
-5.23299e-17 
 7.24959e-17 
 7.90409e-17 
 9.40477e-17 
 1.42021e-16 
 1.05544e-16 
 1.47960e-17 
 3.66041e-17 
 7.64350e-17 
 7.28029e-17 
 4.94072e-17 
 5.68307e-17 
 4.44839e-17 
 3.56657e-17 
 9.98303e-17 
-1.82931e-17 
-1.55671e-17 
-1.55009e-17 
 1.23978e-16 
-3.57806e-18 
 8.36363e-18 
 1.90305e-16 
 4.51683e-18 
 2.52314e-16 
 4.15535e-17 
 5.72382e-17 
 7.49560e-17 
-4.32437e-18 
 7.33703e-17 
-1.64980e-17 
-3.40434e-17 
 8.42692e-17 
-2.44430e-18 
 1.74613e-16 </DataArray>
         </PointData>
         <CellData/>
      </Piece>
   </UnstructuredGrid>
</VTKFile>