<?xml version="1.0" encoding="utf-8"?>
<VTKFile byte_order="LittleEndian" type="UnstructuredGrid" version="0.1">
   <UnstructuredGrid>
      <Piece NumberOfCells="125" NumberOfPoints="216">
         <Points>
            <DataArray Name="Points" NumberOfComponents="3" format="ascii" type="Float32">
0.0000 0.0000 0.0000
0.0000 0.2000 0.0000
0.0000 0.4000 0.0000
0.0000 0.6000 0.0000
0.0000 0.8000 0.0000
0.0000 1.0000 0.0000
0.2000 0.0000 0.0000
0.2000 0.2000 0.0000
0.2000 0.4000 0.0000
0.2000 0.6000 0.0000
0.2000 0.8000 0.0000
0.2000 1.0000 0.0000
0.4000 0.0000 0.0000
0.4000 0.2000 0.0000
0.4000 0.4000 0.0000
0.4000 0.6000 0.0000
0.4000 0.8000 0.0000
0.4000 1.0000 0.0000
0.6000 0.0000 0.0000
0.6000 0.2000 0.0000
0.6000 0.4000 0.0000
0.6000 0.6000 0.0000
0.6000 0.8000 0.0000
0.6000 1.0000 0.0000
0.8000 0.0000 0.0000
0.8000 0.2000 0.0000
0.8000 0.4000 0.0000
0.8000 0.6000 0.0000
0.8000 0.8000 0.0000
0.8000 1.0000 0.0000
1.0000 0.0000 0.0000
1.0000 0.2000 0.0000
1.0000 0.4000 0.0000
1.0000 0.6000 0.0000
1.0000 0.8000 0.0000
1.0000 1.0000 0.0000
0.0000 0.0000 0.2000
0.0000 0.2000 0.2000
0.0000 0.4000 0.2000
0.0000 0.6000 0.2000
0.0000 0.8000 0.2000
0.0000 1.0000 0.2000
0.2000 0.0000 0.2000
0.2000 0.2000 0.2000
0.2000 0.4000 0.2000
0.2000 0.6000 0.2000
0.2000 0.8000 0.2000
0.2000 1.0000 0.2000
0.4000 0.0000 0.2000
0.4000 0.2000 0.2000
0.4000 0.4000 0.2000
0.4000 0.6000 0.2000
0.4000 0.8000 0.2000
0.4000 1.0000 0.2000
0.6000 0.0000 0.2000
0.6000 0.2000 0.2000
0.6000 0.4000 0.2000
0.6000 0.6000 0.2000
0.6000 0.8000 0.2000
0.6000 1.0000 0.2000
0.8000 0.0000 0.2000
0.8000 0.2000 0.2000
0.8000 0.4000 0.2000
0.8000 0.6000 0.2000
0.8000 0.8000 0.2000
0.8000 1.0000 0.2000
1.0000 0.0000 0.2000
1.0000 0.2000 0.2000
1.0000 0.4000 0.2000
1.0000 0.6000 0.2000
1.0000 0.8000 0.2000
1.0000 1.0000 0.2000
0.0000 0.0000 0.4000
0.0000 0.2000 0.4000
0.0000 0.4000 0.4000
0.0000 0.6000 0.4000
0.0000 0.8000 0.4000
0.0000 1.0000 0.4000
0.2000 0.0000 0.4000
0.2000 0.2000 0.4000
0.2000 0.4000 0.4000
0.2000 0.6000 0.4000
0.2000 0.8000 0.4000
0.2000 1.0000 0.4000
0.4000 0.0000 0.4000
0.4000 0.2000 0.4000
0.4000 0.4000 0.4000
0.4000 0.6000 0.4000
0.4000 0.8000 0.4000
0.4000 1.0000 0.4000
0.6000 0.0000 0.4000
0.6000 0.2000 0.4000
0.6000 0.4000 0.4000
0.6000 0.6000 0.4000
0.6000 0.8000 0.4000
0.6000 1.0000 0.4000
0.8000 0.0000 0.4000
0.8000 0.2000 0.4000
0.8000 0.4000 0.4000
0.8000 0.6000 0.4000
0.8000 0.8000 0.4000
0.8000 1.0000 0.4000
1.0000 0.0000 0.4000
1.0000 0.2000 0.4000
1.0000 0.4000 0.4000
1.0000 0.6000 0.4000
1.0000 0.8000 0.4000
1.0000 1.0000 0.4000
0.0000 0.0000 0.6000
0.0000 0.2000 0.6000
0.0000 0.4000 0.6000
0.0000 0.6000 0.6000
0.0000 0.8000 0.6000
0.0000 1.0000 0.6000
0.2000 0.0000 0.6000
0.2000 0.2000 0.6000
0.2000 0.4000 0.6000
0.2000 0.6000 0.6000
0.2000 0.8000 0.6000
0.2000 1.0000 0.6000
0.4000 0.0000 0.6000
0.4000 0.2000 0.6000
0.4000 0.4000 0.6000
0.4000 0.6000 0.6000
0.4000 0.8000 0.6000
0.4000 1.0000 0.6000
0.6000 0.0000 0.6000
0.6000 0.2000 0.6000
0.6000 0.4000 0.6000
0.6000 0.6000 0.6000
0.6000 0.8000 0.6000
0.6000 1.0000 0.6000
0.8000 0.0000 0.6000
0.8000 0.2000 0.6000
0.8000 0.4000 0.6000
0.8000 0.6000 0.6000
0.8000 0.8000 0.6000
0.8000 1.0000 0.6000
1.0000 0.0000 0.6000
1.0000 0.2000 0.6000
1.0000 0.4000 0.6000
1.0000 0.6000 0.6000
1.0000 0.8000 0.6000
1.0000 1.0000 0.6000
0.0000 0.0000 0.8000
0.0000 0.2000 0.8000
0.0000 0.4000 0.8000
0.0000 0.6000 0.8000
0.0000 0.8000 0.8000
0.0000 1.0000 0.8000
0.2000 0.0000 0.8000
0.2000 0.2000 0.8000
0.2000 0.4000 0.8000
0.2000 0.6000 0.8000
0.2000 0.8000 0.8000
0.2000 1.0000 0.8000
0.4000 0.0000 0.8000
0.4000 0.2000 0.8000
0.4000 0.4000 0.8000
0.4000 0.6000 0.8000
0.4000 0.8000 0.8000
0.4000 1.0000 0.8000
0.6000 0.0000 0.8000
0.6000 0.2000 0.8000
0.6000 0.4000 0.8000
0.6000 0.6000 0.8000
0.6000 0.8000 0.8000
0.6000 1.0000 0.8000
0.8000 0.0000 0.8000
0.8000 0.2000 0.8000
0.8000 0.4000 0.8000
0.8000 0.6000 0.8000
0.8000 0.8000 0.8000
0.8000 1.0000 0.8000
1.0000 0.0000 0.8000
1.0000 0.2000 0.8000
1.0000 0.4000 0.8000
1.0000 0.6000 0.8000
1.0000 0.8000 0.8000
1.0000 1.0000 0.8000
0.0000 0.0000 1.0000
0.0000 0.2000 1.0000
0.0000 0.4000 1.0000
0.0000 0.6000 1.0000
0.0000 0.8000 1.0000
0.0000 1.0000 1.0000
0.2000 0.0000 1.0000
0.2000 0.2000 1.0000
0.2000 0.4000 1.0000
0.2000 0.6000 1.0000
0.2000 0.8000 1.0000
0.2000 1.0000 1.0000
0.4000 0.0000 1.0000
0.4000 0.2000 1.0000
0.4000 0.4000 1.0000
0.4000 0.6000 1.0000
0.4000 0.8000 1.0000
0.4000 1.0000 1.0000
0.6000 0.0000 1.0000
0.6000 0.2000 1.0000
0.6000 0.4000 1.0000
0.6000 0.6000 1.0000
0.6000 0.8000 1.0000
0.6000 1.0000 1.0000
0.8000 0.0000 1.0000
0.8000 0.2000 1.0000
0.8000 0.4000 1.0000
0.8000 0.6000 1.0000
0.8000 0.8000 1.0000
0.8000 1.0000 1.0000
1.0000 0.0000 1.0000
1.0000 0.2000 1.0000
1.0000 0.4000 1.0000
1.0000 0.6000 1.0000
1.0000 0.8000 1.0000
1.0000 1.0000 1.0000</DataArray>
         </Points>
         <Cells>
            <DataArray Name="connectivity" format="ascii" type="Int32">
 1 7 43 37 0 6 42 36
 2 8 44 38 1 7 43 37
 3 9 45 39 2 8 44 38
 4 10 46 40 3 9 45 39
 5 11 47 41 4 10 46 40
 7 13 49 43 6 12 48 42
 8 14 50 44 7 13 49 43
 9 15 51 45 8 14 50 44
 10 16 52 46 9 15 51 45
 11 17 53 47 10 16 52 46
 13 19 55 49 12 18 54 48
 14 20 56 50 13 19 55 49
 15 21 57 51 14 20 56 50
 16 22 58 52 15 21 57 51
 17 23 59 53 16 22 58 52
 19 25 61 55 18 24 60 54
 20 26 62 56 19 25 61 55
 21 27 63 57 20 26 62 56
 22 28 64 58 21 27 63 57
 23 29 65 59 22 28 64 58
 25 31 67 61 24 30 66 60
 26 32 68 62 25 31 67 61
 27 33 69 63 26 32 68 62
 28 34 70 64 27 33 69 63
 29 35 71 65 28 34 70 64
 37 43 79 73 36 42 78 72
 38 44 80 74 37 43 79 73
 39 45 81 75 38 44 80 74
 40 46 82 76 39 45 81 75
 41 47 83 77 40 46 82 76
 43 49 85 79 42 48 84 78
 44 50 86 80 43 49 85 79
 45 51 87 81 44 50 86 80
 46 52 88 82 45 51 87 81
 47 53 89 83 46 52 88 82
 49 55 91 85 48 54 90 84
 50 56 92 86 49 55 91 85
 51 57 93 87 50 56 92 86
 52 58 94 88 51 57 93 87
 53 59 95 89 52 58 94 88
 55 61 97 91 54 60 96 90
 56 62 98 92 55 61 97 91
 57 63 99 93 56 62 98 92
 58 64 100 94 57 63 99 93
 59 65 101 95 58 64 100 94
 61 67 103 97 60 66 102 96
 62 68 104 98 61 67 103 97
 63 69 105 99 62 68 104 98
 64 70 106 100 63 69 105 99
 65 71 107 101 64 70 106 100
 73 79 115 109 72 78 114 108
 74 80 116 110 73 79 115 109
 75 81 117 111 74 80 116 110
 76 82 118 112 75 81 117 111
 77 83 119 113 76 82 118 112
 79 85 121 115 78 84 120 114
 80 86 122 116 79 85 121 115
 81 87 123 117 80 86 122 116
 82 88 124 118 81 87 123 117
 83 89 125 119 82 88 124 118
 85 91 127 121 84 90 126 120
 86 92 128 122 85 91 127 121
 87 93 129 123 86 92 128 122
 88 94 130 124 87 93 129 123
 89 95 131 125 88 94 130 124
 91 97 133 127 90 96 132 126
 92 98 134 128 91 97 133 127
 93 99 135 129 92 98 134 128
 94 100 136 130 93 99 135 129
 95 101 137 131 94 100 136 130
 97 103 139 133 96 102 138 132
 98 104 140 134 97 103 139 133
 99 105 141 135 98 104 140 134
 100 106 142 136 99 105 141 135
 101 107 143 137 100 106 142 136
 109 115 151 145 108 114 150 144
 110 116 152 146 109 115 151 145
 111 117 153 147 110 116 152 146
 112 118 154 148 111 117 153 147
 113 119 155 149 112 118 154 148
 115 121 157 151 114 120 156 150
 116 122 158 152 115 121 157 151
 117 123 159 153 116 122 158 152
 118 124 160 154 117 123 159 153
 119 125 161 155 118 124 160 154
 121 127 163 157 120 126 162 156
 122 128 164 158 121 127 163 157
 123 129 165 159 122 128 164 158
 124 130 166 160 123 129 165 159
 125 131 167 161 124 130 166 160
 127 133 169 163 126 132 168 162
 128 134 170 164 127 133 169 163
 129 135 171 165 128 134 170 164
 130 136 172 166 129 135 171 165
 131 137 173 167 130 136 172 166
 133 139 175 169 132 138 174 168
 134 140 176 170 133 139 175 169
 135 141 177 171 134 140 176 170
 136 142 178 172 135 141 177 171
 137 143 179 173 136 142 178 172
 145 151 187 181 144 150 186 180
 146 152 188 182 145 151 187 181
 147 153 189 183 146 152 188 182
 148 154 190 184 147 153 189 183
 149 155 191 185 148 154 190 184
 151 157 193 187 150 156 192 186
 152 158 194 188 151 157 193 187
 153 159 195 189 152 158 194 188
 154 160 196 190 153 159 195 189
 155 161 197 191 154 160 196 190
 157 163 199 193 156 162 198 192
 158 164 200 194 157 163 199 193
 159 165 201 195 158 164 200 194
 160 166 202 196 159 165 201 195
 161 167 203 197 160 166 202 196
 163 169 205 199 162 168 204 198
 164 170 206 200 163 169 205 199
 165 171 207 201 164 170 206 200
 166 172 208 202 165 171 207 201
 167 173 209 203 166 172 208 202
 169 175 211 205 168 174 210 204
 170 176 212 206 169 175 211 205
 171 177 213 207 170 176 212 206
 172 178 214 208 171 177 213 207
 173 179 215 209 172 178 214 208</DataArray>
            <DataArray Name="offsets" format="ascii" type="Int32">8 16 24 32 40 48 56 64 72 80 88 96 104 112 120 128 136 144 152 160 168 176 184 192 200 208 216 224 232 240 248 256 264 272 280 288 296 304 312 320 328 336 344 352 360 368 376 384 392 400 408 416 424 432 440 448 456 464 472 480 488 496 504 512 520 528 536 544 552 560 568 576 584 592 600 608 616 624 632 640 648 656 664 672 680 688 696 704 712 720 728 736 744 752 760 768 776 784 792 800 808 816 824 832 840 848 856 864 872 880 888 896 904 912 920 928 936 944 952 960 968 976 984 992 1000 </DataArray>
            <DataArray Name="types" format="ascii" type="UInt8">12 12 12 12 12 12 12 12 12 12 12 12 12 12 12 12 12 12 12 12 12 12 12 12 12 12 12 12 12 12 12 12 12 12 12 12 12 12 12 12 12 12 12 12 12 12 12 12 12 12 12 12 12 12 12 12 12 12 12 12 12 12 12 12 12 12 12 12 12 12 12 12 12 12 12 12 12 12 12 12 12 12 12 12 12 12 12 12 12 12 12 12 12 12 12 12 12 12 12 12 12 12 12 12 12 12 12 12 12 12 12 12 12 12 12 12 12 12 12 12 12 12 12 12 12 </DataArray>
         </Cells>
         <PointData>
            <DataArray Name="fValues" NumberOfComponents="3" format="ascii" type="Float64">
-1.07180e-16 -1.57189e-17  7.60019e-18 
 1.60552e-16  3.00000e-02 -1.86036e-17 
-2.97168e-16  6.00000e-02  1.32490e-17 
 1.44618e-16  9.00000e-02  1.32444e-18 
 2.59788e-17  1.20000e-01 -2.93934e-17 
 5.24511e-18  1.50000e-01  2.91283e-17 
 2.00000e-01 -2.96882e-18 -1.99914e-17 
 2.00000e-01  3.00000e-02  4.72627e-17 
 2.00000e-01  6.00000e-02 -2.88877e-17 
 2.00000e-01  9.00000e-02  2.94591e-17 
 2.00000e-01  1.20000e-01  2.17608e-17 
 2.00000e-01  1.50000e-01 -1.17455e-17 
 4.00000e-01  6.19107e-18  3.63473e-17 
 4.00000e-01  3.00000e-02 -4.61724e-17 
 4.00000e-01  6.00000e-02  6.02211e-17 
 4.00000e-01  9.00000e-02 -4.59491e-17 
 4.00000e-01  1.20000e-01  6.21603e-17 
 4.00000e-01  1.50000e-01 -4.67914e-17 
 6.00000e-01  1.89137e-17 -3.31016e-17 
 6.00000e-01  3.00000e-02  7.35437e-17 
 6.00000e-01  6.00000e-02 -7.91844e-17 
 6.00000e-01  9.00000e-02  9.17755e-17 
 6.00000e-01  1.20000e-01 -6.72132e-17 
 6.00000e-01  1.50000e-01  3.48989e-17 
 8.00000e-01 -3.84856e-17  4.69749e-18 
 8.00000e-01  3.00000e-02 -1.77849e-17 
 8.00000e-01  6.00000e-02  5.98675e-17 
 8.00000e-01  9.00000e-02 -7.89252e-17 
 8.00000e-01  1.20000e-01  8.70572e-17 
 8.00000e-01  1.50000e-01 -6.30286e-17 
 1.00000e+00  3.28621e-17 -9.78107e-18 
 1.00000e+00  3.00000e-02 -1.12288e-18 
 1.00000e+00  6.00000e-02 -3.08253e-17 
 1.00000e+00  9.00000e-02  2.83937e-17 
 1.00000e+00  1.20000e-01 -4.25167e-17 
 1.00000e+00  1.50000e-01  5.55047e-17 
 5.97561e-17  9.84758e-18  2.00000e-02 
-1.37048e-16  3.00000e-02  2.00000e-02 
 1.60946e-16  6.00000e-02  2.00000e-02 
-1.06431e-16  9.00000e-02  2.00000e-02 
-2.09892e-16  1.20000e-01  2.00000e-02 
 8.72090e-17  1.50000e-01  2.00000e-02 
 2.00000e-01  6.37835e-18  2.00000e-02 
 2.00000e-01  3.00000e-02  2.00000e-02 
 2.00000e-01  6.00000e-02  2.00000e-02 
 2.00000e-01  9.00000e-02  2.00000e-02 
 2.00000e-01  1.20000e-01  2.00000e-02 
 2.00000e-01  1.50000e-01  2.00000e-02 
 4.00000e-01 -1.66830e-17  2.00000e-02 
 4.00000e-01  3.00000e-02  2.00000e-02 
 4.00000e-01  6.00000e-02  2.00000e-02 
 4.00000e-01  9.00000e-02  2.00000e-02 
 4.00000e-01  1.20000e-01  2.00000e-02 
 4.00000e-01  1.50000e-01  2.00000e-02 
 6.00000e-01 -1.87017e-17  2.00000e-02 
 6.00000e-01  3.00000e-02  2.00000e-02 
 6.00000e-01  6.00000e-02  2.00000e-02 
 6.00000e-01  9.00000e-02  2.00000e-02 
 6.00000e-01  1.20000e-01  2.00000e-02 
 6.00000e-01  1.50000e-01  2.00000e-02 
 8.00000e-01  6.71206e-18  2.00000e-02 
 8.00000e-01  3.00000e-02  2.00000e-02 
 8.00000e-01  6.00000e-02  2.00000e-02 
 8.00000e-01  9.00000e-02  2.00000e-02 
 8.00000e-01  1.20000e-01  2.00000e-02 
 8.00000e-01  1.50000e-01  2.00000e-02 
 1.00000e+00 -2.10016e-17  2.00000e-02 
 1.00000e+00  3.00000e-02  2.00000e-02 
 1.00000e+00  6.00000e-02  2.00000e-02 
 1.00000e+00  9.00000e-02  2.00000e-02 
 1.00000e+00  1.20000e-01  2.00000e-02 
 1.00000e+00  1.50000e-01  2.00000e-02 
 6.20913e-17 -2.03988e-17  4.00000e-02 
-3.24647e-17  3.00000e-02  4.00000e-02 
-9.87811e-17  6.00000e-02  4.00000e-02 
-1.27901e-16  9.00000e-02  4.00000e-02 
 2.68687e-16  1.20000e-01  4.00000e-02 
-2.41147e-16  1.50000e-01  4.00000e-02 
 2.00000e-01  3.90549e-18  4.00000e-02 
 2.00000e-01  3.00000e-02  4.00000e-02 
 2.00000e-01  6.00000e-02  4.00000e-02 
 2.00000e-01  9.00000e-02  4.00000e-02 
 2.00000e-01  1.20000e-01  4.00000e-02 
 2.00000e-01  1.50000e-01  4.00000e-02 
 4.00000e-01  2.61804e-17  4.00000e-02 
 4.00000e-01  3.00000e-02  4.00000e-02 
 4.00000e-01  6.00000e-02  4.00000e-02 
 4.00000e-01  9.00000e-02  4.00000e-02 
 4.00000e-01  1.20000e-01  4.00000e-02 
 4.00000e-01  1.50000e-01  4.00000e-02 
 6.00000e-01 -8.22913e-18  4.00000e-02 
 6.00000e-01  3.00000e-02  4.00000e-02 
 6.00000e-01  6.00000e-02  4.00000e-02 
 6.00000e-01  9.00000e-02  4.00000e-02 
 6.00000e-01  1.20000e-01  4.00000e-02 
 6.00000e-01  1.50000e-01  4.00000e-02 
 8.00000e-01  8.15845e-18  4.00000e-02 
 8.00000e-01  3.00000e-02  4.00000e-02 
 8.00000e-01  6.00000e-02  4.00000e-02 
 8.00000e-01  9.00000e-02  4.00000e-02 
 8.00000e-01  1.20000e-01  4.00000e-02 
 8.00000e-01  1.50000e-01  4.00000e-02 
 1.00000e+00  5.59952e-18  4.00000e-02 
 1.00000e+00  3.00000e-02  4.00000e-02 
 1.00000e+00  6.00000e-02  4.00000e-02 
 1.00000e+00  9.00000e-02  4.00000e-02 
 1.00000e+00  1.20000e-01  4.00000e-02 
 1.00000e+00  1.50000e-01  4.00000e-02 
-7.63448e-17  8.36290e-18  6.00000e-02 
 4.77143e-17  3.00000e-02  6.00000e-02 
 2.16718e-17  6.00000e-02  6.00000e-02 
 1.31508e-16  9.00000e-02  6.00000e-02 
-3.15566e-16  1.20000e-01  6.00000e-02 
 1.65737e-16  1.50000e-01  6.00000e-02 
 2.00000e-01 -5.83422e-18  6.00000e-02 
 2.00000e-01  3.00000e-02  6.00000e-02 
 2.00000e-01  6.00000e-02  6.00000e-02 
 2.00000e-01  9.00000e-02  6.00000e-02 
 2.00000e-01  1.20000e-01  6.00000e-02 
 2.00000e-01  1.50000e-01  6.00000e-02 
 4.00000e-01 -1.55601e-17  6.00000e-02 
 4.00000e-01  3.00000e-02  6.00000e-02 
 4.00000e-01  6.00000e-02  6.00000e-02 
 4.00000e-01  9.00000e-02  6.00000e-02 
 4.00000e-01  1.20000e-01  6.00000e-02 
 4.00000e-01  1.50000e-01  6.00000e-02 
 6.00000e-01 -2.23385e-18  6.00000e-02 
 6.00000e-01  3.00000e-02  6.00000e-02 
 6.00000e-01  6.00000e-02  6.00000e-02 
 6.00000e-01  9.00000e-02  6.00000e-02 
 6.00000e-01  1.20000e-01  6.00000e-02 
 6.00000e-01  1.50000e-01  6.00000e-02 
 8.00000e-01 -8.60488e-18  6.00000e-02 
 8.00000e-01  3.00000e-02  6.00000e-02 
 8.00000e-01  6.00000e-02  6.00000e-02 
 8.00000e-01  9.00000e-02  6.00000e-02 
 8.00000e-01  1.20000e-01  6.00000e-02 
 8.00000e-01  1.50000e-01  6.00000e-02 
 1.00000e+00  3.12778e-17  6.00000e-02 
 1.00000e+00  3.00000e-02  6.00000e-02 
 1.00000e+00  6.00000e-02  6.00000e-02 
 1.00000e+00  9.00000e-02  6.00000e-02 
 1.00000e+00  1.20000e-01  6.00000e-02 
 1.00000e+00  1.50000e-01  6.00000e-02 
 1.43572e-16 -2.85294e-17  8.00000e-02 
-2.71371e-16  3.00000e-02  8.00000e-02 
-1.43420e-17  6.00000e-02  8.00000e-02 
-3.92075e-17  9.00000e-02  8.00000e-02 
-9.78078e-18  1.20000e-01  8.00000e-02 
 1.08917e-16  1.50000e-01  8.00000e-02 
 2.00000e-01  6.22185e-17  8.00000e-02 
 2.00000e-01  3.00000e-02  8.00000e-02 
 2.00000e-01  6.00000e-02  8.00000e-02 
 2.00000e-01  9.00000e-02  8.00000e-02 
 2.00000e-01  1.20000e-01  8.00000e-02 
 2.00000e-01  1.50000e-01  8.00000e-02 
 4.00000e-01 -2.74466e-17  8.00000e-02 
 4.00000e-01  3.00000e-02  8.00000e-02 
 4.00000e-01  6.00000e-02  8.00000e-02 
 4.00000e-01  9.00000e-02  8.00000e-02 
 4.00000e-01  1.20000e-01  8.00000e-02 
 4.00000e-01  1.50000e-01  8.00000e-02 
 6.00000e-01  6.16364e-17  8.00000e-02 
 6.00000e-01  3.00000e-02  8.00000e-02 
 6.00000e-01  6.00000e-02  8.00000e-02 
 6.00000e-01  9.00000e-02  8.00000e-02 
 6.00000e-01  1.20000e-01  8.00000e-02 
 6.00000e-01  1.50000e-01  8.00000e-02 
 8.00000e-01 -2.32658e-17  8.00000e-02 
 8.00000e-01  3.00000e-02  8.00000e-02 
 8.00000e-01  6.00000e-02  8.00000e-02 
 8.00000e-01  9.00000e-02  8.00000e-02 
 8.00000e-01  1.20000e-01  8.00000e-02 
 8.00000e-01  1.50000e-01  8.00000e-02 
 1.00000e+00 -1.41101e-17  8.00000e-02 
 1.00000e+00  3.00000e-02  8.00000e-02 
 1.00000e+00  6.00000e-02  8.00000e-02 
 1.00000e+00  9.00000e-02  8.00000e-02 
 1.00000e+00  1.20000e-01  8.00000e-02 
 1.00000e+00  1.50000e-01  8.00000e-02 
-1.15596e-16  9.75810e-18  1.00000e-01 
 2.20684e-16  3.00000e-02  1.00000e-01 
 4.92091e-17  6.00000e-02  1.00000e-01 
-3.38083e-17  9.00000e-02  1.00000e-01 
 1.76310e-16  1.20000e-01  1.00000e-01 
-1.90383e-16  1.50000e-01  1.00000e-01 
 2.00000e-01 -6.44870e-17  1.00000e-01 
 2.00000e-01  3.00000e-02  1.00000e-01 
 2.00000e-01  6.00000e-02  1.00000e-01 
 2.00000e-01  9.00000e-02  1.00000e-01 
 2.00000e-01  1.20000e-01  1.00000e-01 
 2.00000e-01  1.50000e-01  1.00000e-01 
 4.00000e-01  5.97002e-17  1.00000e-01 
 4.00000e-01  3.00000e-02  1.00000e-01 
 4.00000e-01  6.00000e-02  1.00000e-01 
 4.00000e-01  9.00000e-02  1.00000e-01 
 4.00000e-01  1.20000e-01  1.00000e-01 
 4.00000e-01  1.50000e-01  1.00000e-01 
 6.00000e-01 -4.73984e-17  1.00000e-01 
 6.00000e-01  3.00000e-02  1.00000e-01 
 6.00000e-01  6.00000e-02  1.00000e-01 
 6.00000e-01  9.00000e-02  1.00000e-01 
 6.00000e-01  1.20000e-01  1.00000e-01 
 6.00000e-01  1.50000e-01  1.00000e-01 
 8.00000e-01  3.27635e-19  1.00000e-01 
 8.00000e-01  3.00000e-02  1.00000e-01 
 8.00000e-01  6.00000e-02  1.00000e-01 
 8.00000e-01  9.00000e-02  1.00000e-01 
 8.00000e-01  1.20000e-01  1.00000e-01 
 8.00000e-01  1.50000e-01  1.00000e-01 
 1.00000e+00 -1.80015e-18  1.00000e-01 
 1.00000e+00  3.00000e-02  1.00000e-01 
 1.00000e+00  6.00000e-02  1.00000e-01 
 1.00000e+00  9.00000e-02  1.00000e-01 
 1.00000e+00  1.20000e-01  1.00000e-01 
 1.00000e+00  1.50000e-01  1.00000e-01 </DataArray>
         </PointData>
         <CellData/>
      </Piece>
   </UnstructuredGrid>
</VTKFile>