<?xml version="1.0" encoding="utf-8"?>
<VTKFile byte_order="LittleEndian" type="UnstructuredGrid" version="0.1">
   <UnstructuredGrid>
      <Piece NumberOfCells="39204" NumberOfPoints="19801">
         <Points>
            <DataArray Name="Points" NumberOfComponents="3" format="ascii" type="Float32">
0.0000 0.0000 0.0000
0.0000 0.0101 0.0000
0.0000 0.0202 0.0000
0.0000 0.0303 0.0000
0.0000 0.0404 0.0000
0.0000 0.0505 0.0000
0.0000 0.0606 0.0000
0.0000 0.0707 0.0000
0.0000 0.0808 0.0000
0.0000 0.0909 0.0000
0.0000 0.1010 0.0000
0.0000 0.1111 0.0000
0.0000 0.1212 0.0000
0.0000 0.1313 0.0000
0.0000 0.1414 0.0000
0.0000 0.1515 0.0000
0.0000 0.1616 0.0000
0.0000 0.1717 0.0000
0.0000 0.1818 0.0000
0.0000 0.1919 0.0000
0.0000 0.2020 0.0000
0.0000 0.2121 0.0000
0.0000 0.2222 0.0000
0.0000 0.2323 0.0000
0.0000 0.2424 0.0000
0.0000 0.2525 0.0000
0.0000 0.2626 0.0000
0.0000 0.2727 0.0000
0.0000 0.2828 0.0000
0.0000 0.2929 0.0000
0.0000 0.3030 0.0000
0.0000 0.3131 0.0000
0.0000 0.3232 0.0000
0.0000 0.3333 0.0000
0.0000 0.3434 0.0000
0.0000 0.3535 0.0000
0.0000 0.3636 0.0000
0.0000 0.3737 0.0000
0.0000 0.3838 0.0000
0.0000 0.3939 0.0000
0.0000 0.4040 0.0000
0.0000 0.4141 0.0000
0.0000 0.4242 0.0000
0.0000 0.4343 0.0000
0.0000 0.4444 0.0000
0.0000 0.4545 0.0000
0.0000 0.4646 0.0000
0.0000 0.4747 0.0000
0.0000 0.4848 0.0000
0.0000 0.4949 0.0000
0.0000 0.5051 0.0000
0.0000 0.5152 0.0000
0.0000 0.5253 0.0000
0.0000 0.5354 0.0000
0.0000 0.5455 0.0000
0.0000 0.5556 0.0000
0.0000 0.5657 0.0000
0.0000 0.5758 0.0000
0.0000 0.5859 0.0000
0.0000 0.5960 0.0000
0.0000 0.6061 0.0000
0.0000 0.6162 0.0000
0.0000 0.6263 0.0000
0.0000 0.6364 0.0000
0.0000 0.6465 0.0000
0.0000 0.6566 0.0000
0.0000 0.6667 0.0000
0.0000 0.6768 0.0000
0.0000 0.6869 0.0000
0.0000 0.6970 0.0000
0.0000 0.7071 0.0000
0.0000 0.7172 0.0000
0.0000 0.7273 0.0000
0.0000 0.7374 0.0000
0.0000 0.7475 0.0000
0.0000 0.7576 0.0000
0.0000 0.7677 0.0000
0.0000 0.7778 0.0000
0.0000 0.7879 0.0000
0.0000 0.7980 0.0000
0.0000 0.8081 0.0000
0.0000 0.8182 0.0000
0.0000 0.8283 0.0000
0.0000 0.8384 0.0000
0.0000 0.8485 0.0000
0.0000 0.8586 0.0000
0.0000 0.8687 0.0000
0.0000 0.8788 0.0000
0.0000 0.8889 0.0000
0.0000 0.8990 0.0000
0.0000 0.9091 0.0000
0.0000 0.9192 0.0000
0.0000 0.9293 0.0000
0.0000 0.9394 0.0000
0.0000 0.9495 0.0000
0.0000 0.9596 0.0000
0.0000 0.9697 0.0000
0.0000 0.9798 0.0000
0.0000 0.9899 0.0000
0.0000 1.0000 0.0000
0.0101 0.0000 0.0000
0.0101 0.0101 0.0000
0.0101 0.0202 0.0000
0.0101 0.0303 0.0000
0.0101 0.0404 0.0000
0.0101 0.0505 0.0000
0.0101 0.0606 0.0000
0.0101 0.0707 0.0000
0.0101 0.0808 0.0000
0.0101 0.0909 0.0000
0.0101 0.1010 0.0000
0.0101 0.1111 0.0000
0.0101 0.1212 0.0000
0.0101 0.1313 0.0000
0.0101 0.1414 0.0000
0.0101 0.1515 0.0000
0.0101 0.1616 0.0000
0.0101 0.1717 0.0000
0.0101 0.1818 0.0000
0.0101 0.1919 0.0000
0.0101 0.2020 0.0000
0.0101 0.2121 0.0000
0.0101 0.2222 0.0000
0.0101 0.2323 0.0000
0.0101 0.2424 0.0000
0.0101 0.2525 0.0000
0.0101 0.2626 0.0000
0.0101 0.2727 0.0000
0.0101 0.2828 0.0000
0.0101 0.2929 0.0000
0.0101 0.3030 0.0000
0.0101 0.3131 0.0000
0.0101 0.3232 0.0000
0.0101 0.3333 0.0000
0.0101 0.3434 0.0000
0.0101 0.3535 0.0000
0.0101 0.3636 0.0000
0.0101 0.3737 0.0000
0.0101 0.3838 0.0000
0.0101 0.3939 0.0000
0.0101 0.4040 0.0000
0.0101 0.4141 0.0000
0.0101 0.4242 0.0000
0.0101 0.4343 0.0000
0.0101 0.4444 0.0000
0.0101 0.4545 0.0000
0.0101 0.4646 0.0000
0.0101 0.4747 0.0000
0.0101 0.4848 0.0000
0.0101 0.4949 0.0000
0.0101 0.5051 0.0000
0.0101 0.5152 0.0000
0.0101 0.5253 0.0000
0.0101 0.5354 0.0000
0.0101 0.5455 0.0000
0.0101 0.5556 0.0000
0.0101 0.5657 0.0000
0.0101 0.5758 0.0000
0.0101 0.5859 0.0000
0.0101 0.5960 0.0000
0.0101 0.6061 0.0000
0.0101 0.6162 0.0000
0.0101 0.6263 0.0000
0.0101 0.6364 0.0000
0.0101 0.6465 0.0000
0.0101 0.6566 0.0000
0.0101 0.6667 0.0000
0.0101 0.6768 0.0000
0.0101 0.6869 0.0000
0.0101 0.6970 0.0000
0.0101 0.7071 0.0000
0.0101 0.7172 0.0000
0.0101 0.7273 0.0000
0.0101 0.7374 0.0000
0.0101 0.7475 0.0000
0.0101 0.7576 0.0000
0.0101 0.7677 0.0000
0.0101 0.7778 0.0000
0.0101 0.7879 0.0000
0.0101 0.7980 0.0000
0.0101 0.8081 0.0000
0.0101 0.8182 0.0000
0.0101 0.8283 0.0000
0.0101 0.8384 0.0000
0.0101 0.8485 0.0000
0.0101 0.8586 0.0000
0.0101 0.8687 0.0000
0.0101 0.8788 0.0000
0.0101 0.8889 0.0000
0.0101 0.8990 0.0000
0.0101 0.9091 0.0000
0.0101 0.9192 0.0000
0.0101 0.9293 0.0000
0.0101 0.9394 0.0000
0.0101 0.9495 0.0000
0.0101 0.9596 0.0000
0.0101 0.9697 0.0000
0.0101 0.9798 0.0000
0.0101 0.9899 0.0000
0.0101 1.0000 0.0000
0.0202 0.0000 0.0000
0.0202 0.0101 0.0000
0.0202 0.0202 0.0000
0.0202 0.0303 0.0000
0.0202 0.0404 0.0000
0.0202 0.0505 0.0000
0.0202 0.0606 0.0000
0.0202 0.0707 0.0000
0.0202 0.0808 0.0000
0.0202 0.0909 0.0000
0.0202 0.1010 0.0000
0.0202 0.1111 0.0000
0.0202 0.1212 0.0000
0.0202 0.1313 0.0000
0.0202 0.1414 0.0000
0.0202 0.1515 0.0000
0.0202 0.1616 0.0000
0.0202 0.1717 0.0000
0.0202 0.1818 0.0000
0.0202 0.1919 0.0000
0.0202 0.2020 0.0000
0.0202 0.2121 0.0000
0.0202 0.2222 0.0000
0.0202 0.2323 0.0000
0.0202 0.2424 0.0000
0.0202 0.2525 0.0000
0.0202 0.2626 0.0000
0.0202 0.2727 0.0000
0.0202 0.2828 0.0000
0.0202 0.2929 0.0000
0.0202 0.3030 0.0000
0.0202 0.3131 0.0000
0.0202 0.3232 0.0000
0.0202 0.3333 0.0000
0.0202 0.3434 0.0000
0.0202 0.3535 0.0000
0.0202 0.3636 0.0000
0.0202 0.3737 0.0000
0.0202 0.3838 0.0000
0.0202 0.3939 0.0000
0.0202 0.4040 0.0000
0.0202 0.4141 0.0000
0.0202 0.4242 0.0000
0.0202 0.4343 0.0000
0.0202 0.4444 0.0000
0.0202 0.4545 0.0000
0.0202 0.4646 0.0000
0.0202 0.4747 0.0000
0.0202 0.4848 0.0000
0.0202 0.4949 0.0000
0.0202 0.5051 0.0000
0.0202 0.5152 0.0000
0.0202 0.5253 0.0000
0.0202 0.5354 0.0000
0.0202 0.5455 0.0000
0.0202 0.5556 0.0000
0.0202 0.5657 0.0000
0.0202 0.5758 0.0000
0.0202 0.5859 0.0000
0.0202 0.5960 0.0000
0.0202 0.6061 0.0000
0.0202 0.6162 0.0000
0.0202 0.6263 0.0000
0.0202 0.6364 0.0000
0.0202 0.6465 0.0000
0.0202 0.6566 0.0000
0.0202 0.6667 0.0000
0.0202 0.6768 0.0000
0.0202 0.6869 0.0000
0.0202 0.6970 0.0000
0.0202 0.7071 0.0000
0.0202 0.7172 0.0000
0.0202 0.7273 0.0000
0.0202 0.7374 0.0000
0.0202 0.7475 0.0000
0.0202 0.7576 0.0000
0.0202 0.7677 0.0000
0.0202 0.7778 0.0000
0.0202 0.7879 0.0000
0.0202 0.7980 0.0000
0.0202 0.8081 0.0000
0.0202 0.8182 0.0000
0.0202 0.8283 0.0000
0.0202 0.8384 0.0000
0.0202 0.8485 0.0000
0.0202 0.8586 0.0000
0.0202 0.8687 0.0000
0.0202 0.8788 0.0000
0.0202 0.8889 0.0000
0.0202 0.8990 0.0000
0.0202 0.9091 0.0000
0.0202 0.9192 0.0000
0.0202 0.9293 0.0000
0.0202 0.9394 0.0000
0.0202 0.9495 0.0000
0.0202 0.9596 0.0000
0.0202 0.9697 0.0000
0.0202 0.9798 0.0000
0.0202 0.9899 0.0000
0.0202 1.0000 0.0000
0.0303 0.0000 0.0000
0.0303 0.0101 0.0000
0.0303 0.0202 0.0000
0.0303 0.0303 0.0000
0.0303 0.0404 0.0000
0.0303 0.0505 0.0000
0.0303 0.0606 0.0000
0.0303 0.0707 0.0000
0.0303 0.0808 0.0000
0.0303 0.0909 0.0000
0.0303 0.1010 0.0000
0.0303 0.1111 0.0000
0.0303 0.1212 0.0000
0.0303 0.1313 0.0000
0.0303 0.1414 0.0000
0.0303 0.1515 0.0000
0.0303 0.1616 0.0000
0.0303 0.1717 0.0000
0.0303 0.1818 0.0000
0.0303 0.1919 0.0000
0.0303 0.2020 0.0000
0.0303 0.2121 0.0000
0.0303 0.2222 0.0000
0.0303 0.2323 0.0000
0.0303 0.2424 0.0000
0.0303 0.2525 0.0000
0.0303 0.2626 0.0000
0.0303 0.2727 0.0000
0.0303 0.2828 0.0000
0.0303 0.2929 0.0000
0.0303 0.3030 0.0000
0.0303 0.3131 0.0000
0.0303 0.3232 0.0000
0.0303 0.3333 0.0000
0.0303 0.3434 0.0000
0.0303 0.3535 0.0000
0.0303 0.3636 0.0000
0.0303 0.3737 0.0000
0.0303 0.3838 0.0000
0.0303 0.3939 0.0000
0.0303 0.4040 0.0000
0.0303 0.4141 0.0000
0.0303 0.4242 0.0000
0.0303 0.4343 0.0000
0.0303 0.4444 0.0000
0.0303 0.4545 0.0000
0.0303 0.4646 0.0000
0.0303 0.4747 0.0000
0.0303 0.4848 0.0000
0.0303 0.4949 0.0000
0.0303 0.5051 0.0000
0.0303 0.5152 0.0000
0.0303 0.5253 0.0000
0.0303 0.5354 0.0000
0.0303 0.5455 0.0000
0.0303 0.5556 0.0000
0.0303 0.5657 0.0000
0.0303 0.5758 0.0000
0.0303 0.5859 0.0000
0.0303 0.5960 0.0000
0.0303 0.6061 0.0000
0.0303 0.6162 0.0000
0.0303 0.6263 0.0000
0.0303 0.6364 0.0000
0.0303 0.6465 0.0000
0.0303 0.6566 0.0000
0.0303 0.6667 0.0000
0.0303 0.6768 0.0000
0.0303 0.6869 0.0000
0.0303 0.6970 0.0000
0.0303 0.7071 0.0000
0.0303 0.7172 0.0000
0.0303 0.7273 0.0000
0.0303 0.7374 0.0000
0.0303 0.7475 0.0000
0.0303 0.7576 0.0000
0.0303 0.7677 0.0000
0.0303 0.7778 0.0000
0.0303 0.7879 0.0000
0.0303 0.7980 0.0000
0.0303 0.8081 0.0000
0.0303 0.8182 0.0000
0.0303 0.8283 0.0000
0.0303 0.8384 0.0000
0.0303 0.8485 0.0000
0.0303 0.8586 0.0000
0.0303 0.8687 0.0000
0.0303 0.8788 0.0000
0.0303 0.8889 0.0000
0.0303 0.8990 0.0000
0.0303 0.9091 0.0000
0.0303 0.9192 0.0000
0.0303 0.9293 0.0000
0.0303 0.9394 0.0000
0.0303 0.9495 0.0000
0.0303 0.9596 0.0000
0.0303 0.9697 0.0000
0.0303 0.9798 0.0000
0.0303 0.9899 0.0000
0.0303 1.0000 0.0000
0.0404 0.0000 0.0000
0.0404 0.0101 0.0000
0.0404 0.0202 0.0000
0.0404 0.0303 0.0000
0.0404 0.0404 0.0000
0.0404 0.0505 0.0000
0.0404 0.0606 0.0000
0.0404 0.0707 0.0000
0.0404 0.0808 0.0000
0.0404 0.0909 0.0000
0.0404 0.1010 0.0000
0.0404 0.1111 0.0000
0.0404 0.1212 0.0000
0.0404 0.1313 0.0000
0.0404 0.1414 0.0000
0.0404 0.1515 0.0000
0.0404 0.1616 0.0000
0.0404 0.1717 0.0000
0.0404 0.1818 0.0000
0.0404 0.1919 0.0000
0.0404 0.2020 0.0000
0.0404 0.2121 0.0000
0.0404 0.2222 0.0000
0.0404 0.2323 0.0000
0.0404 0.2424 0.0000
0.0404 0.2525 0.0000
0.0404 0.2626 0.0000
0.0404 0.2727 0.0000
0.0404 0.2828 0.0000
0.0404 0.2929 0.0000
0.0404 0.3030 0.0000
0.0404 0.3131 0.0000
0.0404 0.3232 0.0000
0.0404 0.3333 0.0000
0.0404 0.3434 0.0000
0.0404 0.3535 0.0000
0.0404 0.3636 0.0000
0.0404 0.3737 0.0000
0.0404 0.3838 0.0000
0.0404 0.3939 0.0000
0.0404 0.4040 0.0000
0.0404 0.4141 0.0000
0.0404 0.4242 0.0000
0.0404 0.4343 0.0000
0.0404 0.4444 0.0000
0.0404 0.4545 0.0000
0.0404 0.4646 0.0000
0.0404 0.4747 0.0000
0.0404 0.4848 0.0000
0.0404 0.4949 0.0000
0.0404 0.5051 0.0000
0.0404 0.5152 0.0000
0.0404 0.5253 0.0000
0.0404 0.5354 0.0000
0.0404 0.5455 0.0000
0.0404 0.5556 0.0000
0.0404 0.5657 0.0000
0.0404 0.5758 0.0000
0.0404 0.5859 0.0000
0.0404 0.5960 0.0000
0.0404 0.6061 0.0000
[...]
         <PointData>
            <DataArray Name="fValues" NumberOfComponents="1" format="ascii" type="Float64">
-2.23653e+01 
-1.26095e+01 
-7.85823e+00 
-5.61203e+00 
-4.19653e+00 
-3.19602e+00 
-2.44354e+00 
-1.86085e+00 
-1.40887e+00 
-1.06847e+00 
-8.29555e-01 
-6.82460e-01 
-6.11514e-01 
-5.92634e-01 
-5.93725e-01 
-5.62028e-01 
-4.36766e-01 
-2.62216e-01 
 3.97312e-01 
 5.41623e-01 
 5.48816e-01 
 5.50423e-01 
 5.32586e-01 
 3.29249e-01 
-1.29158e-01 
 3.90579e-01 
 5.50214e-01 
 5.54683e-01 
 5.40151e-01 
 3.47150e-01 
-5.27667e-01 
-9.46164e-01 
 1.89898e-01 
 5.48074e-01 
 5.57273e-01 
 5.57449e-01 
 5.57588e-01 
 5.57716e-01 
 5.57837e-01 
 5.57949e-01 
 5.58055e-01 
 5.58154e-01 
 5.58247e-01 
 5.58325e-01 
 5.58398e-01 
 5.58466e-01 
 5.58518e-01 
 5.58570e-01 
 5.58606e-01 
 5.58628e-01 
 5.58641e-01 
 5.58646e-01 
 5.58642e-01 
 5.58627e-01 
 5.58587e-01 
 5.58544e-01 
 5.58492e-01 
 5.58424e-01 
 5.58339e-01 
 5.58244e-01 
 5.58137e-01 
 5.58017e-01 
 5.57880e-01 
 5.57727e-01 
 5.57555e-01 
 5.57365e-01 
 5.57164e-01 
 5.56907e-01 
 5.56609e-01 
 5.56115e-01 
 5.55055e-01 
 5.53890e-01 
 5.53679e-01 
 5.52964e-01 
 4.79783e-01 
-2.36838e-01 
-7.28749e-01 
-1.18008e-01 
 4.03228e-01 
 5.34373e-01 
 5.49721e-01 
 5.50583e-01 
 5.49195e-01 
 5.45922e-01 
 5.29788e-01 
 3.35402e-01 
-3.47151e-01 
-8.30579e-01 
-1.04030e+00 
-1.19772e+00 
-1.41314e+00 
-1.70748e+00 
-2.09316e+00 
-2.58908e+00 
-3.22979e+00 
-4.08029e+00 
-5.27368e+00 
-7.12954e+00 
-1.08842e+01 
-1.82076e+01 
-1.79539e+01 
-1.21284e+01 
-7.98075e+00 
-5.74483e+00 
-4.30754e+00 
-3.28202e+00 
-2.50799e+00 
-1.90637e+00 
-1.43768e+00 
-1.08406e+00 
-8.38111e-01 
-6.92355e-01 
-6.30451e-01 
-6.25429e-01 
-6.44430e-01 
-6.28361e-01 
-4.47165e-01 
-4.43440e-02 
 4.38218e-01 
 5.38284e-01 
 5.48916e-01 
 5.48813e-01 
 4.84538e-01 
 1.66940e-01 
 1.28514e-01 
 4.93645e-01 
 5.52518e-01 
 5.54294e-01 
 5.25846e-01 
 1.85636e-01 
-6.43951e-01 
-4.81234e-01 
 4.03255e-01 
 5.51997e-01 
 5.57142e-01 
 5.57398e-01 
 5.57559e-01 
 5.57698e-01 
 5.57825e-01 
 5.57942e-01 
 5.58050e-01 
 5.58149e-01 
 5.58241e-01 
 5.58321e-01 
 5.58394e-01 
 5.58457e-01 
 5.58509e-01 
 5.58555e-01 
 5.58593e-01 
 5.58619e-01 
 5.58634e-01 
 5.58640e-01 
 5.58636e-01 
 5.58617e-01 
 5.58584e-01 
 5.58552e-01 
 5.58504e-01 
 5.58444e-01 
 5.58373e-01 
 5.58286e-01 
 5.58186e-01 
 5.58072e-01 
 5.57944e-01 
 5.57799e-01 
 5.57636e-01 
 5.57455e-01 
 5.57257e-01 
 5.57024e-01 
 5.56752e-01 
 5.56363e-01 
 5.55542e-01 
 5.54453e-01 
 5.53627e-01 
 5.53955e-01 
 5.36440e-01 
 2.27527e-01 
-4.70623e-01 
-3.54746e-01 
 2.50741e-01 
 5.08287e-01 
 5.47723e-01 
 5.50290e-01 
 5.49753e-01 
 5.47672e-01 
 5.31106e-01 
 3.47219e-01 
-2.54251e-01 
-7.39434e-01 
-9.83803e-01 
-1.15903e+00 
-1.38957e+00 
-1.70013e+00 
-2.10245e+00 
-2.61595e+00 
-3.27688e+00 
-4.15302e+00 
-5.37762e+00 
-7.26418e+00 
-1.07009e+01 
-1.53416e+01 
-1.09604e+01 
-1.00635e+01 
-7.81462e+00 
-5.87723e+00 
-4.48344e+00 
-3.44775e+00 
-2.64861e+00 
-2.01637e+00 
-1.51431e+00 
-1.12875e+00 
-8.60881e-01 
-7.12401e-01 
-6.67506e-01 
-6.87758e-01 
-7.27088e-01 
-7.29894e-01 
-6.11058e-01 
-4.17512e-01 
 1.52295e-02 
 4.13323e-01 
 5.32647e-01 
 5.07758e-01 
 2.34027e-01 
 1.43599e-02 
 4.00048e-01 
 5.43658e-01 
 5.53409e-01 
 5.46715e-01 
 3.67542e-01 
-4.10368e-01 
-7.21809e-01 
 1.29404e-01 
 5.29646e-01 
 5.56380e-01 
 5.56899e-01 
 5.57208e-01 
 5.57420e-01 
 5.57586e-01 
 5.57730e-01 
 5.57859e-01 
 5.57977e-01 
 5.58082e-01 
 5.58176e-01 
 5.58261e-01 
 5.58336e-01 
 5.58399e-01 
 5.58455e-01 
 5.58502e-01 
 5.58539e-01 
 5.58569e-01 
 5.58590e-01 
 5.58600e-01 
 5.58597e-01 
 5.58579e-01 
 5.58554e-01 
 5.58515e-01 
 5.58465e-01 
 5.58411e-01 
 5.58344e-01 
 5.58265e-01 
 5.58171e-01 
 5.58064e-01 
 5.57942e-01 
 5.57804e-01 
 5.57649e-01 
 5.57476e-01 
 5.57284e-01 
 5.57066e-01 
 5.56818e-01 
 5.56491e-01 
 5.55860e-01 
 5.54901e-01 
 5.53851e-01 
 5.53429e-01 
 5.53562e-01 
 5.02197e-01 
 1.28183e-01 
-4.91972e-01 
-4.11639e-01 
 2.34814e-01 
 5.04879e-01 
 5.47479e-01 
 5.48717e-01 
 5.38531e-01 
 4.01421e-01 
-1.34797e-01 
-5.61886e-01 
-7.02242e-01 
-9.03636e-01 
-1.11571e+00 
-1.38309e+00 
-1.72654e+00 
-2.15809e+00 
-2.69761e+00 
-3.38107e+00 
-4.27068e+00 
-5.47294e+00 
-7.15540e+00 
-9.20884e+00 
-1.02962e+01 
-8.56203e+00 
-8.19859e+00 
-7.02396e+00 
-5.65693e+00 
-4.46763e+00 
-3.50505e+00 
-2.72504e+00 
-2.08430e+00 
-1.55504e+00 
-1.12940e+00 
-8.22863e-01 
-6.61359e-01 
-6.37715e-01 
-6.84245e-01 
-7.14895e-01 
-6.70747e-01 
-5.42650e-01 
-4.69171e-01 
-4.26266e-01 
-6.13883e-02 
 3.70305e-01 
 3.11684e-01 
-5.04112e-03 
 3.49754e-01 
 5.30688e-01 
 5.51766e-01 
 5.52097e-01 
 4.76704e-01 
-1.01180e-01 
-6.98839e-01 
-1.45917e-01 
 4.70260e-01 
 5.55011e-01 
 5.56284e-01 
 5.56667e-01 
 5.56988e-01 
 5.57238e-01 
 5.57437e-01 
 5.57605e-01 
 5.57752e-01 
 5.57882e-01 
 5.57999e-01 
 5.58102e-01 
 5.58192e-01 
 5.58272e-01 
 5.58341e-01 
 5.58400e-01 
 5.58448e-01 
 5.58490e-01 
 5.58523e-01 
 5.58545e-01 
 5.58556e-01 
 5.58554e-01 
 5.58539e-01 
 5.58514e-01 
 5.58474e-01 
 5.58429e-01 
 5.58367e-01 
 5.58302e-01 
 5.58224e-01 
 5.58132e-01 
 5.58027e-01 
 5.57908e-01 
 5.57773e-01 
 5.57623e-01 
 5.57456e-01 
 5.57269e-01 
 5.57062e-01 
 5.56827e-01 
 5.56528e-01 
 5.55995e-01 
 5.55136e-01 
 5.54200e-01 
 5.53217e-01 
 5.53500e-01 
 5.51652e-01 
 4.84350e-01 
 1.46394e-01 
-4.76228e-01 
-4.35073e-01 
 2.09550e-01 
 4.88542e-01 
 5.37480e-01 
 4.15503e-01 
-6.34092e-02 
-5.27772e-01 
-5.38607e-01 
-5.85781e-01 
-7.70282e-01 
-1.02405e+00 
-1.33802e+00 
-1.71810e+00 
-2.17389e+00 
-2.72310e+00 
-3.39489e+00 
-4.23101e+00 
-5.27818e+00 
-6.52160e+00 
-7.71166e+00 
-8.28429e+00 
-7.21012e+00 
-6.92143e+00 
-6.17296e+00 
-5.22657e+00 
-4.29128e+00 
-3.45881e+00 
-2.74089e+00 
-2.12140e+00 
-1.58197e+00 
-1.11442e+00 
-7.40348e-01 
-5.30108e-01 
-5.28946e-01 
-6.18934e-01 
-6.49198e-01 
-5.88907e-01 
-4.82752e-01 
-4.16010e-01 
-4.45038e-01 
-4.46966e-01 
-1.00257e-01 
 6.20991e-02 
 2.55468e-01 
 5.03860e-01 
 5.46971e-01 
 5.52118e-01 
 5.24938e-01 
 1.62759e-01 
-6.87518e-01 
-4.67747e-01 
 3.50634e-01 
 5.47568e-01 
 5.55918e-01 
 5.56232e-01 
 5.56501e-01 
 5.56793e-01 
 5.57055e-01 
 5.57278e-01 
 5.57469e-01 
 5.57636e-01 
 5.57780e-01 
 5.57907e-01 
 5.58020e-01 
 5.58119e-01 
 5.58204e-01 
 5.58278e-01 
 5.58339e-01 
 5.58393e-01 
 5.58435e-01 
 5.58468e-01 
 5.58493e-01 
 5.58507e-01 
 5.58508e-01 
 5.58496e-01 
 5.58471e-01 
 5.58433e-01 
 5.58382e-01 
 5.58326e-01 
 5.58253e-01 
 5.58175e-01 
 5.58084e-01 
 5.57978e-01 
 5.57859e-01 
 5.57725e-01 
 5.57575e-01 
 5.57408e-01 
 5.57224e-01 
 5.57021e-01 
 5.56792e-01 
 5.56507e-01 
 5.56035e-01 
 5.55271e-01 
 5.54434e-01 
 5.53492e-01 
 5.53094e-01 
 5.53419e-01 
 5.47947e-01 
 4.81145e-01 
 1.70442e-01 
-4.43820e-01 
-4.17308e-01 
 1.19470e-01 
 3.75179e-01 
-4.85379e-02 
-4.93450e-01 
-4.84908e-01 
-4.18383e-01 
-4.75168e-01 
-6.56036e-01 
-9.35269e-01 
-1.28514e+00 
-1.69181e+00 
-2.15702e+00 
-2.69319e+00 
-3.31908e+00 
-4.05367e+00 
-4.89822e+00 
-5.79689e+00 
-6.60361e+00 
-7.03997e+00 
-6.27899e+00 
-5.99634e+00 
-5.43920e+00 
-4.74869e+00 
-4.02633e+00 
-3.33822e+00 
-2.70987e+00 
-2.14129e+00 
-1.62104e+00 
-1.13461e+00 
-6.80174e-01 
-3.41549e-01 
-3.22453e-01 
-4.97600e-01 
-5.68671e-01 
-5.27283e-01 
-4.52737e-01 
-4.06935e-01 
-4.22215e-01 
-4.88345e-01 
-4.44271e-01 
-2.05659e-01 
 2.32149e-01 
 4.85307e-01 
 5.44860e-01 
 5.42385e-01 
 3.51468e-01 
-4.24688e-01 
-6.65688e-01 
 1.40522e-01 
 5.22362e-01 
 5.55190e-01 
 5.55853e-01 
 5.56123e-01 
 5.56363e-01 
 5.56626e-01 
 5.56885e-01 
 5.57122e-01 
 5.57331e-01 
 5.57514e-01 
 5.57675e-01 
 5.57815e-01 
 5.57935e-01 
 5.58041e-01 
 5.58133e-01 
 5.58210e-01 
 5.58278e-01 
 5.58332e-01 
 5.58378e-01 
 5.58416e-01 
 5.58442e-01 
 5.58456e-01 
 5.58458e-01 
 5.58448e-01 
 5.58423e-01 
 5.58385e-01 
 5.58338e-01 
 5.58276e-01 
 5.58206e-01 
 5.58122e-01 
 5.58028e-01 
 5.57922e-01 
 5.57800e-01 
 5.57663e-01 
 5.57511e-01 
 5.57344e-01 
 5.57162e-01 
 5.56959e-01 
 5.56731e-01 
 5.56454e-01 
 5.56027e-01 
 5.55364e-01 
 5.54613e-01 
 5.53823e-01 
 5.53045e-01 
 5.53230e-01 
 5.52270e-01 
 5.41573e-01 
 4.78404e-01 
 1.72792e-01 
-3.41635e-01 
-2.90333e-01 
-1.18588e-01 
-4.69358e-01 
-4.77004e-01 
-3.63806e-01 
-3.12992e-01 
-3.74862e-01 
-5.75866e-01 
-8.84322e-01 
-1.25662e+00 
-1.67094e+00 
-2.12488e+00 
-2.62563e+00 
-3.18279e+00 
-3.80095e+00 
-4.46815e+00 
-5.14288e+00 
-5.75356e+00 
-6.13107e+00 
-5.55585e+00 
-5.27876e+00 
-4.82419e+00 
-4.29334e+00 
-3.73031e+00 
-3.17323e+00 
-2.64335e+00 
-2.14641e+00 
-1.67708e+00 
-1.22112e+00 
-7.50041e-01 
-2.61352e-01 
-6.73343e-02 
-3.36337e-01 
-5.19442e-01 
-4.90127e-01 
-4.37879e-01 
-4.13184e-01 
-4.40360e-01 
-5.03513e-01 
-5.25910e-01 
-4.98539e-01 
-3.45341e-01 
 1.29693e-01 
 4.43161e-01 
 4.21415e-01 
-1.01941e-01 
-6.02022e-01 
-1.21804e-01 
 4.61121e-01 
 5.52516e-01 
 5.55293e-01 
 5.55734e-01 
 5.55982e-01 
 5.56219e-01 
 5.56476e-01 
 5.56737e-01 
 5.56980e-01 
 5.57201e-01 
 5.57397e-01 
 5.57569e-01 
 5.57720e-01 
 5.57851e-01 
 5.57963e-01 
 5.58060e-01 
 5.58143e-01 
 5.58212e-01 
 5.58272e-01 
 5.58321e-01 
 5.58359e-01 
 5.58387e-01 
 5.58403e-01 
 5.58408e-01 
 5.58398e-01 
 5.58373e-01 
 5.58336e-01 
 5.58285e-01 
 5.58226e-01 
 5.58151e-01 
 5.58068e-01 
 5.57972e-01 
 5.57860e-01 
 5.57736e-01 
 5.57597e-01 
 5.57442e-01 
 5.57275e-01 
 5.57093e-01 
 5.56887e-01 
 5.56660e-01 
 5.56390e-01 
 5.56000e-01 
 5.55431e-01 
 5.54767e-01 
 5.54062e-01 
 5.53370e-01 
 5.53047e-01 
 5.52755e-01 
 5.48652e-01 
 5.34733e-01 
 4.51121e-01 
 1.39063e-01 
-2.75215e-01 
-5.61866e-01 
-6.73378e-01 
-5.13026e-01 
-3.27776e-01 
-2.10261e-01 
-2.84790e-01 
-5.48176e-01 
-8.93367e-01 
-1.27094e+00 
-1.67038e+00 
-2.09200e+00 
-2.53984e+00 
-3.01783e+00 
-3.52528e+00 
-4.05209e+00 
-4.57600e+00 
-5.06737e+00 
-5.40260e+00 
-4.95311e+00 
-4.68870e+00 
-4.30197e+00 
-3.87770e+00 
-3.43204e+00 
-2.98375e+00 
-2.54649e+00 
-2.12664e+00 
-1.72376e+00 
-1.33031e+00 
-9.25360e-01 
-4.66098e-01 
 5.09454e-03 
 8.06136e-03 
-3.69073e-01 
-4.82937e-01 
-4.36548e-01 
-4.18835e-01 
-4.46050e-01 
-4.77660e-01 
-4.61208e-01 
-4.20147e-01 
-4.39332e-01 
-3.79519e-01 
 3.70471e-02 
 6.19451e-02 
-3.81983e-01 
-3.34173e-01 
 3.02511e-01 
 5.37549e-01 
 5.54390e-01 
 5.55202e-01 
 5.55575e-01 
 5.55831e-01 
 5.56074e-01 
 5.56338e-01 
 5.56604e-01 
 5.56856e-01 
 5.57085e-01 
 5.57291e-01 
 5.57472e-01 
 5.57628e-01 
 5.57766e-01 
 5.57886e-01 
 5.57986e-01 
 5.58075e-01 
 5.58147e-01 
 5.58210e-01 
 5.58258e-01 
 5.58299e-01 
 5.58329e-01 
 5.58347e-01 
 5.58352e-01 
 5.58343e-01 
 5.58320e-01 
 5.58283e-01 
 5.58232e-01 
 5.58168e-01 
 5.58095e-01 
 5.58008e-01 
 5.57908e-01 
 5.57796e-01 
 5.57669e-01 
 5.57527e-01 
 5.57369e-01 
 5.57203e-01 
 5.57018e-01 
 5.56812e-01 
 5.56587e-01 
 5.56326e-01 
 5.55970e-01 
 5.55481e-01 
 5.54901e-01 
 5.54256e-01 
 5.53640e-01 
 5.53215e-01 
 5.52899e-01 
 5.51023e-01 
 5.43330e-01 
 4.62534e-01 
 7.86376e-02 
-4.80839e-01 
-7.84231e-01 
-7.93222e-01 
-5.73280e-01 
-2.73312e-01 
-7.10195e-02 
-2.58575e-01 
-6.14757e-01 
-9.70773e-01 
-1.32671e+00 
-1.68998e+00 
-2.06300e+00 
-2.44764e+00 
-2.84491e+00 
-3.25357e+00 
-3.66889e+00 
-4.08302e+00 
-4.48846e+00 
-4.78623e+00 
-4.42777e+00 
-4.18235e+00 
-3.84846e+00 
-3.50118e+00 
-3.14317e+00 
-2.78145e+00 
-2.42298e+00 
-2.07226e+00 
-1.73043e+00 
-1.39417e+00 
-1.05354e+00 
-7.06806e-01 
-2.46224e-01 
 2.41353e-01 
 8.14204e-02 
-3.25159e-01 
-4.62279e-01 
-4.36563e-01 
-4.59439e-01 
-4.70449e-01 
-4.26318e-01 
-3.72576e-01 
-3.61716e-01 
-4.30567e-01 
-4.03111e-01 
-3.02451e-01 
-2.48254e-01 
 5.43085e-02 
 4.62609e-01 
 5.50796e-01 
 5.54443e-01 
 5.55034e-01 
 5.55392e-01 
 5.55672e-01 
 5.55937e-01 
 5.56213e-01 
 5.56489e-01 
 5.56749e-01 
 5.56982e-01 
 5.57193e-01 
 5.57381e-01 
 5.57544e-01 
 5.57685e-01 
 5.57807e-01 
 5.57914e-01 
 5.58002e-01 
 5.58081e-01 
 5.58141e-01 
 5.58197e-01 
 5.58240e-01 
 5.58271e-01 
 5.58290e-01 
 5.58295e-01 
 5.58286e-01 
 5.58263e-01 
 5.58226e-01 
 5.58174e-01 
 5.58110e-01 
 5.58032e-01 
 5.57945e-01 
 5.57845e-01 
 5.57727e-01 
 5.57596e-01 
 5.57451e-01 
 5.57294e-01 
 5.57129e-01 
 5.56940e-01 
 5.56737e-01 
 5.56517e-01 
 5.56267e-01 
 5.55944e-01 
 5.55521e-01 
 5.55018e-01 
 5.54435e-01 
 5.53831e-01 
 5.53354e-01 
 5.52968e-01 
 5.52004e-01 
 4.98116e-01 
 8.88515e-02 
-5.92989e-01 
-6.54596e-01 
-7.14781e-01 
-6.82555e-01 
-4.99895e-01 
-1.25265e-01 
-6.70874e-02 
-4.13345e-01 
-7.69495e-01 
-1.08846e+00 
-1.40224e+00 
-1.71695e+00 
-2.03375e+00 
-2.35256e+00 
-2.67318e+00 
-2.99548e+00 
-3.31969e+00 
-3.64736e+00 
-3.98301e+00 
-4.24493e+00 
-3.95710e+00 
-3.73490e+00 
-3.44659e+00 
-3.15907e+00 
-2.86844e+00 
-2.57482e+00 
-2.28000e+00 
-1.98570e+00 
-1.69246e+00 
-1.39907e+00 
-1.10636e+00 
-8.31127e-01 
-4.98139e-01 
 6.48945e-02 
 3.60072e-01 
 2.07243e-01 
-2.49925e-01 
-4.38652e-01 
-4.94121e-01 
-4.93127e-01 
-4.28395e-01 
-3.90925e-01 
-4.23141e-01 
-5.45328e-01 
-6.82557e-01 
-6.49736e-01 
-3.50058e-01 
 1.41722e-01 
 4.73114e-01 
 5.48568e-01 
 5.54348e-01 
 5.54863e-01 
 5.55226e-01 
 5.55530e-01 
 5.55818e-01 
 5.56108e-01 
 5.56395e-01 
 5.56662e-01 
 5.56902e-01 
 5.57110e-01 
 5.57296e-01 
 5.57463e-01 
 5.57608e-01 
 5.57732e-01 
 5.57839e-01 
 5.57933e-01 
 5.58008e-01 
 5.58078e-01 
 5.58133e-01 
 5.58175e-01 
 5.58208e-01 
 5.58229e-01 
 5.58236e-01 
 5.58228e-01 
 5.58205e-01 
 5.58167e-01 
 5.58114e-01 
 5.58047e-01 
 5.57969e-01 
 5.57880e-01 
 5.57773e-01 
 5.57656e-01 
 5.57524e-01 
 5.57377e-01 
 5.57224e-01 
 5.57053e-01 
 5.56864e-01 
 5.56663e-01 
 5.56451e-01 
 5.56214e-01 
 5.55922e-01 
 5.55555e-01 
 5.55120e-01 
 5.54605e-01 
 5.54032e-01 
 5.53519e-01 
 5.53112e-01 
 5.23807e-01 
 1.87962e-01 
-6.66989e-01 
-7.75907e-01 
-5.61986e-01 
-5.36354e-01 
-4.17712e-01 
-1.63326e-01 
 1.15885e-01 
-2.62107e-01 
-6.05827e-01 
-9.11982e-01 
-1.19700e+00 
-1.46888e+00 
-1.73531e+00 
-1.99713e+00 
-2.25378e+00 
-2.50511e+00 
-2.75257e+00 
-3.00018e+00 
-3.25543e+00 
-3.52986e+00 
-3.75638e+00 
-3.52863e+00 
-3.33195e+00 
-3.08514e+00 
-2.84702e+00 
-2.61043e+00 
-2.37136e+00 
-2.12799e+00 
-1.87969e+00 
-1.62632e+00 
-1.36886e+00 
-1.11380e+00 
-8.75257e-01 
-6.71094e-01 
-1.39595e-01 
 4.04489e-01 
 4.61617e-01 
 2.54326e-01 
-1.52297e-01 
-4.09093e-01 
-4.81303e-01 
-4.28657e-01 
-4.21443e-01 
-4.99583e-01 
-6.57460e-01 
-8.14075e-01 
-8.29874e-01 
-6.30699e-01 
-4.27282e-01 
 2.72784e-02 
 4.32435e-01 
 5.44614e-01 
 5.54808e-01 
 5.55128e-01 
 5.55433e-01 
 5.55733e-01 
 5.56032e-01 
 5.56323e-01 
 5.56593e-01 
 5.56835e-01 
 5.57044e-01 
 5.57225e-01 
 5.57388e-01 
 5.57532e-01 
 5.57660e-01 
 5.57767e-01 
 5.57862e-01 
 5.57942e-01 
 5.58010e-01 
 5.58063e-01 
 5.58111e-01 
 5.58146e-01 
 5.58167e-01 
 5.58173e-01 
 5.58165e-01 
 5.58142e-01 
 5.58103e-01 
 5.58051e-01 
 5.57982e-01 
 5.57902e-01 
 5.57809e-01 
 5.57704e-01 
 5.57582e-01 
 5.57445e-01 
 5.57301e-01 
 5.57150e-01 
 5.56975e-01 
 5.56787e-01 
 5.56591e-01 
 5.56388e-01 
 5.56167e-01 
 5.55902e-01 
 5.55581e-01 
 5.55206e-01 
 5.54759e-01 
 5.54240e-01 
 5.53736e-01 
 5.39887e-01 
 3.08976e-01 
-5.44808e-01 
-9.45423e-01 
-7.72160e-01 
-5.64163e-01 
-4.28324e-01 
-5.28775e-02 
-2.59883e-02 
-9.49375e-02 
-4.33399e-01 
-7.65657e-01 
-1.02186e+00 
-1.27310e+00 
-1.51037e+00 
-1.73513e+00 
-1.94841e+00 
-2.15014e+00 
-2.34096e+00 
-2.52383e+00 
-2.70546e+00 
-2.89726e+00 
-3.11537e+00 
-3.30646e+00 
-3.13519e+00 
-2.96479e+00 
-2.75682e+00 
-2.56183e+00 
-2.37084e+00 
-2.17733e+00 
-1.97722e+00 
-1.76856e+00 
-1.55118e+00 
-1.32722e+00 
-1.10241e+00 
-8.90557e-01 
-7.30624e-01 
-4.82980e-01 
 2.29135e-01 
 4.48803e-01 
 1.93220e-01 
-1.89909e-02 
-5.30836e-02 
-4.13899e-01 
-4.66765e-01 
-4.47974e-01 
-5.44661e-01 
-6.97522e-01 
-7.87333e-01 
-7.53270e-01 
-6.16706e-01 
-5.71898e-01 
-5.66350e-01 
-1.37697e-01 
 3.77687e-01 
 5.40528e-01 
 5.55121e-01 
 5.55389e-01 
 5.55687e-01 
 5.55987e-01 
 5.56275e-01 
 5.56540e-01 
 5.56776e-01 
 5.56983e-01 
 5.57159e-01 
 5.57319e-01 
 5.57461e-01 
 5.57585e-01 
 5.57697e-01 
 5.57790e-01 
 5.57873e-01 
 5.57937e-01 
 5.57998e-01 
 5.58045e-01 
 5.58079e-01 
 5.58101e-01 
 5.58110e-01 
 5.58102e-01 
 5.58078e-01 
 5.58038e-01 
 5.57982e-01 
 5.57915e-01 
 5.57831e-01 
 5.57739e-01 
 5.57627e-01 
 5.57505e-01 
 5.57371e-01 
 5.57232e-01 
 5.57074e-01 
 5.56897e-01 
 5.56711e-01 
 5.56521e-01 
 5.56329e-01 
 5.56121e-01 
 5.55878e-01 
 5.55593e-01 
 5.55263e-01 
 5.54873e-01 
 5.54396e-01 
 5.48881e-01 
 3.99421e-01 
-3.37479e-01 
-9.49193e-01 
-9.19177e-01 
-7.37236e-01 
-3.35599e-01 
 1.05771e-02 
 3.72371e-01 
 3.25170e-01 
-1.32471e-01 
-5.69810e-01 
-8.49390e-01 
-1.09166e+00 
-1.31683e+00 
-1.52506e+00 
-1.71490e+00 
-1.88704e+00 
-2.04198e+00 
-2.18104e+00 
-2.30817e+00 
-2.43182e+00 
-2.56611e+00 
-2.73070e+00 
-2.88613e+00 
-2.77223e+00 
-2.62779e+00 
-2.45674e+00 
-2.30113e+00 
-2.15059e+00 
-1.99695e+00 
-1.83490e+00 
-1.66212e+00 
-1.47912e+00 
-1.28928e+00 
-1.09939e+00 
-9.21972e-01 
-7.73288e-01 
-6.20412e-01 
-9.43395e-02 
 1.38432e-01 
-1.24181e-01 
 2.53184e-01 
 3.86172e-01 
 1.57047e-02 
-4.11664e-01 
-4.91323e-01 
-5.85537e-01 
-7.11998e-01 
-6.97830e-01 
-6.22014e-01 
-5.65641e-01 
-5.75528e-01 
-6.86920e-01 
-7.16562e-01 
-2.90215e-01 
 3.48461e-01 
 5.40883e-01 
 5.55379e-01 
 5.55670e-01 
 5.55970e-01 
 5.56242e-01 
 5.56493e-01 
 5.56721e-01 
 5.56925e-01 
 5.57101e-01 
 5.57248e-01 
 5.57389e-01 
 5.57513e-01 
 5.57621e-01 
 5.57719e-01 
 5.57797e-01 
 5.57870e-01 
 5.57926e-01 
 5.57972e-01 
 5.58010e-01 
 5.58034e-01 
 5.58042e-01 
 5.58034e-01 
 5.58010e-01 
 5.57969e-01 
 5.57914e-01 
 5.57841e-01 
 5.57760e-01 
 5.57661e-01 
 5.57552e-01 
 5.57430e-01 
 5.57296e-01 
 5.57158e-01 
 5.56994e-01 
 5.56818e-01 
 5.56636e-01 
 5.56453e-01 
 5.56271e-01 
 5.56074e-01 
 5.55848e-01 
 5.55587e-01 
 5.55285e-01 
 5.54921e-01 
 5.53456e-01 
 4.56492e-01 
-1.72506e-01 
-9.58612e-01 
-1.06036e+00 
-9.28914e-01 
-4.27892e-01 
 8.66782e-02 
-2.09007e-01 
 8.28081e-02 
 2.59702e-01 
-3.88141e-01 
-6.43976e-01 
-8.87645e-01 
-1.12842e+00 
-1.33694e+00 
-1.51905e+00 
-1.67818e+00 
-1.81538e+00 
-1.93106e+00 
-2.02638e+00 
-2.10534e+00 
-2.17710e+00 
-2.25772e+00 
-2.37019e+00 
-2.48960e+00 
-2.43621e+00 
-2.31679e+00 
-2.18131e+00 
-2.06297e+00 
-1.94983e+00 
-1.83235e+00 
-1.70462e+00 
-1.56455e+00 
-1.41377e+00 
-1.25752e+00 
-1.10513e+00 
-9.69983e-01 
-8.64307e-01 
-7.60908e-01 
-4.08579e-01 
 7.98166e-02 
 3.06402e-01 
 5.19325e-01 
 5.27739e-01 
 4.37775e-01 
 7.48575e-02 
-3.42912e-01 
-5.57613e-01 
-6.60708e-01 
-5.61410e-01 
-4.89443e-01 
-5.37406e-01 
-6.35958e-01 
-7.45689e-01 
-8.40760e-01 
-8.27824e-01 
-3.24294e-01 
 3.69757e-01 
 5.45726e-01 
 5.55631e-01 
 5.55953e-01 
 5.56209e-01 
 5.56440e-01 
 5.56656e-01 
 5.56858e-01 
 5.57037e-01 
 5.57189e-01 
 5.57315e-01 
 5.57438e-01 
 5.57548e-01 
 5.57641e-01 
 5.57726e-01 
 5.57791e-01 
 5.57854e-01 
 5.57906e-01 
 5.57942e-01 
 5.57965e-01 
 5.57973e-01 
 5.57964e-01 
 5.57939e-01 
 5.57898e-01 
 5.57837e-01 
 5.57770e-01 
 5.57681e-01 
 5.57585e-01 
 5.57472e-01 
 5.57349e-01 
 5.57227e-01 
 5.57081e-01 
 5.56914e-01 
 5.56741e-01 
 5.56562e-01 
 5.56388e-01 
 5.56215e-01 
 5.56025e-01 
 5.55811e-01 
 5.55565e-01 
 5.55274e-01 
 5.54908e-01 
 4.89547e-01 
-4.57584e-02 
-9.89947e-01 
-1.20841e+00 
-1.11608e+00 
-5.65952e-01 
 2.50573e-01 
 4.54905e-01 
 1.47517e-01 
-1.96740e-01 
-1.04166e-01 
-5.62329e-01 
-7.98375e-01 
-9.78428e-01 
-1.17121e+00 
-1.34644e+00 
-1.49914e+00 
-1.62936e+00 
-1.73648e+00 
-1.81954e+00 
-1.87841e+00 
-1.91592e+00 
-1.94066e+00 
-1.96988e+00 
-2.03028e+00 
-2.11314e+00 
-2.12374e+00 
-2.02830e+00 
-1.92769e+00 
-1.84572e+00 
-1.76818e+00 
-1.68418e+00 
-1.58746e+00 
-1.47641e+00 
-1.35352e+00 
-1.22500e+00 
-1.10052e+00 
-9.92023e-01 
-9.07871e-01 
-8.18324e-01 
-5.78622e-01 
 1.79890e-01 
 5.06182e-01 
 5.36873e-01 
 5.37361e-01 
 5.38349e-01 