<?xml version="1.0" encoding="utf-8"?>
<VTKFile byte_order="LittleEndian" type="UnstructuredGrid" version="0.1">
   <UnstructuredGrid>
      <Piece NumberOfCells="12996" NumberOfPoints="6689">
         <Points>
            <DataArray Name="Points" NumberOfComponents="3" format="ascii" type="Float32">
-1.0000 -1.0000 0.0000
-1.0000 -0.8947 0.0000
-1.0000 -0.7895 0.0000
-1.0000 -0.6842 0.0000
-1.0000 -0.5789 0.0000
-1.0000 -0.4737 0.0000
-1.0000 -0.3684 0.0000
-1.0000 -0.2632 0.0000
-1.0000 -0.1579 0.0000
-1.0000 -0.0526 0.0000
-1.0000 0.0526 0.0000
-1.0000 0.1579 0.0000
-1.0000 0.2632 0.0000
-1.0000 0.3684 0.0000
-1.0000 0.4737 0.0000
-1.0000 0.5789 0.0000
-1.0000 0.6842 0.0000
-1.0000 0.7895 0.0000
-1.0000 0.8947 0.0000
-1.0000 1.0000 0.0000
-0.8947 -1.0000 0.0000
-0.8947 -0.8947 0.0000
-0.8947 -0.7895 0.0000
-0.8947 -0.6842 0.0000
-0.8947 -0.5789 0.0000
-0.8947 -0.4737 0.0000
-0.8947 -0.3684 0.0000
-0.8947 -0.2632 0.0000
-0.8947 -0.1579 0.0000
-0.8947 -0.0526 0.0000
-0.8947 0.0526 0.0000
-0.8947 0.1579 0.0000
-0.8947 0.2632 0.0000
-0.8947 0.3684 0.0000
-0.8947 0.4737 0.0000
-0.8947 0.5789 0.0000
-0.8947 0.6842 0.0000
-0.8947 0.7895 0.0000
-0.8947 0.8947 0.0000
-0.8947 1.0000 0.0000
-0.7895 -1.0000 0.0000
-0.7895 -0.8947 0.0000
-0.7895 -0.7895 0.0000
-0.7895 -0.6842 0.0000
-0.7895 -0.5789 0.0000
-0.7895 -0.4737 0.0000
-0.7895 -0.3684 0.0000
-0.7895 -0.2632 0.0000
-0.7895 -0.1579 0.0000
-0.7895 -0.0526 0.0000
-0.7895 0.0526 0.0000
-0.7895 0.1579 0.0000
-0.7895 0.2632 0.0000
-0.7895 0.3684 0.0000
-0.7895 0.4737 0.0000
-0.7895 0.5789 0.0000
-0.7895 0.6842 0.0000
-0.7895 0.7895 0.0000
-0.7895 0.8947 0.0000
-0.7895 1.0000 0.0000
-0.6842 -1.0000 0.0000
-0.6842 -0.8947 0.0000
-0.6842 -0.7895 0.0000
-0.6842 -0.6842 0.0000
-0.6842 -0.5789 0.0000
-0.6842 -0.4737 0.0000
-0.6842 -0.3684 0.0000
-0.6842 -0.2632 0.0000
-0.6842 -0.1579 0.0000
-0.6842 -0.0526 0.0000
-0.6842 0.0526 0.0000
-0.6842 0.1579 0.0000
-0.6842 0.2632 0.0000
-0.6842 0.3684 0.0000
-0.6842 0.4737 0.0000
-0.6842 0.5789 0.0000
-0.6842 0.6842 0.0000
-0.6842 0.7895 0.0000
-0.6842 0.8947 0.0000
-0.6842 1.0000 0.0000
-0.5789 -1.0000 0.0000
-0.5789 -0.8947 0.0000
-0.5789 -0.7895 0.0000
-0.5789 -0.6842 0.0000
-0.5789 -0.5789 0.0000
-0.5789 -0.4737 0.0000
-0.5789 -0.3684 0.0000
-0.5789 -0.2632 0.0000
-0.5789 -0.1579 0.0000
-0.5789 -0.0526 0.0000
-0.5789 0.0526 0.0000
-0.5789 0.1579 0.0000
-0.5789 0.2632 0.0000
-0.5789 0.3684 0.0000
-0.5789 0.4737 0.0000
-0.5789 0.5789 0.0000
-0.5789 0.6842 0.0000
-0.5789 0.7895 0.0000
-0.5789 0.8947 0.0000
-0.5789 1.0000 0.0000
-0.4737 -1.0000 0.0000
-0.4737 -0.8947 0.0000
-0.4737 -0.7895 0.0000
-0.4737 -0.6842 0.0000
-0.4737 -0.5789 0.0000
-0.4737 -0.4737 0.0000
-0.4737 -0.3684 0.0000
-0.4737 -0.2632 0.0000
-0.4737 -0.1579 0.0000
-0.4737 -0.0526 0.0000
-0.4737 0.0526 0.0000
-0.4737 0.1579 0.0000
-0.4737 0.2632 0.0000
-0.4737 0.3684 0.0000
-0.4737 0.4737 0.0000
-0.4737 0.5789 0.0000
-0.4737 0.6842 0.0000
-0.4737 0.7895 0.0000
-0.4737 0.8947 0.0000
-0.4737 1.0000 0.0000
-0.3684 -1.0000 0.0000
-0.3684 -0.8947 0.0000
-0.3684 -0.7895 0.0000
-0.3684 -0.6842 0.0000
-0.3684 -0.5789 0.0000
-0.3684 -0.4737 0.0000
-0.3684 -0.3684 0.0000
-0.3684 -0.2632 0.0000
-0.3684 -0.1579 0.0000
-0.3684 -0.0526 0.0000
-0.3684 0.0526 0.0000
-0.3684 0.1579 0.0000
-0.3684 0.2632 0.0000
-0.3684 0.3684 0.0000
-0.3684 0.4737 0.0000
-0.3684 0.5789 0.0000
-0.3684 0.6842 0.0000
-0.3684 0.7895 0.0000
-0.3684 0.8947 0.0000
-0.3684 1.0000 0.0000
-0.2632 -1.0000 0.0000
-0.2632 -0.8947 0.0000
-0.2632 -0.7895 0.0000
-0.2632 -0.6842 0.0000
-0.2632 -0.5789 0.0000
-0.2632 -0.4737 0.0000
-0.2632 -0.3684 0.0000
-0.2632 -0.2632 0.0000
-0.2632 -0.1579 0.0000
-0.2632 -0.0526 0.0000
-0.2632 0.0526 0.0000
-0.2632 0.1579 0.0000
-0.2632 0.2632 0.0000
-0.2632 0.3684 0.0000
-0.2632 0.4737 0.0000
-0.2632 0.5789 0.0000
-0.2632 0.6842 0.0000
-0.2632 0.7895 0.0000
-0.2632 0.8947 0.0000
-0.2632 1.0000 0.0000
-0.1579 -1.0000 0.0000
-0.1579 -0.8947 0.0000
-0.1579 -0.7895 0.0000
-0.1579 -0.6842 0.0000
-0.1579 -0.5789 0.0000
-0.1579 -0.4737 0.0000
-0.1579 -0.3684 0.0000
-0.1579 -0.2632 0.0000
-0.1579 -0.1579 0.0000
-0.1579 -0.0526 0.0000
-0.1579 0.0526 0.0000
-0.1579 0.1579 0.0000
-0.1579 0.2632 0.0000
-0.1579 0.3684 0.0000
-0.1579 0.4737 0.0000
-0.1579 0.5789 0.0000
-0.1579 0.6842 0.0000
-0.1579 0.7895 0.0000
-0.1579 0.8947 0.0000
-0.1579 1.0000 0.0000
-0.0526 -1.0000 0.0000
-0.0526 -0.8947 0.0000
-0.0526 -0.7895 0.0000
-0.0526 -0.6842 0.0000
-0.0526 -0.5789 0.0000
-0.0526 -0.4737 0.0000
-0.0526 -0.3684 0.0000
-0.0526 -0.2632 0.0000
-0.0526 -0.1579 0.0000
-0.0526 -0.0526 0.0000
-0.0526 0.0526 0.0000
-0.0526 0.1579 0.0000
-0.0526 0.2632 0.0000
-0.0526 0.3684 0.0000
-0.0526 0.4737 0.0000
-0.0526 0.5789 0.0000
-0.0526 0.6842 0.0000
-0.0526 0.7895 0.0000
-0.0526 0.8947 0.0000
-0.0526 1.0000 0.0000
0.0526 -1.0000 0.0000
0.0526 -0.8947 0.0000
0.0526 -0.7895 0.0000
0.0526 -0.6842 0.0000
0.0526 -0.5789 0.0000
0.0526 -0.4737 0.0000
0.0526 -0.3684 0.0000
0.0526 -0.2632 0.0000
0.0526 -0.1579 0.0000
0.0526 -0.0526 0.0000
0.0526 0.0526 0.0000
0.0526 0.1579 0.0000
0.0526 0.2632 0.0000
0.0526 0.3684 0.0000
0.0526 0.4737 0.0000
0.0526 0.5789 0.0000
0.0526 0.6842 0.0000
0.0526 0.7895 0.0000
0.0526 0.8947 0.0000
0.0526 1.0000 0.0000
0.1579 -1.0000 0.0000
0.1579 -0.8947 0.0000
0.1579 -0.7895 0.0000
0.1579 -0.6842 0.0000
0.1579 -0.5789 0.0000
0.1579 -0.4737 0.0000
0.1579 -0.3684 0.0000
0.1579 -0.2632 0.0000
0.1579 -0.1579 0.0000
0.1579 -0.0526 0.0000
0.1579 0.0526 0.0000
0.1579 0.1579 0.0000
0.1579 0.2632 0.0000
0.1579 0.3684 0.0000
0.1579 0.4737 0.0000
0.1579 0.5789 0.0000
0.1579 0.6842 0.0000
0.1579 0.7895 0.0000
0.1579 0.8947 0.0000
0.1579 1.0000 0.0000
0.2632 -1.0000 0.0000
0.2632 -0.8947 0.0000
0.2632 -0.7895 0.0000
0.2632 -0.6842 0.0000
0.2632 -0.5789 0.0000
0.2632 -0.4737 0.0000
0.2632 -0.3684 0.0000
0.2632 -0.2632 0.0000
0.2632 -0.1579 0.0000
0.2632 -0.0526 0.0000
0.2632 0.0526 0.0000
0.2632 0.1579 0.0000
0.2632 0.2632 0.0000
0.2632 0.3684 0.0000
0.2632 0.4737 0.0000
0.2632 0.5789 0.0000
0.2632 0.6842 0.0000
0.2632 0.7895 0.0000
0.2632 0.8947 0.0000
0.2632 1.0000 0.0000
0.3684 -1.0000 0.0000
0.3684 -0.8947 0.0000
0.3684 -0.7895 0.0000
0.3684 -0.6842 0.0000
0.3684 -0.5789 0.0000
0.3684 -0.4737 0.0000
0.3684 -0.3684 0.0000
0.3684 -0.2632 0.0000
0.3684 -0.1579 0.0000
0.3684 -0.0526 0.0000
0.3684 0.0526 0.0000
0.3684 0.1579 0.0000
0.3684 0.2632 0.0000
0.3684 0.3684 0.0000
0.3684 0.4737 0.0000
0.3684 0.5789 0.0000
0.3684 0.6842 0.0000
0.3684 0.7895 0.0000
0.3684 0.8947 0.0000
0.3684 1.0000 0.0000
0.4737 -1.0000 0.0000
0.4737 -0.8947 0.0000
0.4737 -0.7895 0.0000
0.4737 -0.6842 0.0000
0.4737 -0.5789 0.0000
0.4737 -0.4737 0.0000
0.4737 -0.3684 0.0000
0.4737 -0.2632 0.0000
0.4737 -0.1579 0.0000
0.4737 -0.0526 0.0000
0.4737 0.0526 0.0000
0.4737 0.1579 0.0000
0.4737 0.2632 0.0000
0.4737 0.3684 0.0000
0.4737 0.4737 0.0000
0.4737 0.5789 0.0000
0.4737 0.6842 0.0000
0.4737 0.7895 0.0000
0.4737 0.8947 0.0000
0.4737 1.0000 0.0000
0.5789 -1.0000 0.0000
0.5789 -0.8947 0.0000
0.5789 -0.7895 0.0000
0.5789 -0.6842 0.0000
0.5789 -0.5789 0.0000
0.5789 -0.4737 0.0000
0.5789 -0.3684 0.0000
0.5789 -0.2632 0.0000
0.5789 -0.1579 0.0000
0.5789 -0.0526 0.0000
0.5789 0.0526 0.0000
0.5789 0.1579 0.0000
0.5789 0.2632 0.0000
0.5789 0.3684 0.0000
0.5789 0.4737 0.0000
0.5789 0.5789 0.0000
0.5789 0.6842 0.0000
0.5789 0.7895 0.0000
0.5789 0.8947 0.0000
0.5789 1.0000 0.0000
0.6842 -1.0000 0.0000
0.6842 -0.8947 0.0000
0.6842 -0.7895 0.0000
0.6842 -0.6842 0.0000
0.6842 -0.5789 0.0000
0.6842 -0.4737 0.0000
0.6842 -0.3684 0.0000
0.6842 -0.2632 0.0000
0.6842 -0.1579 0.0000
0.6842 -0.0526 0.0000
0.6842 0.0526 0.0000
0.6842 0.1579 0.0000
0.6842 0.2632 0.0000
0.6842 0.3684 0.0000
0.6842 0.4737 0.0000
0.6842 0.5789 0.0000
0.6842 0.6842 0.0000
0.6842 0.7895 0.0000
0.6842 0.8947 0.0000
0.6842 1.0000 0.0000
0.7895 -1.0000 0.0000
0.7895 -0.8947 0.0000
0.7895 -0.7895 0.0000
0.7895 -0.6842 0.0000
0.7895 -0.5789 0.0000
0.7895 -0.4737 0.0000
0.7895 -0.3684 0.0000
0.7895 -0.2632 0.0000
0.7895 -0.1579 0.0000
0.7895 -0.0526 0.0000
0.7895 0.0526 0.0000
0.7895 0.1579 0.0000
0.7895 0.2632 0.0000
0.7895 0.3684 0.0000
0.7895 0.4737 0.0000
0.7895 0.5789 0.0000
0.7895 0.6842 0.0000
0.7895 0.7895 0.0000
0.7895 0.8947 0.0000
0.7895 1.0000 0.0000
0.8947 -1.0000 0.0000
0.8947 -0.8947 0.0000
0.8947 -0.7895 0.0000
0.8947 -0.6842 0.0000
0.8947 -0.5789 0.0000
0.8947 -0.4737 0.0000
0.8947 -0.3684 0.0000
0.8947 -0.2632 0.0000
0.8947 -0.1579 0.0000
0.8947 -0.0526 0.0000
0.8947 0.0526 0.0000
0.8947 0.1579 0.0000
0.8947 0.2632 0.0000
0.8947 0.3684 0.0000
0.8947 0.4737 0.0000
0.8947 0.5789 0.0000
0.8947 0.6842 0.0000
0.8947 0.7895 0.0000
0.8947 0.8947 0.0000
0.8947 1.0000 0.0000
1.0000 -1.0000 0.0000
1.0000 -0.8947 0.0000
1.0000 -0.7895 0.0000
1.0000 -0.6842 0.0000
1.0000 -0.5789 0.0000
1.0000 -0.4737 0.0000
1.0000 -0.3684 0.0000
1.0000 -0.2632 0.0000
1.0000 -0.1579 0.0000
1.0000 -0.0526 0.0000
1.0000 0.0526 0.0000
1.0000 0.1579 0.0000
1.0000 0.2632 0.0000
1.0000 0.3684 0.0000
1.0000 0.4737 0.0000
1.0000 0.5789 0.0000
1.0000 0.6842 0.0000
1.0000 0.7895 0.0000
1.0000 0.8947 0.0000
1.0000 1.0000 0.0000
-0.9474 -0.9474 0.0000
-0.9474 -0.8421 0.0000
-0.9474 -0.7368 0.0000
-0.9474 -0.6316 0.0000
-0.9474 -0.5263 0.0000
-0.9474 -0.4211 0.0000
-0.9474 -0.3158 0.0000
-0.9474 -0.2105 0.0000
-0.9474 -0.1053 0.0000
-0.9474 0.0000 0.0000
-0.9474 0.1053 0.0000
-0.9474 0.2105 0.0000
-0.9474 0.3158 0.0000
-0.9474 0.4211 0.0000
-0.9474 0.5263 0.0000
-0.9474 0.6316 0.0000
-0.9474 0.7368 0.0000
-0.9474 0.8421 0.0000
-0.9474 0.9474 0.0000
-0.8421 -0.9474 0.0000
-0.8421 -0.8421 0.0000
-0.8421 -0.7368 0.0000
-0.8421 -0.6316 0.0000
-0.8421 -0.5263 0.0000
-0.8421 -0.4211 0.0000
-0.8421 -0.3158 0.0000
-0.8421 -0.2105 0.0000
-0.8421 -0.1053 0.0000
-0.8421 0.0000 0.0000
-0.8421 0.1053 0.0000
-0.8421 0.2105 0.0000
-0.8421 0.3158 0.0000
-0.8421 0.4211 0.0000
-0.8421 0.5263 0.0000
-0.8421 0.6316 0.0000
-0.8421 0.7368 0.0000
-0.8421 0.8421 0.0000
-0.8421 0.9474 0.0000
-0.7368 -0.9474 0.0000
[...]
         <PointData>
            <DataArray Name="fValues" NumberOfComponents="3" format="ascii" type="Float64">
 4.00337e-15  3.92526e-15        00000 
-1.39896e-15 -8.39378e-15        00000 
 4.83330e-15  1.72618e-15        00000 
-1.77843e-15 -3.86998e-16        00000 
 1.03571e-15  7.44414e-16        00000 
 5.21886e-16 -1.12786e-16        00000 
 2.07141e-15 -1.18675e-16        00000 
 1.27960e-15 -4.22919e-16        00000 
 9.06243e-16 -5.17853e-16        00000 
-8.70661e-17 -4.35330e-16        00000 
 4.31544e-16 -6.90471e-16        00000 
-1.19285e-15 -1.57239e-16        00000 
-5.17853e-16 -6.36528e-16        00000 
-1.63649e-15 -3.14732e-16        00000 
-6.21424e-15  2.15772e-17        00000 
 4.14244e-15  1.02341e-16        00000 
-3.10712e-15 -1.03571e-15        00000 
 1.39316e-15  3.48289e-16        00000 
-4.87475e-15  2.08918e-15        00000 
-6.08126e-16  1.30452e-15        00000 
 6.52884e+01  4.02471e+01        00000 
 4.69150e+01  2.26104e+01        00000 
 3.94040e+01  1.35877e+01        00000 
 3.32405e+01  7.91437e+00        00000 
 2.77051e+01  3.96860e+00        00000 
 2.24411e+01  1.13303e+00        00000 
 1.73306e+01 -9.01846e-01        00000 
 1.23158e+01 -2.30952e+00        00000 
 7.36391e+00 -3.19537e+00        00000 
 2.44967e+00 -3.62275e+00        00000 
-2.45171e+00 -3.62234e+00        00000 
-7.36555e+00 -3.19427e+00        00000 
-1.23168e+01 -2.30809e+00        00000 
-1.73309e+01 -9.00463e-01        00000 
-2.24408e+01  1.13406e+00        00000 
-2.77044e+01  3.96913e+00        00000 
-3.32396e+01  7.91442e+00        00000 
-3.94029e+01  1.35874e+01        00000 
-4.69138e+01  2.26098e+01        00000 
-6.52865e+01  4.02459e+01        00000 
 1.20806e+02  6.45910e+01        00000 
 9.87492e+01  4.76968e+01        00000 
 8.22357e+01  3.35783e+01        00000 
 6.91562e+01  2.35115e+01        00000 
 5.74067e+01  1.61782e+01        00000 
 4.63626e+01  1.07857e+01        00000 
 3.57240e+01  6.86604e+00        00000 
 2.53445e+01  4.13320e+00        00000 
 1.51366e+01  2.40549e+00        00000 
 5.03215e+00  1.56998e+00        00000 
-5.03683e+00  1.57068e+00        00000 
-1.51403e+01  2.40734e+00        00000 
-2.53465e+01  4.13555e+00        00000 
-3.57243e+01  6.86817e+00        00000 
-4.63617e+01  1.07871e+01        00000 
-5.74050e+01  1.61787e+01        00000 
-6.91541e+01  2.35110e+01        00000 
-8.22334e+01  3.35771e+01        00000 
-9.87466e+01  4.76951e+01        00000 
-1.20802e+02  6.45888e+01        00000 
 1.74243e+02  8.92341e+01        00000 
 1.49172e+02  7.21293e+01        00000 
 1.26648e+02  5.70536e+01        00000 
 1.06740e+02  4.47141e+01        00000 
 8.85863e+01  3.51140e+01        00000 
 7.14654e+01  2.77880e+01        00000 
 5.50005e+01  2.23469e+01        00000 
 3.89759e+01  1.85061e+01        00000 
 2.32560e+01  1.60630e+01        00000 
 7.72688e+00  1.48790e+01        00000 
-7.73498e+00  1.48800e+01        00000 
-2.32621e+01  1.60656e+01        00000 
-3.89789e+01  1.85092e+01        00000 
-5.50004e+01  2.23493e+01        00000 
-7.14632e+01  2.77891e+01        00000 
-8.85831e+01  3.51137e+01        00000 
-1.06736e+02  4.47126e+01        00000 
-1.26644e+02  5.70513e+01        00000 
-1.49168e+02  7.21263e+01        00000 
-1.74238e+02  8.92308e+01        00000 
 2.27562e+02  1.16311e+02        00000 
 1.98636e+02  9.92427e+01        00000 
 1.70920e+02  8.38853e+01        00000 
 1.44971e+02  7.07018e+01        00000 
 1.20581e+02  5.98667e+01        00000 
 9.73356e+01  5.12899e+01        00000 
 7.48948e+01  4.47655e+01        00000 
 5.30381e+01  4.00966e+01        00000 
 3.16191e+01  3.71113e+01        00000 
 1.04982e+01  3.56652e+01        00000 
-1.05109e+01  3.56666e+01        00000 
-3.16281e+01  3.71149e+01        00000 
-5.30416e+01  4.01004e+01        00000 
-7.48935e+01  4.47679e+01        00000 
-9.73314e+01  5.12901e+01        00000 
-1.20575e+02  5.98650e+01        00000 
-1.44966e+02  7.06986e+01        00000 
-1.70915e+02  8.38813e+01        00000 
-1.98631e+02  9.92382e+01        00000 
-2.27557e+02  1.16306e+02        00000 
 2.81034e+02  1.47434e+02        00000 
 2.47574e+02  1.30372e+02        00000 
 2.14787e+02  1.14987e+02        00000 
 1.83199e+02  1.01501e+02        00000 
 1.52864e+02  9.00911e+01        00000 
 1.23589e+02  8.07975e+01        00000 
 9.51400e+01  7.35731e+01        00000 
 6.73412e+01  6.83381e+01        00000 
 4.00962e+01  6.49893e+01        00000 
 1.32958e+01  6.33812e+01        00000 
-1.33154e+01  6.33836e+01        00000 
-4.01088e+01  6.49941e+01        00000 
-6.73444e+01  6.83427e+01        00000 
-9.51359e+01  7.35744e+01        00000 
-1.23582e+02  8.07957e+01        00000 
-1.52856e+02  9.00870e+01        00000 
-1.83192e+02  1.01496e+02        00000 
-2.14781e+02  1.14981e+02        00000 
-2.47568e+02  1.30366e+02        00000 
-2.81029e+02  1.47428e+02        00000 
 3.34646e+02  1.83347e+02        00000 
 2.96206e+02  1.66303e+02        00000 
 2.58262e+02  1.50959e+02        00000 
 2.21196e+02  1.37407e+02        00000 
 1.85123e+02  1.25763e+02        00000 
 1.49962e+02  1.16098e+02        00000 
 1.15541e+02  1.08435e+02        00000 
 8.17271e+01  1.02808e+02        00000 
 4.85371e+01  9.92336e+01        00000 
 1.60410e+01  9.75765e+01        00000 
-1.60712e+01  9.75782e+01        00000 
-4.85542e+01  9.92418e+01        00000 
-8.17270e+01  1.02812e+02        00000 
-1.15531e+02  1.08434e+02        00000 
-1.49950e+02  1.16092e+02        00000 
-1.85113e+02  1.25756e+02        00000 
-2.21188e+02  1.37399e+02        00000 
-2.58255e+02  1.50952e+02        00000 
-2.96201e+02  1.66296e+02        00000 
-3.34640e+02  1.83340e+02        00000 
 3.88301e+02  2.24462e+02        00000 
 3.44613e+02  2.07455e+02        00000 
 3.01397e+02  1.92182e+02        00000 
 2.58897e+02  1.78667e+02        00000 
 2.17210e+02  1.66976e+02        00000 
 1.76297e+02  1.57157e+02        00000 
 1.36013e+02  1.49231e+02        00000 
 9.61500e+01  1.43234e+02        00000 
 5.67789e+01  1.39430e+02        00000 
 1.85463e+01  1.37840e+02        00000 
-1.85946e+01  1.37855e+02        00000 
-5.67978e+01  1.39429e+02        00000 
-9.61434e+01  1.43240e+02        00000 
-1.35992e+02  1.49220e+02        00000 
-1.76281e+02  1.57145e+02        00000 
-2.17199e+02  1.66965e+02        00000 
-2.58888e+02  1.78659e+02        00000 
-3.01391e+02  1.92174e+02        00000 
-3.44608e+02  2.07447e+02        00000 
-3.88297e+02  2.24456e+02        00000 
 4.41899e+02  2.70997e+02        00000 
 3.92808e+02  2.54046e+02        00000 
 3.44227e+02  2.38863e+02        00000 
 2.96287e+02  2.25441e+02        00000 
 2.49052e+02  2.13814e+02        00000 
 2.02492e+02  2.04010e+02        00000 
 1.56486e+02  1.96021e+02        00000 
 1.10796e+02  1.89770e+02        00000 
 6.48779e+01  1.85233e+02        00000 
 2.02231e+01  1.83518e+02        00000 
-2.02839e+01  1.83429e+02        00000 
-6.49300e+01  1.85285e+02        00000 
-1.10744e+02  1.89744e+02        00000 
-1.56460e+02  1.95996e+02        00000 
-2.02477e+02  2.03994e+02        00000 
-2.49042e+02  2.13803e+02        00000 
-2.96280e+02  2.25433e+02        00000 
-3.44221e+02  2.38856e+02        00000 
-3.92804e+02  2.54040e+02        00000 
-4.41895e+02  2.70992e+02        00000 
 4.95348e+02  3.23053e+02        00000 
 4.40778e+02  3.06176e+02        00000 
 3.86765e+02  2.91094e+02        00000 
 3.33365e+02  2.77796e+02        00000 
 2.80602e+02  2.66304e+02        00000 
 2.28448e+02  2.56646e+02        00000 
 1.76811e+02  2.48837e+02        00000 
 1.25497e+02  2.42836e+02        00000 
 7.38836e+01  2.38352e+02        00000 
 2.06853e+01  2.34302e+02        00000 
-2.04776e+01  2.34747e+02        00000 
-7.36935e+01  2.38229e+02        00000 
-1.25450e+02  2.42771e+02        00000 
-1.76792e+02  2.48814e+02        00000 
-2.28436e+02  2.56635e+02        00000 
-2.80594e+02  2.66297e+02        00000 
-3.33358e+02  2.77792e+02        00000 
-3.86759e+02  2.91091e+02        00000 
-4.40773e+02  3.06173e+02        00000 
-4.95346e+02  3.23050e+02        00000 
 5.48582e+02  3.80661e+02        00000 
 4.88502e+02  3.63871e+02        00000 
 4.29019e+02  3.48895e+02        00000 
 3.70135e+02  3.35728e+02        00000 
 3.11843e+02  3.24391e+02        00000 
 2.54103e+02  3.14926e+02        00000 
 1.96829e+02  3.07393e+02        00000 
 1.39869e+02  3.01907e+02        00000 
 8.29423e+01  2.98675e+02        00000 
 2.74490e+01  2.97720e+02        00000 
-2.76081e+01  2.97647e+02        00000 
-8.26791e+01  2.98732e+02        00000 
-1.39841e+02  3.01939e+02        00000 
-1.96812e+02  3.07401e+02        00000 
-2.54092e+02  3.14929e+02        00000 
-3.11835e+02  3.24393e+02        00000 
-3.70128e+02  3.35729e+02        00000 
-4.29013e+02  3.48896e+02        00000 
-4.88497e+02  3.63871e+02        00000 
-5.48580e+02  3.80661e+02        00000 
 6.01556e+02  4.43813e+02        00000 
 5.35966e+02  4.27116e+02        00000 
 4.70995e+02  4.12244e+02        00000 
 4.06615e+02  3.99197e+02        00000 
 3.42793e+02  3.87994e+02        00000 
 2.79475e+02  3.78672e+02        00000 
 2.16577e+02  3.71280e+02        00000 
 1.53976e+02  3.65863e+02        00000 
 9.17259e+01  3.62336e+02        00000 
 3.05491e+01  3.60797e+02        00000 
-3.05416e+01  3.60811e+02        00000 
-9.18134e+01  3.62324e+02        00000 
-1.53926e+02  3.65901e+02        00000 
-2.16557e+02  3.71303e+02        00000 
-2.79463e+02  3.78685e+02        00000 
-3.42784e+02  3.88002e+02        00000 
-4.06608e+02  3.99203e+02        00000 
-4.70989e+02  4.12249e+02        00000 
-5.35960e+02  4.27120e+02        00000 
-6.01553e+02  4.43816e+02        00000 
 6.54247e+02  5.12484e+02        00000 
 5.83160e+02  4.95883e+02        00000 
 5.12704e+02  4.81108e+02        00000 
 4.42832e+02  4.68161e+02        00000 
 3.73496e+02  4.57055e+02        00000 
 3.04638e+02  4.47808e+02        00000 
 2.36189e+02  4.40431e+02        00000 
 1.68105e+02  4.34900e+02        00000 
 1.00464e+02  4.31160e+02        00000 
 3.34053e+01  4.29242e+02        00000 
-3.34181e+01  4.29247e+02        00000 
-1.00494e+02  4.31165e+02        00000 
-1.68100e+02  4.34898e+02        00000 
-2.36170e+02  4.40444e+02        00000 
-3.04625e+02  4.47820e+02        00000 
-3.73485e+02  4.57064e+02        00000 
-4.42823e+02  4.68169e+02        00000 
-5.12697e+02  4.81114e+02        00000 
-5.83154e+02  4.95889e+02        00000 
-6.54242e+02  5.12490e+02        00000 
 7.06645e+02  5.86646e+02        00000 
 6.30084e+02  5.70139e+02        00000 
 5.54156e+02  5.55454e+02        00000 
 4.78808e+02  5.42592e+02        00000 
 4.03987e+02  5.31557e+02        00000 
 3.29639e+02  5.22352e+02        00000 
 2.55712e+02  5.14972e+02        00000 
 1.82181e+02  5.09396e+02        00000 
 1.09056e+02  5.05621e+02        00000 
 3.62977e+01  5.03703e+02        00000 
-3.63125e+01  5.03704e+02        00000 
-1.09070e+02  5.05621e+02        00000 
-1.82182e+02  5.09396e+02        00000 
-2.55703e+02  5.14975e+02        00000 
-3.29628e+02  5.22360e+02        00000 
-4.03977e+02  5.31565e+02        00000 
-4.78799e+02  5.42600e+02        00000 
-5.54148e+02  5.55461e+02        00000 
-6.30077e+02  5.70146e+02        00000 
-7.06638e+02  5.86652e+02        00000 
 7.58748e+02  6.66270e+02        00000 
 6.76737e+02  6.49858e+02        00000 
 5.95357e+02  6.35259e+02        00000 
 5.14557e+02  6.22474e+02        00000 
 4.34283e+02  6.11503e+02        00000 
 3.54483e+02  6.02342e+02        00000 
 2.75111e+02  5.94985e+02        00000 
 1.96130e+02  5.89429e+02        00000 
 1.17498e+02  5.85688e+02        00000 
 3.91283e+01  5.83801e+02        00000 
-3.91402e+01  5.83800e+02        00000 
-1.17507e+02  5.85688e+02        00000 
-1.96132e+02  5.89428e+02        00000 
-2.75107e+02  5.94987e+02        00000 
-3.54476e+02  6.02346e+02        00000 
-4.34274e+02  6.11509e+02        00000 
-5.14549e+02  6.22481e+02        00000 
-5.95349e+02  6.35266e+02        00000 
-6.76729e+02  6.49865e+02        00000 
-7.58740e+02  6.66277e+02        00000 
 8.10558e+02  7.51334e+02        00000 
 7.23118e+02  7.35016e+02        00000 
 6.36311e+02  7.20503e+02        00000 
 5.50083e+02  7.07795e+02        00000 
 4.64383e+02  6.96889e+02        00000 
 3.79158e+02  6.87784e+02        00000 
 2.94359e+02  6.80476e+02        00000 
 2.09934e+02  6.74969e+02        00000 
 1.25817e+02  6.71276e+02        00000 
 4.19102e+01  6.69420e+02        00000 
-4.19196e+01  6.69419e+02        00000 
-1.25824e+02  6.71275e+02        00000 
-2.09937e+02  6.74968e+02        00000 
-2.94358e+02  6.80477e+02        00000 
-3.79153e+02  6.87787e+02        00000 
-4.64376e+02  6.96894e+02        00000 
-5.50075e+02  7.07800e+02        00000 
-6.36303e+02  7.20509e+02        00000 
-7.23110e+02  7.35022e+02        00000 
-8.10549e+02  7.51339e+02        00000 
 8.62074e+02  8.41814e+02        00000 
 7.69229e+02  8.25590e+02        00000 
 6.77017e+02  8.11164e+02        00000 
 5.85384e+02  7.98535e+02        00000 
 4.94280e+02  7.87702e+02        00000 
 4.03652e+02  7.78664e+02        00000 
 3.13446e+02  7.71418e+02        00000 
 2.23598e+02  7.65969e+02        00000 
 1.34034e+02  7.62325e+02        00000 
 4.46537e+01  7.60499e+02        00000 
-4.46613e+01  7.60499e+02        00000 
-1.34040e+02  7.62325e+02        00000 
-2.23601e+02  7.65969e+02        00000 
-3.13445e+02  7.71419e+02        00000 
-4.03649e+02  7.78666e+02        00000 
-4.94275e+02  7.87706e+02        00000 
-5.85377e+02  7.98539e+02        00000 
-6.77009e+02  8.11168e+02        00000 
-7.69220e+02  8.25595e+02        00000 
-8.62064e+02  8.41818e+02        00000 
 9.13296e+02  9.37687e+02        00000 
 8.15069e+02  9.21558e+02        00000 
 7.17473e+02  9.07219e+02        00000 
 6.20457e+02  8.94673e+02        00000 
 5.23971e+02  8.83918e+02        00000 
 4.27960e+02  8.74953e+02        00000 
 3.32369e+02  8.67777e+02        00000 
 2.37129e+02  8.62390e+02        00000 
 1.42161e+02  8.58795e+02        00000 
 4.73647e+01  8.56996e+02        00000 
-4.73713e+01  8.56996e+02        00000 
-1.42166e+02  8.58795e+02        00000 
-2.37132e+02  8.62390e+02        00000 
-3.32369e+02  8.67777e+02        00000 
-4.27958e+02  8.74955e+02        00000 
-5.23966e+02  8.83920e+02        00000 
-6.20451e+02  8.94676e+02        00000 
-7.17465e+02  9.07223e+02        00000 
-8.15059e+02  9.21561e+02        00000 
-9.13285e+02  9.37691e+02        00000 
 9.64225e+02  1.03893e+03        00000 
 8.60638e+02  1.02289e+03        00000 
 7.57679e+02  1.00865e+03        00000 
 6.55300e+02  9.96183e+02        00000 
 5.53451e+02  9.85508e+02        00000 
 4.52079e+02  9.76620e+02        00000 
 3.51129e+02  9.69516e+02        00000 
 2.50530e+02  9.64193e+02        00000 
 1.50202e+02  9.60647e+02        00000 
 5.00457e+01  9.58875e+02        00000 
-5.00517e+01  9.58875e+02        00000 
-1.50207e+02  9.60647e+02        00000 
-2.50534e+02  9.64193e+02        00000 
-3.51130e+02  9.69516e+02        00000 
-4.52078e+02  9.76621e+02        00000 
-5.53447e+02  9.85510e+02        00000 
-6.55294e+02  9.96185e+02        00000 
-7.57671e+02  1.00865e+03        00000 
-8.60628e+02  1.02290e+03        00000 
-9.64213e+02  1.03893e+03        00000 
 1.01486e+03  1.14552e+03        00000 
 9.05937e+02  1.12958e+03        00000 
 7.97635e+02  1.11542e+03        00000 
 6.89911e+02  1.10304e+03        00000 
 5.82718e+02  1.09244e+03        00000 
 4.76007e+02  1.08363e+03        00000 
 3.69723e+02  1.07660e+03        00000 
 2.63801e+02  1.07134e+03        00000 
 1.58159e+02  1.06785e+03        00000 
 5.26970e+01  1.06610e+03        00000 
-5.27028e+01  1.06610e+03        00000 
-1.58164e+02  1.06785e+03        00000 
-2.63804e+02  1.07134e+03        00000 
-3.69725e+02  1.07660e+03        00000 
-4.76006e+02  1.08363e+03        00000 
-5.82715e+02  1.09244e+03        00000 
-6.89905e+02  1.10304e+03        00000 
-7.97627e+02  1.11542e+03        00000 
-9.05927e+02  1.12958e+03        00000 
-1.01485e+03  1.14552e+03        00000 
 2.58463e+01  1.34177e+01        00000 
 2.04519e+01  8.11066e+00        00000 
 1.74519e+01  4.60509e+00        00000 
 1.47432e+01  2.27881e+00        00000 
 1.21821e+01  6.17418e-01        00000 
 9.68858e+00 -5.81020e-01        00000 
 7.23564e+00 -1.42970e+00        00000 
 4.80919e+00 -1.99521e+00        00000 
 2.39997e+00 -2.31881e+00        00000 
-4.58355e-04 -2.42394e+00        00000 
-2.40081e+00 -2.31838e+00        00000 
-4.80980e+00 -1.99449e+00        00000 
-7.23596e+00 -1.42891e+00        00000 
-9.68862e+00 -5.80344e-01        00000 
-1.21819e+01  6.17858e-01        00000 
-1.47428e+01  2.27899e+00        00000 
-1.74515e+01  4.60503e+00        00000 
-2.04514e+01  8.11043e+00        00000 
-2.58456e+01  1.34173e+01        00000 
 8.30325e+01  4.33259e+01        00000 
 6.61890e+01  2.82430e+01        00000 
 5.54599e+01  1.87835e+01        00000 
 4.64537e+01  1.21164e+01        00000 
 3.81593e+01  7.29385e+00        00000 
 3.02290e+01  3.77971e+00        00000 
 2.25131e+01  1.27638e+00        00000 
 1.49350e+01 -3.98544e-01        00000 
 7.44457e+00 -1.35944e+00        00000 
-1.64301e-03 -1.67206e+00        00000 
-7.44752e+00 -1.35835e+00        00000 
-1.49370e+01 -3.96739e-01        00000 
-2.25140e+01  1.27833e+00        00000 
-3.02289e+01  3.78128e+00        00000 
-3.81584e+01  7.29475e+00        00000 
-4.64524e+01  1.21166e+01        00000 
-5.54584e+01  1.87830e+01        00000 
-6.61872e+01  2.82421e+01        00000 
-8.30301e+01  4.33245e+01        00000 
 1.35716e+02  6.80361e+01        00000 
 1.14082e+02  5.18631e+01        00000 
 9.59108e+01  3.88609e+01        00000 
 8.01890e+01  2.90789e+01        00000 
 6.57136e+01  2.17069e+01        00000 
 5.19479e+01  1.62184e+01        00000 
 3.86227e+01  1.22574e+01        00000 
 2.55888e+01  9.58793e+00        00000 
 1.27444e+01  8.05128e+00        00000 
-3.15433e-03  7.55081e+00        00000 
-1.27499e+01  8.05295e+00        00000 
-2.55925e+01  9.59059e+00        00000 
-3.86241e+01  1.22601e+01        00000 
-5.19473e+01  1.62203e+01        00000 
-6.57116e+01  2.17076e+01        00000 
-8.01863e+01  2.90785e+01        00000 
-9.59079e+01  3.88595e+01        00000 
-1.14078e+02  5.18611e+01        00000 
-1.35712e+02  6.80335e+01        00000 
 1.87408e+02  9.37473e+01        00000 
 1.61309e+02  7.74288e+01        00000 
 1.37214e+02  6.33336e+01        00000 
 1.15065e+02  5.18195e+01        00000 
 9.43356e+01  4.27491e+01        00000 
 7.45386e+01  3.58006e+01        00000 
 5.53738e+01  3.06998e+01        00000 
 3.66545e+01  2.72318e+01        00000 
 1.82423e+01  2.52307e+01        00000 
-5.16119e-03  2.45793e+01        00000 
-1.82512e+01  2.52330e+01        00000 
-3.66599e+01  2.72354e+01        00000 
-5.53752e+01  3.07029e+01        00000 
-7.45368e+01  3.58022e+01        00000 
-9.43320e+01  4.27490e+01        00000 
-1.15061e+02  5.18178e+01        00000 
-1.37210e+02  6.33308e+01        00000 
-1.61304e+02  7.74253e+01        00000 
-1.87403e+02  9.37434e+01        00000 
 2.38702e+02  1.22773e+02        00000 
 2.07975e+02  1.06488e+02        00000 
 1.78431e+02  9.20638e+01        00000 
 1.50332e+02  7.97971e+01        00000 
 1.23503e+02  6.97576e+01        00000 
 9.76525e+01  6.18554e+01        00000 
 7.25328e+01  5.59506e+01        00000 
 4.79782e+01  5.19056e+01        00000 
 2.38571e+01  4.95768e+01        00000 
-7.95658e-03  4.88239e+01        00000 
-2.38705e+01  4.95803e+01        00000 
-4.79853e+01  5.19103e+01        00000 
-7.25333e+01  5.59539e+01        00000 
-9.76484e+01  6.18560e+01        00000 
-1.23497e+02  6.97557e+01        00000 
-1.50326e+02  7.97934e+01        00000 
-1.78426e+02  9.20591e+01        00000 
-2.07970e+02  1.06483e+02        00000 
-2.38697e+02  1.22768e+02        00000 
 2.89867e+02  1.56242e+02        00000 
 2.54212e+02  1.40011e+02        00000 