<?xml version="1.0" encoding="utf-8"?>
<VTKFile byte_order="LittleEndian" type="UnstructuredGrid" version="0.1">
   <UnstructuredGrid>
      <Piece NumberOfCells="21660" NumberOfPoints="11135">
         <Points>
            <DataArray Name="Points" NumberOfComponents="3" format="ascii" type="Float32">
-1.0000 -1.0000 0.0000
-1.0000 -0.8947 0.0000
-1.0000 -0.7895 0.0000
-1.0000 -0.6842 0.0000
-1.0000 -0.5789 0.0000
-1.0000 -0.4737 0.0000
-1.0000 -0.3684 0.0000
-1.0000 -0.2632 0.0000
-1.0000 -0.1579 0.0000
-1.0000 -0.0526 0.0000
-1.0000 0.0526 0.0000
-1.0000 0.1579 0.0000
-1.0000 0.2632 0.0000
-1.0000 0.3684 0.0000
-1.0000 0.4737 0.0000
-1.0000 0.5789 0.0000
-1.0000 0.6842 0.0000
-1.0000 0.7895 0.0000
-1.0000 0.8947 0.0000
-1.0000 1.0000 0.0000
-0.8947 -1.0000 0.0000
-0.8947 -0.8947 0.0000
-0.8947 -0.7895 0.0000
-0.8947 -0.6842 0.0000
-0.8947 -0.5789 0.0000
-0.8947 -0.4737 0.0000
-0.8947 -0.3684 0.0000
-0.8947 -0.2632 0.0000
-0.8947 -0.1579 0.0000
-0.8947 -0.0526 0.0000
-0.8947 0.0526 0.0000
-0.8947 0.1579 0.0000
-0.8947 0.2632 0.0000
-0.8947 0.3684 0.0000
-0.8947 0.4737 0.0000
-0.8947 0.5789 0.0000
-0.8947 0.6842 0.0000
-0.8947 0.7895 0.0000
-0.8947 0.8947 0.0000
-0.8947 1.0000 0.0000
-0.7895 -1.0000 0.0000
-0.7895 -0.8947 0.0000
-0.7895 -0.7895 0.0000
-0.7895 -0.6842 0.0000
-0.7895 -0.5789 0.0000
-0.7895 -0.4737 0.0000
-0.7895 -0.3684 0.0000
-0.7895 -0.2632 0.0000
-0.7895 -0.1579 0.0000
-0.7895 -0.0526 0.0000
-0.7895 0.0526 0.0000
-0.7895 0.1579 0.0000
-0.7895 0.2632 0.0000
-0.7895 0.3684 0.0000
-0.7895 0.4737 0.0000
-0.7895 0.5789 0.0000
-0.7895 0.6842 0.0000
-0.7895 0.7895 0.0000
-0.7895 0.8947 0.0000
-0.7895 1.0000 0.0000
-0.6842 -1.0000 0.0000
-0.6842 -0.8947 0.0000
-0.6842 -0.7895 0.0000
-0.6842 -0.6842 0.0000
-0.6842 -0.5789 0.0000
-0.6842 -0.4737 0.0000
-0.6842 -0.3684 0.0000
-0.6842 -0.2632 0.0000
-0.6842 -0.1579 0.0000
-0.6842 -0.0526 0.0000
-0.6842 0.0526 0.0000
-0.6842 0.1579 0.0000
-0.6842 0.2632 0.0000
-0.6842 0.3684 0.0000
-0.6842 0.4737 0.0000
-0.6842 0.5789 0.0000
-0.6842 0.6842 0.0000
-0.6842 0.7895 0.0000
-0.6842 0.8947 0.0000
-0.6842 1.0000 0.0000
-0.5789 -1.0000 0.0000
-0.5789 -0.8947 0.0000
-0.5789 -0.7895 0.0000
-0.5789 -0.6842 0.0000
-0.5789 -0.5789 0.0000
-0.5789 -0.4737 0.0000
-0.5789 -0.3684 0.0000
-0.5789 -0.2632 0.0000
-0.5789 -0.1579 0.0000
-0.5789 -0.0526 0.0000
-0.5789 0.0526 0.0000
-0.5789 0.1579 0.0000
-0.5789 0.2632 0.0000
-0.5789 0.3684 0.0000
-0.5789 0.4737 0.0000
-0.5789 0.5789 0.0000
-0.5789 0.6842 0.0000
-0.5789 0.7895 0.0000
-0.5789 0.8947 0.0000
-0.5789 1.0000 0.0000
-0.4737 -1.0000 0.0000
-0.4737 -0.8947 0.0000
-0.4737 -0.7895 0.0000
-0.4737 -0.6842 0.0000
-0.4737 -0.5789 0.0000
-0.4737 -0.4737 0.0000
-0.4737 -0.3684 0.0000
-0.4737 -0.2632 0.0000
-0.4737 -0.1579 0.0000
-0.4737 -0.0526 0.0000
-0.4737 0.0526 0.0000
-0.4737 0.1579 0.0000
-0.4737 0.2632 0.0000
-0.4737 0.3684 0.0000
-0.4737 0.4737 0.0000
-0.4737 0.5789 0.0000
-0.4737 0.6842 0.0000
-0.4737 0.7895 0.0000
-0.4737 0.8947 0.0000
-0.4737 1.0000 0.0000
-0.3684 -1.0000 0.0000
-0.3684 -0.8947 0.0000
-0.3684 -0.7895 0.0000
-0.3684 -0.6842 0.0000
-0.3684 -0.5789 0.0000
-0.3684 -0.4737 0.0000
-0.3684 -0.3684 0.0000
-0.3684 -0.2632 0.0000
-0.3684 -0.1579 0.0000
-0.3684 -0.0526 0.0000
-0.3684 0.0526 0.0000
-0.3684 0.1579 0.0000
-0.3684 0.2632 0.0000
-0.3684 0.3684 0.0000
-0.3684 0.4737 0.0000
-0.3684 0.5789 0.0000
-0.3684 0.6842 0.0000
-0.3684 0.7895 0.0000
-0.3684 0.8947 0.0000
-0.3684 1.0000 0.0000
-0.2632 -1.0000 0.0000
-0.2632 -0.8947 0.0000
-0.2632 -0.7895 0.0000
-0.2632 -0.6842 0.0000
-0.2632 -0.5789 0.0000
-0.2632 -0.4737 0.0000
-0.2632 -0.3684 0.0000
-0.2632 -0.2632 0.0000
-0.2632 -0.1579 0.0000
-0.2632 -0.0526 0.0000
-0.2632 0.0526 0.0000
-0.2632 0.1579 0.0000
-0.2632 0.2632 0.0000
-0.2632 0.3684 0.0000
-0.2632 0.4737 0.0000
-0.2632 0.5789 0.0000
-0.2632 0.6842 0.0000
-0.2632 0.7895 0.0000
-0.2632 0.8947 0.0000
-0.2632 1.0000 0.0000
-0.1579 -1.0000 0.0000
-0.1579 -0.8947 0.0000
-0.1579 -0.7895 0.0000
-0.1579 -0.6842 0.0000
-0.1579 -0.5789 0.0000
-0.1579 -0.4737 0.0000
-0.1579 -0.3684 0.0000
-0.1579 -0.2632 0.0000
-0.1579 -0.1579 0.0000
-0.1579 -0.0526 0.0000
-0.1579 0.0526 0.0000
-0.1579 0.1579 0.0000
-0.1579 0.2632 0.0000
-0.1579 0.3684 0.0000
-0.1579 0.4737 0.0000
-0.1579 0.5789 0.0000
-0.1579 0.6842 0.0000
-0.1579 0.7895 0.0000
-0.1579 0.8947 0.0000
-0.1579 1.0000 0.0000
-0.0526 -1.0000 0.0000
-0.0526 -0.8947 0.0000
-0.0526 -0.7895 0.0000
-0.0526 -0.6842 0.0000
-0.0526 -0.5789 0.0000
-0.0526 -0.4737 0.0000
-0.0526 -0.3684 0.0000
-0.0526 -0.2632 0.0000
-0.0526 -0.1579 0.0000
-0.0526 -0.0526 0.0000
-0.0526 0.0526 0.0000
-0.0526 0.1579 0.0000
-0.0526 0.2632 0.0000
-0.0526 0.3684 0.0000
-0.0526 0.4737 0.0000
-0.0526 0.5789 0.0000
-0.0526 0.6842 0.0000
-0.0526 0.7895 0.0000
-0.0526 0.8947 0.0000
-0.0526 1.0000 0.0000
0.0526 -1.0000 0.0000
0.0526 -0.8947 0.0000
0.0526 -0.7895 0.0000
0.0526 -0.6842 0.0000
0.0526 -0.5789 0.0000
0.0526 -0.4737 0.0000
0.0526 -0.3684 0.0000
0.0526 -0.2632 0.0000
0.0526 -0.1579 0.0000
0.0526 -0.0526 0.0000
0.0526 0.0526 0.0000
0.0526 0.1579 0.0000
0.0526 0.2632 0.0000
0.0526 0.3684 0.0000
0.0526 0.4737 0.0000
0.0526 0.5789 0.0000
0.0526 0.6842 0.0000
0.0526 0.7895 0.0000
0.0526 0.8947 0.0000
0.0526 1.0000 0.0000
0.1579 -1.0000 0.0000
0.1579 -0.8947 0.0000
0.1579 -0.7895 0.0000
0.1579 -0.6842 0.0000
0.1579 -0.5789 0.0000
0.1579 -0.4737 0.0000
0.1579 -0.3684 0.0000
0.1579 -0.2632 0.0000
0.1579 -0.1579 0.0000
0.1579 -0.0526 0.0000
0.1579 0.0526 0.0000
0.1579 0.1579 0.0000
0.1579 0.2632 0.0000
0.1579 0.3684 0.0000
0.1579 0.4737 0.0000
0.1579 0.5789 0.0000
0.1579 0.6842 0.0000
0.1579 0.7895 0.0000
0.1579 0.8947 0.0000
0.1579 1.0000 0.0000
0.2632 -1.0000 0.0000
0.2632 -0.8947 0.0000
0.2632 -0.7895 0.0000
0.2632 -0.6842 0.0000
0.2632 -0.5789 0.0000
0.2632 -0.4737 0.0000
0.2632 -0.3684 0.0000
0.2632 -0.2632 0.0000
0.2632 -0.1579 0.0000
0.2632 -0.0526 0.0000
0.2632 0.0526 0.0000
0.2632 0.1579 0.0000
0.2632 0.2632 0.0000
0.2632 0.3684 0.0000
0.2632 0.4737 0.0000
0.2632 0.5789 0.0000
0.2632 0.6842 0.0000
0.2632 0.7895 0.0000
0.2632 0.8947 0.0000
0.2632 1.0000 0.0000
0.3684 -1.0000 0.0000
0.3684 -0.8947 0.0000
0.3684 -0.7895 0.0000
0.3684 -0.6842 0.0000
0.3684 -0.5789 0.0000
0.3684 -0.4737 0.0000
0.3684 -0.3684 0.0000
0.3684 -0.2632 0.0000
0.3684 -0.1579 0.0000
0.3684 -0.0526 0.0000
0.3684 0.0526 0.0000
0.3684 0.1579 0.0000
0.3684 0.2632 0.0000
0.3684 0.3684 0.0000
0.3684 0.4737 0.0000
0.3684 0.5789 0.0000
0.3684 0.6842 0.0000
0.3684 0.7895 0.0000
0.3684 0.8947 0.0000
0.3684 1.0000 0.0000
0.4737 -1.0000 0.0000
0.4737 -0.8947 0.0000
0.4737 -0.7895 0.0000
0.4737 -0.6842 0.0000
0.4737 -0.5789 0.0000
0.4737 -0.4737 0.0000
0.4737 -0.3684 0.0000
0.4737 -0.2632 0.0000
0.4737 -0.1579 0.0000
0.4737 -0.0526 0.0000
0.4737 0.0526 0.0000
0.4737 0.1579 0.0000
0.4737 0.2632 0.0000
0.4737 0.3684 0.0000
0.4737 0.4737 0.0000
0.4737 0.5789 0.0000
0.4737 0.6842 0.0000
0.4737 0.7895 0.0000
0.4737 0.8947 0.0000
0.4737 1.0000 0.0000
0.5789 -1.0000 0.0000
0.5789 -0.8947 0.0000
0.5789 -0.7895 0.0000
0.5789 -0.6842 0.0000
0.5789 -0.5789 0.0000
0.5789 -0.4737 0.0000
0.5789 -0.3684 0.0000
0.5789 -0.2632 0.0000
0.5789 -0.1579 0.0000
0.5789 -0.0526 0.0000
0.5789 0.0526 0.0000
0.5789 0.1579 0.0000
0.5789 0.2632 0.0000
0.5789 0.3684 0.0000
0.5789 0.4737 0.0000
0.5789 0.5789 0.0000
0.5789 0.6842 0.0000
0.5789 0.7895 0.0000
0.5789 0.8947 0.0000
0.5789 1.0000 0.0000
0.6842 -1.0000 0.0000
0.6842 -0.8947 0.0000
0.6842 -0.7895 0.0000
0.6842 -0.6842 0.0000
0.6842 -0.5789 0.0000
0.6842 -0.4737 0.0000
0.6842 -0.3684 0.0000
0.6842 -0.2632 0.0000
0.6842 -0.1579 0.0000
0.6842 -0.0526 0.0000
0.6842 0.0526 0.0000
0.6842 0.1579 0.0000
0.6842 0.2632 0.0000
0.6842 0.3684 0.0000
0.6842 0.4737 0.0000
0.6842 0.5789 0.0000
0.6842 0.6842 0.0000
0.6842 0.7895 0.0000
0.6842 0.8947 0.0000
0.6842 1.0000 0.0000
0.7895 -1.0000 0.0000
0.7895 -0.8947 0.0000
0.7895 -0.7895 0.0000
0.7895 -0.6842 0.0000
0.7895 -0.5789 0.0000
0.7895 -0.4737 0.0000
0.7895 -0.3684 0.0000
0.7895 -0.2632 0.0000
0.7895 -0.1579 0.0000
0.7895 -0.0526 0.0000
0.7895 0.0526 0.0000
0.7895 0.1579 0.0000
0.7895 0.2632 0.0000
0.7895 0.3684 0.0000
0.7895 0.4737 0.0000
0.7895 0.5789 0.0000
0.7895 0.6842 0.0000
0.7895 0.7895 0.0000
0.7895 0.8947 0.0000
0.7895 1.0000 0.0000
0.8947 -1.0000 0.0000
0.8947 -0.8947 0.0000
0.8947 -0.7895 0.0000
0.8947 -0.6842 0.0000
0.8947 -0.5789 0.0000
0.8947 -0.4737 0.0000
0.8947 -0.3684 0.0000
0.8947 -0.2632 0.0000
0.8947 -0.1579 0.0000
0.8947 -0.0526 0.0000
0.8947 0.0526 0.0000
0.8947 0.1579 0.0000
0.8947 0.2632 0.0000
0.8947 0.3684 0.0000
0.8947 0.4737 0.0000
0.8947 0.5789 0.0000
0.8947 0.6842 0.0000
0.8947 0.7895 0.0000
0.8947 0.8947 0.0000
0.8947 1.0000 0.0000
1.0000 -1.0000 0.0000
1.0000 -0.8947 0.0000
1.0000 -0.7895 0.0000
1.0000 -0.6842 0.0000
1.0000 -0.5789 0.0000
1.0000 -0.4737 0.0000
1.0000 -0.3684 0.0000
1.0000 -0.2632 0.0000
1.0000 -0.1579 0.0000
1.0000 -0.0526 0.0000
1.0000 0.0526 0.0000
1.0000 0.1579 0.0000
1.0000 0.2632 0.0000
1.0000 0.3684 0.0000
1.0000 0.4737 0.0000
1.0000 0.5789 0.0000
1.0000 0.6842 0.0000
1.0000 0.7895 0.0000
1.0000 0.8947 0.0000
1.0000 1.0000 0.0000
-0.9474 -0.9474 0.0000
-0.9474 -0.8421 0.0000
-0.9474 -0.7368 0.0000
-0.9474 -0.6316 0.0000
-0.9474 -0.5263 0.0000
-0.9474 -0.4211 0.0000
-0.9474 -0.3158 0.0000
-0.9474 -0.2105 0.0000
-0.9474 -0.1053 0.0000
-0.9474 0.0000 0.0000
-0.9474 0.1053 0.0000
-0.9474 0.2105 0.0000
-0.9474 0.3158 0.0000
-0.9474 0.4211 0.0000
-0.9474 0.5263 0.0000
-0.9474 0.6316 0.0000
-0.9474 0.7368 0.0000
-0.9474 0.8421 0.0000
-0.9474 0.9474 0.0000
-0.8421 -0.9474 0.0000
-0.8421 -0.8421 0.0000
-0.8421 -0.7368 0.0000
-0.8421 -0.6316 0.0000
-0.8421 -0.5263 0.0000
-0.8421 -0.4211 0.0000
-0.8421 -0.3158 0.0000
-0.8421 -0.2105 0.0000
-0.8421 -0.1053 0.0000
-0.8421 0.0000 0.0000
-0.8421 0.1053 0.0000
-0.8421 0.2105 0.0000
-0.8421 0.3158 0.0000
-0.8421 0.4211 0.0000
-0.8421 0.5263 0.0000
-0.8421 0.6316 0.0000
-0.8421 0.7368 0.0000
-0.8421 0.8421 0.0000
-0.8421 0.9474 0.0000
-0.7368 -0.9474 0.0000
[...]
         <PointData>
            <DataArray Name="fValues" NumberOfComponents="3" format="ascii" type="Float64">
-5.73626e-15 -3.35144e-15        00000 
-6.28398e-15  6.09852e-15        00000 
 6.90471e-16 -2.24403e-15        00000 
-9.12445e-16 -1.05031e-15        00000 
-6.90471e-16 -5.17853e-16        00000 
 6.76670e-15  1.68083e-16        00000 
 3.45235e-16 -1.20832e-15        00000 
 8.46939e-16  1.13235e-15        00000 
-3.45235e-16 -1.46725e-15        00000 
 1.03019e-15 -2.71102e-17        00000 
-2.07141e-15 -1.38094e-15        00000 
 2.43785e-15 -1.56719e-15        00000 
-4.66068e-15 -6.04162e-16        00000 
-5.96424e-16 -1.51817e-16        00000 
 6.90471e-16 -6.90471e-16        00000 
 1.20474e-14  4.08122e-17        00000 
 8.28565e-15 -8.63089e-17        00000 
-1.01690e-14 -3.74819e-16        00000 
 2.01954e-14  6.00639e-15        00000 
-3.06243e-14 -5.15523e-15        00000 
 1.07774e+02  6.56223e+01        00000 
 7.80708e+01  3.63339e+01        00000 
 6.58615e+01  2.11565e+01        00000 
 5.57334e+01  1.15153e+01        00000 
 4.65609e+01  4.75688e+00        00000 
 3.77842e+01 -1.33201e-01        00000 
 2.92229e+01 -3.66448e+00        00000 
 2.07909e+01 -6.12167e+00        00000 
 1.24415e+01 -7.67587e+00        00000 
 4.14058e+00 -8.42846e+00        00000 
-4.14386e+00 -8.42782e+00        00000 
-1.24442e+01 -7.67417e+00        00000 
-2.07925e+01 -6.11943e+00        00000 
-2.92234e+01 -3.66235e+00        00000 
-3.77837e+01 -1.31663e-01        00000 
-4.65598e+01  4.75760e+00        00000 
-5.57319e+01  1.15152e+01        00000 
-6.58598e+01  2.11558e+01        00000 
-7.80688e+01  3.63327e+01        00000 
-1.07771e+02  6.56202e+01        00000 
 1.99932e+02  1.04526e+02        00000 
 1.64454e+02  7.63445e+01        00000 
 1.37558e+02  5.26701e+01        00000 
 1.16039e+02  3.56547e+01        00000 
 9.65544e+01  2.31714e+01        00000 
 7.81283e+01  1.39333e+01        00000 
 6.02948e+01  7.17871e+00        00000 
 4.28298e+01  2.44319e+00        00000 
 2.56026e+01 -5.65302e-01        00000 
 8.51572e+00 -2.02538e+00        00000 
-8.52324e+00 -2.02429e+00        00000 
-2.56084e+01 -5.62433e-01        00000 
-4.28331e+01  2.44681e+00        00000 
-6.02954e+01  7.18192e+00        00000 
-7.81267e+01  1.39352e+01        00000 
-9.65516e+01  2.31718e+01        00000 
-1.16036e+02  3.56537e+01        00000 
-1.37554e+02  5.26679e+01        00000 
-1.64450e+02  7.63415e+01        00000 
-1.99926e+02  1.04522e+02        00000 
 2.89091e+02  1.43797e+02        00000 
 2.48733e+02  1.15167e+02        00000 
 2.11998e+02  8.98532e+01        00000 
 1.79212e+02  6.90334e+01        00000 
 1.49087e+02  5.27463e+01        00000 
 1.20509e+02  4.02508e+01        00000 
 9.28987e+01  3.09211e+01        00000 
 6.59225e+01  2.43002e+01        00000 
 3.93747e+01  2.00673e+01        00000 
 1.30899e+01  1.80078e+01        00000 
-1.31029e+01  1.80094e+01        00000 
-3.93845e+01  2.00713e+01        00000 
-6.59273e+01  2.43049e+01        00000 
-9.28986e+01  3.09247e+01        00000 
-1.20506e+02  4.02522e+01        00000 
-1.49082e+02  5.27453e+01        00000 
-1.79206e+02  6.90305e+01        00000 
-2.11992e+02  8.98488e+01        00000 
-2.48727e+02  1.15162e+02        00000 
-2.89083e+02  1.43791e+02        00000 
 3.78417e+02  1.87110e+02        00000 
 3.31667e+02  1.58450e+02        00000 
 2.86356e+02  1.32614e+02        00000 
 2.43557e+02  1.10367e+02        00000 
 2.03046e+02  9.20141e+01        00000 
 1.64226e+02  7.74269e+01        00000 
 1.26583e+02  6.62805e+01        00000 
 8.97790e+01  5.82620e+01        00000 
 5.35876e+01  5.31048e+01        00000 
 1.78051e+01  5.05936e+01        00000 
-1.78254e+01  5.05958e+01        00000 
-5.36021e+01  5.31103e+01        00000 
-8.97847e+01  5.82677e+01        00000 
-1.26581e+02  6.62838e+01        00000 
-1.64219e+02  7.74266e+01        00000 
-2.03037e+02  9.20106e+01        00000 
-2.43548e+02  1.10361e+02        00000 
-2.86348e+02  1.32607e+02        00000 
-3.31660e+02  1.58442e+02        00000 
-3.78408e+02  1.87102e+02        00000 
 4.68305e+02  2.37207e+02        00000 
 4.13968e+02  2.08471e+02        00000 
 3.60205e+02  1.82534e+02        00000 
 3.08002e+02  1.59757e+02        00000 
 2.57556e+02  1.40442e+02        00000 
 2.08634e+02  1.24669e+02        00000 
 1.60899e+02  1.12365e+02        00000 
 1.14086e+02  1.03403e+02        00000 
 6.80355e+01  9.76261e+01        00000 
 2.25838e+01  9.48285e+01        00000 
-2.26146e+01  9.48320e+01        00000 
-6.80557e+01  9.76332e+01        00000 
-1.14091e+02  1.03410e+02        00000 
-1.60892e+02  1.12367e+02        00000 
-2.08622e+02  1.24665e+02        00000 
-2.57544e+02  1.40435e+02        00000 
-3.07991e+02  1.59748e+02        00000 
-3.60196e+02  1.82523e+02        00000 
-4.13960e+02  2.08460e+02        00000 
-4.68296e+02  2.37196e+02        00000 
 5.58705e+02  2.95362e+02        00000 
 4.95993e+02  2.66576e+02        00000 
 4.33575e+02  2.40649e+02        00000 
 3.72183e+02  2.17730e+02        00000 
 3.12103e+02  1.98020e+02        00000 
 2.53286e+02  1.81643e+02        00000 
 1.95512e+02  1.68639e+02        00000 
 1.38583e+02  1.59052e+02        00000 
 8.24896e+01  1.52895e+02        00000 
 2.73113e+01  1.49991e+02        00000 
-2.73578e+01  1.49993e+02        00000 
-8.25175e+01  1.52907e+02        00000 
-1.38583e+02  1.59057e+02        00000 
-1.95496e+02  1.68637e+02        00000 
-2.53266e+02  1.81632e+02        00000 
-3.12086e+02  1.98007e+02        00000 
-3.72170e+02  2.17717e+02        00000 
-4.33564e+02  2.40637e+02        00000 
-4.95984e+02  2.66564e+02        00000 
-5.58696e+02  2.95350e+02        00000 
 6.49442e+02  3.62294e+02        00000 
 5.77868e+02  3.33489e+02        00000 
 5.06556e+02  3.07619e+02        00000 
 4.35998e+02  2.84723e+02        00000 
 3.66448e+02  2.64915e+02        00000 
 2.97920e+02  2.48294e+02        00000 
 2.30258e+02  2.34900e+02        00000 
 1.63171e+02  2.24779e+02        00000 
 9.67102e+01  2.18293e+02        00000 
 3.17253e+01  2.15469e+02        00000 
-3.17968e+01  2.15489e+02        00000 
-9.67459e+01  2.18290e+02        00000 
-1.63160e+02  2.24788e+02        00000 
-2.30223e+02  2.34882e+02        00000 
-2.97895e+02  2.48273e+02        00000 
-3.66429e+02  2.64897e+02        00000 
-4.35985e+02  2.84708e+02        00000 
-5.06546e+02  3.07606e+02        00000 
-5.77860e+02  3.33477e+02        00000 
-6.49436e+02  3.62282e+02        00000 
 7.40342e+02  4.38393e+02        00000 
 6.59614e+02  4.09603e+02        00000 
 5.79210e+02  3.83815e+02        00000 
 4.99438e+02  3.61022e+02        00000 
 4.20482e+02  3.41286e+02        00000 
 3.42375e+02  3.24670e+02        00000 
 2.65003e+02  3.11191e+02        00000 
 1.88080e+02  3.00759e+02        00000 
 1.10754e+02  2.93295e+02        00000 
 3.49744e+01  2.90421e+02        00000 
-3.50570e+01  2.90293e+02        00000 
-1.10854e+02  2.93371e+02        00000 
-1.87991e+02  3.00711e+02        00000 
-2.64961e+02  3.11148e+02        00000 
-3.42350e+02  3.24643e+02        00000 
-4.20465e+02  3.41267e+02        00000 
-4.99426e+02  3.61009e+02        00000 
-5.79201e+02  3.83804e+02        00000 
-6.59607e+02  4.09592e+02        00000 
-7.40338e+02  4.38384e+02        00000 
 8.31254e+02  5.23862e+02        00000 
 7.41207e+02  4.95115e+02        00000 
 6.51568e+02  4.69425e+02        00000 
 5.62511e+02  4.46774e+02        00000 
 4.74152e+02  4.27200e+02        00000 
 3.86521e+02  4.10761e+02        00000 
 2.99546e+02  3.97504e+02        00000 
 2.13009e+02  3.87414e+02        00000 
 1.26187e+02  3.80149e+02        00000 
 3.65431e+01  3.74156e+02        00000 
-3.63036e+01  3.74799e+02        00000 
-1.25839e+02  3.79959e+02        00000 
-2.12933e+02  3.87312e+02        00000 
-2.99513e+02  3.97469e+02        00000 
-3.86502e+02  4.10744e+02        00000 
-4.74138e+02  4.27189e+02        00000 
-5.62500e+02  4.46766e+02        00000 
-6.51560e+02  4.69419e+02        00000 
-7.41200e+02  4.95109e+02        00000 
-8.31252e+02  5.23857e+02        00000 
 9.22065e+02  6.18790e+02        00000 
 8.22615e+02  5.90107e+02        00000 
 7.23645e+02  5.64521e+02        00000 
 6.25236e+02  5.42018e+02        00000 
 5.27450e+02  5.22629e+02        00000 
 4.30294e+02  5.06417e+02        00000 
 3.33706e+02  4.93470e+02        00000 
 2.37543e+02  4.83928e+02        00000 
 1.41626e+02  4.77997e+02        00000 
 4.82083e+01  4.75570e+02        00000 
-4.83630e+01  4.75328e+02        00000 
-1.41199e+02  4.78113e+02        00000 
-2.37488e+02  4.83991e+02        00000 
-3.33676e+02  4.93488e+02        00000 
-4.30277e+02  5.06423e+02        00000 
-5.27437e+02  5.22632e+02        00000 
-6.25226e+02  5.42019e+02        00000 
-7.23636e+02  5.64521e+02        00000 
-8.22608e+02  5.90107e+02        00000 
-9.22063e+02  6.18790e+02        00000 
 1.01270e+03  7.23202e+02        00000 
 9.03809e+02  6.94595e+02        00000 
 7.95450e+02  6.69111e+02        00000 
 6.87645e+02  6.46741e+02        00000 
 5.80410e+02  6.27509e+02        00000 
 4.73732e+02  6.11463e+02        00000 
 3.67552e+02  5.98667e+02        00000 
 2.61779e+02  5.89159e+02        00000 
 1.56594e+02  5.82844e+02        00000 
 5.25831e+01  5.80113e+02        00000 
-5.25900e+01  5.80160e+02        00000 
-1.56731e+02  5.82809e+02        00000 
-2.61693e+02  5.89219e+02        00000 
-3.67517e+02  5.98705e+02        00000 
-4.73710e+02  6.11484e+02        00000 
-5.80395e+02  6.27521e+02        00000 
-6.87633e+02  6.46749e+02        00000 
-7.95441e+02  6.69117e+02        00000 
-9.03802e+02  6.94600e+02        00000 
-1.01269e+03  7.23207e+02        00000 
 1.10311e+03  8.37092e+02        00000 
 9.84772e+02  8.08567e+02        00000 
 8.66997e+02  7.83178e+02        00000 
 7.49772e+02  7.60918e+02        00000 
 6.33089e+02  7.41801e+02        00000 
 5.16921e+02  7.25852e+02        00000 
 4.01226e+02  7.13088e+02        00000 
 2.85993e+02  7.03492e+02        00000 
 1.71290e+02  6.97070e+02        00000 
 5.70832e+01  6.93894e+02        00000 
-5.71139e+01  6.93896e+02        00000 
-1.71335e+02  6.97077e+02        00000 
-2.85983e+02  7.03486e+02        00000 
-4.01192e+02  7.13108e+02        00000 
-5.16897e+02  7.25871e+02        00000 
-6.33072e+02  7.41816e+02        00000 
-7.49759e+02  7.60929e+02        00000 
-8.66987e+02  7.83187e+02        00000 
-9.84764e+02  8.08576e+02        00000 
-1.10310e+03  8.37100e+02        00000 
 1.19327e+03  9.60442e+02        00000 
 1.06549e+03  9.32003e+02        00000 
 9.38296e+02  9.06701e+02        00000 
 8.11648e+02  8.84534e+02        00000 
 6.85529e+02  8.65507e+02        00000 
 5.59910e+02  8.49624e+02        00000 
 4.34762e+02  8.36888e+02        00000 
 3.10070e+02  8.27295e+02        00000 
 1.85815e+02  8.20863e+02        00000 
 6.18947e+01  8.17638e+02        00000 
-6.19220e+01  8.17639e+02        00000 
-1.85837e+02  8.20859e+02        00000 
-3.10070e+02  8.27292e+02        00000 
-4.34746e+02  8.36891e+02        00000 
-5.59890e+02  8.49635e+02        00000 
-6.85513e+02  8.65518e+02        00000 
-8.11635e+02  8.84545e+02        00000 
-9.38285e+02  9.06711e+02        00000 
-1.06548e+03  9.32012e+02        00000 
-1.19326e+03  9.60450e+02        00000 
 1.28316e+03  1.09323e+03        00000 
 1.14597e+03  1.06488e+03        00000 
 1.00935e+03  1.03966e+03        00000 
 8.73288e+02  1.01758e+03        00000 
 7.37749e+02  9.98634e+02        00000 
 6.02705e+02  9.82822e+02        00000 
 4.68128e+02  9.70143e+02        00000 
 3.33982e+02  9.60601e+02        00000 
 2.00209e+02  9.54214e+02        00000 
 6.66982e+01  9.51010e+02        00000 
-6.67176e+01  9.51008e+02        00000 
-2.00222e+02  9.54210e+02        00000 
-3.33984e+02  9.60597e+02        00000 
-4.68120e+02  9.70143e+02        00000 
-6.02692e+02  9.82826e+02        00000 
-7.37735e+02  9.98641e+02        00000 
-8.73276e+02  1.01759e+03        00000 
-1.00934e+03  1.03967e+03        00000 
-1.14596e+03  1.06489e+03        00000 
-1.28315e+03  1.09324e+03        00000 
 1.37279e+03  1.23544e+03        00000 
 1.22619e+03  1.20717e+03        00000 
 1.08017e+03  1.18204e+03        00000 
 9.34697e+02  1.16005e+03        00000 
 7.89750e+02  1.14118e+03        00000 
 6.45298e+02  1.12545e+03        00000 
 5.01306e+02  1.11285e+03        00000 
 3.57724e+02  1.10339e+03        00000 
 2.14480e+02  1.09706e+03        00000 
 7.14620e+01  1.09389e+03        00000 
-7.14749e+01  1.09389e+03        00000 
-2.14489e+02  1.09706e+03        00000 
-3.57726e+02  1.10338e+03        00000 
-5.01301e+02  1.11285e+03        00000 
-6.45289e+02  1.12546e+03        00000 
-7.89739e+02  1.14119e+03        00000 
-9.34686e+02  1.16005e+03        00000 
-1.08016e+03  1.18205e+03        00000 
-1.22618e+03  1.20718e+03        00000 
-1.37278e+03  1.23545e+03        00000 
 1.46216e+03  1.38705e+03        00000 
 1.30616e+03  1.35887e+03        00000 
 1.15074e+03  1.33382e+03        00000 
 9.95873e+02  1.31191e+03        00000 
 8.41527e+02  1.29314e+03        00000 
 6.87679e+02  1.27750e+03        00000 
 5.34289e+02  1.26499e+03        00000 
 3.81302e+02  1.25561e+03        00000 
 2.28638e+02  1.24935e+03        00000 
 7.61852e+01  1.24622e+03        00000 
-7.61932e+01  1.24622e+03        00000 
-2.28644e+02  1.24935e+03        00000 
-3.81303e+02  1.25561e+03        00000 
-5.34285e+02  1.26499e+03        00000 
-6.87672e+02  1.27750e+03        00000 
-8.41519e+02  1.29314e+03        00000 
-9.95864e+02  1.31192e+03        00000 
-1.15073e+03  1.33383e+03        00000 
-1.30615e+03  1.35887e+03        00000 
-1.46215e+03  1.38705e+03        00000 
 1.55126e+03  1.54803e+03        00000 
 1.38589e+03  1.51994e+03        00000 
 1.22108e+03  1.49498e+03        00000 
 1.05681e+03  1.47316e+03        00000 
 8.93076e+02  1.45448e+03        00000 
 7.29841e+02  1.43894e+03        00000 
 5.67073e+02  1.42654e+03        00000 
 4.04716e+02  1.41724e+03        00000 
 2.42686e+02  1.41106e+03        00000 
 8.08689e+01  1.40797e+03        00000 
-8.08733e+01  1.40797e+03        00000 
-2.42689e+02  1.41106e+03        00000 
-4.04716e+02  1.41724e+03        00000 
-5.67070e+02  1.42653e+03        00000 
-7.29836e+02  1.43894e+03        00000 
-8.93069e+02  1.45448e+03        00000 
-1.05681e+03  1.47316e+03        00000 
-1.22107e+03  1.49498e+03        00000 
-1.38588e+03  1.51994e+03        00000 
-1.55125e+03  1.54804e+03        00000 
 1.64011e+03  1.71838e+03        00000 
 1.46537e+03  1.69037e+03        00000 
 1.29117e+03  1.66549e+03        00000 
 1.11752e+03  1.64376e+03        00000 
 9.44390e+02  1.62518e+03        00000 
 7.71777e+02  1.60975e+03        00000 
 5.99650e+02  1.59744e+03        00000 
 4.27959e+02  1.58825e+03        00000 
 2.56619e+02  1.58214e+03        00000 
 8.55120e+01  1.57910e+03        00000 
-8.55135e+01  1.57910e+03        00000 
-2.56620e+02  1.58214e+03        00000 
-4.27958e+02  1.58825e+03        00000 
-5.99648e+02  1.59744e+03        00000 
-7.71773e+02  1.60974e+03        00000 
-9.44385e+02  1.62518e+03        00000 
-1.11751e+03  1.64376e+03        00000 
-1.29117e+03  1.66550e+03        00000 
-1.46536e+03  1.69037e+03        00000 
-1.64010e+03  1.71838e+03        00000 
 1.72872e+03  1.89808e+03        00000 
 1.54461e+03  1.87015e+03        00000 
 1.36103e+03  1.84535e+03        00000 
 1.17798e+03  1.82370e+03        00000 
 9.95468e+02  1.80521e+03        00000 
 8.13481e+02  1.78987e+03        00000 
 6.32008e+02  1.77768e+03        00000 
 4.51016e+02  1.76859e+03        00000 
 2.70426e+02  1.76258e+03        00000 
 9.01097e+01  1.75959e+03        00000 
-9.01089e+01  1.75959e+03        00000 
-2.70425e+02  1.76258e+03        00000 
-4.51014e+02  1.76859e+03        00000 
-6.32005e+02  1.77768e+03        00000 
-8.13477e+02  1.78987e+03        00000 
-9.95464e+02  1.80521e+03        00000 
-1.17798e+03  1.82370e+03        00000 
-1.36103e+03  1.84535e+03        00000 
-1.54461e+03  1.87015e+03        00000 
-1.72871e+03  1.89808e+03        00000 
 4.28002e+01  2.17761e+01        00000 
 3.40859e+01  1.28464e+01        00000 
 2.91936e+01  6.90192e+00        00000 
 2.47288e+01  2.92148e+00        00000 
 2.04750e+01  5.88326e-02        00000 
 1.63104e+01 -2.01958e+00        00000 
 1.21963e+01 -3.50054e+00        00000 
 8.11383e+00 -4.49306e+00        00000 
 4.05145e+00 -5.06370e+00        00000 
-7.41108e-04 -5.24962e+00        00000 
-4.05280e+00 -5.06303e+00        00000 
-8.11482e+00 -4.49194e+00        00000 
-1.21968e+01 -3.49930e+00        00000 
-1.63104e+01 -2.01855e+00        00000 
-2.04747e+01  5.94764e-02        00000 
-2.47282e+01  2.92169e+00        00000 
-2.91929e+01  6.90176e+00        00000 
-3.40850e+01  1.28460e+01        00000 
-4.27990e+01  2.17754e+01        00000 
 1.37696e+02  6.99848e+01        00000 
 1.10424e+02  4.47903e+01        00000 
 9.28761e+01  2.88253e+01        00000 
 7.80063e+01  1.74855e+01        00000 
 6.42134e+01  9.22590e+00        00000 
 5.09546e+01  3.16955e+00        00000 
 3.79998e+01 -1.17019e+00        00000 
 2.52344e+01 -4.08965e+00        00000 
 1.25867e+01 -5.77199e+00        00000 
-2.64377e-03 -6.32080e+00        00000 
-1.25914e+01 -5.77029e+00        00000 
-2.52377e+01 -4.08684e+00        00000 
-3.80013e+01 -1.16719e+00        00000 
-5.09545e+01  3.17191e+00        00000 
-6.42120e+01  9.22715e+00        00000 
-7.80042e+01  1.74856e+01        00000 
-9.28736e+01  2.88244e+01        00000 
-1.10421e+02  4.47886e+01        00000 
-1.37692e+02  6.99823e+01        00000 
 2.25497e+02  1.09349e+02        00000 
 1.90481e+02  8.22790e+01        00000 
 1.60726e+02  6.03944e+01        00000 
 1.34748e+02  4.38214e+01        00000 
 1.10663e+02  3.12565e+01        00000 
 8.76359e+01  2.18488e+01        00000 
 6.52508e+01  1.50219e+01        00000 
 4.32793e+01  1.03963e+01        00000 
 2.15708e+01  7.72136e+00        00000 
-5.05510e-03  6.84765e+00        00000 
-2.15797e+01  7.72393e+00        00000 
-4.32853e+01  1.04004e+01        00000 
-6.52530e+01  1.50260e+01        00000 
-8.76348e+01  2.18515e+01        00000 
-1.10659e+02  3.12573e+01        00000 
-1.34743e+02  4.38203e+01        00000 
-1.60722e+02  6.03918e+01        00000 
-1.90476e+02  8.22753e+01        00000 
-2.25491e+02  1.09344e+02        00000 
 3.11973e+02  1.50332e+02        00000 
 2.69624e+02  1.22949e+02        00000 
 2.30102e+02  9.92152e+01        00000 
 1.93467e+02  7.97418e+01        00000 
 1.58956e+02  6.43293e+01        00000 
 1.25827e+02  5.24658e+01        00000 
 9.36211e+01  4.37125e+01        00000 
 6.20504e+01  3.77281e+01        00000 
 3.09079e+01  3.42562e+01        00000 
-8.23042e-03  3.31219e+01        00000 
-3.09221e+01  3.42598e+01        00000 
-6.20591e+01  3.77336e+01        00000 
-9.36233e+01  4.37172e+01        00000 
-1.25824e+02  5.24680e+01        00000 
-1.58950e+02  6.43285e+01        00000 
-1.93460e+02  7.97385e+01        00000 
-2.30095e+02  9.92101e+01        00000 
-2.69617e+02  1.22943e+02        00000 
-3.11966e+02  1.50325e+02        00000 
 3.98080e+02  1.96861e+02        00000 
 3.48037e+02  1.69461e+02        00000 
 2.99464e+02  1.45142e+02        00000 
 2.52920e+02  1.24403e+02        00000 
 2.08217e+02  1.07375e+02        00000 
 1.64941e+02  9.39237e+01        00000 
 1.22719e+02  8.38266e+01        00000 
 8.12945e+01  7.68666e+01        00000 
 4.04672e+01  7.28296e+01        00000 
-1.26013e-02  7.15165e+01        00000 
-4.04886e+01  7.28348e+01        00000 
-8.13060e+01  7.68736e+01        00000 
-1.22720e+02  8.38314e+01        00000 
-1.64934e+02  9.39240e+01        00000 
-2.08207e+02  1.07371e+02        00000 
-2.52910e+02  1.24396e+02        00000 
-2.99455e+02  1.45134e+02        00000 
-3.48028e+02  1.69452e+02        00000 
-3.98071e+02  1.96852e+02        00000 
 4.84237e+02  2.50857e+02        00000 
 4.25937e+02  2.23476e+02        00000 