<?xml version="1.0" encoding="utf-8"?>
<VTKFile byte_order="LittleEndian" type="UnstructuredGrid" version="0.1">
   <UnstructuredGrid>
      <Piece NumberOfCells="24705" NumberOfPoints="12820">
         <Points>
            <DataArray Name="Points" NumberOfComponents="3" format="ascii" type="Float32">
-1.0000 -0.7778 0.0000
-1.0000 -0.5556 0.0000
-1.0000 -0.3333 0.0000
-1.0000 -0.1111 0.0000
-1.0000 0.1111 0.0000
-1.0000 0.3333 0.0000
-1.0000 0.5556 0.0000
-1.0000 0.7778 0.0000
-1.0000 1.0000 0.0000
-0.7778 -0.7778 0.0000
-0.7778 -0.5556 0.0000
-0.7778 -0.3333 0.0000
-0.7778 -0.1111 0.0000
-0.7778 0.1111 0.0000
-0.7778 0.3333 0.0000
-0.7778 0.5556 0.0000
-0.7778 0.7778 0.0000
-0.7778 1.0000 0.0000
-0.5556 -0.7778 0.0000
-0.5556 -0.5556 0.0000
-0.5556 -0.3333 0.0000
-0.5556 -0.1111 0.0000
-0.5556 0.1111 0.0000
-0.5556 0.3333 0.0000
-0.5556 0.5556 0.0000
-0.5556 0.7778 0.0000
-0.5556 1.0000 0.0000
-0.3333 -0.7778 0.0000
-0.3333 -0.5556 0.0000
-0.3333 -0.3333 0.0000
-0.3333 -0.1111 0.0000
-0.3333 0.1111 0.0000
-0.3333 0.3333 0.0000
-0.3333 0.5556 0.0000
-0.3333 0.7778 0.0000
-0.3333 1.0000 0.0000
-0.1111 -0.7778 0.0000
-0.1111 -0.5556 0.0000
-0.1111 -0.3333 0.0000
-0.1111 -0.1111 0.0000
-0.1111 0.3333 0.0000
-0.1111 0.5556 0.0000
-0.1111 0.7778 0.0000
-0.1111 1.0000 0.0000
0.1111 -0.7778 0.0000
0.1111 -0.5556 0.0000
0.1111 -0.3333 0.0000
0.1111 -0.1111 0.0000
0.1111 0.1111 0.0000
0.1111 0.3333 0.0000
0.1111 0.5556 0.0000
0.1111 0.7778 0.0000
0.1111 1.0000 0.0000
0.3333 -0.7778 0.0000
0.3333 -0.5556 0.0000
0.3333 -0.3333 0.0000
0.3333 -0.1111 0.0000
0.3333 0.1111 0.0000
0.3333 0.3333 0.0000
0.3333 0.5556 0.0000
0.3333 0.7778 0.0000
0.3333 1.0000 0.0000
0.5556 -0.7778 0.0000
0.5556 -0.5556 0.0000
0.5556 -0.3333 0.0000
0.5556 -0.1111 0.0000
0.5556 0.1111 0.0000
0.5556 0.3333 0.0000
0.5556 0.5556 0.0000
0.5556 0.7778 0.0000
0.5556 1.0000 0.0000
0.7778 -0.7778 0.0000
0.7778 -0.5556 0.0000
0.7778 -0.3333 0.0000
0.7778 -0.1111 0.0000
0.7778 0.1111 0.0000
0.7778 0.3333 0.0000
0.7778 0.5556 0.0000
0.7778 0.7778 0.0000
0.7778 1.0000 0.0000
-0.1111 0.1111 0.0000
1.0000 -0.7778 0.0000
1.0000 -0.5556 0.0000
1.0000 -0.3333 0.0000
1.0000 -0.1111 0.0000
1.0000 0.1111 0.0000
1.0000 0.3333 0.0000
1.0000 0.5556 0.0000
1.0000 0.7778 0.0000
1.0000 1.0000 0.0000
-0.7778 -1.0000 0.0000
-0.5556 -1.0000 0.0000
-0.3333 -1.0000 0.0000
-0.1111 -1.0000 0.0000
0.1111 -1.0000 0.0000
0.3333 -1.0000 0.0000
0.5556 -1.0000 0.0000
0.7778 -1.0000 0.0000
1.0000 -1.0000 0.0000
-1.0000 -1.0000 0.0000
1.0000 1.0000 0.0000
1.2222 -0.7778 0.0000
1.2222 -0.5556 0.0000
1.2222 -0.3333 0.0000
1.2222 -0.1111 0.0000
1.2222 0.1111 0.0000
1.2222 0.3333 0.0000
1.2222 0.5556 0.0000
1.2222 0.7778 0.0000
1.2222 1.0000 0.0000
1.4444 -0.7778 0.0000
1.4444 -0.5556 0.0000
1.4444 -0.3333 0.0000
1.4444 -0.1111 0.0000
1.4444 0.1111 0.0000
1.4444 0.3333 0.0000
1.4444 0.5556 0.0000
1.4444 0.7778 0.0000
1.4444 1.0000 0.0000
1.6667 -0.7778 0.0000
1.6667 -0.5556 0.0000
1.6667 -0.3333 0.0000
1.6667 -0.1111 0.0000
1.6667 0.1111 0.0000
1.6667 0.3333 0.0000
1.6667 0.5556 0.0000
1.6667 0.7778 0.0000
1.6667 1.0000 0.0000
1.8889 -0.7778 0.0000
1.8889 -0.5556 0.0000
1.8889 -0.3333 0.0000
1.8889 -0.1111 0.0000
1.8889 0.3333 0.0000
1.8889 0.5556 0.0000
1.8889 0.7778 0.0000
1.8889 1.0000 0.0000
2.1111 -0.7778 0.0000
2.1111 -0.5556 0.0000
2.1111 -0.3333 0.0000
2.1111 -0.1111 0.0000
2.1111 0.1111 0.0000
2.1111 0.3333 0.0000
2.1111 0.5556 0.0000
2.1111 0.7778 0.0000
2.1111 1.0000 0.0000
2.3333 -0.7778 0.0000
2.3333 -0.5556 0.0000
2.3333 -0.3333 0.0000
2.3333 -0.1111 0.0000
2.3333 0.1111 0.0000
2.3333 0.3333 0.0000
2.3333 0.5556 0.0000
2.3333 0.7778 0.0000
2.3333 1.0000 0.0000
2.5556 -0.7778 0.0000
2.5556 -0.5556 0.0000
2.5556 -0.3333 0.0000
2.5556 -0.1111 0.0000
2.5556 0.1111 0.0000
2.5556 0.3333 0.0000
2.5556 0.5556 0.0000
2.5556 0.7778 0.0000
2.5556 1.0000 0.0000
2.7778 -0.7778 0.0000
2.7778 -0.5556 0.0000
2.7778 -0.3333 0.0000
2.7778 -0.1111 0.0000
2.7778 0.1111 0.0000
2.7778 0.3333 0.0000
2.7778 0.5556 0.0000
2.7778 0.7778 0.0000
2.7778 1.0000 0.0000
1.8889 0.1111 0.0000
3.0000 -0.7778 0.0000
3.0000 -0.5556 0.0000
3.0000 -0.3333 0.0000
3.0000 -0.1111 0.0000
3.0000 0.1111 0.0000
3.0000 0.3333 0.0000
3.0000 0.5556 0.0000
3.0000 0.7778 0.0000
3.0000 1.0000 0.0000
1.2222 -1.0000 0.0000
1.4444 -1.0000 0.0000
1.6667 -1.0000 0.0000
1.8889 -1.0000 0.0000
2.1111 -1.0000 0.0000
2.3333 -1.0000 0.0000
2.5556 -1.0000 0.0000
2.7778 -1.0000 0.0000
3.0000 -1.0000 0.0000
1.0000 -1.0000 0.0000
3.0000 1.0000 0.0000
3.2222 -0.7778 0.0000
3.2222 -0.5556 0.0000
3.2222 -0.3333 0.0000
3.2222 -0.1111 0.0000
3.2222 0.1111 0.0000
3.2222 0.3333 0.0000
3.2222 0.5556 0.0000
3.2222 0.7778 0.0000
3.2222 1.0000 0.0000
3.4444 -0.7778 0.0000
3.4444 -0.5556 0.0000
3.4444 -0.3333 0.0000
3.4444 -0.1111 0.0000
3.4444 0.1111 0.0000
3.4444 0.3333 0.0000
3.4444 0.5556 0.0000
3.4444 0.7778 0.0000
3.4444 1.0000 0.0000
3.6667 -0.7778 0.0000
3.6667 -0.5556 0.0000
3.6667 -0.3333 0.0000
3.6667 -0.1111 0.0000
3.6667 0.1111 0.0000
3.6667 0.3333 0.0000
3.6667 0.5556 0.0000
3.6667 0.7778 0.0000
3.6667 1.0000 0.0000
3.8889 -0.7778 0.0000
3.8889 -0.5556 0.0000
3.8889 -0.3333 0.0000
3.8889 -0.1111 0.0000
3.8889 0.3333 0.0000
3.8889 0.5556 0.0000
3.8889 0.7778 0.0000
3.8889 1.0000 0.0000
4.1111 -0.7778 0.0000
4.1111 -0.5556 0.0000
4.1111 -0.3333 0.0000
4.1111 -0.1111 0.0000
4.1111 0.1111 0.0000
4.1111 0.3333 0.0000
4.1111 0.5556 0.0000
4.1111 0.7778 0.0000
4.1111 1.0000 0.0000
4.3333 -0.7778 0.0000
4.3333 -0.5556 0.0000
4.3333 -0.3333 0.0000
4.3333 -0.1111 0.0000
4.3333 0.1111 0.0000
4.3333 0.3333 0.0000
4.3333 0.5556 0.0000
4.3333 0.7778 0.0000
4.3333 1.0000 0.0000
4.5556 -0.7778 0.0000
4.5556 -0.5556 0.0000
4.5556 -0.3333 0.0000
4.5556 -0.1111 0.0000
4.5556 0.1111 0.0000
4.5556 0.3333 0.0000
4.5556 0.5556 0.0000
4.5556 0.7778 0.0000
4.5556 1.0000 0.0000
4.7778 -0.7778 0.0000
4.7778 -0.5556 0.0000
4.7778 -0.3333 0.0000
4.7778 -0.1111 0.0000
4.7778 0.1111 0.0000
4.7778 0.3333 0.0000
4.7778 0.5556 0.0000
4.7778 0.7778 0.0000
4.7778 1.0000 0.0000
3.8889 0.1111 0.0000
5.0000 -0.7778 0.0000
5.0000 -0.5556 0.0000
5.0000 -0.3333 0.0000
5.0000 -0.1111 0.0000
5.0000 0.1111 0.0000
5.0000 0.3333 0.0000
5.0000 0.5556 0.0000
5.0000 0.7778 0.0000
5.0000 1.0000 0.0000
3.2222 -1.0000 0.0000
3.4444 -1.0000 0.0000
3.6667 -1.0000 0.0000
3.8889 -1.0000 0.0000
4.1111 -1.0000 0.0000
4.3333 -1.0000 0.0000
4.5556 -1.0000 0.0000
4.7778 -1.0000 0.0000
5.0000 -1.0000 0.0000
3.0000 -1.0000 0.0000
5.0000 1.0000 0.0000
5.2222 -0.7778 0.0000
5.2222 -0.5556 0.0000
5.2222 -0.3333 0.0000
5.2222 -0.1111 0.0000
5.2222 0.1111 0.0000
5.2222 0.3333 0.0000
5.2222 0.5556 0.0000
5.2222 0.7778 0.0000
5.2222 1.0000 0.0000
5.4444 -0.7778 0.0000
5.4444 -0.5556 0.0000
5.4444 -0.3333 0.0000
5.4444 -0.1111 0.0000
5.4444 0.1111 0.0000
5.4444 0.3333 0.0000
5.4444 0.5556 0.0000
5.4444 0.7778 0.0000
5.4444 1.0000 0.0000
5.6667 -0.7778 0.0000
5.6667 -0.5556 0.0000
5.6667 -0.3333 0.0000
5.6667 -0.1111 0.0000
5.6667 0.1111 0.0000
5.6667 0.3333 0.0000
5.6667 0.5556 0.0000
5.6667 0.7778 0.0000
5.6667 1.0000 0.0000
5.8889 -0.7778 0.0000
5.8889 -0.5556 0.0000
5.8889 -0.3333 0.0000
5.8889 -0.1111 0.0000
5.8889 0.3333 0.0000
5.8889 0.5556 0.0000
5.8889 0.7778 0.0000
5.8889 1.0000 0.0000
6.1111 -0.7778 0.0000
6.1111 -0.5556 0.0000
6.1111 -0.3333 0.0000
6.1111 -0.1111 0.0000
6.1111 0.1111 0.0000
6.1111 0.3333 0.0000
6.1111 0.5556 0.0000
6.1111 0.7778 0.0000
6.1111 1.0000 0.0000
6.3333 -0.7778 0.0000
6.3333 -0.5556 0.0000
6.3333 -0.3333 0.0000
6.3333 -0.1111 0.0000
6.3333 0.1111 0.0000
6.3333 0.3333 0.0000
6.3333 0.5556 0.0000
6.3333 0.7778 0.0000
6.3333 1.0000 0.0000
6.5556 -0.7778 0.0000
6.5556 -0.5556 0.0000
6.5556 -0.3333 0.0000
6.5556 -0.1111 0.0000
6.5556 0.1111 0.0000
6.5556 0.3333 0.0000
6.5556 0.5556 0.0000
6.5556 0.7778 0.0000
6.5556 1.0000 0.0000
6.7778 -0.7778 0.0000
6.7778 -0.5556 0.0000
6.7778 -0.3333 0.0000
6.7778 -0.1111 0.0000
6.7778 0.1111 0.0000
6.7778 0.3333 0.0000
6.7778 0.5556 0.0000
6.7778 0.7778 0.0000
6.7778 1.0000 0.0000
5.8889 0.1111 0.0000
7.0000 -0.7778 0.0000
7.0000 -0.5556 0.0000
7.0000 -0.3333 0.0000
7.0000 -0.1111 0.0000
7.0000 0.1111 0.0000
7.0000 0.3333 0.0000
7.0000 0.5556 0.0000
7.0000 0.7778 0.0000
7.0000 1.0000 0.0000
5.2222 -1.0000 0.0000
5.4444 -1.0000 0.0000
5.6667 -1.0000 0.0000
5.8889 -1.0000 0.0000
6.1111 -1.0000 0.0000
6.3333 -1.0000 0.0000
6.5556 -1.0000 0.0000
6.7778 -1.0000 0.0000
7.0000 -1.0000 0.0000
5.0000 -1.0000 0.0000
7.0000 1.0000 0.0000
7.2222 -0.7778 0.0000
7.2222 -0.5556 0.0000
7.2222 -0.3333 0.0000
7.2222 -0.1111 0.0000
7.2222 0.1111 0.0000
7.2222 0.3333 0.0000
7.2222 0.5556 0.0000
7.2222 0.7778 0.0000
7.2222 1.0000 0.0000
7.4444 -0.7778 0.0000
7.4444 -0.5556 0.0000
7.4444 -0.3333 0.0000
7.4444 -0.1111 0.0000
7.4444 0.1111 0.0000
7.4444 0.3333 0.0000
7.4444 0.5556 0.0000
7.4444 0.7778 0.0000
7.4444 1.0000 0.0000
7.6667 -0.7778 0.0000
7.6667 -0.5556 0.0000
7.6667 -0.3333 0.0000
7.6667 -0.1111 0.0000
7.6667 0.1111 0.0000
7.6667 0.3333 0.0000
7.6667 0.5556 0.0000
7.6667 0.7778 0.0000
7.6667 1.0000 0.0000
7.8889 -0.7778 0.0000
7.8889 -0.5556 0.0000
7.8889 -0.3333 0.0000
7.8889 -0.1111 0.0000
7.8889 0.3333 0.0000
7.8889 0.5556 0.0000
7.8889 0.7778 0.0000
7.8889 1.0000 0.0000
8.1111 -0.7778 0.0000
8.1111 -0.5556 0.0000
8.1111 -0.3333 0.0000
8.1111 -0.1111 0.0000
8.1111 0.1111 0.0000
8.1111 0.3333 0.0000
8.1111 0.5556 0.0000
8.1111 0.7778 0.0000
8.1111 1.0000 0.0000
8.3333 -0.7778 0.0000
8.3333 -0.5556 0.0000
8.3333 -0.3333 0.0000
8.3333 -0.1111 0.0000
8.3333 0.1111 0.0000
8.3333 0.3333 0.0000
8.3333 0.5556 0.0000
8.3333 0.7778 0.0000
8.3333 1.0000 0.0000
8.5556 -0.7778 0.0000
8.5556 -0.5556 0.0000
8.5556 -0.3333 0.0000
8.5556 -0.1111 0.0000
8.5556 0.1111 0.0000
8.5556 0.3333 0.0000
8.5556 0.5556 0.0000
8.5556 0.7778 0.0000
8.5556 1.0000 0.0000
8.7778 -0.7778 0.0000
8.7778 -0.5556 0.0000
8.7778 -0.3333 0.0000
8.7778 -0.1111 0.0000
8.7778 0.1111 0.0000
8.7778 0.3333 0.0000
8.7778 0.5556 0.0000
8.7778 0.7778 0.0000
8.7778 1.0000 0.0000
[...]
         <PointData>
            <DataArray Name="fValues" NumberOfComponents="3" format="ascii" type="Float64">
-1.65368e-15  9.92208e-16        00000 
-8.17663e-16 -2.45299e-16        00000 
-3.46061e-16  3.72342e-16        00000 
-1.63533e-16  1.63533e-16        00000 
 5.44664e-16  5.56719e-16        00000 
 6.54130e-16  1.22649e-16        00000 
-6.59847e-16 -4.12405e-16        00000 
 2.12592e-15  4.59935e-16        00000 
 1.39076e+01  9.47573e-01        00000 
 2.53316e+01  2.03338e+01        00000 
 1.59537e+01  1.27102e+01        00000 
 1.34559e+01  9.32543e+00        00000 
 1.19313e+01  7.39138e+00        00000 
 1.09693e+01  6.08012e+00        00000 
 1.03446e+01  5.01680e+00        00000 
 9.93612e+00  3.96426e+00        00000 
 1.11985e+01  2.45180e+00        00000 
 1.38719e+01  3.00911e+00        00000 
 4.32492e+01  3.14977e+01        00000 
 3.36553e+01  2.49746e+01        00000 
 2.80709e+01  1.94387e+01        00000 
 2.46891e+01  1.57532e+01        00000 
 2.25940e+01  1.31527e+01        00000 
 2.13147e+01  1.09696e+01        00000 
 2.04841e+01  8.94664e+00        00000 
 2.01475e+01  7.51626e+00        00000 
 1.95547e+01  7.03237e+00        00000 
 5.82465e+01  4.01150e+01        00000 
 4.99968e+01  3.45715e+01        00000 
 4.32577e+01  2.87835e+01        00000 
 3.77382e+01  2.41819e+01        00000 
 3.46099e+01  2.07416e+01        00000 
 3.29320e+01  1.76337e+01        00000 
 3.10536e+01  1.49473e+01        00000 
 2.91254e+01  1.31607e+01        00000 
 2.71231e+01  1.20192e+01        00000 
 7.24763e+01  4.83394e+01        00000 
 6.50843e+01  4.33046e+01        00000 
 5.88348e+01  3.81199e+01        00000 
 5.03535e+01  3.23881e+01        00000 
 4.53042e+01  2.41425e+01        00000 
 4.16269e+01  2.15161e+01        00000 
 3.84055e+01  1.94535e+01        00000 
 3.53180e+01  1.79044e+01        00000 
 8.63185e+01  5.64508e+01        00000 
 7.96566e+01  5.15281e+01        00000 
 7.33051e+01  4.65051e+01        00000 
 7.01399e+01  4.11560e+01        00000 
 6.53324e+01  3.65505e+01        00000 
 5.71223e+01  3.19358e+01        00000 
 5.23740e+01  2.88495e+01        00000 
 4.78416e+01  2.64407e+01        00000 
 4.37535e+01  2.45900e+01        00000 
 9.99314e+01  6.44943e+01        00000 
 9.41189e+01  5.92474e+01        00000 
 8.83894e+01  5.35585e+01        00000 
 8.30755e+01  4.85105e+01        00000 
 7.69710e+01  4.44159e+01        00000 
 6.97547e+01  4.05371e+01        00000 
 6.32029e+01  3.68090e+01        00000 
 5.73472e+01  3.40252e+01        00000 
 5.21665e+01  3.19912e+01        00000 
 1.13579e+02  7.23596e+01        00000 
 1.09177e+02  6.64100e+01        00000 
 1.02931e+02  6.07960e+01        00000 
 9.60564e+01  5.63030e+01        00000 
 8.89805e+01  5.24782e+01        00000 
 8.16894e+01  4.88233e+01        00000 
 7.42808e+01  4.51150e+01        00000 
 6.67667e+01  4.20443e+01        00000 
 6.01565e+01  4.00242e+01        00000 
 1.28768e+02  7.84520e+01        00000 
 1.24888e+02  7.18692e+01        00000 
 1.16759e+02  6.78872e+01        00000 
 1.08743e+02  6.44422e+01        00000 
 1.00930e+02  6.11460e+01        00000 
 9.32886e+01  5.78962e+01        00000 
 8.57908e+01  5.44834e+01        00000 
 7.64198e+01  5.02102e+01        00000 
 6.63759e+01  4.87133e+01        00000 
 4.66715e+01  2.80249e+01        00000 
 1.48197e+02  7.72355e+01        00000 
 1.38779e+02  7.80026e+01        00000 
 1.29697e+02  7.63544e+01        00000 
 1.20979e+02  7.36241e+01        00000 
 1.12619e+02  7.06418e+01        00000 
 1.04587e+02  6.76546e+01        00000 
 9.68426e+01  6.49417e+01        00000 
 8.93424e+01  6.25140e+01        00000 
 6.72314e+01  5.70312e+01        00000 
 4.62450e+01  2.63812e+01        00000 
 5.47134e+01  3.65261e+01        00000 
 6.70662e+01  4.49173e+01        00000 
 8.04231e+01  5.29971e+01        00000 
 9.38041e+01  6.10135e+01        00000 
 1.06672e+02  6.90066e+01        00000 
 1.18129e+02  7.68552e+01        00000 
 1.25710e+02  8.32919e+01        00000 
 1.23981e+02  7.54972e+01        00000 
 4.89746e+01 -1.75311e+00        00000 
 9.74020e+01  5.92551e+01        00000 
 1.67510e+02  9.81272e+01        00000 
 1.52530e+02  9.16177e+01        00000 
 1.42488e+02  8.77098e+01        00000 
 1.33083e+02  8.43150e+01        00000 
 1.24204e+02  8.10255e+01        00000 
 1.15796e+02  7.77494e+01        00000 
 1.07820e+02  7.43258e+01        00000 
 1.02120e+02  7.01285e+01        00000 
 9.82340e+01  6.82354e+01        00000 
 1.82340e+02  1.11773e+02        00000 
 1.67820e+02  1.05971e+02        00000 
 1.55869e+02  1.00496e+02        00000 
 1.45374e+02  9.60942e+01        00000 
 1.35867e+02  9.22475e+01        00000 
 1.27169e+02  8.84783e+01        00000 
 1.19126e+02  8.46050e+01        00000 
 1.11850e+02  8.12394e+01        00000 
 1.04388e+02  7.88971e+01        00000 
 1.95384e+02  1.23836e+02        00000 
 1.82184e+02  1.18788e+02        00000 
 1.69659e+02  1.13239e+02        00000 
 1.57661e+02  1.08302e+02        00000 
 1.47496e+02  1.04124e+02        00000 
 1.38771e+02  9.99509e+01        00000 
 1.29943e+02  9.59613e+01        00000 
 1.21148e+02  9.27581e+01        00000 
 1.12285e+02  9.01916e+01        00000 
 2.08106e+02  1.36003e+02        00000 
 1.95664e+02  1.31373e+02        00000 
 1.83765e+02  1.26483e+02        00000 
 1.69533e+02  1.20959e+02        00000 
 1.50780e+02  1.11367e+02        00000 
 1.40410e+02  1.07843e+02        00000 
 1.30451e+02  1.04777e+02        00000 
 1.20601e+02  1.02162e+02        00000 
 2.20704e+02  1.48457e+02        00000 
 2.08859e+02  1.43878e+02        00000 
 1.96939e+02  1.39086e+02        00000 
 1.87733e+02  1.33768e+02        00000 
 1.76253e+02  1.28784e+02        00000 
 1.62020e+02  1.24045e+02        00000 
 1.50782e+02  1.20477e+02        00000 
 1.39687e+02  1.17405e+02        00000 
 1.28968e+02  1.14785e+02        00000 
 2.33245e+02  1.61193e+02        00000 
 2.22103e+02  1.56283e+02        00000 
 2.10780e+02  1.50892e+02        00000 
 1.99558e+02  1.46016e+02        00000 
 1.87243e+02  1.41900e+02        00000 
 1.73857e+02  1.37804e+02        00000 
 1.61065e+02  1.33818e+02        00000 
 1.48828e+02  1.30616e+02        00000 
 1.37166e+02  1.28038e+02        00000 
 2.45919e+02  1.74060e+02        00000 
 2.35997e+02  1.68486e+02        00000 
 2.24143e+02  1.63206e+02        00000 
 2.11471e+02  1.58922e+02        00000 
 1.98406e+02  1.55159e+02        00000 
 1.85030e+02  1.51450e+02        00000 
 1.71484e+02  1.47605e+02        00000 
 1.57781e+02  1.44287e+02        00000 
 1.44858e+02  1.41883e+02        00000 
 2.60105e+02  1.85496e+02        00000 
 2.50563e+02  1.79325e+02        00000 
 2.36880e+02  1.75600e+02        00000 
 2.23146e+02  1.72339e+02        00000 
 2.09457e+02  1.69148e+02        00000 
 1.95819e+02  1.65920e+02        00000 
 1.82240e+02  1.62471e+02        00000 
 1.66877e+02  1.58168e+02        00000 
 1.50824e+02  1.56363e+02        00000 
 1.58869e+02  1.15947e+02        00000 
 2.78322e+02  1.90224e+02        00000 
 2.63456e+02  1.90985e+02        00000 
 2.48821e+02  1.89468e+02        00000 
 2.34421e+02  1.86905e+02        00000 
 2.20247e+02  1.84056e+02        00000 
 2.06287e+02  1.81143e+02        00000 
 1.92522e+02  1.78425e+02        00000 
 1.78930e+02  1.75917e+02        00000 
 1.51756e+02  1.70622e+02        00000 
 1.89964e+02  1.02894e+02        00000 
 1.97303e+02  1.16141e+02        00000 
 2.08329e+02  1.28147e+02        00000 
 2.20532e+02  1.40270e+02        00000 
 2.32956e+02  1.52693e+02        00000 
 2.45028e+02  1.65417e+02        00000 
 2.55840e+02  1.78285e+02        00000 
 2.63023e+02  1.90051e+02        00000 
 2.61424e+02  1.88570e+02        00000 
 1.91752e+02  7.55838e+01        00000 
 1.79683e+02  1.72502e+02        00000 
 2.96445e+02  2.15951e+02        00000 
 2.76245e+02  2.09847e+02        00000 
 2.60654e+02  2.06203e+02        00000 
 2.45591e+02  2.03029e+02        00000 
 2.30940e+02  1.99923e+02        00000 
 2.16652e+02  1.96788e+02        00000 
 2.02701e+02  1.93471e+02        00000 
 1.90813e+02  1.89389e+02        00000 
 1.80540e+02  1.87418e+02        00000 
 3.10344e+02  2.34952e+02        00000 
 2.90502e+02  2.29517e+02        00000 
 2.73063e+02  2.24401e+02        00000 
 2.56952e+02  2.20290e+02        00000 
 2.41708e+02  2.16682e+02        00000 
 2.27158e+02  2.13121e+02        00000 
 2.13163e+02  2.09432e+02        00000 
 1.99830e+02  2.06186e+02        00000 
 1.86281e+02  2.03852e+02        00000 
 3.22553e+02  2.52546e+02        00000 
 3.03893e+02  2.47825e+02        00000 
 2.85866e+02  2.42647e+02        00000 
 2.68321e+02  2.38042e+02        00000 
 2.52453e+02  2.34137e+02        00000 
 2.37873e+02  2.30222e+02        00000 
 2.23154e+02  2.26462e+02        00000 
 2.08428e+02  2.23406e+02        00000 
 1.93605e+02  2.20915e+02        00000 
 3.34452e+02  2.70309e+02        00000 
 3.16451e+02  2.65984e+02        00000 
 2.98964e+02  2.61425e+02        00000 
 2.79309e+02  2.56279e+02        00000 
 2.48957e+02  2.47339e+02        00000 
 2.32811e+02  2.44036e+02        00000 
 2.17017e+02  2.41138e+02        00000 
 2.01295e+02  2.38638e+02        00000 
 3.46223e+02  2.88398e+02        00000 
 3.28736e+02  2.84129e+02        00000 
 3.11193e+02  2.79671e+02        00000 
 2.96157e+02  2.74737e+02        00000 
 2.79038e+02  2.70096e+02        00000 
 2.59329e+02  2.65685e+02        00000 
 2.42376e+02  2.62355e+02        00000 
 2.25533e+02  2.59473e+02        00000 
 2.09016e+02  2.56997e+02        00000 
 3.57928e+02  3.06797e+02        00000 
 3.41057e+02  3.02226e+02        00000 
 3.24034e+02  2.97216e+02        00000 
 3.07114e+02  2.92686e+02        00000 
 2.89186e+02  2.88867e+02        00000 
 2.70253e+02  2.85067e+02        00000 
 2.51853e+02  2.81364e+02        00000 
 2.33954e+02  2.78380e+02        00000 
 2.16571e+02  2.75963e+02        00000 
 3.69741e+02  3.25356e+02        00000 
 3.53974e+02  3.20170e+02        00000 
 3.36432e+02  3.15265e+02        00000 
 3.18144e+02  3.11292e+02        00000 
 2.99496e+02  3.07807e+02        00000 
 2.80556e+02  3.04374e+02        00000 
 2.61451e+02  3.00815e+02        00000 
 2.42195e+02  2.97740e+02        00000 
 2.23652e+02  2.95498e+02        00000 
 3.82946e+02  3.42610e+02        00000 
 3.67506e+02  3.36875e+02        00000 
 3.48241e+02  3.33421e+02        00000 
 3.28945e+02  3.30404e+02        00000 
 3.09699e+02  3.27456e+02        00000 
 2.90502e+02  3.24474e+02        00000 
 2.71355e+02  3.21287e+02        00000 
 2.50559e+02  3.17311e+02        00000 
 2.29142e+02  3.15640e+02        00000 
 2.62973e+02  2.51601e+02        00000 
 3.99882e+02  3.53651e+02        00000 
 3.79469e+02  3.54367e+02        00000 
 3.59300e+02  3.52971e+02        00000 
 3.39368e+02  3.50608e+02        00000 
 3.19657e+02  3.47982e+02        00000 
 3.00149e+02  3.45298e+02        00000 
 2.80818e+02  3.42792e+02        00000 
 2.61642e+02  3.40479e+02        00000 
 2.30005e+02  3.35530e+02        00000 
 3.23685e+02  2.20435e+02        00000 
 3.30610e+02  2.39055e+02        00000 
 3.40991e+02  2.56592e+02        00000 
 3.52462e+02  2.74308e+02        00000 
 3.64120e+02  2.92362e+02        00000 
 3.75429e+02  3.10743e+02        00000 
 3.85543e+02  3.29295e+02        00000 
 3.92259e+02  3.46852e+02        00000 
 3.90783e+02  3.52100e+02        00000 
 3.25351e+02  1.88661e+02        00000 
 2.55649e+02  3.37408e+02        00000 
 4.16716e+02  3.84238e+02        00000 
 3.91325e+02  3.78575e+02        00000 
 3.70249e+02  3.75206e+02        00000 
 3.49687e+02  3.72279e+02        00000 
 3.29520e+02  3.69419e+02        00000 
 3.09695e+02  3.66535e+02        00000 
 2.90183e+02  3.63487e+02        00000 
 2.72559e+02  3.59742e+02        00000 
 2.56438e+02  3.57919e+02        00000 
 4.29604e+02  4.08581e+02        00000 
 4.04532e+02  4.03546e+02        00000 
 3.81724e+02  3.98814e+02        00000 
 3.60176e+02  3.95021e+02        00000 
 3.39449e+02  3.91698e+02        00000 
 3.19370e+02  3.88423e+02        00000 
 2.99803e+02  3.85035e+02        00000 
 2.80851e+02  3.82052e+02        00000 
 2.61708e+02  3.79910e+02        00000 
 4.40908e+02  4.31627e+02        00000 
 4.16921e+02  4.27259e+02        00000 
 3.93552e+02  4.22472e+02        00000 
 3.70664e+02  4.18226e+02        00000 
 3.49355e+02  4.14631e+02        00000 
 3.29234e+02  4.11028e+02        00000 
 3.08991e+02  4.07578e+02        00000 
 2.88751e+02  4.04775e+02        00000 
 2.68429e+02  4.02491e+02        00000 
 4.51909e+02  4.54837e+02        00000 
 4.28525e+02  4.50842e+02        00000 
 4.05644e+02  4.46630e+02        00000 
 3.80784e+02  4.41874e+02        00000 
 3.39429e+02  4.33664e+02        00000 
 3.17866e+02  4.30636e+02        00000 
 2.96638e+02  4.27981e+02        00000 
 2.75483e+02  4.25692e+02        00000 
 4.62779e+02  4.78357e+02        00000 
 4.39861e+02  4.74421e+02        00000 
 4.16921e+02  4.70316e+02        00000 
 3.96304e+02  4.65786e+02        00000 
 3.73845e+02  4.61517e+02        00000 
 3.48967e+02  4.57451e+02        00000 
 3.26653e+02  4.54392e+02        00000 
 3.04454e+02  4.51752e+02        00000 
 2.82563e+02  4.49486e+02        00000 
 4.73573e+02  5.02168e+02        00000 
 4.51216e+02  4.97958e+02        00000 
 4.28746e+02  4.93350e+02        00000 
 4.06402e+02  4.89179e+02        00000 
 3.83165e+02  4.85669e+02        00000 
 3.59008e+02  4.82183e+02        00000 
 3.35355e+02  4.78785e+02        00000 
 3.12179e+02  4.76052e+02        00000 
 2.89487e+02  4.73843e+02        00000 
 4.84454e+02  5.26128e+02        00000 
 4.63106e+02  5.21357e+02        00000 
 4.40156e+02  5.16846e+02        00000 
 4.16548e+02  5.13193e+02        00000 
 3.92635e+02  5.09993e+02        00000 
 3.68467e+02  5.06844e+02        00000 
 3.44160e+02  5.03583e+02        00000 
 3.19733e+02  5.00770e+02        00000 
 2.95975e+02  4.98722e+02        00000 
 4.96601e+02  5.48891e+02        00000 
 4.75550e+02  5.43620e+02        00000 
 4.51013e+02  5.40447e+02        00000 
 4.26474e+02  5.37676e+02        00000 
 4.02002e+02  5.34972e+02        00000 
 3.77592e+02  5.32240e+02        00000 
 3.53242e+02  5.29320e+02        00000 
 3.27388e+02  5.25675e+02        00000 
 3.01003e+02  5.24162e+02        00000 
 3.59057e+02  4.37569e+02        00000 
 5.12163e+02  5.65951e+02        00000 
 4.86541e+02  5.66610e+02        00000 
 4.61170e+02  5.65332e+02        00000 
 4.36041e+02  5.63165e+02        00000 
 4.11137e+02  5.60761e+02        00000 
 3.86436e+02  5.58305e+02        00000 
 3.61912e+02  5.56015e+02        00000 
 3.37540e+02  5.53904e+02        00000 
 3.01792e+02  5.49292e+02        00000 
 4.48689e+02  3.88400e+02        00000 
 4.55106e+02  4.12385e+02        00000 
 4.64720e+02  4.35371e+02        00000 
 4.75332e+02  4.58533e+02        00000 
 4.86103e+02  4.82016e+02        00000 
 4.96539e+02  5.05805e+02        00000 
 5.05863e+02  5.29755e+02        00000 
 5.12051e+02  5.52793e+02        00000 
 5.10702e+02  5.64520e+02        00000 
 4.50242e+02  3.52204e+02        00000 
 3.25261e+02  5.51189e+02        00000 
 5.27620e+02  6.00968e+02        00000 
 4.97422e+02  5.95770e+02        00000 
 4.71215e+02  5.92684e+02        00000 
 4.45503e+02  5.90005e+02        00000 
 4.20177e+02  5.87389e+02        00000 
 3.95181e+02  5.84754e+02        00000 
 3.70486e+02  5.81973e+02        00000 
 3.47526e+02  5.78560e+02        00000 
 3.25978e+02  5.76891e+02        00000 
 5.39440e+02  6.30247e+02        00000 
 5.09532e+02  6.25631e+02        00000 
 4.81730e+02  6.21296e+02        00000 
 4.55112e+02  6.17826e+02        00000 
 4.29270e+02  6.14788e+02        00000 
 4.04037e+02  6.11796e+02        00000 
 3.79286e+02  6.08705e+02        00000 
 3.55116e+02  6.05982e+02        00000 
 3.30792e+02  6.04031e+02        00000 
 5.49794e+02  6.58336e+02        00000 
 5.20880e+02  6.54335e+02        00000 
 4.92559e+02  6.49953e+02        00000 
 4.64709e+02  6.46072e+02        00000 
 4.38337e+02  6.42786e+02        00000 
 4.13060e+02  6.39495e+02        00000 
 3.87687e+02  6.36348e+02        00000 
 3.62337e+02  6.33793e+02        00000 
 3.36930e+02  6.31713e+02        00000 
 5.59858e+02  6.86576e+02        00000 
 5.31497e+02  6.82922e+02        00000 
 5.03621e+02  6.79067e+02        00000 
 4.73952e+02  6.74711e+02        00000 
 4.22375e+02  6.67226e+02        00000 
 3.95795e+02  6.64469e+02        00000 
 3.69540e+02  6.62050e+02        00000 
 3.43367e+02  6.59967e+02        00000 
 5.69792e+02  7.15101e+02        00000 
 5.41856e+02  7.11507e+02        00000 
 5.13924e+02  7.07763e+02        00000 
 4.88130e+02  7.03638e+02        00000 
 4.60723e+02  6.99743e+02        00000 
 4.31083e+02  6.96022e+02        00000 
 4.03815e+02  6.93230e+02        00000 
 3.76671e+02  6.90825e+02        00000 
 3.49825e+02  6.88763e+02        00000 
 5.79646e+02  7.43891e+02        00000 
 5.52220e+02  7.40052e+02        00000 
 5.24715e+02  7.35850e+02        00000 
 4.97356e+02  7.32045e+02        00000 
 4.69216e+02  7.28844e+02        00000 
 4.40246e+02  7.25668e+02        00000 
 4.11751e+02  7.22570e+02        00000 
 3.83714e+02  7.20082e+02        00000 
 3.56136e+02  7.18073e+02        00000 
 5.89569e+02  7.72815e+02        00000 
 5.63061e+02  7.68469e+02        00000 
 5.35121e+02  7.64358e+02        00000 
 5.06610e+02  7.61028e+02        00000 
 4.77844e+02  7.58112e+02        00000 
 4.48864e+02  7.55244e+02        00000 
 4.19773e+02  7.52274e+02        00000 
 3.90592e+02  7.49717e+02        00000 
 3.62045e+02  7.47856e+02        00000 
 6.00633e+02  8.00651e+02        00000 
 5.74395e+02  7.95854e+02        00000 
 5.45012e+02  7.92963e+02        00000 
 5.15651e+02  7.90440e+02        00000 
 4.86374e+02  7.87978e+02        00000 
 4.57171e+02  7.85492e+02        00000 
 4.28039e+02  7.82834e+02        00000 
 3.97551e+02  7.79513e+02        00000 
 3.66622e+02  7.78149e+02        00000 
 4.47218e+02  6.70780e+02        00000 
 6.14792e+02  8.23300e+02        00000 
 5.84397e+02  8.23900e+02        00000 
 5.54254e+02  8.22737e+02        00000 
 5.24356e+02  8.20768e+02        00000 
 4.94684e+02  8.18583e+02        00000 
 4.65216e+02  8.16352e+02        00000 
 4.35925e+02  8.14273e+02        00000 
 4.06785e+02  8.12356e+02        00000 
 3.67340e+02  8.08078e+02        00000 
 5.63890e+02  6.04786e+02        00000 
 5.69767e+02  6.33733e+02        00000 
 5.78570e+02  6.61764e+02        00000 
 5.88278e+02  6.89956e+02        00000 
 5.98123e+02  7.18443e+02        00000 
 6.07652e+02  7.47209e+02        00000 
 6.16158e+02  7.76121e+02        00000 
 6.21801e+02  8.04203e+02        00000 
 6.20578e+02  8.21994e+02        00000 
 5.65320e+02  5.64628e+02        00000 
 3.88668e+02  8.09982e+02        00000 
 6.28845e+02  8.62281e+02        00000 
 5.94287e+02  8.57558e+02        00000 
 5.63383e+02  8.54755e+02        00000 
 5.32955e+02  8.52324e+02        00000 
 5.02899e+02  8.49951e+02        00000 
 4.73161e+02  8.47561e+02        00000 
 4.43713e+02  8.45041e+02        00000 
 4.15852e+02  8.41952e+02        00000 
 3.89315e+02  8.40430e+02        00000 
 6.39579e+02  8.96042e+02        00000 
 6.05285e+02  8.91852e+02        00000 
 5.72929e+02  8.87918e+02        00000 
 5.41677e+02  8.84772e+02        00000 
 5.11153e+02  8.82018e+02        00000 
 4.81199e+02  8.79306e+02        00000 
 4.51700e+02  8.76505e+02        00000 
 4.22748e+02  8.74036e+02        00000 
 3.93681e+02  8.72270e+02        00000 
 6.48970e+02  9.28720e+02        00000 
 6.15579e+02  9.25092e+02        00000 
 5.82749e+02  9.21117e+02        00000 
 5.50377e+02  9.17602e+02        00000 
 5.19380e+02  9.14626e+02        00000 
 4.89383e+02  9.11643e+02        00000 
 4.59318e+02  9.08795e+02        00000 
 4.29296e+02  9.06483e+02        00000 
 3.99242e+02  9.04600e+02        00000 
 6.58088e+02  9.61537e+02        00000 