<?xml version="1.0" encoding="utf-8"?>
<VTKFile byte_order="LittleEndian" type="UnstructuredGrid" version="0.1">
   <UnstructuredGrid>
      <Piece NumberOfCells="4344" NumberOfPoints="2316">
         <Points>
            <DataArray Name="Points" NumberOfComponents="3" format="ascii" type="Float32">
-1.0000 -0.8947 0.0000
-1.0000 -0.7895 0.0000
-1.0000 -0.6842 0.0000
-1.0000 -0.5789 0.0000
-1.0000 -0.4737 0.0000
-1.0000 -0.3684 0.0000
-1.0000 -0.2632 0.0000
-1.0000 -0.1579 0.0000
-1.0000 -0.0526 0.0000
-1.0000 0.0526 0.0000
-1.0000 0.1579 0.0000
-1.0000 0.2632 0.0000
-1.0000 0.3684 0.0000
-1.0000 0.4737 0.0000
-1.0000 0.5789 0.0000
-1.0000 0.6842 0.0000
-1.0000 0.7895 0.0000
-1.0000 0.8947 0.0000
-1.0000 1.0000 0.0000
-0.8947 -0.8947 0.0000
-0.8947 -0.7895 0.0000
-0.8947 -0.6842 0.0000
-0.8947 -0.5789 0.0000
-0.8947 -0.4737 0.0000
-0.8947 -0.3684 0.0000
-0.8947 -0.2632 0.0000
-0.8947 -0.1579 0.0000
-0.8947 -0.0526 0.0000
-0.8947 0.0526 0.0000
-0.8947 0.1579 0.0000
-0.8947 0.2632 0.0000
-0.8947 0.3684 0.0000
-0.8947 0.4737 0.0000
-0.8947 0.5789 0.0000
-0.8947 0.6842 0.0000
-0.8947 0.7895 0.0000
-0.8947 0.8947 0.0000
-0.8947 1.0000 0.0000
-0.7895 -0.8947 0.0000
-0.7895 -0.7895 0.0000
-0.7895 -0.6842 0.0000
-0.7895 -0.5789 0.0000
-0.7895 -0.4737 0.0000
-0.7895 -0.3684 0.0000
-0.7895 -0.2632 0.0000
-0.7895 -0.1579 0.0000
-0.7895 -0.0526 0.0000
-0.7895 0.0526 0.0000
-0.7895 0.1579 0.0000
-0.7895 0.2632 0.0000
-0.7895 0.3684 0.0000
-0.7895 0.4737 0.0000
-0.7895 0.5789 0.0000
-0.7895 0.6842 0.0000
-0.7895 0.7895 0.0000
-0.7895 0.8947 0.0000
-0.7895 1.0000 0.0000
-0.6842 -0.8947 0.0000
-0.6842 -0.7895 0.0000
-0.6842 -0.6842 0.0000
-0.6842 -0.5789 0.0000
-0.6842 -0.4737 0.0000
-0.6842 -0.3684 0.0000
-0.6842 -0.2632 0.0000
-0.6842 -0.1579 0.0000
-0.6842 -0.0526 0.0000
-0.6842 0.0526 0.0000
-0.6842 0.1579 0.0000
-0.6842 0.2632 0.0000
-0.6842 0.3684 0.0000
-0.6842 0.4737 0.0000
-0.6842 0.5789 0.0000
-0.6842 0.6842 0.0000
-0.6842 0.7895 0.0000
-0.6842 0.8947 0.0000
-0.6842 1.0000 0.0000
-0.5789 -0.8947 0.0000
-0.5789 -0.7895 0.0000
-0.5789 -0.6842 0.0000
-0.5789 -0.5789 0.0000
-0.5789 -0.4737 0.0000
-0.5789 -0.3684 0.0000
-0.5789 -0.2632 0.0000
-0.5789 -0.1579 0.0000
-0.5789 -0.0526 0.0000
-0.5789 0.0526 0.0000
-0.5789 0.1579 0.0000
-0.5789 0.2632 0.0000
-0.5789 0.3684 0.0000
-0.5789 0.4737 0.0000
-0.5789 0.5789 0.0000
-0.5789 0.6842 0.0000
-0.5789 0.7895 0.0000
-0.5789 0.8947 0.0000
-0.5789 1.0000 0.0000
-0.4737 -0.8947 0.0000
-0.4737 -0.7895 0.0000
-0.4737 -0.6842 0.0000
-0.4737 -0.5789 0.0000
-0.4737 -0.4737 0.0000
-0.4737 -0.3684 0.0000
-0.4737 -0.2632 0.0000
-0.4737 -0.1579 0.0000
-0.4737 -0.0526 0.0000
-0.4737 0.0526 0.0000
-0.4737 0.1579 0.0000
-0.4737 0.2632 0.0000
-0.4737 0.3684 0.0000
-0.4737 0.4737 0.0000
-0.4737 0.5789 0.0000
-0.4737 0.6842 0.0000
-0.4737 0.7895 0.0000
-0.4737 0.8947 0.0000
-0.4737 1.0000 0.0000
-0.3684 -0.8947 0.0000
-0.3684 -0.7895 0.0000
-0.3684 -0.6842 0.0000
-0.3684 -0.5789 0.0000
-0.3684 -0.4737 0.0000
-0.3684 -0.3684 0.0000
-0.3684 -0.2632 0.0000
-0.3684 -0.1579 0.0000
-0.3684 -0.0526 0.0000
-0.3684 0.0526 0.0000
-0.3684 0.1579 0.0000
-0.3684 0.2632 0.0000
-0.3684 0.3684 0.0000
-0.3684 0.4737 0.0000
-0.3684 0.5789 0.0000
-0.3684 0.6842 0.0000
-0.3684 0.7895 0.0000
-0.3684 0.8947 0.0000
-0.3684 1.0000 0.0000
-0.2632 -0.8947 0.0000
-0.2632 -0.7895 0.0000
-0.2632 -0.6842 0.0000
-0.2632 -0.5789 0.0000
-0.2632 -0.4737 0.0000
-0.2632 -0.3684 0.0000
-0.2632 -0.2632 0.0000
-0.2632 -0.1579 0.0000
-0.2632 -0.0526 0.0000
-0.2632 0.0526 0.0000
-0.2632 0.1579 0.0000
-0.2632 0.2632 0.0000
-0.2632 0.3684 0.0000
-0.2632 0.4737 0.0000
-0.2632 0.5789 0.0000
-0.2632 0.6842 0.0000
-0.2632 0.7895 0.0000
-0.2632 0.8947 0.0000
-0.2632 1.0000 0.0000
-0.1579 -0.8947 0.0000
-0.1579 -0.7895 0.0000
-0.1579 -0.6842 0.0000
-0.1579 -0.5789 0.0000
-0.1579 -0.4737 0.0000
-0.1579 -0.3684 0.0000
-0.1579 -0.2632 0.0000
-0.1579 -0.1579 0.0000
-0.1579 -0.0526 0.0000
-0.1579 0.1579 0.0000
-0.1579 0.2632 0.0000
-0.1579 0.3684 0.0000
-0.1579 0.4737 0.0000
-0.1579 0.5789 0.0000
-0.1579 0.6842 0.0000
-0.1579 0.7895 0.0000
-0.1579 0.8947 0.0000
-0.1579 1.0000 0.0000
-0.0526 -0.8947 0.0000
-0.0526 -0.7895 0.0000
-0.0526 -0.6842 0.0000
-0.0526 -0.5789 0.0000
-0.0526 -0.4737 0.0000
-0.0526 -0.3684 0.0000
-0.0526 -0.2632 0.0000
-0.0526 -0.1579 0.0000
-0.0526 0.2632 0.0000
-0.0526 0.3684 0.0000
-0.0526 0.4737 0.0000
-0.0526 0.5789 0.0000
-0.0526 0.6842 0.0000
-0.0526 0.7895 0.0000
-0.0526 0.8947 0.0000
-0.0526 1.0000 0.0000
0.0526 -0.8947 0.0000
0.0526 -0.7895 0.0000
0.0526 -0.6842 0.0000
0.0526 -0.5789 0.0000
0.0526 -0.4737 0.0000
0.0526 -0.3684 0.0000
0.0526 -0.2632 0.0000
0.0526 -0.1579 0.0000
0.0526 0.2632 0.0000
0.0526 0.3684 0.0000
0.0526 0.4737 0.0000
0.0526 0.5789 0.0000
0.0526 0.6842 0.0000
0.0526 0.7895 0.0000
0.0526 0.8947 0.0000
0.0526 1.0000 0.0000
0.1579 -0.8947 0.0000
0.1579 -0.7895 0.0000
0.1579 -0.6842 0.0000
0.1579 -0.5789 0.0000
0.1579 -0.4737 0.0000
0.1579 -0.3684 0.0000
0.1579 -0.2632 0.0000
0.1579 -0.1579 0.0000
0.1579 -0.0526 0.0000
0.1579 0.0526 0.0000
0.1579 0.1579 0.0000
0.1579 0.2632 0.0000
0.1579 0.3684 0.0000
0.1579 0.4737 0.0000
0.1579 0.5789 0.0000
0.1579 0.6842 0.0000
0.1579 0.7895 0.0000
0.1579 0.8947 0.0000
0.1579 1.0000 0.0000
0.2632 -0.8947 0.0000
0.2632 -0.7895 0.0000
0.2632 -0.6842 0.0000
0.2632 -0.5789 0.0000
0.2632 -0.4737 0.0000
0.2632 -0.3684 0.0000
0.2632 -0.2632 0.0000
0.2632 -0.1579 0.0000
0.2632 -0.0526 0.0000
0.2632 0.0526 0.0000
0.2632 0.1579 0.0000
0.2632 0.2632 0.0000
0.2632 0.3684 0.0000
0.2632 0.4737 0.0000
0.2632 0.5789 0.0000
0.2632 0.6842 0.0000
0.2632 0.7895 0.0000
0.2632 0.8947 0.0000
0.2632 1.0000 0.0000
0.3684 -0.8947 0.0000
0.3684 -0.7895 0.0000
0.3684 -0.6842 0.0000
0.3684 -0.5789 0.0000
0.3684 -0.4737 0.0000
0.3684 -0.3684 0.0000
0.3684 -0.2632 0.0000
0.3684 -0.1579 0.0000
0.3684 -0.0526 0.0000
0.3684 0.0526 0.0000
0.3684 0.1579 0.0000
0.3684 0.2632 0.0000
0.3684 0.3684 0.0000
0.3684 0.4737 0.0000
0.3684 0.5789 0.0000
0.3684 0.6842 0.0000
0.3684 0.7895 0.0000
0.3684 0.8947 0.0000
0.3684 1.0000 0.0000
0.4737 -0.8947 0.0000
0.4737 -0.7895 0.0000
0.4737 -0.6842 0.0000
0.4737 -0.5789 0.0000
0.4737 -0.4737 0.0000
0.4737 -0.3684 0.0000
0.4737 -0.2632 0.0000
0.4737 -0.1579 0.0000
0.4737 -0.0526 0.0000
0.4737 0.0526 0.0000
0.4737 0.1579 0.0000
0.4737 0.2632 0.0000
0.4737 0.3684 0.0000
0.4737 0.4737 0.0000
0.4737 0.5789 0.0000
0.4737 0.6842 0.0000
0.4737 0.7895 0.0000
0.4737 0.8947 0.0000
0.4737 1.0000 0.0000
0.5789 -0.8947 0.0000
0.5789 -0.7895 0.0000
0.5789 -0.6842 0.0000
0.5789 -0.5789 0.0000
0.5789 -0.4737 0.0000
0.5789 -0.3684 0.0000
0.5789 -0.2632 0.0000
0.5789 -0.1579 0.0000
0.5789 -0.0526 0.0000
0.5789 0.0526 0.0000
0.5789 0.1579 0.0000
0.5789 0.2632 0.0000
0.5789 0.3684 0.0000
0.5789 0.4737 0.0000
0.5789 0.5789 0.0000
0.5789 0.6842 0.0000
0.5789 0.7895 0.0000
0.5789 0.8947 0.0000
0.5789 1.0000 0.0000
0.6842 -0.8947 0.0000
0.6842 -0.7895 0.0000
0.6842 -0.6842 0.0000
0.6842 -0.5789 0.0000
0.6842 -0.4737 0.0000
0.6842 -0.3684 0.0000
0.6842 -0.2632 0.0000
0.6842 -0.1579 0.0000
0.6842 -0.0526 0.0000
0.6842 0.0526 0.0000
0.6842 0.1579 0.0000
0.6842 0.2632 0.0000
0.6842 0.3684 0.0000
0.6842 0.4737 0.0000
0.6842 0.5789 0.0000
0.6842 0.6842 0.0000
0.6842 0.7895 0.0000
0.6842 0.8947 0.0000
0.6842 1.0000 0.0000
0.7895 -0.8947 0.0000
0.7895 -0.7895 0.0000
0.7895 -0.6842 0.0000
0.7895 -0.5789 0.0000
0.7895 -0.4737 0.0000
0.7895 -0.3684 0.0000
0.7895 -0.2632 0.0000
0.7895 -0.1579 0.0000
0.7895 -0.0526 0.0000
0.7895 0.0526 0.0000
0.7895 0.1579 0.0000
0.7895 0.2632 0.0000
0.7895 0.3684 0.0000
0.7895 0.4737 0.0000
0.7895 0.5789 0.0000
0.7895 0.6842 0.0000
0.7895 0.7895 0.0000
0.7895 0.8947 0.0000
0.7895 1.0000 0.0000
0.8947 -0.8947 0.0000
0.8947 -0.7895 0.0000
0.8947 -0.6842 0.0000
0.8947 -0.5789 0.0000
0.8947 -0.4737 0.0000
0.8947 -0.3684 0.0000
0.8947 -0.2632 0.0000
0.8947 -0.1579 0.0000
0.8947 -0.0526 0.0000
0.8947 0.0526 0.0000
0.8947 0.1579 0.0000
0.8947 0.2632 0.0000
0.8947 0.3684 0.0000
0.8947 0.4737 0.0000
0.8947 0.5789 0.0000
0.8947 0.6842 0.0000
0.8947 0.7895 0.0000
0.8947 0.8947 0.0000
0.8947 1.0000 0.0000
-0.1579 0.0526 0.0000
-0.0526 0.1579 0.0000
1.0000 -0.8947 0.0000
1.0000 -0.7895 0.0000
1.0000 -0.6842 0.0000
1.0000 -0.5789 0.0000
1.0000 -0.4737 0.0000
1.0000 -0.3684 0.0000
1.0000 -0.2632 0.0000
1.0000 -0.1579 0.0000
1.0000 -0.0526 0.0000
1.0000 0.0526 0.0000
1.0000 0.1579 0.0000
1.0000 0.2632 0.0000
1.0000 0.3684 0.0000
1.0000 0.4737 0.0000
1.0000 0.5789 0.0000
1.0000 0.6842 0.0000
1.0000 0.7895 0.0000
1.0000 0.8947 0.0000
1.0000 1.0000 0.0000
-0.8947 -1.0000 0.0000
-0.7895 -1.0000 0.0000
-0.6842 -1.0000 0.0000
-0.5789 -1.0000 0.0000
-0.4737 -1.0000 0.0000
-0.3684 -1.0000 0.0000
-0.2632 -1.0000 0.0000
-0.1579 -1.0000 0.0000
-0.0526 -1.0000 0.0000
0.0526 -1.0000 0.0000
0.0526 0.1579 0.0000
0.1579 -1.0000 0.0000
0.2632 -1.0000 0.0000
0.3684 -1.0000 0.0000
0.4737 -1.0000 0.0000
0.5789 -1.0000 0.0000
0.6842 -1.0000 0.0000
0.7895 -1.0000 0.0000
0.8947 -1.0000 0.0000
1.0000 -1.0000 0.0000
-1.0000 -1.0000 0.0000
1.0000 1.0000 0.0000
1.1053 -0.8947 0.0000
1.1053 -0.7895 0.0000
1.1053 -0.6842 0.0000
1.1053 -0.5789 0.0000
1.1053 -0.4737 0.0000
1.1053 -0.3684 0.0000
1.1053 -0.2632 0.0000
1.1053 -0.1579 0.0000
1.1053 -0.0526 0.0000
1.1053 0.0526 0.0000
1.1053 0.1579 0.0000
1.1053 0.2632 0.0000
1.1053 0.3684 0.0000
1.1053 0.4737 0.0000
1.1053 0.5789 0.0000
1.1053 0.6842 0.0000
1.1053 0.7895 0.0000
1.1053 0.8947 0.0000
1.1053 1.0000 0.0000
1.2105 -0.8947 0.0000
1.2105 -0.7895 0.0000
1.2105 -0.6842 0.0000
1.2105 -0.5789 0.0000
1.2105 -0.4737 0.0000
1.2105 -0.3684 0.0000
1.2105 -0.2632 0.0000
1.2105 -0.1579 0.0000
1.2105 -0.0526 0.0000
1.2105 0.0526 0.0000
1.2105 0.1579 0.0000
1.2105 0.2632 0.0000
1.2105 0.3684 0.0000
1.2105 0.4737 0.0000
1.2105 0.5789 0.0000
1.2105 0.6842 0.0000
1.2105 0.7895 0.0000
1.2105 0.8947 0.0000
1.2105 1.0000 0.0000
1.3158 -0.8947 0.0000
1.3158 -0.7895 0.0000
1.3158 -0.6842 0.0000
1.3158 -0.5789 0.0000
1.3158 -0.4737 0.0000
1.3158 -0.3684 0.0000
[...]
         <PointData>
            <DataArray Name="fValues" NumberOfComponents="3" format="ascii" type="Float64">
-3.54565e-15  6.92765e-16        00000 
-1.72618e-16 -6.04162e-16        00000 
 6.47148e-16  7.29516e-16        00000 
 1.72618e-16        00000        00000 
 1.20911e-15  7.40108e-16        00000 
-4.31544e-17  3.45235e-16        00000 
 1.13184e-15  6.09453e-16        00000 
       00000  2.58927e-16        00000 
-8.40416e-17 -1.38262e-16        00000 
 8.63089e-17  5.39430e-16        00000 
-5.65920e-16  1.74129e-16        00000 
-3.02081e-16  3.23658e-16        00000 
-8.67526e-16  1.57239e-16        00000 
-6.04162e-16 -1.72618e-16        00000 
 7.40062e-16  3.04731e-16        00000 
-1.81249e-15 -1.12202e-15        00000 
-3.04201e-16 -1.35261e-15        00000 
-2.87262e-15  2.28504e-15        00000 
-4.44289e+01 -2.01636e+00        00000 
 2.31801e+01  1.71536e+01        00000 
 1.40158e+01  1.00891e+01        00000 
 1.09746e+01  6.96618e+00        00000 
 8.75784e+00  5.21157e+00        00000 
 6.92000e+00  4.09929e+00        00000 
 5.25606e+00  3.36978e+00        00000 
 3.69318e+00  2.89769e+00        00000 
 2.19225e+00  2.61494e+00        00000 
 7.26609e-01  2.48279e+00        00000 
-7.27333e-01  2.48294e+00        00000 
-2.19283e+00  2.61534e+00        00000 
-3.69353e+00  2.89821e+00        00000 
-5.25616e+00  3.37028e+00        00000 
-6.91990e+00  4.09967e+00        00000 
-8.75759e+00  5.21177e+00        00000 
-1.09743e+01  6.96619e+00        00000 
-1.40154e+01  1.00889e+01        00000 
-2.31794e+01  1.71532e+01        00000 
-4.23061e+01  2.29480e+01        00000 
 3.98555e+01  2.70527e+01        00000 
 2.96147e+01  2.10511e+01        00000 
 2.29608e+01  1.61324e+01        00000 
 1.82750e+01  1.29340e+01        00000 
 1.43645e+01  1.07966e+01        00000 
 1.08681e+01  9.35619e+00        00000 
 7.61328e+00  8.40938e+00        00000 
 4.50955e+00  7.83683e+00        00000 
 1.49291e+00  7.56782e+00        00000 
-1.49458e+00  7.56808e+00        00000 
-4.51085e+00  7.83751e+00        00000 
-7.61400e+00  8.41024e+00        00000 
-1.08682e+01  9.35697e+00        00000 
-1.43642e+01  1.07972e+01        00000 
-1.82744e+01  1.29342e+01        00000 
-2.29600e+01  1.61323e+01        00000 
-2.96137e+01  2.10506e+01        00000 
-3.98543e+01  2.70519e+01        00000 
-5.12301e+01  3.19810e+01        00000 
 5.40649e+01  3.58323e+01        00000 
 4.38375e+01  3.07649e+01        00000 
 3.52108e+01  2.60400e+01        00000 
 2.81786e+01  2.22647e+01        00000 
 2.21645e+01  1.94963e+01        00000 
 1.67480e+01  1.75330e+01        00000 
 1.17119e+01  1.62060e+01        00000 
 6.92584e+00  1.53925e+01        00000 
 2.29037e+00  1.50084e+01        00000 
-2.29329e+00  1.50088e+01        00000 
-6.92800e+00  1.53935e+01        00000 
-1.17130e+01  1.62072e+01        00000 
-1.67480e+01  1.75340e+01        00000 
-2.21638e+01  1.94968e+01        00000 
-2.81774e+01  2.22647e+01        00000 
-3.52094e+01  2.60395e+01        00000 
-4.38360e+01  3.07640e+01        00000 
-5.40632e+01  3.58312e+01        00000 
-6.42434e+01  4.06546e+01        00000 
 6.77846e+01  4.56432e+01        00000 
 5.69566e+01  4.09921e+01        00000 
 4.69627e+01  3.66192e+01        00000 
 3.80564e+01  3.28407e+01        00000 
 3.00718e+01  2.98254e+01        00000 
 2.27513e+01  2.75705e+01        00000 
 1.59002e+01  2.59995e+01        00000 
 9.38882e+00  2.50249e+01        00000 
 3.10085e+00  2.45649e+01        00000 
-3.10552e+00  2.45655e+01        00000 
-9.39202e+00  2.50264e+01        00000 
-1.59014e+01  2.60010e+01        00000 
-2.27508e+01  2.75714e+01        00000 
-3.00703e+01  2.98255e+01        00000 
-3.80546e+01  3.28402e+01        00000 
-4.69608e+01  3.66181e+01        00000 
-5.69546e+01  4.09907e+01        00000 
-6.77825e+01  4.56415e+01        00000 
-7.86184e+01  5.04354e+01        00000 
 8.13629e+01  5.69219e+01        00000 
 6.94876e+01  5.24730e+01        00000 
 5.81906e+01  4.83512e+01        00000 
 4.76692e+01  4.46985e+01        00000 
 3.78973e+01  4.16492e+01        00000 
 2.87431e+01  3.92702e+01        00000 
 2.00816e+01  3.75708e+01        00000 
 1.18305e+01  3.65157e+01        00000 
 3.89730e+00  3.60270e+01        00000 
-3.90472e+00  3.60282e+01        00000 
-1.18348e+01  3.65179e+01        00000 
-2.00825e+01  3.75728e+01        00000 
-2.87416e+01  3.92708e+01        00000 
-3.78948e+01  4.16488e+01        00000 
-4.76665e+01  4.46971e+01        00000 
-5.81881e+01  4.83494e+01        00000 
-6.94853e+01  5.24709e+01        00000 
-8.13606e+01  5.69197e+01        00000 
-9.34275e+01  6.16911e+01        00000 
 9.48188e+01  6.97905e+01        00000 
 8.16625e+01  6.54650e+01        00000 
 6.90163e+01  6.15124e+01        00000 
 5.69836e+01  5.79885e+01        00000 
 4.55564e+01  5.49750e+01        00000 
 3.46496e+01  5.25447e+01        00000 
 2.41854e+01  5.07672e+01        00000 
 1.41724e+01  4.96813e+01        00000 
 4.63627e+00  4.92151e+01        00000 
-4.64847e+00  4.92162e+01        00000 
-1.41777e+01  4.96855e+01        00000 
-2.41845e+01  5.07687e+01        00000 
-3.46464e+01  5.25446e+01        00000 
-4.55525e+01  5.49733e+01        00000 
-5.69800e+01  5.79860e+01        00000 
-6.90133e+01  6.15097e+01        00000 
-8.16599e+01  6.54622e+01        00000 
-9.48164e+01  6.97878e+01        00000 
-1.08317e+02  7.45172e+01        00000 
 1.08113e+02  8.42805e+01        00000 
 9.35667e+01  8.00539e+01        00000 
 7.95289e+01  7.62301e+01        00000 
 6.60293e+01  7.28222e+01        00000 
 5.30400e+01  6.98679e+01        00000 
 4.04734e+01  6.74070e+01        00000 
 2.82154e+01  6.55049e+01        00000 
 1.63325e+01  6.43387e+01        00000 
 5.21243e+00  6.39392e+01        00000 
-5.23511e+00  6.39491e+01        00000 
-1.63340e+01  6.43395e+01        00000 
-2.82126e+01  6.55074e+01        00000 
-4.04667e+01  6.74047e+01        00000 
-5.30346e+01  6.98640e+01        00000 
-6.60252e+01  7.28185e+01        00000 
-7.95257e+01  7.62266e+01        00000 
-9.35640e+01  8.00508e+01        00000 
-1.08111e+02  8.42774e+01        00000 
-1.23118e+02  8.89450e+01        00000 
 1.21204e+02  1.00386e+02        00000 
 1.05224e+02  9.62553e+01        00000 
 8.97729e+01  9.25469e+01        00000 
 7.48311e+01  8.92571e+01        00000 
 6.03489e+01  8.63966e+01        00000 
 4.62316e+01  8.39661e+01        00000 
 3.23133e+01  8.19352e+01        00000 
 1.83685e+01  8.03525e+01        00000 
 5.32802e+00  7.97826e+01        00000 
-1.83719e+01  8.03788e+01        00000 
-3.22974e+01  8.19317e+01        00000 
-4.62220e+01  8.39582e+01        00000 
-6.03432e+01  8.63906e+01        00000 
-7.48271e+01  8.92525e+01        00000 
-8.97698e+01  9.25432e+01        00000 
-1.05221e+02  9.62522e+01        00000 
-1.21202e+02  1.00383e+02        00000 
-1.37731e+02  1.04972e+02        00000 
 1.34056e+02  1.18079e+02        00000 
 1.16633e+02  1.14046e+02        00000 
 9.97642e+01  1.10450e+02        00000 
 8.33944e+01  1.07288e+02        00000 
 6.74571e+01  1.04571e+02        00000 
 5.18608e+01  1.02305e+02        00000 
 3.64572e+01  1.00455e+02        00000 
 2.07761e+01  9.88253e+01        00000 
-3.64379e+01  1.00427e+02        00000 
-5.18539e+01  1.02294e+02        00000 
-6.74525e+01  1.04565e+02        00000 
-8.33911e+01  1.07284e+02        00000 
-9.97614e+01  1.10447e+02        00000 
-1.16630e+02  1.14044e+02        00000 
-1.34054e+02  1.18077e+02        00000 
-1.52092e+02  1.22574e+02        00000 
 1.46641e+02  1.37314e+02        00000 
 1.27789e+02  1.33380e+02        00000 
 1.09511e+02  1.29890e+02        00000 
 9.17228e+01  1.26849e+02        00000 
 7.43381e+01  1.24286e+02        00000 
 5.72595e+01  1.22253e+02        00000 
 4.03448e+01  1.20851e+02        00000 
 2.32563e+01  1.20289e+02        00000 
-4.03416e+01  1.20849e+02        00000 
-5.72545e+01  1.22250e+02        00000 
-7.43349e+01  1.24284e+02        00000 
-9.17199e+01  1.26847e+02        00000 
-1.09509e+02  1.29888e+02        00000 
-1.27787e+02  1.33378e+02        00000 
-1.46639e+02  1.37312e+02        00000 
-1.66156e+02  1.41709e+02        00000 
 1.58941e+02  1.58040e+02        00000 
 1.38691e+02  1.54200e+02        00000 
 1.19030e+02  1.50796e+02        00000 
 9.98417e+01  1.47843e+02        00000 
 8.10204e+01  1.45377e+02        00000 
 6.24578e+01  1.43456e+02        00000 
 4.40249e+01  1.42141e+02        00000 
 2.56690e+01  1.41385e+02        00000 
 8.17594e+00  1.41020e+02        00000 
-8.15371e+00  1.41003e+02        00000 
-2.57018e+01  1.41391e+02        00000 
-4.40111e+01  1.42154e+02        00000 
-6.24535e+01  1.43460e+02        00000 
-8.10167e+01  1.45378e+02        00000 
-9.98387e+01  1.47843e+02        00000 
-1.19027e+02  1.50796e+02        00000 
-1.38689e+02  1.54199e+02        00000 
-1.58939e+02  1.58039e+02        00000 
-1.79893e+02  1.62330e+02        00000 
 1.70939e+02  1.80209e+02        00000 
 1.49345e+02  1.76453e+02        00000 
 1.28347e+02  1.73106e+02        00000 
 1.07799e+02  1.70189e+02        00000 
 8.75779e+01  1.67741e+02        00000 
 6.75888e+01  1.65797e+02        00000 
 4.77780e+01  1.64347e+02        00000 
 2.82453e+01  1.63303e+02        00000 
 9.28437e+00  1.62665e+02        00000 
-9.27650e+00  1.62671e+02        00000 
-2.82548e+01  1.63305e+02        00000 
-4.77762e+01  1.64347e+02        00000 
-6.75829e+01  1.65801e+02        00000 
-8.75738e+01  1.67743e+02        00000 
-1.07796e+02  1.70190e+02        00000 
-1.28344e+02  1.73107e+02        00000 
-1.49342e+02  1.76453e+02        00000 
-1.70937e+02  1.80209e+02        00000 
-1.93281e+02  1.84390e+02        00000 
 1.82620e+02  2.03782e+02        00000 
 1.59763e+02  2.00094e+02        00000 
 1.37503e+02  1.96767e+02        00000 
 1.15647e+02  1.93838e+02        00000 
 9.40710e+01  1.91360e+02        00000 
 7.27134e+01  1.89358e+02        00000 
 5.15732e+01  1.87819e+02        00000 
 3.07160e+01  1.86724e+02        00000 
 1.01852e+01  1.86130e+02        00000 
-1.01832e+01  1.86131e+02        00000 
-3.07170e+01  1.86725e+02        00000 
-5.15726e+01  1.87819e+02        00000 
-7.27100e+01  1.89359e+02        00000 
-9.40670e+01  1.91362e+02        00000 
-1.15643e+02  1.93840e+02        00000 
-1.37500e+02  1.96768e+02        00000 
-1.59760e+02  2.00095e+02        00000 
-1.82618e+02  2.03782e+02        00000 
-2.06291e+02  2.07849e+02        00000 
 1.93963e+02  2.28725e+02        00000 
 1.69973e+02  2.25079e+02        00000 
 1.46545e+02  2.21723e+02        00000 
 1.23427e+02  2.18747e+02        00000 
 1.00518e+02  2.16232e+02        00000 
 7.78027e+01  2.14208e+02        00000 
 5.53027e+01  2.12667e+02        00000 
 3.30390e+01  2.11607e+02        00000 
 1.09841e+01  2.11058e+02        00000 
-1.09832e+01  2.11058e+02        00000 
-3.30385e+01  2.11607e+02        00000 
-5.53015e+01  2.12667e+02        00000 
-7.78002e+01  2.14209e+02        00000 
-1.00515e+02  2.16233e+02        00000 
-1.23424e+02  2.18749e+02        00000 
-1.46542e+02  2.21725e+02        00000 
-1.69970e+02  2.25080e+02        00000 
-1.93961e+02  2.28726e+02        00000 
-2.18875e+02  2.32669e+02        00000 
 2.04942e+02  2.55003e+02        00000 
 1.80036e+02  2.51338e+02        00000 
 1.55544e+02  2.47883e+02        00000 
 1.31169e+02  2.44843e+02        00000 
 1.06902e+02  2.42330e+02        00000 
 8.28067e+01  2.40351e+02        00000 
 5.89224e+01  2.38873e+02        00000 
 3.52464e+01  2.37879e+02        00000 
 1.17289e+01  2.37376e+02        00000 
-1.17282e+01  2.37376e+02        00000 
-3.52455e+01  2.37879e+02        00000 
-5.89210e+01  2.38873e+02        00000 
-8.28045e+01  2.40351e+02        00000 
-1.06899e+02  2.42331e+02        00000 
-1.31166e+02  2.44844e+02        00000 
-1.55541e+02  2.47884e+02        00000 
-1.80033e+02  2.51339e+02        00000 
-2.04939e+02  2.55005e+02        00000 
-2.30924e+02  2.58812e+02        00000 
 2.15557e+02  2.82534e+02        00000 
 1.90110e+02  2.78701e+02        00000 
 1.64591e+02  2.75061e+02        00000 
 1.38859e+02  2.72017e+02        00000 
 1.13168e+02  2.69625e+02        00000 
 8.76744e+01  2.67783e+02        00000 
 6.24110e+01  2.66425e+02        00000 
 3.73519e+01  2.65522e+02        00000 
 1.24340e+01  2.65069e+02        00000 
-1.24332e+01  2.65069e+02        00000 
-3.73510e+01  2.65522e+02        00000 
-6.24097e+01  2.66425e+02        00000 
-8.76725e+01  2.67783e+02        00000 
-1.13165e+02  2.69625e+02        00000 
-1.38856e+02  2.72018e+02        00000 
-1.64588e+02  2.75062e+02        00000 
-1.90107e+02  2.78702e+02        00000 
-2.15554e+02  2.82535e+02        00000 
-2.42181e+02  2.86204e+02        00000 
 2.26012e+02  3.11015e+02        00000 
 2.00536e+02  3.06692e+02        00000 
 1.73689e+02  3.02949e+02        00000 
 1.46367e+02  3.00233e+02        00000 
 1.19223e+02  2.98154e+02        00000 
 9.23536e+01  2.96544e+02        00000 
 6.57500e+01  2.95347e+02        00000 
 3.93584e+01  2.94548e+02        00000 
 1.31039e+01  2.94146e+02        00000 
-1.31031e+01  2.94146e+02        00000 
-3.93575e+01  2.94548e+02        00000 
-6.57487e+01  2.95348e+02        00000 
-9.23518e+01  2.96545e+02        00000 
-1.19220e+02  2.98155e+02        00000 
-1.46364e+02  3.00234e+02        00000 
-1.73686e+02  3.02950e+02        00000 
-2.00533e+02  3.06693e+02        00000 
-2.26009e+02  3.11016e+02        00000 
-2.51978e+02  3.14581e+02        00000 
 2.37501e+02  3.39019e+02        00000 
 2.11490e+02  3.34198e+02        00000 
 1.82372e+02  3.31664e+02        00000 
 1.53496e+02  3.29729e+02        00000 
 1.24981e+02  3.28086e+02        00000 
 9.68130e+01  3.26731e+02        00000 
 6.89332e+01  3.25691e+02        00000 
 4.12699e+01  3.24985e+02        00000 
 1.37415e+01  3.24628e+02        00000 
-1.37409e+01  3.24628e+02        00000 
-4.12691e+01  3.24985e+02        00000 
-6.89320e+01  3.25691e+02        00000 
-9.68113e+01  3.26732e+02        00000 
-1.24979e+02  3.28086e+02        00000 
-1.53493e+02  3.29730e+02        00000 
-1.82369e+02  3.31665e+02        00000 
-2.11487e+02  3.34199e+02        00000 
-2.37498e+02  3.39020e+02        00000 
-2.58438e+02  3.42796e+02        00000 
-5.36329e+00  7.97365e+01        00000 
-2.07444e+01  9.87723e+01        00000 
 2.52145e+02  3.62165e+02        00000 
 2.20973e+02  3.63111e+02        00000 
 1.90342e+02  3.62405e+02        00000 
 1.60189e+02  3.61043e+02        00000 
 1.30454e+02  3.59660e+02        00000 
 1.01073e+02  3.58451e+02        00000 
 7.19796e+01  3.57501e+02        00000 
 4.30994e+01  3.56852e+02        00000 
 1.43516e+01  3.56523e+02        00000 
-1.43512e+01  3.56523e+02        00000 
-4.30988e+01  3.56852e+02        00000 
-7.19786e+01  3.57502e+02        00000 
-1.01072e+02  3.58452e+02        00000 
-1.30452e+02  3.59661e+02        00000 
-1.60187e+02  3.61044e+02        00000 
-1.90339e+02  3.62406e+02        00000 
-2.20970e+02  3.63111e+02        00000 
-2.52141e+02  3.62165e+02        00000 
-2.57348e+02  3.60624e+02        00000 
 4.23074e+01  2.29487e+01        00000 
 5.12318e+01  3.19819e+01        00000 
 6.42455e+01  4.06558e+01        00000 
 7.86208e+01  5.04372e+01        00000 
 9.34301e+01  6.16934e+01        00000 
 1.08319e+02  7.45199e+01        00000 
 1.23120e+02  8.89480e+01        00000 
 1.37733e+02  1.04975e+02        00000 
 1.52093e+02  1.22576e+02        00000 
 1.66157e+02  1.41710e+02        00000 
-2.31634e+01  1.20286e+02        00000 
 1.79894e+02  1.62330e+02        00000 
 1.93282e+02  1.84390e+02        00000 
 2.06293e+02  2.07848e+02        00000 
 2.18878e+02  2.32668e+02        00000 
 2.30927e+02  2.58811e+02        00000 
 2.42184e+02  2.86203e+02        00000 
 2.51981e+02  3.14580e+02        00000 
 2.58441e+02  3.42795e+02        00000 
 2.57351e+02  3.60623e+02        00000 
 4.44302e+01 -2.01645e+00        00000 
-3.10346e+02  3.60900e+02        00000 
 2.66541e+02  4.03388e+02        00000 
 2.30228e+02  3.98711e+02        00000 
 1.98108e+02  3.96317e+02        00000 
 1.66702e+02  3.94511e+02        00000 
 1.35772e+02  3.92985e+02        00000 
 1.05205e+02  3.91734e+02        00000 
 7.49287e+01  3.90780e+02        00000 
 4.48675e+01  3.90138e+02        00000 
 1.49406e+01  3.89816e+02        00000 
-1.49405e+01  3.89816e+02        00000 
-4.48671e+01  3.90138e+02        00000 
-7.49278e+01  3.90780e+02        00000 
-1.05204e+02  3.91735e+02        00000 
-1.35770e+02  3.92985e+02        00000 
-1.66700e+02  3.94512e+02        00000 
-1.98105e+02  3.96317e+02        00000 
-2.30225e+02  3.98711e+02        00000 
-2.66538e+02  4.03388e+02        00000 
-3.09044e+02  4.06960e+02        00000 
 2.77248e+02  4.39641e+02        00000 
 2.40494e+02  4.35648e+02        00000 
 2.06176e+02  4.32194e+02        00000 
 1.73291e+02  4.29736e+02        00000 
 1.41065e+02  4.27888e+02        00000 
 1.09279e+02  4.26484e+02        00000 
 7.78177e+01  4.25460e+02        00000 
 4.65921e+01  4.24790e+02        00000 
 1.55137e+01  4.24460e+02        00000 
-1.55141e+01  4.24460e+02        00000 
-4.65920e+01  4.24791e+02        00000 
-7.78169e+01  4.25461e+02        00000 
-1.09278e+02  4.26484e+02        00000 
-1.41063e+02  4.27889e+02        00000 
-1.73288e+02  4.29736e+02        00000 
-2.06173e+02  4.32194e+02        00000 
-2.40491e+02  4.35648e+02        00000 
-2.77244e+02  4.39641e+02        00000 
-3.14685e+02  4.42851e+02        00000 
 2.86424e+02  4.75344e+02        00000 
 2.49765e+02  4.71996e+02        00000 
 2.14251e+02  4.68788e+02        00000 
 1.79901e+02  4.66124e+02        00000 
 1.46346e+02  4.64068e+02        00000 
 1.13314e+02  4.62526e+02        00000 
 8.06589e+01  4.61427e+02        00000 
 4.82782e+01  4.60723e+02        00000 
 1.60720e+01  4.60381e+02        00000 
-1.60731e+01  4.60382e+02        00000 
-4.82786e+01  4.60724e+02        00000 
-8.06582e+01  4.61428e+02        00000 
-1.13312e+02  4.62527e+02        00000 
-1.46344e+02  4.64069e+02        00000 
-1.79898e+02  4.66124e+02        00000 
-2.14247e+02  4.68788e+02        00000 
-2.49761e+02  4.71995e+02        00000 
-2.86420e+02  4.75344e+02        00000 
-3.23091e+02  4.78477e+02        00000 
 2.95252e+02  5.11855e+02        00000 
 2.58231e+02  5.08830e+02        00000 
 2.21873e+02  5.05938e+02        00000 
 1.86346e+02  5.03386e+02        00000 
 1.51538e+02  5.01298e+02        00000 
 1.17278e+02  4.99697e+02        00000 
 8.34349e+01  4.98555e+02        00000 
 4.99129e+01  4.97835e+02        00000 
 1.66099e+01  4.97492e+02        00000 
-1.66122e+01  4.97493e+02        00000 
-4.99140e+01  4.97836e+02        00000 
-8.34342e+01  4.98556e+02        00000 
-1.17276e+02  4.99697e+02        00000 
-1.51535e+02  5.01298e+02        00000 
-1.86342e+02  5.03385e+02        00000 
-2.21870e+02  5.05937e+02        00000 
-2.58227e+02  5.08829e+02        00000 
-2.95247e+02  5.11854e+02        00000 
-3.32391e+02  5.14949e+02        00000 
 3.03929e+02  5.49431e+02        00000 
 2.66233e+02  5.46579e+02        00000 
 2.29056e+02  5.43912e+02        00000 
 1.92511e+02  5.41516e+02        00000 
 1.56566e+02  5.39488e+02        00000 
 1.21129e+02  5.37886e+02        00000 
 8.61131e+01  5.36736e+02        00000 
 5.14665e+01  5.36026e+02        00000 
 1.71134e+01  5.35702e+02        00000 
-1.71177e+01  5.35703e+02        00000 
-5.14682e+01  5.36028e+02        00000 
-8.61121e+01  5.36738e+02        00000 
-1.21126e+02  5.37887e+02        00000 
-1.56563e+02  5.39487e+02        00000 
-1.92507e+02  5.41515e+02        00000 
-2.29052e+02  5.43910e+02        00000 
-2.66229e+02  5.46578e+02        00000 
-3.03924e+02  5.49429e+02        00000 
-3.41915e+02  5.52479e+02        00000 
 3.12449e+02  5.88109e+02        00000 
 2.73925e+02  5.85374e+02        00000 
 2.35896e+02  5.82860e+02        00000 
 1.98400e+02  5.80598e+02        00000 
 1.61410e+02  5.78641e+02        00000 