<?xml version="1.0" encoding="utf-8"?>
<VTKFile byte_order="LittleEndian" type="UnstructuredGrid" version="0.1">
   <UnstructuredGrid>
      <Piece NumberOfCells="21660" NumberOfPoints="11135">
         <Points>
            <DataArray Name="Points" NumberOfComponents="3" format="ascii" type="Float32">
-1.0000 -1.0000 0.0000
-1.0000 -0.8947 0.0000
-1.0000 -0.7895 0.0000
-1.0000 -0.6842 0.0000
-1.0000 -0.5789 0.0000
-1.0000 -0.4737 0.0000
-1.0000 -0.3684 0.0000
-1.0000 -0.2632 0.0000
-1.0000 -0.1579 0.0000
-1.0000 -0.0526 0.0000
-1.0000 0.0526 0.0000
-1.0000 0.1579 0.0000
-1.0000 0.2632 0.0000
-1.0000 0.3684 0.0000
-1.0000 0.4737 0.0000
-1.0000 0.5789 0.0000
-1.0000 0.6842 0.0000
-1.0000 0.7895 0.0000
-1.0000 0.8947 0.0000
-1.0000 1.0000 0.0000
-0.8947 -1.0000 0.0000
-0.8947 -0.8947 0.0000
-0.8947 -0.7895 0.0000
-0.8947 -0.6842 0.0000
-0.8947 -0.5789 0.0000
-0.8947 -0.4737 0.0000
-0.8947 -0.3684 0.0000
-0.8947 -0.2632 0.0000
-0.8947 -0.1579 0.0000
-0.8947 -0.0526 0.0000
-0.8947 0.0526 0.0000
-0.8947 0.1579 0.0000
-0.8947 0.2632 0.0000
-0.8947 0.3684 0.0000
-0.8947 0.4737 0.0000
-0.8947 0.5789 0.0000
-0.8947 0.6842 0.0000
-0.8947 0.7895 0.0000
-0.8947 0.8947 0.0000
-0.8947 1.0000 0.0000
-0.7895 -1.0000 0.0000
-0.7895 -0.8947 0.0000
-0.7895 -0.7895 0.0000
-0.7895 -0.6842 0.0000
-0.7895 -0.5789 0.0000
-0.7895 -0.4737 0.0000
-0.7895 -0.3684 0.0000
-0.7895 -0.2632 0.0000
-0.7895 -0.1579 0.0000
-0.7895 -0.0526 0.0000
-0.7895 0.0526 0.0000
-0.7895 0.1579 0.0000
-0.7895 0.2632 0.0000
-0.7895 0.3684 0.0000
-0.7895 0.4737 0.0000
-0.7895 0.5789 0.0000
-0.7895 0.6842 0.0000
-0.7895 0.7895 0.0000
-0.7895 0.8947 0.0000
-0.7895 1.0000 0.0000
-0.6842 -1.0000 0.0000
-0.6842 -0.8947 0.0000
-0.6842 -0.7895 0.0000
-0.6842 -0.6842 0.0000
-0.6842 -0.5789 0.0000
-0.6842 -0.4737 0.0000
-0.6842 -0.3684 0.0000
-0.6842 -0.2632 0.0000
-0.6842 -0.1579 0.0000
-0.6842 -0.0526 0.0000
-0.6842 0.0526 0.0000
-0.6842 0.1579 0.0000
-0.6842 0.2632 0.0000
-0.6842 0.3684 0.0000
-0.6842 0.4737 0.0000
-0.6842 0.5789 0.0000
-0.6842 0.6842 0.0000
-0.6842 0.7895 0.0000
-0.6842 0.8947 0.0000
-0.6842 1.0000 0.0000
-0.5789 -1.0000 0.0000
-0.5789 -0.8947 0.0000
-0.5789 -0.7895 0.0000
-0.5789 -0.6842 0.0000
-0.5789 -0.5789 0.0000
-0.5789 -0.4737 0.0000
-0.5789 -0.3684 0.0000
-0.5789 -0.2632 0.0000
-0.5789 -0.1579 0.0000
-0.5789 -0.0526 0.0000
-0.5789 0.0526 0.0000
-0.5789 0.1579 0.0000
-0.5789 0.2632 0.0000
-0.5789 0.3684 0.0000
-0.5789 0.4737 0.0000
-0.5789 0.5789 0.0000
-0.5789 0.6842 0.0000
-0.5789 0.7895 0.0000
-0.5789 0.8947 0.0000
-0.5789 1.0000 0.0000
-0.4737 -1.0000 0.0000
-0.4737 -0.8947 0.0000
-0.4737 -0.7895 0.0000
-0.4737 -0.6842 0.0000
-0.4737 -0.5789 0.0000
-0.4737 -0.4737 0.0000
-0.4737 -0.3684 0.0000
-0.4737 -0.2632 0.0000
-0.4737 -0.1579 0.0000
-0.4737 -0.0526 0.0000
-0.4737 0.0526 0.0000
-0.4737 0.1579 0.0000
-0.4737 0.2632 0.0000
-0.4737 0.3684 0.0000
-0.4737 0.4737 0.0000
-0.4737 0.5789 0.0000
-0.4737 0.6842 0.0000
-0.4737 0.7895 0.0000
-0.4737 0.8947 0.0000
-0.4737 1.0000 0.0000
-0.3684 -1.0000 0.0000
-0.3684 -0.8947 0.0000
-0.3684 -0.7895 0.0000
-0.3684 -0.6842 0.0000
-0.3684 -0.5789 0.0000
-0.3684 -0.4737 0.0000
-0.3684 -0.3684 0.0000
-0.3684 -0.2632 0.0000
-0.3684 -0.1579 0.0000
-0.3684 -0.0526 0.0000
-0.3684 0.0526 0.0000
-0.3684 0.1579 0.0000
-0.3684 0.2632 0.0000
-0.3684 0.3684 0.0000
-0.3684 0.4737 0.0000
-0.3684 0.5789 0.0000
-0.3684 0.6842 0.0000
-0.3684 0.7895 0.0000
-0.3684 0.8947 0.0000
-0.3684 1.0000 0.0000
-0.2632 -1.0000 0.0000
-0.2632 -0.8947 0.0000
-0.2632 -0.7895 0.0000
-0.2632 -0.6842 0.0000
-0.2632 -0.5789 0.0000
-0.2632 -0.4737 0.0000
-0.2632 -0.3684 0.0000
-0.2632 -0.2632 0.0000
-0.2632 -0.1579 0.0000
-0.2632 -0.0526 0.0000
-0.2632 0.0526 0.0000
-0.2632 0.1579 0.0000
-0.2632 0.2632 0.0000
-0.2632 0.3684 0.0000
-0.2632 0.4737 0.0000
-0.2632 0.5789 0.0000
-0.2632 0.6842 0.0000
-0.2632 0.7895 0.0000
-0.2632 0.8947 0.0000
-0.2632 1.0000 0.0000
-0.1579 -1.0000 0.0000
-0.1579 -0.8947 0.0000
-0.1579 -0.7895 0.0000
-0.1579 -0.6842 0.0000
-0.1579 -0.5789 0.0000
-0.1579 -0.4737 0.0000
-0.1579 -0.3684 0.0000
-0.1579 -0.2632 0.0000
-0.1579 -0.1579 0.0000
-0.1579 -0.0526 0.0000
-0.1579 0.0526 0.0000
-0.1579 0.1579 0.0000
-0.1579 0.2632 0.0000
-0.1579 0.3684 0.0000
-0.1579 0.4737 0.0000
-0.1579 0.5789 0.0000
-0.1579 0.6842 0.0000
-0.1579 0.7895 0.0000
-0.1579 0.8947 0.0000
-0.1579 1.0000 0.0000
-0.0526 -1.0000 0.0000
-0.0526 -0.8947 0.0000
-0.0526 -0.7895 0.0000
-0.0526 -0.6842 0.0000
-0.0526 -0.5789 0.0000
-0.0526 -0.4737 0.0000
-0.0526 -0.3684 0.0000
-0.0526 -0.2632 0.0000
-0.0526 -0.1579 0.0000
-0.0526 -0.0526 0.0000
-0.0526 0.0526 0.0000
-0.0526 0.1579 0.0000
-0.0526 0.2632 0.0000
-0.0526 0.3684 0.0000
-0.0526 0.4737 0.0000
-0.0526 0.5789 0.0000
-0.0526 0.6842 0.0000
-0.0526 0.7895 0.0000
-0.0526 0.8947 0.0000
-0.0526 1.0000 0.0000
0.0526 -1.0000 0.0000
0.0526 -0.8947 0.0000
0.0526 -0.7895 0.0000
0.0526 -0.6842 0.0000
0.0526 -0.5789 0.0000
0.0526 -0.4737 0.0000
0.0526 -0.3684 0.0000
0.0526 -0.2632 0.0000
0.0526 -0.1579 0.0000
0.0526 -0.0526 0.0000
0.0526 0.0526 0.0000
0.0526 0.1579 0.0000
0.0526 0.2632 0.0000
0.0526 0.3684 0.0000
0.0526 0.4737 0.0000
0.0526 0.5789 0.0000
0.0526 0.6842 0.0000
0.0526 0.7895 0.0000
0.0526 0.8947 0.0000
0.0526 1.0000 0.0000
0.1579 -1.0000 0.0000
0.1579 -0.8947 0.0000
0.1579 -0.7895 0.0000
0.1579 -0.6842 0.0000
0.1579 -0.5789 0.0000
0.1579 -0.4737 0.0000
0.1579 -0.3684 0.0000
0.1579 -0.2632 0.0000
0.1579 -0.1579 0.0000
0.1579 -0.0526 0.0000
0.1579 0.0526 0.0000
0.1579 0.1579 0.0000
0.1579 0.2632 0.0000
0.1579 0.3684 0.0000
0.1579 0.4737 0.0000
0.1579 0.5789 0.0000
0.1579 0.6842 0.0000
0.1579 0.7895 0.0000
0.1579 0.8947 0.0000
0.1579 1.0000 0.0000
0.2632 -1.0000 0.0000
0.2632 -0.8947 0.0000
0.2632 -0.7895 0.0000
0.2632 -0.6842 0.0000
0.2632 -0.5789 0.0000
0.2632 -0.4737 0.0000
0.2632 -0.3684 0.0000
0.2632 -0.2632 0.0000
0.2632 -0.1579 0.0000
0.2632 -0.0526 0.0000
0.2632 0.0526 0.0000
0.2632 0.1579 0.0000
0.2632 0.2632 0.0000
0.2632 0.3684 0.0000
0.2632 0.4737 0.0000
0.2632 0.5789 0.0000
0.2632 0.6842 0.0000
0.2632 0.7895 0.0000
0.2632 0.8947 0.0000
0.2632 1.0000 0.0000
0.3684 -1.0000 0.0000
0.3684 -0.8947 0.0000
0.3684 -0.7895 0.0000
0.3684 -0.6842 0.0000
0.3684 -0.5789 0.0000
0.3684 -0.4737 0.0000
0.3684 -0.3684 0.0000
0.3684 -0.2632 0.0000
0.3684 -0.1579 0.0000
0.3684 -0.0526 0.0000
0.3684 0.0526 0.0000
0.3684 0.1579 0.0000
0.3684 0.2632 0.0000
0.3684 0.3684 0.0000
0.3684 0.4737 0.0000
0.3684 0.5789 0.0000
0.3684 0.6842 0.0000
0.3684 0.7895 0.0000
0.3684 0.8947 0.0000
0.3684 1.0000 0.0000
0.4737 -1.0000 0.0000
0.4737 -0.8947 0.0000
0.4737 -0.7895 0.0000
0.4737 -0.6842 0.0000
0.4737 -0.5789 0.0000
0.4737 -0.4737 0.0000
0.4737 -0.3684 0.0000
0.4737 -0.2632 0.0000
0.4737 -0.1579 0.0000
0.4737 -0.0526 0.0000
0.4737 0.0526 0.0000
0.4737 0.1579 0.0000
0.4737 0.2632 0.0000
0.4737 0.3684 0.0000
0.4737 0.4737 0.0000
0.4737 0.5789 0.0000
0.4737 0.6842 0.0000
0.4737 0.7895 0.0000
0.4737 0.8947 0.0000
0.4737 1.0000 0.0000
0.5789 -1.0000 0.0000
0.5789 -0.8947 0.0000
0.5789 -0.7895 0.0000
0.5789 -0.6842 0.0000
0.5789 -0.5789 0.0000
0.5789 -0.4737 0.0000
0.5789 -0.3684 0.0000
0.5789 -0.2632 0.0000
0.5789 -0.1579 0.0000
0.5789 -0.0526 0.0000
0.5789 0.0526 0.0000
0.5789 0.1579 0.0000
0.5789 0.2632 0.0000
0.5789 0.3684 0.0000
0.5789 0.4737 0.0000
0.5789 0.5789 0.0000
0.5789 0.6842 0.0000
0.5789 0.7895 0.0000
0.5789 0.8947 0.0000
0.5789 1.0000 0.0000
0.6842 -1.0000 0.0000
0.6842 -0.8947 0.0000
0.6842 -0.7895 0.0000
0.6842 -0.6842 0.0000
0.6842 -0.5789 0.0000
0.6842 -0.4737 0.0000
0.6842 -0.3684 0.0000
0.6842 -0.2632 0.0000
0.6842 -0.1579 0.0000
0.6842 -0.0526 0.0000
0.6842 0.0526 0.0000
0.6842 0.1579 0.0000
0.6842 0.2632 0.0000
0.6842 0.3684 0.0000
0.6842 0.4737 0.0000
0.6842 0.5789 0.0000
0.6842 0.6842 0.0000
0.6842 0.7895 0.0000
0.6842 0.8947 0.0000
0.6842 1.0000 0.0000
0.7895 -1.0000 0.0000
0.7895 -0.8947 0.0000
0.7895 -0.7895 0.0000
0.7895 -0.6842 0.0000
0.7895 -0.5789 0.0000
0.7895 -0.4737 0.0000
0.7895 -0.3684 0.0000
0.7895 -0.2632 0.0000
0.7895 -0.1579 0.0000
0.7895 -0.0526 0.0000
0.7895 0.0526 0.0000
0.7895 0.1579 0.0000
0.7895 0.2632 0.0000
0.7895 0.3684 0.0000
0.7895 0.4737 0.0000
0.7895 0.5789 0.0000
0.7895 0.6842 0.0000
0.7895 0.7895 0.0000
0.7895 0.8947 0.0000
0.7895 1.0000 0.0000
0.8947 -1.0000 0.0000
0.8947 -0.8947 0.0000
0.8947 -0.7895 0.0000
0.8947 -0.6842 0.0000
0.8947 -0.5789 0.0000
0.8947 -0.4737 0.0000
0.8947 -0.3684 0.0000
0.8947 -0.2632 0.0000
0.8947 -0.1579 0.0000
0.8947 -0.0526 0.0000
0.8947 0.0526 0.0000
0.8947 0.1579 0.0000
0.8947 0.2632 0.0000
0.8947 0.3684 0.0000
0.8947 0.4737 0.0000
0.8947 0.5789 0.0000
0.8947 0.6842 0.0000
0.8947 0.7895 0.0000
0.8947 0.8947 0.0000
0.8947 1.0000 0.0000
1.0000 -1.0000 0.0000
1.0000 -0.8947 0.0000
1.0000 -0.7895 0.0000
1.0000 -0.6842 0.0000
1.0000 -0.5789 0.0000
1.0000 -0.4737 0.0000
1.0000 -0.3684 0.0000
1.0000 -0.2632 0.0000
1.0000 -0.1579 0.0000
1.0000 -0.0526 0.0000
1.0000 0.0526 0.0000
1.0000 0.1579 0.0000
1.0000 0.2632 0.0000
1.0000 0.3684 0.0000
1.0000 0.4737 0.0000
1.0000 0.5789 0.0000
1.0000 0.6842 0.0000
1.0000 0.7895 0.0000
1.0000 0.8947 0.0000
1.0000 1.0000 0.0000
-0.9474 -0.9474 0.0000
-0.9474 -0.8421 0.0000
-0.9474 -0.7368 0.0000
-0.9474 -0.6316 0.0000
-0.9474 -0.5263 0.0000
-0.9474 -0.4211 0.0000
-0.9474 -0.3158 0.0000
-0.9474 -0.2105 0.0000
-0.9474 -0.1053 0.0000
-0.9474 0.0000 0.0000
-0.9474 0.1053 0.0000
-0.9474 0.2105 0.0000
-0.9474 0.3158 0.0000
-0.9474 0.4211 0.0000
-0.9474 0.5263 0.0000
-0.9474 0.6316 0.0000
-0.9474 0.7368 0.0000
-0.9474 0.8421 0.0000
-0.9474 0.9474 0.0000
-0.8421 -0.9474 0.0000
-0.8421 -0.8421 0.0000
-0.8421 -0.7368 0.0000
-0.8421 -0.6316 0.0000
-0.8421 -0.5263 0.0000
-0.8421 -0.4211 0.0000
-0.8421 -0.3158 0.0000
-0.8421 -0.2105 0.0000
-0.8421 -0.1053 0.0000
-0.8421 0.0000 0.0000
-0.8421 0.1053 0.0000
-0.8421 0.2105 0.0000
-0.8421 0.3158 0.0000
-0.8421 0.4211 0.0000
-0.8421 0.5263 0.0000
-0.8421 0.6316 0.0000
-0.8421 0.7368 0.0000
-0.8421 0.8421 0.0000
-0.8421 0.9474 0.0000
-0.7368 -0.9474 0.0000
[...]
         <PointData>
            <DataArray Name="fValues" NumberOfComponents="3" format="ascii" type="Float64">
-1.15293e-14  1.64625e-15        00000 
 1.68882e-14  8.02953e-15        00000 
 4.14283e-15 -1.20832e-15        00000 
-3.39502e-15 -1.78730e-15        00000 
 6.90471e-15  6.90471e-16        00000 
 3.14478e-15 -1.13863e-16        00000 
 5.00591e-15 -6.04162e-16        00000 
-7.78728e-16  1.27597e-15        00000 
 2.07141e-15 -2.15772e-15        00000 
 3.25322e-17 -1.64288e-15        00000 
-1.55356e-15 -2.58927e-16        00000 
-1.04479e-15 -2.61198e-15        00000 
-5.52377e-15  8.63089e-17        00000 
-3.36166e-16 -1.51817e-16        00000 
-3.45235e-15 -3.02081e-16        00000 
 3.19738e-15 -8.22196e-17        00000 
-4.83330e-15 -4.31544e-16        00000 
 9.12602e-16  3.06373e-15        00000 
-8.70492e-15 -1.74098e-16        00000 
 2.77516e-14 -5.43692e-15        00000 
 1.07774e+02  6.56223e+01        00000 
 7.80709e+01  3.63339e+01        00000 
 6.58615e+01  2.11564e+01        00000 
 5.57333e+01  1.15153e+01        00000 
 4.65608e+01  4.75690e+00        00000 
 3.77841e+01 -1.33182e-01        00000 
 2.92229e+01 -3.66448e+00        00000 
 2.07909e+01 -6.12171e+00        00000 
 1.24415e+01 -7.67595e+00        00000 
 4.14059e+00 -8.42856e+00        00000 
-4.14386e+00 -8.42791e+00        00000 
-1.24442e+01 -7.67422e+00        00000 
-2.07925e+01 -6.11943e+00        00000 
-2.92233e+01 -3.66230e+00        00000 
-3.77836e+01 -1.31579e-01        00000 
-4.65597e+01  4.75769e+00        00000 
-5.57319e+01  1.15153e+01        00000 
-6.58598e+01  2.11558e+01        00000 
-7.80688e+01  3.63328e+01        00000 
-1.07771e+02  6.56203e+01        00000 
 1.99932e+02  1.04526e+02        00000 
 1.64454e+02  7.63445e+01        00000 
 1.37558e+02  5.26701e+01        00000 
 1.16039e+02  3.56547e+01        00000 
 9.65543e+01  2.31715e+01        00000 
 7.81282e+01  1.39333e+01        00000 
 6.02948e+01  7.17869e+00        00000 
 4.28299e+01  2.44308e+00        00000 
 2.56026e+01 -5.65510e-01        00000 
 8.51575e+00 -2.02564e+00        00000 
-8.52325e+00 -2.02453e+00        00000 
-2.56085e+01 -5.62584e-01        00000 
-4.28331e+01  2.44679e+00        00000 
-6.02953e+01  7.18203e+00        00000 
-7.81266e+01  1.39354e+01        00000 
-9.65515e+01  2.31721e+01        00000 
-1.16036e+02  3.56539e+01        00000 
-1.37554e+02  5.26682e+01        00000 
-1.64450e+02  7.63417e+01        00000 
-1.99927e+02  1.04522e+02        00000 
 2.89091e+02  1.43797e+02        00000 
 2.48734e+02  1.15168e+02        00000 
 2.11998e+02  8.98533e+01        00000 
 1.79212e+02  6.90336e+01        00000 
 1.49087e+02  5.27464e+01        00000 
 1.20509e+02  4.02509e+01        00000 
 9.28987e+01  3.09210e+01        00000 
 6.59227e+01  2.42999e+01        00000 
 3.93749e+01  2.00669e+01        00000 
 1.30900e+01  1.80073e+01        00000 
-1.31029e+01  1.80089e+01        00000 
-3.93846e+01  2.00709e+01        00000 
-6.59274e+01  2.43048e+01        00000 
-9.28986e+01  3.09249e+01        00000 
-1.20506e+02  4.02526e+01        00000 
-1.49082e+02  5.27458e+01        00000 
-1.79206e+02  6.90309e+01        00000 
-2.11992e+02  8.98493e+01        00000 
-2.48728e+02  1.15163e+02        00000 
-2.89084e+02  1.43791e+02        00000 
 3.78417e+02  1.87111e+02        00000 
 3.31667e+02  1.58450e+02        00000 
 2.86356e+02  1.32615e+02        00000 
 2.43556e+02  1.10367e+02        00000 
 2.03045e+02  9.20144e+01        00000 
 1.64226e+02  7.74271e+01        00000 
 1.26583e+02  6.62804e+01        00000 
 8.97794e+01  5.82616e+01        00000 
 5.35880e+01  5.31040e+01        00000 
 1.78053e+01  5.05927e+01        00000 
-1.78256e+01  5.05949e+01        00000 
-5.36025e+01  5.31096e+01        00000 
-8.97851e+01  5.82674e+01        00000 
-1.26581e+02  6.62841e+01        00000 
-1.64219e+02  7.74272e+01        00000 
-2.03037e+02  9.20114e+01        00000 
-2.43548e+02  1.10362e+02        00000 
-2.86348e+02  1.32608e+02        00000 
-3.31660e+02  1.58443e+02        00000 
-3.78408e+02  1.87103e+02        00000 
 4.68306e+02  2.37208e+02        00000 
 4.13969e+02  2.08472e+02        00000 
 3.60205e+02  1.82534e+02        00000 
 3.08002e+02  1.59758e+02        00000 
 2.57556e+02  1.40443e+02        00000 
 2.08634e+02  1.24669e+02        00000 
 1.60899e+02  1.12365e+02        00000 
 1.14087e+02  1.03402e+02        00000 
 6.80363e+01  9.76248e+01        00000 
 2.25841e+01  9.48268e+01        00000 
-2.26150e+01  9.48304e+01        00000 
-6.80566e+01  9.76320e+01        00000 
-1.14092e+02  1.03409e+02        00000 
-1.60893e+02  1.12367e+02        00000 
-2.08622e+02  1.24666e+02        00000 
-2.57543e+02  1.40436e+02        00000 
-3.07991e+02  1.59749e+02        00000 
-3.60196e+02  1.82525e+02        00000 
-4.13960e+02  2.08462e+02        00000 
-4.68297e+02  2.37198e+02        00000 
 5.58706e+02  2.95364e+02        00000 
 4.95993e+02  2.66578e+02        00000 
 4.33574e+02  2.40651e+02        00000 
 3.72182e+02  2.17732e+02        00000 
 3.12102e+02  1.98021e+02        00000 
 2.53286e+02  1.81643e+02        00000 
 1.95513e+02  1.68639e+02        00000 
 1.38584e+02  1.59051e+02        00000 
 8.24912e+01  1.52893e+02        00000 
 2.73120e+01  1.49988e+02        00000 
-2.73587e+01  1.49991e+02        00000 
-8.25193e+01  1.52905e+02        00000 
-1.38585e+02  1.59056e+02        00000 
-1.95497e+02  1.68637e+02        00000 
-2.53267e+02  1.81633e+02        00000 
-3.12086e+02  1.98009e+02        00000 
-3.72169e+02  2.17719e+02        00000 
-4.33564e+02  2.40639e+02        00000 
-4.95985e+02  2.66567e+02        00000 
-5.58698e+02  2.95353e+02        00000 
 6.49444e+02  3.62297e+02        00000 
 5.77868e+02  3.33492e+02        00000 
 5.06555e+02  3.07622e+02        00000 
 4.35997e+02  2.84725e+02        00000 
 3.66447e+02  2.64917e+02        00000 
 2.97921e+02  2.48294e+02        00000 
 2.30260e+02  2.34900e+02        00000 
 1.63174e+02  2.24777e+02        00000 
 9.67133e+01  2.18289e+02        00000 
 3.17268e+01  2.15465e+02        00000 
-3.17984e+01  2.15484e+02        00000 
-9.67493e+01  2.18287e+02        00000 
-1.63164e+02  2.24786e+02        00000 
-2.30225e+02  2.34882e+02        00000 
-2.97896e+02  2.48274e+02        00000 
-3.66429e+02  2.64900e+02        00000 
-4.35984e+02  2.84711e+02        00000 
-5.06545e+02  3.07609e+02        00000 
-5.77860e+02  3.33480e+02        00000 
-6.49437e+02  3.62286e+02        00000 
 7.40344e+02  4.38398e+02        00000 
 6.59613e+02  4.09607e+02        00000 
 5.79209e+02  3.83820e+02        00000 
 4.99437e+02  3.61026e+02        00000 
 4.20482e+02  3.41289e+02        00000 
 3.42377e+02  3.24671e+02        00000 
 2.65006e+02  3.11189e+02        00000 
 1.88085e+02  3.00755e+02        00000 
 1.10759e+02  2.93290e+02        00000 
 3.49776e+01  2.90414e+02        00000 
-3.50605e+01  2.90287e+02        00000 
-1.10860e+02  2.93366e+02        00000 
-1.87997e+02  3.00708e+02        00000 
-2.64965e+02  3.11147e+02        00000 
-3.42352e+02  3.24645e+02        00000 
-4.20465e+02  3.41271e+02        00000 
-4.99425e+02  3.61014e+02        00000 
-5.79199e+02  3.83810e+02        00000 
-6.59606e+02  4.09599e+02        00000 
-7.40340e+02  4.38390e+02        00000 
 8.31256e+02  5.23871e+02        00000 
 7.41205e+02  4.95123e+02        00000 
 6.51566e+02  4.69433e+02        00000 
 5.62510e+02  4.46781e+02        00000 
 4.74153e+02  4.27204e+02        00000 
 3.86525e+02  4.10761e+02        00000 
 2.99552e+02  3.97499e+02        00000 
 2.13016e+02  3.87405e+02        00000 
 1.26196e+02  3.80138e+02        00000 
 3.65498e+01  3.74146e+02        00000 
-3.63113e+01  3.74790e+02        00000 
-1.25848e+02  3.79950e+02        00000 
-2.12941e+02  3.87304e+02        00000 
-2.99520e+02  3.97465e+02        00000 
-3.86506e+02  4.10745e+02        00000 
-4.74140e+02  4.27195e+02        00000 
-5.62499e+02  4.46775e+02        00000 
-6.51557e+02  4.69429e+02        00000 
-7.41199e+02  4.95119e+02        00000 
-8.31253e+02  5.23867e+02        00000 
 9.22067e+02  6.18804e+02        00000 
 8.22611e+02  5.90121e+02        00000 
 7.23641e+02  5.64535e+02        00000 
 6.25235e+02  5.42030e+02        00000 
 5.27454e+02  5.22636e+02        00000 
 4.30303e+02  5.06416e+02        00000 
 3.33718e+02  4.93462e+02        00000 
 2.37555e+02  4.83910e+02        00000 
 1.41638e+02  4.77972e+02        00000 
 4.82199e+01  4.75537e+02        00000 
-4.83758e+01  4.75295e+02        00000 
-1.41212e+02  4.78089e+02        00000 
-2.37501e+02  4.83975e+02        00000 
-3.33688e+02  4.93480e+02        00000 
-4.30285e+02  5.06425e+02        00000 
-5.27440e+02  5.22640e+02        00000 
-6.25224e+02  5.42032e+02        00000 
-7.23632e+02  5.64537e+02        00000 
-8.22605e+02  5.90122e+02        00000 
-9.22064e+02  6.18806e+02        00000 
 1.01270e+03  7.23224e+02        00000 
 9.03802e+02  6.94618e+02        00000 
 7.95444e+02  6.69133e+02        00000 
 6.87644e+02  6.46759e+02        00000 
 5.80418e+02  6.27519e+02        00000 
 4.73748e+02  6.11463e+02        00000 
 3.67573e+02  5.98653e+02        00000 
 2.61800e+02  5.89132e+02        00000 
 1.56612e+02  5.82804e+02        00000 
 5.25915e+01  5.80067e+02        00000 
-5.26007e+01  5.80114e+02        00000 
-1.56750e+02  5.82771e+02        00000 
-2.61715e+02  5.89193e+02        00000 
-3.67539e+02  5.98692e+02        00000 
-4.73726e+02  6.11486e+02        00000 
-5.80403e+02  6.27534e+02        00000 
-6.87632e+02  6.46769e+02        00000 
-7.95434e+02  6.69141e+02        00000 
-9.03795e+02  6.94625e+02        00000 
-1.01269e+03  7.23230e+02        00000 
 1.10310e+03  8.37125e+02        00000 
 9.84759e+02  8.08603e+02        00000 
 8.66987e+02  7.83212e+02        00000 
 7.49774e+02  7.60947e+02        00000 
 6.33105e+02  7.41818e+02        00000 
 5.16949e+02  7.25852e+02        00000 
 4.01261e+02  7.13068e+02        00000 
 2.86027e+02  7.03452e+02        00000 
 1.71316e+02  6.97015e+02        00000 
 5.70923e+01  6.93831e+02        00000 
-5.71258e+01  6.93833e+02        00000 
-1.71363e+02  6.97022e+02        00000 
-2.86019e+02  7.03447e+02        00000 
-4.01228e+02  7.13089e+02        00000 
-5.16926e+02  7.25873e+02        00000 
-6.33087e+02  7.41835e+02        00000 
-7.49760e+02  7.60961e+02        00000 
-8.66976e+02  7.83224e+02        00000 
-9.84750e+02  8.08613e+02        00000 
-1.10309e+03  8.37135e+02        00000 
 1.19325e+03  9.60491e+02        00000 
 1.06547e+03  9.32055e+02        00000 
 9.38280e+02  9.06753e+02        00000 
 8.11653e+02  8.84578e+02        00000 
 6.85557e+02  8.65533e+02        00000 
 5.59958e+02  8.49625e+02        00000 
 4.34821e+02  8.36859e+02        00000 
 3.10126e+02  8.27237e+02        00000 
 1.85854e+02  8.20783e+02        00000 
 6.19080e+01  8.17546e+02        00000 
-6.19386e+01  8.17547e+02        00000 
-1.85879e+02  8.20780e+02        00000 
-3.10128e+02  8.27236e+02        00000 
-4.34806e+02  8.36864e+02        00000 
-5.59939e+02  8.49638e+02        00000 
-6.85541e+02  8.65547e+02        00000 
-8.11639e+02  8.84592e+02        00000 
-9.38268e+02  9.06766e+02        00000 
-1.06546e+03  9.32067e+02        00000 
-1.19324e+03  9.60502e+02        00000 
 1.28313e+03  1.09330e+03        00000 
 1.14592e+03  1.06495e+03        00000 
 1.00933e+03  1.03974e+03        00000 
 8.73298e+02  1.01764e+03        00000 
 7.37797e+02  9.98673e+02        00000 
 6.02784e+02  9.82823e+02        00000 
 4.68222e+02  9.70101e+02        00000 
 3.34069e+02  9.60517e+02        00000 
 2.00270e+02  9.54097e+02        00000 
 6.67190e+01  9.50875e+02        00000 
-6.67426e+01  9.50874e+02        00000 
-2.00287e+02  9.54095e+02        00000 
-3.34074e+02  9.60515e+02        00000 
-4.68215e+02  9.70103e+02        00000 
-6.02772e+02  9.82830e+02        00000 
-7.37783e+02  9.98683e+02        00000 
-8.73285e+02  1.01766e+03        00000 
-1.00932e+03  1.03975e+03        00000 
-1.14591e+03  1.06497e+03        00000 
-1.28312e+03  1.09331e+03        00000 
 1.37273e+03  1.23553e+03        00000 
 1.22612e+03  1.20728e+03        00000 
 1.08013e+03  1.18215e+03        00000 
 9.34716e+02  1.16014e+03        00000 
 7.89829e+02  1.14124e+03        00000 
 6.45423e+02  1.12545e+03        00000 
 5.01452e+02  1.11279e+03        00000 
 3.57861e+02  1.10326e+03        00000 
 2.14576e+02  1.09689e+03        00000 
 7.14948e+01  1.09370e+03        00000 
-7.15127e+01  1.09370e+03        00000 
-2.14589e+02  1.09689e+03        00000 
-3.57866e+02  1.10326e+03        00000 
-5.01450e+02  1.11279e+03        00000 
-6.45415e+02  1.12546e+03        00000 
-7.89818e+02  1.14124e+03        00000 
-9.34704e+02  1.16014e+03        00000 
-1.08012e+03  1.18216e+03        00000 
-1.22611e+03  1.20729e+03        00000 
-1.37271e+03  1.23554e+03        00000 
 1.46204e+03  1.38717e+03        00000 
 1.30605e+03  1.35901e+03        00000 
 1.15069e+03  1.33397e+03        00000 
 9.95905e+02  1.31204e+03        00000 
 8.41651e+02  1.29321e+03        00000 
 6.87873e+02  1.27750e+03        00000 
 5.34515e+02  1.26491e+03        00000 
 3.81512e+02  1.25544e+03        00000 
 2.28785e+02  1.24911e+03        00000 
 7.62359e+01  1.24595e+03        00000 
-7.62502e+01  1.24595e+03        00000 
-2.28796e+02  1.24911e+03        00000 
-3.81517e+02  1.25544e+03        00000 
-5.34515e+02  1.26491e+03        00000 
-6.87868e+02  1.27750e+03        00000 
-8.41643e+02  1.29322e+03        00000 
-9.95894e+02  1.31204e+03        00000 
-1.15067e+03  1.33397e+03        00000 
-1.30603e+03  1.35902e+03        00000 
-1.46203e+03  1.38718e+03        00000 
 1.55106e+03  1.54819e+03        00000 
 1.38570e+03  1.52012e+03        00000 
 1.22099e+03  1.49517e+03        00000 
 1.05686e+03  1.47332e+03        00000 
 8.93265e+02  1.45458e+03        00000 
 7.30135e+02  1.43894e+03        00000 
 5.67414e+02  1.42641e+03        00000 
 4.05032e+02  1.41700e+03        00000 
 2.42908e+02  1.41072e+03        00000 
 8.09465e+01  1.40758e+03        00000 
-8.09586e+01  1.40758e+03        00000 
-2.42918e+02  1.41072e+03        00000 
-4.05038e+02  1.41700e+03        00000 
-5.67415e+02  1.42641e+03        00000 
-7.30132e+02  1.43894e+03        00000 
-8.93258e+02  1.45458e+03        00000 
-1.05686e+03  1.47332e+03        00000 
-1.22098e+03  1.49517e+03        00000 
-1.38569e+03  1.52013e+03        00000 
-1.55104e+03  1.54819e+03        00000 
 1.63977e+03  1.71855e+03        00000 
 1.46509e+03  1.69059e+03        00000 
 1.29105e+03  1.66572e+03        00000 
 1.11759e+03  1.64396e+03        00000 
 9.44670e+02  1.62529e+03        00000 
 7.72213e+02  1.60973e+03        00000 
 6.00157e+02  1.59727e+03        00000 
 4.28431e+02  1.58792e+03        00000 
 2.56953e+02  1.58168e+03        00000 
 8.56295e+01  1.57856e+03        00000 
-8.56406e+01  1.57856e+03        00000 
-2.56962e+02  1.58168e+03        00000 
-4.28437e+02  1.58792e+03        00000 
-6.00159e+02  1.59727e+03        00000 
-7.72210e+02  1.60973e+03        00000 
-9.44664e+02  1.62530e+03        00000 
-1.11759e+03  1.64396e+03        00000 
-1.29104e+03  1.66572e+03        00000 
-1.46507e+03  1.69059e+03        00000 
-1.63976e+03  1.71856e+03        00000 
 1.72819e+03  1.89825e+03        00000 
 1.54419e+03  1.87038e+03        00000 
 1.36085e+03  1.84560e+03        00000 
 1.17809e+03  1.82392e+03        00000 
 9.95869e+02  1.80534e+03        00000 
 8.14109e+02  1.78985e+03        00000 
 6.32748e+02  1.77745e+03        00000 
 4.51713e+02  1.76816e+03        00000 
 2.70923e+02  1.76196e+03        00000 
 9.02866e+01  1.75887e+03        00000 
-9.02976e+01  1.75887e+03        00000 
-2.70933e+02  1.76196e+03        00000 
-4.51719e+02  1.76816e+03        00000 
-6.32750e+02  1.77745e+03        00000 
-8.14107e+02  1.78985e+03        00000 
-9.95863e+02  1.80534e+03        00000 
-1.17808e+03  1.82392e+03        00000 
-1.36084e+03  1.84560e+03        00000 
-1.54418e+03  1.87038e+03        00000 
-1.72817e+03  1.89825e+03        00000 
 4.28002e+01  2.17761e+01        00000 
 3.40859e+01  1.28464e+01        00000 
 2.91936e+01  6.90191e+00        00000 
 2.47287e+01  2.92148e+00        00000 
 2.04750e+01  5.88435e-02        00000 
 1.63103e+01 -2.01957e+00        00000 
 1.21963e+01 -3.50054e+00        00000 
 8.11383e+00 -4.49309e+00        00000 
 4.05145e+00 -5.06374e+00        00000 
-7.36223e-04 -5.24967e+00        00000 
-4.05279e+00 -5.06307e+00        00000 
-8.11481e+00 -4.49195e+00        00000 
-1.21968e+01 -3.49929e+00        00000 
-1.63104e+01 -2.01851e+00        00000 
-2.04747e+01  5.95212e-02        00000 
-2.47282e+01  2.92173e+00        00000 
-2.91929e+01  6.90178e+00        00000 
-3.40850e+01  1.28460e+01        00000 
-4.27991e+01  2.17755e+01        00000 
 1.37696e+02  6.99848e+01        00000 
 1.10424e+02  4.47903e+01        00000 
 9.28761e+01  2.88254e+01        00000 
 7.80063e+01  1.74856e+01        00000 
 6.42134e+01  9.22594e+00        00000 
 5.09546e+01  3.16957e+00        00000 
 3.79998e+01 -1.17023e+00        00000 
 2.52344e+01 -4.08976e+00        00000 
 1.25867e+01 -5.77216e+00        00000 
-2.63433e-03 -6.32098e+00        00000 
-1.25914e+01 -5.77043e+00        00000 
-2.52377e+01 -4.08690e+00        00000 
-3.80013e+01 -1.16715e+00        00000 
-5.09544e+01  3.17203e+00        00000 
-6.42119e+01  9.22730e+00        00000 
-7.80041e+01  1.74857e+01        00000 
-9.28736e+01  2.88245e+01        00000 
-1.10421e+02  4.47887e+01        00000 
-1.37693e+02  6.99824e+01        00000 
 2.25497e+02  1.09349e+02        00000 
 1.90481e+02  8.22790e+01        00000 
 1.60726e+02  6.03945e+01        00000 
 1.34748e+02  4.38215e+01        00000 
 1.10663e+02  3.12566e+01        00000 
 8.76359e+01  2.18488e+01        00000 
 6.52508e+01  1.50218e+01        00000 
 4.32794e+01  1.03960e+01        00000 
 2.15709e+01  7.72100e+00        00000 
-5.04781e-03  6.84726e+00        00000 
-2.15798e+01  7.72362e+00        00000 
-4.32853e+01  1.04002e+01        00000 
-6.52530e+01  1.50260e+01        00000 
-8.76348e+01  2.18517e+01        00000 
-1.10659e+02  3.12576e+01        00000 
-1.34743e+02  4.38206e+01        00000 
-1.60721e+02  6.03921e+01        00000 
-1.90476e+02  8.22756e+01        00000 
-2.25491e+02  1.09344e+02        00000 
 3.11973e+02  1.50332e+02        00000 
 2.69624e+02  1.22949e+02        00000 
 2.30102e+02  9.92155e+01        00000 
 1.93467e+02  7.97421e+01        00000 
 1.58955e+02  6.43295e+01        00000 
 1.25827e+02  5.24659e+01        00000 
 9.36213e+01  4.37123e+01        00000 
 6.20507e+01  3.77277e+01        00000 
 3.09081e+01  3.42555e+01        00000 
-8.23309e-03  3.31212e+01        00000 
-3.09223e+01  3.42592e+01        00000 
-6.20594e+01  3.77332e+01        00000 
-9.36235e+01  4.37172e+01        00000 
-1.25824e+02  5.24683e+01        00000 
-1.58949e+02  6.43290e+01        00000 
-1.93460e+02  7.97391e+01        00000 
-2.30095e+02  9.92107e+01        00000 
-2.69617e+02  1.22944e+02        00000 
-3.11966e+02  1.50326e+02        00000 
 3.98080e+02  1.96861e+02        00000 
 3.48036e+02  1.69461e+02        00000 
 2.99464e+02  1.45143e+02        00000 
 2.52920e+02  1.24404e+02        00000 
 2.08217e+02  1.07375e+02        00000 
 1.64941e+02  9.39239e+01        00000 
 1.22719e+02  8.38262e+01        00000 
 8.12951e+01  7.68658e+01        00000 
 4.04676e+01  7.28284e+01        00000 
-1.26229e-02  7.15151e+01        00000 
-4.04890e+01  7.28336e+01        00000 
-8.13066e+01  7.68730e+01        00000 
-1.22720e+02  8.38314e+01        00000 
-1.64934e+02  9.39246e+01        00000 
-2.08207e+02  1.07372e+02        00000 
-2.52909e+02  1.24398e+02        00000 
-2.99454e+02  1.45135e+02        00000 
-3.48028e+02  1.69453e+02        00000 
-3.98072e+02  1.96853e+02        00000 
 4.84237e+02  2.50858e+02        00000 
 4.25936e+02  2.23477e+02        00000 