<?xml version="1.0" encoding="utf-8"?>
<VTKFile byte_order="LittleEndian" type="UnstructuredGrid" version="0.1">
   <UnstructuredGrid>
      <Piece NumberOfCells="9608" NumberOfPoints="4912">
         <Points>
            <DataArray Name="Points" NumberOfComponents="3" format="ascii" type="Float32">
-1.0000 -0.9592 0.0000
-1.0000 -0.9184 0.0000
-1.0000 -0.8776 0.0000
-1.0000 -0.8367 0.0000
-1.0000 -0.7959 0.0000
-1.0000 -0.7551 0.0000
-1.0000 -0.7143 0.0000
-1.0000 -0.6735 0.0000
-1.0000 -0.6327 0.0000
-1.0000 -0.5918 0.0000
-1.0000 -0.5510 0.0000
-1.0000 -0.5102 0.0000
-1.0000 -0.4694 0.0000
-1.0000 -0.4286 0.0000
-1.0000 -0.3878 0.0000
-1.0000 -0.3469 0.0000
-1.0000 -0.3061 0.0000
-1.0000 -0.2653 0.0000
-1.0000 -0.2245 0.0000
-1.0000 -0.1837 0.0000
-1.0000 -0.1429 0.0000
-1.0000 -0.1020 0.0000
-1.0000 -0.0612 0.0000
-1.0000 -0.0204 0.0000
-1.0000 0.0204 0.0000
-1.0000 0.0612 0.0000
-1.0000 0.1020 0.0000
-1.0000 0.1429 0.0000
-1.0000 0.1837 0.0000
-1.0000 0.2245 0.0000
-1.0000 0.2653 0.0000
-1.0000 0.3061 0.0000
-1.0000 0.3469 0.0000
-1.0000 0.3878 0.0000
-1.0000 0.4286 0.0000
-1.0000 0.4694 0.0000
-1.0000 0.5102 0.0000
-1.0000 0.5510 0.0000
-1.0000 0.5918 0.0000
-1.0000 0.6327 0.0000
-1.0000 0.6735 0.0000
-1.0000 0.7143 0.0000
-1.0000 0.7551 0.0000
-1.0000 0.7959 0.0000
-1.0000 0.8367 0.0000
-1.0000 0.8776 0.0000
-1.0000 0.9184 0.0000
-1.0000 0.9592 0.0000
-1.0000 1.0000 0.0000
-0.9592 -0.9592 0.0000
-0.9592 -0.9184 0.0000
-0.9592 -0.8776 0.0000
-0.9592 -0.8367 0.0000
-0.9592 -0.7959 0.0000
-0.9592 -0.7551 0.0000
-0.9592 -0.7143 0.0000
-0.9592 -0.6735 0.0000
-0.9592 -0.6327 0.0000
-0.9592 -0.5918 0.0000
-0.9592 -0.5510 0.0000
-0.9592 -0.5102 0.0000
-0.9592 -0.4694 0.0000
-0.9592 -0.4286 0.0000
-0.9592 -0.3878 0.0000
-0.9592 -0.3469 0.0000
-0.9592 -0.3061 0.0000
-0.9592 -0.2653 0.0000
-0.9592 -0.2245 0.0000
-0.9592 -0.1837 0.0000
-0.9592 -0.1429 0.0000
-0.9592 -0.1020 0.0000
-0.9592 -0.0612 0.0000
-0.9592 -0.0204 0.0000
-0.9592 0.0204 0.0000
-0.9592 0.0612 0.0000
-0.9592 0.1020 0.0000
-0.9592 0.1429 0.0000
-0.9592 0.1837 0.0000
-0.9592 0.2245 0.0000
-0.9592 0.2653 0.0000
-0.9592 0.3061 0.0000
-0.9592 0.3469 0.0000
-0.9592 0.3878 0.0000
-0.9592 0.4286 0.0000
-0.9592 0.4694 0.0000
-0.9592 0.5102 0.0000
-0.9592 0.5510 0.0000
-0.9592 0.5918 0.0000
-0.9592 0.6327 0.0000
-0.9592 0.6735 0.0000
-0.9592 0.7143 0.0000
-0.9592 0.7551 0.0000
-0.9592 0.7959 0.0000
-0.9592 0.8367 0.0000
-0.9592 0.8776 0.0000
-0.9592 0.9184 0.0000
-0.9592 0.9592 0.0000
-0.9592 1.0000 0.0000
-0.9184 -0.9592 0.0000
-0.9184 -0.9184 0.0000
-0.9184 -0.8776 0.0000
-0.9184 -0.8367 0.0000
-0.9184 -0.7959 0.0000
-0.9184 -0.7551 0.0000
-0.9184 -0.7143 0.0000
-0.9184 -0.6735 0.0000
-0.9184 -0.6327 0.0000
-0.9184 -0.5918 0.0000
-0.9184 -0.5510 0.0000
-0.9184 -0.5102 0.0000
-0.9184 -0.4694 0.0000
-0.9184 -0.4286 0.0000
-0.9184 -0.3878 0.0000
-0.9184 -0.3469 0.0000
-0.9184 -0.3061 0.0000
-0.9184 -0.2653 0.0000
-0.9184 -0.2245 0.0000
-0.9184 -0.1837 0.0000
-0.9184 -0.1429 0.0000
-0.9184 -0.1020 0.0000
-0.9184 -0.0612 0.0000
-0.9184 -0.0204 0.0000
-0.9184 0.0204 0.0000
-0.9184 0.0612 0.0000
-0.9184 0.1020 0.0000
-0.9184 0.1429 0.0000
-0.9184 0.1837 0.0000
-0.9184 0.2245 0.0000
-0.9184 0.2653 0.0000
-0.9184 0.3061 0.0000
-0.9184 0.3469 0.0000
-0.9184 0.3878 0.0000
-0.9184 0.4286 0.0000
-0.9184 0.4694 0.0000
-0.9184 0.5102 0.0000
-0.9184 0.5510 0.0000
-0.9184 0.5918 0.0000
-0.9184 0.6327 0.0000
-0.9184 0.6735 0.0000
-0.9184 0.7143 0.0000
-0.9184 0.7551 0.0000
-0.9184 0.7959 0.0000
-0.9184 0.8367 0.0000
-0.9184 0.8776 0.0000
-0.9184 0.9184 0.0000
-0.9184 0.9592 0.0000
-0.9184 1.0000 0.0000
-0.8776 -0.9592 0.0000
-0.8776 -0.9184 0.0000
-0.8776 -0.8776 0.0000
-0.8776 -0.8367 0.0000
-0.8776 -0.7959 0.0000
-0.8776 -0.7551 0.0000
-0.8776 -0.7143 0.0000
-0.8776 -0.6735 0.0000
-0.8776 -0.6327 0.0000
-0.8776 -0.5918 0.0000
-0.8776 -0.5510 0.0000
-0.8776 -0.5102 0.0000
-0.8776 -0.4694 0.0000
-0.8776 -0.4286 0.0000
-0.8776 -0.3878 0.0000
-0.8776 -0.3469 0.0000
-0.8776 -0.3061 0.0000
-0.8776 -0.2653 0.0000
-0.8776 -0.2245 0.0000
-0.8776 -0.1837 0.0000
-0.8776 -0.1429 0.0000
-0.8776 -0.1020 0.0000
-0.8776 -0.0612 0.0000
-0.8776 -0.0204 0.0000
-0.8776 0.0204 0.0000
-0.8776 0.0612 0.0000
-0.8776 0.1020 0.0000
-0.8776 0.1429 0.0000
-0.8776 0.1837 0.0000
-0.8776 0.2245 0.0000
-0.8776 0.2653 0.0000
-0.8776 0.3061 0.0000
-0.8776 0.3469 0.0000
-0.8776 0.3878 0.0000
-0.8776 0.4286 0.0000
-0.8776 0.4694 0.0000
-0.8776 0.5102 0.0000
-0.8776 0.5510 0.0000
-0.8776 0.5918 0.0000
-0.8776 0.6327 0.0000
-0.8776 0.6735 0.0000
-0.8776 0.7143 0.0000
-0.8776 0.7551 0.0000
-0.8776 0.7959 0.0000
-0.8776 0.8367 0.0000
-0.8776 0.8776 0.0000
-0.8776 0.9184 0.0000
-0.8776 0.9592 0.0000
-0.8776 1.0000 0.0000
-0.8367 -0.9592 0.0000
-0.8367 -0.9184 0.0000
-0.8367 -0.8776 0.0000
-0.8367 -0.8367 0.0000
-0.8367 -0.7959 0.0000
-0.8367 -0.7551 0.0000
-0.8367 -0.7143 0.0000
-0.8367 -0.6735 0.0000
-0.8367 -0.6327 0.0000
-0.8367 -0.5918 0.0000
-0.8367 -0.5510 0.0000
-0.8367 -0.5102 0.0000
-0.8367 -0.4694 0.0000
-0.8367 -0.4286 0.0000
-0.8367 -0.3878 0.0000
-0.8367 -0.3469 0.0000
-0.8367 -0.3061 0.0000
-0.8367 -0.2653 0.0000
-0.8367 -0.2245 0.0000
-0.8367 -0.1837 0.0000
-0.8367 -0.1429 0.0000
-0.8367 -0.1020 0.0000
-0.8367 -0.0612 0.0000
-0.8367 -0.0204 0.0000
-0.8367 0.0204 0.0000
-0.8367 0.0612 0.0000
-0.8367 0.1020 0.0000
-0.8367 0.1429 0.0000
-0.8367 0.1837 0.0000
-0.8367 0.2245 0.0000
-0.8367 0.2653 0.0000
-0.8367 0.3061 0.0000
-0.8367 0.3469 0.0000
-0.8367 0.3878 0.0000
-0.8367 0.4286 0.0000
-0.8367 0.4694 0.0000
-0.8367 0.5102 0.0000
-0.8367 0.5510 0.0000
-0.8367 0.5918 0.0000
-0.8367 0.6327 0.0000
-0.8367 0.6735 0.0000
-0.8367 0.7143 0.0000
-0.8367 0.7551 0.0000
-0.8367 0.7959 0.0000
-0.8367 0.8367 0.0000
-0.8367 0.8776 0.0000
-0.8367 0.9184 0.0000
-0.8367 0.9592 0.0000
-0.8367 1.0000 0.0000
-0.7959 -0.9592 0.0000
-0.7959 -0.9184 0.0000
-0.7959 -0.8776 0.0000
-0.7959 -0.8367 0.0000
-0.7959 -0.7959 0.0000
-0.7959 -0.7551 0.0000
-0.7959 -0.7143 0.0000
-0.7959 -0.6735 0.0000
-0.7959 -0.6327 0.0000
-0.7959 -0.5918 0.0000
-0.7959 -0.5510 0.0000
-0.7959 -0.5102 0.0000
-0.7959 -0.4694 0.0000
-0.7959 -0.4286 0.0000
-0.7959 -0.3878 0.0000
-0.7959 -0.3469 0.0000
-0.7959 -0.3061 0.0000
-0.7959 -0.2653 0.0000
-0.7959 -0.2245 0.0000
-0.7959 -0.1837 0.0000
-0.7959 -0.1429 0.0000
-0.7959 -0.1020 0.0000
-0.7959 -0.0612 0.0000
-0.7959 -0.0204 0.0000
-0.7959 0.0204 0.0000
-0.7959 0.0612 0.0000
-0.7959 0.1020 0.0000
-0.7959 0.1429 0.0000
-0.7959 0.1837 0.0000
-0.7959 0.2245 0.0000
-0.7959 0.2653 0.0000
-0.7959 0.3061 0.0000
-0.7959 0.3469 0.0000
-0.7959 0.3878 0.0000
-0.7959 0.4286 0.0000
-0.7959 0.4694 0.0000
-0.7959 0.5102 0.0000
-0.7959 0.5510 0.0000
-0.7959 0.5918 0.0000
-0.7959 0.6327 0.0000
-0.7959 0.6735 0.0000
-0.7959 0.7143 0.0000
-0.7959 0.7551 0.0000
-0.7959 0.7959 0.0000
-0.7959 0.8367 0.0000
-0.7959 0.8776 0.0000
-0.7959 0.9184 0.0000
-0.7959 0.9592 0.0000
-0.7959 1.0000 0.0000
-0.7551 -0.9592 0.0000
-0.7551 -0.9184 0.0000
-0.7551 -0.8776 0.0000
-0.7551 -0.8367 0.0000
-0.7551 -0.7959 0.0000
-0.7551 -0.7551 0.0000
-0.7551 -0.7143 0.0000
-0.7551 -0.6735 0.0000
-0.7551 -0.6327 0.0000
-0.7551 -0.5918 0.0000
-0.7551 -0.5510 0.0000
-0.7551 -0.5102 0.0000
-0.7551 -0.4694 0.0000
-0.7551 -0.4286 0.0000
-0.7551 -0.3878 0.0000
-0.7551 -0.3469 0.0000
-0.7551 -0.3061 0.0000
-0.7551 -0.2653 0.0000
-0.7551 -0.2245 0.0000
-0.7551 -0.1837 0.0000
-0.7551 -0.1429 0.0000
-0.7551 -0.1020 0.0000
-0.7551 -0.0612 0.0000
-0.7551 -0.0204 0.0000
-0.7551 0.0204 0.0000
-0.7551 0.0612 0.0000
-0.7551 0.1020 0.0000
-0.7551 0.1429 0.0000
-0.7551 0.1837 0.0000
-0.7551 0.2245 0.0000
-0.7551 0.2653 0.0000
-0.7551 0.3061 0.0000
-0.7551 0.3469 0.0000
-0.7551 0.3878 0.0000
-0.7551 0.4286 0.0000
-0.7551 0.4694 0.0000
-0.7551 0.5102 0.0000
-0.7551 0.5510 0.0000
-0.7551 0.5918 0.0000
-0.7551 0.6327 0.0000
-0.7551 0.6735 0.0000
-0.7551 0.7143 0.0000
-0.7551 0.7551 0.0000
-0.7551 0.7959 0.0000
-0.7551 0.8367 0.0000
-0.7551 0.8776 0.0000
-0.7551 0.9184 0.0000
-0.7551 0.9592 0.0000
-0.7551 1.0000 0.0000
-0.7143 -0.9592 0.0000
-0.7143 -0.9184 0.0000
-0.7143 -0.8776 0.0000
-0.7143 -0.8367 0.0000
-0.7143 -0.7959 0.0000
-0.7143 -0.7551 0.0000
-0.7143 -0.7143 0.0000
-0.7143 -0.6735 0.0000
-0.7143 -0.6327 0.0000
-0.7143 -0.5918 0.0000
-0.7143 -0.5510 0.0000
-0.7143 -0.5102 0.0000
-0.7143 -0.4694 0.0000
-0.7143 -0.4286 0.0000
-0.7143 -0.3878 0.0000
-0.7143 -0.3469 0.0000
-0.7143 -0.3061 0.0000
-0.7143 -0.2653 0.0000
-0.7143 -0.2245 0.0000
-0.7143 -0.1837 0.0000
-0.7143 -0.1429 0.0000
-0.7143 -0.1020 0.0000
-0.7143 -0.0612 0.0000
-0.7143 -0.0204 0.0000
-0.7143 0.0204 0.0000
-0.7143 0.0612 0.0000
-0.7143 0.1020 0.0000
-0.7143 0.1429 0.0000
-0.7143 0.1837 0.0000
-0.7143 0.2245 0.0000
-0.7143 0.2653 0.0000
-0.7143 0.3061 0.0000
-0.7143 0.3469 0.0000
-0.7143 0.3878 0.0000
-0.7143 0.4286 0.0000
-0.7143 0.4694 0.0000
-0.7143 0.5102 0.0000
-0.7143 0.5510 0.0000
-0.7143 0.5918 0.0000
-0.7143 0.6327 0.0000
-0.7143 0.6735 0.0000
-0.7143 0.7143 0.0000
-0.7143 0.7551 0.0000
-0.7143 0.7959 0.0000
-0.7143 0.8367 0.0000
-0.7143 0.8776 0.0000
-0.7143 0.9184 0.0000
-0.7143 0.9592 0.0000
-0.7143 1.0000 0.0000
-0.6735 -0.9592 0.0000
-0.6735 -0.9184 0.0000
-0.6735 -0.8776 0.0000
-0.6735 -0.8367 0.0000
-0.6735 -0.7959 0.0000
-0.6735 -0.7551 0.0000
-0.6735 -0.7143 0.0000
-0.6735 -0.6735 0.0000
-0.6735 -0.6327 0.0000
-0.6735 -0.5918 0.0000
-0.6735 -0.5510 0.0000
-0.6735 -0.5102 0.0000
-0.6735 -0.4694 0.0000
-0.6735 -0.4286 0.0000
-0.6735 -0.3878 0.0000
-0.6735 -0.3469 0.0000
-0.6735 -0.3061 0.0000
-0.6735 -0.2653 0.0000
-0.6735 -0.2245 0.0000
-0.6735 -0.1837 0.0000
-0.6735 -0.1429 0.0000
-0.6735 -0.1020 0.0000
-0.6735 -0.0612 0.0000
-0.6735 -0.0204 0.0000
-0.6735 0.0204 0.0000
-0.6735 0.0612 0.0000
-0.6735 0.1020 0.0000
-0.6735 0.1429 0.0000
-0.6735 0.1837 0.0000
-0.6735 0.2245 0.0000
-0.6735 0.2653 0.0000
-0.6735 0.3061 0.0000
-0.6735 0.3469 0.0000
-0.6735 0.3878 0.0000
-0.6735 0.4286 0.0000
-0.6735 0.4694 0.0000
-0.6735 0.5102 0.0000
-0.6735 0.5510 0.0000
-0.6735 0.5918 0.0000
[...]
         <PointData>
            <DataArray Name="fValues" NumberOfComponents="3" format="ascii" type="Float64">
 1.73443e-19 -4.80832e-20        00000 
-2.17369e-19  2.71711e-20        00000 
-1.09638e-19 -4.38553e-19        00000 
-1.08685e-19  1.63027e-19        00000 
-2.15073e-19 -1.34165e-18        00000 
-9.23819e-19 -1.08685e-19        00000 
 2.74095e-20 -1.78162e-19        00000 
-3.26054e-19 -5.97765e-19        00000 
 6.82771e-20  9.83190e-19        00000 
-5.43423e-20 -1.52158e-18        00000 
 3.10873e-19  5.67516e-19        00000 
 2.71711e-19 -1.14119e-18        00000 
 8.39809e-19  9.28569e-19        00000 
-1.30422e-18  5.43423e-19        00000 
 3.06987e-18  4.38552e-19        00000 
-2.28238e-18 -2.17369e-19        00000 
 2.93592e-19        00000        00000 
 5.43423e-19 -3.26054e-19        00000 
 6.93589e-19 -3.64247e-19        00000 
 5.43423e-19 -2.17369e-19        00000 
-4.98423e-19  1.11974e-18        00000 
-1.63027e-18  1.08685e-19        00000 
 2.85444e-18  3.86932e-19        00000 
-7.60792e-19 -2.71711e-18        00000 
-1.50210e-19  2.32142e-18        00000 
-4.34738e-19 -1.08685e-19        00000 
-7.73248e-19 -1.06662e-18        00000 
 9.78161e-19  5.43423e-19        00000 
 1.05147e-18  8.46636e-19        00000 
-5.43423e-19 -5.43423e-19        00000 
 1.43750e-18  3.49324e-18        00000 
-1.30422e-18 -5.43423e-19        00000 
 1.47479e-18 -2.86764e-19        00000 
-1.30422e-18  1.08685e-19        00000 
 4.01335e-18  8.72822e-19        00000 
-1.08685e-18  4.34738e-19        00000 
 1.44747e-18  3.68696e-19        00000 
-3.47791e-18 -6.52108e-19        00000 
 3.17951e-18  1.46641e-18        00000 
-1.95632e-18 -1.08685e-18        00000 
-7.78359e-19  2.32142e-19        00000 
-4.13001e-18 -7.06450e-19        00000 
 3.59150e-18  7.47552e-19        00000 
 4.34738e-19 -9.78161e-19        00000 
-3.48213e-18  4.50629e-19        00000 
-1.73895e-18  2.44540e-19        00000 
 3.07009e-18        00000        00000 
-1.14002e-17 -1.37021e-19        00000 
 2.52791e-17  7.89641e-20        00000 
 1.45289e-03  1.46182e-03        00000 
 2.20161e-03  2.36931e-03        00000 
 2.77571e-03  3.05008e-03        00000 
 3.25830e-03  3.60923e-03        00000 
 3.68867e-03  4.08957e-03        00000 
 4.08527e-03  4.51302e-03        00000 
 4.45870e-03  4.89221e-03        00000 
 4.81550e-03  5.23516e-03        00000 
 5.16005e-03  5.54729e-03        00000 
 5.49539e-03  5.83244e-03        00000 
 5.82377e-03  6.09348e-03        00000 
 6.14688e-03  6.33257e-03        00000 
 6.46606e-03  6.55142e-03        00000 
 6.78237e-03  6.75132e-03        00000 
 7.09673e-03  6.93331e-03        00000 
 7.40989e-03  7.09813e-03        00000 
 7.72252e-03  7.24630e-03        00000 
 8.03519e-03  7.37816e-03        00000 
 8.34837e-03  7.49380e-03        00000 
 8.66248e-03  7.59319e-03        00000 
 8.97781e-03  7.67609e-03        00000 
 9.29457e-03  7.74219e-03        00000 
 9.61287e-03  7.79105e-03        00000 
 9.93271e-03  7.82221e-03        00000 
 1.02540e-02  7.83518e-03        00000 
 1.05766e-02  7.82953e-03        00000 
 1.09003e-02  7.80487e-03        00000 
 1.12249e-02  7.76089e-03        00000 
 1.15501e-02  7.69739e-03        00000 
 1.18757e-02  7.61421e-03        00000 
 1.22016e-02  7.51128e-03        00000 
 1.25278e-02  7.38853e-03        00000 
 1.28542e-02  7.24590e-03        00000 
 1.31812e-02  7.08327e-03        00000 
 1.35089e-02  6.90040e-03        00000 
 1.38379e-02  6.69692e-03        00000 
 1.41690e-02  6.47220e-03        00000 
 1.45031e-02  6.22537e-03        00000 
 1.48413e-02  5.95514e-03        00000 
 1.51855e-02  5.65972e-03        00000 
 1.55379e-02  5.33658e-03        00000 
 1.59015e-02  4.98217e-03        00000 
 1.62809e-02  4.59129e-03        00000 
 1.66828e-02  4.15612e-03        00000 
 1.71179e-02  3.66412e-03        00000 
 1.76051e-02  3.09333e-03        00000 
 1.81843e-02  2.40068e-03        00000 
 1.89398e-02  1.48002e-03        00000 
 2.04082e-02 -3.22612e-19        00000 
 2.34204e-03  2.19981e-03        00000 
 3.94579e-03  3.95323e-03        00000 
 5.16051e-03  5.34336e-03        00000 
 6.17879e-03  6.49847e-03        00000 
 7.07949e-03  7.49107e-03        00000 
 7.90435e-03  8.36344e-03        00000 
 8.67716e-03  9.14174e-03        00000 
 9.41277e-03  9.84309e-03        00000 
 1.01210e-02  1.04793e-02        00000 
 1.08087e-02  1.10587e-02        00000 
 1.14809e-02  1.15877e-02        00000 
 1.21412e-02  1.20709e-02        00000 
 1.27927e-02  1.25122e-02        00000 
 1.34376e-02  1.29144e-02        00000 
 1.40781e-02  1.32796e-02        00000 
 1.47157e-02  1.36097e-02        00000 
 1.53519e-02  1.39057e-02        00000 
 1.59881e-02  1.41686e-02        00000 
 1.66253e-02  1.43985e-02        00000 
 1.72644e-02  1.45955e-02        00000 
 1.79061e-02  1.47594e-02        00000 
 1.85509e-02  1.48896e-02        00000 
 1.91991e-02  1.49852e-02        00000 
 1.98508e-02  1.50456e-02        00000 
 2.05056e-02  1.50698e-02        00000 
 2.11634e-02  1.50569e-02        00000 
 2.18236e-02  1.50064e-02        00000 
 2.24857e-02  1.49175e-02        00000 
 2.31491e-02  1.47897e-02        00000 
 2.38135e-02  1.46229e-02        00000 
 2.44785e-02  1.44167e-02        00000 
 2.51440e-02  1.41709e-02        00000 
 2.58102e-02  1.38853e-02        00000 
 2.64774e-02  1.35594e-02        00000 
 2.71465e-02  1.31925e-02        00000 
 2.78186e-02  1.27838e-02        00000 
 2.84952e-02  1.23316e-02        00000 
 2.91785e-02  1.18340e-02        00000 
 2.98712e-02  1.12879e-02        00000 
 3.05772e-02  1.06892e-02        00000 
 3.13014e-02  1.00324e-02        00000 
 3.20509e-02  9.30943e-03        00000 
 3.28357e-02  8.50898e-03        00000 
 3.36710e-02  7.61419e-03        00000 
 3.45812e-02  6.59904e-03        00000 
 3.56086e-02  5.42110e-03        00000 
 3.68335e-02  4.00737e-03        00000 
 3.84513e-02  2.22832e-03        00000 
 4.08163e-02  4.37203e-19        00000 
 3.00234e-03  2.74165e-03        00000 
 5.32594e-03  5.10187e-03        00000 
 7.19360e-03  7.10774e-03        00000 
 8.77596e-03  8.82481e-03        00000 
 1.01776e-02  1.03196e-02        00000 
 1.14584e-02  1.16402e-02        00000 
 1.26550e-02  1.28204e-02        00000 
 1.37910e-02  1.38838e-02        00000 
 1.48820e-02  1.48476e-02        00000 
 1.59393e-02  1.57243e-02        00000 
 1.69708e-02  1.65234e-02        00000 
 1.79828e-02  1.72523e-02        00000 
 1.89799e-02  1.79169e-02        00000 
 1.99660e-02  1.85215e-02        00000 
 2.09444e-02  1.90697e-02        00000 
 2.19179e-02  1.95642e-02        00000 
 2.28889e-02  2.00070e-02        00000 
 2.38594e-02  2.03994e-02        00000 
 2.48314e-02  2.07420e-02        00000 
 2.58063e-02  2.10351e-02        00000 
 2.67855e-02  2.12783e-02        00000 
 2.77697e-02  2.14709e-02        00000 
 2.87594e-02  2.16118e-02        00000 
 2.97547e-02  2.17000e-02        00000 
 3.07553e-02  2.17342e-02        00000 
 3.17607e-02  2.17132e-02        00000 
 3.27700e-02  2.16360e-02        00000 
 3.37825e-02  2.15016e-02        00000 
 3.47972e-02  2.13093e-02        00000 
 3.58134e-02  2.10587e-02        00000 
 3.68306e-02  2.07492e-02        00000 
 3.78487e-02  2.03805e-02        00000 
 3.88678e-02  1.99521e-02        00000 
 3.98888e-02  1.94631e-02        00000 
 4.09129e-02  1.89123e-02        00000 
 4.19420e-02  1.82982e-02        00000 
 4.29787e-02  1.76181e-02        00000 
 4.40265e-02  1.68687e-02        00000 
 4.50900e-02  1.60453e-02        00000 
 4.61754e-02  1.51414e-02        00000 
 4.72909e-02  1.41484e-02        00000 
 4.84480e-02  1.30543e-02        00000 
 4.96627e-02  1.18425e-02        00000 
 5.09592e-02  1.04898e-02        00000 
 5.23749e-02  8.96266e-03        00000 
 5.39708e-02  7.21273e-03        00000 
 5.58532e-02  5.17318e-03        00000 
 5.81956e-02  2.77797e-03        00000 
 6.12245e-02 -3.10851e-19        00000 
 3.54407e-03  3.17145e-03        00000 
 6.47806e-03  6.01071e-03        00000 
 8.94987e-03  8.51928e-03        00000 
 1.10933e-02  1.07302e-02        00000 
 1.30083e-02  1.26880e-02        00000 
 1.47629e-02  1.44345e-02        00000 
 1.64021e-02  1.60034e-02        00000 
 1.79567e-02  1.74210e-02        00000 
 1.94477e-02  1.87072e-02        00000 
 2.08906e-02  1.98775e-02        00000 
 2.22964e-02  2.09440e-02        00000 
 2.36739e-02  2.19162e-02        00000 
 2.50297e-02  2.28017e-02        00000 
 2.63694e-02  2.36065e-02        00000 
 2.76975e-02  2.43355e-02        00000 
 2.90181e-02  2.49922e-02        00000 
 3.03346e-02  2.55796e-02        00000 
 3.16502e-02  2.60995e-02        00000 
 3.29675e-02  2.65529e-02        00000 
 3.42890e-02  2.69402e-02        00000 
 3.56164e-02  2.72611e-02        00000 
 3.69510e-02  2.75147e-02        00000 
 3.82936e-02  2.76999e-02        00000 
 3.96443e-02  2.78150e-02        00000 
 4.10028e-02  2.78585e-02        00000 
 4.23683e-02  2.78288e-02        00000 
 4.37395e-02  2.77245e-02        00000 
 4.51152e-02  2.75445e-02        00000 
 4.64941e-02  2.72878e-02        00000 
 4.78752e-02  2.69537e-02        00000 
 4.92576e-02  2.65415e-02        00000 
 5.06412e-02  2.60508e-02        00000 
 5.20264e-02  2.54806e-02        00000 
 5.34142e-02  2.48298e-02        00000 
 5.48067e-02  2.40968e-02        00000 
 5.62064e-02  2.32791e-02        00000 
 5.76174e-02  2.23733e-02        00000 
 5.90445e-02  2.13748e-02        00000 
 6.04943e-02  2.02772e-02        00000 
 6.19756e-02  1.90723e-02        00000 
 6.34998e-02  1.77490e-02        00000 
 6.50827e-02  1.62926e-02        00000 
 6.67461e-02  1.46838e-02        00000 
 6.85215e-02  1.28968e-02        00000 
 7.04549e-02  1.08980e-02        00000 
 7.26156e-02  8.64570e-03        00000 
 7.51056e-02  6.09533e-03        00000 
 7.80610e-02  3.21380e-03        00000 
 8.16327e-02  5.47948e-19        00000 
 4.01361e-03  3.52977e-03        00000 
 7.48053e-03  6.76177e-03        00000 
 1.05033e-02  9.68783e-03        00000 
 1.31838e-02  1.23222e-02        00000 
 1.56084e-02  1.46923e-02        00000 
 1.78432e-02  1.68294e-02        00000 
 1.99364e-02  1.87627e-02        00000 
 2.19228e-02  2.05170e-02        00000 
 2.38279e-02  2.21130e-02        00000 
 2.56701e-02  2.35674e-02        00000 
 2.74637e-02  2.48937e-02        00000 
 2.92196e-02  2.61029e-02        00000 
 3.09464e-02  2.72040e-02        00000 
 3.26512e-02  2.82043e-02        00000 
 3.43402e-02  2.91098e-02        00000 
 3.60186e-02  2.99251e-02        00000 
 3.76910e-02  3.06536e-02        00000 
 3.93619e-02  3.12980e-02        00000 
 4.10348e-02  3.18597e-02        00000 
 4.27129e-02  3.23391e-02        00000 
 4.43990e-02  3.27361e-02        00000 
 4.60949e-02  3.30496e-02        00000 
 4.78016e-02  3.32780e-02        00000 
 4.95194e-02  3.34195e-02        00000 
 5.12479e-02  3.34720e-02        00000 
 5.29858e-02  3.34335e-02        00000 
 5.47316e-02  3.33024e-02        00000 
 5.64835e-02  3.30770e-02        00000 
 5.82395e-02  3.27564e-02        00000 
 5.99982e-02  3.23396e-02        00000 
 6.17586e-02  3.18260e-02        00000 
 6.35205e-02  3.12147e-02        00000 
 6.52844e-02  3.05048e-02        00000 
 6.70518e-02  2.96949e-02        00000 
 6.88254e-02  2.87829e-02        00000 
 7.06088e-02  2.77657e-02        00000 
 7.24071e-02  2.66391e-02        00000 
 7.42269e-02  2.53976e-02        00000 
 7.60768e-02  2.40338e-02        00000 
 7.79679e-02  2.25379e-02        00000 
 7.99148e-02  2.08976e-02        00000 
 8.19368e-02  1.90971e-02        00000 
 8.40601e-02  1.71166e-02        00000 
 8.63204e-02  1.49316e-02        00000 
 8.87673e-02  1.25134e-02        00000 
 9.14682e-02  9.83077e-03        00000 
 9.45112e-02  6.85653e-03        00000 
 9.80004e-02  3.57669e-03        00000 
 1.02041e-01 -9.08616e-19        00000 
 4.43542e-03  3.83634e-03        00000 
 8.38017e-03  7.39972e-03        00000 
 1.19079e-02  1.06781e-02        00000 
 1.50963e-02  1.36754e-02        00000 
 1.80169e-02  1.64072e-02        00000 
 2.07294e-02  1.88951e-02        00000 
 2.32807e-02  2.11621e-02        00000 
 2.57071e-02  2.32298e-02        00000 
 2.80362e-02  2.51174e-02        00000 
 3.02889e-02  2.68415e-02        00000 
 3.24816e-02  2.84158e-02        00000 
 3.46271e-02  2.98524e-02        00000 
 3.67359e-02  3.11609e-02        00000 
 3.88167e-02  3.23497e-02        00000 
 4.08767e-02  3.34255e-02        00000 
 4.29228e-02  3.43939e-02        00000 
 4.49609e-02  3.52590e-02        00000 
 4.69964e-02  3.60241e-02        00000 
 4.90343e-02  3.66908e-02        00000 
 5.10788e-02  3.72599e-02        00000 
 5.31335e-02  3.77312e-02        00000 
 5.52009e-02  3.81033e-02        00000 
 5.72826e-02  3.83743e-02        00000 
 5.93791e-02  3.85419e-02        00000 
 6.14895e-02  3.86035e-02        00000 
 6.36124e-02  3.85566e-02        00000 
 6.57456e-02  3.83991e-02        00000 
 6.78864e-02  3.81292e-02        00000 
 7.00324e-02  3.77457e-02        00000 
 7.21816e-02  3.72476e-02        00000 
 7.43326e-02  3.66342e-02        00000 
 7.64850e-02  3.59048e-02        00000 
 7.86397e-02  3.50584e-02        00000 
 8.07986e-02  3.40933e-02        00000 
 8.29651e-02  3.30071e-02        00000 
 8.51439e-02  3.17966e-02        00000 
 8.73413e-02  3.04569e-02        00000 
 8.95656e-02  2.89818e-02        00000 
 9.18270e-02  2.73633e-02        00000 
 9.41390e-02  2.55911e-02        00000 
 9.65185e-02  2.36526e-02        00000 
 9.89874e-02  2.15323e-02        00000 
 1.01574e-01  1.92117e-02        00000 
 1.04316e-01  1.66699e-02        00000 
 1.07263e-01  1.38841e-02        00000 
 1.10473e-01  1.08332e-02        00000 
 1.14022e-01  7.50184e-03        00000 
 1.17989e-01  3.88653e-03        00000 
 1.22449e-01  5.79766e-19        00000 
 4.82398e-03  4.10293e-03        00000 
 9.20657e-03  7.95107e-03        00000 
 1.32021e-02  1.15310e-02        00000 
 1.68703e-02  1.48410e-02        00000 
 2.02696e-02  1.78887e-02        00000 
 2.34516e-02  2.06882e-02        00000 
 2.64599e-02  2.32564e-02        00000 
 2.93297e-02  2.56110e-02        00000 
 3.20891e-02  2.77686e-02        00000 
 3.47603e-02  2.97445e-02        00000 
 3.73612e-02  3.15522e-02        00000 
 3.99059e-02  3.32035e-02        00000 
 4.24062e-02  3.47088e-02        00000 
 4.48723e-02  3.60768e-02        00000 
 4.73127e-02  3.73149e-02        00000 
 4.97354e-02  3.84295e-02        00000 
 5.21477e-02  3.94254e-02        00000 
 5.45565e-02  4.03062e-02        00000 
 5.69678e-02  4.10741e-02        00000 
 5.93874e-02  4.17300e-02        00000 
 6.18198e-02  4.22735e-02        00000 
 6.42686e-02  4.27031e-02        00000 
 6.67358e-02  4.30162e-02        00000 
 6.92221e-02  4.32099e-02        00000 
 7.17265e-02  4.32810e-02        00000 
 7.42469e-02  4.32264e-02        00000 
 7.67802e-02  4.30434e-02        00000 
 7.93230e-02  4.27301e-02        00000 
 8.18718e-02  4.22852e-02        00000 
 8.44240e-02  4.17076e-02        00000 
 8.69778e-02  4.09970e-02        00000 
 8.95326e-02  4.01527e-02        00000 
 9.20894e-02  3.91737e-02        00000 
 9.46508e-02  3.80586e-02        00000 
 9.72209e-02  3.68049e-02        00000 
 9.98054e-02  3.54091e-02        00000 
 1.02412e-01  3.38661e-02        00000 
 1.05050e-01  3.21695e-02        00000 
 1.07732e-01  3.03110e-02        00000 
 1.10473e-01  2.82806e-02        00000 
 1.13291e-01  2.60661e-02        00000 
 1.16209e-01  2.36533e-02        00000 
 1.19258e-01  2.10262e-02        00000 
 1.22473e-01  1.81679e-02        00000 
 1.25901e-01  1.50618e-02        00000 
 1.29593e-01  1.16943e-02        00000 
 1.33609e-01  8.05795e-03        00000 
 1.38012e-01  4.15516e-03        00000 
 1.42857e-01 -1.20426e-18        00000 
 5.18862e-03  4.33718e-03        00000 
 9.97945e-03  8.43306e-03        00000 
 1.44133e-02  1.22741e-02        00000 
 1.85366e-02  1.58551e-02        00000 
 2.23967e-02  1.91788e-02        00000 
 2.60376e-02  2.22535e-02        00000 
 2.94980e-02  2.50911e-02        00000 
 3.28111e-02  2.77051e-02        00000 
 3.60041e-02  3.01094e-02        00000 
 3.90993e-02  3.23174e-02        00000 
 4.21151e-02  3.43415e-02        00000 
 4.50667e-02  3.61932e-02        00000 
 4.79666e-02  3.78825e-02        00000 
 5.08260e-02  3.94187e-02        00000 
 5.36547e-02  4.08096e-02        00000 
 5.64618e-02  4.20621e-02        00000 
 5.92558e-02  4.31815e-02        00000 
 6.20451e-02  4.41721e-02        00000 
 6.48373e-02  4.50365e-02        00000 
 6.76395e-02  4.57758e-02        00000 
 7.04579e-02  4.63893e-02        00000 
 7.32970e-02  4.68752e-02        00000 
 7.61597e-02  4.72301e-02        00000 
 7.90468e-02  4.74504e-02        00000 
 8.19571e-02  4.75318e-02        00000 
 8.48876e-02  4.74705e-02        00000 
 8.78342e-02  4.72634e-02        00000 
 9.07920e-02  4.69082e-02        00000 
 9.37566e-02  4.64035e-02        00000 
 9.67242e-02  4.57488e-02        00000 
 9.96924e-02  4.49438e-02        00000 
 1.02661e-01  4.39884e-02        00000 
 1.05630e-01  4.28819e-02        00000 
 1.08604e-01  4.16232e-02        00000 
 1.11587e-01  4.02098e-02        00000 
 1.14586e-01  3.86382e-02        00000 
 1.17610e-01  3.69036e-02        00000 
 1.20669e-01  3.49995e-02        00000 
 1.23778e-01  3.29180e-02        00000 
 1.26952e-01  3.06494e-02        00000 
 1.30211e-01  2.81827e-02        00000 
 1.33578e-01  2.55056e-02        00000 
 1.37083e-01  2.26050e-02        00000 
 1.40760e-01  1.94679e-02        00000 
 1.44650e-01  1.60827e-02        00000 
 1.48797e-01  1.24416e-02        00000 
 1.53251e-01  8.54223e-03        00000 
 1.58060e-01  4.39028e-03        00000 
 1.63265e-01  1.64378e-18        00000 
 5.53575e-03  4.54444e-03        00000 
 1.07125e-02  8.85770e-03        00000 
 1.55615e-02  1.29265e-02        00000 
 2.01190e-02  1.67439e-02        00000 
 2.44233e-02  2.03092e-02        00000 
 2.85115e-02  2.36265e-02        00000 
 3.24177e-02  2.67035e-02        00000 
 3.61716e-02  2.95503e-02        00000 
 3.97990e-02  3.21778e-02        00000 
 4.33214e-02  3.45973e-02        00000 
 4.67571e-02  3.68198e-02        00000 
 5.01214e-02  3.88559e-02        00000 
 5.34274e-02  4.07153e-02        00000 
 5.66869e-02  4.24072e-02        00000 
 5.99106e-02  4.39398e-02        00000 
 6.31084e-02  4.53204e-02        00000 
 6.62903e-02  4.65550e-02        00000 
 6.94660e-02  4.76485e-02        00000 
 7.26449e-02  4.86040e-02        00000 
 7.58361e-02  4.94226e-02        00000 
 7.90473e-02  5.01036e-02        00000 
 8.22847e-02  5.06446e-02        00000 
 8.55522e-02  5.10414e-02        00000 
 8.88509e-02  5.12890e-02        00000 
 9.21791e-02  5.13820e-02        00000 
 9.55326e-02  5.13156e-02        00000 
 9.89059e-02  5.10859e-02        00000 
 1.02292e-01  5.06905e-02        00000 
 1.05685e-01  5.01281e-02        00000 
 1.09080e-01  4.93987e-02        00000 
 1.12474e-01  4.85027e-02        00000 
 1.15866e-01  4.74405e-02        00000 
 1.19258e-01  4.62123e-02        00000 
 1.22652e-01  4.48172e-02        00000 
 1.26056e-01  4.32531e-02        00000 
 1.29476e-01  4.15168e-02        00000 
 1.32924e-01  3.96037e-02        00000 
 1.36410e-01  3.75074e-02        00000 
 1.39950e-01  3.52208e-02        00000 
 1.43559e-01  3.27350e-02        00000 
 1.47259e-01  3.00404e-02        00000 
 1.51072e-01  2.71267e-02        00000 
 1.55026e-01  2.39836e-02        00000 
 1.59152e-01  2.06015e-02        00000 
 1.63487e-01  1.69731e-02        00000 
 1.68068e-01  1.30945e-02        00000 
 1.72935e-01  8.96674e-03        00000 
 1.78126e-01  4.59726e-03        00000 
 1.83673e-01 -8.78205e-19        00000 
 5.86991e-03  4.72868e-03        00000 
 1.14157e-02  9.23379e-03        00000 
 1.66614e-02  1.35026e-02        00000 
 2.16356e-02  1.75271e-02        00000 
 2.63695e-02  2.13042e-02        00000 
 3.08941e-02  2.48352e-02        00000 
 3.52386e-02  2.81245e-02        00000 