<?xml version="1.0" encoding="utf-8"?>
<VTKFile byte_order="LittleEndian" type="UnstructuredGrid" version="0.1">
   <UnstructuredGrid>
      <Piece NumberOfCells="12996" NumberOfPoints="6689">
         <Points>
            <DataArray Name="Points" NumberOfComponents="3" format="ascii" type="Float32">
-1.0000 -1.0000 0.0000
-1.0000 -0.8947 0.0000
-1.0000 -0.7895 0.0000
-1.0000 -0.6842 0.0000
-1.0000 -0.5789 0.0000
-1.0000 -0.4737 0.0000
-1.0000 -0.3684 0.0000
-1.0000 -0.2632 0.0000
-1.0000 -0.1579 0.0000
-1.0000 -0.0526 0.0000
-1.0000 0.0526 0.0000
-1.0000 0.1579 0.0000
-1.0000 0.2632 0.0000
-1.0000 0.3684 0.0000
-1.0000 0.4737 0.0000
-1.0000 0.5789 0.0000
-1.0000 0.6842 0.0000
-1.0000 0.7895 0.0000
-1.0000 0.8947 0.0000
-1.0000 1.0000 0.0000
-0.8947 -1.0000 0.0000
-0.8947 -0.8947 0.0000
-0.8947 -0.7895 0.0000
-0.8947 -0.6842 0.0000
-0.8947 -0.5789 0.0000
-0.8947 -0.4737 0.0000
-0.8947 -0.3684 0.0000
-0.8947 -0.2632 0.0000
-0.8947 -0.1579 0.0000
-0.8947 -0.0526 0.0000
-0.8947 0.0526 0.0000
-0.8947 0.1579 0.0000
-0.8947 0.2632 0.0000
-0.8947 0.3684 0.0000
-0.8947 0.4737 0.0000
-0.8947 0.5789 0.0000
-0.8947 0.6842 0.0000
-0.8947 0.7895 0.0000
-0.8947 0.8947 0.0000
-0.8947 1.0000 0.0000
-0.7895 -1.0000 0.0000
-0.7895 -0.8947 0.0000
-0.7895 -0.7895 0.0000
-0.7895 -0.6842 0.0000
-0.7895 -0.5789 0.0000
-0.7895 -0.4737 0.0000
-0.7895 -0.3684 0.0000
-0.7895 -0.2632 0.0000
-0.7895 -0.1579 0.0000
-0.7895 -0.0526 0.0000
-0.7895 0.0526 0.0000
-0.7895 0.1579 0.0000
-0.7895 0.2632 0.0000
-0.7895 0.3684 0.0000
-0.7895 0.4737 0.0000
-0.7895 0.5789 0.0000
-0.7895 0.6842 0.0000
-0.7895 0.7895 0.0000
-0.7895 0.8947 0.0000
-0.7895 1.0000 0.0000
-0.6842 -1.0000 0.0000
-0.6842 -0.8947 0.0000
-0.6842 -0.7895 0.0000
-0.6842 -0.6842 0.0000
-0.6842 -0.5789 0.0000
-0.6842 -0.4737 0.0000
-0.6842 -0.3684 0.0000
-0.6842 -0.2632 0.0000
-0.6842 -0.1579 0.0000
-0.6842 -0.0526 0.0000
-0.6842 0.0526 0.0000
-0.6842 0.1579 0.0000
-0.6842 0.2632 0.0000
-0.6842 0.3684 0.0000
-0.6842 0.4737 0.0000
-0.6842 0.5789 0.0000
-0.6842 0.6842 0.0000
-0.6842 0.7895 0.0000
-0.6842 0.8947 0.0000
-0.6842 1.0000 0.0000
-0.5789 -1.0000 0.0000
-0.5789 -0.8947 0.0000
-0.5789 -0.7895 0.0000
-0.5789 -0.6842 0.0000
-0.5789 -0.5789 0.0000
-0.5789 -0.4737 0.0000
-0.5789 -0.3684 0.0000
-0.5789 -0.2632 0.0000
-0.5789 -0.1579 0.0000
-0.5789 -0.0526 0.0000
-0.5789 0.0526 0.0000
-0.5789 0.1579 0.0000
-0.5789 0.2632 0.0000
-0.5789 0.3684 0.0000
-0.5789 0.4737 0.0000
-0.5789 0.5789 0.0000
-0.5789 0.6842 0.0000
-0.5789 0.7895 0.0000
-0.5789 0.8947 0.0000
-0.5789 1.0000 0.0000
-0.4737 -1.0000 0.0000
-0.4737 -0.8947 0.0000
-0.4737 -0.7895 0.0000
-0.4737 -0.6842 0.0000
-0.4737 -0.5789 0.0000
-0.4737 -0.4737 0.0000
-0.4737 -0.3684 0.0000
-0.4737 -0.2632 0.0000
-0.4737 -0.1579 0.0000
-0.4737 -0.0526 0.0000
-0.4737 0.0526 0.0000
-0.4737 0.1579 0.0000
-0.4737 0.2632 0.0000
-0.4737 0.3684 0.0000
-0.4737 0.4737 0.0000
-0.4737 0.5789 0.0000
-0.4737 0.6842 0.0000
-0.4737 0.7895 0.0000
-0.4737 0.8947 0.0000
-0.4737 1.0000 0.0000
-0.3684 -1.0000 0.0000
-0.3684 -0.8947 0.0000
-0.3684 -0.7895 0.0000
-0.3684 -0.6842 0.0000
-0.3684 -0.5789 0.0000
-0.3684 -0.4737 0.0000
-0.3684 -0.3684 0.0000
-0.3684 -0.2632 0.0000
-0.3684 -0.1579 0.0000
-0.3684 -0.0526 0.0000
-0.3684 0.0526 0.0000
-0.3684 0.1579 0.0000
-0.3684 0.2632 0.0000
-0.3684 0.3684 0.0000
-0.3684 0.4737 0.0000
-0.3684 0.5789 0.0000
-0.3684 0.6842 0.0000
-0.3684 0.7895 0.0000
-0.3684 0.8947 0.0000
-0.3684 1.0000 0.0000
-0.2632 -1.0000 0.0000
-0.2632 -0.8947 0.0000
-0.2632 -0.7895 0.0000
-0.2632 -0.6842 0.0000
-0.2632 -0.5789 0.0000
-0.2632 -0.4737 0.0000
-0.2632 -0.3684 0.0000
-0.2632 -0.2632 0.0000
-0.2632 -0.1579 0.0000
-0.2632 -0.0526 0.0000
-0.2632 0.0526 0.0000
-0.2632 0.1579 0.0000
-0.2632 0.2632 0.0000
-0.2632 0.3684 0.0000
-0.2632 0.4737 0.0000
-0.2632 0.5789 0.0000
-0.2632 0.6842 0.0000
-0.2632 0.7895 0.0000
-0.2632 0.8947 0.0000
-0.2632 1.0000 0.0000
-0.1579 -1.0000 0.0000
-0.1579 -0.8947 0.0000
-0.1579 -0.7895 0.0000
-0.1579 -0.6842 0.0000
-0.1579 -0.5789 0.0000
-0.1579 -0.4737 0.0000
-0.1579 -0.3684 0.0000
-0.1579 -0.2632 0.0000
-0.1579 -0.1579 0.0000
-0.1579 -0.0526 0.0000
-0.1579 0.0526 0.0000
-0.1579 0.1579 0.0000
-0.1579 0.2632 0.0000
-0.1579 0.3684 0.0000
-0.1579 0.4737 0.0000
-0.1579 0.5789 0.0000
-0.1579 0.6842 0.0000
-0.1579 0.7895 0.0000
-0.1579 0.8947 0.0000
-0.1579 1.0000 0.0000
-0.0526 -1.0000 0.0000
-0.0526 -0.8947 0.0000
-0.0526 -0.7895 0.0000
-0.0526 -0.6842 0.0000
-0.0526 -0.5789 0.0000
-0.0526 -0.4737 0.0000
-0.0526 -0.3684 0.0000
-0.0526 -0.2632 0.0000
-0.0526 -0.1579 0.0000
-0.0526 -0.0526 0.0000
-0.0526 0.0526 0.0000
-0.0526 0.1579 0.0000
-0.0526 0.2632 0.0000
-0.0526 0.3684 0.0000
-0.0526 0.4737 0.0000
-0.0526 0.5789 0.0000
-0.0526 0.6842 0.0000
-0.0526 0.7895 0.0000
-0.0526 0.8947 0.0000
-0.0526 1.0000 0.0000
0.0526 -1.0000 0.0000
0.0526 -0.8947 0.0000
0.0526 -0.7895 0.0000
0.0526 -0.6842 0.0000
0.0526 -0.5789 0.0000
0.0526 -0.4737 0.0000
0.0526 -0.3684 0.0000
0.0526 -0.2632 0.0000
0.0526 -0.1579 0.0000
0.0526 -0.0526 0.0000
0.0526 0.0526 0.0000
0.0526 0.1579 0.0000
0.0526 0.2632 0.0000
0.0526 0.3684 0.0000
0.0526 0.4737 0.0000
0.0526 0.5789 0.0000
0.0526 0.6842 0.0000
0.0526 0.7895 0.0000
0.0526 0.8947 0.0000
0.0526 1.0000 0.0000
0.1579 -1.0000 0.0000
0.1579 -0.8947 0.0000
0.1579 -0.7895 0.0000
0.1579 -0.6842 0.0000
0.1579 -0.5789 0.0000
0.1579 -0.4737 0.0000
0.1579 -0.3684 0.0000
0.1579 -0.2632 0.0000
0.1579 -0.1579 0.0000
0.1579 -0.0526 0.0000
0.1579 0.0526 0.0000
0.1579 0.1579 0.0000
0.1579 0.2632 0.0000
0.1579 0.3684 0.0000
0.1579 0.4737 0.0000
0.1579 0.5789 0.0000
0.1579 0.6842 0.0000
0.1579 0.7895 0.0000
0.1579 0.8947 0.0000
0.1579 1.0000 0.0000
0.2632 -1.0000 0.0000
0.2632 -0.8947 0.0000
0.2632 -0.7895 0.0000
0.2632 -0.6842 0.0000
0.2632 -0.5789 0.0000
0.2632 -0.4737 0.0000
0.2632 -0.3684 0.0000
0.2632 -0.2632 0.0000
0.2632 -0.1579 0.0000
0.2632 -0.0526 0.0000
0.2632 0.0526 0.0000
0.2632 0.1579 0.0000
0.2632 0.2632 0.0000
0.2632 0.3684 0.0000
0.2632 0.4737 0.0000
0.2632 0.5789 0.0000
0.2632 0.6842 0.0000
0.2632 0.7895 0.0000
0.2632 0.8947 0.0000
0.2632 1.0000 0.0000
0.3684 -1.0000 0.0000
0.3684 -0.8947 0.0000
0.3684 -0.7895 0.0000
0.3684 -0.6842 0.0000
0.3684 -0.5789 0.0000
0.3684 -0.4737 0.0000
0.3684 -0.3684 0.0000
0.3684 -0.2632 0.0000
0.3684 -0.1579 0.0000
0.3684 -0.0526 0.0000
0.3684 0.0526 0.0000
0.3684 0.1579 0.0000
0.3684 0.2632 0.0000
0.3684 0.3684 0.0000
0.3684 0.4737 0.0000
0.3684 0.5789 0.0000
0.3684 0.6842 0.0000
0.3684 0.7895 0.0000
0.3684 0.8947 0.0000
0.3684 1.0000 0.0000
0.4737 -1.0000 0.0000
0.4737 -0.8947 0.0000
0.4737 -0.7895 0.0000
0.4737 -0.6842 0.0000
0.4737 -0.5789 0.0000
0.4737 -0.4737 0.0000
0.4737 -0.3684 0.0000
0.4737 -0.2632 0.0000
0.4737 -0.1579 0.0000
0.4737 -0.0526 0.0000
0.4737 0.0526 0.0000
0.4737 0.1579 0.0000
0.4737 0.2632 0.0000
0.4737 0.3684 0.0000
0.4737 0.4737 0.0000
0.4737 0.5789 0.0000
0.4737 0.6842 0.0000
0.4737 0.7895 0.0000
0.4737 0.8947 0.0000
0.4737 1.0000 0.0000
0.5789 -1.0000 0.0000
0.5789 -0.8947 0.0000
0.5789 -0.7895 0.0000
0.5789 -0.6842 0.0000
0.5789 -0.5789 0.0000
0.5789 -0.4737 0.0000
0.5789 -0.3684 0.0000
0.5789 -0.2632 0.0000
0.5789 -0.1579 0.0000
0.5789 -0.0526 0.0000
0.5789 0.0526 0.0000
0.5789 0.1579 0.0000
0.5789 0.2632 0.0000
0.5789 0.3684 0.0000
0.5789 0.4737 0.0000
0.5789 0.5789 0.0000
0.5789 0.6842 0.0000
0.5789 0.7895 0.0000
0.5789 0.8947 0.0000
0.5789 1.0000 0.0000
0.6842 -1.0000 0.0000
0.6842 -0.8947 0.0000
0.6842 -0.7895 0.0000
0.6842 -0.6842 0.0000
0.6842 -0.5789 0.0000
0.6842 -0.4737 0.0000
0.6842 -0.3684 0.0000
0.6842 -0.2632 0.0000
0.6842 -0.1579 0.0000
0.6842 -0.0526 0.0000
0.6842 0.0526 0.0000
0.6842 0.1579 0.0000
0.6842 0.2632 0.0000
0.6842 0.3684 0.0000
0.6842 0.4737 0.0000
0.6842 0.5789 0.0000
0.6842 0.6842 0.0000
0.6842 0.7895 0.0000
0.6842 0.8947 0.0000
0.6842 1.0000 0.0000
0.7895 -1.0000 0.0000
0.7895 -0.8947 0.0000
0.7895 -0.7895 0.0000
0.7895 -0.6842 0.0000
0.7895 -0.5789 0.0000
0.7895 -0.4737 0.0000
0.7895 -0.3684 0.0000
0.7895 -0.2632 0.0000
0.7895 -0.1579 0.0000
0.7895 -0.0526 0.0000
0.7895 0.0526 0.0000
0.7895 0.1579 0.0000
0.7895 0.2632 0.0000
0.7895 0.3684 0.0000
0.7895 0.4737 0.0000
0.7895 0.5789 0.0000
0.7895 0.6842 0.0000
0.7895 0.7895 0.0000
0.7895 0.8947 0.0000
0.7895 1.0000 0.0000
0.8947 -1.0000 0.0000
0.8947 -0.8947 0.0000
0.8947 -0.7895 0.0000
0.8947 -0.6842 0.0000
0.8947 -0.5789 0.0000
0.8947 -0.4737 0.0000
0.8947 -0.3684 0.0000
0.8947 -0.2632 0.0000
0.8947 -0.1579 0.0000
0.8947 -0.0526 0.0000
0.8947 0.0526 0.0000
0.8947 0.1579 0.0000
0.8947 0.2632 0.0000
0.8947 0.3684 0.0000
0.8947 0.4737 0.0000
0.8947 0.5789 0.0000
0.8947 0.6842 0.0000
0.8947 0.7895 0.0000
0.8947 0.8947 0.0000
0.8947 1.0000 0.0000
1.0000 -1.0000 0.0000
1.0000 -0.8947 0.0000
1.0000 -0.7895 0.0000
1.0000 -0.6842 0.0000
1.0000 -0.5789 0.0000
1.0000 -0.4737 0.0000
1.0000 -0.3684 0.0000
1.0000 -0.2632 0.0000
1.0000 -0.1579 0.0000
1.0000 -0.0526 0.0000
1.0000 0.0526 0.0000
1.0000 0.1579 0.0000
1.0000 0.2632 0.0000
1.0000 0.3684 0.0000
1.0000 0.4737 0.0000
1.0000 0.5789 0.0000
1.0000 0.6842 0.0000
1.0000 0.7895 0.0000
1.0000 0.8947 0.0000
1.0000 1.0000 0.0000
-0.9474 -0.9474 0.0000
-0.9474 -0.8421 0.0000
-0.9474 -0.7368 0.0000
-0.9474 -0.6316 0.0000
-0.9474 -0.5263 0.0000
-0.9474 -0.4211 0.0000
-0.9474 -0.3158 0.0000
-0.9474 -0.2105 0.0000
-0.9474 -0.1053 0.0000
-0.9474 0.0000 0.0000
-0.9474 0.1053 0.0000
-0.9474 0.2105 0.0000
-0.9474 0.3158 0.0000
-0.9474 0.4211 0.0000
-0.9474 0.5263 0.0000
-0.9474 0.6316 0.0000
-0.9474 0.7368 0.0000
-0.9474 0.8421 0.0000
-0.9474 0.9474 0.0000
-0.8421 -0.9474 0.0000
-0.8421 -0.8421 0.0000
-0.8421 -0.7368 0.0000
-0.8421 -0.6316 0.0000
-0.8421 -0.5263 0.0000
-0.8421 -0.4211 0.0000
-0.8421 -0.3158 0.0000
-0.8421 -0.2105 0.0000
-0.8421 -0.1053 0.0000
-0.8421 0.0000 0.0000
-0.8421 0.1053 0.0000
-0.8421 0.2105 0.0000
-0.8421 0.3158 0.0000
-0.8421 0.4211 0.0000
-0.8421 0.5263 0.0000
-0.8421 0.6316 0.0000
-0.8421 0.7368 0.0000
-0.8421 0.8421 0.0000
-0.8421 0.9474 0.0000
-0.7368 -0.9474 0.0000
[...]
         <PointData>
            <DataArray Name="fValues" NumberOfComponents="3" format="ascii" type="Float64">
-4.00337e-15  3.30389e-15        00000 
 1.39896e-15  1.39896e-15        00000 
-1.38094e-15        00000        00000 
-1.34467e-15 -2.43314e-16        00000 
       00000 -8.63089e-17        00000 
 6.25745e-15  3.23097e-17        00000 
 2.41665e-15 -4.96276e-16        00000 
 1.14947e-15 -4.09364e-16        00000 
 1.29463e-15 -6.04162e-16        00000 
-8.70661e-17 -2.61198e-16        00000 
-9.92552e-16 -2.15772e-16        00000 
 2.06037e-16 -1.08712e-15        00000 
-1.72618e-15 -2.04984e-16        00000 
 1.56394e-15 -2.08238e-16        00000 
-5.17853e-16  2.37349e-16        00000 
 2.49414e-16  2.57547e-17        00000 
-9.32136e-15  5.17853e-16        00000 
 6.96578e-15  3.48289e-16        00000 
-5.57115e-15  1.21869e-15        00000 
 8.70005e-15 -3.95830e-15        00000 
 6.52884e+01  4.02471e+01        00000 
 4.69150e+01  2.26105e+01        00000 
 3.94040e+01  1.35878e+01        00000 
 3.32405e+01  7.91438e+00        00000 
 2.77051e+01  3.96861e+00        00000 
 2.24412e+01  1.13304e+00        00000 
 1.73306e+01 -9.01831e-01        00000 
 1.23158e+01 -2.30949e+00        00000 
 7.36390e+00 -3.19532e+00        00000 
 2.44966e+00 -3.62269e+00        00000 
-2.45171e+00 -3.62229e+00        00000 
-7.36555e+00 -3.19425e+00        00000 
-1.23168e+01 -2.30810e+00        00000 
-1.73309e+01 -9.00505e-01        00000 
-2.24409e+01  1.13400e+00        00000 
-2.77044e+01  3.96907e+00        00000 
-3.32396e+01  7.91436e+00        00000 
-3.94029e+01  1.35873e+01        00000 
-4.69137e+01  2.26097e+01        00000 
-6.52864e+01  4.02458e+01        00000 
 1.20806e+02  6.45910e+01        00000 
 9.87492e+01  4.76968e+01        00000 
 8.22358e+01  3.35783e+01        00000 
 6.91563e+01  2.35115e+01        00000 
 5.74068e+01  1.61782e+01        00000 
 4.63627e+01  1.07857e+01        00000 
 3.57240e+01  6.86608e+00        00000 
 2.53444e+01  4.13329e+00        00000 
 1.51366e+01  2.40562e+00        00000 
 5.03213e+00  1.57012e+00        00000 
-5.03682e+00  1.57080e+00        00000 
-1.51403e+01  2.40741e+00        00000 
-2.53465e+01  4.13554e+00        00000 
-3.57243e+01  6.86808e+00        00000 
-4.63617e+01  1.07869e+01        00000 
-5.74051e+01  1.61785e+01        00000 
-6.91542e+01  2.35109e+01        00000 
-8.22334e+01  3.35770e+01        00000 
-9.87465e+01  4.76950e+01        00000 
-1.20802e+02  6.45886e+01        00000 
 1.74243e+02  8.92341e+01        00000 
 1.49172e+02  7.21293e+01        00000 
 1.26648e+02  5.70536e+01        00000 
 1.06740e+02  4.47141e+01        00000 
 8.85864e+01  3.51139e+01        00000 
 7.14654e+01  2.77880e+01        00000 
 5.50004e+01  2.23470e+01        00000 
 3.89758e+01  1.85062e+01        00000 
 2.32560e+01  1.60632e+01        00000 
 7.72684e+00  1.48793e+01        00000 
-7.73494e+00  1.48803e+01        00000 
-2.32620e+01  1.60658e+01        00000 
-3.89788e+01  1.85092e+01        00000 
-5.50004e+01  2.23492e+01        00000 
-7.14632e+01  2.77889e+01        00000 
-8.85832e+01  3.51134e+01        00000 
-1.06737e+02  4.47123e+01        00000 
-1.26644e+02  5.70509e+01        00000 
-1.49168e+02  7.21260e+01        00000 
-1.74238e+02  8.92304e+01        00000 
 2.27562e+02  1.16311e+02        00000 
 1.98635e+02  9.92426e+01        00000 
 1.70920e+02  8.38852e+01        00000 
 1.44972e+02  7.07017e+01        00000 
 1.20581e+02  5.98666e+01        00000 
 9.73356e+01  5.12899e+01        00000 
 7.48946e+01  4.47656e+01        00000 
 5.30379e+01  4.00969e+01        00000 
 3.16189e+01  3.71117e+01        00000 
 1.04981e+01  3.56657e+01        00000 
-1.05108e+01  3.56671e+01        00000 
-3.16279e+01  3.71152e+01        00000 
-5.30414e+01  4.01005e+01        00000 
-7.48934e+01  4.47677e+01        00000 
-9.73314e+01  5.12897e+01        00000 
-1.20576e+02  5.98645e+01        00000 
-1.44966e+02  7.06981e+01        00000 
-1.70915e+02  8.38807e+01        00000 
-1.98631e+02  9.92377e+01        00000 
-2.27556e+02  1.16306e+02        00000 
 2.81034e+02  1.47434e+02        00000 
 2.47573e+02  1.30371e+02        00000 
 2.14787e+02  1.14986e+02        00000 
 1.83199e+02  1.01501e+02        00000 
 1.52864e+02  9.00909e+01        00000 
 1.23589e+02  8.07974e+01        00000 
 9.51398e+01  7.35732e+01        00000 
 6.73408e+01  6.83386e+01        00000 
 4.00958e+01  6.49901e+01        00000 
 1.32956e+01  6.33821e+01        00000 
-1.33151e+01  6.33845e+01        00000 
-4.01083e+01  6.49947e+01        00000 
-6.73438e+01  6.83428e+01        00000 
-9.51356e+01  7.35742e+01        00000 
-1.23582e+02  8.07951e+01        00000 
-1.52856e+02  9.00862e+01        00000 
-1.83192e+02  1.01495e+02        00000 
-2.14781e+02  1.14980e+02        00000 
-2.47568e+02  1.30365e+02        00000 
-2.81028e+02  1.47427e+02        00000 
 3.34645e+02  1.83346e+02        00000 
 2.96206e+02  1.66303e+02        00000 
 2.58262e+02  1.50959e+02        00000 
 2.21196e+02  1.37406e+02        00000 
 1.85123e+02  1.25763e+02        00000 
 1.49961e+02  1.16098e+02        00000 
 1.15540e+02  1.08435e+02        00000 
 8.17263e+01  1.02809e+02        00000 
 4.85363e+01  9.92349e+01        00000 
 1.60407e+01  9.75781e+01        00000 
-1.60707e+01  9.75797e+01        00000 
-4.85531e+01  9.92428e+01        00000 
-8.17259e+01  1.02812e+02        00000 
-1.15531e+02  1.08433e+02        00000 
-1.49949e+02  1.16091e+02        00000 
-1.85113e+02  1.25755e+02        00000 
-2.21188e+02  1.37398e+02        00000 
-2.58256e+02  1.50951e+02        00000 
-2.96200e+02  1.66295e+02        00000 
-3.34640e+02  1.83339e+02        00000 
 3.88300e+02  2.24461e+02        00000 
 3.44613e+02  2.07453e+02        00000 
 3.01398e+02  1.92181e+02        00000 
 2.58897e+02  1.78666e+02        00000 
 2.17211e+02  1.66975e+02        00000 
 1.76296e+02  1.57157e+02        00000 
 1.36012e+02  1.49231e+02        00000 
 9.61485e+01  1.43235e+02        00000 
 5.67773e+01  1.39432e+02        00000 
 1.85456e+01  1.37842e+02        00000 
-1.85936e+01  1.37857e+02        00000 
-5.67959e+01  1.39431e+02        00000 
-9.61416e+01  1.43240e+02        00000 
-1.35991e+02  1.49220e+02        00000 
-1.76281e+02  1.57144e+02        00000 
-2.17199e+02  1.66963e+02        00000 
-2.58889e+02  1.78656e+02        00000 
-3.01391e+02  1.92172e+02        00000 
-3.44608e+02  2.07445e+02        00000 
-3.88296e+02  2.24453e+02        00000 
 4.41898e+02  2.70995e+02        00000 
 3.92809e+02  2.54043e+02        00000 
 3.44227e+02  2.38860e+02        00000 
 2.96288e+02  2.25439e+02        00000 
 2.49052e+02  2.13813e+02        00000 
 2.02491e+02  2.04010e+02        00000 
 1.56484e+02  1.96023e+02        00000 
 1.10794e+02  1.89773e+02        00000 
 6.48752e+01  1.85236e+02        00000 
 2.02215e+01  1.83521e+02        00000 
-2.02820e+01  1.83433e+02        00000 
-6.49267e+01  1.85287e+02        00000 
-1.10741e+02  1.89746e+02        00000 
-1.56458e+02  1.95996e+02        00000 
-2.02476e+02  2.03993e+02        00000 
-2.49042e+02  2.13801e+02        00000 
-2.96280e+02  2.25430e+02        00000 
-3.44222e+02  2.38853e+02        00000 
-3.92804e+02  2.54036e+02        00000 
-4.41894e+02  2.70988e+02        00000 
 4.95347e+02  3.23049e+02        00000 
 4.40778e+02  3.06172e+02        00000 
 3.86766e+02  2.91090e+02        00000 
 3.33366e+02  2.77793e+02        00000 
 2.80602e+02  2.66302e+02        00000 
 2.28446e+02  2.56646e+02        00000 
 1.76808e+02  2.48840e+02        00000 
 1.25494e+02  2.42841e+02        00000 
 7.38794e+01  2.38358e+02        00000 
 2.06819e+01  2.34307e+02        00000 
-2.04734e+01  2.34752e+02        00000 
-7.36886e+01  2.38234e+02        00000 
-1.25445e+02  2.42774e+02        00000 
-1.76788e+02  2.48816e+02        00000 
-2.28434e+02  2.56633e+02        00000 
-2.80593e+02  2.66294e+02        00000 
-3.33359e+02  2.77787e+02        00000 
-3.86761e+02  2.91085e+02        00000 
-4.40774e+02  3.06167e+02        00000 
-4.95345e+02  3.23044e+02        00000 
 5.48581e+02  3.80654e+02        00000 
 4.88504e+02  3.63864e+02        00000 
 4.29021e+02  3.48888e+02        00000 
 3.70135e+02  3.35723e+02        00000 
 3.11841e+02  3.24388e+02        00000 
 2.54098e+02  3.14926e+02        00000 
 1.96823e+02  3.07398e+02        00000 
 1.39863e+02  3.01916e+02        00000 
 8.29364e+01  2.98689e+02        00000 
 2.74433e+01  2.97737e+02        00000 
-2.76009e+01  2.97665e+02        00000 
-8.26720e+01  2.98744e+02        00000 
-1.39833e+02  3.01947e+02        00000 
-1.96805e+02  3.07405e+02        00000 
-2.54088e+02  3.14928e+02        00000 
-3.11833e+02  3.24388e+02        00000 
-3.70129e+02  3.35722e+02        00000 
-4.29015e+02  3.48887e+02        00000 
-4.88500e+02  3.63862e+02        00000 
-5.48579e+02  3.80652e+02        00000 
 6.01556e+02  4.43802e+02        00000 
 5.35969e+02  4.27105e+02        00000 
 4.70998e+02  4.12233e+02        00000 
 4.06615e+02  3.99188e+02        00000 
 3.42789e+02  3.87989e+02        00000 
 2.79467e+02  3.78673e+02        00000 
 2.16566e+02  3.71288e+02        00000 
 1.53965e+02  3.65878e+02        00000 
 9.17169e+01  3.62357e+02        00000 
 3.05452e+01  3.60821e+02        00000 
-3.05355e+01  3.60835e+02        00000 
-9.18027e+01  3.62344e+02        00000 
-1.53914e+02  3.65915e+02        00000 
-2.16546e+02  3.71309e+02        00000 
-2.79454e+02  3.78683e+02        00000 
-3.42780e+02  3.87995e+02        00000 
-4.06608e+02  3.99191e+02        00000 
-4.70993e+02  4.12235e+02        00000 
-5.35965e+02  4.27106e+02        00000 
-6.01554e+02  4.43803e+02        00000 
 6.54249e+02  5.12467e+02        00000 
 5.83167e+02  4.95865e+02        00000 
 5.12709e+02  4.81090e+02        00000 
 4.42831e+02  4.68146e+02        00000 
 3.73487e+02  4.57046e+02        00000 
 3.04624e+02  4.47808e+02        00000 
 2.36171e+02  4.40443e+02        00000 
 1.68087e+02  4.34921e+02        00000 
 1.00451e+02  4.31189e+02        00000 
 3.34011e+01  4.29275e+02        00000 
-3.34113e+01  4.29280e+02        00000 
-1.00479e+02  4.31193e+02        00000 
-1.68081e+02  4.34918e+02        00000 
-2.36150e+02  4.40454e+02        00000 
-3.04609e+02  4.47818e+02        00000 
-3.73477e+02  4.57054e+02        00000 
-4.42823e+02  4.68151e+02        00000 
-5.12703e+02  4.81094e+02        00000 
-5.83162e+02  4.95868e+02        00000 
-6.54246e+02  5.12471e+02        00000 
 7.06652e+02  5.86620e+02        00000 
 6.30096e+02  5.70112e+02        00000 
 5.54164e+02  5.55427e+02        00000 
 4.78805e+02  5.42569e+02        00000 
 4.03972e+02  5.31544e+02        00000 
 3.29614e+02  5.22353e+02        00000 
 2.55682e+02  5.14987e+02        00000 
 1.82152e+02  5.09426e+02        00000 
 1.09036e+02  5.05663e+02        00000 
 3.62914e+01  5.03751e+02        00000 
-3.63030e+01  5.03752e+02        00000 
-1.09047e+02  5.05662e+02        00000 
-1.82151e+02  5.09425e+02        00000 
-2.55671e+02  5.14989e+02        00000 
-3.29602e+02  5.22358e+02        00000 
-4.03962e+02  5.31550e+02        00000 
-4.78797e+02  5.42575e+02        00000 
-5.54157e+02  5.55432e+02        00000 
-6.30091e+02  5.70116e+02        00000 
-7.06648e+02  5.86624e+02        00000 
 7.58766e+02  6.66234e+02        00000 
 6.76758e+02  6.49818e+02        00000 
 5.95369e+02  6.35220e+02        00000 
 5.14551e+02  6.22441e+02        00000 
 4.34258e+02  6.11483e+02        00000 
 3.54442e+02  6.02342e+02        00000 
 2.75062e+02  5.95007e+02        00000 
 1.96084e+02  5.89473e+02        00000 
 1.17466e+02  5.85750e+02        00000 
 3.91182e+01  5.83871e+02        00000 
-3.91262e+01  5.83871e+02        00000 
-1.17471e+02  5.85748e+02        00000 
-1.96084e+02  5.89471e+02        00000 
-2.75056e+02  5.95007e+02        00000 
-3.54433e+02  6.02344e+02        00000 
-4.34249e+02  6.11487e+02        00000 
-5.14544e+02  6.22445e+02        00000 
-5.95363e+02  6.35224e+02        00000 
-6.76753e+02  6.49822e+02        00000 
-7.58761e+02  6.66238e+02        00000 
 8.10592e+02  7.51284e+02        00000 
 7.23155e+02  7.34960e+02        00000 
 6.36330e+02  7.20447e+02        00000 
 5.50073e+02  7.07748e+02        00000 
 4.64341e+02  6.96862e+02        00000 
 3.79092e+02  6.87784e+02        00000 
 2.94282e+02  6.80509e+02        00000 
 2.09863e+02  6.75032e+02        00000 
 1.25767e+02  6.71364e+02        00000 
 4.18940e+01  6.69522e+02        00000 
-4.18986e+01  6.69521e+02        00000 
-1.25770e+02  6.71362e+02        00000 
-2.09862e+02  6.75030e+02        00000 
-2.94278e+02  6.80507e+02        00000 
-3.79086e+02  6.87785e+02        00000 
-4.64334e+02  6.96864e+02        00000 
-5.50067e+02  7.07750e+02        00000 
-6.36324e+02  7.20450e+02        00000 
-7.23150e+02  7.34963e+02        00000 
-8.10587e+02  7.51287e+02        00000 
 8.62136e+02  8.41749e+02        00000 
 7.69289e+02  8.25516e+02        00000 
 6.77046e+02  8.11088e+02        00000 
 5.85367e+02  7.98472e+02        00000 
 4.94215e+02  7.87666e+02        00000 
 4.03550e+02  7.78666e+02        00000 
 3.13327e+02  7.71465e+02        00000 
 2.23489e+02  7.66060e+02        00000 
 1.33958e+02  7.62451e+02        00000 
 4.46283e+01  7.60644e+02        00000 
-4.46302e+01  7.60643e+02        00000 
-1.33959e+02  7.62450e+02        00000 
-2.23488e+02  7.66058e+02        00000 
-3.13324e+02  7.71463e+02        00000 
-4.03545e+02  7.78665e+02        00000 
-4.94209e+02  7.87666e+02        00000 
-5.85362e+02  7.98473e+02        00000 
-6.77041e+02  8.11090e+02        00000 
-7.69285e+02  8.25518e+02        00000 
-8.62131e+02  8.41751e+02        00000 
 9.13403e+02  9.37607e+02        00000 
 8.15164e+02  9.21463e+02        00000 
 7.17517e+02  9.07122e+02        00000 
 6.20429e+02  8.94591e+02        00000 
 5.23871e+02  8.83871e+02        00000 
 4.27806e+02  8.74958e+02        00000 
 3.32190e+02  8.67843e+02        00000 
 2.36964e+02  8.62517e+02        00000 
 1.42045e+02  8.58971e+02        00000 
 4.73255e+01  8.57199e+02        00000 
-4.73251e+01  8.57198e+02        00000 
-1.42044e+02  8.58969e+02        00000 
-2.36962e+02  8.62515e+02        00000 
-3.32187e+02  8.67841e+02        00000 
-4.27802e+02  8.74957e+02        00000 
-5.23866e+02  8.83871e+02        00000 
-6.20425e+02  8.94592e+02        00000 
-7.17513e+02  9.07123e+02        00000 
-8.15160e+02  9.21464e+02        00000 
-9.13399e+02  9.37609e+02        00000 
 9.64402e+02  1.03884e+03        00000 
 8.60784e+02  1.02278e+03        00000 
 7.57744e+02  1.00853e+03        00000 
 6.55257e+02  9.96083e+02        00000 
 5.53302e+02  9.85452e+02        00000 
 4.51851e+02  9.76630e+02        00000 
 3.50864e+02  9.69607e+02        00000 
 2.50284e+02  9.64366e+02        00000 
 1.50029e+02  9.60888e+02        00000 
 4.99859e+01  9.59154e+02        00000 
-4.99838e+01  9.59153e+02        00000 
-1.50027e+02  9.60886e+02        00000 
-2.50281e+02  9.64364e+02        00000 
-3.50860e+02  9.69605e+02        00000 
-4.51847e+02  9.76628e+02        00000 
-5.53299e+02  9.85451e+02        00000 
-6.55254e+02  9.96082e+02        00000 
-7.57741e+02  1.00853e+03        00000 
-8.60782e+02  1.02278e+03        00000 
-9.64399e+02  1.03884e+03        00000 
 1.01514e+03  1.14543e+03        00000 
 9.06157e+02  1.12946e+03        00000 
 7.97730e+02  1.11528e+03        00000 
 6.89851e+02  1.10292e+03        00000 
 5.82506e+02  1.09238e+03        00000 
 4.75677e+02  1.08365e+03        00000 
 3.69337e+02  1.07672e+03        00000 
 2.63438e+02  1.07157e+03        00000 
 1.57902e+02  1.06817e+03        00000 
 5.26068e+01  1.06648e+03        00000 
-5.26029e+01  1.06648e+03        00000 
-1.57898e+02  1.06817e+03        00000 
-2.63434e+02  1.07157e+03        00000 
-3.69333e+02  1.07672e+03        00000 
-4.75674e+02  1.08365e+03        00000 
-5.82503e+02  1.09238e+03        00000 
-6.89848e+02  1.10292e+03        00000 
-7.97728e+02  1.11528e+03        00000 
-9.06156e+02  1.12946e+03        00000 
-1.01514e+03  1.14543e+03        00000 
 2.58463e+01  1.34177e+01        00000 
 2.04519e+01  8.11068e+00        00000 
 1.74520e+01  4.60510e+00        00000 
 1.47432e+01  2.27882e+00        00000 
 1.21821e+01  6.17421e-01        00000 
 9.68859e+00 -5.81016e-01        00000 
 7.23564e+00 -1.42969e+00        00000 
 4.80919e+00 -1.99519e+00        00000 
 2.39997e+00 -2.31878e+00        00000 
-4.62579e-04 -2.42392e+00        00000 
-2.40081e+00 -2.31837e+00        00000 
-4.80981e+00 -1.99449e+00        00000 
-7.23597e+00 -1.42892e+00        00000 
-9.68864e+00 -5.80372e-01        00000 
-1.21819e+01  6.17825e-01        00000 
-1.47428e+01  2.27896e+00        00000 
-1.74515e+01  4.60501e+00        00000 
-2.04514e+01  8.11041e+00        00000 
-2.58455e+01  1.34173e+01        00000 
 8.30324e+01  4.33259e+01        00000 
 6.61890e+01  2.82430e+01        00000 
 5.54600e+01  1.87835e+01        00000 
 4.64537e+01  1.21164e+01        00000 
 3.81593e+01  7.29386e+00        00000 
 3.02290e+01  3.77972e+00        00000 
 2.25131e+01  1.27643e+00        00000 
 1.49349e+01 -3.98472e-01        00000 
 7.44456e+00 -1.35935e+00        00000 
-1.65035e-03 -1.67196e+00        00000 
-7.44752e+00 -1.35828e+00        00000 
-1.49370e+01 -3.96722e-01        00000 
-2.25140e+01  1.27829e+00        00000 
-3.02289e+01  3.78120e+00        00000 
-3.81585e+01  7.29464e+00        00000 
-4.64524e+01  1.21165e+01        00000 
-5.54584e+01  1.87829e+01        00000 
-6.61872e+01  2.82420e+01        00000 
-8.30300e+01  4.33244e+01        00000 
 1.35716e+02  6.80361e+01        00000 
 1.14082e+02  5.18631e+01        00000 
 9.59109e+01  3.88609e+01        00000 
 8.01890e+01  2.90789e+01        00000 
 6.57136e+01  2.17069e+01        00000 
 5.19479e+01  1.62184e+01        00000 
 3.86227e+01  1.22575e+01        00000 
 2.55888e+01  9.58809e+00        00000 
 1.27443e+01  8.05149e+00        00000 
-3.15801e-03  7.55103e+00        00000 
-1.27499e+01  8.05311e+00        00000 
-2.55925e+01  9.59065e+00        00000 
-3.86241e+01  1.22600e+01        00000 
-5.19473e+01  1.62201e+01        00000 
-6.57117e+01  2.17074e+01        00000 
-8.01864e+01  2.90782e+01        00000 
-9.59080e+01  3.88593e+01        00000 
-1.14078e+02  5.18608e+01        00000 
-1.35712e+02  6.80333e+01        00000 
 1.87408e+02  9.37472e+01        00000 
 1.61309e+02  7.74288e+01        00000 
 1.37214e+02  6.33336e+01        00000 
 1.15065e+02  5.18194e+01        00000 
 9.43357e+01  4.27491e+01        00000 
 7.45386e+01  3.58006e+01        00000 
 5.53737e+01  3.06999e+01        00000 
 3.66544e+01  2.72321e+01        00000 
 1.82422e+01  2.52310e+01        00000 
-5.15335e-03  2.45797e+01        00000 
-1.82511e+01  2.52334e+01        00000 
-3.66598e+01  2.72356e+01        00000 
-5.53751e+01  3.07029e+01        00000 
-7.45368e+01  3.58020e+01        00000 
-9.43321e+01  4.27486e+01        00000 
-1.15061e+02  5.18174e+01        00000 
-1.37210e+02  6.33304e+01        00000 
-1.61304e+02  7.74249e+01        00000 
-1.87403e+02  9.37429e+01        00000 
 2.38702e+02  1.22773e+02        00000 
 2.07976e+02  1.06488e+02        00000 
 1.78432e+02  9.20636e+01        00000 
 1.50332e+02  7.97969e+01        00000 
 1.23503e+02  6.97575e+01        00000 
 9.76524e+01  6.18554e+01        00000 
 7.25325e+01  5.59508e+01        00000 
 4.79779e+01  5.19061e+01        00000 
 2.38569e+01  4.95775e+01        00000 
-7.92815e-03  4.88246e+01        00000 
-2.38703e+01  4.95809e+01        00000 
-4.79850e+01  5.19105e+01        00000 
-7.25330e+01  5.59538e+01        00000 
-9.76483e+01  6.18556e+01        00000 
-1.23497e+02  6.97551e+01        00000 
-1.50326e+02  7.97928e+01        00000 
-1.78426e+02  9.20584e+01        00000 
-2.07970e+02  1.06482e+02        00000 
-2.38696e+02  1.22767e+02        00000 
 2.89867e+02  1.56241e+02        00000 
 2.54212e+02  1.40010e+02        00000 