<?xml version="1.0" encoding="utf-8"?>
<VTKFile byte_order="LittleEndian" type="UnstructuredGrid" version="0.1">
   <UnstructuredGrid>
      <Piece NumberOfCells="9608" NumberOfPoints="4912">
         <Points>
            <DataArray Name="Points" NumberOfComponents="3" format="ascii" type="Float32">
-1.0000 -0.9592 0.0000
-1.0000 -0.9184 0.0000
-1.0000 -0.8776 0.0000
-1.0000 -0.8367 0.0000
-1.0000 -0.7959 0.0000
-1.0000 -0.7551 0.0000
-1.0000 -0.7143 0.0000
-1.0000 -0.6735 0.0000
-1.0000 -0.6327 0.0000
-1.0000 -0.5918 0.0000
-1.0000 -0.5510 0.0000
-1.0000 -0.5102 0.0000
-1.0000 -0.4694 0.0000
-1.0000 -0.4286 0.0000
-1.0000 -0.3878 0.0000
-1.0000 -0.3469 0.0000
-1.0000 -0.3061 0.0000
-1.0000 -0.2653 0.0000
-1.0000 -0.2245 0.0000
-1.0000 -0.1837 0.0000
-1.0000 -0.1429 0.0000
-1.0000 -0.1020 0.0000
-1.0000 -0.0612 0.0000
-1.0000 -0.0204 0.0000
-1.0000 0.0204 0.0000
-1.0000 0.0612 0.0000
-1.0000 0.1020 0.0000
-1.0000 0.1429 0.0000
-1.0000 0.1837 0.0000
-1.0000 0.2245 0.0000
-1.0000 0.2653 0.0000
-1.0000 0.3061 0.0000
-1.0000 0.3469 0.0000
-1.0000 0.3878 0.0000
-1.0000 0.4286 0.0000
-1.0000 0.4694 0.0000
-1.0000 0.5102 0.0000
-1.0000 0.5510 0.0000
-1.0000 0.5918 0.0000
-1.0000 0.6327 0.0000
-1.0000 0.6735 0.0000
-1.0000 0.7143 0.0000
-1.0000 0.7551 0.0000
-1.0000 0.7959 0.0000
-1.0000 0.8367 0.0000
-1.0000 0.8776 0.0000
-1.0000 0.9184 0.0000
-1.0000 0.9592 0.0000
-1.0000 1.0000 0.0000
-0.9592 -0.9592 0.0000
-0.9592 -0.9184 0.0000
-0.9592 -0.8776 0.0000
-0.9592 -0.8367 0.0000
-0.9592 -0.7959 0.0000
-0.9592 -0.7551 0.0000
-0.9592 -0.7143 0.0000
-0.9592 -0.6735 0.0000
-0.9592 -0.6327 0.0000
-0.9592 -0.5918 0.0000
-0.9592 -0.5510 0.0000
-0.9592 -0.5102 0.0000
-0.9592 -0.4694 0.0000
-0.9592 -0.4286 0.0000
-0.9592 -0.3878 0.0000
-0.9592 -0.3469 0.0000
-0.9592 -0.3061 0.0000
-0.9592 -0.2653 0.0000
-0.9592 -0.2245 0.0000
-0.9592 -0.1837 0.0000
-0.9592 -0.1429 0.0000
-0.9592 -0.1020 0.0000
-0.9592 -0.0612 0.0000
-0.9592 -0.0204 0.0000
-0.9592 0.0204 0.0000
-0.9592 0.0612 0.0000
-0.9592 0.1020 0.0000
-0.9592 0.1429 0.0000
-0.9592 0.1837 0.0000
-0.9592 0.2245 0.0000
-0.9592 0.2653 0.0000
-0.9592 0.3061 0.0000
-0.9592 0.3469 0.0000
-0.9592 0.3878 0.0000
-0.9592 0.4286 0.0000
-0.9592 0.4694 0.0000
-0.9592 0.5102 0.0000
-0.9592 0.5510 0.0000
-0.9592 0.5918 0.0000
-0.9592 0.6327 0.0000
-0.9592 0.6735 0.0000
-0.9592 0.7143 0.0000
-0.9592 0.7551 0.0000
-0.9592 0.7959 0.0000
-0.9592 0.8367 0.0000
-0.9592 0.8776 0.0000
-0.9592 0.9184 0.0000
-0.9592 0.9592 0.0000
-0.9592 1.0000 0.0000
-0.9184 -0.9592 0.0000
-0.9184 -0.9184 0.0000
-0.9184 -0.8776 0.0000
-0.9184 -0.8367 0.0000
-0.9184 -0.7959 0.0000
-0.9184 -0.7551 0.0000
-0.9184 -0.7143 0.0000
-0.9184 -0.6735 0.0000
-0.9184 -0.6327 0.0000
-0.9184 -0.5918 0.0000
-0.9184 -0.5510 0.0000
-0.9184 -0.5102 0.0000
-0.9184 -0.4694 0.0000
-0.9184 -0.4286 0.0000
-0.9184 -0.3878 0.0000
-0.9184 -0.3469 0.0000
-0.9184 -0.3061 0.0000
-0.9184 -0.2653 0.0000
-0.9184 -0.2245 0.0000
-0.9184 -0.1837 0.0000
-0.9184 -0.1429 0.0000
-0.9184 -0.1020 0.0000
-0.9184 -0.0612 0.0000
-0.9184 -0.0204 0.0000
-0.9184 0.0204 0.0000
-0.9184 0.0612 0.0000
-0.9184 0.1020 0.0000
-0.9184 0.1429 0.0000
-0.9184 0.1837 0.0000
-0.9184 0.2245 0.0000
-0.9184 0.2653 0.0000
-0.9184 0.3061 0.0000
-0.9184 0.3469 0.0000
-0.9184 0.3878 0.0000
-0.9184 0.4286 0.0000
-0.9184 0.4694 0.0000
-0.9184 0.5102 0.0000
-0.9184 0.5510 0.0000
-0.9184 0.5918 0.0000
-0.9184 0.6327 0.0000
-0.9184 0.6735 0.0000
-0.9184 0.7143 0.0000
-0.9184 0.7551 0.0000
-0.9184 0.7959 0.0000
-0.9184 0.8367 0.0000
-0.9184 0.8776 0.0000
-0.9184 0.9184 0.0000
-0.9184 0.9592 0.0000
-0.9184 1.0000 0.0000
-0.8776 -0.9592 0.0000
-0.8776 -0.9184 0.0000
-0.8776 -0.8776 0.0000
-0.8776 -0.8367 0.0000
-0.8776 -0.7959 0.0000
-0.8776 -0.7551 0.0000
-0.8776 -0.7143 0.0000
-0.8776 -0.6735 0.0000
-0.8776 -0.6327 0.0000
-0.8776 -0.5918 0.0000
-0.8776 -0.5510 0.0000
-0.8776 -0.5102 0.0000
-0.8776 -0.4694 0.0000
-0.8776 -0.4286 0.0000
-0.8776 -0.3878 0.0000
-0.8776 -0.3469 0.0000
-0.8776 -0.3061 0.0000
-0.8776 -0.2653 0.0000
-0.8776 -0.2245 0.0000
-0.8776 -0.1837 0.0000
-0.8776 -0.1429 0.0000
-0.8776 -0.1020 0.0000
-0.8776 -0.0612 0.0000
-0.8776 -0.0204 0.0000
-0.8776 0.0204 0.0000
-0.8776 0.0612 0.0000
-0.8776 0.1020 0.0000
-0.8776 0.1429 0.0000
-0.8776 0.1837 0.0000
-0.8776 0.2245 0.0000
-0.8776 0.2653 0.0000
-0.8776 0.3061 0.0000
-0.8776 0.3469 0.0000
-0.8776 0.3878 0.0000
-0.8776 0.4286 0.0000
-0.8776 0.4694 0.0000
-0.8776 0.5102 0.0000
-0.8776 0.5510 0.0000
-0.8776 0.5918 0.0000
-0.8776 0.6327 0.0000
-0.8776 0.6735 0.0000
-0.8776 0.7143 0.0000
-0.8776 0.7551 0.0000
-0.8776 0.7959 0.0000
-0.8776 0.8367 0.0000
-0.8776 0.8776 0.0000
-0.8776 0.9184 0.0000
-0.8776 0.9592 0.0000
-0.8776 1.0000 0.0000
-0.8367 -0.9592 0.0000
-0.8367 -0.9184 0.0000
-0.8367 -0.8776 0.0000
-0.8367 -0.8367 0.0000
-0.8367 -0.7959 0.0000
-0.8367 -0.7551 0.0000
-0.8367 -0.7143 0.0000
-0.8367 -0.6735 0.0000
-0.8367 -0.6327 0.0000
-0.8367 -0.5918 0.0000
-0.8367 -0.5510 0.0000
-0.8367 -0.5102 0.0000
-0.8367 -0.4694 0.0000
-0.8367 -0.4286 0.0000
-0.8367 -0.3878 0.0000
-0.8367 -0.3469 0.0000
-0.8367 -0.3061 0.0000
-0.8367 -0.2653 0.0000
-0.8367 -0.2245 0.0000
-0.8367 -0.1837 0.0000
-0.8367 -0.1429 0.0000
-0.8367 -0.1020 0.0000
-0.8367 -0.0612 0.0000
-0.8367 -0.0204 0.0000
-0.8367 0.0204 0.0000
-0.8367 0.0612 0.0000
-0.8367 0.1020 0.0000
-0.8367 0.1429 0.0000
-0.8367 0.1837 0.0000
-0.8367 0.2245 0.0000
-0.8367 0.2653 0.0000
-0.8367 0.3061 0.0000
-0.8367 0.3469 0.0000
-0.8367 0.3878 0.0000
-0.8367 0.4286 0.0000
-0.8367 0.4694 0.0000
-0.8367 0.5102 0.0000
-0.8367 0.5510 0.0000
-0.8367 0.5918 0.0000
-0.8367 0.6327 0.0000
-0.8367 0.6735 0.0000
-0.8367 0.7143 0.0000
-0.8367 0.7551 0.0000
-0.8367 0.7959 0.0000
-0.8367 0.8367 0.0000
-0.8367 0.8776 0.0000
-0.8367 0.9184 0.0000
-0.8367 0.9592 0.0000
-0.8367 1.0000 0.0000
-0.7959 -0.9592 0.0000
-0.7959 -0.9184 0.0000
-0.7959 -0.8776 0.0000
-0.7959 -0.8367 0.0000
-0.7959 -0.7959 0.0000
-0.7959 -0.7551 0.0000
-0.7959 -0.7143 0.0000
-0.7959 -0.6735 0.0000
-0.7959 -0.6327 0.0000
-0.7959 -0.5918 0.0000
-0.7959 -0.5510 0.0000
-0.7959 -0.5102 0.0000
-0.7959 -0.4694 0.0000
-0.7959 -0.4286 0.0000
-0.7959 -0.3878 0.0000
-0.7959 -0.3469 0.0000
-0.7959 -0.3061 0.0000
-0.7959 -0.2653 0.0000
-0.7959 -0.2245 0.0000
-0.7959 -0.1837 0.0000
-0.7959 -0.1429 0.0000
-0.7959 -0.1020 0.0000
-0.7959 -0.0612 0.0000
-0.7959 -0.0204 0.0000
-0.7959 0.0204 0.0000
-0.7959 0.0612 0.0000
-0.7959 0.1020 0.0000
-0.7959 0.1429 0.0000
-0.7959 0.1837 0.0000
-0.7959 0.2245 0.0000
-0.7959 0.2653 0.0000
-0.7959 0.3061 0.0000
-0.7959 0.3469 0.0000
-0.7959 0.3878 0.0000
-0.7959 0.4286 0.0000
-0.7959 0.4694 0.0000
-0.7959 0.5102 0.0000
-0.7959 0.5510 0.0000
-0.7959 0.5918 0.0000
-0.7959 0.6327 0.0000
-0.7959 0.6735 0.0000
-0.7959 0.7143 0.0000
-0.7959 0.7551 0.0000
-0.7959 0.7959 0.0000
-0.7959 0.8367 0.0000
-0.7959 0.8776 0.0000
-0.7959 0.9184 0.0000
-0.7959 0.9592 0.0000
-0.7959 1.0000 0.0000
-0.7551 -0.9592 0.0000
-0.7551 -0.9184 0.0000
-0.7551 -0.8776 0.0000
-0.7551 -0.8367 0.0000
-0.7551 -0.7959 0.0000
-0.7551 -0.7551 0.0000
-0.7551 -0.7143 0.0000
-0.7551 -0.6735 0.0000
-0.7551 -0.6327 0.0000
-0.7551 -0.5918 0.0000
-0.7551 -0.5510 0.0000
-0.7551 -0.5102 0.0000
-0.7551 -0.4694 0.0000
-0.7551 -0.4286 0.0000
-0.7551 -0.3878 0.0000
-0.7551 -0.3469 0.0000
-0.7551 -0.3061 0.0000
-0.7551 -0.2653 0.0000
-0.7551 -0.2245 0.0000
-0.7551 -0.1837 0.0000
-0.7551 -0.1429 0.0000
-0.7551 -0.1020 0.0000
-0.7551 -0.0612 0.0000
-0.7551 -0.0204 0.0000
-0.7551 0.0204 0.0000
-0.7551 0.0612 0.0000
-0.7551 0.1020 0.0000
-0.7551 0.1429 0.0000
-0.7551 0.1837 0.0000
-0.7551 0.2245 0.0000
-0.7551 0.2653 0.0000
-0.7551 0.3061 0.0000
-0.7551 0.3469 0.0000
-0.7551 0.3878 0.0000
-0.7551 0.4286 0.0000
-0.7551 0.4694 0.0000
-0.7551 0.5102 0.0000
-0.7551 0.5510 0.0000
-0.7551 0.5918 0.0000
-0.7551 0.6327 0.0000
-0.7551 0.6735 0.0000
-0.7551 0.7143 0.0000
-0.7551 0.7551 0.0000
-0.7551 0.7959 0.0000
-0.7551 0.8367 0.0000
-0.7551 0.8776 0.0000
-0.7551 0.9184 0.0000
-0.7551 0.9592 0.0000
-0.7551 1.0000 0.0000
-0.7143 -0.9592 0.0000
-0.7143 -0.9184 0.0000
-0.7143 -0.8776 0.0000
-0.7143 -0.8367 0.0000
-0.7143 -0.7959 0.0000
-0.7143 -0.7551 0.0000
-0.7143 -0.7143 0.0000
-0.7143 -0.6735 0.0000
-0.7143 -0.6327 0.0000
-0.7143 -0.5918 0.0000
-0.7143 -0.5510 0.0000
-0.7143 -0.5102 0.0000
-0.7143 -0.4694 0.0000
-0.7143 -0.4286 0.0000
-0.7143 -0.3878 0.0000
-0.7143 -0.3469 0.0000
-0.7143 -0.3061 0.0000
-0.7143 -0.2653 0.0000
-0.7143 -0.2245 0.0000
-0.7143 -0.1837 0.0000
-0.7143 -0.1429 0.0000
-0.7143 -0.1020 0.0000
-0.7143 -0.0612 0.0000
-0.7143 -0.0204 0.0000
-0.7143 0.0204 0.0000
-0.7143 0.0612 0.0000
-0.7143 0.1020 0.0000
-0.7143 0.1429 0.0000
-0.7143 0.1837 0.0000
-0.7143 0.2245 0.0000
-0.7143 0.2653 0.0000
-0.7143 0.3061 0.0000
-0.7143 0.3469 0.0000
-0.7143 0.3878 0.0000
-0.7143 0.4286 0.0000
-0.7143 0.4694 0.0000
-0.7143 0.5102 0.0000
-0.7143 0.5510 0.0000
-0.7143 0.5918 0.0000
-0.7143 0.6327 0.0000
-0.7143 0.6735 0.0000
-0.7143 0.7143 0.0000
-0.7143 0.7551 0.0000
-0.7143 0.7959 0.0000
-0.7143 0.8367 0.0000
-0.7143 0.8776 0.0000
-0.7143 0.9184 0.0000
-0.7143 0.9592 0.0000
-0.7143 1.0000 0.0000
-0.6735 -0.9592 0.0000
-0.6735 -0.9184 0.0000
-0.6735 -0.8776 0.0000
-0.6735 -0.8367 0.0000
-0.6735 -0.7959 0.0000
-0.6735 -0.7551 0.0000
-0.6735 -0.7143 0.0000
-0.6735 -0.6735 0.0000
-0.6735 -0.6327 0.0000
-0.6735 -0.5918 0.0000
-0.6735 -0.5510 0.0000
-0.6735 -0.5102 0.0000
-0.6735 -0.4694 0.0000
-0.6735 -0.4286 0.0000
-0.6735 -0.3878 0.0000
-0.6735 -0.3469 0.0000
-0.6735 -0.3061 0.0000
-0.6735 -0.2653 0.0000
-0.6735 -0.2245 0.0000
-0.6735 -0.1837 0.0000
-0.6735 -0.1429 0.0000
-0.6735 -0.1020 0.0000
-0.6735 -0.0612 0.0000
-0.6735 -0.0204 0.0000
-0.6735 0.0204 0.0000
-0.6735 0.0612 0.0000
-0.6735 0.1020 0.0000
-0.6735 0.1429 0.0000
-0.6735 0.1837 0.0000
-0.6735 0.2245 0.0000
-0.6735 0.2653 0.0000
-0.6735 0.3061 0.0000
-0.6735 0.3469 0.0000
-0.6735 0.3878 0.0000
-0.6735 0.4286 0.0000
-0.6735 0.4694 0.0000
-0.6735 0.5102 0.0000
-0.6735 0.5510 0.0000
-0.6735 0.5918 0.0000
[...]
         <PointData>
            <DataArray Name="fValues" NumberOfComponents="3" format="ascii" type="Float64">
 2.91933e-19  9.79592e-01        00000 
-4.34738e-19  9.59184e-01        00000 
 2.19277e-19  9.38776e-01        00000 
 2.17369e-19  9.18367e-01        00000 
-6.82771e-19  8.97959e-01        00000 
-2.17369e-19  8.77551e-01        00000 
 1.16490e-19  8.57143e-01        00000 
-5.43423e-19  8.36735e-01        00000 
 4.54043e-19  8.16327e-01        00000 
 5.43423e-19  7.95918e-01        00000 
-4.18638e-19  7.75510e-01        00000 
-2.17369e-19  7.55102e-01        00000 
 8.63706e-19  7.34694e-01        00000 
 3.80396e-19  7.14286e-01        00000 
 2.19276e-19  6.93878e-01        00000 
-6.52108e-19  6.73469e-01        00000 
 7.85187e-19  6.53061e-01        00000 
-7.60792e-19  6.32653e-01        00000 
 9.25928e-19  6.12245e-01        00000 
 5.43423e-20  5.91837e-01        00000 
-2.18487e-19  5.71429e-01        00000 
 4.34738e-19  5.51020e-01        00000 
-1.02870e-19  5.30612e-01        00000 
-8.15134e-19  5.10204e-01        00000 
 6.14494e-20  4.89796e-01        00000 
-5.97765e-19  4.69388e-01        00000 
 1.31459e-18  4.48980e-01        00000 
-3.80396e-19  4.28571e-01        00000 
 2.83350e-19  4.08163e-01        00000 
       00000  3.87755e-01        00000 
 9.82371e-19  3.67347e-01        00000 
-8.69477e-19  3.46939e-01        00000 
 8.87603e-19  3.26531e-01        00000 
 4.89081e-19  3.06122e-01        00000 
 2.44973e-19  2.85714e-01        00000 
 8.15134e-19  2.65306e-01        00000 
 2.56039e-19  2.44898e-01        00000 
-4.34738e-19  2.24490e-01        00000 
-1.37048e-20  2.04082e-01        00000 
-4.89081e-19  1.83673e-01        00000 
 2.15073e-19  1.63265e-01        00000 
-8.15134e-19  1.42857e-01        00000 
 1.27197e-19  1.22449e-01        00000 
-4.89081e-19  1.02041e-01        00000 
 2.38970e-19  8.16327e-02        00000 
-1.08685e-19  6.12245e-02        00000 
-5.48230e-20  4.08163e-02        00000 
 1.91829e-19  2.04082e-02        00000 
-2.35004e-19  2.35793e-17        00000 
 1.49937e-03  9.60671e-01        00000 
 2.25757e-03  9.41172e-01        00000 
 2.81473e-03  9.21436e-01        00000 
 3.25682e-03  9.01578e-01        00000 
 3.62529e-03  8.81644e-01        00000 
 3.94029e-03  8.61660e-01        00000 
 4.21377e-03  8.41640e-01        00000 
 4.45346e-03  8.21595e-01        00000 
 4.66471e-03  8.01529e-01        00000 
 4.85144e-03  7.81449e-01        00000 
 5.01660e-03  7.61357e-01        00000 
 5.16247e-03  7.41256e-01        00000 
 5.29089e-03  7.21148e-01        00000 
 5.40335e-03  7.01034e-01        00000 
 5.50108e-03  6.80917e-01        00000 
 5.58514e-03  6.60798e-01        00000 
 5.65645e-03  6.40676e-01        00000 
 5.71582e-03  6.20554e-01        00000 
 5.76399e-03  6.00431e-01        00000 
 5.80165e-03  5.80309e-01        00000 
 5.82943e-03  5.60187e-01        00000 
 5.84791e-03  5.40067e-01        00000 
 5.85758e-03  5.19949e-01        00000 
 5.85889e-03  4.99832e-01        00000 
 5.85218e-03  4.79716e-01        00000 
 5.83766e-03  4.59602e-01        00000 
 5.81542e-03  4.39488e-01        00000 
 5.78543e-03  4.19376e-01        00000 
 5.74747e-03  3.99264e-01        00000 
 5.70120e-03  3.79152e-01        00000 
 5.64614e-03  3.59041e-01        00000 
 5.58162e-03  3.38930e-01        00000 
 5.50688e-03  3.18819e-01        00000 
 5.42099e-03  2.98709e-01        00000 
 5.32287e-03  2.78601e-01        00000 
 5.21127e-03  2.58495e-01        00000 
 5.08476e-03  2.38393e-01        00000 
 4.94163e-03  2.18296e-01        00000 
 4.77989e-03  1.98206e-01        00000 
 4.59707e-03  1.78127e-01        00000 
 4.39011e-03  1.58060e-01        00000 
 4.15502e-03  1.38012e-01        00000 
 3.88641e-03  1.17989e-01        00000 
 3.57658e-03  9.80006e-02        00000 
 3.21370e-03  7.80611e-02        00000 
 2.77789e-03  5.81957e-02        00000 
 2.22825e-03  3.84514e-02        00000 
 1.47997e-03  1.89399e-02        00000 
 4.60633e-19 -8.12946e-18        00000 
 2.43195e-03  9.41029e-01        00000 
 4.05986e-03  9.22403e-01        00000 
 5.24160e-03  9.03401e-01        00000 
 6.17709e-03  8.84164e-01        00000 
 6.95020e-03  8.64770e-01        00000 
 7.60656e-03  8.45269e-01        00000 
 8.17315e-03  8.25690e-01        00000 
 8.66744e-03  8.06052e-01        00000 
 9.10145e-03  7.86371e-01        00000 
 9.48386e-03  7.66656e-01        00000 
 9.82117e-03  7.46915e-01        00000 
 1.01184e-02  7.27152e-01        00000 
 1.03795e-02  7.07374e-01        00000 
 1.06076e-02  6.87583e-01        00000 
 1.08055e-02  6.67783e-01        00000 
 1.09753e-02  6.47975e-01        00000 
 1.11189e-02  6.28163e-01        00000 
 1.12381e-02  6.08347e-01        00000 
 1.13345e-02  5.88531e-01        00000 
 1.14094e-02  5.68714e-01        00000 
 1.14643e-02  5.48898e-01        00000 
 1.15004e-02  5.29083e-01        00000 
 1.15188e-02  5.09271e-01        00000 
 1.15205e-02  4.89462e-01        00000 
 1.15061e-02  4.69655e-01        00000 
 1.14763e-02  4.49850e-01        00000 
 1.14312e-02  4.30048e-01        00000 
 1.13708e-02  4.10247e-01        00000 
 1.12945e-02  3.90448e-01        00000 
 1.12017e-02  3.70650e-01        00000 
 1.10914e-02  3.50853e-01        00000 
 1.09620e-02  3.31058e-01        00000 
 1.08119e-02  3.11265e-01        00000 
 1.06392e-02  2.91475e-01        00000 
 1.04415e-02  2.71690e-01        00000 
 1.02161e-02  2.51912e-01        00000 
 9.95992e-03  2.32144e-01        00000 
 9.66932e-03  2.12388e-01        00000 
 9.33993e-03  1.92650e-01        00000 
 8.96638e-03  1.72936e-01        00000 
 8.54191e-03  1.53252e-01        00000 
 8.05767e-03  1.33610e-01        00000 
 7.50160e-03  1.14023e-01        00000 
 6.85633e-03  9.45115e-02        00000 
 6.09515e-03  7.51059e-02        00000 
 5.17303e-03  5.58534e-02        00000 
 4.00726e-03  3.68337e-02        00000 
 2.40061e-03  1.81844e-02        00000 
 1.04969e-19  3.96128e-18        00000 
 3.13344e-03  9.21207e-01        00000 
 5.49188e-03  9.03235e-01        00000 
 7.30802e-03  8.84900e-01        00000 
 8.76184e-03  8.66278e-01        00000 
 9.96569e-03  8.47444e-01        00000 
 1.09857e-02  8.28455e-01        00000 
 1.18636e-02  8.09348e-01        00000 
 1.26271e-02  7.90152e-01        00000 
 1.32957e-02  7.70887e-01        00000 
 1.38832e-02  7.51567e-01        00000 
 1.44003e-02  7.32205e-01        00000 
 1.48550e-02  7.12809e-01        00000 
 1.52536e-02  6.93386e-01        00000 
 1.56013e-02  6.73942e-01        00000 
 1.59022e-02  6.54481e-01        00000 
 1.61599e-02  6.35008e-01        00000 
 1.63774e-02  6.15526e-01        00000 
 1.65573e-02  5.96037e-01        00000 
 1.67023e-02  5.76545e-01        00000 
 1.68145e-02  5.57052e-01        00000 
 1.68961e-02  5.37559e-01        00000 
 1.69492e-02  5.18067e-01        00000 
 1.69755e-02  4.98578e-01        00000 
 1.69766e-02  4.79093e-01        00000 
 1.69538e-02  4.59610e-01        00000 
 1.69079e-02  4.40131e-01        00000 
 1.68393e-02  4.20655e-01        00000 
 1.67478e-02  4.01183e-01        00000 
 1.66327e-02  3.81712e-01        00000 
 1.64930e-02  3.62245e-01        00000 
 1.63267e-02  3.42781e-01        00000 
 1.61318e-02  3.23320e-01        00000 
 1.59054e-02  3.03864e-01        00000 
 1.56444e-02  2.84414e-01        00000 
 1.53451e-02  2.64974e-01        00000 
 1.50031e-02  2.45547e-01        00000 
 1.46135e-02  2.26136e-01        00000 
 1.41704e-02  2.06748e-01        00000 
 1.36667e-02  1.87389e-01        00000 
 1.30940e-02  1.68068e-01        00000 
 1.24411e-02  1.48798e-01        00000 
 1.16939e-02  1.29593e-01        00000 
 1.08329e-02  1.10474e-01        00000 
 9.83050e-03  9.14687e-02        00000 
 8.64547e-03  7.26160e-02        00000 
 7.21254e-03  5.39711e-02        00000 
 5.42096e-03  3.56089e-02        00000 
 3.09324e-03  1.76052e-02        00000 
 2.86319e-19 -1.21891e-18        00000 
 3.71131e-03  9.01292e-01        00000 
 6.68474e-03  8.83868e-01        00000 
 9.08067e-03  8.66108e-01        00000 
 1.10443e-02  8.48059e-01        00000 
 1.26856e-02  8.29772e-01        00000 
 1.40808e-02  8.11299e-01        00000 
 1.52822e-02  7.92679e-01        00000 
 1.63263e-02  7.73943e-01        00000 
 1.72393e-02  7.55115e-01        00000 
 1.80404e-02  7.36214e-01        00000 
 1.87444e-02  7.17254e-01        00000 
 1.93625e-02  6.98246e-01        00000 
 1.99037e-02  6.79201e-01        00000 
 2.03749e-02  6.60124e-01        00000 
 2.07821e-02  6.41024e-01        00000 
 2.11302e-02  6.21905e-01        00000 
 2.14232e-02  6.02772e-01        00000 
 2.16651e-02  5.83628e-01        00000 
 2.18592e-02  5.64479e-01        00000 
 2.20088e-02  5.45326e-01        00000 
 2.21169e-02  5.26172e-01        00000 
 2.21863e-02  5.07019e-01        00000 
 2.22197e-02  4.87869e-01        00000 
 2.22194e-02  4.68723e-01        00000 
 2.21872e-02  4.49581e-01        00000 
 2.21244e-02  4.30443e-01        00000 
 2.20314e-02  4.11310e-01        00000 
 2.19083e-02  3.92181e-01        00000 
 2.17539e-02  3.73055e-01        00000 
 2.15666e-02  3.53935e-01        00000 
 2.13439e-02  3.34819e-01        00000 
 2.10827e-02  3.15710e-01        00000 
 2.07789e-02  2.96608e-01        00000 
 2.04280e-02  2.77517e-01        00000 
 2.00249e-02  2.58441e-01        00000 
 1.95634e-02  2.39384e-01        00000 
 1.90365e-02  2.20351e-01        00000 
 1.84360e-02  2.01351e-01        00000 
 1.77520e-02  1.82392e-01        00000 
 1.69725e-02  1.63488e-01        00000 
 1.60821e-02  1.44651e-01        00000 
 1.50613e-02  1.25901e-01        00000 
 1.38837e-02  1.07263e-01        00000 
 1.25130e-02  8.87679e-02        00000 
 1.08977e-02  7.04554e-02        00000 
 8.96244e-03  5.23753e-02        00000 
 6.59888e-03  3.45814e-02        00000 
 3.66403e-03  1.71180e-02        00000 
-2.04510e-19 -1.19427e-18        00000 
 4.20909e-03  8.81325e-01        00000 
 7.71217e-03  8.64382e-01        00000 
 1.06270e-02  8.47135e-01        00000 
 1.30692e-02  8.29610e-01        00000 
 1.51370e-02  8.11844e-01        00000 
 1.69069e-02  7.93876e-01        00000 
 1.84360e-02  7.75744e-01        00000 
 1.97666e-02  7.57476e-01        00000 
 2.09304e-02  7.39098e-01        00000 
 2.19514e-02  7.20630e-01        00000 
 2.28481e-02  7.02089e-01        00000 
 2.36347e-02  6.83487e-01        00000 
 2.43228e-02  6.64837e-01        00000 
 2.49214e-02  6.46146e-01        00000 
 2.54380e-02  6.27424e-01        00000 
 2.58788e-02  6.08676e-01        00000 
 2.62494e-02  5.89908e-01        00000 
 2.65544e-02  5.71127e-01        00000 
 2.67983e-02  5.52336e-01        00000 
 2.69853e-02  5.33539e-01        00000 
 2.71195e-02  5.14740e-01        00000 
 2.72045e-02  4.95941e-01        00000 
 2.72441e-02  4.77145e-01        00000 
 2.72413e-02  4.58353e-01        00000 
 2.71987e-02  4.39566e-01        00000 
 2.71180e-02  4.20784e-01        00000 
 2.70000e-02  4.02008e-01        00000 
 2.68445e-02  3.83237e-01        00000 
 2.66504e-02  3.64473e-01        00000 
 2.64151e-02  3.45714e-01        00000 
 2.61355e-02  3.26962e-01        00000 
 2.58072e-02  3.08220e-01        00000 
 2.54251e-02  2.89489e-01        00000 
 2.49830e-02  2.70773e-01        00000 
 2.44742e-02  2.52076e-01        00000 
 2.38907e-02  2.33405e-01        00000 
 2.32233e-02  2.14767e-01        00000 
 2.24615e-02  1.96171e-01        00000 
 2.15924e-02  1.77629e-01        00000 
 2.06007e-02  1.59153e-01        00000 
 1.94672e-02  1.40762e-01        00000 
 1.81673e-02  1.22474e-01        00000 
 1.66694e-02  1.04317e-01        00000 
 1.49313e-02  8.63211e-02        00000 
 1.28965e-02  6.85220e-02        00000 
 1.04896e-02  5.09596e-02        00000 
 7.61403e-03  3.36713e-02        00000 
 4.15604e-03  1.66829e-02        00000 
 2.86319e-19  7.37412e-19        00000 
 4.64886e-03  8.61324e-01        00000 
 8.61687e-03  8.44820e-01        00000 
 1.19955e-02  8.28041e-01        00000 
 1.48784e-02  8.11001e-01        00000 
 1.73508e-02  7.93728e-01        00000 
 1.94847e-02  7.76249e-01        00000 
 2.13378e-02  7.58597e-01        00000 
 2.29551e-02  7.40797e-01        00000 
 2.43721e-02  7.22874e-01        00000 
 2.56163e-02  7.04849e-01        00000 
 2.67093e-02  6.86738e-01        00000 
 2.76682e-02  6.68556e-01        00000 
 2.85066e-02  6.50314e-01        00000 
 2.92357e-02  6.32025e-01        00000 
 2.98645e-02  6.13695e-01        00000 
 3.04004e-02  5.95333e-01        00000 
 3.08501e-02  5.76946e-01        00000 
 3.12193e-02  5.58541e-01        00000 
 3.15136e-02  5.40122e-01        00000 
 3.17380e-02  5.21695e-01        00000 
 3.18976e-02  5.03265e-01        00000 
 3.19974e-02  4.84834e-01        00000 
 3.20420e-02  4.66405e-01        00000 
 3.20354e-02  4.47982e-01        00000 
 3.19811e-02  4.29564e-01        00000 
 3.18814e-02  4.11152e-01        00000 
 3.17376e-02  3.92747e-01        00000 
 3.15493e-02  3.74350e-01        00000 
 3.13150e-02  3.55959e-01        00000 
 3.10317e-02  3.37577e-01        00000 
 3.06950e-02  3.19203e-01        00000 
 3.02994e-02  3.00842e-01        00000 
 2.98384e-02  2.82495e-01        00000 
 2.93043e-02  2.64167e-01        00000 
 2.86886e-02  2.45864e-01        00000 
 2.79813e-02  2.27593e-01        00000 
 2.71714e-02  2.09362e-01        00000 
 2.62457e-02  1.91182e-01        00000 
 2.51890e-02  1.73066e-01        00000 
 2.39827e-02  1.55027e-01        00000 
 2.26043e-02  1.37085e-01        00000 
 2.10256e-02  1.19259e-01        00000 
 1.92112e-02  1.01575e-01        00000 
 1.71162e-02  8.40609e-02        00000 
 1.46835e-02  6.67467e-02        00000 
 1.18423e-02  4.96632e-02        00000 
 8.50883e-03  3.28360e-02        00000 
 4.59121e-03  1.62811e-02        00000 
-1.95644e-19 -1.13956e-18        00000 
 5.04315e-03  8.41300e-01        00000 
 9.42489e-03  8.25207e-01        00000 
 1.32197e-02  8.08864e-01        00000 
 1.65053e-02  7.92280e-01        00000 
 1.93556e-02  7.75474e-01        00000 
 2.18365e-02  7.58467e-01        00000 
 2.40035e-02  7.41283e-01        00000 
 2.59026e-02  7.23947e-01        00000 
 2.75710e-02  7.06480e-01        00000 
 2.90384e-02  6.88902e-01        00000 
 3.03290e-02  6.71229e-01        00000 
 3.14620e-02  6.53475e-01        00000 
 3.24532e-02  6.35655e-01        00000 
 3.33151e-02  6.17777e-01        00000 
 3.40581e-02  5.99853e-01        00000 
 3.46910e-02  5.81890e-01        00000 
 3.52213e-02  5.63896e-01        00000 
 3.56557e-02  5.45879e-01        00000 
 3.60006e-02  5.27846e-01        00000 
 3.62620e-02  5.09801e-01        00000 
 3.64463e-02  4.91751e-01        00000 
 3.65595e-02  4.73701e-01        00000 
 3.66074e-02  4.55653e-01        00000 
 3.65953e-02  4.37610e-01        00000 
 3.65278e-02  4.19574e-01        00000 
 3.64080e-02  4.01546e-01        00000 
 3.62375e-02  3.83525e-01        00000 
 3.60160e-02  3.65514e-01        00000 
 3.57416e-02  3.47510e-01        00000 
 3.54104e-02  3.29516e-01        00000 
 3.50169e-02  3.11534e-01        00000 
 3.45544e-02  2.93565e-01        00000 
 3.40147e-02  2.75614e-01        00000 
 3.33885e-02  2.57686e-01        00000 
 3.26655e-02  2.39787e-01        00000 
 3.18340e-02  2.21926e-01        00000 
 3.08808e-02  2.04112e-01        00000 
 2.97906e-02  1.86356e-01        00000 
 2.85459e-02  1.68671e-01        00000 
 2.71257e-02  1.51073e-01        00000 
 2.55048e-02  1.33580e-01        00000 
 2.36526e-02  1.16211e-01        00000 
 2.15318e-02  9.89884e-02        00000 
 1.90967e-02  8.19377e-02        00000 
 1.62924e-02  6.50833e-02        00000 
 1.30541e-02  4.84485e-02        00000 
 9.30930e-03  3.20512e-02        00000 
 4.98210e-03  1.59017e-02        00000 
 7.60190e-20  1.69574e-18        00000 
 5.39970e-03  8.21260e-01        00000 
 1.01529e-02  8.05558e-01        00000 
 1.43227e-02  7.89629e-01        00000 
 1.79753e-02  7.73478e-01        00000 
 2.11753e-02  7.57118e-01        00000 
 2.39826e-02  7.40566e-01        00000 
 2.64495e-02  7.23840e-01        00000 
 2.86212e-02  7.06962e-01        00000 
 3.05354e-02  6.89949e-01        00000 
 3.22231e-02  6.72819e-01        00000 
 3.37102e-02  6.55588e-01        00000 
 3.50176e-02  6.38270e-01        00000 
 3.61623e-02  6.20878e-01        00000 
 3.71583e-02  6.03422e-01        00000 
 3.80171e-02  5.85912e-01        00000 
 3.87484e-02  5.68359e-01        00000 
 3.93604e-02  5.50769e-01        00000 
 3.98606e-02  5.33152e-01        00000 
 4.02561e-02  5.15514e-01        00000 
 4.05539e-02  4.97863e-01        00000 
 4.07615e-02  4.80205e-01        00000 
 4.08861e-02  4.62545e-01        00000 
 4.09352e-02  4.44888e-01        00000 
 4.09155e-02  4.27238e-01        00000 
 4.08328e-02  4.09596e-01        00000 
 4.06915e-02  3.91963e-01        00000 
 4.04935e-02  3.74339e-01        00000 
 4.02387e-02  3.56725e-01        00000 
 3.99246e-02  3.39120e-01        00000 
 3.95463e-02  3.21527e-01        00000 
 3.90972e-02  3.03945e-01        00000 
 3.85688e-02  2.86380e-01        00000 
 3.79514e-02  2.68835e-01        00000 
 3.72340e-02  2.51316e-01        00000 
 3.64045e-02  2.33830e-01        00000 
 3.54494e-02  2.16387e-01        00000 
 3.43537e-02  1.98995e-01        00000 
 3.31004e-02  1.81668e-01        00000 
 3.16699e-02  1.64418e-01        00000 
 3.00394e-02  1.47261e-01        00000 
 2.81819e-02  1.30212e-01        00000 
 2.60654e-02  1.13292e-01        00000 
 2.36521e-02  9.65196e-02        00000 
 2.08972e-02  7.99157e-02        00000 
 1.77487e-02  6.35005e-02        00000 
 1.41482e-02  4.72915e-02        00000 
 1.00323e-02  3.13017e-02        00000 
 5.33653e-03  1.55380e-02        00000 
-3.03473e-19  6.05046e-19        00000 
 5.72359e-03  8.01208e-01        00000 
 1.08122e-02  7.85884e-01        00000 
 1.53209e-02  7.70352e-01        00000 
 1.93075e-02  7.54617e-01        00000 
 2.28294e-02  7.38687e-01        00000 
 2.59408e-02  7.22576e-01        00000 
 2.86909e-02  7.06298e-01        00000 
 3.11230e-02  6.89869e-01        00000 
 3.32745e-02  6.73306e-01        00000 
 3.51771e-02  6.56624e-01        00000 
 3.68573e-02  6.39838e-01        00000 
 3.83372e-02  6.22960e-01        00000 
 3.96350e-02  6.06002e-01        00000 
 4.07655e-02  5.88976e-01        00000 
 4.17409e-02  5.71890e-01        00000 
 4.25716e-02  5.54755e-01        00000 
 4.32661e-02  5.37578e-01        00000 
 4.38325e-02  5.20369e-01        00000 
 4.42783e-02  5.03136e-01        00000 
 4.46115e-02  4.85887e-01        00000 
 4.48404e-02  4.68629e-01        00000 
 4.49740e-02  4.51370e-01        00000 
 4.50213e-02  4.34115e-01        00000 
 4.49910e-02  4.16867e-01        00000 
 4.48908e-02  3.99629e-01        00000 
 4.47261e-02  3.82402e-01        00000 
 4.44999e-02  3.65186e-01        00000 
 4.42120e-02  3.47980e-01        00000 
 4.38592e-02  3.30784e-01        00000 
 4.34356e-02  3.13600e-01        00000 
 4.29327e-02  2.96430e-01        00000 
 4.23405e-02  2.79276e-01        00000 
 4.16474e-02  2.62144e-01        00000 
 4.08407e-02  2.45042e-01        00000 
 3.99064e-02  2.27975e-01        00000 
 3.88297e-02  2.10955e-01        00000 
 3.75939e-02  1.93991e-01        00000 
 3.61805e-02  1.77095e-01        00000 
 3.45686e-02  1.60280e-01        00000 
 3.27339e-02  1.43561e-01        00000 
 3.06485e-02  1.26954e-01        00000 
 2.82800e-02  1.10474e-01        00000 
 2.55907e-02  9.41402e-02        00000 
 2.25376e-02  7.79689e-02        00000 
 1.90721e-02  6.19763e-02        00000 
 1.51413e-02  4.61760e-02        00000 
 1.06891e-02  3.05775e-02        00000 
 5.65969e-03  1.51857e-02        00000 
 6.19442e-19 -1.56480e-18        00000 
 6.01824e-03  7.81148e-01        00000 
 1.14104e-02  7.66191e-01        00000 
 1.62258e-02  7.51044e-01        00000 
 2.05162e-02  7.35712e-01        00000 
 2.43331e-02  7.20200e-01        00000 
 2.77261e-02  7.04517e-01        00000 
 3.07410e-02  6.88677e-01        00000 