<?xml version="1.0" encoding="utf-8"?>
<VTKFile byte_order="LittleEndian" type="UnstructuredGrid" version="0.1">
   <UnstructuredGrid>
      <Piece NumberOfCells="9576" NumberOfPoints="4908">
         <Points>
            <DataArray Name="Points" NumberOfComponents="3" format="ascii" type="Float32">
-1.0000 -0.9592 0.0000
-1.0000 -0.9184 0.0000
-1.0000 -0.8776 0.0000
-1.0000 -0.8367 0.0000
-1.0000 -0.7959 0.0000
-1.0000 -0.7551 0.0000
-1.0000 -0.7143 0.0000
-1.0000 -0.6735 0.0000
-1.0000 -0.6327 0.0000
-1.0000 -0.5918 0.0000
-1.0000 -0.5510 0.0000
-1.0000 -0.5102 0.0000
-1.0000 -0.4694 0.0000
-1.0000 -0.4286 0.0000
-1.0000 -0.3878 0.0000
-1.0000 -0.3469 0.0000
-1.0000 -0.3061 0.0000
-1.0000 -0.2653 0.0000
-1.0000 -0.2245 0.0000
-1.0000 -0.1837 0.0000
-1.0000 -0.1429 0.0000
-1.0000 -0.1020 0.0000
-1.0000 -0.0612 0.0000
-1.0000 -0.0204 0.0000
-1.0000 0.0204 0.0000
-1.0000 0.0612 0.0000
-1.0000 0.1020 0.0000
-1.0000 0.1429 0.0000
-1.0000 0.1837 0.0000
-1.0000 0.2245 0.0000
-1.0000 0.2653 0.0000
-1.0000 0.3061 0.0000
-1.0000 0.3469 0.0000
-1.0000 0.3878 0.0000
-1.0000 0.4286 0.0000
-1.0000 0.4694 0.0000
-1.0000 0.5102 0.0000
-1.0000 0.5510 0.0000
-1.0000 0.5918 0.0000
-1.0000 0.6327 0.0000
-1.0000 0.6735 0.0000
-1.0000 0.7143 0.0000
-1.0000 0.7551 0.0000
-1.0000 0.7959 0.0000
-1.0000 0.8367 0.0000
-1.0000 0.8776 0.0000
-1.0000 0.9184 0.0000
-1.0000 0.9592 0.0000
-1.0000 1.0000 0.0000
-0.9592 -0.9592 0.0000
-0.9592 -0.9184 0.0000
-0.9592 -0.8776 0.0000
-0.9592 -0.8367 0.0000
-0.9592 -0.7959 0.0000
-0.9592 -0.7551 0.0000
-0.9592 -0.7143 0.0000
-0.9592 -0.6735 0.0000
-0.9592 -0.6327 0.0000
-0.9592 -0.5918 0.0000
-0.9592 -0.5510 0.0000
-0.9592 -0.5102 0.0000
-0.9592 -0.4694 0.0000
-0.9592 -0.4286 0.0000
-0.9592 -0.3878 0.0000
-0.9592 -0.3469 0.0000
-0.9592 -0.3061 0.0000
-0.9592 -0.2653 0.0000
-0.9592 -0.2245 0.0000
-0.9592 -0.1837 0.0000
-0.9592 -0.1429 0.0000
-0.9592 -0.1020 0.0000
-0.9592 -0.0612 0.0000
-0.9592 -0.0204 0.0000
-0.9592 0.0204 0.0000
-0.9592 0.0612 0.0000
-0.9592 0.1020 0.0000
-0.9592 0.1429 0.0000
-0.9592 0.1837 0.0000
-0.9592 0.2245 0.0000
-0.9592 0.2653 0.0000
-0.9592 0.3061 0.0000
-0.9592 0.3469 0.0000
-0.9592 0.3878 0.0000
-0.9592 0.4286 0.0000
-0.9592 0.4694 0.0000
-0.9592 0.5102 0.0000
-0.9592 0.5510 0.0000
-0.9592 0.5918 0.0000
-0.9592 0.6327 0.0000
-0.9592 0.6735 0.0000
-0.9592 0.7143 0.0000
-0.9592 0.7551 0.0000
-0.9592 0.7959 0.0000
-0.9592 0.8367 0.0000
-0.9592 0.8776 0.0000
-0.9592 0.9184 0.0000
-0.9592 0.9592 0.0000
-0.9592 1.0000 0.0000
-0.9184 -0.9592 0.0000
-0.9184 -0.9184 0.0000
-0.9184 -0.8776 0.0000
-0.9184 -0.8367 0.0000
-0.9184 -0.7959 0.0000
-0.9184 -0.7551 0.0000
-0.9184 -0.7143 0.0000
-0.9184 -0.6735 0.0000
-0.9184 -0.6327 0.0000
-0.9184 -0.5918 0.0000
-0.9184 -0.5510 0.0000
-0.9184 -0.5102 0.0000
-0.9184 -0.4694 0.0000
-0.9184 -0.4286 0.0000
-0.9184 -0.3878 0.0000
-0.9184 -0.3469 0.0000
-0.9184 -0.3061 0.0000
-0.9184 -0.2653 0.0000
-0.9184 -0.2245 0.0000
-0.9184 -0.1837 0.0000
-0.9184 -0.1429 0.0000
-0.9184 -0.1020 0.0000
-0.9184 -0.0612 0.0000
-0.9184 -0.0204 0.0000
-0.9184 0.0204 0.0000
-0.9184 0.0612 0.0000
-0.9184 0.1020 0.0000
-0.9184 0.1429 0.0000
-0.9184 0.1837 0.0000
-0.9184 0.2245 0.0000
-0.9184 0.2653 0.0000
-0.9184 0.3061 0.0000
-0.9184 0.3469 0.0000
-0.9184 0.3878 0.0000
-0.9184 0.4286 0.0000
-0.9184 0.4694 0.0000
-0.9184 0.5102 0.0000
-0.9184 0.5510 0.0000
-0.9184 0.5918 0.0000
-0.9184 0.6327 0.0000
-0.9184 0.6735 0.0000
-0.9184 0.7143 0.0000
-0.9184 0.7551 0.0000
-0.9184 0.7959 0.0000
-0.9184 0.8367 0.0000
-0.9184 0.8776 0.0000
-0.9184 0.9184 0.0000
-0.9184 0.9592 0.0000
-0.9184 1.0000 0.0000
-0.8776 -0.9592 0.0000
-0.8776 -0.9184 0.0000
-0.8776 -0.8776 0.0000
-0.8776 -0.8367 0.0000
-0.8776 -0.7959 0.0000
-0.8776 -0.7551 0.0000
-0.8776 -0.7143 0.0000
-0.8776 -0.6735 0.0000
-0.8776 -0.6327 0.0000
-0.8776 -0.5918 0.0000
-0.8776 -0.5510 0.0000
-0.8776 -0.5102 0.0000
-0.8776 -0.4694 0.0000
-0.8776 -0.4286 0.0000
-0.8776 -0.3878 0.0000
-0.8776 -0.3469 0.0000
-0.8776 -0.3061 0.0000
-0.8776 -0.2653 0.0000
-0.8776 -0.2245 0.0000
-0.8776 -0.1837 0.0000
-0.8776 -0.1429 0.0000
-0.8776 -0.1020 0.0000
-0.8776 -0.0612 0.0000
-0.8776 -0.0204 0.0000
-0.8776 0.0204 0.0000
-0.8776 0.0612 0.0000
-0.8776 0.1020 0.0000
-0.8776 0.1429 0.0000
-0.8776 0.1837 0.0000
-0.8776 0.2245 0.0000
-0.8776 0.2653 0.0000
-0.8776 0.3061 0.0000
-0.8776 0.3469 0.0000
-0.8776 0.3878 0.0000
-0.8776 0.4286 0.0000
-0.8776 0.4694 0.0000
-0.8776 0.5102 0.0000
-0.8776 0.5510 0.0000
-0.8776 0.5918 0.0000
-0.8776 0.6327 0.0000
-0.8776 0.6735 0.0000
-0.8776 0.7143 0.0000
-0.8776 0.7551 0.0000
-0.8776 0.7959 0.0000
-0.8776 0.8367 0.0000
-0.8776 0.8776 0.0000
-0.8776 0.9184 0.0000
-0.8776 0.9592 0.0000
-0.8776 1.0000 0.0000
-0.8367 -0.9592 0.0000
-0.8367 -0.9184 0.0000
-0.8367 -0.8776 0.0000
-0.8367 -0.8367 0.0000
-0.8367 -0.7959 0.0000
-0.8367 -0.7551 0.0000
-0.8367 -0.7143 0.0000
-0.8367 -0.6735 0.0000
-0.8367 -0.6327 0.0000
-0.8367 -0.5918 0.0000
-0.8367 -0.5510 0.0000
-0.8367 -0.5102 0.0000
-0.8367 -0.4694 0.0000
-0.8367 -0.4286 0.0000
-0.8367 -0.3878 0.0000
-0.8367 -0.3469 0.0000
-0.8367 -0.3061 0.0000
-0.8367 -0.2653 0.0000
-0.8367 -0.2245 0.0000
-0.8367 -0.1837 0.0000
-0.8367 -0.1429 0.0000
-0.8367 -0.1020 0.0000
-0.8367 -0.0612 0.0000
-0.8367 -0.0204 0.0000
-0.8367 0.0204 0.0000
-0.8367 0.0612 0.0000
-0.8367 0.1020 0.0000
-0.8367 0.1429 0.0000
-0.8367 0.1837 0.0000
-0.8367 0.2245 0.0000
-0.8367 0.2653 0.0000
-0.8367 0.3061 0.0000
-0.8367 0.3469 0.0000
-0.8367 0.3878 0.0000
-0.8367 0.4286 0.0000
-0.8367 0.4694 0.0000
-0.8367 0.5102 0.0000
-0.8367 0.5510 0.0000
-0.8367 0.5918 0.0000
-0.8367 0.6327 0.0000
-0.8367 0.6735 0.0000
-0.8367 0.7143 0.0000
-0.8367 0.7551 0.0000
-0.8367 0.7959 0.0000
-0.8367 0.8367 0.0000
-0.8367 0.8776 0.0000
-0.8367 0.9184 0.0000
-0.8367 0.9592 0.0000
-0.8367 1.0000 0.0000
-0.7959 -0.9592 0.0000
-0.7959 -0.9184 0.0000
-0.7959 -0.8776 0.0000
-0.7959 -0.8367 0.0000
-0.7959 -0.7959 0.0000
-0.7959 -0.7551 0.0000
-0.7959 -0.7143 0.0000
-0.7959 -0.6735 0.0000
-0.7959 -0.6327 0.0000
-0.7959 -0.5918 0.0000
-0.7959 -0.5510 0.0000
-0.7959 -0.5102 0.0000
-0.7959 -0.4694 0.0000
-0.7959 -0.4286 0.0000
-0.7959 -0.3878 0.0000
-0.7959 -0.3469 0.0000
-0.7959 -0.3061 0.0000
-0.7959 -0.2653 0.0000
-0.7959 -0.2245 0.0000
-0.7959 -0.1837 0.0000
-0.7959 -0.1429 0.0000
-0.7959 -0.1020 0.0000
-0.7959 -0.0612 0.0000
-0.7959 -0.0204 0.0000
-0.7959 0.0204 0.0000
-0.7959 0.0612 0.0000
-0.7959 0.1020 0.0000
-0.7959 0.1429 0.0000
-0.7959 0.1837 0.0000
-0.7959 0.2245 0.0000
-0.7959 0.2653 0.0000
-0.7959 0.3061 0.0000
-0.7959 0.3469 0.0000
-0.7959 0.3878 0.0000
-0.7959 0.4286 0.0000
-0.7959 0.4694 0.0000
-0.7959 0.5102 0.0000
-0.7959 0.5510 0.0000
-0.7959 0.5918 0.0000
-0.7959 0.6327 0.0000
-0.7959 0.6735 0.0000
-0.7959 0.7143 0.0000
-0.7959 0.7551 0.0000
-0.7959 0.7959 0.0000
-0.7959 0.8367 0.0000
-0.7959 0.8776 0.0000
-0.7959 0.9184 0.0000
-0.7959 0.9592 0.0000
-0.7959 1.0000 0.0000
-0.7551 -0.9592 0.0000
-0.7551 -0.9184 0.0000
-0.7551 -0.8776 0.0000
-0.7551 -0.8367 0.0000
-0.7551 -0.7959 0.0000
-0.7551 -0.7551 0.0000
-0.7551 -0.7143 0.0000
-0.7551 -0.6735 0.0000
-0.7551 -0.6327 0.0000
-0.7551 -0.5918 0.0000
-0.7551 -0.5510 0.0000
-0.7551 -0.5102 0.0000
-0.7551 -0.4694 0.0000
-0.7551 -0.4286 0.0000
-0.7551 -0.3878 0.0000
-0.7551 -0.3469 0.0000
-0.7551 -0.3061 0.0000
-0.7551 -0.2653 0.0000
-0.7551 -0.2245 0.0000
-0.7551 -0.1837 0.0000
-0.7551 -0.1429 0.0000
-0.7551 -0.1020 0.0000
-0.7551 -0.0612 0.0000
-0.7551 -0.0204 0.0000
-0.7551 0.0204 0.0000
-0.7551 0.0612 0.0000
-0.7551 0.1020 0.0000
-0.7551 0.1429 0.0000
-0.7551 0.1837 0.0000
-0.7551 0.2245 0.0000
-0.7551 0.2653 0.0000
-0.7551 0.3061 0.0000
-0.7551 0.3469 0.0000
-0.7551 0.3878 0.0000
-0.7551 0.4286 0.0000
-0.7551 0.4694 0.0000
-0.7551 0.5102 0.0000
-0.7551 0.5510 0.0000
-0.7551 0.5918 0.0000
-0.7551 0.6327 0.0000
-0.7551 0.6735 0.0000
-0.7551 0.7143 0.0000
-0.7551 0.7551 0.0000
-0.7551 0.7959 0.0000
-0.7551 0.8367 0.0000
-0.7551 0.8776 0.0000
-0.7551 0.9184 0.0000
-0.7551 0.9592 0.0000
-0.7551 1.0000 0.0000
-0.7143 -0.9592 0.0000
-0.7143 -0.9184 0.0000
-0.7143 -0.8776 0.0000
-0.7143 -0.8367 0.0000
-0.7143 -0.7959 0.0000
-0.7143 -0.7551 0.0000
-0.7143 -0.7143 0.0000
-0.7143 -0.6735 0.0000
-0.7143 -0.6327 0.0000
-0.7143 -0.5918 0.0000
-0.7143 -0.5510 0.0000
-0.7143 -0.5102 0.0000
-0.7143 -0.4694 0.0000
-0.7143 -0.4286 0.0000
-0.7143 -0.3878 0.0000
-0.7143 -0.3469 0.0000
-0.7143 -0.3061 0.0000
-0.7143 -0.2653 0.0000
-0.7143 -0.2245 0.0000
-0.7143 -0.1837 0.0000
-0.7143 -0.1429 0.0000
-0.7143 -0.1020 0.0000
-0.7143 -0.0612 0.0000
-0.7143 -0.0204 0.0000
-0.7143 0.0204 0.0000
-0.7143 0.0612 0.0000
-0.7143 0.1020 0.0000
-0.7143 0.1429 0.0000
-0.7143 0.1837 0.0000
-0.7143 0.2245 0.0000
-0.7143 0.2653 0.0000
-0.7143 0.3061 0.0000
-0.7143 0.3469 0.0000
-0.7143 0.3878 0.0000
-0.7143 0.4286 0.0000
-0.7143 0.4694 0.0000
-0.7143 0.5102 0.0000
-0.7143 0.5510 0.0000
-0.7143 0.5918 0.0000
-0.7143 0.6327 0.0000
-0.7143 0.6735 0.0000
-0.7143 0.7143 0.0000
-0.7143 0.7551 0.0000
-0.7143 0.7959 0.0000
-0.7143 0.8367 0.0000
-0.7143 0.8776 0.0000
-0.7143 0.9184 0.0000
-0.7143 0.9592 0.0000
-0.7143 1.0000 0.0000
-0.6735 -0.9592 0.0000
-0.6735 -0.9184 0.0000
-0.6735 -0.8776 0.0000
-0.6735 -0.8367 0.0000
-0.6735 -0.7959 0.0000
-0.6735 -0.7551 0.0000
-0.6735 -0.7143 0.0000
-0.6735 -0.6735 0.0000
-0.6735 -0.6327 0.0000
-0.6735 -0.5918 0.0000
-0.6735 -0.5510 0.0000
-0.6735 -0.5102 0.0000
-0.6735 -0.4694 0.0000
-0.6735 -0.4286 0.0000
-0.6735 -0.3878 0.0000
-0.6735 -0.3469 0.0000
-0.6735 -0.3061 0.0000
-0.6735 -0.2653 0.0000
-0.6735 -0.2245 0.0000
-0.6735 -0.1837 0.0000
-0.6735 -0.1429 0.0000
-0.6735 -0.1020 0.0000
-0.6735 -0.0612 0.0000
-0.6735 -0.0204 0.0000
-0.6735 0.0204 0.0000
-0.6735 0.0612 0.0000
-0.6735 0.1020 0.0000
-0.6735 0.1429 0.0000
-0.6735 0.1837 0.0000
-0.6735 0.2245 0.0000
-0.6735 0.2653 0.0000
-0.6735 0.3061 0.0000
-0.6735 0.3469 0.0000
-0.6735 0.3878 0.0000
-0.6735 0.4286 0.0000
-0.6735 0.4694 0.0000
-0.6735 0.5102 0.0000
-0.6735 0.5510 0.0000
-0.6735 0.5918 0.0000
[...]
         <PointData>
            <DataArray Name="fValues" NumberOfComponents="3" format="ascii" type="Float64">
 2.04082e-02 -1.51119e-19        00000 
 4.08163e-02  2.98883e-19        00000 
 6.12245e-02  4.38553e-19        00000 
 8.16327e-02  6.79279e-19        00000 
 1.02041e-01 -1.98004e-19        00000 
 1.22449e-01  9.23819e-19        00000 
 1.42857e-01  2.51653e-19        00000 
 1.63265e-01        00000        00000 
 1.83673e-01 -3.07247e-19        00000 
 2.04082e-01  1.30422e-18        00000 
 2.24490e-01 -1.12336e-18        00000 
 2.44898e-01  1.57593e-18        00000 
 2.65306e-01 -1.26995e-18        00000 
 2.85714e-01  5.97765e-19        00000 
 3.06122e-01 -2.11340e-18        00000 
 3.26531e-01  1.08685e-19        00000 
 3.46939e-01 -6.62288e-19        00000 
 3.67347e-01  1.63027e-18        00000 
 3.87755e-01 -3.65103e-20        00000 
 4.08163e-01  7.60792e-19        00000 
 4.28571e-01  1.36554e-20        00000 
 4.48980e-01  5.43423e-19        00000 
 4.69388e-01 -4.38552e-19        00000 
 4.89796e-01  1.08685e-19        00000 
 5.10204e-01  1.20850e-18        00000 
 5.30612e-01 -1.73895e-18        00000 
 5.51020e-01  3.40478e-20        00000 
 5.71429e-01  1.08685e-19        00000 
 5.91837e-01 -8.19325e-19        00000 
 6.12245e-01 -3.26054e-19        00000 
 6.32653e-01 -2.31814e-18        00000 
 6.53061e-01  9.78161e-19        00000 
 6.73469e-01  7.44221e-19        00000 
 6.93878e-01 -7.60792e-19        00000 
 7.14286e-01 -9.85030e-19        00000 
 7.34694e-01  6.52108e-19        00000 
 7.55102e-01 -8.67119e-19        00000 
 7.75510e-01  1.24987e-18        00000 
 7.95918e-01 -1.60346e-18        00000 
 8.16327e-01  1.14119e-18        00000 
 8.36735e-01 -3.89180e-19        00000 
 8.57143e-01  9.78161e-19        00000 
 8.77551e-01 -4.59538e-19        00000 
 8.97959e-01  9.78161e-19        00000 
 9.18367e-01  2.66281e-19        00000 
 9.38776e-01 -2.17369e-19        00000 
 9.59184e-01  2.19292e-19        00000 
 9.79592e-01        00000        00000 
 1.00000e+00  8.51939e-20        00000 
 1.89283e-02 -1.48434e-03        00000 
 3.85723e-02 -2.40254e-03        00000 
 5.83945e-02 -3.08779e-03        00000 
 7.83107e-02 -3.64712e-03        00000 
 9.82813e-02 -4.12408e-03        00000 
 1.18288e-01 -4.54093e-03        00000 
 1.38319e-01 -4.91043e-03        00000 
 1.58369e-01 -5.24064e-03        00000 
 1.78434e-01 -5.53705e-03        00000 
 1.98511e-01 -5.80365e-03        00000 
 2.18597e-01 -6.04358e-03        00000 
 2.38693e-01 -6.25944e-03        00000 
 2.58796e-01 -6.45358e-03        00000 
 2.78906e-01 -6.62817e-03        00000 
 2.99023e-01 -6.78531e-03        00000 
 3.19145e-01 -6.92705e-03        00000 
 3.39272e-01 -7.05532e-03        00000 
 3.59403e-01 -7.17193e-03        00000 
 3.79537e-01 -7.27846e-03        00000 
 3.99672e-01 -7.37615e-03        00000 
 4.19808e-01 -7.46580e-03        00000 
 4.39943e-01 -7.54771e-03        00000 
 4.60075e-01 -7.62160e-03        00000 
 4.80203e-01 -7.68661e-03        00000 
 5.00325e-01 -7.74131e-03        00000 
 5.20441e-01 -7.78383e-03        00000 
 5.40550e-01 -7.81196e-03        00000 
 5.60652e-01 -7.82329e-03        00000 
 5.80745e-01 -7.81539e-03        00000 
 6.00832e-01 -7.78595e-03        00000 
 6.20912e-01 -7.73293e-03        00000 
 6.40985e-01 -7.65459e-03        00000 
 6.61054e-01 -7.54957e-03        00000 
 6.81117e-01 -7.41688e-03        00000 
 7.01177e-01 -7.25582e-03        00000 
 7.21233e-01 -7.06592e-03        00000 
 7.41285e-01 -6.84682e-03        00000 
 7.61334e-01 -6.59811e-03        00000 
 7.81379e-01 -6.31921e-03        00000 
 8.01418e-01 -6.00909e-03        00000 
 8.21450e-01 -5.66607e-03        00000 
 8.41471e-01 -5.28737e-03        00000 
 8.61478e-01 -4.86852e-03        00000 
 8.81462e-01 -4.40221e-03        00000 
 9.01413e-01 -3.87610e-03        00000 
 9.21310e-01 -3.26788e-03        00000 
 9.41111e-01 -2.53286e-03        00000 
 9.60727e-01 -1.55981e-03        00000 
 9.79592e-01 -5.32233e-20        00000 
 1.80194e-02 -2.23222e-03        00000 
 3.67896e-02 -4.00657e-03        00000 
 5.59568e-02 -5.40764e-03        00000 
 7.53258e-02 -6.56590e-03        00000 
 9.48167e-02 -7.55499e-03        00000 
 1.14387e-01 -8.41776e-03        00000 
 1.34014e-01 -9.18062e-03        00000 
 1.53682e-01 -9.86082e-03        00000 
 1.73383e-01 -1.04703e-02        00000 
 1.93109e-01 -1.10177e-02        00000 
 2.12858e-01 -1.15099e-02        00000 
 2.32625e-01 -1.19525e-02        00000 
 2.52409e-01 -1.23504e-02        00000 
 2.72209e-01 -1.27080e-02        00000 
 2.92023e-01 -1.30295e-02        00000 
 3.11849e-01 -1.33190e-02        00000 
 3.31686e-01 -1.35802e-02        00000 
 3.51533e-01 -1.38167e-02        00000 
 3.71386e-01 -1.40316e-02        00000 
 3.91243e-01 -1.42270e-02        00000 
 4.11101e-01 -1.44048e-02        00000 
 4.30957e-01 -1.45654e-02        00000 
 4.50808e-01 -1.47083e-02        00000 
 4.70649e-01 -1.48320e-02        00000 
 4.90478e-01 -1.49339e-02        00000 
 5.10293e-01 -1.50104e-02        00000 
 5.30093e-01 -1.50574e-02        00000 
 5.49875e-01 -1.50704e-02        00000 
 5.69641e-01 -1.50449e-02        00000 
 5.89391e-01 -1.49766e-02        00000 
 6.09126e-01 -1.48616e-02        00000 
 6.28848e-01 -1.46965e-02        00000 
 6.48558e-01 -1.44788e-02        00000 
 6.68258e-01 -1.42064e-02        00000 
 6.87950e-01 -1.38780e-02        00000 
 7.07635e-01 -1.34922e-02        00000 
 7.27312e-01 -1.30481e-02        00000 
 7.46982e-01 -1.25446e-02        00000 
 7.66643e-01 -1.19798e-02        00000 
 7.86292e-01 -1.13511e-02        00000 
 8.05925e-01 -1.06543e-02        00000 
 8.25534e-01 -9.88287e-03        00000 
 8.45111e-01 -9.02656e-03        00000 
 8.64638e-01 -8.06937e-03        00000 
 8.84089e-01 -6.98543e-03        00000 
 9.03420e-01 -5.73145e-03        00000 
 9.22546e-01 -4.23169e-03        00000 
 9.41259e-01 -2.35057e-03        00000 
 9.59184e-01  3.50505e-21        00000 
 1.73412e-02 -2.78159e-03        00000 
 3.53738e-02 -5.17026e-03        00000 
 5.38726e-02 -7.19378e-03        00000 
 7.26645e-02 -8.91876e-03        00000 
 9.16435e-02 -1.04126e-02        00000 
 1.10749e-01 -1.17239e-02        00000 
 1.29945e-01 -1.28866e-02        00000 
 1.49208e-01 -1.39246e-02        00000 
 1.68523e-01 -1.48551e-02        00000 
 1.87880e-01 -1.56910e-02        00000 
 2.07273e-01 -1.64426e-02        00000 
 2.26697e-01 -1.71183e-02        00000 
 2.46148e-01 -1.77255e-02        00000 
 2.65624e-01 -1.82709e-02        00000 
 2.85123e-01 -1.87608e-02        00000 
 3.04644e-01 -1.92011e-02        00000 
 3.24182e-01 -1.95974e-02        00000 
 3.43736e-01 -1.99548e-02        00000 
 3.63302e-01 -2.02779e-02        00000 
 3.82875e-01 -2.05702e-02        00000 
 4.02450e-01 -2.08340e-02        00000 
 4.22022e-01 -2.10704e-02        00000 
 4.41585e-01 -2.12787e-02        00000 
 4.61133e-01 -2.14566e-02        00000 
 4.80661e-01 -2.16005e-02        00000 
 5.00167e-01 -2.17053e-02        00000 
 5.19646e-01 -2.17651e-02        00000 
 5.39098e-01 -2.17735e-02        00000 
 5.58522e-01 -2.17238e-02        00000 
 5.77920e-01 -2.16100e-02        00000 
 5.97293e-01 -2.14264e-02        00000 
 6.16645e-01 -2.11683e-02        00000 
 6.35979e-01 -2.08319e-02        00000 
 6.55298e-01 -2.04144e-02        00000 
 6.74603e-01 -1.99135e-02        00000 
 6.93897e-01 -1.93273e-02        00000 
 7.13180e-01 -1.86541e-02        00000 
 7.32451e-01 -1.78918e-02        00000 
 7.51708e-01 -1.70374e-02        00000 
 7.70946e-01 -1.60866e-02        00000 
 7.90157e-01 -1.50325e-02        00000 
 8.09331e-01 -1.38652e-02        00000 
 8.28451e-01 -1.25696e-02        00000 
 8.47491e-01 -1.11235e-02        00000 
 8.66412e-01 -9.49361e-03        00000 
 8.85148e-01 -7.63102e-03        00000 
 9.03587e-01 -5.46676e-03        00000 
 9.21543e-01 -2.93239e-03        00000 
 9.38776e-01  1.61856e-19        00000 
 1.67822e-02 -3.21849e-03        00000 
 3.41877e-02 -6.09346e-03        00000 
 5.20669e-02 -8.62676e-03        00000 
 7.02840e-02 -1.08519e-02        00000 
 8.87377e-02 -1.28137e-02        00000 
 1.07359e-01 -1.45542e-02        00000 
 1.26104e-01 -1.61072e-02        00000 
 1.44942e-01 -1.74989e-02        00000 
 1.63852e-01 -1.87493e-02        00000 
 1.82822e-01 -1.98744e-02        00000 
 2.01843e-01 -2.08869e-02        00000 
 2.20907e-01 -2.17976e-02        00000 
 2.40010e-01 -2.26160e-02        00000 
 2.59150e-01 -2.33506e-02        00000 
 2.78323e-01 -2.40098e-02        00000 
 2.97527e-01 -2.46011e-02        00000 
 3.16758e-01 -2.51321e-02        00000 
 3.36012e-01 -2.56094e-02        00000 
 3.55284e-01 -2.60391e-02        00000 
 3.74567e-01 -2.64261e-02        00000 
 3.93853e-01 -2.67736e-02        00000 
 4.13136e-01 -2.70830e-02        00000 
 4.32406e-01 -2.73537e-02        00000 
 4.51655e-01 -2.75829e-02        00000 
 4.70875e-01 -2.77657e-02        00000 
 4.90062e-01 -2.78956e-02        00000 
 5.09210e-01 -2.79647e-02        00000 
 5.28318e-01 -2.79646e-02        00000 
 5.47387e-01 -2.78868e-02        00000 
 5.66417e-01 -2.77232e-02        00000 
 5.85412e-01 -2.74666e-02        00000 
 6.04377e-01 -2.71111e-02        00000 
 6.23317e-01 -2.66518e-02        00000 
 6.42235e-01 -2.60851e-02        00000 
 6.61135e-01 -2.54082e-02        00000 
 6.80019e-01 -2.46188e-02        00000 
 6.98889e-01 -2.37146e-02        00000 
 7.17742e-01 -2.26926e-02        00000 
 7.36576e-01 -2.15491e-02        00000 
 7.55383e-01 -2.02781e-02        00000 
 7.74154e-01 -1.88712e-02        00000 
 7.92872e-01 -1.73161e-02        00000 
 8.11515e-01 -1.55953e-02        00000 
 8.30050e-01 -1.36845e-02        00000 
 8.48427e-01 -1.15510e-02        00000 
 8.66573e-01 -9.15290e-03        00000 
 8.84379e-01 -6.44513e-03        00000 
 9.01697e-01 -3.39424e-03        00000 
 9.18367e-01  1.63953e-20        00000 
 1.62958e-02 -3.58444e-03        00000 
 3.31526e-02 -6.86014e-03        00000 
 5.04659e-02 -9.81911e-03        00000 
 6.81321e-02 -1.24756e-02        00000 
 8.60636e-02 -1.48571e-02        00000 
 1.04194e-01 -1.69945e-02        00000 
 1.22475e-01 -1.89168e-02        00000 
 1.40872e-01 -2.06486e-02        00000 
 1.59363e-01 -2.22105e-02        00000 
 1.77930e-01 -2.36192e-02        00000 
 1.96562e-01 -2.48890e-02        00000 
 2.15252e-01 -2.60322e-02        00000 
 2.33994e-01 -2.70597e-02        00000 
 2.52784e-01 -2.79818e-02        00000 
 2.71619e-01 -2.88083e-02        00000 
 2.90495e-01 -2.95484e-02        00000 
 3.09410e-01 -3.02114e-02        00000 
 3.28356e-01 -3.08057e-02        00000 
 3.47327e-01 -3.13389e-02        00000 
 3.66315e-01 -3.18174e-02        00000 
 3.85309e-01 -3.22455e-02        00000 
 4.04299e-01 -3.26253e-02        00000 
 4.23271e-01 -3.29562e-02        00000 
 4.42216e-01 -3.32349e-02        00000 
 4.61122e-01 -3.34552e-02        00000 
 4.79981e-01 -3.36089e-02        00000 
 4.98788e-01 -3.36862e-02        00000 
 5.17540e-01 -3.36763e-02        00000 
 5.36238e-01 -3.35685e-02        00000 
 5.54884e-01 -3.33529e-02        00000 
 5.73484e-01 -3.30208e-02        00000 
 5.92044e-01 -3.25650e-02        00000 
 6.10570e-01 -3.19799e-02        00000 
 6.29068e-01 -3.12616e-02        00000 
 6.47545e-01 -3.04068e-02        00000 
 6.66001e-01 -2.94132e-02        00000 
 6.84440e-01 -2.82783e-02        00000 
 7.02858e-01 -2.69989e-02        00000 
 7.21252e-01 -2.55706e-02        00000 
 7.39612e-01 -2.39870e-02        00000 
 7.57925e-01 -2.22388e-02        00000 
 7.76173e-01 -2.03131e-02        00000 
 7.94327e-01 -1.81925e-02        00000 
 8.12351e-01 -1.58544e-02        00000 
 8.30191e-01 -1.32715e-02        00000 
 8.47773e-01 -1.04134e-02        00000 
 8.65004e-01 -7.25360e-03        00000 
 8.81771e-01 -3.77899e-03        00000 
 8.97959e-01 -3.00054e-19        00000 
 1.58580e-02 -3.89963e-03        00000 
 3.22220e-02 -7.51597e-03        00000 
 4.90163e-02 -1.08370e-02        00000 
 6.61611e-02 -1.38665e-02        00000 
 8.35838e-02 -1.66194e-02        00000 
 1.01224e-01 -1.91170e-02        00000 
 1.19036e-01 -2.13814e-02        00000 
 1.36983e-01 -2.34336e-02        00000 
 1.55042e-01 -2.52926e-02        00000 
 1.73192e-01 -2.69746e-02        00000 
 1.91423e-01 -2.84939e-02        00000 
 2.09724e-01 -2.98635e-02        00000 
 2.28091e-01 -3.10951e-02        00000 
 2.46519e-01 -3.22001e-02        00000 
 2.65004e-01 -3.31893e-02        00000 
 2.83543e-01 -3.40737e-02        00000 
 3.02131e-01 -3.48640e-02        00000 
 3.20763e-01 -3.55705e-02        00000 
 3.39428e-01 -3.62026e-02        00000 
 3.58117e-01 -3.67683e-02        00000 
 3.76816e-01 -3.72734e-02        00000 
 3.95510e-01 -3.77209e-02        00000 
 4.14183e-01 -3.81103e-02        00000 
 4.32819e-01 -3.84377e-02        00000 
 4.51405e-01 -3.86957e-02        00000 
 4.69929e-01 -3.88739e-02        00000 
 4.88385e-01 -3.89601e-02        00000 
 5.06768e-01 -3.89409e-02        00000 
 5.25079e-01 -3.88033e-02        00000 
 5.43325e-01 -3.85352e-02        00000 
 5.61510e-01 -3.81264e-02        00000 
 5.79645e-01 -3.75687e-02        00000 
 5.97739e-01 -3.68562e-02        00000 
 6.15799e-01 -3.59848e-02        00000 
 6.33833e-01 -3.49517e-02        00000 
 6.51845e-01 -3.37546e-02        00000 
 6.69836e-01 -3.23916e-02        00000 
 6.87803e-01 -3.08596e-02        00000 
 7.05742e-01 -2.91546e-02        00000 
 7.23642e-01 -2.72702e-02        00000 
 7.41487e-01 -2.51976e-02        00000 
 7.59256e-01 -2.29245e-02        00000 
 7.76919e-01 -2.04357e-02        00000 
 7.94435e-01 -1.77124e-02        00000 
 8.11752e-01 -1.47340e-02        00000 
 8.28805e-01 -1.14810e-02        00000 
 8.45514e-01 -7.93935e-03        00000 
 8.61790e-01 -4.10741e-03        00000 
 8.77551e-01 -2.69610e-19        00000 
 1.54548e-02 -4.17600e-03        00000 
 3.13673e-02 -8.08787e-03        00000 
 4.76806e-02 -1.17222e-02        00000 
 6.43327e-02 -1.50765e-02        00000 
 8.12641e-02 -1.81579e-02        00000 
 9.84225e-02 -2.09793e-02        00000 
 1.15765e-01 -2.35567e-02        00000 
 1.33258e-01 -2.59067e-02        00000 
 1.50875e-01 -2.80451e-02        00000 
 1.68599e-01 -2.99865e-02        00000 
 1.86416e-01 -3.17445e-02        00000 
 2.04316e-01 -3.33317e-02        00000 
 2.22295e-01 -3.47598e-02        00000 
 2.40348e-01 -3.60408e-02        00000 
 2.58472e-01 -3.71863e-02        00000 
 2.76663e-01 -3.82085e-02        00000 
 2.94916e-01 -3.91196e-02        00000 
 3.13226e-01 -3.99318e-02        00000 
 3.31581e-01 -4.06567e-02        00000 
 3.49968e-01 -4.13042e-02        00000 
 3.68371e-01 -4.18819e-02        00000 
 3.86769e-01 -4.23941e-02        00000 
 4.05142e-01 -4.28407e-02        00000 
 4.23469e-01 -4.32172e-02        00000 
 4.41731e-01 -4.35144e-02        00000 
 4.59913e-01 -4.37197e-02        00000 
 4.78006e-01 -4.38175e-02        00000 
 4.96007e-01 -4.37915e-02        00000 
 5.13916e-01 -4.36257e-02        00000 
 5.31742e-01 -4.33058e-02        00000 
 5.49494e-01 -4.28201e-02        00000 
 5.67184e-01 -4.21598e-02        00000 
 5.84825e-01 -4.13189e-02        00000 
 6.02428e-01 -4.02939e-02        00000 
 6.20002e-01 -3.90827e-02        00000 
 6.37552e-01 -3.76842e-02        00000 
 6.55081e-01 -3.60973e-02        00000 
 6.72585e-01 -3.43199e-02        00000 
 6.90058e-01 -3.23489e-02        00000 
 7.07488e-01 -3.01787e-02        00000 
 7.24858e-01 -2.78017e-02        00000 
 7.42145e-01 -2.52077e-02        00000 
 7.59318e-01 -2.23842e-02        00000 
 7.76337e-01 -1.93172e-02        00000 
 7.93154e-01 -1.59924e-02        00000 
 8.09709e-01 -1.23985e-02        00000 
 8.25938e-01 -8.53012e-03        00000 
 8.41770e-01 -4.39178e-03        00000 
 8.57143e-01  4.74248e-19        00000 
 1.50773e-02 -4.42119e-03        00000 
 3.05697e-02 -8.59318e-03        00000 
 4.64328e-02 -1.25021e-02        00000 
 6.26179e-02 -1.61421e-02        00000 
 7.90761e-02 -1.95146e-02        00000 
 9.57628e-02 -2.26267e-02        00000 
 1.12640e-01 -2.54887e-02        00000 
 1.29676e-01 -2.81128e-02        00000 
 1.46848e-01 -3.05114e-02        00000 
 1.64136e-01 -3.26968e-02        00000 
 1.81529e-01 -3.46809e-02        00000 
 1.99017e-01 -3.64750e-02        00000 
 2.16595e-01 -3.80905e-02        00000 
 2.34261e-01 -3.95390e-02        00000 
 2.52011e-01 -4.08328e-02        00000 
 2.69844e-01 -4.19847e-02        00000 
 2.87755e-01 -4.30086e-02        00000 
 3.05737e-01 -4.39185e-02        00000 
 3.23779e-01 -4.47284e-02        00000 
 3.41864e-01 -4.54509e-02        00000 
 3.59971e-01 -4.60960e-02        00000 
 3.78077e-01 -4.66697e-02        00000 
 3.96153e-01 -4.71725e-02        00000 
 4.14171e-01 -4.75994e-02        00000 
 4.32107e-01 -4.79391e-02        00000 
 4.49942e-01 -4.81756e-02        00000 
 4.67663e-01 -4.82898e-02        00000 
 4.85267e-01 -4.82612e-02        00000 
 5.02756e-01 -4.80702e-02        00000 
 5.20142e-01 -4.77002e-02        00000 
 5.37438e-01 -4.71380e-02        00000 
 5.54662e-01 -4.63744e-02        00000 
 5.71830e-01 -4.54042e-02        00000 
 5.88956e-01 -4.42250e-02        00000 
 6.06053e-01 -4.28366e-02        00000 
 6.23126e-01 -4.12394e-02        00000 
 6.40179e-01 -3.94340e-02        00000 
 6.57209e-01 -3.74199e-02        00000 
 6.74207e-01 -3.51952e-02        00000 
 6.91162e-01 -3.27561e-02        00000 
 7.08056e-01 -3.00966e-02        00000 
 7.24863e-01 -2.72091e-02        00000 
 7.41553e-01 -2.40840e-02        00000 
 7.58089e-01 -2.07118e-02        00000 
 7.74426e-01 -1.70837e-02        00000 
 7.90514e-01 -1.31943e-02        00000 
 8.06297e-01 -9.04369e-03        00000 
 8.21720e-01 -4.63996e-03        00000 
 8.36735e-01 -1.31392e-18        00000 
 1.47199e-02 -4.64046e-03        00000 
 2.98165e-02 -9.04365e-03        00000 
 4.52545e-02 -1.31958e-02        00000 
 6.09945e-02 -1.70889e-02        00000 
 7.69967e-02 -2.07207e-02        00000 
 9.32233e-02 -2.40939e-02        00000 
 1.09641e-01 -2.72142e-02        00000 
 1.26222e-01 -3.00896e-02        00000 
 1.42944e-01 -3.27293e-02        00000 
 1.59791e-01 -3.51427e-02        00000 
 1.76751e-01 -3.73393e-02        00000 
 1.93816e-01 -3.93290e-02        00000 
 2.10982e-01 -4.11219e-02        00000 
 2.28248e-01 -4.27289e-02        00000 
 2.45613e-01 -4.41620e-02        00000 
 2.63077e-01 -4.54346e-02        00000 
 2.80637e-01 -4.65619e-02        00000 
 2.98285e-01 -4.75600e-02        00000 
 3.16011e-01 -4.84457e-02        00000 
 3.33796e-01 -4.92350e-02        00000 
 3.51614e-01 -4.99411e-02        00000 
 3.69433e-01 -5.05724e-02        00000 
 3.87218e-01 -5.11308e-02        00000 
 4.04933e-01 -5.16104e-02        00000 
 4.22545e-01 -5.19974e-02        00000 
 4.40028e-01 -5.22718e-02        00000 
 4.57367e-01 -5.24091e-02        00000 
 4.74558e-01 -5.23836e-02        00000 
 4.91607e-01 -5.21716e-02        00000 
 5.08529e-01 -5.17534e-02        00000 
 5.25346e-01 -5.11146e-02        00000 
 5.42080e-01 -5.02465e-02        00000 
 5.58752e-01 -4.91454e-02        00000 
 5.75383e-01 -4.78112e-02        00000 
 5.91986e-01 -4.62461e-02        00000 
 6.08569e-01 -4.44531e-02        00000 
 6.25135e-01 -4.24352e-02        00000 
 6.41683e-01 -4.01939e-02        00000 
 6.58202e-01 -3.77291e-02        00000 
 6.74680e-01 -3.50389e-02        00000 
 6.91097e-01 -3.21194e-02        00000 
 7.07430e-01 -2.89652e-02        00000 
 7.23648e-01 -2.55701e-02        00000 
 7.39716e-01 -2.19279e-02        00000 
 7.55594e-01 -1.80342e-02        00000 
 7.71239e-01 -1.38877e-02        00000 
 7.86605e-01 -9.49210e-03        00000 
 8.01647e-01 -4.85731e-03        00000 
 8.16327e-01  3.65563e-19        00000 
 1.43787e-02 -4.83748e-03        00000 
 2.90990e-02 -9.44756e-03        00000 
 4.41322e-02 -1.38166e-02        00000 
 5.94462e-02 -1.79356e-02        00000 
 7.50080e-02 -2.17995e-02        00000 
 9.07857e-02 -2.54077e-02        00000 
 1.06751e-01 -2.87625e-02        00000 