<?xml version="1.0" encoding="utf-8"?>
<VTKFile byte_order="LittleEndian" type="UnstructuredGrid" version="0.1">
   <UnstructuredGrid>
      <Piece NumberOfCells="9604" NumberOfPoints="4901">
         <Points>
            <DataArray Name="Points" NumberOfComponents="3" format="ascii" type="Float32">
0.0000 0.0000 0.0000
0.0000 0.0204 0.0000
0.0000 0.0408 0.0000
0.0000 0.0612 0.0000
0.0000 0.0816 0.0000
0.0000 0.1020 0.0000
0.0000 0.1224 0.0000
0.0000 0.1429 0.0000
0.0000 0.1633 0.0000
0.0000 0.1837 0.0000
0.0000 0.2041 0.0000
0.0000 0.2245 0.0000
0.0000 0.2449 0.0000
0.0000 0.2653 0.0000
0.0000 0.2857 0.0000
0.0000 0.3061 0.0000
0.0000 0.3265 0.0000
0.0000 0.3469 0.0000
0.0000 0.3673 0.0000
0.0000 0.3878 0.0000
0.0000 0.4082 0.0000
0.0000 0.4286 0.0000
0.0000 0.4490 0.0000
0.0000 0.4694 0.0000
0.0000 0.4898 0.0000
0.0000 0.5102 0.0000
0.0000 0.5306 0.0000
0.0000 0.5510 0.0000
0.0000 0.5714 0.0000
0.0000 0.5918 0.0000
0.0000 0.6122 0.0000
0.0000 0.6327 0.0000
0.0000 0.6531 0.0000
0.0000 0.6735 0.0000
0.0000 0.6939 0.0000
0.0000 0.7143 0.0000
0.0000 0.7347 0.0000
0.0000 0.7551 0.0000
0.0000 0.7755 0.0000
0.0000 0.7959 0.0000
0.0000 0.8163 0.0000
0.0000 0.8367 0.0000
0.0000 0.8571 0.0000
0.0000 0.8776 0.0000
0.0000 0.8980 0.0000
0.0000 0.9184 0.0000
0.0000 0.9388 0.0000
0.0000 0.9592 0.0000
0.0000 0.9796 0.0000
0.0000 1.0000 0.0000
0.0204 0.0000 0.0000
0.0204 0.0204 0.0000
0.0204 0.0408 0.0000
0.0204 0.0612 0.0000
0.0204 0.0816 0.0000
0.0204 0.1020 0.0000
0.0204 0.1224 0.0000
0.0204 0.1429 0.0000
0.0204 0.1633 0.0000
0.0204 0.1837 0.0000
0.0204 0.2041 0.0000
0.0204 0.2245 0.0000
0.0204 0.2449 0.0000
0.0204 0.2653 0.0000
0.0204 0.2857 0.0000
0.0204 0.3061 0.0000
0.0204 0.3265 0.0000
0.0204 0.3469 0.0000
0.0204 0.3673 0.0000
0.0204 0.3878 0.0000
0.0204 0.4082 0.0000
0.0204 0.4286 0.0000
0.0204 0.4490 0.0000
0.0204 0.4694 0.0000
0.0204 0.4898 0.0000
0.0204 0.5102 0.0000
0.0204 0.5306 0.0000
0.0204 0.5510 0.0000
0.0204 0.5714 0.0000
0.0204 0.5918 0.0000
0.0204 0.6122 0.0000
0.0204 0.6327 0.0000
0.0204 0.6531 0.0000
0.0204 0.6735 0.0000
0.0204 0.6939 0.0000
0.0204 0.7143 0.0000
0.0204 0.7347 0.0000
0.0204 0.7551 0.0000
0.0204 0.7755 0.0000
0.0204 0.7959 0.0000
0.0204 0.8163 0.0000
0.0204 0.8367 0.0000
0.0204 0.8571 0.0000
0.0204 0.8776 0.0000
0.0204 0.8980 0.0000
0.0204 0.9184 0.0000
0.0204 0.9388 0.0000
0.0204 0.9592 0.0000
0.0204 0.9796 0.0000
0.0204 1.0000 0.0000
0.0408 0.0000 0.0000
0.0408 0.0204 0.0000
0.0408 0.0408 0.0000
0.0408 0.0612 0.0000
0.0408 0.0816 0.0000
0.0408 0.1020 0.0000
0.0408 0.1224 0.0000
0.0408 0.1429 0.0000
0.0408 0.1633 0.0000
0.0408 0.1837 0.0000
0.0408 0.2041 0.0000
0.0408 0.2245 0.0000
0.0408 0.2449 0.0000
0.0408 0.2653 0.0000
0.0408 0.2857 0.0000
0.0408 0.3061 0.0000
0.0408 0.3265 0.0000
0.0408 0.3469 0.0000
0.0408 0.3673 0.0000
0.0408 0.3878 0.0000
0.0408 0.4082 0.0000
0.0408 0.4286 0.0000
0.0408 0.4490 0.0000
0.0408 0.4694 0.0000
0.0408 0.4898 0.0000
0.0408 0.5102 0.0000
0.0408 0.5306 0.0000
0.0408 0.5510 0.0000
0.0408 0.5714 0.0000
0.0408 0.5918 0.0000
0.0408 0.6122 0.0000
0.0408 0.6327 0.0000
0.0408 0.6531 0.0000
0.0408 0.6735 0.0000
0.0408 0.6939 0.0000
0.0408 0.7143 0.0000
0.0408 0.7347 0.0000
0.0408 0.7551 0.0000
0.0408 0.7755 0.0000
0.0408 0.7959 0.0000
0.0408 0.8163 0.0000
0.0408 0.8367 0.0000
0.0408 0.8571 0.0000
0.0408 0.8776 0.0000
0.0408 0.8980 0.0000
0.0408 0.9184 0.0000
0.0408 0.9388 0.0000
0.0408 0.9592 0.0000
0.0408 0.9796 0.0000
0.0408 1.0000 0.0000
0.0612 0.0000 0.0000
0.0612 0.0204 0.0000
0.0612 0.0408 0.0000
0.0612 0.0612 0.0000
0.0612 0.0816 0.0000
0.0612 0.1020 0.0000
0.0612 0.1224 0.0000
0.0612 0.1429 0.0000
0.0612 0.1633 0.0000
0.0612 0.1837 0.0000
0.0612 0.2041 0.0000
0.0612 0.2245 0.0000
0.0612 0.2449 0.0000
0.0612 0.2653 0.0000
0.0612 0.2857 0.0000
0.0612 0.3061 0.0000
0.0612 0.3265 0.0000
0.0612 0.3469 0.0000
0.0612 0.3673 0.0000
0.0612 0.3878 0.0000
0.0612 0.4082 0.0000
0.0612 0.4286 0.0000
0.0612 0.4490 0.0000
0.0612 0.4694 0.0000
0.0612 0.4898 0.0000
0.0612 0.5102 0.0000
0.0612 0.5306 0.0000
0.0612 0.5510 0.0000
0.0612 0.5714 0.0000
0.0612 0.5918 0.0000
0.0612 0.6122 0.0000
0.0612 0.6327 0.0000
0.0612 0.6531 0.0000
0.0612 0.6735 0.0000
0.0612 0.6939 0.0000
0.0612 0.7143 0.0000
0.0612 0.7347 0.0000
0.0612 0.7551 0.0000
0.0612 0.7755 0.0000
0.0612 0.7959 0.0000
0.0612 0.8163 0.0000
0.0612 0.8367 0.0000
0.0612 0.8571 0.0000
0.0612 0.8776 0.0000
0.0612 0.8980 0.0000
0.0612 0.9184 0.0000
0.0612 0.9388 0.0000
0.0612 0.9592 0.0000
0.0612 0.9796 0.0000
0.0612 1.0000 0.0000
0.0816 0.0000 0.0000
0.0816 0.0204 0.0000
0.0816 0.0408 0.0000
0.0816 0.0612 0.0000
0.0816 0.0816 0.0000
0.0816 0.1020 0.0000
0.0816 0.1224 0.0000
0.0816 0.1429 0.0000
0.0816 0.1633 0.0000
0.0816 0.1837 0.0000
0.0816 0.2041 0.0000
0.0816 0.2245 0.0000
0.0816 0.2449 0.0000
0.0816 0.2653 0.0000
0.0816 0.2857 0.0000
0.0816 0.3061 0.0000
0.0816 0.3265 0.0000
0.0816 0.3469 0.0000
0.0816 0.3673 0.0000
0.0816 0.3878 0.0000
0.0816 0.4082 0.0000
0.0816 0.4286 0.0000
0.0816 0.4490 0.0000
0.0816 0.4694 0.0000
0.0816 0.4898 0.0000
0.0816 0.5102 0.0000
0.0816 0.5306 0.0000
0.0816 0.5510 0.0000
0.0816 0.5714 0.0000
0.0816 0.5918 0.0000
0.0816 0.6122 0.0000
0.0816 0.6327 0.0000
0.0816 0.6531 0.0000
0.0816 0.6735 0.0000
0.0816 0.6939 0.0000
0.0816 0.7143 0.0000
0.0816 0.7347 0.0000
0.0816 0.7551 0.0000
0.0816 0.7755 0.0000
0.0816 0.7959 0.0000
0.0816 0.8163 0.0000
0.0816 0.8367 0.0000
0.0816 0.8571 0.0000
0.0816 0.8776 0.0000
0.0816 0.8980 0.0000
0.0816 0.9184 0.0000
0.0816 0.9388 0.0000
0.0816 0.9592 0.0000
0.0816 0.9796 0.0000
0.0816 1.0000 0.0000
0.1020 0.0000 0.0000
0.1020 0.0204 0.0000
0.1020 0.0408 0.0000
0.1020 0.0612 0.0000
0.1020 0.0816 0.0000
0.1020 0.1020 0.0000
0.1020 0.1224 0.0000
0.1020 0.1429 0.0000
0.1020 0.1633 0.0000
0.1020 0.1837 0.0000
0.1020 0.2041 0.0000
0.1020 0.2245 0.0000
0.1020 0.2449 0.0000
0.1020 0.2653 0.0000
0.1020 0.2857 0.0000
0.1020 0.3061 0.0000
0.1020 0.3265 0.0000
0.1020 0.3469 0.0000
0.1020 0.3673 0.0000
0.1020 0.3878 0.0000
0.1020 0.4082 0.0000
0.1020 0.4286 0.0000
0.1020 0.4490 0.0000
0.1020 0.4694 0.0000
0.1020 0.4898 0.0000
0.1020 0.5102 0.0000
0.1020 0.5306 0.0000
0.1020 0.5510 0.0000
0.1020 0.5714 0.0000
0.1020 0.5918 0.0000
0.1020 0.6122 0.0000
0.1020 0.6327 0.0000
0.1020 0.6531 0.0000
0.1020 0.6735 0.0000
0.1020 0.6939 0.0000
0.1020 0.7143 0.0000
0.1020 0.7347 0.0000
0.1020 0.7551 0.0000
0.1020 0.7755 0.0000
0.1020 0.7959 0.0000
0.1020 0.8163 0.0000
0.1020 0.8367 0.0000
0.1020 0.8571 0.0000
0.1020 0.8776 0.0000
0.1020 0.8980 0.0000
0.1020 0.9184 0.0000
0.1020 0.9388 0.0000
0.1020 0.9592 0.0000
0.1020 0.9796 0.0000
0.1020 1.0000 0.0000
0.1224 0.0000 0.0000
0.1224 0.0204 0.0000
0.1224 0.0408 0.0000
0.1224 0.0612 0.0000
0.1224 0.0816 0.0000
0.1224 0.1020 0.0000
0.1224 0.1224 0.0000
0.1224 0.1429 0.0000
0.1224 0.1633 0.0000
0.1224 0.1837 0.0000
0.1224 0.2041 0.0000
0.1224 0.2245 0.0000
0.1224 0.2449 0.0000
0.1224 0.2653 0.0000
0.1224 0.2857 0.0000
0.1224 0.3061 0.0000
0.1224 0.3265 0.0000
0.1224 0.3469 0.0000
0.1224 0.3673 0.0000
0.1224 0.3878 0.0000
0.1224 0.4082 0.0000
0.1224 0.4286 0.0000
0.1224 0.4490 0.0000
0.1224 0.4694 0.0000
0.1224 0.4898 0.0000
0.1224 0.5102 0.0000
0.1224 0.5306 0.0000
0.1224 0.5510 0.0000
0.1224 0.5714 0.0000
0.1224 0.5918 0.0000
0.1224 0.6122 0.0000
0.1224 0.6327 0.0000
0.1224 0.6531 0.0000
0.1224 0.6735 0.0000
0.1224 0.6939 0.0000
0.1224 0.7143 0.0000
0.1224 0.7347 0.0000
0.1224 0.7551 0.0000
0.1224 0.7755 0.0000
0.1224 0.7959 0.0000
0.1224 0.8163 0.0000
0.1224 0.8367 0.0000
0.1224 0.8571 0.0000
0.1224 0.8776 0.0000
0.1224 0.8980 0.0000
0.1224 0.9184 0.0000
0.1224 0.9388 0.0000
0.1224 0.9592 0.0000
0.1224 0.9796 0.0000
0.1224 1.0000 0.0000
0.1429 0.0000 0.0000
0.1429 0.0204 0.0000
0.1429 0.0408 0.0000
0.1429 0.0612 0.0000
0.1429 0.0816 0.0000
0.1429 0.1020 0.0000
0.1429 0.1224 0.0000
0.1429 0.1429 0.0000
0.1429 0.1633 0.0000
0.1429 0.1837 0.0000
0.1429 0.2041 0.0000
0.1429 0.2245 0.0000
0.1429 0.2449 0.0000
0.1429 0.2653 0.0000
0.1429 0.2857 0.0000
0.1429 0.3061 0.0000
0.1429 0.3265 0.0000
0.1429 0.3469 0.0000
0.1429 0.3673 0.0000
0.1429 0.3878 0.0000
0.1429 0.4082 0.0000
0.1429 0.4286 0.0000
0.1429 0.4490 0.0000
0.1429 0.4694 0.0000
0.1429 0.4898 0.0000
0.1429 0.5102 0.0000
0.1429 0.5306 0.0000
0.1429 0.5510 0.0000
0.1429 0.5714 0.0000
0.1429 0.5918 0.0000
0.1429 0.6122 0.0000
0.1429 0.6327 0.0000
0.1429 0.6531 0.0000
0.1429 0.6735 0.0000
0.1429 0.6939 0.0000
0.1429 0.7143 0.0000
0.1429 0.7347 0.0000
0.1429 0.7551 0.0000
0.1429 0.7755 0.0000
0.1429 0.7959 0.0000
0.1429 0.8163 0.0000
0.1429 0.8367 0.0000
0.1429 0.8571 0.0000
0.1429 0.8776 0.0000
0.1429 0.8980 0.0000
0.1429 0.9184 0.0000
0.1429 0.9388 0.0000
0.1429 0.9592 0.0000
0.1429 0.9796 0.0000
0.1429 1.0000 0.0000
0.1633 0.0000 0.0000
0.1633 0.0204 0.0000
0.1633 0.0408 0.0000
0.1633 0.0612 0.0000
0.1633 0.0816 0.0000
0.1633 0.1020 0.0000
0.1633 0.1224 0.0000
0.1633 0.1429 0.0000
0.1633 0.1633 0.0000
0.1633 0.1837 0.0000
0.1633 0.2041 0.0000
0.1633 0.2245 0.0000
0.1633 0.2449 0.0000
0.1633 0.2653 0.0000
0.1633 0.2857 0.0000
0.1633 0.3061 0.0000
0.1633 0.3265 0.0000
0.1633 0.3469 0.0000
0.1633 0.3673 0.0000
0.1633 0.3878 0.0000
0.1633 0.4082 0.0000
0.1633 0.4286 0.0000
0.1633 0.4490 0.0000
0.1633 0.4694 0.0000
0.1633 0.4898 0.0000
0.1633 0.5102 0.0000
0.1633 0.5306 0.0000
0.1633 0.5510 0.0000
0.1633 0.5714 0.0000
0.1633 0.5918 0.0000
0.1633 0.6122 0.0000
0.1633 0.6327 0.0000
0.1633 0.6531 0.0000
0.1633 0.6735 0.0000
0.1633 0.6939 0.0000
0.1633 0.7143 0.0000
0.1633 0.7347 0.0000
0.1633 0.7551 0.0000
0.1633 0.7755 0.0000
0.1633 0.7959 0.0000
0.1633 0.8163 0.0000
0.1633 0.8367 0.0000
0.1633 0.8571 0.0000
0.1633 0.8776 0.0000
0.1633 0.8980 0.0000
0.1633 0.9184 0.0000
0.1633 0.9388 0.0000
0.1633 0.9592 0.0000
0.1633 0.9796 0.0000
0.1633 1.0000 0.0000
0.1837 0.0000 0.0000
0.1837 0.0204 0.0000
0.1837 0.0408 0.0000
0.1837 0.0612 0.0000
0.1837 0.0816 0.0000
0.1837 0.1020 0.0000
0.1837 0.1224 0.0000
0.1837 0.1429 0.0000
0.1837 0.1633 0.0000
0.1837 0.1837 0.0000
0.1837 0.2041 0.0000
[...]
         <PointData>
            <DataArray Name="fValues" NumberOfComponents="3" format="ascii" type="Float64">
 2.66317e-16 -4.12275e-17        00000 
 1.12545e-16 -1.01290e-15        00000 
-1.66940e-16 -1.11293e-16        00000 
-5.73309e-16 -1.32840e-16        00000 
 3.89526e-16        00000        00000 
-9.33044e-17 -6.06758e-16        00000 
-1.39116e-16  1.11293e-16        00000 
-3.67058e-17 -3.07629e-16        00000 
 4.45172e-16  3.33879e-16        00000 
-6.71246e-16 -9.25806e-17        00000 
 6.12112e-16  5.56465e-17        00000 
-1.64302e-16 -2.76167e-16        00000 
-2.78233e-17  1.11293e-16        00000 
 1.48053e-16  4.43431e-16        00000 
-1.80851e-16  3.33879e-16        00000 
-2.88403e-17  3.18117e-16        00000 
 1.39116e-16  3.33879e-16        00000 
 7.11568e-18 -2.96211e-16        00000 
 2.29542e-16  7.23405e-16        00000 
-9.08905e-17  1.81781e-16        00000 
 7.30360e-17  6.12112e-16        00000 
-6.44698e-17 -3.28503e-16        00000 
 3.47791e-18  2.78233e-16        00000 
 3.02604e-17  5.69814e-16        00000 
-7.39055e-18 -5.56465e-17        00000 
-1.86430e-17 -5.04338e-18        00000 
-1.86937e-17  5.56465e-17        00000 
 2.53445e-17 -2.37714e-16        00000 
 3.47791e-17  3.33879e-16        00000 
-9.61937e-17  5.98405e-16        00000 
-8.34698e-17  5.56465e-17        00000 
 6.20502e-17  3.18117e-16        00000 
-2.50409e-16  6.67758e-16        00000 
 1.38430e-16 -2.49454e-16        00000 
-3.33879e-16  1.16858e-15        00000 
-4.80671e-17 -1.64302e-16        00000 
-1.53028e-16  1.39116e-15        00000 
 5.54330e-16 -2.03916e-15        00000 
-3.33879e-16  4.45172e-16        00000 
 2.62184e-16 -2.16739e-16        00000 
-1.94763e-16  1.66940e-16        00000 
 5.61347e-16 -5.75381e-16        00000 
-5.84288e-16  1.66940e-16        00000 
-3.02386e-16  1.04874e-17        00000 
-8.34698e-16 -3.89526e-16        00000 
-6.47961e-17  6.36559e-16        00000 
-2.78233e-16  5.56465e-17        00000 
 4.62305e-16  4.69309e-16        00000 
 9.82167e-17 -5.05114e-16        00000 
-3.19008e-16  7.15186e-16        00000 
-8.30916e+00 -6.86174e+00        00000 
-5.56009e+00 -5.50124e+00        00000 
-4.63712e+00 -4.87908e+00        00000 
-4.00907e+00 -4.53402e+00        00000 
-3.54335e+00 -4.32426e+00        00000 
-3.16739e+00 -4.19071e+00        00000 
-2.85061e+00 -4.10384e+00        00000 
-2.57586e+00 -4.04733e+00        00000 
-2.33272e+00 -4.01136e+00        00000 
-2.11429e+00 -3.98962e+00        00000 
-1.91571e+00 -3.97786e+00        00000 
-1.73336e+00 -3.97313e+00        00000 
-1.56447e+00 -3.97328e+00        00000 
-1.40686e+00 -3.97676e+00        00000 
-1.25872e+00 -3.98238e+00        00000 
-1.11857e+00 -3.98927e+00        00000 
-9.85160e-01 -3.99676e+00        00000 
-8.57407e-01 -4.00433e+00        00000 
-7.34377e-01 -4.01159e+00        00000 
-6.15246e-01 -4.01826e+00        00000 
-4.99280e-01 -4.02409e+00        00000 
-3.85815e-01 -4.02893e+00        00000 
-2.74242e-01 -4.03266e+00        00000 
-1.63993e-01 -4.03519e+00        00000 
-5.45266e-02 -4.03646e+00        00000 
 5.46805e-02 -4.03646e+00        00000 
 1.64147e-01 -4.03518e+00        00000 
 2.74396e-01 -4.03265e+00        00000 
 3.85968e-01 -4.02893e+00        00000 
 4.99432e-01 -4.02408e+00        00000 
 6.15397e-01 -4.01825e+00        00000 
 7.34527e-01 -4.01159e+00        00000 
 8.57556e-01 -4.00432e+00        00000 
 9.85307e-01 -3.99675e+00        00000 
 1.11872e+00 -3.98926e+00        00000 
 1.25886e+00 -3.98237e+00        00000 
 1.40700e+00 -3.97675e+00        00000 
 1.56461e+00 -3.97327e+00        00000 
 1.73349e+00 -3.97312e+00        00000 
 1.91584e+00 -3.97785e+00        00000 
 2.11442e+00 -3.98961e+00        00000 
 2.33285e+00 -4.01135e+00        00000 
 2.57598e+00 -4.04733e+00        00000 
 2.85072e+00 -4.10384e+00        00000 
 3.16749e+00 -4.19071e+00        00000 
 3.54343e+00 -4.32427e+00        00000 
 4.00912e+00 -4.53403e+00        00000 
 4.63713e+00 -4.87908e+00        00000 
 5.56001e+00 -5.50122e+00        00000 
 8.30867e+00 -6.86161e+00        00000 
-1.50788e+01 -1.22802e+01        00000 
-1.12933e+01 -1.10951e+01        00000 
-9.35352e+00 -1.02024e+01        00000 
-8.09055e+00 -9.60371e+00        00000 
-7.13845e+00 -9.19082e+00        00000 
-6.37188e+00 -8.90207e+00        00000 
-5.72733e+00 -8.69829e+00        00000 
-5.16978e+00 -8.55419e+00        00000 
-4.67760e+00 -8.45284e+00        00000 
-4.23640e+00 -8.38255e+00        00000 
-3.83604e+00 -8.33502e+00        00000 
-3.46903e+00 -8.30424e+00        00000 
-3.12960e+00 -8.28575e+00        00000 
-2.81320e+00 -8.27620e+00        00000 
-2.51615e+00 -8.27303e+00        00000 
-2.23537e+00 -8.27427e+00        00000 
-1.96830e+00 -8.27843e+00        00000 
-1.71272e+00 -8.28431e+00        00000 
-1.46672e+00 -8.29100e+00        00000 
-1.22862e+00 -8.29781e+00        00000 
-9.96935e-01 -8.30419e+00        00000 
-7.70311e-01 -8.30972e+00        00000 
-5.47514e-01 -8.31412e+00        00000 
-3.27392e-01 -8.31716e+00        00000 
-1.08853e-01 -8.31872e+00        00000 
 1.09162e-01 -8.31871e+00        00000 
 3.27700e-01 -8.31716e+00        00000 
 5.47821e-01 -8.31411e+00        00000 
 7.70617e-01 -8.30971e+00        00000 
 9.97239e-01 -8.30417e+00        00000 
 1.22892e+00 -8.29779e+00        00000 
 1.46702e+00 -8.29098e+00        00000 
 1.71301e+00 -8.28428e+00        00000 
 1.96859e+00 -8.27840e+00        00000 
 2.23566e+00 -8.27425e+00        00000 
 2.51644e+00 -8.27300e+00        00000 
 2.81349e+00 -8.27617e+00        00000 
 3.12988e+00 -8.28572e+00        00000 
 3.46930e+00 -8.30421e+00        00000 
 3.83631e+00 -8.33499e+00        00000 
 4.23666e+00 -8.38251e+00        00000 
 4.67785e+00 -8.45281e+00        00000 
 5.17001e+00 -8.55416e+00        00000 
 5.72754e+00 -8.69826e+00        00000 
 6.37207e+00 -8.90203e+00        00000 
 7.13860e+00 -9.19078e+00        00000 
 8.09064e+00 -9.60365e+00        00000 
 9.35351e+00 -1.02023e+01        00000 
 1.12931e+01 -1.10950e+01        00000 
 1.50780e+01 -1.22800e+01        00000 
-2.10546e+01 -1.76954e+01        00000 
-1.67483e+01 -1.65507e+01        00000 
-1.40545e+01 -1.56101e+01        00000 
-1.21886e+01 -1.48931e+01        00000 
-1.07612e+01 -1.43545e+01        00000 
-9.60295e+00 -1.39496e+01        00000 
-8.62677e+00 -1.36452e+01        00000 
-7.78204e+00 -1.34167e+01        00000 
-7.03679e+00 -1.32459e+01        00000 
-6.36939e+00 -1.31191e+01        00000 
-5.76445e+00 -1.30259e+01        00000 
-5.21051e+00 -1.29586e+01        00000 
-4.69877e+00 -1.29109e+01        00000 
-4.22223e+00 -1.28783e+01        00000 
-3.77522e+00 -1.28569e+01        00000 
-3.35305e+00 -1.28440e+01        00000 
-2.95176e+00 -1.28371e+01        00000 
-2.56798e+00 -1.28345e+01        00000 
-2.19878e+00 -1.28347e+01        00000 
-1.84160e+00 -1.28366e+01        00000 
-1.49416e+00 -1.28394e+01        00000 
-1.15441e+00 -1.28423e+01        00000 
-8.20469e-01 -1.28450e+01        00000 
-4.90589e-01 -1.28469e+01        00000 
-1.63111e-01 -1.28479e+01        00000 
 1.63573e-01 -1.28479e+01        00000 
 4.91051e-01 -1.28469e+01        00000 
 8.20930e-01 -1.28449e+01        00000 
 1.15487e+00 -1.28423e+01        00000 
 1.49462e+00 -1.28394e+01        00000 
 1.84205e+00 -1.28366e+01        00000 
 2.19923e+00 -1.28346e+01        00000 
 2.56842e+00 -1.28344e+01        00000 
 2.95220e+00 -1.28370e+01        00000 
 3.35348e+00 -1.28439e+01        00000 
 3.77565e+00 -1.28569e+01        00000 
 4.22265e+00 -1.28782e+01        00000 
 4.69918e+00 -1.29109e+01        00000 
 5.21092e+00 -1.29585e+01        00000 
 5.76484e+00 -1.30258e+01        00000 
 6.36977e+00 -1.31190e+01        00000 
 7.03716e+00 -1.32458e+01        00000 
 7.78239e+00 -1.34166e+01        00000 
 8.62708e+00 -1.36451e+01        00000 
 9.60322e+00 -1.39495e+01        00000 
 1.07615e+01 -1.43544e+01        00000 
 1.21887e+01 -1.48929e+01        00000 
 1.40544e+01 -1.56099e+01        00000 
 1.67480e+01 -1.65505e+01        00000 
 2.10536e+01 -1.76951e+01        00000 
-2.65512e+01 -2.31223e+01        00000 
-2.19112e+01 -2.20377e+01        00000 
-1.86477e+01 -2.10918e+01        00000 
-1.62518e+01 -2.03232e+01        00000 
-1.43768e+01 -1.97128e+01        00000 
-1.28388e+01 -1.92312e+01        00000 
-1.15354e+01 -1.88525e+01        00000 
-1.04045e+01 -1.85558e+01        00000 
-9.40568e+00 -1.83242e+01        00000 
-8.51093e+00 -1.81443e+01        00000 
-7.70006e+00 -1.80056e+01        00000 
-6.95790e+00 -1.78994e+01        00000 
-6.27265e+00 -1.78190e+01        00000 
-5.63493e+00 -1.77589e+01        00000 
-5.03711e+00 -1.77146e+01        00000 
-4.47284e+00 -1.76826e+01        00000 
-3.93678e+00 -1.76601e+01        00000 
-3.42436e+00 -1.76447e+01        00000 
-2.93162e+00 -1.76345e+01        00000 
-2.45510e+00 -1.76282e+01        00000 
-1.99173e+00 -1.76245e+01        00000 
-1.53872e+00 -1.76225e+01        00000 
-1.09355e+00 -1.76216e+01        00000 
-6.53849e-01 -1.76212e+01        00000 
-2.17387e-01 -1.76211e+01        00000 
 2.18004e-01 -1.76211e+01        00000 
 6.54465e-01 -1.76212e+01        00000 
 1.09416e+00 -1.76216e+01        00000 
 1.53933e+00 -1.76225e+01        00000 
 1.99234e+00 -1.76245e+01        00000 
 2.45571e+00 -1.76282e+01        00000 
 2.93222e+00 -1.76345e+01        00000 
 3.42495e+00 -1.76446e+01        00000 
 3.93737e+00 -1.76600e+01        00000 
 4.47342e+00 -1.76825e+01        00000 
 5.03768e+00 -1.77145e+01        00000 
 5.63550e+00 -1.77588e+01        00000 
 6.27320e+00 -1.78189e+01        00000 
 6.95844e+00 -1.78993e+01        00000 
 7.70059e+00 -1.80055e+01        00000 
 8.51144e+00 -1.81442e+01        00000 
 9.40616e+00 -1.83240e+01        00000 
 1.04050e+01 -1.85556e+01        00000 
 1.15358e+01 -1.88524e+01        00000 
 1.28391e+01 -1.92310e+01        00000 
 1.43771e+01 -1.97126e+01        00000 
 1.62519e+01 -2.03229e+01        00000 
 1.86476e+01 -2.10915e+01        00000 
 2.19107e+01 -2.20373e+01        00000 
 2.65501e+01 -2.31219e+01        00000 
-3.17046e+01 -2.86325e+01        00000 
-2.68082e+01 -2.75991e+01        00000 
-2.31006e+01 -2.66704e+01        00000 
-2.02456e+01 -2.58828e+01        00000 
-1.79582e+01 -2.52327e+01        00000 
-1.60588e+01 -2.47019e+01        00000 
-1.44381e+01 -2.42710e+01        00000 
-1.30264e+01 -2.39225e+01        00000 
-1.17766e+01 -2.36419e+01        00000 
-1.06557e+01 -2.34169e+01        00000 
-9.63933e+00 -2.32373e+01        00000 
-8.70888e+00 -2.30948e+01        00000 
-7.84985e+00 -2.29823e+01        00000 
-7.05058e+00 -2.28942e+01        00000 
-6.30153e+00 -2.28257e+01        00000 
-5.59476e+00 -2.27730e+01        00000 
-4.92355e+00 -2.27327e+01        00000 
-4.28216e+00 -2.27024e+01        00000 
-3.66560e+00 -2.26798e+01        00000 
-3.06950e+00 -2.26633e+01        00000 
-2.48998e+00 -2.26514e+01        00000 
-1.92353e+00 -2.26431e+01        00000 
-1.36697e+00 -2.26375e+01        00000 
-8.17308e-01 -2.26341e+01        00000 
-2.71729e-01 -2.26325e+01        00000 
 2.72499e-01 -2.26325e+01        00000 
 8.18077e-01 -2.26341e+01        00000 
 1.36774e+00 -2.26375e+01        00000 
 1.92430e+00 -2.26430e+01        00000 
 2.49074e+00 -2.26513e+01        00000 
 3.07026e+00 -2.26632e+01        00000 
 3.66635e+00 -2.26797e+01        00000 
 4.28290e+00 -2.27023e+01        00000 
 4.92429e+00 -2.27326e+01        00000 
 5.59548e+00 -2.27729e+01        00000 
 6.30224e+00 -2.28256e+01        00000 
 7.05128e+00 -2.28941e+01        00000 
 7.85053e+00 -2.29822e+01        00000 
 8.70955e+00 -2.30946e+01        00000 
 9.63998e+00 -2.32372e+01        00000 
 1.06563e+01 -2.34167e+01        00000 
 1.17772e+01 -2.36417e+01        00000 
 1.30269e+01 -2.39223e+01        00000 
 1.44386e+01 -2.42707e+01        00000 
 1.60592e+01 -2.47016e+01        00000 
 1.79585e+01 -2.52324e+01        00000 
 2.02457e+01 -2.58824e+01        00000 
 2.31005e+01 -2.66700e+01        00000 
 2.68077e+01 -2.75987e+01        00000 
 3.17035e+01 -2.86320e+01        00000 
-3.65878e+01 -3.42535e+01        00000 
-3.14719e+01 -3.32660e+01        00000 
-2.74027e+01 -3.23620e+01        00000 
-2.41501e+01 -3.15732e+01        00000 
-2.14864e+01 -3.09032e+01        00000 
-1.92469e+01 -3.03419e+01        00000 
-1.73218e+01 -2.98750e+01        00000 
-1.56371e+01 -2.94885e+01        00000 
-1.41414e+01 -2.91698e+01        00000 
-1.27975e+01 -2.89081e+01        00000 
-1.15775e+01 -2.86939e+01        00000 
-1.04599e+01 -2.85194e+01        00000 
-9.42773e+00 -2.83778e+01        00000 
-8.46725e+00 -2.82635e+01        00000 
-7.56713e+00 -2.81717e+01        00000 
-6.71788e+00 -2.80984e+01        00000 
-5.91148e+00 -2.80402e+01        00000 
-5.14102e+00 -2.79944e+01        00000 
-4.40051e+00 -2.79586e+01        00000 
-3.68469e+00 -2.79311e+01        00000 
-2.98888e+00 -2.79103e+01        00000 
-2.30885e+00 -2.78950e+01        00000 
-1.64075e+00 -2.78843e+01        00000 
-9.80980e-01 -2.78775e+01        00000 
-3.26142e-01 -2.78742e+01        00000 
 3.27065e-01 -2.78742e+01        00000 
 9.81902e-01 -2.78775e+01        00000 
 1.64167e+00 -2.78842e+01        00000 
 2.30976e+00 -2.78950e+01        00000 
 2.98979e+00 -2.79103e+01        00000 
 3.68560e+00 -2.79311e+01        00000 
 4.40141e+00 -2.79586e+01        00000 
 5.14191e+00 -2.79943e+01        00000 
 5.91236e+00 -2.80401e+01        00000 
 6.71875e+00 -2.80982e+01        00000 
 7.56798e+00 -2.81715e+01        00000 
 8.46809e+00 -2.82633e+01        00000 
 9.42854e+00 -2.83776e+01        00000 
 1.04607e+01 -2.85192e+01        00000 
 1.15782e+01 -2.86937e+01        00000 
 1.27982e+01 -2.89078e+01        00000 
 1.41421e+01 -2.91696e+01        00000 
 1.56377e+01 -2.94882e+01        00000 
 1.73223e+01 -2.98747e+01        00000 
 1.92474e+01 -3.03416e+01        00000 
 2.14868e+01 -3.09028e+01        00000 
 2.41502e+01 -3.15727e+01        00000 
 2.74025e+01 -3.23615e+01        00000 
 3.14713e+01 -3.32655e+01        00000 
 3.65866e+01 -3.42529e+01        00000 
-4.12441e+01 -4.00008e+01        00000 
-3.59293e+01 -3.90546e+01        00000 
-3.15539e+01 -3.81781e+01        00000 
-2.79539e+01 -3.73977e+01        00000 
-2.49483e+01 -3.67205e+01        00000 
-2.23908e+01 -3.61416e+01        00000 
-2.01756e+01 -3.56506e+01        00000 
-1.82276e+01 -3.52367e+01        00000 
-1.64924e+01 -3.48890e+01        00000 
-1.49299e+01 -3.45982e+01        00000 
-1.35094e+01 -3.43556e+01        00000 
-1.22069e+01 -3.41540e+01        00000 
-1.10031e+01 -3.39871e+01        00000 
-9.88244e+00 -3.38494e+01        00000 
-8.83196e+00 -3.37362e+01        00000 
-7.84072e+00 -3.36437e+01        00000 
-6.89943e+00 -3.35684e+01        00000 
-6.00009e+00 -3.35077e+01        00000 
-5.13573e+00 -3.34590e+01        00000 
-4.30022e+00 -3.34206e+01        00000 
-3.48810e+00 -3.33908e+01        00000 
-2.69445e+00 -3.33683e+01        00000 
-1.91474e+00 -3.33523e+01        00000 
-1.14479e+00 -3.33420e+01        00000 
-3.80602e-01 -3.33370e+01        00000 
 3.81677e-01 -3.33370e+01        00000 
 1.14586e+00 -3.33420e+01        00000 
 1.91581e+00 -3.33523e+01        00000 
 2.69551e+00 -3.33683e+01        00000 
 3.48916e+00 -3.33907e+01        00000 
 4.30127e+00 -3.34205e+01        00000 
 5.13677e+00 -3.34589e+01        00000 
 6.00112e+00 -3.35075e+01        00000 
 6.90044e+00 -3.35683e+01        00000 
 7.84172e+00 -3.36435e+01        00000 
 8.83294e+00 -3.37360e+01        00000 
 9.88341e+00 -3.38491e+01        00000 
 1.10040e+01 -3.39868e+01        00000 
 1.22078e+01 -3.41537e+01        00000 
 1.35103e+01 -3.43553e+01        00000 
 1.49308e+01 -3.45978e+01        00000 
 1.64932e+01 -3.48887e+01        00000 
 1.82283e+01 -3.52363e+01        00000 
 2.01762e+01 -3.56502e+01        00000 
 2.23913e+01 -3.61411e+01        00000 
 2.49486e+01 -3.67200e+01        00000 
 2.79540e+01 -3.73971e+01        00000 
 3.15537e+01 -3.81775e+01        00000 
 3.59287e+01 -3.90539e+01        00000 
 4.12429e+01 -4.00002e+01        00000 
-4.57019e+01 -4.58828e+01        00000 
-4.02016e+01 -4.49740e+01        00000 
-3.55587e+01 -4.41256e+01        00000 
-3.16515e+01 -4.33591e+01        00000 
-2.83348e+01 -4.26830e+01        00000 
-2.54810e+01 -4.20953e+01        00000 
-2.29908e+01 -4.15892e+01        00000 
-2.07900e+01 -4.11560e+01        00000 
-1.88230e+01 -4.07868e+01        00000 
-1.70474e+01 -4.04733e+01        00000 
-1.54303e+01 -4.02079e+01        00000 
-1.39458e+01 -3.99839e+01        00000 
-1.25726e+01 -3.97955e+01        00000 
-1.12934e+01 -3.96375e+01        00000 
-1.00938e+01 -3.95055e+01        00000 
-8.96144e+00 -3.93957e+01        00000 
-7.88593e+00 -3.93048e+01        00000 
-6.85820e+00 -3.92302e+01        00000 
-5.87035e+00 -3.91694e+01        00000 
-4.91540e+00 -3.91207e+01        00000 
-3.98713e+00 -3.90822e+01        00000 
-3.07995e+00 -3.90530e+01        00000 
-2.18870e+00 -3.90318e+01        00000 
-1.30859e+00 -3.90181e+01        00000 
-4.35060e-01 -3.90114e+01        00000 
 4.36286e-01 -3.90114e+01        00000 
 1.30981e+00 -3.90181e+01        00000 
 2.18992e+00 -3.90318e+01        00000 
 3.08117e+00 -3.90529e+01        00000 
 3.98834e+00 -3.90822e+01        00000 
 4.91659e+00 -3.91205e+01        00000 
 5.87153e+00 -3.91693e+01        00000 
 6.85938e+00 -3.92300e+01        00000 
 7.88709e+00 -3.93046e+01        00000 
 8.96258e+00 -3.93955e+01        00000 
 1.00949e+01 -3.95052e+01        00000 
 1.12945e+01 -3.96372e+01        00000 
 1.25736e+01 -3.97952e+01        00000 
 1.39468e+01 -3.99836e+01        00000 
 1.54313e+01 -4.02075e+01        00000 
 1.70483e+01 -4.04729e+01        00000 
 1.88239e+01 -4.07864e+01        00000 
 2.07908e+01 -4.11556e+01        00000 
 2.29915e+01 -4.15887e+01        00000 
 2.54815e+01 -4.20948e+01        00000 
 2.83352e+01 -4.26824e+01        00000 
 3.16516e+01 -4.33585e+01        00000 
 3.55586e+01 -4.41249e+01        00000 
 4.02010e+01 -4.49733e+01        00000 
 4.57008e+01 -4.58821e+01        00000 
-4.99813e+01 -5.19034e+01        00000 
-4.43052e+01 -5.10291e+01        00000 
-3.94231e+01 -5.02084e+01        00000 
-3.52406e+01 -4.94591e+01        00000 
-3.16401e+01 -4.87893e+01        00000 
-2.85106e+01 -4.81994e+01        00000 
-2.57605e+01 -4.76848e+01        00000 
-2.33180e+01 -4.72388e+01        00000 
-2.11273e+01 -4.68540e+01        00000 
-1.91447e+01 -4.65232e+01        00000 
-1.73358e+01 -4.62397e+01        00000 
-1.56728e+01 -4.59975e+01        00000 
-1.41329e+01 -4.57912e+01        00000 
-1.26973e+01 -4.56160e+01        00000 
-1.13502e+01 -4.54677e+01        00000 
-1.00781e+01 -4.53427e+01        00000 
-8.86942e+00 -4.52380e+01        00000 
-7.71408e+00 -4.51509e+01        00000 
-6.60332e+00 -4.50792e+01        00000 
-5.52939e+00 -4.50209e+01        00000 
-4.48534e+00 -4.49745e+01        00000 
-3.46489e+00 -4.49389e+01        00000 
-2.46229e+00 -4.49129e+01        00000 
-1.47218e+00 -4.48960e+01        00000 
-4.89454e-01 -4.48877e+01        00000 
 4.90829e-01 -4.48877e+01        00000 
 1.47356e+00 -4.48960e+01        00000 
 2.46366e+00 -4.49129e+01        00000 
 3.46625e+00 -4.49388e+01        00000 
 4.48669e+00 -4.49744e+01        00000 
 5.53073e+00 -4.50207e+01        00000 
 6.60465e+00 -4.50790e+01        00000 
 7.71539e+00 -4.51507e+01        00000 
 8.87071e+00 -4.52378e+01        00000 
 1.00794e+01 -4.53425e+01        00000 
 1.13515e+01 -4.54674e+01        00000 
 1.26985e+01 -4.56156e+01        00000 
 1.41341e+01 -4.57908e+01        00000 
 1.56739e+01 -4.59971e+01        00000 
 1.73369e+01 -4.62393e+01        00000 
 1.91457e+01 -4.65227e+01        00000 
 2.11282e+01 -4.68535e+01        00000 
 2.33189e+01 -4.72382e+01        00000 
 2.57613e+01 -4.76842e+01        00000 
 2.85112e+01 -4.81988e+01        00000 
 3.16405e+01 -4.87887e+01        00000 
 3.52408e+01 -4.94584e+01        00000 