<?xml version="1.0" encoding="utf-8"?>
<VTKFile byte_order="LittleEndian" type="UnstructuredGrid" version="0.1">
   <UnstructuredGrid>
      <Piece NumberOfCells="22642" NumberOfPoints="11397">
         <Points>
            <DataArray Name="Points" NumberOfComponents="3" format="ascii" type="Float32">
0.0000 1.0000 0.0000
0.0000 0.9000 0.0000
0.1000 1.0000 0.0000
0.0866 0.8500 0.0000
0.1500 0.9134 0.0000
0.0000 0.8000 0.0000
0.2000 1.0000 0.0000
0.1732 0.8000 0.0000
0.0866 0.7500 0.0000
0.2500 0.9134 0.0000
0.0000 0.7000 0.0000
0.3000 1.0000 0.0000
0.1732 0.7000 0.0000
0.0866 0.6500 0.0000
0.3402 0.8413 0.0000
0.0000 0.6000 0.0000
0.4000 1.0000 0.0000
0.2898 0.6986 0.0000
0.4123 0.9100 0.0000
0.1744 0.5927 0.0000
0.3687 0.7473 0.0000
0.4343 0.8129 0.0000
0.3029 0.6258 0.0000
0.0000 0.5000 0.0000
0.0000 0.5000 0.0000
0.5000 1.0000 0.0000
0.3761 0.6649 0.0000
0.0959 0.5000 0.0000
0.0959 0.5000 0.0000
0.2615 0.5564 0.0000
0.5077 0.8806 0.0000
0.4472 0.7211 0.0000
0.1917 0.5000 0.0000
0.1917 0.5000 0.0000
0.4298 0.6598 0.0000
0.4040 0.6188 0.0000
0.3673 0.5734 0.0000
0.3165 0.5291 0.0000
0.2858 0.5000 0.0000
0.2858 0.5000 0.0000
0.4829 0.6684 0.0000
0.3603 0.5354 0.0000
0.4179 0.5864 0.0000
0.4345 0.6010 0.0000
0.4015 0.5644 0.0000
0.5464 0.7682 0.0000
0.4581 0.6206 0.0000
0.5168 0.6992 0.0000
0.3891 0.5456 0.0000
0.0000 0.4000 0.0000
0.6000 1.0000 0.0000
0.3498 0.5000 0.0000
0.3498 0.5000 0.0000
0.4268 0.5628 0.0000
0.4410 0.5763 0.0000
0.4575 0.5899 0.0000
0.2615 0.4436 0.0000
0.3870 0.5204 0.0000
0.3165 0.4709 0.0000
0.4174 0.5446 0.0000
0.1744 0.4073 0.0000
0.4060 0.5267 0.0000
0.4444 0.5585 0.0000
0.4338 0.5461 0.0000
0.4573 0.5685 0.0000
0.3910 0.5000 0.0000
0.3910 0.5000 0.0000
0.4035 0.5078 0.0000
0.4230 0.5242 0.0000
0.4496 0.5479 0.0000
0.4547 0.5527 0.0000
0.4450 0.5425 0.0000
0.5168 0.6246 0.0000
0.4603 0.5570 0.0000
0.4798 0.5781 0.0000
0.4410 0.5368 0.0000
0.4663 0.5608 0.0000
0.4174 0.5138 0.0000
0.4376 0.5306 0.0000
0.4726 0.5639 0.0000
0.5019 0.5964 0.0000
0.4348 0.5241 0.0000
0.3603 0.4646 0.0000
0.4575 0.5448 0.0000
0.4531 0.5402 0.0000
0.4622 0.5488 0.0000
0.4792 0.5663 0.0000
0.4493 0.5353 0.0000
0.4673 0.5524 0.0000
0.4460 0.5300 0.0000
0.4327 0.5174 0.0000
0.3870 0.4796 0.0000
0.4035 0.4922 0.0000
0.4728 0.5554 0.0000
0.4432 0.5243 0.0000
0.4860 0.5681 0.0000
0.4971 0.5804 0.0000
0.4591 0.5388 0.0000
0.4165 0.5000 0.0000
0.4165 0.5000 0.0000
0.4633 0.5428 0.0000
0.4554 0.5345 0.0000
0.4785 0.5579 0.0000
0.4678 0.5463 0.0000
0.5791 0.7006 0.0000
0.4521 0.5298 0.0000
0.4411 0.5185 0.0000
0.4726 0.5493 0.0000
0.4302 0.5085 0.0000
0.4494 0.5248 0.0000
0.4647 0.5390 0.0000
0.4610 0.5353 0.0000
0.4845 0.5598 0.0000
0.4628 0.5368 0.0000
0.4667 0.5403 0.0000
0.4778 0.5518 0.0000
0.4935 0.5692 0.0000
0.4593 0.5328 0.0000
0.4689 0.5424 0.0000
0.4580 0.5311 0.0000
0.4711 0.5439 0.0000
0.4561 0.5290 0.0000
0.6500 0.9134 0.0000
0.0866 0.3500 0.0000
0.4471 0.5196 0.0000
0.4395 0.5124 0.0000
0.4551 0.5268 0.0000
0.4737 0.5452 0.0000
0.4756 0.5466 0.0000
0.4534 0.5244 0.0000
0.4656 0.5362 0.0000
0.4638 0.5344 0.0000
0.4674 0.5379 0.0000
0.4621 0.5326 0.0000
0.4694 0.5395 0.0000
0.4605 0.5306 0.0000
0.4831 0.5538 0.0000
0.4714 0.5410 0.0000
0.4590 0.5286 0.0000
0.5596 0.6540 0.0000
0.4522 0.5220 0.0000
0.5070 0.5805 0.0000
0.4906 0.5610 0.0000
0.4784 0.5475 0.0000
0.4736 0.5424 0.0000
0.4576 0.5264 0.0000
0.4454 0.5141 0.0000
0.4757 0.5437 0.0000
0.4563 0.5243 0.0000
0.4670 0.5347 0.0000
0.4803 0.5484 0.0000
0.4624 0.5300 0.0000
0.4513 0.5191 0.0000
0.4612 0.5283 0.0000
0.4656 0.5325 0.0000
0.4780 0.5449 0.0000
0.4551 0.5220 0.0000
0.4725 0.5390 0.0000
0.4598 0.5263 0.0000
0.4830 0.5498 0.0000
0.4502 0.5170 0.0000
0.4709 0.5371 0.0000
0.4647 0.5303 0.0000
0.4886 0.5552 0.0000
0.4320 0.5000 0.0000
0.4320 0.5000 0.0000
0.4585 0.5242 0.0000
0.4803 0.5460 0.0000
0.4541 0.5197 0.0000
0.5015 0.5694 0.0000
0.4381 0.5048 0.0000
0.4763 0.5411 0.0000
0.4700 0.5346 0.0000
0.4574 0.5221 0.0000
0.4855 0.5506 0.0000
0.4637 0.5282 0.0000
0.4750 0.5392 0.0000
0.4826 0.5469 0.0000
0.4531 0.5174 0.0000
0.4174 0.4862 0.0000
0.4496 0.5141 0.0000
0.4688 0.5325 0.0000
0.4625 0.5260 0.0000
0.4784 0.5417 0.0000
0.4443 0.5085 0.0000
0.4800 0.5433 0.0000
0.4738 0.5368 0.0000
0.4562 0.5195 0.0000
0.4675 0.5303 0.0000
0.4612 0.5238 0.0000
0.4487 0.5119 0.0000
0.4725 0.5346 0.0000
0.4850 0.5477 0.0000
0.4523 0.5150 0.0000
0.4979 0.5617 0.0000
0.4550 0.5173 0.0000
0.4662 0.5282 0.0000
0.4885 0.5510 0.0000
0.4600 0.5216 0.0000
0.4775 0.5390 0.0000
0.4713 0.5325 0.0000
0.4822 0.5436 0.0000
0.4650 0.5260 0.0000
0.5199 0.5865 0.0000
0.4587 0.5195 0.0000
0.4763 0.5368 0.0000
0.4700 0.5303 0.0000
0.4875 0.5484 0.0000
0.4516 0.5125 0.0000
0.4907 0.5518 0.0000
0.4637 0.5238 0.0000
0.4813 0.5411 0.0000
0.4750 0.5346 0.0000
0.4060 0.4733 0.0000
0.4575 0.5173 0.0000
0.4486 0.5090 0.0000
0.4688 0.5282 0.0000
0.4861 0.5458 0.0000
0.4949 0.5554 0.0000
0.4625 0.5216 0.0000
0.4800 0.5390 0.0000
0.4738 0.5325 0.0000
0.4560 0.5151 0.0000
0.4675 0.5260 0.0000
0.5471 0.6204 0.0000
0.4899 0.5490 0.0000
0.4510 0.5101 0.0000
0.4612 0.5195 0.0000
0.4302 0.4914 0.0000
0.4788 0.5368 0.0000
0.4850 0.5433 0.0000
0.4725 0.5303 0.0000
0.4546 0.5129 0.0000
0.4434 0.5027 0.0000
0.4482 0.5069 0.0000
0.4662 0.5238 0.0000
0.4937 0.5519 0.0000
0.4775 0.5346 0.0000
0.4838 0.5411 0.0000
0.4600 0.5173 0.0000
0.4413 0.5000 0.0000
0.4413 0.5000 0.0000
0.4713 0.5282 0.0000
0.5327 0.5985 0.0000
0.4887 0.5460 0.0000
0.4650 0.5216 0.0000
0.4537 0.5108 0.0000
0.4825 0.5390 0.0000
0.4763 0.5325 0.0000
0.4924 0.5494 0.0000
0.4506 0.5076 0.0000
0.4587 0.5152 0.0000
0.4700 0.5260 0.0000
0.4637 0.5195 0.0000
0.4813 0.5368 0.0000
0.4525 0.5087 0.0000
0.4875 0.5433 0.0000
0.4750 0.5303 0.0000
0.4960 0.5525 0.0000
0.4475 0.5040 0.0000
0.4688 0.5238 0.0000
0.4575 0.5130 0.0000
0.4381 0.4953 0.0000
0.4625 0.5173 0.0000
0.4800 0.5346 0.0000
0.4863 0.5411 0.0000
0.4738 0.5282 0.0000
0.5050 0.5617 0.0000
0.4675 0.5216 0.0000
0.4912 0.5460 0.0000
0.4562 0.5108 0.0000
0.4949 0.5497 0.0000
0.4503 0.5051 0.0000
0.4850 0.5390 0.0000
0.4788 0.5325 0.0000
0.4612 0.5152 0.0000
0.4725 0.5260 0.0000
0.5125 0.5694 0.0000
0.4662 0.5195 0.0000
0.5013 0.5561 0.0000
0.4550 0.5087 0.0000
0.4838 0.5368 0.0000
0.4775 0.5303 0.0000
0.4900 0.5433 0.0000
0.4600 0.5130 0.0000
0.4713 0.5238 0.0000
0.4987 0.5526 0.0000
0.3891 0.4544 0.0000
0.4650 0.5173 0.0000
0.4434 0.4973 0.0000
0.4825 0.5346 0.0000
0.4888 0.5411 0.0000
0.4537 0.5065 0.0000
0.4763 0.5282 0.0000
0.4468 0.5000 0.0000
0.4468 0.5000 0.0000
0.4950 0.5476 0.0000
0.4700 0.5216 0.0000
0.4587 0.5108 0.0000
0.4975 0.5499 0.0000
0.4501 0.5025 0.0000
0.4637 0.5152 0.0000
0.4813 0.5325 0.0000
0.4875 0.5390 0.0000
0.4750 0.5260 0.0000
0.4938 0.5455 0.0000
0.4525 0.5043 0.0000
0.4688 0.5195 0.0000
0.4575 0.5087 0.0000
0.4863 0.5368 0.0000
0.4800 0.5303 0.0000
0.4625 0.5130 0.0000
0.4925 0.5433 0.0000
0.4738 0.5238 0.0000
0.5012 0.5526 0.0000
0.4675 0.5173 0.0000
0.4971 0.5476 0.0000
0.4562 0.5065 0.0000
0.4850 0.5346 0.0000
0.4788 0.5282 0.0000
0.4913 0.5411 0.0000
0.4612 0.5108 0.0000
0.4725 0.5216 0.0000
0.4662 0.5152 0.0000
0.5000 0.5500 0.0000
0.4500 0.5000 0.0000
0.4500 0.5000 0.0000
0.4838 0.5325 0.0000
0.4900 0.5390 0.0000
0.4775 0.5260 0.0000
0.4550 0.5043 0.0000
0.4963 0.5455 0.0000
0.4713 0.5195 0.0000
0.4600 0.5087 0.0000
0.5105 0.5611 0.0000
0.4650 0.5130 0.0000
0.4825 0.5303 0.0000
0.4888 0.5368 0.0000
0.4763 0.5238 0.0000
0.4950 0.5433 0.0000
0.4230 0.4758 0.0000
0.4537 0.5022 0.0000
0.4700 0.5173 0.0000
0.5038 0.5526 0.0000
0.4587 0.5065 0.0000
0.4875 0.5346 0.0000
0.4813 0.5282 0.0000
0.4475 0.4960 0.0000
0.4938 0.5411 0.0000
0.4637 0.5108 0.0000
0.5075 0.5563 0.0000
0.4750 0.5216 0.0000
0.5000 0.5476 0.0000
0.4525 0.5000 0.0000
0.4525 0.5000 0.0000
0.4688 0.5152 0.0000
0.4327 0.4826 0.0000
0.4575 0.5043 0.0000
0.5025 0.5500 0.0000
0.4863 0.5325 0.0000
0.4800 0.5260 0.0000
0.4501 0.4975 0.0000
0.4925 0.5390 0.0000
0.4625 0.5087 0.0000
0.4738 0.5195 0.0000
0.4988 0.5455 0.0000
0.4675 0.5130 0.0000
0.4395 0.4876 0.0000
0.4850 0.5303 0.0000
0.4913 0.5368 0.0000
0.4788 0.5238 0.0000
0.4443 0.4915 0.0000
0.4562 0.5022 0.0000
0.4975 0.5433 0.0000
0.4725 0.5173 0.0000
0.4612 0.5065 0.0000
0.4900 0.5346 0.0000
0.4838 0.5282 0.0000
0.4662 0.5108 0.0000
0.4963 0.5411 0.0000
0.4775 0.5216 0.0000
0.5065 0.5523 0.0000
0.4550 0.5000 0.0000
0.4550 0.5000 0.0000
0.5025 0.5476 0.0000
0.4713 0.5152 0.0000
0.4600 0.5043 0.0000
0.5150 0.5617 0.0000
0.4888 0.5325 0.0000
0.4825 0.5260 0.0000
0.5050 0.5500 0.0000
0.4950 0.5390 0.0000
0.4650 0.5087 0.0000
0.4763 0.5195 0.0000
0.4482 0.4931 0.0000
0.4503 0.4949 0.0000
0.5012 0.5455 0.0000
0.4537 0.4978 0.0000
0.4700 0.5130 0.0000
0.5250 0.5728 0.0000
0.4875 0.5303 0.0000
0.4587 0.5022 0.0000
0.4938 0.5368 0.0000
0.4813 0.5238 0.0000
0.5000 0.5433 0.0000
0.4750 0.5173 0.0000
0.4637 0.5065 0.0000
0.5088 0.5526 0.0000
0.4688 0.5108 0.0000
0.4863 0.5282 0.0000
0.4525 0.4957 0.0000
0.4925 0.5346 0.0000
0.4800 0.5216 0.0000
0.4575 0.5000 0.0000
0.4575 0.5000 0.0000
0.4988 0.5411 0.0000
0.5125 0.5563 0.0000
0.4738 0.5152 0.0000
0.4625 0.5043 0.0000
0.5050 0.5476 0.0000
0.4913 0.5325 0.0000
0.4850 0.5260 0.0000
0.4675 0.5087 0.0000
0.4975 0.5390 0.0000
0.5075 0.5500 0.0000
0.5334 0.5810 0.0000
0.4788 0.5195 0.0000
0.4486 0.4910 0.0000
0.4562 0.4978 0.0000
0.5038 0.5455 0.0000
0.4725 0.5130 0.0000
0.4612 0.5022 0.0000
0.4506 0.4924 0.0000
0.4900 0.5303 0.0000
0.4838 0.5238 0.0000
0.4963 0.5368 0.0000
0.4662 0.5065 0.0000
0.4775 0.5173 0.0000
0.5025 0.5433 0.0000
0.4713 0.5108 0.0000
0.4550 0.4957 0.0000
0.4888 0.5282 0.0000
0.4950 0.5346 0.0000
0.4600 0.5000 0.0000
0.4600 0.5000 0.0000
0.4825 0.5216 0.0000
0.5012 0.5411 0.0000
0.4763 0.5152 0.0000
0.4650 0.5043 0.0000
0.5115 0.5523 0.0000
0.5075 0.5476 0.0000
0.4700 0.5087 0.0000
0.4875 0.5260 0.0000
0.4938 0.5325 0.0000
0.4537 0.4935 0.0000
0.4813 0.5195 0.0000
0.5000 0.5390 0.0000
0.5100 0.5500 0.0000
0.4587 0.4978 0.0000
0.4454 0.4859 0.0000
0.4750 0.5130 0.0000
[...]
         <PointData>
            <DataArray Name="fValues" NumberOfComponents="3" format="ascii" type="Float64">
 2.03011e-24  5.88400e-03        00000 
-5.76877e-09  5.88401e-03        00000 
 2.20792e-24  5.88400e-03        00000 
-8.60665e-09  5.88401e-03        00000 
-3.78143e-09  5.88400e-03        00000 
-1.43559e-08  5.88401e-03        00000 
-9.21044e-25  5.88400e-03        00000 
-1.23880e-08  5.88400e-03        00000 
-1.85970e-08  5.88401e-03        00000 
-3.36917e-09  5.88400e-03        00000 
-2.52277e-08  5.88402e-03        00000 
-1.26193e-24  5.88400e-03        00000 
-2.41865e-08  5.88400e-03        00000 
-3.08361e-08  5.88401e-03        00000 
-7.54894e-09  5.88399e-03        00000 
-3.65914e-08  5.88402e-03        00000 
-3.33677e-25  5.88400e-03        00000 
-2.37351e-08  5.88400e-03        00000 
-3.15530e-09  5.88399e-03        00000 
-3.83222e-08  5.88400e-03        00000 
-1.81010e-08  5.88399e-03        00000 
-1.09539e-08  5.88399e-03        00000 
-3.51795e-08  5.88399e-03        00000 
-4.75614e-08  5.88402e-03        00000 
-1.85637e-08 -7.00338e-09        00000 
-2.88643e-25  5.88400e-03        00000 
-2.93317e-08  5.88398e-03        00000 
-4.78432e-08  5.88401e-03        00000 
-1.87520e-08 -1.42348e-09        00000 
-4.51819e-08  5.88400e-03        00000 
-5.37588e-09  5.88399e-03        00000 
-2.27355e-08  5.88398e-03        00000 
-4.94402e-08  5.88400e-03        00000 
-1.99438e-08  4.48149e-09        00000 
-3.16865e-08  5.88398e-03        00000 
-3.79781e-08  5.88398e-03        00000 
-4.60181e-08  5.88398e-03        00000 
-5.19382e-08  5.88399e-03        00000 
-5.38908e-08  5.88399e-03        00000 
-2.25304e-08  1.26433e-08        00000 
-3.27826e-08  5.88397e-03        00000 
-5.37053e-08  5.88398e-03        00000 
-4.47238e-08  5.88397e-03        00000 
-4.20427e-08  5.88397e-03        00000 
-4.92425e-08  5.88398e-03        00000 
-1.85710e-08  5.88398e-03        00000 
-3.97253e-08  5.88397e-03        00000 
-2.95856e-08  5.88397e-03        00000 
-5.34334e-08  5.88398e-03        00000 
-1.19527e-08 -6.77363e-09        00000 
-1.59279e-24  5.88400e-03        00000 
-5.94679e-08  5.88398e-03        00000 
-2.49775e-08  2.07583e-08        00000 
-5.05043e-08  5.88397e-03        00000 
-4.75598e-08  5.88397e-03        00000 
-4.54569e-08  5.88396e-03        00000 
-1.62099e-08  9.66513e-09        00000 
-5.95731e-08  5.88398e-03        00000 
-1.99322e-08  1.62036e-08        00000 
-5.52560e-08  5.88397e-03        00000 
-1.25687e-08  2.95399e-09        00000 
-5.98707e-08  5.88397e-03        00000 
-5.20779e-08  5.88396e-03        00000 
-5.55415e-08  5.88397e-03        00000 
-4.98615e-08  5.88396e-03        00000 
-6.46767e-08  5.88398e-03        00000 
-2.69463e-08  2.82793e-08        00000 
-6.47928e-08  5.88397e-03        00000 
-6.23174e-08  5.88397e-03        00000 
-5.53172e-08  5.88396e-03        00000 
-5.38503e-08  5.88396e-03        00000 
-5.70083e-08  5.88396e-03        00000 
-4.41848e-08  5.88396e-03        00000 
-5.28454e-08  5.88396e-03        00000 
-4.94466e-08  5.88395e-03        00000 
-5.90460e-08  5.88396e-03        00000 
-5.21140e-08  5.88395e-03        00000 
-6.50999e-08  5.88397e-03        00000 
-6.11431e-08  5.88397e-03        00000 
-5.18809e-08  5.88395e-03        00000 
-4.84568e-08  5.88395e-03        00000 
-6.34823e-08  5.88397e-03        00000 
-1.97913e-08  2.20632e-08        00000 
-5.64083e-08  5.88396e-03        00000 
-5.79769e-08  5.88396e-03        00000 
-5.51598e-08  5.88396e-03        00000 
-5.20229e-08  5.88395e-03        00000 
-5.98306e-08  5.88396e-03        00000 
-5.43052e-08  5.88395e-03        00000 
-6.19096e-08  5.88396e-03        00000 
-6.60043e-08  5.88397e-03        00000 
-2.28206e-08  2.71705e-08        00000 
-2.57873e-08  3.11805e-08        00000 
-5.38272e-08  5.88395e-03        00000 
-6.41923e-08  5.88396e-03        00000 
-5.24265e-08  5.88395e-03        00000 
-5.13716e-08  5.88395e-03        00000 
-5.85327e-08  5.88396e-03        00000 
-6.91305e-08  5.88397e-03        00000 
-2.83074e-08  3.46089e-08        00000 
-5.71252e-08  5.88395e-03        00000 
-6.02499e-08  5.88396e-03        00000 
-5.37746e-08  5.88395e-03        00000 
-5.60731e-08  5.88395e-03        00000 
-3.24015e-08  5.88396e-03        00000 
-6.22351e-08  5.88396e-03        00000 
-6.65929e-08  5.88396e-03        00000 
-5.54069e-08  5.88395e-03        00000 
-6.89406e-08  5.88397e-03        00000 
-6.44370e-08  5.88396e-03        00000 
-5.84815e-08  5.88395e-03        00000 
-5.99758e-08  5.88395e-03        00000 
-5.40528e-08  5.88395e-03        00000 
-5.93490e-08  5.88395e-03        00000 
-5.80075e-08  5.88395e-03        00000 
-5.51322e-08  5.88395e-03        00000 
-5.32831e-08  5.88395e-03        00000 
-6.10183e-08  5.88396e-03        00000 
-5.73355e-08  5.88395e-03        00000 
-6.18005e-08  5.88396e-03        00000 
-5.68894e-08  5.88395e-03        00000 
-6.27479e-08  5.88396e-03        00000 
-3.44394e-09  5.88399e-03        00000 
-8.53789e-09 -1.66478e-09        00000 
-6.67881e-08  5.88396e-03        00000 
-6.90425e-08  5.88396e-03        00000 
-6.37926e-08  5.88396e-03        00000 
-5.66369e-08  5.88395e-03        00000 
-5.63250e-08  5.88395e-03        00000 
-6.48973e-08  5.88396e-03        00000 
-5.95604e-08  5.88395e-03        00000 
-6.03063e-08  5.88395e-03        00000 
-5.88908e-08  5.88395e-03        00000 
-6.11331e-08  5.88395e-03        00000 
-5.83215e-08  5.88395e-03        00000 
-6.20330e-08  5.88396e-03        00000 
-5.52390e-08  5.88395e-03        00000 
-5.78484e-08  5.88395e-03        00000 
-6.29993e-08  5.88396e-03        00000 
-4.18124e-08  5.88396e-03        00000 
-6.60575e-08  5.88396e-03        00000 
-5.27161e-08  5.88395e-03        00000 
-5.46283e-08  5.88394e-03        00000 
-5.63035e-08  5.88395e-03        00000 
-5.74521e-08  5.88395e-03        00000 
-6.40279e-08  5.88396e-03        00000 
-6.92172e-08  5.88396e-03        00000 
-5.71706e-08  5.88395e-03        00000 
-6.51035e-08  5.88396e-03        00000 
-6.01774e-08  5.88395e-03        00000 
-5.62374e-08  5.88395e-03        00000 
-6.23298e-08  5.88395e-03        00000 
-6.74488e-08  5.88396e-03        00000 
-6.31425e-08  5.88395e-03        00000 
-6.11528e-08  5.88395e-03        00000 
-5.69802e-08  5.88395e-03        00000 
-6.62369e-08  5.88396e-03        00000 
-5.85650e-08  5.88395e-03        00000 
-6.41637e-08  5.88396e-03        00000 
-5.61890e-08  5.88394e-03        00000 
-6.84394e-08  5.88396e-03        00000 
-5.92249e-08  5.88395e-03        00000 
-6.21507e-08  5.88395e-03        00000 
-5.56674e-08  5.88394e-03        00000 
-7.22989e-08  5.88397e-03        00000 
-2.89021e-08  3.95390e-08        00000 
-6.52318e-08  5.88396e-03        00000 
-5.68841e-08  5.88394e-03        00000 
-6.74046e-08  5.88396e-03        00000 
-5.44869e-08  5.88394e-03        00000 
-7.19567e-08  5.88396e-03        00000 
-5.79798e-08  5.88395e-03        00000 
-6.01803e-08  5.88395e-03        00000 
-6.63520e-08  5.88396e-03        00000 
-5.63099e-08  5.88394e-03        00000 
-6.32346e-08  5.88395e-03        00000 
-5.85569e-08  5.88395e-03        00000 
-5.68760e-08  5.88394e-03        00000 
-6.85930e-08  5.88396e-03        00000 
-2.45903e-08  3.48374e-08        00000 
-6.98716e-08  5.88396e-03        00000 
-6.11115e-08  5.88395e-03        00000 
-6.43687e-08  5.88395e-03        00000 
-5.79166e-08  5.88394e-03        00000 
-7.16524e-08  5.88396e-03        00000 
-5.75845e-08  5.88394e-03        00000 
-5.93551e-08  5.88395e-03        00000 
-6.77258e-08  5.88396e-03        00000 
-6.21262e-08  5.88395e-03        00000 
-6.55358e-08  5.88395e-03        00000 
-7.08814e-08  5.88396e-03        00000 
-6.01723e-08  5.88395e-03        00000 
-5.69607e-08  5.88394e-03        00000 
-6.98118e-08  5.88396e-03        00000 
-5.56876e-08  5.88394e-03        00000 
-6.88403e-08  5.88396e-03        00000 
-6.32151e-08  5.88395e-03        00000 
-5.66441e-08  5.88394e-03        00000 
-6.67314e-08  5.88396e-03        00000 
-5.87240e-08  5.88394e-03        00000 
-6.10790e-08  5.88395e-03        00000 
-5.76930e-08  5.88394e-03        00000 
-6.43773e-08  5.88395e-03        00000 
-5.32776e-08  5.88395e-03        00000 
-6.79232e-08  5.88396e-03        00000 
-5.94065e-08  5.88395e-03        00000 
-6.20831e-08  5.88395e-03        00000 
-5.71224e-08  5.88394e-03        00000 
-7.10380e-08  5.88396e-03        00000 
-5.68024e-08  5.88394e-03        00000 
-6.55865e-08  5.88395e-03        00000 
-5.83052e-08  5.88394e-03        00000 
-6.01811e-08  5.88395e-03        00000 
-2.16809e-08  3.16733e-08        00000 
-6.91084e-08  5.88396e-03        00000 
-7.23103e-08  5.88396e-03        00000 
-6.31742e-08  5.88395e-03        00000 
-5.75739e-08  5.88394e-03        00000 
-5.66468e-08  5.88394e-03        00000 
-6.68371e-08  5.88395e-03        00000 
-5.88624e-08  5.88394e-03        00000 
-6.10521e-08  5.88395e-03        00000 
-7.02414e-08  5.88396e-03        00000 
-6.43555e-08  5.88395e-03        00000 
-4.83459e-08  5.88395e-03        00000 
-5.73655e-08  5.88394e-03        00000 
-7.22638e-08  5.88396e-03        00000 
-6.80960e-08  5.88395e-03        00000 
-2.61055e-08  3.88582e-08        00000 
-5.94934e-08  5.88394e-03        00000 
-5.80954e-08  5.88394e-03        00000 
-6.20327e-08  5.88395e-03        00000 
-7.13402e-08  5.88396e-03        00000 
-7.40334e-08  5.88396e-03        00000 
-7.32801e-08  5.88396e-03        00000 
-6.56024e-08  5.88395e-03        00000 
-5.73021e-08  5.88394e-03        00000 
-6.02180e-08  5.88394e-03        00000 
-5.85429e-08  5.88394e-03        00000 
-6.93543e-08  5.88396e-03        00000 
-7.45612e-08  5.88396e-03        00000 
-2.92476e-08  4.29659e-08        00000 
-6.31151e-08  5.88395e-03        00000 
-5.18529e-08  5.88395e-03        00000 
-5.79275e-08  5.88394e-03        00000 
-6.69071e-08  5.88395e-03        00000 
-7.23720e-08  5.88396e-03        00000 
-5.90525e-08  5.88394e-03        00000 
-6.10421e-08  5.88394e-03        00000 
-5.76806e-08  5.88394e-03        00000 
-7.34788e-08  5.88396e-03        00000 
-7.05751e-08  5.88396e-03        00000 
-6.43052e-08  5.88395e-03        00000 
-6.82347e-08  5.88395e-03        00000 
-5.96294e-08  5.88394e-03        00000 
-7.33289e-08  5.88396e-03        00000 
-5.84350e-08  5.88394e-03        00000 
-6.19846e-08  5.88395e-03        00000 
-5.75812e-08  5.88394e-03        00000 
-7.44901e-08  5.88396e-03        00000 
-6.55813e-08  5.88395e-03        00000 
-7.17514e-08  5.88396e-03        00000 
-2.74179e-08  4.17202e-08        00000 
-6.95724e-08  5.88395e-03        00000 
-6.02958e-08  5.88394e-03        00000 
-5.88443e-08  5.88394e-03        00000 
-6.30435e-08  5.88395e-03        00000 
-5.69397e-08  5.88394e-03        00000 
-6.69364e-08  5.88395e-03        00000 
-5.83430e-08  5.88394e-03        00000 
-7.28532e-08  5.88396e-03        00000 
-5.80680e-08  5.88394e-03        00000 
-7.46827e-08  5.88396e-03        00000 
-5.93050e-08  5.88394e-03        00000 
-6.10622e-08  5.88394e-03        00000 
-7.08799e-08  5.88395e-03        00000 
-6.42289e-08  5.88395e-03        00000 
-5.63090e-08  5.88394e-03        00000 
-6.83331e-08  5.88395e-03        00000 
-5.76500e-08  5.88394e-03        00000 
-7.38780e-08  5.88396e-03        00000 
-5.98256e-08  5.88394e-03        00000 
-6.19520e-08  5.88394e-03        00000 
-5.88284e-08  5.88394e-03        00000 
-7.21452e-08  5.88396e-03        00000 
-6.55229e-08  5.88395e-03        00000 
-5.80596e-08  5.88394e-03        00000 
-1.85070e-08  2.73301e-08        00000 
-6.97554e-08  5.88395e-03        00000 
-2.82286e-08  4.38313e-08        00000 
-6.04291e-08  5.88394e-03        00000 
-5.92053e-08  5.88394e-03        00000 
-7.48063e-08  5.88396e-03        00000 
-6.29701e-08  5.88394e-03        00000 
-7.60686e-08  5.88396e-03        00000 
-2.94157e-08  4.52271e-08        00000 
-5.86219e-08  5.88394e-03        00000 
-6.69208e-08  5.88395e-03        00000 
-7.33326e-08  5.88396e-03        00000 
-5.85050e-08  5.88394e-03        00000 
-7.58516e-08  5.88396e-03        00000 
-7.11578e-08  5.88395e-03        00000 
-6.11283e-08  5.88394e-03        00000 
-5.96239e-08  5.88394e-03        00000 
-6.41329e-08  5.88394e-03        00000 
-5.89374e-08  5.88394e-03        00000 
-7.56342e-08  5.88396e-03        00000 
-6.83847e-08  5.88395e-03        00000 
-7.44370e-08  5.88396e-03        00000 
-6.00915e-08  5.88394e-03        00000 
-6.19513e-08  5.88394e-03        00000 
-7.25228e-08  5.88395e-03        00000 
-5.92719e-08  5.88394e-03        00000 
-6.54290e-08  5.88395e-03        00000 
-5.85691e-08  5.88394e-03        00000 
-6.98951e-08  5.88395e-03        00000 
-5.90261e-08  5.88394e-03        00000 
-7.54337e-08  5.88396e-03        00000 
-6.06313e-08  5.88394e-03        00000 
-6.29099e-08  5.88394e-03        00000 
-5.96262e-08  5.88394e-03        00000 
-7.38080e-08  5.88395e-03        00000 
-6.68576e-08  5.88395e-03        00000 
-7.14008e-08  5.88395e-03        00000 
-5.90050e-08  5.88394e-03        00000 
-7.70095e-08  5.88396e-03        00000 
-2.94982e-08  4.66770e-08        00000 
-6.12580e-08  5.88394e-03        00000 
-6.00110e-08  5.88394e-03        00000 
-6.40288e-08  5.88394e-03        00000 
-7.63251e-08  5.88396e-03        00000 
-5.94363e-08  5.88394e-03        00000 
-6.83824e-08  5.88395e-03        00000 
-7.50041e-08  5.88395e-03        00000 
-5.80810e-08  5.88394e-03        00000 
-7.28777e-08  5.88395e-03        00000 
-6.20025e-08  5.88394e-03        00000 
-6.04328e-08  5.88394e-03        00000 
-6.53054e-08  5.88394e-03        00000 
-5.97646e-08  5.88394e-03        00000 
-2.19283e-08  3.65047e-08        00000 
-7.71011e-08  5.88396e-03        00000 
-6.99821e-08  5.88395e-03        00000 
-5.90638e-08  5.88394e-03        00000 
-7.60810e-08  5.88396e-03        00000 
-6.09135e-08  5.88394e-03        00000 
-6.28835e-08  5.88394e-03        00000 
-2.77326e-08  4.55523e-08        00000 
-6.01036e-08  5.88394e-03        00000 
-7.42751e-08  5.88395e-03        00000 
-5.87898e-08  5.88394e-03        00000 
-6.67466e-08  5.88394e-03        00000 
-5.96369e-08  5.88394e-03        00000 
-7.77726e-08  5.88396e-03        00000 
-2.95499e-08  4.78333e-08        00000 
-7.15990e-08  5.88395e-03        00000 
-2.35141e-08  3.97842e-08        00000 
-7.70414e-08  5.88396e-03        00000 
-5.95153e-08  5.88394e-03        00000 
-6.14675e-08  5.88394e-03        00000 
-6.39345e-08  5.88394e-03        00000 
-2.83670e-08  4.66805e-08        00000 
-6.04646e-08  5.88393e-03        00000 
-7.55773e-08  5.88395e-03        00000 
-6.83204e-08  5.88395e-03        00000 
-5.99619e-08  5.88394e-03        00000 
-7.32013e-08  5.88395e-03        00000 
-2.47847e-08  4.22566e-08        00000 
-6.21272e-08  5.88394e-03        00000 
-6.08511e-08  5.88393e-03        00000 
-6.51648e-08  5.88394e-03        00000 
-2.60106e-08  4.41559e-08        00000 
-7.78711e-08  5.88396e-03        00000 
-6.02921e-08  5.88393e-03        00000 
-7.00059e-08  5.88395e-03        00000 
-7.67478e-08  5.88395e-03        00000 
-6.12822e-08  5.88393e-03        00000 
-6.29159e-08  5.88394e-03        00000 
-7.47276e-08  5.88395e-03        00000 
-6.06278e-08  5.88393e-03        00000 
-6.65925e-08  5.88394e-03        00000 
-5.96983e-08  5.88394e-03        00000 
-7.85834e-08  5.88396e-03        00000 
-2.95950e-08  4.90584e-08        00000 
-6.01670e-08  5.88394e-03        00000 
-7.17399e-08  5.88395e-03        00000 
-7.77870e-08  5.88395e-03        00000 
-5.86746e-08  5.88394e-03        00000 
-6.17701e-08  5.88393e-03        00000 
-6.38754e-08  5.88394e-03        00000 
-6.00334e-08  5.88394e-03        00000 
-6.09774e-08  5.88393e-03        00000 
-7.61537e-08  5.88395e-03        00000 
-6.81952e-08  5.88394e-03        00000 
-2.65554e-08  4.58509e-08        00000 
-2.72626e-08  4.67854e-08        00000 
-6.05044e-08  5.88393e-03        00000 
-2.85260e-08  4.84335e-08        00000 
-7.34819e-08  5.88395e-03        00000 
-5.72961e-08  5.88394e-03        00000 
-6.23459e-08  5.88393e-03        00000 
-7.86778e-08  5.88396e-03        00000 
-6.13419e-08  5.88393e-03        00000 
-6.50284e-08  5.88394e-03        00000 
-6.08464e-08  5.88393e-03        00000 
-6.99561e-08  5.88394e-03        00000 
-7.74341e-08  5.88395e-03        00000 
-6.00495e-08  5.88394e-03        00000 
-7.51569e-08  5.88395e-03        00000 
-6.30347e-08  5.88393e-03        00000 
-2.75336e-08  4.78346e-08        00000 
-6.17373e-08  5.88393e-03        00000 
-6.64084e-08  5.88394e-03        00000 
-7.94349e-08  5.88396e-03        00000 
-2.96233e-08  5.03504e-08        00000 
-6.11873e-08  5.88393e-03        00000 
-5.97162e-08  5.88394e-03        00000 
-7.18090e-08  5.88395e-03        00000 
-7.85652e-08  5.88395e-03        00000 
-6.06981e-08  5.88393e-03        00000 
-6.21721e-08  5.88393e-03        00000 
-6.38836e-08  5.88394e-03        00000 
-7.67290e-08  5.88395e-03        00000 
-6.15375e-08  5.88393e-03        00000 
-6.05407e-08  5.88394e-03        00000 
-5.63435e-08  5.88394e-03        00000 
-6.80090e-08  5.88394e-03        00000 
-2.57019e-08  4.60410e-08        00000 
-2.85037e-08  4.96965e-08        00000 
-6.10531e-08  5.88393e-03        00000 
-7.37042e-08  5.88395e-03        00000 
-7.95263e-08  5.88395e-03        00000 
-2.61906e-08  4.69505e-08        00000 
-6.26739e-08  5.88393e-03        00000 
-6.49279e-08  5.88394e-03        00000 
-6.18946e-08  5.88393e-03        00000 
-7.81400e-08  5.88395e-03        00000 
-6.98241e-08  5.88394e-03        00000 
-6.14111e-08  5.88393e-03        00000 
-7.55506e-08  5.88395e-03        00000 
-2.74733e-08  4.90691e-08        00000 
-6.32657e-08  5.88393e-03        00000 
-6.22711e-08  5.88393e-03        00000 
-8.03334e-08  5.88395e-03        00000 
-2.96361e-08  5.17126e-08        00000 
-6.62191e-08  5.88394e-03        00000 
-6.17674e-08  5.88393e-03        00000 
-7.17897e-08  5.88394e-03        00000 
-7.93798e-08  5.88395e-03        00000 
-6.06558e-08  5.88394e-03        00000 
-6.12203e-08  5.88393e-03        00000 
-7.72959e-08  5.88395e-03        00000 
-6.39951e-08  5.88393e-03        00000 
-6.26712e-08  5.88393e-03        00000 
-2.65269e-08  4.84649e-08        00000 
-6.77739e-08  5.88394e-03        00000 
-6.21290e-08  5.88393e-03        00000 
-6.10326e-08  5.88393e-03        00000 
-2.84629e-08  5.10271e-08        00000 
-2.39888e-08  4.46885e-08        00000 
-7.38487e-08  5.88394e-03        00000 
-6.15953e-08  5.88393e-03        00000 
-8.04230e-08  5.88395e-03        00000 
-6.31171e-08  5.88393e-03        00000 
-6.49054e-08  5.88393e-03        00000 
-7.88642e-08  5.88395e-03        00000 
-6.24926e-08  5.88393e-03        00000 
-6.96066e-08  5.88394e-03        00000 
-2.28699e-08  4.29087e-08        00000 
-2.46113e-08  4.61454e-08        00000 
-2.56570e-08  4.78785e-08        00000 
-2.51721e-08  4.71802e-08        00000 
-6.19740e-08  5.88393e-03        00000 
-2.73890e-08  5.03700e-08        00000 
-1.48848e-08  2.23426e-08        00000 
-7.58913e-08  5.88395e-03        00000 
-2.16426e-08  4.05203e-08        00000 
-8.12866e-08  5.88395e-03        00000 
-2.96331e-08  5.31532e-08        00000 
-6.36266e-08  5.88393e-03        00000 
-6.60648e-08  5.88393e-03        00000 
-6.28678e-08  5.88393e-03        00000 
-6.09751e-08  5.88394e-03        00000 
-8.02350e-08  5.88395e-03        00000 
-7.16653e-08  5.88394e-03        00000 
-6.23512e-08  5.88393e-03        00000 
-5.98250e-08  5.88394e-03        00000 
-7.78434e-08  5.88395e-03        00000 
-2.64042e-08  4.97367e-08        00000 
-6.17229e-08  5.88393e-03        00000 
-6.42426e-08  5.88393e-03        00000 
-6.32542e-08  5.88393e-03        00000 
-6.75183e-08  5.88394e-03        00000 
-2.84006e-08  5.24324e-08        00000 
-6.27334e-08  5.88393e-03        00000 
-6.15022e-08  5.88393e-03        00000 
-7.38908e-08  5.88394e-03        00000 