<?xml version="1.0" encoding="utf-8"?>
<VTKFile byte_order="LittleEndian" type="UnstructuredGrid" version="0.1">
   <UnstructuredGrid>
      <Piece NumberOfCells="64" NumberOfPoints="41">
         <Points>
            <DataArray Name="Points" NumberOfComponents="3" format="ascii" type="Float32">
0.0000 0.0000 0.0000
0.0000 0.2500 0.0000
0.0000 0.5000 0.0000
0.0000 0.7500 0.0000
0.0000 1.0000 0.0000
0.2500 0.0000 0.0000
0.2500 0.2500 0.0000
0.2500 0.5000 0.0000
0.2500 0.7500 0.0000
0.2500 1.0000 0.0000
0.5000 0.0000 0.0000
0.5000 0.2500 0.0000
0.5000 0.5000 0.0000
0.5000 0.7500 0.0000
0.5000 1.0000 0.0000
0.7500 0.0000 0.0000
0.7500 0.2500 0.0000
0.7500 0.5000 0.0000
0.7500 0.7500 0.0000
0.7500 1.0000 0.0000
1.0000 0.0000 0.0000
1.0000 0.2500 0.0000
1.0000 0.5000 0.0000
1.0000 0.7500 0.0000
1.0000 1.0000 0.0000
0.1250 0.1250 0.0000
0.1250 0.3750 0.0000
0.1250 0.6250 0.0000
0.1250 0.8750 0.0000
0.3750 0.1250 0.0000
0.3750 0.3750 0.0000
0.3750 0.6250 0.0000
0.3750 0.8750 0.0000
0.6250 0.1250 0.0000
0.6250 0.3750 0.0000
0.6250 0.6250 0.0000
0.6250 0.8750 0.0000
0.8750 0.1250 0.0000
0.8750 0.3750 0.0000
0.8750 0.6250 0.0000
0.8750 0.8750 0.0000</DataArray>
         </Points>
         <Cells>
            <DataArray Name="connectivity" format="ascii" type="Int32">
 1 0 25
 2 1 26
 3 2 27
 4 3 28
 6 5 29
 7 6 30
 8 7 31
 9 8 32
 11 10 33
 12 11 34
 13 12 35
 14 13 36
 16 15 37
 17 16 38
 18 17 39
 19 18 40
 6 1 25
 7 2 26
 8 3 27
 9 4 28
 11 6 29
 12 7 30
 13 8 31
 14 9 32
 16 11 33
 17 12 34
 18 13 35
 19 14 36
 21 16 37
 22 17 38
 23 18 39
 24 19 40
 5 6 25
 6 7 26
 7 8 27
 8 9 28
 10 11 29
 11 12 30
 12 13 31
 13 14 32
 15 16 33
 16 17 34
 17 18 35
 18 19 36
 20 21 37
 21 22 38
 22 23 39
 23 24 40
 0 5 25
 1 6 26
 2 7 27
 3 8 28
 5 10 29
 6 11 30
 7 12 31
 8 13 32
 10 15 33
 11 16 34
 12 17 35
 13 18 36
 15 20 37
 16 21 38
 17 22 39
 18 23 40</DataArray>
            <DataArray Name="offsets" format="ascii" type="Int32">3 6 9 12 15 18 21 24 27 30 33 36 39 42 45 48 51 54 57 60 63 66 69 72 75 78 81 84 87 90 93 96 99 102 105 108 111 114 117 120 123 126 129 132 135 138 141 144 147 150 153 156 159 162 165 168 171 174 177 180 183 186 189 192 </DataArray>
            <DataArray Name="types" format="ascii" type="UInt8">5 5 5 5 5 5 5 5 5 5 5 5 5 5 5 5 5 5 5 5 5 5 5 5 5 5 5 5 5 5 5 5 5 5 5 5 5 5 5 5 5 5 5 5 5 5 5 5 5 5 5 5 5 5 5 5 5 5 5 5 5 5 5 5 </DataArray>
         </Cells>
         <PointData>
            <DataArray Name="fValues" NumberOfComponents="3" format="ascii" type="Float64">
       00000        00000        00000 
       00000        00000        00000 
       00000        00000        00000 
       00000        00000        00000 
       00000        00000        00000 
       00000        00000        00000 
       00000        00000        00000 
       00000        00000        00000 
       00000        00000        00000 
       00000        00000        00000 
       00000        00000        00000 
       00000        00000        00000 
       00000        00000        00000 
       00000        00000        00000 
       00000        00000        00000 
       00000        00000        00000 
       00000        00000        00000 
       00000        00000        00000 
       00000        00000        00000 
       00000        00000        00000 
       00000        00000        00000 
       00000        00000        00000 
       00000        00000        00000 
       00000        00000        00000 
       00000        00000        00000 
       00000        00000        00000 
       00000        00000        00000 
       00000        00000        00000 
       00000        00000        00000 
       00000        00000        00000 
       00000        00000        00000 
       00000        00000        00000 
       00000        00000        00000 
       00000        00000        00000 
       00000        00000        00000 
       00000        00000        00000 
       00000        00000        00000 
       00000        00000        00000 
       00000        00000        00000 
       00000        00000        00000 
       00000        00000        00000 </DataArray>
         </PointData>
         <CellData/>
      </Piece>
   </UnstructuredGrid>
</VTKFile>