<?xml version="1.0" encoding="utf-8"?>
<VTKFile byte_order="LittleEndian" type="UnstructuredGrid" version="0.1">
   <UnstructuredGrid>
      <Piece NumberOfCells="794" NumberOfPoints="468">
         <Points>
            <DataArray Name="Points" NumberOfComponents="3" format="ascii" type="Float32">
0.0000 0.0000 0.0000
0.0500 0.0000 0.0000
0.0000 0.0500 0.0000
0.0500 0.0474 0.0000
0.0000 0.1000 0.0000
0.1000 0.0000 0.0000
0.1000 0.0474 0.0000
0.0750 0.0907 0.0000
0.0500 0.1340 0.0000
0.0000 0.1500 0.0000
0.1500 0.0000 0.0000
0.1250 0.0907 0.0000
0.1500 0.0474 0.0000
0.1000 0.1340 0.0000
0.0750 0.1773 0.0000
0.1750 0.0907 0.0000
0.0000 0.2000 0.0000
0.2000 0.0000 0.0000
0.1500 0.1340 0.0000
0.2000 0.0474 0.0000
0.1250 0.1773 0.0000
0.0500 0.2206 0.0000
0.2000 0.1340 0.0000
0.1000 0.2206 0.0000
0.2250 0.0907 0.0000
0.1750 0.1773 0.0000
0.0000 0.2500 0.0000
0.2500 0.0000 0.0000
0.2500 0.0474 0.0000
0.1500 0.2206 0.0000
0.0708 0.2616 0.0000
0.2500 0.1340 0.0000
0.2250 0.1773 0.0000
0.2750 0.0907 0.0000
0.1250 0.2639 0.0000
0.2000 0.2206 0.0000
0.0000 0.3000 0.0000
0.3000 0.0000 0.0000
0.3000 0.0474 0.0000
0.0500 0.3072 0.0000
0.1750 0.2639 0.0000
0.1000 0.3072 0.0000
0.2750 0.1773 0.0000
0.3000 0.1340 0.0000
0.2500 0.2206 0.0000
0.3250 0.0907 0.0000
0.1500 0.3072 0.0000
0.2250 0.2639 0.0000
0.0000 0.3500 0.0000
0.3500 0.0000 0.0000
0.3500 0.0474 0.0000
0.0750 0.3505 0.0000
0.2000 0.3072 0.0000
0.3250 0.1773 0.0000
0.1250 0.3505 0.0000
0.3500 0.1340 0.0000
0.3750 0.0907 0.0000
0.1750 0.3505 0.0000
0.2728 0.2840 0.0000
0.0500 0.3938 0.0000
0.0000 0.4000 0.0000
0.4000 0.0000 0.0000
0.3209 0.2427 0.0000
0.4000 0.0474 0.0000
0.1000 0.3938 0.0000
0.2408 0.3372 0.0000
0.1500 0.3938 0.0000
0.4000 0.1340 0.0000
0.3764 0.2119 0.0000
0.2906 0.3202 0.0000
0.4250 0.0907 0.0000
0.3311 0.2818 0.0000
0.3101 0.3048 0.0000
0.2140 0.3856 0.0000
0.2747 0.3471 0.0000
0.3540 0.2658 0.0000
0.0708 0.4392 0.0000
0.2587 0.3661 0.0000
0.0000 0.4500 0.0000
0.4500 0.0000 0.0000
0.4500 0.0474 0.0000
0.1250 0.4371 0.0000
0.3188 0.3278 0.0000
0.3372 0.3103 0.0000
0.3826 0.2550 0.0000
0.3023 0.3470 0.0000
0.2464 0.3912 0.0000
0.3572 0.2948 0.0000
0.2878 0.3678 0.0000
0.4500 0.1340 0.0000
0.4306 0.1880 0.0000
0.4024 0.2457 0.0000
0.3787 0.2814 0.0000
0.2756 0.3899 0.0000
0.2367 0.4174 0.0000
0.0463 0.4787 0.0000
0.1902 0.4433 0.0000
0.4750 0.0907 0.0000
0.4014 0.2703 0.0000
0.4308 0.2328 0.0000
0.1000 0.4804 0.0000
0.2656 0.4132 0.0000
0.4252 0.2615 0.0000
0.0000 0.5000 0.0000
0.5000 0.0000 0.0000
0.5000 0.0474 0.0000
0.1500 0.4804 0.0000
0.4683 0.1882 0.0000
0.2326 0.4483 0.0000
0.2580 0.4373 0.0000
0.4582 0.2272 0.0000
0.4497 0.2551 0.0000
0.5000 0.1340 0.0000
0.2254 0.4721 0.0000
0.2529 0.4621 0.0000
0.0607 0.5241 0.0000
0.5250 0.0907 0.0000
0.4860 0.2244 0.0000
0.4747 0.2513 0.0000
0.1250 0.5237 0.0000
0.1888 0.5105 0.0000
0.2503 0.4873 0.0000
0.0000 0.5500 0.0000
0.5500 0.0000 0.0000
0.5500 0.0474 0.0000
0.2277 0.5032 0.0000
0.5000 0.2500 0.0000
0.5140 0.2244 0.0000
0.5274 0.1961 0.0000
0.5500 0.1340 0.0000
0.0500 0.5670 0.0000
0.2503 0.5127 0.0000
0.2254 0.5279 0.0000
0.1000 0.5670 0.0000
0.5750 0.0907 0.0000
0.5253 0.2513 0.0000
0.5381 0.2303 0.0000
0.1500 0.5670 0.0000
0.2529 0.5379 0.0000
0.2166 0.5575 0.0000
0.0000 0.6000 0.0000
0.6000 0.0000 0.0000
0.6000 0.0474 0.0000
0.5503 0.2551 0.0000
0.0840 0.6061 0.0000
0.5692 0.2328 0.0000
0.2580 0.5627 0.0000
0.1250 0.6103 0.0000
0.5938 0.2009 0.0000
0.2367 0.5826 0.0000
0.5748 0.2615 0.0000
0.0448 0.6327 0.0000
0.6250 0.1299 0.0000
0.2061 0.6089 0.0000
0.5958 0.2412 0.0000
0.2656 0.5868 0.0000
0.0000 0.6500 0.0000
0.6500 0.0000 0.0000
0.6500 0.0866 0.0000
0.5986 0.2703 0.0000
0.2464 0.6088 0.0000
0.1006 0.6494 0.0000
0.2756 0.6101 0.0000
0.1500 0.6536 0.0000
0.6500 0.1732 0.0000
0.6228 0.2569 0.0000
0.6750 0.0433 0.0000
0.0304 0.6785 0.0000
0.6213 0.2814 0.0000
0.6750 0.1299 0.0000
0.2635 0.6349 0.0000
0.6521 0.2259 0.0000
0.2878 0.6322 0.0000
0.6460 0.2658 0.0000
0.0000 0.7000 0.0000
0.7000 0.0000 0.0000
0.0750 0.6969 0.0000
0.7000 0.0866 0.0000
0.2340 0.6658 0.0000
0.6428 0.2948 0.0000
0.1250 0.6969 0.0000
0.2735 0.6577 0.0000
0.3023 0.6530 0.0000
0.1718 0.6993 0.0000
0.7000 0.1732 0.0000
0.0433 0.7250 0.0000
0.7250 0.0433 0.0000
0.6692 0.2866 0.0000
0.6628 0.3103 0.0000
0.7250 0.1299 0.0000
0.2954 0.6798 0.0000
0.0963 0.7369 0.0000
0.3188 0.6722 0.0000
0.0000 0.7500 0.0000
0.7500 0.0000 0.0000
0.6987 0.2729 0.0000
0.6901 0.3000 0.0000
0.7500 0.0866 0.0000
0.1500 0.7402 0.0000
0.6812 0.3278 0.0000
0.7250 0.2165 0.0000
0.2048 0.7314 0.0000
0.3111 0.6952 0.0000
0.2728 0.7160 0.0000
0.3372 0.6897 0.0000
0.7500 0.1732 0.0000
0.7750 0.0433 0.0000
0.7094 0.3202 0.0000
0.6977 0.3470 0.0000
0.0598 0.7789 0.0000
0.7750 0.1299 0.0000
0.3572 0.7052 0.0000
0.3311 0.7182 0.0000
0.1250 0.7835 0.0000
0.7500 0.2598 0.0000
0.0000 0.8000 0.0000
0.8000 0.0000 0.0000
0.7122 0.3678 0.0000
0.1750 0.7835 0.0000
0.7467 0.2968 0.0000
0.8000 0.0866 0.0000
0.7750 0.2165 0.0000
0.3787 0.7186 0.0000
0.7388 0.3430 0.0000
0.3540 0.7342 0.0000
0.2250 0.7835 0.0000
0.8000 0.1732 0.0000
0.7245 0.3899 0.0000
0.0461 0.8245 0.0000
0.8250 0.0433 0.0000
0.7396 0.3706 0.0000
0.2750 0.7835 0.0000
0.1000 0.8268 0.0000
0.4014 0.7297 0.0000
0.8250 0.1299 0.0000
0.3314 0.7673 0.0000
0.3785 0.7478 0.0000
0.1500 0.8268 0.0000
0.8000 0.2598 0.0000
0.7344 0.4132 0.0000
0.7487 0.3906 0.0000
0.7835 0.3250 0.0000
0.0000 0.8500 0.0000
0.8500 0.0000 0.0000
0.2000 0.8268 0.0000
0.4252 0.7385 0.0000
0.8250 0.2165 0.0000
0.8500 0.0866 0.0000
0.4024 0.7542 0.0000
0.7720 0.3740 0.0000
0.7420 0.4373 0.0000
0.2500 0.8268 0.0000
0.8500 0.1732 0.0000
0.0708 0.8668 0.0000
0.7633 0.4174 0.0000
0.4497 0.7449 0.0000
0.8750 0.0433 0.0000
0.3898 0.7853 0.0000
0.7471 0.4621 0.0000
0.1250 0.8701 0.0000
0.8268 0.3000 0.0000
0.3000 0.8268 0.0000
0.4308 0.7672 0.0000
0.8750 0.1299 0.0000
0.4747 0.7487 0.0000
0.1750 0.8701 0.0000
0.7703 0.4445 0.0000
0.7497 0.4873 0.0000
0.8268 0.3500 0.0000
0.3500 0.8268 0.0000
0.4582 0.7728 0.0000
0.2250 0.8701 0.0000
0.0000 0.9000 0.0000
0.9000 0.0000 0.0000
0.5000 0.7500 0.0000
0.8750 0.2165 0.0000
0.9000 0.0866 0.0000
0.7746 0.4721 0.0000
0.8034 0.4214 0.0000
0.7497 0.5127 0.0000
0.8701 0.2750 0.0000
0.2750 0.8701 0.0000
0.4873 0.7718 0.0000
0.5253 0.7487 0.0000
0.0500 0.9134 0.0000
0.9000 0.1732 0.0000
0.4369 0.8070 0.0000
0.4000 0.8268 0.0000
0.1000 0.9134 0.0000
0.7471 0.5379 0.0000
0.7723 0.5032 0.0000
0.1500 0.9134 0.0000
0.5503 0.7449 0.0000
0.8701 0.3250 0.0000
0.3250 0.8701 0.0000
0.9292 0.0444 0.0000
0.5140 0.7756 0.0000
0.7420 0.5627 0.0000
0.2000 0.9134 0.0000
0.5748 0.7385 0.0000
0.8169 0.4590 0.0000
0.7746 0.5279 0.0000
0.7344 0.5868 0.0000
0.5418 0.7728 0.0000
0.5986 0.7297 0.0000
0.2500 0.9134 0.0000
0.7245 0.6101 0.0000
0.8701 0.3750 0.0000
0.3750 0.8701 0.0000
0.7661 0.5579 0.0000
0.9393 0.1285 0.0000
0.4895 0.8119 0.0000
0.6213 0.7186 0.0000
0.9500 0.0000 0.0000
0.0000 0.9500 0.0000
0.9250 0.2165 0.0000
0.7122 0.6322 0.0000
0.5713 0.7628 0.0000
0.9500 0.0866 0.0000
0.6428 0.7052 0.0000
0.6977 0.6530 0.0000
0.6628 0.6897 0.0000
0.6812 0.6722 0.0000
0.0750 0.9567 0.0000
0.7633 0.5826 0.0000
0.9134 0.3000 0.0000
0.3000 0.9134 0.0000
0.8131 0.5159 0.0000
0.5958 0.7588 0.0000
0.1250 0.9567 0.0000
0.7487 0.6094 0.0000
0.9500 0.1732 0.0000
0.8701 0.4250 0.0000
0.4250 0.8701 0.0000
0.6228 0.7431 0.0000
0.5317 0.8118 0.0000
0.7396 0.6294 0.0000
0.1750 0.9567 0.0000
0.6416 0.7318 0.0000
0.9134 0.3500 0.0000
0.3500 0.9134 0.0000
0.6853 0.6996 0.0000
0.7265 0.6577 0.0000
0.6689 0.7182 0.0000
0.7094 0.6798 0.0000
0.2250 0.9567 0.0000
0.8034 0.5786 0.0000
0.8701 0.4750 0.0000
0.4750 0.8701 0.0000
0.2750 0.9567 0.0000
0.9567 0.2750 0.0000
0.5938 0.7991 0.0000
0.9134 0.4000 0.0000
0.4000 0.9134 0.0000
0.0000 1.0000 0.0000
1.0000 0.0000 0.0000
0.0500 1.0000 0.0000
1.0000 0.0500 0.0000
0.1000 1.0000 0.0000
1.0000 0.1000 0.0000
0.6468 0.7694 0.0000
0.7814 0.6380 0.0000
0.9567 0.3250 0.0000
0.3250 0.9567 0.0000
0.1500 1.0000 0.0000
1.0000 0.1500 0.0000
0.8701 0.5250 0.0000
0.5250 0.8701 0.0000
0.9134 0.4500 0.0000
0.4500 0.9134 0.0000
0.7479 0.6919 0.0000
0.2000 1.0000 0.0000
1.0000 0.2000 0.0000
0.7042 0.7378 0.0000
0.5649 0.8529 0.0000
0.9567 0.3750 0.0000
0.3750 0.9567 0.0000
0.2500 1.0000 0.0000
1.0000 0.2500 0.0000
0.7835 0.6750 0.0000
0.9134 0.5000 0.0000
0.5000 0.9134 0.0000
0.8701 0.5750 0.0000
0.3000 1.0000 0.0000
1.0000 0.3000 0.0000
0.9567 0.4250 0.0000
0.4250 0.9567 0.0000
0.8268 0.6500 0.0000
0.3500 1.0000 0.0000
1.0000 0.3500 0.0000
0.6506 0.8414 0.0000
0.8662 0.6214 0.0000
0.9134 0.5500 0.0000
0.6103 0.8750 0.0000
0.7835 0.7250 0.0000
0.9567 0.4750 0.0000
0.4750 0.9567 0.0000
0.5637 0.9086 0.0000
0.4000 1.0000 0.0000
1.0000 0.4000 0.0000
0.6969 0.8250 0.0000
0.8268 0.7000 0.0000
0.7402 0.8000 0.0000
0.9567 0.5250 0.0000
0.5250 0.9567 0.0000
0.9134 0.6000 0.0000
0.4500 1.0000 0.0000
1.0000 0.4500 0.0000
0.8701 0.6750 0.0000
0.7835 0.7750 0.0000
0.6536 0.9000 0.0000
0.6085 0.9319 0.0000
0.5698 0.9581 0.0000
0.9567 0.5750 0.0000
0.8268 0.7500 0.0000
0.5000 1.0000 0.0000
1.0000 0.5000 0.0000
0.6969 0.8750 0.0000
0.9134 0.6500 0.0000
0.7402 0.8500 0.0000
0.8701 0.7250 0.0000
0.7835 0.8250 0.0000
0.5500 1.0000 0.0000
1.0000 0.5500 0.0000
0.9567 0.6250 0.0000
0.8268 0.8000 0.0000
0.9134 0.7000 0.0000
0.6536 0.9500 0.0000
0.6969 0.9250 0.0000
0.8701 0.7750 0.0000
0.7402 0.9000 0.0000
0.6000 1.0000 0.0000
1.0000 0.6000 0.0000
0.9567 0.6750 0.0000
0.7835 0.8750 0.0000
0.9134 0.7500 0.0000
0.8268 0.8500 0.0000
0.6500 1.0000 0.0000
1.0000 0.6500 0.0000
0.8701 0.8250 0.0000
0.9567 0.7250 0.0000
0.7402 0.9500 0.0000
0.7835 0.9250 0.0000
0.9134 0.8000 0.0000
0.7000 1.0000 0.0000
1.0000 0.7000 0.0000
0.8268 0.9000 0.0000
0.9567 0.7750 0.0000
0.8701 0.8750 0.0000
0.9134 0.8500 0.0000
0.7500 1.0000 0.0000
1.0000 0.7500 0.0000
0.8264 0.9529 0.0000
0.9567 0.8250 0.0000
0.8000 1.0000 0.0000
1.0000 0.8000 0.0000
0.8715 0.9393 0.0000
0.9134 0.9000 0.0000
0.9567 0.8750 0.0000
0.8500 1.0000 0.0000
1.0000 0.8500 0.0000
[...]
         <PointData>
            <DataArray Name="fValues" NumberOfComponents="3" format="ascii" type="Float64">
-2.01010e-18 -4.12531e-18        00000 
-3.49138e-18 -3.01674e-18        00000 
 2.78616e-02  3.22756e-02        00000 
 1.62818e-02  2.48311e-02        00000 
 4.35578e-02  6.37238e-02        00000 
-8.82539e-19 -5.88359e-19        00000 
 8.76968e-03  1.95425e-02        00000 
 2.36418e-02  4.40225e-02        00000 
 4.11800e-02  7.25883e-02        00000 
 5.92223e-02  9.40546e-02        00000 
-5.77971e-20 -3.53868e-18        00000 
 1.44275e-02  3.70045e-02        00000 
 3.86327e-03  1.65438e-02        00000 
 2.97274e-02  6.21364e-02        00000 
 4.82354e-02  9.02950e-02        00000 
 7.09384e-03  3.12865e-02        00000 
 7.43296e-02  1.22720e-01        00000 
 5.48922e-19 -2.59024e-18        00000 
 1.94612e-02  5.32853e-02        00000 
 1.87760e-04  1.38115e-02        00000 
 3.62247e-02  7.91438e-02        00000 
 6.87025e-02  1.20280e-01        00000 
 1.06228e-02  4.47536e-02        00000 
 5.61845e-02  1.07393e-01        00000 
 1.28661e-03  2.55667e-02        00000 
 2.49166e-02  6.82509e-02        00000 
 9.11159e-02  1.50101e-01        00000 
-7.87323e-19  2.17500e-18        00000 
-2.49261e-03  1.10221e-02        00000 
 4.35015e-02  9.52965e-02        00000 
 7.83317e-02  1.36267e-01        00000 
 3.42663e-03  3.54964e-02        00000 
 1.48951e-02  5.65091e-02        00000 
-2.85300e-03  1.95753e-02        00000 
 6.52399e-02  1.24283e-01        00000 
 3.12159e-02  8.17532e-02        00000 
 1.08839e-01  1.75138e-01        00000 
-8.35402e-19  2.78467e-18        00000 
-4.11951e-03  8.18277e-03        00000 
 1.00423e-01  1.65216e-01        00000 
 5.17866e-02  1.10728e-01        00000 
 8.84329e-02  1.53292e-01        00000 
 6.60024e-03  4.29081e-02        00000 
-1.49869e-03  2.56690e-02        00000 
 2.04811e-02  6.60855e-02        00000 
-5.11055e-03  1.35130e-02        00000 
 7.53751e-02  1.41292e-01        00000 
 3.86344e-02  9.33036e-02        00000 
 1.26477e-01  1.97815e-01        00000 
 1.17420e-18 -2.05484e-18        00000 
-4.59899e-03  5.45313e-03        00000 
 1.10741e-01  1.80597e-01        00000 
 6.17318e-02  1.25072e-01        00000 
 1.90113e-03  2.82281e-02        00000 
 9.90430e-02  1.71005e-01        00000 
-3.74983e-03  1.58970e-02        00000 
-5.41037e-03  7.83986e-03        00000 
 8.62097e-02  1.58379e-01        00000 
 3.49674e-02  7.97348e-02        00000 
 1.30460e-01  2.05839e-01        00000 
 1.40018e-01  2.17079e-01        00000 
-1.90911e-19  9.56200e-19        00000 
 1.42528e-02  4.28579e-02        00000 
-3.88308e-03  3.21540e-03        00000 
 1.20139e-01  1.98053e-01        00000 
 6.30492e-02  1.22443e-01        00000 
 1.08947e-01  1.89931e-01        00000 
-3.94343e-03  7.50524e-03        00000 
 3.32124e-03  1.72744e-02        00000 
 4.69686e-02  8.13424e-02        00000 
-3.96096e-03  3.69673e-03        00000 
 2.69377e-02  4.56045e-02        00000 
 3.80007e-02  6.32928e-02        00000 
 8.97607e-02  1.64821e-01        00000 
 6.03684e-02  1.03744e-01        00000 
 1.88710e-02  3.15159e-02        00000 
 1.37039e-01  2.23059e-01        00000 
 7.14412e-02  1.25917e-01        00000 
 1.51665e-01  2.34539e-01        00000 
-5.25336e-19  1.10615e-19        00000 
-2.25497e-03  1.80061e-03        00000 
 1.26202e-01  2.17418e-01        00000 
 4.92798e-02  6.01192e-02        00000 
 4.00822e-02  4.43741e-02        00000 
 1.39518e-02  1.90537e-02        00000 
 5.83480e-02  7.80571e-02        00000 
 8.27196e-02  1.49715e-01        00000 
 3.20009e-02  3.16354e-02        00000 
 6.79659e-02  9.93540e-02        00000 
-2.29785e-03  2.44129e-03        00000 
-1.74383e-04  4.90948e-03        00000 
 9.96986e-03  1.26688e-02        00000 
 2.44814e-02  2.13676e-02        00000 
 7.66641e-02  1.22864e-01        00000 
 9.46681e-02  1.75180e-01        00000 
 1.46899e-01  2.41658e-01        00000 
 1.14398e-01  2.10923e-01        00000 
-1.51895e-03  1.60796e-03        00000 
 1.80215e-02  1.37901e-02        00000 
 5.41993e-03  5.85958e-03        00000 
 1.37598e-01  2.40617e-01        00000 
 8.49666e-02  1.48276e-01        00000 
 1.24151e-02  7.96953e-03        00000 
 1.54642e-01  2.49615e-01        00000 
 2.45131e-19 -6.82103e-19        00000 
-5.13916e-05  1.68366e-03        00000 
 1.28476e-01  2.38809e-01        00000 
-1.81359e-04  1.00257e-03        00000 
 1.02005e-01  2.01604e-01        00000 
 9.17282e-02  1.76170e-01        00000 
 3.02374e-03  2.19788e-03        00000 
 7.75130e-03  4.13222e-03        00000 
-3.74814e-05  6.56681e-04        00000 
 1.08773e-01  2.24787e-01        00000 
 9.59661e-02  2.05239e-01        00000 
 1.44317e-01  2.60295e-01        00000 
 1.40651e-03  1.56579e-03        00000 
 9.69883e-04  6.28122e-04        00000 
 3.66921e-03  2.15932e-03        00000 
 1.32484e-01  2.62241e-01        00000 
 1.21334e-01  2.57778e-01        00000 
 9.87935e-02  2.34979e-01        00000 
 1.51049e-01  2.65670e-01        00000 
-1.64452e-19 -4.26685e-19        00000 
 2.15714e-03  1.78835e-03        00000 
 1.08231e-01  2.52499e-01        00000 
-1.16962e-04  1.74107e-03        00000 
-9.42924e-04  1.02415e-03        00000 
-3.64300e-04  5.39688e-04        00000 
 2.19000e-03  2.31999e-03        00000 
 1.39848e-01  2.77508e-01        00000 
 9.78193e-02  2.65583e-01        00000 
 1.07993e-01  2.74623e-01        00000 
 1.30657e-01  2.82233e-01        00000 
 3.88561e-03  3.69448e-03        00000 
-3.76496e-03  2.71927e-03        00000 
-3.30369e-03  2.47481e-03        00000 
 1.20883e-01  2.88393e-01        00000 
 9.53290e-02  2.95708e-01        00000 
 1.06052e-01  2.96482e-01        00000 
 1.40982e-01  2.82610e-01        00000 
 2.93233e-19 -1.46617e-19        00000 
 3.75808e-03  3.10251e-03        00000 
-7.82024e-03  4.29924e-03        00000 
 1.23138e-01  2.99295e-01        00000 
-5.37837e-03  5.78356e-03        00000 
 9.06076e-02  3.22697e-01        00000 
 1.12864e-01  3.07376e-01        00000 
-1.08086e-03  9.05387e-03        00000 
 9.35053e-02  3.26060e-01        00000 
-1.25432e-02  7.88668e-03        00000 
 1.23289e-01  3.05323e-01        00000 
 4.16854e-03  1.08677e-02        00000 
 9.40545e-02  3.28435e-01        00000 
-8.93306e-03  1.16644e-02        00000 
 8.47274e-02  3.50255e-01        00000 
 1.26248e-01  3.02037e-01        00000 
 5.34925e-19 -6.01791e-19        00000 
 5.41056e-03  9.94310e-03        00000 
-1.79738e-02  1.34363e-02        00000 
 8.40920e-02  3.49675e-01        00000 
 1.04802e-01  3.23924e-01        00000 
 7.74185e-02  3.76251e-01        00000 
 9.11338e-02  3.36965e-01        00000 
-9.87122e-05  2.04951e-02        00000 
-1.48469e-02  2.09580e-02        00000 
 4.06106e-03  6.19041e-03        00000 
 1.09690e-01  3.23301e-01        00000 
-2.46322e-02  2.14122e-02        00000 
 3.28002e-03  1.98591e-02        00000 
 6.96185e-02  3.78125e-01        00000 
-7.99754e-03  2.81340e-02        00000 
 6.76594e-02  4.00455e-01        00000 
-1.95205e-02  3.11238e-02        00000 
 1.08489e-01  3.24413e-01        00000 
-4.36896e-19 -2.33011e-18        00000 
 9.29589e-02  3.42988e-01        00000 
 4.31787e-03  1.56578e-02        00000 
 6.37510e-02  3.74600e-01        00000 
-3.16977e-02  3.12819e-02        00000 
 8.01947e-02  3.54605e-01        00000 
 5.90957e-02  3.96382e-01        00000 
 5.88189e-02  4.21427e-01        00000 
 6.63674e-02  3.69189e-01        00000 
-2.99293e-03  3.45364e-02        00000 
 8.98708e-02  3.49609e-01        00000 
 3.33779e-03  8.82766e-03        00000 
-2.87213e-02  4.61129e-02        00000 
-3.98483e-02  4.41845e-02        00000 
-1.58048e-04  2.94749e-02        00000 
 4.59410e-02  4.22274e-01        00000 
 7.22763e-02  3.69094e-01        00000 
 4.88575e-02  4.39946e-01        00000 
 9.11203e-02  3.49728e-01        00000 
 4.61768e-19 -3.07845e-19        00000 
-2.64629e-02  5.93506e-02        00000 
-3.57476e-02  6.13607e-02        00000 
 1.35208e-03  2.15176e-02        00000 
 5.69623e-02  3.84400e-01        00000 
-4.84360e-02  5.92799e-02        00000 
-1.49851e-02  5.49044e-02        00000 
 4.60154e-02  3.96189e-01        00000 
 3.78701e-02  4.37121e-01        00000 
 3.44926e-02  4.19863e-01        00000 
 4.01519e-02  4.55358e-01        00000 
-9.61167e-03  4.84735e-02        00000 
 1.44424e-03  1.14239e-02        00000 
-4.62126e-02  8.11970e-02        00000 
-5.85759e-02  7.84986e-02        00000 
 6.64775e-02  3.82406e-01        00000 
-6.06685e-03  3.88490e-02        00000 
 3.22528e-02  4.68430e-01        00000 
 2.72861e-02  4.53973e-01        00000 
 4.84390e-02  4.00753e-01        00000 
-3.23341e-02  8.14171e-02        00000 
 7.45105e-02  3.77029e-01        00000 
 4.95892e-19 -5.93519e-18        00000 
-6.74927e-02  9.88740e-02        00000 
 3.60663e-02  4.12979e-01        00000 
-4.41758e-02  9.57184e-02        00000 
-3.37393e-03  2.71474e-02        00000 
-2.44292e-02  7.27530e-02        00000 
 2.45861e-02  4.78780e-01        00000 
-6.07623e-02  1.12782e-01        00000 
 1.92042e-02  4.68782e-01        00000 
 2.43211e-02  4.27467e-01        00000 
-1.87052e-02  6.09479e-02        00000 
-7.65492e-02  1.22884e-01        00000 
 5.49536e-02  4.03482e-01        00000 
-1.48987e-03  1.39332e-02        00000 
-7.30408e-02  1.27172e-01        00000 
 1.53778e-02  4.44403e-01        00000 
 4.08299e-02  4.17667e-01        00000 
 1.82401e-02  4.86565e-01        00000 
-1.39235e-02  4.74565e-02        00000 
 1.06056e-02  4.64140e-01        00000 
 1.32877e-02  4.79729e-01        00000 
 2.92947e-02  4.28141e-01        00000 
-4.39505e-02  1.01427e-01        00000 
-8.53665e-02  1.48980e-01        00000 
-8.15371e-02  1.45959e-01        00000 
-6.48148e-02  1.28186e-01        00000 
 5.88731e-02  4.05808e-01        00000 
-1.25264e-18  4.46253e-18        00000 
 1.87247e-02  4.39100e-01        00000 
 1.24418e-02  4.92302e-01        00000 
-3.59769e-02  8.69110e-02        00000 
-9.60833e-03  3.25156e-02        00000 
 9.99068e-03  4.87746e-01        00000 
-8.16260e-02  1.51126e-01        00000 
-9.27597e-02  1.76692e-01        00000 
 9.83268e-03  4.51243e-01        00000 
-2.92463e-02  7.18963e-02        00000 
 3.60215e-02  4.32862e-01        00000 
-9.48966e-02  1.75687e-01        00000 
 7.76286e-03  4.96068e-01        00000 
-5.49890e-03  1.64742e-02        00000 
 3.78165e-03  4.86342e-01        00000 
-9.77986e-02  2.05556e-01        00000 
 2.33326e-02  4.44433e-01        00000 
-6.60912e-02  1.30610e-01        00000 
 3.09547e-03  4.65457e-01        00000 
 5.37957e-03  4.94340e-01        00000 
-2.33105e-02  5.55981e-02        00000 
 3.65931e-03  4.97940e-01        00000 
 1.39423e-02  4.52575e-01        00000 
-1.04105e-01  2.00679e-01        00000 
-9.96356e-02  2.34881e-01        00000 
-8.67845e-02  1.58601e-01        00000 
-3.97149e-04  4.79194e-01        00000 
 2.83056e-03  4.98060e-01        00000 
 6.12509e-03  4.61021e-01        00000 
 4.46826e-02  4.35702e-01        00000 
 4.94827e-19  7.36247e-18        00000 
-9.32172e-05  4.98425e-01        00000 
-4.85202e-02  9.95685e-02        00000 
-1.72714e-02  3.80674e-02        00000 
-1.09580e-01  2.25006e-01        00000 
-1.07174e-01  1.95017e-01        00000 
-9.90483e-02  2.64884e-01        00000 
-6.80035e-02  1.29107e-01        00000 
 1.23270e-04  4.70425e-01        00000 
 9.84771e-04  4.99154e-01        00000 
-3.84593e-03  4.97858e-01        00000 
 2.71316e-02  4.54314e-01        00000 
-4.09228e-02  8.25196e-02        00000 
 1.04827e-04  4.96278e-01        00000 
-1.18890e-03  4.90683e-01        00000 
 1.73427e-02  4.61926e-01        00000 
-9.72726e-02  2.94643e-01        00000 
-1.08996e-01  2.52598e-01        00000 
 9.61616e-03  4.67532e-01        00000 
-7.82988e-03  4.95607e-01        00000 
-8.77437e-02  1.55896e-01        00000 
-3.33083e-03  4.80099e-01        00000 
-1.17574e-02  2.02186e-02        00000 
-9.50321e-04  4.99532e-01        00000 
-9.12753e-02  3.23792e-01        00000 
 3.37873e-03  4.72816e-01        00000 
-1.25597e-02  4.91678e-01        00000 
-1.19061e-01  2.22618e-01        00000 
-1.09906e-01  2.74837e-01        00000 
-8.51556e-02  3.51260e-01        00000 
-3.02064e-03  4.97623e-01        00000 
-1.78554e-02  4.86360e-01        00000 
-1.40580e-03  4.78419e-01        00000 
-7.58928e-02  3.77471e-01        00000 
-1.06929e-01  1.82789e-01        00000 
-4.25900e-03  4.88871e-01        00000 
-1.00557e-01  3.03745e-01        00000 
-3.69873e-02  6.67580e-02        00000 
 7.48175e-05  5.00006e-01        00000 
-2.43742e-02  4.78564e-01        00000 
-1.09459e-18        00000        00000 
 2.65542e-02  4.67988e-01        00000 
-6.09666e-02  1.11131e-01        00000 
-6.73238e-02  4.00925e-01        00000 
-6.35025e-03  4.93164e-01        00000 
-2.72887e-02  4.55198e-02        00000 
-3.17434e-02  4.68440e-01        00000 
-5.81133e-02  4.21643e-01        00000 
-3.95744e-02  4.55853e-01        00000 
-4.89006e-02  4.40013e-01        00000 
 1.08341e-02  4.80622e-01        00000 
-9.47684e-02  3.24736e-01        00000 
-8.86162e-02  1.52514e-01        00000 
-4.42065e-03  4.84256e-01        00000 
-1.22146e-01  2.60975e-01        00000 
-8.83463e-03  4.88103e-01        00000 
 5.38532e-03  4.83592e-01        00000 
-8.09523e-02  3.54128e-01        00000 
-5.32655e-02  9.41507e-02        00000 
-1.23193e-01  2.10083e-01        00000 
-3.09092e-03  4.95462e-01        00000 
-1.47445e-02  4.78948e-01        00000 
 2.48637e-04  4.98955e-01        00000 
-7.18337e-02  3.72897e-01        00000 
 1.44234e-03  4.86069e-01        00000 
-1.98905e-02  4.70464e-01        00000 
-1.07890e-01  1.78064e-01        00000 
-5.48638e-03  4.89876e-01        00000 
-3.53178e-02  4.41161e-01        00000 
-5.80905e-02  3.96959e-01        00000 
-2.64357e-02  4.54388e-01        00000 
-4.64285e-02  4.18112e-01        00000 
-1.50552e-03  4.88560e-01        00000 
-1.07065e-01  3.04449e-01        00000 
-1.32441e-01  2.36666e-01        00000 
-1.22929e-03  4.99012e-01        00000 
-3.46435e-03  4.91144e-01        00000 
-8.99959e-02  1.50279e-01        00000 
-1.19485e-03  4.90753e-01        00000 
-1.25075e-01  2.02909e-01        00000 
-4.74904e-03  4.94568e-01        00000 
-1.87789e-18  5.00000e-01        00000 
       00000        00000        00000 
 3.21798e-18  5.00000e-01        00000 
-2.64606e-02  3.21068e-02        00000 
 3.05951e-19  5.00000e-01        00000 
-4.45433e-02  6.44336e-02        00000 
-8.58248e-03  4.73024e-01        00000 
-7.93278e-02  3.51564e-01        00000 
-1.08355e-01  1.75203e-01        00000 
-4.33341e-03  4.93707e-01        00000 
-1.10840e-18  5.00000e-01        00000 
-5.90319e-02  9.40434e-02        00000 
-1.31443e-01  2.63199e-01        00000 
 1.09875e-03  4.98831e-01        00000 
-1.37021e-01  2.26765e-01        00000 
-2.72168e-03  4.97808e-01        00000 
-4.87225e-02  3.99898e-01        00000 
 5.33795e-19  5.00000e-01        00000 
-7.45268e-02  1.22714e-01        00000 
-2.32562e-02  4.40192e-01        00000 
 2.25519e-03  4.96113e-01        00000 
-1.26047e-01  1.98449e-01        00000 
-4.09176e-03  4.96007e-01        00000 
 4.93568e-19  5.00000e-01        00000 
-9.10750e-02  1.50037e-01        00000 
-6.46288e-02  3.71331e-01        00000 
-1.41071e-01  2.49917e-01        00000 
-2.90817e-05  4.98905e-01        00000 
-1.23388e-01  2.90174e-01        00000 
 2.36159e-19  5.00000e-01        00000 
-1.08944e-01  1.75578e-01        00000 
-1.40025e-01  2.19980e-01        00000 
-2.90926e-03  4.97793e-01        00000 
-8.69802e-02  3.41549e-01        00000 
-1.43432e-19  5.00000e-01        00000 
-1.26246e-01  1.98489e-01        00000 
 2.02346e-03  4.81146e-01        00000 
-1.07507e-01  3.16296e-01        00000 
-1.36885e-01  2.73488e-01        00000 
 4.46462e-03  4.91404e-01        00000 
-4.54733e-02  3.97842e-01        00000 
-1.47679e-01  2.40171e-01        00000 
-1.06392e-03  4.98780e-01        00000 
 3.40057e-03  4.97028e-01        00000 
-8.87010e-19  5.00000e-01        00000 
-1.41361e-01  2.18130e-01        00000 
-2.81950e-03  4.66070e-01        00000 
-6.65018e-02  3.69464e-01        00000 
-1.38346e-02  4.46163e-01        00000 
-1.47740e-01  2.59987e-01        00000 
 9.87118e-04  4.98643e-01        00000 
-1.25287e-01  2.97307e-01        00000 
 3.26898e-19  5.00000e-01        00000 
-1.51619e-01  2.34921e-01        00000 
-8.80618e-02  3.44338e-01        00000 
-2.85658e-02  4.20424e-01        00000 
 5.28312e-03  4.87943e-01        00000 
 4.61879e-03  4.94934e-01        00000 
 2.41883e-03  4.97954e-01        00000 
-1.40094e-01  2.80293e-01        00000 
-4.73779e-02  3.95673e-01        00000 
-2.00579e-19  5.00000e-01        00000 
-1.55313e-01  2.50130e-01        00000 
 2.78786e-03  4.76992e-01        00000 
-1.08149e-01  3.22242e-01        00000 
-3.95616e-03  4.62023e-01        00000 
-6.81668e-02  3.71159e-01        00000 
-1.56483e-02  4.42157e-01        00000 
 6.76801e-19  5.00000e-01        00000 
-1.51723e-01  2.65335e-01        00000 
-1.26313e-01  3.01820e-01        00000 
-3.14391e-02  4.20441e-01        00000 
-8.90033e-02  3.47825e-01        00000 
 4.40420e-03  4.93946e-01        00000 
 4.50064e-03  4.86640e-01        00000 
-4.99925e-02  3.97539e-01        00000 
 1.67704e-03  4.76228e-01        00000 
-6.97165e-19  5.00000e-01        00000 
-1.41523e-01  2.82167e-01        00000 
-1.08665e-01  3.25116e-01        00000 
-5.92265e-03  4.61640e-01        00000 
-6.99606e-02  3.74074e-01        00000 
-1.82484e-02  4.43596e-01        00000 
-1.15358e-18  5.00000e-01        00000 
-1.26544e-01  3.01710e-01        00000 
-3.42142e-02  4.23098e-01        00000 
-8.99262e-02  3.50027e-01        00000 
 2.02074e-03  4.88609e-01        00000 
 3.63466e-05  4.78949e-01        00000 
-5.25226e-02  4.00617e-01        00000 
 2.38717e-19  5.00000e-01        00000 
-1.09040e-01  3.24399e-01        00000 
-8.01486e-03  4.64960e-01        00000 
-7.18394e-02  3.76306e-01        00000 
-2.06997e-02  4.47691e-01        00000 
-3.70034e-02  4.27194e-01        00000 
-3.24027e-19  5.00000e-01        00000 
-9.12136e-02  3.49779e-01        00000 
-1.84614e-03  4.84830e-01        00000 
-5.52853e-02  4.03558e-01        00000 
-7.00922e-19  5.00000e-01        00000 
-7.43210e-02  3.77149e-01        00000 
-7.07350e-03  4.77171e-01        00000 
-2.28525e-02  4.53558e-01        00000 
-4.00285e-02  4.31470e-01        00000 
 1.18469e-19  5.00000e-01        00000 
-5.87397e-02  4.05834e-01        00000 
-1.00406e-02  4.78441e-01        00000 
-2.46066e-02  4.59697e-01        00000 
-5.55591e-19  5.00000e-01        00000 
-4.37320e-02  4.35736e-01        00000 
-2.55857e-02  4.68179e-01        00000 
       00000  5.00000e-01        00000 
-5.63368e-18  5.00000e-01        00000 </DataArray>
         </PointData>
         <CellData/>
      </Piece>
   </UnstructuredGrid>
</VTKFile>