<?xml version="1.0" encoding="utf-8"?>
<VTKFile byte_order="LittleEndian" type="UnstructuredGrid" version="0.1">
   <UnstructuredGrid>
      <Piece NumberOfCells="13440" NumberOfPoints="7700">
         <Points>
            <DataArray Name="Points" NumberOfComponents="3" format="ascii" type="Float32">
0.0000 0.0909 0.0000
0.0000 0.1818 0.0000
0.0000 0.2727 0.0000
0.0000 0.3636 0.0000
0.0000 0.4545 0.0000
0.0000 0.5455 0.0000
0.0000 0.6364 0.0000
0.0000 0.7273 0.0000
0.0000 0.8182 0.0000
0.0000 0.9091 0.0000
0.0000 1.0000 0.0000
0.0909 0.0909 0.0000
0.0909 0.1818 0.0000
0.0909 0.2727 0.0000
0.0909 0.3636 0.0000
0.0909 0.4545 0.0000
0.0909 0.5455 0.0000
0.0909 0.6364 0.0000
0.0909 0.7273 0.0000
0.0909 0.8182 0.0000
0.0909 0.9091 0.0000
0.0909 1.0000 0.0000
0.1818 0.0909 0.0000
0.1818 0.1818 0.0000
0.1818 0.2727 0.0000
0.1818 0.3636 0.0000
0.1818 0.4545 0.0000
0.1818 0.5455 0.0000
0.1818 0.6364 0.0000
0.1818 0.7273 0.0000
0.1818 0.8182 0.0000
0.1818 0.9091 0.0000
0.1818 1.0000 0.0000
0.2727 0.0909 0.0000
0.2727 0.1818 0.0000
0.2727 0.2727 0.0000
0.2727 0.3636 0.0000
0.2727 0.7273 0.0000
0.2727 0.8182 0.0000
0.2727 0.9091 0.0000
0.2727 1.0000 0.0000
0.3636 0.0909 0.0000
0.3636 0.1818 0.0000
0.3636 0.2727 0.0000
0.3636 0.8182 0.0000
0.3636 0.9091 0.0000
0.3636 1.0000 0.0000
0.4545 0.0909 0.0000
0.4545 0.1818 0.0000
0.4545 0.9091 0.0000
0.4545 1.0000 0.0000
0.5455 0.0909 0.0000
0.5455 0.1818 0.0000
0.5455 0.9091 0.0000
0.5455 1.0000 0.0000
0.6364 0.0909 0.0000
0.6364 0.1818 0.0000
0.6364 0.2727 0.0000
0.6364 0.8182 0.0000
0.6364 0.9091 0.0000
0.6364 1.0000 0.0000
0.7273 0.0909 0.0000
0.7273 0.1818 0.0000
0.7273 0.2727 0.0000
0.7273 0.3636 0.0000
0.7273 0.7273 0.0000
0.7273 0.8182 0.0000
0.7273 0.9091 0.0000
0.7273 1.0000 0.0000
0.8182 0.0909 0.0000
0.8182 0.1818 0.0000
0.8182 0.2727 0.0000
0.8182 0.3636 0.0000
0.8182 0.4545 0.0000
0.8182 0.5455 0.0000
0.8182 0.6364 0.0000
0.8182 0.7273 0.0000
0.8182 0.8182 0.0000
0.8182 0.9091 0.0000
0.8182 1.0000 0.0000
0.9091 0.0909 0.0000
0.9091 0.1818 0.0000
0.9091 0.2727 0.0000
0.9091 0.3636 0.0000
0.9091 0.4545 0.0000
0.9091 0.5455 0.0000
0.9091 0.6364 0.0000
0.9091 0.7273 0.0000
0.9091 0.8182 0.0000
0.9091 0.9091 0.0000
0.9091 1.0000 0.0000
0.2727 0.6364 0.0000
0.3636 0.7273 0.0000
0.4545 0.8182 0.0000
0.5455 0.8182 0.0000
1.0000 0.0909 0.0000
1.0000 0.1818 0.0000
1.0000 0.2727 0.0000
1.0000 0.3636 0.0000
1.0000 0.4545 0.0000
1.0000 0.5455 0.0000
1.0000 0.6364 0.0000
1.0000 0.7273 0.0000
1.0000 0.8182 0.0000
1.0000 0.9091 0.0000
1.0000 1.0000 0.0000
0.0909 0.0000 0.0000
0.1818 0.0000 0.0000
0.2727 0.0000 0.0000
0.3636 0.0000 0.0000
0.4545 0.0000 0.0000
0.5455 0.0000 0.0000
0.6364 0.0000 0.0000
0.6364 0.7273 0.0000
0.7273 0.0000 0.0000
0.7273 0.6364 0.0000
0.8182 0.0000 0.0000
0.9091 0.0000 0.0000
1.0000 0.0000 0.0000
0.0000 0.0000 0.0000
0.0455 0.0455 0.0000
0.0455 0.1364 0.0000
0.0455 0.2273 0.0000
0.0455 0.3182 0.0000
0.0455 0.4091 0.0000
0.0455 0.5000 0.0000
0.0455 0.5909 0.0000
0.0455 0.6818 0.0000
0.0455 0.7727 0.0000
0.0455 0.8636 0.0000
0.0455 0.9545 0.0000
0.1364 0.0455 0.0000
0.1364 0.1364 0.0000
0.1364 0.2273 0.0000
0.1364 0.3182 0.0000
0.1364 0.4091 0.0000
0.1364 0.5000 0.0000
0.1364 0.5909 0.0000
0.1364 0.6818 0.0000
0.1364 0.7727 0.0000
0.1364 0.8636 0.0000
0.1364 0.9545 0.0000
0.2273 0.0455 0.0000
0.2273 0.1364 0.0000
0.2273 0.2273 0.0000
0.2273 0.3182 0.0000
0.2273 0.4091 0.0000
0.2273 0.5000 0.0000
0.2273 0.5909 0.0000
0.2273 0.6818 0.0000
0.2273 0.7727 0.0000
0.2273 0.8636 0.0000
0.2273 0.9545 0.0000
0.3182 0.0455 0.0000
0.3182 0.1364 0.0000
0.3182 0.2273 0.0000
0.3182 0.3182 0.0000
0.3182 0.6818 0.0000
0.3182 0.7727 0.0000
0.3182 0.8636 0.0000
0.3182 0.9545 0.0000
0.4091 0.0455 0.0000
0.4091 0.1364 0.0000
0.4091 0.2273 0.0000
0.4091 0.7727 0.0000
0.4091 0.8636 0.0000
0.4091 0.9545 0.0000
0.5000 0.0455 0.0000
0.5000 0.1364 0.0000
0.5000 0.8636 0.0000
0.5000 0.9545 0.0000
0.5909 0.0455 0.0000
0.5909 0.1364 0.0000
0.5909 0.8636 0.0000
0.5909 0.9545 0.0000
0.6818 0.0455 0.0000
0.6818 0.1364 0.0000
0.6818 0.2273 0.0000
0.6818 0.7727 0.0000
0.6818 0.8636 0.0000
0.6818 0.9545 0.0000
0.7727 0.0455 0.0000
0.7727 0.1364 0.0000
0.7727 0.2273 0.0000
0.7727 0.3182 0.0000
0.7727 0.6818 0.0000
0.7727 0.7727 0.0000
0.7727 0.8636 0.0000
0.7727 0.9545 0.0000
0.8636 0.0455 0.0000
0.8636 0.1364 0.0000
0.8636 0.2273 0.0000
0.8636 0.3182 0.0000
0.8636 0.4091 0.0000
0.8636 0.5000 0.0000
0.8636 0.5909 0.0000
0.8636 0.6818 0.0000
0.8636 0.7727 0.0000
0.8636 0.8636 0.0000
0.8636 0.9545 0.0000
0.9545 0.0455 0.0000
0.9545 0.1364 0.0000
0.9545 0.2273 0.0000
0.9545 0.3182 0.0000
0.9545 0.4091 0.0000
0.9545 0.5000 0.0000
0.9545 0.5909 0.0000
0.9545 0.6818 0.0000
0.9545 0.7727 0.0000
0.9545 0.8636 0.0000
0.9545 0.9545 0.0000
0.5000 0.7727 0.0000
0.5909 0.7727 0.0000
0.6818 0.6818 0.0000
0.7727 0.5909 0.0000
0.5909 0.2273 0.0000
0.6818 0.3182 0.0000
0.7727 0.4091 0.0000
0.7727 0.5000 0.0000
0.5000 0.2273 0.0000
0.2536 0.4545 0.0000
0.2536 0.5455 0.0000
0.2727 0.3972 0.0000
0.2895 0.3636 0.0000
0.2826 0.3735 0.0000
0.2568 0.4386 0.0000
0.2507 0.4766 0.0000
0.2727 0.6028 0.0000
0.2507 0.5234 0.0000
0.2568 0.5614 0.0000
0.2895 0.6364 0.0000
0.2826 0.6265 0.0000
0.3636 0.2895 0.0000
0.3972 0.2727 0.0000
0.3735 0.2826 0.0000
0.3224 0.3224 0.0000
0.3636 0.7105 0.0000
0.3224 0.6776 0.0000
0.3972 0.7273 0.0000
0.3735 0.7174 0.0000
0.4545 0.2536 0.0000
0.4386 0.2568 0.0000
0.4766 0.2507 0.0000
0.4545 0.7464 0.0000
0.4386 0.7432 0.0000
0.4766 0.7493 0.0000
0.5455 0.2536 0.0000
0.6028 0.2727 0.0000
0.5234 0.2507 0.0000
0.5614 0.2568 0.0000
0.5455 0.7464 0.0000
0.6028 0.7273 0.0000
0.5234 0.7493 0.0000
0.5614 0.7432 0.0000
0.6364 0.2895 0.0000
0.6265 0.2826 0.0000
0.7105 0.3636 0.0000
0.6776 0.3224 0.0000
0.6364 0.7105 0.0000
0.7105 0.6364 0.0000
0.6776 0.6776 0.0000
0.6265 0.7174 0.0000
0.7273 0.3972 0.0000
0.7174 0.3735 0.0000
0.7464 0.4545 0.0000
0.7432 0.4386 0.0000
0.7493 0.4766 0.0000
0.7273 0.6028 0.0000
0.7464 0.5455 0.0000
0.7493 0.5234 0.0000
0.7432 0.5614 0.0000
0.7174 0.6265 0.0000
1.0000 1.0000 0.0000
1.0909 0.0909 0.0000
1.0909 0.1818 0.0000
1.0909 0.2727 0.0000
1.0909 0.3636 0.0000
1.0909 0.4545 0.0000
1.0909 0.5455 0.0000
1.0909 0.6364 0.0000
1.0909 0.7273 0.0000
1.0909 0.8182 0.0000
1.0909 0.9091 0.0000
1.0909 1.0000 0.0000
1.1818 0.0909 0.0000
1.1818 0.1818 0.0000
1.1818 0.2727 0.0000
1.1818 0.3636 0.0000
1.1818 0.4545 0.0000
1.1818 0.5455 0.0000
1.1818 0.6364 0.0000
1.1818 0.7273 0.0000
1.1818 0.8182 0.0000
1.1818 0.9091 0.0000
1.1818 1.0000 0.0000
1.2727 0.0909 0.0000
1.2727 0.1818 0.0000
1.2727 0.2727 0.0000
1.2727 0.3636 0.0000
1.2727 0.7273 0.0000
1.2727 0.8182 0.0000
1.2727 0.9091 0.0000
1.2727 1.0000 0.0000
1.3636 0.0909 0.0000
1.3636 0.1818 0.0000
1.3636 0.2727 0.0000
1.3636 0.8182 0.0000
1.3636 0.9091 0.0000
1.3636 1.0000 0.0000
1.4545 0.0909 0.0000
1.4545 0.1818 0.0000
1.4545 0.9091 0.0000
1.4545 1.0000 0.0000
1.5455 0.0909 0.0000
1.5455 0.1818 0.0000
1.5455 0.9091 0.0000
1.5455 1.0000 0.0000
1.6364 0.0909 0.0000
1.6364 0.1818 0.0000
1.6364 0.2727 0.0000
1.6364 0.8182 0.0000
1.6364 0.9091 0.0000
1.6364 1.0000 0.0000
1.7273 0.0909 0.0000
1.7273 0.1818 0.0000
1.7273 0.2727 0.0000
1.7273 0.3636 0.0000
1.7273 0.7273 0.0000
1.7273 0.8182 0.0000
1.7273 0.9091 0.0000
1.7273 1.0000 0.0000
1.8182 0.0909 0.0000
1.8182 0.1818 0.0000
1.8182 0.2727 0.0000
1.8182 0.3636 0.0000
1.8182 0.4545 0.0000
1.8182 0.5455 0.0000
1.8182 0.6364 0.0000
1.8182 0.7273 0.0000
1.8182 0.8182 0.0000
1.8182 0.9091 0.0000
1.8182 1.0000 0.0000
1.9091 0.0909 0.0000
1.9091 0.1818 0.0000
1.9091 0.2727 0.0000
1.9091 0.3636 0.0000
1.9091 0.4545 0.0000
1.9091 0.5455 0.0000
1.9091 0.6364 0.0000
1.9091 0.7273 0.0000
1.9091 0.8182 0.0000
1.9091 0.9091 0.0000
1.9091 1.0000 0.0000
1.2727 0.6364 0.0000
1.3636 0.7273 0.0000
1.4545 0.8182 0.0000
1.5455 0.8182 0.0000
2.0000 0.0909 0.0000
2.0000 0.1818 0.0000
2.0000 0.2727 0.0000
2.0000 0.3636 0.0000
2.0000 0.4545 0.0000
2.0000 0.5455 0.0000
2.0000 0.6364 0.0000
2.0000 0.7273 0.0000
2.0000 0.8182 0.0000
2.0000 0.9091 0.0000
2.0000 1.0000 0.0000
1.0909 0.0000 0.0000
1.1818 0.0000 0.0000
1.2727 0.0000 0.0000
1.3636 0.0000 0.0000
1.4545 0.0000 0.0000
1.5455 0.0000 0.0000
1.6364 0.0000 0.0000
1.6364 0.7273 0.0000
1.7273 0.0000 0.0000
1.7273 0.6364 0.0000
1.8182 0.0000 0.0000
1.9091 0.0000 0.0000
2.0000 0.0000 0.0000
1.0000 0.0000 0.0000
1.0455 0.0455 0.0000
1.0455 0.1364 0.0000
1.0455 0.2273 0.0000
1.0455 0.3182 0.0000
1.0455 0.4091 0.0000
1.0455 0.5000 0.0000
1.0455 0.5909 0.0000
1.0455 0.6818 0.0000
1.0455 0.7727 0.0000
1.0455 0.8636 0.0000
1.0455 0.9545 0.0000
1.1364 0.0455 0.0000
1.1364 0.1364 0.0000
1.1364 0.2273 0.0000
1.1364 0.3182 0.0000
1.1364 0.4091 0.0000
1.1364 0.5000 0.0000
1.1364 0.5909 0.0000
1.1364 0.6818 0.0000
1.1364 0.7727 0.0000
1.1364 0.8636 0.0000
1.1364 0.9545 0.0000
1.2273 0.0455 0.0000
1.2273 0.1364 0.0000
1.2273 0.2273 0.0000
1.2273 0.3182 0.0000
1.2273 0.4091 0.0000
1.2273 0.5000 0.0000
1.2273 0.5909 0.0000
1.2273 0.6818 0.0000
1.2273 0.7727 0.0000
1.2273 0.8636 0.0000
1.2273 0.9545 0.0000
1.3182 0.0455 0.0000
1.3182 0.1364 0.0000
1.3182 0.2273 0.0000
1.3182 0.3182 0.0000
1.3182 0.6818 0.0000
1.3182 0.7727 0.0000
1.3182 0.8636 0.0000
1.3182 0.9545 0.0000
1.4091 0.0455 0.0000
1.4091 0.1364 0.0000
1.4091 0.2273 0.0000
1.4091 0.7727 0.0000
1.4091 0.8636 0.0000
1.4091 0.9545 0.0000
1.5000 0.0455 0.0000
1.5000 0.1364 0.0000
1.5000 0.8636 0.0000
1.5000 0.9545 0.0000
1.5909 0.0455 0.0000
1.5909 0.1364 0.0000
1.5909 0.8636 0.0000
1.5909 0.9545 0.0000
1.6818 0.0455 0.0000
1.6818 0.1364 0.0000
1.6818 0.2273 0.0000
1.6818 0.7727 0.0000
1.6818 0.8636 0.0000
1.6818 0.9545 0.0000
1.7727 0.0455 0.0000
1.7727 0.1364 0.0000
1.7727 0.2273 0.0000
1.7727 0.3182 0.0000
1.7727 0.6818 0.0000
1.7727 0.7727 0.0000
1.7727 0.8636 0.0000
1.7727 0.9545 0.0000
1.8636 0.0455 0.0000
1.8636 0.1364 0.0000
1.8636 0.2273 0.0000
1.8636 0.3182 0.0000
1.8636 0.4091 0.0000
1.8636 0.5000 0.0000
1.8636 0.5909 0.0000
1.8636 0.6818 0.0000
1.8636 0.7727 0.0000
1.8636 0.8636 0.0000
[...]
         <PointData>
            <DataArray Name="fValues" NumberOfComponents="3" format="ascii" type="Float64">
-9.88679e-19 -8.89811e-19        00000 
 1.46391e-19  1.21993e-19        00000 
-2.46240e-19  1.04227e-19        00000 
 6.49040e-20 -1.21993e-19        00000 
-4.03083e-21  2.21120e-19        00000 
-2.74484e-20 -2.43986e-20        00000 
 3.90852e-20 -2.10753e-20        00000 
-9.75943e-20  9.75943e-20        00000 
-2.52198e-20 -4.73463e-20        00000 
-6.09965e-21 -6.09965e-21        00000 
-2.12949e-15 -8.64988e-05        00000 
-3.70908e-03 -2.49424e-03        00000 
-1.78999e-03 -1.31915e-03        00000 
-8.66152e-04 -8.99786e-04        00000 
-2.26736e-04 -8.68143e-04        00000 
-5.06253e-06 -1.01996e-03        00000 
-1.62981e-04 -1.13272e-03        00000 
-4.38592e-04 -1.06565e-03        00000 
-5.77361e-04 -8.66574e-04        00000 
-5.07893e-04 -6.47919e-04        00000 
-2.79119e-04 -5.01487e-04        00000 
-2.21757e-15 -4.39487e-04        00000 
-6.41025e-03 -4.52865e-03        00000 
-3.87981e-03 -3.44252e-03        00000 
-1.84915e-03 -2.60240e-03        00000 
-3.57248e-04 -2.21012e-03        00000 
 1.22238e-04 -2.12306e-03        00000 
-3.19733e-04 -2.04227e-03        00000 
-9.93748e-04 -1.92921e-03        00000 
-1.32064e-03 -1.70834e-03        00000 
-1.13791e-03 -1.46658e-03        00000 
-6.31138e-04 -1.30096e-03        00000 
-3.26164e-15 -1.24594e-03        00000 
-8.73852e-03 -7.16095e-03        00000 
-5.90499e-03 -6.12526e-03        00000 
-2.96205e-03 -5.09659e-03        00000 
-4.43272e-04 -4.27831e-03        00000 
-2.19157e-03 -2.62299e-03        00000 
-1.83846e-03 -2.55033e-03        00000 
-9.90503e-04 -2.49027e-03        00000 
-4.58917e-15 -2.47671e-03        00000 
-1.09457e-02 -1.06532e-02        00000 
-7.97494e-03 -9.76554e-03        00000 
-4.10262e-03 -8.90529e-03        00000 
-2.58903e-03 -4.19912e-03        00000 
-1.31529e-03 -4.28460e-03        00000 
-6.01620e-15 -4.32200e-03        00000 
-1.29709e-02 -1.45468e-02        00000 
-1.01051e-02 -1.39735e-02        00000 
-1.60971e-03 -6.90876e-03        00000 
-7.41605e-15 -6.94293e-03        00000 
-1.47642e-02 -1.80407e-02        00000 
-1.23267e-02 -1.76549e-02        00000 
-1.90827e-03 -1.03130e-02        00000 
-8.81799e-15 -1.02734e-02        00000 
-1.64389e-02 -2.06872e-02        00000 
-1.44014e-02 -2.01999e-02        00000 
-1.35764e-02 -1.97618e-02        00000 
-4.76153e-03 -1.44323e-02        00000 
-2.23292e-03 -1.41026e-02        00000 
-1.02171e-14 -1.39893e-02        00000 
-1.80780e-02 -2.27021e-02        00000 
-1.63570e-02 -2.20344e-02        00000 
-1.53135e-02 -2.14125e-02        00000 
-1.51246e-02 -2.11948e-02        00000 
-8.17625e-03 -1.86634e-02        00000 
-5.22827e-03 -1.81966e-02        00000 
-2.52482e-03 -1.78434e-02        00000 
-1.16677e-14 -1.77163e-02        00000 
-1.97329e-02 -2.45216e-02        00000 
-1.81736e-02 -2.37552e-02        00000 
-1.67381e-02 -2.30976e-02        00000 
-1.56606e-02 -2.27487e-02        00000 
-1.45815e-02 -2.26330e-02        00000 
-1.30704e-02 -2.24673e-02        00000 
-1.09742e-02 -2.22420e-02        00000 
-8.35939e-03 -2.19387e-02        00000 
-5.54625e-03 -2.16071e-02        00000 
-2.74536e-03 -2.13432e-02        00000 
-1.30737e-14 -2.12423e-02        00000 
-2.15881e-02 -2.62443e-02        00000 
-1.99091e-02 -2.54314e-02        00000 
-1.78797e-02 -2.50926e-02        00000 
-1.61848e-02 -2.49810e-02        00000 
-1.46588e-02 -2.50173e-02        00000 
-1.29904e-02 -2.50994e-02        00000 
-1.09484e-02 -2.51014e-02        00000 
-8.49918e-03 -2.49840e-02        00000 
-5.76778e-03 -2.47897e-02        00000 
-2.89917e-03 -2.46143e-02        00000 
-1.41980e-14 -2.45522e-02        00000 
-1.54191e-03 -2.47518e-03        00000 
-3.30665e-03 -4.13947e-03        00000 
-3.35803e-03 -6.85036e-03        00000 
-4.14468e-03 -1.04644e-02        00000 
-2.40349e-02 -2.72229e-02        00000 
-2.12387e-02 -2.74980e-02        00000 
-1.86972e-02 -2.75845e-02        00000 
-1.65320e-02 -2.76842e-02        00000 
-1.46920e-02 -2.78605e-02        00000 
-1.29421e-02 -2.80218e-02        00000 
-1.09877e-02 -2.80787e-02        00000 
-8.65705e-03 -2.80165e-02        00000 
-5.96528e-03 -2.78928e-02        00000 
-3.03264e-03 -2.77818e-02        00000 
-1.44897e-14 -2.76901e-02        00000 
-7.16689e-03 -3.55687e-03        00000 
-9.07850e-03 -5.46248e-03        00000 
-1.16390e-02 -8.06430e-03        00000 
-1.41007e-02 -1.14290e-02        00000 
-1.60774e-02 -1.51137e-02        00000 
-1.75482e-02 -1.84713e-02        00000 
-1.87763e-02 -2.11319e-02        00000 
-7.98121e-03 -1.48333e-02        00000 
-2.00368e-02 -2.32196e-02        00000 
-1.09927e-02 -1.91856e-02        00000 
-2.13331e-02 -2.50902e-02        00000 
-2.22905e-02 -2.68761e-02        00000 
-2.20840e-02 -2.69901e-02        00000 
-7.33903e-03  5.09576e-04        00000 
-4.35723e-03 -1.87054e-03        00000 
-1.22789e-03 -7.13462e-04        00000 
-6.11616e-04 -4.39255e-04        00000 
-2.69267e-04 -3.62056e-04        00000 
-7.69267e-05 -4.44317e-04        00000 
-5.61062e-05 -5.57911e-04        00000 
-1.42010e-04 -5.84046e-04        00000 
-2.29104e-04 -5.00404e-04        00000 
-2.43982e-04 -3.69940e-04        00000 
-1.78449e-04 -2.58755e-04        00000 
-5.12175e-05 -2.21979e-04        00000 
-6.60730e-03 -4.10926e-03        00000 
-3.95841e-03 -2.86973e-03        00000 
-2.04369e-03 -1.92761e-03        00000 
-7.79743e-04 -1.53855e-03        00000 
-8.68433e-05 -1.52310e-03        00000 
-6.71900e-05 -1.61501e-03        00000 
-4.73016e-04 -1.59227e-03        00000 
-8.29862e-04 -1.41596e-03        00000 
-8.83063e-04 -1.15820e-03        00000 
-6.36617e-04 -9.44489e-04        00000 
-2.28438e-04 -8.27968e-04        00000 
-8.97039e-03 -6.27508e-03        00000 
-6.23971e-03 -5.27647e-03        00000 
-3.62544e-03 -4.20266e-03        00000 
-1.34968e-03 -3.41850e-03        00000 
 9.19751e-06 -2.90378e-03        00000 
-7.62191e-05 -2.31440e-03        00000 
-8.44126e-04 -2.20088e-03        00000 
-1.55805e-03 -2.22428e-03        00000 
-1.64328e-03 -2.06577e-03        00000 
-1.16270e-03 -1.90939e-03        00000 
-4.10592e-04 -1.83355e-03        00000 
-1.13720e-02 -9.29506e-03        00000 
-8.40956e-03 -8.40910e-03        00000 
-5.25721e-03 -7.35701e-03        00000 
-1.83340e-03 -6.53419e-03        00000 
-2.31351e-03 -3.23099e-03        00000 
-2.49797e-03 -3.33242e-03        00000 
-1.70152e-03 -3.32786e-03        00000 
-5.82819e-04 -3.35280e-03        00000 
-1.35498e-02 -1.29418e-02        00000 
-1.05385e-02 -1.22479e-02        00000 
-7.07447e-03 -1.14740e-02        00000 
-3.61395e-03 -5.42446e-03        00000 
-2.21463e-03 -5.50140e-03        00000 
-7.30847e-04 -5.57778e-03        00000 
-1.53573e-02 -1.65835e-02        00000 
-1.25652e-02 -1.61076e-02        00000 
-2.72894e-03 -8.57314e-03        00000 
-8.70279e-04 -8.57222e-03        00000 
-1.68802e-02 -1.96387e-02        00000 
-1.44701e-02 -1.91957e-02        00000 
-3.23957e-03 -1.22916e-02        00000 
-1.02609e-03 -1.21290e-02        00000 
-1.83234e-02 -2.19826e-02        00000 
-1.62963e-02 -2.14455e-02        00000 
-1.48891e-02 -2.08249e-02        00000 
-6.52861e-03 -1.65654e-02        00000 
-3.68396e-03 -1.61219e-02        00000 
-1.18771e-03 -1.58764e-02        00000 
-1.97889e-02 -2.39283e-02        00000 
-1.80731e-02 -2.32736e-02        00000 
-1.66411e-02 -2.25260e-02        00000 
-1.56928e-02 -2.20024e-02        00000 
-9.65300e-03 -2.05327e-02        00000 
-6.84445e-03 -2.01183e-02        00000 
-4.02233e-03 -1.97354e-02        00000 
-1.32083e-03 -1.95088e-02        00000 
-2.12283e-02 -2.57953e-02        00000 
-1.98452e-02 -2.49732e-02        00000 
-1.82150e-02 -2.42700e-02        00000 
-1.66455e-02 -2.39028e-02        00000 
-1.52904e-02 -2.37892e-02        00000 
-1.38563e-02 -2.37846e-02        00000 
-1.20243e-02 -2.37343e-02        00000 
-9.71855e-03 -2.35873e-02        00000 
-7.06031e-03 -2.33401e-02        00000 
-4.25072e-03 -2.30801e-02        00000 
-1.41597e-03 -2.29188e-02        00000 
-2.26075e-02 -2.71651e-02        00000 
-2.18288e-02 -2.64595e-02        00000 
-1.94844e-02 -2.63376e-02        00000 
-1.73498e-02 -2.62768e-02        00000 
-1.55344e-02 -2.63466e-02        00000 
-1.38307e-02 -2.64896e-02        00000 
-1.19741e-02 -2.65863e-02        00000 
-9.78000e-03 -2.65600e-02        00000 
-7.23116e-03 -2.64258e-02        00000 
-4.42427e-03 -2.62617e-02        00000 
-1.47926e-03 -2.61430e-02        00000 
-5.09986e-03 -8.70082e-03        00000 
-6.07288e-03 -1.26183e-02        00000 
-9.61158e-03 -1.69945e-02        00000 
-1.20910e-02 -2.09879e-02        00000 
-1.27187e-02 -1.87813e-02        00000 
-1.47121e-02 -2.04971e-02        00000 
-1.50015e-02 -2.18547e-02        00000 
-1.38385e-02 -2.15658e-02        00000 
-9.71697e-03 -1.55930e-02        00000 
 4.33189e-05 -2.82741e-03        00000 
-4.34165e-04 -2.20175e-03        00000 
-1.61017e-04 -3.90585e-03        00000 
-4.64574e-04 -4.95868e-03        00000 
-3.48031e-04 -4.50533e-03        00000 
 9.75710e-06 -3.05736e-03        00000 
-5.40803e-05 -2.57105e-03        00000 
-1.05329e-03 -2.27095e-03        00000 
-2.53408e-04 -2.22135e-03        00000 
-6.04427e-04 -2.16516e-03        00000 
-1.58804e-03 -2.60212e-03        00000 
-1.41611e-03 -2.44390e-03        00000 
-3.28060e-03 -8.88153e-03        00000 
-4.57146e-03 -1.06151e-02        00000 
-3.66929e-03 -9.36403e-03        00000 
-1.66601e-03 -6.72605e-03        00000 
-3.17963e-03 -4.11990e-03        00000 
-2.28891e-03 -3.26546e-03        00000 
-3.94156e-03 -5.18680e-03        00000 
-3.45743e-03 -4.44454e-03        00000 
-7.09235e-03 -1.33486e-02        00000 
-6.35250e-03 -1.25411e-02        00000 
-7.95451e-03 -1.43360e-02        00000 
-4.96593e-03 -7.09067e-03        00000 
-4.65108e-03 -6.56957e-03        00000 
-5.37378e-03 -7.94991e-03        00000 
-1.07087e-02 -1.70469e-02        00000 
-1.26752e-02 -1.88360e-02        00000 
-9.88469e-03 -1.62037e-02        00000 
-1.13600e-02 -1.75078e-02        00000 
-6.65562e-03 -1.07236e-02        00000 
-7.92261e-03 -1.32676e-02        00000 
-6.28235e-03 -9.77210e-03        00000 
-7.00605e-03 -1.14549e-02        00000 
-1.37460e-02 -1.97694e-02        00000 
-1.34222e-02 -1.94676e-02        00000 
-1.50697e-02 -2.10180e-02        00000 
-1.47236e-02 -2.04618e-02        00000 
-8.62904e-03 -1.48544e-02        00000 
-1.09965e-02 -1.84862e-02        00000 
-9.76638e-03 -1.68149e-02        00000 
-8.38469e-03 -1.43909e-02        00000 
-1.49952e-02 -2.12470e-02        00000 
-1.50769e-02 -2.11169e-02        00000 
-1.44618e-02 -2.13158e-02        00000 
-1.46223e-02 -2.13597e-02        00000 
-1.41512e-02 -2.12744e-02        00000 
-1.17599e-02 -1.94668e-02        00000 
-1.29826e-02 -2.06140e-02        00000 
-1.33666e-02 -2.08876e-02        00000 
-1.26453e-02 -2.03666e-02        00000 
-1.12216e-02 -1.88811e-02        00000 
-1.93268e-14 -2.77867e-02        00000 
-2.64606e-02 -3.17326e-02        00000 
-2.24474e-02 -3.09749e-02        00000 
-1.93277e-02 -3.07529e-02        00000 
-1.66976e-02 -3.08024e-02        00000 
-1.46496e-02 -3.09894e-02        00000 
-1.29610e-02 -3.11473e-02        00000 
-1.11608e-02 -3.11735e-02        00000 
-8.91486e-03 -3.11065e-02        00000 
-6.20165e-03 -3.10177e-02        00000 
-3.16764e-03 -3.09550e-02        00000 
-1.96037e-14 -3.09260e-02        00000 
-2.82678e-02 -3.57547e-02        00000 
-2.38461e-02 -3.50173e-02        00000 
-1.99494e-02 -3.44461e-02        00000 
-1.67199e-02 -3.41956e-02        00000 
-1.45142e-02 -3.41851e-02        00000 
-1.30593e-02 -3.42183e-02        00000 
-1.14967e-02 -3.42604e-02        00000 
-9.30597e-03 -3.42681e-02        00000 
-6.50043e-03 -3.42601e-02        00000 
-3.32478e-03 -3.42617e-02        00000 
-2.07228e-14 -3.42656e-02        00000 
-2.98309e-02 -4.02319e-02        00000 
-2.51678e-02 -3.94948e-02        00000 
-2.06059e-02 -3.87315e-02        00000 
-1.66776e-02 -3.80411e-02        00000 
-9.81787e-03 -3.76353e-02        00000 
-6.84766e-03 -3.77977e-02        00000 
-3.48063e-03 -3.79046e-02        00000 
-2.21160e-14 -3.79480e-02        00000 
-3.13014e-02 -4.54527e-02        00000 
-2.64837e-02 -4.48065e-02        00000 
-2.11945e-02 -4.41608e-02        00000 
-7.23765e-03 -4.19129e-02        00000 
-3.61598e-03 -4.20939e-02        00000 
-2.35164e-14 -4.21635e-02        00000 
-3.26120e-02 -5.11524e-02        00000 
-2.78050e-02 -5.07584e-02        00000 
-3.74503e-03 -4.69492e-02        00000 
-2.48217e-14 -4.69895e-02        00000 
-3.37021e-02 -5.67068e-02        00000 
-2.91610e-02 -5.65145e-02        00000 
-3.89951e-03 -5.23155e-02        00000 
-2.61664e-14 -5.22783e-02        00000 
-3.46426e-02 -6.16392e-02        00000 
-3.04125e-02 -6.14341e-02        00000 
-2.69946e-02 -6.12648e-02        00000 
-8.36956e-03 -5.80749e-02        00000 
-4.08380e-03 -5.77994e-02        00000 
-2.75290e-14 -5.77025e-02        00000 
-3.55146e-02 -6.59512e-02        00000 
-3.15739e-02 -6.56305e-02        00000 
-2.81807e-02 -6.53517e-02        00000 
-2.56108e-02 -6.53677e-02        00000 
-1.29610e-02 -6.36943e-02        00000 
-8.57739e-03 -6.33303e-02        00000 
-4.24489e-03 -6.30594e-02        00000 
-2.89187e-14 -6.29604e-02        00000 
-3.63754e-02 -6.99101e-02        00000 
-3.26265e-02 -6.95134e-02        00000 
-2.91067e-02 -6.91574e-02        00000 
-2.60319e-02 -6.89599e-02        00000 
-2.32176e-02 -6.88872e-02        00000 
-2.02718e-02 -6.87722e-02        00000 
-1.68756e-02 -6.86106e-02        00000 
-1.29426e-02 -6.84033e-02        00000 
-8.69756e-03 -6.81799e-02        00000 
-4.35247e-03 -6.79989e-02        00000 
-3.02421e-14 -6.79288e-02        00000 
-3.73276e-02 -7.36688e-02        00000 
-3.35984e-02 -7.32401e-02        00000 
-2.98266e-02 -7.30343e-02        00000 
-2.64311e-02 -7.29347e-02        00000 
-2.33125e-02 -7.29172e-02        00000 
-2.01854e-02 -7.29464e-02        00000 
-1.67617e-02 -7.29528e-02        00000 
-1.29291e-02 -7.28968e-02        00000 
-8.76701e-03 -7.27898e-02        00000 
-4.41621e-03 -7.26875e-02        00000 
-3.13240e-14 -7.26511e-02        00000 
-1.18761e-02 -3.72624e-02        00000 
-1.05649e-02 -4.17252e-02        00000 
-7.65318e-03 -4.68608e-02        00000 
-8.06798e-03 -5.24423e-02        00000 
-3.85743e-02 -7.69786e-02        00000 
-3.43131e-02 -7.71113e-02        00000 
-3.03020e-02 -7.71457e-02        00000 
-2.66646e-02 -7.71871e-02        00000 
-2.33544e-02 -7.72711e-02        00000 
-2.01424e-02 -7.73531e-02        00000 
-1.67381e-02 -7.73875e-02        00000 
-1.29681e-02 -7.73651e-02        00000 
-8.84143e-03 -7.73119e-02        00000 
-4.47316e-03 -7.72628e-02        00000 
-3.15691e-14 -7.72088e-02        00000 
-3.15534e-02 -3.23993e-02        00000 
-3.28152e-02 -3.63915e-02        00000 
-3.45910e-02 -4.08652e-02        00000 
-3.63304e-02 -4.59999e-02        00000 
-3.76904e-02 -5.15275e-02        00000 
-3.85800e-02 -5.69374e-02        00000 
-3.91578e-02 -6.18355e-02        00000 
-1.30388e-02 -5.84002e-02        00000 
-3.96612e-02 -6.61814e-02        00000 
-1.69941e-02 -6.41566e-02        00000 
-4.01845e-02 -7.01793e-02        00000 
-4.05847e-02 -7.39796e-02        00000 
-4.04568e-02 -7.68852e-02        00000 
-3.16776e-02 -2.69053e-02        00000 
-2.83087e-02 -2.98838e-02        00000 
-2.34163e-02 -2.92050e-02        00000 
-2.03892e-02 -2.91304e-02        00000 
-1.78073e-02 -2.91479e-02        00000 
-1.56441e-02 -2.93082e-02        00000 
-1.38108e-02 -2.95125e-02        00000 
-1.20091e-02 -2.96247e-02        00000 
-9.92952e-03 -2.96044e-02        00000 
-7.43910e-03 -2.95057e-02        00000 
-4.59785e-03 -2.93992e-02        00000 
-1.54584e-03 -2.93456e-02        00000 
-2.97781e-02 -3.41378e-02        00000 
-2.52580e-02 -3.33189e-02        00000 
-2.13490e-02 -3.27007e-02        00000 
-1.81362e-02 -3.24744e-02        00000 
-1.56207e-02 -3.25235e-02        00000 
-1.37805e-02 -3.26643e-02        00000 
-1.21715e-02 -3.27296e-02        00000 
-1.02289e-02 -3.27091e-02        00000 
-7.74084e-03 -3.26516e-02        00000 
-4.80667e-03 -3.26060e-02        00000 
-1.62721e-03 -3.25825e-02        00000 
-3.13767e-02 -3.82843e-02        00000 
-2.67783e-02 -3.75946e-02        00000 
-2.23683e-02 -3.68393e-02        00000 
-1.84332e-02 -3.62663e-02        00000 
-1.54662e-02 -3.58496e-02        00000 
-1.37639e-02 -3.54556e-02        00000 
-1.24433e-02 -3.56194e-02        00000 
-1.06698e-02 -3.58732e-02        00000 
-8.13930e-03 -3.59698e-02        00000 
-5.05155e-03 -3.60322e-02        00000 
-1.70630e-03 -3.60756e-02        00000 
-3.30242e-02 -4.31039e-02        00000 
-2.82074e-02 -4.24772e-02        00000 
-2.33777e-02 -4.17076e-02        00000 
-1.86367e-02 -4.10506e-02        00000 
-1.11841e-02 -3.94578e-02        00000 
-8.62019e-03 -3.97232e-02        00000 
-5.30477e-03 -3.98955e-02        00000 
-1.77743e-03 -4.00107e-02        00000 
-3.45051e-02 -4.85270e-02        00000 
-2.95821e-02 -4.80439e-02        00000 
-2.44258e-02 -4.74798e-02        00000 
-9.32139e-03 -4.42606e-02        00000 
-5.55139e-03 -4.44185e-02        00000 
-1.83660e-03 -4.45330e-02        00000 
-3.56643e-02 -5.41062e-02        00000 
-3.08453e-02 -5.38163e-02        00000 
-5.81453e-03 -4.96095e-02        00000 
-1.90145e-03 -4.96139e-02        00000 
-3.65250e-02 -5.93252e-02        00000 
-3.19780e-02 -5.91126e-02        00000 
-6.08664e-03 -5.51435e-02        00000 
-1.98838e-03 -5.50010e-02        00000 
-3.72399e-02 -6.39480e-02        00000 
-3.30215e-02 -6.37000e-02        00000 
-2.92768e-02 -6.34235e-02        00000 
-1.07319e-02 -6.09107e-02        00000 
-6.31950e-03 -6.05603e-02        00000 
-2.08190e-03 -6.03604e-02        00000 
-3.79292e-02 -6.80978e-02        00000 
-3.40132e-02 -6.77754e-02        00000 
-3.03624e-02 -6.73975e-02        00000 
-2.72059e-02 -6.71462e-02        00000 
-1.49752e-02 -6.62289e-02        00000 
-1.08122e-02 -6.59194e-02        00000 
-6.47932e-03 -6.56407e-02        00000 
-2.15296e-03 -6.54736e-02        00000 
-3.86129e-02 -7.20036e-02        00000 
-3.49781e-02 -7.15857e-02        00000 
-3.13084e-02 -7.12049e-02        00000 
-2.78614e-02 -7.09816e-02        00000 
-2.47552e-02 -7.08868e-02        00000 
-2.17649e-02 -7.08582e-02        00000 
-1.85447e-02 -7.08172e-02        00000 
-1.48962e-02 -7.07286e-02        00000 
-1.08486e-02 -7.05780e-02        00000 
-6.56816e-03 -7.04135e-02        00000 
-2.19640e-03 -7.03087e-02        00000 
-3.92865e-02 -7.55500e-02        00000 
-3.60236e-02 -7.51833e-02        00000 
-3.20401e-02 -7.51031e-02        00000 
-2.83238e-02 -7.50453e-02        00000 
-2.49534e-02 -7.50537e-02        00000 
-2.17553e-02 -7.51114e-02        00000 
-1.84605e-02 -7.51625e-02        00000 
-1.48535e-02 -7.51585e-02        00000 
-1.08832e-02 -7.50955e-02        00000 
-6.63112e-03 -7.50110e-02        00000 
-2.22014e-03 -7.49456e-02        00000 
-1.02153e-02 -4.96739e-02        00000 
-1.06208e-02 -5.54099e-02        00000 
-1.50906e-02 -6.12778e-02        00000 
-1.86681e-02 -6.66117e-02        00000 
-2.78772e-02 -5.89417e-02        00000 
-2.65042e-02 -6.33425e-02        00000 
-2.44956e-02 -6.71508e-02        00000 
-2.17493e-02 -6.70578e-02        00000 
-2.59631e-02 -5.35018e-02        00000 
-1.45427e-02 -3.63914e-02        00000 
-1.31027e-02 -3.61355e-02        00000 
-1.58194e-02 -3.76915e-02        00000 
-1.66847e-02 -3.89931e-02        00000 
-1.64112e-02 -3.84361e-02        00000 
-1.48743e-02 -3.66296e-02        00000 
-1.41970e-02 -3.61353e-02        00000 
-1.22930e-02 -3.69711e-02        00000 
-1.34028e-02 -3.59892e-02        00000 
-1.28824e-02 -3.62594e-02        00000 
-1.19096e-02 -3.79066e-02        00000 
-1.20136e-02 -3.75085e-02        00000 
-2.02039e-02 -4.41371e-02        00000 
-2.13844e-02 -4.64979e-02        00000 
-2.05951e-02 -4.48153e-02        00000 