<?xml version="1.0" encoding="utf-8"?>
<VTKFile byte_order="LittleEndian" type="UnstructuredGrid" version="0.1">
   <UnstructuredGrid>
      <Piece NumberOfCells="1444" NumberOfPoints="761">
         <Points>
            <DataArray Name="Points" NumberOfComponents="3" format="ascii" type="Float32">
-1.0000 -1.0000 0.0000
-1.0000 -0.8947 0.0000
-1.0000 -0.7895 0.0000
-1.0000 -0.6842 0.0000
-1.0000 -0.5789 0.0000
-1.0000 -0.4737 0.0000
-1.0000 -0.3684 0.0000
-1.0000 -0.2632 0.0000
-1.0000 -0.1579 0.0000
-1.0000 -0.0526 0.0000
-1.0000 0.0526 0.0000
-1.0000 0.1579 0.0000
-1.0000 0.2632 0.0000
-1.0000 0.3684 0.0000
-1.0000 0.4737 0.0000
-1.0000 0.5789 0.0000
-1.0000 0.6842 0.0000
-1.0000 0.7895 0.0000
-1.0000 0.8947 0.0000
-1.0000 1.0000 0.0000
-0.8947 -1.0000 0.0000
-0.8947 -0.8947 0.0000
-0.8947 -0.7895 0.0000
-0.8947 -0.6842 0.0000
-0.8947 -0.5789 0.0000
-0.8947 -0.4737 0.0000
-0.8947 -0.3684 0.0000
-0.8947 -0.2632 0.0000
-0.8947 -0.1579 0.0000
-0.8947 -0.0526 0.0000
-0.8947 0.0526 0.0000
-0.8947 0.1579 0.0000
-0.8947 0.2632 0.0000
-0.8947 0.3684 0.0000
-0.8947 0.4737 0.0000
-0.8947 0.5789 0.0000
-0.8947 0.6842 0.0000
-0.8947 0.7895 0.0000
-0.8947 0.8947 0.0000
-0.8947 1.0000 0.0000
-0.7895 -1.0000 0.0000
-0.7895 -0.8947 0.0000
-0.7895 -0.7895 0.0000
-0.7895 -0.6842 0.0000
-0.7895 -0.5789 0.0000
-0.7895 -0.4737 0.0000
-0.7895 -0.3684 0.0000
-0.7895 -0.2632 0.0000
-0.7895 -0.1579 0.0000
-0.7895 -0.0526 0.0000
-0.7895 0.0526 0.0000
-0.7895 0.1579 0.0000
-0.7895 0.2632 0.0000
-0.7895 0.3684 0.0000
-0.7895 0.4737 0.0000
-0.7895 0.5789 0.0000
-0.7895 0.6842 0.0000
-0.7895 0.7895 0.0000
-0.7895 0.8947 0.0000
-0.7895 1.0000 0.0000
-0.6842 -1.0000 0.0000
-0.6842 -0.8947 0.0000
-0.6842 -0.7895 0.0000
-0.6842 -0.6842 0.0000
-0.6842 -0.5789 0.0000
-0.6842 -0.4737 0.0000
-0.6842 -0.3684 0.0000
-0.6842 -0.2632 0.0000
-0.6842 -0.1579 0.0000
-0.6842 -0.0526 0.0000
-0.6842 0.0526 0.0000
-0.6842 0.1579 0.0000
-0.6842 0.2632 0.0000
-0.6842 0.3684 0.0000
-0.6842 0.4737 0.0000
-0.6842 0.5789 0.0000
-0.6842 0.6842 0.0000
-0.6842 0.7895 0.0000
-0.6842 0.8947 0.0000
-0.6842 1.0000 0.0000
-0.5789 -1.0000 0.0000
-0.5789 -0.8947 0.0000
-0.5789 -0.7895 0.0000
-0.5789 -0.6842 0.0000
-0.5789 -0.5789 0.0000
-0.5789 -0.4737 0.0000
-0.5789 -0.3684 0.0000
-0.5789 -0.2632 0.0000
-0.5789 -0.1579 0.0000
-0.5789 -0.0526 0.0000
-0.5789 0.0526 0.0000
-0.5789 0.1579 0.0000
-0.5789 0.2632 0.0000
-0.5789 0.3684 0.0000
-0.5789 0.4737 0.0000
-0.5789 0.5789 0.0000
-0.5789 0.6842 0.0000
-0.5789 0.7895 0.0000
-0.5789 0.8947 0.0000
-0.5789 1.0000 0.0000
-0.4737 -1.0000 0.0000
-0.4737 -0.8947 0.0000
-0.4737 -0.7895 0.0000
-0.4737 -0.6842 0.0000
-0.4737 -0.5789 0.0000
-0.4737 -0.4737 0.0000
-0.4737 -0.3684 0.0000
-0.4737 -0.2632 0.0000
-0.4737 -0.1579 0.0000
-0.4737 -0.0526 0.0000
-0.4737 0.0526 0.0000
-0.4737 0.1579 0.0000
-0.4737 0.2632 0.0000
-0.4737 0.3684 0.0000
-0.4737 0.4737 0.0000
-0.4737 0.5789 0.0000
-0.4737 0.6842 0.0000
-0.4737 0.7895 0.0000
-0.4737 0.8947 0.0000
-0.4737 1.0000 0.0000
-0.3684 -1.0000 0.0000
-0.3684 -0.8947 0.0000
-0.3684 -0.7895 0.0000
-0.3684 -0.6842 0.0000
-0.3684 -0.5789 0.0000
-0.3684 -0.4737 0.0000
-0.3684 -0.3684 0.0000
-0.3684 -0.2632 0.0000
-0.3684 -0.1579 0.0000
-0.3684 -0.0526 0.0000
-0.3684 0.0526 0.0000
-0.3684 0.1579 0.0000
-0.3684 0.2632 0.0000
-0.3684 0.3684 0.0000
-0.3684 0.4737 0.0000
-0.3684 0.5789 0.0000
-0.3684 0.6842 0.0000
-0.3684 0.7895 0.0000
-0.3684 0.8947 0.0000
-0.3684 1.0000 0.0000
-0.2632 -1.0000 0.0000
-0.2632 -0.8947 0.0000
-0.2632 -0.7895 0.0000
-0.2632 -0.6842 0.0000
-0.2632 -0.5789 0.0000
-0.2632 -0.4737 0.0000
-0.2632 -0.3684 0.0000
-0.2632 -0.2632 0.0000
-0.2632 -0.1579 0.0000
-0.2632 -0.0526 0.0000
-0.2632 0.0526 0.0000
-0.2632 0.1579 0.0000
-0.2632 0.2632 0.0000
-0.2632 0.3684 0.0000
-0.2632 0.4737 0.0000
-0.2632 0.5789 0.0000
-0.2632 0.6842 0.0000
-0.2632 0.7895 0.0000
-0.2632 0.8947 0.0000
-0.2632 1.0000 0.0000
-0.1579 -1.0000 0.0000
-0.1579 -0.8947 0.0000
-0.1579 -0.7895 0.0000
-0.1579 -0.6842 0.0000
-0.1579 -0.5789 0.0000
-0.1579 -0.4737 0.0000
-0.1579 -0.3684 0.0000
-0.1579 -0.2632 0.0000
-0.1579 -0.1579 0.0000
-0.1579 -0.0526 0.0000
-0.1579 0.0526 0.0000
-0.1579 0.1579 0.0000
-0.1579 0.2632 0.0000
-0.1579 0.3684 0.0000
-0.1579 0.4737 0.0000
-0.1579 0.5789 0.0000
-0.1579 0.6842 0.0000
-0.1579 0.7895 0.0000
-0.1579 0.8947 0.0000
-0.1579 1.0000 0.0000
-0.0526 -1.0000 0.0000
-0.0526 -0.8947 0.0000
-0.0526 -0.7895 0.0000
-0.0526 -0.6842 0.0000
-0.0526 -0.5789 0.0000
-0.0526 -0.4737 0.0000
-0.0526 -0.3684 0.0000
-0.0526 -0.2632 0.0000
-0.0526 -0.1579 0.0000
-0.0526 -0.0526 0.0000
-0.0526 0.0526 0.0000
-0.0526 0.1579 0.0000
-0.0526 0.2632 0.0000
-0.0526 0.3684 0.0000
-0.0526 0.4737 0.0000
-0.0526 0.5789 0.0000
-0.0526 0.6842 0.0000
-0.0526 0.7895 0.0000
-0.0526 0.8947 0.0000
-0.0526 1.0000 0.0000
0.0526 -1.0000 0.0000
0.0526 -0.8947 0.0000
0.0526 -0.7895 0.0000
0.0526 -0.6842 0.0000
0.0526 -0.5789 0.0000
0.0526 -0.4737 0.0000
0.0526 -0.3684 0.0000
0.0526 -0.2632 0.0000
0.0526 -0.1579 0.0000
0.0526 -0.0526 0.0000
0.0526 0.0526 0.0000
0.0526 0.1579 0.0000
0.0526 0.2632 0.0000
0.0526 0.3684 0.0000
0.0526 0.4737 0.0000
0.0526 0.5789 0.0000
0.0526 0.6842 0.0000
0.0526 0.7895 0.0000
0.0526 0.8947 0.0000
0.0526 1.0000 0.0000
0.1579 -1.0000 0.0000
0.1579 -0.8947 0.0000
0.1579 -0.7895 0.0000
0.1579 -0.6842 0.0000
0.1579 -0.5789 0.0000
0.1579 -0.4737 0.0000
0.1579 -0.3684 0.0000
0.1579 -0.2632 0.0000
0.1579 -0.1579 0.0000
0.1579 -0.0526 0.0000
0.1579 0.0526 0.0000
0.1579 0.1579 0.0000
0.1579 0.2632 0.0000
0.1579 0.3684 0.0000
0.1579 0.4737 0.0000
0.1579 0.5789 0.0000
0.1579 0.6842 0.0000
0.1579 0.7895 0.0000
0.1579 0.8947 0.0000
0.1579 1.0000 0.0000
0.2632 -1.0000 0.0000
0.2632 -0.8947 0.0000
0.2632 -0.7895 0.0000
0.2632 -0.6842 0.0000
0.2632 -0.5789 0.0000
0.2632 -0.4737 0.0000
0.2632 -0.3684 0.0000
0.2632 -0.2632 0.0000
0.2632 -0.1579 0.0000
0.2632 -0.0526 0.0000
0.2632 0.0526 0.0000
0.2632 0.1579 0.0000
0.2632 0.2632 0.0000
0.2632 0.3684 0.0000
0.2632 0.4737 0.0000
0.2632 0.5789 0.0000
0.2632 0.6842 0.0000
0.2632 0.7895 0.0000
0.2632 0.8947 0.0000
0.2632 1.0000 0.0000
0.3684 -1.0000 0.0000
0.3684 -0.8947 0.0000
0.3684 -0.7895 0.0000
0.3684 -0.6842 0.0000
0.3684 -0.5789 0.0000
0.3684 -0.4737 0.0000
0.3684 -0.3684 0.0000
0.3684 -0.2632 0.0000
0.3684 -0.1579 0.0000
0.3684 -0.0526 0.0000
0.3684 0.0526 0.0000
0.3684 0.1579 0.0000
0.3684 0.2632 0.0000
0.3684 0.3684 0.0000
0.3684 0.4737 0.0000
0.3684 0.5789 0.0000
0.3684 0.6842 0.0000
0.3684 0.7895 0.0000
0.3684 0.8947 0.0000
0.3684 1.0000 0.0000
0.4737 -1.0000 0.0000
0.4737 -0.8947 0.0000
0.4737 -0.7895 0.0000
0.4737 -0.6842 0.0000
0.4737 -0.5789 0.0000
0.4737 -0.4737 0.0000
0.4737 -0.3684 0.0000
0.4737 -0.2632 0.0000
0.4737 -0.1579 0.0000
0.4737 -0.0526 0.0000
0.4737 0.0526 0.0000
0.4737 0.1579 0.0000
0.4737 0.2632 0.0000
0.4737 0.3684 0.0000
0.4737 0.4737 0.0000
0.4737 0.5789 0.0000
0.4737 0.6842 0.0000
0.4737 0.7895 0.0000
0.4737 0.8947 0.0000
0.4737 1.0000 0.0000
0.5789 -1.0000 0.0000
0.5789 -0.8947 0.0000
0.5789 -0.7895 0.0000
0.5789 -0.6842 0.0000
0.5789 -0.5789 0.0000
0.5789 -0.4737 0.0000
0.5789 -0.3684 0.0000
0.5789 -0.2632 0.0000
0.5789 -0.1579 0.0000
0.5789 -0.0526 0.0000
0.5789 0.0526 0.0000
0.5789 0.1579 0.0000
0.5789 0.2632 0.0000
0.5789 0.3684 0.0000
0.5789 0.4737 0.0000
0.5789 0.5789 0.0000
0.5789 0.6842 0.0000
0.5789 0.7895 0.0000
0.5789 0.8947 0.0000
0.5789 1.0000 0.0000
0.6842 -1.0000 0.0000
0.6842 -0.8947 0.0000
0.6842 -0.7895 0.0000
0.6842 -0.6842 0.0000
0.6842 -0.5789 0.0000
0.6842 -0.4737 0.0000
0.6842 -0.3684 0.0000
0.6842 -0.2632 0.0000
0.6842 -0.1579 0.0000
0.6842 -0.0526 0.0000
0.6842 0.0526 0.0000
0.6842 0.1579 0.0000
0.6842 0.2632 0.0000
0.6842 0.3684 0.0000
0.6842 0.4737 0.0000
0.6842 0.5789 0.0000
0.6842 0.6842 0.0000
0.6842 0.7895 0.0000
0.6842 0.8947 0.0000
0.6842 1.0000 0.0000
0.7895 -1.0000 0.0000
0.7895 -0.8947 0.0000
0.7895 -0.7895 0.0000
0.7895 -0.6842 0.0000
0.7895 -0.5789 0.0000
0.7895 -0.4737 0.0000
0.7895 -0.3684 0.0000
0.7895 -0.2632 0.0000
0.7895 -0.1579 0.0000
0.7895 -0.0526 0.0000
0.7895 0.0526 0.0000
0.7895 0.1579 0.0000
0.7895 0.2632 0.0000
0.7895 0.3684 0.0000
0.7895 0.4737 0.0000
0.7895 0.5789 0.0000
0.7895 0.6842 0.0000
0.7895 0.7895 0.0000
0.7895 0.8947 0.0000
0.7895 1.0000 0.0000
0.8947 -1.0000 0.0000
0.8947 -0.8947 0.0000
0.8947 -0.7895 0.0000
0.8947 -0.6842 0.0000
0.8947 -0.5789 0.0000
0.8947 -0.4737 0.0000
0.8947 -0.3684 0.0000
0.8947 -0.2632 0.0000
0.8947 -0.1579 0.0000
0.8947 -0.0526 0.0000
0.8947 0.0526 0.0000
0.8947 0.1579 0.0000
0.8947 0.2632 0.0000
0.8947 0.3684 0.0000
0.8947 0.4737 0.0000
0.8947 0.5789 0.0000
0.8947 0.6842 0.0000
0.8947 0.7895 0.0000
0.8947 0.8947 0.0000
0.8947 1.0000 0.0000
1.0000 -1.0000 0.0000
1.0000 -0.8947 0.0000
1.0000 -0.7895 0.0000
1.0000 -0.6842 0.0000
1.0000 -0.5789 0.0000
1.0000 -0.4737 0.0000
1.0000 -0.3684 0.0000
1.0000 -0.2632 0.0000
1.0000 -0.1579 0.0000
1.0000 -0.0526 0.0000
1.0000 0.0526 0.0000
1.0000 0.1579 0.0000
1.0000 0.2632 0.0000
1.0000 0.3684 0.0000
1.0000 0.4737 0.0000
1.0000 0.5789 0.0000
1.0000 0.6842 0.0000
1.0000 0.7895 0.0000
1.0000 0.8947 0.0000
1.0000 1.0000 0.0000
-0.9474 -0.9474 0.0000
-0.9474 -0.8421 0.0000
-0.9474 -0.7368 0.0000
-0.9474 -0.6316 0.0000
-0.9474 -0.5263 0.0000
-0.9474 -0.4211 0.0000
-0.9474 -0.3158 0.0000
-0.9474 -0.2105 0.0000
-0.9474 -0.1053 0.0000
-0.9474 0.0000 0.0000
-0.9474 0.1053 0.0000
-0.9474 0.2105 0.0000
-0.9474 0.3158 0.0000
-0.9474 0.4211 0.0000
-0.9474 0.5263 0.0000
-0.9474 0.6316 0.0000
-0.9474 0.7368 0.0000
-0.9474 0.8421 0.0000
-0.9474 0.9474 0.0000
-0.8421 -0.9474 0.0000
-0.8421 -0.8421 0.0000
-0.8421 -0.7368 0.0000
-0.8421 -0.6316 0.0000
-0.8421 -0.5263 0.0000
-0.8421 -0.4211 0.0000
-0.8421 -0.3158 0.0000
-0.8421 -0.2105 0.0000
-0.8421 -0.1053 0.0000
-0.8421 0.0000 0.0000
-0.8421 0.1053 0.0000
-0.8421 0.2105 0.0000
-0.8421 0.3158 0.0000
-0.8421 0.4211 0.0000
-0.8421 0.5263 0.0000
-0.8421 0.6316 0.0000
-0.8421 0.7368 0.0000
-0.8421 0.8421 0.0000
-0.8421 0.9474 0.0000
-0.7368 -0.9474 0.0000
-0.7368 -0.8421 0.0000
[...]
         <PointData>
            <DataArray Name="fValues" NumberOfComponents="3" format="ascii" type="Float64">
-9.77968e-05  1.00017e+00        00000 
-8.33221e-05  9.47518e-01        00000 
-6.88474e-05  8.94870e-01        00000 
-5.43727e-05  8.42221e-01        00000 
-3.98979e-05  7.89572e-01        00000 
-2.54232e-05  7.36924e-01        00000 
-1.09485e-05  6.84275e-01        00000 
 3.52621e-06  6.31626e-01        00000 
 1.80009e-05  5.78977e-01        00000 
 3.24756e-05  5.26329e-01        00000 
 4.69504e-05  4.73680e-01        00000 
 6.14251e-05  4.21031e-01        00000 
 7.58998e-05  3.68383e-01        00000 
 9.03745e-05  3.15734e-01        00000 
 1.04849e-04  2.63085e-01        00000 
 1.19324e-04  2.10437e-01        00000 
 1.33799e-04  1.57788e-01        00000 
 1.48273e-04  1.05139e-01        00000 
 1.62748e-04  5.24906e-02        00000 
 1.77223e-04 -1.58137e-04        00000 
-8.75024e-05  9.47522e-01        00000 
 8.64131e-03  9.03102e-01        00000 
 1.28786e-02  8.55133e-01        00000 
 1.56694e-02  8.05577e-01        00000 
 1.74515e-02  7.55030e-01        00000 
 1.83493e-02  7.03797e-01        00000 
 1.83764e-02  6.52155e-01        00000 
 1.74019e-02  6.00608e-01        00000 
 1.60053e-02  5.49095e-01        00000 
 1.44115e-02  4.98256e-01        00000 
 1.30918e-02  4.48490e-01        00000 
 1.19908e-02  3.98378e-01        00000 
 1.17827e-02  3.48591e-01        00000 
 1.19896e-02  2.98582e-01        00000 
 1.18671e-02  2.48036e-01        00000 
 1.16680e-02  1.97353e-01        00000 
 1.09148e-02  1.46588e-01        00000 
 9.27827e-03  9.61683e-02        00000 
 6.39319e-03  4.67378e-02        00000 
 1.58568e-04 -1.45671e-04        00000 
-7.72080e-05  8.94878e-01        00000 
 1.43258e-02  8.54986e-01        00000 
 2.35064e-02  8.12104e-01        00000 
 2.96070e-02  7.66733e-01        00000 
 3.37175e-02  7.19507e-01        00000 
 3.58394e-02  6.70829e-01        00000 
 3.60964e-02  6.21837e-01        00000 
 3.42330e-02  5.72021e-01        00000 
 3.12257e-02  5.20335e-01        00000 
 2.68694e-02  4.71692e-01        00000 
 2.36501e-02  4.24316e-01        00000 
 2.20940e-02  3.77428e-01        00000 
 2.16781e-02  3.29892e-01        00000 
 2.29565e-02  2.82718e-01        00000 
 2.22271e-02  2.33669e-01        00000 
 2.20602e-02  1.85155e-01        00000 
 2.04287e-02  1.36867e-01        00000 
 1.68822e-02  8.94121e-02        00000 
 1.05821e-02  4.35440e-02        00000 
 1.39913e-04 -1.33206e-04        00000 
-6.69136e-05  8.42233e-01        00000 
 1.85983e-02  8.06376e-01        00000 
 3.18909e-02  7.68035e-01        00000 
 4.14272e-02  7.27274e-01        00000 
 4.82926e-02  6.84238e-01        00000 
 5.15923e-02  6.40793e-01        00000 
 5.41695e-02  5.89345e-01        00000 
 5.07422e-02  5.42520e-01        00000 
 4.49459e-02  4.96607e-01        00000 
 3.86386e-02  4.49361e-01        00000 
 3.31993e-02  4.02115e-01        00000 
 2.99619e-02  3.56813e-01        00000 
 2.97517e-02  3.11758e-01        00000 
 3.23575e-02  2.68098e-01        00000 
 3.08039e-02  2.17605e-01        00000 
 3.10850e-02  1.72870e-01        00000 
 2.86654e-02  1.27667e-01        00000 
 2.31400e-02  8.33787e-02        00000 
 1.39573e-02  4.06497e-02        00000 
 1.21258e-04 -1.20740e-04        00000 
-5.66192e-05  7.89589e-01        00000 
 2.17246e-02  7.57731e-01        00000 
 3.82746e-02  7.24073e-01        00000 
 5.08070e-02  6.88476e-01        00000 
 6.04236e-02  6.49248e-01        00000 
 6.76896e-02  6.07713e-01        00000 
 6.99050e-02  5.67548e-01        00000 
 6.62876e-02  5.23699e-01        00000 
 5.92539e-02  4.74573e-01        00000 
 4.87528e-02  4.25658e-01        00000 
 4.01041e-02  3.81879e-01        00000 
 3.63018e-02  3.36207e-01        00000 
 3.61770e-02  2.91264e-01        00000 
 3.88292e-02  2.47321e-01        00000 
 4.02243e-02  2.05571e-01        00000 
 3.92725e-02  1.61506e-01        00000 
 3.57884e-02  1.18272e-01        00000 
 2.84304e-02  7.71761e-02        00000 
 1.68340e-02  3.76639e-02        00000 
 1.02603e-04 -1.08274e-04        00000 
-4.63248e-05  7.36944e-01        00000 
 2.36035e-02  7.09083e-01        00000 
 4.24950e-02  6.80283e-01        00000 
 5.78370e-02  6.50762e-01        00000 
 7.04356e-02  6.17572e-01        00000 
 8.05779e-02  5.85625e-01        00000 
 8.52668e-02  5.46555e-01        00000 
 8.48225e-02  4.98114e-01        00000 
 7.42305e-02  4.47565e-01        00000 
 5.67629e-02  4.02631e-01        00000 
 4.33604e-02  3.58274e-01        00000 
 4.00070e-02  3.19871e-01        00000 
 4.22626e-02  2.73924e-01        00000 
 4.55320e-02  2.27830e-01        00000 
 4.69086e-02  1.85110e-01        00000 
 4.67799e-02  1.47087e-01        00000 
 4.17063e-02  1.07128e-01        00000 
 3.27773e-02  7.02260e-02        00000 
 1.92161e-02  3.43508e-02        00000 
 8.39476e-05 -9.58086e-05        00000 
-3.60304e-05  6.84300e-01        00000 
 2.41754e-02  6.60168e-01        00000 
 4.43800e-02  6.35928e-01        00000 
 6.13297e-02  6.10819e-01        00000 
 7.71729e-02  5.87683e-01        00000 
 9.06900e-02  5.59997e-01        00000 
 1.00889e-01  5.23598e-01        00000 
 1.03707e-01  4.89591e-01        00000 
 9.02079e-02  4.57391e-01        00000 
 6.95567e-02  4.08276e-01        00000 
 5.16387e-02  3.50205e-01        00000 
 4.38403e-02  2.90128e-01        00000 
 4.72588e-02  2.48549e-01        00000 
 5.36052e-02  2.08440e-01        00000 
 5.32113e-02  1.64331e-01        00000 
 5.17752e-02  1.28075e-01        00000 
 4.62042e-02  9.59381e-02        00000 
 3.58304e-02  6.18463e-02        00000 
 2.09221e-02  3.06100e-02        00000 
 6.52926e-05 -8.33429e-05        00000 
-2.57360e-05  6.31655e-01        00000 
 2.34161e-02  6.10854e-01        00000 
 4.37726e-02  5.91374e-01        00000 
 6.06653e-02  5.71868e-01        00000 
 8.00485e-02  5.55082e-01        00000 
 9.45307e-02  5.33953e-01        00000 
 1.10949e-01  5.17565e-01        00000 
 1.17250e-01  5.06103e-01        00000 
 1.02239e-01  4.79811e-01        00000 
 8.52066e-02  4.09499e-01        00000 
 5.55019e-02  2.99553e-01        00000 
 4.81442e-02  2.43603e-01        00000 
 4.61830e-02  1.96743e-01        00000 
 5.73285e-02  1.70729e-01        00000 
 5.90056e-02  1.40504e-01        00000 
 5.44341e-02  1.06979e-01        00000 
 4.87111e-02  8.08459e-02        00000 
 3.73089e-02  5.29152e-02        00000 
 2.17121e-02  2.65355e-02        00000 
 4.66376e-05 -7.08772e-05        00000 
-1.54416e-05  5.79011e-01        00000 
 2.15804e-02  5.60639e-01        00000 
 4.01448e-02  5.43299e-01        00000 
 5.86612e-02  5.29180e-01        00000 
 7.62262e-02  5.16063e-01        00000 
 9.01643e-02  5.04153e-01        00000 
 1.15622e-01  5.06644e-01        00000 
 1.27549e-01  4.99223e-01        00000 
 1.09362e-01  4.45645e-01        00000 
 9.28963e-02  3.67550e-01        00000 
 7.07838e-02  2.80838e-01        00000 
 4.23928e-02  1.90636e-01        00000 
 3.70575e-02  1.33938e-01        00000 
 5.13719e-02  1.18658e-01        00000 
 5.91309e-02  1.09497e-01        00000 
 5.46819e-02  8.60373e-02        00000 
 4.79906e-02  6.50397e-02        00000 
 3.72366e-02  4.49805e-02        00000 
 2.13884e-02  2.23518e-02        00000 
 2.79825e-05 -5.84115e-05        00000 
-5.14720e-06  5.26366e-01        00000 
 1.92651e-02  5.09289e-01        00000 
 3.57869e-02  4.93042e-01        00000 
 5.40044e-02  4.80853e-01        00000 
 6.89249e-02  4.69800e-01        00000 
 7.97995e-02  4.60840e-01        00000 
 1.15635e-01  4.68061e-01        00000 
 1.38901e-01  4.64860e-01        00000 
 1.18468e-01  3.90969e-01        00000 
 9.01932e-02  3.06028e-01        00000 
 7.17017e-02  2.38387e-01        00000 
 4.00205e-02  1.54216e-01        00000 
 2.85017e-02  9.45572e-02        00000 
 4.11475e-02  7.62702e-02        00000 
 5.30929e-02  7.90970e-02        00000 
 5.04059e-02  6.52463e-02        00000 
 4.44792e-02  5.10836e-02        00000 
 3.50307e-02  3.66309e-02        00000 
 1.99929e-02  1.84761e-02        00000 
 9.32752e-06 -4.59458e-05        00000 
 5.14720e-06  4.73722e-01        00000 
 1.70895e-02  4.56974e-01        00000 
 3.19492e-02  4.40656e-01        00000 
 4.84906e-02  4.28014e-01        00000 
 6.18815e-02  4.15478e-01        00000 
 7.05358e-02  4.02181e-01        00000 
 1.07008e-01  4.03739e-01        00000 
 1.33092e-01  3.87994e-01        00000 
 1.19271e-01  3.36128e-01        00000 
 8.44306e-02  2.60003e-01        00000 
 6.64102e-02  1.97613e-01        00000 
 4.16443e-02  1.20342e-01        00000 
 2.35424e-02  5.57598e-02        00000 
 3.26434e-02  5.17705e-02        00000 
 4.36017e-02  5.79031e-02        00000 
 4.32983e-02  4.94869e-02        00000 
 3.89372e-02  4.00441e-02        00000 
 3.11780e-02  2.96549e-02        00000 
 1.77708e-02  1.52569e-02        00000 
-9.32752e-06 -3.34802e-05        00000 
 1.54416e-05  4.21077e-01        00000 
 1.54843e-02  4.04132e-01        00000 
 2.94479e-02  3.87149e-01        00000 
 4.35856e-02  3.72782e-01        00000 
 5.70412e-02  3.57548e-01        00000 
 6.62012e-02  3.38508e-01        00000 
 9.13858e-02  3.29185e-01        00000 
 1.13879e-01  3.16770e-01        00000 
 1.02325e-01  2.72938e-01        00000 
 7.26869e-02  2.06480e-01        00000 
 5.44225e-02  1.43624e-01        00000 
 3.78748e-02  8.79553e-02        00000 
 2.38392e-02  4.99576e-02        00000 
 2.71557e-02  4.54323e-02        00000 
 3.49669e-02  4.78212e-02        00000 
 3.53723e-02  4.03555e-02        00000 
 3.29146e-02  3.29396e-02        00000 
 2.64338e-02  2.45320e-02        00000 
 1.51798e-02  1.28781e-02        00000 
-2.79825e-05 -2.10145e-05        00000 
 2.57360e-05  3.68433e-01        00000 
 1.45253e-02  3.51310e-01        00000 
 2.84996e-02  3.34801e-01        00000 
 3.97014e-02  3.17473e-01        00000 
 5.45541e-02  3.01918e-01        00000 
 6.43613e-02  2.80564e-01        00000 
 7.88672e-02  2.59937e-01        00000 
 9.37669e-02  2.40783e-01        00000 
 8.27490e-02  2.06469e-01        00000 
 6.39289e-02  1.66309e-01        00000 
 4.35829e-02  1.07284e-01        00000 
 2.86861e-02  7.03636e-02        00000 
 2.27853e-02  5.62487e-02        00000 
 2.54417e-02  5.16115e-02        00000 
 2.85374e-02  4.49953e-02        00000 
 2.87862e-02  3.60660e-02        00000 
 2.77153e-02  2.97518e-02        00000 
 2.18074e-02  2.08172e-02        00000 
 1.26664e-02  1.12924e-02        00000 
-4.66376e-05 -8.54877e-06        00000 
 3.60304e-05  3.15788e-01        00000 
 1.40077e-02  2.98936e-01        00000 
 2.72239e-02  2.82630e-01        00000 
 3.81495e-02  2.65156e-01        00000 
 5.03140e-02  2.48797e-01        00000 
 6.23601e-02  2.31313e-01        00000 
 7.26057e-02  2.10861e-01        00000 
 8.29415e-02  1.92311e-01        00000 
 7.76760e-02  1.68404e-01        00000 
 6.18618e-02  1.35302e-01        00000 
 4.39462e-02  1.06116e-01        00000 
 3.13971e-02  8.34125e-02        00000 
 2.64138e-02  6.94599e-02        00000 
 2.54193e-02  5.69826e-02        00000 
 2.45852e-02  4.43566e-02        00000 
 2.46762e-02  3.54611e-02        00000 
 2.32856e-02  2.82002e-02        00000 
 1.83044e-02  1.93964e-02        00000 
 1.05477e-02  1.02637e-02        00000 
-6.52926e-05  3.91692e-06        00000 
 4.63248e-05  2.63144e-01        00000 
 1.35854e-02  2.47093e-01        00000 
 2.55429e-02  2.31348e-01        00000 
 3.60540e-02  2.15860e-01        00000 
 4.60286e-02  2.00174e-01        00000 
 5.65410e-02  1.85478e-01        00000 
 6.41975e-02  1.70068e-01        00000 
 7.16978e-02  1.56659e-01        00000 
 7.20717e-02  1.42850e-01        00000 
 6.36410e-02  1.28262e-01        00000 
 5.01282e-02  1.08845e-01        00000 
 3.75783e-02  8.94626e-02        00000 
 2.90132e-02  7.10693e-02        00000 
 2.43096e-02  5.55137e-02        00000 
 2.25445e-02  4.38068e-02        00000 
 2.21365e-02  3.51158e-02        00000 
 1.95785e-02  2.62212e-02        00000 
 1.55297e-02  1.81520e-02        00000 
 8.92344e-03  9.47416e-03        00000 
-8.39476e-05  1.63826e-05        00000 
 5.66192e-05  2.10499e-01        00000 
 1.28888e-02  1.95953e-01        00000 
 2.34820e-02  1.82068e-01        00000 
 3.24332e-02  1.68810e-01        00000 
 4.11208e-02  1.56455e-01        00000 
 4.91908e-02  1.44909e-01        00000 
 5.47634e-02  1.33493e-01        00000 
 5.77819e-02  1.21885e-01        00000 
 5.78818e-02  1.12388e-01        00000 
 5.26828e-02  1.01859e-01        00000 
 4.39949e-02  9.01993e-02        00000 
 3.48205e-02  7.65515e-02        00000 
 2.74849e-02  6.29686e-02        00000 
 2.33784e-02  5.15237e-02        00000 
 2.13216e-02  4.18129e-02        00000 
 1.96118e-02  3.28141e-02        00000 
 1.69976e-02  2.44346e-02        00000 
 1.33062e-02  1.66616e-02        00000 
 7.68288e-03  8.64143e-03        00000 
-1.02603e-04  2.88483e-05        00000 
 6.69136e-05  1.57855e-01        00000 
 1.15868e-02  1.45396e-01        00000 
 2.03018e-02  1.34065e-01        00000 
 2.74008e-02  1.23882e-01        00000 
 3.39331e-02  1.14826e-01        00000 
 3.94749e-02  1.06513e-01        00000 
 4.37119e-02  9.86501e-02        00000 
 4.60046e-02  9.27107e-02        00000 
 4.49166e-02  8.53211e-02        00000 
 4.13445e-02  7.81107e-02        00000 
 3.57710e-02  7.02002e-02        00000 
 2.97233e-02  6.16907e-02        00000 
 2.48634e-02  5.30815e-02        00000 
 2.13682e-02  4.41507e-02        00000 
 1.82210e-02  3.51795e-02        00000 
 1.63987e-02  2.79176e-02        00000 
 1.42416e-02  2.10935e-02        00000 
 1.11837e-02  1.44660e-02        00000 
 6.58180e-03  7.55436e-03        00000 
-1.21258e-04  4.13140e-05        00000 
 7.72080e-05  1.05210e-01        00000 
 9.45161e-03  9.53902e-02        00000 
 1.56354e-02  8.71628e-02        00000 
 2.03411e-02  8.02635e-02        00000 
 2.44231e-02  7.43055e-02        00000 
 2.78486e-02  6.91583e-02        00000 
 2.99682e-02  6.46319e-02        00000 
 3.13239e-02  6.08574e-02        00000 
 3.17832e-02  5.80573e-02        00000 
 2.97421e-02  5.44871e-02        00000 
 2.64120e-02  4.98853e-02        00000 
 2.24860e-02  4.41688e-02        00000 
 1.85273e-02  3.77332e-02        00000 
 1.59042e-02  3.18321e-02        00000 
 1.40505e-02  2.62401e-02        00000 
 1.24359e-02  2.09564e-02        00000 
 1.07778e-02  1.60638e-02        00000 
 8.61112e-03  1.12654e-02        00000 
 5.29327e-03  6.05352e-03        00000 
-1.39913e-04  5.37797e-05        00000 
 8.75024e-05  5.25658e-02        00000 
 6.06794e-03  4.61846e-02        00000 
 8.98885e-03  4.20022e-02        00000 
 1.12201e-02  3.86956e-02        00000 
 1.31042e-02  3.59613e-02        00000 
 1.46457e-02  3.37552e-02        00000 
 1.56467e-02  3.19351e-02        00000 
 1.62288e-02  3.04758e-02        00000 
 1.60603e-02  2.91491e-02        00000 
 1.51269e-02  2.76097e-02        00000 
 1.36880e-02  2.56646e-02        00000 
 1.20095e-02  2.32061e-02        00000 
 1.03944e-02  2.03455e-02        00000 
 9.02363e-03  1.73217e-02        00000 
 7.92614e-03  1.43669e-02        00000 
 7.00289e-03  1.16267e-02        00000 
 6.08642e-03  9.10659e-03        00000 
 4.96742e-03  6.66570e-03        00000 
 3.36025e-03  3.95882e-03        00000 
-1.58568e-04  6.62454e-05        00000 
 9.77968e-05 -7.87106e-05        00000 
 8.33221e-05 -7.04257e-05        00000 
 6.88474e-05 -6.21403e-05        00000 
 5.43727e-05 -5.38549e-05        00000 
 3.98979e-05 -4.55696e-05        00000 
 2.54232e-05 -3.72842e-05        00000 
 1.09485e-05 -2.89988e-05        00000 
-3.52621e-06 -2.07134e-05        00000 
-1.80009e-05 -1.24281e-05        00000 
-3.24756e-05 -4.14269e-06        00000 
-4.69504e-05  4.14269e-06        00000 
-6.14251e-05  1.24281e-05        00000 
-7.58998e-05  2.07134e-05        00000 
-9.03745e-05  2.89988e-05        00000 
-1.04849e-04  3.72842e-05        00000 
-1.19324e-04  4.55696e-05        00000 
-1.33799e-04  5.38549e-05        00000 
-1.48273e-04  6.21403e-05        00000 
-1.62748e-04  7.04257e-05        00000 
-1.77223e-04  7.87111e-05        00000 
 3.12167e-03  9.50667e-01        00000 
 5.92691e-03  9.00683e-01        00000 
 7.49275e-03  8.49797e-01        00000 
 8.51949e-03  7.98321e-01        00000 
 9.11077e-03  7.46441e-01        00000 
 9.29822e-03  6.94289e-01        00000 
 9.07555e-03  6.42053e-01        00000 
 8.50873e-03  5.89860e-01        00000 
 7.83963e-03  5.37986e-01        00000 
 7.20513e-03  4.86495e-01        00000 
 6.60243e-03  4.35205e-01        00000 
 6.34411e-03  3.84095e-01        00000 
 6.31025e-03  3.32837e-01        00000 
 6.27586e-03  2.81342e-01        00000 
 6.18543e-03  2.29701e-01        00000 
 5.94447e-03  1.77945e-01        00000 
 5.39742e-03  1.26214e-01        00000 
 4.39790e-03  7.47715e-02        00000 
 2.44359e-03  2.39500e-02        00000 
 6.26666e-03  9.00831e-01        00000 
 1.54739e-02  8.56949e-01        00000 
 2.09385e-02  8.10300e-01        00000 
 2.45265e-02  7.62003e-01        00000 
 2.66628e-02  7.12437e-01        00000 
 2.74332e-02  6.62064e-01        00000 
 2.67215e-02  6.11627e-01        00000 
 2.48476e-02  5.60877e-01        00000 
 2.23013e-02  5.09568e-01        00000 
 1.97787e-02  4.60366e-01        00000 
 1.80970e-02  4.12186e-01        00000 
 1.71319e-02  3.63038e-01        00000 
 1.71382e-02  3.14291e-01        00000 
 1.73777e-02  2.65529e-01        00000 
 1.72350e-02  2.16075e-01        00000 
 1.65776e-02  1.66381e-01        00000 
 1.47465e-02  1.17020e-01        00000 
 1.12292e-02  6.85386e-02        00000 
 4.71922e-03  2.19748e-02        00000 
 8.69930e-03  8.50151e-01        00000 
 2.26480e-02  8.10889e-01        00000 
 3.21842e-02  7.68966e-01        00000 
 3.87905e-02  7.24772e-01        00000 
 4.29456e-02  6.78743e-01        00000 
 4.40935e-02  6.31032e-01        00000 
 4.37516e-02  5.81671e-01        00000 
 4.08914e-02  5.31988e-01        00000 
 3.55995e-02  4.84234e-01        00000 
 3.06180e-02  4.36603e-01        00000 
 2.74175e-02  3.89947e-01        00000 
 2.61887e-02  3.44382e-01        00000 
 2.65478e-02  2.97125e-01        00000 
 2.76954e-02  2.52150e-01        00000 
 2.70044e-02  2.02533e-01        00000 
 2.59495e-02  1.55550e-01        00000 
 2.26749e-02  1.09084e-01        00000 
 1.65328e-02  6.38858e-02        00000 
 6.56348e-03  2.05607e-02        00000 
 1.05498e-02  7.99372e-01        00000 
 2.82075e-02  7.64461e-01        00000 
 4.12472e-02  7.27335e-01        00000 
 5.10442e-02  6.88278e-01        00000 
 5.70632e-02  6.45490e-01        00000 
 6.21109e-02  6.00593e-01        00000 
 6.05859e-02  5.55890e-01        00000 
 5.49942e-02  5.10392e-01        00000 
 4.77985e-02  4.60994e-01        00000 
 4.06321e-02  4.14482e-01        00000 
 3.50322e-02  3.69563e-01        00000 
 3.29691e-02  3.23142e-01        00000 
 3.42696e-02  2.79597e-01        00000 
 3.66719e-02  2.35552e-01        00000 
 3.53730e-02  1.89583e-01        00000 
 3.40871e-02  1.44501e-01        00000 
 2.94094e-02  1.01403e-01        00000 
 2.09925e-02  5.94154e-02        00000 
 8.12856e-03  1.91592e-02        00000 
 1.18058e-02  7.48570e-01        00000 
 3.21304e-02  7.18085e-01        00000 
 4.80146e-02  6.86077e-01        00000 
 6.04069e-02  6.51476e-01        00000 
 7.09430e-02  6.15364e-01        00000 
 7.62063e-02  5.78077e-01        00000 
 7.62270e-02  5.35583e-01        00000 
 7.10468e-02  4.85496e-01        00000 
 6.00697e-02  4.37018e-01        00000 
 4.69934e-02  3.91999e-01        00000 
 4.01843e-02  3.49146e-01        00000 
 3.85645e-02  3.05605e-01        00000 
 4.04191e-02  2.59325e-01        00000 
 4.27682e-02  2.15819e-01        00000 
 4.40422e-02  1.74947e-01        00000 
 4.12199e-02  1.33595e-01        00000 
 3.51516e-02  9.30861e-02        00000 
 2.47708e-02  5.46109e-02        00000 
 9.47486e-03  1.76526e-02        00000 
 1.23904e-02  6.97694e-01        00000 
 3.42118e-02  6.71548e-01        00000 