<?xml version="1.0" encoding="utf-8"?>
<VTKFile byte_order="LittleEndian" type="UnstructuredGrid" version="0.1">
   <UnstructuredGrid>
      <Piece NumberOfCells="31360" NumberOfPoints="34072">
         <Points>
            <DataArray Name="Points" NumberOfComponents="3" format="ascii" type="Float32">
0.2138 0.2138 0.0000
0.3261 0.3261 0.0000
0.4384 0.4384 0.0000
0.5508 0.5508 0.0000
0.6631 0.6631 0.0000
0.7754 0.7754 0.0000
0.8877 0.8877 0.0000
1.0000 1.0000 0.0000
0.1968 0.2296 0.0000
0.2911 0.3397 0.0000
0.3855 0.4497 0.0000
0.4798 0.5598 0.0000
0.5741 0.6698 0.0000
0.6685 0.7799 0.0000
0.7628 0.8899 0.0000
0.8571 1.0000 0.0000
0.1758 0.2461 0.0000
0.2527 0.3538 0.0000
0.3296 0.4615 0.0000
0.4066 0.5692 0.0000
0.4835 0.6769 0.0000
0.5604 0.7846 0.0000
0.6374 0.8923 0.0000
0.7143 1.0000 0.0000
0.1500 0.2626 0.0000
0.2102 0.3679 0.0000
0.2704 0.4733 0.0000
0.3306 0.5786 0.0000
0.3908 0.6840 0.0000
0.4510 0.7893 0.0000
0.5112 0.8947 0.0000
0.5714 1.0000 0.0000
0.1191 0.2779 0.0000
0.1633 0.3811 0.0000
0.2075 0.4842 0.0000
0.2517 0.5874 0.0000
0.2959 0.6905 0.0000
0.3402 0.7937 0.0000
0.3844 0.8968 0.0000
0.4286 1.0000 0.0000
0.0831 0.2908 0.0000
0.1120 0.3921 0.0000
0.1410 0.4934 0.0000
0.1699 0.5947 0.0000
0.1989 0.6960 0.0000
0.2278 0.7974 0.0000
0.2568 0.8987 0.0000
0.2857 1.0000 0.0000
0.0428 0.2994 0.0000
0.0571 0.3994 0.0000
0.0714 0.4995 0.0000
0.0857 0.5996 0.0000
0.1000 0.6997 0.0000
0.1143 0.7998 0.0000
0.1286 0.8999 0.0000
0.1429 1.0000 0.0000
0.0000 0.3024 0.0000
0.0000 0.4021 0.0000
0.0000 0.5017 0.0000
0.0000 0.6014 0.0000
0.0000 0.7010 0.0000
0.0000 0.8007 0.0000
0.0000 0.9003 0.0000
0.0000 1.0000 0.0000
-0.0428 0.2994 0.0000
-0.0571 0.3994 0.0000
-0.0714 0.4995 0.0000
-0.0857 0.5996 0.0000
-0.1000 0.6997 0.0000
-0.1143 0.7998 0.0000
-0.1286 0.8999 0.0000
-0.1429 1.0000 0.0000
-0.0831 0.2908 0.0000
-0.1120 0.3921 0.0000
-0.1410 0.4934 0.0000
-0.1699 0.5947 0.0000
-0.1989 0.6960 0.0000
-0.2278 0.7974 0.0000
-0.2568 0.8987 0.0000
-0.2857 1.0000 0.0000
-0.1191 0.2779 0.0000
-0.1633 0.3811 0.0000
-0.2075 0.4842 0.0000
-0.2517 0.5874 0.0000
-0.2959 0.6905 0.0000
-0.3402 0.7937 0.0000
-0.3844 0.8968 0.0000
-0.4286 1.0000 0.0000
-0.1500 0.2626 0.0000
-0.2102 0.3679 0.0000
-0.2704 0.4733 0.0000
-0.3306 0.5786 0.0000
-0.3908 0.6840 0.0000
-0.4510 0.7893 0.0000
-0.5112 0.8947 0.0000
-0.5714 1.0000 0.0000
-0.1758 0.2461 0.0000
-0.2527 0.3538 0.0000
-0.3296 0.4615 0.0000
-0.4066 0.5692 0.0000
-0.4835 0.6769 0.0000
-0.5604 0.7846 0.0000
-0.6374 0.8923 0.0000
-0.7143 1.0000 0.0000
-0.1968 0.2296 0.0000
-0.2911 0.3397 0.0000
-0.3855 0.4497 0.0000
-0.4798 0.5598 0.0000
-0.5741 0.6698 0.0000
-0.6685 0.7799 0.0000
-0.7628 0.8899 0.0000
-0.8571 1.0000 0.0000
-0.2138 0.2138 0.0000
-0.3261 0.3261 0.0000
-0.4384 0.4384 0.0000
-0.5508 0.5508 0.0000
-0.6631 0.6631 0.0000
-0.7754 0.7754 0.0000
-0.8877 0.8877 0.0000
-1.0000 1.0000 0.0000
-0.2296 0.1968 0.0000
-0.3397 0.2911 0.0000
-0.4497 0.3855 0.0000
-0.5598 0.4798 0.0000
-0.6698 0.5741 0.0000
-0.7799 0.6685 0.0000
-0.8899 0.7628 0.0000
-1.0000 0.8571 0.0000
-0.2461 0.1758 0.0000
-0.3538 0.2527 0.0000
-0.4615 0.3296 0.0000
-0.5692 0.4066 0.0000
-0.6769 0.4835 0.0000
-0.7846 0.5604 0.0000
-0.8923 0.6374 0.0000
-1.0000 0.7143 0.0000
-0.2626 0.1500 0.0000
-0.3679 0.2102 0.0000
-0.4733 0.2704 0.0000
-0.5786 0.3306 0.0000
-0.6840 0.3908 0.0000
-0.7893 0.4510 0.0000
-0.8947 0.5112 0.0000
-1.0000 0.5714 0.0000
-0.2779 0.1191 0.0000
-0.3811 0.1633 0.0000
-0.4842 0.2075 0.0000
-0.5874 0.2517 0.0000
-0.6905 0.2959 0.0000
-0.7937 0.3402 0.0000
-0.8968 0.3844 0.0000
-1.0000 0.4286 0.0000
-0.2908 0.0831 0.0000
-0.3921 0.1120 0.0000
-0.4934 0.1410 0.0000
-0.5947 0.1699 0.0000
-0.6960 0.1989 0.0000
-0.7974 0.2278 0.0000
-0.8987 0.2568 0.0000
-1.0000 0.2857 0.0000
-0.2994 0.0428 0.0000
-0.3994 0.0571 0.0000
-0.4995 0.0714 0.0000
-0.5996 0.0857 0.0000
-0.6997 0.1000 0.0000
-0.7998 0.1143 0.0000
-0.8999 0.1286 0.0000
-1.0000 0.1429 0.0000
-0.3024 0.0000 0.0000
-0.4021 0.0000 0.0000
-0.5017 0.0000 0.0000
-0.6014 0.0000 0.0000
-0.7010 0.0000 0.0000
-0.8007 0.0000 0.0000
-0.9003 0.0000 0.0000
-1.0000 0.0000 0.0000
-0.2994 -0.0428 0.0000
-0.3994 -0.0571 0.0000
-0.4995 -0.0714 0.0000
-0.5996 -0.0857 0.0000
-0.6997 -0.1000 0.0000
-0.7998 -0.1143 0.0000
-0.8999 -0.1286 0.0000
-1.0000 -0.1429 0.0000
-0.2908 -0.0831 0.0000
-0.3921 -0.1120 0.0000
-0.4934 -0.1410 0.0000
-0.5947 -0.1699 0.0000
-0.6960 -0.1989 0.0000
-0.7974 -0.2278 0.0000
-0.8987 -0.2568 0.0000
-1.0000 -0.2857 0.0000
-0.2779 -0.1191 0.0000
-0.3811 -0.1633 0.0000
-0.4842 -0.2075 0.0000
-0.5874 -0.2517 0.0000
-0.6905 -0.2959 0.0000
-0.7937 -0.3402 0.0000
-0.8968 -0.3844 0.0000
-1.0000 -0.4286 0.0000
-0.2626 -0.1500 0.0000
-0.3679 -0.2102 0.0000
-0.4733 -0.2704 0.0000
-0.5786 -0.3306 0.0000
-0.6840 -0.3908 0.0000
-0.7893 -0.4510 0.0000
-0.8947 -0.5112 0.0000
-1.0000 -0.5714 0.0000
-0.2461 -0.1758 0.0000
-0.3538 -0.2527 0.0000
-0.4615 -0.3296 0.0000
-0.5692 -0.4066 0.0000
-0.6769 -0.4835 0.0000
-0.7846 -0.5604 0.0000
-0.8923 -0.6374 0.0000
-1.0000 -0.7143 0.0000
-0.2296 -0.1968 0.0000
-0.3397 -0.2911 0.0000
-0.4497 -0.3855 0.0000
-0.5598 -0.4798 0.0000
-0.6698 -0.5741 0.0000
-0.7799 -0.6685 0.0000
-0.8899 -0.7628 0.0000
-1.0000 -0.8571 0.0000
-0.2138 -0.2138 0.0000
-0.3261 -0.3261 0.0000
-0.4384 -0.4384 0.0000
-0.5508 -0.5508 0.0000
-0.6631 -0.6631 0.0000
-0.7754 -0.7754 0.0000
-0.8877 -0.8877 0.0000
-1.0000 -1.0000 0.0000
-0.1968 -0.2296 0.0000
-0.2911 -0.3397 0.0000
-0.3855 -0.4497 0.0000
-0.4798 -0.5598 0.0000
-0.5741 -0.6698 0.0000
-0.6685 -0.7799 0.0000
-0.7628 -0.8899 0.0000
-0.8571 -1.0000 0.0000
-0.1758 -0.2461 0.0000
-0.2527 -0.3538 0.0000
-0.3296 -0.4615 0.0000
-0.4066 -0.5692 0.0000
-0.4835 -0.6769 0.0000
-0.5604 -0.7846 0.0000
-0.6374 -0.8923 0.0000
-0.7143 -1.0000 0.0000
-0.1500 -0.2626 0.0000
-0.2102 -0.3679 0.0000
-0.2704 -0.4733 0.0000
-0.3306 -0.5786 0.0000
-0.3908 -0.6840 0.0000
-0.4510 -0.7893 0.0000
-0.5112 -0.8947 0.0000
-0.5714 -1.0000 0.0000
-0.1191 -0.2779 0.0000
-0.1633 -0.3811 0.0000
-0.2075 -0.4842 0.0000
-0.2517 -0.5874 0.0000
-0.2959 -0.6905 0.0000
-0.3402 -0.7937 0.0000
-0.3844 -0.8968 0.0000
-0.4286 -1.0000 0.0000
-0.0831 -0.2908 0.0000
-0.1120 -0.3921 0.0000
-0.1410 -0.4934 0.0000
-0.1699 -0.5947 0.0000
-0.1989 -0.6960 0.0000
-0.2278 -0.7974 0.0000
-0.2568 -0.8987 0.0000
-0.2857 -1.0000 0.0000
-0.0428 -0.2994 0.0000
-0.0571 -0.3994 0.0000
-0.0714 -0.4995 0.0000
-0.0857 -0.5996 0.0000
-0.1000 -0.6997 0.0000
-0.1143 -0.7998 0.0000
-0.1286 -0.8999 0.0000
-0.1429 -1.0000 0.0000
0.0000 -0.3024 0.0000
0.0000 -0.4021 0.0000
0.0000 -0.5017 0.0000
0.0000 -0.6014 0.0000
0.0000 -0.7010 0.0000
0.0000 -0.8007 0.0000
0.0000 -0.9003 0.0000
0.0000 -1.0000 0.0000
0.0428 -0.2994 0.0000
0.0571 -0.3994 0.0000
0.0714 -0.4995 0.0000
0.0857 -0.5996 0.0000
0.1000 -0.6997 0.0000
0.1143 -0.7998 0.0000
0.1286 -0.8999 0.0000
0.1429 -1.0000 0.0000
0.0831 -0.2908 0.0000
0.1120 -0.3921 0.0000
0.1410 -0.4934 0.0000
0.1699 -0.5947 0.0000
0.1989 -0.6960 0.0000
0.2278 -0.7974 0.0000
0.2568 -0.8987 0.0000
0.2857 -1.0000 0.0000
0.1191 -0.2779 0.0000
0.1633 -0.3811 0.0000
0.2075 -0.4842 0.0000
0.2517 -0.5874 0.0000
0.2959 -0.6905 0.0000
0.3402 -0.7937 0.0000
0.3844 -0.8968 0.0000
0.4286 -1.0000 0.0000
0.1500 -0.2626 0.0000
0.2102 -0.3679 0.0000
0.2704 -0.4733 0.0000
0.3306 -0.5786 0.0000
0.3908 -0.6840 0.0000
0.4510 -0.7893 0.0000
0.5112 -0.8947 0.0000
0.5714 -1.0000 0.0000
0.1758 -0.2461 0.0000
0.2527 -0.3538 0.0000
0.3296 -0.4615 0.0000
0.4066 -0.5692 0.0000
0.4835 -0.6769 0.0000
0.5604 -0.7846 0.0000
0.6374 -0.8923 0.0000
0.7143 -1.0000 0.0000
0.1968 -0.2296 0.0000
0.2911 -0.3397 0.0000
0.3855 -0.4497 0.0000
0.4798 -0.5598 0.0000
0.5741 -0.6698 0.0000
0.6685 -0.7799 0.0000
0.7628 -0.8899 0.0000
0.8571 -1.0000 0.0000
0.2138 -0.2138 0.0000
0.3261 -0.3261 0.0000
0.4384 -0.4384 0.0000
0.5508 -0.5508 0.0000
0.6631 -0.6631 0.0000
0.7754 -0.7754 0.0000
0.8877 -0.8877 0.0000
1.0000 -1.0000 0.0000
0.2296 -0.1968 0.0000
0.3397 -0.2911 0.0000
0.4497 -0.3855 0.0000
0.5598 -0.4798 0.0000
0.6698 -0.5741 0.0000
0.7799 -0.6685 0.0000
0.8899 -0.7628 0.0000
1.0000 -0.8571 0.0000
0.2461 -0.1758 0.0000
0.3538 -0.2527 0.0000
0.4615 -0.3296 0.0000
0.5692 -0.4066 0.0000
0.6769 -0.4835 0.0000
0.7846 -0.5604 0.0000
0.8923 -0.6374 0.0000
1.0000 -0.7143 0.0000
0.2626 -0.1500 0.0000
0.3679 -0.2102 0.0000
0.4733 -0.2704 0.0000
0.5786 -0.3306 0.0000
0.6840 -0.3908 0.0000
0.7893 -0.4510 0.0000
0.8947 -0.5112 0.0000
1.0000 -0.5714 0.0000
0.2779 -0.1191 0.0000
0.3811 -0.1633 0.0000
0.4842 -0.2075 0.0000
0.5874 -0.2517 0.0000
0.6905 -0.2959 0.0000
0.7937 -0.3402 0.0000
0.8968 -0.3844 0.0000
1.0000 -0.4286 0.0000
0.2908 -0.0831 0.0000
0.3921 -0.1120 0.0000
0.4934 -0.1410 0.0000
0.5947 -0.1699 0.0000
0.6960 -0.1989 0.0000
0.7974 -0.2278 0.0000
0.8987 -0.2568 0.0000
1.0000 -0.2857 0.0000
0.2994 -0.0428 0.0000
0.3994 -0.0571 0.0000
0.4995 -0.0714 0.0000
0.5996 -0.0857 0.0000
0.6997 -0.1000 0.0000
0.7998 -0.1143 0.0000
0.8999 -0.1286 0.0000
1.0000 -0.1429 0.0000
0.3024 0.0000 0.0000
0.4021 0.0000 0.0000
0.5017 0.0000 0.0000
0.6014 0.0000 0.0000
0.7010 0.0000 0.0000
0.8007 0.0000 0.0000
0.9003 0.0000 0.0000
1.0000 0.0000 0.0000
0.2994 0.0428 0.0000
0.3994 0.0571 0.0000
0.4995 0.0714 0.0000
0.5996 0.0857 0.0000
0.6997 0.1000 0.0000
0.7998 0.1143 0.0000
0.8999 0.1286 0.0000
1.0000 0.1429 0.0000
0.2908 0.0831 0.0000
0.3921 0.1120 0.0000
0.4934 0.1410 0.0000
0.5947 0.1699 0.0000
0.6960 0.1989 0.0000
0.7974 0.2278 0.0000
0.8987 0.2568 0.0000
1.0000 0.2857 0.0000
0.2779 0.1191 0.0000
0.3811 0.1633 0.0000
0.4842 0.2075 0.0000
0.5874 0.2517 0.0000
0.6905 0.2959 0.0000
0.7937 0.3402 0.0000
0.8968 0.3844 0.0000
1.0000 0.4286 0.0000
0.2626 0.1500 0.0000
0.3679 0.2102 0.0000
0.4733 0.2704 0.0000
0.5786 0.3306 0.0000
0.6840 0.3908 0.0000
0.7893 0.4510 0.0000
0.8947 0.5112 0.0000
1.0000 0.5714 0.0000
0.2461 0.1758 0.0000
0.3538 0.2527 0.0000
0.4615 0.3296 0.0000
0.5692 0.4066 0.0000
0.6769 0.4835 0.0000
0.7846 0.5604 0.0000
0.8923 0.6374 0.0000
1.0000 0.7143 0.0000
0.2296 0.1968 0.0000
[...]
         <PointData>
            <DataArray Name="fValues" NumberOfComponents="3" format="ascii" type="Float64">
-4.09266e-03 -3.54204e-03        00000 
-3.67870e-03 -3.97783e-03        00000 
-3.49074e-03 -4.28032e-03        00000 
-3.36776e-03 -4.58401e-03        00000 
-3.26571e-03 -4.89977e-03        00000 
-3.16038e-03 -5.22801e-03        00000 
-3.00645e-03 -5.57695e-03        00000 
-2.62075e-03 -5.96427e-03        00000 
-3.98308e-03 -3.43667e-03        00000 
-3.54064e-03 -3.80185e-03        00000 
-3.33534e-03 -4.06095e-03        00000 
-3.19747e-03 -4.30814e-03        00000 
-3.08116e-03 -4.56266e-03        00000 
-2.96381e-03 -4.82400e-03        00000 
-2.81592e-03 -5.09371e-03        00000 
-2.64084e-03 -5.39727e-03        00000 
-3.84777e-03 -3.30852e-03        00000 
-3.38533e-03 -3.60131e-03        00000 
-3.16345e-03 -3.81305e-03        00000 
-3.01315e-03 -4.01125e-03        00000 
-2.88687e-03 -4.21193e-03        00000 
-2.76456e-03 -4.41900e-03        00000 
-2.63550e-03 -4.63677e-03        00000 
-2.50657e-03 -4.87121e-03        00000 
-3.68400e-03 -3.15655e-03        00000 
-3.21184e-03 -3.37180e-03        00000 
-2.97739e-03 -3.53523e-03        00000 
-2.81672e-03 -3.68810e-03        00000 
-2.68331e-03 -3.84133e-03        00000 
-2.55946e-03 -3.99945e-03        00000 
-2.43860e-03 -4.16555e-03        00000 
-2.32275e-03 -4.34112e-03        00000 
-3.48976e-03 -2.98153e-03        00000 
-3.02258e-03 -3.11328e-03        00000 
-2.78138e-03 -3.22845e-03        00000 
-2.61315e-03 -3.33881e-03        00000 
-2.47434e-03 -3.44920e-03        00000 
-2.34891e-03 -3.56252e-03        00000 
-2.23081e-03 -3.68067e-03        00000 
-2.11878e-03 -3.80419e-03        00000 
-3.26556e-03 -2.78720e-03        00000 
-2.82309e-03 -2.83267e-03        00000 
-2.58242e-03 -2.90027e-03        00000 
-2.40979e-03 -2.97066e-03        00000 
-2.26663e-03 -3.04170e-03        00000 
-2.13874e-03 -3.11407e-03        00000 
-2.02033e-03 -3.18874e-03        00000 
-1.90896e-03 -3.26622e-03        00000 
-3.01643e-03 -2.58120e-03        00000 
-2.62100e-03 -2.54490e-03        00000 
-2.38877e-03 -2.56709e-03        00000 
-2.21457e-03 -2.59991e-03        00000 
-2.06745e-03 -2.63429e-03        00000 
-1.93585e-03 -2.66882e-03        00000 
-1.81476e-03 -2.70368e-03        00000 
-1.70172e-03 -2.73925e-03        00000 
-2.75260e-03 -2.37476e-03        00000 
-2.42397e-03 -2.27048e-03        00000 
-2.20658e-03 -2.25183e-03        00000 
-2.03236e-03 -2.24931e-03        00000 
-1.88074e-03 -2.24883e-03        00000 
-1.74371e-03 -2.24749e-03        00000 
-1.61754e-03 -2.24498e-03        00000 
-1.50015e-03 -2.24143e-03        00000 
-2.48802e-03 -2.18046e-03        00000 
-2.23767e-03 -2.02926e-03        00000 
-2.03726e-03 -1.97598e-03        00000 
-1.86233e-03 -1.93993e-03        00000 
-1.70443e-03 -1.90522e-03        00000 
-1.55981e-03 -1.86877e-03        00000 
-1.42624e-03 -1.83034e-03        00000 
-1.30199e-03 -1.79010e-03        00000 
-2.23700e-03 -2.00893e-03        00000 
-2.06482e-03 -1.83354e-03        00000 
-1.87806e-03 -1.75112e-03        00000 
-1.69919e-03 -1.68211e-03        00000 
-1.53222e-03 -1.61261e-03        00000 
-1.37767e-03 -1.54084e-03        00000 
-1.23491e-03 -1.46742e-03        00000 
-1.10260e-03 -1.39323e-03        00000 
-2.01063e-03 -1.86614e-03        00000 
-1.90586e-03 -1.68484e-03        00000 
-1.72516e-03 -1.57592e-03        00000 
-1.53746e-03 -1.47286e-03        00000 
-1.35815e-03 -1.36709e-03        00000 
-1.19167e-03 -1.25935e-03        00000 
-1.03904e-03 -1.15199e-03        00000 
-8.99424e-04 -1.04732e-03        00000 
-1.81485e-03 -1.75288e-03        00000 
-1.76034e-03 -1.57623e-03        00000 
-1.57635e-03 -1.44012e-03        00000 
-1.37462e-03 -1.30054e-03        00000 
-1.17993e-03 -1.15669e-03        00000 
-1.00016e-03 -1.01267e-03        00000 
-8.38399e-04 -8.73101e-04        00000 
-6.95000e-04 -7.43041e-04        00000 
-1.65082e-03 -1.66594e-03        00000 
-1.62779e-03 -1.49750e-03        00000 
-1.43138e-03 -1.33082e-03        00000 
-1.21130e-03 -1.15148e-03        00000 
-9.98856e-04 -9.68450e-04        00000 
-8.04747e-04 -7.88856e-04        00000 
-6.36319e-04 -6.19738e-04        00000 
-4.98061e-04 -4.72870e-04        00000 
-1.51668e-03 -1.60005e-03        00000 
-1.50743e-03 -1.43949e-03        00000 
-1.29105e-03 -1.23649e-03        00000 
-1.05006e-03 -1.01446e-03        00000 
-8.17838e-04 -7.92905e-04        00000 
-6.07626e-04 -5.80053e-04        00000 
-4.36142e-04 -3.84726e-04        00000 
-3.27113e-04 -2.32633e-04        00000 
-1.40955e-03 -1.54948e-03        00000 
-1.39750e-03 -1.39608e-03        00000 
-1.15696e-03 -1.14744e-03        00000 
-8.93521e-04 -8.83040e-04        00000 
-6.39459e-04 -6.24634e-04        00000 
-4.10379e-04 -3.83105e-04        00000 
-2.32092e-04 -1.67959e-04        00000 
-2.09438e-04 -1.03605e-06        00000 
-1.29945e-03 -1.50161e-03        00000 
-1.30673e-03 -1.39336e-03        00000 
-1.11201e-03 -1.15702e-03        00000 
-8.74525e-04 -8.98760e-04        00000 
-6.35860e-04 -6.43993e-04        00000 
-4.06849e-04 -4.03014e-04        00000 
-1.93067e-04 -1.84374e-04        00000 
-5.82683e-21        00000        00000 
-1.17683e-03 -1.45660e-03        00000 
-1.19907e-03 -1.38985e-03        00000 
-1.04189e-03 -1.16934e-03        00000 
-8.36282e-04 -9.17808e-04        00000 
-6.18830e-04 -6.66488e-04        00000 
-4.02650e-04 -4.25233e-04        00000 
-1.94387e-04 -2.00073e-04        00000 
 7.34238e-21  6.60814e-20        00000 
-1.04614e-03 -1.41734e-03        00000 
-1.07351e-03 -1.38629e-03        00000 
-9.48589e-04 -1.18101e-03        00000 
-7.75253e-04 -9.37067e-04        00000 
-5.83894e-04 -6.89358e-04        00000 
-3.86593e-04 -4.48163e-04        00000 
-1.89928e-04 -2.16885e-04        00000 
 3.20369e-20 -6.83455e-20        00000 
-9.14862e-04 -1.38946e-03        00000 
-9.34679e-04 -1.38193e-03        00000 
-8.37060e-04 -1.18848e-03        00000 
-6.94363e-04 -9.51261e-04        00000 
-5.30970e-04 -7.07194e-04        00000 
-3.57209e-04 -4.66936e-04        00000 
-1.78514e-04 -2.31728e-04        00000 
-1.49935e-20  8.99612e-20        00000 
-7.93847e-04 -1.38063e-03        00000 
-7.95214e-04 -1.37585e-03        00000 
-7.19608e-04 -1.18786e-03        00000 
-6.04399e-04 -9.54741e-04        00000 
-4.67735e-04 -7.13358e-04        00000 
-3.18656e-04 -4.74700e-04        00000 
-1.61670e-04 -2.39122e-04        00000 
 2.33117e-20  4.32110e-20        00000 
-6.96418e-04 -1.39867e-03        00000 
-6.76075e-04 -1.36899e-03        00000 
-6.17969e-04 -1.17733e-03        00000 
-5.25562e-04 -9.44365e-04        00000 
-4.11035e-04 -7.03696e-04        00000 
-2.82822e-04 -4.66452e-04        00000 
-1.45352e-04 -2.34126e-04        00000 
-6.08444e-20        00000        00000 
-6.35720e-04 -1.44885e-03        00000 
-6.02320e-04 -1.36575e-03        00000 
-5.59572e-04 -1.16081e-03        00000 
-4.84046e-04 -9.23765e-04        00000 
-3.83677e-04 -6.81296e-04        00000 
-2.66975e-04 -4.44209e-04        00000 
-1.38948e-04 -2.17134e-04        00000 
 7.97286e-20  8.89800e-20        00000 
-6.20808e-04 -1.53136e-03        00000 
-5.94350e-04 -1.37382e-03        00000 
-5.67368e-04 -1.14919e-03        00000 
-5.02045e-04 -9.05111e-04        00000 
-4.05251e-04 -6.58536e-04        00000 
-2.86248e-04 -4.19374e-04        00000 
-1.50885e-04 -1.96395e-04        00000 
-1.52111e-20 -6.08444e-20        00000 
-6.53352e-04 -1.64057e-03        00000 
-6.59137e-04 -1.40138e-03        00000 
-6.49187e-04 -1.15632e-03        00000 
-5.87198e-04 -9.04700e-04        00000 
-4.82551e-04 -6.52703e-04        00000 
-3.45825e-04 -4.08667e-04        00000 
-1.83973e-04 -1.84768e-04        00000 
       00000  1.61654e-20        00000 
-7.27094e-04 -1.76686e-03        00000 
-7.87717e-04 -1.45315e-03        00000 
-7.95167e-04 -1.19211e-03        00000 
-7.30368e-04 -9.34966e-04        00000 
-6.08010e-04 -6.77813e-04        00000 
-4.40145e-04 -4.26422e-04        00000 
-2.35121e-04 -1.93413e-04        00000 
-8.24644e-20 -3.77402e-20        00000 
-8.30373e-04 -1.89986e-03        00000 
-9.60783e-04 -1.52812e-03        00000 
-9.84757e-04 -1.25849e-03        00000 
-9.12826e-04 -9.99598e-04        00000 
-7.67046e-04 -7.39609e-04        00000 
-5.59875e-04 -4.80449e-04        00000 
-2.99944e-04 -2.29554e-04        00000 
 6.40735e-20 -4.69872e-20        00000 
-9.49867e-04 -2.03089e-03        00000 
-1.15768e-03 -1.62075e-03        00000 
-1.19631e-03 -1.35074e-03        00000 
-1.11557e-03 -1.09444e-03        00000 
-9.47224e-04 -8.36186e-04        00000 
-7.01390e-04 -5.74868e-04        00000 
-3.78105e-04 -3.02060e-04        00000 
-1.76217e-19        00000        00000 
-1.07357e-03 -2.15367e-03        00000 
-1.36294e-03 -1.72431e-03        00000 
-1.41237e-03 -1.46118e-03        00000 
-1.32500e-03 -1.21098e-03        00000 
-1.14411e-03 -9.62485e-04        00000 
-8.71917e-04 -7.12452e-04        00000 
-4.93205e-04 -4.45275e-04        00000 
 1.96785e-19 -3.91874e-20        00000 
-1.19221e-03 -2.26346e-03        00000 
-1.56837e-03 -1.83425e-03        00000 
-1.61943e-03 -1.58094e-03        00000 
-1.53648e-03 -1.34062e-03        00000 
-1.36602e-03 -1.11329e-03        00000 
-1.13711e-03 -9.04106e-04        00000 
-9.69981e-04 -6.90262e-04        00000 
-1.50628e-03 -3.63795e-04        00000 
-1.31038e-03 -2.38549e-03        00000 
-1.74040e-03 -2.02240e-03        00000 
-1.84091e-03 -1.80559e-03        00000 
-1.82585e-03 -1.61619e-03        00000 
-1.75179e-03 -1.44155e-03        00000 
-1.65467e-03 -1.29359e-03        00000 
-1.61576e-03 -1.16755e-03        00000 
-1.73697e-03 -9.46465e-04        00000 
-1.46388e-03 -2.53556e-03        00000 
-1.93838e-03 -2.24315e-03        00000 
-2.08835e-03 -2.06903e-03        00000 
-2.13560e-03 -1.92383e-03        00000 
-2.14365e-03 -1.79418e-03        00000 
-2.14781e-03 -1.68371e-03        00000 
-2.17943e-03 -1.58910e-03        00000 
-2.25561e-03 -1.47937e-03        00000 
-1.65790e-03 -2.71451e-03        00000 
-2.16402e-03 -2.50232e-03        00000 
-2.35909e-03 -2.37337e-03        00000 
-2.46326e-03 -2.27038e-03        00000 
-2.54075e-03 -2.18129e-03        00000 
-2.62299e-03 -2.10331e-03        00000 
-2.72726e-03 -2.03451e-03        00000 
-2.84741e-03 -1.96992e-03        00000 
-1.89643e-03 -2.92018e-03        00000 
-2.41392e-03 -2.79920e-03        00000 
-2.64708e-03 -2.71699e-03        00000 
-2.80188e-03 -2.65540e-03        00000 
-2.93847e-03 -2.60626e-03        00000 
-3.08515e-03 -2.56453e-03        00000 
-3.25763e-03 -2.52724e-03        00000 
-3.45835e-03 -2.49656e-03        00000 
-2.17904e-03 -3.14582e-03        00000 
-2.67956e-03 -3.12253e-03        00000 
-2.94157e-03 -3.08862e-03        00000 
-3.14049e-03 -3.06830e-03        00000 
-3.32844e-03 -3.06028e-03        00000 
-3.53010e-03 -3.06014e-03        00000 
-3.76252e-03 -3.06408e-03        00000 
-4.04174e-03 -3.07250e-03        00000 
-2.49748e-03 -3.37937e-03        00000 
-2.94919e-03 -3.44948e-03        00000 
-3.22958e-03 -3.46440e-03        00000 
-3.46686e-03 -3.48589e-03        00000 
-3.70076e-03 -3.52043e-03        00000 
-3.95072e-03 -3.56562e-03        00000 
-4.23230e-03 -3.61748e-03        00000 
-4.56608e-03 -3.67216e-03        00000 
-2.83464e-03 -3.60501e-03        00000 
-3.21126e-03 -3.75090e-03        00000 
-3.50129e-03 -3.81286e-03        00000 
-3.77285e-03 -3.87703e-03        00000 
-4.04940e-03 -3.95528e-03        00000 
-4.34315e-03 -4.04668e-03        00000 
-4.66393e-03 -4.14705e-03        00000 
-5.02376e-03 -4.24901e-03        00000 
-3.16781e-03 -3.80723e-03        00000 
-3.45759e-03 -4.00226e-03        00000 
-3.75373e-03 -4.10759e-03        00000 
-4.05814e-03 -4.21549e-03        00000 
-4.37597e-03 -4.33845e-03        00000 
-4.71085e-03 -4.47493e-03        00000 
-5.06447e-03 -4.61961e-03        00000 
-5.43417e-03 -4.76390e-03        00000 
-3.47517e-03 -3.97545e-03        00000 
-3.68404e-03 -4.19314e-03        00000 
-3.98933e-03 -4.33869e-03        00000 
-4.32807e-03 -4.49198e-03        00000 
-4.68743e-03 -4.66108e-03        00000 
-5.06226e-03 -4.84172e-03        00000 
-5.44679e-03 -5.02661e-03        00000 
-5.82910e-03 -5.20829e-03        00000 
-3.74182e-03 -4.10631e-03        00000 
-3.88916e-03 -4.32856e-03        00000 
-4.21138e-03 -4.51378e-03        00000 
-4.58799e-03 -4.71504e-03        00000 
-4.99033e-03 -4.93267e-03        00000 
-5.40511e-03 -5.15876e-03        00000 
-5.82149e-03 -5.38425e-03        00000 
-6.22918e-03 -5.60338e-03        00000 
-3.96189e-03 -4.20274e-03        00000 
-4.07255e-03 -4.42239e-03        00000 
-4.42116e-03 -4.64953e-03        00000 
-4.83998e-03 -4.90219e-03        00000 
-5.28757e-03 -5.17157e-03        00000 
-5.74347e-03 -5.44695e-03        00000 
-6.19248e-03 -5.71822e-03        00000 
-6.63097e-03 -5.97736e-03        00000 
-4.13682e-03 -4.27136e-03        00000 
-4.23452e-03 -4.48928e-03        00000 
-4.61840e-03 -4.76272e-03        00000 
-5.08323e-03 -5.07079e-03        00000 
-5.57904e-03 -5.39479e-03        00000 
-6.07910e-03 -5.72382e-03        00000 
-6.55894e-03 -6.04603e-03        00000 
-7.00828e-03 -6.33994e-03        00000 
-4.27175e-03 -4.31989e-03        00000 
-4.37661e-03 -4.53986e-03        00000 
-4.80270e-03 -4.86637e-03        00000 
-5.31569e-03 -5.23352e-03        00000 
-5.86348e-03 -5.61272e-03        00000 
-6.41566e-03 -5.99539e-03        00000 
-6.91876e-03 -6.36648e-03        00000 
-7.32255e-03 -6.65697e-03        00000 
-4.37237e-03 -4.35552e-03        00000 
-4.50229e-03 -4.57969e-03        00000 
-4.97323e-03 -4.97069e-03        00000 
-5.53577e-03 -5.39639e-03        00000 
-6.14021e-03 -5.82912e-03        00000 
-6.75604e-03 -6.25433e-03        00000 
-7.30325e-03 -6.63998e-03        00000 
-7.45010e-03 -6.92076e-03        00000 
-4.47422e-03 -4.39008e-03        00000 
-4.57398e-03 -4.56252e-03        00000 
-4.95475e-03 -4.92404e-03        00000 
-5.43819e-03 -5.32520e-03        00000 
-5.96874e-03 -5.73340e-03        00000 
-6.53303e-03 -6.13233e-03        00000 
-7.12636e-03 -6.50793e-03        00000 
-7.73236e-03 -6.72313e-03        00000 
-4.58129e-03 -4.41747e-03        00000 
-4.65445e-03 -4.54781e-03        00000 
-4.95868e-03 -4.87765e-03        00000 
-5.35887e-03 -5.25525e-03        00000 
-5.80792e-03 -5.64304e-03        00000 
-6.28800e-03 -6.02763e-03        00000 
-6.79249e-03 -6.39776e-03        00000 
-7.29518e-03 -6.76084e-03        00000 
-4.68555e-03 -4.43539e-03        00000 
-4.74152e-03 -4.53479e-03        00000 
-4.97854e-03 -4.83588e-03        00000 
-5.29936e-03 -5.19045e-03        00000 
-5.66579e-03 -5.56078e-03        00000 
-6.05960e-03 -5.93442e-03        00000 
-6.46968e-03 -6.31047e-03        00000 
-6.88852e-03 -6.69885e-03        00000 
-4.77638e-03 -4.43917e-03        00000 
-4.82644e-03 -4.52426e-03        00000 
-5.00496e-03 -4.80227e-03        00000 
-5.25308e-03 -5.13626e-03        00000 
-5.54140e-03 -5.49070e-03        00000 
-5.85366e-03 -5.85475e-03        00000 
-6.18042e-03 -6.22761e-03        00000 
-6.51712e-03 -6.61427e-03        00000 
-4.84168e-03 -4.42289e-03        00000 
-4.89348e-03 -4.51628e-03        00000 
-5.02225e-03 -4.77950e-03        00000 
-5.20593e-03 -5.09693e-03        00000 
-5.42397e-03 -5.43741e-03        00000 
-5.66316e-03 -5.79129e-03        00000 
-5.91543e-03 -6.15674e-03        00000 
-6.17654e-03 -6.53516e-03        00000 
-4.87037e-03 -4.38143e-03        00000 
-4.92280e-03 -4.50806e-03        00000 
-5.00914e-03 -4.76678e-03        00000 
-5.13720e-03 -5.07284e-03        00000 
-5.29447e-03 -5.40198e-03        00000 
-5.47053e-03 -5.74619e-03        00000 
-5.65838e-03 -6.10316e-03        00000 
-5.85371e-03 -6.47263e-03        00000 
-4.85582e-03 -4.31270e-03        00000 
-4.89720e-03 -4.49346e-03        00000 
-4.94502e-03 -4.75763e-03        00000 
-5.02557e-03 -5.05781e-03        00000 
-5.13173e-03 -5.37881e-03        00000 
-5.25501e-03 -5.71513e-03        00000 
-5.38920e-03 -6.06462e-03        00000 
-5.53019e-03 -6.42638e-03        00000 
-4.79839e-03 -4.21912e-03        00000 
-4.80959e-03 -4.46504e-03        00000 
-4.81931e-03 -4.74116e-03        00000 
-4.85884e-03 -5.03982e-03        00000 
-4.92257e-03 -5.35595e-03        00000 
-5.00261e-03 -5.68691e-03        00000 
-5.09308e-03 -6.03111e-03        00000 
-5.19019e-03 -6.38729e-03        00000 
-4.70539e-03 -4.10735e-03        00000 
-4.66618e-03 -4.41753e-03        00000 
-4.63679e-03 -4.70707e-03        00000 
-4.64033e-03 -5.00658e-03        00000 
-4.66876e-03 -5.32040e-03        00000 
-4.71338e-03 -5.64870e-03        00000 
-4.76797e-03 -5.99045e-03        00000 
-4.82867e-03 -6.34392e-03        00000 
-4.58837e-03 -3.98615e-03        00000 
-4.48327e-03 -4.35026e-03        00000 
-4.41454e-03 -4.65064e-03        00000 
-4.38629e-03 -4.95140e-03        00000 
-4.38500e-03 -5.26458e-03        00000 
-4.39995e-03 -5.59266e-03        00000 
-4.42392e-03 -5.93516e-03        00000 
-4.45209e-03 -6.28988e-03        00000 
-4.45955e-03 -3.86376e-03        00000 
-4.28013e-03 -4.26699e-03        00000 
-4.17354e-03 -4.57363e-03        00000 
-4.11742e-03 -4.87501e-03        00000 
-4.09043e-03 -5.18849e-03        00000 
-4.07946e-03 -5.51827e-03        00000 
-4.07591e-03 -5.86506e-03        00000 
-4.07218e-03 -6.22748e-03        00000 
-4.32932e-03 -3.74639e-03        00000 
-4.07279e-03 -4.17380e-03        00000 
-3.93160e-03 -4.48179e-03        00000 
-3.85149e-03 -4.78325e-03        00000 
-3.80097e-03 -5.09770e-03        00000 
-3.76504e-03 -5.42916e-03        00000 
-3.73712e-03 -5.78419e-03        00000 
-3.69785e-03 -6.16978e-03        00000 
-4.20536e-03 -3.63817e-03        00000 
-3.87106e-03 -4.07634e-03        00000 
-3.70111e-03 -4.38179e-03        00000 
-3.60020e-03 -4.68395e-03        00000 
-3.52546e-03 -4.99930e-03        00000 
-3.46222e-03 -5.33148e-03        00000 
-3.40286e-03 -5.68425e-03        00000 
-3.33389e-03 -6.15301e-03        00000 
-7.46741e-03 -1.10862e-02        00000 
-7.01314e-03 -1.16410e-02        00000 
-6.70378e-03 -1.21597e-02        00000 
-6.41701e-03 -1.26995e-02        00000 
-6.13323e-03 -1.32475e-02        00000 
-5.84067e-03 -1.37957e-02        00000 
-5.50768e-03 -1.43482e-02        00000 
-4.97754e-03 -1.49159e-02        00000 
-7.41302e-03 -1.10276e-02        00000 
-6.93863e-03 -1.14951e-02        00000 
-6.61515e-03 -1.19313e-02        00000 
-6.31412e-03 -1.23788e-02        00000 
-6.01520e-03 -1.28349e-02        00000 
-5.70741e-03 -1.32913e-02        00000 
-5.36697e-03 -1.37448e-02        00000 
-4.98687e-03 -1.42151e-02        00000 
-7.34905e-03 -1.09554e-02        00000 
-6.85730e-03 -1.13354e-02        00000 
-6.52013e-03 -1.16901e-02        00000 
-6.20659e-03 -1.20509e-02        00000 
-5.89566e-03 -1.24187e-02        00000 
-5.57790e-03 -1.27898e-02        00000 
-5.24459e-03 -1.31645e-02        00000 
-4.90332e-03 -1.35488e-02        00000 
-7.27512e-03 -1.08677e-02        00000 
-6.77005e-03 -1.11595e-02        00000 
-6.42021e-03 -1.14348e-02        00000 
-6.09508e-03 -1.17129e-02        00000 
-5.77421e-03 -1.19962e-02        00000 
-5.45018e-03 -1.22846e-02        00000 
-5.11981e-03 -1.25791e-02        00000 
-4.78784e-03 -1.28803e-02        00000 
-7.19182e-03 -1.07641e-02        00000 
-6.67950e-03 -1.09664e-02        00000 
-6.31803e-03 -1.11650e-02        00000 
-5.98171e-03 -1.13638e-02        00000 
-5.65181e-03 -1.15659e-02        00000 
-5.32245e-03 -1.17731e-02        00000 
-4.99186e-03 -1.19870e-02        00000 
-4.66164e-03 -1.22075e-02        00000 
-7.10123e-03 -1.06462e-02        00000 
-6.59005e-03 -1.07587e-02        00000 
-6.21759e-03 -1.08831e-02        00000 
-5.86979e-03 -1.10055e-02        00000 
-5.53049e-03 -1.11289e-02        00000 
-5.19504e-03 -1.12562e-02        00000 
-4.86201e-03 -1.13893e-02        00000 
-4.53139e-03 -1.15294e-02        00000 
-7.00721e-03 -1.05188e-02        00000 