<?xml version="1.0" encoding="utf-8"?>
<VTKFile byte_order="LittleEndian" type="UnstructuredGrid" version="0.1">
   <UnstructuredGrid>
      <Piece NumberOfCells="31360" NumberOfPoints="34072">
         <Points>
            <DataArray Name="Points" NumberOfComponents="3" format="ascii" type="Float32">
0.2138 0.2138 0.0000
0.3261 0.3261 0.0000
0.4384 0.4384 0.0000
0.5508 0.5508 0.0000
0.6631 0.6631 0.0000
0.7754 0.7754 0.0000
0.8877 0.8877 0.0000
1.0000 1.0000 0.0000
0.1968 0.2296 0.0000
0.2911 0.3397 0.0000
0.3855 0.4497 0.0000
0.4798 0.5598 0.0000
0.5741 0.6698 0.0000
0.6685 0.7799 0.0000
0.7628 0.8899 0.0000
0.8571 1.0000 0.0000
0.1758 0.2461 0.0000
0.2527 0.3538 0.0000
0.3296 0.4615 0.0000
0.4066 0.5692 0.0000
0.4835 0.6769 0.0000
0.5604 0.7846 0.0000
0.6374 0.8923 0.0000
0.7143 1.0000 0.0000
0.1500 0.2626 0.0000
0.2102 0.3679 0.0000
0.2704 0.4733 0.0000
0.3306 0.5786 0.0000
0.3908 0.6840 0.0000
0.4510 0.7893 0.0000
0.5112 0.8947 0.0000
0.5714 1.0000 0.0000
0.1191 0.2779 0.0000
0.1633 0.3811 0.0000
0.2075 0.4842 0.0000
0.2517 0.5874 0.0000
0.2959 0.6905 0.0000
0.3402 0.7937 0.0000
0.3844 0.8968 0.0000
0.4286 1.0000 0.0000
0.0831 0.2908 0.0000
0.1120 0.3921 0.0000
0.1410 0.4934 0.0000
0.1699 0.5947 0.0000
0.1989 0.6960 0.0000
0.2278 0.7974 0.0000
0.2568 0.8987 0.0000
0.2857 1.0000 0.0000
0.0428 0.2994 0.0000
0.0571 0.3994 0.0000
0.0714 0.4995 0.0000
0.0857 0.5996 0.0000
0.1000 0.6997 0.0000
0.1143 0.7998 0.0000
0.1286 0.8999 0.0000
0.1429 1.0000 0.0000
0.0000 0.3024 0.0000
0.0000 0.4021 0.0000
0.0000 0.5017 0.0000
0.0000 0.6014 0.0000
0.0000 0.7010 0.0000
0.0000 0.8007 0.0000
0.0000 0.9003 0.0000
0.0000 1.0000 0.0000
-0.0428 0.2994 0.0000
-0.0571 0.3994 0.0000
-0.0714 0.4995 0.0000
-0.0857 0.5996 0.0000
-0.1000 0.6997 0.0000
-0.1143 0.7998 0.0000
-0.1286 0.8999 0.0000
-0.1429 1.0000 0.0000
-0.0831 0.2908 0.0000
-0.1120 0.3921 0.0000
-0.1410 0.4934 0.0000
-0.1699 0.5947 0.0000
-0.1989 0.6960 0.0000
-0.2278 0.7974 0.0000
-0.2568 0.8987 0.0000
-0.2857 1.0000 0.0000
-0.1191 0.2779 0.0000
-0.1633 0.3811 0.0000
-0.2075 0.4842 0.0000
-0.2517 0.5874 0.0000
-0.2959 0.6905 0.0000
-0.3402 0.7937 0.0000
-0.3844 0.8968 0.0000
-0.4286 1.0000 0.0000
-0.1500 0.2626 0.0000
-0.2102 0.3679 0.0000
-0.2704 0.4733 0.0000
-0.3306 0.5786 0.0000
-0.3908 0.6840 0.0000
-0.4510 0.7893 0.0000
-0.5112 0.8947 0.0000
-0.5714 1.0000 0.0000
-0.1758 0.2461 0.0000
-0.2527 0.3538 0.0000
-0.3296 0.4615 0.0000
-0.4066 0.5692 0.0000
-0.4835 0.6769 0.0000
-0.5604 0.7846 0.0000
-0.6374 0.8923 0.0000
-0.7143 1.0000 0.0000
-0.1968 0.2296 0.0000
-0.2911 0.3397 0.0000
-0.3855 0.4497 0.0000
-0.4798 0.5598 0.0000
-0.5741 0.6698 0.0000
-0.6685 0.7799 0.0000
-0.7628 0.8899 0.0000
-0.8571 1.0000 0.0000
-0.2138 0.2138 0.0000
-0.3261 0.3261 0.0000
-0.4384 0.4384 0.0000
-0.5508 0.5508 0.0000
-0.6631 0.6631 0.0000
-0.7754 0.7754 0.0000
-0.8877 0.8877 0.0000
-1.0000 1.0000 0.0000
-0.2296 0.1968 0.0000
-0.3397 0.2911 0.0000
-0.4497 0.3855 0.0000
-0.5598 0.4798 0.0000
-0.6698 0.5741 0.0000
-0.7799 0.6685 0.0000
-0.8899 0.7628 0.0000
-1.0000 0.8571 0.0000
-0.2461 0.1758 0.0000
-0.3538 0.2527 0.0000
-0.4615 0.3296 0.0000
-0.5692 0.4066 0.0000
-0.6769 0.4835 0.0000
-0.7846 0.5604 0.0000
-0.8923 0.6374 0.0000
-1.0000 0.7143 0.0000
-0.2626 0.1500 0.0000
-0.3679 0.2102 0.0000
-0.4733 0.2704 0.0000
-0.5786 0.3306 0.0000
-0.6840 0.3908 0.0000
-0.7893 0.4510 0.0000
-0.8947 0.5112 0.0000
-1.0000 0.5714 0.0000
-0.2779 0.1191 0.0000
-0.3811 0.1633 0.0000
-0.4842 0.2075 0.0000
-0.5874 0.2517 0.0000
-0.6905 0.2959 0.0000
-0.7937 0.3402 0.0000
-0.8968 0.3844 0.0000
-1.0000 0.4286 0.0000
-0.2908 0.0831 0.0000
-0.3921 0.1120 0.0000
-0.4934 0.1410 0.0000
-0.5947 0.1699 0.0000
-0.6960 0.1989 0.0000
-0.7974 0.2278 0.0000
-0.8987 0.2568 0.0000
-1.0000 0.2857 0.0000
-0.2994 0.0428 0.0000
-0.3994 0.0571 0.0000
-0.4995 0.0714 0.0000
-0.5996 0.0857 0.0000
-0.6997 0.1000 0.0000
-0.7998 0.1143 0.0000
-0.8999 0.1286 0.0000
-1.0000 0.1429 0.0000
-0.3024 0.0000 0.0000
-0.4021 0.0000 0.0000
-0.5017 0.0000 0.0000
-0.6014 0.0000 0.0000
-0.7010 0.0000 0.0000
-0.8007 0.0000 0.0000
-0.9003 0.0000 0.0000
-1.0000 0.0000 0.0000
-0.2994 -0.0428 0.0000
-0.3994 -0.0571 0.0000
-0.4995 -0.0714 0.0000
-0.5996 -0.0857 0.0000
-0.6997 -0.1000 0.0000
-0.7998 -0.1143 0.0000
-0.8999 -0.1286 0.0000
-1.0000 -0.1429 0.0000
-0.2908 -0.0831 0.0000
-0.3921 -0.1120 0.0000
-0.4934 -0.1410 0.0000
-0.5947 -0.1699 0.0000
-0.6960 -0.1989 0.0000
-0.7974 -0.2278 0.0000
-0.8987 -0.2568 0.0000
-1.0000 -0.2857 0.0000
-0.2779 -0.1191 0.0000
-0.3811 -0.1633 0.0000
-0.4842 -0.2075 0.0000
-0.5874 -0.2517 0.0000
-0.6905 -0.2959 0.0000
-0.7937 -0.3402 0.0000
-0.8968 -0.3844 0.0000
-1.0000 -0.4286 0.0000
-0.2626 -0.1500 0.0000
-0.3679 -0.2102 0.0000
-0.4733 -0.2704 0.0000
-0.5786 -0.3306 0.0000
-0.6840 -0.3908 0.0000
-0.7893 -0.4510 0.0000
-0.8947 -0.5112 0.0000
-1.0000 -0.5714 0.0000
-0.2461 -0.1758 0.0000
-0.3538 -0.2527 0.0000
-0.4615 -0.3296 0.0000
-0.5692 -0.4066 0.0000
-0.6769 -0.4835 0.0000
-0.7846 -0.5604 0.0000
-0.8923 -0.6374 0.0000
-1.0000 -0.7143 0.0000
-0.2296 -0.1968 0.0000
-0.3397 -0.2911 0.0000
-0.4497 -0.3855 0.0000
-0.5598 -0.4798 0.0000
-0.6698 -0.5741 0.0000
-0.7799 -0.6685 0.0000
-0.8899 -0.7628 0.0000
-1.0000 -0.8571 0.0000
-0.2138 -0.2138 0.0000
-0.3261 -0.3261 0.0000
-0.4384 -0.4384 0.0000
-0.5508 -0.5508 0.0000
-0.6631 -0.6631 0.0000
-0.7754 -0.7754 0.0000
-0.8877 -0.8877 0.0000
-1.0000 -1.0000 0.0000
-0.1968 -0.2296 0.0000
-0.2911 -0.3397 0.0000
-0.3855 -0.4497 0.0000
-0.4798 -0.5598 0.0000
-0.5741 -0.6698 0.0000
-0.6685 -0.7799 0.0000
-0.7628 -0.8899 0.0000
-0.8571 -1.0000 0.0000
-0.1758 -0.2461 0.0000
-0.2527 -0.3538 0.0000
-0.3296 -0.4615 0.0000
-0.4066 -0.5692 0.0000
-0.4835 -0.6769 0.0000
-0.5604 -0.7846 0.0000
-0.6374 -0.8923 0.0000
-0.7143 -1.0000 0.0000
-0.1500 -0.2626 0.0000
-0.2102 -0.3679 0.0000
-0.2704 -0.4733 0.0000
-0.3306 -0.5786 0.0000
-0.3908 -0.6840 0.0000
-0.4510 -0.7893 0.0000
-0.5112 -0.8947 0.0000
-0.5714 -1.0000 0.0000
-0.1191 -0.2779 0.0000
-0.1633 -0.3811 0.0000
-0.2075 -0.4842 0.0000
-0.2517 -0.5874 0.0000
-0.2959 -0.6905 0.0000
-0.3402 -0.7937 0.0000
-0.3844 -0.8968 0.0000
-0.4286 -1.0000 0.0000
-0.0831 -0.2908 0.0000
-0.1120 -0.3921 0.0000
-0.1410 -0.4934 0.0000
-0.1699 -0.5947 0.0000
-0.1989 -0.6960 0.0000
-0.2278 -0.7974 0.0000
-0.2568 -0.8987 0.0000
-0.2857 -1.0000 0.0000
-0.0428 -0.2994 0.0000
-0.0571 -0.3994 0.0000
-0.0714 -0.4995 0.0000
-0.0857 -0.5996 0.0000
-0.1000 -0.6997 0.0000
-0.1143 -0.7998 0.0000
-0.1286 -0.8999 0.0000
-0.1429 -1.0000 0.0000
0.0000 -0.3024 0.0000
0.0000 -0.4021 0.0000
0.0000 -0.5017 0.0000
0.0000 -0.6014 0.0000
0.0000 -0.7010 0.0000
0.0000 -0.8007 0.0000
0.0000 -0.9003 0.0000
0.0000 -1.0000 0.0000
0.0428 -0.2994 0.0000
0.0571 -0.3994 0.0000
0.0714 -0.4995 0.0000
0.0857 -0.5996 0.0000
0.1000 -0.6997 0.0000
0.1143 -0.7998 0.0000
0.1286 -0.8999 0.0000
0.1429 -1.0000 0.0000
0.0831 -0.2908 0.0000
0.1120 -0.3921 0.0000
0.1410 -0.4934 0.0000
0.1699 -0.5947 0.0000
0.1989 -0.6960 0.0000
0.2278 -0.7974 0.0000
0.2568 -0.8987 0.0000
0.2857 -1.0000 0.0000
0.1191 -0.2779 0.0000
0.1633 -0.3811 0.0000
0.2075 -0.4842 0.0000
0.2517 -0.5874 0.0000
0.2959 -0.6905 0.0000
0.3402 -0.7937 0.0000
0.3844 -0.8968 0.0000
0.4286 -1.0000 0.0000
0.1500 -0.2626 0.0000
0.2102 -0.3679 0.0000
0.2704 -0.4733 0.0000
0.3306 -0.5786 0.0000
0.3908 -0.6840 0.0000
0.4510 -0.7893 0.0000
0.5112 -0.8947 0.0000
0.5714 -1.0000 0.0000
0.1758 -0.2461 0.0000
0.2527 -0.3538 0.0000
0.3296 -0.4615 0.0000
0.4066 -0.5692 0.0000
0.4835 -0.6769 0.0000
0.5604 -0.7846 0.0000
0.6374 -0.8923 0.0000
0.7143 -1.0000 0.0000
0.1968 -0.2296 0.0000
0.2911 -0.3397 0.0000
0.3855 -0.4497 0.0000
0.4798 -0.5598 0.0000
0.5741 -0.6698 0.0000
0.6685 -0.7799 0.0000
0.7628 -0.8899 0.0000
0.8571 -1.0000 0.0000
0.2138 -0.2138 0.0000
0.3261 -0.3261 0.0000
0.4384 -0.4384 0.0000
0.5508 -0.5508 0.0000
0.6631 -0.6631 0.0000
0.7754 -0.7754 0.0000
0.8877 -0.8877 0.0000
1.0000 -1.0000 0.0000
0.2296 -0.1968 0.0000
0.3397 -0.2911 0.0000
0.4497 -0.3855 0.0000
0.5598 -0.4798 0.0000
0.6698 -0.5741 0.0000
0.7799 -0.6685 0.0000
0.8899 -0.7628 0.0000
1.0000 -0.8571 0.0000
0.2461 -0.1758 0.0000
0.3538 -0.2527 0.0000
0.4615 -0.3296 0.0000
0.5692 -0.4066 0.0000
0.6769 -0.4835 0.0000
0.7846 -0.5604 0.0000
0.8923 -0.6374 0.0000
1.0000 -0.7143 0.0000
0.2626 -0.1500 0.0000
0.3679 -0.2102 0.0000
0.4733 -0.2704 0.0000
0.5786 -0.3306 0.0000
0.6840 -0.3908 0.0000
0.7893 -0.4510 0.0000
0.8947 -0.5112 0.0000
1.0000 -0.5714 0.0000
0.2779 -0.1191 0.0000
0.3811 -0.1633 0.0000
0.4842 -0.2075 0.0000
0.5874 -0.2517 0.0000
0.6905 -0.2959 0.0000
0.7937 -0.3402 0.0000
0.8968 -0.3844 0.0000
1.0000 -0.4286 0.0000
0.2908 -0.0831 0.0000
0.3921 -0.1120 0.0000
0.4934 -0.1410 0.0000
0.5947 -0.1699 0.0000
0.6960 -0.1989 0.0000
0.7974 -0.2278 0.0000
0.8987 -0.2568 0.0000
1.0000 -0.2857 0.0000
0.2994 -0.0428 0.0000
0.3994 -0.0571 0.0000
0.4995 -0.0714 0.0000
0.5996 -0.0857 0.0000
0.6997 -0.1000 0.0000
0.7998 -0.1143 0.0000
0.8999 -0.1286 0.0000
1.0000 -0.1429 0.0000
0.3024 0.0000 0.0000
0.4021 0.0000 0.0000
0.5017 0.0000 0.0000
0.6014 0.0000 0.0000
0.7010 0.0000 0.0000
0.8007 0.0000 0.0000
0.9003 0.0000 0.0000
1.0000 0.0000 0.0000
0.2994 0.0428 0.0000
0.3994 0.0571 0.0000
0.4995 0.0714 0.0000
0.5996 0.0857 0.0000
0.6997 0.1000 0.0000
0.7998 0.1143 0.0000
0.8999 0.1286 0.0000
1.0000 0.1429 0.0000
0.2908 0.0831 0.0000
0.3921 0.1120 0.0000
0.4934 0.1410 0.0000
0.5947 0.1699 0.0000
0.6960 0.1989 0.0000
0.7974 0.2278 0.0000
0.8987 0.2568 0.0000
1.0000 0.2857 0.0000
0.2779 0.1191 0.0000
0.3811 0.1633 0.0000
0.4842 0.2075 0.0000
0.5874 0.2517 0.0000
0.6905 0.2959 0.0000
0.7937 0.3402 0.0000
0.8968 0.3844 0.0000
1.0000 0.4286 0.0000
0.2626 0.1500 0.0000
0.3679 0.2102 0.0000
0.4733 0.2704 0.0000
0.5786 0.3306 0.0000
0.6840 0.3908 0.0000
0.7893 0.4510 0.0000
0.8947 0.5112 0.0000
1.0000 0.5714 0.0000
0.2461 0.1758 0.0000
0.3538 0.2527 0.0000
0.4615 0.3296 0.0000
0.5692 0.4066 0.0000
0.6769 0.4835 0.0000
0.7846 0.5604 0.0000
0.8923 0.6374 0.0000
1.0000 0.7143 0.0000
0.2296 0.1968 0.0000
[...]
         <PointData>
            <DataArray Name="fValues" NumberOfComponents="3" format="ascii" type="Float64">
 7.49020e-03  1.07213e-02        00000 
 6.62464e-03  1.17587e-02        00000 
 6.11963e-03  1.25744e-02        00000 
 5.75299e-03  1.34201e-02        00000 
 5.44006e-03  1.43010e-02        00000 
 5.13256e-03  1.52068e-02        00000 
 4.75202e-03  1.61320e-02        00000 
 3.97570e-03  1.70268e-02        00000 
 7.33221e-03  1.04518e-02        00000 
 6.39814e-03  1.13481e-02        00000 
 5.87144e-03  1.20407e-02        00000 
 5.48912e-03  1.27342e-02        00000 
 5.16436e-03  1.34565e-02        00000 
 4.85302e-03  1.42003e-02        00000 
 4.50286e-03  1.49630e-02        00000 
 4.18583e-03  1.57807e-02        00000 
 7.13422e-03  1.01191e-02        00000 
 6.13755e-03  1.08693e-02        00000 
 5.58727e-03  1.14364e-02        00000 
 5.19346e-03  1.19939e-02        00000 
 4.86391e-03  1.25710e-02        00000 
 4.55831e-03  1.31707e-02        00000 
 4.26000e-03  1.37974e-02        00000 
 3.99025e-03  1.44481e-02        00000 
 6.89040e-03  9.71589e-03        00000 
 5.84070e-03  1.03065e-02        00000 
 5.27021e-03  1.07497e-02        00000 
 4.86746e-03  1.11813e-02        00000 
 4.53714e-03  1.16265e-02        00000 
 4.24175e-03  1.20913e-02        00000 
 3.96734e-03  1.25780e-02        00000 
 3.71712e-03  1.30837e-02        00000 
 6.59502e-03  9.23939e-03        00000 
 5.51219e-03  9.65137e-03        00000 
 4.92823e-03  9.97278e-03        00000 
 4.51979e-03  1.02873e-02        00000 
 4.19050e-03  1.06116e-02        00000 
 3.90340e-03  1.09506e-02        00000 
 3.64338e-03  1.13058e-02        00000 
 3.40506e-03  1.16756e-02        00000 
 6.24533e-03  8.69509e-03        00000 
 5.16386e-03  8.91105e-03        00000 
 4.57696e-03  9.11239e-03        00000 
 4.16660e-03  9.31750e-03        00000 
 3.83856e-03  9.53059e-03        00000 
 3.55686e-03  9.75346e-03        00000 
 3.30564e-03  9.98694e-03        00000 
 3.07678e-03  1.02311e-02        00000 
 5.84530e-03  8.10070e-03        00000 
 4.81279e-03  8.11472e-03        00000 
 4.23704e-03  8.19901e-03        00000 
 3.82839e-03  8.30150e-03        00000 
 3.50058e-03  8.41127e-03        00000 
 3.22046e-03  8.52620e-03        00000 
 2.97282e-03  8.64619e-03        00000 
 2.74953e-03  8.77165e-03        00000 
 5.40813e-03  7.48656e-03        00000 
 4.47636e-03  7.31269e-03        00000 
 3.92603e-03  7.28694e-03        00000 
 3.52125e-03  7.29232e-03        00000 
 3.19099e-03  7.30401e-03        00000 
 2.90744e-03  7.31638e-03        00000 
 2.65726e-03  7.32838e-03        00000 
 2.43293e-03  7.33982e-03        00000 
 4.95539e-03  6.89029e-03        00000 
 4.16625e-03  6.56344e-03        00000 
 3.64976e-03  6.43867e-03        00000 
 3.24748e-03  6.35063e-03        00000 
 2.91007e-03  6.26593e-03        00000 
 2.61716e-03  6.17755e-03        00000 
 2.35804e-03  6.08441e-03        00000 
 2.12555e-03  5.98629e-03        00000 
 4.51218e-03  6.34670e-03        00000 
 3.88540e-03  5.91366e-03        00000 
 3.40082e-03  5.70088e-03        00000 
 2.99509e-03  5.51989e-03        00000 
 2.64402e-03  5.33675e-03        00000 
 2.33576e-03  5.14615e-03        00000 
 2.06266e-03  4.94882e-03        00000 
 1.81806e-03  4.74631e-03        00000 
 4.10064e-03  5.87864e-03        00000 
 3.63024e-03  5.38398e-03        00000 
 3.16570e-03  5.08928e-03        00000 
 2.74709e-03  4.81175e-03        00000 
 2.37514e-03  4.52514e-03        00000 
 2.04650e-03  4.22901e-03        00000 
 1.75715e-03  3.92777e-03        00000 
 1.50193e-03  3.62678e-03        00000 
 3.73527e-03  5.49385e-03        00000 
 3.39548e-03  4.96919e-03        00000 
 2.93352e-03  4.59166e-03        00000 
 2.49159e-03  4.21055e-03        00000 
 2.09222e-03  3.81431e-03        00000 
 1.73965e-03  3.40954e-03        00000 
 1.43480e-03  3.00559e-03        00000 
 1.17726e-03  2.61430e-03        00000 
 3.42200e-03  5.18755e-03        00000 
 3.17747e-03  4.64915e-03        00000 
 2.69954e-03  4.18174e-03        00000 
 2.22536e-03  3.68806e-03        00000 
 1.79365e-03  3.17722e-03        00000 
 1.41411e-03  2.66351e-03        00000 
 1.09702e-03  2.16008e-03        00000 
 8.56995e-04  1.69488e-03        00000 
 3.16045e-03  4.94762e-03        00000 
 2.97415e-03  4.40091e-03        00000 
 2.46377e-03  3.83128e-03        00000 
 1.95186e-03  3.21635e-03        00000 
 1.48409e-03  2.58949e-03        00000 
 1.07478e-03  1.97080e-03        00000 
 7.41581e-04  1.37933e-03        00000 
 5.74643e-04  8.55241e-04        00000 
 2.94729e-03  4.75952e-03        00000 
 2.78314e-03  4.20579e-03        00000 
 2.22945e-03  3.51494e-03        00000 
 1.67707e-03  2.77538e-03        00000 
 1.17019e-03  2.03403e-03        00000 
 7.26804e-04  1.31969e-03        00000 
 3.76328e-04  6.62213e-04        00000 
 2.23743e-04  1.54541e-04        00000 
 2.72648e-03  4.58416e-03        00000 
 2.64464e-03  4.14185e-03        00000 
 2.18604e-03  3.47834e-03        00000 
 1.67987e-03  2.75637e-03        00000 
 1.19605e-03  2.02797e-03        00000 
 7.48861e-04  1.31886e-03        00000 
 3.46284e-04  6.53990e-04        00000 
-1.70920e-19  5.43837e-20        00000 
 2.47478e-03  4.40767e-03        00000 
 2.46335e-03  4.07872e-03        00000 
 2.08905e-03  3.45222e-03        00000 
 1.64407e-03  2.74864e-03        00000 
 1.19604e-03  2.03247e-03        00000 
 7.66172e-04  1.32780e-03        00000 
 3.66516e-04  6.47361e-04        00000 
 5.87390e-20 -8.81085e-20        00000 
 2.19800e-03  4.23891e-03        00000 
 2.23225e-03  4.01995e-03        00000 
 1.93532e-03  3.43262e-03        00000 
 1.55664e-03  2.74940e-03        00000 
 1.15702e-03  2.04569e-03        00000 
 7.57549e-04  1.34608e-03        00000 
 3.69085e-04  6.60470e-04        00000 
 1.58049e-19  2.39209e-19        00000 
 1.90817e-03  4.09388e-03        00000 
 1.95431e-03  3.96636e-03        00000 
 1.72668e-03  3.41443e-03        00000 
 1.41532e-03  2.75044e-03        00000 
 1.07217e-03  2.05908e-03        00000 
 7.15894e-04  1.36675e-03        00000 
 3.55552e-04  6.79650e-04        00000 
-2.99871e-20 -2.99871e-19        00000 
 1.62498e-03  3.99453e-03        00000 
 1.64921e-03  3.91787e-03        00000 
 1.48039e-03  3.38997e-03        00000 
 1.23375e-03  2.74015e-03        00000 
 9.49597e-04  2.05892e-03        00000 
 6.44498e-04  1.37476e-03        00000 
 3.25879e-04  6.91655e-04        00000 
-1.98758e-20 -2.08449e-19        00000 
 1.37482e-03  3.96430e-03        00000 
 1.35707e-03  3.87674e-03        00000 
 1.23676e-03  3.35315e-03        00000 
 1.04841e-03  2.70860e-03        00000 
 8.18916e-04  2.03257e-03        00000 
 5.63621e-04  1.35534e-03        00000 
 2.89782e-04  6.82381e-04        00000 
 1.82533e-19  1.21689e-19        00000 
 1.18605e-03  4.02068e-03        00000 
 1.13260e-03  3.85101e-03        00000 
 1.05516e-03  3.30760e-03        00000 
 9.15499e-04  2.65718e-03        00000 
 7.28634e-04  1.97947e-03        00000 
 5.09615e-04  1.30544e-03        00000 
 2.66781e-04  6.46651e-04        00000 
-2.53481e-19 -2.08901e-19        00000 
 1.08090e-03  4.16781e-03        00000 
 1.02736e-03  3.85495e-03        00000 
 9.93850e-04  3.27153e-03        00000 
 8.91407e-04  2.60549e-03        00000 
 7.28470e-04  1.91901e-03        00000 
 5.20798e-04  1.24235e-03        00000 
 2.78150e-04  5.96324e-04        00000 
 9.12666e-20  1.82533e-19        00000 
 1.06790e-03  4.39371e-03        00000 
 1.06853e-03  3.90421e-03        00000 
 1.08409e-03  3.27186e-03        00000 
 1.00689e-03  2.58535e-03        00000 
 8.45919e-04  1.88502e-03        00000 
 6.18400e-04  1.19887e-03        00000 
 3.35604e-04  5.56762e-04        00000 
 1.29323e-19  6.46617e-20        00000 
 1.13944e-03  4.67453e-03        00000 
 1.24923e-03  4.00802e-03        00000 
 1.31877e-03  3.33034e-03        00000 
 1.25616e-03  2.62460e-03        00000 
 1.07703e-03  1.90926e-03        00000 
 7.99945e-04  1.20790e-03        00000 
 4.37720e-04  5.54111e-04        00000 
 1.29422e-20  1.18923e-19        00000 
 1.27580e-03  4.98293e-03        00000 
 1.53685e-03  4.16430e-03        00000 
 1.66303e-03  3.45352e-03        00000 
 1.60778e-03  2.73482e-03        00000 
 1.39803e-03  2.00865e-03        00000 
 1.05083e-03  1.29134e-03        00000 
 5.77873e-04  6.08388e-04        00000 
 2.64837e-19  1.36690e-19        00000 
 1.45243e-03  5.29526e-03        00000 
 1.89110e-03  4.36142e-03        00000 
 2.07402e-03  3.63369e-03        00000 
 2.02413e-03  2.91087e-03        00000 
 1.78451e-03  2.18388e-03        00000 
 1.36463e-03  1.46341e-03        00000 
 7.55966e-04  7.43096e-04        00000 
       00000  1.17478e-19        00000 
 1.64605e-03  5.59406e-03        00000 
 2.27875e-03  4.58476e-03        00000 
 2.51417e-03  3.85584e-03        00000 
 2.47529e-03  3.13710e-03        00000 
 2.22573e-03  2.42745e-03        00000 
 1.75635e-03  1.73432e-03        00000 
 1.02257e-03  1.03578e-03        00000 
-4.39487e-19 -3.77753e-19        00000 
 1.83805e-03  5.86698e-03        00000 
 2.67970e-03  4.82340e-03        00000 
 2.95344e-03  4.10205e-03        00000 
 2.94789e-03  3.39612e-03        00000 
 2.73775e-03  2.72984e-03        00000 
 2.36999e-03  2.13080e-03        00000 
 2.09679e-03  1.56051e-03        00000 
 3.32280e-03  7.77822e-04        00000 
 2.03198e-03  6.16933e-03        00000 
 2.99515e-03  5.26229e-03        00000 
 3.36592e-03  4.64676e-03        00000 
 3.50193e-03  4.07592e-03        00000 
 3.50290e-03  3.54165e-03        00000 
 3.43460e-03  3.08278e-03        00000 
 3.46603e-03  2.69794e-03        00000 
 3.82339e-03  2.13442e-03        00000 
 2.28796e-03  6.54468e-03        00000 
 3.36275e-03  5.78505e-03        00000 
 3.83295e-03  5.28378e-03        00000 
 4.09801e-03  4.83374e-03        00000 
 4.27764e-03  4.41656e-03        00000 
 4.43950e-03  4.05086e-03        00000 
 4.64524e-03  3.73710e-03        00000 
 4.93142e-03  3.41071e-03        00000 
 2.61592e-03  6.99931e-03        00000 
 3.78533e-03  6.40956e-03        00000 
 4.34955e-03  6.02530e-03        00000 
 4.73208e-03  5.69054e-03        00000 
 5.06122e-03  5.38205e-03        00000 
 5.39990e-03  5.10140e-03        00000 
 5.78035e-03  4.85137e-03        00000 
 6.18446e-03  4.62496e-03        00000 
 3.02389e-03  7.53289e-03        00000 
 4.25487e-03  7.14135e-03        00000 
 4.90241e-03  6.87665e-03        00000 
 5.38949e-03  6.65440e-03        00000 
 5.84413e-03  6.45391e-03        00000 
 6.32688e-03  6.26860e-03        00000 
 6.86917e-03  6.09785e-03        00000 
 7.46982e-03  5.95135e-03        00000 
 3.51201e-03  8.13363e-03        00000 
 4.75192e-03  7.96346e-03        00000 
 5.46661e-03  7.82244e-03        00000 
 6.04496e-03  7.71206e-03        00000 
 6.60682e-03  7.62288e-03        00000 
 7.20983e-03  7.54695e-03        00000 
 7.89270e-03  7.48011e-03        00000 
 8.68731e-03  7.42898e-03        00000 
 4.06629e-03  8.77526e-03        00000 
 5.24952e-03  8.83060e-03        00000 
 6.01055e-03  8.81686e-03        00000 
 6.66781e-03  8.81980e-03        00000 
 7.32350e-03  8.84609e-03        00000 
 8.02881e-03  8.89071e-03        00000 
 8.82431e-03  8.94748e-03        00000 
 9.76022e-03  9.01311e-03        00000 
 4.65652e-03  9.41906e-03        00000 
 5.72139e-03  9.67672e-03        00000 
 6.50837e-03  9.78955e-03        00000 
 7.23448e-03  9.90823e-03        00000 
 7.97485e-03  1.00535e-02        00000 
 8.76889e-03  1.02235e-02        00000 
 9.64881e-03  1.04107e-02        00000 
 1.06543e-02  1.06019e-02        00000 
 5.24211e-03  1.00229e-02        00000 
 6.15023e-03  1.04369e-02        00000 
 6.95063e-03  1.06706e-02        00000 
 7.73981e-03  1.09075e-02        00000 
 8.55930e-03  1.11741e-02        00000 
 9.43221e-03  1.14684e-02        00000 
 1.03743e-02  1.17800e-02        00000 
 1.13946e-02  1.20897e-02        00000 
 5.78402e-03  1.05532e-02        00000 
 6.53031e-03  1.10712e-02        00000 
 7.34393e-03  1.14190e-02        00000 
 8.19574e-03  1.17771e-02        00000 
 9.09179e-03  1.21674e-02        00000 
 1.00367e-02  1.25829e-02        00000 
 1.10278e-02  1.30084e-02        00000 
 1.20466e-02  1.34241e-02        00000 
 6.25542e-03  1.09930e-02        00000 
 6.86392e-03  1.15731e-02        00000 
 7.70109e-03  1.20323e-02        00000 
 8.61938e-03  1.25161e-02        00000 
 9.59155e-03  1.30335e-02        00000 
 1.06039e-02  1.35697e-02        00000 
 1.16386e-02  1.41045e-02        00000 
 1.26694e-02  1.46208e-02        00000 
 6.64561e-03  1.13420e-02        00000 
 7.15616e-03  1.19614e-02        00000 
 8.03238e-03  1.25344e-02        00000 
 9.02289e-03  1.31504e-02        00000 
 1.00719e-02  1.38002e-02        00000 
 1.11491e-02  1.44612e-02        00000 
 1.22252e-02  1.51101e-02        00000 
 1.32806e-02  1.57288e-02        00000 
 6.95678e-03  1.16115e-02        00000 
 7.41214e-03  1.22633e-02        00000 
 8.34340e-03  1.29578e-02        00000 
 9.41099e-03  1.37144e-02        00000 
 1.05382e-02  1.45019e-02        00000 
 1.16809e-02  1.52941e-02        00000 
 1.27941e-02  1.60653e-02        00000 
 1.38520e-02  1.67806e-02        00000 
 7.19780e-03  1.18178e-02        00000 
 7.63712e-03  1.25035e-02        00000 
 8.63667e-03  1.33322e-02        00000 
 9.78314e-03  1.42378e-02        00000 
 1.09905e-02  1.51655e-02        00000 
 1.22070e-02  1.60903e-02        00000 
 1.33452e-02  1.69835e-02        00000 
 1.43268e-02  1.77425e-02        00000 
 7.37857e-03  1.19775e-02        00000 
 7.83799e-03  1.26984e-02        00000 
 8.91200e-03  1.36830e-02        00000 
 1.01370e-02  1.47398e-02        00000 
 1.14278e-02  1.58069e-02        00000 
 1.27316e-02  1.68501e-02        00000 
 1.39250e-02  1.78175e-02        00000 
 1.45178e-02  1.86145e-02        00000 
 7.56328e-03  1.21277e-02        00000 
 7.90555e-03  1.27262e-02        00000 
 8.77327e-03  1.36481e-02        00000 
 9.81213e-03  1.46523e-02        00000 
 1.09218e-02  1.56713e-02        00000 
 1.20772e-02  1.66691e-02        00000 
 1.32684e-02  1.76195e-02        00000 
 1.44707e-02  1.83204e-02        00000 
 7.76135e-03  1.22712e-02        00000 
 7.99772e-03  1.27568e-02        00000 
 8.68490e-03  1.36094e-02        00000 
 9.53403e-03  1.45627e-02        00000 
 1.04563e-02  1.55395e-02        00000 
 1.14193e-02  1.65086e-02        00000 
 1.24112e-02  1.74476e-02        00000 
 1.33928e-02  1.83655e-02        00000 
 7.96067e-03  1.24007e-02        00000 
 8.11572e-03  1.27863e-02        00000 
 8.64184e-03  1.35722e-02        00000 
 9.31156e-03  1.44751e-02        00000 
 1.00496e-02  1.54143e-02        00000 
 1.08226e-02  1.63595e-02        00000 
 1.16118e-02  1.73034e-02        00000 
 1.24053e-02  1.82577e-02        00000 
 8.14487e-03  1.25023e-02        00000 
 8.25032e-03  1.28129e-02        00000 
 8.63507e-03  1.35403e-02        00000 
 9.14079e-03  1.43972e-02        00000 
 9.70670e-03  1.53019e-02        00000 
 1.03027e-02  1.62257e-02        00000 
 1.09122e-02  1.71612e-02        00000 
 1.15269e-02  1.81124e-02        00000 
 8.29480e-03  1.25575e-02        00000 
 8.37942e-03  1.28338e-02        00000 
 8.64387e-03  1.35179e-02        00000 
 9.00374e-03  1.43368e-02        00000 
 9.41501e-03  1.52115e-02        00000 
 9.85297e-03  1.61143e-02        00000 
 1.03030e-02  1.70358e-02        00000 
 1.07572e-02  1.79749e-02        00000 
 8.39230e-03  1.25479e-02        00000 
 8.47025e-03  1.28428e-02        00000 
 8.63327e-03  1.35052e-02        00000 
 8.86629e-03  1.42977e-02        00000 
 9.14273e-03  1.51490e-02        00000 
 9.44355e-03  1.60333e-02        00000 
 9.75633e-03  1.69405e-02        00000 
 1.00732e-02  1.78671e-02        00000 
 8.42516e-03  1.24616e-02        00000 
 8.48836e-03  1.28288e-02        00000 
 8.56153e-03  1.34940e-02        00000 
 8.68473e-03  1.42737e-02        00000 
 8.84578e-03  1.51100e-02        00000 
 9.03038e-03  1.59810e-02        00000 
 9.22804e-03  1.68769e-02        00000 
 9.43185e-03  1.77934e-02        00000 
 8.39110e-03  1.22990e-02        00000 
 8.41041e-03  1.27797e-02        00000 
 8.39632e-03  1.34679e-02        00000 
 8.42282e-03  1.42470e-02        00000 
 8.48570e-03  1.50770e-02        00000 
 8.57307e-03  1.59412e-02        00000 
 8.67538e-03  1.68312e-02        00000 
 8.78646e-03  1.77417e-02        00000 
 8.29816e-03  1.20733e-02        00000 
 8.23328e-03  1.26873e-02        00000 
 8.12906e-03  1.34089e-02        00000 
 8.06866e-03  1.41957e-02        00000 
 8.04778e-03  1.50265e-02        00000 
 8.05384e-03  1.58905e-02        00000 
 8.07658e-03  1.67810e-02        00000 
 8.10912e-03  1.76922e-02        00000 
 8.16133e-03  1.18063e-02        00000 
 7.97371e-03  1.25513e-02        00000 
 7.77657e-03  1.33067e-02        00000 
 7.63769e-03  1.41044e-02        00000 
 7.54510e-03  1.49407e-02        00000 
 7.48252e-03  1.58103e-02        00000 
 7.43740e-03  1.67084e-02        00000 
 7.40007e-03  1.76298e-02        00000 
 7.99785e-03  1.15212e-02        00000 
 7.65934e-03  1.23790e-02        00000 
 7.37014e-03  1.31618e-02        00000 
 7.16152e-03  1.39706e-02        00000 
 7.00713e-03  1.48153e-02        00000 
 6.88539e-03  1.56947e-02        00000 
 6.78083e-03  1.66074e-02        00000 
 6.67791e-03  1.75533e-02        00000 
 7.82357e-03  1.12371e-02        00000 
 7.31779e-03  1.21823e-02        00000 
 6.94209e-03  1.29832e-02        00000 
 6.67342e-03  1.38025e-02        00000 
 6.46453e-03  1.46579e-02        00000 
 6.28803e-03  1.55477e-02        00000 
 6.13198e-03  1.64806e-02        00000 
 5.95928e-03  1.74789e-02        00000 
 7.65124e-03  1.09674e-02        00000 
 6.96931e-03  1.19729e-02        00000 
 6.51857e-03  1.27830e-02        00000 
 6.19932e-03  1.36143e-02        00000 
 5.93888e-03  1.44818e-02        00000 
 5.70631e-03  1.53821e-02        00000 
 5.48523e-03  1.63095e-02        00000 
 5.25816e-03  1.74583e-02        00000 
 1.17687e-02  2.91226e-02        00000 
 1.08604e-02  3.03118e-02        00000 
 1.01433e-02  3.14857e-02        00000 
 9.48284e-03  3.27012e-02        00000 
 8.83186e-03  3.39228e-02        00000 
 8.16634e-03  3.51333e-02        00000 
 7.45245e-03  3.63224e-02        00000 
 6.52251e-03  3.74251e-02        00000 
 1.17057e-02  2.89966e-02        00000 
 1.07667e-02  3.00144e-02        00000 
 1.00447e-02  3.10013e-02        00000 
 9.37810e-03  3.20234e-02        00000 
 8.72454e-03  3.30603e-02        00000 
 8.06314e-03  3.40964e-02        00000 
 7.36600e-03  3.51231e-02        00000 
 6.69395e-03  3.61531e-02        00000 
 1.16322e-02  2.88391e-02        00000 
 1.06611e-02  2.96853e-02        00000 
 9.93437e-03  3.04904e-02        00000 
 9.26482e-03  3.13250e-02        00000 
 8.61242e-03  3.21787e-02        00000 
 7.95886e-03  3.30420e-02        00000 
 7.29665e-03  3.39122e-02        00000 
 6.65080e-03  3.47810e-02        00000 
 1.15479e-02  2.86446e-02        00000 
 1.05451e-02  2.93172e-02        00000 
 9.81373e-03  2.99463e-02        00000 
 9.14292e-03  3.05993e-02        00000 
 8.49377e-03  3.12722e-02        00000 
 7.85147e-03  3.19614e-02        00000 
 7.21139e-03  3.26652e-02        00000 
 6.58233e-03  3.33769e-02        00000 
 1.14537e-02  2.84097e-02        00000 
 1.04230e-02  2.89043e-02        00000 
 9.68700e-03  2.93639e-02        00000 
 9.01499e-03  2.98410e-02        00000 
 8.36938e-03  3.03360e-02        00000 
 7.73757e-03  3.08490e-02        00000 
 7.11505e-03  3.13808e-02        00000 
 6.50237e-03  3.19292e-02        00000 
 1.13523e-02  2.81357e-02        00000 
 1.03031e-02  2.84468e-02        00000 
 9.56164e-03  2.87432e-02        00000 
 8.88675e-03  2.90500e-02        00000 
 8.24250e-03  2.93697e-02        00000 
 7.61802e-03  2.97048e-02        00000 
 7.00893e-03  3.00583e-02        00000 
 6.41287e-03  3.04325e-02        00000 
 1.12486e-02  2.78313e-02        00000 