<?xml version="1.0" encoding="utf-8"?>
<VTKFile byte_order="LittleEndian" type="UnstructuredGrid" version="0.1">
   <UnstructuredGrid>
      <Piece NumberOfCells="31360" NumberOfPoints="34072">
         <Points>
            <DataArray Name="Points" NumberOfComponents="3" format="ascii" type="Float32">
0.2138 0.2138 0.0000
0.3261 0.3261 0.0000
0.4384 0.4384 0.0000
0.5508 0.5508 0.0000
0.6631 0.6631 0.0000
0.7754 0.7754 0.0000
0.8877 0.8877 0.0000
1.0000 1.0000 0.0000
0.1968 0.2296 0.0000
0.2911 0.3397 0.0000
0.3855 0.4497 0.0000
0.4798 0.5598 0.0000
0.5741 0.6698 0.0000
0.6685 0.7799 0.0000
0.7628 0.8899 0.0000
0.8571 1.0000 0.0000
0.1758 0.2461 0.0000
0.2527 0.3538 0.0000
0.3296 0.4615 0.0000
0.4066 0.5692 0.0000
0.4835 0.6769 0.0000
0.5604 0.7846 0.0000
0.6374 0.8923 0.0000
0.7143 1.0000 0.0000
0.1500 0.2626 0.0000
0.2102 0.3679 0.0000
0.2704 0.4733 0.0000
0.3306 0.5786 0.0000
0.3908 0.6840 0.0000
0.4510 0.7893 0.0000
0.5112 0.8947 0.0000
0.5714 1.0000 0.0000
0.1191 0.2779 0.0000
0.1633 0.3811 0.0000
0.2075 0.4842 0.0000
0.2517 0.5874 0.0000
0.2959 0.6905 0.0000
0.3402 0.7937 0.0000
0.3844 0.8968 0.0000
0.4286 1.0000 0.0000
0.0831 0.2908 0.0000
0.1120 0.3921 0.0000
0.1410 0.4934 0.0000
0.1699 0.5947 0.0000
0.1989 0.6960 0.0000
0.2278 0.7974 0.0000
0.2568 0.8987 0.0000
0.2857 1.0000 0.0000
0.0428 0.2994 0.0000
0.0571 0.3994 0.0000
0.0714 0.4995 0.0000
0.0857 0.5996 0.0000
0.1000 0.6997 0.0000
0.1143 0.7998 0.0000
0.1286 0.8999 0.0000
0.1429 1.0000 0.0000
0.0000 0.3024 0.0000
0.0000 0.4021 0.0000
0.0000 0.5017 0.0000
0.0000 0.6014 0.0000
0.0000 0.7010 0.0000
0.0000 0.8007 0.0000
0.0000 0.9003 0.0000
0.0000 1.0000 0.0000
-0.0428 0.2994 0.0000
-0.0571 0.3994 0.0000
-0.0714 0.4995 0.0000
-0.0857 0.5996 0.0000
-0.1000 0.6997 0.0000
-0.1143 0.7998 0.0000
-0.1286 0.8999 0.0000
-0.1429 1.0000 0.0000
-0.0831 0.2908 0.0000
-0.1120 0.3921 0.0000
-0.1410 0.4934 0.0000
-0.1699 0.5947 0.0000
-0.1989 0.6960 0.0000
-0.2278 0.7974 0.0000
-0.2568 0.8987 0.0000
-0.2857 1.0000 0.0000
-0.1191 0.2779 0.0000
-0.1633 0.3811 0.0000
-0.2075 0.4842 0.0000
-0.2517 0.5874 0.0000
-0.2959 0.6905 0.0000
-0.3402 0.7937 0.0000
-0.3844 0.8968 0.0000
-0.4286 1.0000 0.0000
-0.1500 0.2626 0.0000
-0.2102 0.3679 0.0000
-0.2704 0.4733 0.0000
-0.3306 0.5786 0.0000
-0.3908 0.6840 0.0000
-0.4510 0.7893 0.0000
-0.5112 0.8947 0.0000
-0.5714 1.0000 0.0000
-0.1758 0.2461 0.0000
-0.2527 0.3538 0.0000
-0.3296 0.4615 0.0000
-0.4066 0.5692 0.0000
-0.4835 0.6769 0.0000
-0.5604 0.7846 0.0000
-0.6374 0.8923 0.0000
-0.7143 1.0000 0.0000
-0.1968 0.2296 0.0000
-0.2911 0.3397 0.0000
-0.3855 0.4497 0.0000
-0.4798 0.5598 0.0000
-0.5741 0.6698 0.0000
-0.6685 0.7799 0.0000
-0.7628 0.8899 0.0000
-0.8571 1.0000 0.0000
-0.2138 0.2138 0.0000
-0.3261 0.3261 0.0000
-0.4384 0.4384 0.0000
-0.5508 0.5508 0.0000
-0.6631 0.6631 0.0000
-0.7754 0.7754 0.0000
-0.8877 0.8877 0.0000
-1.0000 1.0000 0.0000
-0.2296 0.1968 0.0000
-0.3397 0.2911 0.0000
-0.4497 0.3855 0.0000
-0.5598 0.4798 0.0000
-0.6698 0.5741 0.0000
-0.7799 0.6685 0.0000
-0.8899 0.7628 0.0000
-1.0000 0.8571 0.0000
-0.2461 0.1758 0.0000
-0.3538 0.2527 0.0000
-0.4615 0.3296 0.0000
-0.5692 0.4066 0.0000
-0.6769 0.4835 0.0000
-0.7846 0.5604 0.0000
-0.8923 0.6374 0.0000
-1.0000 0.7143 0.0000
-0.2626 0.1500 0.0000
-0.3679 0.2102 0.0000
-0.4733 0.2704 0.0000
-0.5786 0.3306 0.0000
-0.6840 0.3908 0.0000
-0.7893 0.4510 0.0000
-0.8947 0.5112 0.0000
-1.0000 0.5714 0.0000
-0.2779 0.1191 0.0000
-0.3811 0.1633 0.0000
-0.4842 0.2075 0.0000
-0.5874 0.2517 0.0000
-0.6905 0.2959 0.0000
-0.7937 0.3402 0.0000
-0.8968 0.3844 0.0000
-1.0000 0.4286 0.0000
-0.2908 0.0831 0.0000
-0.3921 0.1120 0.0000
-0.4934 0.1410 0.0000
-0.5947 0.1699 0.0000
-0.6960 0.1989 0.0000
-0.7974 0.2278 0.0000
-0.8987 0.2568 0.0000
-1.0000 0.2857 0.0000
-0.2994 0.0428 0.0000
-0.3994 0.0571 0.0000
-0.4995 0.0714 0.0000
-0.5996 0.0857 0.0000
-0.6997 0.1000 0.0000
-0.7998 0.1143 0.0000
-0.8999 0.1286 0.0000
-1.0000 0.1429 0.0000
-0.3024 0.0000 0.0000
-0.4021 0.0000 0.0000
-0.5017 0.0000 0.0000
-0.6014 0.0000 0.0000
-0.7010 0.0000 0.0000
-0.8007 0.0000 0.0000
-0.9003 0.0000 0.0000
-1.0000 0.0000 0.0000
-0.2994 -0.0428 0.0000
-0.3994 -0.0571 0.0000
-0.4995 -0.0714 0.0000
-0.5996 -0.0857 0.0000
-0.6997 -0.1000 0.0000
-0.7998 -0.1143 0.0000
-0.8999 -0.1286 0.0000
-1.0000 -0.1429 0.0000
-0.2908 -0.0831 0.0000
-0.3921 -0.1120 0.0000
-0.4934 -0.1410 0.0000
-0.5947 -0.1699 0.0000
-0.6960 -0.1989 0.0000
-0.7974 -0.2278 0.0000
-0.8987 -0.2568 0.0000
-1.0000 -0.2857 0.0000
-0.2779 -0.1191 0.0000
-0.3811 -0.1633 0.0000
-0.4842 -0.2075 0.0000
-0.5874 -0.2517 0.0000
-0.6905 -0.2959 0.0000
-0.7937 -0.3402 0.0000
-0.8968 -0.3844 0.0000
-1.0000 -0.4286 0.0000
-0.2626 -0.1500 0.0000
-0.3679 -0.2102 0.0000
-0.4733 -0.2704 0.0000
-0.5786 -0.3306 0.0000
-0.6840 -0.3908 0.0000
-0.7893 -0.4510 0.0000
-0.8947 -0.5112 0.0000
-1.0000 -0.5714 0.0000
-0.2461 -0.1758 0.0000
-0.3538 -0.2527 0.0000
-0.4615 -0.3296 0.0000
-0.5692 -0.4066 0.0000
-0.6769 -0.4835 0.0000
-0.7846 -0.5604 0.0000
-0.8923 -0.6374 0.0000
-1.0000 -0.7143 0.0000
-0.2296 -0.1968 0.0000
-0.3397 -0.2911 0.0000
-0.4497 -0.3855 0.0000
-0.5598 -0.4798 0.0000
-0.6698 -0.5741 0.0000
-0.7799 -0.6685 0.0000
-0.8899 -0.7628 0.0000
-1.0000 -0.8571 0.0000
-0.2138 -0.2138 0.0000
-0.3261 -0.3261 0.0000
-0.4384 -0.4384 0.0000
-0.5508 -0.5508 0.0000
-0.6631 -0.6631 0.0000
-0.7754 -0.7754 0.0000
-0.8877 -0.8877 0.0000
-1.0000 -1.0000 0.0000
-0.1968 -0.2296 0.0000
-0.2911 -0.3397 0.0000
-0.3855 -0.4497 0.0000
-0.4798 -0.5598 0.0000
-0.5741 -0.6698 0.0000
-0.6685 -0.7799 0.0000
-0.7628 -0.8899 0.0000
-0.8571 -1.0000 0.0000
-0.1758 -0.2461 0.0000
-0.2527 -0.3538 0.0000
-0.3296 -0.4615 0.0000
-0.4066 -0.5692 0.0000
-0.4835 -0.6769 0.0000
-0.5604 -0.7846 0.0000
-0.6374 -0.8923 0.0000
-0.7143 -1.0000 0.0000
-0.1500 -0.2626 0.0000
-0.2102 -0.3679 0.0000
-0.2704 -0.4733 0.0000
-0.3306 -0.5786 0.0000
-0.3908 -0.6840 0.0000
-0.4510 -0.7893 0.0000
-0.5112 -0.8947 0.0000
-0.5714 -1.0000 0.0000
-0.1191 -0.2779 0.0000
-0.1633 -0.3811 0.0000
-0.2075 -0.4842 0.0000
-0.2517 -0.5874 0.0000
-0.2959 -0.6905 0.0000
-0.3402 -0.7937 0.0000
-0.3844 -0.8968 0.0000
-0.4286 -1.0000 0.0000
-0.0831 -0.2908 0.0000
-0.1120 -0.3921 0.0000
-0.1410 -0.4934 0.0000
-0.1699 -0.5947 0.0000
-0.1989 -0.6960 0.0000
-0.2278 -0.7974 0.0000
-0.2568 -0.8987 0.0000
-0.2857 -1.0000 0.0000
-0.0428 -0.2994 0.0000
-0.0571 -0.3994 0.0000
-0.0714 -0.4995 0.0000
-0.0857 -0.5996 0.0000
-0.1000 -0.6997 0.0000
-0.1143 -0.7998 0.0000
-0.1286 -0.8999 0.0000
-0.1429 -1.0000 0.0000
0.0000 -0.3024 0.0000
0.0000 -0.4021 0.0000
0.0000 -0.5017 0.0000
0.0000 -0.6014 0.0000
0.0000 -0.7010 0.0000
0.0000 -0.8007 0.0000
0.0000 -0.9003 0.0000
0.0000 -1.0000 0.0000
0.0428 -0.2994 0.0000
0.0571 -0.3994 0.0000
0.0714 -0.4995 0.0000
0.0857 -0.5996 0.0000
0.1000 -0.6997 0.0000
0.1143 -0.7998 0.0000
0.1286 -0.8999 0.0000
0.1429 -1.0000 0.0000
0.0831 -0.2908 0.0000
0.1120 -0.3921 0.0000
0.1410 -0.4934 0.0000
0.1699 -0.5947 0.0000
0.1989 -0.6960 0.0000
0.2278 -0.7974 0.0000
0.2568 -0.8987 0.0000
0.2857 -1.0000 0.0000
0.1191 -0.2779 0.0000
0.1633 -0.3811 0.0000
0.2075 -0.4842 0.0000
0.2517 -0.5874 0.0000
0.2959 -0.6905 0.0000
0.3402 -0.7937 0.0000
0.3844 -0.8968 0.0000
0.4286 -1.0000 0.0000
0.1500 -0.2626 0.0000
0.2102 -0.3679 0.0000
0.2704 -0.4733 0.0000
0.3306 -0.5786 0.0000
0.3908 -0.6840 0.0000
0.4510 -0.7893 0.0000
0.5112 -0.8947 0.0000
0.5714 -1.0000 0.0000
0.1758 -0.2461 0.0000
0.2527 -0.3538 0.0000
0.3296 -0.4615 0.0000
0.4066 -0.5692 0.0000
0.4835 -0.6769 0.0000
0.5604 -0.7846 0.0000
0.6374 -0.8923 0.0000
0.7143 -1.0000 0.0000
0.1968 -0.2296 0.0000
0.2911 -0.3397 0.0000
0.3855 -0.4497 0.0000
0.4798 -0.5598 0.0000
0.5741 -0.6698 0.0000
0.6685 -0.7799 0.0000
0.7628 -0.8899 0.0000
0.8571 -1.0000 0.0000
0.2138 -0.2138 0.0000
0.3261 -0.3261 0.0000
0.4384 -0.4384 0.0000
0.5508 -0.5508 0.0000
0.6631 -0.6631 0.0000
0.7754 -0.7754 0.0000
0.8877 -0.8877 0.0000
1.0000 -1.0000 0.0000
0.2296 -0.1968 0.0000
0.3397 -0.2911 0.0000
0.4497 -0.3855 0.0000
0.5598 -0.4798 0.0000
0.6698 -0.5741 0.0000
0.7799 -0.6685 0.0000
0.8899 -0.7628 0.0000
1.0000 -0.8571 0.0000
0.2461 -0.1758 0.0000
0.3538 -0.2527 0.0000
0.4615 -0.3296 0.0000
0.5692 -0.4066 0.0000
0.6769 -0.4835 0.0000
0.7846 -0.5604 0.0000
0.8923 -0.6374 0.0000
1.0000 -0.7143 0.0000
0.2626 -0.1500 0.0000
0.3679 -0.2102 0.0000
0.4733 -0.2704 0.0000
0.5786 -0.3306 0.0000
0.6840 -0.3908 0.0000
0.7893 -0.4510 0.0000
0.8947 -0.5112 0.0000
1.0000 -0.5714 0.0000
0.2779 -0.1191 0.0000
0.3811 -0.1633 0.0000
0.4842 -0.2075 0.0000
0.5874 -0.2517 0.0000
0.6905 -0.2959 0.0000
0.7937 -0.3402 0.0000
0.8968 -0.3844 0.0000
1.0000 -0.4286 0.0000
0.2908 -0.0831 0.0000
0.3921 -0.1120 0.0000
0.4934 -0.1410 0.0000
0.5947 -0.1699 0.0000
0.6960 -0.1989 0.0000
0.7974 -0.2278 0.0000
0.8987 -0.2568 0.0000
1.0000 -0.2857 0.0000
0.2994 -0.0428 0.0000
0.3994 -0.0571 0.0000
0.4995 -0.0714 0.0000
0.5996 -0.0857 0.0000
0.6997 -0.1000 0.0000
0.7998 -0.1143 0.0000
0.8999 -0.1286 0.0000
1.0000 -0.1429 0.0000
0.3024 0.0000 0.0000
0.4021 0.0000 0.0000
0.5017 0.0000 0.0000
0.6014 0.0000 0.0000
0.7010 0.0000 0.0000
0.8007 0.0000 0.0000
0.9003 0.0000 0.0000
1.0000 0.0000 0.0000
0.2994 0.0428 0.0000
0.3994 0.0571 0.0000
0.4995 0.0714 0.0000
0.5996 0.0857 0.0000
0.6997 0.1000 0.0000
0.7998 0.1143 0.0000
0.8999 0.1286 0.0000
1.0000 0.1429 0.0000
0.2908 0.0831 0.0000
0.3921 0.1120 0.0000
0.4934 0.1410 0.0000
0.5947 0.1699 0.0000
0.6960 0.1989 0.0000
0.7974 0.2278 0.0000
0.8987 0.2568 0.0000
1.0000 0.2857 0.0000
0.2779 0.1191 0.0000
0.3811 0.1633 0.0000
0.4842 0.2075 0.0000
0.5874 0.2517 0.0000
0.6905 0.2959 0.0000
0.7937 0.3402 0.0000
0.8968 0.3844 0.0000
1.0000 0.4286 0.0000
0.2626 0.1500 0.0000
0.3679 0.2102 0.0000
0.4733 0.2704 0.0000
0.5786 0.3306 0.0000
0.6840 0.3908 0.0000
0.7893 0.4510 0.0000
0.8947 0.5112 0.0000
1.0000 0.5714 0.0000
0.2461 0.1758 0.0000
0.3538 0.2527 0.0000
0.4615 0.3296 0.0000
0.5692 0.4066 0.0000
0.6769 0.4835 0.0000
0.7846 0.5604 0.0000
0.8923 0.6374 0.0000
1.0000 0.7143 0.0000
0.2296 0.1968 0.0000
[...]
         <PointData>
            <DataArray Name="fValues" NumberOfComponents="3" format="ascii" type="Float64">
 9.72134e-04  3.63123e-04        00000 
 8.87043e-04  4.38600e-04        00000 
 8.61830e-04  4.79417e-04        00000 
 8.50070e-04  5.17052e-04        00000 
 8.41748e-04  5.55749e-04        00000 
 8.31537e-04  5.96894e-04        00000 
 8.07979e-04  6.44968e-04        00000 
 7.25443e-04  7.14456e-04        00000 
 9.41494e-04  3.46753e-04        00000 
 8.51372e-04  4.07000e-04        00000 
 8.20794e-04  4.42717e-04        00000 
 8.04028e-04  4.72781e-04        00000 
 7.90486e-04  5.02581e-04        00000 
 7.75070e-04  5.32713e-04        00000 
 7.50458e-04  5.64167e-04        00000 
 7.09465e-04  6.04360e-04        00000 
 9.03935e-04  3.27409e-04        00000 
 8.11885e-04  3.72183e-04        00000 
 7.76480e-04  4.01291e-04        00000 
 7.55334e-04  4.25250e-04        00000 
 7.37703e-04  4.47895e-04        00000 
 7.19195e-04  4.70624e-04        00000 
 6.96863e-04  4.94871e-04        00000 
 6.71303e-04  5.23728e-04        00000 
 8.58903e-04  3.05446e-04        00000 
 7.68400e-04  3.33968e-04        00000 
 7.29575e-04  3.55833e-04        00000 
 7.04681e-04  3.74138e-04        00000 
 6.83787e-04  3.90932e-04        00000 
 6.63237e-04  4.07530e-04        00000 
 6.41672e-04  4.25088e-04        00000 
 6.19622e-04  4.44602e-04        00000 
 8.06131e-04  2.81537e-04        00000 
 7.21465e-04  2.93276e-04        00000 
 6.81043e-04  3.07654e-04        00000 
 6.53292e-04  3.20541e-04        00000 
 6.29723e-04  3.32221e-04        00000 
 6.07356e-04  3.43449e-04        00000 
 5.85213e-04  3.54914e-04        00000 
 5.63339e-04  3.67040e-04        00000 
 7.46152e-04  2.56727e-04        00000 
 6.72208e-04  2.52378e-04        00000 
 6.32237e-04  2.59344e-04        00000 
 6.02617e-04  2.67025e-04        00000 
 5.76827e-04  2.74012e-04        00000 
 5.52600e-04  2.80430e-04        00000 
 5.29153e-04  2.86612e-04        00000 
 5.06319e-04  2.92791e-04        00000 
 6.80733e-04  2.32411e-04        00000 
 6.22075e-04  2.14612e-04        00000 
 5.84492e-04  2.14756e-04        00000 
 5.53864e-04  2.17488e-04        00000 
 5.26157e-04  2.20043e-04        00000 
 4.99962e-04  2.22040e-04        00000 
 4.74763e-04  2.23576e-04        00000 
 4.50390e-04  2.24783e-04        00000 
 6.12925e-04  2.10136e-04        00000 
 5.72512e-04  1.83409e-04        00000 
 5.38560e-04  1.77934e-04        00000 
 5.07388e-04  1.76058e-04        00000 
 4.77837e-04  1.74333e-04        00000 
 4.49492e-04  1.72127e-04        00000 
 4.22189e-04  1.69425e-04        00000 
 3.95850e-04  1.66307e-04        00000 
 5.46499e-04  1.91243e-04        00000 
 5.24721e-04  1.60991e-04        00000 
 4.94419e-04  1.51384e-04        00000 
 4.62556e-04  1.45245e-04        00000 
 4.30929e-04  1.39295e-04        00000 
 4.00151e-04  1.32970e-04        00000 
 3.70446e-04  1.26292e-04        00000 
 3.41852e-04  1.19364e-04        00000 
 4.84986e-04  1.76509e-04        00000 
 4.79581e-04  1.47537e-04        00000 
 4.51684e-04  1.34977e-04        00000 
 4.18383e-04  1.24747e-04        00000 
 3.84176e-04  1.14521e-04        00000 
 3.50622e-04  1.04104e-04        00000 
 3.18301e-04  9.37064e-05        00000 
 2.87367e-04  8.35446e-05        00000 
 4.30824e-04  1.66002e-04        00000 
 4.37699e-04  1.41398e-04        00000 
 4.10186e-04  1.26351e-04        00000 
 3.74352e-04  1.11931e-04        00000 
 3.36933e-04  9.72965e-05        00000 
 3.00288e-04  8.28443e-05        00000 
 2.65312e-04  6.91164e-05        00000 
 2.32220e-04  5.65504e-05        00000 
 3.85030e-04  1.59195e-04        00000 
 3.99484e-04  1.40085e-04        00000 
 3.70174e-04  1.22329e-04        00000 
 3.30677e-04  1.03392e-04        00000 
 2.89447e-04  8.42190e-05        00000 
 2.49507e-04  6.59014e-05        00000 
 2.12129e-04  4.94434e-05        00000 
 1.77517e-04  3.57664e-05        00000 
 3.47458e-04  1.55209e-04        00000 
 3.65136e-04  1.41329e-04        00000 
 3.32079e-04  1.20158e-04        00000 
 2.88014e-04  9.62549e-05        00000 
 2.42472e-04  7.25855e-05        00000 
 1.99120e-04  5.07162e-05        00000 
 1.60073e-04  3.23044e-05        00000 
 1.25686e-04  1.94538e-05        00000 
 3.17331e-04  1.53069e-04        00000 
 3.34554e-04  1.43659e-04        00000 
 2.96253e-04  1.17895e-04        00000 
 2.47099e-04  8.86841e-05        00000 
 1.96770e-04  6.09440e-05        00000 
 1.49540e-04  3.60754e-05        00000 
 1.10873e-04  1.58692e-05        00000 
 8.11989e-05  7.28241e-06        00000 
 2.93747e-04  1.51868e-04        00000 
 3.07217e-04  1.46473e-04        00000 
 2.63039e-04  1.14099e-04        00000 
 2.08428e-04  8.00856e-05        00000 
 1.52739e-04  4.88190e-05        00000 
 1.00886e-04  2.19085e-05        00000 
 6.10663e-05  2.33701e-07        00000 
 6.82588e-05 -1.68860e-05        00000 
 2.69697e-04  1.50428e-04        00000 
 2.82416e-04  1.52515e-04        00000 
 2.47830e-04  1.22520e-04        00000 
 1.99519e-04  8.92547e-05        00000 
 1.48071e-04  5.81460e-05        00000 
 9.66913e-05  3.08891e-05        00000 
 4.69551e-05  8.48675e-06        00000 
 2.42784e-21 -2.06367e-21        00000 
 2.43555e-04  1.50383e-04        00000 
 2.54935e-04  1.58113e-04        00000 
 2.27479e-04  1.30979e-04        00000 
 1.86416e-04  9.86262e-05        00000 
 1.40364e-04  6.76693e-05        00000 
 9.27583e-05  3.97839e-05        00000 
 4.51971e-05  1.62251e-05        00000 
-1.10136e-20 -1.60614e-21        00000 
 2.16642e-04  1.52022e-04        00000 
 2.25108e-04  1.63205e-04        00000 
 2.03227e-04  1.38412e-04        00000 
 1.69013e-04  1.07135e-04        00000 
 1.29104e-04  7.63747e-05        00000 
 8.64871e-05  4.79385e-05        00000 
 4.28624e-05  2.22327e-05        00000 
 2.66974e-20  5.87344e-21        00000 
 1.90919e-04  1.56040e-04        00000 
 1.94648e-04  1.67359e-04        00000 
 1.77058e-04  1.43830e-04        00000 
 1.48860e-04  1.13364e-04        00000 
 1.15020e-04  8.28246e-05        00000 
 7.80214e-05  5.39769e-05        00000 
 3.92559e-05  2.66814e-05        00000 
-2.99871e-20 -1.87419e-20        00000 
 1.68977e-04  1.63361e-04        00000 
 1.66944e-04  1.70183e-04        00000 
 1.52481e-04  1.46364e-04        00000 
 1.29196e-04  1.16115e-04        00000 
 1.00599e-04  8.56194e-05        00000 
 6.88308e-05  5.65542e-05        00000 
 3.50551e-05  2.86318e-05        00000 
 8.75903e-21  2.44022e-21        00000 
 1.53750e-04  1.74819e-04        00000 
 1.46769e-04  1.71835e-04        00000 
 1.34593e-04  1.45893e-04        00000 
 1.14871e-04  1.15112e-04        00000 
 8.99725e-05  8.43384e-05        00000 
 6.19025e-05  5.51118e-05        00000 
 3.18057e-05  2.74787e-05        00000 
-7.60555e-21 -1.14083e-20        00000 
 1.47876e-04  1.90782e-04        00000 
 1.39070e-04  1.73356e-04        00000 
 1.28870e-04  1.43745e-04        00000 
 1.11172e-04  1.11800e-04        00000 
 8.77930e-05  8.04065e-05        00000 
 6.08015e-05  5.08791e-05        00000 
 3.14737e-05  2.39739e-05        00000 
 5.40558e-21  1.50550e-20        00000 
 1.52867e-04  2.10866e-04        00000 
 1.47094e-04  1.76546e-04        00000 
 1.38935e-04  1.42692e-04        00000 
 1.21597e-04  1.09365e-04        00000 
 9.71551e-05  7.71231e-05        00000 
 6.79287e-05  4.69625e-05        00000 
 3.54030e-05  2.04351e-05        00000 
 1.52111e-20 -1.90139e-21        00000 
 1.68507e-04  2.33924e-04        00000 
 1.70881e-04  1.83267e-04        00000 
 1.64752e-04  1.45837e-04        00000 
 1.46081e-04  1.11448e-04        00000 
 1.17986e-04  7.83411e-05        00000 
 8.32010e-05  4.70768e-05        00000 
 4.35254e-05  1.97048e-05        00000 
-1.61654e-20  6.06203e-21        00000 
 1.92892e-04  2.58375e-04        00000 
 2.07244e-04  1.94567e-04        00000 
 2.02761e-04  1.55126e-04        00000 
 1.81237e-04  1.20425e-04        00000 
 1.47386e-04  8.66977e-05        00000 
 1.04439e-04  5.38739e-05        00000 
 5.46362e-05  2.37882e-05        00000 
 1.71241e-20 -1.08728e-20        00000 
 2.23079e-04  2.82688e-04        00000 
 2.51307e-04  2.10238e-04        00000 
 2.47788e-04  1.70680e-04        00000 
 2.22309e-04  1.36631e-04        00000 
 1.81572e-04  1.02838e-04        00000 
 1.29154e-04  6.83502e-05        00000 
 6.75396e-05  3.36338e-05        00000 
 4.48515e-20  9.07708e-21        00000 
 2.55939e-04  3.05686e-04        00000 
 2.98459e-04  2.29131e-04        00000 
 2.95063e-04  1.91279e-04        00000 
 2.65110e-04  1.58808e-04        00000 
 2.17782e-04  1.25841e-04        00000 
 1.56462e-04  9.07336e-05        00000 
 8.20985e-05  5.05236e-05        00000 
 2.20271e-20  1.46848e-20        00000 
 2.88772e-04  3.26537e-04        00000 
 3.45584e-04  2.49911e-04        00000 
 3.41079e-04  2.15209e-04        00000 
 3.06981e-04  1.84943e-04        00000 
 2.55259e-04  1.54313e-04        00000 
 1.87880e-04  1.21103e-04        00000 
 1.03076e-04  8.09385e-05        00000 
 1.63931e-20  9.17720e-22        00000 
 3.19573e-04  3.44541e-04        00000 
 3.91308e-04  2.71789e-04        00000 
 3.83227e-04  2.40558e-04        00000 
 3.47372e-04  2.13185e-04        00000 
 2.95879e-04  1.87014e-04        00000 
 2.36284e-04  1.61283e-04        00000 
 1.93377e-04  1.30316e-04        00000 
 2.93096e-04  7.35111e-05        00000 
 3.49950e-04  3.64650e-04        00000 
 4.31870e-04  3.05803e-04        00000 
 4.34719e-04  2.78877e-04        00000 
 4.12926e-04  2.58938e-04        00000 
 3.80303e-04  2.41332e-04        00000 
 3.45345e-04  2.27004e-04        00000 
 3.24975e-04  2.14068e-04        00000 
 3.38840e-04  1.79226e-04        00000 
 3.88971e-04  3.88978e-04        00000 
 4.78041e-04  3.44828e-04        00000 
 4.91553e-04  3.23993e-04        00000 
 4.82757e-04  3.10111e-04        00000 
 4.66321e-04  2.99332e-04        00000 
 4.50262e-04  2.91201e-04        00000 
 4.41515e-04  2.84235e-04        00000 
 4.43539e-04  2.72015e-04        00000 
 4.37809e-04  4.17188e-04        00000 
 5.30261e-04  3.89445e-04        00000 
 5.53112e-04  3.75474e-04        00000 
 5.56231e-04  3.67374e-04        00000 
 5.53639e-04  3.62399e-04        00000 
 5.52189e-04  3.59160e-04        00000 
 5.55915e-04  3.56511e-04        00000 
 5.64139e-04  3.53060e-04        00000 
 4.97338e-04  4.48365e-04        00000 
 5.87922e-04  4.38706e-04        00000 
 6.18216e-04  4.32007e-04        00000 
 6.31905e-04  4.29625e-04        00000 
 6.41270e-04  4.30248e-04        00000 
 6.52048e-04  4.32396e-04        00000 
 6.67685e-04  4.34837e-04        00000 
 6.89413e-04  4.37446e-04        00000 
 5.67357e-04  4.80833e-04        00000 
 6.49441e-04  4.89537e-04        00000 
 6.84896e-04  4.90321e-04        00000 
 7.07763e-04  4.93653e-04        00000 
 7.27699e-04  5.00004e-04        00000 
 7.49168e-04  5.08310e-04        00000 
 7.75401e-04  5.17353e-04        00000 
 8.09947e-04  5.26578e-04        00000 
 6.45808e-04  5.12196e-04        00000 
 7.12651e-04  5.36904e-04        00000 
 7.50963e-04  5.44992e-04        00000 
 7.81837e-04  5.54093e-04        00000 
 8.11430e-04  5.66313e-04        00000 
 8.42626e-04  5.81150e-04        00000 
 8.77783e-04  5.97525e-04        00000 
 9.20410e-04  6.14107e-04        00000 
 7.28536e-04  5.39791e-04        00000 
 7.75408e-04  5.75314e-04        00000 
 8.14977e-04  5.89970e-04        00000 
 8.53168e-04  6.04923e-04        00000 
 8.91974e-04  6.23102e-04        00000 
 9.32398e-04  6.44282e-04        00000 
 9.75199e-04  6.67450e-04        00000 
 1.02127e-03  6.90816e-04        00000 
 8.10070e-04  5.61479e-04        00000 
 8.36045e-04  6.01165e-04        00000 
 8.76700e-04  6.21379e-04        00000 
 9.22207e-04  6.42348e-04        00000 
 9.70225e-04  6.66616e-04        00000 
 1.01978e-03  6.93711e-04        00000 
 1.06987e-03  7.22447e-04        00000 
 1.11830e-03  7.51145e-04        00000 
 8.85162e-04  5.76340e-04        00000 
 8.93397e-04  6.14333e-04        00000 
 9.36494e-04  6.39438e-04        00000 
 9.89999e-04  6.66783e-04        00000 
 1.04760e-03  6.97472e-04        00000 
 1.10652e-03  7.30368e-04        00000 
 1.16449e-03  7.63967e-04        00000 
 1.21827e-03  7.97151e-04        00000 
 9.50220e-04  5.84793e-04        00000 
 9.46571e-04  6.17737e-04        00000 
 9.94383e-04  6.47786e-04        00000 
 1.05701e-03  6.82103e-04        00000 
 1.12488e-03  7.19829e-04        00000 
 1.19365e-03  7.59105e-04        00000 
 1.26048e-03  7.98184e-04        00000 
 1.32375e-03  8.36417e-04        00000 
 1.00385e-03  5.88178e-04        00000 
 9.94830e-04  6.15444e-04        00000 
 1.04979e-03  6.51110e-04        00000 
 1.12281e-03  6.93153e-04        00000 
 1.20184e-03  7.38712e-04        00000 
 1.28123e-03  7.85541e-04        00000 
 1.35754e-03  8.31774e-04        00000 
 1.43129e-03  8.75921e-04        00000 
 1.04642e-03  5.88177e-04        00000 
 1.03773e-03  6.10873e-04        00000 
 1.10198e-03  6.53215e-04        00000 
 1.18651e-03  7.03800e-04        00000 
 1.27784e-03  7.57820e-04        00000 
 1.36910e-03  8.13347e-04        00000 
 1.45458e-03  8.68047e-04        00000 
 1.53262e-03  9.16440e-04        00000 
 1.07920e-03  5.86387e-04        00000 
 1.07536e-03  6.05999e-04        00000 
 1.15048e-03  6.56552e-04        00000 
 1.24726e-03  7.16323e-04        00000 
 1.35230e-03  7.78741e-04        00000 
 1.45800e-03  8.42775e-04        00000 
 1.55067e-03  9.05058e-04        00000 
 1.61716e-03  9.46879e-04        00000 
 1.10357e-03  5.84105e-04        00000 
 1.10846e-03  6.01424e-04        00000 
 1.19493e-03  6.62808e-04        00000 
 1.30460e-03  7.31253e-04        00000 
 1.42503e-03  8.01391e-04        00000 
 1.54867e-03  8.70652e-04        00000 
 1.65430e-03  9.30811e-04        00000 
 1.65168e-03  9.63986e-04        00000 
 1.12806e-03  5.82413e-04        00000 
 1.13287e-03  5.90550e-04        00000 
 1.20281e-03  6.45953e-04        00000 
 1.29865e-03  7.09494e-04        00000 
 1.40704e-03  7.74294e-04        00000 
 1.52486e-03  8.37183e-04        00000 
 1.65111e-03  8.94940e-04        00000 
 1.78138e-03  9.10240e-04        00000 
 1.15342e-03  5.78269e-04        00000 
 1.15848e-03  5.80407e-04        00000 
 1.21502e-03  6.29589e-04        00000 
 1.29560e-03  6.88461e-04        00000 
 1.38932e-03  7.49037e-04        00000 
 1.49191e-03  8.08886e-04        00000 
 1.60178e-03  8.65568e-04        00000 
 1.71179e-03  9.21320e-04        00000 
 1.17747e-03  5.71486e-04        00000 
 1.18420e-03  5.71118e-04        00000 
 1.22928e-03  6.15072e-04        00000 
 1.29514e-03  6.69428e-04        00000 
 1.37333e-03  7.26528e-04        00000 
 1.45951e-03  7.84249e-04        00000 
 1.55090e-03  8.42991e-04        00000 
 1.64550e-03  9.05768e-04        00000 
 1.19736e-03  5.61551e-04        00000 
 1.20720e-03  5.63227e-04        00000 
 1.24246e-03  6.03518e-04        00000 
 1.29483e-03  6.53944e-04        00000 
 1.35809e-03  7.07897e-04        00000 
 1.42845e-03  7.63780e-04        00000 
 1.50360e-03  8.22048e-04        00000 
 1.58245e-03  8.84421e-04        00000 
 1.20988e-03  5.47924e-04        00000 
 1.22301e-03  5.57074e-04        00000 
 1.24997e-03  5.95679e-04        00000 
 1.29042e-03  6.43037e-04        00000 
 1.34025e-03  6.94175e-04        00000 
 1.39636e-03  7.47915e-04        00000 
 1.45684e-03  8.04451e-04        00000 
 1.52071e-03  8.64534e-04        00000 
 1.21216e-03  5.30409e-04        00000 
 1.22651e-03  5.52182e-04        00000 
 1.24627e-03  5.91217e-04        00000 
 1.27658e-03  6.36490e-04        00000 
 1.31492e-03  6.85206e-04        00000 
 1.35881e-03  7.36710e-04        00000 
 1.40655e-03  7.91071e-04        00000 
 1.45711e-03  8.48572e-04        00000 
 1.20260e-03  5.09431e-04        00000 
 1.21391e-03  5.47085e-04        00000 
 1.22688e-03  5.88204e-04        00000 
 1.24872e-03  6.32278e-04        00000 
 1.27765e-03  6.79039e-04        00000 
 1.31152e-03  7.28496e-04        00000 
 1.34875e-03  7.80762e-04        00000 
 1.38830e-03  8.35934e-04        00000 
 1.18155e-03  4.86064e-04        00000 
 1.18461e-03  5.39865e-04        00000 
 1.19071e-03  5.83673e-04        00000 
 1.20546e-03  6.27094e-04        00000 
 1.22687e-03  6.72346e-04        00000 
 1.25279e-03  7.20128e-04        00000 
 1.28168e-03  7.70661e-04        00000 
 1.31256e-03  8.23951e-04        00000 
 1.15133e-03  4.61770e-04        00000 
 1.14167e-03  5.29106e-04        00000 
 1.14076e-03  5.75074e-04        00000 
 1.14955e-03  6.17955e-04        00000 
 1.16499e-03  6.62030e-04        00000 
 1.18463e-03  7.08572e-04        00000 
 1.20687e-03  7.57870e-04        00000 
 1.23078e-03  8.09786e-04        00000 
 1.11531e-03  4.37981e-04        00000 
 1.09040e-03  5.14541e-04        00000 
 1.08268e-03  5.61470e-04        00000 
 1.08643e-03  6.03610e-04        00000 
 1.09702e-03  6.46698e-04        00000 
 1.11152e-03  6.92423e-04        00000 
 1.12812e-03  7.41091e-04        00000 
 1.14580e-03  7.92280e-04        00000 
 1.07697e-03  4.15745e-04        00000 
 1.03622e-03  4.96997e-04        00000 
 1.02226e-03  5.43565e-04        00000 
 1.02172e-03  5.84654e-04        00000 
 1.02813e-03  6.26833e-04        00000 
 1.03808e-03  6.72098e-04        00000 
 1.04949e-03  7.20917e-04        00000 
 1.06073e-03  7.72635e-04        00000 
 1.03914e-03  3.95657e-04        00000 
 9.83141e-04  4.77813e-04        00000 
 9.63756e-04  5.22885e-04        00000 
 9.59562e-04  5.62725e-04        00000 
 9.61922e-04  6.04015e-04        00000 
 9.67266e-04  6.48745e-04        00000 
 9.73998e-04  6.98860e-04        00000 
 9.77647e-04  7.54872e-04        00000 
 1.00380e-03  3.78025e-04        00000 
 9.33260e-04  4.58168e-04        00000 
 9.09744e-04  5.01001e-04        00000 
 9.02234e-04  5.39702e-04        00000 
 8.99901e-04  5.79892e-04        00000 
 8.99736e-04  6.23610e-04        00000 
 9.00194e-04  6.73287e-04        00000 
 8.97099e-04  7.49536e-04        00000 
 1.98688e-03  1.58345e-03        00000 
 1.89239e-03  1.68938e-03        00000 
 1.84099e-03  1.77975e-03        00000 
 1.79344e-03  1.87395e-03        00000 
 1.74663e-03  1.97044e-03        00000 
 1.69822e-03  2.06772e-03        00000 
 1.63769e-03  2.16920e-03        00000 
 1.51255e-03  2.28989e-03        00000 
 1.96995e-03  1.57207e-03        00000 
 1.86994e-03  1.65944e-03        00000 
 1.81260e-03  1.73551e-03        00000 
 1.75911e-03  1.81190e-03        00000 
 1.70541e-03  1.88979e-03        00000 
 1.64905e-03  1.96730e-03        00000 
 1.58246e-03  2.04401e-03        00000 
 1.49390e-03  2.12766e-03        00000 
 1.94994e-03  1.55832e-03        00000 
 1.84582e-03  1.62707e-03        00000 
 1.78271e-03  1.68866e-03        00000 
 1.72369e-03  1.74894e-03        00000 
 1.66408e-03  1.80961e-03        00000 
 1.60179e-03  1.87015e-03        00000 
 1.53366e-03  1.93098e-03        00000 
 1.45997e-03  1.99611e-03        00000 
 1.92671e-03  1.54207e-03        00000 
 1.82028e-03  1.59206e-03        00000 
 1.75183e-03  1.63932e-03        00000 
 1.68750e-03  1.68457e-03        00000 
 1.62268e-03  1.72939e-03        00000 
 1.55577e-03  1.77420e-03        00000 
 1.48586e-03  1.81965e-03        00000 
 1.41404e-03  1.86687e-03        00000 
 1.90041e-03  1.52347e-03        00000 
 1.79396e-03  1.55468e-03        00000 
 1.72065e-03  1.58797e-03        00000 
 1.65117e-03  1.61895e-03        00000 
 1.58153e-03  1.64900e-03        00000 
 1.51057e-03  1.67892e-03        00000 
 1.43802e-03  1.70931e-03        00000 
 1.36454e-03  1.74046e-03        00000 
 1.87165e-03  1.50317e-03        00000 
 1.76787e-03  1.51601e-03        00000 
 1.69008e-03  1.53569e-03        00000 
 1.61553e-03  1.55298e-03        00000 
 1.54120e-03  1.56898e-03        00000 
 1.46625e-03  1.58466e-03        00000 
 1.39057e-03  1.60059e-03        00000 
 1.31442e-03  1.61700e-03        00000 
 1.84159e-03  1.48226e-03        00000 