<?xml version="1.0" encoding="utf-8"?>
<VTKFile byte_order="LittleEndian" type="UnstructuredGrid" version="0.1">
   <UnstructuredGrid>
      <Piece NumberOfCells="31360" NumberOfPoints="34072">
         <Points>
            <DataArray Name="Points" NumberOfComponents="3" format="ascii" type="Float32">
0.2138 0.2138 0.0000
0.3261 0.3261 0.0000
0.4384 0.4384 0.0000
0.5508 0.5508 0.0000
0.6631 0.6631 0.0000
0.7754 0.7754 0.0000
0.8877 0.8877 0.0000
1.0000 1.0000 0.0000
0.1968 0.2296 0.0000
0.2911 0.3397 0.0000
0.3855 0.4497 0.0000
0.4798 0.5598 0.0000
0.5741 0.6698 0.0000
0.6685 0.7799 0.0000
0.7628 0.8899 0.0000
0.8571 1.0000 0.0000
0.1758 0.2461 0.0000
0.2527 0.3538 0.0000
0.3296 0.4615 0.0000
0.4066 0.5692 0.0000
0.4835 0.6769 0.0000
0.5604 0.7846 0.0000
0.6374 0.8923 0.0000
0.7143 1.0000 0.0000
0.1500 0.2626 0.0000
0.2102 0.3679 0.0000
0.2704 0.4733 0.0000
0.3306 0.5786 0.0000
0.3908 0.6840 0.0000
0.4510 0.7893 0.0000
0.5112 0.8947 0.0000
0.5714 1.0000 0.0000
0.1191 0.2779 0.0000
0.1633 0.3811 0.0000
0.2075 0.4842 0.0000
0.2517 0.5874 0.0000
0.2959 0.6905 0.0000
0.3402 0.7937 0.0000
0.3844 0.8968 0.0000
0.4286 1.0000 0.0000
0.0831 0.2908 0.0000
0.1120 0.3921 0.0000
0.1410 0.4934 0.0000
0.1699 0.5947 0.0000
0.1989 0.6960 0.0000
0.2278 0.7974 0.0000
0.2568 0.8987 0.0000
0.2857 1.0000 0.0000
0.0428 0.2994 0.0000
0.0571 0.3994 0.0000
0.0714 0.4995 0.0000
0.0857 0.5996 0.0000
0.1000 0.6997 0.0000
0.1143 0.7998 0.0000
0.1286 0.8999 0.0000
0.1429 1.0000 0.0000
0.0000 0.3024 0.0000
0.0000 0.4021 0.0000
0.0000 0.5017 0.0000
0.0000 0.6014 0.0000
0.0000 0.7010 0.0000
0.0000 0.8007 0.0000
0.0000 0.9003 0.0000
0.0000 1.0000 0.0000
-0.0428 0.2994 0.0000
-0.0571 0.3994 0.0000
-0.0714 0.4995 0.0000
-0.0857 0.5996 0.0000
-0.1000 0.6997 0.0000
-0.1143 0.7998 0.0000
-0.1286 0.8999 0.0000
-0.1429 1.0000 0.0000
-0.0831 0.2908 0.0000
-0.1120 0.3921 0.0000
-0.1410 0.4934 0.0000
-0.1699 0.5947 0.0000
-0.1989 0.6960 0.0000
-0.2278 0.7974 0.0000
-0.2568 0.8987 0.0000
-0.2857 1.0000 0.0000
-0.1191 0.2779 0.0000
-0.1633 0.3811 0.0000
-0.2075 0.4842 0.0000
-0.2517 0.5874 0.0000
-0.2959 0.6905 0.0000
-0.3402 0.7937 0.0000
-0.3844 0.8968 0.0000
-0.4286 1.0000 0.0000
-0.1500 0.2626 0.0000
-0.2102 0.3679 0.0000
-0.2704 0.4733 0.0000
-0.3306 0.5786 0.0000
-0.3908 0.6840 0.0000
-0.4510 0.7893 0.0000
-0.5112 0.8947 0.0000
-0.5714 1.0000 0.0000
-0.1758 0.2461 0.0000
-0.2527 0.3538 0.0000
-0.3296 0.4615 0.0000
-0.4066 0.5692 0.0000
-0.4835 0.6769 0.0000
-0.5604 0.7846 0.0000
-0.6374 0.8923 0.0000
-0.7143 1.0000 0.0000
-0.1968 0.2296 0.0000
-0.2911 0.3397 0.0000
-0.3855 0.4497 0.0000
-0.4798 0.5598 0.0000
-0.5741 0.6698 0.0000
-0.6685 0.7799 0.0000
-0.7628 0.8899 0.0000
-0.8571 1.0000 0.0000
-0.2138 0.2138 0.0000
-0.3261 0.3261 0.0000
-0.4384 0.4384 0.0000
-0.5508 0.5508 0.0000
-0.6631 0.6631 0.0000
-0.7754 0.7754 0.0000
-0.8877 0.8877 0.0000
-1.0000 1.0000 0.0000
-0.2296 0.1968 0.0000
-0.3397 0.2911 0.0000
-0.4497 0.3855 0.0000
-0.5598 0.4798 0.0000
-0.6698 0.5741 0.0000
-0.7799 0.6685 0.0000
-0.8899 0.7628 0.0000
-1.0000 0.8571 0.0000
-0.2461 0.1758 0.0000
-0.3538 0.2527 0.0000
-0.4615 0.3296 0.0000
-0.5692 0.4066 0.0000
-0.6769 0.4835 0.0000
-0.7846 0.5604 0.0000
-0.8923 0.6374 0.0000
-1.0000 0.7143 0.0000
-0.2626 0.1500 0.0000
-0.3679 0.2102 0.0000
-0.4733 0.2704 0.0000
-0.5786 0.3306 0.0000
-0.6840 0.3908 0.0000
-0.7893 0.4510 0.0000
-0.8947 0.5112 0.0000
-1.0000 0.5714 0.0000
-0.2779 0.1191 0.0000
-0.3811 0.1633 0.0000
-0.4842 0.2075 0.0000
-0.5874 0.2517 0.0000
-0.6905 0.2959 0.0000
-0.7937 0.3402 0.0000
-0.8968 0.3844 0.0000
-1.0000 0.4286 0.0000
-0.2908 0.0831 0.0000
-0.3921 0.1120 0.0000
-0.4934 0.1410 0.0000
-0.5947 0.1699 0.0000
-0.6960 0.1989 0.0000
-0.7974 0.2278 0.0000
-0.8987 0.2568 0.0000
-1.0000 0.2857 0.0000
-0.2994 0.0428 0.0000
-0.3994 0.0571 0.0000
-0.4995 0.0714 0.0000
-0.5996 0.0857 0.0000
-0.6997 0.1000 0.0000
-0.7998 0.1143 0.0000
-0.8999 0.1286 0.0000
-1.0000 0.1429 0.0000
-0.3024 0.0000 0.0000
-0.4021 0.0000 0.0000
-0.5017 0.0000 0.0000
-0.6014 0.0000 0.0000
-0.7010 0.0000 0.0000
-0.8007 0.0000 0.0000
-0.9003 0.0000 0.0000
-1.0000 0.0000 0.0000
-0.2994 -0.0428 0.0000
-0.3994 -0.0571 0.0000
-0.4995 -0.0714 0.0000
-0.5996 -0.0857 0.0000
-0.6997 -0.1000 0.0000
-0.7998 -0.1143 0.0000
-0.8999 -0.1286 0.0000
-1.0000 -0.1429 0.0000
-0.2908 -0.0831 0.0000
-0.3921 -0.1120 0.0000
-0.4934 -0.1410 0.0000
-0.5947 -0.1699 0.0000
-0.6960 -0.1989 0.0000
-0.7974 -0.2278 0.0000
-0.8987 -0.2568 0.0000
-1.0000 -0.2857 0.0000
-0.2779 -0.1191 0.0000
-0.3811 -0.1633 0.0000
-0.4842 -0.2075 0.0000
-0.5874 -0.2517 0.0000
-0.6905 -0.2959 0.0000
-0.7937 -0.3402 0.0000
-0.8968 -0.3844 0.0000
-1.0000 -0.4286 0.0000
-0.2626 -0.1500 0.0000
-0.3679 -0.2102 0.0000
-0.4733 -0.2704 0.0000
-0.5786 -0.3306 0.0000
-0.6840 -0.3908 0.0000
-0.7893 -0.4510 0.0000
-0.8947 -0.5112 0.0000
-1.0000 -0.5714 0.0000
-0.2461 -0.1758 0.0000
-0.3538 -0.2527 0.0000
-0.4615 -0.3296 0.0000
-0.5692 -0.4066 0.0000
-0.6769 -0.4835 0.0000
-0.7846 -0.5604 0.0000
-0.8923 -0.6374 0.0000
-1.0000 -0.7143 0.0000
-0.2296 -0.1968 0.0000
-0.3397 -0.2911 0.0000
-0.4497 -0.3855 0.0000
-0.5598 -0.4798 0.0000
-0.6698 -0.5741 0.0000
-0.7799 -0.6685 0.0000
-0.8899 -0.7628 0.0000
-1.0000 -0.8571 0.0000
-0.2138 -0.2138 0.0000
-0.3261 -0.3261 0.0000
-0.4384 -0.4384 0.0000
-0.5508 -0.5508 0.0000
-0.6631 -0.6631 0.0000
-0.7754 -0.7754 0.0000
-0.8877 -0.8877 0.0000
-1.0000 -1.0000 0.0000
-0.1968 -0.2296 0.0000
-0.2911 -0.3397 0.0000
-0.3855 -0.4497 0.0000
-0.4798 -0.5598 0.0000
-0.5741 -0.6698 0.0000
-0.6685 -0.7799 0.0000
-0.7628 -0.8899 0.0000
-0.8571 -1.0000 0.0000
-0.1758 -0.2461 0.0000
-0.2527 -0.3538 0.0000
-0.3296 -0.4615 0.0000
-0.4066 -0.5692 0.0000
-0.4835 -0.6769 0.0000
-0.5604 -0.7846 0.0000
-0.6374 -0.8923 0.0000
-0.7143 -1.0000 0.0000
-0.1500 -0.2626 0.0000
-0.2102 -0.3679 0.0000
-0.2704 -0.4733 0.0000
-0.3306 -0.5786 0.0000
-0.3908 -0.6840 0.0000
-0.4510 -0.7893 0.0000
-0.5112 -0.8947 0.0000
-0.5714 -1.0000 0.0000
-0.1191 -0.2779 0.0000
-0.1633 -0.3811 0.0000
-0.2075 -0.4842 0.0000
-0.2517 -0.5874 0.0000
-0.2959 -0.6905 0.0000
-0.3402 -0.7937 0.0000
-0.3844 -0.8968 0.0000
-0.4286 -1.0000 0.0000
-0.0831 -0.2908 0.0000
-0.1120 -0.3921 0.0000
-0.1410 -0.4934 0.0000
-0.1699 -0.5947 0.0000
-0.1989 -0.6960 0.0000
-0.2278 -0.7974 0.0000
-0.2568 -0.8987 0.0000
-0.2857 -1.0000 0.0000
-0.0428 -0.2994 0.0000
-0.0571 -0.3994 0.0000
-0.0714 -0.4995 0.0000
-0.0857 -0.5996 0.0000
-0.1000 -0.6997 0.0000
-0.1143 -0.7998 0.0000
-0.1286 -0.8999 0.0000
-0.1429 -1.0000 0.0000
0.0000 -0.3024 0.0000
0.0000 -0.4021 0.0000
0.0000 -0.5017 0.0000
0.0000 -0.6014 0.0000
0.0000 -0.7010 0.0000
0.0000 -0.8007 0.0000
0.0000 -0.9003 0.0000
0.0000 -1.0000 0.0000
0.0428 -0.2994 0.0000
0.0571 -0.3994 0.0000
0.0714 -0.4995 0.0000
0.0857 -0.5996 0.0000
0.1000 -0.6997 0.0000
0.1143 -0.7998 0.0000
0.1286 -0.8999 0.0000
0.1429 -1.0000 0.0000
0.0831 -0.2908 0.0000
0.1120 -0.3921 0.0000
0.1410 -0.4934 0.0000
0.1699 -0.5947 0.0000
0.1989 -0.6960 0.0000
0.2278 -0.7974 0.0000
0.2568 -0.8987 0.0000
0.2857 -1.0000 0.0000
0.1191 -0.2779 0.0000
0.1633 -0.3811 0.0000
0.2075 -0.4842 0.0000
0.2517 -0.5874 0.0000
0.2959 -0.6905 0.0000
0.3402 -0.7937 0.0000
0.3844 -0.8968 0.0000
0.4286 -1.0000 0.0000
0.1500 -0.2626 0.0000
0.2102 -0.3679 0.0000
0.2704 -0.4733 0.0000
0.3306 -0.5786 0.0000
0.3908 -0.6840 0.0000
0.4510 -0.7893 0.0000
0.5112 -0.8947 0.0000
0.5714 -1.0000 0.0000
0.1758 -0.2461 0.0000
0.2527 -0.3538 0.0000
0.3296 -0.4615 0.0000
0.4066 -0.5692 0.0000
0.4835 -0.6769 0.0000
0.5604 -0.7846 0.0000
0.6374 -0.8923 0.0000
0.7143 -1.0000 0.0000
0.1968 -0.2296 0.0000
0.2911 -0.3397 0.0000
0.3855 -0.4497 0.0000
0.4798 -0.5598 0.0000
0.5741 -0.6698 0.0000
0.6685 -0.7799 0.0000
0.7628 -0.8899 0.0000
0.8571 -1.0000 0.0000
0.2138 -0.2138 0.0000
0.3261 -0.3261 0.0000
0.4384 -0.4384 0.0000
0.5508 -0.5508 0.0000
0.6631 -0.6631 0.0000
0.7754 -0.7754 0.0000
0.8877 -0.8877 0.0000
1.0000 -1.0000 0.0000
0.2296 -0.1968 0.0000
0.3397 -0.2911 0.0000
0.4497 -0.3855 0.0000
0.5598 -0.4798 0.0000
0.6698 -0.5741 0.0000
0.7799 -0.6685 0.0000
0.8899 -0.7628 0.0000
1.0000 -0.8571 0.0000
0.2461 -0.1758 0.0000
0.3538 -0.2527 0.0000
0.4615 -0.3296 0.0000
0.5692 -0.4066 0.0000
0.6769 -0.4835 0.0000
0.7846 -0.5604 0.0000
0.8923 -0.6374 0.0000
1.0000 -0.7143 0.0000
0.2626 -0.1500 0.0000
0.3679 -0.2102 0.0000
0.4733 -0.2704 0.0000
0.5786 -0.3306 0.0000
0.6840 -0.3908 0.0000
0.7893 -0.4510 0.0000
0.8947 -0.5112 0.0000
1.0000 -0.5714 0.0000
0.2779 -0.1191 0.0000
0.3811 -0.1633 0.0000
0.4842 -0.2075 0.0000
0.5874 -0.2517 0.0000
0.6905 -0.2959 0.0000
0.7937 -0.3402 0.0000
0.8968 -0.3844 0.0000
1.0000 -0.4286 0.0000
0.2908 -0.0831 0.0000
0.3921 -0.1120 0.0000
0.4934 -0.1410 0.0000
0.5947 -0.1699 0.0000
0.6960 -0.1989 0.0000
0.7974 -0.2278 0.0000
0.8987 -0.2568 0.0000
1.0000 -0.2857 0.0000
0.2994 -0.0428 0.0000
0.3994 -0.0571 0.0000
0.4995 -0.0714 0.0000
0.5996 -0.0857 0.0000
0.6997 -0.1000 0.0000
0.7998 -0.1143 0.0000
0.8999 -0.1286 0.0000
1.0000 -0.1429 0.0000
0.3024 0.0000 0.0000
0.4021 0.0000 0.0000
0.5017 0.0000 0.0000
0.6014 0.0000 0.0000
0.7010 0.0000 0.0000
0.8007 0.0000 0.0000
0.9003 0.0000 0.0000
1.0000 0.0000 0.0000
0.2994 0.0428 0.0000
0.3994 0.0571 0.0000
0.4995 0.0714 0.0000
0.5996 0.0857 0.0000
0.6997 0.1000 0.0000
0.7998 0.1143 0.0000
0.8999 0.1286 0.0000
1.0000 0.1429 0.0000
0.2908 0.0831 0.0000
0.3921 0.1120 0.0000
0.4934 0.1410 0.0000
0.5947 0.1699 0.0000
0.6960 0.1989 0.0000
0.7974 0.2278 0.0000
0.8987 0.2568 0.0000
1.0000 0.2857 0.0000
0.2779 0.1191 0.0000
0.3811 0.1633 0.0000
0.4842 0.2075 0.0000
0.5874 0.2517 0.0000
0.6905 0.2959 0.0000
0.7937 0.3402 0.0000
0.8968 0.3844 0.0000
1.0000 0.4286 0.0000
0.2626 0.1500 0.0000
0.3679 0.2102 0.0000
0.4733 0.2704 0.0000
0.5786 0.3306 0.0000
0.6840 0.3908 0.0000
0.7893 0.4510 0.0000
0.8947 0.5112 0.0000
1.0000 0.5714 0.0000
0.2461 0.1758 0.0000
0.3538 0.2527 0.0000
0.4615 0.3296 0.0000
0.5692 0.4066 0.0000
0.6769 0.4835 0.0000
0.7846 0.5604 0.0000
0.8923 0.6374 0.0000
1.0000 0.7143 0.0000
0.2296 0.1968 0.0000
[...]
         <PointData>
            <DataArray Name="fValues" NumberOfComponents="3" format="ascii" type="Float64">
-8.16242e-03 -1.97193e-02        00000 
-7.00689e-03 -2.13106e-02        00000 
-6.14697e-03 -2.26927e-02        00000 
-5.47451e-03 -2.41554e-02        00000 
-4.88932e-03 -2.56779e-02        00000 
-4.33113e-03 -2.72287e-02        00000 
-3.72226e-03 -2.87668e-02        00000 
-2.73463e-03 -3.00994e-02        00000 
-8.06926e-03 -1.92772e-02        00000 
-6.80752e-03 -2.06911e-02        00000 
-5.94241e-03 -2.18576e-02        00000 
-5.27418e-03 -2.30633e-02        00000 
-4.70222e-03 -2.43267e-02        00000 
-4.17273e-03 -2.56277e-02        00000 
-3.63170e-03 -2.69535e-02        00000 
-3.27159e-03 -2.83238e-02        00000 
-7.94571e-03 -1.87250e-02        00000 
-6.56630e-03 -1.99530e-02        00000 
-5.68784e-03 -2.09096e-02        00000 
-5.02790e-03 -2.18808e-02        00000 
-4.47556e-03 -2.28993e-02        00000 
-3.97960e-03 -2.39607e-02        00000 
-3.52644e-03 -2.50632e-02        00000 
-3.15426e-03 -2.61788e-02        00000 
-7.78394e-03 -1.80452e-02        00000 
-6.28015e-03 -1.90644e-02        00000 
-5.38456e-03 -1.98191e-02        00000 
-4.73353e-03 -2.05730e-02        00000 
-4.20322e-03 -2.13636e-02        00000 
-3.74270e-03 -2.21942e-02        00000 
-3.33267e-03 -2.30607e-02        00000 
-2.97534e-03 -2.39501e-02        00000 
-7.57393e-03 -1.72266e-02        00000 
-5.95462e-03 -1.80010e-02        00000 
-5.04203e-03 -1.85597e-02        00000 
-4.40000e-03 -1.91121e-02        00000 
-3.89130e-03 -1.96919e-02        00000 
-3.46103e-03 -2.03039e-02        00000 
-3.08478e-03 -2.09462e-02        00000 
-2.75080e-03 -2.16126e-02        00000 
-7.30582e-03 -1.62730e-02        00000 
-5.60588e-03 -1.67604e-02        00000 
-4.68275e-03 -1.71257e-02        00000 
-4.05018e-03 -1.74907e-02        00000 
-3.56035e-03 -1.78759e-02        00000 
-3.15498e-03 -1.82843e-02        00000 
-2.80663e-03 -1.87156e-02        00000 
-2.49953e-03 -1.91682e-02        00000 
-6.97424e-03 -1.52110e-02        00000 
-5.25863e-03 -1.53785e-02        00000 
-4.33978e-03 -1.55518e-02        00000 
-3.71790e-03 -1.57411e-02        00000 
-3.24271e-03 -1.59455e-02        00000 
-2.85531e-03 -1.61638e-02        00000 
-2.52770e-03 -1.63955e-02        00000 
-2.24400e-03 -1.66404e-02        00000 
-6.58328e-03 -1.40926e-02        00000 
-4.93807e-03 -1.39346e-02        00000 
-4.04408e-03 -1.39209e-02        00000 
-3.43407e-03 -1.39429e-02        00000 
-2.96762e-03 -1.39759e-02        00000 
-2.58941e-03 -1.40131e-02        00000 
-2.27266e-03 -1.40528e-02        00000 
-2.00209e-03 -1.40941e-02        00000 
-6.14895e-03 -1.29864e-02        00000 
-4.65917e-03 -1.25344e-02        00000 
-3.80782e-03 -1.23450e-02        00000 
-3.20821e-03 -1.22046e-02        00000 
-2.74269e-03 -1.20688e-02        00000 
-2.36368e-03 -1.19275e-02        00000 
-2.04695e-03 -1.17786e-02        00000 
-1.77715e-03 -1.16210e-02        00000 
-5.69650e-03 -1.19593e-02        00000 
-4.42112e-03 -1.12745e-02        00000 
-3.61816e-03 -1.09233e-02        00000 
-3.02248e-03 -1.06197e-02        00000 
-2.54835e-03 -1.03109e-02        00000 
-2.15886e-03 -9.98744e-03        00000 
-1.83350e-03 -9.64958e-03        00000 
-1.55716e-03 -9.29906e-03        00000 
-5.25346e-03 -1.10586e-02        00000 
-4.21155e-03 -1.02107e-02        00000 
-3.44786e-03 -9.70677e-03        00000 
-2.84492e-03 -9.23306e-03        00000 
-2.35214e-03 -8.74144e-03        00000 
-1.94428e-03 -8.22822e-03        00000 
-1.60606e-03 -7.69870e-03        00000 
-1.32517e-03 -7.16096e-03        00000 
-4.84232e-03 -1.03044e-02        00000 
-4.01615e-03 -9.35098e-03        00000 
-3.27203e-03 -8.69412e-03        00000 
-2.64881e-03 -8.03791e-03        00000 
-2.12845e-03 -7.35145e-03        00000 
-1.69657e-03 -6.64048e-03        00000 
-1.34532e-03 -5.91713e-03        00000 
-1.07246e-03 -5.19924e-03        00000 
-4.47663e-03 -9.69326e-03        00000 
-3.82568e-03 -8.67062e-03        00000 
-3.07731e-03 -7.85133e-03        00000 
-2.42222e-03 -6.99714e-03        00000 
-1.86804e-03 -6.10497e-03        00000 
-1.40683e-03 -5.19324e-03        00000 
-1.04384e-03 -4.27695e-03        00000 
-8.07108e-04 -3.39845e-03        00000 
-4.16163e-03 -9.20724e-03        00000 
-3.63662e-03 -8.13263e-03        00000 
-2.86105e-03 -7.13401e-03        00000 
-2.16673e-03 -6.06614e-03        00000 
-1.57480e-03 -4.96201e-03        00000 
-1.08229e-03 -3.85367e-03        00000 
-6.83576e-04 -2.76759e-03        00000 
-5.64242e-04 -1.73354e-03        00000 
-3.89736e-03 -8.82274e-03        00000 
-3.44803e-03 -7.70241e-03        00000 
-2.62745e-03 -6.50004e-03        00000 
-1.89113e-03 -5.20743e-03        00000 
-1.25968e-03 -3.89037e-03        00000 
-7.32931e-04 -2.59776e-03        00000 
-3.08434e-04 -1.38614e-03        00000 
 6.96122e-05 -4.55698e-04        00000 
-3.62054e-03 -8.46683e-03        00000 
-3.34997e-03 -7.52287e-03        00000 
-2.65508e-03 -6.35992e-03        00000 
-1.96729e-03 -5.09870e-03        00000 
-1.35162e-03 -3.80758e-03        00000 
-8.13443e-04 -2.52814e-03        00000 
-3.57647e-04 -1.30565e-03        00000 
-2.99110e-19 -4.81684e-19        00000 
-3.29497e-03 -8.09811e-03        00000 
-3.18269e-03 -7.34876e-03        00000 
-2.60982e-03 -6.24169e-03        00000 
-1.99463e-03 -5.01222e-03        00000 
-1.41244e-03 -3.74554e-03        00000 
-8.81347e-04 -2.47987e-03        00000 
-4.14435e-04 -1.23278e-03        00000 
 2.12929e-19 -2.34956e-19        00000 
-2.92257e-03 -7.73298e-03        00000 
-2.92875e-03 -7.18807e-03        00000 
-2.47533e-03 -6.14535e-03        00000 
-1.94653e-03 -4.95041e-03        00000 
-1.41856e-03 -3.70824e-03        00000 
-9.12612e-04 -2.45705e-03        00000 
-4.38436e-04 -1.21493e-03        00000 
-7.68886e-20  1.70864e-20        00000 
-2.51328e-03 -7.39975e-03        00000 
-2.58096e-03 -7.04593e-03        00000 
-2.23995e-03 -6.06785e-03        00000 
-1.80609e-03 -4.90698e-03        00000 
-1.34987e-03 -3.68887e-03        00000 
-8.91170e-04 -2.45571e-03        00000 
-4.38280e-04 -1.22199e-03        00000 
 5.99741e-20  3.59845e-19        00000 
-2.08820e-03 -7.13740e-03        00000 
-2.15426e-03 -6.92521e-03        00000 
-1.91259e-03 -5.99976e-03        00000 
-1.57679e-03 -4.86684e-03        00000 
-1.20406e-03 -3.66938e-03        00000 
-8.12485e-04 -2.45459e-03        00000 
-4.08612e-04 -1.23333e-03        00000 
 2.69493e-20  2.36359e-19        00000 
-1.67989e-03 -6.98871e-03        00000 
-1.69577e-03 -6.82940e-03        00000 
-1.53832e-03 -5.92918e-03        00000 
-1.29758e-03 -4.81111e-03        00000 
-1.01129e-03 -3.62633e-03        00000 
-6.95955e-04 -2.42683e-03        00000 
-3.57860e-04 -1.22391e-03        00000 
 6.08444e-20 -3.65066e-19        00000 
-1.32736e-03 -6.98750e-03        00000 
-1.28204e-03 -6.76718e-03        00000 
-1.19946e-03 -5.85325e-03        00000 
-1.04562e-03 -4.73141e-03        00000 
-8.37491e-04 -3.54738e-03        00000 
-5.90401e-04 -2.35637e-03        00000 
-3.11844e-04 -1.17688e-03        00000 
 2.91836e-20  1.24605e-18        00000 
-1.06563e-03 -7.14531e-03        00000 
-9.96305e-04 -6.75435e-03        00000 
-9.90483e-04 -5.78859e-03        00000 
-9.12479e-04 -4.64404e-03        00000 
-7.63344e-04 -3.44756e-03        00000 
-5.57903e-04 -2.25532e-03        00000 
-3.04962e-04 -1.09912e-03        00000 
 3.04222e-20 -2.43378e-19        00000 
-9.14415e-04 -7.44571e-03        00000 
-8.95663e-04 -6.80921e-03        00000 
-9.77650e-04 -5.76759e-03        00000 
-9.63593e-04 -4.58754e-03        00000 
-8.47472e-04 -3.36799e-03        00000 
-6.43948e-04 -2.16376e-03        00000 
-3.62493e-04 -1.02187e-03        00000 
       00000  6.46617e-20        00000 
-8.72715e-04 -7.85060e-03        00000 
-9.90673e-04 -6.94290e-03        00000 
-1.17396e-03 -5.82079e-03        00000 
-1.21333e-03 -4.60202e-03        00000 
-1.10433e-03 -3.35505e-03        00000 
-8.60424e-04 -2.13032e-03        00000 
-4.90904e-04 -9.84550e-04        00000 
 5.24774e-20 -1.65954e-19        00000 
-9.22187e-04 -8.31429e-03        00000 
-1.25089e-03 -7.15260e-03        00000 
-1.54649e-03 -5.96108e-03        00000 
-1.63274e-03 -4.70931e-03        00000 
-1.51340e-03 -3.43935e-03        00000 
-1.19608e-03 -2.19341e-03        00000 
-6.85614e-04 -1.02196e-03        00000 
-8.54314e-20 -3.41725e-20        00000 
-1.03566e-03 -8.79604e-03        00000 
-1.62750e-03 -7.42285e-03        00000 
-2.04221e-03 -6.18176e-03        00000 
-2.17522e-03 -4.90834e-03        00000 
-2.04491e-03 -3.62957e-03        00000 
-1.64430e-03 -2.38120e-03        00000 
-9.47533e-04 -1.17361e-03        00000 
-4.69912e-19 -3.52434e-19        00000 
-1.18531e-03 -9.26561e-03        00000 
-2.07492e-03 -7.73328e-03        00000 
-2.60943e-03 -6.46463e-03        00000 
-2.79856e-03 -5.18197e-03        00000 
-2.68214e-03 -3.92079e-03        00000 
-2.22490e-03 -2.71464e-03        00000 
-1.34602e-03 -1.55222e-03        00000 
-2.34218e-19  2.66076e-19        00000 
-1.34761e-03 -9.70246e-03        00000 
-2.56148e-03 -8.06709e-03        00000 
-3.20517e-03 -6.78686e-03        00000 
-3.47884e-03 -5.50799e-03        00000 
-3.44435e-03 -4.30266e-03        00000 
-3.14091e-03 -3.23583e-03        00000 
-2.90511e-03 -2.27168e-03        00000 
-4.71155e-03 -1.06325e-03        00000 
-1.51731e-03 -1.01849e-02        00000 
-2.90777e-03 -8.72884e-03        00000 
-3.66981e-03 -7.63850e-03        00000 
-4.13105e-03 -6.58696e-03        00000 
-4.39331e-03 -5.59349e-03        00000 
-4.52831e-03 -4.73307e-03        00000 
-4.75919e-03 -4.01829e-03        00000 
-5.40853e-03 -3.09935e-03        00000 
-1.74986e-03 -1.07885e-02        00000 
-3.31988e-03 -9.52853e-03        00000 
-4.20748e-03 -8.63196e-03        00000 
-4.83824e-03 -7.78842e-03        00000 
-5.34974e-03 -6.98912e-03        00000 
-5.82176e-03 -6.27710e-03        00000 
-6.32968e-03 -5.66545e-03        00000 
-6.92303e-03 -5.06879e-03        00000 
-2.05700e-03 -1.15291e-02        00000 
-3.80026e-03 -1.04993e-02        00000 
-4.81239e-03 -9.79628e-03        00000 
-5.59671e-03 -9.15127e-03        00000 
-6.31425e-03 -8.53650e-03        00000 
-7.04413e-03 -7.96621e-03        00000 
-7.82274e-03 -7.45550e-03        00000 
-8.61709e-03 -7.00091e-03        00000 
-2.44884e-03 -1.24131e-02        00000 
-4.33667e-03 -1.16602e-02        00000 
-5.46563e-03 -1.11528e-02        00000 
-6.38676e-03 -1.07010e-02        00000 
-7.27431e-03 -1.02709e-02        00000 
-8.21133e-03 -9.86031e-03        00000 
-9.23734e-03 -9.47750e-03        00000 
-1.03405e-02 -9.14423e-03        00000 
-2.92736e-03 -1.34285e-02        00000 
-4.90051e-03 -1.29993e-02        00000 
-6.12993e-03 -1.26945e-02        00000 
-7.17071e-03 -1.24344e-02        00000 
-8.20040e-03 -1.21950e-02        00000 
-9.30603e-03 -1.19676e-02        00000 
-1.05443e-02 -1.17529e-02        00000 
-1.19551e-02 -1.15693e-02        00000 
-3.47935e-03 -1.45384e-02        00000 
-5.45186e-03 -1.44600e-02        00000 
-6.75583e-03 -1.43668e-02        00000 
-7.89918e-03 -1.43009e-02        00000 
-9.04977e-03 -1.42595e-02        00000 
-1.02933e-02 -1.42357e-02        00000 
-1.16973e-02 -1.42249e-02        00000 
-1.33406e-02 -1.42302e-02        00000 
-4.07385e-03 -1.56816e-02        00000 
-5.95227e-03 -1.59456e-02        00000 
-7.30012e-03 -1.60679e-02        00000 
-8.53011e-03 -1.62004e-02        00000 
-9.78552e-03 -1.63634e-02        00000 
-1.11419e-02 -1.65547e-02        00000 
-1.26614e-02 -1.67659e-02        00000 
-1.44210e-02 -1.69829e-02        00000 
-4.66840e-03 -1.67857e-02        00000 
-6.37860e-03 -1.73469e-02        00000 
-7.74509e-03 -1.76804e-02        00000 
-9.04937e-03 -1.80149e-02        00000 
-1.03977e-02 -1.83860e-02        00000 
-1.18464e-02 -1.87929e-02        00000 
-1.34367e-02 -1.92223e-02        00000 
-1.52045e-02 -1.96467e-02        00000 
-5.22191e-03 -1.77870e-02        00000 
-6.72819e-03 -1.85802e-02        00000 
-8.10221e-03 -1.91157e-02        00000 
-9.47437e-03 -1.96553e-02        00000 
-1.09070e-02 -2.02362e-02        00000 
-1.24314e-02 -2.08523e-02        00000 
-1.40596e-02 -2.14826e-02        00000 
-1.57773e-02 -2.20938e-02        00000 
-5.70596e-03 -1.86467e-02        00000 
-7.01320e-03 -1.96095e-02        00000 
-8.39869e-03 -2.03402e-02        00000 
-9.83791e-03 -2.10894e-02        00000 
-1.13483e-02 -2.18821e-02        00000 
-1.29347e-02 -2.27010e-02        00000 
-1.45814e-02 -2.35166e-02        00000 
-1.62446e-02 -2.42976e-02        00000 
-6.10883e-03 -1.93539e-02        00000 
-7.25024e-03 -2.04424e-02        00000 
-8.66086e-03 -2.13682e-02        00000 
-1.01692e-02 -2.23346e-02        00000 
-1.17516e-02 -2.33431e-02        00000 
-1.33883e-02 -2.43633e-02        00000 
-1.50437e-02 -2.53604e-02        00000 
-1.66719e-02 -2.63076e-02        00000 
-6.43211e-03 -1.99193e-02        00000 
-7.45350e-03 -2.11104e-02        00000 
-8.90627e-03 -2.22388e-02        00000 
-1.04851e-02 -2.34329e-02        00000 
-1.21331e-02 -2.46632e-02        00000 
-1.38112e-02 -2.58886e-02        00000 
-1.54690e-02 -2.70730e-02        00000 
-1.70655e-02 -2.81869e-02        00000 
-6.68442e-03 -2.03652e-02        00000 
-7.63329e-03 -2.16500e-02        00000 
-9.14387e-03 -2.29960e-02        00000 
-1.07910e-02 -2.44302e-02        00000 
-1.24975e-02 -2.58872e-02        00000 
-1.42136e-02 -2.73216e-02        00000 
-1.58645e-02 -2.86992e-02        00000 
-1.73906e-02 -2.99548e-02        00000 
-6.87563e-03 -2.07169e-02        00000 
-7.79813e-03 -2.20919e-02        00000 
-9.37575e-03 -2.36801e-02        00000 
-1.10852e-02 -2.53625e-02        00000 
-1.28439e-02 -2.70495e-02        00000 
-1.45984e-02 -2.86885e-02        00000 
-1.62593e-02 -3.02365e-02        00000 
-1.75177e-02 -3.16387e-02        00000 
-7.07439e-03 -2.10437e-02        00000 
-7.75178e-03 -2.22318e-02        00000 
-9.02554e-03 -2.37343e-02        00000 
-1.04538e-02 -2.53446e-02        00000 
-1.19286e-02 -2.69730e-02        00000 
-1.34208e-02 -2.85684e-02        00000 
-1.49161e-02 -3.01014e-02        00000 
-1.63976e-02 -3.14456e-02        00000 
-7.29498e-03 -2.13748e-02        00000 
-7.74860e-03 -2.23713e-02        00000 
-8.74835e-03 -2.37759e-02        00000 
-9.89875e-03 -2.53154e-02        00000 
-1.10973e-02 -2.68882e-02        00000 
-1.23088e-02 -2.84476e-02        00000 
-1.35199e-02 -2.99657e-02        00000 
-1.47053e-02 -3.14431e-02        00000 
-7.52896e-03 -2.16958e-02        00000 
-7.79978e-03 -2.25007e-02        00000 
-8.55134e-03 -2.38051e-02        00000 
-9.44126e-03 -2.52735e-02        00000 
-1.03767e-02 -2.67941e-02        00000 
-1.13213e-02 -2.83197e-02        00000 
-1.22570e-02 -2.98311e-02        00000 
-1.31746e-02 -3.13286e-02        00000 
-7.76412e-03 -2.19815e-02        00000 
-7.90791e-03 -2.26123e-02        00000 
-8.43999e-03 -2.38218e-02        00000 
-9.09212e-03 -2.52233e-02        00000 
-9.78478e-03 -2.66952e-02        00000 
-1.04845e-02 -2.81893e-02        00000 
-1.11740e-02 -2.96857e-02        00000 
-1.18448e-02 -3.11791e-02        00000 
-7.98514e-03 -2.21971e-02        00000 
-8.06124e-03 -2.26980e-02        00000 
-8.40636e-03 -2.38288e-02        00000 
-8.84628e-03 -2.51734e-02        00000 
-9.32091e-03 -2.66033e-02        00000 
-9.80231e-03 -2.80685e-02        00000 
-1.02750e-02 -2.95480e-02        00000 
-1.07297e-02 -3.10326e-02        00000 
-8.17596e-03 -2.23058e-02        00000 
-8.23027e-03 -2.27482e-02        00000 
-8.41944e-03 -2.38296e-02        00000 
-8.67320e-03 -2.51339e-02        00000 
-8.95573e-03 -2.65323e-02        00000 
-9.24646e-03 -2.79748e-02        00000 
-9.53261e-03 -2.94396e-02        00000 
-9.80571e-03 -3.09166e-02        00000 
-8.32309e-03 -2.22796e-02        00000 
-8.37145e-03 -2.27517e-02        00000 
-8.42562e-03 -2.38222e-02        00000 
-8.51586e-03 -2.51080e-02        00000 
-8.63075e-03 -2.64887e-02        00000 
-8.75713e-03 -2.79177e-02        00000 
-8.88523e-03 -2.93734e-02        00000 
-9.00862e-03 -3.08455e-02        00000 
-8.41851e-03 -2.21112e-02        00000 
-8.43968e-03 -2.26981e-02        00000 
-8.36495e-03 -2.37956e-02        00000 
-8.30827e-03 -2.50842e-02        00000 
-8.27674e-03 -2.64620e-02        00000 
-8.26221e-03 -2.78881e-02        00000 
-8.25656e-03 -2.93428e-02        00000 
-8.25447e-03 -3.08150e-02        00000 
-8.46102e-03 -2.18179e-02        00000 
-8.40435e-03 -2.25815e-02        00000 
-8.19552e-03 -2.37320e-02        00000 
-8.00365e-03 -2.50395e-02        00000 
-7.84391e-03 -2.64266e-02        00000 
-7.70877e-03 -2.78601e-02        00000 
-7.58919e-03 -2.93235e-02        00000 
-7.47801e-03 -3.08053e-02        00000 
-8.45566e-03 -2.14348e-02        00000 
-8.25940e-03 -2.24032e-02        00000 
-7.90885e-03 -2.36166e-02        00000 
-7.59231e-03 -2.49515e-02        00000 
-7.32082e-03 -2.63560e-02        00000 
-7.08283e-03 -2.78057e-02        00000 
-6.86587e-03 -2.92878e-02        00000 
-6.65785e-03 -3.07940e-02        00000 
-8.41174e-03 -2.10026e-02        00000 
-8.02100e-03 -2.21724e-02        00000 
-7.52607e-03 -2.34452e-02        00000 
-7.09721e-03 -2.48099e-02        00000 
-6.72945e-03 -2.62372e-02        00000 
-6.40375e-03 -2.77091e-02        00000 
-6.10355e-03 -2.92186e-02        00000 
-5.80880e-03 -3.07691e-02        00000 
-8.34064e-03 -2.05570e-02        00000 
-7.71638e-03 -2.19035e-02        00000 
-7.08225e-03 -2.32248e-02        00000 
-6.55632e-03 -2.46195e-02        00000 
-6.10640e-03 -2.60740e-02        00000 
-5.70261e-03 -2.75697e-02        00000 
-5.33173e-03 -2.91100e-02        00000 
-4.94976e-03 -3.07355e-02        00000 
-8.25404e-03 -2.01236e-02        00000 
-7.37198e-03 -2.16122e-02        00000 
-6.61260e-03 -2.29687e-02        00000 
-6.00663e-03 -2.43953e-02        00000 
-5.48537e-03 -2.58811e-02        00000 
-5.00742e-03 -2.74041e-02        00000 
-4.55008e-03 -2.89360e-02        00000 
-4.10552e-03 -3.07234e-02        00000 
-9.36369e-03 -4.81115e-02        00000 
-8.23985e-03 -4.96908e-02        00000 
-7.19346e-03 -5.13252e-02        00000 
-6.23608e-03 -5.29987e-02        00000 
-5.30071e-03 -5.46546e-02        00000 
-4.36010e-03 -5.62700e-02        00000 
-3.41879e-03 -5.78085e-02        00000 
-2.49248e-03 -5.90850e-02        00000 
-9.35820e-03 -4.79422e-02        00000 
-8.21229e-03 -4.93173e-02        00000 
-7.19669e-03 -5.06925e-02        00000 
-6.26642e-03 -5.21209e-02        00000 
-5.36953e-03 -5.35566e-02        00000 
-4.48338e-03 -5.49809e-02        00000 
-3.60484e-03 -5.63798e-02        00000 
-2.90693e-03 -5.77294e-02        00000 
-9.35368e-03 -4.77278e-02        00000 
-8.17336e-03 -4.88986e-02        00000 
-7.18719e-03 -5.00243e-02        00000 
-6.28749e-03 -5.12064e-02        00000 
-5.42969e-03 -5.24136e-02        00000 
-4.59297e-03 -5.36306e-02        00000 
-3.78267e-03 -5.48483e-02        00000 
-3.04107e-03 -5.60274e-02        00000 
-9.35064e-03 -4.74585e-02        00000 
-8.12401e-03 -4.84216e-02        00000 
-7.16472e-03 -4.93071e-02        00000 
-6.29717e-03 -5.02451e-02        00000 
-5.47792e-03 -5.12175e-02        00000 
-4.68909e-03 -5.22142e-02        00000 
-3.92719e-03 -5.32269e-02        00000 
-3.20078e-03 -5.42362e-02        00000 
-9.35002e-03 -4.71265e-02        00000 
-8.06856e-03 -4.78732e-02        00000 
-7.13268e-03 -4.85279e-02        00000 
-6.29623e-03 -4.92262e-02        00000 
-5.51368e-03 -4.99601e-02        00000 
-4.76828e-03 -5.07244e-02        00000 
-4.05260e-03 -5.15163e-02        00000 
-3.36265e-03 -5.23293e-02        00000 
-9.35303e-03 -4.67303e-02        00000 
-8.01636e-03 -4.72465e-02        00000 
-7.09948e-03 -4.76788e-02        00000 
-6.29033e-03 -4.81429e-02        00000 
-5.53977e-03 -4.86367e-02        00000 
-4.83189e-03 -4.91588e-02        00000 
-4.15856e-03 -4.97107e-02        00000 
-3.51280e-03 -5.02952e-02        00000 
-9.36083e-03 -4.62795e-02        00000 