<?xml version="1.0" encoding="utf-8"?>
<VTKFile byte_order="LittleEndian" type="UnstructuredGrid" version="0.1">
   <UnstructuredGrid>
      <Piece NumberOfCells="16000" NumberOfPoints="18081">
         <Points>
            <DataArray Name="Points" NumberOfComponents="3" format="ascii" type="Float32">
0.0000 0.0000 0.0000
0.0000 0.0025 0.0000
0.0000 0.0050 0.0000
0.0000 0.0075 0.0000
0.0000 0.0100 0.0000
0.0000 0.0125 0.0000
0.0000 0.0150 0.0000
0.0000 0.0175 0.0000
0.0000 0.0200 0.0000
0.0000 0.0225 0.0000
0.0000 0.0250 0.0000
0.0000 0.0275 0.0000
0.0000 0.0300 0.0000
0.0000 0.0325 0.0000
0.0000 0.0350 0.0000
0.0000 0.0375 0.0000
0.0000 0.0400 0.0000
0.0000 0.0425 0.0000
0.0000 0.0450 0.0000
0.0000 0.0475 0.0000
0.0000 0.0500 0.0000
0.0500 0.0000 0.0000
0.0500 0.0025 0.0000
0.0500 0.0050 0.0000
0.0500 0.0075 0.0000
0.0500 0.0100 0.0000
0.0500 0.0125 0.0000
0.0500 0.0150 0.0000
0.0500 0.0175 0.0000
0.0500 0.0200 0.0000
0.0500 0.0225 0.0000
0.0500 0.0250 0.0000
0.0500 0.0275 0.0000
0.0500 0.0300 0.0000
0.0500 0.0325 0.0000
0.0500 0.0350 0.0000
0.0500 0.0375 0.0000
0.0500 0.0400 0.0000
0.0500 0.0425 0.0000
0.0500 0.0450 0.0000
0.0500 0.0475 0.0000
0.0500 0.0500 0.0000
0.1000 0.0000 0.0000
0.1000 0.0025 0.0000
0.1000 0.0050 0.0000
0.1000 0.0075 0.0000
0.1000 0.0100 0.0000
0.1000 0.0125 0.0000
0.1000 0.0150 0.0000
0.1000 0.0175 0.0000
0.1000 0.0200 0.0000
0.1000 0.0225 0.0000
0.1000 0.0250 0.0000
0.1000 0.0275 0.0000
0.1000 0.0300 0.0000
0.1000 0.0325 0.0000
0.1000 0.0350 0.0000
0.1000 0.0375 0.0000
0.1000 0.0400 0.0000
0.1000 0.0425 0.0000
0.1000 0.0450 0.0000
0.1000 0.0475 0.0000
0.1000 0.0500 0.0000
0.1500 0.0000 0.0000
0.1500 0.0025 0.0000
0.1500 0.0050 0.0000
0.1500 0.0075 0.0000
0.1500 0.0100 0.0000
0.1500 0.0125 0.0000
0.1500 0.0150 0.0000
0.1500 0.0175 0.0000
0.1500 0.0200 0.0000
0.1500 0.0225 0.0000
0.1500 0.0250 0.0000
0.1500 0.0275 0.0000
0.1500 0.0300 0.0000
0.1500 0.0325 0.0000
0.1500 0.0350 0.0000
0.1500 0.0375 0.0000
0.1500 0.0400 0.0000
0.1500 0.0425 0.0000
0.1500 0.0450 0.0000
0.1500 0.0475 0.0000
0.1500 0.0500 0.0000
0.2000 0.0000 0.0000
0.2000 0.0025 0.0000
0.2000 0.0050 0.0000
0.2000 0.0075 0.0000
0.2000 0.0100 0.0000
0.2000 0.0125 0.0000
0.2000 0.0150 0.0000
0.2000 0.0175 0.0000
0.2000 0.0200 0.0000
0.2000 0.0225 0.0000
0.2000 0.0250 0.0000
0.2000 0.0275 0.0000
0.2000 0.0300 0.0000
0.2000 0.0325 0.0000
0.2000 0.0350 0.0000
0.2000 0.0375 0.0000
0.2000 0.0400 0.0000
0.2000 0.0425 0.0000
0.2000 0.0450 0.0000
0.2000 0.0475 0.0000
0.2000 0.0500 0.0000
0.2500 0.0000 0.0000
0.2500 0.0025 0.0000
0.2500 0.0050 0.0000
0.2500 0.0075 0.0000
0.2500 0.0100 0.0000
0.2500 0.0125 0.0000
0.2500 0.0150 0.0000
0.2500 0.0175 0.0000
0.2500 0.0200 0.0000
0.2500 0.0225 0.0000
0.2500 0.0250 0.0000
0.2500 0.0275 0.0000
0.2500 0.0300 0.0000
0.2500 0.0325 0.0000
0.2500 0.0350 0.0000
0.2500 0.0375 0.0000
0.2500 0.0400 0.0000
0.2500 0.0425 0.0000
0.2500 0.0450 0.0000
0.2500 0.0475 0.0000
0.2500 0.0500 0.0000
0.3000 0.0000 0.0000
0.3000 0.0025 0.0000
0.3000 0.0050 0.0000
0.3000 0.0075 0.0000
0.3000 0.0100 0.0000
0.3000 0.0125 0.0000
0.3000 0.0150 0.0000
0.3000 0.0175 0.0000
0.3000 0.0200 0.0000
0.3000 0.0225 0.0000
0.3000 0.0250 0.0000
0.3000 0.0275 0.0000
0.3000 0.0300 0.0000
0.3000 0.0325 0.0000
0.3000 0.0350 0.0000
0.3000 0.0375 0.0000
0.3000 0.0400 0.0000
0.3000 0.0425 0.0000
0.3000 0.0450 0.0000
0.3000 0.0475 0.0000
0.3000 0.0500 0.0000
0.3500 0.0000 0.0000
0.3500 0.0025 0.0000
0.3500 0.0050 0.0000
0.3500 0.0075 0.0000
0.3500 0.0100 0.0000
0.3500 0.0125 0.0000
0.3500 0.0150 0.0000
0.3500 0.0175 0.0000
0.3500 0.0200 0.0000
0.3500 0.0225 0.0000
0.3500 0.0250 0.0000
0.3500 0.0275 0.0000
0.3500 0.0300 0.0000
0.3500 0.0325 0.0000
0.3500 0.0350 0.0000
0.3500 0.0375 0.0000
0.3500 0.0400 0.0000
0.3500 0.0425 0.0000
0.3500 0.0450 0.0000
0.3500 0.0475 0.0000
0.3500 0.0500 0.0000
0.4000 0.0000 0.0000
0.4000 0.0025 0.0000
0.4000 0.0050 0.0000
0.4000 0.0075 0.0000
0.4000 0.0100 0.0000
0.4000 0.0125 0.0000
0.4000 0.0150 0.0000
0.4000 0.0175 0.0000
0.4000 0.0200 0.0000
0.4000 0.0225 0.0000
0.4000 0.0250 0.0000
0.4000 0.0275 0.0000
0.4000 0.0300 0.0000
0.4000 0.0325 0.0000
0.4000 0.0350 0.0000
0.4000 0.0375 0.0000
0.4000 0.0400 0.0000
0.4000 0.0425 0.0000
0.4000 0.0450 0.0000
0.4000 0.0475 0.0000
0.4000 0.0500 0.0000
0.4500 0.0000 0.0000
0.4500 0.0025 0.0000
0.4500 0.0050 0.0000
0.4500 0.0075 0.0000
0.4500 0.0100 0.0000
0.4500 0.0125 0.0000
0.4500 0.0150 0.0000
0.4500 0.0175 0.0000
0.4500 0.0200 0.0000
0.4500 0.0225 0.0000
0.4500 0.0250 0.0000
0.4500 0.0275 0.0000
0.4500 0.0300 0.0000
0.4500 0.0325 0.0000
0.4500 0.0350 0.0000
0.4500 0.0375 0.0000
0.4500 0.0400 0.0000
0.4500 0.0425 0.0000
0.4500 0.0450 0.0000
0.4500 0.0475 0.0000
0.4500 0.0500 0.0000
0.5000 0.0000 0.0000
0.5000 0.0025 0.0000
0.5000 0.0050 0.0000
0.5000 0.0075 0.0000
0.5000 0.0100 0.0000
0.5000 0.0125 0.0000
0.5000 0.0150 0.0000
0.5000 0.0175 0.0000
0.5000 0.0200 0.0000
0.5000 0.0225 0.0000
0.5000 0.0250 0.0000
0.5000 0.0275 0.0000
0.5000 0.0300 0.0000
0.5000 0.0325 0.0000
0.5000 0.0350 0.0000
0.5000 0.0375 0.0000
0.5000 0.0400 0.0000
0.5000 0.0425 0.0000
0.5000 0.0450 0.0000
0.5000 0.0475 0.0000
0.5000 0.0500 0.0000
0.5500 0.0000 0.0000
0.5500 0.0025 0.0000
0.5500 0.0050 0.0000
0.5500 0.0075 0.0000
0.5500 0.0100 0.0000
0.5500 0.0125 0.0000
0.5500 0.0150 0.0000
0.5500 0.0175 0.0000
0.5500 0.0200 0.0000
0.5500 0.0225 0.0000
0.5500 0.0250 0.0000
0.5500 0.0275 0.0000
0.5500 0.0300 0.0000
0.5500 0.0325 0.0000
0.5500 0.0350 0.0000
0.5500 0.0375 0.0000
0.5500 0.0400 0.0000
0.5500 0.0425 0.0000
0.5500 0.0450 0.0000
0.5500 0.0475 0.0000
0.5500 0.0500 0.0000
0.6000 0.0000 0.0000
0.6000 0.0025 0.0000
0.6000 0.0050 0.0000
0.6000 0.0075 0.0000
0.6000 0.0100 0.0000
0.6000 0.0125 0.0000
0.6000 0.0150 0.0000
0.6000 0.0175 0.0000
0.6000 0.0200 0.0000
0.6000 0.0225 0.0000
0.6000 0.0250 0.0000
0.6000 0.0275 0.0000
0.6000 0.0300 0.0000
0.6000 0.0325 0.0000
0.6000 0.0350 0.0000
0.6000 0.0375 0.0000
0.6000 0.0400 0.0000
0.6000 0.0425 0.0000
0.6000 0.0450 0.0000
0.6000 0.0475 0.0000
0.6000 0.0500 0.0000
0.6500 0.0000 0.0000
0.6500 0.0025 0.0000
0.6500 0.0050 0.0000
0.6500 0.0075 0.0000
0.6500 0.0100 0.0000
0.6500 0.0125 0.0000
0.6500 0.0150 0.0000
0.6500 0.0175 0.0000
0.6500 0.0200 0.0000
0.6500 0.0225 0.0000
0.6500 0.0250 0.0000
0.6500 0.0275 0.0000
0.6500 0.0300 0.0000
0.6500 0.0325 0.0000
0.6500 0.0350 0.0000
0.6500 0.0375 0.0000
0.6500 0.0400 0.0000
0.6500 0.0425 0.0000
0.6500 0.0450 0.0000
0.6500 0.0475 0.0000
0.6500 0.0500 0.0000
0.7000 0.0000 0.0000
0.7000 0.0025 0.0000
0.7000 0.0050 0.0000
0.7000 0.0075 0.0000
0.7000 0.0100 0.0000
0.7000 0.0125 0.0000
0.7000 0.0150 0.0000
0.7000 0.0175 0.0000
0.7000 0.0200 0.0000
0.7000 0.0225 0.0000
0.7000 0.0250 0.0000
0.7000 0.0275 0.0000
0.7000 0.0300 0.0000
0.7000 0.0325 0.0000
0.7000 0.0350 0.0000
0.7000 0.0375 0.0000
0.7000 0.0400 0.0000
0.7000 0.0425 0.0000
0.7000 0.0450 0.0000
0.7000 0.0475 0.0000
0.7000 0.0500 0.0000
0.7500 0.0000 0.0000
0.7500 0.0025 0.0000
0.7500 0.0050 0.0000
0.7500 0.0075 0.0000
0.7500 0.0100 0.0000
0.7500 0.0125 0.0000
0.7500 0.0150 0.0000
0.7500 0.0175 0.0000
0.7500 0.0200 0.0000
0.7500 0.0225 0.0000
0.7500 0.0250 0.0000
0.7500 0.0275 0.0000
0.7500 0.0300 0.0000
0.7500 0.0325 0.0000
0.7500 0.0350 0.0000
0.7500 0.0375 0.0000
0.7500 0.0400 0.0000
0.7500 0.0425 0.0000
0.7500 0.0450 0.0000
0.7500 0.0475 0.0000
0.7500 0.0500 0.0000
0.8000 0.0000 0.0000
0.8000 0.0025 0.0000
0.8000 0.0050 0.0000
0.8000 0.0075 0.0000
0.8000 0.0100 0.0000
0.8000 0.0125 0.0000
0.8000 0.0150 0.0000
0.8000 0.0175 0.0000
0.8000 0.0200 0.0000
0.8000 0.0225 0.0000
0.8000 0.0250 0.0000
0.8000 0.0275 0.0000
0.8000 0.0300 0.0000
0.8000 0.0325 0.0000
0.8000 0.0350 0.0000
0.8000 0.0375 0.0000
0.8000 0.0400 0.0000
0.8000 0.0425 0.0000
0.8000 0.0450 0.0000
0.8000 0.0475 0.0000
0.8000 0.0500 0.0000
0.8500 0.0000 0.0000
0.8500 0.0025 0.0000
0.8500 0.0050 0.0000
0.8500 0.0075 0.0000
0.8500 0.0100 0.0000
0.8500 0.0125 0.0000
0.8500 0.0150 0.0000
0.8500 0.0175 0.0000
0.8500 0.0200 0.0000
0.8500 0.0225 0.0000
0.8500 0.0250 0.0000
0.8500 0.0275 0.0000
0.8500 0.0300 0.0000
0.8500 0.0325 0.0000
0.8500 0.0350 0.0000
0.8500 0.0375 0.0000
0.8500 0.0400 0.0000
0.8500 0.0425 0.0000
0.8500 0.0450 0.0000
0.8500 0.0475 0.0000
0.8500 0.0500 0.0000
0.9000 0.0000 0.0000
0.9000 0.0025 0.0000
0.9000 0.0050 0.0000
0.9000 0.0075 0.0000
0.9000 0.0100 0.0000
0.9000 0.0125 0.0000
0.9000 0.0150 0.0000
0.9000 0.0175 0.0000
0.9000 0.0200 0.0000
0.9000 0.0225 0.0000
0.9000 0.0250 0.0000
0.9000 0.0275 0.0000
0.9000 0.0300 0.0000
0.9000 0.0325 0.0000
0.9000 0.0350 0.0000
0.9000 0.0375 0.0000
0.9000 0.0400 0.0000
0.9000 0.0425 0.0000
0.9000 0.0450 0.0000
0.9000 0.0475 0.0000
0.9000 0.0500 0.0000
0.9500 0.0000 0.0000
0.9500 0.0025 0.0000
0.9500 0.0050 0.0000
0.9500 0.0075 0.0000
0.9500 0.0100 0.0000
0.9500 0.0125 0.0000
0.9500 0.0150 0.0000
0.9500 0.0175 0.0000
0.9500 0.0200 0.0000
0.9500 0.0225 0.0000
0.9500 0.0250 0.0000
0.9500 0.0275 0.0000
0.9500 0.0300 0.0000
0.9500 0.0325 0.0000
0.9500 0.0350 0.0000
0.9500 0.0375 0.0000
0.9500 0.0400 0.0000
0.9500 0.0425 0.0000
0.9500 0.0450 0.0000
0.9500 0.0475 0.0000
0.9500 0.0500 0.0000
1.0000 0.0000 0.0000
1.0000 0.0025 0.0000
1.0000 0.0050 0.0000
1.0000 0.0075 0.0000
1.0000 0.0100 0.0000
1.0000 0.0125 0.0000
1.0000 0.0150 0.0000
1.0000 0.0175 0.0000
1.0000 0.0200 0.0000
1.0000 0.0225 0.0000
1.0000 0.0250 0.0000
1.0000 0.0275 0.0000
1.0000 0.0300 0.0000
1.0000 0.0325 0.0000
1.0000 0.0350 0.0000
1.0000 0.0375 0.0000
1.0000 0.0400 0.0000
1.0000 0.0425 0.0000
1.0000 0.0450 0.0000
1.0000 0.0475 0.0000
1.0000 0.0500 0.0000
1.0500 0.0000 0.0000
1.0500 0.0025 0.0000
1.0500 0.0050 0.0000
1.0500 0.0075 0.0000
1.0500 0.0100 0.0000
1.0500 0.0125 0.0000
1.0500 0.0150 0.0000
1.0500 0.0175 0.0000
1.0500 0.0200 0.0000
1.0500 0.0225 0.0000
1.0500 0.0250 0.0000
1.0500 0.0275 0.0000
1.0500 0.0300 0.0000
1.0500 0.0325 0.0000
1.0500 0.0350 0.0000
1.0500 0.0375 0.0000
1.0500 0.0400 0.0000
1.0500 0.0425 0.0000
1.0500 0.0450 0.0000
1.0500 0.0475 0.0000
[...]
         <PointData>
            <DataArray Name="fValues" NumberOfComponents="1" format="ascii" type="Float64">
-3.37781e+01 
-3.33309e+01 
-3.26981e+01 
-3.21032e+01 
-3.15374e+01 
-3.09945e+01 
-3.04699e+01 
-2.99602e+01 
-2.94632e+01 
-2.89778e+01 
-2.85034e+01 
-2.80402e+01 
-2.75887e+01 
-2.71502e+01 
-2.67267e+01 
-2.63210e+01 
-2.59371e+01 
-2.55803e+01 
-2.52577e+01 
-2.49780e+01 
-2.48210e+01 
-2.69399e+01 
-2.66855e+01 
-2.62974e+01 
-2.59043e+01 
-2.55098e+01 
-2.51162e+01 
-2.47242e+01 
-2.43337e+01 
-2.39449e+01 
-2.35582e+01 
-2.31737e+01 
-2.27915e+01 
-2.24111e+01 
-2.20321e+01 
-2.16537e+01 
-2.12751e+01 
-2.08950e+01 
-2.05118e+01 
-2.01234e+01 
-1.97273e+01 
-1.94587e+01 
-1.86635e+01 
-1.85138e+01 
-1.82854e+01 
-1.80533e+01 
-1.78184e+01 
-1.75819e+01 
-1.73441e+01 
-1.71047e+01 
-1.68633e+01 
-1.66195e+01 
-1.63727e+01 
-1.61224e+01 
-1.58676e+01 
-1.56075e+01 
-1.53407e+01 
-1.50658e+01 
-1.47811e+01 
-1.44844e+01 
-1.41737e+01 
-1.38467e+01 
-1.36190e+01 
-1.34080e+01 
-1.32714e+01 
-1.30838e+01 
-1.29150e+01 
-1.27599e+01 
-1.26150e+01 
-1.24778e+01 
-1.23464e+01 
-1.22190e+01 
-1.20944e+01 
-1.19714e+01 
-1.18494e+01 
-1.17276e+01 
-1.16059e+01 
-1.14840e+01 
-1.13624e+01 
-1.12420e+01 
-1.11239e+01 
-1.10102e+01 
-1.09036e+01 
-1.08374e+01 
-9.56711e+00 
-9.54693e+00 
-9.51514e+00 
-9.48264e+00 
-9.45054e+00 
-9.41949e+00 
-9.38980e+00 
-9.36162e+00 
-9.33494e+00 
-9.30969e+00 
-9.28570e+00 
-9.26271e+00 
-9.24038e+00 
-9.21832e+00 
-9.19596e+00 
-9.17268e+00 
-9.14791e+00 
-9.12103e+00 
-9.09104e+00 
-9.05637e+00 
-9.03005e+00 
-7.02992e+00 
-7.05527e+00 
-7.09491e+00 
-7.13657e+00 
-7.17990e+00 
-7.22426e+00 
-7.26907e+00 
-7.31392e+00 
-7.35858e+00 
-7.40292e+00 
-7.44697e+00 
-7.49082e+00 
-7.53460e+00 
-7.57841e+00 
-7.62228e+00 
-7.66619e+00 
-7.71016e+00 
-7.75461e+00 
-7.80032e+00 
-7.84820e+00 
-7.88161e+00 
-5.21311e+00 
-5.30395e+00 
-5.43608e+00 
-5.54760e+00 
-5.64997e+00 
-5.74791e+00 
-5.84134e+00 
-5.93026e+00 
-6.01488e+00 
-6.09559e+00 
-6.17294e+00 
-6.24762e+00 
-6.32048e+00 
-6.39239e+00 
-6.46419e+00 
-6.53663e+00 
-6.61033e+00 
-6.68599e+00 
-6.76467e+00 
-6.84764e+00 
-6.90565e+00 
-3.56200e+00 
-3.97083e+00 
-4.52846e+00 
-4.77806e+00 
-4.91165e+00 
-5.02295e+00 
-5.12014e+00 
-5.20517e+00 
-5.27980e+00 
-5.34558e+00 
-5.40394e+00 
-5.45619e+00 
-5.50368e+00 
-5.54777e+00 
-5.58984e+00 
-5.63127e+00 
-5.67339e+00 
-5.71767e+00 
-5.76522e+00 
-5.81537e+00 
-5.85093e+00 
-9.00197e-01 
-2.12856e+00 
-4.29035e+00 
-5.13952e+00 
-5.23451e+00 
-5.23094e+00 
-5.22406e+00 
-5.21433e+00 
-5.20121e+00 
-5.18423e+00 
-5.16297e+00 
-5.13703e+00 
-5.10605e+00 
-5.06970e+00 
-5.02777e+00 
-4.98004e+00 
-4.92633e+00 
-4.86543e+00 
-4.78313e+00 
-4.65258e+00 
-4.56179e+00 
 1.64826e+00 
 7.22795e-01 
-2.73741e+00 
-5.47564e+00 
-5.95090e+00 
-5.84733e+00 
-5.73230e+00 
-5.62729e+00 
-5.52933e+00 
-5.43582e+00 
-5.34450e+00 
-5.25324e+00 
-5.16005e+00 
-5.06291e+00 
-4.95984e+00 
-4.84873e+00 
-4.72706e+00 
-4.57976e+00 
-4.26025e+00 
-3.50255e+00 
-2.95221e+00 
 2.12811e+00 
 1.91947e+00 
-3.31534e-03 
-4.28702e+00 
-6.04984e+00 
-6.14022e+00 
-6.04205e+00 
-5.94816e+00 
-5.85902e+00 
-5.77407e+00 
-5.69277e+00 
-5.61466e+00 
-5.53937e+00 
-5.46664e+00 
-5.39647e+00 
-5.32917e+00 
-5.26410e+00 
-5.12377e+00 
-4.21044e+00 
-1.70227e+00 
-2.57788e-01 
 2.14110e+00 
 2.12225e+00 
 1.49565e+00 
-2.04091e+00 
-5.47683e+00 
-6.16819e+00 
-6.13906e+00 
-6.09567e+00 
-6.05471e+00 
-6.01675e+00 
-5.98240e+00 
-5.95236e+00 
-5.92741e+00 
-5.90847e+00 
-5.89663e+00 
-5.89318e+00 
-5.89032e+00 
-5.54780e+00 
-3.25793e+00 
 6.48039e-01 
 1.75279e+00 
 2.14111e+00 
 2.14046e+00 
 1.98787e+00 
 1.12865e-01 
-4.41927e+00 
-6.04623e+00 
-6.14185e+00 
-6.13082e+00 
-6.12115e+00 
-6.11339e+00 
-6.10811e+00 
-6.10598e+00 
-6.10773e+00 
-6.11420e+00 
-6.12630e+00 
-6.14499e+00 
-6.12585e+00 
-5.13183e+00 
-1.28877e+00 
 1.70589e+00 
 2.12250e+00 
 2.14111e+00 
 2.14111e+00 
 2.11373e+00 
 1.26100e+00 
-2.94712e+00 
-5.70813e+00 
-6.11367e+00 
-6.11478e+00 
-6.11302e+00 
-6.11103e+00 
-6.10939e+00 
-6.10862e+00 
-6.10920e+00 
-6.11163e+00 
-6.11643e+00 
-6.12322e+00 
-5.97127e+00 
-4.07862e+00 
 4.95088e-01 
 2.03775e+00 
 2.14060e+00 
 2.14111e+00 
 2.14111e+00 
 2.13845e+00 
 1.79973e+00 
-1.10849e+00 
-5.12497e+00 
-6.09743e+00 
-6.10515e+00 
-6.09465e+00 
-6.08588e+00 
-6.07845e+00 
-6.07202e+00 
-6.06626e+00 
-6.06083e+00 
-6.05531e+00 
-6.04200e+00 
-5.56846e+00 
-2.70019e+00 
 1.35263e+00 
 2.11987e+00 
 2.14111e+00 
 2.14111e+00 
 2.14111e+00 
 2.14104e+00 
 2.04148e+00 
 4.70315e-01 
-4.15326e+00 
-5.89108e+00 
-6.00396e+00 
-6.00807e+00 
-6.01314e+00 
-6.01945e+00 
-6.02739e+00 
-6.03749e+00 
-6.05041e+00 
-6.06697e+00 
-6.05319e+00 
-5.00088e+00 
-9.43755e-01 
 1.82008e+00 
 2.13846e+00 
 2.14111e+00 
 2.14111e+00 
 2.14111e+00 
 2.14111e+00 
 2.11924e+00 
 1.32010e+00 
-2.83917e+00 
-5.48970e+00 
-5.87201e+00 
-5.88895e+00 
-5.90306e+00 
-5.91607e+00 
-5.92896e+00 
-5.94272e+00 
-5.95837e+00 
-5.97689e+00 
-5.87931e+00 
-4.11246e+00 
 5.22680e-01 
 2.04678e+00 
 2.14102e+00 
 2.14111e+00 
 2.14111e+00 
 2.14111e+00 
 2.14111e+00 
 2.13843e+00 
 1.78281e+00 
-1.19058e+00 
-4.96563e+00 
-5.82133e+00 
-5.82719e+00 
-5.82360e+00 
-5.82059e+00 
-5.81754e+00 
-5.81380e+00 
-5.80865e+00 
-5.79947e+00 
-5.46476e+00 
-2.96145e+00 
 1.25989e+00 
 2.11550e+00 
 2.14111e+00 
 2.14111e+00 
 2.14111e+00 
 2.14111e+00 
 2.14111e+00 
 2.14101e+00 
 2.02632e+00 
 3.57642e-01 
-4.10262e+00 
-5.61773e+00 
-5.69584e+00 
-5.70717e+00 
-5.72016e+00 
-5.73467e+00 
-5.75070e+00 
-5.76835e+00 
-5.77540e+00 
-5.01675e+00 
-1.46699e+00 
 1.71020e+00 
 2.13618e+00 
 2.14111e+00 
 2.14111e+00 
 2.14111e+00 
 2.14111e+00 
 2.14111e+00 
 2.14111e+00 
 2.11270e+00 
 1.23426e+00 
-2.91658e+00 
-5.18043e+00 
-5.47607e+00 
-5.51871e+00 
-5.55954e+00 
-5.60046e+00 
-5.64331e+00 
-5.69008e+00 
-5.68774e+00 
-4.31588e+00 
 1.31721e-01 
 1.99563e+00 
 2.14078e+00 
 2.14111e+00 
 2.14111e+00 
 2.14111e+00 
 2.14111e+00 
 2.14111e+00 
 2.14111e+00 
 2.13678e+00 
 1.71740e+00 
-1.42008e+00 
-4.67989e+00 
-5.34848e+00 
-5.36803e+00 
-5.38275e+00 
-5.39681e+00 
-5.41010e+00 
-5.42241e+00 
-5.27317e+00 
-3.34063e+00 
 1.02399e+00 
 2.09737e+00 
 2.14111e+00 
 2.14111e+00 
 2.14111e+00 
 2.14111e+00 
 2.14111e+00 
 2.14111e+00 
 2.14111e+00 
 2.14089e+00 
 1.99854e+00 
 1.98179e-01 
-3.90389e+00 
-5.16360e+00 
-5.20835e+00 
-5.21361e+00 
-5.21967e+00 
-5.22497e+00 
-5.22658e+00 
-4.81494e+00 
-2.16268e+00 
 1.50911e+00 
 2.12897e+00 
 2.14111e+00 
 2.14111e+00 
 2.14111e+00 
 2.14111e+00 
 2.14111e+00 
 2.14111e+00 
 2.14111e+00 
 2.14111e+00 
 2.10580e+00 
 1.18405e+00 
-2.76372e+00 
-4.69602e+00 
-4.93773e+00 
-5.00176e+00 
-5.06627e+00 
-5.13271e+00 
-5.18831e+00 
-4.33164e+00 
-6.26954e-01 
 1.86753e+00 
 2.13955e+00 
 2.14111e+00 
 2.14111e+00 
 2.14111e+00 
 2.14111e+00 
 2.14111e+00 
 2.14111e+00 
 2.14111e+00 
 2.14111e+00 
 2.13530e+00 
 1.69147e+00 
-1.36715e+00 
-4.11729e+00 
-4.67748e+00 
-4.75255e+00 
-4.82677e+00 
-4.90393e+00 
-4.92237e+00 
-3.54301e+00 
 6.46959e-01 
 2.05506e+00 
 2.14107e+00 
 2.14111e+00 
 2.14111e+00 
 2.14111e+00 
 2.14111e+00 
 2.14111e+00 
 2.14111e+00 
 2.14111e+00 
 2.14111e+00 
 2.14075e+00 
 1.98372e+00 
 1.95410e-01 
-3.35991e+00 
-4.40261e+00 
-4.44958e+00 
-4.46660e+00 
-4.48244e+00 
-4.32861e+00 
-2.51406e+00 
 1.29172e+00 
 2.11473e+00 
 2.14111e+00 
 2.14111e+00 
 2.14111e+00 
 2.14111e+00 
 2.14111e+00 
 2.14111e+00 
 2.14111e+00 
 2.14111e+00 
 2.14111e+00 
 2.14111e+00 
 2.10345e+00 
 1.22973e+00 
-2.26768e+00 
-3.93058e+00 
-4.11453e+00 
-4.14355e+00 
-4.16763e+00 
-3.76011e+00 
-1.29848e+00 
 1.68389e+00 
 2.13476e+00 
 2.14111e+00 
 2.14111e+00 
 2.14111e+00 
 2.14111e+00 
 2.14111e+00 
 2.14111e+00 
 2.14111e+00 
 2.14111e+00 
 2.14111e+00 
 2.14111e+00 
 2.13534e+00 
 1.74069e+00 
-9.12543e-01 
-3.28831e+00 
-3.79900e+00 
-3.89468e+00 
-3.96615e+00 
-3.10186e+00 
 2.29972e-01 
 1.97902e+00 
 2.14055e+00 
 2.14111e+00 
 2.14111e+00 
 2.14111e+00 
 2.14111e+00 
 2.14111e+00 
 2.14111e+00 
 2.14111e+00 
 2.14111e+00 
 2.14111e+00 
 2.14111e+00 
 2.14068e+00 
 2.00373e+00 
 5.10702e-01 
-2.38380e+00 
-3.33459e+00 
-3.46703e+00 
-3.45907e+00 
-2.12481e+00 
 1.21299e+00 
 2.10025e+00 
 2.14111e+00 
 2.14111e+00 
 2.14111e+00 
 2.14111e+00 
 2.14111e+00 
 2.14111e+00 
 2.14111e+00 
 2.14111e+00 
 2.14111e+00 
 2.14111e+00 
 2.14111e+00 
 2.14110e+00 
 2.10785e+00 
 1.42111e+00 
-1.22314e+00 
-2.66857e+00 
-2.90095e+00 
-2.69122e+00 
-9.14956e-01 
 1.68575e+00 
 2.13221e+00 
 2.14111e+00 
 2.14111e+00 
 2.14111e+00 
 2.14111e+00 
 2.14111e+00 
 2.14111e+00 
 2.14111e+00 
 2.14111e+00 
 2.14111e+00 
 2.14111e+00 
 2.14111e+00 
 2.14111e+00 
 2.13517e+00 
 1.84797e+00 
-5.57967e-03 
-1.94638e+00 
-2.39731e+00 
-1.85190e+00 
 3.93549e-01 
 1.95965e+00 
 2.13979e+00 
 2.14111e+00 
 2.14111e+00 
 2.14111e+00 
 2.14111e+00 
 2.14111e+00 
 2.14111e+00 
 2.14111e+00 
 2.14111e+00 
 2.14111e+00 
 2.14111e+00 
 2.14111e+00 
 2.14111e+00 
 2.14016e+00 
 2.03778e+00 
 1.01844e+00 
-1.08202e+00 
-1.78121e+00 
-8.49125e-01 
 1.34415e+00 
 2.08972e+00 
 2.14099e+00 
 2.14111e+00 
 2.14111e+00 
 2.14111e+00 
 2.14111e+00 
 2.14111e+00 
 2.14111e+00 
 2.14111e+00 
 2.14111e+00 
 2.14111e+00 
 2.14111e+00 
 2.14111e+00 
 2.14111e+00 
 2.14093e+00 
 2.10741e+00 
 1.59619e+00 
-1.69810e-01 
-1.02170e+00 
 1.95355e-01 
 1.80164e+00 
 2.12859e+00 
 2.14110e+00 
 2.14111e+00 
 2.14111e+00 
 2.14111e+00 
 2.14111e+00 
 2.14111e+00 
 2.14111e+00 
 2.14111e+00 
 2.14111e+00 
 2.14111e+00 
 2.14111e+00 
 2.14111e+00 
 2.14111e+00 
 2.14107e+00 
 2.12798e+00 
 1.86095e+00 
 6.27697e-01 
-1.94832e-01 
 1.01783e+00 
 1.99807e+00 
 2.13781e+00 
 2.14111e+00 
 2.14111e+00 
 2.14111e+00 
 2.14111e+00 
 2.14111e+00 
 2.14111e+00 
 2.14111e+00 
 2.14111e+00 
 2.14111e+00 
 2.14111e+00 
 2.14111e+00 
 2.14111e+00 
 2.14111e+00 
 2.14110e+00 
 2.13518e+00 
 1.99754e+00 
 1.28674e+00 
 7.51353e-01 
 1.57390e+00 
 2.08338e+00 
 2.14027e+00 
 2.14111e+00 
 2.14111e+00 
 2.14111e+00 
 2.14111e+00 
 2.14111e+00 
 2.14111e+00 
 2.14111e+00 
 2.14111e+00 
 2.14111e+00 
 2.14111e+00 
 2.14111e+00 
 2.14111e+00 
 2.14111e+00 
 2.14111e+00 
 2.13907e+00 
 2.08337e+00 
 1.77977e+00 
 1.54772e+00 
 1.91720e+00 
 2.12103e+00 
 2.14094e+00 
 2.14111e+00 
 2.14111e+00 
 2.14111e+00 
 2.14111e+00 
 2.14111e+00 
 2.14111e+00 
 2.14111e+00 
 2.14111e+00 
 2.14111e+00 
 2.14111e+00 
 2.14111e+00 
 2.14111e+00 
 2.14111e+00 
 2.14111e+00 
 2.14082e+00 
 2.12909e+00 
 2.05859e+00 
 2.00939e+00 
 2.09620e+00 
 2.13775e+00 
 2.14110e+00 
 2.14111e+00 
 2.14111e+00 
 2.14111e+00 
 2.14111e+00 
 2.14111e+00 
 2.14111e+00 
 2.14111e+00 
 2.14111e+00 
 2.14111e+00 
 2.14111e+00 
 2.14111e+00 
 2.14111e+00 
 2.14111e+00 
 2.14111e+00 
 2.14110e+00 
 2.14052e+00 
 2.13628e+00 
 2.13352e+00 
 2.13899e+00 
 2.14100e+00 
 2.14111e+00 
 2.14111e+00 
 2.14111e+00 
 2.14111e+00 
 2.14111e+00 
 2.14111e+00 
 2.14111e+00 
 2.14111e+00 
 2.14111e+00 
 2.14111e+00 
 2.14111e+00 
 2.14111e+00 
 2.14111e+00 
 2.14111e+00 
 2.14111e+00 
 2.14111e+00 
 2.14111e+00 
 2.14107e+00 
 2.14104e+00 
 2.14110e+00 
 2.14111e+00 
 2.14111e+00 
 2.14111e+00 
 2.14111e+00 
 2.14111e+00 
 2.14111e+00 
 2.14111e+00 
 2.14111e+00 
 2.14111e+00 
 2.14111e+00 
 2.14111e+00 
 2.14111e+00 
 2.14111e+00 
 2.14111e+00 
 2.14111e+00 
 2.14111e+00 
 2.14111e+00 
 2.14111e+00 
 2.14111e+00 
 2.14111e+00 
 2.14111e+00 
 2.14111e+00 
 2.14111e+00 
 2.14111e+00 
 2.14111e+00 
 2.14111e+00 
 2.14111e+00 
 2.14111e+00 
 2.14111e+00 
 2.14111e+00 
 2.14111e+00 
 2.14111e+00 
 2.14111e+00 
 2.14111e+00 
 2.14111e+00 
 2.14111e+00 
 2.14111e+00 
 2.14111e+00 
 2.14111e+00 
 2.14111e+00 
 2.14111e+00 
 2.14111e+00 
 2.14111e+00 
 2.14111e+00 
 2.14111e+00 
 2.14111e+00 
 2.14111e+00 
 2.14111e+00 
 2.14111e+00 
 2.14111e+00 
 2.14111e+00 
 2.14111e+00 
 2.14111e+00 
 2.14111e+00 
 2.14111e+00 
 2.14111e+00 
 2.14111e+00 
 2.14111e+00 
 2.14111e+00 
 2.14111e+00 
 2.14111e+00 
 2.14111e+00 
 2.14111e+00 
 2.14111e+00 
 2.14111e+00 
 2.14111e+00 
 2.14111e+00 
 2.14111e+00 
 2.14111e+00 
 2.14111e+00 
 2.14111e+00 
-1.83980e+01 
-1.80032e+01 
-1.74499e+01 
-1.69361e+01 
-1.64533e+01 
-1.59929e+01 
-1.55408e+01 
-1.50888e+01 
-1.46461e+01 
-1.42162e+01 
-1.37964e+01 
-1.33843e+01 
-1.29780e+01 
-1.25761e+01 
-1.21760e+01 
-1.17724e+01 
-1.13507e+01 
-1.08837e+01 
-1.03800e+01 
-9.95237e+00 
-9.73743e+00 
-1.61622e+01 
-1.59166e+01 
-1.55492e+01 
-1.51849e+01 
-1.48239e+01 
-1.44657e+01 
-1.41065e+01 
-1.37426e+01 
-1.33794e+01 
-1.30205e+01 
-1.26654e+01 
-1.23124e+01 
-1.19602e+01 
-1.16071e+01 
-1.12513e+01 
-1.08886e+01 
-1.05085e+01 
-1.00904e+01 
-9.62660e+00 
-9.17537e+00 
-8.91446e+00 
-1.30843e+01 
-1.29506e+01 
-1.27447e+01 
-1.25334e+01 
-1.23176e+01 
-1.20977e+01 
-1.18737e+01 
-1.16456e+01 
-1.14143e+01 
-1.11805e+01 
-1.09439e+01 
-1.07040e+01 
-1.04599e+01 
-1.02102e+01 
-9.95439e+00 
-9.69212e+00 
-9.42141e+00 
-9.13658e+00 
-8.83372e+00 
-8.52902e+00 
-8.33986e+00 
-9.86711e+00 
-9.77465e+00 
-9.64480e+00 
-9.52421e+00 
-9.40988e+00 
-9.29936e+00 
-9.19057e+00 
-9.08206e+00 
-8.97307e+00 
-8.86337e+00 
-8.75274e+00 
-8.64067e+00 
-8.52604e+00 
-8.40699e+00 
-8.28233e+00 
-8.15343e+00 
-8.02423e+00 
-7.89816e+00 
-7.77833e+00 
-7.67135e+00 
-7.61082e+00 
-7.10847e+00 
-7.11909e+00 
-7.13136e+00 
-7.13814e+00 
-7.14197e+00 
-7.14391e+00 
-7.14406e+00 
-7.14229e+00 
-7.13843e+00 
-7.13236e+00 
-7.12410e+00 
-7.11386e+00 
-7.10177e+00 
-7.08729e+00 
-7.06793e+00 
-7.04016e+00 
-7.00619e+00 
-6.97349e+00 
-6.94662e+00 
-6.92907e+00 
-6.92335e+00 
-5.08336e+00 
-5.18072e+00 
-5.32005e+00 
-5.41825e+00 
-5.49913e+00 
-5.57512e+00 
-5.64714e+00 
-5.71523e+00 
-5.77950e+00 
-5.84011e+00 
-5.89718e+00 
-5.95087e+00 
-6.00150e+00 
-6.04952e+00 
-6.09444e+00 
-6.13150e+00 
-6.15425e+00 
-6.17102e+00 
-6.19222e+00 
-6.22662e+00 
-6.26132e+00 
-3.43798e+00 
-3.70587e+00 
-4.13532e+00 
-4.37668e+00 
-4.50944e+00 
-4.61979e+00 
-4.72176e+00 
-4.81629e+00 
-4.90410e+00 
-4.98589e+00 
-5.06234e+00 
-5.13404e+00 
-5.20144e+00 
-5.26499e+00 
-5.32507e+00 
-5.37765e+00 
-5.40842e+00 
-5.41522e+00 
-5.40959e+00 
-5.40888e+00 
-5.42860e+00 
-1.75938e+00 
-2.38009e+00 
-3.48853e+00 
-4.08193e+00 
-4.25965e+00 
-4.34462e+00 
-4.41691e+00 
-4.48165e+00 
-4.53955e+00 
-4.59118e+00 
-4.63710e+00 
-4.67778e+00 
-4.71354e+00 
-4.74453e+00 
-4.77078e+00 
-4.78821e+00 
-4.77563e+00 
-4.70785e+00 
-4.57682e+00 
-4.41096e+00 
-4.33781e+00 
 5.13148e-01 
-5.13327e-01 
-2.84437e+00 
-4.32817e+00 
-4.66813e+00 
-4.67815e+00 
-4.66153e+00 
-4.64622e+00 
-4.63132e+00 
-4.61579e+00 
-4.59867e+00 
-4.57910e+00 
-4.55625e+00 
-4.52911e+00 
-4.49644e+00 
-4.45232e+00 
-4.36475e+00 
-4.16340e+00 
-3.76915e+00 
-3.23053e+00 
-2.95140e+00 
 1.92814e+00 
 1.38880e+00 
-1.10582e+00 
-4.04667e+00 
-5.07385e+00 
-5.13025e+00 
-5.05967e+00 
-4.99187e+00 
-4.92945e+00 
-4.87105e+00 
-4.81544e+00 
-4.76149e+00 
-4.70817e+00 
-4.65442e+00 
-4.59896e+00 
-4.53420e+00 
-4.41003e+00 
-4.07004e+00 
-3.23979e+00 
-1.93892e+00 
-1.24262e+00 
 2.13705e+00 
 2.03745e+00 
 8.79944e-01 
-2.58262e+00 
-4.89425e+00 
-5.31149e+00 
-5.27885e+00 
-5.22599e+00 
-5.17699e+00 
-5.13198e+00 
-5.09099e+00 
-5.05413e+00 
-5.02157e+00 
-4.99361e+00 
-4.97043e+00 
-4.94236e+00 
-4.82512e+00 
-4.29770e+00 
-2.67996e+00 
-1.38349e-01 
 9.36594e-01 
 2.14111e+00 
 2.13347e+00 
 1.78640e+00 
-6.61248e-01 
-4.14664e+00 
-5.27343e+00 
-5.34543e+00 
-5.32569e+00 
-5.30811e+00 
-5.29393e+00 
-5.28355e+00 
-5.27743e+00 
-5.27608e+00 
-5.28006e+00 
-5.28969e+00 
-5.28801e+00 
-5.12273e+00 
-4.15252e+00 
-1.43675e+00 
 1.36934e+00 
 1.98696e+00 
 2.14111e+00 
 2.14090e+00 
 2.06333e+00 
 8.63836e-01 
-2.97280e+00 
-5.05014e+00 
-5.33809e+00 
-5.34298e+00 
-5.34388e+00 
-5.34691e+00 
-5.35241e+00 
-5.36070e+00 
-5.37214e+00 
-5.38710e+00 
-5.40540e+00 
-5.39685e+00 
-5.08933e+00 
-3.40302e+00 
 1.27202e-01 
 1.93647e+00 
 2.13517e+00 
 2.14111e+00 
 2.14111e+00 
 2.12889e+00 
 1.60779e+00 
-1.54873e+00 
-4.61810e+00 
-5.30785e+00 
-5.33407e+00 
-5.33609e+00 
-5.33941e+00 
-5.34411e+00 
-5.35020e+00 
-5.35768e+00 
-5.36656e+00 
-5.37543e+00 
-5.32988e+00 
-4.75581e+00 
-2.31244e+00 
 1.20610e+00 
 2.09588e+00 
 2.14097e+00 
 2.14111e+00 
 2.14111e+00 
 2.14012e+00 
 1.94928e+00 
-4.37018e-02 
-3.92256e+00 
-5.22981e+00 
-5.31236e+00 
-5.31135e+00 
-5.31241e+00 
-5.31535e+00 
-5.31988e+00 
-5.32575e+00 
-5.33272e+00 
-5.33716e+00 
-5.23699e+00 
-4.22619e+00 
-1.05840e+00 
 1.71308e+00 
 2.13287e+00 
 2.14111e+00 
 2.14111e+00 
 2.14111e+00 
 2.14109e+00 
 2.08914e+00 
 1.03851e+00 
-2.91134e+00 
-4.97501e+00 
-5.22876e+00 
-5.24078e+00 
-5.25220e+00 
-5.26470e+00 
-5.27864e+00 
-5.29441e+00 
-5.31243e+00 
-5.32533e+00 
-5.13824e+00 
-3.50613e+00 
 2.60607e-01 
 1.98285e+00 
 2.14025e+00 
 2.14111e+00 
 2.14111e+00 
 2.14111e+00 
 2.14111e+00 
 2.13077e+00 
 1.60660e+00 
-1.65965e+00 
-4.57983e+00 
-5.15033e+00 
-5.16918e+00 
-5.18042e+00 
-5.19199e+00 
-5.20410e+00 
-5.21694e+00 
-5.23067e+00 
-5.22818e+00 
-4.85372e+00 
-2.57254e+00 
 1.16192e+00 
 2.09724e+00 
 2.14109e+00 
 2.14111e+00 
 2.14111e+00 
 2.14111e+00 
 2.14111e+00 
 2.14004e+00 
 1.92033e+00 
-2.63705e-01 
-4.02569e+00 
-5.08100e+00 
-5.11513e+00 
-5.11681e+00 
-5.12027e+00 
-5.12491e+00 
-5.13016e+00 
-5.13539e+00 
-5.10384e+00 
-4.41612e+00 
-1.48839e+00 
 1.62031e+00 
 2.13014e+00 
 2.14111e+00 
 2.14111e+00 
 2.14111e+00 
 2.14111e+00 
 2.14111e+00 
 2.14108e+00 
 2.07268e+00 
 8.49272e-01 
-3.19097e+00 
-4.85495e+00 
-4.99550e+00 
-5.01307e+00 
-5.03165e+00 
-5.05146e+00 
-5.07280e+00 
-5.09579e+00 
-5.04290e+00 
-3.88395e+00 
-2.42284e-01 
 1.90740e+00 
 2.13935e+00 
 2.14111e+00 
 2.14111e+00 
 2.14111e+00 
 2.14111e+00 
 2.14111e+00 
 2.14111e+00 
 2.12482e+00 
 1.46864e+00 
-2.10693e+00 
-4.49766e+00 
-4.86732e+00 
-4.89640e+00 
-4.92389e+00 
-4.95116e+00 
-4.97907e+00 
-5.00757e+00 
-4.87184e+00 
-3.14156e+00 
 8.20018e-01 
 2.06562e+00 
 2.14102e+00 
 2.14111e+00 
 2.14111e+00 
 2.14111e+00 
 2.14111e+00 
 2.14111e+00 
 2.14111e+00 
 2.13890e+00 
 1.83065e+00 
-7.65800e-01 
-4.06932e+00 
-4.81948e+00 
-4.82976e+00 
-4.83326e+00 
-4.83723e+00 
-4.84093e+00 
-4.84046e+00 
-4.51197e+00 
-2.22622e+00 
 1.38936e+00 
 2.11880e+00 
 2.14111e+00 
 2.14111e+00 
 2.14111e+00 
 2.14111e+00 
 2.14111e+00 
 2.14111e+00 
 2.14111e+00 
 2.14102e+00 
 2.03632e+00 
 5.40363e-01 
-3.36963e+00 
-4.65736e+00 
-4.71515e+00 
-4.72462e+00 
-4.73628e+00 
-4.74926e+00 
-4.75246e+00 
-4.13459e+00 
-1.15572e+00 
 1.72664e+00 
 2.13553e+00 
 2.14111e+00 
 2.14111e+00 
 2.14111e+00 
 2.14111e+00 
 2.14111e+00 
 2.14111e+00 
 2.14111e+00 
 2.14111e+00 
 2.11341e+00 
 1.30184e+00 
-2.39101e+00 
-4.24973e+00 
-4.48472e+00 
-4.54381e+00 
-4.60408e+00 
-4.66680e+00 
-4.69914e+00 
-3.66056e+00 
 8.11228e-02 
 1.96922e+00 
 2.14050e+00 
 2.14111e+00 
 2.14111e+00 
 2.14111e+00 
 2.14111e+00 
 2.14111e+00 
 2.14111e+00 
 2.14111e+00 
 2.14111e+00 
 2.13591e+00 
 1.71207e+00 
-1.21974e+00 
-3.78172e+00 
-4.28459e+00 
-4.34594e+00 
-4.40676e+00 
-4.46937e+00 
-4.44379e+00 
-2.97813e+00 
 9.57076e-01 
 2.08406e+00 
 2.14110e+00 
 2.14111e+00 
 2.14111e+00 
 2.14111e+00 
 2.14111e+00 
 2.14111e+00 
 2.14111e+00 
 2.14111e+00 
 2.14111e+00 
 2.14071e+00 
 1.97069e+00 
 1.31364e-01 
-3.21052e+00 
-4.13821e+00 
-4.17551e+00 
-4.19187e+00 
-4.20713e+00 
-4.02528e+00 
-2.16782e+00 
 1.40875e+00 
 2.12175e+00 
 2.14111e+00 
 2.14111e+00 
 2.14111e+00 
 2.14111e+00 
 2.14111e+00 
 2.14111e+00 
 2.14111e+00 
 2.14111e+00 
 2.14111e+00 
 2.14111e+00 
 2.09055e+00 
 1.09582e+00 
-2.41310e+00 
-3.90646e+00 
-4.05302e+00 
-4.08733e+00 
-4.11907e+00 
-3.69785e+00 
-1.18241e+00 
 1.71793e+00 
 2.13618e+00 
 2.14111e+00 
 2.14111e+00 
 2.14111e+00 
 2.14111e+00 
 2.14111e+00 
 2.14111e+00 
 2.14111e+00 
 2.14111e+00 
 2.14111e+00 
 2.14111e+00 
 2.12861e+00 
 1.59353e+00 
-1.42242e+00 
-3.58053e+00 
-3.98846e+00 
-4.08489e+00 
-4.16540e+00 