<?xml version="1.0" encoding="utf-8"?>
<VTKFile byte_order="LittleEndian" type="UnstructuredGrid" version="0.1">
   <UnstructuredGrid>
      <Piece NumberOfCells="1444" NumberOfPoints="761">
         <Points>
            <DataArray Name="Points" NumberOfComponents="3" format="ascii" type="Float32">
-1.0000 -1.0000 0.0000
-1.0000 -0.8947 0.0000
-1.0000 -0.7895 0.0000
-1.0000 -0.6842 0.0000
-1.0000 -0.5789 0.0000
-1.0000 -0.4737 0.0000
-1.0000 -0.3684 0.0000
-1.0000 -0.2632 0.0000
-1.0000 -0.1579 0.0000
-1.0000 -0.0526 0.0000
-1.0000 0.0526 0.0000
-1.0000 0.1579 0.0000
-1.0000 0.2632 0.0000
-1.0000 0.3684 0.0000
-1.0000 0.4737 0.0000
-1.0000 0.5789 0.0000
-1.0000 0.6842 0.0000
-1.0000 0.7895 0.0000
-1.0000 0.8947 0.0000
-1.0000 1.0000 0.0000
-0.8947 -1.0000 0.0000
-0.8947 -0.8947 0.0000
-0.8947 -0.7895 0.0000
-0.8947 -0.6842 0.0000
-0.8947 -0.5789 0.0000
-0.8947 -0.4737 0.0000
-0.8947 -0.3684 0.0000
-0.8947 -0.2632 0.0000
-0.8947 -0.1579 0.0000
-0.8947 -0.0526 0.0000
-0.8947 0.0526 0.0000
-0.8947 0.1579 0.0000
-0.8947 0.2632 0.0000
-0.8947 0.3684 0.0000
-0.8947 0.4737 0.0000
-0.8947 0.5789 0.0000
-0.8947 0.6842 0.0000
-0.8947 0.7895 0.0000
-0.8947 0.8947 0.0000
-0.8947 1.0000 0.0000
-0.7895 -1.0000 0.0000
-0.7895 -0.8947 0.0000
-0.7895 -0.7895 0.0000
-0.7895 -0.6842 0.0000
-0.7895 -0.5789 0.0000
-0.7895 -0.4737 0.0000
-0.7895 -0.3684 0.0000
-0.7895 -0.2632 0.0000
-0.7895 -0.1579 0.0000
-0.7895 -0.0526 0.0000
-0.7895 0.0526 0.0000
-0.7895 0.1579 0.0000
-0.7895 0.2632 0.0000
-0.7895 0.3684 0.0000
-0.7895 0.4737 0.0000
-0.7895 0.5789 0.0000
-0.7895 0.6842 0.0000
-0.7895 0.7895 0.0000
-0.7895 0.8947 0.0000
-0.7895 1.0000 0.0000
-0.6842 -1.0000 0.0000
-0.6842 -0.8947 0.0000
-0.6842 -0.7895 0.0000
-0.6842 -0.6842 0.0000
-0.6842 -0.5789 0.0000
-0.6842 -0.4737 0.0000
-0.6842 -0.3684 0.0000
-0.6842 -0.2632 0.0000
-0.6842 -0.1579 0.0000
-0.6842 -0.0526 0.0000
-0.6842 0.0526 0.0000
-0.6842 0.1579 0.0000
-0.6842 0.2632 0.0000
-0.6842 0.3684 0.0000
-0.6842 0.4737 0.0000
-0.6842 0.5789 0.0000
-0.6842 0.6842 0.0000
-0.6842 0.7895 0.0000
-0.6842 0.8947 0.0000
-0.6842 1.0000 0.0000
-0.5789 -1.0000 0.0000
-0.5789 -0.8947 0.0000
-0.5789 -0.7895 0.0000
-0.5789 -0.6842 0.0000
-0.5789 -0.5789 0.0000
-0.5789 -0.4737 0.0000
-0.5789 -0.3684 0.0000
-0.5789 -0.2632 0.0000
-0.5789 -0.1579 0.0000
-0.5789 -0.0526 0.0000
-0.5789 0.0526 0.0000
-0.5789 0.1579 0.0000
-0.5789 0.2632 0.0000
-0.5789 0.3684 0.0000
-0.5789 0.4737 0.0000
-0.5789 0.5789 0.0000
-0.5789 0.6842 0.0000
-0.5789 0.7895 0.0000
-0.5789 0.8947 0.0000
-0.5789 1.0000 0.0000
-0.4737 -1.0000 0.0000
-0.4737 -0.8947 0.0000
-0.4737 -0.7895 0.0000
-0.4737 -0.6842 0.0000
-0.4737 -0.5789 0.0000
-0.4737 -0.4737 0.0000
-0.4737 -0.3684 0.0000
-0.4737 -0.2632 0.0000
-0.4737 -0.1579 0.0000
-0.4737 -0.0526 0.0000
-0.4737 0.0526 0.0000
-0.4737 0.1579 0.0000
-0.4737 0.2632 0.0000
-0.4737 0.3684 0.0000
-0.4737 0.4737 0.0000
-0.4737 0.5789 0.0000
-0.4737 0.6842 0.0000
-0.4737 0.7895 0.0000
-0.4737 0.8947 0.0000
-0.4737 1.0000 0.0000
-0.3684 -1.0000 0.0000
-0.3684 -0.8947 0.0000
-0.3684 -0.7895 0.0000
-0.3684 -0.6842 0.0000
-0.3684 -0.5789 0.0000
-0.3684 -0.4737 0.0000
-0.3684 -0.3684 0.0000
-0.3684 -0.2632 0.0000
-0.3684 -0.1579 0.0000
-0.3684 -0.0526 0.0000
-0.3684 0.0526 0.0000
-0.3684 0.1579 0.0000
-0.3684 0.2632 0.0000
-0.3684 0.3684 0.0000
-0.3684 0.4737 0.0000
-0.3684 0.5789 0.0000
-0.3684 0.6842 0.0000
-0.3684 0.7895 0.0000
-0.3684 0.8947 0.0000
-0.3684 1.0000 0.0000
-0.2632 -1.0000 0.0000
-0.2632 -0.8947 0.0000
-0.2632 -0.7895 0.0000
-0.2632 -0.6842 0.0000
-0.2632 -0.5789 0.0000
-0.2632 -0.4737 0.0000
-0.2632 -0.3684 0.0000
-0.2632 -0.2632 0.0000
-0.2632 -0.1579 0.0000
-0.2632 -0.0526 0.0000
-0.2632 0.0526 0.0000
-0.2632 0.1579 0.0000
-0.2632 0.2632 0.0000
-0.2632 0.3684 0.0000
-0.2632 0.4737 0.0000
-0.2632 0.5789 0.0000
-0.2632 0.6842 0.0000
-0.2632 0.7895 0.0000
-0.2632 0.8947 0.0000
-0.2632 1.0000 0.0000
-0.1579 -1.0000 0.0000
-0.1579 -0.8947 0.0000
-0.1579 -0.7895 0.0000
-0.1579 -0.6842 0.0000
-0.1579 -0.5789 0.0000
-0.1579 -0.4737 0.0000
-0.1579 -0.3684 0.0000
-0.1579 -0.2632 0.0000
-0.1579 -0.1579 0.0000
-0.1579 -0.0526 0.0000
-0.1579 0.0526 0.0000
-0.1579 0.1579 0.0000
-0.1579 0.2632 0.0000
-0.1579 0.3684 0.0000
-0.1579 0.4737 0.0000
-0.1579 0.5789 0.0000
-0.1579 0.6842 0.0000
-0.1579 0.7895 0.0000
-0.1579 0.8947 0.0000
-0.1579 1.0000 0.0000
-0.0526 -1.0000 0.0000
-0.0526 -0.8947 0.0000
-0.0526 -0.7895 0.0000
-0.0526 -0.6842 0.0000
-0.0526 -0.5789 0.0000
-0.0526 -0.4737 0.0000
-0.0526 -0.3684 0.0000
-0.0526 -0.2632 0.0000
-0.0526 -0.1579 0.0000
-0.0526 -0.0526 0.0000
-0.0526 0.0526 0.0000
-0.0526 0.1579 0.0000
-0.0526 0.2632 0.0000
-0.0526 0.3684 0.0000
-0.0526 0.4737 0.0000
-0.0526 0.5789 0.0000
-0.0526 0.6842 0.0000
-0.0526 0.7895 0.0000
-0.0526 0.8947 0.0000
-0.0526 1.0000 0.0000
0.0526 -1.0000 0.0000
0.0526 -0.8947 0.0000
0.0526 -0.7895 0.0000
0.0526 -0.6842 0.0000
0.0526 -0.5789 0.0000
0.0526 -0.4737 0.0000
0.0526 -0.3684 0.0000
0.0526 -0.2632 0.0000
0.0526 -0.1579 0.0000
0.0526 -0.0526 0.0000
0.0526 0.0526 0.0000
0.0526 0.1579 0.0000
0.0526 0.2632 0.0000
0.0526 0.3684 0.0000
0.0526 0.4737 0.0000
0.0526 0.5789 0.0000
0.0526 0.6842 0.0000
0.0526 0.7895 0.0000
0.0526 0.8947 0.0000
0.0526 1.0000 0.0000
0.1579 -1.0000 0.0000
0.1579 -0.8947 0.0000
0.1579 -0.7895 0.0000
0.1579 -0.6842 0.0000
0.1579 -0.5789 0.0000
0.1579 -0.4737 0.0000
0.1579 -0.3684 0.0000
0.1579 -0.2632 0.0000
0.1579 -0.1579 0.0000
0.1579 -0.0526 0.0000
0.1579 0.0526 0.0000
0.1579 0.1579 0.0000
0.1579 0.2632 0.0000
0.1579 0.3684 0.0000
0.1579 0.4737 0.0000
0.1579 0.5789 0.0000
0.1579 0.6842 0.0000
0.1579 0.7895 0.0000
0.1579 0.8947 0.0000
0.1579 1.0000 0.0000
0.2632 -1.0000 0.0000
0.2632 -0.8947 0.0000
0.2632 -0.7895 0.0000
0.2632 -0.6842 0.0000
0.2632 -0.5789 0.0000
0.2632 -0.4737 0.0000
0.2632 -0.3684 0.0000
0.2632 -0.2632 0.0000
0.2632 -0.1579 0.0000
0.2632 -0.0526 0.0000
0.2632 0.0526 0.0000
0.2632 0.1579 0.0000
0.2632 0.2632 0.0000
0.2632 0.3684 0.0000
0.2632 0.4737 0.0000
0.2632 0.5789 0.0000
0.2632 0.6842 0.0000
0.2632 0.7895 0.0000
0.2632 0.8947 0.0000
0.2632 1.0000 0.0000
0.3684 -1.0000 0.0000
0.3684 -0.8947 0.0000
0.3684 -0.7895 0.0000
0.3684 -0.6842 0.0000
0.3684 -0.5789 0.0000
0.3684 -0.4737 0.0000
0.3684 -0.3684 0.0000
0.3684 -0.2632 0.0000
0.3684 -0.1579 0.0000
0.3684 -0.0526 0.0000
0.3684 0.0526 0.0000
0.3684 0.1579 0.0000
0.3684 0.2632 0.0000
0.3684 0.3684 0.0000
0.3684 0.4737 0.0000
0.3684 0.5789 0.0000
0.3684 0.6842 0.0000
0.3684 0.7895 0.0000
0.3684 0.8947 0.0000
0.3684 1.0000 0.0000
0.4737 -1.0000 0.0000
0.4737 -0.8947 0.0000
0.4737 -0.7895 0.0000
0.4737 -0.6842 0.0000
0.4737 -0.5789 0.0000
0.4737 -0.4737 0.0000
0.4737 -0.3684 0.0000
0.4737 -0.2632 0.0000
0.4737 -0.1579 0.0000
0.4737 -0.0526 0.0000
0.4737 0.0526 0.0000
0.4737 0.1579 0.0000
0.4737 0.2632 0.0000
0.4737 0.3684 0.0000
0.4737 0.4737 0.0000
0.4737 0.5789 0.0000
0.4737 0.6842 0.0000
0.4737 0.7895 0.0000
0.4737 0.8947 0.0000
0.4737 1.0000 0.0000
0.5789 -1.0000 0.0000
0.5789 -0.8947 0.0000
0.5789 -0.7895 0.0000
0.5789 -0.6842 0.0000
0.5789 -0.5789 0.0000
0.5789 -0.4737 0.0000
0.5789 -0.3684 0.0000
0.5789 -0.2632 0.0000
0.5789 -0.1579 0.0000
0.5789 -0.0526 0.0000
0.5789 0.0526 0.0000
0.5789 0.1579 0.0000
0.5789 0.2632 0.0000
0.5789 0.3684 0.0000
0.5789 0.4737 0.0000
0.5789 0.5789 0.0000
0.5789 0.6842 0.0000
0.5789 0.7895 0.0000
0.5789 0.8947 0.0000
0.5789 1.0000 0.0000
0.6842 -1.0000 0.0000
0.6842 -0.8947 0.0000
0.6842 -0.7895 0.0000
0.6842 -0.6842 0.0000
0.6842 -0.5789 0.0000
0.6842 -0.4737 0.0000
0.6842 -0.3684 0.0000
0.6842 -0.2632 0.0000
0.6842 -0.1579 0.0000
0.6842 -0.0526 0.0000
0.6842 0.0526 0.0000
0.6842 0.1579 0.0000
0.6842 0.2632 0.0000
0.6842 0.3684 0.0000
0.6842 0.4737 0.0000
0.6842 0.5789 0.0000
0.6842 0.6842 0.0000
0.6842 0.7895 0.0000
0.6842 0.8947 0.0000
0.6842 1.0000 0.0000
0.7895 -1.0000 0.0000
0.7895 -0.8947 0.0000
0.7895 -0.7895 0.0000
0.7895 -0.6842 0.0000
0.7895 -0.5789 0.0000
0.7895 -0.4737 0.0000
0.7895 -0.3684 0.0000
0.7895 -0.2632 0.0000
0.7895 -0.1579 0.0000
0.7895 -0.0526 0.0000
0.7895 0.0526 0.0000
0.7895 0.1579 0.0000
0.7895 0.2632 0.0000
0.7895 0.3684 0.0000
0.7895 0.4737 0.0000
0.7895 0.5789 0.0000
0.7895 0.6842 0.0000
0.7895 0.7895 0.0000
0.7895 0.8947 0.0000
0.7895 1.0000 0.0000
0.8947 -1.0000 0.0000
0.8947 -0.8947 0.0000
0.8947 -0.7895 0.0000
0.8947 -0.6842 0.0000
0.8947 -0.5789 0.0000
0.8947 -0.4737 0.0000
0.8947 -0.3684 0.0000
0.8947 -0.2632 0.0000
0.8947 -0.1579 0.0000
0.8947 -0.0526 0.0000
0.8947 0.0526 0.0000
0.8947 0.1579 0.0000
0.8947 0.2632 0.0000
0.8947 0.3684 0.0000
0.8947 0.4737 0.0000
0.8947 0.5789 0.0000
0.8947 0.6842 0.0000
0.8947 0.7895 0.0000
0.8947 0.8947 0.0000
0.8947 1.0000 0.0000
1.0000 -1.0000 0.0000
1.0000 -0.8947 0.0000
1.0000 -0.7895 0.0000
1.0000 -0.6842 0.0000
1.0000 -0.5789 0.0000
1.0000 -0.4737 0.0000
1.0000 -0.3684 0.0000
1.0000 -0.2632 0.0000
1.0000 -0.1579 0.0000
1.0000 -0.0526 0.0000
1.0000 0.0526 0.0000
1.0000 0.1579 0.0000
1.0000 0.2632 0.0000
1.0000 0.3684 0.0000
1.0000 0.4737 0.0000
1.0000 0.5789 0.0000
1.0000 0.6842 0.0000
1.0000 0.7895 0.0000
1.0000 0.8947 0.0000
1.0000 1.0000 0.0000
-0.9474 -0.9474 0.0000
-0.9474 -0.8421 0.0000
-0.9474 -0.7368 0.0000
-0.9474 -0.6316 0.0000
-0.9474 -0.5263 0.0000
-0.9474 -0.4211 0.0000
-0.9474 -0.3158 0.0000
-0.9474 -0.2105 0.0000
-0.9474 -0.1053 0.0000
-0.9474 0.0000 0.0000
-0.9474 0.1053 0.0000
-0.9474 0.2105 0.0000
-0.9474 0.3158 0.0000
-0.9474 0.4211 0.0000
-0.9474 0.5263 0.0000
-0.9474 0.6316 0.0000
-0.9474 0.7368 0.0000
-0.9474 0.8421 0.0000
-0.9474 0.9474 0.0000
-0.8421 -0.9474 0.0000
-0.8421 -0.8421 0.0000
-0.8421 -0.7368 0.0000
-0.8421 -0.6316 0.0000
-0.8421 -0.5263 0.0000
-0.8421 -0.4211 0.0000
-0.8421 -0.3158 0.0000
-0.8421 -0.2105 0.0000
-0.8421 -0.1053 0.0000
-0.8421 0.0000 0.0000
-0.8421 0.1053 0.0000
-0.8421 0.2105 0.0000
-0.8421 0.3158 0.0000
-0.8421 0.4211 0.0000
-0.8421 0.5263 0.0000
-0.8421 0.6316 0.0000
-0.8421 0.7368 0.0000
-0.8421 0.8421 0.0000
-0.8421 0.9474 0.0000
-0.7368 -0.9474 0.0000
-0.7368 -0.8421 0.0000
[...]
         <PointData>
            <DataArray Name="fValues" NumberOfComponents="3" format="ascii" type="Float64">
 1.05935e-01  5.33869e-02        00000 
 2.34749e-02  2.93467e-02        00000 
 2.35928e-02  1.61784e-02        00000 
 2.32381e-02  4.03099e-03        00000 
 2.22477e-02 -7.29304e-03        00000 
 2.04292e-02 -1.64947e-02        00000 
 1.75933e-02 -2.30296e-02        00000 
 1.36509e-02 -2.65501e-02        00000 
 8.67662e-03 -2.69607e-02        00000 
 2.96576e-03 -2.44950e-02        00000 
-3.01149e-03 -1.97085e-02        00000 
-8.72435e-03 -1.33439e-02        00000 
-1.37046e-02 -6.11298e-03        00000 
-1.76556e-02  1.48239e-03        00000 
-2.05015e-02  9.23654e-03        00000 
-2.23298e-02  1.72155e-02        00000 
-2.33276e-02  2.56780e-02        00000 
-2.36862e-02  3.50394e-02        00000 
-2.35692e-02  4.55361e-02        00000 
-1.44949e-02  5.34723e-02        00000 
 1.11981e-01  4.92799e-02        00000 
 8.90273e-02  3.71636e-02        00000 
 7.32303e-02  1.46845e-02        00000 
 6.82442e-02 -6.89659e-04        00000 
 6.31099e-02 -1.27913e-02        00000 
 5.69256e-02 -2.23797e-02        00000 
 4.93014e-02 -2.92411e-02        00000 
 4.02627e-02 -3.30679e-02        00000 
 3.02116e-02 -3.36867e-02        00000 
 1.99311e-02 -3.12645e-02        00000 
 1.03073e-02 -2.63420e-02        00000 
 2.05347e-03 -1.97264e-02        00000 
-4.48427e-03 -1.22439e-02        00000 
-9.34887e-03 -4.49090e-03        00000 
-1.28622e-02  3.27394e-03        00000 
-1.54282e-02  1.11149e-02        00000 
-1.73866e-02  1.92877e-02        00000 
-1.89244e-02  2.80054e-02        00000 
-1.88238e-02  3.70728e-02        00000 
-1.85569e-02  4.93744e-02        00000 
 1.47332e-01  4.20924e-02        00000 
 1.37538e-01  2.78513e-02        00000 
 1.24488e-01  1.15620e-02        00000 
 1.14012e-01 -4.40449e-03        00000 
 1.04702e-01 -1.72141e-02        00000 
 9.41856e-02 -2.72904e-02        00000 
 8.17127e-02 -3.45867e-02        00000 
 6.73497e-02 -3.87582e-02        00000 
 5.21276e-02 -3.96009e-02        00000 
 3.68471e-02 -3.71290e-02        00000 
 2.31910e-02 -3.18136e-02        00000 
 1.21910e-02 -2.46553e-02        00000 
 4.01063e-03 -1.67581e-02        00000 
-1.44293e-03 -9.09575e-03        00000 
-5.33646e-03 -1.72655e-03        00000 
-8.41971e-03  5.50739e-03        00000 
-1.12212e-02  1.29863e-02        00000 
-1.37992e-02  2.11167e-02        00000 
-1.62491e-02  3.07291e-02        00000 
-1.92938e-02  4.22036e-02        00000 
 1.92587e-01  3.39185e-02        00000 
 1.84052e-01  1.92464e-02        00000 
 1.72254e-01  4.80552e-03        00000 
 1.59765e-01 -9.02645e-03        00000 
 1.46860e-01 -2.12997e-02        00000 
 1.32286e-01 -3.13710e-02        00000 
 1.15530e-01 -3.90339e-02        00000 
 9.51406e-02 -4.34950e-02        00000 
 7.34429e-02 -4.42507e-02        00000 
 5.22979e-02 -4.11824e-02        00000 
 3.41447e-02 -3.50425e-02        00000 
 2.06049e-02 -2.73272e-02        00000 
 1.17771e-02 -1.95406e-02        00000 
 6.42983e-03 -1.24040e-02        00000 
 2.44502e-03 -5.78893e-03        00000 
-8.76110e-04  2.95835e-04        00000 
-4.51197e-03  6.72059e-03        00000 
-8.65966e-03  1.41493e-02        00000 
-1.33754e-02  2.31458e-02        00000 
-1.87534e-02  3.40467e-02        00000 
 2.40664e-01  2.44229e-02        00000 
 2.30896e-01  1.04414e-02        00000 
 2.18498e-01 -2.36175e-03        00000 
 2.04496e-01 -1.42363e-02        00000 
 1.89506e-01 -2.51486e-02        00000 
 1.71428e-01 -3.45846e-02        00000 
 1.49655e-01 -4.19328e-02        00000 
 1.23151e-01 -4.62757e-02        00000 
 9.44047e-02 -4.70231e-02        00000 
 6.60961e-02 -4.31720e-02        00000 
 4.28432e-02 -3.58837e-02        00000 
 2.71781e-02 -2.73458e-02        00000 
 1.84051e-02 -1.96957e-02        00000 
 1.41392e-02 -1.39236e-02        00000 
 1.11828e-02 -9.32467e-03        00000 
 7.87236e-03 -5.04208e-03        00000 
 3.10984e-03  3.91679e-05        00000 
-2.80869e-03  6.31127e-03        00000 
-9.79956e-03  1.44095e-02        00000 
-1.75686e-02  2.45701e-02        00000 
 2.89510e-01  1.35317e-02        00000 
 2.77621e-01  1.10791e-03        00000 
 2.63804e-01 -9.70252e-03        00000 
 2.48134e-01 -1.92912e-02        00000 
 2.31721e-01 -2.84365e-02        00000 
 2.10656e-01 -3.60957e-02        00000 
 1.85305e-01 -4.27490e-02        00000 
 1.52811e-01 -4.69525e-02        00000 
 1.15581e-01 -4.73928e-02        00000 
 7.79493e-02 -4.23238e-02        00000 
 4.87726e-02 -3.35245e-02        00000 
 3.20049e-02 -2.46363e-02        00000 
 2.49149e-02 -1.80955e-02        00000 
 2.29923e-02 -1.46275e-02        00000 
 2.13095e-02 -1.26452e-02        00000 
 1.80941e-02 -1.08453e-02        00000 
 1.20871e-02 -7.64144e-03        00000 
 4.10921e-03 -2.71515e-03        00000 
-5.37977e-03  4.37133e-03        00000 
-1.57830e-02  1.37001e-02        00000 
 3.38064e-01  1.40654e-03        00000 
 3.23707e-01 -8.89991e-03        00000 
 3.08163e-01 -1.76249e-02        00000 
 2.92255e-01 -2.52439e-02        00000 
 2.72760e-01 -3.11219e-02        00000 
 2.50876e-01 -3.65767e-02        00000 
 2.23647e-01 -4.17201e-02        00000 
 1.83845e-01 -4.41234e-02        00000 
 1.32938e-01 -4.03224e-02        00000 
 8.32994e-02 -3.06504e-02        00000 
 4.90323e-02 -2.25840e-02        00000 
 3.36907e-02 -1.77554e-02        00000 
 3.18993e-02 -1.59047e-02        00000 
 3.46930e-02 -1.65740e-02        00000 
 3.42865e-02 -1.78244e-02        00000 
 3.04648e-02 -1.84863e-02        00000 
 2.29749e-02 -1.72308e-02        00000 
 1.21596e-02 -1.31183e-02        00000 
-8.41533e-05 -6.89846e-03        00000 
-1.33390e-02  1.59685e-03        00000 
 3.85684e-01 -1.13455e-02        00000 
 3.68712e-01 -1.92715e-02        00000 
 3.51028e-01 -2.55892e-02        00000 
 3.33096e-01 -3.05778e-02        00000 
 3.13686e-01 -3.42616e-02        00000 
 2.91726e-01 -3.72352e-02        00000 
 2.63147e-01 -3.93902e-02        00000 
 2.15373e-01 -3.71270e-02        00000 
 1.46764e-01 -2.44950e-02        00000 
 1.00462e-01 -1.40894e-02        00000 
 5.06791e-02 -9.47670e-03        00000 
 3.66001e-02 -1.38166e-02        00000 
 3.90126e-02 -1.68032e-02        00000 
 4.91942e-02 -2.18900e-02        00000 
 5.06464e-02 -2.66219e-02        00000 
 4.49514e-02 -2.89214e-02        00000 
 3.49594e-02 -2.82901e-02        00000 
 2.11842e-02 -2.47488e-02        00000 
 5.96925e-03 -1.89649e-02        00000 
-1.02008e-02 -1.11573e-02        00000 
 4.32087e-01 -2.36618e-02        00000 
 4.12639e-01 -2.96093e-02        00000 
 3.92991e-01 -3.44189e-02        00000 
 3.73422e-01 -3.78824e-02        00000 
 3.53699e-01 -4.00578e-02        00000 
 3.33402e-01 -4.10204e-02        00000 
 3.06798e-01 -4.27097e-02        00000 
 2.61378e-01 -4.51425e-02        00000 
 2.02711e-01 -3.73260e-02        00000 
 1.59592e-01 -3.37319e-02        00000 
 1.18629e-01 -3.64281e-02        00000 
 7.71218e-02 -3.59776e-02        00000 
 5.11896e-02 -2.96230e-02        00000 
 6.81274e-02 -3.49339e-02        00000 
 7.11752e-02 -4.09477e-02        00000 
 6.14001e-02 -4.26144e-02        00000 
 4.76426e-02 -4.10572e-02        00000 
 3.10610e-02 -3.70407e-02        00000 
 1.25117e-02 -3.09436e-02        00000 
-6.43130e-03 -2.35348e-02        00000 
 4.77500e-01 -3.42191e-02        00000 
 4.55988e-01 -3.92659e-02        00000 
 4.34219e-01 -4.34941e-02        00000 
 4.13341e-01 -4.72125e-02        00000 
 3.93600e-01 -4.99568e-02        00000 
 3.73969e-01 -5.16166e-02        00000 
 3.61024e-01 -5.68590e-02        00000 
 3.16360e-01 -5.92992e-02        00000 
 2.90364e-01 -7.23362e-02        00000 
 2.42916e-01 -7.31942e-02        00000 
 1.96948e-01 -6.85963e-02        00000 
 1.35318e-01 -5.93026e-02        00000 
 9.18398e-02 -5.17732e-02        00000 
 9.48552e-02 -5.57990e-02        00000 
 9.32335e-02 -5.97067e-02        00000 
 7.81999e-02 -5.80122e-02        00000 
 6.02795e-02 -5.39872e-02        00000 
 4.06300e-02 -4.84035e-02        00000 
 1.91899e-02 -4.15226e-02        00000 
-2.20793e-03 -3.41541e-02        00000 
 5.22528e-01 -4.15517e-02        00000 
 4.99110e-01 -4.68888e-02        00000 
 4.75832e-01 -5.21287e-02        00000 
 4.54201e-01 -5.76943e-02        00000 
 4.34243e-01 -6.34225e-02        00000 
 4.17337e-01 -6.96434e-02        00000 
 4.15563e-01 -7.98618e-02        00000 
 4.20525e-01 -9.38597e-02        00000 
 3.73051e-01 -9.86334e-02        00000 
 3.05640e-01 -9.55369e-02        00000 
 2.56255e-01 -9.07230e-02        00000 
 2.00243e-01 -8.28723e-02        00000 
 1.58672e-01 -7.97823e-02        00000 
 1.27871e-01 -7.89471e-02        00000 
 1.14973e-01 -7.78377e-02        00000 
 9.38122e-02 -7.15472e-02        00000 
 7.21074e-02 -6.45587e-02        00000 
 4.94367e-02 -5.70887e-02        00000 
 2.56564e-02 -4.92164e-02        00000 
 2.18687e-03 -4.15493e-02        00000 
 5.67943e-01 -4.45172e-02        00000 
 5.43007e-01 -5.13404e-02        00000 
 5.18390e-01 -5.87596e-02        00000 
 4.96190e-01 -6.70507e-02        00000 
 4.76782e-01 -7.66634e-02        00000 
 4.61398e-01 -8.84133e-02        00000 
 4.63021e-01 -1.02970e-01        00000 
 4.86144e-01 -1.14391e-01        00000 
 4.48458e-01 -1.18929e-01        00000 
 3.90029e-01 -1.27605e-01        00000 
 3.33105e-01 -1.29707e-01        00000 
 2.69776e-01 -1.15840e-01        00000 
 2.01459e-01 -9.89119e-02        00000 
 1.61801e-01 -9.53370e-02        00000 
 1.33859e-01 -8.85609e-02        00000 
 1.08049e-01 -7.94003e-02        00000 
 8.27575e-02 -7.04032e-02        00000 
 5.73950e-02 -6.15106e-02        00000 
 3.17622e-02 -5.28189e-02        00000 
 6.41554e-03 -4.45762e-02        00000 
 6.14351e-01 -4.25655e-02        00000 
 5.87960e-01 -5.16004e-02        00000 
 5.62996e-01 -6.13968e-02        00000 
 5.39207e-01 -7.23875e-02        00000 
 5.19995e-01 -8.49035e-02        00000 
 5.05531e-01 -9.95482e-02        00000 
 5.00282e-01 -1.15439e-01        00000 
 5.08167e-01 -1.28932e-01        00000 
 5.01514e-01 -1.39499e-01        00000 
 4.65463e-01 -1.51655e-01        00000 
 3.86029e-01 -1.46805e-01        00000 
 3.15103e-01 -1.28608e-01        00000 
 2.37454e-01 -1.08633e-01        00000 
 1.87378e-01 -9.79932e-02        00000 
 1.51907e-01 -8.90444e-02        00000 
 1.21255e-01 -7.97193e-02        00000 
 9.27316e-02 -7.02838e-02        00000 
 6.48124e-02 -6.08128e-02        00000 
 3.73458e-02 -5.15855e-02        00000 
 1.01941e-02 -4.26846e-02        00000 
 6.61974e-01 -3.59313e-02        00000 
 6.33951e-01 -4.73330e-02        00000 
 6.07781e-01 -5.92771e-02        00000 
 5.82675e-01 -7.22098e-02        00000 
 5.62258e-01 -8.59601e-02        00000 
 5.45767e-01 -1.00222e-01        00000 
 5.32720e-01 -1.13613e-01        00000 
 5.24012e-01 -1.23118e-01        00000 
 5.06646e-01 -1.26512e-01        00000 
 4.66400e-01 -1.24588e-01        00000 
 4.01271e-01 -1.16619e-01        00000 
 3.26719e-01 -1.04018e-01        00000 
 2.60282e-01 -9.48839e-02        00000 
 2.08955e-01 -8.85185e-02        00000 
 1.69022e-01 -8.15708e-02        00000 
 1.34364e-01 -7.34643e-02        00000 
 1.02193e-01 -6.44373e-02        00000 
 7.20147e-02 -5.51138e-02        00000 
 4.24394e-02 -4.56229e-02        00000 
 1.33402e-02 -3.60509e-02        00000 
 7.10525e-01 -2.52947e-02        00000 
 6.80689e-01 -3.86139e-02        00000 
 6.53085e-01 -5.20581e-02        00000 
 6.27655e-01 -6.57826e-02        00000 
 6.03306e-01 -7.98021e-02        00000 
 5.82703e-01 -9.25805e-02        00000 
 5.62770e-01 -1.02590e-01        00000 
 5.41383e-01 -1.07700e-01        00000 
 5.11281e-01 -1.05672e-01        00000 
 4.66661e-01 -9.77441e-02        00000 
 4.06658e-01 -8.90307e-02        00000 
 3.41118e-01 -8.29691e-02        00000 
 2.80938e-01 -7.89758e-02        00000 
 2.28961e-01 -7.45548e-02        00000 
 1.85309e-01 -6.92554e-02        00000 
 1.46885e-01 -6.24027e-02        00000 
 1.12134e-01 -5.43613e-02        00000 
 7.90139e-02 -4.52952e-02        00000 
 4.70831e-02 -3.55994e-02        00000 
 1.57873e-02 -2.53906e-02        00000 
 7.59364e-01 -1.15760e-02        00000 
 7.27642e-01 -2.61565e-02        00000 
 6.98607e-01 -4.06543e-02        00000 
 6.70974e-01 -5.50670e-02        00000 
 6.43494e-01 -6.85957e-02        00000 
 6.16970e-01 -8.00975e-02        00000 
 5.89658e-01 -8.76627e-02        00000 
 5.59413e-01 -9.06712e-02        00000 
 5.21534e-01 -8.81519e-02        00000 
 4.73853e-01 -8.18016e-02        00000 
 4.17239e-01 -7.45315e-02        00000 
 3.56892e-01 -6.85020e-02        00000 
 2.99073e-01 -6.41826e-02        00000 
 2.46599e-01 -5.98326e-02        00000 
 2.00412e-01 -5.49519e-02        00000 
 1.59134e-01 -4.86455e-02        00000 
 1.21413e-01 -4.09779e-02        00000 
 8.57120e-02 -3.21819e-02        00000 
 5.12797e-02 -2.23994e-02        00000 
 1.75727e-02 -1.16486e-02        00000 
 8.07432e-01  4.25175e-03        00000 
 7.74264e-01 -1.06940e-02        00000 
 7.44359e-01 -2.60486e-02        00000 
 7.14539e-01 -4.11872e-02        00000 
 6.83547e-01 -5.46517e-02        00000 
 6.51262e-01 -6.50536e-02        00000 
 6.16039e-01 -7.18891e-02        00000 
 5.78547e-01 -7.37603e-02        00000 
 5.34996e-01 -7.17729e-02        00000 
 4.84673e-01 -6.67482e-02        00000 
 4.28914e-01 -6.06236e-02        00000 
 3.70975e-01 -5.48601e-02        00000 
 3.14561e-01 -4.98424e-02        00000 
 2.62047e-01 -4.52419e-02        00000 
 2.14002e-01 -3.95911e-02        00000 
 1.70480e-01 -3.32186e-02        00000 
 1.30206e-01 -2.56087e-02        00000 
 9.20486e-02 -1.68791e-02        00000 
 5.50711e-02 -6.97234e-03        00000 
 1.87552e-02  4.20045e-03        00000 
 8.52678e-01  2.15047e-02        00000 
 8.20154e-01  7.07181e-03        00000 
 7.91272e-01 -9.46475e-03        00000 
 7.58991e-01 -2.62603e-02        00000 
 7.23194e-01 -3.95836e-02        00000 
 6.85229e-01 -4.94630e-02        00000 
 6.44462e-01 -5.57029e-02        00000 
 6.00365e-01 -5.80708e-02        00000 
 5.51374e-01 -5.64921e-02        00000 
 4.98198e-01 -5.23216e-02        00000 
 4.41793e-01 -4.69991e-02        00000 
 3.84353e-01 -4.16292e-02        00000 
 3.28284e-01 -3.61295e-02        00000 
 2.75223e-01 -3.02910e-02        00000 
 2.25945e-01 -2.40263e-02        00000 
 1.80531e-01 -1.69995e-02        00000 
 1.38213e-01 -9.01254e-03        00000 
 9.80328e-02 -5.53926e-05        00000 
 5.85564e-02  9.80521e-03        00000 
 1.92922e-02  2.14727e-02        00000 
 8.88021e-01  3.90937e-02        00000 
 8.67303e-01  2.82801e-02        00000 
 8.42218e-01  4.44208e-03        00000 
 8.03867e-01 -1.16346e-02        00000 
 7.63107e-01 -2.39872e-02        00000 
 7.19875e-01 -3.33714e-02        00000 
 6.73668e-01 -3.95898e-02        00000 
 6.24004e-01 -4.24617e-02        00000 
 5.70666e-01 -4.21287e-02        00000 
 5.14117e-01 -3.91283e-02        00000 
 4.55687e-01 -3.42335e-02        00000 
 3.97129e-01 -2.82403e-02        00000 
 3.40247e-01 -2.17243e-02        00000 
 2.86404e-01 -1.49416e-02        00000 
 2.36076e-01 -7.83262e-03        00000 
 1.89210e-01 -1.98845e-04        00000 
 1.45260e-01  8.22336e-03        00000 
 1.03455e-01  1.76450e-02        00000 
 6.24757e-02  2.80768e-02        00000 
 1.85518e-02  3.90807e-02        00000 
 8.94068e-01  6.60951e-02        00000 
 9.33353e-01  2.92552e-02        00000 
 8.91755e-01  1.60864e-02        00000 
 8.48597e-01  3.93882e-03        00000 
 8.03377e-01 -7.38563e-03        00000 
 7.55482e-01 -1.65899e-02        00000 
 7.04288e-01 -2.31304e-02        00000 
 6.49506e-01 -2.66620e-02        00000 
 5.91356e-01 -2.70872e-02        00000 
 5.30780e-01 -2.46367e-02        00000 
 4.69328e-01 -1.98757e-02        00000 
 4.08750e-01 -1.35243e-02        00000 
 3.50593e-01 -6.30437e-03        00000 
 2.95802e-01  1.28454e-03        00000 
 2.44596e-01  9.03820e-03        00000 
 1.96690e-01  1.70199e-02        00000 
 1.51461e-01  2.54878e-02        00000 
 1.08298e-01  3.48561e-02        00000 
 6.66978e-02  4.53609e-02        00000 
 1.44867e-02  6.60936e-02        00000 
 8.40950e-02  4.97326e-02        00000 
 5.11675e-02  2.23539e-02        00000 
 4.66730e-02  7.97215e-03        00000 
 4.41128e-02 -4.70376e-03        00000 
 4.06298e-02 -1.52854e-02        00000 
 3.60216e-02 -2.33848e-02        00000 
 3.01638e-02 -2.86092e-02        00000 
 2.31743e-02 -3.07011e-02        00000 
 1.54407e-02 -2.96731e-02        00000 
 7.56482e-03 -2.59090e-02        00000 
 1.87670e-04 -2.00983e-02        00000 
-6.18332e-03 -1.30512e-02        00000 
-1.12786e-02 -5.45558e-03        00000 
-1.50907e-02  2.29206e-03        00000 
-1.77977e-02  1.01180e-02        00000 
-1.96543e-02  1.82039e-02        00000 
-2.09117e-02  2.68552e-02        00000 
-2.14296e-02  3.64113e-02        00000 
-1.83155e-02  4.52630e-02        00000 
 1.21204e-01  4.07417e-02        00000 
 1.06844e-01  2.31587e-02        00000 
 9.49194e-02  4.60190e-03        00000 
 8.74284e-02 -9.29688e-03        00000 
 7.96699e-02 -2.04604e-02        00000 
 7.04880e-02 -2.89774e-02        00000 
 5.96143e-02 -3.45832e-02        00000 
 4.73954e-02 -3.69367e-02        00000 
 3.47910e-02 -3.60509e-02        00000 
 2.26193e-02 -3.21422e-02        00000 
 1.20047e-02 -2.59832e-02        00000 
 3.41131e-03 -1.84748e-02        00000 
-2.81676e-03 -1.07358e-02        00000 
-7.29700e-03 -3.05712e-03        00000 
-1.05875e-02  4.47785e-03        00000 
-1.32007e-02  1.21187e-02        00000 
-1.54062e-02  2.02190e-02        00000 
-1.68810e-02  2.89122e-02        00000 
-1.83343e-02  3.94310e-02        00000 
 1.65323e-01  3.09345e-02        00000 
 1.54814e-01  1.60229e-02        00000 
 1.42897e-01  4.82453e-04        00000 
 1.31403e-01 -1.34360e-02        00000 
 1.19515e-01 -2.47952e-02        00000 
 1.05895e-01 -3.36126e-02        00000 
 9.00040e-02 -3.97338e-02        00000 
 7.20397e-02 -4.23321e-02        00000 
 5.37552e-02 -4.12747e-02        00000 
 3.67235e-02 -3.68534e-02        00000 
 2.26038e-02 -3.00264e-02        00000 
 1.21473e-02 -2.21667e-02        00000 
 5.22330e-03 -1.45286e-02        00000 
 3.48320e-04 -7.18201e-03        00000 
-3.17856e-03 -4.66737e-04        00000 
-6.38896e-03  6.27328e-03        00000 
-9.63572e-03  1.35470e-02        00000 
-1.30978e-02  2.20020e-02        00000 
-1.69896e-02  3.22396e-02        00000 
 2.12136e-01  2.18531e-02        00000 
 2.01630e-01  7.95784e-03        00000 
 1.88999e-01 -5.39428e-03        00000 
 1.75230e-01 -1.77054e-02        00000 
 1.60214e-01 -2.85275e-02        00000 
 1.42293e-01 -3.73642e-02        00000 
 1.20942e-01 -4.34481e-02        00000 
 9.64726e-02 -4.61559e-02        00000 
 7.16543e-02 -4.47967e-02        00000 
 4.89870e-02 -3.94547e-02        00000 
 3.12953e-02 -3.16645e-02        00000 
 1.93929e-02 -2.33932e-02        00000 
 1.25794e-02 -1.63122e-02        00000 
 8.31332e-03 -1.02451e-02        00000 
 5.01965e-03 -5.05035e-03        00000 
 1.16200e-03  4.29964e-04        00000 
-3.36214e-03  6.58374e-03        00000 
-8.77312e-03  1.42195e-02        00000 
-1.49668e-02  2.37441e-02        00000 
 2.59867e-01  1.21109e-02        00000 
 2.47956e-01 -3.07004e-04        00000 
 2.34036e-01 -1.16038e-02        00000 
 2.18812e-01 -2.19502e-02        00000 
 2.01117e-01 -3.14452e-02        00000 
 1.79256e-01 -3.92728e-02        00000 
 1.52708e-01 -4.51987e-02        00000 
 1.21391e-01 -4.79861e-02        00000 
 8.86880e-02 -4.61817e-02        00000 
 5.91200e-02 -3.94934e-02        00000 
 3.77472e-02 -3.05040e-02        00000 
 2.52964e-02 -2.20699e-02        00000 
 1.98260e-02 -1.62875e-02        00000 
 1.69999e-02 -1.23993e-02        00000 
 1.43565e-02 -9.50196e-03        00000 
 1.01437e-02 -6.11835e-03        00000 
 3.96848e-03 -1.27045e-03        00000 
-3.59614e-03  5.28196e-03        00000 
-1.22367e-02  1.39335e-02        00000 
 3.07490e-01  1.47801e-03        00000 
 2.93555e-01 -8.98528e-03        00000 