<?xml version="1.0" encoding="utf-8"?>
<VTKFile byte_order="LittleEndian" type="UnstructuredGrid" version="0.1">
   <UnstructuredGrid>
      <Piece NumberOfCells="1444" NumberOfPoints="761">
         <Points>
            <DataArray Name="Points" NumberOfComponents="3" format="ascii" type="Float32">
-1.0000 -1.0000 0.0000
-1.0000 -0.8947 0.0000
-1.0000 -0.7895 0.0000
-1.0000 -0.6842 0.0000
-1.0000 -0.5789 0.0000
-1.0000 -0.4737 0.0000
-1.0000 -0.3684 0.0000
-1.0000 -0.2632 0.0000
-1.0000 -0.1579 0.0000
-1.0000 -0.0526 0.0000
-1.0000 0.0526 0.0000
-1.0000 0.1579 0.0000
-1.0000 0.2632 0.0000
-1.0000 0.3684 0.0000
-1.0000 0.4737 0.0000
-1.0000 0.5789 0.0000
-1.0000 0.6842 0.0000
-1.0000 0.7895 0.0000
-1.0000 0.8947 0.0000
-1.0000 1.0000 0.0000
-0.8947 -1.0000 0.0000
-0.8947 -0.8947 0.0000
-0.8947 -0.7895 0.0000
-0.8947 -0.6842 0.0000
-0.8947 -0.5789 0.0000
-0.8947 -0.4737 0.0000
-0.8947 -0.3684 0.0000
-0.8947 -0.2632 0.0000
-0.8947 -0.1579 0.0000
-0.8947 -0.0526 0.0000
-0.8947 0.0526 0.0000
-0.8947 0.1579 0.0000
-0.8947 0.2632 0.0000
-0.8947 0.3684 0.0000
-0.8947 0.4737 0.0000
-0.8947 0.5789 0.0000
-0.8947 0.6842 0.0000
-0.8947 0.7895 0.0000
-0.8947 0.8947 0.0000
-0.8947 1.0000 0.0000
-0.7895 -1.0000 0.0000
-0.7895 -0.8947 0.0000
-0.7895 -0.7895 0.0000
-0.7895 -0.6842 0.0000
-0.7895 -0.5789 0.0000
-0.7895 -0.4737 0.0000
-0.7895 -0.3684 0.0000
-0.7895 -0.2632 0.0000
-0.7895 -0.1579 0.0000
-0.7895 -0.0526 0.0000
-0.7895 0.0526 0.0000
-0.7895 0.1579 0.0000
-0.7895 0.2632 0.0000
-0.7895 0.3684 0.0000
-0.7895 0.4737 0.0000
-0.7895 0.5789 0.0000
-0.7895 0.6842 0.0000
-0.7895 0.7895 0.0000
-0.7895 0.8947 0.0000
-0.7895 1.0000 0.0000
-0.6842 -1.0000 0.0000
-0.6842 -0.8947 0.0000
-0.6842 -0.7895 0.0000
-0.6842 -0.6842 0.0000
-0.6842 -0.5789 0.0000
-0.6842 -0.4737 0.0000
-0.6842 -0.3684 0.0000
-0.6842 -0.2632 0.0000
-0.6842 -0.1579 0.0000
-0.6842 -0.0526 0.0000
-0.6842 0.0526 0.0000
-0.6842 0.1579 0.0000
-0.6842 0.2632 0.0000
-0.6842 0.3684 0.0000
-0.6842 0.4737 0.0000
-0.6842 0.5789 0.0000
-0.6842 0.6842 0.0000
-0.6842 0.7895 0.0000
-0.6842 0.8947 0.0000
-0.6842 1.0000 0.0000
-0.5789 -1.0000 0.0000
-0.5789 -0.8947 0.0000
-0.5789 -0.7895 0.0000
-0.5789 -0.6842 0.0000
-0.5789 -0.5789 0.0000
-0.5789 -0.4737 0.0000
-0.5789 -0.3684 0.0000
-0.5789 -0.2632 0.0000
-0.5789 -0.1579 0.0000
-0.5789 -0.0526 0.0000
-0.5789 0.0526 0.0000
-0.5789 0.1579 0.0000
-0.5789 0.2632 0.0000
-0.5789 0.3684 0.0000
-0.5789 0.4737 0.0000
-0.5789 0.5789 0.0000
-0.5789 0.6842 0.0000
-0.5789 0.7895 0.0000
-0.5789 0.8947 0.0000
-0.5789 1.0000 0.0000
-0.4737 -1.0000 0.0000
-0.4737 -0.8947 0.0000
-0.4737 -0.7895 0.0000
-0.4737 -0.6842 0.0000
-0.4737 -0.5789 0.0000
-0.4737 -0.4737 0.0000
-0.4737 -0.3684 0.0000
-0.4737 -0.2632 0.0000
-0.4737 -0.1579 0.0000
-0.4737 -0.0526 0.0000
-0.4737 0.0526 0.0000
-0.4737 0.1579 0.0000
-0.4737 0.2632 0.0000
-0.4737 0.3684 0.0000
-0.4737 0.4737 0.0000
-0.4737 0.5789 0.0000
-0.4737 0.6842 0.0000
-0.4737 0.7895 0.0000
-0.4737 0.8947 0.0000
-0.4737 1.0000 0.0000
-0.3684 -1.0000 0.0000
-0.3684 -0.8947 0.0000
-0.3684 -0.7895 0.0000
-0.3684 -0.6842 0.0000
-0.3684 -0.5789 0.0000
-0.3684 -0.4737 0.0000
-0.3684 -0.3684 0.0000
-0.3684 -0.2632 0.0000
-0.3684 -0.1579 0.0000
-0.3684 -0.0526 0.0000
-0.3684 0.0526 0.0000
-0.3684 0.1579 0.0000
-0.3684 0.2632 0.0000
-0.3684 0.3684 0.0000
-0.3684 0.4737 0.0000
-0.3684 0.5789 0.0000
-0.3684 0.6842 0.0000
-0.3684 0.7895 0.0000
-0.3684 0.8947 0.0000
-0.3684 1.0000 0.0000
-0.2632 -1.0000 0.0000
-0.2632 -0.8947 0.0000
-0.2632 -0.7895 0.0000
-0.2632 -0.6842 0.0000
-0.2632 -0.5789 0.0000
-0.2632 -0.4737 0.0000
-0.2632 -0.3684 0.0000
-0.2632 -0.2632 0.0000
-0.2632 -0.1579 0.0000
-0.2632 -0.0526 0.0000
-0.2632 0.0526 0.0000
-0.2632 0.1579 0.0000
-0.2632 0.2632 0.0000
-0.2632 0.3684 0.0000
-0.2632 0.4737 0.0000
-0.2632 0.5789 0.0000
-0.2632 0.6842 0.0000
-0.2632 0.7895 0.0000
-0.2632 0.8947 0.0000
-0.2632 1.0000 0.0000
-0.1579 -1.0000 0.0000
-0.1579 -0.8947 0.0000
-0.1579 -0.7895 0.0000
-0.1579 -0.6842 0.0000
-0.1579 -0.5789 0.0000
-0.1579 -0.4737 0.0000
-0.1579 -0.3684 0.0000
-0.1579 -0.2632 0.0000
-0.1579 -0.1579 0.0000
-0.1579 -0.0526 0.0000
-0.1579 0.0526 0.0000
-0.1579 0.1579 0.0000
-0.1579 0.2632 0.0000
-0.1579 0.3684 0.0000
-0.1579 0.4737 0.0000
-0.1579 0.5789 0.0000
-0.1579 0.6842 0.0000
-0.1579 0.7895 0.0000
-0.1579 0.8947 0.0000
-0.1579 1.0000 0.0000
-0.0526 -1.0000 0.0000
-0.0526 -0.8947 0.0000
-0.0526 -0.7895 0.0000
-0.0526 -0.6842 0.0000
-0.0526 -0.5789 0.0000
-0.0526 -0.4737 0.0000
-0.0526 -0.3684 0.0000
-0.0526 -0.2632 0.0000
-0.0526 -0.1579 0.0000
-0.0526 -0.0526 0.0000
-0.0526 0.0526 0.0000
-0.0526 0.1579 0.0000
-0.0526 0.2632 0.0000
-0.0526 0.3684 0.0000
-0.0526 0.4737 0.0000
-0.0526 0.5789 0.0000
-0.0526 0.6842 0.0000
-0.0526 0.7895 0.0000
-0.0526 0.8947 0.0000
-0.0526 1.0000 0.0000
0.0526 -1.0000 0.0000
0.0526 -0.8947 0.0000
0.0526 -0.7895 0.0000
0.0526 -0.6842 0.0000
0.0526 -0.5789 0.0000
0.0526 -0.4737 0.0000
0.0526 -0.3684 0.0000
0.0526 -0.2632 0.0000
0.0526 -0.1579 0.0000
0.0526 -0.0526 0.0000
0.0526 0.0526 0.0000
0.0526 0.1579 0.0000
0.0526 0.2632 0.0000
0.0526 0.3684 0.0000
0.0526 0.4737 0.0000
0.0526 0.5789 0.0000
0.0526 0.6842 0.0000
0.0526 0.7895 0.0000
0.0526 0.8947 0.0000
0.0526 1.0000 0.0000
0.1579 -1.0000 0.0000
0.1579 -0.8947 0.0000
0.1579 -0.7895 0.0000
0.1579 -0.6842 0.0000
0.1579 -0.5789 0.0000
0.1579 -0.4737 0.0000
0.1579 -0.3684 0.0000
0.1579 -0.2632 0.0000
0.1579 -0.1579 0.0000
0.1579 -0.0526 0.0000
0.1579 0.0526 0.0000
0.1579 0.1579 0.0000
0.1579 0.2632 0.0000
0.1579 0.3684 0.0000
0.1579 0.4737 0.0000
0.1579 0.5789 0.0000
0.1579 0.6842 0.0000
0.1579 0.7895 0.0000
0.1579 0.8947 0.0000
0.1579 1.0000 0.0000
0.2632 -1.0000 0.0000
0.2632 -0.8947 0.0000
0.2632 -0.7895 0.0000
0.2632 -0.6842 0.0000
0.2632 -0.5789 0.0000
0.2632 -0.4737 0.0000
0.2632 -0.3684 0.0000
0.2632 -0.2632 0.0000
0.2632 -0.1579 0.0000
0.2632 -0.0526 0.0000
0.2632 0.0526 0.0000
0.2632 0.1579 0.0000
0.2632 0.2632 0.0000
0.2632 0.3684 0.0000
0.2632 0.4737 0.0000
0.2632 0.5789 0.0000
0.2632 0.6842 0.0000
0.2632 0.7895 0.0000
0.2632 0.8947 0.0000
0.2632 1.0000 0.0000
0.3684 -1.0000 0.0000
0.3684 -0.8947 0.0000
0.3684 -0.7895 0.0000
0.3684 -0.6842 0.0000
0.3684 -0.5789 0.0000
0.3684 -0.4737 0.0000
0.3684 -0.3684 0.0000
0.3684 -0.2632 0.0000
0.3684 -0.1579 0.0000
0.3684 -0.0526 0.0000
0.3684 0.0526 0.0000
0.3684 0.1579 0.0000
0.3684 0.2632 0.0000
0.3684 0.3684 0.0000
0.3684 0.4737 0.0000
0.3684 0.5789 0.0000
0.3684 0.6842 0.0000
0.3684 0.7895 0.0000
0.3684 0.8947 0.0000
0.3684 1.0000 0.0000
0.4737 -1.0000 0.0000
0.4737 -0.8947 0.0000
0.4737 -0.7895 0.0000
0.4737 -0.6842 0.0000
0.4737 -0.5789 0.0000
0.4737 -0.4737 0.0000
0.4737 -0.3684 0.0000
0.4737 -0.2632 0.0000
0.4737 -0.1579 0.0000
0.4737 -0.0526 0.0000
0.4737 0.0526 0.0000
0.4737 0.1579 0.0000
0.4737 0.2632 0.0000
0.4737 0.3684 0.0000
0.4737 0.4737 0.0000
0.4737 0.5789 0.0000
0.4737 0.6842 0.0000
0.4737 0.7895 0.0000
0.4737 0.8947 0.0000
0.4737 1.0000 0.0000
0.5789 -1.0000 0.0000
0.5789 -0.8947 0.0000
0.5789 -0.7895 0.0000
0.5789 -0.6842 0.0000
0.5789 -0.5789 0.0000
0.5789 -0.4737 0.0000
0.5789 -0.3684 0.0000
0.5789 -0.2632 0.0000
0.5789 -0.1579 0.0000
0.5789 -0.0526 0.0000
0.5789 0.0526 0.0000
0.5789 0.1579 0.0000
0.5789 0.2632 0.0000
0.5789 0.3684 0.0000
0.5789 0.4737 0.0000
0.5789 0.5789 0.0000
0.5789 0.6842 0.0000
0.5789 0.7895 0.0000
0.5789 0.8947 0.0000
0.5789 1.0000 0.0000
0.6842 -1.0000 0.0000
0.6842 -0.8947 0.0000
0.6842 -0.7895 0.0000
0.6842 -0.6842 0.0000
0.6842 -0.5789 0.0000
0.6842 -0.4737 0.0000
0.6842 -0.3684 0.0000
0.6842 -0.2632 0.0000
0.6842 -0.1579 0.0000
0.6842 -0.0526 0.0000
0.6842 0.0526 0.0000
0.6842 0.1579 0.0000
0.6842 0.2632 0.0000
0.6842 0.3684 0.0000
0.6842 0.4737 0.0000
0.6842 0.5789 0.0000
0.6842 0.6842 0.0000
0.6842 0.7895 0.0000
0.6842 0.8947 0.0000
0.6842 1.0000 0.0000
0.7895 -1.0000 0.0000
0.7895 -0.8947 0.0000
0.7895 -0.7895 0.0000
0.7895 -0.6842 0.0000
0.7895 -0.5789 0.0000
0.7895 -0.4737 0.0000
0.7895 -0.3684 0.0000
0.7895 -0.2632 0.0000
0.7895 -0.1579 0.0000
0.7895 -0.0526 0.0000
0.7895 0.0526 0.0000
0.7895 0.1579 0.0000
0.7895 0.2632 0.0000
0.7895 0.3684 0.0000
0.7895 0.4737 0.0000
0.7895 0.5789 0.0000
0.7895 0.6842 0.0000
0.7895 0.7895 0.0000
0.7895 0.8947 0.0000
0.7895 1.0000 0.0000
0.8947 -1.0000 0.0000
0.8947 -0.8947 0.0000
0.8947 -0.7895 0.0000
0.8947 -0.6842 0.0000
0.8947 -0.5789 0.0000
0.8947 -0.4737 0.0000
0.8947 -0.3684 0.0000
0.8947 -0.2632 0.0000
0.8947 -0.1579 0.0000
0.8947 -0.0526 0.0000
0.8947 0.0526 0.0000
0.8947 0.1579 0.0000
0.8947 0.2632 0.0000
0.8947 0.3684 0.0000
0.8947 0.4737 0.0000
0.8947 0.5789 0.0000
0.8947 0.6842 0.0000
0.8947 0.7895 0.0000
0.8947 0.8947 0.0000
0.8947 1.0000 0.0000
1.0000 -1.0000 0.0000
1.0000 -0.8947 0.0000
1.0000 -0.7895 0.0000
1.0000 -0.6842 0.0000
1.0000 -0.5789 0.0000
1.0000 -0.4737 0.0000
1.0000 -0.3684 0.0000
1.0000 -0.2632 0.0000
1.0000 -0.1579 0.0000
1.0000 -0.0526 0.0000
1.0000 0.0526 0.0000
1.0000 0.1579 0.0000
1.0000 0.2632 0.0000
1.0000 0.3684 0.0000
1.0000 0.4737 0.0000
1.0000 0.5789 0.0000
1.0000 0.6842 0.0000
1.0000 0.7895 0.0000
1.0000 0.8947 0.0000
1.0000 1.0000 0.0000
-0.9474 -0.9474 0.0000
-0.9474 -0.8421 0.0000
-0.9474 -0.7368 0.0000
-0.9474 -0.6316 0.0000
-0.9474 -0.5263 0.0000
-0.9474 -0.4211 0.0000
-0.9474 -0.3158 0.0000
-0.9474 -0.2105 0.0000
-0.9474 -0.1053 0.0000
-0.9474 0.0000 0.0000
-0.9474 0.1053 0.0000
-0.9474 0.2105 0.0000
-0.9474 0.3158 0.0000
-0.9474 0.4211 0.0000
-0.9474 0.5263 0.0000
-0.9474 0.6316 0.0000
-0.9474 0.7368 0.0000
-0.9474 0.8421 0.0000
-0.9474 0.9474 0.0000
-0.8421 -0.9474 0.0000
-0.8421 -0.8421 0.0000
-0.8421 -0.7368 0.0000
-0.8421 -0.6316 0.0000
-0.8421 -0.5263 0.0000
-0.8421 -0.4211 0.0000
-0.8421 -0.3158 0.0000
-0.8421 -0.2105 0.0000
-0.8421 -0.1053 0.0000
-0.8421 0.0000 0.0000
-0.8421 0.1053 0.0000
-0.8421 0.2105 0.0000
-0.8421 0.3158 0.0000
-0.8421 0.4211 0.0000
-0.8421 0.5263 0.0000
-0.8421 0.6316 0.0000
-0.8421 0.7368 0.0000
-0.8421 0.8421 0.0000
-0.8421 0.9474 0.0000
-0.7368 -0.9474 0.0000
-0.7368 -0.8421 0.0000
[...]
         <PointData>
            <DataArray Name="fValues" NumberOfComponents="3" format="ascii" type="Float64">
 8.93838e-01 -6.66190e-02        00000 
 9.33304e-01 -2.97920e-02        00000 
 8.91894e-01 -1.64728e-02        00000 
 8.48919e-01 -4.18807e-03        00000 
 8.03837e-01  7.26459e-03        00000 
 7.55987e-01  1.65793e-02        00000 
 7.04756e-01  2.32059e-02        00000 
 6.49949e-01  2.67591e-02        00000 
 5.91651e-01  2.71785e-02        00000 
 5.30796e-01  2.47039e-02        00000 
 4.69086e-01  1.98618e-02        00000 
 4.08236e-01  1.34730e-02        00000 
 3.49952e-01  6.19848e-03        00000 
 2.95163e-01 -1.46016e-03        00000 
 2.43948e-01 -9.24836e-03        00000 
 1.96106e-01 -1.72418e-02        00000 
 1.51024e-01 -2.56996e-02        00000 
 1.08043e-01 -3.50475e-02        00000 
 6.66285e-02 -4.55258e-02        00000 
 1.46796e-02 -6.60839e-02        00000 
 8.87734e-01 -3.95534e-02        00000 
 8.67228e-01 -2.85602e-02        00000 
 8.42324e-01 -4.59305e-03        00000 
 8.04164e-01  1.16105e-02        00000 
 7.63563e-01  2.40780e-02        00000 
 7.20414e-01  3.35392e-02        00000 
 6.74184e-01  3.98125e-02        00000 
 6.24635e-01  4.27347e-02        00000 
 5.71154e-01  4.24432e-02        00000 
 5.14406e-01  3.94113e-02        00000 
 4.55763e-01  3.45345e-02        00000 
 3.96784e-01  2.83537e-02        00000 
 3.39843e-01  2.17776e-02        00000 
 2.86015e-01  1.49563e-02        00000 
 2.35554e-01  7.78535e-03        00000 
 1.88713e-01  1.75010e-04        00000 
 1.44897e-01 -8.24177e-03        00000 
 1.03250e-01 -1.76457e-02        00000 
 6.24379e-02 -2.80431e-02        00000 
 1.87356e-02 -3.90328e-02        00000 
 8.52343e-01 -2.17125e-02        00000 
 8.20019e-01 -7.12807e-03        00000 
 7.91354e-01  9.55194e-03        00000 
 7.59284e-01  2.64603e-02        00000 
 7.23665e-01  3.98858e-02        00000 
 6.85909e-01  4.98300e-02        00000 
 6.45481e-01  5.62599e-02        00000 
 6.01824e-01  5.87210e-02        00000 
 5.51093e-01  5.56790e-02        00000 
 4.97454e-01  5.00363e-02        00000 
 4.40910e-01  4.49880e-02        00000 
 3.83510e-01  4.07070e-02        00000 
 3.28146e-01  3.66058e-02        00000 
 2.75322e-01  3.07283e-02        00000 
 2.25432e-01  2.42203e-02        00000 
 1.80109e-01  1.71652e-02        00000 
 1.37919e-01  9.17791e-03        00000 
 9.78717e-02  2.45000e-04        00000 
 5.85544e-02 -9.58286e-03        00000 
 1.94789e-02 -2.12128e-02        00000 
 8.07055e-01 -4.18200e-03        00000 
 7.74076e-01  1.08875e-02        00000 
 7.44411e-01  2.63696e-02        00000 
 7.14868e-01  4.16144e-02        00000 
 6.84050e-01  5.51365e-02        00000 
 6.52787e-01  6.53850e-02        00000 
 6.14060e-01  7.24699e-02        00000 
 5.79987e-01  7.37338e-02        00000 
 5.37204e-01  7.36993e-02        00000 
 4.86213e-01  6.97802e-02        00000 
 4.29849e-01  6.33224e-02        00000 
 3.71475e-01  5.64004e-02        00000 
 3.14516e-01  4.97856e-02        00000 
 2.62425e-01  4.67571e-02        00000 
 2.13378e-01  3.94893e-02        00000 
 1.70064e-01  3.34383e-02        00000 
 1.29964e-01  2.59438e-02        00000 
 9.19126e-02  1.72777e-02        00000 
 5.50807e-02  7.42303e-03        00000 
 1.89435e-02 -3.70331e-03        00000 
 7.58969e-01  1.19522e-02        00000 
 7.27414e-01  2.65871e-02        00000 
 6.98609e-01  4.11743e-02        00000 
 6.71449e-01  5.56010e-02        00000 
 6.42386e-01  6.92484e-02        00000 
 6.17840e-01  8.11293e-02        00000 
 5.92314e-01  8.88262e-02        00000 
 5.61592e-01  9.28123e-02        00000 
 5.22036e-01  8.92682e-02        00000 
 4.74025e-01  8.20036e-02        00000 
 4.17303e-01  7.44819e-02        00000 
 3.56955e-01  6.89729e-02        00000 
 2.99943e-01  6.60600e-02        00000 
 2.47549e-01  6.08844e-02        00000 
 2.00177e-01  5.55645e-02        00000 
 1.58612e-01  4.93534e-02        00000 
 1.21237e-01  4.16217e-02        00000 
 8.55789e-02  3.28374e-02        00000 
 5.12864e-02  2.31004e-02        00000 
 1.77557e-02  1.23960e-02        00000 
 7.10132e-01  2.59884e-02        00000 
 6.80478e-01  3.93231e-02        00000 
 6.53029e-01  5.26925e-02        00000 
 6.29046e-01  6.62031e-02        00000 
 6.02908e-01  8.08517e-02        00000 
 5.85543e-01  9.31455e-02        00000 
 5.63163e-01  1.03416e-01        00000 
 5.40260e-01  1.07985e-01        00000 
 5.10870e-01  1.04655e-01        00000 
 4.66205e-01  9.46522e-02        00000 
 4.05536e-01  8.48983e-02        00000 
 3.39708e-01  8.03919e-02        00000 
 2.79521e-01  7.73041e-02        00000 
 2.29220e-01  7.48636e-02        00000 
 1.85300e-01  6.97127e-02        00000 
 1.46489e-01  6.31595e-02        00000 
 1.12244e-01  5.54412e-02        00000 
 7.88823e-02  4.62358e-02        00000 
 4.70893e-02  3.65206e-02        00000 
 1.59528e-02  2.63645e-02        00000 
 6.61565e-01  3.69724e-02        00000 
 6.33679e-01  4.84628e-02        00000 
 6.07151e-01  6.08857e-02        00000 
 5.79237e-01  7.44230e-02        00000 
 5.65241e-01  8.73803e-02        00000 
 5.46327e-01  1.01151e-01        00000 
 5.30032e-01  1.15284e-01        00000 
 5.25368e-01  1.24884e-01        00000 
 5.12048e-01  1.29536e-01        00000 
 4.71992e-01  1.29610e-01        00000 
 4.05712e-01  1.21584e-01        00000 
 3.29176e-01  1.06375e-01        00000 
 2.59358e-01  9.53466e-02        00000 
 2.08382e-01  8.92791e-02        00000 
 1.68556e-01  8.21269e-02        00000 
 1.33959e-01  7.37870e-02        00000 
 1.01188e-01  6.49368e-02        00000 
 7.18917e-02  5.59849e-02        00000 
 4.24162e-02  4.66855e-02        00000 
 1.34638e-02  3.72199e-02        00000 
 6.13940e-01  4.38806e-02        00000 
 5.87823e-01  5.27546e-02        00000 
 5.63473e-01  6.23666e-02        00000 
 5.39009e-01  7.32584e-02        00000 
 5.23100e-01  8.58874e-02        00000 
 5.02759e-01  1.01079e-01        00000 
 4.99374e-01  1.17765e-01        00000 
 5.12802e-01  1.31015e-01        00000 
 5.04583e-01  1.41169e-01        00000 
 4.53032e-01  1.49534e-01        00000 
 3.97307e-01  1.51468e-01        00000 
 3.16112e-01  1.31115e-01        00000 
 2.37940e-01  1.10717e-01        00000 
 1.87274e-01  1.00034e-01        00000 
 1.51949e-01  9.09507e-02        00000 
 1.20022e-01  8.03498e-02        00000 
 9.28550e-02  7.13840e-02        00000 
 6.46411e-02  6.20569e-02        00000 
 3.72599e-02  5.28979e-02        00000 
 1.02693e-02  4.40187e-02        00000 
 5.67715e-01  4.56453e-02        00000 
 5.43164e-01  5.21248e-02        00000 
 5.16946e-01  5.94404e-02        00000 
 4.97843e-01  6.84380e-02        00000 
 4.77548e-01  7.78023e-02        00000 
 4.57037e-01  8.96547e-02        00000 
 4.67718e-01  1.04581e-01        00000 
 4.87525e-01  1.15796e-01        00000 
 4.55900e-01  1.17143e-01        00000 
 3.89593e-01  1.25686e-01        00000 
 3.35493e-01  1.26910e-01        00000 
 2.66961e-01  1.13907e-01        00000 
 2.01886e-01  1.00193e-01        00000 
 1.60152e-01  9.62748e-02        00000 
 1.34473e-01  9.11056e-02        00000 
 1.07625e-01  8.06341e-02        00000 
 8.21542e-02  7.14045e-02        00000 
 5.74500e-02  6.29929e-02        00000 
 3.15389e-02  5.40073e-02        00000 
 6.43236e-03  4.58694e-02        00000 
 5.22508e-01  4.24116e-02        00000 
 4.99053e-01  4.77304e-02        00000 
 4.73333e-01  5.20576e-02        00000 
 4.56463e-01  5.87960e-02        00000 
 4.33849e-01  6.37764e-02        00000 
 4.15542e-01  6.94628e-02        00000 
 4.20944e-01  8.14070e-02        00000 
 4.54880e-01  8.87840e-02        00000 
 3.79425e-01  9.60493e-02        00000 
 3.06481e-01  9.54027e-02        00000 
 2.56845e-01  8.92533e-02        00000 
 1.95510e-01  7.83696e-02        00000 
 1.42197e-01  7.50955e-02        00000 
 1.23264e-01  7.87084e-02        00000 
 1.16869e-01  7.99936e-02        00000 
 9.36804e-02  7.26446e-02        00000 
 7.01835e-02  6.51591e-02        00000 
 5.08803e-02  5.85653e-02        00000 
 2.53568e-02  5.01861e-02        00000 
 2.10896e-03  4.26349e-02        00000 
 4.77797e-01  3.47835e-02        00000 
 4.56610e-01  3.96743e-02        00000 
 4.32340e-01  4.30711e-02        00000 
 4.15154e-01  4.74586e-02        00000 
 3.93932e-01  4.97966e-02        00000 
 3.72979e-01  5.01453e-02        00000 
 3.65733e-01  5.69916e-02        00000 
 3.45113e-01  7.06699e-02        00000 
 2.95653e-01  7.97811e-02        00000 
 2.40200e-01  7.53319e-02        00000 
 1.94528e-01  6.89166e-02        00000 
 1.29934e-01  5.95630e-02        00000 
 6.90271e-02  5.09159e-02        00000 
 8.98703e-02  5.43216e-02        00000 
 9.53496e-02  6.07459e-02        00000 
 7.82695e-02  5.86656e-02        00000 
 5.79622e-02  5.39728e-02        00000 
 4.21747e-02  4.95773e-02        00000 
 1.88676e-02  4.21996e-02        00000 
-2.36304e-03  3.49804e-02        00000 
 4.32584e-01  2.38449e-02        00000 
 4.13329e-01  2.95945e-02        00000 
 3.94119e-01  3.41703e-02        00000 
 3.73298e-01  3.74957e-02        00000 
 3.54022e-01  3.97508e-02        00000 
 3.34565e-01  3.95035e-02        00000 
 3.07925e-01  4.16735e-02        00000 
 2.60680e-01  4.43174e-02        00000 
 2.06943e-01  4.15839e-02        00000 
 1.55489e-01  3.78305e-02        00000 
 1.17753e-01  3.84988e-02        00000 
 7.15828e-02  3.67317e-02        00000 
 4.92815e-02  2.86974e-02        00000 
 6.42296e-02  3.33235e-02        00000 
 7.36389e-02  4.10918e-02        00000 
 6.05007e-02  4.26250e-02        00000 
 4.58035e-02  4.05841e-02        00000 
 3.16987e-02  3.76341e-02        00000 
 1.21008e-02  3.13164e-02        00000 
-6.68926e-03  2.40405e-02        00000 
 3.86346e-01  1.10537e-02        00000 
 3.69265e-01  1.87243e-02        00000 
 3.50847e-01  2.47115e-02        00000 
 3.33073e-01  2.99632e-02        00000 
 3.14133e-01  3.38342e-02        00000 
 2.93175e-01  3.66943e-02        00000 
 2.64321e-01  3.84629e-02        00000 
 2.13918e-01  3.53677e-02        00000 
 1.45445e-01  2.29274e-02        00000 
 8.63949e-02  1.03614e-02        00000 
 6.04318e-02  1.20642e-02        00000 
 3.35039e-02  1.25893e-02        00000 
 3.50004e-02  1.50083e-02        00000 
 4.86906e-02  2.07242e-02        00000 
 5.19442e-02  2.65052e-02        00000 
 4.23324e-02  2.81970e-02        00000 
 3.45370e-02  2.79981e-02        00000 
 2.04043e-02  2.45336e-02        00000 
 5.52502e-03  1.90253e-02        00000 
-1.05360e-02  1.13344e-02        00000 
 3.38708e-01 -1.83124e-03        00000 
 3.24350e-01  8.59263e-03        00000 
 3.08356e-01  1.73740e-02        00000 
 2.95836e-01  2.68570e-02        00000 
 2.72034e-01  3.08392e-02        00000 
 2.51371e-01  3.63872e-02        00000 
 2.26043e-01  4.25068e-02        00000 
 1.84997e-01  4.47659e-02        00000 
 1.29463e-01  3.86129e-02        00000 
 7.83556e-02  2.73020e-02        00000 
 4.36168e-02  1.91832e-02        00000 
 2.89521e-02  1.54287e-02        00000 
 2.99709e-02  1.50852e-02        00000 
 3.52235e-02  1.64283e-02        00000 
 3.35449e-02  1.73482e-02        00000 
 2.81923e-02  1.73379e-02        00000 
 2.27824e-02  1.74123e-02        00000 
 1.15526e-02  1.28954e-02        00000 
-5.75446e-04  6.72657e-03        00000 
-1.37367e-02 -1.66125e-03        00000 
 2.90137e-01 -1.40340e-02        00000 
 2.78281e-01 -1.59457e-03        00000 
 2.64488e-01  9.10038e-03        00000 
 2.47257e-01  1.77286e-02        00000 
 2.33163e-01  2.78768e-02        00000 
 2.09490e-01  3.48576e-02        00000 
 1.85221e-01  4.24156e-02        00000 
 1.55217e-01  4.89474e-02        00000 
 1.17497e-01  4.98081e-02        00000 
 7.89690e-02  4.47711e-02        00000 
 4.88738e-02  3.52096e-02        00000 
 3.16103e-02  2.54649e-02        00000 
 2.46408e-02  1.82145e-02        00000 
 2.21806e-02  1.37537e-02        00000 
 1.95244e-02  1.12717e-02        00000 
 1.72651e-02  1.00440e-02        00000 
 1.12214e-02  6.78644e-03        00000 
 3.46109e-03  2.19738e-03        00000 
-5.90368e-03 -4.76099e-03        00000 
-1.62225e-02 -1.39942e-02        00000 
 2.41300e-01 -2.50142e-02        00000 
 2.31587e-01 -1.09807e-02        00000 
 2.19195e-01  1.89335e-03        00000 
 2.05015e-01  1.37477e-02        00000 
 1.91433e-01  2.51075e-02        00000 
 1.71943e-01  3.46068e-02        00000 
 1.47818e-01  4.05831e-02        00000 
 1.21601e-01  4.47935e-02        00000 
 9.45169e-02  4.69739e-02        00000 
 6.60258e-02  4.35382e-02        00000 
 4.23305e-02  3.59782e-02        00000 
 2.62197e-02  2.65681e-02        00000 
 1.65341e-02  1.77746e-02        00000 
 1.22379e-02  1.21251e-02        00000 
 1.00291e-02  8.69058e-03        00000 
 7.52934e-03  4.82910e-03        00000 
 2.36791e-03 -7.37565e-04        00000 
-3.44951e-03 -6.92787e-03        00000 
-1.03380e-02 -1.49500e-02        00000 
-1.80186e-02 -2.50441e-02        00000 
 1.93218e-01 -3.45665e-02        00000 
 1.84727e-01 -1.97816e-02        00000 
 1.72931e-01 -5.22908e-03        00000 
 1.60429e-01  8.71661e-03        00000 
 1.47632e-01  2.11178e-02        00000 
 1.32613e-01  3.12015e-02        00000 
 1.17033e-01  3.92158e-02        00000 
 9.47521e-02  4.33934e-02        00000 
 7.22363e-02  4.35909e-02        00000 
 5.10367e-02  4.00972e-02        00000 
 3.26914e-02  3.36129e-02        00000 
 1.89580e-02  2.59025e-02        00000 
 1.06381e-02  1.90200e-02        00000 
 6.30994e-03  1.25151e-02        00000 
 1.31433e-03  4.83143e-03        00000 
-1.70010e-03 -1.04966e-03        00000 
-5.21161e-03 -7.44133e-03        00000 
-9.26518e-03 -1.48250e-02        00000 
-1.38980e-02 -2.37754e-02        00000 
-1.91964e-02 -3.46336e-02        00000 
 1.47935e-01 -4.27603e-02        00000 
 1.38188e-01 -2.83814e-02        00000 
 1.25154e-01 -1.19732e-02        00000 
 1.14687e-01  4.09098e-03        00000 
 1.05388e-01  1.69962e-02        00000 
 9.47752e-02  2.71458e-02        00000 
 8.21643e-02  3.45161e-02        00000 
 6.71493e-02  3.85131e-02        00000 
 5.30202e-02  3.96856e-02        00000 
 3.77328e-02  3.73958e-02        00000 
 2.38271e-02  3.21426e-02        00000 
 1.22718e-02  2.46474e-02        00000 
 2.94859e-03  1.59392e-02        00000 
-2.46159e-03  8.28565e-03        00000 
-6.11159e-03  1.01556e-03        00000 
-9.12036e-03 -6.23638e-03        00000 
-1.18415e-02 -1.37074e-02        00000 
-1.43504e-02 -2.18178e-02        00000 
-1.67388e-02 -3.14038e-02        00000 
-1.97201e-02 -4.28509e-02        00000 
 1.12551e-01 -4.99229e-02        00000 
 8.96598e-02 -3.76665e-02        00000 
 7.38902e-02 -1.50638e-02        00000 
 6.89158e-02  4.19547e-04        00000 
 6.37717e-02  1.26200e-02        00000 
 5.75188e-02  2.22942e-02        00000 
 4.97685e-02  2.91894e-02        00000 
 4.05675e-02  3.30139e-02        00000 
 3.03340e-02  3.35604e-02        00000 
 1.98045e-02  3.09808e-02        00000 
 1.00094e-02  2.59839e-02        00000 
 1.61394e-03  1.92985e-02        00000 
-5.00924e-03  1.17311e-02        00000 
-9.92657e-03  3.90557e-03        00000 
-1.34461e-02 -3.91952e-03        00000 
-1.59895e-02 -1.17954e-02        00000 
-1.79090e-02 -1.99789e-02        00000 
-1.94033e-02 -2.86933e-02        00000 
-1.92701e-02 -3.77573e-02        00000 
-1.89662e-02 -5.00368e-02        00000 
 1.06453e-01 -5.40088e-02        00000 
 2.41004e-02 -2.97843e-02        00000 
 2.42436e-02 -1.64847e-02        00000 
 2.39052e-02 -4.22310e-03        00000 
 2.29077e-02  7.19957e-03        00000 
 2.10479e-02  1.64794e-02        00000 
 1.81382e-02  2.30641e-02        00000 
 1.40997e-02  2.65831e-02        00000 
 9.00775e-03  2.69475e-02        00000 
 3.13062e-03  2.43922e-02        00000 
-3.03565e-03  1.94941e-02        00000 
-8.90747e-03  1.30264e-02        00000 
-1.39842e-02  5.70024e-03        00000 
-1.80045e-02 -1.98769e-03        00000 
-2.08981e-02 -9.81204e-03        00000 
-2.27476e-02 -1.78342e-02        00000 
-2.37442e-02 -2.63156e-02        00000 
-2.40870e-02 -3.56792e-02        00000 
-2.39460e-02 -4.61686e-02        00000 
-1.49081e-02 -5.41395e-02        00000 
 8.92297e-01 -4.86276e-02        00000 
 8.85019e-01 -1.77913e-02        00000 
 8.47315e-01 -2.80899e-03        00000 
 8.05248e-01  1.02513e-02        00000 
 7.60969e-01  2.09531e-02        00000 
 7.13791e-01  2.89093e-02        00000 
 6.63301e-01  3.37840e-02        00000 
 6.09253e-01  3.53812e-02        00000 
 5.51926e-01  3.39379e-02        00000 
 4.92499e-01  2.99849e-02        00000 
 4.32495e-01  2.42707e-02        00000 
 3.73798e-01  1.76262e-02        00000 
 3.17848e-01  1.04868e-02        00000 
 2.65247e-01  3.10261e-03        00000 
 2.16128e-01 -4.50739e-03        00000 
 1.70190e-01 -1.25937e-02        00000 
 1.26796e-01 -2.14917e-02        00000 
 8.51000e-02 -3.14903e-02        00000 
 4.18165e-02 -4.36406e-02        00000 
 8.57280e-01 -2.57158e-02        00000 
 8.29321e-01 -8.15247e-03        00000 
 7.99370e-01  1.15186e-02        00000 
 7.62789e-01  2.61314e-02        00000 
 7.23447e-01  3.75081e-02        00000 
 6.81375e-01  4.54808e-02        00000 
 6.36507e-01  5.00776e-02        00000 
 5.87582e-01  5.09660e-02        00000 
 5.33246e-01  4.71235e-02        00000 
 4.77092e-01  4.23421e-02        00000 
 4.19486e-01  3.73287e-02        00000 
 3.62370e-01  3.21480e-02        00000 
 3.07326e-01  2.58180e-02        00000 
 2.55645e-01  1.94449e-02        00000 
 2.07522e-01  1.25297e-02        00000 
 1.62963e-01  4.77220e-03        00000 
 1.21043e-01 -3.91620e-03        00000 
 8.05998e-02 -1.35698e-02        00000 
 3.97217e-02 -2.38895e-02        00000 
 8.13434e-01 -5.61569e-03        00000 
 7.82315e-01  9.79523e-03        00000 
 7.52271e-01  2.63150e-02        00000 
 7.20474e-01  4.13778e-02        00000 
 6.86490e-01  5.32904e-02        00000 
 6.49680e-01  6.11012e-02        00000 
 6.09751e-01  6.42501e-02        00000 
 5.67544e-01  6.60851e-02        00000 
 5.18196e-01  6.27090e-02        00000 
 4.63441e-01  5.71363e-02        00000 
 4.06134e-01  5.13127e-02        00000 
 3.49078e-01  4.56517e-02        00000 
 2.94770e-01  3.92990e-02        00000 
 2.44453e-01  3.64573e-02        00000 
 1.97358e-01  2.88632e-02        00000 
 1.54576e-01  2.16940e-02        00000 
 1.14450e-01  1.34106e-02        00000 
 7.58515e-02  4.15140e-03        00000 
 3.80773e-02 -6.40169e-03        00000 
 7.66824e-01  1.14891e-02        00000 
 7.36016e-01  2.63622e-02        00000 
 7.07228e-01  4.14901e-02        00000 
 6.78981e-01  5.59782e-02        00000 
 6.48388e-01  6.82387e-02        00000 
 6.18846e-01  7.84684e-02        00000 
 5.87689e-01  8.24237e-02        00000 
 5.50698e-01  8.34046e-02        00000 
 5.04448e-01  7.90978e-02        00000 
 4.51721e-01  7.23781e-02        00000 
 3.94098e-01  6.56130e-02        00000 
 3.36253e-01  6.02355e-02        00000 
 2.80871e-01  5.57573e-02        00000 
 2.31101e-01  5.08687e-02        00000 
 1.85400e-01  4.48174e-02        00000 
 1.45047e-01  3.78096e-02        00000 
 1.07158e-01  2.97199e-02        00000 
 7.09793e-02  2.04771e-02        00000 
 3.58193e-02  1.01298e-02        00000 
 7.19086e-01  2.62003e-02        00000 
 6.89720e-01  4.01174e-02        00000 
 6.62751e-01  5.42241e-02        00000 
 6.35498e-01  6.79571e-02        00000 
 6.12538e-01  8.20533e-02        00000 
 5.91040e-01  9.24133e-02        00000 
 5.64715e-01  9.93461e-02        00000 
 5.33674e-01  9.99519e-02        00000 
 4.93018e-01  9.27963e-02        00000 
 4.40499e-01  8.33079e-02        00000 
 3.79783e-01  7.62113e-02        00000 
 3.18995e-01  7.27720e-02        00000 
 2.64429e-01  7.00002e-02        00000 
 2.15711e-01  6.55939e-02        00000 
 1.72659e-01  5.97485e-02        00000 
 1.34427e-01  5.28599e-02        00000 
 9.93867e-02  4.43163e-02        00000 
 6.57116e-02  3.49861e-02        00000 
 3.30896e-02  2.48946e-02        00000 
 6.71233e-01  3.79078e-02        00000 
 6.43583e-01  5.04117e-02        00000 