<?xml version="1.0" encoding="utf-8"?>
<VTKFile byte_order="LittleEndian" type="UnstructuredGrid" version="0.1">
   <UnstructuredGrid>
      <Piece NumberOfCells="1444" NumberOfPoints="761">
         <Points>
            <DataArray Name="Points" NumberOfComponents="3" format="ascii" type="Float32">
-1.0000 -1.0000 0.0000
-1.0000 -0.8947 0.0000
-1.0000 -0.7895 0.0000
-1.0000 -0.6842 0.0000
-1.0000 -0.5789 0.0000
-1.0000 -0.4737 0.0000
-1.0000 -0.3684 0.0000
-1.0000 -0.2632 0.0000
-1.0000 -0.1579 0.0000
-1.0000 -0.0526 0.0000
-1.0000 0.0526 0.0000
-1.0000 0.1579 0.0000
-1.0000 0.2632 0.0000
-1.0000 0.3684 0.0000
-1.0000 0.4737 0.0000
-1.0000 0.5789 0.0000
-1.0000 0.6842 0.0000
-1.0000 0.7895 0.0000
-1.0000 0.8947 0.0000
-1.0000 1.0000 0.0000
-0.8947 -1.0000 0.0000
-0.8947 -0.8947 0.0000
-0.8947 -0.7895 0.0000
-0.8947 -0.6842 0.0000
-0.8947 -0.5789 0.0000
-0.8947 -0.4737 0.0000
-0.8947 -0.3684 0.0000
-0.8947 -0.2632 0.0000
-0.8947 -0.1579 0.0000
-0.8947 -0.0526 0.0000
-0.8947 0.0526 0.0000
-0.8947 0.1579 0.0000
-0.8947 0.2632 0.0000
-0.8947 0.3684 0.0000
-0.8947 0.4737 0.0000
-0.8947 0.5789 0.0000
-0.8947 0.6842 0.0000
-0.8947 0.7895 0.0000
-0.8947 0.8947 0.0000
-0.8947 1.0000 0.0000
-0.7895 -1.0000 0.0000
-0.7895 -0.8947 0.0000
-0.7895 -0.7895 0.0000
-0.7895 -0.6842 0.0000
-0.7895 -0.5789 0.0000
-0.7895 -0.4737 0.0000
-0.7895 -0.3684 0.0000
-0.7895 -0.2632 0.0000
-0.7895 -0.1579 0.0000
-0.7895 -0.0526 0.0000
-0.7895 0.0526 0.0000
-0.7895 0.1579 0.0000
-0.7895 0.2632 0.0000
-0.7895 0.3684 0.0000
-0.7895 0.4737 0.0000
-0.7895 0.5789 0.0000
-0.7895 0.6842 0.0000
-0.7895 0.7895 0.0000
-0.7895 0.8947 0.0000
-0.7895 1.0000 0.0000
-0.6842 -1.0000 0.0000
-0.6842 -0.8947 0.0000
-0.6842 -0.7895 0.0000
-0.6842 -0.6842 0.0000
-0.6842 -0.5789 0.0000
-0.6842 -0.4737 0.0000
-0.6842 -0.3684 0.0000
-0.6842 -0.2632 0.0000
-0.6842 -0.1579 0.0000
-0.6842 -0.0526 0.0000
-0.6842 0.0526 0.0000
-0.6842 0.1579 0.0000
-0.6842 0.2632 0.0000
-0.6842 0.3684 0.0000
-0.6842 0.4737 0.0000
-0.6842 0.5789 0.0000
-0.6842 0.6842 0.0000
-0.6842 0.7895 0.0000
-0.6842 0.8947 0.0000
-0.6842 1.0000 0.0000
-0.5789 -1.0000 0.0000
-0.5789 -0.8947 0.0000
-0.5789 -0.7895 0.0000
-0.5789 -0.6842 0.0000
-0.5789 -0.5789 0.0000
-0.5789 -0.4737 0.0000
-0.5789 -0.3684 0.0000
-0.5789 -0.2632 0.0000
-0.5789 -0.1579 0.0000
-0.5789 -0.0526 0.0000
-0.5789 0.0526 0.0000
-0.5789 0.1579 0.0000
-0.5789 0.2632 0.0000
-0.5789 0.3684 0.0000
-0.5789 0.4737 0.0000
-0.5789 0.5789 0.0000
-0.5789 0.6842 0.0000
-0.5789 0.7895 0.0000
-0.5789 0.8947 0.0000
-0.5789 1.0000 0.0000
-0.4737 -1.0000 0.0000
-0.4737 -0.8947 0.0000
-0.4737 -0.7895 0.0000
-0.4737 -0.6842 0.0000
-0.4737 -0.5789 0.0000
-0.4737 -0.4737 0.0000
-0.4737 -0.3684 0.0000
-0.4737 -0.2632 0.0000
-0.4737 -0.1579 0.0000
-0.4737 -0.0526 0.0000
-0.4737 0.0526 0.0000
-0.4737 0.1579 0.0000
-0.4737 0.2632 0.0000
-0.4737 0.3684 0.0000
-0.4737 0.4737 0.0000
-0.4737 0.5789 0.0000
-0.4737 0.6842 0.0000
-0.4737 0.7895 0.0000
-0.4737 0.8947 0.0000
-0.4737 1.0000 0.0000
-0.3684 -1.0000 0.0000
-0.3684 -0.8947 0.0000
-0.3684 -0.7895 0.0000
-0.3684 -0.6842 0.0000
-0.3684 -0.5789 0.0000
-0.3684 -0.4737 0.0000
-0.3684 -0.3684 0.0000
-0.3684 -0.2632 0.0000
-0.3684 -0.1579 0.0000
-0.3684 -0.0526 0.0000
-0.3684 0.0526 0.0000
-0.3684 0.1579 0.0000
-0.3684 0.2632 0.0000
-0.3684 0.3684 0.0000
-0.3684 0.4737 0.0000
-0.3684 0.5789 0.0000
-0.3684 0.6842 0.0000
-0.3684 0.7895 0.0000
-0.3684 0.8947 0.0000
-0.3684 1.0000 0.0000
-0.2632 -1.0000 0.0000
-0.2632 -0.8947 0.0000
-0.2632 -0.7895 0.0000
-0.2632 -0.6842 0.0000
-0.2632 -0.5789 0.0000
-0.2632 -0.4737 0.0000
-0.2632 -0.3684 0.0000
-0.2632 -0.2632 0.0000
-0.2632 -0.1579 0.0000
-0.2632 -0.0526 0.0000
-0.2632 0.0526 0.0000
-0.2632 0.1579 0.0000
-0.2632 0.2632 0.0000
-0.2632 0.3684 0.0000
-0.2632 0.4737 0.0000
-0.2632 0.5789 0.0000
-0.2632 0.6842 0.0000
-0.2632 0.7895 0.0000
-0.2632 0.8947 0.0000
-0.2632 1.0000 0.0000
-0.1579 -1.0000 0.0000
-0.1579 -0.8947 0.0000
-0.1579 -0.7895 0.0000
-0.1579 -0.6842 0.0000
-0.1579 -0.5789 0.0000
-0.1579 -0.4737 0.0000
-0.1579 -0.3684 0.0000
-0.1579 -0.2632 0.0000
-0.1579 -0.1579 0.0000
-0.1579 -0.0526 0.0000
-0.1579 0.0526 0.0000
-0.1579 0.1579 0.0000
-0.1579 0.2632 0.0000
-0.1579 0.3684 0.0000
-0.1579 0.4737 0.0000
-0.1579 0.5789 0.0000
-0.1579 0.6842 0.0000
-0.1579 0.7895 0.0000
-0.1579 0.8947 0.0000
-0.1579 1.0000 0.0000
-0.0526 -1.0000 0.0000
-0.0526 -0.8947 0.0000
-0.0526 -0.7895 0.0000
-0.0526 -0.6842 0.0000
-0.0526 -0.5789 0.0000
-0.0526 -0.4737 0.0000
-0.0526 -0.3684 0.0000
-0.0526 -0.2632 0.0000
-0.0526 -0.1579 0.0000
-0.0526 -0.0526 0.0000
-0.0526 0.0526 0.0000
-0.0526 0.1579 0.0000
-0.0526 0.2632 0.0000
-0.0526 0.3684 0.0000
-0.0526 0.4737 0.0000
-0.0526 0.5789 0.0000
-0.0526 0.6842 0.0000
-0.0526 0.7895 0.0000
-0.0526 0.8947 0.0000
-0.0526 1.0000 0.0000
0.0526 -1.0000 0.0000
0.0526 -0.8947 0.0000
0.0526 -0.7895 0.0000
0.0526 -0.6842 0.0000
0.0526 -0.5789 0.0000
0.0526 -0.4737 0.0000
0.0526 -0.3684 0.0000
0.0526 -0.2632 0.0000
0.0526 -0.1579 0.0000
0.0526 -0.0526 0.0000
0.0526 0.0526 0.0000
0.0526 0.1579 0.0000
0.0526 0.2632 0.0000
0.0526 0.3684 0.0000
0.0526 0.4737 0.0000
0.0526 0.5789 0.0000
0.0526 0.6842 0.0000
0.0526 0.7895 0.0000
0.0526 0.8947 0.0000
0.0526 1.0000 0.0000
0.1579 -1.0000 0.0000
0.1579 -0.8947 0.0000
0.1579 -0.7895 0.0000
0.1579 -0.6842 0.0000
0.1579 -0.5789 0.0000
0.1579 -0.4737 0.0000
0.1579 -0.3684 0.0000
0.1579 -0.2632 0.0000
0.1579 -0.1579 0.0000
0.1579 -0.0526 0.0000
0.1579 0.0526 0.0000
0.1579 0.1579 0.0000
0.1579 0.2632 0.0000
0.1579 0.3684 0.0000
0.1579 0.4737 0.0000
0.1579 0.5789 0.0000
0.1579 0.6842 0.0000
0.1579 0.7895 0.0000
0.1579 0.8947 0.0000
0.1579 1.0000 0.0000
0.2632 -1.0000 0.0000
0.2632 -0.8947 0.0000
0.2632 -0.7895 0.0000
0.2632 -0.6842 0.0000
0.2632 -0.5789 0.0000
0.2632 -0.4737 0.0000
0.2632 -0.3684 0.0000
0.2632 -0.2632 0.0000
0.2632 -0.1579 0.0000
0.2632 -0.0526 0.0000
0.2632 0.0526 0.0000
0.2632 0.1579 0.0000
0.2632 0.2632 0.0000
0.2632 0.3684 0.0000
0.2632 0.4737 0.0000
0.2632 0.5789 0.0000
0.2632 0.6842 0.0000
0.2632 0.7895 0.0000
0.2632 0.8947 0.0000
0.2632 1.0000 0.0000
0.3684 -1.0000 0.0000
0.3684 -0.8947 0.0000
0.3684 -0.7895 0.0000
0.3684 -0.6842 0.0000
0.3684 -0.5789 0.0000
0.3684 -0.4737 0.0000
0.3684 -0.3684 0.0000
0.3684 -0.2632 0.0000
0.3684 -0.1579 0.0000
0.3684 -0.0526 0.0000
0.3684 0.0526 0.0000
0.3684 0.1579 0.0000
0.3684 0.2632 0.0000
0.3684 0.3684 0.0000
0.3684 0.4737 0.0000
0.3684 0.5789 0.0000
0.3684 0.6842 0.0000
0.3684 0.7895 0.0000
0.3684 0.8947 0.0000
0.3684 1.0000 0.0000
0.4737 -1.0000 0.0000
0.4737 -0.8947 0.0000
0.4737 -0.7895 0.0000
0.4737 -0.6842 0.0000
0.4737 -0.5789 0.0000
0.4737 -0.4737 0.0000
0.4737 -0.3684 0.0000
0.4737 -0.2632 0.0000
0.4737 -0.1579 0.0000
0.4737 -0.0526 0.0000
0.4737 0.0526 0.0000
0.4737 0.1579 0.0000
0.4737 0.2632 0.0000
0.4737 0.3684 0.0000
0.4737 0.4737 0.0000
0.4737 0.5789 0.0000
0.4737 0.6842 0.0000
0.4737 0.7895 0.0000
0.4737 0.8947 0.0000
0.4737 1.0000 0.0000
0.5789 -1.0000 0.0000
0.5789 -0.8947 0.0000
0.5789 -0.7895 0.0000
0.5789 -0.6842 0.0000
0.5789 -0.5789 0.0000
0.5789 -0.4737 0.0000
0.5789 -0.3684 0.0000
0.5789 -0.2632 0.0000
0.5789 -0.1579 0.0000
0.5789 -0.0526 0.0000
0.5789 0.0526 0.0000
0.5789 0.1579 0.0000
0.5789 0.2632 0.0000
0.5789 0.3684 0.0000
0.5789 0.4737 0.0000
0.5789 0.5789 0.0000
0.5789 0.6842 0.0000
0.5789 0.7895 0.0000
0.5789 0.8947 0.0000
0.5789 1.0000 0.0000
0.6842 -1.0000 0.0000
0.6842 -0.8947 0.0000
0.6842 -0.7895 0.0000
0.6842 -0.6842 0.0000
0.6842 -0.5789 0.0000
0.6842 -0.4737 0.0000
0.6842 -0.3684 0.0000
0.6842 -0.2632 0.0000
0.6842 -0.1579 0.0000
0.6842 -0.0526 0.0000
0.6842 0.0526 0.0000
0.6842 0.1579 0.0000
0.6842 0.2632 0.0000
0.6842 0.3684 0.0000
0.6842 0.4737 0.0000
0.6842 0.5789 0.0000
0.6842 0.6842 0.0000
0.6842 0.7895 0.0000
0.6842 0.8947 0.0000
0.6842 1.0000 0.0000
0.7895 -1.0000 0.0000
0.7895 -0.8947 0.0000
0.7895 -0.7895 0.0000
0.7895 -0.6842 0.0000
0.7895 -0.5789 0.0000
0.7895 -0.4737 0.0000
0.7895 -0.3684 0.0000
0.7895 -0.2632 0.0000
0.7895 -0.1579 0.0000
0.7895 -0.0526 0.0000
0.7895 0.0526 0.0000
0.7895 0.1579 0.0000
0.7895 0.2632 0.0000
0.7895 0.3684 0.0000
0.7895 0.4737 0.0000
0.7895 0.5789 0.0000
0.7895 0.6842 0.0000
0.7895 0.7895 0.0000
0.7895 0.8947 0.0000
0.7895 1.0000 0.0000
0.8947 -1.0000 0.0000
0.8947 -0.8947 0.0000
0.8947 -0.7895 0.0000
0.8947 -0.6842 0.0000
0.8947 -0.5789 0.0000
0.8947 -0.4737 0.0000
0.8947 -0.3684 0.0000
0.8947 -0.2632 0.0000
0.8947 -0.1579 0.0000
0.8947 -0.0526 0.0000
0.8947 0.0526 0.0000
0.8947 0.1579 0.0000
0.8947 0.2632 0.0000
0.8947 0.3684 0.0000
0.8947 0.4737 0.0000
0.8947 0.5789 0.0000
0.8947 0.6842 0.0000
0.8947 0.7895 0.0000
0.8947 0.8947 0.0000
0.8947 1.0000 0.0000
1.0000 -1.0000 0.0000
1.0000 -0.8947 0.0000
1.0000 -0.7895 0.0000
1.0000 -0.6842 0.0000
1.0000 -0.5789 0.0000
1.0000 -0.4737 0.0000
1.0000 -0.3684 0.0000
1.0000 -0.2632 0.0000
1.0000 -0.1579 0.0000
1.0000 -0.0526 0.0000
1.0000 0.0526 0.0000
1.0000 0.1579 0.0000
1.0000 0.2632 0.0000
1.0000 0.3684 0.0000
1.0000 0.4737 0.0000
1.0000 0.5789 0.0000
1.0000 0.6842 0.0000
1.0000 0.7895 0.0000
1.0000 0.8947 0.0000
1.0000 1.0000 0.0000
-0.9474 -0.9474 0.0000
-0.9474 -0.8421 0.0000
-0.9474 -0.7368 0.0000
-0.9474 -0.6316 0.0000
-0.9474 -0.5263 0.0000
-0.9474 -0.4211 0.0000
-0.9474 -0.3158 0.0000
-0.9474 -0.2105 0.0000
-0.9474 -0.1053 0.0000
-0.9474 0.0000 0.0000
-0.9474 0.1053 0.0000
-0.9474 0.2105 0.0000
-0.9474 0.3158 0.0000
-0.9474 0.4211 0.0000
-0.9474 0.5263 0.0000
-0.9474 0.6316 0.0000
-0.9474 0.7368 0.0000
-0.9474 0.8421 0.0000
-0.9474 0.9474 0.0000
-0.8421 -0.9474 0.0000
-0.8421 -0.8421 0.0000
-0.8421 -0.7368 0.0000
-0.8421 -0.6316 0.0000
-0.8421 -0.5263 0.0000
-0.8421 -0.4211 0.0000
-0.8421 -0.3158 0.0000
-0.8421 -0.2105 0.0000
-0.8421 -0.1053 0.0000
-0.8421 0.0000 0.0000
-0.8421 0.1053 0.0000
-0.8421 0.2105 0.0000
-0.8421 0.3158 0.0000
-0.8421 0.4211 0.0000
-0.8421 0.5263 0.0000
-0.8421 0.6316 0.0000
-0.8421 0.7368 0.0000
-0.8421 0.8421 0.0000
-0.8421 0.9474 0.0000
-0.7368 -0.9474 0.0000
-0.7368 -0.8421 0.0000
[...]
         <PointData>
            <DataArray Name="fValues" NumberOfComponents="3" format="ascii" type="Float64">
-3.65847e-02 -1.71175e-02        00000 
-5.23973e-02 -2.13326e-02        00000 
-4.50170e-02 -1.98403e-02        00000 
-3.64669e-02 -1.84204e-02        00000 
-2.65500e-02 -1.70598e-02        00000 
-1.51708e-02 -1.53233e-02        00000 
-2.51221e-03 -1.30071e-02        00000 
 1.07630e-02 -1.00093e-02        00000 
 2.36270e-02 -6.39308e-03        00000 
 3.46805e-02 -2.31237e-03        00000 
 4.23694e-02  1.96091e-03        00000 
 4.55222e-02  6.04654e-03        00000 
 4.34660e-02  9.67668e-03        00000 
 3.64556e-02  1.26856e-02        00000 
 2.53481e-02  1.50035e-02        00000 
 1.10802e-02  1.67410e-02        00000 
-5.35171e-03  1.81043e-02        00000 
-2.31778e-02  1.95312e-02        00000 
-4.18858e-02  2.10348e-02        00000 
-3.58121e-02  2.94315e-02        00000 
-3.75287e-02 -1.99861e-02        00000 
-3.61660e-02 -1.56850e-02        00000 
-3.28574e-02 -1.52170e-02        00000 
-2.52189e-02 -1.27809e-02        00000 
-1.61661e-02 -9.35488e-03        00000 
-5.70280e-03 -5.07284e-03        00000 
 6.05377e-03  7.60107e-05        00000 
 1.85792e-02  5.97108e-03        00000 
 3.10162e-02  1.23457e-02        00000 
 4.19768e-02  1.88618e-02        00000 
 4.99152e-02  2.51301e-02        00000 
 5.37866e-02  3.12486e-02        00000 
 5.23925e-02  3.67192e-02        00000 
 4.60714e-02  4.16754e-02        00000 
 3.57284e-02  4.62051e-02        00000 
 2.20662e-02  5.02517e-02        00000 
 6.15249e-03  5.39340e-02        00000 
-1.09483e-02  5.70816e-02        00000 
-2.61873e-02  5.89081e-02        00000 
-3.67622e-02  6.19379e-02        00000 
-3.16476e-02 -2.04489e-02        00000 
-2.64502e-02 -1.55408e-02        00000 
-2.17705e-02 -1.14492e-02        00000 
-1.55783e-02 -7.38025e-03        00000 
-7.71987e-03 -2.10828e-03        00000 
 1.54537e-03  4.46162e-03        00000 
 1.22544e-02  1.21009e-02        00000 
 2.41823e-02  2.07922e-02        00000 
 3.75145e-02  3.19270e-02        00000 
 4.94924e-02  4.19688e-02        00000 
 5.84130e-02  5.03085e-02        00000 
 6.28215e-02  5.72976e-02        00000 
 6.16851e-02  6.38765e-02        00000 
 5.54784e-02  7.09016e-02        00000 
 4.57449e-02  7.78058e-02        00000 
 3.22247e-02  8.41892e-02        00000 
 1.66746e-02  8.99867e-02        00000 
 4.28017e-04  9.48919e-02        00000 
-1.51554e-02  9.92403e-02        00000 
-3.08963e-02  1.04344e-01        00000 
-2.40813e-02 -2.05730e-02        00000 
-1.81834e-02 -1.46147e-02        00000 
-1.29828e-02 -8.92986e-03        00000 
-7.46271e-03 -2.97117e-03        00000 
-1.02926e-03  4.00532e-03        00000 
 6.52343e-03  1.23856e-02        00000 
 1.75759e-02  2.39433e-02        00000 
 2.79482e-02  3.51362e-02        00000 
 4.06724e-02  4.59896e-02        00000 
 5.41111e-02  5.80795e-02        00000 
 6.51334e-02  7.01283e-02        00000 
 7.12536e-02  8.13855e-02        00000 
 7.12844e-02  9.21057e-02        00000 
 6.47917e-02  9.99526e-02        00000 
 5.52961e-02  1.11012e-01        00000 
 4.15331e-02  1.19610e-01        00000 
 2.60953e-02  1.27688e-01        00000 
 1.00598e-02  1.34930e-01        00000 
-6.28735e-03  1.41523e-01        00000 
-2.33477e-02  1.47752e-01        00000 
-1.64406e-02 -2.00499e-02        00000 
-1.04240e-02 -1.32429e-02        00000 
-5.33029e-03 -6.55348e-03        00000 
-6.12192e-04  4.68144e-04        00000 
 5.08842e-03  9.19484e-03        00000 
 1.02284e-02  1.85404e-02        00000 
 1.76055e-02  2.91838e-02        00000 
 2.85683e-02  4.30091e-02        00000 
 4.29821e-02  6.08523e-02        00000 
 5.89546e-02  7.84060e-02        00000 
 7.28492e-02  9.36210e-02        00000 
 8.07436e-02  1.07289e-01        00000 
 8.04886e-02  1.19297e-01        00000 
 7.37341e-02  1.32679e-01        00000 
 6.34046e-02  1.45212e-01        00000 
 4.97643e-02  1.56939e-01        00000 
 3.40746e-02  1.67885e-01        00000 
 1.82059e-02  1.77494e-01        00000 
 1.67692e-03  1.85890e-01        00000 
-1.57243e-02  1.93299e-01        00000 
-8.88735e-03 -1.86933e-02        00000 
-2.84948e-03 -1.12125e-02        00000 
 1.93261e-03 -3.95980e-03        00000 
 5.59800e-03  3.23484e-03        00000 
 9.32049e-03  1.16005e-02        00000 
 1.18605e-02  2.07456e-02        00000 
 1.79495e-02  3.44100e-02        00000 
 2.71827e-02  5.25376e-02        00000 
 4.17942e-02  7.39810e-02        00000 
 6.13429e-02  9.62142e-02        00000 
 8.03081e-02  1.17846e-01        00000 
 9.12848e-02  1.34257e-01        00000 
 9.14102e-02  1.51535e-01        00000 
 8.24241e-02  1.67591e-01        00000 
 7.03364e-02  1.83953e-01        00000 
 5.62669e-02  1.98470e-01        00000 
 4.03173e-02  2.11353e-01        00000 
 2.52260e-02  2.23227e-01        00000 
 8.98452e-03  2.33223e-01        00000 
-8.19388e-03  2.41614e-01        00000 
-1.36084e-03 -1.63195e-02        00000 
 4.76012e-03 -8.19572e-03        00000 
 9.30977e-03 -5.41346e-04        00000 
 1.32150e-02  7.64432e-03        00000 
 1.30185e-02  1.35804e-02        00000 
 1.47098e-02  2.32633e-02        00000 
 1.73595e-02  3.60194e-02        00000 
 2.15927e-02  4.92665e-02        00000 
 3.40021e-02  6.49424e-02        00000 
 5.49360e-02  9.02037e-02        00000 
 7.89632e-02  1.23177e-01        00000 
 9.67953e-02  1.60018e-01        00000 
 1.00676e-01  1.86065e-01        00000 
 8.95987e-02  2.06752e-01        00000 
 7.58192e-02  2.27647e-01        00000 
 6.14350e-02  2.45727e-01        00000 
 4.71791e-02  2.60677e-01        00000 
 3.14779e-02  2.73300e-01        00000 
 1.58970e-02  2.84122e-01        00000 
-7.00148e-04  2.93320e-01        00000 
 6.10312e-03 -1.28442e-02        00000 
 1.24265e-02 -3.79868e-03        00000 
 1.69123e-02  4.27193e-03        00000 
 2.00369e-02  1.19062e-02        00000 
 1.89049e-02  1.76002e-02        00000 
 1.94844e-02  2.55240e-02        00000 
 1.62880e-02  3.07422e-02        00000 
 1.60663e-02  3.56629e-02        00000 
 2.95415e-02  4.94714e-02        00000 
 5.21164e-02  8.99785e-02        00000 
 8.03148e-02  1.55869e-01        00000 
 1.00873e-01  1.99673e-01        00000 
 1.11549e-01  2.36765e-01        00000 
 9.61101e-02  2.58162e-01        00000 
 7.86435e-02  2.78342e-01        00000 
 6.70188e-02  2.98633e-01        00000 
 5.05645e-02  3.13088e-01        00000 
 3.73379e-02  3.26593e-01        00000 
 2.25548e-02  3.38380e-01        00000 
 6.70264e-03  3.48631e-01        00000 
 1.32488e-02 -8.31515e-03        00000 
 1.98454e-02  2.31019e-03        00000 
 2.55035e-02  1.30532e-02        00000 
 2.70928e-02  1.97824e-02        00000 
 2.78874e-02  2.70113e-02        00000 
 2.69494e-02  3.23449e-02        00000 
 1.69023e-02  2.97035e-02        00000 
 1.38620e-02  3.41703e-02        00000 
 3.58936e-02  7.40159e-02        00000 
 6.00237e-02  1.32274e-01        00000 
 8.44467e-02  1.98813e-01        00000 
 1.18489e-01  2.69379e-01        00000 
 1.31523e-01  3.15141e-01        00000 
 1.07917e-01  3.28223e-01        00000 
 8.17911e-02  3.38686e-01        00000 
 7.01577e-02  3.55955e-01        00000 
 5.70441e-02  3.70368e-01        00000 
 4.16818e-02  3.82574e-01        00000 
 2.90448e-02  3.96010e-01        00000 
 1.37627e-02  4.07502e-01        00000 
 1.95470e-02 -3.04995e-03        00000 
 2.64235e-02  1.01350e-02        00000 
 3.30472e-02  2.40926e-02        00000 
 3.47831e-02  3.30518e-02        00000 
 3.74049e-02  4.27760e-02        00000 
 3.67352e-02  4.93430e-02        00000 
 2.10035e-02  4.41634e-02        00000 
 1.03781e-02  4.79256e-02        00000 
 3.70046e-02  1.14742e-01        00000 
 7.01653e-02  1.93809e-01        00000 
 9.39023e-02  2.57702e-01        00000 
 1.33781e-01  3.35722e-01        00000 
 1.50316e-01  3.88839e-01        00000 
 1.23325e-01  4.05083e-01        00000 
 8.67903e-02  4.05059e-01        00000 
 7.57581e-02  4.16778e-01        00000 
 6.43606e-02  4.29307e-01        00000 
 4.53334e-02  4.40420e-01        00000 
 3.49589e-02  4.55415e-01        00000 
 1.99665e-02  4.68964e-01        00000 
 2.42582e-02  2.47758e-03        00000 
 3.13003e-02  1.93605e-02        00000 
 3.82240e-02  3.74937e-02        00000 
 4.12406e-02  5.09741e-02        00000 
 4.50363e-02  6.60630e-02        00000 
 4.63746e-02  7.90455e-02        00000 
 2.94978e-02  7.84422e-02        00000 
 1.57728e-02  9.68731e-02        00000 
 3.50246e-02  1.56261e-01        00000 
 7.50899e-02  2.40791e-01        00000 
 9.91004e-02  3.08798e-01        00000 
 1.32355e-01  3.94105e-01        00000 
 1.55921e-01  4.68412e-01        00000 
 1.31856e-01  4.71825e-01        00000 
 9.61549e-02  4.66209e-01        00000 
 8.33339e-02  4.73993e-01        00000 
 7.07272e-02  4.86234e-01        00000 
 5.05814e-02  4.97502e-01        00000 
 3.96799e-02  5.14667e-01        00000 
 2.45157e-02  5.31306e-01        00000 
 2.65798e-02  7.75850e-03        00000 
 3.36113e-02  2.92973e-02        00000 
 4.01681e-02  5.22609e-02        00000 
 4.48110e-02  7.17059e-02        00000 
 4.85774e-02  9.41170e-02        00000 
 5.17628e-02  1.17226e-01        00000 
 4.10490e-02  1.29134e-01        00000 
 2.65872e-02  1.45185e-01        00000 
 3.97511e-02  2.01850e-01        00000 
 7.55886e-02  2.91099e-01        00000 
 1.02627e-01  3.76387e-01        00000 
 1.23959e-01  4.52446e-01        00000 
 1.44417e-01  5.05044e-01        00000 
 1.31911e-01  5.12527e-01        00000 
 1.06456e-01  5.11337e-01        00000 
 9.06743e-02  5.22529e-01        00000 
 7.48101e-02  5.37685e-01        00000 
 5.59673e-02  5.51733e-01        00000 
 4.23952e-02  5.72114e-01        00000 
 2.67407e-02  5.92783e-01        00000 
 2.59096e-02  1.23041e-02        00000 
 3.27960e-02  3.90284e-02        00000 
 3.89025e-02  6.58212e-02        00000 
 4.44580e-02  9.36184e-02        00000 
 4.65248e-02  1.20703e-01        00000 
 5.10474e-02  1.54450e-01        00000 
 4.78258e-02  1.84356e-01        00000 
 3.86658e-02  2.13429e-01        00000 
 4.77363e-02  2.61830e-01        00000 
 6.32734e-02  3.18923e-01        00000 
 9.77376e-02  4.22736e-01        00000 
 1.18958e-01  4.88875e-01        00000 
 1.33999e-01  5.13727e-01        00000 
 1.27497e-01  5.26339e-01        00000 
 1.09871e-01  5.41406e-01        00000 
 9.44331e-02  5.62830e-01        00000 
 7.48248e-02  5.81011e-01        00000 
 5.90683e-02  6.02866e-01        00000 
 4.24195e-02  6.26059e-01        00000 
 2.59805e-02  6.51670e-01        00000 
 2.19872e-02  1.57972e-02        00000 
 2.86366e-02  4.76594e-02        00000 
 3.46513e-02  7.98877e-02        00000 
 4.01528e-02  1.15418e-01        00000 
 4.24486e-02  1.46295e-01        00000 
 4.47875e-02  1.83944e-01        00000 
 4.59672e-02  2.25453e-01        00000 
 4.18502e-02  2.63826e-01        00000 
 4.50259e-02  3.06476e-01        00000 
 6.05045e-02  3.65222e-01        00000 
 8.44439e-02  4.20853e-01        00000 
 1.07682e-01  4.67813e-01        00000 
 1.20634e-01  5.00516e-01        00000 
 1.17858e-01  5.31484e-01        00000 
 1.05456e-01  5.64824e-01        00000 
 9.07138e-02  5.94030e-01        00000 
 7.43030e-02  6.16113e-01        00000 
 5.64280e-02  6.46684e-01        00000 
 3.91663e-02  6.76188e-01        00000 
 2.19910e-02  7.06997e-01        00000 
 1.48831e-02  1.81939e-02        00000 
 2.13376e-02  5.48276e-02        00000 
 2.72374e-02  9.20911e-02        00000 
 3.22439e-02  1.29799e-01        00000 
 3.64800e-02  1.69236e-01        00000 
 3.73608e-02  2.06959e-01        00000 
 3.96230e-02  2.49231e-01        00000 
 3.98783e-02  2.91344e-01        00000 
 4.31465e-02  3.33583e-01        00000 
 5.34307e-02  3.70502e-01        00000 
 7.22395e-02  4.13994e-01        00000 
 9.22445e-02  4.57859e-01        00000 
 1.03762e-01  5.04193e-01        00000 
 1.03551e-01  5.48474e-01        00000 
 9.52709e-02  5.88076e-01        00000 
 8.28993e-02  6.20392e-01        00000 
 6.63585e-02  6.55327e-01        00000 
 4.98362e-02  6.88527e-01        00000 
 3.24682e-02  7.23015e-01        00000 
 1.48471e-02  7.58724e-01        00000 
 4.88326e-03  1.95810e-02        00000 
 1.12469e-02  6.04254e-02        00000 
 1.71436e-02  1.01721e-01        00000 
 2.24664e-02  1.43566e-01        00000 
 2.71463e-02  1.87438e-01        00000 
 3.05670e-02  2.29655e-01        00000 
 3.41668e-02  2.69705e-01        00000 
 3.67692e-02  3.12127e-01        00000 
 4.28848e-02  3.52692e-01        00000 
 5.27021e-02  3.93445e-01        00000 
 6.64896e-02  4.34264e-01        00000 
 8.02851e-02  4.78970e-01        00000 
 8.82791e-02  5.25540e-01        00000 
 8.94984e-02  5.68653e-01        00000 
 8.29924e-02  6.06494e-01        00000 
 7.11229e-02  6.46309e-01        00000 
 5.63250e-02  6.87995e-01        00000 
 3.99137e-02  7.27256e-01        00000 
 2.25953e-02  7.66842e-01        00000 
 4.81743e-03  8.07068e-01        00000 
-7.64248e-03  2.01457e-02        00000 
-1.25277e-03  6.46091e-02        00000 
 4.82028e-03  1.09353e-01        00000 
 1.06412e-02  1.54268e-01        00000 
 1.59043e-02  1.98981e-01        00000 
 2.02237e-02  2.42264e-01        00000 
 2.98035e-02  2.93257e-01        00000 
 3.25968e-02  3.30733e-01        00000 
 4.03532e-02  3.72677e-01        00000 
 5.01437e-02  4.14529e-01        00000 
 6.08729e-02  4.57078e-01        00000 
 7.04147e-02  5.00503e-01        00000 
 7.53960e-02  5.42236e-01        00000 
 7.61285e-02  5.83595e-01        00000 
 6.81107e-02  6.34448e-01        00000 
 5.76542e-02  6.77345e-01        00000 
 4.33572e-02  7.20979e-01        00000 
 2.70474e-02  7.64621e-01        00000 
 9.83872e-03  8.08463e-01        00000 
-7.73238e-03  8.52654e-01        00000 
-2.22995e-02  2.00698e-02        00000 
-1.58577e-02  6.76513e-02        00000 
-9.54616e-03  1.15429e-01        00000 
-2.99482e-03  1.63340e-01        00000 
 3.83900e-03  2.10930e-01        00000 
 1.08833e-02  2.57849e-01        00000 
 2.01230e-02  3.04329e-01        00000 
 2.70507e-02  3.47946e-01        00000 
 3.61288e-02  3.91517e-01        00000 
 4.50106e-02  4.33277e-01        00000 
 5.37712e-02  4.75493e-01        00000 
 6.10571e-02  5.18758e-01        00000 
 6.36553e-02  5.67845e-01        00000 
 6.19100e-02  6.13604e-01        00000 
 5.42841e-02  6.60058e-01        00000 
 4.29481e-02  7.07102e-01        00000 
 2.84016e-02  7.54126e-01        00000 
 1.17975e-02  8.01189e-01        00000 
-5.41488e-03  8.48715e-01        00000 
-2.24134e-02  8.96108e-01        00000 
-3.85259e-02  1.96552e-02        00000 
-3.23645e-02  6.95190e-02        00000 
-2.60690e-02  1.20436e-01        00000 
-1.84719e-02  1.70924e-01        00000 
-1.00786e-02  2.20954e-01        00000 
-6.93523e-04  2.70150e-01        00000 
 9.81302e-03  3.18419e-01        00000 
 2.02701e-02  3.65160e-01        00000 
 3.06182e-02  4.10593e-01        00000 
 4.09403e-02  4.55902e-01        00000 
 4.86016e-02  5.00051e-01        00000 
 5.29775e-02  5.45564e-01        00000 
 5.30264e-02  5.92252e-01        00000 
 4.88053e-02  6.40021e-01        00000 
 3.98528e-02  6.88866e-01        00000 
 2.73020e-02  7.38313e-01        00000 
 1.20278e-02  7.88071e-01        00000 
-5.05099e-03  8.37841e-01        00000 
-2.32855e-02  8.87411e-01        00000 
-3.86590e-02  9.38560e-01        00000 
-5.52474e-02  1.68192e-02        00000 
-5.16889e-02  7.20987e-02        00000 
-4.43248e-02  1.24557e-01        00000 
-3.57934e-02  1.77077e-01        00000 
-2.58855e-02  2.29448e-01        00000 
-1.44901e-02  2.81301e-01        00000 
-1.76940e-03  3.32252e-01        00000 
 1.15100e-02  3.81931e-01        00000 
 2.41303e-02  4.30024e-01        00000 
 3.49921e-02  4.76996e-01        00000 
 4.24964e-02  5.23516e-01        00000 
 4.54584e-02  5.70491e-01        00000 
 4.31599e-02  6.18595e-01        00000 
 3.61557e-02  6.68280e-01        00000 
 2.51125e-02  7.19227e-01        00000 
 1.08633e-02  7.71075e-01        00000 
-5.57537e-03  8.23443e-01        00000 
-2.34177e-02  8.75962e-01        00000 
-4.21395e-02  9.28423e-01        00000 
-5.53821e-02  9.71096e-01        00000 
-3.96046e-02 -1.63834e-02        00000 
-4.17375e-02 -1.85277e-02        00000 
-3.47630e-02 -1.66786e-02        00000 
-2.58423e-02 -1.45120e-02        00000 
-1.55792e-02 -1.18172e-02        00000 
-3.97892e-03 -8.44454e-03        00000 
 8.58374e-03 -4.33595e-03        00000 
 2.13430e-02  4.30618e-04        00000 
 3.31307e-02  5.61778e-03        00000 
 4.24965e-02  1.09578e-02        00000 
 4.81499e-02  1.61994e-02        00000 
 4.90180e-02  2.09975e-02        00000 
 4.48398e-02  2.52763e-02        00000 
 3.61774e-02  2.89880e-02        00000 
 2.38444e-02  3.21260e-02        00000 
 8.77665e-03  3.48225e-02        00000 
-8.11625e-03  3.72534e-02        00000 
-2.55094e-02  3.95726e-02        00000 
-3.58327e-02  4.07470e-02        00000 
-3.28722e-02 -1.74358e-02        00000 
-2.88581e-02 -1.43016e-02        00000 
-2.36522e-02 -1.18876e-02        00000 
-1.59400e-02 -8.05537e-03        00000 
-6.72482e-03 -3.16823e-03        00000 
 3.91473e-03  2.82837e-03        00000 
 1.56059e-02  9.66061e-03        00000 
 2.80096e-02  1.73146e-02        00000 
 4.04573e-02  2.64651e-02        00000 
 5.02202e-02  3.43142e-02        00000 
 5.63363e-02  4.10188e-02        00000 
 5.78514e-02  4.73659e-02        00000 
 5.42520e-02  5.35332e-02        00000 
 4.60670e-02  5.92645e-02        00000 
 3.42324e-02  6.46284e-02        00000 
 1.95439e-02  6.96359e-02        00000 
 3.29640e-03  7.40803e-02        00000 
-1.26505e-02  7.74874e-02        00000 
-2.69911e-02  8.04618e-02        00000 
-2.49593e-02 -1.77068e-02        00000 
-1.96476e-02 -1.25685e-02        00000 
-1.42124e-02 -7.76664e-03        00000 
-7.73459e-03 -2.29148e-03        00000 
 1.25890e-04  4.54330e-03        00000 
 9.95273e-03  1.32945e-02        00000 
 2.12062e-02  2.37397e-02        00000 
 3.27406e-02  3.36759e-02        00000 
 4.56977e-02  4.46472e-02        00000 
 5.72440e-02  5.53269e-02        00000 
 6.49106e-02  6.49197e-02        00000 
 6.72681e-02  7.37631e-02        00000 
 6.39742e-02  8.30297e-02        00000 
 5.55116e-02  8.91628e-02        00000 
 4.39860e-02  9.80998e-02        00000 
 2.94169e-02  1.05382e-01        00000 
 1.36065e-02  1.11900e-01        00000 
-2.45813e-03  1.17551e-01        00000 
-1.87810e-02  1.23050e-01        00000 
-1.71762e-02 -1.71053e-02        00000 
-1.16045e-02 -1.08486e-02        00000 
-6.46434e-03 -4.59660e-03        00000 
-1.15573e-03  2.21764e-03        00000 
 5.83884e-03  1.12047e-02        00000 
 1.31065e-02  2.07821e-02        00000 
 2.30905e-02  3.26797e-02        00000 
 3.54542e-02  4.57068e-02        00000 
 4.98558e-02  6.11325e-02        00000 
 6.31541e-02  7.53930e-02        00000 
 7.27669e-02  8.82607e-02        00000 
 7.61407e-02  1.00250e-01        00000 
 7.32485e-02  1.11094e-01        00000 
 6.45069e-02  1.22097e-01        00000 
 5.30332e-02  1.33068e-01        00000 
 3.81196e-02  1.43108e-01        00000 
 2.24053e-02  1.52020e-01        00000 
 6.13919e-03  1.59937e-01        00000 
-1.07731e-02  1.67074e-01        00000 
-9.56613e-03 -1.57970e-02        00000 
-4.09782e-03 -8.78087e-03        00000 
 4.72518e-04 -1.76335e-03        00000 
 5.29503e-03  6.36031e-03        00000 
 8.95638e-03  1.45570e-02        00000 
 1.42988e-02  2.49730e-02        00000 
 2.32096e-02  3.93784e-02        00000 
 3.55819e-02  5.76877e-02        00000 
 5.18709e-02  7.78396e-02        00000 
 6.92046e-02  9.70514e-02        00000 
 8.19672e-02  1.13770e-01        00000 
 8.66453e-02  1.28119e-01        00000 
 8.23467e-02  1.42575e-01        00000 
 7.28748e-02  1.57302e-01        00000 
 6.02363e-02  1.71134e-01        00000 
 4.55640e-02  1.83573e-01        00000 
 2.97829e-02  1.95104e-01        00000 
 1.37238e-02  2.04995e-01        00000 
-3.19143e-03  2.13535e-01        00000 
-2.00401e-03 -1.35949e-02        00000 
 3.33662e-03 -6.00558e-03        00000 