<?xml version="1.0" encoding="utf-8"?>
<VTKFile byte_order="LittleEndian" type="UnstructuredGrid" version="0.1">
   <UnstructuredGrid>
      <Piece NumberOfCells="1444" NumberOfPoints="761">
         <Points>
            <DataArray Name="Points" NumberOfComponents="3" format="ascii" type="Float32">
-1.0000 -1.0000 0.0000
-1.0000 -0.8947 0.0000
-1.0000 -0.7895 0.0000
-1.0000 -0.6842 0.0000
-1.0000 -0.5789 0.0000
-1.0000 -0.4737 0.0000
-1.0000 -0.3684 0.0000
-1.0000 -0.2632 0.0000
-1.0000 -0.1579 0.0000
-1.0000 -0.0526 0.0000
-1.0000 0.0526 0.0000
-1.0000 0.1579 0.0000
-1.0000 0.2632 0.0000
-1.0000 0.3684 0.0000
-1.0000 0.4737 0.0000
-1.0000 0.5789 0.0000
-1.0000 0.6842 0.0000
-1.0000 0.7895 0.0000
-1.0000 0.8947 0.0000
-1.0000 1.0000 0.0000
-0.8947 -1.0000 0.0000
-0.8947 -0.8947 0.0000
-0.8947 -0.7895 0.0000
-0.8947 -0.6842 0.0000
-0.8947 -0.5789 0.0000
-0.8947 -0.4737 0.0000
-0.8947 -0.3684 0.0000
-0.8947 -0.2632 0.0000
-0.8947 -0.1579 0.0000
-0.8947 -0.0526 0.0000
-0.8947 0.0526 0.0000
-0.8947 0.1579 0.0000
-0.8947 0.2632 0.0000
-0.8947 0.3684 0.0000
-0.8947 0.4737 0.0000
-0.8947 0.5789 0.0000
-0.8947 0.6842 0.0000
-0.8947 0.7895 0.0000
-0.8947 0.8947 0.0000
-0.8947 1.0000 0.0000
-0.7895 -1.0000 0.0000
-0.7895 -0.8947 0.0000
-0.7895 -0.7895 0.0000
-0.7895 -0.6842 0.0000
-0.7895 -0.5789 0.0000
-0.7895 -0.4737 0.0000
-0.7895 -0.3684 0.0000
-0.7895 -0.2632 0.0000
-0.7895 -0.1579 0.0000
-0.7895 -0.0526 0.0000
-0.7895 0.0526 0.0000
-0.7895 0.1579 0.0000
-0.7895 0.2632 0.0000
-0.7895 0.3684 0.0000
-0.7895 0.4737 0.0000
-0.7895 0.5789 0.0000
-0.7895 0.6842 0.0000
-0.7895 0.7895 0.0000
-0.7895 0.8947 0.0000
-0.7895 1.0000 0.0000
-0.6842 -1.0000 0.0000
-0.6842 -0.8947 0.0000
-0.6842 -0.7895 0.0000
-0.6842 -0.6842 0.0000
-0.6842 -0.5789 0.0000
-0.6842 -0.4737 0.0000
-0.6842 -0.3684 0.0000
-0.6842 -0.2632 0.0000
-0.6842 -0.1579 0.0000
-0.6842 -0.0526 0.0000
-0.6842 0.0526 0.0000
-0.6842 0.1579 0.0000
-0.6842 0.2632 0.0000
-0.6842 0.3684 0.0000
-0.6842 0.4737 0.0000
-0.6842 0.5789 0.0000
-0.6842 0.6842 0.0000
-0.6842 0.7895 0.0000
-0.6842 0.8947 0.0000
-0.6842 1.0000 0.0000
-0.5789 -1.0000 0.0000
-0.5789 -0.8947 0.0000
-0.5789 -0.7895 0.0000
-0.5789 -0.6842 0.0000
-0.5789 -0.5789 0.0000
-0.5789 -0.4737 0.0000
-0.5789 -0.3684 0.0000
-0.5789 -0.2632 0.0000
-0.5789 -0.1579 0.0000
-0.5789 -0.0526 0.0000
-0.5789 0.0526 0.0000
-0.5789 0.1579 0.0000
-0.5789 0.2632 0.0000
-0.5789 0.3684 0.0000
-0.5789 0.4737 0.0000
-0.5789 0.5789 0.0000
-0.5789 0.6842 0.0000
-0.5789 0.7895 0.0000
-0.5789 0.8947 0.0000
-0.5789 1.0000 0.0000
-0.4737 -1.0000 0.0000
-0.4737 -0.8947 0.0000
-0.4737 -0.7895 0.0000
-0.4737 -0.6842 0.0000
-0.4737 -0.5789 0.0000
-0.4737 -0.4737 0.0000
-0.4737 -0.3684 0.0000
-0.4737 -0.2632 0.0000
-0.4737 -0.1579 0.0000
-0.4737 -0.0526 0.0000
-0.4737 0.0526 0.0000
-0.4737 0.1579 0.0000
-0.4737 0.2632 0.0000
-0.4737 0.3684 0.0000
-0.4737 0.4737 0.0000
-0.4737 0.5789 0.0000
-0.4737 0.6842 0.0000
-0.4737 0.7895 0.0000
-0.4737 0.8947 0.0000
-0.4737 1.0000 0.0000
-0.3684 -1.0000 0.0000
-0.3684 -0.8947 0.0000
-0.3684 -0.7895 0.0000
-0.3684 -0.6842 0.0000
-0.3684 -0.5789 0.0000
-0.3684 -0.4737 0.0000
-0.3684 -0.3684 0.0000
-0.3684 -0.2632 0.0000
-0.3684 -0.1579 0.0000
-0.3684 -0.0526 0.0000
-0.3684 0.0526 0.0000
-0.3684 0.1579 0.0000
-0.3684 0.2632 0.0000
-0.3684 0.3684 0.0000
-0.3684 0.4737 0.0000
-0.3684 0.5789 0.0000
-0.3684 0.6842 0.0000
-0.3684 0.7895 0.0000
-0.3684 0.8947 0.0000
-0.3684 1.0000 0.0000
-0.2632 -1.0000 0.0000
-0.2632 -0.8947 0.0000
-0.2632 -0.7895 0.0000
-0.2632 -0.6842 0.0000
-0.2632 -0.5789 0.0000
-0.2632 -0.4737 0.0000
-0.2632 -0.3684 0.0000
-0.2632 -0.2632 0.0000
-0.2632 -0.1579 0.0000
-0.2632 -0.0526 0.0000
-0.2632 0.0526 0.0000
-0.2632 0.1579 0.0000
-0.2632 0.2632 0.0000
-0.2632 0.3684 0.0000
-0.2632 0.4737 0.0000
-0.2632 0.5789 0.0000
-0.2632 0.6842 0.0000
-0.2632 0.7895 0.0000
-0.2632 0.8947 0.0000
-0.2632 1.0000 0.0000
-0.1579 -1.0000 0.0000
-0.1579 -0.8947 0.0000
-0.1579 -0.7895 0.0000
-0.1579 -0.6842 0.0000
-0.1579 -0.5789 0.0000
-0.1579 -0.4737 0.0000
-0.1579 -0.3684 0.0000
-0.1579 -0.2632 0.0000
-0.1579 -0.1579 0.0000
-0.1579 -0.0526 0.0000
-0.1579 0.0526 0.0000
-0.1579 0.1579 0.0000
-0.1579 0.2632 0.0000
-0.1579 0.3684 0.0000
-0.1579 0.4737 0.0000
-0.1579 0.5789 0.0000
-0.1579 0.6842 0.0000
-0.1579 0.7895 0.0000
-0.1579 0.8947 0.0000
-0.1579 1.0000 0.0000
-0.0526 -1.0000 0.0000
-0.0526 -0.8947 0.0000
-0.0526 -0.7895 0.0000
-0.0526 -0.6842 0.0000
-0.0526 -0.5789 0.0000
-0.0526 -0.4737 0.0000
-0.0526 -0.3684 0.0000
-0.0526 -0.2632 0.0000
-0.0526 -0.1579 0.0000
-0.0526 -0.0526 0.0000
-0.0526 0.0526 0.0000
-0.0526 0.1579 0.0000
-0.0526 0.2632 0.0000
-0.0526 0.3684 0.0000
-0.0526 0.4737 0.0000
-0.0526 0.5789 0.0000
-0.0526 0.6842 0.0000
-0.0526 0.7895 0.0000
-0.0526 0.8947 0.0000
-0.0526 1.0000 0.0000
0.0526 -1.0000 0.0000
0.0526 -0.8947 0.0000
0.0526 -0.7895 0.0000
0.0526 -0.6842 0.0000
0.0526 -0.5789 0.0000
0.0526 -0.4737 0.0000
0.0526 -0.3684 0.0000
0.0526 -0.2632 0.0000
0.0526 -0.1579 0.0000
0.0526 -0.0526 0.0000
0.0526 0.0526 0.0000
0.0526 0.1579 0.0000
0.0526 0.2632 0.0000
0.0526 0.3684 0.0000
0.0526 0.4737 0.0000
0.0526 0.5789 0.0000
0.0526 0.6842 0.0000
0.0526 0.7895 0.0000
0.0526 0.8947 0.0000
0.0526 1.0000 0.0000
0.1579 -1.0000 0.0000
0.1579 -0.8947 0.0000
0.1579 -0.7895 0.0000
0.1579 -0.6842 0.0000
0.1579 -0.5789 0.0000
0.1579 -0.4737 0.0000
0.1579 -0.3684 0.0000
0.1579 -0.2632 0.0000
0.1579 -0.1579 0.0000
0.1579 -0.0526 0.0000
0.1579 0.0526 0.0000
0.1579 0.1579 0.0000
0.1579 0.2632 0.0000
0.1579 0.3684 0.0000
0.1579 0.4737 0.0000
0.1579 0.5789 0.0000
0.1579 0.6842 0.0000
0.1579 0.7895 0.0000
0.1579 0.8947 0.0000
0.1579 1.0000 0.0000
0.2632 -1.0000 0.0000
0.2632 -0.8947 0.0000
0.2632 -0.7895 0.0000
0.2632 -0.6842 0.0000
0.2632 -0.5789 0.0000
0.2632 -0.4737 0.0000
0.2632 -0.3684 0.0000
0.2632 -0.2632 0.0000
0.2632 -0.1579 0.0000
0.2632 -0.0526 0.0000
0.2632 0.0526 0.0000
0.2632 0.1579 0.0000
0.2632 0.2632 0.0000
0.2632 0.3684 0.0000
0.2632 0.4737 0.0000
0.2632 0.5789 0.0000
0.2632 0.6842 0.0000
0.2632 0.7895 0.0000
0.2632 0.8947 0.0000
0.2632 1.0000 0.0000
0.3684 -1.0000 0.0000
0.3684 -0.8947 0.0000
0.3684 -0.7895 0.0000
0.3684 -0.6842 0.0000
0.3684 -0.5789 0.0000
0.3684 -0.4737 0.0000
0.3684 -0.3684 0.0000
0.3684 -0.2632 0.0000
0.3684 -0.1579 0.0000
0.3684 -0.0526 0.0000
0.3684 0.0526 0.0000
0.3684 0.1579 0.0000
0.3684 0.2632 0.0000
0.3684 0.3684 0.0000
0.3684 0.4737 0.0000
0.3684 0.5789 0.0000
0.3684 0.6842 0.0000
0.3684 0.7895 0.0000
0.3684 0.8947 0.0000
0.3684 1.0000 0.0000
0.4737 -1.0000 0.0000
0.4737 -0.8947 0.0000
0.4737 -0.7895 0.0000
0.4737 -0.6842 0.0000
0.4737 -0.5789 0.0000
0.4737 -0.4737 0.0000
0.4737 -0.3684 0.0000
0.4737 -0.2632 0.0000
0.4737 -0.1579 0.0000
0.4737 -0.0526 0.0000
0.4737 0.0526 0.0000
0.4737 0.1579 0.0000
0.4737 0.2632 0.0000
0.4737 0.3684 0.0000
0.4737 0.4737 0.0000
0.4737 0.5789 0.0000
0.4737 0.6842 0.0000
0.4737 0.7895 0.0000
0.4737 0.8947 0.0000
0.4737 1.0000 0.0000
0.5789 -1.0000 0.0000
0.5789 -0.8947 0.0000
0.5789 -0.7895 0.0000
0.5789 -0.6842 0.0000
0.5789 -0.5789 0.0000
0.5789 -0.4737 0.0000
0.5789 -0.3684 0.0000
0.5789 -0.2632 0.0000
0.5789 -0.1579 0.0000
0.5789 -0.0526 0.0000
0.5789 0.0526 0.0000
0.5789 0.1579 0.0000
0.5789 0.2632 0.0000
0.5789 0.3684 0.0000
0.5789 0.4737 0.0000
0.5789 0.5789 0.0000
0.5789 0.6842 0.0000
0.5789 0.7895 0.0000
0.5789 0.8947 0.0000
0.5789 1.0000 0.0000
0.6842 -1.0000 0.0000
0.6842 -0.8947 0.0000
0.6842 -0.7895 0.0000
0.6842 -0.6842 0.0000
0.6842 -0.5789 0.0000
0.6842 -0.4737 0.0000
0.6842 -0.3684 0.0000
0.6842 -0.2632 0.0000
0.6842 -0.1579 0.0000
0.6842 -0.0526 0.0000
0.6842 0.0526 0.0000
0.6842 0.1579 0.0000
0.6842 0.2632 0.0000
0.6842 0.3684 0.0000
0.6842 0.4737 0.0000
0.6842 0.5789 0.0000
0.6842 0.6842 0.0000
0.6842 0.7895 0.0000
0.6842 0.8947 0.0000
0.6842 1.0000 0.0000
0.7895 -1.0000 0.0000
0.7895 -0.8947 0.0000
0.7895 -0.7895 0.0000
0.7895 -0.6842 0.0000
0.7895 -0.5789 0.0000
0.7895 -0.4737 0.0000
0.7895 -0.3684 0.0000
0.7895 -0.2632 0.0000
0.7895 -0.1579 0.0000
0.7895 -0.0526 0.0000
0.7895 0.0526 0.0000
0.7895 0.1579 0.0000
0.7895 0.2632 0.0000
0.7895 0.3684 0.0000
0.7895 0.4737 0.0000
0.7895 0.5789 0.0000
0.7895 0.6842 0.0000
0.7895 0.7895 0.0000
0.7895 0.8947 0.0000
0.7895 1.0000 0.0000
0.8947 -1.0000 0.0000
0.8947 -0.8947 0.0000
0.8947 -0.7895 0.0000
0.8947 -0.6842 0.0000
0.8947 -0.5789 0.0000
0.8947 -0.4737 0.0000
0.8947 -0.3684 0.0000
0.8947 -0.2632 0.0000
0.8947 -0.1579 0.0000
0.8947 -0.0526 0.0000
0.8947 0.0526 0.0000
0.8947 0.1579 0.0000
0.8947 0.2632 0.0000
0.8947 0.3684 0.0000
0.8947 0.4737 0.0000
0.8947 0.5789 0.0000
0.8947 0.6842 0.0000
0.8947 0.7895 0.0000
0.8947 0.8947 0.0000
0.8947 1.0000 0.0000
1.0000 -1.0000 0.0000
1.0000 -0.8947 0.0000
1.0000 -0.7895 0.0000
1.0000 -0.6842 0.0000
1.0000 -0.5789 0.0000
1.0000 -0.4737 0.0000
1.0000 -0.3684 0.0000
1.0000 -0.2632 0.0000
1.0000 -0.1579 0.0000
1.0000 -0.0526 0.0000
1.0000 0.0526 0.0000
1.0000 0.1579 0.0000
1.0000 0.2632 0.0000
1.0000 0.3684 0.0000
1.0000 0.4737 0.0000
1.0000 0.5789 0.0000
1.0000 0.6842 0.0000
1.0000 0.7895 0.0000
1.0000 0.8947 0.0000
1.0000 1.0000 0.0000
-0.9474 -0.9474 0.0000
-0.9474 -0.8421 0.0000
-0.9474 -0.7368 0.0000
-0.9474 -0.6316 0.0000
-0.9474 -0.5263 0.0000
-0.9474 -0.4211 0.0000
-0.9474 -0.3158 0.0000
-0.9474 -0.2105 0.0000
-0.9474 -0.1053 0.0000
-0.9474 0.0000 0.0000
-0.9474 0.1053 0.0000
-0.9474 0.2105 0.0000
-0.9474 0.3158 0.0000
-0.9474 0.4211 0.0000
-0.9474 0.5263 0.0000
-0.9474 0.6316 0.0000
-0.9474 0.7368 0.0000
-0.9474 0.8421 0.0000
-0.9474 0.9474 0.0000
-0.8421 -0.9474 0.0000
-0.8421 -0.8421 0.0000
-0.8421 -0.7368 0.0000
-0.8421 -0.6316 0.0000
-0.8421 -0.5263 0.0000
-0.8421 -0.4211 0.0000
-0.8421 -0.3158 0.0000
-0.8421 -0.2105 0.0000
-0.8421 -0.1053 0.0000
-0.8421 0.0000 0.0000
-0.8421 0.1053 0.0000
-0.8421 0.2105 0.0000
-0.8421 0.3158 0.0000
-0.8421 0.4211 0.0000
-0.8421 0.5263 0.0000
-0.8421 0.6316 0.0000
-0.8421 0.7368 0.0000
-0.8421 0.8421 0.0000
-0.8421 0.9474 0.0000
-0.7368 -0.9474 0.0000
-0.7368 -0.8421 0.0000
[...]
         <PointData>
            <DataArray Name="fValues" NumberOfComponents="3" format="ascii" type="Float64">
 5.48088e-02  4.11740e-02        00000 
 3.66712e-02  1.48885e-02        00000 
 2.04815e-02  1.22935e-02        00000 
 2.03133e-03  1.56664e-02        00000 
-1.67693e-02  1.73809e-02        00000 
-2.87831e-02  1.56816e-02        00000 
-4.07705e-02  1.43892e-02        00000 
-4.65669e-02  1.31268e-02        00000 
-4.48073e-02  7.31971e-03        00000 
-3.99458e-02 -2.21444e-03        00000 
-3.29328e-02 -1.27002e-04        00000 
-2.13743e-02 -8.92031e-04        00000 
-1.08735e-02 -5.31059e-03        00000 
 4.23632e-03 -1.07216e-02        00000 
 1.68324e-02 -1.48831e-02        00000 
 2.53962e-02 -1.33679e-02        00000 
 3.88971e-02 -1.74133e-02        00000 
 4.73799e-02 -2.32839e-02        00000 
 5.28082e-02 -2.01391e-02        00000 
 5.06146e-02 -1.12523e-02        00000 
 4.49816e-02  6.60267e-02        00000 
 2.79666e-02  5.77344e-02        00000 
 1.26536e-02  5.37829e-02        00000 
-8.14426e-03  4.89722e-02        00000 
-2.44195e-02  4.48034e-02        00000 
-3.67082e-02  4.40323e-02        00000 
-4.88224e-02  4.42899e-02        00000 
-5.39509e-02  4.12891e-02        00000 
-5.26814e-02  3.43818e-02        00000 
-4.88725e-02  2.31331e-02        00000 
-3.80495e-02  1.77089e-02        00000 
-2.90443e-02  1.76100e-02        00000 
-1.55151e-02  8.50211e-03        00000 
 2.46090e-04 -2.00772e-03        00000 
 8.91985e-03 -6.90336e-03        00000 
 1.76025e-02 -1.16472e-02        00000 
 2.35062e-02 -1.46562e-02        00000 
 3.31071e-02 -1.52245e-02        00000 
 3.96406e-02 -1.33492e-02        00000 
 4.56199e-02 -2.15912e-02        00000 
 3.91459e-02  1.01267e-01        00000 
 1.71295e-02  9.78286e-02        00000 
 3.22520e-03  9.49640e-02        00000 
-1.89661e-02  8.65817e-02        00000 
-3.50463e-02  8.25064e-02        00000 
-4.75998e-02  7.96183e-02        00000 
-6.04604e-02  7.50802e-02        00000 
-6.32315e-02  6.62206e-02        00000 
-6.32274e-02  5.76472e-02        00000 
-5.73366e-02  4.75569e-02        00000 
-4.36858e-02  3.76045e-02        00000 
-3.15373e-02  3.12607e-02        00000 
-2.27824e-02  2.25737e-02        00000 
-1.04690e-02  1.20251e-02        00000 
-9.72675e-04  2.31106e-03        00000 
 3.58515e-03 -4.17300e-03        00000 
 1.00493e-02 -7.20515e-03        00000 
 1.76828e-02 -9.23048e-03        00000 
 2.21705e-02 -1.16504e-02        00000 
 3.51343e-02 -2.42745e-02        00000 
 2.96571e-02  1.45304e-01        00000 
 5.06705e-03  1.40462e-01        00000 
-9.86743e-03  1.31351e-01        00000 
-2.75894e-02  1.21066e-01        00000 
-4.45922e-02  1.14490e-01        00000 
-5.70967e-02  1.11658e-01        00000 
-6.74068e-02  1.08526e-01        00000 
-7.07983e-02  9.74466e-02        00000 
-7.00071e-02  8.56181e-02        00000 
-6.15336e-02  7.21109e-02        00000 
-4.99598e-02  5.86541e-02        00000 
-3.61881e-02  4.91227e-02        00000 
-2.41113e-02  3.65545e-02        00000 
-1.29073e-02  2.19164e-02        00000 
-5.99257e-03  1.15197e-02        00000 
-1.43145e-03  3.72329e-03        00000 
 4.72642e-03 -9.06089e-06        00000 
 8.33361e-03 -4.66330e-03        00000 
 1.29337e-02 -1.50049e-02        00000 
 2.23801e-02 -1.78203e-02        00000 
 1.36052e-02  1.92566e-01        00000 
-3.96902e-03  1.84049e-01        00000 
-2.02101e-02  1.75904e-01        00000 
-3.64983e-02  1.60873e-01        00000 
-5.31185e-02  1.52792e-01        00000 
-6.44424e-02  1.45407e-01        00000 
-7.39542e-02  1.38971e-01        00000 
-8.07011e-02  1.28619e-01        00000 
-8.13176e-02  1.09366e-01        00000 
-7.19605e-02  9.13759e-02        00000 
-5.65538e-02  7.59555e-02        00000 
-3.92990e-02  6.35069e-02        00000 
-2.43604e-02  4.27115e-02        00000 
-1.47274e-02  2.87349e-02        00000 
-7.56689e-03  1.59425e-02        00000 
-4.23502e-03  6.49345e-03        00000 
-9.64950e-04 -1.27664e-04        00000 
 6.09157e-04 -7.51807e-03        00000 
 6.87627e-03 -1.52659e-02        00000 
 1.53395e-02 -2.06521e-02        00000 
 7.61648e-03  2.40893e-01        00000 
-1.04597e-02  2.35434e-01        00000 
-2.49636e-02  2.24621e-01        00000 
-4.32697e-02  2.08894e-01        00000 
-6.11785e-02  2.00041e-01        00000 
-7.22440e-02  1.84875e-01        00000 
-8.32945e-02  1.73015e-01        00000 
-9.19838e-02  1.55330e-01        00000 
-9.06441e-02  1.31285e-01        00000 
-7.89083e-02  1.08803e-01        00000 
-6.01588e-02  8.92424e-02        00000 
-3.94672e-02  6.63938e-02        00000 
-2.31194e-02  4.64581e-02        00000 
-1.58048e-02  3.10679e-02        00000 
-1.04363e-02  2.15257e-02        00000 
-7.83744e-03  9.89359e-03        00000 
-9.25502e-03  3.97446e-03        00000 
-2.90458e-03 -4.18759e-03        00000 
 4.03281e-03 -1.69672e-02        00000 
 1.09848e-02 -2.22424e-02        00000 
 1.83091e-03  2.93530e-01        00000 
-1.56876e-02  2.89374e-01        00000 
-3.14975e-02  2.75808e-01        00000 
-4.65801e-02  2.61273e-01        00000 
-6.32586e-02  2.48772e-01        00000 
-7.83832e-02  2.29875e-01        00000 
-9.26875e-02  2.11479e-01        00000 
-1.02654e-01  1.91770e-01        00000 
-9.60311e-02  1.55482e-01        00000 
-7.93983e-02  1.15755e-01        00000 
-5.41436e-02  8.27492e-02        00000 
-3.33680e-02  6.16253e-02        00000 
-2.07337e-02  4.37407e-02        00000 
-1.38750e-02  3.29861e-02        00000 
-1.47211e-02  2.70410e-02        00000 
-1.65313e-02  1.68348e-02        00000 
-1.49500e-02  8.04287e-03        00000 
-8.49012e-03 -1.04745e-04        00000 
-1.89715e-03 -1.31277e-02        00000 
 2.66346e-04 -1.62129e-02        00000 
-7.30490e-03  3.51295e-01        00000 
-2.21911e-02  3.42182e-01        00000 
-3.85635e-02  3.26904e-01        00000 
-5.08418e-02  3.12141e-01        00000 
-6.55741e-02  2.98850e-01        00000 
-8.16683e-02  2.82925e-01        00000 
-9.77117e-02  2.63317e-01        00000 
-1.09425e-01  2.37821e-01        00000 
-1.03723e-01  1.93675e-01        00000 
-8.06011e-02  1.39444e-01        00000 
-5.12132e-02  8.80023e-02        00000 
-2.86190e-02  5.29932e-02        00000 
-1.69030e-02  3.50599e-02        00000 
-1.49811e-02  2.89010e-02        00000 
-2.35169e-02  3.05357e-02        00000 
-2.31118e-02  2.02109e-02        00000 
-2.22334e-02  1.06394e-02        00000 
-1.91129e-02  2.45258e-03        00000 
-1.38953e-02 -9.27473e-03        00000 
-7.99678e-03 -7.94980e-03        00000 
-1.62278e-02  4.07793e-01        00000 
-3.06046e-02  3.97555e-01        00000 
-4.45278e-02  3.81262e-01        00000 
-5.62953e-02  3.66161e-01        00000 
-6.47045e-02  3.52983e-01        00000 
-8.29161e-02  3.38693e-01        00000 
-1.08233e-01  3.32816e-01        00000 
-1.25257e-01  3.07199e-01        00000 
-1.12170e-01  2.56403e-01        00000 
-8.46279e-02  1.90553e-01        00000 
-5.78535e-02  1.24262e-01        00000 
-3.14964e-02  7.08364e-02        00000 
-1.56466e-02  3.89919e-02        00000 
-1.72188e-02  3.26633e-02        00000 
-2.68854e-02  3.75170e-02        00000 
-2.93798e-02  2.87892e-02        00000 
-2.96180e-02  1.90205e-02        00000 
-2.81847e-02  1.09700e-02        00000 
-2.35271e-02 -7.21271e-04        00000 
-1.38521e-02 -8.13231e-03        00000 
-2.22014e-02  4.73651e-01        00000 
-3.55292e-02  4.54917e-01        00000 
-4.76063e-02  4.37919e-01        00000 
-5.95181e-02  4.20380e-01        00000 
-7.30231e-02  4.09238e-01        00000 
-9.08739e-02  4.03315e-01        00000 
-1.17585e-01  4.00192e-01        00000 
-1.37244e-01  3.82953e-01        00000 
-1.23748e-01  3.32370e-01        00000 
-9.38952e-02  2.52829e-01        00000 
-7.01984e-02  1.78092e-01        00000 
-3.90464e-02  1.13542e-01        00000 
-1.82022e-02  6.21210e-02        00000 
-2.27020e-02  5.15074e-02        00000 
-3.32282e-02  5.09582e-02        00000 
-3.69349e-02  4.29769e-02        00000 
-3.84446e-02  3.42519e-02        00000 
-3.46069e-02  2.17378e-02        00000 
-3.01296e-02  8.19818e-03        00000 
-2.03495e-02 -6.81869e-03        00000 
-2.34957e-02  5.33378e-01        00000 
-3.91915e-02  5.17081e-01        00000 
-5.20787e-02  4.98405e-01        00000 
-6.69941e-02  4.77793e-01        00000 
-8.20393e-02  4.65899e-01        00000 
-9.92876e-02  4.58822e-01        00000 
-1.24586e-01  4.58979e-01        00000 
-1.41934e-01  4.49857e-01        00000 
-1.29172e-01  3.94374e-01        00000 
-1.01219e-01  3.17459e-01        00000 
-7.00597e-02  2.36846e-01        00000 
-4.54147e-02  1.63141e-01        00000 
-2.83898e-02  1.05425e-01        00000 
-3.03382e-02  8.31040e-02        00000 
-4.03016e-02  7.74957e-02        00000 
-4.43141e-02  6.53513e-02        00000 
-4.18368e-02  4.84201e-02        00000 
-3.73904e-02  3.43799e-02        00000 
-3.33779e-02  1.99865e-02        00000 
-2.42323e-02  6.68500e-04        00000 
-2.77682e-02  5.94532e-01        00000 
-4.19172e-02  5.70943e-01        00000 
-5.51767e-02  5.49510e-01        00000 
-6.94263e-02  5.29710e-01        00000 
-8.80428e-02  5.17423e-01        00000 
-1.03702e-01  5.01453e-01        00000 
-1.25685e-01  4.96767e-01        00000 
-1.40455e-01  4.91633e-01        00000 
-1.24889e-01  4.51917e-01        00000 
-9.78663e-02  3.76059e-01        00000 
-6.95418e-02  2.92000e-01        00000 
-5.40502e-02  2.22184e-01        00000 
-3.26297e-02  1.56563e-01        00000 
-3.36956e-02  1.26197e-01        00000 
-4.10486e-02  1.10029e-01        00000 
-4.45981e-02  9.19009e-02        00000 
-4.31576e-02  6.72722e-02        00000 
-3.87000e-02  5.02348e-02        00000 
-3.39016e-02  2.90167e-02        00000 
-2.48793e-02  7.14669e-03        00000 
-2.60123e-02  6.53842e-01        00000 
-4.29075e-02  6.25229e-01        00000 
-5.61917e-02  5.97594e-01        00000 
-7.07772e-02  5.76105e-01        00000 
-8.91630e-02  5.57694e-01        00000 
-1.05215e-01  5.37636e-01        00000 
-1.23710e-01  5.19277e-01        00000 
-1.28805e-01  5.05850e-01        00000 
-1.16186e-01  4.79959e-01        00000 
-9.35383e-02  4.24757e-01        00000 
-7.41387e-02  3.48015e-01        00000 
-5.13574e-02  2.68207e-01        00000 
-3.84697e-02  2.11217e-01        00000 
-3.84686e-02  1.71541e-01        00000 
-4.37981e-02  1.49457e-01        00000 
-4.58191e-02  1.23575e-01        00000 
-4.28863e-02  9.04909e-02        00000 
-3.48417e-02  6.42642e-02        00000 
-3.09473e-02  3.82481e-02        00000 
-2.28298e-02  9.88679e-03        00000 
-2.16694e-02  7.05768e-01        00000 
-3.87232e-02  6.71691e-01        00000 
-5.41611e-02  6.42727e-01        00000 
-6.96218e-02  6.16868e-01        00000 
-8.81268e-02  5.89243e-01        00000 
-1.04013e-01  5.60596e-01        00000 
-1.14708e-01  5.31957e-01        00000 
-1.12058e-01  5.05447e-01        00000 
-1.02887e-01  4.75588e-01        00000 
-8.57392e-02  4.28551e-01        00000 
-7.00581e-02  3.69042e-01        00000 
-5.10488e-02  3.04671e-01        00000 
-4.13322e-02  2.51783e-01        00000 
-4.16496e-02  2.14380e-01        00000 
-4.30882e-02  1.80315e-01        00000 
-4.40022e-02  1.47801e-01        00000 
-3.89456e-02  1.07762e-01        00000 
-3.25728e-02  8.00331e-02        00000 
-2.55342e-02  5.28888e-02        00000 
-2.41639e-02  1.71493e-02        00000 
-1.67657e-02  7.56989e-01        00000 
-3.43456e-02  7.20352e-01        00000 
-4.73335e-02  6.80746e-01        00000 
-6.47753e-02  6.52430e-01        00000 
-8.33989e-02  6.20838e-01        00000 
-9.42905e-02  5.81681e-01        00000 
-1.00706e-01  5.46730e-01        00000 
-9.82132e-02  5.07401e-01        00000 
-9.01454e-02  4.72128e-01        00000 
-7.68470e-02  4.27087e-01        00000 
-6.23021e-02  3.77608e-01        00000 
-4.71183e-02  3.31138e-01        00000 
-3.88611e-02  2.84635e-01        00000 
-3.70267e-02  2.45447e-01        00000 
-3.84752e-02  2.04573e-01        00000 
-4.00249e-02  1.68785e-01        00000 
-3.48784e-02  1.25216e-01        00000 
-2.79238e-02  9.36415e-02        00000 
-2.08450e-02  5.75726e-02        00000 
-2.11775e-02  1.98541e-02        00000 
-4.69418e-03  8.10282e-01        00000 
-2.20544e-02  7.61127e-01        00000 
-3.69856e-02  7.20128e-01        00000 
-5.72922e-02  6.88019e-01        00000 
-7.10989e-02  6.48135e-01        00000 
-7.75948e-02  6.04366e-01        00000 
-8.35145e-02  5.61465e-01        00000 
-8.41151e-02  5.20179e-01        00000 
-7.83460e-02  4.76927e-01        00000 
-7.19414e-02  4.39598e-01        00000 
-5.77969e-02  3.93249e-01        00000 
-4.52020e-02  3.51050e-01        00000 
-3.54503e-02  3.10194e-01        00000 
-3.30549e-02  2.73586e-01        00000 
-3.30287e-02  2.32247e-01        00000 
-2.83387e-02  1.84751e-01        00000 
-2.40433e-02  1.42574e-01        00000 
-1.92377e-02  1.02848e-01        00000 
-1.39061e-02  6.34702e-02        00000 
-7.43083e-03  1.90877e-02        00000 
 1.26809e-02  8.48969e-01        00000 
-4.39305e-03  7.99376e-01        00000 
-2.23531e-02  7.56359e-01        00000 
-3.91238e-02  7.17307e-01        00000 
-5.50013e-02  6.70730e-01        00000 
-6.54364e-02  6.25888e-01        00000 
-7.23149e-02  5.83018e-01        00000 
-7.07059e-02  5.40481e-01        00000 
-6.49853e-02  4.96914e-01        00000 
-5.74012e-02  4.55094e-01        00000 
-4.88093e-02  4.11024e-01        00000 
-3.97097e-02  3.67042e-01        00000 
-3.08843e-02  3.26261e-01        00000 
-2.68869e-02  2.88024e-01        00000 
-2.34424e-02  2.43938e-01        00000 
-1.54944e-02  1.99966e-01        00000 
-1.13248e-02  1.53887e-01        00000 
-6.80290e-03  1.08997e-01        00000 
-2.65538e-03  6.80120e-02        00000 
 5.74946e-03  2.05089e-02        00000 
 2.18683e-02  8.92994e-01        00000 
 9.29243e-03  8.42686e-01        00000 
-1.00445e-02  7.96650e-01        00000 
-2.49432e-02  7.48422e-01        00000 
-3.77423e-02  7.02501e-01        00000 
-5.21361e-02  6.58412e-01        00000 
-6.15328e-02  6.11908e-01        00000 
-6.12927e-02  5.66670e-01        00000 
-5.62436e-02  5.16411e-01        00000 
-4.95511e-02  4.76865e-01        00000 
-4.15178e-02  4.31059e-01        00000 
-3.34726e-02  3.86138e-01        00000 
-2.52623e-02  3.43817e-01        00000 
-1.92225e-02  3.03450e-01        00000 
-1.17356e-02  2.59144e-01        00000 
-4.35003e-03  2.12362e-01        00000 
 1.12576e-03  1.63374e-01        00000 
 6.95634e-03  1.16584e-01        00000 
 1.00840e-02  7.51174e-02        00000 
 2.15815e-02  1.37951e-02        00000 
 3.12042e-02  9.41435e-01        00000 
 1.98574e-02  8.79447e-01        00000 
 6.30439e-03  8.39346e-01        00000 
-1.14432e-02  7.82288e-01        00000 
-2.67101e-02  7.36674e-01        00000 
-3.58208e-02  6.84854e-01        00000 
-4.49082e-02  6.37120e-01        00000 
-4.90446e-02  5.87585e-01        00000 
-4.82830e-02  5.41050e-01        00000 
-4.56702e-02  4.99781e-01        00000 
-3.83736e-02  4.53862e-01        00000 
-2.79706e-02  4.07528e-01        00000 
-1.69921e-02  3.58920e-01        00000 
-8.47830e-03  3.17827e-01        00000 
 2.14132e-03  2.67488e-01        00000 
 1.05449e-02  2.18145e-01        00000 
 2.08830e-02  1.70384e-01        00000 
 2.95765e-02  1.20142e-01        00000 
 2.90749e-02  6.93583e-02        00000 
 3.30919e-02  9.86595e-03        00000 
 4.11524e-02  9.71933e-01        00000 
 3.20142e-02  9.29181e-01        00000 
 2.31233e-02  8.78307e-01        00000 
 4.47202e-03  8.26241e-01        00000 
-1.08510e-02  7.72791e-01        00000 
-2.21076e-02  7.21564e-01        00000 
-3.19422e-02  6.72918e-01        00000 
-3.84504e-02  6.22837e-01        00000 
-3.98217e-02  5.73623e-01        00000 
-3.84382e-02  5.25943e-01        00000 
-3.23148e-02  4.78305e-01        00000 
-2.06455e-02  4.30530e-01        00000 
-1.04911e-02  3.80180e-01        00000 
 4.10521e-04  3.29238e-01        00000 
 1.31407e-02  2.78310e-01        00000 
 2.63409e-02  2.27447e-01        00000 
 3.51468e-02  1.73505e-01        00000 
 4.42234e-02  1.22687e-01        00000 
 5.02250e-02  6.93899e-02        00000 
 4.22792e-02  3.49104e-03        00000 
 3.87818e-02  4.51690e-02        00000 
 2.48421e-02  3.10632e-02        00000 
 8.50182e-03  3.20527e-02        00000 
-1.28743e-02  3.00899e-02        00000 
-2.42427e-02  2.49120e-02        00000 
-3.63914e-02  2.69475e-02        00000 
-4.50564e-02  2.59548e-02        00000 
-4.72518e-02  2.26141e-02        00000 
-4.62132e-02  1.31545e-02        00000 
-4.14380e-02  7.50780e-03        00000 
-2.94045e-02  5.66220e-03        00000 
-1.68357e-02  1.56088e-03        00000 
-3.76471e-03 -4.32878e-03        00000 
 1.08271e-02 -9.64962e-03        00000 
 1.99667e-02 -1.74647e-02        00000 
 2.66654e-02 -1.60034e-02        00000 
 3.67146e-02 -1.91130e-02        00000 
 4.35781e-02 -2.36093e-02        00000 
 4.66584e-02 -1.08892e-02        00000 
 3.25418e-02  7.71666e-02        00000 
 1.70788e-02  7.38621e-02        00000 
-3.97058e-03  6.99112e-02        00000 
-2.30236e-02  6.63368e-02        00000 
-3.71690e-02  6.34826e-02        00000 
-4.95837e-02  5.95661e-02        00000 
-5.85426e-02  5.60045e-02        00000 
-5.77719e-02  4.99203e-02        00000 
-5.59671e-02  4.28954e-02        00000 
-4.68916e-02  2.92196e-02        00000 
-3.47296e-02  2.51510e-02        00000 
-2.54375e-02  1.98350e-02        00000 
-1.48606e-02  1.31936e-02        00000 
-2.23376e-04  1.62405e-03        00000 
 5.15632e-03 -4.70866e-03        00000 
 1.13567e-02 -7.80671e-03        00000 
 1.96001e-02 -1.11854e-02        00000 
 2.80551e-02 -9.90947e-03        00000 
 3.34996e-02 -1.46770e-02        00000 
 2.22100e-02  1.19898e-01        00000 
 4.00369e-03  1.20031e-01        00000 
-1.47235e-02  1.09561e-01        00000 
-3.19691e-02  1.00349e-01        00000 
-4.73129e-02  9.67848e-02        00000 
-5.89550e-02  9.30012e-02        00000 
-6.82488e-02  8.91762e-02        00000 
-6.67754e-02  7.67171e-02        00000 
-6.27786e-02  6.62667e-02        00000 
-5.35650e-02  5.47073e-02        00000 
-4.02365e-02  4.55680e-02        00000 
-2.80505e-02  3.43114e-02        00000 
-1.84387e-02  2.21202e-02        00000 
-7.08083e-03  1.17223e-02        00000 
-6.22549e-04  1.95209e-03        00000 
 3.77335e-03 -2.78870e-04        00000 
 1.21347e-02 -4.36265e-03        00000 
 1.63270e-02 -1.28000e-02        00000 
 2.48149e-02 -1.54816e-02        00000 
 9.17083e-03  1.67658e-01        00000 
-7.30145e-03  1.59765e-01        00000 
-2.41447e-02  1.44612e-01        00000 
-4.02268e-02  1.35520e-01        00000 
-5.51060e-02  1.31041e-01        00000 
-6.54701e-02  1.25679e-01        00000 
-7.39669e-02  1.19627e-01        00000 
-7.64297e-02  1.05762e-01        00000 
-7.32821e-02  9.03323e-02        00000 
-6.10030e-02  7.62093e-02        00000 
-4.64168e-02  6.29584e-02        00000 
-3.09844e-02  4.88819e-02        00000 
-1.88481e-02  3.31215e-02        00000 
-9.14576e-03  2.10645e-02        00000 
-4.75394e-03  9.55370e-03        00000 
-8.36236e-04  1.80097e-03        00000 
 2.71039e-03 -3.63078e-03        00000 
 3.88964e-03 -8.23469e-03        00000 
 1.71534e-02 -1.84770e-02        00000 
 1.91109e-04  2.14102e-01        00000 
-1.49241e-02  2.04801e-01        00000 
-3.13951e-02  1.91416e-01        00000 
-4.94761e-02  1.78961e-01        00000 
-6.32480e-02  1.69252e-01        00000 
-7.31145e-02  1.59451e-01        00000 
-8.34279e-02  1.50399e-01        00000 
-8.63656e-02  1.29684e-01        00000 
-8.24500e-02  1.08706e-01        00000 
-6.71784e-02  9.09449e-02        00000 
-4.89951e-02  7.67078e-02        00000 
-3.12161e-02  5.45277e-02        00000 
-1.88926e-02  3.65201e-02        00000 
-1.06949e-02  2.30297e-02        00000 
-7.40798e-03  1.23612e-02        00000 
-5.35926e-03  5.39694e-03        00000 
-3.67191e-03 -1.12675e-03        00000 
 3.24933e-03 -1.21454e-02        00000 
 9.34535e-03 -2.03970e-02        00000 
-5.67355e-03  2.63522e-01        00000 
-1.97509e-02  2.55280e-01        00000 