<?xml version="1.0" encoding="utf-8"?>
<VTKFile byte_order="LittleEndian" type="UnstructuredGrid" version="0.1">
   <UnstructuredGrid>
      <Piece NumberOfCells="1444" NumberOfPoints="761">
         <Points>
            <DataArray Name="Points" NumberOfComponents="3" format="ascii" type="Float32">
-1.0000 -1.0000 0.0000
-1.0000 -0.8947 0.0000
-1.0000 -0.7895 0.0000
-1.0000 -0.6842 0.0000
-1.0000 -0.5789 0.0000
-1.0000 -0.4737 0.0000
-1.0000 -0.3684 0.0000
-1.0000 -0.2632 0.0000
-1.0000 -0.1579 0.0000
-1.0000 -0.0526 0.0000
-1.0000 0.0526 0.0000
-1.0000 0.1579 0.0000
-1.0000 0.2632 0.0000
-1.0000 0.3684 0.0000
-1.0000 0.4737 0.0000
-1.0000 0.5789 0.0000
-1.0000 0.6842 0.0000
-1.0000 0.7895 0.0000
-1.0000 0.8947 0.0000
-1.0000 1.0000 0.0000
-0.8947 -1.0000 0.0000
-0.8947 -0.8947 0.0000
-0.8947 -0.7895 0.0000
-0.8947 -0.6842 0.0000
-0.8947 -0.5789 0.0000
-0.8947 -0.4737 0.0000
-0.8947 -0.3684 0.0000
-0.8947 -0.2632 0.0000
-0.8947 -0.1579 0.0000
-0.8947 -0.0526 0.0000
-0.8947 0.0526 0.0000
-0.8947 0.1579 0.0000
-0.8947 0.2632 0.0000
-0.8947 0.3684 0.0000
-0.8947 0.4737 0.0000
-0.8947 0.5789 0.0000
-0.8947 0.6842 0.0000
-0.8947 0.7895 0.0000
-0.8947 0.8947 0.0000
-0.8947 1.0000 0.0000
-0.7895 -1.0000 0.0000
-0.7895 -0.8947 0.0000
-0.7895 -0.7895 0.0000
-0.7895 -0.6842 0.0000
-0.7895 -0.5789 0.0000
-0.7895 -0.4737 0.0000
-0.7895 -0.3684 0.0000
-0.7895 -0.2632 0.0000
-0.7895 -0.1579 0.0000
-0.7895 -0.0526 0.0000
-0.7895 0.0526 0.0000
-0.7895 0.1579 0.0000
-0.7895 0.2632 0.0000
-0.7895 0.3684 0.0000
-0.7895 0.4737 0.0000
-0.7895 0.5789 0.0000
-0.7895 0.6842 0.0000
-0.7895 0.7895 0.0000
-0.7895 0.8947 0.0000
-0.7895 1.0000 0.0000
-0.6842 -1.0000 0.0000
-0.6842 -0.8947 0.0000
-0.6842 -0.7895 0.0000
-0.6842 -0.6842 0.0000
-0.6842 -0.5789 0.0000
-0.6842 -0.4737 0.0000
-0.6842 -0.3684 0.0000
-0.6842 -0.2632 0.0000
-0.6842 -0.1579 0.0000
-0.6842 -0.0526 0.0000
-0.6842 0.0526 0.0000
-0.6842 0.1579 0.0000
-0.6842 0.2632 0.0000
-0.6842 0.3684 0.0000
-0.6842 0.4737 0.0000
-0.6842 0.5789 0.0000
-0.6842 0.6842 0.0000
-0.6842 0.7895 0.0000
-0.6842 0.8947 0.0000
-0.6842 1.0000 0.0000
-0.5789 -1.0000 0.0000
-0.5789 -0.8947 0.0000
-0.5789 -0.7895 0.0000
-0.5789 -0.6842 0.0000
-0.5789 -0.5789 0.0000
-0.5789 -0.4737 0.0000
-0.5789 -0.3684 0.0000
-0.5789 -0.2632 0.0000
-0.5789 -0.1579 0.0000
-0.5789 -0.0526 0.0000
-0.5789 0.0526 0.0000
-0.5789 0.1579 0.0000
-0.5789 0.2632 0.0000
-0.5789 0.3684 0.0000
-0.5789 0.4737 0.0000
-0.5789 0.5789 0.0000
-0.5789 0.6842 0.0000
-0.5789 0.7895 0.0000
-0.5789 0.8947 0.0000
-0.5789 1.0000 0.0000
-0.4737 -1.0000 0.0000
-0.4737 -0.8947 0.0000
-0.4737 -0.7895 0.0000
-0.4737 -0.6842 0.0000
-0.4737 -0.5789 0.0000
-0.4737 -0.4737 0.0000
-0.4737 -0.3684 0.0000
-0.4737 -0.2632 0.0000
-0.4737 -0.1579 0.0000
-0.4737 -0.0526 0.0000
-0.4737 0.0526 0.0000
-0.4737 0.1579 0.0000
-0.4737 0.2632 0.0000
-0.4737 0.3684 0.0000
-0.4737 0.4737 0.0000
-0.4737 0.5789 0.0000
-0.4737 0.6842 0.0000
-0.4737 0.7895 0.0000
-0.4737 0.8947 0.0000
-0.4737 1.0000 0.0000
-0.3684 -1.0000 0.0000
-0.3684 -0.8947 0.0000
-0.3684 -0.7895 0.0000
-0.3684 -0.6842 0.0000
-0.3684 -0.5789 0.0000
-0.3684 -0.4737 0.0000
-0.3684 -0.3684 0.0000
-0.3684 -0.2632 0.0000
-0.3684 -0.1579 0.0000
-0.3684 -0.0526 0.0000
-0.3684 0.0526 0.0000
-0.3684 0.1579 0.0000
-0.3684 0.2632 0.0000
-0.3684 0.3684 0.0000
-0.3684 0.4737 0.0000
-0.3684 0.5789 0.0000
-0.3684 0.6842 0.0000
-0.3684 0.7895 0.0000
-0.3684 0.8947 0.0000
-0.3684 1.0000 0.0000
-0.2632 -1.0000 0.0000
-0.2632 -0.8947 0.0000
-0.2632 -0.7895 0.0000
-0.2632 -0.6842 0.0000
-0.2632 -0.5789 0.0000
-0.2632 -0.4737 0.0000
-0.2632 -0.3684 0.0000
-0.2632 -0.2632 0.0000
-0.2632 -0.1579 0.0000
-0.2632 -0.0526 0.0000
-0.2632 0.0526 0.0000
-0.2632 0.1579 0.0000
-0.2632 0.2632 0.0000
-0.2632 0.3684 0.0000
-0.2632 0.4737 0.0000
-0.2632 0.5789 0.0000
-0.2632 0.6842 0.0000
-0.2632 0.7895 0.0000
-0.2632 0.8947 0.0000
-0.2632 1.0000 0.0000
-0.1579 -1.0000 0.0000
-0.1579 -0.8947 0.0000
-0.1579 -0.7895 0.0000
-0.1579 -0.6842 0.0000
-0.1579 -0.5789 0.0000
-0.1579 -0.4737 0.0000
-0.1579 -0.3684 0.0000
-0.1579 -0.2632 0.0000
-0.1579 -0.1579 0.0000
-0.1579 -0.0526 0.0000
-0.1579 0.0526 0.0000
-0.1579 0.1579 0.0000
-0.1579 0.2632 0.0000
-0.1579 0.3684 0.0000
-0.1579 0.4737 0.0000
-0.1579 0.5789 0.0000
-0.1579 0.6842 0.0000
-0.1579 0.7895 0.0000
-0.1579 0.8947 0.0000
-0.1579 1.0000 0.0000
-0.0526 -1.0000 0.0000
-0.0526 -0.8947 0.0000
-0.0526 -0.7895 0.0000
-0.0526 -0.6842 0.0000
-0.0526 -0.5789 0.0000
-0.0526 -0.4737 0.0000
-0.0526 -0.3684 0.0000
-0.0526 -0.2632 0.0000
-0.0526 -0.1579 0.0000
-0.0526 -0.0526 0.0000
-0.0526 0.0526 0.0000
-0.0526 0.1579 0.0000
-0.0526 0.2632 0.0000
-0.0526 0.3684 0.0000
-0.0526 0.4737 0.0000
-0.0526 0.5789 0.0000
-0.0526 0.6842 0.0000
-0.0526 0.7895 0.0000
-0.0526 0.8947 0.0000
-0.0526 1.0000 0.0000
0.0526 -1.0000 0.0000
0.0526 -0.8947 0.0000
0.0526 -0.7895 0.0000
0.0526 -0.6842 0.0000
0.0526 -0.5789 0.0000
0.0526 -0.4737 0.0000
0.0526 -0.3684 0.0000
0.0526 -0.2632 0.0000
0.0526 -0.1579 0.0000
0.0526 -0.0526 0.0000
0.0526 0.0526 0.0000
0.0526 0.1579 0.0000
0.0526 0.2632 0.0000
0.0526 0.3684 0.0000
0.0526 0.4737 0.0000
0.0526 0.5789 0.0000
0.0526 0.6842 0.0000
0.0526 0.7895 0.0000
0.0526 0.8947 0.0000
0.0526 1.0000 0.0000
0.1579 -1.0000 0.0000
0.1579 -0.8947 0.0000
0.1579 -0.7895 0.0000
0.1579 -0.6842 0.0000
0.1579 -0.5789 0.0000
0.1579 -0.4737 0.0000
0.1579 -0.3684 0.0000
0.1579 -0.2632 0.0000
0.1579 -0.1579 0.0000
0.1579 -0.0526 0.0000
0.1579 0.0526 0.0000
0.1579 0.1579 0.0000
0.1579 0.2632 0.0000
0.1579 0.3684 0.0000
0.1579 0.4737 0.0000
0.1579 0.5789 0.0000
0.1579 0.6842 0.0000
0.1579 0.7895 0.0000
0.1579 0.8947 0.0000
0.1579 1.0000 0.0000
0.2632 -1.0000 0.0000
0.2632 -0.8947 0.0000
0.2632 -0.7895 0.0000
0.2632 -0.6842 0.0000
0.2632 -0.5789 0.0000
0.2632 -0.4737 0.0000
0.2632 -0.3684 0.0000
0.2632 -0.2632 0.0000
0.2632 -0.1579 0.0000
0.2632 -0.0526 0.0000
0.2632 0.0526 0.0000
0.2632 0.1579 0.0000
0.2632 0.2632 0.0000
0.2632 0.3684 0.0000
0.2632 0.4737 0.0000
0.2632 0.5789 0.0000
0.2632 0.6842 0.0000
0.2632 0.7895 0.0000
0.2632 0.8947 0.0000
0.2632 1.0000 0.0000
0.3684 -1.0000 0.0000
0.3684 -0.8947 0.0000
0.3684 -0.7895 0.0000
0.3684 -0.6842 0.0000
0.3684 -0.5789 0.0000
0.3684 -0.4737 0.0000
0.3684 -0.3684 0.0000
0.3684 -0.2632 0.0000
0.3684 -0.1579 0.0000
0.3684 -0.0526 0.0000
0.3684 0.0526 0.0000
0.3684 0.1579 0.0000
0.3684 0.2632 0.0000
0.3684 0.3684 0.0000
0.3684 0.4737 0.0000
0.3684 0.5789 0.0000
0.3684 0.6842 0.0000
0.3684 0.7895 0.0000
0.3684 0.8947 0.0000
0.3684 1.0000 0.0000
0.4737 -1.0000 0.0000
0.4737 -0.8947 0.0000
0.4737 -0.7895 0.0000
0.4737 -0.6842 0.0000
0.4737 -0.5789 0.0000
0.4737 -0.4737 0.0000
0.4737 -0.3684 0.0000
0.4737 -0.2632 0.0000
0.4737 -0.1579 0.0000
0.4737 -0.0526 0.0000
0.4737 0.0526 0.0000
0.4737 0.1579 0.0000
0.4737 0.2632 0.0000
0.4737 0.3684 0.0000
0.4737 0.4737 0.0000
0.4737 0.5789 0.0000
0.4737 0.6842 0.0000
0.4737 0.7895 0.0000
0.4737 0.8947 0.0000
0.4737 1.0000 0.0000
0.5789 -1.0000 0.0000
0.5789 -0.8947 0.0000
0.5789 -0.7895 0.0000
0.5789 -0.6842 0.0000
0.5789 -0.5789 0.0000
0.5789 -0.4737 0.0000
0.5789 -0.3684 0.0000
0.5789 -0.2632 0.0000
0.5789 -0.1579 0.0000
0.5789 -0.0526 0.0000
0.5789 0.0526 0.0000
0.5789 0.1579 0.0000
0.5789 0.2632 0.0000
0.5789 0.3684 0.0000
0.5789 0.4737 0.0000
0.5789 0.5789 0.0000
0.5789 0.6842 0.0000
0.5789 0.7895 0.0000
0.5789 0.8947 0.0000
0.5789 1.0000 0.0000
0.6842 -1.0000 0.0000
0.6842 -0.8947 0.0000
0.6842 -0.7895 0.0000
0.6842 -0.6842 0.0000
0.6842 -0.5789 0.0000
0.6842 -0.4737 0.0000
0.6842 -0.3684 0.0000
0.6842 -0.2632 0.0000
0.6842 -0.1579 0.0000
0.6842 -0.0526 0.0000
0.6842 0.0526 0.0000
0.6842 0.1579 0.0000
0.6842 0.2632 0.0000
0.6842 0.3684 0.0000
0.6842 0.4737 0.0000
0.6842 0.5789 0.0000
0.6842 0.6842 0.0000
0.6842 0.7895 0.0000
0.6842 0.8947 0.0000
0.6842 1.0000 0.0000
0.7895 -1.0000 0.0000
0.7895 -0.8947 0.0000
0.7895 -0.7895 0.0000
0.7895 -0.6842 0.0000
0.7895 -0.5789 0.0000
0.7895 -0.4737 0.0000
0.7895 -0.3684 0.0000
0.7895 -0.2632 0.0000
0.7895 -0.1579 0.0000
0.7895 -0.0526 0.0000
0.7895 0.0526 0.0000
0.7895 0.1579 0.0000
0.7895 0.2632 0.0000
0.7895 0.3684 0.0000
0.7895 0.4737 0.0000
0.7895 0.5789 0.0000
0.7895 0.6842 0.0000
0.7895 0.7895 0.0000
0.7895 0.8947 0.0000
0.7895 1.0000 0.0000
0.8947 -1.0000 0.0000
0.8947 -0.8947 0.0000
0.8947 -0.7895 0.0000
0.8947 -0.6842 0.0000
0.8947 -0.5789 0.0000
0.8947 -0.4737 0.0000
0.8947 -0.3684 0.0000
0.8947 -0.2632 0.0000
0.8947 -0.1579 0.0000
0.8947 -0.0526 0.0000
0.8947 0.0526 0.0000
0.8947 0.1579 0.0000
0.8947 0.2632 0.0000
0.8947 0.3684 0.0000
0.8947 0.4737 0.0000
0.8947 0.5789 0.0000
0.8947 0.6842 0.0000
0.8947 0.7895 0.0000
0.8947 0.8947 0.0000
0.8947 1.0000 0.0000
1.0000 -1.0000 0.0000
1.0000 -0.8947 0.0000
1.0000 -0.7895 0.0000
1.0000 -0.6842 0.0000
1.0000 -0.5789 0.0000
1.0000 -0.4737 0.0000
1.0000 -0.3684 0.0000
1.0000 -0.2632 0.0000
1.0000 -0.1579 0.0000
1.0000 -0.0526 0.0000
1.0000 0.0526 0.0000
1.0000 0.1579 0.0000
1.0000 0.2632 0.0000
1.0000 0.3684 0.0000
1.0000 0.4737 0.0000
1.0000 0.5789 0.0000
1.0000 0.6842 0.0000
1.0000 0.7895 0.0000
1.0000 0.8947 0.0000
1.0000 1.0000 0.0000
-0.9474 -0.9474 0.0000
-0.9474 -0.8421 0.0000
-0.9474 -0.7368 0.0000
-0.9474 -0.6316 0.0000
-0.9474 -0.5263 0.0000
-0.9474 -0.4211 0.0000
-0.9474 -0.3158 0.0000
-0.9474 -0.2105 0.0000
-0.9474 -0.1053 0.0000
-0.9474 0.0000 0.0000
-0.9474 0.1053 0.0000
-0.9474 0.2105 0.0000
-0.9474 0.3158 0.0000
-0.9474 0.4211 0.0000
-0.9474 0.5263 0.0000
-0.9474 0.6316 0.0000
-0.9474 0.7368 0.0000
-0.9474 0.8421 0.0000
-0.9474 0.9474 0.0000
-0.8421 -0.9474 0.0000
-0.8421 -0.8421 0.0000
-0.8421 -0.7368 0.0000
-0.8421 -0.6316 0.0000
-0.8421 -0.5263 0.0000
-0.8421 -0.4211 0.0000
-0.8421 -0.3158 0.0000
-0.8421 -0.2105 0.0000
-0.8421 -0.1053 0.0000
-0.8421 0.0000 0.0000
-0.8421 0.1053 0.0000
-0.8421 0.2105 0.0000
-0.8421 0.3158 0.0000
-0.8421 0.4211 0.0000
-0.8421 0.5263 0.0000
-0.8421 0.6316 0.0000
-0.8421 0.7368 0.0000
-0.8421 0.8421 0.0000
-0.8421 0.9474 0.0000
-0.7368 -0.9474 0.0000
-0.7368 -0.8421 0.0000
[...]
         <PointData>
            <DataArray Name="fValues" NumberOfComponents="3" format="ascii" type="Float64">
 1.43214e-02  6.66029e-02        00000 
 6.64182e-02  4.58332e-02        00000 
 1.08032e-01  3.52927e-02        00000 
 1.51214e-01  2.58886e-02        00000 
 1.96465e-01  1.73805e-02        00000 
 2.44391e-01  9.35152e-03        00000 
 2.95617e-01  1.54335e-03        00000 
 3.50451e-01 -6.10811e-03        00000 
 4.08646e-01 -1.33892e-02        00000 
 4.69256e-01 -1.97903e-02        00000 
 5.30748e-01 -2.45953e-02        00000 
 5.91352e-01 -2.70684e-02        00000 
 6.49533e-01 -2.66594e-02        00000 
 7.04353e-01 -2.31331e-02        00000 
 7.55564e-01 -1.65768e-02        00000 
 8.03480e-01 -7.33095e-03        00000 
 8.48727e-01  4.06185e-03        00000 
 8.91914e-01  1.63003e-02        00000 
 9.33539e-01  2.95771e-02        00000 
 8.94248e-01  6.65427e-02        00000 
 1.84007e-02  3.95378e-02        00000 
 6.23037e-02  2.85008e-02        00000 
 1.03283e-01  1.80267e-02        00000 
 1.45112e-01  8.57101e-03        00000 
 1.89098e-01  1.11424e-04        00000 
 2.35997e-01 -7.57478e-03        00000 
 2.86342e-01 -1.47431e-02        00000 
 3.40244e-01 -2.15858e-02        00000 
 3.97137e-01 -2.81399e-02        00000 
 4.55718e-01 -3.41704e-02        00000 
 5.14186e-01 -3.91125e-02        00000 
 5.70744e-01 -4.21629e-02        00000 
 6.24118e-01 -4.25211e-02        00000 
 6.73807e-01 -3.96526e-02        00000 
 7.19984e-01 -3.34145e-02        00000 
 7.63204e-01 -2.39774e-02        00000 
 8.03965e-01 -1.15537e-02        00000 
 8.42323e-01  4.61646e-03        00000 
 8.67419e-01  2.85674e-02        00000 
 8.88156e-01  3.95001e-02        00000 
 1.91936e-02  2.18314e-02        00000 
 5.84622e-02  1.01393e-02        00000 
 9.79469e-02  2.54781e-04        00000 
 1.38155e-01 -8.72568e-03        00000 
 1.80524e-01 -1.67401e-02        00000 
 2.26007e-01 -2.38077e-02        00000 
 2.75262e-01 -3.01248e-02        00000 
 3.28404e-01 -3.60274e-02        00000 
 3.84657e-01 -4.18591e-02        00000 
 4.42221e-01 -4.76969e-02        00000 
 4.98670e-01 -5.30730e-02        00000 
 5.51811e-01 -5.69638e-02        00000 
 6.00480e-01 -5.81636e-02        00000 
 6.44719e-01 -5.57925e-02        00000 
 6.85344e-01 -4.95598e-02        00000 
 7.23285e-01 -3.96329e-02        00000 
 7.59053e-01 -2.62383e-02        00000 
 7.91321e-01 -9.34983e-03        00000 
 8.20206e-01  7.29275e-03        00000 
 8.52753e-01  2.18423e-02        00000 
 1.87159e-02  4.43426e-03        00000 
 5.50389e-02 -6.74880e-03        00000 
 9.20296e-02 -1.66583e-02        00000 
 1.30219e-01 -2.53889e-02        00000 
 1.70575e-01 -3.30188e-02        00000 
 2.14235e-01 -3.94950e-02        00000 
 2.62176e-01 -4.49489e-02        00000 
 3.14822e-01 -4.98528e-02        00000 
 3.71365e-01 -5.49454e-02        00000 
 4.29298e-01 -6.07578e-02        00000 
 4.84950e-01 -6.69250e-02        00000 
 5.35156e-01 -7.19822e-02        00000 
 5.78802e-01 -7.40543e-02        00000 
 6.16880e-01 -7.18835e-02        00000 
 6.51289e-01 -6.52692e-02        00000 
 6.83626e-01 -5.47741e-02        00000 
 7.14559e-01 -4.12302e-02        00000 
 7.44353e-01 -2.60099e-02        00000 
 7.74252e-01 -1.05633e-02        00000 
 8.07439e-01  4.48979e-03        00000 
 1.75851e-02 -1.15696e-02        00000 
 5.12926e-02 -2.23073e-02        00000 
 8.57360e-02 -3.20639e-02        00000 
 1.21453e-01 -4.08117e-02        00000 
 1.59336e-01 -4.84106e-02        00000 
 2.00644e-01 -5.46768e-02        00000 
 2.46864e-01 -5.95960e-02        00000 
 2.99180e-01 -6.36649e-02        00000 
 3.57221e-01 -6.80677e-02        00000 
 4.17567e-01 -7.40472e-02        00000 
 4.74118e-01 -8.14371e-02        00000 
 5.21640e-01 -8.79495e-02        00000 
 5.59220e-01 -9.06267e-02        00000 
 5.89839e-01 -8.78969e-02        00000 
 6.17274e-01 -8.01463e-02        00000 
 6.43976e-01 -6.87447e-02        00000 
 6.70938e-01 -5.51845e-02        00000 
 6.98555e-01 -4.07063e-02        00000 
 7.27573e-01 -2.61442e-02        00000 
 7.59297e-01 -1.14752e-02        00000 
 1.58380e-02 -2.54977e-02        00000 
 4.71151e-02 -3.56716e-02        00000 
 7.90571e-02 -4.53008e-02        00000 
 1.12122e-01 -5.42655e-02        00000 
 1.47118e-01 -6.23105e-02        00000 
 1.85439e-01 -6.90678e-02        00000 
 2.29238e-01 -7.42992e-02        00000 
 2.81044e-01 -7.83867e-02        00000 
 3.41947e-01 -8.27106e-02        00000 
 4.07816e-01 -8.93033e-02        00000 
 4.67813e-01 -9.82709e-02        00000 
 5.12273e-01 -1.05970e-01        00000 
 5.41384e-01 -1.07883e-01        00000 
 5.62532e-01 -1.02911e-01        00000 
 5.82301e-01 -9.27849e-02        00000 
 6.03729e-01 -7.99051e-02        00000 
 6.27376e-01 -6.60581e-02        00000 
 6.53007e-01 -5.22272e-02        00000 
 6.80573e-01 -3.87421e-02        00000 
 7.10392e-01 -2.53750e-02        00000 
 1.34135e-02 -3.63627e-02        00000 
 4.24818e-02 -4.58956e-02        00000 
 7.20804e-02 -5.53721e-02        00000 
 1.02499e-01 -6.46691e-02        00000 
 1.34371e-01 -7.35224e-02        00000 
 1.69081e-01 -8.15273e-02        00000 
 2.09485e-01 -8.83116e-02        00000 
 2.60341e-01 -9.44338e-02        00000 
 3.25721e-01 -1.02142e-01        00000 
 4.01446e-01 -1.12434e-01        00000 
 4.67643e-01 -1.22086e-01        00000 
 5.07235e-01 -1.26371e-01        00000 
 5.23842e-01 -1.23765e-01        00000 
 5.33083e-01 -1.14157e-01        00000 
 5.45058e-01 -1.00562e-01        00000 
 5.62186e-01 -8.60799e-02        00000 
 5.83492e-01 -7.22582e-02        00000 
 6.07631e-01 -5.94801e-02        00000 
 6.33818e-01 -4.75986e-02        00000 
 6.61808e-01 -3.62277e-02        00000 
 1.02754e-02 -4.31825e-02        00000 
 3.73829e-02 -5.20251e-02        00000 
 6.48458e-02 -6.12026e-02        00000 
 9.27587e-02 -7.06276e-02        00000 
 1.21438e-01 -8.01521e-02        00000 
 1.52010e-01 -8.94189e-02        00000 
 1.87671e-01 -9.82285e-02        00000 
 2.36688e-01 -1.07847e-01        00000 
 3.12832e-01 -1.26963e-01        00000 
 4.01589e-01 -1.56699e-01        00000 
 4.66259e-01 -1.56850e-01        00000 
 5.05697e-01 -1.40588e-01        00000 
 5.04725e-01 -1.30629e-01        00000 
 4.99351e-01 -1.16308e-01        00000 
 5.04591e-01 -1.00015e-01        00000 
 5.19270e-01 -8.52521e-02        00000 
 5.39505e-01 -7.26834e-02        00000 
 5.62759e-01 -6.17859e-02        00000 
 5.87825e-01 -5.20455e-02        00000 
 6.14200e-01 -4.30572e-02        00000 
 6.48462e-03 -4.52247e-02        00000 
 3.17972e-02 -5.33921e-02        00000 
 5.72564e-02 -6.19819e-02        00000 
 8.27683e-02 -7.09030e-02        00000 
 1.08286e-01 -8.00739e-02        00000 
 1.33949e-01 -8.92268e-02        00000 
 1.62471e-01 -9.70709e-02        00000 
 2.03121e-01 -1.03361e-01        00000 
 2.63203e-01 -1.12415e-01        00000 
 3.29184e-01 -1.18714e-01        00000 
 3.84299e-01 -1.18812e-01        00000 
 4.39080e-01 -1.16917e-01        00000 
 4.84738e-01 -1.16126e-01        00000 
 4.59705e-01 -1.04044e-01        00000 
 4.61261e-01 -8.87808e-02        00000 
 4.75967e-01 -7.69461e-02        00000 
 4.96122e-01 -6.74142e-02        00000 
 5.18848e-01 -5.92183e-02        00000 
 5.42921e-01 -5.18622e-02        00000 
 5.67820e-01 -4.51341e-02        00000 
 2.23074e-03 -4.22960e-02        00000 
 2.57201e-02 -4.99077e-02        00000 
 4.91022e-02 -5.76048e-02        00000 
 7.21064e-02 -6.51850e-02        00000 
 9.42409e-02 -7.23932e-02        00000 
 1.14551e-01 -7.86279e-02        00000 
 1.29903e-01 -8.11785e-02        00000 
 1.44602e-01 -6.90022e-02        00000 
 2.01748e-01 -8.25629e-02        00000 
 2.59117e-01 -9.21050e-02        00000 
 3.11255e-01 -9.52575e-02        00000 
 3.61704e-01 -9.60088e-02        00000 
 4.43095e-01 -9.71366e-02        00000 
 4.12284e-01 -7.84417e-02        00000 
 4.17463e-01 -6.98325e-02        00000 
 4.33719e-01 -6.36485e-02        00000 
 4.54061e-01 -5.81567e-02        00000 
 4.76151e-01 -5.27889e-02        00000 
 4.99091e-01 -4.74595e-02        00000 
 5.22456e-01 -4.22606e-02        00000 
-2.18734e-03 -3.49093e-02        00000 
 1.92297e-02 -4.22139e-02        00000 
 4.02434e-02 -4.89196e-02        00000 
 6.03822e-02 -5.46589e-02        00000 
 7.87460e-02 -5.88614e-02        00000 
 9.31708e-02 -6.04554e-02        00000 
 9.76000e-02 -5.75265e-02        00000 
 7.49926e-02 -4.62826e-02        00000 
 1.45395e-01 -6.16854e-02        00000 
 1.91388e-01 -6.90021e-02        00000 
 2.38191e-01 -7.21622e-02        00000 
 2.91112e-01 -7.51656e-02        00000 
 3.37193e-01 -7.47569e-02        00000 
 3.60138e-01 -5.51782e-02        00000 
 3.74714e-01 -5.17578e-02        00000 
 3.93206e-01 -5.01655e-02        00000 
 4.13374e-01 -4.76681e-02        00000 
 4.34443e-01 -4.41428e-02        00000 
 4.55919e-01 -3.98134e-02        00000 
 4.77487e-01 -3.49373e-02        00000 
-6.42946e-03 -2.42133e-02        00000 
 1.25424e-02 -3.15623e-02        00000 
 3.08155e-02 -3.75340e-02        00000 
 4.77263e-02 -4.16871e-02        00000 
 6.20638e-02 -4.33160e-02        00000 
 7.13644e-02 -4.13990e-02        00000 
 7.01127e-02 -3.51538e-02        00000 
 5.10008e-02 -2.92104e-02        00000 
 8.46613e-02 -3.95541e-02        00000 
 1.23429e-01 -4.48934e-02        00000 
 1.63031e-01 -4.49606e-02        00000 
 2.13041e-01 -4.40578e-02        00000 
 2.61362e-01 -4.19489e-02        00000 
 3.07371e-01 -4.23126e-02        00000 
 3.33283e-01 -4.10966e-02        00000 
 3.53579e-01 -4.02937e-02        00000 
 3.73306e-01 -3.82953e-02        00000 
 3.93027e-01 -3.48774e-02        00000 
 4.12713e-01 -3.01644e-02        00000 
 4.32132e-01 -2.42971e-02        00000 
-1.02015e-02 -1.16902e-02        00000 
 5.99482e-03 -1.94552e-02        00000 
 2.12780e-02 -2.52432e-02        00000 
 3.48698e-02 -2.87162e-02        00000 
 4.55448e-02 -2.94033e-02        00000 
 5.12830e-02 -2.69151e-02        00000 
 4.95797e-02 -2.18978e-02        00000 
 4.03729e-02 -1.69119e-02        00000 
 3.31963e-02 -1.38033e-02        00000 
 4.83617e-02 -7.21902e-03        00000 
 8.36512e-02 -7.38537e-03        00000 
 1.48267e-01 -2.71678e-02        00000 
 2.18265e-01 -3.96134e-02        00000 
 2.63289e-01 -3.99689e-02        00000 
 2.91972e-01 -3.76062e-02        00000 
 3.13646e-01 -3.46169e-02        00000 
 3.32795e-01 -3.08991e-02        00000 
 3.51077e-01 -2.59767e-02        00000 
 3.68793e-01 -1.96634e-02        00000 
 3.85767e-01 -1.18097e-02        00000 
-1.33206e-02  1.23731e-03        00000 
-5.02853e-05 -7.23413e-03        00000 
 1.22328e-02 -1.34472e-02        00000 
 2.27819e-02 -1.72879e-02        00000 
 3.06257e-02 -1.87010e-02        00000 
 3.46500e-02 -1.79979e-02        00000 
 3.43134e-02 -1.63086e-02        00000 
 3.14846e-02 -1.57214e-02        00000 
 3.26623e-02 -1.82183e-02        00000 
 4.76687e-02 -2.42820e-02        00000 
 8.32294e-02 -3.38652e-02        00000 
 1.34337e-01 -4.25307e-02        00000 
 1.84346e-01 -4.50535e-02        00000 
 2.23068e-01 -4.21686e-02        00000 
 2.51124e-01 -3.70913e-02        00000 
 2.72735e-01 -3.13611e-02        00000 
 2.91169e-01 -2.50096e-02        00000 
 3.08032e-01 -1.77202e-02        00000 
 3.23770e-01 -9.14486e-03        00000 
 3.38173e-01  1.10657e-03        00000 
-1.57308e-02  1.35077e-02        00000 
-5.32130e-03  4.18551e-03        00000 
 4.16511e-03 -2.88802e-03        00000 
 1.21511e-02 -7.81802e-03        00000 
 1.80581e-02 -1.08987e-02        00000 
 2.15134e-02 -1.27995e-02        00000 
 2.29494e-02 -1.47258e-02        00000 
 2.45493e-02 -1.82814e-02        00000 
 3.08297e-02 -2.47343e-02        00000 
 4.74407e-02 -3.38575e-02        00000 
 7.69115e-02 -4.28424e-02        00000 
 1.14931e-01 -4.80044e-02        00000 
 1.52995e-01 -4.78097e-02        00000 
 1.85243e-01 -4.33732e-02        00000 
 2.10689e-01 -3.65760e-02        00000 
 2.31036e-01 -2.85836e-02        00000 
 2.48311e-01 -1.97327e-02        00000 
 2.63764e-01 -9.96943e-03        00000 
 2.77672e-01  9.20738e-04        00000 
 2.89598e-01  1.33875e-02        00000 
-1.74708e-02  2.45329e-02        00000 
-9.70342e-03  1.43648e-02        00000 
-2.72263e-03  6.27068e-03        00000 
 3.16741e-03  1.21271e-05        00000 
 7.75669e-03 -4.89773e-03        00000 
 1.11162e-02 -9.20948e-03        00000 
 1.40047e-02 -1.39112e-02        00000 
 1.82753e-02 -1.99793e-02        00000 
 2.68295e-02 -2.78107e-02        00000 
 4.24656e-02 -3.65070e-02        00000 
 6.58325e-02 -4.39012e-02        00000 
 9.42894e-02 -4.77112e-02        00000 
 1.23297e-01 -4.69686e-02        00000 
 1.49255e-01 -4.22532e-02        00000 
 1.70920e-01 -3.47356e-02        00000 
 1.88886e-01 -2.53091e-02        00000 
 2.04413e-01 -1.44610e-02        00000 
 2.18434e-01 -2.49732e-03        00000 
 2.30885e-01  1.03734e-02        00000 
 2.40694e-01  2.44391e-02        00000 
-1.86018e-02  3.41441e-02        00000 
-1.32313e-02  2.32243e-02        00000 
-8.52815e-03  1.42179e-02        00000 
-4.40718e-03  6.78540e-03        00000 
-8.15174e-04  3.62214e-04        00000 
 2.47368e-03 -5.74467e-03        00000 
 6.15825e-03 -1.21994e-02        00000 
 1.15565e-02 -1.94723e-02        00000 
 2.03394e-02 -2.74792e-02        00000 
 3.37998e-02 -3.53281e-02        00000 
 5.19389e-02 -4.15009e-02        00000 
 7.31215e-02 -4.45319e-02        00000 
 9.47922e-02 -4.37001e-02        00000 
 1.14748e-01 -3.91700e-02        00000 
 1.31958e-01 -3.15654e-02        00000 
 1.46570e-01 -2.14508e-02        00000 
 1.59599e-01 -9.12531e-03        00000 
 1.72144e-01  4.78462e-03        00000 
 1.83983e-01  1.93140e-02        00000 
 1.92545e-01  3.40871e-02        00000 
-1.90857e-02  4.24079e-02        00000 
-1.60479e-02  3.09075e-02        00000 
-1.36067e-02  2.12728e-02        00000 
-1.10514e-02  1.31228e-02        00000 
-8.28869e-03  5.62446e-03        00000 
-5.26066e-03 -1.63489e-03        00000 
-1.43891e-03 -9.04354e-03        00000 
 3.98798e-03 -1.67775e-02        00000 
 1.18813e-02 -2.45896e-02        00000 
 2.27480e-02 -3.17277e-02        00000 
 3.63511e-02 -3.71086e-02        00000 
 5.16346e-02 -3.97084e-02        00000 
 6.71006e-02 -3.89352e-02        00000 
 8.14168e-02 -3.47382e-02        00000 
 9.38583e-02 -2.74170e-02        00000 
 1.04426e-01 -1.72998e-02        00000 
 1.13798e-01 -4.42079e-03        00000 
 1.24319e-01  1.16397e-02        00000 
 1.37402e-01  2.80362e-02        00000 
 1.47219e-01  4.23933e-02        00000 
-1.83019e-02  4.96561e-02        00000 
-1.85565e-02  3.73273e-02        00000 
-1.86574e-02  2.82259e-02        00000 
-1.71388e-02  1.94818e-02        00000 
-1.52101e-02  1.12814e-02        00000 
-1.26861e-02  3.40668e-03        00000 
-9.22577e-03 -4.40179e-03        00000 
-4.41752e-03 -1.22072e-02        00000 
 2.06160e-03 -1.97459e-02        00000 
 1.02616e-02 -2.64047e-02        00000 
 1.98301e-02 -3.13508e-02        00000 
 3.00443e-02 -3.37801e-02        00000 
 4.00257e-02 -3.31576e-02        00000 
 4.90275e-02 -2.93258e-02        00000 
 5.66388e-02 -2.24423e-02        00000 
 6.28325e-02 -1.28068e-02        00000 
 6.79882e-02 -6.29081e-04        00000 
 7.29956e-02  1.48452e-02        00000 
 8.88163e-02  3.74434e-02        00000 
 1.11801e-01  4.96879e-02        00000 
-1.42274e-02  5.37932e-02        00000 
-2.32152e-02  4.58253e-02        00000 
-2.33420e-02  3.53047e-02        00000 
-2.29956e-02  2.59194e-02        00000 
-2.20166e-02  1.74280e-02        00000 
-2.02175e-02  9.41288e-03        00000 
-1.74126e-02  1.61458e-03        00000 
-1.35126e-02 -6.03136e-03        00000 
-8.59708e-03 -1.33110e-02        00000 
-2.95378e-03 -1.97136e-02        00000 
 2.95300e-03 -2.45218e-02        00000 
 8.58964e-03 -2.69980e-02        00000 
 1.34933e-02 -2.65903e-02        00000 
 1.73789e-02 -2.30622e-02        00000 
 2.01705e-02 -1.65004e-02        00000 
 2.19607e-02 -7.24582e-03        00000 
 2.29378e-02  4.15808e-03        00000 
 2.32900e-02  1.64082e-02        00000 
 2.31758e-02  2.96965e-02        00000 
 1.05709e-01  5.38452e-02        00000 
 4.15776e-02  4.40945e-02        00000 
 8.50176e-02  3.18340e-02        00000 
 1.26904e-01  2.17757e-02        00000 
 1.70478e-01  1.28297e-02        00000 
 2.16530e-01  4.68883e-03        00000 
 2.65667e-01 -2.96580e-03        00000 
 3.18265e-01 -1.03400e-02        00000 
 3.74210e-01 -1.74684e-02        00000 
 4.32736e-01 -2.41261e-02        00000 
 4.92460e-01 -2.97952e-02        00000 
 5.51685e-01 -3.37405e-02        00000 
 6.08841e-01 -3.52039e-02        00000 
 6.62871e-01 -3.36329e-02        00000 
 7.13387e-01 -2.88235e-02        00000 
 7.60582e-01 -2.09119e-02        00000 
 8.04973e-01 -1.02609e-02        00000 
 8.47224e-01  2.75264e-03        00000 
 8.85133e-01  1.76992e-02        00000 
 8.92586e-01  4.85503e-02        00000 
 3.95082e-02  2.44230e-02        00000 
 8.05726e-02  1.40436e-02        00000 
 1.21184e-01  4.32911e-03        00000 
 1.63278e-01 -4.39792e-03        00000 
 2.07984e-01 -1.21797e-02        00000 
 2.56008e-01 -1.91989e-02        00000 
 3.07681e-01 -2.57152e-02        00000 
 3.62701e-01 -3.19831e-02        00000 
 4.19958e-01 -3.80937e-02        00000 
 4.77645e-01 -4.37655e-02        00000 
 5.33748e-01 -4.82551e-02        00000 
 5.86683e-01 -5.05411e-02        00000 
 6.35719e-01 -4.97136e-02        00000 
 6.80963e-01 -4.52990e-02        00000 
 7.23015e-01 -3.73061e-02        00000 
 7.62498e-01 -2.59747e-02        00000 
 7.99255e-01 -1.13926e-02        00000 
 8.29404e-01  8.25535e-03        00000 
 8.57586e-01  2.57768e-02        00000 
 3.79163e-02  7.04586e-03        00000 
 7.58663e-02 -3.56502e-03        00000 
 1.14619e-01 -1.28820e-02        00000 
 1.54916e-01 -2.12199e-02        00000 
 1.97909e-01 -2.84933e-02        00000 
 2.44528e-01 -3.47583e-02        00000 
 2.95291e-01 -4.03005e-02        00000 
 3.49905e-01 -4.56349e-02        00000 
 4.06889e-01 -5.12687e-02        00000 
 4.63686e-01 -5.72128e-02        00000 
 5.17501e-01 -6.26028e-02        00000 
 5.66453e-01 -6.59187e-02        00000 
 6.10195e-01 -6.57437e-02        00000 
 6.49606e-01 -6.14033e-02        00000 
 6.85957e-01 -5.30094e-02        00000 
 7.20150e-01 -4.10733e-02        00000 
 7.52113e-01 -2.60163e-02        00000 
 7.82383e-01 -9.53082e-03        00000 
 8.13726e-01  5.84540e-03        00000 
 3.57138e-02 -9.37477e-03        00000 
 7.10434e-02 -1.97630e-02        00000 
 1.07357e-01 -2.90397e-02        00000 
 1.45400e-01 -3.72167e-02        00000 
 1.86224e-01 -4.41943e-02        00000 
 2.31047e-01 -4.98943e-02        00000 
 2.80865e-01 -5.45568e-02        00000 
 3.35733e-01 -5.89455e-02        00000 
 3.93842e-01 -6.41529e-02        00000 
 4.51331e-01 -7.06793e-02        00000 
 5.03784e-01 -7.74090e-02        00000 
 5.48629e-01 -8.19114e-02        00000 
 5.86255e-01 -8.20478e-02        00000 
 6.18962e-01 -7.71707e-02        00000 
 6.49154e-01 -6.79381e-02        00000 
 6.78277e-01 -5.54798e-02        00000 
 7.07008e-01 -4.10547e-02        00000 
 7.36073e-01 -2.59661e-02        00000 
 7.67092e-01 -1.11061e-02        00000 
 3.30282e-02 -2.40653e-02        00000 
 6.58161e-02 -3.41486e-02        00000 
 9.95650e-02 -4.34419e-02        00000 
 1.34952e-01 -5.18106e-02        00000 
 1.73073e-01 -5.89898e-02        00000 
 2.15507e-01 -6.47125e-02        00000 
 2.64079e-01 -6.90505e-02        00000 
 3.19858e-01 -7.28497e-02        00000 
 3.81061e-01 -7.78420e-02        00000 
 4.41631e-01 -8.53338e-02        00000 
 4.93813e-01 -9.37896e-02        00000 
 5.33725e-01 -9.91660e-02        00000 
 5.63524e-01 -9.85131e-02        00000 
 5.88283e-01 -9.18930e-02        00000 
 6.12005e-01 -8.10545e-02        00000 
 6.36540e-01 -6.78875e-02        00000 
 6.62388e-01 -5.37923e-02        00000 
 6.89792e-01 -3.96364e-02        00000 
 7.19296e-01 -2.56722e-02        00000 
 2.97922e-02 -3.61330e-02        00000 
 6.02027e-02 -4.58530e-02        00000 