<?xml version="1.0" encoding="utf-8"?>
<VTKFile byte_order="LittleEndian" type="UnstructuredGrid" version="0.1">
   <UnstructuredGrid>
      <Piece NumberOfCells="1444" NumberOfPoints="761">
         <Points>
            <DataArray Name="Points" NumberOfComponents="3" format="ascii" type="Float32">
-1.0000 -1.0000 0.0000
-1.0000 -0.8947 0.0000
-1.0000 -0.7895 0.0000
-1.0000 -0.6842 0.0000
-1.0000 -0.5789 0.0000
-1.0000 -0.4737 0.0000
-1.0000 -0.3684 0.0000
-1.0000 -0.2632 0.0000
-1.0000 -0.1579 0.0000
-1.0000 -0.0526 0.0000
-1.0000 0.0526 0.0000
-1.0000 0.1579 0.0000
-1.0000 0.2632 0.0000
-1.0000 0.3684 0.0000
-1.0000 0.4737 0.0000
-1.0000 0.5789 0.0000
-1.0000 0.6842 0.0000
-1.0000 0.7895 0.0000
-1.0000 0.8947 0.0000
-1.0000 1.0000 0.0000
-0.8947 -1.0000 0.0000
-0.8947 -0.8947 0.0000
-0.8947 -0.7895 0.0000
-0.8947 -0.6842 0.0000
-0.8947 -0.5789 0.0000
-0.8947 -0.4737 0.0000
-0.8947 -0.3684 0.0000
-0.8947 -0.2632 0.0000
-0.8947 -0.1579 0.0000
-0.8947 -0.0526 0.0000
-0.8947 0.0526 0.0000
-0.8947 0.1579 0.0000
-0.8947 0.2632 0.0000
-0.8947 0.3684 0.0000
-0.8947 0.4737 0.0000
-0.8947 0.5789 0.0000
-0.8947 0.6842 0.0000
-0.8947 0.7895 0.0000
-0.8947 0.8947 0.0000
-0.8947 1.0000 0.0000
-0.7895 -1.0000 0.0000
-0.7895 -0.8947 0.0000
-0.7895 -0.7895 0.0000
-0.7895 -0.6842 0.0000
-0.7895 -0.5789 0.0000
-0.7895 -0.4737 0.0000
-0.7895 -0.3684 0.0000
-0.7895 -0.2632 0.0000
-0.7895 -0.1579 0.0000
-0.7895 -0.0526 0.0000
-0.7895 0.0526 0.0000
-0.7895 0.1579 0.0000
-0.7895 0.2632 0.0000
-0.7895 0.3684 0.0000
-0.7895 0.4737 0.0000
-0.7895 0.5789 0.0000
-0.7895 0.6842 0.0000
-0.7895 0.7895 0.0000
-0.7895 0.8947 0.0000
-0.7895 1.0000 0.0000
-0.6842 -1.0000 0.0000
-0.6842 -0.8947 0.0000
-0.6842 -0.7895 0.0000
-0.6842 -0.6842 0.0000
-0.6842 -0.5789 0.0000
-0.6842 -0.4737 0.0000
-0.6842 -0.3684 0.0000
-0.6842 -0.2632 0.0000
-0.6842 -0.1579 0.0000
-0.6842 -0.0526 0.0000
-0.6842 0.0526 0.0000
-0.6842 0.1579 0.0000
-0.6842 0.2632 0.0000
-0.6842 0.3684 0.0000
-0.6842 0.4737 0.0000
-0.6842 0.5789 0.0000
-0.6842 0.6842 0.0000
-0.6842 0.7895 0.0000
-0.6842 0.8947 0.0000
-0.6842 1.0000 0.0000
-0.5789 -1.0000 0.0000
-0.5789 -0.8947 0.0000
-0.5789 -0.7895 0.0000
-0.5789 -0.6842 0.0000
-0.5789 -0.5789 0.0000
-0.5789 -0.4737 0.0000
-0.5789 -0.3684 0.0000
-0.5789 -0.2632 0.0000
-0.5789 -0.1579 0.0000
-0.5789 -0.0526 0.0000
-0.5789 0.0526 0.0000
-0.5789 0.1579 0.0000
-0.5789 0.2632 0.0000
-0.5789 0.3684 0.0000
-0.5789 0.4737 0.0000
-0.5789 0.5789 0.0000
-0.5789 0.6842 0.0000
-0.5789 0.7895 0.0000
-0.5789 0.8947 0.0000
-0.5789 1.0000 0.0000
-0.4737 -1.0000 0.0000
-0.4737 -0.8947 0.0000
-0.4737 -0.7895 0.0000
-0.4737 -0.6842 0.0000
-0.4737 -0.5789 0.0000
-0.4737 -0.4737 0.0000
-0.4737 -0.3684 0.0000
-0.4737 -0.2632 0.0000
-0.4737 -0.1579 0.0000
-0.4737 -0.0526 0.0000
-0.4737 0.0526 0.0000
-0.4737 0.1579 0.0000
-0.4737 0.2632 0.0000
-0.4737 0.3684 0.0000
-0.4737 0.4737 0.0000
-0.4737 0.5789 0.0000
-0.4737 0.6842 0.0000
-0.4737 0.7895 0.0000
-0.4737 0.8947 0.0000
-0.4737 1.0000 0.0000
-0.3684 -1.0000 0.0000
-0.3684 -0.8947 0.0000
-0.3684 -0.7895 0.0000
-0.3684 -0.6842 0.0000
-0.3684 -0.5789 0.0000
-0.3684 -0.4737 0.0000
-0.3684 -0.3684 0.0000
-0.3684 -0.2632 0.0000
-0.3684 -0.1579 0.0000
-0.3684 -0.0526 0.0000
-0.3684 0.0526 0.0000
-0.3684 0.1579 0.0000
-0.3684 0.2632 0.0000
-0.3684 0.3684 0.0000
-0.3684 0.4737 0.0000
-0.3684 0.5789 0.0000
-0.3684 0.6842 0.0000
-0.3684 0.7895 0.0000
-0.3684 0.8947 0.0000
-0.3684 1.0000 0.0000
-0.2632 -1.0000 0.0000
-0.2632 -0.8947 0.0000
-0.2632 -0.7895 0.0000
-0.2632 -0.6842 0.0000
-0.2632 -0.5789 0.0000
-0.2632 -0.4737 0.0000
-0.2632 -0.3684 0.0000
-0.2632 -0.2632 0.0000
-0.2632 -0.1579 0.0000
-0.2632 -0.0526 0.0000
-0.2632 0.0526 0.0000
-0.2632 0.1579 0.0000
-0.2632 0.2632 0.0000
-0.2632 0.3684 0.0000
-0.2632 0.4737 0.0000
-0.2632 0.5789 0.0000
-0.2632 0.6842 0.0000
-0.2632 0.7895 0.0000
-0.2632 0.8947 0.0000
-0.2632 1.0000 0.0000
-0.1579 -1.0000 0.0000
-0.1579 -0.8947 0.0000
-0.1579 -0.7895 0.0000
-0.1579 -0.6842 0.0000
-0.1579 -0.5789 0.0000
-0.1579 -0.4737 0.0000
-0.1579 -0.3684 0.0000
-0.1579 -0.2632 0.0000
-0.1579 -0.1579 0.0000
-0.1579 -0.0526 0.0000
-0.1579 0.0526 0.0000
-0.1579 0.1579 0.0000
-0.1579 0.2632 0.0000
-0.1579 0.3684 0.0000
-0.1579 0.4737 0.0000
-0.1579 0.5789 0.0000
-0.1579 0.6842 0.0000
-0.1579 0.7895 0.0000
-0.1579 0.8947 0.0000
-0.1579 1.0000 0.0000
-0.0526 -1.0000 0.0000
-0.0526 -0.8947 0.0000
-0.0526 -0.7895 0.0000
-0.0526 -0.6842 0.0000
-0.0526 -0.5789 0.0000
-0.0526 -0.4737 0.0000
-0.0526 -0.3684 0.0000
-0.0526 -0.2632 0.0000
-0.0526 -0.1579 0.0000
-0.0526 -0.0526 0.0000
-0.0526 0.0526 0.0000
-0.0526 0.1579 0.0000
-0.0526 0.2632 0.0000
-0.0526 0.3684 0.0000
-0.0526 0.4737 0.0000
-0.0526 0.5789 0.0000
-0.0526 0.6842 0.0000
-0.0526 0.7895 0.0000
-0.0526 0.8947 0.0000
-0.0526 1.0000 0.0000
0.0526 -1.0000 0.0000
0.0526 -0.8947 0.0000
0.0526 -0.7895 0.0000
0.0526 -0.6842 0.0000
0.0526 -0.5789 0.0000
0.0526 -0.4737 0.0000
0.0526 -0.3684 0.0000
0.0526 -0.2632 0.0000
0.0526 -0.1579 0.0000
0.0526 -0.0526 0.0000
0.0526 0.0526 0.0000
0.0526 0.1579 0.0000
0.0526 0.2632 0.0000
0.0526 0.3684 0.0000
0.0526 0.4737 0.0000
0.0526 0.5789 0.0000
0.0526 0.6842 0.0000
0.0526 0.7895 0.0000
0.0526 0.8947 0.0000
0.0526 1.0000 0.0000
0.1579 -1.0000 0.0000
0.1579 -0.8947 0.0000
0.1579 -0.7895 0.0000
0.1579 -0.6842 0.0000
0.1579 -0.5789 0.0000
0.1579 -0.4737 0.0000
0.1579 -0.3684 0.0000
0.1579 -0.2632 0.0000
0.1579 -0.1579 0.0000
0.1579 -0.0526 0.0000
0.1579 0.0526 0.0000
0.1579 0.1579 0.0000
0.1579 0.2632 0.0000
0.1579 0.3684 0.0000
0.1579 0.4737 0.0000
0.1579 0.5789 0.0000
0.1579 0.6842 0.0000
0.1579 0.7895 0.0000
0.1579 0.8947 0.0000
0.1579 1.0000 0.0000
0.2632 -1.0000 0.0000
0.2632 -0.8947 0.0000
0.2632 -0.7895 0.0000
0.2632 -0.6842 0.0000
0.2632 -0.5789 0.0000
0.2632 -0.4737 0.0000
0.2632 -0.3684 0.0000
0.2632 -0.2632 0.0000
0.2632 -0.1579 0.0000
0.2632 -0.0526 0.0000
0.2632 0.0526 0.0000
0.2632 0.1579 0.0000
0.2632 0.2632 0.0000
0.2632 0.3684 0.0000
0.2632 0.4737 0.0000
0.2632 0.5789 0.0000
0.2632 0.6842 0.0000
0.2632 0.7895 0.0000
0.2632 0.8947 0.0000
0.2632 1.0000 0.0000
0.3684 -1.0000 0.0000
0.3684 -0.8947 0.0000
0.3684 -0.7895 0.0000
0.3684 -0.6842 0.0000
0.3684 -0.5789 0.0000
0.3684 -0.4737 0.0000
0.3684 -0.3684 0.0000
0.3684 -0.2632 0.0000
0.3684 -0.1579 0.0000
0.3684 -0.0526 0.0000
0.3684 0.0526 0.0000
0.3684 0.1579 0.0000
0.3684 0.2632 0.0000
0.3684 0.3684 0.0000
0.3684 0.4737 0.0000
0.3684 0.5789 0.0000
0.3684 0.6842 0.0000
0.3684 0.7895 0.0000
0.3684 0.8947 0.0000
0.3684 1.0000 0.0000
0.4737 -1.0000 0.0000
0.4737 -0.8947 0.0000
0.4737 -0.7895 0.0000
0.4737 -0.6842 0.0000
0.4737 -0.5789 0.0000
0.4737 -0.4737 0.0000
0.4737 -0.3684 0.0000
0.4737 -0.2632 0.0000
0.4737 -0.1579 0.0000
0.4737 -0.0526 0.0000
0.4737 0.0526 0.0000
0.4737 0.1579 0.0000
0.4737 0.2632 0.0000
0.4737 0.3684 0.0000
0.4737 0.4737 0.0000
0.4737 0.5789 0.0000
0.4737 0.6842 0.0000
0.4737 0.7895 0.0000
0.4737 0.8947 0.0000
0.4737 1.0000 0.0000
0.5789 -1.0000 0.0000
0.5789 -0.8947 0.0000
0.5789 -0.7895 0.0000
0.5789 -0.6842 0.0000
0.5789 -0.5789 0.0000
0.5789 -0.4737 0.0000
0.5789 -0.3684 0.0000
0.5789 -0.2632 0.0000
0.5789 -0.1579 0.0000
0.5789 -0.0526 0.0000
0.5789 0.0526 0.0000
0.5789 0.1579 0.0000
0.5789 0.2632 0.0000
0.5789 0.3684 0.0000
0.5789 0.4737 0.0000
0.5789 0.5789 0.0000
0.5789 0.6842 0.0000
0.5789 0.7895 0.0000
0.5789 0.8947 0.0000
0.5789 1.0000 0.0000
0.6842 -1.0000 0.0000
0.6842 -0.8947 0.0000
0.6842 -0.7895 0.0000
0.6842 -0.6842 0.0000
0.6842 -0.5789 0.0000
0.6842 -0.4737 0.0000
0.6842 -0.3684 0.0000
0.6842 -0.2632 0.0000
0.6842 -0.1579 0.0000
0.6842 -0.0526 0.0000
0.6842 0.0526 0.0000
0.6842 0.1579 0.0000
0.6842 0.2632 0.0000
0.6842 0.3684 0.0000
0.6842 0.4737 0.0000
0.6842 0.5789 0.0000
0.6842 0.6842 0.0000
0.6842 0.7895 0.0000
0.6842 0.8947 0.0000
0.6842 1.0000 0.0000
0.7895 -1.0000 0.0000
0.7895 -0.8947 0.0000
0.7895 -0.7895 0.0000
0.7895 -0.6842 0.0000
0.7895 -0.5789 0.0000
0.7895 -0.4737 0.0000
0.7895 -0.3684 0.0000
0.7895 -0.2632 0.0000
0.7895 -0.1579 0.0000
0.7895 -0.0526 0.0000
0.7895 0.0526 0.0000
0.7895 0.1579 0.0000
0.7895 0.2632 0.0000
0.7895 0.3684 0.0000
0.7895 0.4737 0.0000
0.7895 0.5789 0.0000
0.7895 0.6842 0.0000
0.7895 0.7895 0.0000
0.7895 0.8947 0.0000
0.7895 1.0000 0.0000
0.8947 -1.0000 0.0000
0.8947 -0.8947 0.0000
0.8947 -0.7895 0.0000
0.8947 -0.6842 0.0000
0.8947 -0.5789 0.0000
0.8947 -0.4737 0.0000
0.8947 -0.3684 0.0000
0.8947 -0.2632 0.0000
0.8947 -0.1579 0.0000
0.8947 -0.0526 0.0000
0.8947 0.0526 0.0000
0.8947 0.1579 0.0000
0.8947 0.2632 0.0000
0.8947 0.3684 0.0000
0.8947 0.4737 0.0000
0.8947 0.5789 0.0000
0.8947 0.6842 0.0000
0.8947 0.7895 0.0000
0.8947 0.8947 0.0000
0.8947 1.0000 0.0000
1.0000 -1.0000 0.0000
1.0000 -0.8947 0.0000
1.0000 -0.7895 0.0000
1.0000 -0.6842 0.0000
1.0000 -0.5789 0.0000
1.0000 -0.4737 0.0000
1.0000 -0.3684 0.0000
1.0000 -0.2632 0.0000
1.0000 -0.1579 0.0000
1.0000 -0.0526 0.0000
1.0000 0.0526 0.0000
1.0000 0.1579 0.0000
1.0000 0.2632 0.0000
1.0000 0.3684 0.0000
1.0000 0.4737 0.0000
1.0000 0.5789 0.0000
1.0000 0.6842 0.0000
1.0000 0.7895 0.0000
1.0000 0.8947 0.0000
1.0000 1.0000 0.0000
-0.9474 -0.9474 0.0000
-0.9474 -0.8421 0.0000
-0.9474 -0.7368 0.0000
-0.9474 -0.6316 0.0000
-0.9474 -0.5263 0.0000
-0.9474 -0.4211 0.0000
-0.9474 -0.3158 0.0000
-0.9474 -0.2105 0.0000
-0.9474 -0.1053 0.0000
-0.9474 0.0000 0.0000
-0.9474 0.1053 0.0000
-0.9474 0.2105 0.0000
-0.9474 0.3158 0.0000
-0.9474 0.4211 0.0000
-0.9474 0.5263 0.0000
-0.9474 0.6316 0.0000
-0.9474 0.7368 0.0000
-0.9474 0.8421 0.0000
-0.9474 0.9474 0.0000
-0.8421 -0.9474 0.0000
-0.8421 -0.8421 0.0000
-0.8421 -0.7368 0.0000
-0.8421 -0.6316 0.0000
-0.8421 -0.5263 0.0000
-0.8421 -0.4211 0.0000
-0.8421 -0.3158 0.0000
-0.8421 -0.2105 0.0000
-0.8421 -0.1053 0.0000
-0.8421 0.0000 0.0000
-0.8421 0.1053 0.0000
-0.8421 0.2105 0.0000
-0.8421 0.3158 0.0000
-0.8421 0.4211 0.0000
-0.8421 0.5263 0.0000
-0.8421 0.6316 0.0000
-0.8421 0.7368 0.0000
-0.8421 0.8421 0.0000
-0.8421 0.9474 0.0000
-0.7368 -0.9474 0.0000
-0.7368 -0.8421 0.0000
[...]
         <PointData>
            <DataArray Name="fValues" NumberOfComponents="3" format="ascii" type="Float64">
 5.50310e-02  1.71327e-02        00000 
 5.12308e-02  7.23328e-02        00000 
 4.39284e-02  1.24724e-01        00000 
 3.55027e-02  1.77169e-01        00000 
 2.57741e-02  2.29480e-01        00000 
 1.46682e-02  2.81274e-01        00000 
 2.35824e-03  3.32126e-01        00000 
-1.05876e-02  3.81676e-01        00000 
-2.31711e-02  4.29793e-01        00000 
-3.39130e-02  4.76801e-01        00000 
-4.13434e-02  5.23369e-01        00000 
-4.43289e-02  5.70372e-01        00000 
-4.23313e-02  6.18480e-01        00000 
-3.54592e-02  6.68023e-01        00000 
-2.44931e-02  7.18873e-01        00000 
-1.04252e-02  7.70668e-01        00000 
 5.76318e-03  8.22984e-01        00000 
 2.33447e-02  8.75436e-01        00000 
 4.18363e-02  9.27835e-01        00000 
 5.51422e-02  9.70274e-01        00000 
 3.83268e-02  1.99426e-02        00000 
 3.21151e-02  6.97489e-02        00000 
 2.58328e-02  1.20564e-01        00000 
 1.83071e-02  1.70954e-01        00000 
 9.99980e-03  2.20894e-01        00000 
 8.66420e-04  2.70091e-01        00000 
-9.06493e-03  3.18205e-01        00000 
-1.94508e-02  3.64988e-01        00000 
-3.00106e-02  4.10572e-01        00000 
-3.97405e-02  4.55356e-01        00000 
-4.75026e-02  4.99923e-01        00000 
-5.19801e-02  5.45359e-01        00000 
-5.23156e-02  5.91846e-01        00000 
-4.79652e-02  6.39579e-01        00000 
-3.91703e-02  6.88349e-01        00000 
-2.67803e-02  7.37747e-01        00000 
-1.17043e-02  7.87443e-01        00000 
 5.15074e-03  8.37140e-01        00000 
 2.32178e-02  8.86608e-01        00000 
 3.84351e-02  9.37726e-01        00000 
 2.21931e-02  2.03196e-02        00000 
 1.57456e-02  6.78545e-02        00000 
 9.45952e-03  1.15575e-01        00000 
 2.95654e-03  1.63410e-01        00000 
-3.86614e-03  2.10898e-01        00000 
-1.09500e-02  2.57699e-01        00000 
-1.85841e-02  3.03385e-01        00000 
-2.65837e-02  3.47755e-01        00000 
-3.55623e-02  3.91325e-01        00000 
-4.47087e-02  4.33419e-01        00000 
-5.34663e-02  4.76338e-01        00000 
-6.01835e-02  5.20531e-01        00000 
-6.29035e-02  5.66295e-01        00000 
-6.08389e-02  6.12371e-01        00000 
-5.35739e-02  6.59302e-01        00000 
-4.23143e-02  7.06308e-01        00000 
-2.79435e-02  7.53290e-01        00000 
-1.15338e-02  8.00305e-01        00000 
 5.48824e-03  8.47787e-01        00000 
 2.22898e-02  8.95142e-01        00000 
 7.63523e-03  2.03619e-02        00000 
 1.24254e-03  6.47986e-02        00000 
-4.80719e-03  1.09524e-01        00000 
-1.05805e-02  1.54464e-01        00000 
-1.60166e-02  1.99369e-01        00000 
-2.09921e-02  2.43638e-01        00000 
-2.68828e-02  2.88554e-01        00000 
-3.22316e-02  3.30526e-01        00000 
-3.94954e-02  3.71826e-01        00000 
-4.89583e-02  4.12918e-01        00000 
-5.97061e-02  4.54834e-01        00000 
-6.91645e-02  4.97780e-01        00000 
-7.44618e-02  5.41880e-01        00000 
-7.43607e-02  5.86290e-01        00000 
-6.78055e-02  6.32225e-01        00000 
-5.69609e-02  6.76227e-01        00000 
-4.27812e-02  7.19934e-01        00000 
-2.66534e-02  7.63572e-01        00000 
-9.63902e-03  8.07392e-01        00000 
 7.71801e-03  8.51567e-01        00000 
-4.80776e-03  1.97642e-02        00000 
-1.11786e-02  6.05984e-02        00000 
-1.70539e-02  1.01878e-01        00000 
-2.23132e-02  1.43673e-01        00000 
-2.67813e-02  1.86182e-01        00000 
-3.02896e-02  2.28628e-01        00000 
-3.31620e-02  2.70460e-01        00000 
-3.62879e-02  3.11944e-01        00000 
-4.20326e-02  3.52592e-01        00000 
-5.21621e-02  3.93433e-01        00000 
-6.58846e-02  4.34881e-01        00000 
-7.92555e-02  4.78119e-01        00000 
-8.73746e-02  5.22143e-01        00000 
-8.82809e-02  5.65056e-01        00000 
-8.19316e-02  6.06430e-01        00000 
-7.03249e-02  6.46846e-01        00000 
-5.56878e-02  6.86765e-01        00000 
-3.93901e-02  7.26038e-01        00000 
-2.22862e-02  7.65636e-01        00000 
-4.73934e-03  8.05887e-01        00000 
-1.47521e-02  1.83486e-02        00000 
-2.12101e-02  5.49991e-02        00000 
-2.70831e-02  9.22616e-02        00000 
-3.21260e-02  1.30248e-01        00000 
-3.60200e-02  1.69292e-01        00000 
-3.80404e-02  2.08675e-01        00000 
-3.87219e-02  2.49159e-01        00000 
-3.95343e-02  2.90766e-01        00000 
-4.31214e-02  3.32882e-01        00000 
-5.40410e-02  3.74654e-01        00000 
-7.25291e-02  4.18487e-01        00000 
-9.13988e-02  4.62540e-01        00000 
-1.02178e-01  5.07185e-01        00000 
-1.02567e-01  5.47611e-01        00000 
-9.46090e-02  5.84739e-01        00000 
-8.15818e-02  6.19058e-01        00000 
-6.57929e-02  6.53274e-01        00000 
-4.92008e-02  6.87097e-01        00000 
-3.21046e-02  7.21753e-01        00000 
-1.46974e-02  7.57524e-01        00000 
-2.18403e-02  1.59329e-02        00000 
-2.84873e-02  4.78597e-02        00000 
-3.45302e-02  8.04455e-02        00000 
-3.97286e-02  1.14183e-01        00000 
-4.32719e-02  1.48283e-01        00000 
-4.45944e-02  1.83909e-01        00000 
-4.37699e-02  2.22221e-01        00000 
-4.18572e-02  2.61858e-01        00000 
-4.51326e-02  3.06730e-01        00000 
-5.92955e-02  3.62382e-01        00000 
-8.30747e-02  4.17196e-01        00000 
-1.05986e-01  4.64136e-01        00000 
-1.18040e-01  5.01206e-01        00000 
-1.15860e-01  5.33808e-01        00000 
-1.04468e-01  5.63936e-01        00000 
-8.90888e-02  5.90810e-01        00000 
-7.23736e-02  6.17162e-01        00000 
-5.55621e-02  6.45787e-01        00000 
-3.87317e-02  6.75012e-01        00000 
-2.17988e-02  7.05853e-01        00000 
-2.58019e-02  1.24347e-02        00000 
-3.26805e-02  3.92768e-02        00000 
-3.88858e-02  6.65250e-02        00000 
-4.41852e-02  9.43826e-02        00000 
-4.75239e-02  1.22374e-01        00000 
-4.87500e-02  1.52001e-01        00000 
-4.60809e-02  1.82964e-01        00000 
-3.96138e-02  2.14510e-01        00000 
-4.79027e-02  2.59403e-01        00000 
-7.38324e-02  3.44274e-01        00000 
-9.05521e-02  4.56173e-01        00000 
-1.17249e-01  4.86261e-01        00000 
-1.31480e-01  5.08739e-01        00000 
-1.25182e-01  5.24539e-01        00000 
-1.09528e-01  5.41903e-01        00000 
-9.19336e-02  5.59948e-01        00000 
-7.43849e-02  5.79148e-01        00000 
-5.81213e-02  6.01083e-01        00000 
-4.19697e-02  6.24863e-01        00000 
-2.57709e-02  6.50592e-01        00000 
-2.65818e-02  7.93606e-03        00000 
-3.36220e-02  2.96967e-02        00000 
-3.99441e-02  5.17777e-02        00000 
-4.49976e-02  7.31697e-02        00000 
-4.82024e-02  9.41576e-02        00000 
-4.90041e-02  1.15294e-01        00000 
-4.24442e-02  1.32603e-01        00000 
-2.64840e-02  1.46446e-01        00000 
-4.53161e-02  2.07773e-01        00000 
-8.29043e-02  2.95255e-01        00000 
-9.75184e-02  3.76564e-01        00000 
-1.17370e-01  4.52709e-01        00000 
-1.41559e-01  5.01714e-01        00000 
-1.28547e-01  5.06773e-01        00000 
-1.07283e-01  5.11367e-01        00000 
-8.93261e-02  5.21599e-01        00000 
-7.24773e-02  5.35109e-01        00000 
-5.67837e-02  5.51581e-01        00000 
-4.19598e-02  5.71042e-01        00000 
-2.65643e-02  5.91969e-01        00000 
-2.44345e-02  2.71712e-03        00000 
-3.14762e-02  1.98779e-02        00000 
-3.76218e-02  3.69530e-02        00000 
-4.20362e-02  5.25007e-02        00000 
-4.43596e-02  6.63637e-02        00000 
-4.38782e-02  7.82553e-02        00000 
-3.26131e-02  8.35985e-02        00000 
-1.34726e-02  8.94705e-02        00000 
-4.19377e-02  1.58905e-01        00000 
-7.83843e-02  2.42068e-01        00000 
-9.68013e-02  3.02703e-01        00000 
-1.25353e-01  3.85026e-01        00000 
-1.49646e-01  4.48561e-01        00000 
-1.26443e-01  4.66053e-01        00000 
-9.92391e-02  4.66223e-01        00000 
-8.29627e-02  4.73457e-01        00000 
-6.75662e-02  4.84347e-01        00000 
-5.27701e-02  4.97995e-01        00000 
-3.92268e-02  5.14072e-01        00000 
-2.44341e-02  5.30925e-01        00000 
-1.99286e-02 -2.76367e-03        00000 
-2.68175e-02  1.07184e-02        00000 
-3.24986e-02  2.37362e-02        00000 
-3.59955e-02  3.47866e-02        00000 
-3.70745e-02  4.35364e-02        00000 
-3.49427e-02  4.94943e-02        00000 
-2.42022e-02  4.97194e-02        00000 
-1.50640e-02  6.52494e-02        00000 
-4.20034e-02  1.22423e-01        00000 
-7.10812e-02  1.98100e-01        00000 
-8.97318e-02  2.55189e-01        00000 
-1.26043e-01  3.32122e-01        00000 
-1.51505e-01  3.93885e-01        00000 
-1.17941e-01  4.00496e-01        00000 
-9.02276e-02  4.05862e-01        00000 
-7.56748e-02  4.16497e-01        00000 
-6.15297e-02  4.28232e-01        00000 
-4.76788e-02  4.41198e-01        00000 
-3.45871e-02  4.55220e-01        00000 
-1.99392e-02  4.69010e-01        00000 
-1.38180e-02 -7.97639e-03        00000 
-2.04403e-02  2.92044e-03        00000 
-2.55431e-02  1.31488e-02        00000 
-2.83590e-02  2.16179e-02        00000 
-2.85188e-02  2.81945e-02        00000 
-2.59205e-02  3.29823e-02        00000 
-1.91128e-02  3.46129e-02        00000 
-1.51864e-02  3.74423e-02        00000 
-3.94358e-02  7.55521e-02        00000 
-6.14039e-02  1.33042e-01        00000 
-7.88603e-02  1.96082e-01        00000 
-1.13321e-01  2.65856e-01        00000 
-1.30502e-01  3.14287e-01        00000 
-1.05170e-01  3.25893e-01        00000 
-8.41821e-02  3.40257e-01        00000 
-6.96629e-02  3.55935e-01        00000 
-5.58883e-02  3.69993e-01        00000 
-4.23730e-02  3.83371e-01        00000 
-2.88047e-02  3.96221e-01        00000 
-1.38433e-02  4.07971e-01        00000 
-6.83055e-03 -1.24624e-02        00000 
-1.31754e-02 -3.16828e-03        00000 
-1.77864e-02  5.35428e-03        00000 
-2.06335e-02  1.31016e-02        00000 
-2.08182e-02  1.96706e-02        00000 
-1.92172e-02  2.60540e-02        00000 
-1.70605e-02  3.28769e-02        00000 
-1.77388e-02  3.98241e-02        00000 
-3.01938e-02  5.20589e-02        00000 
-5.17072e-02  6.96383e-02        00000 
-7.52485e-02  1.42907e-01        00000 
-9.95213e-02  2.01979e-01        00000 
-1.09615e-01  2.36801e-01        00000 
-9.62268e-02  2.59469e-01        00000 
-7.99227e-02  2.79892e-01        00000 
-6.52147e-02  2.97876e-01        00000 
-5.08974e-02  3.13268e-01        00000 
-3.70868e-02  3.26972e-01        00000 
-2.25188e-02  3.38957e-01        00000 
-6.86494e-03  3.49360e-01        00000 
 5.04202e-04 -1.59439e-02        00000 
-5.64467e-03 -7.59960e-03        00000 
-1.02372e-02  2.46111e-04        00000 
-1.35374e-02  8.06961e-03        00000 
-1.49134e-02  1.55756e-02        00000 
-1.55477e-02  2.41799e-02        00000 
-1.74455e-02  3.55824e-02        00000 
-2.25815e-02  4.97969e-02        00000 
-3.52636e-02  6.82571e-02        00000 
-5.58071e-02  9.42376e-02        00000 
-7.94472e-02  1.26790e-01        00000 
-9.60013e-02  1.61031e-01        00000 
-9.87593e-02  1.87035e-01        00000 
-8.95539e-02  2.08279e-01        00000 
-7.54245e-02  2.27864e-01        00000 
-6.06607e-02  2.45212e-01        00000 
-4.63422e-02  2.60493e-01        00000 
-3.13781e-02  2.73553e-01        00000 
-1.59629e-02  2.84681e-01        00000 
 4.65011e-04  2.94114e-01        00000 
 7.92756e-03 -1.83409e-02        00000 
 1.86680e-03 -1.06750e-02        00000 
-2.96557e-03 -3.23938e-03        00000 
-6.76279e-03  4.31166e-03        00000 
-1.01130e-02  1.27183e-02        00000 
-1.32787e-02  2.25065e-02        00000 
-1.83606e-02  3.51166e-02        00000 
-2.69903e-02  5.10988e-02        00000 
-4.10785e-02  7.13024e-02        00000 
-5.97518e-02  9.29195e-02        00000 
-7.81454e-02  1.14357e-01        00000 
-8.91676e-02  1.33354e-01        00000 
-8.95885e-02  1.51063e-01        00000 
-8.21951e-02  1.68089e-01        00000 
-6.98382e-02  1.84044e-01        00000 
-5.57071e-02  1.98895e-01        00000 
-4.04913e-02  2.12148e-01        00000 
-2.51621e-02  2.23849e-01        00000 
-9.11061e-03  2.33901e-01        00000 
 7.88133e-03  2.42459e-01        00000 
 1.54129e-02 -1.97374e-02        00000 
 9.37886e-03 -1.27862e-02        00000 
 4.26119e-03 -5.96081e-03        00000 
-4.58858e-04  1.17717e-03        00000 
-5.49527e-03  9.43814e-03        00000 
-1.11556e-02  1.92076e-02        00000 
-1.86917e-02  3.12174e-02        00000 
-2.90386e-02  4.53637e-02        00000 
-4.26523e-02  6.15816e-02        00000 
-5.80596e-02  7.81603e-02        00000 
-7.17277e-02  9.35982e-02        00000 
-7.97404e-02  1.07704e-01        00000 
-8.00497e-02  1.20601e-01        00000 
-7.37832e-02  1.33375e-01        00000 
-6.27489e-02  1.45692e-01        00000 
-4.90621e-02  1.57511e-01        00000 
-3.38887e-02  1.68378e-01        00000 
-1.81540e-02  1.78043e-01        00000 
-1.82664e-03  1.86560e-01        00000 
 1.53595e-02  1.94113e-01        00000 
 2.30127e-02 -2.03182e-02        00000 
 1.71048e-02 -1.42499e-02        00000 
 1.19085e-02 -8.46646e-03        00000 
 6.41825e-03 -2.43492e-03        00000 
 4.02255e-05  4.56995e-03        00000 
-7.57241e-03  1.31000e-02        00000 
-1.71342e-02  2.35411e-02        00000 
-2.82419e-02  3.53260e-02        00000 
-4.10018e-02  4.78335e-02        00000 
-5.39680e-02  6.02974e-02        00000 
-6.46439e-02  7.19663e-02        00000 
-7.05513e-02  8.24919e-02        00000 
-7.03882e-02  9.22307e-02        00000 
-6.45038e-02  1.01486e-01        00000 
-5.43281e-02  1.11014e-01        00000 
-4.09372e-02  1.19857e-01        00000 
-2.58366e-02  1.28054e-01        00000 
-1.00199e-02  1.35393e-01        00000 
 6.11170e-03  1.42095e-01        00000 
 2.29514e-02  1.48448e-01        00000 
 3.05552e-02 -2.02622e-02        00000 
 2.53546e-02 -1.52705e-02        00000 
 2.07011e-02 -1.11030e-02        00000 
 1.45706e-02 -6.97622e-03        00000 
 6.81429e-03 -1.66859e-03        00000 
-2.29857e-03  4.90678e-03        00000 
-1.28508e-02  1.27303e-02        00000 
-2.45496e-02  2.15394e-02        00000 
-3.69047e-02  3.12245e-02        00000 
-4.83326e-02  4.06949e-02        00000 
-5.70651e-02  4.93834e-02        00000 
-6.14730e-02  5.70601e-02        00000 
-6.07308e-02  6.43652e-02        00000 
-5.49143e-02  7.13726e-02        00000 
-4.49040e-02  7.80999e-02        00000 
-3.16530e-02  8.44765e-02        00000 
-1.63835e-02  9.02997e-02        00000 
-3.82177e-04  9.52616e-02        00000 
 1.49711e-02  9.96871e-02        00000 
 3.04863e-02  1.04884e-01        00000 
 3.64206e-02 -1.98745e-02        00000 
 3.50579e-02 -1.55051e-02        00000 
 3.17941e-02 -1.49827e-02        00000 
 2.42388e-02 -1.24994e-02        00000 
 1.53209e-02 -9.04075e-03        00000 
 5.06583e-03 -4.75049e-03        00000 
-6.40168e-03  3.91696e-04        00000 
-1.86285e-02  6.28841e-03        00000 
-3.07326e-02  1.26794e-02        00000 
-4.13918e-02  1.92185e-02        00000 
-4.91147e-02  2.55448e-02        00000 
-5.26525e-02  3.14716e-02        00000 
-5.13403e-02  3.69019e-02        00000 
-4.51890e-02  4.18353e-02        00000 
-3.49276e-02  4.63282e-02        00000 
-2.14711e-02  5.04173e-02        00000 
-5.83111e-03  5.41325e-02        00000 
 1.10090e-02  5.73282e-02        00000 
 2.60180e-02  5.92246e-02        00000 
 3.63443e-02  6.23076e-02        00000 
 3.54605e-02 -1.70487e-02        00000 
 5.12839e-02 -2.12563e-02        00000 
 4.39551e-02 -1.97205e-02        00000 
 3.55018e-02 -1.82635e-02        00000 
 2.57427e-02 -1.68720e-02        00000 
 1.46028e-02 -1.51184e-02        00000 
 2.25525e-03 -1.28047e-02        00000 
-1.07092e-02 -9.83360e-03        00000 
-2.32557e-02 -6.23322e-03        00000 
-3.39669e-02 -2.17407e-03        00000 
-4.13691e-02  2.04771e-03        00000 
-4.43231e-02  6.10374e-03        00000 
-4.22870e-02  9.69891e-03        00000 
-3.54315e-02  1.26673e-02        00000 
-2.45007e-02  1.49837e-02        00000 
-1.04641e-02  1.67443e-02        00000 
 5.69662e-03  1.81466e-02        00000 
 2.32534e-02  1.96175e-02        00000 
 4.17217e-02  2.11701e-02        00000 
 3.53767e-02  2.97721e-02        00000 
 4.35017e-02  4.44878e-02        00000 
 3.80798e-02  9.69699e-02        00000 
 3.06358e-02  1.48465e-01        00000 
 2.20996e-02  1.99802e-01        00000 
 1.25025e-02  2.50681e-01        00000 
 1.86475e-03  3.00721e-01        00000 
-9.53173e-03  3.49567e-01        00000 
-2.11234e-02  3.97022e-01        00000 
-3.19868e-02  4.43253e-01        00000 
-4.08611e-02  4.88828e-01        00000 
-4.64834e-02  5.34577e-01        00000 
-4.79421e-02  5.81214e-01        00000 
-4.47436e-02  6.29167e-01        00000 
-3.70319e-02  6.78435e-01        00000 
-2.55170e-02  7.28699e-01        00000 
-1.11141e-02  7.79572e-01        00000 
 5.29422e-03  8.30660e-01        00000 
 2.30211e-02  8.81702e-01        00000 
 4.07427e-02  9.30850e-01        00000 
 2.68112e-02  4.44369e-02        00000 
 2.04014e-02  9.34351e-02        00000 
 1.38197e-02  1.42754e-01        00000 
 6.54270e-03  1.91725e-01        00000 
-1.28693e-03  2.40152e-01        00000 
-9.73034e-03  2.87640e-01        00000 
-1.87109e-02  3.33845e-01        00000 
-2.81627e-02  3.78795e-01        00000 
-3.77842e-02  4.22688e-01        00000 
-4.65524e-02  4.66152e-01        00000 
-5.34321e-02  5.10201e-01        00000 
-5.70068e-02  5.55966e-01        00000 
-5.61668e-02  6.02298e-01        00000 
-5.06088e-02  6.49731e-01        00000 
-4.07593e-02  6.97783e-01        00000 
-2.75249e-02  7.46109e-01        00000 
-1.18429e-02  7.94489e-01        00000 
 5.33242e-03  8.42829e-01        00000 
 2.18874e-02  8.92014e-01        00000 
 1.13168e-02  4.33405e-02        00000 
 5.03581e-03  8.94676e-02        00000 
-1.10488e-03  1.35835e-01        00000 
-7.19984e-03  1.82209e-01        00000 
-1.32832e-02  2.28197e-01        00000 
-1.94023e-02  2.73487e-01        00000 
-2.61146e-02  3.17284e-01        00000 
-3.37510e-02  3.60592e-01        00000 
-4.22922e-02  4.02321e-01        00000 
-5.18352e-02  4.44136e-01        00000 
-6.07699e-02  4.87055e-01        00000 
-6.68671e-02  5.31272e-01        00000 
-6.81197e-02  5.76665e-01        00000 
-6.44516e-02  6.22323e-01        00000 
-5.55232e-02  6.68436e-01        00000 
-4.29097e-02  7.13915e-01        00000 
-2.76502e-02  7.59240e-01        00000 
-1.10421e-02  8.04763e-01        00000 
 6.06676e-03  8.50542e-01        00000 
-2.22744e-03  4.13835e-02        00000 
-8.38004e-03  8.42217e-02        00000 
-1.40820e-02  1.27450e-01        00000 
-1.92441e-02  1.70949e-01        00000 
-2.37610e-02  2.14796e-01        00000 
-2.82133e-02  2.58216e-01        00000 
-3.21896e-02  3.00658e-01        00000 
-3.75699e-02  3.41795e-01        00000 
-4.57043e-02  3.82632e-01        00000 
-5.67419e-02  4.23652e-01        00000 
-6.84698e-02  4.65910e-01        00000 
-7.76167e-02  5.09828e-01        00000 
-8.12719e-02  5.53588e-01        00000 
-7.86612e-02  5.97407e-01        00000 
-6.96319e-02  6.40332e-01        00000 
-5.69808e-02  6.82645e-01        00000 
-4.16743e-02  7.24098e-01        00000 
-2.50200e-02  7.65671e-01        00000 
-7.72710e-03  8.07645e-01        00000 
-1.35101e-02  3.84167e-02        00000 
-1.96337e-02  7.74348e-02        00000 
-2.51143e-02  1.17052e-01        00000 
-2.97386e-02  1.57548e-01        00000 
-3.31607e-02  1.98437e-01        00000 
-3.52218e-02  2.39426e-01        00000 
-3.69414e-02  2.80892e-01        00000 
-4.00406e-02  3.22141e-01        00000 
-4.76363e-02  3.63134e-01        00000 
-6.08033e-02  4.04543e-01        00000 
-7.70576e-02  4.47737e-01        00000 
-9.00818e-02  4.92541e-01        00000 
-9.54145e-02  5.35565e-01        00000 
-9.24267e-02  5.76314e-01        00000 
-8.28362e-02  6.14344e-01        00000 
-6.89978e-02  6.51437e-01        00000 
-5.31855e-02  6.88305e-01        00000 
-3.63633e-02  7.25130e-01        00000 
-1.90168e-02  7.62683e-01        00000 
-2.21629e-02  3.42614e-02        00000 
-2.84134e-02  6.88703e-02        00000 