<?xml version="1.0" encoding="utf-8"?>
<VTKFile byte_order="LittleEndian" type="UnstructuredGrid" version="0.1">
   <UnstructuredGrid>
      <Piece NumberOfCells="1136" NumberOfPoints="664">
         <Points>
            <DataArray Name="Points" NumberOfComponents="3" format="ascii" type="Float32">
0.0000 0.0526 0.0000
0.0000 0.1053 0.0000
0.0000 0.1579 0.0000
0.0000 0.2105 0.0000
0.0000 0.2632 0.0000
0.0000 0.3158 0.0000
0.0000 0.3684 0.0000
0.0000 0.4211 0.0000
0.0000 0.4737 0.0000
0.0000 0.5263 0.0000
0.0000 0.5789 0.0000
0.0000 0.6316 0.0000
0.0000 0.6842 0.0000
0.0000 0.7368 0.0000
0.0000 0.7895 0.0000
0.0000 0.8421 0.0000
0.0000 0.8947 0.0000
0.0000 0.9474 0.0000
0.0000 1.0000 0.0000
0.0526 0.0526 0.0000
0.0526 0.1053 0.0000
0.0526 0.1579 0.0000
0.0526 0.2105 0.0000
0.0526 0.2632 0.0000
0.0526 0.3158 0.0000
0.0526 0.3684 0.0000
0.0526 0.4211 0.0000
0.0526 0.4737 0.0000
0.0526 0.5263 0.0000
0.0526 0.5789 0.0000
0.0526 0.6316 0.0000
0.0526 0.6842 0.0000
0.0526 0.7368 0.0000
0.0526 0.7895 0.0000
0.0526 0.8421 0.0000
0.0526 0.8947 0.0000
0.0526 0.9474 0.0000
0.0526 1.0000 0.0000
0.1053 0.0526 0.0000
0.1053 0.1053 0.0000
0.1053 0.1579 0.0000
0.1053 0.2105 0.0000
0.1053 0.2632 0.0000
0.1053 0.3158 0.0000
0.1053 0.3684 0.0000
0.1053 0.4211 0.0000
0.1053 0.4737 0.0000
0.1053 0.5263 0.0000
0.1053 0.5789 0.0000
0.1053 0.6316 0.0000
0.1053 0.6842 0.0000
0.1053 0.7368 0.0000
0.1053 0.7895 0.0000
0.1053 0.8421 0.0000
0.1053 0.8947 0.0000
0.1053 0.9474 0.0000
0.1053 1.0000 0.0000
0.1579 0.0526 0.0000
0.1579 0.1053 0.0000
0.1579 0.1579 0.0000
0.1579 0.2105 0.0000
0.1579 0.2632 0.0000
0.1579 0.3158 0.0000
0.1579 0.3684 0.0000
0.1579 0.4211 0.0000
0.1579 0.4737 0.0000
0.1579 0.5263 0.0000
0.1579 0.5789 0.0000
0.1579 0.6316 0.0000
0.1579 0.6842 0.0000
0.1579 0.7368 0.0000
0.1579 0.7895 0.0000
0.1579 0.8421 0.0000
0.1579 0.8947 0.0000
0.1579 0.9474 0.0000
0.1579 1.0000 0.0000
0.2105 0.0526 0.0000
0.2105 0.1053 0.0000
0.2105 0.1579 0.0000
0.2105 0.2105 0.0000
0.2105 0.2632 0.0000
0.2105 0.3158 0.0000
0.2105 0.3684 0.0000
0.2105 0.6842 0.0000
0.2105 0.7368 0.0000
0.2105 0.7895 0.0000
0.2105 0.8421 0.0000
0.2105 0.8947 0.0000
0.2105 0.9474 0.0000
0.2105 1.0000 0.0000
0.2632 0.0526 0.0000
0.2632 0.1053 0.0000
0.2632 0.1579 0.0000
0.2632 0.2105 0.0000
0.2632 0.2632 0.0000
0.2632 0.7895 0.0000
0.2632 0.8421 0.0000
0.2632 0.8947 0.0000
0.2632 0.9474 0.0000
0.2632 1.0000 0.0000
0.3158 0.0526 0.0000
0.3158 0.1053 0.0000
0.3158 0.1579 0.0000
0.3158 0.2105 0.0000
0.3158 0.8421 0.0000
0.3158 0.8947 0.0000
0.3158 0.9474 0.0000
0.3158 1.0000 0.0000
0.3684 0.0526 0.0000
0.3684 0.1053 0.0000
0.3684 0.1579 0.0000
0.3684 0.2105 0.0000
0.3684 0.8421 0.0000
0.3684 0.8947 0.0000
0.3684 0.9474 0.0000
0.3684 1.0000 0.0000
0.4211 0.0526 0.0000
0.4211 0.1053 0.0000
0.4211 0.1579 0.0000
0.4211 0.8947 0.0000
0.4211 0.9474 0.0000
0.4211 1.0000 0.0000
0.4737 0.0526 0.0000
0.4737 0.1053 0.0000
0.4737 0.1579 0.0000
0.4737 0.8947 0.0000
0.4737 0.9474 0.0000
0.4737 1.0000 0.0000
0.5263 0.0526 0.0000
0.5263 0.1053 0.0000
0.5263 0.1579 0.0000
0.5263 0.8947 0.0000
0.5263 0.9474 0.0000
0.5263 1.0000 0.0000
0.5789 0.0526 0.0000
0.5789 0.1053 0.0000
0.5789 0.1579 0.0000
0.5789 0.8947 0.0000
0.5789 0.9474 0.0000
0.5789 1.0000 0.0000
0.6316 0.0526 0.0000
0.6316 0.1053 0.0000
0.6316 0.1579 0.0000
0.6316 0.2105 0.0000
0.6316 0.8421 0.0000
0.6316 0.8947 0.0000
0.6316 0.9474 0.0000
0.6316 1.0000 0.0000
0.6842 0.0526 0.0000
0.6842 0.1053 0.0000
0.6842 0.1579 0.0000
0.6842 0.2105 0.0000
0.6842 0.8421 0.0000
0.6842 0.8947 0.0000
0.6842 0.9474 0.0000
0.6842 1.0000 0.0000
0.7368 0.0526 0.0000
0.7368 0.1053 0.0000
0.7368 0.1579 0.0000
0.7368 0.2105 0.0000
0.7368 0.2632 0.0000
0.7368 0.7895 0.0000
0.7368 0.8421 0.0000
0.7368 0.8947 0.0000
0.7368 0.9474 0.0000
0.7368 1.0000 0.0000
0.7895 0.0526 0.0000
0.7895 0.1053 0.0000
0.7895 0.1579 0.0000
0.7895 0.2105 0.0000
0.7895 0.2632 0.0000
0.7895 0.3158 0.0000
0.7895 0.3684 0.0000
0.7895 0.6842 0.0000
0.7895 0.7368 0.0000
0.7895 0.7895 0.0000
0.7895 0.8421 0.0000
0.7895 0.8947 0.0000
0.7895 0.9474 0.0000
0.7895 1.0000 0.0000
0.8421 0.0526 0.0000
0.8421 0.1053 0.0000
0.8421 0.1579 0.0000
0.8421 0.2105 0.0000
0.8421 0.2632 0.0000
0.8421 0.3158 0.0000
0.8421 0.3684 0.0000
0.8421 0.4211 0.0000
0.8421 0.4737 0.0000
0.8421 0.5263 0.0000
0.8421 0.5789 0.0000
0.8421 0.6316 0.0000
0.8421 0.6842 0.0000
0.8421 0.7368 0.0000
0.8421 0.7895 0.0000
0.8421 0.8421 0.0000
0.8421 0.8947 0.0000
0.8421 0.9474 0.0000
0.8421 1.0000 0.0000
0.8947 0.0526 0.0000
0.8947 0.1053 0.0000
0.8947 0.1579 0.0000
0.8947 0.2105 0.0000
0.8947 0.2632 0.0000
0.8947 0.3158 0.0000
0.8947 0.3684 0.0000
0.8947 0.4211 0.0000
0.8947 0.4737 0.0000
0.8947 0.5263 0.0000
0.8947 0.5789 0.0000
0.8947 0.6316 0.0000
0.8947 0.6842 0.0000
0.8947 0.7368 0.0000
0.8947 0.7895 0.0000
0.8947 0.8421 0.0000
0.8947 0.8947 0.0000
0.8947 0.9474 0.0000
0.8947 1.0000 0.0000
0.9474 0.0526 0.0000
0.9474 0.1053 0.0000
0.9474 0.1579 0.0000
0.9474 0.2105 0.0000
0.9474 0.2632 0.0000
0.9474 0.3158 0.0000
0.9474 0.3684 0.0000
0.9474 0.4211 0.0000
0.9474 0.4737 0.0000
0.9474 0.5263 0.0000
0.9474 0.5789 0.0000
0.9474 0.6316 0.0000
0.9474 0.6842 0.0000
0.9474 0.7368 0.0000
0.9474 0.7895 0.0000
0.9474 0.8421 0.0000
0.9474 0.8947 0.0000
0.9474 0.9474 0.0000
0.9474 1.0000 0.0000
0.2105 0.6316 0.0000
0.2632 0.7368 0.0000
0.3158 0.7895 0.0000
0.3684 0.7895 0.0000
0.4211 0.8421 0.0000
0.4737 0.8421 0.0000
0.5263 0.8421 0.0000
0.5789 0.8421 0.0000
0.6842 0.7895 0.0000
1.0000 0.0526 0.0000
1.0000 0.1053 0.0000
1.0000 0.1579 0.0000
1.0000 0.2105 0.0000
1.0000 0.2632 0.0000
1.0000 0.3158 0.0000
1.0000 0.3684 0.0000
1.0000 0.4211 0.0000
1.0000 0.4737 0.0000
1.0000 0.5263 0.0000
1.0000 0.5789 0.0000
1.0000 0.6316 0.0000
1.0000 0.6842 0.0000
1.0000 0.7368 0.0000
1.0000 0.7895 0.0000
1.0000 0.8421 0.0000
1.0000 0.8947 0.0000
1.0000 0.9474 0.0000
1.0000 1.0000 0.0000
0.0526 0.0000 0.0000
0.1053 0.0000 0.0000
0.1579 0.0000 0.0000
0.2105 0.0000 0.0000
0.2632 0.0000 0.0000
0.3158 0.0000 0.0000
0.3684 0.0000 0.0000
0.4211 0.0000 0.0000
0.4737 0.0000 0.0000
0.5263 0.0000 0.0000
0.5789 0.0000 0.0000
0.6316 0.0000 0.0000
0.6316 0.7895 0.0000
0.6842 0.0000 0.0000
0.7368 0.0000 0.0000
0.7368 0.7368 0.0000
0.7895 0.0000 0.0000
0.7895 0.6316 0.0000
0.8421 0.0000 0.0000
0.8947 0.0000 0.0000
0.9474 0.0000 0.0000
1.0000 0.0000 0.0000
0.0000 0.0000 0.0000
0.0263 0.0263 0.0000
0.0263 0.0789 0.0000
0.0263 0.1316 0.0000
0.0263 0.1842 0.0000
0.0263 0.2368 0.0000
0.0263 0.2895 0.0000
0.0263 0.3421 0.0000
0.0263 0.3947 0.0000
0.0263 0.4474 0.0000
0.0263 0.5000 0.0000
0.0263 0.5526 0.0000
0.0263 0.6053 0.0000
0.0263 0.6579 0.0000
0.0263 0.7105 0.0000
0.0263 0.7632 0.0000
0.0263 0.8158 0.0000
0.0263 0.8684 0.0000
0.0263 0.9211 0.0000
0.0263 0.9737 0.0000
0.0789 0.0263 0.0000
0.0789 0.0789 0.0000
0.0789 0.1316 0.0000
0.0789 0.1842 0.0000
0.0789 0.2368 0.0000
0.0789 0.2895 0.0000
0.0789 0.3421 0.0000
0.0789 0.3947 0.0000
0.0789 0.4474 0.0000
0.0789 0.5000 0.0000
0.0789 0.5526 0.0000
0.0789 0.6053 0.0000
0.0789 0.6579 0.0000
0.0789 0.7105 0.0000
0.0789 0.7632 0.0000
0.0789 0.8158 0.0000
0.0789 0.8684 0.0000
0.0789 0.9211 0.0000
0.0789 0.9737 0.0000
0.1316 0.0263 0.0000
0.1316 0.0789 0.0000
0.1316 0.1316 0.0000
0.1316 0.1842 0.0000
0.1316 0.2368 0.0000
0.1316 0.2895 0.0000
0.1316 0.3421 0.0000
0.1316 0.3947 0.0000
0.1316 0.4474 0.0000
0.1316 0.5000 0.0000
0.1316 0.5526 0.0000
0.1316 0.6053 0.0000
0.1316 0.6579 0.0000
0.1316 0.7105 0.0000
0.1316 0.7632 0.0000
0.1316 0.8158 0.0000
0.1316 0.8684 0.0000
0.1316 0.9211 0.0000
0.1316 0.9737 0.0000
0.1842 0.0263 0.0000
0.1842 0.0789 0.0000
0.1842 0.1316 0.0000
0.1842 0.1842 0.0000
0.1842 0.2368 0.0000
0.1842 0.2895 0.0000
0.1842 0.3421 0.0000
0.1842 0.3947 0.0000
0.1842 0.4474 0.0000
0.1842 0.5000 0.0000
0.1842 0.5526 0.0000
0.1842 0.6053 0.0000
0.1842 0.6579 0.0000
0.1842 0.7105 0.0000
0.1842 0.7632 0.0000
0.1842 0.8158 0.0000
0.1842 0.8684 0.0000
0.1842 0.9211 0.0000
0.1842 0.9737 0.0000
0.2368 0.0263 0.0000
0.2368 0.0789 0.0000
0.2368 0.1316 0.0000
0.2368 0.1842 0.0000
0.2368 0.2368 0.0000
0.2368 0.2895 0.0000
0.2368 0.3421 0.0000
0.2368 0.6579 0.0000
0.2368 0.7105 0.0000
0.2368 0.7632 0.0000
0.2368 0.8158 0.0000
0.2368 0.8684 0.0000
0.2368 0.9211 0.0000
0.2368 0.9737 0.0000
0.2895 0.0263 0.0000
0.2895 0.0789 0.0000
0.2895 0.1316 0.0000
0.2895 0.1842 0.0000
0.2895 0.2368 0.0000
0.2895 0.7632 0.0000
0.2895 0.8158 0.0000
0.2895 0.8684 0.0000
0.2895 0.9211 0.0000
0.2895 0.9737 0.0000
0.3421 0.0263 0.0000
0.3421 0.0789 0.0000
0.3421 0.1316 0.0000
0.3421 0.1842 0.0000
0.3421 0.8158 0.0000
0.3421 0.8684 0.0000
0.3421 0.9211 0.0000
0.3421 0.9737 0.0000
0.3947 0.0263 0.0000
0.3947 0.0789 0.0000
0.3947 0.1316 0.0000
0.3947 0.1842 0.0000
0.3947 0.8158 0.0000
0.3947 0.8684 0.0000
0.3947 0.9211 0.0000
0.3947 0.9737 0.0000
0.4474 0.0263 0.0000
0.4474 0.0789 0.0000
0.4474 0.1316 0.0000
0.4474 0.8684 0.0000
0.4474 0.9211 0.0000
0.4474 0.9737 0.0000
0.5000 0.0263 0.0000
0.5000 0.0789 0.0000
0.5000 0.1316 0.0000
0.5000 0.8684 0.0000
0.5000 0.9211 0.0000
0.5000 0.9737 0.0000
0.5526 0.0263 0.0000
0.5526 0.0789 0.0000
0.5526 0.1316 0.0000
0.5526 0.8684 0.0000
0.5526 0.9211 0.0000
0.5526 0.9737 0.0000
0.6053 0.0263 0.0000
0.6053 0.0789 0.0000
0.6053 0.1316 0.0000
0.6053 0.8684 0.0000
0.6053 0.9211 0.0000
0.6053 0.9737 0.0000
0.6579 0.0263 0.0000
0.6579 0.0789 0.0000
0.6579 0.1316 0.0000
0.6579 0.1842 0.0000
0.6579 0.8158 0.0000
0.6579 0.8684 0.0000
0.6579 0.9211 0.0000
0.6579 0.9737 0.0000
0.7105 0.0263 0.0000
0.7105 0.0789 0.0000
0.7105 0.1316 0.0000
0.7105 0.1842 0.0000
0.7105 0.8158 0.0000
0.7105 0.8684 0.0000
0.7105 0.9211 0.0000
0.7105 0.9737 0.0000
0.7632 0.0263 0.0000
0.7632 0.0789 0.0000
0.7632 0.1316 0.0000
0.7632 0.1842 0.0000
0.7632 0.2368 0.0000
0.7632 0.7632 0.0000
0.7632 0.8158 0.0000
0.7632 0.8684 0.0000
0.7632 0.9211 0.0000
0.7632 0.9737 0.0000
0.8158 0.0263 0.0000
0.8158 0.0789 0.0000
0.8158 0.1316 0.0000
0.8158 0.1842 0.0000
0.8158 0.2368 0.0000
0.8158 0.2895 0.0000
0.8158 0.3421 0.0000
[...]
         <PointData>
            <DataArray Name="fValues" NumberOfComponents="1" format="ascii" type="Float64">
 2.63017e-02 
 8.11470e-02 
 6.54596e-02 
 4.49511e-02 
 2.10096e-02 
 8.53630e-03 
 2.03649e-02 
 6.68877e-02 
 1.46030e-01 
 2.41090e-01 
 3.30396e-01 
 3.97225e-01 
 4.39499e-01 
 4.60494e-01 
 4.63093e-01 
 4.43015e-01 
 3.55854e-01 
 6.14728e-03 
-7.69367e-02 
 6.03274e-02 
 5.41426e-02 
 5.72725e-02 
 3.93932e-02 
 2.03041e-02 
 7.57947e-03 
 1.69395e-02 
 6.08468e-02 
 1.39093e-01 
 2.33537e-01 
 3.16580e-01 
 3.77353e-01 
 4.11040e-01 
 4.27135e-01 
 4.27741e-01 
 4.02276e-01 
 3.34684e-01 
 1.20565e-01 
-1.89576e-02 
 3.74492e-02 
 6.34486e-02 
 7.02717e-02 
 7.59021e-02 
 6.74203e-02 
 5.21188e-02 
 4.46770e-02 
 6.86797e-02 
 1.28004e-01 
 1.97257e-01 
 2.56905e-01 
 2.68390e-01 
 2.79519e-01 
 2.86012e-01 
 2.92123e-01 
 2.90326e-01 
 2.52583e-01 
 2.96577e-01 
 3.18259e-01 
 2.03750e-02 
 8.23523e-02 
 1.13791e-01 
 1.30823e-01 
 1.27491e-01 
 9.83599e-02 
 7.22007e-02 
 7.21173e-02 
 1.06066e-01 
 1.33927e-01 
 7.61170e-02 
 1.59747e-01 
 1.43764e-01 
 1.49330e-01 
 1.82060e-01 
 2.18020e-01 
 2.71647e-01 
 3.48951e-01 
 3.98506e-01 
 2.81952e-02 
 1.02754e-01 
 1.59996e-01 
 1.98531e-01 
 1.88674e-01 
 1.29817e-01 
 6.01077e-02 
-1.12919e-02 
 3.34400e-02 
 9.52697e-02 
 1.83731e-01 
 2.77065e-01 
 3.77770e-01 
 4.28537e-01 
 4.64389e-02 
 1.31148e-01 
 2.21202e-01 
 2.62571e-01 
 2.58539e-01 
 4.12283e-02 
 1.68399e-01 
 2.95574e-01 
 4.05441e-01 
 4.59847e-01 
 7.81850e-02 
 1.70653e-01 
 2.79026e-01 
 5.02921e-01 
 1.86869e-01 
 3.35456e-01 
 4.49620e-01 
 5.03915e-01 
 1.19179e-01 
 2.34647e-01 
 3.71804e-01 
 4.52620e-01 
 2.31245e-01 
 4.09761e-01 
 5.14798e-01 
 5.65169e-01 
 1.77626e-01 
 2.48183e-01 
 7.54309e-01 
 5.16169e-01 
 6.00810e-01 
 6.40212e-01 
 2.26334e-01 
 3.21211e-01 
 4.38816e-01 
 6.51238e-01 
 6.99824e-01 
 7.18646e-01 
 2.75457e-01 
 3.08663e-01 
 4.14094e-01 
 8.24296e-01 
 7.85616e-01 
 7.89739e-01 
 3.01947e-01 
 3.01243e-01 
 2.73960e-01 
 8.80061e-01 
 8.57555e-01 
 8.34934e-01 
 3.07497e-01 
 2.81560e-01 
 1.65862e-01 
 5.60745e-02 
 1.12289e+00 
 9.65581e-01 
 8.80111e-01 
 8.55719e-01 
 2.93113e-01 
 2.50240e-01 
 1.41454e-01 
-8.39010e-02 
 1.05662e+00 
 9.42251e-01 
 8.78261e-01 
 8.47891e-01 
 2.66756e-01 
 2.19680e-01 
 1.15236e-01 
-4.54814e-02 
-2.16252e-01 
 1.10517e+00 
 1.00277e+00 
 8.96898e-01 
 8.49064e-01 
 8.22808e-01 
 2.42177e-01 
 1.97947e-01 
 1.01038e-01 
-3.66014e-02 
-1.78097e-01 
-2.14310e-01 
-1.04526e-01 
 9.14206e-01 
 1.00834e+00 
 9.79986e-01 
 9.02624e-01 
 8.40689e-01 
 8.04557e-01 
 7.86246e-01 
 2.40926e-01 
 1.96041e-01 
 9.84772e-02 
-3.27816e-02 
-1.48026e-01 
-2.13531e-01 
-2.04664e-01 
-1.27676e-01 
 3.41460e-02 
 1.63415e-01 
 3.93555e-01 
 6.37525e-01 
 7.98534e-01 
 8.71536e-01 
 8.64387e-01 
 8.21718e-01 
 7.71892e-01 
 7.51414e-01 
 7.39296e-01 
 2.85597e-01 
 2.37839e-01 
 8.96198e-02 
-3.14628e-02 
-1.29743e-01 
-1.84460e-01 
-1.76201e-01 
-9.61881e-02 
 3.63150e-02 
 2.22009e-01 
 4.13220e-01 
 5.82805e-01 
 7.00847e-01 
 7.53763e-01 
 7.59219e-01 
 7.39980e-01 
 7.03479e-01 
 6.77233e-01 
 6.83989e-01 
 4.73337e-01 
 2.03438e-01 
 6.57783e-02 
-3.70318e-02 
-1.08777e-01 
-1.44887e-01 
-1.31285e-01 
-6.14636e-02 
 6.09763e-02 
 2.13420e-01 
 3.69550e-01 
 4.99402e-01 
 5.86628e-01 
 6.30222e-01 
 6.40948e-01 
 6.31494e-01 
 6.27864e-01 
 6.04351e-01 
 5.57028e-01 
 8.01353e-02 
-6.11138e-02 
-5.33387e-03 
 1.07481e-01 
 3.82537e-01 
 6.10987e-01 
 7.63218e-01 
 1.37935e+00 
 1.48117e+00 
 5.84856e-01 
 1.83474e-01 
 3.29435e-02 
-5.64295e-02 
-1.18729e-01 
-1.46103e-01 
-1.27127e-01 
-5.45299e-02 
 6.51836e-02 
 2.13185e-01 
 3.60600e-01 
 4.82246e-01 
 5.63418e-01 
 6.03682e-01 
 6.11983e-01 
 6.04788e-01 
 5.87575e-01 
 6.28635e-01 
 6.04184e-01 
 9.58989e-02 
 4.53579e-04 
-1.41596e-02 
-1.41040e-02 
 1.19346e-03 
 2.94218e-02 
 7.46010e-02 
 1.31243e-01 
 1.98003e-01 
 2.57469e-01 
 3.01787e-01 
 3.20632e-01 
 1.11038e+00 
 3.14261e-01 
 2.90307e-01 
 1.21212e+00 
 2.62992e-01 
 5.84308e-01 
 2.50625e-01 
 3.07204e-01 
 6.37455e-01 
 6.90669e-01 
 4.07524e-02 
-5.00039e-01 
-3.56103e-01 
-3.55163e-01 
-2.90223e-01 
-2.18815e-01 
-1.68884e-01 
-1.75675e-01 
-2.74535e-01 
-4.77924e-01 
-7.53400e-01 
-1.03086e+00 
-1.24313e+00 
-1.35971e+00 
-1.38811e+00 
-1.35084e+00 
-1.25793e+00 
-1.08038e+00 
-6.41351e-01 
 4.36530e-01 
-3.77109e-01 
-3.30377e-01 
-2.81136e-01 
-2.70529e-01 
-2.43495e-01 
-2.05513e-01 
-1.82848e-01 
-2.23757e-01 
-3.64621e-01 
-5.82179e-01 
-7.95763e-01 
-9.28267e-01 
-9.69716e-01 
-9.54676e-01 
-9.08034e-01 
-8.27049e-01 
-6.73766e-01 
-3.87861e-01 
-4.05459e-01 
-1.62657e-01 
-2.77920e-01 
-3.05784e-01 
-3.27838e-01 
-3.34546e-01 
-2.93754e-01 
-2.19898e-01 
-1.78075e-01 
-2.39503e-01 
-3.86902e-01 
-5.05698e-01 
-5.52957e-01 
-5.30613e-01 
-4.71111e-01 
-4.38608e-01 
-4.22433e-01 
-3.95458e-01 
-4.45090e-01 
-6.32132e-01 
-4.33730e-02 
-1.97719e-01 
-3.20213e-01 
-4.11794e-01 
-4.55107e-01 
-4.00518e-01 
-2.53202e-01 
-1.41562e-01 
-1.06087e-01 
-1.22730e-01 
 6.75047e-02 
-1.86885e-01 
-9.44480e-02 
-2.15687e-03 
-2.15635e-02 
-1.07032e-01 
-2.36624e-01 
-4.14201e-01 
-6.22065e-01 
 4.13309e-02 
-1.32385e-01 
-3.19515e-01 
-4.90316e-01 
-5.81584e-01 
-4.78519e-01 
-1.54567e-01 
 1.17625e-01 
 3.77614e-01 
 3.32732e-01 
 1.33616e-01 
-1.13116e-01 
-3.61222e-01 
-5.76390e-01 
 9.58210e-02 
-8.11304e-02 
-3.16103e-01 
-6.13133e-01 
-7.44107e-01 
 6.10619e-01 
 3.16685e-01 
-4.36928e-02 
-3.39823e-01 
-5.53204e-01 
 1.14311e-01 
-5.40873e-02 
-3.27491e-01 
-7.53876e-01 
 4.22105e-01 
-5.32047e-02 
-3.81785e-01 
-5.77593e-01 
 9.00599e-02 
-4.42609e-02 
-4.16400e-01 
-9.47272e-01 
 3.71284e-01 
-1.85297e-01 
-5.02787e-01 
-6.58398e-01 
 2.92593e-02 
-5.25236e-02 
-3.72508e-01 
-4.88992e-01 
-7.04535e-01 
-7.87962e-01 
-5.03799e-02 
-6.31902e-02 
-1.53895e-01 
-9.29236e-01 
-9.59969e-01 
-9.37392e-01 
-1.23071e-01 
-5.72909e-02 
 5.42276e-02 
-1.45981e+00 
-1.17971e+00 
-1.06753e+00 
-1.60940e-01 
-4.20124e-02 
 2.15331e-01 
-1.74342e+00 
-1.31012e+00 
-1.14168e+00 
-1.49334e-01 
-4.52277e-03 
 2.91069e-01 
 8.95439e-01 
-2.35796e+00 
-1.69685e+00 
-1.33733e+00 
-1.14548e+00 
-8.99158e-02 
 6.02926e-02 
 3.37340e-01 
 8.24482e-01 
-2.13551e+00 
-1.58091e+00 
-1.26653e+00 
-1.08683e+00 
-1.59164e-03 
 1.35123e-01 
 3.81150e-01 
 7.65241e-01 
 1.20666e+00 
-2.16939e+00 
-1.77246e+00 
-1.40271e+00 
-1.13705e+00 
-9.77907e-01 
 8.17985e-02 
 1.84846e-01 
 4.11906e-01 
 7.52441e-01 
 1.10923e+00 
 1.31827e+00 
 1.21155e+00 
-1.59650e+00 
-1.84016e+00 
-1.74115e+00 
-1.47888e+00 
-1.19002e+00 
-9.61615e-01 
-8.29437e-01 
 9.89206e-02 
 1.56978e-01 
 4.12452e-01 
 7.73036e-01 
 1.08967e+00 
 1.28403e+00 
 1.28005e+00 
 1.04490e+00 
 6.31036e-01 
 1.31618e-01 
-4.05302e-01 
-9.24166e-01 
-1.29444e+00 
-1.43240e+00 
-1.37103e+00 
-1.19338e+00 
-9.66582e-01 
-7.43418e-01 
-6.39805e-01 
-1.48739e-01 
-6.66795e-03 
 4.75512e-01 
 8.38322e-01 
 1.10532e+00 
 1.26024e+00 
 1.26112e+00 
 1.07957e+00 
 7.33676e-01 
 2.74526e-01 
-2.12978e-01 
-6.30097e-01 
-9.06169e-01 
-1.01373e+00 
-9.82078e-01 
-8.69207e-01 
-7.26734e-01 
-5.33323e-01 
-3.52884e-01 
-1.02324e+00 
 1.29660e-01 
 6.67424e-01 
 9.52927e-01 
 1.14660e+00 
 1.25442e+00 
 1.24674e+00 
 1.09712e+00 
 8.08433e-01 
 4.25271e-01 
 2.50103e-02 
-3.10441e-01 
-5.26568e-01 
-6.12696e-01 
-5.94448e-01 
-5.14195e-01 
-4.14683e-01 
-3.65381e-01 
-1.71903e-01 
 8.46439e-01 
-2.02434e-01 
-8.93193e-01 
-1.31740e+00 
-2.35238e+00 
-1.78273e+00 
-2.73893e+00 
-2.34726e+00 
-1.02895e+00 
 8.20301e-01 
 1.43045e+00 
 1.46243e+00 
 5.66690e-01 
-1.55520e+00 
 8.10805e-01 
 2.66216e-01 
 1.40332e-02 
-2.82553e-01 
-7.56472e-01 
-8.32514e-01 
-4.87475e-01 
 9.17434e-02 
 1.70600e+00 
-5.19081e-02 
 1.18722e-01 
 4.63546e-02 
 2.79414e-01 
 1.88011e-01 
 1.19024e-01 
 7.14311e-02 
-1.59162e-01 
 1.90134e-01 
 1.73078e-01 
-1.44995e-01 
 1.58578e-01 
-1.47583e-01 
 7.71605e-02 
 4.63480e-02 
-1.57786e-01 
 2.78986e-02 
-3.07442e-02 
 7.37536e-02 
-2.99580e-02 
 1.57762e-01 
 3.17150e-01 
-5.38331e-01 
 1.52609e-01 
-2.26586e-02 
 7.60119e-02 
 1.04424e-01 
-7.55812e-02 
 1.22518e-01 
-6.51980e-02 
-8.21173e-02 
 6.28752e-01 
 4.53408e-02 
 4.51467e-01 
-3.35938e-01 
 1.63534e-01 
-7.18585e-02 
-1.79712e-01 
 5.80299e-01 
 9.32564e-01 
-1.61593e+00 
-5.48843e-02 
-1.28585e-01 
 2.64169e-01 
-8.67673e-02 
 1.10443e+00 
-1.98632e-01 
 1.10672e+00 
 5.54739e-01 
 7.36876e-01 
-1.41452e-01 
-3.00902e-01 
 6.81945e-01 
-3.49875e-01 
 2.35753e+00 
 5.38352e-01 
 1.78111e+00 
-8.12232e-01 
 4.86101e-01 
-8.08521e-01 
 2.05460e+00 
 8.41528e-01 
 2.58490e+00 
-4.88197e-01 
 9.07261e-01 
-2.59749e-01 
-4.33453e-01 
-2.97623e-01 
 2.39943e-01 
 1.74008e+00 
 5.25863e-01 
 1.90543e+00 
-2.50340e-01 
 1.94752e+00 
 4.55956e-01 
 1.28806e+00 
-2.16407e-01 
-3.34283e+00 
 2.27744e-01 
-3.03187e-01 
-3.44056e-01 
-1.23754e-01 
 8.09974e-01 
 1.44161e+00 
-1.38717e+00 
 1.54397e+00 
-3.50877e-01 
 1.88530e+00 
-3.11984e-01 
-1.99253e-01 
 7.80845e-01 
-3.37739e-02 
 2.64416e-01 
 6.22776e-01 
 6.61444e-01 
 1.22868e+00 
 9.54239e-01 
 2.05852e-01 
 1.07653e+00 
-3.15573e+00 
-1.47737e-01 
 5.43153e-01 
-1.49557e-02 
-3.25479e-01 
 8.69200e-02 
 2.82701e-02 
 9.47777e-02 
-3.05688e-02 
 9.02575e-02 
 6.66512e-02 
 1.06058e-01 
 4.34936e-01 
 3.19687e-01 
 7.73432e-02 
 5.13265e-01 
-1.01935e+00 </DataArray>
         </PointData>
         <CellData/>
      </Piece>
   </UnstructuredGrid>
</VTKFile>