<?xml version="1.0" encoding="utf-8"?>
<VTKFile byte_order="LittleEndian" type="UnstructuredGrid" version="0.1">
   <UnstructuredGrid>
      <Piece NumberOfCells="1444" NumberOfPoints="761">
         <Points>
            <DataArray Name="Points" NumberOfComponents="3" format="ascii" type="Float32">
0.0000 0.0000 0.0000
0.0000 0.0526 0.0000
0.0000 0.1053 0.0000
0.0000 0.1579 0.0000
0.0000 0.2105 0.0000
0.0000 0.2632 0.0000
0.0000 0.3158 0.0000
0.0000 0.3684 0.0000
0.0000 0.4211 0.0000
0.0000 0.4737 0.0000
0.0000 0.5263 0.0000
0.0000 0.5789 0.0000
0.0000 0.6316 0.0000
0.0000 0.6842 0.0000
0.0000 0.7368 0.0000
0.0000 0.7895 0.0000
0.0000 0.8421 0.0000
0.0000 0.8947 0.0000
0.0000 0.9474 0.0000
0.0000 1.0000 0.0000
0.0526 0.0000 0.0000
0.0526 0.0526 0.0000
0.0526 0.1053 0.0000
0.0526 0.1579 0.0000
0.0526 0.2105 0.0000
0.0526 0.2632 0.0000
0.0526 0.3158 0.0000
0.0526 0.3684 0.0000
0.0526 0.4211 0.0000
0.0526 0.4737 0.0000
0.0526 0.5263 0.0000
0.0526 0.5789 0.0000
0.0526 0.6316 0.0000
0.0526 0.6842 0.0000
0.0526 0.7368 0.0000
0.0526 0.7895 0.0000
0.0526 0.8421 0.0000
0.0526 0.8947 0.0000
0.0526 0.9474 0.0000
0.0526 1.0000 0.0000
0.1053 0.0000 0.0000
0.1053 0.0526 0.0000
0.1053 0.1053 0.0000
0.1053 0.1579 0.0000
0.1053 0.2105 0.0000
0.1053 0.2632 0.0000
0.1053 0.3158 0.0000
0.1053 0.3684 0.0000
0.1053 0.4211 0.0000
0.1053 0.4737 0.0000
0.1053 0.5263 0.0000
0.1053 0.5789 0.0000
0.1053 0.6316 0.0000
0.1053 0.6842 0.0000
0.1053 0.7368 0.0000
0.1053 0.7895 0.0000
0.1053 0.8421 0.0000
0.1053 0.8947 0.0000
0.1053 0.9474 0.0000
0.1053 1.0000 0.0000
0.1579 0.0000 0.0000
0.1579 0.0526 0.0000
0.1579 0.1053 0.0000
0.1579 0.1579 0.0000
0.1579 0.2105 0.0000
0.1579 0.2632 0.0000
0.1579 0.3158 0.0000
0.1579 0.3684 0.0000
0.1579 0.4211 0.0000
0.1579 0.4737 0.0000
0.1579 0.5263 0.0000
0.1579 0.5789 0.0000
0.1579 0.6316 0.0000
0.1579 0.6842 0.0000
0.1579 0.7368 0.0000
0.1579 0.7895 0.0000
0.1579 0.8421 0.0000
0.1579 0.8947 0.0000
0.1579 0.9474 0.0000
0.1579 1.0000 0.0000
0.2105 0.0000 0.0000
0.2105 0.0526 0.0000
0.2105 0.1053 0.0000
0.2105 0.1579 0.0000
0.2105 0.2105 0.0000
0.2105 0.2632 0.0000
0.2105 0.3158 0.0000
0.2105 0.3684 0.0000
0.2105 0.4211 0.0000
0.2105 0.4737 0.0000
0.2105 0.5263 0.0000
0.2105 0.5789 0.0000
0.2105 0.6316 0.0000
0.2105 0.6842 0.0000
0.2105 0.7368 0.0000
0.2105 0.7895 0.0000
0.2105 0.8421 0.0000
0.2105 0.8947 0.0000
0.2105 0.9474 0.0000
0.2105 1.0000 0.0000
0.2632 0.0000 0.0000
0.2632 0.0526 0.0000
0.2632 0.1053 0.0000
0.2632 0.1579 0.0000
0.2632 0.2105 0.0000
0.2632 0.2632 0.0000
0.2632 0.3158 0.0000
0.2632 0.3684 0.0000
0.2632 0.4211 0.0000
0.2632 0.4737 0.0000
0.2632 0.5263 0.0000
0.2632 0.5789 0.0000
0.2632 0.6316 0.0000
0.2632 0.6842 0.0000
0.2632 0.7368 0.0000
0.2632 0.7895 0.0000
0.2632 0.8421 0.0000
0.2632 0.8947 0.0000
0.2632 0.9474 0.0000
0.2632 1.0000 0.0000
0.3158 0.0000 0.0000
0.3158 0.0526 0.0000
0.3158 0.1053 0.0000
0.3158 0.1579 0.0000
0.3158 0.2105 0.0000
0.3158 0.2632 0.0000
0.3158 0.3158 0.0000
0.3158 0.3684 0.0000
0.3158 0.4211 0.0000
0.3158 0.4737 0.0000
0.3158 0.5263 0.0000
0.3158 0.5789 0.0000
0.3158 0.6316 0.0000
0.3158 0.6842 0.0000
0.3158 0.7368 0.0000
0.3158 0.7895 0.0000
0.3158 0.8421 0.0000
0.3158 0.8947 0.0000
0.3158 0.9474 0.0000
0.3158 1.0000 0.0000
0.3684 0.0000 0.0000
0.3684 0.0526 0.0000
0.3684 0.1053 0.0000
0.3684 0.1579 0.0000
0.3684 0.2105 0.0000
0.3684 0.2632 0.0000
0.3684 0.3158 0.0000
0.3684 0.3684 0.0000
0.3684 0.4211 0.0000
0.3684 0.4737 0.0000
0.3684 0.5263 0.0000
0.3684 0.5789 0.0000
0.3684 0.6316 0.0000
0.3684 0.6842 0.0000
0.3684 0.7368 0.0000
0.3684 0.7895 0.0000
0.3684 0.8421 0.0000
0.3684 0.8947 0.0000
0.3684 0.9474 0.0000
0.3684 1.0000 0.0000
0.4211 0.0000 0.0000
0.4211 0.0526 0.0000
0.4211 0.1053 0.0000
0.4211 0.1579 0.0000
0.4211 0.2105 0.0000
0.4211 0.2632 0.0000
0.4211 0.3158 0.0000
0.4211 0.3684 0.0000
0.4211 0.4211 0.0000
0.4211 0.4737 0.0000
0.4211 0.5263 0.0000
0.4211 0.5789 0.0000
0.4211 0.6316 0.0000
0.4211 0.6842 0.0000
0.4211 0.7368 0.0000
0.4211 0.7895 0.0000
0.4211 0.8421 0.0000
0.4211 0.8947 0.0000
0.4211 0.9474 0.0000
0.4211 1.0000 0.0000
0.4737 0.0000 0.0000
0.4737 0.0526 0.0000
0.4737 0.1053 0.0000
0.4737 0.1579 0.0000
0.4737 0.2105 0.0000
0.4737 0.2632 0.0000
0.4737 0.3158 0.0000
0.4737 0.3684 0.0000
0.4737 0.4211 0.0000
0.4737 0.4737 0.0000
0.4737 0.5263 0.0000
0.4737 0.5789 0.0000
0.4737 0.6316 0.0000
0.4737 0.6842 0.0000
0.4737 0.7368 0.0000
0.4737 0.7895 0.0000
0.4737 0.8421 0.0000
0.4737 0.8947 0.0000
0.4737 0.9474 0.0000
0.4737 1.0000 0.0000
0.5263 0.0000 0.0000
0.5263 0.0526 0.0000
0.5263 0.1053 0.0000
0.5263 0.1579 0.0000
0.5263 0.2105 0.0000
0.5263 0.2632 0.0000
0.5263 0.3158 0.0000
0.5263 0.3684 0.0000
0.5263 0.4211 0.0000
0.5263 0.4737 0.0000
0.5263 0.5263 0.0000
0.5263 0.5789 0.0000
0.5263 0.6316 0.0000
0.5263 0.6842 0.0000
0.5263 0.7368 0.0000
0.5263 0.7895 0.0000
0.5263 0.8421 0.0000
0.5263 0.8947 0.0000
0.5263 0.9474 0.0000
0.5263 1.0000 0.0000
0.5789 0.0000 0.0000
0.5789 0.0526 0.0000
0.5789 0.1053 0.0000
0.5789 0.1579 0.0000
0.5789 0.2105 0.0000
0.5789 0.2632 0.0000
0.5789 0.3158 0.0000
0.5789 0.3684 0.0000
0.5789 0.4211 0.0000
0.5789 0.4737 0.0000
0.5789 0.5263 0.0000
0.5789 0.5789 0.0000
0.5789 0.6316 0.0000
0.5789 0.6842 0.0000
0.5789 0.7368 0.0000
0.5789 0.7895 0.0000
0.5789 0.8421 0.0000
0.5789 0.8947 0.0000
0.5789 0.9474 0.0000
0.5789 1.0000 0.0000
0.6316 0.0000 0.0000
0.6316 0.0526 0.0000
0.6316 0.1053 0.0000
0.6316 0.1579 0.0000
0.6316 0.2105 0.0000
0.6316 0.2632 0.0000
0.6316 0.3158 0.0000
0.6316 0.3684 0.0000
0.6316 0.4211 0.0000
0.6316 0.4737 0.0000
0.6316 0.5263 0.0000
0.6316 0.5789 0.0000
0.6316 0.6316 0.0000
0.6316 0.6842 0.0000
0.6316 0.7368 0.0000
0.6316 0.7895 0.0000
0.6316 0.8421 0.0000
0.6316 0.8947 0.0000
0.6316 0.9474 0.0000
0.6316 1.0000 0.0000
0.6842 0.0000 0.0000
0.6842 0.0526 0.0000
0.6842 0.1053 0.0000
0.6842 0.1579 0.0000
0.6842 0.2105 0.0000
0.6842 0.2632 0.0000
0.6842 0.3158 0.0000
0.6842 0.3684 0.0000
0.6842 0.4211 0.0000
0.6842 0.4737 0.0000
0.6842 0.5263 0.0000
0.6842 0.5789 0.0000
0.6842 0.6316 0.0000
0.6842 0.6842 0.0000
0.6842 0.7368 0.0000
0.6842 0.7895 0.0000
0.6842 0.8421 0.0000
0.6842 0.8947 0.0000
0.6842 0.9474 0.0000
0.6842 1.0000 0.0000
0.7368 0.0000 0.0000
0.7368 0.0526 0.0000
0.7368 0.1053 0.0000
0.7368 0.1579 0.0000
0.7368 0.2105 0.0000
0.7368 0.2632 0.0000
0.7368 0.3158 0.0000
0.7368 0.3684 0.0000
0.7368 0.4211 0.0000
0.7368 0.4737 0.0000
0.7368 0.5263 0.0000
0.7368 0.5789 0.0000
0.7368 0.6316 0.0000
0.7368 0.6842 0.0000
0.7368 0.7368 0.0000
0.7368 0.7895 0.0000
0.7368 0.8421 0.0000
0.7368 0.8947 0.0000
0.7368 0.9474 0.0000
0.7368 1.0000 0.0000
0.7895 0.0000 0.0000
0.7895 0.0526 0.0000
0.7895 0.1053 0.0000
0.7895 0.1579 0.0000
0.7895 0.2105 0.0000
0.7895 0.2632 0.0000
0.7895 0.3158 0.0000
0.7895 0.3684 0.0000
0.7895 0.4211 0.0000
0.7895 0.4737 0.0000
0.7895 0.5263 0.0000
0.7895 0.5789 0.0000
0.7895 0.6316 0.0000
0.7895 0.6842 0.0000
0.7895 0.7368 0.0000
0.7895 0.7895 0.0000
0.7895 0.8421 0.0000
0.7895 0.8947 0.0000
0.7895 0.9474 0.0000
0.7895 1.0000 0.0000
0.8421 0.0000 0.0000
0.8421 0.0526 0.0000
0.8421 0.1053 0.0000
0.8421 0.1579 0.0000
0.8421 0.2105 0.0000
0.8421 0.2632 0.0000
0.8421 0.3158 0.0000
0.8421 0.3684 0.0000
0.8421 0.4211 0.0000
0.8421 0.4737 0.0000
0.8421 0.5263 0.0000
0.8421 0.5789 0.0000
0.8421 0.6316 0.0000
0.8421 0.6842 0.0000
0.8421 0.7368 0.0000
0.8421 0.7895 0.0000
0.8421 0.8421 0.0000
0.8421 0.8947 0.0000
0.8421 0.9474 0.0000
0.8421 1.0000 0.0000
0.8947 0.0000 0.0000
0.8947 0.0526 0.0000
0.8947 0.1053 0.0000
0.8947 0.1579 0.0000
0.8947 0.2105 0.0000
0.8947 0.2632 0.0000
0.8947 0.3158 0.0000
0.8947 0.3684 0.0000
0.8947 0.4211 0.0000
0.8947 0.4737 0.0000
0.8947 0.5263 0.0000
0.8947 0.5789 0.0000
0.8947 0.6316 0.0000
0.8947 0.6842 0.0000
0.8947 0.7368 0.0000
0.8947 0.7895 0.0000
0.8947 0.8421 0.0000
0.8947 0.8947 0.0000
0.8947 0.9474 0.0000
0.8947 1.0000 0.0000
0.9474 0.0000 0.0000
0.9474 0.0526 0.0000
0.9474 0.1053 0.0000
0.9474 0.1579 0.0000
0.9474 0.2105 0.0000
0.9474 0.2632 0.0000
0.9474 0.3158 0.0000
0.9474 0.3684 0.0000
0.9474 0.4211 0.0000
0.9474 0.4737 0.0000
0.9474 0.5263 0.0000
0.9474 0.5789 0.0000
0.9474 0.6316 0.0000
0.9474 0.6842 0.0000
0.9474 0.7368 0.0000
0.9474 0.7895 0.0000
0.9474 0.8421 0.0000
0.9474 0.8947 0.0000
0.9474 0.9474 0.0000
0.9474 1.0000 0.0000
1.0000 0.0000 0.0000
1.0000 0.0526 0.0000
1.0000 0.1053 0.0000
1.0000 0.1579 0.0000
1.0000 0.2105 0.0000
1.0000 0.2632 0.0000
1.0000 0.3158 0.0000
1.0000 0.3684 0.0000
1.0000 0.4211 0.0000
1.0000 0.4737 0.0000
1.0000 0.5263 0.0000
1.0000 0.5789 0.0000
1.0000 0.6316 0.0000
1.0000 0.6842 0.0000
1.0000 0.7368 0.0000
1.0000 0.7895 0.0000
1.0000 0.8421 0.0000
1.0000 0.8947 0.0000
1.0000 0.9474 0.0000
1.0000 1.0000 0.0000
0.0263 0.0263 0.0000
0.0263 0.0789 0.0000
0.0263 0.1316 0.0000
0.0263 0.1842 0.0000
0.0263 0.2368 0.0000
0.0263 0.2895 0.0000
0.0263 0.3421 0.0000
0.0263 0.3947 0.0000
0.0263 0.4474 0.0000
0.0263 0.5000 0.0000
0.0263 0.5526 0.0000
0.0263 0.6053 0.0000
0.0263 0.6579 0.0000
0.0263 0.7105 0.0000
0.0263 0.7632 0.0000
0.0263 0.8158 0.0000
0.0263 0.8684 0.0000
0.0263 0.9211 0.0000
0.0263 0.9737 0.0000
0.0789 0.0263 0.0000
0.0789 0.0789 0.0000
0.0789 0.1316 0.0000
0.0789 0.1842 0.0000
0.0789 0.2368 0.0000
0.0789 0.2895 0.0000
0.0789 0.3421 0.0000
0.0789 0.3947 0.0000
0.0789 0.4474 0.0000
0.0789 0.5000 0.0000
0.0789 0.5526 0.0000
0.0789 0.6053 0.0000
0.0789 0.6579 0.0000
0.0789 0.7105 0.0000
0.0789 0.7632 0.0000
0.0789 0.8158 0.0000
0.0789 0.8684 0.0000
0.0789 0.9211 0.0000
0.0789 0.9737 0.0000
0.1316 0.0263 0.0000
0.1316 0.0789 0.0000
0.1316 0.1316 0.0000
0.1316 0.1842 0.0000
0.1316 0.2368 0.0000
0.1316 0.2895 0.0000
0.1316 0.3421 0.0000
0.1316 0.3947 0.0000
0.1316 0.4474 0.0000
0.1316 0.5000 0.0000
0.1316 0.5526 0.0000
0.1316 0.6053 0.0000
0.1316 0.6579 0.0000
0.1316 0.7105 0.0000
0.1316 0.7632 0.0000
0.1316 0.8158 0.0000
0.1316 0.8684 0.0000
0.1316 0.9211 0.0000
0.1316 0.9737 0.0000
0.1842 0.0263 0.0000
0.1842 0.0789 0.0000
0.1842 0.1316 0.0000
0.1842 0.1842 0.0000
[...]
         <PointData>
            <DataArray Name="fValues" NumberOfComponents="3" format="ascii" type="Float64">
-7.25915e-17  1.03230e-16  1.69365e-16 
-1.70176e-17  5.58937e-17  9.28313e-17 
 2.44025e-18  2.68298e-17  2.59679e-17 
 1.13580e-17  3.19276e-17  3.29327e-17 
 1.30592e-17 -8.15573e-18  6.59657e-17 
-2.37624e-17  2.24797e-17  1.29005e-17 
 1.31607e-17 -7.54768e-17  3.29360e-18 
 3.07453e-17  1.10019e-17  5.15544e-18 
 4.85841e-17 -9.85828e-17  7.88195e-17 
-6.56211e-18 -7.04452e-18 -3.55613e-17 
 1.25579e-16 -8.39393e-17 -8.28766e-17 
 7.91834e-18 -4.09087e-17  1.50341e-18 
 4.91702e-17 -2.06862e-17  2.95062e-17 
 8.76434e-18 -4.13232e-17  4.58968e-17 
-1.31960e-17  1.07655e-17  3.65026e-17 
-3.97097e-17  2.20799e-17 -1.47688e-17 
 3.74521e-17  5.24715e-17  1.02937e-16 
-4.97614e-17  4.08734e-17  1.31283e-16 
 1.85191e-17 -5.41154e-18  9.09701e-17 
-5.43757e-18  1.11181e-16  1.43943e-16 
 5.21983e-18 -6.02145e-17  1.00979e-16 
 3.45288e-17 -5.56466e-17  7.54374e-17 
 2.70361e-17 -2.88061e-17  2.27684e-17 
 2.67015e-17  2.65730e-18  2.39948e-18 
 3.44090e-17 -6.33140e-17  1.55442e-17 
-2.41749e-18  2.61310e-18 -1.25193e-19 
 4.25121e-19 -4.82725e-17  1.97535e-17 
 2.70816e-17  7.74369e-18  1.05283e-17 
 4.55750e-17 -9.64341e-17  3.66121e-17 
 2.41962e-17 -4.96224e-17  3.98236e-17 
 6.99410e-17 -2.66111e-17 -8.76779e-18 
-8.29241e-18  1.75900e-17 -4.69933e-18 
 4.81214e-17 -4.37178e-17  1.65364e-17 
 1.23120e-17 -5.05028e-17  4.09211e-17 
-8.23981e-18  3.33293e-19  5.24437e-17 
-3.79647e-17  3.73586e-17  4.71549e-17 
-3.43986e-17  1.18646e-16  5.53595e-17 
-6.50970e-17  7.11287e-17  8.12740e-17 
-6.16452e-17  1.20229e-16  7.76206e-17 
-3.27357e-17  2.29469e-16  7.93162e-17 
-2.00149e-17 -3.34581e-17  4.42324e-17 
 4.64675e-17 -6.65086e-17  5.04950e-17 
 2.46784e-17 -6.29144e-17  1.68434e-17 
 4.97377e-17 -5.09850e-17  2.96811e-17 
 3.53797e-17 -7.11404e-17  1.75744e-17 
 1.41352e-17 -4.32220e-18  2.76565e-17 
 1.68329e-17 -7.22510e-17  3.79903e-17 
 2.86670e-17 -9.51813e-18  3.75689e-17 
 2.48017e-17 -8.75403e-17  5.79869e-17 
 7.56215e-18 -8.14287e-18  7.50217e-17 
 1.30255e-17  1.15501e-17  2.76134e-17 
 7.36723e-18  1.39296e-17 -7.73576e-18 
-5.55658e-19  1.46315e-17  1.32777e-17 
-3.01386e-18 -1.10885e-17  6.41684e-17 
-2.04733e-17  3.99673e-17  7.91205e-17 
 7.29836e-18 -3.57059e-17  9.63932e-17 
-2.41217e-17  8.13818e-17  8.80168e-17 
-7.15493e-17  9.81547e-17  6.65260e-17 
-6.88110e-17  1.19498e-16  4.59808e-17 
-1.40901e-17  2.35466e-16  3.31827e-17 
 9.07857e-19 -2.56438e-17  2.48524e-18 
 2.35536e-17 -5.28323e-17  1.52763e-17 
 3.24743e-17 -5.93835e-17  1.28143e-17 
 4.95781e-17 -6.07735e-17  5.98097e-17 
 4.65839e-17 -1.06501e-16  6.35011e-17 
 3.61728e-17 -3.01794e-17  3.91344e-17 
 2.78028e-17 -8.77614e-17  6.47374e-17 
 1.59030e-17  6.89682e-18  5.37869e-17 
-6.21932e-18 -6.19954e-17  7.78744e-17 
-4.24916e-18 -6.99613e-18  7.16389e-17 
-8.19491e-18  2.15825e-17  1.96438e-17 
 1.11714e-17  3.23042e-18  1.86986e-18 
-2.18204e-17  5.00847e-17  3.80705e-17 
-1.56127e-17  1.90775e-17  5.99143e-17 
-9.48613e-18  4.10443e-17  7.94022e-17 
-2.12216e-17  3.91400e-17  1.03628e-16 
 7.20655e-18  4.86681e-17  1.24517e-16 
-2.23352e-17  2.28551e-17  9.65259e-17 
-5.20101e-17  1.09469e-16  7.28359e-17 
-4.71342e-17  2.34393e-16 -2.59498e-17 
-3.35022e-17  1.02878e-16  1.27597e-17 
-5.14668e-17  6.57616e-17 -6.97118e-18 
 3.38571e-17 -4.88135e-17 -2.43930e-17 
 3.35025e-17 -3.43440e-17 -4.25223e-18 
 4.25521e-17 -1.11585e-16  1.85142e-17 
 5.45467e-17 -7.81553e-17  2.23749e-17 
 2.93308e-17 -1.02227e-16  2.90456e-17 
 1.70599e-17 -2.08064e-18  8.26666e-18 
 1.27955e-17 -8.70679e-17 -5.37508e-18 
-9.15669e-18 -6.83367e-18 -3.52499e-17 
-2.16300e-17  6.21430e-17 -8.67162e-17 
-3.89244e-17  8.18267e-17 -9.13230e-17 
-1.64590e-17  5.75888e-17 -5.11158e-17 
-3.75760e-17  3.59904e-17 -3.25098e-17 
-1.91092e-17  7.51644e-17 -1.23743e-18 
-1.69871e-17  2.28205e-17 -1.34937e-17 
-3.28568e-17  8.98773e-17 -1.64897e-17 
-3.04983e-17  1.93811e-17  9.39698e-18 
 4.13145e-17 -7.79577e-17  3.67997e-17 
 5.97059e-17 -2.58550e-17  1.37603e-18 
 2.15654e-17 -7.49594e-17  2.70242e-17 
 3.18692e-17 -6.12605e-17 -3.37879e-17 
 7.11634e-18 -2.37933e-17 -6.56028e-17 
 3.52010e-17 -3.28046e-17 -4.89036e-17 
 4.11979e-17 -9.76961e-17 -5.75388e-17 
 2.63595e-17 -5.97326e-17 -5.08890e-17 
 4.36256e-17 -1.40589e-16 -3.03376e-17 
 3.66619e-17 -3.98140e-17 -2.35383e-17 
 3.12263e-17 -1.37048e-16 -4.35776e-17 
-4.04137e-18 -3.89120e-17 -6.40458e-17 
-3.52796e-17  8.32774e-17 -1.48053e-16 
-2.70503e-17  9.21397e-17 -1.87574e-16 
-1.64248e-17  9.10703e-17 -1.50643e-16 
-1.78158e-17  5.61339e-17 -1.05632e-16 
-8.79067e-18  6.91287e-17 -9.04774e-17 
 4.10982e-18  2.69786e-17 -8.68344e-17 
-1.16011e-17  8.60977e-17 -1.01624e-16 
-2.27700e-17  3.52139e-17 -1.03767e-16 
-9.79502e-18  4.06772e-17 -5.28490e-17 
-2.56718e-17  1.76823e-16  2.97073e-18 
 1.13179e-17 -6.11979e-17 -1.38812e-16 
 2.52866e-17 -4.86201e-17 -8.07902e-17 
 1.17042e-17 -2.26073e-17 -6.98965e-17 
 4.26859e-17 -2.90237e-17 -4.53070e-17 
 4.57338e-17 -1.15568e-16 -6.22912e-17 
 3.59061e-17 -7.93200e-17 -6.08470e-17 
 2.50848e-17 -1.09230e-16 -2.73031e-17 
 3.43351e-17 -2.88557e-17 -1.55607e-17 
 7.89960e-18 -1.23555e-16 -2.90155e-17 
-3.65134e-18 -5.33076e-17 -2.02521e-17 
-3.32419e-19  2.09608e-18 -8.09283e-17 
-3.54710e-17  1.10774e-16 -1.08636e-16 
-6.19049e-17  1.52343e-16 -1.01297e-16 
-2.65268e-17  5.53030e-17 -5.86976e-17 
-3.23309e-17  1.13183e-16 -4.95274e-17 
-2.08954e-17  5.77903e-17 -2.86683e-17 
 2.67326e-18  3.85347e-17 -8.43545e-17 
 9.86102e-18 -3.72343e-17 -7.74430e-17 
-3.56877e-17  4.96108e-17 -1.16731e-16 
-2.60868e-17  1.96572e-16 -1.71018e-16 
-3.16681e-17  1.04387e-16 -6.62811e-17 
-2.27931e-17  5.95247e-17 -5.98906e-17 
 1.72100e-17 -1.32217e-18 -4.04333e-17 
 3.16441e-17 -1.29953e-17 -3.39847e-17 
 2.65838e-17 -8.23988e-17 -5.11724e-17 
 4.32000e-17 -7.82591e-17 -4.49062e-17 
 2.67271e-17 -1.19685e-16  5.53536e-18 
 1.68586e-17 -2.31084e-17 -1.32781e-17 
 1.80448e-17 -1.33547e-16 -3.15226e-17 
-5.54843e-18 -3.55016e-17 -1.47431e-17 
-2.07938e-17  4.78385e-17 -3.79982e-17 
-4.94403e-18  8.13613e-17 -5.33276e-17 
-3.81675e-17  1.21379e-16 -5.92212e-17 
-3.82312e-17  8.93632e-17 -1.40990e-18 
-2.06899e-17  1.02800e-16 -1.54581e-17 
-1.25133e-17  4.13611e-17 -1.17987e-17 
-1.00249e-17  4.22166e-17 -4.91994e-17 
 3.11678e-17 -8.75927e-17 -3.72644e-17 
 2.71919e-17 -8.60450e-17 -3.23575e-17 
 1.53035e-17  4.48346e-17 -8.70250e-17 
 3.68328e-17 -2.65697e-17  2.64783e-17 
 2.76039e-17  1.54555e-18 -2.88721e-17 
 3.85920e-17 -9.67731e-18 -6.16625e-17 
 2.07769e-17  2.68334e-18 -6.67549e-17 
 4.12911e-17 -8.89383e-17 -8.91672e-17 
 2.81088e-17 -5.81778e-17 -8.78077e-17 
 2.01663e-17 -1.08867e-16 -4.47461e-17 
 9.98385e-18 -3.39339e-17 -4.79398e-17 
 1.61275e-18 -1.12881e-16 -3.67944e-17 
-7.21689e-18 -1.96384e-17 -3.76829e-17 
-2.07454e-18  3.46316e-17 -6.15622e-17 
-4.30186e-17  1.13806e-16 -8.06774e-17 
-4.15956e-17  1.29485e-16 -8.24526e-17 
-2.65178e-17  6.22614e-17 -2.59490e-17 
-3.80811e-17  1.17981e-16 -3.14924e-17 
-4.42996e-17  5.81835e-17 -3.15814e-17 
-1.36541e-17  1.48697e-17 -3.56107e-17 
-1.99093e-17 -4.92154e-17  2.44971e-17 
-1.64387e-17 -4.09890e-17  2.12877e-17 
 3.64670e-17  3.09210e-19  2.13774e-17 
 3.87863e-17 -4.64430e-17 -8.52991e-17 
 5.80992e-17 -4.83363e-17 -9.09129e-17 
 5.23229e-17 -2.22356e-17 -1.26906e-16 
 4.03974e-17 -2.99610e-18 -1.17008e-16 
 2.04691e-17 -5.89228e-17 -1.28456e-16 
 2.90855e-17 -4.22199e-17 -1.36359e-16 
 1.29141e-17 -1.14176e-16 -1.09345e-16 
-2.28934e-18  4.99928e-18 -1.02573e-16 
-2.26693e-17 -8.66916e-17 -9.76156e-17 
-3.61479e-19 -4.18047e-17 -8.15325e-17 
-4.10692e-17  9.54150e-17 -1.14148e-16 
-1.91667e-18  6.81445e-17 -9.48279e-17 
-1.08967e-18  9.16459e-17 -5.41874e-17 
-1.42452e-17  9.49127e-17 -5.43026e-17 
-1.06352e-17  1.04498e-16 -4.42198e-17 
-1.72604e-17  4.52789e-17 -3.29472e-17 
-5.45774e-17  1.26420e-16 -5.69973e-18 
 1.00642e-18 -5.06427e-17 -4.47918e-17 
 6.89933e-17 -1.60079e-16 -6.57910e-17 
 1.40108e-17  4.00237e-17 -1.09438e-16 
 5.51008e-17 -4.73154e-17  3.22433e-18 
 4.28746e-17 -2.99278e-17  1.64313e-17 
 4.90973e-17 -1.75995e-17  8.04703e-18 
 2.54903e-17  3.10716e-17  2.10243e-18 
 2.08299e-17 -5.04616e-17 -7.37584e-18 
 3.54155e-17 -5.29787e-17 -6.92496e-18 
 1.50261e-17 -9.57477e-17  1.42933e-17 
 3.11372e-18 -6.39657e-18  2.65274e-17 
-3.41608e-18 -8.77427e-17 -2.75464e-18 
-2.55819e-17  6.86132e-18  2.45268e-17 
-5.69436e-17  1.35650e-16  5.72367e-17 
-6.03730e-17  1.54593e-16 -2.60331e-17 
-5.39534e-19  4.91495e-17 -4.04486e-18 
 1.52044e-17  4.97804e-17 -3.12564e-17 
-5.80201e-17  1.42803e-16 -4.78789e-17 
-4.59298e-17  1.25968e-16 -8.32611e-17 
 6.17842e-18 -4.71177e-17 -6.68108e-17 
 6.46005e-17 -1.48910e-16 -1.06437e-16 
 1.04026e-17 -7.42114e-17 -1.22968e-17 
 9.75299e-17 -1.22250e-16  5.56144e-18 
 2.42927e-17 -9.44747e-18  1.19372e-17 
 3.21963e-17 -8.89402e-18  4.36163e-17 
 8.53303e-18  1.69143e-17  5.66092e-17 
 3.39697e-17 -4.05409e-18  6.89659e-17 
 1.22105e-17 -3.76218e-17  8.41280e-17 
 7.63055e-19 -1.02013e-18  9.74637e-17 
 4.83116e-18 -9.26381e-17  1.24051e-16 
 3.45227e-18 -9.46445e-18  1.22526e-16 
-5.34903e-18 -8.90072e-17  1.34918e-16 
-4.81804e-17  6.94294e-17  1.08716e-16 
-2.39517e-17  6.12840e-17  6.57607e-17 
 1.37011e-17 -9.06640e-18  2.32229e-17 
-2.19678e-17  9.26593e-17  8.19405e-17 
-1.40564e-17  6.25910e-17  4.18524e-17 
 1.62873e-17  1.16240e-17  2.06024e-17 
 5.06852e-18  1.13069e-17 -1.88492e-17 
-6.28778e-18  1.31756e-17 -1.15698e-17 
 7.93243e-18 -4.06911e-17  3.27302e-18 
 7.60810e-18 -5.34084e-17 -2.62062e-17 
-1.98444e-17  2.32102e-17 -4.12290e-17 
 1.37717e-17  2.66404e-17 -2.79068e-17 
 3.02768e-18  4.26414e-17 -1.00442e-17 
-2.53764e-17  5.45160e-17  1.82145e-17 
-2.35422e-17  8.02465e-17  4.55585e-17 
-1.89114e-17  8.32863e-18  5.66230e-17 
-6.05969e-18  2.92574e-18  6.01784e-17 
-1.02088e-17 -8.10407e-17  8.90599e-17 
-1.36774e-17  2.09635e-17  9.80230e-17 
-2.35431e-17 -6.50253e-17  8.62681e-17 
-9.72760e-18 -2.71722e-17  9.19003e-17 
-1.56328e-17  7.18233e-17  8.01020e-17 
-2.37370e-17  7.66217e-17  6.54429e-17 
 5.71478e-18  1.55425e-17  5.09438e-18 
 5.08467e-18  1.89522e-17 -5.94795e-17 
-1.05569e-17  6.19831e-17 -7.28484e-17 
 3.14811e-17 -1.71709e-17 -7.68805e-17 
 5.60712e-17 -8.55259e-17 -2.11620e-17 
 3.14843e-17 -8.25375e-17 -7.95161e-17 
 1.48611e-17 -7.25725e-17  1.39623e-19 
 4.37146e-17 -7.36396e-17  3.70966e-18 
-8.54011e-18  8.50892e-17  1.84864e-17 
-1.98461e-17  9.39345e-17  1.31450e-17 
-3.60957e-17  9.72828e-17  2.65696e-17 
-3.02947e-17  6.38349e-17  4.93545e-17 
-2.21875e-17  5.90588e-18  2.35157e-17 
-3.13510e-17  4.25579e-17  2.03687e-17 
-2.52043e-17 -5.67179e-17  5.22954e-17 
-1.22719e-17  1.02510e-17  5.55277e-17 
-3.66973e-17 -5.77224e-17  2.89373e-17 
-3.45882e-17  2.23935e-17  3.38631e-17 
-1.05899e-17  1.40677e-17  3.15878e-17 
 4.84217e-17 -6.93590e-17 -1.33555e-17 
 1.03816e-17 -1.48806e-18  3.89883e-17 
 2.49866e-17 -1.26408e-17  1.08849e-17 
 4.41438e-17 -3.93419e-17  4.96728e-18 
 3.66761e-17 -1.28001e-17 -5.89886e-18 
 2.56012e-17 -2.19131e-17  4.16585e-17 
 2.60934e-18 -3.71608e-17  2.10797e-17 
 2.17361e-17 -6.87352e-17 -5.50990e-18 
-2.22556e-17 -2.97870e-17 -2.32744e-17 
-7.04673e-18  5.85030e-17  8.01248e-17 
-1.31867e-17  7.99457e-17  4.07316e-17 
-2.06474e-17  8.08078e-17  5.97708e-18 
-4.16167e-17  9.14018e-17  1.95758e-17 
-2.73497e-17  1.39075e-17  2.13384e-17 
-3.76379e-17  4.46884e-17 -1.52602e-18 
-3.82439e-17 -3.62154e-17  1.98408e-17 
-3.80803e-17  3.70328e-17  1.76413e-17 
-1.77342e-17 -8.01330e-17  6.26868e-18 
-3.04254e-18 -3.58767e-17  2.30953e-17 
 2.67546e-18  4.22369e-17  5.45002e-17 
-2.90714e-17  3.16932e-17  2.27345e-17 
 2.58265e-17 -1.94611e-17 -1.46490e-17 
 1.80346e-17 -6.73724e-18 -4.11454e-17 
 3.55706e-17 -6.75555e-18 -2.70920e-17 
 4.17509e-17 -3.91108e-17 -2.55288e-17 
 3.49851e-17 -6.18380e-17  1.89977e-18 
 1.96183e-17 -7.29615e-17 -1.71466e-17 
 1.03529e-17 -6.83659e-17  6.81245e-17 
 1.96704e-17 -4.70209e-17  1.04323e-16 
-1.83869e-17  6.13803e-17  6.97415e-18 
-1.84632e-17  5.95878e-17 -2.55732e-17 
-1.46592e-17  6.21939e-17 -4.70881e-17 
-3.46917e-17  7.59944e-17 -1.47223e-17 
-5.39169e-17  3.25515e-17 -3.27053e-17 
-4.90309e-17  4.69260e-17 -2.20453e-17 
-3.30051e-17 -4.08651e-17  1.09276e-17 
-5.04306e-17  4.89454e-17  1.00795e-17 
-2.68107e-17 -5.94524e-17  5.40558e-18 
-1.28491e-17  1.17098e-18  2.90640e-17 
 1.98755e-17 -2.05901e-17  1.01672e-17 
 4.00286e-17 -8.56387e-17 -3.82430e-17 
 2.21254e-17 -2.66135e-17  1.29299e-17 
 3.68642e-17 -4.08613e-17 -3.01698e-17 
 3.59132e-17 -4.56871e-17 -1.30603e-17 
 3.80942e-17 -2.25537e-17 -1.58561e-17 
-1.38352e-17  1.51611e-18  4.13456e-17 
 4.47847e-18 -2.75522e-17  1.74141e-18 
-1.68688e-17 -1.72133e-17 -3.48671e-18 
-5.43885e-17  5.49024e-17 -5.19298e-17 
 8.10954e-18  3.07760e-17 -7.62698e-17 
-2.22726e-17  6.26330e-17 -5.19026e-17 
-5.14905e-17  8.91910e-17 -4.98726e-17 
-5.42870e-17  8.86233e-17 -1.72617e-17 
-7.26666e-17  4.71882e-17  1.08071e-17 
-7.26179e-17  9.85164e-17  1.20708e-17 
-4.32163e-17 -1.76535e-17  2.53872e-17 
-5.10314e-17  5.08531e-17  7.34350e-18 
-1.37520e-17 -6.73988e-17 -8.12226e-18 
 1.23980e-17 -4.25100e-17 -9.45075e-18 
 4.64008e-18  1.65659e-17  3.11041e-18 
 3.67418e-17 -4.06262e-17  2.77749e-17 
 3.94466e-17 -6.17812e-17 -4.96733e-18 
 2.67240e-17 -3.05277e-17  2.69232e-17 
 9.02009e-18  1.23421e-17  1.81259e-17 
 1.66526e-17  7.24596e-18  4.33111e-17 
 4.60249e-17 -7.21645e-17  8.88513e-18 
 1.95724e-17 -6.56688e-17  2.21496e-17 
 5.84056e-18 -5.51503e-17 -1.45413e-17 
-1.50860e-17 -7.01317e-17 -2.24219e-17 
-4.28081e-17  1.70898e-16  3.41765e-17 
-7.43753e-17  1.41237e-16  3.06062e-17 
-8.09300e-17  1.06693e-16  3.47533e-17 
-9.59098e-17  1.35015e-16  5.82125e-17 
-7.32565e-17  5.41938e-17  7.03265e-17 
-3.76749e-17  4.14537e-17  5.94729e-17 
-4.70416e-17 -3.06017e-17  3.60211e-17 
-1.82798e-17  8.57064e-18  1.95539e-17 
 5.07198e-18 -1.01785e-16  2.47237e-17 
 2.08871e-17 -2.55310e-17  1.56984e-18 
 4.63058e-17 -1.57367e-17 -1.97958e-17 
 2.68193e-17 -1.26157e-17 -2.32386e-17 
 4.13370e-18  2.80641e-17  4.03512e-17 
 2.72606e-17 -2.59367e-17  8.17586e-17 
 4.79622e-17 -4.14471e-17  5.64373e-17 
 2.30511e-17 -2.80671e-17  8.08329e-17 
 3.01824e-17 -3.09319e-17  5.83312e-17 
 2.32059e-17 -7.14576e-17  8.19869e-17 
 5.76140e-17 -1.58871e-16 -2.16931e-17 
 1.67412e-17 -1.15388e-16 -1.46424e-17 
-5.87271e-18  5.54466e-17  1.38405e-16 
-6.80274e-17  9.82990e-17  1.06322e-16 
-6.07135e-17  7.87641e-17  8.04153e-17 
-8.52505e-17  9.53988e-17  7.05182e-17 
-7.80576e-17  3.66821e-17  6.32113e-17 
-4.00586e-17  4.54169e-17  4.35237e-17 
-3.36402e-17 -5.87971e-17  2.19788e-17 
-1.19600e-17  1.41383e-17  2.01493e-17 
-1.74958e-17 -8.31113e-17  5.74580e-17 
 7.24087e-17 -7.98751e-17  4.21517e-17 
 1.77895e-17  2.96012e-17  3.72078e-17 
 2.17219e-17  1.89044e-17 -1.27485e-17 
 1.82683e-17 -3.76178e-18 -8.29491e-17 
 1.88086e-17 -1.64976e-17 -9.84520e-17 
 1.93535e-17  8.26065e-18 -7.96451e-17 
 2.87965e-17 -2.06927e-17 -8.02757e-17 
-2.19871e-18 -3.88589e-17  2.02645e-18 
 4.67242e-17 -9.49649e-17  1.99058e-18 
 6.34189e-19 -4.97855e-17  1.14893e-16 
-1.13275e-17 -1.36878e-17  1.52321e-16 
-2.35385e-17  8.25157e-17  1.19674e-16 
-5.31346e-17  6.59574e-17  1.66533e-16 
-2.78583e-17  2.12172e-17  1.21912e-16 
-5.95428e-17  3.84940e-17  8.10860e-17 
-5.48482e-17 -2.31172e-18  8.19139e-17 
-2.99276e-17  1.30480e-17  6.61862e-17 
 2.42555e-18 -7.66489e-17  2.39003e-17 
-2.09380e-17  1.55278e-17  5.34456e-17 
 4.73437e-18 -8.42346e-17  7.00427e-17 
 6.80480e-17 -4.65963e-17  1.39820e-16 
-1.09997e-18  1.79710e-17  4.21796e-17 
 1.25733e-16 -1.32929e-16 -1.15997e-16 
 4.38429e-17 -5.42661e-17 -1.26494e-16 
 7.86801e-18  2.26591e-17 -1.13117e-16 
 6.95214e-17 -6.07809e-17 -1.28021e-16 
 7.89475e-18  6.29069e-17 -1.77316e-16 
-4.81851e-17  3.53016e-17 -2.91802e-17 
-1.04423e-17  6.12058e-17  8.13389e-17 
-2.91044e-17  5.77049e-17  8.09252e-17 
-6.36079e-17  9.03246e-18  4.77563e-17 
-8.83253e-18  9.52502e-18  1.60504e-16 
 1.46351e-17 -9.22436e-19  1.19153e-16 
 1.78143e-17 -9.92644e-18 -6.62430e-17 
 2.31322e-17 -7.64145e-18  7.54993e-17 
 2.28753e-18 -7.01205e-18 -1.58320e-17 
-9.34164e-18 -2.19884e-17  2.38623e-18 
 1.89627e-17  1.44923e-18 -5.60270e-18 
 4.04433e-17 -6.88878e-17  2.48209e-17 
 2.52168e-17 -9.82733e-18  1.56913e-16 
 6.03406e-17 -6.35031e-17 -7.39186e-17 
 5.42685e-17  1.22896e-17  3.79929e-17 
 2.45222e-17 -1.62630e-16 -2.24240e-17 
 3.49963e-17  4.81400e-17 -1.45616e-17 
-4.39609e-19 -9.23282e-17  2.77916e-17 
-2.78573e-17  3.43651e-17 -1.05213e-16 
-5.12128e-18  5.91469e-17 -1.26462e-17 
-1.02002e-17  1.16244e-16  1.32036e-16 
-3.17807e-17  2.15249e-17  1.22414e-16 
-2.74043e-17  1.41983e-16  1.91849e-16 
 1.14945e-17 -6.22245e-17  1.49075e-18 
 3.33785e-17 -4.39773e-17  5.89039e-17 
 4.03236e-17 -6.43346e-17 -8.01688e-17 
 3.62011e-17 -3.34507e-17  3.50682e-17 
 2.09525e-17 -5.39505e-17 -5.38688e-17 
 1.09830e-17  1.15464e-17  5.11631e-17 
 1.69617e-17 -2.68616e-17 -1.73639e-17 
 3.65802e-17 -6.76802e-17 -1.63566e-17 
 3.77187e-17 -4.69867e-18  2.77989e-17 
 2.94023e-17 -5.18164e-17  6.83950e-17 
 2.06233e-17  6.83289e-17 -7.57095e-17 
 1.45064e-17 -1.36346e-16  3.54532e-17 
 8.66594e-18  3.89778e-17  1.84754e-17 
-1.03632e-17 -4.64329e-17  1.74892e-16 
-1.66869e-17  2.34535e-17  9.98361e-17 
-4.99076e-17  1.81490e-17  9.78194e-17 
-8.39244e-17  1.60927e-16  9.38666e-18 
-8.32534e-17  4.88492e-17  7.10813e-17 
-3.78063e-17  2.21542e-16 -5.04176e-17 
 1.03125e-17 -3.69957e-17  1.15896e-16 
 2.74249e-17 -6.99089e-17  2.22654e-17 
 1.92274e-17 -7.17030e-17  2.12597e-17 
 4.66629e-17 -9.12273e-17  1.34454e-16 
 3.65051e-17 -4.79768e-17 -2.06020e-17 
 2.29979e-17 -1.67747e-17  9.09248e-17 
 2.29495e-17 -3.78577e-17  5.49769e-17 
 1.08581e-17 -5.71959e-17  9.88979e-17 
 4.65004e-19  1.04174e-17  1.49518e-16 
-8.43041e-19 -1.14750e-17  1.56280e-16 
 2.98621e-18  5.88085e-17 -5.73629e-17 
-4.97689e-18 -1.27716e-16  3.33407e-17 
-1.08918e-17  1.16529e-16 -1.76137e-17 
-7.68502e-18 -5.03224e-17  8.83788e-17 
-1.22924e-17  7.36462e-17  1.08152e-17 
 7.75226e-18 -2.77073e-17  1.84156e-16 
-6.46372e-18  1.26545e-16  8.50806e-17 
-4.69720e-17  4.13457e-17  6.46970e-17 
-3.50881e-17  2.19569e-16  6.04292e-17 
-1.44850e-17  4.99690e-17 -1.01017e-16 
 1.46323e-17 -4.59502e-17 -8.15407e-18 
 5.71535e-17 -7.31703e-17  1.54437e-17 
 4.09820e-17 -7.39789e-17  1.53916e-16 
 4.87855e-17 -1.11419e-16  3.99147e-17 
 4.88462e-17 -2.70051e-17  1.08371e-16 
 2.48655e-17 -5.94754e-17  7.22149e-17 
 3.04383e-18 -2.41606e-17  6.00126e-17 
-1.14123e-17 -2.46987e-17  7.85016e-17 
-2.17552e-17  1.90454e-17  8.05138e-17 
-1.97189e-17  8.39125e-17 -3.09023e-17 
-1.47037e-17 -8.64959e-17  1.30551e-16 
-1.94895e-17  1.25406e-16  9.91012e-17 
-1.57689e-17 -2.03206e-17  1.81605e-16 
-5.16952e-18  8.71337e-17  1.40397e-16 
-8.77163e-18  2.01245e-17  2.12444e-16 
-1.49145e-17  8.43759e-17  1.36049e-16 
-6.15982e-18  8.31326e-18  2.34489e-16 
-7.22308e-18  6.83950e-17 -6.21102e-17 
 5.32323e-18  1.99886e-17  1.28973e-16 
-4.68048e-18 -2.04260e-17 -3.69363e-17 
 1.21389e-17 -6.21339e-17 -1.31290e-16 
 3.36257e-17 -5.29735e-17 -1.72079e-17 
 3.72445e-17 -1.18611e-16 -8.79244e-17 
 3.14580e-17 -6.08967e-17  3.23806e-17 
 2.82256e-17 -7.87829e-17 -2.85966e-17 
 3.57623e-17 -4.61504e-17 -7.51165e-17 
 2.64020e-17 -7.90054e-17 -1.28899e-16 
-1.10472e-19  2.87833e-17 -1.61595e-16 
-2.21013e-17  1.44351e-16 -2.95622e-16 
-2.21391e-17 -5.73300e-17 -2.04219e-16 
-2.84770e-17  1.44202e-16 -2.68304e-16 
-2.45315e-17 -5.94711e-18 -1.05991e-16 
-1.55598e-17  1.01529e-16 -2.56434e-16 
-3.05987e-17 -2.28970e-18 -1.64724e-16 
-3.70870e-17  1.41895e-16 -2.91792e-16 
-1.05730e-17 -3.69558e-17 -4.80219e-17 
 8.95193e-18  4.07541e-17  8.07098e-17 
 3.55485e-18 -7.65622e-17 -5.99704e-17 
 2.83302e-17 -2.55478e-17 -4.61056e-17 