<?xml version="1.0" encoding="utf-8"?>
<VTKFile byte_order="LittleEndian" type="UnstructuredGrid" version="0.1">
   <UnstructuredGrid>
      <Piece NumberOfCells="3364" NumberOfPoints="1741">
         <Points>
            <DataArray Name="Points" NumberOfComponents="3" format="ascii" type="Float32">
0.0000 1.0000 0.0000
0.0000 1.0345 0.0000
0.0000 1.0690 0.0000
0.0000 1.1034 0.0000
0.0000 1.1379 0.0000
0.0000 1.1724 0.0000
0.0000 1.2069 0.0000
0.0000 1.2414 0.0000
0.0000 1.2759 0.0000
0.0000 1.3103 0.0000
0.0000 1.3448 0.0000
0.0000 1.3793 0.0000
0.0000 1.4138 0.0000
0.0000 1.4483 0.0000
0.0000 1.4828 0.0000
0.0000 1.5172 0.0000
0.0000 1.5517 0.0000
0.0000 1.5862 0.0000
0.0000 1.6207 0.0000
0.0000 1.6552 0.0000
0.0000 1.6897 0.0000
0.0000 1.7241 0.0000
0.0000 1.7586 0.0000
0.0000 1.7931 0.0000
0.0000 1.8276 0.0000
0.0000 1.8621 0.0000
0.0000 1.8966 0.0000
0.0000 1.9310 0.0000
0.0000 1.9655 0.0000
0.0000 2.0000 0.0000
0.0690 1.0000 0.0000
0.0690 1.0345 0.0000
0.0690 1.0690 0.0000
0.0690 1.1034 0.0000
0.0690 1.1379 0.0000
0.0690 1.1724 0.0000
0.0690 1.2069 0.0000
0.0690 1.2414 0.0000
0.0690 1.2759 0.0000
0.0690 1.3103 0.0000
0.0690 1.3448 0.0000
0.0690 1.3793 0.0000
0.0690 1.4138 0.0000
0.0690 1.4483 0.0000
0.0690 1.4828 0.0000
0.0690 1.5172 0.0000
0.0690 1.5517 0.0000
0.0690 1.5862 0.0000
0.0690 1.6207 0.0000
0.0690 1.6552 0.0000
0.0690 1.6897 0.0000
0.0690 1.7241 0.0000
0.0690 1.7586 0.0000
0.0690 1.7931 0.0000
0.0690 1.8276 0.0000
0.0690 1.8621 0.0000
0.0690 1.8966 0.0000
0.0690 1.9310 0.0000
0.0690 1.9655 0.0000
0.0690 2.0000 0.0000
0.1379 1.0000 0.0000
0.1379 1.0345 0.0000
0.1379 1.0690 0.0000
0.1379 1.1034 0.0000
0.1379 1.1379 0.0000
0.1379 1.1724 0.0000
0.1379 1.2069 0.0000
0.1379 1.2414 0.0000
0.1379 1.2759 0.0000
0.1379 1.3103 0.0000
0.1379 1.3448 0.0000
0.1379 1.3793 0.0000
0.1379 1.4138 0.0000
0.1379 1.4483 0.0000
0.1379 1.4828 0.0000
0.1379 1.5172 0.0000
0.1379 1.5517 0.0000
0.1379 1.5862 0.0000
0.1379 1.6207 0.0000
0.1379 1.6552 0.0000
0.1379 1.6897 0.0000
0.1379 1.7241 0.0000
0.1379 1.7586 0.0000
0.1379 1.7931 0.0000
0.1379 1.8276 0.0000
0.1379 1.8621 0.0000
0.1379 1.8966 0.0000
0.1379 1.9310 0.0000
0.1379 1.9655 0.0000
0.1379 2.0000 0.0000
0.2069 1.0000 0.0000
0.2069 1.0345 0.0000
0.2069 1.0690 0.0000
0.2069 1.1034 0.0000
0.2069 1.1379 0.0000
0.2069 1.1724 0.0000
0.2069 1.2069 0.0000
0.2069 1.2414 0.0000
0.2069 1.2759 0.0000
0.2069 1.3103 0.0000
0.2069 1.3448 0.0000
0.2069 1.3793 0.0000
0.2069 1.4138 0.0000
0.2069 1.4483 0.0000
0.2069 1.4828 0.0000
0.2069 1.5172 0.0000
0.2069 1.5517 0.0000
0.2069 1.5862 0.0000
0.2069 1.6207 0.0000
0.2069 1.6552 0.0000
0.2069 1.6897 0.0000
0.2069 1.7241 0.0000
0.2069 1.7586 0.0000
0.2069 1.7931 0.0000
0.2069 1.8276 0.0000
0.2069 1.8621 0.0000
0.2069 1.8966 0.0000
0.2069 1.9310 0.0000
0.2069 1.9655 0.0000
0.2069 2.0000 0.0000
0.2759 1.0000 0.0000
0.2759 1.0345 0.0000
0.2759 1.0690 0.0000
0.2759 1.1034 0.0000
0.2759 1.1379 0.0000
0.2759 1.1724 0.0000
0.2759 1.2069 0.0000
0.2759 1.2414 0.0000
0.2759 1.2759 0.0000
0.2759 1.3103 0.0000
0.2759 1.3448 0.0000
0.2759 1.3793 0.0000
0.2759 1.4138 0.0000
0.2759 1.4483 0.0000
0.2759 1.4828 0.0000
0.2759 1.5172 0.0000
0.2759 1.5517 0.0000
0.2759 1.5862 0.0000
0.2759 1.6207 0.0000
0.2759 1.6552 0.0000
0.2759 1.6897 0.0000
0.2759 1.7241 0.0000
0.2759 1.7586 0.0000
0.2759 1.7931 0.0000
0.2759 1.8276 0.0000
0.2759 1.8621 0.0000
0.2759 1.8966 0.0000
0.2759 1.9310 0.0000
0.2759 1.9655 0.0000
0.2759 2.0000 0.0000
0.3448 1.0000 0.0000
0.3448 1.0345 0.0000
0.3448 1.0690 0.0000
0.3448 1.1034 0.0000
0.3448 1.1379 0.0000
0.3448 1.1724 0.0000
0.3448 1.2069 0.0000
0.3448 1.2414 0.0000
0.3448 1.2759 0.0000
0.3448 1.3103 0.0000
0.3448 1.3448 0.0000
0.3448 1.3793 0.0000
0.3448 1.4138 0.0000
0.3448 1.4483 0.0000
0.3448 1.4828 0.0000
0.3448 1.5172 0.0000
0.3448 1.5517 0.0000
0.3448 1.5862 0.0000
0.3448 1.6207 0.0000
0.3448 1.6552 0.0000
0.3448 1.6897 0.0000
0.3448 1.7241 0.0000
0.3448 1.7586 0.0000
0.3448 1.7931 0.0000
0.3448 1.8276 0.0000
0.3448 1.8621 0.0000
0.3448 1.8966 0.0000
0.3448 1.9310 0.0000
0.3448 1.9655 0.0000
0.3448 2.0000 0.0000
0.4138 1.0000 0.0000
0.4138 1.0345 0.0000
0.4138 1.0690 0.0000
0.4138 1.1034 0.0000
0.4138 1.1379 0.0000
0.4138 1.1724 0.0000
0.4138 1.2069 0.0000
0.4138 1.2414 0.0000
0.4138 1.2759 0.0000
0.4138 1.3103 0.0000
0.4138 1.3448 0.0000
0.4138 1.3793 0.0000
0.4138 1.4138 0.0000
0.4138 1.4483 0.0000
0.4138 1.4828 0.0000
0.4138 1.5172 0.0000
0.4138 1.5517 0.0000
0.4138 1.5862 0.0000
0.4138 1.6207 0.0000
0.4138 1.6552 0.0000
0.4138 1.6897 0.0000
0.4138 1.7241 0.0000
0.4138 1.7586 0.0000
0.4138 1.7931 0.0000
0.4138 1.8276 0.0000
0.4138 1.8621 0.0000
0.4138 1.8966 0.0000
0.4138 1.9310 0.0000
0.4138 1.9655 0.0000
0.4138 2.0000 0.0000
0.4828 1.0000 0.0000
0.4828 1.0345 0.0000
0.4828 1.0690 0.0000
0.4828 1.1034 0.0000
0.4828 1.1379 0.0000
0.4828 1.1724 0.0000
0.4828 1.2069 0.0000
0.4828 1.2414 0.0000
0.4828 1.2759 0.0000
0.4828 1.3103 0.0000
0.4828 1.3448 0.0000
0.4828 1.3793 0.0000
0.4828 1.4138 0.0000
0.4828 1.4483 0.0000
0.4828 1.4828 0.0000
0.4828 1.5172 0.0000
0.4828 1.5517 0.0000
0.4828 1.5862 0.0000
0.4828 1.6207 0.0000
0.4828 1.6552 0.0000
0.4828 1.6897 0.0000
0.4828 1.7241 0.0000
0.4828 1.7586 0.0000
0.4828 1.7931 0.0000
0.4828 1.8276 0.0000
0.4828 1.8621 0.0000
0.4828 1.8966 0.0000
0.4828 1.9310 0.0000
0.4828 1.9655 0.0000
0.4828 2.0000 0.0000
0.5517 1.0000 0.0000
0.5517 1.0345 0.0000
0.5517 1.0690 0.0000
0.5517 1.1034 0.0000
0.5517 1.1379 0.0000
0.5517 1.1724 0.0000
0.5517 1.2069 0.0000
0.5517 1.2414 0.0000
0.5517 1.2759 0.0000
0.5517 1.3103 0.0000
0.5517 1.3448 0.0000
0.5517 1.3793 0.0000
0.5517 1.4138 0.0000
0.5517 1.4483 0.0000
0.5517 1.4828 0.0000
0.5517 1.5172 0.0000
0.5517 1.5517 0.0000
0.5517 1.5862 0.0000
0.5517 1.6207 0.0000
0.5517 1.6552 0.0000
0.5517 1.6897 0.0000
0.5517 1.7241 0.0000
0.5517 1.7586 0.0000
0.5517 1.7931 0.0000
0.5517 1.8276 0.0000
0.5517 1.8621 0.0000
0.5517 1.8966 0.0000
0.5517 1.9310 0.0000
0.5517 1.9655 0.0000
0.5517 2.0000 0.0000
0.6207 1.0000 0.0000
0.6207 1.0345 0.0000
0.6207 1.0690 0.0000
0.6207 1.1034 0.0000
0.6207 1.1379 0.0000
0.6207 1.1724 0.0000
0.6207 1.2069 0.0000
0.6207 1.2414 0.0000
0.6207 1.2759 0.0000
0.6207 1.3103 0.0000
0.6207 1.3448 0.0000
0.6207 1.3793 0.0000
0.6207 1.4138 0.0000
0.6207 1.4483 0.0000
0.6207 1.4828 0.0000
0.6207 1.5172 0.0000
0.6207 1.5517 0.0000
0.6207 1.5862 0.0000
0.6207 1.6207 0.0000
0.6207 1.6552 0.0000
0.6207 1.6897 0.0000
0.6207 1.7241 0.0000
0.6207 1.7586 0.0000
0.6207 1.7931 0.0000
0.6207 1.8276 0.0000
0.6207 1.8621 0.0000
0.6207 1.8966 0.0000
0.6207 1.9310 0.0000
0.6207 1.9655 0.0000
0.6207 2.0000 0.0000
0.6897 1.0000 0.0000
0.6897 1.0345 0.0000
0.6897 1.0690 0.0000
0.6897 1.1034 0.0000
0.6897 1.1379 0.0000
0.6897 1.1724 0.0000
0.6897 1.2069 0.0000
0.6897 1.2414 0.0000
0.6897 1.2759 0.0000
0.6897 1.3103 0.0000
0.6897 1.3448 0.0000
0.6897 1.3793 0.0000
0.6897 1.4138 0.0000
0.6897 1.4483 0.0000
0.6897 1.4828 0.0000
0.6897 1.5172 0.0000
0.6897 1.5517 0.0000
0.6897 1.5862 0.0000
0.6897 1.6207 0.0000
0.6897 1.6552 0.0000
0.6897 1.6897 0.0000
0.6897 1.7241 0.0000
0.6897 1.7586 0.0000
0.6897 1.7931 0.0000
0.6897 1.8276 0.0000
0.6897 1.8621 0.0000
0.6897 1.8966 0.0000
0.6897 1.9310 0.0000
0.6897 1.9655 0.0000
0.6897 2.0000 0.0000
0.7586 1.0000 0.0000
0.7586 1.0345 0.0000
0.7586 1.0690 0.0000
0.7586 1.1034 0.0000
0.7586 1.1379 0.0000
0.7586 1.1724 0.0000
0.7586 1.2069 0.0000
0.7586 1.2414 0.0000
0.7586 1.2759 0.0000
0.7586 1.3103 0.0000
0.7586 1.3448 0.0000
0.7586 1.3793 0.0000
0.7586 1.4138 0.0000
0.7586 1.4483 0.0000
0.7586 1.4828 0.0000
0.7586 1.5172 0.0000
0.7586 1.5517 0.0000
0.7586 1.5862 0.0000
0.7586 1.6207 0.0000
0.7586 1.6552 0.0000
0.7586 1.6897 0.0000
0.7586 1.7241 0.0000
0.7586 1.7586 0.0000
0.7586 1.7931 0.0000
0.7586 1.8276 0.0000
0.7586 1.8621 0.0000
0.7586 1.8966 0.0000
0.7586 1.9310 0.0000
0.7586 1.9655 0.0000
0.7586 2.0000 0.0000
0.8276 1.0000 0.0000
0.8276 1.0345 0.0000
0.8276 1.0690 0.0000
0.8276 1.1034 0.0000
0.8276 1.1379 0.0000
0.8276 1.1724 0.0000
0.8276 1.2069 0.0000
0.8276 1.2414 0.0000
0.8276 1.2759 0.0000
0.8276 1.3103 0.0000
0.8276 1.3448 0.0000
0.8276 1.3793 0.0000
0.8276 1.4138 0.0000
0.8276 1.4483 0.0000
0.8276 1.4828 0.0000
0.8276 1.5172 0.0000
0.8276 1.5517 0.0000
0.8276 1.5862 0.0000
0.8276 1.6207 0.0000
0.8276 1.6552 0.0000
0.8276 1.6897 0.0000
0.8276 1.7241 0.0000
0.8276 1.7586 0.0000
0.8276 1.7931 0.0000
0.8276 1.8276 0.0000
0.8276 1.8621 0.0000
0.8276 1.8966 0.0000
0.8276 1.9310 0.0000
0.8276 1.9655 0.0000
0.8276 2.0000 0.0000
0.8966 1.0000 0.0000
0.8966 1.0345 0.0000
0.8966 1.0690 0.0000
0.8966 1.1034 0.0000
0.8966 1.1379 0.0000
0.8966 1.1724 0.0000
0.8966 1.2069 0.0000
0.8966 1.2414 0.0000
0.8966 1.2759 0.0000
0.8966 1.3103 0.0000
0.8966 1.3448 0.0000
0.8966 1.3793 0.0000
0.8966 1.4138 0.0000
0.8966 1.4483 0.0000
0.8966 1.4828 0.0000
0.8966 1.5172 0.0000
0.8966 1.5517 0.0000
0.8966 1.5862 0.0000
0.8966 1.6207 0.0000
0.8966 1.6552 0.0000
0.8966 1.6897 0.0000
0.8966 1.7241 0.0000
0.8966 1.7586 0.0000
0.8966 1.7931 0.0000
0.8966 1.8276 0.0000
0.8966 1.8621 0.0000
0.8966 1.8966 0.0000
0.8966 1.9310 0.0000
0.8966 1.9655 0.0000
0.8966 2.0000 0.0000
0.9655 1.0000 0.0000
0.9655 1.0345 0.0000
0.9655 1.0690 0.0000
0.9655 1.1034 0.0000
0.9655 1.1379 0.0000
0.9655 1.1724 0.0000
0.9655 1.2069 0.0000
0.9655 1.2414 0.0000
0.9655 1.2759 0.0000
0.9655 1.3103 0.0000
0.9655 1.3448 0.0000
0.9655 1.3793 0.0000
0.9655 1.4138 0.0000
0.9655 1.4483 0.0000
0.9655 1.4828 0.0000
0.9655 1.5172 0.0000
0.9655 1.5517 0.0000
0.9655 1.5862 0.0000
0.9655 1.6207 0.0000
0.9655 1.6552 0.0000
0.9655 1.6897 0.0000
0.9655 1.7241 0.0000
0.9655 1.7586 0.0000
0.9655 1.7931 0.0000
0.9655 1.8276 0.0000
0.9655 1.8621 0.0000
0.9655 1.8966 0.0000
0.9655 1.9310 0.0000
0.9655 1.9655 0.0000
0.9655 2.0000 0.0000
1.0345 1.0000 0.0000
1.0345 1.0345 0.0000
1.0345 1.0690 0.0000
1.0345 1.1034 0.0000
1.0345 1.1379 0.0000
1.0345 1.1724 0.0000
1.0345 1.2069 0.0000
1.0345 1.2414 0.0000
1.0345 1.2759 0.0000
1.0345 1.3103 0.0000
1.0345 1.3448 0.0000
[...]
         <PointData>
            <DataArray Name="fValues" NumberOfComponents="3" format="ascii" type="Float64">
 1.08388e-20 -3.59338e-21        00000 
-5.74941e-21  1.43735e-20        00000 
-1.06602e-20 -1.67010e-20        00000 
 9.50959e-21  6.81967e-21        00000 
-1.27923e-20 -8.88352e-22        00000 
 9.71113e-21 -3.15760e-21        00000 
-4.97477e-21 -4.08642e-21        00000 
-1.51796e-21  5.39100e-21        00000 
 2.13204e-21 -2.84273e-21        00000 
-5.37967e-21 -4.90360e-21        00000 
 6.04079e-21  2.13204e-21        00000 
-2.18765e-21 -9.01848e-21        00000 
-1.77670e-22 -4.26409e-21        00000 
 2.41121e-21 -1.57551e-21        00000 
-1.24369e-21 -8.52818e-21        00000 
 4.46460e-22  1.44653e-20        00000 
 1.12848e-21 -1.84777e-20        00000 
-2.89322e-22 -1.65136e-20        00000 
-4.10863e-22  7.10681e-21        00000 
 2.34391e-22 -1.16079e-20        00000 
 3.55341e-22  1.42136e-21        00000 
-7.51285e-22  8.06078e-21        00000 
 4.44176e-21 -7.10681e-21        00000 
-2.45553e-22  1.78584e-21        00000 
 1.42136e-21 -6.39613e-21        00000 
-1.92969e-21  5.98527e-21        00000 
 3.90875e-21 -7.10681e-22        00000 
 1.14060e-21 -2.46011e-21        00000 
-5.55502e-21  9.98168e-22        00000 
 5.14933e-21 -2.49542e-22        00000 
 4.27914e-05  6.29068e-05        00000 
 7.13379e-05  8.62817e-05        00000 
 6.63384e-05  5.51823e-05        00000 
 6.31188e-05  2.91674e-05        00000 
 6.02465e-05  6.37854e-06        00000 
 5.72457e-05 -1.40540e-05        00000 
 5.39397e-05 -3.25351e-05        00000 
 5.02693e-05 -4.92396e-05        00000 
 4.62299e-05 -6.42249e-05        00000 
 4.18444e-05 -7.74901e-05        00000 
 3.71512e-05 -8.90071e-05        00000 
 3.21975e-05 -9.87383e-05        00000 
 2.70359e-05 -1.06647e-04        00000 
 2.17225e-05 -1.12703e-04        00000 
 1.63154e-05 -1.16885e-04        00000 
 1.08743e-05 -1.19187e-04        00000 
 5.46031e-06 -1.19613e-04        00000 
 1.35109e-07 -1.18184e-04        00000 
-5.03851e-06 -1.14934e-04        00000 
-9.99696e-06 -1.09914e-04        00000 
-1.46757e-05 -1.03186e-04        00000 
-1.90091e-05 -9.48267e-05        00000 
-2.29301e-05 -8.49241e-05        00000 
-2.63693e-05 -7.35726e-05        00000 
-2.92538e-05 -6.08679e-05        00000 
-3.15041e-05 -4.68980e-05        00000 
-3.30293e-05 -3.17298e-05        00000 
-3.37256e-05 -1.53891e-05        00000 
-3.35184e-05  2.16853e-06        00000 
-1.66304e-05  1.04575e-05        00000 
 7.84807e-05  7.82898e-05        00000 
 1.51752e-04  1.21935e-04        00000 
 1.45171e-04  8.32282e-05        00000 
 1.39216e-04  4.52461e-05        00000 
 1.33115e-04  9.16822e-06        00000 
 1.26439e-04 -2.46518e-05        00000 
 1.18994e-04 -5.60455e-05        00000 
 1.10718e-04 -8.48784e-05        00000 
 1.01626e-04 -1.11018e-04        00000 
 9.17791e-05 -1.34333e-04        00000 
 8.12638e-05 -1.54699e-04        00000 
 7.01848e-05 -1.72004e-04        00000 
 5.86575e-05 -1.86159e-04        00000 
 4.68039e-05 -1.97094e-04        00000 
 3.47508e-05 -2.04766e-04        00000 
 2.26284e-05 -2.09160e-04        00000 
 1.05696e-05 -2.10290e-04        00000 
-1.29051e-06 -2.08201e-04        00000 
-1.28147e-05 -2.02970e-04        00000 
-2.38633e-05 -1.94708e-04        00000 
-3.42941e-05 -1.83560e-04        00000 
-4.39618e-05 -1.69712e-04        00000 
-5.27170e-05 -1.53387e-04        00000 
-6.04042e-05 -1.34859e-04        00000 
-6.68577e-05 -1.14452e-04        00000 
-7.18937e-05 -9.25622e-05        00000 
-7.52939e-05 -6.96810e-05        00000 
-7.67701e-05 -4.64555e-05        00000 
-7.58743e-05 -2.38414e-05        00000 
-3.54970e-05 -1.80797e-06        00000 
 1.15939e-04  7.96570e-05        00000 
 2.31938e-04  1.21417e-04        00000 
 2.28455e-04  8.05505e-05        00000 
 2.22258e-04  3.78559e-05        00000 
 2.14060e-04 -4.87656e-06        00000 
 2.04053e-04 -4.64328e-05        00000 
 1.92341e-04 -8.59909e-05        00000 
 1.79034e-04 -1.22959e-04        00000 
 1.64268e-04 -1.56888e-04        00000 
 1.48201e-04 -1.87423e-04        00000 
 1.31011e-04 -2.14281e-04        00000 
 1.12885e-04 -2.37238e-04        00000 
 9.40234e-05 -2.56124e-04        00000 
 7.46303e-05 -2.70815e-04        00000 
 5.49153e-05 -2.81237e-04        00000 
 3.50917e-05 -2.87361e-04        00000 
 1.53767e-05 -2.89205e-04        00000 
-4.00901e-06 -2.86835e-04        00000 
-2.28405e-05 -2.80368e-04        00000 
-4.08877e-05 -2.69973e-04        00000 
-5.79146e-05 -2.55876e-04        00000 
-7.36774e-05 -2.38366e-04        00000 
-8.79223e-05 -2.17801e-04        00000 
-1.00381e-04 -1.94620e-04        00000 
-1.10764e-04 -1.69351e-04        00000 
-1.18749e-04 -1.42631e-04        00000 
-1.23957e-04 -1.15220e-04        00000 
-1.25907e-04 -8.80089e-05        00000 
-1.23904e-04 -6.19808e-05        00000 
-5.86314e-05 -1.88518e-05        00000 
 1.56753e-04  7.01062e-05        00000 
 3.17611e-04  9.89256e-05        00000 
 3.16475e-04  5.43170e-05        00000 
 3.10800e-04  7.77269e-06        00000 
 3.01199e-04 -3.94341e-05        00000 
 2.88214e-04 -8.60502e-05        00000 
 2.72259e-04 -1.31023e-04        00000 
 2.53681e-04 -1.73504e-04        00000 
 2.32802e-04 -2.12818e-04        00000 
 2.09930e-04 -2.48429e-04        00000 
 1.85371e-04 -2.79911e-04        00000 
 1.59430e-04 -3.06933e-04        00000 
 1.32410e-04 -3.29245e-04        00000 
 1.04618e-04 -3.46670e-04        00000 
 7.63612e-05 -3.59096e-04        00000 
 4.79478e-05 -3.66477e-04        00000 
 1.96909e-05 -3.68829e-04        00000 
-8.09214e-06 -3.66230e-04        00000 
-3.50776e-05 -3.58821e-04        00000 
-6.09335e-05 -3.46814e-04        00000 
-8.53174e-05 -3.30490e-04        00000 
-1.07874e-04 -3.10208e-04        00000 
-1.28230e-04 -2.86413e-04        00000 
-1.45993e-04 -2.59641e-04        00000 
-1.60743e-04 -2.30527e-04        00000 
-1.72024e-04 -1.99811e-04        00000 
-1.79339e-04 -1.68328e-04        00000 
-1.82143e-04 -1.36981e-04        00000 
-1.79895e-04 -1.06652e-04        00000 
-8.60513e-05 -3.91102e-05        00000 
 2.02025e-04  5.14362e-05        00000 
 4.11561e-04  5.68359e-05        00000 
 4.12104e-04  7.65115e-06        00000 
 4.06379e-04 -4.33471e-05        00000 
 3.95087e-04 -9.48755e-05        00000 
 3.78883e-04 -1.45766e-04        00000 
 3.58374e-04 -1.94966e-04        00000 
 3.34110e-04 -2.41568e-04        00000 
 3.06598e-04 -2.84811e-04        00000 
 2.76311e-04 -3.24068e-04        00000 
 2.43703e-04 -3.58836e-04        00000 
 2.09208e-04 -3.88716e-04        00000 
 1.73252e-04 -4.13406e-04        00000 
 1.36255e-04 -4.32689e-04        00000 
 9.86290e-05 -4.46425e-04        00000 
 6.07890e-05 -4.54552e-04        00000 
 2.31500e-05 -4.57077e-04        00000 
-1.38675e-05 -4.54081e-04        00000 
-4.98350e-05 -4.45715e-04        00000 
-8.43128e-05 -4.32206e-04        00000 
-1.16847e-04 -4.13859e-04        00000 
-1.46964e-04 -3.91063e-04        00000 
-1.74171e-04 -3.64294e-04        00000 
-1.97950e-04 -3.34122e-04        00000 
-2.17754e-04 -3.01214e-04        00000 
-2.33011e-04 -2.66330e-04        00000 
-2.43123e-04 -2.30323e-04        00000 
-2.47492e-04 -1.94119e-04        00000 
-2.45538e-04 -1.58720e-04        00000 
-1.18372e-04 -6.25971e-05        00000 
 2.53308e-04  2.47100e-05        00000 
 5.16678e-04 -2.72244e-06        00000 
 5.17918e-04 -5.75600e-05        00000 
 5.11175e-04 -1.13702e-04        00000 
 4.97281e-04 -1.69897e-04        00000 
 4.77040e-04 -2.25012e-04        00000 
 4.51213e-04 -2.78045e-04        00000 
 4.20516e-04 -3.28118e-04        00000 
 3.85619e-04 -3.74476e-04        00000 
 3.47151e-04 -4.16488e-04        00000 
 3.05708e-04 -4.53634e-04        00000 
 2.61860e-04 -4.85500e-04        00000 
 2.16154e-04 -5.11764e-04        00000 
 1.69124e-04 -5.32195e-04        00000 
 1.21294e-04 -5.46641e-04        00000 
 7.31825e-05 -5.55029e-04        00000 
 2.53087e-05 -5.57357e-04        00000 
-2.18038e-05 -5.53700e-04        00000 
-6.76220e-05 -5.44204e-04        00000 
-1.11599e-04 -5.29091e-04        00000 
-1.53171e-04 -5.08660e-04        00000 
-1.91749e-04 -4.83295e-04        00000 
-2.26723e-04 -4.53462e-04        00000 
-2.57449e-04 -4.19719e-04        00000 
-2.83258e-04 -3.82720e-04        00000 
-3.03454e-04 -3.43213e-04        00000 
-3.17319e-04 -3.02051e-04        00000 
-3.24128e-04 -2.60194e-04        00000 
-3.23168e-04 -2.18723e-04        00000 
-1.56878e-04 -8.94323e-05        00000 
 3.12413e-04 -8.03389e-06        00000 
 6.36058e-04 -7.58439e-05        00000 
 6.36561e-04 -1.37437e-04        00000 
 6.27383e-04 -1.99484e-04        00000 
 6.09541e-04 -2.60784e-04        00000 
 5.84004e-04 -3.20280e-04        00000 
 5.51694e-04 -3.77047e-04        00000 
 5.13479e-04 -4.30280e-04        00000 
 4.70175e-04 -4.79287e-04        00000 
 4.22552e-04 -5.23485e-04        00000 
 3.71337e-04 -5.62390e-04        00000 
 3.17221e-04 -5.95612e-04        00000 
 2.60868e-04 -6.22846e-04        00000 
 2.02918e-04 -6.43871e-04        00000 
 1.43999e-04 -6.58539e-04        00000 
 8.47286e-05 -6.66774e-04        00000 
 2.57225e-05 -6.68571e-04        00000 
-3.23989e-05 -6.63991e-04        00000 
-8.90048e-05 -6.53164e-04        00000 
-1.43448e-04 -6.36292e-04        00000 
-1.95061e-04 -6.13647e-04        00000 
-2.43149e-04 -5.85576e-04        00000 
-2.86983e-04 -5.52509e-04        00000 
-3.25805e-04 -5.14959e-04        00000 
-3.58816e-04 -4.73533e-04        00000 
-3.85184e-04 -4.28938e-04        00000 
-4.04043e-04 -3.81994e-04        00000 
-4.14500e-04 -3.33649e-04        00000 
-4.15641e-04 -2.85000e-04        00000 
-2.03273e-04 -1.18663e-04        00000 
 3.81280e-04 -4.33368e-05        00000 
 7.72890e-04 -1.55621e-04        00000 
 7.70653e-04 -2.25056e-04        00000 
 7.57140e-04 -2.93727e-04        00000 
 7.33572e-04 -3.60555e-04        00000 
 7.01098e-04 -4.24605e-04        00000 
 6.60797e-04 -4.85074e-04        00000 
 6.13681e-04 -5.41270e-04        00000 
 5.60701e-04 -5.92604e-04        00000 
 5.02748e-04 -6.38580e-04        00000 
 4.40662e-04 -6.78787e-04        00000 
 3.75242e-04 -7.12893e-04        00000 
 3.07250e-04 -7.40638e-04        00000 
 2.37420e-04 -7.61831e-04        00000 
 1.66468e-04 -7.76344e-04        00000 
 9.50981e-05 -7.84109e-04        00000 
 2.40096e-05 -7.85118e-04        00000 
-4.60932e-05 -7.79419e-04        00000 
-1.14495e-04 -7.67119e-04        00000 
-1.80461e-04 -7.48384e-04        00000 
-2.43231e-04 -7.23441e-04        00000 
-3.02014e-04 -6.92584e-04        00000 
-3.55979e-04 -6.56177e-04        00000 
-4.04250e-04 -6.14659e-04        00000 
-4.45906e-04 -5.68559e-04        00000 
-4.79973e-04 -5.18501e-04        00000 
-5.05423e-04 -4.65224e-04        00000 
-5.21173e-04 -4.09597e-04        00000 
-5.26086e-04 -3.52650e-04        00000 
-2.59484e-04 -1.47800e-04        00000 
 4.61813e-04 -7.60766e-05        00000 
 9.30225e-04 -2.31697e-04        00000 
 9.22632e-04 -3.09944e-04        00000 
 9.02378e-04 -3.85849e-04        00000 
 8.70886e-04 -4.58529e-04        00000 
 8.29477e-04 -5.27237e-04        00000 
 7.79376e-04 -5.91339e-04        00000 
 7.21726e-04 -6.50301e-04        00000 
 6.57590e-04 -7.03671e-04        00000 
 5.87962e-04 -7.51076e-04        00000 
 5.13774e-04 -7.92207e-04        00000 
 4.35910e-04 -8.26816e-04        00000 
 3.55208e-04 -8.54709e-04        00000 
 2.72478e-04 -8.75744e-04        00000 
 1.88502e-04 -8.89825e-04        00000 
 1.04050e-04 -8.96901e-04        00000 
 1.98892e-05 -8.96964e-04        00000 
-6.32133e-05 -8.90047e-04        00000 
-1.44475e-04 -8.76229e-04        00000 
-2.23092e-04 -8.55629e-04        00000 
-2.98231e-04 -8.28418e-04        00000 
-3.69018e-04 -7.94812e-04        00000 
-4.34536e-04 -7.55087e-04        00000 
-4.93809e-04 -7.09580e-04        00000 
-5.45801e-04 -6.58704e-04        00000 
-5.89404e-04 -6.02953e-04        00000 
-6.23435e-04 -5.42928e-04        00000 
-6.46624e-04 -4.79346e-04        00000 
-6.57610e-04 -4.13077e-04        00000 
-3.27466e-04 -1.72583e-04        00000 
 5.55715e-04 -9.94300e-05        00000 
 1.11073e-03 -2.90183e-04        00000 
 1.09456e-03 -3.77995e-04        00000 
 1.06467e-03 -4.61555e-04        00000 
 1.02267e-03 -5.40255e-04        00000 
 9.70007e-04 -6.13596e-04        00000 
 9.08044e-04 -6.81168e-04        00000 
 8.38022e-04 -7.42637e-04        00000 
 7.61090e-04 -7.97726e-04        00000 
 6.78318e-04 -8.46213e-04        00000 
 5.90704e-04 -8.87916e-04        00000 
 4.99187e-04 -9.22693e-04        00000 
 4.04660e-04 -9.50434e-04        00000 
 3.07977e-04 -9.71059e-04        00000 
 2.09965e-04 -9.84515e-04        00000 
 1.11437e-04 -9.90772e-04        00000 
 1.31984e-05 -9.89826e-04        00000 
-8.39408e-05 -9.81696e-04        00000 
-1.79156e-04 -9.66424e-04        00000 
-2.71597e-04 -9.44079e-04        00000 
-3.60381e-04 -9.14754e-04        00000 
-4.44577e-04 -8.78578e-04        00000 
-5.23202e-04 -8.35711e-04        00000 
-5.95203e-04 -7.86360e-04        00000 
-6.59454e-04 -7.30781e-04        00000 
-7.14735e-04 -6.69294e-04        00000 
-7.59730e-04 -6.02298e-04        00000 
-7.93005e-04 -5.30290e-04        00000 
-8.13003e-04 -4.53885e-04        00000 
-4.09010e-04 -1.86924e-04        00000 
 6.64330e-04 -1.04961e-04        00000 
 1.31641e-03 -3.13837e-04        00000 
 1.28791e-03 -4.11656e-04        00000 
 1.24508e-03 -5.03029e-04        00000 
 1.18963e-03 -5.87699e-04        00000 
 1.12315e-03 -6.65478e-04        00000 
 1.04707e-03 -7.36228e-04        00000 
 9.62690e-04 -7.99853e-04        00000 
 8.71220e-04 -8.56285e-04        00000 
 7.73767e-04 -9.05478e-04        00000 
 6.71360e-04 -9.47400e-04        00000 
 5.64965e-04 -9.82031e-04        00000 
 4.55493e-04 -1.00936e-03        00000 
 3.43815e-04 -1.02937e-03        00000 
 2.30774e-04 -1.04207e-03        00000 
 1.17195e-04 -1.04746e-03        00000 
 3.89582e-06 -1.04553e-03        00000 
-1.08300e-04 -1.03628e-03        00000 
-2.18555e-04 -1.01972e-03        00000 
-3.26001e-04 -9.95858e-04        00000 
-4.29733e-04 -9.64702e-04        00000 
-5.28797e-04 -9.26271e-04        00000 
-6.22173e-04 -8.80593e-04        00000 
-7.08765e-04 -8.27713e-04        00000 
-7.87389e-04 -7.67698e-04        00000 
-8.56753e-04 -7.00647e-04        00000 
-9.15444e-04 -6.26704e-04        00000 
-9.61911e-04 -5.46072e-04        00000 
-9.94443e-04 -4.59031e-04        00000 
-5.05574e-04 -1.82983e-04        00000 
 7.88495e-04 -8.28186e-05        00000 
 1.54840e-03 -2.82472e-04        00000 
 1.50339e-03 -3.90336e-04        00000 
 1.44395e-03 -4.89356e-04        00000 
 1.37190e-03 -5.79687e-04        00000 
 1.28886e-03 -6.61505e-04        00000 
 1.19628e-03 -7.34987e-04        00000 
 1.09550e-03 -8.00310e-04        00000 
 9.87717e-04 -8.57639e-04        00000 
 8.74040e-04 -9.07124e-04        00000 
 7.55491e-04 -9.48899e-04        00000 
 6.33023e-04 -9.83078e-04        00000 
 5.07533e-04 -1.00975e-03        00000 
 3.79876e-04 -1.02900e-03        00000 
 2.50874e-04 -1.04086e-03        00000 
 1.21334e-04 -1.04538e-03        00000 
-7.94484e-06 -1.04254e-03        00000 
-1.36159e-04 -1.03235e-03        00000 
-2.62488e-04 -1.01475e-03        00000 
-3.86080e-04 -9.89690e-04        00000 
-5.06046e-04 -9.57088e-04        00000 
-6.21438e-04 -9.16838e-04        00000 
-7.31243e-04 -8.68820e-04        00000 
-8.34363e-04 -8.12893e-04        00000 
-9.29601e-04 -7.48907e-04        00000 
-1.01564e-03 -6.76702e-04        00000 
-1.09103e-03 -5.96117e-04        00000 
-1.15416e-03 -5.07005e-04        00000 
-1.20322e-03 -4.09239e-04        00000 
-6.18112e-04 -1.51367e-04        00000 
 9.28400e-04 -2.20505e-05        00000 
 1.80669e-03 -1.73586e-04        00000 
 1.74069e-03 -2.91058e-04        00000 
 1.66084e-03 -3.97180e-04        00000 
 1.56891e-03 -4.92574e-04        00000 
 1.46650e-03 -5.77816e-04        00000 
 1.35505e-03 -6.53430e-04        00000 
 1.23582e-03 -7.19885e-04        00000 
 1.11000e-03 -7.77597e-04        00000 
 9.78616e-04 -8.26924e-04        00000 
 8.42655e-04 -8.68174e-04        00000 
 7.03013e-04 -9.01600e-04        00000 
 5.60532e-04 -9.27407e-04        00000 
 4.16013e-04 -9.45749e-04        00000 
 2.70227e-04 -9.56731e-04        00000 
 1.23926e-04 -9.60414e-04        00000 
-2.21452e-05 -9.56808e-04        00000 
-1.67234e-04 -9.45879e-04        00000 
-3.10573e-04 -9.27543e-04        00000 
-4.51365e-04 -9.01670e-04        00000 
-5.88770e-04 -8.68079e-04        00000 
-7.21893e-04 -8.26538e-04        00000 
-8.49769e-04 -7.76764e-04        00000 
-9.71348e-04 -7.18419e-04        00000 
-1.08547e-03 -6.51114e-04        00000 
-1.19087e-03 -5.74404e-04        00000 
-1.28610e-03 -4.87793e-04        00000 
-1.36958e-03 -3.90735e-04        00000 
-1.43951e-03 -2.82641e-04        00000 
-7.46925e-04 -8.14429e-05        00000 
 1.08346e-03  8.89696e-05        00000 
 2.08995e-03  3.67536e-05        00000 
 1.99845e-03 -8.93562e-05        00000 
 1.89433e-03 -2.01632e-04        00000 
 1.77928e-03 -3.01190e-04        00000 
 1.65479e-03 -3.89029e-04        00000 
 1.52217e-03 -4.66029e-04        00000 
 1.38260e-03 -5.32960e-04        00000 
 1.23713e-03 -5.90491e-04        00000 
 1.08671e-03 -6.39191e-04        00000 
 9.32214e-04 -6.79539e-04        00000 
 7.74444e-04 -7.11928e-04        00000 
 6.14150e-04 -7.36671e-04        00000 
 4.52041e-04 -7.54003e-04        00000 
 2.88799e-04 -7.64084e-04        00000 
 1.25086e-04 -7.67002e-04        00000 
-3.84368e-05 -7.62776e-04        00000 
-2.01107e-04 -7.51350e-04        00000 
-3.62246e-04 -7.32598e-04        00000 
-5.21145e-04 -7.06318e-04        00000 
-6.77057e-04 -6.72231e-04        00000 
-8.29182e-04 -6.29977e-04        00000 
-9.76652e-04 -5.79109e-04        00000 
-1.11852e-03 -5.19089e-04        00000 
-1.25372e-03 -4.49280e-04        00000 
-1.38110e-03 -3.68945e-04        00000 
-1.49931e-03 -2.77233e-04        00000 
-1.60688e-03 -1.73180e-04        00000 
-1.70211e-03 -5.57002e-05        00000 
-8.91519e-04  3.82068e-05        00000 
 1.25220e-03  2.61978e-04        00000 
 2.39539e-03  3.72762e-04        00000 
 2.27403e-03  2.39542e-04        00000 
 2.14203e-03  1.22467e-04        00000 
 2.00085e-03  1.99264e-05        00000 
 1.85178e-03 -6.94923e-05        00000 
 1.69594e-03 -1.47017e-04        00000 
 1.53434e-03 -2.13709e-04        00000 
 1.36785e-03 -2.70476e-04        00000 
 1.19728e-03 -3.18085e-04        00000 
 1.02333e-03 -3.57178e-04        00000 
 8.46690e-04 -3.88275e-04        00000 
 6.67961e-04 -4.11791e-04        00000 
 4.87728e-04 -4.28034e-04        00000 
 3.06549e-04 -4.37213e-04        00000 
 1.24968e-04 -4.39446e-04        00000 
-5.64780e-05 -4.34753e-04        00000 
-2.37245e-04 -4.23062e-04        00000 
-4.16777e-04 -4.04205e-04        00000 
-5.94494e-04 -3.77915e-04        00000 
-7.69779e-04 -3.43821e-04        00000 
-9.41972e-04 -3.01441e-04        00000 
-1.11035e-03 -2.50175e-04        00000 
-1.27412e-03 -1.89292e-04        00000 
-1.43239e-03 -1.17920e-04        00000 
-1.58416e-03 -3.50359e-05        00000 
-1.72831e-03  6.05568e-05        00000 
-1.86353e-03  1.70237e-04        00000 
-1.98833e-03  2.95588e-04        00000 
-1.05050e-03  2.19205e-04        00000 
 1.43223e-03  5.08125e-04        00000 
 2.71868e-03  8.57503e-04        00000 
 2.56359e-03  7.19249e-04        00000 
 2.40051e-03  5.99110e-04        00000 
 2.23061e-03  4.95017e-04        00000 
 2.05487e-03  4.05180e-04        00000 
 1.87414e-03  3.28061e-04        00000 
 1.68916e-03  2.62342e-04        00000 
 1.50060e-03  2.06905e-04        00000 
 1.30904e-03  1.60810e-04        00000 
 1.11501e-03  1.23278e-04        00000 
 9.19003e-04  9.36767e-05        00000 
 7.21457e-04  7.15085e-05        00000 
 5.22798e-04  5.64016e-05        00000 
 3.23429e-04  4.81031e-05        00000 
 1.23743e-04  4.64752e-05        00000 
-7.58720e-05  5.14928e-05        00000 