<?xml version="1.0" encoding="utf-8"?>
<VTKFile byte_order="LittleEndian" type="UnstructuredGrid" version="0.1">
   <UnstructuredGrid>
      <Piece NumberOfCells="44104" NumberOfPoints="22276">
         <Points>
            <DataArray Name="Points" NumberOfComponents="3" format="ascii" type="Float32">
0.0000 0.0000 0.0000
0.0000 0.0134 0.0000
0.0000 0.0268 0.0000
0.0000 0.0403 0.0000
0.0000 0.0537 0.0000
0.0000 0.0671 0.0000
0.0000 0.0805 0.0000
0.0000 0.0940 0.0000
0.0000 0.1074 0.0000
0.0000 0.1208 0.0000
0.0000 0.1342 0.0000
0.0000 0.1477 0.0000
0.0000 0.1611 0.0000
0.0000 0.1745 0.0000
0.0000 0.1879 0.0000
0.0000 0.2013 0.0000
0.0000 0.2148 0.0000
0.0000 0.2282 0.0000
0.0000 0.2416 0.0000
0.0000 0.2550 0.0000
0.0000 0.2685 0.0000
0.0000 0.2819 0.0000
0.0000 0.2953 0.0000
0.0000 0.3087 0.0000
0.0000 0.3221 0.0000
0.0000 0.3356 0.0000
0.0000 0.3490 0.0000
0.0000 0.3624 0.0000
0.0000 0.3758 0.0000
0.0000 0.3893 0.0000
0.0000 0.4027 0.0000
0.0000 0.4161 0.0000
0.0000 0.4295 0.0000
0.0000 0.4430 0.0000
0.0000 0.4564 0.0000
0.0000 0.4698 0.0000
0.0000 0.4832 0.0000
0.0000 0.4966 0.0000
0.0000 0.5101 0.0000
0.0000 0.5235 0.0000
0.0000 0.5369 0.0000
0.0000 0.5503 0.0000
0.0000 0.5638 0.0000
0.0000 0.5772 0.0000
0.0000 0.5906 0.0000
0.0000 0.6040 0.0000
0.0000 0.6174 0.0000
0.0000 0.6309 0.0000
0.0000 0.6443 0.0000
0.0000 0.6577 0.0000
0.0000 0.6711 0.0000
0.0000 0.6846 0.0000
0.0000 0.6980 0.0000
0.0000 0.7114 0.0000
0.0000 0.7248 0.0000
0.0000 0.7383 0.0000
0.0000 0.7517 0.0000
0.0000 0.7651 0.0000
0.0000 0.7785 0.0000
0.0000 0.7919 0.0000
0.0000 0.8054 0.0000
0.0000 0.8188 0.0000
0.0000 0.8322 0.0000
0.0000 0.8456 0.0000
0.0000 0.8591 0.0000
0.0000 0.8725 0.0000
0.0000 0.8859 0.0000
0.0000 0.8993 0.0000
0.0000 0.9128 0.0000
0.0000 0.9262 0.0000
0.0000 0.9396 0.0000
0.0000 0.9530 0.0000
0.0000 0.9664 0.0000
0.0000 0.9799 0.0000
0.0000 0.9933 0.0000
0.0000 1.0067 0.0000
0.0000 1.0201 0.0000
0.0000 1.0336 0.0000
0.0000 1.0470 0.0000
0.0000 1.0604 0.0000
0.0000 1.0738 0.0000
0.0000 1.0872 0.0000
0.0000 1.1007 0.0000
0.0000 1.1141 0.0000
0.0000 1.1275 0.0000
0.0000 1.1409 0.0000
0.0000 1.1544 0.0000
0.0000 1.1678 0.0000
0.0000 1.1812 0.0000
0.0000 1.1946 0.0000
0.0000 1.2081 0.0000
0.0000 1.2215 0.0000
0.0000 1.2349 0.0000
0.0000 1.2483 0.0000
0.0000 1.2617 0.0000
0.0000 1.2752 0.0000
0.0000 1.2886 0.0000
0.0000 1.3020 0.0000
0.0000 1.3154 0.0000
0.0000 1.3289 0.0000
0.0000 1.3423 0.0000
0.0000 1.3557 0.0000
0.0000 1.3691 0.0000
0.0000 1.3826 0.0000
0.0000 1.3960 0.0000
0.0000 1.4094 0.0000
0.0000 1.4228 0.0000
0.0000 1.4362 0.0000
0.0000 1.4497 0.0000
0.0000 1.4631 0.0000
0.0000 1.4765 0.0000
0.0000 1.4899 0.0000
0.0000 1.5034 0.0000
0.0000 1.5168 0.0000
0.0000 1.5302 0.0000
0.0000 1.5436 0.0000
0.0000 1.5570 0.0000
0.0000 1.5705 0.0000
0.0000 1.5839 0.0000
0.0000 1.5973 0.0000
0.0000 1.6107 0.0000
0.0000 1.6242 0.0000
0.0000 1.6376 0.0000
0.0000 1.6510 0.0000
0.0000 1.6644 0.0000
0.0000 1.6779 0.0000
0.0000 1.6913 0.0000
0.0000 1.7047 0.0000
0.0000 1.7181 0.0000
0.0000 1.7315 0.0000
0.0000 1.7450 0.0000
0.0000 1.7584 0.0000
0.0000 1.7718 0.0000
0.0000 1.7852 0.0000
0.0000 1.7987 0.0000
0.0000 1.8121 0.0000
0.0000 1.8255 0.0000
0.0000 1.8389 0.0000
0.0000 1.8523 0.0000
0.0000 1.8658 0.0000
0.0000 1.8792 0.0000
0.0000 1.8926 0.0000
0.0000 1.9060 0.0000
0.0000 1.9195 0.0000
0.0000 1.9329 0.0000
0.0000 1.9463 0.0000
0.0000 1.9597 0.0000
0.0000 1.9732 0.0000
0.0000 1.9866 0.0000
0.0000 2.0000 0.0000
0.0135 0.0000 0.0000
0.0135 0.0134 0.0000
0.0135 0.0268 0.0000
0.0135 0.0403 0.0000
0.0135 0.0537 0.0000
0.0135 0.0671 0.0000
0.0135 0.0805 0.0000
0.0135 0.0940 0.0000
0.0135 0.1074 0.0000
0.0135 0.1208 0.0000
0.0135 0.1342 0.0000
0.0135 0.1477 0.0000
0.0135 0.1611 0.0000
0.0135 0.1745 0.0000
0.0135 0.1879 0.0000
0.0135 0.2013 0.0000
0.0135 0.2148 0.0000
0.0135 0.2282 0.0000
0.0135 0.2416 0.0000
0.0135 0.2550 0.0000
0.0135 0.2685 0.0000
0.0135 0.2819 0.0000
0.0135 0.2953 0.0000
0.0135 0.3087 0.0000
0.0135 0.3221 0.0000
0.0135 0.3356 0.0000
0.0135 0.3490 0.0000
0.0135 0.3624 0.0000
0.0135 0.3758 0.0000
0.0135 0.3893 0.0000
0.0135 0.4027 0.0000
0.0135 0.4161 0.0000
0.0135 0.4295 0.0000
0.0135 0.4430 0.0000
0.0135 0.4564 0.0000
0.0135 0.4698 0.0000
0.0135 0.4832 0.0000
0.0135 0.4966 0.0000
0.0135 0.5101 0.0000
0.0135 0.5235 0.0000
0.0135 0.5369 0.0000
0.0135 0.5503 0.0000
0.0135 0.5638 0.0000
0.0135 0.5772 0.0000
0.0135 0.5906 0.0000
0.0135 0.6040 0.0000
0.0135 0.6174 0.0000
0.0135 0.6309 0.0000
0.0135 0.6443 0.0000
0.0135 0.6577 0.0000
0.0135 0.6711 0.0000
0.0135 0.6846 0.0000
0.0135 0.6980 0.0000
0.0135 0.7114 0.0000
0.0135 0.7248 0.0000
0.0135 0.7383 0.0000
0.0135 0.7517 0.0000
0.0135 0.7651 0.0000
0.0135 0.7785 0.0000
0.0135 0.7919 0.0000
0.0135 0.8054 0.0000
0.0135 0.8188 0.0000
0.0135 0.8322 0.0000
0.0135 0.8456 0.0000
0.0135 0.8591 0.0000
0.0135 0.8725 0.0000
0.0135 0.8859 0.0000
0.0135 0.8993 0.0000
0.0135 0.9128 0.0000
0.0135 0.9262 0.0000
0.0135 0.9396 0.0000
0.0135 0.9530 0.0000
0.0135 0.9664 0.0000
0.0135 0.9799 0.0000
0.0135 0.9933 0.0000
0.0135 1.0067 0.0000
0.0135 1.0201 0.0000
0.0135 1.0336 0.0000
0.0135 1.0470 0.0000
0.0135 1.0604 0.0000
0.0135 1.0738 0.0000
0.0135 1.0872 0.0000
0.0135 1.1007 0.0000
0.0135 1.1141 0.0000
0.0135 1.1275 0.0000
0.0135 1.1409 0.0000
0.0135 1.1544 0.0000
0.0135 1.1678 0.0000
0.0135 1.1812 0.0000
0.0135 1.1946 0.0000
0.0135 1.2081 0.0000
0.0135 1.2215 0.0000
0.0135 1.2349 0.0000
0.0135 1.2483 0.0000
0.0135 1.2617 0.0000
0.0135 1.2752 0.0000
0.0135 1.2886 0.0000
0.0135 1.3020 0.0000
0.0135 1.3154 0.0000
0.0135 1.3289 0.0000
0.0135 1.3423 0.0000
0.0135 1.3557 0.0000
0.0135 1.3691 0.0000
0.0135 1.3826 0.0000
0.0135 1.3960 0.0000
0.0135 1.4094 0.0000
0.0135 1.4228 0.0000
0.0135 1.4362 0.0000
0.0135 1.4497 0.0000
0.0135 1.4631 0.0000
0.0135 1.4765 0.0000
0.0135 1.4899 0.0000
0.0135 1.5034 0.0000
0.0135 1.5168 0.0000
0.0135 1.5302 0.0000
0.0135 1.5436 0.0000
0.0135 1.5570 0.0000
0.0135 1.5705 0.0000
0.0135 1.5839 0.0000
0.0135 1.5973 0.0000
0.0135 1.6107 0.0000
0.0135 1.6242 0.0000
0.0135 1.6376 0.0000
0.0135 1.6510 0.0000
0.0135 1.6644 0.0000
0.0135 1.6779 0.0000
0.0135 1.6913 0.0000
0.0135 1.7047 0.0000
0.0135 1.7181 0.0000
0.0135 1.7315 0.0000
0.0135 1.7450 0.0000
0.0135 1.7584 0.0000
0.0135 1.7718 0.0000
0.0135 1.7852 0.0000
0.0135 1.7987 0.0000
0.0135 1.8121 0.0000
0.0135 1.8255 0.0000
0.0135 1.8389 0.0000
0.0135 1.8523 0.0000
0.0135 1.8658 0.0000
0.0135 1.8792 0.0000
0.0135 1.8926 0.0000
0.0135 1.9060 0.0000
0.0135 1.9195 0.0000
0.0135 1.9329 0.0000
0.0135 1.9463 0.0000
0.0135 1.9597 0.0000
0.0135 1.9732 0.0000
0.0135 1.9866 0.0000
0.0135 2.0000 0.0000
0.0270 0.0000 0.0000
0.0270 0.0134 0.0000
0.0270 0.0268 0.0000
0.0270 0.0403 0.0000
0.0270 0.0537 0.0000
0.0270 0.0671 0.0000
0.0270 0.0805 0.0000
0.0270 0.0940 0.0000
0.0270 0.1074 0.0000
0.0270 0.1208 0.0000
0.0270 0.1342 0.0000
0.0270 0.1477 0.0000
0.0270 0.1611 0.0000
0.0270 0.1745 0.0000
0.0270 0.1879 0.0000
0.0270 0.2013 0.0000
0.0270 0.2148 0.0000
0.0270 0.2282 0.0000
0.0270 0.2416 0.0000
0.0270 0.2550 0.0000
0.0270 0.2685 0.0000
0.0270 0.2819 0.0000
0.0270 0.2953 0.0000
0.0270 0.3087 0.0000
0.0270 0.3221 0.0000
0.0270 0.3356 0.0000
0.0270 0.3490 0.0000
0.0270 0.3624 0.0000
0.0270 0.3758 0.0000
0.0270 0.3893 0.0000
0.0270 0.4027 0.0000
0.0270 0.4161 0.0000
0.0270 0.4295 0.0000
0.0270 0.4430 0.0000
0.0270 0.4564 0.0000
0.0270 0.4698 0.0000
0.0270 0.4832 0.0000
0.0270 0.4966 0.0000
0.0270 0.5101 0.0000
0.0270 0.5235 0.0000
0.0270 0.5369 0.0000
0.0270 0.5503 0.0000
0.0270 0.5638 0.0000
0.0270 0.5772 0.0000
0.0270 0.5906 0.0000
0.0270 0.6040 0.0000
0.0270 0.6174 0.0000
0.0270 0.6309 0.0000
0.0270 0.6443 0.0000
0.0270 0.6577 0.0000
0.0270 0.6711 0.0000
0.0270 0.6846 0.0000
0.0270 0.6980 0.0000
0.0270 0.7114 0.0000
0.0270 0.7248 0.0000
0.0270 0.7383 0.0000
0.0270 0.7517 0.0000
0.0270 0.7651 0.0000
0.0270 0.7785 0.0000
0.0270 0.7919 0.0000
0.0270 0.8054 0.0000
0.0270 0.8188 0.0000
0.0270 0.8322 0.0000
0.0270 0.8456 0.0000
0.0270 0.8591 0.0000
0.0270 0.8725 0.0000
0.0270 0.8859 0.0000
0.0270 0.8993 0.0000
0.0270 0.9128 0.0000
0.0270 0.9262 0.0000
0.0270 0.9396 0.0000
0.0270 0.9530 0.0000
0.0270 0.9664 0.0000
0.0270 0.9799 0.0000
0.0270 0.9933 0.0000
0.0270 1.0067 0.0000
0.0270 1.0201 0.0000
0.0270 1.0336 0.0000
0.0270 1.0470 0.0000
0.0270 1.0604 0.0000
0.0270 1.0738 0.0000
0.0270 1.0872 0.0000
0.0270 1.1007 0.0000
0.0270 1.1141 0.0000
0.0270 1.1275 0.0000
0.0270 1.1409 0.0000
0.0270 1.1544 0.0000
0.0270 1.1678 0.0000
0.0270 1.1812 0.0000
0.0270 1.1946 0.0000
0.0270 1.2081 0.0000
0.0270 1.2215 0.0000
0.0270 1.2349 0.0000
0.0270 1.2483 0.0000
0.0270 1.2617 0.0000
0.0270 1.2752 0.0000
0.0270 1.2886 0.0000
0.0270 1.3020 0.0000
0.0270 1.3154 0.0000
0.0270 1.3289 0.0000
0.0270 1.3423 0.0000
0.0270 1.3557 0.0000
0.0270 1.3691 0.0000
0.0270 1.3826 0.0000
0.0270 1.3960 0.0000
0.0270 1.4094 0.0000
0.0270 1.4228 0.0000
0.0270 1.4362 0.0000
0.0270 1.4497 0.0000
0.0270 1.4631 0.0000
0.0270 1.4765 0.0000
0.0270 1.4899 0.0000
0.0270 1.5034 0.0000
0.0270 1.5168 0.0000
0.0270 1.5302 0.0000
0.0270 1.5436 0.0000
0.0270 1.5570 0.0000
0.0270 1.5705 0.0000
0.0270 1.5839 0.0000
0.0270 1.5973 0.0000
0.0270 1.6107 0.0000
0.0270 1.6242 0.0000
0.0270 1.6376 0.0000
0.0270 1.6510 0.0000
0.0270 1.6644 0.0000
0.0270 1.6779 0.0000
0.0270 1.6913 0.0000
0.0270 1.7047 0.0000
0.0270 1.7181 0.0000
0.0270 1.7315 0.0000
0.0270 1.7450 0.0000
0.0270 1.7584 0.0000
0.0270 1.7718 0.0000
0.0270 1.7852 0.0000
0.0270 1.7987 0.0000
0.0270 1.8121 0.0000
0.0270 1.8255 0.0000
0.0270 1.8389 0.0000
0.0270 1.8523 0.0000
0.0270 1.8658 0.0000
0.0270 1.8792 0.0000
0.0270 1.8926 0.0000
0.0270 1.9060 0.0000
0.0270 1.9195 0.0000
0.0270 1.9329 0.0000
0.0270 1.9463 0.0000
0.0270 1.9597 0.0000
0.0270 1.9732 0.0000
0.0270 1.9866 0.0000
0.0270 2.0000 0.0000
0.0405 0.0000 0.0000
0.0405 0.0134 0.0000
0.0405 0.0268 0.0000
0.0405 0.0403 0.0000
0.0405 0.0537 0.0000
0.0405 0.0671 0.0000
0.0405 0.0805 0.0000
0.0405 0.0940 0.0000
0.0405 0.1074 0.0000
0.0405 0.1208 0.0000
0.0405 0.1342 0.0000
[...]
         <PointData>
            <DataArray Name="fValues" NumberOfComponents="1" format="ascii" type="Float64">
 1.00000e+00 
 1.00000e+00 
 1.00000e+00 
 1.00000e+00 
 1.00000e+00 
 1.00000e+00 
 1.00000e+00 
 1.00000e+00 
 1.00000e+00 
 1.00000e+00 
       00001 
       00001 
 1.00000e+00 
 1.00000e+00 
 1.00000e+00 
       00001 
 1.00000e+00 
 1.00000e+00 
       00001 
 1.00000e+00 
       00001 
 1.00000e+00 
 1.00000e+00 
 1.00000e+00 
       00001 
 1.00000e+00 
       00001 
 1.00000e+00 
 1.00000e+00 
 1.00000e+00 
 1.00000e+00 
 1.00000e+00 
       00001 
 1.00000e+00 
 1.00000e+00 
 1.00000e+00 
 1.00000e+00 
       00001 
 1.00000e+00 
 9.99622e-01 
 9.99307e-01 
 9.99340e-01 
 9.99388e-01 
 9.99453e-01 
 9.99541e-01 
 9.99656e-01 
 9.99805e-01 
 9.99995e-01 
 1.00000e+00 
 1.00000e+00 
 1.00000e+00 
 1.00000e+00 
       00001 
       00001 
 1.00000e+00 
 1.00000e+00 
       00001 
 1.00000e+00 
       00001 
 1.00000e+00 
 1.00000e+00 
 1.00000e+00 
 1.00000e+00 
 1.00000e+00 
       00001 
       00001 
 1.00000e+00 
 1.00000e+00 
       00001 
 1.00000e+00 
       00001 
 1.00000e+00 
       00001 
 1.00000e+00 
 1.00000e+00 
 1.00000e+00 
 1.00000e+00 
 1.00000e+00 
 1.00000e+00 
 1.00000e+00 
 1.00000e+00 
       00001 
 1.00000e+00 
 1.00000e+00 
 1.00000e+00 
 1.00000e+00 
 1.00000e+00 
       00001 
 1.00000e+00 
 1.00000e+00 
 1.00000e+00 
       00001 
       00001 
 1.00000e+00 
 1.00000e+00 
 1.00000e+00 
 1.00000e+00 
-3.17732e-17 
 7.26042e-18 
-1.11766e-18 
 2.06402e-19 
-2.89130e-20 
 4.90441e-21 
-8.49225e-22 
 1.47545e-22 
-2.54418e-23 
 6.48010e-24 
-2.72456e-23 
 2.34736e-22 
-1.62241e-21 
 4.03173e-21 
 2.92289e-20 
-6.14883e-19 
 1.14840e-17 
 1.84712e-01 
 1.76885e-01 
 1.74171e-01 
 1.63639e-01 
 1.51597e-01 
 1.36790e-01 
 1.19291e-01 
 9.97156e-02 
 8.01486e-02 
 3.67947e-02 
 1.97627e-18 
-2.38799e-19 
 3.55502e-20 
-5.43667e-21 
 8.48707e-22 
-1.34669e-22 
 2.17319e-23 
-3.58967e-24 
 6.15235e-25 
-1.11563e-25 
 2.20176e-26 
-4.81467e-27 
 1.24758e-27 
-3.90954e-28 
 1.42272e-28 
-5.44613e-29 
 1.96247e-29 
-5.81556e-30 
 8.82837e-31 
 5.32522e-31 
-7.65164e-31 
 7.02717e-31 
-6.06972e-31 
 5.28215e-31 
-4.74817e-31 
 4.55406e-31 
 1.00000e+00 
 1.00000e+00 
 1.00000e+00 
       00001 
 1.00000e+00 
 1.00000e+00 
 1.00000e+00 
       00001 
 1.00000e+00 
 1.00000e+00 
 1.00000e+00 
 1.00000e+00 
 1.00000e+00 
 1.00000e+00 
 1.00000e+00 
 1.00000e+00 
 1.00000e+00 
 1.00000e+00 
 1.00000e+00 
 1.00000e+00 
 1.00000e+00 
 1.00000e+00 
 1.00000e+00 
 1.00000e+00 
 1.00000e+00 
 1.00000e+00 
 1.00000e+00 
 1.00000e+00 
 1.00000e+00 
 1.00000e+00 
 1.00000e+00 
 1.00000e+00 
 1.00000e+00 
 1.00000e+00 
 1.00000e+00 
 1.00000e+00 
       00001 
 1.00000e+00 
 1.00000e+00 
 9.99848e-01 
 9.99343e-01 
 9.99378e-01 
 9.99424e-01 
 9.99485e-01 
 9.99563e-01 
 9.99662e-01 
 9.99785e-01 
 9.99938e-01 
 1.00000e+00 
 1.00000e+00 
 1.00000e+00 
 1.00000e+00 
 1.00000e+00 
 1.00000e+00 
 1.00000e+00 
 1.00000e+00 
 1.00000e+00 
 1.00000e+00 
 1.00000e+00 
 1.00000e+00 
 1.00000e+00 
 1.00000e+00 
 1.00000e+00 
 1.00000e+00 
 1.00000e+00 
 1.00000e+00 
 1.00000e+00 
 1.00000e+00 
       00001 
 1.00000e+00 
 1.00000e+00 
 1.00000e+00 
 1.00000e+00 
 1.00000e+00 
 1.00000e+00 
 1.00000e+00 
 1.00000e+00 
 1.00000e+00 
 1.00000e+00 
 1.00000e+00 
       00001 
 1.00000e+00 
 1.00000e+00 
 1.00000e+00 
 1.00000e+00 
 1.00000e+00 
 1.00000e+00 
 1.00000e+00 
       00001 
 1.00000e+00 
 1.00000e+00 
 1.00000e+00 
 1.00000e+00 
 1.00000e+00 
 1.00000e+00 
 1.00000e+00 
 1.00000e+00 
 5.66534e-17 
-5.41478e-18 
 1.27213e-18 
-2.21402e-19 
 2.81267e-20 
-4.95255e-21 
 8.67748e-22 
-1.49145e-22 
 2.49204e-23 
-3.17449e-24 
 6.76460e-24 
-1.23518e-22 
 1.38285e-21 
-1.24388e-20 
 5.77903e-20 
-7.36278e-20 
 2.69985e-18 
 1.12604e-01 
 7.44030e-02 
 7.15455e-02 
 6.06455e-02 
 5.02774e-02 
 4.08035e-02 
 3.16196e-02 
 2.01390e-02 
 4.01244e-04 
 3.94789e-18 
-1.37533e-18 
 1.89601e-19 
-2.95895e-20 
 4.68710e-21 
-7.50752e-22 
 1.21954e-22 
-2.02669e-23 
 3.50001e-24 
-6.41390e-25 
 1.29267e-25 
-2.77484e-26 
 7.10565e-27 
-2.18048e-27 
 7.93903e-28 
-3.15218e-28 
 1.22051e-28 
-4.12413e-29 
 9.93474e-30 
 2.00454e-31 
-2.45714e-30 
 2.45825e-30 
-2.10342e-30 
 1.80081e-30 
-1.56163e-30 
 1.38916e-30 
-1.32387e-30 
 1.00000e+00 
 1.00000e+00 
 1.00000e+00 
 1.00000e+00 
 1.00000e+00 
 1.00000e+00 
       00001 
 1.00000e+00 
 1.00000e+00 
 1.00000e+00 
 1.00000e+00 
 1.00000e+00 
 1.00000e+00 
 1.00000e+00 
 1.00000e+00 
 1.00000e+00 
 1.00000e+00 
       00001 
 1.00000e+00 
 1.00000e+00 
 1.00000e+00 
 1.00000e+00 
 1.00000e+00 
 1.00000e+00 
 1.00000e+00 
 1.00000e+00 
 1.00000e+00 
 1.00000e+00 
 1.00000e+00 
 1.00000e+00 
 1.00000e+00 
 1.00000e+00 
 1.00000e+00 
 1.00000e+00 
 1.00000e+00 
 1.00000e+00 
       00001 
 1.00000e+00 
 1.00000e+00 
 1.00000e+00 
 9.99401e-01 
 9.99435e-01 
 9.99479e-01 
 9.99532e-01 
 9.99596e-01 
 9.99675e-01 
 9.99768e-01 
 9.99879e-01 
 1.00000e+00 
 1.00000e+00 
 1.00000e+00 
 1.00000e+00 
 1.00000e+00 
 1.00000e+00 
       00001 
 1.00000e+00 
 1.00000e+00 
       00001 
 1.00000e+00 
 1.00000e+00 
 1.00000e+00 
 1.00000e+00 
       00001 
 1.00000e+00 
 1.00000e+00 
 1.00000e+00 
 1.00000e+00 
 1.00000e+00 
 1.00000e+00 
 1.00000e+00 
 1.00000e+00 
 1.00000e+00 
 1.00000e+00 
 1.00000e+00 
 1.00000e+00 
 1.00000e+00 
 1.00000e+00 
 1.00000e+00 
 1.00000e+00 
 1.00000e+00 
       00001 
 1.00000e+00 
 1.00000e+00 
 1.00000e+00 
       00001 
       00001 
 1.00000e+00 
 1.00000e+00 
 1.00000e+00 
 1.00000e+00 
       00001 
 1.00000e+00 
 1.00000e+00 
 1.00000e+00 
 1.00000e+00 
 1.00000e+00 
 1.00000e+00 
 3.58064e-17 
 1.12981e-17 
-1.56128e-18 
 2.24339e-19 
-2.94262e-20 
 5.39191e-21 
-9.01412e-22 
 1.48408e-22 
-2.27501e-23 
-5.68562e-24 
 5.15108e-23 
-2.50976e-22 
 8.86391e-22 
 1.10333e-20 
-2.28303e-19 
 1.64767e-18 
-5.76570e-18 
 1.38385e-01 
 7.05444e-02 
 5.59665e-02 
 3.63954e-02 
 1.82552e-02 
 1.17471e-18 
-3.34261e-20 
-4.69905e-19 
 4.70755e-19 
-4.84567e-19 
 2.95584e-19 
-8.80399e-20 
 1.67831e-20 
-2.98887e-21 
 5.25307e-22 
-9.47096e-23 
 1.81619e-23 
-3.80900e-24 
 8.77448e-25 
-2.04777e-25 
 5.97643e-26 
-1.94924e-26 
 7.45655e-27 
-3.14796e-27 
 1.31365e-27 
-4.88979e-28 
 1.42093e-28 
-1.80921e-29 
-1.43247e-29 
 1.70593e-29 
-1.40919e-29 
 1.17011e-29 
-1.01059e-29 
 8.73496e-30 
-7.63157e-30 
 7.19407e-30 
 1.00000e+00 
 1.00000e+00 
 1.00000e+00 
 1.00000e+00 
 1.00000e+00 
 1.00000e+00 
       00001 
 1.00000e+00 
       00001 
       00001 
 1.00000e+00 
 1.00000e+00 
 1.00000e+00 
 1.00000e+00 
 1.00000e+00 
 1.00000e+00 
 1.00000e+00 
 1.00000e+00 
 1.00000e+00 
 1.00000e+00 
 1.00000e+00 
 1.00000e+00 
 1.00000e+00 
 1.00000e+00 
 1.00000e+00 
 1.00000e+00 
 1.00000e+00 
 1.00000e+00 
 1.00000e+00 
 1.00000e+00 
 1.00000e+00 
 1.00000e+00 
 1.00000e+00 
 1.00000e+00 
 1.00000e+00 
 1.00000e+00 
 1.00000e+00 
 1.00000e+00 
 1.00000e+00 
 1.00000e+00 
 9.99456e-01 
 9.99487e-01 
 9.99524e-01 
 9.99568e-01 
 9.99620e-01 
 9.99679e-01 
 9.99746e-01 
 9.99822e-01 
 9.99906e-01 
 9.99997e-01 
 1.00000e+00 
 1.00000e+00 
 1.00000e+00 
 1.00000e+00 
 1.00000e+00 
 1.00000e+00 
 1.00000e+00 
 1.00000e+00 
       00001 
 1.00000e+00 
 1.00000e+00 
 1.00000e+00 
 9.99940e-01 
 9.99883e-01 
 9.99842e-01 
 9.99817e-01 
 9.99807e-01 
 9.99810e-01 
 9.99815e-01 
 9.99817e-01 
 9.99816e-01 
 9.99819e-01 
 9.99821e-01 
 1.00000e+00 
 1.00000e+00 
 1.00000e+00 
 1.00000e+00 
 1.00000e+00 
 1.00000e+00 
       00001 
 1.00000e+00 
 1.00000e+00 
 1.00000e+00 
 1.00000e+00 
       00001 
 1.00000e+00 
 1.00000e+00 
 1.00000e+00 
 1.00000e+00 
 1.00000e+00 
 1.00000e+00 
 1.00000e+00 
 1.00000e+00 
 1.00000e+00 
 1.00000e+00 
 1.00000e+00 
       00001 
 4.89784e-01 
-9.72217e-19 
 1.53228e-18 
-2.31662e-19 
 3.95491e-20 
-5.51586e-21 
 8.37757e-22 
-1.30349e-22 
 1.76902e-23 
 1.63330e-23 
-1.24734e-22 
 8.03398e-22 
-5.05666e-21 
 1.11206e-20 
 2.75263e-20 
-1.52525e-18 
 2.85968e-17 
 1.71473e-01 
 1.18438e-01 
 1.06342e-01 
 8.05448e-02 
 5.27086e-02 
 2.16493e-02 
 2.09616e-18 
 1.72283e-19 
-1.11522e-19 
 5.70448e-20 
-4.27371e-20 
 2.07261e-20 
-6.11438e-21 
 1.44794e-21 
-3.46823e-22 
 8.92945e-23 
-2.45903e-23 
 7.03388e-24 
-2.00692e-24 
 5.81206e-25 
-1.89466e-25 
 7.28541e-26 
-3.20321e-26 
 1.43238e-26 
-5.83930e-27 
 1.95946e-27 
-4.21158e-28 
-5.17844e-29 
 1.27457e-28 
-1.03535e-28 
 7.87266e-29 
-6.65868e-29 
 5.88697e-29 
-5.04996e-29 
 4.29218e-29 
-3.98190e-29 
 1.00000e+00 
 1.00000e+00 
 1.00000e+00 
       00001 
 1.00000e+00 
 1.00000e+00 
 1.00000e+00 
 1.00000e+00 
 1.00000e+00 
 1.00000e+00 
 1.00000e+00 
 1.00000e+00 
 1.00000e+00 
 1.00000e+00 
 1.00000e+00 
 1.00000e+00 
 1.00000e+00 
 1.00000e+00 
 1.00000e+00 
 1.00000e+00 
 1.00000e+00 
 1.00000e+00 
       00001 
 1.00000e+00 
 1.00000e+00 
 1.00000e+00 
 1.00000e+00 
       00001 
 1.00000e+00 
 1.00000e+00 
 1.00000e+00 
 1.00000e+00 
 1.00000e+00 
 1.00000e+00 
 1.00000e+00 
 1.00000e+00 
 1.00000e+00 
 1.00000e+00 
 1.00000e+00 
 1.00000e+00 
 9.99500e-01 
 9.99523e-01 
 9.99551e-01 
 9.99585e-01 
 9.99622e-01 
 9.99664e-01 
 9.99708e-01 
 9.99755e-01 
 9.99803e-01 
 9.99849e-01 
 9.99889e-01 
 9.99919e-01 
 9.99931e-01 
 9.99920e-01 
 9.99880e-01 
 9.99808e-01 
 9.99711e-01 
 9.99603e-01 
 9.99510e-01 
 9.99452e-01 
 9.99434e-01 
 9.99444e-01 
 9.99461e-01 
 9.99466e-01 
 9.99457e-01 
 9.99438e-01 
 9.99419e-01 
 9.99404e-01 
 9.99398e-01 
 9.99396e-01 
 9.99396e-01 
 9.99409e-01 
 9.99436e-01 
 1.00000e+00 
 1.00000e+00 
 1.00000e+00 
 1.00000e+00 
 1.00000e+00 
 1.00000e+00 
 1.00000e+00 
 1.00000e+00 
 1.00000e+00 
 1.00000e+00 
 1.00000e+00 
 1.00000e+00 
 1.00000e+00 
 1.00000e+00 
 1.00000e+00 
 1.00000e+00 
       00001 
 1.00000e+00 
 1.00000e+00 
 1.00000e+00 
 1.00000e+00 
 1.00000e+00 
 1.00000e+00 
       00001 
 4.66446e-01 
 9.66829e-18 
-9.14977e-19 
 1.81903e-19 
-2.47093e-20 
 3.65347e-21 
-5.42622e-22 
 8.29371e-23 
-9.41103e-24 
-2.26878e-23 
 1.67139e-22 
-1.13645e-21 
 8.25247e-21 
-6.93379e-20 
 4.58872e-19 
-4.71599e-18 
 1.05885e-01 
 1.93361e-01 
 1.54599e-01 
 1.49016e-01 
 1.26892e-01 
 9.85080e-02 
 6.36063e-02 
 2.28485e-02 
-1.38429e-18 
-2.69105e-19 
 7.80997e-20 
-2.14330e-20 
 1.71216e-21 
 1.38676e-21 
-1.19808e-21 
 5.50929e-22 
-2.02448e-22 
 6.87055e-23 
-2.11699e-23 
 6.05148e-24 
-1.92206e-24 
 7.07431e-25 
-3.16209e-25 
 1.50864e-25 
-6.70517e-26 
 2.52914e-26 
-7.03504e-27 
 5.48623e-28 
 9.46456e-28 
-8.57029e-28 
 5.70025e-28 
-4.27009e-28 
 3.83111e-28 
-3.48407e-28 
 2.93604e-28 
-2.39581e-28 
 2.17215e-28 
 1.00000e+00 
 1.00000e+00 
 1.00000e+00 
 1.00000e+00 
 1.00000e+00 
       00001 
 1.00000e+00 
 1.00000e+00 
 1.00000e+00 
 1.00000e+00 
 1.00000e+00 
 1.00000e+00 
 1.00000e+00 
 1.00000e+00 
 1.00000e+00 
 1.00000e+00 
 1.00000e+00 
 1.00000e+00 
 1.00000e+00 
 1.00000e+00 
 1.00000e+00 
 1.00000e+00 
 1.00000e+00 
 1.00000e+00 
 1.00000e+00 
 1.00000e+00 
 1.00000e+00 
 1.00000e+00 
 1.00000e+00 
 1.00000e+00 
 1.00000e+00 
       00001 
 1.00000e+00 
 1.00000e+00 
 1.00000e+00 
 1.00000e+00 
 1.00000e+00 
 1.00000e+00 
 1.00000e+00 
 1.00000e+00 
 9.99527e-01 
 9.99540e-01 
 9.99557e-01 
 9.99578e-01 
 9.99602e-01 
 9.99627e-01 
 9.99652e-01 
 9.99675e-01 
 9.99696e-01 
 9.99710e-01 
 9.99715e-01 
 9.99706e-01 
 9.99678e-01 
 9.99628e-01 
 9.99557e-01 
 9.99474e-01 
 9.99403e-01 
 9.99385e-01 
 9.99468e-01 
 9.99686e-01 
 1.00000e+00 
 1.00000e+00 
       00001 
 1.00000e+00 
 1.00000e+00 
 1.00000e+00 
 1.00000e+00 
 9.99884e-01 
 9.99739e-01 
 9.99589e-01 
 9.99470e-01 
 9.99393e-01 
 9.99351e-01 
 1.00000e+00 
 1.00000e+00 
 1.00000e+00 
 1.00000e+00 
 1.00000e+00 
 1.00000e+00 
 1.00000e+00 
 1.00000e+00 
 1.00000e+00 
 1.00000e+00 
 1.00000e+00 
 1.00000e+00 
       00001 
 1.00000e+00 
 1.00000e+00 
 1.00000e+00 
 1.00000e+00 
 1.00000e+00 
 1.00000e+00 
 1.00000e+00 
 1.00000e+00 
 1.00000e+00 
 1.00000e+00 
 1.00000e+00 
 1.46384e-17 
 3.74566e-18 
-2.17142e-19 
 2.26822e-20 
-1.74729e-22 
-2.38439e-22 
 7.24965e-23 
-1.53266e-23 
-7.90961e-25 
 2.34946e-23 
-1.43409e-22 
 8.03496e-22 
-6.21024e-21 
 3.43013e-20 
-1.88171e-19 
 7.76932e-19 
 1.10407e-01 
 2.14380e-01 
 1.80118e-01 
 1.77939e-01 
 1.63337e-01 
 1.41518e-01 
 1.10821e-01 
 7.13367e-02 
 2.38859e-02 
-2.34104e-19 
-6.81997e-19 
 1.05673e-19 
-1.91547e-21 
-5.55838e-21 
 4.02782e-21 
-2.09346e-21 
 7.98346e-22 
-2.52419e-22 
 7.03133e-23 
-2.02963e-23 
 6.79448e-24 
-2.99248e-24 
 1.51909e-24 
-7.39385e-25 
 3.08568e-25 
-1.02096e-25 
 1.92646e-26 
 5.50379e-27 
-7.82277e-27 
 4.92476e-27 
-2.88134e-27 
 2.29194e-27 
-2.25719e-27 
 2.09917e-27 
-1.71162e-27 
 1.31975e-27 
-1.15935e-27 
 1.00000e+00 
 1.00000e+00 
 1.00000e+00 
 1.00000e+00 
       00001 
       00001 
 1.00000e+00 
 1.00000e+00 
 1.00000e+00 
 1.00000e+00 
 1.00000e+00 
 1.00000e+00 
       00001 
 1.00000e+00 
 1.00000e+00 
 1.00000e+00 
 1.00000e+00 
 1.00000e+00 
 1.00000e+00 
 1.00000e+00 
 1.00000e+00 
 1.00000e+00 
 1.00000e+00 
 1.00000e+00 
 1.00000e+00 
 1.00000e+00 
 1.00000e+00 
 1.00000e+00 
 1.00000e+00 
 1.00000e+00 
 1.00000e+00 
 1.00000e+00 
 1.00000e+00 
 1.00000e+00 
 1.00000e+00 
       00001 
 1.00000e+00 
 1.00000e+00 
 1.00000e+00 
 1.00000e+00 
 9.99540e-01 
 9.99539e-01 
 9.99544e-01 
 9.99553e-01 
 9.99562e-01 
 9.99572e-01 
 9.99580e-01 
 9.99586e-01 
 9.99587e-01 
 9.99581e-01 
 9.99566e-01 
 9.99539e-01 
 9.99499e-01 
 9.99446e-01 
 9.99395e-01 
 9.99374e-01 
 9.99446e-01 
 9.99710e-01 
 1.00000e+00 
 1.00000e+00 
 1.00000e+00 
 1.00000e+00 
 1.00000e+00 
 1.00000e+00 
 1.00000e+00 
 1.00000e+00 
 1.00000e+00 
 1.00000e+00 
 1.00000e+00 
 9.99979e-01 
 9.99757e-01 
 9.99674e-01 
 9.99566e-01 
 1.00000e+00 
 1.00000e+00 
       00001 
 1.00000e+00 
       00001 
 1.00000e+00 
 1.00000e+00 
 1.00000e+00 
 1.00000e+00 
 1.00000e+00 
       00001 
 1.00000e+00 
 1.00000e+00 
 1.00000e+00 
 1.00000e+00 
 1.00000e+00 
 1.00000e+00 
 1.00000e+00 
 1.00000e+00 
 1.00000e+00 
 1.00000e+00 
 1.00000e+00 
 1.00000e+00 
 1.00000e+00 
 1.00757e-16 
-8.07102e-18 
 1.00018e-18 
-1.52051e-19 
 2.01713e-20 
-2.58609e-21 
 3.34553e-22 
-4.40787e-23 
 9.46429e-24 
-2.18750e-23 
 1.13133e-22 
-6.19911e-22 
 3.23150e-21 
-9.61494e-21 
-5.65883e-20 
 1.95319e-18 
 1.05433e-01 
 2.30971e-01 
 1.95581e-01 
 1.96255e-01 
 1.88023e-01 
 1.74089e-01 
 1.51710e-01 
 1.19769e-01 
 7.73783e-02 
 2.56058e-02 
 8.23679e-19 
 3.96439e-20 
-4.41281e-20 
 4.21660e-20 
-2.06905e-20 
 9.59456e-21 
-3.10784e-21 
 8.27170e-22 
-2.07197e-22 
 6.46818e-23 
-2.70294e-23 
 1.43242e-23 
-7.83152e-24 
 3.59285e-24 
-1.34526e-24 
 3.63299e-25 
-6.49914e-27 
-6.99827e-26 
 5.07095e-26 
-2.45776e-26 
 1.33897e-26 
-1.24629e-26 
 1.37747e-26 
-1.28653e-26 
 9.96035e-27 
-7.12623e-27 
 6.00839e-27 
       00001 
 1.00000e+00 
 1.00000e+00 
 1.00000e+00 
 1.00000e+00 
       00001 
 1.00000e+00 
       00001 
 1.00000e+00 
 1.00000e+00 
 1.00000e+00 
 1.00000e+00 
 1.00000e+00 
 1.00000e+00 
 1.00000e+00 
 1.00000e+00 
 1.00000e+00 
 1.00000e+00 
 1.00000e+00 
 1.00000e+00 
 1.00000e+00 
 1.00000e+00 
 1.00000e+00 
 1.00000e+00 
 1.00000e+00 
 1.00000e+00 
 1.00000e+00 
 1.00000e+00 
 1.00000e+00 
 1.00000e+00 
 1.00000e+00 
 1.00000e+00 
       00001 
 1.00000e+00 
 1.00000e+00 
 1.00000e+00 
 1.00000e+00 
 1.00000e+00 
 1.00000e+00 
 1.00000e+00 
 9.99543e-01 
 9.99528e-01 
 9.99519e-01 
 9.99514e-01 
 9.99511e-01 
 9.99508e-01 
 9.99503e-01 
 9.99495e-01 
 9.99483e-01 
 9.99467e-01 
 9.99445e-01 
 9.99417e-01 
 9.99384e-01 
 9.99359e-01 
 9.99368e-01 
 9.99479e-01 
 9.99832e-01 
 1.00000e+00 
 1.00000e+00 
 1.00000e+00 
 3.45368e-01 
 2.13229e-02 
 1.35070e-02 
 1.00033e-02 
 8.55145e-03 
 7.98002e-03 
 7.75900e-03 
 7.68791e-03 
 7.73186e-03 
 7.18067e-03 
 5.92314e-03 
 6.00699e-03 
 4.98425e-03 
 1.00000e+00 
 1.00000e+00 
 1.00000e+00 
 1.00000e+00 
 1.00000e+00 
       00001 
 1.00000e+00 
 1.00000e+00 
 1.00000e+00 
 1.00000e+00 
 1.00000e+00 
 1.00000e+00 
 1.00000e+00 
 1.00000e+00 
 1.00000e+00 
 1.00000e+00 
 1.00000e+00 
 1.00000e+00 
 1.00000e+00 
 1.00000e+00 
 1.00000e+00 
 1.00000e+00 
 1.00000e+00 
 9.90234e-01 
-2.23590e-17 
 6.08669e-18 
-9.18371e-19 
 1.80520e-19 
-2.43795e-20 
 3.45114e-21 
-4.91767e-22 
 7.12172e-23 
-1.43255e-23 
 2.34746e-23 
-1.14840e-22 
 5.17188e-22 
-3.40042e-21 
 1.51691e-20 
-7.92094e-20 
 9.41510e-19 
 1.14338e-01 
 2.45190e-01 
 2.06147e-01 
 2.07314e-01 
 2.03105e-01 
 1.95457e-01 
 1.81323e-01 
 1.58961e-01 
 1.26558e-01 
 8.27272e-02 
 2.85069e-02 
-1.41227e-18 
 2.49484e-19 
-1.66879e-19 
 1.21953e-19 
-3.95361e-20 
 1.02841e-20 
-2.12922e-21 
 6.14634e-22 
-2.45979e-22 
 1.18501e-22 
-7.89517e-23 
 4.06513e-23 
-1.64241e-23 
 5.44017e-24 
-9.91988e-25 
-4.87328e-25 
 5.57110e-25 
-2.69980e-25 
 1.07600e-25 
-5.42421e-26 
 7.17671e-26 
-8.71345e-26 
 8.00923e-26 
-5.72720e-26 
 3.74284e-26 
-2.99576e-26 
 1.00000e+00 
 1.00000e+00 
 1.00000e+00 
 1.00000e+00 
 1.00000e+00 
 1.00000e+00 
 1.00000e+00 
 1.00000e+00 
 1.00000e+00 
 1.00000e+00 
 1.00000e+00 
 1.00000e+00 
 1.00000e+00 
 1.00000e+00 
 1.00000e+00 
 1.00000e+00 
       00001 
 1.00000e+00 
 1.00000e+00 
 1.00000e+00 
 1.00000e+00 
 1.00000e+00 
 1.00000e+00 
 1.00000e+00 
 1.00000e+00 
 1.00000e+00 
 1.00000e+00 
       00001 
 1.00000e+00 
 1.00000e+00 
 1.00000e+00 
 1.00000e+00 
       00001 
 1.00000e+00 
 1.00000e+00 
 1.00000e+00 
 1.00000e+00 
 1.00000e+00 
 1.00000e+00 
 1.00000e+00 
 9.99544e-01 
 9.99512e-01 
 9.99489e-01 
 9.99473e-01 
 9.99458e-01 
 9.99444e-01 
 9.99428e-01 
 9.99412e-01 
 9.99394e-01 
 9.99374e-01 
 9.99355e-01 
 9.99337e-01 
 9.99328e-01 
 9.99347e-01 
 9.99445e-01 
 9.99739e-01 
 1.00000e+00 
 1.00000e+00 
 6.63391e-01 
 1.98344e-02 
 8.27163e-03 
 4.88691e-03 
 4.17592e-03 
 4.13051e-03 
 4.24162e-03 
 4.41434e-03 
 4.60552e-03 
 4.82577e-03 
 5.20063e-03 
 5.36547e-03 
 4.98925e-03 
 4.99232e-03 
 5.35265e-03 
-1.30461e-17 
 6.39057e-17 
-2.78445e-17 
 1.00000e+00 
       00001 
 1.00000e+00 
       00001 
 1.00000e+00 
 1.00000e+00 
 1.00000e+00 
 1.00000e+00 
 1.00000e+00 
 1.00000e+00 
 1.00000e+00 
 1.00000e+00 
 1.00000e+00 
       00001 
 1.00000e+00 
       00001 
 1.00000e+00 
 1.00000e+00 
 1.00000e+00 
 1.00000e+00 
 2.19999e-01 
 2.61416e-18 
-1.85141e-18 
 5.09689e-19 
-8.57466e-20 
 1.57021e-20 
-2.55222e-21 
 4.04645e-22 
-6.39950e-23 
 1.70869e-23 
-2.86801e-23 
 1.58162e-22 
-9.21147e-22 
 6.52939e-21 
-3.31613e-20 
 2.20791e-19 
-1.88651e-18 
 1.13443e-01 
 2.60643e-01 
 2.16145e-01 
 2.14791e-01 
 2.11870e-01 
 2.08168e-01 
 2.00318e-01 
 1.86540e-01 
 1.64792e-01 
 1.32894e-01 
 8.91286e-02 
 3.40989e-02 
 7.19545e-19 
 1.78634e-18 
-4.90431e-19 
 1.41506e-19 
-2.10622e-20 
 4.35665e-21 
-3.07589e-21 
 6.44663e-22 
-7.14121e-22 
 4.62203e-22 
-1.90305e-22 
 7.10922e-23 
-1.88409e-23 
 2.07181e-24 
 7.19293e-24 
-2.50719e-24 
 1.69297e-24 
-1.40911e-25 
 2.76303e-25 
-4.02706e-25 
 5.92920e-25 
-4.94622e-25 
 3.22140e-25 
-1.89759e-25 
 1.41655e-25 
       00001 
 1.00000e+00 
 1.00000e+00 
       00001 
 1.00000e+00 
 1.00000e+00 
 1.00000e+00 
 1.00000e+00 
       00001 
 1.00000e+00 
 1.00000e+00 
 1.00000e+00 
 1.00000e+00 
 1.00000e+00 
 1.00000e+00 
 1.00000e+00 
 1.00000e+00 
 1.00000e+00 
 1.00000e+00 
 1.00000e+00 
 1.00000e+00 
 1.00000e+00 
 1.00000e+00 
 1.00000e+00 
 1.00000e+00 
 1.00000e+00 
 1.00000e+00 
 1.00000e+00 
 1.00000e+00 
       00001 
 1.00000e+00 
 1.00000e+00 
 1.00000e+00 
 1.00000e+00 
 1.00000e+00 
 1.00000e+00 
 1.00000e+00 
 1.00000e+00 
 1.00000e+00 
 1.00000e+00 
 9.99549e-01 
 9.99500e-01 
 9.99464e-01 
 9.99436e-01 
 9.99412e-01 
 9.99389e-01 
 9.99367e-01 
 9.99346e-01 
 9.99326e-01 
 9.99309e-01 
 9.99298e-01 
 9.99297e-01 
 9.99317e-01 
 9.99388e-01 
 9.99581e-01 
 1.00000e+00 
       00001 
 7.27615e-01 
 1.36274e-02 
 5.16721e-03 
 3.69886e-03 
 3.51767e-03 
 3.59598e-03 
 3.70971e-03 
 3.85593e-03 
 4.03016e-03 
 4.23342e-03 
 4.48768e-03 
 4.82557e-03 
 5.19355e-03 