<?xml version="1.0" encoding="utf-8"?>
<VTKFile byte_order="LittleEndian" type="UnstructuredGrid" version="0.1">
   <UnstructuredGrid>
      <Piece NumberOfCells="96627" NumberOfPoints="18115">
         <Points>
            <DataArray Name="Points" NumberOfComponents="3" format="ascii" type="Float32">
0.2768 -0.9609 0.0000
0.2225 -0.9749 0.0000
0.3303 -0.9439 0.0000
0.3063 -0.9519 0.0494
0.2922 -0.9010 0.0000
0.2351 -0.9115 0.0000
0.2497 -0.9683 0.0594
0.3346 -0.8874 0.0000
0.1985 -0.9801 0.0509
0.1837 -0.9233 0.0000
0.3565 -0.9343 0.0578
0.2992 -0.8766 0.0578
0.1675 -0.9859 0.0000
0.3827 -0.9239 0.0000
0.2058 -0.9110 0.0816
0.3180 -0.9481 0.1298
0.3845 -0.8592 0.0000
0.2136 -0.9769 0.1339
0.4109 -0.9117 0.0485
0.2831 -0.8091 0.0000
0.1285 -0.9255 0.0000
0.1397 -0.9902 0.0614
0.1658 -0.8480 0.0000
0.1120 -0.9937 0.0000
0.4339 -0.9010 0.0000
0.1999 -0.8184 0.0783
0.1042 -0.9381 0.0492
0.3972 -0.8457 0.0769
0.2836 -0.8262 0.1333
0.0896 -0.9960 0.0552
0.4321 -0.8363 0.0000
0.0771 -0.9445 0.0000
0.4216 -0.9068 0.1280
0.4589 -0.8885 0.0566
0.2176 -0.8981 0.1924
0.3719 -0.7723 0.0000
0.1080 -0.9942 0.1346
0.3170 -0.8934 0.2075
0.0561 -0.9984 0.0000
0.4837 -0.8752 0.0000
0.1941 -0.7483 0.0000
0.0532 -0.9613 0.0517
0.0628 -0.8639 0.0000
0.2842 -0.9588 0.2367
0.0775 -0.8838 0.1026
0.2612 -0.7389 0.0881
0.3851 -0.9229 0.2232
0.0264 -0.9410 0.0000
0.1965 -0.9805 0.2392
0.4852 -0.8149 0.0000
0.3535 -0.7540 0.1274
0.2911 -0.7027 0.0000
0.5105 -0.8599 0.0481
0.0279 -0.9996 0.0640
0.1174 -0.8055 0.1341
0.2060 -0.7715 0.1671
0.2506 -0.8273 0.2312
0.4845 -0.7895 0.0574
0.1607 -0.7266 0.0895
0.0000 -1.0000 0.0000
0.5320 -0.8467 0.0000
0.0852 -0.7558 0.0000
0.3995 -0.8231 0.2155
0.1245 -0.8890 0.2291
0.2760 -0.7412 0.1936
0.5206 -0.8538 0.1280
0.4561 -0.7258 0.0000
0.0933 -0.9956 0.2329
0.5222 -0.7902 0.0000
0.0463 -0.9424 0.1957
-0.0306 -0.9511 0.0000
0.2136 -0.9001 0.2955
0.3679 -0.6657 0.0000
0.5555 -0.8315 0.0558
-0.0279 -0.9996 0.0640
0.2202 -0.6544 0.0521
0.3936 -0.6844 0.1013
0.4901 -0.8008 0.1731
0.3157 -0.6556 0.0820
0.0000 -1.0000 0.1560
0.3552 -0.8458 0.2888
0.1458 -0.6657 0.0000
-0.0287 -0.9051 0.0908
0.4857 -0.8741 0.2324
0.4199 -0.7302 0.1867
0.3461 -0.9382 0.3245
0.1646 -0.7728 0.2534
-0.0561 -0.9984 0.0000
0.5787 -0.8156 0.0000
0.2158 -0.6705 0.1555
-0.0484 -0.8720 0.0000
0.4864 -0.7212 0.1119
0.2426 -0.9701 0.3375
0.0000 -0.7606 0.0000
0.0408 -0.7265 0.0820
-0.0658 -0.9496 0.0487
0.1123 -0.6648 0.0738
-0.0249 -0.8852 0.1539
0.0330 -0.8479 0.2270
-0.0748 -0.9442 0.0000
0.2877 -0.8171 0.3254
0.5661 -0.7521 0.0000
0.1398 -0.9902 0.3310
0.4300 -0.9028 0.3214
0.2882 -0.5984 0.0000
-0.0021 -0.7874 0.1548
0.2382 -0.7683 0.3111
0.6039 -0.7971 0.0474
-0.0873 -0.9962 0.0531
0.0540 -0.9202 0.2933
0.3053 -0.6452 0.1933
0.3261 -0.7038 0.2722
-0.0464 -0.7823 0.0881
0.0372 -0.6631 0.0000
0.4612 -0.7638 0.2718
0.1834 -0.8162 0.3426
0.2315 -0.6751 0.2546
-0.0996 -0.9366 0.0802
0.5850 -0.7320 0.0591
0.1394 -0.9048 0.3598
-0.1120 -0.9937 0.0000
0.6235 -0.7818 0.0000
0.4657 -0.6171 0.0000
0.4829 -0.6314 0.0672
0.2037 -0.5723 0.0000
0.0863 -0.8292 0.3205
0.0814 -0.7012 0.2278
0.6142 -0.7891 0.1260
-0.0357 -0.9180 0.2482
0.4583 -0.6402 0.1641
-0.1018 -0.9948 0.1398
0.4111 -0.8038 0.3491
0.2756 -0.5754 0.1275
0.0219 -0.6615 0.1058
0.0378 -0.9993 0.3277
0.1060 -0.6179 0.1389
0.5797 -0.8148 0.2308
0.3751 -0.5875 0.1322
-0.1316 -0.9321 0.0000
0.6073 -0.7192 0.0000
-0.0304 -0.6898 0.0521
0.2266 -0.8725 0.4012
0.5598 -0.6582 0.0000
0.2886 -0.9575 0.4148
0.3237 -0.5508 0.0429
-0.0852 -0.7558 0.0000
0.5387 -0.7154 0.2106
0.3895 -0.5592 0.0000
0.3075 -0.8638 0.4086
0.6452 -0.7641 0.0553
-0.1397 -0.9902 0.0614
0.5277 -0.8494 0.3217
0.4431 -0.6658 0.2601
0.0182 -0.7608 0.2753
0.3889 -0.6297 0.2467
-0.0648 -0.8250 0.2237
-0.0328 -0.7174 0.1769
0.0938 -0.5692 0.0000
-0.1111 -0.8208 0.1347
0.5505 -0.6585 0.1517
0.1691 -0.6980 0.3298
0.3913 -0.9203 0.4182
-0.0751 -0.9972 0.2547
-0.1436 -0.8451 0.0000
0.1889 -0.9820 0.4267
0.2313 -0.5817 0.2174
-0.1166 -0.9043 0.1903
0.1300 -0.6352 0.2619
-0.0122 -0.8484 0.3167
-0.1675 -0.9859 0.0000
0.6663 -0.7456 0.0000
0.1799 -0.5451 0.1282
0.2660 -0.6795 0.3488
0.6080 -0.6987 0.1628
0.2993 -0.6081 0.2865
0.0305 -0.6361 0.2026
0.0443 -0.8899 0.3886
0.0282 -0.5769 0.0583
0.4486 -0.7179 0.3526
-0.0289 -0.9432 0.3452
0.5172 -0.7063 0.3009
-0.1837 -0.9233 0.0000
0.6467 -0.6840 0.0000
0.3540 -0.7368 0.3974
0.2151 -0.7446 0.4059
0.5078 -0.7790 0.3595
0.3257 -0.5483 0.2103
0.1159 -0.8252 0.4164
0.0859 -0.9963 0.4244
0.4791 -0.8777 0.4169
0.3045 -0.4899 0.0000
-0.1219 -0.7174 0.0820
0.2486 -0.4933 0.0764
0.0593 -0.6932 0.3305
-0.1980 -0.9802 0.0511
0.0342 -0.7970 0.3800
0.5290 -0.5732 0.1293
0.6911 -0.7228 0.0491
0.3597 -0.6448 0.3578
0.2050 -0.6046 0.3211
0.3361 -0.4953 0.1257
0.1134 -0.9175 0.4560
0.2066 -0.8745 0.4761
0.6306 -0.6434 0.1151
0.6674 -0.6690 0.0397
0.0211 -0.5647 0.1326
0.3466 -0.8062 0.4601
-0.2047 -0.9104 0.0820
-0.1111 -0.7378 0.2058
0.0053 -0.6450 0.2658
-0.1113 -0.6548 0.0000
-0.0615 -0.6106 0.0867
0.4692 -0.5774 0.2479
-0.1198 -0.8796 0.2876
0.5378 -0.5378 0.0000
-0.1693 -0.7415 0.0000
0.6293 -0.6703 0.2018
-0.2225 -0.9749 0.0000
0.7071 -0.7071 0.0000
0.0832 -0.5510 0.2102
0.0937 -0.5157 0.1348
0.6666 -0.7454 0.2301
0.1515 -0.4755 0.0000
-0.0651 -0.6656 0.2204
0.6208 -0.7840 0.3240
0.4435 -0.7628 0.4348
-0.2112 -0.9774 0.1348
0.5578 -0.5928 0.2081
-0.0596 -0.6162 0.1629
-0.0500 -0.7186 0.3059
0.1137 -0.7108 0.4134
0.4254 -0.4805 0.0869
-0.0475 -0.5652 0.0000
-0.1650 -0.8213 0.2195
0.3347 -0.9423 0.5092
0.2646 -0.7542 0.4693
0.7076 -0.7066 0.1182
0.6840 -0.6467 0.0000
0.2489 -0.9685 0.5154
0.6345 -0.5863 0.0000
-0.2111 -0.8053 0.0796
-0.1797 -0.9837 0.2454
-0.2412 -0.9159 0.0000
0.1136 -0.6198 0.3597
0.2483 -0.4695 0.1744
0.1259 -0.7776 0.4669
0.0440 -0.5933 0.2924
-0.0139 -0.9999 0.4346
0.7237 -0.6901 0.0445
0.1952 -0.6463 0.4119
0.1555 -0.4944 0.2114
0.4072 -0.4508 0.0000
0.5734 -0.7317 0.3713
0.6026 -0.6272 0.2501
-0.2497 -0.9683 0.0594
0.0055 -0.5043 0.0000
-0.0518 -0.8674 0.4069
0.2756 -0.8748 0.5244
0.5734 -0.8193 0.4181
-0.1294 -0.7871 0.2992
0.0179 -0.9465 0.4672
0.1300 -0.5418 0.2986
0.2820 -0.5864 0.3830
0.3128 -0.6588 0.4454
-0.2489 -0.8393 0.0000
0.3614 -0.5467 0.3360
0.4368 -0.8996 0.5128
-0.0964 -0.9953 0.3933
0.2686 -0.5161 0.3126
-0.2587 -0.8840 0.0578
0.0733 -0.4548 0.0000
0.2156 -0.4217 0.0557
0.1697 -0.6952 0.4648
0.4127 -0.6674 0.4400
0.4485 -0.6007 0.3741
0.0445 -0.8537 0.4842
-0.0425 -0.7548 0.3944
0.3735 -0.8234 0.5218
0.0398 -0.4710 0.0721
0.1801 -0.4330 0.1187
0.5426 -0.4849 0.0820
0.1331 -0.9911 0.5320
-0.2768 -0.9609 0.0000
0.7456 -0.6663 0.0000
0.5063 -0.4822 0.1575
0.3599 -0.7306 0.4975
0.3622 -0.4254 0.1233
0.5182 -0.6789 0.4145
0.7167 -0.6299 0.0813
0.4168 -0.4545 0.1851
-0.1582 -0.9262 0.3463
-0.2119 -0.9167 0.2668
-0.0452 -0.5116 0.0820
0.6638 -0.5616 0.0567
-0.1885 -0.7007 0.1678
0.6877 -0.6295 0.1876
-0.1038 -0.9229 0.4123
0.4952 -0.4425 0.0000
0.6252 -0.5377 0.1341
0.3291 -0.4391 0.2086
-0.2587 -0.8762 0.1613
-0.2859 -0.8969 0.0000
0.7192 -0.6073 0.0000
0.1718 -0.9267 0.5555
-0.2211 -0.7031 0.0820
-0.1191 -0.5611 0.0716
0.5368 -0.7699 0.4712
0.0369 -0.7435 0.4712
0.2897 -0.4041 0.1314
-0.1215 -0.5849 0.1673
-0.0531 -0.5500 0.2320
0.1281 -0.8445 0.5445
0.4592 -0.8038 0.5252
0.2614 -0.5315 0.3870
0.2014 -0.7570 0.5378
0.5352 -0.8448 0.5063
0.0067 -0.6180 0.3823
-0.0401 -0.8244 0.4667
-0.1203 -0.7928 0.3891
0.5947 -0.4742 0.0000
0.3219 -0.3813 0.0000
-0.1479 -0.6924 0.2928
-0.0811 -0.6233 0.3121
0.7641 -0.6452 0.0553
0.3695 -0.5772 0.4314
0.6522 -0.7580 0.4003
-0.3063 -0.9519 0.0494
0.0720 -0.9196 0.5474
0.6543 -0.5751 0.2293
-0.1968 -0.6288 0.0982
0.5711 -0.6271 0.3826
0.5839 -0.5596 0.2991
-0.2028 -0.8287 0.3122
-0.2195 -0.6452 0.0000
-0.0018 -0.6696 0.4287
0.4155 -0.5219 0.3671
0.3425 -0.3784 0.0598
0.1673 -0.5500 0.4079
0.1115 -0.3974 0.0582
-0.0609 -0.9440 0.4854
0.2915 -0.7899 0.5677
0.6806 -0.6319 0.2838
0.3772 -0.4446 0.2752
-0.2147 -0.7562 0.2627
0.0436 -0.4934 0.2823
-0.1570 -0.5551 0.0000
0.0767 -0.4157 0.1311
0.7071 -0.7071 0.3254
0.1125 -0.6160 0.4601
0.7454 -0.6666 0.2301
0.5902 -0.4986 0.2197
0.2495 -0.3627 0.0487
-0.2747 -0.7226 0.0000
0.0250 -0.9997 0.5461
0.4719 -0.7050 0.5119
0.4885 -0.4533 0.2524
0.0618 -0.5347 0.3720
0.6546 -0.6816 0.3846
0.7818 -0.6235 0.0000
-0.3303 -0.9439 0.0000
-0.2653 -0.7670 0.1934
0.3998 -0.9166 0.5933
0.2980 -0.9546 0.6074
0.1810 -0.3669 0.0874
0.2086 -0.8409 0.5925
0.1059 -0.4227 0.2269
-0.2842 -0.9588 0.2367
-0.3180 -0.9481 0.1298
-0.3102 -0.8047 0.0631
-0.1570 -0.6087 0.2480
-0.0990 -0.5052 0.1673
0.0109 -0.4431 0.2017
-0.3357 -0.8795 0.0000
0.7521 -0.5661 0.0000
0.4336 -0.3766 0.1270
-0.0935 -0.4653 0.0000
-0.0304 -0.5391 0.3325
-0.3290 -0.8880 0.1082
0.0174 -0.4005 0.0654
-0.2804 -0.8469 0.2509
0.6023 -0.6825 0.4520
-0.0248 -0.8934 0.5410
0.2837 -0.3918 0.2550
0.3743 -0.7389 0.5750
0.1905 -0.9817 0.6186
0.5232 -0.5438 0.3959
-0.2309 -0.9730 0.3662
0.2890 -0.5727 0.4912
0.3702 -0.6242 0.5201
-0.1366 -0.5393 0.2099
0.0956 -0.6795 0.5308
0.3790 -0.3724 0.1947
0.7463 -0.5475 0.0656
0.2789 -0.6541 0.5492
0.1979 -0.3857 0.2425
0.0467 -0.8426 0.5742
-0.1014 -0.6767 0.4173
0.7893 -0.6141 0.1260
0.6275 -0.7786 0.4927
0.7971 -0.6038 0.0474
0.7165 -0.5035 0.0000
-0.0231 -0.4019 0.0000
-0.3058 -0.7389 0.1207
0.4407 -0.3977 0.2440
-0.1449 -0.9894 0.4746
-0.2146 -0.6075 0.1947
-0.0553 -0.7280 0.4903
-0.3565 -0.9343 0.0578
0.1754 -0.6187 0.5275
0.2611 -0.4429 0.3719
0.0200 -0.7617 0.5496
0.2399 -0.3435 0.1608
0.6173 -0.4386 0.1441
0.4965 -0.8681 0.5953
0.3668 -0.8273 0.6222
0.0277 -0.6825 0.5238
0.1046 -0.4473 0.3473
0.3174 -0.4916 0.4392
0.4939 -0.4620 0.3455
-0.2790 -0.6648 0.1432
0.5442 -0.4104 0.2069
0.0648 -0.5655 0.4675
0.3443 -0.3286 0.1254
-0.1799 -0.8410 0.4449
0.1195 -0.8749 0.6238
0.0709 -0.3448 0.0000
0.6988 -0.4763 0.0956
0.1405 -0.3481 0.1692
0.7534 -0.5428 0.1474
-0.2837 -0.6327 0.0481
-0.2042 -0.7405 0.3801
0.4024 -0.3233 0.0509
-0.1797 -0.5195 0.1507
0.4688 -0.3361 0.0000
0.4561 -0.5771 0.4980
[...]
         <PointData>
            <DataArray Name="fValues" NumberOfComponents="1" format="ascii" type="Float64">
 9.99530e-01 
 9.99518e-01 
 9.99533e-01 
 9.99522e-01 
 9.99505e-01 
 9.99488e-01 
 9.99498e-01 
 9.99496e-01 
 9.99501e-01 
 9.99480e-01 
 9.99502e-01 
 9.99429e-01 
 9.99518e-01 
 9.99511e-01 
 9.99400e-01 
 9.99385e-01 
 9.99467e-01 
 9.99364e-01 
 9.99495e-01 
 9.99260e-01 
 9.99461e-01 
 9.99493e-01 
 9.99284e-01 
 9.99525e-01 
 9.99507e-01 
 9.99163e-01 
 9.99461e-01 
 9.99390e-01 
 9.99192e-01 
 9.99503e-01 
 9.99463e-01 
 9.99493e-01 
 9.99360e-01 
 9.99486e-01 
 9.99179e-01 
 9.99238e-01 
 9.99384e-01 
 9.99144e-01 
 9.99536e-01 
 9.99503e-01 
 9.98877e-01 
 9.99486e-01 
 9.99290e-01 
 9.99099e-01 
 9.99273e-01 
 9.98879e-01 
 9.99114e-01 
 9.99491e-01 
 9.99096e-01 
 9.99478e-01 
 9.99043e-01 
 9.98786e-01 
 9.99494e-01 
 9.99502e-01 
 9.98970e-01 
 9.98830e-01 
 9.98930e-01 
 9.99408e-01 
 9.98632e-01 
 9.99534e-01 
 9.99502e-01 
 9.98814e-01 
 9.99069e-01 
 9.99019e-01 
 9.98745e-01 
 9.99377e-01 
 9.99242e-01 
 9.99125e-01 
 9.99473e-01 
 9.99192e-01 
 9.99504e-01 
 9.98889e-01 
 9.98785e-01 
 9.99484e-01 
 9.99482e-01 
 9.98169e-01 
 9.98875e-01 
 9.99214e-01 
 9.98506e-01 
 9.99325e-01 
 9.98876e-01 
 9.98001e-01 
 9.99355e-01 
 9.99091e-01 
 9.98942e-01 
 9.98839e-01 
 9.98583e-01 
 9.99522e-01 
 9.99493e-01 
 9.98187e-01 
 9.99313e-01 
 9.99212e-01 
 9.98798e-01 
 9.98811e-01 
 9.98394e-01 
 9.99474e-01 
 9.97991e-01 
 9.99198e-01 
 9.98901e-01 
 9.99483e-01 
 9.98653e-01 
 9.99454e-01 
 9.98824e-01 
 9.98835e-01 
 9.97879e-01 
 9.98790e-01 
 9.98349e-01 
 9.99480e-01 
 9.99497e-01 
 9.98889e-01 
 9.98055e-01 
 9.98435e-01 
 9.98880e-01 
 9.97896e-01 
 9.98878e-01 
 9.98359e-01 
 9.98025e-01 
 9.99421e-01 
 9.99410e-01 
 9.98654e-01 
 9.99515e-01 
 9.99485e-01 
 9.98822e-01 
 9.98901e-01 
 9.96669e-01 
 9.98579e-01 
 9.98054e-01 
 9.99359e-01 
 9.99023e-01 
 9.98732e-01 
 9.99364e-01 
 9.98642e-01 
 9.97444e-01 
 9.97785e-01 
 9.98826e-01 
 9.97313e-01 
 9.99088e-01 
 9.98008e-01 
 9.99477e-01 
 9.99451e-01 
 9.98169e-01 
 9.98457e-01 
 9.99246e-01 
 9.98378e-01 
 9.97469e-01 
 9.98796e-01 
 9.99032e-01 
 9.98059e-01 
 9.98290e-01 
 9.99465e-01 
 9.99485e-01 
 9.98809e-01 
 9.98534e-01 
 9.98361e-01 
 9.98154e-01 
 9.98846e-01 
 9.98315e-01 
 9.96726e-01 
 9.99021e-01 
 9.99063e-01 
 9.97800e-01 
 9.98342e-01 
 9.99072e-01 
 9.99253e-01 
 9.98327e-01 
 9.96479e-01 
 9.99169e-01 
 9.97266e-01 
 9.98651e-01 
 9.99517e-01 
 9.99480e-01 
 9.96352e-01 
 9.97768e-01 
 9.99191e-01 
 9.97545e-01 
 9.97027e-01 
 9.98388e-01 
 9.96725e-01 
 9.98457e-01 
 9.98745e-01 
 9.98702e-01 
 9.99488e-01 
 9.99437e-01 
 9.98068e-01 
 9.97873e-01 
 9.98616e-01 
 9.96726e-01 
 9.98104e-01 
 9.98363e-01 
 9.98459e-01 
 9.96163e-01 
 9.98381e-01 
 9.95460e-01 
 9.97301e-01 
 9.99505e-01 
 9.98145e-01 
 9.98679e-01 
 9.99449e-01 
 9.97732e-01 
 9.96246e-01 
 9.96662e-01 
 9.98269e-01 
 9.98090e-01 
 9.99236e-01 
 9.99422e-01 
 9.96351e-01 
 9.98076e-01 
 9.99409e-01 
 9.98306e-01 
 9.96992e-01 
 9.97926e-01 
 9.96904e-01 
 9.98194e-01 
 9.98858e-01 
 9.98737e-01 
 9.98786e-01 
 9.99084e-01 
 9.99530e-01 
 9.99474e-01 
 9.95739e-01 
 9.94573e-01 
 9.99107e-01 
 9.90251e-01 
 9.97664e-01 
 9.98796e-01 
 9.98188e-01 
 9.99374e-01 
 9.98721e-01 
 9.96784e-01 
 9.97948e-01 
 9.97155e-01 
 9.96911e-01 
 9.96468e-01 
 9.98899e-01 
 9.97831e-01 
 9.97664e-01 
 9.99366e-01 
 9.99431e-01 
 9.97996e-01 
 9.99231e-01 
 9.99117e-01 
 9.99101e-01 
 9.99512e-01 
 9.96698e-01 
 9.91187e-01 
 9.97657e-01 
 9.96494e-01 
 9.98451e-01 
 9.99462e-01 
 9.96956e-01 
 9.90786e-01 
 9.96827e-01 
 9.98463e-01 
 9.98826e-01 
 9.99513e-01 
 9.94828e-01 
 9.98372e-01 
 9.97785e-01 
 9.98294e-01 
 9.98383e-01 
 9.98208e-01 
 9.94451e-01 
 9.96716e-01 
 9.96801e-01 
 9.99315e-01 
 9.95660e-01 
 9.97985e-01 
 9.98602e-01 
 9.95428e-01 
 9.99429e-01 
 9.89315e-01 
 9.86930e-01 
 9.96382e-01 
 9.97398e-01 
 9.97687e-01 
 9.97884e-01 
 9.97832e-01 
 9.97726e-01 
 9.89382e-01 
 9.84878e-01 
 9.98338e-01 
 9.97896e-01 
 9.99543e-01 
 9.99480e-01 
 9.97966e-01 
 9.97500e-01 
 9.95329e-01 
 9.98109e-01 
 9.99390e-01 
 9.96677e-01 
 9.98740e-01 
 9.99008e-01 
 9.93911e-01 
 9.99208e-01 
 9.98343e-01 
 9.99147e-01 
 9.98362e-01 
 9.97594e-01 
 9.98922e-01 
 9.93061e-01 
 9.99244e-01 
 9.99508e-01 
 9.99440e-01 
 9.97382e-01 
 9.98582e-01 
 9.96594e-01 
 9.98028e-01 
 9.96965e-01 
 9.86242e-01 
 9.95340e-01 
 9.95510e-01 
 9.97453e-01 
 9.97744e-01 
 9.94832e-01 
 9.97026e-01 
 9.97972e-01 
 9.96305e-01 
 9.97849e-01 
 9.98163e-01 
 9.98669e-01 
 9.86223e-01 
 9.97905e-01 
 9.96401e-01 
 9.99461e-01 
 9.96799e-01 
 9.98389e-01 
 9.99535e-01 
 9.97655e-01 
 9.98887e-01 
 9.97683e-01 
 9.98226e-01 
 9.98258e-01 
 9.98661e-01 
 9.98019e-01 
 9.96792e-01 
 9.95712e-01 
 9.88053e-01 
 9.91353e-01 
 9.84012e-01 
 9.98079e-01 
 9.96649e-01 
 9.98832e-01 
 9.95201e-01 
 9.98424e-01 
 9.86445e-01 
 9.96574e-01 
 9.80223e-01 
 9.98796e-01 
 9.94790e-01 
 9.99070e-01 
 9.98444e-01 
 9.82898e-01 
 9.98854e-01 
 9.97796e-01 
 9.97605e-01 
 9.97080e-01 
 9.89409e-01 
 9.98408e-01 
 9.99492e-01 
 9.99549e-01 
 9.98811e-01 
 9.97433e-01 
 9.97090e-01 
 9.79559e-01 
 9.96587e-01 
 9.71374e-01 
 9.99138e-01 
 9.99398e-01 
 9.99236e-01 
 9.96653e-01 
 9.92433e-01 
 9.77201e-01 
 9.99493e-01 
 9.99453e-01 
 9.95564e-01 
 9.89170e-01 
 9.91335e-01 
 9.99387e-01 
 9.79339e-01 
 9.98971e-01 
 9.98078e-01 
 9.97372e-01 
 9.81695e-01 
 9.95742e-01 
 9.96934e-01 
 9.97704e-01 
 9.98722e-01 
 9.93515e-01 
 9.96452e-01 
 9.95762e-01 
 9.95523e-01 
 9.90003e-01 
 9.99373e-01 
 9.95456e-01 
 9.62355e-01 
 9.96689e-01 
 9.96451e-01 
 9.99354e-01 
 9.98051e-01 
 9.99483e-01 
 9.99243e-01 
 9.83419e-01 
 9.98887e-01 
 9.96044e-01 
 9.98205e-01 
 9.97453e-01 
 9.96368e-01 
 9.99511e-01 
 9.91170e-01 
 9.82337e-01 
 9.96743e-01 
 9.68723e-01 
 9.98367e-01 
 9.97152e-01 
 9.96326e-01 
 9.95721e-01 
 9.69594e-01 
 9.90234e-01 
 9.96569e-01 
 9.98349e-01 
 9.97116e-01 
 9.86673e-01 
 9.83460e-01 
 9.98070e-01 
 9.95606e-01 
 9.82591e-01 
 9.99062e-01 
 9.57142e-01 
 9.99228e-01 
 9.98115e-01 
 9.97979e-01 
 9.88330e-01 
 9.95416e-01 
 9.95934e-01 
 9.96800e-01 
 9.81168e-01 
 9.98846e-01 
 9.99266e-01 
 9.82805e-01 
 9.98154e-01 
 9.35835e-01 
 9.96878e-01 
 9.97199e-01 
 9.97105e-01 
 9.96950e-01 
 9.99491e-01 
 9.99526e-01 
 9.98803e-01 
 9.76422e-01 
 9.96734e-01 
 9.97854e-01 
 9.97572e-01 
 9.79163e-01 
 9.91322e-01 
 9.97777e-01 
 9.95611e-01 
 9.96884e-01 
 9.99457e-01 
 9.98506e-01 
 9.96889e-01 
 9.99485e-01 
 9.98509e-01 
 9.69203e-01 
 9.94578e-01 
 9.93979e-01 
 9.95387e-01 
 9.93222e-01 
 9.97910e-01 
 9.98330e-01 
 9.83827e-01 
 9.95711e-01 
 9.99042e-01 
 9.89919e-01 
 9.89966e-01 
 9.97437e-01 
 9.99163e-01 
 9.96226e-01 
 9.98919e-01 
 9.14868e-01 
 9.82142e-01 
 9.96178e-01 
 9.97303e-01 
 9.82588e-01 
 9.81846e-01 
 9.64859e-01 
 9.98533e-01 
 9.90937e-01 
 9.84631e-01 
 9.98310e-01 
 9.96500e-01 
 9.99387e-01 
 9.97809e-01 
 9.96845e-01 
 9.98750e-01 
 9.93390e-01 
 9.97049e-01 
 9.98403e-01 
 9.73699e-01 
 9.98455e-01 
 9.92749e-01 
 9.99458e-01 
 9.98753e-01 
 9.99504e-01 
 9.82538e-01 
 9.95552e-01 
 9.96617e-01 
 9.88877e-01 
 9.55475e-01 
 9.95544e-01 
 9.99088e-01 
 9.98214e-01 
 9.98630e-01 
 9.44880e-01 
 9.98801e-01 
 9.99184e-01 
 9.97940e-01 
 9.96424e-01 
 9.93356e-01 
 9.67471e-01 
 9.96659e-01 
 3.69309e-01 
 9.97919e-01 
 9.96299e-01 
 2.95724e-01 
 9.97596e-01 
 9.87033e-01 
 9.96640e-01 
 9.98188e-01 
 8.09095e-01 
 9.62566e-01 
 9.93483e-01 
 9.84758e-01 
 9.99353e-01 
 9.61217e-01 
 9.94063e-01 
 9.96755e-01 
 9.98723e-01 
 9.97460e-01 
 9.96936e-01 
 9.98795e-01 
 7.31417e-01 
 9.99380e-01 
 9.99476e-01 
 9.99513e-01 
 9.96505e-01 
 9.98974e-01 
 9.97418e-01 
 9.26382e-01 
 9.75655e-01 
 6.37113e-01 
 9.98717e-01 
 9.72671e-01 
 9.96754e-01 
 9.69663e-01 
 9.77739e-01 
 9.99472e-01 
 9.99431e-01 
 9.98029e-01 
 9.48134e-01 
 9.97838e-01 
 9.87035e-01 
 9.91131e-01 
 9.92706e-01 
 9.49810e-01 
 9.96104e-01 
 9.65653e-01 
 9.95887e-01 
 9.96104e-01 
 9.99148e-01 
 9.92836e-01 
 9.98323e-01 
 9.65802e-01 
 9.81341e-01 
 9.78536e-01 
 9.83792e-01 
 9.96839e-01 
 9.73767e-01 
 9.99000e-01 
 9.96996e-01 
 9.98065e-01 
 9.96736e-01 
 9.77473e-01 
 9.96994e-01 
 9.86427e-01 
 9.93022e-01 
 9.77363e-01 
 9.98467e-01 
 9.99325e-01 
 9.96136e-01 
 9.97637e-01 
 9.96594e-01 
 9.77582e-01 
 9.99450e-01 
 9.97178e-01 
 9.99485e-01 
 9.96730e-01 
 6.59369e-01 
 9.99141e-01 
 9.84110e-01 
 9.93010e-01 
 9.89447e-01 
 9.75832e-01 
 9.97457e-01 
 9.97662e-01 
 9.97965e-01 
 9.99380e-01 
 9.97066e-01 
 9.90566e-01 
 9.81796e-01 
 9.94919e-01 
 9.98009e-01 
 9.57593e-01 
 9.99239e-01 
 9.98979e-01 
 9.96538e-01 
 9.96209e-01 
 9.95733e-01 
 9.96439e-01 
 9.99195e-01 
 9.96698e-01 
 9.98090e-01 
 9.85761e-01 
 9.98281e-01 
 9.97990e-01 
 9.98383e-01 
 9.98381e-01 
 9.97545e-01 
 9.99143e-01 
 9.72376e-01 
 2.61467e-01 
 9.95220e-01 
 9.89374e-01 
 9.87614e-01 
 9.90401e-01 
 4.42518e-01 
 9.91395e-01 
 9.90987e-01 
 9.96591e-01 
 9.98418e-01 
 9.76705e-01 
 9.74037e-01 
 9.84106e-01 
 9.93949e-01 
 9.98384e-01 
 9.96887e-01 
 3.29775e-01 
 9.90869e-01 
 9.86987e-01 
 9.99510e-01 
 9.99468e-01 
 9.98547e-01 
 1.44604e-01 
 9.95718e-01 
 9.51794e-01 
 6.31606e-01 
 9.22388e-01 
 9.98877e-01 
 9.92582e-01 
 9.99431e-01 
 9.83049e-01 
 9.79208e-01 
 9.77437e-01 
 8.42250e-01 
 6.86176e-01 
 8.94338e-02 
 9.85731e-01 
 9.20790e-01 
 3.28793e-01 
 8.80142e-02 
 9.99489e-01 
 9.99280e-01 
 9.56165e-01 
 9.93897e-01 
 9.67851e-01 
 9.88257e-01 
 9.96957e-01 
 2.53414e-01 
 9.67014e-01 
 9.42020e-01 
 9.96240e-01 
 9.85979e-01 
 9.96756e-01 
 9.96767e-01 
 9.98807e-01 
 9.98771e-01 
 9.98413e-01 
 9.97772e-01 
 9.90089e-01 
 9.96471e-01 
 9.96727e-01 
 9.98457e-01 
 7.68248e-02 
 9.98670e-01 
 9.96931e-01 
 9.94872e-01 
 1.33985e-01 
 9.67059e-01 
 9.89372e-01 
 1.50452e-01 
 9.60430e-01 
 9.96273e-01 
 9.99444e-01 
 9.85958e-01 
 2.02241e-01 
 9.98669e-01 
 9.98669e-01 
 9.94080e-01 
 6.41797e-01 
 9.99500e-01 
 1.25443e-01 
 9.46841e-01 
 9.90843e-01 
 9.99309e-01 
 9.93700e-01 
 9.99056e-01 
 9.90462e-01 
 9.98077e-01 
 9.97566e-01 
 9.73611e-01 
 9.96120e-01 
 9.71827e-01 
 9.99128e-01 
 9.97377e-01 
 9.99040e-01 
 9.97762e-01 
 9.96781e-01 
 9.98094e-01 
 1.66459e-01 
 9.73072e-01 
 9.96957e-01 
 4.12156e-01 
 9.93844e-01 
 9.92543e-01 
 9.89026e-01 
 9.96473e-01 
 9.87475e-01 
 9.98185e-01 
 9.17129e-01 
 9.90109e-01 
 9.53455e-01 
 9.05943e-02 
 2.10145e-01 
 9.96949e-01 
 9.99421e-01 
 9.58892e-01 
 9.96750e-01 
 9.97822e-01 
 9.98045e-01 
 9.83239e-01 
 9.78882e-01 
 9.54883e-01 
 9.96983e-01 
 9.99369e-01 
 9.91071e-01 
 9.98081e-01 
 9.81995e-01 
 9.97424e-01 
 2.36023e-01 
 5.51713e-01 
 9.99140e-01 
 6.54493e-02 
 9.99468e-01 
 9.99519e-01 
 9.99255e-01 
 9.97803e-01 
 9.81105e-01 
 9.99030e-01 
 9.99486e-01 
 9.99436e-01 
 4.94594e-01 
 9.75860e-01 
 5.66164e-01 
 9.90859e-01 
 8.98174e-02 
 9.93017e-01 
 6.89915e-02 
 9.71114e-01 
 9.45233e-01 
 9.97366e-01 
 7.14951e-02 
 9.87736e-01 
 6.35577e-01 
 9.99043e-01 
 9.96487e-01 
 9.81046e-01 
 1.06477e-01 
 8.51228e-01 
 9.77201e-01 
 9.90932e-01 
 9.96643e-01 
 9.96962e-01 
 9.94558e-01 
 9.58505e-01 
 9.97292e-01 
 9.95557e-01 
 9.81451e-01 
 9.98690e-01 
 9.80746e-01 
 9.02092e-02 
 9.84311e-01 
 8.08140e-02 
 9.84223e-01 
 9.67746e-01 
 9.98034e-01 
 8.99600e-02 
 9.88338e-01 
 9.96632e-01 
 9.98151e-01 
 9.91335e-01 
 9.98944e-01 
 1.00178e-01 
 9.96468e-01 
 9.83480e-01 
 9.88859e-01 
 9.85334e-01 
 9.82348e-01 
 9.99318e-01 
 9.95497e-01 
 8.13168e-02 
 9.97724e-01 
 8.47586e-01 
 9.98390e-01 
 9.83100e-01 
 9.99461e-01 
 9.78111e-01 
 9.98367e-01 
 8.52579e-01 
 2.98111e-01 
 2.32353e-01 
 9.99506e-01 
 2.01559e-01 
 9.96404e-01 
 9.98843e-01 
 9.85765e-01 
 9.24493e-02 
 9.98290e-01 
 9.99123e-01 
 1.16936e-01 
 9.70158e-01 
 9.93220e-01 
 1.04799e-01 
 7.13978e-02 
 9.92700e-01 
 9.98420e-01 
 9.96427e-01 
 6.70028e-01 
 9.31026e-01 
 1.00687e-01 
 9.45911e-01 
 9.47852e-01 
 9.51649e-01 
 1.09205e-01 
 9.90685e-01 
 9.96442e-01 
 9.96280e-01 
 7.21778e-02 
 1.07735e-01 
 1.12949e-01 
 9.80966e-01 
 9.95479e-01 
 9.78252e-01 
 7.26765e-01 
 9.75093e-01 
 9.92881e-01 
 9.75057e-01 
 9.94291e-02 
 8.51821e-02 
 9.96956e-01 
 9.92939e-01 
 9.96963e-01 
 1.67269e-01 
 9.99247e-01 
 9.81746e-01 
 7.44891e-02 
 9.70886e-01 
 8.81141e-02 
 9.97681e-01 
 9.98317e-01 
 7.36104e-02 
 9.99484e-01 
 9.99525e-01 
 9.95829e-01 
 9.99476e-01 
 1.41045e-01 
 9.99057e-01 
 9.89596e-01 
 1.01816e-01 
 9.90260e-01 
 9.74268e-01 
 9.47598e-01 
 9.98835e-01 
 9.87487e-01 
 1.08975e-01 
 9.98132e-01 
 2.15124e-01 
 9.99460e-01 
 8.04673e-02 
 7.97261e-02 
 9.98376e-01 
 9.61293e-01 
 9.70169e-01 
 4.49083e-01 
 1.58226e-01 
 9.87373e-01 
 9.67118e-01 
 9.98665e-01 
 2.41688e-01 
 3.00255e-01 
 1.60795e-01 
 8.64899e-01 
 2.39728e-01 
 9.96850e-01 
 9.79689e-01 
 9.48731e-01 
 9.98954e-01 
 7.95363e-01 
 9.97735e-01 
 9.96022e-01 
 9.95212e-01 
 9.98756e-01 
 9.95953e-01 
 9.99227e-01 
 9.62281e-01 
 1.19732e-01 
 9.70194e-02 
 9.96956e-01 
 9.94453e-01 
 9.97355e-01 
 9.96829e-01 
 9.97851e-01 
 9.98287e-01 
 9.97504e-01 
 9.54191e-01 
 8.30907e-02 
 9.98815e-01 
 9.39948e-01 
 9.69335e-01 
 9.51774e-01 
 9.87109e-01 
 2.11155e-01 
 9.95911e-01 
 9.88865e-01 
 9.77129e-01 
 9.66249e-01 
 9.97804e-01 
 1.10807e-01 
 9.83279e-01 
 9.98354e-01 
 9.98745e-01 
 9.83951e-01 
 8.57981e-02 
 1.16728e-01 
 9.98791e-01 
 8.46395e-01 
 9.93104e-01 
 9.67161e-01 
 9.68661e-01 
 8.34750e-01 
 9.97581e-01 
 9.81750e-01 
 9.99087e-01 
 9.97838e-01 
 9.95236e-01 
 9.99472e-01 
 9.84089e-01 
 1.18385e-01 
 9.97924e-01 
 9.90917e-01 
 9.97018e-01 
 9.97964e-01 
 9.99506e-01 
 9.94634e-01 
 9.89283e-01 
 9.90641e-01 
 9.98407e-01 
 1.89617e-01 
 9.99113e-01 
 9.84171e-01 
 9.32349e-02 
 8.05548e-02 
 9.99388e-01 
 9.73416e-01 
 6.97128e-02 
 9.98743e-01 
 9.77744e-01 
 9.95361e-01 
 9.84453e-02 
 9.91427e-01 
 9.64941e-01 
 9.65086e-01 
 9.85626e-01 
 9.97751e-01 
 9.98615e-01 
 6.09942e-02 
 9.70265e-01 
 9.97017e-01 
 9.79108e-01 
 5.33538e-01 
 9.62998e-01 
 9.84328e-01 
 6.00222e-01 
 9.99397e-01 
 9.96221e-01 
 9.79293e-01 
 1.70348e-01 
 9.09159e-01 
 7.53692e-02 
 9.97482e-01 
 9.96873e-01 
 9.99175e-01 
 2.42568e-01 
 9.78238e-01 
 8.27431e-02 
 1.35746e-01 
 9.48045e-02 
 9.98621e-01 
 9.98279e-01 
 9.99039e-01 
 6.70890e-02 
 1.25400e-01 
 9.96974e-01 
 9.99130e-01 
 9.26745e-01 
 9.99211e-01 
 1.32383e-01 
 9.95532e-01 
 9.99370e-01 
 2.13845e-01 
 9.99483e-01 
 9.99509e-01 
 9.99512e-01 
 9.99019e-01 
 9.96468e-01 
 7.89237e-01 
 9.99478e-01 
 8.86455e-02 
 9.54279e-01 
 9.98322e-01 
 7.50706e-01 
 2.19468e-01 
 9.68613e-01 
 6.56603e-01 
 9.98076e-01 
 8.93976e-02 
 9.25833e-01 
 9.71608e-01 
 9.96789e-01 
 9.96908e-01 
 1.79480e-01 
 1.28056e-01 
 8.47931e-01 
 9.90966e-01 
 1.43094e-01 
 6.90028e-02 
 9.89578e-01 
 9.96497e-01 
 5.87012e-02 
 1.54062e-01 
 1.02986e-01 
 9.70237e-01 
 1.03697e-01 
 8.20396e-02 
 1.08879e-01 
 9.88567e-01 
 9.12547e-01 
 7.38935e-02 
 9.93117e-01 
 9.96255e-01 
 7.37389e-02 
 3.89754e-01 
 9.96496e-01 
 1.35133e-01 
 8.34408e-02 
 9.95418e-01 
 9.60122e-01 
 7.81352e-02 
 3.66629e-01 
 9.91609e-01 
 4.61112e-01 
 1.07422e-01 
 9.98969e-01 
 9.99357e-01 
 9.71900e-02 
 9.80688e-01 
 7.38466e-01 
 9.98385e-01 
 9.93340e-01 
 9.95323e-01 
 7.00942e-02 
 9.98916e-01 
 9.99501e-01 
 9.97899e-01 
 9.98156e-01 
 9.97845e-01 
 9.88336e-01 
 9.51076e-01 
 1.94014e-01 
 9.95959e-01 
 9.85438e-02 
 5.58697e-01 
 9.73150e-01 
 5.29034e-01 
 9.99486e-01 
 9.76093e-01 
 9.96723e-01 
 9.89518e-01 
 9.76521e-02 
 2.50217e-01 
 9.84438e-01 
 7.82230e-02 
 4.83585e-01 
 7.85119e-02 
 1.02793e-01 
 9.68720e-01 
 9.86355e-01 
 9.89836e-01 
 9.85346e-01 
 7.67784e-02 
 6.63261e-02 
 9.99200e-01 
 3.03960e-01 
 6.22344e-01 
 7.76270e-02 
 1.26798e-01 
 8.88433e-02 
 1.89053e-01 
 9.04388e-01 
 9.22788e-01 
 4.14786e-01 
 9.70622e-01 
 9.66286e-01 
 9.80342e-01 
 9.80373e-01 
 9.98595e-01 
 6.83018e-01 
 8.03862e-02 
 9.75441e-01 
 9.97309e-01 
 9.88345e-01 
 9.98336e-01 
 9.98648e-01 
 2.52939e-01 
 1.42942e-01 
 2.73281e-01 
 9.90824e-01 
 9.98017e-01 
 9.80229e-01 
 9.97965e-01 
 6.21923e-01 
 8.62341e-02 
 9.72577e-01 
 9.96716e-01 
 9.94871e-01 
 3.30424e-01 
 9.80314e-01 
 9.89996e-01 
 9.19394e-01 
 9.84960e-01 
 9.96484e-01 
 1.30575e-01 
 9.99464e-01 
 9.99456e-01 
 6.65425e-02 
 9.73489e-01 
 8.38968e-01 
 9.99020e-01 
 9.98370e-01 
 9.99514e-01 
 9.99500e-01 
 9.97762e-01 
 9.67230e-01 
 3.79093e-01 
 4.34895e-01 
 1.85546e-01 
 9.97821e-01 
 9.94909e-01 
 9.63004e-01 
 2.15579e-01 
 9.96955e-01 
 2.00125e-01 
 8.52474e-02 
 9.98801e-01 
 9.98369e-01 
 9.96769e-01 
 6.12020e-01 
 9.96827e-01 
 9.97499e-01 
 9.98805e-01 
 8.91183e-01 
 9.98793e-01 
 4.78008e-01 
 9.90732e-01 
 1.03510e-01 
 9.73803e-01 
 9.82374e-01 
 9.40223e-02 
 9.69374e-01 
 1.20594e-01 
 9.87365e-01 
 3.65917e-01 
 6.84157e-01 
 9.96598e-01 
 6.50267e-01 
 5.96890e-02 
 5.60078e-02 
 9.53820e-01 
 1.09085e-01 
 9.73321e-01 
 9.96719e-01 
 1.40426e-01 
 8.41152e-02 
 9.99221e-01 
 9.99364e-01 
 9.96826e-01 
 7.36941e-01 
 9.90930e-01 
 9.97080e-01 
 1.89541e-01 
 5.50914e-01 
 9.00280e-02 
 1.09483e-01 
 9.96673e-01 
 9.86889e-01 
 2.00972e-01 
 5.23186e-01 
 9.95930e-01 
 4.50246e-01 
 9.97116e-01 
 9.61480e-01 
 9.98347e-01 
 9.95328e-01 
 2.30845e-01 
 9.98545e-01 
 9.96794e-01 
 5.45986e-02 
 9.98867e-01 
 1.29926e-01 
 1.52718e-01 
 9.96673e-01 
 8.63556e-02 
 9.93862e-02 
 7.38031e-02 
 5.87735e-01 
 9.98122e-01 
 1.18244e-01 
 2.10886e-01 
 2.70570e-01 
 9.99092e-01 
 9.93968e-01 
 9.32726e-01 
 1.40292e-01 
 9.01773e-02 
 9.99095e-01 
 8.22668e-02 
 1.06013e-01 
 9.35729e-01 
 9.98165e-01 
 9.76258e-01 
 3.86753e-01 
 9.39773e-01 
 9.98161e-01 
 9.00202e-02 
 9.99483e-01 
 9.96524e-01 
 7.95968e-01 
 4.10188e-01 
 3.11172e-01 
 9.99102e-01 
 9.41495e-01 
 9.65950e-01 
 6.61191e-01 
 9.99475e-01 
 9.88513e-02 
 9.99458e-01 
 9.75394e-01 
 9.88497e-01 
 9.59198e-01 
 9.96107e-01 
 9.98653e-01 
 3.55591e-01 
 6.62547e-01 
 2.52507e-01 
 6.33144e-01 
 1.22169e-01 
 5.64987e-01 
 9.96030e-01 
 1.10030e-01 
 9.84270e-01 
 9.98759e-01 
 9.97593e-01 
 9.96505e-01 
 9.97737e-01 
 9.24923e-01 
 9.97898e-01 
 9.99188e-01 
 9.69458e-01 
 9.97571e-01 
 9.51559e-01 
 9.90013e-02 
 1.44855e-01 
 6.05552e-01 
 1.17458e-01 
 9.72747e-02 
 4.13959e-01 
 2.58752e-01 
 1.08886e-01 
 9.98058e-01 
 9.98581e-01 
 1.11149e-01 
 9.98612e-01 
 9.81511e-01 
 9.92522e-01 
 9.34793e-01 
 7.66182e-02 
 9.77077e-01 
 9.82270e-01 
 3.97671e-01 
 9.76288e-01 
 1.19202e-01 
 8.87957e-02 
 1.40571e-01 
 7.80629e-02 
 9.95996e-01 
 9.95392e-01 
 9.93654e-01 
 8.89327e-01 
 6.57315e-02 
 1.46083e-01 
 9.99460e-01 
 9.99348e-01 
 1.04880e-01 
 2.77532e-01 
 6.02217e-01 
 3.79592e-01 
 9.29835e-01 
 9.99403e-01 
 3.58054e-01 
 9.85842e-01 
 2.06429e-01 
 1.72891e-01 
 9.99467e-01 
 9.99071e-01 
 9.82940e-01 
 9.93362e-01 
 9.99503e-01 
 9.99498e-01 
 9.97977e-01 
 9.99175e-01 
 7.46651e-01 
 1.32341e-01 
 9.94064e-02 
 1.68871e-01 
 1.09696e-01 
 2.91860e-01 
 9.90745e-01 
 9.78087e-01 
 9.94782e-01 
 9.09782e-02 
 6.21299e-01 
 9.73706e-01 
 1.68033e-01 
 9.96854e-01 
 1.08912e-01 
 9.99374e-01 
 9.96924e-01 
 9.39516e-02 
 9.85205e-01 
 8.21953e-02 
 9.98909e-01 
 9.93514e-01 
 9.75993e-01 
 4.16851e-01 
 9.75383e-01 
 9.96890e-01 
 9.80920e-01 
 9.98370e-01 
 9.83186e-01 
 1.28047e-01 
 1.11201e-01 
 5.52420e-01 
 9.98326e-01 
 9.96605e-02 
 9.70271e-01 
 5.46132e-01 
 9.96117e-01 
 4.71496e-01 
 9.83512e-01 
 9.99382e-01 
 9.96142e-01 
 9.57093e-01 
 9.97840e-01 
 9.70283e-02 
 9.30821e-01 
 1.51289e-01 
 1.78797e-01 
 9.93948e-01 
 9.98570e-01 
 9.98865e-01 
 2.57170e-01 
 9.94433e-01 
 2.49454e-01 
 9.89416e-01 
 9.67961e-02 
 9.90289e-01 
 9.95530e-01 
 1.19087e-01 
 6.98136e-01 
 9.97311e-01 
 9.87596e-01 
 9.99473e-01 
 9.52427e-01 
 9.98853e-01 
 9.43323e-01 
 9.83132e-01 
 6.89693e-01 
 7.25002e-02 
 4.63976e-01 
 9.87494e-01 
 1.07159e-01 
 9.96648e-01 