<?xml version="1.0" encoding="utf-8"?>
<VTKFile byte_order="LittleEndian" type="UnstructuredGrid" version="0.1">
   <UnstructuredGrid>
      <Piece NumberOfCells="13440" NumberOfPoints="8160">
         <Points>
            <DataArray Name="Points" NumberOfComponents="3" format="ascii" type="Float32">
0.0000 0.0909 0.0000
0.0000 0.1818 0.0000
0.0000 0.2727 0.0000
0.0000 0.3636 0.0000
0.0000 0.4545 0.0000
0.0000 0.5455 0.0000
0.0000 0.6364 0.0000
0.0000 0.7273 0.0000
0.0000 0.8182 0.0000
0.0000 0.9091 0.0000
0.0000 1.0000 0.0000
0.0909 0.0909 0.0000
0.0909 0.1818 0.0000
0.0909 0.2727 0.0000
0.0909 0.3636 0.0000
0.0909 0.4545 0.0000
0.0909 0.5455 0.0000
0.0909 0.6364 0.0000
0.0909 0.7273 0.0000
0.0909 0.8182 0.0000
0.0909 0.9091 0.0000
0.0909 1.0000 0.0000
0.1818 0.0909 0.0000
0.1818 0.1818 0.0000
0.1818 0.2727 0.0000
0.1818 0.3636 0.0000
0.1818 0.4545 0.0000
0.1818 0.5455 0.0000
0.1818 0.6364 0.0000
0.1818 0.7273 0.0000
0.1818 0.8182 0.0000
0.1818 0.9091 0.0000
0.1818 1.0000 0.0000
0.2727 0.0909 0.0000
0.2727 0.1818 0.0000
0.2727 0.2727 0.0000
0.2727 0.3636 0.0000
0.2727 0.7273 0.0000
0.2727 0.8182 0.0000
0.2727 0.9091 0.0000
0.2727 1.0000 0.0000
0.3636 0.0909 0.0000
0.3636 0.1818 0.0000
0.3636 0.2727 0.0000
0.3636 0.8182 0.0000
0.3636 0.9091 0.0000
0.3636 1.0000 0.0000
0.4545 0.0909 0.0000
0.4545 0.1818 0.0000
0.4545 0.9091 0.0000
0.4545 1.0000 0.0000
0.5455 0.0909 0.0000
0.5455 0.1818 0.0000
0.5455 0.9091 0.0000
0.5455 1.0000 0.0000
0.6364 0.0909 0.0000
0.6364 0.1818 0.0000
0.6364 0.2727 0.0000
0.6364 0.8182 0.0000
0.6364 0.9091 0.0000
0.6364 1.0000 0.0000
0.7273 0.0909 0.0000
0.7273 0.1818 0.0000
0.7273 0.2727 0.0000
0.7273 0.3636 0.0000
0.7273 0.7273 0.0000
0.7273 0.8182 0.0000
0.7273 0.9091 0.0000
0.7273 1.0000 0.0000
0.8182 0.0909 0.0000
0.8182 0.1818 0.0000
0.8182 0.2727 0.0000
0.8182 0.3636 0.0000
0.8182 0.4545 0.0000
0.8182 0.5455 0.0000
0.8182 0.6364 0.0000
0.8182 0.7273 0.0000
0.8182 0.8182 0.0000
0.8182 0.9091 0.0000
0.8182 1.0000 0.0000
0.9091 0.0909 0.0000
0.9091 0.1818 0.0000
0.9091 0.2727 0.0000
0.9091 0.3636 0.0000
0.9091 0.4545 0.0000
0.9091 0.5455 0.0000
0.9091 0.6364 0.0000
0.9091 0.7273 0.0000
0.9091 0.8182 0.0000
0.9091 0.9091 0.0000
0.9091 1.0000 0.0000
0.2727 0.6364 0.0000
0.3636 0.7273 0.0000
0.4545 0.8182 0.0000
0.5455 0.8182 0.0000
1.0000 0.0909 0.0000
1.0000 0.1818 0.0000
1.0000 0.2727 0.0000
1.0000 0.3636 0.0000
1.0000 0.4545 0.0000
1.0000 0.5455 0.0000
1.0000 0.6364 0.0000
1.0000 0.7273 0.0000
1.0000 0.8182 0.0000
1.0000 0.9091 0.0000
1.0000 1.0000 0.0000
0.0909 0.0000 0.0000
0.1818 0.0000 0.0000
0.2727 0.0000 0.0000
0.3636 0.0000 0.0000
0.4545 0.0000 0.0000
0.5455 0.0000 0.0000
0.6364 0.0000 0.0000
0.6364 0.7273 0.0000
0.7273 0.0000 0.0000
0.7273 0.6364 0.0000
0.8182 0.0000 0.0000
0.9091 0.0000 0.0000
1.0000 0.0000 0.0000
0.0000 0.0000 0.0000
0.0455 0.0455 0.0000
0.0455 0.1364 0.0000
0.0455 0.2273 0.0000
0.0455 0.3182 0.0000
0.0455 0.4091 0.0000
0.0455 0.5000 0.0000
0.0455 0.5909 0.0000
0.0455 0.6818 0.0000
0.0455 0.7727 0.0000
0.0455 0.8636 0.0000
0.0455 0.9545 0.0000
0.1364 0.0455 0.0000
0.1364 0.1364 0.0000
0.1364 0.2273 0.0000
0.1364 0.3182 0.0000
0.1364 0.4091 0.0000
0.1364 0.5000 0.0000
0.1364 0.5909 0.0000
0.1364 0.6818 0.0000
0.1364 0.7727 0.0000
0.1364 0.8636 0.0000
0.1364 0.9545 0.0000
0.2273 0.0455 0.0000
0.2273 0.1364 0.0000
0.2273 0.2273 0.0000
0.2273 0.3182 0.0000
0.2273 0.4091 0.0000
0.2273 0.5000 0.0000
0.2273 0.5909 0.0000
0.2273 0.6818 0.0000
0.2273 0.7727 0.0000
0.2273 0.8636 0.0000
0.2273 0.9545 0.0000
0.3182 0.0455 0.0000
0.3182 0.1364 0.0000
0.3182 0.2273 0.0000
0.3182 0.3182 0.0000
0.3182 0.6818 0.0000
0.3182 0.7727 0.0000
0.3182 0.8636 0.0000
0.3182 0.9545 0.0000
0.4091 0.0455 0.0000
0.4091 0.1364 0.0000
0.4091 0.2273 0.0000
0.4091 0.7727 0.0000
0.4091 0.8636 0.0000
0.4091 0.9545 0.0000
0.5000 0.0455 0.0000
0.5000 0.1364 0.0000
0.5000 0.8636 0.0000
0.5000 0.9545 0.0000
0.5909 0.0455 0.0000
0.5909 0.1364 0.0000
0.5909 0.8636 0.0000
0.5909 0.9545 0.0000
0.6818 0.0455 0.0000
0.6818 0.1364 0.0000
0.6818 0.2273 0.0000
0.6818 0.7727 0.0000
0.6818 0.8636 0.0000
0.6818 0.9545 0.0000
0.7727 0.0455 0.0000
0.7727 0.1364 0.0000
0.7727 0.2273 0.0000
0.7727 0.3182 0.0000
0.7727 0.6818 0.0000
0.7727 0.7727 0.0000
0.7727 0.8636 0.0000
0.7727 0.9545 0.0000
0.8636 0.0455 0.0000
0.8636 0.1364 0.0000
0.8636 0.2273 0.0000
0.8636 0.3182 0.0000
0.8636 0.4091 0.0000
0.8636 0.5000 0.0000
0.8636 0.5909 0.0000
0.8636 0.6818 0.0000
0.8636 0.7727 0.0000
0.8636 0.8636 0.0000
0.8636 0.9545 0.0000
0.9545 0.0455 0.0000
0.9545 0.1364 0.0000
0.9545 0.2273 0.0000
0.9545 0.3182 0.0000
0.9545 0.4091 0.0000
0.9545 0.5000 0.0000
0.9545 0.5909 0.0000
0.9545 0.6818 0.0000
0.9545 0.7727 0.0000
0.9545 0.8636 0.0000
0.9545 0.9545 0.0000
0.5000 0.7727 0.0000
0.5909 0.7727 0.0000
0.6818 0.6818 0.0000
0.7727 0.5909 0.0000
0.5909 0.2273 0.0000
0.6818 0.3182 0.0000
0.7727 0.4091 0.0000
0.7727 0.5000 0.0000
0.5000 0.2273 0.0000
0.2536 0.4545 0.0000
0.2536 0.5455 0.0000
0.2727 0.3972 0.0000
0.2895 0.3636 0.0000
0.2826 0.3735 0.0000
0.2568 0.4386 0.0000
0.2507 0.4766 0.0000
0.2727 0.6028 0.0000
0.2507 0.5234 0.0000
0.2568 0.5614 0.0000
0.2895 0.6364 0.0000
0.2826 0.6265 0.0000
0.3636 0.2895 0.0000
0.3972 0.2727 0.0000
0.3735 0.2826 0.0000
0.3224 0.3224 0.0000
0.3636 0.7105 0.0000
0.3224 0.6776 0.0000
0.3972 0.7273 0.0000
0.3735 0.7174 0.0000
0.4545 0.2536 0.0000
0.4386 0.2568 0.0000
0.4766 0.2507 0.0000
0.4545 0.7464 0.0000
0.4386 0.7432 0.0000
0.4766 0.7493 0.0000
0.5455 0.2536 0.0000
0.6028 0.2727 0.0000
0.5234 0.2507 0.0000
0.5614 0.2568 0.0000
0.5455 0.7464 0.0000
0.6028 0.7273 0.0000
0.5234 0.7493 0.0000
0.5614 0.7432 0.0000
0.6364 0.2895 0.0000
0.6265 0.2826 0.0000
0.7105 0.3636 0.0000
0.6776 0.3224 0.0000
0.6364 0.7105 0.0000
0.7105 0.6364 0.0000
0.6776 0.6776 0.0000
0.6265 0.7174 0.0000
0.7273 0.3972 0.0000
0.7174 0.3735 0.0000
0.7464 0.4545 0.0000
0.7432 0.4386 0.0000
0.7493 0.4766 0.0000
0.7273 0.6028 0.0000
0.7464 0.5455 0.0000
0.7493 0.5234 0.0000
0.7432 0.5614 0.0000
0.7174 0.6265 0.0000
1.0000 0.0909 0.0000
1.0000 0.1818 0.0000
1.0000 0.2727 0.0000
1.0000 0.3636 0.0000
1.0000 0.4545 0.0000
1.0000 0.5455 0.0000
1.0000 0.6364 0.0000
1.0000 0.7273 0.0000
1.0000 0.8182 0.0000
1.0000 0.9091 0.0000
1.0000 1.0000 0.0000
1.0909 0.0909 0.0000
1.0909 0.1818 0.0000
1.0909 0.2727 0.0000
1.0909 0.3636 0.0000
1.0909 0.4545 0.0000
1.0909 0.5455 0.0000
1.0909 0.6364 0.0000
1.0909 0.7273 0.0000
1.0909 0.8182 0.0000
1.0909 0.9091 0.0000
1.0909 1.0000 0.0000
1.1818 0.0909 0.0000
1.1818 0.1818 0.0000
1.1818 0.2727 0.0000
1.1818 0.3636 0.0000
1.1818 0.4545 0.0000
1.1818 0.5455 0.0000
1.1818 0.6364 0.0000
1.1818 0.7273 0.0000
1.1818 0.8182 0.0000
1.1818 0.9091 0.0000
1.1818 1.0000 0.0000
1.2727 0.0909 0.0000
1.2727 0.1818 0.0000
1.2727 0.2727 0.0000
1.2727 0.3636 0.0000
1.2727 0.7273 0.0000
1.2727 0.8182 0.0000
1.2727 0.9091 0.0000
1.2727 1.0000 0.0000
1.3636 0.0909 0.0000
1.3636 0.1818 0.0000
1.3636 0.2727 0.0000
1.3636 0.8182 0.0000
1.3636 0.9091 0.0000
1.3636 1.0000 0.0000
1.4545 0.0909 0.0000
1.4545 0.1818 0.0000
1.4545 0.9091 0.0000
1.4545 1.0000 0.0000
1.5455 0.0909 0.0000
1.5455 0.1818 0.0000
1.5455 0.9091 0.0000
1.5455 1.0000 0.0000
1.6364 0.0909 0.0000
1.6364 0.1818 0.0000
1.6364 0.2727 0.0000
1.6364 0.8182 0.0000
1.6364 0.9091 0.0000
1.6364 1.0000 0.0000
1.7273 0.0909 0.0000
1.7273 0.1818 0.0000
1.7273 0.2727 0.0000
1.7273 0.3636 0.0000
1.7273 0.7273 0.0000
1.7273 0.8182 0.0000
1.7273 0.9091 0.0000
1.7273 1.0000 0.0000
1.8182 0.0909 0.0000
1.8182 0.1818 0.0000
1.8182 0.2727 0.0000
1.8182 0.3636 0.0000
1.8182 0.4545 0.0000
1.8182 0.5455 0.0000
1.8182 0.6364 0.0000
1.8182 0.7273 0.0000
1.8182 0.8182 0.0000
1.8182 0.9091 0.0000
1.8182 1.0000 0.0000
1.9091 0.0909 0.0000
1.9091 0.1818 0.0000
1.9091 0.2727 0.0000
1.9091 0.3636 0.0000
1.9091 0.4545 0.0000
1.9091 0.5455 0.0000
1.9091 0.6364 0.0000
1.9091 0.7273 0.0000
1.9091 0.8182 0.0000
1.9091 0.9091 0.0000
1.9091 1.0000 0.0000
1.2727 0.6364 0.0000
1.3636 0.7273 0.0000
1.4545 0.8182 0.0000
1.5455 0.8182 0.0000
2.0000 0.0909 0.0000
2.0000 0.1818 0.0000
2.0000 0.2727 0.0000
2.0000 0.3636 0.0000
2.0000 0.4545 0.0000
2.0000 0.5455 0.0000
2.0000 0.6364 0.0000
2.0000 0.7273 0.0000
2.0000 0.8182 0.0000
2.0000 0.9091 0.0000
2.0000 1.0000 0.0000
1.0909 0.0000 0.0000
1.1818 0.0000 0.0000
1.2727 0.0000 0.0000
1.3636 0.0000 0.0000
1.4545 0.0000 0.0000
1.5455 0.0000 0.0000
1.6364 0.0000 0.0000
1.6364 0.7273 0.0000
1.7273 0.0000 0.0000
1.7273 0.6364 0.0000
1.8182 0.0000 0.0000
1.9091 0.0000 0.0000
2.0000 0.0000 0.0000
1.0000 0.0000 0.0000
1.0455 0.0455 0.0000
1.0455 0.1364 0.0000
1.0455 0.2273 0.0000
1.0455 0.3182 0.0000
1.0455 0.4091 0.0000
1.0455 0.5000 0.0000
1.0455 0.5909 0.0000
1.0455 0.6818 0.0000
1.0455 0.7727 0.0000
1.0455 0.8636 0.0000
1.0455 0.9545 0.0000
1.1364 0.0455 0.0000
1.1364 0.1364 0.0000
1.1364 0.2273 0.0000
1.1364 0.3182 0.0000
1.1364 0.4091 0.0000
1.1364 0.5000 0.0000
1.1364 0.5909 0.0000
1.1364 0.6818 0.0000
1.1364 0.7727 0.0000
1.1364 0.8636 0.0000
1.1364 0.9545 0.0000
1.2273 0.0455 0.0000
1.2273 0.1364 0.0000
1.2273 0.2273 0.0000
1.2273 0.3182 0.0000
1.2273 0.4091 0.0000
1.2273 0.5000 0.0000
1.2273 0.5909 0.0000
1.2273 0.6818 0.0000
1.2273 0.7727 0.0000
1.2273 0.8636 0.0000
1.2273 0.9545 0.0000
1.3182 0.0455 0.0000
1.3182 0.1364 0.0000
1.3182 0.2273 0.0000
1.3182 0.3182 0.0000
1.3182 0.6818 0.0000
1.3182 0.7727 0.0000
1.3182 0.8636 0.0000
1.3182 0.9545 0.0000
1.4091 0.0455 0.0000
1.4091 0.1364 0.0000
1.4091 0.2273 0.0000
1.4091 0.7727 0.0000
1.4091 0.8636 0.0000
1.4091 0.9545 0.0000
1.5000 0.0455 0.0000
1.5000 0.1364 0.0000
1.5000 0.8636 0.0000
1.5000 0.9545 0.0000
1.5909 0.0455 0.0000
1.5909 0.1364 0.0000
1.5909 0.8636 0.0000
1.5909 0.9545 0.0000
1.6818 0.0455 0.0000
1.6818 0.1364 0.0000
1.6818 0.2273 0.0000
1.6818 0.7727 0.0000
1.6818 0.8636 0.0000
1.6818 0.9545 0.0000
1.7727 0.0455 0.0000
1.7727 0.1364 0.0000
1.7727 0.2273 0.0000
1.7727 0.3182 0.0000
1.7727 0.6818 0.0000
1.7727 0.7727 0.0000
1.7727 0.8636 0.0000
1.7727 0.9545 0.0000
[...]
         <PointData>
            <DataArray Name="fValues" NumberOfComponents="3" format="ascii" type="Float64">
-1.12808e-02 -8.00380e-04        00000 
-1.69579e-02  1.57110e-04        00000 
-1.85549e-02  8.04827e-04        00000 
-1.44987e-02  1.07409e-03        00000 
-5.13798e-03  9.23274e-04        00000 
 6.34818e-03  4.99882e-04        00000 
 1.53820e-02  2.23780e-06        00000 
 1.88718e-02 -4.43379e-04        00000 
 1.65908e-02 -8.28445e-04        00000 
 1.02153e-02 -1.20597e-03        00000 
 1.50677e-03 -1.31214e-03        00000 
-1.52212e-02  7.02221e-03        00000 
-2.00996e-02  8.09865e-03        00000 
-2.14366e-02  8.75313e-03        00000 
-1.67365e-02  9.36043e-03        00000 
-6.07982e-03  9.68990e-03        00000 
 6.83034e-03  9.33141e-03        00000 
 1.65283e-02  8.52182e-03        00000 
 1.97684e-02  7.95718e-03        00000 
 1.69437e-02  7.92695e-03        00000 
 1.01376e-02  8.11135e-03        00000 
 1.63884e-03  7.87711e-03        00000 
-1.84682e-02  1.75773e-02        00000 
-2.41948e-02  1.73122e-02        00000 
-2.60826e-02  1.67754e-02        00000 
-2.09730e-02  1.60207e-02        00000 
-7.84120e-03  1.52061e-02        00000 
 8.34817e-03  1.50116e-02        00000 
 1.96946e-02  1.55839e-02        00000 
 2.22286e-02  1.66648e-02        00000 
 1.79688e-02  1.80452e-02        00000 
 1.03088e-02  1.92471e-02        00000 
 1.55824e-03  1.95016e-02        00000 
-2.13999e-02  3.19719e-02        00000 
-2.83025e-02  3.00690e-02        00000 
-3.18295e-02  2.70511e-02        00000 
-2.54241e-02  2.14727e-02        00000 
 2.55515e-02  2.81214e-02        00000 
 1.89389e-02  3.19099e-02        00000 
 1.01441e-02  3.46102e-02        00000 
 1.35054e-03  3.54445e-02        00000 
-2.37976e-02  5.22679e-02        00000 
-3.22045e-02  4.94324e-02        00000 
-3.98534e-02  4.61736e-02        00000 
 1.93831e-02  5.28546e-02        00000 
 9.34696e-03  5.62123e-02        00000 
 1.04551e-03  5.73011e-02        00000 
-2.59287e-02  7.87369e-02        00000 
-3.57788e-02  7.74419e-02        00000 
 8.24935e-03  8.40803e-02        00000 
 6.58030e-04  8.45824e-02        00000 
-2.84475e-02  1.07943e-01        00000 
-3.87657e-02  1.09859e-01        00000 
 7.53069e-03  1.14366e-01        00000 
 2.01687e-04  1.13813e-01        00000 
-3.15274e-02  1.34207e-01        00000 
-4.08095e-02  1.38336e-01        00000 
-5.21213e-02  1.42806e-01        00000 
 1.58943e-02  1.44399e-01        00000 
 7.20531e-03  1.41187e-01        00000 
-3.12312e-04  1.40111e-01        00000 
-3.46271e-02  1.53800e-01        00000 
-4.24027e-02  1.57979e-01        00000 
-4.83122e-02  1.63117e-01        00000 
-4.53952e-02  1.69983e-01        00000 
 1.71909e-02  1.66980e-01        00000 
 1.36004e-02  1.63473e-01        00000 
 6.67568e-03  1.61029e-01        00000 
-8.71980e-04  1.60263e-01        00000 
-3.74187e-02  1.66822e-01        00000 
-4.37973e-02  1.70076e-01        00000 
-4.66461e-02  1.73288e-01        00000 
-4.24070e-02  1.75692e-01        00000 
-2.85654e-02  1.77070e-01        00000 
-9.30918e-03  1.77478e-01        00000 
 6.14479e-03  1.77052e-01        00000 
 1.24706e-02  1.76246e-01        00000 
 1.11376e-02  1.75238e-01        00000 
 5.65248e-03  1.74330e-01        00000 
-1.44417e-03  1.74149e-01        00000 
-4.02379e-02  1.75379e-01        00000 
-4.55521e-02  1.78280e-01        00000 
-4.60460e-02  1.80264e-01        00000 
-4.00965e-02  1.81137e-01        00000 
-2.72530e-02  1.81281e-01        00000 
-1.10819e-02  1.81561e-01        00000 
 2.32365e-03  1.82286e-01        00000 
 8.94880e-03  1.82952e-01        00000 
 8.86261e-03  1.83245e-01        00000 
 4.41164e-03  1.83422e-01        00000 
-1.93082e-03  1.83679e-01        00000 
 2.32264e-02  2.23243e-02        00000 
 3.07534e-02  4.89839e-02        00000 
 1.91027e-02  8.24566e-02        00000 
 1.78336e-02  1.15895e-01        00000 
-4.44818e-02  1.83143e-01        00000 
-4.80846e-02  1.85074e-01        00000 
-4.72045e-02  1.86670e-01        00000 
-4.01013e-02  1.87825e-01        00000 
-2.71486e-02  1.88475e-01        00000 
-1.18391e-02  1.88808e-01        00000 
 7.88344e-04  1.89088e-01        00000 
 7.32783e-03  1.89491e-01        00000 
 7.52714e-03  1.90012e-01        00000 
 3.22927e-03  1.90568e-01        00000 
-2.08003e-03  1.90905e-01        00000 
-8.74595e-03  6.17559e-03        00000 
-1.09205e-02  1.71074e-02        00000 
-1.36135e-02  3.22280e-02        00000 
-1.63414e-02  5.30776e-02        00000 
-1.89626e-02  7.91756e-02        00000 
-2.15551e-02  1.07149e-01        00000 
-2.42813e-02  1.32266e-01        00000 
 2.42641e-02  1.48039e-01        00000 
-2.72298e-02  1.51414e-01        00000 
 1.04133e-02  1.72842e-01        00000 
-3.02530e-02  1.64482e-01        00000 
-3.28119e-02  1.73323e-01        00000 
-3.36166e-02  1.79938e-01        00000 
-8.23412e-03 -2.39800e-03        00000 
-1.09644e-02  2.07128e-03        00000 
-1.58750e-02  3.71923e-03        00000 
-1.92614e-02  4.48594e-03        00000 
-1.77644e-02  5.07860e-03        00000 
-1.05532e-02  5.42391e-03        00000 
 4.98293e-04  5.28912e-03        00000 
 1.12332e-02  4.67186e-03        00000 
 1.76228e-02  3.97826e-03        00000 
 1.80881e-02  3.58511e-03        00000 
 1.35421e-02  3.44715e-03        00000 
 5.85862e-03  3.39380e-03        00000 
-1.33861e-02  1.18366e-02        00000 
-1.96636e-02  1.23966e-02        00000 
-2.31023e-02  1.26660e-02        00000 
-2.14774e-02  1.27786e-02        00000 
-1.30506e-02  1.28787e-02        00000 
 3.34875e-04  1.27197e-02        00000 
 1.30231e-02  1.23183e-02        00000 
 1.97607e-02  1.20937e-02        00000 
 1.94037e-02  1.24691e-02        00000 
 1.39669e-02  1.32259e-02        00000 
 5.97198e-03  1.36528e-02        00000 
-1.61913e-02  2.46913e-02        00000 
-2.32961e-02  2.40856e-02        00000 
-2.79125e-02  2.25970e-02        00000 
-2.66803e-02  2.04920e-02        00000 
-1.65140e-02  1.64896e-02        00000 
 2.96515e-04  1.31135e-02        00000 
 1.60050e-02  1.66000e-02        00000 
 2.32648e-02  2.06475e-02        00000 
 2.14730e-02  2.33912e-02        00000 
 1.45274e-02  2.58112e-02        00000 
 5.91290e-03  2.71955e-02        00000 
-1.88573e-02  4.24276e-02        00000 
-2.65427e-02  4.07473e-02        00000 
-3.30776e-02  3.76663e-02        00000 
-3.25034e-02  3.34818e-02        00000 
 2.74722e-02  3.52881e-02        00000 
 2.36670e-02  3.98728e-02        00000 
 1.45355e-02  4.37416e-02        00000 
 5.50359e-03  4.59535e-02        00000 
-2.12112e-02  6.58758e-02        00000 
-2.92348e-02  6.42894e-02        00000 
-3.99757e-02  6.16644e-02        00000 
 2.68696e-02  6.55575e-02        00000 
 1.38038e-02  6.87988e-02        00000 
 4.75161e-03  7.06328e-02        00000 
-2.35695e-02  9.32603e-02        00000 
-3.18288e-02  9.34365e-02        00000 
 1.27849e-02  9.92683e-02        00000 
 4.02815e-03  9.92432e-02        00000 
-2.63093e-02  1.20347e-01        00000 
-3.46109e-02  1.22716e-01        00000 
 1.19056e-02  1.29164e-01        00000 
 3.59088e-03  1.27346e-01        00000 
-2.93609e-02  1.42903e-01        00000 
-3.73353e-02  1.46269e-01        00000 
-4.58280e-02  1.51235e-01        00000 
 1.77540e-02  1.56320e-01        00000 
 1.09399e-02  1.52743e-01        00000 
 3.21301e-03  1.50644e-01        00000 
-3.23878e-02  1.59158e-01        00000 
-3.96772e-02  1.62344e-01        00000 
-4.55302e-02  1.66498e-01        00000 
-4.62478e-02  1.70685e-01        00000 
 1.21870e-02  1.73224e-01        00000 
 1.39121e-02  1.70766e-01        00000 
 9.45868e-03  1.68697e-01        00000 
 2.57604e-03  1.67499e-01        00000 
-3.52158e-02  1.69969e-01        00000 
-4.17955e-02  1.72772e-01        00000 
-4.56639e-02  1.75771e-01        00000 
-4.39904e-02  1.77809e-01        00000 
-3.47346e-02  1.78670e-01        00000 
-1.90683e-02  1.78962e-01        00000 
-2.83694e-03  1.79338e-01        00000 
 7.65602e-03  1.79671e-01        00000 
 1.05176e-02  1.79576e-01        00000 
 7.65157e-03  1.79188e-01        00000 
 1.72702e-03  1.78989e-01        00000 
-3.76435e-02  1.77516e-01        00000 
-4.47103e-02  1.80683e-01        00000 
-4.67704e-02  1.82744e-01        00000 
-4.33267e-02  1.84118e-01        00000 
-3.35866e-02  1.84693e-01        00000 
-1.93242e-02  1.84924e-01        00000 
-5.00774e-03  1.85338e-01        00000 
 4.81425e-03  1.85944e-01        00000 
 8.19498e-03  1.86461e-01        00000 
 6.05509e-03  1.86831e-01        00000 
 9.17643e-04  1.87272e-01        00000 
 2.87015e-02  9.90870e-02        00000 
 2.32858e-02  1.32160e-01        00000 
 1.75132e-02  1.60851e-01        00000 
 6.23920e-04  1.77213e-01        00000 
-4.73338e-02  1.26422e-01        00000 
-4.95659e-02  1.56607e-01        00000 
-3.73968e-02  1.75783e-01        00000 
-1.89101e-02  1.80219e-01        00000 
-4.71842e-02  9.39356e-02        00000 
-8.14277e-03  1.26927e-02        00000 
 8.45927e-03  1.30258e-02        00000 
-1.87174e-02  1.74643e-02        00000 
-2.58239e-02  2.37671e-02        00000 
-2.36229e-02  2.10690e-02        00000 
-1.11270e-02  1.34836e-02        00000 
-3.73536e-03  1.14914e-02        00000 
 1.77048e-02  1.84144e-02        00000 
 4.18219e-03  1.17007e-02        00000 
 1.11208e-02  1.39786e-02        00000 
 2.35253e-02  2.50956e-02        00000 
 2.17638e-02  2.22279e-02        00000 
-3.94851e-02  4.58305e-02        00000 
-4.48970e-02  5.80138e-02        00000 
-4.16694e-02  4.95226e-02        00000 
-3.24209e-02  3.40822e-02        00000 
 3.15033e-02  4.86726e-02        00000 
 2.76124e-02  3.60360e-02        00000 
 3.43574e-02  6.12909e-02        00000 
 3.28533e-02  5.24262e-02        00000 
-4.97107e-02  7.79384e-02        00000 
-4.84884e-02  7.23794e-02        00000 
-5.15814e-02  8.61870e-02        00000 
 3.48213e-02  8.19587e-02        00000 
 3.49079e-02  7.60892e-02        00000 
 3.50903e-02  9.05274e-02        00000 
-5.42572e-02  1.10727e-01        00000 
-5.51654e-02  1.30776e-01        00000 
-5.39771e-02  1.02412e-01        00000 
-5.47707e-02  1.16439e-01        00000 
 3.24786e-02  1.15732e-01        00000 
 2.89143e-02  1.36022e-01        00000 
 3.38444e-02  1.07240e-01        00000 
 3.16556e-02  1.21433e-01        00000 
-5.30287e-02  1.43136e-01        00000 
-5.41762e-02  1.39469e-01        00000 
-4.56541e-02  1.67160e-01        00000 
-4.97196e-02  1.55847e-01        00000 
 2.40580e-02  1.48377e-01        00000 
 1.07790e-02  1.70602e-01        00000 
 1.74383e-02  1.60245e-01        00000 
 2.61123e-02  1.44664e-01        00000 
-3.92123e-02  1.74306e-01        00000 
-4.37321e-02  1.70192e-01        00000 
-2.84888e-02  1.80354e-01        00000 
-3.15914e-02  1.79212e-01        00000 
-2.34674e-02  1.81934e-01        00000 
 3.05719e-03  1.76941e-01        00000 
-8.93937e-03  1.81461e-01        00000 
-1.40911e-02  1.82548e-01        00000 
-5.51025e-03  1.80770e-01        00000 
 8.43335e-03  1.73356e-01        00000 
-3.63530e-02  1.82784e-01        00000 
-2.94323e-02  1.85478e-01        00000 
-2.42028e-02  1.87558e-01        00000 
-2.13027e-02  1.88856e-01        00000 
-2.05644e-02  1.89271e-01        00000 
-2.06436e-02  1.89127e-01        00000 
-1.96286e-02  1.88877e-01        00000 
-1.62490e-02  1.88814e-01        00000 
-1.04403e-02  1.88941e-01        00000 
-2.92834e-03  1.89126e-01        00000 
 3.65664e-03  1.89317e-01        00000 
-4.40661e-02  1.72964e-01        00000 
-3.46403e-02  1.76801e-01        00000 
-2.77085e-02  1.79284e-01        00000 
-2.30521e-02  1.80499e-01        00000 
-2.11899e-02  1.80690e-01        00000 
-2.11029e-02  1.80490e-01        00000 
-2.04256e-02  1.80430e-01        00000 
-1.73479e-02  1.80522e-01        00000 
-1.16707e-02  1.80655e-01        00000 
-4.37092e-03  1.80869e-01        00000 
 3.63979e-03  1.80834e-01        00000 
-4.96617e-02  1.64467e-01        00000 
-3.97393e-02  1.67636e-01        00000 
-3.06660e-02  1.70515e-01        00000 
-2.38282e-02  1.72294e-01        00000 
-2.11197e-02  1.72856e-01        00000 
-2.18368e-02  1.72807e-01        00000 
-2.21191e-02  1.72493e-01        00000 
-1.92844e-02  1.72222e-01        00000 
-1.33933e-02  1.72025e-01        00000 
-5.63665e-03  1.71837e-01        00000 
 3.02726e-03  1.71720e-01        00000 
-5.49905e-02  1.54159e-01        00000 
-4.44603e-02  1.57089e-01        00000 
-3.33319e-02  1.60156e-01        00000 
-2.40269e-02  1.63043e-01        00000 
-2.18606e-02  1.63155e-01        00000 
-1.53613e-02  1.62138e-01        00000 
-6.93154e-03  1.61467e-01        00000 
 2.18682e-03  1.61196e-01        00000 
-6.02670e-02  1.41363e-01        00000 
-4.92637e-02  1.43568e-01        00000 
-3.54984e-02  1.45814e-01        00000 
-1.75779e-02  1.49734e-01        00000 
-8.20682e-03  1.48786e-01        00000 
 1.25074e-03  1.48413e-01        00000 
-6.53455e-02  1.26149e-01        00000 
-5.43357e-02  1.27199e-01        00000 
-9.52126e-03  1.33374e-01        00000 
 2.74743e-04  1.33129e-01        00000 
-7.01210e-02  1.09825e-01        00000 
-5.99830e-02  1.09867e-01        00000 
-1.09721e-02  1.16130e-01        00000 
-6.84701e-04  1.16162e-01        00000 
-7.48582e-02  9.40917e-02        00000 
-6.54931e-02  9.40368e-02        00000 
-5.84272e-02  9.38348e-02        00000 
-2.43583e-02  9.79492e-02        00000 
-1.24771e-02  9.89250e-02        00000 
-1.55862e-03  9.90615e-02        00000 
-7.97996e-02  7.97998e-02        00000 
-7.08933e-02  8.05943e-02        00000 
-6.41302e-02  8.09075e-02        00000 
-6.11922e-02  7.97349e-02        00000 
-3.76580e-02  8.15249e-02        00000 
-2.56120e-02  8.25282e-02        00000 
-1.37169e-02  8.31912e-02        00000 
-2.28673e-03  8.31315e-02        00000 
-8.49763e-02  6.67904e-02        00000 
-7.62569e-02  6.84890e-02        00000 
-6.89156e-02  6.98394e-02        00000 
-6.35917e-02  7.02956e-02        00000 
-5.94991e-02  6.98556e-02        00000 
-5.45521e-02  6.92933e-02        00000 
-4.73212e-02  6.89622e-02        00000 
-3.75772e-02  6.89286e-02        00000 
-2.63233e-02  6.91000e-02        00000 
-1.45511e-02  6.91804e-02        00000 
-2.82561e-03  6.88080e-02        00000 
-9.04364e-02  5.45011e-02        00000 
-8.18182e-02  5.72798e-02        00000 
-7.32942e-02  5.89024e-02        00000 
-6.62713e-02  5.96286e-02        00000 
-6.03199e-02  5.95094e-02        00000 
-5.42101e-02  5.87644e-02        00000 
-4.67356e-02  5.78635e-02        00000 
-3.74649e-02  5.71681e-02        00000 
-2.67651e-02  5.67525e-02        00000 
-1.51128e-02  5.64743e-02        00000 
-3.09768e-03  5.58249e-02        00000 
-2.40021e-02  1.65243e-01        00000 
-2.55880e-02  1.50747e-01        00000 
-2.00047e-02  1.33795e-01        00000 
-2.24791e-02  1.15592e-01        00000 
-9.76727e-02  4.45587e-02        00000 
-8.69209e-02  4.64332e-02        00000 
-7.71164e-02  4.77161e-02        00000 
-6.85886e-02  4.82685e-02        00000 
-6.12161e-02  4.80063e-02        00000 
-5.42339e-02  4.72179e-02        00000 
-4.65818e-02  4.62975e-02        00000 
-3.75697e-02  4.55007e-02        00000 
-2.71802e-02  4.48436e-02        00000 
-1.58310e-02  4.42211e-02        00000 
-2.87145e-03  4.37174e-02        00000 
-5.45670e-02  1.70229e-01        00000 
-5.90236e-02  1.61701e-01        00000 
-6.44171e-02  1.51872e-01        00000 
-6.97914e-02  1.39944e-01        00000 
-7.48697e-02  1.25667e-01        00000 
-7.97744e-02  1.09772e-01        00000 
-8.47573e-02  9.36818e-02        00000 
-3.78442e-02  9.67016e-02        00000 
-8.99341e-02  7.86123e-02        00000 
-4.79470e-02  8.02224e-02        00000 
-9.50367e-02  6.49922e-02        00000 
-9.91595e-02  5.26020e-02        00000 
-1.00131e-01  4.10217e-02        00000 
-5.33485e-02  1.78192e-01        00000 
-4.73157e-02  1.75231e-01        00000 
-3.59801e-02  1.79820e-01        00000 
-2.89455e-02  1.82493e-01        00000 
-2.40769e-02  1.84269e-01        00000 
-2.15553e-02  1.84969e-01        00000 
-2.08822e-02  1.84915e-01        00000 
-2.04264e-02  1.84689e-01        00000 
-1.83935e-02  1.84623e-01        00000 
-1.39261e-02  1.84717e-01        00000 
-7.34897e-03  1.84871e-01        00000 
-2.90113e-05  1.85215e-01        00000 
-5.18257e-02  1.67198e-01        00000 
-4.21103e-02  1.70529e-01        00000 
-3.31390e-02  1.73827e-01        00000 
-2.62433e-02  1.75921e-01        00000 
-2.22510e-02  1.76690e-01        00000 
-2.12934e-02  1.76610e-01        00000 
-2.14029e-02  1.76435e-01        00000 
-1.98396e-02  1.76386e-01        00000 
-1.54654e-02  1.76383e-01        00000 
-8.81811e-03  1.76404e-01        00000 
-8.45334e-04  1.76397e-01        00000 
-5.70831e-02  1.58058e-01        00000 
-4.72430e-02  1.60914e-01        00000 
-3.70258e-02  1.64106e-01        00000 
-2.78247e-02  1.66810e-01        00000 
-2.20242e-02  1.68934e-01        00000 
-2.14469e-02  1.70677e-01        00000 
-2.28206e-02  1.69673e-01        00000 
-2.20436e-02  1.68192e-01        00000 
-1.75774e-02  1.67461e-01        00000 
-1.03912e-02  1.66951e-01        00000 
-1.85776e-03  1.66612e-01        00000 
-6.24750e-02  1.46847e-01        00000 
-5.23360e-02  1.49104e-01        00000 
-4.07412e-02  1.51986e-01        00000 
-2.87700e-02  1.54436e-01        00000 
-2.45944e-02  1.58114e-01        00000 
-2.00965e-02  1.56632e-01        00000 
-1.20538e-02  1.55649e-01        00000 
-2.93800e-03  1.55008e-01        00000 
-6.76856e-02  1.33281e-01        00000 
-5.74473e-02  1.34571e-01        00000 
-4.45445e-02  1.36512e-01        00000 
-2.37192e-02  1.42334e-01        00000 
-1.37618e-02  1.41561e-01        00000 
-4.03466e-03  1.40968e-01        00000 
-7.25813e-02  1.17869e-01        00000 
-6.25723e-02  1.18151e-01        00000 
-1.56244e-02  1.24851e-01        00000 
-5.19114e-03  1.24760e-01        00000 
-7.73331e-02  1.01873e-01        00000 
-6.76259e-02  1.01858e-01        00000 
-1.75170e-02  1.07196e-01        00000 
-6.41012e-03  1.07649e-01        00000 
-8.22401e-02  8.65758e-02        00000 
-7.26549e-02  8.70733e-02        00000 
-6.46715e-02  8.73055e-02        00000 
-3.13987e-02  8.94960e-02        00000 
-1.90802e-02  9.06501e-02        00000 
-7.53438e-03  9.11412e-02        00000 
-8.73603e-02  7.25394e-02        00000 
-7.78685e-02  7.38950e-02        00000 
-6.99193e-02  7.50299e-02        00000 
-6.42538e-02  7.54926e-02        00000 
-4.27929e-02  7.48414e-02        00000 
-3.18966e-02  7.54214e-02        00000 
-2.01237e-02  7.59846e-02        00000 
-8.38418e-03  7.61147e-02        00000 
-9.23896e-02  5.95543e-02        00000 
-8.32370e-02  6.17524e-02        00000 
-7.50372e-02  6.37755e-02        00000 
-6.79844e-02  6.48789e-02        00000 
-6.23804e-02  6.50546e-02        00000 
-5.71682e-02  6.45010e-02        00000 
-5.07760e-02  6.37513e-02        00000 
-4.23575e-02  6.31714e-02        00000 
-3.21060e-02  6.29181e-02        00000 
-2.07329e-02  6.28618e-02        00000 
-8.93145e-03  6.26081e-02        00000 
-9.66453e-02  4.73878e-02        00000 
-8.93251e-02  5.09599e-02        00000 
-7.98299e-02  5.27430e-02        00000 
-7.13394e-02  5.38170e-02        00000 
-6.41169e-02  5.40308e-02        00000 
-5.75004e-02  5.34836e-02        00000 
-5.04428e-02  5.25580e-02        00000 
-4.21007e-02  5.16751e-02        00000 
-3.22752e-02  5.10275e-02        00000 
-2.12653e-02  5.05350e-02        00000 
-9.21001e-03  5.01775e-02        00000 
-2.82877e-02  1.24514e-01        00000 
-3.05650e-02  1.06066e-01        00000 
-4.32950e-02  8.82808e-02        00000 
-5.14356e-02  7.41286e-02        00000 
-5.83611e-02  1.01818e-01        00000 
-6.05903e-02  8.66825e-02        00000 
-6.08004e-02  7.45151e-02        00000 
-5.71169e-02  7.34845e-02        00000 
-5.03877e-02  1.19075e-01        00000 
-2.13576e-02  1.68579e-01        00000 
-2.20735e-02  1.69471e-01        00000 
-2.27263e-02  1.64489e-01        00000 
-2.40620e-02  1.60459e-01        00000 
-2.36064e-02  1.62152e-01        00000 