<?xml version="1.0" encoding="utf-8"?>
<VTKFile byte_order="LittleEndian" type="UnstructuredGrid" version="0.1">
   <UnstructuredGrid>
      <Piece NumberOfCells="1444" NumberOfPoints="761">
         <Points>
            <DataArray Name="Points" NumberOfComponents="3" format="ascii" type="Float32">
-1.0000 -1.0000 0.0000
-1.0000 -0.8947 0.0000
-1.0000 -0.7895 0.0000
-1.0000 -0.6842 0.0000
-1.0000 -0.5789 0.0000
-1.0000 -0.4737 0.0000
-1.0000 -0.3684 0.0000
-1.0000 -0.2632 0.0000
-1.0000 -0.1579 0.0000
-1.0000 -0.0526 0.0000
-1.0000 0.0526 0.0000
-1.0000 0.1579 0.0000
-1.0000 0.2632 0.0000
-1.0000 0.3684 0.0000
-1.0000 0.4737 0.0000
-1.0000 0.5789 0.0000
-1.0000 0.6842 0.0000
-1.0000 0.7895 0.0000
-1.0000 0.8947 0.0000
-1.0000 1.0000 0.0000
-0.8947 -1.0000 0.0000
-0.8947 -0.8947 0.0000
-0.8947 -0.7895 0.0000
-0.8947 -0.6842 0.0000
-0.8947 -0.5789 0.0000
-0.8947 -0.4737 0.0000
-0.8947 -0.3684 0.0000
-0.8947 -0.2632 0.0000
-0.8947 -0.1579 0.0000
-0.8947 -0.0526 0.0000
-0.8947 0.0526 0.0000
-0.8947 0.1579 0.0000
-0.8947 0.2632 0.0000
-0.8947 0.3684 0.0000
-0.8947 0.4737 0.0000
-0.8947 0.5789 0.0000
-0.8947 0.6842 0.0000
-0.8947 0.7895 0.0000
-0.8947 0.8947 0.0000
-0.8947 1.0000 0.0000
-0.7895 -1.0000 0.0000
-0.7895 -0.8947 0.0000
-0.7895 -0.7895 0.0000
-0.7895 -0.6842 0.0000
-0.7895 -0.5789 0.0000
-0.7895 -0.4737 0.0000
-0.7895 -0.3684 0.0000
-0.7895 -0.2632 0.0000
-0.7895 -0.1579 0.0000
-0.7895 -0.0526 0.0000
-0.7895 0.0526 0.0000
-0.7895 0.1579 0.0000
-0.7895 0.2632 0.0000
-0.7895 0.3684 0.0000
-0.7895 0.4737 0.0000
-0.7895 0.5789 0.0000
-0.7895 0.6842 0.0000
-0.7895 0.7895 0.0000
-0.7895 0.8947 0.0000
-0.7895 1.0000 0.0000
-0.6842 -1.0000 0.0000
-0.6842 -0.8947 0.0000
-0.6842 -0.7895 0.0000
-0.6842 -0.6842 0.0000
-0.6842 -0.5789 0.0000
-0.6842 -0.4737 0.0000
-0.6842 -0.3684 0.0000
-0.6842 -0.2632 0.0000
-0.6842 -0.1579 0.0000
-0.6842 -0.0526 0.0000
-0.6842 0.0526 0.0000
-0.6842 0.1579 0.0000
-0.6842 0.2632 0.0000
-0.6842 0.3684 0.0000
-0.6842 0.4737 0.0000
-0.6842 0.5789 0.0000
-0.6842 0.6842 0.0000
-0.6842 0.7895 0.0000
-0.6842 0.8947 0.0000
-0.6842 1.0000 0.0000
-0.5789 -1.0000 0.0000
-0.5789 -0.8947 0.0000
-0.5789 -0.7895 0.0000
-0.5789 -0.6842 0.0000
-0.5789 -0.5789 0.0000
-0.5789 -0.4737 0.0000
-0.5789 -0.3684 0.0000
-0.5789 -0.2632 0.0000
-0.5789 -0.1579 0.0000
-0.5789 -0.0526 0.0000
-0.5789 0.0526 0.0000
-0.5789 0.1579 0.0000
-0.5789 0.2632 0.0000
-0.5789 0.3684 0.0000
-0.5789 0.4737 0.0000
-0.5789 0.5789 0.0000
-0.5789 0.6842 0.0000
-0.5789 0.7895 0.0000
-0.5789 0.8947 0.0000
-0.5789 1.0000 0.0000
-0.4737 -1.0000 0.0000
-0.4737 -0.8947 0.0000
-0.4737 -0.7895 0.0000
-0.4737 -0.6842 0.0000
-0.4737 -0.5789 0.0000
-0.4737 -0.4737 0.0000
-0.4737 -0.3684 0.0000
-0.4737 -0.2632 0.0000
-0.4737 -0.1579 0.0000
-0.4737 -0.0526 0.0000
-0.4737 0.0526 0.0000
-0.4737 0.1579 0.0000
-0.4737 0.2632 0.0000
-0.4737 0.3684 0.0000
-0.4737 0.4737 0.0000
-0.4737 0.5789 0.0000
-0.4737 0.6842 0.0000
-0.4737 0.7895 0.0000
-0.4737 0.8947 0.0000
-0.4737 1.0000 0.0000
-0.3684 -1.0000 0.0000
-0.3684 -0.8947 0.0000
-0.3684 -0.7895 0.0000
-0.3684 -0.6842 0.0000
-0.3684 -0.5789 0.0000
-0.3684 -0.4737 0.0000
-0.3684 -0.3684 0.0000
-0.3684 -0.2632 0.0000
-0.3684 -0.1579 0.0000
-0.3684 -0.0526 0.0000
-0.3684 0.0526 0.0000
-0.3684 0.1579 0.0000
-0.3684 0.2632 0.0000
-0.3684 0.3684 0.0000
-0.3684 0.4737 0.0000
-0.3684 0.5789 0.0000
-0.3684 0.6842 0.0000
-0.3684 0.7895 0.0000
-0.3684 0.8947 0.0000
-0.3684 1.0000 0.0000
-0.2632 -1.0000 0.0000
-0.2632 -0.8947 0.0000
-0.2632 -0.7895 0.0000
-0.2632 -0.6842 0.0000
-0.2632 -0.5789 0.0000
-0.2632 -0.4737 0.0000
-0.2632 -0.3684 0.0000
-0.2632 -0.2632 0.0000
-0.2632 -0.1579 0.0000
-0.2632 -0.0526 0.0000
-0.2632 0.0526 0.0000
-0.2632 0.1579 0.0000
-0.2632 0.2632 0.0000
-0.2632 0.3684 0.0000
-0.2632 0.4737 0.0000
-0.2632 0.5789 0.0000
-0.2632 0.6842 0.0000
-0.2632 0.7895 0.0000
-0.2632 0.8947 0.0000
-0.2632 1.0000 0.0000
-0.1579 -1.0000 0.0000
-0.1579 -0.8947 0.0000
-0.1579 -0.7895 0.0000
-0.1579 -0.6842 0.0000
-0.1579 -0.5789 0.0000
-0.1579 -0.4737 0.0000
-0.1579 -0.3684 0.0000
-0.1579 -0.2632 0.0000
-0.1579 -0.1579 0.0000
-0.1579 -0.0526 0.0000
-0.1579 0.0526 0.0000
-0.1579 0.1579 0.0000
-0.1579 0.2632 0.0000
-0.1579 0.3684 0.0000
-0.1579 0.4737 0.0000
-0.1579 0.5789 0.0000
-0.1579 0.6842 0.0000
-0.1579 0.7895 0.0000
-0.1579 0.8947 0.0000
-0.1579 1.0000 0.0000
-0.0526 -1.0000 0.0000
-0.0526 -0.8947 0.0000
-0.0526 -0.7895 0.0000
-0.0526 -0.6842 0.0000
-0.0526 -0.5789 0.0000
-0.0526 -0.4737 0.0000
-0.0526 -0.3684 0.0000
-0.0526 -0.2632 0.0000
-0.0526 -0.1579 0.0000
-0.0526 -0.0526 0.0000
-0.0526 0.0526 0.0000
-0.0526 0.1579 0.0000
-0.0526 0.2632 0.0000
-0.0526 0.3684 0.0000
-0.0526 0.4737 0.0000
-0.0526 0.5789 0.0000
-0.0526 0.6842 0.0000
-0.0526 0.7895 0.0000
-0.0526 0.8947 0.0000
-0.0526 1.0000 0.0000
0.0526 -1.0000 0.0000
0.0526 -0.8947 0.0000
0.0526 -0.7895 0.0000
0.0526 -0.6842 0.0000
0.0526 -0.5789 0.0000
0.0526 -0.4737 0.0000
0.0526 -0.3684 0.0000
0.0526 -0.2632 0.0000
0.0526 -0.1579 0.0000
0.0526 -0.0526 0.0000
0.0526 0.0526 0.0000
0.0526 0.1579 0.0000
0.0526 0.2632 0.0000
0.0526 0.3684 0.0000
0.0526 0.4737 0.0000
0.0526 0.5789 0.0000
0.0526 0.6842 0.0000
0.0526 0.7895 0.0000
0.0526 0.8947 0.0000
0.0526 1.0000 0.0000
0.1579 -1.0000 0.0000
0.1579 -0.8947 0.0000
0.1579 -0.7895 0.0000
0.1579 -0.6842 0.0000
0.1579 -0.5789 0.0000
0.1579 -0.4737 0.0000
0.1579 -0.3684 0.0000
0.1579 -0.2632 0.0000
0.1579 -0.1579 0.0000
0.1579 -0.0526 0.0000
0.1579 0.0526 0.0000
0.1579 0.1579 0.0000
0.1579 0.2632 0.0000
0.1579 0.3684 0.0000
0.1579 0.4737 0.0000
0.1579 0.5789 0.0000
0.1579 0.6842 0.0000
0.1579 0.7895 0.0000
0.1579 0.8947 0.0000
0.1579 1.0000 0.0000
0.2632 -1.0000 0.0000
0.2632 -0.8947 0.0000
0.2632 -0.7895 0.0000
0.2632 -0.6842 0.0000
0.2632 -0.5789 0.0000
0.2632 -0.4737 0.0000
0.2632 -0.3684 0.0000
0.2632 -0.2632 0.0000
0.2632 -0.1579 0.0000
0.2632 -0.0526 0.0000
0.2632 0.0526 0.0000
0.2632 0.1579 0.0000
0.2632 0.2632 0.0000
0.2632 0.3684 0.0000
0.2632 0.4737 0.0000
0.2632 0.5789 0.0000
0.2632 0.6842 0.0000
0.2632 0.7895 0.0000
0.2632 0.8947 0.0000
0.2632 1.0000 0.0000
0.3684 -1.0000 0.0000
0.3684 -0.8947 0.0000
0.3684 -0.7895 0.0000
0.3684 -0.6842 0.0000
0.3684 -0.5789 0.0000
0.3684 -0.4737 0.0000
0.3684 -0.3684 0.0000
0.3684 -0.2632 0.0000
0.3684 -0.1579 0.0000
0.3684 -0.0526 0.0000
0.3684 0.0526 0.0000
0.3684 0.1579 0.0000
0.3684 0.2632 0.0000
0.3684 0.3684 0.0000
0.3684 0.4737 0.0000
0.3684 0.5789 0.0000
0.3684 0.6842 0.0000
0.3684 0.7895 0.0000
0.3684 0.8947 0.0000
0.3684 1.0000 0.0000
0.4737 -1.0000 0.0000
0.4737 -0.8947 0.0000
0.4737 -0.7895 0.0000
0.4737 -0.6842 0.0000
0.4737 -0.5789 0.0000
0.4737 -0.4737 0.0000
0.4737 -0.3684 0.0000
0.4737 -0.2632 0.0000
0.4737 -0.1579 0.0000
0.4737 -0.0526 0.0000
0.4737 0.0526 0.0000
0.4737 0.1579 0.0000
0.4737 0.2632 0.0000
0.4737 0.3684 0.0000
0.4737 0.4737 0.0000
0.4737 0.5789 0.0000
0.4737 0.6842 0.0000
0.4737 0.7895 0.0000
0.4737 0.8947 0.0000
0.4737 1.0000 0.0000
0.5789 -1.0000 0.0000
0.5789 -0.8947 0.0000
0.5789 -0.7895 0.0000
0.5789 -0.6842 0.0000
0.5789 -0.5789 0.0000
0.5789 -0.4737 0.0000
0.5789 -0.3684 0.0000
0.5789 -0.2632 0.0000
0.5789 -0.1579 0.0000
0.5789 -0.0526 0.0000
0.5789 0.0526 0.0000
0.5789 0.1579 0.0000
0.5789 0.2632 0.0000
0.5789 0.3684 0.0000
0.5789 0.4737 0.0000
0.5789 0.5789 0.0000
0.5789 0.6842 0.0000
0.5789 0.7895 0.0000
0.5789 0.8947 0.0000
0.5789 1.0000 0.0000
0.6842 -1.0000 0.0000
0.6842 -0.8947 0.0000
0.6842 -0.7895 0.0000
0.6842 -0.6842 0.0000
0.6842 -0.5789 0.0000
0.6842 -0.4737 0.0000
0.6842 -0.3684 0.0000
0.6842 -0.2632 0.0000
0.6842 -0.1579 0.0000
0.6842 -0.0526 0.0000
0.6842 0.0526 0.0000
0.6842 0.1579 0.0000
0.6842 0.2632 0.0000
0.6842 0.3684 0.0000
0.6842 0.4737 0.0000
0.6842 0.5789 0.0000
0.6842 0.6842 0.0000
0.6842 0.7895 0.0000
0.6842 0.8947 0.0000
0.6842 1.0000 0.0000
0.7895 -1.0000 0.0000
0.7895 -0.8947 0.0000
0.7895 -0.7895 0.0000
0.7895 -0.6842 0.0000
0.7895 -0.5789 0.0000
0.7895 -0.4737 0.0000
0.7895 -0.3684 0.0000
0.7895 -0.2632 0.0000
0.7895 -0.1579 0.0000
0.7895 -0.0526 0.0000
0.7895 0.0526 0.0000
0.7895 0.1579 0.0000
0.7895 0.2632 0.0000
0.7895 0.3684 0.0000
0.7895 0.4737 0.0000
0.7895 0.5789 0.0000
0.7895 0.6842 0.0000
0.7895 0.7895 0.0000
0.7895 0.8947 0.0000
0.7895 1.0000 0.0000
0.8947 -1.0000 0.0000
0.8947 -0.8947 0.0000
0.8947 -0.7895 0.0000
0.8947 -0.6842 0.0000
0.8947 -0.5789 0.0000
0.8947 -0.4737 0.0000
0.8947 -0.3684 0.0000
0.8947 -0.2632 0.0000
0.8947 -0.1579 0.0000
0.8947 -0.0526 0.0000
0.8947 0.0526 0.0000
0.8947 0.1579 0.0000
0.8947 0.2632 0.0000
0.8947 0.3684 0.0000
0.8947 0.4737 0.0000
0.8947 0.5789 0.0000
0.8947 0.6842 0.0000
0.8947 0.7895 0.0000
0.8947 0.8947 0.0000
0.8947 1.0000 0.0000
1.0000 -1.0000 0.0000
1.0000 -0.8947 0.0000
1.0000 -0.7895 0.0000
1.0000 -0.6842 0.0000
1.0000 -0.5789 0.0000
1.0000 -0.4737 0.0000
1.0000 -0.3684 0.0000
1.0000 -0.2632 0.0000
1.0000 -0.1579 0.0000
1.0000 -0.0526 0.0000
1.0000 0.0526 0.0000
1.0000 0.1579 0.0000
1.0000 0.2632 0.0000
1.0000 0.3684 0.0000
1.0000 0.4737 0.0000
1.0000 0.5789 0.0000
1.0000 0.6842 0.0000
1.0000 0.7895 0.0000
1.0000 0.8947 0.0000
1.0000 1.0000 0.0000
-0.9474 -0.9474 0.0000
-0.9474 -0.8421 0.0000
-0.9474 -0.7368 0.0000
-0.9474 -0.6316 0.0000
-0.9474 -0.5263 0.0000
-0.9474 -0.4211 0.0000
-0.9474 -0.3158 0.0000
-0.9474 -0.2105 0.0000
-0.9474 -0.1053 0.0000
-0.9474 0.0000 0.0000
-0.9474 0.1053 0.0000
-0.9474 0.2105 0.0000
-0.9474 0.3158 0.0000
-0.9474 0.4211 0.0000
-0.9474 0.5263 0.0000
-0.9474 0.6316 0.0000
-0.9474 0.7368 0.0000
-0.9474 0.8421 0.0000
-0.9474 0.9474 0.0000
-0.8421 -0.9474 0.0000
-0.8421 -0.8421 0.0000
-0.8421 -0.7368 0.0000
-0.8421 -0.6316 0.0000
-0.8421 -0.5263 0.0000
-0.8421 -0.4211 0.0000
-0.8421 -0.3158 0.0000
-0.8421 -0.2105 0.0000
-0.8421 -0.1053 0.0000
-0.8421 0.0000 0.0000
-0.8421 0.1053 0.0000
-0.8421 0.2105 0.0000
-0.8421 0.3158 0.0000
-0.8421 0.4211 0.0000
-0.8421 0.5263 0.0000
-0.8421 0.6316 0.0000
-0.8421 0.7368 0.0000
-0.8421 0.8421 0.0000
-0.8421 0.9474 0.0000
-0.7368 -0.9474 0.0000
-0.7368 -0.8421 0.0000
[...]
         <PointData>
            <DataArray Name="fValues" NumberOfComponents="3" format="ascii" type="Float64">
 2.48340e-03  1.00191e+00        00000 
-3.99698e-04  9.48410e-01        00000 
 6.68968e-04  8.91932e-01        00000 
 1.25421e-03  8.41767e-01        00000 
-1.07897e-03  7.91253e-01        00000 
-2.12427e-03  7.37880e-01        00000 
-3.79641e-03  6.85605e-01        00000 
 9.19076e-04  6.30486e-01        00000 
 6.38410e-04  5.77874e-01        00000 
-1.39058e-03  5.22460e-01        00000 
-1.33879e-03  4.71879e-01        00000 
-3.15968e-03  4.21426e-01        00000 
-3.61920e-03  3.66699e-01        00000 
-1.29007e-03  3.15533e-01        00000 
-3.51869e-04  2.65927e-01        00000 
-2.46345e-04  2.11171e-01        00000 
 1.32591e-03  1.56868e-01        00000 
-1.60592e-03  1.04814e-01        00000 
 3.12167e-04  5.30395e-02        00000 
 2.27749e-04 -8.26950e-04        00000 
 9.94649e-04  9.49938e-01        00000 
 8.19951e-03  9.04519e-01        00000 
 1.17542e-02  8.59552e-01        00000 
 1.28732e-02  8.03100e-01        00000 
 1.53276e-02  7.50635e-01        00000 
 2.06752e-02  7.06636e-01        00000 
 1.95615e-02  6.49987e-01        00000 
 1.89204e-02  5.99829e-01        00000 
 2.00085e-02  5.46534e-01        00000 
 1.85826e-02  5.00030e-01        00000 
 1.61145e-02  4.50291e-01        00000 
 1.53053e-02  4.00138e-01        00000 
 1.50492e-02  3.48336e-01        00000 
 1.24031e-02  2.96371e-01        00000 
 1.24669e-02  2.48639e-01        00000 
 1.21182e-02  1.98120e-01        00000 
 1.24932e-02  1.45438e-01        00000 
 9.63554e-03  9.44181e-02        00000 
 4.95246e-03  4.58849e-02        00000 
-1.04628e-03 -1.52947e-04        00000 
 3.01612e-03  8.93382e-01        00000 
 1.27974e-02  8.55998e-01        00000 
 2.20164e-02  8.10200e-01        00000 
 2.70271e-02  7.59920e-01        00000 
 3.28799e-02  7.18752e-01        00000 
 4.00773e-02  6.71327e-01        00000 
 3.86433e-02  6.19285e-01        00000 
 3.35659e-02  5.70474e-01        00000 
 3.14055e-02  5.23402e-01        00000 
 2.76458e-02  4.77514e-01        00000 
 2.40775e-02  4.27851e-01        00000 
 2.35515e-02  3.76864e-01        00000 
 2.43527e-02  3.29116e-01        00000 
 2.36411e-02  2.79832e-01        00000 
 2.30414e-02  2.32645e-01        00000 
 2.15695e-02  1.84266e-01        00000 
 1.96028e-02  1.34138e-01        00000 
 1.37532e-02  8.45256e-02        00000 
 8.77739e-03  4.04282e-02        00000 
 1.65621e-03 -3.71501e-03        00000 
 3.60658e-04  8.43677e-01        00000 
 1.76074e-02  8.10038e-01        00000 
 3.20035e-02  7.72949e-01        00000 
 4.07043e-02  7.25245e-01        00000 
 4.67892e-02  6.81756e-01        00000 
 5.09260e-02  6.37923e-01        00000 
 5.12490e-02  5.91892e-01        00000 
 4.78949e-02  5.42578e-01        00000 
 4.46408e-02  4.96127e-01        00000 
 4.00883e-02  4.52470e-01        00000 
 3.64947e-02  4.05602e-01        00000 
 3.23155e-02  3.57424e-01        00000 
 3.38358e-02  3.09679e-01        00000 
 3.55420e-02  2.64177e-01        00000 
 3.21088e-02  2.16793e-01        00000 
 3.06731e-02  1.73956e-01        00000 
 2.63129e-02  1.26621e-01        00000 
 2.17603e-02  8.22068e-02        00000 
 1.18407e-02  3.98026e-02        00000 
 2.82044e-03  4.77690e-04        00000 
-2.99540e-04  7.90631e-01        00000 
 1.82447e-02  7.58543e-01        00000 
 3.60813e-02  7.27210e-01        00000 
 5.00595e-02  6.88301e-01        00000 
 5.96860e-02  6.47566e-01        00000 
 6.06578e-02  6.05776e-01        00000 
 6.35390e-02  5.66874e-01        00000 
 6.35175e-02  5.27404e-01        00000 
 5.82216e-02  4.77247e-01        00000 
 5.11496e-02  4.30846e-01        00000 
 4.72596e-02  3.85530e-01        00000 
 4.21748e-02  3.34623e-01        00000 
 4.10456e-02  2.90271e-01        00000 
 4.06973e-02  2.45479e-01        00000 
 3.79703e-02  1.99891e-01        00000 
 3.46996e-02  1.60715e-01        00000 
 3.21438e-02  1.17540e-01        00000 
 2.76356e-02  7.12191e-02        00000 
 1.62910e-02  3.29472e-02        00000 
 2.47752e-03  2.43798e-03        00000 
 3.84052e-04  7.38719e-01        00000 
 1.76529e-02  7.05737e-01        00000 
 3.88823e-02  6.75810e-01        00000 
 5.35526e-02  6.45351e-01        00000 
 6.49880e-02  6.16234e-01        00000 
 7.29737e-02  5.78778e-01        00000 
 7.79471e-02  5.43419e-01        00000 
 7.67551e-02  5.11855e-01        00000 
 7.07989e-02  4.69722e-01        00000 
 6.14863e-02  4.20085e-01        00000 
 5.36709e-02  3.66767e-01        00000 
 4.83112e-02  3.10919e-01        00000 
 4.70383e-02  2.64093e-01        00000 
 4.68141e-02  2.24476e-01        00000 
 4.65530e-02  1.84372e-01        00000 
 4.14893e-02  1.41161e-01        00000 
 3.76153e-02  1.04060e-01        00000 
 2.95810e-02  6.25257e-02        00000 
 1.69039e-02  3.16245e-02        00000 
 8.91034e-04  1.91924e-03        00000 
 3.51545e-04  6.85815e-01        00000 
 1.97663e-02  6.55106e-01        00000 
 4.17501e-02  6.34025e-01        00000 
 5.63979e-02  6.06068e-01        00000 
 7.03803e-02  5.83858e-01        00000 
 8.39613e-02  5.54089e-01        00000 
 9.16840e-02  5.26613e-01        00000 
 9.31501e-02  5.04254e-01        00000 
 8.60716e-02  4.69740e-01        00000 
 7.75365e-02  4.14756e-01        00000 
 6.12814e-02  3.44800e-01        00000 
 5.22971e-02  2.78890e-01        00000 
 5.26885e-02  2.29985e-01        00000 
 5.15138e-02  1.91038e-01        00000 
 5.00937e-02  1.58280e-01        00000 
 4.68527e-02  1.27448e-01        00000 
 4.17753e-02  9.24344e-02        00000 
 2.99367e-02  5.48551e-02        00000 
 1.80633e-02  2.78362e-02        00000 
-1.77715e-03  1.17881e-03        00000 
 1.36460e-03  6.31495e-01        00000 
 2.03476e-02  6.07939e-01        00000 
 4.13037e-02  5.89307e-01        00000 
 5.58835e-02  5.64059e-01        00000 
 7.33682e-02  5.45515e-01        00000 
 8.87958e-02  5.27274e-01        00000 
 1.02723e-01  5.18374e-01        00000 
 1.06475e-01  5.05821e-01        00000 
 1.02150e-01  4.70247e-01        00000 
 8.73055e-02  4.00429e-01        00000 
 6.62500e-02  3.12125e-01        00000 
 5.15652e-02  2.36588e-01        00000 
 4.95987e-02  1.85698e-01        00000 
 5.11528e-02  1.53591e-01        00000 
 5.06242e-02  1.30291e-01        00000 
 4.73011e-02  1.05725e-01        00000 
 4.14986e-02  8.00688e-02        00000 
 3.13770e-02  5.03611e-02        00000 
 2.05492e-02  2.49787e-02        00000 
 6.40299e-04 -1.39867e-03        00000 
 1.65151e-03  5.81254e-01        00000 
 2.01503e-02  5.60647e-01        00000 
 4.01271e-02  5.40861e-01        00000 
 5.43954e-02  5.20897e-01        00000 
 7.24758e-02  5.04306e-01        00000 
 9.36540e-02  5.00471e-01        00000 
 1.14691e-01  5.06573e-01        00000 
 1.21677e-01  4.98949e-01        00000 
 1.15923e-01  4.49690e-01        00000 
 9.29377e-02  3.58160e-01        00000 
 6.84176e-02  2.72114e-01        00000 
 5.12008e-02  1.89421e-01        00000 
 4.35403e-02  1.32834e-01        00000 
 4.78765e-02  1.11832e-01        00000 
 5.05199e-02  9.64299e-02        00000 
 4.70194e-02  8.38963e-02        00000 
 3.93098e-02  6.49737e-02        00000 
 3.05652e-02  4.30553e-02        00000 
 2.30908e-02  2.12394e-02        00000 
 2.72614e-03 -2.25274e-03        00000 
 1.43985e-03  5.28281e-01        00000 
 1.90056e-02  5.10007e-01        00000 
 3.79688e-02  4.90011e-01        00000 
 5.28639e-02  4.74060e-01        00000 
 6.89937e-02  4.59125e-01        00000 
 9.06993e-02  4.55785e-01        00000 
 1.14045e-01  4.64063e-01        00000 
 1.25861e-01  4.59363e-01        00000 
 1.19078e-01  4.00591e-01        00000 
 9.71625e-02  3.16924e-01        00000 
 6.89175e-02  2.33859e-01        00000 
 4.65212e-02  1.52872e-01        00000 
 3.42326e-02  9.22985e-02        00000 
 4.20398e-02  7.52961e-02        00000 
 4.66076e-02  7.12633e-02        00000 
 4.47596e-02  6.88094e-02        00000 
 3.77392e-02  5.61896e-02        00000 
 2.84098e-02  3.61076e-02        00000 
 2.00500e-02  1.85573e-02        00000 
 2.26096e-03 -3.04894e-03        00000 
 5.40543e-04  4.74227e-01        00000 
 1.77625e-02  4.55079e-01        00000 
 3.39314e-02  4.40307e-01        00000 
 4.92825e-02  4.24730e-01        00000 
 6.53057e-02  4.09753e-01        00000 
 8.46285e-02  4.03152e-01        00000 
 1.04854e-01  4.00801e-01        00000 
 1.17383e-01  3.93650e-01        00000 
 1.07789e-01  3.34742e-01        00000 
 8.93055e-02  2.62725e-01        00000 
 6.25656e-02  1.91303e-01        00000 
 4.03515e-02  1.18657e-01        00000 
 3.10710e-02  6.61340e-02        00000 
 3.47960e-02  5.80332e-02        00000 
 4.32601e-02  5.80233e-02        00000 
 4.10051e-02  5.64173e-02        00000 
 3.59065e-02  4.83507e-02        00000 
 2.87014e-02  2.74082e-02        00000 
 1.68756e-02  1.73687e-02        00000 
 1.68431e-03 -3.58846e-03        00000 
 1.67064e-03  4.23656e-01        00000 
 1.59505e-02  4.02021e-01        00000 
 3.17775e-02  3.90401e-01        00000 
 4.64853e-02  3.71172e-01        00000 
 6.49999e-02  3.61460e-01        00000 
 7.97170e-02  3.46561e-01        00000 
 9.39940e-02  3.32618e-01        00000 
 1.01449e-01  3.11089e-01        00000 
 9.17932e-02  2.64809e-01        00000 
 7.72823e-02  2.01942e-01        00000 
 5.16362e-02  1.42075e-01        00000 
 3.27046e-02  8.38725e-02        00000 
 2.80604e-02  5.75643e-02        00000 
 3.03218e-02  5.23648e-02        00000 
 3.95303e-02  5.29306e-02        00000 
 3.94081e-02  4.72639e-02        00000 
 3.52037e-02  3.93455e-02        00000 
 2.55819e-02  2.63296e-02        00000 
 1.34893e-02  1.36859e-02        00000 
 1.59820e-03 -3.28269e-03        00000 
 1.89359e-03  3.68980e-01        00000 
 1.68018e-02  3.52014e-01        00000 
 3.12897e-02  3.36938e-01        00000 
 4.59717e-02  3.20819e-01        00000 
 6.26077e-02  3.04665e-01        00000 
 7.58050e-02  2.91306e-01        00000 
 8.33825e-02  2.71785e-01        00000 
 8.59898e-02  2.45093e-01        00000 
 7.77938e-02  2.06394e-01        00000 
 6.18616e-02  1.54225e-01        00000 
 3.72119e-02  1.05623e-01        00000 
 2.55157e-02  6.93533e-02        00000 
 2.71769e-02  5.89529e-02        00000 
 3.12128e-02  5.36475e-02        00000 
 3.66753e-02  5.26609e-02        00000 
 3.48889e-02  4.23121e-02        00000 
 2.99799e-02  3.50671e-02        00000 
 2.20400e-02  2.43838e-02        00000 
 1.04312e-02  1.30995e-02        00000 
-1.54408e-03 -4.33567e-03        00000 
-3.14093e-04  3.10099e-01        00000 
 1.59333e-02  2.98943e-01        00000 
 2.89417e-02  2.84634e-01        00000 
 4.48678e-02  2.68580e-01        00000 
 5.85555e-02  2.53225e-01        00000 
 6.90497e-02  2.39051e-01        00000 
 7.45329e-02  2.22046e-01        00000 
 7.50858e-02  1.95497e-01        00000 
 7.04569e-02  1.69406e-01        00000 
 5.37971e-02  1.29832e-01        00000 
 3.62570e-02  9.88574e-02        00000 
 2.58230e-02  7.41778e-02        00000 
 2.99177e-02  6.33373e-02        00000 
 3.25245e-02  5.85300e-02        00000 
 3.46845e-02  5.32829e-02        00000 
 3.24101e-02  4.14631e-02        00000 
 2.65404e-02  3.33487e-02        00000 
 2.08203e-02  2.34032e-02        00000 
 9.98276e-03  1.11867e-02        00000 
-1.98933e-03 -3.61687e-03        00000 
-5.31961e-04  2.59808e-01        00000 
 1.40553e-02  2.43127e-01        00000 
 2.90187e-02  2.33465e-01        00000 
 4.15866e-02  2.14827e-01        00000 
 5.17598e-02  2.03038e-01        00000 
 5.94128e-02  1.91906e-01        00000 
 6.51489e-02  1.77462e-01        00000 
 6.50243e-02  1.59571e-01        00000 
 6.23525e-02  1.38047e-01        00000 
 5.07223e-02  1.17064e-01        00000 
 3.50953e-02  9.29820e-02        00000 
 3.28673e-02  7.85837e-02        00000 
 3.11362e-02  6.64697e-02        00000 
 2.90818e-02  5.65704e-02        00000 
 2.83114e-02  4.87131e-02        00000 
 2.74916e-02  4.05949e-02        00000 
 2.40701e-02  3.17627e-02        00000 
 1.96020e-02  2.17646e-02        00000 
 8.86271e-03  9.09103e-03        00000 
-4.31604e-04 -2.38770e-03        00000 
 1.04137e-04  2.10712e-01        00000 
 1.33947e-02  1.89627e-01        00000 
 2.69665e-02  1.85724e-01        00000 
 3.40780e-02  1.66664e-01        00000 
 4.59778e-02  1.61208e-01        00000 
 5.03522e-02  1.47459e-01        00000 
 5.33418e-02  1.37922e-01        00000 
 5.30407e-02  1.23155e-01        00000 
 5.00670e-02  1.07948e-01        00000 
 4.09927e-02  9.36065e-02        00000 
 3.18045e-02  8.23677e-02        00000 
 3.11327e-02  7.47835e-02        00000 
 2.58601e-02  6.17132e-02        00000 
 2.44230e-02  5.08697e-02        00000 
 2.29950e-02  4.26998e-02        00000 
 2.30399e-02  3.62446e-02        00000 
 2.09083e-02  2.79586e-02        00000 
 1.67179e-02  1.82509e-02        00000 
 6.81824e-03  7.20960e-03        00000 
-4.15324e-04 -2.08648e-03        00000 
-1.91521e-03  1.53204e-01        00000 
 9.89589e-03  1.42802e-01        00000 
 2.13318e-02  1.31064e-01        00000 
 2.82515e-02  1.21647e-01        00000 
 3.65706e-02  1.12485e-01        00000 
 3.77691e-02  1.06362e-01        00000 
 3.79360e-02  9.92751e-02        00000 
 3.92117e-02  9.01889e-02        00000 
 3.73660e-02  7.94071e-02        00000 
 3.25790e-02  7.10200e-02        00000 
 2.62761e-02  6.33601e-02        00000 
 2.20819e-02  5.59605e-02        00000 
 2.08378e-02  5.07230e-02        00000 
 2.08128e-02  4.31013e-02        00000 
 2.00040e-02  3.07674e-02        00000 
 1.63451e-02  2.81000e-02        00000 
 1.26761e-02  1.98005e-02        00000 
 1.11741e-02  1.32542e-02        00000 
 5.34963e-03  7.82973e-03        00000 
-1.54797e-03 -2.14557e-03        00000 
-4.23469e-04  1.03372e-01        00000 
 8.82422e-03  1.00166e-01        00000 
 1.58674e-02  8.68926e-02        00000 
 2.18569e-02  7.67530e-02        00000 
 2.49284e-02  7.50763e-02        00000 
 2.77100e-02  6.95888e-02        00000 
 2.68200e-02  6.43596e-02        00000 
 2.58256e-02  5.97479e-02        00000 
 2.55566e-02  5.75460e-02        00000 
 2.31416e-02  5.35920e-02        00000 
 1.77321e-02  4.62363e-02        00000 
 1.57404e-02  3.97596e-02        00000 
 1.63297e-02  3.48350e-02        00000 
 1.41711e-02  2.63289e-02        00000 
 1.46218e-02  2.33952e-02        00000 
 1.14998e-02  2.05285e-02        00000 
 1.07762e-02  1.44921e-02        00000 
 9.77227e-03  8.15189e-03        00000 
 8.51606e-03  7.19338e-03        00000 
-2.54183e-03 -3.95756e-03        00000 
-4.48479e-04  4.81669e-02        00000 
 5.59382e-03  4.53417e-02        00000 
 8.85484e-03  3.93545e-02        00000 
 1.08010e-02  3.67985e-02        00000 
 9.51111e-03  3.38679e-02        00000 
 1.31986e-02  3.32043e-02        00000 
 1.26132e-02  3.16739e-02        00000 
 1.34032e-02  2.95615e-02        00000 
 1.36752e-02  2.69078e-02        00000 
 9.86062e-03  2.60458e-02        00000 
 9.82045e-03  2.72957e-02        00000 
 1.33081e-02  2.26591e-02        00000 
 1.42429e-02  1.82791e-02        00000 
 9.95043e-03  1.70035e-02        00000 
 6.43689e-03  1.47869e-02        00000 
 5.52124e-03  9.32153e-03        00000 
 6.48151e-03  6.95285e-03        00000 
 6.83938e-03  3.31364e-03        00000 
 3.60540e-03  1.20885e-03        00000 
 3.99723e-04 -1.23867e-03        00000 
-4.04209e-04  3.65471e-03        00000 
-1.35870e-03  3.06447e-03        00000 
-1.29717e-03  3.49158e-03        00000 
-2.47135e-03  1.17614e-03        00000 
-1.62494e-03 -1.47512e-04        00000 
-1.85595e-03 -3.78679e-04        00000 
-3.38735e-03  3.59550e-04        00000 
-1.63765e-03  2.39042e-03        00000 
 2.49336e-05  2.63968e-03        00000 
-7.56400e-04 -4.38120e-04        00000 
-2.53013e-03 -3.39330e-03        00000 
-1.02959e-03 -3.65263e-03        00000 
-2.78084e-03 -3.47930e-03        00000 
-1.04032e-03 -1.51232e-03        00000 
-1.16787e-03 -8.53065e-04        00000 
-1.01465e-03 -1.24071e-03        00000 
-1.04523e-04 -1.80144e-03        00000 
 1.00190e-03 -1.01251e-03        00000 
 5.89312e-04 -1.14885e-03        00000 
-2.64190e-03 -7.77899e-04        00000 
 2.55549e-03  9.53046e-01        00000 
 4.17428e-03  9.01870e-01        00000 
 6.80054e-03  8.48332e-01        00000 
 6.91226e-03  7.97659e-01        00000 
 7.87411e-03  7.45784e-01        00000 
 7.96876e-03  6.96016e-01        00000 
 8.84731e-03  6.42390e-01        00000 
 1.21010e-02  5.89700e-01        00000 
 1.08988e-02  5.35896e-01        00000 
 1.05663e-02  4.88243e-01        00000 
 9.61626e-03  4.38633e-01        00000 
 8.22743e-03  3.85764e-01        00000 
 5.17473e-03  3.32754e-01        00000 
 5.71119e-03  2.78712e-01        00000 
 6.17261e-03  2.28323e-01        00000 
 7.93196e-03  1.78838e-01        00000 
 5.83562e-03  1.27202e-01        00000 
 2.58835e-03  7.62578e-02        00000 
-4.58314e-04  2.27070e-02        00000 
 7.30652e-03  9.01630e-01        00000 
 1.42106e-02  8.58120e-01        00000 
 1.73045e-02  8.05174e-01        00000 
 2.18974e-02  7.56341e-01        00000 
 2.80319e-02  7.10826e-01        00000 
 3.01565e-02  6.59662e-01        00000 
 2.81923e-02  6.08985e-01        00000 
 2.62162e-02  5.58777e-01        00000 
 2.34968e-02  5.12643e-01        00000 
 2.12552e-02  4.64952e-01        00000 
 2.04198e-02  4.13005e-01        00000 
 1.94971e-02  3.62964e-01        00000 
 1.94424e-02  3.13698e-01        00000 
 1.93837e-02  2.63859e-01        00000 
 1.80960e-02  2.16293e-01        00000 
 1.62815e-02  1.67590e-01        00000 
 1.36612e-02  1.13164e-01        00000 
 9.40960e-03  6.53757e-02        00000 
 3.66524e-03  2.19595e-02        00000 
 7.94487e-03  8.51176e-01        00000 
 2.27432e-02  8.15584e-01        00000 
 3.08136e-02  7.65690e-01        00000 
 3.79857e-02  7.22646e-01        00000 
 4.36126e-02  6.77741e-01        00000 
 4.59910e-02  6.29548e-01        00000 
 4.37921e-02  5.79897e-01        00000 
 3.84302e-02  5.31954e-01        00000 
 3.49827e-02  4.85699e-01        00000 
 3.13998e-02  4.39899e-01        00000 
 2.77514e-02  3.91587e-01        00000 
 2.91799e-02  3.43000e-01        00000 
 2.98099e-02  2.94969e-01        00000 
 2.89778e-02  2.46725e-01        00000 
 2.79013e-02  2.02276e-01        00000 
 2.47935e-02  1.53026e-01        00000 
 2.15902e-02  1.06508e-01        00000 
 1.28870e-02  6.19303e-02        00000 
 8.23828e-03  1.77294e-02        00000 
 7.27402e-03  8.00953e-01        00000 
 2.71588e-02  7.69752e-01        00000 
 4.14809e-02  7.28082e-01        00000 
 5.08360e-02  6.86759e-01        00000 
 5.46753e-02  6.43921e-01        00000 
 5.68795e-02  6.00378e-01        00000 
 5.69298e-02  5.57860e-01        00000 
 5.35923e-02  5.09591e-01        00000 
 4.87509e-02  4.63774e-01        00000 
 4.55768e-02  4.20227e-01        00000 
 4.06044e-02  3.70075e-01        00000 
 3.66458e-02  3.22099e-01        00000 
 3.81196e-02  2.77644e-01        00000 
 3.72386e-02  2.30988e-01        00000 
 3.39084e-02  1.88059e-01        00000 
 3.09241e-02  1.45487e-01        00000 
 2.87332e-02  1.00023e-01        00000 
 2.02955e-02  5.85683e-02        00000 
 7.30723e-03  1.79150e-02        00000 
 1.00384e-02  7.51943e-01        00000 
 2.78054e-02  7.15565e-01        00000 
 4.53307e-02  6.85702e-01        00000 
 5.69929e-02  6.48633e-01        00000 
 6.52188e-02  6.12098e-01        00000 
 6.88193e-02  5.71693e-01        00000 
 6.95094e-02  5.35768e-01        00000 
 6.78913e-02  4.97767e-01        00000 
 5.97821e-02  4.50178e-01        00000 
 5.17909e-02  4.01112e-01        00000 
 4.82194e-02  3.51658e-01        00000 
 4.31831e-02  2.98642e-01        00000 
 4.42077e-02  2.57366e-01        00000 
 4.40887e-02  2.13572e-01        00000 
 3.95996e-02  1.69984e-01        00000 
 3.64033e-02  1.31560e-01        00000 
 3.31916e-02  8.96281e-02        00000 
 2.46599e-02  4.94649e-02        00000 
 6.12845e-03  1.89231e-02        00000 
 8.81261e-03  6.96384e-01        00000 
 3.17612e-02  6.67233e-01        00000 