<?xml version="1.0" encoding="utf-8"?>
<VTKFile byte_order="LittleEndian" type="UnstructuredGrid" version="0.1">
   <UnstructuredGrid>
      <Piece NumberOfCells="1444" NumberOfPoints="761">
         <Points>
            <DataArray Name="Points" NumberOfComponents="3" format="ascii" type="Float32">
-1.0000 -1.0000 0.0000
-1.0000 -0.8947 0.0000
-1.0000 -0.7895 0.0000
-1.0000 -0.6842 0.0000
-1.0000 -0.5789 0.0000
-1.0000 -0.4737 0.0000
-1.0000 -0.3684 0.0000
-1.0000 -0.2632 0.0000
-1.0000 -0.1579 0.0000
-1.0000 -0.0526 0.0000
-1.0000 0.0526 0.0000
-1.0000 0.1579 0.0000
-1.0000 0.2632 0.0000
-1.0000 0.3684 0.0000
-1.0000 0.4737 0.0000
-1.0000 0.5789 0.0000
-1.0000 0.6842 0.0000
-1.0000 0.7895 0.0000
-1.0000 0.8947 0.0000
-1.0000 1.0000 0.0000
-0.8947 -1.0000 0.0000
-0.8947 -0.8947 0.0000
-0.8947 -0.7895 0.0000
-0.8947 -0.6842 0.0000
-0.8947 -0.5789 0.0000
-0.8947 -0.4737 0.0000
-0.8947 -0.3684 0.0000
-0.8947 -0.2632 0.0000
-0.8947 -0.1579 0.0000
-0.8947 -0.0526 0.0000
-0.8947 0.0526 0.0000
-0.8947 0.1579 0.0000
-0.8947 0.2632 0.0000
-0.8947 0.3684 0.0000
-0.8947 0.4737 0.0000
-0.8947 0.5789 0.0000
-0.8947 0.6842 0.0000
-0.8947 0.7895 0.0000
-0.8947 0.8947 0.0000
-0.8947 1.0000 0.0000
-0.7895 -1.0000 0.0000
-0.7895 -0.8947 0.0000
-0.7895 -0.7895 0.0000
-0.7895 -0.6842 0.0000
-0.7895 -0.5789 0.0000
-0.7895 -0.4737 0.0000
-0.7895 -0.3684 0.0000
-0.7895 -0.2632 0.0000
-0.7895 -0.1579 0.0000
-0.7895 -0.0526 0.0000
-0.7895 0.0526 0.0000
-0.7895 0.1579 0.0000
-0.7895 0.2632 0.0000
-0.7895 0.3684 0.0000
-0.7895 0.4737 0.0000
-0.7895 0.5789 0.0000
-0.7895 0.6842 0.0000
-0.7895 0.7895 0.0000
-0.7895 0.8947 0.0000
-0.7895 1.0000 0.0000
-0.6842 -1.0000 0.0000
-0.6842 -0.8947 0.0000
-0.6842 -0.7895 0.0000
-0.6842 -0.6842 0.0000
-0.6842 -0.5789 0.0000
-0.6842 -0.4737 0.0000
-0.6842 -0.3684 0.0000
-0.6842 -0.2632 0.0000
-0.6842 -0.1579 0.0000
-0.6842 -0.0526 0.0000
-0.6842 0.0526 0.0000
-0.6842 0.1579 0.0000
-0.6842 0.2632 0.0000
-0.6842 0.3684 0.0000
-0.6842 0.4737 0.0000
-0.6842 0.5789 0.0000
-0.6842 0.6842 0.0000
-0.6842 0.7895 0.0000
-0.6842 0.8947 0.0000
-0.6842 1.0000 0.0000
-0.5789 -1.0000 0.0000
-0.5789 -0.8947 0.0000
-0.5789 -0.7895 0.0000
-0.5789 -0.6842 0.0000
-0.5789 -0.5789 0.0000
-0.5789 -0.4737 0.0000
-0.5789 -0.3684 0.0000
-0.5789 -0.2632 0.0000
-0.5789 -0.1579 0.0000
-0.5789 -0.0526 0.0000
-0.5789 0.0526 0.0000
-0.5789 0.1579 0.0000
-0.5789 0.2632 0.0000
-0.5789 0.3684 0.0000
-0.5789 0.4737 0.0000
-0.5789 0.5789 0.0000
-0.5789 0.6842 0.0000
-0.5789 0.7895 0.0000
-0.5789 0.8947 0.0000
-0.5789 1.0000 0.0000
-0.4737 -1.0000 0.0000
-0.4737 -0.8947 0.0000
-0.4737 -0.7895 0.0000
-0.4737 -0.6842 0.0000
-0.4737 -0.5789 0.0000
-0.4737 -0.4737 0.0000
-0.4737 -0.3684 0.0000
-0.4737 -0.2632 0.0000
-0.4737 -0.1579 0.0000
-0.4737 -0.0526 0.0000
-0.4737 0.0526 0.0000
-0.4737 0.1579 0.0000
-0.4737 0.2632 0.0000
-0.4737 0.3684 0.0000
-0.4737 0.4737 0.0000
-0.4737 0.5789 0.0000
-0.4737 0.6842 0.0000
-0.4737 0.7895 0.0000
-0.4737 0.8947 0.0000
-0.4737 1.0000 0.0000
-0.3684 -1.0000 0.0000
-0.3684 -0.8947 0.0000
-0.3684 -0.7895 0.0000
-0.3684 -0.6842 0.0000
-0.3684 -0.5789 0.0000
-0.3684 -0.4737 0.0000
-0.3684 -0.3684 0.0000
-0.3684 -0.2632 0.0000
-0.3684 -0.1579 0.0000
-0.3684 -0.0526 0.0000
-0.3684 0.0526 0.0000
-0.3684 0.1579 0.0000
-0.3684 0.2632 0.0000
-0.3684 0.3684 0.0000
-0.3684 0.4737 0.0000
-0.3684 0.5789 0.0000
-0.3684 0.6842 0.0000
-0.3684 0.7895 0.0000
-0.3684 0.8947 0.0000
-0.3684 1.0000 0.0000
-0.2632 -1.0000 0.0000
-0.2632 -0.8947 0.0000
-0.2632 -0.7895 0.0000
-0.2632 -0.6842 0.0000
-0.2632 -0.5789 0.0000
-0.2632 -0.4737 0.0000
-0.2632 -0.3684 0.0000
-0.2632 -0.2632 0.0000
-0.2632 -0.1579 0.0000
-0.2632 -0.0526 0.0000
-0.2632 0.0526 0.0000
-0.2632 0.1579 0.0000
-0.2632 0.2632 0.0000
-0.2632 0.3684 0.0000
-0.2632 0.4737 0.0000
-0.2632 0.5789 0.0000
-0.2632 0.6842 0.0000
-0.2632 0.7895 0.0000
-0.2632 0.8947 0.0000
-0.2632 1.0000 0.0000
-0.1579 -1.0000 0.0000
-0.1579 -0.8947 0.0000
-0.1579 -0.7895 0.0000
-0.1579 -0.6842 0.0000
-0.1579 -0.5789 0.0000
-0.1579 -0.4737 0.0000
-0.1579 -0.3684 0.0000
-0.1579 -0.2632 0.0000
-0.1579 -0.1579 0.0000
-0.1579 -0.0526 0.0000
-0.1579 0.0526 0.0000
-0.1579 0.1579 0.0000
-0.1579 0.2632 0.0000
-0.1579 0.3684 0.0000
-0.1579 0.4737 0.0000
-0.1579 0.5789 0.0000
-0.1579 0.6842 0.0000
-0.1579 0.7895 0.0000
-0.1579 0.8947 0.0000
-0.1579 1.0000 0.0000
-0.0526 -1.0000 0.0000
-0.0526 -0.8947 0.0000
-0.0526 -0.7895 0.0000
-0.0526 -0.6842 0.0000
-0.0526 -0.5789 0.0000
-0.0526 -0.4737 0.0000
-0.0526 -0.3684 0.0000
-0.0526 -0.2632 0.0000
-0.0526 -0.1579 0.0000
-0.0526 -0.0526 0.0000
-0.0526 0.0526 0.0000
-0.0526 0.1579 0.0000
-0.0526 0.2632 0.0000
-0.0526 0.3684 0.0000
-0.0526 0.4737 0.0000
-0.0526 0.5789 0.0000
-0.0526 0.6842 0.0000
-0.0526 0.7895 0.0000
-0.0526 0.8947 0.0000
-0.0526 1.0000 0.0000
0.0526 -1.0000 0.0000
0.0526 -0.8947 0.0000
0.0526 -0.7895 0.0000
0.0526 -0.6842 0.0000
0.0526 -0.5789 0.0000
0.0526 -0.4737 0.0000
0.0526 -0.3684 0.0000
0.0526 -0.2632 0.0000
0.0526 -0.1579 0.0000
0.0526 -0.0526 0.0000
0.0526 0.0526 0.0000
0.0526 0.1579 0.0000
0.0526 0.2632 0.0000
0.0526 0.3684 0.0000
0.0526 0.4737 0.0000
0.0526 0.5789 0.0000
0.0526 0.6842 0.0000
0.0526 0.7895 0.0000
0.0526 0.8947 0.0000
0.0526 1.0000 0.0000
0.1579 -1.0000 0.0000
0.1579 -0.8947 0.0000
0.1579 -0.7895 0.0000
0.1579 -0.6842 0.0000
0.1579 -0.5789 0.0000
0.1579 -0.4737 0.0000
0.1579 -0.3684 0.0000
0.1579 -0.2632 0.0000
0.1579 -0.1579 0.0000
0.1579 -0.0526 0.0000
0.1579 0.0526 0.0000
0.1579 0.1579 0.0000
0.1579 0.2632 0.0000
0.1579 0.3684 0.0000
0.1579 0.4737 0.0000
0.1579 0.5789 0.0000
0.1579 0.6842 0.0000
0.1579 0.7895 0.0000
0.1579 0.8947 0.0000
0.1579 1.0000 0.0000
0.2632 -1.0000 0.0000
0.2632 -0.8947 0.0000
0.2632 -0.7895 0.0000
0.2632 -0.6842 0.0000
0.2632 -0.5789 0.0000
0.2632 -0.4737 0.0000
0.2632 -0.3684 0.0000
0.2632 -0.2632 0.0000
0.2632 -0.1579 0.0000
0.2632 -0.0526 0.0000
0.2632 0.0526 0.0000
0.2632 0.1579 0.0000
0.2632 0.2632 0.0000
0.2632 0.3684 0.0000
0.2632 0.4737 0.0000
0.2632 0.5789 0.0000
0.2632 0.6842 0.0000
0.2632 0.7895 0.0000
0.2632 0.8947 0.0000
0.2632 1.0000 0.0000
0.3684 -1.0000 0.0000
0.3684 -0.8947 0.0000
0.3684 -0.7895 0.0000
0.3684 -0.6842 0.0000
0.3684 -0.5789 0.0000
0.3684 -0.4737 0.0000
0.3684 -0.3684 0.0000
0.3684 -0.2632 0.0000
0.3684 -0.1579 0.0000
0.3684 -0.0526 0.0000
0.3684 0.0526 0.0000
0.3684 0.1579 0.0000
0.3684 0.2632 0.0000
0.3684 0.3684 0.0000
0.3684 0.4737 0.0000
0.3684 0.5789 0.0000
0.3684 0.6842 0.0000
0.3684 0.7895 0.0000
0.3684 0.8947 0.0000
0.3684 1.0000 0.0000
0.4737 -1.0000 0.0000
0.4737 -0.8947 0.0000
0.4737 -0.7895 0.0000
0.4737 -0.6842 0.0000
0.4737 -0.5789 0.0000
0.4737 -0.4737 0.0000
0.4737 -0.3684 0.0000
0.4737 -0.2632 0.0000
0.4737 -0.1579 0.0000
0.4737 -0.0526 0.0000
0.4737 0.0526 0.0000
0.4737 0.1579 0.0000
0.4737 0.2632 0.0000
0.4737 0.3684 0.0000
0.4737 0.4737 0.0000
0.4737 0.5789 0.0000
0.4737 0.6842 0.0000
0.4737 0.7895 0.0000
0.4737 0.8947 0.0000
0.4737 1.0000 0.0000
0.5789 -1.0000 0.0000
0.5789 -0.8947 0.0000
0.5789 -0.7895 0.0000
0.5789 -0.6842 0.0000
0.5789 -0.5789 0.0000
0.5789 -0.4737 0.0000
0.5789 -0.3684 0.0000
0.5789 -0.2632 0.0000
0.5789 -0.1579 0.0000
0.5789 -0.0526 0.0000
0.5789 0.0526 0.0000
0.5789 0.1579 0.0000
0.5789 0.2632 0.0000
0.5789 0.3684 0.0000
0.5789 0.4737 0.0000
0.5789 0.5789 0.0000
0.5789 0.6842 0.0000
0.5789 0.7895 0.0000
0.5789 0.8947 0.0000
0.5789 1.0000 0.0000
0.6842 -1.0000 0.0000
0.6842 -0.8947 0.0000
0.6842 -0.7895 0.0000
0.6842 -0.6842 0.0000
0.6842 -0.5789 0.0000
0.6842 -0.4737 0.0000
0.6842 -0.3684 0.0000
0.6842 -0.2632 0.0000
0.6842 -0.1579 0.0000
0.6842 -0.0526 0.0000
0.6842 0.0526 0.0000
0.6842 0.1579 0.0000
0.6842 0.2632 0.0000
0.6842 0.3684 0.0000
0.6842 0.4737 0.0000
0.6842 0.5789 0.0000
0.6842 0.6842 0.0000
0.6842 0.7895 0.0000
0.6842 0.8947 0.0000
0.6842 1.0000 0.0000
0.7895 -1.0000 0.0000
0.7895 -0.8947 0.0000
0.7895 -0.7895 0.0000
0.7895 -0.6842 0.0000
0.7895 -0.5789 0.0000
0.7895 -0.4737 0.0000
0.7895 -0.3684 0.0000
0.7895 -0.2632 0.0000
0.7895 -0.1579 0.0000
0.7895 -0.0526 0.0000
0.7895 0.0526 0.0000
0.7895 0.1579 0.0000
0.7895 0.2632 0.0000
0.7895 0.3684 0.0000
0.7895 0.4737 0.0000
0.7895 0.5789 0.0000
0.7895 0.6842 0.0000
0.7895 0.7895 0.0000
0.7895 0.8947 0.0000
0.7895 1.0000 0.0000
0.8947 -1.0000 0.0000
0.8947 -0.8947 0.0000
0.8947 -0.7895 0.0000
0.8947 -0.6842 0.0000
0.8947 -0.5789 0.0000
0.8947 -0.4737 0.0000
0.8947 -0.3684 0.0000
0.8947 -0.2632 0.0000
0.8947 -0.1579 0.0000
0.8947 -0.0526 0.0000
0.8947 0.0526 0.0000
0.8947 0.1579 0.0000
0.8947 0.2632 0.0000
0.8947 0.3684 0.0000
0.8947 0.4737 0.0000
0.8947 0.5789 0.0000
0.8947 0.6842 0.0000
0.8947 0.7895 0.0000
0.8947 0.8947 0.0000
0.8947 1.0000 0.0000
1.0000 -1.0000 0.0000
1.0000 -0.8947 0.0000
1.0000 -0.7895 0.0000
1.0000 -0.6842 0.0000
1.0000 -0.5789 0.0000
1.0000 -0.4737 0.0000
1.0000 -0.3684 0.0000
1.0000 -0.2632 0.0000
1.0000 -0.1579 0.0000
1.0000 -0.0526 0.0000
1.0000 0.0526 0.0000
1.0000 0.1579 0.0000
1.0000 0.2632 0.0000
1.0000 0.3684 0.0000
1.0000 0.4737 0.0000
1.0000 0.5789 0.0000
1.0000 0.6842 0.0000
1.0000 0.7895 0.0000
1.0000 0.8947 0.0000
1.0000 1.0000 0.0000
-0.9474 -0.9474 0.0000
-0.9474 -0.8421 0.0000
-0.9474 -0.7368 0.0000
-0.9474 -0.6316 0.0000
-0.9474 -0.5263 0.0000
-0.9474 -0.4211 0.0000
-0.9474 -0.3158 0.0000
-0.9474 -0.2105 0.0000
-0.9474 -0.1053 0.0000
-0.9474 0.0000 0.0000
-0.9474 0.1053 0.0000
-0.9474 0.2105 0.0000
-0.9474 0.3158 0.0000
-0.9474 0.4211 0.0000
-0.9474 0.5263 0.0000
-0.9474 0.6316 0.0000
-0.9474 0.7368 0.0000
-0.9474 0.8421 0.0000
-0.9474 0.9474 0.0000
-0.8421 -0.9474 0.0000
-0.8421 -0.8421 0.0000
-0.8421 -0.7368 0.0000
-0.8421 -0.6316 0.0000
-0.8421 -0.5263 0.0000
-0.8421 -0.4211 0.0000
-0.8421 -0.3158 0.0000
-0.8421 -0.2105 0.0000
-0.8421 -0.1053 0.0000
-0.8421 0.0000 0.0000
-0.8421 0.1053 0.0000
-0.8421 0.2105 0.0000
-0.8421 0.3158 0.0000
-0.8421 0.4211 0.0000
-0.8421 0.5263 0.0000
-0.8421 0.6316 0.0000
-0.8421 0.7368 0.0000
-0.8421 0.8421 0.0000
-0.8421 0.9474 0.0000
-0.7368 -0.9474 0.0000
-0.7368 -0.8421 0.0000
[...]
         <PointData>
            <DataArray Name="fValues" NumberOfComponents="3" format="ascii" type="Float64">
 1.50383e-05  9.99901e-01        00000 
 1.28125e-05  9.47276e-01        00000 
 1.05867e-05  8.94651e-01        00000 
 8.36092e-06  8.42026e-01        00000 
 6.13513e-06  7.89401e-01        00000 
 3.90934e-06  7.36776e-01        00000 
 1.68356e-06  6.84151e-01        00000 
-5.42227e-07  6.31526e-01        00000 
-2.76801e-06  5.78901e-01        00000 
-4.99380e-06  5.26275e-01        00000 
-7.21958e-06  4.73650e-01        00000 
-9.44537e-06  4.21025e-01        00000 
-1.16712e-05  3.68400e-01        00000 
-1.38969e-05  3.15775e-01        00000 
-1.61227e-05  2.63150e-01        00000 
-1.83485e-05  2.10525e-01        00000 
-2.05743e-05  1.57900e-01        00000 
-2.28001e-05  1.05275e-01        00000 
-2.50259e-05  5.26494e-02        00000 
-2.72517e-05  2.43168e-05        00000 
 1.34553e-05  9.47276e-01        00000 
 8.72257e-03  9.02879e-01        00000 
 1.29483e-02  8.54932e-01        00000 
 1.57216e-02  8.05392e-01        00000 
 1.74774e-02  7.54870e-01        00000 
 1.83380e-02  7.03654e-01        00000 
 1.83113e-02  6.52032e-01        00000 
 1.74594e-02  6.00347e-01        00000 
 1.59831e-02  5.49058e-01        00000 
 1.42901e-02  4.98384e-01        00000 
 1.28612e-02  4.48236e-01        00000 
 1.20127e-02  3.98496e-01        00000 
 1.17155e-02  3.48698e-01        00000 
 1.17505e-02  2.98587e-01        00000 
 1.18308e-02  2.48129e-01        00000 
 1.15861e-02  1.97409e-01        00000 
 1.07662e-02  1.46682e-01        00000 
 9.10265e-03  9.63016e-02        00000 
 6.20891e-03  4.68956e-02        00000 
-2.43831e-05  2.24000e-05        00000 
 1.18723e-05  8.94650e-01        00000 
 1.43867e-02  8.54779e-01        00000 
 2.35684e-02  8.11923e-01        00000 
 2.96655e-02  7.66564e-01        00000 
 3.36993e-02  7.19359e-01        00000 
 3.58612e-02  6.70704e-01        00000 
 3.60826e-02  6.20889e-01        00000 
 3.42798e-02  5.70755e-01        00000 
 3.09229e-02  5.21116e-01        00000 
 2.70528e-02  4.72339e-01        00000 
 2.38238e-02  4.24464e-01        00000 
 2.20104e-02  3.77133e-01        00000 
 2.16111e-02  3.29768e-01        00000 
 2.19290e-02  2.81851e-01        00000 
 2.23922e-02  2.33675e-01        00000 
 2.19856e-02  1.85223e-01        00000 
 2.02673e-02  1.37007e-01        00000 
 1.67029e-02  8.95718e-02        00000 
 1.04105e-02  4.37026e-02        00000 
-2.15145e-05  2.04831e-05        00000 
 1.02893e-05  8.42024e-01        00000 
 1.86322e-02  8.06169e-01        00000 
 3.19339e-02  7.67850e-01        00000 
 4.15285e-02  7.27117e-01        00000 
 4.82758e-02  6.84074e-01        00000 
 5.24036e-02  6.38621e-01        00000 
 5.32327e-02  5.91658e-01        00000 
 5.06179e-02  5.43438e-01        00000 
 4.49990e-02  4.95197e-01        00000 
 3.82813e-02  4.48066e-01        00000 
 3.27761e-02  4.02040e-01        00000 
 2.99659e-02  3.56880e-01        00000 
 2.98024e-02  3.11570e-01        00000 
 3.08470e-02  2.65662e-01        00000 
 3.18192e-02  2.19617e-01        00000 
 3.12099e-02  1.73403e-01        00000 
 2.84970e-02  1.27914e-01        00000 
 2.29812e-02  8.35591e-02        00000 
 1.38100e-02  4.08028e-02        00000 
-1.86459e-05  1.85663e-05        00000 
 8.70637e-06  7.89398e-01        00000 
 2.17440e-02  7.57501e-01        00000 
 3.82760e-02  7.23810e-01        00000 
 5.10959e-02  6.88069e-01        00000 
 6.08937e-02  6.49956e-01        00000 
 6.75297e-02  6.09215e-01        00000 
 6.99754e-02  5.65421e-01        00000 
 6.69281e-02  5.19654e-01        00000 
 5.88022e-02  4.72680e-01        00000 
 4.81582e-02  4.26104e-01        00000 
 3.95878e-02  3.81407e-01        00000 
 3.59271e-02  3.37236e-01        00000 
 3.64293e-02  2.93032e-01        00000 
 3.86408e-02  2.48662e-01        00000 
 4.01833e-02  2.04477e-01        00000 
 3.93918e-02  1.60911e-01        00000 
 3.56027e-02  1.18395e-01        00000 
 2.82993e-02  7.73081e-02        00000 
 1.67111e-02  3.77913e-02        00000 
-1.57773e-05  1.66494e-05        00000 
 7.12339e-06  7.36773e-01        00000 
 2.36385e-02  7.08855e-01        00000 
 4.24446e-02  6.79981e-01        00000 
 5.79048e-02  6.49690e-01        00000 
 7.08178e-02  6.17657e-01        00000 
 8.07601e-02  5.83002e-01        00000 
 8.61006e-02  5.44648e-01        00000 
 8.41551e-02  5.01704e-01        00000 
 7.32974e-02  4.54705e-01        00000 
 5.71348e-02  4.08078e-01        00000 
 4.43821e-02  3.61708e-01        00000 
 4.02313e-02  3.17644e-01        00000 
 4.21954e-02  2.72485e-01        00000 
 4.56954e-02  2.28835e-01        00000 
 4.76518e-02  1.86842e-01        00000 
 4.64567e-02  1.46480e-01        00000 
 4.15961e-02  1.07694e-01        00000 
 3.26689e-02  7.03069e-02        00000 
 1.91023e-02  3.44456e-02        00000 
-1.29087e-05  1.47325e-05        00000 
 5.54042e-06  6.84147e-01        00000 
 2.41823e-02  6.60049e-01        00000 
 4.41581e-02  6.35985e-01        00000 
 6.14495e-02  6.11599e-01        00000 
 7.69160e-02  5.86435e-01        00000 
 9.06929e-02  5.59760e-01        00000 
 1.00513e-01  5.28899e-01        00000 
 1.01585e-01  4.94808e-01        00000 
 8.91066e-02  4.56314e-01        00000 
 6.88904e-02  4.05530e-01        00000 
 5.19512e-02  3.47489e-01        00000 
 4.48229e-02  2.89609e-01        00000 
 4.69862e-02  2.44524e-01        00000 
 5.20712e-02  2.03851e-01        00000 
 5.39135e-02  1.64882e-01        00000 
 5.20360e-02  1.29128e-01        00000 
 4.60478e-02  9.49987e-02        00000 
 3.58352e-02  6.23526e-02        00000 
 2.08117e-02  3.06848e-02        00000 
-1.00401e-05  1.28157e-05        00000 
 3.95744e-06  6.31521e-01        00000 
 2.33933e-02  6.10717e-01        00000 
 4.33523e-02  5.90828e-01        00000 
 6.13921e-02  5.71914e-01        00000 
 7.85142e-02  5.53999e-01        00000 
 9.53303e-02  5.36551e-01        00000 
 1.10259e-01  5.19305e-01        00000 
 1.15348e-01  5.02750e-01        00000 
 1.01192e-01  4.77616e-01        00000 
 8.49673e-02  4.07281e-01        00000 
 5.55716e-02  2.97467e-01        00000 
 4.91161e-02  2.42803e-01        00000 
 4.70758e-02  1.97252e-01        00000 
 5.52536e-02  1.66982e-01        00000 
 5.76463e-02  1.37149e-01        00000 
 5.50504e-02  1.08236e-01        00000 
 4.83050e-02  8.05860e-02        00000 
 3.73605e-02  5.34642e-02        00000 
 2.15993e-02  2.65880e-02        00000 
-7.17149e-06  1.08988e-05        00000 
 2.37446e-06  5.78895e-01        00000 
 2.15604e-02  5.60489e-01        00000 
 4.05560e-02  5.43667e-01        00000 
 5.79530e-02  5.28603e-01        00000 
 7.51488e-02  5.16156e-01        00000 
 9.28543e-02  5.06600e-01        00000 
 1.13918e-01  5.02659e-01        00000 
 1.25701e-01  4.95629e-01        00000 
 1.07685e-01  4.41385e-01        00000 
 9.22789e-02  3.64157e-01        00000 
 7.10326e-02  2.80165e-01        00000 
 4.34033e-02  1.91813e-01        00000 
 3.79122e-02  1.35511e-01        00000 
 5.16253e-02  1.20822e-01        00000 
 5.69651e-02  1.05792e-01        00000 
 5.45356e-02  8.58847e-02        00000 
 4.78191e-02  6.55082e-02        00000 
 3.68937e-02  4.42347e-02        00000 
 2.12938e-02  2.24183e-02        00000 
-4.30289e-06  8.98198e-06        00000 
 7.91488e-07  5.26270e-01        00000 
 1.92349e-02  5.09165e-01        00000 
 3.66669e-02  4.93780e-01        00000 
 5.26528e-02  4.80295e-01        00000 
 6.84363e-02  4.69757e-01        00000 
 8.49435e-02  4.62919e-01        00000 
 1.12416e-01  4.63330e-01        00000 
 1.37121e-01  4.60523e-01        00000 
 1.16454e-01  3.86216e-01        00000 
 8.94341e-02  3.02580e-01        00000 
 7.26987e-02  2.40683e-01        00000 
 4.16561e-02  1.57986e-01        00000 
 2.96078e-02  9.86596e-02        00000 
 4.26457e-02  8.02710e-02        00000 
 5.11089e-02  7.63699e-02        00000 
 5.01284e-02  6.52301e-02        00000 
 4.45230e-02  5.15821e-02        00000 
 3.44990e-02  3.57708e-02        00000 
 1.99137e-02  1.85527e-02        00000 
-1.43430e-06  7.06512e-06        00000 
-7.91488e-07  4.73644e-01        00000 
 1.70436e-02  4.56874e-01        00000 
 3.28352e-02  4.41459e-01        00000 
 4.73097e-02  4.27387e-01        00000 
 6.14823e-02  4.15145e-01        00000 
 7.62357e-02  4.04581e-01        00000 
 1.04257e-01  4.00124e-01        00000 
 1.31474e-01  3.84142e-01        00000 
 1.17225e-01  3.32679e-01        00000 
 8.35605e-02  2.58209e-01        00000 
 6.72179e-02  2.00862e-01        00000 
 4.32800e-02  1.24903e-01        00000 
 2.48398e-02  6.00376e-02        00000 
 3.44629e-02  5.62336e-02        00000 
 4.23555e-02  5.61281e-02        00000 
 4.31713e-02  4.98462e-02        00000 
 3.91888e-02  4.06994e-02        00000 
 3.06743e-02  2.89406e-02        00000 
 1.77309e-02  1.53446e-02        00000 
 1.43430e-06  5.14826e-06        00000 
-2.37446e-06  4.21018e-01        00000 
 1.54324e-02  4.04053e-01        00000 
 2.98953e-02  3.87862e-01        00000 
 4.32814e-02  3.72185e-01        00000 
 5.63579e-02  3.56892e-01        00000 
 7.01801e-02  3.40867e-01        00000 
 9.08769e-02  3.27605e-01        00000 
 1.12641e-01  3.15453e-01        00000 
 1.01056e-01  2.72191e-01        00000 
 7.26651e-02  2.07450e-01        00000 
 5.54007e-02  1.46743e-01        00000 
 3.94079e-02  9.17705e-02        00000 
 2.52592e-02  5.33903e-02        00000 
 2.85951e-02  4.88920e-02        00000 
 3.42697e-02  4.67070e-02        00000 
 3.57674e-02  4.10353e-02        00000 
 3.31698e-02  3.36633e-02        00000 
 2.62556e-02  2.41861e-02        00000 
 1.51857e-02  1.29747e-02        00000 
 4.30289e-06  3.23141e-06        00000 
-3.95744e-06  3.68392e-01        00000 
 1.44960e-02  3.51243e-01        00000 
 2.79885e-02  3.34345e-01        00000 
 4.07208e-02  3.17573e-01        00000 
 5.31208e-02  3.00350e-01        00000 
 6.62402e-02  2.81862e-01        00000 
 8.05903e-02  2.62091e-01        00000 
 9.25111e-02  2.40864e-01        00000 
 8.18301e-02  2.07176e-01        00000 
 6.40375e-02  1.67933e-01        00000 
 4.43563e-02  1.09396e-01        00000 
 2.97662e-02  7.26969e-02        00000 
 2.43311e-02  5.91705e-02        00000 
 2.57585e-02  5.16369e-02        00000 
 2.85301e-02  4.44447e-02        00000 
 2.96663e-02  3.73841e-02        00000 
 2.76692e-02  2.98895e-02        00000 
 2.20436e-02  2.13151e-02        00000 
 1.27315e-02  1.13862e-02        00000 
 7.17149e-06  1.31455e-06        00000 
-5.54042e-06  3.15767e-01        00000 
 1.40012e-02  2.98861e-01        00000 
 2.67647e-02  2.82059e-01        00000 
 3.87038e-02  2.65306e-01        00000 
 5.02394e-02  2.48121e-01        00000 
 6.20089e-02  2.30356e-01        00000 
 7.33756e-02  2.11583e-01        00000 
 8.10342e-02  1.92206e-01        00000 
 7.68931e-02  1.68941e-01        00000 
 6.21105e-02  1.37871e-01        00000 
 4.50253e-02  1.08627e-01        00000 
 3.25601e-02  8.48653e-02        00000 
 2.65089e-02  6.84621e-02        00000 
 2.50806e-02  5.56437e-02        00000 
 2.52941e-02  4.49862e-02        00000 
 2.53573e-02  3.62959e-02        00000 
 2.33273e-02  2.80415e-02        00000 
 1.85097e-02  1.95670e-02        00000 
 1.06704e-02  1.03381e-02        00000 
 1.00401e-05 -6.02307e-07        00000 
-7.12339e-06  2.63141e-01        00000 
 1.35730e-02  2.47106e-01        00000 
 2.54846e-02  2.31374e-01        00000 
 3.62946e-02  2.15910e-01        00000 
 4.65807e-02  2.00660e-01        00000 
 5.64207e-02  1.85521e-01        00000 
 6.51274e-02  1.70630e-01        00000 
 7.03562e-02  1.55964e-01        00000 
 6.93024e-02  1.40851e-01        00000 
 6.05338e-02  1.24313e-01        00000 
 4.76818e-02  1.05302e-01        00000 
 3.60899e-02  8.66077e-02        00000 
 2.84176e-02  6.96771e-02        00000 
 2.48197e-02  5.58257e-02        00000 
 2.33920e-02  4.45853e-02        00000 
 2.22891e-02  3.51476e-02        00000 
 2.00526e-02  2.66434e-02        00000 
 1.57695e-02  1.82678e-02        00000 
 9.08548e-03  9.52211e-03        00000 
 1.29087e-05 -2.51916e-06        00000 
-8.70637e-06  2.10515e-01        00000 
 1.28443e-02  1.95978e-01        00000 
 2.34696e-02  1.82094e-01        00000 
 3.27301e-02  1.68949e-01        00000 
 4.11175e-02  1.56467e-01        00000 
 4.87850e-02  1.44699e-01        00000 
 5.51891e-02  1.33876e-01        00000 
 5.85327e-02  1.23471e-01        00000 
 5.76384e-02  1.13261e-01        00000 
 5.20276e-02  1.02279e-01        00000 
 4.34129e-02  9.00165e-02        00000 
 3.46910e-02  7.67167e-02        00000 
 2.80292e-02  6.36903e-02        00000 
 2.39343e-02  5.18772e-02        00000 
 2.15204e-02  4.15296e-02        00000 
 1.96913e-02  3.25926e-02        00000 
 1.73142e-02  2.45166e-02        00000 
 1.35550e-02  1.67211e-02        00000 
 7.86614e-03  8.65962e-03        00000 
 1.57773e-05 -4.43602e-06        00000 
-1.02893e-05  1.57889e-01        00000 
 1.15345e-02  1.45414e-01        00000 
 2.03073e-02  1.34044e-01        00000 
 2.74763e-02  1.23793e-01        00000 
 3.36991e-02  1.14548e-01        00000 
 3.91796e-02  1.06296e-01        00000 
 4.34426e-02  9.89536e-02        00000 
 4.56137e-02  9.22368e-02        00000 
 4.49808e-02  8.58122e-02        00000 
 4.14043e-02  7.88732e-02        00000 
 3.58687e-02  7.09038e-02        00000 
 2.99016e-02  6.19862e-02        00000 
 2.47989e-02  5.26338e-02        00000 
 2.11310e-02  4.36055e-02        00000 
 1.86733e-02  3.53580e-02        00000 
 1.66958e-02  2.79125e-02        00000 
 1.45159e-02  2.11115e-02        00000 
 1.14192e-02  1.44815e-02        00000 
 6.77308e-03  7.54578e-03        00000 
 1.86459e-05 -6.35288e-06        00000 
-1.18723e-05  1.05264e-01        00000 
 9.39553e-03  9.54267e-02        00000 
 1.56245e-02  8.71896e-02        00000 
 2.03390e-02  8.03176e-02        00000 
 2.43213e-02  7.44319e-02        00000 
 2.76917e-02  6.93866e-02        00000 
 3.02490e-02  6.51172e-02        00000 
 3.14982e-02  6.13988e-02        00000 
 3.10346e-02  5.77922e-02        00000 
 2.89649e-02  5.38627e-02        00000 
 2.57275e-02  4.92275e-02        00000 
 2.21110e-02  4.38274e-02        00000 
 1.88397e-02  3.79219e-02        00000 
 1.62228e-02  3.18973e-02        00000 
 1.42554e-02  2.61645e-02        00000 
 1.26640e-02  2.09147e-02        00000 
 1.10055e-02  1.60436e-02        00000 
 8.82529e-03  1.12485e-02        00000 
 5.48589e-03  6.02192e-03        00000 
 2.15145e-05 -8.26973e-06        00000 
-1.34553e-05  5.26379e-02        00000 
 5.99387e-03  4.62483e-02        00000 
 8.93784e-03  4.20730e-02        00000 
 1.11678e-02  3.87910e-02        00000 
 1.30178e-02  3.60722e-02        00000 
 1.45500e-02  3.38416e-02        00000 
 1.56719e-02  3.20588e-02        00000 
 1.61946e-02  3.05960e-02        00000 
 1.60027e-02  2.92249e-02        00000 
 1.51014e-02  2.76539e-02        00000 
 1.36762e-02  2.56486e-02        00000 
 1.20334e-02  2.31454e-02        00000 
 1.04649e-02  2.02649e-02        00000 
 9.14093e-03  1.72393e-02        00000 
 8.07896e-03  1.42979e-02        00000 
 7.17753e-03  1.15734e-02        00000 
 6.27272e-03  9.06344e-03        00000 
 5.15876e-03  6.62342e-03        00000 
 3.55199e-03  3.90656e-03        00000 
 2.43831e-05 -1.01866e-05        00000 
-1.50383e-05  1.21039e-05        00000 
-1.28125e-05  1.08294e-05        00000 
-1.05867e-05  9.55535e-06        00000 
-8.36092e-06  8.28131e-06        00000 
-6.13513e-06  7.00726e-06        00000 
-3.90934e-06  5.73321e-06        00000 
-1.68356e-06  4.45916e-06        00000 
 5.42227e-07  3.18512e-06        00000 
 2.76801e-06  1.91107e-06        00000 
 4.99380e-06  6.37024e-07        00000 
 7.21958e-06 -6.37024e-07        00000 
 9.44537e-06 -1.91107e-06        00000 
 1.16712e-05 -3.18512e-06        00000 
 1.38969e-05 -4.45916e-06        00000 
 1.61227e-05 -5.73321e-06        00000 
 1.83485e-05 -7.00726e-06        00000 
 2.05743e-05 -8.28131e-06        00000 
 2.28001e-05 -9.55535e-06        00000 
 2.50259e-05 -1.08294e-05        00000 
 2.72517e-05 -1.21034e-05        00000 
 3.21951e-03  9.50422e-01        00000 
 6.00836e-03  9.00463e-01        00000 
 7.55788e-03  8.49597e-01        00000 
 8.56626e-03  7.98142e-01        00000 
 9.13250e-03  7.46283e-01        00000 
 9.28908e-03  6.94150e-01        00000 
 9.06114e-03  6.41906e-01        00000 
 8.52545e-03  5.89780e-01        00000 
 7.81078e-03  5.37940e-01        00000 
 7.10244e-03  4.86462e-01        00000 
 6.57682e-03  4.35254e-01        00000 
 6.27888e-03  3.84114e-01        00000 
 6.17505e-03  3.32871e-01        00000 
 6.15862e-03  2.81421e-01        00000 
 6.08379e-03  2.29773e-01        00000 
 5.81557e-03  1.78027e-01        00000 
 5.23700e-03  1.26332e-01        00000 
 4.21833e-03  7.49189e-02        00000 
 2.25205e-03  2.41191e-02        00000 
 6.34943e-03  9.00604e-01        00000 
 1.55428e-02  8.56748e-01        00000 
 2.09985e-02  8.10119e-01        00000 
 2.45556e-02  7.61831e-01        00000 
 2.66634e-02  7.12311e-01        00000 
 2.73828e-02  6.61873e-01        00000 
 2.67283e-02  6.10883e-01        00000 
 2.48599e-02  5.60050e-01        00000 
 2.23007e-02  5.09952e-01        00000 
 1.97918e-02  4.60632e-01        00000 
 1.79785e-02  4.11961e-01        00000 
 1.71432e-02  3.63539e-01        00000 
 1.70693e-02  3.14866e-01        00000 
 1.72686e-02  2.65621e-01        00000 
 1.72308e-02  2.16086e-01        00000 
 1.64652e-02  1.66468e-01        00000 
 1.45779e-02  1.17153e-01        00000 
 1.10483e-02  6.86931e-02        00000 
 4.54227e-03  2.21354e-02        00000 
 8.76215e-03  8.49936e-01        00000 
 2.26975e-02  8.10695e-01        00000 
 3.22522e-02  7.68801e-01        00000 
 3.88117e-02  7.24619e-01        00000 
 4.29684e-02  6.78476e-01        00000 
 4.47519e-02  6.30543e-01        00000 
 4.37982e-02  5.81580e-01        00000 
 4.03876e-02  5.32362e-01        00000 
 3.55105e-02  4.83828e-01        00000 
 3.07131e-02  4.36434e-01        00000 
 2.74008e-02  3.89975e-01        00000 
 2.60955e-02  3.43835e-01        00000 
 2.63054e-02  2.97313e-01        00000 
 2.69682e-02  2.50168e-01        00000 
 2.71332e-02  2.02928e-01        00000 
 2.58302e-02  1.55761e-01        00000 
 2.24971e-02  1.09269e-01        00000 
 1.63653e-02  6.40492e-02        00000 
 6.40732e-03  2.07115e-02        00000 
 1.05936e-02  7.99162e-01        00000 
 2.82249e-02  7.64236e-01        00000 
 4.13325e-02  7.27115e-01        00000 
 5.10466e-02  6.87650e-01        00000 
 5.78665e-02  6.45788e-01        00000 
 6.11913e-02  6.01466e-01        00000 
 6.04743e-02  5.54907e-01        00000 
 5.54983e-02  5.07474e-01        00000 
 4.76375e-02  4.60014e-01        00000 
 3.98706e-02  4.14031e-01        00000 
 3.47000e-02  3.69311e-01        00000 
 3.31664e-02  3.24730e-01        00000 
 3.41305e-02  2.79949e-01        00000 
 3.56092e-02  2.34687e-01        00000 
 3.59824e-02  1.89573e-01        00000 
 3.40395e-02  1.45046e-01        00000 
 2.92529e-02  1.01569e-01        00000 
 2.08554e-02  5.95632e-02        00000 
 7.99789e-03  1.92950e-02        00000 
 1.18470e-02  7.48369e-01        00000 
 3.21282e-02  7.17821e-01        00000 
 4.81287e-02  6.85745e-01        00000 
 6.09408e-02  6.51739e-01        00000 
 7.07332e-02  6.15303e-01        00000 
 7.67790e-02  5.75967e-01        00000 
 7.71491e-02  5.33061e-01        00000 
 7.08480e-02  4.87048e-01        00000 
 5.93000e-02  4.39768e-01        00000 
 4.70659e-02  3.93934e-01        00000 
 3.98855e-02  3.49449e-01        00000 
 3.85597e-02  3.05112e-01        00000 
 4.08489e-02  2.60891e-01        00000 
 4.33173e-02  2.17232e-01        00000 
 4.38150e-02  1.74677e-01        00000 
 4.12286e-02  1.33231e-01        00000 
 3.50094e-02  9.32051e-02        00000 
 2.46521e-02  5.47153e-02        00000 
 9.36414e-03  1.77685e-02        00000 
 1.24358e-02  6.97524e-01        00000 
 3.42102e-02  6.71362e-01        00000 