<?xml version="1.0" encoding="utf-8"?>
<VTKFile byte_order="LittleEndian" type="UnstructuredGrid" version="0.1">
   <UnstructuredGrid>
      <Piece NumberOfCells="1444" NumberOfPoints="761">
         <Points>
            <DataArray Name="Points" NumberOfComponents="3" format="ascii" type="Float32">
-1.0000 -1.0000 0.0000
-1.0000 -0.8947 0.0000
-1.0000 -0.7895 0.0000
-1.0000 -0.6842 0.0000
-1.0000 -0.5789 0.0000
-1.0000 -0.4737 0.0000
-1.0000 -0.3684 0.0000
-1.0000 -0.2632 0.0000
-1.0000 -0.1579 0.0000
-1.0000 -0.0526 0.0000
-1.0000 0.0526 0.0000
-1.0000 0.1579 0.0000
-1.0000 0.2632 0.0000
-1.0000 0.3684 0.0000
-1.0000 0.4737 0.0000
-1.0000 0.5789 0.0000
-1.0000 0.6842 0.0000
-1.0000 0.7895 0.0000
-1.0000 0.8947 0.0000
-1.0000 1.0000 0.0000
-0.8947 -1.0000 0.0000
-0.8947 -0.8947 0.0000
-0.8947 -0.7895 0.0000
-0.8947 -0.6842 0.0000
-0.8947 -0.5789 0.0000
-0.8947 -0.4737 0.0000
-0.8947 -0.3684 0.0000
-0.8947 -0.2632 0.0000
-0.8947 -0.1579 0.0000
-0.8947 -0.0526 0.0000
-0.8947 0.0526 0.0000
-0.8947 0.1579 0.0000
-0.8947 0.2632 0.0000
-0.8947 0.3684 0.0000
-0.8947 0.4737 0.0000
-0.8947 0.5789 0.0000
-0.8947 0.6842 0.0000
-0.8947 0.7895 0.0000
-0.8947 0.8947 0.0000
-0.8947 1.0000 0.0000
-0.7895 -1.0000 0.0000
-0.7895 -0.8947 0.0000
-0.7895 -0.7895 0.0000
-0.7895 -0.6842 0.0000
-0.7895 -0.5789 0.0000
-0.7895 -0.4737 0.0000
-0.7895 -0.3684 0.0000
-0.7895 -0.2632 0.0000
-0.7895 -0.1579 0.0000
-0.7895 -0.0526 0.0000
-0.7895 0.0526 0.0000
-0.7895 0.1579 0.0000
-0.7895 0.2632 0.0000
-0.7895 0.3684 0.0000
-0.7895 0.4737 0.0000
-0.7895 0.5789 0.0000
-0.7895 0.6842 0.0000
-0.7895 0.7895 0.0000
-0.7895 0.8947 0.0000
-0.7895 1.0000 0.0000
-0.6842 -1.0000 0.0000
-0.6842 -0.8947 0.0000
-0.6842 -0.7895 0.0000
-0.6842 -0.6842 0.0000
-0.6842 -0.5789 0.0000
-0.6842 -0.4737 0.0000
-0.6842 -0.3684 0.0000
-0.6842 -0.2632 0.0000
-0.6842 -0.1579 0.0000
-0.6842 -0.0526 0.0000
-0.6842 0.0526 0.0000
-0.6842 0.1579 0.0000
-0.6842 0.2632 0.0000
-0.6842 0.3684 0.0000
-0.6842 0.4737 0.0000
-0.6842 0.5789 0.0000
-0.6842 0.6842 0.0000
-0.6842 0.7895 0.0000
-0.6842 0.8947 0.0000
-0.6842 1.0000 0.0000
-0.5789 -1.0000 0.0000
-0.5789 -0.8947 0.0000
-0.5789 -0.7895 0.0000
-0.5789 -0.6842 0.0000
-0.5789 -0.5789 0.0000
-0.5789 -0.4737 0.0000
-0.5789 -0.3684 0.0000
-0.5789 -0.2632 0.0000
-0.5789 -0.1579 0.0000
-0.5789 -0.0526 0.0000
-0.5789 0.0526 0.0000
-0.5789 0.1579 0.0000
-0.5789 0.2632 0.0000
-0.5789 0.3684 0.0000
-0.5789 0.4737 0.0000
-0.5789 0.5789 0.0000
-0.5789 0.6842 0.0000
-0.5789 0.7895 0.0000
-0.5789 0.8947 0.0000
-0.5789 1.0000 0.0000
-0.4737 -1.0000 0.0000
-0.4737 -0.8947 0.0000
-0.4737 -0.7895 0.0000
-0.4737 -0.6842 0.0000
-0.4737 -0.5789 0.0000
-0.4737 -0.4737 0.0000
-0.4737 -0.3684 0.0000
-0.4737 -0.2632 0.0000
-0.4737 -0.1579 0.0000
-0.4737 -0.0526 0.0000
-0.4737 0.0526 0.0000
-0.4737 0.1579 0.0000
-0.4737 0.2632 0.0000
-0.4737 0.3684 0.0000
-0.4737 0.4737 0.0000
-0.4737 0.5789 0.0000
-0.4737 0.6842 0.0000
-0.4737 0.7895 0.0000
-0.4737 0.8947 0.0000
-0.4737 1.0000 0.0000
-0.3684 -1.0000 0.0000
-0.3684 -0.8947 0.0000
-0.3684 -0.7895 0.0000
-0.3684 -0.6842 0.0000
-0.3684 -0.5789 0.0000
-0.3684 -0.4737 0.0000
-0.3684 -0.3684 0.0000
-0.3684 -0.2632 0.0000
-0.3684 -0.1579 0.0000
-0.3684 -0.0526 0.0000
-0.3684 0.0526 0.0000
-0.3684 0.1579 0.0000
-0.3684 0.2632 0.0000
-0.3684 0.3684 0.0000
-0.3684 0.4737 0.0000
-0.3684 0.5789 0.0000
-0.3684 0.6842 0.0000
-0.3684 0.7895 0.0000
-0.3684 0.8947 0.0000
-0.3684 1.0000 0.0000
-0.2632 -1.0000 0.0000
-0.2632 -0.8947 0.0000
-0.2632 -0.7895 0.0000
-0.2632 -0.6842 0.0000
-0.2632 -0.5789 0.0000
-0.2632 -0.4737 0.0000
-0.2632 -0.3684 0.0000
-0.2632 -0.2632 0.0000
-0.2632 -0.1579 0.0000
-0.2632 -0.0526 0.0000
-0.2632 0.0526 0.0000
-0.2632 0.1579 0.0000
-0.2632 0.2632 0.0000
-0.2632 0.3684 0.0000
-0.2632 0.4737 0.0000
-0.2632 0.5789 0.0000
-0.2632 0.6842 0.0000
-0.2632 0.7895 0.0000
-0.2632 0.8947 0.0000
-0.2632 1.0000 0.0000
-0.1579 -1.0000 0.0000
-0.1579 -0.8947 0.0000
-0.1579 -0.7895 0.0000
-0.1579 -0.6842 0.0000
-0.1579 -0.5789 0.0000
-0.1579 -0.4737 0.0000
-0.1579 -0.3684 0.0000
-0.1579 -0.2632 0.0000
-0.1579 -0.1579 0.0000
-0.1579 -0.0526 0.0000
-0.1579 0.0526 0.0000
-0.1579 0.1579 0.0000
-0.1579 0.2632 0.0000
-0.1579 0.3684 0.0000
-0.1579 0.4737 0.0000
-0.1579 0.5789 0.0000
-0.1579 0.6842 0.0000
-0.1579 0.7895 0.0000
-0.1579 0.8947 0.0000
-0.1579 1.0000 0.0000
-0.0526 -1.0000 0.0000
-0.0526 -0.8947 0.0000
-0.0526 -0.7895 0.0000
-0.0526 -0.6842 0.0000
-0.0526 -0.5789 0.0000
-0.0526 -0.4737 0.0000
-0.0526 -0.3684 0.0000
-0.0526 -0.2632 0.0000
-0.0526 -0.1579 0.0000
-0.0526 -0.0526 0.0000
-0.0526 0.0526 0.0000
-0.0526 0.1579 0.0000
-0.0526 0.2632 0.0000
-0.0526 0.3684 0.0000
-0.0526 0.4737 0.0000
-0.0526 0.5789 0.0000
-0.0526 0.6842 0.0000
-0.0526 0.7895 0.0000
-0.0526 0.8947 0.0000
-0.0526 1.0000 0.0000
0.0526 -1.0000 0.0000
0.0526 -0.8947 0.0000
0.0526 -0.7895 0.0000
0.0526 -0.6842 0.0000
0.0526 -0.5789 0.0000
0.0526 -0.4737 0.0000
0.0526 -0.3684 0.0000
0.0526 -0.2632 0.0000
0.0526 -0.1579 0.0000
0.0526 -0.0526 0.0000
0.0526 0.0526 0.0000
0.0526 0.1579 0.0000
0.0526 0.2632 0.0000
0.0526 0.3684 0.0000
0.0526 0.4737 0.0000
0.0526 0.5789 0.0000
0.0526 0.6842 0.0000
0.0526 0.7895 0.0000
0.0526 0.8947 0.0000
0.0526 1.0000 0.0000
0.1579 -1.0000 0.0000
0.1579 -0.8947 0.0000
0.1579 -0.7895 0.0000
0.1579 -0.6842 0.0000
0.1579 -0.5789 0.0000
0.1579 -0.4737 0.0000
0.1579 -0.3684 0.0000
0.1579 -0.2632 0.0000
0.1579 -0.1579 0.0000
0.1579 -0.0526 0.0000
0.1579 0.0526 0.0000
0.1579 0.1579 0.0000
0.1579 0.2632 0.0000
0.1579 0.3684 0.0000
0.1579 0.4737 0.0000
0.1579 0.5789 0.0000
0.1579 0.6842 0.0000
0.1579 0.7895 0.0000
0.1579 0.8947 0.0000
0.1579 1.0000 0.0000
0.2632 -1.0000 0.0000
0.2632 -0.8947 0.0000
0.2632 -0.7895 0.0000
0.2632 -0.6842 0.0000
0.2632 -0.5789 0.0000
0.2632 -0.4737 0.0000
0.2632 -0.3684 0.0000
0.2632 -0.2632 0.0000
0.2632 -0.1579 0.0000
0.2632 -0.0526 0.0000
0.2632 0.0526 0.0000
0.2632 0.1579 0.0000
0.2632 0.2632 0.0000
0.2632 0.3684 0.0000
0.2632 0.4737 0.0000
0.2632 0.5789 0.0000
0.2632 0.6842 0.0000
0.2632 0.7895 0.0000
0.2632 0.8947 0.0000
0.2632 1.0000 0.0000
0.3684 -1.0000 0.0000
0.3684 -0.8947 0.0000
0.3684 -0.7895 0.0000
0.3684 -0.6842 0.0000
0.3684 -0.5789 0.0000
0.3684 -0.4737 0.0000
0.3684 -0.3684 0.0000
0.3684 -0.2632 0.0000
0.3684 -0.1579 0.0000
0.3684 -0.0526 0.0000
0.3684 0.0526 0.0000
0.3684 0.1579 0.0000
0.3684 0.2632 0.0000
0.3684 0.3684 0.0000
0.3684 0.4737 0.0000
0.3684 0.5789 0.0000
0.3684 0.6842 0.0000
0.3684 0.7895 0.0000
0.3684 0.8947 0.0000
0.3684 1.0000 0.0000
0.4737 -1.0000 0.0000
0.4737 -0.8947 0.0000
0.4737 -0.7895 0.0000
0.4737 -0.6842 0.0000
0.4737 -0.5789 0.0000
0.4737 -0.4737 0.0000
0.4737 -0.3684 0.0000
0.4737 -0.2632 0.0000
0.4737 -0.1579 0.0000
0.4737 -0.0526 0.0000
0.4737 0.0526 0.0000
0.4737 0.1579 0.0000
0.4737 0.2632 0.0000
0.4737 0.3684 0.0000
0.4737 0.4737 0.0000
0.4737 0.5789 0.0000
0.4737 0.6842 0.0000
0.4737 0.7895 0.0000
0.4737 0.8947 0.0000
0.4737 1.0000 0.0000
0.5789 -1.0000 0.0000
0.5789 -0.8947 0.0000
0.5789 -0.7895 0.0000
0.5789 -0.6842 0.0000
0.5789 -0.5789 0.0000
0.5789 -0.4737 0.0000
0.5789 -0.3684 0.0000
0.5789 -0.2632 0.0000
0.5789 -0.1579 0.0000
0.5789 -0.0526 0.0000
0.5789 0.0526 0.0000
0.5789 0.1579 0.0000
0.5789 0.2632 0.0000
0.5789 0.3684 0.0000
0.5789 0.4737 0.0000
0.5789 0.5789 0.0000
0.5789 0.6842 0.0000
0.5789 0.7895 0.0000
0.5789 0.8947 0.0000
0.5789 1.0000 0.0000
0.6842 -1.0000 0.0000
0.6842 -0.8947 0.0000
0.6842 -0.7895 0.0000
0.6842 -0.6842 0.0000
0.6842 -0.5789 0.0000
0.6842 -0.4737 0.0000
0.6842 -0.3684 0.0000
0.6842 -0.2632 0.0000
0.6842 -0.1579 0.0000
0.6842 -0.0526 0.0000
0.6842 0.0526 0.0000
0.6842 0.1579 0.0000
0.6842 0.2632 0.0000
0.6842 0.3684 0.0000
0.6842 0.4737 0.0000
0.6842 0.5789 0.0000
0.6842 0.6842 0.0000
0.6842 0.7895 0.0000
0.6842 0.8947 0.0000
0.6842 1.0000 0.0000
0.7895 -1.0000 0.0000
0.7895 -0.8947 0.0000
0.7895 -0.7895 0.0000
0.7895 -0.6842 0.0000
0.7895 -0.5789 0.0000
0.7895 -0.4737 0.0000
0.7895 -0.3684 0.0000
0.7895 -0.2632 0.0000
0.7895 -0.1579 0.0000
0.7895 -0.0526 0.0000
0.7895 0.0526 0.0000
0.7895 0.1579 0.0000
0.7895 0.2632 0.0000
0.7895 0.3684 0.0000
0.7895 0.4737 0.0000
0.7895 0.5789 0.0000
0.7895 0.6842 0.0000
0.7895 0.7895 0.0000
0.7895 0.8947 0.0000
0.7895 1.0000 0.0000
0.8947 -1.0000 0.0000
0.8947 -0.8947 0.0000
0.8947 -0.7895 0.0000
0.8947 -0.6842 0.0000
0.8947 -0.5789 0.0000
0.8947 -0.4737 0.0000
0.8947 -0.3684 0.0000
0.8947 -0.2632 0.0000
0.8947 -0.1579 0.0000
0.8947 -0.0526 0.0000
0.8947 0.0526 0.0000
0.8947 0.1579 0.0000
0.8947 0.2632 0.0000
0.8947 0.3684 0.0000
0.8947 0.4737 0.0000
0.8947 0.5789 0.0000
0.8947 0.6842 0.0000
0.8947 0.7895 0.0000
0.8947 0.8947 0.0000
0.8947 1.0000 0.0000
1.0000 -1.0000 0.0000
1.0000 -0.8947 0.0000
1.0000 -0.7895 0.0000
1.0000 -0.6842 0.0000
1.0000 -0.5789 0.0000
1.0000 -0.4737 0.0000
1.0000 -0.3684 0.0000
1.0000 -0.2632 0.0000
1.0000 -0.1579 0.0000
1.0000 -0.0526 0.0000
1.0000 0.0526 0.0000
1.0000 0.1579 0.0000
1.0000 0.2632 0.0000
1.0000 0.3684 0.0000
1.0000 0.4737 0.0000
1.0000 0.5789 0.0000
1.0000 0.6842 0.0000
1.0000 0.7895 0.0000
1.0000 0.8947 0.0000
1.0000 1.0000 0.0000
-0.9474 -0.9474 0.0000
-0.9474 -0.8421 0.0000
-0.9474 -0.7368 0.0000
-0.9474 -0.6316 0.0000
-0.9474 -0.5263 0.0000
-0.9474 -0.4211 0.0000
-0.9474 -0.3158 0.0000
-0.9474 -0.2105 0.0000
-0.9474 -0.1053 0.0000
-0.9474 0.0000 0.0000
-0.9474 0.1053 0.0000
-0.9474 0.2105 0.0000
-0.9474 0.3158 0.0000
-0.9474 0.4211 0.0000
-0.9474 0.5263 0.0000
-0.9474 0.6316 0.0000
-0.9474 0.7368 0.0000
-0.9474 0.8421 0.0000
-0.9474 0.9474 0.0000
-0.8421 -0.9474 0.0000
-0.8421 -0.8421 0.0000
-0.8421 -0.7368 0.0000
-0.8421 -0.6316 0.0000
-0.8421 -0.5263 0.0000
-0.8421 -0.4211 0.0000
-0.8421 -0.3158 0.0000
-0.8421 -0.2105 0.0000
-0.8421 -0.1053 0.0000
-0.8421 0.0000 0.0000
-0.8421 0.1053 0.0000
-0.8421 0.2105 0.0000
-0.8421 0.3158 0.0000
-0.8421 0.4211 0.0000
-0.8421 0.5263 0.0000
-0.8421 0.6316 0.0000
-0.8421 0.7368 0.0000
-0.8421 0.8421 0.0000
-0.8421 0.9474 0.0000
-0.7368 -0.9474 0.0000
-0.7368 -0.8421 0.0000
[...]
         <PointData>
            <DataArray Name="fValues" NumberOfComponents="3" format="ascii" type="Float64">
 8.52692e-19  7.47754e-18        00000 
-1.53695e-18 -1.36618e-18        00000 
-8.42860e-20 -3.37144e-18        00000 
-8.78963e-19  1.44023e-18        00000 
 1.18000e-18 -1.34858e-18        00000 
-2.23632e-18 -7.95893e-18        00000 
-2.19144e-18  1.14629e-17        00000 
-1.13312e-18 -3.17698e-19        00000 
-3.37144e-18  8.42860e-18        00000 
 1.70051e-18  6.80204e-19        00000 
-1.68572e-18  4.38287e-18        00000 
-4.23597e-20 -2.54158e-19        00000 
-2.52858e-18  2.86572e-18        00000 
-9.52249e-19  2.31744e-18        00000 
-8.42860e-19 -3.37144e-19        00000 
-4.44777e-19 -1.47200e-18        00000 
-2.52858e-19  1.85429e-18        00000 
 6.80252e-19 -1.70063e-19        00000 
-1.70018e-19  8.50090e-20        00000 
-2.51640e-19 -2.52694e-19        00000 
-9.81823e-19  5.26316e-02        00000 
-5.94012e-03  4.63395e-02        00000 
-8.82993e-03  4.22387e-02        00000 
-1.09891e-02  3.90012e-02        00000 
-1.27666e-02  3.62832e-02        00000 
-1.42541e-02  3.40067e-02        00000 
-1.53865e-02  3.21399e-02        00000 
-1.60240e-02  3.05984e-02        00000 
-1.60364e-02  2.91996e-02        00000 
-1.53977e-02  2.76887e-02        00000 
-1.42387e-02  2.58337e-02        00000 
-1.28115e-02  2.35311e-02        00000 
-1.13809e-02  2.08494e-02        00000 
-1.01170e-02  1.79781e-02        00000 
-9.04936e-03  1.51227e-02        00000 
-8.09025e-03  1.24108e-02        00000 
-7.08282e-03  9.84238e-03        00000 
-5.81626e-03  7.27233e-03        00000 
-3.98331e-03  4.33131e-03        00000 
-6.07421e-19  3.37689e-20        00000 
-3.38886e-19  1.05263e-01        00000 
-9.33074e-03  9.55703e-02        00000 
-1.54466e-02  8.74727e-02        00000 
-1.99957e-02  8.06975e-02        00000 
-2.38008e-02  7.48388e-02        00000 
-2.70465e-02  6.97485e-02        00000 
-2.95859e-02  6.53627e-02        00000 
-3.10650e-02  6.15483e-02        00000 
-3.11245e-02  5.80032e-02        00000 
-2.96648e-02  5.42850e-02        00000 
-2.70123e-02  4.99888e-02        00000 
-2.38234e-02  4.49581e-02        00000 
-2.07682e-02  3.93606e-02        00000 
-1.82327e-02  3.35626e-02        00000 
-1.62252e-02  2.79152e-02        00000 
-1.44734e-02  2.25871e-02        00000 
-1.25713e-02  1.75089e-02        00000 
-1.00529e-02  1.23803e-02        00000 
-6.22230e-03  6.67420e-03        00000 
 8.65503e-19 -2.50855e-19        00000 
-2.52858e-18  1.57895e-01        00000 
-1.15066e-02  1.45579e-01        00000 
-2.01228e-02  1.34395e-01        00000 
-2.70097e-02  1.24307e-01        00000 
-3.29257e-02  1.15165e-01        00000 
-3.81246e-02  1.06877e-01        00000 
-4.23546e-02  9.94351e-02        00000 
-4.49484e-02  9.27515e-02        00000 
-4.51390e-02  8.64735e-02        00000 
-4.26315e-02  7.99731e-02        00000 
-3.80424e-02  7.26497e-02        00000 
-3.26967e-02  6.43417e-02        00000 
-2.78850e-02  5.54300e-02        00000 
-2.42258e-02  4.65545e-02        00000 
-2.15714e-02  3.82046e-02        00000 
-1.93156e-02  3.05149e-02        00000 
-1.67273e-02  2.32777e-02        00000 
-1.30988e-02  1.60656e-02        00000 
-7.74090e-03  8.40845e-03        00000 
-1.34877e-18  1.80215e-18        00000 
 2.00152e-18  2.10526e-01        00000 
-1.29042e-02  1.96119e-01        00000 
-2.33537e-02  1.82424e-01        00000 
-3.21901e-02  1.69464e-01        00000 
-4.00710e-02  1.57150e-01        00000 
-4.72772e-02  1.45453e-01        00000 
-5.34837e-02  1.34472e-01        00000 
-5.76001e-02  1.24295e-01        00000 
-5.81025e-02  1.14632e-01        00000 
-5.41873e-02  1.04653e-01        00000 
-4.69254e-02  9.35182e-02        00000 
-3.88725e-02  8.11627e-02        00000 
-3.23097e-02  6.84679e-02        00000 
-2.79831e-02  5.64832e-02        00000 
-2.52650e-02  4.57760e-02        00000 
-2.29808e-02  3.62550e-02        00000 
-2.00298e-02  2.74522e-02        00000 
-1.55662e-02  1.87856e-02        00000 
-8.99775e-03  9.74025e-03        00000 
 1.18272e-18  7.30040e-19        00000 
-3.37144e-18  2.63158e-01        00000 
-1.37675e-02  2.47146e-01        00000 
-2.55115e-02  2.31537e-01        00000 
-3.58131e-02  2.16277e-01        00000 
-4.52812e-02  2.01185e-01        00000 
-5.43217e-02  1.86144e-01        00000 
-6.26871e-02  1.71251e-01        00000 
-6.88845e-02  1.56754e-01        00000 
-7.00715e-02  1.42626e-01        00000 
-6.40963e-02  1.27892e-01        00000 
-5.28983e-02  1.11465e-01        00000 
-4.14654e-02  9.39568e-02        00000 
-3.36074e-02  7.71388e-02        00000 
-2.96549e-02  6.26119e-02        00000 
-2.77854e-02  5.04558e-02        00000 
-2.60660e-02  4.00019e-02        00000 
-2.30812e-02  3.03856e-02        00000 
-1.79716e-02  2.08464e-02        00000 
-1.02990e-02  1.08309e-02        00000 
-1.77020e-18 -3.05004e-19        00000 
 1.02031e-18  3.15789e-01        00000 
-1.43533e-02  2.98687e-01        00000 
-2.70182e-02  2.81856e-01        00000 
-3.83145e-02  2.65120e-01        00000 
-4.88305e-02  2.48098e-01        00000 
-5.92442e-02  2.30386e-01        00000 
-6.96928e-02  2.11820e-01        00000 
-7.84198e-02  1.92361e-01        00000 
-8.07193e-02  1.71438e-01        00000 
-7.14204e-02  1.48353e-01        00000 
-5.41904e-02  1.23329e-01        00000 
-3.93173e-02  9.88521e-02        00000 
-3.20198e-02  7.93767e-02        00000 
-3.00592e-02  6.43743e-02        00000 
-3.00790e-02  5.25249e-02        00000 
-2.93901e-02  4.23673e-02        00000 
-2.64974e-02  3.26791e-02        00000 
-2.07324e-02  2.26679e-02        00000 
-1.18648e-02  1.18720e-02        00000 
 6.62672e-19  2.37591e-18        00000 
 8.42860e-19  3.68421e-01        00000 
-1.49695e-02  3.50709e-01        00000 
-2.84094e-02  3.33385e-01        00000 
-4.03937e-02  3.16209e-01        00000 
-5.14518e-02  2.98691e-01        00000 
-6.25729e-02  2.80103e-01        00000 
-7.48808e-02  2.59817e-01        00000 
-8.68287e-02  2.37508e-01        00000 
-8.87496e-02  2.08850e-01        00000 
-6.89216e-02  1.62602e-01        00000 
-4.73978e-02  1.14069e-01        00000 
-3.44549e-02  8.94130e-02        00000 
-2.94780e-02  7.40953e-02        00000 
-3.09958e-02  6.26746e-02        00000 
-3.35372e-02  5.34989e-02        00000 
-3.38119e-02  4.47606e-02        00000 
-3.07387e-02  3.53497e-02        00000 
-2.40770e-02  2.48507e-02        00000 
-1.37907e-02  1.31148e-02        00000 
-4.15401e-18  8.67570e-19        00000 
-3.81237e-19  4.21053e-01        00000 
-1.59127e-02  4.03035e-01        00000 
-3.02381e-02  3.85751e-01        00000 
-4.29196e-02  3.69055e-01        00000 
-5.44234e-02  3.52689e-01        00000 
-6.58468e-02  3.36163e-01        00000 
-7.98307e-02  3.18733e-01        00000 
-9.97787e-02  3.02192e-01        00000 
-1.03254e-01  2.81210e-01        00000 
-7.77763e-02  2.14542e-01        00000 
-5.44743e-02  1.41496e-01        00000 
-3.19839e-02  6.98415e-02        00000 
-2.90664e-02  6.58600e-02        00000 
-3.48292e-02  6.19897e-02        00000 
-3.94303e-02  5.69006e-02        00000 
-3.97383e-02  4.94727e-02        00000 
-3.58369e-02  3.97396e-02        00000 
-2.79161e-02  2.80940e-02        00000 
-1.59923e-02  1.48296e-02        00000 
-8.44093e-19 -3.45942e-19        00000 
-5.05716e-19  4.73684e-01        00000 
-1.73382e-02  4.55321e-01        00000 
-3.28237e-02  4.38107e-01        00000 
-4.65099e-02  4.22115e-01        00000 
-5.89249e-02  4.07642e-01        00000 
-7.12759e-02  3.95227e-01        00000 
-8.66281e-02  3.85654e-01        00000 
-1.19049e-01  3.81620e-01        00000 
-1.09260e-01  3.23010e-01        00000 
-8.66993e-02  2.58130e-01        00000 
-6.28466e-02  1.92366e-01        00000 
-4.11681e-02  1.27840e-01        00000 
-3.04170e-02  7.07163e-02        00000 
-4.28842e-02  7.13627e-02        00000 
-4.75180e-02  6.75175e-02        00000 
-4.65314e-02  5.89045e-02        00000 
-4.11855e-02  4.70400e-02        00000 
-3.17847e-02  3.29522e-02        00000 
-1.81934e-02  1.72147e-02        00000 
-2.29972e-18  1.37329e-18        00000 
 1.36036e-18  5.26316e-01        00000 
-1.91421e-02  5.07152e-01        00000 
-3.59950e-02  4.89366e-01        00000 
-5.09749e-02  4.73190e-01        00000 
-6.48651e-02  4.59353e-01        00000 
-7.90323e-02  4.49209e-01        00000 
-9.63617e-02  4.45014e-01        00000 
-1.25511e-01  4.46551e-01        00000 
-1.14308e-01  3.83034e-01        00000 
-9.50924e-02  3.11427e-01        00000 
-7.12392e-02  2.37707e-01        00000 
-4.66598e-02  1.65868e-01        00000 
-3.65815e-02  1.00829e-01        00000 
-5.26825e-02  9.77670e-02        00000 
-5.52867e-02  8.79234e-02        00000 
-5.24827e-02  7.40190e-02        00000 
-4.56575e-02  5.76030e-02        00000 
-3.49609e-02  3.95447e-02        00000 
-2.00001e-02  2.02995e-02        00000 
-5.66968e-18  1.61055e-18        00000 
 5.05716e-19  5.78947e-01        00000 
-2.09565e-02  5.58213e-01        00000 
-3.90586e-02  5.38694e-01        00000 
-5.51809e-02  5.20574e-01        00000 
-7.03647e-02  5.04458e-01        00000 
-8.59347e-02  4.91306e-01        00000 
-1.03503e-01  4.82014e-01        00000 
-1.19362e-01  4.75436e-01        00000 
-1.12501e-01  4.70328e-01        00000 
-9.26973e-02  3.71899e-01        00000 
-6.97202e-02  2.71693e-01        00000 
-4.14056e-02  1.78548e-01        00000 
-4.87746e-02  1.56429e-01        00000 
-5.85229e-02  1.37193e-01        00000 
-5.95581e-02  1.15549e-01        00000 
-5.57052e-02  9.33196e-02        00000 
-4.81172e-02  7.05906e-02        00000 
-3.67496e-02  4.74364e-02        00000 
-2.10434e-02  2.39113e-02        00000 
-4.27517e-19  5.00126e-18        00000 
 4.23597e-19  6.31579e-01        00000 
-2.22858e-02  6.08426e-01        00000 
-4.10838e-02  5.85925e-01        00000 
-5.76102e-02  5.64043e-01        00000 
-7.29372e-02  5.42860e-01        00000 
-8.78984e-02  5.22195e-01        00000 
-1.01982e-01  5.00745e-01        00000 
-1.10184e-01  4.75839e-01        00000 
-1.02259e-01  4.45736e-01        00000 
-8.13125e-02  4.01552e-01        00000 
-5.97219e-02  3.22963e-01        00000 
-4.79869e-02  2.55786e-01        00000 
-5.29489e-02  2.12427e-01        00000 
-5.81491e-02  1.76692e-01        00000 
-5.89006e-02  1.44160e-01        00000 
-5.53305e-02  1.13652e-01        00000 
-4.79804e-02  8.43724e-02        00000 
-3.67694e-02  5.58232e-02        00000 
-2.11173e-02  2.77427e-02        00000 
 1.26522e-18 -3.93746e-18        00000 
-4.04573e-18  6.84211e-01        00000 
-2.27057e-02  6.57955e-01        00000 
-4.13158e-02  6.31557e-01        00000 
-5.71778e-02  6.04781e-01        00000 
-7.11985e-02  5.77275e-01        00000 
-8.35529e-02  5.48229e-01        00000 
-9.28604e-02  5.16104e-01        00000 
-9.53526e-02  4.79038e-01        00000 
-8.64003e-02  4.36004e-01        00000 
-6.65672e-02  3.87900e-01        00000 
-4.91737e-02  3.40676e-01        00000 
-4.48563e-02  2.93974e-01        00000 
-4.90027e-02  2.49293e-01        00000 
-5.32776e-02  2.07705e-01        00000 
-5.44259e-02  1.68851e-01        00000 
-5.17897e-02  1.32249e-01        00000 
-4.53867e-02  9.74092e-02        00000 
-3.50491e-02  6.39122e-02        00000 
-2.02282e-02  3.14823e-02        00000 
-7.00183e-18  9.72128e-18        00000 
       00000  7.36842e-01        00000 
-2.19961e-02  7.07093e-01        00000 
-3.94188e-02  6.76382e-01        00000 
-5.36069e-02  6.44427e-01        00000 
-6.53078e-02  6.10798e-01        00000 
-7.44273e-02  5.74817e-01        00000 
-7.97259e-02  5.35655e-01        00000 
-7.89876e-02  4.92895e-01        00000 
-7.06419e-02  4.47500e-01        00000 
-5.73773e-02  4.02224e-01        00000 
-4.61194e-02  3.58542e-01        00000 
-4.19392e-02  3.16050e-01        00000 
-4.36784e-02  2.73326e-01        00000 
-4.67110e-02  2.30538e-01        00000 
-4.79167e-02  1.88607e-01        00000 
-4.61176e-02  1.48025e-01        00000 
-4.08969e-02  1.08913e-01        00000 
-3.18958e-02  7.12348e-02        00000 
-1.85375e-02  3.49296e-02        00000 
 4.07305e-18  1.70322e-19        00000 
-2.02286e-18  7.89474e-01        00000 
-2.01445e-02  7.56106e-01        00000 
-3.54328e-02  7.21064e-01        00000 
-4.72013e-02  6.84181e-01        00000 
-5.61945e-02  6.45247e-01        00000 
-6.24016e-02  6.04018e-01        00000 
-6.50970e-02  5.60387e-01        00000 
-6.33278e-02  5.14779e-01        00000 
-5.71125e-02  4.68459e-01        00000 
-4.85522e-02  4.22942e-01        00000 
-4.12623e-02  3.78954e-01        00000 
-3.78282e-02  3.35825e-01        00000 
-3.80004e-02  2.92536e-01        00000 
-3.95883e-02  2.48718e-01        00000 
-4.03988e-02  2.04790e-01        00000 
-3.91193e-02  1.61369e-01        00000 
-3.50564e-02  1.18914e-01        00000 
-2.76579e-02  7.77310e-02        00000 
-1.62456e-02  3.80369e-02        00000 
 9.17634e-20  1.63678e-18        00000 
-2.24506e-18  8.42105e-01        00000 
-1.72431e-02  8.05123e-01        00000 
-2.95464e-02  7.65883e-01        00000 
-3.84051e-02  7.24467e-01        00000 
-4.46978e-02  6.81027e-01        00000 
-4.86054e-02  6.35742e-01        00000 
-4.98506e-02  5.88912e-01        00000 
-4.81863e-02  5.41164e-01        00000 
-4.39997e-02  4.93428e-01        00000 
-3.86569e-02  4.46570e-01        00000 
-3.40540e-02  4.00847e-01        00000 
-3.15269e-02  3.55803e-01        00000 
-3.10956e-02  3.10704e-01        00000 
-3.17082e-02  2.65143e-01        00000 
-3.20514e-02  2.19211e-01        00000 
-3.10942e-02  1.73316e-01        00000 
-2.81315e-02  1.27963e-01        00000 
-2.25302e-02  8.36642e-02        00000 
-1.34821e-02  4.08920e-02        00000 
-1.28469e-18  6.85167e-19        00000 
-1.68572e-18  8.94737e-01        00000 
-1.33298e-02  8.54048e-01        00000 
-2.18362e-02  8.10627e-01        00000 
-2.74975e-02  7.64947e-01        00000 
-3.13078e-02  7.17641e-01        00000 
-3.34864e-02  6.69093e-01        00000 
-3.39908e-02  6.19693e-01        00000 
-3.28290e-02  5.69965e-01        00000 
-3.03430e-02  5.20519e-01        00000 
-2.72981e-02  4.71814e-01        00000 
-2.46389e-02  4.23933e-01        00000 
-2.30258e-02  3.76546e-01        00000 
-2.25155e-02  3.29155e-01        00000 
-2.26267e-02  2.81411e-01        00000 
-2.26613e-02  2.33268e-01        00000 
-2.19816e-02  1.84952e-01        00000 
-2.00766e-02  1.36859e-01        00000 
-1.64461e-02  8.95267e-02        00000 
-1.02235e-02  4.37099e-02        00000 
 2.78892e-18 -2.07180e-18        00000 
       00000  9.47368e-01        00000 
-8.09919e-03  9.02451e-01        00000 
-1.20240e-02  8.54261e-01        00000 
-1.46169e-02  8.04634e-01        00000 
-1.63003e-02  7.54149e-01        00000 
-1.72099e-02  7.03072e-01        00000 
-1.73626e-02  6.51652e-01        00000 
-1.68062e-02  6.00194e-01        00000 
-1.57150e-02  5.49016e-01        00000 
-1.44063e-02  4.98334e-01        00000 
-1.32446e-02  4.48152e-01        00000 
-1.24835e-02  3.98264e-01        00000 
-1.21557e-02  3.48372e-01        00000 
-1.20874e-02  2.98245e-01        00000 
-1.20021e-02  2.47812e-01        00000 
-1.16232e-02  1.97168e-01        00000 
-1.07112e-02  1.46529e-01        00000 
-9.01122e-03  9.62323e-02        00000 
-6.14281e-03  4.68803e-02        00000 
-6.88558e-19 -6.94283e-18        00000 
 6.91455e-19        00001        00000 
-9.81823e-19  9.47368e-01        00000 
 6.54454e-20  8.94737e-01        00000 
-1.20639e-18  8.42105e-01        00000 
 3.69392e-19  7.89474e-01        00000 
-3.63529e-19  7.36842e-01        00000 
 2.88236e-18  6.84211e-01        00000 
-7.79428e-19  6.31579e-01        00000 
 1.47196e-18  5.78947e-01        00000 
 1.41201e-18  5.26316e-01        00000 
-5.58893e-19  4.73684e-01        00000 
-2.01458e-19  4.21053e-01        00000 
 4.60407e-19  3.68421e-01        00000 
-5.38602e-19  3.15789e-01        00000 
-5.27123e-19  2.63158e-01        00000 
 1.23309e-18  2.10526e-01        00000 
-7.43259e-19  1.57895e-01        00000 
 5.60390e-19  1.05263e-01        00000 
-9.81823e-19  5.26316e-02        00000 
 4.17595e-19  1.24397e-17        00000 
-2.27155e-03  2.40002e-02        00000 
-4.20511e-03  2.17833e-02        00000 
-5.35944e-03  2.00401e-02        00000 
-6.27867e-03  1.85989e-02        00000 
-7.03975e-03  1.73865e-02        00000 
-7.64349e-03  1.63951e-02        00000 
-8.04529e-03  1.56049e-02        00000 
-8.18995e-03  1.49480e-02        00000 
-8.04738e-03  1.43019e-02        00000 
-7.64098e-03  1.35255e-02        00000 
-7.05036e-03  1.25196e-02        00000 
-6.38331e-03  1.12740e-02        00000 
-5.73340e-03  9.86487e-03        00000 
-5.14850e-03  8.40865e-03        00000 
-4.62390e-03  7.00326e-03        00000 
-4.11431e-03  5.68921e-03        00000 
-3.54603e-03  4.43700e-03        00000 
-2.81752e-03  3.13003e-03        00000 
-1.53724e-03  1.58074e-03        00000 
-4.24281e-03  7.45273e-02        00000 
-1.03864e-02  6.75020e-02        00000 
-1.42575e-02  6.20538e-02        00000 
-1.72806e-02  5.74517e-02        00000 
-1.98187e-02  5.34995e-02        00000 
-2.18831e-02  5.01386e-02        00000 
-2.32994e-02  4.73072e-02        00000 
-2.38307e-02  4.48315e-02        00000 
-2.33318e-02  4.23968e-02        00000 
-2.18835e-02  3.96357e-02        00000 
-1.98125e-02  3.62981e-02        00000 
-1.75605e-02  3.23779e-02        00000 
-1.54905e-02  2.80966e-02        00000 
-1.37551e-02  2.37621e-02        00000 
-1.22866e-02  1.96080e-02        00000 
-1.08682e-02  1.56991e-02        00000 
-9.20064e-03  1.19075e-02        00000 
-6.86433e-03  7.91425e-03        00000 
-2.84426e-03  3.03125e-03        00000 
-5.53719e-03  1.25805e-01        00000 
-1.44875e-02  1.15442e-01        00000 
-2.10578e-02  1.06426e-01        00000 
-2.63433e-02  9.84882e-02        00000 
-3.08741e-02  9.14134e-02        00000 
-3.46600e-02  8.51446e-02        00000 
-3.73471e-02  7.96351e-02        00000 
-3.84108e-02  7.46777e-02        00000 
-3.74877e-02  6.98147e-02        00000 
-3.47162e-02  6.44662e-02        00000 
-3.08034e-02  5.82542e-02        00000 
-2.67076e-02  5.12422e-02        00000 
-2.31627e-02  4.38674e-02        00000 
-2.04016e-02  3.66401e-02        00000 
-1.81916e-02  2.98684e-02        00000 
-1.60418e-02  2.35579e-02        00000 
-1.33730e-02  1.74469e-02        00000 
-9.52259e-03  1.10730e-02        00000 
-3.70758e-03  3.96049e-03        00000 
-6.36421e-03  1.77355e-01        00000 
-1.72856e-02  1.64400e-01        00000 
-2.60281e-02  1.52404e-01        00000 
-3.34457e-02  1.41276e-01        00000 
-4.00257e-02  1.30911e-01        00000 
-4.57524e-02  1.21312e-01        00000 
-5.00334e-02  1.12548e-01        00000 
-5.18706e-02  1.04499e-01        00000 
-5.04499e-02  9.66090e-02        00000 
-4.59231e-02  8.80327e-02        00000 
-3.96402e-02  7.82565e-02        00000 
-3.34139e-02  6.75695e-02        00000 
-2.84896e-02  5.68173e-02        00000 
-2.50560e-02  4.67625e-02        00000 
-2.25121e-02  3.76912e-02        00000 
-1.99591e-02  2.94203e-02        00000 
-1.65373e-02  2.14996e-02        00000 
-1.15244e-02  1.34013e-02        00000 
-4.35114e-03  4.69428e-03        00000 
-6.86844e-03  2.29129e-01        00000 
-1.91236e-02  2.14145e-01        00000 
-2.95045e-02  1.99742e-01        00000 
-3.86861e-02  1.85821e-01        00000 
-4.71559e-02  1.72254e-01        00000 
-5.49314e-02  1.59060e-01        00000 
-6.12039e-02  1.46433e-01        00000 
-6.42227e-02  1.34491e-01        00000 
-6.22088e-02  1.22709e-01        00000 
-5.51883e-02  1.09874e-01        00000 
-4.56845e-02  9.54481e-02        00000 
-3.70792e-02  8.03435e-02        00000 
-3.12066e-02  6.61287e-02        00000 
-2.78532e-02  5.37257e-02        00000 
-2.56409e-02  4.30516e-02        00000 
-2.31411e-02  3.35279e-02        00000 
-1.92713e-02  2.44482e-02        00000 
-1.33299e-02  1.51888e-02        00000 
-4.96051e-03  5.30543e-03        00000 
-7.16653e-03  2.81122e-01        00000 
-2.03154e-02  2.64691e-01        00000 