<?xml version="1.0" encoding="utf-8"?>
<VTKFile byte_order="LittleEndian" type="UnstructuredGrid" version="0.1">
   <UnstructuredGrid>
      <Piece NumberOfCells="3364" NumberOfPoints="1741">
         <Points>
            <DataArray Name="Points" NumberOfComponents="3" format="ascii" type="Float32">
0.0000 1.0000 0.0000
0.0000 1.0345 0.0000
0.0000 1.0690 0.0000
0.0000 1.1034 0.0000
0.0000 1.1379 0.0000
0.0000 1.1724 0.0000
0.0000 1.2069 0.0000
0.0000 1.2414 0.0000
0.0000 1.2759 0.0000
0.0000 1.3103 0.0000
0.0000 1.3448 0.0000
0.0000 1.3793 0.0000
0.0000 1.4138 0.0000
0.0000 1.4483 0.0000
0.0000 1.4828 0.0000
0.0000 1.5172 0.0000
0.0000 1.5517 0.0000
0.0000 1.5862 0.0000
0.0000 1.6207 0.0000
0.0000 1.6552 0.0000
0.0000 1.6897 0.0000
0.0000 1.7241 0.0000
0.0000 1.7586 0.0000
0.0000 1.7931 0.0000
0.0000 1.8276 0.0000
0.0000 1.8621 0.0000
0.0000 1.8966 0.0000
0.0000 1.9310 0.0000
0.0000 1.9655 0.0000
0.0000 2.0000 0.0000
0.0690 1.0000 0.0000
0.0690 1.0345 0.0000
0.0690 1.0690 0.0000
0.0690 1.1034 0.0000
0.0690 1.1379 0.0000
0.0690 1.1724 0.0000
0.0690 1.2069 0.0000
0.0690 1.2414 0.0000
0.0690 1.2759 0.0000
0.0690 1.3103 0.0000
0.0690 1.3448 0.0000
0.0690 1.3793 0.0000
0.0690 1.4138 0.0000
0.0690 1.4483 0.0000
0.0690 1.4828 0.0000
0.0690 1.5172 0.0000
0.0690 1.5517 0.0000
0.0690 1.5862 0.0000
0.0690 1.6207 0.0000
0.0690 1.6552 0.0000
0.0690 1.6897 0.0000
0.0690 1.7241 0.0000
0.0690 1.7586 0.0000
0.0690 1.7931 0.0000
0.0690 1.8276 0.0000
0.0690 1.8621 0.0000
0.0690 1.8966 0.0000
0.0690 1.9310 0.0000
0.0690 1.9655 0.0000
0.0690 2.0000 0.0000
0.1379 1.0000 0.0000
0.1379 1.0345 0.0000
0.1379 1.0690 0.0000
0.1379 1.1034 0.0000
0.1379 1.1379 0.0000
0.1379 1.1724 0.0000
0.1379 1.2069 0.0000
0.1379 1.2414 0.0000
0.1379 1.2759 0.0000
0.1379 1.3103 0.0000
0.1379 1.3448 0.0000
0.1379 1.3793 0.0000
0.1379 1.4138 0.0000
0.1379 1.4483 0.0000
0.1379 1.4828 0.0000
0.1379 1.5172 0.0000
0.1379 1.5517 0.0000
0.1379 1.5862 0.0000
0.1379 1.6207 0.0000
0.1379 1.6552 0.0000
0.1379 1.6897 0.0000
0.1379 1.7241 0.0000
0.1379 1.7586 0.0000
0.1379 1.7931 0.0000
0.1379 1.8276 0.0000
0.1379 1.8621 0.0000
0.1379 1.8966 0.0000
0.1379 1.9310 0.0000
0.1379 1.9655 0.0000
0.1379 2.0000 0.0000
0.2069 1.0000 0.0000
0.2069 1.0345 0.0000
0.2069 1.0690 0.0000
0.2069 1.1034 0.0000
0.2069 1.1379 0.0000
0.2069 1.1724 0.0000
0.2069 1.2069 0.0000
0.2069 1.2414 0.0000
0.2069 1.2759 0.0000
0.2069 1.3103 0.0000
0.2069 1.3448 0.0000
0.2069 1.3793 0.0000
0.2069 1.4138 0.0000
0.2069 1.4483 0.0000
0.2069 1.4828 0.0000
0.2069 1.5172 0.0000
0.2069 1.5517 0.0000
0.2069 1.5862 0.0000
0.2069 1.6207 0.0000
0.2069 1.6552 0.0000
0.2069 1.6897 0.0000
0.2069 1.7241 0.0000
0.2069 1.7586 0.0000
0.2069 1.7931 0.0000
0.2069 1.8276 0.0000
0.2069 1.8621 0.0000
0.2069 1.8966 0.0000
0.2069 1.9310 0.0000
0.2069 1.9655 0.0000
0.2069 2.0000 0.0000
0.2759 1.0000 0.0000
0.2759 1.0345 0.0000
0.2759 1.0690 0.0000
0.2759 1.1034 0.0000
0.2759 1.1379 0.0000
0.2759 1.1724 0.0000
0.2759 1.2069 0.0000
0.2759 1.2414 0.0000
0.2759 1.2759 0.0000
0.2759 1.3103 0.0000
0.2759 1.3448 0.0000
0.2759 1.3793 0.0000
0.2759 1.4138 0.0000
0.2759 1.4483 0.0000
0.2759 1.4828 0.0000
0.2759 1.5172 0.0000
0.2759 1.5517 0.0000
0.2759 1.5862 0.0000
0.2759 1.6207 0.0000
0.2759 1.6552 0.0000
0.2759 1.6897 0.0000
0.2759 1.7241 0.0000
0.2759 1.7586 0.0000
0.2759 1.7931 0.0000
0.2759 1.8276 0.0000
0.2759 1.8621 0.0000
0.2759 1.8966 0.0000
0.2759 1.9310 0.0000
0.2759 1.9655 0.0000
0.2759 2.0000 0.0000
0.3448 1.0000 0.0000
0.3448 1.0345 0.0000
0.3448 1.0690 0.0000
0.3448 1.1034 0.0000
0.3448 1.1379 0.0000
0.3448 1.1724 0.0000
0.3448 1.2069 0.0000
0.3448 1.2414 0.0000
0.3448 1.2759 0.0000
0.3448 1.3103 0.0000
0.3448 1.3448 0.0000
0.3448 1.3793 0.0000
0.3448 1.4138 0.0000
0.3448 1.4483 0.0000
0.3448 1.4828 0.0000
0.3448 1.5172 0.0000
0.3448 1.5517 0.0000
0.3448 1.5862 0.0000
0.3448 1.6207 0.0000
0.3448 1.6552 0.0000
0.3448 1.6897 0.0000
0.3448 1.7241 0.0000
0.3448 1.7586 0.0000
0.3448 1.7931 0.0000
0.3448 1.8276 0.0000
0.3448 1.8621 0.0000
0.3448 1.8966 0.0000
0.3448 1.9310 0.0000
0.3448 1.9655 0.0000
0.3448 2.0000 0.0000
0.4138 1.0000 0.0000
0.4138 1.0345 0.0000
0.4138 1.0690 0.0000
0.4138 1.1034 0.0000
0.4138 1.1379 0.0000
0.4138 1.1724 0.0000
0.4138 1.2069 0.0000
0.4138 1.2414 0.0000
0.4138 1.2759 0.0000
0.4138 1.3103 0.0000
0.4138 1.3448 0.0000
0.4138 1.3793 0.0000
0.4138 1.4138 0.0000
0.4138 1.4483 0.0000
0.4138 1.4828 0.0000
0.4138 1.5172 0.0000
0.4138 1.5517 0.0000
0.4138 1.5862 0.0000
0.4138 1.6207 0.0000
0.4138 1.6552 0.0000
0.4138 1.6897 0.0000
0.4138 1.7241 0.0000
0.4138 1.7586 0.0000
0.4138 1.7931 0.0000
0.4138 1.8276 0.0000
0.4138 1.8621 0.0000
0.4138 1.8966 0.0000
0.4138 1.9310 0.0000
0.4138 1.9655 0.0000
0.4138 2.0000 0.0000
0.4828 1.0000 0.0000
0.4828 1.0345 0.0000
0.4828 1.0690 0.0000
0.4828 1.1034 0.0000
0.4828 1.1379 0.0000
0.4828 1.1724 0.0000
0.4828 1.2069 0.0000
0.4828 1.2414 0.0000
0.4828 1.2759 0.0000
0.4828 1.3103 0.0000
0.4828 1.3448 0.0000
0.4828 1.3793 0.0000
0.4828 1.4138 0.0000
0.4828 1.4483 0.0000
0.4828 1.4828 0.0000
0.4828 1.5172 0.0000
0.4828 1.5517 0.0000
0.4828 1.5862 0.0000
0.4828 1.6207 0.0000
0.4828 1.6552 0.0000
0.4828 1.6897 0.0000
0.4828 1.7241 0.0000
0.4828 1.7586 0.0000
0.4828 1.7931 0.0000
0.4828 1.8276 0.0000
0.4828 1.8621 0.0000
0.4828 1.8966 0.0000
0.4828 1.9310 0.0000
0.4828 1.9655 0.0000
0.4828 2.0000 0.0000
0.5517 1.0000 0.0000
0.5517 1.0345 0.0000
0.5517 1.0690 0.0000
0.5517 1.1034 0.0000
0.5517 1.1379 0.0000
0.5517 1.1724 0.0000
0.5517 1.2069 0.0000
0.5517 1.2414 0.0000
0.5517 1.2759 0.0000
0.5517 1.3103 0.0000
0.5517 1.3448 0.0000
0.5517 1.3793 0.0000
0.5517 1.4138 0.0000
0.5517 1.4483 0.0000
0.5517 1.4828 0.0000
0.5517 1.5172 0.0000
0.5517 1.5517 0.0000
0.5517 1.5862 0.0000
0.5517 1.6207 0.0000
0.5517 1.6552 0.0000
0.5517 1.6897 0.0000
0.5517 1.7241 0.0000
0.5517 1.7586 0.0000
0.5517 1.7931 0.0000
0.5517 1.8276 0.0000
0.5517 1.8621 0.0000
0.5517 1.8966 0.0000
0.5517 1.9310 0.0000
0.5517 1.9655 0.0000
0.5517 2.0000 0.0000
0.6207 1.0000 0.0000
0.6207 1.0345 0.0000
0.6207 1.0690 0.0000
0.6207 1.1034 0.0000
0.6207 1.1379 0.0000
0.6207 1.1724 0.0000
0.6207 1.2069 0.0000
0.6207 1.2414 0.0000
0.6207 1.2759 0.0000
0.6207 1.3103 0.0000
0.6207 1.3448 0.0000
0.6207 1.3793 0.0000
0.6207 1.4138 0.0000
0.6207 1.4483 0.0000
0.6207 1.4828 0.0000
0.6207 1.5172 0.0000
0.6207 1.5517 0.0000
0.6207 1.5862 0.0000
0.6207 1.6207 0.0000
0.6207 1.6552 0.0000
0.6207 1.6897 0.0000
0.6207 1.7241 0.0000
0.6207 1.7586 0.0000
0.6207 1.7931 0.0000
0.6207 1.8276 0.0000
0.6207 1.8621 0.0000
0.6207 1.8966 0.0000
0.6207 1.9310 0.0000
0.6207 1.9655 0.0000
0.6207 2.0000 0.0000
0.6897 1.0000 0.0000
0.6897 1.0345 0.0000
0.6897 1.0690 0.0000
0.6897 1.1034 0.0000
0.6897 1.1379 0.0000
0.6897 1.1724 0.0000
0.6897 1.2069 0.0000
0.6897 1.2414 0.0000
0.6897 1.2759 0.0000
0.6897 1.3103 0.0000
0.6897 1.3448 0.0000
0.6897 1.3793 0.0000
0.6897 1.4138 0.0000
0.6897 1.4483 0.0000
0.6897 1.4828 0.0000
0.6897 1.5172 0.0000
0.6897 1.5517 0.0000
0.6897 1.5862 0.0000
0.6897 1.6207 0.0000
0.6897 1.6552 0.0000
0.6897 1.6897 0.0000
0.6897 1.7241 0.0000
0.6897 1.7586 0.0000
0.6897 1.7931 0.0000
0.6897 1.8276 0.0000
0.6897 1.8621 0.0000
0.6897 1.8966 0.0000
0.6897 1.9310 0.0000
0.6897 1.9655 0.0000
0.6897 2.0000 0.0000
0.7586 1.0000 0.0000
0.7586 1.0345 0.0000
0.7586 1.0690 0.0000
0.7586 1.1034 0.0000
0.7586 1.1379 0.0000
0.7586 1.1724 0.0000
0.7586 1.2069 0.0000
0.7586 1.2414 0.0000
0.7586 1.2759 0.0000
0.7586 1.3103 0.0000
0.7586 1.3448 0.0000
0.7586 1.3793 0.0000
0.7586 1.4138 0.0000
0.7586 1.4483 0.0000
0.7586 1.4828 0.0000
0.7586 1.5172 0.0000
0.7586 1.5517 0.0000
0.7586 1.5862 0.0000
0.7586 1.6207 0.0000
0.7586 1.6552 0.0000
0.7586 1.6897 0.0000
0.7586 1.7241 0.0000
0.7586 1.7586 0.0000
0.7586 1.7931 0.0000
0.7586 1.8276 0.0000
0.7586 1.8621 0.0000
0.7586 1.8966 0.0000
0.7586 1.9310 0.0000
0.7586 1.9655 0.0000
0.7586 2.0000 0.0000
0.8276 1.0000 0.0000
0.8276 1.0345 0.0000
0.8276 1.0690 0.0000
0.8276 1.1034 0.0000
0.8276 1.1379 0.0000
0.8276 1.1724 0.0000
0.8276 1.2069 0.0000
0.8276 1.2414 0.0000
0.8276 1.2759 0.0000
0.8276 1.3103 0.0000
0.8276 1.3448 0.0000
0.8276 1.3793 0.0000
0.8276 1.4138 0.0000
0.8276 1.4483 0.0000
0.8276 1.4828 0.0000
0.8276 1.5172 0.0000
0.8276 1.5517 0.0000
0.8276 1.5862 0.0000
0.8276 1.6207 0.0000
0.8276 1.6552 0.0000
0.8276 1.6897 0.0000
0.8276 1.7241 0.0000
0.8276 1.7586 0.0000
0.8276 1.7931 0.0000
0.8276 1.8276 0.0000
0.8276 1.8621 0.0000
0.8276 1.8966 0.0000
0.8276 1.9310 0.0000
0.8276 1.9655 0.0000
0.8276 2.0000 0.0000
0.8966 1.0000 0.0000
0.8966 1.0345 0.0000
0.8966 1.0690 0.0000
0.8966 1.1034 0.0000
0.8966 1.1379 0.0000
0.8966 1.1724 0.0000
0.8966 1.2069 0.0000
0.8966 1.2414 0.0000
0.8966 1.2759 0.0000
0.8966 1.3103 0.0000
0.8966 1.3448 0.0000
0.8966 1.3793 0.0000
0.8966 1.4138 0.0000
0.8966 1.4483 0.0000
0.8966 1.4828 0.0000
0.8966 1.5172 0.0000
0.8966 1.5517 0.0000
0.8966 1.5862 0.0000
0.8966 1.6207 0.0000
0.8966 1.6552 0.0000
0.8966 1.6897 0.0000
0.8966 1.7241 0.0000
0.8966 1.7586 0.0000
0.8966 1.7931 0.0000
0.8966 1.8276 0.0000
0.8966 1.8621 0.0000
0.8966 1.8966 0.0000
0.8966 1.9310 0.0000
0.8966 1.9655 0.0000
0.8966 2.0000 0.0000
0.9655 1.0000 0.0000
0.9655 1.0345 0.0000
0.9655 1.0690 0.0000
0.9655 1.1034 0.0000
0.9655 1.1379 0.0000
0.9655 1.1724 0.0000
0.9655 1.2069 0.0000
0.9655 1.2414 0.0000
0.9655 1.2759 0.0000
0.9655 1.3103 0.0000
0.9655 1.3448 0.0000
0.9655 1.3793 0.0000
0.9655 1.4138 0.0000
0.9655 1.4483 0.0000
0.9655 1.4828 0.0000
0.9655 1.5172 0.0000
0.9655 1.5517 0.0000
0.9655 1.5862 0.0000
0.9655 1.6207 0.0000
0.9655 1.6552 0.0000
0.9655 1.6897 0.0000
0.9655 1.7241 0.0000
0.9655 1.7586 0.0000
0.9655 1.7931 0.0000
0.9655 1.8276 0.0000
0.9655 1.8621 0.0000
0.9655 1.8966 0.0000
0.9655 1.9310 0.0000
0.9655 1.9655 0.0000
0.9655 2.0000 0.0000
1.0345 1.0000 0.0000
1.0345 1.0345 0.0000
1.0345 1.0690 0.0000
1.0345 1.1034 0.0000
1.0345 1.1379 0.0000
1.0345 1.1724 0.0000
1.0345 1.2069 0.0000
1.0345 1.2414 0.0000
1.0345 1.2759 0.0000
1.0345 1.3103 0.0000
1.0345 1.3448 0.0000
[...]
         <PointData>
            <DataArray Name="fValues" NumberOfComponents="3" format="ascii" type="Float64">
 1.38452e-15 -1.38452e-15        00000 
 3.76793e-16 -3.76793e-16        00000 
 8.38354e-16 -4.65752e-17        00000 
-6.75887e-16  8.77775e-17        00000 
 2.32876e-16  4.65752e-17        00000 
-1.93451e-16 -1.12273e-15        00000 
 3.72602e-16  5.58903e-16        00000 
 3.10147e-16 -5.00332e-16        00000 
-2.79451e-16 -9.31504e-17        00000 
 1.35629e-16  3.31456e-16        00000 
 1.39726e-16 -9.31504e-17        00000 
-3.87684e-17 -1.37518e-16        00000 
 2.67807e-16 -5.12327e-16        00000 
-1.67299e-16  4.48691e-16        00000 
 1.04794e-16 -4.19177e-16        00000 
 2.26759e-17  1.78481e-16        00000 
-1.16438e-17 -9.31504e-17        00000 
 5.20309e-17  4.36160e-16        00000 
 9.31504e-17 -1.86301e-16        00000 
 1.49222e-16  3.86221e-16        00000 
 5.12327e-16 -3.26026e-16        00000 
-6.20166e-16  8.04166e-16        00000 
       00000        00000        00000 
 3.01369e-16 -2.04814e-16        00000 
 3.72602e-16 -4.65752e-17        00000 
-1.55703e-16  8.18868e-16        00000 
-5.58903e-16  6.05478e-16        00000 
-3.75216e-16 -1.11392e-16        00000 
 5.40209e-16 -1.06867e-15        00000 
-6.27958e-16  5.13622e-16        00000 
-1.25261e+01 -9.26536e+00        00000 
-9.00176e+00 -7.45044e+00        00000 
-7.29800e+00 -6.36297e+00        00000 
-6.32789e+00 -5.63937e+00        00000 
-5.59926e+00 -5.14929e+00        00000 
-4.85438e+00 -4.74933e+00        00000 
-4.35808e+00 -4.54268e+00        00000 
-3.62084e+00 -4.47409e+00        00000 
-3.14392e+00 -4.33643e+00        00000 
-2.55513e+00 -4.36851e+00        00000 
-2.12256e+00 -4.34927e+00        00000 
-1.82999e+00 -4.27133e+00        00000 
-1.48509e+00 -4.17119e+00        00000 
-1.05637e+00 -4.10152e+00        00000 
-6.36553e-01 -3.99853e+00        00000 
-8.13260e-02 -3.92506e+00        00000 
 5.10148e-01 -3.83088e+00        00000 
 9.23849e-01 -3.78816e+00        00000 
 1.24320e+00 -3.81401e+00        00000 
 1.66877e+00 -3.73341e+00        00000 
 2.18768e+00 -3.62797e+00        00000 
 2.94619e+00 -3.62555e+00        00000 
 3.55416e+00 -3.63948e+00        00000 
 4.38462e+00 -3.73205e+00        00000 
 4.97111e+00 -4.01652e+00        00000 
 5.76573e+00 -4.43757e+00        00000 
 6.53037e+00 -5.02287e+00        00000 
 7.60198e+00 -5.78126e+00        00000 
 9.28577e+00 -6.94958e+00        00000 
 1.24861e+01 -8.87673e+00        00000 
-2.13491e+01 -1.72679e+01        00000 
-1.79012e+01 -1.58471e+01        00000 
-1.52057e+01 -1.44600e+01        00000 
-1.31629e+01 -1.32963e+01        00000 
-1.14782e+01 -1.22972e+01        00000 
-1.01214e+01 -1.16970e+01        00000 
-8.68728e+00 -1.12331e+01        00000 
-7.51865e+00 -1.08421e+01        00000 
-6.33283e+00 -1.05852e+01        00000 
-5.14013e+00 -1.03496e+01        00000 
-4.38465e+00 -1.02404e+01        00000 
-3.73024e+00 -1.01775e+01        00000 
-3.05376e+00 -9.99714e+00        00000 
-2.19860e+00 -9.85390e+00        00000 
-1.26579e+00 -9.72205e+00        00000 
-2.74400e-01 -9.59970e+00        00000 
 7.48530e-01 -9.46933e+00        00000 
 1.67800e+00 -9.37256e+00        00000 
 2.53603e+00 -9.27190e+00        00000 
 3.35873e+00 -9.21462e+00        00000 
 4.41641e+00 -9.17674e+00        00000 
 5.86028e+00 -9.20127e+00        00000 
 7.27142e+00 -9.43473e+00        00000 
 8.70208e+00 -9.71038e+00        00000 
 1.02904e+01 -1.00585e+01        00000 
 1.17945e+01 -1.07305e+01        00000 
 1.37153e+01 -1.16972e+01        00000 
 1.59144e+01 -1.29029e+01        00000 
 1.86530e+01 -1.43295e+01        00000 
 2.20182e+01 -1.58387e+01        00000 
-2.92289e+01 -2.48677e+01        00000 
-2.55173e+01 -2.36476e+01        00000 
-2.25153e+01 -2.23545e+01        00000 
-1.98161e+01 -2.12599e+01        00000 
-1.73961e+01 -2.03156e+01        00000 
-1.52583e+01 -1.94725e+01        00000 
-1.32695e+01 -1.89465e+01        00000 
-1.15374e+01 -1.84465e+01        00000 
-9.78478e+00 -1.79522e+01        00000 
-8.31780e+00 -1.73877e+01        00000 
-6.87106e+00 -1.68752e+01        00000 
-5.56973e+00 -1.65535e+01        00000 
-4.38832e+00 -1.63674e+01        00000 
-3.19326e+00 -1.61246e+01        00000 
-1.88520e+00 -1.60106e+01        00000 
-4.97377e-01 -1.58957e+01        00000 
 8.37686e-01 -1.57594e+01        00000 
 2.26851e+00 -1.57268e+01        00000 
 3.76321e+00 -1.57702e+01        00000 
 5.46391e+00 -1.58926e+01        00000 
 7.24204e+00 -1.62527e+01        00000 
 9.00631e+00 -1.66500e+01        00000 
 1.11382e+01 -1.70660e+01        00000 
 1.32658e+01 -1.74758e+01        00000 
 1.54903e+01 -1.79208e+01        00000 
 1.79821e+01 -1.86803e+01        00000 
 2.06456e+01 -1.97209e+01        00000 
 2.36176e+01 -2.08768e+01        00000 
 2.68642e+01 -2.20833e+01        00000 
 3.07482e+01 -2.34512e+01        00000 
-3.62123e+01 -3.27079e+01        00000 
-3.25647e+01 -3.14724e+01        00000 
-2.90754e+01 -3.03908e+01        00000 
-2.57973e+01 -2.93844e+01        00000 
-2.29447e+01 -2.84644e+01        00000 
-2.02360e+01 -2.76876e+01        00000 
-1.78183e+01 -2.68978e+01        00000 
-1.55485e+01 -2.62043e+01        00000 
-1.34104e+01 -2.55424e+01        00000 
-1.15442e+01 -2.48984e+01        00000 
-9.58206e+00 -2.42900e+01        00000 
-7.59898e+00 -2.38745e+01        00000 
-5.77208e+00 -2.35664e+01        00000 
-4.07938e+00 -2.32472e+01        00000 
-2.32796e+00 -2.31001e+01        00000 
-6.15954e-01 -2.30395e+01        00000 
 1.18733e+00 -2.30115e+01        00000 
 3.15543e+00 -2.31574e+01        00000 
 5.36772e+00 -2.33701e+01        00000 
 7.71775e+00 -2.37181e+01        00000 
 1.01404e+01 -2.41033e+01        00000 
 1.24655e+01 -2.46467e+01        00000 
 1.50345e+01 -2.52465e+01        00000 
 1.77053e+01 -2.58172e+01        00000 
 2.06238e+01 -2.65571e+01        00000 
 2.37680e+01 -2.74412e+01        00000 
 2.71438e+01 -2.84266e+01        00000 
 3.07812e+01 -2.95689e+01        00000 
 3.47360e+01 -3.08379e+01        00000 
 3.89675e+01 -3.22293e+01        00000 
-4.36231e+01 -4.09656e+01        00000 
-3.91871e+01 -4.00639e+01        00000 
-3.51189e+01 -3.92096e+01        00000 
-3.13457e+01 -3.83223e+01        00000 
-2.80543e+01 -3.75943e+01        00000 
-2.49130e+01 -3.68044e+01        00000 
-2.20360e+01 -3.60676e+01        00000 
-1.93396e+01 -3.54513e+01        00000 
-1.69302e+01 -3.48191e+01        00000 
-1.44390e+01 -3.42278e+01        00000 
-1.21768e+01 -3.37616e+01        00000 
-9.64299e+00 -3.33134e+01        00000 
-7.32311e+00 -3.28895e+01        00000 
-5.10006e+00 -3.26657e+01        00000 
-2.82570e+00 -3.24858e+01        00000 
-6.81087e-01 -3.24259e+01        00000 
 1.81587e+00 -3.24627e+01        00000 
 4.44016e+00 -3.26207e+01        00000 
 7.20202e+00 -3.29846e+01        00000 
 1.01236e+01 -3.33891e+01        00000 
 1.28299e+01 -3.38599e+01        00000 
 1.58424e+01 -3.44261e+01        00000 
 1.87632e+01 -3.50328e+01        00000 
 2.20236e+01 -3.56768e+01        00000 
 2.55669e+01 -3.64377e+01        00000 
 2.93406e+01 -3.71927e+01        00000 
 3.32552e+01 -3.80915e+01        00000 
 3.76209e+01 -3.91383e+01        00000 
 4.21733e+01 -4.01311e+01        00000 
 4.68517e+01 -4.12917e+01        00000 
-4.96383e+01 -5.06110e+01        00000 
-4.49396e+01 -4.97061e+01        00000 
-4.06246e+01 -4.87691e+01        00000 
-3.65358e+01 -4.79514e+01        00000 
-3.25756e+01 -4.71056e+01        00000 
-2.91783e+01 -4.64413e+01        00000 
-2.61251e+01 -4.58935e+01        00000 
-2.30023e+01 -4.52315e+01        00000 
-1.99646e+01 -4.47803e+01        00000 
-1.70726e+01 -4.44963e+01        00000 
-1.42116e+01 -4.42958e+01        00000 
-1.15836e+01 -4.39790e+01        00000 
-8.88468e+00 -4.36636e+01        00000 
-6.13895e+00 -4.34258e+01        00000 
-3.44782e+00 -4.32520e+01        00000 
-4.08786e-01 -4.32156e+01        00000 
 2.49660e+00 -4.33590e+01        00000 
 5.66840e+00 -4.35975e+01        00000 
 8.83756e+00 -4.38250e+01        00000 
 1.20484e+01 -4.41222e+01        00000 
 1.54756e+01 -4.43908e+01        00000 
 1.89398e+01 -4.47052e+01        00000 
 2.25891e+01 -4.52277e+01        00000 
 2.64617e+01 -4.59516e+01        00000 
 3.02234e+01 -4.66365e+01        00000 
 3.44001e+01 -4.74027e+01        00000 
 3.90117e+01 -4.83430e+01        00000 
 4.38363e+01 -4.92148e+01        00000 
 4.87388e+01 -5.02095e+01        00000 
 5.38885e+01 -5.12117e+01        00000 
-5.52956e+01 -5.98960e+01        00000 
-5.04295e+01 -5.89403e+01        00000 
-4.57614e+01 -5.81333e+01        00000 
-4.12727e+01 -5.73996e+01        00000 
-3.69476e+01 -5.67163e+01        00000 
-3.31108e+01 -5.60441e+01        00000 
-2.96212e+01 -5.55999e+01        00000 
-2.62475e+01 -5.54069e+01        00000 
-2.27942e+01 -5.50976e+01        00000 
-1.93430e+01 -5.49159e+01        00000 
-1.59648e+01 -5.47740e+01        00000 
-1.29893e+01 -5.46094e+01        00000 
-1.00688e+01 -5.44905e+01        00000 
-6.96517e+00 -5.43797e+01        00000 
-3.71371e+00 -5.44413e+01        00000 
-3.71664e-01 -5.44994e+01        00000 
 3.23026e+00 -5.45602e+01        00000 
 6.74720e+00 -5.47522e+01        00000 
 1.02192e+01 -5.50015e+01        00000 
 1.38627e+01 -5.52695e+01        00000 
 1.78796e+01 -5.56093e+01        00000 
 2.19760e+01 -5.59879e+01        00000 
 2.61608e+01 -5.63788e+01        00000 
 3.03754e+01 -5.68031e+01        00000 
 3.47063e+01 -5.73843e+01        00000 
 3.92958e+01 -5.81275e+01        00000 
 4.42813e+01 -5.89642e+01        00000 
 4.94332e+01 -5.98310e+01        00000 
 5.48425e+01 -6.06889e+01        00000 
 6.04841e+01 -6.17124e+01        00000 
-6.09589e+01 -7.05377e+01        00000 
-5.56360e+01 -6.95575e+01        00000 
-5.04532e+01 -6.87509e+01        00000 
-4.57113e+01 -6.78966e+01        00000 
-4.11833e+01 -6.72286e+01        00000 
-3.68562e+01 -6.66909e+01        00000 
-3.27625e+01 -6.63298e+01        00000 
-2.90257e+01 -6.60812e+01        00000 
-2.52938e+01 -6.58078e+01        00000 
-2.14992e+01 -6.56427e+01        00000 
-1.78484e+01 -6.55706e+01        00000 
-1.42973e+01 -6.55518e+01        00000 
-1.09237e+01 -6.56084e+01        00000 
-7.34534e+00 -6.57985e+01        00000 
-3.69637e+00 -6.60654e+01        00000 
-1.79775e-01 -6.62047e+01        00000 
 3.75586e+00 -6.63765e+01        00000 
 7.75649e+00 -6.65244e+01        00000 
 1.16817e+01 -6.66793e+01        00000 
 1.58770e+01 -6.68961e+01        00000 
 2.02753e+01 -6.72101e+01        00000 
 2.48646e+01 -6.76255e+01        00000 
 2.94633e+01 -6.80061e+01        00000 
 3.40239e+01 -6.85869e+01        00000 
 3.88964e+01 -6.91603e+01        00000 
 4.40004e+01 -6.98940e+01        00000 
 4.92637e+01 -7.07103e+01        00000 
 5.46888e+01 -7.16438e+01        00000 
 6.04482e+01 -7.26824e+01        00000 
 6.64163e+01 -7.37074e+01        00000 
-6.60942e+01 -8.18030e+01        00000 
-6.06783e+01 -8.08704e+01        00000 
-5.51572e+01 -8.00845e+01        00000 
-5.01373e+01 -7.94138e+01        00000 
-4.53448e+01 -7.87936e+01        00000 
-4.05778e+01 -7.83994e+01        00000 
-3.59894e+01 -7.80438e+01        00000 
-3.16523e+01 -7.77093e+01        00000 
-2.75575e+01 -7.76942e+01        00000 
-2.36022e+01 -7.76749e+01        00000 
-1.96647e+01 -7.75364e+01        00000 
-1.56913e+01 -7.74678e+01        00000 
-1.16528e+01 -7.75624e+01        00000 
-7.70659e+00 -7.77837e+01        00000 
-3.70773e+00 -7.80149e+01        00000 
 4.28210e-01 -7.83925e+01        00000 
 4.50939e+00 -7.87803e+01        00000 
 8.80597e+00 -7.91068e+01        00000 
 1.33306e+01 -7.95632e+01        00000 
 1.79376e+01 -8.00876e+01        00000 
 2.26809e+01 -8.06232e+01        00000 
 2.74712e+01 -8.10684e+01        00000 
 3.23568e+01 -8.14877e+01        00000 
 3.74892e+01 -8.20036e+01        00000 
 4.27347e+01 -8.25508e+01        00000 
 4.82323e+01 -8.30611e+01        00000 
 5.38323e+01 -8.36862e+01        00000 
 5.95906e+01 -8.44048e+01        00000 
 6.56500e+01 -8.53115e+01        00000 
 7.17285e+01 -8.61294e+01        00000 
-7.17805e+01 -9.38896e+01        00000 
-6.55988e+01 -9.30513e+01        00000 
-5.99474e+01 -9.23620e+01        00000 
-5.44837e+01 -9.16735e+01        00000 
-4.93561e+01 -9.11551e+01        00000 
-4.41544e+01 -9.07819e+01        00000 
-3.92456e+01 -9.04050e+01        00000 
-3.45073e+01 -9.00032e+01        00000 
-2.99509e+01 -8.97381e+01        00000 
-2.56417e+01 -8.94792e+01        00000 
-2.13751e+01 -8.93608e+01        00000 
-1.69171e+01 -8.94072e+01        00000 
-1.22860e+01 -8.95945e+01        00000 
-7.91759e+00 -8.99221e+01        00000 
-3.46425e+00 -9.01350e+01        00000 
 9.68672e-01 -9.05202e+01        00000 
 5.52984e+00 -9.09736e+01        00000 
 1.00842e+01 -9.14285e+01        00000 
 1.50729e+01 -9.19578e+01        00000 
 2.01427e+01 -9.25066e+01        00000 
 2.51130e+01 -9.31447e+01        00000 
 3.02069e+01 -9.38189e+01        00000 
 3.54911e+01 -9.45281e+01        00000 
 4.09150e+01 -9.52047e+01        00000 
 4.64467e+01 -9.58843e+01        00000 
 5.22013e+01 -9.64827e+01        00000 
 5.80215e+01 -9.70883e+01        00000 
 6.41054e+01 -9.77339e+01        00000 
 7.04858e+01 -9.84731e+01        00000 
 7.71646e+01 -9.92881e+01        00000 
-7.60705e+01 -1.06645e+02        00000 
-7.02357e+01 -1.05782e+02        00000 
-6.44023e+01 -1.05027e+02        00000 
-5.87444e+01 -1.04383e+02        00000 
-5.30298e+01 -1.03933e+02        00000 
-4.76408e+01 -1.03535e+02        00000 
-4.25085e+01 -1.03099e+02        00000 
-3.73724e+01 -1.02812e+02        00000 
-3.24758e+01 -1.02430e+02        00000 
-2.75072e+01 -1.02355e+02        00000 
-2.27415e+01 -1.02465e+02        00000 
-1.78271e+01 -1.02513e+02        00000 
-1.29012e+01 -1.02702e+02        00000 
-8.10897e+00 -1.02992e+02        00000 
-3.21051e+00 -1.03350e+02        00000 
 1.59814e+00 -1.03720e+02        00000 
 6.52658e+00 -1.04120e+02        00000 
 1.15696e+01 -1.04686e+02        00000 
 1.67619e+01 -1.05245e+02        00000 
 2.20857e+01 -1.05835e+02        00000 
 2.74493e+01 -1.06384e+02        00000 
 3.30194e+01 -1.06920e+02        00000 
 3.85955e+01 -1.07626e+02        00000 
 4.42238e+01 -1.08383e+02        00000 
 5.00007e+01 -1.09160e+02        00000 
 5.59469e+01 -1.09934e+02        00000 
 6.21927e+01 -1.10605e+02        00000 
 6.83817e+01 -1.11398e+02        00000 
 7.48855e+01 -1.12209e+02        00000 
 8.14997e+01 -1.13009e+02        00000 
-8.08129e+01 -1.18983e+02        00000 
-7.46017e+01 -1.18194e+02        00000 
-6.85310e+01 -1.17593e+02        00000 
-6.26146e+01 -1.17154e+02        00000 
-5.65758e+01 -1.16770e+02        00000 
-5.09317e+01 -1.16432e+02        00000 
-4.53517e+01 -1.16068e+02        00000 
-3.99976e+01 -1.15886e+02        00000 
-3.45426e+01 -1.15851e+02        00000 
-2.92938e+01 -1.15813e+02        00000 
-2.40806e+01 -1.15844e+02        00000 
-1.87862e+01 -1.16026e+02        00000 
-1.36029e+01 -1.16249e+02        00000 
-8.30245e+00 -1.16512e+02        00000 
-3.03316e+00 -1.16881e+02        00000 
 2.32517e+00 -1.17265e+02        00000 
 7.70024e+00 -1.17747e+02        00000 
 1.31120e+01 -1.18273e+02        00000 
 1.86281e+01 -1.18823e+02        00000 
 2.41207e+01 -1.19516e+02        00000 
 2.97865e+01 -1.20278e+02        00000 
 3.54760e+01 -1.20905e+02        00000 
 4.13540e+01 -1.21493e+02        00000 
 4.73315e+01 -1.22148e+02        00000 
 5.33931e+01 -1.22858e+02        00000 
 5.95473e+01 -1.23541e+02        00000 
 6.58992e+01 -1.24213e+02        00000 
 7.23220e+01 -1.24950e+02        00000 
 7.88883e+01 -1.25788e+02        00000 
 8.54309e+01 -1.26576e+02        00000 
-8.54913e+01 -1.32288e+02        00000 
-7.89208e+01 -1.31619e+02        00000 
-7.24629e+01 -1.31129e+02        00000 
-6.62084e+01 -1.30743e+02        00000 
-6.01510e+01 -1.30362e+02        00000 
-5.42135e+01 -1.29987e+02        00000 
-4.82954e+01 -1.29804e+02        00000 
-4.24244e+01 -1.29502e+02        00000 
-3.66314e+01 -1.29439e+02        00000 
-3.11814e+01 -1.29448e+02        00000 
-2.55644e+01 -1.29542e+02        00000 
-1.98980e+01 -1.29815e+02        00000 
-1.41946e+01 -1.30061e+02        00000 
-8.47528e+00 -1.30312e+02        00000 
-2.82766e+00 -1.30658e+02        00000 
 2.92827e+00 -1.31044e+02        00000 
 8.73263e+00 -1.31617e+02        00000 
 1.46168e+01 -1.32153e+02        00000 
 2.04637e+01 -1.32627e+02        00000 
 2.64034e+01 -1.33156e+02        00000 
 3.22737e+01 -1.33732e+02        00000 
 3.79864e+01 -1.34425e+02        00000 
 4.40401e+01 -1.35149e+02        00000 
 5.02746e+01 -1.35917e+02        00000 
 5.67461e+01 -1.36645e+02        00000 
 6.30464e+01 -1.37422e+02        00000 
 6.95076e+01 -1.38171e+02        00000 
 7.60854e+01 -1.38813e+02        00000 
 8.27952e+01 -1.39460e+02        00000 
 8.96276e+01 -1.40174e+02        00000 
-9.00326e+01 -1.46245e+02        00000 
-8.28304e+01 -1.45674e+02        00000 
-7.60383e+01 -1.45302e+02        00000 
-6.96490e+01 -1.45030e+02        00000 
-6.34350e+01 -1.44679e+02        00000 
-5.72193e+01 -1.44440e+02        00000 
-5.11441e+01 -1.44118e+02        00000 
-4.49216e+01 -1.43867e+02        00000 
-3.88553e+01 -1.43750e+02        00000 
-3.27626e+01 -1.43848e+02        00000 
-2.67056e+01 -1.44067e+02        00000 
-2.07683e+01 -1.44223e+02        00000 
-1.47972e+01 -1.44404e+02        00000 
-8.90044e+00 -1.44668e+02        00000 
-2.78648e+00 -1.44938e+02        00000 
 3.63925e+00 -1.45361e+02        00000 
 9.82531e+00 -1.45832e+02        00000 
 1.59036e+01 -1.46392e+02        00000 
 2.20506e+01 -1.46974e+02        00000 
 2.82422e+01 -1.47530e+02        00000 
 3.44143e+01 -1.48123e+02        00000 
 4.06746e+01 -1.48732e+02        00000 
 4.69836e+01 -1.49542e+02        00000 
 5.33434e+01 -1.50388e+02        00000 
 5.97099e+01 -1.51106e+02        00000 
 6.62501e+01 -1.51711e+02        00000 
 7.28897e+01 -1.52318e+02        00000 
 7.94462e+01 -1.52874e+02        00000 
 8.61972e+01 -1.53308e+02        00000 
 9.31304e+01 -1.53825e+02        00000 
-9.39888e+01 -1.61435e+02        00000 
-8.65761e+01 -1.60717e+02        00000 
-7.94681e+01 -1.60200e+02        00000 
-7.27065e+01 -1.59742e+02        00000 
-6.63261e+01 -1.59404e+02        00000 
-6.00508e+01 -1.59062e+02        00000 
-5.35671e+01 -1.58648e+02        00000 
-4.72547e+01 -1.58551e+02        00000 
-4.06678e+01 -1.58497e+02        00000 
-3.41700e+01 -1.58571e+02        00000 
-2.78906e+01 -1.58707e+02        00000 
-2.16066e+01 -1.58879e+02        00000 
-1.54079e+01 -1.59148e+02        00000 
-9.12687e+00 -1.59470e+02        00000 
-2.63357e+00 -1.59797e+02        00000 
 3.96065e+00 -1.60196e+02        00000 
 1.05424e+01 -1.60508e+02        00000 
 1.69571e+01 -1.60855e+02        00000 
 2.33978e+01 -1.61269e+02        00000 
 2.97641e+01 -1.61680e+02        00000 
 3.63066e+01 -1.62224e+02        00000 
 4.29926e+01 -1.62807e+02        00000 
 4.96375e+01 -1.63403e+02        00000 
 5.61176e+01 -1.64147e+02        00000 
 6.25665e+01 -1.65008e+02        00000 
 6.91261e+01 -1.65692e+02        00000 
 7.56675e+01 -1.66293e+02        00000 
 8.24414e+01 -1.66916e+02        00000 
 8.92116e+01 -1.67558e+02        00000 
 9.61693e+01 -1.68130e+02        00000 
-9.80462e+01 -1.76958e+02        00000 
-9.03904e+01 -1.76271e+02        00000 
-8.30724e+01 -1.75632e+02        00000 
-7.60118e+01 -1.74997e+02        00000 
-6.92342e+01 -1.74573e+02        00000 
-6.26284e+01 -1.74321e+02        00000 
-5.60310e+01 -1.74295e+02        00000 
-4.91973e+01 -1.74141e+02        00000 
-4.25690e+01 -1.74058e+02        00000 
-3.58069e+01 -1.74122e+02        00000 
-2.90904e+01 -1.74314e+02        00000 
-2.24774e+01 -1.74504e+02        00000 
-1.60456e+01 -1.74654e+02        00000 
-9.41441e+00 -1.74844e+02        00000 
-2.58004e+00 -1.75127e+02        00000 
 4.07357e+00 -1.75363e+02        00000 
 1.09636e+01 -1.75619e+02        00000 