<?xml version="1.0" encoding="utf-8"?>
<VTKFile byte_order="LittleEndian" type="UnstructuredGrid" version="0.1">
   <UnstructuredGrid>
      <Piece NumberOfCells="3364" NumberOfPoints="1741">
         <Points>
            <DataArray Name="Points" NumberOfComponents="3" format="ascii" type="Float32">
0.0000 1.0000 0.0000
0.0000 1.0345 0.0000
0.0000 1.0690 0.0000
0.0000 1.1034 0.0000
0.0000 1.1379 0.0000
0.0000 1.1724 0.0000
0.0000 1.2069 0.0000
0.0000 1.2414 0.0000
0.0000 1.2759 0.0000
0.0000 1.3103 0.0000
0.0000 1.3448 0.0000
0.0000 1.3793 0.0000
0.0000 1.4138 0.0000
0.0000 1.4483 0.0000
0.0000 1.4828 0.0000
0.0000 1.5172 0.0000
0.0000 1.5517 0.0000
0.0000 1.5862 0.0000
0.0000 1.6207 0.0000
0.0000 1.6552 0.0000
0.0000 1.6897 0.0000
0.0000 1.7241 0.0000
0.0000 1.7586 0.0000
0.0000 1.7931 0.0000
0.0000 1.8276 0.0000
0.0000 1.8621 0.0000
0.0000 1.8966 0.0000
0.0000 1.9310 0.0000
0.0000 1.9655 0.0000
0.0000 2.0000 0.0000
0.0690 1.0000 0.0000
0.0690 1.0345 0.0000
0.0690 1.0690 0.0000
0.0690 1.1034 0.0000
0.0690 1.1379 0.0000
0.0690 1.1724 0.0000
0.0690 1.2069 0.0000
0.0690 1.2414 0.0000
0.0690 1.2759 0.0000
0.0690 1.3103 0.0000
0.0690 1.3448 0.0000
0.0690 1.3793 0.0000
0.0690 1.4138 0.0000
0.0690 1.4483 0.0000
0.0690 1.4828 0.0000
0.0690 1.5172 0.0000
0.0690 1.5517 0.0000
0.0690 1.5862 0.0000
0.0690 1.6207 0.0000
0.0690 1.6552 0.0000
0.0690 1.6897 0.0000
0.0690 1.7241 0.0000
0.0690 1.7586 0.0000
0.0690 1.7931 0.0000
0.0690 1.8276 0.0000
0.0690 1.8621 0.0000
0.0690 1.8966 0.0000
0.0690 1.9310 0.0000
0.0690 1.9655 0.0000
0.0690 2.0000 0.0000
0.1379 1.0000 0.0000
0.1379 1.0345 0.0000
0.1379 1.0690 0.0000
0.1379 1.1034 0.0000
0.1379 1.1379 0.0000
0.1379 1.1724 0.0000
0.1379 1.2069 0.0000
0.1379 1.2414 0.0000
0.1379 1.2759 0.0000
0.1379 1.3103 0.0000
0.1379 1.3448 0.0000
0.1379 1.3793 0.0000
0.1379 1.4138 0.0000
0.1379 1.4483 0.0000
0.1379 1.4828 0.0000
0.1379 1.5172 0.0000
0.1379 1.5517 0.0000
0.1379 1.5862 0.0000
0.1379 1.6207 0.0000
0.1379 1.6552 0.0000
0.1379 1.6897 0.0000
0.1379 1.7241 0.0000
0.1379 1.7586 0.0000
0.1379 1.7931 0.0000
0.1379 1.8276 0.0000
0.1379 1.8621 0.0000
0.1379 1.8966 0.0000
0.1379 1.9310 0.0000
0.1379 1.9655 0.0000
0.1379 2.0000 0.0000
0.2069 1.0000 0.0000
0.2069 1.0345 0.0000
0.2069 1.0690 0.0000
0.2069 1.1034 0.0000
0.2069 1.1379 0.0000
0.2069 1.1724 0.0000
0.2069 1.2069 0.0000
0.2069 1.2414 0.0000
0.2069 1.2759 0.0000
0.2069 1.3103 0.0000
0.2069 1.3448 0.0000
0.2069 1.3793 0.0000
0.2069 1.4138 0.0000
0.2069 1.4483 0.0000
0.2069 1.4828 0.0000
0.2069 1.5172 0.0000
0.2069 1.5517 0.0000
0.2069 1.5862 0.0000
0.2069 1.6207 0.0000
0.2069 1.6552 0.0000
0.2069 1.6897 0.0000
0.2069 1.7241 0.0000
0.2069 1.7586 0.0000
0.2069 1.7931 0.0000
0.2069 1.8276 0.0000
0.2069 1.8621 0.0000
0.2069 1.8966 0.0000
0.2069 1.9310 0.0000
0.2069 1.9655 0.0000
0.2069 2.0000 0.0000
0.2759 1.0000 0.0000
0.2759 1.0345 0.0000
0.2759 1.0690 0.0000
0.2759 1.1034 0.0000
0.2759 1.1379 0.0000
0.2759 1.1724 0.0000
0.2759 1.2069 0.0000
0.2759 1.2414 0.0000
0.2759 1.2759 0.0000
0.2759 1.3103 0.0000
0.2759 1.3448 0.0000
0.2759 1.3793 0.0000
0.2759 1.4138 0.0000
0.2759 1.4483 0.0000
0.2759 1.4828 0.0000
0.2759 1.5172 0.0000
0.2759 1.5517 0.0000
0.2759 1.5862 0.0000
0.2759 1.6207 0.0000
0.2759 1.6552 0.0000
0.2759 1.6897 0.0000
0.2759 1.7241 0.0000
0.2759 1.7586 0.0000
0.2759 1.7931 0.0000
0.2759 1.8276 0.0000
0.2759 1.8621 0.0000
0.2759 1.8966 0.0000
0.2759 1.9310 0.0000
0.2759 1.9655 0.0000
0.2759 2.0000 0.0000
0.3448 1.0000 0.0000
0.3448 1.0345 0.0000
0.3448 1.0690 0.0000
0.3448 1.1034 0.0000
0.3448 1.1379 0.0000
0.3448 1.1724 0.0000
0.3448 1.2069 0.0000
0.3448 1.2414 0.0000
0.3448 1.2759 0.0000
0.3448 1.3103 0.0000
0.3448 1.3448 0.0000
0.3448 1.3793 0.0000
0.3448 1.4138 0.0000
0.3448 1.4483 0.0000
0.3448 1.4828 0.0000
0.3448 1.5172 0.0000
0.3448 1.5517 0.0000
0.3448 1.5862 0.0000
0.3448 1.6207 0.0000
0.3448 1.6552 0.0000
0.3448 1.6897 0.0000
0.3448 1.7241 0.0000
0.3448 1.7586 0.0000
0.3448 1.7931 0.0000
0.3448 1.8276 0.0000
0.3448 1.8621 0.0000
0.3448 1.8966 0.0000
0.3448 1.9310 0.0000
0.3448 1.9655 0.0000
0.3448 2.0000 0.0000
0.4138 1.0000 0.0000
0.4138 1.0345 0.0000
0.4138 1.0690 0.0000
0.4138 1.1034 0.0000
0.4138 1.1379 0.0000
0.4138 1.1724 0.0000
0.4138 1.2069 0.0000
0.4138 1.2414 0.0000
0.4138 1.2759 0.0000
0.4138 1.3103 0.0000
0.4138 1.3448 0.0000
0.4138 1.3793 0.0000
0.4138 1.4138 0.0000
0.4138 1.4483 0.0000
0.4138 1.4828 0.0000
0.4138 1.5172 0.0000
0.4138 1.5517 0.0000
0.4138 1.5862 0.0000
0.4138 1.6207 0.0000
0.4138 1.6552 0.0000
0.4138 1.6897 0.0000
0.4138 1.7241 0.0000
0.4138 1.7586 0.0000
0.4138 1.7931 0.0000
0.4138 1.8276 0.0000
0.4138 1.8621 0.0000
0.4138 1.8966 0.0000
0.4138 1.9310 0.0000
0.4138 1.9655 0.0000
0.4138 2.0000 0.0000
0.4828 1.0000 0.0000
0.4828 1.0345 0.0000
0.4828 1.0690 0.0000
0.4828 1.1034 0.0000
0.4828 1.1379 0.0000
0.4828 1.1724 0.0000
0.4828 1.2069 0.0000
0.4828 1.2414 0.0000
0.4828 1.2759 0.0000
0.4828 1.3103 0.0000
0.4828 1.3448 0.0000
0.4828 1.3793 0.0000
0.4828 1.4138 0.0000
0.4828 1.4483 0.0000
0.4828 1.4828 0.0000
0.4828 1.5172 0.0000
0.4828 1.5517 0.0000
0.4828 1.5862 0.0000
0.4828 1.6207 0.0000
0.4828 1.6552 0.0000
0.4828 1.6897 0.0000
0.4828 1.7241 0.0000
0.4828 1.7586 0.0000
0.4828 1.7931 0.0000
0.4828 1.8276 0.0000
0.4828 1.8621 0.0000
0.4828 1.8966 0.0000
0.4828 1.9310 0.0000
0.4828 1.9655 0.0000
0.4828 2.0000 0.0000
0.5517 1.0000 0.0000
0.5517 1.0345 0.0000
0.5517 1.0690 0.0000
0.5517 1.1034 0.0000
0.5517 1.1379 0.0000
0.5517 1.1724 0.0000
0.5517 1.2069 0.0000
0.5517 1.2414 0.0000
0.5517 1.2759 0.0000
0.5517 1.3103 0.0000
0.5517 1.3448 0.0000
0.5517 1.3793 0.0000
0.5517 1.4138 0.0000
0.5517 1.4483 0.0000
0.5517 1.4828 0.0000
0.5517 1.5172 0.0000
0.5517 1.5517 0.0000
0.5517 1.5862 0.0000
0.5517 1.6207 0.0000
0.5517 1.6552 0.0000
0.5517 1.6897 0.0000
0.5517 1.7241 0.0000
0.5517 1.7586 0.0000
0.5517 1.7931 0.0000
0.5517 1.8276 0.0000
0.5517 1.8621 0.0000
0.5517 1.8966 0.0000
0.5517 1.9310 0.0000
0.5517 1.9655 0.0000
0.5517 2.0000 0.0000
0.6207 1.0000 0.0000
0.6207 1.0345 0.0000
0.6207 1.0690 0.0000
0.6207 1.1034 0.0000
0.6207 1.1379 0.0000
0.6207 1.1724 0.0000
0.6207 1.2069 0.0000
0.6207 1.2414 0.0000
0.6207 1.2759 0.0000
0.6207 1.3103 0.0000
0.6207 1.3448 0.0000
0.6207 1.3793 0.0000
0.6207 1.4138 0.0000
0.6207 1.4483 0.0000
0.6207 1.4828 0.0000
0.6207 1.5172 0.0000
0.6207 1.5517 0.0000
0.6207 1.5862 0.0000
0.6207 1.6207 0.0000
0.6207 1.6552 0.0000
0.6207 1.6897 0.0000
0.6207 1.7241 0.0000
0.6207 1.7586 0.0000
0.6207 1.7931 0.0000
0.6207 1.8276 0.0000
0.6207 1.8621 0.0000
0.6207 1.8966 0.0000
0.6207 1.9310 0.0000
0.6207 1.9655 0.0000
0.6207 2.0000 0.0000
0.6897 1.0000 0.0000
0.6897 1.0345 0.0000
0.6897 1.0690 0.0000
0.6897 1.1034 0.0000
0.6897 1.1379 0.0000
0.6897 1.1724 0.0000
0.6897 1.2069 0.0000
0.6897 1.2414 0.0000
0.6897 1.2759 0.0000
0.6897 1.3103 0.0000
0.6897 1.3448 0.0000
0.6897 1.3793 0.0000
0.6897 1.4138 0.0000
0.6897 1.4483 0.0000
0.6897 1.4828 0.0000
0.6897 1.5172 0.0000
0.6897 1.5517 0.0000
0.6897 1.5862 0.0000
0.6897 1.6207 0.0000
0.6897 1.6552 0.0000
0.6897 1.6897 0.0000
0.6897 1.7241 0.0000
0.6897 1.7586 0.0000
0.6897 1.7931 0.0000
0.6897 1.8276 0.0000
0.6897 1.8621 0.0000
0.6897 1.8966 0.0000
0.6897 1.9310 0.0000
0.6897 1.9655 0.0000
0.6897 2.0000 0.0000
0.7586 1.0000 0.0000
0.7586 1.0345 0.0000
0.7586 1.0690 0.0000
0.7586 1.1034 0.0000
0.7586 1.1379 0.0000
0.7586 1.1724 0.0000
0.7586 1.2069 0.0000
0.7586 1.2414 0.0000
0.7586 1.2759 0.0000
0.7586 1.3103 0.0000
0.7586 1.3448 0.0000
0.7586 1.3793 0.0000
0.7586 1.4138 0.0000
0.7586 1.4483 0.0000
0.7586 1.4828 0.0000
0.7586 1.5172 0.0000
0.7586 1.5517 0.0000
0.7586 1.5862 0.0000
0.7586 1.6207 0.0000
0.7586 1.6552 0.0000
0.7586 1.6897 0.0000
0.7586 1.7241 0.0000
0.7586 1.7586 0.0000
0.7586 1.7931 0.0000
0.7586 1.8276 0.0000
0.7586 1.8621 0.0000
0.7586 1.8966 0.0000
0.7586 1.9310 0.0000
0.7586 1.9655 0.0000
0.7586 2.0000 0.0000
0.8276 1.0000 0.0000
0.8276 1.0345 0.0000
0.8276 1.0690 0.0000
0.8276 1.1034 0.0000
0.8276 1.1379 0.0000
0.8276 1.1724 0.0000
0.8276 1.2069 0.0000
0.8276 1.2414 0.0000
0.8276 1.2759 0.0000
0.8276 1.3103 0.0000
0.8276 1.3448 0.0000
0.8276 1.3793 0.0000
0.8276 1.4138 0.0000
0.8276 1.4483 0.0000
0.8276 1.4828 0.0000
0.8276 1.5172 0.0000
0.8276 1.5517 0.0000
0.8276 1.5862 0.0000
0.8276 1.6207 0.0000
0.8276 1.6552 0.0000
0.8276 1.6897 0.0000
0.8276 1.7241 0.0000
0.8276 1.7586 0.0000
0.8276 1.7931 0.0000
0.8276 1.8276 0.0000
0.8276 1.8621 0.0000
0.8276 1.8966 0.0000
0.8276 1.9310 0.0000
0.8276 1.9655 0.0000
0.8276 2.0000 0.0000
0.8966 1.0000 0.0000
0.8966 1.0345 0.0000
0.8966 1.0690 0.0000
0.8966 1.1034 0.0000
0.8966 1.1379 0.0000
0.8966 1.1724 0.0000
0.8966 1.2069 0.0000
0.8966 1.2414 0.0000
0.8966 1.2759 0.0000
0.8966 1.3103 0.0000
0.8966 1.3448 0.0000
0.8966 1.3793 0.0000
0.8966 1.4138 0.0000
0.8966 1.4483 0.0000
0.8966 1.4828 0.0000
0.8966 1.5172 0.0000
0.8966 1.5517 0.0000
0.8966 1.5862 0.0000
0.8966 1.6207 0.0000
0.8966 1.6552 0.0000
0.8966 1.6897 0.0000
0.8966 1.7241 0.0000
0.8966 1.7586 0.0000
0.8966 1.7931 0.0000
0.8966 1.8276 0.0000
0.8966 1.8621 0.0000
0.8966 1.8966 0.0000
0.8966 1.9310 0.0000
0.8966 1.9655 0.0000
0.8966 2.0000 0.0000
0.9655 1.0000 0.0000
0.9655 1.0345 0.0000
0.9655 1.0690 0.0000
0.9655 1.1034 0.0000
0.9655 1.1379 0.0000
0.9655 1.1724 0.0000
0.9655 1.2069 0.0000
0.9655 1.2414 0.0000
0.9655 1.2759 0.0000
0.9655 1.3103 0.0000
0.9655 1.3448 0.0000
0.9655 1.3793 0.0000
0.9655 1.4138 0.0000
0.9655 1.4483 0.0000
0.9655 1.4828 0.0000
0.9655 1.5172 0.0000
0.9655 1.5517 0.0000
0.9655 1.5862 0.0000
0.9655 1.6207 0.0000
0.9655 1.6552 0.0000
0.9655 1.6897 0.0000
0.9655 1.7241 0.0000
0.9655 1.7586 0.0000
0.9655 1.7931 0.0000
0.9655 1.8276 0.0000
0.9655 1.8621 0.0000
0.9655 1.8966 0.0000
0.9655 1.9310 0.0000
0.9655 1.9655 0.0000
0.9655 2.0000 0.0000
1.0345 1.0000 0.0000
1.0345 1.0345 0.0000
1.0345 1.0690 0.0000
1.0345 1.1034 0.0000
1.0345 1.1379 0.0000
1.0345 1.1724 0.0000
1.0345 1.2069 0.0000
1.0345 1.2414 0.0000
1.0345 1.2759 0.0000
1.0345 1.3103 0.0000
1.0345 1.3448 0.0000
[...]
         <PointData>
            <DataArray Name="fValues" NumberOfComponents="3" format="ascii" type="Float64">
-8.45168e-15 -1.87742e-15        00000 
 2.26076e-15 -3.76793e-16        00000 
-2.60821e-15  2.32876e-16        00000 
 2.48118e-15 -7.60738e-16        00000 
-2.04931e-15  9.31504e-16        00000 
 1.89653e-15 -2.41302e-15        00000 
 5.58903e-16        00000        00000 
-1.73214e-15  3.39406e-16        00000 
 6.52053e-16 -1.49041e-15        00000 
-6.49698e-16  3.62032e-15        00000 
-6.52053e-16  9.31504e-16        00000 
-1.28740e-16  2.57481e-16        00000 
 9.31504e-17  2.04931e-15        00000 
 1.78512e-18 -2.83673e-15        00000 
-1.39726e-16  1.67671e-15        00000 
-9.15812e-16  1.66192e-15        00000 
-7.45203e-16  3.72602e-16        00000 
 1.43282e-15 -1.73721e-15        00000 
 5.58903e-16  3.35342e-15        00000 
-1.56829e-15 -2.46947e-15        00000 
 4.28492e-15  1.21096e-15        00000 
-3.94484e-15 -1.75610e-15        00000 
 3.72602e-16  1.67671e-15        00000 
 2.34073e-16 -4.62295e-16        00000 
 1.11781e-15  3.02739e-16        00000 
 5.55914e-15  1.62287e-16        00000 
-5.21642e-15  6.28765e-16        00000 
 5.88620e-15 -5.89206e-16        00000 
-5.54302e-15 -2.81848e-15        00000 
 5.32900e-15  2.67624e-15        00000 
-4.33233e+01 -1.55971e+01        00000 
-3.64383e+01 -8.74970e+00        00000 
-3.38401e+01 -2.28235e+00        00000 
-3.10497e+01  3.67102e+00        00000 
-2.70314e+01  1.09261e+01        00000 
-2.17904e+01  1.53978e+01        00000 
-1.75580e+01  1.83001e+01        00000 
-1.49720e+01  2.09015e+01        00000 
-1.13305e+01  2.11635e+01        00000 
-8.13021e+00  2.10599e+01        00000 
-5.58034e+00  2.09748e+01        00000 
-2.58658e+00  2.02173e+01        00000 
 2.70274e-01  1.91742e+01        00000 
 2.93427e+00  1.79242e+01        00000 
 5.51672e+00  1.65538e+01        00000 
 7.91667e+00  1.53494e+01        00000 
 1.00978e+01  1.42863e+01        00000 
 1.21435e+01  1.32801e+01        00000 
 1.41559e+01  1.22193e+01        00000 
 1.61626e+01  1.09696e+01        00000 
 1.84992e+01  9.67202e+00        00000 
 2.10362e+01  8.24824e+00        00000 
 2.29208e+01  6.44802e+00        00000 
 2.52447e+01  4.50813e+00        00000 
 2.91475e+01  1.88379e+00        00000 
 3.29329e+01 -2.56697e+00        00000 
 3.62506e+01 -7.22433e+00        00000 
 3.87058e+01 -1.20350e+01        00000 
 4.05156e+01 -1.82659e+01        00000 
 4.79245e+01 -2.64625e+01        00000 
-6.84507e+01 -2.07700e+01        00000 
-7.51904e+01 -1.20848e+01        00000 
-7.70615e+01  1.31069e+00        00000 
-7.35691e+01  1.53143e+01        00000 
-6.59089e+01  2.90214e+01        00000 
-5.56603e+01  4.07572e+01        00000 
-4.28988e+01  5.00879e+01        00000 
-3.17026e+01  5.65866e+01        00000 
-2.41203e+01  5.96568e+01        00000 
-1.65032e+01  6.03978e+01        00000 
-9.90804e+00  6.03285e+01        00000 
-4.54101e+00  5.88693e+01        00000 
 8.67707e-01  5.72220e+01        00000 
 6.10929e+00  5.56036e+01        00000 
 1.13061e+01  5.33476e+01        00000 
 1.63932e+01  5.03502e+01        00000 
 2.12433e+01  4.68553e+01        00000 
 2.57025e+01  4.32952e+01        00000 
 2.96496e+01  3.99115e+01        00000 
 3.33375e+01  3.68885e+01        00000 
 3.69502e+01  3.42825e+01        00000 
 4.05770e+01  3.10652e+01        00000 
 4.61923e+01  2.64016e+01        00000 
 5.40206e+01  2.03171e+01        00000 
 6.15416e+01  1.17332e+01        00000 
 6.94690e+01  2.41196e+00        00000 
 7.64434e+01 -6.96215e+00        00000 
 8.03421e+01 -1.72087e+01        00000 
 8.26229e+01 -2.75280e+01        00000 
 8.30565e+01 -3.56579e+01        00000 
-1.02179e+02  2.88483e+01        00000 
-1.24218e+02  4.13753e+01        00000 
-1.24948e+02  5.09830e+01        00000 
-1.16768e+02  5.77632e+01        00000 
-1.04740e+02  6.22911e+01        00000 
-9.00862e+01  6.36665e+01        00000 
-7.56337e+01  6.55894e+01        00000 
-5.88968e+01  6.81140e+01        00000 
-4.22574e+01  6.93769e+01        00000 
-2.80182e+01  7.14227e+01        00000 
-1.39353e+01  7.20227e+01        00000 
-1.95586e+00  7.03866e+01        00000 
 7.81403e+00  6.75880e+01        00000 
 1.59101e+01  6.41344e+01        00000 
 2.23371e+01  6.04623e+01        00000 
 2.79294e+01  5.71314e+01        00000 
 3.33785e+01  5.39898e+01        00000 
 3.92469e+01  5.07838e+01        00000 
 4.59012e+01  4.72516e+01        00000 
 5.34497e+01  4.28837e+01        00000 
 6.12171e+01  3.77574e+01        00000 
 6.96706e+01  3.27280e+01        00000 
 7.85510e+01  2.86067e+01        00000 
 8.68161e+01  2.46138e+01        00000 
 9.67082e+01  2.05610e+01        00000 
 1.06694e+02  1.58506e+01        00000 
 1.15059e+02  1.00008e+01        00000 
 1.24325e+02  2.65384e+00        00000 
 1.29463e+02 -5.89060e+00        00000 
 1.22507e+02 -1.54720e+01        00000 
-1.97694e+02  8.26564e+01        00000 
-1.81342e+02  8.77540e+01        00000 
-1.61422e+02  8.20792e+01        00000 
-1.40072e+02  7.20946e+01        00000 
-1.19181e+02  5.90848e+01        00000 
-1.00994e+02  4.34297e+01        00000 
-8.16219e+01  3.03418e+01        00000 
-6.26514e+01  2.10752e+01        00000 
-4.25373e+01  1.12651e+01        00000 
-2.56771e+01  2.39758e+00        00000 
-1.24931e+01 -4.77831e+00        00000 
 6.60766e-01 -1.15007e+01        00000 
 1.19858e+01 -1.63128e+01        00000 
 2.23263e+01 -2.00105e+01        00000 
 3.17048e+01 -2.34047e+01        00000 
 4.01822e+01 -2.61479e+01        00000 
 4.76780e+01 -2.78243e+01        00000 
 5.44572e+01 -2.85849e+01        00000 
 6.10606e+01 -2.85087e+01        00000 
 6.74682e+01 -2.69976e+01        00000 
 7.49880e+01 -2.36128e+01        00000 
 8.51127e+01 -1.99293e+01        00000 
 9.63525e+01 -1.73823e+01        00000 
 1.08568e+02 -1.33652e+01        00000 
 1.19850e+02 -6.76151e+00        00000 
 1.30995e+02  1.15471e-01        00000 
 1.46496e+02  5.76498e+00        00000 
 1.61422e+02  8.62708e+00        00000 
 1.75551e+02  8.20260e+00        00000 
 1.89048e+02  1.67847e+00        00000 
-2.94256e+02 -2.94820e+01        00000 
-2.31016e+02 -2.18573e+01        00000 
-1.87238e+02 -2.18923e+01        00000 
-1.53670e+02 -2.55267e+01        00000 
-1.23971e+02 -3.29809e+01        00000 
-9.51233e+01 -3.87330e+01        00000 
-7.09190e+01 -4.63375e+01        00000 
-5.01368e+01 -5.66368e+01        00000 
-3.28955e+01 -6.63200e+01        00000 
-1.37550e+01 -7.54390e+01        00000 
 1.64003e+00 -8.43906e+01        00000 
 1.23281e+01 -9.57217e+01        00000 
 2.14832e+01 -1.05597e+02        00000 
 2.91991e+01 -1.12109e+02        00000 
 3.71280e+01 -1.15690e+02        00000 
 4.41734e+01 -1.17251e+02        00000 
 5.05915e+01 -1.17236e+02        00000 
 5.58497e+01 -1.14056e+02        00000 
 6.00052e+01 -1.07560e+02        00000 
 6.47496e+01 -1.00226e+02        00000 
 7.25261e+01 -9.33278e+01        00000 
 8.16194e+01 -8.70048e+01        00000 
 9.24850e+01 -8.03866e+01        00000 
 1.05821e+02 -7.39902e+01        00000 
 1.21949e+02 -6.97119e+01        00000 
 1.41698e+02 -6.52709e+01        00000 
 1.60485e+02 -6.08293e+01        00000 
 1.83963e+02 -5.69604e+01        00000 
 2.15926e+02 -5.79336e+01        00000 
 2.57752e+02 -6.45899e+01        00000 
-3.33833e+02 -1.84569e+02        00000 
-2.70435e+02 -1.80281e+02        00000 
-2.16090e+02 -1.76489e+02        00000 
-1.69420e+02 -1.73487e+02        00000 
-1.30278e+02 -1.71914e+02        00000 
-9.68343e+01 -1.71247e+02        00000 
-6.82828e+01 -1.73378e+02        00000 
-4.52277e+01 -1.76149e+02        00000 
-2.60578e+01 -1.81827e+02        00000 
-1.10616e+01 -1.84602e+02        00000 
 6.80402e+00 -1.85754e+02        00000 
 2.18920e+01 -1.85956e+02        00000 
 3.44610e+01 -1.87010e+02        00000 
 4.14379e+01 -1.89486e+02        00000 
 4.44095e+01 -1.92795e+02        00000 
 4.51704e+01 -1.93162e+02        00000 
 4.54292e+01 -1.90168e+02        00000 
 4.71349e+01 -1.87236e+02        00000 
 5.22534e+01 -1.85816e+02        00000 
 6.10760e+01 -1.84577e+02        00000 
 7.06468e+01 -1.82379e+02        00000 
 7.92252e+01 -1.78521e+02        00000 
 8.95524e+01 -1.72027e+02        00000 
 1.03591e+02 -1.66166e+02        00000 
 1.23811e+02 -1.64224e+02        00000 
 1.46989e+02 -1.64672e+02        00000 
 1.76045e+02 -1.65481e+02        00000 
 2.10495e+02 -1.65969e+02        00000 
 2.49997e+02 -1.66741e+02        00000 
 2.97237e+02 -1.69190e+02        00000 
-3.35274e+02 -3.07056e+02        00000 
-2.75667e+02 -3.11437e+02        00000 
-2.24922e+02 -3.11043e+02        00000 
-1.77704e+02 -3.10397e+02        00000 
-1.36282e+02 -3.08109e+02        00000 
-1.03037e+02 -3.08089e+02        00000 
-7.40720e+01 -3.10271e+02        00000 
-4.73454e+01 -3.07700e+02        00000 
-2.31322e+01 -3.06070e+02        00000 
-5.36333e+00 -3.06719e+02        00000 
 6.62944e+00 -3.07213e+02        00000 
 2.00133e+01 -3.06320e+02        00000 
 2.99197e+01 -3.02841e+02        00000 
 3.88295e+01 -2.98188e+02        00000 
 4.23118e+01 -2.93313e+02        00000 
 4.40542e+01 -2.91244e+02        00000 
 4.48684e+01 -2.91223e+02        00000 
 4.74679e+01 -2.90316e+02        00000 
 5.19092e+01 -2.89443e+02        00000 
 5.78109e+01 -2.88325e+02        00000 
 6.30769e+01 -2.84401e+02        00000 
 7.39852e+01 -2.80511e+02        00000 
 9.01844e+01 -2.81723e+02        00000 
 1.07804e+02 -2.81676e+02        00000 
 1.24669e+02 -2.76784e+02        00000 
 1.48931e+02 -2.73309e+02        00000 
 1.81441e+02 -2.75143e+02        00000 
 2.19381e+02 -2.78231e+02        00000 
 2.61465e+02 -2.76583e+02        00000 
 3.09765e+02 -2.74066e+02        00000 
-3.15559e+02 -4.46834e+02        00000 
-2.62882e+02 -4.42496e+02        00000 
-2.17934e+02 -4.38806e+02        00000 
-1.76323e+02 -4.38658e+02        00000 
-1.39659e+02 -4.37471e+02        00000 
-1.06280e+02 -4.37015e+02        00000 
-7.72620e+01 -4.32741e+02        00000 
-5.22482e+01 -4.30328e+02        00000 
-3.23189e+01 -4.24492e+02        00000 
-9.13734e+00 -4.14771e+02        00000 
 6.15646e+00 -4.06929e+02        00000 
 1.63123e+01 -4.04217e+02        00000 
 2.14718e+01 -3.99679e+02        00000 
 2.84869e+01 -3.93447e+02        00000 
 3.45625e+01 -3.87142e+02        00000 
 4.02721e+01 -3.82031e+02        00000 
 4.45360e+01 -3.80587e+02        00000 
 4.96607e+01 -3.82287e+02        00000 
 5.27469e+01 -3.81340e+02        00000 
 5.54677e+01 -3.79226e+02        00000 
 6.33235e+01 -3.82070e+02        00000 
 7.63284e+01 -3.85545e+02        00000 
 8.86542e+01 -3.85237e+02        00000 
 1.05200e+02 -3.86124e+02        00000 
 1.27936e+02 -3.88846e+02        00000 
 1.52697e+02 -3.87459e+02        00000 
 1.81605e+02 -3.83362e+02        00000 
 2.17397e+02 -3.83931e+02        00000 
 2.56467e+02 -3.88246e+02        00000 
 3.03891e+02 -3.89899e+02        00000 
-2.88188e+02 -5.31168e+02        00000 
-2.37493e+02 -5.35979e+02        00000 
-1.97657e+02 -5.38005e+02        00000 
-1.66164e+02 -5.39821e+02        00000 
-1.33867e+02 -5.42107e+02        00000 
-1.05233e+02 -5.41851e+02        00000 
-7.72342e+01 -5.38786e+02        00000 
-5.25417e+01 -5.35658e+02        00000 
-3.32275e+01 -5.33185e+02        00000 
-2.14117e+01 -5.30023e+02        00000 
-5.26397e+00 -5.24436e+02        00000 
 4.34453e+00 -5.15581e+02        00000 
 1.36874e+01 -5.08763e+02        00000 
 1.76581e+01 -5.01322e+02        00000 
 2.55175e+01 -4.96236e+02        00000 
 3.43721e+01 -4.93059e+02        00000 
 4.31235e+01 -4.88109e+02        00000 
 4.63611e+01 -4.84141e+02        00000 
 5.05124e+01 -4.85564e+02        00000 
 5.67200e+01 -4.88635e+02        00000 
 6.66622e+01 -4.88368e+02        00000 
 7.35748e+01 -4.88294e+02        00000 
 8.39723e+01 -4.87226e+02        00000 
 9.99437e+01 -4.86236e+02        00000 
 1.21453e+02 -4.88140e+02        00000 
 1.45880e+02 -4.89468e+02        00000 
 1.71655e+02 -4.85480e+02        00000 
 1.99219e+02 -4.79964e+02        00000 
 2.36360e+02 -4.79494e+02        00000 
 2.83088e+02 -4.80772e+02        00000 
-2.34297e+02 -6.18122e+02        00000 
-2.01835e+02 -6.24596e+02        00000 
-1.70209e+02 -6.27673e+02        00000 
-1.44936e+02 -6.28060e+02        00000 
-1.20214e+02 -6.29853e+02        00000 
-9.38010e+01 -6.27701e+02        00000 
-7.39175e+01 -6.27354e+02        00000 
-5.41414e+01 -6.23734e+02        00000 
-3.42771e+01 -6.15206e+02        00000 
-2.16916e+01 -6.09416e+02        00000 
-1.33984e+01 -6.04990e+02        00000 
-5.35654e+00 -5.98954e+02        00000 
 4.66542e+00 -5.93697e+02        00000 
 9.46414e+00 -5.90637e+02        00000 
 1.94343e+01 -5.87572e+02        00000 
 2.55156e+01 -5.81910e+02        00000 
 3.55188e+01 -5.78897e+02        00000 
 4.24195e+01 -5.75710e+02        00000 
 4.93902e+01 -5.70686e+02        00000 
 5.52907e+01 -5.70947e+02        00000 
 5.94362e+01 -5.71284e+02        00000 
 6.54425e+01 -5.71590e+02        00000 
 7.96453e+01 -5.76527e+02        00000 
 9.36317e+01 -5.77566e+02        00000 
 1.07847e+02 -5.73245e+02        00000 
 1.28901e+02 -5.72902e+02        00000 
 1.53206e+02 -5.73066e+02        00000 
 1.77963e+02 -5.68467e+02        00000 
 2.07176e+02 -5.64415e+02        00000 
 2.44529e+02 -5.59935e+02        00000 
-1.95226e+02 -6.72348e+02        00000 
-1.65655e+02 -6.83706e+02        00000 
-1.39029e+02 -6.90355e+02        00000 
-1.19421e+02 -6.93777e+02        00000 
-9.85987e+01 -6.93258e+02        00000 
-7.97709e+01 -6.93782e+02        00000 
-6.14464e+01 -6.96926e+02        00000 
-4.83452e+01 -6.97788e+02        00000 
-3.63542e+01 -6.95829e+02        00000 
-2.22410e+01 -6.91583e+02        00000 
-1.66261e+01 -6.85998e+02        00000 
-1.03501e+01 -6.83308e+02        00000 
-3.47573e+00 -6.78021e+02        00000 
 7.97370e+00 -6.71881e+02        00000 
 1.57859e+01 -6.68971e+02        00000 
 1.90171e+01 -6.66405e+02        00000 
 2.35276e+01 -6.59845e+02        00000 
 3.46461e+01 -6.58023e+02        00000 
 4.38219e+01 -6.58617e+02        00000 
 4.77549e+01 -6.54345e+02        00000 
 5.15680e+01 -6.54370e+02        00000 
 6.01573e+01 -6.53983e+02        00000 
 6.71482e+01 -6.51017e+02        00000 
 7.84167e+01 -6.49948e+02        00000 
 9.27306e+01 -6.47175e+02        00000 
 1.07959e+02 -6.42047e+02        00000 
 1.26986e+02 -6.41717e+02        00000 
 1.45604e+02 -6.40033e+02        00000 
 1.71187e+02 -6.31888e+02        00000 
 1.97615e+02 -6.21563e+02        00000 
-1.30149e+02 -7.17861e+02        00000 
-1.18663e+02 -7.28022e+02        00000 
-1.01135e+02 -7.39317e+02        00000 
-8.86940e+01 -7.44861e+02        00000 
-7.58181e+01 -7.43492e+02        00000 
-6.19367e+01 -7.43048e+02        00000 
-4.85830e+01 -7.44322e+02        00000 
-3.59812e+01 -7.43051e+02        00000 
-2.69337e+01 -7.42959e+02        00000 
-2.41410e+01 -7.42290e+02        00000 
-1.43844e+01 -7.39043e+02        00000 
-9.10970e+00 -7.34939e+02        00000 
-4.29083e+00 -7.34184e+02        00000 
 3.99989e+00 -7.34137e+02        00000 
 5.77998e+00 -7.26338e+02        00000 
 1.59343e+01 -7.24112e+02        00000 
 2.01931e+01 -7.25353e+02        00000 
 2.46411e+01 -7.18192e+02        00000 
 2.99008e+01 -7.14282e+02        00000 
 3.60987e+01 -7.12896e+02        00000 
 4.35064e+01 -7.11031e+02        00000 
 4.69911e+01 -7.08948e+02        00000 
 5.15509e+01 -7.04447e+02        00000 
 5.99806e+01 -7.02743e+02        00000 
 7.11954e+01 -7.01240e+02        00000 
 8.29119e+01 -6.98137e+02        00000 
 9.45008e+01 -6.96379e+02        00000 
 1.09286e+02 -6.93362e+02        00000 
 1.26925e+02 -6.83865e+02        00000 
 1.47525e+02 -6.70479e+02        00000 
-8.98488e+01 -7.44709e+02        00000 
-7.26103e+01 -7.56734e+02        00000 
-6.28794e+01 -7.69013e+02        00000 
-5.08300e+01 -7.71728e+02        00000 
-4.52183e+01 -7.72617e+02        00000 
-3.93143e+01 -7.76952e+02        00000 
-3.23922e+01 -7.79180e+02        00000 
-2.41864e+01 -7.80116e+02        00000 
-1.86616e+01 -7.80908e+02        00000 
-1.50517e+01 -7.82072e+02        00000 
-1.24242e+01 -7.82063e+02        00000 
-7.23137e+00 -7.78512e+02        00000 
 2.01880e+00 -7.76830e+02        00000 
 2.42299e-01 -7.75221e+02        00000 
-1.95155e+00 -7.69867e+02        00000 
 1.22053e+01 -7.65664e+02        00000 
 1.46659e+01 -7.65690e+02        00000 
 1.06499e+01 -7.64126e+02        00000 
 1.76240e+01 -7.60322e+02        00000 
 2.48908e+01 -7.58109e+02        00000 
 2.67656e+01 -7.53297e+02        00000 
 2.87835e+01 -7.49593e+02        00000 
 3.31509e+01 -7.46252e+02        00000 
 3.82424e+01 -7.41534e+02        00000 
 4.47348e+01 -7.38603e+02        00000 
 5.04403e+01 -7.34455e+02        00000 
 5.60307e+01 -7.31013e+02        00000 
 6.54087e+01 -7.27596e+02        00000 
 7.91838e+01 -7.17306e+02        00000 
 8.83569e+01 -7.03497e+02        00000 
-1.65600e+01 -7.61658e+02        00000 
-2.67799e+01 -7.72316e+02        00000 
-2.32736e+01 -7.83845e+02        00000 
-1.57351e+01 -7.89256e+02        00000 
-1.23884e+01 -7.92263e+02        00000 
-1.47549e+01 -7.93337e+02        00000 
-1.03928e+01 -7.94875e+02        00000 
-7.90814e+00 -7.95685e+02        00000 
-7.11245e+00 -7.98116e+02        00000 
-2.71079e+00 -7.98622e+02        00000 
-6.67300e+00 -7.98258e+02        00000 
-4.89863e+00 -8.00946e+02        00000 
 2.18497e+00 -7.97469e+02        00000 
 1.36132e-01 -7.92226e+02        00000 
-1.44501e+00 -7.92931e+02        00000 
 5.35676e+00 -7.90903e+02        00000 
 4.80797e+00 -7.85298e+02        00000 
 1.25155e+00 -7.84050e+02        00000 
 7.19708e+00 -7.83237e+02        00000 
 1.01503e+01 -7.77944e+02        00000 
 7.71672e+00 -7.73787e+02        00000 
 1.00411e+01 -7.69252e+02        00000 
 1.10758e+01 -7.63664e+02        00000 
 1.36973e+01 -7.61694e+02        00000 
 1.52325e+01 -7.58781e+02        00000 
 1.44385e+01 -7.53787e+02        00000 
 1.70540e+01 -7.50698e+02        00000 
 2.52902e+01 -7.45779e+02        00000 
 2.69351e+01 -7.33916e+02        00000 
 2.90729e+01 -7.20088e+02        00000 
 1.65609e+01 -7.61764e+02        00000 
 2.70283e+01 -7.72258e+02        00000 
 2.34462e+01 -7.81915e+02        00000 
 1.56384e+01 -7.87472e+02        00000 
 1.22986e+01 -7.91253e+02        00000 
 1.47621e+01 -7.92474e+02        00000 
 1.04135e+01 -7.93787e+02        00000 
 7.90373e+00 -7.94577e+02        00000 
 7.10597e+00 -7.97060e+02        00000 
 2.70776e+00 -7.97584e+02        00000 
 6.66999e+00 -7.97230e+02        00000 
 4.89517e+00 -7.99932e+02        00000 
-2.18882e+00 -7.96471e+02        00000 
-1.40377e-01 -7.91243e+02        00000 
 1.44034e+00 -7.91967e+02        00000 
-5.36188e+00 -7.89959e+02        00000 
-4.81356e+00 -7.84376e+02        00000 
-1.25765e+00 -7.83153e+02        00000 
-7.20374e+00 -7.82365e+02        00000 
-1.01575e+01 -7.77101e+02        00000 
-7.72410e+00 -7.72974e+02        00000 
-1.00498e+01 -7.68468e+02        00000 
-1.10878e+01 -7.62924e+02        00000 
-1.37067e+01 -7.61017e+02        00000 
-1.52330e+01 -7.58115e+02        00000 
-1.44444e+01 -7.53098e+02        00000 
-1.70721e+01 -7.50070e+02        00000 
-2.53499e+01 -7.45230e+02        00000 
-2.70062e+01 -7.33827e+02        00000 
-2.90784e+01 -7.20112e+02        00000 
 8.97329e+01 -7.44777e+02        00000 
 7.22077e+01 -7.58110e+02        00000 
 6.27838e+01 -7.68224e+02        00000 
 5.09236e+01 -7.70607e+02        00000 
 4.52464e+01 -7.72758e+02        00000 
 3.93231e+01 -7.77438e+02        00000 
 3.24116e+01 -7.79110e+02        00000 
 2.41927e+01 -7.79925e+02        00000 
 1.86619e+01 -7.80841e+02        00000 
 1.50563e+01 -7.82030e+02        00000 
 1.24305e+01 -7.82018e+02        00000 
 7.23830e+00 -7.78467e+02        00000 
-2.01110e+00 -7.76786e+02        00000 
-2.33789e-01 -7.75177e+02        00000 
 1.96092e+00 -7.69824e+02        00000 
-1.21950e+01 -7.65621e+02        00000 
-1.46547e+01 -7.65647e+02        00000 