<?xml version="1.0" encoding="utf-8"?>
<VTKFile byte_order="LittleEndian" type="UnstructuredGrid" version="0.1">
   <UnstructuredGrid>
      <Piece NumberOfCells="3364" NumberOfPoints="1741">
         <Points>
            <DataArray Name="Points" NumberOfComponents="3" format="ascii" type="Float32">
0.0000 1.0000 0.0000
0.0000 1.0345 0.0000
0.0000 1.0690 0.0000
0.0000 1.1034 0.0000
0.0000 1.1379 0.0000
0.0000 1.1724 0.0000
0.0000 1.2069 0.0000
0.0000 1.2414 0.0000
0.0000 1.2759 0.0000
0.0000 1.3103 0.0000
0.0000 1.3448 0.0000
0.0000 1.3793 0.0000
0.0000 1.4138 0.0000
0.0000 1.4483 0.0000
0.0000 1.4828 0.0000
0.0000 1.5172 0.0000
0.0000 1.5517 0.0000
0.0000 1.5862 0.0000
0.0000 1.6207 0.0000
0.0000 1.6552 0.0000
0.0000 1.6897 0.0000
0.0000 1.7241 0.0000
0.0000 1.7586 0.0000
0.0000 1.7931 0.0000
0.0000 1.8276 0.0000
0.0000 1.8621 0.0000
0.0000 1.8966 0.0000
0.0000 1.9310 0.0000
0.0000 1.9655 0.0000
0.0000 2.0000 0.0000
0.0690 1.0000 0.0000
0.0690 1.0345 0.0000
0.0690 1.0690 0.0000
0.0690 1.1034 0.0000
0.0690 1.1379 0.0000
0.0690 1.1724 0.0000
0.0690 1.2069 0.0000
0.0690 1.2414 0.0000
0.0690 1.2759 0.0000
0.0690 1.3103 0.0000
0.0690 1.3448 0.0000
0.0690 1.3793 0.0000
0.0690 1.4138 0.0000
0.0690 1.4483 0.0000
0.0690 1.4828 0.0000
0.0690 1.5172 0.0000
0.0690 1.5517 0.0000
0.0690 1.5862 0.0000
0.0690 1.6207 0.0000
0.0690 1.6552 0.0000
0.0690 1.6897 0.0000
0.0690 1.7241 0.0000
0.0690 1.7586 0.0000
0.0690 1.7931 0.0000
0.0690 1.8276 0.0000
0.0690 1.8621 0.0000
0.0690 1.8966 0.0000
0.0690 1.9310 0.0000
0.0690 1.9655 0.0000
0.0690 2.0000 0.0000
0.1379 1.0000 0.0000
0.1379 1.0345 0.0000
0.1379 1.0690 0.0000
0.1379 1.1034 0.0000
0.1379 1.1379 0.0000
0.1379 1.1724 0.0000
0.1379 1.2069 0.0000
0.1379 1.2414 0.0000
0.1379 1.2759 0.0000
0.1379 1.3103 0.0000
0.1379 1.3448 0.0000
0.1379 1.3793 0.0000
0.1379 1.4138 0.0000
0.1379 1.4483 0.0000
0.1379 1.4828 0.0000
0.1379 1.5172 0.0000
0.1379 1.5517 0.0000
0.1379 1.5862 0.0000
0.1379 1.6207 0.0000
0.1379 1.6552 0.0000
0.1379 1.6897 0.0000
0.1379 1.7241 0.0000
0.1379 1.7586 0.0000
0.1379 1.7931 0.0000
0.1379 1.8276 0.0000
0.1379 1.8621 0.0000
0.1379 1.8966 0.0000
0.1379 1.9310 0.0000
0.1379 1.9655 0.0000
0.1379 2.0000 0.0000
0.2069 1.0000 0.0000
0.2069 1.0345 0.0000
0.2069 1.0690 0.0000
0.2069 1.1034 0.0000
0.2069 1.1379 0.0000
0.2069 1.1724 0.0000
0.2069 1.2069 0.0000
0.2069 1.2414 0.0000
0.2069 1.2759 0.0000
0.2069 1.3103 0.0000
0.2069 1.3448 0.0000
0.2069 1.3793 0.0000
0.2069 1.4138 0.0000
0.2069 1.4483 0.0000
0.2069 1.4828 0.0000
0.2069 1.5172 0.0000
0.2069 1.5517 0.0000
0.2069 1.5862 0.0000
0.2069 1.6207 0.0000
0.2069 1.6552 0.0000
0.2069 1.6897 0.0000
0.2069 1.7241 0.0000
0.2069 1.7586 0.0000
0.2069 1.7931 0.0000
0.2069 1.8276 0.0000
0.2069 1.8621 0.0000
0.2069 1.8966 0.0000
0.2069 1.9310 0.0000
0.2069 1.9655 0.0000
0.2069 2.0000 0.0000
0.2759 1.0000 0.0000
0.2759 1.0345 0.0000
0.2759 1.0690 0.0000
0.2759 1.1034 0.0000
0.2759 1.1379 0.0000
0.2759 1.1724 0.0000
0.2759 1.2069 0.0000
0.2759 1.2414 0.0000
0.2759 1.2759 0.0000
0.2759 1.3103 0.0000
0.2759 1.3448 0.0000
0.2759 1.3793 0.0000
0.2759 1.4138 0.0000
0.2759 1.4483 0.0000
0.2759 1.4828 0.0000
0.2759 1.5172 0.0000
0.2759 1.5517 0.0000
0.2759 1.5862 0.0000
0.2759 1.6207 0.0000
0.2759 1.6552 0.0000
0.2759 1.6897 0.0000
0.2759 1.7241 0.0000
0.2759 1.7586 0.0000
0.2759 1.7931 0.0000
0.2759 1.8276 0.0000
0.2759 1.8621 0.0000
0.2759 1.8966 0.0000
0.2759 1.9310 0.0000
0.2759 1.9655 0.0000
0.2759 2.0000 0.0000
0.3448 1.0000 0.0000
0.3448 1.0345 0.0000
0.3448 1.0690 0.0000
0.3448 1.1034 0.0000
0.3448 1.1379 0.0000
0.3448 1.1724 0.0000
0.3448 1.2069 0.0000
0.3448 1.2414 0.0000
0.3448 1.2759 0.0000
0.3448 1.3103 0.0000
0.3448 1.3448 0.0000
0.3448 1.3793 0.0000
0.3448 1.4138 0.0000
0.3448 1.4483 0.0000
0.3448 1.4828 0.0000
0.3448 1.5172 0.0000
0.3448 1.5517 0.0000
0.3448 1.5862 0.0000
0.3448 1.6207 0.0000
0.3448 1.6552 0.0000
0.3448 1.6897 0.0000
0.3448 1.7241 0.0000
0.3448 1.7586 0.0000
0.3448 1.7931 0.0000
0.3448 1.8276 0.0000
0.3448 1.8621 0.0000
0.3448 1.8966 0.0000
0.3448 1.9310 0.0000
0.3448 1.9655 0.0000
0.3448 2.0000 0.0000
0.4138 1.0000 0.0000
0.4138 1.0345 0.0000
0.4138 1.0690 0.0000
0.4138 1.1034 0.0000
0.4138 1.1379 0.0000
0.4138 1.1724 0.0000
0.4138 1.2069 0.0000
0.4138 1.2414 0.0000
0.4138 1.2759 0.0000
0.4138 1.3103 0.0000
0.4138 1.3448 0.0000
0.4138 1.3793 0.0000
0.4138 1.4138 0.0000
0.4138 1.4483 0.0000
0.4138 1.4828 0.0000
0.4138 1.5172 0.0000
0.4138 1.5517 0.0000
0.4138 1.5862 0.0000
0.4138 1.6207 0.0000
0.4138 1.6552 0.0000
0.4138 1.6897 0.0000
0.4138 1.7241 0.0000
0.4138 1.7586 0.0000
0.4138 1.7931 0.0000
0.4138 1.8276 0.0000
0.4138 1.8621 0.0000
0.4138 1.8966 0.0000
0.4138 1.9310 0.0000
0.4138 1.9655 0.0000
0.4138 2.0000 0.0000
0.4828 1.0000 0.0000
0.4828 1.0345 0.0000
0.4828 1.0690 0.0000
0.4828 1.1034 0.0000
0.4828 1.1379 0.0000
0.4828 1.1724 0.0000
0.4828 1.2069 0.0000
0.4828 1.2414 0.0000
0.4828 1.2759 0.0000
0.4828 1.3103 0.0000
0.4828 1.3448 0.0000
0.4828 1.3793 0.0000
0.4828 1.4138 0.0000
0.4828 1.4483 0.0000
0.4828 1.4828 0.0000
0.4828 1.5172 0.0000
0.4828 1.5517 0.0000
0.4828 1.5862 0.0000
0.4828 1.6207 0.0000
0.4828 1.6552 0.0000
0.4828 1.6897 0.0000
0.4828 1.7241 0.0000
0.4828 1.7586 0.0000
0.4828 1.7931 0.0000
0.4828 1.8276 0.0000
0.4828 1.8621 0.0000
0.4828 1.8966 0.0000
0.4828 1.9310 0.0000
0.4828 1.9655 0.0000
0.4828 2.0000 0.0000
0.5517 1.0000 0.0000
0.5517 1.0345 0.0000
0.5517 1.0690 0.0000
0.5517 1.1034 0.0000
0.5517 1.1379 0.0000
0.5517 1.1724 0.0000
0.5517 1.2069 0.0000
0.5517 1.2414 0.0000
0.5517 1.2759 0.0000
0.5517 1.3103 0.0000
0.5517 1.3448 0.0000
0.5517 1.3793 0.0000
0.5517 1.4138 0.0000
0.5517 1.4483 0.0000
0.5517 1.4828 0.0000
0.5517 1.5172 0.0000
0.5517 1.5517 0.0000
0.5517 1.5862 0.0000
0.5517 1.6207 0.0000
0.5517 1.6552 0.0000
0.5517 1.6897 0.0000
0.5517 1.7241 0.0000
0.5517 1.7586 0.0000
0.5517 1.7931 0.0000
0.5517 1.8276 0.0000
0.5517 1.8621 0.0000
0.5517 1.8966 0.0000
0.5517 1.9310 0.0000
0.5517 1.9655 0.0000
0.5517 2.0000 0.0000
0.6207 1.0000 0.0000
0.6207 1.0345 0.0000
0.6207 1.0690 0.0000
0.6207 1.1034 0.0000
0.6207 1.1379 0.0000
0.6207 1.1724 0.0000
0.6207 1.2069 0.0000
0.6207 1.2414 0.0000
0.6207 1.2759 0.0000
0.6207 1.3103 0.0000
0.6207 1.3448 0.0000
0.6207 1.3793 0.0000
0.6207 1.4138 0.0000
0.6207 1.4483 0.0000
0.6207 1.4828 0.0000
0.6207 1.5172 0.0000
0.6207 1.5517 0.0000
0.6207 1.5862 0.0000
0.6207 1.6207 0.0000
0.6207 1.6552 0.0000
0.6207 1.6897 0.0000
0.6207 1.7241 0.0000
0.6207 1.7586 0.0000
0.6207 1.7931 0.0000
0.6207 1.8276 0.0000
0.6207 1.8621 0.0000
0.6207 1.8966 0.0000
0.6207 1.9310 0.0000
0.6207 1.9655 0.0000
0.6207 2.0000 0.0000
0.6897 1.0000 0.0000
0.6897 1.0345 0.0000
0.6897 1.0690 0.0000
0.6897 1.1034 0.0000
0.6897 1.1379 0.0000
0.6897 1.1724 0.0000
0.6897 1.2069 0.0000
0.6897 1.2414 0.0000
0.6897 1.2759 0.0000
0.6897 1.3103 0.0000
0.6897 1.3448 0.0000
0.6897 1.3793 0.0000
0.6897 1.4138 0.0000
0.6897 1.4483 0.0000
0.6897 1.4828 0.0000
0.6897 1.5172 0.0000
0.6897 1.5517 0.0000
0.6897 1.5862 0.0000
0.6897 1.6207 0.0000
0.6897 1.6552 0.0000
0.6897 1.6897 0.0000
0.6897 1.7241 0.0000
0.6897 1.7586 0.0000
0.6897 1.7931 0.0000
0.6897 1.8276 0.0000
0.6897 1.8621 0.0000
0.6897 1.8966 0.0000
0.6897 1.9310 0.0000
0.6897 1.9655 0.0000
0.6897 2.0000 0.0000
0.7586 1.0000 0.0000
0.7586 1.0345 0.0000
0.7586 1.0690 0.0000
0.7586 1.1034 0.0000
0.7586 1.1379 0.0000
0.7586 1.1724 0.0000
0.7586 1.2069 0.0000
0.7586 1.2414 0.0000
0.7586 1.2759 0.0000
0.7586 1.3103 0.0000
0.7586 1.3448 0.0000
0.7586 1.3793 0.0000
0.7586 1.4138 0.0000
0.7586 1.4483 0.0000
0.7586 1.4828 0.0000
0.7586 1.5172 0.0000
0.7586 1.5517 0.0000
0.7586 1.5862 0.0000
0.7586 1.6207 0.0000
0.7586 1.6552 0.0000
0.7586 1.6897 0.0000
0.7586 1.7241 0.0000
0.7586 1.7586 0.0000
0.7586 1.7931 0.0000
0.7586 1.8276 0.0000
0.7586 1.8621 0.0000
0.7586 1.8966 0.0000
0.7586 1.9310 0.0000
0.7586 1.9655 0.0000
0.7586 2.0000 0.0000
0.8276 1.0000 0.0000
0.8276 1.0345 0.0000
0.8276 1.0690 0.0000
0.8276 1.1034 0.0000
0.8276 1.1379 0.0000
0.8276 1.1724 0.0000
0.8276 1.2069 0.0000
0.8276 1.2414 0.0000
0.8276 1.2759 0.0000
0.8276 1.3103 0.0000
0.8276 1.3448 0.0000
0.8276 1.3793 0.0000
0.8276 1.4138 0.0000
0.8276 1.4483 0.0000
0.8276 1.4828 0.0000
0.8276 1.5172 0.0000
0.8276 1.5517 0.0000
0.8276 1.5862 0.0000
0.8276 1.6207 0.0000
0.8276 1.6552 0.0000
0.8276 1.6897 0.0000
0.8276 1.7241 0.0000
0.8276 1.7586 0.0000
0.8276 1.7931 0.0000
0.8276 1.8276 0.0000
0.8276 1.8621 0.0000
0.8276 1.8966 0.0000
0.8276 1.9310 0.0000
0.8276 1.9655 0.0000
0.8276 2.0000 0.0000
0.8966 1.0000 0.0000
0.8966 1.0345 0.0000
0.8966 1.0690 0.0000
0.8966 1.1034 0.0000
0.8966 1.1379 0.0000
0.8966 1.1724 0.0000
0.8966 1.2069 0.0000
0.8966 1.2414 0.0000
0.8966 1.2759 0.0000
0.8966 1.3103 0.0000
0.8966 1.3448 0.0000
0.8966 1.3793 0.0000
0.8966 1.4138 0.0000
0.8966 1.4483 0.0000
0.8966 1.4828 0.0000
0.8966 1.5172 0.0000
0.8966 1.5517 0.0000
0.8966 1.5862 0.0000
0.8966 1.6207 0.0000
0.8966 1.6552 0.0000
0.8966 1.6897 0.0000
0.8966 1.7241 0.0000
0.8966 1.7586 0.0000
0.8966 1.7931 0.0000
0.8966 1.8276 0.0000
0.8966 1.8621 0.0000
0.8966 1.8966 0.0000
0.8966 1.9310 0.0000
0.8966 1.9655 0.0000
0.8966 2.0000 0.0000
0.9655 1.0000 0.0000
0.9655 1.0345 0.0000
0.9655 1.0690 0.0000
0.9655 1.1034 0.0000
0.9655 1.1379 0.0000
0.9655 1.1724 0.0000
0.9655 1.2069 0.0000
0.9655 1.2414 0.0000
0.9655 1.2759 0.0000
0.9655 1.3103 0.0000
0.9655 1.3448 0.0000
0.9655 1.3793 0.0000
0.9655 1.4138 0.0000
0.9655 1.4483 0.0000
0.9655 1.4828 0.0000
0.9655 1.5172 0.0000
0.9655 1.5517 0.0000
0.9655 1.5862 0.0000
0.9655 1.6207 0.0000
0.9655 1.6552 0.0000
0.9655 1.6897 0.0000
0.9655 1.7241 0.0000
0.9655 1.7586 0.0000
0.9655 1.7931 0.0000
0.9655 1.8276 0.0000
0.9655 1.8621 0.0000
0.9655 1.8966 0.0000
0.9655 1.9310 0.0000
0.9655 1.9655 0.0000
0.9655 2.0000 0.0000
1.0345 1.0000 0.0000
1.0345 1.0345 0.0000
1.0345 1.0690 0.0000
1.0345 1.1034 0.0000
1.0345 1.1379 0.0000
1.0345 1.1724 0.0000
1.0345 1.2069 0.0000
1.0345 1.2414 0.0000
1.0345 1.2759 0.0000
1.0345 1.3103 0.0000
1.0345 1.3448 0.0000
[...]
         <PointData>
            <DataArray Name="fValues" NumberOfComponents="3" format="ascii" type="Float64">
 1.92779e-15  8.93248e-16        00000 
-3.76793e-15 -1.60137e-15        00000 
 4.47122e-15  2.04931e-15        00000 
-8.19257e-16 -4.09628e-15        00000 
 1.86301e-15 -2.60821e-15        00000 
-6.92590e-15  1.12195e-14        00000 
 2.60821e-15 -1.86301e-15        00000 
-5.33687e-15 -7.02220e-17        00000 
 1.30411e-15 -6.70683e-15        00000 
-2.10032e-15  4.24837e-15        00000 
 7.45203e-16 -1.49041e-15        00000 
-1.72629e-16  1.65724e-14        00000 
-4.65752e-17 -1.26685e-14        00000 
 1.57441e-16  6.33331e-15        00000 
-4.19177e-16 -3.72602e-15        00000 
-5.73480e-16  2.80888e-16        00000 
       00000  2.98081e-15        00000 
 1.57818e-15 -2.35626e-15        00000 
-9.31504e-16        00000        00000 
-4.44739e-16  1.66192e-15        00000 
-7.45203e-16 -1.11781e-15        00000 
 4.92262e-15 -3.25630e-16        00000 
-4.09862e-15 -2.60821e-15        00000 
 4.47080e-15  3.62814e-15        00000 
 1.11781e-15  7.45203e-16        00000 
 5.27274e-15  1.89816e-15        00000 
-8.19724e-15  7.45203e-16        00000 
 3.84596e-15 -7.03530e-17        00000 
-3.28823e-15  3.99285e-16        00000 
 2.79368e-15 -2.07144e-15        00000 
-1.90225e+01 -6.67127e+00        00000 
-3.13613e+01  1.84850e+00        00000 
-3.86568e+01  1.20218e+01        00000 
-4.05093e+01  2.33845e+01        00000 
-4.00609e+01  3.31250e+01        00000 
-3.81484e+01  3.91006e+01        00000 
-3.42461e+01  4.63714e+01        00000 
-2.69808e+01  5.26114e+01        00000 
-1.84757e+01  5.69967e+01        00000 
-1.20191e+01  6.04971e+01        00000 
-5.72150e+00  6.21418e+01        00000 
-1.05697e+00  6.17699e+01        00000 
 1.36822e+00  6.00627e+01        00000 
 3.09714e+00  5.76131e+01        00000 
 4.11049e+00  5.50626e+01        00000 
 4.89989e+00  5.29362e+01        00000 
 5.86036e+00  5.13101e+01        00000 
 7.16498e+00  4.99022e+01        00000 
 9.52610e+00  4.81257e+01        00000 
 1.31743e+01  4.53588e+01        00000 
 1.76534e+01  4.14365e+01        00000 
 2.37230e+01  3.69112e+01        00000 
 3.01538e+01  3.18169e+01        00000 
 3.42081e+01  2.58914e+01        00000 
 3.65163e+01  2.02240e+01        00000 
 3.74843e+01  1.33978e+01        00000 
 3.82938e+01  5.57125e+00        00000 
 4.01028e+01 -2.76308e+00        00000 
 4.05615e+01 -1.31325e+01        00000 
 4.15757e+01 -2.39549e+01        00000 
-6.34780e+01  5.04634e+01        00000 
-8.38929e+01  5.83783e+01        00000 
-8.64041e+01  6.14088e+01        00000 
-8.16670e+01  6.49530e+01        00000 
-7.34169e+01  6.49851e+01        00000 
-6.39782e+01  6.29933e+01        00000 
-5.36360e+01  6.08112e+01        00000 
-4.42473e+01  5.80006e+01        00000 
-3.42280e+01  5.53381e+01        00000 
-2.44120e+01  5.25296e+01        00000 
-1.74643e+01  5.09476e+01        00000 
-1.01269e+01  4.90255e+01        00000 
-3.09759e+00  4.76187e+01        00000 
 3.07940e+00  4.61203e+01        00000 
 9.27877e+00  4.39261e+01        00000 
 1.50317e+01  4.15453e+01        00000 
 2.04049e+01  3.88520e+01        00000 
 2.55004e+01  3.59937e+01        00000 
 3.01631e+01  3.34017e+01        00000 
 3.41650e+01  3.12432e+01        00000 
 3.91765e+01  2.96128e+01        00000 
 4.53270e+01  2.79522e+01        00000 
 5.16621e+01  2.58795e+01        00000 
 5.96107e+01  2.38543e+01        00000 
 6.77063e+01  2.12839e+01        00000 
 7.58813e+01  1.72835e+01        00000 
 8.45571e+01  1.29870e+01        00000 
 9.02265e+01  8.45868e+00        00000 
 9.23155e+01  2.47874e+00        00000 
 8.64950e+01 -4.94576e+00        00000 
-1.65064e+02  5.80817e+01        00000 
-1.40556e+02  6.52911e+01        00000 
-1.23488e+02  6.34575e+01        00000 
-1.07723e+02  5.89827e+01        00000 
-9.10965e+01  5.04211e+01        00000 
-7.45458e+01  4.09672e+01        00000 
-6.11712e+01  3.08237e+01        00000 
-4.95204e+01  1.94139e+01        00000 
-3.93635e+01  9.57937e+00        00000 
-2.72114e+01  1.22326e+00        00000 
-1.51883e+01 -6.22133e+00        00000 
-6.49233e+00 -1.35887e+01        00000 
 1.87153e+00 -1.97773e+01        00000 
 9.16821e+00 -2.34844e+01        00000 
 1.59116e+01 -2.62036e+01        00000 
 2.22130e+01 -2.82760e+01        00000 
 2.78993e+01 -2.95461e+01        00000 
 3.33547e+01 -2.96082e+01        00000 
 3.86165e+01 -2.86655e+01        00000 
 4.51864e+01 -2.68395e+01        00000 
 5.31580e+01 -2.39916e+01        00000 
 6.07464e+01 -2.09299e+01        00000 
 6.88702e+01 -1.64138e+01        00000 
 7.74105e+01 -1.09085e+01        00000 
 8.84993e+01 -5.94940e+00        00000 
 1.02691e+02 -2.24429e+00        00000 
 1.16348e+02 -1.06362e+00        00000 
 1.30516e+02 -1.00751e+00        00000 
 1.44428e+02 -3.10694e+00        00000 
 1.59756e+02 -1.02955e+01        00000 
-2.53504e+02 -5.63316e+01        00000 
-1.96539e+02 -4.38700e+01        00000 
-1.57558e+02 -3.48821e+01        00000 
-1.28194e+02 -3.29798e+01        00000 
-1.04508e+02 -3.59558e+01        00000 
-8.44656e+01 -4.05115e+01        00000 
-6.52990e+01 -4.61927e+01        00000 
-4.84262e+01 -5.06364e+01        00000 
-3.34276e+01 -5.66224e+01        00000 
-2.22071e+01 -6.16667e+01        00000 
-9.81950e+00 -6.54667e+01        00000 
 2.16483e+00 -6.94900e+01        00000 
 1.11121e+01 -7.38618e+01        00000 
 1.82610e+01 -7.92208e+01        00000 
 2.22868e+01 -8.40598e+01        00000 
 2.56377e+01 -8.62209e+01        00000 
 2.87652e+01 -8.54984e+01        00000 
 3.28204e+01 -8.30987e+01        00000 
 3.89824e+01 -8.04653e+01        00000 
 4.79002e+01 -7.89371e+01        00000 
 5.68752e+01 -7.78924e+01        00000 
 6.63567e+01 -7.50567e+01        00000 
 7.75037e+01 -7.10584e+01        00000 
 9.11612e+01 -6.81047e+01        00000 
 1.06408e+02 -6.54464e+01        00000 
 1.21512e+02 -6.19070e+01        00000 
 1.41333e+02 -5.93699e+01        00000 
 1.65128e+02 -6.15604e+01        00000 
 1.92736e+02 -6.83161e+01        00000 
 2.30782e+02 -7.94248e+01        00000 
-2.80297e+02 -1.57475e+02        00000 
-2.28346e+02 -1.55625e+02        00000 
-1.83616e+02 -1.52593e+02        00000 
-1.49447e+02 -1.52816e+02        00000 
-1.20768e+02 -1.50953e+02        00000 
-9.58862e+01 -1.50695e+02        00000 
-7.35503e+01 -1.52905e+02        00000 
-5.26805e+01 -1.53349e+02        00000 
-3.43578e+01 -1.54415e+02        00000 
-1.90861e+01 -1.57814e+02        00000 
-9.60389e+00 -1.61008e+02        00000 
 8.80695e-01 -1.63194e+02        00000 
 1.01340e+01 -1.60999e+02        00000 
 1.81243e+01 -1.57288e+02        00000 
 2.42429e+01 -1.54733e+02        00000 
 2.85213e+01 -1.53943e+02        00000 
 3.33574e+01 -1.54789e+02        00000 
 3.93204e+01 -1.57174e+02        00000 
 4.69097e+01 -1.59216e+02        00000 
 5.29794e+01 -1.57785e+02        00000 
 5.91947e+01 -1.53491e+02        00000 
 6.99983e+01 -1.51257e+02        00000 
 8.43621e+01 -1.51681e+02        00000 
 1.00047e+02 -1.50400e+02        00000 
 1.16977e+02 -1.48550e+02        00000 
 1.39029e+02 -1.48338e+02        00000 
 1.62785e+02 -1.48628e+02        00000 
 1.88832e+02 -1.48608e+02        00000 
 2.24444e+02 -1.50532e+02        00000 
 2.68266e+02 -1.55252e+02        00000 
-2.82517e+02 -2.59944e+02        00000 
-2.38900e+02 -2.60816e+02        00000 
-1.96378e+02 -2.63480e+02        00000 
-1.60339e+02 -2.63555e+02        00000 
-1.31050e+02 -2.60289e+02        00000 
-1.04568e+02 -2.57783e+02        00000 
-8.03567e+01 -2.54525e+02        00000 
-5.99680e+01 -2.53897e+02        00000 
-4.29293e+01 -2.53187e+02        00000 
-2.61769e+01 -2.49493e+02        00000 
-1.05801e+01 -2.46091e+02        00000 
-2.41195e+00 -2.45493e+02        00000 
 5.47734e+00 -2.45388e+02        00000 
 1.22722e+01 -2.42491e+02        00000 
 2.23736e+01 -2.39028e+02        00000 
 3.09767e+01 -2.36552e+02        00000 
 3.96798e+01 -2.36357e+02        00000 
 4.62971e+01 -2.35378e+02        00000 
 5.15409e+01 -2.33406e+02        00000 
 5.74417e+01 -2.34436e+02        00000 
 6.88056e+01 -2.37291e+02        00000 
 8.07396e+01 -2.38321e+02        00000 
 9.26272e+01 -2.37220e+02        00000 
 1.07620e+02 -2.36846e+02        00000 
 1.28176e+02 -2.37736e+02        00000 
 1.50548e+02 -2.39497e+02        00000 
 1.75707e+02 -2.42002e+02        00000 
 2.05686e+02 -2.43461e+02        00000 
 2.42565e+02 -2.42298e+02        00000 
 2.81646e+02 -2.38821e+02        00000 
-2.75888e+02 -3.59758e+02        00000 
-2.35182e+02 -3.62583e+02        00000 
-1.95995e+02 -3.63678e+02        00000 
-1.60023e+02 -3.61172e+02        00000 
-1.31794e+02 -3.60200e+02        00000 
-1.08238e+02 -3.57762e+02        00000 
-8.69496e+01 -3.54757e+02        00000 
-6.60580e+01 -3.50831e+02        00000 
-4.79543e+01 -3.49574e+02        00000 
-3.60362e+01 -3.47762e+02        00000 
-2.32744e+01 -3.43071e+02        00000 
-1.08819e+01 -3.36308e+02        00000 
-6.70587e-01 -3.29180e+02        00000 
 7.50648e+00 -3.24816e+02        00000 
 1.62095e+01 -3.23508e+02        00000 
 2.79427e+01 -3.21712e+02        00000 
 3.79418e+01 -3.18871e+02        00000 
 4.64299e+01 -3.18460e+02        00000 
 5.43055e+01 -3.20786e+02        00000 
 6.42877e+01 -3.22848e+02        00000 
 7.39641e+01 -3.24838e+02        00000 
 8.31857e+01 -3.26309e+02        00000 
 9.61692e+01 -3.26275e+02        00000 
 1.13455e+02 -3.27594e+02        00000 
 1.31665e+02 -3.30617e+02        00000 
 1.51713e+02 -3.31920e+02        00000 
 1.75413e+02 -3.31751e+02        00000 
 2.08390e+02 -3.32456e+02        00000 
 2.45995e+02 -3.32463e+02        00000 
 2.80844e+02 -3.29973e+02        00000 
-2.46928e+02 -4.36032e+02        00000 
-2.14203e+02 -4.40872e+02        00000 
-1.85630e+02 -4.41853e+02        00000 
-1.54249e+02 -4.42467e+02        00000 
-1.27785e+02 -4.43809e+02        00000 
-1.05265e+02 -4.42454e+02        00000 
-8.76223e+01 -4.41107e+02        00000 
-7.18861e+01 -4.38285e+02        00000 
-5.50499e+01 -4.33056e+02        00000 
-3.95691e+01 -4.29621e+02        00000 
-3.18278e+01 -4.28293e+02        00000 
-2.04961e+01 -4.26912e+02        00000 
-1.02704e+01 -4.23042e+02        00000 
 3.66954e+00 -4.21153e+02        00000 
 1.18030e+01 -4.19106e+02        00000 
 2.22168e+01 -4.17156e+02        00000 
 3.08827e+01 -4.14642e+02        00000 
 4.38599e+01 -4.11559e+02        00000 
 5.52943e+01 -4.11139e+02        00000 
 6.60308e+01 -4.11661e+02        00000 
 7.25053e+01 -4.09416e+02        00000 
 8.33960e+01 -4.09543e+02        00000 
 9.80214e+01 -4.14004e+02        00000 
 1.12078e+02 -4.15028e+02        00000 
 1.27810e+02 -4.15256e+02        00000 
 1.47355e+02 -4.17299e+02        00000 
 1.71193e+02 -4.15673e+02        00000 
 2.01482e+02 -4.11427e+02        00000 
 2.29724e+02 -4.10891e+02        00000 
 2.67261e+02 -4.12589e+02        00000 
-2.26721e+02 -5.12119e+02        00000 
-1.89771e+02 -5.14420e+02        00000 
-1.66704e+02 -5.13909e+02        00000 
-1.41940e+02 -5.15404e+02        00000 
-1.17652e+02 -5.15857e+02        00000 
-9.98786e+01 -5.18186e+02        00000 
-8.34688e+01 -5.18391e+02        00000 
-7.11388e+01 -5.15397e+02        00000 
-6.01792e+01 -5.13768e+02        00000 
-4.69360e+01 -5.08776e+02        00000 
-3.35730e+01 -5.03922e+02        00000 
-2.40865e+01 -5.03150e+02        00000 
-1.42646e+01 -5.02736e+02        00000 
-2.12702e+00 -4.99109e+02        00000 
 9.32578e+00 -4.96349e+02        00000 
 1.73760e+01 -4.94944e+02        00000 
 2.64450e+01 -4.95271e+02        00000 
 3.83669e+01 -4.96155e+02        00000 
 4.88591e+01 -4.92017e+02        00000 
 5.88055e+01 -4.89041e+02        00000 
 7.24082e+01 -4.92620e+02        00000 
 8.52523e+01 -4.93845e+02        00000 
 9.38530e+01 -4.91609e+02        00000 
 1.05194e+02 -4.93659e+02        00000 
 1.19640e+02 -4.95044e+02        00000 
 1.36740e+02 -4.92111e+02        00000 
 1.60659e+02 -4.90640e+02        00000 
 1.84605e+02 -4.89775e+02        00000 
 2.06706e+02 -4.86515e+02        00000 
 2.43609e+02 -4.85422e+02        00000 
-1.84654e+02 -5.61163e+02        00000 
-1.61791e+02 -5.67360e+02        00000 
-1.41662e+02 -5.71458e+02        00000 
-1.23249e+02 -5.74078e+02        00000 
-1.04141e+02 -5.74275e+02        00000 
-8.90062e+01 -5.77558e+02        00000 
-7.74876e+01 -5.79448e+02        00000 
-6.50457e+01 -5.77508e+02        00000 
-5.56128e+01 -5.75043e+02        00000 
-4.80842e+01 -5.76679e+02        00000 
-3.75478e+01 -5.79053e+02        00000 
-2.36238e+01 -5.77684e+02        00000 
-1.24645e+01 -5.77885e+02        00000 
-7.79646e+00 -5.77430e+02        00000 
 3.69869e+00 -5.76179e+02        00000 
 1.21876e+01 -5.75286e+02        00000 
 2.58254e+01 -5.73846e+02        00000 
 3.07965e+01 -5.71126e+02        00000 
 4.10128e+01 -5.71121e+02        00000 
 5.46037e+01 -5.69850e+02        00000 
 6.46576e+01 -5.63610e+02        00000 
 7.41021e+01 -5.62073e+02        00000 
 8.50666e+01 -5.63711e+02        00000 
 9.57605e+01 -5.64305e+02        00000 
 1.07402e+02 -5.63035e+02        00000 
 1.20812e+02 -5.57952e+02        00000 
 1.39673e+02 -5.54093e+02        00000 
 1.60053e+02 -5.54712e+02        00000 
 1.83051e+02 -5.51853e+02        00000 
 2.10416e+02 -5.42758e+02        00000 
-1.50911e+02 -6.10594e+02        00000 
-1.30987e+02 -6.14217e+02        00000 
-1.12243e+02 -6.20203e+02        00000 
-1.00823e+02 -6.21530e+02        00000 
-8.60035e+01 -6.24120e+02        00000 
-7.43347e+01 -6.29448e+02        00000 
-6.42695e+01 -6.31677e+02        00000 
-5.81754e+01 -6.32601e+02        00000 
-4.98799e+01 -6.29868e+02        00000 
-3.91784e+01 -6.28383e+02        00000 
-3.28766e+01 -6.30674e+02        00000 
-2.33488e+01 -6.33768e+02        00000 
-1.35838e+01 -6.32277e+02        00000 
-6.76036e+00 -6.32902e+02        00000 
 1.86069e+00 -6.35037e+02        00000 
 9.15105e+00 -6.33176e+02        00000 
 1.88021e+01 -6.32354e+02        00000 
 2.40338e+01 -6.31215e+02        00000 
 3.32839e+01 -6.28889e+02        00000 
 4.48491e+01 -6.28454e+02        00000 
 5.23361e+01 -6.25758e+02        00000 
 6.19143e+01 -6.22195e+02        00000 
 7.20117e+01 -6.23069e+02        00000 
 7.92955e+01 -6.22418e+02        00000 
 8.90373e+01 -6.19374e+02        00000 
 1.01754e+02 -6.14873e+02        00000 
 1.15782e+02 -6.10203e+02        00000 
 1.27283e+02 -6.08169e+02        00000 
 1.49860e+02 -6.04247e+02        00000 
 1.69743e+02 -5.95860e+02        00000 
-1.06858e+02 -6.38320e+02        00000 
-9.52471e+01 -6.47832e+02        00000 
-8.15012e+01 -6.51527e+02        00000 
-7.40030e+01 -6.53839e+02        00000 
-6.39701e+01 -6.58437e+02        00000 
-5.55164e+01 -6.60151e+02        00000 
-4.92379e+01 -6.65283e+02        00000 
-4.39092e+01 -6.69376e+02        00000 
-4.00673e+01 -6.71268e+02        00000 
-3.19737e+01 -6.73304e+02        00000 
-2.12947e+01 -6.75000e+02        00000 
-2.11246e+01 -6.78378e+02        00000 
-1.38737e+01 -6.80745e+02        00000 
-3.72070e+00 -6.80260e+02        00000 
 4.98137e-01 -6.81546e+02        00000 
 6.54710e+00 -6.83123e+02        00000 
 9.75908e+00 -6.80711e+02        00000 
 2.03339e+01 -6.80149e+02        00000 
 2.80116e+01 -6.78403e+02        00000 
 2.84817e+01 -6.73920e+02        00000 
 3.84179e+01 -6.73483e+02        00000 
 4.75821e+01 -6.72016e+02        00000 
 5.43277e+01 -6.68092e+02        00000 
 6.04415e+01 -6.65158e+02        00000 
 6.56388e+01 -6.60017e+02        00000 
 7.47608e+01 -6.55521e+02        00000 
 8.60786e+01 -6.52933e+02        00000 
 9.61166e+01 -6.48783e+02        00000 
 1.10676e+02 -6.42829e+02        00000 
 1.25007e+02 -6.34825e+02        00000 
-6.46833e+01 -6.62202e+02        00000 
-5.76463e+01 -6.70293e+02        00000 
-4.99675e+01 -6.75194e+02        00000 
-4.49182e+01 -6.79243e+02        00000 
-4.07970e+01 -6.83992e+02        00000 
-3.39607e+01 -6.87184e+02        00000 
-3.06900e+01 -6.91021e+02        00000 
-2.75692e+01 -6.95897e+02        00000 
-2.42308e+01 -6.97022e+02        00000 
-2.01016e+01 -6.99540e+02        00000 
-1.47521e+01 -7.02606e+02        00000 
-1.23134e+01 -7.04013e+02        00000 
-7.92171e+00 -7.08494e+02        00000 
-4.06278e+00 -7.10756e+02        00000 
-5.90065e-01 -7.11166e+02        00000 
 4.54062e+00 -7.11501e+02        00000 
 5.91578e+00 -7.11263e+02        00000 
 1.15053e+01 -7.10518e+02        00000 
 1.78560e+01 -7.08298e+02        00000 
 1.83322e+01 -7.06766e+02        00000 
 2.25732e+01 -7.03775e+02        00000 
 2.85985e+01 -7.00896e+02        00000 
 3.36166e+01 -6.99845e+02        00000 
 3.74664e+01 -6.96158e+02        00000 
 4.16766e+01 -6.90539e+02        00000 
 4.74750e+01 -6.85357e+02        00000 
 5.32952e+01 -6.81502e+02        00000 
 5.79689e+01 -6.77671e+02        00000 
 6.78146e+01 -6.70588e+02        00000 
 7.69302e+01 -6.60552e+02        00000 
-2.50809e+01 -6.72726e+02        00000 
-2.06689e+01 -6.79888e+02        00000 
-1.80379e+01 -6.85375e+02        00000 
-1.45536e+01 -6.89793e+02        00000 
-1.35284e+01 -6.93005e+02        00000 
-1.21628e+01 -6.98405e+02        00000 
-9.67188e+00 -7.05014e+02        00000 
-1.09187e+01 -7.07675e+02        00000 
-8.12434e+00 -7.11837e+02        00000 
-5.45593e+00 -7.15406e+02        00000 
-6.95634e+00 -7.17773e+02        00000 
-3.62327e+00 -7.21322e+02        00000 
-2.15687e+00 -7.24289e+02        00000 
-2.68031e+00 -7.26668e+02        00000 
 3.90000e-01 -7.27776e+02        00000 
 2.64058e+00 -7.28650e+02        00000 
 2.44040e+00 -7.28640e+02        00000 
 2.23474e+00 -7.27301e+02        00000 
 5.09196e+00 -7.25328e+02        00000 
 7.78362e+00 -7.22777e+02        00000 
 7.68268e+00 -7.20712e+02        00000 
 1.04291e+01 -7.18859e+02        00000 
 1.12579e+01 -7.15730e+02        00000 
 1.21437e+01 -7.10627e+02        00000 
 1.45539e+01 -7.05164e+02        00000 
 1.59699e+01 -7.00433e+02        00000 
 1.70093e+01 -6.95065e+02        00000 
 2.16098e+01 -6.89843e+02        00000 
 2.33721e+01 -6.83986e+02        00000 
 2.61996e+01 -6.75805e+02        00000 
 2.52310e+01 -6.72724e+02        00000 
 2.06846e+01 -6.78020e+02        00000 
 1.78914e+01 -6.85381e+02        00000 
 1.47042e+01 -6.89302e+02        00000 
 1.35387e+01 -6.91664e+02        00000 
 1.20843e+01 -6.97738e+02        00000 
 9.69451e+00 -7.04449e+02        00000 
 1.09347e+01 -7.06783e+02        00000 
 8.10368e+00 -7.11087e+02        00000 
 5.45377e+00 -7.14727e+02        00000 
 6.95863e+00 -7.17052e+02        00000 
 3.62053e+00 -7.20608e+02        00000 
 2.15389e+00 -7.23589e+02        00000 
 2.67723e+00 -7.25979e+02        00000 
-3.93439e-01 -7.27101e+02        00000 
-2.64436e+00 -7.27989e+02        00000 
-2.44450e+00 -7.27995e+02        00000 
-2.23929e+00 -7.26674e+02        00000 
-5.09749e+00 -7.24721e+02        00000 
-7.78871e+00 -7.22196e+02        00000 
-7.68672e+00 -7.20144e+02        00000 
-1.04389e+01 -7.18307e+02        00000 
-1.12645e+01 -7.15250e+02        00000 
-1.21422e+01 -7.10126e+02        00000 
-1.45701e+01 -7.04662e+02        00000 
-1.59905e+01 -7.00076e+02        00000 
-1.70315e+01 -6.94749e+02        00000 
-2.16104e+01 -6.89649e+02        00000 
-2.34023e+01 -6.83672e+02        00000 
-2.62235e+01 -6.75821e+02        00000 
 6.44854e+01 -6.62148e+02        00000 
 5.75096e+01 -6.69041e+02        00000 
 5.00337e+01 -6.76111e+02        00000 
 4.47792e+01 -6.80085e+02        00000 
 4.08297e+01 -6.83371e+02        00000 
 3.40028e+01 -6.87480e+02        00000 
 3.06956e+01 -6.91547e+02        00000 
 2.75789e+01 -6.95696e+02        00000 
 2.42274e+01 -6.97094e+02        00000 
 2.01019e+01 -6.99809e+02        00000 
 1.47607e+01 -7.02747e+02        00000 
 1.23194e+01 -7.04135e+02        00000 
 7.92752e+00 -7.08624e+02        00000 
 4.06960e+00 -7.10882e+02        00000 
 5.97521e-01 -7.11290e+02        00000 
-4.53244e+00 -7.11623e+02        00000 
-5.90677e+00 -7.11383e+02        00000 