<?xml version="1.0" encoding="utf-8"?>
<VTKFile byte_order="LittleEndian" type="UnstructuredGrid" version="0.1">
   <UnstructuredGrid>
      <Piece NumberOfCells="3364" NumberOfPoints="1741">
         <Points>
            <DataArray Name="Points" NumberOfComponents="3" format="ascii" type="Float32">
0.0000 1.0000 0.0000
0.0000 1.0345 0.0000
0.0000 1.0690 0.0000
0.0000 1.1034 0.0000
0.0000 1.1379 0.0000
0.0000 1.1724 0.0000
0.0000 1.2069 0.0000
0.0000 1.2414 0.0000
0.0000 1.2759 0.0000
0.0000 1.3103 0.0000
0.0000 1.3448 0.0000
0.0000 1.3793 0.0000
0.0000 1.4138 0.0000
0.0000 1.4483 0.0000
0.0000 1.4828 0.0000
0.0000 1.5172 0.0000
0.0000 1.5517 0.0000
0.0000 1.5862 0.0000
0.0000 1.6207 0.0000
0.0000 1.6552 0.0000
0.0000 1.6897 0.0000
0.0000 1.7241 0.0000
0.0000 1.7586 0.0000
0.0000 1.7931 0.0000
0.0000 1.8276 0.0000
0.0000 1.8621 0.0000
0.0000 1.8966 0.0000
0.0000 1.9310 0.0000
0.0000 1.9655 0.0000
0.0000 2.0000 0.0000
0.0690 1.0000 0.0000
0.0690 1.0345 0.0000
0.0690 1.0690 0.0000
0.0690 1.1034 0.0000
0.0690 1.1379 0.0000
0.0690 1.1724 0.0000
0.0690 1.2069 0.0000
0.0690 1.2414 0.0000
0.0690 1.2759 0.0000
0.0690 1.3103 0.0000
0.0690 1.3448 0.0000
0.0690 1.3793 0.0000
0.0690 1.4138 0.0000
0.0690 1.4483 0.0000
0.0690 1.4828 0.0000
0.0690 1.5172 0.0000
0.0690 1.5517 0.0000
0.0690 1.5862 0.0000
0.0690 1.6207 0.0000
0.0690 1.6552 0.0000
0.0690 1.6897 0.0000
0.0690 1.7241 0.0000
0.0690 1.7586 0.0000
0.0690 1.7931 0.0000
0.0690 1.8276 0.0000
0.0690 1.8621 0.0000
0.0690 1.8966 0.0000
0.0690 1.9310 0.0000
0.0690 1.9655 0.0000
0.0690 2.0000 0.0000
0.1379 1.0000 0.0000
0.1379 1.0345 0.0000
0.1379 1.0690 0.0000
0.1379 1.1034 0.0000
0.1379 1.1379 0.0000
0.1379 1.1724 0.0000
0.1379 1.2069 0.0000
0.1379 1.2414 0.0000
0.1379 1.2759 0.0000
0.1379 1.3103 0.0000
0.1379 1.3448 0.0000
0.1379 1.3793 0.0000
0.1379 1.4138 0.0000
0.1379 1.4483 0.0000
0.1379 1.4828 0.0000
0.1379 1.5172 0.0000
0.1379 1.5517 0.0000
0.1379 1.5862 0.0000
0.1379 1.6207 0.0000
0.1379 1.6552 0.0000
0.1379 1.6897 0.0000
0.1379 1.7241 0.0000
0.1379 1.7586 0.0000
0.1379 1.7931 0.0000
0.1379 1.8276 0.0000
0.1379 1.8621 0.0000
0.1379 1.8966 0.0000
0.1379 1.9310 0.0000
0.1379 1.9655 0.0000
0.1379 2.0000 0.0000
0.2069 1.0000 0.0000
0.2069 1.0345 0.0000
0.2069 1.0690 0.0000
0.2069 1.1034 0.0000
0.2069 1.1379 0.0000
0.2069 1.1724 0.0000
0.2069 1.2069 0.0000
0.2069 1.2414 0.0000
0.2069 1.2759 0.0000
0.2069 1.3103 0.0000
0.2069 1.3448 0.0000
0.2069 1.3793 0.0000
0.2069 1.4138 0.0000
0.2069 1.4483 0.0000
0.2069 1.4828 0.0000
0.2069 1.5172 0.0000
0.2069 1.5517 0.0000
0.2069 1.5862 0.0000
0.2069 1.6207 0.0000
0.2069 1.6552 0.0000
0.2069 1.6897 0.0000
0.2069 1.7241 0.0000
0.2069 1.7586 0.0000
0.2069 1.7931 0.0000
0.2069 1.8276 0.0000
0.2069 1.8621 0.0000
0.2069 1.8966 0.0000
0.2069 1.9310 0.0000
0.2069 1.9655 0.0000
0.2069 2.0000 0.0000
0.2759 1.0000 0.0000
0.2759 1.0345 0.0000
0.2759 1.0690 0.0000
0.2759 1.1034 0.0000
0.2759 1.1379 0.0000
0.2759 1.1724 0.0000
0.2759 1.2069 0.0000
0.2759 1.2414 0.0000
0.2759 1.2759 0.0000
0.2759 1.3103 0.0000
0.2759 1.3448 0.0000
0.2759 1.3793 0.0000
0.2759 1.4138 0.0000
0.2759 1.4483 0.0000
0.2759 1.4828 0.0000
0.2759 1.5172 0.0000
0.2759 1.5517 0.0000
0.2759 1.5862 0.0000
0.2759 1.6207 0.0000
0.2759 1.6552 0.0000
0.2759 1.6897 0.0000
0.2759 1.7241 0.0000
0.2759 1.7586 0.0000
0.2759 1.7931 0.0000
0.2759 1.8276 0.0000
0.2759 1.8621 0.0000
0.2759 1.8966 0.0000
0.2759 1.9310 0.0000
0.2759 1.9655 0.0000
0.2759 2.0000 0.0000
0.3448 1.0000 0.0000
0.3448 1.0345 0.0000
0.3448 1.0690 0.0000
0.3448 1.1034 0.0000
0.3448 1.1379 0.0000
0.3448 1.1724 0.0000
0.3448 1.2069 0.0000
0.3448 1.2414 0.0000
0.3448 1.2759 0.0000
0.3448 1.3103 0.0000
0.3448 1.3448 0.0000
0.3448 1.3793 0.0000
0.3448 1.4138 0.0000
0.3448 1.4483 0.0000
0.3448 1.4828 0.0000
0.3448 1.5172 0.0000
0.3448 1.5517 0.0000
0.3448 1.5862 0.0000
0.3448 1.6207 0.0000
0.3448 1.6552 0.0000
0.3448 1.6897 0.0000
0.3448 1.7241 0.0000
0.3448 1.7586 0.0000
0.3448 1.7931 0.0000
0.3448 1.8276 0.0000
0.3448 1.8621 0.0000
0.3448 1.8966 0.0000
0.3448 1.9310 0.0000
0.3448 1.9655 0.0000
0.3448 2.0000 0.0000
0.4138 1.0000 0.0000
0.4138 1.0345 0.0000
0.4138 1.0690 0.0000
0.4138 1.1034 0.0000
0.4138 1.1379 0.0000
0.4138 1.1724 0.0000
0.4138 1.2069 0.0000
0.4138 1.2414 0.0000
0.4138 1.2759 0.0000
0.4138 1.3103 0.0000
0.4138 1.3448 0.0000
0.4138 1.3793 0.0000
0.4138 1.4138 0.0000
0.4138 1.4483 0.0000
0.4138 1.4828 0.0000
0.4138 1.5172 0.0000
0.4138 1.5517 0.0000
0.4138 1.5862 0.0000
0.4138 1.6207 0.0000
0.4138 1.6552 0.0000
0.4138 1.6897 0.0000
0.4138 1.7241 0.0000
0.4138 1.7586 0.0000
0.4138 1.7931 0.0000
0.4138 1.8276 0.0000
0.4138 1.8621 0.0000
0.4138 1.8966 0.0000
0.4138 1.9310 0.0000
0.4138 1.9655 0.0000
0.4138 2.0000 0.0000
0.4828 1.0000 0.0000
0.4828 1.0345 0.0000
0.4828 1.0690 0.0000
0.4828 1.1034 0.0000
0.4828 1.1379 0.0000
0.4828 1.1724 0.0000
0.4828 1.2069 0.0000
0.4828 1.2414 0.0000
0.4828 1.2759 0.0000
0.4828 1.3103 0.0000
0.4828 1.3448 0.0000
0.4828 1.3793 0.0000
0.4828 1.4138 0.0000
0.4828 1.4483 0.0000
0.4828 1.4828 0.0000
0.4828 1.5172 0.0000
0.4828 1.5517 0.0000
0.4828 1.5862 0.0000
0.4828 1.6207 0.0000
0.4828 1.6552 0.0000
0.4828 1.6897 0.0000
0.4828 1.7241 0.0000
0.4828 1.7586 0.0000
0.4828 1.7931 0.0000
0.4828 1.8276 0.0000
0.4828 1.8621 0.0000
0.4828 1.8966 0.0000
0.4828 1.9310 0.0000
0.4828 1.9655 0.0000
0.4828 2.0000 0.0000
0.5517 1.0000 0.0000
0.5517 1.0345 0.0000
0.5517 1.0690 0.0000
0.5517 1.1034 0.0000
0.5517 1.1379 0.0000
0.5517 1.1724 0.0000
0.5517 1.2069 0.0000
0.5517 1.2414 0.0000
0.5517 1.2759 0.0000
0.5517 1.3103 0.0000
0.5517 1.3448 0.0000
0.5517 1.3793 0.0000
0.5517 1.4138 0.0000
0.5517 1.4483 0.0000
0.5517 1.4828 0.0000
0.5517 1.5172 0.0000
0.5517 1.5517 0.0000
0.5517 1.5862 0.0000
0.5517 1.6207 0.0000
0.5517 1.6552 0.0000
0.5517 1.6897 0.0000
0.5517 1.7241 0.0000
0.5517 1.7586 0.0000
0.5517 1.7931 0.0000
0.5517 1.8276 0.0000
0.5517 1.8621 0.0000
0.5517 1.8966 0.0000
0.5517 1.9310 0.0000
0.5517 1.9655 0.0000
0.5517 2.0000 0.0000
0.6207 1.0000 0.0000
0.6207 1.0345 0.0000
0.6207 1.0690 0.0000
0.6207 1.1034 0.0000
0.6207 1.1379 0.0000
0.6207 1.1724 0.0000
0.6207 1.2069 0.0000
0.6207 1.2414 0.0000
0.6207 1.2759 0.0000
0.6207 1.3103 0.0000
0.6207 1.3448 0.0000
0.6207 1.3793 0.0000
0.6207 1.4138 0.0000
0.6207 1.4483 0.0000
0.6207 1.4828 0.0000
0.6207 1.5172 0.0000
0.6207 1.5517 0.0000
0.6207 1.5862 0.0000
0.6207 1.6207 0.0000
0.6207 1.6552 0.0000
0.6207 1.6897 0.0000
0.6207 1.7241 0.0000
0.6207 1.7586 0.0000
0.6207 1.7931 0.0000
0.6207 1.8276 0.0000
0.6207 1.8621 0.0000
0.6207 1.8966 0.0000
0.6207 1.9310 0.0000
0.6207 1.9655 0.0000
0.6207 2.0000 0.0000
0.6897 1.0000 0.0000
0.6897 1.0345 0.0000
0.6897 1.0690 0.0000
0.6897 1.1034 0.0000
0.6897 1.1379 0.0000
0.6897 1.1724 0.0000
0.6897 1.2069 0.0000
0.6897 1.2414 0.0000
0.6897 1.2759 0.0000
0.6897 1.3103 0.0000
0.6897 1.3448 0.0000
0.6897 1.3793 0.0000
0.6897 1.4138 0.0000
0.6897 1.4483 0.0000
0.6897 1.4828 0.0000
0.6897 1.5172 0.0000
0.6897 1.5517 0.0000
0.6897 1.5862 0.0000
0.6897 1.6207 0.0000
0.6897 1.6552 0.0000
0.6897 1.6897 0.0000
0.6897 1.7241 0.0000
0.6897 1.7586 0.0000
0.6897 1.7931 0.0000
0.6897 1.8276 0.0000
0.6897 1.8621 0.0000
0.6897 1.8966 0.0000
0.6897 1.9310 0.0000
0.6897 1.9655 0.0000
0.6897 2.0000 0.0000
0.7586 1.0000 0.0000
0.7586 1.0345 0.0000
0.7586 1.0690 0.0000
0.7586 1.1034 0.0000
0.7586 1.1379 0.0000
0.7586 1.1724 0.0000
0.7586 1.2069 0.0000
0.7586 1.2414 0.0000
0.7586 1.2759 0.0000
0.7586 1.3103 0.0000
0.7586 1.3448 0.0000
0.7586 1.3793 0.0000
0.7586 1.4138 0.0000
0.7586 1.4483 0.0000
0.7586 1.4828 0.0000
0.7586 1.5172 0.0000
0.7586 1.5517 0.0000
0.7586 1.5862 0.0000
0.7586 1.6207 0.0000
0.7586 1.6552 0.0000
0.7586 1.6897 0.0000
0.7586 1.7241 0.0000
0.7586 1.7586 0.0000
0.7586 1.7931 0.0000
0.7586 1.8276 0.0000
0.7586 1.8621 0.0000
0.7586 1.8966 0.0000
0.7586 1.9310 0.0000
0.7586 1.9655 0.0000
0.7586 2.0000 0.0000
0.8276 1.0000 0.0000
0.8276 1.0345 0.0000
0.8276 1.0690 0.0000
0.8276 1.1034 0.0000
0.8276 1.1379 0.0000
0.8276 1.1724 0.0000
0.8276 1.2069 0.0000
0.8276 1.2414 0.0000
0.8276 1.2759 0.0000
0.8276 1.3103 0.0000
0.8276 1.3448 0.0000
0.8276 1.3793 0.0000
0.8276 1.4138 0.0000
0.8276 1.4483 0.0000
0.8276 1.4828 0.0000
0.8276 1.5172 0.0000
0.8276 1.5517 0.0000
0.8276 1.5862 0.0000
0.8276 1.6207 0.0000
0.8276 1.6552 0.0000
0.8276 1.6897 0.0000
0.8276 1.7241 0.0000
0.8276 1.7586 0.0000
0.8276 1.7931 0.0000
0.8276 1.8276 0.0000
0.8276 1.8621 0.0000
0.8276 1.8966 0.0000
0.8276 1.9310 0.0000
0.8276 1.9655 0.0000
0.8276 2.0000 0.0000
0.8966 1.0000 0.0000
0.8966 1.0345 0.0000
0.8966 1.0690 0.0000
0.8966 1.1034 0.0000
0.8966 1.1379 0.0000
0.8966 1.1724 0.0000
0.8966 1.2069 0.0000
0.8966 1.2414 0.0000
0.8966 1.2759 0.0000
0.8966 1.3103 0.0000
0.8966 1.3448 0.0000
0.8966 1.3793 0.0000
0.8966 1.4138 0.0000
0.8966 1.4483 0.0000
0.8966 1.4828 0.0000
0.8966 1.5172 0.0000
0.8966 1.5517 0.0000
0.8966 1.5862 0.0000
0.8966 1.6207 0.0000
0.8966 1.6552 0.0000
0.8966 1.6897 0.0000
0.8966 1.7241 0.0000
0.8966 1.7586 0.0000
0.8966 1.7931 0.0000
0.8966 1.8276 0.0000
0.8966 1.8621 0.0000
0.8966 1.8966 0.0000
0.8966 1.9310 0.0000
0.8966 1.9655 0.0000
0.8966 2.0000 0.0000
0.9655 1.0000 0.0000
0.9655 1.0345 0.0000
0.9655 1.0690 0.0000
0.9655 1.1034 0.0000
0.9655 1.1379 0.0000
0.9655 1.1724 0.0000
0.9655 1.2069 0.0000
0.9655 1.2414 0.0000
0.9655 1.2759 0.0000
0.9655 1.3103 0.0000
0.9655 1.3448 0.0000
0.9655 1.3793 0.0000
0.9655 1.4138 0.0000
0.9655 1.4483 0.0000
0.9655 1.4828 0.0000
0.9655 1.5172 0.0000
0.9655 1.5517 0.0000
0.9655 1.5862 0.0000
0.9655 1.6207 0.0000
0.9655 1.6552 0.0000
0.9655 1.6897 0.0000
0.9655 1.7241 0.0000
0.9655 1.7586 0.0000
0.9655 1.7931 0.0000
0.9655 1.8276 0.0000
0.9655 1.8621 0.0000
0.9655 1.8966 0.0000
0.9655 1.9310 0.0000
0.9655 1.9655 0.0000
0.9655 2.0000 0.0000
1.0345 1.0000 0.0000
1.0345 1.0345 0.0000
1.0345 1.0690 0.0000
1.0345 1.1034 0.0000
1.0345 1.1379 0.0000
1.0345 1.1724 0.0000
1.0345 1.2069 0.0000
1.0345 1.2414 0.0000
1.0345 1.2759 0.0000
1.0345 1.3103 0.0000
1.0345 1.3448 0.0000
[...]
         <PointData>
            <DataArray Name="fValues" NumberOfComponents="3" format="ascii" type="Float64">
 6.66846e-15 -1.22679e-15        00000 
-3.01435e-15  4.70991e-16        00000 
-3.35342e-15 -1.67671e-15        00000 
 3.51695e-15  9.53849e-16        00000 
-1.39726e-15 -1.16438e-15        00000 
-2.27598e-15  5.36530e-16        00000 
 1.39726e-15  1.58356e-15        00000 
-2.16518e-16 -1.54488e-15        00000 
 2.09588e-16 -1.11781e-15        00000 
-1.29940e-16 -3.18609e-15        00000 
-8.15066e-17  3.72602e-15        00000 
 2.75905e-17 -5.10280e-15        00000 
-7.13183e-17 -7.45203e-16        00000 
 5.99467e-18 -5.85875e-16        00000 
-2.80179e-17  2.98081e-15        00000 
-9.52295e-17  4.96236e-15        00000 
 1.16438e-16 -8.56984e-15        00000 
 2.15098e-16 -4.69526e-15        00000 
 5.35615e-16 -3.35342e-15        00000 
-8.01701e-16  5.29006e-15        00000 
 9.31504e-17 -1.49041e-15        00000 
 1.45194e-15  6.17791e-15        00000 
-7.45203e-16 -1.11781e-15        00000 
-4.97406e-16 -9.59701e-16        00000 
-2.23561e-15  4.65752e-16        00000 
 2.85941e-15 -8.47911e-16        00000 
-6.70683e-15 -5.58903e-16        00000 
 5.89793e-15  1.17841e-15        00000 
 7.23411e-15 -6.57646e-16        00000 
-1.80853e-15 -8.21400e-16        00000 
-6.73823e+01 -3.93529e+00        00000 
-5.12285e+01  2.53086e+00        00000 
-3.76971e+01  7.86107e+00        00000 
-2.44226e+01  5.97648e+00        00000 
-1.39026e+01  3.41166e+00        00000 
-7.86122e+00 -1.95202e+00        00000 
-4.33078e+00 -7.59179e+00        00000 
-2.41049e+00 -1.31800e+01        00000 
-2.03194e-01 -1.93194e+01        00000 
 4.13818e-01 -2.53005e+01        00000 
 2.08358e-01 -3.21639e+01        00000 
-1.01224e+00 -3.85145e+01        00000 
-9.77760e-01 -4.40053e+01        00000 
 3.54285e-02 -4.90116e+01        00000 
-5.43672e-01 -5.22737e+01        00000 
-6.22779e-01 -5.27457e+01        00000 
 1.85407e-01 -5.02855e+01        00000 
 1.48202e+00 -4.62306e+01        00000 
 2.82138e+00 -4.15977e+01        00000 
 4.61430e+00 -3.63451e+01        00000 
 5.55580e+00 -3.07970e+01        00000 
 6.31449e+00 -2.52384e+01        00000 
 8.48796e+00 -2.04272e+01        00000 
 1.10474e+01 -1.66386e+01        00000 
 1.46341e+01 -1.24121e+01        00000 
 2.00394e+01 -9.18812e+00        00000 
 2.93303e+01 -7.01331e+00        00000 
 4.06774e+01 -7.65147e+00        00000 
 5.11061e+01 -1.22192e+01        00000 
 6.40091e+01 -2.16239e+01        00000 
-1.27062e+02 -6.39212e+01        00000 
-9.70779e+01 -5.38164e+01        00000 
-7.23178e+01 -4.54612e+01        00000 
-5.09708e+01 -3.93453e+01        00000 
-3.39290e+01 -3.60718e+01        00000 
-2.22843e+01 -3.53122e+01        00000 
-1.46986e+01 -3.82648e+01        00000 
-1.04424e+01 -4.25573e+01        00000 
-6.36208e+00 -4.51180e+01        00000 
-2.96017e+00 -4.68703e+01        00000 
-2.91320e+00 -4.78182e+01        00000 
-2.70705e+00 -4.95015e+01        00000 
-2.85897e+00 -5.01205e+01        00000 
-1.79959e+00 -4.96785e+01        00000 
 3.67215e-01 -4.89742e+01        00000 
 2.08935e+00 -4.87546e+01        00000 
 4.53650e+00 -4.99417e+01        00000 
 6.02466e+00 -5.11860e+01        00000 
 7.33306e+00 -5.08135e+01        00000 
 8.16621e+00 -4.92676e+01        00000 
 1.11624e+01 -4.82564e+01        00000 
 1.69195e+01 -4.76462e+01        00000 
 2.21963e+01 -4.60918e+01        00000 
 2.80976e+01 -4.33954e+01        00000 
 3.52352e+01 -4.13654e+01        00000 
 4.44630e+01 -4.05844e+01        00000 
 5.85671e+01 -4.35076e+01        00000 
 7.61680e+01 -4.94443e+01        00000 
 9.66068e+01 -5.59571e+01        00000 
 1.22840e+02 -6.52053e+01        00000 
-1.67295e+02 -1.12270e+02        00000 
-1.35659e+02 -1.07982e+02        00000 
-1.04219e+02 -1.07225e+02        00000 
-8.03482e+01 -1.05511e+02        00000 
-5.96746e+01 -1.03973e+02        00000 
-4.30498e+01 -9.90902e+01        00000 
-3.22000e+01 -9.59773e+01        00000 
-2.37979e+01 -9.50842e+01        00000 
-2.01516e+01 -9.49065e+01        00000 
-1.77857e+01 -9.41097e+01        00000 
-1.38347e+01 -9.14974e+01        00000 
-1.14546e+01 -9.01867e+01        00000 
-9.98993e+00 -9.17965e+01        00000 
-8.80464e+00 -9.37930e+01        00000 
-3.29850e+00 -9.51215e+01        00000 
 4.25990e+00 -9.42124e+01        00000 
 1.03037e+01 -9.20368e+01        00000 
 1.48633e+01 -8.93083e+01        00000 
 1.87182e+01 -8.76073e+01        00000 
 2.30646e+01 -8.84717e+01        00000 
 2.73117e+01 -9.06961e+01        00000 
 3.11024e+01 -9.28581e+01        00000 
 3.72403e+01 -9.37133e+01        00000 
 4.57443e+01 -9.48034e+01        00000 
 5.69870e+01 -9.72313e+01        00000 
 7.21152e+01 -1.01117e+02        00000 
 8.98431e+01 -1.04850e+02        00000 
 1.10120e+02 -1.05765e+02        00000 
 1.38360e+02 -1.08920e+02        00000 
 1.69131e+02 -1.14049e+02        00000 
-1.97507e+02 -1.87527e+02        00000 
-1.58894e+02 -1.86055e+02        00000 
-1.26708e+02 -1.82686e+02        00000 
-1.00312e+02 -1.78222e+02        00000 
-8.11583e+01 -1.75772e+02        00000 
-6.50783e+01 -1.70657e+02        00000 
-5.22589e+01 -1.64310e+02        00000 
-4.41905e+01 -1.60230e+02        00000 
-3.67666e+01 -1.57543e+02        00000 
-3.16456e+01 -1.55176e+02        00000 
-2.77300e+01 -1.52721e+02        00000 
-2.27000e+01 -1.48983e+02        00000 
-1.57454e+01 -1.45059e+02        00000 
-7.50428e+00 -1.43903e+02        00000 
-2.39422e+00 -1.44987e+02        00000 
 3.24837e+00 -1.45270e+02        00000 
 8.77138e+00 -1.43922e+02        00000 
 1.79336e+01 -1.43350e+02        00000 
 2.64758e+01 -1.45037e+02        00000 
 3.40788e+01 -1.47929e+02        00000 
 4.03338e+01 -1.49381e+02        00000 
 4.80535e+01 -1.50443e+02        00000 
 5.74187e+01 -1.53215e+02        00000 
 6.71132e+01 -1.57139e+02        00000 
 7.88784e+01 -1.61366e+02        00000 
 9.54259e+01 -1.66584e+02        00000 
 1.15265e+02 -1.71001e+02        00000 
 1.39078e+02 -1.75252e+02        00000 
 1.68707e+02 -1.79807e+02        00000 
 2.01082e+02 -1.83449e+02        00000 
-1.95773e+02 -2.60526e+02        00000 
-1.68296e+02 -2.59775e+02        00000 
-1.42729e+02 -2.56602e+02        00000 
-1.18195e+02 -2.52210e+02        00000 
-1.00133e+02 -2.48505e+02        00000 
-8.49422e+01 -2.45472e+02        00000 
-7.06513e+01 -2.38982e+02        00000 
-5.98115e+01 -2.33671e+02        00000 
-5.16973e+01 -2.30251e+02        00000 
-4.29326e+01 -2.28025e+02        00000 
-3.54488e+01 -2.25280e+02        00000 
-2.80587e+01 -2.24589e+02        00000 
-2.07901e+01 -2.22148e+02        00000 
-1.23056e+01 -2.18309e+02        00000 
-4.57696e+00 -2.14954e+02        00000 
 1.63907e+00 -2.13692e+02        00000 
 1.04025e+01 -2.15385e+02        00000 
 1.93063e+01 -2.18061e+02        00000 
 2.85607e+01 -2.19029e+02        00000 
 3.78762e+01 -2.18488e+02        00000 
 5.00744e+01 -2.19406e+02        00000 
 6.28749e+01 -2.21584e+02        00000 
 7.34018e+01 -2.23799e+02        00000 
 8.46704e+01 -2.28647e+02        00000 
 1.00261e+02 -2.34783e+02        00000 
 1.16291e+02 -2.37873e+02        00000 
 1.33166e+02 -2.40327e+02        00000 
 1.58887e+02 -2.46015e+02        00000 
 1.83414e+02 -2.50495e+02        00000 
 2.13336e+02 -2.51992e+02        00000 
-1.98004e+02 -3.18805e+02        00000 
-1.69409e+02 -3.17575e+02        00000 
-1.46877e+02 -3.18058e+02        00000 
-1.27544e+02 -3.15341e+02        00000 
-1.08876e+02 -3.11156e+02        00000 
-9.54114e+01 -3.09634e+02        00000 
-8.24719e+01 -3.06830e+02        00000 
-7.07291e+01 -3.01157e+02        00000 
-6.14388e+01 -2.96183e+02        00000 
-5.38920e+01 -2.93786e+02        00000 
-4.30256e+01 -2.92558e+02        00000 
-3.24181e+01 -2.91657e+02        00000 
-2.36093e+01 -2.91403e+02        00000 
-1.87611e+01 -2.90376e+02        00000 
-8.38022e+00 -2.88959e+02        00000 
 2.16349e+00 -2.87514e+02        00000 
 1.34970e+01 -2.88418e+02        00000 
 1.97848e+01 -2.89614e+02        00000 
 3.03681e+01 -2.90601e+02        00000 
 4.39634e+01 -2.91150e+02        00000 
 5.80184e+01 -2.90310e+02        00000 
 6.86844e+01 -2.91460e+02        00000 
 8.07238e+01 -2.96041e+02        00000 
 9.56088e+01 -2.98932e+02        00000 
 1.11574e+02 -2.99876e+02        00000 
 1.27271e+02 -3.03421e+02        00000 
 1.47986e+02 -3.08114e+02        00000 
 1.67717e+02 -3.09900e+02        00000 
 1.91110e+02 -3.10761e+02        00000 
 2.19938e+02 -3.13242e+02        00000 
-1.91536e+02 -3.78349e+02        00000 
-1.67732e+02 -3.78411e+02        00000 
-1.46987e+02 -3.77475e+02        00000 
-1.30350e+02 -3.76855e+02        00000 
-1.13229e+02 -3.73152e+02        00000 
-1.00152e+02 -3.71313e+02        00000 
-8.89790e+01 -3.70460e+02        00000 
-7.69718e+01 -3.68355e+02        00000 
-6.62816e+01 -3.66471e+02        00000 
-5.68777e+01 -3.65590e+02        00000 
-4.94746e+01 -3.65023e+02        00000 
-4.06100e+01 -3.64584e+02        00000 
-2.98567e+01 -3.61502e+02        00000 
-1.85673e+01 -3.58772e+02        00000 
-9.45186e+00 -3.58227e+02        00000 
 1.97485e+00 -3.57867e+02        00000 
 1.18298e+01 -3.57821e+02        00000 
 2.40174e+01 -3.59798e+02        00000 
 3.56706e+01 -3.62146e+02        00000 
 4.64914e+01 -3.62934e+02        00000 
 5.74286e+01 -3.63957e+02        00000 
 7.04723e+01 -3.65141e+02        00000 
 8.47586e+01 -3.65288e+02        00000 
 1.00950e+02 -3.65827e+02        00000 
 1.16060e+02 -3.66542e+02        00000 
 1.31049e+02 -3.67159e+02        00000 
 1.50790e+02 -3.69627e+02        00000 
 1.70210e+02 -3.70360e+02        00000 
 1.95127e+02 -3.71152e+02        00000 
 2.20512e+02 -3.71312e+02        00000 
-1.78127e+02 -4.19495e+02        00000 
-1.59114e+02 -4.20595e+02        00000 
-1.42073e+02 -4.21947e+02        00000 
-1.26489e+02 -4.25154e+02        00000 
-1.12361e+02 -4.25610e+02        00000 
-9.87252e+01 -4.23967e+02        00000 
-8.99987e+01 -4.24444e+02        00000 
-7.74960e+01 -4.24590e+02        00000 
-6.57570e+01 -4.24915e+02        00000 
-5.58797e+01 -4.24486e+02        00000 
-4.74968e+01 -4.23295e+02        00000 
-4.02364e+01 -4.24599e+02        00000 
-3.23301e+01 -4.26917e+02        00000 
-1.89897e+01 -4.27981e+02        00000 
-1.02205e+01 -4.26850e+02        00000 
-1.01704e+00 -4.26638e+02        00000 
 7.94373e+00 -4.28057e+02        00000 
 2.30563e+01 -4.28700e+02        00000 
 3.36847e+01 -4.27038e+02        00000 
 4.47725e+01 -4.26441e+02        00000 
 5.48195e+01 -4.27943e+02        00000 
 6.74618e+01 -4.29890e+02        00000 
 8.32129e+01 -4.28454e+02        00000 
 9.99728e+01 -4.26287e+02        00000 
 1.13376e+02 -4.27619e+02        00000 
 1.31476e+02 -4.28793e+02        00000 
 1.49058e+02 -4.24797e+02        00000 
 1.67959e+02 -4.24268e+02        00000 
 1.88291e+02 -4.24522e+02        00000 
 2.12310e+02 -4.21542e+02        00000 
-1.66266e+02 -4.62662e+02        00000 
-1.45684e+02 -4.65875e+02        00000 
-1.29828e+02 -4.67618e+02        00000 
-1.15630e+02 -4.69207e+02        00000 
-1.05508e+02 -4.71171e+02        00000 
-9.16915e+01 -4.71445e+02        00000 
-8.17907e+01 -4.73761e+02        00000 
-7.33746e+01 -4.77472e+02        00000 
-6.26708e+01 -4.79306e+02        00000 
-5.42265e+01 -4.79169e+02        00000 
-4.73242e+01 -4.78375e+02        00000 
-3.77298e+01 -4.77564e+02        00000 
-2.75468e+01 -4.79105e+02        00000 
-2.02268e+01 -4.80673e+02        00000 
-1.02932e+01 -4.81363e+02        00000 
-1.09286e+00 -4.81046e+02        00000 
 8.75989e+00 -4.82268e+02        00000 
 1.71573e+01 -4.82924e+02        00000 
 2.93159e+01 -4.82204e+02        00000 
 4.24885e+01 -4.84570e+02        00000 
 5.23225e+01 -4.87355e+02        00000 
 6.34855e+01 -4.86720e+02        00000 
 7.72117e+01 -4.85544e+02        00000 
 9.04340e+01 -4.84627e+02        00000 
 1.03657e+02 -4.81153e+02        00000 
 1.23467e+02 -4.79393e+02        00000 
 1.37261e+02 -4.79816e+02        00000 
 1.55788e+02 -4.77612e+02        00000 
 1.74628e+02 -4.73423e+02        00000 
 1.97652e+02 -4.71320e+02        00000 
-1.38445e+02 -4.95274e+02        00000 
-1.26636e+02 -5.00824e+02        00000 
-1.13034e+02 -5.04224e+02        00000 
-1.01780e+02 -5.06406e+02        00000 
-9.28548e+01 -5.10246e+02        00000 
-8.30272e+01 -5.13244e+02        00000 
-7.15045e+01 -5.13728e+02        00000 
-6.31710e+01 -5.16933e+02        00000 
-5.66063e+01 -5.21011e+02        00000 
-4.78577e+01 -5.23036e+02        00000 
-4.11823e+01 -5.24790e+02        00000 
-3.39480e+01 -5.26043e+02        00000 
-2.45386e+01 -5.26806e+02        00000 
-1.73682e+01 -5.31829e+02        00000 
-9.59450e+00 -5.36030e+02        00000 
-1.06786e-01 -5.37197e+02        00000 
 1.01746e+01 -5.35065e+02        00000 
 1.73316e+01 -5.31900e+02        00000 
 2.86596e+01 -5.33970e+02        00000 
 3.71529e+01 -5.35168e+02        00000 
 4.69831e+01 -5.35546e+02        00000 
 5.92863e+01 -5.35596e+02        00000 
 6.82858e+01 -5.32793e+02        00000 
 7.89343e+01 -5.32494e+02        00000 
 9.44816e+01 -5.32046e+02        00000 
 1.06636e+02 -5.27038e+02        00000 
 1.21440e+02 -5.24576e+02        00000 
 1.37568e+02 -5.22727e+02        00000 
 1.55749e+02 -5.17451e+02        00000 
 1.73501e+02 -5.12637e+02        00000 
-1.18243e+02 -5.27621e+02        00000 
-1.02550e+02 -5.31554e+02        00000 
-9.10605e+01 -5.35702e+02        00000 
-8.33251e+01 -5.39287e+02        00000 
-7.34752e+01 -5.42157e+02        00000 
-6.68417e+01 -5.48212e+02        00000 
-5.84999e+01 -5.51970e+02        00000 
-5.36339e+01 -5.53798e+02        00000 
-4.59800e+01 -5.57080e+02        00000 
-4.00329e+01 -5.58938e+02        00000 
-3.09082e+01 -5.60897e+02        00000 
-2.68505e+01 -5.61900e+02        00000 
-2.29871e+01 -5.62718e+02        00000 
-1.34400e+01 -5.66942e+02        00000 
-6.31733e+00 -5.71525e+02        00000 
-3.07328e-01 -5.72142e+02        00000 
 6.25836e+00 -5.71202e+02        00000 
 1.64714e+01 -5.70894e+02        00000 
 2.28914e+01 -5.72190e+02        00000 
 2.85946e+01 -5.76169e+02        00000 
 3.93515e+01 -5.76349e+02        00000 
 4.77289e+01 -5.74436e+02        00000 
 5.68359e+01 -5.75755e+02        00000 
 6.41231e+01 -5.74201e+02        00000 
 7.68600e+01 -5.71306e+02        00000 
 8.64006e+01 -5.68269e+02        00000 
 9.97322e+01 -5.64577e+02        00000 
 1.10828e+02 -5.59843e+02        00000 
 1.26465e+02 -5.55917e+02        00000 
 1.41307e+02 -5.51210e+02        00000 
-8.02207e+01 -5.50653e+02        00000 
-7.56206e+01 -5.55461e+02        00000 
-6.79963e+01 -5.59522e+02        00000 
-6.24783e+01 -5.65071e+02        00000 
-5.46960e+01 -5.68640e+02        00000 
-4.74921e+01 -5.72097e+02        00000 
-4.21436e+01 -5.76924e+02        00000 
-3.97841e+01 -5.80117e+02        00000 
-3.41267e+01 -5.82606e+02        00000 
-2.85631e+01 -5.87613e+02        00000 
-2.42482e+01 -5.90416e+02        00000 
-2.01856e+01 -5.91347e+02        00000 
-1.60658e+01 -5.95876e+02        00000 
-1.14105e+01 -5.99123e+02        00000 
-4.40044e+00 -6.02568e+02        00000 
-3.57885e-01 -6.04658e+02        00000 
 4.64044e+00 -6.04895e+02        00000 
 1.17978e+01 -6.04422e+02        00000 
 1.66775e+01 -6.03962e+02        00000 
 2.15747e+01 -6.06704e+02        00000 
 2.75406e+01 -6.07932e+02        00000 
 3.43241e+01 -6.06827e+02        00000 
 4.33417e+01 -6.06418e+02        00000 
 4.76842e+01 -6.04405e+02        00000 
 5.41652e+01 -6.01683e+02        00000 
 6.26745e+01 -5.99500e+02        00000 
 7.47298e+01 -5.95956e+02        00000 
 8.44634e+01 -5.91248e+02        00000 
 9.22745e+01 -5.86246e+02        00000 
 1.04715e+02 -5.79729e+02        00000 
-5.58118e+01 -5.68748e+02        00000 
-4.59725e+01 -5.73244e+02        00000 
-4.11612e+01 -5.77810e+02        00000 
-3.70562e+01 -5.82185e+02        00000 
-3.40935e+01 -5.88289e+02        00000 
-2.96905e+01 -5.92143e+02        00000 
-2.70760e+01 -5.95841e+02        00000 
-2.35442e+01 -5.98871e+02        00000 
-2.03706e+01 -6.03344e+02        00000 
-1.72137e+01 -6.06506e+02        00000 
-1.53826e+01 -6.08402e+02        00000 
-1.18106e+01 -6.10429e+02        00000 
-9.18982e+00 -6.13603e+02        00000 
-7.11825e+00 -6.18237e+02        00000 
-4.03057e+00 -6.21179e+02        00000 
-5.26379e-01 -6.22929e+02        00000 
 4.32386e+00 -6.23385e+02        00000 
 6.00800e+00 -6.24145e+02        00000 
 9.01301e+00 -6.25696e+02        00000 
 1.45269e+01 -6.27723e+02        00000 
 1.63296e+01 -6.28585e+02        00000 
 1.97760e+01 -6.27983e+02        00000 
 2.55618e+01 -6.27704e+02        00000 
 3.02683e+01 -6.26777e+02        00000 
 3.35736e+01 -6.24608e+02        00000 
 3.91374e+01 -6.21152e+02        00000 
 4.41539e+01 -6.17368e+02        00000 
 4.99013e+01 -6.12652e+02        00000 
 5.80808e+01 -6.06934e+02        00000 
 6.44799e+01 -6.00677e+02        00000 
-1.34010e+01 -5.75378e+02        00000 
-1.64786e+01 -5.81464e+02        00000 
-1.38573e+01 -5.86854e+02        00000 
-1.21293e+01 -5.91365e+02        00000 
-1.06288e+01 -5.95883e+02        00000 
-1.00583e+01 -6.00086e+02        00000 
-9.39363e+00 -6.04601e+02        00000 
-8.36286e+00 -6.08064e+02        00000 
-6.18741e+00 -6.10732e+02        00000 
-6.79372e+00 -6.15726e+02        00000 
-5.17328e+00 -6.19200e+02        00000 
-3.58762e+00 -6.21340e+02        00000 
-3.87470e+00 -6.24057e+02        00000 
-2.03809e+00 -6.27398e+02        00000 
-1.53419e+00 -6.32296e+02        00000 
 1.52898e-01 -6.34599e+02        00000 
 1.89304e+00 -6.33915e+02        00000 
 1.73589e+00 -6.34461e+02        00000 
 1.92070e+00 -6.36925e+02        00000 
 5.24040e+00 -6.38477e+02        00000 
 6.77437e+00 -6.38676e+02        00000 
 6.21640e+00 -6.38910e+02        00000 
 8.24225e+00 -6.38309e+02        00000 
 1.03033e+01 -6.36775e+02        00000 
 1.13263e+01 -6.34149e+02        00000 
 1.27354e+01 -6.32246e+02        00000 
 1.49909e+01 -6.29005e+02        00000 
 1.66181e+01 -6.23535e+02        00000 
 1.95959e+01 -6.17196e+02        00000 
 2.18070e+01 -6.10651e+02        00000 
 1.34406e+01 -5.75324e+02        00000 
 1.64710e+01 -5.81062e+02        00000 
 1.36935e+01 -5.86736e+02        00000 
 1.20925e+01 -5.92438e+02        00000 
 1.06721e+01 -5.96038e+02        00000 
 1.00521e+01 -6.00799e+02        00000 
 9.42947e+00 -6.04792e+02        00000 
 8.34351e+00 -6.08511e+02        00000 
 6.19896e+00 -6.11064e+02        00000 
 6.78558e+00 -6.16073e+02        00000 
 5.17720e+00 -6.19608e+02        00000 
 3.59214e+00 -6.21651e+02        00000 
 3.87062e+00 -6.24426e+02        00000 
 2.04230e+00 -6.27756e+02        00000 
 1.53673e+00 -6.32626e+02        00000 
-1.51881e-01 -6.34933e+02        00000 
-1.89010e+00 -6.34239e+02        00000 
-1.73473e+00 -6.34770e+02        00000 
-1.91778e+00 -6.37241e+02        00000 
-5.23648e+00 -6.38761e+02        00000 
-6.77306e+00 -6.38958e+02        00000 
-6.20975e+00 -6.39189e+02        00000 
-8.24322e+00 -6.38535e+02        00000 
-1.03059e+01 -6.37066e+02        00000 
-1.13140e+01 -6.34393e+02        00000 
-1.27322e+01 -6.32452e+02        00000 
-1.49433e+01 -6.29201e+02        00000 
-1.66383e+01 -6.23368e+02        00000 
-1.96024e+01 -6.17527e+02        00000 
-2.17839e+01 -6.10628e+02        00000 
 5.57755e+01 -5.68775e+02        00000 
 4.60242e+01 -5.72664e+02        00000 
 4.14446e+01 -5.77624e+02        00000 
 3.71659e+01 -5.81964e+02        00000 
 3.39845e+01 -5.87798e+02        00000 
 2.96793e+01 -5.92114e+02        00000 
 2.70028e+01 -5.95547e+02        00000 
 2.35799e+01 -5.98891e+02        00000 
 2.03690e+01 -6.03036e+02        00000 
 1.72079e+01 -6.06329e+02        00000 
 1.53845e+01 -6.08312e+02        00000 
 1.18048e+01 -6.10144e+02        00000 
 9.18341e+00 -6.13477e+02        00000 
 7.11572e+00 -6.18104e+02        00000 
 4.02722e+00 -6.20994e+02        00000 
 5.21572e-01 -6.22775e+02        00000 
-4.32816e+00 -6.23229e+02        00000 