<?xml version="1.0" encoding="utf-8"?>
<VTKFile byte_order="LittleEndian" type="UnstructuredGrid" version="0.1">
   <UnstructuredGrid>
      <Piece NumberOfCells="3364" NumberOfPoints="1741">
         <Points>
            <DataArray Name="Points" NumberOfComponents="3" format="ascii" type="Float32">
0.0000 1.0000 0.0000
0.0000 1.0345 0.0000
0.0000 1.0690 0.0000
0.0000 1.1034 0.0000
0.0000 1.1379 0.0000
0.0000 1.1724 0.0000
0.0000 1.2069 0.0000
0.0000 1.2414 0.0000
0.0000 1.2759 0.0000
0.0000 1.3103 0.0000
0.0000 1.3448 0.0000
0.0000 1.3793 0.0000
0.0000 1.4138 0.0000
0.0000 1.4483 0.0000
0.0000 1.4828 0.0000
0.0000 1.5172 0.0000
0.0000 1.5517 0.0000
0.0000 1.5862 0.0000
0.0000 1.6207 0.0000
0.0000 1.6552 0.0000
0.0000 1.6897 0.0000
0.0000 1.7241 0.0000
0.0000 1.7586 0.0000
0.0000 1.7931 0.0000
0.0000 1.8276 0.0000
0.0000 1.8621 0.0000
0.0000 1.8966 0.0000
0.0000 1.9310 0.0000
0.0000 1.9655 0.0000
0.0000 2.0000 0.0000
0.0690 1.0000 0.0000
0.0690 1.0345 0.0000
0.0690 1.0690 0.0000
0.0690 1.1034 0.0000
0.0690 1.1379 0.0000
0.0690 1.1724 0.0000
0.0690 1.2069 0.0000
0.0690 1.2414 0.0000
0.0690 1.2759 0.0000
0.0690 1.3103 0.0000
0.0690 1.3448 0.0000
0.0690 1.3793 0.0000
0.0690 1.4138 0.0000
0.0690 1.4483 0.0000
0.0690 1.4828 0.0000
0.0690 1.5172 0.0000
0.0690 1.5517 0.0000
0.0690 1.5862 0.0000
0.0690 1.6207 0.0000
0.0690 1.6552 0.0000
0.0690 1.6897 0.0000
0.0690 1.7241 0.0000
0.0690 1.7586 0.0000
0.0690 1.7931 0.0000
0.0690 1.8276 0.0000
0.0690 1.8621 0.0000
0.0690 1.8966 0.0000
0.0690 1.9310 0.0000
0.0690 1.9655 0.0000
0.0690 2.0000 0.0000
0.1379 1.0000 0.0000
0.1379 1.0345 0.0000
0.1379 1.0690 0.0000
0.1379 1.1034 0.0000
0.1379 1.1379 0.0000
0.1379 1.1724 0.0000
0.1379 1.2069 0.0000
0.1379 1.2414 0.0000
0.1379 1.2759 0.0000
0.1379 1.3103 0.0000
0.1379 1.3448 0.0000
0.1379 1.3793 0.0000
0.1379 1.4138 0.0000
0.1379 1.4483 0.0000
0.1379 1.4828 0.0000
0.1379 1.5172 0.0000
0.1379 1.5517 0.0000
0.1379 1.5862 0.0000
0.1379 1.6207 0.0000
0.1379 1.6552 0.0000
0.1379 1.6897 0.0000
0.1379 1.7241 0.0000
0.1379 1.7586 0.0000
0.1379 1.7931 0.0000
0.1379 1.8276 0.0000
0.1379 1.8621 0.0000
0.1379 1.8966 0.0000
0.1379 1.9310 0.0000
0.1379 1.9655 0.0000
0.1379 2.0000 0.0000
0.2069 1.0000 0.0000
0.2069 1.0345 0.0000
0.2069 1.0690 0.0000
0.2069 1.1034 0.0000
0.2069 1.1379 0.0000
0.2069 1.1724 0.0000
0.2069 1.2069 0.0000
0.2069 1.2414 0.0000
0.2069 1.2759 0.0000
0.2069 1.3103 0.0000
0.2069 1.3448 0.0000
0.2069 1.3793 0.0000
0.2069 1.4138 0.0000
0.2069 1.4483 0.0000
0.2069 1.4828 0.0000
0.2069 1.5172 0.0000
0.2069 1.5517 0.0000
0.2069 1.5862 0.0000
0.2069 1.6207 0.0000
0.2069 1.6552 0.0000
0.2069 1.6897 0.0000
0.2069 1.7241 0.0000
0.2069 1.7586 0.0000
0.2069 1.7931 0.0000
0.2069 1.8276 0.0000
0.2069 1.8621 0.0000
0.2069 1.8966 0.0000
0.2069 1.9310 0.0000
0.2069 1.9655 0.0000
0.2069 2.0000 0.0000
0.2759 1.0000 0.0000
0.2759 1.0345 0.0000
0.2759 1.0690 0.0000
0.2759 1.1034 0.0000
0.2759 1.1379 0.0000
0.2759 1.1724 0.0000
0.2759 1.2069 0.0000
0.2759 1.2414 0.0000
0.2759 1.2759 0.0000
0.2759 1.3103 0.0000
0.2759 1.3448 0.0000
0.2759 1.3793 0.0000
0.2759 1.4138 0.0000
0.2759 1.4483 0.0000
0.2759 1.4828 0.0000
0.2759 1.5172 0.0000
0.2759 1.5517 0.0000
0.2759 1.5862 0.0000
0.2759 1.6207 0.0000
0.2759 1.6552 0.0000
0.2759 1.6897 0.0000
0.2759 1.7241 0.0000
0.2759 1.7586 0.0000
0.2759 1.7931 0.0000
0.2759 1.8276 0.0000
0.2759 1.8621 0.0000
0.2759 1.8966 0.0000
0.2759 1.9310 0.0000
0.2759 1.9655 0.0000
0.2759 2.0000 0.0000
0.3448 1.0000 0.0000
0.3448 1.0345 0.0000
0.3448 1.0690 0.0000
0.3448 1.1034 0.0000
0.3448 1.1379 0.0000
0.3448 1.1724 0.0000
0.3448 1.2069 0.0000
0.3448 1.2414 0.0000
0.3448 1.2759 0.0000
0.3448 1.3103 0.0000
0.3448 1.3448 0.0000
0.3448 1.3793 0.0000
0.3448 1.4138 0.0000
0.3448 1.4483 0.0000
0.3448 1.4828 0.0000
0.3448 1.5172 0.0000
0.3448 1.5517 0.0000
0.3448 1.5862 0.0000
0.3448 1.6207 0.0000
0.3448 1.6552 0.0000
0.3448 1.6897 0.0000
0.3448 1.7241 0.0000
0.3448 1.7586 0.0000
0.3448 1.7931 0.0000
0.3448 1.8276 0.0000
0.3448 1.8621 0.0000
0.3448 1.8966 0.0000
0.3448 1.9310 0.0000
0.3448 1.9655 0.0000
0.3448 2.0000 0.0000
0.4138 1.0000 0.0000
0.4138 1.0345 0.0000
0.4138 1.0690 0.0000
0.4138 1.1034 0.0000
0.4138 1.1379 0.0000
0.4138 1.1724 0.0000
0.4138 1.2069 0.0000
0.4138 1.2414 0.0000
0.4138 1.2759 0.0000
0.4138 1.3103 0.0000
0.4138 1.3448 0.0000
0.4138 1.3793 0.0000
0.4138 1.4138 0.0000
0.4138 1.4483 0.0000
0.4138 1.4828 0.0000
0.4138 1.5172 0.0000
0.4138 1.5517 0.0000
0.4138 1.5862 0.0000
0.4138 1.6207 0.0000
0.4138 1.6552 0.0000
0.4138 1.6897 0.0000
0.4138 1.7241 0.0000
0.4138 1.7586 0.0000
0.4138 1.7931 0.0000
0.4138 1.8276 0.0000
0.4138 1.8621 0.0000
0.4138 1.8966 0.0000
0.4138 1.9310 0.0000
0.4138 1.9655 0.0000
0.4138 2.0000 0.0000
0.4828 1.0000 0.0000
0.4828 1.0345 0.0000
0.4828 1.0690 0.0000
0.4828 1.1034 0.0000
0.4828 1.1379 0.0000
0.4828 1.1724 0.0000
0.4828 1.2069 0.0000
0.4828 1.2414 0.0000
0.4828 1.2759 0.0000
0.4828 1.3103 0.0000
0.4828 1.3448 0.0000
0.4828 1.3793 0.0000
0.4828 1.4138 0.0000
0.4828 1.4483 0.0000
0.4828 1.4828 0.0000
0.4828 1.5172 0.0000
0.4828 1.5517 0.0000
0.4828 1.5862 0.0000
0.4828 1.6207 0.0000
0.4828 1.6552 0.0000
0.4828 1.6897 0.0000
0.4828 1.7241 0.0000
0.4828 1.7586 0.0000
0.4828 1.7931 0.0000
0.4828 1.8276 0.0000
0.4828 1.8621 0.0000
0.4828 1.8966 0.0000
0.4828 1.9310 0.0000
0.4828 1.9655 0.0000
0.4828 2.0000 0.0000
0.5517 1.0000 0.0000
0.5517 1.0345 0.0000
0.5517 1.0690 0.0000
0.5517 1.1034 0.0000
0.5517 1.1379 0.0000
0.5517 1.1724 0.0000
0.5517 1.2069 0.0000
0.5517 1.2414 0.0000
0.5517 1.2759 0.0000
0.5517 1.3103 0.0000
0.5517 1.3448 0.0000
0.5517 1.3793 0.0000
0.5517 1.4138 0.0000
0.5517 1.4483 0.0000
0.5517 1.4828 0.0000
0.5517 1.5172 0.0000
0.5517 1.5517 0.0000
0.5517 1.5862 0.0000
0.5517 1.6207 0.0000
0.5517 1.6552 0.0000
0.5517 1.6897 0.0000
0.5517 1.7241 0.0000
0.5517 1.7586 0.0000
0.5517 1.7931 0.0000
0.5517 1.8276 0.0000
0.5517 1.8621 0.0000
0.5517 1.8966 0.0000
0.5517 1.9310 0.0000
0.5517 1.9655 0.0000
0.5517 2.0000 0.0000
0.6207 1.0000 0.0000
0.6207 1.0345 0.0000
0.6207 1.0690 0.0000
0.6207 1.1034 0.0000
0.6207 1.1379 0.0000
0.6207 1.1724 0.0000
0.6207 1.2069 0.0000
0.6207 1.2414 0.0000
0.6207 1.2759 0.0000
0.6207 1.3103 0.0000
0.6207 1.3448 0.0000
0.6207 1.3793 0.0000
0.6207 1.4138 0.0000
0.6207 1.4483 0.0000
0.6207 1.4828 0.0000
0.6207 1.5172 0.0000
0.6207 1.5517 0.0000
0.6207 1.5862 0.0000
0.6207 1.6207 0.0000
0.6207 1.6552 0.0000
0.6207 1.6897 0.0000
0.6207 1.7241 0.0000
0.6207 1.7586 0.0000
0.6207 1.7931 0.0000
0.6207 1.8276 0.0000
0.6207 1.8621 0.0000
0.6207 1.8966 0.0000
0.6207 1.9310 0.0000
0.6207 1.9655 0.0000
0.6207 2.0000 0.0000
0.6897 1.0000 0.0000
0.6897 1.0345 0.0000
0.6897 1.0690 0.0000
0.6897 1.1034 0.0000
0.6897 1.1379 0.0000
0.6897 1.1724 0.0000
0.6897 1.2069 0.0000
0.6897 1.2414 0.0000
0.6897 1.2759 0.0000
0.6897 1.3103 0.0000
0.6897 1.3448 0.0000
0.6897 1.3793 0.0000
0.6897 1.4138 0.0000
0.6897 1.4483 0.0000
0.6897 1.4828 0.0000
0.6897 1.5172 0.0000
0.6897 1.5517 0.0000
0.6897 1.5862 0.0000
0.6897 1.6207 0.0000
0.6897 1.6552 0.0000
0.6897 1.6897 0.0000
0.6897 1.7241 0.0000
0.6897 1.7586 0.0000
0.6897 1.7931 0.0000
0.6897 1.8276 0.0000
0.6897 1.8621 0.0000
0.6897 1.8966 0.0000
0.6897 1.9310 0.0000
0.6897 1.9655 0.0000
0.6897 2.0000 0.0000
0.7586 1.0000 0.0000
0.7586 1.0345 0.0000
0.7586 1.0690 0.0000
0.7586 1.1034 0.0000
0.7586 1.1379 0.0000
0.7586 1.1724 0.0000
0.7586 1.2069 0.0000
0.7586 1.2414 0.0000
0.7586 1.2759 0.0000
0.7586 1.3103 0.0000
0.7586 1.3448 0.0000
0.7586 1.3793 0.0000
0.7586 1.4138 0.0000
0.7586 1.4483 0.0000
0.7586 1.4828 0.0000
0.7586 1.5172 0.0000
0.7586 1.5517 0.0000
0.7586 1.5862 0.0000
0.7586 1.6207 0.0000
0.7586 1.6552 0.0000
0.7586 1.6897 0.0000
0.7586 1.7241 0.0000
0.7586 1.7586 0.0000
0.7586 1.7931 0.0000
0.7586 1.8276 0.0000
0.7586 1.8621 0.0000
0.7586 1.8966 0.0000
0.7586 1.9310 0.0000
0.7586 1.9655 0.0000
0.7586 2.0000 0.0000
0.8276 1.0000 0.0000
0.8276 1.0345 0.0000
0.8276 1.0690 0.0000
0.8276 1.1034 0.0000
0.8276 1.1379 0.0000
0.8276 1.1724 0.0000
0.8276 1.2069 0.0000
0.8276 1.2414 0.0000
0.8276 1.2759 0.0000
0.8276 1.3103 0.0000
0.8276 1.3448 0.0000
0.8276 1.3793 0.0000
0.8276 1.4138 0.0000
0.8276 1.4483 0.0000
0.8276 1.4828 0.0000
0.8276 1.5172 0.0000
0.8276 1.5517 0.0000
0.8276 1.5862 0.0000
0.8276 1.6207 0.0000
0.8276 1.6552 0.0000
0.8276 1.6897 0.0000
0.8276 1.7241 0.0000
0.8276 1.7586 0.0000
0.8276 1.7931 0.0000
0.8276 1.8276 0.0000
0.8276 1.8621 0.0000
0.8276 1.8966 0.0000
0.8276 1.9310 0.0000
0.8276 1.9655 0.0000
0.8276 2.0000 0.0000
0.8966 1.0000 0.0000
0.8966 1.0345 0.0000
0.8966 1.0690 0.0000
0.8966 1.1034 0.0000
0.8966 1.1379 0.0000
0.8966 1.1724 0.0000
0.8966 1.2069 0.0000
0.8966 1.2414 0.0000
0.8966 1.2759 0.0000
0.8966 1.3103 0.0000
0.8966 1.3448 0.0000
0.8966 1.3793 0.0000
0.8966 1.4138 0.0000
0.8966 1.4483 0.0000
0.8966 1.4828 0.0000
0.8966 1.5172 0.0000
0.8966 1.5517 0.0000
0.8966 1.5862 0.0000
0.8966 1.6207 0.0000
0.8966 1.6552 0.0000
0.8966 1.6897 0.0000
0.8966 1.7241 0.0000
0.8966 1.7586 0.0000
0.8966 1.7931 0.0000
0.8966 1.8276 0.0000
0.8966 1.8621 0.0000
0.8966 1.8966 0.0000
0.8966 1.9310 0.0000
0.8966 1.9655 0.0000
0.8966 2.0000 0.0000
0.9655 1.0000 0.0000
0.9655 1.0345 0.0000
0.9655 1.0690 0.0000
0.9655 1.1034 0.0000
0.9655 1.1379 0.0000
0.9655 1.1724 0.0000
0.9655 1.2069 0.0000
0.9655 1.2414 0.0000
0.9655 1.2759 0.0000
0.9655 1.3103 0.0000
0.9655 1.3448 0.0000
0.9655 1.3793 0.0000
0.9655 1.4138 0.0000
0.9655 1.4483 0.0000
0.9655 1.4828 0.0000
0.9655 1.5172 0.0000
0.9655 1.5517 0.0000
0.9655 1.5862 0.0000
0.9655 1.6207 0.0000
0.9655 1.6552 0.0000
0.9655 1.6897 0.0000
0.9655 1.7241 0.0000
0.9655 1.7586 0.0000
0.9655 1.7931 0.0000
0.9655 1.8276 0.0000
0.9655 1.8621 0.0000
0.9655 1.8966 0.0000
0.9655 1.9310 0.0000
0.9655 1.9655 0.0000
0.9655 2.0000 0.0000
1.0345 1.0000 0.0000
1.0345 1.0345 0.0000
1.0345 1.0690 0.0000
1.0345 1.1034 0.0000
1.0345 1.1379 0.0000
1.0345 1.1724 0.0000
1.0345 1.2069 0.0000
1.0345 1.2414 0.0000
1.0345 1.2759 0.0000
1.0345 1.3103 0.0000
1.0345 1.3448 0.0000
[...]
         <PointData>
            <DataArray Name="fValues" NumberOfComponents="3" format="ascii" type="Float64">
 1.97162e-15  5.91487e-15        00000 
       00000        00000        00000 
 2.60821e-15 -7.45203e-16        00000 
 7.95850e-16 -3.41747e-15        00000 
-3.72602e-16  2.98081e-15        00000 
-6.28320e-15 -1.77661e-14        00000 
 1.11781e-15  8.19724e-15        00000 
-2.03644e-15 -9.83108e-16        00000 
 1.11781e-15  4.47122e-15        00000 
-1.20249e-15 -8.71844e-15        00000 
-1.86301e-16 -5.96163e-15        00000 
-1.49222e-16  1.21718e-15        00000 
 2.79451e-16 -3.72602e-15        00000 
-3.30165e-16  3.33430e-15        00000 
 4.65752e-17 -1.04328e-14        00000 
 1.90185e-16  4.68147e-17        00000 
-4.65752e-16 -1.86301e-15        00000 
 2.80756e-16 -1.28582e-15        00000 
 5.35615e-16        00000        00000 
-6.43702e-16  1.35763e-15        00000 
-1.86301e-16 -2.23561e-15        00000 
 1.93242e-15  8.92672e-15        00000 
-2.32876e-15 -4.84382e-15        00000 
 2.17688e-15 -3.83880e-15        00000 
 3.53972e-15 -1.86301e-15        00000 
-4.30838e-15 -1.43961e-15        00000 
-1.67671e-15  2.23561e-15        00000 
 4.67847e-15 -6.98840e-15        00000 
 2.16084e-15 -4.13377e-15        00000 
-5.40209e-16 -9.38179e-16        00000 
-6.74063e+01 -6.71207e+01        00000 
-4.02805e+01 -5.91032e+01        00000 
-2.71825e+01 -5.63263e+01        00000 
-2.03749e+01 -5.55740e+01        00000 
-1.78601e+01 -5.43048e+01        00000 
-1.70330e+01 -5.29738e+01        00000 
-1.64707e+01 -5.23594e+01        00000 
-1.53983e+01 -5.06331e+01        00000 
-1.44530e+01 -4.92959e+01        00000 
-1.19329e+01 -4.94803e+01        00000 
-8.16797e+00 -4.92121e+01        00000 
-4.86267e+00 -4.88450e+01        00000 
-4.46490e+00 -4.80934e+01        00000 
-4.58702e+00 -4.71743e+01        00000 
-2.57739e+00 -4.61322e+01        00000 
 5.51793e-01 -4.53304e+01        00000 
 2.69015e+00 -4.52027e+01        00000 
 1.92977e+00 -4.51778e+01        00000 
 2.26042e+00 -4.48586e+01        00000 
 4.67897e+00 -4.40219e+01        00000 
 8.21947e+00 -4.30116e+01        00000 
 1.12301e+01 -4.22502e+01        00000 
 1.31296e+01 -4.22329e+01        00000 
 1.48943e+01 -4.28698e+01        00000 
 1.69985e+01 -4.45918e+01        00000 
 1.97955e+01 -4.62056e+01        00000 
 2.31329e+01 -4.82751e+01        00000 
 3.04220e+01 -5.13338e+01        00000 
 4.26888e+01 -5.58396e+01        00000 
 6.64147e+01 -6.47190e+01        00000 
-9.95542e+01 -1.41980e+02        00000 
-7.11441e+01 -1.37174e+02        00000 
-5.25007e+01 -1.31702e+02        00000 
-4.29304e+01 -1.26341e+02        00000 
-3.83171e+01 -1.21610e+02        00000 
-3.68508e+01 -1.17582e+02        00000 
-3.49454e+01 -1.14319e+02        00000 
-3.18638e+01 -1.10762e+02        00000 
-2.79283e+01 -1.08549e+02        00000 
-2.27183e+01 -1.07209e+02        00000 
-1.77875e+01 -1.05375e+02        00000 
-1.37017e+01 -1.02323e+02        00000 
-9.96885e+00 -1.00228e+02        00000 
-7.14932e+00 -9.98372e+01        00000 
-4.41371e+00 -1.00328e+02        00000 
-2.09465e+00 -9.89161e+01        00000 
 3.65486e-01 -9.55313e+01        00000 
 3.83354e+00 -9.30379e+01        00000 
 7.02538e+00 -9.27935e+01        00000 
 1.02843e+01 -9.33853e+01        00000 
 1.45714e+01 -9.34432e+01        00000 
 2.05366e+01 -9.36631e+01        00000 
 2.61054e+01 -9.46303e+01        00000 
 3.19216e+01 -9.70324e+01        00000 
 3.68867e+01 -1.00249e+02        00000 
 4.13419e+01 -1.04048e+02        00000 
 4.82840e+01 -1.09157e+02        00000 
 5.85800e+01 -1.14705e+02        00000 
 7.67063e+01 -1.20526e+02        00000 
 1.02480e+02 -1.25925e+02        00000 
-1.10186e+02 -1.91937e+02        00000 
-9.07413e+01 -1.90640e+02        00000 
-7.55376e+01 -1.86042e+02        00000 
-6.55756e+01 -1.80806e+02        00000 
-5.84364e+01 -1.76030e+02        00000 
-5.34845e+01 -1.71861e+02        00000 
-5.02275e+01 -1.68229e+02        00000 
-4.54370e+01 -1.65842e+02        00000 
-3.87513e+01 -1.64771e+02        00000 
-3.28541e+01 -1.63485e+02        00000 
-2.67273e+01 -1.60958e+02        00000 
-2.09240e+01 -1.58262e+02        00000 
-1.59927e+01 -1.56389e+02        00000 
-1.11692e+01 -1.54399e+02        00000 
-7.50859e+00 -1.52159e+02        00000 
-3.61501e+00 -1.50889e+02        00000 
 1.38931e-02 -1.50333e+02        00000 
 4.63817e+00 -1.50210e+02        00000 
 9.22776e+00 -1.49890e+02        00000 
 1.54463e+01 -1.50027e+02        00000 
 2.22650e+01 -1.50821e+02        00000 
 2.89811e+01 -1.51240e+02        00000 
 3.65358e+01 -1.51463e+02        00000 
 4.46204e+01 -1.52623e+02        00000 
 5.14475e+01 -1.55209e+02        00000 
 6.01408e+01 -1.59269e+02        00000 
 7.17267e+01 -1.63605e+02        00000 
 8.52162e+01 -1.68378e+02        00000 
 1.02102e+02 -1.73332e+02        00000 
 1.23225e+02 -1.76864e+02        00000 
-1.21236e+02 -2.35418e+02        00000 
-1.05270e+02 -2.32299e+02        00000 
-9.25411e+01 -2.28305e+02        00000 
-8.18606e+01 -2.25183e+02        00000 
-7.36604e+01 -2.21832e+02        00000 
-6.56896e+01 -2.20342e+02        00000 
-5.81405e+01 -2.18729e+02        00000 
-5.09659e+01 -2.18684e+02        00000 
-4.32886e+01 -2.18900e+02        00000 
-3.66067e+01 -2.17682e+02        00000 
-3.03475e+01 -2.16455e+02        00000 
-2.39792e+01 -2.15305e+02        00000 
-1.80590e+01 -2.14760e+02        00000 
-1.45527e+01 -2.14644e+02        00000 
-1.01751e+01 -2.13564e+02        00000 
-4.68946e+00 -2.12140e+02        00000 
 4.60741e-01 -2.11082e+02        00000 
 3.92643e+00 -2.09676e+02        00000 
 9.88633e+00 -2.08201e+02        00000 
 1.70848e+01 -2.07763e+02        00000 
 2.46059e+01 -2.08376e+02        00000 
 3.16505e+01 -2.08672e+02        00000 
 4.14079e+01 -2.09191e+02        00000 
 5.06982e+01 -2.09052e+02        00000 
 6.17775e+01 -2.09065e+02        00000 
 7.46007e+01 -2.10388e+02        00000 
 8.71913e+01 -2.12227e+02        00000 
 1.02658e+02 -2.15666e+02        00000 
 1.19702e+02 -2.18884e+02        00000 
 1.39227e+02 -2.21827e+02        00000 
-1.36139e+02 -2.71717e+02        00000 
-1.18142e+02 -2.68575e+02        00000 
-1.03681e+02 -2.66658e+02        00000 
-9.12199e+01 -2.65193e+02        00000 
-8.04328e+01 -2.63514e+02        00000 
-7.07313e+01 -2.63173e+02        00000 
-6.03734e+01 -2.63074e+02        00000 
-5.21239e+01 -2.63104e+02        00000 
-4.43698e+01 -2.63431e+02        00000 
-3.59973e+01 -2.61762e+02        00000 
-2.94168e+01 -2.60659e+02        00000 
-2.43935e+01 -2.59582e+02        00000 
-1.88037e+01 -2.57402e+02        00000 
-1.34470e+01 -2.55244e+02        00000 
-9.22442e+00 -2.54266e+02        00000 
-6.42719e+00 -2.53811e+02        00000 
-2.34707e+00 -2.53971e+02        00000 
 3.28143e+00 -2.54921e+02        00000 
 9.76325e+00 -2.55934e+02        00000 
 1.55103e+01 -2.56388e+02        00000 
 2.32193e+01 -2.56846e+02        00000 
 3.30625e+01 -2.57687e+02        00000 
 4.27886e+01 -2.58762e+02        00000 
 5.34172e+01 -2.58799e+02        00000 
 6.73924e+01 -2.58613e+02        00000 
 8.12790e+01 -2.58841e+02        00000 
 9.72244e+01 -2.60423e+02        00000 
 1.14421e+02 -2.61323e+02        00000 
 1.34090e+02 -2.62761e+02        00000 
 1.55773e+02 -2.66245e+02        00000 
-1.46192e+02 -3.11992e+02        00000 
-1.27229e+02 -3.09863e+02        00000 
-1.10325e+02 -3.09554e+02        00000 
-9.60036e+01 -3.08459e+02        00000 
-8.28383e+01 -3.08908e+02        00000 
-7.10856e+01 -3.08529e+02        00000 
-6.09714e+01 -3.08893e+02        00000 
-5.10435e+01 -3.08148e+02        00000 
-4.34096e+01 -3.07014e+02        00000 
-3.59160e+01 -3.05194e+02        00000 
-3.01914e+01 -3.03090e+02        00000 
-2.58094e+01 -3.01834e+02        00000 
-2.18008e+01 -3.00066e+02        00000 
-1.52850e+01 -2.98281e+02        00000 
-1.02764e+01 -2.97376e+02        00000 
-6.54225e+00 -2.97558e+02        00000 
-1.72993e+00 -2.98182e+02        00000 
 5.14333e+00 -2.99353e+02        00000 
 1.05735e+01 -3.01004e+02        00000 
 1.66706e+01 -3.02924e+02        00000 
 2.36245e+01 -3.04481e+02        00000 
 3.36800e+01 -3.06912e+02        00000 
 4.36224e+01 -3.08790e+02        00000 
 5.58964e+01 -3.09852e+02        00000 
 6.87749e+01 -3.10859e+02        00000 
 8.38790e+01 -3.10954e+02        00000 
 1.01449e+02 -3.10414e+02        00000 
 1.20756e+02 -3.11065e+02        00000 
 1.42517e+02 -3.12928e+02        00000 
 1.66757e+02 -3.12724e+02        00000 
-1.53149e+02 -3.56610e+02        00000 
-1.31298e+02 -3.56529e+02        00000 
-1.13295e+02 -3.55979e+02        00000 
-9.71852e+01 -3.55491e+02        00000 
-8.33628e+01 -3.56753e+02        00000 
-7.11629e+01 -3.56889e+02        00000 
-6.10777e+01 -3.56630e+02        00000 
-5.13821e+01 -3.56021e+02        00000 
-4.40152e+01 -3.54663e+02        00000 
-3.79715e+01 -3.53254e+02        00000 
-3.20123e+01 -3.52464e+02        00000 
-2.64252e+01 -3.52627e+02        00000 
-2.11777e+01 -3.52375e+02        00000 
-1.70197e+01 -3.51872e+02        00000 
-1.19609e+01 -3.52686e+02        00000 
-5.92380e+00 -3.52761e+02        00000 
-1.76987e-01 -3.52965e+02        00000 
 5.03903e+00 -3.54707e+02        00000 
 1.15687e+01 -3.55731e+02        00000 
 1.91147e+01 -3.55714e+02        00000 
 2.69396e+01 -3.56894e+02        00000 
 3.52566e+01 -3.58672e+02        00000 
 4.51498e+01 -3.60017e+02        00000 
 5.84178e+01 -3.62357e+02        00000 
 7.08237e+01 -3.63141e+02        00000 
 8.68706e+01 -3.63231e+02        00000 
 1.03802e+02 -3.63510e+02        00000 
 1.23214e+02 -3.63820e+02        00000 
 1.44260e+02 -3.63517e+02        00000 
 1.68477e+02 -3.64257e+02        00000 
-1.46116e+02 -3.96533e+02        00000 
-1.28287e+02 -3.98614e+02        00000 
-1.10482e+02 -3.98989e+02        00000 
-9.45381e+01 -4.00282e+02        00000 
-8.17347e+01 -4.00409e+02        00000 
-7.04921e+01 -4.01133e+02        00000 
-6.08615e+01 -4.00767e+02        00000 
-5.26892e+01 -4.00829e+02        00000 
-4.47945e+01 -3.99762e+02        00000 
-3.96315e+01 -4.00581e+02        00000 
-3.27471e+01 -4.00945e+02        00000 
-2.60144e+01 -4.00908e+02        00000 
-2.12128e+01 -4.00743e+02        00000 
-1.60777e+01 -4.01077e+02        00000 
-1.08913e+01 -4.02311e+02        00000 
-6.08629e+00 -4.02889e+02        00000 
-8.61837e-01 -4.03219e+02        00000 
 5.17365e+00 -4.04329e+02        00000 
 1.16706e+01 -4.05637e+02        00000 
 1.96469e+01 -4.06283e+02        00000 
 2.93212e+01 -4.07207e+02        00000 
 3.70404e+01 -4.07650e+02        00000 
 4.75619e+01 -4.09447e+02        00000 
 5.82456e+01 -4.10909e+02        00000 
 7.19332e+01 -4.11632e+02        00000 
 8.55009e+01 -4.12387e+02        00000 
 1.00289e+02 -4.12913e+02        00000 
 1.19404e+02 -4.12627e+02        00000 
 1.40002e+02 -4.11834e+02        00000 
 1.61592e+02 -4.10346e+02        00000 
-1.36195e+02 -4.34217e+02        00000 
-1.17127e+02 -4.36360e+02        00000 
-1.01814e+02 -4.38256e+02        00000 
-8.80831e+01 -4.40053e+02        00000 
-7.65035e+01 -4.40775e+02        00000 
-6.68662e+01 -4.41425e+02        00000 
-5.79078e+01 -4.41656e+02        00000 
-5.14624e+01 -4.41215e+02        00000 
-4.41676e+01 -4.41625e+02        00000 
-3.80935e+01 -4.43199e+02        00000 
-3.25656e+01 -4.44285e+02        00000 
-2.58624e+01 -4.44280e+02        00000 
-2.08269e+01 -4.46029e+02        00000 
-1.53392e+01 -4.47979e+02        00000 
-9.98402e+00 -4.48894e+02        00000 
-5.34851e+00 -4.50045e+02        00000 
-5.23244e-01 -4.51342e+02        00000 
 6.41386e+00 -4.51371e+02        00000 
 1.26516e+01 -4.51226e+02        00000 
 2.05697e+01 -4.53217e+02        00000 
 2.82652e+01 -4.53778e+02        00000 
 3.69244e+01 -4.52942e+02        00000 
 4.71906e+01 -4.54111e+02        00000 
 5.60723e+01 -4.55436e+02        00000 
 6.75197e+01 -4.56873e+02        00000 
 7.95599e+01 -4.57702e+02        00000 
 9.46116e+01 -4.56178e+02        00000 
 1.09764e+02 -4.55134e+02        00000 
 1.26888e+02 -4.54106e+02        00000 
 1.46302e+02 -4.50320e+02        00000 
-1.14786e+02 -4.65999e+02        00000 
-1.01808e+02 -4.68560e+02        00000 
-8.93567e+01 -4.71785e+02        00000 
-7.84700e+01 -4.73380e+02        00000 
-6.79120e+01 -4.75742e+02        00000 
-5.98113e+01 -4.76533e+02        00000 
-5.28293e+01 -4.78166e+02        00000 
-4.62636e+01 -4.78531e+02        00000 
-4.04967e+01 -4.80329e+02        00000 
-3.36676e+01 -4.81665e+02        00000 
-2.96031e+01 -4.82400e+02        00000 
-2.39566e+01 -4.82977e+02        00000 
-1.77536e+01 -4.84895e+02        00000 
-1.43496e+01 -4.85940e+02        00000 
-9.59108e+00 -4.86274e+02        00000 
-3.57345e+00 -4.87635e+02        00000 
 1.23727e+00 -4.89571e+02        00000 
 4.76374e+00 -4.90825e+02        00000 
 1.14376e+01 -4.91880e+02        00000 
 1.88189e+01 -4.93122e+02        00000 
 2.48226e+01 -4.94108e+02        00000 
 3.37976e+01 -4.94985e+02        00000 
 4.16051e+01 -4.94190e+02        00000 
 5.13688e+01 -4.94766e+02        00000 
 6.05847e+01 -4.95450e+02        00000 
 7.16538e+01 -4.94416e+02        00000 
 8.39234e+01 -4.93830e+02        00000 
 9.61324e+01 -4.92502e+02        00000 
 1.09715e+02 -4.89355e+02        00000 
 1.25282e+02 -4.86466e+02        00000 
-9.34272e+01 -4.93131e+02        00000 
-8.28213e+01 -4.95804e+02        00000 
-7.32186e+01 -4.99288e+02        00000 
-6.51918e+01 -5.02255e+02        00000 
-5.65647e+01 -5.03759e+02        00000 
-4.97723e+01 -5.05439e+02        00000 
-4.41655e+01 -5.06602e+02        00000 
-3.77189e+01 -5.08184e+02        00000 
-3.29464e+01 -5.10365e+02        00000 
-2.81842e+01 -5.12649e+02        00000 
-2.41118e+01 -5.13822e+02        00000 
-1.94357e+01 -5.15790e+02        00000 
-1.48351e+01 -5.17338e+02        00000 
-1.19369e+01 -5.19023e+02        00000 
-8.22559e+00 -5.20321e+02        00000 
-3.86624e+00 -5.21424e+02        00000 
 7.05491e-01 -5.23225e+02        00000 
 3.49221e+00 -5.24368e+02        00000 
 8.49734e+00 -5.25516e+02        00000 
 1.43414e+01 -5.26206e+02        00000 
 2.00522e+01 -5.26872e+02        00000 
 2.67920e+01 -5.27368e+02        00000 
 3.34841e+01 -5.26758e+02        00000 
 4.26542e+01 -5.26628e+02        00000 
 5.01547e+01 -5.26523e+02        00000 
 5.86447e+01 -5.26273e+02        00000 
 6.92685e+01 -5.25522e+02        00000 
 7.85058e+01 -5.22603e+02        00000 
 9.00326e+01 -5.19654e+02        00000 
 1.01159e+02 -5.16248e+02        00000 
-6.88369e+01 -5.11751e+02        00000 
-6.15953e+01 -5.16800e+02        00000 
-5.42821e+01 -5.19917e+02        00000 
-4.77927e+01 -5.23427e+02        00000 
-4.24453e+01 -5.25843e+02        00000 
-3.76600e+01 -5.28288e+02        00000 
-3.23970e+01 -5.29813e+02        00000 
-2.86836e+01 -5.31546e+02        00000 
-2.51266e+01 -5.33606e+02        00000 
-2.16445e+01 -5.35895e+02        00000 
-1.73641e+01 -5.37877e+02        00000 
-1.50084e+01 -5.39097e+02        00000 
-1.16264e+01 -5.41020e+02        00000 
-9.08267e+00 -5.42584e+02        00000 
-6.30055e+00 -5.43978e+02        00000 
-2.80577e+00 -5.45751e+02        00000 
-2.10141e-01 -5.47273e+02        00000 
 3.34476e+00 -5.48764e+02        00000 
 6.73436e+00 -5.49888e+02        00000 
 9.51615e+00 -5.51597e+02        00000 
 1.52434e+01 -5.52494e+02        00000 
 1.96868e+01 -5.52125e+02        00000 
 2.51014e+01 -5.52162e+02        00000 
 3.01791e+01 -5.52237e+02        00000 
 3.75566e+01 -5.52021e+02        00000 
 4.37774e+01 -5.51098e+02        00000 
 5.08735e+01 -5.49045e+02        00000 
 5.78536e+01 -5.45218e+02        00000 
 6.61441e+01 -5.41737e+02        00000 
 7.46845e+01 -5.38155e+02        00000 
-4.17188e+01 -5.25667e+02        00000 
-3.82935e+01 -5.31112e+02        00000 
-3.36128e+01 -5.34916e+02        00000 
-2.98397e+01 -5.37662e+02        00000 
-2.63343e+01 -5.40551e+02        00000 
-2.26854e+01 -5.43507e+02        00000 
-1.96291e+01 -5.45244e+02        00000 
-1.84230e+01 -5.47078e+02        00000 
-1.55417e+01 -5.49478e+02        00000 
-1.33430e+01 -5.51813e+02        00000 
-1.09574e+01 -5.53709e+02        00000 
-9.95443e+00 -5.55478e+02        00000 
-7.65319e+00 -5.57586e+02        00000 
-6.03427e+00 -5.59612e+02        00000 
-4.39140e+00 -5.61115e+02        00000 
-2.00242e+00 -5.62861e+02        00000 
-4.39389e-01 -5.65000e+02        00000 
 1.24807e+00 -5.66015e+02        00000 
 3.97393e+00 -5.66894e+02        00000 
 5.33559e+00 -5.68406e+02        00000 
 8.52539e+00 -5.69472e+02        00000 
 1.14087e+01 -5.69487e+02        00000 
 1.57080e+01 -5.69824e+02        00000 
 1.74048e+01 -5.69526e+02        00000 
 2.19558e+01 -5.68813e+02        00000 
 2.71477e+01 -5.67203e+02        00000 
 3.16173e+01 -5.64383e+02        00000 
 3.57684e+01 -5.61848e+02        00000 
 4.07234e+01 -5.56858e+02        00000 
 4.57988e+01 -5.51483e+02        00000 
-1.47807e+01 -5.31254e+02        00000 
-1.25412e+01 -5.38172e+02        00000 
-1.09880e+01 -5.41000e+02        00000 
-9.74383e+00 -5.45321e+02        00000 
-8.83369e+00 -5.49008e+02        00000 
-7.02761e+00 -5.50997e+02        00000 
-6.01600e+00 -5.53049e+02        00000 
-5.96390e+00 -5.55441e+02        00000 
-4.72102e+00 -5.58032e+02        00000 
-4.48124e+00 -5.60128e+02        00000 
-4.20583e+00 -5.61799e+02        00000 
-3.51362e+00 -5.63616e+02        00000 
-3.11730e+00 -5.65853e+02        00000 
-2.88345e+00 -5.67999e+02        00000 
-2.66122e+00 -5.69470e+02        00000 
-2.58985e+00 -5.71406e+02        00000 
-1.74591e+00 -5.73389e+02        00000 
-1.58274e+00 -5.74470e+02        00000 
-6.48268e-01 -5.75484e+02        00000 
 1.52989e-01 -5.76901e+02        00000 
 3.40655e-01 -5.77805e+02        00000 
 1.40005e+00 -5.78855e+02        00000 
 3.26138e+00 -5.78419e+02        00000 
 4.14780e+00 -5.77509e+02        00000 
 5.41055e+00 -5.77454e+02        00000 
 8.21602e+00 -5.75747e+02        00000 
 8.96598e+00 -5.72449e+02        00000 
 1.05762e+01 -5.68397e+02        00000 
 1.33215e+01 -5.63688e+02        00000 
 1.48584e+01 -5.58426e+02        00000 
 1.66936e+01 -5.30714e+02        00000 
 1.45917e+01 -5.37437e+02        00000 
 1.30584e+01 -5.40311e+02        00000 
 1.18895e+01 -5.44958e+02        00000 
 1.09410e+01 -5.49115e+02        00000 
 9.01682e+00 -5.51277e+02        00000 
 7.73405e+00 -5.53525e+02        00000 
 7.31376e+00 -5.56059e+02        00000 
 5.55668e+00 -5.58683e+02        00000 
 4.68937e+00 -5.60886e+02        00000 
 3.72465e+00 -5.62639e+02        00000 
 2.27309e+00 -5.64509e+02        00000 
 1.07247e+00 -5.66779e+02        00000 
 1.58053e-02 -5.68922e+02        00000 
-1.01648e+00 -5.70366e+02        00000 
-1.85866e+00 -5.72236e+02        00000 
-3.40832e+00 -5.74144e+02        00000 
-4.18552e+00 -5.75116e+02        00000 
-5.62704e+00 -5.75998e+02        00000 
-6.81106e+00 -5.77286e+02        00000 
-7.25832e+00 -5.78037e+02        00000 
-8.43804e+00 -5.78977e+02        00000 
-1.02785e+01 -5.78351e+02        00000 
-1.10071e+01 -5.77311e+02        00000 
-1.19992e+01 -5.77066e+02        00000 
-1.44071e+01 -5.75221e+02        00000 
-1.46555e+01 -5.71755e+02        00000 
-1.56948e+01 -5.67527e+02        00000 
-1.79718e+01 -5.62678e+02        00000 
-1.93972e+01 -5.56974e+02        00000 
 4.66578e+01 -5.23814e+02        00000 
 4.26364e+01 -5.29940e+02        00000 
 3.77978e+01 -5.34133e+02        00000 
 3.36845e+01 -5.37920e+02        00000 
 2.99950e+01 -5.41492e+02        00000 
 2.59096e+01 -5.44465e+02        00000 
 2.22767e+01 -5.46504e+02        00000 
 2.04095e+01 -5.48758e+02        00000 
 1.68711e+01 -5.51397e+02        00000 
 1.39660e+01 -5.54048e+02        00000 
 1.07842e+01 -5.56113e+02        00000 
 8.96835e+00 -5.58044e+02        00000 
 5.85334e+00 -5.60209e+02        00000 
 3.42262e+00 -5.62248e+02        00000 
 9.78548e-01 -5.63678e+02        00000 
-2.19582e+00 -5.65258e+02        00000 
-4.50984e+00 -5.67207e+02        00000 