<?xml version="1.0" encoding="utf-8"?>
<VTKFile byte_order="LittleEndian" type="UnstructuredGrid" version="0.1">
   <UnstructuredGrid>
      <Piece NumberOfCells="3364" NumberOfPoints="1741">
         <Points>
            <DataArray Name="Points" NumberOfComponents="3" format="ascii" type="Float32">
0.0000 1.0000 0.0000
0.0000 1.0345 0.0000
0.0000 1.0690 0.0000
0.0000 1.1034 0.0000
0.0000 1.1379 0.0000
0.0000 1.1724 0.0000
0.0000 1.2069 0.0000
0.0000 1.2414 0.0000
0.0000 1.2759 0.0000
0.0000 1.3103 0.0000
0.0000 1.3448 0.0000
0.0000 1.3793 0.0000
0.0000 1.4138 0.0000
0.0000 1.4483 0.0000
0.0000 1.4828 0.0000
0.0000 1.5172 0.0000
0.0000 1.5517 0.0000
0.0000 1.5862 0.0000
0.0000 1.6207 0.0000
0.0000 1.6552 0.0000
0.0000 1.6897 0.0000
0.0000 1.7241 0.0000
0.0000 1.7586 0.0000
0.0000 1.7931 0.0000
0.0000 1.8276 0.0000
0.0000 1.8621 0.0000
0.0000 1.8966 0.0000
0.0000 1.9310 0.0000
0.0000 1.9655 0.0000
0.0000 2.0000 0.0000
0.0690 1.0000 0.0000
0.0690 1.0345 0.0000
0.0690 1.0690 0.0000
0.0690 1.1034 0.0000
0.0690 1.1379 0.0000
0.0690 1.1724 0.0000
0.0690 1.2069 0.0000
0.0690 1.2414 0.0000
0.0690 1.2759 0.0000
0.0690 1.3103 0.0000
0.0690 1.3448 0.0000
0.0690 1.3793 0.0000
0.0690 1.4138 0.0000
0.0690 1.4483 0.0000
0.0690 1.4828 0.0000
0.0690 1.5172 0.0000
0.0690 1.5517 0.0000
0.0690 1.5862 0.0000
0.0690 1.6207 0.0000
0.0690 1.6552 0.0000
0.0690 1.6897 0.0000
0.0690 1.7241 0.0000
0.0690 1.7586 0.0000
0.0690 1.7931 0.0000
0.0690 1.8276 0.0000
0.0690 1.8621 0.0000
0.0690 1.8966 0.0000
0.0690 1.9310 0.0000
0.0690 1.9655 0.0000
0.0690 2.0000 0.0000
0.1379 1.0000 0.0000
0.1379 1.0345 0.0000
0.1379 1.0690 0.0000
0.1379 1.1034 0.0000
0.1379 1.1379 0.0000
0.1379 1.1724 0.0000
0.1379 1.2069 0.0000
0.1379 1.2414 0.0000
0.1379 1.2759 0.0000
0.1379 1.3103 0.0000
0.1379 1.3448 0.0000
0.1379 1.3793 0.0000
0.1379 1.4138 0.0000
0.1379 1.4483 0.0000
0.1379 1.4828 0.0000
0.1379 1.5172 0.0000
0.1379 1.5517 0.0000
0.1379 1.5862 0.0000
0.1379 1.6207 0.0000
0.1379 1.6552 0.0000
0.1379 1.6897 0.0000
0.1379 1.7241 0.0000
0.1379 1.7586 0.0000
0.1379 1.7931 0.0000
0.1379 1.8276 0.0000
0.1379 1.8621 0.0000
0.1379 1.8966 0.0000
0.1379 1.9310 0.0000
0.1379 1.9655 0.0000
0.1379 2.0000 0.0000
0.2069 1.0000 0.0000
0.2069 1.0345 0.0000
0.2069 1.0690 0.0000
0.2069 1.1034 0.0000
0.2069 1.1379 0.0000
0.2069 1.1724 0.0000
0.2069 1.2069 0.0000
0.2069 1.2414 0.0000
0.2069 1.2759 0.0000
0.2069 1.3103 0.0000
0.2069 1.3448 0.0000
0.2069 1.3793 0.0000
0.2069 1.4138 0.0000
0.2069 1.4483 0.0000
0.2069 1.4828 0.0000
0.2069 1.5172 0.0000
0.2069 1.5517 0.0000
0.2069 1.5862 0.0000
0.2069 1.6207 0.0000
0.2069 1.6552 0.0000
0.2069 1.6897 0.0000
0.2069 1.7241 0.0000
0.2069 1.7586 0.0000
0.2069 1.7931 0.0000
0.2069 1.8276 0.0000
0.2069 1.8621 0.0000
0.2069 1.8966 0.0000
0.2069 1.9310 0.0000
0.2069 1.9655 0.0000
0.2069 2.0000 0.0000
0.2759 1.0000 0.0000
0.2759 1.0345 0.0000
0.2759 1.0690 0.0000
0.2759 1.1034 0.0000
0.2759 1.1379 0.0000
0.2759 1.1724 0.0000
0.2759 1.2069 0.0000
0.2759 1.2414 0.0000
0.2759 1.2759 0.0000
0.2759 1.3103 0.0000
0.2759 1.3448 0.0000
0.2759 1.3793 0.0000
0.2759 1.4138 0.0000
0.2759 1.4483 0.0000
0.2759 1.4828 0.0000
0.2759 1.5172 0.0000
0.2759 1.5517 0.0000
0.2759 1.5862 0.0000
0.2759 1.6207 0.0000
0.2759 1.6552 0.0000
0.2759 1.6897 0.0000
0.2759 1.7241 0.0000
0.2759 1.7586 0.0000
0.2759 1.7931 0.0000
0.2759 1.8276 0.0000
0.2759 1.8621 0.0000
0.2759 1.8966 0.0000
0.2759 1.9310 0.0000
0.2759 1.9655 0.0000
0.2759 2.0000 0.0000
0.3448 1.0000 0.0000
0.3448 1.0345 0.0000
0.3448 1.0690 0.0000
0.3448 1.1034 0.0000
0.3448 1.1379 0.0000
0.3448 1.1724 0.0000
0.3448 1.2069 0.0000
0.3448 1.2414 0.0000
0.3448 1.2759 0.0000
0.3448 1.3103 0.0000
0.3448 1.3448 0.0000
0.3448 1.3793 0.0000
0.3448 1.4138 0.0000
0.3448 1.4483 0.0000
0.3448 1.4828 0.0000
0.3448 1.5172 0.0000
0.3448 1.5517 0.0000
0.3448 1.5862 0.0000
0.3448 1.6207 0.0000
0.3448 1.6552 0.0000
0.3448 1.6897 0.0000
0.3448 1.7241 0.0000
0.3448 1.7586 0.0000
0.3448 1.7931 0.0000
0.3448 1.8276 0.0000
0.3448 1.8621 0.0000
0.3448 1.8966 0.0000
0.3448 1.9310 0.0000
0.3448 1.9655 0.0000
0.3448 2.0000 0.0000
0.4138 1.0000 0.0000
0.4138 1.0345 0.0000
0.4138 1.0690 0.0000
0.4138 1.1034 0.0000
0.4138 1.1379 0.0000
0.4138 1.1724 0.0000
0.4138 1.2069 0.0000
0.4138 1.2414 0.0000
0.4138 1.2759 0.0000
0.4138 1.3103 0.0000
0.4138 1.3448 0.0000
0.4138 1.3793 0.0000
0.4138 1.4138 0.0000
0.4138 1.4483 0.0000
0.4138 1.4828 0.0000
0.4138 1.5172 0.0000
0.4138 1.5517 0.0000
0.4138 1.5862 0.0000
0.4138 1.6207 0.0000
0.4138 1.6552 0.0000
0.4138 1.6897 0.0000
0.4138 1.7241 0.0000
0.4138 1.7586 0.0000
0.4138 1.7931 0.0000
0.4138 1.8276 0.0000
0.4138 1.8621 0.0000
0.4138 1.8966 0.0000
0.4138 1.9310 0.0000
0.4138 1.9655 0.0000
0.4138 2.0000 0.0000
0.4828 1.0000 0.0000
0.4828 1.0345 0.0000
0.4828 1.0690 0.0000
0.4828 1.1034 0.0000
0.4828 1.1379 0.0000
0.4828 1.1724 0.0000
0.4828 1.2069 0.0000
0.4828 1.2414 0.0000
0.4828 1.2759 0.0000
0.4828 1.3103 0.0000
0.4828 1.3448 0.0000
0.4828 1.3793 0.0000
0.4828 1.4138 0.0000
0.4828 1.4483 0.0000
0.4828 1.4828 0.0000
0.4828 1.5172 0.0000
0.4828 1.5517 0.0000
0.4828 1.5862 0.0000
0.4828 1.6207 0.0000
0.4828 1.6552 0.0000
0.4828 1.6897 0.0000
0.4828 1.7241 0.0000
0.4828 1.7586 0.0000
0.4828 1.7931 0.0000
0.4828 1.8276 0.0000
0.4828 1.8621 0.0000
0.4828 1.8966 0.0000
0.4828 1.9310 0.0000
0.4828 1.9655 0.0000
0.4828 2.0000 0.0000
0.5517 1.0000 0.0000
0.5517 1.0345 0.0000
0.5517 1.0690 0.0000
0.5517 1.1034 0.0000
0.5517 1.1379 0.0000
0.5517 1.1724 0.0000
0.5517 1.2069 0.0000
0.5517 1.2414 0.0000
0.5517 1.2759 0.0000
0.5517 1.3103 0.0000
0.5517 1.3448 0.0000
0.5517 1.3793 0.0000
0.5517 1.4138 0.0000
0.5517 1.4483 0.0000
0.5517 1.4828 0.0000
0.5517 1.5172 0.0000
0.5517 1.5517 0.0000
0.5517 1.5862 0.0000
0.5517 1.6207 0.0000
0.5517 1.6552 0.0000
0.5517 1.6897 0.0000
0.5517 1.7241 0.0000
0.5517 1.7586 0.0000
0.5517 1.7931 0.0000
0.5517 1.8276 0.0000
0.5517 1.8621 0.0000
0.5517 1.8966 0.0000
0.5517 1.9310 0.0000
0.5517 1.9655 0.0000
0.5517 2.0000 0.0000
0.6207 1.0000 0.0000
0.6207 1.0345 0.0000
0.6207 1.0690 0.0000
0.6207 1.1034 0.0000
0.6207 1.1379 0.0000
0.6207 1.1724 0.0000
0.6207 1.2069 0.0000
0.6207 1.2414 0.0000
0.6207 1.2759 0.0000
0.6207 1.3103 0.0000
0.6207 1.3448 0.0000
0.6207 1.3793 0.0000
0.6207 1.4138 0.0000
0.6207 1.4483 0.0000
0.6207 1.4828 0.0000
0.6207 1.5172 0.0000
0.6207 1.5517 0.0000
0.6207 1.5862 0.0000
0.6207 1.6207 0.0000
0.6207 1.6552 0.0000
0.6207 1.6897 0.0000
0.6207 1.7241 0.0000
0.6207 1.7586 0.0000
0.6207 1.7931 0.0000
0.6207 1.8276 0.0000
0.6207 1.8621 0.0000
0.6207 1.8966 0.0000
0.6207 1.9310 0.0000
0.6207 1.9655 0.0000
0.6207 2.0000 0.0000
0.6897 1.0000 0.0000
0.6897 1.0345 0.0000
0.6897 1.0690 0.0000
0.6897 1.1034 0.0000
0.6897 1.1379 0.0000
0.6897 1.1724 0.0000
0.6897 1.2069 0.0000
0.6897 1.2414 0.0000
0.6897 1.2759 0.0000
0.6897 1.3103 0.0000
0.6897 1.3448 0.0000
0.6897 1.3793 0.0000
0.6897 1.4138 0.0000
0.6897 1.4483 0.0000
0.6897 1.4828 0.0000
0.6897 1.5172 0.0000
0.6897 1.5517 0.0000
0.6897 1.5862 0.0000
0.6897 1.6207 0.0000
0.6897 1.6552 0.0000
0.6897 1.6897 0.0000
0.6897 1.7241 0.0000
0.6897 1.7586 0.0000
0.6897 1.7931 0.0000
0.6897 1.8276 0.0000
0.6897 1.8621 0.0000
0.6897 1.8966 0.0000
0.6897 1.9310 0.0000
0.6897 1.9655 0.0000
0.6897 2.0000 0.0000
0.7586 1.0000 0.0000
0.7586 1.0345 0.0000
0.7586 1.0690 0.0000
0.7586 1.1034 0.0000
0.7586 1.1379 0.0000
0.7586 1.1724 0.0000
0.7586 1.2069 0.0000
0.7586 1.2414 0.0000
0.7586 1.2759 0.0000
0.7586 1.3103 0.0000
0.7586 1.3448 0.0000
0.7586 1.3793 0.0000
0.7586 1.4138 0.0000
0.7586 1.4483 0.0000
0.7586 1.4828 0.0000
0.7586 1.5172 0.0000
0.7586 1.5517 0.0000
0.7586 1.5862 0.0000
0.7586 1.6207 0.0000
0.7586 1.6552 0.0000
0.7586 1.6897 0.0000
0.7586 1.7241 0.0000
0.7586 1.7586 0.0000
0.7586 1.7931 0.0000
0.7586 1.8276 0.0000
0.7586 1.8621 0.0000
0.7586 1.8966 0.0000
0.7586 1.9310 0.0000
0.7586 1.9655 0.0000
0.7586 2.0000 0.0000
0.8276 1.0000 0.0000
0.8276 1.0345 0.0000
0.8276 1.0690 0.0000
0.8276 1.1034 0.0000
0.8276 1.1379 0.0000
0.8276 1.1724 0.0000
0.8276 1.2069 0.0000
0.8276 1.2414 0.0000
0.8276 1.2759 0.0000
0.8276 1.3103 0.0000
0.8276 1.3448 0.0000
0.8276 1.3793 0.0000
0.8276 1.4138 0.0000
0.8276 1.4483 0.0000
0.8276 1.4828 0.0000
0.8276 1.5172 0.0000
0.8276 1.5517 0.0000
0.8276 1.5862 0.0000
0.8276 1.6207 0.0000
0.8276 1.6552 0.0000
0.8276 1.6897 0.0000
0.8276 1.7241 0.0000
0.8276 1.7586 0.0000
0.8276 1.7931 0.0000
0.8276 1.8276 0.0000
0.8276 1.8621 0.0000
0.8276 1.8966 0.0000
0.8276 1.9310 0.0000
0.8276 1.9655 0.0000
0.8276 2.0000 0.0000
0.8966 1.0000 0.0000
0.8966 1.0345 0.0000
0.8966 1.0690 0.0000
0.8966 1.1034 0.0000
0.8966 1.1379 0.0000
0.8966 1.1724 0.0000
0.8966 1.2069 0.0000
0.8966 1.2414 0.0000
0.8966 1.2759 0.0000
0.8966 1.3103 0.0000
0.8966 1.3448 0.0000
0.8966 1.3793 0.0000
0.8966 1.4138 0.0000
0.8966 1.4483 0.0000
0.8966 1.4828 0.0000
0.8966 1.5172 0.0000
0.8966 1.5517 0.0000
0.8966 1.5862 0.0000
0.8966 1.6207 0.0000
0.8966 1.6552 0.0000
0.8966 1.6897 0.0000
0.8966 1.7241 0.0000
0.8966 1.7586 0.0000
0.8966 1.7931 0.0000
0.8966 1.8276 0.0000
0.8966 1.8621 0.0000
0.8966 1.8966 0.0000
0.8966 1.9310 0.0000
0.8966 1.9655 0.0000
0.8966 2.0000 0.0000
0.9655 1.0000 0.0000
0.9655 1.0345 0.0000
0.9655 1.0690 0.0000
0.9655 1.1034 0.0000
0.9655 1.1379 0.0000
0.9655 1.1724 0.0000
0.9655 1.2069 0.0000
0.9655 1.2414 0.0000
0.9655 1.2759 0.0000
0.9655 1.3103 0.0000
0.9655 1.3448 0.0000
0.9655 1.3793 0.0000
0.9655 1.4138 0.0000
0.9655 1.4483 0.0000
0.9655 1.4828 0.0000
0.9655 1.5172 0.0000
0.9655 1.5517 0.0000
0.9655 1.5862 0.0000
0.9655 1.6207 0.0000
0.9655 1.6552 0.0000
0.9655 1.6897 0.0000
0.9655 1.7241 0.0000
0.9655 1.7586 0.0000
0.9655 1.7931 0.0000
0.9655 1.8276 0.0000
0.9655 1.8621 0.0000
0.9655 1.8966 0.0000
0.9655 1.9310 0.0000
0.9655 1.9655 0.0000
0.9655 2.0000 0.0000
1.0345 1.0000 0.0000
1.0345 1.0345 0.0000
1.0345 1.0690 0.0000
1.0345 1.1034 0.0000
1.0345 1.1379 0.0000
1.0345 1.1724 0.0000
1.0345 1.2069 0.0000
1.0345 1.2414 0.0000
1.0345 1.2759 0.0000
1.0345 1.3103 0.0000
1.0345 1.3448 0.0000
[...]
         <PointData>
            <DataArray Name="fValues" NumberOfComponents="3" format="ascii" type="Float64">
 2.03822e-14  9.21835e-15        00000 
-1.05502e-14 -2.11004e-14        00000 
 2.60821e-15  2.23561e-15        00000 
 1.89599e-15 -1.07674e-15        00000 
-3.72602e-15  2.23561e-15        00000 
 1.72539e-15 -7.86288e-15        00000 
-5.58903e-16 -7.45203e-16        00000 
 1.00652e-15 -5.05599e-15        00000 
-2.79451e-16  9.68764e-15        00000 
-6.36484e-16 -1.15844e-14        00000 
 7.45203e-16  5.21642e-15        00000 
-5.33980e-16  1.38103e-15        00000 
-5.12327e-16  3.72602e-16        00000 
 4.17783e-16  1.83254e-15        00000 
-1.16438e-16  1.49041e-15        00000 
 8.77775e-17 -6.78813e-16        00000 
 1.16438e-17 -1.11781e-15        00000 
 2.16841e-16  1.91092e-15        00000 
 6.98628e-17 -9.31504e-15        00000 
 3.51110e-17  4.42399e-15        00000 
 1.11781e-15 -4.84382e-15        00000 
-2.69460e-15  2.66927e-15        00000 
-9.31504e-17 -5.21642e-15        00000 
 7.13924e-16  2.90251e-15        00000 
 3.16711e-15 -5.58903e-15        00000 
 4.80529e-16 -1.31845e-14        00000 
-7.45203e-16  1.11781e-14        00000 
-1.26635e-15 -1.26166e-14        00000 
 2.25479e-15  3.10033e-15        00000 
-1.04218e-14  1.19654e-15        00000 
-6.56720e+01 -8.43215e+01        00000 
-4.22520e+01 -7.47991e+01        00000 
-3.24171e+01 -6.81131e+01        00000 
-2.59549e+01 -6.45172e+01        00000 
-2.12348e+01 -6.15335e+01        00000 
-1.68900e+01 -5.95367e+01        00000 
-1.31516e+01 -5.64157e+01        00000 
-9.59207e+00 -5.36102e+01        00000 
-7.58191e+00 -5.10109e+01        00000 
-6.77002e+00 -4.82269e+01        00000 
-6.62550e+00 -4.45360e+01        00000 
-5.23523e+00 -4.12830e+01        00000 
-3.29008e+00 -3.90708e+01        00000 
-2.03540e+00 -3.75167e+01        00000 
-1.34173e+00 -3.65345e+01        00000 
-1.21525e+00 -3.50742e+01        00000 
-1.58903e-01 -3.35708e+01        00000 
 1.27243e+00 -3.28518e+01        00000 
 3.83060e+00 -3.35001e+01        00000 
 6.29769e+00 -3.53047e+01        00000 
 7.34733e+00 -3.73980e+01        00000 
 8.28206e+00 -3.97275e+01        00000 
 1.02335e+01 -4.18226e+01        00000 
 1.36051e+01 -4.31215e+01        00000 
 1.76728e+01 -4.43356e+01        00000 
 2.21399e+01 -4.58441e+01        00000 
 2.74674e+01 -4.79940e+01        00000 
 3.51022e+01 -5.16551e+01        00000 
 4.50075e+01 -5.77442e+01        00000 
 6.63312e+01 -6.75293e+01        00000 
-9.83428e+01 -1.34395e+02        00000 
-7.72996e+01 -1.29406e+02        00000 
-6.17620e+01 -1.23261e+02        00000 
-5.11697e+01 -1.17706e+02        00000 
-4.19007e+01 -1.12849e+02        00000 
-3.43289e+01 -1.09690e+02        00000 
-2.73160e+01 -1.06598e+02        00000 
-2.07636e+01 -1.03132e+02        00000 
-1.64586e+01 -1.00379e+02        00000 
-1.37409e+01 -9.68427e+01        00000 
-1.17089e+01 -9.35307e+01        00000 
-1.05284e+01 -9.08485e+01        00000 
-7.71079e+00 -8.86811e+01        00000 
-4.73670e+00 -8.66792e+01        00000 
-3.23396e+00 -8.53829e+01        00000 
-2.11796e+00 -8.45548e+01        00000 
-7.93174e-01 -8.38721e+01        00000 
 2.97814e+00 -8.34468e+01        00000 
 6.63527e+00 -8.30618e+01        00000 
 9.82656e+00 -8.34454e+01        00000 
 1.29114e+01 -8.48695e+01        00000 
 1.65855e+01 -8.67814e+01        00000 
 2.19089e+01 -8.85115e+01        00000 
 2.90081e+01 -9.01985e+01        00000 
 3.66550e+01 -9.18166e+01        00000 
 4.48417e+01 -9.45076e+01        00000 
 5.50359e+01 -9.87094e+01        00000 
 6.69364e+01 -1.03944e+02        00000 
 8.38295e+01 -1.09836e+02        00000 
 1.05604e+02 -1.16099e+02        00000 
-1.22391e+02 -1.82300e+02        00000 
-1.02542e+02 -1.77445e+02        00000 
-8.54283e+01 -1.73419e+02        00000 
-7.17175e+01 -1.68366e+02        00000 
-5.94344e+01 -1.64021e+02        00000 
-4.79026e+01 -1.59681e+02        00000 
-3.87447e+01 -1.55818e+02        00000 
-3.13622e+01 -1.51923e+02        00000 
-2.48224e+01 -1.48540e+02        00000 
-2.00822e+01 -1.46057e+02        00000 
-1.63879e+01 -1.43189e+02        00000 
-1.30482e+01 -1.40399e+02        00000 
-1.13311e+01 -1.37844e+02        00000 
-9.54981e+00 -1.35758e+02        00000 
-6.72341e+00 -1.33876e+02        00000 
-2.98324e+00 -1.32802e+02        00000 
 3.78026e-01 -1.32246e+02        00000 
 3.18275e+00 -1.32092e+02        00000 
 6.61913e+00 -1.32662e+02        00000 
 1.12555e+01 -1.33712e+02        00000 
 1.75663e+01 -1.34624e+02        00000 
 2.45953e+01 -1.35245e+02        00000 
 3.26506e+01 -1.36877e+02        00000 
 4.14733e+01 -1.39470e+02        00000 
 5.13166e+01 -1.42621e+02        00000 
 6.45548e+01 -1.46134e+02        00000 
 7.90497e+01 -1.49928e+02        00000 
 9.47572e+01 -1.54306e+02        00000 
 1.14589e+02 -1.59146e+02        00000 
 1.36869e+02 -1.63742e+02        00000 
-1.45123e+02 -2.23339e+02        00000 
-1.23652e+02 -2.19377e+02        00000 
-1.05266e+02 -2.15759e+02        00000 
-8.83374e+01 -2.12868e+02        00000 
-7.38323e+01 -2.09832e+02        00000 
-6.03550e+01 -2.06223e+02        00000 
-4.93536e+01 -2.02467e+02        00000 
-4.10621e+01 -1.98958e+02        00000 
-3.37857e+01 -1.95097e+02        00000 
-2.76950e+01 -1.91725e+02        00000 
-2.31380e+01 -1.88643e+02        00000 
-1.97509e+01 -1.85347e+02        00000 
-1.69411e+01 -1.82307e+02        00000 
-1.44686e+01 -1.80620e+02        00000 
-9.93084e+00 -1.80282e+02        00000 
-5.13677e+00 -1.79459e+02        00000 
 7.84280e-01 -1.78674e+02        00000 
 5.04053e+00 -1.79317e+02        00000 
 1.02918e+01 -1.81287e+02        00000 
 1.59556e+01 -1.82460e+02        00000 
 2.30295e+01 -1.83151e+02        00000 
 3.21143e+01 -1.85243e+02        00000 
 4.25098e+01 -1.88464e+02        00000 
 5.31805e+01 -1.91186e+02        00000 
 6.67004e+01 -1.94004e+02        00000 
 8.20920e+01 -1.97553e+02        00000 
 9.81814e+01 -2.00835e+02        00000 
 1.18201e+02 -2.04103e+02        00000 
 1.39283e+02 -2.08338e+02        00000 
 1.63868e+02 -2.13390e+02        00000 
-1.61582e+02 -2.72135e+02        00000 
-1.38575e+02 -2.70397e+02        00000 
-1.18649e+02 -2.67315e+02        00000 
-1.00646e+02 -2.64685e+02        00000 
-8.53744e+01 -2.61850e+02        00000 
-7.32319e+01 -2.58599e+02        00000 
-6.16830e+01 -2.54603e+02        00000 
-5.24462e+01 -2.51295e+02        00000 
-4.49908e+01 -2.48426e+02        00000 
-3.76028e+01 -2.44755e+02        00000 
-3.18069e+01 -2.41611e+02        00000 
-2.75974e+01 -2.39855e+02        00000 
-2.30586e+01 -2.38771e+02        00000 
-1.69660e+01 -2.36527e+02        00000 
-1.15859e+01 -2.34481e+02        00000 
-6.12756e+00 -2.34133e+02        00000 
 4.93555e-03 -2.35706e+02        00000 
 8.05980e+00 -2.37548e+02        00000 
 1.53600e+01 -2.37741e+02        00000 
 2.30136e+01 -2.38201e+02        00000 
 3.13877e+01 -2.40774e+02        00000 
 4.16515e+01 -2.43911e+02        00000 
 5.26239e+01 -2.45674e+02        00000 
 6.58448e+01 -2.47957e+02        00000 
 8.07224e+01 -2.51732e+02        00000 
 9.57527e+01 -2.54636e+02        00000 
 1.14115e+02 -2.57658e+02        00000 
 1.34492e+02 -2.61686e+02        00000 
 1.57183e+02 -2.64674e+02        00000 
 1.83064e+02 -2.66400e+02        00000 
-1.68939e+02 -3.22588e+02        00000 
-1.46882e+02 -3.21285e+02        00000 
-1.26631e+02 -3.19951e+02        00000 
-1.09623e+02 -3.18057e+02        00000 
-9.49191e+01 -3.15813e+02        00000 
-8.24482e+01 -3.13366e+02        00000 
-7.18956e+01 -3.10773e+02        00000 
-6.18041e+01 -3.08199e+02        00000 
-5.37987e+01 -3.05814e+02        00000 
-4.65910e+01 -3.03789e+02        00000 
-3.98027e+01 -3.02417e+02        00000 
-3.22936e+01 -3.02258e+02        00000 
-2.59422e+01 -3.03001e+02        00000 
-1.98682e+01 -3.03388e+02        00000 
-1.37568e+01 -3.02695e+02        00000 
-5.58290e+00 -3.02743e+02        00000 
 1.48811e+00 -3.03558e+02        00000 
 9.86442e+00 -3.03313e+02        00000 
 1.85117e+01 -3.01995e+02        00000 
 2.88180e+01 -3.02108e+02        00000 
 3.89870e+01 -3.03423e+02        00000 
 5.01072e+01 -3.04788e+02        00000 
 6.15566e+01 -3.06828e+02        00000 
 7.53203e+01 -3.09818e+02        00000 
 8.97815e+01 -3.11895e+02        00000 
 1.05691e+02 -3.14241e+02        00000 
 1.24238e+02 -3.17032e+02        00000 
 1.44253e+02 -3.18374e+02        00000 
 1.67844e+02 -3.19924e+02        00000 
 1.93137e+02 -3.21815e+02        00000 
-1.67829e+02 -3.65063e+02        00000 
-1.46278e+02 -3.66047e+02        00000 
-1.28510e+02 -3.66845e+02        00000 
-1.12932e+02 -3.66256e+02        00000 
-9.89736e+01 -3.65019e+02        00000 
-8.66705e+01 -3.63986e+02        00000 
-7.66786e+01 -3.62964e+02        00000 
-6.66376e+01 -3.61105e+02        00000 
-5.86576e+01 -3.60430e+02        00000 
-5.15800e+01 -3.60000e+02        00000 
-4.31009e+01 -3.60152e+02        00000 
-3.55133e+01 -3.59670e+02        00000 
-2.76633e+01 -3.58504e+02        00000 
-2.10286e+01 -3.58242e+02        00000 
-1.35581e+01 -3.59582e+02        00000 
-5.86571e+00 -3.60210e+02        00000 
 2.86668e+00 -3.59973e+02        00000 
 1.10978e+01 -3.60821e+02        00000 
 2.07984e+01 -3.63074e+02        00000 
 3.08648e+01 -3.64172e+02        00000 
 4.27187e+01 -3.63796e+02        00000 
 5.36831e+01 -3.63915e+02        00000 
 6.52551e+01 -3.65784e+02        00000 
 7.92039e+01 -3.68179e+02        00000 
 9.33216e+01 -3.69357e+02        00000 
 1.10782e+02 -3.70546e+02        00000 
 1.28363e+02 -3.71398e+02        00000 
 1.48120e+02 -3.72277e+02        00000 
 1.69039e+02 -3.72028e+02        00000 
 1.93512e+02 -3.71852e+02        00000 
-1.56610e+02 -4.08166e+02        00000 
-1.39796e+02 -4.09355e+02        00000 
-1.24256e+02 -4.10461e+02        00000 
-1.10457e+02 -4.11667e+02        00000 
-9.81078e+01 -4.11992e+02        00000 
-8.65896e+01 -4.12171e+02        00000 
-7.64541e+01 -4.12364e+02        00000 
-6.74119e+01 -4.12184e+02        00000 
-5.78089e+01 -4.12189e+02        00000 
-5.06006e+01 -4.13416e+02        00000 
-4.26817e+01 -4.14250e+02        00000 
-3.53551e+01 -4.14894e+02        00000 
-2.79631e+01 -4.14635e+02        00000 
-1.95295e+01 -4.15339e+02        00000 
-1.22670e+01 -4.17104e+02        00000 
-6.27522e+00 -4.17818e+02        00000 
 1.78265e+00 -4.17766e+02        00000 
 1.10475e+01 -4.18398e+02        00000 
 2.04952e+01 -4.20220e+02        00000 
 3.01424e+01 -4.21422e+02        00000 
 4.15825e+01 -4.21478e+02        00000 
 5.18956e+01 -4.21212e+02        00000 
 6.57370e+01 -4.21963e+02        00000 
 7.86417e+01 -4.21704e+02        00000 
 9.27550e+01 -4.22261e+02        00000 
 1.08301e+02 -4.23234e+02        00000 
 1.24839e+02 -4.22389e+02        00000 
 1.43158e+02 -4.21756e+02        00000 
 1.63119e+02 -4.21423e+02        00000 
 1.84284e+02 -4.18444e+02        00000 
-1.45783e+02 -4.44314e+02        00000 
-1.28527e+02 -4.46674e+02        00000 
-1.14841e+02 -4.48868e+02        00000 
-1.02673e+02 -4.50538e+02        00000 
-9.07038e+01 -4.52358e+02        00000 
-8.06630e+01 -4.53310e+02        00000 
-7.07595e+01 -4.54461e+02        00000 
-6.38861e+01 -4.56514e+02        00000 
-5.45029e+01 -4.58139e+02        00000 
-4.63792e+01 -4.59542e+02        00000 
-4.01791e+01 -4.60381e+02        00000 
-3.25024e+01 -4.60840e+02        00000 
-2.50645e+01 -4.61575e+02        00000 
-1.89382e+01 -4.62970e+02        00000 
-1.26360e+01 -4.64750e+02        00000 
-4.61270e+00 -4.65863e+02        00000 
 2.34195e+00 -4.66430e+02        00000 
 9.88605e+00 -4.67745e+02        00000 
 1.89273e+01 -4.69256e+02        00000 
 2.90631e+01 -4.70363e+02        00000 
 3.75509e+01 -4.70920e+02        00000 
 4.85402e+01 -4.71216e+02        00000 
 6.18082e+01 -4.70227e+02        00000 
 7.25567e+01 -4.69668e+02        00000 
 8.63259e+01 -4.69940e+02        00000 
 9.97087e+01 -4.68809e+02        00000 
 1.16753e+02 -4.68829e+02        00000 
 1.32398e+02 -4.66812e+02        00000 
 1.51141e+02 -4.64199e+02        00000 
 1.70600e+02 -4.62846e+02        00000 
-1.25529e+02 -4.76661e+02        00000 
-1.13276e+02 -4.79355e+02        00000 
-1.00680e+02 -4.83064e+02        00000 
-8.94912e+01 -4.85040e+02        00000 
-7.96540e+01 -4.87861e+02        00000 
-7.14160e+01 -4.90085e+02        00000 
-6.28299e+01 -4.91463e+02        00000 
-5.49479e+01 -4.94219e+02        00000 
-4.88844e+01 -4.97004e+02        00000 
-4.14387e+01 -4.98887e+02        00000 
-3.58289e+01 -5.00516e+02        00000 
-2.91334e+01 -5.01866e+02        00000 
-2.23757e+01 -5.03401e+02        00000 
-1.73100e+01 -5.05197e+02        00000 
-1.11047e+01 -5.07939e+02        00000 
-4.08908e+00 -5.09135e+02        00000 
 3.21835e+00 -5.09418e+02        00000 
 9.11152e+00 -5.10380e+02        00000 
 1.70880e+01 -5.11570e+02        00000 
 2.60435e+01 -5.12944e+02        00000 
 3.35600e+01 -5.13689e+02        00000 
 4.35840e+01 -5.14338e+02        00000 
 5.22753e+01 -5.12960e+02        00000 
 6.31734e+01 -5.11848e+02        00000 
 7.63554e+01 -5.11922e+02        00000 
 8.82683e+01 -5.10465e+02        00000 
 1.00903e+02 -5.08762e+02        00000 
 1.17217e+02 -5.06753e+02        00000 
 1.32934e+02 -5.03498e+02        00000 
 1.51108e+02 -5.00179e+02        00000 
-1.07414e+02 -5.02056e+02        00000 
-9.37719e+01 -5.06739e+02        00000 
-8.27939e+01 -5.10146e+02        00000 
-7.36679e+01 -5.14178e+02        00000 
-6.57430e+01 -5.16471e+02        00000 
-5.81048e+01 -5.19869e+02        00000 
-5.20242e+01 -5.22915e+02        00000 
-4.42645e+01 -5.25722e+02        00000 
-3.98011e+01 -5.28011e+02        00000 
-3.38742e+01 -5.30157e+02        00000 
-2.87991e+01 -5.31645e+02        00000 
-2.39534e+01 -5.33552e+02        00000 
-1.92275e+01 -5.35429e+02        00000 
-1.37639e+01 -5.37936e+02        00000 
-8.42228e+00 -5.40377e+02        00000 
-4.50804e+00 -5.42029e+02        00000 
 1.49240e+00 -5.43547e+02        00000 
 7.99582e+00 -5.44588e+02        00000 
 1.41551e+01 -5.45868e+02        00000 
 2.01361e+01 -5.47096e+02        00000 
 2.72152e+01 -5.48346e+02        00000 
 3.59565e+01 -5.48903e+02        00000 
 4.23007e+01 -5.48509e+02        00000 
 5.29590e+01 -5.47704e+02        00000 
 6.19636e+01 -5.45793e+02        00000 
 7.29995e+01 -5.44671e+02        00000 
 8.40354e+01 -5.42358e+02        00000 
 9.71641e+01 -5.39908e+02        00000 
 1.10323e+02 -5.36304e+02        00000 
 1.24930e+02 -5.31113e+02        00000 
-7.79851e+01 -5.23717e+02        00000 
-6.97421e+01 -5.29363e+02        00000 
-6.12311e+01 -5.32651e+02        00000 
-5.50754e+01 -5.36883e+02        00000 
-4.89524e+01 -5.39895e+02        00000 
-4.24425e+01 -5.42424e+02        00000 
-3.82046e+01 -5.46445e+02        00000 
-3.34039e+01 -5.49337e+02        00000 
-2.95968e+01 -5.52584e+02        00000 
-2.48856e+01 -5.55580e+02        00000 
-2.05176e+01 -5.57500e+02        00000 
-1.85122e+01 -5.58700e+02        00000 
-1.43473e+01 -5.61593e+02        00000 
-1.00951e+01 -5.64580e+02        00000 
-6.74011e+00 -5.66547e+02        00000 
-2.55269e+00 -5.68631e+02        00000 
 3.67755e-01 -5.69939e+02        00000 
 5.69501e+00 -5.71197e+02        00000 
 1.11897e+01 -5.72381e+02        00000 
 1.44427e+01 -5.74099e+02        00000 
 2.00555e+01 -5.75510e+02        00000 
 2.63448e+01 -5.75528e+02        00000 
 3.18352e+01 -5.74935e+02        00000 
 3.91458e+01 -5.74151e+02        00000 
 4.54168e+01 -5.72884e+02        00000 
 5.43757e+01 -5.71155e+02        00000 
 6.34978e+01 -5.68829e+02        00000 
 7.16385e+01 -5.65861e+02        00000 
 8.26060e+01 -5.61898e+02        00000 
 9.43563e+01 -5.56604e+02        00000 
-5.06235e+01 -5.38842e+02        00000 
-4.31228e+01 -5.44118e+02        00000 
-3.75920e+01 -5.48004e+02        00000 
-3.42398e+01 -5.51735e+02        00000 
-3.05530e+01 -5.55970e+02        00000 
-2.62339e+01 -5.59227e+02        00000 
-2.32231e+01 -5.62727e+02        00000 
-2.08529e+01 -5.65584e+02        00000 
-1.76807e+01 -5.68524e+02        00000 
-1.55676e+01 -5.71616e+02        00000 
-1.28789e+01 -5.73282e+02        00000 
-1.09049e+01 -5.75964e+02        00000 
-8.69184e+00 -5.78843e+02        00000 
-5.83945e+00 -5.81036e+02        00000 
-3.40467e+00 -5.83475e+02        00000 
-1.40294e+00 -5.85399e+02        00000 
 1.22190e+00 -5.87590e+02        00000 
 3.97899e+00 -5.89551e+02        00000 
 7.01753e+00 -5.90196e+02        00000 
 1.02591e+01 -5.91404e+02        00000 
 1.34491e+01 -5.93483e+02        00000 
 1.61078e+01 -5.93558e+02        00000 
 2.10271e+01 -5.93069e+02        00000 
 2.44356e+01 -5.92335e+02        00000 
 2.83554e+01 -5.91152e+02        00000 
 3.40629e+01 -5.89354e+02        00000 
 4.01840e+01 -5.87220e+02        00000 
 4.45387e+01 -5.83972e+02        00000 
 5.10697e+01 -5.79194e+02        00000 
 5.84686e+01 -5.73909e+02        00000 
-1.55878e+01 -5.46516e+02        00000 
-1.47958e+01 -5.52900e+02        00000 
-1.27281e+01 -5.56549e+02        00000 
-1.11093e+01 -5.60521e+02        00000 
-1.02863e+01 -5.64025e+02        00000 
-9.13771e+00 -5.67913e+02        00000 
-7.85377e+00 -5.70843e+02        00000 
-7.26796e+00 -5.73984e+02        00000 
-5.68436e+00 -5.77541e+02        00000 
-5.39867e+00 -5.80181e+02        00000 
-4.65799e+00 -5.82425e+02        00000 
-2.98879e+00 -5.84665e+02        00000 
-3.02139e+00 -5.87529e+02        00000 
-2.08891e+00 -5.90429e+02        00000 
-7.16179e-01 -5.92323e+02        00000 
-9.46015e-01 -5.94389e+02        00000 
 9.98013e-01 -5.96648e+02        00000 
 1.78103e+00 -5.98470e+02        00000 
 1.95277e+00 -5.99682e+02        00000 
 3.95755e+00 -6.01077e+02        00000 
 4.60371e+00 -6.02570e+02        00000 
 5.36967e+00 -6.02918e+02        00000 
 7.48395e+00 -6.02592e+02        00000 
 8.57744e+00 -6.01882e+02        00000 
 9.71700e+00 -6.00675e+02        00000 
 1.15368e+01 -5.99086e+02        00000 
 1.27421e+01 -5.96702e+02        00000 
 1.54431e+01 -5.93252e+02        00000 
 1.77244e+01 -5.88868e+02        00000 
 1.96818e+01 -5.83061e+02        00000 
 1.55896e+01 -5.46574e+02        00000 
 1.48554e+01 -5.52752e+02        00000 
 1.27290e+01 -5.56302e+02        00000 
 1.11347e+01 -5.60279e+02        00000 
 1.02644e+01 -5.63634e+02        00000 
 9.09623e+00 -5.67884e+02        00000 
 7.86147e+00 -5.70836e+02        00000 
 7.26844e+00 -5.73860e+02        00000 
 5.68257e+00 -5.77515e+02        00000 
 5.39888e+00 -5.80070e+02        00000 
 4.64827e+00 -5.82359e+02        00000 
 2.98342e+00 -5.84584e+02        00000 
 3.01273e+00 -5.87447e+02        00000 
 2.08072e+00 -5.90360e+02        00000 
 7.08470e-01 -5.92249e+02        00000 
 9.36396e-01 -5.94311e+02        00000 
-1.00890e+00 -5.96576e+02        00000 
-1.79248e+00 -5.98401e+02        00000 
-1.96527e+00 -5.99614e+02        00000 
-3.97325e+00 -6.01008e+02        00000 
-4.62212e+00 -6.02512e+02        00000 
-5.38771e+00 -6.02858e+02        00000 
-7.50483e+00 -6.02532e+02        00000 
-8.58581e+00 -6.01841e+02        00000 
-9.74039e+00 -6.00528e+02        00000 
-1.15565e+01 -5.99064e+02        00000 
-1.27564e+01 -5.96591e+02        00000 
-1.54560e+01 -5.93194e+02        00000 
-1.77494e+01 -5.88819e+02        00000 
-1.96830e+01 -5.83086e+02        00000 
 5.07166e+01 -5.38781e+02        00000 
 4.31178e+01 -5.44205e+02        00000 
 3.77595e+01 -5.48134e+02        00000 
 3.44050e+01 -5.51973e+02        00000 
 3.07988e+01 -5.56004e+02        00000 
 2.65065e+01 -5.59595e+02        00000 
 2.33985e+01 -5.62853e+02        00000 
 2.09480e+01 -5.65689e+02        00000 
 1.77195e+01 -5.68741e+02        00000 
 1.55329e+01 -5.71764e+02        00000 
 1.27696e+01 -5.73471e+02        00000 
 1.06983e+01 -5.76139e+02        00000 
 8.39009e+00 -5.79002e+02        00000 
 5.44077e+00 -5.81224e+02        00000 
 2.91509e+00 -5.83642e+02        00000 
 8.24368e-01 -5.85550e+02        00000 
-1.88402e+00 -5.87750e+02        00000 