<?xml version="1.0" encoding="utf-8"?>
<VTKFile byte_order="LittleEndian" type="UnstructuredGrid" version="0.1">
   <UnstructuredGrid>
      <Piece NumberOfCells="324" NumberOfPoints="181">
         <Points>
            <DataArray Name="Points" NumberOfComponents="3" format="ascii" type="Float32">
0.0000 1.0000 0.0000
0.0000 1.1111 0.0000
0.0000 1.2222 0.0000
0.0000 1.3333 0.0000
0.0000 1.4444 0.0000
0.0000 1.5556 0.0000
0.0000 1.6667 0.0000
0.0000 1.7778 0.0000
0.0000 1.8889 0.0000
0.0000 2.0000 0.0000
0.2222 1.0000 0.0000
0.2222 1.1111 0.0000
0.2222 1.2222 0.0000
0.2222 1.3333 0.0000
0.2222 1.4444 0.0000
0.2222 1.5556 0.0000
0.2222 1.6667 0.0000
0.2222 1.7778 0.0000
0.2222 1.8889 0.0000
0.2222 2.0000 0.0000
0.4444 1.0000 0.0000
0.4444 1.1111 0.0000
0.4444 1.2222 0.0000
0.4444 1.3333 0.0000
0.4444 1.4444 0.0000
0.4444 1.5556 0.0000
0.4444 1.6667 0.0000
0.4444 1.7778 0.0000
0.4444 1.8889 0.0000
0.4444 2.0000 0.0000
0.6667 1.0000 0.0000
0.6667 1.1111 0.0000
0.6667 1.2222 0.0000
0.6667 1.3333 0.0000
0.6667 1.4444 0.0000
0.6667 1.5556 0.0000
0.6667 1.6667 0.0000
0.6667 1.7778 0.0000
0.6667 1.8889 0.0000
0.6667 2.0000 0.0000
0.8889 1.0000 0.0000
0.8889 1.1111 0.0000
0.8889 1.2222 0.0000
0.8889 1.3333 0.0000
0.8889 1.4444 0.0000
0.8889 1.5556 0.0000
0.8889 1.6667 0.0000
0.8889 1.7778 0.0000
0.8889 1.8889 0.0000
0.8889 2.0000 0.0000
1.1111 1.0000 0.0000
1.1111 1.1111 0.0000
1.1111 1.2222 0.0000
1.1111 1.3333 0.0000
1.1111 1.4444 0.0000
1.1111 1.5556 0.0000
1.1111 1.6667 0.0000
1.1111 1.7778 0.0000
1.1111 1.8889 0.0000
1.1111 2.0000 0.0000
1.3333 1.0000 0.0000
1.3333 1.1111 0.0000
1.3333 1.2222 0.0000
1.3333 1.3333 0.0000
1.3333 1.4444 0.0000
1.3333 1.5556 0.0000
1.3333 1.6667 0.0000
1.3333 1.7778 0.0000
1.3333 1.8889 0.0000
1.3333 2.0000 0.0000
1.5556 1.0000 0.0000
1.5556 1.1111 0.0000
1.5556 1.2222 0.0000
1.5556 1.3333 0.0000
1.5556 1.4444 0.0000
1.5556 1.5556 0.0000
1.5556 1.6667 0.0000
1.5556 1.7778 0.0000
1.5556 1.8889 0.0000
1.5556 2.0000 0.0000
1.7778 1.0000 0.0000
1.7778 1.1111 0.0000
1.7778 1.2222 0.0000
1.7778 1.3333 0.0000
1.7778 1.4444 0.0000
1.7778 1.5556 0.0000
1.7778 1.6667 0.0000
1.7778 1.7778 0.0000
1.7778 1.8889 0.0000
1.7778 2.0000 0.0000
2.0000 1.0000 0.0000
2.0000 1.1111 0.0000
2.0000 1.2222 0.0000
2.0000 1.3333 0.0000
2.0000 1.4444 0.0000
2.0000 1.5556 0.0000
2.0000 1.6667 0.0000
2.0000 1.7778 0.0000
2.0000 1.8889 0.0000
2.0000 2.0000 0.0000
0.1111 1.0556 0.0000
0.1111 1.1667 0.0000
0.1111 1.2778 0.0000
0.1111 1.3889 0.0000
0.1111 1.5000 0.0000
0.1111 1.6111 0.0000
0.1111 1.7222 0.0000
0.1111 1.8333 0.0000
0.1111 1.9444 0.0000
0.3333 1.0556 0.0000
0.3333 1.1667 0.0000
0.3333 1.2778 0.0000
0.3333 1.3889 0.0000
0.3333 1.5000 0.0000
0.3333 1.6111 0.0000
0.3333 1.7222 0.0000
0.3333 1.8333 0.0000
0.3333 1.9444 0.0000
0.5556 1.0556 0.0000
0.5556 1.1667 0.0000
0.5556 1.2778 0.0000
0.5556 1.3889 0.0000
0.5556 1.5000 0.0000
0.5556 1.6111 0.0000
0.5556 1.7222 0.0000
0.5556 1.8333 0.0000
0.5556 1.9444 0.0000
0.7778 1.0556 0.0000
0.7778 1.1667 0.0000
0.7778 1.2778 0.0000
0.7778 1.3889 0.0000
0.7778 1.5000 0.0000
0.7778 1.6111 0.0000
0.7778 1.7222 0.0000
0.7778 1.8333 0.0000
0.7778 1.9444 0.0000
1.0000 1.0556 0.0000
1.0000 1.1667 0.0000
1.0000 1.2778 0.0000
1.0000 1.3889 0.0000
1.0000 1.5000 0.0000
1.0000 1.6111 0.0000
1.0000 1.7222 0.0000
1.0000 1.8333 0.0000
1.0000 1.9444 0.0000
1.2222 1.0556 0.0000
1.2222 1.1667 0.0000
1.2222 1.2778 0.0000
1.2222 1.3889 0.0000
1.2222 1.5000 0.0000
1.2222 1.6111 0.0000
1.2222 1.7222 0.0000
1.2222 1.8333 0.0000
1.2222 1.9444 0.0000
1.4444 1.0556 0.0000
1.4444 1.1667 0.0000
1.4444 1.2778 0.0000
1.4444 1.3889 0.0000
1.4444 1.5000 0.0000
1.4444 1.6111 0.0000
1.4444 1.7222 0.0000
1.4444 1.8333 0.0000
1.4444 1.9444 0.0000
1.6667 1.0556 0.0000
1.6667 1.1667 0.0000
1.6667 1.2778 0.0000
1.6667 1.3889 0.0000
1.6667 1.5000 0.0000
1.6667 1.6111 0.0000
1.6667 1.7222 0.0000
1.6667 1.8333 0.0000
1.6667 1.9444 0.0000
1.8889 1.0556 0.0000
1.8889 1.1667 0.0000
1.8889 1.2778 0.0000
1.8889 1.3889 0.0000
1.8889 1.5000 0.0000
1.8889 1.6111 0.0000
1.8889 1.7222 0.0000
1.8889 1.8333 0.0000
1.8889 1.9444 0.0000</DataArray>
         </Points>
         <Cells>
            <DataArray Name="connectivity" format="ascii" type="Int32">
 1 0 100
 2 1 101
 3 2 102
 4 3 103
 5 4 104
 6 5 105
 7 6 106
 8 7 107
 9 8 108
 11 10 109
 12 11 110
 13 12 111
 14 13 112
 15 14 113
 16 15 114
 17 16 115
 18 17 116
 19 18 117
 21 20 118
 22 21 119
 23 22 120
 24 23 121
 25 24 122
 26 25 123
 27 26 124
 28 27 125
 29 28 126
 31 30 127
 32 31 128
 33 32 129
 34 33 130
 35 34 131
 36 35 132
 37 36 133
 38 37 134
 39 38 135
 41 40 136
 42 41 137
 43 42 138
 44 43 139
 45 44 140
 46 45 141
 47 46 142
 48 47 143
 49 48 144
 51 50 145
 52 51 146
 53 52 147
 54 53 148
 55 54 149
 56 55 150
 57 56 151
 58 57 152
 59 58 153
 61 60 154
 62 61 155
 63 62 156
 64 63 157
 65 64 158
 66 65 159
 67 66 160
 68 67 161
 69 68 162
 71 70 163
 72 71 164
 73 72 165
 74 73 166
 75 74 167
 76 75 168
 77 76 169
 78 77 170
 79 78 171
 81 80 172
 82 81 173
 83 82 174
 84 83 175
 85 84 176
 86 85 177
 87 86 178
 88 87 179
 89 88 180
 11 1 100
 12 2 101
 13 3 102
 14 4 103
 15 5 104
 16 6 105
 17 7 106
 18 8 107
 19 9 108
 21 11 109
 22 12 110
 23 13 111
 24 14 112
 25 15 113
 26 16 114
 27 17 115
 28 18 116
 29 19 117
 31 21 118
 32 22 119
 33 23 120
 34 24 121
 35 25 122
 36 26 123
 37 27 124
 38 28 125
 39 29 126
 41 31 127
 42 32 128
 43 33 129
 44 34 130
 45 35 131
 46 36 132
 47 37 133
 48 38 134
 49 39 135
 51 41 136
 52 42 137
 53 43 138
 54 44 139
 55 45 140
 56 46 141
 57 47 142
 58 48 143
 59 49 144
 61 51 145
 62 52 146
 63 53 147
 64 54 148
 65 55 149
 66 56 150
 67 57 151
 68 58 152
 69 59 153
 71 61 154
 72 62 155
 73 63 156
 74 64 157
 75 65 158
 76 66 159
 77 67 160
 78 68 161
 79 69 162
 81 71 163
 82 72 164
 83 73 165
 84 74 166
 85 75 167
 86 76 168
 87 77 169
 88 78 170
 89 79 171
 91 81 172
 92 82 173
 93 83 174
 94 84 175
 95 85 176
 96 86 177
 97 87 178
 98 88 179
 99 89 180
 10 11 100
 11 12 101
 12 13 102
 13 14 103
 14 15 104
 15 16 105
 16 17 106
 17 18 107
 18 19 108
 20 21 109
 21 22 110
 22 23 111
 23 24 112
 24 25 113
 25 26 114
 26 27 115
 27 28 116
 28 29 117
 30 31 118
 31 32 119
 32 33 120
 33 34 121
 34 35 122
 35 36 123
 36 37 124
 37 38 125
 38 39 126
 40 41 127
 41 42 128
 42 43 129
 43 44 130
 44 45 131
 45 46 132
 46 47 133
 47 48 134
 48 49 135
 50 51 136
 51 52 137
 52 53 138
 53 54 139
 54 55 140
 55 56 141
 56 57 142
 57 58 143
 58 59 144
 60 61 145
 61 62 146
 62 63 147
 63 64 148
 64 65 149
 65 66 150
 66 67 151
 67 68 152
 68 69 153
 70 71 154
 71 72 155
 72 73 156
 73 74 157
 74 75 158
 75 76 159
 76 77 160
 77 78 161
 78 79 162
 80 81 163
 81 82 164
 82 83 165
 83 84 166
 84 85 167
 85 86 168
 86 87 169
 87 88 170
 88 89 171
 90 91 172
 91 92 173
 92 93 174
 93 94 175
 94 95 176
 95 96 177
 96 97 178
 97 98 179
 98 99 180
 0 10 100
 1 11 101
 2 12 102
 3 13 103
 4 14 104
 5 15 105
 6 16 106
 7 17 107
 8 18 108
 10 20 109
 11 21 110
 12 22 111
 13 23 112
 14 24 113
 15 25 114
 16 26 115
 17 27 116
 18 28 117
 20 30 118
 21 31 119
 22 32 120
 23 33 121
 24 34 122
 25 35 123
 26 36 124
 27 37 125
 28 38 126
 30 40 127
 31 41 128
 32 42 129
 33 43 130
 34 44 131
 35 45 132
 36 46 133
 37 47 134
 38 48 135
 40 50 136
 41 51 137
 42 52 138
 43 53 139
 44 54 140
 45 55 141
 46 56 142
 47 57 143
 48 58 144
 50 60 145
 51 61 146
 52 62 147
 53 63 148
 54 64 149
 55 65 150
 56 66 151
 57 67 152
 58 68 153
 60 70 154
 61 71 155
 62 72 156
 63 73 157
 64 74 158
 65 75 159
 66 76 160
 67 77 161
 68 78 162
 70 80 163
 71 81 164
 72 82 165
 73 83 166
 74 84 167
 75 85 168
 76 86 169
 77 87 170
 78 88 171
 80 90 172
 81 91 173
 82 92 174
 83 93 175
 84 94 176
 85 95 177
 86 96 178
 87 97 179
 88 98 180</DataArray>
            <DataArray Name="offsets" format="ascii" type="Int32">3 6 9 12 15 18 21 24 27 30 33 36 39 42 45 48 51 54 57 60 63 66 69 72 75 78 81 84 87 90 93 96 99 102 105 108 111 114 117 120 123 126 129 132 135 138 141 144 147 150 153 156 159 162 165 168 171 174 177 180 183 186 189 192 195 198 201 204 207 210 213 216 219 222 225 228 231 234 237 240 243 246 249 252 255 258 261 264 267 270 273 276 279 282 285 288 291 294 297 300 303 306 309 312 315 318 321 324 327 330 333 336 339 342 345 348 351 354 357 360 363 366 369 372 375 378 381 384 387 390 393 396 399 402 405 408 411 414 417 420 423 426 429 432 435 438 441 444 447 450 453 456 459 462 465 468 471 474 477 480 483 486 489 492 495 498 501 504 507 510 513 516 519 522 525 528 531 534 537 540 543 546 549 552 555 558 561 564 567 570 573 576 579 582 585 588 591 594 597 600 603 606 609 612 615 618 621 624 627 630 633 636 639 642 645 648 651 654 657 660 663 666 669 672 675 678 681 684 687 690 693 696 699 702 705 708 711 714 717 720 723 726 729 732 735 738 741 744 747 750 753 756 759 762 765 768 771 774 777 780 783 786 789 792 795 798 801 804 807 810 813 816 819 822 825 828 831 834 837 840 843 846 849 852 855 858 861 864 867 870 873 876 879 882 885 888 891 894 897 900 903 906 909 912 915 918 921 924 927 930 933 936 939 942 945 948 951 954 957 960 963 966 969 972 </DataArray>
            <DataArray Name="types" format="ascii" type="UInt8">5 5 5 5 5 5 5 5 5 5 5 5 5 5 5 5 5 5 5 5 5 5 5 5 5 5 5 5 5 5 5 5 5 5 5 5 5 5 5 5 5 5 5 5 5 5 5 5 5 5 5 5 5 5 5 5 5 5 5 5 5 5 5 5 5 5 5 5 5 5 5 5 5 5 5 5 5 5 5 5 5 5 5 5 5 5 5 5 5 5 5 5 5 5 5 5 5 5 5 5 5 5 5 5 5 5 5 5 5 5 5 5 5 5 5 5 5 5 5 5 5 5 5 5 5 5 5 5 5 5 5 5 5 5 5 5 5 5 5 5 5 5 5 5 5 5 5 5 5 5 5 5 5 5 5 5 5 5 5 5 5 5 5 5 5 5 5 5 5 5 5 5 5 5 5 5 5 5 5 5 5 5 5 5 5 5 5 5 5 5 5 5 5 5 5 5 5 5 5 5 5 5 5 5 5 5 5 5 5 5 5 5 5 5 5 5 5 5 5 5 5 5 5 5 5 5 5 5 5 5 5 5 5 5 5 5 5 5 5 5 5 5 5 5 5 5 5 5 5 5 5 5 5 5 5 5 5 5 5 5 5 5 5 5 5 5 5 5 5 5 5 5 5 5 5 5 5 5 5 5 5 5 5 5 5 5 5 5 5 5 5 5 5 5 5 5 5 5 5 5 5 5 5 5 5 5 5 5 5 5 5 5 5 5 5 5 5 5 5 5 5 5 5 5 </DataArray>
         </Cells>
         <PointData>
            <DataArray Name="fValues" NumberOfComponents="3" format="ascii" type="Float64">
 1.59239e-17  2.00349e-17        00000 
 1.27899e-17 -3.65424e-18        00000 
 2.14557e-18  1.62612e-17        00000 
-1.98634e-18  2.40631e-17        00000 
       00000        00000        00000 
-1.03888e-17  5.29176e-18        00000 
-1.71646e-17  3.25223e-17        00000 
 3.35466e-18 -5.34471e-18        00000 
-2.14120e-17  4.92020e-17        00000 
-7.11324e-17 -5.05432e-17        00000 
 1.46896e-01  1.43081e-01        00000 
 7.28702e-02  1.17338e-01        00000 
 2.44870e-02  1.08093e-01        00000 
-1.37514e-02  1.08480e-01        00000 
-4.72762e-02  1.14976e-01        00000 
-7.96914e-02  1.26338e-01        00000 
-1.14433e-01  1.43112e-01        00000 
-1.56048e-01  1.67932e-01        00000 
-2.12987e-01  2.06712e-01        00000 
-3.16208e-01  2.70236e-01        00000 
 2.43978e-01  3.54494e-01        00000 
 1.28432e-01  3.44423e-01        00000 
 3.61048e-02  3.41667e-01        00000 
-3.93098e-02  3.46816e-01        00000 
-1.05730e-01  3.58882e-01        00000 
-1.69636e-01  3.77120e-01        00000 
-2.37469e-01  4.01419e-01        00000 
-3.16944e-01  4.32293e-01        00000 
-4.18271e-01  4.70072e-01        00000 
-5.43903e-01  5.10336e-01        00000 
 2.74824e-01  6.45296e-01        00000 
 1.32242e-01  6.49028e-01        00000 
 1.59296e-02  6.56849e-01        00000 
-8.31840e-02  6.68881e-01        00000 
-1.71736e-01  6.85489e-01        00000 
-2.55934e-01  7.06280e-01        00000 
-3.42289e-01  7.30107e-01        00000 
-4.38407e-01  7.55244e-01        00000 
-5.52235e-01  7.79652e-01        00000 
-6.93982e-01  8.03579e-01        00000 
 2.19275e-01  9.60521e-01        00000 
 7.71787e-02  9.80499e-01        00000 
-4.22380e-02  9.97251e-01        00000 
-1.47127e-01  1.01398e+00        00000 
-2.42112e-01  1.03272e+00        00000 
-3.30245e-01  1.05358e+00        00000 
-4.15332e-01  1.07475e+00        00000 
-5.03503e-01  1.09277e+00        00000 
-6.05055e-01  1.10376e+00        00000 
-7.34475e-01  1.10476e+00        00000 
 6.58258e-02  1.22483e+00        00000 
-3.88340e-02  1.25981e+00        00000 
-1.34903e-01  1.28197e+00        00000 
-2.26233e-01  1.29886e+00        00000 
-3.12032e-01  1.31455e+00        00000 
-3.89159e-01  1.33119e+00        00000 
-4.54621e-01  1.34735e+00        00000 
-5.10047e-01  1.35820e+00        00000 
-5.63639e-01  1.35609e+00        00000 
-6.33628e-01  1.33141e+00        00000 
-1.76812e-01  1.33990e+00        00000 
-2.05167e-01  1.38399e+00        00000 
-2.53801e-01  1.40899e+00        00000 
-3.12471e-01  1.42283e+00        00000 
-3.70503e-01  1.42953e+00        00000 
-4.20121e-01  1.42843e+00        00000 
-4.54422e-01  1.42407e+00        00000 
-4.60532e-01  1.41817e+00        00000 
-4.33146e-01  1.40101e+00        00000 
-3.82315e-01  1.35566e+00        00000 
-4.43735e-01  1.20388e+00        00000 
-3.87991e-01  1.23652e+00        00000 
-4.06002e-01  1.26083e+00        00000 
-4.17239e-01  1.28731e+00        00000 
-4.04749e-01  1.28317e+00        00000 
-3.87641e-01  1.24791e+00        00000 
-3.65346e-01  1.18427e+00        00000 
-3.33569e-01  1.10995e+00        00000 
-2.49655e-01  1.05836e+00        00000 
-4.13673e-02  1.00049e+00        00000 
-5.73375e-01  8.18380e-01        00000 
-5.06006e-01  7.99508e-01        00000 
-5.47424e-01  7.52689e-01        00000 
-6.05516e-01  7.12970e-01        00000 
-4.90043e-01  7.56470e-01        00000 
-2.11629e-01  6.89701e-01        00000 
-7.39371e-02  5.09484e-01        00000 
-1.07277e-01  3.93430e-01        00000 
-6.16536e-02  3.00723e-01        00000 
 1.13828e-01  2.80248e-01        00000 
-5.16255e-01  5.45729e-01        00000 
-4.42335e-01  4.36657e-01        00000 
-4.14703e-01  1.60142e-01        00000 
-3.91931e-01 -3.79062e-01        00000 
-3.25517e-01 -1.28252e+00        00000 
-2.27135e-01 -1.37773e+00        00000 
-1.28489e-01 -6.71129e-01        00000 
 2.69347e-02 -3.63885e-01        00000 
-2.05386e-02 -2.68632e-01        00000 
 3.69863e-02 -2.58020e-01        00000 
 5.06306e-02  5.87224e-02        00000 
 2.28649e-02  5.21171e-02        00000 
 2.81236e-03  5.07398e-02        00000 
-1.41539e-02  5.28498e-02        00000 
-2.98880e-02  5.74116e-02        00000 
-4.58322e-02  6.42658e-02        00000 
-6.36154e-02  7.41136e-02        00000 
-8.59117e-02  8.87605e-02        00000 
-1.21720e-01  1.10471e-01        00000 
 1.51399e-01  2.36067e-01        00000 
 6.71064e-02  2.23842e-01        00000 
 2.96818e-03  2.22755e-01        00000 
-5.05982e-02  2.29126e-01        00000 
-9.97688e-02  2.41299e-01        00000 
-1.49713e-01  2.58876e-01        00000 
-2.06198e-01  2.82738e-01        00000 
-2.77532e-01  3.15351e-01        00000 
-3.78362e-01  3.62432e-01        00000 
 1.98704e-01  4.95842e-01        00000 
 8.10544e-02  4.95696e-01        00000 
-1.58992e-02  5.01232e-01        00000 
-9.92734e-02  5.12818e-01        00000 
-1.76007e-01  5.29928e-01        00000 
-2.52716e-01  5.51929e-01        00000 
-3.36651e-01  5.78217e-01        00000 
-4.36176e-01  6.08240e-01        00000 
-5.57743e-01  6.39674e-01        00000 
 1.81230e-01  8.09078e-01        00000 
 4.90901e-02  8.20730e-01        00000 
-6.24770e-02  8.33774e-01        00000 
-1.60768e-01  8.49736e-01        00000 
-2.51060e-01  8.69239e-01        00000 
-3.38404e-01  8.91427e-01        00000 
-4.28974e-01  9.14148e-01        00000 
-5.30773e-01  9.34294e-01        00000 
-6.54763e-01  9.49544e-01        00000 
 8.74085e-02  1.11056e+00        00000 
-3.10614e-02  1.13269e+00        00000 
-1.36274e-01  1.14989e+00        00000 
-2.32524e-01  1.16649e+00        00000 
-3.20651e-01  1.18467e+00        00000 
-4.01056e-01  1.20421e+00        00000 
-4.76130e-01  1.22203e+00        00000 
-5.52878e-01  1.23294e+00        00000 
-6.44689e-01  1.23039e+00        00000 
-8.14980e-02  1.31090e+00        00000 
-1.53797e-01  1.33983e+00        00000 
-2.30353e-01  1.35789e+00        00000 
-3.06807e-01  1.37061e+00        00000 
-3.78056e-01  1.37995e+00        00000 
-4.37096e-01  1.38714e+00        00000 
-4.78358e-01  1.39309e+00        00000 
-5.01154e-01  1.39247e+00        00000 
-5.14421e-01  1.37381e+00        00000 
-2.97914e-01  1.30256e+00        00000 
-3.08109e-01  1.32935e+00        00000 
-3.42079e-01  1.35298e+00        00000 
-3.77211e-01  1.36539e+00        00000 
-4.03279e-01  1.35624e+00        00000 
-4.22157e-01  1.32869e+00        00000 
-4.23204e-01  1.28984e+00        00000 
-3.84464e-01  1.25469e+00        00000 
-2.87927e-01  1.22064e+00        00000 
-4.77797e-01  1.02269e+00        00000 
-4.67721e-01  1.01743e+00        00000 
-5.01209e-01  1.00641e+00        00000 
-4.68891e-01  1.02553e+00        00000 
-3.78796e-01  1.02310e+00        00000 
-2.82010e-01  9.23972e-01        00000 
-2.37012e-01  7.98060e-01        00000 
-2.08734e-01  7.14063e-01        00000 
-6.21455e-02  6.56600e-01        00000 
-5.15624e-01  6.60731e-01        00000 
-5.10443e-01  5.53213e-01        00000 
-5.71626e-01  3.28730e-01        00000 
-6.14415e-01 -4.18194e-02        00000 
-3.17952e-01 -3.08066e-01        00000 
-8.47418e-03 -2.04535e-01        00000 
 2.70417e-17 -5.40833e-17        00000 
 1.40002e-17        00000        00000 
 1.44544e-17  4.33631e-17        00000 </DataArray>
         </PointData>
         <CellData/>
      </Piece>
   </UnstructuredGrid>
</VTKFile>