<?xml version="1.0" encoding="utf-8"?>
<VTKFile byte_order="LittleEndian" type="UnstructuredGrid" version="0.1">
   <UnstructuredGrid>
      <Piece NumberOfCells="36" NumberOfPoints="25">
         <Points>
            <DataArray Name="Points" NumberOfComponents="3" format="ascii" type="Float32">
0.0000 1.0000 0.0000
0.0000 1.3333 0.0000
0.0000 1.6667 0.0000
0.0000 2.0000 0.0000
0.6667 1.0000 0.0000
0.6667 1.3333 0.0000
0.6667 1.6667 0.0000
0.6667 2.0000 0.0000
1.3333 1.0000 0.0000
1.3333 1.3333 0.0000
1.3333 1.6667 0.0000
1.3333 2.0000 0.0000
2.0000 1.0000 0.0000
2.0000 1.3333 0.0000
2.0000 1.6667 0.0000
2.0000 2.0000 0.0000
0.3333 1.1667 0.0000
0.3333 1.5000 0.0000
0.3333 1.8333 0.0000
1.0000 1.1667 0.0000
1.0000 1.5000 0.0000
1.0000 1.8333 0.0000
1.6667 1.1667 0.0000
1.6667 1.5000 0.0000
1.6667 1.8333 0.0000</DataArray>
         </Points>
         <Cells>
            <DataArray Name="connectivity" format="ascii" type="Int32">
 1 0 16
 2 1 17
 3 2 18
 5 4 19
 6 5 20
 7 6 21
 9 8 22
 10 9 23
 11 10 24
 5 1 16
 6 2 17
 7 3 18
 9 5 19
 10 6 20
 11 7 21
 13 9 22
 14 10 23
 15 11 24
 4 5 16
 5 6 17
 6 7 18
 8 9 19
 9 10 20
 10 11 21
 12 13 22
 13 14 23
 14 15 24
 0 4 16
 1 5 17
 2 6 18
 4 8 19
 5 9 20
 6 10 21
 8 12 22
 9 13 23
 10 14 24</DataArray>
            <DataArray Name="offsets" format="ascii" type="Int32">3 6 9 12 15 18 21 24 27 30 33 36 39 42 45 48 51 54 57 60 63 66 69 72 75 78 81 84 87 90 93 96 99 102 105 108 </DataArray>
            <DataArray Name="types" format="ascii" type="UInt8">5 5 5 5 5 5 5 5 5 5 5 5 5 5 5 5 5 5 5 5 5 5 5 5 5 5 5 5 5 5 5 5 5 5 5 5 </DataArray>
         </Cells>
         <PointData>
            <DataArray Name="fValues" NumberOfComponents="2" format="ascii" type="Float64">
       00000  3.00000e+00 
       00000 -7.06639e-17 
       00000  9.10801e-18 
       00000 -2.53033e-18 
       00000 -2.02963e-17 
       00000  3.91341e-17 
       00000 -6.57956e-18 
       00000  2.02470e-18 
       00000  5.09337e-18 
       00000 -4.47995e-18 
       00000  2.47162e-18 
       00000 -1.07671e-18 
       00000 -1.56127e-18 
       00000  1.35559e-18 
       00000 -8.92133e-19 
       00000  6.34353e-19 
       00000 -2.05804e-16 
       00000  7.25034e-18 
       00000 -5.05706e-19 
       00000 -4.86282e-18 
       00000 -7.63655e-18 
       00000  7.89988e-19 
       00000 -1.01934e-19 
       00000  3.86217e-19 
       00000 -2.84283e-19 </DataArray>
         </PointData>
         <CellData/>
      </Piece>
   </UnstructuredGrid>
</VTKFile>