<?xml version="1.0" encoding="utf-8"?>
<VTKFile byte_order="LittleEndian" type="UnstructuredGrid" version="0.1">
   <UnstructuredGrid>
      <Piece NumberOfCells="3364" NumberOfPoints="1741">
         <Points>
            <DataArray Name="Points" NumberOfComponents="3" format="ascii" type="Float32">
0.0000 0.0000 0.0000
0.0000 0.0690 0.0000
0.0000 0.1379 0.0000
0.0000 0.2069 0.0000
0.0000 0.2759 0.0000
0.0000 0.3448 0.0000
0.0000 0.4138 0.0000
0.0000 0.4828 0.0000
0.0000 0.5517 0.0000
0.0000 0.6207 0.0000
0.0000 0.6897 0.0000
0.0000 0.7586 0.0000
0.0000 0.8276 0.0000
0.0000 0.8966 0.0000
0.0000 0.9655 0.0000
0.0000 1.0345 0.0000
0.0000 1.1034 0.0000
0.0000 1.1724 0.0000
0.0000 1.2414 0.0000
0.0000 1.3103 0.0000
0.0000 1.3793 0.0000
0.0000 1.4483 0.0000
0.0000 1.5172 0.0000
0.0000 1.5862 0.0000
0.0000 1.6552 0.0000
0.0000 1.7241 0.0000
0.0000 1.7931 0.0000
0.0000 1.8621 0.0000
0.0000 1.9310 0.0000
0.0000 2.0000 0.0000
1.0345 0.0000 0.0000
1.0345 0.0690 0.0000
1.0345 0.1379 0.0000
1.0345 0.2069 0.0000
1.0345 0.2759 0.0000
1.0345 0.3448 0.0000
1.0345 0.4138 0.0000
1.0345 0.4828 0.0000
1.0345 0.5517 0.0000
1.0345 0.6207 0.0000
1.0345 0.6897 0.0000
1.0345 0.7586 0.0000
1.0345 0.8276 0.0000
1.0345 0.8966 0.0000
1.0345 0.9655 0.0000
1.0345 1.0345 0.0000
1.0345 1.1034 0.0000
1.0345 1.1724 0.0000
1.0345 1.2414 0.0000
1.0345 1.3103 0.0000
1.0345 1.3793 0.0000
1.0345 1.4483 0.0000
1.0345 1.5172 0.0000
1.0345 1.5862 0.0000
1.0345 1.6552 0.0000
1.0345 1.7241 0.0000
1.0345 1.7931 0.0000
1.0345 1.8621 0.0000
1.0345 1.9310 0.0000
1.0345 2.0000 0.0000
2.0690 0.0000 0.0000
2.0690 0.0690 0.0000
2.0690 0.1379 0.0000
2.0690 0.2069 0.0000
2.0690 0.2759 0.0000
2.0690 0.3448 0.0000
2.0690 0.4138 0.0000
2.0690 0.4828 0.0000
2.0690 0.5517 0.0000
2.0690 0.6207 0.0000
2.0690 0.6897 0.0000
2.0690 0.7586 0.0000
2.0690 0.8276 0.0000
2.0690 0.8966 0.0000
2.0690 0.9655 0.0000
2.0690 1.0345 0.0000
2.0690 1.1034 0.0000
2.0690 1.1724 0.0000
2.0690 1.2414 0.0000
2.0690 1.3103 0.0000
2.0690 1.3793 0.0000
2.0690 1.4483 0.0000
2.0690 1.5172 0.0000
2.0690 1.5862 0.0000
2.0690 1.6552 0.0000
2.0690 1.7241 0.0000
2.0690 1.7931 0.0000
2.0690 1.8621 0.0000
2.0690 1.9310 0.0000
2.0690 2.0000 0.0000
3.1034 0.0000 0.0000
3.1034 0.0690 0.0000
3.1034 0.1379 0.0000
3.1034 0.2069 0.0000
3.1034 0.2759 0.0000
3.1034 0.3448 0.0000
3.1034 0.4138 0.0000
3.1034 0.4828 0.0000
3.1034 0.5517 0.0000
3.1034 0.6207 0.0000
3.1034 0.6897 0.0000
3.1034 0.7586 0.0000
3.1034 0.8276 0.0000
3.1034 0.8966 0.0000
3.1034 0.9655 0.0000
3.1034 1.0345 0.0000
3.1034 1.1034 0.0000
3.1034 1.1724 0.0000
3.1034 1.2414 0.0000
3.1034 1.3103 0.0000
3.1034 1.3793 0.0000
3.1034 1.4483 0.0000
3.1034 1.5172 0.0000
3.1034 1.5862 0.0000
3.1034 1.6552 0.0000
3.1034 1.7241 0.0000
3.1034 1.7931 0.0000
3.1034 1.8621 0.0000
3.1034 1.9310 0.0000
3.1034 2.0000 0.0000
4.1379 0.0000 0.0000
4.1379 0.0690 0.0000
4.1379 0.1379 0.0000
4.1379 0.2069 0.0000
4.1379 0.2759 0.0000
4.1379 0.3448 0.0000
4.1379 0.4138 0.0000
4.1379 0.4828 0.0000
4.1379 0.5517 0.0000
4.1379 0.6207 0.0000
4.1379 0.6897 0.0000
4.1379 0.7586 0.0000
4.1379 0.8276 0.0000
4.1379 0.8966 0.0000
4.1379 0.9655 0.0000
4.1379 1.0345 0.0000
4.1379 1.1034 0.0000
4.1379 1.1724 0.0000
4.1379 1.2414 0.0000
4.1379 1.3103 0.0000
4.1379 1.3793 0.0000
4.1379 1.4483 0.0000
4.1379 1.5172 0.0000
4.1379 1.5862 0.0000
4.1379 1.6552 0.0000
4.1379 1.7241 0.0000
4.1379 1.7931 0.0000
4.1379 1.8621 0.0000
4.1379 1.9310 0.0000
4.1379 2.0000 0.0000
5.1724 0.0000 0.0000
5.1724 0.0690 0.0000
5.1724 0.1379 0.0000
5.1724 0.2069 0.0000
5.1724 0.2759 0.0000
5.1724 0.3448 0.0000
5.1724 0.4138 0.0000
5.1724 0.4828 0.0000
5.1724 0.5517 0.0000
5.1724 0.6207 0.0000
5.1724 0.6897 0.0000
5.1724 0.7586 0.0000
5.1724 0.8276 0.0000
5.1724 0.8966 0.0000
5.1724 0.9655 0.0000
5.1724 1.0345 0.0000
5.1724 1.1034 0.0000
5.1724 1.1724 0.0000
5.1724 1.2414 0.0000
5.1724 1.3103 0.0000
5.1724 1.3793 0.0000
5.1724 1.4483 0.0000
5.1724 1.5172 0.0000
5.1724 1.5862 0.0000
5.1724 1.6552 0.0000
5.1724 1.7241 0.0000
5.1724 1.7931 0.0000
5.1724 1.8621 0.0000
5.1724 1.9310 0.0000
5.1724 2.0000 0.0000
6.2069 0.0000 0.0000
6.2069 0.0690 0.0000
6.2069 0.1379 0.0000
6.2069 0.2069 0.0000
6.2069 0.2759 0.0000
6.2069 0.3448 0.0000
6.2069 0.4138 0.0000
6.2069 0.4828 0.0000
6.2069 0.5517 0.0000
6.2069 0.6207 0.0000
6.2069 0.6897 0.0000
6.2069 0.7586 0.0000
6.2069 0.8276 0.0000
6.2069 0.8966 0.0000
6.2069 0.9655 0.0000
6.2069 1.0345 0.0000
6.2069 1.1034 0.0000
6.2069 1.1724 0.0000
6.2069 1.2414 0.0000
6.2069 1.3103 0.0000
6.2069 1.3793 0.0000
6.2069 1.4483 0.0000
6.2069 1.5172 0.0000
6.2069 1.5862 0.0000
6.2069 1.6552 0.0000
6.2069 1.7241 0.0000
6.2069 1.7931 0.0000
6.2069 1.8621 0.0000
6.2069 1.9310 0.0000
6.2069 2.0000 0.0000
7.2414 0.0000 0.0000
7.2414 0.0690 0.0000
7.2414 0.1379 0.0000
7.2414 0.2069 0.0000
7.2414 0.2759 0.0000
7.2414 0.3448 0.0000
7.2414 0.4138 0.0000
7.2414 0.4828 0.0000
7.2414 0.5517 0.0000
7.2414 0.6207 0.0000
7.2414 0.6897 0.0000
7.2414 0.7586 0.0000
7.2414 0.8276 0.0000
7.2414 0.8966 0.0000
7.2414 0.9655 0.0000
7.2414 1.0345 0.0000
7.2414 1.1034 0.0000
7.2414 1.1724 0.0000
7.2414 1.2414 0.0000
7.2414 1.3103 0.0000
7.2414 1.3793 0.0000
7.2414 1.4483 0.0000
7.2414 1.5172 0.0000
7.2414 1.5862 0.0000
7.2414 1.6552 0.0000
7.2414 1.7241 0.0000
7.2414 1.7931 0.0000
7.2414 1.8621 0.0000
7.2414 1.9310 0.0000
7.2414 2.0000 0.0000
8.2759 0.0000 0.0000
8.2759 0.0690 0.0000
8.2759 0.1379 0.0000
8.2759 0.2069 0.0000
8.2759 0.2759 0.0000
8.2759 0.3448 0.0000
8.2759 0.4138 0.0000
8.2759 0.4828 0.0000
8.2759 0.5517 0.0000
8.2759 0.6207 0.0000
8.2759 0.6897 0.0000
8.2759 0.7586 0.0000
8.2759 0.8276 0.0000
8.2759 0.8966 0.0000
8.2759 0.9655 0.0000
8.2759 1.0345 0.0000
8.2759 1.1034 0.0000
8.2759 1.1724 0.0000
8.2759 1.2414 0.0000
8.2759 1.3103 0.0000
8.2759 1.3793 0.0000
8.2759 1.4483 0.0000
8.2759 1.5172 0.0000
8.2759 1.5862 0.0000
8.2759 1.6552 0.0000
8.2759 1.7241 0.0000
8.2759 1.7931 0.0000
8.2759 1.8621 0.0000
8.2759 1.9310 0.0000
8.2759 2.0000 0.0000
9.3103 0.0000 0.0000
9.3103 0.0690 0.0000
9.3103 0.1379 0.0000
9.3103 0.2069 0.0000
9.3103 0.2759 0.0000
9.3103 0.3448 0.0000
9.3103 0.4138 0.0000
9.3103 0.4828 0.0000
9.3103 0.5517 0.0000
9.3103 0.6207 0.0000
9.3103 0.6897 0.0000
9.3103 0.7586 0.0000
9.3103 0.8276 0.0000
9.3103 0.8966 0.0000
9.3103 0.9655 0.0000
9.3103 1.0345 0.0000
9.3103 1.1034 0.0000
9.3103 1.1724 0.0000
9.3103 1.2414 0.0000
9.3103 1.3103 0.0000
9.3103 1.3793 0.0000
9.3103 1.4483 0.0000
9.3103 1.5172 0.0000
9.3103 1.5862 0.0000
9.3103 1.6552 0.0000
9.3103 1.7241 0.0000
9.3103 1.7931 0.0000
9.3103 1.8621 0.0000
9.3103 1.9310 0.0000
9.3103 2.0000 0.0000
10.3448 0.0000 0.0000
10.3448 0.0690 0.0000
10.3448 0.1379 0.0000
10.3448 0.2069 0.0000
10.3448 0.2759 0.0000
10.3448 0.3448 0.0000
10.3448 0.4138 0.0000
10.3448 0.4828 0.0000
10.3448 0.5517 0.0000
10.3448 0.6207 0.0000
10.3448 0.6897 0.0000
10.3448 0.7586 0.0000
10.3448 0.8276 0.0000
10.3448 0.8966 0.0000
10.3448 0.9655 0.0000
10.3448 1.0345 0.0000
10.3448 1.1034 0.0000
10.3448 1.1724 0.0000
10.3448 1.2414 0.0000
10.3448 1.3103 0.0000
10.3448 1.3793 0.0000
10.3448 1.4483 0.0000
10.3448 1.5172 0.0000
10.3448 1.5862 0.0000
10.3448 1.6552 0.0000
10.3448 1.7241 0.0000
10.3448 1.7931 0.0000
10.3448 1.8621 0.0000
10.3448 1.9310 0.0000
10.3448 2.0000 0.0000
11.3793 0.0000 0.0000
11.3793 0.0690 0.0000
11.3793 0.1379 0.0000
11.3793 0.2069 0.0000
11.3793 0.2759 0.0000
11.3793 0.3448 0.0000
11.3793 0.4138 0.0000
11.3793 0.4828 0.0000
11.3793 0.5517 0.0000
11.3793 0.6207 0.0000
11.3793 0.6897 0.0000
11.3793 0.7586 0.0000
11.3793 0.8276 0.0000
11.3793 0.8966 0.0000
11.3793 0.9655 0.0000
11.3793 1.0345 0.0000
11.3793 1.1034 0.0000
11.3793 1.1724 0.0000
11.3793 1.2414 0.0000
11.3793 1.3103 0.0000
11.3793 1.3793 0.0000
11.3793 1.4483 0.0000
11.3793 1.5172 0.0000
11.3793 1.5862 0.0000
11.3793 1.6552 0.0000
11.3793 1.7241 0.0000
11.3793 1.7931 0.0000
11.3793 1.8621 0.0000
11.3793 1.9310 0.0000
11.3793 2.0000 0.0000
12.4138 0.0000 0.0000
12.4138 0.0690 0.0000
12.4138 0.1379 0.0000
12.4138 0.2069 0.0000
12.4138 0.2759 0.0000
12.4138 0.3448 0.0000
12.4138 0.4138 0.0000
12.4138 0.4828 0.0000
12.4138 0.5517 0.0000
12.4138 0.6207 0.0000
12.4138 0.6897 0.0000
12.4138 0.7586 0.0000
12.4138 0.8276 0.0000
12.4138 0.8966 0.0000
12.4138 0.9655 0.0000
12.4138 1.0345 0.0000
12.4138 1.1034 0.0000
12.4138 1.1724 0.0000
12.4138 1.2414 0.0000
12.4138 1.3103 0.0000
12.4138 1.3793 0.0000
12.4138 1.4483 0.0000
12.4138 1.5172 0.0000
12.4138 1.5862 0.0000
12.4138 1.6552 0.0000
12.4138 1.7241 0.0000
12.4138 1.7931 0.0000
12.4138 1.8621 0.0000
12.4138 1.9310 0.0000
12.4138 2.0000 0.0000
13.4483 0.0000 0.0000
13.4483 0.0690 0.0000
13.4483 0.1379 0.0000
13.4483 0.2069 0.0000
13.4483 0.2759 0.0000
13.4483 0.3448 0.0000
13.4483 0.4138 0.0000
13.4483 0.4828 0.0000
13.4483 0.5517 0.0000
13.4483 0.6207 0.0000
13.4483 0.6897 0.0000
13.4483 0.7586 0.0000
13.4483 0.8276 0.0000
13.4483 0.8966 0.0000
13.4483 0.9655 0.0000
13.4483 1.0345 0.0000
13.4483 1.1034 0.0000
13.4483 1.1724 0.0000
13.4483 1.2414 0.0000
13.4483 1.3103 0.0000
13.4483 1.3793 0.0000
13.4483 1.4483 0.0000
13.4483 1.5172 0.0000
13.4483 1.5862 0.0000
13.4483 1.6552 0.0000
13.4483 1.7241 0.0000
13.4483 1.7931 0.0000
13.4483 1.8621 0.0000
13.4483 1.9310 0.0000
13.4483 2.0000 0.0000
14.4828 0.0000 0.0000
14.4828 0.0690 0.0000
14.4828 0.1379 0.0000
14.4828 0.2069 0.0000
14.4828 0.2759 0.0000
14.4828 0.3448 0.0000
14.4828 0.4138 0.0000
14.4828 0.4828 0.0000
14.4828 0.5517 0.0000
14.4828 0.6207 0.0000
14.4828 0.6897 0.0000
14.4828 0.7586 0.0000
14.4828 0.8276 0.0000
14.4828 0.8966 0.0000
14.4828 0.9655 0.0000
14.4828 1.0345 0.0000
14.4828 1.1034 0.0000
14.4828 1.1724 0.0000
14.4828 1.2414 0.0000
14.4828 1.3103 0.0000
14.4828 1.3793 0.0000
14.4828 1.4483 0.0000
14.4828 1.5172 0.0000
14.4828 1.5862 0.0000
14.4828 1.6552 0.0000
14.4828 1.7241 0.0000
14.4828 1.7931 0.0000
14.4828 1.8621 0.0000
14.4828 1.9310 0.0000
14.4828 2.0000 0.0000
15.5172 0.0000 0.0000
15.5172 0.0690 0.0000
15.5172 0.1379 0.0000
15.5172 0.2069 0.0000
[...]
         <PointData>
            <DataArray Name="fValues" NumberOfComponents="3" format="ascii" type="Float64">
-1.50866e-15 -2.75171e-16        00000 
 2.75171e-16  1.10068e-15        00000 
 8.16329e-16  8.16329e-16        00000 
-9.78649e-16 -5.12829e-17        00000 
 1.29252e-15  6.80275e-16        00000 
-1.49185e-15 -1.25947e-15        00000 
 7.48302e-16  2.31293e-15        00000 
-5.55565e-16 -3.64109e-15        00000 
-1.36055e-16  4.08165e-16        00000 
 1.26291e-16  1.81211e-16        00000 
       00000  1.76871e-15        00000 
-4.27358e-18 -1.48720e-15        00000 
-6.80275e-17  1.63266e-15        00000 
-5.22587e-17 -1.29396e-15        00000 
 8.50343e-17 -2.72110e-16        00000 
-2.13679e-16  4.18810e-16        00000 
-3.40137e-17  2.85715e-15        00000 
 6.27269e-17 -1.61160e-15        00000 
-6.80275e-17 -2.85715e-15        00000 
 7.60696e-16 -2.90603e-16        00000 
-1.76871e-15  2.17688e-15        00000 
 2.45992e-15  1.29367e-15        00000 
-1.08844e-15 -5.44220e-16        00000 
 5.08556e-16 -1.19660e-16        00000 
 1.08844e-15  2.17688e-15        00000 
 9.69988e-16 -8.32605e-16        00000 
-2.04082e-15  2.99321e-15        00000 
 9.67630e-16 -2.08940e-15        00000 
-4.45971e-16 -4.80277e-16        00000 
 8.31428e-16 -2.03974e-15        00000 
-1.04036e+01 -1.50808e+01        00000 
-8.98174e+00 -1.48607e+01        00000 
-7.81060e+00 -1.46585e+01        00000 
-6.72114e+00 -1.44954e+01        00000 
-5.73578e+00 -1.43665e+01        00000 
-4.83349e+00 -1.42613e+01        00000 
-3.90342e+00 -1.41725e+01        00000 
-3.01348e+00 -1.41102e+01        00000 
-2.17396e+00 -1.40666e+01        00000 
-1.31122e+00 -1.40359e+01        00000 
-5.30691e-01 -1.40282e+01        00000 
 1.88932e-01 -1.40400e+01        00000 
 8.43250e-01 -1.40864e+01        00000 
 1.42719e+00 -1.41402e+01        00000 
 2.03407e+00 -1.42301e+01        00000 
 2.65242e+00 -1.43296e+01        00000 
 3.19673e+00 -1.44598e+01        00000 
 3.79255e+00 -1.45851e+01        00000 
 4.47690e+00 -1.47343e+01        00000 
 5.20941e+00 -1.48579e+01        00000 
 6.02125e+00 -1.50076e+01        00000 
 6.78791e+00 -1.51787e+01        00000 
 7.58328e+00 -1.53829e+01        00000 
 8.45229e+00 -1.56174e+01        00000 
 9.33015e+00 -1.59014e+01        00000 
 1.02996e+01 -1.62076e+01        00000 
 1.13683e+01 -1.65368e+01        00000 
 1.25656e+01 -1.68956e+01        00000 
 1.38846e+01 -1.72712e+01        00000 
 1.53367e+01 -1.76768e+01        00000 
-1.28743e+01 -3.85133e+01        00000 
-1.14765e+01 -3.85182e+01        00000 
-1.01254e+01 -3.85268e+01        00000 
-8.78200e+00 -3.85451e+01        00000 
-7.48036e+00 -3.85536e+01        00000 
-6.23601e+00 -3.85485e+01        00000 
-5.00563e+00 -3.85295e+01        00000 
-3.73625e+00 -3.85350e+01        00000 
-2.49630e+00 -3.85227e+01        00000 
-1.28757e+00 -3.85425e+01        00000 
-7.65553e-02 -3.85545e+01        00000 
 1.05937e+00 -3.85620e+01        00000 
 2.11421e+00 -3.85840e+01        00000 
 3.09644e+00 -3.86185e+01        00000 
 4.07966e+00 -3.86468e+01        00000 
 5.06490e+00 -3.86713e+01        00000 
 6.09675e+00 -3.87246e+01        00000 
 7.13767e+00 -3.87629e+01        00000 
 8.18596e+00 -3.88259e+01        00000 
 9.25655e+00 -3.88989e+01        00000 
 1.03443e+01 -3.89806e+01        00000 
 1.14577e+01 -3.90674e+01        00000 
 1.26098e+01 -3.91614e+01        00000 
 1.37810e+01 -3.92494e+01        00000 
 1.50154e+01 -3.93423e+01        00000 
 1.62925e+01 -3.94500e+01        00000 
 1.75805e+01 -3.95542e+01        00000 
 1.88687e+01 -3.96731e+01        00000 
 2.03098e+01 -3.97821e+01        00000 
 2.18132e+01 -3.98744e+01        00000 
-1.15810e+01 -6.08755e+01        00000 
-1.00502e+01 -6.09594e+01        00000 
-8.55821e+00 -6.10353e+01        00000 
-7.15171e+00 -6.11201e+01        00000 
-5.89651e+00 -6.11944e+01        00000 
-4.70343e+00 -6.13001e+01        00000 
-3.52917e+00 -6.14249e+01        00000 
-2.41923e+00 -6.15427e+01        00000 
-1.40596e+00 -6.16211e+01        00000 
-4.42977e-01 -6.16930e+01        00000 
 5.37852e-01 -6.17614e+01        00000 
 1.55492e+00 -6.18122e+01        00000 
 2.59618e+00 -6.18745e+01        00000 
 3.72360e+00 -6.19604e+01        00000 
 4.90992e+00 -6.20469e+01        00000 
 6.05179e+00 -6.21429e+01        00000 
 7.06399e+00 -6.22246e+01        00000 
 8.04831e+00 -6.22821e+01        00000 
 9.02525e+00 -6.23096e+01        00000 
 1.00553e+01 -6.23364e+01        00000 
 1.10888e+01 -6.23246e+01        00000 
 1.21001e+01 -6.23128e+01        00000 
 1.31087e+01 -6.23019e+01        00000 
 1.41893e+01 -6.23030e+01        00000 
 1.53489e+01 -6.22660e+01        00000 
 1.65854e+01 -6.22600e+01        00000 
 1.78947e+01 -6.21901e+01        00000 
 1.92319e+01 -6.21166e+01        00000 
 2.06093e+01 -6.20261e+01        00000 
 2.20150e+01 -6.19259e+01        00000 
-5.31173e+00 -8.13446e+01        00000 
-4.34934e+00 -8.15987e+01        00000 
-3.38880e+00 -8.18258e+01        00000 
-2.44956e+00 -8.20239e+01        00000 
-1.55831e+00 -8.21647e+01        00000 
-7.22799e-01 -8.22848e+01        00000 
 2.66021e-03 -8.23847e+01        00000 
 6.56994e-01 -8.24530e+01        00000 
 1.32854e+00 -8.25167e+01        00000 
 2.00890e+00 -8.25880e+01        00000 
 2.74214e+00 -8.26624e+01        00000 
 3.44328e+00 -8.27192e+01        00000 
 4.03841e+00 -8.27623e+01        00000 
 4.60360e+00 -8.27722e+01        00000 
 5.11146e+00 -8.27451e+01        00000 
 5.64634e+00 -8.26812e+01        00000 
 6.22440e+00 -8.25846e+01        00000 
 6.86145e+00 -8.24811e+01        00000 
 7.55899e+00 -8.23628e+01        00000 
 8.18890e+00 -8.22477e+01        00000 
 8.80303e+00 -8.21208e+01        00000 
 9.47740e+00 -8.19715e+01        00000 
 1.01646e+01 -8.18135e+01        00000 
 1.08670e+01 -8.16441e+01        00000 
 1.15480e+01 -8.14272e+01        00000 
 1.22080e+01 -8.12097e+01        00000 
 1.28781e+01 -8.09662e+01        00000 
 1.36208e+01 -8.07122e+01        00000 
 1.43710e+01 -8.04464e+01        00000 
 1.52552e+01 -8.01673e+01        00000 
 5.73181e+00 -8.88597e+01        00000 
 5.69263e+00 -8.91886e+01        00000 
 5.59751e+00 -8.94777e+01        00000 
 5.51699e+00 -8.97160e+01        00000 
 5.42566e+00 -8.99457e+01        00000 
 5.27615e+00 -9.01604e+01        00000 
 5.17498e+00 -9.03665e+01        00000 
 5.08834e+00 -9.05302e+01        00000 
 5.01735e+00 -9.06827e+01        00000 
 4.89539e+00 -9.08023e+01        00000 
 4.69256e+00 -9.08719e+01        00000 
 4.48949e+00 -9.08984e+01        00000 
 4.36712e+00 -9.09241e+01        00000 
 4.29489e+00 -9.09232e+01        00000 
 4.18584e+00 -9.09284e+01        00000 
 4.04804e+00 -9.09023e+01        00000 
 3.89221e+00 -9.08607e+01        00000 
 3.73477e+00 -9.07627e+01        00000 
 3.55939e+00 -9.06252e+01        00000 
 3.43448e+00 -9.04473e+01        00000 
 3.42942e+00 -9.02601e+01        00000 
 3.41311e+00 -9.00245e+01        00000 
 3.35420e+00 -8.97833e+01        00000 
 3.32626e+00 -8.95442e+01        00000 
 3.30376e+00 -8.92884e+01        00000 
 3.32638e+00 -8.90187e+01        00000 
 3.30578e+00 -8.87266e+01        00000 
 3.23953e+00 -8.83932e+01        00000 
 3.22124e+00 -8.80516e+01        00000 
 3.17562e+00 -8.76720e+01        00000 
 1.71854e+01 -8.11052e+01        00000 
 1.61907e+01 -8.14193e+01        00000 
 1.52235e+01 -8.17160e+01        00000 
 1.42262e+01 -8.20021e+01        00000 
 1.32828e+01 -8.22562e+01        00000 
 1.23395e+01 -8.24542e+01        00000 
 1.13402e+01 -8.26370e+01        00000 
 1.03135e+01 -8.28002e+01        00000 
 9.24313e+00 -8.29101e+01        00000 
 8.29326e+00 -8.30112e+01        00000 
 7.34543e+00 -8.31123e+01        00000 
 6.36644e+00 -8.31897e+01        00000 
 5.42514e+00 -8.32461e+01        00000 
 4.44678e+00 -8.32548e+01        00000 
 3.47313e+00 -8.32384e+01        00000 
 2.50749e+00 -8.31897e+01        00000 
 1.52230e+00 -8.30920e+01        00000 
 4.99417e-01 -8.29980e+01        00000 
-4.70308e-01 -8.29009e+01        00000 
-1.44405e+00 -8.27664e+01        00000 
-2.47835e+00 -8.25961e+01        00000 
-3.48369e+00 -8.24152e+01        00000 
-4.44554e+00 -8.22259e+01        00000 
-5.41032e+00 -8.20013e+01        00000 
-6.40222e+00 -8.17485e+01        00000 
-7.41276e+00 -8.14634e+01        00000 
-8.38390e+00 -8.11544e+01        00000 
-9.32225e+00 -8.08129e+01        00000 
-1.02911e+01 -8.04456e+01        00000 
-1.12638e+01 -8.00504e+01        00000 
 2.75590e+01 -5.97391e+01        00000 
 2.57276e+01 -6.00111e+01        00000 
 2.39012e+01 -6.02608e+01        00000 
 2.21294e+01 -6.04797e+01        00000 
 2.03054e+01 -6.06726e+01        00000 
 1.84493e+01 -6.08259e+01        00000 
 1.66402e+01 -6.09740e+01        00000 
 1.48547e+01 -6.11302e+01        00000 
 1.31829e+01 -6.12374e+01        00000 
 1.14765e+01 -6.13345e+01        00000 
 9.71517e+00 -6.14150e+01        00000 
 7.96518e+00 -6.14914e+01        00000 
 6.21225e+00 -6.15209e+01        00000 
 4.40172e+00 -6.15485e+01        00000 
 2.56259e+00 -6.15337e+01        00000 
 6.87174e-01 -6.15047e+01        00000 
-1.09111e+00 -6.14283e+01        00000 
-2.81139e+00 -6.13331e+01        00000 
-4.61448e+00 -6.11867e+01        00000 
-6.40214e+00 -6.10378e+01        00000 
-8.13476e+00 -6.08575e+01        00000 
-9.89085e+00 -6.06838e+01        00000 
-1.16450e+01 -6.04583e+01        00000 
-1.34401e+01 -6.02116e+01        00000 
-1.52749e+01 -5.99626e+01        00000 
-1.70766e+01 -5.96972e+01        00000 
-1.88293e+01 -5.94040e+01        00000 
-2.05809e+01 -5.90863e+01        00000 
-2.23994e+01 -5.87465e+01        00000 
-2.42034e+01 -5.83781e+01        00000 
 3.68823e+01 -2.66413e+01        00000 
 3.42988e+01 -2.68787e+01        00000 
 3.16898e+01 -2.71000e+01        00000 
 2.90941e+01 -2.72844e+01        00000 
 2.65259e+01 -2.74458e+01        00000 
 2.40115e+01 -2.76007e+01        00000 
 2.15617e+01 -2.77315e+01        00000 
 1.90437e+01 -2.78743e+01        00000 
 1.65449e+01 -2.79975e+01        00000 
 1.40201e+01 -2.81160e+01        00000 
 1.15659e+01 -2.82022e+01        00000 
 9.09195e+00 -2.82957e+01        00000 
 6.57021e+00 -2.83344e+01        00000 
 4.00166e+00 -2.83620e+01        00000 
 1.39542e+00 -2.83579e+01        00000 
-1.15733e+00 -2.83409e+01        00000 
-3.66768e+00 -2.83206e+01        00000 
-6.18631e+00 -2.83044e+01        00000 
-8.66644e+00 -2.82435e+01        00000 
-1.11198e+01 -2.81811e+01        00000 
-1.34972e+01 -2.80774e+01        00000 
-1.59073e+01 -2.79639e+01        00000 
-1.84073e+01 -2.78277e+01        00000 
-2.09029e+01 -2.76677e+01        00000 
-2.33828e+01 -2.74937e+01        00000 
-2.59363e+01 -2.72806e+01        00000 
-2.85841e+01 -2.70400e+01        00000 
-3.12339e+01 -2.67842e+01        00000 
-3.37785e+01 -2.64949e+01        00000 
-3.63158e+01 -2.61670e+01        00000 
 4.45530e+01  1.78711e+01        00000 
 4.12089e+01  1.76940e+01        00000 
 3.79189e+01  1.75240e+01        00000 
 3.46580e+01  1.73588e+01        00000 
 3.14408e+01  1.72187e+01        00000 
 2.82304e+01  1.70850e+01        00000 
 2.50919e+01  1.69746e+01        00000 
 2.20266e+01  1.68901e+01        00000 
 1.89568e+01  1.68190e+01        00000 
 1.59516e+01  1.67933e+01        00000 
 1.28844e+01  1.67483e+01        00000 
 9.83956e+00  1.67068e+01        00000 
 6.85422e+00  1.66619e+01        00000 
 3.82124e+00  1.66250e+01        00000 
 8.62650e-01  1.65794e+01        00000 
-2.14250e+00  1.65382e+01        00000 
-5.16610e+00  1.65387e+01        00000 
-8.17806e+00  1.65458e+01        00000 
-1.12765e+01  1.65710e+01        00000 
-1.43564e+01  1.66138e+01        00000 
-1.74791e+01  1.66748e+01        00000 
-2.06753e+01  1.67580e+01        00000 
-2.38257e+01  1.68580e+01        00000 
-2.70185e+01  1.69667e+01        00000 
-3.02207e+01  1.70757e+01        00000 
-3.34352e+01  1.72290e+01        00000 
-3.66625e+01  1.73962e+01        00000 
-3.99357e+01  1.75772e+01        00000 
-4.32643e+01  1.77853e+01        00000 
-4.66084e+01  1.80168e+01        00000 
 4.83900e+01  7.22228e+01        00000 
 4.46394e+01  7.21844e+01        00000 
 4.09694e+01  7.21580e+01        00000 
 3.73938e+01  7.21169e+01        00000 
 3.38228e+01  7.20932e+01        00000 
 3.03336e+01  7.20629e+01        00000 
 2.68165e+01  7.20362e+01        00000 
 2.33133e+01  7.20014e+01        00000 
 1.98878e+01  7.19618e+01        00000 
 1.64445e+01  7.19363e+01        00000 
 1.29679e+01  7.19185e+01        00000 
 9.55312e+00  7.19120e+01        00000 
 6.20263e+00  7.19322e+01        00000 
 2.93836e+00  7.19629e+01        00000 
-3.34533e-01  7.19819e+01        00000 
-3.61581e+00  7.20169e+01        00000 
-6.89551e+00  7.20649e+01        00000 
-1.01427e+01  7.21209e+01        00000 
-1.33805e+01  7.21685e+01        00000 
-1.67017e+01  7.22553e+01        00000 
-2.01015e+01  7.23136e+01        00000 
-2.34743e+01  7.23811e+01        00000 
-2.69033e+01  7.24585e+01        00000 
-3.03642e+01  7.25309e+01        00000 
-3.38810e+01  7.26009e+01        00000 
-3.74676e+01  7.26881e+01        00000 
-4.10214e+01  7.27699e+01        00000 
-4.46270e+01  7.28685e+01        00000 
-4.83401e+01  7.29545e+01        00000 
-5.21350e+01  7.30338e+01        00000 
 4.73435e+01  1.29425e+02        00000 
 4.36071e+01  1.29525e+02        00000 
 3.99125e+01  1.29632e+02        00000 
 3.61986e+01  1.29722e+02        00000 
 3.25256e+01  1.29814e+02        00000 
 2.89435e+01  1.29911e+02        00000 
 2.54599e+01  1.30008e+02        00000 
 2.20765e+01  1.30130e+02        00000 
 1.87541e+01  1.30239e+02        00000 
 1.54327e+01  1.30326e+02        00000 
 1.21514e+01  1.30411e+02        00000 
 8.81918e+00  1.30470e+02        00000 
 5.50868e+00  1.30523e+02        00000 
 2.18333e+00  1.30579e+02        00000 
-1.18036e+00  1.30648e+02        00000 
-4.49580e+00  1.30698e+02        00000 
-7.81099e+00  1.30764e+02        00000 
-1.11333e+01  1.30815e+02        00000 
-1.44442e+01  1.30884e+02        00000 
-1.77054e+01  1.30945e+02        00000 
-2.09603e+01  1.30997e+02        00000 
-2.42527e+01  1.31034e+02        00000 
-2.75537e+01  1.31073e+02        00000 
-3.08895e+01  1.31080e+02        00000 
-3.42726e+01  1.31088e+02        00000 
-3.76857e+01  1.31094e+02        00000 
-4.12527e+01  1.31083e+02        00000 
-4.48824e+01  1.31067e+02        00000 
-4.85523e+01  1.31049e+02        00000 
-5.23006e+01  1.31002e+02        00000 
 4.11527e+01  1.83439e+02        00000 
 3.77981e+01  1.83658e+02        00000 
 3.45043e+01  1.83857e+02        00000 
 3.12358e+01  1.84018e+02        00000 
 2.80108e+01  1.84191e+02        00000 
 2.47926e+01  1.84341e+02        00000 
 2.15638e+01  1.84457e+02        00000 
 1.83615e+01  1.84565e+02        00000 
 1.52770e+01  1.84691e+02        00000 
 1.21789e+01  1.84789e+02        00000 
 9.09956e+00  1.84901e+02        00000 
 6.03512e+00  1.84995e+02        00000 
 2.99455e+00  1.85084e+02        00000 
 4.94466e-02  1.85165e+02        00000 
-2.85216e+00  1.85246e+02        00000 
-5.73912e+00  1.85314e+02        00000 
-8.63999e+00  1.85348e+02        00000 
-1.15358e+01  1.85366e+02        00000 
-1.44127e+01  1.85349e+02        00000 
-1.72814e+01  1.85311e+02        00000 
-2.01566e+01  1.85250e+02        00000 
-2.30953e+01  1.85183e+02        00000 
-2.60011e+01  1.85104e+02        00000 
-2.90270e+01  1.85000e+02        00000 
-3.21467e+01  1.84902e+02        00000 
-3.53446e+01  1.84767e+02        00000 
-3.85415e+01  1.84606e+02        00000 
-4.16991e+01  1.84433e+02        00000 
-4.49595e+01  1.84240e+02        00000 
-4.82616e+01  1.84043e+02        00000 
 3.13066e+01  2.30542e+02        00000 
 2.85497e+01  2.30922e+02        00000 
 2.58511e+01  2.31308e+02        00000 
 2.31554e+01  2.31679e+02        00000 
 2.04907e+01  2.32010e+02        00000 
 1.79700e+01  2.32321e+02        00000 
 1.55001e+01  2.32594e+02        00000 
 1.30132e+01  2.32842e+02        00000 
 1.04958e+01  2.33042e+02        00000 
 8.01840e+00  2.33200e+02        00000 
 5.63150e+00  2.33331e+02        00000 
 3.26917e+00  2.33428e+02        00000 
 9.40376e-01  2.33491e+02        00000 
-1.34669e+00  2.33529e+02        00000 
-3.63458e+00  2.33544e+02        00000 
-5.91012e+00  2.33544e+02        00000 
-8.14435e+00  2.33509e+02        00000 
-1.04435e+01  2.33491e+02        00000 
-1.27605e+01  2.33431e+02        00000 
-1.50983e+01  2.33383e+02        00000 
-1.74316e+01  2.33278e+02        00000 
-1.98236e+01  2.33171e+02        00000 
-2.22568e+01  2.33032e+02        00000 
-2.46882e+01  2.32854e+02        00000 
-2.71328e+01  2.32655e+02        00000 
-2.96102e+01  2.32429e+02        00000 
-3.21934e+01  2.32199e+02        00000 
-3.48449e+01  2.31962e+02        00000 
-3.75711e+01  2.31695e+02        00000 
-4.03613e+01  2.31398e+02        00000 
 1.59976e+01  2.66497e+02        00000 
 1.43000e+01  2.66985e+02        00000 
 1.27005e+01  2.67438e+02        00000 
 1.11144e+01  2.67869e+02        00000 
 9.54020e+00  2.68244e+02        00000 
 8.02008e+00  2.68619e+02        00000 
 6.53877e+00  2.68962e+02        00000 
 5.08670e+00  2.69276e+02        00000 
 3.70911e+00  2.69563e+02        00000 
 2.36901e+00  2.69820e+02        00000 
 1.02244e+00  2.70012e+02        00000 
-3.64221e-01  2.70182e+02        00000 
-1.75400e+00  2.70289e+02        00000 
-3.14017e+00  2.70384e+02        00000 
-4.49682e+00  2.70427e+02        00000 
-5.82070e+00  2.70454e+02        00000 
-7.13432e+00  2.70448e+02        00000 
-8.43367e+00  2.70429e+02        00000 
-9.84108e+00  2.70350e+02        00000 
-1.12245e+01  2.70260e+02        00000 
-1.26287e+01  2.70130e+02        00000 
-1.40570e+01  2.69986e+02        00000 
-1.55367e+01  2.69806e+02        00000 
-1.69917e+01  2.69611e+02        00000 
-1.84824e+01  2.69361e+02        00000 
-2.00446e+01  2.69075e+02        00000 
-2.17016e+01  2.68736e+02        00000 
-2.33787e+01  2.68349e+02        00000 
-2.50968e+01  2.67910e+02        00000 
-2.68128e+01  2.67434e+02        00000 
-1.91191e+00  2.82789e+02        00000 
-2.28905e+00  2.83332e+02        00000 
-2.64338e+00  2.83827e+02        00000 
-2.95362e+00  2.84265e+02        00000 
-3.20656e+00  2.84665e+02        00000 
-3.40481e+00  2.85009e+02        00000 
-3.60546e+00  2.85306e+02        00000 
-3.86630e+00  2.85559e+02        00000 
-4.08111e+00  2.85783e+02        00000 
-4.22589e+00  2.86007e+02        00000 
-4.35864e+00  2.86173e+02        00000 
-4.40688e+00  2.86342e+02        00000 
-4.41750e+00  2.86471e+02        00000 
-4.51266e+00  2.86575e+02        00000 
-4.68992e+00  2.86643e+02        00000 
-4.92030e+00  2.86678e+02        00000 
-5.09010e+00  2.86669e+02        00000 
-5.27230e+00  2.86638e+02        00000 
-5.41551e+00  2.86564e+02        00000 
-5.57656e+00  2.86452e+02        00000 
-5.70638e+00  2.86291e+02        00000 
-5.84012e+00  2.86082e+02        00000 
-6.00906e+00  2.85835e+02        00000 
-6.16512e+00  2.85519e+02        00000 
-6.32280e+00  2.85177e+02        00000 
-6.54354e+00  2.84771e+02        00000 
-6.75930e+00  2.84346e+02        00000 
-7.02283e+00  2.83847e+02        00000 
-7.27003e+00  2.83315e+02        00000 
-7.54416e+00  2.82728e+02        00000 
-2.20671e+01  2.76832e+02        00000 
-2.09276e+01  2.77460e+02        00000 
-1.97257e+01  2.78035e+02        00000 
-1.85607e+01  2.78561e+02        00000 
-1.73849e+01  2.79047e+02        00000 
-1.62166e+01  2.79491e+02        00000 
-1.50207e+01  2.79893e+02        00000 
-1.37103e+01  2.80260e+02        00000 
-1.23999e+01  2.80555e+02        00000 
-1.11011e+01  2.80828e+02        00000 
-9.85901e+00  2.81028e+02        00000 
-8.68920e+00  2.81193e+02        00000 
-7.46139e+00  2.81329e+02        00000 
-6.22411e+00  2.81409e+02        00000 
-4.98845e+00  2.81458e+02        00000 
-3.70335e+00  2.81452e+02        00000 
-2.38756e+00  2.81408e+02        00000 