<?xml version="1.0" encoding="utf-8"?>
<VTKFile byte_order="LittleEndian" type="UnstructuredGrid" version="0.1">
   <UnstructuredGrid>
      <Piece NumberOfCells="3364" NumberOfPoints="1741">
         <Points>
            <DataArray Name="Points" NumberOfComponents="3" format="ascii" type="Float32">
0.0000 0.0000 0.0000
0.0000 0.0690 0.0000
0.0000 0.1379 0.0000
0.0000 0.2069 0.0000
0.0000 0.2759 0.0000
0.0000 0.3448 0.0000
0.0000 0.4138 0.0000
0.0000 0.4828 0.0000
0.0000 0.5517 0.0000
0.0000 0.6207 0.0000
0.0000 0.6897 0.0000
0.0000 0.7586 0.0000
0.0000 0.8276 0.0000
0.0000 0.8966 0.0000
0.0000 0.9655 0.0000
0.0000 1.0345 0.0000
0.0000 1.1034 0.0000
0.0000 1.1724 0.0000
0.0000 1.2414 0.0000
0.0000 1.3103 0.0000
0.0000 1.3793 0.0000
0.0000 1.4483 0.0000
0.0000 1.5172 0.0000
0.0000 1.5862 0.0000
0.0000 1.6552 0.0000
0.0000 1.7241 0.0000
0.0000 1.7931 0.0000
0.0000 1.8621 0.0000
0.0000 1.9310 0.0000
0.0000 2.0000 0.0000
1.0345 0.0000 0.0000
1.0345 0.0690 0.0000
1.0345 0.1379 0.0000
1.0345 0.2069 0.0000
1.0345 0.2759 0.0000
1.0345 0.3448 0.0000
1.0345 0.4138 0.0000
1.0345 0.4828 0.0000
1.0345 0.5517 0.0000
1.0345 0.6207 0.0000
1.0345 0.6897 0.0000
1.0345 0.7586 0.0000
1.0345 0.8276 0.0000
1.0345 0.8966 0.0000
1.0345 0.9655 0.0000
1.0345 1.0345 0.0000
1.0345 1.1034 0.0000
1.0345 1.1724 0.0000
1.0345 1.2414 0.0000
1.0345 1.3103 0.0000
1.0345 1.3793 0.0000
1.0345 1.4483 0.0000
1.0345 1.5172 0.0000
1.0345 1.5862 0.0000
1.0345 1.6552 0.0000
1.0345 1.7241 0.0000
1.0345 1.7931 0.0000
1.0345 1.8621 0.0000
1.0345 1.9310 0.0000
1.0345 2.0000 0.0000
2.0690 0.0000 0.0000
2.0690 0.0690 0.0000
2.0690 0.1379 0.0000
2.0690 0.2069 0.0000
2.0690 0.2759 0.0000
2.0690 0.3448 0.0000
2.0690 0.4138 0.0000
2.0690 0.4828 0.0000
2.0690 0.5517 0.0000
2.0690 0.6207 0.0000
2.0690 0.6897 0.0000
2.0690 0.7586 0.0000
2.0690 0.8276 0.0000
2.0690 0.8966 0.0000
2.0690 0.9655 0.0000
2.0690 1.0345 0.0000
2.0690 1.1034 0.0000
2.0690 1.1724 0.0000
2.0690 1.2414 0.0000
2.0690 1.3103 0.0000
2.0690 1.3793 0.0000
2.0690 1.4483 0.0000
2.0690 1.5172 0.0000
2.0690 1.5862 0.0000
2.0690 1.6552 0.0000
2.0690 1.7241 0.0000
2.0690 1.7931 0.0000
2.0690 1.8621 0.0000
2.0690 1.9310 0.0000
2.0690 2.0000 0.0000
3.1034 0.0000 0.0000
3.1034 0.0690 0.0000
3.1034 0.1379 0.0000
3.1034 0.2069 0.0000
3.1034 0.2759 0.0000
3.1034 0.3448 0.0000
3.1034 0.4138 0.0000
3.1034 0.4828 0.0000
3.1034 0.5517 0.0000
3.1034 0.6207 0.0000
3.1034 0.6897 0.0000
3.1034 0.7586 0.0000
3.1034 0.8276 0.0000
3.1034 0.8966 0.0000
3.1034 0.9655 0.0000
3.1034 1.0345 0.0000
3.1034 1.1034 0.0000
3.1034 1.1724 0.0000
3.1034 1.2414 0.0000
3.1034 1.3103 0.0000
3.1034 1.3793 0.0000
3.1034 1.4483 0.0000
3.1034 1.5172 0.0000
3.1034 1.5862 0.0000
3.1034 1.6552 0.0000
3.1034 1.7241 0.0000
3.1034 1.7931 0.0000
3.1034 1.8621 0.0000
3.1034 1.9310 0.0000
3.1034 2.0000 0.0000
4.1379 0.0000 0.0000
4.1379 0.0690 0.0000
4.1379 0.1379 0.0000
4.1379 0.2069 0.0000
4.1379 0.2759 0.0000
4.1379 0.3448 0.0000
4.1379 0.4138 0.0000
4.1379 0.4828 0.0000
4.1379 0.5517 0.0000
4.1379 0.6207 0.0000
4.1379 0.6897 0.0000
4.1379 0.7586 0.0000
4.1379 0.8276 0.0000
4.1379 0.8966 0.0000
4.1379 0.9655 0.0000
4.1379 1.0345 0.0000
4.1379 1.1034 0.0000
4.1379 1.1724 0.0000
4.1379 1.2414 0.0000
4.1379 1.3103 0.0000
4.1379 1.3793 0.0000
4.1379 1.4483 0.0000
4.1379 1.5172 0.0000
4.1379 1.5862 0.0000
4.1379 1.6552 0.0000
4.1379 1.7241 0.0000
4.1379 1.7931 0.0000
4.1379 1.8621 0.0000
4.1379 1.9310 0.0000
4.1379 2.0000 0.0000
5.1724 0.0000 0.0000
5.1724 0.0690 0.0000
5.1724 0.1379 0.0000
5.1724 0.2069 0.0000
5.1724 0.2759 0.0000
5.1724 0.3448 0.0000
5.1724 0.4138 0.0000
5.1724 0.4828 0.0000
5.1724 0.5517 0.0000
5.1724 0.6207 0.0000
5.1724 0.6897 0.0000
5.1724 0.7586 0.0000
5.1724 0.8276 0.0000
5.1724 0.8966 0.0000
5.1724 0.9655 0.0000
5.1724 1.0345 0.0000
5.1724 1.1034 0.0000
5.1724 1.1724 0.0000
5.1724 1.2414 0.0000
5.1724 1.3103 0.0000
5.1724 1.3793 0.0000
5.1724 1.4483 0.0000
5.1724 1.5172 0.0000
5.1724 1.5862 0.0000
5.1724 1.6552 0.0000
5.1724 1.7241 0.0000
5.1724 1.7931 0.0000
5.1724 1.8621 0.0000
5.1724 1.9310 0.0000
5.1724 2.0000 0.0000
6.2069 0.0000 0.0000
6.2069 0.0690 0.0000
6.2069 0.1379 0.0000
6.2069 0.2069 0.0000
6.2069 0.2759 0.0000
6.2069 0.3448 0.0000
6.2069 0.4138 0.0000
6.2069 0.4828 0.0000
6.2069 0.5517 0.0000
6.2069 0.6207 0.0000
6.2069 0.6897 0.0000
6.2069 0.7586 0.0000
6.2069 0.8276 0.0000
6.2069 0.8966 0.0000
6.2069 0.9655 0.0000
6.2069 1.0345 0.0000
6.2069 1.1034 0.0000
6.2069 1.1724 0.0000
6.2069 1.2414 0.0000
6.2069 1.3103 0.0000
6.2069 1.3793 0.0000
6.2069 1.4483 0.0000
6.2069 1.5172 0.0000
6.2069 1.5862 0.0000
6.2069 1.6552 0.0000
6.2069 1.7241 0.0000
6.2069 1.7931 0.0000
6.2069 1.8621 0.0000
6.2069 1.9310 0.0000
6.2069 2.0000 0.0000
7.2414 0.0000 0.0000
7.2414 0.0690 0.0000
7.2414 0.1379 0.0000
7.2414 0.2069 0.0000
7.2414 0.2759 0.0000
7.2414 0.3448 0.0000
7.2414 0.4138 0.0000
7.2414 0.4828 0.0000
7.2414 0.5517 0.0000
7.2414 0.6207 0.0000
7.2414 0.6897 0.0000
7.2414 0.7586 0.0000
7.2414 0.8276 0.0000
7.2414 0.8966 0.0000
7.2414 0.9655 0.0000
7.2414 1.0345 0.0000
7.2414 1.1034 0.0000
7.2414 1.1724 0.0000
7.2414 1.2414 0.0000
7.2414 1.3103 0.0000
7.2414 1.3793 0.0000
7.2414 1.4483 0.0000
7.2414 1.5172 0.0000
7.2414 1.5862 0.0000
7.2414 1.6552 0.0000
7.2414 1.7241 0.0000
7.2414 1.7931 0.0000
7.2414 1.8621 0.0000
7.2414 1.9310 0.0000
7.2414 2.0000 0.0000
8.2759 0.0000 0.0000
8.2759 0.0690 0.0000
8.2759 0.1379 0.0000
8.2759 0.2069 0.0000
8.2759 0.2759 0.0000
8.2759 0.3448 0.0000
8.2759 0.4138 0.0000
8.2759 0.4828 0.0000
8.2759 0.5517 0.0000
8.2759 0.6207 0.0000
8.2759 0.6897 0.0000
8.2759 0.7586 0.0000
8.2759 0.8276 0.0000
8.2759 0.8966 0.0000
8.2759 0.9655 0.0000
8.2759 1.0345 0.0000
8.2759 1.1034 0.0000
8.2759 1.1724 0.0000
8.2759 1.2414 0.0000
8.2759 1.3103 0.0000
8.2759 1.3793 0.0000
8.2759 1.4483 0.0000
8.2759 1.5172 0.0000
8.2759 1.5862 0.0000
8.2759 1.6552 0.0000
8.2759 1.7241 0.0000
8.2759 1.7931 0.0000
8.2759 1.8621 0.0000
8.2759 1.9310 0.0000
8.2759 2.0000 0.0000
9.3103 0.0000 0.0000
9.3103 0.0690 0.0000
9.3103 0.1379 0.0000
9.3103 0.2069 0.0000
9.3103 0.2759 0.0000
9.3103 0.3448 0.0000
9.3103 0.4138 0.0000
9.3103 0.4828 0.0000
9.3103 0.5517 0.0000
9.3103 0.6207 0.0000
9.3103 0.6897 0.0000
9.3103 0.7586 0.0000
9.3103 0.8276 0.0000
9.3103 0.8966 0.0000
9.3103 0.9655 0.0000
9.3103 1.0345 0.0000
9.3103 1.1034 0.0000
9.3103 1.1724 0.0000
9.3103 1.2414 0.0000
9.3103 1.3103 0.0000
9.3103 1.3793 0.0000
9.3103 1.4483 0.0000
9.3103 1.5172 0.0000
9.3103 1.5862 0.0000
9.3103 1.6552 0.0000
9.3103 1.7241 0.0000
9.3103 1.7931 0.0000
9.3103 1.8621 0.0000
9.3103 1.9310 0.0000
9.3103 2.0000 0.0000
10.3448 0.0000 0.0000
10.3448 0.0690 0.0000
10.3448 0.1379 0.0000
10.3448 0.2069 0.0000
10.3448 0.2759 0.0000
10.3448 0.3448 0.0000
10.3448 0.4138 0.0000
10.3448 0.4828 0.0000
10.3448 0.5517 0.0000
10.3448 0.6207 0.0000
10.3448 0.6897 0.0000
10.3448 0.7586 0.0000
10.3448 0.8276 0.0000
10.3448 0.8966 0.0000
10.3448 0.9655 0.0000
10.3448 1.0345 0.0000
10.3448 1.1034 0.0000
10.3448 1.1724 0.0000
10.3448 1.2414 0.0000
10.3448 1.3103 0.0000
10.3448 1.3793 0.0000
10.3448 1.4483 0.0000
10.3448 1.5172 0.0000
10.3448 1.5862 0.0000
10.3448 1.6552 0.0000
10.3448 1.7241 0.0000
10.3448 1.7931 0.0000
10.3448 1.8621 0.0000
10.3448 1.9310 0.0000
10.3448 2.0000 0.0000
11.3793 0.0000 0.0000
11.3793 0.0690 0.0000
11.3793 0.1379 0.0000
11.3793 0.2069 0.0000
11.3793 0.2759 0.0000
11.3793 0.3448 0.0000
11.3793 0.4138 0.0000
11.3793 0.4828 0.0000
11.3793 0.5517 0.0000
11.3793 0.6207 0.0000
11.3793 0.6897 0.0000
11.3793 0.7586 0.0000
11.3793 0.8276 0.0000
11.3793 0.8966 0.0000
11.3793 0.9655 0.0000
11.3793 1.0345 0.0000
11.3793 1.1034 0.0000
11.3793 1.1724 0.0000
11.3793 1.2414 0.0000
11.3793 1.3103 0.0000
11.3793 1.3793 0.0000
11.3793 1.4483 0.0000
11.3793 1.5172 0.0000
11.3793 1.5862 0.0000
11.3793 1.6552 0.0000
11.3793 1.7241 0.0000
11.3793 1.7931 0.0000
11.3793 1.8621 0.0000
11.3793 1.9310 0.0000
11.3793 2.0000 0.0000
12.4138 0.0000 0.0000
12.4138 0.0690 0.0000
12.4138 0.1379 0.0000
12.4138 0.2069 0.0000
12.4138 0.2759 0.0000
12.4138 0.3448 0.0000
12.4138 0.4138 0.0000
12.4138 0.4828 0.0000
12.4138 0.5517 0.0000
12.4138 0.6207 0.0000
12.4138 0.6897 0.0000
12.4138 0.7586 0.0000
12.4138 0.8276 0.0000
12.4138 0.8966 0.0000
12.4138 0.9655 0.0000
12.4138 1.0345 0.0000
12.4138 1.1034 0.0000
12.4138 1.1724 0.0000
12.4138 1.2414 0.0000
12.4138 1.3103 0.0000
12.4138 1.3793 0.0000
12.4138 1.4483 0.0000
12.4138 1.5172 0.0000
12.4138 1.5862 0.0000
12.4138 1.6552 0.0000
12.4138 1.7241 0.0000
12.4138 1.7931 0.0000
12.4138 1.8621 0.0000
12.4138 1.9310 0.0000
12.4138 2.0000 0.0000
13.4483 0.0000 0.0000
13.4483 0.0690 0.0000
13.4483 0.1379 0.0000
13.4483 0.2069 0.0000
13.4483 0.2759 0.0000
13.4483 0.3448 0.0000
13.4483 0.4138 0.0000
13.4483 0.4828 0.0000
13.4483 0.5517 0.0000
13.4483 0.6207 0.0000
13.4483 0.6897 0.0000
13.4483 0.7586 0.0000
13.4483 0.8276 0.0000
13.4483 0.8966 0.0000
13.4483 0.9655 0.0000
13.4483 1.0345 0.0000
13.4483 1.1034 0.0000
13.4483 1.1724 0.0000
13.4483 1.2414 0.0000
13.4483 1.3103 0.0000
13.4483 1.3793 0.0000
13.4483 1.4483 0.0000
13.4483 1.5172 0.0000
13.4483 1.5862 0.0000
13.4483 1.6552 0.0000
13.4483 1.7241 0.0000
13.4483 1.7931 0.0000
13.4483 1.8621 0.0000
13.4483 1.9310 0.0000
13.4483 2.0000 0.0000
14.4828 0.0000 0.0000
14.4828 0.0690 0.0000
14.4828 0.1379 0.0000
14.4828 0.2069 0.0000
14.4828 0.2759 0.0000
14.4828 0.3448 0.0000
14.4828 0.4138 0.0000
14.4828 0.4828 0.0000
14.4828 0.5517 0.0000
14.4828 0.6207 0.0000
14.4828 0.6897 0.0000
14.4828 0.7586 0.0000
14.4828 0.8276 0.0000
14.4828 0.8966 0.0000
14.4828 0.9655 0.0000
14.4828 1.0345 0.0000
14.4828 1.1034 0.0000
14.4828 1.1724 0.0000
14.4828 1.2414 0.0000
14.4828 1.3103 0.0000
14.4828 1.3793 0.0000
14.4828 1.4483 0.0000
14.4828 1.5172 0.0000
14.4828 1.5862 0.0000
14.4828 1.6552 0.0000
14.4828 1.7241 0.0000
14.4828 1.7931 0.0000
14.4828 1.8621 0.0000
14.4828 1.9310 0.0000
14.4828 2.0000 0.0000
15.5172 0.0000 0.0000
15.5172 0.0690 0.0000
15.5172 0.1379 0.0000
15.5172 0.2069 0.0000
[...]
         <PointData>
            <DataArray Name="fValues" NumberOfComponents="3" format="ascii" type="Float64">
 2.75171e-16 -9.95106e-16        00000 
-1.10068e-15  1.10068e-15        00000 
-1.63266e-15 -1.36055e-15        00000 
 3.65818e-15  1.79490e-15        00000 
 1.90477e-15 -1.08844e-15        00000 
-4.58694e-17  6.81336e-16        00000 
 2.17688e-15  1.90477e-15        00000 
 1.55558e-15 -9.05998e-16        00000 
 2.72110e-16 -1.76871e-15        00000 
-1.32155e-15  2.77285e-15        00000 
-4.08165e-16 -4.62587e-15        00000 
 2.22653e-15  2.21371e-15        00000 
-4.76192e-16 -4.08165e-16        00000 
 4.09647e-16 -8.48608e-16        00000 
-7.48302e-16  2.72110e-16        00000 
 2.17952e-16  1.82054e-15        00000 
-3.57144e-16 -3.53743e-15        00000 
 6.90431e-17  1.49955e-15        00000 
-5.95240e-17 -2.72110e-16        00000 
 5.55565e-17 -3.24792e-16        00000 
-6.80275e-17 -2.44899e-15        00000 
 5.10208e-16 -4.50140e-16        00000 
-3.40137e-16 -9.52384e-16        00000 
 2.35047e-16  2.82056e-16        00000 
 4.08165e-16 -8.16329e-16        00000 
 1.52818e-15 -2.30535e-15        00000 
 5.44220e-16  1.22449e-15        00000 
-1.43004e-15  9.41940e-17        00000 
 8.57637e-16 -1.23500e-15        00000 
 5.05526e-16  4.62836e-15        00000 
 2.65446e+01  2.07215e+01        00000 
 2.46138e+01  1.99300e+01        00000 
 2.27391e+01  1.91625e+01        00000 
 2.08666e+01  1.84248e+01        00000 
 1.90684e+01  1.77725e+01        00000 
 1.73537e+01  1.71684e+01        00000 
 1.57038e+01  1.65939e+01        00000 
 1.42052e+01  1.60647e+01        00000 
 1.26235e+01  1.56060e+01        00000 
 1.12810e+01  1.51630e+01        00000 
 9.96232e+00  1.47398e+01        00000 
 8.68446e+00  1.43445e+01        00000 
 7.39806e+00  1.40112e+01        00000 
 6.14373e+00  1.37181e+01        00000 
 4.88820e+00  1.34617e+01        00000 
 3.55470e+00  1.33054e+01        00000 
 2.16961e+00  1.32051e+01        00000 
 7.78491e-01  1.31890e+01        00000 
-6.23016e-01  1.32164e+01        00000 
-2.08656e+00  1.33125e+01        00000 
-3.50211e+00  1.34298e+01        00000 
-4.89305e+00  1.35845e+01        00000 
-6.36430e+00  1.38031e+01        00000 
-7.74675e+00  1.40342e+01        00000 
-9.14574e+00  1.42925e+01        00000 
-1.06284e+01  1.46212e+01        00000 
-1.21751e+01  1.49679e+01        00000 
-1.37598e+01  1.53983e+01        00000 
-1.54125e+01  1.59170e+01        00000 
-1.73079e+01  1.64917e+01        00000 
 4.75083e+01  5.69381e+01        00000 
 4.45966e+01  5.63805e+01        00000 
 4.16567e+01  5.58738e+01        00000 
 3.88298e+01  5.54067e+01        00000 
 3.60267e+01  5.49765e+01        00000 
 3.33566e+01  5.45374e+01        00000 
 3.06257e+01  5.41379e+01        00000 
 2.79690e+01  5.37791e+01        00000 
 2.54550e+01  5.34273e+01        00000 
 2.28979e+01  5.31049e+01        00000 
 2.02886e+01  5.28730e+01        00000 
 1.77402e+01  5.26891e+01        00000 
 1.50800e+01  5.25253e+01        00000 
 1.25310e+01  5.24502e+01        00000 
 9.87887e+00  5.24482e+01        00000 
 7.16648e+00  5.24487e+01        00000 
 4.49392e+00  5.24371e+01        00000 
 1.76042e+00  5.24643e+01        00000 
-1.01303e+00  5.25661e+01        00000 
-3.70514e+00  5.26668e+01        00000 
-6.49065e+00  5.27987e+01        00000 
-9.28482e+00  5.29527e+01        00000 
-1.20054e+01  5.31362e+01        00000 
-1.47604e+01  5.33104e+01        00000 
-1.75462e+01  5.35189e+01        00000 
-2.04187e+01  5.37839e+01        00000 
-2.34117e+01  5.40761e+01        00000 
-2.66040e+01  5.43723e+01        00000 
-2.97878e+01  5.47265e+01        00000 
-3.28739e+01  5.51070e+01        00000 
 6.57279e+01  1.10214e+02        00000 
 6.17119e+01  1.09761e+02        00000 
 5.77164e+01  1.09316e+02        00000 
 5.38301e+01  1.08921e+02        00000 
 4.99738e+01  1.08572e+02        00000 
 4.61127e+01  1.08301e+02        00000 
 4.23643e+01  1.08031e+02        00000 
 3.85675e+01  1.07843e+02        00000 
 3.48377e+01  1.07682e+02        00000 
 3.10812e+01  1.07554e+02        00000 
 2.74492e+01  1.07441e+02        00000 
 2.38267e+01  1.07322e+02        00000 
 2.02086e+01  1.07230e+02        00000 
 1.65545e+01  1.07093e+02        00000 
 1.28610e+01  1.07011e+02        00000 
 9.31334e+00  1.06917e+02        00000 
 5.78641e+00  1.06888e+02        00000 
 2.31403e+00  1.06859e+02        00000 
-1.19375e+00  1.06791e+02        00000 
-4.62782e+00  1.06775e+02        00000 
-8.11148e+00  1.06777e+02        00000 
-1.16043e+01  1.06775e+02        00000 
-1.51412e+01  1.06795e+02        00000 
-1.87603e+01  1.06867e+02        00000 
-2.23761e+01  1.06976e+02        00000 
-2.60507e+01  1.07040e+02        00000 
-2.97223e+01  1.07180e+02        00000 
-3.33767e+01  1.07277e+02        00000 
-3.70801e+01  1.07420e+02        00000 
-4.07006e+01  1.07591e+02        00000 
 7.96743e+01  1.75806e+02        00000 
 7.50636e+01  1.75451e+02        00000 
 7.04336e+01  1.75108e+02        00000 
 6.59404e+01  1.74759e+02        00000 
 6.15480e+01  1.74470e+02        00000 
 5.71902e+01  1.74183e+02        00000 
 5.28951e+01  1.73864e+02        00000 
 4.86585e+01  1.73533e+02        00000 
 4.44126e+01  1.73221e+02        00000 
 4.01965e+01  1.72910e+02        00000 
 3.59713e+01  1.72566e+02        00000 
 3.17713e+01  1.72289e+02        00000 
 2.75704e+01  1.72029e+02        00000 
 2.33782e+01  1.71777e+02        00000 
 1.93020e+01  1.71517e+02        00000 
 1.50946e+01  1.71285e+02        00000 
 1.07841e+01  1.71099e+02        00000 
 6.46294e+00  1.70908e+02        00000 
 2.07913e+00  1.70732e+02        00000 
-2.36480e+00  1.70626e+02        00000 
-6.83182e+00  1.70521e+02        00000 
-1.13308e+01  1.70442e+02        00000 
-1.58397e+01  1.70358e+02        00000 
-2.03827e+01  1.70344e+02        00000 
-2.48470e+01  1.70313e+02        00000 
-2.93298e+01  1.70342e+02        00000 
-3.39387e+01  1.70390e+02        00000 
-3.84201e+01  1.70479e+02        00000 
-4.28883e+01  1.70561e+02        00000 
-4.74589e+01  1.70713e+02        00000 
 9.19127e+01  2.48427e+02        00000 
 8.67417e+01  2.48151e+02        00000 
 8.16780e+01  2.47915e+02        00000 
 7.66574e+01  2.47676e+02        00000 
 7.17701e+01  2.47474e+02        00000 
 6.69569e+01  2.47315e+02        00000 
 6.20618e+01  2.47172e+02        00000 
 5.71730e+01  2.47031e+02        00000 
 5.23355e+01  2.46909e+02        00000 
 4.75891e+01  2.46740e+02        00000 
 4.28154e+01  2.46586e+02        00000 
 3.81164e+01  2.46458e+02        00000 
 3.34714e+01  2.46377e+02        00000 
 2.88037e+01  2.46303e+02        00000 
 2.40384e+01  2.46259e+02        00000 
 1.93557e+01  2.46207e+02        00000 
 1.46504e+01  2.46109e+02        00000 
 9.89735e+00  2.46000e+02        00000 
 5.15020e+00  2.45873e+02        00000 
 2.48648e-01  2.45752e+02        00000 
-4.67070e+00  2.45625e+02        00000 
-9.51501e+00  2.45526e+02        00000 
-1.44255e+01  2.45418e+02        00000 
-1.94066e+01  2.45304e+02        00000 
-2.44608e+01  2.45178e+02        00000 
-2.95331e+01  2.45092e+02        00000 
-3.46440e+01  2.45006e+02        00000 
-3.97367e+01  2.44953e+02        00000 
-4.50506e+01  2.44928e+02        00000 
-5.04227e+01  2.44945e+02        00000 
 9.67621e+01  3.31601e+02        00000 
 9.13025e+01  3.31499e+02        00000 
 8.59925e+01  3.31443e+02        00000 
 8.08363e+01  3.31330e+02        00000 
 7.56579e+01  3.31218e+02        00000 
 7.05246e+01  3.31050e+02        00000 
 6.56021e+01  3.30898e+02        00000 
 6.08284e+01  3.30764e+02        00000 
 5.60944e+01  3.30624e+02        00000 
 5.13453e+01  3.30482e+02        00000 
 4.65427e+01  3.30323e+02        00000 
 4.16778e+01  3.30166e+02        00000 
 3.68575e+01  3.29956e+02        00000 
 3.20596e+01  3.29739e+02        00000 
 2.73329e+01  3.29573e+02        00000 
 2.26884e+01  3.29425e+02        00000 
 1.79656e+01  3.29329e+02        00000 
 1.32393e+01  3.29258e+02        00000 
 8.49443e+00  3.29180e+02        00000 
 3.77174e+00  3.29080e+02        00000 
-1.06764e+00  3.28964e+02        00000 
-6.18085e+00  3.28872e+02        00000 
-1.11878e+01  3.28773e+02        00000 
-1.62526e+01  3.28685e+02        00000 
-2.15550e+01  3.28601e+02        00000 
-2.67362e+01  3.28496e+02        00000 
-3.20641e+01  3.28411e+02        00000 
-3.75905e+01  3.28276e+02        00000 
-4.30882e+01  3.28147e+02        00000 
-4.85019e+01  3.27998e+02        00000 
 9.82965e+01  4.08938e+02        00000 
 9.31925e+01  4.08976e+02        00000 
 8.82597e+01  4.09005e+02        00000 
 8.32582e+01  4.09036e+02        00000 
 7.82154e+01  4.09122e+02        00000 
 7.32631e+01  4.09198e+02        00000 
 6.83893e+01  4.09230e+02        00000 
 6.35243e+01  4.09272e+02        00000 
 5.87326e+01  4.09314e+02        00000 
 5.39813e+01  4.09344e+02        00000 
 4.94024e+01  4.09363e+02        00000 
 4.48913e+01  4.09367e+02        00000 
 4.04086e+01  4.09363e+02        00000 
 3.58342e+01  4.09286e+02        00000 
 3.11899e+01  4.09210e+02        00000 
 2.64684e+01  4.09132e+02        00000 
 2.19085e+01  4.09038e+02        00000 
 1.72867e+01  4.08948e+02        00000 
 1.25641e+01  4.08864e+02        00000 
 7.79744e+00  4.08844e+02        00000 
 3.07715e+00  4.08783e+02        00000 
-1.62041e+00  4.08693e+02        00000 
-6.35482e+00  4.08549e+02        00000 
-1.11539e+01  4.08411e+02        00000 
-1.59697e+01  4.08238e+02        00000 
-2.07966e+01  4.07982e+02        00000 
-2.57044e+01  4.07749e+02        00000 
-3.05502e+01  4.07465e+02        00000 
-3.54129e+01  4.07152e+02        00000 
-4.04461e+01  4.06855e+02        00000 
 9.36100e+01  4.81925e+02        00000 
 8.90855e+01  4.82150e+02        00000 
 8.45103e+01  4.82361e+02        00000 
 8.00360e+01  4.82530e+02        00000 
 7.57328e+01  4.82673e+02        00000 
 7.13821e+01  4.82789e+02        00000 
 6.71441e+01  4.82881e+02        00000 
 6.26911e+01  4.82958e+02        00000 
 5.82923e+01  4.82978e+02        00000 
 5.40133e+01  4.82979e+02        00000 
 4.96472e+01  4.82962e+02        00000 
 4.53210e+01  4.82935e+02        00000 
 4.11984e+01  4.82884e+02        00000 
 3.71357e+01  4.82896e+02        00000 
 3.30123e+01  4.82908e+02        00000 
 2.90053e+01  4.82908e+02        00000 
 2.48904e+01  4.82870e+02        00000 
 2.07397e+01  4.82848e+02        00000 
 1.65981e+01  4.82809e+02        00000 
 1.24127e+01  4.82714e+02        00000 
 8.27174e+00  4.82576e+02        00000 
 4.09394e+00  4.82442e+02        00000 
-4.11050e-02  4.82321e+02        00000 
-4.20075e+00  4.82198e+02        00000 
-8.33609e+00  4.82022e+02        00000 
-1.25876e+01  4.81839e+02        00000 
-1.69430e+01  4.81617e+02        00000 
-2.13821e+01  4.81373e+02        00000 
-2.58563e+01  4.81071e+02        00000 
-3.04201e+01  4.80761e+02        00000 
 8.00055e+01  5.43069e+02        00000 
 7.65572e+01  5.43587e+02        00000 
 7.31216e+01  5.44091e+02        00000 
 6.97473e+01  5.44551e+02        00000 
 6.64073e+01  5.44959e+02        00000 
 6.30104e+01  5.45323e+02        00000 
 5.95387e+01  5.45648e+02        00000 
 5.61893e+01  5.45925e+02        00000 
 5.27962e+01  5.46199e+02        00000 
 4.93847e+01  5.46422e+02        00000 
 4.61149e+01  5.46645e+02        00000 
 4.28066e+01  5.46803e+02        00000 
 3.94597e+01  5.46932e+02        00000 
 3.61292e+01  5.47026e+02        00000 
 3.29137e+01  5.47071e+02        00000 
 2.97167e+01  5.47077e+02        00000 
 2.64445e+01  5.47101e+02        00000 
 2.32673e+01  5.47059e+02        00000 
 2.01062e+01  5.46987e+02        00000 
 1.68591e+01  5.46865e+02        00000 
 1.35505e+01  5.46733e+02        00000 
 1.02722e+01  5.46536e+02        00000 
 6.85404e+00  5.46283e+02        00000 
 3.42287e+00  5.45983e+02        00000 
 1.91230e-02  5.45642e+02        00000 
-3.46867e+00  5.45299e+02        00000 
-6.98681e+00  5.44890e+02        00000 
-1.03964e+01  5.44526e+02        00000 
-1.39748e+01  5.44137e+02        00000 
-1.76189e+01  5.43694e+02        00000 
 6.08008e+01  5.86791e+02        00000 
 5.83639e+01  5.87458e+02        00000 
 5.60238e+01  5.88077e+02        00000 
 5.37899e+01  5.88670e+02        00000 
 5.15877e+01  5.89312e+02        00000 
 4.93413e+01  5.89931e+02        00000 
 4.71995e+01  5.90528e+02        00000 
 4.51865e+01  5.91093e+02        00000 
 4.30807e+01  5.91601e+02        00000 
 4.10638e+01  5.92054e+02        00000 
 3.90505e+01  5.92447e+02        00000 
 3.70066e+01  5.92832e+02        00000 
 3.49755e+01  5.93163e+02        00000 
 3.28627e+01  5.93439e+02        00000 
 3.08237e+01  5.93684e+02        00000 
 2.87163e+01  5.93827e+02        00000 
 2.66445e+01  5.93905e+02        00000 
 2.46548e+01  5.93899e+02        00000 
 2.26599e+01  5.93872e+02        00000 
 2.06108e+01  5.93830e+02        00000 
 1.85053e+01  5.93740e+02        00000 
 1.64983e+01  5.93584e+02        00000 
 1.45135e+01  5.93417e+02        00000 
 1.25314e+01  5.93200e+02        00000 
 1.04187e+01  5.92969e+02        00000 
 8.31408e+00  5.92667e+02        00000 
 6.20263e+00  5.92327e+02        00000 
 3.91551e+00  5.91949e+02        00000 
 1.64028e+00  5.91493e+02        00000 
-7.20504e-01  5.90995e+02        00000 
 3.48489e+01  6.12478e+02        00000 
 3.41379e+01  6.13342e+02        00000 
 3.33180e+01  6.14144e+02        00000 
 3.24266e+01  6.14881e+02        00000 
 3.16696e+01  6.15625e+02        00000 
 3.09466e+01  6.16286e+02        00000 
 3.00936e+01  6.16858e+02        00000 
 2.93206e+01  6.17389e+02        00000 
 2.86734e+01  6.17895e+02        00000 
 2.80031e+01  6.18365e+02        00000 
 2.74259e+01  6.18798e+02        00000 
 2.69423e+01  6.19204e+02        00000 
 2.64559e+01  6.19526e+02        00000 
 2.60069e+01  6.19770e+02        00000 
 2.56239e+01  6.20003e+02        00000 
 2.51860e+01  6.20143e+02        00000 
 2.45974e+01  6.20216e+02        00000 
 2.40771e+01  6.20224e+02        00000 
 2.35594e+01  6.20189e+02        00000 
 2.29490e+01  6.20102e+02        00000 
 2.24683e+01  6.19886e+02        00000 
 2.19415e+01  6.19688e+02        00000 
 2.13249e+01  6.19377e+02        00000 
 2.06576e+01  6.19057e+02        00000 
 2.00073e+01  6.18664e+02        00000 
 1.92339e+01  6.18248e+02        00000 
 1.83508e+01  6.17830e+02        00000 
 1.76069e+01  6.17395e+02        00000 
 1.67257e+01  6.16910e+02        00000 
 1.58143e+01  6.16411e+02        00000 
 2.76007e+00  6.09295e+02        00000 
 3.85204e+00  6.10294e+02        00000 
 4.97598e+00  6.11258e+02        00000 
 6.12700e+00  6.12116e+02        00000 
 7.28994e+00  6.12919e+02        00000 
 8.46638e+00  6.13704e+02        00000 
 9.58504e+00  6.14461e+02        00000 
 1.06438e+01  6.15170e+02        00000 
 1.17818e+01  6.15803e+02        00000 
 1.27641e+01  6.16332e+02        00000 
 1.37850e+01  6.16802e+02        00000 
 1.48475e+01  6.17227e+02        00000 
 1.58580e+01  6.17633e+02        00000 
 1.69374e+01  6.18001e+02        00000 
 1.81124e+01  6.18285e+02        00000 
 1.93858e+01  6.18535e+02        00000 
 2.07540e+01  6.18717e+02        00000 
 2.21083e+01  6.18854e+02        00000 
 2.34014e+01  6.18944e+02        00000 
 2.47512e+01  6.18942e+02        00000 
 2.59581e+01  6.18869e+02        00000 
 2.71698e+01  6.18737e+02        00000 
 2.82767e+01  6.18554e+02        00000 
 2.93729e+01  6.18323e+02        00000 
 3.03338e+01  6.18044e+02        00000 
 3.12636e+01  6.17706e+02        00000 
 3.21902e+01  6.17274e+02        00000 
 3.30621e+01  6.16787e+02        00000 
 3.40086e+01  6.16245e+02        00000 
 3.49878e+01  6.15650e+02        00000 
-3.23435e+01  5.79600e+02        00000 
-2.93959e+01  5.80693e+02        00000 
-2.64121e+01  5.81790e+02        00000 
-2.34222e+01  5.82808e+02        00000 
-2.04524e+01  5.83817e+02        00000 
-1.75412e+01  5.84740e+02        00000 
-1.45576e+01  5.85606e+02        00000 
-1.14153e+01  5.86338e+02        00000 
-8.28661e+00  5.87011e+02        00000 
-5.25468e+00  5.87639e+02        00000 
-2.17094e+00  5.88242e+02        00000 
 9.54512e-01  5.88750e+02        00000 
 3.93998e+00  5.89199e+02        00000 
 6.92137e+00  5.89566e+02        00000 
 9.93789e+00  5.89858e+02        00000 
 1.28412e+01  5.90123e+02        00000 
 1.57901e+01  5.90340e+02        00000 
 1.88495e+01  5.90532e+02        00000 
 2.19317e+01  5.90680e+02        00000 
 2.49079e+01  5.90774e+02        00000 
 2.79902e+01  5.90824e+02        00000 
 3.10133e+01  5.90827e+02        00000 
 3.39738e+01  5.90783e+02        00000 
 3.69800e+01  5.90657e+02        00000 
 4.01015e+01  5.90441e+02        00000 
 4.31982e+01  5.90183e+02        00000 
 4.61721e+01  5.89819e+02        00000 
 4.92036e+01  5.89416e+02        00000 
 5.22413e+01  5.88912e+02        00000 
 5.51310e+01  5.88343e+02        00000 
-7.05607e+01  5.22019e+02        00000 
-6.55098e+01  5.23140e+02        00000 
-6.04728e+01  5.24213e+02        00000 
-5.55161e+01  5.25231e+02        00000 
-5.04717e+01  5.26207e+02        00000 
-4.53750e+01  5.27138e+02        00000 
-4.01501e+01  5.28021e+02        00000 
-3.49196e+01  5.28886e+02        00000 
-2.97728e+01  5.29661e+02        00000 
-2.45730e+01  5.30387e+02        00000 
-1.94670e+01  5.31031e+02        00000 
-1.43542e+01  5.31569e+02        00000 
-9.08897e+00  5.32008e+02        00000 
-3.86682e+00  5.32383e+02        00000 
 1.31742e+00  5.32701e+02        00000 
 6.48926e+00  5.32942e+02        00000 
 1.15420e+01  5.33094e+02        00000 
 1.64378e+01  5.33173e+02        00000 
 2.12881e+01  5.33198e+02        00000 
 2.61201e+01  5.33141e+02        00000 
 3.10019e+01  5.32978e+02        00000 
 3.59191e+01  5.32787e+02        00000 
 4.09469e+01  5.32525e+02        00000 
 4.59530e+01  5.32175e+02        00000 
 5.09977e+01  5.31772e+02        00000 
 5.60409e+01  5.31337e+02        00000 
 6.11521e+01  5.30873e+02        00000 
 6.63100e+01  5.30295e+02        00000 
 7.13052e+01  5.29674e+02        00000 
 7.62228e+01  5.29000e+02        00000 
-1.10147e+02  4.28980e+02        00000 
-1.03026e+02  4.30147e+02        00000 
-9.59297e+01  4.31248e+02        00000 
-8.88084e+01  4.32254e+02        00000 
-8.16448e+01  4.33215e+02        00000 
-7.45251e+01  4.34063e+02        00000 
-6.74920e+01  4.34870e+02        00000 
-6.03287e+01  4.35608e+02        00000 
-5.30391e+01  4.36258e+02        00000 
-4.57996e+01  4.36847e+02        00000 
-3.83953e+01  4.37377e+02        00000 
-3.09244e+01  4.37873e+02        00000 
-2.35154e+01  4.38303e+02        00000 
-1.60304e+01  4.38676e+02        00000 
-8.57009e+00  4.38979e+02        00000 
-1.28108e+00  4.39198e+02        00000 
 5.98232e+00  4.39376e+02        00000 
 1.32418e+01  4.39485e+02        00000 
 2.05930e+01  4.39518e+02        00000 
 2.79900e+01  4.39531e+02        00000 
 3.53563e+01  4.39414e+02        00000 
 4.27704e+01  4.39227e+02        00000 
 4.99907e+01  4.38952e+02        00000 
 5.72932e+01  4.38655e+02        00000 
 6.45975e+01  4.38283e+02        00000 
 7.18987e+01  4.37819e+02        00000 
 7.92583e+01  4.37319e+02        00000 
 8.67098e+01  4.36741e+02        00000 
 9.42532e+01  4.36090e+02        00000 
 1.01764e+02  4.35347e+02        00000 
-1.50423e+02  3.04221e+02        00000 
-1.40784e+02  3.05351e+02        00000 
-1.31175e+02  3.06363e+02        00000 
-1.21595e+02  3.07278e+02        00000 
-1.12079e+02  3.08107e+02        00000 
-1.02490e+02  3.08856e+02        00000 
-9.28024e+01  3.09547e+02        00000 
-8.31150e+01  3.10134e+02        00000 
-7.34343e+01  3.10651e+02        00000 
-6.38217e+01  3.11088e+02        00000 
-5.41792e+01  3.11478e+02        00000 
-4.45632e+01  3.11795e+02        00000 
-3.49208e+01  3.12072e+02        00000 
-2.53975e+01  3.12264e+02        00000 
-1.58372e+01  3.12433e+02        00000 
-6.26521e+00  3.12479e+02        00000 
 3.31659e+00  3.12503e+02        00000 