<?xml version="1.0" encoding="utf-8"?>
<VTKFile byte_order="LittleEndian" type="UnstructuredGrid" version="0.1">
   <UnstructuredGrid>
      <Piece NumberOfCells="3364" NumberOfPoints="1741">
         <Points>
            <DataArray Name="Points" NumberOfComponents="3" format="ascii" type="Float32">
0.0000 0.0000 0.0000
0.0000 0.0690 0.0000
0.0000 0.1379 0.0000
0.0000 0.2069 0.0000
0.0000 0.2759 0.0000
0.0000 0.3448 0.0000
0.0000 0.4138 0.0000
0.0000 0.4828 0.0000
0.0000 0.5517 0.0000
0.0000 0.6207 0.0000
0.0000 0.6897 0.0000
0.0000 0.7586 0.0000
0.0000 0.8276 0.0000
0.0000 0.8966 0.0000
0.0000 0.9655 0.0000
0.0000 1.0345 0.0000
0.0000 1.1034 0.0000
0.0000 1.1724 0.0000
0.0000 1.2414 0.0000
0.0000 1.3103 0.0000
0.0000 1.3793 0.0000
0.0000 1.4483 0.0000
0.0000 1.5172 0.0000
0.0000 1.5862 0.0000
0.0000 1.6552 0.0000
0.0000 1.7241 0.0000
0.0000 1.7931 0.0000
0.0000 1.8621 0.0000
0.0000 1.9310 0.0000
0.0000 2.0000 0.0000
1.0345 0.0000 0.0000
1.0345 0.0690 0.0000
1.0345 0.1379 0.0000
1.0345 0.2069 0.0000
1.0345 0.2759 0.0000
1.0345 0.3448 0.0000
1.0345 0.4138 0.0000
1.0345 0.4828 0.0000
1.0345 0.5517 0.0000
1.0345 0.6207 0.0000
1.0345 0.6897 0.0000
1.0345 0.7586 0.0000
1.0345 0.8276 0.0000
1.0345 0.8966 0.0000
1.0345 0.9655 0.0000
1.0345 1.0345 0.0000
1.0345 1.1034 0.0000
1.0345 1.1724 0.0000
1.0345 1.2414 0.0000
1.0345 1.3103 0.0000
1.0345 1.3793 0.0000
1.0345 1.4483 0.0000
1.0345 1.5172 0.0000
1.0345 1.5862 0.0000
1.0345 1.6552 0.0000
1.0345 1.7241 0.0000
1.0345 1.7931 0.0000
1.0345 1.8621 0.0000
1.0345 1.9310 0.0000
1.0345 2.0000 0.0000
2.0690 0.0000 0.0000
2.0690 0.0690 0.0000
2.0690 0.1379 0.0000
2.0690 0.2069 0.0000
2.0690 0.2759 0.0000
2.0690 0.3448 0.0000
2.0690 0.4138 0.0000
2.0690 0.4828 0.0000
2.0690 0.5517 0.0000
2.0690 0.6207 0.0000
2.0690 0.6897 0.0000
2.0690 0.7586 0.0000
2.0690 0.8276 0.0000
2.0690 0.8966 0.0000
2.0690 0.9655 0.0000
2.0690 1.0345 0.0000
2.0690 1.1034 0.0000
2.0690 1.1724 0.0000
2.0690 1.2414 0.0000
2.0690 1.3103 0.0000
2.0690 1.3793 0.0000
2.0690 1.4483 0.0000
2.0690 1.5172 0.0000
2.0690 1.5862 0.0000
2.0690 1.6552 0.0000
2.0690 1.7241 0.0000
2.0690 1.7931 0.0000
2.0690 1.8621 0.0000
2.0690 1.9310 0.0000
2.0690 2.0000 0.0000
3.1034 0.0000 0.0000
3.1034 0.0690 0.0000
3.1034 0.1379 0.0000
3.1034 0.2069 0.0000
3.1034 0.2759 0.0000
3.1034 0.3448 0.0000
3.1034 0.4138 0.0000
3.1034 0.4828 0.0000
3.1034 0.5517 0.0000
3.1034 0.6207 0.0000
3.1034 0.6897 0.0000
3.1034 0.7586 0.0000
3.1034 0.8276 0.0000
3.1034 0.8966 0.0000
3.1034 0.9655 0.0000
3.1034 1.0345 0.0000
3.1034 1.1034 0.0000
3.1034 1.1724 0.0000
3.1034 1.2414 0.0000
3.1034 1.3103 0.0000
3.1034 1.3793 0.0000
3.1034 1.4483 0.0000
3.1034 1.5172 0.0000
3.1034 1.5862 0.0000
3.1034 1.6552 0.0000
3.1034 1.7241 0.0000
3.1034 1.7931 0.0000
3.1034 1.8621 0.0000
3.1034 1.9310 0.0000
3.1034 2.0000 0.0000
4.1379 0.0000 0.0000
4.1379 0.0690 0.0000
4.1379 0.1379 0.0000
4.1379 0.2069 0.0000
4.1379 0.2759 0.0000
4.1379 0.3448 0.0000
4.1379 0.4138 0.0000
4.1379 0.4828 0.0000
4.1379 0.5517 0.0000
4.1379 0.6207 0.0000
4.1379 0.6897 0.0000
4.1379 0.7586 0.0000
4.1379 0.8276 0.0000
4.1379 0.8966 0.0000
4.1379 0.9655 0.0000
4.1379 1.0345 0.0000
4.1379 1.1034 0.0000
4.1379 1.1724 0.0000
4.1379 1.2414 0.0000
4.1379 1.3103 0.0000
4.1379 1.3793 0.0000
4.1379 1.4483 0.0000
4.1379 1.5172 0.0000
4.1379 1.5862 0.0000
4.1379 1.6552 0.0000
4.1379 1.7241 0.0000
4.1379 1.7931 0.0000
4.1379 1.8621 0.0000
4.1379 1.9310 0.0000
4.1379 2.0000 0.0000
5.1724 0.0000 0.0000
5.1724 0.0690 0.0000
5.1724 0.1379 0.0000
5.1724 0.2069 0.0000
5.1724 0.2759 0.0000
5.1724 0.3448 0.0000
5.1724 0.4138 0.0000
5.1724 0.4828 0.0000
5.1724 0.5517 0.0000
5.1724 0.6207 0.0000
5.1724 0.6897 0.0000
5.1724 0.7586 0.0000
5.1724 0.8276 0.0000
5.1724 0.8966 0.0000
5.1724 0.9655 0.0000
5.1724 1.0345 0.0000
5.1724 1.1034 0.0000
5.1724 1.1724 0.0000
5.1724 1.2414 0.0000
5.1724 1.3103 0.0000
5.1724 1.3793 0.0000
5.1724 1.4483 0.0000
5.1724 1.5172 0.0000
5.1724 1.5862 0.0000
5.1724 1.6552 0.0000
5.1724 1.7241 0.0000
5.1724 1.7931 0.0000
5.1724 1.8621 0.0000
5.1724 1.9310 0.0000
5.1724 2.0000 0.0000
6.2069 0.0000 0.0000
6.2069 0.0690 0.0000
6.2069 0.1379 0.0000
6.2069 0.2069 0.0000
6.2069 0.2759 0.0000
6.2069 0.3448 0.0000
6.2069 0.4138 0.0000
6.2069 0.4828 0.0000
6.2069 0.5517 0.0000
6.2069 0.6207 0.0000
6.2069 0.6897 0.0000
6.2069 0.7586 0.0000
6.2069 0.8276 0.0000
6.2069 0.8966 0.0000
6.2069 0.9655 0.0000
6.2069 1.0345 0.0000
6.2069 1.1034 0.0000
6.2069 1.1724 0.0000
6.2069 1.2414 0.0000
6.2069 1.3103 0.0000
6.2069 1.3793 0.0000
6.2069 1.4483 0.0000
6.2069 1.5172 0.0000
6.2069 1.5862 0.0000
6.2069 1.6552 0.0000
6.2069 1.7241 0.0000
6.2069 1.7931 0.0000
6.2069 1.8621 0.0000
6.2069 1.9310 0.0000
6.2069 2.0000 0.0000
7.2414 0.0000 0.0000
7.2414 0.0690 0.0000
7.2414 0.1379 0.0000
7.2414 0.2069 0.0000
7.2414 0.2759 0.0000
7.2414 0.3448 0.0000
7.2414 0.4138 0.0000
7.2414 0.4828 0.0000
7.2414 0.5517 0.0000
7.2414 0.6207 0.0000
7.2414 0.6897 0.0000
7.2414 0.7586 0.0000
7.2414 0.8276 0.0000
7.2414 0.8966 0.0000
7.2414 0.9655 0.0000
7.2414 1.0345 0.0000
7.2414 1.1034 0.0000
7.2414 1.1724 0.0000
7.2414 1.2414 0.0000
7.2414 1.3103 0.0000
7.2414 1.3793 0.0000
7.2414 1.4483 0.0000
7.2414 1.5172 0.0000
7.2414 1.5862 0.0000
7.2414 1.6552 0.0000
7.2414 1.7241 0.0000
7.2414 1.7931 0.0000
7.2414 1.8621 0.0000
7.2414 1.9310 0.0000
7.2414 2.0000 0.0000
8.2759 0.0000 0.0000
8.2759 0.0690 0.0000
8.2759 0.1379 0.0000
8.2759 0.2069 0.0000
8.2759 0.2759 0.0000
8.2759 0.3448 0.0000
8.2759 0.4138 0.0000
8.2759 0.4828 0.0000
8.2759 0.5517 0.0000
8.2759 0.6207 0.0000
8.2759 0.6897 0.0000
8.2759 0.7586 0.0000
8.2759 0.8276 0.0000
8.2759 0.8966 0.0000
8.2759 0.9655 0.0000
8.2759 1.0345 0.0000
8.2759 1.1034 0.0000
8.2759 1.1724 0.0000
8.2759 1.2414 0.0000
8.2759 1.3103 0.0000
8.2759 1.3793 0.0000
8.2759 1.4483 0.0000
8.2759 1.5172 0.0000
8.2759 1.5862 0.0000
8.2759 1.6552 0.0000
8.2759 1.7241 0.0000
8.2759 1.7931 0.0000
8.2759 1.8621 0.0000
8.2759 1.9310 0.0000
8.2759 2.0000 0.0000
9.3103 0.0000 0.0000
9.3103 0.0690 0.0000
9.3103 0.1379 0.0000
9.3103 0.2069 0.0000
9.3103 0.2759 0.0000
9.3103 0.3448 0.0000
9.3103 0.4138 0.0000
9.3103 0.4828 0.0000
9.3103 0.5517 0.0000
9.3103 0.6207 0.0000
9.3103 0.6897 0.0000
9.3103 0.7586 0.0000
9.3103 0.8276 0.0000
9.3103 0.8966 0.0000
9.3103 0.9655 0.0000
9.3103 1.0345 0.0000
9.3103 1.1034 0.0000
9.3103 1.1724 0.0000
9.3103 1.2414 0.0000
9.3103 1.3103 0.0000
9.3103 1.3793 0.0000
9.3103 1.4483 0.0000
9.3103 1.5172 0.0000
9.3103 1.5862 0.0000
9.3103 1.6552 0.0000
9.3103 1.7241 0.0000
9.3103 1.7931 0.0000
9.3103 1.8621 0.0000
9.3103 1.9310 0.0000
9.3103 2.0000 0.0000
10.3448 0.0000 0.0000
10.3448 0.0690 0.0000
10.3448 0.1379 0.0000
10.3448 0.2069 0.0000
10.3448 0.2759 0.0000
10.3448 0.3448 0.0000
10.3448 0.4138 0.0000
10.3448 0.4828 0.0000
10.3448 0.5517 0.0000
10.3448 0.6207 0.0000
10.3448 0.6897 0.0000
10.3448 0.7586 0.0000
10.3448 0.8276 0.0000
10.3448 0.8966 0.0000
10.3448 0.9655 0.0000
10.3448 1.0345 0.0000
10.3448 1.1034 0.0000
10.3448 1.1724 0.0000
10.3448 1.2414 0.0000
10.3448 1.3103 0.0000
10.3448 1.3793 0.0000
10.3448 1.4483 0.0000
10.3448 1.5172 0.0000
10.3448 1.5862 0.0000
10.3448 1.6552 0.0000
10.3448 1.7241 0.0000
10.3448 1.7931 0.0000
10.3448 1.8621 0.0000
10.3448 1.9310 0.0000
10.3448 2.0000 0.0000
11.3793 0.0000 0.0000
11.3793 0.0690 0.0000
11.3793 0.1379 0.0000
11.3793 0.2069 0.0000
11.3793 0.2759 0.0000
11.3793 0.3448 0.0000
11.3793 0.4138 0.0000
11.3793 0.4828 0.0000
11.3793 0.5517 0.0000
11.3793 0.6207 0.0000
11.3793 0.6897 0.0000
11.3793 0.7586 0.0000
11.3793 0.8276 0.0000
11.3793 0.8966 0.0000
11.3793 0.9655 0.0000
11.3793 1.0345 0.0000
11.3793 1.1034 0.0000
11.3793 1.1724 0.0000
11.3793 1.2414 0.0000
11.3793 1.3103 0.0000
11.3793 1.3793 0.0000
11.3793 1.4483 0.0000
11.3793 1.5172 0.0000
11.3793 1.5862 0.0000
11.3793 1.6552 0.0000
11.3793 1.7241 0.0000
11.3793 1.7931 0.0000
11.3793 1.8621 0.0000
11.3793 1.9310 0.0000
11.3793 2.0000 0.0000
12.4138 0.0000 0.0000
12.4138 0.0690 0.0000
12.4138 0.1379 0.0000
12.4138 0.2069 0.0000
12.4138 0.2759 0.0000
12.4138 0.3448 0.0000
12.4138 0.4138 0.0000
12.4138 0.4828 0.0000
12.4138 0.5517 0.0000
12.4138 0.6207 0.0000
12.4138 0.6897 0.0000
12.4138 0.7586 0.0000
12.4138 0.8276 0.0000
12.4138 0.8966 0.0000
12.4138 0.9655 0.0000
12.4138 1.0345 0.0000
12.4138 1.1034 0.0000
12.4138 1.1724 0.0000
12.4138 1.2414 0.0000
12.4138 1.3103 0.0000
12.4138 1.3793 0.0000
12.4138 1.4483 0.0000
12.4138 1.5172 0.0000
12.4138 1.5862 0.0000
12.4138 1.6552 0.0000
12.4138 1.7241 0.0000
12.4138 1.7931 0.0000
12.4138 1.8621 0.0000
12.4138 1.9310 0.0000
12.4138 2.0000 0.0000
13.4483 0.0000 0.0000
13.4483 0.0690 0.0000
13.4483 0.1379 0.0000
13.4483 0.2069 0.0000
13.4483 0.2759 0.0000
13.4483 0.3448 0.0000
13.4483 0.4138 0.0000
13.4483 0.4828 0.0000
13.4483 0.5517 0.0000
13.4483 0.6207 0.0000
13.4483 0.6897 0.0000
13.4483 0.7586 0.0000
13.4483 0.8276 0.0000
13.4483 0.8966 0.0000
13.4483 0.9655 0.0000
13.4483 1.0345 0.0000
13.4483 1.1034 0.0000
13.4483 1.1724 0.0000
13.4483 1.2414 0.0000
13.4483 1.3103 0.0000
13.4483 1.3793 0.0000
13.4483 1.4483 0.0000
13.4483 1.5172 0.0000
13.4483 1.5862 0.0000
13.4483 1.6552 0.0000
13.4483 1.7241 0.0000
13.4483 1.7931 0.0000
13.4483 1.8621 0.0000
13.4483 1.9310 0.0000
13.4483 2.0000 0.0000
14.4828 0.0000 0.0000
14.4828 0.0690 0.0000
14.4828 0.1379 0.0000
14.4828 0.2069 0.0000
14.4828 0.2759 0.0000
14.4828 0.3448 0.0000
14.4828 0.4138 0.0000
14.4828 0.4828 0.0000
14.4828 0.5517 0.0000
14.4828 0.6207 0.0000
14.4828 0.6897 0.0000
14.4828 0.7586 0.0000
14.4828 0.8276 0.0000
14.4828 0.8966 0.0000
14.4828 0.9655 0.0000
14.4828 1.0345 0.0000
14.4828 1.1034 0.0000
14.4828 1.1724 0.0000
14.4828 1.2414 0.0000
14.4828 1.3103 0.0000
14.4828 1.3793 0.0000
14.4828 1.4483 0.0000
14.4828 1.5172 0.0000
14.4828 1.5862 0.0000
14.4828 1.6552 0.0000
14.4828 1.7241 0.0000
14.4828 1.7931 0.0000
14.4828 1.8621 0.0000
14.4828 1.9310 0.0000
14.4828 2.0000 0.0000
15.5172 0.0000 0.0000
15.5172 0.0690 0.0000
15.5172 0.1379 0.0000
15.5172 0.2069 0.0000
[...]
         <PointData>
            <DataArray Name="fValues" NumberOfComponents="3" format="ascii" type="Float64">
 5.69546e-15 -1.16470e-15        00000 
-5.50342e-15 -1.10068e-15        00000 
-2.44899e-15 -3.80954e-15        00000 
 3.29920e-15 -3.12826e-15        00000 
-1.90477e-15  7.61907e-15        00000 
 2.71504e-15 -9.21764e-15        00000 
-2.44899e-15  2.72110e-15        00000 
 4.17101e-15  1.07694e-15        00000 
-3.40137e-15 -8.16329e-16        00000 
 3.18459e-15 -1.88717e-16        00000 
-1.90477e-15 -1.63266e-15        00000 
 1.72225e-15  3.04279e-15        00000 
-1.12245e-15  2.72110e-16        00000 
 2.63617e-16 -1.22117e-15        00000 
 2.04082e-16  5.44220e-16        00000 
-8.11979e-17 -1.72652e-15        00000 
       00000 -2.17688e-15        00000 
-4.56378e-17  3.65237e-15        00000 
-8.50343e-17 -5.44220e-16        00000 
-2.60688e-16  1.19660e-16        00000 
       00000 -1.08844e-15        00000 
 5.31540e-16 -4.88748e-15        00000 
-2.04082e-16 -8.16329e-16        00000 
-1.32481e-16  2.11969e-15        00000 
 4.08165e-16 -1.36055e-15        00000 
 1.18662e-15  2.48334e-15        00000 
 2.72110e-15 -1.90477e-15        00000 
-4.39287e-15  5.82290e-15        00000 
 1.57805e-15 -2.53861e-15        00000 
-3.94513e-16  5.67420e-15        00000 
 2.80335e+01  2.54202e+01        00000 
 2.55913e+01  2.45334e+01        00000 
 2.33258e+01  2.37250e+01        00000 
 2.11757e+01  2.29402e+01        00000 
 1.91427e+01  2.22443e+01        00000 
 1.72356e+01  2.16182e+01        00000 
 1.53422e+01  2.10543e+01        00000 
 1.35029e+01  2.05494e+01        00000 
 1.18340e+01  2.01375e+01        00000 
 1.02449e+01  1.97888e+01        00000 
 8.63075e+00  1.95134e+01        00000 
 6.95533e+00  1.93001e+01        00000 
 5.40804e+00  1.91085e+01        00000 
 3.97418e+00  1.89753e+01        00000 
 2.53283e+00  1.88370e+01        00000 
 1.12380e+00  1.87602e+01        00000 
-1.73232e-01  1.87281e+01        00000 
-1.56784e+00  1.87391e+01        00000 
-3.03955e+00  1.88168e+01        00000 
-4.49807e+00  1.89228e+01        00000 
-5.87677e+00  1.90913e+01        00000 
-7.34054e+00  1.92844e+01        00000 
-8.89140e+00  1.95333e+01        00000 
-1.05041e+01  1.98530e+01        00000 
-1.20982e+01  2.02269e+01        00000 
-1.36840e+01  2.06614e+01        00000 
-1.52620e+01  2.11594e+01        00000 
-1.68959e+01  2.17235e+01        00000 
-1.87910e+01  2.23175e+01        00000 
-2.09617e+01  2.29831e+01        00000 
 4.95983e+01  6.57360e+01        00000 
 4.65237e+01  6.51461e+01        00000 
 4.32876e+01  6.45926e+01        00000 
 4.01057e+01  6.40070e+01        00000 
 3.69762e+01  6.34723e+01        00000 
 3.38602e+01  6.29585e+01        00000 
 3.08073e+01  6.24547e+01        00000 
 2.77130e+01  6.19678e+01        00000 
 2.47532e+01  6.15261e+01        00000 
 2.18754e+01  6.10688e+01        00000 
 1.89292e+01  6.06438e+01        00000 
 1.60006e+01  6.02746e+01        00000 
 1.30861e+01  5.99508e+01        00000 
 1.01141e+01  5.97043e+01        00000 
 7.14490e+00  5.94960e+01        00000 
 4.24273e+00  5.93447e+01        00000 
 1.32865e+00  5.92352e+01        00000 
-1.52226e+00  5.91311e+01        00000 
-4.29711e+00  5.90435e+01        00000 
-7.15290e+00  5.90441e+01        00000 
-1.01399e+01  5.90971e+01        00000 
-1.31345e+01  5.92106e+01        00000 
-1.62210e+01  5.93841e+01        00000 
-1.93626e+01  5.96052e+01        00000 
-2.23840e+01  5.98505e+01        00000 
-2.54744e+01  6.01404e+01        00000 
-2.84896e+01  6.04755e+01        00000 
-3.15508e+01  6.08733e+01        00000 
-3.46560e+01  6.13001e+01        00000 
-3.76998e+01  6.17226e+01        00000 
 7.05317e+01  1.22015e+02        00000 
 6.61291e+01  1.21480e+02        00000 
 6.18521e+01  1.20964e+02        00000 
 5.76426e+01  1.20520e+02        00000 
 5.34425e+01  1.20094e+02        00000 
 4.93022e+01  1.19704e+02        00000 
 4.50449e+01  1.19335e+02        00000 
 4.08052e+01  1.19013e+02        00000 
 3.65832e+01  1.18703e+02        00000 
 3.22653e+01  1.18450e+02        00000 
 2.80394e+01  1.18209e+02        00000 
 2.39835e+01  1.17968e+02        00000 
 1.98737e+01  1.17743e+02        00000 
 1.58162e+01  1.17490e+02        00000 
 1.17862e+01  1.17273e+02        00000 
 7.67358e+00  1.17068e+02        00000 
 3.66266e+00  1.16871e+02        00000 
-2.73071e-01  1.16729e+02        00000 
-4.29042e+00  1.16621e+02        00000 
-8.43669e+00  1.16553e+02        00000 
-1.27215e+01  1.16494e+02        00000 
-1.69153e+01  1.16508e+02        00000 
-2.09652e+01  1.16542e+02        00000 
-2.50560e+01  1.16613e+02        00000 
-2.92630e+01  1.16740e+02        00000 
-3.34863e+01  1.16885e+02        00000 
-3.78151e+01  1.17077e+02        00000 
-4.20856e+01  1.17282e+02        00000 
-4.63739e+01  1.17561e+02        00000 
-5.07735e+01  1.17882e+02        00000 
 8.58587e+01  1.94137e+02        00000 
 8.04893e+01  1.93817e+02        00000 
 7.52153e+01  1.93464e+02        00000 
 7.00922e+01  1.93177e+02        00000 
 6.50204e+01  1.92902e+02        00000 
 5.99189e+01  1.92649e+02        00000 
 5.48650e+01  1.92398e+02        00000 
 4.99164e+01  1.92169e+02        00000 
 4.48954e+01  1.91950e+02        00000 
 4.00952e+01  1.91741e+02        00000 
 3.52490e+01  1.91578e+02        00000 
 3.03951e+01  1.91453e+02        00000 
 2.55115e+01  1.91380e+02        00000 
 2.06958e+01  1.91329e+02        00000 
 1.58994e+01  1.91321e+02        00000 
 1.10563e+01  1.91316e+02        00000 
 6.16360e+00  1.91310e+02        00000 
 1.20563e+00  1.91310e+02        00000 
-3.75199e+00  1.91350e+02        00000 
-8.68411e+00  1.91365e+02        00000 
-1.35840e+01  1.91382e+02        00000 
-1.84613e+01  1.91418e+02        00000 
-2.33991e+01  1.91468e+02        00000 
-2.84163e+01  1.91538e+02        00000 
-3.35302e+01  1.91645e+02        00000 
-3.86450e+01  1.91775e+02        00000 
-4.37489e+01  1.91911e+02        00000 
-4.89363e+01  1.92033e+02        00000 
-5.41446e+01  1.92175e+02        00000 
-5.93811e+01  1.92341e+02        00000 
 9.52380e+01  2.77705e+02        00000 
 8.98089e+01  2.77463e+02        00000 
 8.43668e+01  2.77218e+02        00000 
 7.88291e+01  2.76951e+02        00000 
 7.33347e+01  2.76705e+02        00000 
 6.78746e+01  2.76463e+02        00000 
 6.24066e+01  2.76227e+02        00000 
 5.68757e+01  2.76012e+02        00000 
 5.14164e+01  2.75807e+02        00000 
 4.59781e+01  2.75590e+02        00000 
 4.05037e+01  2.75390e+02        00000 
 3.50499e+01  2.75216e+02        00000 
 2.96013e+01  2.75025e+02        00000 
 2.42107e+01  2.74868e+02        00000 
 1.87841e+01  2.74700e+02        00000 
 1.34533e+01  2.74552e+02        00000 
 8.11654e+00  2.74414e+02        00000 
 2.75996e+00  2.74285e+02        00000 
-2.66185e+00  2.74186e+02        00000 
-7.88657e+00  2.74070e+02        00000 
-1.29983e+01  2.74018e+02        00000 
-1.82551e+01  2.73968e+02        00000 
-2.36180e+01  2.73918e+02        00000 
-2.88681e+01  2.73844e+02        00000 
-3.41035e+01  2.73741e+02        00000 
-3.93250e+01  2.73667e+02        00000 
-4.46515e+01  2.73611e+02        00000 
-5.00582e+01  2.73574e+02        00000 
-5.55776e+01  2.73530e+02        00000 
-6.10241e+01  2.73485e+02        00000 
 9.99794e+01  3.60039e+02        00000 
 9.44282e+01  3.59992e+02        00000 
 8.89955e+01  3.59963e+02        00000 
 8.36209e+01  3.59914e+02        00000 
 7.82543e+01  3.59869e+02        00000 
 7.28148e+01  3.59828e+02        00000 
 6.72586e+01  3.59782e+02        00000 
 6.17395e+01  3.59729e+02        00000 
 5.62227e+01  3.59688e+02        00000 
 5.06300e+01  3.59648e+02        00000 
 4.52232e+01  3.59600e+02        00000 
 3.98757e+01  3.59510e+02        00000 
 3.43720e+01  3.59379e+02        00000 
 2.87887e+01  3.59246e+02        00000 
 2.32251e+01  3.59129e+02        00000 
 1.77011e+01  3.58975e+02        00000 
 1.21811e+01  3.58857e+02        00000 
 6.76887e+00  3.58754e+02        00000 
 1.50839e+00  3.58621e+02        00000 
-3.81649e+00  3.58502e+02        00000 
-9.16497e+00  3.58392e+02        00000 
-1.44659e+01  3.58298e+02        00000 
-1.96514e+01  3.58213e+02        00000 
-2.49222e+01  3.58158e+02        00000 
-3.02596e+01  3.58109e+02        00000 
-3.56878e+01  3.58073e+02        00000 
-4.12731e+01  3.58046e+02        00000 
-4.67694e+01  3.57970e+02        00000 
-5.22789e+01  3.57853e+02        00000 
-5.78231e+01  3.57703e+02        00000 
 9.87862e+01  4.43391e+02        00000 
 9.33958e+01  4.43536e+02        00000 
 8.79880e+01  4.43677e+02        00000 
 8.25560e+01  4.43832e+02        00000 
 7.72802e+01  4.43954e+02        00000 
 7.20945e+01  4.44058e+02        00000 
 6.70224e+01  4.44137e+02        00000 
 6.19292e+01  4.44240e+02        00000 
 5.68162e+01  4.44308e+02        00000 
 5.18151e+01  4.44333e+02        00000 
 4.68586e+01  4.44351e+02        00000 
 4.18181e+01  4.44374e+02        00000 
 3.68054e+01  4.44364e+02        00000 
 3.16874e+01  4.44327e+02        00000 
 2.66519e+01  4.44261e+02        00000 
 2.15622e+01  4.44148e+02        00000 
 1.64611e+01  4.43996e+02        00000 
 1.13436e+01  4.43816e+02        00000 
 6.12145e+00  4.43583e+02        00000 
 9.12800e-01  4.43353e+02        00000 
-4.20159e+00  4.43071e+02        00000 
-9.35074e+00  4.42785e+02        00000 
-1.44966e+01  4.42530e+02        00000 
-1.96410e+01  4.42255e+02        00000 
-2.48182e+01  4.41992e+02        00000 
-3.00040e+01  4.41686e+02        00000 
-3.51984e+01  4.41401e+02        00000 
-4.03812e+01  4.41095e+02        00000 
-4.56432e+01  4.40821e+02        00000 
-5.10120e+01  4.40553e+02        00000 
 9.05293e+01  5.20134e+02        00000 
 8.58037e+01  5.20417e+02        00000 
 8.11191e+01  5.20648e+02        00000 
 7.63715e+01  5.20844e+02        00000 
 7.18356e+01  5.21009e+02        00000 
 6.74311e+01  5.21144e+02        00000 
 6.30636e+01  5.21235e+02        00000 
 5.88270e+01  5.21308e+02        00000 
 5.46757e+01  5.21388e+02        00000 
 5.05019e+01  5.21433e+02        00000 
 4.62933e+01  5.21465e+02        00000 
 4.20381e+01  5.21460e+02        00000 
 3.78105e+01  5.21449e+02        00000 
 3.35630e+01  5.21377e+02        00000 
 2.92676e+01  5.21273e+02        00000 
 2.49608e+01  5.21170e+02        00000 
 2.06806e+01  5.21050e+02        00000 
 1.63220e+01  5.20881e+02        00000 
 1.19559e+01  5.20709e+02        00000 
 7.50919e+00  5.20519e+02        00000 
 2.99563e+00  5.20286e+02        00000 
-1.54868e+00  5.20032e+02        00000 
-6.13638e+00  5.19729e+02        00000 
-1.07550e+01  5.19434e+02        00000 
-1.54097e+01  5.19128e+02        00000 
-2.00602e+01  5.18787e+02        00000 
-2.47096e+01  5.18444e+02        00000 
-2.94005e+01  5.18094e+02        00000 
-3.41073e+01  5.17694e+02        00000 
-3.88462e+01  5.17266e+02        00000 
 7.78253e+01  5.82914e+02        00000 
 7.41772e+01  5.83382e+02        00000 
 7.06030e+01  5.83795e+02        00000 
 6.72339e+01  5.84180e+02        00000 
 6.38062e+01  5.84533e+02        00000 
 6.02579e+01  5.84840e+02        00000 
 5.68125e+01  5.85111e+02        00000 
 5.33487e+01  5.85344e+02        00000 
 4.98182e+01  5.85545e+02        00000 
 4.64600e+01  5.85739e+02        00000 
 4.31855e+01  5.85882e+02        00000 
 3.99866e+01  5.85982e+02        00000 
 3.67823e+01  5.85995e+02        00000 
 3.35006e+01  5.86021e+02        00000 
 3.01491e+01  5.85984e+02        00000 
 2.69397e+01  5.85936e+02        00000 
 2.37098e+01  5.85822e+02        00000 
 2.04567e+01  5.85660e+02        00000 
 1.72725e+01  5.85473e+02        00000 
 1.40085e+01  5.85217e+02        00000 
 1.06805e+01  5.84966e+02        00000 
 7.34797e+00  5.84690e+02        00000 
 4.01564e+00  5.84404e+02        00000 
 6.43849e-01  5.84064e+02        00000 
-2.88605e+00  5.83692e+02        00000 
-6.51352e+00  5.83273e+02        00000 
-1.01570e+01  5.82809e+02        00000 
-1.37685e+01  5.82326e+02        00000 
-1.73736e+01  5.81776e+02        00000 
-2.09045e+01  5.81217e+02        00000 
 5.72926e+01  6.26068e+02        00000 
 5.52387e+01  6.26755e+02        00000 
 5.32441e+01  6.27428e+02        00000 
 5.12775e+01  6.28009e+02        00000 
 4.92668e+01  6.28542e+02        00000 
 4.72450e+01  6.28979e+02        00000 
 4.54017e+01  6.29414e+02        00000 
 4.34715e+01  6.29777e+02        00000 
 4.14967e+01  6.30055e+02        00000 
 3.95277e+01  6.30244e+02        00000 
 3.77141e+01  6.30414e+02        00000 
 3.58588e+01  6.30583e+02        00000 
 3.38657e+01  6.30714e+02        00000 
 3.18644e+01  6.30801e+02        00000 
 3.00453e+01  6.30851e+02        00000 
 2.81528e+01  6.30842e+02        00000 
 2.61219e+01  6.30753e+02        00000 
 2.41436e+01  6.30615e+02        00000 
 2.20940e+01  6.30433e+02        00000 
 2.00143e+01  6.30220e+02        00000 
 1.79140e+01  6.29970e+02        00000 
 1.59216e+01  6.29670e+02        00000 
 1.38314e+01  6.29357e+02        00000 
 1.17173e+01  6.28961e+02        00000 
 9.66258e+00  6.28521e+02        00000 
 7.52175e+00  6.28106e+02        00000 
 5.34835e+00  6.27613e+02        00000 
 3.05935e+00  6.27121e+02        00000 
 8.64554e-01  6.26572e+02        00000 
-1.36287e+00  6.26004e+02        00000 
 3.14587e+01  6.44895e+02        00000 
 3.08843e+01  6.45731e+02        00000 
 3.04198e+01  6.46512e+02        00000 
 2.99759e+01  6.47313e+02        00000 
 2.95585e+01  6.48045e+02        00000 
 2.92252e+01  6.48755e+02        00000 
 2.88618e+01  6.49387e+02        00000 
 2.86450e+01  6.50004e+02        00000 
 2.84153e+01  6.50530e+02        00000 
 2.81916e+01  6.51023e+02        00000 
 2.78730e+01  6.51458e+02        00000 
 2.74799e+01  6.51897e+02        00000 
 2.72063e+01  6.52296e+02        00000 
 2.69469e+01  6.52630e+02        00000 
 2.65064e+01  6.52897e+02        00000 
 2.61251e+01  6.53098e+02        00000 
 2.58566e+01  6.53260e+02        00000 
 2.54699e+01  6.53350e+02        00000 
 2.50083e+01  6.53384e+02        00000 
 2.45457e+01  6.53321e+02        00000 
 2.40736e+01  6.53171e+02        00000 
 2.35405e+01  6.52988e+02        00000 
 2.31091e+01  6.52759e+02        00000 
 2.26672e+01  6.52467e+02        00000 
 2.20892e+01  6.52152e+02        00000 
 2.15523e+01  6.51764e+02        00000 
 2.09342e+01  6.51340e+02        00000 
 2.02734e+01  6.50835e+02        00000 
 1.96563e+01  6.50299e+02        00000 
 1.89507e+01  6.49708e+02        00000 
-7.68018e-03  6.41477e+02        00000 
 1.19185e+00  6.42518e+02        00000 
 2.41547e+00  6.43480e+02        00000 
 3.76911e+00  6.44412e+02        00000 
 5.18820e+00  6.45285e+02        00000 
 6.63069e+00  6.46114e+02        00000 
 8.09995e+00  6.46879e+02        00000 
 9.63539e+00  6.47591e+02        00000 
 1.11177e+01  6.48280e+02        00000 
 1.25958e+01  6.48901e+02        00000 
 1.39930e+01  6.49460e+02        00000 
 1.54967e+01  6.49873e+02        00000 
 1.69370e+01  6.50219e+02        00000 
 1.84748e+01  6.50495e+02        00000 
 2.00123e+01  6.50713e+02        00000 
 2.15540e+01  6.50861e+02        00000 
 2.30298e+01  6.50928e+02        00000 
 2.45017e+01  6.50953e+02        00000 
 2.59785e+01  6.50945e+02        00000 
 2.74383e+01  6.50911e+02        00000 
 2.88336e+01  6.50856e+02        00000 
 3.02705e+01  6.50749e+02        00000 
 3.17294e+01  6.50541e+02        00000 
 3.30821e+01  6.50294e+02        00000 
 3.44072e+01  6.49995e+02        00000 
 3.57258e+01  6.49642e+02        00000 
 3.69397e+01  6.49235e+02        00000 
 3.82041e+01  6.48738e+02        00000 
 3.94004e+01  6.48155e+02        00000 
 4.06213e+01  6.47524e+02        00000 
-3.76874e+01  6.07769e+02        00000 
-3.42697e+01  6.08902e+02        00000 
-3.07139e+01  6.09961e+02        00000 
-2.71684e+01  6.10928e+02        00000 
-2.37306e+01  6.11854e+02        00000 
-2.03724e+01  6.12708e+02        00000 
-1.69581e+01  6.13471e+02        00000 
-1.34659e+01  6.14157e+02        00000 
-9.97027e+00  6.14770e+02        00000 
-6.46151e+00  6.15301e+02        00000 
-2.86108e+00  6.15774e+02        00000 
 5.77068e-01  6.16219e+02        00000 
 4.08771e+00  6.16596e+02        00000 
 7.58673e+00  6.16919e+02        00000 
 1.10685e+01  6.17184e+02        00000 
 1.45505e+01  6.17402e+02        00000 
 1.80007e+01  6.17572e+02        00000 
 2.15615e+01  6.17684e+02        00000 
 2.51318e+01  6.17683e+02        00000 
 2.87144e+01  6.17631e+02        00000 
 3.22930e+01  6.17525e+02        00000 
 3.58791e+01  6.17323e+02        00000 
 3.94386e+01  6.17115e+02        00000 
 4.28814e+01  6.16843e+02        00000 
 4.62278e+01  6.16496e+02        00000 
 4.96415e+01  6.16085e+02        00000 
 5.30403e+01  6.15607e+02        00000 
 5.63742e+01  6.15075e+02        00000 
 5.97408e+01  6.14468e+02        00000 
 6.30927e+01  6.13805e+02        00000 
-7.65781e+01  5.38999e+02        00000 
-7.08580e+01  5.40139e+02        00000 
-6.51456e+01  5.41233e+02        00000 
-5.96058e+01  5.42224e+02        00000 
-5.41242e+01  5.43195e+02        00000 
-4.86807e+01  5.44091e+02        00000 
-4.32351e+01  5.44916e+02        00000 
-3.76722e+01  5.45672e+02        00000 
-3.20213e+01  5.46399e+02        00000 
-2.64451e+01  5.47061e+02        00000 
-2.08361e+01  5.47652e+02        00000 
-1.51845e+01  5.48195e+02        00000 
-9.51901e+00  5.48682e+02        00000 
-3.86908e+00  5.49090e+02        00000 
 1.78733e+00  5.49420e+02        00000 
 7.38222e+00  5.49673e+02        00000 
 1.30646e+01  5.49890e+02        00000 
 1.86490e+01  5.50045e+02        00000 
 2.42181e+01  5.50121e+02        00000 
 2.98724e+01  5.50138e+02        00000 
 3.56297e+01  5.50084e+02        00000 
 4.13507e+01  5.49962e+02        00000 
 4.71089e+01  5.49771e+02        00000 
 5.29390e+01  5.49523e+02        00000 
 5.88300e+01  5.49176e+02        00000 
 6.45809e+01  5.48745e+02        00000 
 7.04090e+01  5.48253e+02        00000 
 7.62209e+01  5.47690e+02        00000 
 8.19204e+01  5.47090e+02        00000 
 8.75614e+01  5.46385e+02        00000 
-1.15643e+02  4.39365e+02        00000 
-1.07874e+02  4.40520e+02        00000 
-1.00205e+02  4.41616e+02        00000 
-9.24068e+01  4.42682e+02        00000 
-8.46085e+01  4.43614e+02        00000 
-7.68374e+01  4.44511e+02        00000 
-6.89077e+01  4.45334e+02        00000 
-6.11526e+01  4.46140e+02        00000 
-5.34147e+01  4.46857e+02        00000 
-4.56165e+01  4.47509e+02        00000 
-3.78745e+01  4.48083e+02        00000 
-3.01201e+01  4.48582e+02        00000 
-2.23012e+01  4.48995e+02        00000 
-1.43893e+01  4.49361e+02        00000 
-6.56729e+00  4.49645e+02        00000 
 1.29144e+00  4.49851e+02        00000 
 9.07254e+00  4.49982e+02        00000 
 1.67883e+01  4.50021e+02        00000 
 2.45544e+01  4.50046e+02        00000 
 3.23952e+01  4.49994e+02        00000 
 4.02447e+01  4.49898e+02        00000 
 4.81351e+01  4.49722e+02        00000 
 5.60536e+01  4.49479e+02        00000 
 6.39952e+01  4.49151e+02        00000 
 7.20122e+01  4.48778e+02        00000 
 7.99727e+01  4.48347e+02        00000 
 8.79031e+01  4.47856e+02        00000 
 9.57585e+01  4.47266e+02        00000 
 1.03569e+02  4.46617e+02        00000 
 1.11439e+02  4.45871e+02        00000 
-1.56270e+02  3.04244e+02        00000 
-1.46219e+02  3.05425e+02        00000 
-1.36096e+02  3.06512e+02        00000 
-1.25850e+02  3.07553e+02        00000 
-1.15584e+02  3.08536e+02        00000 
-1.05415e+02  3.09482e+02        00000 
-9.52916e+01  3.10335e+02        00000 
-8.50873e+01  3.11111e+02        00000 
-7.49494e+01  3.11813e+02        00000 
-6.48080e+01  3.12455e+02        00000 
-5.46282e+01  3.13037e+02        00000 
-4.44771e+01  3.13544e+02        00000 
-3.42178e+01  3.14011e+02        00000 
-2.40028e+01  3.14423e+02        00000 
-1.37681e+01  3.14745e+02        00000 
-3.65203e+00  3.15027e+02        00000 
 6.43323e+00  3.15250e+02        00000 