<?xml version="1.0" encoding="utf-8"?>
<VTKFile byte_order="LittleEndian" type="UnstructuredGrid" version="0.1">
   <UnstructuredGrid>
      <Piece NumberOfCells="3364" NumberOfPoints="1741">
         <Points>
            <DataArray Name="Points" NumberOfComponents="3" format="ascii" type="Float32">
0.0000 0.0000 0.0000
0.0000 0.0690 0.0000
0.0000 0.1379 0.0000
0.0000 0.2069 0.0000
0.0000 0.2759 0.0000
0.0000 0.3448 0.0000
0.0000 0.4138 0.0000
0.0000 0.4828 0.0000
0.0000 0.5517 0.0000
0.0000 0.6207 0.0000
0.0000 0.6897 0.0000
0.0000 0.7586 0.0000
0.0000 0.8276 0.0000
0.0000 0.8966 0.0000
0.0000 0.9655 0.0000
0.0000 1.0345 0.0000
0.0000 1.1034 0.0000
0.0000 1.1724 0.0000
0.0000 1.2414 0.0000
0.0000 1.3103 0.0000
0.0000 1.3793 0.0000
0.0000 1.4483 0.0000
0.0000 1.5172 0.0000
0.0000 1.5862 0.0000
0.0000 1.6552 0.0000
0.0000 1.7241 0.0000
0.0000 1.7931 0.0000
0.0000 1.8621 0.0000
0.0000 1.9310 0.0000
0.0000 2.0000 0.0000
1.0345 0.0000 0.0000
1.0345 0.0690 0.0000
1.0345 0.1379 0.0000
1.0345 0.2069 0.0000
1.0345 0.2759 0.0000
1.0345 0.3448 0.0000
1.0345 0.4138 0.0000
1.0345 0.4828 0.0000
1.0345 0.5517 0.0000
1.0345 0.6207 0.0000
1.0345 0.6897 0.0000
1.0345 0.7586 0.0000
1.0345 0.8276 0.0000
1.0345 0.8966 0.0000
1.0345 0.9655 0.0000
1.0345 1.0345 0.0000
1.0345 1.1034 0.0000
1.0345 1.1724 0.0000
1.0345 1.2414 0.0000
1.0345 1.3103 0.0000
1.0345 1.3793 0.0000
1.0345 1.4483 0.0000
1.0345 1.5172 0.0000
1.0345 1.5862 0.0000
1.0345 1.6552 0.0000
1.0345 1.7241 0.0000
1.0345 1.7931 0.0000
1.0345 1.8621 0.0000
1.0345 1.9310 0.0000
1.0345 2.0000 0.0000
2.0690 0.0000 0.0000
2.0690 0.0690 0.0000
2.0690 0.1379 0.0000
2.0690 0.2069 0.0000
2.0690 0.2759 0.0000
2.0690 0.3448 0.0000
2.0690 0.4138 0.0000
2.0690 0.4828 0.0000
2.0690 0.5517 0.0000
2.0690 0.6207 0.0000
2.0690 0.6897 0.0000
2.0690 0.7586 0.0000
2.0690 0.8276 0.0000
2.0690 0.8966 0.0000
2.0690 0.9655 0.0000
2.0690 1.0345 0.0000
2.0690 1.1034 0.0000
2.0690 1.1724 0.0000
2.0690 1.2414 0.0000
2.0690 1.3103 0.0000
2.0690 1.3793 0.0000
2.0690 1.4483 0.0000
2.0690 1.5172 0.0000
2.0690 1.5862 0.0000
2.0690 1.6552 0.0000
2.0690 1.7241 0.0000
2.0690 1.7931 0.0000
2.0690 1.8621 0.0000
2.0690 1.9310 0.0000
2.0690 2.0000 0.0000
3.1034 0.0000 0.0000
3.1034 0.0690 0.0000
3.1034 0.1379 0.0000
3.1034 0.2069 0.0000
3.1034 0.2759 0.0000
3.1034 0.3448 0.0000
3.1034 0.4138 0.0000
3.1034 0.4828 0.0000
3.1034 0.5517 0.0000
3.1034 0.6207 0.0000
3.1034 0.6897 0.0000
3.1034 0.7586 0.0000
3.1034 0.8276 0.0000
3.1034 0.8966 0.0000
3.1034 0.9655 0.0000
3.1034 1.0345 0.0000
3.1034 1.1034 0.0000
3.1034 1.1724 0.0000
3.1034 1.2414 0.0000
3.1034 1.3103 0.0000
3.1034 1.3793 0.0000
3.1034 1.4483 0.0000
3.1034 1.5172 0.0000
3.1034 1.5862 0.0000
3.1034 1.6552 0.0000
3.1034 1.7241 0.0000
3.1034 1.7931 0.0000
3.1034 1.8621 0.0000
3.1034 1.9310 0.0000
3.1034 2.0000 0.0000
4.1379 0.0000 0.0000
4.1379 0.0690 0.0000
4.1379 0.1379 0.0000
4.1379 0.2069 0.0000
4.1379 0.2759 0.0000
4.1379 0.3448 0.0000
4.1379 0.4138 0.0000
4.1379 0.4828 0.0000
4.1379 0.5517 0.0000
4.1379 0.6207 0.0000
4.1379 0.6897 0.0000
4.1379 0.7586 0.0000
4.1379 0.8276 0.0000
4.1379 0.8966 0.0000
4.1379 0.9655 0.0000
4.1379 1.0345 0.0000
4.1379 1.1034 0.0000
4.1379 1.1724 0.0000
4.1379 1.2414 0.0000
4.1379 1.3103 0.0000
4.1379 1.3793 0.0000
4.1379 1.4483 0.0000
4.1379 1.5172 0.0000
4.1379 1.5862 0.0000
4.1379 1.6552 0.0000
4.1379 1.7241 0.0000
4.1379 1.7931 0.0000
4.1379 1.8621 0.0000
4.1379 1.9310 0.0000
4.1379 2.0000 0.0000
5.1724 0.0000 0.0000
5.1724 0.0690 0.0000
5.1724 0.1379 0.0000
5.1724 0.2069 0.0000
5.1724 0.2759 0.0000
5.1724 0.3448 0.0000
5.1724 0.4138 0.0000
5.1724 0.4828 0.0000
5.1724 0.5517 0.0000
5.1724 0.6207 0.0000
5.1724 0.6897 0.0000
5.1724 0.7586 0.0000
5.1724 0.8276 0.0000
5.1724 0.8966 0.0000
5.1724 0.9655 0.0000
5.1724 1.0345 0.0000
5.1724 1.1034 0.0000
5.1724 1.1724 0.0000
5.1724 1.2414 0.0000
5.1724 1.3103 0.0000
5.1724 1.3793 0.0000
5.1724 1.4483 0.0000
5.1724 1.5172 0.0000
5.1724 1.5862 0.0000
5.1724 1.6552 0.0000
5.1724 1.7241 0.0000
5.1724 1.7931 0.0000
5.1724 1.8621 0.0000
5.1724 1.9310 0.0000
5.1724 2.0000 0.0000
6.2069 0.0000 0.0000
6.2069 0.0690 0.0000
6.2069 0.1379 0.0000
6.2069 0.2069 0.0000
6.2069 0.2759 0.0000
6.2069 0.3448 0.0000
6.2069 0.4138 0.0000
6.2069 0.4828 0.0000
6.2069 0.5517 0.0000
6.2069 0.6207 0.0000
6.2069 0.6897 0.0000
6.2069 0.7586 0.0000
6.2069 0.8276 0.0000
6.2069 0.8966 0.0000
6.2069 0.9655 0.0000
6.2069 1.0345 0.0000
6.2069 1.1034 0.0000
6.2069 1.1724 0.0000
6.2069 1.2414 0.0000
6.2069 1.3103 0.0000
6.2069 1.3793 0.0000
6.2069 1.4483 0.0000
6.2069 1.5172 0.0000
6.2069 1.5862 0.0000
6.2069 1.6552 0.0000
6.2069 1.7241 0.0000
6.2069 1.7931 0.0000
6.2069 1.8621 0.0000
6.2069 1.9310 0.0000
6.2069 2.0000 0.0000
7.2414 0.0000 0.0000
7.2414 0.0690 0.0000
7.2414 0.1379 0.0000
7.2414 0.2069 0.0000
7.2414 0.2759 0.0000
7.2414 0.3448 0.0000
7.2414 0.4138 0.0000
7.2414 0.4828 0.0000
7.2414 0.5517 0.0000
7.2414 0.6207 0.0000
7.2414 0.6897 0.0000
7.2414 0.7586 0.0000
7.2414 0.8276 0.0000
7.2414 0.8966 0.0000
7.2414 0.9655 0.0000
7.2414 1.0345 0.0000
7.2414 1.1034 0.0000
7.2414 1.1724 0.0000
7.2414 1.2414 0.0000
7.2414 1.3103 0.0000
7.2414 1.3793 0.0000
7.2414 1.4483 0.0000
7.2414 1.5172 0.0000
7.2414 1.5862 0.0000
7.2414 1.6552 0.0000
7.2414 1.7241 0.0000
7.2414 1.7931 0.0000
7.2414 1.8621 0.0000
7.2414 1.9310 0.0000
7.2414 2.0000 0.0000
8.2759 0.0000 0.0000
8.2759 0.0690 0.0000
8.2759 0.1379 0.0000
8.2759 0.2069 0.0000
8.2759 0.2759 0.0000
8.2759 0.3448 0.0000
8.2759 0.4138 0.0000
8.2759 0.4828 0.0000
8.2759 0.5517 0.0000
8.2759 0.6207 0.0000
8.2759 0.6897 0.0000
8.2759 0.7586 0.0000
8.2759 0.8276 0.0000
8.2759 0.8966 0.0000
8.2759 0.9655 0.0000
8.2759 1.0345 0.0000
8.2759 1.1034 0.0000
8.2759 1.1724 0.0000
8.2759 1.2414 0.0000
8.2759 1.3103 0.0000
8.2759 1.3793 0.0000
8.2759 1.4483 0.0000
8.2759 1.5172 0.0000
8.2759 1.5862 0.0000
8.2759 1.6552 0.0000
8.2759 1.7241 0.0000
8.2759 1.7931 0.0000
8.2759 1.8621 0.0000
8.2759 1.9310 0.0000
8.2759 2.0000 0.0000
9.3103 0.0000 0.0000
9.3103 0.0690 0.0000
9.3103 0.1379 0.0000
9.3103 0.2069 0.0000
9.3103 0.2759 0.0000
9.3103 0.3448 0.0000
9.3103 0.4138 0.0000
9.3103 0.4828 0.0000
9.3103 0.5517 0.0000
9.3103 0.6207 0.0000
9.3103 0.6897 0.0000
9.3103 0.7586 0.0000
9.3103 0.8276 0.0000
9.3103 0.8966 0.0000
9.3103 0.9655 0.0000
9.3103 1.0345 0.0000
9.3103 1.1034 0.0000
9.3103 1.1724 0.0000
9.3103 1.2414 0.0000
9.3103 1.3103 0.0000
9.3103 1.3793 0.0000
9.3103 1.4483 0.0000
9.3103 1.5172 0.0000
9.3103 1.5862 0.0000
9.3103 1.6552 0.0000
9.3103 1.7241 0.0000
9.3103 1.7931 0.0000
9.3103 1.8621 0.0000
9.3103 1.9310 0.0000
9.3103 2.0000 0.0000
10.3448 0.0000 0.0000
10.3448 0.0690 0.0000
10.3448 0.1379 0.0000
10.3448 0.2069 0.0000
10.3448 0.2759 0.0000
10.3448 0.3448 0.0000
10.3448 0.4138 0.0000
10.3448 0.4828 0.0000
10.3448 0.5517 0.0000
10.3448 0.6207 0.0000
10.3448 0.6897 0.0000
10.3448 0.7586 0.0000
10.3448 0.8276 0.0000
10.3448 0.8966 0.0000
10.3448 0.9655 0.0000
10.3448 1.0345 0.0000
10.3448 1.1034 0.0000
10.3448 1.1724 0.0000
10.3448 1.2414 0.0000
10.3448 1.3103 0.0000
10.3448 1.3793 0.0000
10.3448 1.4483 0.0000
10.3448 1.5172 0.0000
10.3448 1.5862 0.0000
10.3448 1.6552 0.0000
10.3448 1.7241 0.0000
10.3448 1.7931 0.0000
10.3448 1.8621 0.0000
10.3448 1.9310 0.0000
10.3448 2.0000 0.0000
11.3793 0.0000 0.0000
11.3793 0.0690 0.0000
11.3793 0.1379 0.0000
11.3793 0.2069 0.0000
11.3793 0.2759 0.0000
11.3793 0.3448 0.0000
11.3793 0.4138 0.0000
11.3793 0.4828 0.0000
11.3793 0.5517 0.0000
11.3793 0.6207 0.0000
11.3793 0.6897 0.0000
11.3793 0.7586 0.0000
11.3793 0.8276 0.0000
11.3793 0.8966 0.0000
11.3793 0.9655 0.0000
11.3793 1.0345 0.0000
11.3793 1.1034 0.0000
11.3793 1.1724 0.0000
11.3793 1.2414 0.0000
11.3793 1.3103 0.0000
11.3793 1.3793 0.0000
11.3793 1.4483 0.0000
11.3793 1.5172 0.0000
11.3793 1.5862 0.0000
11.3793 1.6552 0.0000
11.3793 1.7241 0.0000
11.3793 1.7931 0.0000
11.3793 1.8621 0.0000
11.3793 1.9310 0.0000
11.3793 2.0000 0.0000
12.4138 0.0000 0.0000
12.4138 0.0690 0.0000
12.4138 0.1379 0.0000
12.4138 0.2069 0.0000
12.4138 0.2759 0.0000
12.4138 0.3448 0.0000
12.4138 0.4138 0.0000
12.4138 0.4828 0.0000
12.4138 0.5517 0.0000
12.4138 0.6207 0.0000
12.4138 0.6897 0.0000
12.4138 0.7586 0.0000
12.4138 0.8276 0.0000
12.4138 0.8966 0.0000
12.4138 0.9655 0.0000
12.4138 1.0345 0.0000
12.4138 1.1034 0.0000
12.4138 1.1724 0.0000
12.4138 1.2414 0.0000
12.4138 1.3103 0.0000
12.4138 1.3793 0.0000
12.4138 1.4483 0.0000
12.4138 1.5172 0.0000
12.4138 1.5862 0.0000
12.4138 1.6552 0.0000
12.4138 1.7241 0.0000
12.4138 1.7931 0.0000
12.4138 1.8621 0.0000
12.4138 1.9310 0.0000
12.4138 2.0000 0.0000
13.4483 0.0000 0.0000
13.4483 0.0690 0.0000
13.4483 0.1379 0.0000
13.4483 0.2069 0.0000
13.4483 0.2759 0.0000
13.4483 0.3448 0.0000
13.4483 0.4138 0.0000
13.4483 0.4828 0.0000
13.4483 0.5517 0.0000
13.4483 0.6207 0.0000
13.4483 0.6897 0.0000
13.4483 0.7586 0.0000
13.4483 0.8276 0.0000
13.4483 0.8966 0.0000
13.4483 0.9655 0.0000
13.4483 1.0345 0.0000
13.4483 1.1034 0.0000
13.4483 1.1724 0.0000
13.4483 1.2414 0.0000
13.4483 1.3103 0.0000
13.4483 1.3793 0.0000
13.4483 1.4483 0.0000
13.4483 1.5172 0.0000
13.4483 1.5862 0.0000
13.4483 1.6552 0.0000
13.4483 1.7241 0.0000
13.4483 1.7931 0.0000
13.4483 1.8621 0.0000
13.4483 1.9310 0.0000
13.4483 2.0000 0.0000
14.4828 0.0000 0.0000
14.4828 0.0690 0.0000
14.4828 0.1379 0.0000
14.4828 0.2069 0.0000
14.4828 0.2759 0.0000
14.4828 0.3448 0.0000
14.4828 0.4138 0.0000
14.4828 0.4828 0.0000
14.4828 0.5517 0.0000
14.4828 0.6207 0.0000
14.4828 0.6897 0.0000
14.4828 0.7586 0.0000
14.4828 0.8276 0.0000
14.4828 0.8966 0.0000
14.4828 0.9655 0.0000
14.4828 1.0345 0.0000
14.4828 1.1034 0.0000
14.4828 1.1724 0.0000
14.4828 1.2414 0.0000
14.4828 1.3103 0.0000
14.4828 1.3793 0.0000
14.4828 1.4483 0.0000
14.4828 1.5172 0.0000
14.4828 1.5862 0.0000
14.4828 1.6552 0.0000
14.4828 1.7241 0.0000
14.4828 1.7931 0.0000
14.4828 1.8621 0.0000
14.4828 1.9310 0.0000
14.4828 2.0000 0.0000
15.5172 0.0000 0.0000
15.5172 0.0690 0.0000
15.5172 0.1379 0.0000
15.5172 0.2069 0.0000
[...]
         <PointData>
            <DataArray Name="fValues" NumberOfComponents="3" format="ascii" type="Float64">
-5.05555e-16  1.20148e-15        00000 
-1.37585e-16 -1.92620e-15        00000 
-1.70069e-16 -1.36055e-15        00000 
 5.55565e-17 -1.19660e-16        00000 
-1.36055e-16  1.36055e-16        00000 
 1.46355e-16 -1.04798e-15        00000 
-3.40137e-17 -5.44220e-16        00000 
-5.12829e-17  2.99150e-15        00000 
 1.61565e-16 -1.90477e-15        00000 
 1.31787e-16  1.37034e-15        00000 
-1.10545e-16 -4.08165e-16        00000 
 1.20194e-16  3.27356e-15        00000 
-1.10545e-16 -9.52384e-16        00000 
 4.35419e-17  2.67175e-15        00000 
-4.25172e-18 -1.63266e-15        00000 
 1.89640e-17  8.54715e-18        00000 
-6.80275e-17  1.36055e-16        00000 
 1.60227e-16  1.44134e-16        00000 
-2.21089e-16  1.63266e-15        00000 
 1.79490e-16  6.66678e-16        00000 
 6.80275e-17 -3.80954e-15        00000 
 2.87217e-16  3.68876e-16        00000 
-3.40137e-17 -9.52384e-16        00000 
 1.28207e-17  4.78640e-16        00000 
-5.10206e-16  1.63266e-15        00000 
 9.32777e-17  1.01888e-15        00000 
-3.40137e-17 -8.16329e-16        00000 
-3.83199e-16  3.45093e-15        00000 
 3.13037e-16  4.28818e-16        00000 
-7.82594e-17 -2.98694e-15        00000 
 5.24197e+00  1.27813e+01        00000 
 4.49160e+00  1.26801e+01        00000 
 3.79563e+00  1.26029e+01        00000 
 3.17748e+00  1.25251e+01        00000 
 2.59820e+00  1.24462e+01        00000 
 2.11504e+00  1.23857e+01        00000 
 1.66442e+00  1.23156e+01        00000 
 1.30367e+00  1.22346e+01        00000 
 1.03784e+00  1.21699e+01        00000 
 8.52128e-01  1.21051e+01        00000 
 7.22549e-01  1.20559e+01        00000 
 6.04358e-01  1.20185e+01        00000 
 4.47207e-01  1.19887e+01        00000 
 3.04342e-01  1.19571e+01        00000 
 1.48273e-01  1.19492e+01        00000 
-5.87071e-02  1.19565e+01        00000 
-2.92248e-01  1.19584e+01        00000 
-5.86878e-01  1.19643e+01        00000 
-9.53573e-01  1.19457e+01        00000 
-1.29924e+00  1.19236e+01        00000 
-1.59889e+00  1.19023e+01        00000 
-1.88949e+00  1.18577e+01        00000 
-2.19696e+00  1.18359e+01        00000 
-2.48879e+00  1.18280e+01        00000 
-2.82097e+00  1.18211e+01        00000 
-3.22498e+00  1.18584e+01        00000 
-3.80683e+00  1.19017e+01        00000 
-4.39596e+00  1.19402e+01        00000 
-5.00118e+00  1.19907e+01        00000 
-5.74120e+00  1.20773e+01        00000 
 3.31535e+00  1.98615e+01        00000 
 2.97790e+00  1.99815e+01        00000 
 2.60977e+00  2.00944e+01        00000 
 2.34218e+00  2.01951e+01        00000 
 2.14021e+00  2.02646e+01        00000 
 1.99143e+00  2.03256e+01        00000 
 1.88765e+00  2.03666e+01        00000 
 1.68197e+00  2.04138e+01        00000 
 1.47964e+00  2.04149e+01        00000 
 1.23490e+00  2.04187e+01        00000 
 1.04984e+00  2.04313e+01        00000 
 8.27134e-01  2.04164e+01        00000 
 6.31503e-01  2.04059e+01        00000 
 4.49807e-01  2.04294e+01        00000 
 2.02073e-01  2.04225e+01        00000 
-5.85485e-02  2.04071e+01        00000 
-2.70396e-01  2.04064e+01        00000 
-3.85351e-01  2.03861e+01        00000 
-4.04914e-01  2.03422e+01        00000 
-4.46285e-01  2.03074e+01        00000 
-5.78126e-01  2.02761e+01        00000 
-8.08694e-01  2.02780e+01        00000 
-1.12893e+00  2.02626e+01        00000 
-1.49085e+00  2.02453e+01        00000 
-1.85827e+00  2.02405e+01        00000 
-2.12987e+00  2.01835e+01        00000 
-2.30880e+00  2.01282e+01        00000 
-2.56749e+00  2.00717e+01        00000 
-2.97212e+00  1.99635e+01        00000 
-3.32938e+00  1.98178e+01        00000 
-2.69851e+00  2.05397e+01        00000 
-2.32842e+00  2.07433e+01        00000 
-1.98982e+00  2.09096e+01        00000 
-1.67715e+00  2.10453e+01        00000 
-1.39097e+00  2.11820e+01        00000 
-1.13529e+00  2.12773e+01        00000 
-8.75811e-01  2.13726e+01        00000 
-6.63917e-01  2.14578e+01        00000 
-4.71201e-01  2.15570e+01        00000 
-2.81268e-01  2.16173e+01        00000 
-8.32733e-02  2.16570e+01        00000 
 1.07899e-01  2.17061e+01        00000 
 2.95705e-01  2.17069e+01        00000 
 4.75754e-01  2.16876e+01        00000 
 6.96486e-01  2.16734e+01        00000 
 9.19935e-01  2.16433e+01        00000 
 1.14327e+00  2.15945e+01        00000 
 1.31612e+00  2.15857e+01        00000 
 1.37725e+00  2.15926e+01        00000 
 1.37997e+00  2.15731e+01        00000 
 1.37329e+00  2.15655e+01        00000 
 1.33655e+00  2.15148e+01        00000 
 1.43353e+00  2.14294e+01        00000 
 1.65018e+00  2.13471e+01        00000 
 1.86645e+00  2.12327e+01        00000 
 2.07857e+00  2.11213e+01        00000 
 2.25512e+00  2.09930e+01        00000 
 2.45645e+00  2.08363e+01        00000 
 2.77182e+00  2.06547e+01        00000 
 3.10200e+00  2.04614e+01        00000 
-8.93847e+00  9.66588e+00        00000 
-8.08048e+00  9.79771e+00        00000 
-7.23860e+00  9.93589e+00        00000 
-6.44662e+00  1.00634e+01        00000 
-5.63300e+00  1.01558e+01        00000 
-4.90104e+00  1.02576e+01        00000 
-4.23354e+00  1.03419e+01        00000 
-3.55490e+00  1.04134e+01        00000 
-2.94706e+00  1.04597e+01        00000 
-2.37644e+00  1.05371e+01        00000 
-1.82676e+00  1.06143e+01        00000 
-1.29318e+00  1.06975e+01        00000 
-7.43613e-01  1.07945e+01        00000 
-1.73381e-01  1.08623e+01        00000 
 4.10118e-01  1.09314e+01        00000 
 9.36416e-01  1.09934e+01        00000 
 1.40659e+00  1.10419e+01        00000 
 1.81630e+00  1.10609e+01        00000 
 2.19640e+00  1.10592e+01        00000 
 2.59296e+00  1.10749e+01        00000 
 3.13288e+00  1.10286e+01        00000 
 3.77850e+00  1.10119e+01        00000 
 4.33185e+00  1.09705e+01        00000 
 4.90218e+00  1.09298e+01        00000 
 5.57560e+00  1.08893e+01        00000 
 6.31735e+00  1.08167e+01        00000 
 7.12149e+00  1.07317e+01        00000 
 7.96236e+00  1.06242e+01        00000 
 8.76993e+00  1.05397e+01        00000 
 9.59900e+00  1.04054e+01        00000 
-1.34061e+01 -5.51123e+00        00000 
-1.22258e+01 -5.41968e+00        00000 
-1.10543e+01 -5.32346e+00        00000 
-9.99581e+00 -5.25115e+00        00000 
-9.00305e+00 -5.17373e+00        00000 
-8.05062e+00 -5.11990e+00        00000 
-7.13472e+00 -5.08885e+00        00000 
-6.26098e+00 -5.03191e+00        00000 
-5.39616e+00 -4.95547e+00        00000 
-4.52748e+00 -4.91734e+00        00000 
-3.66369e+00 -4.89398e+00        00000 
-2.78074e+00 -4.87497e+00        00000 
-1.87852e+00 -4.89526e+00        00000 
-1.05927e+00 -4.91117e+00        00000 
-3.06848e-01 -4.94378e+00        00000 
 4.36414e-01 -4.96651e+00        00000 
 1.19553e+00 -5.00908e+00        00000 
 1.99875e+00 -5.03703e+00        00000 
 2.85467e+00 -5.08268e+00        00000 
 3.75072e+00 -5.14353e+00        00000 
 4.59167e+00 -5.19368e+00        00000 
 5.42828e+00 -5.30670e+00        00000 
 6.29331e+00 -5.42511e+00        00000 
 7.16781e+00 -5.55670e+00        00000 
 8.05194e+00 -5.67657e+00        00000 
 8.91737e+00 -5.77672e+00        00000 
 9.83331e+00 -5.85960e+00        00000 
 1.08125e+01 -5.92971e+00        00000 
 1.19451e+01 -6.00590e+00        00000 
 1.31188e+01 -6.07854e+00        00000 
-1.55729e+01 -2.34740e+01        00000 
-1.43780e+01 -2.34735e+01        00000 
-1.32243e+01 -2.34717e+01        00000 
-1.20930e+01 -2.34477e+01        00000 
-1.09863e+01 -2.34307e+01        00000 
-9.83351e+00 -2.33968e+01        00000 
-8.74336e+00 -2.33763e+01        00000 
-7.68233e+00 -2.33807e+01        00000 
-6.58854e+00 -2.34162e+01        00000 
-5.56161e+00 -2.34602e+01        00000 
-4.56184e+00 -2.34612e+01        00000 
-3.68479e+00 -2.34831e+01        00000 
-2.79837e+00 -2.34962e+01        00000 
-1.87508e+00 -2.34675e+01        00000 
-8.80539e-01 -2.34660e+01        00000 
 1.72565e-01 -2.34797e+01        00000 
 1.23140e+00 -2.35032e+01        00000 
 2.25409e+00 -2.35406e+01        00000 
 3.23427e+00 -2.36080e+01        00000 
 4.16100e+00 -2.36501e+01        00000 
 5.06133e+00 -2.37008e+01        00000 
 5.97775e+00 -2.37296e+01        00000 
 6.93636e+00 -2.37571e+01        00000 
 7.89401e+00 -2.37549e+01        00000 
 8.89502e+00 -2.37734e+01        00000 
 9.94411e+00 -2.37961e+01        00000 
 1.10056e+01 -2.38238e+01        00000 
 1.20793e+01 -2.38508e+01        00000 
 1.31523e+01 -2.38690e+01        00000 
 1.42791e+01 -2.38484e+01        00000 
-1.30581e+01 -4.13214e+01        00000 
-1.20738e+01 -4.14661e+01        00000 
-1.11883e+01 -4.16159e+01        00000 
-1.03033e+01 -4.17720e+01        00000 
-9.43480e+00 -4.18958e+01        00000 
-8.51509e+00 -4.20190e+01        00000 
-7.57672e+00 -4.21184e+01        00000 
-6.66040e+00 -4.21522e+01        00000 
-5.80296e+00 -4.21721e+01        00000 
-5.00701e+00 -4.21481e+01        00000 
-4.24318e+00 -4.21252e+01        00000 
-3.41563e+00 -4.21000e+01        00000 
-2.63748e+00 -4.20835e+01        00000 
-1.83772e+00 -4.20910e+01        00000 
-1.04101e+00 -4.20853e+01        00000 
-3.21801e-01 -4.20649e+01        00000 
 4.25174e-01 -4.20243e+01        00000 
 1.14005e+00 -4.19478e+01        00000 
 1.88809e+00 -4.18461e+01        00000 
 2.63456e+00 -4.17465e+01        00000 
 3.44500e+00 -4.16605e+01        00000 
 4.20473e+00 -4.15639e+01        00000 
 4.97303e+00 -4.14936e+01        00000 
 5.72798e+00 -4.14427e+01        00000 
 6.46369e+00 -4.13779e+01        00000 
 7.29465e+00 -4.12868e+01        00000 
 8.16526e+00 -4.11703e+01        00000 
 9.09199e+00 -4.10185e+01        00000 
 9.98137e+00 -4.08420e+01        00000 
 1.08650e+01 -4.06666e+01        00000 
-4.73082e+00 -5.03609e+01        00000 
-4.54600e+00 -5.06239e+01        00000 
-4.31056e+00 -5.08431e+01        00000 
-4.08058e+00 -5.10212e+01        00000 
-3.85081e+00 -5.11470e+01        00000 
-3.68176e+00 -5.12347e+01        00000 
-3.58259e+00 -5.12919e+01        00000 
-3.49530e+00 -5.13478e+01        00000 
-3.43588e+00 -5.13934e+01        00000 
-3.31656e+00 -5.14322e+01        00000 
-3.08056e+00 -5.14826e+01        00000 
-2.82407e+00 -5.14830e+01        00000 
-2.56747e+00 -5.14712e+01        00000 
-2.35058e+00 -5.14302e+01        00000 
-2.11188e+00 -5.13639e+01        00000 
-1.83663e+00 -5.12691e+01        00000 
-1.54613e+00 -5.12019e+01        00000 
-1.20985e+00 -5.11133e+01        00000 
-8.82896e-01 -5.10428e+01        00000 
-6.46563e-01 -5.09605e+01        00000 
-4.28709e-01 -5.08612e+01        00000 
-1.53631e-01 -5.07361e+01        00000 
 1.48911e-01 -5.05773e+01        00000 
 5.20244e-01 -5.03800e+01        00000 
 9.07507e-01 -5.01722e+01        00000 
 1.19248e+00 -4.99730e+01        00000 
 1.46560e+00 -4.97417e+01        00000 
 1.71168e+00 -4.95174e+01        00000 
 2.00343e+00 -4.92651e+01        00000 
 2.25999e+00 -4.89728e+01        00000 
 5.08915e+00 -4.67429e+01        00000 
 4.44090e+00 -4.70271e+01        00000 
 3.76397e+00 -4.72929e+01        00000 
 3.07554e+00 -4.75662e+01        00000 
 2.42246e+00 -4.78142e+01        00000 
 1.78680e+00 -4.80375e+01        00000 
 1.24033e+00 -4.82672e+01        00000 
 7.72370e-01 -4.84432e+01        00000 
 3.65053e-01 -4.85986e+01        00000 
-1.11296e-01 -4.87557e+01        00000 
-6.13223e-01 -4.88588e+01        00000 
-1.14709e+00 -4.89717e+01        00000 
-1.69499e+00 -4.90508e+01        00000 
-2.17951e+00 -4.90894e+01        00000 
-2.58044e+00 -4.91125e+01        00000 
-2.99265e+00 -4.91225e+01        00000 
-3.45001e+00 -4.91099e+01        00000 
-3.88308e+00 -4.90764e+01        00000 
-4.29577e+00 -4.90016e+01        00000 
-4.65216e+00 -4.88804e+01        00000 
-5.06985e+00 -4.87954e+01        00000 
-5.46966e+00 -4.86644e+01        00000 
-5.92556e+00 -4.85273e+01        00000 
-6.44265e+00 -4.83846e+01        00000 
-7.01195e+00 -4.81977e+01        00000 
-7.50576e+00 -4.79382e+01        00000 
-7.98740e+00 -4.76413e+01        00000 
-8.54127e+00 -4.73079e+01        00000 
-9.11922e+00 -4.69404e+01        00000 
-9.74405e+00 -4.65731e+01        00000 
 1.52911e+01 -3.15195e+01        00000 
 1.40393e+01 -3.17977e+01        00000 
 1.28273e+01 -3.20882e+01        00000 
 1.16218e+01 -3.23554e+01        00000 
 1.03715e+01 -3.26157e+01        00000 
 9.02962e+00 -3.28649e+01        00000 
 7.60622e+00 -3.31032e+01        00000 
 6.15987e+00 -3.33074e+01        00000 
 4.74633e+00 -3.34739e+01        00000 
 3.38859e+00 -3.36096e+01        00000 
 2.05083e+00 -3.37100e+01        00000 
 7.35724e-01 -3.37702e+01        00000 
-5.79224e-01 -3.38456e+01        00000 
-1.77622e+00 -3.39028e+01        00000 
-2.94474e+00 -3.39470e+01        00000 
-4.06976e+00 -3.39673e+01        00000 
-5.25659e+00 -3.39748e+01        00000 
-6.44908e+00 -3.39449e+01        00000 
-7.60474e+00 -3.39250e+01        00000 
-8.79797e+00 -3.38655e+01        00000 
-9.96298e+00 -3.37680e+01        00000 
-1.11457e+01 -3.36762e+01        00000 
-1.22831e+01 -3.35206e+01        00000 
-1.34881e+01 -3.33250e+01        00000 
-1.47085e+01 -3.31211e+01        00000 
-1.60471e+01 -3.29039e+01        00000 
-1.73571e+01 -3.27010e+01        00000 
-1.85525e+01 -3.24810e+01        00000 
-1.97715e+01 -3.22122e+01        00000 
-2.09984e+01 -3.19399e+01        00000 
 2.56787e+01 -5.60114e+00        00000 
 2.35095e+01 -5.89843e+00        00000 
 2.13520e+01 -6.15140e+00        00000 
 1.92466e+01 -6.39380e+00        00000 
 1.71892e+01 -6.58105e+00        00000 
 1.52074e+01 -6.74241e+00        00000 
 1.32469e+01 -6.90185e+00        00000 
 1.12297e+01 -7.02280e+00        00000 
 9.16305e+00 -7.12657e+00        00000 
 7.18359e+00 -7.21202e+00        00000 
 5.20699e+00 -7.31168e+00        00000 
 3.30518e+00 -7.41283e+00        00000 
 1.51780e+00 -7.48372e+00        00000 
-2.65167e-01 -7.54367e+00        00000 
-2.03841e+00 -7.59607e+00        00000 
-3.88489e+00 -7.59774e+00        00000 
-5.63694e+00 -7.58895e+00        00000 
-7.34677e+00 -7.57811e+00        00000 
-9.08893e+00 -7.56002e+00        00000 
-1.08658e+01 -7.53158e+00        00000 
-1.26911e+01 -7.51186e+00        00000 
-1.45722e+01 -7.46654e+00        00000 
-1.65022e+01 -7.41481e+00        00000 
-1.83924e+01 -7.34270e+00        00000 
-2.02043e+01 -7.23890e+00        00000 
-2.19392e+01 -7.13286e+00        00000 
-2.37306e+01 -6.98496e+00        00000 
-2.57239e+01 -6.82393e+00        00000 
-2.77774e+01 -6.64984e+00        00000 
-2.98817e+01 -6.43839e+00        00000 
 3.37575e+01  3.12550e+01        00000 
 3.10263e+01  3.11183e+01        00000 
 2.83704e+01  3.09800e+01        00000 
 2.57502e+01  3.08504e+01        00000 
 2.32277e+01  3.07348e+01        00000 
 2.07540e+01  3.06213e+01        00000 
 1.83218e+01  3.05081e+01        00000 
 1.59579e+01  3.03781e+01        00000 
 1.35855e+01  3.02649e+01        00000 
 1.12297e+01  3.01488e+01        00000 
 8.95859e+00  3.00260e+01        00000 
 6.72323e+00  2.99222e+01        00000 
 4.52603e+00  2.98340e+01        00000 
 2.23424e+00  2.97502e+01        00000 
-4.61726e-02  2.96731e+01        00000 
-2.31690e+00  2.95866e+01        00000 
-4.58249e+00  2.94996e+01        00000 
-6.77112e+00  2.94226e+01        00000 
-8.87400e+00  2.93554e+01        00000 
-1.09802e+01  2.93207e+01        00000 
-1.31731e+01  2.92745e+01        00000 
-1.54039e+01  2.92542e+01        00000 
-1.76884e+01  2.92116e+01        00000 
-2.00288e+01  2.92042e+01        00000 
-2.23552e+01  2.91794e+01        00000 
-2.47661e+01  2.91618e+01        00000 
-2.72491e+01  2.92055e+01        00000 
-2.97625e+01  2.92403e+01        00000 
-3.23256e+01  2.93101e+01        00000 
-3.49106e+01  2.93989e+01        00000 
 3.57204e+01  7.41882e+01        00000 
 3.30507e+01  7.41765e+01        00000 
 3.04751e+01  7.41565e+01        00000 
 2.78906e+01  7.41285e+01        00000 
 2.53690e+01  7.40909e+01        00000 
 2.28776e+01  7.40509e+01        00000 
 2.04498e+01  7.40089e+01        00000 
 1.81038e+01  7.39881e+01        00000 
 1.57775e+01  7.39115e+01        00000 
 1.35079e+01  7.38410e+01        00000 
 1.12177e+01  7.38137e+01        00000 
 8.86086e+00  7.37458e+01        00000 
 6.47981e+00  7.36611e+01        00000 
 4.15478e+00  7.36215e+01        00000 
 1.82602e+00  7.35661e+01        00000 
-5.29514e-01  7.34953e+01        00000 
-2.89639e+00  7.34247e+01        00000 
-5.26791e+00  7.33641e+01        00000 
-7.64154e+00  7.32821e+01        00000 
-1.00780e+01  7.32270e+01        00000 
-1.24893e+01  7.31800e+01        00000 
-1.48430e+01  7.31177e+01        00000 
-1.72216e+01  7.30672e+01        00000 
-1.96685e+01  7.30055e+01        00000 
-2.21857e+01  7.29711e+01        00000 
-2.48387e+01  7.29216e+01        00000 
-2.75526e+01  7.28404e+01        00000 
-3.02979e+01  7.27939e+01        00000 
-3.31310e+01  7.27287e+01        00000 
-3.60163e+01  7.26686e+01        00000 
 3.36801e+01  1.12902e+02        00000 
 3.12124e+01  1.13039e+02        00000 
 2.87069e+01  1.13151e+02        00000 
 2.62953e+01  1.13230e+02        00000 
 2.39184e+01  1.13321e+02        00000 
 2.16720e+01  1.13403e+02        00000 
 1.94853e+01  1.13471e+02        00000 
 1.72584e+01  1.13577e+02        00000 
 1.50855e+01  1.13679e+02        00000 
 1.28686e+01  1.13777e+02        00000 
 1.06693e+01  1.13898e+02        00000 
 8.43932e+00  1.13994e+02        00000 
 6.25328e+00  1.14086e+02        00000 
 4.14453e+00  1.14180e+02        00000 
 2.04179e+00  1.14235e+02        00000 
-7.98912e-02  1.14275e+02        00000 
-2.17174e+00  1.14297e+02        00000 
-4.30877e+00  1.14272e+02        00000 
-6.48178e+00  1.14240e+02        00000 
-8.70327e+00  1.14212e+02        00000 
-1.09360e+01  1.14134e+02        00000 
-1.32361e+01  1.14060e+02        00000 
-1.55666e+01  1.13999e+02        00000 
-1.79150e+01  1.13910e+02        00000 
-2.03135e+01  1.13824e+02        00000 
-2.26702e+01  1.13751e+02        00000 
-2.49928e+01  1.13676e+02        00000 
-2.73795e+01  1.13578e+02        00000 
-2.98049e+01  1.13479e+02        00000 
-3.22787e+01  1.13354e+02        00000 
 2.67675e+01  1.48099e+02        00000 
 2.46922e+01  1.48392e+02        00000 
 2.26947e+01  1.48672e+02        00000 
 2.07244e+01  1.48948e+02        00000 
 1.88508e+01  1.49195e+02        00000 
 1.69608e+01  1.49445e+02        00000 
 1.49754e+01  1.49678e+02        00000 
 1.30060e+01  1.49864e+02        00000 
 1.10479e+01  1.50047e+02        00000 
 9.16654e+00  1.50193e+02        00000 
 7.37615e+00  1.50316e+02        00000 
 5.71284e+00  1.50411e+02        00000 
 4.03629e+00  1.50471e+02        00000 
 2.39771e+00  1.50516e+02        00000 
 7.80076e-01  1.50535e+02        00000 
-8.10589e-01  1.50536e+02        00000 
-2.45225e+00  1.50503e+02        00000 
-4.04005e+00  1.50496e+02        00000 
-5.66567e+00  1.50453e+02        00000 
-7.30189e+00  1.50390e+02        00000 
-9.04310e+00  1.50312e+02        00000 
-1.07934e+01  1.50210e+02        00000 
-1.26005e+01  1.50075e+02        00000 
-1.44841e+01  1.49929e+02        00000 
-1.63597e+01  1.49746e+02        00000 
-1.82283e+01  1.49529e+02        00000 
-2.01232e+01  1.49310e+02        00000 
-2.20849e+01  1.49071e+02        00000 
-2.41521e+01  1.48848e+02        00000 
-2.62437e+01  1.48576e+02        00000 
 1.36245e+01  1.74333e+02        00000 
 1.23720e+01  1.74790e+02        00000 
 1.11430e+01  1.75229e+02        00000 
 9.91682e+00  1.75602e+02        00000 
 8.73858e+00  1.76005e+02        00000 
 7.57994e+00  1.76335e+02        00000 
 6.47511e+00  1.76612e+02        00000 
 5.51299e+00  1.76907e+02        00000 
 4.58989e+00  1.77142e+02        00000 
 3.72362e+00  1.77363e+02        00000 
 2.84568e+00  1.77545e+02        00000 
 1.96717e+00  1.77699e+02        00000 
 1.01890e+00  1.77836e+02        00000 
 6.84972e-02  1.77923e+02        00000 
-8.56323e-01  1.78020e+02        00000 
-1.74750e+00  1.78075e+02        00000 
-2.64707e+00  1.78116e+02        00000 