<?xml version="1.0" encoding="utf-8"?>
<VTKFile byte_order="LittleEndian" type="UnstructuredGrid" version="0.1">
   <UnstructuredGrid>
      <Piece NumberOfCells="3364" NumberOfPoints="1741">
         <Points>
            <DataArray Name="Points" NumberOfComponents="3" format="ascii" type="Float32">
0.0000 0.0000 0.0000
0.0000 0.0690 0.0000
0.0000 0.1379 0.0000
0.0000 0.2069 0.0000
0.0000 0.2759 0.0000
0.0000 0.3448 0.0000
0.0000 0.4138 0.0000
0.0000 0.4828 0.0000
0.0000 0.5517 0.0000
0.0000 0.6207 0.0000
0.0000 0.6897 0.0000
0.0000 0.7586 0.0000
0.0000 0.8276 0.0000
0.0000 0.8966 0.0000
0.0000 0.9655 0.0000
0.0000 1.0345 0.0000
0.0000 1.1034 0.0000
0.0000 1.1724 0.0000
0.0000 1.2414 0.0000
0.0000 1.3103 0.0000
0.0000 1.3793 0.0000
0.0000 1.4483 0.0000
0.0000 1.5172 0.0000
0.0000 1.5862 0.0000
0.0000 1.6552 0.0000
0.0000 1.7241 0.0000
0.0000 1.7931 0.0000
0.0000 1.8621 0.0000
0.0000 1.9310 0.0000
0.0000 2.0000 0.0000
1.0345 0.0000 0.0000
1.0345 0.0690 0.0000
1.0345 0.1379 0.0000
1.0345 0.2069 0.0000
1.0345 0.2759 0.0000
1.0345 0.3448 0.0000
1.0345 0.4138 0.0000
1.0345 0.4828 0.0000
1.0345 0.5517 0.0000
1.0345 0.6207 0.0000
1.0345 0.6897 0.0000
1.0345 0.7586 0.0000
1.0345 0.8276 0.0000
1.0345 0.8966 0.0000
1.0345 0.9655 0.0000
1.0345 1.0345 0.0000
1.0345 1.1034 0.0000
1.0345 1.1724 0.0000
1.0345 1.2414 0.0000
1.0345 1.3103 0.0000
1.0345 1.3793 0.0000
1.0345 1.4483 0.0000
1.0345 1.5172 0.0000
1.0345 1.5862 0.0000
1.0345 1.6552 0.0000
1.0345 1.7241 0.0000
1.0345 1.7931 0.0000
1.0345 1.8621 0.0000
1.0345 1.9310 0.0000
1.0345 2.0000 0.0000
2.0690 0.0000 0.0000
2.0690 0.0690 0.0000
2.0690 0.1379 0.0000
2.0690 0.2069 0.0000
2.0690 0.2759 0.0000
2.0690 0.3448 0.0000
2.0690 0.4138 0.0000
2.0690 0.4828 0.0000
2.0690 0.5517 0.0000
2.0690 0.6207 0.0000
2.0690 0.6897 0.0000
2.0690 0.7586 0.0000
2.0690 0.8276 0.0000
2.0690 0.8966 0.0000
2.0690 0.9655 0.0000
2.0690 1.0345 0.0000
2.0690 1.1034 0.0000
2.0690 1.1724 0.0000
2.0690 1.2414 0.0000
2.0690 1.3103 0.0000
2.0690 1.3793 0.0000
2.0690 1.4483 0.0000
2.0690 1.5172 0.0000
2.0690 1.5862 0.0000
2.0690 1.6552 0.0000
2.0690 1.7241 0.0000
2.0690 1.7931 0.0000
2.0690 1.8621 0.0000
2.0690 1.9310 0.0000
2.0690 2.0000 0.0000
3.1034 0.0000 0.0000
3.1034 0.0690 0.0000
3.1034 0.1379 0.0000
3.1034 0.2069 0.0000
3.1034 0.2759 0.0000
3.1034 0.3448 0.0000
3.1034 0.4138 0.0000
3.1034 0.4828 0.0000
3.1034 0.5517 0.0000
3.1034 0.6207 0.0000
3.1034 0.6897 0.0000
3.1034 0.7586 0.0000
3.1034 0.8276 0.0000
3.1034 0.8966 0.0000
3.1034 0.9655 0.0000
3.1034 1.0345 0.0000
3.1034 1.1034 0.0000
3.1034 1.1724 0.0000
3.1034 1.2414 0.0000
3.1034 1.3103 0.0000
3.1034 1.3793 0.0000
3.1034 1.4483 0.0000
3.1034 1.5172 0.0000
3.1034 1.5862 0.0000
3.1034 1.6552 0.0000
3.1034 1.7241 0.0000
3.1034 1.7931 0.0000
3.1034 1.8621 0.0000
3.1034 1.9310 0.0000
3.1034 2.0000 0.0000
4.1379 0.0000 0.0000
4.1379 0.0690 0.0000
4.1379 0.1379 0.0000
4.1379 0.2069 0.0000
4.1379 0.2759 0.0000
4.1379 0.3448 0.0000
4.1379 0.4138 0.0000
4.1379 0.4828 0.0000
4.1379 0.5517 0.0000
4.1379 0.6207 0.0000
4.1379 0.6897 0.0000
4.1379 0.7586 0.0000
4.1379 0.8276 0.0000
4.1379 0.8966 0.0000
4.1379 0.9655 0.0000
4.1379 1.0345 0.0000
4.1379 1.1034 0.0000
4.1379 1.1724 0.0000
4.1379 1.2414 0.0000
4.1379 1.3103 0.0000
4.1379 1.3793 0.0000
4.1379 1.4483 0.0000
4.1379 1.5172 0.0000
4.1379 1.5862 0.0000
4.1379 1.6552 0.0000
4.1379 1.7241 0.0000
4.1379 1.7931 0.0000
4.1379 1.8621 0.0000
4.1379 1.9310 0.0000
4.1379 2.0000 0.0000
5.1724 0.0000 0.0000
5.1724 0.0690 0.0000
5.1724 0.1379 0.0000
5.1724 0.2069 0.0000
5.1724 0.2759 0.0000
5.1724 0.3448 0.0000
5.1724 0.4138 0.0000
5.1724 0.4828 0.0000
5.1724 0.5517 0.0000
5.1724 0.6207 0.0000
5.1724 0.6897 0.0000
5.1724 0.7586 0.0000
5.1724 0.8276 0.0000
5.1724 0.8966 0.0000
5.1724 0.9655 0.0000
5.1724 1.0345 0.0000
5.1724 1.1034 0.0000
5.1724 1.1724 0.0000
5.1724 1.2414 0.0000
5.1724 1.3103 0.0000
5.1724 1.3793 0.0000
5.1724 1.4483 0.0000
5.1724 1.5172 0.0000
5.1724 1.5862 0.0000
5.1724 1.6552 0.0000
5.1724 1.7241 0.0000
5.1724 1.7931 0.0000
5.1724 1.8621 0.0000
5.1724 1.9310 0.0000
5.1724 2.0000 0.0000
6.2069 0.0000 0.0000
6.2069 0.0690 0.0000
6.2069 0.1379 0.0000
6.2069 0.2069 0.0000
6.2069 0.2759 0.0000
6.2069 0.3448 0.0000
6.2069 0.4138 0.0000
6.2069 0.4828 0.0000
6.2069 0.5517 0.0000
6.2069 0.6207 0.0000
6.2069 0.6897 0.0000
6.2069 0.7586 0.0000
6.2069 0.8276 0.0000
6.2069 0.8966 0.0000
6.2069 0.9655 0.0000
6.2069 1.0345 0.0000
6.2069 1.1034 0.0000
6.2069 1.1724 0.0000
6.2069 1.2414 0.0000
6.2069 1.3103 0.0000
6.2069 1.3793 0.0000
6.2069 1.4483 0.0000
6.2069 1.5172 0.0000
6.2069 1.5862 0.0000
6.2069 1.6552 0.0000
6.2069 1.7241 0.0000
6.2069 1.7931 0.0000
6.2069 1.8621 0.0000
6.2069 1.9310 0.0000
6.2069 2.0000 0.0000
7.2414 0.0000 0.0000
7.2414 0.0690 0.0000
7.2414 0.1379 0.0000
7.2414 0.2069 0.0000
7.2414 0.2759 0.0000
7.2414 0.3448 0.0000
7.2414 0.4138 0.0000
7.2414 0.4828 0.0000
7.2414 0.5517 0.0000
7.2414 0.6207 0.0000
7.2414 0.6897 0.0000
7.2414 0.7586 0.0000
7.2414 0.8276 0.0000
7.2414 0.8966 0.0000
7.2414 0.9655 0.0000
7.2414 1.0345 0.0000
7.2414 1.1034 0.0000
7.2414 1.1724 0.0000
7.2414 1.2414 0.0000
7.2414 1.3103 0.0000
7.2414 1.3793 0.0000
7.2414 1.4483 0.0000
7.2414 1.5172 0.0000
7.2414 1.5862 0.0000
7.2414 1.6552 0.0000
7.2414 1.7241 0.0000
7.2414 1.7931 0.0000
7.2414 1.8621 0.0000
7.2414 1.9310 0.0000
7.2414 2.0000 0.0000
8.2759 0.0000 0.0000
8.2759 0.0690 0.0000
8.2759 0.1379 0.0000
8.2759 0.2069 0.0000
8.2759 0.2759 0.0000
8.2759 0.3448 0.0000
8.2759 0.4138 0.0000
8.2759 0.4828 0.0000
8.2759 0.5517 0.0000
8.2759 0.6207 0.0000
8.2759 0.6897 0.0000
8.2759 0.7586 0.0000
8.2759 0.8276 0.0000
8.2759 0.8966 0.0000
8.2759 0.9655 0.0000
8.2759 1.0345 0.0000
8.2759 1.1034 0.0000
8.2759 1.1724 0.0000
8.2759 1.2414 0.0000
8.2759 1.3103 0.0000
8.2759 1.3793 0.0000
8.2759 1.4483 0.0000
8.2759 1.5172 0.0000
8.2759 1.5862 0.0000
8.2759 1.6552 0.0000
8.2759 1.7241 0.0000
8.2759 1.7931 0.0000
8.2759 1.8621 0.0000
8.2759 1.9310 0.0000
8.2759 2.0000 0.0000
9.3103 0.0000 0.0000
9.3103 0.0690 0.0000
9.3103 0.1379 0.0000
9.3103 0.2069 0.0000
9.3103 0.2759 0.0000
9.3103 0.3448 0.0000
9.3103 0.4138 0.0000
9.3103 0.4828 0.0000
9.3103 0.5517 0.0000
9.3103 0.6207 0.0000
9.3103 0.6897 0.0000
9.3103 0.7586 0.0000
9.3103 0.8276 0.0000
9.3103 0.8966 0.0000
9.3103 0.9655 0.0000
9.3103 1.0345 0.0000
9.3103 1.1034 0.0000
9.3103 1.1724 0.0000
9.3103 1.2414 0.0000
9.3103 1.3103 0.0000
9.3103 1.3793 0.0000
9.3103 1.4483 0.0000
9.3103 1.5172 0.0000
9.3103 1.5862 0.0000
9.3103 1.6552 0.0000
9.3103 1.7241 0.0000
9.3103 1.7931 0.0000
9.3103 1.8621 0.0000
9.3103 1.9310 0.0000
9.3103 2.0000 0.0000
10.3448 0.0000 0.0000
10.3448 0.0690 0.0000
10.3448 0.1379 0.0000
10.3448 0.2069 0.0000
10.3448 0.2759 0.0000
10.3448 0.3448 0.0000
10.3448 0.4138 0.0000
10.3448 0.4828 0.0000
10.3448 0.5517 0.0000
10.3448 0.6207 0.0000
10.3448 0.6897 0.0000
10.3448 0.7586 0.0000
10.3448 0.8276 0.0000
10.3448 0.8966 0.0000
10.3448 0.9655 0.0000
10.3448 1.0345 0.0000
10.3448 1.1034 0.0000
10.3448 1.1724 0.0000
10.3448 1.2414 0.0000
10.3448 1.3103 0.0000
10.3448 1.3793 0.0000
10.3448 1.4483 0.0000
10.3448 1.5172 0.0000
10.3448 1.5862 0.0000
10.3448 1.6552 0.0000
10.3448 1.7241 0.0000
10.3448 1.7931 0.0000
10.3448 1.8621 0.0000
10.3448 1.9310 0.0000
10.3448 2.0000 0.0000
11.3793 0.0000 0.0000
11.3793 0.0690 0.0000
11.3793 0.1379 0.0000
11.3793 0.2069 0.0000
11.3793 0.2759 0.0000
11.3793 0.3448 0.0000
11.3793 0.4138 0.0000
11.3793 0.4828 0.0000
11.3793 0.5517 0.0000
11.3793 0.6207 0.0000
11.3793 0.6897 0.0000
11.3793 0.7586 0.0000
11.3793 0.8276 0.0000
11.3793 0.8966 0.0000
11.3793 0.9655 0.0000
11.3793 1.0345 0.0000
11.3793 1.1034 0.0000
11.3793 1.1724 0.0000
11.3793 1.2414 0.0000
11.3793 1.3103 0.0000
11.3793 1.3793 0.0000
11.3793 1.4483 0.0000
11.3793 1.5172 0.0000
11.3793 1.5862 0.0000
11.3793 1.6552 0.0000
11.3793 1.7241 0.0000
11.3793 1.7931 0.0000
11.3793 1.8621 0.0000
11.3793 1.9310 0.0000
11.3793 2.0000 0.0000
12.4138 0.0000 0.0000
12.4138 0.0690 0.0000
12.4138 0.1379 0.0000
12.4138 0.2069 0.0000
12.4138 0.2759 0.0000
12.4138 0.3448 0.0000
12.4138 0.4138 0.0000
12.4138 0.4828 0.0000
12.4138 0.5517 0.0000
12.4138 0.6207 0.0000
12.4138 0.6897 0.0000
12.4138 0.7586 0.0000
12.4138 0.8276 0.0000
12.4138 0.8966 0.0000
12.4138 0.9655 0.0000
12.4138 1.0345 0.0000
12.4138 1.1034 0.0000
12.4138 1.1724 0.0000
12.4138 1.2414 0.0000
12.4138 1.3103 0.0000
12.4138 1.3793 0.0000
12.4138 1.4483 0.0000
12.4138 1.5172 0.0000
12.4138 1.5862 0.0000
12.4138 1.6552 0.0000
12.4138 1.7241 0.0000
12.4138 1.7931 0.0000
12.4138 1.8621 0.0000
12.4138 1.9310 0.0000
12.4138 2.0000 0.0000
13.4483 0.0000 0.0000
13.4483 0.0690 0.0000
13.4483 0.1379 0.0000
13.4483 0.2069 0.0000
13.4483 0.2759 0.0000
13.4483 0.3448 0.0000
13.4483 0.4138 0.0000
13.4483 0.4828 0.0000
13.4483 0.5517 0.0000
13.4483 0.6207 0.0000
13.4483 0.6897 0.0000
13.4483 0.7586 0.0000
13.4483 0.8276 0.0000
13.4483 0.8966 0.0000
13.4483 0.9655 0.0000
13.4483 1.0345 0.0000
13.4483 1.1034 0.0000
13.4483 1.1724 0.0000
13.4483 1.2414 0.0000
13.4483 1.3103 0.0000
13.4483 1.3793 0.0000
13.4483 1.4483 0.0000
13.4483 1.5172 0.0000
13.4483 1.5862 0.0000
13.4483 1.6552 0.0000
13.4483 1.7241 0.0000
13.4483 1.7931 0.0000
13.4483 1.8621 0.0000
13.4483 1.9310 0.0000
13.4483 2.0000 0.0000
14.4828 0.0000 0.0000
14.4828 0.0690 0.0000
14.4828 0.1379 0.0000
14.4828 0.2069 0.0000
14.4828 0.2759 0.0000
14.4828 0.3448 0.0000
14.4828 0.4138 0.0000
14.4828 0.4828 0.0000
14.4828 0.5517 0.0000
14.4828 0.6207 0.0000
14.4828 0.6897 0.0000
14.4828 0.7586 0.0000
14.4828 0.8276 0.0000
14.4828 0.8966 0.0000
14.4828 0.9655 0.0000
14.4828 1.0345 0.0000
14.4828 1.1034 0.0000
14.4828 1.1724 0.0000
14.4828 1.2414 0.0000
14.4828 1.3103 0.0000
14.4828 1.3793 0.0000
14.4828 1.4483 0.0000
14.4828 1.5172 0.0000
14.4828 1.5862 0.0000
14.4828 1.6552 0.0000
14.4828 1.7241 0.0000
14.4828 1.7931 0.0000
14.4828 1.8621 0.0000
14.4828 1.9310 0.0000
14.4828 2.0000 0.0000
15.5172 0.0000 0.0000
15.5172 0.0690 0.0000
15.5172 0.1379 0.0000
15.5172 0.2069 0.0000
[...]
         <PointData>
            <DataArray Name="fValues" NumberOfComponents="3" format="ascii" type="Float64">
-4.86995e-15  8.25512e-16        00000 
 2.20137e-15 -3.30205e-15        00000 
-3.26532e-15 -2.72110e-15        00000 
 3.47014e-15  4.13682e-15        00000 
-3.26532e-15 -6.25853e-15        00000 
 8.66440e-16 -1.05024e-15        00000 
-2.44899e-15 -5.44220e-16        00000 
 3.28211e-15  5.11120e-15        00000 
-1.76871e-15 -1.90477e-15        00000 
 1.12587e-16  4.46058e-15        00000 
-4.08165e-16 -4.62587e-15        00000 
 1.07480e-15  5.17957e-15        00000 
-5.44220e-16 -1.90477e-15        00000 
 6.01037e-16 -2.62548e-15        00000 
-2.04082e-16 -8.16329e-16        00000 
 7.05140e-17  1.19660e-15        00000 
-1.36055e-16 -3.26532e-15        00000 
 6.55817e-16  6.77933e-15        00000 
-8.50343e-16  5.44220e-16        00000 
-2.22226e-16 -4.78640e-16        00000 
 8.16329e-16  3.53743e-15        00000 
 3.84123e-16 -5.27581e-15        00000 
-1.36055e-16 -1.63266e-15        00000 
-1.57268e-15 -3.41886e-16        00000 
-2.72110e-16 -3.80954e-15        00000 
-1.36384e-15  9.89369e-15        00000 
 2.72110e-15 -1.08844e-14        00000 
-2.94570e-15  6.26819e-15        00000 
 3.43055e-15  6.86110e-16        00000 
-2.29751e-15  4.14808e-15        00000 
 3.21191e+01  2.79003e+01        00000 
 2.94013e+01  2.68794e+01        00000 
 2.68758e+01  2.59397e+01        00000 
 2.44584e+01  2.50865e+01        00000 
 2.21139e+01  2.43118e+01        00000 
 1.98281e+01  2.36235e+01        00000 
 1.76266e+01  2.30281e+01        00000 
 1.54645e+01  2.25074e+01        00000 
 1.33660e+01  2.20506e+01        00000 
 1.13613e+01  2.16605e+01        00000 
 9.40418e+00  2.13363e+01        00000 
 7.51192e+00  2.10747e+01        00000 
 5.60791e+00  2.08765e+01        00000 
 3.71007e+00  2.07610e+01        00000 
 1.85151e+00  2.07192e+01        00000 
 1.57521e-02  2.07242e+01        00000 
-1.82120e+00  2.07767e+01        00000 
-3.68023e+00  2.08885e+01        00000 
-5.53856e+00  2.10541e+01        00000 
-7.38825e+00  2.12592e+01        00000 
-9.31275e+00  2.15148e+01        00000 
-1.12760e+01  2.18528e+01        00000 
-1.32626e+01  2.22604e+01        00000 
-1.52754e+01  2.27288e+01        00000 
-1.73262e+01  2.32706e+01        00000 
-1.94590e+01  2.38858e+01        00000 
-2.17185e+01  2.45660e+01        00000 
-2.40901e+01  2.53053e+01        00000 
-2.65924e+01  2.61359e+01        00000 
-2.92399e+01  2.70606e+01        00000 
 5.81822e+01  7.90148e+01        00000 
 5.40248e+01  7.83722e+01        00000 
 4.98990e+01  7.77584e+01        00000 
 4.58351e+01  7.71780e+01        00000 
 4.18537e+01  7.66300e+01        00000 
 3.79132e+01  7.61204e+01        00000 
 3.39853e+01  7.56460e+01        00000 
 3.00730e+01  7.52189e+01        00000 
 2.61913e+01  7.48389e+01        00000 
 2.23511e+01  7.45050e+01        00000 
 1.85830e+01  7.42244e+01        00000 
 1.48443e+01  7.39895e+01        00000 
 1.11391e+01  7.37881e+01        00000 
 7.42944e+00  7.36206e+01        00000 
 3.75239e+00  7.34977e+01        00000 
 8.65817e-02  7.34185e+01        00000 
-3.54313e+00  7.33876e+01        00000 
-7.17695e+00  7.34034e+01        00000 
-1.08685e+01  7.34688e+01        00000 
-1.45814e+01  7.35845e+01        00000 
-1.82958e+01  7.37507e+01        00000 
-2.20031e+01  7.39598e+01        00000 
-2.57242e+01  7.42105e+01        00000 
-2.94857e+01  7.45046e+01        00000 
-3.33083e+01  7.48429e+01        00000 
-3.71854e+01  7.52396e+01        00000 
-4.11518e+01  7.56858e+01        00000 
-4.51467e+01  7.61739e+01        00000 
-4.91810e+01  7.67085e+01        00000 
-5.32874e+01  7.72814e+01        00000 
 7.74491e+01  1.51631e+02        00000 
 7.20528e+01  1.51179e+02        00000 
 6.67031e+01  1.50752e+02        00000 
 6.14309e+01  1.50361e+02        00000 
 5.62207e+01  1.49988e+02        00000 
 5.10429e+01  1.49645e+02        00000 
 4.59243e+01  1.49324e+02        00000 
 4.08396e+01  1.49034e+02        00000 
 3.57873e+01  1.48768e+02        00000 
 3.07749e+01  1.48522e+02        00000 
 2.57641e+01  1.48318e+02        00000 
 2.07666e+01  1.48150e+02        00000 
 1.58043e+01  1.48018e+02        00000 
 1.08440e+01  1.47924e+02        00000 
 5.92205e+00  1.47857e+02        00000 
 9.87987e-01  1.47820e+02        00000 
-3.96849e+00  1.47821e+02        00000 
-8.90851e+00  1.47854e+02        00000 
-1.38492e+01  1.47912e+02        00000 
-1.87812e+01  1.48007e+02        00000 
-2.37805e+01  1.48129e+02        00000 
-2.88152e+01  1.48276e+02        00000 
-3.39045e+01  1.48467e+02        00000 
-3.90405e+01  1.48701e+02        00000 
-4.42202e+01  1.48970e+02        00000 
-4.94172e+01  1.49265e+02        00000 
-5.46014e+01  1.49596e+02        00000 
-5.98245e+01  1.49955e+02        00000 
-6.51502e+01  1.50337e+02        00000 
-7.05469e+01  1.50748e+02        00000 
 8.93898e+01  2.39149e+02        00000 
 8.33041e+01  2.38909e+02        00000 
 7.72703e+01  2.38688e+02        00000 
 7.12928e+01  2.38477e+02        00000 
 6.53391e+01  2.38288e+02        00000 
 5.94231e+01  2.38110e+02        00000 
 5.35661e+01  2.37945e+02        00000 
 4.77708e+01  2.37802e+02        00000 
 4.20401e+01  2.37673e+02        00000 
 3.62739e+01  2.37565e+02        00000 
 3.05130e+01  2.37464e+02        00000 
 2.47801e+01  2.37374e+02        00000 
 1.90339e+01  2.37298e+02        00000 
 1.33168e+01  2.37228e+02        00000 
 7.61510e+00  2.37164e+02        00000 
 1.88359e+00  2.37109e+02        00000 
-3.84118e+00  2.37074e+02        00000 
-9.58526e+00  2.37063e+02        00000 
-1.53301e+01  2.37075e+02        00000 
-2.10864e+01  2.37112e+02        00000 
-2.68544e+01  2.37163e+02        00000 
-3.26773e+01  2.37220e+02        00000 
-3.85278e+01  2.37295e+02        00000 
-4.44009e+01  2.37377e+02        00000 
-5.02765e+01  2.37466e+02        00000 
-5.61953e+01  2.37571e+02        00000 
-6.21948e+01  2.37694e+02        00000 
-6.82638e+01  2.37839e+02        00000 
-7.43737e+01  2.38009e+02        00000 
-8.05301e+01  2.38193e+02        00000 
 9.48033e+01  3.33922e+02        00000 
 8.83374e+01  3.33856e+02        00000 
 8.19720e+01  3.33794e+02        00000 
 7.56726e+01  3.33734e+02        00000 
 6.94101e+01  3.33687e+02        00000 
 6.32089e+01  3.33627e+02        00000 
 5.70359e+01  3.33584e+02        00000 
 5.08940e+01  3.33558e+02        00000 
 4.47613e+01  3.33536e+02        00000 
 3.86745e+01  3.33532e+02        00000 
 3.26340e+01  3.33543e+02        00000 
 2.66476e+01  3.33561e+02        00000 
 2.06739e+01  3.33564e+02        00000 
 1.46533e+01  3.33564e+02        00000 
 8.62607e+00  3.33565e+02        00000 
 2.59539e+00  3.33568e+02        00000 
-3.42961e+00  3.33572e+02        00000 
-9.45472e+00  3.33568e+02        00000 
-1.54934e+01  3.33566e+02        00000 
-2.15786e+01  3.33580e+02        00000 
-2.76471e+01  3.33597e+02        00000 
-3.37054e+01  3.33606e+02        00000 
-3.97787e+01  3.33613e+02        00000 
-4.59027e+01  3.33616e+02        00000 
-5.20928e+01  3.33618e+02        00000 
-5.83503e+01  3.33627e+02        00000 
-6.46550e+01  3.33646e+02        00000 
-7.10115e+01  3.33664e+02        00000 
-7.73753e+01  3.33685e+02        00000 
-8.38269e+01  3.33710e+02        00000 
 9.38318e+01  4.32276e+02        00000 
 8.74808e+01  4.32390e+02        00000 
 8.11937e+01  4.32488e+02        00000 
 7.49747e+01  4.32571e+02        00000 
 6.88303e+01  4.32646e+02        00000 
 6.27443e+01  4.32711e+02        00000 
 5.66837e+01  4.32762e+02        00000 
 5.06902e+01  4.32807e+02        00000 
 4.47091e+01  4.32842e+02        00000 
 3.87573e+01  4.32864e+02        00000 
 3.28707e+01  4.32879e+02        00000 
 2.69950e+01  4.32887e+02        00000 
 2.11059e+01  4.32888e+02        00000 
 1.52256e+01  4.32890e+02        00000 
 9.30397e+00  4.32883e+02        00000 
 3.37799e+00  4.32868e+02        00000 
-2.52048e+00  4.32843e+02        00000 
-8.46053e+00  4.32810e+02        00000 
-1.44417e+01  4.32773e+02        00000 
-2.03915e+01  4.32719e+02        00000 
-2.63691e+01  4.32654e+02        00000 
-3.23577e+01  4.32585e+02        00000 
-3.83925e+01  4.32521e+02        00000 
-4.44267e+01  4.32447e+02        00000 
-5.05148e+01  4.32361e+02        00000 
-5.66893e+01  4.32274e+02        00000 
-6.28848e+01  4.32169e+02        00000 
-6.91130e+01  4.32050e+02        00000 
-7.54277e+01  4.31911e+02        00000 
-8.17577e+01  4.31759e+02        00000 
 8.66752e+01  5.23996e+02        00000 
 8.09444e+01  5.24293e+02        00000 
 7.52451e+01  5.24559e+02        00000 
 6.95890e+01  5.24807e+02        00000 
 6.39977e+01  5.25028e+02        00000 
 5.84501e+01  5.25220e+02        00000 
 5.29220e+01  5.25393e+02        00000 
 4.73886e+01  5.25562e+02        00000 
 4.19232e+01  5.25709e+02        00000 
 3.64744e+01  5.25822e+02        00000 
 3.10287e+01  5.25938e+02        00000 
 2.56007e+01  5.26035e+02        00000 
 2.01899e+01  5.26107e+02        00000 
 1.48233e+01  5.26160e+02        00000 
 9.45509e+00  5.26179e+02        00000 
 4.08153e+00  5.26163e+02        00000 
-1.28733e+00  5.26130e+02        00000 
-6.64532e+00  5.26082e+02        00000 
-1.20308e+01  5.26005e+02        00000 
-1.74526e+01  5.25899e+02        00000 
-2.28871e+01  5.25767e+02        00000 
-2.83768e+01  5.25608e+02        00000 
-3.38621e+01  5.25418e+02        00000 
-3.93462e+01  5.25203e+02        00000 
-4.48731e+01  5.24961e+02        00000 
-5.04297e+01  5.24706e+02        00000 
-5.60112e+01  5.24435e+02        00000 
-6.16476e+01  5.24134e+02        00000 
-6.73292e+01  5.23817e+02        00000 
-7.30779e+01  5.23488e+02        00000 
 7.41229e+01  6.04445e+02        00000 
 6.92695e+01  6.04870e+02        00000 
 6.45087e+01  6.05262e+02        00000 
 5.97946e+01  6.05609e+02        00000 
 5.51448e+01  6.05927e+02        00000 
 5.05148e+01  6.06221e+02        00000 
 4.59224e+01  6.06474e+02        00000 
 4.13741e+01  6.06683e+02        00000 
 3.68291e+01  6.06858e+02        00000 
 3.23126e+01  6.07015e+02        00000 
 2.78475e+01  6.07133e+02        00000 
 2.33780e+01  6.07211e+02        00000 
 1.89436e+01  6.07254e+02        00000 
 1.44974e+01  6.07267e+02        00000 
 1.00319e+01  6.07250e+02        00000 
 5.54443e+00  6.07200e+02        00000 
 1.03856e+00  6.07112e+02        00000 
-3.44390e+00  6.06988e+02        00000 
-7.92295e+00  6.06849e+02        00000 
-1.24668e+01  6.06669e+02        00000 
-1.69983e+01  6.06450e+02        00000 
-2.14923e+01  6.06213e+02        00000 
-2.60272e+01  6.05941e+02        00000 
-3.06277e+01  6.05642e+02        00000 
-3.52765e+01  6.05317e+02        00000 
-3.99671e+01  6.04958e+02        00000 
-4.46784e+01  6.04570e+02        00000 
-4.94400e+01  6.04154e+02        00000 
-5.42259e+01  6.03710e+02        00000 
-5.90147e+01  6.03233e+02        00000 
 5.69315e+01  6.68625e+02        00000 
 5.33537e+01  6.69191e+02        00000 
 4.97959e+01  6.69698e+02        00000 
 4.63210e+01  6.70155e+02        00000 
 4.28768e+01  6.70578e+02        00000 
 3.94974e+01  6.70950e+02        00000 
 3.61463e+01  6.71285e+02        00000 
 3.28366e+01  6.71579e+02        00000 
 2.95592e+01  6.71831e+02        00000 
 2.63028e+01  6.72038e+02        00000 
 2.30775e+01  6.72202e+02        00000 
 1.98267e+01  6.72317e+02        00000 
 1.65916e+01  6.72387e+02        00000 
 1.33636e+01  6.72421e+02        00000 
 1.01601e+01  6.72418e+02        00000 
 7.00266e+00  6.72369e+02        00000 
 3.83128e+00  6.72284e+02        00000 
 6.42838e-01  6.72150e+02        00000 
-2.57444e+00  6.71971e+02        00000 
-5.82087e+00  6.71754e+02        00000 
-9.11035e+00  6.71492e+02        00000 
-1.24397e+01  6.71195e+02        00000 
-1.57843e+01  6.70853e+02        00000 
-1.91424e+01  6.70473e+02        00000 
-2.25485e+01  6.70054e+02        00000 
-2.59728e+01  6.69605e+02        00000 
-2.94610e+01  6.69120e+02        00000 
-3.29538e+01  6.68584e+02        00000 
-3.64865e+01  6.68011e+02        00000 
-4.00884e+01  6.67404e+02        00000 
 3.47764e+01  7.10647e+02        00000 
 3.27951e+01  7.11367e+02        00000 
 3.08550e+01  7.12029e+02        00000 
 2.89518e+01  7.12651e+02        00000 
 2.70842e+01  7.13208e+02        00000 
 2.52715e+01  7.13727e+02        00000 
 2.34982e+01  7.14208e+02        00000 
 2.17240e+01  7.14636e+02        00000 
 1.99756e+01  7.15011e+02        00000 
 1.83097e+01  7.15333e+02        00000 
 1.66359e+01  7.15610e+02        00000 
 1.49642e+01  7.15849e+02        00000 
 1.32534e+01  7.16041e+02        00000 
 1.15040e+01  7.16181e+02        00000 
 9.75804e+00  7.16263e+02        00000 
 8.02281e+00  7.16294e+02        00000 
 6.34222e+00  7.16265e+02        00000 
 4.65327e+00  7.16179e+02        00000 
 2.97681e+00  7.16040e+02        00000 
 1.28642e+00  7.15842e+02        00000 
-4.09916e-01  7.15591e+02        00000 
-2.15725e+00  7.15304e+02        00000 
-3.93688e+00  7.14976e+02        00000 
-5.73629e+00  7.14586e+02        00000 
-7.58268e+00  7.14145e+02        00000 
-9.44006e+00  7.13636e+02        00000 
-1.13248e+01  7.13061e+02        00000 
-1.32579e+01  7.12431e+02        00000 
-1.51645e+01  7.11755e+02        00000 
-1.71379e+01  7.11017e+02        00000 
 7.92603e+00  7.26909e+02        00000 
 7.85206e+00  7.27742e+02        00000 
 7.78089e+00  7.28511e+02        00000 
 7.75914e+00  7.29215e+02        00000 
 7.75673e+00  7.29855e+02        00000 
 7.79299e+00  7.30425e+02        00000 
 7.88144e+00  7.30930e+02        00000 
 7.96261e+00  7.31383e+02        00000 
 8.05691e+00  7.31780e+02        00000 
 8.11857e+00  7.32129e+02        00000 
 8.18354e+00  7.32436e+02        00000 
 8.27365e+00  7.32682e+02        00000 
 8.39375e+00  7.32865e+02        00000 
 8.55619e+00  7.32983e+02        00000 
 8.74361e+00  7.33032e+02        00000 
 8.94942e+00  7.33018e+02        00000 
 9.12168e+00  7.32950e+02        00000 
 9.28967e+00  7.32838e+02        00000 
 9.44156e+00  7.32674e+02        00000 
 9.57864e+00  7.32458e+02        00000 
 9.70576e+00  7.32183e+02        00000 
 9.87377e+00  7.31830e+02        00000 
 1.00060e+01  7.31414e+02        00000 
 1.00907e+01  7.30941e+02        00000 
 1.02060e+01  7.30398e+02        00000 
 1.02798e+01  7.29808e+02        00000 
 1.03034e+01  7.29165e+02        00000 
 1.02750e+01  7.28462e+02        00000 
 1.02564e+01  7.27701e+02        00000 
 1.02355e+01  7.26878e+02        00000 
-2.22409e+01  7.11970e+02        00000 
-2.01917e+01  7.12881e+02        00000 
-1.80987e+01  7.13743e+02        00000 
-1.60095e+01  7.14544e+02        00000 
-1.39079e+01  7.15284e+02        00000 
-1.18377e+01  7.15963e+02        00000 
-9.78225e+00  7.16582e+02        00000 
-7.66980e+00  7.17137e+02        00000 
-5.51991e+00  7.17614e+02        00000 
-3.32445e+00  7.18017e+02        00000 
-1.12227e+00  7.18336e+02        00000 
 1.04639e+00  7.18588e+02        00000 
 3.26078e+00  7.18774e+02        00000 
 5.49411e+00  7.18902e+02        00000 
 7.69570e+00  7.18976e+02        00000 
 9.88755e+00  7.18988e+02        00000 
 1.20839e+01  7.18923e+02        00000 
 1.42889e+01  7.18778e+02        00000 
 1.64899e+01  7.18559e+02        00000 
 1.86993e+01  7.18262e+02        00000 
 2.09240e+01  7.17892e+02        00000 
 2.31522e+01  7.17464e+02        00000 
 2.53522e+01  7.16978e+02        00000 
 2.75311e+01  7.16428e+02        00000 
 2.96876e+01  7.15834e+02        00000 
 3.18239e+01  7.15182e+02        00000 
 3.39390e+01  7.14462e+02        00000 
 3.60052e+01  7.13680e+02        00000 
 3.80228e+01  7.12835e+02        00000 
 4.00132e+01  7.11923e+02        00000 
-5.48868e+01  6.66208e+02        00000 
-5.05999e+01  6.67173e+02        00000 
-4.63119e+01  6.68068e+02        00000 
-4.19839e+01  6.68883e+02        00000 
-3.76394e+01  6.69632e+02        00000 
-3.33208e+01  6.70303e+02        00000 
-2.89487e+01  6.70901e+02        00000 
-2.45690e+01  6.71428e+02        00000 
-2.01802e+01  6.71889e+02        00000 
-1.57857e+01  6.72297e+02        00000 
-1.13675e+01  6.72652e+02        00000 
-6.92547e+00  6.72943e+02        00000 
-2.46967e+00  6.73158e+02        00000 
 1.97639e+00  6.73302e+02        00000 
 6.42339e+00  6.73383e+02        00000 
 1.08568e+01  6.73393e+02        00000 
 1.52979e+01  6.73340e+02        00000 
 1.97166e+01  6.73224e+02        00000 
 2.41138e+01  6.73047e+02        00000 
 2.85351e+01  6.72799e+02        00000 
 3.29460e+01  6.72487e+02        00000 
 3.73593e+01  6.72107e+02        00000 
 4.17846e+01  6.71647e+02        00000 
 4.62309e+01  6.71107e+02        00000 
 5.06476e+01  6.70478e+02        00000 
 5.50141e+01  6.69774e+02        00000 
 5.93510e+01  6.68997e+02        00000 
 6.36710e+01  6.68157e+02        00000 
 6.79737e+01  6.67249e+02        00000 
 7.22459e+01  6.66273e+02        00000 
-8.93143e+01  5.83617e+02        00000 
-8.25619e+01  5.84640e+02        00000 
-7.57817e+01  5.85580e+02        00000 
-6.89912e+01  5.86435e+02        00000 
-6.22380e+01  5.87212e+02        00000 
-5.54714e+01  5.87940e+02        00000 
-4.86838e+01  5.88594e+02        00000 
-4.19350e+01  5.89165e+02        00000 
-3.51941e+01  5.89673e+02        00000 
-2.85036e+01  5.90109e+02        00000 
-2.18009e+01  5.90457e+02        00000 
-1.50593e+01  5.90737e+02        00000 
-8.30803e+00  5.90956e+02        00000 
-1.53871e+00  5.91104e+02        00000 
 5.21107e+00  5.91172e+02        00000 
 1.19799e+01  5.91173e+02        00000 
 1.87066e+01  5.91103e+02        00000 
 2.54547e+01  5.90961e+02        00000 
 3.22534e+01  5.90745e+02        00000 
 3.90894e+01  5.90449e+02        00000 
 4.59163e+01  5.90072e+02        00000 
 5.27214e+01  5.89617e+02        00000 
 5.95472e+01  5.89086e+02        00000 
 6.63526e+01  5.88487e+02        00000 
 7.31638e+01  5.87828e+02        00000 
 7.99553e+01  5.87091e+02        00000 
 8.67408e+01  5.86275e+02        00000 
 9.35387e+01  5.85392e+02        00000 
 1.00379e+02  5.84439e+02        00000 
 1.07183e+02  5.83398e+02        00000 
-1.25294e+02  4.63363e+02        00000 
-1.16021e+02  4.64425e+02        00000 
-1.06750e+02  4.65415e+02        00000 
-9.74796e+01  4.66333e+02        00000 
-8.82351e+01  4.67164e+02        00000 
-7.89952e+01  4.67926e+02        00000 
-6.97527e+01  4.68606e+02        00000 
-6.04571e+01  4.69205e+02        00000 
-5.12115e+01  4.69729e+02        00000 
-4.19837e+01  4.70164e+02        00000 
-3.27578e+01  4.70524e+02        00000 
-2.35368e+01  4.70807e+02        00000 
-1.43230e+01  4.71013e+02        00000 
-5.10783e+00  4.71147e+02        00000 
 4.13493e+00  4.71213e+02        00000 
 1.33824e+01  4.71207e+02        00000 
 2.26306e+01  4.71122e+02        00000 
 3.18945e+01  4.70954e+02        00000 
 4.11661e+01  4.70707e+02        00000 
 5.04155e+01  4.70392e+02        00000 
 5.96694e+01  4.70002e+02        00000 
 6.89211e+01  4.69541e+02        00000 
 7.81895e+01  4.69009e+02        00000 
 8.74512e+01  4.68415e+02        00000 
 9.67200e+01  4.67754e+02        00000 
 1.06028e+02  4.67015e+02        00000 
 1.15288e+02  4.66206e+02        00000 
 1.24552e+02  4.65322e+02        00000 
 1.33809e+02  4.64356e+02        00000 
 1.43059e+02  4.63311e+02        00000 
-1.62429e+02  3.05280e+02        00000 
-1.50574e+02  3.06347e+02        00000 
-1.38743e+02  3.07336e+02        00000 
-1.26958e+02  3.08238e+02        00000 
-1.15182e+02  3.09069e+02        00000 
-1.03354e+02  3.09833e+02        00000 
-9.15061e+01  3.10521e+02        00000 
-7.96904e+01  3.11124e+02        00000 
-6.79024e+01  3.11662e+02        00000 
-5.60836e+01  3.12139e+02        00000 
-4.43035e+01  3.12529e+02        00000 
-3.25186e+01  3.12842e+02        00000 
-2.07458e+01  3.13080e+02        00000 
-8.95914e+00  3.13231e+02        00000 
 2.81699e+00  3.13299e+02        00000 
 1.46054e+01  3.13295e+02        00000 
 2.63723e+01  3.13222e+02        00000 