<?xml version="1.0" encoding="utf-8"?>
<VTKFile byte_order="LittleEndian" type="UnstructuredGrid" version="0.1">
   <UnstructuredGrid>
      <Piece NumberOfCells="3364" NumberOfPoints="1741">
         <Points>
            <DataArray Name="Points" NumberOfComponents="3" format="ascii" type="Float32">
0.0000 0.0000 0.0000
0.0000 0.0690 0.0000
0.0000 0.1379 0.0000
0.0000 0.2069 0.0000
0.0000 0.2759 0.0000
0.0000 0.3448 0.0000
0.0000 0.4138 0.0000
0.0000 0.4828 0.0000
0.0000 0.5517 0.0000
0.0000 0.6207 0.0000
0.0000 0.6897 0.0000
0.0000 0.7586 0.0000
0.0000 0.8276 0.0000
0.0000 0.8966 0.0000
0.0000 0.9655 0.0000
0.0000 1.0345 0.0000
0.0000 1.1034 0.0000
0.0000 1.1724 0.0000
0.0000 1.2414 0.0000
0.0000 1.3103 0.0000
0.0000 1.3793 0.0000
0.0000 1.4483 0.0000
0.0000 1.5172 0.0000
0.0000 1.5862 0.0000
0.0000 1.6552 0.0000
0.0000 1.7241 0.0000
0.0000 1.7931 0.0000
0.0000 1.8621 0.0000
0.0000 1.9310 0.0000
0.0000 2.0000 0.0000
1.0345 0.0000 0.0000
1.0345 0.0690 0.0000
1.0345 0.1379 0.0000
1.0345 0.2069 0.0000
1.0345 0.2759 0.0000
1.0345 0.3448 0.0000
1.0345 0.4138 0.0000
1.0345 0.4828 0.0000
1.0345 0.5517 0.0000
1.0345 0.6207 0.0000
1.0345 0.6897 0.0000
1.0345 0.7586 0.0000
1.0345 0.8276 0.0000
1.0345 0.8966 0.0000
1.0345 0.9655 0.0000
1.0345 1.0345 0.0000
1.0345 1.1034 0.0000
1.0345 1.1724 0.0000
1.0345 1.2414 0.0000
1.0345 1.3103 0.0000
1.0345 1.3793 0.0000
1.0345 1.4483 0.0000
1.0345 1.5172 0.0000
1.0345 1.5862 0.0000
1.0345 1.6552 0.0000
1.0345 1.7241 0.0000
1.0345 1.7931 0.0000
1.0345 1.8621 0.0000
1.0345 1.9310 0.0000
1.0345 2.0000 0.0000
2.0690 0.0000 0.0000
2.0690 0.0690 0.0000
2.0690 0.1379 0.0000
2.0690 0.2069 0.0000
2.0690 0.2759 0.0000
2.0690 0.3448 0.0000
2.0690 0.4138 0.0000
2.0690 0.4828 0.0000
2.0690 0.5517 0.0000
2.0690 0.6207 0.0000
2.0690 0.6897 0.0000
2.0690 0.7586 0.0000
2.0690 0.8276 0.0000
2.0690 0.8966 0.0000
2.0690 0.9655 0.0000
2.0690 1.0345 0.0000
2.0690 1.1034 0.0000
2.0690 1.1724 0.0000
2.0690 1.2414 0.0000
2.0690 1.3103 0.0000
2.0690 1.3793 0.0000
2.0690 1.4483 0.0000
2.0690 1.5172 0.0000
2.0690 1.5862 0.0000
2.0690 1.6552 0.0000
2.0690 1.7241 0.0000
2.0690 1.7931 0.0000
2.0690 1.8621 0.0000
2.0690 1.9310 0.0000
2.0690 2.0000 0.0000
3.1034 0.0000 0.0000
3.1034 0.0690 0.0000
3.1034 0.1379 0.0000
3.1034 0.2069 0.0000
3.1034 0.2759 0.0000
3.1034 0.3448 0.0000
3.1034 0.4138 0.0000
3.1034 0.4828 0.0000
3.1034 0.5517 0.0000
3.1034 0.6207 0.0000
3.1034 0.6897 0.0000
3.1034 0.7586 0.0000
3.1034 0.8276 0.0000
3.1034 0.8966 0.0000
3.1034 0.9655 0.0000
3.1034 1.0345 0.0000
3.1034 1.1034 0.0000
3.1034 1.1724 0.0000
3.1034 1.2414 0.0000
3.1034 1.3103 0.0000
3.1034 1.3793 0.0000
3.1034 1.4483 0.0000
3.1034 1.5172 0.0000
3.1034 1.5862 0.0000
3.1034 1.6552 0.0000
3.1034 1.7241 0.0000
3.1034 1.7931 0.0000
3.1034 1.8621 0.0000
3.1034 1.9310 0.0000
3.1034 2.0000 0.0000
4.1379 0.0000 0.0000
4.1379 0.0690 0.0000
4.1379 0.1379 0.0000
4.1379 0.2069 0.0000
4.1379 0.2759 0.0000
4.1379 0.3448 0.0000
4.1379 0.4138 0.0000
4.1379 0.4828 0.0000
4.1379 0.5517 0.0000
4.1379 0.6207 0.0000
4.1379 0.6897 0.0000
4.1379 0.7586 0.0000
4.1379 0.8276 0.0000
4.1379 0.8966 0.0000
4.1379 0.9655 0.0000
4.1379 1.0345 0.0000
4.1379 1.1034 0.0000
4.1379 1.1724 0.0000
4.1379 1.2414 0.0000
4.1379 1.3103 0.0000
4.1379 1.3793 0.0000
4.1379 1.4483 0.0000
4.1379 1.5172 0.0000
4.1379 1.5862 0.0000
4.1379 1.6552 0.0000
4.1379 1.7241 0.0000
4.1379 1.7931 0.0000
4.1379 1.8621 0.0000
4.1379 1.9310 0.0000
4.1379 2.0000 0.0000
5.1724 0.0000 0.0000
5.1724 0.0690 0.0000
5.1724 0.1379 0.0000
5.1724 0.2069 0.0000
5.1724 0.2759 0.0000
5.1724 0.3448 0.0000
5.1724 0.4138 0.0000
5.1724 0.4828 0.0000
5.1724 0.5517 0.0000
5.1724 0.6207 0.0000
5.1724 0.6897 0.0000
5.1724 0.7586 0.0000
5.1724 0.8276 0.0000
5.1724 0.8966 0.0000
5.1724 0.9655 0.0000
5.1724 1.0345 0.0000
5.1724 1.1034 0.0000
5.1724 1.1724 0.0000
5.1724 1.2414 0.0000
5.1724 1.3103 0.0000
5.1724 1.3793 0.0000
5.1724 1.4483 0.0000
5.1724 1.5172 0.0000
5.1724 1.5862 0.0000
5.1724 1.6552 0.0000
5.1724 1.7241 0.0000
5.1724 1.7931 0.0000
5.1724 1.8621 0.0000
5.1724 1.9310 0.0000
5.1724 2.0000 0.0000
6.2069 0.0000 0.0000
6.2069 0.0690 0.0000
6.2069 0.1379 0.0000
6.2069 0.2069 0.0000
6.2069 0.2759 0.0000
6.2069 0.3448 0.0000
6.2069 0.4138 0.0000
6.2069 0.4828 0.0000
6.2069 0.5517 0.0000
6.2069 0.6207 0.0000
6.2069 0.6897 0.0000
6.2069 0.7586 0.0000
6.2069 0.8276 0.0000
6.2069 0.8966 0.0000
6.2069 0.9655 0.0000
6.2069 1.0345 0.0000
6.2069 1.1034 0.0000
6.2069 1.1724 0.0000
6.2069 1.2414 0.0000
6.2069 1.3103 0.0000
6.2069 1.3793 0.0000
6.2069 1.4483 0.0000
6.2069 1.5172 0.0000
6.2069 1.5862 0.0000
6.2069 1.6552 0.0000
6.2069 1.7241 0.0000
6.2069 1.7931 0.0000
6.2069 1.8621 0.0000
6.2069 1.9310 0.0000
6.2069 2.0000 0.0000
7.2414 0.0000 0.0000
7.2414 0.0690 0.0000
7.2414 0.1379 0.0000
7.2414 0.2069 0.0000
7.2414 0.2759 0.0000
7.2414 0.3448 0.0000
7.2414 0.4138 0.0000
7.2414 0.4828 0.0000
7.2414 0.5517 0.0000
7.2414 0.6207 0.0000
7.2414 0.6897 0.0000
7.2414 0.7586 0.0000
7.2414 0.8276 0.0000
7.2414 0.8966 0.0000
7.2414 0.9655 0.0000
7.2414 1.0345 0.0000
7.2414 1.1034 0.0000
7.2414 1.1724 0.0000
7.2414 1.2414 0.0000
7.2414 1.3103 0.0000
7.2414 1.3793 0.0000
7.2414 1.4483 0.0000
7.2414 1.5172 0.0000
7.2414 1.5862 0.0000
7.2414 1.6552 0.0000
7.2414 1.7241 0.0000
7.2414 1.7931 0.0000
7.2414 1.8621 0.0000
7.2414 1.9310 0.0000
7.2414 2.0000 0.0000
8.2759 0.0000 0.0000
8.2759 0.0690 0.0000
8.2759 0.1379 0.0000
8.2759 0.2069 0.0000
8.2759 0.2759 0.0000
8.2759 0.3448 0.0000
8.2759 0.4138 0.0000
8.2759 0.4828 0.0000
8.2759 0.5517 0.0000
8.2759 0.6207 0.0000
8.2759 0.6897 0.0000
8.2759 0.7586 0.0000
8.2759 0.8276 0.0000
8.2759 0.8966 0.0000
8.2759 0.9655 0.0000
8.2759 1.0345 0.0000
8.2759 1.1034 0.0000
8.2759 1.1724 0.0000
8.2759 1.2414 0.0000
8.2759 1.3103 0.0000
8.2759 1.3793 0.0000
8.2759 1.4483 0.0000
8.2759 1.5172 0.0000
8.2759 1.5862 0.0000
8.2759 1.6552 0.0000
8.2759 1.7241 0.0000
8.2759 1.7931 0.0000
8.2759 1.8621 0.0000
8.2759 1.9310 0.0000
8.2759 2.0000 0.0000
9.3103 0.0000 0.0000
9.3103 0.0690 0.0000
9.3103 0.1379 0.0000
9.3103 0.2069 0.0000
9.3103 0.2759 0.0000
9.3103 0.3448 0.0000
9.3103 0.4138 0.0000
9.3103 0.4828 0.0000
9.3103 0.5517 0.0000
9.3103 0.6207 0.0000
9.3103 0.6897 0.0000
9.3103 0.7586 0.0000
9.3103 0.8276 0.0000
9.3103 0.8966 0.0000
9.3103 0.9655 0.0000
9.3103 1.0345 0.0000
9.3103 1.1034 0.0000
9.3103 1.1724 0.0000
9.3103 1.2414 0.0000
9.3103 1.3103 0.0000
9.3103 1.3793 0.0000
9.3103 1.4483 0.0000
9.3103 1.5172 0.0000
9.3103 1.5862 0.0000
9.3103 1.6552 0.0000
9.3103 1.7241 0.0000
9.3103 1.7931 0.0000
9.3103 1.8621 0.0000
9.3103 1.9310 0.0000
9.3103 2.0000 0.0000
10.3448 0.0000 0.0000
10.3448 0.0690 0.0000
10.3448 0.1379 0.0000
10.3448 0.2069 0.0000
10.3448 0.2759 0.0000
10.3448 0.3448 0.0000
10.3448 0.4138 0.0000
10.3448 0.4828 0.0000
10.3448 0.5517 0.0000
10.3448 0.6207 0.0000
10.3448 0.6897 0.0000
10.3448 0.7586 0.0000
10.3448 0.8276 0.0000
10.3448 0.8966 0.0000
10.3448 0.9655 0.0000
10.3448 1.0345 0.0000
10.3448 1.1034 0.0000
10.3448 1.1724 0.0000
10.3448 1.2414 0.0000
10.3448 1.3103 0.0000
10.3448 1.3793 0.0000
10.3448 1.4483 0.0000
10.3448 1.5172 0.0000
10.3448 1.5862 0.0000
10.3448 1.6552 0.0000
10.3448 1.7241 0.0000
10.3448 1.7931 0.0000
10.3448 1.8621 0.0000
10.3448 1.9310 0.0000
10.3448 2.0000 0.0000
11.3793 0.0000 0.0000
11.3793 0.0690 0.0000
11.3793 0.1379 0.0000
11.3793 0.2069 0.0000
11.3793 0.2759 0.0000
11.3793 0.3448 0.0000
11.3793 0.4138 0.0000
11.3793 0.4828 0.0000
11.3793 0.5517 0.0000
11.3793 0.6207 0.0000
11.3793 0.6897 0.0000
11.3793 0.7586 0.0000
11.3793 0.8276 0.0000
11.3793 0.8966 0.0000
11.3793 0.9655 0.0000
11.3793 1.0345 0.0000
11.3793 1.1034 0.0000
11.3793 1.1724 0.0000
11.3793 1.2414 0.0000
11.3793 1.3103 0.0000
11.3793 1.3793 0.0000
11.3793 1.4483 0.0000
11.3793 1.5172 0.0000
11.3793 1.5862 0.0000
11.3793 1.6552 0.0000
11.3793 1.7241 0.0000
11.3793 1.7931 0.0000
11.3793 1.8621 0.0000
11.3793 1.9310 0.0000
11.3793 2.0000 0.0000
12.4138 0.0000 0.0000
12.4138 0.0690 0.0000
12.4138 0.1379 0.0000
12.4138 0.2069 0.0000
12.4138 0.2759 0.0000
12.4138 0.3448 0.0000
12.4138 0.4138 0.0000
12.4138 0.4828 0.0000
12.4138 0.5517 0.0000
12.4138 0.6207 0.0000
12.4138 0.6897 0.0000
12.4138 0.7586 0.0000
12.4138 0.8276 0.0000
12.4138 0.8966 0.0000
12.4138 0.9655 0.0000
12.4138 1.0345 0.0000
12.4138 1.1034 0.0000
12.4138 1.1724 0.0000
12.4138 1.2414 0.0000
12.4138 1.3103 0.0000
12.4138 1.3793 0.0000
12.4138 1.4483 0.0000
12.4138 1.5172 0.0000
12.4138 1.5862 0.0000
12.4138 1.6552 0.0000
12.4138 1.7241 0.0000
12.4138 1.7931 0.0000
12.4138 1.8621 0.0000
12.4138 1.9310 0.0000
12.4138 2.0000 0.0000
13.4483 0.0000 0.0000
13.4483 0.0690 0.0000
13.4483 0.1379 0.0000
13.4483 0.2069 0.0000
13.4483 0.2759 0.0000
13.4483 0.3448 0.0000
13.4483 0.4138 0.0000
13.4483 0.4828 0.0000
13.4483 0.5517 0.0000
13.4483 0.6207 0.0000
13.4483 0.6897 0.0000
13.4483 0.7586 0.0000
13.4483 0.8276 0.0000
13.4483 0.8966 0.0000
13.4483 0.9655 0.0000
13.4483 1.0345 0.0000
13.4483 1.1034 0.0000
13.4483 1.1724 0.0000
13.4483 1.2414 0.0000
13.4483 1.3103 0.0000
13.4483 1.3793 0.0000
13.4483 1.4483 0.0000
13.4483 1.5172 0.0000
13.4483 1.5862 0.0000
13.4483 1.6552 0.0000
13.4483 1.7241 0.0000
13.4483 1.7931 0.0000
13.4483 1.8621 0.0000
13.4483 1.9310 0.0000
13.4483 2.0000 0.0000
14.4828 0.0000 0.0000
14.4828 0.0690 0.0000
14.4828 0.1379 0.0000
14.4828 0.2069 0.0000
14.4828 0.2759 0.0000
14.4828 0.3448 0.0000
14.4828 0.4138 0.0000
14.4828 0.4828 0.0000
14.4828 0.5517 0.0000
14.4828 0.6207 0.0000
14.4828 0.6897 0.0000
14.4828 0.7586 0.0000
14.4828 0.8276 0.0000
14.4828 0.8966 0.0000
14.4828 0.9655 0.0000
14.4828 1.0345 0.0000
14.4828 1.1034 0.0000
14.4828 1.1724 0.0000
14.4828 1.2414 0.0000
14.4828 1.3103 0.0000
14.4828 1.3793 0.0000
14.4828 1.4483 0.0000
14.4828 1.5172 0.0000
14.4828 1.5862 0.0000
14.4828 1.6552 0.0000
14.4828 1.7241 0.0000
14.4828 1.7931 0.0000
14.4828 1.8621 0.0000
14.4828 1.9310 0.0000
14.4828 2.0000 0.0000
15.5172 0.0000 0.0000
15.5172 0.0690 0.0000
15.5172 0.1379 0.0000
15.5172 0.2069 0.0000
[...]
         <PointData>
            <DataArray Name="fValues" NumberOfComponents="3" format="ascii" type="Float64">
 4.25559e-15  4.11801e-15        00000 
-5.50342e-15 -4.95307e-15        00000 
 1.08844e-15 -2.72110e-15        00000 
-1.70943e-17  6.32489e-15        00000 
 2.72110e-16 -8.16329e-15        00000 
 2.29327e-15  3.94783e-15        00000 
-2.44899e-15 -2.99321e-15        00000 
 3.84622e-15  8.22236e-15        00000 
-1.08844e-15 -8.16329e-16        00000 
-8.06871e-16 -4.07457e-16        00000 
 2.72110e-16 -2.72110e-16        00000 
 5.38471e-16  2.56415e-16        00000 
-1.39456e-15 -2.99321e-15        00000 
 9.62875e-16  3.53550e-15        00000 
-3.06124e-16  5.44220e-16        00000 
 1.02566e-16 -1.43592e-15        00000 
 1.70069e-16 -4.89798e-15        00000 
-6.11185e-17  1.39822e-15        00000 
-5.78233e-16  3.26532e-15        00000 
 3.07697e-16 -2.94022e-15        00000 
 1.76871e-15 -1.63266e-15        00000 
 1.36208e-15  1.53839e-16        00000 
 8.16329e-16 -3.80954e-15        00000 
-2.64107e-15  1.19660e-15        00000 
-8.16329e-16 -2.44899e-15        00000 
-2.27988e-16 -1.71882e-15        00000 
 2.72110e-15 -3.80954e-15        00000 
-5.82290e-15  1.30159e-15        00000 
-7.89026e-16 -2.74444e-15        00000 
 1.97256e-16 -7.53760e-16        00000 
 3.20104e+01  2.83714e+01        00000 
 2.92861e+01  2.73696e+01        00000 
 2.67299e+01  2.64537e+01        00000 
 2.43016e+01  2.56347e+01        00000 
 2.19832e+01  2.49006e+01        00000 
 1.97521e+01  2.42445e+01        00000 
 1.75779e+01  2.36672e+01        00000 
 1.54810e+01  2.31523e+01        00000 
 1.34614e+01  2.26984e+01        00000 
 1.15162e+01  2.22986e+01        00000 
 9.60668e+00  2.19507e+01        00000 
 7.72732e+00  2.16537e+01        00000 
 5.87988e+00  2.14234e+01        00000 
 4.05108e+00  2.12427e+01        00000 
 2.24826e+00  2.11143e+01        00000 
 4.50602e-01  2.10612e+01        00000 
-1.32690e+00  2.10594e+01        00000 
-3.14260e+00  2.11097e+01        00000 
-4.97053e+00  2.12246e+01        00000 
-6.80572e+00  2.14094e+01        00000 
-8.66856e+00  2.16594e+01        00000 
-1.05696e+01  2.19852e+01        00000 
-1.24949e+01  2.23702e+01        00000 
-1.44822e+01  2.28237e+01        00000 
-1.65582e+01  2.33524e+01        00000 
-1.87067e+01  2.39385e+01        00000 
-2.09518e+01  2.46063e+01        00000 
-2.33200e+01  2.53402e+01        00000 
-2.58400e+01  2.61616e+01        00000 
-2.84916e+01  2.70570e+01        00000 
 5.78007e+01  7.85732e+01        00000 
 5.37699e+01  7.79347e+01        00000 
 4.97791e+01  7.73127e+01        00000 
 4.58352e+01  7.67266e+01        00000 
 4.19382e+01  7.61697e+01        00000 
 3.80719e+01  7.56450e+01        00000 
 3.42536e+01  7.51716e+01        00000 
 3.04678e+01  7.47366e+01        00000 
 2.67251e+01  7.43348e+01        00000 
 2.30135e+01  7.39912e+01        00000 
 1.93660e+01  7.36956e+01        00000 
 1.57407e+01  7.34466e+01        00000 
 1.21479e+01  7.32469e+01        00000 
 8.56187e+00  7.30839e+01        00000 
 4.95438e+00  7.29694e+01        00000 
 1.34141e+00  7.29167e+01        00000 
-2.27689e+00  7.29146e+01        00000 
-5.87727e+00  7.29573e+01        00000 
-9.49111e+00  7.30523e+01        00000 
-1.30900e+01  7.31776e+01        00000 
-1.66972e+01  7.33418e+01        00000 
-2.03453e+01  7.35586e+01        00000 
-2.40443e+01  7.38084e+01        00000 
-2.78004e+01  7.41103e+01        00000 
-3.16080e+01  7.44590e+01        00000 
-3.54754e+01  7.48578e+01        00000 
-3.93892e+01  7.53035e+01        00000 
-4.33494e+01  7.57866e+01        00000 
-4.73556e+01  7.63014e+01        00000 
-5.13946e+01  7.68602e+01        00000 
 7.75001e+01  1.50278e+02        00000 
 7.21345e+01  1.49801e+02        00000 
 6.68363e+01  1.49364e+02        00000 
 6.15906e+01  1.48950e+02        00000 
 5.64041e+01  1.48578e+02        00000 
 5.12953e+01  1.48229e+02        00000 
 4.62606e+01  1.47914e+02        00000 
 4.12754e+01  1.47628e+02        00000 
 3.62912e+01  1.47372e+02        00000 
 3.13130e+01  1.47146e+02        00000 
 2.63585e+01  1.46951e+02        00000 
 2.14522e+01  1.46793e+02        00000 
 1.65633e+01  1.46655e+02        00000 
 1.16956e+01  1.46562e+02        00000 
 6.81125e+00  1.46495e+02        00000 
 1.94398e+00  1.46449e+02        00000 
-2.88908e+00  1.46441e+02        00000 
-7.73045e+00  1.46461e+02        00000 
-1.25907e+01  1.46509e+02        00000 
-1.74765e+01  1.46596e+02        00000 
-2.23777e+01  1.46712e+02        00000 
-2.73162e+01  1.46854e+02        00000 
-3.22869e+01  1.47036e+02        00000 
-3.72917e+01  1.47241e+02        00000 
-4.23345e+01  1.47476e+02        00000 
-4.74110e+01  1.47751e+02        00000 
-5.25429e+01  1.48049e+02        00000 
-5.77582e+01  1.48376e+02        00000 
-6.30477e+01  1.48739e+02        00000 
-6.84318e+01  1.49134e+02        00000 
 9.00931e+01  2.37926e+02        00000 
 8.39737e+01  2.37657e+02        00000 
 7.79285e+01  2.37413e+02        00000 
 7.19450e+01  2.37184e+02        00000 
 6.60264e+01  2.36979e+02        00000 
 6.01438e+01  2.36794e+02        00000 
 5.42603e+01  2.36627e+02        00000 
 4.84450e+01  2.36481e+02        00000 
 4.26999e+01  2.36348e+02        00000 
 3.69906e+01  2.36229e+02        00000 
 3.12960e+01  2.36124e+02        00000 
 2.56349e+01  2.36024e+02        00000 
 1.99755e+01  2.35945e+02        00000 
 1.43263e+01  2.35880e+02        00000 
 8.71843e+00  2.35835e+02        00000 
 3.11233e+00  2.35798e+02        00000 
-2.51222e+00  2.35785e+02        00000 
-8.15130e+00  2.35782e+02        00000 
-1.37944e+01  2.35802e+02        00000 
-1.94625e+01  2.35847e+02        00000 
-2.51730e+01  2.35910e+02        00000 
-3.09041e+01  2.35987e+02        00000 
-3.66675e+01  2.36082e+02        00000 
-4.24662e+01  2.36186e+02        00000 
-4.83024e+01  2.36293e+02        00000 
-5.41826e+01  2.36430e+02        00000 
-6.01331e+01  2.36572e+02        00000 
-6.61406e+01  2.36740e+02        00000 
-7.22073e+01  2.36916e+02        00000 
-7.83442e+01  2.37108e+02        00000 
 9.60396e+01  3.33548e+02        00000 
 8.96290e+01  3.33472e+02        00000 
 8.32813e+01  3.33397e+02        00000 
 7.69873e+01  3.33330e+02        00000 
 7.07461e+01  3.33254e+02        00000 
 6.45646e+01  3.33180e+02        00000 
 5.84484e+01  3.33101e+02        00000 
 5.23463e+01  3.33026e+02        00000 
 4.62669e+01  3.32951e+02        00000 
 4.02356e+01  3.32887e+02        00000 
 3.42421e+01  3.32836e+02        00000 
 2.82707e+01  3.32774e+02        00000 
 2.23079e+01  3.32725e+02        00000 
 1.63403e+01  3.32671e+02        00000 
 1.03839e+01  3.32608e+02        00000 
 4.42566e+00  3.32563e+02        00000 
-1.52872e+00  3.32514e+02        00000 
-7.50844e+00  3.32472e+02        00000 
-1.35317e+01  3.32436e+02        00000 
-1.95566e+01  3.32403e+02        00000 
-2.55718e+01  3.32375e+02        00000 
-3.16029e+01  3.32354e+02        00000 
-3.76696e+01  3.32339e+02        00000 
-4.37756e+01  3.32325e+02        00000 
-4.99266e+01  3.32324e+02        00000 
-5.61307e+01  3.32317e+02        00000 
-6.23521e+01  3.32325e+02        00000 
-6.86148e+01  3.32325e+02        00000 
-7.49633e+01  3.32324e+02        00000 
-8.13790e+01  3.32323e+02        00000 
 9.56095e+01  4.30149e+02        00000 
 8.93201e+01  4.30247e+02        00000 
 8.31154e+01  4.30328e+02        00000 
 7.69853e+01  4.30414e+02        00000 
 7.08794e+01  4.30481e+02        00000 
 6.48283e+01  4.30537e+02        00000 
 5.88270e+01  4.30577e+02        00000 
 5.28503e+01  4.30614e+02        00000 
 4.69027e+01  4.30631e+02        00000 
 4.09857e+01  4.30634e+02        00000 
 3.51002e+01  4.30627e+02        00000 
 2.92412e+01  4.30602e+02        00000 
 2.34104e+01  4.30578e+02        00000 
 1.75868e+01  4.30541e+02        00000 
 1.17522e+01  4.30491e+02        00000 
 5.88798e+00  4.30442e+02        00000 
 5.25030e-03  4.30384e+02        00000 
-5.88509e+00  4.30307e+02        00000 
-1.17574e+01  4.30230e+02        00000 
-1.76528e+01  4.30146e+02        00000 
-2.35840e+01  4.30051e+02        00000 
-2.95361e+01  4.29955e+02        00000 
-3.55375e+01  4.29844e+02        00000 
-4.15592e+01  4.29730e+02        00000 
-4.76053e+01  4.29609e+02        00000 
-5.37045e+01  4.29481e+02        00000 
-5.98359e+01  4.29342e+02        00000 
-6.60114e+01  4.29191e+02        00000 
-7.22457e+01  4.29042e+02        00000 
-7.85365e+01  4.28877e+02        00000 
 8.94075e+01  5.21344e+02        00000 
 8.36434e+01  5.21616e+02        00000 
 7.79329e+01  5.21861e+02        00000 
 7.22885e+01  5.22091e+02        00000 
 6.67027e+01  5.22310e+02        00000 
 6.11445e+01  5.22496e+02        00000 
 5.56297e+01  5.22667e+02        00000 
 5.01682e+01  5.22816e+02        00000 
 4.47394e+01  5.22938e+02        00000 
 3.93324e+01  5.23042e+02        00000 
 3.39286e+01  5.23120e+02        00000 
 2.85491e+01  5.23174e+02        00000 
 2.31619e+01  5.23203e+02        00000 
 1.77704e+01  5.23204e+02        00000 
 1.24041e+01  5.23184e+02        00000 
 7.04993e+00  5.23165e+02        00000 
 1.68678e+00  5.23123e+02        00000 
-3.65851e+00  5.23059e+02        00000 
-9.02224e+00  5.22980e+02        00000 
-1.44019e+01  5.22880e+02        00000 
-1.98053e+01  5.22758e+02        00000 
-2.52368e+01  5.22617e+02        00000 
-3.07165e+01  5.22446e+02        00000 
-3.62375e+01  5.22246e+02        00000 
-4.17900e+01  5.22032e+02        00000 
-4.73568e+01  5.21794e+02        00000 
-5.29907e+01  5.21533e+02        00000 
-5.86768e+01  5.21247e+02        00000 
-6.43931e+01  5.20944e+02        00000 
-7.01587e+01  5.20622e+02        00000 
 7.73185e+01  6.02347e+02        00000 
 7.24654e+01  6.02781e+02        00000 
 6.76818e+01  6.03180e+02        00000 
 6.29359e+01  6.03541e+02        00000 
 5.82498e+01  6.03873e+02        00000 
 5.36033e+01  6.04161e+02        00000 
 4.89658e+01  6.04414e+02        00000 
 4.43461e+01  6.04641e+02        00000 
 3.97560e+01  6.04841e+02        00000 
 3.51905e+01  6.05005e+02        00000 
 3.06336e+01  6.05143e+02        00000 
 2.60786e+01  6.05252e+02        00000 
 2.15684e+01  6.05331e+02        00000 
 1.70888e+01  6.05373e+02        00000 
 1.26294e+01  6.05385e+02        00000 
 8.16501e+00  6.05357e+02        00000 
 3.69874e+00  6.05301e+02        00000 
-7.95426e-01  6.05212e+02        00000 
-5.30530e+00  6.05083e+02        00000 
-9.82988e+00  6.04929e+02        00000 
-1.43587e+01  6.04737e+02        00000 
-1.89006e+01  6.04511e+02        00000 
-2.34563e+01  6.04259e+02        00000 
-2.80195e+01  6.03969e+02        00000 
-3.26047e+01  6.03654e+02        00000 
-3.72752e+01  6.03318e+02        00000 
-4.20020e+01  6.02940e+02        00000 
-4.67739e+01  6.02537e+02        00000 
-5.16062e+01  6.02092e+02        00000 
-5.64848e+01  6.01620e+02        00000 
 5.95294e+01  6.66594e+02        00000 
 5.59835e+01  6.67167e+02        00000 
 5.24848e+01  6.67697e+02        00000 
 4.90120e+01  6.68178e+02        00000 
 4.55557e+01  6.68624e+02        00000 
 4.21517e+01  6.69036e+02        00000 
 3.88087e+01  6.69395e+02        00000 
 3.54931e+01  6.69713e+02        00000 
 3.22056e+01  6.69980e+02        00000 
 2.89371e+01  6.70196e+02        00000 
 2.56982e+01  6.70370e+02        00000 
 2.24759e+01  6.70508e+02        00000 
 1.92489e+01  6.70607e+02        00000 
 1.60005e+01  6.70671e+02        00000 
 1.27411e+01  6.70697e+02        00000 
 9.47982e+00  6.70674e+02        00000 
 6.22508e+00  6.70606e+02        00000 
 2.98549e+00  6.70501e+02        00000 
-2.50432e-01  6.70345e+02        00000 
-3.51677e+00  6.70159e+02        00000 
-6.82113e+00  6.69933e+02        00000 
-1.01766e+01  6.69661e+02        00000 
-1.35843e+01  6.69358e+02        00000 
-1.70183e+01  6.69007e+02        00000 
-2.04824e+01  6.68617e+02        00000 
-2.39413e+01  6.68186e+02        00000 
-2.73831e+01  6.67705e+02        00000 
-3.08551e+01  6.67190e+02        00000 
-3.43629e+01  6.66637e+02        00000 
-3.79199e+01  6.66034e+02        00000 
 3.75373e+01  7.08338e+02        00000 
 3.55682e+01  7.09033e+02        00000 
 3.36435e+01  7.09665e+02        00000 
 3.17705e+01  7.10248e+02        00000 
 2.99275e+01  7.10782e+02        00000 
 2.81147e+01  7.11271e+02        00000 
 2.63356e+01  7.11708e+02        00000 
 2.45705e+01  7.12099e+02        00000 
 2.28170e+01  7.12439e+02        00000 
 2.10844e+01  7.12729e+02        00000 
 1.93312e+01  7.12968e+02        00000 
 1.75713e+01  7.13160e+02        00000 
 1.58391e+01  7.13290e+02        00000 
 1.41338e+01  7.13378e+02        00000 
 1.24132e+01  7.13411e+02        00000 
 1.07210e+01  7.13391e+02        00000 
 8.99794e+00  7.13328e+02        00000 
 7.24152e+00  7.13220e+02        00000 
 5.46752e+00  7.13063e+02        00000 
 3.68851e+00  7.12854e+02        00000 
 1.89068e+00  7.12606e+02        00000 
 6.73435e-02  7.12295e+02        00000 
-1.73700e+00  7.11930e+02        00000 
-3.56499e+00  7.11509e+02        00000 
-5.41547e+00  7.11036e+02        00000 
-7.26467e+00  7.10516e+02        00000 
-9.14958e+00  7.09949e+02        00000 
-1.10775e+01  7.09331e+02        00000 
-1.30079e+01  7.08657e+02        00000 
-1.49754e+01  7.07927e+02        00000 
 1.15360e+01  7.25220e+02        00000 
 1.14251e+01  7.26046e+02        00000 
 1.13407e+01  7.26808e+02        00000 
 1.12669e+01  7.27515e+02        00000 
 1.12164e+01  7.28168e+02        00000 
 1.11875e+01  7.28755e+02        00000 
 1.11715e+01  7.29287e+02        00000 
 1.11734e+01  7.29762e+02        00000 
 1.11952e+01  7.30188e+02        00000 
 1.12474e+01  7.30543e+02        00000 
 1.13186e+01  7.30833e+02        00000 
 1.13872e+01  7.31057e+02        00000 
 1.14661e+01  7.31206e+02        00000 
 1.15625e+01  7.31297e+02        00000 
 1.16690e+01  7.31336e+02        00000 
 1.17478e+01  7.31316e+02        00000 
 1.18395e+01  7.31245e+02        00000 
 1.19250e+01  7.31112e+02        00000 
 1.19986e+01  7.30921e+02        00000 
 1.20655e+01  7.30669e+02        00000 
 1.21450e+01  7.30365e+02        00000 
 1.22372e+01  7.30002e+02        00000 
 1.23142e+01  7.29580e+02        00000 
 1.23730e+01  7.29102e+02        00000 
 1.23888e+01  7.28559e+02        00000 
 1.23476e+01  7.27968e+02        00000 
 1.22892e+01  7.27310e+02        00000 
 1.22187e+01  7.26602e+02        00000 
 1.21056e+01  7.25835e+02        00000 
 1.19418e+01  7.24999e+02        00000 
-1.88362e+01  7.11968e+02        00000 
-1.68431e+01  7.12894e+02        00000 
-1.48152e+01  7.13755e+02        00000 
-1.27659e+01  7.14555e+02        00000 
-1.07094e+01  7.15295e+02        00000 
-8.62539e+00  7.15964e+02        00000 
-6.52144e+00  7.16574e+02        00000 
-4.40945e+00  7.17115e+02        00000 
-2.29491e+00  7.17591e+02        00000 
-1.70898e-01  7.17996e+02        00000 
 1.97312e+00  7.18327e+02        00000 
 4.14152e+00  7.18591e+02        00000 
 6.32405e+00  7.18784e+02        00000 
 8.51913e+00  7.18900e+02        00000 
 1.07253e+01  7.18952e+02        00000 
 1.29343e+01  7.18939e+02        00000 
 1.51504e+01  7.18848e+02        00000 
 1.73489e+01  7.18693e+02        00000 
 1.95288e+01  7.18474e+02        00000 
 2.16872e+01  7.18188e+02        00000 
 2.38343e+01  7.17833e+02        00000 
 2.59957e+01  7.17422e+02        00000 
 2.81514e+01  7.16943e+02        00000 
 3.03058e+01  7.16400e+02        00000 
 3.24426e+01  7.15805e+02        00000 
 3.45626e+01  7.15140e+02        00000 
 3.66431e+01  7.14410e+02        00000 
 3.86593e+01  7.13617e+02        00000 
 4.06370e+01  7.12767e+02        00000 
 4.26066e+01  7.11842e+02        00000 
-5.15882e+01  6.65419e+02        00000 
-4.73188e+01  6.66398e+02        00000 
-4.30246e+01  6.67309e+02        00000 
-3.87018e+01  6.68149e+02        00000 
-3.43779e+01  6.68921e+02        00000 
-3.00502e+01  6.69628e+02        00000 
-2.56959e+01  6.70264e+02        00000 
-2.13249e+01  6.70826e+02        00000 
-1.69181e+01  6.71318e+02        00000 
-1.24766e+01  6.71735e+02        00000 
-8.05215e+00  6.72080e+02        00000 
-3.62642e+00  6.72357e+02        00000 
 7.98786e-01  6.72571e+02        00000 
 5.22579e+00  6.72710e+02        00000 
 9.65684e+00  6.72785e+02        00000 
 1.40857e+01  6.72793e+02        00000 
 1.84952e+01  6.72737e+02        00000 
 2.29202e+01  6.72609e+02        00000 
 2.73592e+01  6.72417e+02        00000 
 3.18053e+01  6.72157e+02        00000 
 3.62382e+01  6.71814e+02        00000 
 4.06519e+01  6.71410e+02        00000 
 4.50362e+01  6.70925e+02        00000 
 4.93946e+01  6.70377e+02        00000 
 5.37278e+01  6.69766e+02        00000 
 5.80465e+01  6.69091e+02        00000 
 6.23670e+01  6.68343e+02        00000 
 6.67007e+01  6.67523e+02        00000 
 7.10258e+01  6.66628e+02        00000 
 7.53117e+01  6.65662e+02        00000 
-8.66767e+01  5.83305e+02        00000 
-7.99893e+01  5.84358e+02        00000 
-7.32879e+01  5.85342e+02        00000 
-6.65635e+01  5.86251e+02        00000 
-5.98209e+01  5.87080e+02        00000 
-5.30543e+01  5.87838e+02        00000 
-4.62714e+01  5.88513e+02        00000 
-3.94778e+01  5.89123e+02        00000 
-3.26910e+01  5.89665e+02        00000 
-2.59142e+01  5.90126e+02        00000 
-1.91453e+01  5.90516e+02        00000 
-1.24032e+01  5.90832e+02        00000 
-5.64582e+00  5.91075e+02        00000 
 1.13494e+00  5.91247e+02        00000 
 7.91245e+00  5.91348e+02        00000 
 1.47136e+01  5.91376e+02        00000 
 2.15306e+01  5.91332e+02        00000 
 2.83233e+01  5.91215e+02        00000 
 3.51029e+01  5.91023e+02        00000 
 4.19013e+01  5.90763e+02        00000 
 4.86939e+01  5.90431e+02        00000 
 5.54649e+01  5.90025e+02        00000 
 6.22449e+01  5.89547e+02        00000 
 6.89924e+01  5.88985e+02        00000 
 7.57024e+01  5.88349e+02        00000 
 8.23877e+01  5.87636e+02        00000 
 8.90821e+01  5.86860e+02        00000 
 9.57880e+01  5.85999e+02        00000 
 1.02493e+02  5.85077e+02        00000 
 1.09182e+02  5.84078e+02        00000 
-1.23758e+02  4.64441e+02        00000 
-1.14548e+02  4.65528e+02        00000 
-1.05323e+02  4.66529e+02        00000 
-9.60899e+01  4.67459e+02        00000 
-8.68285e+01  4.68307e+02        00000 
-7.75739e+01  4.69087e+02        00000 
-6.83323e+01  4.69789e+02        00000 
-5.90827e+01  4.70411e+02        00000 
-4.98231e+01  4.70968e+02        00000 
-4.05503e+01  4.71451e+02        00000 
-3.12784e+01  4.71864e+02        00000 
-2.20180e+01  4.72207e+02        00000 
-1.27646e+01  4.72482e+02        00000 
-3.51160e+00  4.72679e+02        00000 
 5.74607e+00  4.72803e+02        00000 
 1.49948e+01  4.72853e+02        00000 
 2.42380e+01  4.72831e+02        00000 
 3.35005e+01  4.72733e+02        00000 
 4.27636e+01  4.72560e+02        00000 
 5.20213e+01  4.72303e+02        00000 
 6.12658e+01  4.71965e+02        00000 
 7.04859e+01  4.71556e+02        00000 
 7.97107e+01  4.71072e+02        00000 
 8.89699e+01  4.70511e+02        00000 
 9.82239e+01  4.69866e+02        00000 
 1.07456e+02  4.69143e+02        00000 
 1.16668e+02  4.68335e+02        00000 
 1.25846e+02  4.67447e+02        00000 
 1.35013e+02  4.66482e+02        00000 
 1.44182e+02  4.65450e+02        00000 
-1.61469e+02  3.07152e+02        00000 
-1.49723e+02  3.08262e+02        00000 
-1.38001e+02  3.09297e+02        00000 
-1.26269e+02  3.10267e+02        00000 
-1.14545e+02  3.11158e+02        00000 
-1.02800e+02  3.11978e+02        00000 
-9.10210e+01  3.12722e+02        00000 
-7.92371e+01  3.13389e+02        00000 
-6.74728e+01  3.13979e+02        00000 
-5.57259e+01  3.14478e+02        00000 
-4.39553e+01  3.14899e+02        00000 
-3.21561e+01  3.15241e+02        00000 
-2.03463e+01  3.15500e+02        00000 
-8.56296e+00  3.15682e+02        00000 
 3.19009e+00  3.15777e+02        00000 
 1.49631e+01  3.15802e+02        00000 
 2.67810e+01  3.15743e+02        00000 