<?xml version="1.0" encoding="utf-8"?>
<VTKFile byte_order="LittleEndian" type="UnstructuredGrid" version="0.1">
   <UnstructuredGrid>
      <Piece NumberOfCells="3364" NumberOfPoints="1741">
         <Points>
            <DataArray Name="Points" NumberOfComponents="3" format="ascii" type="Float32">
0.0000 0.0000 0.0000
0.0000 0.0690 0.0000
0.0000 0.1379 0.0000
0.0000 0.2069 0.0000
0.0000 0.2759 0.0000
0.0000 0.3448 0.0000
0.0000 0.4138 0.0000
0.0000 0.4828 0.0000
0.0000 0.5517 0.0000
0.0000 0.6207 0.0000
0.0000 0.6897 0.0000
0.0000 0.7586 0.0000
0.0000 0.8276 0.0000
0.0000 0.8966 0.0000
0.0000 0.9655 0.0000
0.0000 1.0345 0.0000
0.0000 1.1034 0.0000
0.0000 1.1724 0.0000
0.0000 1.2414 0.0000
0.0000 1.3103 0.0000
0.0000 1.3793 0.0000
0.0000 1.4483 0.0000
0.0000 1.5172 0.0000
0.0000 1.5862 0.0000
0.0000 1.6552 0.0000
0.0000 1.7241 0.0000
0.0000 1.7931 0.0000
0.0000 1.8621 0.0000
0.0000 1.9310 0.0000
0.0000 2.0000 0.0000
1.0345 0.0000 0.0000
1.0345 0.0690 0.0000
1.0345 0.1379 0.0000
1.0345 0.2069 0.0000
1.0345 0.2759 0.0000
1.0345 0.3448 0.0000
1.0345 0.4138 0.0000
1.0345 0.4828 0.0000
1.0345 0.5517 0.0000
1.0345 0.6207 0.0000
1.0345 0.6897 0.0000
1.0345 0.7586 0.0000
1.0345 0.8276 0.0000
1.0345 0.8966 0.0000
1.0345 0.9655 0.0000
1.0345 1.0345 0.0000
1.0345 1.1034 0.0000
1.0345 1.1724 0.0000
1.0345 1.2414 0.0000
1.0345 1.3103 0.0000
1.0345 1.3793 0.0000
1.0345 1.4483 0.0000
1.0345 1.5172 0.0000
1.0345 1.5862 0.0000
1.0345 1.6552 0.0000
1.0345 1.7241 0.0000
1.0345 1.7931 0.0000
1.0345 1.8621 0.0000
1.0345 1.9310 0.0000
1.0345 2.0000 0.0000
2.0690 0.0000 0.0000
2.0690 0.0690 0.0000
2.0690 0.1379 0.0000
2.0690 0.2069 0.0000
2.0690 0.2759 0.0000
2.0690 0.3448 0.0000
2.0690 0.4138 0.0000
2.0690 0.4828 0.0000
2.0690 0.5517 0.0000
2.0690 0.6207 0.0000
2.0690 0.6897 0.0000
2.0690 0.7586 0.0000
2.0690 0.8276 0.0000
2.0690 0.8966 0.0000
2.0690 0.9655 0.0000
2.0690 1.0345 0.0000
2.0690 1.1034 0.0000
2.0690 1.1724 0.0000
2.0690 1.2414 0.0000
2.0690 1.3103 0.0000
2.0690 1.3793 0.0000
2.0690 1.4483 0.0000
2.0690 1.5172 0.0000
2.0690 1.5862 0.0000
2.0690 1.6552 0.0000
2.0690 1.7241 0.0000
2.0690 1.7931 0.0000
2.0690 1.8621 0.0000
2.0690 1.9310 0.0000
2.0690 2.0000 0.0000
3.1034 0.0000 0.0000
3.1034 0.0690 0.0000
3.1034 0.1379 0.0000
3.1034 0.2069 0.0000
3.1034 0.2759 0.0000
3.1034 0.3448 0.0000
3.1034 0.4138 0.0000
3.1034 0.4828 0.0000
3.1034 0.5517 0.0000
3.1034 0.6207 0.0000
3.1034 0.6897 0.0000
3.1034 0.7586 0.0000
3.1034 0.8276 0.0000
3.1034 0.8966 0.0000
3.1034 0.9655 0.0000
3.1034 1.0345 0.0000
3.1034 1.1034 0.0000
3.1034 1.1724 0.0000
3.1034 1.2414 0.0000
3.1034 1.3103 0.0000
3.1034 1.3793 0.0000
3.1034 1.4483 0.0000
3.1034 1.5172 0.0000
3.1034 1.5862 0.0000
3.1034 1.6552 0.0000
3.1034 1.7241 0.0000
3.1034 1.7931 0.0000
3.1034 1.8621 0.0000
3.1034 1.9310 0.0000
3.1034 2.0000 0.0000
4.1379 0.0000 0.0000
4.1379 0.0690 0.0000
4.1379 0.1379 0.0000
4.1379 0.2069 0.0000
4.1379 0.2759 0.0000
4.1379 0.3448 0.0000
4.1379 0.4138 0.0000
4.1379 0.4828 0.0000
4.1379 0.5517 0.0000
4.1379 0.6207 0.0000
4.1379 0.6897 0.0000
4.1379 0.7586 0.0000
4.1379 0.8276 0.0000
4.1379 0.8966 0.0000
4.1379 0.9655 0.0000
4.1379 1.0345 0.0000
4.1379 1.1034 0.0000
4.1379 1.1724 0.0000
4.1379 1.2414 0.0000
4.1379 1.3103 0.0000
4.1379 1.3793 0.0000
4.1379 1.4483 0.0000
4.1379 1.5172 0.0000
4.1379 1.5862 0.0000
4.1379 1.6552 0.0000
4.1379 1.7241 0.0000
4.1379 1.7931 0.0000
4.1379 1.8621 0.0000
4.1379 1.9310 0.0000
4.1379 2.0000 0.0000
5.1724 0.0000 0.0000
5.1724 0.0690 0.0000
5.1724 0.1379 0.0000
5.1724 0.2069 0.0000
5.1724 0.2759 0.0000
5.1724 0.3448 0.0000
5.1724 0.4138 0.0000
5.1724 0.4828 0.0000
5.1724 0.5517 0.0000
5.1724 0.6207 0.0000
5.1724 0.6897 0.0000
5.1724 0.7586 0.0000
5.1724 0.8276 0.0000
5.1724 0.8966 0.0000
5.1724 0.9655 0.0000
5.1724 1.0345 0.0000
5.1724 1.1034 0.0000
5.1724 1.1724 0.0000
5.1724 1.2414 0.0000
5.1724 1.3103 0.0000
5.1724 1.3793 0.0000
5.1724 1.4483 0.0000
5.1724 1.5172 0.0000
5.1724 1.5862 0.0000
5.1724 1.6552 0.0000
5.1724 1.7241 0.0000
5.1724 1.7931 0.0000
5.1724 1.8621 0.0000
5.1724 1.9310 0.0000
5.1724 2.0000 0.0000
6.2069 0.0000 0.0000
6.2069 0.0690 0.0000
6.2069 0.1379 0.0000
6.2069 0.2069 0.0000
6.2069 0.2759 0.0000
6.2069 0.3448 0.0000
6.2069 0.4138 0.0000
6.2069 0.4828 0.0000
6.2069 0.5517 0.0000
6.2069 0.6207 0.0000
6.2069 0.6897 0.0000
6.2069 0.7586 0.0000
6.2069 0.8276 0.0000
6.2069 0.8966 0.0000
6.2069 0.9655 0.0000
6.2069 1.0345 0.0000
6.2069 1.1034 0.0000
6.2069 1.1724 0.0000
6.2069 1.2414 0.0000
6.2069 1.3103 0.0000
6.2069 1.3793 0.0000
6.2069 1.4483 0.0000
6.2069 1.5172 0.0000
6.2069 1.5862 0.0000
6.2069 1.6552 0.0000
6.2069 1.7241 0.0000
6.2069 1.7931 0.0000
6.2069 1.8621 0.0000
6.2069 1.9310 0.0000
6.2069 2.0000 0.0000
7.2414 0.0000 0.0000
7.2414 0.0690 0.0000
7.2414 0.1379 0.0000
7.2414 0.2069 0.0000
7.2414 0.2759 0.0000
7.2414 0.3448 0.0000
7.2414 0.4138 0.0000
7.2414 0.4828 0.0000
7.2414 0.5517 0.0000
7.2414 0.6207 0.0000
7.2414 0.6897 0.0000
7.2414 0.7586 0.0000
7.2414 0.8276 0.0000
7.2414 0.8966 0.0000
7.2414 0.9655 0.0000
7.2414 1.0345 0.0000
7.2414 1.1034 0.0000
7.2414 1.1724 0.0000
7.2414 1.2414 0.0000
7.2414 1.3103 0.0000
7.2414 1.3793 0.0000
7.2414 1.4483 0.0000
7.2414 1.5172 0.0000
7.2414 1.5862 0.0000
7.2414 1.6552 0.0000
7.2414 1.7241 0.0000
7.2414 1.7931 0.0000
7.2414 1.8621 0.0000
7.2414 1.9310 0.0000
7.2414 2.0000 0.0000
8.2759 0.0000 0.0000
8.2759 0.0690 0.0000
8.2759 0.1379 0.0000
8.2759 0.2069 0.0000
8.2759 0.2759 0.0000
8.2759 0.3448 0.0000
8.2759 0.4138 0.0000
8.2759 0.4828 0.0000
8.2759 0.5517 0.0000
8.2759 0.6207 0.0000
8.2759 0.6897 0.0000
8.2759 0.7586 0.0000
8.2759 0.8276 0.0000
8.2759 0.8966 0.0000
8.2759 0.9655 0.0000
8.2759 1.0345 0.0000
8.2759 1.1034 0.0000
8.2759 1.1724 0.0000
8.2759 1.2414 0.0000
8.2759 1.3103 0.0000
8.2759 1.3793 0.0000
8.2759 1.4483 0.0000
8.2759 1.5172 0.0000
8.2759 1.5862 0.0000
8.2759 1.6552 0.0000
8.2759 1.7241 0.0000
8.2759 1.7931 0.0000
8.2759 1.8621 0.0000
8.2759 1.9310 0.0000
8.2759 2.0000 0.0000
9.3103 0.0000 0.0000
9.3103 0.0690 0.0000
9.3103 0.1379 0.0000
9.3103 0.2069 0.0000
9.3103 0.2759 0.0000
9.3103 0.3448 0.0000
9.3103 0.4138 0.0000
9.3103 0.4828 0.0000
9.3103 0.5517 0.0000
9.3103 0.6207 0.0000
9.3103 0.6897 0.0000
9.3103 0.7586 0.0000
9.3103 0.8276 0.0000
9.3103 0.8966 0.0000
9.3103 0.9655 0.0000
9.3103 1.0345 0.0000
9.3103 1.1034 0.0000
9.3103 1.1724 0.0000
9.3103 1.2414 0.0000
9.3103 1.3103 0.0000
9.3103 1.3793 0.0000
9.3103 1.4483 0.0000
9.3103 1.5172 0.0000
9.3103 1.5862 0.0000
9.3103 1.6552 0.0000
9.3103 1.7241 0.0000
9.3103 1.7931 0.0000
9.3103 1.8621 0.0000
9.3103 1.9310 0.0000
9.3103 2.0000 0.0000
10.3448 0.0000 0.0000
10.3448 0.0690 0.0000
10.3448 0.1379 0.0000
10.3448 0.2069 0.0000
10.3448 0.2759 0.0000
10.3448 0.3448 0.0000
10.3448 0.4138 0.0000
10.3448 0.4828 0.0000
10.3448 0.5517 0.0000
10.3448 0.6207 0.0000
10.3448 0.6897 0.0000
10.3448 0.7586 0.0000
10.3448 0.8276 0.0000
10.3448 0.8966 0.0000
10.3448 0.9655 0.0000
10.3448 1.0345 0.0000
10.3448 1.1034 0.0000
10.3448 1.1724 0.0000
10.3448 1.2414 0.0000
10.3448 1.3103 0.0000
10.3448 1.3793 0.0000
10.3448 1.4483 0.0000
10.3448 1.5172 0.0000
10.3448 1.5862 0.0000
10.3448 1.6552 0.0000
10.3448 1.7241 0.0000
10.3448 1.7931 0.0000
10.3448 1.8621 0.0000
10.3448 1.9310 0.0000
10.3448 2.0000 0.0000
11.3793 0.0000 0.0000
11.3793 0.0690 0.0000
11.3793 0.1379 0.0000
11.3793 0.2069 0.0000
11.3793 0.2759 0.0000
11.3793 0.3448 0.0000
11.3793 0.4138 0.0000
11.3793 0.4828 0.0000
11.3793 0.5517 0.0000
11.3793 0.6207 0.0000
11.3793 0.6897 0.0000
11.3793 0.7586 0.0000
11.3793 0.8276 0.0000
11.3793 0.8966 0.0000
11.3793 0.9655 0.0000
11.3793 1.0345 0.0000
11.3793 1.1034 0.0000
11.3793 1.1724 0.0000
11.3793 1.2414 0.0000
11.3793 1.3103 0.0000
11.3793 1.3793 0.0000
11.3793 1.4483 0.0000
11.3793 1.5172 0.0000
11.3793 1.5862 0.0000
11.3793 1.6552 0.0000
11.3793 1.7241 0.0000
11.3793 1.7931 0.0000
11.3793 1.8621 0.0000
11.3793 1.9310 0.0000
11.3793 2.0000 0.0000
12.4138 0.0000 0.0000
12.4138 0.0690 0.0000
12.4138 0.1379 0.0000
12.4138 0.2069 0.0000
12.4138 0.2759 0.0000
12.4138 0.3448 0.0000
12.4138 0.4138 0.0000
12.4138 0.4828 0.0000
12.4138 0.5517 0.0000
12.4138 0.6207 0.0000
12.4138 0.6897 0.0000
12.4138 0.7586 0.0000
12.4138 0.8276 0.0000
12.4138 0.8966 0.0000
12.4138 0.9655 0.0000
12.4138 1.0345 0.0000
12.4138 1.1034 0.0000
12.4138 1.1724 0.0000
12.4138 1.2414 0.0000
12.4138 1.3103 0.0000
12.4138 1.3793 0.0000
12.4138 1.4483 0.0000
12.4138 1.5172 0.0000
12.4138 1.5862 0.0000
12.4138 1.6552 0.0000
12.4138 1.7241 0.0000
12.4138 1.7931 0.0000
12.4138 1.8621 0.0000
12.4138 1.9310 0.0000
12.4138 2.0000 0.0000
13.4483 0.0000 0.0000
13.4483 0.0690 0.0000
13.4483 0.1379 0.0000
13.4483 0.2069 0.0000
13.4483 0.2759 0.0000
13.4483 0.3448 0.0000
13.4483 0.4138 0.0000
13.4483 0.4828 0.0000
13.4483 0.5517 0.0000
13.4483 0.6207 0.0000
13.4483 0.6897 0.0000
13.4483 0.7586 0.0000
13.4483 0.8276 0.0000
13.4483 0.8966 0.0000
13.4483 0.9655 0.0000
13.4483 1.0345 0.0000
13.4483 1.1034 0.0000
13.4483 1.1724 0.0000
13.4483 1.2414 0.0000
13.4483 1.3103 0.0000
13.4483 1.3793 0.0000
13.4483 1.4483 0.0000
13.4483 1.5172 0.0000
13.4483 1.5862 0.0000
13.4483 1.6552 0.0000
13.4483 1.7241 0.0000
13.4483 1.7931 0.0000
13.4483 1.8621 0.0000
13.4483 1.9310 0.0000
13.4483 2.0000 0.0000
14.4828 0.0000 0.0000
14.4828 0.0690 0.0000
14.4828 0.1379 0.0000
14.4828 0.2069 0.0000
14.4828 0.2759 0.0000
14.4828 0.3448 0.0000
14.4828 0.4138 0.0000
14.4828 0.4828 0.0000
14.4828 0.5517 0.0000
14.4828 0.6207 0.0000
14.4828 0.6897 0.0000
14.4828 0.7586 0.0000
14.4828 0.8276 0.0000
14.4828 0.8966 0.0000
14.4828 0.9655 0.0000
14.4828 1.0345 0.0000
14.4828 1.1034 0.0000
14.4828 1.1724 0.0000
14.4828 1.2414 0.0000
14.4828 1.3103 0.0000
14.4828 1.3793 0.0000
14.4828 1.4483 0.0000
14.4828 1.5172 0.0000
14.4828 1.5862 0.0000
14.4828 1.6552 0.0000
14.4828 1.7241 0.0000
14.4828 1.7931 0.0000
14.4828 1.8621 0.0000
14.4828 1.9310 0.0000
14.4828 2.0000 0.0000
15.5172 0.0000 0.0000
15.5172 0.0690 0.0000
15.5172 0.1379 0.0000
15.5172 0.2069 0.0000
[...]
         <PointData>
            <DataArray Name="fValues" NumberOfComponents="3" format="ascii" type="Float64">
-1.99021e-15        00000        00000 
 2.20137e-15        00000        00000 
-2.17688e-15  1.90477e-15        00000 
 1.02566e-15 -1.60686e-15        00000 
-3.53743e-15  2.72110e-16        00000 
 3.48808e-16  5.08230e-15        00000 
-2.44899e-15 -1.63266e-15        00000 
 1.89747e-15  2.54705e-15        00000 
       00000  5.44220e-16        00000 
 1.46416e-15  5.38272e-16        00000 
-6.80275e-16 -2.17688e-15        00000 
 6.96593e-16  4.78640e-16        00000 
-5.44220e-16        00000        00000 
 3.08225e-16  1.70695e-15        00000 
-2.72110e-16 -1.90477e-15        00000 
-6.83772e-17 -3.00860e-15        00000 
       00000 -2.72110e-16        00000 
 4.02531e-16 -2.45493e-15        00000 
       00000 -3.80954e-15        00000 
 4.18810e-16  4.18810e-15        00000 
       00000 -4.08165e-15        00000 
 4.98641e-15 -5.84744e-16        00000 
-1.76871e-15  4.08165e-15        00000 
-1.16241e-15 -3.93169e-15        00000 
-1.36055e-15  5.17009e-15        00000 
-2.90256e-15 -6.81418e-16        00000 
 7.89118e-15 -8.16329e-15        00000 
-7.48415e-15  7.72391e-15        00000 
-6.17499e-16        00000        00000 
-1.28550e-15 -2.87974e-15        00000 
 2.94718e+01  2.99538e+01        00000 
 2.70111e+01  2.90221e+01        00000 
 2.47536e+01  2.81727e+01        00000 
 2.27526e+01  2.74151e+01        00000 
 2.08352e+01  2.67288e+01        00000 
 1.89812e+01  2.61346e+01        00000 
 1.71821e+01  2.55627e+01        00000 
 1.53406e+01  2.50289e+01        00000 
 1.35112e+01  2.45097e+01        00000 
 1.18698e+01  2.40387e+01        00000 
 1.02835e+01  2.36115e+01        00000 
 8.58424e+00  2.32197e+01        00000 
 6.77069e+00  2.29230e+01        00000 
 4.96225e+00  2.27067e+01        00000 
 3.19782e+00  2.25578e+01        00000 
 1.41477e+00  2.24837e+01        00000 
-3.91909e-01  2.24928e+01        00000 
-2.27978e+00  2.25518e+01        00000 
-4.18473e+00  2.26681e+01        00000 
-6.05137e+00  2.28472e+01        00000 
-7.93228e+00  2.30812e+01        00000 
-9.83735e+00  2.33597e+01        00000 
-1.18723e+01  2.36699e+01        00000 
-1.39219e+01  2.40539e+01        00000 
-1.58977e+01  2.44893e+01        00000 
-1.78527e+01  2.49549e+01        00000 
-1.98985e+01  2.54930e+01        00000 
-2.21243e+01  2.60971e+01        00000 
-2.45315e+01  2.67537e+01        00000 
-2.70083e+01  2.75230e+01        00000 
 5.47091e+01  7.14109e+01        00000 
 5.11663e+01  7.07685e+01        00000 
 4.75630e+01  7.01412e+01        00000 
 4.38881e+01  6.95598e+01        00000 
 4.03785e+01  6.90257e+01        00000 
 3.69801e+01  6.85314e+01        00000 
 3.35824e+01  6.80702e+01        00000 
 3.02410e+01  6.76581e+01        00000 
 2.68585e+01  6.72925e+01        00000 
 2.32851e+01  6.69593e+01        00000 
 1.97128e+01  6.66836e+01        00000 
 1.61342e+01  6.64502e+01        00000 
 1.26262e+01  6.62669e+01        00000 
 9.18870e+00  6.61279e+01        00000 
 5.80009e+00  6.60371e+01        00000 
 2.50414e+00  6.59969e+01        00000 
-8.02946e-01  6.59753e+01        00000 
-4.10516e+00  6.60140e+01        00000 
-7.45648e+00  6.61161e+01        00000 
-1.08451e+01  6.62579e+01        00000 
-1.42252e+01  6.64233e+01        00000 
-1.77338e+01  6.66548e+01        00000 
-2.12143e+01  6.69211e+01        00000 
-2.48276e+01  6.72113e+01        00000 
-2.84624e+01  6.75223e+01        00000 
-3.20672e+01  6.78677e+01        00000 
-3.56251e+01  6.82781e+01        00000 
-3.91947e+01  6.87171e+01        00000 
-4.26836e+01  6.92286e+01        00000 
-4.61841e+01  6.97555e+01        00000 
 7.41207e+01  1.35609e+02        00000 
 6.93687e+01  1.35122e+02        00000 
 6.46695e+01  1.34700e+02        00000 
 5.99664e+01  1.34282e+02        00000 
 5.52651e+01  1.33938e+02        00000 
 5.05186e+01  1.33635e+02        00000 
 4.58301e+01  1.33340e+02        00000 
 4.11443e+01  1.33109e+02        00000 
 3.64863e+01  1.32907e+02        00000 
 3.18169e+01  1.32714e+02        00000 
 2.72472e+01  1.32538e+02        00000 
 2.26823e+01  1.32380e+02        00000 
 1.82267e+01  1.32220e+02        00000 
 1.36970e+01  1.32058e+02        00000 
 9.14475e+00  1.31963e+02        00000 
 4.57779e+00  1.31898e+02        00000 
-8.10462e-02  1.31872e+02        00000 
-4.72546e+00  1.31888e+02        00000 
-9.37323e+00  1.31962e+02        00000 
-1.40661e+01  1.32106e+02        00000 
-1.87391e+01  1.32254e+02        00000 
-2.33596e+01  1.32426e+02        00000 
-2.79906e+01  1.32641e+02        00000 
-3.25644e+01  1.32869e+02        00000 
-3.72749e+01  1.33091e+02        00000 
-4.21000e+01  1.33361e+02        00000 
-4.69722e+01  1.33626e+02        00000 
-5.17408e+01  1.33871e+02        00000 
-5.64142e+01  1.34160e+02        00000 
-6.11344e+01  1.34505e+02        00000 
 9.03617e+01  2.18404e+02        00000 
 8.44664e+01  2.18092e+02        00000 
 7.86165e+01  2.17803e+02        00000 
 7.28822e+01  2.17506e+02        00000 
 6.71862e+01  2.17257e+02        00000 
 6.15816e+01  2.16993e+02        00000 
 5.60336e+01  2.16750e+02        00000 
 5.04906e+01  2.16506e+02        00000 
 4.50010e+01  2.16253e+02        00000 
 3.96833e+01  2.16010e+02        00000 
 3.43803e+01  2.15787e+02        00000 
 2.90043e+01  2.15601e+02        00000 
 2.35197e+01  2.15437e+02        00000 
 1.79640e+01  2.15291e+02        00000 
 1.24590e+01  2.15178e+02        00000 
 7.07853e+00  2.15090e+02        00000 
 1.78129e+00  2.15010e+02        00000 
-3.60868e+00  2.14953e+02        00000 
-9.06588e+00  2.14917e+02        00000 
-1.45095e+01  2.14890e+02        00000 
-2.00013e+01  2.14829e+02        00000 
-2.54919e+01  2.14788e+02        00000 
-3.09703e+01  2.14784e+02        00000 
-3.64463e+01  2.14785e+02        00000 
-4.18932e+01  2.14808e+02        00000 
-4.72593e+01  2.14846e+02        00000 
-5.27295e+01  2.14914e+02        00000 
-5.83958e+01  2.14999e+02        00000 
-6.42252e+01  2.15126e+02        00000 
-7.01840e+01  2.15282e+02        00000 
 9.62532e+01  3.08370e+02        00000 
 9.02287e+01  3.08276e+02        00000 
 8.43362e+01  3.08189e+02        00000 
 7.85766e+01  3.08117e+02        00000 
 7.28694e+01  3.08054e+02        00000 
 6.71444e+01  3.08008e+02        00000 
 6.13653e+01  3.07942e+02        00000 
 5.55536e+01  3.07881e+02        00000 
 4.98245e+01  3.07818e+02        00000 
 4.41100e+01  3.07766e+02        00000 
 3.83882e+01  3.07711e+02        00000 
 3.26319e+01  3.07668e+02        00000 
 2.69666e+01  3.07638e+02        00000 
 2.13426e+01  3.07617e+02        00000 
 1.56443e+01  3.07579e+02        00000 
 9.87609e+00  3.07538e+02        00000 
 3.95561e+00  3.07492e+02        00000 
-1.92775e+00  3.07451e+02        00000 
-7.72482e+00  3.07469e+02        00000 
-1.35519e+01  3.07485e+02        00000 
-1.93758e+01  3.07519e+02        00000 
-2.51920e+01  3.07559e+02        00000 
-3.10792e+01  3.07574e+02        00000 
-3.70217e+01  3.07577e+02        00000 
-4.29484e+01  3.07573e+02        00000 
-4.88933e+01  3.07621e+02        00000 
-5.48446e+01  3.07691e+02        00000 
-6.09104e+01  3.07779e+02        00000 
-6.70394e+01  3.07884e+02        00000 
-7.31049e+01  3.07970e+02        00000 
 9.72235e+01  3.97512e+02        00000 
 9.14339e+01  3.97499e+02        00000 
 8.55103e+01  3.97532e+02        00000 
 7.95958e+01  3.97553e+02        00000 
 7.37852e+01  3.97555e+02        00000 
 6.80762e+01  3.97527e+02        00000 
 6.24377e+01  3.97474e+02        00000 
 5.68115e+01  3.97404e+02        00000 
 5.11274e+01  3.97326e+02        00000 
 4.54057e+01  3.97200e+02        00000 
 3.96307e+01  3.97076e+02        00000 
 3.39803e+01  3.96905e+02        00000 
 2.83403e+01  3.96672e+02        00000 
 2.27061e+01  3.96445e+02        00000 
 1.71668e+01  3.96229e+02        00000 
 1.15320e+01  3.96035e+02        00000 
 5.87377e+00  3.95863e+02        00000 
 1.42008e-01  3.95715e+02        00000 
-5.67320e+00  3.95568e+02        00000 
-1.15828e+01  3.95437e+02        00000 
-1.74953e+01  3.95310e+02        00000 
-2.33447e+01  3.95168e+02        00000 
-2.92603e+01  3.95052e+02        00000 
-3.53122e+01  3.94936e+02        00000 
-4.14736e+01  3.94774e+02        00000 
-4.76980e+01  3.94630e+02        00000 
-5.38674e+01  3.94474e+02        00000 
-5.98685e+01  3.94286e+02        00000 
-6.56867e+01  3.94078e+02        00000 
-7.15315e+01  3.93898e+02        00000 
 9.57904e+01  4.85138e+02        00000 
 9.00553e+01  4.85300e+02        00000 
 8.44217e+01  4.85463e+02        00000 
 7.88695e+01  4.85602e+02        00000 
 7.33133e+01  4.85719e+02        00000 
 6.77352e+01  4.85838e+02        00000 
 6.21100e+01  4.85945e+02        00000 
 5.65600e+01  4.86015e+02        00000 
 5.11487e+01  4.86047e+02        00000 
 4.58029e+01  4.86068e+02        00000 
 4.05346e+01  4.86032e+02        00000 
 3.52773e+01  4.85985e+02        00000 
 2.99651e+01  4.85942e+02        00000 
 2.46858e+01  4.85891e+02        00000 
 1.93462e+01  4.85832e+02        00000 
 1.39559e+01  4.85754e+02        00000 
 8.58101e+00  4.85681e+02        00000 
 3.16111e+00  4.85609e+02        00000 
-2.28517e+00  4.85482e+02        00000 
-7.71614e+00  4.85317e+02        00000 
-1.30969e+01  4.85137e+02        00000 
-1.85006e+01  4.84899e+02        00000 
-2.39178e+01  4.84609e+02        00000 
-2.93111e+01  4.84318e+02        00000 
-3.46890e+01  4.83990e+02        00000 
-4.01421e+01  4.83592e+02        00000 
-4.57124e+01  4.83158e+02        00000 
-5.13336e+01  4.82718e+02        00000 
-5.70362e+01  4.82298e+02        00000 
-6.28726e+01  4.81913e+02        00000 
 8.63086e+01  5.65241e+02        00000 
 8.14969e+01  5.65612e+02        00000 
 7.66390e+01  5.65995e+02        00000 
 7.18616e+01  5.66338e+02        00000 
 6.71341e+01  5.66627e+02        00000 
 6.24717e+01  5.66889e+02        00000 
 5.79305e+01  5.67081e+02        00000 
 5.34412e+01  5.67216e+02        00000 
 4.89756e+01  5.67329e+02        00000 
 4.44319e+01  5.67413e+02        00000 
 3.99244e+01  5.67476e+02        00000 
 3.52852e+01  5.67510e+02        00000 
 3.05820e+01  5.67541e+02        00000 
 2.57684e+01  5.67538e+02        00000 
 2.09557e+01  5.67525e+02        00000 
 1.63012e+01  5.67487e+02        00000 
 1.16647e+01  5.67421e+02        00000 
 7.19298e+00  5.67376e+02        00000 
 2.76381e+00  5.67313e+02        00000 
-1.68573e+00  5.67214e+02        00000 
-6.21847e+00  5.67090e+02        00000 
-1.08001e+01  5.66928e+02        00000 
-1.53336e+01  5.66707e+02        00000 
-1.99058e+01  5.66432e+02        00000 
-2.43840e+01  5.66131e+02        00000 
-2.88459e+01  5.65789e+02        00000 
-3.33395e+01  5.65435e+02        00000 
-3.78946e+01  5.65029e+02        00000 
-4.25873e+01  5.64593e+02        00000 
-4.74004e+01  5.64136e+02        00000 
 6.85154e+01  6.27054e+02        00000 
 6.50529e+01  6.27623e+02        00000 
 6.16709e+01  6.28168e+02        00000 
 5.82997e+01  6.28672e+02        00000 
 5.48907e+01  6.29106e+02        00000 
 5.15736e+01  6.29542e+02        00000 
 4.82056e+01  6.29940e+02        00000 
 4.48384e+01  6.30297e+02        00000 
 4.14224e+01  6.30617e+02        00000 
 3.80977e+01  6.30881e+02        00000 
 3.47703e+01  6.31068e+02        00000 
 3.14743e+01  6.31197e+02        00000 
 2.81995e+01  6.31264e+02        00000 
 2.50302e+01  6.31281e+02        00000 
 2.18114e+01  6.31291e+02        00000 
 1.85085e+01  6.31260e+02        00000 
 1.53255e+01  6.31162e+02        00000 
 1.20086e+01  6.31021e+02        00000 
 8.62532e+00  6.30842e+02        00000 
 5.27430e+00  6.30628e+02        00000 
 1.90507e+00  6.30394e+02        00000 
-1.38468e+00  6.30130e+02        00000 
-4.65334e+00  6.29819e+02        00000 
-7.95146e+00  6.29477e+02        00000 
-1.14564e+01  6.29112e+02        00000 
-1.50924e+01  6.28711e+02        00000 
-1.87767e+01  6.28284e+02        00000 
-2.24540e+01  6.27790e+02        00000 
-2.60486e+01  6.27246e+02        00000 
-2.96171e+01  6.26679e+02        00000 
 4.83404e+01  6.70602e+02        00000 
 4.61932e+01  6.71221e+02        00000 
 4.40512e+01  6.71806e+02        00000 
 4.20043e+01  6.72380e+02        00000 
 4.00474e+01  6.72909e+02        00000 
 3.81241e+01  6.73387e+02        00000 
 3.61897e+01  6.73827e+02        00000 
 3.43086e+01  6.74188e+02        00000 
 3.24834e+01  6.74477e+02        00000 
 3.06299e+01  6.74729e+02        00000 
 2.87933e+01  6.74935e+02        00000 
 2.69949e+01  6.75099e+02        00000 
 2.52244e+01  6.75248e+02        00000 
 2.34287e+01  6.75355e+02        00000 
 2.15224e+01  6.75437e+02        00000 
 1.96008e+01  6.75458e+02        00000 
 1.76673e+01  6.75444e+02        00000 
 1.57904e+01  6.75411e+02        00000 
 1.38397e+01  6.75339e+02        00000 
 1.18851e+01  6.75199e+02        00000 
 9.92032e+00  6.74989e+02        00000 
 7.88151e+00  6.74736e+02        00000 
 5.79384e+00  6.74427e+02        00000 
 3.69164e+00  6.74081e+02        00000 
 1.60315e+00  6.73653e+02        00000 
-4.78541e-01  6.73164e+02        00000 
-2.41078e+00  6.72590e+02        00000 
-4.28128e+00  6.72005e+02        00000 
-6.25428e+00  6.71412e+02        00000 
-8.25634e+00  6.70763e+02        00000 
 2.33727e+01  6.88522e+02        00000 
 2.30048e+01  6.89367e+02        00000 
 2.26307e+01  6.90129e+02        00000 
 2.23147e+01  6.90829e+02        00000 
 2.19608e+01  6.91447e+02        00000 
 2.16256e+01  6.91987e+02        00000 
 2.14654e+01  6.92472e+02        00000 
 2.11919e+01  6.92877e+02        00000 
 2.08848e+01  6.93211e+02        00000 
 2.06492e+01  6.93439e+02        00000 
 2.04358e+01  6.93633e+02        00000 
 2.02544e+01  6.93764e+02        00000 
 2.01383e+01  6.93827e+02        00000 
 1.99380e+01  6.93886e+02        00000 
 1.97169e+01  6.93869e+02        00000 
 1.94843e+01  6.93807e+02        00000 
 1.92659e+01  6.93705e+02        00000 
 1.90213e+01  6.93567e+02        00000 
 1.88403e+01  6.93383e+02        00000 
 1.86871e+01  6.93165e+02        00000 
 1.83704e+01  6.92907e+02        00000 
 1.80209e+01  6.92577e+02        00000 
 1.78041e+01  6.92209e+02        00000 
 1.76662e+01  6.91752e+02        00000 
 1.74945e+01  6.91245e+02        00000 
 1.73035e+01  6.90708e+02        00000 
 1.70502e+01  6.90089e+02        00000 
 1.66350e+01  6.89431e+02        00000 
 1.61559e+01  6.88731e+02        00000 
 1.57004e+01  6.87987e+02        00000 
-9.26609e+00  6.79597e+02        00000 
-7.46729e+00  6.80614e+02        00000 
-5.55115e+00  6.81545e+02        00000 
-3.63872e+00  6.82434e+02        00000 
-1.75935e+00  6.83304e+02        00000 
 7.13635e-02  6.84084e+02        00000 
 1.86761e+00  6.84784e+02        00000 
 3.71136e+00  6.85434e+02        00000 
 5.57278e+00  6.86019e+02        00000 
 7.40581e+00  6.86546e+02        00000 
 9.25145e+00  6.87021e+02        00000 
 1.10683e+01  6.87433e+02        00000 
 1.28661e+01  6.87761e+02        00000 
 1.45221e+01  6.87987e+02        00000 
 1.62306e+01  6.88143e+02        00000 
 1.79914e+01  6.88268e+02        00000 
 1.97323e+01  6.88330e+02        00000 
 2.15469e+01  6.88301e+02        00000 
 2.33619e+01  6.88247e+02        00000 
 2.51515e+01  6.88146e+02        00000 
 2.69155e+01  6.87986e+02        00000 
 2.86120e+01  6.87782e+02        00000 
 3.03610e+01  6.87518e+02        00000 
 3.21253e+01  6.87200e+02        00000 
 3.37616e+01  6.86817e+02        00000 
 3.54093e+01  6.86397e+02        00000 
 3.69451e+01  6.85912e+02        00000 
 3.84795e+01  6.85341e+02        00000 
 4.00012e+01  6.84662e+02        00000 
 4.14411e+01  6.83897e+02        00000 
-4.41892e+01  6.38101e+02        00000 
-4.03829e+01  6.39190e+02        00000 
-3.65482e+01  6.40197e+02        00000 
-3.27003e+01  6.41114e+02        00000 
-2.88091e+01  6.42035e+02        00000 
-2.47875e+01  6.42860e+02        00000 
-2.07260e+01  6.43618e+02        00000 
-1.67665e+01  6.44322e+02        00000 
-1.28717e+01  6.44972e+02        00000 
-8.89956e+00  6.45547e+02        00000 
-4.89298e+00  6.46046e+02        00000 
-8.26119e-01  6.46512e+02        00000 
 3.32812e+00  6.46940e+02        00000 
 7.50023e+00  6.47285e+02        00000 
 1.16712e+01  6.47552e+02        00000 
 1.57177e+01  6.47769e+02        00000 
 1.98016e+01  6.47926e+02        00000 
 2.37678e+01  6.47995e+02        00000 
 2.77715e+01  6.48000e+02        00000 
 3.18406e+01  6.47968e+02        00000 
 3.58916e+01  6.47816e+02        00000 
 3.98686e+01  6.47616e+02        00000 
 4.38009e+01  6.47374e+02        00000 
 4.76722e+01  6.47047e+02        00000 
 5.15108e+01  6.46674e+02        00000 
 5.53123e+01  6.46233e+02        00000 
 5.91233e+01  6.45703e+02        00000 
 6.29881e+01  6.45051e+02        00000 
 6.68187e+01  6.44329e+02        00000 
 7.07840e+01  6.43508e+02        00000 
-8.28213e+01  5.61855e+02        00000 
-7.66589e+01  5.63055e+02        00000 
-7.05117e+01  5.64142e+02        00000 
-6.43218e+01  5.65144e+02        00000 
-5.80752e+01  5.66052e+02        00000 
-5.17656e+01  5.66881e+02        00000 
-4.53265e+01  5.67653e+02        00000 
-3.88789e+01  5.68353e+02        00000 
-3.24583e+01  5.68989e+02        00000 
-2.60704e+01  5.69517e+02        00000 
-1.96809e+01  5.69972e+02        00000 
-1.32419e+01  5.70359e+02        00000 
-6.72891e+00  5.70662e+02        00000 
-1.61200e-01  5.70903e+02        00000 
 6.31088e+00  5.71086e+02        00000 
 1.26413e+01  5.71191e+02        00000 
 1.88898e+01  5.71230e+02        00000 
 2.51313e+01  5.71197e+02        00000 
 3.14505e+01  5.71092e+02        00000 
 3.76689e+01  5.70929e+02        00000 
 4.38226e+01  5.70694e+02        00000 
 4.99611e+01  5.70388e+02        00000 
 5.60257e+01  5.70050e+02        00000 
 6.21725e+01  5.69610e+02        00000 
 6.84057e+01  5.69065e+02        00000 
 7.46765e+01  5.68487e+02        00000 
 8.09165e+01  5.67811e+02        00000 
 8.70726e+01  5.67066e+02        00000 
 9.33304e+01  5.66274e+02        00000 
 9.95320e+01  5.65437e+02        00000 
-1.23219e+02  4.51310e+02        00000 
-1.14641e+02  4.52482e+02        00000 
-1.05823e+02  4.53571e+02        00000 
-9.70938e+01  4.54634e+02        00000 
-8.84171e+01  4.55648e+02        00000 
-7.97391e+01  4.56608e+02        00000 
-7.10304e+01  4.57498e+02        00000 
-6.22395e+01  4.58299e+02        00000 
-5.33200e+01  4.59041e+02        00000 
-4.42925e+01  4.59698e+02        00000 
-3.52413e+01  4.60286e+02        00000 
-2.62966e+01  4.60801e+02        00000 
-1.74435e+01  4.61244e+02        00000 
-8.60256e+00  4.61609e+02        00000 
 1.61478e-01  4.61879e+02        00000 
 8.96222e+00  4.62087e+02        00000 
 1.78276e+01  4.62206e+02        00000 
 2.66739e+01  4.62245e+02        00000 
 3.53693e+01  4.62199e+02        00000 
 4.40334e+01  4.62065e+02        00000 
 5.26277e+01  4.61871e+02        00000 
 6.12350e+01  4.61552e+02        00000 
 6.98646e+01  4.61149e+02        00000 
 7.84349e+01  4.60673e+02        00000 
 8.69398e+01  4.60088e+02        00000 
 9.54863e+01  4.59430e+02        00000 
 1.04036e+02  4.58705e+02        00000 
 1.12498e+02  4.57908e+02        00000 
 1.20941e+02  4.57045e+02        00000 
 1.29279e+02  4.56128e+02        00000 
-1.62288e+02  3.08261e+02        00000 
-1.51248e+02  3.09364e+02        00000 
-1.40261e+02  3.10387e+02        00000 
-1.29169e+02  3.11379e+02        00000 
-1.18084e+02  3.12262e+02        00000 
-1.06966e+02  3.13090e+02        00000 
-9.58564e+01  3.13836e+02        00000 
-8.47023e+01  3.14489e+02        00000 
-7.35504e+01  3.15077e+02        00000 
-6.24191e+01  3.15581e+02        00000 
-5.12412e+01  3.16013e+02        00000 
-4.00060e+01  3.16399e+02        00000 
-2.87441e+01  3.16710e+02        00000 
-1.74381e+01  3.16965e+02        00000 
-6.06606e+00  3.17140e+02        00000 
 5.36114e+00  3.17232e+02        00000 
 1.67243e+01  3.17280e+02        00000 