<?xml version="1.0" encoding="utf-8"?>
<VTKFile byte_order="LittleEndian" type="UnstructuredGrid" version="0.1">
   <UnstructuredGrid>
      <Piece NumberOfCells="3364" NumberOfPoints="1741">
         <Points>
            <DataArray Name="Points" NumberOfComponents="3" format="ascii" type="Float32">
0.0000 0.0000 0.0000
0.0000 0.0690 0.0000
0.0000 0.1379 0.0000
0.0000 0.2069 0.0000
0.0000 0.2759 0.0000
0.0000 0.3448 0.0000
0.0000 0.4138 0.0000
0.0000 0.4828 0.0000
0.0000 0.5517 0.0000
0.0000 0.6207 0.0000
0.0000 0.6897 0.0000
0.0000 0.7586 0.0000
0.0000 0.8276 0.0000
0.0000 0.8966 0.0000
0.0000 0.9655 0.0000
0.0000 1.0345 0.0000
0.0000 1.1034 0.0000
0.0000 1.1724 0.0000
0.0000 1.2414 0.0000
0.0000 1.3103 0.0000
0.0000 1.3793 0.0000
0.0000 1.4483 0.0000
0.0000 1.5172 0.0000
0.0000 1.5862 0.0000
0.0000 1.6552 0.0000
0.0000 1.7241 0.0000
0.0000 1.7931 0.0000
0.0000 1.8621 0.0000
0.0000 1.9310 0.0000
0.0000 2.0000 0.0000
1.0345 0.0000 0.0000
1.0345 0.0690 0.0000
1.0345 0.1379 0.0000
1.0345 0.2069 0.0000
1.0345 0.2759 0.0000
1.0345 0.3448 0.0000
1.0345 0.4138 0.0000
1.0345 0.4828 0.0000
1.0345 0.5517 0.0000
1.0345 0.6207 0.0000
1.0345 0.6897 0.0000
1.0345 0.7586 0.0000
1.0345 0.8276 0.0000
1.0345 0.8966 0.0000
1.0345 0.9655 0.0000
1.0345 1.0345 0.0000
1.0345 1.1034 0.0000
1.0345 1.1724 0.0000
1.0345 1.2414 0.0000
1.0345 1.3103 0.0000
1.0345 1.3793 0.0000
1.0345 1.4483 0.0000
1.0345 1.5172 0.0000
1.0345 1.5862 0.0000
1.0345 1.6552 0.0000
1.0345 1.7241 0.0000
1.0345 1.7931 0.0000
1.0345 1.8621 0.0000
1.0345 1.9310 0.0000
1.0345 2.0000 0.0000
2.0690 0.0000 0.0000
2.0690 0.0690 0.0000
2.0690 0.1379 0.0000
2.0690 0.2069 0.0000
2.0690 0.2759 0.0000
2.0690 0.3448 0.0000
2.0690 0.4138 0.0000
2.0690 0.4828 0.0000
2.0690 0.5517 0.0000
2.0690 0.6207 0.0000
2.0690 0.6897 0.0000
2.0690 0.7586 0.0000
2.0690 0.8276 0.0000
2.0690 0.8966 0.0000
2.0690 0.9655 0.0000
2.0690 1.0345 0.0000
2.0690 1.1034 0.0000
2.0690 1.1724 0.0000
2.0690 1.2414 0.0000
2.0690 1.3103 0.0000
2.0690 1.3793 0.0000
2.0690 1.4483 0.0000
2.0690 1.5172 0.0000
2.0690 1.5862 0.0000
2.0690 1.6552 0.0000
2.0690 1.7241 0.0000
2.0690 1.7931 0.0000
2.0690 1.8621 0.0000
2.0690 1.9310 0.0000
2.0690 2.0000 0.0000
3.1034 0.0000 0.0000
3.1034 0.0690 0.0000
3.1034 0.1379 0.0000
3.1034 0.2069 0.0000
3.1034 0.2759 0.0000
3.1034 0.3448 0.0000
3.1034 0.4138 0.0000
3.1034 0.4828 0.0000
3.1034 0.5517 0.0000
3.1034 0.6207 0.0000
3.1034 0.6897 0.0000
3.1034 0.7586 0.0000
3.1034 0.8276 0.0000
3.1034 0.8966 0.0000
3.1034 0.9655 0.0000
3.1034 1.0345 0.0000
3.1034 1.1034 0.0000
3.1034 1.1724 0.0000
3.1034 1.2414 0.0000
3.1034 1.3103 0.0000
3.1034 1.3793 0.0000
3.1034 1.4483 0.0000
3.1034 1.5172 0.0000
3.1034 1.5862 0.0000
3.1034 1.6552 0.0000
3.1034 1.7241 0.0000
3.1034 1.7931 0.0000
3.1034 1.8621 0.0000
3.1034 1.9310 0.0000
3.1034 2.0000 0.0000
4.1379 0.0000 0.0000
4.1379 0.0690 0.0000
4.1379 0.1379 0.0000
4.1379 0.2069 0.0000
4.1379 0.2759 0.0000
4.1379 0.3448 0.0000
4.1379 0.4138 0.0000
4.1379 0.4828 0.0000
4.1379 0.5517 0.0000
4.1379 0.6207 0.0000
4.1379 0.6897 0.0000
4.1379 0.7586 0.0000
4.1379 0.8276 0.0000
4.1379 0.8966 0.0000
4.1379 0.9655 0.0000
4.1379 1.0345 0.0000
4.1379 1.1034 0.0000
4.1379 1.1724 0.0000
4.1379 1.2414 0.0000
4.1379 1.3103 0.0000
4.1379 1.3793 0.0000
4.1379 1.4483 0.0000
4.1379 1.5172 0.0000
4.1379 1.5862 0.0000
4.1379 1.6552 0.0000
4.1379 1.7241 0.0000
4.1379 1.7931 0.0000
4.1379 1.8621 0.0000
4.1379 1.9310 0.0000
4.1379 2.0000 0.0000
5.1724 0.0000 0.0000
5.1724 0.0690 0.0000
5.1724 0.1379 0.0000
5.1724 0.2069 0.0000
5.1724 0.2759 0.0000
5.1724 0.3448 0.0000
5.1724 0.4138 0.0000
5.1724 0.4828 0.0000
5.1724 0.5517 0.0000
5.1724 0.6207 0.0000
5.1724 0.6897 0.0000
5.1724 0.7586 0.0000
5.1724 0.8276 0.0000
5.1724 0.8966 0.0000
5.1724 0.9655 0.0000
5.1724 1.0345 0.0000
5.1724 1.1034 0.0000
5.1724 1.1724 0.0000
5.1724 1.2414 0.0000
5.1724 1.3103 0.0000
5.1724 1.3793 0.0000
5.1724 1.4483 0.0000
5.1724 1.5172 0.0000
5.1724 1.5862 0.0000
5.1724 1.6552 0.0000
5.1724 1.7241 0.0000
5.1724 1.7931 0.0000
5.1724 1.8621 0.0000
5.1724 1.9310 0.0000
5.1724 2.0000 0.0000
6.2069 0.0000 0.0000
6.2069 0.0690 0.0000
6.2069 0.1379 0.0000
6.2069 0.2069 0.0000
6.2069 0.2759 0.0000
6.2069 0.3448 0.0000
6.2069 0.4138 0.0000
6.2069 0.4828 0.0000
6.2069 0.5517 0.0000
6.2069 0.6207 0.0000
6.2069 0.6897 0.0000
6.2069 0.7586 0.0000
6.2069 0.8276 0.0000
6.2069 0.8966 0.0000
6.2069 0.9655 0.0000
6.2069 1.0345 0.0000
6.2069 1.1034 0.0000
6.2069 1.1724 0.0000
6.2069 1.2414 0.0000
6.2069 1.3103 0.0000
6.2069 1.3793 0.0000
6.2069 1.4483 0.0000
6.2069 1.5172 0.0000
6.2069 1.5862 0.0000
6.2069 1.6552 0.0000
6.2069 1.7241 0.0000
6.2069 1.7931 0.0000
6.2069 1.8621 0.0000
6.2069 1.9310 0.0000
6.2069 2.0000 0.0000
7.2414 0.0000 0.0000
7.2414 0.0690 0.0000
7.2414 0.1379 0.0000
7.2414 0.2069 0.0000
7.2414 0.2759 0.0000
7.2414 0.3448 0.0000
7.2414 0.4138 0.0000
7.2414 0.4828 0.0000
7.2414 0.5517 0.0000
7.2414 0.6207 0.0000
7.2414 0.6897 0.0000
7.2414 0.7586 0.0000
7.2414 0.8276 0.0000
7.2414 0.8966 0.0000
7.2414 0.9655 0.0000
7.2414 1.0345 0.0000
7.2414 1.1034 0.0000
7.2414 1.1724 0.0000
7.2414 1.2414 0.0000
7.2414 1.3103 0.0000
7.2414 1.3793 0.0000
7.2414 1.4483 0.0000
7.2414 1.5172 0.0000
7.2414 1.5862 0.0000
7.2414 1.6552 0.0000
7.2414 1.7241 0.0000
7.2414 1.7931 0.0000
7.2414 1.8621 0.0000
7.2414 1.9310 0.0000
7.2414 2.0000 0.0000
8.2759 0.0000 0.0000
8.2759 0.0690 0.0000
8.2759 0.1379 0.0000
8.2759 0.2069 0.0000
8.2759 0.2759 0.0000
8.2759 0.3448 0.0000
8.2759 0.4138 0.0000
8.2759 0.4828 0.0000
8.2759 0.5517 0.0000
8.2759 0.6207 0.0000
8.2759 0.6897 0.0000
8.2759 0.7586 0.0000
8.2759 0.8276 0.0000
8.2759 0.8966 0.0000
8.2759 0.9655 0.0000
8.2759 1.0345 0.0000
8.2759 1.1034 0.0000
8.2759 1.1724 0.0000
8.2759 1.2414 0.0000
8.2759 1.3103 0.0000
8.2759 1.3793 0.0000
8.2759 1.4483 0.0000
8.2759 1.5172 0.0000
8.2759 1.5862 0.0000
8.2759 1.6552 0.0000
8.2759 1.7241 0.0000
8.2759 1.7931 0.0000
8.2759 1.8621 0.0000
8.2759 1.9310 0.0000
8.2759 2.0000 0.0000
9.3103 0.0000 0.0000
9.3103 0.0690 0.0000
9.3103 0.1379 0.0000
9.3103 0.2069 0.0000
9.3103 0.2759 0.0000
9.3103 0.3448 0.0000
9.3103 0.4138 0.0000
9.3103 0.4828 0.0000
9.3103 0.5517 0.0000
9.3103 0.6207 0.0000
9.3103 0.6897 0.0000
9.3103 0.7586 0.0000
9.3103 0.8276 0.0000
9.3103 0.8966 0.0000
9.3103 0.9655 0.0000
9.3103 1.0345 0.0000
9.3103 1.1034 0.0000
9.3103 1.1724 0.0000
9.3103 1.2414 0.0000
9.3103 1.3103 0.0000
9.3103 1.3793 0.0000
9.3103 1.4483 0.0000
9.3103 1.5172 0.0000
9.3103 1.5862 0.0000
9.3103 1.6552 0.0000
9.3103 1.7241 0.0000
9.3103 1.7931 0.0000
9.3103 1.8621 0.0000
9.3103 1.9310 0.0000
9.3103 2.0000 0.0000
10.3448 0.0000 0.0000
10.3448 0.0690 0.0000
10.3448 0.1379 0.0000
10.3448 0.2069 0.0000
10.3448 0.2759 0.0000
10.3448 0.3448 0.0000
10.3448 0.4138 0.0000
10.3448 0.4828 0.0000
10.3448 0.5517 0.0000
10.3448 0.6207 0.0000
10.3448 0.6897 0.0000
10.3448 0.7586 0.0000
10.3448 0.8276 0.0000
10.3448 0.8966 0.0000
10.3448 0.9655 0.0000
10.3448 1.0345 0.0000
10.3448 1.1034 0.0000
10.3448 1.1724 0.0000
10.3448 1.2414 0.0000
10.3448 1.3103 0.0000
10.3448 1.3793 0.0000
10.3448 1.4483 0.0000
10.3448 1.5172 0.0000
10.3448 1.5862 0.0000
10.3448 1.6552 0.0000
10.3448 1.7241 0.0000
10.3448 1.7931 0.0000
10.3448 1.8621 0.0000
10.3448 1.9310 0.0000
10.3448 2.0000 0.0000
11.3793 0.0000 0.0000
11.3793 0.0690 0.0000
11.3793 0.1379 0.0000
11.3793 0.2069 0.0000
11.3793 0.2759 0.0000
11.3793 0.3448 0.0000
11.3793 0.4138 0.0000
11.3793 0.4828 0.0000
11.3793 0.5517 0.0000
11.3793 0.6207 0.0000
11.3793 0.6897 0.0000
11.3793 0.7586 0.0000
11.3793 0.8276 0.0000
11.3793 0.8966 0.0000
11.3793 0.9655 0.0000
11.3793 1.0345 0.0000
11.3793 1.1034 0.0000
11.3793 1.1724 0.0000
11.3793 1.2414 0.0000
11.3793 1.3103 0.0000
11.3793 1.3793 0.0000
11.3793 1.4483 0.0000
11.3793 1.5172 0.0000
11.3793 1.5862 0.0000
11.3793 1.6552 0.0000
11.3793 1.7241 0.0000
11.3793 1.7931 0.0000
11.3793 1.8621 0.0000
11.3793 1.9310 0.0000
11.3793 2.0000 0.0000
12.4138 0.0000 0.0000
12.4138 0.0690 0.0000
12.4138 0.1379 0.0000
12.4138 0.2069 0.0000
12.4138 0.2759 0.0000
12.4138 0.3448 0.0000
12.4138 0.4138 0.0000
12.4138 0.4828 0.0000
12.4138 0.5517 0.0000
12.4138 0.6207 0.0000
12.4138 0.6897 0.0000
12.4138 0.7586 0.0000
12.4138 0.8276 0.0000
12.4138 0.8966 0.0000
12.4138 0.9655 0.0000
12.4138 1.0345 0.0000
12.4138 1.1034 0.0000
12.4138 1.1724 0.0000
12.4138 1.2414 0.0000
12.4138 1.3103 0.0000
12.4138 1.3793 0.0000
12.4138 1.4483 0.0000
12.4138 1.5172 0.0000
12.4138 1.5862 0.0000
12.4138 1.6552 0.0000
12.4138 1.7241 0.0000
12.4138 1.7931 0.0000
12.4138 1.8621 0.0000
12.4138 1.9310 0.0000
12.4138 2.0000 0.0000
13.4483 0.0000 0.0000
13.4483 0.0690 0.0000
13.4483 0.1379 0.0000
13.4483 0.2069 0.0000
13.4483 0.2759 0.0000
13.4483 0.3448 0.0000
13.4483 0.4138 0.0000
13.4483 0.4828 0.0000
13.4483 0.5517 0.0000
13.4483 0.6207 0.0000
13.4483 0.6897 0.0000
13.4483 0.7586 0.0000
13.4483 0.8276 0.0000
13.4483 0.8966 0.0000
13.4483 0.9655 0.0000
13.4483 1.0345 0.0000
13.4483 1.1034 0.0000
13.4483 1.1724 0.0000
13.4483 1.2414 0.0000
13.4483 1.3103 0.0000
13.4483 1.3793 0.0000
13.4483 1.4483 0.0000
13.4483 1.5172 0.0000
13.4483 1.5862 0.0000
13.4483 1.6552 0.0000
13.4483 1.7241 0.0000
13.4483 1.7931 0.0000
13.4483 1.8621 0.0000
13.4483 1.9310 0.0000
13.4483 2.0000 0.0000
14.4828 0.0000 0.0000
14.4828 0.0690 0.0000
14.4828 0.1379 0.0000
14.4828 0.2069 0.0000
14.4828 0.2759 0.0000
14.4828 0.3448 0.0000
14.4828 0.4138 0.0000
14.4828 0.4828 0.0000
14.4828 0.5517 0.0000
14.4828 0.6207 0.0000
14.4828 0.6897 0.0000
14.4828 0.7586 0.0000
14.4828 0.8276 0.0000
14.4828 0.8966 0.0000
14.4828 0.9655 0.0000
14.4828 1.0345 0.0000
14.4828 1.1034 0.0000
14.4828 1.1724 0.0000
14.4828 1.2414 0.0000
14.4828 1.3103 0.0000
14.4828 1.3793 0.0000
14.4828 1.4483 0.0000
14.4828 1.5172 0.0000
14.4828 1.5862 0.0000
14.4828 1.6552 0.0000
14.4828 1.7241 0.0000
14.4828 1.7931 0.0000
14.4828 1.8621 0.0000
14.4828 1.9310 0.0000
14.4828 2.0000 0.0000
15.5172 0.0000 0.0000
15.5172 0.0690 0.0000
15.5172 0.1379 0.0000
15.5172 0.2069 0.0000
[...]
         <PointData>
            <DataArray Name="fValues" NumberOfComponents="3" format="ascii" type="Float64">
-1.24916e-14  1.54994e-14        00000 
 1.54096e-14 -4.40273e-15        00000 
 1.52381e-14  6.53064e-15        00000 
-5.94882e-15 -2.66671e-15        00000 
 9.79595e-15  6.53064e-15        00000 
-1.22373e-14  4.89251e-15        00000 
-1.08844e-15 -5.44220e-15        00000 
-1.91456e-15  4.27358e-15        00000 
-1.63266e-15 -2.17688e-15        00000 
 3.22534e-15 -6.86243e-15        00000 
 2.72110e-15  8.70751e-15        00000 
-7.52149e-15 -9.57281e-15        00000 
 6.25853e-15  6.25853e-15        00000 
-4.07852e-15 -5.20392e-15        00000 
-2.72110e-16  2.17688e-15        00000 
-7.35055e-16 -2.35901e-15        00000 
 6.80275e-16  4.62587e-15        00000 
 7.77384e-17 -2.36754e-15        00000 
 3.40137e-16 -2.72110e-15        00000 
-5.12829e-17  4.51290e-15        00000 
-4.21770e-15  5.44220e-16        00000 
 1.57479e-15 -6.67242e-15        00000 
-1.90477e-15  3.80954e-15        00000 
-1.91456e-15  1.19660e-15        00000 
 5.98642e-15 -1.63266e-15        00000 
 2.12373e-16  6.30486e-16        00000 
-4.35376e-15  4.62587e-15        00000 
 8.90562e-16 -2.94570e-15        00000 
-3.84221e-15  2.74444e-16        00000 
 9.60553e-16 -2.94835e-15        00000 
-1.02314e+02 -6.26217e+01        00000 
-9.58931e+01 -5.90401e+01        00000 
-8.95262e+01 -5.55636e+01        00000 
-8.34315e+01 -5.23359e+01        00000 
-7.75642e+01 -4.92740e+01        00000 
-7.14985e+01 -4.64462e+01        00000 
-6.54440e+01 -4.37926e+01        00000 
-5.94147e+01 -4.14385e+01        00000 
-5.36916e+01 -3.92573e+01        00000 
-4.79442e+01 -3.73825e+01        00000 
-4.23909e+01 -3.57366e+01        00000 
-3.70633e+01 -3.43411e+01        00000 
-3.17768e+01 -3.30798e+01        00000 
-2.65249e+01 -3.21048e+01        00000 
-2.12518e+01 -3.12810e+01        00000 
-1.60029e+01 -3.06384e+01        00000 
-1.07448e+01 -3.01532e+01        00000 
-5.59408e+00 -2.99294e+01        00000 
-1.63802e-01 -2.98005e+01        00000 
 5.34167e+00 -2.98784e+01        00000 
 1.06939e+01 -3.00834e+01        00000 
 1.58707e+01 -3.05827e+01        00000 
 2.10772e+01 -3.11808e+01        00000 
 2.64357e+01 -3.20003e+01        00000 
 3.20508e+01 -3.29746e+01        00000 
 3.77844e+01 -3.41638e+01        00000 
 4.33511e+01 -3.55130e+01        00000 
 4.88526e+01 -3.71258e+01        00000 
 5.45925e+01 -3.88957e+01        00000 
 6.04569e+01 -4.09284e+01        00000 
-2.09763e+02 -1.92024e+02        00000 
-1.98422e+02 -1.89029e+02        00000 
-1.86919e+02 -1.86221e+02        00000 
-1.75401e+02 -1.83518e+02        00000 
-1.63829e+02 -1.81023e+02        00000 
-1.52165e+02 -1.78671e+02        00000 
-1.40238e+02 -1.76463e+02        00000 
-1.28304e+02 -1.74312e+02        00000 
-1.16540e+02 -1.72409e+02        00000 
-1.05186e+02 -1.70605e+02        00000 
-9.37806e+01 -1.68904e+02        00000 
-8.24812e+01 -1.67330e+02        00000 
-7.12876e+01 -1.66048e+02        00000 
-6.01493e+01 -1.64946e+02        00000 
-4.92407e+01 -1.64047e+02        00000 
-3.82724e+01 -1.63329e+02        00000 
-2.71086e+01 -1.62907e+02        00000 
-1.57978e+01 -1.62602e+02        00000 
-4.36359e+00 -1.62547e+02        00000 
 7.03389e+00 -1.62598e+02        00000 
 1.85249e+01 -1.62825e+02        00000 
 3.00286e+01 -1.63187e+02        00000 
 4.17888e+01 -1.63828e+02        00000 
 5.33552e+01 -1.64578e+02        00000 
 6.50389e+01 -1.65567e+02        00000 
 7.67515e+01 -1.66651e+02        00000 
 8.84318e+01 -1.67901e+02        00000 
 1.00070e+02 -1.69315e+02        00000 
 1.11491e+02 -1.70917e+02        00000 
 1.22990e+02 -1.72551e+02        00000 
-3.08637e+02 -4.01534e+02        00000 
-2.92155e+02 -3.98589e+02        00000 
-2.75600e+02 -3.95744e+02        00000 
-2.58867e+02 -3.93088e+02        00000 
-2.42168e+02 -3.90615e+02        00000 
-2.25550e+02 -3.88281e+02        00000 
-2.09077e+02 -3.86134e+02        00000 
-1.92609e+02 -3.84160e+02        00000 
-1.75822e+02 -3.82285e+02        00000 
-1.59016e+02 -3.80579e+02        00000 
-1.42268e+02 -3.79017e+02        00000 
-1.25437e+02 -3.77594e+02        00000 
-1.08401e+02 -3.76365e+02        00000 
-9.12701e+01 -3.75290e+02        00000 
-7.42610e+01 -3.74343e+02        00000 
-5.73669e+01 -3.73644e+02        00000 
-4.04695e+01 -3.73166e+02        00000 
-2.35099e+01 -3.72867e+02        00000 
-6.60648e+00 -3.72721e+02        00000 
 1.02540e+01 -3.72654e+02        00000 
 2.70860e+01 -3.72761e+02        00000 
 4.39495e+01 -3.73061e+02        00000 
 6.08064e+01 -3.73456e+02        00000 
 7.76506e+01 -3.74064e+02        00000 
 9.42582e+01 -3.74780e+02        00000 
 1.10594e+02 -3.75614e+02        00000 
 1.27060e+02 -3.76696e+02        00000 
 1.43497e+02 -3.77901e+02        00000 
 1.59974e+02 -3.79300e+02        00000 
 1.76297e+02 -3.80875e+02        00000 
-4.12500e+02 -6.88329e+02        00000 
-3.90363e+02 -6.85275e+02        00000 
-3.68002e+02 -6.82460e+02        00000 
-3.45720e+02 -6.79766e+02        00000 
-3.23619e+02 -6.77197e+02        00000 
-3.01620e+02 -6.74873e+02        00000 
-2.79504e+02 -6.72603e+02        00000 
-2.57452e+02 -6.70620e+02        00000 
-2.35497e+02 -6.68761e+02        00000 
-2.13299e+02 -6.67074e+02        00000 
-1.90870e+02 -6.65519e+02        00000 
-1.68404e+02 -6.64162e+02        00000 
-1.46218e+02 -6.62969e+02        00000 
-1.23994e+02 -6.61903e+02        00000 
-1.01439e+02 -6.60923e+02        00000 
-7.90828e+01 -6.60167e+02        00000 
-5.68285e+01 -6.59463e+02        00000 
-3.45545e+01 -6.58955e+02        00000 
-1.23538e+01 -6.58525e+02        00000 
 9.97792e+00 -6.58355e+02        00000 
 3.22104e+01 -6.58303e+02        00000 
 5.46397e+01 -6.58494e+02        00000 
 7.68979e+01 -6.58844e+02        00000 
 9.89913e+01 -6.59365e+02        00000 
 1.21172e+02 -6.60008e+02        00000 
 1.43473e+02 -6.60882e+02        00000 
 1.65426e+02 -6.61867e+02        00000 
 1.87584e+02 -6.63024e+02        00000 
 2.09954e+02 -6.64328e+02        00000 
 2.32454e+02 -6.65890e+02        00000 
-5.16115e+02 -1.06772e+03        00000 
-4.88057e+02 -1.06478e+03        00000 
-4.60242e+02 -1.06192e+03        00000 
-4.32692e+02 -1.05928e+03        00000 
-4.05081e+02 -1.05681e+03        00000 
-3.77413e+02 -1.05449e+03        00000 
-3.49653e+02 -1.05237e+03        00000 
-3.22005e+02 -1.05035e+03        00000 
-2.94472e+02 -1.04852e+03        00000 
-2.66977e+02 -1.04681e+03        00000 
-2.39344e+02 -1.04531e+03        00000 
-2.11674e+02 -1.04390e+03        00000 
-1.84260e+02 -1.04268e+03        00000 
-1.56915e+02 -1.04167e+03        00000 
-1.29358e+02 -1.04094e+03        00000 
-1.01908e+02 -1.04033e+03        00000 
-7.43585e+01 -1.03988e+03        00000 
-4.69011e+01 -1.03957e+03        00000 
-1.94169e+01 -1.03949e+03        00000 
 8.08736e+00 -1.03949e+03        00000 
 3.55732e+01 -1.03973e+03        00000 
 6.30350e+01 -1.04011e+03        00000 
 9.05427e+01 -1.04071e+03        00000 
 1.18180e+02 -1.04145e+03        00000 
 1.46015e+02 -1.04241e+03        00000 
 1.73941e+02 -1.04339e+03        00000 
 2.01897e+02 -1.04460e+03        00000 
 2.29958e+02 -1.04587e+03        00000 
 2.58031e+02 -1.04727e+03        00000 
 2.86361e+02 -1.04885e+03        00000 
-6.10037e+02 -1.52477e+03        00000 
-5.77316e+02 -1.52208e+03        00000 
-5.44780e+02 -1.51966e+03        00000 
-5.12094e+02 -1.51737e+03        00000 
-4.79252e+02 -1.51526e+03        00000 
-4.46474e+02 -1.51336e+03        00000 
-4.13620e+02 -1.51166e+03        00000 
-3.80900e+02 -1.51012e+03        00000 
-3.48164e+02 -1.50874e+03        00000 
-3.15521e+02 -1.50740e+03        00000 
-2.82765e+02 -1.50613e+03        00000 
-2.50251e+02 -1.50505e+03        00000 
-2.17674e+02 -1.50406e+03        00000 
-1.85126e+02 -1.50322e+03        00000 
-1.52481e+02 -1.50254e+03        00000 
-1.19829e+02 -1.50198e+03        00000 
-8.72823e+01 -1.50155e+03        00000 
-5.46789e+01 -1.50125e+03        00000 
-2.19279e+01 -1.50112e+03        00000 
 1.08389e+01 -1.50118e+03        00000 
 4.35540e+01 -1.50134e+03        00000 
 7.62393e+01 -1.50163e+03        00000 
 1.08965e+02 -1.50212e+03        00000 
 1.41923e+02 -1.50283e+03        00000 
 1.74947e+02 -1.50372e+03        00000 
 2.07955e+02 -1.50472e+03        00000 
 2.40867e+02 -1.50584e+03        00000 
 2.73615e+02 -1.50713e+03        00000 
 3.06590e+02 -1.50860e+03        00000 
 3.39421e+02 -1.51017e+03        00000 
-7.04041e+02 -2.05549e+03        00000 
-6.65999e+02 -2.05261e+03        00000 
-6.27989e+02 -2.04992e+03        00000 
-5.89878e+02 -2.04745e+03        00000 
-5.51890e+02 -2.04505e+03        00000 
-5.13976e+02 -2.04283e+03        00000 
-4.76194e+02 -2.04075e+03        00000 
-4.38621e+02 -2.03889e+03        00000 
-4.01228e+02 -2.03708e+03        00000 
-3.63612e+02 -2.03554e+03        00000 
-3.25768e+02 -2.03415e+03        00000 
-2.88100e+02 -2.03297e+03        00000 
-2.50293e+02 -2.03189e+03        00000 
-2.12414e+02 -2.03100e+03        00000 
-1.74384e+02 -2.03023e+03        00000 
-1.36059e+02 -2.02963e+03        00000 
-9.78725e+01 -2.02918e+03        00000 
-5.98375e+01 -2.02891e+03        00000 
-2.18003e+01 -2.02877e+03        00000 
 1.63347e+01 -2.02891e+03        00000 
 5.45103e+01 -2.02917e+03        00000 
 9.26569e+01 -2.02962e+03        00000 
 1.30849e+02 -2.03016e+03        00000 
 1.68968e+02 -2.03094e+03        00000 
 2.07036e+02 -2.03179e+03        00000 
 2.45069e+02 -2.03282e+03        00000 
 2.83128e+02 -2.03398e+03        00000 
 3.21173e+02 -2.03527e+03        00000 
 3.59052e+02 -2.03673e+03        00000 
 3.97073e+02 -2.03839e+03        00000 
-8.05883e+02 -2.67172e+03        00000 
-7.62057e+02 -2.66875e+03        00000 
-7.18127e+02 -2.66601e+03        00000 
-6.74485e+02 -2.66338e+03        00000 
-6.31070e+02 -2.66093e+03        00000 
-5.87722e+02 -2.65858e+03        00000 
-5.44431e+02 -2.65638e+03        00000 
-5.01069e+02 -2.65438e+03        00000 
-4.57911e+02 -2.65262e+03        00000 
-4.14682e+02 -2.65095e+03        00000 
-3.71485e+02 -2.64954e+03        00000 
-3.28097e+02 -2.64828e+03        00000 
-2.84989e+02 -2.64722e+03        00000 
-2.41857e+02 -2.64620e+03        00000 
-1.98597e+02 -2.64537e+03        00000 
-1.55172e+02 -2.64467e+03        00000 
-1.11732e+02 -2.64411e+03        00000 
-6.83061e+01 -2.64365e+03        00000 
-2.48745e+01 -2.64338e+03        00000 
 1.86459e+01 -2.64317e+03        00000 
 6.23884e+01 -2.64317e+03        00000 
 1.05956e+02 -2.64327e+03        00000 
 1.49555e+02 -2.64359e+03        00000 
 1.92877e+02 -2.64393e+03        00000 
 2.36260e+02 -2.64450e+03        00000 
 2.79665e+02 -2.64524e+03        00000 
 3.22837e+02 -2.64617e+03        00000 
 3.66157e+02 -2.64720e+03        00000 
 4.09658e+02 -2.64846e+03        00000 
 4.53357e+02 -2.64989e+03        00000 
-8.99740e+02 -3.36507e+03        00000 
-8.51429e+02 -3.36242e+03        00000 
-8.02975e+02 -3.35986e+03        00000 
-7.55018e+02 -3.35736e+03        00000 
-7.07053e+02 -3.35497e+03        00000 
-6.58778e+02 -3.35277e+03        00000 
-6.10465e+02 -3.35073e+03        00000 
-5.62067e+02 -3.34882e+03        00000 
-5.13614e+02 -3.34698e+03        00000 
-4.65318e+02 -3.34529e+03        00000 
-4.17130e+02 -3.34374e+03        00000 
-3.68904e+02 -3.34228e+03        00000 
-3.20527e+02 -3.34100e+03        00000 
-2.72448e+02 -3.33985e+03        00000 
-2.24477e+02 -3.33875e+03        00000 
-1.76384e+02 -3.33784e+03        00000 
-1.28134e+02 -3.33707e+03        00000 
-7.98464e+01 -3.33647e+03        00000 
-3.15785e+01 -3.33602e+03        00000 
 1.68961e+01 -3.33566e+03        00000 
 6.53238e+01 -3.33540e+03        00000 
 1.13551e+02 -3.33529e+03        00000 
 1.61892e+02 -3.33533e+03        00000 
 2.10374e+02 -3.33558e+03        00000 
 2.58717e+02 -3.33598e+03        00000 
 3.07017e+02 -3.33652e+03        00000 
 3.55327e+02 -3.33730e+03        00000 
 4.03750e+02 -3.33826e+03        00000 
 4.52266e+02 -3.33943e+03        00000 
 5.00497e+02 -3.34073e+03        00000 
-9.88484e+02 -4.11503e+03        00000 
-9.35653e+02 -4.11250e+03        00000 
-8.82898e+02 -4.11009e+03        00000 
-8.30260e+02 -4.10787e+03        00000 
-7.77654e+02 -4.10583e+03        00000 
-7.25029e+02 -4.10400e+03        00000 
-6.72146e+02 -4.10226e+03        00000 
-6.19279e+02 -4.10077e+03        00000 
-5.66385e+02 -4.09940e+03        00000 
-5.13682e+02 -4.09813e+03        00000 
-4.60873e+02 -4.09695e+03        00000 
-4.07987e+02 -4.09593e+03        00000 
-3.55016e+02 -4.09495e+03        00000 
-3.02244e+02 -4.09413e+03        00000 
-2.49424e+02 -4.09338e+03        00000 
-1.96410e+02 -4.09277e+03        00000 
-1.43536e+02 -4.09231e+03        00000 
-9.05395e+01 -4.09199e+03        00000 
-3.73994e+01 -4.09180e+03        00000 
 1.56553e+01 -4.09185e+03        00000 
 6.87335e+01 -4.09190e+03        00000 
 1.21921e+02 -4.09210e+03        00000 
 1.75045e+02 -4.09237e+03        00000 
 2.28321e+02 -4.09281e+03        00000 
 2.81748e+02 -4.09339e+03        00000 
 3.35058e+02 -4.09418e+03        00000 
 3.88374e+02 -4.09509e+03        00000 
 4.41715e+02 -4.09616e+03        00000 
 4.95051e+02 -4.09743e+03        00000 
 5.48382e+02 -4.09885e+03        00000 
-1.07814e+03 -4.95082e+03        00000 
-1.02003e+03 -4.94826e+03        00000 
-9.61975e+02 -4.94582e+03        00000 
-9.04065e+02 -4.94357e+03        00000 
-8.46303e+02 -4.94141e+03        00000 
-7.88405e+02 -4.93931e+03        00000 
-7.30344e+02 -4.93740e+03        00000 
-6.72508e+02 -4.93559e+03        00000 
-6.14814e+02 -4.93394e+03        00000 
-5.56959e+02 -4.93251e+03        00000 
-4.99244e+02 -4.93128e+03        00000 
-4.41462e+02 -4.93019e+03        00000 
-3.83690e+02 -4.92935e+03        00000 
-3.25827e+02 -4.92859e+03        00000 
-2.68067e+02 -4.92812e+03        00000 
-2.10121e+02 -4.92779e+03        00000 
-1.52076e+02 -4.92759e+03        00000 
-9.46345e+01 -4.92755e+03        00000 
-3.70709e+01 -4.92772e+03        00000 
 2.07637e+01 -4.92793e+03        00000 
 7.84851e+01 -4.92838e+03        00000 
 1.35929e+02 -4.92898e+03        00000 
 1.93497e+02 -4.92971e+03        00000 
 2.51285e+02 -4.93049e+03        00000 
 3.09134e+02 -4.93149e+03        00000 
 3.66930e+02 -4.93250e+03        00000 
 4.24641e+02 -4.93365e+03        00000 
 4.82273e+02 -4.93492e+03        00000 
 5.40196e+02 -4.93624e+03        00000 
 5.98195e+02 -4.93775e+03        00000 
-1.16061e+03 -5.85262e+03        00000 
-1.09842e+03 -5.85028e+03        00000 
-1.03620e+03 -5.84800e+03        00000 
-9.73851e+02 -5.84580e+03        00000 
-9.11679e+02 -5.84375e+03        00000 
-8.49564e+02 -5.84180e+03        00000 
-7.87321e+02 -5.83993e+03        00000 
-7.24887e+02 -5.83813e+03        00000 
-6.62592e+02 -5.83650e+03        00000 
-6.00416e+02 -5.83495e+03        00000 
-5.37975e+02 -5.83357e+03        00000 
-4.75401e+02 -5.83232e+03        00000 
-4.13100e+02 -5.83117e+03        00000 
-3.50546e+02 -5.83022e+03        00000 
-2.87748e+02 -5.82941e+03        00000 
-2.25176e+02 -5.82867e+03        00000 
-1.62581e+02 -5.82805e+03        00000 
-1.00047e+02 -5.82757e+03        00000 
-3.74495e+01 -5.82718e+03        00000 
 2.50158e+01 -5.82691e+03        00000 
 8.74103e+01 -5.82677e+03        00000 
 1.49911e+02 -5.82680e+03        00000 
 2.12356e+02 -5.82705e+03        00000 
 2.74647e+02 -5.82745e+03        00000 
 3.36928e+02 -5.82791e+03        00000 
 3.99211e+02 -5.82857e+03        00000 
 4.61358e+02 -5.82941e+03        00000 
 5.23287e+02 -5.83031e+03        00000 
 5.85491e+02 -5.83140e+03        00000 
 6.47558e+02 -5.83270e+03        00000 
-1.23987e+03 -6.81749e+03        00000 
-1.17335e+03 -6.81520e+03        00000 
-1.10680e+03 -6.81304e+03        00000 
-1.04024e+03 -6.81096e+03        00000 
-9.73735e+02 -6.80902e+03        00000 
-9.07379e+02 -6.80725e+03        00000 
-8.41097e+02 -6.80557e+03        00000 
-7.74652e+02 -6.80401e+03        00000 
-7.08192e+02 -6.80255e+03        00000 
-6.41786e+02 -6.80127e+03        00000 
-5.75183e+02 -6.80002e+03        00000 
-5.08542e+02 -6.79892e+03        00000 
-4.41749e+02 -6.79798e+03        00000 
-3.75100e+02 -6.79711e+03        00000 
-3.08369e+02 -6.79629e+03        00000 
-2.41682e+02 -6.79570e+03        00000 
-1.75111e+02 -6.79516e+03        00000 
-1.08394e+02 -6.79476e+03        00000 
-4.16656e+01 -6.79448e+03        00000 
 2.48341e+01 -6.79426e+03        00000 
 9.14936e+01 -6.79408e+03        00000 
 1.58422e+02 -6.79406e+03        00000 
 2.25220e+02 -6.79407e+03        00000 
 2.91995e+02 -6.79427e+03        00000 
 3.58675e+02 -6.79458e+03        00000 
 4.25188e+02 -6.79507e+03        00000 
 4.91752e+02 -6.79573e+03        00000 
 5.58355e+02 -6.79661e+03        00000 
 6.24730e+02 -6.79764e+03        00000 
 6.91299e+02 -6.79882e+03        00000 
-1.31918e+03 -7.84739e+03        00000 
-1.24855e+03 -7.84511e+03        00000 
-1.17799e+03 -7.84291e+03        00000 
-1.10749e+03 -7.84084e+03        00000 
-1.03710e+03 -7.83886e+03        00000 
-9.66764e+02 -7.83695e+03        00000 
-8.96456e+02 -7.83523e+03        00000 
-8.26241e+02 -7.83364e+03        00000 
-7.56166e+02 -7.83221e+03        00000 
-6.86050e+02 -7.83085e+03        00000 
-6.15727e+02 -7.82961e+03        00000 
-5.45125e+02 -7.82843e+03        00000 
-4.74506e+02 -7.82741e+03        00000 
-4.03888e+02 -7.82646e+03        00000 
-3.33132e+02 -7.82567e+03        00000 
-2.62340e+02 -7.82501e+03        00000 
-1.91377e+02 -7.82449e+03        00000 
-1.20359e+02 -7.82405e+03        00000 
-4.93354e+01 -7.82378e+03        00000 
 2.18402e+01 -7.82361e+03        00000 
 9.30238e+01 -7.82363e+03        00000 
 1.64280e+02 -7.82366e+03        00000 
 2.35509e+02 -7.82390e+03        00000 
 3.06807e+02 -7.82428e+03        00000 
 3.77899e+02 -7.82479e+03        00000 
 4.48760e+02 -7.82531e+03        00000 
 5.19414e+02 -7.82602e+03        00000 
 5.90115e+02 -7.82689e+03        00000 
 6.60795e+02 -7.82786e+03        00000 
 7.31439e+02 -7.82891e+03        00000 
-1.39136e+03 -8.93113e+03        00000 
-1.31711e+03 -8.92914e+03        00000 
-1.24275e+03 -8.92721e+03        00000 
-1.16839e+03 -8.92536e+03        00000 
-1.09410e+03 -8.92368e+03        00000 
-1.01989e+03 -8.92209e+03        00000 
-9.45731e+02 -8.92054e+03        00000 
-8.71558e+02 -8.91913e+03        00000 
-7.97310e+02 -8.91785e+03        00000 
-7.23004e+02 -8.91669e+03        00000 
-6.48898e+02 -8.91573e+03        00000 
-5.74651e+02 -8.91492e+03        00000 
-5.00387e+02 -8.91415e+03        00000 
-4.25836e+02 -8.91344e+03        00000 
-3.51395e+02 -8.91289e+03        00000 
-2.76942e+02 -8.91248e+03        00000 
-2.02489e+02 -8.91217e+03        00000 
-1.27825e+02 -8.91199e+03        00000 
-5.30818e+01 -8.91189e+03        00000 
 2.17282e+01 -8.91201e+03        00000 
 9.64650e+01 -8.91214e+03        00000 
 1.71053e+02 -8.91242e+03        00000 
 2.45921e+02 -8.91285e+03        00000 
 3.20805e+02 -8.91329e+03        00000 
 3.95539e+02 -8.91382e+03        00000 
 4.70145e+02 -8.91446e+03        00000 
 5.44677e+02 -8.91515e+03        00000 
 6.19237e+02 -8.91597e+03        00000 
 6.94041e+02 -8.91693e+03        00000 
 7.68679e+02 -8.91803e+03        00000 
-1.45683e+03 -1.00771e+04        00000 
-1.37862e+03 -1.00754e+04        00000 
-1.30054e+03 -1.00738e+04        00000 
-1.22253e+03 -1.00724e+04        00000 
-1.14454e+03 -1.00710e+04        00000 
-1.06676e+03 -1.00697e+04        00000 
-9.88952e+02 -1.00685e+04        00000 
-9.10879e+02 -1.00675e+04        00000 
-8.32749e+02 -1.00665e+04        00000 
-7.54908e+02 -1.00657e+04        00000 
-6.77073e+02 -1.00649e+04        00000 
-5.99167e+02 -1.00644e+04        00000 
-5.21121e+02 -1.00639e+04        00000 
-4.43086e+02 -1.00635e+04        00000 
-3.64878e+02 -1.00632e+04        00000 
-2.86676e+02 -1.00628e+04        00000 
-2.08510e+02 -1.00625e+04        00000 