<?xml version="1.0" encoding="utf-8"?>
<VTKFile byte_order="LittleEndian" type="UnstructuredGrid" version="0.1">
   <UnstructuredGrid>
      <Piece NumberOfCells="3364" NumberOfPoints="1741">
         <Points>
            <DataArray Name="Points" NumberOfComponents="3" format="ascii" type="Float32">
0.0000 0.0000 0.0000
0.0000 0.0690 0.0000
0.0000 0.1379 0.0000
0.0000 0.2069 0.0000
0.0000 0.2759 0.0000
0.0000 0.3448 0.0000
0.0000 0.4138 0.0000
0.0000 0.4828 0.0000
0.0000 0.5517 0.0000
0.0000 0.6207 0.0000
0.0000 0.6897 0.0000
0.0000 0.7586 0.0000
0.0000 0.8276 0.0000
0.0000 0.8966 0.0000
0.0000 0.9655 0.0000
0.0000 1.0345 0.0000
0.0000 1.1034 0.0000
0.0000 1.1724 0.0000
0.0000 1.2414 0.0000
0.0000 1.3103 0.0000
0.0000 1.3793 0.0000
0.0000 1.4483 0.0000
0.0000 1.5172 0.0000
0.0000 1.5862 0.0000
0.0000 1.6552 0.0000
0.0000 1.7241 0.0000
0.0000 1.7931 0.0000
0.0000 1.8621 0.0000
0.0000 1.9310 0.0000
0.0000 2.0000 0.0000
1.0345 0.0000 0.0000
1.0345 0.0690 0.0000
1.0345 0.1379 0.0000
1.0345 0.2069 0.0000
1.0345 0.2759 0.0000
1.0345 0.3448 0.0000
1.0345 0.4138 0.0000
1.0345 0.4828 0.0000
1.0345 0.5517 0.0000
1.0345 0.6207 0.0000
1.0345 0.6897 0.0000
1.0345 0.7586 0.0000
1.0345 0.8276 0.0000
1.0345 0.8966 0.0000
1.0345 0.9655 0.0000
1.0345 1.0345 0.0000
1.0345 1.1034 0.0000
1.0345 1.1724 0.0000
1.0345 1.2414 0.0000
1.0345 1.3103 0.0000
1.0345 1.3793 0.0000
1.0345 1.4483 0.0000
1.0345 1.5172 0.0000
1.0345 1.5862 0.0000
1.0345 1.6552 0.0000
1.0345 1.7241 0.0000
1.0345 1.7931 0.0000
1.0345 1.8621 0.0000
1.0345 1.9310 0.0000
1.0345 2.0000 0.0000
2.0690 0.0000 0.0000
2.0690 0.0690 0.0000
2.0690 0.1379 0.0000
2.0690 0.2069 0.0000
2.0690 0.2759 0.0000
2.0690 0.3448 0.0000
2.0690 0.4138 0.0000
2.0690 0.4828 0.0000
2.0690 0.5517 0.0000
2.0690 0.6207 0.0000
2.0690 0.6897 0.0000
2.0690 0.7586 0.0000
2.0690 0.8276 0.0000
2.0690 0.8966 0.0000
2.0690 0.9655 0.0000
2.0690 1.0345 0.0000
2.0690 1.1034 0.0000
2.0690 1.1724 0.0000
2.0690 1.2414 0.0000
2.0690 1.3103 0.0000
2.0690 1.3793 0.0000
2.0690 1.4483 0.0000
2.0690 1.5172 0.0000
2.0690 1.5862 0.0000
2.0690 1.6552 0.0000
2.0690 1.7241 0.0000
2.0690 1.7931 0.0000
2.0690 1.8621 0.0000
2.0690 1.9310 0.0000
2.0690 2.0000 0.0000
3.1034 0.0000 0.0000
3.1034 0.0690 0.0000
3.1034 0.1379 0.0000
3.1034 0.2069 0.0000
3.1034 0.2759 0.0000
3.1034 0.3448 0.0000
3.1034 0.4138 0.0000
3.1034 0.4828 0.0000
3.1034 0.5517 0.0000
3.1034 0.6207 0.0000
3.1034 0.6897 0.0000
3.1034 0.7586 0.0000
3.1034 0.8276 0.0000
3.1034 0.8966 0.0000
3.1034 0.9655 0.0000
3.1034 1.0345 0.0000
3.1034 1.1034 0.0000
3.1034 1.1724 0.0000
3.1034 1.2414 0.0000
3.1034 1.3103 0.0000
3.1034 1.3793 0.0000
3.1034 1.4483 0.0000
3.1034 1.5172 0.0000
3.1034 1.5862 0.0000
3.1034 1.6552 0.0000
3.1034 1.7241 0.0000
3.1034 1.7931 0.0000
3.1034 1.8621 0.0000
3.1034 1.9310 0.0000
3.1034 2.0000 0.0000
4.1379 0.0000 0.0000
4.1379 0.0690 0.0000
4.1379 0.1379 0.0000
4.1379 0.2069 0.0000
4.1379 0.2759 0.0000
4.1379 0.3448 0.0000
4.1379 0.4138 0.0000
4.1379 0.4828 0.0000
4.1379 0.5517 0.0000
4.1379 0.6207 0.0000
4.1379 0.6897 0.0000
4.1379 0.7586 0.0000
4.1379 0.8276 0.0000
4.1379 0.8966 0.0000
4.1379 0.9655 0.0000
4.1379 1.0345 0.0000
4.1379 1.1034 0.0000
4.1379 1.1724 0.0000
4.1379 1.2414 0.0000
4.1379 1.3103 0.0000
4.1379 1.3793 0.0000
4.1379 1.4483 0.0000
4.1379 1.5172 0.0000
4.1379 1.5862 0.0000
4.1379 1.6552 0.0000
4.1379 1.7241 0.0000
4.1379 1.7931 0.0000
4.1379 1.8621 0.0000
4.1379 1.9310 0.0000
4.1379 2.0000 0.0000
5.1724 0.0000 0.0000
5.1724 0.0690 0.0000
5.1724 0.1379 0.0000
5.1724 0.2069 0.0000
5.1724 0.2759 0.0000
5.1724 0.3448 0.0000
5.1724 0.4138 0.0000
5.1724 0.4828 0.0000
5.1724 0.5517 0.0000
5.1724 0.6207 0.0000
5.1724 0.6897 0.0000
5.1724 0.7586 0.0000
5.1724 0.8276 0.0000
5.1724 0.8966 0.0000
5.1724 0.9655 0.0000
5.1724 1.0345 0.0000
5.1724 1.1034 0.0000
5.1724 1.1724 0.0000
5.1724 1.2414 0.0000
5.1724 1.3103 0.0000
5.1724 1.3793 0.0000
5.1724 1.4483 0.0000
5.1724 1.5172 0.0000
5.1724 1.5862 0.0000
5.1724 1.6552 0.0000
5.1724 1.7241 0.0000
5.1724 1.7931 0.0000
5.1724 1.8621 0.0000
5.1724 1.9310 0.0000
5.1724 2.0000 0.0000
6.2069 0.0000 0.0000
6.2069 0.0690 0.0000
6.2069 0.1379 0.0000
6.2069 0.2069 0.0000
6.2069 0.2759 0.0000
6.2069 0.3448 0.0000
6.2069 0.4138 0.0000
6.2069 0.4828 0.0000
6.2069 0.5517 0.0000
6.2069 0.6207 0.0000
6.2069 0.6897 0.0000
6.2069 0.7586 0.0000
6.2069 0.8276 0.0000
6.2069 0.8966 0.0000
6.2069 0.9655 0.0000
6.2069 1.0345 0.0000
6.2069 1.1034 0.0000
6.2069 1.1724 0.0000
6.2069 1.2414 0.0000
6.2069 1.3103 0.0000
6.2069 1.3793 0.0000
6.2069 1.4483 0.0000
6.2069 1.5172 0.0000
6.2069 1.5862 0.0000
6.2069 1.6552 0.0000
6.2069 1.7241 0.0000
6.2069 1.7931 0.0000
6.2069 1.8621 0.0000
6.2069 1.9310 0.0000
6.2069 2.0000 0.0000
7.2414 0.0000 0.0000
7.2414 0.0690 0.0000
7.2414 0.1379 0.0000
7.2414 0.2069 0.0000
7.2414 0.2759 0.0000
7.2414 0.3448 0.0000
7.2414 0.4138 0.0000
7.2414 0.4828 0.0000
7.2414 0.5517 0.0000
7.2414 0.6207 0.0000
7.2414 0.6897 0.0000
7.2414 0.7586 0.0000
7.2414 0.8276 0.0000
7.2414 0.8966 0.0000
7.2414 0.9655 0.0000
7.2414 1.0345 0.0000
7.2414 1.1034 0.0000
7.2414 1.1724 0.0000
7.2414 1.2414 0.0000
7.2414 1.3103 0.0000
7.2414 1.3793 0.0000
7.2414 1.4483 0.0000
7.2414 1.5172 0.0000
7.2414 1.5862 0.0000
7.2414 1.6552 0.0000
7.2414 1.7241 0.0000
7.2414 1.7931 0.0000
7.2414 1.8621 0.0000
7.2414 1.9310 0.0000
7.2414 2.0000 0.0000
8.2759 0.0000 0.0000
8.2759 0.0690 0.0000
8.2759 0.1379 0.0000
8.2759 0.2069 0.0000
8.2759 0.2759 0.0000
8.2759 0.3448 0.0000
8.2759 0.4138 0.0000
8.2759 0.4828 0.0000
8.2759 0.5517 0.0000
8.2759 0.6207 0.0000
8.2759 0.6897 0.0000
8.2759 0.7586 0.0000
8.2759 0.8276 0.0000
8.2759 0.8966 0.0000
8.2759 0.9655 0.0000
8.2759 1.0345 0.0000
8.2759 1.1034 0.0000
8.2759 1.1724 0.0000
8.2759 1.2414 0.0000
8.2759 1.3103 0.0000
8.2759 1.3793 0.0000
8.2759 1.4483 0.0000
8.2759 1.5172 0.0000
8.2759 1.5862 0.0000
8.2759 1.6552 0.0000
8.2759 1.7241 0.0000
8.2759 1.7931 0.0000
8.2759 1.8621 0.0000
8.2759 1.9310 0.0000
8.2759 2.0000 0.0000
9.3103 0.0000 0.0000
9.3103 0.0690 0.0000
9.3103 0.1379 0.0000
9.3103 0.2069 0.0000
9.3103 0.2759 0.0000
9.3103 0.3448 0.0000
9.3103 0.4138 0.0000
9.3103 0.4828 0.0000
9.3103 0.5517 0.0000
9.3103 0.6207 0.0000
9.3103 0.6897 0.0000
9.3103 0.7586 0.0000
9.3103 0.8276 0.0000
9.3103 0.8966 0.0000
9.3103 0.9655 0.0000
9.3103 1.0345 0.0000
9.3103 1.1034 0.0000
9.3103 1.1724 0.0000
9.3103 1.2414 0.0000
9.3103 1.3103 0.0000
9.3103 1.3793 0.0000
9.3103 1.4483 0.0000
9.3103 1.5172 0.0000
9.3103 1.5862 0.0000
9.3103 1.6552 0.0000
9.3103 1.7241 0.0000
9.3103 1.7931 0.0000
9.3103 1.8621 0.0000
9.3103 1.9310 0.0000
9.3103 2.0000 0.0000
10.3448 0.0000 0.0000
10.3448 0.0690 0.0000
10.3448 0.1379 0.0000
10.3448 0.2069 0.0000
10.3448 0.2759 0.0000
10.3448 0.3448 0.0000
10.3448 0.4138 0.0000
10.3448 0.4828 0.0000
10.3448 0.5517 0.0000
10.3448 0.6207 0.0000
10.3448 0.6897 0.0000
10.3448 0.7586 0.0000
10.3448 0.8276 0.0000
10.3448 0.8966 0.0000
10.3448 0.9655 0.0000
10.3448 1.0345 0.0000
10.3448 1.1034 0.0000
10.3448 1.1724 0.0000
10.3448 1.2414 0.0000
10.3448 1.3103 0.0000
10.3448 1.3793 0.0000
10.3448 1.4483 0.0000
10.3448 1.5172 0.0000
10.3448 1.5862 0.0000
10.3448 1.6552 0.0000
10.3448 1.7241 0.0000
10.3448 1.7931 0.0000
10.3448 1.8621 0.0000
10.3448 1.9310 0.0000
10.3448 2.0000 0.0000
11.3793 0.0000 0.0000
11.3793 0.0690 0.0000
11.3793 0.1379 0.0000
11.3793 0.2069 0.0000
11.3793 0.2759 0.0000
11.3793 0.3448 0.0000
11.3793 0.4138 0.0000
11.3793 0.4828 0.0000
11.3793 0.5517 0.0000
11.3793 0.6207 0.0000
11.3793 0.6897 0.0000
11.3793 0.7586 0.0000
11.3793 0.8276 0.0000
11.3793 0.8966 0.0000
11.3793 0.9655 0.0000
11.3793 1.0345 0.0000
11.3793 1.1034 0.0000
11.3793 1.1724 0.0000
11.3793 1.2414 0.0000
11.3793 1.3103 0.0000
11.3793 1.3793 0.0000
11.3793 1.4483 0.0000
11.3793 1.5172 0.0000
11.3793 1.5862 0.0000
11.3793 1.6552 0.0000
11.3793 1.7241 0.0000
11.3793 1.7931 0.0000
11.3793 1.8621 0.0000
11.3793 1.9310 0.0000
11.3793 2.0000 0.0000
12.4138 0.0000 0.0000
12.4138 0.0690 0.0000
12.4138 0.1379 0.0000
12.4138 0.2069 0.0000
12.4138 0.2759 0.0000
12.4138 0.3448 0.0000
12.4138 0.4138 0.0000
12.4138 0.4828 0.0000
12.4138 0.5517 0.0000
12.4138 0.6207 0.0000
12.4138 0.6897 0.0000
12.4138 0.7586 0.0000
12.4138 0.8276 0.0000
12.4138 0.8966 0.0000
12.4138 0.9655 0.0000
12.4138 1.0345 0.0000
12.4138 1.1034 0.0000
12.4138 1.1724 0.0000
12.4138 1.2414 0.0000
12.4138 1.3103 0.0000
12.4138 1.3793 0.0000
12.4138 1.4483 0.0000
12.4138 1.5172 0.0000
12.4138 1.5862 0.0000
12.4138 1.6552 0.0000
12.4138 1.7241 0.0000
12.4138 1.7931 0.0000
12.4138 1.8621 0.0000
12.4138 1.9310 0.0000
12.4138 2.0000 0.0000
13.4483 0.0000 0.0000
13.4483 0.0690 0.0000
13.4483 0.1379 0.0000
13.4483 0.2069 0.0000
13.4483 0.2759 0.0000
13.4483 0.3448 0.0000
13.4483 0.4138 0.0000
13.4483 0.4828 0.0000
13.4483 0.5517 0.0000
13.4483 0.6207 0.0000
13.4483 0.6897 0.0000
13.4483 0.7586 0.0000
13.4483 0.8276 0.0000
13.4483 0.8966 0.0000
13.4483 0.9655 0.0000
13.4483 1.0345 0.0000
13.4483 1.1034 0.0000
13.4483 1.1724 0.0000
13.4483 1.2414 0.0000
13.4483 1.3103 0.0000
13.4483 1.3793 0.0000
13.4483 1.4483 0.0000
13.4483 1.5172 0.0000
13.4483 1.5862 0.0000
13.4483 1.6552 0.0000
13.4483 1.7241 0.0000
13.4483 1.7931 0.0000
13.4483 1.8621 0.0000
13.4483 1.9310 0.0000
13.4483 2.0000 0.0000
14.4828 0.0000 0.0000
14.4828 0.0690 0.0000
14.4828 0.1379 0.0000
14.4828 0.2069 0.0000
14.4828 0.2759 0.0000
14.4828 0.3448 0.0000
14.4828 0.4138 0.0000
14.4828 0.4828 0.0000
14.4828 0.5517 0.0000
14.4828 0.6207 0.0000
14.4828 0.6897 0.0000
14.4828 0.7586 0.0000
14.4828 0.8276 0.0000
14.4828 0.8966 0.0000
14.4828 0.9655 0.0000
14.4828 1.0345 0.0000
14.4828 1.1034 0.0000
14.4828 1.1724 0.0000
14.4828 1.2414 0.0000
14.4828 1.3103 0.0000
14.4828 1.3793 0.0000
14.4828 1.4483 0.0000
14.4828 1.5172 0.0000
14.4828 1.5862 0.0000
14.4828 1.6552 0.0000
14.4828 1.7241 0.0000
14.4828 1.7931 0.0000
14.4828 1.8621 0.0000
14.4828 1.9310 0.0000
14.4828 2.0000 0.0000
15.5172 0.0000 0.0000
15.5172 0.0690 0.0000
15.5172 0.1379 0.0000
15.5172 0.2069 0.0000
[...]
         <PointData>
            <DataArray Name="fValues" NumberOfComponents="3" format="ascii" type="Float64">
-9.18956e-15 -4.53076e-15        00000 
 2.20137e-15  6.60410e-15        00000 
 2.17688e-15  5.44220e-15        00000 
 3.14535e-15  1.02566e-15        00000 
 1.63266e-15  9.25173e-15        00000 
 6.38122e-15 -3.23353e-15        00000 
 5.98642e-15  2.72110e-15        00000 
-8.20527e-15 -1.02566e-15        00000 
 3.26532e-15  1.08844e-15        00000 
-5.16612e-15 -1.50116e-15        00000 
 4.89798e-15        00000        00000 
-1.25130e-14  1.02566e-16        00000 
 4.62587e-15 -5.44220e-16        00000 
 4.61101e-15  2.99239e-16        00000 
-5.17009e-15  3.26532e-15        00000 
 2.25645e-15 -1.19660e-15        00000 
 1.90477e-15  1.63266e-15        00000 
 2.02891e-15 -4.32976e-15        00000 
-4.08165e-16  2.99321e-15        00000 
 2.30773e-16 -2.52996e-15        00000 
-6.12247e-16  5.98642e-15        00000 
-1.54876e-15 -3.29008e-15        00000 
-4.76192e-16  4.89798e-15        00000 
-8.54715e-17 -7.14542e-15        00000 
-3.80954e-15  2.17688e-15        00000 
 1.09953e-15 -5.42561e-16        00000 
-9.52384e-15  3.80954e-15        00000 
 8.44321e-15  4.45281e-16        00000 
-1.00858e-14 -2.33277e-15        00000 
 6.84106e-15  5.83193e-16        00000 
-9.34689e+01 -6.05308e+01        00000 
-8.78369e+01 -5.74092e+01        00000 
-8.24669e+01 -5.44471e+01        00000 
-7.73553e+01 -5.17637e+01        00000 
-7.23502e+01 -4.93508e+01        00000 
-6.76162e+01 -4.71152e+01        00000 
-6.30725e+01 -4.50842e+01        00000 
-5.87367e+01 -4.31247e+01        00000 
-5.40377e+01 -4.12758e+01        00000 
-4.93339e+01 -3.96406e+01        00000 
-4.46525e+01 -3.81977e+01        00000 
-4.00358e+01 -3.68142e+01        00000 
-3.54818e+01 -3.55209e+01        00000 
-3.09557e+01 -3.43781e+01        00000 
-2.63348e+01 -3.34329e+01        00000 
-2.11895e+01 -3.27189e+01        00000 
-1.62704e+01 -3.21964e+01        00000 
-1.13355e+01 -3.18681e+01        00000 
-6.47645e+00 -3.16868e+01        00000 
-1.59625e+00 -3.16575e+01        00000 
 3.07863e+00 -3.17417e+01        00000 
 7.49661e+00 -3.20271e+01        00000 
 1.17193e+01 -3.25276e+01        00000 
 1.57993e+01 -3.31900e+01        00000 
 2.00773e+01 -3.40032e+01        00000 
 2.45878e+01 -3.49613e+01        00000 
 2.93672e+01 -3.61418e+01        00000 
 3.40684e+01 -3.73963e+01        00000 
 3.86947e+01 -3.88139e+01        00000 
 4.35621e+01 -4.03066e+01        00000 
-1.88370e+02 -1.67155e+02        00000 
-1.78988e+02 -1.64386e+02        00000 
-1.69539e+02 -1.61726e+02        00000 
-1.60023e+02 -1.59259e+02        00000 
-1.50311e+02 -1.56854e+02        00000 
-1.40805e+02 -1.54807e+02        00000 
-1.31685e+02 -1.52965e+02        00000 
-1.22590e+02 -1.51300e+02        00000 
-1.13242e+02 -1.49972e+02        00000 
-1.03216e+02 -1.48758e+02        00000 
-9.33598e+01 -1.47722e+02        00000 
-8.35472e+01 -1.47010e+02        00000 
-7.38363e+01 -1.46431e+02        00000 
-6.41068e+01 -1.45966e+02        00000 
-5.43502e+01 -1.45715e+02        00000 
-4.46273e+01 -1.45541e+02        00000 
-3.47891e+01 -1.45405e+02        00000 
-2.50997e+01 -1.45386e+02        00000 
-1.53490e+01 -1.45391e+02        00000 
-5.61609e+00 -1.45465e+02        00000 
 4.45578e+00 -1.45711e+02        00000 
 1.44442e+01 -1.46057e+02        00000 
 2.40539e+01 -1.46498e+02        00000 
 3.35689e+01 -1.47138e+02        00000 
 4.30525e+01 -1.47992e+02        00000 
 5.28361e+01 -1.48951e+02        00000 
 6.25460e+01 -1.49962e+02        00000 
 7.21267e+01 -1.51150e+02        00000 
 8.15073e+01 -1.52425e+02        00000 
 9.11367e+01 -1.53859e+02        00000 
-2.86557e+02 -3.50732e+02        00000 
-2.71438e+02 -3.48009e+02        00000 
-2.56647e+02 -3.45433e+02        00000 
-2.41900e+02 -3.42993e+02        00000 
-2.26993e+02 -3.40790e+02        00000 
-2.11814e+02 -3.38654e+02        00000 
-1.96675e+02 -3.36735e+02        00000 
-1.81615e+02 -3.35085e+02        00000 
-1.66437e+02 -3.33470e+02        00000 
-1.51115e+02 -3.32132e+02        00000 
-1.35689e+02 -3.31075e+02        00000 
-1.20391e+02 -3.30103e+02        00000 
-1.05202e+02 -3.29371e+02        00000 
-9.04226e+01 -3.28861e+02        00000 
-7.57094e+01 -3.28432e+02        00000 
-6.10884e+01 -3.28149e+02        00000 
-4.69930e+01 -3.28065e+02        00000 
-3.27410e+01 -3.28035e+02        00000 
-1.84116e+01 -3.28155e+02        00000 
-3.58963e+00 -3.28454e+02        00000 
 1.15577e+01 -3.28853e+02        00000 
 2.65956e+01 -3.29340e+02        00000 
 4.17187e+01 -3.30027e+02        00000 
 5.65122e+01 -3.30848e+02        00000 
 7.12658e+01 -3.31783e+02        00000 
 8.59211e+01 -3.32881e+02        00000 
 1.00265e+02 -3.34104e+02        00000 
 1.14569e+02 -3.35400e+02        00000 
 1.29104e+02 -3.36857e+02        00000 
 1.43818e+02 -3.38534e+02        00000 
-3.77445e+02 -6.18782e+02        00000 
-3.56966e+02 -6.16145e+02        00000 
-3.36655e+02 -6.13797e+02        00000 
-3.16276e+02 -6.11578e+02        00000 
-2.95930e+02 -6.09530e+02        00000 
-2.75658e+02 -6.07680e+02        00000 
-2.55238e+02 -6.05938e+02        00000 
-2.34858e+02 -6.04329e+02        00000 
-2.14528e+02 -6.02951e+02        00000 
-1.94407e+02 -6.01764e+02        00000 
-1.74431e+02 -6.00656e+02        00000 
-1.54730e+02 -5.99708e+02        00000 
-1.35203e+02 -5.98880e+02        00000 
-1.15860e+02 -5.98143e+02        00000 
-9.65465e+01 -5.97523e+02        00000 
-7.74873e+01 -5.97071e+02        00000 
-5.83515e+01 -5.96782e+02        00000 
-3.93646e+01 -5.96684e+02        00000 
-2.00967e+01 -5.96804e+02        00000 
-7.27850e-01 -5.97015e+02        00000 
 1.87736e+01 -5.97315e+02        00000 
 3.84110e+01 -5.97749e+02        00000 
 5.82167e+01 -5.98169e+02        00000 
 7.81249e+01 -5.98714e+02        00000 
 9.81790e+01 -5.99431e+02        00000 
 1.18254e+02 -6.00197e+02        00000 
 1.38348e+02 -6.01099e+02        00000 
 1.58529e+02 -6.02237e+02        00000 
 1.78960e+02 -6.03550e+02        00000 
 1.99332e+02 -6.04924e+02        00000 
-4.67426e+02 -9.70336e+02        00000 
-4.42032e+02 -9.67707e+02        00000 
-4.16505e+02 -9.65175e+02        00000 
-3.91075e+02 -9.62780e+02        00000 
-3.65545e+02 -9.60548e+02        00000 
-3.40232e+02 -9.58490e+02        00000 
-3.15209e+02 -9.56532e+02        00000 
-2.90201e+02 -9.54762e+02        00000 
-2.65129e+02 -9.53018e+02        00000 
-2.40290e+02 -9.51347e+02        00000 
-2.15710e+02 -9.49829e+02        00000 
-1.91388e+02 -9.48392e+02        00000 
-1.67085e+02 -9.47131e+02        00000 
-1.42760e+02 -9.46117e+02        00000 
-1.18656e+02 -9.45277e+02        00000 
-9.45718e+01 -9.44577e+02        00000 
-7.01169e+01 -9.44153e+02        00000 
-4.57482e+01 -9.43874e+02        00000 
-2.17548e+01 -9.43733e+02        00000 
 1.80031e+00 -9.43804e+02        00000 
 2.51890e+01 -9.44099e+02        00000 
 4.85941e+01 -9.44446e+02        00000 
 7.21488e+01 -9.44930e+02        00000 
 9.57862e+01 -9.45533e+02        00000 
 1.19654e+02 -9.46232e+02        00000 
 1.43936e+02 -9.47118e+02        00000 
 1.68451e+02 -9.48073e+02        00000 
 1.93177e+02 -9.49092e+02        00000 
 2.17966e+02 -9.50197e+02        00000 
 2.42991e+02 -9.51540e+02        00000 
-5.55964e+02 -1.37797e+03        00000 
-5.26084e+02 -1.37528e+03        00000 
-4.96215e+02 -1.37273e+03        00000 
-4.66560e+02 -1.37030e+03        00000 
-4.37010e+02 -1.36800e+03        00000 
-4.07326e+02 -1.36588e+03        00000 
-3.77721e+02 -1.36394e+03        00000 
-3.48447e+02 -1.36211e+03        00000 
-3.19442e+02 -1.36039e+03        00000 
-2.90540e+02 -1.35881e+03        00000 
-2.61490e+02 -1.35738e+03        00000 
-2.32484e+02 -1.35606e+03        00000 
-2.03343e+02 -1.35493e+03        00000 
-1.74261e+02 -1.35394e+03        00000 
-1.44922e+02 -1.35302e+03        00000 
-1.15508e+02 -1.35223e+03        00000 
-8.63448e+01 -1.35146e+03        00000 
-5.70823e+01 -1.35080e+03        00000 
-2.81692e+01 -1.35028e+03        00000 
 7.50241e-01 -1.34982e+03        00000 
 2.93505e+01 -1.34952e+03        00000 
 5.77379e+01 -1.34949e+03        00000 
 8.62869e+01 -1.34963e+03        00000 
 1.15111e+02 -1.34999e+03        00000 
 1.44206e+02 -1.35066e+03        00000 
 1.73331e+02 -1.35144e+03        00000 
 2.02529e+02 -1.35240e+03        00000 
 2.32176e+02 -1.35352e+03        00000 
 2.61966e+02 -1.35478e+03        00000 
 2.91872e+02 -1.35626e+03        00000 
-6.55450e+02 -1.86289e+03        00000 
-6.19909e+02 -1.85997e+03        00000 
-5.84398e+02 -1.85723e+03        00000 
-5.49257e+02 -1.85475e+03        00000 
-5.14351e+02 -1.85240e+03        00000 
-4.79398e+02 -1.85026e+03        00000 
-4.44440e+02 -1.84815e+03        00000 
-4.09666e+02 -1.84620e+03        00000 
-3.75262e+02 -1.84454e+03        00000 
-3.41011e+02 -1.84314e+03        00000 
-3.06936e+02 -1.84183e+03        00000 
-2.72765e+02 -1.84072e+03        00000 
-2.38666e+02 -1.83974e+03        00000 
-2.04599e+02 -1.83884e+03        00000 
-1.70735e+02 -1.83807e+03        00000 
-1.37059e+02 -1.83732e+03        00000 
-1.03323e+02 -1.83672e+03        00000 
-6.96861e+01 -1.83627e+03        00000 
-3.58072e+01 -1.83590e+03        00000 
-1.83832e+00 -1.83572e+03        00000 
 3.22583e+01 -1.83570e+03        00000 
 6.66251e+01 -1.83578e+03        00000 
 1.01157e+02 -1.83611e+03        00000 
 1.35859e+02 -1.83659e+03        00000 
 1.70877e+02 -1.83720e+03        00000 
 2.05559e+02 -1.83802e+03        00000 
 2.40505e+02 -1.83890e+03        00000 
 2.75604e+02 -1.84000e+03        00000 
 3.11138e+02 -1.84133e+03        00000 
 3.46741e+02 -1.84265e+03        00000 
-7.52807e+02 -2.44359e+03        00000 
-7.12762e+02 -2.44086e+03        00000 
-6.72857e+02 -2.43823e+03        00000 
-6.32899e+02 -2.43565e+03        00000 
-5.93094e+02 -2.43321e+03        00000 
-5.53308e+02 -2.43091e+03        00000 
-5.13314e+02 -2.42875e+03        00000 
-4.73336e+02 -2.42672e+03        00000 
-4.33530e+02 -2.42475e+03        00000 
-3.93795e+02 -2.42293e+03        00000 
-3.54335e+02 -2.42126e+03        00000 
-3.14863e+02 -2.41968e+03        00000 
-2.75661e+02 -2.41823e+03        00000 
-2.36793e+02 -2.41689e+03        00000 
-1.98235e+02 -2.41579e+03        00000 
-1.59562e+02 -2.41474e+03        00000 
-1.20998e+02 -2.41381e+03        00000 
-8.24237e+01 -2.41303e+03        00000 
-4.36632e+01 -2.41242e+03        00000 
-4.92219e+00 -2.41189e+03        00000 
 3.39575e+01 -2.41157e+03        00000 
 7.28866e+01 -2.41135e+03        00000 
 1.12190e+02 -2.41120e+03        00000 
 1.51508e+02 -2.41136e+03        00000 
 1.90690e+02 -2.41163e+03        00000 
 2.29771e+02 -2.41203e+03        00000 
 2.68853e+02 -2.41263e+03        00000 
 3.08319e+02 -2.41328e+03        00000 
 3.47803e+02 -2.41409e+03        00000 
 3.87390e+02 -2.41510e+03        00000 
-8.38755e+02 -3.06489e+03        00000 
-7.95174e+02 -3.06241e+03        00000 
-7.51762e+02 -3.06000e+03        00000 
-7.08104e+02 -3.05773e+03        00000 
-6.64304e+02 -3.05556e+03        00000 
-6.20593e+02 -3.05353e+03        00000 
-5.76929e+02 -3.05161e+03        00000 
-5.33308e+02 -3.04982e+03        00000 
-4.89722e+02 -3.04805e+03        00000 
-4.45960e+02 -3.04653e+03        00000 
-4.01903e+02 -3.04518e+03        00000 
-3.58023e+02 -3.04392e+03        00000 
-3.14466e+02 -3.04278e+03        00000 
-2.71288e+02 -3.04181e+03        00000 
-2.27742e+02 -3.04091e+03        00000 
-1.84252e+02 -3.04023e+03        00000 
-1.40851e+02 -3.03978e+03        00000 
-9.75947e+01 -3.03932e+03        00000 
-5.42469e+01 -3.03907e+03        00000 
-1.05625e+01 -3.03898e+03        00000 
 3.30593e+01 -3.03899e+03        00000 
 7.65579e+01 -3.03925e+03        00000 
 1.19936e+02 -3.03972e+03        00000 
 1.63529e+02 -3.04019e+03        00000 
 2.07060e+02 -3.04078e+03        00000 
 2.50846e+02 -3.04152e+03        00000 
 2.94473e+02 -3.04229e+03        00000 
 3.37909e+02 -3.04332e+03        00000 
 3.81392e+02 -3.04452e+03        00000 
 4.25126e+02 -3.04579e+03        00000 
-9.25224e+02 -3.75235e+03        00000 
-8.76290e+02 -3.74979e+03        00000 
-8.27364e+02 -3.74757e+03        00000 
-7.78737e+02 -3.74544e+03        00000 
-7.30106e+02 -3.74343e+03        00000 
-6.81707e+02 -3.74153e+03        00000 
-6.33628e+02 -3.73979e+03        00000 
-5.85805e+02 -3.73823e+03        00000 
-5.37963e+02 -3.73682e+03        00000 
-4.90002e+02 -3.73547e+03        00000 
-4.41902e+02 -3.73438e+03        00000 
-3.93871e+02 -3.73350e+03        00000 
-3.45953e+02 -3.73278e+03        00000 
-2.97813e+02 -3.73229e+03        00000 
-2.49466e+02 -3.73192e+03        00000 
-2.01095e+02 -3.73168e+03        00000 
-1.52698e+02 -3.73157e+03        00000 
-1.04329e+02 -3.73160e+03        00000 
-5.60234e+01 -3.73175e+03        00000 
-7.34062e+00 -3.73196e+03        00000 
 4.15365e+01 -3.73227e+03        00000 
 9.05461e+01 -3.73268e+03        00000 
 1.39214e+02 -3.73315e+03        00000 
 1.87640e+02 -3.73377e+03        00000 
 2.36205e+02 -3.73451e+03        00000 
 2.85053e+02 -3.73532e+03        00000 
 3.33862e+02 -3.73634e+03        00000 
 3.82738e+02 -3.73757e+03        00000 
 4.31607e+02 -3.73892e+03        00000 
 4.80763e+02 -3.74066e+03        00000 
-1.00830e+03 -4.53498e+03        00000 
-9.54148e+02 -4.53279e+03        00000 
-9.00106e+02 -4.53069e+03        00000 
-8.46369e+02 -4.52879e+03        00000 
-7.92925e+02 -4.52701e+03        00000 
-7.39660e+02 -4.52544e+03        00000 
-6.86498e+02 -4.52400e+03        00000 
-6.33204e+02 -4.52282e+03        00000 
-5.79988e+02 -4.52178e+03        00000 
-5.26988e+02 -4.52096e+03        00000 
-4.74031e+02 -4.52030e+03        00000 
-4.20874e+02 -4.51966e+03        00000 
-3.67726e+02 -4.51918e+03        00000 
-3.14356e+02 -4.51872e+03        00000 
-2.61264e+02 -4.51830e+03        00000 
-2.08195e+02 -4.51805e+03        00000 
-1.55338e+02 -4.51792e+03        00000 
-1.02807e+02 -4.51774e+03        00000 
-5.00715e+01 -4.51773e+03        00000 
 2.53561e+00 -4.51784e+03        00000 
 5.52597e+01 -4.51799e+03        00000 
 1.08084e+02 -4.51826e+03        00000 
 1.61195e+02 -4.51872e+03        00000 
 2.14225e+02 -4.51938e+03        00000 
 2.67471e+02 -4.52024e+03        00000 
 3.20760e+02 -4.52125e+03        00000 
 3.74394e+02 -4.52240e+03        00000 
 4.28294e+02 -4.52364e+03        00000 
 4.82441e+02 -4.52494e+03        00000 
 5.36550e+02 -4.52630e+03        00000 
-1.08000e+03 -5.37401e+03        00000 
-1.02240e+03 -5.37179e+03        00000 
-9.65039e+02 -5.36964e+03        00000 
-9.07819e+02 -5.36766e+03        00000 
-8.50635e+02 -5.36578e+03        00000 
-7.93407e+02 -5.36404e+03        00000 
-7.35872e+02 -5.36242e+03        00000 
-6.78425e+02 -5.36094e+03        00000 
-6.21050e+02 -5.35957e+03        00000 
-5.64026e+02 -5.35834e+03        00000 
-5.06950e+02 -5.35722e+03        00000 
-4.49990e+02 -5.35618e+03        00000 
-3.92969e+02 -5.35533e+03        00000 
-3.36028e+02 -5.35454e+03        00000 
-2.79184e+02 -5.35385e+03        00000 
-2.22171e+02 -5.35321e+03        00000 
-1.65135e+02 -5.35277e+03        00000 
-1.08020e+02 -5.35251e+03        00000 
-5.09133e+01 -5.35233e+03        00000 
 6.21513e+00 -5.35233e+03        00000 
 6.32324e+01 -5.35245e+03        00000 
 1.20091e+02 -5.35273e+03        00000 
 1.77282e+02 -5.35311e+03        00000 
 2.34586e+02 -5.35361e+03        00000 
 2.91905e+02 -5.35424e+03        00000 
 3.48916e+02 -5.35502e+03        00000 
 4.05950e+02 -5.35593e+03        00000 
 4.63077e+02 -5.35702e+03        00000 
 5.20237e+02 -5.35819e+03        00000 
 5.77424e+02 -5.35939e+03        00000 
-1.16444e+03 -6.26786e+03        00000 
-1.10261e+03 -6.26522e+03        00000 
-1.04073e+03 -6.26276e+03        00000 
-9.79123e+02 -6.26042e+03        00000 
-9.17328e+02 -6.25815e+03        00000 
-8.55359e+02 -6.25611e+03        00000 
-7.93320e+02 -6.25410e+03        00000 
-7.31266e+02 -6.25220e+03        00000 
-6.69472e+02 -6.25046e+03        00000 
-6.07812e+02 -6.24885e+03        00000 
-5.46170e+02 -6.24739e+03        00000 
-4.84741e+02 -6.24616e+03        00000 
-4.23463e+02 -6.24507e+03        00000 
-3.62533e+02 -6.24409e+03        00000 
-3.01492e+02 -6.24330e+03        00000 
-2.40287e+02 -6.24258e+03        00000 
-1.78885e+02 -6.24193e+03        00000 
-1.17629e+02 -6.24142e+03        00000 
-5.63426e+01 -6.24103e+03        00000 
 4.96758e+00 -6.24069e+03        00000 
 6.61268e+01 -6.24060e+03        00000 
 1.27276e+02 -6.24070e+03        00000 
 1.88515e+02 -6.24090e+03        00000 
 2.50223e+02 -6.24126e+03        00000 
 3.11948e+02 -6.24172e+03        00000 
 3.73905e+02 -6.24229e+03        00000 
 4.35960e+02 -6.24298e+03        00000 
 4.97947e+02 -6.24376e+03        00000 
 5.59913e+02 -6.24473e+03        00000 
 6.21819e+02 -6.24594e+03        00000 
-1.24939e+03 -7.22861e+03        00000 
-1.18300e+03 -7.22631e+03        00000 
-1.11657e+03 -7.22412e+03        00000 
-1.05018e+03 -7.22209e+03        00000 
-9.84133e+02 -7.22016e+03        00000 
-9.18140e+02 -7.21818e+03        00000 
-8.52128e+02 -7.21636e+03        00000 
-7.85956e+02 -7.21469e+03        00000 
-7.19910e+02 -7.21307e+03        00000 
-6.54224e+02 -7.21174e+03        00000 
-5.88804e+02 -7.21061e+03        00000 
-5.23170e+02 -7.20955e+03        00000 
-4.57576e+02 -7.20875e+03        00000 
-3.92275e+02 -7.20811e+03        00000 
-3.27118e+02 -7.20761e+03        00000 
-2.61774e+02 -7.20722e+03        00000 
-1.96407e+02 -7.20696e+03        00000 
-1.30820e+02 -7.20671e+03        00000 
-6.48785e+01 -7.20662e+03        00000 
 9.23352e-01 -7.20660e+03        00000 
 6.64971e+01 -7.20664e+03        00000 
 1.31890e+02 -7.20672e+03        00000 
 1.97509e+02 -7.20691e+03        00000 
 2.63478e+02 -7.20725e+03        00000 
 3.29197e+02 -7.20767e+03        00000 
 3.94879e+02 -7.20816e+03        00000 
 4.60699e+02 -7.20865e+03        00000 
 5.26717e+02 -7.20928e+03        00000 
 5.93044e+02 -7.21001e+03        00000 
 6.59537e+02 -7.21092e+03        00000 
-1.32347e+03 -8.24923e+03        00000 
-1.25362e+03 -8.24714e+03        00000 
-1.18374e+03 -8.24537e+03        00000 
-1.11390e+03 -8.24365e+03        00000 
-1.04440e+03 -8.24207e+03        00000 
-9.75157e+02 -8.24067e+03        00000 
-9.05677e+02 -8.23927e+03        00000 
-8.36068e+02 -8.23809e+03        00000 
-7.66629e+02 -8.23706e+03        00000 
-6.97201e+02 -8.23611e+03        00000 
-6.28072e+02 -8.23529e+03        00000 
-5.58483e+02 -8.23464e+03        00000 
-4.88705e+02 -8.23410e+03        00000 
-4.18968e+02 -8.23370e+03        00000 
-3.49500e+02 -8.23338e+03        00000 
-2.80418e+02 -8.23304e+03        00000 
-2.11101e+02 -8.23279e+03        00000 
-1.41591e+02 -8.23264e+03        00000 
-7.21211e+01 -8.23262e+03        00000 
-2.89544e+00 -8.23260e+03        00000 
 6.59938e+01 -8.23259e+03        00000 
 1.35263e+02 -8.23266e+03        00000 
 2.04813e+02 -8.23274e+03        00000 
 2.74510e+02 -8.23284e+03        00000 
 3.44201e+02 -8.23306e+03        00000 
 4.13642e+02 -8.23344e+03        00000 
 4.83222e+02 -8.23392e+03        00000 
 5.53271e+02 -8.23454e+03        00000 
 6.23378e+02 -8.23532e+03        00000 
 6.93563e+02 -8.23618e+03        00000 
-1.38744e+03 -9.31780e+03        00000 
-1.31463e+03 -9.31587e+03        00000 
-1.24157e+03 -9.31402e+03        00000 
-1.16836e+03 -9.31232e+03        00000 
-1.09504e+03 -9.31065e+03        00000 
-1.02171e+03 -9.30912e+03        00000 
-9.48462e+02 -9.30775e+03        00000 
-8.75147e+02 -9.30652e+03        00000 
-8.02165e+02 -9.30538e+03        00000 
-7.29353e+02 -9.30449e+03        00000 
-6.56462e+02 -9.30367e+03        00000 
-5.83611e+02 -9.30291e+03        00000 
-5.11074e+02 -9.30243e+03        00000 
-4.38431e+02 -9.30201e+03        00000 
-3.66015e+02 -9.30179e+03        00000 
-2.93411e+02 -9.30179e+03        00000 
-2.20960e+02 -9.30190e+03        00000 