<?xml version="1.0" encoding="utf-8"?>
<VTKFile byte_order="LittleEndian" type="UnstructuredGrid" version="0.1">
   <UnstructuredGrid>
      <Piece NumberOfCells="3364" NumberOfPoints="1741">
         <Points>
            <DataArray Name="Points" NumberOfComponents="3" format="ascii" type="Float32">
0.0000 0.0000 0.0000
0.0000 0.0690 0.0000
0.0000 0.1379 0.0000
0.0000 0.2069 0.0000
0.0000 0.2759 0.0000
0.0000 0.3448 0.0000
0.0000 0.4138 0.0000
0.0000 0.4828 0.0000
0.0000 0.5517 0.0000
0.0000 0.6207 0.0000
0.0000 0.6897 0.0000
0.0000 0.7586 0.0000
0.0000 0.8276 0.0000
0.0000 0.8966 0.0000
0.0000 0.9655 0.0000
0.0000 1.0345 0.0000
0.0000 1.1034 0.0000
0.0000 1.1724 0.0000
0.0000 1.2414 0.0000
0.0000 1.3103 0.0000
0.0000 1.3793 0.0000
0.0000 1.4483 0.0000
0.0000 1.5172 0.0000
0.0000 1.5862 0.0000
0.0000 1.6552 0.0000
0.0000 1.7241 0.0000
0.0000 1.7931 0.0000
0.0000 1.8621 0.0000
0.0000 1.9310 0.0000
0.0000 2.0000 0.0000
1.0345 0.0000 0.0000
1.0345 0.0690 0.0000
1.0345 0.1379 0.0000
1.0345 0.2069 0.0000
1.0345 0.2759 0.0000
1.0345 0.3448 0.0000
1.0345 0.4138 0.0000
1.0345 0.4828 0.0000
1.0345 0.5517 0.0000
1.0345 0.6207 0.0000
1.0345 0.6897 0.0000
1.0345 0.7586 0.0000
1.0345 0.8276 0.0000
1.0345 0.8966 0.0000
1.0345 0.9655 0.0000
1.0345 1.0345 0.0000
1.0345 1.1034 0.0000
1.0345 1.1724 0.0000
1.0345 1.2414 0.0000
1.0345 1.3103 0.0000
1.0345 1.3793 0.0000
1.0345 1.4483 0.0000
1.0345 1.5172 0.0000
1.0345 1.5862 0.0000
1.0345 1.6552 0.0000
1.0345 1.7241 0.0000
1.0345 1.7931 0.0000
1.0345 1.8621 0.0000
1.0345 1.9310 0.0000
1.0345 2.0000 0.0000
2.0690 0.0000 0.0000
2.0690 0.0690 0.0000
2.0690 0.1379 0.0000
2.0690 0.2069 0.0000
2.0690 0.2759 0.0000
2.0690 0.3448 0.0000
2.0690 0.4138 0.0000
2.0690 0.4828 0.0000
2.0690 0.5517 0.0000
2.0690 0.6207 0.0000
2.0690 0.6897 0.0000
2.0690 0.7586 0.0000
2.0690 0.8276 0.0000
2.0690 0.8966 0.0000
2.0690 0.9655 0.0000
2.0690 1.0345 0.0000
2.0690 1.1034 0.0000
2.0690 1.1724 0.0000
2.0690 1.2414 0.0000
2.0690 1.3103 0.0000
2.0690 1.3793 0.0000
2.0690 1.4483 0.0000
2.0690 1.5172 0.0000
2.0690 1.5862 0.0000
2.0690 1.6552 0.0000
2.0690 1.7241 0.0000
2.0690 1.7931 0.0000
2.0690 1.8621 0.0000
2.0690 1.9310 0.0000
2.0690 2.0000 0.0000
3.1034 0.0000 0.0000
3.1034 0.0690 0.0000
3.1034 0.1379 0.0000
3.1034 0.2069 0.0000
3.1034 0.2759 0.0000
3.1034 0.3448 0.0000
3.1034 0.4138 0.0000
3.1034 0.4828 0.0000
3.1034 0.5517 0.0000
3.1034 0.6207 0.0000
3.1034 0.6897 0.0000
3.1034 0.7586 0.0000
3.1034 0.8276 0.0000
3.1034 0.8966 0.0000
3.1034 0.9655 0.0000
3.1034 1.0345 0.0000
3.1034 1.1034 0.0000
3.1034 1.1724 0.0000
3.1034 1.2414 0.0000
3.1034 1.3103 0.0000
3.1034 1.3793 0.0000
3.1034 1.4483 0.0000
3.1034 1.5172 0.0000
3.1034 1.5862 0.0000
3.1034 1.6552 0.0000
3.1034 1.7241 0.0000
3.1034 1.7931 0.0000
3.1034 1.8621 0.0000
3.1034 1.9310 0.0000
3.1034 2.0000 0.0000
4.1379 0.0000 0.0000
4.1379 0.0690 0.0000
4.1379 0.1379 0.0000
4.1379 0.2069 0.0000
4.1379 0.2759 0.0000
4.1379 0.3448 0.0000
4.1379 0.4138 0.0000
4.1379 0.4828 0.0000
4.1379 0.5517 0.0000
4.1379 0.6207 0.0000
4.1379 0.6897 0.0000
4.1379 0.7586 0.0000
4.1379 0.8276 0.0000
4.1379 0.8966 0.0000
4.1379 0.9655 0.0000
4.1379 1.0345 0.0000
4.1379 1.1034 0.0000
4.1379 1.1724 0.0000
4.1379 1.2414 0.0000
4.1379 1.3103 0.0000
4.1379 1.3793 0.0000
4.1379 1.4483 0.0000
4.1379 1.5172 0.0000
4.1379 1.5862 0.0000
4.1379 1.6552 0.0000
4.1379 1.7241 0.0000
4.1379 1.7931 0.0000
4.1379 1.8621 0.0000
4.1379 1.9310 0.0000
4.1379 2.0000 0.0000
5.1724 0.0000 0.0000
5.1724 0.0690 0.0000
5.1724 0.1379 0.0000
5.1724 0.2069 0.0000
5.1724 0.2759 0.0000
5.1724 0.3448 0.0000
5.1724 0.4138 0.0000
5.1724 0.4828 0.0000
5.1724 0.5517 0.0000
5.1724 0.6207 0.0000
5.1724 0.6897 0.0000
5.1724 0.7586 0.0000
5.1724 0.8276 0.0000
5.1724 0.8966 0.0000
5.1724 0.9655 0.0000
5.1724 1.0345 0.0000
5.1724 1.1034 0.0000
5.1724 1.1724 0.0000
5.1724 1.2414 0.0000
5.1724 1.3103 0.0000
5.1724 1.3793 0.0000
5.1724 1.4483 0.0000
5.1724 1.5172 0.0000
5.1724 1.5862 0.0000
5.1724 1.6552 0.0000
5.1724 1.7241 0.0000
5.1724 1.7931 0.0000
5.1724 1.8621 0.0000
5.1724 1.9310 0.0000
5.1724 2.0000 0.0000
6.2069 0.0000 0.0000
6.2069 0.0690 0.0000
6.2069 0.1379 0.0000
6.2069 0.2069 0.0000
6.2069 0.2759 0.0000
6.2069 0.3448 0.0000
6.2069 0.4138 0.0000
6.2069 0.4828 0.0000
6.2069 0.5517 0.0000
6.2069 0.6207 0.0000
6.2069 0.6897 0.0000
6.2069 0.7586 0.0000
6.2069 0.8276 0.0000
6.2069 0.8966 0.0000
6.2069 0.9655 0.0000
6.2069 1.0345 0.0000
6.2069 1.1034 0.0000
6.2069 1.1724 0.0000
6.2069 1.2414 0.0000
6.2069 1.3103 0.0000
6.2069 1.3793 0.0000
6.2069 1.4483 0.0000
6.2069 1.5172 0.0000
6.2069 1.5862 0.0000
6.2069 1.6552 0.0000
6.2069 1.7241 0.0000
6.2069 1.7931 0.0000
6.2069 1.8621 0.0000
6.2069 1.9310 0.0000
6.2069 2.0000 0.0000
7.2414 0.0000 0.0000
7.2414 0.0690 0.0000
7.2414 0.1379 0.0000
7.2414 0.2069 0.0000
7.2414 0.2759 0.0000
7.2414 0.3448 0.0000
7.2414 0.4138 0.0000
7.2414 0.4828 0.0000
7.2414 0.5517 0.0000
7.2414 0.6207 0.0000
7.2414 0.6897 0.0000
7.2414 0.7586 0.0000
7.2414 0.8276 0.0000
7.2414 0.8966 0.0000
7.2414 0.9655 0.0000
7.2414 1.0345 0.0000
7.2414 1.1034 0.0000
7.2414 1.1724 0.0000
7.2414 1.2414 0.0000
7.2414 1.3103 0.0000
7.2414 1.3793 0.0000
7.2414 1.4483 0.0000
7.2414 1.5172 0.0000
7.2414 1.5862 0.0000
7.2414 1.6552 0.0000
7.2414 1.7241 0.0000
7.2414 1.7931 0.0000
7.2414 1.8621 0.0000
7.2414 1.9310 0.0000
7.2414 2.0000 0.0000
8.2759 0.0000 0.0000
8.2759 0.0690 0.0000
8.2759 0.1379 0.0000
8.2759 0.2069 0.0000
8.2759 0.2759 0.0000
8.2759 0.3448 0.0000
8.2759 0.4138 0.0000
8.2759 0.4828 0.0000
8.2759 0.5517 0.0000
8.2759 0.6207 0.0000
8.2759 0.6897 0.0000
8.2759 0.7586 0.0000
8.2759 0.8276 0.0000
8.2759 0.8966 0.0000
8.2759 0.9655 0.0000
8.2759 1.0345 0.0000
8.2759 1.1034 0.0000
8.2759 1.1724 0.0000
8.2759 1.2414 0.0000
8.2759 1.3103 0.0000
8.2759 1.3793 0.0000
8.2759 1.4483 0.0000
8.2759 1.5172 0.0000
8.2759 1.5862 0.0000
8.2759 1.6552 0.0000
8.2759 1.7241 0.0000
8.2759 1.7931 0.0000
8.2759 1.8621 0.0000
8.2759 1.9310 0.0000
8.2759 2.0000 0.0000
9.3103 0.0000 0.0000
9.3103 0.0690 0.0000
9.3103 0.1379 0.0000
9.3103 0.2069 0.0000
9.3103 0.2759 0.0000
9.3103 0.3448 0.0000
9.3103 0.4138 0.0000
9.3103 0.4828 0.0000
9.3103 0.5517 0.0000
9.3103 0.6207 0.0000
9.3103 0.6897 0.0000
9.3103 0.7586 0.0000
9.3103 0.8276 0.0000
9.3103 0.8966 0.0000
9.3103 0.9655 0.0000
9.3103 1.0345 0.0000
9.3103 1.1034 0.0000
9.3103 1.1724 0.0000
9.3103 1.2414 0.0000
9.3103 1.3103 0.0000
9.3103 1.3793 0.0000
9.3103 1.4483 0.0000
9.3103 1.5172 0.0000
9.3103 1.5862 0.0000
9.3103 1.6552 0.0000
9.3103 1.7241 0.0000
9.3103 1.7931 0.0000
9.3103 1.8621 0.0000
9.3103 1.9310 0.0000
9.3103 2.0000 0.0000
10.3448 0.0000 0.0000
10.3448 0.0690 0.0000
10.3448 0.1379 0.0000
10.3448 0.2069 0.0000
10.3448 0.2759 0.0000
10.3448 0.3448 0.0000
10.3448 0.4138 0.0000
10.3448 0.4828 0.0000
10.3448 0.5517 0.0000
10.3448 0.6207 0.0000
10.3448 0.6897 0.0000
10.3448 0.7586 0.0000
10.3448 0.8276 0.0000
10.3448 0.8966 0.0000
10.3448 0.9655 0.0000
10.3448 1.0345 0.0000
10.3448 1.1034 0.0000
10.3448 1.1724 0.0000
10.3448 1.2414 0.0000
10.3448 1.3103 0.0000
10.3448 1.3793 0.0000
10.3448 1.4483 0.0000
10.3448 1.5172 0.0000
10.3448 1.5862 0.0000
10.3448 1.6552 0.0000
10.3448 1.7241 0.0000
10.3448 1.7931 0.0000
10.3448 1.8621 0.0000
10.3448 1.9310 0.0000
10.3448 2.0000 0.0000
11.3793 0.0000 0.0000
11.3793 0.0690 0.0000
11.3793 0.1379 0.0000
11.3793 0.2069 0.0000
11.3793 0.2759 0.0000
11.3793 0.3448 0.0000
11.3793 0.4138 0.0000
11.3793 0.4828 0.0000
11.3793 0.5517 0.0000
11.3793 0.6207 0.0000
11.3793 0.6897 0.0000
11.3793 0.7586 0.0000
11.3793 0.8276 0.0000
11.3793 0.8966 0.0000
11.3793 0.9655 0.0000
11.3793 1.0345 0.0000
11.3793 1.1034 0.0000
11.3793 1.1724 0.0000
11.3793 1.2414 0.0000
11.3793 1.3103 0.0000
11.3793 1.3793 0.0000
11.3793 1.4483 0.0000
11.3793 1.5172 0.0000
11.3793 1.5862 0.0000
11.3793 1.6552 0.0000
11.3793 1.7241 0.0000
11.3793 1.7931 0.0000
11.3793 1.8621 0.0000
11.3793 1.9310 0.0000
11.3793 2.0000 0.0000
12.4138 0.0000 0.0000
12.4138 0.0690 0.0000
12.4138 0.1379 0.0000
12.4138 0.2069 0.0000
12.4138 0.2759 0.0000
12.4138 0.3448 0.0000
12.4138 0.4138 0.0000
12.4138 0.4828 0.0000
12.4138 0.5517 0.0000
12.4138 0.6207 0.0000
12.4138 0.6897 0.0000
12.4138 0.7586 0.0000
12.4138 0.8276 0.0000
12.4138 0.8966 0.0000
12.4138 0.9655 0.0000
12.4138 1.0345 0.0000
12.4138 1.1034 0.0000
12.4138 1.1724 0.0000
12.4138 1.2414 0.0000
12.4138 1.3103 0.0000
12.4138 1.3793 0.0000
12.4138 1.4483 0.0000
12.4138 1.5172 0.0000
12.4138 1.5862 0.0000
12.4138 1.6552 0.0000
12.4138 1.7241 0.0000
12.4138 1.7931 0.0000
12.4138 1.8621 0.0000
12.4138 1.9310 0.0000
12.4138 2.0000 0.0000
13.4483 0.0000 0.0000
13.4483 0.0690 0.0000
13.4483 0.1379 0.0000
13.4483 0.2069 0.0000
13.4483 0.2759 0.0000
13.4483 0.3448 0.0000
13.4483 0.4138 0.0000
13.4483 0.4828 0.0000
13.4483 0.5517 0.0000
13.4483 0.6207 0.0000
13.4483 0.6897 0.0000
13.4483 0.7586 0.0000
13.4483 0.8276 0.0000
13.4483 0.8966 0.0000
13.4483 0.9655 0.0000
13.4483 1.0345 0.0000
13.4483 1.1034 0.0000
13.4483 1.1724 0.0000
13.4483 1.2414 0.0000
13.4483 1.3103 0.0000
13.4483 1.3793 0.0000
13.4483 1.4483 0.0000
13.4483 1.5172 0.0000
13.4483 1.5862 0.0000
13.4483 1.6552 0.0000
13.4483 1.7241 0.0000
13.4483 1.7931 0.0000
13.4483 1.8621 0.0000
13.4483 1.9310 0.0000
13.4483 2.0000 0.0000
14.4828 0.0000 0.0000
14.4828 0.0690 0.0000
14.4828 0.1379 0.0000
14.4828 0.2069 0.0000
14.4828 0.2759 0.0000
14.4828 0.3448 0.0000
14.4828 0.4138 0.0000
14.4828 0.4828 0.0000
14.4828 0.5517 0.0000
14.4828 0.6207 0.0000
14.4828 0.6897 0.0000
14.4828 0.7586 0.0000
14.4828 0.8276 0.0000
14.4828 0.8966 0.0000
14.4828 0.9655 0.0000
14.4828 1.0345 0.0000
14.4828 1.1034 0.0000
14.4828 1.1724 0.0000
14.4828 1.2414 0.0000
14.4828 1.3103 0.0000
14.4828 1.3793 0.0000
14.4828 1.4483 0.0000
14.4828 1.5172 0.0000
14.4828 1.5862 0.0000
14.4828 1.6552 0.0000
14.4828 1.7241 0.0000
14.4828 1.7931 0.0000
14.4828 1.8621 0.0000
14.4828 1.9310 0.0000
14.4828 2.0000 0.0000
15.5172 0.0000 0.0000
15.5172 0.0690 0.0000
15.5172 0.1379 0.0000
15.5172 0.2069 0.0000
[...]
         <PointData>
            <DataArray Name="fValues" NumberOfComponents="3" format="ascii" type="Float64">
-7.96085e-15  1.02902e-14        00000 
 8.80547e-15 -6.60410e-15        00000 
-2.17688e-15  1.08844e-14        00000 
 1.27865e-14 -1.06668e-14        00000 
 2.72110e-15  1.30613e-14        00000 
-7.03375e-15 -1.67277e-14        00000 
-1.63266e-15  1.25171e-14        00000 
-6.83772e-15 -1.08720e-14        00000 
-7.07486e-15  3.26532e-15        00000 
-3.45051e-15 -2.29033e-15        00000 
 1.63266e-15  1.63266e-15        00000 
-6.80353e-15 -3.41886e-16        00000 
 4.62587e-15 -2.72110e-15        00000 
-6.48421e-15 -6.68693e-16        00000 
 1.08844e-15  3.26532e-15        00000 
-3.76075e-16  1.81200e-15        00000 
 2.04082e-15  2.99321e-15        00000 
 7.00852e-16  8.93188e-16        00000 
       00000  2.44899e-15        00000 
 2.52141e-16 -2.87184e-15        00000 
-1.15647e-15  7.07486e-15        00000 
 1.09580e-15 -4.18837e-15        00000 
-6.80275e-16  5.17009e-15        00000 
 1.82054e-15 -9.60700e-15        00000 
-1.63266e-15  3.26532e-15        00000 
 5.85250e-15 -4.70183e-15        00000 
-8.97962e-15  5.44220e-15        00000 
 7.80954e-15 -6.64496e-15        00000 
 2.88166e-15  1.50944e-15        00000 
 7.19455e-16 -1.04564e-14        00000 
-9.35052e+01 -6.05626e+01        00000 
-8.79139e+01 -5.73885e+01        00000 
-8.26767e+01 -5.44045e+01        00000 
-7.77114e+01 -5.17439e+01        00000 
-7.26557e+01 -4.93223e+01        00000 
-6.77900e+01 -4.70791e+01        00000 
-6.31300e+01 -4.49370e+01        00000 
-5.85236e+01 -4.30305e+01        00000 
-5.41305e+01 -4.12244e+01        00000 
-4.97574e+01 -3.96626e+01        00000 
-4.50228e+01 -3.82665e+01        00000 
-4.02873e+01 -3.68936e+01        00000 
-3.54440e+01 -3.56141e+01        00000 
-3.08805e+01 -3.44461e+01        00000 
-2.62316e+01 -3.34845e+01        00000 
-2.12203e+01 -3.27239e+01        00000 
-1.62479e+01 -3.21835e+01        00000 
-1.12726e+01 -3.18165e+01        00000 
-6.29932e+00 -3.15944e+01        00000 
-1.72346e+00 -3.15012e+01        00000 
 2.65546e+00 -3.15875e+01        00000 
 7.26991e+00 -3.18742e+01        00000 
 1.14882e+01 -3.23304e+01        00000 
 1.55547e+01 -3.29740e+01        00000 
 1.97758e+01 -3.38204e+01        00000 
 2.42416e+01 -3.47994e+01        00000 
 2.85469e+01 -3.58574e+01        00000 
 3.31568e+01 -3.70929e+01        00000 
 3.82422e+01 -3.84237e+01        00000 
 4.32324e+01 -3.99131e+01        00000 
-1.86651e+02 -1.65601e+02        00000 
-1.77496e+02 -1.62868e+02        00000 
-1.68118e+02 -1.60348e+02        00000 
-1.58814e+02 -1.57845e+02        00000 
-1.49748e+02 -1.55652e+02        00000 
-1.40500e+02 -1.53532e+02        00000 
-1.31241e+02 -1.51641e+02        00000 
-1.22021e+02 -1.50022e+02        00000 
-1.12687e+02 -1.48510e+02        00000 
-1.03391e+02 -1.47301e+02        00000 
-9.34884e+01 -1.46342e+02        00000 
-8.36683e+01 -1.45497e+02        00000 
-7.38467e+01 -1.44851e+02        00000 
-6.40087e+01 -1.44447e+02        00000 
-5.40419e+01 -1.44175e+02        00000 
-4.44420e+01 -1.44016e+02        00000 
-3.49707e+01 -1.43889e+02        00000 
-2.52083e+01 -1.43795e+02        00000 
-1.54308e+01 -1.43843e+02        00000 
-5.46689e+00 -1.43978e+02        00000 
 4.38306e+00 -1.44281e+02        00000 
 1.38994e+01 -1.44709e+02        00000 
 2.36845e+01 -1.45225e+02        00000 
 3.31342e+01 -1.45826e+02        00000 
 4.25014e+01 -1.46530e+02        00000 
 5.19791e+01 -1.47430e+02        00000 
 6.14209e+01 -1.48510e+02        00000 
 7.08064e+01 -1.49646e+02        00000 
 8.01443e+01 -1.50881e+02        00000 
 8.97926e+01 -1.52295e+02        00000 
-2.84503e+02 -3.47937e+02        00000 
-2.69675e+02 -3.45232e+02        00000 
-2.54994e+02 -3.42628e+02        00000 
-2.40250e+02 -3.40076e+02        00000 
-2.25431e+02 -3.37738e+02        00000 
-2.10737e+02 -3.35737e+02        00000 
-1.95799e+02 -3.33839e+02        00000 
-1.80479e+02 -3.32093e+02        00000 
-1.65176e+02 -3.30773e+02        00000 
-1.49846e+02 -3.29559e+02        00000 
-1.34464e+02 -3.28436e+02        00000 
-1.19117e+02 -3.27628e+02        00000 
-1.04392e+02 -3.26995e+02        00000 
-8.94702e+01 -3.26467e+02        00000 
-7.48644e+01 -3.26012e+02        00000 
-6.07979e+01 -3.25696e+02        00000 
-4.70259e+01 -3.25557e+02        00000 
-3.28327e+01 -3.25510e+02        00000 
-1.84316e+01 -3.25593e+02        00000 
-3.69917e+00 -3.25788e+02        00000 
 1.09435e+01 -3.26178e+02        00000 
 2.59508e+01 -3.26731e+02        00000 
 4.10419e+01 -3.27391e+02        00000 
 5.57350e+01 -3.28269e+02        00000 
 7.03234e+01 -3.29299e+02        00000 
 8.48834e+01 -3.30350e+02        00000 
 9.90219e+01 -3.31431e+02        00000 
 1.13057e+02 -3.32758e+02        00000 
 1.27228e+02 -3.34196e+02        00000 
 1.41508e+02 -3.35751e+02        00000 
-3.74583e+02 -6.14230e+02        00000 
-3.54371e+02 -6.11733e+02        00000 
-3.34142e+02 -6.09235e+02        00000 
-3.13932e+02 -6.07082e+02        00000 
-2.93804e+02 -6.05030e+02        00000 
-2.73316e+02 -6.03228e+02        00000 
-2.53024e+02 -6.01532e+02        00000 
-2.32994e+02 -5.99967e+02        00000 
-2.12799e+02 -5.98520e+02        00000 
-1.92547e+02 -5.97268e+02        00000 
-1.72872e+02 -5.96253e+02        00000 
-1.53159e+02 -5.95294e+02        00000 
-1.33582e+02 -5.94408e+02        00000 
-1.14547e+02 -5.93595e+02        00000 
-9.58085e+01 -5.92959e+02        00000 
-7.68693e+01 -5.92449e+02        00000 
-5.78387e+01 -5.92206e+02        00000 
-3.89923e+01 -5.92148e+02        00000 
-2.00696e+01 -5.92171e+02        00000 
-9.05149e-01 -5.92377e+02        00000 
 1.84458e+01 -5.92701e+02        00000 
 3.80087e+01 -5.93015e+02        00000 
 5.73714e+01 -5.93429e+02        00000 
 7.74567e+01 -5.93971e+02        00000 
 9.74603e+01 -5.94578e+02        00000 
 1.17124e+02 -5.95379e+02        00000 
 1.37006e+02 -5.96427e+02        00000 
 1.56999e+02 -5.97539e+02        00000 
 1.77040e+02 -5.98833e+02        00000 
 1.97628e+02 -6.00332e+02        00000 
-4.64027e+02 -9.63192e+02        00000 
-4.38757e+02 -9.60697e+02        00000 
-4.13549e+02 -9.58148e+02        00000 
-3.88093e+02 -9.55768e+02        00000 
-3.62852e+02 -9.53609e+02        00000 
-3.37670e+02 -9.51627e+02        00000 
-3.12622e+02 -9.49825e+02        00000 
-2.87721e+02 -9.48052e+02        00000 
-2.63013e+02 -9.46311e+02        00000 
-2.38845e+02 -9.44719e+02        00000 
-2.14476e+02 -9.43126e+02        00000 
-1.90341e+02 -9.41601e+02        00000 
-1.66206e+02 -9.40335e+02        00000 
-1.42110e+02 -9.39276e+02        00000 
-1.18116e+02 -9.38494e+02        00000 
-9.39717e+01 -9.37931e+02        00000 
-6.97295e+01 -9.37471e+02        00000 
-4.58888e+01 -9.37193e+02        00000 
-2.23411e+01 -9.37074e+02        00000 
 1.31733e+00 -9.37138e+02        00000 
 2.47048e+01 -9.37355e+02        00000 
 4.78678e+01 -9.37759e+02        00000 
 7.11713e+01 -9.38235e+02        00000 
 9.45542e+01 -9.38846e+02        00000 
 1.18362e+02 -9.39613e+02        00000 
 1.42747e+02 -9.40418e+02        00000 
 1.67159e+02 -9.41333e+02        00000 
 1.91721e+02 -9.42328e+02        00000 
 2.16592e+02 -9.43527e+02        00000 
 2.41691e+02 -9.44759e+02        00000 
-5.52170e+02 -1.36789e+03        00000 
-5.22744e+02 -1.36510e+03        00000 
-4.93121e+02 -1.36259e+03        00000 
-4.63130e+02 -1.36011e+03        00000 
-4.33543e+02 -1.35787e+03        00000 
-4.04362e+02 -1.35576e+03        00000 
-3.75034e+02 -1.35380e+03        00000 
-3.45982e+02 -1.35207e+03        00000 
-3.17061e+02 -1.35040e+03        00000 
-2.88158e+02 -1.34887e+03        00000 
-2.59661e+02 -1.34752e+03        00000 
-2.31099e+02 -1.34631e+03        00000 
-2.02278e+02 -1.34513e+03        00000 
-1.73021e+02 -1.34410e+03        00000 
-1.43882e+02 -1.34322e+03        00000 
-1.14821e+02 -1.34247e+03        00000 
-8.56401e+01 -1.34188e+03        00000 
-5.66140e+01 -1.34127e+03        00000 
-2.78717e+01 -1.34076e+03        00000 
 6.58158e-01 -1.34039e+03        00000 
 2.89681e+01 -1.34020e+03        00000 
 5.71785e+01 -1.34023e+03        00000 
 8.55376e+01 -1.34051e+03        00000 
 1.13931e+02 -1.34094e+03        00000 
 1.42379e+02 -1.34153e+03        00000 
 1.71601e+02 -1.34235e+03        00000 
 2.01081e+02 -1.34316e+03        00000 
 2.30615e+02 -1.34417e+03        00000 
 2.60079e+02 -1.34532e+03        00000 
 2.89575e+02 -1.34675e+03        00000 
-6.50618e+02 -1.84979e+03        00000 
-6.15260e+02 -1.84696e+03        00000 
-5.80115e+02 -1.84442e+03        00000 
-5.45230e+02 -1.84193e+03        00000 
-5.10263e+02 -1.83954e+03        00000 
-4.75556e+02 -1.83727e+03        00000 
-4.41233e+02 -1.83517e+03        00000 
-4.06896e+02 -1.83333e+03        00000 
-3.72440e+02 -1.83171e+03        00000 
-3.38554e+02 -1.83026e+03        00000 
-3.04593e+02 -1.82897e+03        00000 
-2.70688e+02 -1.82782e+03        00000 
-2.37010e+02 -1.82683e+03        00000 
-2.03580e+02 -1.82595e+03        00000 
-1.70082e+02 -1.82510e+03        00000 
-1.36601e+02 -1.82434e+03        00000 
-1.03123e+02 -1.82365e+03        00000 
-6.96530e+01 -1.82304e+03        00000 
-3.58798e+01 -1.82276e+03        00000 
-2.48192e+00 -1.82250e+03        00000 
 3.13269e+01 -1.82243e+03        00000 
 6.57613e+01 -1.82254e+03        00000 
 9.98362e+01 -1.82275e+03        00000 
 1.34623e+02 -1.82317e+03        00000 
 1.69311e+02 -1.82377e+03        00000 
 2.03685e+02 -1.82452e+03        00000 
 2.38676e+02 -1.82549e+03        00000 
 2.73701e+02 -1.82663e+03        00000 
 3.08857e+02 -1.82784e+03        00000 
 3.44193e+02 -1.82940e+03        00000 
-7.48380e+02 -2.42774e+03        00000 
-7.08372e+02 -2.42499e+03        00000 
-6.68785e+02 -2.42231e+03        00000 
-6.29371e+02 -2.41986e+03        00000 
-5.89847e+02 -2.41735e+03        00000 
-5.50190e+02 -2.41506e+03        00000 
-5.10286e+02 -2.41284e+03        00000 
-4.70694e+02 -2.41077e+03        00000 
-4.31281e+02 -2.40878e+03        00000 
-3.91742e+02 -2.40691e+03        00000 
-3.52237e+02 -2.40515e+03        00000 
-3.13116e+02 -2.40350e+03        00000 
-2.74125e+02 -2.40206e+03        00000 
-2.35633e+02 -2.40072e+03        00000 
-1.97115e+02 -2.39959e+03        00000 
-1.58935e+02 -2.39872e+03        00000 
-1.20845e+02 -2.39797e+03        00000 
-8.24701e+01 -2.39720e+03        00000 
-4.40039e+01 -2.39652e+03        00000 
-5.49446e+00 -2.39604e+03        00000 
 3.32269e+01 -2.39573e+03        00000 
 7.21138e+01 -2.39555e+03        00000 
 1.11217e+02 -2.39553e+03        00000 
 1.50200e+02 -2.39568e+03        00000 
 1.89257e+02 -2.39600e+03        00000 
 2.28178e+02 -2.39640e+03        00000 
 2.67155e+02 -2.39693e+03        00000 
 3.06142e+02 -2.39760e+03        00000 
 3.45397e+02 -2.39844e+03        00000 
 3.84867e+02 -2.39938e+03        00000 
-8.33760e+02 -3.04492e+03        00000 
-7.90580e+02 -3.04241e+03        00000 
-7.47595e+02 -3.04000e+03        00000 
-7.04434e+02 -3.03779e+03        00000 
-6.60937e+02 -3.03576e+03        00000 
-6.17570e+02 -3.03377e+03        00000 
-5.74205e+02 -3.03196e+03        00000 
-5.30718e+02 -3.03015e+03        00000 
-4.87140e+02 -3.02831e+03        00000 
-4.43743e+02 -3.02668e+03        00000 
-4.00349e+02 -3.02534e+03        00000 
-3.56828e+02 -3.02410e+03        00000 
-3.13376e+02 -3.02294e+03        00000 
-2.69993e+02 -3.02186e+03        00000 
-2.26821e+02 -3.02104e+03        00000 
-1.83945e+02 -3.02031e+03        00000 
-1.41026e+02 -3.01961e+03        00000 
-9.78100e+01 -3.01923e+03        00000 
-5.46149e+01 -3.01903e+03        00000 
-1.12047e+01 -3.01890e+03        00000 
 3.20212e+01 -3.01891e+03        00000 
 7.52151e+01 -3.01907e+03        00000 
 1.18508e+02 -3.01939e+03        00000 
 1.61711e+02 -3.01990e+03        00000 
 2.04948e+02 -3.02051e+03        00000 
 2.48412e+02 -3.02120e+03        00000 
 2.91740e+02 -3.02208e+03        00000 
 3.34927e+02 -3.02302e+03        00000 
 3.78027e+02 -3.02414e+03        00000 
 4.21260e+02 -3.02543e+03        00000 
-9.19493e+02 -3.72827e+03        00000 
-8.71001e+02 -3.72576e+03        00000 
-8.22380e+02 -3.72347e+03        00000 
-7.73739e+02 -3.72133e+03        00000 
-7.25775e+02 -3.71927e+03        00000 
-6.77646e+02 -3.71739e+03        00000 
-6.29939e+02 -3.71565e+03        00000 
-5.82470e+02 -3.71410e+03        00000 
-5.34972e+02 -3.71269e+03        00000 
-4.87453e+02 -3.71149e+03        00000 
-4.39993e+02 -3.71044e+03        00000 
-3.92332e+02 -3.70955e+03        00000 
-3.44410e+02 -3.70888e+03        00000 
-2.96560e+02 -3.70833e+03        00000 
-2.48984e+02 -3.70792e+03        00000 
-2.00811e+02 -3.70764e+03        00000 
-1.52413e+02 -3.70747e+03        00000 
-1.04229e+02 -3.70734e+03        00000 
-5.60331e+01 -3.70747e+03        00000 
-7.62241e+00 -3.70773e+03        00000 
 4.09778e+01 -3.70809e+03        00000 
 8.94291e+01 -3.70856e+03        00000 
 1.37939e+02 -3.70911e+03        00000 
 1.86437e+02 -3.70969e+03        00000 
 2.34816e+02 -3.71039e+03        00000 
 2.83191e+02 -3.71130e+03        00000 
 3.31782e+02 -3.71228e+03        00000 
 3.80171e+02 -3.71345e+03        00000 
 4.29034e+02 -3.71491e+03        00000 
 4.78155e+02 -3.71651e+03        00000 
-1.00291e+03 -4.50604e+03        00000 
-9.48869e+02 -4.50387e+03        00000 
-8.95076e+02 -4.50190e+03        00000 
-8.41564e+02 -4.50010e+03        00000 
-7.88420e+02 -4.49840e+03        00000 
-7.35487e+02 -4.49692e+03        00000 
-6.82512e+02 -4.49554e+03        00000 
-6.29559e+02 -4.49440e+03        00000 
-5.76732e+02 -4.49347e+03        00000 
-5.23659e+02 -4.49261e+03        00000 
-4.70815e+02 -4.49187e+03        00000 
-4.17903e+02 -4.49130e+03        00000 
-3.65009e+02 -4.49082e+03        00000 
-3.12357e+02 -4.49035e+03        00000 
-2.59338e+02 -4.49002e+03        00000 
-2.06476e+02 -4.48982e+03        00000 
-1.54113e+02 -4.48980e+03        00000 
-1.01733e+02 -4.48979e+03        00000 
-4.94340e+01 -4.48984e+03        00000 
 2.60098e+00 -4.48994e+03        00000 
 5.49272e+01 -4.49014e+03        00000 
 1.07593e+02 -4.49048e+03        00000 
 1.60173e+02 -4.49093e+03        00000 
 2.12943e+02 -4.49156e+03        00000 
 2.65675e+02 -4.49231e+03        00000 
 3.18674e+02 -4.49326e+03        00000 
 3.71773e+02 -4.49427e+03        00000 
 4.25320e+02 -4.49547e+03        00000 
 4.79220e+02 -4.49672e+03        00000 
 5.33063e+02 -4.49813e+03        00000 
-1.07440e+03 -5.34156e+03        00000 
-1.01727e+03 -5.33935e+03        00000 
-9.60183e+02 -5.33725e+03        00000 
-9.03041e+02 -5.33531e+03        00000 
-8.45991e+02 -5.33340e+03        00000 
-7.88912e+02 -5.33162e+03        00000 
-7.31784e+02 -5.33002e+03        00000 
-6.74605e+02 -5.32861e+03        00000 
-6.17423e+02 -5.32727e+03        00000 
-5.60420e+02 -5.32608e+03        00000 
-5.03687e+02 -5.32496e+03        00000 
-4.47151e+02 -5.32392e+03        00000 
-3.90353e+02 -5.32306e+03        00000 
-3.33883e+02 -5.32233e+03        00000 
-2.77340e+02 -5.32163e+03        00000 
-2.20747e+02 -5.32105e+03        00000 
-1.64158e+02 -5.32062e+03        00000 
-1.07326e+02 -5.32029e+03        00000 
-5.06118e+01 -5.32015e+03        00000 
 6.17324e+00 -5.32014e+03        00000 
 6.30610e+01 -5.32029e+03        00000 
 1.19997e+02 -5.32056e+03        00000 
 1.76711e+02 -5.32099e+03        00000 
 2.33734e+02 -5.32154e+03        00000 
 2.90468e+02 -5.32210e+03        00000 
 3.47355e+02 -5.32280e+03        00000 
 4.04282e+02 -5.32378e+03        00000 
 4.61161e+02 -5.32487e+03        00000 
 5.18011e+02 -5.32600e+03        00000 
 5.74777e+02 -5.32725e+03        00000 
-1.15817e+03 -6.23020e+03        00000 
-1.09668e+03 -6.22765e+03        00000 
-1.03545e+03 -6.22526e+03        00000 
-9.73924e+02 -6.22294e+03        00000 
-9.12203e+02 -6.22091e+03        00000 
-8.50526e+02 -6.21880e+03        00000 
-7.88711e+02 -6.21688e+03        00000 
-7.26972e+02 -6.21508e+03        00000 
-6.65483e+02 -6.21334e+03        00000 
-6.04157e+02 -6.21181e+03        00000 
-5.42736e+02 -6.21043e+03        00000 
-4.81459e+02 -6.20906e+03        00000 
-4.20601e+02 -6.20790e+03        00000 
-3.59597e+02 -6.20696e+03        00000 
-2.98829e+02 -6.20608e+03        00000 
-2.38187e+02 -6.20539e+03        00000 
-1.77381e+02 -6.20482e+03        00000 
-1.16403e+02 -6.20422e+03        00000 
-5.54216e+01 -6.20380e+03        00000 
 5.38614e+00 -6.20361e+03        00000 
 6.59510e+01 -6.20352e+03        00000 
 1.26721e+02 -6.20360e+03        00000 
 1.87897e+02 -6.20381e+03        00000 
 2.48802e+02 -6.20410e+03        00000 
 3.10187e+02 -6.20450e+03        00000 
 3.71938e+02 -6.20497e+03        00000 
 4.33658e+02 -6.20559e+03        00000 
 4.95411e+02 -6.20640e+03        00000 
 5.56874e+02 -6.20730e+03        00000 
 6.18365e+02 -6.20838e+03        00000 
-1.24333e+03 -7.18691e+03        00000 
-1.17734e+03 -7.18447e+03        00000 
-1.11130e+03 -7.18232e+03        00000 
-1.04528e+03 -7.18021e+03        00000 
-9.79362e+02 -7.17817e+03        00000 
-9.13735e+02 -7.17633e+03        00000 
-8.47958e+02 -7.17442e+03        00000 
-7.82286e+02 -7.17272e+03        00000 
-7.16659e+02 -7.17119e+03        00000 
-6.51360e+02 -7.16978e+03        00000 
-5.86164e+02 -7.16859e+03        00000 
-5.21065e+02 -7.16761e+03        00000 
-4.56033e+02 -7.16672e+03        00000 
-3.90928e+02 -7.16596e+03        00000 
-3.25765e+02 -7.16542e+03        00000 
-2.60565e+02 -7.16501e+03        00000 
-1.95629e+02 -7.16467e+03        00000 
-1.30212e+02 -7.16445e+03        00000 
-6.47352e+01 -7.16439e+03        00000 
 3.97783e-01 -7.16428e+03        00000 
 6.60315e+01 -7.16422e+03        00000 
 1.31395e+02 -7.16436e+03        00000 
 1.96676e+02 -7.16459e+03        00000 
 2.62069e+02 -7.16490e+03        00000 
 3.27464e+02 -7.16537e+03        00000 
 3.93257e+02 -7.16593e+03        00000 
 4.59050e+02 -7.16647e+03        00000 
 5.24696e+02 -7.16707e+03        00000 
 5.90565e+02 -7.16788e+03        00000 
 6.56742e+02 -7.16883e+03        00000 
-1.31754e+03 -8.20232e+03        00000 
-1.24794e+03 -8.20054e+03        00000 
-1.17844e+03 -8.19873e+03        00000 
-1.10916e+03 -8.19716e+03        00000 
-1.03983e+03 -8.19551e+03        00000 
-9.70587e+02 -8.19411e+03        00000 
-9.01499e+02 -8.19277e+03        00000 
-8.32412e+02 -8.19155e+03        00000 
-7.63176e+02 -8.19056e+03        00000 
-6.94065e+02 -8.18973e+03        00000 
-6.24781e+02 -8.18899e+03        00000 
-5.55636e+02 -8.18832e+03        00000 
-4.86333e+02 -8.18788e+03        00000 
-4.17277e+02 -8.18744e+03        00000 
-3.48039e+02 -8.18714e+03        00000 
-2.78763e+02 -8.18688e+03        00000 
-2.09740e+02 -8.18665e+03        00000 
-1.40938e+02 -8.18645e+03        00000 
-7.21489e+01 -8.18632e+03        00000 
-3.44312e+00 -8.18625e+03        00000 
 6.54723e+01 -8.18629e+03        00000 
 1.34704e+02 -8.18640e+03        00000 
 2.03625e+02 -8.18648e+03        00000 
 2.72817e+02 -8.18669e+03        00000 
 3.42390e+02 -8.18684e+03        00000 
 4.11547e+02 -8.18708e+03        00000 
 4.80941e+02 -8.18754e+03        00000 
 5.50699e+02 -8.18825e+03        00000 
 6.20588e+02 -8.18911e+03        00000 
 6.90357e+02 -8.19008e+03        00000 
-1.38133e+03 -9.26629e+03        00000 
-1.30872e+03 -9.26443e+03        00000 
-1.23614e+03 -9.26250e+03        00000 
-1.16332e+03 -9.26073e+03        00000 
-1.09018e+03 -9.25913e+03        00000 
-1.01702e+03 -9.25765e+03        00000 
-9.43997e+02 -9.25627e+03        00000 
-8.71041e+02 -9.25500e+03        00000 
-7.98376e+02 -9.25389e+03        00000 
-7.26068e+02 -9.25292e+03        00000 
-6.53334e+02 -9.25216e+03        00000 
-5.80882e+02 -9.25149e+03        00000 
-5.08700e+02 -9.25087e+03        00000 
-4.36356e+02 -9.25046e+03        00000 
-3.64323e+02 -9.25030e+03        00000 
-2.92293e+02 -9.25024e+03        00000 
-2.20101e+02 -9.25028e+03        00000 