<?xml version="1.0" encoding="utf-8"?>
<VTKFile byte_order="LittleEndian" type="UnstructuredGrid" version="0.1">
   <UnstructuredGrid>
      <Piece NumberOfCells="3364" NumberOfPoints="1741">
         <Points>
            <DataArray Name="Points" NumberOfComponents="3" format="ascii" type="Float32">
0.0000 0.0000 0.0000
0.0000 0.0690 0.0000
0.0000 0.1379 0.0000
0.0000 0.2069 0.0000
0.0000 0.2759 0.0000
0.0000 0.3448 0.0000
0.0000 0.4138 0.0000
0.0000 0.4828 0.0000
0.0000 0.5517 0.0000
0.0000 0.6207 0.0000
0.0000 0.6897 0.0000
0.0000 0.7586 0.0000
0.0000 0.8276 0.0000
0.0000 0.8966 0.0000
0.0000 0.9655 0.0000
0.0000 1.0345 0.0000
0.0000 1.1034 0.0000
0.0000 1.1724 0.0000
0.0000 1.2414 0.0000
0.0000 1.3103 0.0000
0.0000 1.3793 0.0000
0.0000 1.4483 0.0000
0.0000 1.5172 0.0000
0.0000 1.5862 0.0000
0.0000 1.6552 0.0000
0.0000 1.7241 0.0000
0.0000 1.7931 0.0000
0.0000 1.8621 0.0000
0.0000 1.9310 0.0000
0.0000 2.0000 0.0000
1.0345 0.0000 0.0000
1.0345 0.0690 0.0000
1.0345 0.1379 0.0000
1.0345 0.2069 0.0000
1.0345 0.2759 0.0000
1.0345 0.3448 0.0000
1.0345 0.4138 0.0000
1.0345 0.4828 0.0000
1.0345 0.5517 0.0000
1.0345 0.6207 0.0000
1.0345 0.6897 0.0000
1.0345 0.7586 0.0000
1.0345 0.8276 0.0000
1.0345 0.8966 0.0000
1.0345 0.9655 0.0000
1.0345 1.0345 0.0000
1.0345 1.1034 0.0000
1.0345 1.1724 0.0000
1.0345 1.2414 0.0000
1.0345 1.3103 0.0000
1.0345 1.3793 0.0000
1.0345 1.4483 0.0000
1.0345 1.5172 0.0000
1.0345 1.5862 0.0000
1.0345 1.6552 0.0000
1.0345 1.7241 0.0000
1.0345 1.7931 0.0000
1.0345 1.8621 0.0000
1.0345 1.9310 0.0000
1.0345 2.0000 0.0000
2.0690 0.0000 0.0000
2.0690 0.0690 0.0000
2.0690 0.1379 0.0000
2.0690 0.2069 0.0000
2.0690 0.2759 0.0000
2.0690 0.3448 0.0000
2.0690 0.4138 0.0000
2.0690 0.4828 0.0000
2.0690 0.5517 0.0000
2.0690 0.6207 0.0000
2.0690 0.6897 0.0000
2.0690 0.7586 0.0000
2.0690 0.8276 0.0000
2.0690 0.8966 0.0000
2.0690 0.9655 0.0000
2.0690 1.0345 0.0000
2.0690 1.1034 0.0000
2.0690 1.1724 0.0000
2.0690 1.2414 0.0000
2.0690 1.3103 0.0000
2.0690 1.3793 0.0000
2.0690 1.4483 0.0000
2.0690 1.5172 0.0000
2.0690 1.5862 0.0000
2.0690 1.6552 0.0000
2.0690 1.7241 0.0000
2.0690 1.7931 0.0000
2.0690 1.8621 0.0000
2.0690 1.9310 0.0000
2.0690 2.0000 0.0000
3.1034 0.0000 0.0000
3.1034 0.0690 0.0000
3.1034 0.1379 0.0000
3.1034 0.2069 0.0000
3.1034 0.2759 0.0000
3.1034 0.3448 0.0000
3.1034 0.4138 0.0000
3.1034 0.4828 0.0000
3.1034 0.5517 0.0000
3.1034 0.6207 0.0000
3.1034 0.6897 0.0000
3.1034 0.7586 0.0000
3.1034 0.8276 0.0000
3.1034 0.8966 0.0000
3.1034 0.9655 0.0000
3.1034 1.0345 0.0000
3.1034 1.1034 0.0000
3.1034 1.1724 0.0000
3.1034 1.2414 0.0000
3.1034 1.3103 0.0000
3.1034 1.3793 0.0000
3.1034 1.4483 0.0000
3.1034 1.5172 0.0000
3.1034 1.5862 0.0000
3.1034 1.6552 0.0000
3.1034 1.7241 0.0000
3.1034 1.7931 0.0000
3.1034 1.8621 0.0000
3.1034 1.9310 0.0000
3.1034 2.0000 0.0000
4.1379 0.0000 0.0000
4.1379 0.0690 0.0000
4.1379 0.1379 0.0000
4.1379 0.2069 0.0000
4.1379 0.2759 0.0000
4.1379 0.3448 0.0000
4.1379 0.4138 0.0000
4.1379 0.4828 0.0000
4.1379 0.5517 0.0000
4.1379 0.6207 0.0000
4.1379 0.6897 0.0000
4.1379 0.7586 0.0000
4.1379 0.8276 0.0000
4.1379 0.8966 0.0000
4.1379 0.9655 0.0000
4.1379 1.0345 0.0000
4.1379 1.1034 0.0000
4.1379 1.1724 0.0000
4.1379 1.2414 0.0000
4.1379 1.3103 0.0000
4.1379 1.3793 0.0000
4.1379 1.4483 0.0000
4.1379 1.5172 0.0000
4.1379 1.5862 0.0000
4.1379 1.6552 0.0000
4.1379 1.7241 0.0000
4.1379 1.7931 0.0000
4.1379 1.8621 0.0000
4.1379 1.9310 0.0000
4.1379 2.0000 0.0000
5.1724 0.0000 0.0000
5.1724 0.0690 0.0000
5.1724 0.1379 0.0000
5.1724 0.2069 0.0000
5.1724 0.2759 0.0000
5.1724 0.3448 0.0000
5.1724 0.4138 0.0000
5.1724 0.4828 0.0000
5.1724 0.5517 0.0000
5.1724 0.6207 0.0000
5.1724 0.6897 0.0000
5.1724 0.7586 0.0000
5.1724 0.8276 0.0000
5.1724 0.8966 0.0000
5.1724 0.9655 0.0000
5.1724 1.0345 0.0000
5.1724 1.1034 0.0000
5.1724 1.1724 0.0000
5.1724 1.2414 0.0000
5.1724 1.3103 0.0000
5.1724 1.3793 0.0000
5.1724 1.4483 0.0000
5.1724 1.5172 0.0000
5.1724 1.5862 0.0000
5.1724 1.6552 0.0000
5.1724 1.7241 0.0000
5.1724 1.7931 0.0000
5.1724 1.8621 0.0000
5.1724 1.9310 0.0000
5.1724 2.0000 0.0000
6.2069 0.0000 0.0000
6.2069 0.0690 0.0000
6.2069 0.1379 0.0000
6.2069 0.2069 0.0000
6.2069 0.2759 0.0000
6.2069 0.3448 0.0000
6.2069 0.4138 0.0000
6.2069 0.4828 0.0000
6.2069 0.5517 0.0000
6.2069 0.6207 0.0000
6.2069 0.6897 0.0000
6.2069 0.7586 0.0000
6.2069 0.8276 0.0000
6.2069 0.8966 0.0000
6.2069 0.9655 0.0000
6.2069 1.0345 0.0000
6.2069 1.1034 0.0000
6.2069 1.1724 0.0000
6.2069 1.2414 0.0000
6.2069 1.3103 0.0000
6.2069 1.3793 0.0000
6.2069 1.4483 0.0000
6.2069 1.5172 0.0000
6.2069 1.5862 0.0000
6.2069 1.6552 0.0000
6.2069 1.7241 0.0000
6.2069 1.7931 0.0000
6.2069 1.8621 0.0000
6.2069 1.9310 0.0000
6.2069 2.0000 0.0000
7.2414 0.0000 0.0000
7.2414 0.0690 0.0000
7.2414 0.1379 0.0000
7.2414 0.2069 0.0000
7.2414 0.2759 0.0000
7.2414 0.3448 0.0000
7.2414 0.4138 0.0000
7.2414 0.4828 0.0000
7.2414 0.5517 0.0000
7.2414 0.6207 0.0000
7.2414 0.6897 0.0000
7.2414 0.7586 0.0000
7.2414 0.8276 0.0000
7.2414 0.8966 0.0000
7.2414 0.9655 0.0000
7.2414 1.0345 0.0000
7.2414 1.1034 0.0000
7.2414 1.1724 0.0000
7.2414 1.2414 0.0000
7.2414 1.3103 0.0000
7.2414 1.3793 0.0000
7.2414 1.4483 0.0000
7.2414 1.5172 0.0000
7.2414 1.5862 0.0000
7.2414 1.6552 0.0000
7.2414 1.7241 0.0000
7.2414 1.7931 0.0000
7.2414 1.8621 0.0000
7.2414 1.9310 0.0000
7.2414 2.0000 0.0000
8.2759 0.0000 0.0000
8.2759 0.0690 0.0000
8.2759 0.1379 0.0000
8.2759 0.2069 0.0000
8.2759 0.2759 0.0000
8.2759 0.3448 0.0000
8.2759 0.4138 0.0000
8.2759 0.4828 0.0000
8.2759 0.5517 0.0000
8.2759 0.6207 0.0000
8.2759 0.6897 0.0000
8.2759 0.7586 0.0000
8.2759 0.8276 0.0000
8.2759 0.8966 0.0000
8.2759 0.9655 0.0000
8.2759 1.0345 0.0000
8.2759 1.1034 0.0000
8.2759 1.1724 0.0000
8.2759 1.2414 0.0000
8.2759 1.3103 0.0000
8.2759 1.3793 0.0000
8.2759 1.4483 0.0000
8.2759 1.5172 0.0000
8.2759 1.5862 0.0000
8.2759 1.6552 0.0000
8.2759 1.7241 0.0000
8.2759 1.7931 0.0000
8.2759 1.8621 0.0000
8.2759 1.9310 0.0000
8.2759 2.0000 0.0000
9.3103 0.0000 0.0000
9.3103 0.0690 0.0000
9.3103 0.1379 0.0000
9.3103 0.2069 0.0000
9.3103 0.2759 0.0000
9.3103 0.3448 0.0000
9.3103 0.4138 0.0000
9.3103 0.4828 0.0000
9.3103 0.5517 0.0000
9.3103 0.6207 0.0000
9.3103 0.6897 0.0000
9.3103 0.7586 0.0000
9.3103 0.8276 0.0000
9.3103 0.8966 0.0000
9.3103 0.9655 0.0000
9.3103 1.0345 0.0000
9.3103 1.1034 0.0000
9.3103 1.1724 0.0000
9.3103 1.2414 0.0000
9.3103 1.3103 0.0000
9.3103 1.3793 0.0000
9.3103 1.4483 0.0000
9.3103 1.5172 0.0000
9.3103 1.5862 0.0000
9.3103 1.6552 0.0000
9.3103 1.7241 0.0000
9.3103 1.7931 0.0000
9.3103 1.8621 0.0000
9.3103 1.9310 0.0000
9.3103 2.0000 0.0000
10.3448 0.0000 0.0000
10.3448 0.0690 0.0000
10.3448 0.1379 0.0000
10.3448 0.2069 0.0000
10.3448 0.2759 0.0000
10.3448 0.3448 0.0000
10.3448 0.4138 0.0000
10.3448 0.4828 0.0000
10.3448 0.5517 0.0000
10.3448 0.6207 0.0000
10.3448 0.6897 0.0000
10.3448 0.7586 0.0000
10.3448 0.8276 0.0000
10.3448 0.8966 0.0000
10.3448 0.9655 0.0000
10.3448 1.0345 0.0000
10.3448 1.1034 0.0000
10.3448 1.1724 0.0000
10.3448 1.2414 0.0000
10.3448 1.3103 0.0000
10.3448 1.3793 0.0000
10.3448 1.4483 0.0000
10.3448 1.5172 0.0000
10.3448 1.5862 0.0000
10.3448 1.6552 0.0000
10.3448 1.7241 0.0000
10.3448 1.7931 0.0000
10.3448 1.8621 0.0000
10.3448 1.9310 0.0000
10.3448 2.0000 0.0000
11.3793 0.0000 0.0000
11.3793 0.0690 0.0000
11.3793 0.1379 0.0000
11.3793 0.2069 0.0000
11.3793 0.2759 0.0000
11.3793 0.3448 0.0000
11.3793 0.4138 0.0000
11.3793 0.4828 0.0000
11.3793 0.5517 0.0000
11.3793 0.6207 0.0000
11.3793 0.6897 0.0000
11.3793 0.7586 0.0000
11.3793 0.8276 0.0000
11.3793 0.8966 0.0000
11.3793 0.9655 0.0000
11.3793 1.0345 0.0000
11.3793 1.1034 0.0000
11.3793 1.1724 0.0000
11.3793 1.2414 0.0000
11.3793 1.3103 0.0000
11.3793 1.3793 0.0000
11.3793 1.4483 0.0000
11.3793 1.5172 0.0000
11.3793 1.5862 0.0000
11.3793 1.6552 0.0000
11.3793 1.7241 0.0000
11.3793 1.7931 0.0000
11.3793 1.8621 0.0000
11.3793 1.9310 0.0000
11.3793 2.0000 0.0000
12.4138 0.0000 0.0000
12.4138 0.0690 0.0000
12.4138 0.1379 0.0000
12.4138 0.2069 0.0000
12.4138 0.2759 0.0000
12.4138 0.3448 0.0000
12.4138 0.4138 0.0000
12.4138 0.4828 0.0000
12.4138 0.5517 0.0000
12.4138 0.6207 0.0000
12.4138 0.6897 0.0000
12.4138 0.7586 0.0000
12.4138 0.8276 0.0000
12.4138 0.8966 0.0000
12.4138 0.9655 0.0000
12.4138 1.0345 0.0000
12.4138 1.1034 0.0000
12.4138 1.1724 0.0000
12.4138 1.2414 0.0000
12.4138 1.3103 0.0000
12.4138 1.3793 0.0000
12.4138 1.4483 0.0000
12.4138 1.5172 0.0000
12.4138 1.5862 0.0000
12.4138 1.6552 0.0000
12.4138 1.7241 0.0000
12.4138 1.7931 0.0000
12.4138 1.8621 0.0000
12.4138 1.9310 0.0000
12.4138 2.0000 0.0000
13.4483 0.0000 0.0000
13.4483 0.0690 0.0000
13.4483 0.1379 0.0000
13.4483 0.2069 0.0000
13.4483 0.2759 0.0000
13.4483 0.3448 0.0000
13.4483 0.4138 0.0000
13.4483 0.4828 0.0000
13.4483 0.5517 0.0000
13.4483 0.6207 0.0000
13.4483 0.6897 0.0000
13.4483 0.7586 0.0000
13.4483 0.8276 0.0000
13.4483 0.8966 0.0000
13.4483 0.9655 0.0000
13.4483 1.0345 0.0000
13.4483 1.1034 0.0000
13.4483 1.1724 0.0000
13.4483 1.2414 0.0000
13.4483 1.3103 0.0000
13.4483 1.3793 0.0000
13.4483 1.4483 0.0000
13.4483 1.5172 0.0000
13.4483 1.5862 0.0000
13.4483 1.6552 0.0000
13.4483 1.7241 0.0000
13.4483 1.7931 0.0000
13.4483 1.8621 0.0000
13.4483 1.9310 0.0000
13.4483 2.0000 0.0000
14.4828 0.0000 0.0000
14.4828 0.0690 0.0000
14.4828 0.1379 0.0000
14.4828 0.2069 0.0000
14.4828 0.2759 0.0000
14.4828 0.3448 0.0000
14.4828 0.4138 0.0000
14.4828 0.4828 0.0000
14.4828 0.5517 0.0000
14.4828 0.6207 0.0000
14.4828 0.6897 0.0000
14.4828 0.7586 0.0000
14.4828 0.8276 0.0000
14.4828 0.8966 0.0000
14.4828 0.9655 0.0000
14.4828 1.0345 0.0000
14.4828 1.1034 0.0000
14.4828 1.1724 0.0000
14.4828 1.2414 0.0000
14.4828 1.3103 0.0000
14.4828 1.3793 0.0000
14.4828 1.4483 0.0000
14.4828 1.5172 0.0000
14.4828 1.5862 0.0000
14.4828 1.6552 0.0000
14.4828 1.7241 0.0000
14.4828 1.7931 0.0000
14.4828 1.8621 0.0000
14.4828 1.9310 0.0000
14.4828 2.0000 0.0000
15.5172 0.0000 0.0000
15.5172 0.0690 0.0000
15.5172 0.1379 0.0000
15.5172 0.2069 0.0000
[...]
         <PointData>
            <DataArray Name="fValues" NumberOfComponents="3" format="ascii" type="Float64">
 5.82350e-16 -1.93742e-15        00000 
 5.50342e-16  5.50342e-16        00000 
-2.72110e-15  2.72110e-16        00000 
 1.62396e-15  2.90603e-16        00000 
-9.52384e-16  1.90477e-15        00000 
 1.21697e-15 -4.31171e-15        00000 
 8.16329e-16  3.12926e-15        00000 
-2.82056e-16  1.04275e-15        00000 
 8.33336e-16        00000        00000 
 3.33739e-17  1.40680e-15        00000 
 8.50343e-17 -2.44899e-15        00000 
-4.01716e-16  2.83765e-15        00000 
 4.08165e-16 -5.44220e-16        00000 
-5.41180e-16 -2.59508e-15        00000 
 8.16329e-16  1.22449e-15        00000 
-1.27353e-15 -3.93169e-16        00000 
 2.31293e-15 -1.36055e-15        00000 
-2.52657e-15 -1.84160e-16        00000 
 6.80275e-16 -1.36055e-15        00000 
-4.13682e-15  1.25643e-15        00000 
 4.62587e-15 -2.58504e-15        00000 
 2.58782e-16  5.75527e-16        00000 
 2.17688e-15        00000        00000 
-2.29064e-15  2.26500e-15        00000 
 2.17688e-15 -9.52384e-16        00000 
 1.37282e-15 -3.71804e-16        00000 
 4.62587e-15  1.36055e-16        00000 
-4.12741e-15  1.48998e-15        00000 
 1.30361e-15 -6.17499e-16        00000 
 1.11397e-15  1.59424e-15        00000 
 1.85582e+01  9.97422e+00        00000 
 1.68054e+01  9.53169e+00        00000 
 1.51900e+01  9.12843e+00        00000 
 1.31886e+01  8.93170e+00        00000 
 1.14475e+01  8.78432e+00        00000 
 9.70498e+00  8.68467e+00        00000 
 7.89028e+00  8.76436e+00        00000 
 5.88534e+00  8.86123e+00        00000 
 3.69123e+00  9.07552e+00        00000 
 1.49370e+00  9.34096e+00        00000 
-6.43150e-01  9.60265e+00        00000 
-2.15803e+00  9.74543e+00        00000 
-3.51401e+00  1.00083e+01        00000 
-5.03208e+00  1.01652e+01        00000 
-6.83483e+00  1.02553e+01        00000 
-9.07635e+00  1.03673e+01        00000 
-1.13307e+01  1.04126e+01        00000 
-1.32129e+01  1.05107e+01        00000 
-1.49583e+01  1.06403e+01        00000 
-1.63697e+01  1.07107e+01        00000 
-1.73709e+01  1.07079e+01        00000 
-1.85031e+01  1.07622e+01        00000 
-2.01575e+01  1.08632e+01        00000 
-2.21052e+01  1.09620e+01        00000 
-2.42559e+01  1.12478e+01        00000 
-2.61485e+01  1.16393e+01        00000 
-2.75138e+01  1.21447e+01        00000 
-2.85956e+01  1.28103e+01        00000 
-2.99856e+01  1.35947e+01        00000 
-3.14515e+01  1.45202e+01        00000 
 2.80652e+01  5.67099e+01        00000 
 2.50727e+01  5.66653e+01        00000 
 2.23012e+01  5.63374e+01        00000 
 1.95842e+01  5.60373e+01        00000 
 1.65748e+01  5.56482e+01        00000 
 1.35414e+01  5.52708e+01        00000 
 1.01123e+01  5.49347e+01        00000 
 6.66717e+00  5.47773e+01        00000 
 3.30437e+00  5.46107e+01        00000 
 1.10894e-01  5.43001e+01        00000 
-2.83689e+00  5.40947e+01        00000 
-5.60828e+00  5.38845e+01        00000 
-8.08941e+00  5.36497e+01        00000 
-1.07834e+01  5.35885e+01        00000 
-1.38615e+01  5.35777e+01        00000 
-1.68921e+01  5.35097e+01        00000 
-1.97659e+01  5.35601e+01        00000 
-2.23841e+01  5.35913e+01        00000 
-2.43698e+01  5.35834e+01        00000 
-2.58084e+01  5.35509e+01        00000 
-2.74530e+01  5.36331e+01        00000 
-2.95736e+01  5.36168e+01        00000 
-3.22893e+01  5.37011e+01        00000 
-3.51608e+01  5.38566e+01        00000 
-3.85453e+01  5.39558e+01        00000 
-4.18569e+01  5.40681e+01        00000 
-4.49172e+01  5.43564e+01        00000 
-4.73738e+01  5.46088e+01        00000 
-4.97703e+01  5.49393e+01        00000 
-5.26683e+01  5.53347e+01        00000 
 2.59570e+01  9.47587e+01        00000 
 2.33469e+01  9.47818e+01        00000 
 1.99528e+01  9.47690e+01        00000 
 1.63434e+01  9.47286e+01        00000 
 1.24965e+01  9.47115e+01        00000 
 8.35291e+00  9.47285e+01        00000 
 4.15325e+00  9.46709e+01        00000 
 1.05176e-02  9.45644e+01        00000 
-3.25950e+00  9.44747e+01        00000 
-6.15015e+00  9.43476e+01        00000 
-9.19482e+00  9.42626e+01        00000 
-1.19416e+01  9.41511e+01        00000 
-1.48777e+01  9.41052e+01        00000 
-1.75141e+01  9.41871e+01        00000 
-1.98075e+01  9.42515e+01        00000 
-2.16714e+01  9.43388e+01        00000 
-2.33110e+01  9.46779e+01        00000 
-2.47077e+01  9.49324e+01        00000 
-2.61890e+01  9.53157e+01        00000 
-2.75668e+01  9.58074e+01        00000 
-2.93026e+01  9.64434e+01        00000 
-3.17041e+01  9.71401e+01        00000 
-3.40989e+01  9.77084e+01        00000 
-3.63114e+01  9.81583e+01        00000 
-3.84611e+01  9.85775e+01        00000 
-4.10469e+01  9.87508e+01        00000 
-4.39761e+01  9.87009e+01        00000 
-4.68794e+01  9.87425e+01        00000 
-4.97679e+01  9.87355e+01        00000 
-5.24646e+01  9.85981e+01        00000 
 3.14805e+01  1.41629e+02        00000 
 2.81260e+01  1.41472e+02        00000 
 2.48256e+01  1.41433e+02        00000 
 2.16269e+01  1.41172e+02        00000 
 1.84720e+01  1.40974e+02        00000 
 1.52616e+01  1.40727e+02        00000 
 1.24860e+01  1.40361e+02        00000 
 9.84760e+00  1.39768e+02        00000 
 6.97351e+00  1.39097e+02        00000 
 3.95947e+00  1.38434e+02        00000 
 1.10527e+00  1.37729e+02        00000 
-2.10619e+00  1.37066e+02        00000 
-5.35209e+00  1.36442e+02        00000 
-8.36059e+00  1.35707e+02        00000 
-1.13774e+01  1.35136e+02        00000 
-1.43764e+01  1.34639e+02        00000 
-1.73031e+01  1.34242e+02        00000 
-2.01504e+01  1.33898e+02        00000 
-2.30286e+01  1.33736e+02        00000 
-2.60035e+01  1.33565e+02        00000 
-2.89285e+01  1.33492e+02        00000 
-3.15348e+01  1.33418e+02        00000 
-3.35892e+01  1.33347e+02        00000 
-3.59453e+01  1.33131e+02        00000 
-3.80823e+01  1.33040e+02        00000 
-4.02346e+01  1.32900e+02        00000 
-4.26137e+01  1.32741e+02        00000 
-4.54209e+01  1.32520e+02        00000 
-4.84128e+01  1.32307e+02        00000 
-5.11628e+01  1.32333e+02        00000 
 3.06824e+01  1.91082e+02        00000 
 2.76422e+01  1.91574e+02        00000 
 2.51394e+01  1.91964e+02        00000 
 2.28315e+01  1.92206e+02        00000 
 2.07814e+01  1.92456e+02        00000 
 1.89612e+01  1.92589e+02        00000 
 1.65701e+01  1.92808e+02        00000 
 1.40208e+01  1.93043e+02        00000 
 1.12320e+01  1.93235e+02        00000 
 7.98470e+00  1.93494e+02        00000 
 4.88313e+00  1.93850e+02        00000 
 1.96959e+00  1.94003e+02        00000 
-6.89507e-01  1.94170e+02        00000 
-3.41452e+00  1.94240e+02        00000 
-6.40779e+00  1.94228e+02        00000 
-9.36077e+00  1.94132e+02        00000 
-1.25150e+01  1.93977e+02        00000 
-1.58962e+01  1.93678e+02        00000 
-1.90354e+01  1.93422e+02        00000 
-2.21198e+01  1.93149e+02        00000 
-2.49211e+01  1.92749e+02        00000 
-2.74768e+01  1.92247e+02        00000 
-3.02141e+01  1.91862e+02        00000 
-3.28920e+01  1.91414e+02        00000 
-3.59925e+01  1.91185e+02        00000 
-3.92527e+01  1.91060e+02        00000 
-4.22940e+01  1.90889e+02        00000 
-4.52990e+01  1.90820e+02        00000 
-4.83531e+01  1.90818e+02        00000 
-5.19552e+01  1.90726e+02        00000 
 4.99009e+00  2.17698e+02        00000 
 3.90975e+00  2.18523e+02        00000 
 2.87427e+00  2.19264e+02        00000 
 1.98585e+00  2.20219e+02        00000 
 1.10823e+00  2.21184e+02        00000 
 2.48959e-01  2.22179e+02        00000 
-5.93073e-01  2.23146e+02        00000 
-1.94745e+00  2.24111e+02        00000 
-3.58392e+00  2.25212e+02        00000 
-4.98111e+00  2.26271e+02        00000 
-6.61044e+00  2.27261e+02        00000 
-8.20168e+00  2.28288e+02        00000 
-1.00181e+01  2.29283e+02        00000 
-1.20330e+01  2.30064e+02        00000 
-1.40144e+01  2.30977e+02        00000 
-1.59151e+01  2.31721e+02        00000 
-1.75672e+01  2.32334e+02        00000 
-1.96062e+01  2.32881e+02        00000 
-2.18365e+01  2.33501e+02        00000 
-2.37210e+01  2.34041e+02        00000 
-2.57119e+01  2.34719e+02        00000 
-2.76630e+01  2.35226e+02        00000 
-2.96556e+01  2.35861e+02        00000 
-3.12559e+01  2.36435e+02        00000 
-3.31101e+01  2.36766e+02        00000 
-3.47495e+01  2.36996e+02        00000 
-3.63279e+01  2.37235e+02        00000 
-3.79392e+01  2.37250e+02        00000 
-3.94560e+01  2.37218e+02        00000 
-4.11784e+01  2.37167e+02        00000 
-1.18311e+01  2.42665e+02        00000 
-1.34024e+01  2.43325e+02        00000 
-1.49630e+01  2.43957e+02        00000 
-1.61884e+01  2.44775e+02        00000 
-1.72036e+01  2.45537e+02        00000 
-1.80956e+01  2.46155e+02        00000 
-1.87522e+01  2.46845e+02        00000 
-1.89354e+01  2.47373e+02        00000 
-1.92549e+01  2.47875e+02        00000 
-1.97344e+01  2.48249e+02        00000 
-1.99873e+01  2.48564e+02        00000 
-2.04124e+01  2.48851e+02        00000 
-2.13463e+01  2.49116e+02        00000 
-2.21512e+01  2.49309e+02        00000 
-2.29797e+01  2.49526e+02        00000 
-2.36120e+01  2.49634e+02        00000 
-2.41936e+01  2.49872e+02        00000 
-2.49448e+01  2.49979e+02        00000 
-2.59623e+01  2.49960e+02        00000 
-2.73707e+01  2.49868e+02        00000 
-2.89584e+01  2.49861e+02        00000 
-3.02732e+01  2.49757e+02        00000 
-3.13431e+01  2.49733e+02        00000 
-3.22394e+01  2.49527e+02        00000 
-3.28081e+01  2.49208e+02        00000 
-3.39073e+01  2.48820e+02        00000 
-3.52242e+01  2.48407e+02        00000 
-3.66144e+01  2.48129e+02        00000 
-3.81443e+01  2.47894e+02        00000 
-3.96064e+01  2.47495e+02        00000 
-3.97847e+01  2.59049e+02        00000 
-3.96144e+01  2.59910e+02        00000 
-3.96162e+01  2.60715e+02        00000 
-3.94033e+01  2.61319e+02        00000 
-3.85583e+01  2.61939e+02        00000 
-3.73517e+01  2.62470e+02        00000 
-3.60282e+01  2.63091e+02        00000 
-3.47902e+01  2.63580e+02        00000 
-3.38117e+01  2.64188e+02        00000 
-3.28539e+01  2.64759e+02        00000 
-3.24440e+01  2.65230e+02        00000 
-3.21462e+01  2.65775e+02        00000 
-3.17083e+01  2.66341e+02        00000 
-3.12014e+01  2.66695e+02        00000 
-3.07204e+01  2.67222e+02        00000 
-3.03089e+01  2.67627e+02        00000 
-3.00278e+01  2.68006e+02        00000 
-2.96668e+01  2.68363e+02        00000 
-2.95382e+01  2.68708e+02        00000 
-2.96378e+01  2.69005e+02        00000 
-2.94640e+01  2.69194e+02        00000 
-2.90162e+01  2.69148e+02        00000 
-2.86930e+01  2.69221e+02        00000 
-2.81829e+01  2.69220e+02        00000 
-2.79098e+01  2.69108e+02        00000 
-2.79038e+01  2.69120e+02        00000 
-2.79221e+01  2.69259e+02        00000 
-2.79282e+01  2.69147e+02        00000 
-2.75980e+01  2.69048e+02        00000 
-2.70675e+01  2.68802e+02        00000 
-6.60537e+01  2.36702e+02        00000 
-6.36645e+01  2.37400e+02        00000 
-6.14402e+01  2.38119e+02        00000 
-5.93575e+01  2.38845e+02        00000 
-5.74836e+01  2.39599e+02        00000 
-5.55514e+01  2.40259e+02        00000 
-5.35782e+01  2.40807e+02        00000 
-5.17474e+01  2.41327e+02        00000 
-4.98332e+01  2.41644e+02        00000 
-4.76613e+01  2.42003e+02        00000 
-4.55255e+01  2.42316e+02        00000 
-4.33600e+01  2.42362e+02        00000 
-4.12343e+01  2.42344e+02        00000 
-3.94476e+01  2.42117e+02        00000 
-3.75774e+01  2.41846e+02        00000 
-3.58759e+01  2.41420e+02        00000 
-3.42812e+01  2.40852e+02        00000 
-3.25927e+01  2.40103e+02        00000 
-3.06889e+01  2.39358e+02        00000 
-2.87172e+01  2.38292e+02        00000 
-2.66968e+01  2.37234e+02        00000 
-2.47878e+01  2.36098e+02        00000 
-2.32150e+01  2.34947e+02        00000 
-2.20320e+01  2.33788e+02        00000 
-2.05987e+01  2.32801e+02        00000 
-1.87646e+01  2.31744e+02        00000 
-1.67691e+01  2.30674e+02        00000 
-1.42555e+01  2.29637e+02        00000 
-1.14676e+01  2.28652e+02        00000 
-8.42545e+00  2.27762e+02        00000 
-9.32139e+01  1.90934e+02        00000 
-8.92756e+01  1.91621e+02        00000 
-8.49184e+01  1.92460e+02        00000 
-8.06328e+01  1.93022e+02        00000 
-7.68717e+01  1.93476e+02        00000 
-7.34932e+01  1.94063e+02        00000 
-7.00592e+01  1.94496e+02        00000 
-6.64120e+01  1.94759e+02        00000 
-6.22466e+01  1.95096e+02        00000 
-5.76820e+01  1.95206e+02        00000 
-5.27358e+01  1.95266e+02        00000 
-4.79224e+01  1.95295e+02        00000 
-4.31284e+01  1.95295e+02        00000 
-3.84136e+01  1.95143e+02        00000 
-3.40010e+01  1.94921e+02        00000 
-2.98034e+01  1.94703e+02        00000 
-2.54510e+01  1.94431e+02        00000 
-2.11405e+01  1.93949e+02        00000 
-1.66315e+01  1.93565e+02        00000 
-1.21424e+01  1.93013e+02        00000 
-8.28456e+00  1.92380e+02        00000 
-4.80814e+00  1.91638e+02        00000 
-1.58138e+00  1.90963e+02        00000 
 1.58654e+00  1.90034e+02        00000 
 4.87027e+00  1.89009e+02        00000 
 8.41921e+00  1.87886e+02        00000 
 1.23063e+01  1.86629e+02        00000 
 1.59722e+01  1.85410e+02        00000 
 1.97317e+01  1.84132e+02        00000 
 2.32525e+01  1.83101e+02        00000 
-1.24518e+02  1.21865e+02        00000 
-1.17969e+02  1.22941e+02        00000 
-1.11832e+02  1.23956e+02        00000 
-1.05877e+02  1.24904e+02        00000 
-9.96726e+01  1.25899e+02        00000 
-9.34580e+01  1.26722e+02        00000 
-8.71953e+01  1.27472e+02        00000 
-8.07080e+01  1.28045e+02        00000 
-7.43737e+01  1.28459e+02        00000 
-6.81570e+01  1.28749e+02        00000 
-6.22314e+01  1.29128e+02        00000 
-5.63571e+01  1.29284e+02        00000 
-5.01295e+01  1.29417e+02        00000 
-4.36753e+01  1.29645e+02        00000 
-3.71576e+01  1.29698e+02        00000 
-3.05665e+01  1.29678e+02        00000 
-2.39719e+01  1.29704e+02        00000 
-1.74474e+01  1.29553e+02        00000 
-1.09162e+01  1.29443e+02        00000 
-4.50990e+00  1.29245e+02        00000 
 2.12836e+00  1.29065e+02        00000 
 8.77599e+00  1.28720e+02        00000 
 1.56265e+01  1.28111e+02        00000 
 2.26678e+01  1.27313e+02        00000 
 2.98699e+01  1.26561e+02        00000 
 3.69797e+01  1.25503e+02        00000 
 4.38073e+01  1.24445e+02        00000 
 5.02578e+01  1.23433e+02        00000 
 5.65486e+01  1.22277e+02        00000 
 6.25460e+01  1.21049e+02        00000 
-1.61662e+02 -3.83580e+00        00000 
-1.52198e+02 -3.07468e+00        00000 
-1.43037e+02 -2.26309e+00        00000 
-1.33841e+02 -1.51994e+00        00000 
-1.24208e+02 -9.69579e-01        00000 
-1.14280e+02 -3.66073e-01        00000 
-1.04166e+02  1.05921e-01        00000 
-9.43264e+01  5.49147e-01        00000 
-8.53998e+01  1.11772e+00        00000 
-7.68605e+01  1.42447e+00        00000 
-6.87039e+01  1.61837e+00        00000 
-6.06104e+01  1.84146e+00        00000 
-5.23043e+01  1.93439e+00        00000 
-4.35302e+01  1.89131e+00        00000 
-3.42908e+01  1.98578e+00        00000 
-2.46112e+01  1.93669e+00        00000 
-1.52369e+01  1.92955e+00        00000 
-6.14543e+00  1.89114e+00        00000 
 2.46722e+00  1.81015e+00        00000 
 1.09563e+01  1.72323e+00        00000 
 1.98528e+01  1.60701e+00        00000 
 2.90932e+01  1.34623e+00        00000 
 3.89415e+01  1.08000e+00        00000 
 4.88333e+01  7.91308e-01        00000 
 5.85800e+01  2.31805e-01        00000 
 6.83490e+01 -3.59790e-01        00000 
 7.73978e+01 -9.40258e-01        00000 
 8.63625e+01 -1.86594e+00        00000 
 9.52935e+01 -2.63759e+00        00000 
 1.04524e+02 -3.47084e+00        00000 
-1.88128e+02 -1.59013e+02        00000 
-1.77667e+02 -1.57580e+02        00000 
-1.67132e+02 -1.56335e+02        00000 
-1.56500e+02 -1.54933e+02        00000 
-1.45699e+02 -1.53562e+02        00000 
-1.34382e+02 -1.52380e+02        00000 
-1.23222e+02 -1.51055e+02        00000 
-1.12279e+02 -1.49657e+02        00000 
-1.01199e+02 -1.48496e+02        00000 
-9.03230e+01 -1.47268e+02        00000 
-7.94657e+01 -1.46154e+02        00000 
-6.86715e+01 -1.45356e+02        00000 
-5.79233e+01 -1.44556e+02        00000 
-4.72702e+01 -1.43950e+02        00000 
-3.63412e+01 -1.43623e+02        00000 
-2.53875e+01 -1.43391e+02        00000 
-1.44376e+01 -1.43223e+02        00000 
-3.45832e+00 -1.43341e+02        00000 
 7.11555e+00 -1.43583e+02        00000 
 1.80098e+01 -1.44114e+02        00000 
 2.92063e+01 -1.44779e+02        00000 
 4.06498e+01 -1.45619e+02        00000 
 5.22717e+01 -1.46536e+02        00000 
 6.39539e+01 -1.47455e+02        00000 
 7.55762e+01 -1.48333e+02        00000 
 8.65167e+01 -1.49270e+02        00000 
 9.71892e+01 -1.50240e+02        00000 
 1.07852e+02 -1.51139e+02        00000 
 1.18155e+02 -1.51918e+02        00000 
 1.28419e+02 -1.52801e+02        00000 
-2.46654e+02 -3.31414e+02        00000 
-2.32042e+02 -3.29775e+02        00000 
-2.17135e+02 -3.28325e+02        00000 
-2.02520e+02 -3.27250e+02        00000 
-1.87789e+02 -3.26120e+02        00000 
-1.73346e+02 -3.25120e+02        00000 
-1.59219e+02 -3.24285e+02        00000 
-1.45106e+02 -3.23571e+02        00000 
-1.30810e+02 -3.22779e+02        00000 
-1.16303e+02 -3.22118e+02        00000 
-1.01939e+02 -3.21416e+02        00000 
-8.78786e+01 -3.20617e+02        00000 
-7.36186e+01 -3.19923e+02        00000 
-5.98250e+01 -3.19220e+02        00000 
-4.64566e+01 -3.18516e+02        00000 
-3.31566e+01 -3.17988e+02        00000 
-1.96870e+01 -3.17570e+02        00000 
-5.95110e+00 -3.17101e+02        00000 
 8.22999e+00 -3.16848e+02        00000 
 2.28163e+01 -3.16595e+02        00000 
 3.75143e+01 -3.16345e+02        00000 
 5.20076e+01 -3.16315e+02        00000 
 6.59046e+01 -3.16220e+02        00000 
 7.97749e+01 -3.16299e+02        00000 
 9.35728e+01 -3.16397e+02        00000 
 1.07340e+02 -3.16553e+02        00000 
 1.21321e+02 -3.16998e+02        00000 
 1.35167e+02 -3.17505e+02        00000 
 1.49060e+02 -3.18258e+02        00000 
 1.62519e+02 -3.19211e+02        00000 
-2.92855e+02 -5.72526e+02        00000 
-2.75712e+02 -5.71434e+02        00000 
-2.58643e+02 -5.70164e+02        00000 
-2.41372e+02 -5.68916e+02        00000 
-2.24127e+02 -5.67733e+02        00000 
-2.07173e+02 -5.66503e+02        00000 
-1.90418e+02 -5.65131e+02        00000 
-1.73624e+02 -5.63886e+02        00000 
-1.56890e+02 -5.62658e+02        00000 
-1.39977e+02 -5.61322e+02        00000 
-1.22833e+02 -5.60179e+02        00000 
-1.05719e+02 -5.59214e+02        00000 
-8.89750e+01 -5.58257e+02        00000 
-7.22204e+01 -5.57440e+02        00000 
-5.57194e+01 -5.56688e+02        00000 
-3.93684e+01 -5.55965e+02        00000 
-2.29678e+01 -5.55421e+02        00000 
-6.29954e+00 -5.55172e+02        00000 
 1.07585e+01 -5.55000e+02        00000 
 2.76851e+01 -5.54905e+02        00000 
 4.46664e+01 -5.54849e+02        00000 
 6.16133e+01 -5.54822e+02        00000 
 7.83823e+01 -5.54934e+02        00000 
 9.49236e+01 -5.55301e+02        00000 
 1.11633e+02 -5.55808e+02        00000 
 1.28709e+02 -5.56524e+02        00000 
 1.46142e+02 -5.57405e+02        00000 
 1.64042e+02 -5.58233e+02        00000 
 1.81939e+02 -5.59257e+02        00000 
 2.00184e+02 -5.60291e+02        00000 
-3.24519e+02 -8.39198e+02        00000 
-3.06294e+02 -8.38240e+02        00000 
-2.87957e+02 -8.37459e+02        00000 
-2.69335e+02 -8.36794e+02        00000 
-2.50331e+02 -8.36213e+02        00000 
-2.30956e+02 -8.35758e+02        00000 
-2.11529e+02 -8.35499e+02        00000 
-1.92373e+02 -8.35227e+02        00000 
-1.73249e+02 -8.35113e+02        00000 
-1.54084e+02 -8.35154e+02        00000 
-1.35143e+02 -8.35251e+02        00000 
-1.16108e+02 -8.35266e+02        00000 
-9.71279e+01 -8.35352e+02        00000 
-7.82748e+01 -8.35538e+02        00000 
-5.93228e+01 -8.35641e+02        00000 
-4.03237e+01 -8.35898e+02        00000 
-2.10945e+01 -8.36360e+02        00000 