<?xml version="1.0" encoding="utf-8"?>
<VTKFile byte_order="LittleEndian" type="UnstructuredGrid" version="0.1">
   <UnstructuredGrid>
      <Piece NumberOfCells="3364" NumberOfPoints="1741">
         <Points>
            <DataArray Name="Points" NumberOfComponents="3" format="ascii" type="Float32">
0.0000 0.0000 0.0000
0.0000 0.0690 0.0000
0.0000 0.1379 0.0000
0.0000 0.2069 0.0000
0.0000 0.2759 0.0000
0.0000 0.3448 0.0000
0.0000 0.4138 0.0000
0.0000 0.4828 0.0000
0.0000 0.5517 0.0000
0.0000 0.6207 0.0000
0.0000 0.6897 0.0000
0.0000 0.7586 0.0000
0.0000 0.8276 0.0000
0.0000 0.8966 0.0000
0.0000 0.9655 0.0000
0.0000 1.0345 0.0000
0.0000 1.1034 0.0000
0.0000 1.1724 0.0000
0.0000 1.2414 0.0000
0.0000 1.3103 0.0000
0.0000 1.3793 0.0000
0.0000 1.4483 0.0000
0.0000 1.5172 0.0000
0.0000 1.5862 0.0000
0.0000 1.6552 0.0000
0.0000 1.7241 0.0000
0.0000 1.7931 0.0000
0.0000 1.8621 0.0000
0.0000 1.9310 0.0000
0.0000 2.0000 0.0000
1.0345 0.0000 0.0000
1.0345 0.0690 0.0000
1.0345 0.1379 0.0000
1.0345 0.2069 0.0000
1.0345 0.2759 0.0000
1.0345 0.3448 0.0000
1.0345 0.4138 0.0000
1.0345 0.4828 0.0000
1.0345 0.5517 0.0000
1.0345 0.6207 0.0000
1.0345 0.6897 0.0000
1.0345 0.7586 0.0000
1.0345 0.8276 0.0000
1.0345 0.8966 0.0000
1.0345 0.9655 0.0000
1.0345 1.0345 0.0000
1.0345 1.1034 0.0000
1.0345 1.1724 0.0000
1.0345 1.2414 0.0000
1.0345 1.3103 0.0000
1.0345 1.3793 0.0000
1.0345 1.4483 0.0000
1.0345 1.5172 0.0000
1.0345 1.5862 0.0000
1.0345 1.6552 0.0000
1.0345 1.7241 0.0000
1.0345 1.7931 0.0000
1.0345 1.8621 0.0000
1.0345 1.9310 0.0000
1.0345 2.0000 0.0000
2.0690 0.0000 0.0000
2.0690 0.0690 0.0000
2.0690 0.1379 0.0000
2.0690 0.2069 0.0000
2.0690 0.2759 0.0000
2.0690 0.3448 0.0000
2.0690 0.4138 0.0000
2.0690 0.4828 0.0000
2.0690 0.5517 0.0000
2.0690 0.6207 0.0000
2.0690 0.6897 0.0000
2.0690 0.7586 0.0000
2.0690 0.8276 0.0000
2.0690 0.8966 0.0000
2.0690 0.9655 0.0000
2.0690 1.0345 0.0000
2.0690 1.1034 0.0000
2.0690 1.1724 0.0000
2.0690 1.2414 0.0000
2.0690 1.3103 0.0000
2.0690 1.3793 0.0000
2.0690 1.4483 0.0000
2.0690 1.5172 0.0000
2.0690 1.5862 0.0000
2.0690 1.6552 0.0000
2.0690 1.7241 0.0000
2.0690 1.7931 0.0000
2.0690 1.8621 0.0000
2.0690 1.9310 0.0000
2.0690 2.0000 0.0000
3.1034 0.0000 0.0000
3.1034 0.0690 0.0000
3.1034 0.1379 0.0000
3.1034 0.2069 0.0000
3.1034 0.2759 0.0000
3.1034 0.3448 0.0000
3.1034 0.4138 0.0000
3.1034 0.4828 0.0000
3.1034 0.5517 0.0000
3.1034 0.6207 0.0000
3.1034 0.6897 0.0000
3.1034 0.7586 0.0000
3.1034 0.8276 0.0000
3.1034 0.8966 0.0000
3.1034 0.9655 0.0000
3.1034 1.0345 0.0000
3.1034 1.1034 0.0000
3.1034 1.1724 0.0000
3.1034 1.2414 0.0000
3.1034 1.3103 0.0000
3.1034 1.3793 0.0000
3.1034 1.4483 0.0000
3.1034 1.5172 0.0000
3.1034 1.5862 0.0000
3.1034 1.6552 0.0000
3.1034 1.7241 0.0000
3.1034 1.7931 0.0000
3.1034 1.8621 0.0000
3.1034 1.9310 0.0000
3.1034 2.0000 0.0000
4.1379 0.0000 0.0000
4.1379 0.0690 0.0000
4.1379 0.1379 0.0000
4.1379 0.2069 0.0000
4.1379 0.2759 0.0000
4.1379 0.3448 0.0000
4.1379 0.4138 0.0000
4.1379 0.4828 0.0000
4.1379 0.5517 0.0000
4.1379 0.6207 0.0000
4.1379 0.6897 0.0000
4.1379 0.7586 0.0000
4.1379 0.8276 0.0000
4.1379 0.8966 0.0000
4.1379 0.9655 0.0000
4.1379 1.0345 0.0000
4.1379 1.1034 0.0000
4.1379 1.1724 0.0000
4.1379 1.2414 0.0000
4.1379 1.3103 0.0000
4.1379 1.3793 0.0000
4.1379 1.4483 0.0000
4.1379 1.5172 0.0000
4.1379 1.5862 0.0000
4.1379 1.6552 0.0000
4.1379 1.7241 0.0000
4.1379 1.7931 0.0000
4.1379 1.8621 0.0000
4.1379 1.9310 0.0000
4.1379 2.0000 0.0000
5.1724 0.0000 0.0000
5.1724 0.0690 0.0000
5.1724 0.1379 0.0000
5.1724 0.2069 0.0000
5.1724 0.2759 0.0000
5.1724 0.3448 0.0000
5.1724 0.4138 0.0000
5.1724 0.4828 0.0000
5.1724 0.5517 0.0000
5.1724 0.6207 0.0000
5.1724 0.6897 0.0000
5.1724 0.7586 0.0000
5.1724 0.8276 0.0000
5.1724 0.8966 0.0000
5.1724 0.9655 0.0000
5.1724 1.0345 0.0000
5.1724 1.1034 0.0000
5.1724 1.1724 0.0000
5.1724 1.2414 0.0000
5.1724 1.3103 0.0000
5.1724 1.3793 0.0000
5.1724 1.4483 0.0000
5.1724 1.5172 0.0000
5.1724 1.5862 0.0000
5.1724 1.6552 0.0000
5.1724 1.7241 0.0000
5.1724 1.7931 0.0000
5.1724 1.8621 0.0000
5.1724 1.9310 0.0000
5.1724 2.0000 0.0000
6.2069 0.0000 0.0000
6.2069 0.0690 0.0000
6.2069 0.1379 0.0000
6.2069 0.2069 0.0000
6.2069 0.2759 0.0000
6.2069 0.3448 0.0000
6.2069 0.4138 0.0000
6.2069 0.4828 0.0000
6.2069 0.5517 0.0000
6.2069 0.6207 0.0000
6.2069 0.6897 0.0000
6.2069 0.7586 0.0000
6.2069 0.8276 0.0000
6.2069 0.8966 0.0000
6.2069 0.9655 0.0000
6.2069 1.0345 0.0000
6.2069 1.1034 0.0000
6.2069 1.1724 0.0000
6.2069 1.2414 0.0000
6.2069 1.3103 0.0000
6.2069 1.3793 0.0000
6.2069 1.4483 0.0000
6.2069 1.5172 0.0000
6.2069 1.5862 0.0000
6.2069 1.6552 0.0000
6.2069 1.7241 0.0000
6.2069 1.7931 0.0000
6.2069 1.8621 0.0000
6.2069 1.9310 0.0000
6.2069 2.0000 0.0000
7.2414 0.0000 0.0000
7.2414 0.0690 0.0000
7.2414 0.1379 0.0000
7.2414 0.2069 0.0000
7.2414 0.2759 0.0000
7.2414 0.3448 0.0000
7.2414 0.4138 0.0000
7.2414 0.4828 0.0000
7.2414 0.5517 0.0000
7.2414 0.6207 0.0000
7.2414 0.6897 0.0000
7.2414 0.7586 0.0000
7.2414 0.8276 0.0000
7.2414 0.8966 0.0000
7.2414 0.9655 0.0000
7.2414 1.0345 0.0000
7.2414 1.1034 0.0000
7.2414 1.1724 0.0000
7.2414 1.2414 0.0000
7.2414 1.3103 0.0000
7.2414 1.3793 0.0000
7.2414 1.4483 0.0000
7.2414 1.5172 0.0000
7.2414 1.5862 0.0000
7.2414 1.6552 0.0000
7.2414 1.7241 0.0000
7.2414 1.7931 0.0000
7.2414 1.8621 0.0000
7.2414 1.9310 0.0000
7.2414 2.0000 0.0000
8.2759 0.0000 0.0000
8.2759 0.0690 0.0000
8.2759 0.1379 0.0000
8.2759 0.2069 0.0000
8.2759 0.2759 0.0000
8.2759 0.3448 0.0000
8.2759 0.4138 0.0000
8.2759 0.4828 0.0000
8.2759 0.5517 0.0000
8.2759 0.6207 0.0000
8.2759 0.6897 0.0000
8.2759 0.7586 0.0000
8.2759 0.8276 0.0000
8.2759 0.8966 0.0000
8.2759 0.9655 0.0000
8.2759 1.0345 0.0000
8.2759 1.1034 0.0000
8.2759 1.1724 0.0000
8.2759 1.2414 0.0000
8.2759 1.3103 0.0000
8.2759 1.3793 0.0000
8.2759 1.4483 0.0000
8.2759 1.5172 0.0000
8.2759 1.5862 0.0000
8.2759 1.6552 0.0000
8.2759 1.7241 0.0000
8.2759 1.7931 0.0000
8.2759 1.8621 0.0000
8.2759 1.9310 0.0000
8.2759 2.0000 0.0000
9.3103 0.0000 0.0000
9.3103 0.0690 0.0000
9.3103 0.1379 0.0000
9.3103 0.2069 0.0000
9.3103 0.2759 0.0000
9.3103 0.3448 0.0000
9.3103 0.4138 0.0000
9.3103 0.4828 0.0000
9.3103 0.5517 0.0000
9.3103 0.6207 0.0000
9.3103 0.6897 0.0000
9.3103 0.7586 0.0000
9.3103 0.8276 0.0000
9.3103 0.8966 0.0000
9.3103 0.9655 0.0000
9.3103 1.0345 0.0000
9.3103 1.1034 0.0000
9.3103 1.1724 0.0000
9.3103 1.2414 0.0000
9.3103 1.3103 0.0000
9.3103 1.3793 0.0000
9.3103 1.4483 0.0000
9.3103 1.5172 0.0000
9.3103 1.5862 0.0000
9.3103 1.6552 0.0000
9.3103 1.7241 0.0000
9.3103 1.7931 0.0000
9.3103 1.8621 0.0000
9.3103 1.9310 0.0000
9.3103 2.0000 0.0000
10.3448 0.0000 0.0000
10.3448 0.0690 0.0000
10.3448 0.1379 0.0000
10.3448 0.2069 0.0000
10.3448 0.2759 0.0000
10.3448 0.3448 0.0000
10.3448 0.4138 0.0000
10.3448 0.4828 0.0000
10.3448 0.5517 0.0000
10.3448 0.6207 0.0000
10.3448 0.6897 0.0000
10.3448 0.7586 0.0000
10.3448 0.8276 0.0000
10.3448 0.8966 0.0000
10.3448 0.9655 0.0000
10.3448 1.0345 0.0000
10.3448 1.1034 0.0000
10.3448 1.1724 0.0000
10.3448 1.2414 0.0000
10.3448 1.3103 0.0000
10.3448 1.3793 0.0000
10.3448 1.4483 0.0000
10.3448 1.5172 0.0000
10.3448 1.5862 0.0000
10.3448 1.6552 0.0000
10.3448 1.7241 0.0000
10.3448 1.7931 0.0000
10.3448 1.8621 0.0000
10.3448 1.9310 0.0000
10.3448 2.0000 0.0000
11.3793 0.0000 0.0000
11.3793 0.0690 0.0000
11.3793 0.1379 0.0000
11.3793 0.2069 0.0000
11.3793 0.2759 0.0000
11.3793 0.3448 0.0000
11.3793 0.4138 0.0000
11.3793 0.4828 0.0000
11.3793 0.5517 0.0000
11.3793 0.6207 0.0000
11.3793 0.6897 0.0000
11.3793 0.7586 0.0000
11.3793 0.8276 0.0000
11.3793 0.8966 0.0000
11.3793 0.9655 0.0000
11.3793 1.0345 0.0000
11.3793 1.1034 0.0000
11.3793 1.1724 0.0000
11.3793 1.2414 0.0000
11.3793 1.3103 0.0000
11.3793 1.3793 0.0000
11.3793 1.4483 0.0000
11.3793 1.5172 0.0000
11.3793 1.5862 0.0000
11.3793 1.6552 0.0000
11.3793 1.7241 0.0000
11.3793 1.7931 0.0000
11.3793 1.8621 0.0000
11.3793 1.9310 0.0000
11.3793 2.0000 0.0000
12.4138 0.0000 0.0000
12.4138 0.0690 0.0000
12.4138 0.1379 0.0000
12.4138 0.2069 0.0000
12.4138 0.2759 0.0000
12.4138 0.3448 0.0000
12.4138 0.4138 0.0000
12.4138 0.4828 0.0000
12.4138 0.5517 0.0000
12.4138 0.6207 0.0000
12.4138 0.6897 0.0000
12.4138 0.7586 0.0000
12.4138 0.8276 0.0000
12.4138 0.8966 0.0000
12.4138 0.9655 0.0000
12.4138 1.0345 0.0000
12.4138 1.1034 0.0000
12.4138 1.1724 0.0000
12.4138 1.2414 0.0000
12.4138 1.3103 0.0000
12.4138 1.3793 0.0000
12.4138 1.4483 0.0000
12.4138 1.5172 0.0000
12.4138 1.5862 0.0000
12.4138 1.6552 0.0000
12.4138 1.7241 0.0000
12.4138 1.7931 0.0000
12.4138 1.8621 0.0000
12.4138 1.9310 0.0000
12.4138 2.0000 0.0000
13.4483 0.0000 0.0000
13.4483 0.0690 0.0000
13.4483 0.1379 0.0000
13.4483 0.2069 0.0000
13.4483 0.2759 0.0000
13.4483 0.3448 0.0000
13.4483 0.4138 0.0000
13.4483 0.4828 0.0000
13.4483 0.5517 0.0000
13.4483 0.6207 0.0000
13.4483 0.6897 0.0000
13.4483 0.7586 0.0000
13.4483 0.8276 0.0000
13.4483 0.8966 0.0000
13.4483 0.9655 0.0000
13.4483 1.0345 0.0000
13.4483 1.1034 0.0000
13.4483 1.1724 0.0000
13.4483 1.2414 0.0000
13.4483 1.3103 0.0000
13.4483 1.3793 0.0000
13.4483 1.4483 0.0000
13.4483 1.5172 0.0000
13.4483 1.5862 0.0000
13.4483 1.6552 0.0000
13.4483 1.7241 0.0000
13.4483 1.7931 0.0000
13.4483 1.8621 0.0000
13.4483 1.9310 0.0000
13.4483 2.0000 0.0000
14.4828 0.0000 0.0000
14.4828 0.0690 0.0000
14.4828 0.1379 0.0000
14.4828 0.2069 0.0000
14.4828 0.2759 0.0000
14.4828 0.3448 0.0000
14.4828 0.4138 0.0000
14.4828 0.4828 0.0000
14.4828 0.5517 0.0000
14.4828 0.6207 0.0000
14.4828 0.6897 0.0000
14.4828 0.7586 0.0000
14.4828 0.8276 0.0000
14.4828 0.8966 0.0000
14.4828 0.9655 0.0000
14.4828 1.0345 0.0000
14.4828 1.1034 0.0000
14.4828 1.1724 0.0000
14.4828 1.2414 0.0000
14.4828 1.3103 0.0000
14.4828 1.3793 0.0000
14.4828 1.4483 0.0000
14.4828 1.5172 0.0000
14.4828 1.5862 0.0000
14.4828 1.6552 0.0000
14.4828 1.7241 0.0000
14.4828 1.7931 0.0000
14.4828 1.8621 0.0000
14.4828 1.9310 0.0000
14.4828 2.0000 0.0000
15.5172 0.0000 0.0000
15.5172 0.0690 0.0000
15.5172 0.1379 0.0000
15.5172 0.2069 0.0000
[...]
         <PointData>
            <DataArray Name="fValues" NumberOfComponents="3" format="ascii" type="Float64">
-1.90232e-17 -4.71457e-17        00000 
 8.59909e-18  8.59909e-18        00000 
-3.40137e-17 -2.97620e-17        00000 
 4.87455e-18  2.11008e-17        00000 
-5.31464e-18 -2.55103e-17        00000 
 4.10260e-18 -3.45358e-18        00000 
 5.31464e-19 -4.25172e-17        00000 
-4.67422e-19  5.71591e-17        00000 
-4.25172e-18 -2.76362e-17        00000 
-8.24714e-18  1.52723e-17        00000 
-2.12586e-18 -2.76362e-17        00000 
-2.04330e-17  1.64266e-17        00000 
 2.76362e-17        00000        00000 
-6.29380e-18 -8.55011e-18        00000 
 1.27551e-17  4.25172e-18        00000 
 1.85633e-17  9.34845e-18        00000 
 4.36797e-18 -2.23215e-17        00000 
 5.97174e-18  1.58333e-17        00000 
-3.27183e-18  4.25172e-18        00000 
-3.53905e-18 -9.83256e-18        00000 
-3.18879e-18 -2.65732e-19        00000 
-1.17138e-17 -1.02765e-17        00000 
 6.37757e-18  7.17477e-18        00000 
-3.00486e-18 -4.74100e-18        00000 
-1.59439e-18  5.84611e-18        00000 
 4.89530e-19 -7.78222e-18        00000 
-1.16922e-17 -2.12586e-18        00000 
 7.29201e-18  7.76030e-18        00000 
-2.94813e-18  1.39366e-17        00000 
 3.19775e-18 -2.31699e-17        00000 
 1.91608e-01  2.95203e-01        00000 
 2.05346e-01  3.02261e-01        00000 
 1.78477e-01  2.90006e-01        00000 
 1.30650e-01  2.77083e-01        00000 
 7.29559e-02  2.75779e-01        00000 
 5.89889e-02  2.66165e-01        00000 
 6.43595e-02  2.65051e-01        00000 
 1.69859e-02  2.60294e-01        00000 
-4.34421e-02  2.52256e-01        00000 
-1.34272e-01  2.31406e-01        00000 
-1.93965e-01  2.14420e-01        00000 
-2.43619e-01  2.11686e-01        00000 
-2.25862e-01  1.98545e-01        00000 
-1.96365e-01  1.81497e-01        00000 
-1.72674e-01  1.60742e-01        00000 
-1.24138e-01  1.25154e-01        00000 
-5.56497e-02  1.15817e-01        00000 
-1.52709e-03  9.11906e-02        00000 
 6.21863e-02  7.85354e-02        00000 
 6.30112e-02  7.20515e-02        00000 
 7.11381e-02  4.51412e-02        00000 
 9.00955e-02  2.79214e-02        00000 
 7.69979e-02  1.83338e-02        00000 
 3.17405e-02  1.48037e-02        00000 
 1.56369e-02  2.73257e-02        00000 
 4.30605e-02  4.47876e-02        00000 
 3.40040e-02  6.16848e-02        00000 
 2.75077e-02  6.09246e-02        00000 
 2.57404e-02  6.67676e-02        00000 
 7.87963e-03  7.02768e-02        00000 
-3.87144e-01 -4.09924e-01        00000 
-3.58977e-01 -3.89279e-01        00000 
-3.39792e-01 -3.67575e-01        00000 
-2.44168e-01 -3.30021e-01        00000 
-1.90487e-01 -3.23124e-01        00000 
-1.81053e-01 -3.06625e-01        00000 
-1.84337e-01 -2.96589e-01        00000 
-2.00179e-01 -2.81353e-01        00000 
-1.49427e-01 -2.83673e-01        00000 
-7.82120e-02 -2.89595e-01        00000 
 2.60170e-04 -2.91297e-01        00000 
 9.40076e-02 -3.07972e-01        00000 
 1.37568e-01 -3.21426e-01        00000 
 1.81352e-01 -3.01382e-01        00000 
 2.12784e-01 -2.89890e-01        00000 
 2.08301e-01 -2.85616e-01        00000 
 1.61292e-01 -2.85404e-01        00000 
 1.37560e-01 -2.75377e-01        00000 
 1.22830e-01 -2.80233e-01        00000 
 1.40451e-01 -2.86960e-01        00000 
 1.61050e-01 -2.80766e-01        00000 
 1.94460e-01 -2.84089e-01        00000 
 2.16835e-01 -2.88732e-01        00000 
 2.36961e-01 -3.11372e-01        00000 
 2.07214e-01 -3.40495e-01        00000 
 1.89457e-01 -3.89363e-01        00000 
 1.55745e-01 -4.21362e-01        00000 
 1.24547e-01 -4.31368e-01        00000 
 8.91019e-02 -4.58686e-01        00000 
 1.01530e-01 -4.70740e-01        00000 
-3.44453e-02 -2.60645e-01        00000 
-6.98796e-02 -2.79575e-01        00000 
-8.90295e-02 -2.96842e-01        00000 
-1.33975e-01 -3.06463e-01        00000 
-1.22795e-01 -3.06095e-01        00000 
-6.76962e-02 -3.05972e-01        00000 
 3.67411e-03 -3.07038e-01        00000 
 9.57958e-02 -3.28211e-01        00000 
 1.48917e-01 -3.51586e-01        00000 
 1.89995e-01 -3.78586e-01        00000 
 1.85473e-01 -3.88634e-01        00000 
 1.79797e-01 -3.93595e-01        00000 
 1.30180e-01 -4.09955e-01        00000 
 8.69717e-02 -4.26348e-01        00000 
 6.56598e-02 -4.54895e-01        00000 
 8.82928e-02 -4.78788e-01        00000 
 1.01292e-01 -4.82098e-01        00000 
 1.30881e-01 -4.79914e-01        00000 
 1.41753e-01 -4.68147e-01        00000 
 1.27887e-01 -4.59715e-01        00000 
 1.20518e-01 -4.61508e-01        00000 
 1.09714e-01 -4.41400e-01        00000 
 9.58895e-02 -4.25521e-01        00000 
 9.15676e-02 -3.98865e-01        00000 
 8.91741e-02 -3.44380e-01        00000 
 6.52721e-02 -3.01612e-01        00000 
 6.86123e-02 -2.61456e-01        00000 
 2.12195e-02 -2.32459e-01        00000 
-3.13816e-02 -2.30223e-01        00000 
-8.51252e-02 -2.14567e-01        00000 
-1.13918e-01 -1.07883e-01        00000 
-6.89507e-02 -1.00156e-01        00000 
-6.56833e-02 -9.71389e-02        00000 
-5.15959e-02 -9.39834e-02        00000 
-5.55701e-02 -9.49684e-02        00000 
-1.07881e-01 -1.12079e-01        00000 
-1.88809e-01 -1.09912e-01        00000 
-2.59464e-01 -1.02651e-01        00000 
-2.98054e-01 -7.81513e-02        00000 
-3.24924e-01 -4.85709e-02        00000 
-3.48047e-01 -3.80944e-02        00000 
-3.22467e-01 -3.62046e-02        00000 
-3.06256e-01 -2.54876e-02        00000 
-2.93316e-01 -8.44936e-03        00000 
-2.57366e-01  1.55545e-02        00000 
-2.69580e-01  3.29879e-02        00000 
-2.93450e-01  3.96098e-02        00000 
-3.27836e-01  5.06706e-02        00000 
-3.41258e-01  6.32237e-02        00000 
-3.38210e-01  7.53317e-02        00000 
-3.35344e-01  1.06377e-01        00000 
-3.83588e-01  1.31222e-01        00000 
-4.30327e-01  1.59581e-01        00000 
-4.58410e-01  1.76594e-01        00000 
-4.75831e-01  1.94849e-01        00000 
-4.71245e-01  2.03343e-01        00000 
-4.64019e-01  2.09828e-01        00000 
-4.65970e-01  2.18534e-01        00000 
-4.42709e-01  2.44730e-01        00000 
-4.43546e-01  2.48369e-01        00000 
-1.12431e-01 -2.95748e-01        00000 
-1.82573e-01 -3.13642e-01        00000 
-2.48570e-01 -3.22785e-01        00000 
-3.04397e-01 -3.51055e-01        00000 
-3.36114e-01 -3.56427e-01        00000 
-3.36915e-01 -3.54704e-01        00000 
-3.22285e-01 -3.65244e-01        00000 
-3.04178e-01 -3.81002e-01        00000 
-3.40085e-01 -3.94747e-01        00000 
-3.47994e-01 -4.18835e-01        00000 
-3.05588e-01 -4.41528e-01        00000 
-3.01280e-01 -4.50994e-01        00000 
-2.99315e-01 -4.49924e-01        00000 
-3.07619e-01 -4.55919e-01        00000 
-3.01053e-01 -4.59745e-01        00000 
-3.45487e-01 -4.35284e-01        00000 
-3.96194e-01 -4.13187e-01        00000 
-4.12112e-01 -3.85318e-01        00000 
-4.38876e-01 -3.44086e-01        00000 
-4.53260e-01 -3.15159e-01        00000 
-4.13170e-01 -3.03658e-01        00000 
-3.73368e-01 -2.94497e-01        00000 
-3.27432e-01 -2.92574e-01        00000 
-2.97675e-01 -2.77790e-01        00000 
-2.86392e-01 -2.70488e-01        00000 
-2.71796e-01 -2.62237e-01        00000 
-2.77712e-01 -2.52087e-01        00000 
-2.84305e-01 -2.57854e-01        00000 
-2.79879e-01 -2.59468e-01        00000 
-2.32936e-01 -2.52640e-01        00000 
 3.09392e-01 -1.87627e-02        00000 
 3.25658e-01 -3.23711e-02        00000 
 3.65172e-01 -6.03490e-02        00000 
 3.74426e-01 -8.15370e-02        00000 
 3.33494e-01 -1.03967e-01        00000 
 2.60771e-01 -1.35955e-01        00000 
 2.10807e-01 -1.62519e-01        00000 
 1.98006e-01 -1.81777e-01        00000 
 2.08625e-01 -2.02122e-01        00000 
 1.83858e-01 -2.21532e-01        00000 
 1.23152e-01 -2.42250e-01        00000 
 8.85113e-02 -2.77694e-01        00000 
 1.60273e-02 -3.00893e-01        00000 
-6.10912e-02 -3.39433e-01        00000 
-1.18788e-01 -3.70901e-01        00000 
-1.57779e-01 -4.00638e-01        00000 
-1.88888e-01 -4.42559e-01        00000 
-2.22121e-01 -4.80534e-01        00000 
-2.52386e-01 -5.21117e-01        00000 
-2.96166e-01 -5.57354e-01        00000 
-3.21012e-01 -5.71235e-01        00000 
-3.50573e-01 -5.71035e-01        00000 
-3.69090e-01 -5.64250e-01        00000 
-3.70037e-01 -5.55873e-01        00000 
-3.47773e-01 -5.62806e-01        00000 
-3.18284e-01 -5.40492e-01        00000 
-2.95774e-01 -5.22788e-01        00000 
-3.11569e-01 -4.93013e-01        00000 
-3.24383e-01 -4.66813e-01        00000 
-3.86825e-01 -4.54984e-01        00000 
 6.72988e-01  2.95784e-01        00000 
 5.93756e-01  2.94717e-01        00000 
 5.11387e-01  2.95421e-01        00000 
 4.24795e-01  3.06568e-01        00000 
 3.60165e-01  3.17218e-01        00000 
 2.98861e-01  3.25838e-01        00000 
 2.31842e-01  3.37679e-01        00000 
 1.44469e-01  3.34654e-01        00000 
 6.34981e-02  3.21413e-01        00000 
 8.70206e-03  3.06080e-01        00000 
-4.12054e-02  2.83459e-01        00000 
-7.95699e-02  2.59605e-01        00000 
-1.08554e-01  2.30106e-01        00000 
-1.30449e-01  1.97126e-01        00000 
-1.27219e-01  1.65887e-01        00000 
-1.16217e-01  1.39571e-01        00000 
-1.50539e-01  1.16660e-01        00000 
-1.77525e-01  1.04363e-01        00000 
-2.25585e-01  9.79760e-02        00000 
-2.58048e-01  9.73443e-02        00000 
-3.19964e-01  7.59174e-02        00000 
-3.54693e-01  4.49102e-02        00000 
-3.87609e-01  1.35846e-02        00000 
-4.33187e-01 -1.46226e-02        00000 
-4.90251e-01 -2.94908e-02        00000 
-5.56986e-01 -4.64802e-02        00000 
-6.13644e-01 -5.95646e-02        00000 
-6.28229e-01 -7.36339e-02        00000 
-6.33958e-01 -7.88540e-02        00000 
-6.73365e-01 -8.12352e-02        00000 
 2.99569e-01  1.13630e+00        00000 
 2.51024e-01  1.16305e+00        00000 
 2.01263e-01  1.17744e+00        00000 
 1.64886e-01  1.19906e+00        00000 
 9.88187e-02  1.20980e+00        00000 
 4.35738e-02  1.21959e+00        00000 
-2.93483e-04  1.23490e+00        00000 
-4.68381e-03  1.25235e+00        00000 
-5.54501e-03  1.28557e+00        00000 
-3.71276e-02  1.29691e+00        00000 
-8.67801e-02  1.31781e+00        00000 
-1.26048e-01  1.31490e+00        00000 
-1.56383e-01  1.33226e+00        00000 
-1.74894e-01  1.35551e+00        00000 
-2.14992e-01  1.37675e+00        00000 
-2.58145e-01  1.40947e+00        00000 
-3.10347e-01  1.42451e+00        00000 
-3.42753e-01  1.44751e+00        00000 
-3.45700e-01  1.47335e+00        00000 
-3.35082e-01  1.48875e+00        00000 
-3.36348e-01  1.50657e+00        00000 
-3.23933e-01  1.53246e+00        00000 
-3.19626e-01  1.57591e+00        00000 
-3.37762e-01  1.60076e+00        00000 
-3.55319e-01  1.61265e+00        00000 
-3.99284e-01  1.60923e+00        00000 
-4.99279e-01  1.61219e+00        00000 
-6.16978e-01  1.62297e+00        00000 
-7.36056e-01  1.62202e+00        00000 
-8.35323e-01  1.62619e+00        00000 
-7.85697e-01  1.27175e+00        00000 
-7.46924e-01  1.28750e+00        00000 
-7.08321e-01  1.30386e+00        00000 
-6.77181e-01  1.32945e+00        00000 
-6.60063e-01  1.34283e+00        00000 
-6.23324e-01  1.35276e+00        00000 
-5.75476e-01  1.35854e+00        00000 
-5.29611e-01  1.36607e+00        00000 
-5.09562e-01  1.37917e+00        00000 
-4.77009e-01  1.40399e+00        00000 
-4.74604e-01  1.43664e+00        00000 
-4.65019e-01  1.47945e+00        00000 
-4.73195e-01  1.50269e+00        00000 
-4.94983e-01  1.52733e+00        00000 
-5.08337e-01  1.53507e+00        00000 
-4.83330e-01  1.55394e+00        00000 
-4.37126e-01  1.56519e+00        00000 
-4.40189e-01  1.57411e+00        00000 
-4.31845e-01  1.58594e+00        00000 
-4.29888e-01  1.58096e+00        00000 
-4.36020e-01  1.57708e+00        00000 
-4.09357e-01  1.57364e+00        00000 
-3.81840e-01  1.57097e+00        00000 
-3.54592e-01  1.56702e+00        00000 
-3.50787e-01  1.61150e+00        00000 
-3.22581e-01  1.63236e+00        00000 
-2.99860e-01  1.64665e+00        00000 
-2.51456e-01  1.66942e+00        00000 
-2.00324e-01  1.67016e+00        00000 
-1.53747e-01  1.66041e+00        00000 
-6.42158e-01  6.36810e-01        00000 
-5.82003e-01  6.16609e-01        00000 
-5.22385e-01  5.83161e-01        00000 
-4.59098e-01  5.49799e-01        00000 
-3.98718e-01  5.28128e-01        00000 
-3.73042e-01  4.98655e-01        00000 
-3.78326e-01  4.67525e-01        00000 
-3.85723e-01  4.19016e-01        00000 
-4.41799e-01  3.88033e-01        00000 
-5.05053e-01  3.45717e-01        00000 
-5.81974e-01  2.81140e-01        00000 
-6.30679e-01  2.40320e-01        00000 
-6.54805e-01  1.90737e-01        00000 
-6.64220e-01  1.50821e-01        00000 
-6.52058e-01  1.09999e-01        00000 
-6.65749e-01  8.28977e-02        00000 
-6.64019e-01  4.64228e-02        00000 
-6.15784e-01  2.37272e-02        00000 
-5.53450e-01 -2.54013e-03        00000 
-5.25361e-01 -1.31659e-02        00000 
-5.14779e-01 -1.22657e-02        00000 
-5.44424e-01 -1.01277e-02        00000 
-5.95779e-01  6.33560e-04        00000 
-5.82551e-01  1.99417e-02        00000 
-5.90665e-01  1.72957e-02        00000 
-5.87515e-01  1.91648e-02        00000 
-5.33109e-01  2.08421e-02        00000 
-4.98993e-01  2.57339e-02        00000 
-4.50911e-01  3.55937e-02        00000 
-3.94157e-01  4.99036e-02        00000 
-4.99665e-01 -2.41659e-01        00000 
-4.90313e-01 -2.31676e-01        00000 
-5.07329e-01 -2.20507e-01        00000 
-5.97920e-01 -1.87507e-01        00000 
-6.64830e-01 -1.68632e-01        00000 
-6.89223e-01 -1.63299e-01        00000 
-6.56047e-01 -1.43285e-01        00000 
-6.23112e-01 -1.19153e-01        00000 
-5.81652e-01 -1.18139e-01        00000 
-6.01972e-01 -1.09334e-01        00000 
-6.18406e-01 -1.03546e-01        00000 
-6.65192e-01 -8.29094e-02        00000 
-7.44111e-01 -7.18050e-02        00000 
-8.25839e-01 -4.19379e-02        00000 
-8.80366e-01 -2.12628e-02        00000 
-9.05588e-01  1.29355e-02        00000 
-8.99593e-01  6.27960e-02        00000 
-9.13377e-01  1.15855e-01        00000 
-9.68224e-01  1.58882e-01        00000 
-9.58117e-01  1.97349e-01        00000 
-9.03733e-01  2.31334e-01        00000 
-8.47705e-01  2.61139e-01        00000 
-7.96487e-01  2.88454e-01        00000 
-7.25707e-01  3.14939e-01        00000 
-6.85054e-01  3.56494e-01        00000 
-6.72249e-01  3.91594e-01        00000 
-6.89066e-01  4.13974e-01        00000 
-6.91795e-01  4.33166e-01        00000 
-6.85609e-01  4.48037e-01        00000 
-7.23305e-01  4.68665e-01        00000 
-1.10723e+00  6.60460e-01        00000 
-1.16786e+00  6.54928e-01        00000 
-1.24281e+00  6.55859e-01        00000 
-1.29069e+00  6.56543e-01        00000 
-1.32778e+00  6.53655e-01        00000 
-1.42147e+00  6.44656e-01        00000 
-1.45896e+00  6.38960e-01        00000 
-1.48391e+00  6.38060e-01        00000 
-1.45490e+00  6.29170e-01        00000 
-1.39385e+00  6.29848e-01        00000 
-1.39265e+00  6.42743e-01        00000 
-1.41391e+00  6.43041e-01        00000 
-1.39587e+00  6.41225e-01        00000 
-1.40955e+00  6.35088e-01        00000 
-1.39911e+00  6.10102e-01        00000 
-1.40167e+00  5.82467e-01        00000 
-1.43869e+00  5.59610e-01        00000 
-1.40544e+00  5.46134e-01        00000 
-1.37714e+00  5.27834e-01        00000 
-1.33998e+00  5.04666e-01        00000 
-1.31613e+00  5.05491e-01        00000 
-1.34796e+00  5.35937e-01        00000 
-1.39427e+00  5.52958e-01        00000 
-1.41124e+00  5.70471e-01        00000 
-1.42783e+00  5.93927e-01        00000 
-1.42241e+00  5.87257e-01        00000 
-1.41884e+00  6.00162e-01        00000 
-1.42938e+00  6.11873e-01        00000 
-1.46060e+00  6.28081e-01        00000 
-1.45559e+00  6.39798e-01        00000 
-9.52171e-01  8.45575e-01        00000 
-9.37767e-01  8.41411e-01        00000 
-9.59976e-01  8.30272e-01        00000 
-9.93371e-01  8.00032e-01        00000 
-9.93348e-01  7.86723e-01        00000 
-9.72438e-01  7.53718e-01        00000 
-1.00604e+00  7.21656e-01        00000 
-1.05304e+00  6.90099e-01        00000 
-1.15960e+00  6.63526e-01        00000 
-1.23659e+00  6.27442e-01        00000 
-1.22080e+00  5.97174e-01        00000 
-1.16122e+00  5.73442e-01        00000 
-1.14924e+00  5.42400e-01        00000 
-1.11111e+00  5.12413e-01        00000 
-1.09424e+00  4.81077e-01        00000 
-1.06745e+00  4.63468e-01        00000 
-1.02729e+00  4.28797e-01        00000 
-1.03327e+00  4.04784e-01        00000 
-1.05136e+00  3.73523e-01        00000 
-1.05361e+00  3.65690e-01        00000 
-1.03754e+00  3.37442e-01        00000 
-1.00377e+00  3.04710e-01        00000 
-9.82524e-01  2.74649e-01        00000 
-9.72088e-01  2.39299e-01        00000 
-9.66185e-01  2.03384e-01        00000 
-1.01614e+00  1.91562e-01        00000 
-1.03583e+00  1.74214e-01        00000 
-1.05577e+00  1.45633e-01        00000 
-1.04240e+00  1.15032e-01        00000 
-1.01333e+00  8.80175e-02        00000 
-2.56270e-01  1.14309e+00        00000 
-2.26095e-01  1.10101e+00        00000 
-1.80390e-01  1.06053e+00        00000 
-1.23244e-01  1.02630e+00        00000 
-1.15974e-01  9.74109e-01        00000 
-1.34485e-01  9.25167e-01        00000 
-1.32641e-01  9.00201e-01        00000 
-1.45087e-01  8.52129e-01        00000 
-8.37680e-02  8.12195e-01        00000 
-4.38826e-02  7.69157e-01        00000 
-5.09638e-02  7.13141e-01        00000 
-5.99819e-02  6.73165e-01        00000 
-6.52923e-02  6.51021e-01        00000 
-7.37280e-02  6.25506e-01        00000 
-8.45450e-02  6.14143e-01        00000 
-1.33123e-01  5.92307e-01        00000 
-1.80766e-01  5.70594e-01        00000 
-2.11871e-01  5.55833e-01        00000 
-1.96207e-01  5.43249e-01        00000 
-2.07566e-01  5.28323e-01        00000 
-1.64613e-01  5.20953e-01        00000 
-1.24891e-01  5.22669e-01        00000 
-8.20586e-02  5.14234e-01        00000 
-6.32687e-02  4.99523e-01        00000 
-3.54100e-02  5.01404e-01        00000 
-4.39957e-02  4.96067e-01        00000 
-4.48762e-02  4.83777e-01        00000 
-7.13383e-02  4.91420e-01        00000 
-9.24465e-02  4.97440e-01        00000 
-1.19810e-01  4.83536e-01        00000 
 9.68204e-02  3.22029e-01        00000 
 6.76219e-02  3.16298e-01        00000 
 5.16332e-02  3.19413e-01        00000 
 3.87456e-02  3.12483e-01        00000 
 4.60268e-02  3.21315e-01        00000 
 9.84602e-02  3.24146e-01        00000 
 1.19252e-01  3.17208e-01        00000 
 1.27702e-01  3.12709e-01        00000 
 9.73503e-02  3.28442e-01        00000 
 4.83016e-02  3.42929e-01        00000 
 4.36546e-02  3.56249e-01        00000 
 2.41852e-02  3.62222e-01        00000 
 4.66135e-03  3.76709e-01        00000 
-5.15978e-03  3.82789e-01        00000 
 1.06291e-02  3.86171e-01        00000 
 7.09948e-03  4.07316e-01        00000 
 2.63780e-02  4.16416e-01        00000 
 1.76897e-02  4.12109e-01        00000 
 1.67546e-02  4.02669e-01        00000 
-2.48288e-02  3.92341e-01        00000 
-8.07193e-02  3.77576e-01        00000 
-1.27305e-01  3.64323e-01        00000 
-1.42465e-01  3.61034e-01        00000 
-1.79426e-01  3.40212e-01        00000 
-2.36015e-01  3.40635e-01        00000 
-2.28960e-01  3.27540e-01        00000 
-2.09270e-01  3.13147e-01        00000 
-1.95647e-01  3.12108e-01        00000 
-1.89953e-01  3.03544e-01        00000 
-1.69940e-01  2.99520e-01        00000 
 1.32332e-01  6.23223e-01        00000 
 1.27738e-01  6.14140e-01        00000 
 1.26212e-01  5.97139e-01        00000 
 1.35812e-01  5.95121e-01        00000 
 1.39014e-01  5.63497e-01        00000 
 8.51867e-02  5.56121e-01        00000 
 5.48950e-02  5.49015e-01        00000 
 9.78976e-02  5.49837e-01        00000 
 1.65359e-01  5.43201e-01        00000 
 2.42363e-01  5.43528e-01        00000 
 3.20770e-01  5.28580e-01        00000 
 3.66236e-01  5.16340e-01        00000 
 3.63236e-01  5.01760e-01        00000 
 3.26054e-01  4.87080e-01        00000 
 2.77722e-01  4.70651e-01        00000 
 2.14453e-01  4.61593e-01        00000 
 1.77426e-01  4.46187e-01        00000 