<?xml version="1.0" encoding="utf-8"?>
<VTKFile byte_order="LittleEndian" type="UnstructuredGrid" version="0.1">
   <UnstructuredGrid>
      <Piece NumberOfCells="3364" NumberOfPoints="1741">
         <Points>
            <DataArray Name="Points" NumberOfComponents="3" format="ascii" type="Float32">
0.0000 0.0000 0.0000
0.0000 0.0690 0.0000
0.0000 0.1379 0.0000
0.0000 0.2069 0.0000
0.0000 0.2759 0.0000
0.0000 0.3448 0.0000
0.0000 0.4138 0.0000
0.0000 0.4828 0.0000
0.0000 0.5517 0.0000
0.0000 0.6207 0.0000
0.0000 0.6897 0.0000
0.0000 0.7586 0.0000
0.0000 0.8276 0.0000
0.0000 0.8966 0.0000
0.0000 0.9655 0.0000
0.0000 1.0345 0.0000
0.0000 1.1034 0.0000
0.0000 1.1724 0.0000
0.0000 1.2414 0.0000
0.0000 1.3103 0.0000
0.0000 1.3793 0.0000
0.0000 1.4483 0.0000
0.0000 1.5172 0.0000
0.0000 1.5862 0.0000
0.0000 1.6552 0.0000
0.0000 1.7241 0.0000
0.0000 1.7931 0.0000
0.0000 1.8621 0.0000
0.0000 1.9310 0.0000
0.0000 2.0000 0.0000
1.0345 0.0000 0.0000
1.0345 0.0690 0.0000
1.0345 0.1379 0.0000
1.0345 0.2069 0.0000
1.0345 0.2759 0.0000
1.0345 0.3448 0.0000
1.0345 0.4138 0.0000
1.0345 0.4828 0.0000
1.0345 0.5517 0.0000
1.0345 0.6207 0.0000
1.0345 0.6897 0.0000
1.0345 0.7586 0.0000
1.0345 0.8276 0.0000
1.0345 0.8966 0.0000
1.0345 0.9655 0.0000
1.0345 1.0345 0.0000
1.0345 1.1034 0.0000
1.0345 1.1724 0.0000
1.0345 1.2414 0.0000
1.0345 1.3103 0.0000
1.0345 1.3793 0.0000
1.0345 1.4483 0.0000
1.0345 1.5172 0.0000
1.0345 1.5862 0.0000
1.0345 1.6552 0.0000
1.0345 1.7241 0.0000
1.0345 1.7931 0.0000
1.0345 1.8621 0.0000
1.0345 1.9310 0.0000
1.0345 2.0000 0.0000
2.0690 0.0000 0.0000
2.0690 0.0690 0.0000
2.0690 0.1379 0.0000
2.0690 0.2069 0.0000
2.0690 0.2759 0.0000
2.0690 0.3448 0.0000
2.0690 0.4138 0.0000
2.0690 0.4828 0.0000
2.0690 0.5517 0.0000
2.0690 0.6207 0.0000
2.0690 0.6897 0.0000
2.0690 0.7586 0.0000
2.0690 0.8276 0.0000
2.0690 0.8966 0.0000
2.0690 0.9655 0.0000
2.0690 1.0345 0.0000
2.0690 1.1034 0.0000
2.0690 1.1724 0.0000
2.0690 1.2414 0.0000
2.0690 1.3103 0.0000
2.0690 1.3793 0.0000
2.0690 1.4483 0.0000
2.0690 1.5172 0.0000
2.0690 1.5862 0.0000
2.0690 1.6552 0.0000
2.0690 1.7241 0.0000
2.0690 1.7931 0.0000
2.0690 1.8621 0.0000
2.0690 1.9310 0.0000
2.0690 2.0000 0.0000
3.1034 0.0000 0.0000
3.1034 0.0690 0.0000
3.1034 0.1379 0.0000
3.1034 0.2069 0.0000
3.1034 0.2759 0.0000
3.1034 0.3448 0.0000
3.1034 0.4138 0.0000
3.1034 0.4828 0.0000
3.1034 0.5517 0.0000
3.1034 0.6207 0.0000
3.1034 0.6897 0.0000
3.1034 0.7586 0.0000
3.1034 0.8276 0.0000
3.1034 0.8966 0.0000
3.1034 0.9655 0.0000
3.1034 1.0345 0.0000
3.1034 1.1034 0.0000
3.1034 1.1724 0.0000
3.1034 1.2414 0.0000
3.1034 1.3103 0.0000
3.1034 1.3793 0.0000
3.1034 1.4483 0.0000
3.1034 1.5172 0.0000
3.1034 1.5862 0.0000
3.1034 1.6552 0.0000
3.1034 1.7241 0.0000
3.1034 1.7931 0.0000
3.1034 1.8621 0.0000
3.1034 1.9310 0.0000
3.1034 2.0000 0.0000
4.1379 0.0000 0.0000
4.1379 0.0690 0.0000
4.1379 0.1379 0.0000
4.1379 0.2069 0.0000
4.1379 0.2759 0.0000
4.1379 0.3448 0.0000
4.1379 0.4138 0.0000
4.1379 0.4828 0.0000
4.1379 0.5517 0.0000
4.1379 0.6207 0.0000
4.1379 0.6897 0.0000
4.1379 0.7586 0.0000
4.1379 0.8276 0.0000
4.1379 0.8966 0.0000
4.1379 0.9655 0.0000
4.1379 1.0345 0.0000
4.1379 1.1034 0.0000
4.1379 1.1724 0.0000
4.1379 1.2414 0.0000
4.1379 1.3103 0.0000
4.1379 1.3793 0.0000
4.1379 1.4483 0.0000
4.1379 1.5172 0.0000
4.1379 1.5862 0.0000
4.1379 1.6552 0.0000
4.1379 1.7241 0.0000
4.1379 1.7931 0.0000
4.1379 1.8621 0.0000
4.1379 1.9310 0.0000
4.1379 2.0000 0.0000
5.1724 0.0000 0.0000
5.1724 0.0690 0.0000
5.1724 0.1379 0.0000
5.1724 0.2069 0.0000
5.1724 0.2759 0.0000
5.1724 0.3448 0.0000
5.1724 0.4138 0.0000
5.1724 0.4828 0.0000
5.1724 0.5517 0.0000
5.1724 0.6207 0.0000
5.1724 0.6897 0.0000
5.1724 0.7586 0.0000
5.1724 0.8276 0.0000
5.1724 0.8966 0.0000
5.1724 0.9655 0.0000
5.1724 1.0345 0.0000
5.1724 1.1034 0.0000
5.1724 1.1724 0.0000
5.1724 1.2414 0.0000
5.1724 1.3103 0.0000
5.1724 1.3793 0.0000
5.1724 1.4483 0.0000
5.1724 1.5172 0.0000
5.1724 1.5862 0.0000
5.1724 1.6552 0.0000
5.1724 1.7241 0.0000
5.1724 1.7931 0.0000
5.1724 1.8621 0.0000
5.1724 1.9310 0.0000
5.1724 2.0000 0.0000
6.2069 0.0000 0.0000
6.2069 0.0690 0.0000
6.2069 0.1379 0.0000
6.2069 0.2069 0.0000
6.2069 0.2759 0.0000
6.2069 0.3448 0.0000
6.2069 0.4138 0.0000
6.2069 0.4828 0.0000
6.2069 0.5517 0.0000
6.2069 0.6207 0.0000
6.2069 0.6897 0.0000
6.2069 0.7586 0.0000
6.2069 0.8276 0.0000
6.2069 0.8966 0.0000
6.2069 0.9655 0.0000
6.2069 1.0345 0.0000
6.2069 1.1034 0.0000
6.2069 1.1724 0.0000
6.2069 1.2414 0.0000
6.2069 1.3103 0.0000
6.2069 1.3793 0.0000
6.2069 1.4483 0.0000
6.2069 1.5172 0.0000
6.2069 1.5862 0.0000
6.2069 1.6552 0.0000
6.2069 1.7241 0.0000
6.2069 1.7931 0.0000
6.2069 1.8621 0.0000
6.2069 1.9310 0.0000
6.2069 2.0000 0.0000
7.2414 0.0000 0.0000
7.2414 0.0690 0.0000
7.2414 0.1379 0.0000
7.2414 0.2069 0.0000
7.2414 0.2759 0.0000
7.2414 0.3448 0.0000
7.2414 0.4138 0.0000
7.2414 0.4828 0.0000
7.2414 0.5517 0.0000
7.2414 0.6207 0.0000
7.2414 0.6897 0.0000
7.2414 0.7586 0.0000
7.2414 0.8276 0.0000
7.2414 0.8966 0.0000
7.2414 0.9655 0.0000
7.2414 1.0345 0.0000
7.2414 1.1034 0.0000
7.2414 1.1724 0.0000
7.2414 1.2414 0.0000
7.2414 1.3103 0.0000
7.2414 1.3793 0.0000
7.2414 1.4483 0.0000
7.2414 1.5172 0.0000
7.2414 1.5862 0.0000
7.2414 1.6552 0.0000
7.2414 1.7241 0.0000
7.2414 1.7931 0.0000
7.2414 1.8621 0.0000
7.2414 1.9310 0.0000
7.2414 2.0000 0.0000
8.2759 0.0000 0.0000
8.2759 0.0690 0.0000
8.2759 0.1379 0.0000
8.2759 0.2069 0.0000
8.2759 0.2759 0.0000
8.2759 0.3448 0.0000
8.2759 0.4138 0.0000
8.2759 0.4828 0.0000
8.2759 0.5517 0.0000
8.2759 0.6207 0.0000
8.2759 0.6897 0.0000
8.2759 0.7586 0.0000
8.2759 0.8276 0.0000
8.2759 0.8966 0.0000
8.2759 0.9655 0.0000
8.2759 1.0345 0.0000
8.2759 1.1034 0.0000
8.2759 1.1724 0.0000
8.2759 1.2414 0.0000
8.2759 1.3103 0.0000
8.2759 1.3793 0.0000
8.2759 1.4483 0.0000
8.2759 1.5172 0.0000
8.2759 1.5862 0.0000
8.2759 1.6552 0.0000
8.2759 1.7241 0.0000
8.2759 1.7931 0.0000
8.2759 1.8621 0.0000
8.2759 1.9310 0.0000
8.2759 2.0000 0.0000
9.3103 0.0000 0.0000
9.3103 0.0690 0.0000
9.3103 0.1379 0.0000
9.3103 0.2069 0.0000
9.3103 0.2759 0.0000
9.3103 0.3448 0.0000
9.3103 0.4138 0.0000
9.3103 0.4828 0.0000
9.3103 0.5517 0.0000
9.3103 0.6207 0.0000
9.3103 0.6897 0.0000
9.3103 0.7586 0.0000
9.3103 0.8276 0.0000
9.3103 0.8966 0.0000
9.3103 0.9655 0.0000
9.3103 1.0345 0.0000
9.3103 1.1034 0.0000
9.3103 1.1724 0.0000
9.3103 1.2414 0.0000
9.3103 1.3103 0.0000
9.3103 1.3793 0.0000
9.3103 1.4483 0.0000
9.3103 1.5172 0.0000
9.3103 1.5862 0.0000
9.3103 1.6552 0.0000
9.3103 1.7241 0.0000
9.3103 1.7931 0.0000
9.3103 1.8621 0.0000
9.3103 1.9310 0.0000
9.3103 2.0000 0.0000
10.3448 0.0000 0.0000
10.3448 0.0690 0.0000
10.3448 0.1379 0.0000
10.3448 0.2069 0.0000
10.3448 0.2759 0.0000
10.3448 0.3448 0.0000
10.3448 0.4138 0.0000
10.3448 0.4828 0.0000
10.3448 0.5517 0.0000
10.3448 0.6207 0.0000
10.3448 0.6897 0.0000
10.3448 0.7586 0.0000
10.3448 0.8276 0.0000
10.3448 0.8966 0.0000
10.3448 0.9655 0.0000
10.3448 1.0345 0.0000
10.3448 1.1034 0.0000
10.3448 1.1724 0.0000
10.3448 1.2414 0.0000
10.3448 1.3103 0.0000
10.3448 1.3793 0.0000
10.3448 1.4483 0.0000
10.3448 1.5172 0.0000
10.3448 1.5862 0.0000
10.3448 1.6552 0.0000
10.3448 1.7241 0.0000
10.3448 1.7931 0.0000
10.3448 1.8621 0.0000
10.3448 1.9310 0.0000
10.3448 2.0000 0.0000
11.3793 0.0000 0.0000
11.3793 0.0690 0.0000
11.3793 0.1379 0.0000
11.3793 0.2069 0.0000
11.3793 0.2759 0.0000
11.3793 0.3448 0.0000
11.3793 0.4138 0.0000
11.3793 0.4828 0.0000
11.3793 0.5517 0.0000
11.3793 0.6207 0.0000
11.3793 0.6897 0.0000
11.3793 0.7586 0.0000
11.3793 0.8276 0.0000
11.3793 0.8966 0.0000
11.3793 0.9655 0.0000
11.3793 1.0345 0.0000
11.3793 1.1034 0.0000
11.3793 1.1724 0.0000
11.3793 1.2414 0.0000
11.3793 1.3103 0.0000
11.3793 1.3793 0.0000
11.3793 1.4483 0.0000
11.3793 1.5172 0.0000
11.3793 1.5862 0.0000
11.3793 1.6552 0.0000
11.3793 1.7241 0.0000
11.3793 1.7931 0.0000
11.3793 1.8621 0.0000
11.3793 1.9310 0.0000
11.3793 2.0000 0.0000
12.4138 0.0000 0.0000
12.4138 0.0690 0.0000
12.4138 0.1379 0.0000
12.4138 0.2069 0.0000
12.4138 0.2759 0.0000
12.4138 0.3448 0.0000
12.4138 0.4138 0.0000
12.4138 0.4828 0.0000
12.4138 0.5517 0.0000
12.4138 0.6207 0.0000
12.4138 0.6897 0.0000
12.4138 0.7586 0.0000
12.4138 0.8276 0.0000
12.4138 0.8966 0.0000
12.4138 0.9655 0.0000
12.4138 1.0345 0.0000
12.4138 1.1034 0.0000
12.4138 1.1724 0.0000
12.4138 1.2414 0.0000
12.4138 1.3103 0.0000
12.4138 1.3793 0.0000
12.4138 1.4483 0.0000
12.4138 1.5172 0.0000
12.4138 1.5862 0.0000
12.4138 1.6552 0.0000
12.4138 1.7241 0.0000
12.4138 1.7931 0.0000
12.4138 1.8621 0.0000
12.4138 1.9310 0.0000
12.4138 2.0000 0.0000
13.4483 0.0000 0.0000
13.4483 0.0690 0.0000
13.4483 0.1379 0.0000
13.4483 0.2069 0.0000
13.4483 0.2759 0.0000
13.4483 0.3448 0.0000
13.4483 0.4138 0.0000
13.4483 0.4828 0.0000
13.4483 0.5517 0.0000
13.4483 0.6207 0.0000
13.4483 0.6897 0.0000
13.4483 0.7586 0.0000
13.4483 0.8276 0.0000
13.4483 0.8966 0.0000
13.4483 0.9655 0.0000
13.4483 1.0345 0.0000
13.4483 1.1034 0.0000
13.4483 1.1724 0.0000
13.4483 1.2414 0.0000
13.4483 1.3103 0.0000
13.4483 1.3793 0.0000
13.4483 1.4483 0.0000
13.4483 1.5172 0.0000
13.4483 1.5862 0.0000
13.4483 1.6552 0.0000
13.4483 1.7241 0.0000
13.4483 1.7931 0.0000
13.4483 1.8621 0.0000
13.4483 1.9310 0.0000
13.4483 2.0000 0.0000
14.4828 0.0000 0.0000
14.4828 0.0690 0.0000
14.4828 0.1379 0.0000
14.4828 0.2069 0.0000
14.4828 0.2759 0.0000
14.4828 0.3448 0.0000
14.4828 0.4138 0.0000
14.4828 0.4828 0.0000
14.4828 0.5517 0.0000
14.4828 0.6207 0.0000
14.4828 0.6897 0.0000
14.4828 0.7586 0.0000
14.4828 0.8276 0.0000
14.4828 0.8966 0.0000
14.4828 0.9655 0.0000
14.4828 1.0345 0.0000
14.4828 1.1034 0.0000
14.4828 1.1724 0.0000
14.4828 1.2414 0.0000
14.4828 1.3103 0.0000
14.4828 1.3793 0.0000
14.4828 1.4483 0.0000
14.4828 1.5172 0.0000
14.4828 1.5862 0.0000
14.4828 1.6552 0.0000
14.4828 1.7241 0.0000
14.4828 1.7931 0.0000
14.4828 1.8621 0.0000
14.4828 1.9310 0.0000
14.4828 2.0000 0.0000
15.5172 0.0000 0.0000
15.5172 0.0690 0.0000
15.5172 0.1379 0.0000
15.5172 0.2069 0.0000
[...]
         <PointData>
            <DataArray Name="fValues" NumberOfComponents="3" format="ascii" type="Float64">
-5.29325e-18 -2.67975e-17        00000 
 4.29954e-18  1.71982e-17        00000 
-1.38181e-17  8.50343e-18        00000 
 2.07001e-18  2.07001e-18        00000 
-2.65732e-18  2.65732e-17        00000 
 1.66663e-18 -2.34639e-17        00000 
-5.31464e-18  5.31464e-18        00000 
-2.70437e-18  4.27358e-18        00000 
 3.72025e-18  6.37757e-18        00000 
 2.07330e-18 -4.32462e-18        00000 
-5.31464e-19  1.16922e-17        00000 
 1.60259e-18 -1.33549e-18        00000 
 2.55103e-17  3.18879e-17        00000 
-9.74642e-18 -2.00130e-17        00000 
 4.25172e-18 -8.50343e-18        00000 
 5.24849e-17  1.60259e-18        00000 
-5.52723e-17  8.07826e-17        00000 
 2.37544e-17 -2.02514e-17        00000 
 1.70069e-17 -2.55103e-17        00000 
-9.40187e-17 -5.87617e-18        00000 
 3.40137e-17  2.12586e-17        00000 
-5.57481e-17  1.02903e-17        00000 
-8.50343e-18  2.12586e-17        00000 
-2.88466e-17 -2.02995e-17        00000 
 4.25172e-18  1.48810e-17        00000 
-7.51390e-18 -2.78692e-17        00000 
-8.50343e-18  1.70069e-17        00000 
-1.57882e-17  2.67597e-18        00000 
-2.94813e-17 -3.33674e-17        00000 
-3.87867e-18 -2.90712e-18        00000 
 3.38413e-02  2.43682e-01        00000 
 5.57561e-02  2.25837e-01        00000 
 4.50451e-02  2.14142e-01        00000 
 4.42695e-02  1.61697e-01        00000 
 5.62755e-02  1.49803e-01        00000 
 3.54315e-02  1.13579e-01        00000 
-3.68678e-02  8.17868e-02        00000 
-7.58667e-02  3.86406e-02        00000 
-8.36981e-02 -1.06471e-02        00000 
-4.39169e-02 -6.49982e-02        00000 
 1.17437e-02 -1.16751e-01        00000 
 8.53151e-02 -1.71828e-01        00000 
 1.51589e-01 -2.03896e-01        00000 
 2.01704e-01 -2.34046e-01        00000 
 2.64358e-01 -2.61859e-01        00000 
 3.18605e-01 -2.84120e-01        00000 
 4.47730e-01 -2.88504e-01        00000 
 5.09254e-01 -3.00021e-01        00000 
 5.36571e-01 -2.81661e-01        00000 
 5.35883e-01 -2.80376e-01        00000 
 5.36326e-01 -2.68861e-01        00000 
 4.71466e-01 -2.68176e-01        00000 
 4.14553e-01 -2.66621e-01        00000 
 3.44050e-01 -2.69751e-01        00000 
 2.46205e-01 -2.55373e-01        00000 
 1.36190e-01 -2.51073e-01        00000 
 2.40240e-02 -2.45408e-01        00000 
-1.09201e-01 -2.40725e-01        00000 
-1.86078e-01 -2.32647e-01        00000 
-2.11499e-01 -2.28272e-01        00000 
-9.35585e-02  4.28208e-02        00000 
-9.24521e-02  5.42956e-02        00000 
-9.44538e-02  5.85467e-02        00000 
-9.48725e-02  5.53597e-02        00000 
-1.17085e-01  3.31297e-02        00000 
-1.18451e-01  1.23165e-02        00000 
-8.16114e-02 -3.82492e-03        00000 
-6.15864e-02 -5.26431e-03        00000 
-5.51665e-02 -2.60715e-02        00000 
-7.38006e-02 -3.48363e-02        00000 
-1.10851e-01 -4.82554e-02        00000 
-1.89627e-01 -4.83917e-02        00000 
-2.40397e-01 -8.36296e-02        00000 
-2.30959e-01 -1.04206e-01        00000 
-2.03235e-01 -1.00396e-01        00000 
-1.73083e-01 -1.00706e-01        00000 
-1.75404e-01 -1.05749e-01        00000 
-1.71268e-01 -1.26562e-01        00000 
-1.47624e-01 -1.47248e-01        00000 
-1.16366e-01 -1.63489e-01        00000 
-7.19111e-02 -1.70952e-01        00000 
-9.66265e-03 -1.85741e-01        00000 
 4.64387e-03 -1.70480e-01        00000 
 2.38185e-02 -1.74177e-01        00000 
 2.25704e-02 -1.81073e-01        00000 
 3.32742e-02 -1.67904e-01        00000 
 3.70196e-03 -1.67967e-01        00000 
 4.86838e-02 -1.73419e-01        00000 
 8.88986e-02 -1.76859e-01        00000 
 1.08475e-01 -1.75602e-01        00000 
-2.51290e-01  1.39876e-01        00000 
-2.07005e-01  1.30036e-01        00000 
-1.55264e-01  1.12955e-01        00000 
-1.27688e-01  9.24231e-02        00000 
-1.20347e-01  8.74663e-02        00000 
-1.51330e-01  7.31378e-02        00000 
-1.74554e-01  7.22094e-02        00000 
-1.86532e-01  7.12532e-02        00000 
-2.22604e-01  6.72873e-02        00000 
-2.61359e-01  5.85591e-02        00000 
-2.70062e-01  4.88063e-02        00000 
-2.55965e-01  4.49165e-02        00000 
-2.89846e-01  3.92171e-02        00000 
-3.48434e-01  2.05718e-02        00000 
-3.83527e-01  9.63608e-03        00000 
-3.91622e-01 -1.03899e-03        00000 
-4.20669e-01 -2.29754e-02        00000 
-3.99371e-01 -3.61355e-02        00000 
-3.80116e-01 -4.20421e-02        00000 
-3.80490e-01 -5.75350e-02        00000 
-3.79831e-01 -6.61235e-02        00000 
-3.65723e-01 -8.16660e-02        00000 
-3.92275e-01 -8.76935e-02        00000 
-3.70818e-01 -9.93870e-02        00000 
-3.65374e-01 -1.11473e-01        00000 
-3.17130e-01 -1.24572e-01        00000 
-2.30188e-01 -1.22639e-01        00000 
-1.77981e-01 -1.32256e-01        00000 
-1.45396e-01 -1.40842e-01        00000 
-9.65277e-02 -1.32099e-01        00000 
-3.39323e-02 -3.18789e-01        00000 
-6.77770e-02 -3.13715e-01        00000 
-1.24201e-01 -2.89361e-01        00000 
-1.56896e-01 -2.62053e-01        00000 
-1.85774e-01 -2.38312e-01        00000 
-2.50482e-01 -2.10806e-01        00000 
-2.48726e-01 -2.12970e-01        00000 
-2.09793e-01 -1.98168e-01        00000 
-1.64518e-01 -1.91024e-01        00000 
-1.15785e-01 -2.07043e-01        00000 
-9.74085e-02 -2.06707e-01        00000 
-8.82939e-02 -2.14026e-01        00000 
-2.38201e-02 -2.16627e-01        00000 
-2.23839e-03 -2.22643e-01        00000 
 4.95048e-02 -2.26626e-01        00000 
 7.31376e-02 -2.37778e-01        00000 
 7.21272e-02 -2.61401e-01        00000 
 5.99813e-02 -2.87712e-01        00000 
 6.10048e-02 -3.11064e-01        00000 
 4.21633e-02 -3.35183e-01        00000 
 2.75143e-02 -3.58825e-01        00000 
 4.93365e-02 -3.82637e-01        00000 
 1.01450e-01 -4.18383e-01        00000 
 1.09719e-01 -4.39678e-01        00000 
 1.23192e-01 -4.48216e-01        00000 
 7.19020e-02 -4.58439e-01        00000 
-1.98119e-02 -4.64086e-01        00000 
-1.23184e-01 -4.65477e-01        00000 
-2.02594e-01 -4.55071e-01        00000 
-2.45544e-01 -4.52908e-01        00000 
-4.81067e-01 -3.26852e-01        00000 
-4.14170e-01 -3.23268e-01        00000 
-3.49108e-01 -3.41640e-01        00000 
-3.36942e-01 -3.42029e-01        00000 
-3.61555e-01 -3.49715e-01        00000 
-3.65161e-01 -3.73274e-01        00000 
-3.47680e-01 -3.70168e-01        00000 
-3.39459e-01 -3.89135e-01        00000 
-2.93933e-01 -3.99907e-01        00000 
-2.68230e-01 -3.96813e-01        00000 
-2.55654e-01 -4.03538e-01        00000 
-2.14648e-01 -4.05247e-01        00000 
-1.89167e-01 -4.11629e-01        00000 
-1.38430e-01 -3.94551e-01        00000 
-1.02153e-01 -3.90532e-01        00000 
-6.11602e-02 -3.80618e-01        00000 
-2.25787e-02 -3.76985e-01        00000 
 1.00626e-02 -3.56031e-01        00000 
 2.04930e-02 -3.67294e-01        00000 
 5.73444e-02 -3.56135e-01        00000 
 1.19029e-01 -3.44756e-01        00000 
 1.18139e-01 -3.46659e-01        00000 
 1.22978e-01 -3.29710e-01        00000 
 4.54550e-02 -3.03011e-01        00000 
-4.78463e-02 -3.07161e-01        00000 
-9.85575e-02 -2.89821e-01        00000 
-1.32640e-01 -2.93199e-01        00000 
-1.54331e-01 -2.85344e-01        00000 
-1.53779e-01 -2.92810e-01        00000 
-2.06726e-01 -2.88873e-01        00000 
-3.57536e-01 -5.82668e-01        00000 
-4.09362e-01 -5.69850e-01        00000 
-4.20100e-01 -5.38305e-01        00000 
-4.07834e-01 -5.02356e-01        00000 
-3.75521e-01 -4.83197e-01        00000 
-3.74588e-01 -4.48245e-01        00000 
-3.94159e-01 -4.23844e-01        00000 
-4.28030e-01 -4.15286e-01        00000 
-4.58404e-01 -3.94234e-01        00000 
-4.37566e-01 -3.65614e-01        00000 
-4.18311e-01 -3.36528e-01        00000 
-4.52187e-01 -3.04065e-01        00000 
-4.87957e-01 -2.63272e-01        00000 
-5.20630e-01 -2.37586e-01        00000 
-5.54071e-01 -2.15506e-01        00000 
-5.62982e-01 -2.00349e-01        00000 
-5.87448e-01 -1.82652e-01        00000 
-5.70811e-01 -1.87486e-01        00000 
-5.30998e-01 -1.75588e-01        00000 
-5.10875e-01 -1.75211e-01        00000 
-5.28388e-01 -1.68902e-01        00000 
-5.73714e-01 -1.49467e-01        00000 
-5.83376e-01 -1.44249e-01        00000 
-5.87174e-01 -1.37900e-01        00000 
-5.54469e-01 -1.33511e-01        00000 
-5.53155e-01 -1.40442e-01        00000 
-5.23104e-01 -1.66252e-01        00000 
-4.70578e-01 -1.84816e-01        00000 
-4.22029e-01 -1.97588e-01        00000 
-3.58857e-01 -2.04954e-01        00000 
-5.82992e-01 -1.87468e-01        00000 
-5.93871e-01 -1.92816e-01        00000 
-6.67672e-01 -1.95237e-01        00000 
-7.35846e-01 -1.94036e-01        00000 
-8.08069e-01 -1.84573e-01        00000 
-8.22661e-01 -1.83674e-01        00000 
-7.85021e-01 -1.71952e-01        00000 
-7.38041e-01 -1.49030e-01        00000 
-7.40531e-01 -1.39500e-01        00000 
-7.66326e-01 -1.16098e-01        00000 
-7.72999e-01 -9.98684e-02        00000 
-7.46241e-01 -9.80830e-02        00000 
-7.26246e-01 -8.15199e-02        00000 
-6.95185e-01 -8.39387e-02        00000 
-6.46760e-01 -7.29392e-02        00000 
-6.49441e-01 -7.03492e-02        00000 
-6.61518e-01 -9.02261e-02        00000 
-7.06927e-01 -9.88165e-02        00000 
-7.12365e-01 -1.11955e-01        00000 
-7.14229e-01 -1.37899e-01        00000 
-7.29705e-01 -1.50607e-01        00000 
-7.05918e-01 -1.60761e-01        00000 
-6.96086e-01 -1.75324e-01        00000 
-6.69644e-01 -2.02018e-01        00000 
-6.41615e-01 -2.13029e-01        00000 
-5.70214e-01 -2.34505e-01        00000 
-5.49939e-01 -2.56259e-01        00000 
-6.14322e-01 -2.55945e-01        00000 
-7.10651e-01 -2.49983e-01        00000 
-7.55717e-01 -2.48190e-01        00000 
-2.49218e-01 -1.98946e-01        00000 
-2.72253e-01 -2.04780e-01        00000 
-2.75227e-01 -2.08327e-01        00000 
-2.63966e-01 -2.25016e-01        00000 
-2.43176e-01 -2.35360e-01        00000 
-2.44278e-01 -2.53463e-01        00000 
-2.36423e-01 -2.72497e-01        00000 
-2.44293e-01 -2.87715e-01        00000 
-2.85905e-01 -3.23387e-01        00000 
-3.03752e-01 -3.29570e-01        00000 
-3.10547e-01 -3.43508e-01        00000 
-2.87737e-01 -3.43431e-01        00000 
-2.72503e-01 -3.44326e-01        00000 
-2.75421e-01 -3.35074e-01        00000 
-3.12378e-01 -3.40661e-01        00000 
-3.53354e-01 -3.34355e-01        00000 
-3.83134e-01 -3.24627e-01        00000 
-3.87608e-01 -3.32228e-01        00000 
-4.07790e-01 -3.43737e-01        00000 
-4.42021e-01 -3.46191e-01        00000 
-4.29140e-01 -3.52674e-01        00000 
-4.46156e-01 -3.64261e-01        00000 
-4.49114e-01 -3.58861e-01        00000 
-4.48178e-01 -3.50549e-01        00000 
-4.71965e-01 -3.44085e-01        00000 
-4.57877e-01 -3.24611e-01        00000 
-4.53600e-01 -3.18786e-01        00000 
-4.31010e-01 -3.27346e-01        00000 
-4.28049e-01 -3.47996e-01        00000 
-4.18813e-01 -3.53631e-01        00000 
 7.57599e-02  6.33848e-01        00000 
 7.09707e-02  6.26274e-01        00000 
 6.36532e-02  6.21898e-01        00000 
 2.45987e-02  6.15955e-01        00000 
 2.85260e-03  6.25941e-01        00000 
-4.63901e-02  6.32667e-01        00000 
-6.72504e-02  6.16119e-01        00000 
-8.46809e-02  5.98709e-01        00000 
-4.60275e-02  5.82126e-01        00000 
 1.00410e-02  5.55780e-01        00000 
 3.71083e-02  5.20984e-01        00000 
-1.05302e-02  4.84952e-01        00000 
-2.95918e-02  4.45509e-01        00000 
-3.14885e-02  4.01826e-01        00000 
-6.98894e-03  3.64353e-01        00000 
 3.66055e-02  3.25016e-01        00000 
 5.74662e-02  2.82225e-01        00000 
 7.32547e-02  2.36483e-01        00000 
 8.98924e-02  1.99206e-01        00000 
 1.06774e-01  1.57558e-01        00000 
 1.09794e-01  1.27498e-01        00000 
 9.85877e-02  7.22050e-02        00000 
 4.19836e-02  4.60445e-02        00000 
 2.79080e-02 -9.17660e-03        00000 
 9.62277e-04 -5.35074e-02        00000 
-4.05123e-02 -1.05366e-01        00000 
-9.61834e-02 -1.50557e-01        00000 
-1.09887e-01 -1.70860e-01        00000 
-1.27301e-01 -1.76011e-01        00000 
-1.10782e-01 -1.93936e-01        00000 
 6.03033e-01  1.28155e-01        00000 
 6.38961e-01  1.05029e-01        00000 
 6.82064e-01  6.46215e-02        00000 
 7.05748e-01  2.41202e-02        00000 
 7.23924e-01  1.49942e-03        00000 
 7.77135e-01 -3.66201e-02        00000 
 7.54093e-01 -7.40716e-02        00000 
 7.32549e-01 -1.10123e-01        00000 
 7.20920e-01 -1.37201e-01        00000 
 6.72877e-01 -1.66993e-01        00000 
 6.35667e-01 -1.86086e-01        00000 
 6.36126e-01 -1.82030e-01        00000 
 6.41745e-01 -1.95491e-01        00000 
 6.67486e-01 -1.75940e-01        00000 
 6.20541e-01 -1.50123e-01        00000 
 5.36640e-01 -1.08265e-01        00000 
 4.59956e-01 -7.05428e-02        00000 
 3.72053e-01 -2.65091e-02        00000 
 2.91853e-01  2.86845e-02        00000 
 2.40068e-01  6.65851e-02        00000 
 1.96737e-01  9.38291e-02        00000 
 1.70110e-01  1.14252e-01        00000 
 1.54736e-01  1.24082e-01        00000 
 1.33262e-01  1.61046e-01        00000 
 9.62732e-02  2.04216e-01        00000 
 4.67983e-02  2.37756e-01        00000 
-5.36504e-02  2.76975e-01        00000 
-1.62167e-01  2.93651e-01        00000 
-2.80317e-01  3.05434e-01        00000 
-4.03479e-01  3.26079e-01        00000 
 1.47727e+00 -3.36361e-02        00000 
 1.32604e+00 -3.97529e-02        00000 
 1.15659e+00 -2.90077e-02        00000 
 1.00010e+00 -8.30649e-03        00000 
 8.20333e-01  9.20964e-03        00000 
 6.93674e-01  5.22702e-02        00000 
 6.44467e-01  1.01042e-01        00000 
 5.92065e-01  1.58803e-01        00000 
 5.64254e-01  2.24010e-01        00000 
 5.53115e-01  2.77738e-01        00000 
 4.96288e-01  3.21469e-01        00000 
 4.25086e-01  3.67515e-01        00000 
 3.11055e-01  4.14732e-01        00000 
 2.16299e-01  4.37950e-01        00000 
 1.23789e-01  4.65434e-01        00000 
 4.57220e-02  4.86617e-01        00000 
-5.51859e-02  4.93745e-01        00000 
-1.55348e-01  5.11724e-01        00000 
-2.01326e-01  5.02097e-01        00000 
-2.29443e-01  4.99417e-01        00000 
-2.74528e-01  5.09668e-01        00000 
-3.66398e-01  5.13136e-01        00000 
-4.40157e-01  5.21735e-01        00000 
-5.27480e-01  5.22574e-01        00000 
-6.18170e-01  5.13219e-01        00000 
-6.70971e-01  4.99697e-01        00000 
-7.31030e-01  4.88209e-01        00000 
-7.95268e-01  5.01009e-01        00000 
-8.47462e-01  5.19619e-01        00000 
-9.34610e-01  5.37304e-01        00000 
 3.12741e-01  3.02122e+00        00000 
 8.39781e-02  3.11359e+00        00000 
-9.13270e-02  3.19255e+00        00000 
-2.37546e-01  3.25915e+00        00000 
-3.81695e-01  3.31445e+00        00000 
-5.28945e-01  3.36379e+00        00000 
-6.52457e-01  3.40048e+00        00000 
-7.75978e-01  3.43450e+00        00000 
-8.46743e-01  3.47264e+00        00000 
-9.10538e-01  3.50923e+00        00000 
-9.52429e-01  3.56008e+00        00000 
-9.33983e-01  3.61431e+00        00000 
-8.81254e-01  3.65005e+00        00000 
-8.18401e-01  3.65573e+00        00000 
-7.36876e-01  3.66834e+00        00000 
-6.55386e-01  3.67354e+00        00000 
-5.58196e-01  3.66809e+00        00000 
-4.60558e-01  3.66949e+00        00000 
-4.40157e-01  3.66716e+00        00000 
-4.80586e-01  3.65230e+00        00000 
-5.22532e-01  3.64120e+00        00000 
-5.58790e-01  3.63030e+00        00000 
-6.01942e-01  3.61059e+00        00000 
-6.40249e-01  3.59194e+00        00000 
-6.63668e-01  3.59386e+00        00000 
-6.93654e-01  3.60313e+00        00000 
-7.09340e-01  3.57304e+00        00000 
-7.96530e-01  3.54133e+00        00000 
-9.02005e-01  3.51360e+00        00000 
-1.05496e+00  3.45878e+00        00000 
-3.81151e+00  4.81881e+00        00000 
-3.54739e+00  4.90222e+00        00000 
-3.33831e+00  4.98643e+00        00000 
-3.09569e+00  5.06208e+00        00000 
-2.81553e+00  5.11747e+00        00000 
-2.55894e+00  5.17522e+00        00000 
-2.30414e+00  5.24633e+00        00000 
-2.04095e+00  5.28603e+00        00000 
-1.86663e+00  5.29849e+00        00000 
-1.64252e+00  5.30043e+00        00000 
-1.38922e+00  5.28411e+00        00000 
-1.16436e+00  5.23998e+00        00000 
-9.62747e-01  5.19604e+00        00000 
-7.72894e-01  5.15983e+00        00000 
-6.23357e-01  5.10956e+00        00000 
-4.53766e-01  5.06829e+00        00000 
-2.78235e-01  5.01987e+00        00000 
-7.02024e-02  4.97803e+00        00000 
 1.27552e-01  4.93585e+00        00000 
 3.10079e-01  4.90139e+00        00000 
 5.42597e-01  4.87496e+00        00000 
 7.69790e-01  4.84973e+00        00000 
 9.39280e-01  4.81149e+00        00000 
 1.10395e+00  4.75493e+00        00000 
 1.24316e+00  4.66677e+00        00000 
 1.34936e+00  4.56431e+00        00000 
 1.50518e+00  4.48552e+00        00000 
 1.67114e+00  4.38550e+00        00000 
 1.83061e+00  4.29687e+00        00000 
 2.02227e+00  4.19377e+00        00000 
-5.57847e+00 -2.28342e+00        00000 
-5.10344e+00 -2.26472e+00        00000 
-4.67050e+00 -2.27805e+00        00000 
-4.26529e+00 -2.26383e+00        00000 
-3.87844e+00 -2.24859e+00        00000 
-3.50627e+00 -2.22909e+00        00000 
-3.15296e+00 -2.21513e+00        00000 
-2.79342e+00 -2.20646e+00        00000 
-2.38071e+00 -2.17816e+00        00000 
-1.96688e+00 -2.16232e+00        00000 
-1.57534e+00 -2.13361e+00        00000 
-1.19500e+00 -2.08221e+00        00000 
-8.41985e-01 -2.02834e+00        00000 
-5.15329e-01 -1.98035e+00        00000 
-1.78732e-01 -1.93793e+00        00000 
 9.53081e-02 -1.90347e+00        00000 
 3.55548e-01 -1.87511e+00        00000 
 6.04400e-01 -1.87041e+00        00000 
 8.74557e-01 -1.86224e+00        00000 
 1.16382e+00 -1.86462e+00        00000 
 1.46206e+00 -1.87323e+00        00000 
 1.79454e+00 -1.89491e+00        00000 
 2.21350e+00 -1.90868e+00        00000 
 2.65624e+00 -1.92980e+00        00000 
 3.08634e+00 -1.92184e+00        00000 
 3.49370e+00 -1.91814e+00        00000 
 3.88237e+00 -1.92507e+00        00000 
 4.30048e+00 -1.91864e+00        00000 
 4.78300e+00 -1.94624e+00        00000 
 5.32163e+00 -1.97679e+00        00000 
-3.23191e+00 -9.64078e+00        00000 
-2.81456e+00 -9.79596e+00        00000 
-2.42470e+00 -9.92411e+00        00000 
-2.09525e+00 -1.00762e+01        00000 
-1.82657e+00 -1.02201e+01        00000 
-1.57714e+00 -1.03426e+01        00000 
-1.33465e+00 -1.04738e+01        00000 
-1.10485e+00 -1.05769e+01        00000 
-9.83082e-01 -1.06614e+01        00000 
-8.79375e-01 -1.07294e+01        00000 
-7.79681e-01 -1.07932e+01        00000 
-6.80147e-01 -1.08600e+01        00000 
-5.53093e-01 -1.09126e+01        00000 
-3.98530e-01 -1.09450e+01        00000 
-2.15193e-01 -1.09900e+01        00000 
 1.47539e-02 -1.10096e+01        00000 
 2.28897e-01 -1.10228e+01        00000 
 4.35749e-01 -1.10365e+01        00000 
 6.56257e-01 -1.10427e+01        00000 
 8.69487e-01 -1.10304e+01        00000 
 1.08610e+00 -1.10339e+01        00000 
 1.24709e+00 -1.10188e+01        00000 
 1.35356e+00 -1.09938e+01        00000 
 1.47042e+00 -1.09619e+01        00000 
 1.66033e+00 -1.09223e+01        00000 
 1.91690e+00 -1.08618e+01        00000 
 2.24515e+00 -1.07869e+01        00000 
 2.58588e+00 -1.06926e+01        00000 
 2.92319e+00 -1.05602e+01        00000 
 3.28770e+00 -1.04167e+01        00000 
 3.23896e+00 -1.24421e+01        00000 
 3.08148e+00 -1.26369e+01        00000 
 2.90007e+00 -1.28150e+01        00000 
 2.74009e+00 -1.29594e+01        00000 
 2.55789e+00 -1.30724e+01        00000 
 2.33633e+00 -1.31762e+01        00000 
 2.06611e+00 -1.32644e+01        00000 
 1.76468e+00 -1.33439e+01        00000 
 1.49868e+00 -1.34431e+01        00000 
 1.26617e+00 -1.35126e+01        00000 
 1.03071e+00 -1.35846e+01        00000 
 8.12418e-01 -1.36298e+01        00000 
 5.39302e-01 -1.36656e+01        00000 
 2.74847e-01 -1.36981e+01        00000 
-3.72702e-02 -1.37161e+01        00000 
-3.34525e-01 -1.37411e+01        00000 
-6.22683e-01 -1.37539e+01        00000 