<?xml version="1.0" encoding="utf-8"?>
<VTKFile byte_order="LittleEndian" type="UnstructuredGrid" version="0.1">
   <UnstructuredGrid>
      <Piece NumberOfCells="3364" NumberOfPoints="1741">
         <Points>
            <DataArray Name="Points" NumberOfComponents="3" format="ascii" type="Float32">
0.0000 0.0000 0.0000
0.0000 0.0690 0.0000
0.0000 0.1379 0.0000
0.0000 0.2069 0.0000
0.0000 0.2759 0.0000
0.0000 0.3448 0.0000
0.0000 0.4138 0.0000
0.0000 0.4828 0.0000
0.0000 0.5517 0.0000
0.0000 0.6207 0.0000
0.0000 0.6897 0.0000
0.0000 0.7586 0.0000
0.0000 0.8276 0.0000
0.0000 0.8966 0.0000
0.0000 0.9655 0.0000
0.0000 1.0345 0.0000
0.0000 1.1034 0.0000
0.0000 1.1724 0.0000
0.0000 1.2414 0.0000
0.0000 1.3103 0.0000
0.0000 1.3793 0.0000
0.0000 1.4483 0.0000
0.0000 1.5172 0.0000
0.0000 1.5862 0.0000
0.0000 1.6552 0.0000
0.0000 1.7241 0.0000
0.0000 1.7931 0.0000
0.0000 1.8621 0.0000
0.0000 1.9310 0.0000
0.0000 2.0000 0.0000
1.0345 0.0000 0.0000
1.0345 0.0690 0.0000
1.0345 0.1379 0.0000
1.0345 0.2069 0.0000
1.0345 0.2759 0.0000
1.0345 0.3448 0.0000
1.0345 0.4138 0.0000
1.0345 0.4828 0.0000
1.0345 0.5517 0.0000
1.0345 0.6207 0.0000
1.0345 0.6897 0.0000
1.0345 0.7586 0.0000
1.0345 0.8276 0.0000
1.0345 0.8966 0.0000
1.0345 0.9655 0.0000
1.0345 1.0345 0.0000
1.0345 1.1034 0.0000
1.0345 1.1724 0.0000
1.0345 1.2414 0.0000
1.0345 1.3103 0.0000
1.0345 1.3793 0.0000
1.0345 1.4483 0.0000
1.0345 1.5172 0.0000
1.0345 1.5862 0.0000
1.0345 1.6552 0.0000
1.0345 1.7241 0.0000
1.0345 1.7931 0.0000
1.0345 1.8621 0.0000
1.0345 1.9310 0.0000
1.0345 2.0000 0.0000
2.0690 0.0000 0.0000
2.0690 0.0690 0.0000
2.0690 0.1379 0.0000
2.0690 0.2069 0.0000
2.0690 0.2759 0.0000
2.0690 0.3448 0.0000
2.0690 0.4138 0.0000
2.0690 0.4828 0.0000
2.0690 0.5517 0.0000
2.0690 0.6207 0.0000
2.0690 0.6897 0.0000
2.0690 0.7586 0.0000
2.0690 0.8276 0.0000
2.0690 0.8966 0.0000
2.0690 0.9655 0.0000
2.0690 1.0345 0.0000
2.0690 1.1034 0.0000
2.0690 1.1724 0.0000
2.0690 1.2414 0.0000
2.0690 1.3103 0.0000
2.0690 1.3793 0.0000
2.0690 1.4483 0.0000
2.0690 1.5172 0.0000
2.0690 1.5862 0.0000
2.0690 1.6552 0.0000
2.0690 1.7241 0.0000
2.0690 1.7931 0.0000
2.0690 1.8621 0.0000
2.0690 1.9310 0.0000
2.0690 2.0000 0.0000
3.1034 0.0000 0.0000
3.1034 0.0690 0.0000
3.1034 0.1379 0.0000
3.1034 0.2069 0.0000
3.1034 0.2759 0.0000
3.1034 0.3448 0.0000
3.1034 0.4138 0.0000
3.1034 0.4828 0.0000
3.1034 0.5517 0.0000
3.1034 0.6207 0.0000
3.1034 0.6897 0.0000
3.1034 0.7586 0.0000
3.1034 0.8276 0.0000
3.1034 0.8966 0.0000
3.1034 0.9655 0.0000
3.1034 1.0345 0.0000
3.1034 1.1034 0.0000
3.1034 1.1724 0.0000
3.1034 1.2414 0.0000
3.1034 1.3103 0.0000
3.1034 1.3793 0.0000
3.1034 1.4483 0.0000
3.1034 1.5172 0.0000
3.1034 1.5862 0.0000
3.1034 1.6552 0.0000
3.1034 1.7241 0.0000
3.1034 1.7931 0.0000
3.1034 1.8621 0.0000
3.1034 1.9310 0.0000
3.1034 2.0000 0.0000
4.1379 0.0000 0.0000
4.1379 0.0690 0.0000
4.1379 0.1379 0.0000
4.1379 0.2069 0.0000
4.1379 0.2759 0.0000
4.1379 0.3448 0.0000
4.1379 0.4138 0.0000
4.1379 0.4828 0.0000
4.1379 0.5517 0.0000
4.1379 0.6207 0.0000
4.1379 0.6897 0.0000
4.1379 0.7586 0.0000
4.1379 0.8276 0.0000
4.1379 0.8966 0.0000
4.1379 0.9655 0.0000
4.1379 1.0345 0.0000
4.1379 1.1034 0.0000
4.1379 1.1724 0.0000
4.1379 1.2414 0.0000
4.1379 1.3103 0.0000
4.1379 1.3793 0.0000
4.1379 1.4483 0.0000
4.1379 1.5172 0.0000
4.1379 1.5862 0.0000
4.1379 1.6552 0.0000
4.1379 1.7241 0.0000
4.1379 1.7931 0.0000
4.1379 1.8621 0.0000
4.1379 1.9310 0.0000
4.1379 2.0000 0.0000
5.1724 0.0000 0.0000
5.1724 0.0690 0.0000
5.1724 0.1379 0.0000
5.1724 0.2069 0.0000
5.1724 0.2759 0.0000
5.1724 0.3448 0.0000
5.1724 0.4138 0.0000
5.1724 0.4828 0.0000
5.1724 0.5517 0.0000
5.1724 0.6207 0.0000
5.1724 0.6897 0.0000
5.1724 0.7586 0.0000
5.1724 0.8276 0.0000
5.1724 0.8966 0.0000
5.1724 0.9655 0.0000
5.1724 1.0345 0.0000
5.1724 1.1034 0.0000
5.1724 1.1724 0.0000
5.1724 1.2414 0.0000
5.1724 1.3103 0.0000
5.1724 1.3793 0.0000
5.1724 1.4483 0.0000
5.1724 1.5172 0.0000
5.1724 1.5862 0.0000
5.1724 1.6552 0.0000
5.1724 1.7241 0.0000
5.1724 1.7931 0.0000
5.1724 1.8621 0.0000
5.1724 1.9310 0.0000
5.1724 2.0000 0.0000
6.2069 0.0000 0.0000
6.2069 0.0690 0.0000
6.2069 0.1379 0.0000
6.2069 0.2069 0.0000
6.2069 0.2759 0.0000
6.2069 0.3448 0.0000
6.2069 0.4138 0.0000
6.2069 0.4828 0.0000
6.2069 0.5517 0.0000
6.2069 0.6207 0.0000
6.2069 0.6897 0.0000
6.2069 0.7586 0.0000
6.2069 0.8276 0.0000
6.2069 0.8966 0.0000
6.2069 0.9655 0.0000
6.2069 1.0345 0.0000
6.2069 1.1034 0.0000
6.2069 1.1724 0.0000
6.2069 1.2414 0.0000
6.2069 1.3103 0.0000
6.2069 1.3793 0.0000
6.2069 1.4483 0.0000
6.2069 1.5172 0.0000
6.2069 1.5862 0.0000
6.2069 1.6552 0.0000
6.2069 1.7241 0.0000
6.2069 1.7931 0.0000
6.2069 1.8621 0.0000
6.2069 1.9310 0.0000
6.2069 2.0000 0.0000
7.2414 0.0000 0.0000
7.2414 0.0690 0.0000
7.2414 0.1379 0.0000
7.2414 0.2069 0.0000
7.2414 0.2759 0.0000
7.2414 0.3448 0.0000
7.2414 0.4138 0.0000
7.2414 0.4828 0.0000
7.2414 0.5517 0.0000
7.2414 0.6207 0.0000
7.2414 0.6897 0.0000
7.2414 0.7586 0.0000
7.2414 0.8276 0.0000
7.2414 0.8966 0.0000
7.2414 0.9655 0.0000
7.2414 1.0345 0.0000
7.2414 1.1034 0.0000
7.2414 1.1724 0.0000
7.2414 1.2414 0.0000
7.2414 1.3103 0.0000
7.2414 1.3793 0.0000
7.2414 1.4483 0.0000
7.2414 1.5172 0.0000
7.2414 1.5862 0.0000
7.2414 1.6552 0.0000
7.2414 1.7241 0.0000
7.2414 1.7931 0.0000
7.2414 1.8621 0.0000
7.2414 1.9310 0.0000
7.2414 2.0000 0.0000
8.2759 0.0000 0.0000
8.2759 0.0690 0.0000
8.2759 0.1379 0.0000
8.2759 0.2069 0.0000
8.2759 0.2759 0.0000
8.2759 0.3448 0.0000
8.2759 0.4138 0.0000
8.2759 0.4828 0.0000
8.2759 0.5517 0.0000
8.2759 0.6207 0.0000
8.2759 0.6897 0.0000
8.2759 0.7586 0.0000
8.2759 0.8276 0.0000
8.2759 0.8966 0.0000
8.2759 0.9655 0.0000
8.2759 1.0345 0.0000
8.2759 1.1034 0.0000
8.2759 1.1724 0.0000
8.2759 1.2414 0.0000
8.2759 1.3103 0.0000
8.2759 1.3793 0.0000
8.2759 1.4483 0.0000
8.2759 1.5172 0.0000
8.2759 1.5862 0.0000
8.2759 1.6552 0.0000
8.2759 1.7241 0.0000
8.2759 1.7931 0.0000
8.2759 1.8621 0.0000
8.2759 1.9310 0.0000
8.2759 2.0000 0.0000
9.3103 0.0000 0.0000
9.3103 0.0690 0.0000
9.3103 0.1379 0.0000
9.3103 0.2069 0.0000
9.3103 0.2759 0.0000
9.3103 0.3448 0.0000
9.3103 0.4138 0.0000
9.3103 0.4828 0.0000
9.3103 0.5517 0.0000
9.3103 0.6207 0.0000
9.3103 0.6897 0.0000
9.3103 0.7586 0.0000
9.3103 0.8276 0.0000
9.3103 0.8966 0.0000
9.3103 0.9655 0.0000
9.3103 1.0345 0.0000
9.3103 1.1034 0.0000
9.3103 1.1724 0.0000
9.3103 1.2414 0.0000
9.3103 1.3103 0.0000
9.3103 1.3793 0.0000
9.3103 1.4483 0.0000
9.3103 1.5172 0.0000
9.3103 1.5862 0.0000
9.3103 1.6552 0.0000
9.3103 1.7241 0.0000
9.3103 1.7931 0.0000
9.3103 1.8621 0.0000
9.3103 1.9310 0.0000
9.3103 2.0000 0.0000
10.3448 0.0000 0.0000
10.3448 0.0690 0.0000
10.3448 0.1379 0.0000
10.3448 0.2069 0.0000
10.3448 0.2759 0.0000
10.3448 0.3448 0.0000
10.3448 0.4138 0.0000
10.3448 0.4828 0.0000
10.3448 0.5517 0.0000
10.3448 0.6207 0.0000
10.3448 0.6897 0.0000
10.3448 0.7586 0.0000
10.3448 0.8276 0.0000
10.3448 0.8966 0.0000
10.3448 0.9655 0.0000
10.3448 1.0345 0.0000
10.3448 1.1034 0.0000
10.3448 1.1724 0.0000
10.3448 1.2414 0.0000
10.3448 1.3103 0.0000
10.3448 1.3793 0.0000
10.3448 1.4483 0.0000
10.3448 1.5172 0.0000
10.3448 1.5862 0.0000
10.3448 1.6552 0.0000
10.3448 1.7241 0.0000
10.3448 1.7931 0.0000
10.3448 1.8621 0.0000
10.3448 1.9310 0.0000
10.3448 2.0000 0.0000
11.3793 0.0000 0.0000
11.3793 0.0690 0.0000
11.3793 0.1379 0.0000
11.3793 0.2069 0.0000
11.3793 0.2759 0.0000
11.3793 0.3448 0.0000
11.3793 0.4138 0.0000
11.3793 0.4828 0.0000
11.3793 0.5517 0.0000
11.3793 0.6207 0.0000
11.3793 0.6897 0.0000
11.3793 0.7586 0.0000
11.3793 0.8276 0.0000
11.3793 0.8966 0.0000
11.3793 0.9655 0.0000
11.3793 1.0345 0.0000
11.3793 1.1034 0.0000
11.3793 1.1724 0.0000
11.3793 1.2414 0.0000
11.3793 1.3103 0.0000
11.3793 1.3793 0.0000
11.3793 1.4483 0.0000
11.3793 1.5172 0.0000
11.3793 1.5862 0.0000
11.3793 1.6552 0.0000
11.3793 1.7241 0.0000
11.3793 1.7931 0.0000
11.3793 1.8621 0.0000
11.3793 1.9310 0.0000
11.3793 2.0000 0.0000
12.4138 0.0000 0.0000
12.4138 0.0690 0.0000
12.4138 0.1379 0.0000
12.4138 0.2069 0.0000
12.4138 0.2759 0.0000
12.4138 0.3448 0.0000
12.4138 0.4138 0.0000
12.4138 0.4828 0.0000
12.4138 0.5517 0.0000
12.4138 0.6207 0.0000
12.4138 0.6897 0.0000
12.4138 0.7586 0.0000
12.4138 0.8276 0.0000
12.4138 0.8966 0.0000
12.4138 0.9655 0.0000
12.4138 1.0345 0.0000
12.4138 1.1034 0.0000
12.4138 1.1724 0.0000
12.4138 1.2414 0.0000
12.4138 1.3103 0.0000
12.4138 1.3793 0.0000
12.4138 1.4483 0.0000
12.4138 1.5172 0.0000
12.4138 1.5862 0.0000
12.4138 1.6552 0.0000
12.4138 1.7241 0.0000
12.4138 1.7931 0.0000
12.4138 1.8621 0.0000
12.4138 1.9310 0.0000
12.4138 2.0000 0.0000
13.4483 0.0000 0.0000
13.4483 0.0690 0.0000
13.4483 0.1379 0.0000
13.4483 0.2069 0.0000
13.4483 0.2759 0.0000
13.4483 0.3448 0.0000
13.4483 0.4138 0.0000
13.4483 0.4828 0.0000
13.4483 0.5517 0.0000
13.4483 0.6207 0.0000
13.4483 0.6897 0.0000
13.4483 0.7586 0.0000
13.4483 0.8276 0.0000
13.4483 0.8966 0.0000
13.4483 0.9655 0.0000
13.4483 1.0345 0.0000
13.4483 1.1034 0.0000
13.4483 1.1724 0.0000
13.4483 1.2414 0.0000
13.4483 1.3103 0.0000
13.4483 1.3793 0.0000
13.4483 1.4483 0.0000
13.4483 1.5172 0.0000
13.4483 1.5862 0.0000
13.4483 1.6552 0.0000
13.4483 1.7241 0.0000
13.4483 1.7931 0.0000
13.4483 1.8621 0.0000
13.4483 1.9310 0.0000
13.4483 2.0000 0.0000
14.4828 0.0000 0.0000
14.4828 0.0690 0.0000
14.4828 0.1379 0.0000
14.4828 0.2069 0.0000
14.4828 0.2759 0.0000
14.4828 0.3448 0.0000
14.4828 0.4138 0.0000
14.4828 0.4828 0.0000
14.4828 0.5517 0.0000
14.4828 0.6207 0.0000
14.4828 0.6897 0.0000
14.4828 0.7586 0.0000
14.4828 0.8276 0.0000
14.4828 0.8966 0.0000
14.4828 0.9655 0.0000
14.4828 1.0345 0.0000
14.4828 1.1034 0.0000
14.4828 1.1724 0.0000
14.4828 1.2414 0.0000
14.4828 1.3103 0.0000
14.4828 1.3793 0.0000
14.4828 1.4483 0.0000
14.4828 1.5172 0.0000
14.4828 1.5862 0.0000
14.4828 1.6552 0.0000
14.4828 1.7241 0.0000
14.4828 1.7931 0.0000
14.4828 1.8621 0.0000
14.4828 1.9310 0.0000
14.4828 2.0000 0.0000
15.5172 0.0000 0.0000
15.5172 0.0690 0.0000
15.5172 0.1379 0.0000
15.5172 0.2069 0.0000
[...]
         <PointData>
            <DataArray Name="fValues" NumberOfComponents="3" format="ascii" type="Float64">
-1.32495e-18  1.25388e-16        00000 
-1.71982e-17 -5.15945e-17        00000 
-1.70069e-17  1.19048e-16        00000 
 4.40712e-18  1.22865e-17        00000 
-1.27551e-17  1.70069e-17        00000 
 3.32315e-17  7.79965e-17        00000 
 6.37757e-18  8.50343e-18        00000 
-1.57588e-17  4.43383e-17        00000 
 2.97620e-17  4.25172e-17        00000 
-1.29927e-17 -3.86210e-17        00000 
 1.48810e-17 -9.35377e-17        00000 
-2.23027e-17  5.02145e-17        00000 
-2.12586e-18  8.50343e-18        00000 
 1.74548e-17 -1.07881e-16        00000 
 2.97620e-17  1.70069e-17        00000 
-2.48402e-17  2.72440e-17        00000 
 1.54125e-17 -9.77895e-17        00000 
-4.47122e-19 -2.53443e-18        00000 
-9.56636e-18  6.37757e-17        00000 
 5.20842e-18 -5.50223e-17        00000 
-2.33844e-17 -3.82654e-17        00000 
-5.15911e-17 -4.24026e-17        00000 
 3.40137e-17  2.55103e-17        00000 
-2.85795e-17 -3.20518e-17        00000 
 4.67689e-17  1.16922e-17        00000 
 1.30419e-17 -2.33155e-17        00000 
-4.67689e-17 -6.37757e-18        00000 
 2.35485e-17  1.22425e-17        00000 
-6.43228e-18 -3.75216e-18        00000 
 1.60807e-18  4.01393e-18        00000 
-1.87029e-01  5.71852e-01        00000 
-1.75914e-01  5.75983e-01        00000 
-2.00775e-01  6.04040e-01        00000 
-1.89594e-01  5.96214e-01        00000 
-1.58614e-01  6.10840e-01        00000 
-1.34585e-01  5.99070e-01        00000 
-1.64993e-01  6.03077e-01        00000 
-1.81493e-01  6.07499e-01        00000 
-2.21041e-01  6.24873e-01        00000 
-2.22532e-01  6.37310e-01        00000 
-2.29661e-01  6.28046e-01        00000 
-2.46496e-01  6.07283e-01        00000 
-2.06717e-01  5.97522e-01        00000 
-1.82682e-01  5.64365e-01        00000 
-1.58565e-01  5.46142e-01        00000 
-1.07699e-01  5.31874e-01        00000 
-5.79525e-02  5.04298e-01        00000 
-1.72772e-02  4.62332e-01        00000 
 3.02287e-02  4.02196e-01        00000 
 8.25692e-02  3.56042e-01        00000 
 1.77145e-01  3.23833e-01        00000 
 2.28405e-01  2.68273e-01        00000 
 2.73737e-01  2.22045e-01        00000 
 2.75065e-01  1.83769e-01        00000 
 3.00810e-01  1.25254e-01        00000 
 3.02757e-01  8.38225e-02        00000 
 2.92009e-01  5.41106e-02        00000 
 2.81753e-01  3.18073e-02        00000 
 2.57294e-01  8.76018e-03        00000 
 2.71701e-01 -1.45383e-03        00000 
-3.63155e-01  1.57775e-01        00000 
-3.19164e-01  1.49439e-01        00000 
-2.50241e-01  1.28117e-01        00000 
-2.24398e-01  1.11539e-01        00000 
-2.21867e-01  1.05091e-01        00000 
-1.87963e-01  9.99975e-02        00000 
-1.62174e-01  9.93989e-02        00000 
-1.50361e-01  9.70754e-02        00000 
-1.36469e-01  6.75146e-02        00000 
-1.13029e-01  4.41248e-02        00000 
-1.16343e-01  3.84090e-02        00000 
-7.97204e-02  7.72367e-03        00000 
-5.34448e-02 -3.36409e-03        00000 
-2.08462e-02 -1.25775e-02        00000 
 4.53748e-02 -5.10347e-02        00000 
 8.50256e-02 -7.87362e-02        00000 
 1.57121e-01 -1.00106e-01        00000 
 2.36436e-01 -1.30721e-01        00000 
 2.66346e-01 -1.50363e-01        00000 
 2.64413e-01 -1.66177e-01        00000 
 2.76745e-01 -2.03517e-01        00000 
 2.80216e-01 -2.09927e-01        00000 
 2.82517e-01 -2.34995e-01        00000 
 3.30170e-01 -2.61229e-01        00000 
 3.68442e-01 -2.84713e-01        00000 
 3.82372e-01 -2.86966e-01        00000 
 4.06798e-01 -2.99083e-01        00000 
 4.30954e-01 -3.02553e-01        00000 
 4.65772e-01 -2.92852e-01        00000 
 4.84975e-01 -3.04239e-01        00000 
 6.14878e-01 -6.83497e-01        00000 
 6.27869e-01 -7.00427e-01        00000 
 6.18860e-01 -7.04943e-01        00000 
 5.86976e-01 -7.07958e-01        00000 
 5.75171e-01 -7.22231e-01        00000 
 5.35382e-01 -7.40918e-01        00000 
 5.37886e-01 -7.62997e-01        00000 
 5.99669e-01 -7.84528e-01        00000 
 6.28551e-01 -7.88442e-01        00000 
 6.42493e-01 -8.00404e-01        00000 
 6.81427e-01 -8.17783e-01        00000 
 6.93456e-01 -8.39419e-01        00000 
 6.70706e-01 -8.58160e-01        00000 
 6.70765e-01 -9.10077e-01        00000 
 6.27798e-01 -9.21877e-01        00000 
 5.81194e-01 -9.60785e-01        00000 
 5.29839e-01 -9.79303e-01        00000 
 5.24467e-01 -9.83143e-01        00000 
 4.78776e-01 -9.96923e-01        00000 
 4.71875e-01 -1.00758e+00        00000 
 4.45416e-01 -1.02676e+00        00000 
 4.06897e-01 -1.03766e+00        00000 
 3.54960e-01 -1.03763e+00        00000 
 3.23899e-01 -1.03591e+00        00000 
 2.73920e-01 -1.04356e+00        00000 
 2.45789e-01 -1.04874e+00        00000 
 2.38828e-01 -1.03715e+00        00000 
 2.06920e-01 -1.03299e+00        00000 
 2.34691e-01 -1.03841e+00        00000 
 2.63380e-01 -1.03256e+00        00000 
 7.28432e-01 -2.55708e-01        00000 
 6.87692e-01 -2.36671e-01        00000 
 6.70367e-01 -2.21982e-01        00000 
 6.82004e-01 -2.22764e-01        00000 
 6.99169e-01 -1.82709e-01        00000 
 7.18385e-01 -1.76611e-01        00000 
 7.48977e-01 -1.53319e-01        00000 
 7.61169e-01 -1.34697e-01        00000 
 7.92128e-01 -1.20401e-01        00000 
 8.25254e-01 -1.12038e-01        00000 
 8.15620e-01 -1.02500e-01        00000 
 8.33583e-01 -8.74656e-02        00000 
 8.98231e-01 -6.59767e-02        00000 
 9.26670e-01 -4.01844e-02        00000 
 9.13772e-01 -3.03405e-02        00000 
 8.90506e-01 -1.99049e-02        00000 
 8.44354e-01 -2.24354e-02        00000 
 8.04912e-01 -3.13500e-02        00000 
 8.03253e-01 -5.19213e-02        00000 
 7.92360e-01 -6.72348e-02        00000 
 7.65289e-01 -6.98257e-02        00000 
 7.77569e-01 -8.49813e-02        00000 
 7.60521e-01 -1.17204e-01        00000 
 7.58852e-01 -1.33982e-01        00000 
 7.32102e-01 -1.63741e-01        00000 
 6.73084e-01 -1.95255e-01        00000 
 6.08124e-01 -1.97684e-01        00000 
 5.67147e-01 -2.32487e-01        00000 
 4.97407e-01 -2.41155e-01        00000 
 3.93361e-01 -2.42739e-01        00000 
-5.06100e-01  3.29784e-01        00000 
-4.88968e-01  3.52573e-01        00000 
-4.75759e-01  3.83442e-01        00000 
-5.02276e-01  4.00539e-01        00000 
-5.44667e-01  4.00817e-01        00000 
-5.35782e-01  4.05048e-01        00000 
-5.40731e-01  4.07838e-01        00000 
-5.33234e-01  4.22719e-01        00000 
-5.19506e-01  4.36331e-01        00000 
-5.09509e-01  4.77062e-01        00000 
-4.54971e-01  5.19561e-01        00000 
-3.98082e-01  5.69187e-01        00000 
-3.57841e-01  6.31174e-01        00000 
-3.15336e-01  6.90412e-01        00000 
-2.13100e-01  7.44528e-01        00000 
-8.40454e-02  8.08819e-01        00000 
 7.98130e-02  8.51961e-01        00000 
 2.06162e-01  8.97471e-01        00000 
 3.48612e-01  9.45298e-01        00000 
 4.49458e-01  9.97412e-01        00000 
 5.25429e-01  1.03484e+00        00000 
 5.64390e-01  1.07558e+00        00000 
 6.15257e-01  1.14076e+00        00000 
 6.23595e-01  1.17809e+00        00000 
 6.80120e-01  1.24328e+00        00000 
 6.75569e-01  1.29728e+00        00000 
 6.25604e-01  1.33457e+00        00000 
 5.54561e-01  1.36519e+00        00000 
 4.89242e-01  1.39058e+00        00000 
 4.59825e-01  1.38435e+00        00000 
-1.42243e+00 -5.58132e-01        00000 
-1.32828e+00 -5.40832e-01        00000 
-1.24401e+00 -5.52044e-01        00000 
-1.15691e+00 -5.30473e-01        00000 
-1.03493e+00 -5.24799e-01        00000 
-9.55375e-01 -5.16201e-01        00000 
-8.92306e-01 -5.04315e-01        00000 
-8.83238e-01 -5.16091e-01        00000 
-8.84394e-01 -5.08191e-01        00000 
-8.90627e-01 -5.27184e-01        00000 
-9.00021e-01 -5.31290e-01        00000 
-9.11580e-01 -5.25732e-01        00000 
-8.89339e-01 -5.41559e-01        00000 
-8.53280e-01 -5.57647e-01        00000 
-7.86430e-01 -5.36530e-01        00000 
-7.74622e-01 -5.36074e-01        00000 
-7.60218e-01 -5.28538e-01        00000 
-7.60530e-01 -5.10731e-01        00000 
-7.36532e-01 -4.96661e-01        00000 
-6.82464e-01 -4.58003e-01        00000 
-6.20947e-01 -4.12696e-01        00000 
-5.38497e-01 -3.60212e-01        00000 
-4.54158e-01 -3.26207e-01        00000 
-3.71621e-01 -2.74731e-01        00000 
-2.86716e-01 -2.44525e-01        00000 
-1.91997e-01 -2.20879e-01        00000 
-1.35986e-02 -1.72892e-01        00000 
 1.82089e-01 -1.44301e-01        00000 
 3.58858e-01 -1.23893e-01        00000 
 5.28971e-01 -9.37622e-02        00000 
-1.03783e-01 -2.20939e+00        00000 
-4.65269e-02 -2.30657e+00        00000 
-2.81646e-02 -2.36236e+00        00000 
-2.69119e-02 -2.42892e+00        00000 
-3.19954e-02 -2.49740e+00        00000 
-4.66275e-02 -2.55322e+00        00000 
-3.62199e-02 -2.60379e+00        00000 
-6.49737e-02 -2.66502e+00        00000 
-1.92379e-02 -2.72051e+00        00000 
 1.59249e-02 -2.77421e+00        00000 
 1.59759e-02 -2.82016e+00        00000 
-1.84752e-02 -2.88598e+00        00000 
-1.27782e-01 -2.94379e+00        00000 
-2.21771e-01 -2.99430e+00        00000 
-3.18549e-01 -3.05797e+00        00000 
-4.25573e-01 -3.09488e+00        00000 
-5.01730e-01 -3.12990e+00        00000 
-5.85528e-01 -3.16847e+00        00000 
-6.89309e-01 -3.18292e+00        00000 
-7.75237e-01 -3.19442e+00        00000 
-8.64683e-01 -3.21805e+00        00000 
-9.23841e-01 -3.22165e+00        00000 
-9.69608e-01 -3.21005e+00        00000 
-1.00413e+00 -3.21635e+00        00000 
-1.05501e+00 -3.18772e+00        00000 
-1.06363e+00 -3.16697e+00        00000 
-1.07593e+00 -3.13946e+00        00000 
-1.10285e+00 -3.10436e+00        00000 
-1.05952e+00 -3.05927e+00        00000 
-9.82537e-01 -3.00660e+00        00000 
 3.15355e+00 -7.51660e-01        00000 
 2.86093e+00 -7.96015e-01        00000 
 2.59208e+00 -8.46315e-01        00000 
 2.32620e+00 -8.81800e-01        00000 
 2.03850e+00 -9.16300e-01        00000 
 1.78891e+00 -9.62765e-01        00000 
 1.54204e+00 -1.01111e+00        00000 
 1.36785e+00 -1.04982e+00        00000 
 1.18824e+00 -1.10015e+00        00000 
 1.03144e+00 -1.13111e+00        00000 
 9.20511e-01 -1.15736e+00        00000 
 8.10275e-01 -1.16760e+00        00000 
 6.73904e-01 -1.19674e+00        00000 
 5.12059e-01 -1.19821e+00        00000 
 3.03654e-01 -1.21914e+00        00000 
 1.09354e-01 -1.22584e+00        00000 
-9.36839e-02 -1.25886e+00        00000 
-2.53847e-01 -1.27533e+00        00000 
-4.10827e-01 -1.30038e+00        00000 
-5.79649e-01 -1.31764e+00        00000 
-7.46751e-01 -1.33099e+00        00000 
-9.80742e-01 -1.35734e+00        00000 
-1.22738e+00 -1.36896e+00        00000 
-1.49075e+00 -1.38592e+00        00000 
-1.74580e+00 -1.40150e+00        00000 
-1.99478e+00 -1.41569e+00        00000 
-2.24612e+00 -1.42631e+00        00000 
-2.50914e+00 -1.41483e+00        00000 
-2.77863e+00 -1.40550e+00        00000 
-3.09197e+00 -1.37129e+00        00000 
 2.75300e+00  5.29974e+00        00000 
 2.42437e+00  5.37819e+00        00000 
 2.12782e+00  5.45278e+00        00000 
 1.86208e+00  5.52682e+00        00000 
 1.67608e+00  5.59311e+00        00000 
 1.53086e+00  5.65735e+00        00000 
 1.38278e+00  5.70619e+00        00000 
 1.19496e+00  5.73786e+00        00000 
 9.85508e-01  5.76405e+00        00000 
 7.72212e-01  5.80291e+00        00000 
 5.55321e-01  5.82978e+00        00000 
 3.48300e-01  5.86048e+00        00000 
 2.49571e-01  5.87419e+00        00000 
 2.09382e-01  5.89027e+00        00000 
 2.33965e-01  5.90714e+00        00000 
 2.21360e-01  5.89785e+00        00000 
 1.62036e-01  5.89459e+00        00000 
 6.75956e-02  5.86627e+00        00000 
-5.96300e-02  5.86170e+00        00000 
-2.06704e-01  5.83666e+00        00000 
-4.08120e-01  5.81004e+00        00000 
-5.63338e-01  5.77789e+00        00000 
-7.44242e-01  5.73871e+00        00000 
-9.11476e-01  5.71688e+00        00000 
-1.09482e+00  5.69090e+00        00000 
-1.32497e+00  5.65514e+00        00000 
-1.59410e+00  5.60459e+00        00000 
-1.86203e+00  5.54137e+00        00000 
-2.18790e+00  5.47540e+00        00000 
-2.53911e+00  5.38310e+00        00000 
-2.55679e+00  7.56181e+00        00000 
-2.33346e+00  7.73534e+00        00000 
-2.08643e+00  7.88743e+00        00000 
-1.87257e+00  8.03278e+00        00000 
-1.70461e+00  8.16093e+00        00000 
-1.54091e+00  8.27919e+00        00000 
-1.40197e+00  8.39909e+00        00000 
-1.25211e+00  8.50084e+00        00000 
-1.06972e+00  8.60899e+00        00000 
-8.55574e-01  8.67448e+00        00000 
-6.23999e-01  8.71726e+00        00000 
-3.74722e-01  8.74101e+00        00000 
-1.74628e-01  8.71574e+00        00000 
-8.06273e-03  8.70554e+00        00000 
 1.37645e-01  8.70599e+00        00000 
 2.68075e-01  8.69282e+00        00000 
 4.27543e-01  8.68284e+00        00000 
 5.81096e-01  8.67472e+00        00000 
 7.17807e-01  8.65635e+00        00000 
 8.84220e-01  8.64137e+00        00000 
 1.08568e+00  8.62114e+00        00000 
 1.24322e+00  8.59484e+00        00000 
 1.41910e+00  8.54632e+00        00000 
 1.55935e+00  8.49201e+00        00000 
 1.66094e+00  8.41448e+00        00000 
 1.79580e+00  8.34460e+00        00000 
 1.94438e+00  8.25732e+00        00000 
 2.04968e+00  8.15374e+00        00000 
 2.15027e+00  8.03479e+00        00000 
 2.26909e+00  7.91046e+00        00000 
-7.52912e+00 -1.49248e-01        00000 
-6.88068e+00 -4.67035e-02        00000 
-6.29364e+00  3.95167e-02        00000 
-5.73943e+00  1.26968e-01        00000 
-5.22142e+00  2.29873e-01        00000 
-4.71253e+00  3.08505e-01        00000 
-4.25354e+00  3.83900e-01        00000 
-3.75351e+00  4.46078e-01        00000 
-3.26796e+00  4.91001e-01        00000 
-2.75052e+00  5.72779e-01        00000 
-2.20700e+00  6.43266e-01        00000 
-1.66932e+00  7.43077e-01        00000 
-1.19321e+00  8.56784e-01        00000 
-7.37496e-01  9.80342e-01        00000 
-2.77796e-01  1.06343e+00        00000 
 1.45941e-01  1.15653e+00        00000 
 5.46052e-01  1.25347e+00        00000 
 8.94919e-01  1.32031e+00        00000 
 1.26836e+00  1.39522e+00        00000 
 1.68293e+00  1.44893e+00        00000 
 2.07909e+00  1.49857e+00        00000 
 2.46799e+00  1.52888e+00        00000 
 2.87723e+00  1.54724e+00        00000 
 3.31660e+00  1.55704e+00        00000 
 3.78415e+00  1.55894e+00        00000 
 4.26846e+00  1.54370e+00        00000 
 4.79403e+00  1.49177e+00        00000 
 5.40110e+00  1.45182e+00        00000 
 6.03076e+00  1.37849e+00        00000 
 6.68215e+00  1.27692e+00        00000 
-8.45081e+00 -1.05115e+01        00000 
-7.76219e+00 -1.05828e+01        00000 
-7.10769e+00 -1.06317e+01        00000 
-6.46150e+00 -1.06970e+01        00000 
-5.81030e+00 -1.07573e+01        00000 
-5.15089e+00 -1.08166e+01        00000 
-4.51555e+00 -1.08697e+01        00000 
-3.92510e+00 -1.08961e+01        00000 
-3.42101e+00 -1.09262e+01        00000 
-2.99565e+00 -1.09681e+01        00000 
-2.60638e+00 -1.10071e+01        00000 
-2.24218e+00 -1.10680e+01        00000 
-1.88510e+00 -1.11209e+01        00000 
-1.50374e+00 -1.11811e+01        00000 
-1.09148e+00 -1.12081e+01        00000 
-6.28091e-01 -1.12229e+01        00000 
-1.48184e-01 -1.12188e+01        00000 
 3.73331e-01 -1.12247e+01        00000 
 8.20867e-01 -1.12228e+01        00000 
 1.25567e+00 -1.12108e+01        00000 
 1.71245e+00 -1.11911e+01        00000 
 2.19829e+00 -1.11816e+01        00000 
 2.66935e+00 -1.11759e+01        00000 
 3.16101e+00 -1.11533e+01        00000 
 3.73390e+00 -1.11682e+01        00000 
 4.33233e+00 -1.11441e+01        00000 
 4.95653e+00 -1.11165e+01        00000 
 5.58164e+00 -1.10896e+01        00000 
 6.25203e+00 -1.10425e+01        00000 
 7.02687e+00 -1.09859e+01        00000 
-2.98988e+00 -1.98104e+01        00000 
-2.67913e+00 -2.00195e+01        00000 
-2.42445e+00 -2.02114e+01        00000 
-2.26182e+00 -2.03706e+01        00000 
-2.12047e+00 -2.05119e+01        00000 
-2.00741e+00 -2.06431e+01        00000 
-1.90678e+00 -2.07431e+01        00000 
-1.77740e+00 -2.08427e+01        00000 
-1.61018e+00 -2.09397e+01        00000 
-1.38274e+00 -2.10233e+01        00000 
-1.14188e+00 -2.10925e+01        00000 
-8.85357e-01 -2.11280e+01        00000 
-6.59339e-01 -2.11592e+01        00000 
-4.49844e-01 -2.11934e+01        00000 
-2.97706e-01 -2.12258e+01        00000 
-2.00048e-01 -2.12675e+01        00000 
-1.35663e-01 -2.12884e+01        00000 
-7.00599e-02 -2.13008e+01        00000 
 6.98844e-03 -2.12814e+01        00000 
 1.30470e-01 -2.12541e+01        00000 
 3.19591e-01 -2.12158e+01        00000 
 4.99553e-01 -2.11441e+01        00000 
 7.07183e-01 -2.10682e+01        00000 
 9.48416e-01 -2.09826e+01        00000 
 1.15182e+00 -2.08776e+01        00000 
 1.33050e+00 -2.07480e+01        00000 
 1.59824e+00 -2.06094e+01        00000 
 1.89319e+00 -2.04458e+01        00000 
 2.21947e+00 -2.02744e+01        00000 
 2.52455e+00 -2.00844e+01        00000 
 5.23252e+00 -1.91087e+01        00000 
 4.82489e+00 -1.93505e+01        00000 
 4.46511e+00 -1.95816e+01        00000 
 4.11062e+00 -1.98086e+01        00000 
 3.77169e+00 -2.00140e+01        00000 
 3.47309e+00 -2.02005e+01        00000 
 3.13127e+00 -2.03748e+01        00000 
 2.81700e+00 -2.05210e+01        00000 
 2.53511e+00 -2.06777e+01        00000 
 2.16193e+00 -2.08117e+01        00000 
 1.79279e+00 -2.09392e+01        00000 
 1.40672e+00 -2.10518e+01        00000 
 1.01297e+00 -2.11254e+01        00000 
 5.82901e-01 -2.11672e+01        00000 
 1.79417e-01 -2.11702e+01        00000 
-2.38003e-01 -2.11414e+01        00000 
-5.81157e-01 -2.10914e+01        00000 
-9.34389e-01 -2.10405e+01        00000 
-1.27847e+00 -2.09889e+01        00000 
-1.63858e+00 -2.09248e+01        00000 
-2.01643e+00 -2.08409e+01        00000 
-2.40762e+00 -2.07447e+01        00000 
-2.77996e+00 -2.06416e+01        00000 
-3.19272e+00 -2.05285e+01        00000 
-3.59781e+00 -2.04037e+01        00000 
-3.97518e+00 -2.02828e+01        00000 
-4.43498e+00 -2.01217e+01        00000 
-4.89979e+00 -1.99425e+01        00000 
-5.32857e+00 -1.97241e+01        00000 
-5.79524e+00 -1.94819e+01        00000 
 1.33951e+01 -7.97450e+00        00000 
 1.23381e+01 -8.19340e+00        00000 
 1.13116e+01 -8.36084e+00        00000 
 1.03457e+01 -8.51228e+00        00000 
 9.39350e+00 -8.63437e+00        00000 
 8.43924e+00 -8.74750e+00        00000 
 7.47286e+00 -8.84459e+00        00000 
 6.53402e+00 -8.92127e+00        00000 
 5.54845e+00 -8.99692e+00        00000 
 4.56897e+00 -9.03010e+00        00000 
 3.61828e+00 -9.05729e+00        00000 
 2.65635e+00 -9.05961e+00        00000 
 1.73567e+00 -9.05368e+00        00000 
 8.44948e-01 -9.06709e+00        00000 
-8.19854e-03 -9.07298e+00        00000 
-8.31129e-01 -9.07808e+00        00000 
-1.66389e+00 -9.08014e+00        00000 
-2.47614e+00 -9.05091e+00        00000 
-3.33199e+00 -9.00441e+00        00000 
-4.20487e+00 -8.93947e+00        00000 
-5.06494e+00 -8.85582e+00        00000 
-5.98814e+00 -8.77755e+00        00000 
-6.87807e+00 -8.67577e+00        00000 
-7.79797e+00 -8.56664e+00        00000 
-8.72264e+00 -8.42394e+00        00000 
-9.68312e+00 -8.27836e+00        00000 
-1.06650e+01 -8.11982e+00        00000 
-1.16763e+01 -7.96028e+00        00000 
-1.27480e+01 -7.78899e+00        00000 
-1.37954e+01 -7.57446e+00        00000 
 1.95280e+01  1.25952e+01        00000 
 1.79832e+01  1.24648e+01        00000 
 1.64421e+01  1.23275e+01        00000 
 1.48826e+01  1.22108e+01        00000 
 1.33473e+01  1.20955e+01        00000 
 1.18416e+01  1.19989e+01        00000 
 1.03843e+01  1.19134e+01        00000 
 8.92213e+00  1.18444e+01        00000 
 7.53538e+00  1.17673e+01        00000 
 6.21311e+00  1.16673e+01        00000 
 4.94848e+00  1.16076e+01        00000 
 3.73862e+00  1.15319e+01        00000 
 2.54650e+00  1.14820e+01        00000 
 1.41307e+00  1.14434e+01        00000 
 2.91630e-01  1.14339e+01        00000 
-8.51019e-01  1.14258e+01        00000 
-2.06052e+00  1.14167e+01        00000 