<?xml version="1.0" encoding="utf-8"?>
<VTKFile byte_order="LittleEndian" type="UnstructuredGrid" version="0.1">
   <UnstructuredGrid>
      <Piece NumberOfCells="3364" NumberOfPoints="1741">
         <Points>
            <DataArray Name="Points" NumberOfComponents="3" format="ascii" type="Float32">
0.0000 0.0000 0.0000
0.0000 0.0690 0.0000
0.0000 0.1379 0.0000
0.0000 0.2069 0.0000
0.0000 0.2759 0.0000
0.0000 0.3448 0.0000
0.0000 0.4138 0.0000
0.0000 0.4828 0.0000
0.0000 0.5517 0.0000
0.0000 0.6207 0.0000
0.0000 0.6897 0.0000
0.0000 0.7586 0.0000
0.0000 0.8276 0.0000
0.0000 0.8966 0.0000
0.0000 0.9655 0.0000
0.0000 1.0345 0.0000
0.0000 1.1034 0.0000
0.0000 1.1724 0.0000
0.0000 1.2414 0.0000
0.0000 1.3103 0.0000
0.0000 1.3793 0.0000
0.0000 1.4483 0.0000
0.0000 1.5172 0.0000
0.0000 1.5862 0.0000
0.0000 1.6552 0.0000
0.0000 1.7241 0.0000
0.0000 1.7931 0.0000
0.0000 1.8621 0.0000
0.0000 1.9310 0.0000
0.0000 2.0000 0.0000
1.0345 0.0000 0.0000
1.0345 0.0690 0.0000
1.0345 0.1379 0.0000
1.0345 0.2069 0.0000
1.0345 0.2759 0.0000
1.0345 0.3448 0.0000
1.0345 0.4138 0.0000
1.0345 0.4828 0.0000
1.0345 0.5517 0.0000
1.0345 0.6207 0.0000
1.0345 0.6897 0.0000
1.0345 0.7586 0.0000
1.0345 0.8276 0.0000
1.0345 0.8966 0.0000
1.0345 0.9655 0.0000
1.0345 1.0345 0.0000
1.0345 1.1034 0.0000
1.0345 1.1724 0.0000
1.0345 1.2414 0.0000
1.0345 1.3103 0.0000
1.0345 1.3793 0.0000
1.0345 1.4483 0.0000
1.0345 1.5172 0.0000
1.0345 1.5862 0.0000
1.0345 1.6552 0.0000
1.0345 1.7241 0.0000
1.0345 1.7931 0.0000
1.0345 1.8621 0.0000
1.0345 1.9310 0.0000
1.0345 2.0000 0.0000
2.0690 0.0000 0.0000
2.0690 0.0690 0.0000
2.0690 0.1379 0.0000
2.0690 0.2069 0.0000
2.0690 0.2759 0.0000
2.0690 0.3448 0.0000
2.0690 0.4138 0.0000
2.0690 0.4828 0.0000
2.0690 0.5517 0.0000
2.0690 0.6207 0.0000
2.0690 0.6897 0.0000
2.0690 0.7586 0.0000
2.0690 0.8276 0.0000
2.0690 0.8966 0.0000
2.0690 0.9655 0.0000
2.0690 1.0345 0.0000
2.0690 1.1034 0.0000
2.0690 1.1724 0.0000
2.0690 1.2414 0.0000
2.0690 1.3103 0.0000
2.0690 1.3793 0.0000
2.0690 1.4483 0.0000
2.0690 1.5172 0.0000
2.0690 1.5862 0.0000
2.0690 1.6552 0.0000
2.0690 1.7241 0.0000
2.0690 1.7931 0.0000
2.0690 1.8621 0.0000
2.0690 1.9310 0.0000
2.0690 2.0000 0.0000
3.1034 0.0000 0.0000
3.1034 0.0690 0.0000
3.1034 0.1379 0.0000
3.1034 0.2069 0.0000
3.1034 0.2759 0.0000
3.1034 0.3448 0.0000
3.1034 0.4138 0.0000
3.1034 0.4828 0.0000
3.1034 0.5517 0.0000
3.1034 0.6207 0.0000
3.1034 0.6897 0.0000
3.1034 0.7586 0.0000
3.1034 0.8276 0.0000
3.1034 0.8966 0.0000
3.1034 0.9655 0.0000
3.1034 1.0345 0.0000
3.1034 1.1034 0.0000
3.1034 1.1724 0.0000
3.1034 1.2414 0.0000
3.1034 1.3103 0.0000
3.1034 1.3793 0.0000
3.1034 1.4483 0.0000
3.1034 1.5172 0.0000
3.1034 1.5862 0.0000
3.1034 1.6552 0.0000
3.1034 1.7241 0.0000
3.1034 1.7931 0.0000
3.1034 1.8621 0.0000
3.1034 1.9310 0.0000
3.1034 2.0000 0.0000
4.1379 0.0000 0.0000
4.1379 0.0690 0.0000
4.1379 0.1379 0.0000
4.1379 0.2069 0.0000
4.1379 0.2759 0.0000
4.1379 0.3448 0.0000
4.1379 0.4138 0.0000
4.1379 0.4828 0.0000
4.1379 0.5517 0.0000
4.1379 0.6207 0.0000
4.1379 0.6897 0.0000
4.1379 0.7586 0.0000
4.1379 0.8276 0.0000
4.1379 0.8966 0.0000
4.1379 0.9655 0.0000
4.1379 1.0345 0.0000
4.1379 1.1034 0.0000
4.1379 1.1724 0.0000
4.1379 1.2414 0.0000
4.1379 1.3103 0.0000
4.1379 1.3793 0.0000
4.1379 1.4483 0.0000
4.1379 1.5172 0.0000
4.1379 1.5862 0.0000
4.1379 1.6552 0.0000
4.1379 1.7241 0.0000
4.1379 1.7931 0.0000
4.1379 1.8621 0.0000
4.1379 1.9310 0.0000
4.1379 2.0000 0.0000
5.1724 0.0000 0.0000
5.1724 0.0690 0.0000
5.1724 0.1379 0.0000
5.1724 0.2069 0.0000
5.1724 0.2759 0.0000
5.1724 0.3448 0.0000
5.1724 0.4138 0.0000
5.1724 0.4828 0.0000
5.1724 0.5517 0.0000
5.1724 0.6207 0.0000
5.1724 0.6897 0.0000
5.1724 0.7586 0.0000
5.1724 0.8276 0.0000
5.1724 0.8966 0.0000
5.1724 0.9655 0.0000
5.1724 1.0345 0.0000
5.1724 1.1034 0.0000
5.1724 1.1724 0.0000
5.1724 1.2414 0.0000
5.1724 1.3103 0.0000
5.1724 1.3793 0.0000
5.1724 1.4483 0.0000
5.1724 1.5172 0.0000
5.1724 1.5862 0.0000
5.1724 1.6552 0.0000
5.1724 1.7241 0.0000
5.1724 1.7931 0.0000
5.1724 1.8621 0.0000
5.1724 1.9310 0.0000
5.1724 2.0000 0.0000
6.2069 0.0000 0.0000
6.2069 0.0690 0.0000
6.2069 0.1379 0.0000
6.2069 0.2069 0.0000
6.2069 0.2759 0.0000
6.2069 0.3448 0.0000
6.2069 0.4138 0.0000
6.2069 0.4828 0.0000
6.2069 0.5517 0.0000
6.2069 0.6207 0.0000
6.2069 0.6897 0.0000
6.2069 0.7586 0.0000
6.2069 0.8276 0.0000
6.2069 0.8966 0.0000
6.2069 0.9655 0.0000
6.2069 1.0345 0.0000
6.2069 1.1034 0.0000
6.2069 1.1724 0.0000
6.2069 1.2414 0.0000
6.2069 1.3103 0.0000
6.2069 1.3793 0.0000
6.2069 1.4483 0.0000
6.2069 1.5172 0.0000
6.2069 1.5862 0.0000
6.2069 1.6552 0.0000
6.2069 1.7241 0.0000
6.2069 1.7931 0.0000
6.2069 1.8621 0.0000
6.2069 1.9310 0.0000
6.2069 2.0000 0.0000
7.2414 0.0000 0.0000
7.2414 0.0690 0.0000
7.2414 0.1379 0.0000
7.2414 0.2069 0.0000
7.2414 0.2759 0.0000
7.2414 0.3448 0.0000
7.2414 0.4138 0.0000
7.2414 0.4828 0.0000
7.2414 0.5517 0.0000
7.2414 0.6207 0.0000
7.2414 0.6897 0.0000
7.2414 0.7586 0.0000
7.2414 0.8276 0.0000
7.2414 0.8966 0.0000
7.2414 0.9655 0.0000
7.2414 1.0345 0.0000
7.2414 1.1034 0.0000
7.2414 1.1724 0.0000
7.2414 1.2414 0.0000
7.2414 1.3103 0.0000
7.2414 1.3793 0.0000
7.2414 1.4483 0.0000
7.2414 1.5172 0.0000
7.2414 1.5862 0.0000
7.2414 1.6552 0.0000
7.2414 1.7241 0.0000
7.2414 1.7931 0.0000
7.2414 1.8621 0.0000
7.2414 1.9310 0.0000
7.2414 2.0000 0.0000
8.2759 0.0000 0.0000
8.2759 0.0690 0.0000
8.2759 0.1379 0.0000
8.2759 0.2069 0.0000
8.2759 0.2759 0.0000
8.2759 0.3448 0.0000
8.2759 0.4138 0.0000
8.2759 0.4828 0.0000
8.2759 0.5517 0.0000
8.2759 0.6207 0.0000
8.2759 0.6897 0.0000
8.2759 0.7586 0.0000
8.2759 0.8276 0.0000
8.2759 0.8966 0.0000
8.2759 0.9655 0.0000
8.2759 1.0345 0.0000
8.2759 1.1034 0.0000
8.2759 1.1724 0.0000
8.2759 1.2414 0.0000
8.2759 1.3103 0.0000
8.2759 1.3793 0.0000
8.2759 1.4483 0.0000
8.2759 1.5172 0.0000
8.2759 1.5862 0.0000
8.2759 1.6552 0.0000
8.2759 1.7241 0.0000
8.2759 1.7931 0.0000
8.2759 1.8621 0.0000
8.2759 1.9310 0.0000
8.2759 2.0000 0.0000
9.3103 0.0000 0.0000
9.3103 0.0690 0.0000
9.3103 0.1379 0.0000
9.3103 0.2069 0.0000
9.3103 0.2759 0.0000
9.3103 0.3448 0.0000
9.3103 0.4138 0.0000
9.3103 0.4828 0.0000
9.3103 0.5517 0.0000
9.3103 0.6207 0.0000
9.3103 0.6897 0.0000
9.3103 0.7586 0.0000
9.3103 0.8276 0.0000
9.3103 0.8966 0.0000
9.3103 0.9655 0.0000
9.3103 1.0345 0.0000
9.3103 1.1034 0.0000
9.3103 1.1724 0.0000
9.3103 1.2414 0.0000
9.3103 1.3103 0.0000
9.3103 1.3793 0.0000
9.3103 1.4483 0.0000
9.3103 1.5172 0.0000
9.3103 1.5862 0.0000
9.3103 1.6552 0.0000
9.3103 1.7241 0.0000
9.3103 1.7931 0.0000
9.3103 1.8621 0.0000
9.3103 1.9310 0.0000
9.3103 2.0000 0.0000
10.3448 0.0000 0.0000
10.3448 0.0690 0.0000
10.3448 0.1379 0.0000
10.3448 0.2069 0.0000
10.3448 0.2759 0.0000
10.3448 0.3448 0.0000
10.3448 0.4138 0.0000
10.3448 0.4828 0.0000
10.3448 0.5517 0.0000
10.3448 0.6207 0.0000
10.3448 0.6897 0.0000
10.3448 0.7586 0.0000
10.3448 0.8276 0.0000
10.3448 0.8966 0.0000
10.3448 0.9655 0.0000
10.3448 1.0345 0.0000
10.3448 1.1034 0.0000
10.3448 1.1724 0.0000
10.3448 1.2414 0.0000
10.3448 1.3103 0.0000
10.3448 1.3793 0.0000
10.3448 1.4483 0.0000
10.3448 1.5172 0.0000
10.3448 1.5862 0.0000
10.3448 1.6552 0.0000
10.3448 1.7241 0.0000
10.3448 1.7931 0.0000
10.3448 1.8621 0.0000
10.3448 1.9310 0.0000
10.3448 2.0000 0.0000
11.3793 0.0000 0.0000
11.3793 0.0690 0.0000
11.3793 0.1379 0.0000
11.3793 0.2069 0.0000
11.3793 0.2759 0.0000
11.3793 0.3448 0.0000
11.3793 0.4138 0.0000
11.3793 0.4828 0.0000
11.3793 0.5517 0.0000
11.3793 0.6207 0.0000
11.3793 0.6897 0.0000
11.3793 0.7586 0.0000
11.3793 0.8276 0.0000
11.3793 0.8966 0.0000
11.3793 0.9655 0.0000
11.3793 1.0345 0.0000
11.3793 1.1034 0.0000
11.3793 1.1724 0.0000
11.3793 1.2414 0.0000
11.3793 1.3103 0.0000
11.3793 1.3793 0.0000
11.3793 1.4483 0.0000
11.3793 1.5172 0.0000
11.3793 1.5862 0.0000
11.3793 1.6552 0.0000
11.3793 1.7241 0.0000
11.3793 1.7931 0.0000
11.3793 1.8621 0.0000
11.3793 1.9310 0.0000
11.3793 2.0000 0.0000
12.4138 0.0000 0.0000
12.4138 0.0690 0.0000
12.4138 0.1379 0.0000
12.4138 0.2069 0.0000
12.4138 0.2759 0.0000
12.4138 0.3448 0.0000
12.4138 0.4138 0.0000
12.4138 0.4828 0.0000
12.4138 0.5517 0.0000
12.4138 0.6207 0.0000
12.4138 0.6897 0.0000
12.4138 0.7586 0.0000
12.4138 0.8276 0.0000
12.4138 0.8966 0.0000
12.4138 0.9655 0.0000
12.4138 1.0345 0.0000
12.4138 1.1034 0.0000
12.4138 1.1724 0.0000
12.4138 1.2414 0.0000
12.4138 1.3103 0.0000
12.4138 1.3793 0.0000
12.4138 1.4483 0.0000
12.4138 1.5172 0.0000
12.4138 1.5862 0.0000
12.4138 1.6552 0.0000
12.4138 1.7241 0.0000
12.4138 1.7931 0.0000
12.4138 1.8621 0.0000
12.4138 1.9310 0.0000
12.4138 2.0000 0.0000
13.4483 0.0000 0.0000
13.4483 0.0690 0.0000
13.4483 0.1379 0.0000
13.4483 0.2069 0.0000
13.4483 0.2759 0.0000
13.4483 0.3448 0.0000
13.4483 0.4138 0.0000
13.4483 0.4828 0.0000
13.4483 0.5517 0.0000
13.4483 0.6207 0.0000
13.4483 0.6897 0.0000
13.4483 0.7586 0.0000
13.4483 0.8276 0.0000
13.4483 0.8966 0.0000
13.4483 0.9655 0.0000
13.4483 1.0345 0.0000
13.4483 1.1034 0.0000
13.4483 1.1724 0.0000
13.4483 1.2414 0.0000
13.4483 1.3103 0.0000
13.4483 1.3793 0.0000
13.4483 1.4483 0.0000
13.4483 1.5172 0.0000
13.4483 1.5862 0.0000
13.4483 1.6552 0.0000
13.4483 1.7241 0.0000
13.4483 1.7931 0.0000
13.4483 1.8621 0.0000
13.4483 1.9310 0.0000
13.4483 2.0000 0.0000
14.4828 0.0000 0.0000
14.4828 0.0690 0.0000
14.4828 0.1379 0.0000
14.4828 0.2069 0.0000
14.4828 0.2759 0.0000
14.4828 0.3448 0.0000
14.4828 0.4138 0.0000
14.4828 0.4828 0.0000
14.4828 0.5517 0.0000
14.4828 0.6207 0.0000
14.4828 0.6897 0.0000
14.4828 0.7586 0.0000
14.4828 0.8276 0.0000
14.4828 0.8966 0.0000
14.4828 0.9655 0.0000
14.4828 1.0345 0.0000
14.4828 1.1034 0.0000
14.4828 1.1724 0.0000
14.4828 1.2414 0.0000
14.4828 1.3103 0.0000
14.4828 1.3793 0.0000
14.4828 1.4483 0.0000
14.4828 1.5172 0.0000
14.4828 1.5862 0.0000
14.4828 1.6552 0.0000
14.4828 1.7241 0.0000
14.4828 1.7931 0.0000
14.4828 1.8621 0.0000
14.4828 1.9310 0.0000
14.4828 2.0000 0.0000
15.5172 0.0000 0.0000
15.5172 0.0690 0.0000
15.5172 0.1379 0.0000
15.5172 0.2069 0.0000
[...]
         <PointData>
            <DataArray Name="fValues" NumberOfComponents="3" format="ascii" type="Float64">
-3.58967e-17  3.04372e-16        00000 
 8.59909e-18 -1.37585e-16        00000 
-3.40137e-17 -3.06124e-16        00000 
 2.48402e-17 -1.70943e-17        00000 
-4.25172e-18 -2.04082e-16        00000 
 3.43413e-17 -1.69000e-16        00000 
-2.55103e-17  1.36055e-16        00000 
 3.73938e-17 -1.11113e-16        00000 
-2.97620e-17 -2.72110e-16        00000 
-3.51477e-17  3.86011e-16        00000 
-1.10545e-16 -2.38096e-16        00000 
 1.34083e-16  1.47438e-16        00000 
-1.27551e-16  3.40137e-17        00000 
-1.67649e-16 -3.85106e-16        00000 
-5.95240e-17  2.38096e-16        00000 
-1.34083e-16 -4.91461e-17        00000 
-8.50343e-18 -3.06124e-16        00000 
-4.76650e-17  3.45216e-17        00000 
-2.55103e-17  2.38096e-16        00000 
 2.13679e-17  1.62396e-16        00000 
-5.10206e-17 -4.42178e-16        00000 
-2.16136e-16 -7.00717e-17        00000 
 1.70069e-17  6.80275e-17        00000 
-1.44233e-16  2.97014e-16        00000 
-1.19048e-16 -1.70069e-16        00000 
 8.26138e-17 -2.68952e-16        00000 
-1.36055e-16 -3.40137e-17        00000 
 1.41291e-16 -2.14077e-18        00000 
-4.28818e-18  3.19470e-16        00000 
 9.10639e-17 -4.39835e-16        00000 
 2.97313e-01  2.38983e+00        00000 
 2.49855e-01  2.42756e+00        00000 
 2.49424e-01  2.44669e+00        00000 
 3.13204e-01  2.46437e+00        00000 
 3.92253e-01  2.50482e+00        00000 
 4.44662e-01  2.50724e+00        00000 
 4.64232e-01  2.52488e+00        00000 
 4.62599e-01  2.53264e+00        00000 
 4.54018e-01  2.54645e+00        00000 
 4.94808e-01  2.54946e+00        00000 
 5.58166e-01  2.56334e+00        00000 
 6.34656e-01  2.57895e+00        00000 
 7.07991e-01  2.56561e+00        00000 
 7.94038e-01  2.55173e+00        00000 
 8.60576e-01  2.53141e+00        00000 
 9.19776e-01  2.50823e+00        00000 
 9.38272e-01  2.48571e+00        00000 
 9.48552e-01  2.46911e+00        00000 
 9.73911e-01  2.46201e+00        00000 
 1.00310e+00  2.42989e+00        00000 
 1.08978e+00  2.41109e+00        00000 
 1.14374e+00  2.37986e+00        00000 
 1.15899e+00  2.33924e+00        00000 
 1.15484e+00  2.29877e+00        00000 
 1.14988e+00  2.25019e+00        00000 
 1.12854e+00  2.21812e+00        00000 
 1.14221e+00  2.17552e+00        00000 
 1.10507e+00  2.11648e+00        00000 
 1.02886e+00  2.04954e+00        00000 
 8.98508e-01  1.98259e+00        00000 
-1.92051e+00  9.60695e-01        00000 
-1.66019e+00  9.95783e-01        00000 
-1.46588e+00  1.02697e+00        00000 
-1.31244e+00  1.03510e+00        00000 
-1.13813e+00  1.03961e+00        00000 
-1.00804e+00  1.05241e+00        00000 
-8.53630e-01  1.07158e+00        00000 
-6.72806e-01  1.06631e+00        00000 
-4.88159e-01  1.06496e+00        00000 
-3.28086e-01  1.07266e+00        00000 
-1.56639e-01  1.07834e+00        00000 
-9.28065e-03  1.09949e+00        00000 
 1.29153e-01  1.11238e+00        00000 
 2.63392e-01  1.14714e+00        00000 
 3.59454e-01  1.18423e+00        00000 
 4.85446e-01  1.22903e+00        00000 
 6.39218e-01  1.25152e+00        00000 
 8.02132e-01  1.30547e+00        00000 
 9.56580e-01  1.35388e+00        00000 
 1.12123e+00  1.39514e+00        00000 
 1.23198e+00  1.43972e+00        00000 
 1.34565e+00  1.50071e+00        00000 
 1.50024e+00  1.56681e+00        00000 
 1.65147e+00  1.61095e+00        00000 
 1.81566e+00  1.66715e+00        00000 
 2.01510e+00  1.71912e+00        00000 
 2.20667e+00  1.74113e+00        00000 
 2.45234e+00  1.77167e+00        00000 
 2.71158e+00  1.81077e+00        00000 
 2.96718e+00  1.80333e+00        00000 
-2.13498e+00 -4.17867e+00        00000 
-1.89105e+00 -4.22238e+00        00000 
-1.65407e+00 -4.25965e+00        00000 
-1.42954e+00 -4.31131e+00        00000 
-1.24480e+00 -4.35325e+00        00000 
-1.06227e+00 -4.40417e+00        00000 
-9.17113e-01 -4.44559e+00        00000 
-7.84789e-01 -4.47559e+00        00000 
-6.89845e-01 -4.50268e+00        00000 
-6.48905e-01 -4.52197e+00        00000 
-6.27540e-01 -4.52321e+00        00000 
-5.90477e-01 -4.51699e+00        00000 
-5.74333e-01 -4.52416e+00        00000 
-5.75596e-01 -4.50271e+00        00000 
-5.38276e-01 -4.47211e+00        00000 
-4.84564e-01 -4.45110e+00        00000 
-4.76081e-01 -4.41224e+00        00000 
-4.71860e-01 -4.38392e+00        00000 
-4.41917e-01 -4.33446e+00        00000 
-3.94504e-01 -4.28579e+00        00000 
-3.33093e-01 -4.21768e+00        00000 
-2.41290e-01 -4.17481e+00        00000 
-1.34646e-01 -4.12886e+00        00000 
 4.02893e-02 -4.05600e+00        00000 
 1.72280e-01 -3.97749e+00        00000 
 3.25640e-01 -3.89382e+00        00000 
 5.06961e-01 -3.78965e+00        00000 
 7.07704e-01 -3.70437e+00        00000 
 9.15994e-01 -3.59983e+00        00000 
 1.14630e+00 -3.47810e+00        00000 
 1.57856e+00 -5.87458e+00        00000 
 1.38922e+00 -5.99113e+00        00000 
 1.20589e+00 -6.08759e+00        00000 
 1.07445e+00 -6.14816e+00        00000 
 9.27896e-01 -6.18294e+00        00000 
 7.40459e-01 -6.18641e+00        00000 
 5.23618e-01 -6.18763e+00        00000 
 3.14847e-01 -6.16164e+00        00000 
 1.20309e-01 -6.14815e+00        00000 
-5.13676e-02 -6.12003e+00        00000 
-2.06764e-01 -6.09509e+00        00000 
-3.67048e-01 -6.08986e+00        00000 
-5.54209e-01 -6.08645e+00        00000 
-7.32498e-01 -6.09987e+00        00000 
-8.96051e-01 -6.11841e+00        00000 
-1.05054e+00 -6.13151e+00        00000 
-1.20432e+00 -6.15443e+00        00000 
-1.41992e+00 -6.16555e+00        00000 
-1.59940e+00 -6.18221e+00        00000 
-1.77625e+00 -6.19472e+00        00000 
-1.93706e+00 -6.19853e+00        00000 
-2.08762e+00 -6.18649e+00        00000 
-2.29726e+00 -6.16690e+00        00000 
-2.53361e+00 -6.15464e+00        00000 
-2.69980e+00 -6.11089e+00        00000 
-2.87563e+00 -6.07907e+00        00000 
-3.03367e+00 -6.02289e+00        00000 
-3.22174e+00 -5.94870e+00        00000 
-3.41379e+00 -5.86224e+00        00000 
-3.55364e+00 -5.76460e+00        00000 
 4.82041e+00  1.74922e+00        00000 
 4.23500e+00  1.72730e+00        00000 
 3.66618e+00  1.73364e+00        00000 
 3.08824e+00  1.72103e+00        00000 
 2.55359e+00  1.69504e+00        00000 
 2.06798e+00  1.67616e+00        00000 
 1.64171e+00  1.65985e+00        00000 
 1.25509e+00  1.61585e+00        00000 
 9.09569e-01  1.58874e+00        00000 
 5.86488e-01  1.55055e+00        00000 
 3.05434e-01  1.52174e+00        00000 
 5.50301e-02  1.47946e+00        00000 
-1.52321e-01  1.44429e+00        00000 
-3.32343e-01  1.40339e+00        00000 
-5.44674e-01  1.36679e+00        00000 
-7.84647e-01  1.34078e+00        00000 
-1.03062e+00  1.31228e+00        00000 
-1.27152e+00  1.27804e+00        00000 
-1.54028e+00  1.25021e+00        00000 
-1.84580e+00  1.21907e+00        00000 
-2.18800e+00  1.17861e+00        00000 
-2.57424e+00  1.13986e+00        00000 
-2.93926e+00  1.11548e+00        00000 
-3.29850e+00  1.08114e+00        00000 
-3.67009e+00  1.05250e+00        00000 
-4.07458e+00  1.02752e+00        00000 
-4.49209e+00  9.93864e-01        00000 
-4.89707e+00  9.76758e-01        00000 
-5.35528e+00  9.50633e-01        00000 
-5.89559e+00  9.47547e-01        00000 
 2.99902e+00  1.04040e+01        00000 
 2.69080e+00  1.05010e+01        00000 
 2.43645e+00  1.05797e+01        00000 
 2.23718e+00  1.06608e+01        00000 
 2.07226e+00  1.07221e+01        00000 
 1.90905e+00  1.07746e+01        00000 
 1.70905e+00  1.08214e+01        00000 
 1.48194e+00  1.08570e+01        00000 
 1.26924e+00  1.08665e+01        00000 
 1.05337e+00  1.08750e+01        00000 
 8.13215e-01  1.08676e+01        00000 
 5.59226e-01  1.08452e+01        00000 
 3.28021e-01  1.08226e+01        00000 
 1.49660e-01  1.07909e+01        00000 
-1.17500e-02  1.07428e+01        00000 
-1.42942e-01  1.06718e+01        00000 
-2.93901e-01  1.06265e+01        00000 
-4.30361e-01  1.05704e+01        00000 
-5.74091e-01  1.05020e+01        00000 
-7.10359e-01  1.04339e+01        00000 
-8.39503e-01  1.03647e+01        00000 
-9.65628e-01  1.02812e+01        00000 
-1.17354e+00  1.01819e+01        00000 
-1.40039e+00  1.00918e+01        00000 
-1.63610e+00  9.98211e+00        00000 
-1.84998e+00  9.86657e+00        00000 
-2.11045e+00  9.74035e+00        00000 
-2.41862e+00  9.61172e+00        00000 
-2.77951e+00  9.47995e+00        00000 
-3.17957e+00  9.33645e+00        00000 
-2.17671e+00  1.18815e+01        00000 
-2.02272e+00  1.20504e+01        00000 
-1.91647e+00  1.21999e+01        00000 
-1.81052e+00  1.23377e+01        00000 
-1.69881e+00  1.24626e+01        00000 
-1.55328e+00  1.25720e+01        00000 
-1.36462e+00  1.26823e+01        00000 
-1.12726e+00  1.27679e+01        00000 
-9.08728e-01  1.28502e+01        00000 
-7.00152e-01  1.29286e+01        00000 
-4.65388e-01  1.30008e+01        00000 
-1.84741e-01  1.30361e+01        00000 
 8.79844e-02  1.30620e+01        00000 
 3.29890e-01  1.30845e+01        00000 
 5.54229e-01  1.30844e+01        00000 
 7.27519e-01  1.30828e+01        00000 
 8.94765e-01  1.30728e+01        00000 
 1.08454e+00  1.30441e+01        00000 
 1.27316e+00  1.29947e+01        00000 
 1.43503e+00  1.29564e+01        00000 
 1.56962e+00  1.29001e+01        00000 
 1.75350e+00  1.28166e+01        00000 
 1.99407e+00  1.27300e+01        00000 
 2.22254e+00  1.26318e+01        00000 
 2.44345e+00  1.25076e+01        00000 
 2.56780e+00  1.23923e+01        00000 
 2.67740e+00  1.22510e+01        00000 
 2.78168e+00  1.21052e+01        00000 
 2.90072e+00  1.19442e+01        00000 
 3.06005e+00  1.17720e+01        00000 
-8.00609e+00  4.90580e+00        00000 
-7.31504e+00  5.04209e+00        00000 
-6.61378e+00  5.16456e+00        00000 
-5.95512e+00  5.26197e+00        00000 
-5.30933e+00  5.31598e+00        00000 
-4.71413e+00  5.37184e+00        00000 
-4.17633e+00  5.41343e+00        00000 
-3.62411e+00  5.45559e+00        00000 
-3.04560e+00  5.48231e+00        00000 
-2.44308e+00  5.51442e+00        00000 
-1.85273e+00  5.53601e+00        00000 
-1.30432e+00  5.55238e+00        00000 
-8.06945e-01  5.57882e+00        00000 
-3.34219e-01  5.60061e+00        00000 
 1.46726e-01  5.62246e+00        00000 
 6.50072e-01  5.62939e+00        00000 
 1.17298e+00  5.63072e+00        00000 
 1.68167e+00  5.62982e+00        00000 
 2.21329e+00  5.60556e+00        00000 
 2.74092e+00  5.57408e+00        00000 
 3.31130e+00  5.54172e+00        00000 
 3.85180e+00  5.50916e+00        00000 
 4.37884e+00  5.46936e+00        00000 
 4.88897e+00  5.43398e+00        00000 
 5.41996e+00  5.40475e+00        00000 
 6.01259e+00  5.36163e+00        00000 
 6.65356e+00  5.29654e+00        00000 
 7.31550e+00  5.22803e+00        00000 
 8.00759e+00  5.13267e+00        00000 
 8.71666e+00  5.01014e+00        00000 
-1.10667e+01 -9.12223e+00        00000 
-1.00777e+01 -9.11294e+00        00000 
-9.10104e+00 -9.10566e+00        00000 
-8.14780e+00 -9.08261e+00        00000 
-7.20628e+00 -9.04616e+00        00000 
-6.30027e+00 -8.99823e+00        00000 
-5.41026e+00 -8.96082e+00        00000 
-4.56583e+00 -8.93302e+00        00000 
-3.81154e+00 -8.92519e+00        00000 
-3.13372e+00 -8.91799e+00        00000 
-2.51802e+00 -8.90460e+00        00000 
-1.91193e+00 -8.89911e+00        00000 
-1.29652e+00 -8.92011e+00        00000 
-6.72215e-01 -8.93568e+00        00000 
-4.97286e-02 -8.97549e+00        00000 
 5.90243e-01 -9.01491e+00        00000 
 1.25443e+00 -9.04446e+00        00000 
 1.93563e+00 -9.07931e+00        00000 
 2.61053e+00 -9.11909e+00        00000 
 3.29951e+00 -9.12500e+00        00000 
 3.95755e+00 -9.13564e+00        00000 
 4.60038e+00 -9.15010e+00        00000 
 5.28198e+00 -9.17282e+00        00000 
 6.01799e+00 -9.20395e+00        00000 
 6.80162e+00 -9.24087e+00        00000 
 7.61061e+00 -9.28442e+00        00000 
 8.46062e+00 -9.31994e+00        00000 
 9.37868e+00 -9.35057e+00        00000 
 1.03366e+01 -9.36988e+00        00000 
 1.13149e+01 -9.39131e+00        00000 
-7.69445e+00 -2.20949e+01        00000 
-7.01592e+00 -2.22427e+01        00000 
-6.38503e+00 -2.23831e+01        00000 
-5.82460e+00 -2.25190e+01        00000 
-5.27658e+00 -2.26542e+01        00000 
-4.73472e+00 -2.27707e+01        00000 
-4.22607e+00 -2.28697e+01        00000 
-3.69426e+00 -2.29310e+01        00000 
-3.15631e+00 -2.29834e+01        00000 
-2.62829e+00 -2.30133e+01        00000 
-2.09218e+00 -2.30345e+01        00000 
-1.55413e+00 -2.30826e+01        00000 
-1.01239e+00 -2.31025e+01        00000 
-4.34915e-01 -2.31274e+01        00000 
 1.38795e-01 -2.31375e+01        00000 
 6.98511e-01 -2.31421e+01        00000 
 1.22249e+00 -2.31471e+01        00000 
 1.73164e+00 -2.31322e+01        00000 
 2.24756e+00 -2.31151e+01        00000 
 2.77275e+00 -2.31053e+01        00000 
 3.34850e+00 -2.30961e+01        00000 
 3.99175e+00 -2.30517e+01        00000 
 4.58955e+00 -2.30145e+01        00000 
 5.21446e+00 -2.29510e+01        00000 
 5.85572e+00 -2.28675e+01        00000 
 6.52204e+00 -2.27933e+01        00000 
 7.20535e+00 -2.27013e+01        00000 
 7.89812e+00 -2.25994e+01        00000 
 8.56124e+00 -2.24752e+01        00000 
 9.21827e+00 -2.23383e+01        00000 
-1.71693e+00 -3.05634e+01        00000 
-1.44766e+00 -3.07750e+01        00000 
-1.16895e+00 -3.09623e+01        00000 
-9.23962e-01 -3.11609e+01        00000 
-7.63712e-01 -3.13314e+01        00000 
-6.34190e-01 -3.14798e+01        00000 
-4.98094e-01 -3.16216e+01        00000 
-3.57986e-01 -3.17597e+01        00000 
-2.38730e-01 -3.18867e+01        00000 
-1.66445e-01 -3.19978e+01        00000 
-1.19860e-01 -3.20777e+01        00000 
-4.77695e-02 -3.21223e+01        00000 
 3.41800e-02 -3.21700e+01        00000 
 9.90680e-02 -3.21771e+01        00000 
 1.65359e-01 -3.21737e+01        00000 
 2.36575e-01 -3.21427e+01        00000 
 3.31581e-01 -3.20851e+01        00000 
 4.38019e-01 -3.20293e+01        00000 
 6.03548e-01 -3.19319e+01        00000 
 7.63205e-01 -3.18146e+01        00000 
 8.80507e-01 -3.16929e+01        00000 
 9.81746e-01 -3.15575e+01        00000 
 1.09852e+00 -3.14070e+01        00000 
 1.28533e+00 -3.12503e+01        00000 
 1.44518e+00 -3.10784e+01        00000 
 1.59715e+00 -3.08910e+01        00000 
 1.71775e+00 -3.06849e+01        00000 
 1.85099e+00 -3.04609e+01        00000 
 2.01983e+00 -3.02160e+01        00000 
 2.21923e+00 -2.99561e+01        00000 
 6.51895e+00 -2.89691e+01        00000 
 6.03205e+00 -2.92189e+01        00000 
 5.50131e+00 -2.94314e+01        00000 
 5.04787e+00 -2.96274e+01        00000 
 4.64080e+00 -2.98058e+01        00000 
 4.24554e+00 -2.99608e+01        00000 
 3.82724e+00 -3.00658e+01        00000 
 3.32211e+00 -3.01419e+01        00000 
 2.81004e+00 -3.01943e+01        00000 
 2.30297e+00 -3.02017e+01        00000 
 1.80154e+00 -3.02011e+01        00000 
 1.29293e+00 -3.01832e+01        00000 
 7.90149e-01 -3.01525e+01        00000 
 2.89276e-01 -3.01216e+01        00000 
-2.21719e-01 -3.00759e+01        00000 
-6.67914e-01 -3.00192e+01        00000 
-1.10907e+00 -2.99715e+01        00000 
-1.57731e+00 -2.99038e+01        00000 
-2.06754e+00 -2.98332e+01        00000 
-2.54956e+00 -2.97610e+01        00000 
-2.99217e+00 -2.96658e+01        00000 
-3.44498e+00 -2.95341e+01        00000 
-3.89121e+00 -2.93793e+01        00000 
-4.40321e+00 -2.92135e+01        00000 
-4.90041e+00 -2.90157e+01        00000 
-5.38765e+00 -2.88084e+01        00000 
-5.83872e+00 -2.85843e+01        00000 
-6.28098e+00 -2.83443e+01        00000 
-6.73392e+00 -2.80640e+01        00000 
-7.20142e+00 -2.77997e+01        00000 
 1.56017e+01 -1.54334e+01        00000 
 1.44133e+01 -1.56879e+01        00000 
 1.32117e+01 -1.59285e+01        00000 
 1.19950e+01 -1.61434e+01        00000 
 1.07866e+01 -1.63100e+01        00000 
 9.55433e+00 -1.64660e+01        00000 
 8.34703e+00 -1.65997e+01        00000 
 7.18687e+00 -1.67240e+01        00000 
 6.05656e+00 -1.68257e+01        00000 
 4.98065e+00 -1.69177e+01        00000 
 3.90561e+00 -1.69823e+01        00000 
 2.79744e+00 -1.70273e+01        00000 
 1.70689e+00 -1.70883e+01        00000 
 6.46923e-01 -1.71134e+01        00000 
-4.04036e-01 -1.71143e+01        00000 
-1.47252e+00 -1.71105e+01        00000 
-2.50523e+00 -1.70931e+01        00000 
-3.50956e+00 -1.70520e+01        00000 
-4.50502e+00 -1.69905e+01        00000 
-5.50496e+00 -1.69400e+01        00000 
-6.53684e+00 -1.68456e+01        00000 
-7.60689e+00 -1.67474e+01        00000 
-8.66437e+00 -1.66332e+01        00000 
-9.75419e+00 -1.64923e+01        00000 
-1.08385e+01 -1.63200e+01        00000 
-1.19399e+01 -1.61220e+01        00000 
-1.30622e+01 -1.59116e+01        00000 
-1.42372e+01 -1.56825e+01        00000 
-1.54177e+01 -1.54411e+01        00000 
-1.65960e+01 -1.51832e+01        00000 
 2.33196e+01  7.57301e+00        00000 
 2.14566e+01  7.42936e+00        00000 
 1.96229e+01  7.30152e+00        00000 
 1.78468e+01  7.19023e+00        00000 
 1.60987e+01  7.07527e+00        00000 
 1.43740e+01  6.96806e+00        00000 
 1.26692e+01  6.89896e+00        00000 
 1.10285e+01  6.81964e+00        00000 
 9.37613e+00  6.77082e+00        00000 
 7.72292e+00  6.74122e+00        00000 
 6.15380e+00  6.69821e+00        00000 
 4.64668e+00  6.67908e+00        00000 
 3.15957e+00  6.66458e+00        00000 
 1.66353e+00  6.65456e+00        00000 
 1.81809e-01  6.64561e+00        00000 
-1.30751e+00  6.63901e+00        00000 
-2.81613e+00  6.64598e+00        00000 
-4.38684e+00  6.64921e+00        00000 
-6.00387e+00  6.66889e+00        00000 
-7.59534e+00  6.69893e+00        00000 
-9.20057e+00  6.74640e+00        00000 
-1.08154e+01  6.80218e+00        00000 
-1.24128e+01  6.88082e+00        00000 
-1.39959e+01  6.96314e+00        00000 
-1.56628e+01  7.05544e+00        00000 
-1.73347e+01  7.16675e+00        00000 
-1.90460e+01  7.28781e+00        00000 
-2.07776e+01  7.41896e+00        00000 
-2.25419e+01  7.56570e+00        00000 
-2.43620e+01  7.73162e+00        00000 
 2.65332e+01  3.85809e+01        00000 
 2.44223e+01  3.85495e+01        00000 
 2.23913e+01  3.85236e+01        00000 
 2.03994e+01  3.85056e+01        00000 
 1.84780e+01  3.84954e+01        00000 
 1.65751e+01  3.84926e+01        00000 
 1.47195e+01  3.84850e+01        00000 
 1.28801e+01  3.84725e+01        00000 
 1.11138e+01  3.84697e+01        00000 
 9.36842e+00  3.84688e+01        00000 
 7.61206e+00  3.84706e+01        00000 
 5.82303e+00  3.84736e+01        00000 
 4.00966e+00  3.84932e+01        00000 
 2.19959e+00  3.84984e+01        00000 
 4.00496e-01  3.85253e+01        00000 
-1.35107e+00  3.85802e+01        00000 
-3.06698e+00  3.86170e+01        00000 
-4.79174e+00  3.86619e+01        00000 
-6.51250e+00  3.86862e+01        00000 
-8.30078e+00  3.86943e+01        00000 
-1.01047e+01  3.86966e+01        00000 
-1.19100e+01  3.87012e+01        00000 
-1.37999e+01  3.87120e+01        00000 
-1.56912e+01  3.87240e+01        00000 
-1.75441e+01  3.87500e+01        00000 
-1.94339e+01  3.87736e+01        00000 
-2.13386e+01  3.87940e+01        00000 
-2.33296e+01  3.88270e+01        00000 
-2.53690e+01  3.88431e+01        00000 
-2.75016e+01  3.88558e+01        00000 
 2.55454e+01  6.99900e+01        00000 
 2.36225e+01  7.00741e+01        00000 
 2.17382e+01  7.01625e+01        00000 
 1.99009e+01  7.02433e+01        00000 
 1.80717e+01  7.02920e+01        00000 
 1.62631e+01  7.03582e+01        00000 
 1.45143e+01  7.04237e+01        00000 
 1.27870e+01  7.04889e+01        00000 
 1.10197e+01  7.05622e+01        00000 
 9.28475e+00  7.06216e+01        00000 
 7.56126e+00  7.06735e+01        00000 
 5.86395e+00  7.07195e+01        00000 
 4.20794e+00  7.07545e+01        00000 
 2.54348e+00  7.07737e+01        00000 
 8.87160e-01  7.07814e+01        00000 
-7.93076e-01  7.07502e+01        00000 
-2.46993e+00  7.07178e+01        00000 