<?xml version="1.0" encoding="utf-8"?>
<VTKFile byte_order="LittleEndian" type="UnstructuredGrid" version="0.1">
   <UnstructuredGrid>
      <Piece NumberOfCells="3364" NumberOfPoints="1741">
         <Points>
            <DataArray Name="Points" NumberOfComponents="3" format="ascii" type="Float32">
0.0000 0.0000 0.0000
0.0000 0.0690 0.0000
0.0000 0.1379 0.0000
0.0000 0.2069 0.0000
0.0000 0.2759 0.0000
0.0000 0.3448 0.0000
0.0000 0.4138 0.0000
0.0000 0.4828 0.0000
0.0000 0.5517 0.0000
0.0000 0.6207 0.0000
0.0000 0.6897 0.0000
0.0000 0.7586 0.0000
0.0000 0.8276 0.0000
0.0000 0.8966 0.0000
0.0000 0.9655 0.0000
0.0000 1.0345 0.0000
0.0000 1.1034 0.0000
0.0000 1.1724 0.0000
0.0000 1.2414 0.0000
0.0000 1.3103 0.0000
0.0000 1.3793 0.0000
0.0000 1.4483 0.0000
0.0000 1.5172 0.0000
0.0000 1.5862 0.0000
0.0000 1.6552 0.0000
0.0000 1.7241 0.0000
0.0000 1.7931 0.0000
0.0000 1.8621 0.0000
0.0000 1.9310 0.0000
0.0000 2.0000 0.0000
1.0345 0.0000 0.0000
1.0345 0.0690 0.0000
1.0345 0.1379 0.0000
1.0345 0.2069 0.0000
1.0345 0.2759 0.0000
1.0345 0.3448 0.0000
1.0345 0.4138 0.0000
1.0345 0.4828 0.0000
1.0345 0.5517 0.0000
1.0345 0.6207 0.0000
1.0345 0.6897 0.0000
1.0345 0.7586 0.0000
1.0345 0.8276 0.0000
1.0345 0.8966 0.0000
1.0345 0.9655 0.0000
1.0345 1.0345 0.0000
1.0345 1.1034 0.0000
1.0345 1.1724 0.0000
1.0345 1.2414 0.0000
1.0345 1.3103 0.0000
1.0345 1.3793 0.0000
1.0345 1.4483 0.0000
1.0345 1.5172 0.0000
1.0345 1.5862 0.0000
1.0345 1.6552 0.0000
1.0345 1.7241 0.0000
1.0345 1.7931 0.0000
1.0345 1.8621 0.0000
1.0345 1.9310 0.0000
1.0345 2.0000 0.0000
2.0690 0.0000 0.0000
2.0690 0.0690 0.0000
2.0690 0.1379 0.0000
2.0690 0.2069 0.0000
2.0690 0.2759 0.0000
2.0690 0.3448 0.0000
2.0690 0.4138 0.0000
2.0690 0.4828 0.0000
2.0690 0.5517 0.0000
2.0690 0.6207 0.0000
2.0690 0.6897 0.0000
2.0690 0.7586 0.0000
2.0690 0.8276 0.0000
2.0690 0.8966 0.0000
2.0690 0.9655 0.0000
2.0690 1.0345 0.0000
2.0690 1.1034 0.0000
2.0690 1.1724 0.0000
2.0690 1.2414 0.0000
2.0690 1.3103 0.0000
2.0690 1.3793 0.0000
2.0690 1.4483 0.0000
2.0690 1.5172 0.0000
2.0690 1.5862 0.0000
2.0690 1.6552 0.0000
2.0690 1.7241 0.0000
2.0690 1.7931 0.0000
2.0690 1.8621 0.0000
2.0690 1.9310 0.0000
2.0690 2.0000 0.0000
3.1034 0.0000 0.0000
3.1034 0.0690 0.0000
3.1034 0.1379 0.0000
3.1034 0.2069 0.0000
3.1034 0.2759 0.0000
3.1034 0.3448 0.0000
3.1034 0.4138 0.0000
3.1034 0.4828 0.0000
3.1034 0.5517 0.0000
3.1034 0.6207 0.0000
3.1034 0.6897 0.0000
3.1034 0.7586 0.0000
3.1034 0.8276 0.0000
3.1034 0.8966 0.0000
3.1034 0.9655 0.0000
3.1034 1.0345 0.0000
3.1034 1.1034 0.0000
3.1034 1.1724 0.0000
3.1034 1.2414 0.0000
3.1034 1.3103 0.0000
3.1034 1.3793 0.0000
3.1034 1.4483 0.0000
3.1034 1.5172 0.0000
3.1034 1.5862 0.0000
3.1034 1.6552 0.0000
3.1034 1.7241 0.0000
3.1034 1.7931 0.0000
3.1034 1.8621 0.0000
3.1034 1.9310 0.0000
3.1034 2.0000 0.0000
4.1379 0.0000 0.0000
4.1379 0.0690 0.0000
4.1379 0.1379 0.0000
4.1379 0.2069 0.0000
4.1379 0.2759 0.0000
4.1379 0.3448 0.0000
4.1379 0.4138 0.0000
4.1379 0.4828 0.0000
4.1379 0.5517 0.0000
4.1379 0.6207 0.0000
4.1379 0.6897 0.0000
4.1379 0.7586 0.0000
4.1379 0.8276 0.0000
4.1379 0.8966 0.0000
4.1379 0.9655 0.0000
4.1379 1.0345 0.0000
4.1379 1.1034 0.0000
4.1379 1.1724 0.0000
4.1379 1.2414 0.0000
4.1379 1.3103 0.0000
4.1379 1.3793 0.0000
4.1379 1.4483 0.0000
4.1379 1.5172 0.0000
4.1379 1.5862 0.0000
4.1379 1.6552 0.0000
4.1379 1.7241 0.0000
4.1379 1.7931 0.0000
4.1379 1.8621 0.0000
4.1379 1.9310 0.0000
4.1379 2.0000 0.0000
5.1724 0.0000 0.0000
5.1724 0.0690 0.0000
5.1724 0.1379 0.0000
5.1724 0.2069 0.0000
5.1724 0.2759 0.0000
5.1724 0.3448 0.0000
5.1724 0.4138 0.0000
5.1724 0.4828 0.0000
5.1724 0.5517 0.0000
5.1724 0.6207 0.0000
5.1724 0.6897 0.0000
5.1724 0.7586 0.0000
5.1724 0.8276 0.0000
5.1724 0.8966 0.0000
5.1724 0.9655 0.0000
5.1724 1.0345 0.0000
5.1724 1.1034 0.0000
5.1724 1.1724 0.0000
5.1724 1.2414 0.0000
5.1724 1.3103 0.0000
5.1724 1.3793 0.0000
5.1724 1.4483 0.0000
5.1724 1.5172 0.0000
5.1724 1.5862 0.0000
5.1724 1.6552 0.0000
5.1724 1.7241 0.0000
5.1724 1.7931 0.0000
5.1724 1.8621 0.0000
5.1724 1.9310 0.0000
5.1724 2.0000 0.0000
6.2069 0.0000 0.0000
6.2069 0.0690 0.0000
6.2069 0.1379 0.0000
6.2069 0.2069 0.0000
6.2069 0.2759 0.0000
6.2069 0.3448 0.0000
6.2069 0.4138 0.0000
6.2069 0.4828 0.0000
6.2069 0.5517 0.0000
6.2069 0.6207 0.0000
6.2069 0.6897 0.0000
6.2069 0.7586 0.0000
6.2069 0.8276 0.0000
6.2069 0.8966 0.0000
6.2069 0.9655 0.0000
6.2069 1.0345 0.0000
6.2069 1.1034 0.0000
6.2069 1.1724 0.0000
6.2069 1.2414 0.0000
6.2069 1.3103 0.0000
6.2069 1.3793 0.0000
6.2069 1.4483 0.0000
6.2069 1.5172 0.0000
6.2069 1.5862 0.0000
6.2069 1.6552 0.0000
6.2069 1.7241 0.0000
6.2069 1.7931 0.0000
6.2069 1.8621 0.0000
6.2069 1.9310 0.0000
6.2069 2.0000 0.0000
7.2414 0.0000 0.0000
7.2414 0.0690 0.0000
7.2414 0.1379 0.0000
7.2414 0.2069 0.0000
7.2414 0.2759 0.0000
7.2414 0.3448 0.0000
7.2414 0.4138 0.0000
7.2414 0.4828 0.0000
7.2414 0.5517 0.0000
7.2414 0.6207 0.0000
7.2414 0.6897 0.0000
7.2414 0.7586 0.0000
7.2414 0.8276 0.0000
7.2414 0.8966 0.0000
7.2414 0.9655 0.0000
7.2414 1.0345 0.0000
7.2414 1.1034 0.0000
7.2414 1.1724 0.0000
7.2414 1.2414 0.0000
7.2414 1.3103 0.0000
7.2414 1.3793 0.0000
7.2414 1.4483 0.0000
7.2414 1.5172 0.0000
7.2414 1.5862 0.0000
7.2414 1.6552 0.0000
7.2414 1.7241 0.0000
7.2414 1.7931 0.0000
7.2414 1.8621 0.0000
7.2414 1.9310 0.0000
7.2414 2.0000 0.0000
8.2759 0.0000 0.0000
8.2759 0.0690 0.0000
8.2759 0.1379 0.0000
8.2759 0.2069 0.0000
8.2759 0.2759 0.0000
8.2759 0.3448 0.0000
8.2759 0.4138 0.0000
8.2759 0.4828 0.0000
8.2759 0.5517 0.0000
8.2759 0.6207 0.0000
8.2759 0.6897 0.0000
8.2759 0.7586 0.0000
8.2759 0.8276 0.0000
8.2759 0.8966 0.0000
8.2759 0.9655 0.0000
8.2759 1.0345 0.0000
8.2759 1.1034 0.0000
8.2759 1.1724 0.0000
8.2759 1.2414 0.0000
8.2759 1.3103 0.0000
8.2759 1.3793 0.0000
8.2759 1.4483 0.0000
8.2759 1.5172 0.0000
8.2759 1.5862 0.0000
8.2759 1.6552 0.0000
8.2759 1.7241 0.0000
8.2759 1.7931 0.0000
8.2759 1.8621 0.0000
8.2759 1.9310 0.0000
8.2759 2.0000 0.0000
9.3103 0.0000 0.0000
9.3103 0.0690 0.0000
9.3103 0.1379 0.0000
9.3103 0.2069 0.0000
9.3103 0.2759 0.0000
9.3103 0.3448 0.0000
9.3103 0.4138 0.0000
9.3103 0.4828 0.0000
9.3103 0.5517 0.0000
9.3103 0.6207 0.0000
9.3103 0.6897 0.0000
9.3103 0.7586 0.0000
9.3103 0.8276 0.0000
9.3103 0.8966 0.0000
9.3103 0.9655 0.0000
9.3103 1.0345 0.0000
9.3103 1.1034 0.0000
9.3103 1.1724 0.0000
9.3103 1.2414 0.0000
9.3103 1.3103 0.0000
9.3103 1.3793 0.0000
9.3103 1.4483 0.0000
9.3103 1.5172 0.0000
9.3103 1.5862 0.0000
9.3103 1.6552 0.0000
9.3103 1.7241 0.0000
9.3103 1.7931 0.0000
9.3103 1.8621 0.0000
9.3103 1.9310 0.0000
9.3103 2.0000 0.0000
10.3448 0.0000 0.0000
10.3448 0.0690 0.0000
10.3448 0.1379 0.0000
10.3448 0.2069 0.0000
10.3448 0.2759 0.0000
10.3448 0.3448 0.0000
10.3448 0.4138 0.0000
10.3448 0.4828 0.0000
10.3448 0.5517 0.0000
10.3448 0.6207 0.0000
10.3448 0.6897 0.0000
10.3448 0.7586 0.0000
10.3448 0.8276 0.0000
10.3448 0.8966 0.0000
10.3448 0.9655 0.0000
10.3448 1.0345 0.0000
10.3448 1.1034 0.0000
10.3448 1.1724 0.0000
10.3448 1.2414 0.0000
10.3448 1.3103 0.0000
10.3448 1.3793 0.0000
10.3448 1.4483 0.0000
10.3448 1.5172 0.0000
10.3448 1.5862 0.0000
10.3448 1.6552 0.0000
10.3448 1.7241 0.0000
10.3448 1.7931 0.0000
10.3448 1.8621 0.0000
10.3448 1.9310 0.0000
10.3448 2.0000 0.0000
11.3793 0.0000 0.0000
11.3793 0.0690 0.0000
11.3793 0.1379 0.0000
11.3793 0.2069 0.0000
11.3793 0.2759 0.0000
11.3793 0.3448 0.0000
11.3793 0.4138 0.0000
11.3793 0.4828 0.0000
11.3793 0.5517 0.0000
11.3793 0.6207 0.0000
11.3793 0.6897 0.0000
11.3793 0.7586 0.0000
11.3793 0.8276 0.0000
11.3793 0.8966 0.0000
11.3793 0.9655 0.0000
11.3793 1.0345 0.0000
11.3793 1.1034 0.0000
11.3793 1.1724 0.0000
11.3793 1.2414 0.0000
11.3793 1.3103 0.0000
11.3793 1.3793 0.0000
11.3793 1.4483 0.0000
11.3793 1.5172 0.0000
11.3793 1.5862 0.0000
11.3793 1.6552 0.0000
11.3793 1.7241 0.0000
11.3793 1.7931 0.0000
11.3793 1.8621 0.0000
11.3793 1.9310 0.0000
11.3793 2.0000 0.0000
12.4138 0.0000 0.0000
12.4138 0.0690 0.0000
12.4138 0.1379 0.0000
12.4138 0.2069 0.0000
12.4138 0.2759 0.0000
12.4138 0.3448 0.0000
12.4138 0.4138 0.0000
12.4138 0.4828 0.0000
12.4138 0.5517 0.0000
12.4138 0.6207 0.0000
12.4138 0.6897 0.0000
12.4138 0.7586 0.0000
12.4138 0.8276 0.0000
12.4138 0.8966 0.0000
12.4138 0.9655 0.0000
12.4138 1.0345 0.0000
12.4138 1.1034 0.0000
12.4138 1.1724 0.0000
12.4138 1.2414 0.0000
12.4138 1.3103 0.0000
12.4138 1.3793 0.0000
12.4138 1.4483 0.0000
12.4138 1.5172 0.0000
12.4138 1.5862 0.0000
12.4138 1.6552 0.0000
12.4138 1.7241 0.0000
12.4138 1.7931 0.0000
12.4138 1.8621 0.0000
12.4138 1.9310 0.0000
12.4138 2.0000 0.0000
13.4483 0.0000 0.0000
13.4483 0.0690 0.0000
13.4483 0.1379 0.0000
13.4483 0.2069 0.0000
13.4483 0.2759 0.0000
13.4483 0.3448 0.0000
13.4483 0.4138 0.0000
13.4483 0.4828 0.0000
13.4483 0.5517 0.0000
13.4483 0.6207 0.0000
13.4483 0.6897 0.0000
13.4483 0.7586 0.0000
13.4483 0.8276 0.0000
13.4483 0.8966 0.0000
13.4483 0.9655 0.0000
13.4483 1.0345 0.0000
13.4483 1.1034 0.0000
13.4483 1.1724 0.0000
13.4483 1.2414 0.0000
13.4483 1.3103 0.0000
13.4483 1.3793 0.0000
13.4483 1.4483 0.0000
13.4483 1.5172 0.0000
13.4483 1.5862 0.0000
13.4483 1.6552 0.0000
13.4483 1.7241 0.0000
13.4483 1.7931 0.0000
13.4483 1.8621 0.0000
13.4483 1.9310 0.0000
13.4483 2.0000 0.0000
14.4828 0.0000 0.0000
14.4828 0.0690 0.0000
14.4828 0.1379 0.0000
14.4828 0.2069 0.0000
14.4828 0.2759 0.0000
14.4828 0.3448 0.0000
14.4828 0.4138 0.0000
14.4828 0.4828 0.0000
14.4828 0.5517 0.0000
14.4828 0.6207 0.0000
14.4828 0.6897 0.0000
14.4828 0.7586 0.0000
14.4828 0.8276 0.0000
14.4828 0.8966 0.0000
14.4828 0.9655 0.0000
14.4828 1.0345 0.0000
14.4828 1.1034 0.0000
14.4828 1.1724 0.0000
14.4828 1.2414 0.0000
14.4828 1.3103 0.0000
14.4828 1.3793 0.0000
14.4828 1.4483 0.0000
14.4828 1.5172 0.0000
14.4828 1.5862 0.0000
14.4828 1.6552 0.0000
14.4828 1.7241 0.0000
14.4828 1.7931 0.0000
14.4828 1.8621 0.0000
14.4828 1.9310 0.0000
14.4828 2.0000 0.0000
15.5172 0.0000 0.0000
15.5172 0.0690 0.0000
15.5172 0.1379 0.0000
15.5172 0.2069 0.0000
[...]
         <PointData>
            <DataArray Name="fValues" NumberOfComponents="3" format="ascii" type="Float64">
 6.69938e-18 -2.91175e-16        00000 
-4.29954e-18 -2.75171e-16        00000 
-4.25172e-18  2.38096e-16        00000 
 1.49241e-17  1.41028e-16        00000 
-1.06293e-17 -6.80275e-17        00000 
 7.23321e-18  1.63023e-16        00000 
 1.06293e-18  4.76192e-16        00000 
 3.28531e-17  3.61117e-16        00000 
-2.55103e-17 -2.04082e-16        00000 
 2.99603e-17 -4.02899e-16        00000 
-5.95240e-17 -4.42178e-16        00000 
 1.49575e-17  1.85901e-16        00000 
-4.25172e-17 -1.02041e-16        00000 
 1.81753e-17  9.43283e-17        00000 
-8.50343e-17  1.02041e-16        00000 
 6.35694e-17  2.71372e-16        00000 
-1.44558e-16 -2.38096e-16        00000 
-8.26264e-17 -1.85533e-16        00000 
 2.72110e-16        00000        00000 
-5.34197e-18 -1.49575e-17        00000 
-1.70069e-17  6.80275e-17        00000 
-2.13921e-16 -1.57660e-16        00000 
       00000 -1.36055e-16        00000 
 4.05990e-17  6.83772e-17        00000 
-3.40137e-17  2.89117e-16        00000 
 1.01759e-16 -2.06836e-16        00000 
-1.70069e-16 -2.21089e-16        00000 
 7.38567e-17  2.97568e-16        00000 
-1.15781e-16 -8.79078e-17        00000 
 2.89452e-17  2.01961e-16        00000 
 1.75467e-01  2.54696e+00        00000 
 1.32481e-01  2.57590e+00        00000 
 1.32844e-01  2.59927e+00        00000 
 1.21042e-01  2.60740e+00        00000 
 8.82603e-02  2.61095e+00        00000 
 5.49949e-02  2.60628e+00        00000 
 7.88558e-02  2.59878e+00        00000 
 1.53471e-01  2.59458e+00        00000 
 2.15588e-01  2.60753e+00        00000 
 2.90465e-01  2.58219e+00        00000 
 3.46455e-01  2.55340e+00        00000 
 4.54179e-01  2.52787e+00        00000 
 5.58979e-01  2.51208e+00        00000 
 6.51610e-01  2.48701e+00        00000 
 7.10210e-01  2.48940e+00        00000 
 7.65778e-01  2.47564e+00        00000 
 7.85641e-01  2.44813e+00        00000 
 8.55845e-01  2.41127e+00        00000 
 9.49271e-01  2.35981e+00        00000 
 1.01700e+00  2.32851e+00        00000 
 1.07148e+00  2.28062e+00        00000 
 1.11823e+00  2.26009e+00        00000 
 1.15964e+00  2.23003e+00        00000 
 1.12039e+00  2.19438e+00        00000 
 1.06825e+00  2.14900e+00        00000 
 9.77923e-01  2.10818e+00        00000 
 8.68889e-01  2.05062e+00        00000 
 8.28883e-01  2.01502e+00        00000 
 8.35081e-01  1.96182e+00        00000 
 7.94300e-01  1.92240e+00        00000 
-2.34868e+00  1.00726e+00        00000 
-2.15325e+00  1.07832e+00        00000 
-1.93347e+00  1.13789e+00        00000 
-1.68528e+00  1.20248e+00        00000 
-1.44262e+00  1.26582e+00        00000 
-1.21527e+00  1.29985e+00        00000 
-9.81242e-01  1.33862e+00        00000 
-8.46934e-01  1.36033e+00        00000 
-6.93123e-01  1.38531e+00        00000 
-5.24406e-01  1.40969e+00        00000 
-3.48766e-01  1.42956e+00        00000 
-1.61952e-01  1.43796e+00        00000 
 2.42522e-02  1.45286e+00        00000 
 1.85569e-01  1.46908e+00        00000 
 3.61970e-01  1.50796e+00        00000 
 5.34621e-01  1.53475e+00        00000 
 6.81686e-01  1.58618e+00        00000 
 8.51446e-01  1.62516e+00        00000 
 1.01430e+00  1.69021e+00        00000 
 1.16658e+00  1.74443e+00        00000 
 1.32398e+00  1.81452e+00        00000 
 1.48315e+00  1.89353e+00        00000 
 1.61000e+00  1.95151e+00        00000 
 1.76018e+00  2.02268e+00        00000 
 1.97921e+00  2.08262e+00        00000 
 2.20137e+00  2.11013e+00        00000 
 2.42726e+00  2.12666e+00        00000 
 2.57621e+00  2.13494e+00        00000 
 2.69695e+00  2.13536e+00        00000 
 2.83063e+00  2.12661e+00        00000 
-2.19138e+00 -3.72563e+00        00000 
-1.88344e+00 -3.79443e+00        00000 
-1.64841e+00 -3.87218e+00        00000 
-1.45940e+00 -3.93091e+00        00000 
-1.27901e+00 -3.99352e+00        00000 
-1.11578e+00 -4.02499e+00        00000 
-9.75696e-01 -4.05541e+00        00000 
-8.14059e-01 -4.07793e+00        00000 
-6.97463e-01 -4.10528e+00        00000 
-6.04168e-01 -4.10800e+00        00000 
-5.40371e-01 -4.09968e+00        00000 
-5.21683e-01 -4.06957e+00        00000 
-4.95302e-01 -4.03731e+00        00000 
-4.54026e-01 -4.01274e+00        00000 
-4.60637e-01 -3.98541e+00        00000 
-4.40443e-01 -3.92842e+00        00000 
-3.82744e-01 -3.88891e+00        00000 
-3.04912e-01 -3.83815e+00        00000 
-2.43038e-01 -3.79648e+00        00000 
-1.79753e-01 -3.74554e+00        00000 
-9.99812e-02 -3.69103e+00        00000 
 2.26262e-02 -3.64877e+00        00000 
 1.29010e-01 -3.58955e+00        00000 
 2.75609e-01 -3.53063e+00        00000 
 3.96129e-01 -3.47288e+00        00000 
 5.84759e-01 -3.40881e+00        00000 
 7.54663e-01 -3.32447e+00        00000 
 9.61613e-01 -3.24417e+00        00000 
 1.27519e+00 -3.14312e+00        00000 
 1.65107e+00 -3.03750e+00        00000 
 1.26650e+00 -5.98592e+00        00000 
 1.15167e+00 -6.08488e+00        00000 
 1.02467e+00 -6.15628e+00        00000 
 8.66842e-01 -6.19802e+00        00000 
 7.05809e-01 -6.23971e+00        00000 
 5.94795e-01 -6.27901e+00        00000 
 4.76823e-01 -6.30388e+00        00000 
 3.14298e-01 -6.31820e+00        00000 
 1.05898e-01 -6.31263e+00        00000 
-8.98757e-02 -6.31618e+00        00000 
-2.89527e-01 -6.33297e+00        00000 
-4.20278e-01 -6.34626e+00        00000 
-5.01598e-01 -6.36389e+00        00000 
-6.01199e-01 -6.39108e+00        00000 
-7.28460e-01 -6.39842e+00        00000 
-9.08943e-01 -6.43102e+00        00000 
-1.07207e+00 -6.46066e+00        00000 
-1.20496e+00 -6.49797e+00        00000 
-1.32108e+00 -6.52010e+00        00000 
-1.48142e+00 -6.54795e+00        00000 
-1.66051e+00 -6.55531e+00        00000 
-1.85960e+00 -6.56533e+00        00000 
-2.02222e+00 -6.55575e+00        00000 
-2.17591e+00 -6.54287e+00        00000 
-2.34838e+00 -6.51888e+00        00000 
-2.57126e+00 -6.47455e+00        00000 
-2.76354e+00 -6.41953e+00        00000 
-2.90883e+00 -6.35556e+00        00000 
-3.06436e+00 -6.26261e+00        00000 
-3.22169e+00 -6.15492e+00        00000 
 4.82918e+00  9.65922e-01        00000 
 4.19606e+00  9.12757e-01        00000 
 3.61577e+00  8.51279e-01        00000 
 3.11768e+00  8.16053e-01        00000 
 2.63501e+00  7.87049e-01        00000 
 2.13806e+00  7.66822e-01        00000 
 1.70329e+00  7.65190e-01        00000 
 1.31765e+00  7.47580e-01        00000 
 1.05141e+00  7.12597e-01        00000 
 8.02085e-01  6.92968e-01        00000 
 5.98451e-01  6.71118e-01        00000 
 3.50313e-01  6.47810e-01        00000 
 3.20555e-02  6.19661e-01        00000 
-2.75656e-01  5.98914e-01        00000 
-5.47487e-01  5.88343e-01        00000 
-7.79326e-01  5.65275e-01        00000 
-1.03514e+00  5.47556e-01        00000 
-1.34793e+00  5.23575e-01        00000 
-1.64371e+00  5.08773e-01        00000 
-1.96606e+00  5.02164e-01        00000 
-2.25096e+00  4.74729e-01        00000 
-2.52045e+00  4.71697e-01        00000 
-2.84044e+00  4.60935e-01        00000 
-3.21606e+00  4.40501e-01        00000 
-3.58980e+00  4.28705e-01        00000 
-3.95039e+00  4.26701e-01        00000 
-4.32090e+00  4.31161e-01        00000 
-4.80286e+00  4.27543e-01        00000 
-5.31020e+00  4.31080e-01        00000 
-5.85400e+00  4.42575e-01        00000 
 3.70108e+00  9.89182e+00        00000 
 3.30958e+00  9.99409e+00        00000 
 2.92292e+00  1.00991e+01        00000 
 2.55680e+00  1.01833e+01        00000 
 2.21565e+00  1.02426e+01        00000 
 1.89000e+00  1.02629e+01        00000 
 1.62294e+00  1.02910e+01        00000 
 1.37638e+00  1.02855e+01        00000 
 1.10548e+00  1.02929e+01        00000 
 8.16877e-01  1.02937e+01        00000 
 5.54578e-01  1.02894e+01        00000 
 3.46641e-01  1.02782e+01        00000 
 1.58468e-01  1.02627e+01        00000 
-2.91589e-02  1.02501e+01        00000 
-2.48298e-01  1.02205e+01        00000 
-4.67094e-01  1.01844e+01        00000 
-6.56033e-01  1.01506e+01        00000 
-7.88231e-01  1.01130e+01        00000 
-9.31272e-01  1.00593e+01        00000 
-1.04904e+00  1.00029e+01        00000 
-1.23031e+00  9.94699e+00        00000 
-1.42215e+00  9.89695e+00        00000 
-1.62061e+00  9.82942e+00        00000 
-1.80455e+00  9.76334e+00        00000 
-2.05210e+00  9.68471e+00        00000 
-2.32641e+00  9.59861e+00        00000 
-2.62962e+00  9.49480e+00        00000 
-2.91313e+00  9.38963e+00        00000 
-3.22453e+00  9.27882e+00        00000 
-3.57452e+00  9.16080e+00        00000 
-1.83027e+00  1.18611e+01        00000 
-1.69452e+00  1.20293e+01        00000 
-1.56294e+00  1.21936e+01        00000 
-1.39355e+00  1.23179e+01        00000 
-1.20629e+00  1.24379e+01        00000 
-9.73960e-01  1.25502e+01        00000 
-8.33542e-01  1.26517e+01        00000 
-7.43531e-01  1.27472e+01        00000 
-6.26377e-01  1.28144e+01        00000 
-4.60017e-01  1.28763e+01        00000 
-3.36723e-01  1.29120e+01        00000 
-2.18885e-01  1.29364e+01        00000 
-6.26970e-02  1.29435e+01        00000 
 1.10327e-01  1.29321e+01        00000 
 3.17936e-01  1.29069e+01        00000 
 5.64339e-01  1.28727e+01        00000 
 7.54195e-01  1.28303e+01        00000 
 8.92069e-01  1.27617e+01        00000 
 9.98372e-01  1.27055e+01        00000 
 1.11974e+00  1.26330e+01        00000 
 1.29965e+00  1.25587e+01        00000 
 1.46364e+00  1.24814e+01        00000 
 1.61338e+00  1.23878e+01        00000 
 1.73543e+00  1.23062e+01        00000 
 1.87826e+00  1.21972e+01        00000 
 2.01270e+00  1.20807e+01        00000 
 2.12878e+00  1.19667e+01        00000 
 2.16015e+00  1.18021e+01        00000 
 2.14574e+00  1.16360e+01        00000 
 2.14578e+00  1.14541e+01        00000 
-7.67153e+00  5.55199e+00        00000 
-6.95231e+00  5.68645e+00        00000 
-6.23136e+00  5.80901e+00        00000 
-5.62087e+00  5.91336e+00        00000 
-5.06953e+00  6.00968e+00        00000 
-4.53779e+00  6.10563e+00        00000 
-3.97736e+00  6.17651e+00        00000 
-3.40541e+00  6.23970e+00        00000 
-2.83859e+00  6.27736e+00        00000 
-2.27510e+00  6.32006e+00        00000 
-1.70917e+00  6.35690e+00        00000 
-1.16544e+00  6.38781e+00        00000 
-5.84559e-01  6.41044e+00        00000 
-6.88441e-02  6.44755e+00        00000 
 4.25831e-01  6.46123e+00        00000 
 8.75393e-01  6.48883e+00        00000 
 1.30216e+00  6.50319e+00        00000 
 1.71820e+00  6.53159e+00        00000 
 2.18015e+00  6.54366e+00        00000 
 2.62132e+00  6.54744e+00        00000 
 3.07075e+00  6.55861e+00        00000 
 3.53764e+00  6.53971e+00        00000 
 4.07223e+00  6.50252e+00        00000 
 4.62615e+00  6.44560e+00        00000 
 5.19006e+00  6.39631e+00        00000 
 5.73617e+00  6.32612e+00        00000 
 6.33775e+00  6.24963e+00        00000 
 7.02034e+00  6.15980e+00        00000 
 7.74325e+00  6.04991e+00        00000 
 8.49343e+00  5.90231e+00        00000 
-1.05588e+01 -7.81660e+00        00000 
-9.64764e+00 -7.80335e+00        00000 
-8.72525e+00 -7.79498e+00        00000 
-7.83826e+00 -7.78955e+00        00000 
-6.97137e+00 -7.78845e+00        00000 
-6.12157e+00 -7.78272e+00        00000 
-5.30889e+00 -7.80114e+00        00000 
-4.53398e+00 -7.81067e+00        00000 
-3.77130e+00 -7.80955e+00        00000 
-3.01884e+00 -7.80331e+00        00000 
-2.33090e+00 -7.79944e+00        00000 
-1.68756e+00 -7.80168e+00        00000 
-1.11863e+00 -7.80846e+00        00000 
-5.44884e-01 -7.82244e+00        00000 
 5.96606e-02 -7.83020e+00        00000 
 7.06883e-01 -7.82630e+00        00000 
 1.35573e+00 -7.83600e+00        00000 
 2.02216e+00 -7.85512e+00        00000 
 2.69667e+00 -7.89985e+00        00000 
 3.38757e+00 -7.93634e+00        00000 
 4.10136e+00 -7.98430e+00        00000 
 4.84035e+00 -8.04094e+00        00000 
 5.57674e+00 -8.07190e+00        00000 
 6.27926e+00 -8.10818e+00        00000 
 7.01367e+00 -8.13055e+00        00000 
 7.77974e+00 -8.17180e+00        00000 
 8.60035e+00 -8.21682e+00        00000 
 9.47463e+00 -8.25059e+00        00000 
 1.03837e+01 -8.28966e+00        00000 
 1.13310e+01 -8.30489e+00        00000 
-7.96678e+00 -2.14828e+01        00000 
-7.27424e+00 -2.16147e+01        00000 
-6.65896e+00 -2.17380e+01        00000 
-6.02815e+00 -2.18420e+01        00000 
-5.43621e+00 -2.19244e+01        00000 
-4.83221e+00 -2.19957e+01        00000 
-4.22817e+00 -2.20568e+01        00000 
-3.62824e+00 -2.21162e+01        00000 
-3.07119e+00 -2.21678e+01        00000 
-2.53388e+00 -2.22274e+01        00000 
-1.98790e+00 -2.22706e+01        00000 
-1.44234e+00 -2.23067e+01        00000 
-9.02979e-01 -2.23328e+01        00000 
-3.80126e-01 -2.23325e+01        00000 
 1.28984e-01 -2.23577e+01        00000 
 6.38888e-01 -2.23960e+01        00000 
 1.17851e+00 -2.24057e+01        00000 
 1.77600e+00 -2.23993e+01        00000 
 2.40472e+00 -2.23722e+01        00000 
 3.00686e+00 -2.23201e+01        00000 
 3.55472e+00 -2.22650e+01        00000 
 4.08401e+00 -2.22029e+01        00000 
 4.64161e+00 -2.21455e+01        00000 
 5.27400e+00 -2.20803e+01        00000 
 5.91175e+00 -2.19928e+01        00000 
 6.57753e+00 -2.18845e+01        00000 
 7.18790e+00 -2.17849e+01        00000 
 7.78382e+00 -2.16615e+01        00000 
 8.45977e+00 -2.15363e+01        00000 
 9.20993e+00 -2.14082e+01        00000 
-2.09863e+00 -3.00414e+01        00000 
-1.83725e+00 -3.02284e+01        00000 
-1.62635e+00 -3.03961e+01        00000 
-1.43686e+00 -3.05693e+01        00000 
-1.25541e+00 -3.07332e+01        00000 
-1.07240e+00 -3.08862e+01        00000 
-9.09133e-01 -3.10202e+01        00000 
-7.77297e-01 -3.11416e+01        00000 
-6.32564e-01 -3.12530e+01        00000 
-4.45373e-01 -3.13358e+01        00000 
-2.63919e-01 -3.13999e+01        00000 
-1.24680e-01 -3.14760e+01        00000 
-6.16100e-03 -3.15119e+01        00000 
 1.62131e-01 -3.15532e+01        00000 
 3.50833e-01 -3.15706e+01        00000 
 5.13547e-01 -3.15457e+01        00000 
 6.64662e-01 -3.15189e+01        00000 
 7.39015e-01 -3.14961e+01        00000 
 7.51930e-01 -3.14584e+01        00000 
 7.87787e-01 -3.14056e+01        00000 
 9.18164e-01 -3.13310e+01        00000 
 1.12741e+00 -3.12256e+01        00000 
 1.28368e+00 -3.11131e+01        00000 
 1.41674e+00 -3.09477e+01        00000 
 1.55451e+00 -3.07890e+01        00000 
 1.73579e+00 -3.06077e+01        00000 
 1.95826e+00 -3.04186e+01        00000 
 2.19261e+00 -3.02132e+01        00000 
 2.42304e+00 -3.00052e+01        00000 
 2.63348e+00 -2.97698e+01        00000 
 5.93858e+00 -2.90829e+01        00000 
 5.51179e+00 -2.93466e+01        00000 
 5.10681e+00 -2.95758e+01        00000 
 4.71501e+00 -2.97705e+01        00000 
 4.26123e+00 -2.99451e+01        00000 
 3.81323e+00 -3.00786e+01        00000 
 3.39432e+00 -3.01857e+01        00000 
 2.98767e+00 -3.02795e+01        00000 
 2.58298e+00 -3.03673e+01        00000 
 2.13872e+00 -3.04477e+01        00000 
 1.69598e+00 -3.04919e+01        00000 
 1.23052e+00 -3.04936e+01        00000 
 7.67527e-01 -3.04916e+01        00000 
 3.29842e-01 -3.04594e+01        00000 
-1.55753e-01 -3.04084e+01        00000 
-6.33203e-01 -3.03440e+01        00000 
-1.11792e+00 -3.02560e+01        00000 
-1.50914e+00 -3.01395e+01        00000 
-1.82123e+00 -2.99994e+01        00000 
-2.20744e+00 -2.98481e+01        00000 
-2.65011e+00 -2.96948e+01        00000 
-3.11994e+00 -2.95674e+01        00000 
-3.54596e+00 -2.94255e+01        00000 
-3.99714e+00 -2.92783e+01        00000 
-4.38415e+00 -2.91212e+01        00000 
-4.79979e+00 -2.89285e+01        00000 
-5.23280e+00 -2.87255e+01        00000 
-5.62087e+00 -2.84969e+01        00000 
-6.00476e+00 -2.82630e+01        00000 
-6.41349e+00 -2.79981e+01        00000 
 1.48872e+01 -1.63041e+01        00000 
 1.37115e+01 -1.65294e+01        00000 
 1.25618e+01 -1.67500e+01        00000 
 1.14296e+01 -1.69093e+01        00000 
 1.02783e+01 -1.70621e+01        00000 
 9.14377e+00 -1.71964e+01        00000 
 8.00493e+00 -1.73287e+01        00000 
 6.83896e+00 -1.74193e+01        00000 
 5.70131e+00 -1.74812e+01        00000 
 4.57945e+00 -1.75363e+01        00000 
 3.46854e+00 -1.75682e+01        00000 
 2.43324e+00 -1.76052e+01        00000 
 1.44700e+00 -1.76349e+01        00000 
 4.12950e-01 -1.76560e+01        00000 
-5.76615e-01 -1.76508e+01        00000 
-1.53568e+00 -1.76491e+01        00000 
-2.52489e+00 -1.76431e+01        00000 
-3.51178e+00 -1.76257e+01        00000 
-4.51067e+00 -1.75963e+01        00000 
-5.48648e+00 -1.75390e+01        00000 
-6.42917e+00 -1.74530e+01        00000 
-7.37911e+00 -1.73428e+01        00000 
-8.31209e+00 -1.72120e+01        00000 
-9.26758e+00 -1.70758e+01        00000 
-1.02526e+01 -1.69148e+01        00000 
-1.12745e+01 -1.67620e+01        00000 
-1.23467e+01 -1.65883e+01        00000 
-1.34778e+01 -1.63780e+01        00000 
-1.46544e+01 -1.61394e+01        00000 
-1.58334e+01 -1.58831e+01        00000 
 2.25819e+01  6.34104e+00        00000 
 2.07398e+01  6.17020e+00        00000 
 1.89227e+01  6.01249e+00        00000 
 1.71277e+01  5.87269e+00        00000 
 1.53841e+01  5.74965e+00        00000 
 1.37079e+01  5.66011e+00        00000 
 1.20789e+01  5.58499e+00        00000 
 1.04241e+01  5.50783e+00        00000 
 8.81591e+00  5.42935e+00        00000 
 7.27450e+00  5.35075e+00        00000 
 5.73537e+00  5.28296e+00        00000 
 4.22329e+00  5.20877e+00        00000 
 2.75564e+00  5.18069e+00        00000 
 1.31786e+00  5.15688e+00        00000 
-9.37290e-02  5.14226e+00        00000 
-1.52674e+00  5.14834e+00        00000 
-2.96136e+00  5.16429e+00        00000 
-4.39222e+00  5.20120e+00        00000 
-5.85098e+00  5.25004e+00        00000 
-7.36504e+00  5.31303e+00        00000 
-8.88953e+00  5.37212e+00        00000 
-1.04642e+01  5.42527e+00        00000 
-1.21046e+01  5.50865e+00        00000 
-1.37385e+01  5.60192e+00        00000 
-1.53590e+01  5.72054e+00        00000 
-1.69894e+01  5.85395e+00        00000 
-1.86160e+01  5.99416e+00        00000 
-2.02947e+01  6.15210e+00        00000 
-2.19989e+01  6.31304e+00        00000 
-2.37628e+01  6.48881e+00        00000 
 2.60716e+01  3.71445e+01        00000 
 2.40378e+01  3.71014e+01        00000 
 2.20515e+01  3.70548e+01        00000 
 2.00920e+01  3.69975e+01        00000 
 1.81737e+01  3.69662e+01        00000 
 1.62561e+01  3.69306e+01        00000 
 1.44206e+01  3.68989e+01        00000 
 1.26560e+01  3.68583e+01        00000 
 1.09057e+01  3.68247e+01        00000 
 9.13394e+00  3.67965e+01        00000 
 7.39434e+00  3.67726e+01        00000 
 5.65892e+00  3.67763e+01        00000 
 3.92883e+00  3.67618e+01        00000 
 2.20551e+00  3.67478e+01        00000 
 4.80755e-01  3.67345e+01        00000 
-1.28485e+00  3.67135e+01        00000 
-3.05290e+00  3.66926e+01        00000 
-4.81282e+00  3.66781e+01        00000 
-6.57914e+00  3.66898e+01        00000 
-8.30801e+00  3.66984e+01        00000 
-1.00551e+01  3.67122e+01        00000 
-1.18030e+01  3.67360e+01        00000 
-1.35532e+01  3.67585e+01        00000 
-1.53419e+01  3.67615e+01        00000 
-1.72658e+01  3.67601e+01        00000 
-1.92296e+01  3.67655e+01        00000 
-2.12218e+01  3.67788e+01        00000 
-2.32405e+01  3.67939e+01        00000 
-2.52604e+01  3.68233e+01        00000 
-2.72903e+01  3.68494e+01        00000 
 2.55666e+01  6.83747e+01        00000 
 2.35588e+01  6.84639e+01        00000 
 2.16163e+01  6.85562e+01        00000 
 1.97068e+01  6.86386e+01        00000 
 1.78441e+01  6.87281e+01        00000 
 1.60814e+01  6.87998e+01        00000 
 1.42878e+01  6.88887e+01        00000 
 1.25261e+01  6.89510e+01        00000 
 1.08307e+01  6.90054e+01        00000 
 9.19877e+00  6.90604e+01        00000 
 7.56713e+00  6.91084e+01        00000 
 5.93993e+00  6.91354e+01        00000 
 4.30077e+00  6.91637e+01        00000 
 2.62789e+00  6.91813e+01        00000 
 9.39671e-01  6.91858e+01        00000 
-7.03494e-01  6.92055e+01        00000 
-2.33667e+00  6.92104e+01        00000 