<?xml version="1.0" encoding="utf-8"?>
<VTKFile byte_order="LittleEndian" type="UnstructuredGrid" version="0.1">
   <UnstructuredGrid>
      <Piece NumberOfCells="3364" NumberOfPoints="1741">
         <Points>
            <DataArray Name="Points" NumberOfComponents="3" format="ascii" type="Float32">
0.0000 0.0000 0.0000
0.0000 0.0690 0.0000
0.0000 0.1379 0.0000
0.0000 0.2069 0.0000
0.0000 0.2759 0.0000
0.0000 0.3448 0.0000
0.0000 0.4138 0.0000
0.0000 0.4828 0.0000
0.0000 0.5517 0.0000
0.0000 0.6207 0.0000
0.0000 0.6897 0.0000
0.0000 0.7586 0.0000
0.0000 0.8276 0.0000
0.0000 0.8966 0.0000
0.0000 0.9655 0.0000
0.0000 1.0345 0.0000
0.0000 1.1034 0.0000
0.0000 1.1724 0.0000
0.0000 1.2414 0.0000
0.0000 1.3103 0.0000
0.0000 1.3793 0.0000
0.0000 1.4483 0.0000
0.0000 1.5172 0.0000
0.0000 1.5862 0.0000
0.0000 1.6552 0.0000
0.0000 1.7241 0.0000
0.0000 1.7931 0.0000
0.0000 1.8621 0.0000
0.0000 1.9310 0.0000
0.0000 2.0000 0.0000
1.0345 0.0000 0.0000
1.0345 0.0690 0.0000
1.0345 0.1379 0.0000
1.0345 0.2069 0.0000
1.0345 0.2759 0.0000
1.0345 0.3448 0.0000
1.0345 0.4138 0.0000
1.0345 0.4828 0.0000
1.0345 0.5517 0.0000
1.0345 0.6207 0.0000
1.0345 0.6897 0.0000
1.0345 0.7586 0.0000
1.0345 0.8276 0.0000
1.0345 0.8966 0.0000
1.0345 0.9655 0.0000
1.0345 1.0345 0.0000
1.0345 1.1034 0.0000
1.0345 1.1724 0.0000
1.0345 1.2414 0.0000
1.0345 1.3103 0.0000
1.0345 1.3793 0.0000
1.0345 1.4483 0.0000
1.0345 1.5172 0.0000
1.0345 1.5862 0.0000
1.0345 1.6552 0.0000
1.0345 1.7241 0.0000
1.0345 1.7931 0.0000
1.0345 1.8621 0.0000
1.0345 1.9310 0.0000
1.0345 2.0000 0.0000
2.0690 0.0000 0.0000
2.0690 0.0690 0.0000
2.0690 0.1379 0.0000
2.0690 0.2069 0.0000
2.0690 0.2759 0.0000
2.0690 0.3448 0.0000
2.0690 0.4138 0.0000
2.0690 0.4828 0.0000
2.0690 0.5517 0.0000
2.0690 0.6207 0.0000
2.0690 0.6897 0.0000
2.0690 0.7586 0.0000
2.0690 0.8276 0.0000
2.0690 0.8966 0.0000
2.0690 0.9655 0.0000
2.0690 1.0345 0.0000
2.0690 1.1034 0.0000
2.0690 1.1724 0.0000
2.0690 1.2414 0.0000
2.0690 1.3103 0.0000
2.0690 1.3793 0.0000
2.0690 1.4483 0.0000
2.0690 1.5172 0.0000
2.0690 1.5862 0.0000
2.0690 1.6552 0.0000
2.0690 1.7241 0.0000
2.0690 1.7931 0.0000
2.0690 1.8621 0.0000
2.0690 1.9310 0.0000
2.0690 2.0000 0.0000
3.1034 0.0000 0.0000
3.1034 0.0690 0.0000
3.1034 0.1379 0.0000
3.1034 0.2069 0.0000
3.1034 0.2759 0.0000
3.1034 0.3448 0.0000
3.1034 0.4138 0.0000
3.1034 0.4828 0.0000
3.1034 0.5517 0.0000
3.1034 0.6207 0.0000
3.1034 0.6897 0.0000
3.1034 0.7586 0.0000
3.1034 0.8276 0.0000
3.1034 0.8966 0.0000
3.1034 0.9655 0.0000
3.1034 1.0345 0.0000
3.1034 1.1034 0.0000
3.1034 1.1724 0.0000
3.1034 1.2414 0.0000
3.1034 1.3103 0.0000
3.1034 1.3793 0.0000
3.1034 1.4483 0.0000
3.1034 1.5172 0.0000
3.1034 1.5862 0.0000
3.1034 1.6552 0.0000
3.1034 1.7241 0.0000
3.1034 1.7931 0.0000
3.1034 1.8621 0.0000
3.1034 1.9310 0.0000
3.1034 2.0000 0.0000
4.1379 0.0000 0.0000
4.1379 0.0690 0.0000
4.1379 0.1379 0.0000
4.1379 0.2069 0.0000
4.1379 0.2759 0.0000
4.1379 0.3448 0.0000
4.1379 0.4138 0.0000
4.1379 0.4828 0.0000
4.1379 0.5517 0.0000
4.1379 0.6207 0.0000
4.1379 0.6897 0.0000
4.1379 0.7586 0.0000
4.1379 0.8276 0.0000
4.1379 0.8966 0.0000
4.1379 0.9655 0.0000
4.1379 1.0345 0.0000
4.1379 1.1034 0.0000
4.1379 1.1724 0.0000
4.1379 1.2414 0.0000
4.1379 1.3103 0.0000
4.1379 1.3793 0.0000
4.1379 1.4483 0.0000
4.1379 1.5172 0.0000
4.1379 1.5862 0.0000
4.1379 1.6552 0.0000
4.1379 1.7241 0.0000
4.1379 1.7931 0.0000
4.1379 1.8621 0.0000
4.1379 1.9310 0.0000
4.1379 2.0000 0.0000
5.1724 0.0000 0.0000
5.1724 0.0690 0.0000
5.1724 0.1379 0.0000
5.1724 0.2069 0.0000
5.1724 0.2759 0.0000
5.1724 0.3448 0.0000
5.1724 0.4138 0.0000
5.1724 0.4828 0.0000
5.1724 0.5517 0.0000
5.1724 0.6207 0.0000
5.1724 0.6897 0.0000
5.1724 0.7586 0.0000
5.1724 0.8276 0.0000
5.1724 0.8966 0.0000
5.1724 0.9655 0.0000
5.1724 1.0345 0.0000
5.1724 1.1034 0.0000
5.1724 1.1724 0.0000
5.1724 1.2414 0.0000
5.1724 1.3103 0.0000
5.1724 1.3793 0.0000
5.1724 1.4483 0.0000
5.1724 1.5172 0.0000
5.1724 1.5862 0.0000
5.1724 1.6552 0.0000
5.1724 1.7241 0.0000
5.1724 1.7931 0.0000
5.1724 1.8621 0.0000
5.1724 1.9310 0.0000
5.1724 2.0000 0.0000
6.2069 0.0000 0.0000
6.2069 0.0690 0.0000
6.2069 0.1379 0.0000
6.2069 0.2069 0.0000
6.2069 0.2759 0.0000
6.2069 0.3448 0.0000
6.2069 0.4138 0.0000
6.2069 0.4828 0.0000
6.2069 0.5517 0.0000
6.2069 0.6207 0.0000
6.2069 0.6897 0.0000
6.2069 0.7586 0.0000
6.2069 0.8276 0.0000
6.2069 0.8966 0.0000
6.2069 0.9655 0.0000
6.2069 1.0345 0.0000
6.2069 1.1034 0.0000
6.2069 1.1724 0.0000
6.2069 1.2414 0.0000
6.2069 1.3103 0.0000
6.2069 1.3793 0.0000
6.2069 1.4483 0.0000
6.2069 1.5172 0.0000
6.2069 1.5862 0.0000
6.2069 1.6552 0.0000
6.2069 1.7241 0.0000
6.2069 1.7931 0.0000
6.2069 1.8621 0.0000
6.2069 1.9310 0.0000
6.2069 2.0000 0.0000
7.2414 0.0000 0.0000
7.2414 0.0690 0.0000
7.2414 0.1379 0.0000
7.2414 0.2069 0.0000
7.2414 0.2759 0.0000
7.2414 0.3448 0.0000
7.2414 0.4138 0.0000
7.2414 0.4828 0.0000
7.2414 0.5517 0.0000
7.2414 0.6207 0.0000
7.2414 0.6897 0.0000
7.2414 0.7586 0.0000
7.2414 0.8276 0.0000
7.2414 0.8966 0.0000
7.2414 0.9655 0.0000
7.2414 1.0345 0.0000
7.2414 1.1034 0.0000
7.2414 1.1724 0.0000
7.2414 1.2414 0.0000
7.2414 1.3103 0.0000
7.2414 1.3793 0.0000
7.2414 1.4483 0.0000
7.2414 1.5172 0.0000
7.2414 1.5862 0.0000
7.2414 1.6552 0.0000
7.2414 1.7241 0.0000
7.2414 1.7931 0.0000
7.2414 1.8621 0.0000
7.2414 1.9310 0.0000
7.2414 2.0000 0.0000
8.2759 0.0000 0.0000
8.2759 0.0690 0.0000
8.2759 0.1379 0.0000
8.2759 0.2069 0.0000
8.2759 0.2759 0.0000
8.2759 0.3448 0.0000
8.2759 0.4138 0.0000
8.2759 0.4828 0.0000
8.2759 0.5517 0.0000
8.2759 0.6207 0.0000
8.2759 0.6897 0.0000
8.2759 0.7586 0.0000
8.2759 0.8276 0.0000
8.2759 0.8966 0.0000
8.2759 0.9655 0.0000
8.2759 1.0345 0.0000
8.2759 1.1034 0.0000
8.2759 1.1724 0.0000
8.2759 1.2414 0.0000
8.2759 1.3103 0.0000
8.2759 1.3793 0.0000
8.2759 1.4483 0.0000
8.2759 1.5172 0.0000
8.2759 1.5862 0.0000
8.2759 1.6552 0.0000
8.2759 1.7241 0.0000
8.2759 1.7931 0.0000
8.2759 1.8621 0.0000
8.2759 1.9310 0.0000
8.2759 2.0000 0.0000
9.3103 0.0000 0.0000
9.3103 0.0690 0.0000
9.3103 0.1379 0.0000
9.3103 0.2069 0.0000
9.3103 0.2759 0.0000
9.3103 0.3448 0.0000
9.3103 0.4138 0.0000
9.3103 0.4828 0.0000
9.3103 0.5517 0.0000
9.3103 0.6207 0.0000
9.3103 0.6897 0.0000
9.3103 0.7586 0.0000
9.3103 0.8276 0.0000
9.3103 0.8966 0.0000
9.3103 0.9655 0.0000
9.3103 1.0345 0.0000
9.3103 1.1034 0.0000
9.3103 1.1724 0.0000
9.3103 1.2414 0.0000
9.3103 1.3103 0.0000
9.3103 1.3793 0.0000
9.3103 1.4483 0.0000
9.3103 1.5172 0.0000
9.3103 1.5862 0.0000
9.3103 1.6552 0.0000
9.3103 1.7241 0.0000
9.3103 1.7931 0.0000
9.3103 1.8621 0.0000
9.3103 1.9310 0.0000
9.3103 2.0000 0.0000
10.3448 0.0000 0.0000
10.3448 0.0690 0.0000
10.3448 0.1379 0.0000
10.3448 0.2069 0.0000
10.3448 0.2759 0.0000
10.3448 0.3448 0.0000
10.3448 0.4138 0.0000
10.3448 0.4828 0.0000
10.3448 0.5517 0.0000
10.3448 0.6207 0.0000
10.3448 0.6897 0.0000
10.3448 0.7586 0.0000
10.3448 0.8276 0.0000
10.3448 0.8966 0.0000
10.3448 0.9655 0.0000
10.3448 1.0345 0.0000
10.3448 1.1034 0.0000
10.3448 1.1724 0.0000
10.3448 1.2414 0.0000
10.3448 1.3103 0.0000
10.3448 1.3793 0.0000
10.3448 1.4483 0.0000
10.3448 1.5172 0.0000
10.3448 1.5862 0.0000
10.3448 1.6552 0.0000
10.3448 1.7241 0.0000
10.3448 1.7931 0.0000
10.3448 1.8621 0.0000
10.3448 1.9310 0.0000
10.3448 2.0000 0.0000
11.3793 0.0000 0.0000
11.3793 0.0690 0.0000
11.3793 0.1379 0.0000
11.3793 0.2069 0.0000
11.3793 0.2759 0.0000
11.3793 0.3448 0.0000
11.3793 0.4138 0.0000
11.3793 0.4828 0.0000
11.3793 0.5517 0.0000
11.3793 0.6207 0.0000
11.3793 0.6897 0.0000
11.3793 0.7586 0.0000
11.3793 0.8276 0.0000
11.3793 0.8966 0.0000
11.3793 0.9655 0.0000
11.3793 1.0345 0.0000
11.3793 1.1034 0.0000
11.3793 1.1724 0.0000
11.3793 1.2414 0.0000
11.3793 1.3103 0.0000
11.3793 1.3793 0.0000
11.3793 1.4483 0.0000
11.3793 1.5172 0.0000
11.3793 1.5862 0.0000
11.3793 1.6552 0.0000
11.3793 1.7241 0.0000
11.3793 1.7931 0.0000
11.3793 1.8621 0.0000
11.3793 1.9310 0.0000
11.3793 2.0000 0.0000
12.4138 0.0000 0.0000
12.4138 0.0690 0.0000
12.4138 0.1379 0.0000
12.4138 0.2069 0.0000
12.4138 0.2759 0.0000
12.4138 0.3448 0.0000
12.4138 0.4138 0.0000
12.4138 0.4828 0.0000
12.4138 0.5517 0.0000
12.4138 0.6207 0.0000
12.4138 0.6897 0.0000
12.4138 0.7586 0.0000
12.4138 0.8276 0.0000
12.4138 0.8966 0.0000
12.4138 0.9655 0.0000
12.4138 1.0345 0.0000
12.4138 1.1034 0.0000
12.4138 1.1724 0.0000
12.4138 1.2414 0.0000
12.4138 1.3103 0.0000
12.4138 1.3793 0.0000
12.4138 1.4483 0.0000
12.4138 1.5172 0.0000
12.4138 1.5862 0.0000
12.4138 1.6552 0.0000
12.4138 1.7241 0.0000
12.4138 1.7931 0.0000
12.4138 1.8621 0.0000
12.4138 1.9310 0.0000
12.4138 2.0000 0.0000
13.4483 0.0000 0.0000
13.4483 0.0690 0.0000
13.4483 0.1379 0.0000
13.4483 0.2069 0.0000
13.4483 0.2759 0.0000
13.4483 0.3448 0.0000
13.4483 0.4138 0.0000
13.4483 0.4828 0.0000
13.4483 0.5517 0.0000
13.4483 0.6207 0.0000
13.4483 0.6897 0.0000
13.4483 0.7586 0.0000
13.4483 0.8276 0.0000
13.4483 0.8966 0.0000
13.4483 0.9655 0.0000
13.4483 1.0345 0.0000
13.4483 1.1034 0.0000
13.4483 1.1724 0.0000
13.4483 1.2414 0.0000
13.4483 1.3103 0.0000
13.4483 1.3793 0.0000
13.4483 1.4483 0.0000
13.4483 1.5172 0.0000
13.4483 1.5862 0.0000
13.4483 1.6552 0.0000
13.4483 1.7241 0.0000
13.4483 1.7931 0.0000
13.4483 1.8621 0.0000
13.4483 1.9310 0.0000
13.4483 2.0000 0.0000
14.4828 0.0000 0.0000
14.4828 0.0690 0.0000
14.4828 0.1379 0.0000
14.4828 0.2069 0.0000
14.4828 0.2759 0.0000
14.4828 0.3448 0.0000
14.4828 0.4138 0.0000
14.4828 0.4828 0.0000
14.4828 0.5517 0.0000
14.4828 0.6207 0.0000
14.4828 0.6897 0.0000
14.4828 0.7586 0.0000
14.4828 0.8276 0.0000
14.4828 0.8966 0.0000
14.4828 0.9655 0.0000
14.4828 1.0345 0.0000
14.4828 1.1034 0.0000
14.4828 1.1724 0.0000
14.4828 1.2414 0.0000
14.4828 1.3103 0.0000
14.4828 1.3793 0.0000
14.4828 1.4483 0.0000
14.4828 1.5172 0.0000
14.4828 1.5862 0.0000
14.4828 1.6552 0.0000
14.4828 1.7241 0.0000
14.4828 1.7931 0.0000
14.4828 1.8621 0.0000
14.4828 1.9310 0.0000
14.4828 2.0000 0.0000
15.5172 0.0000 0.0000
15.5172 0.0690 0.0000
15.5172 0.1379 0.0000
15.5172 0.2069 0.0000
[...]
         <PointData>
            <DataArray Name="fValues" NumberOfComponents="3" format="ascii" type="Float64">
 2.91175e-16 -4.36762e-16        00000 
 2.75171e-16 -4.12756e-16        00000 
 1.70069e-17  2.04082e-16        00000 
-4.45520e-16  1.47438e-16        00000 
 5.10206e-17 -2.72110e-16        00000 
-2.15759e-16  5.70902e-16        00000 
-6.80275e-17 -6.46261e-16        00000 
-3.01287e-16 -4.29494e-16        00000 
 1.70069e-17  8.50343e-16        00000 
-2.16729e-16 -2.61228e-16        00000 
 1.10545e-16  6.80275e-17        00000 
-7.74586e-17 -3.54707e-16        00000 
 2.55103e-17  8.84357e-16        00000 
 8.64328e-17 -4.07163e-16        00000 
-1.27551e-16  2.38096e-16        00000 
 6.51720e-17 -9.61555e-17        00000 
 3.40137e-17  3.74151e-16        00000 
 7.02117e-17 -2.18120e-16        00000 
-8.50343e-18 -6.80275e-17        00000 
 4.00648e-17 -2.52141e-16        00000 
 8.50343e-17  7.48302e-16        00000 
-7.42579e-18  3.61864e-16        00000 
       00000  6.80275e-17        00000 
 4.00648e-18  4.27358e-18        00000 
-1.27551e-17 -2.38096e-16        00000 
 2.87959e-18  1.12218e-16        00000 
 5.95240e-17  7.82316e-16        00000 
-1.07039e-17 -1.00616e-16        00000 
-3.00173e-17  1.02916e-16        00000 
 9.74962e-17  1.54255e-16        00000 
-2.91051e+00 -3.43593e+00        00000 
-2.56897e+00 -3.40720e+00        00000 
-2.25640e+00 -3.37135e+00        00000 
-1.94261e+00 -3.34770e+00        00000 
-1.66353e+00 -3.34359e+00        00000 
-1.48013e+00 -3.33827e+00        00000 
-1.36568e+00 -3.33891e+00        00000 
-1.25137e+00 -3.33865e+00        00000 
-1.10008e+00 -3.32687e+00        00000 
-9.41552e-01 -3.32910e+00        00000 
-8.17675e-01 -3.34513e+00        00000 
-7.83056e-01 -3.35715e+00        00000 
-8.04701e-01 -3.38483e+00        00000 
-8.21024e-01 -3.41350e+00        00000 
-8.29834e-01 -3.43452e+00        00000 
-7.82761e-01 -3.44091e+00        00000 
-6.89578e-01 -3.45883e+00        00000 
-6.19336e-01 -3.46768e+00        00000 
-5.50921e-01 -3.47274e+00        00000 
-5.11728e-01 -3.46217e+00        00000 
-4.86844e-01 -3.44327e+00        00000 
-4.34591e-01 -3.43918e+00        00000 
-4.83854e-01 -3.41728e+00        00000 
-5.09494e-01 -3.41133e+00        00000 
-4.68000e-01 -3.39123e+00        00000 
-3.47356e-01 -3.37970e+00        00000 
-1.67293e-01 -3.35088e+00        00000 
 8.49365e-02 -3.33304e+00        00000 
 3.48511e-01 -3.31367e+00        00000 
 6.27589e-01 -3.30413e+00        00000 
-6.78423e-01 -7.46685e+00        00000 
-6.00330e-01 -7.58871e+00        00000 
-5.61035e-01 -7.68785e+00        00000 
-5.34995e-01 -7.77531e+00        00000 
-5.59581e-01 -7.82444e+00        00000 
-5.32687e-01 -7.86473e+00        00000 
-4.82806e-01 -7.91381e+00        00000 
-5.04173e-01 -7.96071e+00        00000 
-5.71248e-01 -7.98452e+00        00000 
-6.40201e-01 -8.00777e+00        00000 
-6.94974e-01 -7.99225e+00        00000 
-6.79788e-01 -7.96373e+00        00000 
-6.46963e-01 -7.91866e+00        00000 
-6.27357e-01 -7.90508e+00        00000 
-6.98082e-01 -7.91126e+00        00000 
-7.93509e-01 -7.93498e+00        00000 
-9.39536e-01 -7.94386e+00        00000 
-1.04580e+00 -7.93857e+00        00000 
-1.15037e+00 -7.91979e+00        00000 
-1.25218e+00 -7.90218e+00        00000 
-1.33241e+00 -7.88524e+00        00000 
-1.38681e+00 -7.87399e+00        00000 
-1.40805e+00 -7.88294e+00        00000 
-1.46398e+00 -7.87028e+00        00000 
-1.47390e+00 -7.86275e+00        00000 
-1.51019e+00 -7.83761e+00        00000 
-1.54720e+00 -7.79238e+00        00000 
-1.52296e+00 -7.72958e+00        00000 
-1.49196e+00 -7.65450e+00        00000 
-1.39937e+00 -7.57305e+00        00000 
 4.29106e+00 -4.12802e+00        00000 
 3.86496e+00 -4.24611e+00        00000 
 3.42121e+00 -4.33632e+00        00000 
 2.98704e+00 -4.41511e+00        00000 
 2.61949e+00 -4.48660e+00        00000 
 2.27322e+00 -4.56915e+00        00000 
 1.95878e+00 -4.66560e+00        00000 
 1.66468e+00 -4.73837e+00        00000 
 1.40300e+00 -4.80890e+00        00000 
 1.17932e+00 -4.87650e+00        00000 
 9.11700e-01 -4.94552e+00        00000 
 5.49160e-01 -5.00169e+00        00000 
 2.32719e-01 -5.05045e+00        00000 
-1.99656e-02 -5.07782e+00        00000 
-2.67461e-01 -5.10111e+00        00000 
-5.03770e-01 -5.14469e+00        00000 
-7.64492e-01 -5.16675e+00        00000 
-1.00503e+00 -5.19828e+00        00000 
-1.28116e+00 -5.22307e+00        00000 
-1.59683e+00 -5.24862e+00        00000 
-1.88952e+00 -5.28014e+00        00000 
-2.17685e+00 -5.29376e+00        00000 
-2.43065e+00 -5.29531e+00        00000 
-2.70836e+00 -5.30299e+00        00000 
-3.01840e+00 -5.29547e+00        00000 
-3.33026e+00 -5.28596e+00        00000 
-3.68206e+00 -5.26669e+00        00000 
-4.06509e+00 -5.23816e+00        00000 
-4.45568e+00 -5.18697e+00        00000 
-4.86865e+00 -5.13225e+00        00000 
 6.29033e+00  5.28579e+00        00000 
 5.70729e+00  5.29364e+00        00000 
 5.21058e+00  5.31684e+00        00000 
 4.77698e+00  5.32951e+00        00000 
 4.37324e+00  5.33281e+00        00000 
 3.98935e+00  5.33449e+00        00000 
 3.59951e+00  5.32665e+00        00000 
 3.24163e+00  5.32847e+00        00000 
 2.93206e+00  5.31112e+00        00000 
 2.57066e+00  5.31379e+00        00000 
 2.23708e+00  5.31394e+00        00000 
 1.94075e+00  5.31432e+00        00000 
 1.58394e+00  5.27317e+00        00000 
 1.19213e+00  5.23562e+00        00000 
 8.16485e-01  5.20094e+00        00000 
 4.69117e-01  5.15878e+00        00000 
 2.00027e-01  5.10233e+00        00000 
-9.45167e-02  5.05293e+00        00000 
-3.74379e-01  5.01650e+00        00000 
-6.39651e-01  4.97918e+00        00000 
-9.08646e-01  4.93882e+00        00000 
-1.22321e+00  4.89259e+00        00000 
-1.63180e+00  4.85511e+00        00000 
-2.08161e+00  4.79654e+00        00000 
-2.49319e+00  4.74251e+00        00000 
-2.96857e+00  4.68633e+00        00000 
-3.50541e+00  4.64326e+00        00000 
-4.09900e+00  4.58993e+00        00000 
-4.74159e+00  4.54008e+00        00000 
-5.36899e+00  4.48832e+00        00000 
 2.74226e+00  1.19967e+01        00000 
 2.46698e+00  1.21521e+01        00000 
 2.20455e+00  1.22877e+01        00000 
 1.97178e+00  1.24135e+01        00000 
 1.75810e+00  1.25375e+01        00000 
 1.59924e+00  1.26504e+01        00000 
 1.43450e+00  1.27534e+01        00000 
 1.27953e+00  1.28549e+01        00000 
 1.13397e+00  1.29509e+01        00000 
 1.00592e+00  1.30307e+01        00000 
 9.16914e-01  1.31099e+01        00000 
 8.52286e-01  1.31862e+01        00000 
 8.11747e-01  1.32614e+01        00000 
 8.23588e-01  1.33308e+01        00000 
 7.93430e-01  1.33892e+01        00000 
 7.16639e-01  1.34471e+01        00000 
 5.87552e-01  1.34773e+01        00000 
 4.34120e-01  1.35104e+01        00000 
 2.84804e-01  1.35367e+01        00000 
 1.21784e-01  1.35456e+01        00000 
-4.90545e-02  1.35342e+01        00000 
-2.28444e-01  1.35204e+01        00000 
-3.91299e-01  1.34917e+01        00000 
-5.22337e-01  1.34586e+01        00000 
-6.95756e-01  1.33953e+01        00000 
-8.45256e-01  1.33298e+01        00000 
-1.00053e+00  1.32505e+01        00000 
-1.16640e+00  1.31504e+01        00000 
-1.37530e+00  1.30253e+01        00000 
-1.67548e+00  1.28709e+01        00000 
-3.51876e+00  1.38438e+01        00000 
-3.30415e+00  1.40198e+01        00000 
-3.05270e+00  1.41786e+01        00000 
-2.80117e+00  1.43240e+01        00000 
-2.55899e+00  1.44239e+01        00000 
-2.35652e+00  1.44996e+01        00000 
-2.14068e+00  1.45716e+01        00000 
-1.87113e+00  1.46193e+01        00000 
-1.65246e+00  1.46578e+01        00000 
-1.44360e+00  1.46917e+01        00000 
-1.21770e+00  1.47140e+01        00000 
-9.70911e-01  1.47554e+01        00000 
-7.39031e-01  1.47907e+01        00000 
-5.01042e-01  1.48355e+01        00000 
-2.54969e-01  1.48865e+01        00000 
 5.01992e-02  1.49287e+01        00000 
 3.56299e-01  1.49603e+01        00000 
 6.89376e-01  1.49697e+01        00000 
 9.76338e-01  1.49848e+01        00000 
 1.29894e+00  1.49820e+01        00000 
 1.57270e+00  1.49737e+01        00000 
 1.82044e+00  1.49509e+01        00000 
 2.06506e+00  1.49124e+01        00000 
 2.31417e+00  1.48532e+01        00000 
 2.52832e+00  1.47764e+01        00000 
 2.76363e+00  1.46813e+01        00000 
 3.00016e+00  1.45580e+01        00000 
 3.25328e+00  1.44204e+01        00000 
 3.47113e+00  1.42658e+01        00000 
 3.69703e+00  1.41122e+01        00000 
-9.50427e+00  5.63934e+00        00000 
-8.74993e+00  5.77542e+00        00000 
-8.03943e+00  5.89645e+00        00000 
-7.34769e+00  6.02700e+00        00000 
-6.65939e+00  6.13641e+00        00000 
-5.97194e+00  6.23393e+00        00000 
-5.28223e+00  6.29939e+00        00000 
-4.62136e+00  6.35268e+00        00000 
-3.92567e+00  6.39339e+00        00000 
-3.28146e+00  6.44825e+00        00000 
-2.69892e+00  6.45730e+00        00000 
-2.15405e+00  6.46682e+00        00000 
-1.62570e+00  6.44945e+00        00000 
-1.09865e+00  6.42082e+00        00000 
-5.24316e-01  6.36753e+00        00000 
 5.77471e-02  6.30820e+00        00000 
 6.48506e-01  6.25723e+00        00000 
 1.25743e+00  6.21934e+00        00000 
 1.87593e+00  6.18161e+00        00000 
 2.49814e+00  6.16601e+00        00000 
 3.14592e+00  6.13884e+00        00000 
 3.81712e+00  6.09531e+00        00000 
 4.50004e+00  6.05744e+00        00000 
 5.18852e+00  6.00477e+00        00000 
 5.91944e+00  5.93590e+00        00000 
 6.64969e+00  5.85715e+00        00000 
 7.36064e+00  5.79680e+00        00000 
 8.08650e+00  5.70511e+00        00000 
 8.85427e+00  5.60146e+00        00000 
 9.66332e+00  5.47426e+00        00000 
-1.20028e+01 -9.46412e+00        00000 
-1.09855e+01 -9.44753e+00        00000 
-9.98098e+00 -9.44468e+00        00000 
-9.06440e+00 -9.45547e+00        00000 
-8.16655e+00 -9.46625e+00        00000 
-7.31551e+00 -9.48283e+00        00000 
-6.51724e+00 -9.49504e+00        00000 
-5.68921e+00 -9.50996e+00        00000 
-4.88146e+00 -9.51500e+00        00000 
-4.07201e+00 -9.49877e+00        00000 
-3.25623e+00 -9.46487e+00        00000 
-2.43074e+00 -9.44578e+00        00000 
-1.61250e+00 -9.41804e+00        00000 
-8.33852e-01 -9.39278e+00        00000 
-1.22793e-01 -9.37562e+00        00000 
 5.29573e-01 -9.37875e+00        00000 
 1.17382e+00 -9.38437e+00        00000 
 1.86272e+00 -9.40750e+00        00000 
 2.57524e+00 -9.43871e+00        00000 
 3.29131e+00 -9.46502e+00        00000 
 4.01948e+00 -9.46494e+00        00000 
 4.73811e+00 -9.47821e+00        00000 
 5.51439e+00 -9.47358e+00        00000 
 6.34018e+00 -9.46315e+00        00000 
 7.17557e+00 -9.45033e+00        00000 
 8.02544e+00 -9.43295e+00        00000 
 8.93250e+00 -9.42277e+00        00000 
 9.88527e+00 -9.40656e+00        00000 
 1.09329e+01 -9.39144e+00        00000 
 1.20049e+01 -9.37577e+00        00000 
-9.91629e+00 -2.49650e+01        00000 
-9.05812e+00 -2.50984e+01        00000 
-8.23678e+00 -2.52349e+01        00000 
-7.40328e+00 -2.53349e+01        00000 
-6.60057e+00 -2.54412e+01        00000 
-5.88603e+00 -2.55307e+01        00000 
-5.25538e+00 -2.56191e+01        00000 
-4.66437e+00 -2.56992e+01        00000 
-4.11299e+00 -2.57756e+01        00000 
-3.52801e+00 -2.58368e+01        00000 
-2.97123e+00 -2.58866e+01        00000 
-2.41425e+00 -2.59251e+01        00000 
-1.83284e+00 -2.59342e+01        00000 
-1.26501e+00 -2.59347e+01        00000 
-6.96186e-01 -2.59059e+01        00000 
-1.02840e-01 -2.58656e+01        00000 
 4.90336e-01 -2.57962e+01        00000 
 1.01634e+00 -2.57153e+01        00000 
 1.51616e+00 -2.56349e+01        00000 
 2.04458e+00 -2.55589e+01        00000 
 2.61828e+00 -2.54687e+01        00000 
 3.23756e+00 -2.53766e+01        00000 
 3.82432e+00 -2.52977e+01        00000 
 4.39321e+00 -2.52150e+01        00000 
 5.00216e+00 -2.51320e+01        00000 
 5.68329e+00 -2.50598e+01        00000 
 6.36711e+00 -2.49450e+01        00000 
 7.08936e+00 -2.48357e+01        00000 
 7.76976e+00 -2.47108e+01        00000 
 8.58141e+00 -2.45739e+01        00000 
-3.31611e+00 -3.37881e+01        00000 
-3.00348e+00 -3.40293e+01        00000 
-2.74893e+00 -3.42399e+01        00000 
-2.52445e+00 -3.44644e+01        00000 
-2.30575e+00 -3.46696e+01        00000 
-2.05045e+00 -3.48502e+01        00000 
-1.82304e+00 -3.50093e+01        00000 
-1.59244e+00 -3.51600e+01        00000 
-1.41439e+00 -3.52938e+01        00000 
-1.31924e+00 -3.53900e+01        00000 
-1.24552e+00 -3.54942e+01        00000 
-1.20367e+00 -3.55588e+01        00000 
-1.16335e+00 -3.56151e+01        00000 
-1.07800e+00 -3.56441e+01        00000 
-1.00397e+00 -3.56669e+01        00000 
-9.32290e-01 -3.56738e+01        00000 
-8.67300e-01 -3.56503e+01        00000 
-7.52442e-01 -3.56227e+01        00000 
-5.76250e-01 -3.55835e+01        00000 
-4.21391e-01 -3.55063e+01        00000 
-2.60330e-01 -3.53864e+01        00000 
-6.13007e-02 -3.52814e+01        00000 
 1.77005e-01 -3.51386e+01        00000 
 4.77517e-01 -3.49955e+01        00000 
 7.82701e-01 -3.48254e+01        00000 
 1.07694e+00 -3.46449e+01        00000 
 1.39527e+00 -3.44534e+01        00000 
 1.73157e+00 -3.42430e+01        00000 
 2.07771e+00 -3.40415e+01        00000 
 2.40338e+00 -3.38168e+01        00000 
 6.28896e+00 -3.33990e+01        00000 
 5.97700e+00 -3.37041e+01        00000 
 5.62039e+00 -3.39792e+01        00000 
 5.16555e+00 -3.42297e+01        00000 
 4.68309e+00 -3.44580e+01        00000 
 4.15486e+00 -3.46577e+01        00000 
 3.65350e+00 -3.48258e+01        00000 
 3.11831e+00 -3.49626e+01        00000 
 2.57342e+00 -3.50898e+01        00000 
 2.05078e+00 -3.52119e+01        00000 
 1.51429e+00 -3.53154e+01        00000 
 1.00913e+00 -3.54241e+01        00000 
 5.00760e-01 -3.55078e+01        00000 
-4.11440e-02 -3.55871e+01        00000 
-6.21703e-01 -3.56532e+01        00000 
-1.16803e+00 -3.56952e+01        00000 
-1.66790e+00 -3.57402e+01        00000 
-2.17211e+00 -3.57721e+01        00000 
-2.74260e+00 -3.57725e+01        00000 
-3.26377e+00 -3.57864e+01        00000 
-3.70108e+00 -3.57769e+01        00000 
-4.08866e+00 -3.57233e+01        00000 
-4.46317e+00 -3.56458e+01        00000 
-4.87009e+00 -3.55412e+01        00000 
-5.21234e+00 -3.54168e+01        00000 
-5.53379e+00 -3.52756e+01        00000 
-5.86525e+00 -3.50964e+01        00000 
-6.21583e+00 -3.48936e+01        00000 
-6.50519e+00 -3.46553e+01        00000 
-6.80205e+00 -3.43822e+01        00000 
 1.64816e+01 -2.37721e+01        00000 
 1.53329e+01 -2.40512e+01        00000 
 1.42126e+01 -2.43051e+01        00000 
 1.30941e+01 -2.45319e+01        00000 
 1.19919e+01 -2.47567e+01        00000 
 1.08268e+01 -2.49524e+01        00000 
 9.65132e+00 -2.51553e+01        00000 
 8.45113e+00 -2.53089e+01        00000 
 7.31198e+00 -2.54414e+01        00000 
 6.23922e+00 -2.55364e+01        00000 
 5.14757e+00 -2.56048e+01        00000 
 4.05718e+00 -2.56486e+01        00000 
 2.96321e+00 -2.56918e+01        00000 
 1.85177e+00 -2.57136e+01        00000 
 7.85414e-01 -2.57351e+01        00000 
-2.75990e-01 -2.57535e+01        00000 
-1.37874e+00 -2.57638e+01        00000 
-2.49414e+00 -2.57612e+01        00000 
-3.62046e+00 -2.57471e+01        00000 
-4.73271e+00 -2.57099e+01        00000 
-5.85761e+00 -2.56491e+01        00000 
-7.05186e+00 -2.55655e+01        00000 
-8.24244e+00 -2.54793e+01        00000 
-9.40452e+00 -2.53803e+01        00000 
-1.05379e+01 -2.52411e+01        00000 
-1.16519e+01 -2.50739e+01        00000 
-1.27745e+01 -2.48560e+01        00000 
-1.38953e+01 -2.46311e+01        00000 
-1.50477e+01 -2.43976e+01        00000 
-1.61825e+01 -2.41485e+01        00000 
 2.59378e+01 -8.04873e-01        00000 
 2.41070e+01 -1.03919e+00        00000 
 2.22765e+01 -1.26288e+00        00000 
 2.05116e+01 -1.47319e+00        00000 
 1.87490e+01 -1.64465e+00        00000 
 1.70464e+01 -1.80674e+00        00000 
 1.53804e+01 -1.94178e+00        00000 
 1.37054e+01 -2.06274e+00        00000 
 1.19619e+01 -2.18389e+00        00000 
 1.01971e+01 -2.27080e+00        00000 
 8.48686e+00 -2.37374e+00        00000 
 6.77824e+00 -2.44275e+00        00000 
 5.11283e+00 -2.49719e+00        00000 
 3.45422e+00 -2.50914e+00        00000 
 1.78486e+00 -2.51482e+00        00000 
 1.45197e-01 -2.48095e+00        00000 
-1.51275e+00 -2.42555e+00        00000 
-3.20244e+00 -2.36559e+00        00000 
-4.85708e+00 -2.29371e+00        00000 
-6.49920e+00 -2.24166e+00        00000 
-8.16983e+00 -2.16474e+00        00000 
-9.76117e+00 -2.08033e+00        00000 
-1.13984e+01 -1.96728e+00        00000 
-1.30976e+01 -1.84215e+00        00000 
-1.48660e+01 -1.71291e+00        00000 
-1.66292e+01 -1.58686e+00        00000 
-1.83938e+01 -1.44713e+00        00000 
-2.01206e+01 -1.29386e+00        00000 
-2.19101e+01 -1.12783e+00        00000 
-2.38021e+01 -9.35458e-01        00000 
 3.08651e+01  3.08746e+01        00000 
 2.86915e+01  3.08273e+01        00000 
 2.64970e+01  3.07621e+01        00000 
 2.43597e+01  3.06986e+01        00000 
 2.22397e+01  3.06228e+01        00000 
 2.01337e+01  3.05569e+01        00000 
 1.80389e+01  3.04914e+01        00000 
 1.59617e+01  3.04399e+01        00000 
 1.39694e+01  3.03865e+01        00000 
 1.20042e+01  3.03458e+01        00000 
 9.98351e+00  3.03113e+01        00000 
 7.91271e+00  3.02919e+01        00000 
 5.83244e+00  3.02770e+01        00000 
 3.76572e+00  3.02738e+01        00000 
 1.69517e+00  3.02596e+01        00000 
-3.41182e-01  3.02534e+01        00000 
-2.30435e+00  3.02407e+01        00000 
-4.27450e+00  3.02310e+01        00000 
-6.23017e+00  3.02420e+01        00000 
-8.18753e+00  3.02560e+01        00000 
-1.01862e+01  3.02798e+01        00000 
-1.21492e+01  3.03138e+01        00000 
-1.41621e+01  3.03624e+01        00000 
-1.61531e+01  3.04238e+01        00000 
-1.80811e+01  3.04802e+01        00000 
-2.00283e+01  3.05522e+01        00000 
-2.20790e+01  3.06268e+01        00000 
-2.42114e+01  3.06980e+01        00000 
-2.63750e+01  3.07738e+01        00000 
-2.85724e+01  3.08606e+01        00000 
 2.96776e+01  6.34632e+01        00000 
 2.75551e+01  6.35693e+01        00000 
 2.54811e+01  6.36895e+01        00000 
 2.34101e+01  6.37967e+01        00000 
 2.13959e+01  6.38839e+01        00000 
 1.93113e+01  6.39622e+01        00000 
 1.72405e+01  6.40391e+01        00000 
 1.52074e+01  6.41123e+01        00000 
 1.31623e+01  6.41830e+01        00000 
 1.10830e+01  6.42587e+01        00000 
 9.07032e+00  6.43177e+01        00000 
 7.10648e+00  6.43587e+01        00000 
 5.14144e+00  6.43787e+01        00000 
 3.20893e+00  6.43859e+01        00000 
 1.27640e+00  6.44087e+01        00000 
-7.02731e-01  6.44180e+01        00000 
-2.63754e+00  6.44292e+01        00000 
-4.60163e+00  6.44349e+01        00000 
-6.58009e+00  6.44342e+01        00000 
-8.57460e+00  6.44289e+01        00000 
-1.05577e+01  6.44178e+01        00000 
-1.25728e+01  6.44129e+01        00000 
-1.45690e+01  6.44153e+01        00000 
-1.66018e+01  6.43879e+01        00000 
-1.86941e+01  6.43717e+01        00000 
-2.08613e+01  6.43436e+01        00000 
-2.30344e+01  6.43338e+01        00000 
-2.52264e+01  6.43277e+01        00000 
-2.74235e+01  6.43206e+01        00000 
-2.96223e+01  6.43203e+01        00000 
 2.48416e+01  9.53542e+01        00000 
 2.28948e+01  9.55450e+01        00000 
 2.09583e+01  9.57386e+01        00000 
 1.90968e+01  9.59168e+01        00000 
 1.72842e+01  9.60900e+01        00000 
 1.55148e+01  9.62711e+01        00000 
 1.37904e+01  9.64343e+01        00000 
 1.20363e+01  9.65831e+01        00000 
 1.03319e+01  9.67222e+01        00000 
 8.65988e+00  9.68632e+01        00000 
 6.98824e+00  9.69771e+01        00000 
 5.34502e+00  9.71041e+01        00000 
 3.72325e+00  9.72271e+01        00000 
 2.04895e+00  9.73324e+01        00000 
 4.02162e-01  9.74244e+01        00000 
-1.28327e+00  9.74906e+01        00000 
-3.00108e+00  9.75334e+01        00000 