<?xml version="1.0" encoding="utf-8"?>
<VTKFile byte_order="LittleEndian" type="UnstructuredGrid" version="0.1">
   <UnstructuredGrid>
      <Piece NumberOfCells="3072" NumberOfPoints="729">
         <Points>
            <DataArray Name="Points" NumberOfComponents="3" format="ascii" type="Float32">
0.0000 0.0000 0.0000
0.0000 1.0000 0.0000
1.0000 0.0000 0.0000
1.0000 1.0000 0.0000
0.0000 0.0000 1.0000
0.0000 1.0000 1.0000
1.0000 0.0000 1.0000
1.0000 1.0000 1.0000
0.0000 1.0000 0.5000
0.5000 1.0000 0.0000
0.5000 1.0000 0.5000
0.0000 0.5000 0.5000
0.0000 0.5000 0.0000
0.5000 0.5000 0.0000
0.0000 0.5000 1.0000
0.5000 0.5000 0.5000
0.0000 0.0000 0.5000
0.5000 0.0000 0.5000
0.5000 0.0000 1.0000
1.0000 0.0000 0.5000
1.0000 0.5000 0.5000
0.5000 0.5000 1.0000
1.0000 0.5000 1.0000
0.5000 1.0000 1.0000
1.0000 1.0000 0.5000
1.0000 0.5000 0.0000
0.5000 0.0000 0.0000
0.7500 0.2500 0.5000
0.5000 0.5000 0.7500
0.7500 0.2500 0.7500
1.0000 0.2500 0.5000
0.7500 0.5000 0.5000
0.7500 0.5000 0.7500
0.2500 0.0000 0.7500
0.2500 0.0000 0.5000
0.0000 0.0000 0.7500
0.0000 0.2500 0.7500
0.2500 0.2500 0.5000
0.0000 0.2500 0.5000
0.5000 0.0000 0.2500
0.2500 0.0000 0.2500
0.2500 0.2500 0.2500
0.0000 0.5000 0.7500
0.2500 0.2500 0.7500
0.2500 0.5000 0.5000
0.2500 0.5000 0.7500
0.5000 0.2500 0.5000
0.5000 0.7500 0.5000
0.7500 0.7500 0.5000
1.0000 0.5000 0.2500
0.7500 0.5000 0.2500
0.7500 0.7500 0.2500
0.0000 0.5000 0.2500
0.2500 0.2500 0.0000
0.0000 0.2500 0.2500
0.5000 0.2500 0.7500
0.2500 0.2500 1.0000
0.5000 0.0000 0.7500
0.5000 0.7500 0.7500
0.7500 0.2500 1.0000
1.0000 0.0000 0.7500
1.0000 0.2500 0.7500
0.0000 0.0000 0.2500
0.2500 0.0000 0.0000
0.0000 0.2500 0.0000
0.0000 0.2500 1.0000
0.2500 0.0000 1.0000
0.5000 0.2500 0.2500
0.2500 0.5000 0.2500
0.5000 0.5000 0.2500
0.2500 0.7500 1.0000
0.2500 0.5000 1.0000
0.0000 0.7500 1.0000
0.2500 0.7500 0.7500
0.2500 1.0000 0.2500
0.2500 0.7500 0.5000
0.5000 0.7500 0.2500
0.5000 1.0000 0.2500
0.2500 1.0000 0.5000
1.0000 1.0000 0.7500
1.0000 0.7500 0.7500
1.0000 0.7500 1.0000
0.7500 1.0000 1.0000
0.7500 1.0000 0.7500
0.7500 0.7500 1.0000
0.0000 0.7500 0.7500
0.0000 1.0000 0.7500
0.0000 0.7500 0.5000
0.0000 0.7500 0.2500
0.0000 1.0000 0.2500
0.2500 0.7500 0.2500
0.2500 0.7500 0.0000
0.5000 0.2500 0.0000
0.5000 1.0000 0.7500
0.7500 1.0000 0.5000
0.7500 0.7500 0.7500
1.0000 0.7500 0.5000
0.7500 0.5000 1.0000
1.0000 0.2500 1.0000
1.0000 0.5000 0.7500
0.2500 1.0000 0.7500
1.0000 0.0000 0.2500
0.7500 0.2500 0.2500
1.0000 0.2500 0.2500
1.0000 0.2500 0.0000
0.2500 1.0000 1.0000
0.5000 0.7500 1.0000
0.2500 0.5000 0.0000
0.7500 0.0000 0.5000
0.7500 0.0000 0.2500
0.7500 1.0000 0.2500
1.0000 1.0000 0.2500
1.0000 0.7500 0.2500
0.7500 0.7500 0.0000
0.7500 0.5000 0.0000
0.5000 0.7500 0.0000
0.5000 0.2500 1.0000
0.7500 0.2500 0.0000
0.7500 0.0000 0.0000
0.0000 0.7500 0.0000
0.7500 0.0000 1.0000
0.7500 0.0000 0.7500
1.0000 0.7500 0.0000
0.7500 1.0000 0.0000
0.2500 1.0000 0.0000
0.1250 0.5000 0.8750
0.1250 0.5000 1.0000
0.2500 0.5000 0.8750
0.1250 0.6250 0.8750
0.0000 0.6250 1.0000
0.1250 0.6250 1.0000
0.6250 1.0000 0.3750
0.6250 0.8750 0.5000
0.7500 0.8750 0.3750
0.7500 1.0000 0.3750
0.6250 1.0000 0.5000
0.7500 0.8750 0.5000
0.2500 0.7500 0.8750
0.2500 0.6250 0.8750
0.2500 0.6250 1.0000
0.1250 0.7500 1.0000
0.1250 0.7500 0.8750
0.2500 0.1250 0.1250
0.2500 0.1250 0.0000
0.2500 0.0000 0.1250
0.1250 0.1250 0.2500
0.1250 0.2500 0.1250
0.1250 0.1250 0.1250
0.1250 0.1250 0.8750
0.1250 0.1250 0.7500
0.0000 0.2500 0.8750
0.1250 0.2500 0.8750
0.2500 0.1250 0.7500
0.1250 0.2500 0.7500
0.6250 0.3750 0.2500
0.5000 0.3750 0.3750
0.6250 0.2500 0.3750
0.6250 0.3750 0.3750
0.5000 0.5000 0.3750
0.5000 0.3750 0.5000
0.2500 0.6250 0.2500
0.3750 0.6250 0.1250
0.3750 0.5000 0.1250
0.2500 0.6250 0.1250
0.2500 0.7500 0.1250
0.3750 0.6250 0.0000
0.1250 0.2500 0.0000
0.1250 0.1250 0.0000
0.0000 0.2500 0.1250
0.7500 0.3750 0.2500
0.7500 0.3750 0.1250
0.7500 0.5000 0.1250
0.8750 0.3750 0.1250
0.8750 0.2500 0.1250
0.8750 0.3750 0.0000
0.5000 0.6250 0.0000
0.3750 0.7500 0.1250
0.3750 0.6250 0.2500
0.5000 0.5000 0.1250
0.5000 0.6250 0.1250
0.2500 0.1250 0.2500
0.2500 0.2500 0.1250
0.1250 0.2500 0.2500
0.6250 0.6250 0.2500
0.5000 0.6250 0.2500
0.6250 0.5000 0.2500
0.6250 0.5000 0.3750
0.5000 0.6250 0.3750
0.2500 0.0000 0.8750
0.1250 0.1250 1.0000
0.1250 0.0000 0.8750
0.1250 0.0000 1.0000
0.0000 0.1250 1.0000
0.1250 0.6250 0.1250
0.1250 0.6250 0.0000
0.0000 0.7500 0.1250
0.1250 0.7500 0.1250
0.2500 0.6250 0.0000
0.1250 0.7500 0.0000
0.5000 0.0000 0.1250
0.3750 0.0000 0.1250
0.3750 0.0000 0.2500
0.3750 0.1250 0.2500
0.3750 0.1250 0.1250
0.0000 0.1250 0.8750
0.1250 0.2500 0.6250
0.1250 0.3750 0.5000
0.0000 0.3750 0.6250
0.0000 0.3750 0.7500
0.1250 0.3750 0.6250
0.0000 0.5000 0.6250
0.0000 0.1250 0.7500
0.1250 0.0000 0.6250
0.1250 0.1250 0.6250
0.1250 0.0000 0.7500
0.2500 0.0000 0.6250
0.2500 0.6250 0.3750
0.1250 0.7500 0.3750
0.1250 0.6250 0.5000
0.2500 0.6250 0.5000
0.2500 0.7500 0.3750
0.1250 0.7500 0.5000
0.3750 0.0000 0.5000
0.2500 0.1250 0.5000
0.3750 0.1250 0.5000
0.5000 0.0000 0.3750
0.3750 0.0000 0.3750
0.3750 0.1250 0.3750
0.2500 0.5000 0.3750
0.3750 0.5000 0.2500
0.3750 0.5000 0.3750
0.2500 0.2500 0.3750
0.2500 0.3750 0.3750
0.2500 0.3750 0.2500
0.1250 0.3750 0.3750
0.1250 0.5000 0.3750
0.2500 0.3750 0.5000
0.1250 0.5000 0.5000
0.5000 1.0000 0.1250
0.5000 0.8750 0.2500
0.5000 0.8750 0.1250
0.6250 0.8750 0.0000
0.6250 0.8750 0.1250
0.6250 0.7500 0.1250
0.3750 1.0000 0.8750
0.3750 0.8750 1.0000
0.5000 0.8750 0.8750
0.5000 1.0000 0.8750
0.3750 1.0000 1.0000
0.5000 0.8750 1.0000
0.2500 1.0000 0.6250
0.2500 0.8750 0.7500
0.2500 0.8750 0.6250
0.3750 0.8750 0.5000
0.3750 0.8750 0.6250
0.3750 0.7500 0.6250
0.0000 0.1250 0.1250
0.0000 0.0000 0.1250
0.0000 0.1250 0.0000
0.1250 0.0000 0.1250
0.1250 0.0000 0.0000
0.3750 0.8750 0.2500
0.5000 0.7500 0.1250
0.3750 0.8750 0.1250
0.3750 1.0000 0.1250
0.5000 0.8750 0.0000
0.8750 0.6250 0.2500
1.0000 0.5000 0.1250
0.8750 0.6250 0.1250
0.8750 0.7500 0.1250
1.0000 0.6250 0.1250
1.0000 0.6250 0.0000
0.7500 0.8750 0.7500
0.8750 0.8750 0.7500
0.8750 0.7500 0.7500
0.8750 0.7500 0.6250
0.8750 0.8750 0.6250
1.0000 0.7500 0.6250
0.6250 0.5000 0.1250
0.2500 0.8750 0.1250
0.1250 0.8750 0.2500
0.1250 1.0000 0.1250
0.2500 0.8750 0.0000
0.1250 0.8750 0.1250
0.8750 0.1250 0.6250
0.8750 0.2500 0.6250
1.0000 0.1250 0.5000
0.8750 0.1250 0.5000
0.7500 0.2500 0.6250
0.8750 0.2500 0.5000
0.6250 0.0000 0.1250
0.5000 0.1250 0.2500
0.6250 0.1250 0.1250
0.6250 0.1250 0.0000
0.5000 0.1250 0.1250
0.5000 0.2500 0.1250
0.1250 0.0000 0.3750
0.0000 0.1250 0.3750
0.0000 0.1250 0.5000
0.1250 0.1250 0.3750
0.0000 0.2500 0.3750
0.3750 0.1250 0.0000
0.3750 0.0000 0.0000
0.3750 0.6250 0.3750
0.3750 0.6250 0.5000
0.3750 0.5000 0.5000
0.1250 0.3750 1.0000
0.2500 0.3750 1.0000
0.2500 0.3750 0.8750
0.2500 0.2500 0.8750
0.1250 0.3750 0.8750
0.2500 0.3750 0.7500
0.2500 0.8750 0.2500
0.2500 1.0000 0.1250
0.1250 1.0000 0.2500
0.3750 0.3750 0.5000
0.3750 0.3750 0.3750
0.5000 0.3750 0.2500
0.5000 0.2500 0.3750
0.8750 0.1250 0.3750
1.0000 0.0000 0.3750
1.0000 0.1250 0.2500
0.8750 0.2500 0.3750
1.0000 0.1250 0.3750
0.8750 0.1250 0.2500
0.7500 0.2500 0.3750
0.8750 0.2500 0.2500
0.1250 0.3750 0.7500
0.0000 0.5000 0.8750
0.1250 0.5000 0.7500
0.1250 0.8750 0.3750
0.1250 0.8750 0.5000
0.2500 0.8750 0.3750
0.1250 1.0000 0.3750
0.0000 0.1250 0.6250
0.0000 0.2500 0.6250
0.1250 0.1250 0.5000
0.1250 0.0000 0.2500
0.0000 0.1250 0.2500
0.0000 0.0000 0.3750
0.6250 0.7500 1.0000
0.7500 0.6250 1.0000
0.6250 0.6250 1.0000
0.6250 0.7500 0.8750
0.7500 0.7500 0.8750
0.7500 0.6250 0.8750
0.3750 0.7500 0.3750
0.2500 0.8750 0.5000
0.3750 0.8750 0.3750
0.2500 1.0000 0.3750
0.2500 0.0000 0.3750
0.2500 0.1250 0.3750
0.0000 0.3750 0.8750
0.8750 0.3750 0.5000
0.7500 0.3750 0.6250
0.7500 0.3750 0.5000
0.6250 0.7500 0.0000
0.0000 0.3750 1.0000
0.1250 0.6250 0.7500
0.0000 0.6250 0.8750
0.0000 0.7500 0.8750
0.1250 0.6250 0.2500
0.1250 0.7500 0.2500
0.3750 0.7500 0.5000
0.5000 0.7500 0.3750
0.5000 0.6250 0.5000
1.0000 0.2500 0.3750
0.3750 0.3750 0.2500
0.1250 0.2500 0.3750
0.1250 0.2500 0.5000
0.5000 0.7500 0.8750
0.5000 0.6250 0.8750
0.5000 0.6250 1.0000
0.3750 0.7500 1.0000
0.3750 0.7500 0.8750
0.3750 0.6250 1.0000
0.0000 0.3750 0.5000
0.1250 0.6250 0.3750
0.0000 0.6250 0.3750
0.0000 0.7500 0.3750
0.0000 0.6250 0.5000
0.6250 1.0000 0.7500
0.6250 1.0000 0.8750
0.6250 0.8750 0.8750
0.6250 0.8750 0.7500
0.1250 0.5000 0.6250
0.2500 0.3750 0.6250
0.2500 0.5000 0.6250
0.3750 0.0000 0.6250
0.2500 0.1250 0.6250
0.6250 0.8750 1.0000
0.7500 0.8750 0.8750
0.3750 0.3750 0.8750
0.3750 0.5000 0.8750
0.5000 0.3750 0.7500
0.3750 0.3750 0.7500
0.3750 0.5000 0.7500
0.1250 0.2500 1.0000
0.8750 0.6250 0.5000
1.0000 0.6250 0.3750
0.8750 0.7500 0.3750
0.8750 0.7500 0.5000
1.0000 0.6250 0.5000
1.0000 0.7500 0.3750
0.7500 0.8750 0.1250
0.6250 1.0000 0.1250
0.6250 0.8750 0.2500
0.7500 0.8750 0.2500
0.7500 1.0000 0.1250
0.6250 1.0000 0.2500
0.3750 0.2500 0.8750
0.3750 0.2500 0.7500
0.1250 0.8750 0.8750
0.1250 0.8750 0.7500
0.0000 1.0000 0.8750
0.1250 1.0000 0.8750
0.1250 1.0000 0.7500
0.3750 0.2500 0.1250
0.5000 0.1250 0.0000
0.0000 0.0000 0.8750
0.5000 0.0000 0.8750
0.3750 0.0000 0.8750
0.3750 0.0000 1.0000
0.3750 0.1250 1.0000
0.3750 0.1250 0.8750
0.2500 0.1250 1.0000
0.5000 0.1250 0.8750
0.5000 0.1250 0.7500
0.8750 0.5000 0.0000
0.8750 0.5000 0.1250
1.0000 0.3750 0.0000
0.0000 1.0000 0.1250
0.1250 1.0000 0.0000
0.1250 0.8750 0.0000
0.6250 0.7500 0.3750
0.7500 0.6250 0.3750
0.6250 0.6250 0.5000
0.6250 0.6250 0.3750
0.7500 0.6250 0.2500
0.7500 0.5000 0.3750
0.5000 0.6250 0.7500
0.5000 0.5000 0.8750
0.3750 0.6250 0.8750
0.1250 0.0000 0.5000
0.0000 0.0000 0.6250
0.7500 0.7500 0.3750
0.6250 0.7500 0.5000
0.7500 0.6250 0.5000
0.2500 0.6250 0.7500
0.3750 0.6250 0.7500
0.6250 0.5000 0.6250
0.5000 0.5000 0.6250
0.6250 0.5000 0.5000
0.6250 0.3750 0.6250
0.6250 0.3750 0.5000
0.2500 0.1250 0.8750
0.0000 0.8750 0.0000
0.0000 0.8750 0.1250
0.2500 0.7500 0.6250
0.2500 0.6250 0.6250
0.3750 0.6250 0.6250
[...]
         <PointData>
            <DataArray Name="fValues" NumberOfComponents="3" format="ascii" type="Float64">
         NaN          NaN          NaN 
         NaN          NaN          NaN 
         NaN          NaN          NaN 
         NaN          NaN          NaN 
         NaN          NaN          NaN 
         NaN          NaN          NaN 
         NaN          NaN          NaN 
         NaN          NaN          NaN 
         NaN          NaN          NaN 
         NaN          NaN          NaN 
         NaN          NaN          NaN 
         NaN          NaN          NaN 
         NaN          NaN          NaN 
         NaN          NaN          NaN 
         NaN          NaN          NaN 
         NaN          NaN          NaN 
         NaN          NaN          NaN 
         NaN          NaN          NaN 
         NaN          NaN          NaN 
         NaN          NaN          NaN 
         NaN          NaN          NaN 
         NaN          NaN          NaN 
         NaN          NaN          NaN 
         NaN          NaN          NaN 
         NaN          NaN          NaN 
         NaN          NaN          NaN 
         NaN          NaN          NaN 
         NaN          NaN          NaN 
         NaN          NaN          NaN 
         NaN          NaN          NaN 
         NaN          NaN          NaN 
         NaN          NaN          NaN 
         NaN          NaN          NaN 
         NaN          NaN          NaN 
         NaN          NaN          NaN 
         NaN          NaN          NaN 
         NaN          NaN          NaN 
         NaN          NaN          NaN 
         NaN          NaN          NaN 
         NaN          NaN          NaN 
         NaN          NaN          NaN 
         NaN          NaN          NaN 
         NaN          NaN          NaN 
         NaN          NaN          NaN 
         NaN          NaN          NaN 
         NaN          NaN          NaN 
         NaN          NaN          NaN 
         NaN          NaN          NaN 
         NaN          NaN          NaN 
         NaN          NaN          NaN 
         NaN          NaN          NaN 
         NaN          NaN          NaN 
         NaN          NaN          NaN 
         NaN          NaN          NaN 
         NaN          NaN          NaN 
         NaN          NaN          NaN 
         NaN          NaN          NaN 
         NaN          NaN          NaN 
         NaN          NaN          NaN 
         NaN          NaN          NaN 
         NaN          NaN          NaN 
         NaN          NaN          NaN 
         NaN          NaN          NaN 
         NaN          NaN          NaN 
         NaN          NaN          NaN 
         NaN          NaN          NaN 
         NaN          NaN          NaN 
         NaN          NaN          NaN 
         NaN          NaN          NaN 
         NaN          NaN          NaN 
         NaN          NaN          NaN 
         NaN          NaN          NaN 
         NaN          NaN          NaN 
         NaN          NaN          NaN 
         NaN          NaN          NaN 
         NaN          NaN          NaN 
         NaN          NaN          NaN 
         NaN          NaN          NaN 
         NaN          NaN          NaN 
         NaN          NaN          NaN 
         NaN          NaN          NaN 
         NaN          NaN          NaN 
         NaN          NaN          NaN 
         NaN          NaN          NaN 
         NaN          NaN          NaN 
         NaN          NaN          NaN 
         NaN          NaN          NaN 
         NaN          NaN          NaN 
         NaN          NaN          NaN 
         NaN          NaN          NaN 
         NaN          NaN          NaN 
         NaN          NaN          NaN 
         NaN          NaN          NaN 
         NaN          NaN          NaN 
         NaN          NaN          NaN 
         NaN          NaN          NaN 
         NaN          NaN          NaN 
         NaN          NaN          NaN 
         NaN          NaN          NaN 
         NaN          NaN          NaN 
         NaN          NaN          NaN 
         NaN          NaN          NaN 
         NaN          NaN          NaN 
         NaN          NaN          NaN 
         NaN          NaN          NaN 
         NaN          NaN          NaN 
         NaN          NaN          NaN 
         NaN          NaN          NaN 
         NaN          NaN          NaN 
         NaN          NaN          NaN 
         NaN          NaN          NaN 
         NaN          NaN          NaN 
         NaN          NaN          NaN 
         NaN          NaN          NaN 
         NaN          NaN          NaN 
         NaN          NaN          NaN 
         NaN          NaN          NaN 
         NaN          NaN          NaN 
         NaN          NaN          NaN 
         NaN          NaN          NaN 
         NaN          NaN          NaN 
         NaN          NaN          NaN 
         NaN          NaN          NaN 
         NaN          NaN          NaN 
         NaN          NaN          NaN 
         NaN          NaN          NaN 
         NaN          NaN          NaN 
         NaN          NaN          NaN 
         NaN          NaN          NaN 
         NaN          NaN          NaN 
         NaN          NaN          NaN 
         NaN          NaN          NaN 
         NaN          NaN          NaN 
         NaN          NaN          NaN 
         NaN          NaN          NaN 
         NaN          NaN          NaN 
         NaN          NaN          NaN 
         NaN          NaN          NaN 
         NaN          NaN          NaN 
         NaN          NaN          NaN 
         NaN          NaN          NaN 
         NaN          NaN          NaN 
         NaN          NaN          NaN 
         NaN          NaN          NaN 
         NaN          NaN          NaN 
         NaN          NaN          NaN 
         NaN          NaN          NaN 
         NaN          NaN          NaN 
         NaN          NaN          NaN 
         NaN          NaN          NaN 
         NaN          NaN          NaN 
         NaN          NaN          NaN 
         NaN          NaN          NaN 
         NaN          NaN          NaN 
         NaN          NaN          NaN 
         NaN          NaN          NaN 
         NaN          NaN          NaN 
         NaN          NaN          NaN 
         NaN          NaN          NaN 
         NaN          NaN          NaN 
         NaN          NaN          NaN 
         NaN          NaN          NaN 
         NaN          NaN          NaN 
         NaN          NaN          NaN 
         NaN          NaN          NaN 
         NaN          NaN          NaN 
         NaN          NaN          NaN 
         NaN          NaN          NaN 
         NaN          NaN          NaN 
         NaN          NaN          NaN 
         NaN          NaN          NaN 
         NaN          NaN          NaN 
         NaN          NaN          NaN 
         NaN          NaN          NaN 
         NaN          NaN          NaN 
         NaN          NaN          NaN 
         NaN          NaN          NaN 
         NaN          NaN          NaN 
         NaN          NaN          NaN 
         NaN          NaN          NaN 
         NaN          NaN          NaN 
         NaN          NaN          NaN 
         NaN          NaN          NaN 
         NaN          NaN          NaN 
         NaN          NaN          NaN 
         NaN          NaN          NaN 
         NaN          NaN          NaN 
         NaN          NaN          NaN 
         NaN          NaN          NaN 
         NaN          NaN          NaN 
         NaN          NaN          NaN 
         NaN          NaN          NaN 
         NaN          NaN          NaN 
         NaN          NaN          NaN 
         NaN          NaN          NaN 
         NaN          NaN          NaN 
         NaN          NaN          NaN 
         NaN          NaN          NaN 
         NaN          NaN          NaN 
         NaN          NaN          NaN 
         NaN          NaN          NaN 
         NaN          NaN          NaN 
         NaN          NaN          NaN 
         NaN          NaN          NaN 
         NaN          NaN          NaN 
         NaN          NaN          NaN 
         NaN          NaN          NaN 
         NaN          NaN          NaN 
         NaN          NaN          NaN 
         NaN          NaN          NaN 
         NaN          NaN          NaN 
         NaN          NaN          NaN 
         NaN          NaN          NaN 
         NaN          NaN          NaN 
         NaN          NaN          NaN 
         NaN          NaN          NaN 
         NaN          NaN          NaN 
         NaN          NaN          NaN 
         NaN          NaN          NaN 
         NaN          NaN          NaN 
         NaN          NaN          NaN 
         NaN          NaN          NaN 
         NaN          NaN          NaN 
         NaN          NaN          NaN 
         NaN          NaN          NaN 
         NaN          NaN          NaN 
         NaN          NaN          NaN 
         NaN          NaN          NaN 
         NaN          NaN          NaN 
         NaN          NaN          NaN 
         NaN          NaN          NaN 
         NaN          NaN          NaN 
         NaN          NaN          NaN 
         NaN          NaN          NaN 
         NaN          NaN          NaN 
         NaN          NaN          NaN 
         NaN          NaN          NaN 
         NaN          NaN          NaN 
         NaN          NaN          NaN 
         NaN          NaN          NaN 
         NaN          NaN          NaN 
         NaN          NaN          NaN 
         NaN          NaN          NaN 
         NaN          NaN          NaN 
         NaN          NaN          NaN 
         NaN          NaN          NaN 
         NaN          NaN          NaN 
         NaN          NaN          NaN 
         NaN          NaN          NaN 
         NaN          NaN          NaN 
         NaN          NaN          NaN 
         NaN          NaN          NaN 
         NaN          NaN          NaN 
         NaN          NaN          NaN 
         NaN          NaN          NaN 
         NaN          NaN          NaN 
         NaN          NaN          NaN 
         NaN          NaN          NaN 
         NaN          NaN          NaN 
         NaN          NaN          NaN 
         NaN          NaN          NaN 
         NaN          NaN          NaN 
         NaN          NaN          NaN 
         NaN          NaN          NaN 
         NaN          NaN          NaN 
         NaN          NaN          NaN 
         NaN          NaN          NaN 
         NaN          NaN          NaN 
         NaN          NaN          NaN 
         NaN          NaN          NaN 
         NaN          NaN          NaN 
         NaN          NaN          NaN 
         NaN          NaN          NaN 
         NaN          NaN          NaN 
         NaN          NaN          NaN 
         NaN          NaN          NaN 
         NaN          NaN          NaN 
         NaN          NaN          NaN 
         NaN          NaN          NaN 
         NaN          NaN          NaN 
         NaN          NaN          NaN 
         NaN          NaN          NaN 
         NaN          NaN          NaN 
         NaN          NaN          NaN 
         NaN          NaN          NaN 
         NaN          NaN          NaN 
         NaN          NaN          NaN 
         NaN          NaN          NaN 
         NaN          NaN          NaN 
         NaN          NaN          NaN 
         NaN          NaN          NaN 
         NaN          NaN          NaN 
         NaN          NaN          NaN 
         NaN          NaN          NaN 
         NaN          NaN          NaN 
         NaN          NaN          NaN 
         NaN          NaN          NaN 
         NaN          NaN          NaN 
         NaN          NaN          NaN 
         NaN          NaN          NaN 
         NaN          NaN          NaN 
         NaN          NaN          NaN 
         NaN          NaN          NaN 
         NaN          NaN          NaN 
         NaN          NaN          NaN 
         NaN          NaN          NaN 
         NaN          NaN          NaN 
         NaN          NaN          NaN 
         NaN          NaN          NaN 
         NaN          NaN          NaN 
         NaN          NaN          NaN 
         NaN          NaN          NaN 
         NaN          NaN          NaN 
         NaN          NaN          NaN 
         NaN          NaN          NaN 
         NaN          NaN          NaN 
         NaN          NaN          NaN 
         NaN          NaN          NaN 
         NaN          NaN          NaN 
         NaN          NaN          NaN 
         NaN          NaN          NaN 
         NaN          NaN          NaN 
         NaN          NaN          NaN 
         NaN          NaN          NaN 
         NaN          NaN          NaN 
         NaN          NaN          NaN 
         NaN          NaN          NaN 
         NaN          NaN          NaN 
         NaN          NaN          NaN 
         NaN          NaN          NaN 
         NaN          NaN          NaN 
         NaN          NaN          NaN 
         NaN          NaN          NaN 
         NaN          NaN          NaN 
         NaN          NaN          NaN 
         NaN          NaN          NaN 
         NaN          NaN          NaN 
         NaN          NaN          NaN 
         NaN          NaN          NaN 
         NaN          NaN          NaN 
         NaN          NaN          NaN 
         NaN          NaN          NaN 
         NaN          NaN          NaN 
         NaN          NaN          NaN 
         NaN          NaN          NaN 
         NaN          NaN          NaN 
         NaN          NaN          NaN 
         NaN          NaN          NaN 
         NaN          NaN          NaN 
         NaN          NaN          NaN 
         NaN          NaN          NaN 
         NaN          NaN          NaN 
         NaN          NaN          NaN 
         NaN          NaN          NaN 
         NaN          NaN          NaN 
         NaN          NaN          NaN 
         NaN          NaN          NaN 
         NaN          NaN          NaN 
         NaN          NaN          NaN 
         NaN          NaN          NaN 
         NaN          NaN          NaN 
         NaN          NaN          NaN 
         NaN          NaN          NaN 
         NaN          NaN          NaN 
         NaN          NaN          NaN 
         NaN          NaN          NaN 
         NaN          NaN          NaN 
         NaN          NaN          NaN 
         NaN          NaN          NaN 
         NaN          NaN          NaN 
         NaN          NaN          NaN 
         NaN          NaN          NaN 
         NaN          NaN          NaN 
         NaN          NaN          NaN 
         NaN          NaN          NaN 
         NaN          NaN          NaN 
         NaN          NaN          NaN 
         NaN          NaN          NaN 
         NaN          NaN          NaN 
         NaN          NaN          NaN 
         NaN          NaN          NaN 
         NaN          NaN          NaN 
         NaN          NaN          NaN 
         NaN          NaN          NaN 
         NaN          NaN          NaN 
         NaN          NaN          NaN 
         NaN          NaN          NaN 
         NaN          NaN          NaN 
         NaN          NaN          NaN 
         NaN          NaN          NaN 
         NaN          NaN          NaN 
         NaN          NaN          NaN 
         NaN          NaN          NaN 
         NaN          NaN          NaN 
         NaN          NaN          NaN 
         NaN          NaN          NaN 
         NaN          NaN          NaN 
         NaN          NaN          NaN 
         NaN          NaN          NaN 
         NaN          NaN          NaN 
         NaN          NaN          NaN 
         NaN          NaN          NaN 
         NaN          NaN          NaN 
         NaN          NaN          NaN 
         NaN          NaN          NaN 
         NaN          NaN          NaN 
         NaN          NaN          NaN 
         NaN          NaN          NaN 
         NaN          NaN          NaN 
         NaN          NaN          NaN 
         NaN          NaN          NaN 
         NaN          NaN          NaN 
         NaN          NaN          NaN 
         NaN          NaN          NaN 
         NaN          NaN          NaN 
         NaN          NaN          NaN 
         NaN          NaN          NaN 
         NaN          NaN          NaN 
         NaN          NaN          NaN 
         NaN          NaN          NaN 
         NaN          NaN          NaN 
         NaN          NaN          NaN 
         NaN          NaN          NaN 
         NaN          NaN          NaN 
         NaN          NaN          NaN 
         NaN          NaN          NaN 
         NaN          NaN          NaN 
         NaN          NaN          NaN 
         NaN          NaN          NaN 
         NaN          NaN          NaN 
         NaN          NaN          NaN 
         NaN          NaN          NaN 
         NaN          NaN          NaN 
         NaN          NaN          NaN 
         NaN          NaN          NaN 
         NaN          NaN          NaN 
         NaN          NaN          NaN 
         NaN          NaN          NaN 
         NaN          NaN          NaN 
         NaN          NaN          NaN 
         NaN          NaN          NaN 
         NaN          NaN          NaN 
         NaN          NaN          NaN 
         NaN          NaN          NaN 
         NaN          NaN          NaN 
         NaN          NaN          NaN 
         NaN          NaN          NaN 
         NaN          NaN          NaN 
         NaN          NaN          NaN 
         NaN          NaN          NaN 
         NaN          NaN          NaN 
         NaN          NaN          NaN 
         NaN          NaN          NaN 
         NaN          NaN          NaN 
         NaN          NaN          NaN 
         NaN          NaN          NaN 
         NaN          NaN          NaN 
         NaN          NaN          NaN 
         NaN          NaN          NaN 
         NaN          NaN          NaN 
         NaN          NaN          NaN 
         NaN          NaN          NaN 
         NaN          NaN          NaN 
         NaN          NaN          NaN 
         NaN          NaN          NaN 
         NaN          NaN          NaN 
         NaN          NaN          NaN 
         NaN          NaN          NaN 
         NaN          NaN          NaN 
         NaN          NaN          NaN 
         NaN          NaN          NaN 
         NaN          NaN          NaN 
         NaN          NaN          NaN 
         NaN          NaN          NaN 
         NaN          NaN          NaN 
         NaN          NaN          NaN 
         NaN          NaN          NaN 
         NaN          NaN          NaN 
         NaN          NaN          NaN 
         NaN          NaN          NaN 
         NaN          NaN          NaN 
         NaN          NaN          NaN 
         NaN          NaN          NaN 
         NaN          NaN          NaN 
         NaN          NaN          NaN 
         NaN          NaN          NaN 
         NaN          NaN          NaN 
         NaN          NaN          NaN 
         NaN          NaN          NaN 
         NaN          NaN          NaN 
         NaN          NaN          NaN 
         NaN          NaN          NaN 
         NaN          NaN          NaN 
         NaN          NaN          NaN 
         NaN          NaN          NaN 
         NaN          NaN          NaN 
         NaN          NaN          NaN 