<?xml version="1.0" encoding="utf-8"?>
<VTKFile byte_order="LittleEndian" type="UnstructuredGrid" version="0.1">
   <UnstructuredGrid>
      <Piece NumberOfCells="3072" NumberOfPoints="729">
         <Points>
            <DataArray Name="Points" NumberOfComponents="3" format="ascii" type="Float32">
0.0000 0.0000 0.0000
0.0000 1.0000 0.0000
1.0000 0.0000 0.0000
1.0000 1.0000 0.0000
0.0000 0.0000 1.0000
0.0000 1.0000 1.0000
1.0000 0.0000 1.0000
1.0000 1.0000 1.0000
0.0000 1.0000 0.5000
0.5000 1.0000 0.0000
0.5000 1.0000 0.5000
0.0000 0.5000 0.5000
0.0000 0.5000 0.0000
0.5000 0.5000 0.0000
0.0000 0.5000 1.0000
0.5000 0.5000 0.5000
0.0000 0.0000 0.5000
0.5000 0.0000 0.5000
0.5000 0.0000 1.0000
1.0000 0.0000 0.5000
1.0000 0.5000 0.5000
0.5000 0.5000 1.0000
1.0000 0.5000 1.0000
0.5000 1.0000 1.0000
1.0000 1.0000 0.5000
1.0000 0.5000 0.0000
0.5000 0.0000 0.0000
0.7500 0.2500 0.5000
0.5000 0.5000 0.7500
0.7500 0.2500 0.7500
1.0000 0.2500 0.5000
0.7500 0.5000 0.5000
0.7500 0.5000 0.7500
0.2500 0.0000 0.7500
0.2500 0.0000 0.5000
0.0000 0.0000 0.7500
0.0000 0.2500 0.7500
0.2500 0.2500 0.5000
0.0000 0.2500 0.5000
0.5000 0.0000 0.2500
0.2500 0.0000 0.2500
0.2500 0.2500 0.2500
0.0000 0.5000 0.7500
0.2500 0.2500 0.7500
0.2500 0.5000 0.5000
0.2500 0.5000 0.7500
0.5000 0.2500 0.5000
0.5000 0.7500 0.5000
0.7500 0.7500 0.5000
1.0000 0.5000 0.2500
0.7500 0.5000 0.2500
0.7500 0.7500 0.2500
0.0000 0.5000 0.2500
0.2500 0.2500 0.0000
0.0000 0.2500 0.2500
0.5000 0.2500 0.7500
0.2500 0.2500 1.0000
0.5000 0.0000 0.7500
0.5000 0.7500 0.7500
0.7500 0.2500 1.0000
1.0000 0.0000 0.7500
1.0000 0.2500 0.7500
0.0000 0.0000 0.2500
0.2500 0.0000 0.0000
0.0000 0.2500 0.0000
0.0000 0.2500 1.0000
0.2500 0.0000 1.0000
0.5000 0.2500 0.2500
0.2500 0.5000 0.2500
0.5000 0.5000 0.2500
0.2500 0.7500 1.0000
0.2500 0.5000 1.0000
0.0000 0.7500 1.0000
0.2500 0.7500 0.7500
0.2500 1.0000 0.2500
0.2500 0.7500 0.5000
0.5000 0.7500 0.2500
0.5000 1.0000 0.2500
0.2500 1.0000 0.5000
1.0000 1.0000 0.7500
1.0000 0.7500 0.7500
1.0000 0.7500 1.0000
0.7500 1.0000 1.0000
0.7500 1.0000 0.7500
0.7500 0.7500 1.0000
0.0000 0.7500 0.7500
0.0000 1.0000 0.7500
0.0000 0.7500 0.5000
0.0000 0.7500 0.2500
0.0000 1.0000 0.2500
0.2500 0.7500 0.2500
0.2500 0.7500 0.0000
0.5000 0.2500 0.0000
0.5000 1.0000 0.7500
0.7500 1.0000 0.5000
0.7500 0.7500 0.7500
1.0000 0.7500 0.5000
0.7500 0.5000 1.0000
1.0000 0.2500 1.0000
1.0000 0.5000 0.7500
0.2500 1.0000 0.7500
1.0000 0.0000 0.2500
0.7500 0.2500 0.2500
1.0000 0.2500 0.2500
1.0000 0.2500 0.0000
0.2500 1.0000 1.0000
0.5000 0.7500 1.0000
0.2500 0.5000 0.0000
0.7500 0.0000 0.5000
0.7500 0.0000 0.2500
0.7500 1.0000 0.2500
1.0000 1.0000 0.2500
1.0000 0.7500 0.2500
0.7500 0.7500 0.0000
0.7500 0.5000 0.0000
0.5000 0.7500 0.0000
0.5000 0.2500 1.0000
0.7500 0.2500 0.0000
0.7500 0.0000 0.0000
0.0000 0.7500 0.0000
0.7500 0.0000 1.0000
0.7500 0.0000 0.7500
1.0000 0.7500 0.0000
0.7500 1.0000 0.0000
0.2500 1.0000 0.0000
0.1250 0.5000 0.8750
0.1250 0.5000 1.0000
0.2500 0.5000 0.8750
0.1250 0.6250 0.8750
0.0000 0.6250 1.0000
0.1250 0.6250 1.0000
0.6250 1.0000 0.3750
0.6250 0.8750 0.5000
0.7500 0.8750 0.3750
0.7500 1.0000 0.3750
0.6250 1.0000 0.5000
0.7500 0.8750 0.5000
0.2500 0.7500 0.8750
0.2500 0.6250 0.8750
0.2500 0.6250 1.0000
0.1250 0.7500 1.0000
0.1250 0.7500 0.8750
0.2500 0.1250 0.1250
0.2500 0.1250 0.0000
0.2500 0.0000 0.1250
0.1250 0.1250 0.2500
0.1250 0.2500 0.1250
0.1250 0.1250 0.1250
0.1250 0.1250 0.8750
0.1250 0.1250 0.7500
0.0000 0.2500 0.8750
0.1250 0.2500 0.8750
0.2500 0.1250 0.7500
0.1250 0.2500 0.7500
0.6250 0.3750 0.2500
0.5000 0.3750 0.3750
0.6250 0.2500 0.3750
0.6250 0.3750 0.3750
0.5000 0.5000 0.3750
0.5000 0.3750 0.5000
0.2500 0.6250 0.2500
0.3750 0.6250 0.1250
0.3750 0.5000 0.1250
0.2500 0.6250 0.1250
0.2500 0.7500 0.1250
0.3750 0.6250 0.0000
0.1250 0.2500 0.0000
0.1250 0.1250 0.0000
0.0000 0.2500 0.1250
0.7500 0.3750 0.2500
0.7500 0.3750 0.1250
0.7500 0.5000 0.1250
0.8750 0.3750 0.1250
0.8750 0.2500 0.1250
0.8750 0.3750 0.0000
0.5000 0.6250 0.0000
0.3750 0.7500 0.1250
0.3750 0.6250 0.2500
0.5000 0.5000 0.1250
0.5000 0.6250 0.1250
0.2500 0.1250 0.2500
0.2500 0.2500 0.1250
0.1250 0.2500 0.2500
0.6250 0.6250 0.2500
0.5000 0.6250 0.2500
0.6250 0.5000 0.2500
0.6250 0.5000 0.3750
0.5000 0.6250 0.3750
0.2500 0.0000 0.8750
0.1250 0.1250 1.0000
0.1250 0.0000 0.8750
0.1250 0.0000 1.0000
0.0000 0.1250 1.0000
0.1250 0.6250 0.1250
0.1250 0.6250 0.0000
0.0000 0.7500 0.1250
0.1250 0.7500 0.1250
0.2500 0.6250 0.0000
0.1250 0.7500 0.0000
0.5000 0.0000 0.1250
0.3750 0.0000 0.1250
0.3750 0.0000 0.2500
0.3750 0.1250 0.2500
0.3750 0.1250 0.1250
0.0000 0.1250 0.8750
0.1250 0.2500 0.6250
0.1250 0.3750 0.5000
0.0000 0.3750 0.6250
0.0000 0.3750 0.7500
0.1250 0.3750 0.6250
0.0000 0.5000 0.6250
0.0000 0.1250 0.7500
0.1250 0.0000 0.6250
0.1250 0.1250 0.6250
0.1250 0.0000 0.7500
0.2500 0.0000 0.6250
0.2500 0.6250 0.3750
0.1250 0.7500 0.3750
0.1250 0.6250 0.5000
0.2500 0.6250 0.5000
0.2500 0.7500 0.3750
0.1250 0.7500 0.5000
0.3750 0.0000 0.5000
0.2500 0.1250 0.5000
0.3750 0.1250 0.5000
0.5000 0.0000 0.3750
0.3750 0.0000 0.3750
0.3750 0.1250 0.3750
0.2500 0.5000 0.3750
0.3750 0.5000 0.2500
0.3750 0.5000 0.3750
0.2500 0.2500 0.3750
0.2500 0.3750 0.3750
0.2500 0.3750 0.2500
0.1250 0.3750 0.3750
0.1250 0.5000 0.3750
0.2500 0.3750 0.5000
0.1250 0.5000 0.5000
0.5000 1.0000 0.1250
0.5000 0.8750 0.2500
0.5000 0.8750 0.1250
0.6250 0.8750 0.0000
0.6250 0.8750 0.1250
0.6250 0.7500 0.1250
0.3750 1.0000 0.8750
0.3750 0.8750 1.0000
0.5000 0.8750 0.8750
0.5000 1.0000 0.8750
0.3750 1.0000 1.0000
0.5000 0.8750 1.0000
0.2500 1.0000 0.6250
0.2500 0.8750 0.7500
0.2500 0.8750 0.6250
0.3750 0.8750 0.5000
0.3750 0.8750 0.6250
0.3750 0.7500 0.6250
0.0000 0.1250 0.1250
0.0000 0.0000 0.1250
0.0000 0.1250 0.0000
0.1250 0.0000 0.1250
0.1250 0.0000 0.0000
0.3750 0.8750 0.2500
0.5000 0.7500 0.1250
0.3750 0.8750 0.1250
0.3750 1.0000 0.1250
0.5000 0.8750 0.0000
0.8750 0.6250 0.2500
1.0000 0.5000 0.1250
0.8750 0.6250 0.1250
0.8750 0.7500 0.1250
1.0000 0.6250 0.1250
1.0000 0.6250 0.0000
0.7500 0.8750 0.7500
0.8750 0.8750 0.7500
0.8750 0.7500 0.7500
0.8750 0.7500 0.6250
0.8750 0.8750 0.6250
1.0000 0.7500 0.6250
0.6250 0.5000 0.1250
0.2500 0.8750 0.1250
0.1250 0.8750 0.2500
0.1250 1.0000 0.1250
0.2500 0.8750 0.0000
0.1250 0.8750 0.1250
0.8750 0.1250 0.6250
0.8750 0.2500 0.6250
1.0000 0.1250 0.5000
0.8750 0.1250 0.5000
0.7500 0.2500 0.6250
0.8750 0.2500 0.5000
0.6250 0.0000 0.1250
0.5000 0.1250 0.2500
0.6250 0.1250 0.1250
0.6250 0.1250 0.0000
0.5000 0.1250 0.1250
0.5000 0.2500 0.1250
0.1250 0.0000 0.3750
0.0000 0.1250 0.3750
0.0000 0.1250 0.5000
0.1250 0.1250 0.3750
0.0000 0.2500 0.3750
0.3750 0.1250 0.0000
0.3750 0.0000 0.0000
0.3750 0.6250 0.3750
0.3750 0.6250 0.5000
0.3750 0.5000 0.5000
0.1250 0.3750 1.0000
0.2500 0.3750 1.0000
0.2500 0.3750 0.8750
0.2500 0.2500 0.8750
0.1250 0.3750 0.8750
0.2500 0.3750 0.7500
0.2500 0.8750 0.2500
0.2500 1.0000 0.1250
0.1250 1.0000 0.2500
0.3750 0.3750 0.5000
0.3750 0.3750 0.3750
0.5000 0.3750 0.2500
0.5000 0.2500 0.3750
0.8750 0.1250 0.3750
1.0000 0.0000 0.3750
1.0000 0.1250 0.2500
0.8750 0.2500 0.3750
1.0000 0.1250 0.3750
0.8750 0.1250 0.2500
0.7500 0.2500 0.3750
0.8750 0.2500 0.2500
0.1250 0.3750 0.7500
0.0000 0.5000 0.8750
0.1250 0.5000 0.7500
0.1250 0.8750 0.3750
0.1250 0.8750 0.5000
0.2500 0.8750 0.3750
0.1250 1.0000 0.3750
0.0000 0.1250 0.6250
0.0000 0.2500 0.6250
0.1250 0.1250 0.5000
0.1250 0.0000 0.2500
0.0000 0.1250 0.2500
0.0000 0.0000 0.3750
0.6250 0.7500 1.0000
0.7500 0.6250 1.0000
0.6250 0.6250 1.0000
0.6250 0.7500 0.8750
0.7500 0.7500 0.8750
0.7500 0.6250 0.8750
0.3750 0.7500 0.3750
0.2500 0.8750 0.5000
0.3750 0.8750 0.3750
0.2500 1.0000 0.3750
0.2500 0.0000 0.3750
0.2500 0.1250 0.3750
0.0000 0.3750 0.8750
0.8750 0.3750 0.5000
0.7500 0.3750 0.6250
0.7500 0.3750 0.5000
0.6250 0.7500 0.0000
0.0000 0.3750 1.0000
0.1250 0.6250 0.7500
0.0000 0.6250 0.8750
0.0000 0.7500 0.8750
0.1250 0.6250 0.2500
0.1250 0.7500 0.2500
0.3750 0.7500 0.5000
0.5000 0.7500 0.3750
0.5000 0.6250 0.5000
1.0000 0.2500 0.3750
0.3750 0.3750 0.2500
0.1250 0.2500 0.3750
0.1250 0.2500 0.5000
0.5000 0.7500 0.8750
0.5000 0.6250 0.8750
0.5000 0.6250 1.0000
0.3750 0.7500 1.0000
0.3750 0.7500 0.8750
0.3750 0.6250 1.0000
0.0000 0.3750 0.5000
0.1250 0.6250 0.3750
0.0000 0.6250 0.3750
0.0000 0.7500 0.3750
0.0000 0.6250 0.5000
0.6250 1.0000 0.7500
0.6250 1.0000 0.8750
0.6250 0.8750 0.8750
0.6250 0.8750 0.7500
0.1250 0.5000 0.6250
0.2500 0.3750 0.6250
0.2500 0.5000 0.6250
0.3750 0.0000 0.6250
0.2500 0.1250 0.6250
0.6250 0.8750 1.0000
0.7500 0.8750 0.8750
0.3750 0.3750 0.8750
0.3750 0.5000 0.8750
0.5000 0.3750 0.7500
0.3750 0.3750 0.7500
0.3750 0.5000 0.7500
0.1250 0.2500 1.0000
0.8750 0.6250 0.5000
1.0000 0.6250 0.3750
0.8750 0.7500 0.3750
0.8750 0.7500 0.5000
1.0000 0.6250 0.5000
1.0000 0.7500 0.3750
0.7500 0.8750 0.1250
0.6250 1.0000 0.1250
0.6250 0.8750 0.2500
0.7500 0.8750 0.2500
0.7500 1.0000 0.1250
0.6250 1.0000 0.2500
0.3750 0.2500 0.8750
0.3750 0.2500 0.7500
0.1250 0.8750 0.8750
0.1250 0.8750 0.7500
0.0000 1.0000 0.8750
0.1250 1.0000 0.8750
0.1250 1.0000 0.7500
0.3750 0.2500 0.1250
0.5000 0.1250 0.0000
0.0000 0.0000 0.8750
0.5000 0.0000 0.8750
0.3750 0.0000 0.8750
0.3750 0.0000 1.0000
0.3750 0.1250 1.0000
0.3750 0.1250 0.8750
0.2500 0.1250 1.0000
0.5000 0.1250 0.8750
0.5000 0.1250 0.7500
0.8750 0.5000 0.0000
0.8750 0.5000 0.1250
1.0000 0.3750 0.0000
0.0000 1.0000 0.1250
0.1250 1.0000 0.0000
0.1250 0.8750 0.0000
0.6250 0.7500 0.3750
0.7500 0.6250 0.3750
0.6250 0.6250 0.5000
0.6250 0.6250 0.3750
0.7500 0.6250 0.2500
0.7500 0.5000 0.3750
0.5000 0.6250 0.7500
0.5000 0.5000 0.8750
0.3750 0.6250 0.8750
0.1250 0.0000 0.5000
0.0000 0.0000 0.6250
0.7500 0.7500 0.3750
0.6250 0.7500 0.5000
0.7500 0.6250 0.5000
0.2500 0.6250 0.7500
0.3750 0.6250 0.7500
0.6250 0.5000 0.6250
0.5000 0.5000 0.6250
0.6250 0.5000 0.5000
0.6250 0.3750 0.6250
0.6250 0.3750 0.5000
0.2500 0.1250 0.8750
0.0000 0.8750 0.0000
0.0000 0.8750 0.1250
0.2500 0.7500 0.6250
0.2500 0.6250 0.6250
0.3750 0.6250 0.6250
[...]
         <PointData>
            <DataArray Name="fValues" NumberOfComponents="3" format="ascii" type="Float64">
-3.47818e-17 -8.87302e-17 -4.55116e-17 
 9.22182e-17 -7.20499e-17 -3.90113e-17 
-2.72015e+00 -6.74257e+00  1.57448e-01 
 2.95407e+00 -6.83135e+00  1.77707e-02 
-2.05242e-16  1.78379e-17  6.66483e-18 
 1.37973e-16  3.53265e-16  2.31492e-17 
-2.93729e+00 -6.87414e+00  6.03991e-02 
 2.99048e+00 -7.17909e+00  2.63179e-01 
 6.74350e-17 -2.76665e-17 -1.25323e-18 
 1.99286e+00 -2.59984e+00  3.76579e-01 
 2.10306e+00 -2.70764e+00  1.85498e-02 
 9.82176e-18 -7.14997e-17  3.17372e-19 
-4.80787e-18 -7.52020e-17 -1.63834e-18 
 7.62683e-02 -2.30500e+00  4.20035e-02 
-2.37413e-17 -3.99088e-17  1.14366e-18 
 3.05023e-03 -2.44290e+00  2.99933e-02 
 4.47872e-18 -3.87617e-17  1.01021e-17 
-2.06894e+00 -2.66322e+00  2.20186e-02 
-2.18695e+00 -2.55322e+00  4.04497e-01 
-2.85887e+00 -6.55859e+00  1.04794e-01 
 1.28667e-02 -6.19680e+00  1.04957e-01 
-5.66345e-02 -2.31758e+00  3.20189e-02 
-8.88723e-02 -6.36063e+00  1.14734e-01 
 2.14507e+00 -2.51223e+00 -3.60925e-01 
 2.93452e+00 -6.60626e+00  7.79539e-02 
 8.46944e-02 -6.35714e+00  1.01476e-01 
-1.90395e+00 -2.43873e+00 -3.82061e-01 
-1.05847e+00 -4.32719e+00  7.14475e-02 
-2.38247e-02 -2.42553e+00  2.95332e-02 
-1.09857e+00 -4.33517e+00  1.16874e-01 
-1.16706e+00 -6.31838e+00  1.18832e-01 
 1.71533e-02 -4.30255e+00  6.49562e-02 
-1.94191e-02 -4.30721e+00  6.26605e-02 
-1.20037e+00 -1.20737e+00  1.87142e-01 
-1.16542e+00 -1.22733e+00 -9.56682e-03 
-4.08395e-17  1.05831e-16  1.59570e-18 
 6.07915e-17 -2.83712e-17  7.74515e-19 
-4.23627e-01 -9.73742e-01  8.68849e-05 
 7.09117e-18 -3.02191e-17 -1.01020e-17 
-2.02752e+00 -2.61202e+00 -1.59813e-01 
-1.13540e+00 -1.17724e+00 -2.05333e-01 
-4.09445e-01 -9.44858e-01 -1.02029e-01 
-1.73178e-17  6.18573e-17  3.73394e-18 
-4.41755e-01 -9.57200e-01  1.09291e-01 
-6.50083e-03 -9.20058e-01  5.43588e-03 
-1.70266e-02 -8.99736e-01  7.83626e-03 
-8.22996e-01 -2.48092e+00  3.03713e-02 
 8.40049e-01 -2.50959e+00  2.53749e-02 
 1.09280e+00 -4.34276e+00  5.35093e-02 
 5.07919e-02 -6.19063e+00  1.06372e-01 
 5.30808e-02 -4.28437e+00  6.93714e-02 
 1.11102e+00 -4.32725e+00  9.91249e-02 
-5.08036e-18  5.63951e-17 -1.37844e-17 
-3.86340e-01 -8.08951e-01 -2.27995e-01 
-5.52077e-17 -6.22029e-17 -1.23223e-17 
-8.60657e-01 -2.46820e+00  1.31055e-01 
-4.99272e-01 -8.58587e-01  2.63332e-01 
-2.12456e+00 -2.64591e+00  2.06795e-01 
 8.25140e-01 -2.48233e+00 -7.16191e-02 
-1.10148e+00 -4.30486e+00  1.54049e-01 
-2.92785e+00 -6.61488e+00  9.76472e-02 
-1.20535e+00 -6.35464e+00  1.19607e-01 
-3.19003e-17 -1.31152e-17  7.18616e-18 
-1.04910e+00 -9.88315e-01 -4.83195e-01 
 3.41465e-17  4.96351e-17 -4.12152e-17 
 9.71729e-17 -1.08818e-16  3.07790e-17 
-1.36517e+00 -1.10633e+00  4.79305e-01 
-7.86681e-01 -2.44317e+00 -6.24133e-02 
 4.48323e-03 -9.02264e-01  7.23808e-03 
 3.00087e-02 -2.41471e+00  3.49579e-02 
 4.34311e-01 -8.18739e-01 -2.35676e-01 
-2.67137e-02 -7.89365e-01  1.54021e-02 
 1.71620e-17  9.00795e-17 -1.81648e-17 
 4.10497e-01 -9.50374e-01 -9.45518e-02 
 1.23248e+00 -1.25678e+00  1.92182e-01 
 4.13675e-01 -9.80672e-01  8.73871e-03 
 8.53791e-01 -2.48584e+00  1.22488e-01 
 2.09432e+00 -2.68336e+00  1.84864e-01 
 1.24039e+00 -1.28084e+00  9.38141e-03 
 2.96904e+00 -6.67630e+00  1.04976e-01 
 1.17094e+00 -6.37723e+00  8.69316e-02 
 1.05289e+00 -6.56973e+00  1.38656e-01 
 2.63940e+00 -4.42643e+00 -1.02333e-01 
 2.66881e+00 -4.45554e+00 -2.44532e-02 
 9.71015e-01 -4.31204e+00 -2.80560e-02 
 2.97478e-17  1.91272e-17  9.98653e-19 
-7.01052e-17  5.54369e-17 -1.30973e-17 
-1.52712e-17  2.24573e-17 -6.69594e-18 
 1.05527e-17 -1.36536e-16  6.10405e-18 
 7.97610e-17 -4.12841e-17  5.11195e-17 
 4.22858e-01 -9.66942e-01  1.13444e-01 
 4.47650e-01 -8.74956e-01  2.50672e-01 
-7.04277e-01 -2.31090e+00 -1.63102e-01 
 2.12452e+00 -2.66519e+00 -1.61764e-01 
 2.64683e+00 -4.45583e+00  4.98141e-02 
 1.06516e+00 -4.34579e+00  7.25805e-03 
 1.20187e+00 -6.32867e+00  8.21269e-02 
-6.86494e-02 -4.27027e+00  6.14967e-02 
-1.20968e+00 -6.51226e+00  7.98644e-02 
-2.48347e-02 -6.22644e+00  1.07027e-01 
 1.24468e+00 -1.23420e+00 -1.83064e-01 
-2.80382e+00 -6.56357e+00  1.18321e-01 
-1.00945e+00 -4.30695e+00  2.99338e-02 
-1.11256e+00 -6.31753e+00  1.19343e-01 
-1.02716e+00 -6.48334e+00  1.40993e-01 
 1.35880e+00 -1.04036e+00 -4.80261e-01 
 7.78473e-01 -2.35969e+00 -1.68378e-01 
 2.90552e-02 -7.91099e-01  1.52182e-02 
-2.63396e+00 -4.42548e+00  6.30445e-02 
-2.59190e+00 -4.40284e+00 -1.52371e-02 
 2.64887e+00 -4.44457e+00  1.14470e-01 
 2.93251e+00 -6.60704e+00  6.45270e-02 
 1.21926e+00 -6.32295e+00  8.62681e-02 
 1.09884e+00 -4.29391e+00  1.44586e-01 
 9.91931e-02 -4.24632e+00  7.37695e-02 
 8.49646e-01 -2.39014e+00  2.27304e-01 
-8.80194e-01 -2.37208e+00  2.35260e-01 
-9.08938e-01 -4.25821e+00 -1.28875e-02 
-2.46261e+00 -4.32351e+00 -1.35649e-01 
-2.55665e-18  1.13372e-17  1.91494e-17 
-2.71854e+00 -4.41119e+00  2.40517e-01 
-2.69305e+00 -4.43235e+00  1.46461e-01 
 1.21335e+00 -6.49312e+00  6.19525e-02 
 2.56855e+00 -4.43204e+00  2.10796e-01 
 1.15915e+00 -1.16316e+00  4.30984e-01 
-8.73098e-03 -3.28709e-01  5.70727e-03 
-1.02053e-02 -2.78760e-01  1.08534e-02 
-2.37955e-02 -8.65689e-01  1.14719e-02 
 8.16083e-02 -3.30096e-01 -5.26065e-02 
 1.50076e-17 -1.40597e-16 -5.05965e-18 
 1.03954e-01 -2.77699e-01 -9.05575e-02 
 2.41338e+00 -3.54075e+00  9.16832e-02 
 1.62500e+00 -3.45657e+00  3.43271e-02 
 1.79006e+00 -4.38256e+00  8.04385e-02 
 2.64609e+00 -4.45093e+00  8.24609e-02 
 2.41514e+00 -3.54555e+00  3.13797e-02 
 1.78576e+00 -4.38865e+00  5.00395e-02 
 4.17973e-01 -9.06777e-01 -1.61986e-01 
 1.77784e-01 -8.70968e-01 -7.61224e-02 
 1.84607e-01 -7.90551e-01 -1.09903e-01 
 2.34232e-01 -2.89827e-01 -1.96472e-01 
 1.87057e-01 -3.48009e-01 -1.11682e-01 
-6.87458e-01 -9.70860e-01 -2.48014e-01 
-6.64729e-01 -8.67426e-01 -3.54425e-01 
-1.10382e+00 -1.10973e+00 -3.31017e-01 
-3.37651e-01 -4.53195e-01 -1.13413e-01 
-1.92031e-01 -3.60526e-01 -1.22741e-01 
-3.30667e-01 -4.20309e-01 -1.87052e-01 
-3.65897e-01 -4.40967e-01  1.71839e-01 
-3.54292e-01 -4.61713e-01  9.48541e-02 
 1.08114e-16 -8.72345e-17  2.11044e-17 
-2.11217e-01 -3.68365e-01  1.19567e-01 
-7.47360e-01 -1.04652e+00  1.53172e-01 
-2.05133e-01 -3.89296e-01  6.70215e-02 
-4.08058e-01 -3.32032e+00  1.76306e-02 
-3.69597e-01 -2.43855e+00  8.63422e-03 
-9.44297e-01 -3.36039e+00  1.52615e-02 
-4.28935e-01 -3.33886e+00  3.29949e-02 
 1.55823e-02 -2.43485e+00  3.18305e-02 
-3.84128e-01 -2.44831e+00  3.10258e-02 
 1.95696e-01 -9.18384e-01  6.13826e-02 
 3.22318e-01 -1.58353e+00  1.08436e-01 
 3.01402e-02 -1.55785e+00  2.36619e-02 
 2.04503e-01 -8.86747e-01  9.55559e-02 
 4.30745e-01 -9.37462e-01  1.78460e-01 
 3.39304e-01 -1.50968e+00  1.43014e-01 
-1.99458e-01 -2.97773e-01 -1.84040e-01 
-3.31915e-01 -3.48010e-01 -2.85696e-01 
-3.37576e-17  2.58797e-17  4.75205e-17 
-4.44528e-01 -4.28817e+00  5.14734e-02 
-4.14499e-01 -4.27323e+00  4.45329e-02 
 7.44926e-02 -4.27043e+00  7.25864e-02 
-4.39161e-01 -5.28791e+00  8.55706e-02 
-1.02433e+00 -5.32659e+00  7.59575e-02 
-4.02663e-01 -5.30878e+00  8.64910e-02 
 4.39097e-01 -2.33482e+00  1.37411e-01 
 6.61942e-01 -1.64139e+00  1.87752e-01 
 3.10524e-01 -1.62115e+00  7.45475e-02 
 4.89657e-02 -2.37573e+00  3.88967e-02 
 4.26741e-01 -2.40078e+00  1.09556e-01 
-7.03198e-01 -1.02591e+00 -1.55596e-01 
-3.99681e-01 -8.99166e-01 -1.62016e-01 
-1.94066e-01 -3.86922e-01 -7.52190e-02 
 4.95632e-01 -3.33789e+00  8.32344e-02 
 4.14361e-01 -2.43704e+00  8.05927e-02 
 4.37081e-02 -3.32021e+00  5.17342e-02 
 2.65431e-02 -3.33719e+00  4.86047e-02 
 4.03077e-01 -2.45558e+00  5.34100e-02 
-1.25886e+00 -1.16884e+00  3.27169e-01 
-4.66167e-01 -4.03683e-01  3.16592e-01 
-6.28979e-01 -6.02988e-01  2.13150e-01 
-7.97568e-01 -5.72533e-01  4.23344e-01 
 2.59000e-17 -5.05583e-17  2.28856e-17 
 9.08136e-02 -3.46222e-01  6.19964e-02 
 1.02369e-01 -2.96436e-01  9.74461e-02 
 1.91868e-17  4.68645e-17 -6.69569e-18 
 1.93367e-01 -3.73437e-01  1.24998e-01 
 2.23243e-01 -8.16367e-01  1.34420e-01 
 2.09818e-01 -3.29954e-01  1.93649e-01 
-1.98698e+00 -2.54717e+00 -2.64935e-01 
-1.58625e+00 -1.77184e+00 -3.23545e-01 
-1.62242e+00 -1.84418e+00 -2.01675e-01 
-1.04030e+00 -1.71349e+00 -1.48858e-01 
-1.01382e+00 -1.65211e+00 -2.38350e-01 
-1.79480e-16 -9.49890e-17  3.19108e-17 
-2.02353e-01 -3.98555e-01  2.81996e-02 
-9.34135e-02 -3.72278e-01 -2.17232e-03 
 3.24144e-17  9.51437e-18 -2.47899e-18 
 5.79955e-17  1.56546e-16 -7.27199e-18 
-9.56294e-02 -3.69451e-01  1.49564e-02 
-1.01981e-17 -5.68400e-17  1.11976e-18 
-3.60909e-17 -1.61233e-16  1.25460e-17 
-5.97062e-01 -6.39279e-01  4.78625e-02 
-3.50683e-01 -4.72040e-01  3.94117e-02 
-6.02398e-01 -6.27788e-01  1.15950e-01 
-1.17752e+00 -1.22560e+00  8.16970e-02 
 1.89954e-01 -9.30970e-01  3.25592e-02 
 1.87386e-01 -3.95032e-01  3.53777e-02 
 8.33193e-02 -3.70167e-01  1.23598e-03 
 1.85262e-01 -9.32987e-01  7.16755e-03 
 4.17718e-01 -9.79222e-01  5.80944e-02 
 1.85519e-01 -3.94740e-01  2.71943e-03 
-1.65902e+00 -1.89960e+00  3.34851e-03 
-7.22655e-01 -1.06376e+00 -4.32686e-03 
-1.07069e+00 -1.75910e+00  8.92584e-03 
-2.05010e+00 -2.64769e+00 -6.59381e-02 
-1.64303e+00 -1.88321e+00 -9.49409e-02 
-1.05688e+00 -1.74580e+00 -6.78452e-02 
-1.38459e-03 -9.16683e-01  5.79704e-03 
 1.55021e-02 -1.59890e+00  1.97707e-02 
 5.04315e-03 -1.61818e+00  1.71752e-02 
-4.16921e-01 -9.66303e-01 -4.91205e-02 
-1.92891e-01 -9.26645e-01 -2.15064e-02 
-1.86676e-01 -9.09337e-01 -4.73998e-02 
-9.11999e-02 -3.70500e-01 -1.88040e-02 
-2.25313e-03 -3.63772e-01 -5.00371e-04 
-1.98557e-01 -9.31828e-01  3.24263e-03 
-4.26513e-03 -3.64553e-01 -2.89447e-04 
 2.06802e+00 -2.64828e+00  2.76454e-01 
 1.39890e+00 -2.56641e+00  1.58282e-01 
 1.38892e+00 -2.53201e+00  2.32922e-01 
 1.57937e+00 -3.37141e+00  2.51986e-01 
 1.62025e+00 -3.41117e+00  1.92952e-01 
 1.00866e+00 -3.34868e+00  1.51429e-01 
 1.75854e+00 -1.82928e+00 -3.19750e-01 
 1.11255e+00 -1.60102e+00 -3.31306e-01 
 1.38855e+00 -2.50598e+00 -1.93934e-01 
 2.14092e+00 -2.60723e+00 -2.62591e-01 
 1.79227e+00 -1.71409e+00 -4.45524e-01 
 1.36374e+00 -2.42033e+00 -2.66537e-01 
 1.23932e+00 -1.26849e+00 -7.93954e-02 
 7.44081e-01 -1.05695e+00 -1.40948e-01 
 7.40724e-01 -1.08451e+00 -6.06756e-02 
 1.10009e+00 -1.80052e+00  1.46133e-02 
 1.09973e+00 -1.78945e+00 -6.15980e-02 
 6.39901e-01 -1.68999e+00 -3.71923e-02 
-6.23379e-17 -1.00204e-16  2.82027e-18 
 2.11566e-17 -8.18619e-17  1.86681e-17 
 1.52475e-16  4.52140e-18 -4.42047e-17 
-5.46800e-01 -5.61787e-01 -2.51100e-01 
-4.99417e-01 -4.80640e-01 -3.98335e-01 
 1.10283e+00 -1.77755e+00  1.68914e-01 
 8.56988e-01 -2.45107e+00  1.75291e-01 
 1.09683e+00 -1.74023e+00  2.56339e-01 
 1.67634e+00 -1.88317e+00  3.08072e-01 
 1.35383e+00 -2.47728e+00  3.09285e-01 
 5.81284e-01 -5.28001e+00  8.77307e-02 
 7.06022e-02 -6.22363e+00  1.05318e-01 
 5.92978e-01 -5.28935e+00  9.03799e-02 
 1.17757e+00 -5.33155e+00  9.36027e-02 
 6.12671e-01 -6.26106e+00  9.00753e-02 
 6.12503e-01 -6.39333e+00  7.71926e-02 
 1.77518e+00 -4.39053e+00 -1.44519e-02 
 1.87411e+00 -5.41239e+00  4.21332e-02 
 1.12453e+00 -5.35368e+00  5.08648e-02 
 1.14319e+00 -5.33877e+00  5.89415e-02 
 1.88258e+00 -5.39459e+00  5.30536e-02 
 1.18995e+00 -6.34738e+00  8.10801e-02 
 6.47491e-02 -3.29043e+00  5.54160e-02 
 7.45612e-01 -1.04596e+00  2.50279e-01 
 3.37027e-01 -4.57812e-01  1.10111e-01 
 6.65631e-01 -6.46687e-01  2.29565e-01 
 7.43263e-01 -9.89408e-01  3.52152e-01 
 3.39965e-01 -4.42129e-01  1.86870e-01 
-1.87470e+00 -5.38252e+00  1.06744e-01 
-1.13570e+00 -5.33514e+00  1.04594e-01 
-1.91000e+00 -6.44559e+00  1.17644e-01 
-1.85051e+00 -5.37179e+00  9.20450e-02 
-1.07957e+00 -4.33320e+00  9.41936e-02 
-1.11446e+00 -5.32487e+00  9.43258e-02 
-2.30811e+00 -3.42023e+00 -1.75472e-01 
-1.32622e+00 -2.50544e+00 -1.11870e-01 
-1.51016e+00 -3.34443e+00 -1.14933e-01 
-1.43394e+00 -3.27240e+00 -1.80159e-01 
-1.29066e+00 -2.44956e+00 -1.88427e-01 
-7.56698e-01 -2.39463e+00 -1.11373e-01 
-5.86208e-01 -6.29826e-01 -7.41085e-02 
-5.09038e-17 -3.50522e-17 -2.55005e-18 
 1.11941e-17 -8.36097e-17 -2.60165e-18 
-3.43413e-01 -4.68556e-01 -5.65704e-02 
 1.83554e-17 -7.10012e-17  3.92749e-19 
-9.65151e-01 -1.54588e+00 -3.36102e-01 
-1.51601e+00 -1.64842e+00 -4.61432e-01 
 3.01481e-01 -1.63848e+00  4.40222e-02 
 2.93874e-01 -1.64310e+00  1.61387e-02 
-3.85071e-03 -1.62438e+00  1.59429e-02 
-1.27293e-01 -2.90797e-01  1.10944e-01 
-2.41786e-01 -8.09496e-01  1.39895e-01 
-2.26339e-01 -8.82242e-01  9.89604e-02 
-4.65567e-01 -9.26368e-01  1.84520e-01 
-1.00757e-01 -3.38792e-01  6.32751e-02 
-2.12321e-01 -9.14180e-01  5.97358e-02 
 7.45845e-01 -1.07748e+00  1.58539e-01 
 1.21083e+00 -1.21856e+00  3.03248e-01 
 6.81768e-01 -6.71414e-01  1.36773e-01 
-2.99388e-01 -1.63406e+00  1.50409e-02 
-2.89248e-01 -1.62584e+00 -1.07750e-02 
-3.52516e-01 -2.41587e+00 -1.30314e-02 
-8.06370e-01 -2.46929e+00 -1.58815e-02 
-1.82583e+00 -5.36569e+00  7.86906e-02 
-2.83008e+00 -6.55253e+00  1.07808e-01 
-1.85378e+00 -6.44847e+00  1.17363e-01 
-1.09081e+00 -5.31809e+00  8.48806e-02 
-1.88396e+00 -6.43957e+00  1.14609e-01 
-1.79728e+00 -5.36600e+00  6.82943e-02 
-1.03606e+00 -4.31845e+00  4.98650e-02 
-1.06229e+00 -5.31721e+00  7.83595e-02 
-9.78887e-02 -3.60384e-01  3.55296e-02 
-3.01568e-17  2.12275e-17 -5.66824e-18 
-8.34663e-03 -3.51424e-01  2.52842e-03 
 3.35641e-01 -4.64534e-01  5.25107e-02 
 3.33851e-01 -4.64808e-01  4.57008e-03 
 7.44308e-01 -1.09250e+00  8.01621e-02 
 6.88886e-01 -6.84486e-01  6.62850e-02 
-3.10484e-17  5.25313e-17 -9.15207e-18 
-2.46731e-17 -7.08175e-17 -6.26502e-19 
-3.47535e-01 -4.74083e-01 -8.19919e-03 
-5.72503e-01 -6.06314e-01 -1.49474e-01 
-1.89041e-16 -1.18470e-16  4.66124e-17 
-1.55107e-17 -3.85773e-17 -1.63645e-17 
 8.94723e-01 -3.29492e+00 -1.04092e-01 
 4.12187e-01 -4.28180e+00  1.77362e-02 
 3.78755e-01 -3.26721e+00 -2.95032e-02 
 9.42706e-01 -3.35171e+00 -7.21475e-02 
 1.03266e+00 -4.33728e+00 -1.35481e-02 
 4.58403e-01 -4.30859e+00  2.38802e-02 
 6.49700e-01 -1.69464e+00  6.87011e-02 
 7.42044e-01 -1.09486e+00  9.74667e-03 
 1.10219e+00 -1.79652e+00  8.94011e-02 
 1.23977e+00 -1.27678e+00  9.65731e-02 
-1.15351e+00 -1.21271e+00 -1.01383e-01 
-7.14005e-01 -1.05332e+00 -7.63655e-02 
 2.11323e-17 -3.76785e-17  2.15032e-18 
-5.15462e-01 -5.28750e+00  9.11777e-02 
-5.06850e-01 -4.31300e+00  8.03458e-02 
-4.87797e-01 -4.30747e+00  6.95980e-02 
 9.94918e-01 -3.30334e+00  1.90323e-01 
 1.08797e-17  2.65007e-17  1.31370e-17 
 7.95527e-02 -3.54866e-01 -3.09721e-02 
-8.39739e-18 -7.45057e-17  1.28955e-18 
 2.40292e-18  3.50146e-18  6.87754e-18 
 8.72919e-02 -3.64447e-01  3.68904e-02 
 1.89351e-01 -3.89704e-01  7.42060e-02 
 6.44156e-01 -1.69847e+00  1.58013e-02 
 8.47044e-01 -2.50387e+00  7.27899e-02 
 3.92831e-01 -2.46223e+00  2.79739e-02 
-1.14245e+00 -6.31179e+00  1.16938e-01 
-2.77450e-01 -1.60344e+00 -3.65449e-02 
-1.97068e-01 -3.97846e-01 -3.75634e-02 
-1.99829e-01 -4.00999e-01 -4.76719e-03 
 8.09845e-01 -2.43828e+00 -1.21873e-01 
 3.53476e-01 -2.40080e+00 -4.70076e-02 
 3.27005e-01 -2.32643e+00 -6.88780e-02 
 6.23369e-01 -1.52610e+00 -2.15755e-01 
 6.33520e-01 -1.61646e+00 -1.56013e-01 
 2.59595e-01 -1.48862e+00 -9.80493e-02 
-4.77948e-17  9.20834e-18  2.90396e-18 
 8.52517e-02 -3.70148e-01  1.75568e-02 
-1.51845e-17  2.38831e-17 -3.89743e-18 
-2.64177e-17 -4.48887e-18  5.93001e-18 
-1.30194e-18 -3.27737e-17 -1.16001e-18 
 2.43527e+00 -3.52052e+00 -1.01341e-01 
 2.44251e+00 -3.48255e+00 -1.74529e-01 
 1.60088e+00 -3.40362e+00 -1.26730e-01 
 1.61784e+00 -3.43721e+00 -7.15137e-02 
-6.37989e-03 -3.61097e-01  5.74937e-04 
-2.04670e-01 -9.28227e-01  2.93057e-02 
-1.16433e-02 -9.15169e-01  6.10224e-03 
-1.67880e+00 -1.89799e+00  1.03023e-01 
-7.32006e-01 -1.06150e+00  6.86883e-02 
 1.55512e+00 -3.34301e+00 -1.77994e-01 
 1.75061e+00 -4.38234e+00 -4.67373e-02 
-3.39168e-01 -1.57927e+00  1.08897e-01 
-3.44784e-02 -1.56361e+00  1.90603e-02 
-4.15493e-01 -2.43411e+00  8.14226e-02 
-3.23725e-01 -1.61612e+00  7.42353e-02 
-2.29511e-02 -1.60310e+00  1.71438e-02 
-2.68091e-01 -3.24135e-01  2.12411e-01 
 5.53204e-01 -5.28843e+00  7.65811e-02 
 5.89872e-01 -6.22420e+00  9.53326e-02 
 1.16437e+00 -5.32106e+00  7.97779e-02 
 1.15471e+00 -5.32798e+00  6.92554e-02 
 5.75691e-01 -6.23345e+00  9.37258e-02 
 1.21143e+00 -6.31861e+00  8.54468e-02 
 1.78936e+00 -4.36562e+00  1.43587e-01 
 2.38733e+00 -3.50313e+00  2.22950e-01 
 1.63031e+00 -3.43600e+00  1.36575e-01 
 1.79451e+00 -4.37478e+00  1.10707e-01 
 2.63658e+00 -4.43857e+00  1.53582e-01 
 2.41024e+00 -3.52660e+00  1.53525e-01 
-6.91972e-01 -1.62326e+00  1.96546e-01 
-6.69879e-01 -1.65864e+00  1.28958e-01 
 3.38048e-01 -4.07929e-01 -1.69803e-01 
 3.30299e-01 -4.42582e-01 -9.54113e-02 
 6.63657e-18  8.25864e-17 -5.51800e-17 
 6.87663e-01 -6.13695e-01 -2.15046e-01 
 6.82038e-01 -6.58307e-01 -1.18572e-01 
-5.92547e-01 -1.58533e+00 -1.51084e-01 
-1.22393e+00 -2.35575e+00 -2.71528e-01 
-1.27382e-16  1.57874e-17 -2.68031e-17 
-2.16131e+00 -2.61036e+00  3.07691e-01 
-1.75924e+00 -1.83727e+00  3.38588e-01 
-1.81670e+00 -1.77169e+00  4.60069e-01 
-1.17348e+00 -1.63980e+00  3.71956e-01 
-1.14492e+00 -1.70560e+00  2.76347e-01 
-8.48213e-01 -9.52805e-01  3.81783e-01 
-1.43733e+00 -2.50320e+00  2.54001e-01 
-1.41317e+00 -2.53585e+00  1.74449e-01 
 9.52035e-02 -5.29568e+00  8.93520e-02 
 7.64776e-02 -5.27381e+00  8.89527e-02 
-4.38662e-01 -6.38923e+00  1.25998e-01 
 5.73662e-17 -1.27824e-16  3.35261e-17 
 6.36108e-01 -6.16917e-01  3.56369e-01 
 3.55598e-01 -4.10567e-01  2.90555e-01 
 9.98776e-01 -3.39025e+00  7.45624e-02 
 5.36514e-01 -4.30688e+00  7.19301e-02 
 4.70371e-01 -3.36125e+00  4.24972e-02 
 4.82746e-01 -3.35374e+00  6.23882e-02 
 5.50333e-01 -4.29726e+00  8.48806e-02 
 3.43391e-02 -4.29466e+00  6.67146e-02 
 3.70579e-01 -2.44046e+00 -2.20291e-02 
-3.98903e-02 -2.38909e+00  3.01832e-02 
 2.71642e-01 -1.57357e+00 -6.99119e-02 
-5.93293e-01 -6.39855e-01 -1.18129e-02 
-7.41725e-17  1.87556e-16 -2.11052e-18 
 1.10222e+00 -4.33604e+00  7.64774e-02 
 9.90303e-01 -3.39691e+00  3.81827e-02 
 5.22803e-01 -4.31418e+00  5.90500e-02 
 1.77948e-01 -9.08497e-01 -4.42373e-02 
 2.79906e-01 -1.61695e+00 -3.96573e-02 
-4.33908e-03 -3.34659e+00  4.54316e-02 
-9.60396e-03 -2.44073e+00  2.93508e-02 
 1.11796e-02 -3.34573e+00  4.65759e-02 
-4.64475e-01 -3.35048e+00  6.73000e-02 
-4.46841e-01 -3.34852e+00  4.94907e-02 
-7.85800e-01 -1.01468e+00  2.63851e-01 
-4.22261e-17 -6.28347e-17 -3.02625e-18 
 1.07822e-16 -9.39970e-17 -1.15794e-19 
 4.10728e-01 -9.72228e-01 -4.00131e-02 
 1.81074e-01 -9.26438e-01 -1.74197e-02 
 2.86946e-01 -1.63692e+00 -1.11063e-02 
-1.27315e-02 -1.62019e+00  1.59306e-02 
 1.07444e+00 -1.67838e+00  3.47292e-01 
 6.65510e-01 -1.57348e+00  2.51036e-01 
 1.82178e-01 -3.76455e-01 -6.42189e-02 
-1.71074e+00 -1.87812e+00  2.14324e-01 
-1.11168e+00 -1.74175e+00  1.77387e-01 
-2.85833e+00 -5.44407e+00  1.10829e-01 
-1.80645e+00 -4.36983e+00  1.37215e-01 
-1.89654e+00 -5.39859e+00  1.20200e-01 
-2.89224e+00 -6.57795e+00  1.03433e-01 
-2.82426e+00 -5.42674e+00  9.67618e-02 
-1.08709e+00 -1.75786e+00  8.81847e-02 
-4.31069e-01 -9.70984e-01  5.07487e-02 
-2.09257e+00 -2.66262e+00  1.11245e-01 
 2.80716e+00 -5.44699e+00  6.94182e-02 
 2.81879e+00 -5.45881e+00  6.15954e-02 
 2.65569e+00 -4.45773e+00  1.41941e-02 
 1.88591e+00 -5.38304e+00  6.57790e-02 
 1.95562e+00 -6.46004e+00  7.39946e-02 
-5.47532e-01 -6.22735e+00  1.13868e-01 
 3.12337e-02 -6.18849e+00  1.05609e-01 
-5.25565e-01 -6.21992e+00  1.13629e-01 
 1.80469e-02 -5.27370e+00  8.46253e-02 
 3.61974e-02 -5.26660e+00  8.56760e-02 
 8.12470e-02 -3.65854e-01 -1.42209e-02 
-1.49944e-17  1.31583e-16  9.49918e-19 
 2.17856e-17 -4.43760e-17  1.95664e-17 
 6.55951e-01 -1.67754e+00  1.25472e-01 
 4.11863e-01 -3.34882e-01 -3.08829e-01 
 8.20549e-01 -5.09966e-01 -4.18040e-01 
 7.99823e-01 -9.03088e-01 -3.56826e-01 
 7.61782e-01 -1.00292e+00 -2.42824e-01 
 1.28333e+00 -1.16308e+00 -3.23490e-01 
 1.78260e+00 -4.39176e+00  1.83774e-02 
 5.07985e-01 -3.30991e+00  1.04972e-01 
 1.62258e+00 -3.45301e+00 -1.73119e-02 