<?xml version="1.0" encoding="utf-8"?>
<VTKFile byte_order="LittleEndian" type="UnstructuredGrid" version="0.1">
   <UnstructuredGrid>
      <Piece NumberOfCells="96" NumberOfPoints="96">
         <Points>
            <DataArray Name="Points" NumberOfComponents="3" format="ascii" type="Float32">
-0.1579 -0.0526 0.0000
-0.1579 0.0526 0.0000
-0.0526 -0.1579 0.0000
-0.0526 0.1579 0.0000
0.0526 -0.1579 0.0000
0.0526 0.1579 0.0000
0.1579 -0.0526 0.0000
0.1579 0.0526 0.0000
-0.1053 -0.1053 0.0000
-0.1053 0.1053 0.0000
0.1053 -0.1053 0.0000
0.1053 0.1053 0.0000
1.8421 -0.0526 0.0000
1.8421 0.0526 0.0000
1.9474 -0.1579 0.0000
1.9474 0.1579 0.0000
2.0526 -0.1579 0.0000
2.0526 0.1579 0.0000
2.1579 -0.0526 0.0000
2.1579 0.0526 0.0000
1.8947 -0.1053 0.0000
1.8947 0.1053 0.0000
2.1053 -0.1053 0.0000
2.1053 0.1053 0.0000
3.8421 -0.0526 0.0000
3.8421 0.0526 0.0000
3.9474 -0.1579 0.0000
3.9474 0.1579 0.0000
4.0526 -0.1579 0.0000
4.0526 0.1579 0.0000
4.1579 -0.0526 0.0000
4.1579 0.0526 0.0000
3.8947 -0.1053 0.0000
3.8947 0.1053 0.0000
4.1053 -0.1053 0.0000
4.1053 0.1053 0.0000
-0.0843 -0.0526 0.0000
-0.1054 -0.0001 0.0000
-0.0843 0.0526 0.0000
-0.1054 0.0001 0.0000
-0.0526 -0.0843 0.0000
-0.0001 -0.1054 0.0000
-0.0725 -0.0725 0.0000
-0.0526 0.0843 0.0000
-0.0725 0.0725 0.0000
-0.0001 0.1054 0.0000
0.0526 -0.0843 0.0000
0.0001 -0.1054 0.0000
0.0843 -0.0526 0.0000
0.0725 -0.0725 0.0000
0.0526 0.0843 0.0000
0.0843 0.0526 0.0000
0.0725 0.0725 0.0000
0.0001 0.1054 0.0000
0.1054 -0.0001 0.0000
0.1054 0.0001 0.0000
1.9157 -0.0526 0.0000
1.8946 -0.0001 0.0000
1.9157 0.0526 0.0000
1.8946 0.0001 0.0000
1.9474 -0.0843 0.0000
1.9999 -0.1054 0.0000
1.9275 -0.0725 0.0000
1.9474 0.0843 0.0000
1.9275 0.0725 0.0000
1.9999 0.1054 0.0000
2.0526 -0.0843 0.0000
2.0001 -0.1054 0.0000
2.0843 -0.0526 0.0000
2.0725 -0.0725 0.0000
2.0526 0.0843 0.0000
2.0843 0.0526 0.0000
2.0725 0.0725 0.0000
2.0001 0.1054 0.0000
2.1054 -0.0001 0.0000
2.1054 0.0001 0.0000
3.9157 -0.0526 0.0000
3.8946 -0.0001 0.0000
3.9157 0.0526 0.0000
3.8946 0.0001 0.0000
3.9474 -0.0843 0.0000
3.9999 -0.1054 0.0000
3.9275 -0.0725 0.0000
3.9474 0.0843 0.0000
3.9275 0.0725 0.0000
3.9999 0.1054 0.0000
4.0526 -0.0843 0.0000
4.0001 -0.1054 0.0000
4.0843 -0.0526 0.0000
4.0725 -0.0725 0.0000
4.0526 0.0843 0.0000
4.0843 0.0526 0.0000
4.0725 0.0725 0.0000
4.0001 0.1054 0.0000
4.1054 -0.0001 0.0000
4.1054 0.0001 0.0000</DataArray>
         </Points>
         <Cells>
            <DataArray Name="connectivity" format="ascii" type="Int32">
 1 37 39
 1 0 37
 40 2 41
 3 43 45
 46 4 10
 49 46 10
 50 52 11
 5 50 11
 36 0 8
 42 36 8
 38 1 39
 5 3 53
 3 45 53
 48 49 10
 6 48 10
 7 51 55
 40 42 8
 2 40 8
 43 3 9
 44 43 9
 4 46 47
 50 5 53
 6 7 54
 7 55 54
 0 36 37
 38 44 9
 1 38 9
 2 4 41
 4 47 41
 48 6 54
 51 7 11
 52 51 11
 13 12 59
 12 57 59
 60 14 61
 15 63 65
 66 16 22
 69 66 22
 70 72 23
 17 70 23
 56 12 20
 62 56 20
 58 13 59
 17 65 73
 17 15 65
 68 69 22
 18 68 22
 19 71 75
 60 62 20
 14 60 20
 63 15 21
 64 63 21
 16 66 67
 70 17 73
 18 19 74
 19 75 74
 12 56 57
 58 64 21
 13 58 21
 14 67 61
 14 16 67
 68 18 74
 71 19 23
 72 71 23
 25 24 79
 24 77 79
 80 26 81
 27 83 85
 86 28 34
 89 86 34
 90 92 35
 29 90 35
 76 24 32
 82 76 32
 78 25 79
 29 27 93
 27 85 93
 88 89 34
 30 88 34
 31 91 95
 80 82 32
 26 80 32
 83 27 33
 84 83 33
 28 86 87
 90 29 93
 30 31 94
 31 95 94
 24 76 77
 78 84 33
 25 78 33
 26 28 81
 28 87 81
 88 30 94
 91 31 35
 92 91 35</DataArray>
            <DataArray Name="offsets" format="ascii" type="Int32">3 6 9 12 15 18 21 24 27 30 33 36 39 42 45 48 51 54 57 60 63 66 69 72 75 78 81 84 87 90 93 96 99 102 105 108 111 114 117 120 123 126 129 132 135 138 141 144 147 150 153 156 159 162 165 168 171 174 177 180 183 186 189 192 195 198 201 204 207 210 213 216 219 222 225 228 231 234 237 240 243 246 249 252 255 258 261 264 267 270 273 276 279 282 285 288 </DataArray>
            <DataArray Name="types" format="ascii" type="UInt8">5 5 5 5 5 5 5 5 5 5 5 5 5 5 5 5 5 5 5 5 5 5 5 5 5 5 5 5 5 5 5 5 5 5 5 5 5 5 5 5 5 5 5 5 5 5 5 5 5 5 5 5 5 5 5 5 5 5 5 5 5 5 5 5 5 5 5 5 5 5 5 5 5 5 5 5 5 5 5 5 5 5 5 5 5 5 5 5 5 5 5 5 5 5 5 5 </DataArray>
         </Cells>
         <PointData>
            <DataArray Name="fValues" NumberOfComponents="3" format="ascii" type="Float64">
 2.18250e-01  4.43284e+00        00000 
-2.19688e-01  4.43056e+00        00000 
 8.72852e-01  5.26266e+00        00000 
-8.71051e-01  5.26002e+00        00000 
 9.94488e-01  6.11968e+00        00000 
-9.90535e-01  6.12039e+00        00000 
 3.65734e-01  6.89662e+00        00000 
-3.65248e-01  6.89675e+00        00000 
 5.02197e-01  4.81379e+00        00000 
-5.01978e-01  4.82018e+00        00000 
 6.91001e-01  6.50561e+00        00000 
-6.98675e-01  6.50711e+00        00000 
 7.69207e-01  2.85518e+01        00000 
-7.70374e-01  2.85500e+01        00000 
 2.46098e+00  3.04139e+01        00000 
-2.46025e+00  3.04120e+01        00000 
 2.53439e+00  3.23147e+01        00000 
-2.53151e+00  3.23147e+01        00000 
 8.58076e-01  3.41451e+01        00000 
-8.57331e-01  3.41448e+01        00000 
 1.58457e+00  2.94560e+01        00000 
-1.58278e+00  2.94614e+01        00000 
 1.69627e+00  3.32329e+01        00000 
-1.70238e+00  3.32354e+01        00000 
 1.06137e+00  6.82887e+01        00000 
-1.06161e+00  6.82875e+01        00000 
 3.27073e+00  7.06583e+01        00000 
-3.27018e+00  7.06570e+01        00000 
 3.29621e+00  7.30759e+01        00000 
-3.29344e+00  7.30753e+01        00000 
 1.09221e+00  7.54348e+01        00000 
-1.09001e+00  7.54340e+01        00000 
 2.14863e+00  6.94542e+01        00000 
-2.14469e+00  6.94585e+01        00000 
 2.18398e+00  7.42635e+01        00000 
-2.18728e+00  7.42668e+01        00000 
 2.07463e-01  4.94262e+00        00000 
-1.38012e-04  4.77163e+00        00000 
-2.03404e-01  4.94956e+00        00000 
-9.20043e-04  4.77162e+00        00000 
 4.04662e-01  5.19261e+00        00000 
 5.83283e-01  5.66721e+00        00000 
 3.15549e-01  5.03113e+00        00000 
-3.99627e-01  5.19944e+00        00000 
-3.11459e-01  5.04034e+00        00000 
-5.77168e-01  5.66612e+00        00000 
 5.12153e-01  6.10958e+00        00000 
 5.83500e-01  5.66875e+00        00000 
 3.22740e-01  6.34363e+00        00000 
 4.49858e-01  6.25599e+00        00000 
-5.13915e-01  6.10961e+00        00000 
-3.25547e-01  6.34349e+00        00000 
-4.55382e-01  6.25640e+00        00000 
-5.77381e-01  5.66766e+00        00000 
 1.21337e-03  6.49984e+00        00000 
-9.19520e-05  6.49984e+00        00000 
 7.52636e-01  2.97991e+01        00000 
 8.79370e-04  2.94228e+01        00000 
-7.48749e-01  2.98046e+01        00000 
-1.86988e-03  2.94228e+01        00000 
 1.26228e+00  3.03600e+01        00000 
 1.62611e+00  3.13487e+01        00000 
 1.06146e+00  3.00051e+01        00000 
-1.25782e+00  3.03655e+01        00000 
-1.05700e+00  3.00126e+01        00000 
-1.62236e+00  3.13476e+01        00000 
 1.32542e+00  3.23187e+01        00000 
 1.62624e+00  3.13521e+01        00000 
 8.20426e-01  3.28701e+01        00000 
 1.14012e+00  3.26640e+01        00000 
-1.32776e+00  3.23201e+01        00000 
-8.23411e-01  3.28714e+01        00000 
-1.14528e+00  3.26662e+01        00000 
-1.62249e+00  3.13510e+01        00000 
 2.12092e-03  3.32389e+01        00000 
-9.42303e-04  3.32389e+01        00000 
 1.03990e+00  6.99076e+01        00000 
 1.77044e-03  6.94309e+01        00000 
-1.03560e+00  6.99116e+01        00000 
-2.02060e-03  6.94309e+01        00000 
 1.70547e+00  7.06215e+01        00000 
 2.15116e+00  7.18603e+01        00000 
 1.45163e+00  7.01720e+01        00000 
-1.70093e+00  7.06254e+01        00000 
-1.44625e+00  7.01775e+01        00000 
-2.14885e+00  7.18592e+01        00000 
 1.72475e+00  7.30932e+01        00000 
 2.15120e+00  7.18646e+01        00000 
 1.06080e+00  7.38038e+01        00000 
 1.47530e+00  7.35385e+01        00000 
-1.72648e+00  7.30958e+01        00000 
-1.06270e+00  7.38064e+01        00000 
-1.47883e+00  7.35422e+01        00000 
-2.14889e+00  7.18635e+01        00000 
 3.15205e-03  7.42801e+01        00000 
-7.44766e-04  7.42801e+01        00000 </DataArray>
         </PointData>
         <CellData/>
      </Piece>
   </UnstructuredGrid>
</VTKFile>