<?xml version="1.0" encoding="utf-8"?>
<VTKFile byte_order="LittleEndian" type="UnstructuredGrid" version="0.1">
   <UnstructuredGrid>
      <Piece NumberOfCells="412" NumberOfPoints="412">
         <Points>
            <DataArray Name="Points" NumberOfComponents="3" format="ascii" type="Float32">
-0.1579 -0.0526 0.0000
-0.1579 0.0526 0.0000
-0.0526 -0.1579 0.0000
-0.0526 0.1579 0.0000
0.0526 -0.1579 0.0000
0.0526 0.1579 0.0000
0.1579 -0.0526 0.0000
0.1579 0.0526 0.0000
-0.1053 -0.1053 0.0000
-0.1053 0.1053 0.0000
0.1053 -0.1053 0.0000
0.1053 0.1053 0.0000
1.4211 -0.1579 0.0000
1.4211 -0.0526 0.0000
1.4211 0.0526 0.0000
1.4211 0.1579 0.0000
1.5263 -0.2632 0.0000
1.5263 0.2632 0.0000
1.6316 -0.3684 0.0000
1.6316 0.3684 0.0000
1.7368 -0.4737 0.0000
1.7368 0.4737 0.0000
1.8421 -0.5789 0.0000
1.8421 0.5789 0.0000
1.9474 -0.5789 0.0000
1.9474 0.5789 0.0000
2.0526 -0.5789 0.0000
2.0526 0.5789 0.0000
2.1579 -0.5789 0.0000
2.1579 0.5789 0.0000
2.2632 -0.4737 0.0000
2.2632 0.4737 0.0000
2.3684 -0.3684 0.0000
2.3684 0.3684 0.0000
2.4737 -0.2632 0.0000
2.4737 0.2632 0.0000
2.5789 -0.1579 0.0000
2.5789 -0.0526 0.0000
2.5789 0.0526 0.0000
2.5789 0.1579 0.0000
1.4737 -0.2105 0.0000
1.4737 -0.1053 0.0000
1.4737 0.0000 0.0000
1.4737 0.1053 0.0000
1.4737 0.2105 0.0000
1.5789 -0.3158 0.0000
1.5789 0.3158 0.0000
1.6842 -0.4211 0.0000
1.6842 0.4211 0.0000
1.7895 -0.5263 0.0000
1.7895 0.5263 0.0000
1.8947 -0.5263 0.0000
1.8947 0.5263 0.0000
2.0000 -0.5263 0.0000
2.0000 0.5263 0.0000
2.1053 -0.5263 0.0000
2.1053 0.5263 0.0000
2.2105 -0.5263 0.0000
2.2105 0.5263 0.0000
2.3158 -0.4211 0.0000
2.3158 0.4211 0.0000
2.4211 -0.3158 0.0000
2.4211 0.3158 0.0000
2.5263 -0.2105 0.0000
2.5263 -0.1053 0.0000
2.5263 0.0000 0.0000
2.5263 0.1053 0.0000
2.5263 0.2105 0.0000
3.1053 -0.2632 0.0000
3.1053 -0.1579 0.0000
3.1053 -0.0526 0.0000
3.1053 0.0526 0.0000
3.1053 0.1579 0.0000
3.1053 0.2632 0.0000
3.2105 -0.4737 0.0000
3.2105 -0.3684 0.0000
3.2105 0.3684 0.0000
3.2105 0.4737 0.0000
3.3158 -0.5789 0.0000
3.3158 0.5789 0.0000
3.4211 -0.6842 0.0000
3.4211 0.6842 0.0000
3.5263 -0.7895 0.0000
3.5263 0.7895 0.0000
3.6316 -0.7895 0.0000
3.6316 0.7895 0.0000
3.7368 -0.8947 0.0000
3.7368 0.8947 0.0000
3.8421 -0.8947 0.0000
3.8421 0.8947 0.0000
3.9474 -0.8947 0.0000
3.9474 0.8947 0.0000
4.0526 -0.8947 0.0000
4.0526 0.8947 0.0000
4.1579 -0.8947 0.0000
4.1579 0.8947 0.0000
4.2632 -0.8947 0.0000
4.2632 0.8947 0.0000
4.3684 -0.7895 0.0000
4.3684 0.7895 0.0000
4.4737 -0.7895 0.0000
4.4737 0.7895 0.0000
4.5789 -0.6842 0.0000
4.5789 0.6842 0.0000
4.6842 -0.5789 0.0000
4.6842 0.5789 0.0000
4.7895 -0.4737 0.0000
4.7895 -0.3684 0.0000
4.7895 0.3684 0.0000
4.7895 0.4737 0.0000
4.8947 -0.2632 0.0000
4.8947 -0.1579 0.0000
4.8947 -0.0526 0.0000
4.8947 0.0526 0.0000
4.8947 0.1579 0.0000
4.8947 0.2632 0.0000
3.1579 -0.3158 0.0000
3.1579 -0.2105 0.0000
3.1579 0.2105 0.0000
3.1579 0.3158 0.0000
3.2632 -0.5263 0.0000
3.2632 0.5263 0.0000
3.3684 -0.6316 0.0000
3.3684 0.6316 0.0000
3.4737 -0.7368 0.0000
3.4737 0.7368 0.0000
3.6842 -0.8421 0.0000
3.6842 0.8421 0.0000
3.7895 -0.8421 0.0000
3.7895 0.8421 0.0000
4.2105 -0.8421 0.0000
4.2105 0.8421 0.0000
4.3158 -0.8421 0.0000
4.3158 0.8421 0.0000
4.5263 -0.7368 0.0000
4.5263 0.7368 0.0000
4.6316 -0.6316 0.0000
4.6316 0.6316 0.0000
4.7368 -0.5263 0.0000
4.7368 0.5263 0.0000
4.8421 -0.3158 0.0000
4.8421 -0.2105 0.0000
4.8421 0.2105 0.0000
4.8421 0.3158 0.0000
-0.0843 -0.0526 0.0000
-0.1054 -0.0001 0.0000
-0.0843 0.0526 0.0000
-0.1054 0.0001 0.0000
-0.0526 -0.0843 0.0000
-0.0001 -0.1054 0.0000
-0.0725 -0.0725 0.0000
-0.0526 0.0843 0.0000
-0.0725 0.0725 0.0000
-0.0001 0.1054 0.0000
0.0526 -0.0843 0.0000
0.0001 -0.1054 0.0000
0.0843 -0.0526 0.0000
0.0725 -0.0725 0.0000
0.0526 0.0843 0.0000
0.0843 0.0526 0.0000
0.0725 0.0725 0.0000
0.0001 0.1054 0.0000
0.1054 -0.0001 0.0000
0.1054 0.0001 0.0000
1.5236 -0.1579 0.0000
1.5025 -0.0526 0.0000
1.5025 0.0526 0.0000
1.5236 0.1579 0.0000
1.5263 -0.1648 0.0000
1.5755 -0.2632 0.0000
1.5571 -0.2324 0.0000
1.5242 -0.1600 0.0000
1.5225 -0.1541 0.0000
1.5051 -0.0739 0.0000
1.5004 -0.0267 0.0000
1.5004 0.0267 0.0000
1.5051 0.0739 0.0000
1.5263 0.1648 0.0000
1.5225 0.1541 0.0000
1.5242 0.1600 0.0000
1.5755 0.2632 0.0000
1.5571 0.2324 0.0000
1.6316 -0.3379 0.0000
1.6621 -0.3684 0.0000
1.6459 -0.3541 0.0000
1.5976 -0.2971 0.0000
1.6316 0.3379 0.0000
1.5976 0.2971 0.0000
1.6621 0.3684 0.0000
1.6459 0.3541 0.0000
1.7368 -0.4245 0.0000
1.8352 -0.4737 0.0000
1.7676 -0.4429 0.0000
1.7029 -0.4024 0.0000
1.7368 0.4245 0.0000
1.7029 0.4024 0.0000
1.8352 0.4737 0.0000
1.7676 0.4429 0.0000
1.8421 -0.4764 0.0000
1.8400 -0.4758 0.0000
1.8459 -0.4775 0.0000
1.8421 0.4764 0.0000
1.8400 0.4758 0.0000
1.8459 0.4775 0.0000
1.9474 -0.4975 0.0000
1.9261 -0.4949 0.0000
1.9733 -0.4996 0.0000
1.9474 0.4975 0.0000
1.9261 0.4949 0.0000
1.9733 0.4996 0.0000
2.0526 -0.4975 0.0000
2.0267 -0.4996 0.0000
2.0739 -0.4949 0.0000
2.0526 0.4975 0.0000
2.0267 0.4996 0.0000
2.0739 0.4949 0.0000
2.1579 -0.4764 0.0000
2.1648 -0.4737 0.0000
2.1541 -0.4775 0.0000
2.1600 -0.4758 0.0000
2.1579 0.4764 0.0000
2.1648 0.4737 0.0000
2.1541 0.4775 0.0000
2.1600 0.4758 0.0000
2.2632 -0.4245 0.0000
2.2324 -0.4429 0.0000
2.3379 -0.3684 0.0000
2.2971 -0.4024 0.0000
2.2632 0.4245 0.0000
2.3379 0.3684 0.0000
2.2971 0.4024 0.0000
2.2324 0.4429 0.0000
2.3684 -0.3379 0.0000
2.3541 -0.3541 0.0000
2.4245 -0.2632 0.0000
2.4024 -0.2971 0.0000
2.3684 0.3379 0.0000
2.4245 0.2632 0.0000
2.4024 0.2971 0.0000
2.3541 0.3541 0.0000
2.4737 -0.1648 0.0000
2.4429 -0.2324 0.0000
2.4764 -0.1579 0.0000
2.4758 -0.1600 0.0000
2.4775 -0.1541 0.0000
2.4975 -0.0526 0.0000
2.4949 -0.0739 0.0000
2.4996 -0.0267 0.0000
2.4975 0.0526 0.0000
2.4996 0.0267 0.0000
2.4949 0.0739 0.0000
2.4737 0.1648 0.0000
2.4764 0.1579 0.0000
2.4775 0.1541 0.0000
2.4758 0.1600 0.0000
2.4429 0.2324 0.0000
3.1914 -0.2632 0.0000
3.1651 -0.1579 0.0000
3.1562 -0.1070 0.0000
3.1519 -0.0526 0.0000
3.1557 -0.1031 0.0000
3.1497 -0.0082 0.0000
3.1519 0.0526 0.0000
3.1497 0.0082 0.0000
3.1557 0.1031 0.0000
3.1651 0.1579 0.0000
3.1562 0.1070 0.0000
3.1914 0.2632 0.0000
3.2939 -0.4737 0.0000
3.2617 -0.4225 0.0000
3.2105 -0.3141 0.0000
3.2338 -0.3684 0.0000
3.2584 -0.4163 0.0000
3.2262 -0.3528 0.0000
3.1961 -0.2776 0.0000
3.1832 -0.2358 0.0000
3.1727 -0.1958 0.0000
3.1727 0.1958 0.0000
3.2105 0.3141 0.0000
3.1832 0.2358 0.0000
3.1961 0.2776 0.0000
3.2338 0.3684 0.0000
3.2262 0.3528 0.0000
3.2584 0.4163 0.0000
3.2939 0.4737 0.0000
3.2617 0.4225 0.0000
3.3158 -0.5043 0.0000
3.3780 -0.5789 0.0000
3.3485 -0.5462 0.0000
3.3026 -0.4869 0.0000
3.3158 0.5043 0.0000
3.3026 0.4869 0.0000
3.3780 0.5789 0.0000
3.3485 0.5462 0.0000
3.4211 -0.6220 0.0000
3.4957 -0.6842 0.0000
3.4538 -0.6515 0.0000
3.3988 -0.6012 0.0000
3.4211 0.6220 0.0000
3.3988 0.6012 0.0000
3.4957 0.6842 0.0000
3.4538 0.6515 0.0000
3.5263 -0.7061 0.0000
3.5775 -0.7383 0.0000
3.5131 -0.6974 0.0000
3.5263 0.7061 0.0000
3.5131 0.6974 0.0000
3.5775 0.7383 0.0000
3.6316 -0.7662 0.0000
3.6859 -0.7895 0.0000
3.5837 -0.7416 0.0000
3.6472 -0.7738 0.0000
3.6316 0.7662 0.0000
3.6859 0.7895 0.0000
3.5837 0.7416 0.0000
3.6472 0.7738 0.0000
3.7368 -0.8086 0.0000
3.7224 -0.8039 0.0000
3.7642 -0.8168 0.0000
3.7368 0.8086 0.0000
3.7224 0.8039 0.0000
3.7642 0.8168 0.0000
3.8421 -0.8349 0.0000
3.8930 -0.8438 0.0000
3.8042 -0.8273 0.0000
3.8421 0.8349 0.0000
3.8042 0.8273 0.0000
3.8930 0.8438 0.0000
3.9474 -0.8481 0.0000
3.8969 -0.8443 0.0000
3.9918 -0.8503 0.0000
3.9474 0.8481 0.0000
3.8969 0.8443 0.0000
3.9918 0.8503 0.0000
4.0526 -0.8481 0.0000
4.0082 -0.8503 0.0000
4.1031 -0.8443 0.0000
4.0526 0.8481 0.0000
4.0082 0.8503 0.0000
4.1031 0.8443 0.0000
4.1579 -0.8349 0.0000
4.1070 -0.8438 0.0000
4.1958 -0.8273 0.0000
4.1579 0.8349 0.0000
4.1958 0.8273 0.0000
4.1070 0.8438 0.0000
4.2632 -0.8086 0.0000
4.3141 -0.7895 0.0000
4.2358 -0.8168 0.0000
4.2776 -0.8039 0.0000
4.2632 0.8086 0.0000
4.3141 0.7895 0.0000
4.2358 0.8168 0.0000
4.2776 0.8039 0.0000
4.3684 -0.7662 0.0000
4.3528 -0.7738 0.0000
4.4163 -0.7416 0.0000
4.3684 0.7662 0.0000
4.3528 0.7738 0.0000
4.4163 0.7416 0.0000
4.4737 -0.7061 0.0000
4.4225 -0.7383 0.0000
4.5043 -0.6842 0.0000
4.4869 -0.6974 0.0000
4.4737 0.7061 0.0000
4.5043 0.6842 0.0000
4.4869 0.6974 0.0000
4.4225 0.7383 0.0000
4.5789 -0.6220 0.0000
4.5462 -0.6515 0.0000
4.6220 -0.5789 0.0000
4.6012 -0.6012 0.0000
4.5789 0.6220 0.0000
4.6220 0.5789 0.0000
4.6012 0.6012 0.0000
4.5462 0.6515 0.0000
4.6842 -0.5043 0.0000
4.6515 -0.5462 0.0000
4.7061 -0.4737 0.0000
4.6974 -0.4869 0.0000
4.7662 -0.3684 0.0000
4.7662 0.3684 0.0000
4.6842 0.5043 0.0000
4.7061 0.4737 0.0000
4.6974 0.4869 0.0000
4.6515 0.5462 0.0000
4.7383 -0.4225 0.0000
4.7895 -0.3141 0.0000
4.7416 -0.4163 0.0000
4.7738 -0.3528 0.0000
4.8086 -0.2632 0.0000
4.8039 -0.2776 0.0000
4.8168 -0.2358 0.0000
4.8349 -0.1579 0.0000
4.8273 -0.1958 0.0000
4.8481 -0.0526 0.0000
4.8481 0.0526 0.0000
4.8349 0.1579 0.0000
4.8273 0.1958 0.0000
4.7895 0.3141 0.0000
4.8086 0.2632 0.0000
4.8168 0.2358 0.0000
4.8039 0.2776 0.0000
4.7738 0.3528 0.0000
4.7416 0.4163 0.0000
4.7383 0.4225 0.0000
4.8438 -0.1070 0.0000
4.8443 -0.1031 0.0000
4.8503 -0.0082 0.0000
4.8503 0.0082 0.0000
4.8443 0.1031 0.0000
4.8438 0.1070 0.0000</DataArray>
         </Points>
         <Cells>
            <DataArray Name="connectivity" format="ascii" type="Int32">
 1 145 147
 1 0 145
 148 2 149
 3 151 153
 154 4 10
 157 154 10
 158 160 11
 5 158 11
 144 0 8
 150 144 8
 146 1 147
 5 3 161
 3 153 161
 156 157 10
 6 156 10
 7 159 163
 148 150 8
 2 148 8
 151 3 9
 152 151 9
 4 154 155
 158 5 161
 6 163 162
 6 7 163
 0 144 145
 146 152 9
 1 146 9
 2 4 149
 4 155 149
 156 6 162
 159 7 11
 160 159 11
 168 16 170
 17 177 181
 182 18 184
 19 186 189
 190 20 192
 21 194 197
 22 51 200
 198 22 200
 23 201 203
 23 203 52
 204 24 53
 206 204 53
 207 209 54
 25 207 54
 210 26 55
 212 210 55
 213 215 56
 27 213 56
 216 28 57
 219 216 57
 220 223 58
 29 220 58
 224 30 59
 227 224 59
 228 230 60
 31 228 60
 232 32 61
 235 232 61
 236 238 62
 33 236 62
 240 34 63
 243 240 63
 244 64 246
 247 65 249
 250 66 253
 251 254 67
 35 251 67
 164 12 40
 171 164 40
 165 13 41
 173 165 41
 166 14 42
 175 166 42
 15 43 178
 167 15 178
 169 16 45
 185 169 45
 180 17 181
 183 18 47
 193 183 47
 188 19 189
 191 20 49
 199 191 49
 196 21 197
 200 51 205
 206 53 211
 212 55 218
 217 219 57
 30 217 57
 31 221 231
 226 227 59
 32 226 59
 33 229 239
 234 235 61
 34 234 61
 35 237 255
 242 243 63
 36 242 63
 245 246 64
 37 245 64
 248 249 65
 38 248 65
 39 252 253
 39 253 66
 168 171 40
 16 168 40
 173 41 172
 175 42 174
 178 43 176
 177 17 44
 179 177 44
 182 185 45
 18 182 45
 186 19 46
 187 186 46
 190 193 47
 20 190 47
 194 21 48
 195 194 48
 198 199 49
 22 198 49
 201 23 50
 202 201 50
 204 205 51
 24 204 51
 207 25 52
 208 207 52
 210 211 53
 26 210 53
 213 27 54
 214 213 54
 28 216 218
 28 218 55
 29 56 222
 220 29 222
 30 224 225
 228 31 231
 32 232 233
 236 33 239
 34 240 241
 251 35 255
 12 164 172
 12 172 41
 165 174 42
 13 165 42
 166 176 43
 14 166 43
 167 179 44
 15 167 44
 16 169 170
 180 187 46
 17 180 46
 18 183 184
 188 195 48
 19 188 48
 20 191 192
 196 202 50
 21 196 50
 208 52 203
 214 54 209
 222 56 215
 217 30 225
 221 31 58
 223 221 58
 226 32 233
 229 33 60
 230 229 60
 234 34 241
 237 35 62
 238 237 62
 36 64 244
 242 36 244
 245 37 65
 247 245 65
 248 38 66
 250 248 66
 252 39 67
 254 252 67
 70 69 260
 69 258 260
 71 70 263
 70 261 263
 72 264 266
 72 71 264
 75 74 272
 74 269 272
 270 75 273
 76 278 282
 77 283 285
 77 76 283
 286 78 288
 79 290 293
 294 80 296
 81 298 301
 302 82 303
 83 305 307
 308 84 311
 85 312 315
 86 128 318
 316 86 318
 87 319 321
 87 321 129
 322 88 323
 89 325 327
 328 90 330
 91 331 333
 334 92 336
 93 337 339
 340 94 130
 342 340 130
 343 344 131
 95 343 131
 346 96 132
 349 346 132
 350 353 133
 97 350 133
 354 98 356
 99 357 359
 360 100 134
 363 360 134
 364 366 135
 101 364 135
 368 102 136
 371 368 136
 372 374 137
 103 372 137
 376 104 138
 379 376 138
 382 384 139
 105 382 139
 387 107 140
 391 387 140
 392 141 394
 398 142 401
 399 402 143
 108 399 143
 256 68 116
 274 256 116
 257 69 117
 276 257 117
 259 70 260
 262 71 263
 265 72 266
 73 118 279
 267 73 279
 268 74 120
 289 268 120
 271 75 272
 281 76 282
 284 77 285
 287 78 122
 297 287 122
 292 79 293
 295 80 124
 304 295 124
 300 81 301
 85 83 314
 83 307 314
 309 84 126
 317 309 126
 313 85 315
 318 128 324
 91 89 332
 89 327 332
 93 333 338
 93 91 333
 95 339 345
 95 93 339
 342 130 348
 347 349 132
 98 347 132
 99 351 358
 101 359 367
 101 99 359
 362 363 134
 102 362 134
 103 365 375
 370 371 136
 104 370 136
 105 373 385
 378 379 138
 106 378 138
 107 380 388
 108 381 403
 109 383 405
 390 391 140
 110 390 140
 393 394 141
 111 393 141
 112 395 407
 113 396 409
 114 397 411
 115 400 401
 115 401 142
 270 274 116
 75 270 116
 276 117 275
 279 118 277
 278 76 119
 280 278 119
 286 289 120
 78 286 120
 290 79 121
 291 290 121
 294 297 122
 80 294 122
 298 81 123
 299 298 123
 302 304 124
 82 302 124
 305 83 125
 306 305 125
 84 308 310
 312 85 314
 316 317 126
 86 316 126
 319 87 127
 320 319 127
 322 324 128
 88 322 128
 325 89 129
 326 325 129
 90 328 329
 331 91 332
 92 334 335
 337 93 338
 94 340 341
 343 95 345
 96 346 348
 96 348 130
 97 131 352
 350 97 352
 98 354 355
 357 99 358
 100 360 361
 364 101 367
 102 368 369
 372 103 375
 104 376 377
 382 105 385
 106 388 386
 106 107 388
 107 387 389
 399 108 403
 108 109 404
 109 405 404
 111 407 406
 111 112 407
 112 113 408
 113 409 408
 113 114 410
 114 411 410
 68 256 275
 68 275 117
 69 257 258
 70 259 261
 71 262 264
 265 277 118
 72 265 118
 267 280 119
 73 267 119
 74 268 269
 75 271 273
 76 281 283
 284 291 121
 77 284 121
 78 287 288
 292 299 123
 79 292 123
 80 295 296
 300 306 125
 81 300 125
 82 310 303
 82 84 310
 84 309 311
 313 320 127
 85 313 127
 326 129 321
 88 329 323
 88 90 329
 90 335 330
 90 92 335
 92 94 336
 94 341 336
 352 131 344
 347 98 355
 351 99 133
 353 351 133
 98 100 356
 100 361 356
 362 102 369
 365 103 135
 366 365 135
 370 104 377
 373 105 137
 374 373 137
 378 106 386
 380 107 389
 381 108 404
 383 109 139
 384 383 139
 110 141 392
 390 110 392
 393 111 406
 395 112 408
 396 113 410
 397 114 142
 398 397 142
 400 115 143
 402 400 143</DataArray>
            <DataArray Name="offsets" format="ascii" type="Int32">3 6 9 12 15 18 21 24 27 30 33 36 39 42 45 48 51 54 57 60 63 66 69 72 75 78 81 84 87 90 93 96 99 102 105 108 111 114 117 120 123 126 129 132 135 138 141 144 147 150 153 156 159 162 165 168 171 174 177 180 183 186 189 192 195 198 201 204 207 210 213 216 219 222 225 228 231 234 237 240 243 246 249 252 255 258 261 264 267 270 273 276 279 282 285 288 291 294 297 300 303 306 309 312 315 318 321 324 327 330 333 336 339 342 345 348 351 354 357 360 363 366 369 372 375 378 381 384 387 390 393 396 399 402 405 408 411 414 417 420 423 426 429 432 435 438 441 444 447 450 453 456 459 462 465 468 471 474 477 480 483 486 489 492 495 498 501 504 507 510 513 516 519 522 525 528 531 534 537 540 543 546 549 552 555 558 561 564 567 570 573 576 579 582 585 588 591 594 597 600 603 606 609 612 615 618 621 624 627 630 633 636 639 642 645 648 651 654 657 660 663 666 669 672 675 678 681 684 687 690 693 696 699 702 705 708 711 714 717 720 723 726 729 732 735 738 741 744 747 750 753 756 759 762 765 768 771 774 777 780 783 786 789 792 795 798 801 804 807 810 813 816 819 822 825 828 831 834 837 840 843 846 849 852 855 858 861 864 867 870 873 876 879 882 885 888 891 894 897 900 903 906 909 912 915 918 921 924 927 930 933 936 939 942 945 948 951 954 957 960 963 966 969 972 975 978 981 984 987 990 993 996 999 1002 1005 1008 1011 1014 1017 1020 1023 1026 1029 1032 1035 1038 1041 1044 1047 1050 1053 1056 1059 1062 1065 1068 1071 1074 1077 1080 1083 1086 1089 1092 1095 1098 1101 1104 1107 1110 1113 1116 1119 1122 1125 1128 1131 1134 1137 1140 1143 1146 1149 1152 1155 1158 1161 1164 1167 1170 1173 1176 1179 1182 1185 1188 1191 1194 1197 1200 1203 1206 1209 1212 1215 1218 1221 1224 1227 1230 1233 1236 </DataArray>
            <DataArray Name="types" format="ascii" type="UInt8">5 5 5 5 5 5 5 5 5 5 5 5 5 5 5 5 5 5 5 5 5 5 5 5 5 5 5 5 5 5 5 5 5 5 5 5 5 5 5 5 5 5 5 5 5 5 5 5 5 5 5 5 5 5 5 5 5 5 5 5 5 5 5 5 5 5 5 5 5 5 5 5 5 5 5 5 5 5 5 5 5 5 5 5 5 5 5 5 5 5 5 5 5 5 5 5 5 5 5 5 5 5 5 5 5 5 5 5 5 5 5 5 5 5 5 5 5 5 5 5 5 5 5 5 5 5 5 5 5 5 5 5 5 5 5 5 5 5 5 5 5 5 5 5 5 5 5 5 5 5 5 5 5 5 5 5 5 5 5 5 5 5 5 5 5 5 5 5 5 5 5 5 5 5 5 5 5 5 5 5 5 5 5 5 5 5 5 5 5 5 5 5 5 5 5 5 5 5 5 5 5 5 5 5 5 5 5 5 5 5 5 5 5 5 5 5 5 5 5 5 5 5 5 5 5 5 5 5 5 5 5 5 5 5 5 5 5 5 5 5 5 5 5 5 5 5 5 5 5 5 5 5 5 5 5 5 5 5 5 5 5 5 5 5 5 5 5 5 5 5 5 5 5 5 5 5 5 5 5 5 5 5 5 5 5 5 5 5 5 5 5 5 5 5 5 5 5 5 5 5 5 5 5 5 5 5 5 5 5 5 5 5 5 5 5 5 5 5 5 5 5 5 5 5 5 5 5 5 5 5 5 5 5 5 5 5 5 5 5 5 5 5 5 5 5 5 5 5 5 5 5 5 5 5 5 5 5 5 5 5 5 5 5 5 5 5 5 5 5 5 5 5 5 5 5 5 5 5 5 5 5 5 5 5 5 5 5 5 5 5 5 5 5 5 5 5 5 5 5 5 5 5 5 5 5 5 5 5 5 5 5 5 </DataArray>
         </Cells>
         <PointData>
            <DataArray Name="fValues" NumberOfComponents="3" format="ascii" type="Float64">
 2.71986e-01  3.83422e+00        00000 
-2.73703e-01  3.83167e+00        00000 
 1.07472e+00  4.83318e+00        00000 
-1.07260e+00  4.82990e+00        00000 
 1.20699e+00  5.97993e+00        00000 
-1.20122e+00  5.97911e+00        00000 
 4.21802e-01  7.09535e+00        00000 
-4.19274e-01  7.09416e+00        00000 
 6.21077e-01  4.29107e+00        00000 
-6.19667e-01  4.29681e+00        00000 
 8.13295e-01  6.54118e+00        00000 
-8.23803e-01  6.54777e+00        00000 
 2.00277e+00  2.63207e+01        00000 
 6.46083e-01  2.62722e+01        00000 
-6.45525e-01  2.62708e+01        00000 
-2.00220e+00  2.63263e+01        00000 
 3.50143e+00  2.84259e+01        00000 
-3.48233e+00  2.84320e+01        00000 
 5.22719e+00  3.10248e+01        00000 
-5.21631e+00  3.10515e+01        00000 
 7.57310e+00  3.40543e+01        00000 
-7.57459e+00  3.40849e+01        00000 
 1.04978e+01  3.72256e+01        00000 
-1.05037e+01  3.72540e+01        00000 
 1.07912e+01  4.03916e+01        00000 
-1.07970e+01  4.04197e+01        00000 
 1.11463e+01  4.36063e+01        00000 
-1.11506e+01  4.36382e+01        00000 
 1.15169e+01  4.67938e+01        00000 
-1.15332e+01  4.68231e+01        00000 
 9.22767e+00  4.98788e+01        00000 
-9.24726e+00  4.99289e+01        00000 
 7.05947e+00  5.30760e+01        00000 
-7.10609e+00  5.31156e+01        00000 
 4.95228e+00  5.61757e+01        00000 
-5.01491e+00  5.61909e+01        00000 
 2.87819e+00  5.89670e+01        00000 
 9.17186e-01  5.90602e+01        00000 
-9.74258e-01  5.90593e+01        00000 
-2.93095e+00  5.89752e+01        00000 
 2.73209e+00  2.73191e+01        00000 
 1.29960e+00  2.71300e+01        00000 
-1.96061e-03  2.70378e+01        00000 
-1.30418e+00  2.71284e+01        00000 
-2.72247e+00  2.73186e+01        00000 
 4.36110e+00  2.97045e+01        00000 
-4.34903e+00  2.97185e+01        00000 
 6.34439e+00  3.25483e+01        00000 
-6.34172e+00  3.25738e+01        00000 
 8.97636e+00  3.56229e+01        00000 
-8.97904e+00  3.56498e+01        00000 
 9.14127e+00  3.87428e+01        00000 
-9.15019e+00  3.87735e+01        00000 
 9.45963e+00  4.19519e+01        00000 
-9.44358e+00  4.19785e+01        00000 
 9.88966e+00  4.51740e+01        00000 
-9.89869e+00  4.51944e+01        00000 
 1.03527e+01  4.83321e+01        00000 
-1.03595e+01  4.83743e+01        00000 
 8.16803e+00  5.14445e+01        00000 
-8.19795e+00  5.14851e+01        00000 
 6.03697e+00  5.46247e+01        00000 
-6.08750e+00  5.46495e+01        00000 
 3.90190e+00  5.76246e+01        00000 
 1.88474e+00  5.78629e+01        00000 
-2.58417e-02  5.79729e+01        00000 
-1.93406e+00  5.78648e+01        00000 
-3.96007e+00  5.76290e+01        00000 
 4.94317e+00  7.25640e+01        00000 
 2.84931e+00  7.22789e+01        00000 
 9.19988e-01  7.20950e+01        00000 
-9.70832e-01  7.20936e+01        00000 
-2.92831e+00  7.22624e+01        00000 
-4.98255e+00  7.25370e+01        00000 
 9.63446e+00  7.63235e+01        00000 
 7.09872e+00  7.58507e+01        00000 
-7.14730e+00  7.58027e+01        00000 
-9.68531e+00  7.62833e+01        00000 
 1.22885e+01  8.05347e+01        00000 
-1.23313e+01  8.04562e+01        00000 
 1.53213e+01  8.57232e+01        00000 
-1.53516e+01  8.56122e+01        00000 
 1.98089e+01  9.20053e+01        00000 
-1.97896e+01  9.18522e+01        00000 
 1.88319e+01  9.97249e+01        00000 
-1.88477e+01  9.95475e+01        00000 
 2.74005e+01  1.10020e+02        00000 
-2.73528e+01  1.09785e+02        00000 
 2.74870e+01  1.22373e+02        00000 
-2.74054e+01  1.21938e+02        00000 
 2.75862e+01  1.36560e+02        00000 
-2.74699e+01  1.36152e+02        00000 
 2.79211e+01  1.51694e+02        00000 
-2.78096e+01  1.51213e+02        00000 
 2.85162e+01  1.66226e+02        00000 
-2.83419e+01  1.65588e+02        00000 
 2.90517e+01  1.79013e+02        00000 
-2.88305e+01  1.78541e+02        00000 
 1.97413e+01  1.90235e+02        00000 
-1.94485e+01  1.89800e+02        00000 
 2.07764e+01  1.99585e+02        00000 
-2.05034e+01  1.99192e+02        00000 
 1.41659e+01  2.07942e+02        00000 
-1.37932e+01  2.07621e+02        00000 
 8.45720e+00  2.15770e+02        00000 
-8.00311e+00  2.15524e+02        00000 
 3.37709e+00  2.22588e+02        00000 
-5.93667e-01  2.23631e+02        00000 
 1.18719e+00  2.23457e+02        00000 
-2.84124e+00  2.22442e+02        00000 
-2.44339e+00  2.27322e+02        00000 
-2.43848e+00  2.27578e+02        00000 
-8.26804e-01  2.27825e+02        00000 
 1.59856e+00  2.27828e+02        00000 
 3.29788e+00  2.27532e+02        00000 
 3.10217e+00  2.27236e+02        00000 
 6.02232e+00  7.41127e+01        00000 
 3.90776e+00  7.37023e+01        00000 
-3.97004e+00  7.36362e+01        00000 
-6.06191e+00  7.40821e+01        00000 
 1.09691e+01  7.83874e+01        00000 
-1.10199e+01  7.83301e+01        00000 
 1.38081e+01  8.31140e+01        00000 
-1.38541e+01  8.30110e+01        00000 
 1.74476e+01  8.88220e+01        00000 
-1.74526e+01  8.86852e+01        00000 
 2.26259e+01  1.04716e+02        00000 
-2.26045e+01  1.04512e+02        00000 
 2.17551e+01  1.16070e+02        00000 
-2.18327e+01  1.15729e+02        00000 
 2.29694e+01  1.72631e+02        00000 
-2.26162e+01  1.72077e+02        00000 
 2.40225e+01  1.84725e+02        00000 
-2.37773e+01  1.84272e+02        00000 
 1.74264e+01  2.03765e+02        00000 
-1.71050e+01  2.03404e+02        00000 
 1.13437e+01  2.11831e+02        00000 
-1.09212e+01  2.11538e+02        00000 
 5.90857e+00  2.19241e+02        00000 
-5.40931e+00  2.19045e+02        00000 
-1.64290e+00  2.25889e+02        00000 
-2.50054e+00  2.26945e+02        00000 
 3.26209e+00  2.26718e+02        00000 
 2.26736e+00  2.25768e+02        00000 
 2.48301e-01  4.45830e+00        00000 
-1.91375e-04  4.25185e+00        00000 
-2.42242e-01  4.46601e+00        00000 
-1.16582e-03  4.25185e+00        00000 
 4.90124e-01  4.75923e+00        00000 
 6.94083e-01  5.38316e+00        00000 
 3.82308e-01  4.56307e+00        00000 
-4.82911e-01  4.76673e+00        00000 
-3.75910e-01  4.57280e+00        00000 
-6.87532e-01  5.38092e+00        00000 
 5.93456e-01  6.00047e+00        00000 
 6.94319e-01  5.38520e+00        00000 
 3.56917e-01  6.33649e+00        00000 
 5.11332e-01  6.20960e+00        00000 
-5.96842e-01  6.00366e+00        00000 
-3.61281e-01  6.33957e+00        00000 
-5.19862e-01  6.21515e+00        00000 
-6.87762e-01  5.38297e+00        00000 
 2.40115e-03  6.56693e+00        00000 
 8.99229e-04  6.56692e+00        00000 
 1.99110e+00  2.80771e+01        00000 
 6.60373e-01  2.74807e+01        00000 
-6.56133e-01  2.74863e+01        00000 
-2.00129e+00  2.80520e+01        00000 
 2.08992e+00  2.81443e+01        00000 
 3.50736e+00  2.94731e+01        00000 
 3.04329e+00  2.89852e+01        00000 
 2.02027e+00  2.80924e+01        00000 
 1.94038e+00  2.80520e+01        00000 
 9.21123e-01  2.75496e+01        00000 
 3.36729e-01  2.74424e+01        00000 
-3.35956e-01  2.74463e+01        00000 
-9.19803e-01  2.75535e+01        00000 
-2.09846e+00  2.81204e+01        00000 
-1.95044e+00  2.80278e+01        00000 
-2.02995e+00  2.80675e+01        00000 
-3.48222e+00  2.94958e+01        00000 
-3.02295e+00  2.90062e+01        00000 
 4.73111e+00  3.09213e+01        00000 
 5.15312e+00  3.18945e+01        00000 
 5.00467e+00  3.14182e+01        00000 
 4.06113e+00  3.00455e+01        00000 
-4.71411e+00  3.09524e+01        00000 
-4.04199e+00  3.00694e+01        00000 
-5.14035e+00  3.19243e+01        00000 
-4.99095e+00  3.14474e+01        00000 
 6.35762e+00  3.40420e+01        00000 
 7.57261e+00  3.69330e+01        00000 
 6.77725e+00  3.49209e+01        00000 
 5.85813e+00  3.30723e+01        00000 
-6.35028e+00  3.40758e+01        00000 
-5.85023e+00  3.31021e+01        00000 
-7.57748e+00  3.69546e+01        00000 
-6.77020e+00  3.49548e+01        00000 
 7.64936e+00  3.71376e+01        00000 
 7.62840e+00  3.70750e+01        00000 
 7.68696e+00  3.72524e+01        00000 
-7.65449e+00  3.71587e+01        00000 
-7.63342e+00  3.70962e+01        00000 
-7.69235e+00  3.72741e+01        00000 
 8.42047e+00  4.03084e+01        00000 
 8.29854e+00  3.96613e+01        00000 
 8.57932e+00  4.11043e+01        00000 
-8.43636e+00  4.03439e+01        00000 
-8.31338e+00  3.96962e+01        00000 
-8.58101e+00  4.11366e+01        00000 
 8.83598e+00  4.35108e+01        00000 
 8.79944e+00  4.27298e+01        00000 
 8.85907e+00  4.41661e+01        00000 
-8.86182e+00  4.35400e+01        00000 
-8.80787e+00  4.27574e+01        00000 
-8.88187e+00  4.41913e+01        00000 
 8.82943e+00  4.67222e+01        00000 
 8.78787e+00  4.69276e+01        00000 
 8.83957e+00  4.66076e+01        00000 
 8.82045e+00  4.67844e+01        00000 
-8.80238e+00  4.67417e+01        00000 
-8.76279e+00  4.69488e+01        00000 
-8.81407e+00  4.66269e+01        00000 
-8.79362e+00  4.68045e+01        00000 
 8.05444e+00  4.98679e+01        00000 
 8.39042e+00  4.89550e+01        00000 
 6.96012e+00  5.21434e+01        00000 
 7.65391e+00  5.08817e+01        00000 
-8.09350e+00  4.99241e+01        00000 
-7.01099e+00  5.21898e+01        00000 
-7.69494e+00  5.09303e+01        00000 
-8.42564e+00  4.90050e+01        00000 
 6.45000e+00  5.31702e+01        00000 
 6.75549e+00  5.26495e+01        00000 
 4.95348e+00  5.48795e+01        00000 
 5.65371e+00  5.41914e+01        00000 
-6.50469e+00  5.32143e+01        00000 
-5.02163e+00  5.49135e+01        00000 
-5.71272e+00  5.42270e+01        00000 
-6.80666e+00  5.26930e+01        00000 
 3.02969e+00  5.65278e+01        00000 
 4.33312e+00  5.54536e+01        00000 
 2.89423e+00  5.66159e+01        00000 
 2.93472e+00  5.65951e+01        00000 
 2.82102e+00  5.66480e+01        00000 
 9.32133e-01  5.73418e+01        00000 
 1.31961e+00  5.72529e+01        00000 
 4.63176e-01  5.73968e+01        00000 
-9.92289e-01  5.73508e+01        00000 
-5.19623e-01  5.74029e+01        00000 
-1.37592e+00  5.72607e+01        00000 
-3.07207e+00  5.65094e+01        00000 
-2.93550e+00  5.65959e+01        00000 
-2.86259e+00  5.66289e+01        00000 
-2.97636e+00  5.65754e+01        00000 
-4.39814e+00  5.54845e+01        00000 
 5.02169e+00  7.47256e+01        00000 
 2.88653e+00  7.36860e+01        00000 
 1.92849e+00  7.32543e+01        00000 
 9.42792e-01  7.30482e+01        00000 
 1.85717e+00  7.32378e+01        00000 
 1.21683e-01  7.29654e+01        00000 
-9.93433e-01  7.30597e+01        00000 
-1.72210e-01  7.29652e+01        00000 
-1.91471e+00  7.32519e+01        00000 
-2.97166e+00  7.36164e+01        00000 
-1.98700e+00  7.32680e+01        00000 
-5.05964e+00  7.46845e+01        00000 
 9.52574e+00  7.92838e+01        00000 
 8.38661e+00  7.78384e+01        00000 
 6.03652e+00  7.55179e+01        00000 
 7.04350e+00  7.66925e+01        00000 
 8.23956e+00  7.76977e+01        00000 
 6.82433e+00  7.60707e+01        00000 
 5.30863e+00  7.49058e+01        00000 
 4.45210e+00  7.44255e+01        00000 
 3.62907e+00  7.39976e+01        00000 
-3.69907e+00  7.39192e+01        00000 
-6.07945e+00  7.54718e+01        00000 
-4.50252e+00  7.43699e+01        00000 
-5.34680e+00  7.48653e+01        00000 
-7.08792e+00  7.66614e+01        00000 
-6.87106e+00  7.60320e+01        00000 
-8.25972e+00  7.76952e+01        00000 
-9.59172e+00  7.92181e+01        00000 
-8.40487e+00  7.78392e+01        00000 
 1.03083e+01  8.01973e+01        00000 
 1.20109e+01  8.34215e+01        00000 
 1.12371e+01  8.19134e+01        00000 
 9.86594e+00  7.96404e+01        00000 
-1.03703e+01  8.01232e+01        00000 
-9.93108e+00  7.95718e+01        00000 
-1.20517e+01  8.33298e+01        00000 
-1.13297e+01  8.17859e+01        00000 
 1.32508e+01  8.55426e+01        00000 
 1.46961e+01  9.01820e+01        00000 
 1.39413e+01  8.75351e+01        00000 
 1.26602e+01  8.44434e+01        00000 
-1.32864e+01  8.54375e+01        00000 
-1.27023e+01  8.43417e+01        00000 
-1.47303e+01  9.00257e+01        00000 
-1.40365e+01  8.73566e+01        00000 
 1.55543e+01  9.20076e+01        00000 
 1.66663e+01  9.56942e+01        00000 
 1.51934e+01  9.12101e+01        00000 
-1.55787e+01  9.18372e+01        00000 
-1.52214e+01  9.10448e+01        00000 
-1.65705e+01  9.55892e+01        00000 
 1.76914e+01  9.96322e+01        00000 
 1.79246e+01  1.05172e+02        00000 
 1.67821e+01  9.61490e+01        00000 
 1.70363e+01  1.01384e+02        00000 
-1.76804e+01  9.94550e+01        00000 
-1.79541e+01  1.04965e+02        00000 
-1.66945e+01  9.60387e+01        00000 
-1.70484e+01  1.01196e+02        00000 
 1.89482e+01  1.10238e+02        00000 
 1.85948e+01  1.08759e+02        00000 
 1.95022e+01  1.13287e+02        00000 
-1.89743e+01  1.10004e+02        00000 
-1.86198e+01  1.08534e+02        00000 
-1.95628e+01  1.12998e+02        00000 
 2.04947e+01  1.22532e+02        00000 