<?xml version="1.0" encoding="utf-8"?>
<VTKFile byte_order="LittleEndian" type="UnstructuredGrid" version="0.1">
   <UnstructuredGrid>
      <Piece NumberOfCells="4248" NumberOfPoints="2216">
         <Points>
            <DataArray Name="Points" NumberOfComponents="3" format="ascii" type="Float32">
-1.0000 -0.8947 0.0000
-1.0000 -0.7895 0.0000
-1.0000 -0.6842 0.0000
-1.0000 -0.5789 0.0000
-1.0000 -0.4737 0.0000
-1.0000 -0.3684 0.0000
-1.0000 -0.2632 0.0000
-1.0000 -0.1579 0.0000
-1.0000 -0.0526 0.0000
-1.0000 0.0526 0.0000
-1.0000 0.1579 0.0000
-1.0000 0.2632 0.0000
-1.0000 0.3684 0.0000
-1.0000 0.4737 0.0000
-1.0000 0.5789 0.0000
-1.0000 0.6842 0.0000
-1.0000 0.7895 0.0000
-1.0000 0.8947 0.0000
-1.0000 1.0000 0.0000
-0.8947 -0.8947 0.0000
-0.8947 -0.7895 0.0000
-0.8947 -0.6842 0.0000
-0.8947 -0.5789 0.0000
-0.8947 -0.4737 0.0000
-0.8947 -0.3684 0.0000
-0.8947 -0.2632 0.0000
-0.8947 -0.1579 0.0000
-0.8947 -0.0526 0.0000
-0.8947 0.0526 0.0000
-0.8947 0.1579 0.0000
-0.8947 0.2632 0.0000
-0.8947 0.3684 0.0000
-0.8947 0.4737 0.0000
-0.8947 0.5789 0.0000
-0.8947 0.6842 0.0000
-0.8947 0.7895 0.0000
-0.8947 0.8947 0.0000
-0.8947 1.0000 0.0000
-0.7895 -0.8947 0.0000
-0.7895 -0.7895 0.0000
-0.7895 -0.6842 0.0000
-0.7895 -0.5789 0.0000
-0.7895 -0.4737 0.0000
-0.7895 -0.3684 0.0000
-0.7895 -0.2632 0.0000
-0.7895 -0.1579 0.0000
-0.7895 -0.0526 0.0000
-0.7895 0.0526 0.0000
-0.7895 0.1579 0.0000
-0.7895 0.2632 0.0000
-0.7895 0.3684 0.0000
-0.7895 0.4737 0.0000
-0.7895 0.5789 0.0000
-0.7895 0.6842 0.0000
-0.7895 0.7895 0.0000
-0.7895 0.8947 0.0000
-0.7895 1.0000 0.0000
-0.6842 -0.8947 0.0000
-0.6842 -0.7895 0.0000
-0.6842 -0.6842 0.0000
-0.6842 -0.5789 0.0000
-0.6842 -0.4737 0.0000
-0.6842 -0.3684 0.0000
-0.6842 -0.2632 0.0000
-0.6842 -0.1579 0.0000
-0.6842 -0.0526 0.0000
-0.6842 0.0526 0.0000
-0.6842 0.1579 0.0000
-0.6842 0.2632 0.0000
-0.6842 0.3684 0.0000
-0.6842 0.4737 0.0000
-0.6842 0.5789 0.0000
-0.6842 0.6842 0.0000
-0.6842 0.7895 0.0000
-0.6842 0.8947 0.0000
-0.6842 1.0000 0.0000
-0.5789 -0.8947 0.0000
-0.5789 -0.7895 0.0000
-0.5789 -0.6842 0.0000
-0.5789 -0.5789 0.0000
-0.5789 -0.4737 0.0000
-0.5789 -0.3684 0.0000
-0.5789 -0.2632 0.0000
-0.5789 -0.1579 0.0000
-0.5789 -0.0526 0.0000
-0.5789 0.0526 0.0000
-0.5789 0.1579 0.0000
-0.5789 0.2632 0.0000
-0.5789 0.3684 0.0000
-0.5789 0.4737 0.0000
-0.5789 0.5789 0.0000
-0.5789 0.6842 0.0000
-0.5789 0.7895 0.0000
-0.5789 0.8947 0.0000
-0.5789 1.0000 0.0000
-0.4737 -0.8947 0.0000
-0.4737 -0.7895 0.0000
-0.4737 -0.6842 0.0000
-0.4737 -0.5789 0.0000
-0.4737 -0.4737 0.0000
-0.4737 -0.3684 0.0000
-0.4737 -0.2632 0.0000
-0.4737 -0.1579 0.0000
-0.4737 -0.0526 0.0000
-0.4737 0.0526 0.0000
-0.4737 0.1579 0.0000
-0.4737 0.2632 0.0000
-0.4737 0.3684 0.0000
-0.4737 0.4737 0.0000
-0.4737 0.5789 0.0000
-0.4737 0.6842 0.0000
-0.4737 0.7895 0.0000
-0.4737 0.8947 0.0000
-0.4737 1.0000 0.0000
-0.3684 -0.8947 0.0000
-0.3684 -0.7895 0.0000
-0.3684 -0.6842 0.0000
-0.3684 -0.5789 0.0000
-0.3684 -0.4737 0.0000
-0.3684 -0.3684 0.0000
-0.3684 -0.2632 0.0000
-0.3684 -0.1579 0.0000
-0.3684 -0.0526 0.0000
-0.3684 0.0526 0.0000
-0.3684 0.1579 0.0000
-0.3684 0.2632 0.0000
-0.3684 0.3684 0.0000
-0.3684 0.4737 0.0000
-0.3684 0.5789 0.0000
-0.3684 0.6842 0.0000
-0.3684 0.7895 0.0000
-0.3684 0.8947 0.0000
-0.3684 1.0000 0.0000
-0.2632 -0.8947 0.0000
-0.2632 -0.7895 0.0000
-0.2632 -0.6842 0.0000
-0.2632 -0.5789 0.0000
-0.2632 -0.4737 0.0000
-0.2632 -0.3684 0.0000
-0.2632 -0.2632 0.0000
-0.2632 -0.1579 0.0000
-0.2632 -0.0526 0.0000
-0.2632 0.0526 0.0000
-0.2632 0.1579 0.0000
-0.2632 0.2632 0.0000
-0.2632 0.3684 0.0000
-0.2632 0.4737 0.0000
-0.2632 0.5789 0.0000
-0.2632 0.6842 0.0000
-0.2632 0.7895 0.0000
-0.2632 0.8947 0.0000
-0.2632 1.0000 0.0000
-0.1579 -0.8947 0.0000
-0.1579 -0.7895 0.0000
-0.1579 -0.6842 0.0000
-0.1579 -0.5789 0.0000
-0.1579 -0.4737 0.0000
-0.1579 -0.3684 0.0000
-0.1579 -0.2632 0.0000
-0.1579 -0.1579 0.0000
-0.1579 -0.0526 0.0000
-0.1579 0.1579 0.0000
-0.1579 0.2632 0.0000
-0.1579 0.3684 0.0000
-0.1579 0.4737 0.0000
-0.1579 0.5789 0.0000
-0.1579 0.6842 0.0000
-0.1579 0.7895 0.0000
-0.1579 0.8947 0.0000
-0.1579 1.0000 0.0000
-0.0526 -0.8947 0.0000
-0.0526 -0.7895 0.0000
-0.0526 -0.6842 0.0000
-0.0526 -0.5789 0.0000
-0.0526 -0.4737 0.0000
-0.0526 -0.3684 0.0000
-0.0526 -0.2632 0.0000
-0.0526 -0.1579 0.0000
-0.0526 0.2632 0.0000
-0.0526 0.3684 0.0000
-0.0526 0.4737 0.0000
-0.0526 0.5789 0.0000
-0.0526 0.6842 0.0000
-0.0526 0.7895 0.0000
-0.0526 0.8947 0.0000
-0.0526 1.0000 0.0000
0.0526 -0.8947 0.0000
0.0526 -0.7895 0.0000
0.0526 -0.6842 0.0000
0.0526 -0.5789 0.0000
0.0526 -0.4737 0.0000
0.0526 -0.3684 0.0000
0.0526 -0.2632 0.0000
0.0526 -0.1579 0.0000
0.0526 0.2632 0.0000
0.0526 0.3684 0.0000
0.0526 0.4737 0.0000
0.0526 0.5789 0.0000
0.0526 0.6842 0.0000
0.0526 0.7895 0.0000
0.0526 0.8947 0.0000
0.0526 1.0000 0.0000
0.1579 -0.8947 0.0000
0.1579 -0.7895 0.0000
0.1579 -0.6842 0.0000
0.1579 -0.5789 0.0000
0.1579 -0.4737 0.0000
0.1579 -0.3684 0.0000
0.1579 -0.2632 0.0000
0.1579 -0.1579 0.0000
0.1579 -0.0526 0.0000
0.1579 0.0526 0.0000
0.1579 0.1579 0.0000
0.1579 0.2632 0.0000
0.1579 0.3684 0.0000
0.1579 0.4737 0.0000
0.1579 0.5789 0.0000
0.1579 0.6842 0.0000
0.1579 0.7895 0.0000
0.1579 0.8947 0.0000
0.1579 1.0000 0.0000
0.2632 -0.8947 0.0000
0.2632 -0.7895 0.0000
0.2632 -0.6842 0.0000
0.2632 -0.5789 0.0000
0.2632 -0.4737 0.0000
0.2632 -0.3684 0.0000
0.2632 -0.2632 0.0000
0.2632 -0.1579 0.0000
0.2632 -0.0526 0.0000
0.2632 0.0526 0.0000
0.2632 0.1579 0.0000
0.2632 0.2632 0.0000
0.2632 0.3684 0.0000
0.2632 0.4737 0.0000
0.2632 0.5789 0.0000
0.2632 0.6842 0.0000
0.2632 0.7895 0.0000
0.2632 0.8947 0.0000
0.2632 1.0000 0.0000
0.3684 -0.8947 0.0000
0.3684 -0.7895 0.0000
0.3684 -0.6842 0.0000
0.3684 -0.5789 0.0000
0.3684 -0.4737 0.0000
0.3684 -0.3684 0.0000
0.3684 -0.2632 0.0000
0.3684 -0.1579 0.0000
0.3684 -0.0526 0.0000
0.3684 0.0526 0.0000
0.3684 0.1579 0.0000
0.3684 0.2632 0.0000
0.3684 0.3684 0.0000
0.3684 0.4737 0.0000
0.3684 0.5789 0.0000
0.3684 0.6842 0.0000
0.3684 0.7895 0.0000
0.3684 0.8947 0.0000
0.3684 1.0000 0.0000
0.4737 -0.8947 0.0000
0.4737 -0.7895 0.0000
0.4737 -0.6842 0.0000
0.4737 -0.5789 0.0000
0.4737 -0.4737 0.0000
0.4737 -0.3684 0.0000
0.4737 -0.2632 0.0000
0.4737 -0.1579 0.0000
0.4737 -0.0526 0.0000
0.4737 0.0526 0.0000
0.4737 0.1579 0.0000
0.4737 0.2632 0.0000
0.4737 0.3684 0.0000
0.4737 0.4737 0.0000
0.4737 0.5789 0.0000
0.4737 0.6842 0.0000
0.4737 0.7895 0.0000
0.4737 0.8947 0.0000
0.4737 1.0000 0.0000
0.5789 -0.8947 0.0000
0.5789 -0.7895 0.0000
0.5789 -0.6842 0.0000
0.5789 -0.5789 0.0000
0.5789 -0.4737 0.0000
0.5789 -0.3684 0.0000
0.5789 -0.2632 0.0000
0.5789 -0.1579 0.0000
0.5789 -0.0526 0.0000
0.5789 0.0526 0.0000
0.5789 0.1579 0.0000
0.5789 0.2632 0.0000
0.5789 0.3684 0.0000
0.5789 0.4737 0.0000
0.5789 0.5789 0.0000
0.5789 0.6842 0.0000
0.5789 0.7895 0.0000
0.5789 0.8947 0.0000
0.5789 1.0000 0.0000
0.6842 -0.8947 0.0000
0.6842 -0.7895 0.0000
0.6842 -0.6842 0.0000
0.6842 -0.5789 0.0000
0.6842 -0.4737 0.0000
0.6842 -0.3684 0.0000
0.6842 -0.2632 0.0000
0.6842 -0.1579 0.0000
0.6842 -0.0526 0.0000
0.6842 0.0526 0.0000
0.6842 0.1579 0.0000
0.6842 0.2632 0.0000
0.6842 0.3684 0.0000
0.6842 0.4737 0.0000
0.6842 0.5789 0.0000
0.6842 0.6842 0.0000
0.6842 0.7895 0.0000
0.6842 0.8947 0.0000
0.6842 1.0000 0.0000
0.7895 -0.8947 0.0000
0.7895 -0.7895 0.0000
0.7895 -0.6842 0.0000
0.7895 -0.5789 0.0000
0.7895 -0.4737 0.0000
0.7895 -0.3684 0.0000
0.7895 -0.2632 0.0000
0.7895 -0.1579 0.0000
0.7895 -0.0526 0.0000
0.7895 0.0526 0.0000
0.7895 0.1579 0.0000
0.7895 0.2632 0.0000
0.7895 0.3684 0.0000
0.7895 0.4737 0.0000
0.7895 0.5789 0.0000
0.7895 0.6842 0.0000
0.7895 0.7895 0.0000
0.7895 0.8947 0.0000
0.7895 1.0000 0.0000
0.8947 -0.8947 0.0000
0.8947 -0.7895 0.0000
0.8947 -0.6842 0.0000
0.8947 -0.5789 0.0000
0.8947 -0.4737 0.0000
0.8947 -0.3684 0.0000
0.8947 -0.2632 0.0000
0.8947 -0.1579 0.0000
0.8947 -0.0526 0.0000
0.8947 0.0526 0.0000
0.8947 0.1579 0.0000
0.8947 0.2632 0.0000
0.8947 0.3684 0.0000
0.8947 0.4737 0.0000
0.8947 0.5789 0.0000
0.8947 0.6842 0.0000
0.8947 0.7895 0.0000
0.8947 0.8947 0.0000
0.8947 1.0000 0.0000
-0.1579 0.0526 0.0000
-0.0526 0.1579 0.0000
1.0000 -0.8947 0.0000
1.0000 -0.7895 0.0000
1.0000 -0.6842 0.0000
1.0000 -0.5789 0.0000
1.0000 -0.4737 0.0000
1.0000 -0.3684 0.0000
1.0000 -0.2632 0.0000
1.0000 -0.1579 0.0000
1.0000 -0.0526 0.0000
1.0000 0.0526 0.0000
1.0000 0.1579 0.0000
1.0000 0.2632 0.0000
1.0000 0.3684 0.0000
1.0000 0.4737 0.0000
1.0000 0.5789 0.0000
1.0000 0.6842 0.0000
1.0000 0.7895 0.0000
1.0000 0.8947 0.0000
1.0000 1.0000 0.0000
-0.8947 -1.0000 0.0000
-0.7895 -1.0000 0.0000
-0.6842 -1.0000 0.0000
-0.5789 -1.0000 0.0000
-0.4737 -1.0000 0.0000
-0.3684 -1.0000 0.0000
-0.2632 -1.0000 0.0000
-0.1579 -1.0000 0.0000
-0.0526 -1.0000 0.0000
0.0526 -1.0000 0.0000
0.0526 0.1579 0.0000
0.1579 -1.0000 0.0000
0.2632 -1.0000 0.0000
0.3684 -1.0000 0.0000
0.4737 -1.0000 0.0000
0.5789 -1.0000 0.0000
0.6842 -1.0000 0.0000
0.7895 -1.0000 0.0000
0.8947 -1.0000 0.0000
1.0000 -1.0000 0.0000
-1.0000 -1.0000 0.0000
1.1053 -0.8947 0.0000
1.1053 -0.7895 0.0000
1.1053 -0.6842 0.0000
1.1053 -0.5789 0.0000
1.1053 -0.4737 0.0000
1.1053 -0.3684 0.0000
1.1053 -0.2632 0.0000
1.1053 -0.1579 0.0000
1.1053 -0.0526 0.0000
1.1053 0.0526 0.0000
1.1053 0.1579 0.0000
1.1053 0.2632 0.0000
1.1053 0.3684 0.0000
1.1053 0.4737 0.0000
1.1053 0.5789 0.0000
1.1053 0.6842 0.0000
1.1053 0.7895 0.0000
1.1053 0.8947 0.0000
1.1053 1.0000 0.0000
1.2105 -0.8947 0.0000
1.2105 -0.7895 0.0000
1.2105 -0.6842 0.0000
1.2105 -0.5789 0.0000
1.2105 -0.4737 0.0000
1.2105 -0.3684 0.0000
1.2105 -0.2632 0.0000
1.2105 -0.1579 0.0000
1.2105 -0.0526 0.0000
1.2105 0.0526 0.0000
1.2105 0.1579 0.0000
1.2105 0.2632 0.0000
1.2105 0.3684 0.0000
1.2105 0.4737 0.0000
1.2105 0.5789 0.0000
1.2105 0.6842 0.0000
1.2105 0.7895 0.0000
1.2105 0.8947 0.0000
1.2105 1.0000 0.0000
1.3158 -0.8947 0.0000
1.3158 -0.7895 0.0000
1.3158 -0.6842 0.0000
1.3158 -0.5789 0.0000
1.3158 -0.4737 0.0000
1.3158 -0.3684 0.0000
1.3158 -0.2632 0.0000
[...]
         <PointData>
            <DataArray Name="fValues" NumberOfComponents="3" format="ascii" type="Float64">
-1.38897e-16 -1.88830e-17        00000 
 3.77601e-17 -5.39430e-17        00000 
 3.88015e-17  5.25260e-17        00000 
-4.31544e-17  1.61829e-17        00000 
 5.15892e-17 -5.42147e-17        00000 
-5.39430e-18  3.77601e-17        00000 
 1.27714e-17 -3.21934e-17        00000 
-3.37144e-19  2.69715e-18        00000 
-5.36619e-18 -1.09317e-17        00000 
-3.37144e-19  4.31544e-17        00000 
-1.80029e-17  4.74428e-17        00000 
-8.09146e-18 -1.07886e-17        00000 
 3.76636e-18  9.58978e-17        00000 
-4.58516e-17  2.69715e-17        00000 
 1.69439e-18  1.45717e-17        00000 
-4.31544e-17  1.07886e-17        00000 
 7.61883e-17 -2.17681e-17        00000 
-1.63217e-17  7.07275e-17        00000 
 4.08043e-18 -7.47698e-17        00000 
 5.14023e-01  6.37936e-01        00000 
 4.21903e-01  5.55317e-01        00000 
 3.56409e-01  4.85997e-01        00000 
 2.96498e-01  4.35335e-01        00000 
 2.40025e-01  3.95726e-01        00000 
 1.85260e-01  3.65630e-01        00000 
 1.31578e-01  3.43914e-01        00000 
 7.86291e-02  3.29867e-01        00000 
 2.61450e-02  3.22984e-01        00000 
-2.61735e-02  3.22990e-01        00000 
-7.86523e-02  3.29884e-01        00000 
-1.31593e-01  3.43937e-01        00000 
-1.85265e-01  3.65653e-01        00000 
-2.40030e-01  3.95747e-01        00000 
-2.96440e-01  4.35279e-01        00000 
-3.56581e-01  4.86042e-01        00000 
-4.20166e-01  5.51367e-01        00000 
-5.15076e-01  6.37344e-01        00000 
-9.25480e-01  8.52156e-01        00000 
 1.09923e+00  1.35864e+00        00000 
 8.88166e-01  1.19108e+00        00000 
 7.49217e-01  1.06148e+00        00000 
 6.21943e-01  9.59708e-01        00000 
 5.02629e-01  8.80337e-01        00000 
 3.87374e-01  8.19969e-01        00000 
 2.74764e-01  7.76464e-01        00000 
 1.64018e-01  7.48357e-01        00000 
 5.45016e-02  7.34599e-01        00000 
-5.45681e-02  7.34611e-01        00000 
-1.64071e-01  7.48388e-01        00000 
-2.74796e-01  7.76506e-01        00000 
-3.87382e-01  8.20011e-01        00000 
-5.02633e-01  8.80377e-01        00000 
-6.21824e-01  9.59758e-01        00000 
-7.49637e-01  1.06171e+00        00000 
-8.83196e-01  1.19257e+00        00000 
-1.10819e+00  1.36249e+00        00000 
-1.61142e+00  1.55518e+00        00000 
 1.67623e+00  2.08091e+00        00000 
 1.38898e+00  1.87946e+00        00000 
 1.17283e+00  1.69985e+00        00000 
 9.73774e-01  1.55323e+00        00000 
 7.86344e-01  1.43735e+00        00000 
 6.05383e-01  1.34865e+00        00000 
 4.28848e-01  1.28462e+00        00000 
 2.55677e-01  1.24330e+00        00000 
 8.48849e-02  1.22313e+00        00000 
-8.50021e-02  1.22315e+00        00000 
-2.55766e-01  1.24335e+00        00000 
-4.28896e-01  1.28468e+00        00000 
-6.05391e-01  1.34871e+00        00000 
-7.86336e-01  1.43740e+00        00000 
-9.73668e-01  1.55329e+00        00000 
-1.17318e+00  1.69989e+00        00000 
-1.38506e+00  1.88081e+00        00000 
-1.68569e+00  2.08487e+00        00000 
-2.23604e+00  2.28756e+00        00000 
 2.26484e+00  2.82232e+00        00000 
 1.91008e+00  2.59807e+00        00000 
 1.61939e+00  2.38106e+00        00000 
 1.34709e+00  2.19847e+00        00000 
 1.08819e+00  2.05159e+00        00000 
 8.37303e-01  1.93802e+00        00000 
 5.92345e-01  1.85577e+00        00000 
 3.52533e-01  1.80285e+00        00000 
 1.16877e-01  1.77718e+00        00000 
-1.17066e-01  1.77721e+00        00000 
-3.52668e-01  1.80292e+00        00000 
-5.92405e-01  1.85585e+00        00000 
-8.37300e-01  1.93809e+00        00000 
-1.08816e+00  2.05163e+00        00000 
-1.34697e+00  2.19852e+00        00000 
-1.61967e+00  2.38099e+00        00000 
-1.90648e+00  2.59883e+00        00000 
-2.27341e+00  2.82660e+00        00000 
-2.85575e+00  3.03554e+00        00000 
 2.85882e+00  3.57673e+00        00000 
 2.44260e+00  3.33692e+00        00000 
 2.08125e+00  3.09254e+00        00000 
 1.73654e+00  2.88255e+00        00000 
 1.40464e+00  2.71069e+00        00000 
 1.08071e+00  2.57621e+00        00000 
 7.63260e-01  2.47837e+00        00000 
 4.52874e-01  2.41588e+00        00000 
 1.49706e-01  2.38606e+00        00000 
-1.50009e-01  2.38611e+00        00000 
-4.53062e-01  2.41599e+00        00000 
-7.63318e-01  2.47849e+00        00000 
-1.08068e+00  2.57628e+00        00000 
-1.40457e+00  2.71072e+00        00000 
-1.73640e+00  2.88257e+00        00000 
-2.08147e+00  3.09240e+00        00000 
-2.43940e+00  3.33713e+00        00000 
-2.86634e+00  3.58115e+00        00000 
-3.47693e+00  3.79476e+00        00000 
 3.45592e+00  4.34146e+00        00000 
 2.98194e+00  4.09090e+00        00000 
 2.55309e+00  3.82704e+00        00000 
 2.13755e+00  3.59698e+00        00000 
 1.73256e+00  3.40586e+00        00000 
 1.33368e+00  3.25396e+00        00000 
 9.39747e-01  3.14238e+00        00000 
 5.54169e-01  3.07202e+00        00000 
 1.81815e-01  3.03995e+00        00000 
-1.82314e-01  3.04000e+00        00000 
-5.54411e-01  3.07224e+00        00000 
-9.39750e-01  3.14250e+00        00000 
-1.33359e+00  3.25404e+00        00000 
-1.73243e+00  3.40586e+00        00000 
-2.13738e+00  3.59695e+00        00000 
-2.55325e+00  3.82683e+00        00000 
-2.97908e+00  4.09066e+00        00000 
-3.46244e+00  4.34593e+00        00000 
-4.09923e+00  4.56273e+00        00000 
 4.05458e+00  5.11455e+00        00000 
 3.52518e+00  4.85704e+00        00000 
 3.03115e+00  4.58020e+00        00000 
 2.54644e+00  4.33658e+00        00000 
 2.06925e+00  4.13190e+00        00000 
 1.59551e+00  3.96631e+00        00000 
 1.12196e+00  3.84056e+00        00000 
 6.53293e-01  3.76087e+00        00000 
 2.08848e-01  3.72858e+00        00000 
-2.09788e-01  3.72909e+00        00000 
-6.53400e-01  3.76094e+00        00000 
-1.12192e+00  3.84082e+00        00000 
-1.59525e+00  3.96632e+00        00000 
-2.06905e+00  4.13182e+00        00000 
-2.54625e+00  4.33650e+00        00000 
-3.03127e+00  4.57993e+00        00000 
-3.52266e+00  4.85646e+00        00000 
-4.06016e+00  5.11900e+00        00000 
-4.72211e+00  5.33791e+00        00000 
 4.65386e+00  5.89478e+00        00000 
 4.07038e+00  5.63349e+00        00000 
 3.51262e+00  5.34925e+00        00000 
 2.95996e+00  5.09812e+00        00000 
 2.41167e+00  4.88617e+00        00000 
 1.86465e+00  4.71310e+00        00000 
 1.31463e+00  4.57646e+00        00000 
 7.52908e-01  4.47507e+00        00000 
 2.18250e-01  4.43284e+00        00000 
-7.53335e-01  4.47678e+00        00000 
-1.31390e+00  4.57647e+00        00000 
-1.86426e+00  4.71286e+00        00000 
-2.41146e+00  4.88600e+00        00000 
-2.95978e+00  5.09800e+00        00000 
-3.51271e+00  5.34894e+00        00000 
-4.06821e+00  5.63265e+00        00000 
-4.65856e+00  5.89913e+00        00000 
-5.34515e+00  6.11929e+00        00000 
 5.25316e+00  6.68130e+00        00000 
 4.61618e+00  6.41889e+00        00000 
 3.99530e+00  6.13207e+00        00000 
 3.37512e+00  5.87886e+00        00000 
 2.75598e+00  5.66599e+00        00000 
 2.13634e+00  5.49416e+00        00000 
 1.51325e+00  5.36197e+00        00000 
 8.72852e-01  5.26266e+00        00000 
-1.51247e+00  5.36084e+00        00000 
-2.13604e+00  5.49378e+00        00000 
-2.75581e+00  5.66580e+00        00000 
-3.37498e+00  5.87874e+00        00000 
-3.99537e+00  6.13175e+00        00000 
-4.61437e+00  6.41787e+00        00000 
-5.25699e+00  6.68548e+00        00000 
-5.96810e+00  6.90617e+00        00000 
 5.85212e+00  7.47352e+00        00000 
 5.16168e+00  7.21227e+00        00000 
 4.47764e+00  6.92690e+00        00000 
 3.78965e+00  6.67591e+00        00000 
 3.09890e+00  6.46662e+00        00000 
 2.40496e+00  6.30134e+00        00000 
 1.70614e+00  6.18340e+00        00000 
 9.94488e-01  6.11968e+00        00000 
-1.70594e+00  6.18354e+00        00000 
-2.40474e+00  6.30128e+00        00000 
-3.09878e+00  6.46655e+00        00000 
-3.78954e+00  6.67584e+00        00000 
-4.47767e+00  6.92660e+00        00000 
-5.16025e+00  7.21113e+00        00000 
-5.85509e+00  7.47745e+00        00000 
-6.59087e+00  7.69812e+00        00000 
 6.45055e+00  8.27117e+00        00000 
 5.70635e+00  8.01311e+00        00000 
 4.95867e+00  7.73268e+00        00000 
 4.20236e+00  7.48716e+00        00000 
 3.43936e+00  7.28354e+00        00000 
 2.67037e+00  7.12372e+00        00000 
 1.89502e+00  7.00867e+00        00000 
 1.11749e+00  6.93430e+00        00000 
 3.65734e-01  6.89662e+00        00000 
-3.65248e-01  6.89675e+00        00000 
-1.11903e+00  6.93369e+00        00000 
-1.89438e+00  7.00899e+00        00000 
-2.67018e+00  7.12385e+00        00000 
-3.43923e+00  7.28357e+00        00000 
-4.20226e+00  7.48714e+00        00000 
-4.95866e+00  7.73241e+00        00000 
-5.70532e+00  8.01190e+00        00000 
-6.45266e+00  8.27478e+00        00000 
-7.21346e+00  8.49494e+00        00000 
 7.04830e+00  9.07443e+00        00000 
 6.24977e+00  8.82162e+00        00000 
 5.43770e+00  8.54967e+00        00000 
 4.61263e+00  8.31277e+00        00000 
 3.77760e+00  8.11674e+00        00000 
 2.93501e+00  7.96194e+00        00000 
 2.08792e+00  7.84666e+00        00000 
 1.24351e+00  7.76768e+00        00000 
 4.11793e-01  7.72565e+00        00000 
-4.11738e-01  7.72572e+00        00000 
-1.24396e+00  7.76771e+00        00000 
-2.08795e+00  7.84647e+00        00000 
-2.93481e+00  7.96198e+00        00000 
-3.77746e+00  8.11676e+00        00000 
-4.61253e+00  8.31276e+00        00000 
-5.43765e+00  8.54941e+00        00000 
-6.24918e+00  8.82036e+00        00000 
-7.04954e+00  9.07760e+00        00000 
-7.83596e+00  9.29677e+00        00000 
 7.64506e+00  9.88399e+00        00000 
 6.79123e+00  9.63893e+00        00000 
 5.91367e+00  9.37975e+00        00000 
 5.01933e+00  9.15560e+00        00000 
 4.11275e+00  8.97072e+00        00000 
 3.19825e+00  8.82424e+00        00000 
 2.28034e+00  8.71424e+00        00000 
 1.36428e+00  8.63946e+00        00000 
 4.53720e-01  8.60098e+00        00000 
-4.53778e-01  8.60100e+00        00000 
-1.36442e+00  8.63943e+00        00000 
-2.28038e+00  8.71417e+00        00000 
-3.19818e+00  8.82417e+00        00000 
-4.11264e+00  8.97071e+00        00000 
-5.01924e+00  9.15557e+00        00000 
-5.91357e+00  9.37948e+00        00000 
-6.79116e+00  9.63766e+00        00000 
-7.64545e+00  9.88662e+00        00000 
-8.45842e+00  1.01042e+01        00000 
 8.24013e+00  1.07012e+01        00000 
 7.32934e+00  1.04672e+01        00000 
 6.38448e+00  1.02264e+01        00000 
 5.42003e+00  1.00207e+01        00000 
 4.44218e+00  9.85233e+00        00000 
 3.45651e+00  9.71944e+00        00000 
 2.46756e+00  9.62014e+00        00000 
 1.47898e+00  9.55345e+00        00000 
 4.92575e-01  9.51971e+00        00000 
-4.92630e-01  9.51971e+00        00000 
-1.47904e+00  9.55343e+00        00000 
-2.46758e+00  9.62009e+00        00000 
-3.45647e+00  9.71939e+00        00000 
-4.44211e+00  9.85229e+00        00000 
-5.41998e+00  1.00207e+01        00000 
-6.38433e+00  1.02262e+01        00000 
-7.32988e+00  1.04660e+01        00000 
-8.23967e+00  1.07031e+01        00000 
-9.08069e+00  1.09182e+01        00000 
 8.83200e+00  1.15282e+01        00000 
 7.86140e+00  1.13098e+01        00000 
 6.84654e+00  1.10951e+01        00000 
 5.81089e+00  1.09152e+01        00000 
 4.76204e+00  1.07697e+01        00000 
 3.70612e+00  1.06559e+01        00000 
 2.64713e+00  1.05715e+01        00000 
 1.58773e+00  1.05153e+01        00000 
 5.29078e-01  1.04871e+01        00000 
-5.29115e-01  1.04871e+01        00000 
-1.58776e+00  1.05153e+01        00000 
-2.64714e+00  1.05714e+01        00000 
-3.70609e+00  1.06558e+01        00000 
-4.76199e+00  1.07697e+01        00000 
-5.81087e+00  1.09151e+01        00000 
-6.84634e+00  1.10948e+01        00000 
-7.86272e+00  1.13087e+01        00000 
-8.83067e+00  1.15292e+01        00000 
-9.70234e+00  1.17405e+01        00000 
 9.41755e+00  1.23689e+01        00000 
 8.38236e+00  1.21727e+01        00000 
 7.29405e+00  1.19941e+01        00000 
 6.18651e+00  1.18488e+01        00000 
 5.06789e+00  1.17332e+01        00000 
 3.94375e+00  1.16434e+01        00000 
 2.81724e+00  1.15773e+01        00000 
 1.69017e+00  1.15335e+01        00000 
 5.63311e-01  1.15117e+01        00000 
-5.63365e-01  1.15117e+01        00000 
-1.69021e+00  1.15335e+01        00000 
-2.81727e+00  1.15773e+01        00000 
-3.94378e+00  1.16434e+01        00000 
-5.06789e+00  1.17332e+01        00000 
-6.18658e+00  1.18488e+01        00000 
-7.29384e+00  1.19940e+01        00000 
-8.38480e+00  1.21719e+01        00000 
-9.41515e+00  1.23687e+01        00000 
-1.03227e+01  1.25742e+01        00000 
 9.98890e+00  1.32270e+01        00000 
 8.88104e+00  1.30626e+01        00000 
 7.71678e+00  1.29341e+01        00000 
 6.53910e+00  1.28329e+01        00000 
 5.35396e+00  1.27534e+01        00000 
 4.16543e+00  1.26920e+01        00000 
 2.97548e+00  1.26469e+01        00000 
 1.78516e+00  1.26171e+01        00000 
 5.94924e-01  1.26022e+01        00000 
-5.95241e-01  1.26022e+01        00000 
-1.78549e+00  1.26170e+01        00000 
-2.97581e+00  1.26467e+01        00000 
-4.16578e+00  1.26918e+01        00000 
-5.35433e+00  1.27532e+01        00000 
-6.53960e+00  1.28326e+01        00000 
-7.71698e+00  1.29335e+01        00000 
-8.88552e+00  1.30617e+01        00000 
-9.98461e+00  1.32250e+01        00000 
-1.09427e+01  1.34216e+01        00000 
 1.05161e+01  1.41399e+01        00000 
 9.31875e+00  1.40223e+01        00000 
 8.08658e+00  1.39517e+01        00000 
 6.84667e+00  1.38990e+01        00000 
 5.60332e+00  1.38578e+01        00000 
 4.35845e+00  1.38259e+01        00000 
 3.11297e+00  1.38025e+01        00000 
 1.86737e+00  1.37870e+01        00000 
 6.21805e-01  1.37794e+01        00000 
-6.23746e-01  1.37795e+01        00000 
-1.86938e+00  1.37874e+01        00000 
-3.11514e+00  1.38031e+01        00000 
-4.36086e+00  1.38267e+01        00000 
-5.60607e+00  1.38588e+01        00000 
-6.84995e+00  1.39002e+01        00000 
-8.09000e+00  1.39531e+01        00000 
-9.32848e+00  1.40231e+01        00000 
-1.05096e+01  1.41364e+01        00000 
-1.15800e+01  1.43181e+01        00000 
-2.19688e-01  4.43056e+00        00000 
-8.71051e-01  5.26002e+00        00000 
 1.09781e+01  1.52738e+01        00000 
 9.68591e+00  1.52043e+01        00000 
 8.39619e+00  1.51704e+01        00000 
 7.10465e+00  1.51479e+01        00000 
 5.81278e+00  1.51300e+01        00000 
 4.52080e+00  1.51162e+01        00000 
 3.22892e+00  1.51061e+01        00000 
 1.93722e+00  1.50994e+01        00000 
 6.45681e-01  1.50961e+01        00000 
-6.45789e-01  1.50961e+01        00000 
-1.93733e+00  1.50993e+01        00000 
-3.22905e+00  1.51059e+01        00000 
-4.52095e+00  1.51160e+01        00000 
-5.81297e+00  1.51298e+01        00000 
-7.10485e+00  1.51476e+01        00000 
-8.39647e+00  1.51704e+01        00000 
-9.68636e+00  1.52022e+01        00000 
-1.09718e+01  1.52674e+01        00000 
-1.22640e+01  1.54390e+01        00000 
 9.23757e-01  8.51686e-01        00000 
 1.61167e+00  1.55357e+00        00000 
 2.23598e+00  2.28672e+00        00000 
 2.85564e+00  3.03542e+00        00000 
 3.47706e+00  3.79498e+00        00000 
 4.09958e+00  4.56323e+00        00000 
 4.72263e+00  5.33862e+00        00000 
 5.34582e+00  6.12017e+00        00000 
 5.96890e+00  6.90718e+00        00000 
 6.59177e+00  7.69922e+00        00000 
-9.90535e-01  6.12039e+00        00000 
 7.21444e+00  8.49610e+00        00000 
 7.83702e+00  9.29797e+00        00000 
 8.45952e+00  1.01054e+01        00000 
 9.08183e+00  1.09194e+01        00000 
 9.70351e+00  1.17415e+01        00000 
 1.03240e+01  1.25750e+01        00000 
 1.09440e+01  1.34227e+01        00000 
 1.15779e+01  1.43092e+01        00000 
 1.22655e+01  1.54439e+01        00000 
-2.23637e-17  4.72074e-18        00000 
 1.13802e+01  1.68071e+01        00000 
 1.00073e+01  1.67379e+01        00000 
 8.66730e+00  1.66937e+01        00000 
 7.33050e+00  1.66616e+01        00000 
 5.99592e+00  1.66365e+01        00000 
 4.66248e+00  1.66174e+01        00000 
 3.32990e+00  1.66037e+01        00000 
 1.99798e+00  1.65949e+01        00000 
 6.66538e-01  1.65905e+01        00000 
-6.64712e-01  1.65903e+01        00000 
-1.99608e+00  1.65944e+01        00000 
-3.32785e+00  1.66030e+01        00000 
-4.66021e+00  1.66165e+01        00000 
-5.99335e+00  1.66352e+01        00000 
-7.32742e+00  1.66601e+01        00000 
-8.66416e+00  1.66923e+01        00000 
-9.99858e+00  1.67354e+01        00000 
-1.13801e+01  1.68072e+01        00000 
-1.29022e+01  1.69387e+01        00000 
 1.17376e+01  1.85631e+01        00000 
 1.03061e+01  1.84648e+01        00000 
 8.91979e+00  1.83872e+01        00000 
 7.53987e+00  1.83263e+01        00000 
 6.16478e+00  1.82789e+01        00000 
 4.79224e+00  1.82430e+01        00000 
 3.42152e+00  1.82173e+01        00000 
 2.05223e+00  1.82009e+01        00000 
 6.83929e-01  1.81928e+01        00000 
-6.84003e-01  1.81928e+01        00000 
-2.05231e+00  1.82008e+01        00000 
-3.42161e+00  1.82172e+01        00000 
-4.79234e+00  1.82428e+01        00000 
-6.16492e+00  1.82786e+01        00000 
-7.54000e+00  1.83260e+01        00000 
-8.92034e+00  1.83869e+01        00000 
-1.03039e+01  1.84650e+01        00000 
-1.17430e+01  1.85647e+01        00000 
-1.33879e+01  1.86836e+01        00000 
 1.20901e+01  2.03611e+01        00000 
 1.06103e+01  2.02392e+01        00000 
 9.17668e+00  2.01310e+01        00000 
 7.75292e+00  2.00427e+01        00000 
 6.33624e+00  1.99731e+01        00000 
 4.92364e+00  1.99201e+01        00000 
 3.51410e+00  1.98821e+01        00000 
 2.10715e+00  1.98577e+01        00000 
 7.02145e-01  1.98460e+01        00000 
-7.02101e-01  1.98460e+01        00000 
-2.10708e+00  1.98578e+01        00000 
-3.51400e+00  1.98821e+01        00000 
-4.92350e+00  1.99201e+01        00000 
-6.33609e+00  1.99731e+01        00000 
-7.75269e+00  2.00427e+01        00000 
-9.17677e+00  2.01310e+01        00000 
-1.06074e+01  2.02401e+01        00000 
-1.20969e+01  2.03638e+01        00000 
-1.37614e+01  2.04852e+01        00000 
 1.24433e+01  2.21647e+01        00000 
 1.09230e+01  2.20293e+01        00000 
 9.44452e+00  2.18985e+01        00000 
 7.97653e+00  2.17884e+01        00000 
 6.51662e+00  2.17000e+01        00000 
 5.06170e+00  2.16319e+01        00000 
 3.61091e+00  2.15830e+01        00000 
 2.16416e+00  2.15519e+01        00000 
 7.20876e-01  2.15370e+01        00000 
-7.20946e-01  2.15370e+01        00000 
-2.16419e+00  2.15520e+01        00000 
-3.61089e+00  2.15831e+01        00000 
-5.06163e+00  2.16320e+01        00000 
-6.51653e+00  2.17000e+01        00000 
-7.97639e+00  2.17885e+01        00000 
-9.44466e+00  2.18985e+01        00000 
-1.09206e+01  2.20298e+01        00000 
-1.24494e+01  2.21673e+01        00000 
-1.41346e+01  2.22927e+01        00000 
 1.27999e+01  2.39768e+01        00000 
 1.12426e+01  2.38319e+01        00000 
 9.72163e+00  2.36845e+01        00000 
 8.20995e+00  2.35577e+01        00000 
 6.70583e+00  2.34539e+01        00000 
 5.20652e+00  2.33728e+01        00000 
 3.71175e+00  2.33144e+01        00000 
 2.22270e+00  2.32778e+01        00000 
 7.39848e-01  2.32607e+01        00000 
-7.39999e-01  2.32607e+01        00000 
-2.22276e+00  2.32779e+01        00000 
-3.71171e+00  2.33145e+01        00000 
-5.20643e+00  2.33729e+01        00000 
-6.70571e+00  2.34539e+01        00000 
-8.20979e+00  2.35577e+01        00000 
-9.72172e+00  2.36844e+01        00000 
-1.12404e+01  2.38322e+01        00000 
-1.28053e+01  2.39796e+01        00000 
-1.45073e+01  2.41077e+01        00000 
 1.31583e+01  2.57952e+01        00000 
 1.15664e+01  2.56438e+01        00000 
 1.00049e+01  2.54845e+01        00000 
 8.45061e+00  2.53452e+01        00000 
 6.90227e+00  2.52293e+01        00000 
 5.35724e+00  2.51371e+01        00000 