<?xml version="1.0" encoding="utf-8"?>
<VTKFile byte_order="LittleEndian" type="UnstructuredGrid" version="0.1">
   <UnstructuredGrid>
      <Piece NumberOfCells="3044" NumberOfPoints="1668">
         <Points>
            <DataArray Name="Points" NumberOfComponents="3" format="ascii" type="Float32">
-1.0000 -0.8947 0.0000
-1.0000 -0.7895 0.0000
-1.0000 -0.6842 0.0000
-1.0000 -0.5789 0.0000
-1.0000 -0.4737 0.0000
-1.0000 -0.3684 0.0000
-1.0000 -0.2632 0.0000
-1.0000 -0.1579 0.0000
-1.0000 -0.0526 0.0000
-1.0000 0.0526 0.0000
-1.0000 0.1579 0.0000
-1.0000 0.2632 0.0000
-1.0000 0.3684 0.0000
-1.0000 0.4737 0.0000
-1.0000 0.5789 0.0000
-1.0000 0.6842 0.0000
-1.0000 0.7895 0.0000
-1.0000 0.8947 0.0000
-1.0000 1.0000 0.0000
-0.8947 -0.8947 0.0000
-0.8947 -0.7895 0.0000
-0.8947 -0.6842 0.0000
-0.8947 -0.5789 0.0000
-0.8947 -0.4737 0.0000
-0.8947 -0.3684 0.0000
-0.8947 -0.2632 0.0000
-0.8947 -0.1579 0.0000
-0.8947 -0.0526 0.0000
-0.8947 0.0526 0.0000
-0.8947 0.1579 0.0000
-0.8947 0.2632 0.0000
-0.8947 0.3684 0.0000
-0.8947 0.4737 0.0000
-0.8947 0.5789 0.0000
-0.8947 0.6842 0.0000
-0.8947 0.7895 0.0000
-0.8947 0.8947 0.0000
-0.8947 1.0000 0.0000
-0.7895 -0.8947 0.0000
-0.7895 -0.7895 0.0000
-0.7895 -0.6842 0.0000
-0.7895 -0.5789 0.0000
-0.7895 -0.4737 0.0000
-0.7895 -0.3684 0.0000
-0.7895 -0.2632 0.0000
-0.7895 -0.1579 0.0000
-0.7895 -0.0526 0.0000
-0.7895 0.0526 0.0000
-0.7895 0.1579 0.0000
-0.7895 0.2632 0.0000
-0.7895 0.3684 0.0000
-0.7895 0.4737 0.0000
-0.7895 0.5789 0.0000
-0.7895 0.6842 0.0000
-0.7895 0.7895 0.0000
-0.7895 0.8947 0.0000
-0.7895 1.0000 0.0000
-0.6842 -0.8947 0.0000
-0.6842 -0.7895 0.0000
-0.6842 -0.6842 0.0000
-0.6842 -0.5789 0.0000
-0.6842 -0.4737 0.0000
-0.6842 -0.3684 0.0000
-0.6842 -0.2632 0.0000
-0.6842 -0.1579 0.0000
-0.6842 -0.0526 0.0000
-0.6842 0.0526 0.0000
-0.6842 0.1579 0.0000
-0.6842 0.2632 0.0000
-0.6842 0.3684 0.0000
-0.6842 0.4737 0.0000
-0.6842 0.5789 0.0000
-0.6842 0.6842 0.0000
-0.6842 0.7895 0.0000
-0.6842 0.8947 0.0000
-0.6842 1.0000 0.0000
-0.5789 -0.8947 0.0000
-0.5789 -0.7895 0.0000
-0.5789 -0.6842 0.0000
-0.5789 -0.5789 0.0000
-0.5789 -0.4737 0.0000
-0.5789 -0.3684 0.0000
-0.5789 -0.2632 0.0000
-0.5789 -0.1579 0.0000
-0.5789 -0.0526 0.0000
-0.5789 0.0526 0.0000
-0.5789 0.1579 0.0000
-0.5789 0.2632 0.0000
-0.5789 0.3684 0.0000
-0.5789 0.4737 0.0000
-0.5789 0.5789 0.0000
-0.5789 0.6842 0.0000
-0.5789 0.7895 0.0000
-0.5789 0.8947 0.0000
-0.5789 1.0000 0.0000
-0.4737 -0.8947 0.0000
-0.4737 -0.7895 0.0000
-0.4737 -0.6842 0.0000
-0.4737 -0.5789 0.0000
-0.4737 -0.4737 0.0000
-0.4737 -0.3684 0.0000
-0.4737 -0.2632 0.0000
-0.4737 -0.1579 0.0000
-0.4737 -0.0526 0.0000
-0.4737 0.0526 0.0000
-0.4737 0.1579 0.0000
-0.4737 0.2632 0.0000
-0.4737 0.3684 0.0000
-0.4737 0.4737 0.0000
-0.4737 0.5789 0.0000
-0.4737 0.6842 0.0000
-0.4737 0.7895 0.0000
-0.4737 0.8947 0.0000
-0.4737 1.0000 0.0000
-0.3684 -0.8947 0.0000
-0.3684 -0.7895 0.0000
-0.3684 -0.6842 0.0000
-0.3684 -0.5789 0.0000
-0.3684 -0.4737 0.0000
-0.3684 -0.3684 0.0000
-0.3684 -0.2632 0.0000
-0.3684 -0.1579 0.0000
-0.3684 -0.0526 0.0000
-0.3684 0.0526 0.0000
-0.3684 0.1579 0.0000
-0.3684 0.2632 0.0000
-0.3684 0.3684 0.0000
-0.3684 0.4737 0.0000
-0.3684 0.5789 0.0000
-0.3684 0.6842 0.0000
-0.3684 0.7895 0.0000
-0.3684 0.8947 0.0000
-0.3684 1.0000 0.0000
-0.2632 -0.8947 0.0000
-0.2632 -0.7895 0.0000
-0.2632 -0.6842 0.0000
-0.2632 -0.5789 0.0000
-0.2632 -0.4737 0.0000
-0.2632 -0.3684 0.0000
-0.2632 -0.2632 0.0000
-0.2632 -0.1579 0.0000
-0.2632 -0.0526 0.0000
-0.2632 0.0526 0.0000
-0.2632 0.1579 0.0000
-0.2632 0.2632 0.0000
-0.2632 0.3684 0.0000
-0.2632 0.4737 0.0000
-0.2632 0.5789 0.0000
-0.2632 0.6842 0.0000
-0.2632 0.7895 0.0000
-0.2632 0.8947 0.0000
-0.2632 1.0000 0.0000
-0.1579 -0.8947 0.0000
-0.1579 -0.7895 0.0000
-0.1579 -0.6842 0.0000
-0.1579 -0.5789 0.0000
-0.1579 -0.4737 0.0000
-0.1579 -0.3684 0.0000
-0.1579 -0.2632 0.0000
-0.1579 -0.1579 0.0000
-0.1579 -0.0526 0.0000
-0.1579 0.1579 0.0000
-0.1579 0.2632 0.0000
-0.1579 0.3684 0.0000
-0.1579 0.4737 0.0000
-0.1579 0.5789 0.0000
-0.1579 0.6842 0.0000
-0.1579 0.7895 0.0000
-0.1579 0.8947 0.0000
-0.1579 1.0000 0.0000
-0.0526 -0.8947 0.0000
-0.0526 -0.7895 0.0000
-0.0526 -0.6842 0.0000
-0.0526 -0.5789 0.0000
-0.0526 -0.4737 0.0000
-0.0526 -0.3684 0.0000
-0.0526 -0.2632 0.0000
-0.0526 -0.1579 0.0000
-0.0526 0.2632 0.0000
-0.0526 0.3684 0.0000
-0.0526 0.4737 0.0000
-0.0526 0.5789 0.0000
-0.0526 0.6842 0.0000
-0.0526 0.7895 0.0000
-0.0526 0.8947 0.0000
-0.0526 1.0000 0.0000
0.0526 -0.8947 0.0000
0.0526 -0.7895 0.0000
0.0526 -0.6842 0.0000
0.0526 -0.5789 0.0000
0.0526 -0.4737 0.0000
0.0526 -0.3684 0.0000
0.0526 -0.2632 0.0000
0.0526 -0.1579 0.0000
0.0526 0.2632 0.0000
0.0526 0.3684 0.0000
0.0526 0.4737 0.0000
0.0526 0.5789 0.0000
0.0526 0.6842 0.0000
0.0526 0.7895 0.0000
0.0526 0.8947 0.0000
0.0526 1.0000 0.0000
0.1579 -0.8947 0.0000
0.1579 -0.7895 0.0000
0.1579 -0.6842 0.0000
0.1579 -0.5789 0.0000
0.1579 -0.4737 0.0000
0.1579 -0.3684 0.0000
0.1579 -0.2632 0.0000
0.1579 -0.1579 0.0000
0.1579 -0.0526 0.0000
0.1579 0.0526 0.0000
0.1579 0.1579 0.0000
0.1579 0.2632 0.0000
0.1579 0.3684 0.0000
0.1579 0.4737 0.0000
0.1579 0.5789 0.0000
0.1579 0.6842 0.0000
0.1579 0.7895 0.0000
0.1579 0.8947 0.0000
0.1579 1.0000 0.0000
0.2632 -0.8947 0.0000
0.2632 -0.7895 0.0000
0.2632 -0.6842 0.0000
0.2632 -0.5789 0.0000
0.2632 -0.4737 0.0000
0.2632 -0.3684 0.0000
0.2632 -0.2632 0.0000
0.2632 -0.1579 0.0000
0.2632 -0.0526 0.0000
0.2632 0.0526 0.0000
0.2632 0.1579 0.0000
0.2632 0.2632 0.0000
0.2632 0.3684 0.0000
0.2632 0.4737 0.0000
0.2632 0.5789 0.0000
0.2632 0.6842 0.0000
0.2632 0.7895 0.0000
0.2632 0.8947 0.0000
0.2632 1.0000 0.0000
0.3684 -0.8947 0.0000
0.3684 -0.7895 0.0000
0.3684 -0.6842 0.0000
0.3684 -0.5789 0.0000
0.3684 -0.4737 0.0000
0.3684 -0.3684 0.0000
0.3684 -0.2632 0.0000
0.3684 -0.1579 0.0000
0.3684 -0.0526 0.0000
0.3684 0.0526 0.0000
0.3684 0.1579 0.0000
0.3684 0.2632 0.0000
0.3684 0.3684 0.0000
0.3684 0.4737 0.0000
0.3684 0.5789 0.0000
0.3684 0.6842 0.0000
0.3684 0.7895 0.0000
0.3684 0.8947 0.0000
0.3684 1.0000 0.0000
0.4737 -0.8947 0.0000
0.4737 -0.7895 0.0000
0.4737 -0.6842 0.0000
0.4737 -0.5789 0.0000
0.4737 -0.4737 0.0000
0.4737 -0.3684 0.0000
0.4737 -0.2632 0.0000
0.4737 -0.1579 0.0000
0.4737 -0.0526 0.0000
0.4737 0.0526 0.0000
0.4737 0.1579 0.0000
0.4737 0.2632 0.0000
0.4737 0.3684 0.0000
0.4737 0.4737 0.0000
0.4737 0.5789 0.0000
0.4737 0.6842 0.0000
0.4737 0.7895 0.0000
0.4737 0.8947 0.0000
0.4737 1.0000 0.0000
0.5789 -0.8947 0.0000
0.5789 -0.7895 0.0000
0.5789 -0.6842 0.0000
0.5789 -0.5789 0.0000
0.5789 -0.4737 0.0000
0.5789 -0.3684 0.0000
0.5789 -0.2632 0.0000
0.5789 -0.1579 0.0000
0.5789 -0.0526 0.0000
0.5789 0.0526 0.0000
0.5789 0.1579 0.0000
0.5789 0.2632 0.0000
0.5789 0.3684 0.0000
0.5789 0.4737 0.0000
0.5789 0.5789 0.0000
0.5789 0.6842 0.0000
0.5789 0.7895 0.0000
0.5789 0.8947 0.0000
0.5789 1.0000 0.0000
0.6842 -0.8947 0.0000
0.6842 -0.7895 0.0000
0.6842 -0.6842 0.0000
0.6842 -0.5789 0.0000
0.6842 -0.4737 0.0000
0.6842 -0.3684 0.0000
0.6842 -0.2632 0.0000
0.6842 -0.1579 0.0000
0.6842 -0.0526 0.0000
0.6842 0.0526 0.0000
0.6842 0.1579 0.0000
0.6842 0.2632 0.0000
0.6842 0.3684 0.0000
0.6842 0.4737 0.0000
0.6842 0.5789 0.0000
0.6842 0.6842 0.0000
0.6842 0.7895 0.0000
0.6842 0.8947 0.0000
0.6842 1.0000 0.0000
0.7895 -0.8947 0.0000
0.7895 -0.7895 0.0000
0.7895 -0.6842 0.0000
0.7895 -0.5789 0.0000
0.7895 -0.4737 0.0000
0.7895 -0.3684 0.0000
0.7895 -0.2632 0.0000
0.7895 -0.1579 0.0000
0.7895 -0.0526 0.0000
0.7895 0.0526 0.0000
0.7895 0.1579 0.0000
0.7895 0.2632 0.0000
0.7895 0.3684 0.0000
0.7895 0.4737 0.0000
0.7895 0.5789 0.0000
0.7895 0.6842 0.0000
0.7895 0.7895 0.0000
0.7895 0.8947 0.0000
0.7895 1.0000 0.0000
0.8947 -0.8947 0.0000
0.8947 -0.7895 0.0000
0.8947 -0.6842 0.0000
0.8947 -0.5789 0.0000
0.8947 -0.4737 0.0000
0.8947 -0.3684 0.0000
0.8947 -0.2632 0.0000
0.8947 -0.1579 0.0000
0.8947 -0.0526 0.0000
0.8947 0.0526 0.0000
0.8947 0.1579 0.0000
0.8947 0.2632 0.0000
0.8947 0.3684 0.0000
0.8947 0.4737 0.0000
0.8947 0.5789 0.0000
0.8947 0.6842 0.0000
0.8947 0.7895 0.0000
0.8947 0.8947 0.0000
0.8947 1.0000 0.0000
-0.1579 0.0526 0.0000
-0.0526 0.1579 0.0000
1.0000 -0.8947 0.0000
1.0000 -0.7895 0.0000
1.0000 -0.6842 0.0000
1.0000 -0.5789 0.0000
1.0000 -0.4737 0.0000
1.0000 -0.3684 0.0000
1.0000 -0.2632 0.0000
1.0000 -0.1579 0.0000
1.0000 -0.0526 0.0000
1.0000 0.0526 0.0000
1.0000 0.1579 0.0000
1.0000 0.2632 0.0000
1.0000 0.3684 0.0000
1.0000 0.4737 0.0000
1.0000 0.5789 0.0000
1.0000 0.6842 0.0000
1.0000 0.7895 0.0000
1.0000 0.8947 0.0000
1.0000 1.0000 0.0000
-0.8947 -1.0000 0.0000
-0.7895 -1.0000 0.0000
-0.6842 -1.0000 0.0000
-0.5789 -1.0000 0.0000
-0.4737 -1.0000 0.0000
-0.3684 -1.0000 0.0000
-0.2632 -1.0000 0.0000
-0.1579 -1.0000 0.0000
-0.0526 -1.0000 0.0000
0.0526 -1.0000 0.0000
0.0526 0.1579 0.0000
0.1579 -1.0000 0.0000
0.2632 -1.0000 0.0000
0.3684 -1.0000 0.0000
0.4737 -1.0000 0.0000
0.5789 -1.0000 0.0000
0.6842 -1.0000 0.0000
0.7895 -1.0000 0.0000
0.8947 -1.0000 0.0000
1.0000 -1.0000 0.0000
-1.0000 -1.0000 0.0000
1.1053 -0.8947 0.0000
1.1053 -0.7895 0.0000
1.1053 -0.6842 0.0000
1.1053 -0.5789 0.0000
1.1053 -0.4737 0.0000
1.1053 -0.3684 0.0000
1.1053 -0.2632 0.0000
1.1053 -0.1579 0.0000
1.1053 -0.0526 0.0000
1.1053 0.0526 0.0000
1.1053 0.1579 0.0000
1.1053 0.2632 0.0000
1.1053 0.3684 0.0000
1.1053 0.4737 0.0000
1.1053 0.5789 0.0000
1.1053 0.6842 0.0000
1.1053 0.7895 0.0000
1.1053 0.8947 0.0000
1.1053 1.0000 0.0000
1.2105 -0.8947 0.0000
1.2105 -0.7895 0.0000
1.2105 -0.6842 0.0000
1.2105 -0.5789 0.0000
1.2105 -0.4737 0.0000
1.2105 -0.3684 0.0000
1.2105 -0.2632 0.0000
1.2105 -0.1579 0.0000
1.2105 -0.0526 0.0000
1.2105 0.0526 0.0000
1.2105 0.1579 0.0000
1.2105 0.2632 0.0000
1.2105 0.3684 0.0000
1.2105 0.4737 0.0000
1.2105 0.5789 0.0000
1.2105 0.6842 0.0000
1.2105 0.7895 0.0000
1.2105 0.8947 0.0000
1.2105 1.0000 0.0000
1.3158 -0.8947 0.0000
1.3158 -0.7895 0.0000
1.3158 -0.6842 0.0000
1.3158 -0.5789 0.0000
1.3158 -0.4737 0.0000
1.3158 -0.3684 0.0000
1.3158 -0.2632 0.0000
[...]
         <PointData>
            <DataArray Name="fValues" NumberOfComponents="3" format="ascii" type="Float64">
 1.22734e-17  1.23416e-16        00000 
 4.31544e-17 -5.93374e-17        00000 
 3.67734e-17  2.59114e-17        00000 
-1.61829e-17  2.69715e-17        00000 
 2.06715e-17 -3.04990e-18        00000 
 4.45030e-17  6.47317e-17        00000 
-4.08116e-17 -1.08831e-17        00000 
 4.04573e-18  3.23658e-17        00000 
-1.60967e-18  2.74491e-17        00000 
-7.41717e-18  2.69715e-17        00000 
 2.72077e-18        00000        00000 
-4.72002e-18  1.18675e-16        00000 
-6.77755e-18 -8.13306e-18        00000 
-7.01260e-17  7.55203e-17        00000 
 6.05381e-17 -5.30559e-17        00000 
 8.09146e-18 -5.39430e-17        00000 
-5.09264e-18  1.19847e-16        00000 
-5.44057e-18  9.52100e-18        00000 
-2.26992e-16 -5.94682e-17        00000 
 5.30938e-01  6.58918e-01        00000 
 4.35789e-01  5.73580e-01        00000 
 3.68141e-01  5.01982e-01        00000 
 3.06260e-01  4.49655e-01        00000 
 2.47928e-01  4.08743e-01        00000 
 1.91361e-01  3.77659e-01        00000 
 1.35913e-01  3.55229e-01        00000 
 8.12220e-02  3.40721e-01        00000 
 2.70107e-02  3.33613e-01        00000 
-2.70298e-02  3.33622e-01        00000 
-8.12360e-02  3.40744e-01        00000 
-1.35920e-01  3.55261e-01        00000 
-1.91358e-01  3.77693e-01        00000 
-2.47927e-01  4.08780e-01        00000 
-3.06195e-01  4.49614e-01        00000 
-3.68316e-01  5.02051e-01        00000 
-4.33995e-01  5.69527e-01        00000 
-5.32032e-01  6.58335e-01        00000 
-9.55953e-01  8.80220e-01        00000 
 1.13541e+00  1.40333e+00        00000 
 9.17396e-01  1.23025e+00        00000 
 7.73878e-01  1.09639e+00        00000 
 6.42417e-01  9.91275e-01        00000 
 5.19177e-01  9.09296e-01        00000 
 4.00130e-01  8.46945e-01        00000 
 2.83815e-01  8.02012e-01        00000 
 1.69426e-01  7.72982e-01        00000 
 5.63048e-02  7.58776e-01        00000 
-5.63548e-02  7.58791e-01        00000 
-1.69463e-01  7.73025e-01        00000 
-2.83832e-01  8.02072e-01        00000 
-4.00124e-01  8.47012e-01        00000 
-5.19171e-01  9.09369e-01        00000 
-6.42287e-01  9.91367e-01        00000 
-7.74308e-01  1.09667e+00        00000 
-9.12267e-01  1.23185e+00        00000 
-1.14467e+00  1.40736e+00        00000 
-1.66448e+00  1.60640e+00        00000 
 1.73139e+00  2.14935e+00        00000 
 1.43469e+00  1.94127e+00        00000 
 1.21143e+00  1.75576e+00        00000 
 1.00583e+00  1.60432e+00        00000 
 8.12232e-01  1.48463e+00        00000 
 6.25317e-01  1.39302e+00        00000 
 4.42973e-01  1.32689e+00        00000 
 2.64104e-01  1.28422e+00        00000 
 8.76911e-02  1.26339e+00        00000 
-8.77875e-02  1.26341e+00        00000 
-2.64173e-01  1.28428e+00        00000 
-4.43002e-01  1.32698e+00        00000 
-6.25308e-01  1.39311e+00        00000 
-8.12210e-01  1.48473e+00        00000 
-1.00571e+00  1.60444e+00        00000 
-1.21180e+00  1.75588e+00        00000 
-1.43065e+00  1.94276e+00        00000 
-1.74118e+00  2.15354e+00        00000 
-2.30966e+00  2.36290e+00        00000 
 2.33936e+00  2.91515e+00        00000 
 1.97293e+00  2.68352e+00        00000 
 1.67269e+00  2.45937e+00        00000 
 1.39143e+00  2.27079e+00        00000 
 1.12401e+00  2.11908e+00        00000 
 8.64870e-01  2.00178e+00        00000 
 6.11852e-01  1.91683e+00        00000 
 3.64149e-01  1.86218e+00        00000 
 1.20738e-01  1.83567e+00        00000 
-1.20905e-01  1.83570e+00        00000 
-3.64262e-01  1.86228e+00        00000 
-6.11892e-01  1.91695e+00        00000 
-8.64849e-01  2.00191e+00        00000 
-1.12397e+00  2.11919e+00        00000 
-1.39130e+00  2.27092e+00        00000 
-1.67298e+00  2.45941e+00        00000 
-1.96924e+00  2.68442e+00        00000 
-2.34825e+00  2.91970e+00        00000 
-2.94978e+00  3.13552e+00        00000 
 2.95289e+00  3.69437e+00        00000 
 2.52299e+00  3.44667e+00        00000 
 2.14974e+00  3.19426e+00        00000 
 1.79370e+00  2.97737e+00        00000 
 1.45088e+00  2.79986e+00        00000 
 1.11629e+00  2.66096e+00        00000 
 7.88392e-01  2.55992e+00        00000 
 4.67793e-01  2.49538e+00        00000 
 1.54649e-01  2.46459e+00        00000 
-1.54931e-01  2.46465e+00        00000 
-4.67960e-01  2.49552e+00        00000 
-7.88430e-01  2.56009e+00        00000 
-1.11624e+00  2.66111e+00        00000 
-1.45080e+00  2.79999e+00        00000 
-1.79355e+00  2.97750e+00        00000 
-2.14998e+00  3.19425e+00        00000 
-2.51970e+00  3.44704e+00        00000 
-2.96070e+00  3.69911e+00        00000 
-3.59141e+00  3.91975e+00        00000 
 3.56964e+00  4.48424e+00        00000 
 3.08007e+00  4.22544e+00        00000 
 2.63711e+00  3.95291e+00        00000 
 2.20790e+00  3.71529e+00        00000 
 1.78959e+00  3.51790e+00        00000 
 1.37758e+00  3.36102e+00        00000 
 9.70686e-01  3.24578e+00        00000 
 5.72420e-01  3.17311e+00        00000 
 1.87813e-01  3.14000e+00        00000 
-1.88299e-01  3.14007e+00        00000 
-5.72646e-01  3.17337e+00        00000 
-9.70671e-01  3.24596e+00        00000 
-1.37747e+00  3.36119e+00        00000 
-1.78945e+00  3.51801e+00        00000 
-2.20774e+00  3.71541e+00        00000 
-2.63730e+00  3.95287e+00        00000 
-3.07715e+00  4.22539e+00        00000 
-3.57643e+00  4.48908e+00        00000 
-4.23420e+00  4.71301e+00        00000 
 4.18799e+00  5.28276e+00        00000 
 3.64118e+00  5.01678e+00        00000 
 3.13090e+00  4.73085e+00        00000 
 2.63024e+00  4.47922e+00        00000 
 2.13735e+00  4.26782e+00        00000 
 1.64802e+00  4.09680e+00        00000 
 1.15889e+00  3.96693e+00        00000 
 6.74803e-01  3.88463e+00        00000 
 2.15735e-01  3.85129e+00        00000 
-2.16679e-01  3.85183e+00        00000 
-6.74897e-01  3.88475e+00        00000 
-1.15885e+00  3.96728e+00        00000 
-1.64775e+00  4.09692e+00        00000 
-2.13716e+00  4.26788e+00        00000 
-2.63007e+00  4.47932e+00        00000 
-3.13106e+00  4.73078e+00        00000 
-3.63862e+00  5.01642e+00        00000 
-4.19383e+00  5.28760e+00        00000 
-4.87758e+00  5.51372e+00        00000 
 4.80699e+00  6.08865e+00        00000 
 4.20432e+00  5.81877e+00        00000 
 3.62821e+00  5.52519e+00        00000 
 3.05736e+00  5.26581e+00        00000 
 2.49104e+00  5.04690e+00        00000 
 1.92602e+00  4.86815e+00        00000 
 1.35789e+00  4.72703e+00        00000 
 7.77691e-01  4.62232e+00        00000 
 2.25444e-01  4.57873e+00        00000 
-7.78127e-01  4.62416e+00        00000 
-1.35714e+00  4.72714e+00        00000 
-1.92563e+00  4.86805e+00        00000 
-2.49083e+00  5.04689e+00        00000 
-3.05721e+00  5.26589e+00        00000 
-3.62835e+00  5.52511e+00        00000 
-4.20213e+00  5.81817e+00        00000 
-4.81193e+00  6.09343e+00        00000 
-5.52113e+00  6.32084e+00        00000 
 5.42601e+00  6.90104e+00        00000 
 4.76807e+00  6.63001e+00        00000 
 4.12678e+00  6.33376e+00        00000 
 3.48619e+00  6.07223e+00        00000 
 2.84668e+00  5.85238e+00        00000 
 2.20664e+00  5.67491e+00        00000 
 1.56305e+00  5.53839e+00        00000 
 9.01575e-01  5.43582e+00        00000 
-1.56226e+00  5.53734e+00        00000 
-2.20636e+00  5.67468e+00        00000 
-2.84653e+00  5.85237e+00        00000 
-3.48608e+00  6.07234e+00        00000 
-4.12690e+00  6.33370e+00        00000 
-4.76628e+00  6.62926e+00        00000 
-5.43007e+00  6.90568e+00        00000 
-6.16460e+00  7.13365e+00        00000 
 6.04468e+00  7.71931e+00        00000 
 5.33153e+00  7.44948e+00        00000 
 4.62498e+00  7.15473e+00        00000 
 3.91436e+00  6.89551e+00        00000 
 3.20088e+00  6.67935e+00        00000 
 2.48410e+00  6.50865e+00        00000 
 1.76229e+00  6.38685e+00        00000 
 1.02721e+00  6.32104e+00        00000 
-1.76210e+00  6.38713e+00        00000 
-2.48390e+00  6.50876e+00        00000 
-3.20079e+00  6.67949e+00        00000 
-3.91429e+00  6.89570e+00        00000 
-4.62508e+00  7.15472e+00        00000 
-5.33013e+00  7.44864e+00        00000 
-6.04786e+00  7.72374e+00        00000 
-6.80786e+00  7.95167e+00        00000 
 6.66280e+00  8.54320e+00        00000 
 5.89412e+00  8.27666e+00        00000 
 5.12183e+00  7.98702e+00        00000 
 4.34064e+00  7.73344e+00        00000 
 3.55254e+00  7.52314e+00        00000 
 2.75824e+00  7.35809e+00        00000 
 1.95737e+00  7.23927e+00        00000 
 1.15425e+00  7.16249e+00        00000 
 3.77745e-01  7.12360e+00        00000 
-3.77295e-01  7.12376e+00        00000 
-1.15587e+00  7.16194e+00        00000 
-1.95675e+00  7.23975e+00        00000 
-2.75809e+00  7.35841e+00        00000 
-3.55245e+00  7.52341e+00        00000 
-4.34060e+00  7.73371e+00        00000 
-5.12191e+00  7.98707e+00        00000 
-5.89315e+00  8.27578e+00        00000 
-6.66510e+00  8.54732e+00        00000 
-7.45096e+00  8.77474e+00        00000 
 7.28021e+00  9.37288e+00        00000 
 6.45541e+00  9.11177e+00        00000 
 5.61663e+00  8.83089e+00        00000 
 4.76441e+00  8.58621e+00        00000 
 3.90189e+00  8.38376e+00        00000 
 3.03158e+00  8.22389e+00        00000 
 2.15661e+00  8.10485e+00        00000 
 1.28441e+00  8.02330e+00        00000 
 4.25313e-01  7.97991e+00        00000 
-4.25323e-01  7.98001e+00        00000 
-1.28493e+00  8.02341e+00        00000 
-2.15670e+00  8.10479e+00        00000 
-3.03143e+00  8.22413e+00        00000 
-3.90183e+00  8.38404e+00        00000 
-4.76439e+00  8.58651e+00        00000 
-5.61667e+00  8.83098e+00        00000 
-6.45492e+00  9.11087e+00        00000 
-7.28164e+00  9.37660e+00        00000 
-8.09396e+00  9.60298e+00        00000 
 7.89660e+00  1.02091e+01        00000 
 7.01469e+00  9.95596e+00        00000 
 6.10825e+00  9.68827e+00        00000 
 5.18448e+00  9.45677e+00        00000 
 4.24807e+00  9.26584e+00        00000 
 3.30347e+00  9.11456e+00        00000 
 2.35535e+00  9.00098e+00        00000 
 1.40914e+00  8.92376e+00        00000 
 4.68610e-01  8.88405e+00        00000 
-4.68757e-01  8.88410e+00        00000 
-1.40937e+00  8.92383e+00        00000 
-2.35548e+00  9.00106e+00        00000 
-3.30348e+00  9.11471e+00        00000 
-4.24804e+00  9.26610e+00        00000 
-5.18449e+00  9.45708e+00        00000 
-6.10826e+00  9.68839e+00        00000 
-7.01474e+00  9.95509e+00        00000 
-7.89716e+00  1.02123e+01        00000 
-8.73691e+00  1.04370e+01        00000 
 8.51125e+00  1.10532e+01        00000 
 7.57050e+00  1.08115e+01        00000 
 6.59454e+00  1.05628e+01        00000 
 5.59836e+00  1.03504e+01        00000 
 4.58833e+00  1.01765e+01        00000 
 3.57022e+00  1.00392e+01        00000 
 2.54872e+00  9.93669e+00        00000 
 1.52760e+00  9.86784e+00        00000 
 5.08732e-01  9.83302e+00        00000 
-5.08899e-01  9.83305e+00        00000 
-1.52777e+00  9.86791e+00        00000 
-2.54885e+00  9.93680e+00        00000 
-3.57029e+00  1.00394e+01        00000 
-4.58836e+00  1.01767e+01        00000 
-5.59843e+00  1.03507e+01        00000 
-6.59452e+00  1.05630e+01        00000 
-7.57121e+00  1.08107e+01        00000 
-8.51095e+00  1.10557e+01        00000 
-9.37967e+00  1.12778e+01        00000 
 9.12260e+00  1.19073e+01        00000 
 8.12005e+00  1.16818e+01        00000 
 7.07179e+00  1.14601e+01        00000 
 6.00205e+00  1.12742e+01        00000 
 4.91869e+00  1.11240e+01        00000 
 3.82801e+00  1.10065e+01        00000 
 2.73417e+00  1.09193e+01        00000 
 1.63991e+00  1.08613e+01        00000 
 5.46415e-01  1.08323e+01        00000 
-5.46596e-01  1.08323e+01        00000 
-1.64008e+00  1.08614e+01        00000 
-2.73432e+00  1.09195e+01        00000 
-3.82812e+00  1.10067e+01        00000 
-4.91877e+00  1.11243e+01        00000 
-6.00217e+00  1.12745e+01        00000 
-7.07174e+00  1.14602e+01        00000 
-8.12158e+00  1.16811e+01        00000 
-9.12141e+00  1.19089e+01        00000 
-1.00218e+01  1.21272e+01        00000 
 9.72744e+00  1.27757e+01        00000 
 8.65808e+00  1.25731e+01        00000 
 7.53391e+00  1.23886e+01        00000 
 6.38988e+00  1.22386e+01        00000 
 5.23441e+00  1.21192e+01        00000 
 4.07327e+00  1.20266e+01        00000 
 2.90968e+00  1.19583e+01        00000 
 1.74556e+00  1.19132e+01        00000 
 5.81695e-01  1.18907e+01        00000 
-5.81974e-01  1.18907e+01        00000 
-1.74583e+00  1.19133e+01        00000 
-2.90991e+00  1.19585e+01        00000 
-4.07346e+00  1.20268e+01        00000 
-5.23458e+00  1.21195e+01        00000 
-6.39011e+00  1.22390e+01        00000 
-7.53386e+00  1.23889e+01        00000 
-8.66076e+00  1.25727e+01        00000 
-9.72509e+00  1.27761e+01        00000 
-1.06627e+01  1.29884e+01        00000 
 1.03177e+01  1.36623e+01        00000 
 9.17256e+00  1.34924e+01        00000 
 7.96961e+00  1.33598e+01        00000 
 6.75281e+00  1.32553e+01        00000 
 5.52840e+00  1.31731e+01        00000 
 4.30065e+00  1.31095e+01        00000 
 3.07167e+00  1.30627e+01        00000 
 1.84260e+00  1.30317e+01        00000 
 6.13852e-01  1.30161e+01        00000 
-6.14707e-01  1.30161e+01        00000 
-1.84340e+00  1.30316e+01        00000 
-3.07237e+00  1.30626e+01        00000 
-4.30126e+00  1.31095e+01        00000 
-5.52895e+00  1.31730e+01        00000 
-6.75345e+00  1.32552e+01        00000 
-7.96994e+00  1.33596e+01        00000 
-9.17726e+00  1.34920e+01        00000 
-1.03132e+01  1.36607e+01        00000 
-1.13043e+01  1.38635e+01        00000 
 1.08626e+01  1.46033e+01        00000 
 9.61910e+00  1.44826e+01        00000 
 8.34308e+00  1.44091e+01        00000 
 7.05932e+00  1.43547e+01        00000 
 5.77284e+00  1.43127e+01        00000 
 4.48632e+00  1.42812e+01        00000 
 3.20138e+00  1.42588e+01        00000 
 1.91872e+00  1.42448e+01        00000 
 6.38078e-01  1.42382e+01        00000 
-6.41717e-01  1.42388e+01        00000 
-1.92221e+00  1.42462e+01        00000 
-3.20464e+00  1.42610e+01        00000 
-4.48944e+00  1.42838e+01        00000 
-5.77599e+00  1.43155e+01        00000 
-7.06284e+00  1.43575e+01        00000 
-8.34678e+00  1.44118e+01        00000 
-9.62908e+00  1.44840e+01        00000 
-1.08555e+01  1.46006e+01        00000 
-1.19710e+01  1.47909e+01        00000 
-2.26907e-01  4.57639e+00        00000 
-8.99724e-01  5.43320e+00        00000 
 1.13408e+01  1.57876e+01        00000 
 9.98692e+00  1.57130e+01        00000 
 8.64297e+00  1.56727e+01        00000 
 7.29787e+00  1.56477e+01        00000 
 5.95501e+00  1.56321e+01        00000 
 4.61732e+00  1.56253e+01        00000 
 3.28772e+00  1.56253e+01        00000 
 1.96736e+00  1.56287e+01        00000 
 6.54536e-01  1.56316e+01        00000 
-6.55325e-01  1.56316e+01        00000 
-1.96801e+00  1.56286e+01        00000 
-3.28817e+00  1.56252e+01        00000 
-4.61765e+00  1.56252e+01        00000 
-5.95533e+00  1.56319e+01        00000 
-7.29820e+00  1.56476e+01        00000 
-8.64357e+00  1.56731e+01        00000 
-9.98641e+00  1.57112e+01        00000 
-1.13353e+01  1.57822e+01        00000 
-1.27063e+01  1.59674e+01        00000 
 9.54147e-01  8.79700e-01        00000 
 1.66469e+00  1.60467e+00        00000 
 2.30955e+00  2.36193e+00        00000 
 2.94959e+00  3.13526e+00        00000 
 3.59146e+00  3.91979e+00        00000 
 4.23446e+00  4.71331e+00        00000 
 4.87802e+00  5.51420e+00        00000 
 5.52171e+00  6.32145e+00        00000 
 6.16529e+00  7.13435e+00        00000 
 6.80865e+00  7.95244e+00        00000 
-1.02315e+00  6.32188e+00        00000 
 7.45181e+00  8.77553e+00        00000 
 8.09487e+00  9.60377e+00        00000 
 8.73786e+00  1.04377e+01        00000 
 9.38064e+00  1.12785e+01        00000 
 1.00228e+01  1.21277e+01        00000 
 1.06638e+01  1.29886e+01        00000 
 1.13052e+01  1.38642e+01        00000 
 1.19680e+01  1.47800e+01        00000 
 1.27075e+01  1.59720e+01        00000 
 1.96739e-16 -1.16486e-16        00000 
 1.17653e+01  1.74254e+01        00000 
 1.03091e+01  1.73368e+01        00000 
 8.89679e+00  1.72705e+01        00000 
 7.48790e+00  1.72269e+01        00000 
 6.08570e+00  1.72038e+01        00000 
 4.69649e+00  1.72003e+01        00000 
 3.32778e+00  1.72114e+01        00000 
 1.98335e+00  1.72280e+01        00000 
 6.59153e-01  1.72397e+01        00000 
-6.57047e-01  1.72393e+01        00000 
-1.98102e+00  1.72269e+01        00000 
-3.32516e+00  1.72096e+01        00000 
-4.69371e+00  1.71979e+01        00000 
-6.08293e+00  1.72011e+01        00000 
-7.48488e+00  1.72242e+01        00000 
-8.89407e+00  1.72686e+01        00000 
-1.02987e+01  1.73345e+01        00000 
-1.17673e+01  1.74279e+01        00000 
-1.34042e+01  1.75749e+01        00000 
 1.21549e+01  1.93274e+01        00000 
 1.06170e+01  1.91913e+01        00000 
 9.13169e+00  1.90675e+01        00000 
 7.64959e+00  1.89762e+01        00000 
 6.17753e+00  1.89198e+01        00000 
 4.72865e+00  1.88973e+01        00000 
 3.32006e+00  1.89018e+01        00000 
 1.96197e+00  1.89197e+01        00000 
 6.47559e-01  1.89345e+01        00000 
-6.49306e-01  1.89347e+01        00000 
-1.96300e+00  1.89203e+01        00000 
-3.32004e+00  1.89023e+01        00000 
-4.72824e+00  1.88973e+01        00000 
-6.17745e+00  1.89193e+01        00000 
-7.64996e+00  1.89757e+01        00000 
-9.13291e+00  1.90672e+01        00000 
-1.06142e+01  1.91914e+01        00000 
-1.21621e+01  1.93315e+01        00000 
-1.39482e+01  1.94724e+01        00000 
 1.25527e+01  2.12899e+01        00000 
 1.09453e+01  2.11140e+01        00000 
 9.38162e+00  2.09346e+01        00000 
 7.81698e+00  2.07906e+01        00000 
 6.26205e+00  2.06891e+01        00000 
 4.74054e+00  2.06306e+01        00000 
 3.28471e+00  2.06086e+01        00000 
 1.91665e+00  2.06089e+01        00000 
 6.27293e-01  2.06146e+01        00000 
-6.30316e-01  2.06151e+01        00000 
-1.91833e+00  2.06095e+01        00000 
-3.28368e+00  2.06093e+01        00000 
-4.73877e+00  2.06302e+01        00000 
-6.26130e+00  2.06886e+01        00000 
-7.81694e+00  2.07905e+01        00000 
-9.38236e+00  2.09348e+01        00000 
-1.09422e+01  2.11146e+01        00000 
-1.25611e+01  2.12951e+01        00000 
-1.43770e+01  2.14444e+01        00000 
 1.29608e+01  2.32705e+01        00000 
 1.12992e+01  2.30693e+01        00000 
 9.66274e+00  2.28464e+01        00000 
 8.01229e+00  2.26529e+01        00000 
 6.36287e+00  2.25008e+01        00000 
 4.75433e+00  2.23926e+01        00000 
 3.24236e+00  2.23161e+01        00000 
 1.86394e+00  2.22574e+01        00000 
 6.06503e-01  2.22182e+01        00000 
-6.10771e-01  2.22163e+01        00000 
-1.86822e+00  2.22591e+01        00000 
-3.23806e+00  2.23146e+01        00000 
-4.75185e+00  2.23911e+01        00000 
-6.36249e+00  2.25005e+01        00000 
-8.01270e+00  2.26532e+01        00000 
-9.66371e+00  2.28468e+01        00000 
-1.12971e+01  2.30695e+01        00000 
-1.29683e+01  2.32756e+01        00000 
-1.48124e+01  2.34333e+01        00000 
 1.33799e+01  2.52762e+01        00000 
 1.16754e+01  2.50613e+01        00000 
 9.97517e+00  2.48118e+01        00000 
 8.24111e+00  2.45810e+01        00000 
 6.48427e+00  2.43817e+01        00000 
 4.76839e+00  2.42233e+01        00000 
 3.21087e+00  2.40664e+01        00000 
-4.76648e+00  2.42231e+01        00000 
-6.48478e+00  2.43831e+01        00000 
-8.24179e+00  2.45824e+01        00000 
-9.97613e+00  2.48127e+01        00000 
-1.16741e+01  2.50612e+01        00000 
-1.33870e+01  2.52809e+01        00000 
-1.52525e+01  2.54432e+01        00000 
 1.38040e+01  2.73070e+01        00000 
 1.20648e+01  2.70939e+01        00000 
 1.03110e+01  2.68436e+01        00000 
 8.49900e+00  2.66044e+01        00000 
 6.62347e+00  2.63909e+01        00000 
 4.74496e+00  2.62101e+01        00000 
-6.62428e+00  2.63950e+01        00000 
-8.49933e+00  2.66068e+01        00000 
-1.03117e+01  2.68447e+01        00000 
-1.20642e+01  2.70938e+01        00000 
-1.38108e+01  2.73111e+01        00000 