<?xml version="1.0" encoding="utf-8"?>
<VTKFile byte_order="LittleEndian" type="UnstructuredGrid" version="0.1">
   <UnstructuredGrid>
      <Piece NumberOfCells="96" NumberOfPoints="96">
         <Points>
            <DataArray Name="Points" NumberOfComponents="3" format="ascii" type="Float32">
-0.1579 -0.0526 0.0000
-0.1579 0.0526 0.0000
-0.0526 -0.1579 0.0000
-0.0526 0.1579 0.0000
0.0526 -0.1579 0.0000
0.0526 0.1579 0.0000
0.1579 -0.0526 0.0000
0.1579 0.0526 0.0000
-0.1053 -0.1053 0.0000
-0.1053 0.1053 0.0000
0.1053 -0.1053 0.0000
0.1053 0.1053 0.0000
1.8421 -0.0526 0.0000
1.8421 0.0526 0.0000
1.9474 -0.1579 0.0000
1.9474 0.1579 0.0000
2.0526 -0.1579 0.0000
2.0526 0.1579 0.0000
2.1579 -0.0526 0.0000
2.1579 0.0526 0.0000
1.8947 -0.1053 0.0000
1.8947 0.1053 0.0000
2.1053 -0.1053 0.0000
2.1053 0.1053 0.0000
3.8421 -0.0526 0.0000
3.8421 0.0526 0.0000
3.9474 -0.1579 0.0000
3.9474 0.1579 0.0000
4.0526 -0.1579 0.0000
4.0526 0.1579 0.0000
4.1579 -0.0526 0.0000
4.1579 0.0526 0.0000
3.8947 -0.1053 0.0000
3.8947 0.1053 0.0000
4.1053 -0.1053 0.0000
4.1053 0.1053 0.0000
-0.0843 -0.0526 0.0000
-0.1054 -0.0001 0.0000
-0.0843 0.0526 0.0000
-0.1054 0.0001 0.0000
-0.0526 -0.0843 0.0000
-0.0001 -0.1054 0.0000
-0.0725 -0.0725 0.0000
-0.0526 0.0843 0.0000
-0.0725 0.0725 0.0000
-0.0001 0.1054 0.0000
0.0526 -0.0843 0.0000
0.0001 -0.1054 0.0000
0.0843 -0.0526 0.0000
0.0725 -0.0725 0.0000
0.0526 0.0843 0.0000
0.0843 0.0526 0.0000
0.0725 0.0725 0.0000
0.0001 0.1054 0.0000
0.1054 -0.0001 0.0000
0.1054 0.0001 0.0000
1.9157 -0.0526 0.0000
1.8946 -0.0001 0.0000
1.9157 0.0526 0.0000
1.8946 0.0001 0.0000
1.9474 -0.0843 0.0000
1.9999 -0.1054 0.0000
1.9275 -0.0725 0.0000
1.9474 0.0843 0.0000
1.9275 0.0725 0.0000
1.9999 0.1054 0.0000
2.0526 -0.0843 0.0000
2.0001 -0.1054 0.0000
2.0843 -0.0526 0.0000
2.0725 -0.0725 0.0000
2.0526 0.0843 0.0000
2.0843 0.0526 0.0000
2.0725 0.0725 0.0000
2.0001 0.1054 0.0000
2.1054 -0.0001 0.0000
2.1054 0.0001 0.0000
3.9157 -0.0526 0.0000
3.8946 -0.0001 0.0000
3.9157 0.0526 0.0000
3.8946 0.0001 0.0000
3.9474 -0.0843 0.0000
3.9999 -0.1054 0.0000
3.9275 -0.0725 0.0000
3.9474 0.0843 0.0000
3.9275 0.0725 0.0000
3.9999 0.1054 0.0000
4.0526 -0.0843 0.0000
4.0001 -0.1054 0.0000
4.0843 -0.0526 0.0000
4.0725 -0.0725 0.0000
4.0526 0.0843 0.0000
4.0843 0.0526 0.0000
4.0725 0.0725 0.0000
4.0001 0.1054 0.0000
4.1054 -0.0001 0.0000
4.1054 0.0001 0.0000</DataArray>
         </Points>
         <Cells>
            <DataArray Name="connectivity" format="ascii" type="Int32">
 1 37 39
 1 0 37
 40 2 41
 3 43 45
 46 4 10
 49 46 10
 50 52 11
 5 50 11
 36 0 8
 42 36 8
 38 1 39
 5 3 53
 3 45 53
 48 49 10
 6 48 10
 7 51 55
 40 42 8
 2 40 8
 43 3 9
 44 43 9
 4 46 47
 50 5 53
 6 7 54
 7 55 54
 0 36 37
 38 44 9
 1 38 9
 2 4 41
 4 47 41
 48 6 54
 51 7 11
 52 51 11
 13 12 59
 12 57 59
 60 14 61
 15 63 65
 66 16 22
 69 66 22
 70 72 23
 17 70 23
 56 12 20
 62 56 20
 58 13 59
 17 65 73
 17 15 65
 68 69 22
 18 68 22
 19 71 75
 60 62 20
 14 60 20
 63 15 21
 64 63 21
 16 66 67
 70 17 73
 18 19 74
 19 75 74
 12 56 57
 58 64 21
 13 58 21
 14 67 61
 14 16 67
 68 18 74
 71 19 23
 72 71 23
 25 24 79
 24 77 79
 80 26 81
 27 83 85
 86 28 34
 89 86 34
 90 92 35
 29 90 35
 76 24 32
 82 76 32
 78 25 79
 29 27 93
 27 85 93
 88 89 34
 30 88 34
 31 91 95
 80 82 32
 26 80 32
 83 27 33
 84 83 33
 28 86 87
 90 29 93
 30 31 94
 31 95 94
 24 76 77
 78 84 33
 25 78 33
 26 28 81
 28 87 81
 88 30 94
 91 31 35
 92 91 35</DataArray>
            <DataArray Name="offsets" format="ascii" type="Int32">3 6 9 12 15 18 21 24 27 30 33 36 39 42 45 48 51 54 57 60 63 66 69 72 75 78 81 84 87 90 93 96 99 102 105 108 111 114 117 120 123 126 129 132 135 138 141 144 147 150 153 156 159 162 165 168 171 174 177 180 183 186 189 192 195 198 201 204 207 210 213 216 219 222 225 228 231 234 237 240 243 246 249 252 255 258 261 264 267 270 273 276 279 282 285 288 </DataArray>
            <DataArray Name="types" format="ascii" type="UInt8">5 5 5 5 5 5 5 5 5 5 5 5 5 5 5 5 5 5 5 5 5 5 5 5 5 5 5 5 5 5 5 5 5 5 5 5 5 5 5 5 5 5 5 5 5 5 5 5 5 5 5 5 5 5 5 5 5 5 5 5 5 5 5 5 5 5 5 5 5 5 5 5 5 5 5 5 5 5 5 5 5 5 5 5 5 5 5 5 5 5 5 5 5 5 5 5 </DataArray>
         </Cells>
         <PointData>
            <DataArray Name="fValues" NumberOfComponents="3" format="ascii" type="Float64">
 2.73512e-01  3.83091e+00        00000 
-2.75443e-01  3.82845e+00        00000 
 1.07880e+00  4.82806e+00        00000 
-1.07713e+00  4.82520e+00        00000 
 1.21266e+00  5.96835e+00        00000 
-1.20760e+00  5.96811e+00        00000 
 4.25592e-01  7.07523e+00        00000 
-4.24346e-01  7.07425e+00        00000 
 6.23974e-01  4.28719e+00        00000 
-6.23099e-01  4.29312e+00        00000 
 8.19319e-01  6.52479e+00        00000 
-8.30666e-01  6.53134e+00        00000 
 9.38299e-01  3.44674e+01        00000 
-9.39945e-01  3.44653e+01        00000 
 3.00463e+00  3.67471e+01        00000 
-3.00418e+00  3.67448e+01        00000 
 3.08459e+00  3.91455e+01        00000 
-3.08080e+00  3.91447e+01        00000 
 1.02902e+00  4.14904e+01        00000 
-1.02753e+00  4.14891e+01        00000 
 1.93341e+00  3.55722e+01        00000 
-1.93041e+00  3.55782e+01        00000 
 2.04674e+00  4.03267e+01        00000 
-2.05571e+00  4.03330e+01        00000 
 1.28077e+00  8.40133e+01        00000 
-1.28218e+00  8.40114e+01        00000 
 3.96864e+00  8.69467e+01        00000 
-3.96946e+00  8.69449e+01        00000 
 3.99432e+00  8.99824e+01        00000 
-3.99170e+00  8.99811e+01        00000 
 1.30914e+00  9.29419e+01        00000 
-1.30729e+00  9.29403e+01        00000 
 2.59977e+00  8.54508e+01        00000 
-2.59433e+00  8.54570e+01        00000 
 2.62968e+00  9.14778e+01        00000 
-2.63653e+00  9.14843e+01        00000 
 2.50948e-01  4.45403e+00        00000 
-2.92731e-04  4.24815e+00        00000 
-2.45346e-01  4.46189e+00        00000 
-1.27301e-03  4.24814e+00        00000 
 4.93540e-01  4.75442e+00        00000 
 6.99102e-01  5.37440e+00        00000 
 3.85351e-01  4.55869e+00        00000 
-4.86854e-01  4.76217e+00        00000 
-3.79504e-01  4.56860e+00        00000 
-6.93075e-01  5.37264e+00        00000 
 5.98855e-01  5.98652e+00        00000 
 6.99341e-01  5.37643e+00        00000 
 3.61750e-01  6.31997e+00        00000 
 5.16894e-01  6.19410e+00        00000 
-6.02967e-01  5.98981e+00        00000 
-3.67012e-01  6.32303e+00        00000 
-5.26197e-01  6.19956e+00        00000 
-6.93308e-01  5.37469e+00        00000 
 1.77952e-03  6.54817e+00        00000 
 2.61772e-04  6.54817e+00        00000 
 9.09574e-01  3.59984e+01        00000 
 9.20131e-04  3.55370e+01        00000 
-9.04056e-01  3.60051e+01        00000 
-2.43388e-03  3.55370e+01        00000 
 1.53206e+00  3.66851e+01        00000 
 1.96704e+00  3.79307e+01        00000 
 1.28739e+00  3.62494e+01        00000 
-1.52591e+00  3.66918e+01        00000 
-1.28090e+00  3.62582e+01        00000 
-1.96335e+00  3.79290e+01        00000 
 1.59235e+00  3.91720e+01        00000 
 1.96718e+00  3.79350e+01        00000 
 9.73107e-01  3.98784e+01        00000 
 1.36237e+00  3.96139e+01        00000 
-1.59673e+00  3.91760e+01        00000 
-9.78187e-01  3.98823e+01        00000 
-1.37068e+00  3.96201e+01        00000 
-1.96349e+00  3.79333e+01        00000 
 2.85323e-03  4.03550e+01        00000 
-8.19184e-04  4.03550e+01        00000 
 1.24374e+00  8.60107e+01        00000 
 1.52847e-03  8.54192e+01        00000 
-1.23799e+00  8.60166e+01        00000 
-3.04823e-03  8.54192e+01        00000 
 2.05346e+00  8.68944e+01        00000 
 2.58929e+00  8.84579e+01        00000 
 1.74441e+00  8.63368e+01        00000 
-2.04753e+00  8.69003e+01        00000 
-1.73686e+00  8.63448e+01        00000 
-2.58794e+00  8.84561e+01        00000 
 2.06764e+00  9.00201e+01        00000 
 2.58933e+00  8.84633e+01        00000 
 1.25873e+00  9.09116e+01        00000 
 1.76143e+00  9.05791e+01        00000 
-2.07257e+00  9.00253e+01        00000 
-1.26389e+00  9.09168e+01        00000 
-1.76911e+00  9.05866e+01        00000 
-2.58798e+00  8.84616e+01        00000 
 3.42768e-03  9.15130e+01        00000 
-1.24452e-03  9.15130e+01        00000 </DataArray>
         </PointData>
         <CellData/>
      </Piece>
   </UnstructuredGrid>
</VTKFile>