<?xml version="1.0" encoding="utf-8"?>
<VTKFile byte_order="LittleEndian" type="UnstructuredGrid" version="0.1">
   <UnstructuredGrid>
      <Piece NumberOfCells="4248" NumberOfPoints="2216">
         <Points>
            <DataArray Name="Points" NumberOfComponents="3" format="ascii" type="Float32">
-1.0000 -0.8947 0.0000
-1.0000 -0.7895 0.0000
-1.0000 -0.6842 0.0000
-1.0000 -0.5789 0.0000
-1.0000 -0.4737 0.0000
-1.0000 -0.3684 0.0000
-1.0000 -0.2632 0.0000
-1.0000 -0.1579 0.0000
-1.0000 -0.0526 0.0000
-1.0000 0.0526 0.0000
-1.0000 0.1579 0.0000
-1.0000 0.2632 0.0000
-1.0000 0.3684 0.0000
-1.0000 0.4737 0.0000
-1.0000 0.5789 0.0000
-1.0000 0.6842 0.0000
-1.0000 0.7895 0.0000
-1.0000 0.8947 0.0000
-1.0000 1.0000 0.0000
-0.8947 -0.8947 0.0000
-0.8947 -0.7895 0.0000
-0.8947 -0.6842 0.0000
-0.8947 -0.5789 0.0000
-0.8947 -0.4737 0.0000
-0.8947 -0.3684 0.0000
-0.8947 -0.2632 0.0000
-0.8947 -0.1579 0.0000
-0.8947 -0.0526 0.0000
-0.8947 0.0526 0.0000
-0.8947 0.1579 0.0000
-0.8947 0.2632 0.0000
-0.8947 0.3684 0.0000
-0.8947 0.4737 0.0000
-0.8947 0.5789 0.0000
-0.8947 0.6842 0.0000
-0.8947 0.7895 0.0000
-0.8947 0.8947 0.0000
-0.8947 1.0000 0.0000
-0.7895 -0.8947 0.0000
-0.7895 -0.7895 0.0000
-0.7895 -0.6842 0.0000
-0.7895 -0.5789 0.0000
-0.7895 -0.4737 0.0000
-0.7895 -0.3684 0.0000
-0.7895 -0.2632 0.0000
-0.7895 -0.1579 0.0000
-0.7895 -0.0526 0.0000
-0.7895 0.0526 0.0000
-0.7895 0.1579 0.0000
-0.7895 0.2632 0.0000
-0.7895 0.3684 0.0000
-0.7895 0.4737 0.0000
-0.7895 0.5789 0.0000
-0.7895 0.6842 0.0000
-0.7895 0.7895 0.0000
-0.7895 0.8947 0.0000
-0.7895 1.0000 0.0000
-0.6842 -0.8947 0.0000
-0.6842 -0.7895 0.0000
-0.6842 -0.6842 0.0000
-0.6842 -0.5789 0.0000
-0.6842 -0.4737 0.0000
-0.6842 -0.3684 0.0000
-0.6842 -0.2632 0.0000
-0.6842 -0.1579 0.0000
-0.6842 -0.0526 0.0000
-0.6842 0.0526 0.0000
-0.6842 0.1579 0.0000
-0.6842 0.2632 0.0000
-0.6842 0.3684 0.0000
-0.6842 0.4737 0.0000
-0.6842 0.5789 0.0000
-0.6842 0.6842 0.0000
-0.6842 0.7895 0.0000
-0.6842 0.8947 0.0000
-0.6842 1.0000 0.0000
-0.5789 -0.8947 0.0000
-0.5789 -0.7895 0.0000
-0.5789 -0.6842 0.0000
-0.5789 -0.5789 0.0000
-0.5789 -0.4737 0.0000
-0.5789 -0.3684 0.0000
-0.5789 -0.2632 0.0000
-0.5789 -0.1579 0.0000
-0.5789 -0.0526 0.0000
-0.5789 0.0526 0.0000
-0.5789 0.1579 0.0000
-0.5789 0.2632 0.0000
-0.5789 0.3684 0.0000
-0.5789 0.4737 0.0000
-0.5789 0.5789 0.0000
-0.5789 0.6842 0.0000
-0.5789 0.7895 0.0000
-0.5789 0.8947 0.0000
-0.5789 1.0000 0.0000
-0.4737 -0.8947 0.0000
-0.4737 -0.7895 0.0000
-0.4737 -0.6842 0.0000
-0.4737 -0.5789 0.0000
-0.4737 -0.4737 0.0000
-0.4737 -0.3684 0.0000
-0.4737 -0.2632 0.0000
-0.4737 -0.1579 0.0000
-0.4737 -0.0526 0.0000
-0.4737 0.0526 0.0000
-0.4737 0.1579 0.0000
-0.4737 0.2632 0.0000
-0.4737 0.3684 0.0000
-0.4737 0.4737 0.0000
-0.4737 0.5789 0.0000
-0.4737 0.6842 0.0000
-0.4737 0.7895 0.0000
-0.4737 0.8947 0.0000
-0.4737 1.0000 0.0000
-0.3684 -0.8947 0.0000
-0.3684 -0.7895 0.0000
-0.3684 -0.6842 0.0000
-0.3684 -0.5789 0.0000
-0.3684 -0.4737 0.0000
-0.3684 -0.3684 0.0000
-0.3684 -0.2632 0.0000
-0.3684 -0.1579 0.0000
-0.3684 -0.0526 0.0000
-0.3684 0.0526 0.0000
-0.3684 0.1579 0.0000
-0.3684 0.2632 0.0000
-0.3684 0.3684 0.0000
-0.3684 0.4737 0.0000
-0.3684 0.5789 0.0000
-0.3684 0.6842 0.0000
-0.3684 0.7895 0.0000
-0.3684 0.8947 0.0000
-0.3684 1.0000 0.0000
-0.2632 -0.8947 0.0000
-0.2632 -0.7895 0.0000
-0.2632 -0.6842 0.0000
-0.2632 -0.5789 0.0000
-0.2632 -0.4737 0.0000
-0.2632 -0.3684 0.0000
-0.2632 -0.2632 0.0000
-0.2632 -0.1579 0.0000
-0.2632 -0.0526 0.0000
-0.2632 0.0526 0.0000
-0.2632 0.1579 0.0000
-0.2632 0.2632 0.0000
-0.2632 0.3684 0.0000
-0.2632 0.4737 0.0000
-0.2632 0.5789 0.0000
-0.2632 0.6842 0.0000
-0.2632 0.7895 0.0000
-0.2632 0.8947 0.0000
-0.2632 1.0000 0.0000
-0.1579 -0.8947 0.0000
-0.1579 -0.7895 0.0000
-0.1579 -0.6842 0.0000
-0.1579 -0.5789 0.0000
-0.1579 -0.4737 0.0000
-0.1579 -0.3684 0.0000
-0.1579 -0.2632 0.0000
-0.1579 -0.1579 0.0000
-0.1579 -0.0526 0.0000
-0.1579 0.1579 0.0000
-0.1579 0.2632 0.0000
-0.1579 0.3684 0.0000
-0.1579 0.4737 0.0000
-0.1579 0.5789 0.0000
-0.1579 0.6842 0.0000
-0.1579 0.7895 0.0000
-0.1579 0.8947 0.0000
-0.1579 1.0000 0.0000
-0.0526 -0.8947 0.0000
-0.0526 -0.7895 0.0000
-0.0526 -0.6842 0.0000
-0.0526 -0.5789 0.0000
-0.0526 -0.4737 0.0000
-0.0526 -0.3684 0.0000
-0.0526 -0.2632 0.0000
-0.0526 -0.1579 0.0000
-0.0526 0.2632 0.0000
-0.0526 0.3684 0.0000
-0.0526 0.4737 0.0000
-0.0526 0.5789 0.0000
-0.0526 0.6842 0.0000
-0.0526 0.7895 0.0000
-0.0526 0.8947 0.0000
-0.0526 1.0000 0.0000
0.0526 -0.8947 0.0000
0.0526 -0.7895 0.0000
0.0526 -0.6842 0.0000
0.0526 -0.5789 0.0000
0.0526 -0.4737 0.0000
0.0526 -0.3684 0.0000
0.0526 -0.2632 0.0000
0.0526 -0.1579 0.0000
0.0526 0.2632 0.0000
0.0526 0.3684 0.0000
0.0526 0.4737 0.0000
0.0526 0.5789 0.0000
0.0526 0.6842 0.0000
0.0526 0.7895 0.0000
0.0526 0.8947 0.0000
0.0526 1.0000 0.0000
0.1579 -0.8947 0.0000
0.1579 -0.7895 0.0000
0.1579 -0.6842 0.0000
0.1579 -0.5789 0.0000
0.1579 -0.4737 0.0000
0.1579 -0.3684 0.0000
0.1579 -0.2632 0.0000
0.1579 -0.1579 0.0000
0.1579 -0.0526 0.0000
0.1579 0.0526 0.0000
0.1579 0.1579 0.0000
0.1579 0.2632 0.0000
0.1579 0.3684 0.0000
0.1579 0.4737 0.0000
0.1579 0.5789 0.0000
0.1579 0.6842 0.0000
0.1579 0.7895 0.0000
0.1579 0.8947 0.0000
0.1579 1.0000 0.0000
0.2632 -0.8947 0.0000
0.2632 -0.7895 0.0000
0.2632 -0.6842 0.0000
0.2632 -0.5789 0.0000
0.2632 -0.4737 0.0000
0.2632 -0.3684 0.0000
0.2632 -0.2632 0.0000
0.2632 -0.1579 0.0000
0.2632 -0.0526 0.0000
0.2632 0.0526 0.0000
0.2632 0.1579 0.0000
0.2632 0.2632 0.0000
0.2632 0.3684 0.0000
0.2632 0.4737 0.0000
0.2632 0.5789 0.0000
0.2632 0.6842 0.0000
0.2632 0.7895 0.0000
0.2632 0.8947 0.0000
0.2632 1.0000 0.0000
0.3684 -0.8947 0.0000
0.3684 -0.7895 0.0000
0.3684 -0.6842 0.0000
0.3684 -0.5789 0.0000
0.3684 -0.4737 0.0000
0.3684 -0.3684 0.0000
0.3684 -0.2632 0.0000
0.3684 -0.1579 0.0000
0.3684 -0.0526 0.0000
0.3684 0.0526 0.0000
0.3684 0.1579 0.0000
0.3684 0.2632 0.0000
0.3684 0.3684 0.0000
0.3684 0.4737 0.0000
0.3684 0.5789 0.0000
0.3684 0.6842 0.0000
0.3684 0.7895 0.0000
0.3684 0.8947 0.0000
0.3684 1.0000 0.0000
0.4737 -0.8947 0.0000
0.4737 -0.7895 0.0000
0.4737 -0.6842 0.0000
0.4737 -0.5789 0.0000
0.4737 -0.4737 0.0000
0.4737 -0.3684 0.0000
0.4737 -0.2632 0.0000
0.4737 -0.1579 0.0000
0.4737 -0.0526 0.0000
0.4737 0.0526 0.0000
0.4737 0.1579 0.0000
0.4737 0.2632 0.0000
0.4737 0.3684 0.0000
0.4737 0.4737 0.0000
0.4737 0.5789 0.0000
0.4737 0.6842 0.0000
0.4737 0.7895 0.0000
0.4737 0.8947 0.0000
0.4737 1.0000 0.0000
0.5789 -0.8947 0.0000
0.5789 -0.7895 0.0000
0.5789 -0.6842 0.0000
0.5789 -0.5789 0.0000
0.5789 -0.4737 0.0000
0.5789 -0.3684 0.0000
0.5789 -0.2632 0.0000
0.5789 -0.1579 0.0000
0.5789 -0.0526 0.0000
0.5789 0.0526 0.0000
0.5789 0.1579 0.0000
0.5789 0.2632 0.0000
0.5789 0.3684 0.0000
0.5789 0.4737 0.0000
0.5789 0.5789 0.0000
0.5789 0.6842 0.0000
0.5789 0.7895 0.0000
0.5789 0.8947 0.0000
0.5789 1.0000 0.0000
0.6842 -0.8947 0.0000
0.6842 -0.7895 0.0000
0.6842 -0.6842 0.0000
0.6842 -0.5789 0.0000
0.6842 -0.4737 0.0000
0.6842 -0.3684 0.0000
0.6842 -0.2632 0.0000
0.6842 -0.1579 0.0000
0.6842 -0.0526 0.0000
0.6842 0.0526 0.0000
0.6842 0.1579 0.0000
0.6842 0.2632 0.0000
0.6842 0.3684 0.0000
0.6842 0.4737 0.0000
0.6842 0.5789 0.0000
0.6842 0.6842 0.0000
0.6842 0.7895 0.0000
0.6842 0.8947 0.0000
0.6842 1.0000 0.0000
0.7895 -0.8947 0.0000
0.7895 -0.7895 0.0000
0.7895 -0.6842 0.0000
0.7895 -0.5789 0.0000
0.7895 -0.4737 0.0000
0.7895 -0.3684 0.0000
0.7895 -0.2632 0.0000
0.7895 -0.1579 0.0000
0.7895 -0.0526 0.0000
0.7895 0.0526 0.0000
0.7895 0.1579 0.0000
0.7895 0.2632 0.0000
0.7895 0.3684 0.0000
0.7895 0.4737 0.0000
0.7895 0.5789 0.0000
0.7895 0.6842 0.0000
0.7895 0.7895 0.0000
0.7895 0.8947 0.0000
0.7895 1.0000 0.0000
0.8947 -0.8947 0.0000
0.8947 -0.7895 0.0000
0.8947 -0.6842 0.0000
0.8947 -0.5789 0.0000
0.8947 -0.4737 0.0000
0.8947 -0.3684 0.0000
0.8947 -0.2632 0.0000
0.8947 -0.1579 0.0000
0.8947 -0.0526 0.0000
0.8947 0.0526 0.0000
0.8947 0.1579 0.0000
0.8947 0.2632 0.0000
0.8947 0.3684 0.0000
0.8947 0.4737 0.0000
0.8947 0.5789 0.0000
0.8947 0.6842 0.0000
0.8947 0.7895 0.0000
0.8947 0.8947 0.0000
0.8947 1.0000 0.0000
-0.1579 0.0526 0.0000
-0.0526 0.1579 0.0000
1.0000 -0.8947 0.0000
1.0000 -0.7895 0.0000
1.0000 -0.6842 0.0000
1.0000 -0.5789 0.0000
1.0000 -0.4737 0.0000
1.0000 -0.3684 0.0000
1.0000 -0.2632 0.0000
1.0000 -0.1579 0.0000
1.0000 -0.0526 0.0000
1.0000 0.0526 0.0000
1.0000 0.1579 0.0000
1.0000 0.2632 0.0000
1.0000 0.3684 0.0000
1.0000 0.4737 0.0000
1.0000 0.5789 0.0000
1.0000 0.6842 0.0000
1.0000 0.7895 0.0000
1.0000 0.8947 0.0000
1.0000 1.0000 0.0000
-0.8947 -1.0000 0.0000
-0.7895 -1.0000 0.0000
-0.6842 -1.0000 0.0000
-0.5789 -1.0000 0.0000
-0.4737 -1.0000 0.0000
-0.3684 -1.0000 0.0000
-0.2632 -1.0000 0.0000
-0.1579 -1.0000 0.0000
-0.0526 -1.0000 0.0000
0.0526 -1.0000 0.0000
0.0526 0.1579 0.0000
0.1579 -1.0000 0.0000
0.2632 -1.0000 0.0000
0.3684 -1.0000 0.0000
0.4737 -1.0000 0.0000
0.5789 -1.0000 0.0000
0.6842 -1.0000 0.0000
0.7895 -1.0000 0.0000
0.8947 -1.0000 0.0000
1.0000 -1.0000 0.0000
-1.0000 -1.0000 0.0000
1.1053 -0.8947 0.0000
1.1053 -0.7895 0.0000
1.1053 -0.6842 0.0000
1.1053 -0.5789 0.0000
1.1053 -0.4737 0.0000
1.1053 -0.3684 0.0000
1.1053 -0.2632 0.0000
1.1053 -0.1579 0.0000
1.1053 -0.0526 0.0000
1.1053 0.0526 0.0000
1.1053 0.1579 0.0000
1.1053 0.2632 0.0000
1.1053 0.3684 0.0000
1.1053 0.4737 0.0000
1.1053 0.5789 0.0000
1.1053 0.6842 0.0000
1.1053 0.7895 0.0000
1.1053 0.8947 0.0000
1.1053 1.0000 0.0000
1.2105 -0.8947 0.0000
1.2105 -0.7895 0.0000
1.2105 -0.6842 0.0000
1.2105 -0.5789 0.0000
1.2105 -0.4737 0.0000
1.2105 -0.3684 0.0000
1.2105 -0.2632 0.0000
1.2105 -0.1579 0.0000
1.2105 -0.0526 0.0000
1.2105 0.0526 0.0000
1.2105 0.1579 0.0000
1.2105 0.2632 0.0000
1.2105 0.3684 0.0000
1.2105 0.4737 0.0000
1.2105 0.5789 0.0000
1.2105 0.6842 0.0000
1.2105 0.7895 0.0000
1.2105 0.8947 0.0000
1.2105 1.0000 0.0000
1.3158 -0.8947 0.0000
1.3158 -0.7895 0.0000
1.3158 -0.6842 0.0000
1.3158 -0.5789 0.0000
1.3158 -0.4737 0.0000
1.3158 -0.3684 0.0000
1.3158 -0.2632 0.0000
[...]
         <PointData>
            <DataArray Name="fValues" NumberOfComponents="3" format="ascii" type="Float64">
-1.06863e-16 -4.43273e-18        00000 
 6.47317e-17  4.85487e-17        00000 
-4.10042e-17 -1.53342e-17        00000 
 3.77601e-17  2.69715e-17        00000 
-1.61117e-18 -1.96236e-17        00000 
 2.15772e-17  2.96687e-17        00000 
 4.03688e-17 -2.20270e-18        00000 
 1.88801e-17  1.07886e-17        00000 
 4.22727e-19  7.18835e-19        00000 
-5.73145e-18  6.74288e-18        00000 
 2.02479e-17  2.32978e-18        00000 
-4.04573e-17  1.34858e-17        00000 
 3.76689e-17  3.54018e-18        00000 
-5.12459e-17  2.56229e-17        00000 
 1.79605e-17 -3.15156e-17        00000 
-1.61829e-16  2.96687e-17        00000 
 4.35361e-17 -1.08840e-17        00000 
-8.70492e-17  2.17623e-17        00000 
 7.88503e-17  5.16474e-17        00000 
 7.87963e-01  4.44349e-01        00000 
 6.47323e-01  3.00952e-01        00000 
 5.37381e-01  2.15674e-01        00000 
 4.42463e-01  1.59017e-01        00000 
 3.54906e-01  1.19964e-01        00000 
 2.71917e-01  9.30408e-02        00000 
 1.92032e-01  7.51332e-02        00000 
 1.14315e-01  6.42600e-02        00000 
 3.79373e-02  5.91514e-02        00000 
-3.79777e-02  5.91596e-02        00000 
-1.14347e-01  6.42820e-02        00000 
-1.92052e-01  7.51620e-02        00000 
-2.71923e-01  9.30687e-02        00000 
-3.54901e-01  1.19985e-01        00000 
-4.42450e-01  1.59029e-01        00000 
-5.37364e-01  2.15677e-01        00000 
-6.47302e-01  3.00948e-01        00000 
-7.87936e-01  4.44337e-01        00000 
-1.14009e+00  7.43576e-01        00000 
 1.65220e+00  9.52459e-01        00000 
 1.34570e+00  7.24326e-01        00000 
 1.11367e+00  5.68413e-01        00000 
 9.12955e-01  4.59252e-01        00000 
 7.29849e-01  3.81907e-01        00000 
 5.57655e-01  3.27672e-01        00000 
 3.92953e-01  2.91166e-01        00000 
 2.33533e-01  2.68821e-01        00000 
 7.74275e-02  2.58274e-01        00000 
-7.75206e-02  2.58289e-01        00000 
-2.33606e-01  2.68859e-01        00000 
-3.92993e-01  2.91214e-01        00000 
-5.57663e-01  3.27715e-01        00000 
-7.29832e-01  3.81936e-01        00000 
-9.12922e-01  4.59263e-01        00000 
-1.11363e+00  5.68408e-01        00000 
-1.34565e+00  7.24307e-01        00000 
-1.65215e+00  9.52429e-01        00000 
-2.08392e+00  1.23278e+00        00000 
 2.48053e+00  1.45456e+00        00000 
 2.06486e+00  1.21271e+00        00000 
 1.71340e+00  1.01975e+00        00000 
 1.40428e+00  8.74086e-01        00000 
 1.12107e+00  7.66262e-01        00000 
 8.55110e-01  6.88641e-01        00000 
 6.01462e-01  6.35608e-01        00000 
 3.56864e-01  6.02949e-01        00000 
 1.18191e-01  5.87526e-01        00000 
-1.18353e-01  5.87548e-01        00000 
-3.56985e-01  6.03003e-01        00000 
-6.01520e-01  6.35672e-01        00000 
-8.55111e-01  6.88691e-01        00000 
-1.12103e+00  7.66287e-01        00000 
-1.40422e+00  8.74083e-01        00000 
-1.71333e+00  1.01972e+00        00000 
-2.06478e+00  1.21266e+00        00000 
-2.48045e+00  1.45451e+00        00000 
-2.96962e+00  1.73351e+00        00000 
 3.28019e+00  2.00179e+00        00000 
 2.77418e+00  1.75782e+00        00000 
 2.31932e+00  1.55184e+00        00000 
 1.90579e+00  1.38597e+00        00000 
 1.52226e+00  1.25765e+00        00000 
 1.16032e+00  1.16254e+00        00000 
 8.14851e-01  1.09658e+00        00000 
 4.82516e-01  1.05591e+00        00000 
 1.59559e-01  1.03686e+00        00000 
-1.59817e-01  1.03690e+00        00000 
-4.82693e-01  1.05599e+00        00000 
-8.14917e-01  1.09666e+00        00000 
-1.16029e+00  1.16259e+00        00000 
-1.52219e+00  1.25765e+00        00000 
-1.90569e+00  1.38594e+00        00000 
-2.31922e+00  1.55178e+00        00000 
-2.77408e+00  1.75775e+00        00000 
-3.28008e+00  2.00170e+00        00000 
-3.83525e+00  2.27549e+00        00000 
 4.05893e+00  2.61361e+00        00000 
 3.46843e+00  2.37199e+00        00000 
 2.91980e+00  2.16225e+00        00000 
 2.40858e+00  1.98699e+00        00000 
 1.92726e+00  1.84632e+00        00000 
 1.46905e+00  1.73907e+00        00000 
 1.02980e+00  1.66368e+00        00000 
 6.07830e-01  1.61766e+00        00000 
 2.00385e-01  1.59674e+00        00000 
-2.00795e-01  1.59681e+00        00000 
-6.08069e-01  1.61778e+00        00000 
-1.02985e+00  1.66378e+00        00000 
-1.46897e+00  1.73910e+00        00000 
-1.92713e+00  1.84629e+00        00000 
-2.40844e+00  1.98692e+00        00000 
-2.91967e+00  2.16215e+00        00000 
-3.46831e+00  2.37187e+00        00000 
-4.05881e+00  2.61349e+00        00000 
-4.68802e+00  2.88296e+00        00000 
 4.82096e+00  3.30147e+00        00000 
 4.14746e+00  3.06344e+00        00000 
 3.51048e+00  2.85416e+00        00000 
 2.90715e+00  2.67533e+00        00000 
 2.33186e+00  2.52767e+00        00000 
 1.77847e+00  2.41152e+00        00000 
 1.24355e+00  2.32826e+00        00000 
 7.29198e-01  2.27866e+00        00000 
 2.38527e-01  2.25816e+00        00000 
-2.39199e-01  2.25822e+00        00000 
-7.29489e-01  2.27888e+00        00000 
-1.24350e+00  2.32833e+00        00000 
-1.77830e+00  2.41151e+00        00000 
-2.33165e+00  2.52757e+00        00000 
-2.90696e+00  2.67519e+00        00000 
-3.51032e+00  2.85401e+00        00000 
-4.14733e+00  3.06329e+00        00000 
-4.82083e+00  3.30132e+00        00000 
-5.52917e+00  3.56644e+00        00000 
 5.56793e+00  4.07096e+00        00000 
 4.81195e+00  3.83720e+00        00000 
 4.08978e+00  3.63056e+00        00000 
 3.39867e+00  3.45176e+00        00000 
 2.73366e+00  3.30100e+00        00000 
 2.08833e+00  3.17808e+00        00000 
 1.45639e+00  3.08449e+00        00000 
 8.42309e-01  3.02846e+00        00000 
 2.68329e-01  3.01066e+00        00000 
-2.69571e-01  3.01118e+00        00000 
-8.42393e-01  3.02849e+00        00000 
-1.45623e+00  3.08461e+00        00000 
-2.08797e+00  3.17793e+00        00000 
-2.73337e+00  3.30078e+00        00000 
-3.39845e+00  3.45155e+00        00000 
-4.08961e+00  3.63037e+00        00000 
-4.81181e+00  3.83702e+00        00000 
-5.56780e+00  4.07079e+00        00000 
-6.35786e+00  4.33133e+00        00000 
 6.30017e+00  4.92435e+00        00000 
 5.46218e+00  4.69542e+00        00000 
 4.65686e+00  4.49295e+00        00000 
 3.88113e+00  4.31710e+00        00000 
 3.13042e+00  4.16754e+00        00000 
 2.39837e+00  4.04267e+00        00000 
 1.67550e+00  3.93919e+00        00000 
 9.49971e-01  3.85869e+00        00000 
 2.73512e-01  3.83091e+00        00000 
-9.50128e-01  3.86003e+00        00000 
-1.67465e+00  3.93897e+00        00000 
-2.39786e+00  4.04222e+00        00000 
-3.13011e+00  4.16720e+00        00000 
-3.88092e+00  4.31684e+00        00000 
-4.65669e+00  4.49274e+00        00000 
-5.46205e+00  4.69524e+00        00000 
-6.30006e+00  4.92419e+00        00000 
-7.17262e+00  5.17979e+00        00000 
 7.01748e+00  5.86166e+00        00000 
 6.09814e+00  5.63798e+00        00000 
 5.21098e+00  5.44079e+00        00000 
 4.35258e+00  5.27030e+00        00000 
 3.51868e+00  5.12653e+00        00000 
 2.70370e+00  5.00866e+00        00000 
 1.89911e+00  4.91318e+00        00000 
 1.07880e+00  4.82806e+00        00000 
-1.89807e+00  4.91166e+00        00000 
-2.70333e+00  5.00806e+00        00000 
-3.51844e+00  5.12620e+00        00000 
-4.35240e+00  5.27008e+00        00000 
-5.21083e+00  5.44062e+00        00000 
-6.09802e+00  5.63784e+00        00000 
-7.01738e+00  5.86153e+00        00000 
-7.97198e+00  6.11185e+00        00000 
 7.71954e+00  6.88142e+00        00000 
 6.71974e+00  6.66317e+00        00000 
 5.75171e+00  6.47169e+00        00000 
 4.81167e+00  6.30757e+00        00000 
 3.89533e+00  6.17178e+00        00000 
 2.99730e+00  6.06607e+00        00000 
 2.10945e+00  5.99478e+00        00000 
 1.21266e+00  5.96835e+00        00000 
-2.10930e+00  5.99467e+00        00000 
-2.99704e+00  6.06592e+00        00000 
-3.89517e+00  6.17166e+00        00000 
-4.81153e+00  6.30747e+00        00000 
-5.75158e+00  6.47160e+00        00000 
-6.71962e+00  6.66308e+00        00000 
-7.71945e+00  6.88133e+00        00000 
-8.75483e+00  7.12616e+00        00000 
 8.40625e+00  7.98136e+00        00000 
 7.32714e+00  7.76839e+00        00000 
 6.27927e+00  7.58228e+00        00000 
 5.25858e+00  7.42377e+00        00000 
 4.26052e+00  7.29408e+00        00000 
 3.27953e+00  7.19510e+00        00000 
 2.30814e+00  7.12905e+00        00000 
 1.34246e+00  7.09246e+00        00000 
 4.25592e-01  7.07523e+00        00000 
-4.24346e-01  7.07425e+00        00000 
-1.34425e+00  7.09289e+00        00000 
-2.30741e+00  7.12978e+00        00000 
-3.27931e+00  7.19535e+00        00000 
-4.26033e+00  7.29417e+00        00000 
-5.25843e+00  7.42379e+00        00000 
-6.27914e+00  7.58227e+00        00000 
-7.32702e+00  7.76837e+00        00000 
-8.40616e+00  7.98133e+00        00000 
-9.52063e+00  8.22065e+00        00000 
 9.07775e+00  9.15910e+00        00000 
 7.92077e+00  8.95108e+00        00000 
 6.79448e+00  8.76954e+00        00000 
 5.69473e+00  8.61505e+00        00000 
 4.61709e+00  8.48822e+00        00000 
 3.55675e+00  8.38928e+00        00000 
 2.51002e+00  8.31639e+00        00000 
 1.48133e+00  8.26388e+00        00000 
 4.86200e-01  8.23109e+00        00000 
-4.85756e-01  8.23147e+00        00000 
-1.48186e+00  8.26399e+00        00000 
-2.50993e+00  8.31639e+00        00000 
-3.55643e+00  8.38948e+00        00000 
-4.61687e+00  8.48836e+00        00000 
-5.69456e+00  8.61513e+00        00000 
-6.79433e+00  8.76958e+00        00000 
-7.92064e+00  8.95111e+00        00000 
-9.07764e+00  9.15912e+00        00000 
-1.02694e+01  9.39307e+00        00000 
 9.73435e+00  1.04126e+01        00000 
 8.50116e+00  1.02091e+01        00000 
 7.29821e+00  1.00315e+01        00000 
 6.12156e+00  9.87979e+00        00000 
 4.96722e+00  9.75408e+00        00000 
 3.83164e+00  9.65355e+00        00000 
 2.71323e+00  9.57630e+00        00000 
 1.61394e+00  9.52096e+00        00000 
 5.34774e-01  9.49067e+00        00000 
-5.34665e-01  9.49072e+00        00000 
-1.61400e+00  9.52106e+00        00000 
-2.71320e+00  9.57632e+00        00000 
-3.83146e+00  9.65360e+00        00000 
-4.96701e+00  9.75417e+00        00000 
-6.12138e+00  9.87988e+00        00000 
-7.29805e+00  1.00315e+01        00000 
-8.50102e+00  1.02092e+01        00000 
-9.73422e+00  1.04126e+01        00000 
-1.10015e+01  1.06414e+01        00000 
 1.03764e+01  1.17401e+01        00000 
 9.06870e+00  1.15410e+01        00000 
 7.79101e+00  1.13669e+01        00000 
 6.53964e+00  1.12177e+01        00000 
 5.31110e+00  1.10931e+01        00000 
 4.10243e+00  1.09924e+01        00000 
 2.91177e+00  1.09149e+01        00000 
 1.73787e+00  1.08611e+01        00000 
 5.77479e-01  1.08329e+01        00000 
-5.77434e-01  1.08329e+01        00000 
-1.73785e+00  1.08611e+01        00000 
-2.91171e+00  1.09150e+01        00000 
-4.10230e+00  1.09925e+01        00000 
-5.31093e+00  1.10932e+01        00000 
-6.53947e+00  1.12178e+01        00000 
-7.79084e+00  1.13670e+01        00000 
-9.06855e+00  1.15411e+01        00000 
-1.03762e+01  1.17402e+01        00000 
-1.17174e+01  1.19639e+01        00000 
 1.10041e+01  1.31404e+01        00000 
 9.62359e+00  1.29456e+01        00000 
 8.27297e+00  1.27750e+01        00000 
 6.94879e+00  1.26285e+01        00000 
 5.64780e+00  1.25058e+01        00000 
 4.36704e+00  1.24065e+01        00000 
 3.10387e+00  1.23306e+01        00000 
 1.85537e+00  1.22788e+01        00000 
 6.17198e-01  1.22522e+01        00000 
-6.17164e-01  1.22522e+01        00000 
-1.85533e+00  1.22788e+01        00000 
-3.10380e+00  1.23306e+01        00000 
-4.36693e+00  1.24065e+01        00000 
-5.64766e+00  1.25058e+01        00000 
-6.94864e+00  1.26286e+01        00000 
-8.27281e+00  1.27751e+01        00000 
-9.62344e+00  1.29457e+01        00000 
-1.10039e+01  1.31404e+01        00000 
-1.24175e+01  1.33592e+01        00000 
 1.16176e+01  1.46122e+01        00000 
 1.01659e+01  1.44219e+01        00000 
 8.74396e+00  1.42550e+01        00000 
 7.34858e+00  1.41115e+01        00000 
 5.97651e+00  1.39913e+01        00000 
 4.62459e+00  1.38943e+01        00000 
 3.28961e+00  1.38206e+01        00000 
 1.96793e+00  1.37708e+01        00000 
 6.54965e-01  1.37456e+01        00000 
-6.54931e-01  1.37456e+01        00000 
-1.96789e+00  1.37708e+01        00000 
-3.28954e+00  1.38206e+01        00000 
-4.62449e+00  1.38943e+01        00000 
-5.97638e+00  1.39913e+01        00000 
-7.34844e+00  1.41115e+01        00000 
-8.74380e+00  1.42550e+01        00000 
-1.01657e+01  1.44219e+01        00000 
-1.16174e+01  1.46123e+01        00000 
-1.31021e+01  1.48262e+01        00000 
 1.22170e+01  1.61545e+01        00000 
 1.06955e+01  1.59686e+01        00000 
 9.20377e+00  1.58056e+01        00000 
 7.73863e+00  1.56655e+01        00000 
 6.29677e+00  1.55483e+01        00000 
 4.87487e+00  1.54540e+01        00000 
 3.46939e+00  1.53827e+01        00000 
 2.07637e+00  1.53348e+01        00000 
 6.91227e-01  1.53107e+01        00000 
-6.91196e-01  1.53107e+01        00000 
-2.07632e+00  1.53348e+01        00000 
-3.46932e+00  1.53827e+01        00000 
-4.87478e+00  1.54540e+01        00000 
-6.29665e+00  1.55483e+01        00000 
-7.73849e+00  1.56655e+01        00000 
-9.20362e+00  1.58056e+01        00000 
-1.06953e+01  1.59686e+01        00000 
-1.22168e+01  1.61546e+01        00000 
-1.37713e+01  1.63636e+01        00000 
 1.28022e+01  1.77660e+01        00000 
 1.12123e+01  1.75845e+01        00000 
 9.65224e+00  1.74255e+01        00000 
 8.11871e+00  1.72891e+01        00000 
 6.60842e+00  1.71751e+01        00000 
 5.11791e+00  1.70836e+01        00000 
 3.64350e+00  1.70148e+01        00000 
 2.18110e+00  1.69687e+01        00000 
 7.26193e-01  1.69456e+01        00000 
-7.26167e-01  1.69456e+01        00000 
-2.18107e+00  1.69687e+01        00000 
-3.64344e+00  1.70148e+01        00000 
-5.11783e+00  1.70837e+01        00000 
-6.60831e+00  1.71751e+01        00000 
-8.11858e+00  1.72891e+01        00000 
-9.65209e+00  1.74256e+01        00000 
-1.12122e+01  1.75845e+01        00000 
-1.28021e+01  1.77660e+01        00000 
-1.44250e+01  1.79701e+01        00000 
-2.75443e-01  3.82845e+00        00000 
-1.07713e+00  4.82520e+00        00000 
 1.33733e+01  1.94452e+01        00000 
 1.17164e+01  1.92683e+01        00000 
 1.00893e+01  1.91134e+01        00000 
 8.48874e+00  1.89806e+01        00000 
 6.91140e+00  1.88700e+01        00000 
 5.35377e+00  1.87814e+01        00000 
 3.81212e+00  1.87150e+01        00000 
 2.28236e+00  1.86707e+01        00000 
 7.59955e-01  1.86486e+01        00000 
-7.59941e-01  1.86486e+01        00000 
-2.28233e+00  1.86707e+01        00000 
-3.81207e+00  1.87150e+01        00000 
-5.35369e+00  1.87815e+01        00000 
-6.91129e+00  1.88700e+01        00000 
-8.48861e+00  1.89807e+01        00000 
-1.00891e+01  1.91134e+01        00000 
-1.17162e+01  1.92683e+01        00000 
-1.33732e+01  1.94453e+01        00000 
-1.50631e+01  1.96443e+01        00000 
 1.14013e+00  7.43598e-01        00000 
 2.08399e+00  1.23282e+00        00000 
 2.96972e+00  1.73357e+00        00000 
 3.83537e+00  2.27558e+00        00000 
 4.68815e+00  2.88308e+00        00000 
 5.52930e+00  3.56659e+00        00000 
 6.35797e+00  4.33150e+00        00000 
 7.17271e+00  5.17995e+00        00000 
 7.97205e+00  6.11197e+00        00000 
 8.75489e+00  7.12624e+00        00000 
-1.20760e+00  5.96811e+00        00000 
 9.52069e+00  8.22069e+00        00000 
 1.02695e+01  9.39306e+00        00000 
 1.10016e+01  1.06413e+01        00000 
 1.17175e+01  1.19638e+01        00000 
 1.24177e+01  1.33592e+01        00000 
 1.31023e+01  1.48261e+01        00000 
 1.37715e+01  1.63635e+01        00000 
 1.44252e+01  1.79700e+01        00000 
 1.50633e+01  1.96443e+01        00000 
 1.40892e-16  1.10818e-18        00000 
 1.39303e+01  2.11909e+01        00000 
 1.22077e+01  2.10185e+01        00000 
 1.05149e+01  2.08677e+01        00000 
 8.84870e+00  2.07386e+01        00000 
 7.20572e+00  2.06312e+01        00000 
 5.58249e+00  2.05455e+01        00000 
 3.97533e+00  2.04815e+01        00000 
 2.38019e+00  2.04391e+01        00000 
 7.92541e-01  2.04179e+01        00000 
-7.92544e-01  2.04179e+01        00000 
-2.38017e+00  2.04391e+01        00000 
-3.97528e+00  2.04816e+01        00000 
-5.58241e+00  2.05456e+01        00000 
-7.20561e+00  2.06312e+01        00000 
-8.84856e+00  2.07386e+01        00000 
-1.05147e+01  2.08677e+01        00000 
-1.22075e+01  2.10185e+01        00000 
-1.39301e+01  2.11909e+01        00000 
-1.56857e+01  2.13850e+01        00000 
 1.44730e+01  2.30016e+01        00000 
 1.26861e+01  2.28336e+01        00000 
 1.09291e+01  2.26868e+01        00000 
 9.19865e+00  2.25613e+01        00000 
 7.49141e+00  2.24570e+01        00000 
 5.80405e+00  2.23742e+01        00000 
 4.13305e+00  2.23126e+01        00000 
 2.47452e+00  2.22719e+01        00000 
 8.23917e-01  2.22518e+01        00000 
-8.23946e-01  2.22518e+01        00000 
-2.47453e+00  2.22719e+01        00000 
-4.13302e+00  2.23126e+01        00000 
-5.80397e+00  2.23742e+01        00000 
-7.49130e+00  2.24571e+01        00000 
-9.19850e+00  2.25613e+01        00000 
-1.09289e+01  2.26868e+01        00000 
-1.26859e+01  2.28336e+01        00000 
-1.44728e+01  2.30016e+01        00000 
-1.62928e+01  2.31907e+01        00000 
 1.50015e+01  2.48759e+01        00000 
 1.31518e+01  2.47124e+01        00000 
 1.13320e+01  2.45694e+01        00000 
 9.53873e+00  2.44471e+01        00000 
 7.76860e+00  2.43458e+01        00000 
 6.01844e+00  2.42655e+01        00000 
 4.28513e+00  2.42062e+01        00000 
 2.56514e+00  2.41674e+01        00000 
 8.53973e-01  2.41484e+01        00000 
-8.54042e-01  2.41484e+01        00000 
-2.56517e+00  2.41675e+01        00000 
-4.28510e+00  2.42062e+01        00000 
-6.01836e+00  2.42655e+01        00000 
-7.76847e+00  2.43458e+01        00000 
-9.53857e+00  2.44471e+01        00000 
-1.13318e+01  2.45694e+01        00000 
-1.31516e+01  2.47123e+01        00000 
-1.50013e+01  2.48759e+01        00000 
-1.68843e+01  2.50601e+01        00000 
 1.55159e+01  2.68127e+01        00000 
 1.36048e+01  2.66535e+01        00000 
 1.17239e+01  2.65141e+01        00000 
 9.86924e+00  2.63948e+01        00000 
 8.03753e+00  2.62957e+01        00000 
 6.22571e+00  2.62174e+01        00000 
 4.43125e+00  2.61603e+01        00000 
 2.65153e+00  2.61236e+01        00000 
 8.82459e-01  2.61059e+01        00000 
-8.82590e-01  2.61060e+01        00000 
-2.65160e+00  2.61236e+01        00000 
-4.43122e+00  2.61603e+01        00000 
-6.22560e+00  2.62175e+01        00000 
-8.03738e+00  2.62957e+01        00000 
-9.86906e+00  2.63947e+01        00000 
-1.17237e+01  2.65141e+01        00000 
-1.36046e+01  2.66534e+01        00000 
-1.55156e+01  2.68126e+01        00000 
-1.74602e+01  2.69919e+01        00000 
 1.60158e+01  2.88107e+01        00000 
 1.40452e+01  2.86558e+01        00000 
 1.21048e+01  2.85199e+01        00000 
 1.01907e+01  2.84030e+01        00000 
 8.29880e+00  2.83054e+01        00000 
 6.42617e+00  2.82282e+01        00000 
 4.57103e+00  2.81724e+01        00000 
 2.73276e+00  2.81378e+01        00000 
 9.08795e-01  2.81221e+01        00000 
-9.09036e-01  2.81221e+01        00000 
-2.73285e+00  2.81379e+01        00000 
-4.57098e+00  2.81725e+01        00000 
-6.42602e+00  2.82282e+01        00000 
-8.29861e+00  2.83054e+01        00000 
-1.01904e+01  2.84029e+01        00000 
-1.21046e+01  2.85198e+01        00000 
-1.40450e+01  2.86557e+01        00000 
-1.60156e+01  2.88106e+01        00000 
-1.80203e+01  2.89848e+01        00000 
 1.65012e+01  3.08687e+01        00000 
 1.44729e+01  3.07182e+01        00000 
 1.24752e+01  3.05857e+01        00000 
 1.05035e+01  3.04710e+01        00000 
 8.55343e+00  3.03742e+01        00000 
 6.62097e+00  3.02963e+01        00000 