<?xml version="1.0" encoding="utf-8"?>
<VTKFile byte_order="LittleEndian" type="UnstructuredGrid" version="0.1">
   <UnstructuredGrid>
      <Piece NumberOfCells="696" NumberOfPoints="696">
         <Points>
            <DataArray Name="Points" NumberOfComponents="3" format="ascii" type="Float32">
-0.8947 -0.2632 0.0000
-0.8947 -0.1579 0.0000
-0.8947 -0.0526 0.0000
-0.8947 0.0526 0.0000
-0.8947 0.1579 0.0000
-0.8947 0.2632 0.0000
-0.7895 -0.4737 0.0000
-0.7895 -0.3684 0.0000
-0.7895 0.3684 0.0000
-0.7895 0.4737 0.0000
-0.6842 -0.5789 0.0000
-0.6842 0.5789 0.0000
-0.5789 -0.6842 0.0000
-0.5789 0.6842 0.0000
-0.4737 -0.7895 0.0000
-0.4737 0.7895 0.0000
-0.3684 -0.7895 0.0000
-0.3684 0.7895 0.0000
-0.2632 -0.8947 0.0000
-0.2632 0.8947 0.0000
-0.1579 -0.8947 0.0000
-0.1579 0.8947 0.0000
-0.0526 -0.8947 0.0000
-0.0526 0.8947 0.0000
0.0526 -0.8947 0.0000
0.0526 0.8947 0.0000
0.1579 -0.8947 0.0000
0.1579 0.8947 0.0000
0.2632 -0.8947 0.0000
0.2632 0.8947 0.0000
0.3684 -0.7895 0.0000
0.3684 0.7895 0.0000
0.4737 -0.7895 0.0000
0.4737 0.7895 0.0000
0.5789 -0.6842 0.0000
0.5789 0.6842 0.0000
0.6842 -0.5789 0.0000
0.6842 0.5789 0.0000
0.7895 -0.4737 0.0000
0.7895 -0.3684 0.0000
0.7895 0.3684 0.0000
0.7895 0.4737 0.0000
0.8947 -0.2632 0.0000
0.8947 -0.1579 0.0000
0.8947 -0.0526 0.0000
0.8947 0.0526 0.0000
0.8947 0.1579 0.0000
0.8947 0.2632 0.0000
-0.8421 -0.3158 0.0000
-0.8421 -0.2105 0.0000
-0.8421 0.2105 0.0000
-0.8421 0.3158 0.0000
-0.7368 -0.5263 0.0000
-0.7368 0.5263 0.0000
-0.6316 -0.6316 0.0000
-0.6316 0.6316 0.0000
-0.5263 -0.7368 0.0000
-0.5263 0.7368 0.0000
-0.3158 -0.8421 0.0000
-0.3158 0.8421 0.0000
-0.2105 -0.8421 0.0000
-0.2105 0.8421 0.0000
0.2105 -0.8421 0.0000
0.2105 0.8421 0.0000
0.3158 -0.8421 0.0000
0.3158 0.8421 0.0000
0.5263 -0.7368 0.0000
0.5263 0.7368 0.0000
0.6316 -0.6316 0.0000
0.6316 0.6316 0.0000
0.7368 -0.5263 0.0000
0.7368 0.5263 0.0000
0.8421 -0.3158 0.0000
0.8421 -0.2105 0.0000
0.8421 0.2105 0.0000
0.8421 0.3158 0.0000
1.1053 -0.2632 0.0000
1.1053 -0.1579 0.0000
1.1053 -0.0526 0.0000
1.1053 0.0526 0.0000
1.1053 0.1579 0.0000
1.1053 0.2632 0.0000
1.2105 -0.4737 0.0000
1.2105 -0.3684 0.0000
1.2105 0.3684 0.0000
1.2105 0.4737 0.0000
1.3158 -0.5789 0.0000
1.3158 0.5789 0.0000
1.4211 -0.6842 0.0000
1.4211 0.6842 0.0000
1.5263 -0.7895 0.0000
1.5263 0.7895 0.0000
1.6316 -0.7895 0.0000
1.6316 0.7895 0.0000
1.7368 -0.8947 0.0000
1.7368 0.8947 0.0000
1.8421 -0.8947 0.0000
1.8421 0.8947 0.0000
1.9474 -0.8947 0.0000
1.9474 0.8947 0.0000
2.0526 -0.8947 0.0000
2.0526 0.8947 0.0000
2.1579 -0.8947 0.0000
2.1579 0.8947 0.0000
2.2632 -0.8947 0.0000
2.2632 0.8947 0.0000
2.3684 -0.7895 0.0000
2.3684 0.7895 0.0000
2.4737 -0.7895 0.0000
2.4737 0.7895 0.0000
2.5789 -0.6842 0.0000
2.5789 0.6842 0.0000
2.6842 -0.5789 0.0000
2.6842 0.5789 0.0000
2.7895 -0.4737 0.0000
2.7895 -0.3684 0.0000
2.7895 0.3684 0.0000
2.7895 0.4737 0.0000
2.8947 -0.2632 0.0000
2.8947 -0.1579 0.0000
2.8947 -0.0526 0.0000
2.8947 0.0526 0.0000
2.8947 0.1579 0.0000
2.8947 0.2632 0.0000
1.1579 -0.3158 0.0000
1.1579 -0.2105 0.0000
1.1579 0.2105 0.0000
1.1579 0.3158 0.0000
1.2632 -0.5263 0.0000
1.2632 0.5263 0.0000
1.3684 -0.6316 0.0000
1.3684 0.6316 0.0000
1.4737 -0.7368 0.0000
1.4737 0.7368 0.0000
1.6842 -0.8421 0.0000
1.6842 0.8421 0.0000
1.7895 -0.8421 0.0000
1.7895 0.8421 0.0000
2.2105 -0.8421 0.0000
2.2105 0.8421 0.0000
2.3158 -0.8421 0.0000
2.3158 0.8421 0.0000
2.5263 -0.7368 0.0000
2.5263 0.7368 0.0000
2.6316 -0.6316 0.0000
2.6316 0.6316 0.0000
2.7368 -0.5263 0.0000
2.7368 0.5263 0.0000
2.8421 -0.3158 0.0000
2.8421 -0.2105 0.0000
2.8421 0.2105 0.0000
2.8421 0.3158 0.0000
3.1053 -0.2632 0.0000
3.1053 -0.1579 0.0000
3.1053 -0.0526 0.0000
3.1053 0.0526 0.0000
3.1053 0.1579 0.0000
3.1053 0.2632 0.0000
3.2105 -0.4737 0.0000
3.2105 -0.3684 0.0000
3.2105 0.3684 0.0000
3.2105 0.4737 0.0000
3.3158 -0.5789 0.0000
3.3158 0.5789 0.0000
3.4211 -0.6842 0.0000
3.4211 0.6842 0.0000
3.5263 -0.7895 0.0000
3.5263 0.7895 0.0000
3.6316 -0.7895 0.0000
3.6316 0.7895 0.0000
3.7368 -0.8947 0.0000
3.7368 0.8947 0.0000
3.8421 -0.8947 0.0000
3.8421 0.8947 0.0000
3.9474 -0.8947 0.0000
3.9474 0.8947 0.0000
4.0526 -0.8947 0.0000
4.0526 0.8947 0.0000
4.1579 -0.8947 0.0000
4.1579 0.8947 0.0000
4.2632 -0.8947 0.0000
4.2632 0.8947 0.0000
4.3684 -0.7895 0.0000
4.3684 0.7895 0.0000
4.4737 -0.7895 0.0000
4.4737 0.7895 0.0000
4.5789 -0.6842 0.0000
4.5789 0.6842 0.0000
4.6842 -0.5789 0.0000
4.6842 0.5789 0.0000
4.7895 -0.4737 0.0000
4.7895 -0.3684 0.0000
4.7895 0.3684 0.0000
4.7895 0.4737 0.0000
4.8947 -0.2632 0.0000
4.8947 -0.1579 0.0000
4.8947 -0.0526 0.0000
4.8947 0.0526 0.0000
4.8947 0.1579 0.0000
4.8947 0.2632 0.0000
3.1579 -0.3158 0.0000
3.1579 -0.2105 0.0000
3.1579 0.2105 0.0000
3.1579 0.3158 0.0000
3.2632 -0.5263 0.0000
3.2632 0.5263 0.0000
3.3684 -0.6316 0.0000
3.3684 0.6316 0.0000
3.4737 -0.7368 0.0000
3.4737 0.7368 0.0000
3.6842 -0.8421 0.0000
3.6842 0.8421 0.0000
3.7895 -0.8421 0.0000
3.7895 0.8421 0.0000
4.2105 -0.8421 0.0000
4.2105 0.8421 0.0000
4.3158 -0.8421 0.0000
4.3158 0.8421 0.0000
4.5263 -0.7368 0.0000
4.5263 0.7368 0.0000
4.6316 -0.6316 0.0000
4.6316 0.6316 0.0000
4.7368 -0.5263 0.0000
4.7368 0.5263 0.0000
4.8421 -0.3158 0.0000
4.8421 -0.2105 0.0000
4.8421 0.2105 0.0000
4.8421 0.3158 0.0000
-0.8086 -0.2632 0.0000
-0.8349 -0.1579 0.0000
-0.8438 -0.1070 0.0000
-0.8481 -0.0526 0.0000
-0.8443 -0.1031 0.0000
-0.8503 -0.0082 0.0000
-0.8481 0.0526 0.0000
-0.8503 0.0082 0.0000
-0.8443 0.1031 0.0000
-0.8349 0.1579 0.0000
-0.8438 0.1070 0.0000
-0.8086 0.2632 0.0000
-0.7061 -0.4737 0.0000
-0.7383 -0.4225 0.0000
-0.7895 -0.3141 0.0000
-0.7662 -0.3684 0.0000
-0.7416 -0.4163 0.0000
-0.7738 -0.3528 0.0000
-0.8039 -0.2776 0.0000
-0.8168 -0.2358 0.0000
-0.8273 -0.1958 0.0000
-0.8273 0.1958 0.0000
-0.7895 0.3141 0.0000
-0.8168 0.2358 0.0000
-0.8039 0.2776 0.0000
-0.7662 0.3684 0.0000
-0.7738 0.3528 0.0000
-0.7416 0.4163 0.0000
-0.7061 0.4737 0.0000
-0.7383 0.4225 0.0000
-0.6842 -0.5043 0.0000
-0.6220 -0.5789 0.0000
-0.6515 -0.5462 0.0000
-0.6974 -0.4869 0.0000
-0.6842 0.5043 0.0000
-0.6974 0.4869 0.0000
-0.6220 0.5789 0.0000
-0.6515 0.5462 0.0000
-0.5789 -0.6220 0.0000
-0.5043 -0.6842 0.0000
-0.5462 -0.6515 0.0000
-0.6012 -0.6012 0.0000
-0.5789 0.6220 0.0000
-0.6012 0.6012 0.0000
-0.5043 0.6842 0.0000
-0.5462 0.6515 0.0000
-0.4737 -0.7061 0.0000
-0.4225 -0.7383 0.0000
-0.4869 -0.6974 0.0000
-0.4737 0.7061 0.0000
-0.4869 0.6974 0.0000
-0.4225 0.7383 0.0000
-0.3684 -0.7662 0.0000
-0.3141 -0.7895 0.0000
-0.4163 -0.7416 0.0000
-0.3528 -0.7738 0.0000
-0.3684 0.7662 0.0000
-0.3141 0.7895 0.0000
-0.4163 0.7416 0.0000
-0.3528 0.7738 0.0000
-0.2632 -0.8086 0.0000
-0.2776 -0.8039 0.0000
-0.2358 -0.8168 0.0000
-0.2632 0.8086 0.0000
-0.2776 0.8039 0.0000
-0.2358 0.8168 0.0000
-0.1579 -0.8349 0.0000
-0.1070 -0.8438 0.0000
-0.1958 -0.8273 0.0000
-0.1579 0.8349 0.0000
-0.1958 0.8273 0.0000
-0.1070 0.8438 0.0000
-0.0526 -0.8481 0.0000
-0.1031 -0.8443 0.0000
-0.0082 -0.8503 0.0000
-0.0526 0.8481 0.0000
-0.1031 0.8443 0.0000
-0.0082 0.8503 0.0000
0.0526 -0.8481 0.0000
0.0082 -0.8503 0.0000
0.1031 -0.8443 0.0000
0.0526 0.8481 0.0000
0.0082 0.8503 0.0000
0.1031 0.8443 0.0000
0.1579 -0.8349 0.0000
0.1070 -0.8438 0.0000
0.1958 -0.8273 0.0000
0.1579 0.8349 0.0000
0.1958 0.8273 0.0000
0.1070 0.8438 0.0000
0.2632 -0.8086 0.0000
0.3141 -0.7895 0.0000
0.2358 -0.8168 0.0000
0.2776 -0.8039 0.0000
0.2632 0.8086 0.0000
0.3141 0.7895 0.0000
0.2358 0.8168 0.0000
0.2776 0.8039 0.0000
0.3684 -0.7662 0.0000
0.3528 -0.7738 0.0000
0.4163 -0.7416 0.0000
0.3684 0.7662 0.0000
0.3528 0.7738 0.0000
0.4163 0.7416 0.0000
0.4737 -0.7061 0.0000
0.4225 -0.7383 0.0000
0.5043 -0.6842 0.0000
0.4869 -0.6974 0.0000
0.4737 0.7061 0.0000
0.5043 0.6842 0.0000
0.4869 0.6974 0.0000
0.4225 0.7383 0.0000
0.5789 -0.6220 0.0000
0.5462 -0.6515 0.0000
0.6220 -0.5789 0.0000
0.6012 -0.6012 0.0000
0.5789 0.6220 0.0000
0.6220 0.5789 0.0000
0.6012 0.6012 0.0000
0.5462 0.6515 0.0000
0.6842 -0.5043 0.0000
0.6515 -0.5462 0.0000
0.7061 -0.4737 0.0000
0.6974 -0.4869 0.0000
0.7662 -0.3684 0.0000
0.7662 0.3684 0.0000
0.6842 0.5043 0.0000
0.7061 0.4737 0.0000
0.6974 0.4869 0.0000
0.6515 0.5462 0.0000
0.7383 -0.4225 0.0000
0.7895 -0.3141 0.0000
0.7416 -0.4163 0.0000
0.7738 -0.3528 0.0000
0.8086 -0.2632 0.0000
0.8039 -0.2776 0.0000
0.8168 -0.2358 0.0000
0.8349 -0.1579 0.0000
0.8273 -0.1958 0.0000
0.8481 -0.0526 0.0000
0.8481 0.0526 0.0000
0.8349 0.1579 0.0000
0.8273 0.1958 0.0000
0.7895 0.3141 0.0000
0.8086 0.2632 0.0000
0.8168 0.2358 0.0000
0.8039 0.2776 0.0000
0.7738 0.3528 0.0000
0.7416 0.4163 0.0000
0.7383 0.4225 0.0000
0.8438 -0.1070 0.0000
0.8443 -0.1031 0.0000
0.8503 -0.0082 0.0000
0.8503 0.0082 0.0000
0.8443 0.1031 0.0000
0.8438 0.1070 0.0000
1.1914 -0.2632 0.0000
1.1651 -0.1579 0.0000
1.1562 -0.1070 0.0000
1.1519 -0.0526 0.0000
1.1557 -0.1031 0.0000
1.1497 -0.0082 0.0000
1.1519 0.0526 0.0000
1.1497 0.0082 0.0000
1.1557 0.1031 0.0000
1.1651 0.1579 0.0000
1.1562 0.1070 0.0000
1.1914 0.2632 0.0000
1.2939 -0.4737 0.0000
1.2617 -0.4225 0.0000
1.2105 -0.3141 0.0000
1.2338 -0.3684 0.0000
1.2584 -0.4163 0.0000
1.2262 -0.3528 0.0000
1.1961 -0.2776 0.0000
1.1832 -0.2358 0.0000
1.1727 -0.1958 0.0000
1.1727 0.1958 0.0000
1.2105 0.3141 0.0000
1.1832 0.2358 0.0000
1.1961 0.2776 0.0000
1.2338 0.3684 0.0000
1.2262 0.3528 0.0000
1.2584 0.4163 0.0000
1.2939 0.4737 0.0000
1.2617 0.4225 0.0000
1.3158 -0.5043 0.0000
1.3780 -0.5789 0.0000
1.3485 -0.5462 0.0000
1.3026 -0.4869 0.0000
1.3158 0.5043 0.0000
1.3026 0.4869 0.0000
1.3780 0.5789 0.0000
1.3485 0.5462 0.0000
1.4211 -0.6220 0.0000
1.4957 -0.6842 0.0000
1.4538 -0.6515 0.0000
1.3988 -0.6012 0.0000
1.4211 0.6220 0.0000
1.3988 0.6012 0.0000
1.4957 0.6842 0.0000
1.4538 0.6515 0.0000
1.5263 -0.7061 0.0000
1.5775 -0.7383 0.0000
1.5131 -0.6974 0.0000
1.5263 0.7061 0.0000
1.5131 0.6974 0.0000
1.5775 0.7383 0.0000
1.6316 -0.7662 0.0000
1.6859 -0.7895 0.0000
1.5837 -0.7416 0.0000
1.6472 -0.7738 0.0000
1.6316 0.7662 0.0000
1.6859 0.7895 0.0000
1.5837 0.7416 0.0000
1.6472 0.7738 0.0000
1.7368 -0.8086 0.0000
[...]
         <PointData>
            <DataArray Name="fValues" NumberOfComponents="3" format="ascii" type="Float64">
-9.55510e-02  3.23517e-01        00000 
-3.01147e-02  2.11885e-01        00000 
-4.84304e-03  1.49759e-01        00000 
 7.00853e-03  1.50464e-01        00000 
 2.46232e-02  2.11589e-01        00000 
 1.01913e-01  3.23810e-01        00000 
-6.72079e-01  9.61288e-01        00000 
-4.09681e-01  7.38371e-01        00000 
 4.10537e-01  7.34156e-01        00000 
 6.64859e-01  9.67223e-01        00000 
-1.00064e+00  2.30051e+00        00000 
 9.93472e-01  2.29207e+00        00000 
-4.14597e-01  5.32547e+00        00000 
 4.10034e-01  5.31814e+00        00000 
 2.81167e+00  1.02349e+01        00000 
-2.78699e+00  1.02314e+01        00000 
 2.37751e+00  1.70079e+01        00000 
-2.37299e+00  1.70453e+01        00000 
 1.14487e+01  2.70122e+01        00000 
-1.14494e+01  2.70675e+01        00000 
 1.29042e+01  3.88268e+01        00000 
-1.29289e+01  3.88579e+01        00000 
 1.46750e+01  5.19624e+01        00000 
-1.47769e+01  5.18240e+01        00000 
 1.69221e+01  6.46926e+01        00000 
-1.70310e+01  6.42860e+01        00000 
 1.93041e+01  7.54633e+01        00000 
-1.92407e+01  7.46842e+01        00000 
 2.12704e+01  8.35749e+01        00000 
-2.11031e+01  8.31134e+01        00000 
 1.76306e+01  8.99482e+01        00000 
-1.73626e+01  8.95626e+01        00000 
 1.92126e+01  9.50611e+01        00000 
-1.89829e+01  9.47407e+01        00000 
 1.65632e+01  9.95137e+01        00000 
-1.62621e+01  9.92652e+01        00000 
 1.35279e+01  1.04053e+02        00000 
-1.31846e+01  1.03865e+02        00000 
 9.96924e+00  1.08704e+02        00000 
 6.56398e+00  1.09439e+02        00000 
-6.14765e+00  1.09308e+02        00000 
-9.58486e+00  1.08579e+02        00000 
 3.82809e+00  1.13517e+02        00000 
 1.93519e+00  1.14039e+02        00000 
 6.88212e-01  1.14387e+02        00000 
-2.12973e-01  1.14381e+02        00000 
-1.40474e+00  1.13991e+02        00000 
-3.39763e+00  1.13440e+02        00000 
-2.25969e-01  4.89262e-01        00000 
-5.98974e-02  3.26815e-01        00000 
 5.79494e-02  3.13400e-01        00000 
 2.34172e-01  4.91339e-01        00000 
-8.48935e-01  1.54062e+00        00000 
 8.36077e-01  1.54183e+00        00000 
-7.78008e-01  3.73676e+00        00000 
 7.61584e-01  3.71988e+00        00000 
 9.48928e-01  7.68039e+00        00000 
-9.36636e-01  7.66792e+00        00000 
 6.33320e+00  2.17918e+01        00000 
-6.32414e+00  2.18432e+01        00000 
 6.60227e+00  3.25677e+01        00000 
-6.58422e+00  3.25791e+01        00000 
 1.70594e+01  7.92804e+01        00000 
-1.66282e+01  7.86873e+01        00000 
 1.91599e+01  8.68043e+01        00000 
-1.89510e+01  8.63802e+01        00000 
 1.79678e+01  9.72493e+01        00000 
-1.77020e+01  9.69631e+01        00000 
 1.51557e+01  1.01732e+02        00000 
-1.48262e+01  1.01507e+02        00000 
 1.17977e+01  1.06340e+02        00000 
-1.14329e+01  1.06184e+02        00000 
 5.16050e+00  1.11621e+02        00000 
 2.91663e+00  1.12469e+02        00000 
-2.43468e+00  1.12303e+02        00000 
-4.73801e+00  1.11525e+02        00000 
 3.76072e+00  1.19455e+02        00000 
 1.87428e+00  1.18922e+02        00000 
 7.16247e-01  1.18548e+02        00000 
-1.85204e-01  1.18556e+02        00000 
-1.43034e+00  1.18916e+02        00000 
-3.27390e+00  1.19441e+02        00000 
 9.56491e+00  1.24456e+02        00000 
 6.21364e+00  1.23654e+02        00000 
-5.79231e+00  1.23676e+02        00000 
-9.20351e+00  1.24502e+02        00000 
 1.34080e+01  1.30217e+02        00000 
-1.30917e+01  1.30287e+02        00000 
 1.80155e+01  1.37199e+02        00000 
-1.77434e+01  1.37310e+02        00000 
 2.46017e+01  1.45477e+02        00000 
-2.43440e+01  1.45625e+02        00000 
 2.39519e+01  1.55312e+02        00000 
-2.37205e+01  1.55524e+02        00000 
 3.53205e+01  1.67934e+02        00000 
-3.51153e+01  1.68182e+02        00000 
 3.61251e+01  1.82344e+02        00000 
-3.59223e+01  1.82543e+02        00000 
 3.71223e+01  1.98128e+02        00000 
-3.69539e+01  1.98273e+02        00000 
 3.84988e+01  2.13900e+02        00000 
-3.83415e+01  2.13875e+02        00000 
 4.00584e+01  2.28112e+02        00000 
-3.97785e+01  2.27799e+02        00000 
 4.13480e+01  2.39888e+02        00000 
-4.09892e+01  2.39810e+02        00000 
 3.37483e+01  2.49879e+02        00000 
-3.33467e+01  2.49826e+02        00000 
 3.51118e+01  2.58196e+02        00000 
-3.47481e+01  2.58147e+02        00000 
 2.95063e+01  2.65601e+02        00000 
-2.91253e+01  2.65567e+02        00000 
 2.41046e+01  2.72743e+02        00000 
-2.37376e+01  2.72710e+02        00000 
 1.85006e+01  2.79657e+02        00000 
 1.31375e+01  2.80427e+02        00000 
-1.28086e+01  2.80386e+02        00000 
-1.81486e+01  2.79630e+02        00000 
 8.51303e+00  2.86511e+02        00000 
 4.70489e+00  2.87043e+02        00000 
 1.54413e+00  2.87404e+02        00000 
-1.26029e+00  2.87406e+02        00000 
-4.34484e+00  2.87019e+02        00000 
-8.21831e+00  2.86468e+02        00000 
 4.96503e+00  1.21365e+02        00000 
 2.84018e+00  1.20570e+02        00000 
-2.38032e+00  1.20489e+02        00000 
-4.50695e+00  1.21377e+02        00000 
 1.14827e+01  1.27288e+02        00000 
-1.11489e+01  1.27348e+02        00000 
 1.56843e+01  1.33696e+02        00000 
-1.54002e+01  1.33777e+02        00000 
 2.11321e+01  1.41276e+02        00000 
-2.08657e+01  1.41400e+02        00000 
 2.91262e+01  1.61442e+02        00000 
-2.89020e+01  1.61677e+02        00000 
 2.89105e+01  1.74900e+02        00000 
-2.87243e+01  1.75103e+02        00000 
 3.55416e+01  2.33884e+02        00000 
-3.49860e+01  2.33706e+02        00000 
 3.71917e+01  2.44962e+02        00000 
-3.68187e+01  2.44898e+02        00000 
 3.23245e+01  2.61887e+02        00000 
-3.19520e+01  2.61842e+02        00000 
 2.68848e+01  2.69138e+02        00000 
-2.65026e+01  2.69098e+02        00000 
 2.13402e+01  2.76183e+02        00000 
-2.09787e+01  2.76154e+02        00000 
 1.07914e+01  2.83624e+02        00000 
 6.64306e+00  2.84498e+02        00000 
-6.31234e+00  2.84380e+02        00000 
-1.04815e+01  2.83589e+02        00000 
 8.49346e+00  2.96351e+02        00000 
 4.65229e+00  2.95802e+02        00000 
 1.57298e+00  2.95413e+02        00000 
-1.23183e+00  2.95411e+02        00000 
-4.37934e+00  2.95768e+02        00000 
-8.14138e+00  2.96295e+02        00000 
 1.82819e+01  3.03297e+02        00000 
 1.29591e+01  3.02500e+02        00000 
-1.26264e+01  3.02421e+02        00000 
-1.79565e+01  3.03233e+02        00000 
 2.40146e+01  3.10782e+02        00000 
-2.36816e+01  3.10680e+02        00000 
 3.01868e+01  3.19173e+02        00000 
-2.98440e+01  3.19041e+02        00000 
 3.77793e+01  3.28544e+02        00000 
-3.73896e+01  3.28373e+02        00000 
 3.68236e+01  3.39306e+02        00000 
-3.64685e+01  3.39112e+02        00000 
 4.84187e+01  3.52596e+02        00000 
-4.80026e+01  3.52347e+02        00000 
 4.85174e+01  3.67890e+02        00000 
-4.80697e+01  3.67446e+02        00000 
 4.86390e+01  3.84941e+02        00000 
-4.81601e+01  3.84518e+02        00000 
 4.90041e+01  4.02839e+02        00000 
-4.85299e+01  4.02336e+02        00000 
 4.96237e+01  4.20036e+02        00000 
-4.90832e+01  4.19369e+02        00000 
 5.01722e+01  4.35410e+02        00000 
-4.95829e+01  4.34915e+02        00000 
 3.83395e+01  4.49176e+02        00000 
-3.76746e+01  4.48721e+02        00000 
 3.93913e+01  4.61036e+02        00000 
-3.87465e+01  4.60628e+02        00000 
 3.03008e+01  4.71888e+02        00000 
-2.95524e+01  4.71555e+02        00000 
 2.21188e+01  4.82207e+02        00000 
-2.12854e+01  4.81952e+02        00000 
 1.45681e+01  4.91507e+02        00000 
 8.13341e+00  4.92555e+02        00000 
-7.15374e+00  4.92377e+02        00000 
-1.36494e+01  4.91355e+02        00000 
 3.83334e+00  4.98708e+02        00000 
 1.39935e+00  4.98965e+02        00000 
 5.81876e-01  4.99214e+02        00000 
 5.82603e-01  4.99216e+02        00000 
-1.47772e-01  4.98918e+02        00000 
-2.78554e+00  4.98621e+02        00000 
 1.07008e+01  2.99243e+02        00000 
 6.59924e+00  2.98437e+02        00000 
-6.29018e+00  2.98299e+02        00000 
-1.03551e+01  2.99185e+02        00000 
 2.11585e+01  3.07012e+02        00000 
-2.08331e+01  3.06931e+02        00000 
 2.71079e+01  3.14983e+02        00000 
-2.67796e+01  3.14857e+02        00000 
 3.38696e+01  3.23822e+02        00000 
-3.35029e+01  3.23666e+02        00000 
 4.21406e+01  3.45797e+02        00000 
-4.17497e+01  3.45579e+02        00000 
 4.13021e+01  3.60117e+02        00000 
-4.10068e+01  3.59764e+02        00000 
 4.27971e+01  4.27734e+02        00000 
-4.20714e+01  4.27155e+02        00000 
 4.38742e+01  4.42395e+02        00000 
-4.32590e+01  4.41922e+02        00000 
 3.48011e+01  4.66464e+02        00000 
-3.41060e+01  4.66089e+02        00000 
 2.62426e+01  4.77022e+02        00000 
-2.54424e+01  4.76719e+02        00000 
 1.83350e+01  4.86918e+02        00000 
-1.74545e+01  4.86716e+02        00000 
 5.85821e+00  4.96046e+02        00000 
 2.55631e+00  4.97108e+02        00000 
-1.40415e+00  4.96879e+02        00000 
-4.84615e+00  4.95923e+02        00000 
-8.36671e-02  4.27631e-01        00000 
-2.52461e-02  2.75135e-01        00000 
-1.19227e-02  2.07382e-01        00000 
-2.98368e-05  1.75555e-01        00000 
-1.10442e-02  2.04857e-01        00000 
 4.71155e-05  1.64937e-01        00000 
 2.00700e-03  1.79802e-01        00000 
 1.88922e-03  1.65047e-01        00000 
 1.07915e-02  2.11288e-01        00000 
 1.67968e-02  2.60170e-01        00000 
 1.13988e-02  2.13833e-01        00000 
 9.16844e-02  4.23285e-01        00000 
-8.72110e-01  1.66697e+00        00000 
-6.05876e-01  1.16357e+00        00000 
-2.40186e-01  5.90028e-01        00000 
-4.56444e-01  8.87915e-01        00000 
-5.86581e-01  1.13042e+00        00000 
-3.46345e-01  6.53843e-01        00000 
-1.20760e-01  4.61296e-01        00000 
-7.00652e-02  3.86438e-01        00000 
-4.91345e-02  3.25790e-01        00000 
 4.47314e-02  3.08814e-01        00000 
 2.44925e-01  5.85215e-01        00000 
 7.30886e-02  3.76890e-01        00000 
 1.29095e-01  4.57963e-01        00000 
 4.62734e-01  9.02922e-01        00000 
 3.48178e-01  6.56073e-01        00000 
 6.10252e-01  1.17068e+00        00000 
 8.46405e-01  1.66226e+00        00000 
 6.30913e-01  1.20718e+00        00000 
-9.46623e-01  1.98217e+00        00000 
-1.36318e+00  3.85508e+00        00000 
-1.22656e+00  2.94869e+00        00000 
-9.05571e-01  1.77385e+00        00000 
 9.22869e-01  1.97440e+00        00000 
 8.79455e-01  1.76853e+00        00000 
 1.36184e+00  3.85216e+00        00000 
 1.16110e+00  2.88885e+00        00000 
-1.12360e+00  5.09169e+00        00000 
-1.05933e+00  8.73639e+00        00000 
-1.14387e+00  6.61597e+00        00000 
-1.26038e+00  4.42540e+00        00000 
 1.12333e+00  5.08922e+00        00000 
 1.25500e+00  4.41878e+00        00000 
 1.05751e+00  8.71081e+00        00000 
 1.06768e+00  6.53737e+00        00000 
-4.65178e-01  1.01545e+01        00000 
 3.28640e-01  1.33468e+01        00000 
-7.54206e-01  9.51896e+00        00000 
 4.69756e-01  1.01275e+01        00000 
 7.56770e-01  9.49105e+00        00000 
-2.15253e-01  1.34208e+01        00000 
 1.32669e+00  1.69211e+01        00000 
 1.88849e+00  2.21114e+01        00000 
 4.50559e-01  1.37539e+01        00000 
 8.02891e-01  1.85274e+01        00000 
-1.28785e+00  1.69604e+01        00000 
-1.88565e+00  2.21705e+01        00000 
-3.44735e-01  1.38266e+01        00000 
-7.76216e-01  1.85708e+01        00000 
 3.24885e+00  2.69233e+01        00000 
 2.77354e+00  2.55023e+01        00000 
 4.11336e+00  2.98425e+01        00000 
-3.24792e+00  2.69984e+01        00000 
-2.77013e+00  2.55742e+01        00000 
-4.10338e+00  2.98867e+01        00000 
 6.10579e+00  3.86646e+01        00000 
 7.58001e+00  4.48487e+01        00000 
 5.01408e+00  3.42443e+01        00000 
-6.13034e+00  3.86359e+01        00000 
-5.00794e+00  3.42317e+01        00000 
-7.81713e+00  4.48283e+01        00000 
 9.15626e+00  5.15976e+01        00000 
 7.70150e+00  4.53365e+01        00000 
 1.05416e+01  5.70526e+01        00000 
-9.46801e+00  5.14655e+01        00000 
-7.93988e+00  4.53096e+01        00000 
-1.07465e+01  5.67991e+01        00000 
 1.19870e+01  6.41168e+01        00000 
 1.08909e+01  5.90313e+01        00000 
 1.35103e+01  6.96257e+01        00000 
-1.23974e+01  6.37011e+01        00000 
-1.10969e+01  5.87361e+01        00000 
-1.38667e+01  6.90663e+01        00000 
 1.51797e+01  7.48914e+01        00000 
 1.35564e+01  7.00211e+01        00000 
 1.56528e+01  7.79267e+01        00000 
-1.47398e+01  7.41408e+01        00000 
-1.51390e+01  7.72955e+01        00000 
-1.39095e+01  6.94482e+01        00000 
 1.61702e+01  8.29934e+01        00000 
 1.62938e+01  8.62949e+01        00000 
 1.60871e+01  8.10048e+01        00000 
 1.61682e+01  8.39444e+01        00000 
-1.58936e+01  8.25101e+01        00000 
-1.60088e+01  8.58564e+01        00000 
-1.57186e+01  8.04622e+01        00000 
-1.58926e+01  8.34738e+01        00000 
 1.71415e+01  9.00448e+01        00000 
 1.62084e+01  8.87661e+01        00000 
 1.69082e+01  9.21288e+01        00000 
-1.68906e+01  8.96576e+01        00000 
-1.59336e+01  8.83639e+01        00000 
-1.67376e+01  9.18259e+01        00000 
 1.65185e+01  9.49586e+01        00000 
 1.69006e+01  9.24170e+01        00000 
 1.60309e+01  9.62631e+01        00000 
 1.63527e+01  9.55123e+01        00000 
-1.62280e+01  9.46305e+01        00000 
-1.57261e+01  9.59567e+01        00000 
-1.60565e+01  9.51932e+01        00000 
-1.67377e+01  9.21216e+01        00000 
 1.46270e+01  9.95907e+01        00000 
 1.54102e+01  9.81537e+01        00000 
 1.33862e+01  1.01446e+02        00000 
 1.40779e+01  1.00527e+02        00000 
-1.43015e+01  9.93462e+01        00000 
-1.30434e+01  1.01227e+02        00000 
-1.37410e+01  1.00292e+02        00000 
-1.50601e+01  9.78564e+01        00000 
 1.10297e+01  1.04321e+02        00000 
 1.23838e+01  1.02771e+02        00000 
 9.99878e+00  1.05318e+02        00000 
 1.04552e+01  1.04909e+02        00000 
 6.51023e+00  1.08359e+02        00000 
-6.09552e+00  1.08234e+02        00000 
-1.06522e+01  1.04137e+02        00000 
-9.60870e+00  1.05147e+02        00000 
-1.00703e+01  1.04733e+02        00000 
-1.20060e+01  1.02546e+02        00000 
 8.34647e+00  1.06886e+02        00000 
 5.28347e+00  1.10004e+02        00000 
 8.14556e+00  1.07069e+02        00000 
 6.24861e+00  1.09214e+02        00000 
 4.03512e+00  1.11076e+02        00000 
 4.37695e+00  1.10833e+02        00000 
 3.47689e+00  1.11539e+02        00000 
 2.06527e+00  1.12713e+02        00000 
 2.70541e+00  1.12255e+02        00000 
 7.55267e-01  1.13649e+02        00000 
-2.81903e-01  1.13675e+02        00000 
-1.52519e+00  1.12535e+02        00000 
-2.20509e+00  1.12058e+02        00000 
-4.85864e+00  1.09875e+02        00000 
-3.60274e+00  1.10958e+02        00000 
-3.01857e+00  1.11391e+02        00000 
-3.94697e+00  1.10714e+02        00000 
-5.83017e+00  1.09089e+02        00000 
-7.77043e+00  1.06970e+02        00000 
-7.97506e+00  1.06789e+02        00000 
 1.33320e+00  1.13275e+02        00000 
 1.28717e+00  1.13296e+02        00000 
 3.06902e-01  1.13813e+02        00000 
 1.66829e-01  1.13812e+02        00000 
-8.03007e-01  1.13323e+02        00000 
-8.47163e-01  1.13301e+02        00000 
 3.94935e+00  1.21897e+02        00000 
 1.98423e+00  1.20339e+02        00000 
 1.33194e+00  1.19600e+02        00000 
 7.79491e-01  1.19245e+02        00000 
 1.28904e+00  1.19579e+02        00000 
 3.34610e-01  1.19120e+02        00000 
-2.54578e-01  1.19293e+02        00000 
 1.94496e-01  1.19121e+02        00000 
-7.85033e-01  1.19652e+02        00000 
-1.55737e+00  1.20238e+02        00000 
-8.31015e-01  1.19674e+02        00000 
-3.46822e+00  1.21899e+02        00000 
 9.47368e+00  1.28488e+02        00000 
 7.94012e+00  1.26459e+02        00000 
 5.06747e+00  1.23027e+02        00000 
 6.13447e+00  1.24828e+02        00000 
 7.74419e+00  1.26257e+02        00000 
 5.94318e+00  1.23818e+02        00000 
 4.25815e+00  1.22145e+02        00000 
 3.39399e+00  1.21469e+02        00000 
 2.62338e+00  1.20807e+02        00000 
-2.17642e+00  1.20700e+02        00000 
-4.61595e+00  1.23041e+02        00000 
-2.92450e+00  1.21430e+02        00000 
-3.78426e+00  1.22152e+02        00000 
-5.70944e+00  1.24890e+02        00000 
-5.51391e+00  1.23857e+02        00000 
-7.30684e+00  1.26389e+02        00000 
-9.13021e+00  1.28554e+02        00000 
-7.50326e+00  1.26599e+02        00000 
 1.05999e+01  1.29740e+02        00000 
 1.31135e+01  1.34115e+02        00000 
 1.19598e+01  1.32078e+02        00000 
 9.95901e+00  1.28979e+02        00000 
-1.02676e+01  1.29811e+02        00000 
-9.62147e+00  1.29048e+02        00000 
-1.27928e+01  1.34215e+02        00000 
-1.16863e+01  1.32108e+02        00000 
 1.49970e+01  1.36970e+02        00000 
 1.74105e+01  1.43033e+02        00000 
 1.61170e+01  1.39583e+02        00000 
 1.40831e+01  1.35494e+02        00000 
-1.46945e+01  1.37086e+02        00000 
-1.37762e+01  1.35597e+02        00000 
-1.71383e+01  1.43153e+02        00000 
-1.58949e+01  1.39642e+02        00000 
 1.87066e+01  1.45434e+02        00000 
 2.05072e+01  1.50137e+02        00000 
 1.81570e+01  1.44384e+02        00000 
-1.84374e+01  1.45562e+02        00000 
-1.78862e+01  1.44507e+02        00000 
-2.01450e+01  1.50372e+02        00000 
 2.22592e+01  1.55224e+02        00000 
 2.33147e+01  1.61847e+02        00000 
 2.07142e+01  1.50719e+02        00000 
 2.19203e+01  1.57258e+02        00000 
-2.19856e+01  1.55438e+02        00000 
-2.30911e+01  1.62084e+02        00000 
-2.03611e+01  1.50954e+02        00000 
-2.16678e+01  1.57477e+02        00000 
 2.50052e+01  1.67974e+02        00000 
 2.44733e+01  1.66190e+02        00000 
 2.59302e+01  1.71572e+02        00000 
-2.47910e+01  1.68233e+02        00000 
-2.42550e+01  1.66444e+02        00000 
-2.57296e+01  1.71803e+02        00000 
 2.79355e+01  1.82312e+02        00000 
 2.92537e+01  1.89755e+02        00000 
 2.68915e+01  1.76973e+02        00000 
-2.77863e+01  1.82466e+02        00000 
-2.67271e+01  1.77153e+02        00000 
-2.91401e+01  1.89957e+02        00000 
 3.03818e+01  1.97938e+02        00000 
 2.93573e+01  1.90340e+02        00000 
 3.13333e+01  2.04616e+02        00000 
-3.03252e+01  1.98083e+02        00000 
-2.92443e+01  1.90540e+02        00000 
-3.12328e+01  2.04686e+02        00000 
 3.21355e+01  2.13497e+02        00000 
 3.15473e+01  2.07067e+02        00000 
 3.29783e+01  2.20588e+02        00000 
-3.21886e+01  2.13463e+02        00000 
-3.14485e+01  2.07111e+02        00000 
-3.30071e+01  2.20452e+02        00000 
 3.37275e+01  2.27688e+02        00000 
 3.29784e+01  2.21111e+02        00000 
 3.36832e+01  2.32055e+02        00000 
-3.31551e+01  2.27385e+02        00000 
-3.30606e+01  2.31844e+02        00000 
-3.30049e+01  2.20965e+02        00000 
 3.32510e+01  2.39429e+02        00000 
 3.25652e+01  2.44437e+02        00000 
 3.35750e+01  2.36503e+02        00000 
 3.30270e+01  2.40872e+02        00000 
-3.28301e+01  2.39337e+02        00000 
-3.21466e+01  2.44363e+02        00000 
-3.30776e+01  2.36365e+02        00000 
-3.26092e+01  2.40785e+02        00000 
 3.25130e+01  2.49974e+02        00000 
 3.18559e+01  2.48196e+02        00000 
 3.14761e+01  2.53569e+02        00000 
-3.21423e+01  2.49920e+02        00000 
-3.14575e+01  2.48135e+02        00000 
-3.11952e+01  2.53571e+02        00000 
 3.00462e+01  2.58133e+02        00000 
 3.13552e+01  2.54047e+02        00000 
 2.89481e+01  2.60291e+02        00000 
 2.96225e+01  2.59061e+02        00000 
-2.96646e+01  2.58073e+02        00000 
-2.85634e+01  2.60237e+02        00000 
-2.92397e+01  2.59003e+02        00000 
-3.10837e+01  2.54054e+02        00000 
 2.61297e+01  2.65716e+02        00000 