<?xml version="1.0" encoding="utf-8"?>
<VTKFile byte_order="LittleEndian" type="UnstructuredGrid" version="0.1">
   <UnstructuredGrid>
      <Piece NumberOfCells="2040" NumberOfPoints="2040">
         <Points>
            <DataArray Name="Points" NumberOfComponents="3" format="ascii" type="Float32">
-0.1579 -0.0526 0.0000
-0.1579 0.0526 0.0000
-0.0526 -0.1579 0.0000
-0.0526 0.1579 0.0000
0.0526 -0.1579 0.0000
0.0526 0.1579 0.0000
0.1579 -0.0526 0.0000
0.1579 0.0526 0.0000
-0.1053 -0.1053 0.0000
-0.1053 0.1053 0.0000
0.1053 -0.1053 0.0000
0.1053 0.1053 0.0000
1.8421 -0.1579 0.0000
1.8421 -0.0526 0.0000
1.8421 0.0526 0.0000
1.8421 0.1579 0.0000
1.9474 -0.1579 0.0000
1.9474 0.1579 0.0000
2.0526 -0.1579 0.0000
2.0526 0.1579 0.0000
2.1579 -0.1579 0.0000
2.1579 -0.0526 0.0000
2.1579 0.0526 0.0000
2.1579 0.1579 0.0000
3.7368 -0.0526 0.0000
3.7368 0.0526 0.0000
3.8421 -0.1579 0.0000
3.8421 0.1579 0.0000
3.9474 -0.2632 0.0000
3.9474 0.2632 0.0000
4.0526 -0.2632 0.0000
4.0526 0.2632 0.0000
4.1579 -0.1579 0.0000
4.1579 0.1579 0.0000
4.2632 -0.0526 0.0000
4.2632 0.0526 0.0000
3.7895 -0.1053 0.0000
3.7895 0.0000 0.0000
3.7895 0.1053 0.0000
3.8947 -0.2105 0.0000
3.8947 0.2105 0.0000
4.0000 -0.2105 0.0000
4.0000 0.2105 0.0000
4.1053 -0.2105 0.0000
4.1053 0.2105 0.0000
4.2105 -0.1053 0.0000
4.2105 0.0000 0.0000
4.2105 0.1053 0.0000
5.7368 -0.1579 0.0000
5.7368 -0.0526 0.0000
5.7368 0.0526 0.0000
5.7368 0.1579 0.0000
5.8421 -0.2632 0.0000
5.8421 0.2632 0.0000
5.9474 -0.2632 0.0000
5.9474 0.2632 0.0000
6.0526 -0.2632 0.0000
6.0526 0.2632 0.0000
6.1579 -0.2632 0.0000
6.1579 0.2632 0.0000
6.2632 -0.1579 0.0000
6.2632 -0.0526 0.0000
6.2632 0.0526 0.0000
6.2632 0.1579 0.0000
5.7895 -0.2105 0.0000
5.7895 0.2105 0.0000
6.2105 -0.2105 0.0000
6.2105 0.2105 0.0000
7.6316 -0.0526 0.0000
7.6316 0.0526 0.0000
7.7368 -0.2632 0.0000
7.7368 -0.1579 0.0000
7.7368 0.1579 0.0000
7.7368 0.2632 0.0000
7.8421 -0.2632 0.0000
7.8421 0.2632 0.0000
7.9474 -0.3684 0.0000
7.9474 0.3684 0.0000
8.0526 -0.3684 0.0000
8.0526 0.3684 0.0000
8.1579 -0.2632 0.0000
8.1579 0.2632 0.0000
8.2632 -0.2632 0.0000
8.2632 -0.1579 0.0000
8.2632 0.1579 0.0000
8.2632 0.2632 0.0000
8.3684 -0.0526 0.0000
8.3684 0.0526 0.0000
7.6842 -0.1053 0.0000
7.6842 0.0000 0.0000
7.6842 0.1053 0.0000
7.8947 -0.3158 0.0000
7.8947 0.3158 0.0000
8.0000 -0.3158 0.0000
8.0000 0.3158 0.0000
8.1053 -0.3158 0.0000
8.1053 0.3158 0.0000
8.3158 -0.1053 0.0000
8.3158 0.0000 0.0000
8.3158 0.1053 0.0000
9.6316 -0.1579 0.0000
9.6316 -0.0526 0.0000
9.6316 0.0526 0.0000
9.6316 0.1579 0.0000
9.7368 -0.2632 0.0000
9.7368 0.2632 0.0000
9.8421 -0.3684 0.0000
9.8421 0.3684 0.0000
9.9474 -0.3684 0.0000
9.9474 0.3684 0.0000
10.0526 -0.3684 0.0000
10.0526 0.3684 0.0000
10.1579 -0.3684 0.0000
10.1579 0.3684 0.0000
10.2632 -0.2632 0.0000
10.2632 0.2632 0.0000
10.3684 -0.1579 0.0000
10.3684 -0.0526 0.0000
10.3684 0.0526 0.0000
10.3684 0.1579 0.0000
9.6842 -0.2105 0.0000
9.6842 0.2105 0.0000
9.7895 -0.3158 0.0000
9.7895 0.3158 0.0000
10.2105 -0.3158 0.0000
10.2105 0.3158 0.0000
10.3158 -0.2105 0.0000
10.3158 0.2105 0.0000
11.5263 -0.1579 0.0000
11.5263 -0.0526 0.0000
11.5263 0.0526 0.0000
11.5263 0.1579 0.0000
11.6316 -0.3684 0.0000
11.6316 -0.2632 0.0000
11.6316 0.2632 0.0000
11.6316 0.3684 0.0000
11.7368 -0.3684 0.0000
11.7368 0.3684 0.0000
11.8421 -0.4737 0.0000
11.8421 0.4737 0.0000
11.9474 -0.4737 0.0000
11.9474 0.4737 0.0000
12.0526 -0.4737 0.0000
12.0526 0.4737 0.0000
12.1579 -0.4737 0.0000
12.1579 0.4737 0.0000
12.2632 -0.3684 0.0000
12.2632 0.3684 0.0000
12.3684 -0.3684 0.0000
12.3684 -0.2632 0.0000
12.3684 0.2632 0.0000
12.3684 0.3684 0.0000
12.4737 -0.1579 0.0000
12.4737 -0.0526 0.0000
12.4737 0.0526 0.0000
12.4737 0.1579 0.0000
11.5789 -0.2105 0.0000
11.5789 0.2105 0.0000
11.7895 -0.4211 0.0000
11.7895 0.4211 0.0000
12.2105 -0.4211 0.0000
12.2105 0.4211 0.0000
12.4211 -0.2105 0.0000
12.4211 0.2105 0.0000
13.4211 -0.1579 0.0000
13.4211 -0.0526 0.0000
13.4211 0.0526 0.0000
13.4211 0.1579 0.0000
13.5263 -0.2632 0.0000
13.5263 0.2632 0.0000
13.6316 -0.3684 0.0000
13.6316 0.3684 0.0000
13.7368 -0.4737 0.0000
13.7368 0.4737 0.0000
13.8421 -0.5789 0.0000
13.8421 0.5789 0.0000
13.9474 -0.5789 0.0000
13.9474 0.5789 0.0000
14.0526 -0.5789 0.0000
14.0526 0.5789 0.0000
14.1579 -0.5789 0.0000
14.1579 0.5789 0.0000
14.2632 -0.4737 0.0000
14.2632 0.4737 0.0000
14.3684 -0.3684 0.0000
14.3684 0.3684 0.0000
14.4737 -0.2632 0.0000
14.4737 0.2632 0.0000
14.5789 -0.1579 0.0000
14.5789 -0.0526 0.0000
14.5789 0.0526 0.0000
14.5789 0.1579 0.0000
13.4737 -0.2105 0.0000
13.4737 -0.1053 0.0000
13.4737 0.0000 0.0000
13.4737 0.1053 0.0000
13.4737 0.2105 0.0000
13.5789 -0.3158 0.0000
13.5789 0.3158 0.0000
13.6842 -0.4211 0.0000
13.6842 0.4211 0.0000
13.7895 -0.5263 0.0000
13.7895 0.5263 0.0000
13.8947 -0.5263 0.0000
13.8947 0.5263 0.0000
14.0000 -0.5263 0.0000
14.0000 0.5263 0.0000
14.1053 -0.5263 0.0000
14.1053 0.5263 0.0000
14.2105 -0.5263 0.0000
14.2105 0.5263 0.0000
14.3158 -0.4211 0.0000
14.3158 0.4211 0.0000
14.4211 -0.3158 0.0000
14.4211 0.3158 0.0000
14.5263 -0.2105 0.0000
14.5263 -0.1053 0.0000
14.5263 0.0000 0.0000
14.5263 0.1053 0.0000
14.5263 0.2105 0.0000
15.4211 -0.2632 0.0000
15.4211 -0.1579 0.0000
15.4211 -0.0526 0.0000
15.4211 0.0526 0.0000
15.4211 0.1579 0.0000
15.4211 0.2632 0.0000
15.5263 -0.3684 0.0000
15.5263 0.3684 0.0000
15.6316 -0.4737 0.0000
15.6316 0.4737 0.0000
15.7368 -0.5789 0.0000
15.7368 0.5789 0.0000
15.8421 -0.5789 0.0000
15.8421 0.5789 0.0000
15.9474 -0.5789 0.0000
15.9474 0.5789 0.0000
16.0526 -0.5789 0.0000
16.0526 0.5789 0.0000
16.1579 -0.5789 0.0000
16.1579 0.5789 0.0000
16.2632 -0.5789 0.0000
16.2632 0.5789 0.0000
16.3684 -0.4737 0.0000
16.3684 0.4737 0.0000
16.4737 -0.3684 0.0000
16.4737 0.3684 0.0000
16.5789 -0.2632 0.0000
16.5789 -0.1579 0.0000
16.5789 -0.0526 0.0000
16.5789 0.0526 0.0000
16.5789 0.1579 0.0000
16.5789 0.2632 0.0000
15.4737 -0.3158 0.0000
15.4737 -0.2105 0.0000
15.4737 0.2105 0.0000
15.4737 0.3158 0.0000
15.5789 -0.4211 0.0000
15.5789 0.4211 0.0000
15.6842 -0.5263 0.0000
15.6842 0.5263 0.0000
15.7895 -0.5263 0.0000
15.7895 0.5263 0.0000
16.2105 -0.5263 0.0000
16.2105 0.5263 0.0000
16.3158 -0.5263 0.0000
16.3158 0.5263 0.0000
16.4211 -0.4211 0.0000
16.4211 0.4211 0.0000
16.5263 -0.3158 0.0000
16.5263 -0.2105 0.0000
16.5263 0.2105 0.0000
16.5263 0.3158 0.0000
17.3158 -0.1579 0.0000
17.3158 -0.0526 0.0000
17.3158 0.0526 0.0000
17.3158 0.1579 0.0000
17.4211 -0.3684 0.0000
17.4211 -0.2632 0.0000
17.4211 0.2632 0.0000
17.4211 0.3684 0.0000
17.5263 -0.4737 0.0000
17.5263 0.4737 0.0000
17.6316 -0.5789 0.0000
17.6316 0.5789 0.0000
17.7368 -0.5789 0.0000
17.7368 0.5789 0.0000
17.8421 -0.6842 0.0000
17.8421 0.6842 0.0000
17.9474 -0.6842 0.0000
17.9474 0.6842 0.0000
18.0526 -0.6842 0.0000
18.0526 0.6842 0.0000
18.1579 -0.6842 0.0000
18.1579 0.6842 0.0000
18.2632 -0.5789 0.0000
18.2632 0.5789 0.0000
18.3684 -0.5789 0.0000
18.3684 0.5789 0.0000
18.4737 -0.4737 0.0000
18.4737 0.4737 0.0000
18.5789 -0.3684 0.0000
18.5789 -0.2632 0.0000
18.5789 0.2632 0.0000
18.5789 0.3684 0.0000
18.6842 -0.1579 0.0000
18.6842 -0.0526 0.0000
18.6842 0.0526 0.0000
18.6842 0.1579 0.0000
17.3684 -0.2105 0.0000
17.3684 -0.1053 0.0000
17.3684 0.0000 0.0000
17.3684 0.1053 0.0000
17.3684 0.2105 0.0000
17.4737 -0.4211 0.0000
17.4737 -0.3158 0.0000
17.4737 0.3158 0.0000
17.4737 0.4211 0.0000
17.5789 -0.5263 0.0000
17.5789 0.5263 0.0000
17.6842 -0.5263 0.0000
17.6842 0.5263 0.0000
17.7895 -0.6316 0.0000
17.7895 0.6316 0.0000
17.8947 -0.6316 0.0000
17.8947 0.6316 0.0000
18.0000 -0.6316 0.0000
18.0000 0.6316 0.0000
18.1053 -0.6316 0.0000
18.1053 0.6316 0.0000
18.2105 -0.6316 0.0000
18.2105 0.6316 0.0000
18.3158 -0.5263 0.0000
18.3158 0.5263 0.0000
18.4211 -0.5263 0.0000
18.4211 0.5263 0.0000
18.5263 -0.4211 0.0000
18.5263 -0.3158 0.0000
18.5263 0.3158 0.0000
18.5263 0.4211 0.0000
18.6316 -0.2105 0.0000
18.6316 -0.1053 0.0000
18.6316 0.0000 0.0000
18.6316 0.1053 0.0000
18.6316 0.2105 0.0000
19.3158 -0.2632 0.0000
19.3158 -0.1579 0.0000
19.3158 -0.0526 0.0000
19.3158 0.0526 0.0000
19.3158 0.1579 0.0000
19.3158 0.2632 0.0000
19.4211 -0.3684 0.0000
19.4211 0.3684 0.0000
19.5263 -0.4737 0.0000
19.5263 0.4737 0.0000
19.6316 -0.5789 0.0000
19.6316 0.5789 0.0000
19.7368 -0.6842 0.0000
19.7368 0.6842 0.0000
19.8421 -0.6842 0.0000
19.8421 0.6842 0.0000
19.9474 -0.6842 0.0000
19.9474 0.6842 0.0000
20.0526 -0.6842 0.0000
20.0526 0.6842 0.0000
20.1579 -0.6842 0.0000
20.1579 0.6842 0.0000
20.2632 -0.6842 0.0000
20.2632 0.6842 0.0000
20.3684 -0.5789 0.0000
20.3684 0.5789 0.0000
20.4737 -0.4737 0.0000
20.4737 0.4737 0.0000
20.5789 -0.3684 0.0000
20.5789 0.3684 0.0000
20.6842 -0.2632 0.0000
20.6842 -0.1579 0.0000
20.6842 -0.0526 0.0000
20.6842 0.0526 0.0000
20.6842 0.1579 0.0000
20.6842 0.2632 0.0000
19.3684 -0.3158 0.0000
19.3684 -0.2105 0.0000
19.3684 0.2105 0.0000
19.3684 0.3158 0.0000
19.4737 -0.4211 0.0000
19.4737 0.4211 0.0000
19.5789 -0.5263 0.0000
19.5789 0.5263 0.0000
19.6842 -0.6316 0.0000
19.6842 0.6316 0.0000
19.7895 -0.6316 0.0000
19.7895 0.6316 0.0000
20.2105 -0.6316 0.0000
20.2105 0.6316 0.0000
20.3158 -0.6316 0.0000
20.3158 0.6316 0.0000
20.4211 -0.5263 0.0000
20.4211 0.5263 0.0000
20.5263 -0.4211 0.0000
20.5263 0.4211 0.0000
20.6316 -0.3158 0.0000
20.6316 -0.2105 0.0000
20.6316 0.2105 0.0000
20.6316 0.3158 0.0000
21.2105 -0.0526 0.0000
21.2105 0.0526 0.0000
21.3158 -0.3684 0.0000
21.3158 -0.2632 0.0000
21.3158 -0.1579 0.0000
21.3158 0.1579 0.0000
21.3158 0.2632 0.0000
21.3158 0.3684 0.0000
21.4211 -0.4737 0.0000
21.4211 0.4737 0.0000
21.5263 -0.5789 0.0000
21.5263 0.5789 0.0000
21.6316 -0.6842 0.0000
21.6316 0.6842 0.0000
21.7368 -0.6842 0.0000
21.7368 0.6842 0.0000
21.8421 -0.6842 0.0000
21.8421 0.6842 0.0000
21.9474 -0.7895 0.0000
21.9474 0.7895 0.0000
22.0526 -0.7895 0.0000
22.0526 0.7895 0.0000
22.1579 -0.6842 0.0000
22.1579 0.6842 0.0000
22.2632 -0.6842 0.0000
22.2632 0.6842 0.0000
22.3684 -0.6842 0.0000
22.3684 0.6842 0.0000
22.4737 -0.5789 0.0000
22.4737 0.5789 0.0000
22.5789 -0.4737 0.0000
22.5789 0.4737 0.0000
[...]
         <PointData>
            <DataArray Name="fValues" NumberOfComponents="3" format="ascii" type="Float64">
 1.53928e+00  2.21485e+01        00000 
-1.54339e+00  2.21398e+01        00000 
 5.68799e+00  2.65482e+01        00000 
-5.67127e+00  2.65367e+01        00000 
 6.44185e+00  3.08304e+01        00000 
-6.42281e+00  3.08398e+01        00000 
 2.45512e+00  3.48994e+01        00000 
-2.45713e+00  3.49057e+01        00000 
 3.40127e+00  2.42203e+01        00000 
-3.42038e+00  2.42398e+01        00000 
 4.60044e+00  3.27907e+01        00000 
-4.62804e+00  3.27797e+01        00000 
 1.65499e+01  1.66146e+02        00000 
 5.19228e+00  1.65784e+02        00000 
-5.18071e+00  1.65792e+02        00000 
-1.65542e+01  1.66143e+02        00000 
 1.72536e+01  1.78432e+02        00000 
-1.72631e+01  1.78426e+02        00000 
 1.82376e+01  1.90663e+02        00000 
-1.82490e+01  1.90667e+02        00000 
 1.90251e+01  2.02623e+02        00000 
 6.60273e+00  2.02345e+02        00000 
-6.58842e+00  2.02338e+02        00000 
-1.90250e+01  2.02622e+02        00000 
 8.72288e+00  4.35672e+02        00000 
-8.72099e+00  4.35675e+02        00000 
 2.69605e+01  4.54973e+02        00000 
-2.69630e+01  4.54983e+02        00000 
 4.73911e+01  4.75396e+02        00000 
-4.73904e+01  4.75391e+02        00000 
 4.85247e+01  4.94914e+02        00000 
-4.85247e+01  4.94921e+02        00000 
 3.03867e+01  5.13570e+02        00000 
-3.03921e+01  5.13564e+02        00000 
 1.04008e+01  5.32992e+02        00000 
-1.04003e+01  5.32990e+02        00000 
 1.76836e+01  4.45165e+02        00000 
-4.71459e-03  4.44840e+02        00000 
-1.76821e+01  4.45161e+02        00000 
 3.69821e+01  4.65162e+02        00000 
-3.69753e+01  4.65159e+02        00000 
 3.82688e+01  4.85026e+02        00000 
-3.82300e+01  4.85026e+02        00000 
 3.96250e+01  5.04213e+02        00000 
-3.96164e+01  5.04217e+02        00000 
 2.05556e+01  5.23149e+02        00000 
-4.02204e-03  5.22928e+02        00000 
-2.05549e+01  5.23151e+02        00000 
 3.64157e+01  8.52399e+02        00000 
 1.18704e+01  8.51985e+02        00000 
-1.18834e+01  8.51979e+02        00000 
-3.64114e+01  8.52388e+02        00000 
 6.28295e+01  8.79312e+02        00000 
-6.28191e+01  8.79312e+02        00000 
 6.39968e+01  9.06068e+02        00000 
-6.39839e+01  9.06072e+02        00000 
 6.55439e+01  9.32395e+02        00000 
-6.55299e+01  9.32390e+02        00000 
 6.68078e+01  9.58189e+02        00000 
-6.67954e+01  9.58194e+02        00000 
 4.12856e+01  9.83728e+02        00000 
 1.39872e+01  9.83417e+02        00000 
-1.40003e+01  9.83422e+02        00000 
-4.12865e+01  9.83737e+02        00000 
 4.93688e+01  8.65748e+02        00000 
-4.93735e+01  8.65772e+02        00000 
 5.42714e+01  9.70888e+02        00000 
-5.42873e+01  9.70875e+02        00000 
 1.49592e+01  1.36216e+03        00000 
-1.49575e+01  1.36215e+03        00000 
 7.71005e+01  1.39472e+03        00000 
 4.53179e+01  1.39410e+03        00000 
-4.53180e+01  1.39408e+03        00000 
-7.70924e+01  1.39470e+03        00000 
 7.76669e+01  1.42767e+03        00000 
-7.76478e+01  1.42766e+03        00000 
 1.11952e+02  1.46122e+03        00000 
-1.11953e+02  1.46125e+03        00000 
 1.13394e+02  1.49381e+03        00000 
-1.13393e+02  1.49378e+03        00000 
 8.30325e+01  1.52534e+03        00000 
-8.30059e+01  1.52535e+03        00000 
 8.37178e+01  1.55732e+03        00000 
 5.10587e+01  1.55683e+03        00000 
-5.10530e+01  1.55685e+03        00000 
-8.37061e+01  1.55733e+03        00000 
 1.71721e+01  1.58960e+03        00000 
-1.71676e+01  1.58960e+03        00000 
 3.00539e+01  1.37792e+03        00000 
 1.75374e-02  1.37756e+03        00000 
-3.00490e+01  1.37794e+03        00000 
 9.46471e+01  1.44441e+03        00000 
-9.46840e+01  1.44443e+03        00000 
 9.63684e+01  1.47737e+03        00000 
-9.65165e+01  1.47737e+03        00000 
 9.82863e+01  1.50955e+03        00000 
-9.83284e+01  1.50953e+03        00000 
 3.42000e+01  1.57307e+03        00000 
 1.53681e-02  1.57279e+03        00000 
-3.41939e+01  1.57306e+03        00000 
 5.36389e+01  2.01319e+03        00000 
 1.77031e+01  2.01269e+03        00000 
-1.76983e+01  2.01270e+03        00000 
-5.36349e+01  2.01319e+03        00000 
 9.06991e+01  2.05175e+03        00000 
-9.06848e+01  2.05175e+03        00000 
 1.30037e+02  2.09126e+03        00000 
-1.30038e+02  2.09127e+03        00000 
 1.31627e+02  2.13014e+03        00000 
-1.31665e+02  2.13014e+03        00000 
 1.33537e+02  2.16845e+03        00000 
-1.33578e+02  2.16844e+03        00000 
 1.35288e+02  2.20615e+03        00000 
-1.35287e+02  2.20614e+03        00000 
 9.86717e+01  2.24323e+03        00000 
-9.86568e+01  2.24323e+03        00000 
 5.99812e+01  2.28102e+03        00000 
 2.01606e+01  2.28065e+03        00000 
-2.01548e+01  2.28065e+03        00000 
-5.99748e+01  2.28103e+03        00000 
 7.20614e+01  2.03239e+03        00000 
-7.20538e+01  2.03237e+03        00000 
 1.10113e+02  2.07149e+03        00000 
-1.10099e+02  2.07149e+03        00000 
 1.17228e+02  2.22466e+03        00000 
-1.17208e+02  2.22466e+03        00000 
 7.94435e+01  2.26204e+03        00000 
-7.94328e+01  2.26206e+03        00000 
 6.10848e+01  2.72769e+03        00000 
 2.02806e+01  2.72732e+03        00000 
-2.03133e+01  2.72731e+03        00000 
-6.10815e+01  2.72769e+03        00000 
 1.45499e+02  2.77184e+03        00000 
 1.02625e+02  2.77116e+03        00000 
-1.02610e+02  2.77122e+03        00000 
-1.45510e+02  2.77186e+03        00000 
 1.45897e+02  2.81600e+03        00000 
-1.45927e+02  2.81602e+03        00000 
 1.91497e+02  2.86088e+03        00000 
-1.91481e+02  2.86085e+03        00000 
 1.93296e+02  2.90487e+03        00000 
-1.93230e+02  2.90487e+03        00000 
 1.95521e+02  2.94847e+03        00000 
-1.95453e+02  2.94848e+03        00000 
 1.97362e+02  2.99167e+03        00000 
-1.97348e+02  2.99171e+03        00000 
 1.56273e+02  3.03407e+03        00000 
-1.56322e+02  3.03407e+03        00000 
 1.56852e+02  3.07698e+03        00000 
 1.13245e+02  3.07648e+03        00000 
-1.13248e+02  3.07644e+03        00000 
-1.56874e+02  3.07696e+03        00000 
 6.84432e+01  3.11990e+03        00000 
 2.28654e+01  3.11961e+03        00000 
-2.28971e+01  3.11962e+03        00000 
-6.84471e+01  3.11990e+03        00000 
 8.17918e+01  2.74928e+03        00000 
-8.17834e+01  2.74927e+03        00000 
 1.68459e+02  2.83840e+03        00000 
-1.68451e+02  2.83838e+03        00000 
 1.77045e+02  3.01281e+03        00000 
-1.77034e+02  3.01283e+03        00000 
 9.09139e+01  3.09804e+03        00000 
-9.09140e+01  3.09806e+03        00000 
 6.85066e+01  3.53177e+03        00000 
 2.27676e+01  3.53165e+03        00000 
-2.27851e+01  3.53165e+03        00000 
-6.85250e+01  3.53177e+03        00000 
 1.14753e+02  3.57943e+03        00000 
-1.14726e+02  3.57942e+03        00000 
 1.62041e+02  3.62838e+03        00000 
-1.62047e+02  3.62840e+03        00000 
 2.11421e+02  3.67815e+03        00000 
-2.11420e+02  3.67814e+03        00000 
 2.61926e+02  3.72783e+03        00000 
-2.61941e+02  3.72786e+03        00000 
 2.63671e+02  3.77670e+03        00000 
-2.63655e+02  3.77670e+03        00000 
 2.65543e+02  3.82520e+03        00000 
-2.65526e+02  3.82521e+03        00000 
 2.67301e+02  3.87335e+03        00000 
-2.67319e+02  3.87332e+03        00000 
 2.21309e+02  3.92065e+03        00000 
-2.21308e+02  3.92067e+03        00000 
 1.74393e+02  3.96796e+03        00000 
-1.74409e+02  3.96794e+03        00000 
 1.25614e+02  4.01583e+03        00000 
-1.25600e+02  4.01584e+03        00000 
 7.56961e+01  4.06482e+03        00000 
 2.52848e+01  4.06474e+03        00000 
-2.53024e+01  4.06474e+03        00000 
-7.57150e+01  4.06481e+03        00000 
 9.15561e+01  3.55545e+03        00000 
 4.55719e+01  3.55498e+03        00000 
-1.41266e-02  3.55474e+03        00000 
-4.56027e+01  3.55497e+03        00000 
-9.15519e+01  3.55544e+03        00000 
 1.38318e+02  3.60385e+03        00000 
-1.38309e+02  3.60386e+03        00000 
 1.86498e+02  3.65326e+03        00000 
-1.86504e+02  3.65327e+03        00000 
 2.36616e+02  3.70298e+03        00000 
-2.36592e+02  3.70298e+03        00000 
 2.38256e+02  3.75200e+03        00000 
-2.38268e+02  3.75205e+03        00000 
 2.40447e+02  3.80072e+03        00000 
-2.40319e+02  3.80072e+03        00000 
 2.42556e+02  3.84906e+03        00000 
-2.42566e+02  3.84901e+03        00000 
 2.44365e+02  3.89698e+03        00000 
-2.44339e+02  3.89699e+03        00000 
 1.98072e+02  3.94428e+03        00000 
-1.98081e+02  3.94429e+03        00000 
 1.50097e+02  3.99185e+03        00000 
-1.50097e+02  3.99185e+03        00000 
 1.00726e+02  4.04020e+03        00000 
 5.05319e+01  4.03986e+03        00000 
-1.28716e-02  4.03969e+03        00000 
-5.05601e+01  4.03987e+03        00000 
-1.00728e+02  4.04021e+03        00000 
 1.26054e+02  4.46972e+03        00000 
 7.53589e+01  4.46936e+03        00000 
 2.50783e+01  4.46907e+03        00000 
-2.51038e+01  4.46906e+03        00000 
-7.53712e+01  4.46936e+03        00000 
-1.26067e+02  4.46972e+03        00000 
 1.77398e+02  4.52237e+03        00000 
-1.77375e+02  4.52238e+03        00000 
 2.30180e+02  4.57616e+03        00000 
-2.30202e+02  4.57619e+03        00000 
 2.84502e+02  4.63023e+03        00000 
-2.84507e+02  4.63023e+03        00000 
 2.85955e+02  4.68381e+03        00000 
-2.85952e+02  4.68378e+03        00000 
 2.87783e+02  4.73704e+03        00000 
-2.87736e+02  4.73703e+03        00000 
 2.90014e+02  4.78999e+03        00000 
-2.89966e+02  4.78999e+03        00000 
 2.91890e+02  4.84265e+03        00000 
-2.91887e+02  4.84268e+03        00000 
 2.93459e+02  4.89499e+03        00000 
-2.93466e+02  4.89499e+03        00000 
 2.42458e+02  4.94689e+03        00000 
-2.42485e+02  4.94688e+03        00000 
 1.90233e+02  4.99900e+03        00000 
-1.90234e+02  4.99900e+03        00000 
 1.36548e+02  5.05199e+03        00000 
 8.21871e+01  5.05175e+03        00000 
 2.74196e+01  5.05155e+03        00000 
-2.74452e+01  5.05155e+03        00000 
-8.22036e+01  5.05176e+03        00000 
-1.36568e+02  5.05199e+03        00000 
 1.51649e+02  4.49594e+03        00000 
 1.00651e+02  4.49537e+03        00000 
-1.00677e+02  4.49535e+03        00000 
-1.51647e+02  4.49593e+03        00000 
 2.03631e+02  4.54925e+03        00000 
-2.03629e+02  4.54927e+03        00000 
 2.57199e+02  4.60317e+03        00000 
-2.57207e+02  4.60318e+03        00000 
 2.58147e+02  4.65675e+03        00000 
-2.58159e+02  4.65675e+03        00000 
 2.66951e+02  4.86858e+03        00000 
-2.66957e+02  4.86858e+03        00000 
 2.68083e+02  4.92091e+03        00000 
-2.68092e+02  4.92091e+03        00000 
 2.16511e+02  4.97292e+03        00000 
-2.16522e+02  4.97292e+03        00000 
 1.63470e+02  5.02540e+03        00000 
 1.09397e+02  5.02501e+03        00000 
-1.09424e+02  5.02502e+03        00000 
-1.63481e+02  5.02541e+03        00000 
 8.16714e+01  5.43469e+03        00000 
 2.71923e+01  5.43459e+03        00000 
-2.72098e+01  5.43459e+03        00000 
-8.16877e+01  5.43469e+03        00000 
 1.91516e+02  5.49096e+03        00000 
 1.36347e+02  5.49057e+03        00000 
-1.36338e+02  5.49057e+03        00000 
-1.91530e+02  5.49097e+03        00000 
 2.47672e+02  5.54811e+03        00000 
-2.47686e+02  5.54811e+03        00000 
 3.05139e+02  5.60589e+03        00000 
-3.05152e+02  5.60590e+03        00000 
 3.06031e+02  5.66343e+03        00000 
-3.06038e+02  5.66342e+03        00000 
 3.65024e+02  5.72134e+03        00000 
-3.65049e+02  5.72136e+03        00000 
 3.66667e+02  5.77854e+03        00000 
-3.66673e+02  5.77857e+03        00000 
 3.68402e+02  5.83553e+03        00000 
-3.68407e+02  5.83550e+03        00000 
 3.70075e+02  5.89224e+03        00000 
-3.70102e+02  5.89222e+03        00000 
 3.15633e+02  5.94825e+03        00000 
-3.15641e+02  5.94827e+03        00000 
 3.16673e+02  6.00466e+03        00000 
-3.16688e+02  6.00466e+03        00000 
 2.60981e+02  6.06079e+03        00000 
-2.60997e+02  6.06079e+03        00000 
 2.04094e+02  6.11746e+03        00000 
 1.46240e+02  6.11722e+03        00000 
-1.46239e+02  6.11722e+03        00000 
-2.04109e+02  6.11745e+03        00000 
 8.78825e+01  6.17485e+03        00000 
 2.93138e+01  6.17480e+03        00000 
-2.93309e+01  6.17481e+03        00000 
-8.78990e+01  6.17485e+03        00000 
 1.08968e+02  5.46252e+03        00000 
 5.43889e+01  5.46216e+03        00000 
-6.96746e-03  5.46200e+03        00000 
-5.44132e+01  5.46215e+03        00000 
-1.08970e+02  5.46251e+03        00000 
 2.19486e+02  5.51948e+03        00000 
 1.63857e+02  5.51888e+03        00000 
-1.63870e+02  5.51889e+03        00000 
-2.19500e+02  5.51948e+03        00000 
 2.76248e+02  5.57696e+03        00000 
-2.76262e+02  5.57696e+03        00000 
 2.76740e+02  5.63445e+03        00000 
-2.76758e+02  5.63445e+03        00000 
 3.35498e+02  5.69238e+03        00000 
-3.35483e+02  5.69237e+03        00000 
 3.37108e+02  5.74971e+03        00000 
-3.37119e+02  5.74976e+03        00000 
 3.39061e+02  5.80681e+03        00000 
-3.39118e+02  5.80681e+03        00000 
 3.41116e+02  5.86369e+03        00000 
-3.41124e+02  5.86364e+03        00000 
 3.42887e+02  5.92023e+03        00000 
-3.42868e+02  5.92025e+03        00000 
 2.88252e+02  5.97628e+03        00000 
-2.88275e+02  5.97628e+03        00000 
 2.88975e+02  6.03268e+03        00000 
-2.88991e+02  6.03268e+03        00000 
 2.32646e+02  6.08908e+03        00000 
 1.75199e+02  6.08872e+03        00000 
-1.75212e+02  6.08871e+03        00000 
-2.32661e+02  6.08907e+03        00000 
 1.17099e+02  6.14595e+03        00000 
 5.86257e+01  6.14572e+03        00000 
-7.13594e-03  6.14562e+03        00000 
-5.86474e+01  6.14573e+03        00000 
-1.17106e+02  6.14595e+03        00000 
 1.45721e+02  6.52653e+03        00000 
 8.73441e+01  6.52628e+03        00000 
 2.91195e+01  6.52607e+03        00000 
-2.91289e+01  6.52608e+03        00000 
-8.73477e+01  6.52628e+03        00000 
-1.45731e+02  6.52653e+03        00000 
 2.04381e+02  6.58647e+03        00000 
-2.04390e+02  6.58648e+03        00000 
 2.63663e+02  6.64730e+03        00000 
-2.63698e+02  6.64727e+03        00000 
 3.24466e+02  6.70870e+03        00000 
-3.24476e+02  6.70870e+03        00000 
 3.86438e+02  6.77011e+03        00000 
-3.86453e+02  6.77011e+03        00000 
 3.87740e+02  6.83103e+03        00000 
-3.87755e+02  6.83101e+03        00000 
 3.89353e+02  6.89158e+03        00000 
-3.89364e+02  6.89158e+03        00000 
 3.91256e+02  6.95208e+03        00000 
-3.91267e+02  6.95208e+03        00000 
 3.92960e+02  7.01255e+03        00000 
-3.92977e+02  7.01256e+03        00000 
 3.94396e+02  7.07269e+03        00000 
-3.94411e+02  7.07269e+03        00000 
 3.35979e+02  7.13238e+03        00000 
-3.35989e+02  7.13238e+03        00000 
 2.76601e+02  7.19214e+03        00000 
-2.76610e+02  7.19214e+03        00000 
 2.15935e+02  7.25230e+03        00000 
-2.15941e+02  7.25230e+03        00000 
 1.54547e+02  7.31311e+03        00000 
 9.28283e+01  7.31299e+03        00000 
 3.09406e+01  7.31288e+03        00000 
-3.09489e+01  7.31288e+03        00000 
-9.28328e+01  7.31299e+03        00000 
-1.54555e+02  7.31311e+03        00000 
 1.75015e+02  6.55642e+03        00000 
 1.16485e+02  6.55593e+03        00000 
-1.16495e+02  6.55594e+03        00000 
-1.75027e+02  6.55642e+03        00000 
 2.33977e+02  6.61683e+03        00000 
-2.33998e+02  6.61683e+03        00000 
 2.93908e+02  6.67801e+03        00000 
-2.93921e+02  6.67801e+03        00000 
 3.55318e+02  6.73937e+03        00000 
-3.55333e+02  6.73937e+03        00000 
 3.56322e+02  6.80038e+03        00000 
-3.56339e+02  6.80038e+03        00000 
 3.64068e+02  7.04245e+03        00000 
-3.64086e+02  7.04245e+03        00000 
 3.65293e+02  7.10250e+03        00000 
-3.65309e+02  7.10249e+03        00000 
 3.06434e+02  7.16225e+03        00000 
-3.06443e+02  7.16225e+03        00000 
 2.46334e+02  7.22219e+03        00000 
-2.46346e+02  7.22218e+03        00000 
 1.85278e+02  7.28265e+03        00000 
 1.23722e+02  7.28239e+03        00000 
-1.23729e+02  7.28238e+03        00000 
-1.85286e+02  7.28265e+03        00000 
 3.07928e+01  7.62195e+03        00000 
-3.08085e+01  7.62195e+03        00000 
 2.15773e+02  7.68478e+03        00000 
 1.53996e+02  7.68446e+03        00000 
 9.23869e+01  7.68409e+03        00000 
-9.24226e+01  7.68404e+03        00000 
-1.54017e+02  7.68444e+03        00000 
-2.15771e+02  7.68477e+03        00000 
 2.77924e+02  7.74813e+03        00000 
-2.77901e+02  7.74813e+03        00000 
 3.40959e+02  7.81223e+03        00000 
-3.40974e+02  7.81226e+03        00000 
 4.05215e+02  7.87658e+03        00000 
-4.05212e+02  7.87658e+03        00000 
 4.06020e+02  7.94054e+03        00000 
-4.06002e+02  7.94054e+03        00000 
 4.07232e+02  8.00433e+03        00000 
-4.07091e+02  8.00438e+03        00000 
 4.72607e+02  8.06841e+03        00000 
-4.72624e+02  8.06846e+03        00000 
 4.74036e+02  8.13202e+03        00000 
-4.74049e+02  8.13199e+03        00000 
 4.12722e+02  8.19510e+03        00000 
-4.12555e+02  8.19505e+03        00000 
 4.14016e+02  8.25846e+03        00000 
-4.13990e+02  8.25847e+03        00000 
 4.15008e+02  8.32172e+03        00000 
-4.15003e+02  8.32174e+03        00000 
 3.52855e+02  8.38470e+03        00000 
-3.52880e+02  8.38470e+03        00000 
 2.89817e+02  8.44785e+03        00000 
-2.89830e+02  8.44786e+03        00000 
 2.25877e+02  8.51149e+03        00000 
 1.61495e+02  8.51137e+03        00000 
 9.69201e+01  8.51119e+03        00000 
-9.69508e+01  8.51122e+03        00000 
-1.61519e+02  8.51138e+03        00000 
-2.25893e+02  8.51150e+03        00000 
 3.23030e+01  8.57559e+03        00000 
-3.23250e+01  8.57560e+03        00000 
 6.15746e+01  7.65296e+03        00000 
-4.99449e-03  7.65287e+03        00000 
-6.15993e+01  7.65295e+03        00000 
 2.46809e+02  7.71640e+03        00000 
 1.84810e+02  7.71596e+03        00000 
-1.84847e+02  7.71590e+03        00000 
-2.46798e+02  7.71639e+03        00000 
 3.09342e+02  7.78016e+03        00000 
-3.09336e+02  7.78018e+03        00000 
 3.72964e+02  7.84439e+03        00000 
-3.72972e+02  7.84440e+03        00000 
 3.73443e+02  7.90843e+03        00000 
-3.73413e+02  7.90843e+03        00000 
 4.39943e+02  8.03636e+03        00000 
-4.39975e+02  8.03644e+03        00000 
 4.41524e+02  8.10004e+03        00000 
-4.41631e+02  8.10004e+03        00000 
 4.43234e+02  8.16359e+03        00000 
-4.43264e+02  8.16351e+03        00000 
 3.83342e+02  8.29000e+03        00000 
-3.83283e+02  8.28999e+03        00000 
 3.84035e+02  8.35318e+03        00000 
-3.84044e+02  8.35320e+03        00000 
 3.21443e+02  8.41626e+03        00000 
-3.21459e+02  8.41626e+03        00000 
 2.57895e+02  8.47963e+03        00000 
 1.93714e+02  8.47942e+03        00000 
-1.93746e+02  8.47945e+03        00000 
-2.57909e+02  8.47964e+03        00000 
 6.46216e+01  8.54337e+03        00000 
-9.15031e-03  8.54333e+03        00000 
-6.46470e+01  8.54337e+03        00000 
 1.61068e+02  8.83443e+03        00000 
 9.66459e+01  8.83426e+03        00000 
 3.22224e+01  8.83414e+03        00000 
-3.22488e+01  8.83413e+03        00000 
-9.66783e+01  8.83425e+03        00000 
-1.61095e+02  8.83441e+03        00000 
 2.90172e+02  8.90009e+03        00000 
 2.25483e+02  8.89981e+03        00000 
-2.25505e+02  8.89978e+03        00000 
-2.90171e+02  8.90010e+03        00000 
 3.55353e+02  8.96624e+03        00000 
-3.55375e+02  8.96627e+03        00000 
 4.21380e+02  9.03284e+03        00000 
-4.21411e+02  9.03286e+03        00000 
 4.21767e+02  9.09930e+03        00000 
-4.21807e+02  9.09931e+03        00000 
 4.88999e+02  9.16597e+03        00000 
-4.89019e+02  9.16597e+03        00000 
 4.89977e+02  9.23224e+03        00000 
-4.89982e+02  9.23225e+03        00000 
 4.91180e+02  9.29831e+03        00000 