<?xml version="1.0" encoding="utf-8"?>
<VTKFile byte_order="LittleEndian" type="UnstructuredGrid" version="0.1">
   <UnstructuredGrid>
      <Piece NumberOfCells="16048" NumberOfPoints="8668">
         <Points>
            <DataArray Name="Points" NumberOfComponents="3" format="ascii" type="Float32">
-1.0000 -0.8947 0.0000
-1.0000 -0.7895 0.0000
-1.0000 -0.6842 0.0000
-1.0000 -0.5789 0.0000
-1.0000 -0.4737 0.0000
-1.0000 -0.3684 0.0000
-1.0000 -0.2632 0.0000
-1.0000 -0.1579 0.0000
-1.0000 -0.0526 0.0000
-1.0000 0.0526 0.0000
-1.0000 0.1579 0.0000
-1.0000 0.2632 0.0000
-1.0000 0.3684 0.0000
-1.0000 0.4737 0.0000
-1.0000 0.5789 0.0000
-1.0000 0.6842 0.0000
-1.0000 0.7895 0.0000
-1.0000 0.8947 0.0000
-1.0000 1.0000 0.0000
-0.8947 -0.8947 0.0000
-0.8947 -0.7895 0.0000
-0.8947 -0.6842 0.0000
-0.8947 -0.5789 0.0000
-0.8947 -0.4737 0.0000
-0.8947 -0.3684 0.0000
-0.8947 -0.2632 0.0000
-0.8947 -0.1579 0.0000
-0.8947 -0.0526 0.0000
-0.8947 0.0526 0.0000
-0.8947 0.1579 0.0000
-0.8947 0.2632 0.0000
-0.8947 0.3684 0.0000
-0.8947 0.4737 0.0000
-0.8947 0.5789 0.0000
-0.8947 0.6842 0.0000
-0.8947 0.7895 0.0000
-0.8947 0.8947 0.0000
-0.8947 1.0000 0.0000
-0.7895 -0.8947 0.0000
-0.7895 -0.7895 0.0000
-0.7895 -0.6842 0.0000
-0.7895 -0.5789 0.0000
-0.7895 -0.4737 0.0000
-0.7895 -0.3684 0.0000
-0.7895 -0.2632 0.0000
-0.7895 -0.1579 0.0000
-0.7895 -0.0526 0.0000
-0.7895 0.0526 0.0000
-0.7895 0.1579 0.0000
-0.7895 0.2632 0.0000
-0.7895 0.3684 0.0000
-0.7895 0.4737 0.0000
-0.7895 0.5789 0.0000
-0.7895 0.6842 0.0000
-0.7895 0.7895 0.0000
-0.7895 0.8947 0.0000
-0.7895 1.0000 0.0000
-0.6842 -0.8947 0.0000
-0.6842 -0.7895 0.0000
-0.6842 -0.6842 0.0000
-0.6842 -0.5789 0.0000
-0.6842 -0.4737 0.0000
-0.6842 -0.3684 0.0000
-0.6842 -0.2632 0.0000
-0.6842 -0.1579 0.0000
-0.6842 -0.0526 0.0000
-0.6842 0.0526 0.0000
-0.6842 0.1579 0.0000
-0.6842 0.2632 0.0000
-0.6842 0.3684 0.0000
-0.6842 0.4737 0.0000
-0.6842 0.5789 0.0000
-0.6842 0.6842 0.0000
-0.6842 0.7895 0.0000
-0.6842 0.8947 0.0000
-0.6842 1.0000 0.0000
-0.5789 -0.8947 0.0000
-0.5789 -0.7895 0.0000
-0.5789 -0.6842 0.0000
-0.5789 -0.5789 0.0000
-0.5789 -0.4737 0.0000
-0.5789 -0.3684 0.0000
-0.5789 -0.2632 0.0000
-0.5789 -0.1579 0.0000
-0.5789 -0.0526 0.0000
-0.5789 0.0526 0.0000
-0.5789 0.1579 0.0000
-0.5789 0.2632 0.0000
-0.5789 0.3684 0.0000
-0.5789 0.4737 0.0000
-0.5789 0.5789 0.0000
-0.5789 0.6842 0.0000
-0.5789 0.7895 0.0000
-0.5789 0.8947 0.0000
-0.5789 1.0000 0.0000
-0.4737 -0.8947 0.0000
-0.4737 -0.7895 0.0000
-0.4737 -0.6842 0.0000
-0.4737 -0.5789 0.0000
-0.4737 -0.4737 0.0000
-0.4737 -0.3684 0.0000
-0.4737 -0.2632 0.0000
-0.4737 -0.1579 0.0000
-0.4737 -0.0526 0.0000
-0.4737 0.0526 0.0000
-0.4737 0.1579 0.0000
-0.4737 0.2632 0.0000
-0.4737 0.3684 0.0000
-0.4737 0.4737 0.0000
-0.4737 0.5789 0.0000
-0.4737 0.6842 0.0000
-0.4737 0.7895 0.0000
-0.4737 0.8947 0.0000
-0.4737 1.0000 0.0000
-0.3684 -0.8947 0.0000
-0.3684 -0.7895 0.0000
-0.3684 -0.6842 0.0000
-0.3684 -0.5789 0.0000
-0.3684 -0.4737 0.0000
-0.3684 -0.3684 0.0000
-0.3684 -0.2632 0.0000
-0.3684 -0.1579 0.0000
-0.3684 -0.0526 0.0000
-0.3684 0.0526 0.0000
-0.3684 0.1579 0.0000
-0.3684 0.2632 0.0000
-0.3684 0.3684 0.0000
-0.3684 0.4737 0.0000
-0.3684 0.5789 0.0000
-0.3684 0.6842 0.0000
-0.3684 0.7895 0.0000
-0.3684 0.8947 0.0000
-0.3684 1.0000 0.0000
-0.2632 -0.8947 0.0000
-0.2632 -0.7895 0.0000
-0.2632 -0.6842 0.0000
-0.2632 -0.5789 0.0000
-0.2632 -0.4737 0.0000
-0.2632 -0.3684 0.0000
-0.2632 -0.2632 0.0000
-0.2632 -0.1579 0.0000
-0.2632 -0.0526 0.0000
-0.2632 0.0526 0.0000
-0.2632 0.1579 0.0000
-0.2632 0.2632 0.0000
-0.2632 0.3684 0.0000
-0.2632 0.4737 0.0000
-0.2632 0.5789 0.0000
-0.2632 0.6842 0.0000
-0.2632 0.7895 0.0000
-0.2632 0.8947 0.0000
-0.2632 1.0000 0.0000
-0.1579 -0.8947 0.0000
-0.1579 -0.7895 0.0000
-0.1579 -0.6842 0.0000
-0.1579 -0.5789 0.0000
-0.1579 -0.4737 0.0000
-0.1579 -0.3684 0.0000
-0.1579 -0.2632 0.0000
-0.1579 -0.1579 0.0000
-0.1579 -0.0526 0.0000
-0.1579 0.1579 0.0000
-0.1579 0.2632 0.0000
-0.1579 0.3684 0.0000
-0.1579 0.4737 0.0000
-0.1579 0.5789 0.0000
-0.1579 0.6842 0.0000
-0.1579 0.7895 0.0000
-0.1579 0.8947 0.0000
-0.1579 1.0000 0.0000
-0.0526 -0.8947 0.0000
-0.0526 -0.7895 0.0000
-0.0526 -0.6842 0.0000
-0.0526 -0.5789 0.0000
-0.0526 -0.4737 0.0000
-0.0526 -0.3684 0.0000
-0.0526 -0.2632 0.0000
-0.0526 -0.1579 0.0000
-0.0526 0.2632 0.0000
-0.0526 0.3684 0.0000
-0.0526 0.4737 0.0000
-0.0526 0.5789 0.0000
-0.0526 0.6842 0.0000
-0.0526 0.7895 0.0000
-0.0526 0.8947 0.0000
-0.0526 1.0000 0.0000
0.0526 -0.8947 0.0000
0.0526 -0.7895 0.0000
0.0526 -0.6842 0.0000
0.0526 -0.5789 0.0000
0.0526 -0.4737 0.0000
0.0526 -0.3684 0.0000
0.0526 -0.2632 0.0000
0.0526 -0.1579 0.0000
0.0526 0.2632 0.0000
0.0526 0.3684 0.0000
0.0526 0.4737 0.0000
0.0526 0.5789 0.0000
0.0526 0.6842 0.0000
0.0526 0.7895 0.0000
0.0526 0.8947 0.0000
0.0526 1.0000 0.0000
0.1579 -0.8947 0.0000
0.1579 -0.7895 0.0000
0.1579 -0.6842 0.0000
0.1579 -0.5789 0.0000
0.1579 -0.4737 0.0000
0.1579 -0.3684 0.0000
0.1579 -0.2632 0.0000
0.1579 -0.1579 0.0000
0.1579 -0.0526 0.0000
0.1579 0.0526 0.0000
0.1579 0.1579 0.0000
0.1579 0.2632 0.0000
0.1579 0.3684 0.0000
0.1579 0.4737 0.0000
0.1579 0.5789 0.0000
0.1579 0.6842 0.0000
0.1579 0.7895 0.0000
0.1579 0.8947 0.0000
0.1579 1.0000 0.0000
0.2632 -0.8947 0.0000
0.2632 -0.7895 0.0000
0.2632 -0.6842 0.0000
0.2632 -0.5789 0.0000
0.2632 -0.4737 0.0000
0.2632 -0.3684 0.0000
0.2632 -0.2632 0.0000
0.2632 -0.1579 0.0000
0.2632 -0.0526 0.0000
0.2632 0.0526 0.0000
0.2632 0.1579 0.0000
0.2632 0.2632 0.0000
0.2632 0.3684 0.0000
0.2632 0.4737 0.0000
0.2632 0.5789 0.0000
0.2632 0.6842 0.0000
0.2632 0.7895 0.0000
0.2632 0.8947 0.0000
0.2632 1.0000 0.0000
0.3684 -0.8947 0.0000
0.3684 -0.7895 0.0000
0.3684 -0.6842 0.0000
0.3684 -0.5789 0.0000
0.3684 -0.4737 0.0000
0.3684 -0.3684 0.0000
0.3684 -0.2632 0.0000
0.3684 -0.1579 0.0000
0.3684 -0.0526 0.0000
0.3684 0.0526 0.0000
0.3684 0.1579 0.0000
0.3684 0.2632 0.0000
0.3684 0.3684 0.0000
0.3684 0.4737 0.0000
0.3684 0.5789 0.0000
0.3684 0.6842 0.0000
0.3684 0.7895 0.0000
0.3684 0.8947 0.0000
0.3684 1.0000 0.0000
0.4737 -0.8947 0.0000
0.4737 -0.7895 0.0000
0.4737 -0.6842 0.0000
0.4737 -0.5789 0.0000
0.4737 -0.4737 0.0000
0.4737 -0.3684 0.0000
0.4737 -0.2632 0.0000
0.4737 -0.1579 0.0000
0.4737 -0.0526 0.0000
0.4737 0.0526 0.0000
0.4737 0.1579 0.0000
0.4737 0.2632 0.0000
0.4737 0.3684 0.0000
0.4737 0.4737 0.0000
0.4737 0.5789 0.0000
0.4737 0.6842 0.0000
0.4737 0.7895 0.0000
0.4737 0.8947 0.0000
0.4737 1.0000 0.0000
0.5789 -0.8947 0.0000
0.5789 -0.7895 0.0000
0.5789 -0.6842 0.0000
0.5789 -0.5789 0.0000
0.5789 -0.4737 0.0000
0.5789 -0.3684 0.0000
0.5789 -0.2632 0.0000
0.5789 -0.1579 0.0000
0.5789 -0.0526 0.0000
0.5789 0.0526 0.0000
0.5789 0.1579 0.0000
0.5789 0.2632 0.0000
0.5789 0.3684 0.0000
0.5789 0.4737 0.0000
0.5789 0.5789 0.0000
0.5789 0.6842 0.0000
0.5789 0.7895 0.0000
0.5789 0.8947 0.0000
0.5789 1.0000 0.0000
0.6842 -0.8947 0.0000
0.6842 -0.7895 0.0000
0.6842 -0.6842 0.0000
0.6842 -0.5789 0.0000
0.6842 -0.4737 0.0000
0.6842 -0.3684 0.0000
0.6842 -0.2632 0.0000
0.6842 -0.1579 0.0000
0.6842 -0.0526 0.0000
0.6842 0.0526 0.0000
0.6842 0.1579 0.0000
0.6842 0.2632 0.0000
0.6842 0.3684 0.0000
0.6842 0.4737 0.0000
0.6842 0.5789 0.0000
0.6842 0.6842 0.0000
0.6842 0.7895 0.0000
0.6842 0.8947 0.0000
0.6842 1.0000 0.0000
0.7895 -0.8947 0.0000
0.7895 -0.7895 0.0000
0.7895 -0.6842 0.0000
0.7895 -0.5789 0.0000
0.7895 -0.4737 0.0000
0.7895 -0.3684 0.0000
0.7895 -0.2632 0.0000
0.7895 -0.1579 0.0000
0.7895 -0.0526 0.0000
0.7895 0.0526 0.0000
0.7895 0.1579 0.0000
0.7895 0.2632 0.0000
0.7895 0.3684 0.0000
0.7895 0.4737 0.0000
0.7895 0.5789 0.0000
0.7895 0.6842 0.0000
0.7895 0.7895 0.0000
0.7895 0.8947 0.0000
0.7895 1.0000 0.0000
0.8947 -0.8947 0.0000
0.8947 -0.7895 0.0000
0.8947 -0.6842 0.0000
0.8947 -0.5789 0.0000
0.8947 -0.4737 0.0000
0.8947 -0.3684 0.0000
0.8947 -0.2632 0.0000
0.8947 -0.1579 0.0000
0.8947 -0.0526 0.0000
0.8947 0.0526 0.0000
0.8947 0.1579 0.0000
0.8947 0.2632 0.0000
0.8947 0.3684 0.0000
0.8947 0.4737 0.0000
0.8947 0.5789 0.0000
0.8947 0.6842 0.0000
0.8947 0.7895 0.0000
0.8947 0.8947 0.0000
0.8947 1.0000 0.0000
-0.1579 0.0526 0.0000
-0.0526 0.1579 0.0000
1.0000 -0.8947 0.0000
1.0000 -0.7895 0.0000
1.0000 -0.6842 0.0000
1.0000 -0.5789 0.0000
1.0000 -0.4737 0.0000
1.0000 -0.3684 0.0000
1.0000 -0.2632 0.0000
1.0000 -0.1579 0.0000
1.0000 -0.0526 0.0000
1.0000 0.0526 0.0000
1.0000 0.1579 0.0000
1.0000 0.2632 0.0000
1.0000 0.3684 0.0000
1.0000 0.4737 0.0000
1.0000 0.5789 0.0000
1.0000 0.6842 0.0000
1.0000 0.7895 0.0000
1.0000 0.8947 0.0000
1.0000 1.0000 0.0000
-0.8947 -1.0000 0.0000
-0.7895 -1.0000 0.0000
-0.6842 -1.0000 0.0000
-0.5789 -1.0000 0.0000
-0.4737 -1.0000 0.0000
-0.3684 -1.0000 0.0000
-0.2632 -1.0000 0.0000
-0.1579 -1.0000 0.0000
-0.0526 -1.0000 0.0000
0.0526 -1.0000 0.0000
0.0526 0.1579 0.0000
0.1579 -1.0000 0.0000
0.2632 -1.0000 0.0000
0.3684 -1.0000 0.0000
0.4737 -1.0000 0.0000
0.5789 -1.0000 0.0000
0.6842 -1.0000 0.0000
0.7895 -1.0000 0.0000
0.8947 -1.0000 0.0000
1.0000 -1.0000 0.0000
-1.0000 -1.0000 0.0000
1.1053 -0.8947 0.0000
1.1053 -0.7895 0.0000
1.1053 -0.6842 0.0000
1.1053 -0.5789 0.0000
1.1053 -0.4737 0.0000
1.1053 -0.3684 0.0000
1.1053 -0.2632 0.0000
1.1053 -0.1579 0.0000
1.1053 -0.0526 0.0000
1.1053 0.0526 0.0000
1.1053 0.1579 0.0000
1.1053 0.2632 0.0000
1.1053 0.3684 0.0000
1.1053 0.4737 0.0000
1.1053 0.5789 0.0000
1.1053 0.6842 0.0000
1.1053 0.7895 0.0000
1.1053 0.8947 0.0000
1.1053 1.0000 0.0000
1.2105 -0.8947 0.0000
1.2105 -0.7895 0.0000
1.2105 -0.6842 0.0000
1.2105 -0.5789 0.0000
1.2105 -0.4737 0.0000
1.2105 -0.3684 0.0000
1.2105 -0.2632 0.0000
1.2105 -0.1579 0.0000
1.2105 -0.0526 0.0000
1.2105 0.0526 0.0000
1.2105 0.1579 0.0000
1.2105 0.2632 0.0000
1.2105 0.3684 0.0000
1.2105 0.4737 0.0000
1.2105 0.5789 0.0000
1.2105 0.6842 0.0000
1.2105 0.7895 0.0000
1.2105 0.8947 0.0000
1.2105 1.0000 0.0000
1.3158 -0.8947 0.0000
1.3158 -0.7895 0.0000
1.3158 -0.6842 0.0000
1.3158 -0.5789 0.0000
1.3158 -0.4737 0.0000
1.3158 -0.3684 0.0000
1.3158 -0.2632 0.0000
[...]
         <PointData>
            <DataArray Name="fValues" NumberOfComponents="3" format="ascii" type="Float64">
 2.57741e-16  2.57741e-16        00000 
-8.63089e-17  2.15772e-17        00000 
 3.27868e-16  3.44320e-16        00000 
 8.63089e-17  2.58927e-16        00000 
 2.18915e-16  3.17189e-16        00000 
-3.23658e-17  1.07886e-16        00000 
 2.44868e-17 -7.61811e-17        00000 
 7.55203e-17  4.31544e-17        00000 
-1.55884e-17  3.93098e-17        00000 
 6.47317e-17  1.40252e-16        00000 
-1.30597e-16  8.70646e-17        00000 
 5.39430e-18  3.88390e-16        00000 
-2.38231e-16 -9.21747e-17        00000 
-1.51041e-16  2.15772e-16        00000 
-6.68938e-17  7.07412e-17        00000 
-1.51041e-16 -4.74699e-16        00000 
-2.07780e-16  9.04453e-16        00000 
-1.19693e-16 -2.17623e-17        00000 
 4.86627e-16  4.62144e-16        00000 
 3.20081e+00  3.29204e+00        00000 
 2.64149e+00  2.75045e+00        00000 
 2.23245e+00  2.32183e+00        00000 
 1.86023e+00  2.00528e+00        00000 
 1.50867e+00  1.75705e+00        00000 
 1.16693e+00  1.56701e+00        00000 
 8.30591e-01  1.42859e+00        00000 
 4.97256e-01  1.33817e+00        00000 
 1.65531e-01  1.29351e+00        00000 
-1.65670e-01  1.29354e+00        00000 
-4.97372e-01  1.33824e+00        00000 
-8.30668e-01  1.42870e+00        00000 
-1.16696e+00  1.56711e+00        00000 
-1.50870e+00  1.75715e+00        00000 
-1.85992e+00  2.00501e+00        00000 
-2.23337e+00  2.32211e+00        00000 
-2.63152e+00  2.73153e+00        00000 
-3.20690e+00  3.28828e+00        00000 
-5.42744e+00  4.60024e+00        00000 
 6.83410e+00  7.04961e+00        00000 
 5.55949e+00  6.00678e+00        00000 
 4.69141e+00  5.20070e+00        00000 
 3.90121e+00  4.56655e+00        00000 
 3.15924e+00  4.07024e+00        00000 
 2.44086e+00  3.69041e+00        00000 
 1.73583e+00  3.41436e+00        00000 
 1.03855e+00  3.23432e+00        00000 
 3.45595e-01  3.14552e+00        00000 
-3.45916e-01  3.14558e+00        00000 
-1.03881e+00  3.23447e+00        00000 
-1.73600e+00  3.41455e+00        00000 
-2.44091e+00  3.69061e+00        00000 
-3.15927e+00  4.07044e+00        00000 
-3.90057e+00  4.56683e+00        00000 
-4.69361e+00  5.20201e+00        00000 
-5.53126e+00  6.01602e+00        00000 
-6.87994e+00  7.07227e+00        00000 
-9.61874e+00  8.27446e+00        00000 
 1.04361e+01  1.08379e+01        00000 
 8.68977e+00  9.58920e+00        00000 
 7.34159e+00  8.47252e+00        00000 
 6.10622e+00  7.56065e+00        00000 
 4.94199e+00  6.83787e+00        00000 
 3.81565e+00  6.28148e+00        00000 
 2.71165e+00  5.87632e+00        00000 
 1.62140e+00  5.61209e+00        00000 
 5.39326e-01  5.48186e+00        00000 
-5.39885e-01  5.48194e+00        00000 
-1.62184e+00  5.61230e+00        00000 
-2.71190e+00  5.87660e+00        00000 
-3.81571e+00  6.28174e+00        00000 
-4.94196e+00  6.83807e+00        00000 
-6.10568e+00  7.56094e+00        00000 
-7.34345e+00  8.47272e+00        00000 
-8.66821e+00  9.59648e+00        00000 
-1.04828e+01  1.08610e+01        00000 
-1.35086e+01  1.21279e+01        00000 
 1.41112e+01  1.47485e+01        00000 
 1.19445e+01  1.33597e+01        00000 
 1.01331e+01  1.20122e+01        00000 
 8.44376e+00  1.08790e+01        00000 
 6.83752e+00  9.96573e+00        00000 
 5.27887e+00  9.25601e+00        00000 
 3.74982e+00  8.73688e+00        00000 
 2.24070e+00  8.39808e+00        00000 
 7.44908e-01  8.23137e+00        00000 
-7.45791e-01  8.23149e+00        00000 
-2.24137e+00  8.39839e+00        00000 
-3.75015e+00  8.73725e+00        00000 
-5.27889e+00  9.25633e+00        00000 
-6.83738e+00  9.96592e+00        00000 
-8.44315e+00  1.08792e+01        00000 
-1.01345e+01  1.20117e+01        00000 
-1.19251e+01  1.33631e+01        00000 
-1.41519e+01  1.47736e+01        00000 
-1.73762e+01  1.60791e+01        00000 
 1.78187e+01  1.87399e+01        00000 
 1.52686e+01  1.72557e+01        00000 
 1.30174e+01  1.57402e+01        00000 
 1.08790e+01  1.44403e+01        00000 
 8.82219e+00  1.33762e+01        00000 
 6.81468e+00  1.25406e+01        00000 
 4.83929e+00  1.19260e+01        00000 
 2.88884e+00  1.15251e+01        00000 
 9.59320e-01  1.13288e+01        00000 
-9.60676e-01  1.13290e+01        00000 
-2.88979e+00  1.15255e+01        00000 
-4.83965e+00  1.19265e+01        00000 
-6.81455e+00  1.25410e+01        00000 
-8.82186e+00  1.33763e+01        00000 
-1.08783e+01  1.44403e+01        00000 
-1.30184e+01  1.57394e+01        00000 
-1.52515e+01  1.72556e+01        00000 
-1.78528e+01  1.87658e+01        00000 
-2.12533e+01  2.01000e+01        00000 
 2.15446e+01  2.27944e+01        00000 
 1.86330e+01  2.12441e+01        00000 
 1.59607e+01  1.96094e+01        00000 
 1.33819e+01  1.81883e+01        00000 
 1.08735e+01  1.70112e+01        00000 
 8.40782e+00  1.60767e+01        00000 
 5.96884e+00  1.53842e+01        00000 
 3.55569e+00  1.49335e+01        00000 
 1.17721e+00  1.47169e+01        00000 
-1.17929e+00  1.47170e+01        00000 
-3.55704e+00  1.49344e+01        00000 
-5.96907e+00  1.53847e+01        00000 
-8.40739e+00  1.60771e+01        00000 
-1.08729e+01  1.70112e+01        00000 
-1.33811e+01  1.81882e+01        00000 
-1.59614e+01  1.96081e+01        00000 
-1.86180e+01  2.12414e+01        00000 
-2.15725e+01  2.28207e+01        00000 
-2.51367e+01  2.41744e+01        00000 
 2.52795e+01  2.68992e+01        00000 
 2.20202e+01  2.53053e+01        00000 
 1.89400e+01  2.35897e+01        00000 
 1.59291e+01  2.20862e+01        00000 
 1.29717e+01  2.08307e+01        00000 
 1.00465e+01  1.98247e+01        00000 
 7.13288e+00  1.90661e+01        00000 
 4.22970e+00  1.85709e+01        00000 
 1.38476e+00  1.83443e+01        00000 
-1.38816e+00  1.83459e+01        00000 
-4.23134e+00  1.85711e+01        00000 
-7.13292e+00  1.90675e+01        00000 
-1.00451e+01  1.98246e+01        00000 
-1.29707e+01  2.08302e+01        00000 
-1.59282e+01  2.20858e+01        00000 
-1.89405e+01  2.35882e+01        00000 
-2.20074e+01  2.53005e+01        00000 
-2.53015e+01  2.69254e+01        00000 
-2.90232e+01  2.82923e+01        00000 
 2.90185e+01  3.10464e+01        00000 
 2.54196e+01  2.94270e+01        00000 
 2.19397e+01  2.76620e+01        00000 
 1.85025e+01  2.61087e+01        00000 
 1.50988e+01  2.48070e+01        00000 
 1.17152e+01  2.37610e+01        00000 
 8.33810e+00  2.29641e+01        00000 
 4.91704e+00  2.23985e+01        00000 
 1.53928e+00  2.21485e+01        00000 
-4.92266e+00  2.24063e+01        00000 
-8.33389e+00  2.29633e+01        00000 
-1.17134e+01  2.37597e+01        00000 
-1.50977e+01  2.48062e+01        00000 
-1.85017e+01  2.61082e+01        00000 
-2.19400e+01  2.76603e+01        00000 
-2.54089e+01  2.94205e+01        00000 
-2.90349e+01  3.10721e+01        00000 
-3.29108e+01  3.24473e+01        00000 
 3.27587e+01  3.52311e+01        00000 
 2.88244e+01  3.36012e+01        00000 
 2.49491e+01  3.18136e+01        00000 
 2.10882e+01  3.02385e+01        00000 
 1.72385e+01  2.89187e+01        00000 
 1.33953e+01  2.78628e+01        00000 
 9.55189e+00  2.70748e+01        00000 
 5.68799e+00  2.65482e+01        00000 
-9.54858e+00  2.70703e+01        00000 
-1.33938e+01  2.78615e+01        00000 
-1.72376e+01  2.89181e+01        00000 
-2.10875e+01  3.02381e+01        00000 
-2.49492e+01  3.18118e+01        00000 
-2.88159e+01  3.35936e+01        00000 
-3.27695e+01  3.52558e+01        00000 
-3.67988e+01  3.66355e+01        00000 
 3.64984e+01  3.94506e+01        00000 
 3.22302e+01  3.78239e+01        00000 
 2.79605e+01  3.60374e+01        00000 
 2.36763e+01  3.44647e+01        00000 
 1.93796e+01  3.31485e+01        00000 
 1.50726e+01  3.20992e+01        00000 
 1.07577e+01  3.13241e+01        00000 
 6.44185e+00  3.08304e+01        00000 
-1.07550e+01  3.13275e+01        00000 
-1.50712e+01  3.20999e+01        00000 
-1.93788e+01  3.31487e+01        00000 
-2.36757e+01  3.44646e+01        00000 
-2.79603e+01  3.60358e+01        00000 
-3.22240e+01  3.78154e+01        00000 
-3.65038e+01  3.94739e+01        00000 
-4.06869e+01  4.08548e+01        00000 
 4.02363e+01  4.37049e+01        00000 
 3.56337e+01  4.20944e+01        00000 
 3.09681e+01  4.03324e+01        00000 
 2.62595e+01  3.87851e+01        00000 
 2.15153e+01  3.74921e+01        00000 
 1.67462e+01  3.64599e+01        00000 
 1.19620e+01  3.56864e+01        00000 
 7.19615e+00  3.51567e+01        00000 
 2.45512e+00  3.48994e+01        00000 
-2.45713e+00  3.49057e+01        00000 
-7.20295e+00  3.51500e+01        00000 
-1.19578e+01  3.56875e+01        00000 
-1.67445e+01  3.64609e+01        00000 
-2.15143e+01  3.74926e+01        00000 
-2.62588e+01  3.87852e+01        00000 
-3.09676e+01  4.03309e+01        00000 
-3.56300e+01  4.20854e+01        00000 
-4.02363e+01  4.37262e+01        00000 
-4.45753e+01  4.51050e+01        00000 
 4.39710e+01  4.79959e+01        00000 
 3.90310e+01  4.64163e+01        00000 
 3.39652e+01  4.47041e+01        00000 
 2.88293e+01  4.32078e+01        00000 
 2.36378e+01  4.19615e+01        00000 
 1.84097e+01  4.09673e+01        00000 
 1.31639e+01  4.02212e+01        00000 
 7.91556e+00  3.97258e+01        00000 
 2.64928e+00  3.94896e+01        00000 
-2.65157e+00  3.94886e+01        00000 
-7.91754e+00  3.97256e+01        00000 
-1.31640e+01  4.02198e+01        00000 
-1.84084e+01  4.09674e+01        00000 
-2.36369e+01  4.19617e+01        00000 
-2.88287e+01  4.32078e+01        00000 
-3.39644e+01  4.47025e+01        00000 
-3.90301e+01  4.64069e+01        00000 
-4.39656e+01  4.80145e+01        00000 
-4.84640e+01  4.93878e+01        00000 
 4.76996e+01  5.23285e+01        00000 
 4.24160e+01  5.07970e+01        00000 
 3.69422e+01  4.91647e+01        00000 
 3.13741e+01  4.77502e+01        00000 
 2.57341e+01  4.65798e+01        00000 
 2.00492e+01  4.56514e+01        00000 
 1.43388e+01  4.49607e+01        00000 
 8.61331e+00  4.45055e+01        00000 
 2.87371e+00  4.42814e+01        00000 
-2.87527e+00  4.42813e+01        00000 
-8.61452e+00  4.45048e+01        00000 
-1.43391e+01  4.49601e+01        00000 
-2.00487e+01  4.56510e+01        00000 
-2.57334e+01  4.65797e+01        00000 
-3.13736e+01  4.77500e+01        00000 
-3.69412e+01  4.91631e+01        00000 
-4.24183e+01  5.07875e+01        00000 
-4.76889e+01  5.23436e+01        00000 
-5.23525e+01  5.37070e+01        00000 
 5.14170e+01  5.67108e+01        00000 
 4.57785e+01  5.52493e+01        00000 
 3.98842e+01  5.37344e+01        00000 
 3.38766e+01  5.24392e+01        00000 
 2.77868e+01  5.13789e+01        00000 
 2.16478e+01  5.05452e+01        00000 
 1.54798e+01  4.99291e+01        00000 
 9.29494e+00  4.95236e+01        00000 
 3.09938e+00  4.93229e+01        00000 
-3.10042e+00  4.93227e+01        00000 
-9.29570e+00  4.95232e+01        00000 
-1.54801e+01  4.99286e+01        00000 
-2.16476e+01  5.05448e+01        00000 
-2.77864e+01  5.13786e+01        00000 
-3.38763e+01  5.24389e+01        00000 
-3.98829e+01  5.37328e+01        00000 
-4.57848e+01  5.52401e+01        00000 
-5.14010e+01  5.67215e+01        00000 
-5.62396e+01  5.80691e+01        00000 
 5.51135e+01  6.11552e+01        00000 
 4.91013e+01  5.97930e+01        00000 
 4.27685e+01  5.84438e+01        00000 
 3.63132e+01  5.73137e+01        00000 
 2.97750e+01  5.64019e+01        00000 
 2.31901e+01  5.56921e+01        00000 
 1.65787e+01  5.51706e+01        00000 
 9.95235e+00  5.48283e+01        00000 
 3.31809e+00  5.46587e+01        00000 
-3.31877e+00  5.46586e+01        00000 
-9.95286e+00  5.48279e+01        00000 
-1.65789e+01  5.51702e+01        00000 
-2.31901e+01  5.56916e+01        00000 
-2.97747e+01  5.64016e+01        00000 
-3.63132e+01  5.73133e+01        00000 
-4.27669e+01  5.84421e+01        00000 
-4.91125e+01  5.97845e+01        00000 
-5.50920e+01  6.11602e+01        00000 
-6.01226e+01  6.24836e+01        00000 
 5.87713e+01  6.56869e+01        00000 
 5.23542e+01  6.44647e+01        00000 
 4.55605e+01  6.33437e+01        00000 
 3.86528e+01  6.24330e+01        00000 
 3.16745e+01  6.17102e+01        00000 
 2.46593e+01  6.11526e+01        00000 
 1.76239e+01  6.07451e+01        00000 
 1.05777e+01  6.04781e+01        00000 
 3.52625e+00  6.03459e+01        00000 
-3.52683e+00  6.03458e+01        00000 
-1.05782e+01  6.04778e+01        00000 
-1.76242e+01  6.07448e+01        00000 
-2.46595e+01  6.11523e+01        00000 
-3.16746e+01  6.17099e+01        00000 
-3.86533e+01  6.24326e+01        00000 
-4.55588e+01  6.33422e+01        00000 
-5.23725e+01  6.44575e+01        00000 
-5.87421e+01  6.56846e+01        00000 
-6.40015e+01  6.69722e+01        00000 
 6.23562e+01  7.03229e+01        00000 
 5.54790e+01  6.93017e+01        00000 
 4.82069e+01  6.84967e+01        00000 
 4.08564e+01  6.78641e+01        00000 
 3.34579e+01  6.73690e+01        00000 
 2.60365e+01  6.69891e+01        00000 
 1.86030e+01  6.67120e+01        00000 
 1.11634e+01  6.65305e+01        00000 
 3.72082e+00  6.64407e+01        00000 
-3.72260e+00  6.64406e+01        00000 
-1.11652e+01  6.65304e+01        00000 
-1.86049e+01  6.67118e+01        00000 
-2.60385e+01  6.69889e+01        00000 
-3.34601e+01  6.73688e+01        00000 
-4.08595e+01  6.78639e+01        00000 
-4.82076e+01  6.84952e+01        00000 
-5.55105e+01  6.92972e+01        00000 
-6.23113e+01  7.03092e+01        00000 
-6.79138e+01  7.15287e+01        00000 
 6.58056e+01  7.53320e+01        00000 
 5.83317e+01  7.45974e+01        00000 
 5.06176e+01  7.41491e+01        00000 
 4.28590e+01  7.38175e+01        00000 
 3.50785e+01  7.35583e+01        00000 
 2.72878e+01  7.33594e+01        00000 
 1.94919e+01  7.32139e+01        00000 
 1.16934e+01  7.31184e+01        00000 
 3.89375e+00  7.30709e+01        00000 
-3.90645e+00  7.30705e+01        00000 
-1.17067e+01  7.31172e+01        00000 
-1.95063e+01  7.32119e+01        00000 
-2.73040e+01  7.33565e+01        00000 
-3.50972e+01  7.35545e+01        00000 
-4.28817e+01  7.38123e+01        00000 
-5.06415e+01  7.41429e+01        00000 
-5.84017e+01  7.45806e+01        00000 
-6.57459e+01  7.52947e+01        00000 
-7.22101e+01  7.65297e+01        00000 
-1.54339e+00  2.21398e+01        00000 
-5.67127e+00  2.65367e+01        00000 
 6.90965e+01  8.19837e+01        00000 
 6.09472e+01  8.14662e+01        00000 
 5.28239e+01  8.12093e+01        00000 
 4.46960e+01  8.10400e+01        00000 
 3.65682e+01  8.09055e+01        00000 
 2.84406e+01  8.08023e+01        00000 
 2.03136e+01  8.07270e+01        00000 
 1.21875e+01  8.06778e+01        00000 
 4.06209e+00  8.06535e+01        00000 
-4.06306e+00  8.06534e+01        00000 
-1.21885e+01  8.06776e+01        00000 
-2.03148e+01  8.07267e+01        00000 
-2.84419e+01  8.08019e+01        00000 
-3.65698e+01  8.09050e+01        00000 
-4.46977e+01  8.10392e+01        00000 
-5.28265e+01  8.12114e+01        00000 
-6.09503e+01  8.14508e+01        00000 
-6.90568e+01  8.19406e+01        00000 
-7.72166e+01  8.32380e+01        00000 
 5.41850e+00  4.59770e+00        00000 
 9.62049e+00  8.26678e+00        00000 
 1.35095e+01  1.21244e+01        00000 
 1.73770e+01  1.60800e+01        00000 
 2.12556e+01  2.01029e+01        00000 
 2.51403e+01  2.41790e+01        00000 
 2.90280e+01  2.82982e+01        00000 
 3.29166e+01  3.24544e+01        00000 
 3.68054e+01  3.66434e+01        00000 
 4.06942e+01  4.08633e+01        00000 
-6.42281e+00  3.08398e+01        00000 
 4.45831e+01  4.51139e+01        00000 
 4.84722e+01  4.93969e+01        00000 
 5.23611e+01  5.37161e+01        00000 
 5.62483e+01  5.80779e+01        00000 
 6.01312e+01  6.24915e+01        00000 
 6.40086e+01  6.69791e+01        00000 
 6.79115e+01  7.15362e+01        00000 
 7.21579e+01  7.64791e+01        00000 
 7.72003e+01  8.32680e+01        00000 
-5.21139e-16 -5.21139e-16        00000 
 7.23112e+01  9.16494e+01        00000 
 6.35166e+01  9.09844e+01        00000 
 5.49884e+01  9.05655e+01        00000 
 4.64979e+01  9.02585e+01        00000 
 3.80283e+01  9.00185e+01        00000 
 2.95693e+01  8.98362e+01        00000 
 2.11172e+01  8.97047e+01        00000 
 1.26703e+01  8.96199e+01        00000 
 4.22683e+00  8.95785e+01        00000 
-4.21520e+00  8.95788e+01        00000 
-1.26582e+01  8.96207e+01        00000 
-2.11041e+01  8.97062e+01        00000 
-2.95545e+01  8.98383e+01        00000 
-3.80114e+01  9.00217e+01        00000 
-4.64772e+01  9.02626e+01        00000 
-5.49676e+01  9.05740e+01        00000 
-6.34513e+01  9.09897e+01        00000 
-7.23194e+01  9.16655e+01        00000 
-8.21507e+01  9.27941e+01        00000 
 7.55337e+01  1.03020e+02        00000 
 6.62149e+01  1.02066e+02        00000 
 5.72659e+01  1.01315e+02        00000 
 4.83876e+01  1.00725e+02        00000 
 3.95537e+01  1.00264e+02        00000 
 3.07429e+01  9.99142e+01        00000 
 2.19472e+01  9.96623e+01        00000 
 1.31628e+01  9.94999e+01        00000 
 4.38627e+00  9.94205e+01        00000 
-4.38739e+00  9.94203e+01        00000 
-1.31641e+01  9.94994e+01        00000 
-2.19487e+01  9.96616e+01        00000 
-3.07448e+01  9.99134e+01        00000 
-3.95561e+01  1.00263e+02        00000 
-4.83899e+01  1.00724e+02        00000 
-5.72713e+01  1.01315e+02        00000 
-6.61969e+01  1.02071e+02        00000 
-7.55714e+01  1.03036e+02        00000 
-8.63340e+01  1.04169e+02        00000 
 7.89140e+01  1.14741e+02        00000 
 6.91414e+01  1.13572e+02        00000 
 5.97407e+01  1.12527e+02        00000 
 5.04436e+01  1.11674e+02        00000 
 4.12119e+01  1.11000e+02        00000 
 3.20167e+01  1.10483e+02        00000 
 2.28468e+01  1.10111e+02        00000 
 1.36977e+01  1.09872e+02        00000 
 4.56418e+00  1.09756e+02        00000 
-4.56320e+00  1.09756e+02        00000 
-1.36968e+01  1.09872e+02        00000 
-2.28462e+01  1.10111e+02        00000 
-3.20161e+01  1.10483e+02        00000 
-4.12114e+01  1.10999e+02        00000 
-5.04426e+01  1.11674e+02        00000 
-5.97418e+01  1.12527e+02        00000 
-6.91198e+01  1.13579e+02        00000 
-7.89586e+01  1.14763e+02        00000 
-8.99179e+01  1.15943e+02        00000 
 8.23362e+01  1.26533e+02        00000 
 7.21735e+01  1.25236e+02        00000 
 6.23404e+01  1.23975e+02        00000 
 5.26181e+01  1.22913e+02        00000 
 4.29707e+01  1.22059e+02        00000 
 3.33673e+01  1.21397e+02        00000 
 2.37971e+01  1.20920e+02        00000 
 1.42588e+01  1.20614e+02        00000 
 4.74919e+00  1.20467e+02        00000 
-4.74817e+00  1.20467e+02        00000 
-1.42582e+01  1.20614e+02        00000 
-2.37969e+01  1.20919e+02        00000 
-3.33673e+01  1.21397e+02        00000 
-4.29708e+01  1.22058e+02        00000 
-5.26178e+01  1.22913e+02        00000 
-6.23419e+01  1.23974e+02        00000 
-7.21555e+01  1.25239e+02        00000 
-8.23739e+01  1.26556e+02        00000 
-9.35286e+01  1.27774e+02        00000 
 8.57921e+01  1.38408e+02        00000 
 7.52725e+01  1.37021e+02        00000 
 6.50295e+01  1.35602e+02        00000 
 5.48874e+01  1.34382e+02        00000 
 4.48162e+01  1.33382e+02        00000 
 3.47864e+01  1.32598e+02        00000 
 2.47899e+01  1.32029e+02        00000 
 1.48371e+01  1.31669e+02        00000 
 4.93725e+00  1.31501e+02        00000 
-4.93550e+00  1.31500e+02        00000 
-1.48362e+01  1.31668e+02        00000 
-2.47898e+01  1.32028e+02        00000 
-3.47866e+01  1.32598e+02        00000 
-4.48164e+01  1.33382e+02        00000 
-5.48872e+01  1.34382e+02        00000 
-6.50306e+01  1.35601e+02        00000 
-7.52565e+01  1.37020e+02        00000 
-8.58239e+01  1.38432e+02        00000 
-9.71411e+01  1.39676e+02        00000 
 8.92649e+01  1.50341e+02        00000 
 7.84097e+01  1.48894e+02        00000 
 6.77753e+01  1.47364e+02        00000 
 5.72235e+01  1.46030e+02        00000 
 4.67301e+01  1.44920e+02        00000 
 3.62653e+01  1.44033e+02        00000 