<?xml version="1.0" encoding="utf-8"?>
<VTKFile byte_order="LittleEndian" type="UnstructuredGrid" version="0.1">
   <UnstructuredGrid>
      <Piece NumberOfCells="1584" NumberOfPoints="980">
         <Points>
            <DataArray Name="Points" NumberOfComponents="3" format="ascii" type="Float32">
-1.0000 -0.8947 0.0000
-1.0000 -0.7895 0.0000
-1.0000 -0.6842 0.0000
-1.0000 -0.5789 0.0000
-1.0000 -0.4737 0.0000
-1.0000 -0.3684 0.0000
-1.0000 -0.2632 0.0000
-1.0000 -0.1579 0.0000
-1.0000 -0.0526 0.0000
-1.0000 0.0526 0.0000
-1.0000 0.1579 0.0000
-1.0000 0.2632 0.0000
-1.0000 0.3684 0.0000
-1.0000 0.4737 0.0000
-1.0000 0.5789 0.0000
-1.0000 0.6842 0.0000
-1.0000 0.7895 0.0000
-1.0000 0.8947 0.0000
-1.0000 1.0000 0.0000
-0.8947 -0.8947 0.0000
-0.8947 -0.7895 0.0000
-0.8947 -0.6842 0.0000
-0.8947 -0.5789 0.0000
-0.8947 -0.4737 0.0000
-0.8947 -0.3684 0.0000
-0.8947 -0.2632 0.0000
-0.8947 -0.1579 0.0000
-0.8947 0.2632 0.0000
-0.8947 0.3684 0.0000
-0.8947 0.4737 0.0000
-0.8947 0.5789 0.0000
-0.8947 0.6842 0.0000
-0.8947 0.7895 0.0000
-0.8947 0.8947 0.0000
-0.8947 1.0000 0.0000
-0.7895 -0.8947 0.0000
-0.7895 -0.7895 0.0000
-0.7895 -0.6842 0.0000
-0.7895 -0.5789 0.0000
-0.7895 -0.4737 0.0000
-0.7895 0.5789 0.0000
-0.7895 0.6842 0.0000
-0.7895 0.7895 0.0000
-0.7895 0.8947 0.0000
-0.7895 1.0000 0.0000
-0.6842 -0.8947 0.0000
-0.6842 -0.7895 0.0000
-0.6842 -0.6842 0.0000
-0.6842 -0.5789 0.0000
-0.6842 0.6842 0.0000
-0.6842 0.7895 0.0000
-0.6842 0.8947 0.0000
-0.6842 1.0000 0.0000
-0.5789 -0.8947 0.0000
-0.5789 -0.7895 0.0000
-0.5789 -0.6842 0.0000
-0.5789 0.7895 0.0000
-0.5789 0.8947 0.0000
-0.5789 1.0000 0.0000
-0.4737 -0.8947 0.0000
-0.4737 -0.7895 0.0000
-0.4737 0.8947 0.0000
-0.4737 1.0000 0.0000
-0.3684 -0.8947 0.0000
-0.3684 -0.7895 0.0000
-0.3684 0.8947 0.0000
-0.3684 1.0000 0.0000
-0.2632 -0.8947 0.0000
-0.2632 1.0000 0.0000
-0.1579 -0.8947 0.0000
-0.1579 1.0000 0.0000
-0.0526 -0.8947 0.0000
-0.0526 1.0000 0.0000
0.0526 -0.8947 0.0000
0.0526 1.0000 0.0000
0.1579 -0.8947 0.0000
0.1579 1.0000 0.0000
0.2632 -0.8947 0.0000
0.2632 1.0000 0.0000
0.3684 -0.8947 0.0000
0.3684 -0.7895 0.0000
0.3684 0.8947 0.0000
0.3684 1.0000 0.0000
0.4737 -0.8947 0.0000
0.4737 -0.7895 0.0000
0.4737 0.8947 0.0000
0.4737 1.0000 0.0000
0.5789 -0.8947 0.0000
0.5789 -0.7895 0.0000
0.5789 -0.6842 0.0000
0.5789 0.7895 0.0000
0.5789 0.8947 0.0000
0.5789 1.0000 0.0000
0.6842 -0.8947 0.0000
0.6842 -0.7895 0.0000
0.6842 -0.6842 0.0000
0.6842 -0.5789 0.0000
0.6842 0.6842 0.0000
0.6842 0.7895 0.0000
0.6842 0.8947 0.0000
0.6842 1.0000 0.0000
0.7895 -0.8947 0.0000
0.7895 -0.7895 0.0000
0.7895 -0.6842 0.0000
0.7895 -0.5789 0.0000
0.7895 -0.4737 0.0000
0.7895 -0.3684 0.0000
0.7895 0.4737 0.0000
0.7895 0.5789 0.0000
0.7895 0.6842 0.0000
0.7895 0.7895 0.0000
0.7895 0.8947 0.0000
0.7895 1.0000 0.0000
0.8947 -0.8947 0.0000
0.8947 -0.7895 0.0000
0.8947 -0.6842 0.0000
0.8947 -0.5789 0.0000
0.8947 -0.4737 0.0000
0.8947 -0.3684 0.0000
0.8947 -0.2632 0.0000
0.8947 -0.1579 0.0000
0.8947 -0.0526 0.0000
0.8947 0.0526 0.0000
0.8947 0.1579 0.0000
0.8947 0.2632 0.0000
0.8947 0.3684 0.0000
0.8947 0.4737 0.0000
0.8947 0.5789 0.0000
0.8947 0.6842 0.0000
0.8947 0.7895 0.0000
0.8947 0.8947 0.0000
0.8947 1.0000 0.0000
-0.8947 -0.0526 0.0000
-0.8947 0.0526 0.0000
-0.8947 0.1579 0.0000
-0.7895 -0.3684 0.0000
-0.7895 0.3684 0.0000
-0.7895 0.4737 0.0000
-0.6842 0.5789 0.0000
-0.5789 0.6842 0.0000
-0.4737 0.7895 0.0000
-0.2632 0.8947 0.0000
-0.1579 0.8947 0.0000
0.2632 0.8947 0.0000
1.0000 -0.8947 0.0000
1.0000 -0.7895 0.0000
1.0000 -0.6842 0.0000
1.0000 -0.5789 0.0000
1.0000 -0.4737 0.0000
1.0000 -0.3684 0.0000
1.0000 -0.2632 0.0000
1.0000 -0.1579 0.0000
1.0000 -0.0526 0.0000
1.0000 0.0526 0.0000
1.0000 0.1579 0.0000
1.0000 0.2632 0.0000
1.0000 0.3684 0.0000
1.0000 0.4737 0.0000
1.0000 0.5789 0.0000
1.0000 0.6842 0.0000
1.0000 0.7895 0.0000
1.0000 0.8947 0.0000
1.0000 1.0000 0.0000
-0.8947 -1.0000 0.0000
-0.7895 -1.0000 0.0000
-0.6842 -1.0000 0.0000
-0.5789 -1.0000 0.0000
-0.4737 -1.0000 0.0000
-0.3684 -1.0000 0.0000
-0.3684 0.7895 0.0000
-0.2632 -1.0000 0.0000
-0.1579 -1.0000 0.0000
-0.0526 -1.0000 0.0000
-0.0526 0.8947 0.0000
0.0526 -1.0000 0.0000
0.0526 0.8947 0.0000
0.1579 -1.0000 0.0000
0.1579 0.8947 0.0000
0.2632 -1.0000 0.0000
0.3684 -1.0000 0.0000
0.3684 0.7895 0.0000
0.4737 -1.0000 0.0000
0.4737 0.7895 0.0000
0.5789 -1.0000 0.0000
0.5789 0.6842 0.0000
0.6842 -1.0000 0.0000
0.6842 0.5789 0.0000
0.7895 -1.0000 0.0000
0.8947 -1.0000 0.0000
1.0000 -1.0000 0.0000
-1.0000 -1.0000 0.0000
0.7895 0.3684 0.0000
1.1053 -0.8947 0.0000
1.1053 -0.7895 0.0000
1.1053 -0.6842 0.0000
1.1053 -0.5789 0.0000
1.1053 -0.4737 0.0000
1.1053 -0.3684 0.0000
1.1053 -0.2632 0.0000
1.1053 -0.1579 0.0000
1.1053 0.2632 0.0000
1.1053 0.3684 0.0000
1.1053 0.4737 0.0000
1.1053 0.5789 0.0000
1.1053 0.6842 0.0000
1.1053 0.7895 0.0000
1.1053 0.8947 0.0000
1.1053 1.0000 0.0000
1.2105 -0.8947 0.0000
1.2105 -0.7895 0.0000
1.2105 -0.6842 0.0000
1.2105 -0.5789 0.0000
1.2105 -0.4737 0.0000
1.2105 0.5789 0.0000
1.2105 0.6842 0.0000
1.2105 0.7895 0.0000
1.2105 0.8947 0.0000
1.2105 1.0000 0.0000
1.3158 -0.8947 0.0000
1.3158 -0.7895 0.0000
1.3158 -0.6842 0.0000
1.3158 -0.5789 0.0000
1.3158 0.6842 0.0000
1.3158 0.7895 0.0000
1.3158 0.8947 0.0000
1.3158 1.0000 0.0000
1.4211 -0.8947 0.0000
1.4211 -0.7895 0.0000
1.4211 -0.6842 0.0000
1.4211 0.7895 0.0000
1.4211 0.8947 0.0000
1.4211 1.0000 0.0000
1.5263 -0.8947 0.0000
1.5263 -0.7895 0.0000
1.5263 0.8947 0.0000
1.5263 1.0000 0.0000
1.6316 -0.8947 0.0000
1.6316 -0.7895 0.0000
1.6316 0.8947 0.0000
1.6316 1.0000 0.0000
1.7368 -0.8947 0.0000
1.7368 1.0000 0.0000
1.8421 -0.8947 0.0000
1.8421 1.0000 0.0000
1.9474 -0.8947 0.0000
1.9474 1.0000 0.0000
2.0526 -0.8947 0.0000
2.0526 1.0000 0.0000
2.1579 -0.8947 0.0000
2.1579 1.0000 0.0000
2.2632 -0.8947 0.0000
2.2632 1.0000 0.0000
2.3684 -0.8947 0.0000
2.3684 -0.7895 0.0000
2.3684 0.8947 0.0000
2.3684 1.0000 0.0000
2.4737 -0.8947 0.0000
2.4737 -0.7895 0.0000
2.4737 0.8947 0.0000
2.4737 1.0000 0.0000
2.5789 -0.8947 0.0000
2.5789 -0.7895 0.0000
2.5789 -0.6842 0.0000
2.5789 0.7895 0.0000
2.5789 0.8947 0.0000
2.5789 1.0000 0.0000
2.6842 -0.8947 0.0000
2.6842 -0.7895 0.0000
2.6842 -0.6842 0.0000
2.6842 -0.5789 0.0000
2.6842 0.6842 0.0000
2.6842 0.7895 0.0000
2.6842 0.8947 0.0000
2.6842 1.0000 0.0000
2.7895 -0.8947 0.0000
2.7895 -0.7895 0.0000
2.7895 -0.6842 0.0000
2.7895 -0.5789 0.0000
2.7895 -0.4737 0.0000
2.7895 -0.3684 0.0000
2.7895 0.4737 0.0000
2.7895 0.5789 0.0000
2.7895 0.6842 0.0000
2.7895 0.7895 0.0000
2.7895 0.8947 0.0000
2.7895 1.0000 0.0000
2.8947 -0.8947 0.0000
2.8947 -0.7895 0.0000
2.8947 -0.6842 0.0000
2.8947 -0.5789 0.0000
2.8947 -0.4737 0.0000
2.8947 -0.3684 0.0000
2.8947 -0.2632 0.0000
2.8947 -0.1579 0.0000
2.8947 -0.0526 0.0000
2.8947 0.0526 0.0000
2.8947 0.1579 0.0000
2.8947 0.2632 0.0000
2.8947 0.3684 0.0000
2.8947 0.4737 0.0000
2.8947 0.5789 0.0000
2.8947 0.6842 0.0000
2.8947 0.7895 0.0000
2.8947 0.8947 0.0000
2.8947 1.0000 0.0000
1.1053 -0.0526 0.0000
1.1053 0.0526 0.0000
1.1053 0.1579 0.0000
1.2105 -0.3684 0.0000
1.2105 0.3684 0.0000
1.2105 0.4737 0.0000
1.3158 0.5789 0.0000
1.4211 0.6842 0.0000
1.5263 0.7895 0.0000
1.7368 0.8947 0.0000
1.8421 0.8947 0.0000
2.2632 0.8947 0.0000
3.0000 -0.8947 0.0000
3.0000 -0.7895 0.0000
3.0000 -0.6842 0.0000
3.0000 -0.5789 0.0000
3.0000 -0.4737 0.0000
3.0000 -0.3684 0.0000
3.0000 -0.2632 0.0000
3.0000 -0.1579 0.0000
3.0000 -0.0526 0.0000
3.0000 0.0526 0.0000
3.0000 0.1579 0.0000
3.0000 0.2632 0.0000
3.0000 0.3684 0.0000
3.0000 0.4737 0.0000
3.0000 0.5789 0.0000
3.0000 0.6842 0.0000
3.0000 0.7895 0.0000
3.0000 0.8947 0.0000
3.0000 1.0000 0.0000
1.1053 -1.0000 0.0000
1.2105 -1.0000 0.0000
1.3158 -1.0000 0.0000
1.4211 -1.0000 0.0000
1.5263 -1.0000 0.0000
1.6316 -1.0000 0.0000
1.6316 0.7895 0.0000
1.7368 -1.0000 0.0000
1.8421 -1.0000 0.0000
1.9474 -1.0000 0.0000
1.9474 0.8947 0.0000
2.0526 -1.0000 0.0000
2.0526 0.8947 0.0000
2.1579 -1.0000 0.0000
2.1579 0.8947 0.0000
2.2632 -1.0000 0.0000
2.3684 -1.0000 0.0000
2.3684 0.7895 0.0000
2.4737 -1.0000 0.0000
2.4737 0.7895 0.0000
2.5789 -1.0000 0.0000
2.5789 0.6842 0.0000
2.6842 -1.0000 0.0000
2.6842 0.5789 0.0000
2.7895 -1.0000 0.0000
2.8947 -1.0000 0.0000
3.0000 -1.0000 0.0000
2.7895 0.3684 0.0000
3.1053 -0.8947 0.0000
3.1053 -0.7895 0.0000
3.1053 -0.6842 0.0000
3.1053 -0.5789 0.0000
3.1053 -0.4737 0.0000
3.1053 -0.3684 0.0000
3.1053 -0.2632 0.0000
3.1053 -0.1579 0.0000
3.1053 0.2632 0.0000
3.1053 0.3684 0.0000
3.1053 0.4737 0.0000
3.1053 0.5789 0.0000
3.1053 0.6842 0.0000
3.1053 0.7895 0.0000
3.1053 0.8947 0.0000
3.1053 1.0000 0.0000
3.2105 -0.8947 0.0000
3.2105 -0.7895 0.0000
3.2105 -0.6842 0.0000
3.2105 -0.5789 0.0000
3.2105 -0.4737 0.0000
3.2105 0.5789 0.0000
3.2105 0.6842 0.0000
3.2105 0.7895 0.0000
3.2105 0.8947 0.0000
3.2105 1.0000 0.0000
3.3158 -0.8947 0.0000
3.3158 -0.7895 0.0000
3.3158 -0.6842 0.0000
3.3158 -0.5789 0.0000
3.3158 0.6842 0.0000
3.3158 0.7895 0.0000
3.3158 0.8947 0.0000
3.3158 1.0000 0.0000
3.4211 -0.8947 0.0000
3.4211 -0.7895 0.0000
3.4211 -0.6842 0.0000
3.4211 0.7895 0.0000
3.4211 0.8947 0.0000
3.4211 1.0000 0.0000
3.5263 -0.8947 0.0000
3.5263 -0.7895 0.0000
3.5263 0.8947 0.0000
3.5263 1.0000 0.0000
3.6316 -0.8947 0.0000
3.6316 -0.7895 0.0000
3.6316 0.8947 0.0000
3.6316 1.0000 0.0000
3.7368 -0.8947 0.0000
3.7368 1.0000 0.0000
3.8421 -0.8947 0.0000
3.8421 1.0000 0.0000
3.9474 -0.8947 0.0000
3.9474 1.0000 0.0000
4.0526 -0.8947 0.0000
4.0526 1.0000 0.0000
4.1579 -0.8947 0.0000
4.1579 1.0000 0.0000
4.2632 -0.8947 0.0000
4.2632 1.0000 0.0000
4.3684 -0.8947 0.0000
4.3684 -0.7895 0.0000
4.3684 0.8947 0.0000
4.3684 1.0000 0.0000
4.4737 -0.8947 0.0000
4.4737 -0.7895 0.0000
4.4737 0.8947 0.0000
4.4737 1.0000 0.0000
4.5789 -0.8947 0.0000
4.5789 -0.7895 0.0000
4.5789 -0.6842 0.0000
4.5789 0.7895 0.0000
4.5789 0.8947 0.0000
4.5789 1.0000 0.0000
4.6842 -0.8947 0.0000
4.6842 -0.7895 0.0000
4.6842 -0.6842 0.0000
4.6842 -0.5789 0.0000
4.6842 0.6842 0.0000
4.6842 0.7895 0.0000
4.6842 0.8947 0.0000
4.6842 1.0000 0.0000
[...]
         <PointData>
            <DataArray Name="fValues" NumberOfComponents="3" format="ascii" type="Float64">
 1.30920e-16 -8.72798e-17        00000 
 1.75315e-17  2.15772e-17        00000 
 9.99688e-18 -1.88416e-16        00000 
       00000  3.23658e-17        00000 
-1.98246e-17  2.02513e-16        00000 
-4.58516e-17 -1.07886e-17        00000 
 8.17198e-18  7.62718e-17        00000 
-2.71383e-18  4.34213e-17        00000 
-4.74910e-18  1.62826e-17        00000 
 2.03376e-18  2.71168e-17        00000 
 6.74288e-18  2.69715e-17        00000 
 2.72399e-18  1.08960e-17        00000 
 5.12459e-17  1.40252e-16        00000 
 5.44217e-17 -2.17687e-17        00000 
 1.34858e-17  3.23658e-17        00000 
-1.50800e-17 -1.96549e-17        00000 
 2.96687e-17  1.29463e-16        00000 
-1.30920e-16 -4.36399e-17        00000 
 2.03994e-16  2.96350e-16        00000 
 8.82538e-01  1.28033e+00        00000 
 4.39343e-01  1.05999e+00        00000 
 1.02355e-01  8.57157e-01        00000 
-1.49157e-01  7.53864e-01        00000 
-2.71970e-01  6.91372e-01        00000 
-2.50501e-01  6.13537e-01        00000 
-1.20051e-01  4.83172e-01        00000 
-4.92685e-02  3.21068e-01        00000 
 1.29100e-01  4.82954e-01        00000 
 2.52387e-01  6.13694e-01        00000 
 2.70260e-01  6.91325e-01        00000 
 1.47053e-01  7.55905e-01        00000 
-1.03025e-01  8.59486e-01        00000 
-4.25536e-01  1.05393e+00        00000 
-8.85588e-01  1.29438e+00        00000 
-1.94385e+00  1.76166e+00        00000 
 1.97187e+00  2.98870e+00        00000 
 1.03993e+00  2.51705e+00        00000 
 2.93388e-01  2.09157e+00        00000 
-2.66448e-01  1.80661e+00        00000 
-4.92758e-01  1.55064e+00        00000 
 2.62815e-01  1.81076e+00        00000 
-2.92852e-01  2.09240e+00        00000 
-1.02363e+00  2.51631e+00        00000 
-1.98601e+00  3.00671e+00        00000 
-3.42998e+00  3.45110e+00        00000 
 3.10477e+00  4.85586e+00        00000 
 1.77072e+00  4.27504e+00        00000 
 5.47931e-01  3.69522e+00        00000 
-3.80476e-01  3.21756e+00        00000 
-5.46190e-01  3.68937e+00        00000 
-1.75925e+00  4.26925e+00        00000 
-3.11572e+00  4.86874e+00        00000 
-4.78907e+00  5.35260e+00        00000 
 4.27861e+00  6.91885e+00        00000 
 2.54965e+00  6.34502e+00        00000 
 7.31450e-01  5.82569e+00        00000 
-2.54167e+00  6.33534e+00        00000 
-4.28482e+00  6.92537e+00        00000 
-6.15341e+00  7.41584e+00        00000 
 5.45905e+00  9.17045e+00        00000 
 3.29346e+00  8.71241e+00        00000 
-5.45920e+00  9.17038e+00        00000 
-7.50288e+00  9.62863e+00        00000 
 6.63574e+00  1.15132e+01        00000 
 4.05698e+00  1.12355e+01        00000 
-6.62669e+00  1.15042e+01        00000 
-8.81396e+00  1.19020e+01        00000 
 7.85241e+00  1.37459e+01        00000 
-1.01731e+01  1.41677e+01        00000 
 9.28393e+00  1.58811e+01        00000 
-1.15859e+01  1.64339e+01        00000 
 1.09072e+01  1.80173e+01        00000 
-1.30770e+01  1.85651e+01        00000 
 1.26834e+01  2.00681e+01        00000 
-1.46364e+01  2.06055e+01        00000 
 1.44585e+01  2.21503e+01        00000 
-1.61955e+01  2.25817e+01        00000 
 1.60604e+01  2.40422e+01        00000 
-1.76850e+01  2.45432e+01        00000 
 1.74120e+01  2.60508e+01        00000 
 1.63332e+01  2.57928e+01        00000 
-1.74056e+01  2.60614e+01        00000 
-1.90908e+01  2.64701e+01        00000 
 1.87115e+01  2.78971e+01        00000 
 1.74064e+01  2.75236e+01        00000 
-1.87047e+01  2.79014e+01        00000 
-2.04505e+01  2.83424e+01        00000 
 1.99851e+01  2.97708e+01        00000 
 1.83671e+01  2.93402e+01        00000 
 1.69440e+01  2.90524e+01        00000 
-1.83500e+01  2.93351e+01        00000 
-1.99794e+01  2.97729e+01        00000 
-2.18287e+01  3.02346e+01        00000 
 2.12289e+01  3.17643e+01        00000 
 1.93100e+01  3.13274e+01        00000 
 1.74286e+01  3.09909e+01        00000 
 1.54590e+01  3.08155e+01        00000 
-1.74133e+01  3.09868e+01        00000 
-1.92977e+01  3.13222e+01        00000 
-2.12215e+01  3.17650e+01        00000 
-2.32142e+01  3.22227e+01        00000 
 2.24269e+01  3.38881e+01        00000 
 2.02019e+01  3.35071e+01        00000 
 1.79308e+01  3.32434e+01        00000 
 1.55804e+01  3.31254e+01        00000 
 1.30282e+01  3.30885e+01        00000 
 1.02378e+01  3.30315e+01        00000 
-1.30194e+01  3.30810e+01        00000 
-1.55699e+01  3.31187e+01        00000 
-1.79186e+01  3.32373e+01        00000 
-2.01966e+01  3.35007e+01        00000 
-2.24156e+01  3.38843e+01        00000 
-2.45842e+01  3.43243e+01        00000 
 2.34920e+01  3.61992e+01        00000 
 2.09296e+01  3.59331e+01        00000 
 1.83318e+01  3.57924e+01        00000 
 1.56939e+01  3.57498e+01        00000 
 1.29772e+01  3.57698e+01        00000 
 1.01568e+01  3.58046e+01        00000 
 7.25333e+00  3.58139e+01        00000 
 4.34158e+00  3.57944e+01        00000 
 1.44743e+00  3.57813e+01        00000 
-1.44176e+00  3.57807e+01        00000 
-4.33576e+00  3.57943e+01        00000 
-7.24523e+00  3.58130e+01        00000 
-1.01490e+01  3.58050e+01        00000 
-1.29711e+01  3.57713e+01        00000 
-1.56885e+01  3.57510e+01        00000 
-1.83259e+01  3.57927e+01        00000 
-2.09348e+01  3.59303e+01        00000 
-2.34748e+01  3.61875e+01        00000 
-2.59399e+01  3.65739e+01        00000 
-9.18164e-03  2.28596e-01        00000 
 1.28459e-02  2.29760e-01        00000 
 4.03132e-02  3.20398e-01        00000 
-4.05957e-01  1.18038e+00        00000 
 4.05977e-01  1.17558e+00        00000 
 4.86188e-01  1.55830e+00        00000 
 3.79101e-01  3.21124e+00        00000 
-7.27629e-01  5.81882e+00        00000 
-3.28769e+00  8.70736e+00        00000 
-7.82434e+00  1.37103e+01        00000 
-9.27782e+00  1.59580e+01        00000 
-1.60396e+01  2.40777e+01        00000 
 2.43641e+01  3.89737e+01        00000 
 2.14570e+01  3.88272e+01        00000 
 1.85945e+01  3.87552e+01        00000 
 1.57393e+01  3.87413e+01        00000 
 1.28896e+01  3.87601e+01        00000 
 1.00407e+01  3.87806e+01        00000 
 7.18560e+00  3.87729e+01        00000 
 4.31633e+00  3.87450e+01        00000 
 1.44352e+00  3.87212e+01        00000 
-1.43247e+00  3.87200e+01        00000 
-4.30761e+00  3.87439e+01        00000 
-7.17323e+00  3.87712e+01        00000 
-1.00290e+01  3.87769e+01        00000 
-1.28796e+01  3.87560e+01        00000 
-1.57292e+01  3.87367e+01        00000 
-1.85842e+01  3.87510e+01        00000 
-2.14409e+01  3.88195e+01        00000 
-2.43473e+01  3.89591e+01        00000 
-2.73534e+01  3.93144e+01        00000 
 1.94398e+00  1.76501e+00        00000 
 3.43826e+00  3.45221e+00        00000 
 4.79774e+00  5.35744e+00        00000 
 6.16336e+00  7.42267e+00        00000 
 7.51483e+00  9.63636e+00        00000 
 8.82680e+00  1.19195e+01        00000 
-4.04387e+00  1.12329e+01        00000 
 1.01581e+01  1.41727e+01        00000 
 1.15681e+01  1.63752e+01        00000 
 1.30766e+01  1.85373e+01        00000 
-1.09719e+01  1.80031e+01        00000 
 1.46393e+01  2.06315e+01        00000 
-1.27515e+01  2.00648e+01        00000 
 1.61809e+01  2.26474e+01        00000 
-1.44583e+01  2.20442e+01        00000 
 1.76733e+01  2.45386e+01        00000 
 1.91104e+01  2.64562e+01        00000 
-1.62884e+01  2.57947e+01        00000 
 2.04670e+01  2.83445e+01        00000 
-1.73866e+01  2.75175e+01        00000 
 2.18431e+01  3.02396e+01        00000 
-1.69270e+01  2.90472e+01        00000 
 2.32281e+01  3.22281e+01        00000 
-1.54454e+01  3.08122e+01        00000 
 2.46000e+01  3.43303e+01        00000 
 2.59550e+01  3.65633e+01        00000 
 2.73697e+01  3.93297e+01        00000 
-1.46906e-16 -9.23560e-17        00000 
-1.02277e+01  3.30279e+01        00000 
 2.50946e+01  4.25399e+01        00000 
 2.18683e+01  4.23586e+01        00000 
 1.87635e+01  4.22187e+01        00000 
 1.57222e+01  4.21413e+01        00000 
 1.27725e+01  4.20864e+01        00000 
 9.92086e+00  4.20164e+01        00000 
 7.13909e+00  4.19101e+01        00000 
 4.30454e+00  4.17852e+01        00000 
-7.11741e+00  4.19053e+01        00000 
-9.90439e+00  4.20095e+01        00000 
-1.27591e+01  4.20768e+01        00000 
-1.57085e+01  4.21323e+01        00000 
-1.87484e+01  4.22103e+01        00000 
-2.18335e+01  4.23500e+01        00000 
-2.50896e+01  4.25461e+01        00000 
-2.86646e+01  4.28221e+01        00000 
 2.57525e+01  4.66044e+01        00000 
 2.22479e+01  4.63063e+01        00000 
 1.88810e+01  4.60195e+01        00000 
 1.56476e+01  4.58151e+01        00000 
 1.26405e+01  4.56171e+01        00000 
-1.56399e+01  4.58134e+01        00000 
-1.88705e+01  4.60145e+01        00000 
-2.22272e+01  4.62995e+01        00000 
-2.57522e+01  4.66105e+01        00000 
-2.96760e+01  4.68859e+01        00000 
 2.64321e+01  5.08480e+01        00000 
 2.26632e+01  5.04695e+01        00000 
 1.89907e+01  5.00727e+01        00000 
 1.55366e+01  4.97255e+01        00000 
-1.89790e+01  5.00635e+01        00000 
-2.26431e+01  5.04604e+01        00000 
-2.64304e+01  5.08526e+01        00000 
-3.04856e+01  5.11478e+01        00000 
 2.71221e+01  5.52132e+01        00000 
 2.30982e+01  5.48400e+01        00000 
 1.90407e+01  5.44821e+01        00000 
-2.30804e+01  5.48276e+01        00000 
-2.71167e+01  5.52130e+01        00000 
-3.13020e+01  5.55126e+01        00000 
 2.78114e+01  5.97063e+01        00000 
 2.35013e+01  5.94154e+01        00000 
-2.78024e+01  5.97022e+01        00000 
-3.21059e+01  5.99796e+01        00000 
 2.84928e+01  6.42654e+01        00000 
 2.38931e+01  6.40962e+01        00000 
-2.84780e+01  6.42567e+01        00000 
-3.28829e+01  6.44935e+01        00000 
 2.91935e+01  6.87651e+01        00000 
-3.36821e+01  6.90071e+01        00000 
 3.00236e+01  7.31967e+01        00000 
-3.45135e+01  7.35158e+01        00000 
 3.09822e+01  7.76188e+01        00000 
-3.53983e+01  7.79411e+01        00000 
 3.20474e+01  8.19889e+01        00000 
-3.63336e+01  8.23098e+01        00000 
 3.31283e+01  8.63814e+01        00000 
-3.72798e+01  8.66409e+01        00000 
 3.41181e+01  9.06632e+01        00000 
-3.81903e+01  9.09689e+01        00000 
 3.49576e+01  9.50298e+01        00000 
 3.12609e+01  9.48756e+01        00000 
-3.49414e+01  9.50320e+01        00000 
-3.90493e+01  9.52789e+01        00000 
 3.57617e+01  9.92920e+01        00000 
 3.19695e+01  9.90822e+01        00000 
-3.57453e+01  9.92897e+01        00000 
-3.98752e+01  9.95515e+01        00000 
 3.65445e+01  1.03558e+02        00000 
 3.25898e+01  1.03327e+02        00000 
 2.87713e+01  1.03200e+02        00000 
-3.25647e+01  1.03321e+02        00000 
-3.65292e+01  1.03555e+02        00000 
-4.07078e+01  1.03826e+02        00000 
 3.73053e+01  1.07882e+02        00000 
 3.31887e+01  1.07647e+02        00000 
 2.91224e+01  1.07494e+02        00000 
 2.50444e+01  1.07450e+02        00000 
-2.90970e+01  1.07489e+02        00000 
-3.31656e+01  1.07642e+02        00000 
-3.72892e+01  1.07879e+02        00000 
-4.15424e+01  1.08147e+02        00000 
 3.80372e+01  1.12272e+02        00000 
 3.37550e+01  1.12060e+02        00000 
 2.94721e+01  1.11934e+02        00000 
 2.51635e+01  1.11895e+02        00000 
 2.07598e+01  1.11916e+02        00000 
 1.62259e+01  1.11948e+02        00000 
-2.07377e+01  1.11911e+02        00000 
-2.51405e+01  1.11890e+02        00000 
-2.94490e+01  1.11928e+02        00000 
-3.37354e+01  1.12055e+02        00000 
-3.80192e+01  1.12267e+02        00000 
-4.23623e+01  1.12530e+02        00000 
 3.86679e+01  1.16756e+02        00000 
 3.42060e+01  1.16603e+02        00000 
 2.97436e+01  1.16533e+02        00000 
 2.52672e+01  1.16521e+02        00000 
 2.07539e+01  1.16550e+02        00000 
 1.61867e+01  1.16593e+02        00000 
 1.15743e+01  1.16626e+02        00000 
 6.94735e+00  1.16643e+02        00000 
 2.32112e+00  1.16651e+02        00000 
-2.30268e+00  1.16651e+02        00000 
-6.92628e+00  1.16643e+02        00000 
-1.15554e+01  1.16626e+02        00000 
-1.61668e+01  1.16594e+02        00000 
-2.07343e+01  1.16551e+02        00000 
-2.52477e+01  1.16523e+02        00000 
-2.97242e+01  1.16535e+02        00000 
-3.41910e+01  1.16604e+02        00000 
-3.86463e+01  1.16751e+02        00000 
-4.31265e+01  1.16966e+02        00000 
 1.44592e+00  4.17130e+01        00000 
-1.42804e+00  4.17135e+01        00000 
-4.29748e+00  4.17816e+01        00000 
 9.83332e+00  4.53297e+01        00000 
-9.82199e+00  4.53216e+01        00000 
-1.26346e+01  4.56187e+01        00000 
-1.55271e+01  4.97161e+01        00000 
-1.90280e+01  5.44719e+01        00000 
-2.34845e+01  5.94058e+01        00000 
-2.91672e+01  6.87418e+01        00000 
-3.00094e+01  7.32371e+01        00000 
-3.40924e+01  9.06816e+01        00000 
 3.91397e+01  1.21469e+02        00000 
 3.45002e+01  1.21394e+02        00000 
 2.98998e+01  1.21358e+02        00000 
 2.53066e+01  1.21351e+02        00000 
 2.07186e+01  1.21361e+02        00000 
 1.61308e+01  1.21371e+02        00000 
 1.15370e+01  1.21367e+02        00000 
 6.93018e+00  1.21353e+02        00000 
 2.31838e+00  1.21342e+02        00000 
-2.29605e+00  1.21341e+02        00000 
-6.90897e+00  1.21352e+02        00000 
-1.15140e+01  1.21366e+02        00000 
-1.61081e+01  1.21368e+02        00000 
-2.06967e+01  1.21357e+02        00000 
-2.52847e+01  1.21347e+02        00000 
-2.98778e+01  1.21354e+02        00000 
-3.44738e+01  1.21388e+02        00000 
-3.91156e+01  1.21460e+02        00000 
-4.38577e+01  1.21636e+02        00000 
 2.86790e+01  4.28453e+01        00000 
 2.96899e+01  4.68903e+01        00000 
 3.05019e+01  5.11571e+01        00000 
 3.13197e+01  5.55225e+01        00000 
 3.21249e+01  5.99898e+01        00000 
 3.29023e+01  6.45084e+01        00000 
-2.38743e+01  6.40898e+01        00000 
 3.36857e+01  6.90140e+01        00000 
 3.45153e+01  7.34860e+01        00000 
 3.54100e+01  7.79283e+01        00000 
-3.10088e+01  7.76069e+01        00000 
 3.63485e+01  8.23288e+01        00000 
-3.20760e+01  8.19833e+01        00000 
 3.72839e+01  8.66846e+01        00000 
-3.31149e+01  8.63109e+01        00000 
 3.81960e+01  9.09679e+01        00000 
 3.90750e+01  9.52723e+01        00000 
-3.12192e+01  9.48743e+01        00000 
 3.98988e+01  9.95550e+01        00000 
-3.19438e+01  9.90755e+01        00000 
 4.07302e+01  1.03831e+02        00000 
-2.87447e+01  1.03194e+02        00000 
 4.15649e+01  1.08152e+02        00000 
-2.50193e+01  1.07445e+02        00000 
 4.23881e+01  1.12535e+02        00000 
 4.31577e+01  1.16959e+02        00000 
 4.38884e+01  1.21647e+02        00000 
-1.62043e+01  1.11943e+02        00000 
 3.94730e+01  1.26574e+02        00000 
 3.46787e+01  1.26500e+02        00000 
 2.99629e+01  1.26430e+02        00000 
 2.52844e+01  1.26383e+02        00000 
 2.06542e+01  1.26337e+02        00000 
 1.60710e+01  1.26277e+02        00000 
 1.15196e+01  1.26196e+02        00000 
 6.92763e+00  1.26108e+02        00000 
-1.14898e+01  1.26191e+02        00000 
-1.60450e+01  1.26270e+02        00000 
-2.06303e+01  1.26328e+02        00000 
-2.52606e+01  1.26373e+02        00000 
-2.99383e+01  1.26421e+02        00000 
-3.46430e+01  1.26490e+02        00000 
-3.94543e+01  1.26573e+02        00000 
-4.44915e+01  1.26687e+02        00000 
 3.97067e+01  1.31927e+02        00000 
 3.47843e+01  1.31797e+02        00000 
 2.99531e+01  1.31649e+02        00000 
 2.52018e+01  1.31526e+02        00000 
 2.05692e+01  1.31389e+02        00000 
-2.51819e+01  1.31524e+02        00000 
-2.99312e+01  1.31644e+02        00000 
-3.47556e+01  1.31791e+02        00000 
-3.96915e+01  1.31928e+02        00000 
-4.49068e+01  1.32028e+02        00000 
 3.99168e+01  1.37368e+02        00000 
 3.48741e+01  1.37194e+02        00000 
 2.99113e+01  1.36982e+02        00000 
 2.50896e+01  1.36768e+02        00000 
-2.98895e+01  1.36975e+02        00000 
-3.48453e+01  1.37187e+02        00000 
-3.99006e+01  1.37369e+02        00000 
-4.51758e+01  1.37477e+02        00000 
 4.01249e+01  1.42870e+02        00000 
 3.49669e+01  1.42698e+02        00000 
 2.98303e+01  1.42503e+02        00000 
-3.49388e+01  1.42688e+02        00000 
-4.01067e+01  1.42868e+02        00000 
-4.54432e+01  1.42977e+02        00000 
 4.03250e+01  1.48437e+02        00000 
 3.50320e+01  1.48313e+02        00000 
-4.03056e+01  1.48433e+02        00000 
-4.57035e+01  1.48530e+02        00000 
 4.05135e+01  1.54044e+02        00000 
 3.50561e+01  1.53983e+02        00000 
-4.04916e+01  1.54039e+02        00000 
-4.59480e+01  1.54116e+02        00000 
 4.07010e+01  1.59642e+02        00000 
-4.61895e+01  1.59708e+02        00000 
 4.09326e+01  1.65202e+02        00000 
-4.64418e+01  1.65291e+02        00000 
 4.12289e+01  1.70742e+02        00000 
-4.67220e+01  1.70842e+02        00000 
 4.15850e+01  1.76263e+02        00000 
-4.70346e+01  1.76370e+02        00000 
 4.19730e+01  1.81798e+02        00000 
-4.73689e+01  1.81887e+02        00000 
 4.23510e+01  1.87301e+02        00000 
-4.77010e+01  1.87413e+02        00000 
 4.26787e+01  1.92857e+02        00000 
 3.75287e+01  1.92806e+02        00000 
-4.26499e+01  1.92851e+02        00000 
-4.80139e+01  1.92937e+02        00000 
 4.29879e+01  1.98366e+02        00000 
 3.78707e+01  1.98319e+02        00000 
-4.29589e+01  1.98357e+02        00000 
-4.83075e+01  1.98440e+02        00000 
 4.32816e+01  2.03860e+02        00000 
 3.81488e+01  2.03825e+02        00000 
 3.30957e+01  2.03858e+02        00000 
-3.81129e+01  2.03818e+02        00000 
-4.32532e+01  2.03851e+02        00000 
-4.86009e+01  2.03933e+02        00000 
 4.35687e+01  2.09330e+02        00000 
 3.83998e+01  2.09303e+02        00000 
 3.33100e+01  2.09332e+02        00000 
 2.82806e+01  2.09413e+02        00000 
-3.32755e+01  2.09326e+02        00000 
-3.83628e+01  2.09298e+02        00000 
-4.35404e+01  2.09320e+02        00000 
-4.89080e+01  2.09394e+02        00000 
 4.38382e+01  2.14791e+02        00000 
 3.86150e+01  2.14788e+02        00000 
 3.34946e+01  2.14795e+02        00000 
 2.83896e+01  2.14834e+02        00000 
 2.32922e+01  2.14910e+02        00000 
 1.81670e+01  2.15029e+02        00000 
-2.32641e+01  2.14905e+02        00000 
-2.83604e+01  2.14827e+02        00000 
-3.34758e+01  2.14785e+02        00000 
-3.85840e+01  2.14780e+02        00000 
-4.38117e+01  2.14793e+02        00000 
-4.93641e+01  2.14915e+02        00000 
 4.39793e+01  2.20652e+02        00000 
 3.87312e+01  2.20571e+02        00000 
 3.36069e+01  2.20519e+02        00000 
 2.84642e+01  2.20517e+02        00000 
 2.33165e+01  2.20557e+02        00000 
 1.81633e+01  2.20614e+02        00000 
 1.29934e+01  2.20687e+02        00000 
 7.80586e+00  2.20767e+02        00000 
 2.60332e+00  2.20824e+02        00000 
-2.59884e+00  2.20828e+02        00000 
-7.78268e+00  2.20776e+02        00000 
-1.29818e+01  2.20686e+02        00000 
-1.81427e+01  2.20616e+02        00000 
-2.32928e+01  2.20560e+02        00000 
-2.84390e+01  2.20523e+02        00000 
-3.35926e+01  2.20519e+02        00000 
-3.87013e+01  2.20572e+02        00000 
-4.39839e+01  2.20647e+02        00000 
-4.99449e+01  2.20707e+02        00000 
 2.32144e+00  1.26058e+02        00000 
-2.29472e+00  1.26058e+02        00000 
-6.90851e+00  1.26105e+02        00000 
 1.60261e+01  1.31189e+02        00000 
-1.60032e+01  1.31183e+02        00000 
-2.05501e+01  1.31389e+02        00000 
-2.50691e+01  1.36760e+02        00000 
-2.98082e+01  1.42495e+02        00000 
-3.50036e+01  1.48304e+02        00000 
-4.06748e+01  1.59634e+02        00000 
-4.09086e+01  1.65209e+02        00000 
-4.23179e+01  1.87303e+02        00000 
 4.40831e+01  2.27440e+02        00000 
 3.88110e+01  2.26936e+02        00000 
 3.36554e+01  2.26783e+02        00000 
 2.84878e+01  2.26765e+02        00000 
 2.33248e+01  2.26781e+02        00000 
 1.81601e+01  2.26814e+02        00000 
 1.29865e+01  2.26855e+02        00000 
 7.80148e+00  2.26893e+02        00000 