<?xml version="1.0" encoding="utf-8"?>
<VTKFile byte_order="LittleEndian" type="UnstructuredGrid" version="0.1">
   <UnstructuredGrid>
      <Piece NumberOfCells="532" NumberOfPoints="702">
         <Points>
            <DataArray Name="Points" NumberOfComponents="3" format="ascii" type="Float32">
-1.1125 1.0007 0.0000
-1.0821 0.9070 0.0000
-1.0113 1.0007 0.0000
-1.0518 0.8133 0.0000
-0.9759 0.9056 0.0000
-0.9102 1.0007 0.0000
-1.4905 0.1573 0.0000
-1.0215 0.7196 0.0000
-0.9415 0.8092 0.0000
-0.8091 1.0007 0.0000
-0.8702 0.9033 0.0000
-1.4905 0.0524 0.0000
-1.3975 0.1573 0.0000
-0.9911 0.6258 0.0000
-0.9094 0.7109 0.0000
-0.7079 1.0007 0.0000
-0.8314 0.8038 0.0000
-0.7651 0.9010 0.0000
-1.3980 0.0523 0.0000
-1.4905 -0.0524 0.0000
-1.3045 0.1573 0.0000
-0.9608 0.5321 0.0000
-0.8800 0.6125 0.0000
-1.3981 -0.0525 0.0000
-1.3061 0.0521 0.0000
-1.4905 -0.1573 0.0000
-0.6068 1.0007 0.0000
-1.2115 0.1573 0.0000
-0.7946 0.7021 0.0000
-0.6618 0.8997 0.0000
-0.7203 0.7993 0.0000
-0.9305 0.4384 0.0000
-1.3061 -0.0530 0.0000
-1.3975 -0.1573 0.0000
-0.8526 0.5132 0.0000
-1.2128 0.0519 0.0000
-1.1185 0.1573 0.0000
-0.5057 1.0007 0.0000
-0.7676 0.5994 0.0000
-0.5588 0.8996 0.0000
-0.6152 0.7975 0.0000
-0.6715 0.6925 0.0000
-0.9001 0.3447 0.0000
-1.2132 -0.0532 0.0000
-1.3045 -0.1573 0.0000
-1.1203 0.0516 0.0000
-1.0255 0.1573 0.0000
-0.8278 0.4133 0.0000
-0.7437 0.4941 0.0000
-0.4045 1.0007 0.0000
-0.4565 0.8997 0.0000
-0.6525 0.5853 0.0000
-0.5112 0.7974 0.0000
-0.5682 0.6925 0.0000
-1.2115 -0.1573 0.0000
-1.1198 -0.0530 0.0000
-0.8698 0.2510 0.0000
-1.0266 0.0519 0.0000
-0.9325 0.1573 0.0000
-0.8070 0.3156 0.0000
-0.7226 0.3865 0.0000
-0.3034 1.0007 0.0000
-0.6334 0.4781 0.0000
-0.3544 0.8997 0.0000
-1.1185 -0.1573 0.0000
-0.4080 0.7974 0.0000
-1.0271 -0.0531 0.0000
-0.7965 0.2360 0.0000
-0.9336 0.0519 0.0000
-0.4649 0.6925 0.0000
-0.8395 0.1573 0.0000
-0.7011 0.2684 0.0000
-0.7354 0.2204 0.0000
-0.7736 0.1571 0.0000
-0.6143 0.3708 0.0000
-1.0255 -0.1573 0.0000
-0.2023 1.0007 0.0000
-0.9332 -0.0527 0.0000
-0.2524 0.8998 0.0000
-0.8395 0.0524 0.0000
-0.3052 0.7974 0.0000
-0.3616 0.6925 0.0000
-0.7078 0.1568 0.0000
-0.9325 -0.1573 0.0000
-0.8395 -0.0524 0.0000
-0.5952 0.2636 0.0000
-0.7392 0.0538 0.0000
-0.1011 1.0007 0.0000
-0.6941 0.0995 0.0000
-0.1504 0.8998 0.0000
-0.6420 0.1566 0.0000
-0.2025 0.7975 0.0000
-0.2583 0.6925 0.0000
-0.8395 -0.1573 0.0000
-0.6354 0.0879 0.0000
-0.7460 -0.0561 0.0000
-0.5762 0.1564 0.0000
0.0000 1.0007 0.0000
-0.8698 -0.2510 0.0000
-0.0485 0.8999 0.0000
-0.6438 0.0178 0.0000
-0.0998 0.7976 0.0000
-0.1550 0.6925 0.0000
-0.7517 -0.1571 0.0000
-0.5622 0.0782 0.0000
-0.9001 -0.3447 0.0000
-0.6537 -0.0686 0.0000
-0.7787 -0.2543 0.0000
-0.9305 -0.4384 0.0000
0.1011 1.0007 0.0000
-0.5483 -0.0000 0.0000
0.0534 0.9000 0.0000
-0.6640 -0.1569 0.0000
0.0029 0.7976 0.0000
-0.0517 0.6925 0.0000
-0.8053 -0.3522 0.0000
-0.9608 -0.5321 0.0000
-0.5623 -0.0784 0.0000
-0.6873 -0.2582 0.0000
-0.9911 -0.6258 0.0000
-0.8323 -0.4507 0.0000
-0.5762 -0.1568 0.0000
0.2023 1.0007 0.0000
0.1554 0.9002 0.0000
0.1054 0.7976 0.0000
-0.7100 -0.3614 0.0000
0.0517 0.6925 0.0000
-1.0215 -0.7196 0.0000
-0.8599 -0.5498 0.0000
-0.5953 -0.2639 0.0000
-0.7332 -0.4640 0.0000
-1.0518 -0.8133 0.0000
-0.8897 -0.6494 0.0000
0.3034 1.0007 0.0000
0.2577 0.9000 0.0000
-0.6144 -0.3711 0.0000
0.2080 0.7977 0.0000
-1.0821 -0.9070 0.0000
0.1550 0.6925 0.0000
-0.9236 -0.7470 0.0000
-0.7570 -0.5679 0.0000
-0.9642 -0.8289 0.0000
-0.6334 -0.4782 0.0000
-1.1125 -1.0007 0.0000
-0.7844 -0.6750 0.0000
0.4045 1.0007 0.0000
-0.9892 -0.9126 0.0000
0.3615 0.9013 0.0000
0.3114 0.7980 0.0000
0.2583 0.6925 0.0000
-0.8949 -0.8453 0.0000
-0.6525 -0.5854 0.0000
-0.8205 -0.7923 0.0000
-1.0113 -1.0007 0.0000
-0.9001 -0.9147 0.0000
-0.6715 -0.6925 0.0000
0.5057 1.0007 0.0000
0.4668 0.9039 0.0000
0.4166 0.7984 0.0000
0.3616 0.6925 0.0000
-0.9102 -1.0007 0.0000
-0.8071 -0.9011 0.0000
-0.6944 -0.7948 0.0000
-0.5682 -0.6925 0.0000
0.6068 1.0007 0.0000
0.5735 0.9135 0.0000
-0.8091 -1.0007 0.0000
0.4649 0.6925 0.0000
0.5287 0.8020 0.0000
-0.7006 -0.8989 0.0000
-0.5852 -0.7957 0.0000
-0.4649 -0.6925 0.0000
0.6592 0.9384 0.0000
-0.7079 -1.0007 0.0000
0.7079 1.0007 0.0000
-0.5968 -0.8994 0.0000
0.5682 0.6925 0.0000
0.7179 0.9589 0.0000
-0.4794 -0.7962 0.0000
0.6623 0.8108 0.0000
-0.3616 -0.6925 0.0000
-0.6068 -1.0007 0.0000
0.7377 0.8847 0.0000
-0.4926 -0.8992 0.0000
0.8091 1.0007 0.0000
0.7867 0.9406 0.0000
-0.3752 -0.7965 0.0000
0.6715 0.6925 0.0000
-0.2583 -0.6925 0.0000
-0.5057 -1.0007 0.0000
0.6525 0.5854 0.0000
-0.3901 -0.8986 0.0000
0.9102 1.0007 0.0000
0.6334 0.4783 0.0000
-0.2720 -0.7957 0.0000
0.8808 0.9249 0.0000
0.8425 0.8490 0.0000
0.7995 0.7655 0.0000
-0.1550 -0.6925 0.0000
0.7782 0.6672 0.0000
-0.4045 -1.0007 0.0000
0.6144 0.3712 0.0000
-0.2879 -0.8982 0.0000
0.7559 0.5662 0.0000
0.5953 0.2641 0.0000
-0.1698 -0.7960 0.0000
1.0113 1.0007 0.0000
0.7324 0.4634 0.0000
0.9814 0.9141 0.0000
-0.0517 -0.6925 0.0000
0.9481 0.8282 0.0000
-0.3034 -1.0007 0.0000
0.9138 0.7394 0.0000
0.5763 0.1570 0.0000
0.7097 0.3613 0.0000
-0.1859 -0.8984 0.0000
0.8856 0.6453 0.0000
0.5623 0.0785 0.0000
-0.0666 -0.7957 0.0000
0.6869 0.2583 0.0000
0.8591 0.5486 0.0000
1.1125 1.0007 0.0000
0.5483 -0.0000 0.0000
0.0517 -0.6925 0.0000
0.8320 0.4506 0.0000
-0.2023 -1.0007 0.0000
1.0821 0.9070 0.0000
0.6640 0.1571 0.0000
1.0518 0.8133 0.0000
-0.0841 -0.8980 0.0000
0.8051 0.3522 0.0000
1.0215 0.7196 0.0000
0.6579 0.0787 0.0000
0.5622 -0.0779 0.0000
0.0362 -0.7954 0.0000
0.9911 0.6258 0.0000
0.7784 0.2542 0.0000
0.9608 0.5321 0.0000
-0.1011 -1.0007 0.0000
0.1550 -0.6925 0.0000
0.7517 0.1572 0.0000
0.6532 0.0003 0.0000
0.9305 0.4384 0.0000
0.0180 -0.8986 0.0000
0.5761 -0.1558 0.0000
0.9001 0.3447 0.0000
0.7495 0.0787 0.0000
0.6577 -0.0779 0.0000
0.1390 -0.7952 0.0000
0.8698 0.2510 0.0000
0.0000 -1.0007 0.0000
0.8395 0.1573 0.0000
0.2583 -0.6925 0.0000
0.7479 0.0002 0.0000
0.6639 -0.1563 0.0000
0.5952 -0.2631 0.0000
0.1200 -0.8988 0.0000
0.8395 0.0786 0.0000
0.7494 -0.0782 0.0000
0.2411 -0.7958 0.0000
0.9208 0.1573 0.0000
0.1011 -1.0007 0.0000
0.8395 -0.0000 0.0000
0.3616 -0.6925 0.0000
0.7517 -0.1568 0.0000
0.6865 -0.2555 0.0000
0.6143 -0.3705 0.0000
0.9175 0.0894 0.0000
0.2219 -0.8987 0.0000
0.8395 -0.0786 0.0000
0.3444 -0.7970 0.0000
1.0022 0.1573 0.0000
0.9299 0.0193 0.0000
0.9837 0.1007 0.0000
0.2023 -1.0007 0.0000
0.7772 -0.2480 0.0000
0.8395 -0.1573 0.0000
0.4649 -0.6925 0.0000
0.7087 -0.3554 0.0000
0.6334 -0.4778 0.0000
0.3240 -0.8995 0.0000
0.9316 -0.0677 0.0000
1.0836 0.1573 0.0000
1.0312 0.0555 0.0000
0.4492 -0.7978 0.0000
0.3034 -1.0007 0.0000
0.8668 -0.2416 0.0000
0.8022 -0.3403 0.0000
0.7321 -0.4553 0.0000
0.9325 -0.1573 0.0000
0.5682 -0.6925 0.0000
0.6525 -0.5852 0.0000
0.4269 -0.9007 0.0000
1.0280 -0.0555 0.0000
1.1650 0.1573 0.0000
0.8941 -0.3260 0.0000
1.1377 0.0532 0.0000
0.5607 -0.8008 0.0000
0.4045 -1.0007 0.0000
0.8278 -0.4327 0.0000
0.7549 -0.5537 0.0000
1.0255 -0.1573 0.0000
0.6715 -0.6925 0.0000
1.2464 0.1573 0.0000
0.5325 -0.9036 0.0000
1.1252 -0.0528 0.0000
0.9214 -0.4103 0.0000
0.8538 -0.5241 0.0000
1.2295 0.0529 0.0000
0.5057 -1.0007 0.0000
0.7812 -0.6504 0.0000
1.1185 -0.1573 0.0000
1.3277 0.1573 0.0000
0.6955 -0.8080 0.0000
1.2181 -0.0522 0.0000
0.6365 -0.9121 0.0000
0.9487 -0.4946 0.0000
0.8813 -0.6128 0.0000
1.3173 0.0527 0.0000
0.6068 -1.0007 0.0000
0.8152 -0.7435 0.0000
1.2115 -0.1573 0.0000
1.4091 0.1573 0.0000
1.3093 -0.0521 0.0000
0.7145 -0.9362 0.0000
0.9760 -0.5790 0.0000
0.9132 -0.6982 0.0000
1.4039 0.0526 0.0000
0.7079 -1.0007 0.0000
0.7989 -0.8959 0.0000
1.3045 -0.1573 0.0000
1.4905 0.1573 0.0000
0.8709 -0.8174 0.0000
1.0033 -0.6633 0.0000
1.3998 -0.0521 0.0000
0.9494 -0.7763 0.0000
1.4905 0.0524 0.0000
0.8091 -1.0007 0.0000
0.9194 -0.8601 0.0000
1.3975 -0.1573 0.0000
0.9061 -0.9178 0.0000
1.0306 -0.7477 0.0000
1.4905 -0.0524 0.0000
0.9813 -0.8452 0.0000
0.9102 -1.0007 0.0000
1.4905 -0.1573 0.0000
1.0579 -0.8320 0.0000
0.9961 -0.9192 0.0000
1.0113 -1.0007 0.0000
1.0852 -0.9164 0.0000
1.1125 -1.0007 0.0000
1.8685 1.0007 0.0000
1.8989 0.9070 0.0000
1.9697 1.0007 0.0000
1.9292 0.8133 0.0000
2.0051 0.9056 0.0000
2.0708 1.0007 0.0000
1.4905 0.1573 0.0000
1.9595 0.7196 0.0000
2.0395 0.8092 0.0000
2.1719 1.0007 0.0000
2.1108 0.9033 0.0000
1.4905 0.0524 0.0000
1.5835 0.1573 0.0000
1.9899 0.6258 0.0000
2.0716 0.7109 0.0000
2.2731 1.0007 0.0000
2.1496 0.8038 0.0000
2.2159 0.9010 0.0000
1.5830 0.0523 0.0000
1.4905 -0.0524 0.0000
1.6765 0.1573 0.0000
2.0202 0.5321 0.0000
2.1010 0.6125 0.0000
1.5829 -0.0525 0.0000
1.6749 0.0521 0.0000
1.4905 -0.1573 0.0000
2.3742 1.0007 0.0000
1.7695 0.1573 0.0000
2.1865 0.7021 0.0000
2.3192 0.8997 0.0000
2.2607 0.7993 0.0000
2.0505 0.4384 0.0000
1.6749 -0.0530 0.0000
1.5835 -0.1573 0.0000
2.1284 0.5132 0.0000
1.7682 0.0519 0.0000
1.8625 0.1573 0.0000
2.4753 1.0007 0.0000
2.2134 0.5994 0.0000
2.4222 0.8996 0.0000
2.3658 0.7975 0.0000
2.3095 0.6925 0.0000
2.0809 0.3447 0.0000
1.7678 -0.0532 0.0000
1.6765 -0.1573 0.0000
1.8607 0.0516 0.0000
1.9555 0.1573 0.0000
2.1532 0.4133 0.0000
2.2373 0.4941 0.0000
2.5765 1.0007 0.0000
2.5246 0.8997 0.0000
2.3285 0.5853 0.0000
2.4698 0.7974 0.0000
2.4128 0.6925 0.0000
1.7695 -0.1573 0.0000
1.8612 -0.0530 0.0000
2.1112 0.2510 0.0000
1.9544 0.0519 0.0000
2.0485 0.1573 0.0000
2.1740 0.3156 0.0000
2.2584 0.3865 0.0000
2.6776 1.0007 0.0000
2.3476 0.4781 0.0000
2.6266 0.8997 0.0000
1.8625 -0.1573 0.0000
2.5730 0.7974 0.0000
1.9539 -0.0531 0.0000
2.1846 0.2360 0.0000
2.0474 0.0519 0.0000
2.5161 0.6925 0.0000
2.1415 0.1573 0.0000
2.2799 0.2684 0.0000
2.2456 0.2204 0.0000
2.2074 0.1571 0.0000
2.3667 0.3708 0.0000
1.9555 -0.1573 0.0000
2.7787 1.0007 0.0000
2.0478 -0.0527 0.0000
2.7286 0.8998 0.0000
2.1415 0.0524 0.0000
2.6758 0.7974 0.0000
2.6194 0.6925 0.0000
2.2732 0.1568 0.0000
2.0485 -0.1573 0.0000
2.1415 -0.0524 0.0000
2.3858 0.2636 0.0000
2.2418 0.0538 0.0000
2.8799 1.0007 0.0000
2.2869 0.0995 0.0000
2.8306 0.8998 0.0000
2.3390 0.1566 0.0000
2.7785 0.7975 0.0000
2.7227 0.6925 0.0000
[...]
         <PointData>
            <DataArray Name="fValues" NumberOfComponents="3" format="ascii" type="Float64">
 1.19715e-01 -2.53742e-01        00000 
 7.96515e-02 -1.85226e-01        00000 
 1.21414e-02 -2.55628e-02        00000 
 4.55214e-02 -1.16769e-01        00000 
 1.70899e-02  1.58097e-02        00000 
-9.57865e-02  2.02620e-01        00000 
 1.25025e-01 -1.10273e+00        00000 
 1.64073e-02 -4.83623e-02        00000 
 2.00036e-02  5.87043e-02        00000 
-2.03619e-01  4.30801e-01        00000 
-6.08177e-02  2.24356e-01        00000 
 7.58438e-02 -1.10224e+00        00000 
 1.02292e-01 -8.93650e-01        00000 
-5.89862e-03  1.99764e-02        00000 
 2.68075e-02  1.02947e-01        00000 
-3.11478e-01  6.58983e-01        00000 
-2.02424e-02  2.40334e-01        00000 
-1.50818e-01  4.38604e-01        00000 
 6.62742e-02 -9.02530e-01        00000 
 2.62476e-02 -1.10175e+00        00000 
 7.47267e-02 -6.84520e-01        00000 
-2.76475e-02  8.83097e-02        00000 
 2.63461e-02  1.45243e-01        00000 
 2.19334e-02 -9.01394e-01        00000 
 5.68328e-02 -7.07114e-01        00000 
-2.29333e-02 -1.10126e+00        00000 
-4.19329e-01  8.87164e-01        00000 
 6.52477e-02 -4.75571e-01        00000 
 3.53879e-02  2.56073e-01        00000 
-2.48581e-01  6.68870e-01        00000 
-8.14573e-02  4.41670e-01        00000 
-2.56273e-02  1.56406e-01        00000 
 1.93398e-02 -7.05325e-01        00000 
-1.95587e-02 -8.92434e-01        00000 
 1.16495e-02  1.79311e-01        00000 
 2.03425e-02 -5.53810e-01        00000 
-7.01898e-02 -4.19280e-01        00000 
-5.27183e-01  1.11535e+00        00000 
 4.52774e-02  2.61373e-01        00000 
-3.46154e-01  9.19367e-01        00000 
-1.57502e-01  7.00251e-01        00000 
 4.21809e-02  4.43620e-01        00000 
-1.73286e-02  1.72718e-01        00000 
 4.77583e-02 -5.54626e-01        00000 
-1.13509e-02 -6.83662e-01        00000 
 5.45737e-03 -4.33493e-01        00000 
-1.31538e-01 -2.65023e-01        00000 
-7.87405e-03  1.83515e-01        00000 
 1.14016e-02  2.27643e-01        00000 
-6.35035e-01  1.34353e+00        00000 
-4.34185e-01  1.17029e+00        00000 
 2.18957e-02  2.89898e-01        00000 
-2.18410e-01  9.89366e-01        00000 
 3.67215e-02  8.02881e-01        00000 
-2.12297e-02 -4.74708e-01        00000 
 5.39307e-02 -4.35626e-01        00000 
-4.59437e-02  1.58097e-01        00000 
-9.25618e-03 -2.75515e-01        00000 
-1.39431e-01 -9.91437e-02        00000 
-3.26861e-02  1.64518e-01        00000 
-2.32104e-02  1.92375e-01        00000 
-7.42888e-01  1.57171e+00        00000 
-5.29440e-03  2.11824e-01        00000 
-5.21907e-01  1.41091e+00        00000 
 1.22629e-01 -4.24771e-01        00000 
-2.86334e-01  1.24812e+00        00000 
 6.24832e-02 -2.77868e-01        00000 
-6.17121e-02  1.35966e-01        00000 
-1.13503e-02 -9.43266e-02        00000 
-1.25573e-02  1.07920e+00        00000 
-9.20834e-02  9.10672e-02        00000 
-6.09500e-02  1.62539e-01        00000 
-6.47977e-02  1.48904e-01        00000 
-7.57588e-02  1.25394e-01        00000 
-3.89569e-02  1.75253e-01        00000 
 1.83805e-01 -2.68310e-01        00000 
-8.50741e-01  1.79989e+00        00000 
 6.05208e-02 -9.30066e-02        00000 
-6.14583e-01  1.64592e+00        00000 
-1.64077e-02  5.75384e-02        00000 
-3.66358e-01  1.49080e+00        00000 
-8.93504e-02  1.33021e+00        00000 
-6.19711e-02  1.52768e-01        00000 
 1.87716e-01 -1.00029e-01        00000 
 6.37589e-02  5.78297e-02        00000 
-6.16421e-02  1.71837e-01        00000 
-1.65030e-02  1.37654e-01        00000 
-9.58594e-01  2.02807e+00        00000 
-3.87017e-02  1.54996e-01        00000 
-7.12538e-01  1.87819e+00        00000 
-5.86689e-02  1.69235e-01        00000 
-4.55862e-01  1.72598e+00        00000 
-1.76720e-01  1.56796e+00        00000 
 1.33383e-01  9.50667e-02        00000 
-3.03642e-02  1.74271e-01        00000 
 6.36431e-02  1.32611e-01        00000 
-5.53301e-02  1.87413e-01        00000 
-1.06645e+00  2.25625e+00        00000 
 6.93861e-02  1.67780e-01        00000 
-8.14771e-01  2.10930e+00        00000 
 1.08068e-02  1.72925e-01        00000 
-5.52479e-01  1.95847e+00        00000 
-2.70743e-01  1.80085e+00        00000 
 1.11418e-01  1.33019e-01        00000 
-2.20893e-02  2.05829e-01        00000 
 2.12102e-02  1.87003e-01        00000 
 6.29575e-02  1.66467e-01        00000 
 8.31988e-02  1.43032e-01        00000 
 1.11545e-02  1.56039e-01        00000 
-1.17430e+00  2.48444e+00        00000 
 2.10277e-02  2.13864e-01        00000 
-9.20411e-01  2.33996e+00        00000 
 9.67691e-02  1.57547e-01        00000 
-6.54353e-01  2.18992e+00        00000 
-3.70008e-01  2.03235e+00        00000 
 2.89781e-02  1.77513e-01        00000 
 1.94880e-02  8.78396e-02        00000 
 6.16143e-02  1.99928e-01        00000 
 8.80856e-02  1.56683e-01        00000 
 4.05255e-03  1.98772e-02        00000 
-7.79662e-03  1.94686e-01        00000 
 8.95977e-02  1.78117e-01        00000 
-1.28215e+00  2.71262e+00        00000 
-1.02953e+00  2.57110e+00        00000 
-7.60633e-01  2.42114e+00        00000 
 4.36202e-02  1.78511e-01        00000 
-4.73930e-01  2.26375e+00        00000 
-1.19400e-02 -4.80796e-02        00000 
-2.94738e-02  1.79118e-01        00000 
 8.64511e-02  1.54712e-01        00000 
-3.34377e-03  2.16324e-01        00000 
-3.47407e-02 -1.15969e-01        00000 
-3.94525e-02  1.38901e-01        00000 
-1.39001e+00  2.94080e+00        00000 
-1.14108e+00  2.80337e+00        00000 
 4.93360e-02  1.58747e-01        00000 
-8.71400e-01  2.65315e+00        00000 
-6.25575e-02 -1.83807e-01        00000 
-5.82080e-01  2.49562e+00        00000 
-3.49441e-02  8.61037e-02        00000 
-5.14784e-02  2.61429e-01        00000 
-2.81414e-02  2.69395e-02        00000 
 4.44079e-03  1.96008e-01        00000 
-9.63072e-02 -2.51587e-01        00000 
-7.04482e-02  2.68766e-01        00000 
-1.49786e+00  3.16898e+00        00000 
-2.44824e-02 -6.00160e-03        00000 
-1.26016e+00  3.04196e+00        00000 
-9.88372e-01  2.88930e+00        00000 
-6.94236e-01  2.72875e+00        00000 
-5.23667e-03  1.53421e-01        00000 
-3.15980e-02  2.73347e-01        00000 
-1.56859e-02  2.55626e-01        00000 
-9.78334e-03 -2.53441e-02        00000 
 2.50781e-02  1.72324e-01        00000 
-9.20880e-02  4.41106e-01        00000 
-1.60571e+00  3.39716e+00        00000 
-1.38332e+00  3.28687e+00        00000 
-1.11311e+00  3.13420e+00        00000 
-8.10842e-01  2.96478e+00        00000 
 7.70952e-02  2.00895e-01        00000 
 7.48146e-02  3.51607e-01        00000 
 3.99745e-02  4.92048e-01        00000 
-1.24535e-01  8.20863e-01        00000 
-1.71357e+00  3.62534e+00        00000 
-1.51929e+00  3.53663e+00        00000 
 1.63879e-01  4.27136e-01        00000 
-9.34752e-01  3.20794e+00        00000 
-1.26107e+00  3.40954e+00        00000 
 1.52302e-01  5.75970e-01        00000 
 9.82178e-02  7.84533e-01        00000 
-9.41359e-02  1.09393e+00        00000 
-1.65539e+00  3.73650e+00        00000 
 2.50688e-01  6.53376e-01        00000 
-1.82142e+00  3.85353e+00        00000 
 2.31891e-01  8.21755e-01        00000 
-1.07428e+00  3.45902e+00        00000 
-1.75454e+00  3.87037e+00        00000 
 1.33815e-01  1.07767e+00        00000 
-1.42438e+00  3.73307e+00        00000 
-3.73368e-02  1.34228e+00        00000 
 3.37490e-01  8.79616e-01        00000 
-1.63870e+00  3.90517e+00        00000 
 3.02794e-01  1.07824e+00        00000 
-1.92928e+00  4.08171e+00        00000 
-1.79364e+00  4.02186e+00        00000 
 1.83314e-01  1.33139e+00        00000 
-1.26958e+00  3.75558e+00        00000 
 2.85617e-02  1.57679e+00        00000 
 4.24294e-01  1.10586e+00        00000 
-1.23873e+00  3.76889e+00        00000 
 3.65596e-01  1.32353e+00        00000 
-2.03711e+00  4.30989e+00        00000 
-1.07025e+00  3.73391e+00        00000 
 2.43015e-01  1.56876e+00        00000 
-1.86498e+00  4.23091e+00        00000 
-1.68560e+00  4.13089e+00        00000 
-1.49919e+00  4.01940e+00        00000 
 1.00612e-01  1.80696e+00        00000 
-1.33918e+00  3.95511e+00        00000 
 5.11097e-01  1.33210e+00        00000 
-8.88578e-01  3.70152e+00        00000 
 4.32824e-01  1.55832e+00        00000 
-1.20761e+00  3.91609e+00        00000 
-7.05893e-01  3.66733e+00        00000 
 3.13305e-01  1.79883e+00        00000 
-2.14504e+00  4.53807e+00        00000 
-1.04436e+00  3.89562e+00        00000 
-1.94882e+00  4.45998e+00        00000 
 1.77704e-01  2.03611e+00        00000 
-1.75393e+00  4.37256e+00        00000 
 5.97901e-01  1.55834e+00        00000 
-1.56327e+00  4.27943e+00        00000 
-5.17747e-01  3.62583e+00        00000 
-8.68383e-01  3.86650e+00        00000 
 5.07227e-01  1.78908e+00        00000 
-1.38306e+00  4.20304e+00        00000 
-3.71582e-01  3.59319e+00        00000 
 3.89397e-01  2.02949e+00        00000 
-6.96135e-01  3.83048e+00        00000 
-1.20260e+00  4.13044e+00        00000 
-2.25259e+00  4.76625e+00        00000 
-2.21100e-01  3.56271e+00        00000 
 2.59446e-01  2.26540e+00        00000 
-1.01240e+00  4.07673e+00        00000 
 6.84705e-01  1.78458e+00        00000 
-2.03237e+00  4.69594e+00        00000 
-5.20383e-01  3.78743e+00        00000 
-1.81764e+00  4.62568e+00        00000 
 5.85443e-01  2.01786e+00        00000 
-8.44451e-01  4.03803e+00        00000 
-1.60956e+00  4.55549e+00        00000 
-3.74704e-01  3.77305e+00        00000 
-7.06269e-02  3.58753e+00        00000 
 4.70443e-01  2.25898e+00        00000 
-1.40222e+00  4.48530e+00        00000 
-6.87474e-01  3.99735e+00        00000 
-1.21806e+00  4.41535e+00        00000 
 7.71508e-01  2.01082e+00        00000 
 3.45374e-01  2.49516e+00        00000 
-5.25413e-01  3.94993e+00        00000 
-2.22929e-01  3.76155e+00        00000 
-9.81610e-01  4.28868e+00        00000 
 6.69804e-01  2.24714e+00        00000 
 7.89153e-02  3.61420e+00        00000 
-8.28625e-01  4.20873e+00        00000 
-3.78802e-01  3.94376e+00        00000 
-7.01685e-02  3.76893e+00        00000 
 5.55984e-01  2.48872e+00        00000 
-6.78526e-01  4.15315e+00        00000 
 8.58312e-01  2.23706e+00        00000 
-5.34176e-01  4.11283e+00        00000 
 4.35111e-01  2.72603e+00        00000 
-2.23803e-01  3.93984e+00        00000 
 8.05849e-02  3.78014e+00        00000 
 2.79219e-01  3.65046e+00        00000 
 7.56143e-01  2.47599e+00        00000 
-3.83141e-01  4.11860e+00        00000 
-6.75587e-02  3.94225e+00        00000 
 6.46702e-01  2.71806e+00        00000 
-5.56938e-01  4.29924e+00        00000 
 9.45115e-01  2.46330e+00        00000 
-2.24128e-01  4.12064e+00        00000 
 5.28830e-01  2.95963e+00        00000 
 8.44573e-02  3.94663e+00        00000 
 2.64334e-01  3.82083e+00        00000 
 4.76353e-01  3.68369e+00        00000 
-4.09105e-01  4.28786e+00        00000 
 8.44649e-01  2.70485e+00        00000 
-6.42205e-02  4.11929e+00        00000 
 7.44386e-01  2.95248e+00        00000 
-5.69154e-01  4.48479e+00        00000 
-2.65044e-01  4.31554e+00        00000 
-4.40671e-01  4.44056e+00        00000 
 1.03192e+00  2.68954e+00        00000 
 2.49168e-01  3.99239e+00        00000 
 9.14224e-02  4.11484e+00        00000 
 6.28648e-01  3.20031e+00        00000 
 4.45867e-01  3.85635e+00        00000 
 6.70017e-01  3.71787e+00        00000 
 9.38076e-01  2.93585e+00        00000 
-8.47895e-02  4.31905e+00        00000 
-5.72146e-01  4.67368e+00        00000 
-3.45389e-01  4.54952e+00        00000 
 8.47892e-01  3.19593e+00        00000 
 1.11872e+00  2.91578e+00        00000 
 2.34762e-01  4.15492e+00        00000 
 4.11313e-01  4.03180e+00        00000 
 6.29650e-01  3.88897e+00        00000 
 1.08539e-01  4.32421e+00        00000 
 7.44537e-01  3.45159e+00        00000 
 8.46375e-01  3.75413e+00        00000 
 1.03516e+00  3.17170e+00        00000 
-1.09178e-01  4.53956e+00        00000 
-5.64009e-01  4.86735e+00        00000 
 3.82413e-01  4.20467e+00        00000 
-3.48366e-01  4.79830e+00        00000 
 9.68959e-01  3.46991e+00        00000 
 1.20553e+00  3.14202e+00        00000 
 5.81569e-01  4.07035e+00        00000 
 7.95298e-01  3.91106e+00        00000 
 1.16273e-01  4.53426e+00        00000 
 9.03227e-01  3.73646e+00        00000 
-5.70511e-01  5.05017e+00        00000 
 1.13539e+00  3.41621e+00        00000 
-1.17254e-01  4.76452e+00        00000 
 5.31304e-01  4.26924e+00        00000 
 7.59720e-01  4.12011e+00        00000 
-3.55056e-01  5.00528e+00        00000 
 1.29233e+00  3.36826e+00        00000 
 9.33053e-01  3.95449e+00        00000 
 1.18404e-01  4.74757e+00        00000 
-5.95112e-01  5.23316e+00        00000 
 1.09857e+00  3.78605e+00        00000 
-1.22902e-01  4.97860e+00        00000 
 1.24192e+00  3.65497e+00        00000 
 7.36858e-01  4.36861e+00        00000 
 9.23687e-01  4.18313e+00        00000 
-3.62504e-01  5.20103e+00        00000 
 1.37913e+00  3.59450e+00        00000 
 1.09352e+00  4.03533e+00        00000 
 1.16941e-01  4.96499e+00        00000 
-6.14869e-01  5.41611e+00        00000 
-1.25257e-01  5.18256e+00        00000 
 1.35166e+00  3.83201e+00        00000 
 8.90743e-01  4.42838e+00        00000 
 1.08606e+00  4.25848e+00        00000 
-3.73633e-01  5.39655e+00        00000 
 1.46594e+00  3.82074e+00        00000 
 1.34752e+00  4.01520e+00        00000 
 1.05344e-01  5.17396e+00        00000 
-6.35905e-01  5.59906e+00        00000 
 1.26483e+00  4.16795e+00        00000 
 1.07003e+00  4.48789e+00        00000 
-1.29906e-01  5.38448e+00        00000 
 1.24984e+00  4.34766e+00        00000 
-3.84744e-01  5.59656e+00        00000 
 1.55274e+00  4.04698e+00        00000 
 1.38251e+00  4.28269e+00        00000 
 1.14010e-01  5.38273e+00        00000 
 1.47985e+00  4.25659e+00        00000 
 1.24812e+00  4.54742e+00        00000 
-1.33564e-01  5.59405e+00        00000 
 1.40254e+00  4.42523e+00        00000 
 1.63953e+00  4.27322e+00        00000 
 1.17270e-01  5.59155e+00        00000 
 1.43216e+00  4.60689e+00        00000 
 1.55678e+00  4.46133e+00        00000 
 1.72639e+00  4.49946e+00        00000 
 1.62015e+00  4.66632e+00        00000 
 1.81298e+00  4.72570e+00        00000 
-2.09456e+00  4.15554e+00        00000 
-1.92699e+00  4.25005e+00        00000 
-2.12901e+00  4.47655e+00        00000 
-1.75764e+00  4.34453e+00        00000 
-1.93641e+00  4.56898e+00        00000 
-2.16356e+00  4.79755e+00        00000 
-4.63316e-01  2.94065e+00        00000 
-1.58677e+00  4.43901e+00        00000 
-1.74371e+00  4.66042e+00        00000 
-2.19809e+00  5.11856e+00        00000 
-1.95085e+00  4.88969e+00        00000 
-2.76503e-01  2.93879e+00        00000 
-4.71993e-01  3.23562e+00        00000 
-1.41384e+00  4.53346e+00        00000 
-1.54834e+00  4.74808e+00        00000 
-2.23263e+00  5.43957e+00        00000 
-1.73289e+00  4.97640e+00        00000 
-1.97141e+00  5.21067e+00        00000 
-2.80453e-01  3.22913e+00        00000 
-8.98154e-02  2.93693e+00        00000 
-4.82129e-01  3.53061e+00        00000 
-1.24075e+00  4.62791e+00        00000 
-1.36061e+00  4.82786e+00        00000 
-9.28320e-02  3.22740e+00        00000 
-2.84627e-01  3.51469e+00        00000 
 9.69976e-02  2.93508e+00        00000 
-2.26716e+00  5.76057e+00        00000 
-4.86804e-01  3.82554e+00        00000 
-1.50863e+00  5.05854e+00        00000 
-1.99839e+00  5.53697e+00        00000 
-1.73294e+00  5.30051e+00        00000 
-1.06048e+00  4.72228e+00        00000 
-9.40269e-02  3.51328e+00        00000 
 9.62027e-02  3.22997e+00        00000 
-1.18118e+00  4.89698e+00        00000 
-3.03250e-01  3.78053e+00        00000 
-5.58872e-01  4.03915e+00        00000 
-2.30169e+00  6.08158e+00        00000 
-1.31819e+00  5.11217e+00        00000 
-2.02755e+00  5.87500e+00        00000 
-1.74808e+00  5.64726e+00        00000 
-1.46460e+00  5.39633e+00        00000 
-8.75011e-01  4.79593e+00        00000 
-8.01706e-02  3.77753e+00        00000 
 9.68669e-02  3.52484e+00        00000 
-3.10023e-01  4.02818e+00        00000 
-5.90505e-01  4.30594e+00        00000 
-1.00170e+00  4.94450e+00        00000 
-1.14488e+00  5.13308e+00        00000 
-2.33623e+00  6.40258e+00        00000 
-2.05031e+00  6.21299e+00        00000 
-1.30655e+00  5.33882e+00        00000 
-1.75336e+00  6.01288e+00        00000 
-1.42852e+00  5.80497e+00        00000 
 9.20707e-02  3.81978e+00        00000 
-7.77547e-02  4.02794e+00        00000 
-7.13842e-01  4.84685e+00        00000 
-3.17639e-01  4.29856e+00        00000 
-5.92658e-01  4.57830e+00        00000 
-8.28832e-01  4.97102e+00        00000 
-9.60178e-01  5.14943e+00        00000 
-2.37076e+00  6.72359e+00        00000 
-1.12411e+00  5.32939e+00        00000 
-2.07236e+00  6.54385e+00        00000 
 1.66859e-01  4.03612e+00        00000 
-1.76265e+00  6.35780e+00        00000 
-7.30521e-02  4.29673e+00        00000 
-6.94972e-01  4.97325e+00        00000 
-3.17697e-01  4.57929e+00        00000 
-1.42463e+00  6.16220e+00        00000 
-5.63961e-01  4.86499e+00        00000 
-7.56799e-01  5.17049e+00        00000 
-6.67760e-01  5.09654e+00        00000 
-5.54053e-01  5.00955e+00        00000 
-9.40149e-01  5.34387e+00        00000 
 1.97066e-01  4.30451e+00        00000 
-2.40529e+00  7.04460e+00        00000 
-7.54836e-02  4.58056e+00        00000 
-2.09748e+00  6.87086e+00        00000 
-3.21232e-01  4.84473e+00        00000 
-1.77965e+00  6.69147e+00        00000 
-1.43932e+00  6.50250e+00        00000 
-5.45899e-01  5.15020e+00        00000 
 1.96137e-01  4.57740e+00        00000 
-7.51457e-02  4.84322e+00        00000 
-7.48977e-01  5.37631e+00        00000 
-3.24272e-01  5.08060e+00        00000 
-2.43983e+00  7.36560e+00        00000 
-4.23948e-01  5.17663e+00        00000 
-2.12606e+00  7.19600e+00        00000 
-5.43919e-01  5.28448e+00        00000 
-1.80292e+00  7.01992e+00        00000 
-1.46110e+00  6.83379e+00        00000 
 1.63460e-01  4.86152e+00        00000 
-3.97401e-01  5.29887e+00        00000 
-6.94902e-02  5.06265e+00        00000 
-5.41875e-01  5.41950e+00        00000 
-2.47436e+00  7.68661e+00        00000 
 3.06023e-01  4.83995e+00        00000 
-2.15753e+00  7.52030e+00        00000 
-2.40845e-01  5.28124e+00        00000 
-1.83096e+00  7.34649e+00        00000 
-1.48731e+00  7.16166e+00        00000 
 1.49744e-01  5.04975e+00        00000 
-3.74624e-01  5.45542e+00        00000 
 4.58253e-01  4.78840e+00        00000 
-4.68426e-02  5.25742e+00        00000 
 3.19561e-01  5.00164e+00        00000 
 6.37123e-01  4.70535e+00        00000 
-2.50889e+00  8.00762e+00        00000 
-2.01627e-01  5.48577e+00        00000 
-2.19145e+00  7.84424e+00        00000 
 1.40664e-01  5.23145e+00        00000 
-1.86261e+00  7.67212e+00        00000 
-1.51712e+00  7.48846e+00        00000 
 4.77348e-01  4.96820e+00        00000 
 8.20482e-01  4.60735e+00        00000 
-2.93933e-02  5.45073e+00        00000 
 3.29710e-01  5.18469e+00        00000 
 9.96666e-01  4.50942e+00        00000 
 6.47282e-01  4.92486e+00        00000 
 1.35974e-01  5.41108e+00        00000 
-2.54343e+00  8.32862e+00        00000 
-2.22826e+00  8.16873e+00        00000 
-1.89752e+00  7.99739e+00        00000 
 5.03225e-01  5.15164e+00        00000 
-1.55025e+00  7.81509e+00        00000 
 1.17268e+00  4.41149e+00        00000 
 8.23784e-01  4.86209e+00        00000 
 3.39379e-01  5.36023e+00        00000 
 6.74287e-01  5.12713e+00        00000 
 1.34664e+00  4.31358e+00        00000 
 1.00726e+00  4.78052e+00        00000 
-2.57796e+00  8.64963e+00        00000 
-2.26654e+00  8.49455e+00        00000 
 5.24598e-01  5.32395e+00        00000 
-1.93604e+00  8.32332e+00        00000 
 1.51909e+00  4.21569e+00        00000 
-1.58658e+00  8.14197e+00        00000 
 1.19814e+00  4.68180e+00        00000 
 8.41304e-01  5.10805e+00        00000 
 1.36438e+00  4.56589e+00        00000 
 7.04367e-01  5.30446e+00        00000 
 1.68974e+00  4.11782e+00        00000 
 1.02330e+00  5.05872e+00        00000 
-2.61249e+00  8.97064e+00        00000 