<?xml version="1.0" encoding="utf-8"?>
<VTKFile byte_order="LittleEndian" type="UnstructuredGrid" version="0.1">
   <UnstructuredGrid>
      <Piece NumberOfCells="1064" NumberOfPoints="1404">
         <Points>
            <DataArray Name="Points" NumberOfComponents="3" format="ascii" type="Float32">
-1.1125 1.0007 0.0000
-1.0821 0.9070 0.0000
-1.0113 1.0007 0.0000
-1.0518 0.8133 0.0000
-0.9759 0.9056 0.0000
-0.9102 1.0007 0.0000
-1.4905 0.1573 0.0000
-1.0215 0.7196 0.0000
-0.9415 0.8092 0.0000
-0.8091 1.0007 0.0000
-0.8702 0.9033 0.0000
-1.4905 0.0524 0.0000
-1.3975 0.1573 0.0000
-0.9911 0.6258 0.0000
-0.9094 0.7109 0.0000
-0.7079 1.0007 0.0000
-0.8314 0.8038 0.0000
-0.7651 0.9010 0.0000
-1.3980 0.0523 0.0000
-1.4905 -0.0524 0.0000
-1.3045 0.1573 0.0000
-0.9608 0.5321 0.0000
-0.8800 0.6125 0.0000
-1.3981 -0.0525 0.0000
-1.3061 0.0521 0.0000
-1.4905 -0.1573 0.0000
-0.6068 1.0007 0.0000
-1.2115 0.1573 0.0000
-0.7946 0.7021 0.0000
-0.6618 0.8997 0.0000
-0.7203 0.7993 0.0000
-0.9305 0.4384 0.0000
-1.3061 -0.0530 0.0000
-1.3975 -0.1573 0.0000
-0.8526 0.5132 0.0000
-1.2128 0.0519 0.0000
-1.1185 0.1573 0.0000
-0.5057 1.0007 0.0000
-0.7676 0.5994 0.0000
-0.5588 0.8996 0.0000
-0.6152 0.7975 0.0000
-0.6715 0.6925 0.0000
-0.9001 0.3447 0.0000
-1.2132 -0.0532 0.0000
-1.3045 -0.1573 0.0000
-1.1203 0.0516 0.0000
-1.0255 0.1573 0.0000
-0.8278 0.4133 0.0000
-0.7437 0.4941 0.0000
-0.4045 1.0007 0.0000
-0.4565 0.8997 0.0000
-0.6525 0.5853 0.0000
-0.5112 0.7974 0.0000
-0.5682 0.6925 0.0000
-1.2115 -0.1573 0.0000
-1.1198 -0.0530 0.0000
-0.8698 0.2510 0.0000
-1.0266 0.0519 0.0000
-0.9325 0.1573 0.0000
-0.8070 0.3156 0.0000
-0.7226 0.3865 0.0000
-0.3034 1.0007 0.0000
-0.6334 0.4781 0.0000
-0.3544 0.8997 0.0000
-1.1185 -0.1573 0.0000
-0.4080 0.7974 0.0000
-1.0271 -0.0531 0.0000
-0.7965 0.2360 0.0000
-0.9336 0.0519 0.0000
-0.4649 0.6925 0.0000
-0.8395 0.1573 0.0000
-0.7011 0.2684 0.0000
-0.7354 0.2204 0.0000
-0.7736 0.1571 0.0000
-0.6143 0.3708 0.0000
-1.0255 -0.1573 0.0000
-0.2023 1.0007 0.0000
-0.9332 -0.0527 0.0000
-0.2524 0.8998 0.0000
-0.8395 0.0524 0.0000
-0.3052 0.7974 0.0000
-0.3616 0.6925 0.0000
-0.7078 0.1568 0.0000
-0.9325 -0.1573 0.0000
-0.8395 -0.0524 0.0000
-0.5952 0.2636 0.0000
-0.7392 0.0538 0.0000
-0.1011 1.0007 0.0000
-0.6941 0.0995 0.0000
-0.1504 0.8998 0.0000
-0.6420 0.1566 0.0000
-0.2025 0.7975 0.0000
-0.2583 0.6925 0.0000
-0.8395 -0.1573 0.0000
-0.6354 0.0879 0.0000
-0.7460 -0.0561 0.0000
-0.5762 0.1564 0.0000
0.0000 1.0007 0.0000
-0.8698 -0.2510 0.0000
-0.0485 0.8999 0.0000
-0.6438 0.0178 0.0000
-0.0998 0.7976 0.0000
-0.1550 0.6925 0.0000
-0.7517 -0.1571 0.0000
-0.5622 0.0782 0.0000
-0.9001 -0.3447 0.0000
-0.6537 -0.0686 0.0000
-0.7787 -0.2543 0.0000
-0.9305 -0.4384 0.0000
0.1011 1.0007 0.0000
-0.5483 -0.0000 0.0000
0.0534 0.9000 0.0000
-0.6640 -0.1569 0.0000
0.0029 0.7976 0.0000
-0.0517 0.6925 0.0000
-0.8053 -0.3522 0.0000
-0.9608 -0.5321 0.0000
-0.5623 -0.0784 0.0000
-0.6873 -0.2582 0.0000
-0.9911 -0.6258 0.0000
-0.8323 -0.4507 0.0000
-0.5762 -0.1568 0.0000
0.2023 1.0007 0.0000
0.1554 0.9002 0.0000
0.1054 0.7976 0.0000
-0.7100 -0.3614 0.0000
0.0517 0.6925 0.0000
-1.0215 -0.7196 0.0000
-0.8599 -0.5498 0.0000
-0.5953 -0.2639 0.0000
-0.7332 -0.4640 0.0000
-1.0518 -0.8133 0.0000
-0.8897 -0.6494 0.0000
0.3034 1.0007 0.0000
0.2577 0.9000 0.0000
-0.6144 -0.3711 0.0000
0.2080 0.7977 0.0000
-1.0821 -0.9070 0.0000
0.1550 0.6925 0.0000
-0.9236 -0.7470 0.0000
-0.7570 -0.5679 0.0000
-0.9642 -0.8289 0.0000
-0.6334 -0.4782 0.0000
-1.1125 -1.0007 0.0000
-0.7844 -0.6750 0.0000
0.4045 1.0007 0.0000
-0.9892 -0.9126 0.0000
0.3615 0.9013 0.0000
0.3114 0.7980 0.0000
0.2583 0.6925 0.0000
-0.8949 -0.8453 0.0000
-0.6525 -0.5854 0.0000
-0.8205 -0.7923 0.0000
-1.0113 -1.0007 0.0000
-0.9001 -0.9147 0.0000
-0.6715 -0.6925 0.0000
0.5057 1.0007 0.0000
0.4668 0.9039 0.0000
0.4166 0.7984 0.0000
0.3616 0.6925 0.0000
-0.9102 -1.0007 0.0000
-0.8071 -0.9011 0.0000
-0.6944 -0.7948 0.0000
-0.5682 -0.6925 0.0000
0.6068 1.0007 0.0000
0.5735 0.9135 0.0000
-0.8091 -1.0007 0.0000
0.4649 0.6925 0.0000
0.5287 0.8020 0.0000
-0.7006 -0.8989 0.0000
-0.5852 -0.7957 0.0000
-0.4649 -0.6925 0.0000
0.6592 0.9384 0.0000
-0.7079 -1.0007 0.0000
0.7079 1.0007 0.0000
-0.5968 -0.8994 0.0000
0.5682 0.6925 0.0000
0.7179 0.9589 0.0000
-0.4794 -0.7962 0.0000
0.6623 0.8108 0.0000
-0.3616 -0.6925 0.0000
-0.6068 -1.0007 0.0000
0.7377 0.8847 0.0000
-0.4926 -0.8992 0.0000
0.8091 1.0007 0.0000
0.7867 0.9406 0.0000
-0.3752 -0.7965 0.0000
0.6715 0.6925 0.0000
-0.2583 -0.6925 0.0000
-0.5057 -1.0007 0.0000
0.6525 0.5854 0.0000
-0.3901 -0.8986 0.0000
0.9102 1.0007 0.0000
0.6334 0.4783 0.0000
-0.2720 -0.7957 0.0000
0.8808 0.9249 0.0000
0.8425 0.8490 0.0000
0.7995 0.7655 0.0000
-0.1550 -0.6925 0.0000
0.7782 0.6672 0.0000
-0.4045 -1.0007 0.0000
0.6144 0.3712 0.0000
-0.2879 -0.8982 0.0000
0.7559 0.5662 0.0000
0.5953 0.2641 0.0000
-0.1698 -0.7960 0.0000
1.0113 1.0007 0.0000
0.7324 0.4634 0.0000
0.9814 0.9141 0.0000
-0.0517 -0.6925 0.0000
0.9481 0.8282 0.0000
-0.3034 -1.0007 0.0000
0.9138 0.7394 0.0000
0.5763 0.1570 0.0000
0.7097 0.3613 0.0000
-0.1859 -0.8984 0.0000
0.8856 0.6453 0.0000
0.5623 0.0785 0.0000
-0.0666 -0.7957 0.0000
0.6869 0.2583 0.0000
0.8591 0.5486 0.0000
1.1125 1.0007 0.0000
0.5483 -0.0000 0.0000
0.0517 -0.6925 0.0000
0.8320 0.4506 0.0000
-0.2023 -1.0007 0.0000
1.0821 0.9070 0.0000
0.6640 0.1571 0.0000
1.0518 0.8133 0.0000
-0.0841 -0.8980 0.0000
0.8051 0.3522 0.0000
1.0215 0.7196 0.0000
0.6579 0.0787 0.0000
0.5622 -0.0779 0.0000
0.0362 -0.7954 0.0000
0.9911 0.6258 0.0000
0.7784 0.2542 0.0000
0.9608 0.5321 0.0000
-0.1011 -1.0007 0.0000
0.1550 -0.6925 0.0000
0.7517 0.1572 0.0000
0.6532 0.0003 0.0000
0.9305 0.4384 0.0000
0.0180 -0.8986 0.0000
0.5761 -0.1558 0.0000
0.9001 0.3447 0.0000
0.7495 0.0787 0.0000
0.6577 -0.0779 0.0000
0.1390 -0.7952 0.0000
0.8698 0.2510 0.0000
0.0000 -1.0007 0.0000
0.8395 0.1573 0.0000
0.2583 -0.6925 0.0000
0.7479 0.0002 0.0000
0.6639 -0.1563 0.0000
0.5952 -0.2631 0.0000
0.1200 -0.8988 0.0000
0.8395 0.0786 0.0000
0.7494 -0.0782 0.0000
0.2411 -0.7958 0.0000
0.9208 0.1573 0.0000
0.1011 -1.0007 0.0000
0.8395 -0.0000 0.0000
0.3616 -0.6925 0.0000
0.7517 -0.1568 0.0000
0.6865 -0.2555 0.0000
0.6143 -0.3705 0.0000
0.9175 0.0894 0.0000
0.2219 -0.8987 0.0000
0.8395 -0.0786 0.0000
0.3444 -0.7970 0.0000
1.0022 0.1573 0.0000
0.9299 0.0193 0.0000
0.9837 0.1007 0.0000
0.2023 -1.0007 0.0000
0.7772 -0.2480 0.0000
0.8395 -0.1573 0.0000
0.4649 -0.6925 0.0000
0.7087 -0.3554 0.0000
0.6334 -0.4778 0.0000
0.3240 -0.8995 0.0000
0.9316 -0.0677 0.0000
1.0836 0.1573 0.0000
1.0312 0.0555 0.0000
0.4492 -0.7978 0.0000
0.3034 -1.0007 0.0000
0.8668 -0.2416 0.0000
0.8022 -0.3403 0.0000
0.7321 -0.4553 0.0000
0.9325 -0.1573 0.0000
0.5682 -0.6925 0.0000
0.6525 -0.5852 0.0000
0.4269 -0.9007 0.0000
1.0280 -0.0555 0.0000
1.1650 0.1573 0.0000
0.8941 -0.3260 0.0000
1.1377 0.0532 0.0000
0.5607 -0.8008 0.0000
0.4045 -1.0007 0.0000
0.8278 -0.4327 0.0000
0.7549 -0.5537 0.0000
1.0255 -0.1573 0.0000
0.6715 -0.6925 0.0000
1.2464 0.1573 0.0000
0.5325 -0.9036 0.0000
1.1252 -0.0528 0.0000
0.9214 -0.4103 0.0000
0.8538 -0.5241 0.0000
1.2295 0.0529 0.0000
0.5057 -1.0007 0.0000
0.7812 -0.6504 0.0000
1.1185 -0.1573 0.0000
1.3277 0.1573 0.0000
0.6955 -0.8080 0.0000
1.2181 -0.0522 0.0000
0.6365 -0.9121 0.0000
0.9487 -0.4946 0.0000
0.8813 -0.6128 0.0000
1.3173 0.0527 0.0000
0.6068 -1.0007 0.0000
0.8152 -0.7435 0.0000
1.2115 -0.1573 0.0000
1.4091 0.1573 0.0000
1.3093 -0.0521 0.0000
0.7145 -0.9362 0.0000
0.9760 -0.5790 0.0000
0.9132 -0.6982 0.0000
1.4039 0.0526 0.0000
0.7079 -1.0007 0.0000
0.7989 -0.8959 0.0000
1.3045 -0.1573 0.0000
1.4905 0.1573 0.0000
0.8709 -0.8174 0.0000
1.0033 -0.6633 0.0000
1.3998 -0.0521 0.0000
0.9494 -0.7763 0.0000
1.4905 0.0524 0.0000
0.8091 -1.0007 0.0000
0.9194 -0.8601 0.0000
1.3975 -0.1573 0.0000
0.9061 -0.9178 0.0000
1.0306 -0.7477 0.0000
1.4905 -0.0524 0.0000
0.9813 -0.8452 0.0000
0.9102 -1.0007 0.0000
1.4905 -0.1573 0.0000
1.0579 -0.8320 0.0000
0.9961 -0.9192 0.0000
1.0113 -1.0007 0.0000
1.0852 -0.9164 0.0000
1.1125 -1.0007 0.0000
1.8685 1.0007 0.0000
1.8989 0.9070 0.0000
1.9697 1.0007 0.0000
1.9292 0.8133 0.0000
2.0051 0.9056 0.0000
2.0708 1.0007 0.0000
1.4905 0.1573 0.0000
1.9595 0.7196 0.0000
2.0395 0.8092 0.0000
2.1719 1.0007 0.0000
2.1108 0.9033 0.0000
1.4905 0.0524 0.0000
1.5835 0.1573 0.0000
1.9899 0.6258 0.0000
2.0716 0.7109 0.0000
2.2731 1.0007 0.0000
2.1496 0.8038 0.0000
2.2159 0.9010 0.0000
1.5830 0.0523 0.0000
1.4905 -0.0524 0.0000
1.6765 0.1573 0.0000
2.0202 0.5321 0.0000
2.1010 0.6125 0.0000
1.5829 -0.0525 0.0000
1.6749 0.0521 0.0000
1.4905 -0.1573 0.0000
2.3742 1.0007 0.0000
1.7695 0.1573 0.0000
2.1865 0.7021 0.0000
2.3192 0.8997 0.0000
2.2607 0.7993 0.0000
2.0505 0.4384 0.0000
1.6749 -0.0530 0.0000
1.5835 -0.1573 0.0000
2.1284 0.5132 0.0000
1.7682 0.0519 0.0000
1.8625 0.1573 0.0000
2.4753 1.0007 0.0000
2.2134 0.5994 0.0000
2.4222 0.8996 0.0000
2.3658 0.7975 0.0000
2.3095 0.6925 0.0000
2.0809 0.3447 0.0000
1.7678 -0.0532 0.0000
1.6765 -0.1573 0.0000
1.8607 0.0516 0.0000
1.9555 0.1573 0.0000
2.1532 0.4133 0.0000
2.2373 0.4941 0.0000
2.5765 1.0007 0.0000
2.5246 0.8997 0.0000
2.3285 0.5853 0.0000
2.4698 0.7974 0.0000
2.4128 0.6925 0.0000
1.7695 -0.1573 0.0000
1.8612 -0.0530 0.0000
2.1112 0.2510 0.0000
1.9544 0.0519 0.0000
2.0485 0.1573 0.0000
2.1740 0.3156 0.0000
2.2584 0.3865 0.0000
2.6776 1.0007 0.0000
2.3476 0.4781 0.0000
2.6266 0.8997 0.0000
1.8625 -0.1573 0.0000
2.5730 0.7974 0.0000
1.9539 -0.0531 0.0000
2.1846 0.2360 0.0000
2.0474 0.0519 0.0000
2.5161 0.6925 0.0000
2.1415 0.1573 0.0000
2.2799 0.2684 0.0000
2.2456 0.2204 0.0000
2.2074 0.1571 0.0000
2.3667 0.3708 0.0000
1.9555 -0.1573 0.0000
2.7787 1.0007 0.0000
2.0478 -0.0527 0.0000
2.7286 0.8998 0.0000
2.1415 0.0524 0.0000
2.6758 0.7974 0.0000
2.6194 0.6925 0.0000
2.2732 0.1568 0.0000
2.0485 -0.1573 0.0000
2.1415 -0.0524 0.0000
2.3858 0.2636 0.0000
2.2418 0.0538 0.0000
2.8799 1.0007 0.0000
2.2869 0.0995 0.0000
2.8306 0.8998 0.0000
2.3390 0.1566 0.0000
2.7785 0.7975 0.0000
2.7227 0.6925 0.0000
[...]
         <PointData>
            <DataArray Name="fValues" NumberOfComponents="3" format="ascii" type="Float64">
-1.18827e+00  2.01659e+00        00000 
-1.16734e+00  2.17826e+00        00000 
-1.50505e+00  2.55606e+00        00000 
-1.12782e+00  2.33991e+00        00000 
-1.39559e+00  2.66642e+00        00000 
-1.82299e+00  3.09554e+00        00000 
 7.96690e-07 -9.02428e-10        00000 
-1.07122e+00  2.50155e+00        00000 
-1.27901e+00  2.77903e+00        00000 
-2.14061e+00  3.63501e+00        00000 
-1.65561e+00  3.17480e+00        00000 
-2.65563e-07  3.00809e-10        00000 
-5.20438e-02  4.95847e-01        00000 
-9.97117e-01  2.66316e+00        00000 
-1.13450e+00  2.89359e+00        00000 
-2.45832e+00  4.17448e+00        00000 
-1.46167e+00  3.24470e+00        00000 
-1.93625e+00  3.69867e+00        00000 
-1.92054e-02  4.73679e-01        00000 
 2.65563e-07 -3.00809e-10        00000 
-1.04070e-01  9.91695e-01        00000 
-9.05715e-01  2.82476e+00        00000 
-9.80701e-01  3.01352e+00        00000 
 5.61477e-03  4.73533e-01        00000 
-4.16913e-02  9.61020e-01        00000 
-7.96690e-07  9.02427e-10        00000 
-2.77601e+00  4.71396e+00        00000 
-1.56165e-01  1.48754e+00        00000 
-1.20582e+00  3.32020e+00        00000 
-2.22973e+00  4.24641e+00        00000 
-1.69149e+00  3.76624e+00        00000 
-7.96587e-01  2.98633e+00        00000 
 1.52161e-02  9.61168e-01        00000 
 3.75089e-02  4.95746e-01        00000 
-8.41354e-01  3.13595e+00        00000 
-6.28065e-02  1.45838e+00        00000 
-2.08002e-01  1.98339e+00        00000 
-3.09370e+00  5.25343e+00        00000 
-9.66895e-01  3.38585e+00        00000 
-2.52551e+00  4.81885e+00        00000 
-1.93939e+00  4.35523e+00        00000 
-1.29345e+00  3.84608e+00        00000 
-6.71240e-01  3.14788e+00        00000 
 2.38185e-02  1.45643e+00        00000 
 7.50000e-02  9.91492e-01        00000 
-8.04458e-02  1.95046e+00        00000 
-2.60805e-01  2.47924e+00        00000 
-7.13687e-01  3.23935e+00        00000 
-8.01475e-01  3.42077e+00        00000 
-3.41139e+00  5.79290e+00        00000 
-2.81392e+00  5.38738e+00        00000 
-9.65168e-01  3.68500e+00        00000 
-2.19218e+00  4.97017e+00        00000 
-1.50711e+00  4.54284e+00        00000 
 1.12560e-01  1.48724e+00        00000 
 3.02803e-02  1.95370e+00        00000 
-5.24076e-01  3.30942e+00        00000 
-9.40747e-02  2.43811e+00        00000 
-3.10001e-01  2.97508e+00        00000 
-5.83083e-01  3.30969e+00        00000 
-6.65125e-01  3.44484e+00        00000 
-3.72908e+00  6.33238e+00        00000 
-7.90549e-01  3.61805e+00        00000 
-3.10435e+00  5.94277e+00        00000 
 1.49862e-01  1.98298e+00        00000 
-2.45779e+00  5.54669e+00        00000 
 3.42428e-02  2.43691e+00        00000 
-4.81613e-01  3.31125e+00        00000 
-1.20179e-01  2.85914e+00        00000 
-1.75484e+00  5.13605e+00        00000 
-3.56206e-01  3.20156e+00        00000 
-5.20013e-01  3.46554e+00        00000 
-4.54356e-01  3.40881e+00        00000 
-3.65039e-01  3.33813e+00        00000 
-6.50931e-01  3.60655e+00        00000 
 1.88130e-01  2.47873e+00        00000 
-4.04678e+00  6.87185e+00        00000 
 5.40189e-02  2.86126e+00        00000 
-3.40171e+00  6.49189e+00        00000 
-1.42304e-01  3.16356e+00        00000 
-2.73858e+00  6.10539e+00        00000 
-2.03158e+00  5.70356e+00        00000 
-3.52832e-01  3.45327e+00        00000 
 2.22791e-01  2.97448e+00        00000 
 6.92609e-02  3.16157e+00        00000 
-5.10803e-01  3.63415e+00        00000 
-1.50654e-01  3.38956e+00        00000 
-4.36447e+00  7.41133e+00        00000 
-2.44011e-01  3.47610e+00        00000 
-3.70528e+00  7.03810e+00        00000 
-3.48869e-01  3.56581e+00        00000 
-3.03065e+00  6.65654e+00        00000 
-2.32016e+00  6.25819e+00        00000 
 2.77892e-01  3.20481e+00        00000 
-2.18523e-01  3.58149e+00        00000 
 8.00961e-02  3.37522e+00        00000 
-3.44716e-01  3.68139e+00        00000 
-4.68216e+00  7.95080e+00        00000 
 4.27071e-01  3.30834e+00        00000 
-4.01305e+00  7.58299e+00        00000 
-7.50907e-02  3.56795e+00        00000 
-3.33038e+00  7.20530e+00        00000 
-2.61622e+00  6.80869e+00        00000 
 2.85091e-01  3.37601e+00        00000 
-1.96213e-01  3.72116e+00        00000 
 5.78976e-01  3.14647e+00        00000 
 1.03835e-01  3.54877e+00        00000 
 4.17407e-01  3.33576e+00        00000 
 7.09063e-01  2.98462e+00        00000 
-4.99985e+00  8.49027e+00        00000 
-3.81342e-02  3.75117e+00        00000 
-4.32334e+00  8.12722e+00        00000 
 2.71332e-01  3.52518e+00        00000 
-3.63439e+00  7.75290e+00        00000 
-2.91746e+00  7.35848e+00        00000 
 5.38073e-01  3.30799e+00        00000 
 8.22932e-01  2.82280e+00        00000 
 1.18376e-01  3.71853e+00        00000 
 4.24095e-01  3.48672e+00        00000 
 9.19074e-01  2.66099e+00        00000 
 6.71602e-01  3.21830e+00        00000 
 2.64874e-01  3.67904e+00        00000 
-5.31754e+00  9.02975e+00        00000 
-4.63610e+00  8.67214e+00        00000 
-3.94073e+00  8.30006e+00        00000 
 5.49667e-01  3.45971e+00        00000 
-3.22229e+00  7.90878e+00        00000 
 9.97922e-01  2.49920e+00        00000 
 8.04219e-01  3.10189e+00        00000 
 4.30052e-01  3.62830e+00        00000 
 6.74315e-01  3.43994e+00        00000 
 1.05926e+00  2.33744e+00        00000 
 9.52594e-01  2.97282e+00        00000 
-5.63523e+00  9.56922e+00        00000 
-4.94754e+00  9.21784e+00        00000 
 5.67640e-01  3.60184e+00        00000 
-4.24866e+00  8.84795e+00        00000 
 1.10352e+00  2.17569e+00        00000 
-3.52925e+00  8.45993e+00        00000 
 1.10066e+00  2.83744e+00        00000 
 8.18928e-01  3.41215e+00        00000 
 1.19920e+00  2.69034e+00        00000 
 7.06084e-01  3.61181e+00        00000 
 1.12919e+00  2.01396e+00        00000 
 1.04358e+00  3.34795e+00        00000 
-5.95293e+00  1.01087e+01        00000 
 1.30085e+00  2.60689e+00        00000 
-5.26979e+00  9.77322e+00        00000 
-4.56017e+00  9.40115e+00        00000 
-3.83707e+00  9.01191e+00        00000 
 1.35521e+00  3.00438e+00        00000 
 8.77942e-01  3.68098e+00        00000 
 1.34420e+00  3.27766e+00        00000 
 1.43017e+00  2.55274e+00        00000 
 1.51545e+00  3.03973e+00        00000 
 1.17577e+00  3.84343e+00        00000 
-6.27062e+00  1.06482e+01        00000 
-5.60001e+00  1.03348e+01        00000 
-4.87530e+00  9.96327e+00        00000 
-4.14481e+00  9.56427e+00        00000 
 1.73230e+00  3.09151e+00        00000 
 1.71291e+00  3.48393e+00        00000 
 1.61682e+00  3.89029e+00        00000 
 1.35860e+00  4.55967e+00        00000 
-6.58831e+00  1.11876e+01        00000 
-5.97350e+00  1.09063e+01        00000 
 2.03412e+00  3.63028e+00        00000 
-4.45214e+00  1.01155e+01        00000 
-5.22152e+00  1.05614e+01        00000 
 1.99379e+00  4.03054e+00        00000 
 1.87040e+00  4.53435e+00        00000 
 1.59473e+00  5.14958e+00        00000 
-6.37779e+00  1.13866e+01        00000 
 2.33602e+00  4.16905e+00        00000 
-6.90600e+00  1.17271e+01        00000 
 2.28076e+00  4.60264e+00        00000 
-4.75928e+00  1.06600e+01        00000 
-6.68106e+00  1.17256e+01        00000 
 2.11076e+00  5.15684e+00        00000 
-5.63402e+00  1.12518e+01        00000 
 1.85710e+00  5.71501e+00        00000 
 2.63790e+00  4.70782e+00        00000 
-6.28452e+00  1.17389e+01        00000 
 2.55810e+00  5.18514e+00        00000 
-7.22371e+00  1.22666e+01        00000 
-6.77671e+00  1.20714e+01        00000 
 2.36815e+00  5.73167e+00        00000 
-5.06919e+00  1.11823e+01        00000 
 2.12965e+00  6.26735e+00        00000 
 2.93979e+00  5.24660e+00        00000 
-4.54660e+00  1.09632e+01        00000 
 2.82686e+00  5.74758e+00        00000 
-7.54133e+00  1.28061e+01        00000 
-3.77713e+00  1.07510e+01        00000 
 2.63318e+00  6.28635e+00        00000 
-6.95256e+00  1.25694e+01        00000 
-6.34452e+00  1.22798e+01        00000 
-5.71716e+00  1.19537e+01        00000 
 2.40918e+00  6.81625e+00        00000 
-5.08644e+00  1.17670e+01        00000 
 3.24168e+00  5.78537e+00        00000 
-2.95791e+00  1.05815e+01        00000 
 3.10234e+00  6.29764e+00        00000 
-4.42819e+00  1.16199e+01        00000 
-2.13304e+00  1.04419e+01        00000 
 2.91154e+00  6.83216e+00        00000 
-7.85927e+00  1.33455e+01        00000 
-3.67422e+00  1.14667e+01        00000 
-7.15343e+00  1.31297e+01        00000 
 2.69366e+00  7.36486e+00        00000 
-6.44758e+00  1.28971e+01        00000 
 3.54356e+00  6.32414e+00        00000 
-5.74471e+00  1.26590e+01        00000 
-1.33030e+00  1.03168e+01        00000 
-2.88206e+00  1.12988e+01        00000 
 3.38792e+00  6.84356e+00        00000 
-5.03360e+00  1.24752e+01        00000 
-7.58816e-01  1.02237e+01        00000 
 3.19572e+00  7.38151e+00        00000 
-2.08525e+00  1.11305e+01        00000 
-4.31062e+00  1.23230e+01        00000 
-8.17605e+00  1.38850e+01        00000 
-1.92667e-01  1.01245e+01        00000 
 2.98167e+00  7.91424e+00        00000 
-3.56330e+00  1.21752e+01        00000 
 3.84545e+00  6.86291e+00        00000 
-7.34184e+00  1.37224e+01        00000 
-1.32639e+00  1.09643e+01        00000 
-6.52621e+00  1.35597e+01        00000 
 3.67548e+00  7.38666e+00        00000 
-2.80465e+00  1.20155e+01        00000 
-5.72766e+00  1.33971e+01        00000 
-7.57256e-01  1.09231e+01        00000 
 3.69846e-01  1.02210e+01        00000 
 3.48325e+00  7.92869e+00        00000 
-4.94662e+00  1.32346e+01        00000 
-2.04671e+00  1.18170e+01        00000 
-4.18288e+00  1.30720e+01        00000 
 4.14734e+00  7.40168e+00        00000 
 3.27166e+00  8.46457e+00        00000 
-1.31782e+00  1.16202e+01        00000 
-1.95262e-01  1.08888e+01        00000 
-3.43683e+00  1.29095e+01        00000 
 3.97259e+00  7.93187e+00        00000 
 9.39028e-01  1.03119e+01        00000 
-2.70718e+00  1.27469e+01        00000 
-7.57126e-01  1.15967e+01        00000 
 3.65814e-01  1.09205e+01        00000 
 3.77334e+00  8.47628e+00        00000 
-1.99863e+00  1.25844e+01        00000 
 4.44922e+00  7.94046e+00        00000 
-1.32659e+00  1.22632e+01        00000 
 3.56221e+00  9.01580e+00        00000 
-1.95163e-01  1.15822e+01        00000 
 9.37749e-01  1.09610e+01        00000 
 1.74733e+00  1.04371e+01        00000 
 4.26848e+00  8.47572e+00        00000 
-7.61685e-01  1.22420e+01        00000 
 3.66770e-01  1.15954e+01        00000 
 4.06605e+00  9.02165e+00        00000 
-1.35121e+00  1.28558e+01        00000 
 4.75111e+00  8.47923e+00        00000 
-1.95422e-01  1.22321e+01        00000 
 3.85224e+00  9.56753e+00        00000 
 9.31039e-01  1.16176e+01        00000 
 1.68517e+00  1.11255e+01        00000 
 2.57550e+00  1.05783e+01        00000 
-8.61364e-01  1.27717e+01        00000 
 4.56279e+00  9.01848e+00        00000 
 3.73632e-01  1.22398e+01        00000 
 4.36414e+00  9.57360e+00        00000 
-1.39427e+00  1.32897e+01        00000 
-3.44495e-01  1.28268e+01        00000 
-9.71204e-01  1.31627e+01        00000 
 5.05299e+00  9.01800e+00        00000 
 1.62375e+00  1.18057e+01        00000 
 9.39518e-01  1.22620e+01        00000 
 4.14111e+00  1.01180e+01        00000 
 2.45998e+00  1.12905e+01        00000 
 3.39561e+00  1.07480e+01        00000 
 4.86172e+00  9.56361e+00        00000 
 3.07780e-01  1.28460e+01        00000 
-1.44047e+00  1.37235e+01        00000 
-6.35490e-01  1.34145e+01        00000 
 4.66052e+00  1.01325e+01        00000 
 5.35488e+00  9.55677e+00        00000 
 1.56059e+00  1.25642e+01        00000 
 2.33828e+00  1.19961e+01        00000 
 3.23401e+00  1.14629e+01        00000 
 9.79121e-01  1.29152e+01        00000 
 4.42914e+00  1.06639e+01        00000 
 4.16636e+00  1.09587e+01        00000 
 5.16177e+00  1.01119e+01        00000 
 2.31694e-01  1.33976e+01        00000 
-1.48583e+00  1.41574e+01        00000 
 2.19104e+00  1.27090e+01        00000 
-6.37505e-01  1.39898e+01        00000 
 4.97897e+00  1.07219e+01        00000 
 5.65677e+00  1.00955e+01        00000 
 3.04734e+00  1.21509e+01        00000 
 3.96313e+00  1.16124e+01        00000 
 1.01406e+00  1.34109e+01        00000 
 4.71898e+00  1.11702e+01        00000 
-1.53141e+00  1.45913e+01        00000 
 5.47431e+00  1.06710e+01        00000 
 2.18268e-01  1.39212e+01        00000 
 2.83970e+00  1.28538e+01        00000 
 3.74515e+00  1.22944e+01        00000 
-6.54864e-01  1.44785e+01        00000 
 5.95865e+00  1.06343e+01        00000 
 4.61518e+00  1.17809e+01        00000 
 1.05226e+00  1.39066e+01        00000 
-1.57693e+00  1.50251e+01        00000 
 5.35990e+00  1.14109e+01        00000 
 2.20483e-01  1.44170e+01        00000 
 5.81835e+00  1.12241e+01        00000 
 3.50136e+00  1.29986e+01        00000 
 4.41467e+00  1.24501e+01        00000 
-6.74411e-01  1.49465e+01        00000 
 6.26054e+00  1.11731e+01        00000 
 5.24388e+00  1.20276e+01        00000 
 1.08958e+00  1.44024e+01        00000 
-1.62247e+00  1.54590e+01        00000 
 2.27842e-01  1.49028e+01        00000 
 6.18646e+00  1.16647e+01        00000 
 4.17742e+00  1.31434e+01        00000 
 5.06487e+00  1.26477e+01        00000 
-6.94702e-01  1.54118e+01        00000 
 6.56242e+00  1.17119e+01        00000 
 6.16953e+00  1.20732e+01        00000 
 1.12713e+00  1.48981e+01        00000 
-1.66801e+00  1.58929e+01        00000 
 5.83205e+00  1.24125e+01        00000 
 4.86749e+00  1.32881e+01        00000 
 2.37384e-01  1.53882e+01        00000 
 5.68503e+00  1.28853e+01        00000 
-7.11294e-01  1.58918e+01        00000 
 6.86432e+00  1.22506e+01        00000 
 6.22977e+00  1.27309e+01        00000 
 1.16462e+00  1.53939e+01        00000 
 6.59895e+00  1.26938e+01        00000 
 5.57166e+00  1.34329e+01        00000 
 2.45419e-01  1.58907e+01        00000 
 6.25385e+00  1.30961e+01        00000 
 7.16616e+00  1.27894e+01        00000 
 1.20213e+00  1.58896e+01        00000 
 6.29000e+00  1.35776e+01        00000 
 6.83901e+00  1.32031e+01        00000 
 7.46823e+00  1.33282e+01        00000 
 7.02216e+00  1.37223e+01        00000 
 7.76942e+00  1.38669e+01        00000 
-1.03124e+01  2.10408e+01        00000 
-9.44262e+00  2.14521e+01        00000 
-1.05652e+01  2.24157e+01        00000 
-8.55835e+00  2.18633e+01        00000 
-9.60884e+00  2.28309e+01        00000 
-1.08188e+01  2.37905e+01        00000 
-1.66801e+00  1.58929e+01        00000 
-7.66076e+00  2.22746e+01        00000 
-8.63611e+00  2.32390e+01        00000 
-1.10722e+01  2.51653e+01        00000 
-9.79301e+00  2.42218e+01        00000 
-7.11295e-01  1.58918e+01        00000 
-1.71382e+00  1.71570e+01        00000 
-6.74952e+00  2.26858e+01        00000 
-7.62424e+00  2.36280e+01        00000 
-1.13257e+01  2.65402e+01        00000 
-8.72642e+00  2.46336e+01        00000 
-9.99404e+00  2.56185e+01        00000 
-7.30124e-01  1.71335e+01        00000 
 2.45420e-01  1.58907e+01        00000 
-1.75962e+00  1.84211e+01        00000 
-5.82478e+00  2.30970e+01        00000 
-6.60803e+00  2.39956e+01        00000 
 2.45952e-01  1.71318e+01        00000 
-7.50289e-01  1.83812e+01        00000 
 1.20213e+00  1.58896e+01        00000 
-1.15792e+01  2.79150e+01        00000 
-1.80548e+00  1.96852e+01        00000 
-7.59262e+00  2.50321e+01        00000 
-1.02155e+01  2.70202e+01        00000 
-8.86436e+00  2.60817e+01        00000 
-4.88622e+00  2.35081e+01        00000 
 2.52836e-01  1.83802e+01        00000 
 1.22617e+00  1.71536e+01        00000 
-5.59692e+00  2.43451e+01        00000 
-7.70413e-01  1.96492e+01        00000 
-1.85113e+00  2.09492e+01        00000 
-1.18327e+01  2.92899e+01        00000 
-6.47288e+00  2.53298e+01        00000 
-1.04499e+01  2.84404e+01        00000 
-9.04278e+00  2.75359e+01        00000 
-7.56461e+00  2.65896e+01        00000 
-3.93500e+00  2.39193e+01        00000 
 2.56013e-01  1.96427e+01        00000 
 1.25019e+00  1.84176e+01        00000 
-7.85221e-01  2.09051e+01        00000 
-1.89754e+00  2.22133e+01        00000 
-4.58908e+00  2.46536e+01        00000 
-5.39140e+00  2.55694e+01        00000 
-1.20862e+01  3.06647e+01        00000 
-1.06783e+01  2.98532e+01        00000 
-6.34635e+00  2.66151e+01        00000 
-9.23756e+00  2.90056e+01        00000 
-7.71781e+00  2.81282e+01        00000 
 1.27427e+00  1.96816e+01        00000 
 2.54862e-01  2.09118e+01        00000 
-2.96677e+00  2.43304e+01        00000 
-8.02130e-01  2.21678e+01        00000 
-1.94113e+00  2.34774e+01        00000 
-3.59831e+00  2.48990e+01        00000 
-4.30793e+00  2.57765e+01        00000 
-1.23396e+01  3.20395e+01        00000 
-5.23816e+00  2.67270e+01        00000 
-1.09075e+01  3.12511e+01        00000 
 1.29814e+00  2.09456e+01        00000 
-9.44408e+00  3.04329e+01        00000 
 2.55013e-01  2.21620e+01        00000 
-2.79564e+00  2.49935e+01        00000 
-8.26371e-01  2.33674e+01        00000 
-7.90657e+00  2.95732e+01        00000 
-1.97945e+00  2.45111e+01        00000 
-3.12031e+00  2.59852e+01        00000 
-2.63224e+00  2.56268e+01        00000 
-1.98508e+00  2.52210e+01        00000 
-4.15535e+00  2.68877e+01        00000 
 1.32277e+00  2.22096e+01        00000 
-1.25931e+01  3.34144e+01        00000 
 2.65137e-01  2.33723e+01        00000 
-1.11432e+01  3.26423e+01        00000 
-8.51398e-01  2.44774e+01        00000 
-9.66448e+00  3.18404e+01        00000 
-8.12299e+00  3.09937e+01        00000 
-1.97299e+00  2.59123e+01        00000 
 1.34459e+00  2.34736e+01        00000 
 2.72725e-01  2.44740e+01        00000 
-3.07028e+00  2.70816e+01        00000 
-8.72246e-01  2.55742e+01        00000 
-1.28466e+01  3.47892e+01        00000 
-1.36384e+00  2.60543e+01        00000 
-1.13849e+01  3.40307e+01        00000 
-1.96796e+00  2.66010e+01        00000 
-9.89591e+00  3.32401e+01        00000 
-8.35062e+00  3.24019e+01        00000 
 1.39198e+00  2.45107e+01        00000 
-1.23762e+00  2.66727e+01        00000 
 3.13610e-01  2.54989e+01        00000 
-1.96272e+00  2.72922e+01        00000 
-1.31001e+01  3.61640e+01        00000 
 2.35555e+00  2.43242e+01        00000 
-1.16306e+01  3.54175e+01        00000 
-4.84361e-01  2.65849e+01        00000 
-1.01347e+01  3.46374e+01        00000 
-8.58537e+00  3.38059e+01        00000 
 1.39565e+00  2.54471e+01        00000 
-1.13184e+00  2.74502e+01        00000 
 3.33089e+00  2.39108e+01        00000 
 4.45669e-01  2.64782e+01        00000 
 2.38022e+00  2.51699e+01        00000 
 4.28920e+00  2.34974e+01        00000 
-1.33535e+01  3.75389e+01        00000 
-2.93228e-01  2.76001e+01        00000 
-1.18790e+01  3.68033e+01        00000 
 1.38237e+00  2.63652e+01        00000 
-1.03775e+01  3.60327e+01        00000 
-8.82524e+00  3.52090e+01        00000 
 3.36483e+00  2.49081e+01        00000 
 5.23487e+00  2.30841e+01        00000 
 5.45548e-01  2.74460e+01        00000 
 2.42309e+00  2.61228e+01        00000 
 6.16671e+00  2.26708e+01        00000 
 4.36745e+00  2.45904e+01        00000 
 1.37537e+00  2.72862e+01        00000 
-1.36070e+01  3.89137e+01        00000 
-1.21317e+01  3.81910e+01        00000 
-1.06229e+01  3.74265e+01        00000 
 3.45866e+00  2.58959e+01        00000 
-9.06896e+00  3.66124e+01        00000 
 7.08506e+00  2.22575e+01        00000 
 5.37194e+00  2.42441e+01        00000 
 2.47974e+00  2.70716e+01        00000 
 4.48922e+00  2.56722e+01        00000 
 7.98975e+00  2.18442e+01        00000 
 6.39458e+00  2.38637e+01        00000 
-1.38605e+01  4.02886e+01        00000 
-1.23809e+01  3.95818e+01        00000 
 3.56184e+00  2.68779e+01        00000 
-1.08713e+01  3.88217e+01        00000 
 8.88112e+00  2.14309e+01        00000 
-9.31539e+00  3.80166e+01        00000 
 7.40223e+00  2.34386e+01        00000 
 5.54170e+00  2.54390e+01        00000 
 8.23030e+00  2.29419e+01        00000 
 4.64382e+00  2.67138e+01        00000 
 9.75799e+00  2.10177e+01        00000 
 6.68343e+00  2.51392e+01        00000 
-1.41140e+01  4.16634e+01        00000 