<?xml version="1.0" encoding="utf-8"?>
<VTKFile byte_order="LittleEndian" type="UnstructuredGrid" version="0.1">
   <UnstructuredGrid>
      <Piece NumberOfCells="16048" NumberOfPoints="8668">
         <Points>
            <DataArray Name="Points" NumberOfComponents="3" format="ascii" type="Float32">
-1.0000 -0.8947 0.0000
-1.0000 -0.7895 0.0000
-1.0000 -0.6842 0.0000
-1.0000 -0.5789 0.0000
-1.0000 -0.4737 0.0000
-1.0000 -0.3684 0.0000
-1.0000 -0.2632 0.0000
-1.0000 -0.1579 0.0000
-1.0000 -0.0526 0.0000
-1.0000 0.0526 0.0000
-1.0000 0.1579 0.0000
-1.0000 0.2632 0.0000
-1.0000 0.3684 0.0000
-1.0000 0.4737 0.0000
-1.0000 0.5789 0.0000
-1.0000 0.6842 0.0000
-1.0000 0.7895 0.0000
-1.0000 0.8947 0.0000
-1.0000 1.0000 0.0000
-0.8947 -0.8947 0.0000
-0.8947 -0.7895 0.0000
-0.8947 -0.6842 0.0000
-0.8947 -0.5789 0.0000
-0.8947 -0.4737 0.0000
-0.8947 -0.3684 0.0000
-0.8947 -0.2632 0.0000
-0.8947 -0.1579 0.0000
-0.8947 -0.0526 0.0000
-0.8947 0.0526 0.0000
-0.8947 0.1579 0.0000
-0.8947 0.2632 0.0000
-0.8947 0.3684 0.0000
-0.8947 0.4737 0.0000
-0.8947 0.5789 0.0000
-0.8947 0.6842 0.0000
-0.8947 0.7895 0.0000
-0.8947 0.8947 0.0000
-0.8947 1.0000 0.0000
-0.7895 -0.8947 0.0000
-0.7895 -0.7895 0.0000
-0.7895 -0.6842 0.0000
-0.7895 -0.5789 0.0000
-0.7895 -0.4737 0.0000
-0.7895 -0.3684 0.0000
-0.7895 -0.2632 0.0000
-0.7895 -0.1579 0.0000
-0.7895 -0.0526 0.0000
-0.7895 0.0526 0.0000
-0.7895 0.1579 0.0000
-0.7895 0.2632 0.0000
-0.7895 0.3684 0.0000
-0.7895 0.4737 0.0000
-0.7895 0.5789 0.0000
-0.7895 0.6842 0.0000
-0.7895 0.7895 0.0000
-0.7895 0.8947 0.0000
-0.7895 1.0000 0.0000
-0.6842 -0.8947 0.0000
-0.6842 -0.7895 0.0000
-0.6842 -0.6842 0.0000
-0.6842 -0.5789 0.0000
-0.6842 -0.4737 0.0000
-0.6842 -0.3684 0.0000
-0.6842 -0.2632 0.0000
-0.6842 -0.1579 0.0000
-0.6842 -0.0526 0.0000
-0.6842 0.0526 0.0000
-0.6842 0.1579 0.0000
-0.6842 0.2632 0.0000
-0.6842 0.3684 0.0000
-0.6842 0.4737 0.0000
-0.6842 0.5789 0.0000
-0.6842 0.6842 0.0000
-0.6842 0.7895 0.0000
-0.6842 0.8947 0.0000
-0.6842 1.0000 0.0000
-0.5789 -0.8947 0.0000
-0.5789 -0.7895 0.0000
-0.5789 -0.6842 0.0000
-0.5789 -0.5789 0.0000
-0.5789 -0.4737 0.0000
-0.5789 -0.3684 0.0000
-0.5789 -0.2632 0.0000
-0.5789 -0.1579 0.0000
-0.5789 -0.0526 0.0000
-0.5789 0.0526 0.0000
-0.5789 0.1579 0.0000
-0.5789 0.2632 0.0000
-0.5789 0.3684 0.0000
-0.5789 0.4737 0.0000
-0.5789 0.5789 0.0000
-0.5789 0.6842 0.0000
-0.5789 0.7895 0.0000
-0.5789 0.8947 0.0000
-0.5789 1.0000 0.0000
-0.4737 -0.8947 0.0000
-0.4737 -0.7895 0.0000
-0.4737 -0.6842 0.0000
-0.4737 -0.5789 0.0000
-0.4737 -0.4737 0.0000
-0.4737 -0.3684 0.0000
-0.4737 -0.2632 0.0000
-0.4737 -0.1579 0.0000
-0.4737 -0.0526 0.0000
-0.4737 0.0526 0.0000
-0.4737 0.1579 0.0000
-0.4737 0.2632 0.0000
-0.4737 0.3684 0.0000
-0.4737 0.4737 0.0000
-0.4737 0.5789 0.0000
-0.4737 0.6842 0.0000
-0.4737 0.7895 0.0000
-0.4737 0.8947 0.0000
-0.4737 1.0000 0.0000
-0.3684 -0.8947 0.0000
-0.3684 -0.7895 0.0000
-0.3684 -0.6842 0.0000
-0.3684 -0.5789 0.0000
-0.3684 -0.4737 0.0000
-0.3684 -0.3684 0.0000
-0.3684 -0.2632 0.0000
-0.3684 -0.1579 0.0000
-0.3684 -0.0526 0.0000
-0.3684 0.0526 0.0000
-0.3684 0.1579 0.0000
-0.3684 0.2632 0.0000
-0.3684 0.3684 0.0000
-0.3684 0.4737 0.0000
-0.3684 0.5789 0.0000
-0.3684 0.6842 0.0000
-0.3684 0.7895 0.0000
-0.3684 0.8947 0.0000
-0.3684 1.0000 0.0000
-0.2632 -0.8947 0.0000
-0.2632 -0.7895 0.0000
-0.2632 -0.6842 0.0000
-0.2632 -0.5789 0.0000
-0.2632 -0.4737 0.0000
-0.2632 -0.3684 0.0000
-0.2632 -0.2632 0.0000
-0.2632 -0.1579 0.0000
-0.2632 -0.0526 0.0000
-0.2632 0.0526 0.0000
-0.2632 0.1579 0.0000
-0.2632 0.2632 0.0000
-0.2632 0.3684 0.0000
-0.2632 0.4737 0.0000
-0.2632 0.5789 0.0000
-0.2632 0.6842 0.0000
-0.2632 0.7895 0.0000
-0.2632 0.8947 0.0000
-0.2632 1.0000 0.0000
-0.1579 -0.8947 0.0000
-0.1579 -0.7895 0.0000
-0.1579 -0.6842 0.0000
-0.1579 -0.5789 0.0000
-0.1579 -0.4737 0.0000
-0.1579 -0.3684 0.0000
-0.1579 -0.2632 0.0000
-0.1579 -0.1579 0.0000
-0.1579 -0.0526 0.0000
-0.1579 0.1579 0.0000
-0.1579 0.2632 0.0000
-0.1579 0.3684 0.0000
-0.1579 0.4737 0.0000
-0.1579 0.5789 0.0000
-0.1579 0.6842 0.0000
-0.1579 0.7895 0.0000
-0.1579 0.8947 0.0000
-0.1579 1.0000 0.0000
-0.0526 -0.8947 0.0000
-0.0526 -0.7895 0.0000
-0.0526 -0.6842 0.0000
-0.0526 -0.5789 0.0000
-0.0526 -0.4737 0.0000
-0.0526 -0.3684 0.0000
-0.0526 -0.2632 0.0000
-0.0526 -0.1579 0.0000
-0.0526 0.2632 0.0000
-0.0526 0.3684 0.0000
-0.0526 0.4737 0.0000
-0.0526 0.5789 0.0000
-0.0526 0.6842 0.0000
-0.0526 0.7895 0.0000
-0.0526 0.8947 0.0000
-0.0526 1.0000 0.0000
0.0526 -0.8947 0.0000
0.0526 -0.7895 0.0000
0.0526 -0.6842 0.0000
0.0526 -0.5789 0.0000
0.0526 -0.4737 0.0000
0.0526 -0.3684 0.0000
0.0526 -0.2632 0.0000
0.0526 -0.1579 0.0000
0.0526 0.2632 0.0000
0.0526 0.3684 0.0000
0.0526 0.4737 0.0000
0.0526 0.5789 0.0000
0.0526 0.6842 0.0000
0.0526 0.7895 0.0000
0.0526 0.8947 0.0000
0.0526 1.0000 0.0000
0.1579 -0.8947 0.0000
0.1579 -0.7895 0.0000
0.1579 -0.6842 0.0000
0.1579 -0.5789 0.0000
0.1579 -0.4737 0.0000
0.1579 -0.3684 0.0000
0.1579 -0.2632 0.0000
0.1579 -0.1579 0.0000
0.1579 -0.0526 0.0000
0.1579 0.0526 0.0000
0.1579 0.1579 0.0000
0.1579 0.2632 0.0000
0.1579 0.3684 0.0000
0.1579 0.4737 0.0000
0.1579 0.5789 0.0000
0.1579 0.6842 0.0000
0.1579 0.7895 0.0000
0.1579 0.8947 0.0000
0.1579 1.0000 0.0000
0.2632 -0.8947 0.0000
0.2632 -0.7895 0.0000
0.2632 -0.6842 0.0000
0.2632 -0.5789 0.0000
0.2632 -0.4737 0.0000
0.2632 -0.3684 0.0000
0.2632 -0.2632 0.0000
0.2632 -0.1579 0.0000
0.2632 -0.0526 0.0000
0.2632 0.0526 0.0000
0.2632 0.1579 0.0000
0.2632 0.2632 0.0000
0.2632 0.3684 0.0000
0.2632 0.4737 0.0000
0.2632 0.5789 0.0000
0.2632 0.6842 0.0000
0.2632 0.7895 0.0000
0.2632 0.8947 0.0000
0.2632 1.0000 0.0000
0.3684 -0.8947 0.0000
0.3684 -0.7895 0.0000
0.3684 -0.6842 0.0000
0.3684 -0.5789 0.0000
0.3684 -0.4737 0.0000
0.3684 -0.3684 0.0000
0.3684 -0.2632 0.0000
0.3684 -0.1579 0.0000
0.3684 -0.0526 0.0000
0.3684 0.0526 0.0000
0.3684 0.1579 0.0000
0.3684 0.2632 0.0000
0.3684 0.3684 0.0000
0.3684 0.4737 0.0000
0.3684 0.5789 0.0000
0.3684 0.6842 0.0000
0.3684 0.7895 0.0000
0.3684 0.8947 0.0000
0.3684 1.0000 0.0000
0.4737 -0.8947 0.0000
0.4737 -0.7895 0.0000
0.4737 -0.6842 0.0000
0.4737 -0.5789 0.0000
0.4737 -0.4737 0.0000
0.4737 -0.3684 0.0000
0.4737 -0.2632 0.0000
0.4737 -0.1579 0.0000
0.4737 -0.0526 0.0000
0.4737 0.0526 0.0000
0.4737 0.1579 0.0000
0.4737 0.2632 0.0000
0.4737 0.3684 0.0000
0.4737 0.4737 0.0000
0.4737 0.5789 0.0000
0.4737 0.6842 0.0000
0.4737 0.7895 0.0000
0.4737 0.8947 0.0000
0.4737 1.0000 0.0000
0.5789 -0.8947 0.0000
0.5789 -0.7895 0.0000
0.5789 -0.6842 0.0000
0.5789 -0.5789 0.0000
0.5789 -0.4737 0.0000
0.5789 -0.3684 0.0000
0.5789 -0.2632 0.0000
0.5789 -0.1579 0.0000
0.5789 -0.0526 0.0000
0.5789 0.0526 0.0000
0.5789 0.1579 0.0000
0.5789 0.2632 0.0000
0.5789 0.3684 0.0000
0.5789 0.4737 0.0000
0.5789 0.5789 0.0000
0.5789 0.6842 0.0000
0.5789 0.7895 0.0000
0.5789 0.8947 0.0000
0.5789 1.0000 0.0000
0.6842 -0.8947 0.0000
0.6842 -0.7895 0.0000
0.6842 -0.6842 0.0000
0.6842 -0.5789 0.0000
0.6842 -0.4737 0.0000
0.6842 -0.3684 0.0000
0.6842 -0.2632 0.0000
0.6842 -0.1579 0.0000
0.6842 -0.0526 0.0000
0.6842 0.0526 0.0000
0.6842 0.1579 0.0000
0.6842 0.2632 0.0000
0.6842 0.3684 0.0000
0.6842 0.4737 0.0000
0.6842 0.5789 0.0000
0.6842 0.6842 0.0000
0.6842 0.7895 0.0000
0.6842 0.8947 0.0000
0.6842 1.0000 0.0000
0.7895 -0.8947 0.0000
0.7895 -0.7895 0.0000
0.7895 -0.6842 0.0000
0.7895 -0.5789 0.0000
0.7895 -0.4737 0.0000
0.7895 -0.3684 0.0000
0.7895 -0.2632 0.0000
0.7895 -0.1579 0.0000
0.7895 -0.0526 0.0000
0.7895 0.0526 0.0000
0.7895 0.1579 0.0000
0.7895 0.2632 0.0000
0.7895 0.3684 0.0000
0.7895 0.4737 0.0000
0.7895 0.5789 0.0000
0.7895 0.6842 0.0000
0.7895 0.7895 0.0000
0.7895 0.8947 0.0000
0.7895 1.0000 0.0000
0.8947 -0.8947 0.0000
0.8947 -0.7895 0.0000
0.8947 -0.6842 0.0000
0.8947 -0.5789 0.0000
0.8947 -0.4737 0.0000
0.8947 -0.3684 0.0000
0.8947 -0.2632 0.0000
0.8947 -0.1579 0.0000
0.8947 -0.0526 0.0000
0.8947 0.0526 0.0000
0.8947 0.1579 0.0000
0.8947 0.2632 0.0000
0.8947 0.3684 0.0000
0.8947 0.4737 0.0000
0.8947 0.5789 0.0000
0.8947 0.6842 0.0000
0.8947 0.7895 0.0000
0.8947 0.8947 0.0000
0.8947 1.0000 0.0000
-0.1579 0.0526 0.0000
-0.0526 0.1579 0.0000
1.0000 -0.8947 0.0000
1.0000 -0.7895 0.0000
1.0000 -0.6842 0.0000
1.0000 -0.5789 0.0000
1.0000 -0.4737 0.0000
1.0000 -0.3684 0.0000
1.0000 -0.2632 0.0000
1.0000 -0.1579 0.0000
1.0000 -0.0526 0.0000
1.0000 0.0526 0.0000
1.0000 0.1579 0.0000
1.0000 0.2632 0.0000
1.0000 0.3684 0.0000
1.0000 0.4737 0.0000
1.0000 0.5789 0.0000
1.0000 0.6842 0.0000
1.0000 0.7895 0.0000
1.0000 0.8947 0.0000
1.0000 1.0000 0.0000
-0.8947 -1.0000 0.0000
-0.7895 -1.0000 0.0000
-0.6842 -1.0000 0.0000
-0.5789 -1.0000 0.0000
-0.4737 -1.0000 0.0000
-0.3684 -1.0000 0.0000
-0.2632 -1.0000 0.0000
-0.1579 -1.0000 0.0000
-0.0526 -1.0000 0.0000
0.0526 -1.0000 0.0000
0.0526 0.1579 0.0000
0.1579 -1.0000 0.0000
0.2632 -1.0000 0.0000
0.3684 -1.0000 0.0000
0.4737 -1.0000 0.0000
0.5789 -1.0000 0.0000
0.6842 -1.0000 0.0000
0.7895 -1.0000 0.0000
0.8947 -1.0000 0.0000
1.0000 -1.0000 0.0000
-1.0000 -1.0000 0.0000
1.1053 -0.8947 0.0000
1.1053 -0.7895 0.0000
1.1053 -0.6842 0.0000
1.1053 -0.5789 0.0000
1.1053 -0.4737 0.0000
1.1053 -0.3684 0.0000
1.1053 -0.2632 0.0000
1.1053 -0.1579 0.0000
1.1053 -0.0526 0.0000
1.1053 0.0526 0.0000
1.1053 0.1579 0.0000
1.1053 0.2632 0.0000
1.1053 0.3684 0.0000
1.1053 0.4737 0.0000
1.1053 0.5789 0.0000
1.1053 0.6842 0.0000
1.1053 0.7895 0.0000
1.1053 0.8947 0.0000
1.1053 1.0000 0.0000
1.2105 -0.8947 0.0000
1.2105 -0.7895 0.0000
1.2105 -0.6842 0.0000
1.2105 -0.5789 0.0000
1.2105 -0.4737 0.0000
1.2105 -0.3684 0.0000
1.2105 -0.2632 0.0000
1.2105 -0.1579 0.0000
1.2105 -0.0526 0.0000
1.2105 0.0526 0.0000
1.2105 0.1579 0.0000
1.2105 0.2632 0.0000
1.2105 0.3684 0.0000
1.2105 0.4737 0.0000
1.2105 0.5789 0.0000
1.2105 0.6842 0.0000
1.2105 0.7895 0.0000
1.2105 0.8947 0.0000
1.2105 1.0000 0.0000
1.3158 -0.8947 0.0000
1.3158 -0.7895 0.0000
1.3158 -0.6842 0.0000
1.3158 -0.5789 0.0000
1.3158 -0.4737 0.0000
1.3158 -0.3684 0.0000
1.3158 -0.2632 0.0000
[...]
         <PointData>
            <DataArray Name="fValues" NumberOfComponents="3" format="ascii" type="Float64">
-3.49110e-16  3.68202e-17        00000 
 2.58927e-16  1.61829e-17        00000 
-1.41806e-16  4.17022e-17        00000 
 2.15772e-16 -1.61829e-17        00000 
-2.84657e-16 -3.04990e-17        00000 
 3.77601e-16  3.50630e-17        00000 
 1.36038e-17 -2.75476e-17        00000 
 3.23658e-17 -3.23658e-17        00000 
 3.65988e-17 -6.70977e-17        00000 
-6.47317e-17 -2.15772e-17        00000 
-2.17662e-17  4.35323e-17        00000 
-1.18675e-16 -3.77601e-17        00000 
-8.67526e-17 -1.72827e-17        00000 
-6.47317e-17 -1.07886e-17        00000 
-2.76333e-18  1.59682e-17        00000 
 2.58927e-16  1.48343e-16        00000 
 1.60249e-16 -1.48366e-16        00000 
-4.57008e-16  1.52336e-16        00000 
-5.70803e-16  3.04444e-16        00000 
 3.90354e+00  1.81670e+00        00000 
 3.29307e+00  1.05782e+00        00000 
 2.78667e+00  5.75764e-01        00000 
 2.32804e+00  2.37845e-01        00000 
 1.88921e+00 -6.65918e-03        00000 
 1.46114e+00 -1.83224e-01        00000 
 1.03955e+00 -3.06085e-01        00000 
 6.22076e-01 -3.83797e-01        00000 
 2.07029e-01 -4.21426e-01        00000 
-2.07193e-01 -4.21394e-01        00000 
-6.22208e-01 -3.83710e-01        00000 
-1.03962e+00 -3.05972e-01        00000 
-1.46117e+00 -1.83116e-01        00000 
-1.88918e+00 -6.58036e-03        00000 
-2.32799e+00  2.37883e-01        00000 
-2.78659e+00  5.75763e-01        00000 
-3.29299e+00  1.05779e+00        00000 
-3.90344e+00  1.81664e+00        00000 
-5.38856e+00  3.28101e+00        00000 
 8.22272e+00  3.81723e+00        00000 
 6.87788e+00  2.63351e+00        00000 
 5.80195e+00  1.78274e+00        00000 
 4.82772e+00  1.15857e+00        00000 
 3.90641e+00  6.96665e-01        00000 
 3.01474e+00  3.58935e-01        00000 
 2.14149e+00  1.22156e-01        00000 
 1.28013e+00 -2.82725e-02        00000 
 4.25787e-01 -1.01278e-01        00000 
-4.26163e-01 -1.01223e-01        00000 
-1.28042e+00 -2.81274e-02        00000 
-2.14166e+00  1.22339e-01        00000 
-3.01477e+00  3.59099e-01        00000 
-3.90633e+00  6.96768e-01        00000 
-4.82758e+00  1.15860e+00        00000 
-5.80178e+00  1.78269e+00        00000 
-6.87769e+00  2.63340e+00        00000 
-8.22251e+00  3.81708e+00        00000 
-9.99633e+00  5.22609e+00        00000 
 1.24367e+01  5.75838e+00        00000 
 1.05999e+01  4.49267e+00        00000 
 8.96060e+00  3.45168e+00        00000 
 7.45435e+00  2.63732e+00        00000 
 6.02547e+00  2.01254e+00        00000 
 4.64494e+00  1.54605e+00        00000 
 3.29613e+00  1.21500e+00        00000 
 1.96874e+00  1.00335e+00        00000 
 6.54498e-01  9.00371e-01        00000 
-6.55145e-01  9.00451e-01        00000 
-1.96923e+00  1.00355e+00        00000 
-3.29637e+00  1.21524e+00        00000 
-4.64493e+00  1.54624e+00        00000 
-6.02529e+00  2.01262e+00        00000 
-7.45409e+00  2.63728e+00        00000 
-8.96031e+00  3.45154e+00        00000 
-1.05996e+01  4.49246e+00        00000 
-1.24364e+01  5.75812e+00        00000 
-1.44542e+01  7.18956e+00        00000 
 1.65834e+01  7.92250e+00        00000 
 1.43178e+01  6.63072e+00        00000 
 1.21778e+01  5.51835e+00        00000 
 1.01523e+01  4.60072e+00        00000 
 8.21129e+00  3.87135e+00        00000 
 6.32916e+00  3.31402e+00        00000 
 4.48896e+00  2.91308e+00        00000 
 2.67939e+00  2.65521e+00        00000 
 8.90262e-01  2.52965e+00        00000 
-8.91277e-01  2.52976e+00        00000 
-2.68012e+00  2.65549e+00        00000 
-4.48925e+00  2.91337e+00        00000 
-6.32906e+00  3.31420e+00        00000 
-8.21095e+00  3.87135e+00        00000 
-1.01518e+01  4.60056e+00        00000 
-1.21774e+01  5.51808e+00        00000 
-1.43174e+01  6.63038e+00        00000 
-1.65830e+01  7.92212e+00        00000 
-1.89204e+01  9.35512e+00        00000 
 2.06984e+01  1.04236e+01        00000 
 1.80102e+01  9.12671e+00        00000 
 1.54001e+01  7.98788e+00        00000 
 1.28778e+01  7.02214e+00        00000 
 1.04317e+01  6.23344e+00        00000 
 8.04496e+00  5.61825e+00        00000 
 5.70433e+00  5.17013e+00        00000 
 3.40180e+00  4.88126e+00        00000 
 1.12920e+00  4.74136e+00        00000 
-1.13074e+00  4.74154e+00        00000 
-3.40282e+00  4.88162e+00        00000 
-5.70459e+00  5.17048e+00        00000 
-8.04463e+00  5.61833e+00        00000 
-1.04311e+01  6.23327e+00        00000 
-1.28772e+01  7.02178e+00        00000 
-1.53995e+01  7.98743e+00        00000 
-1.80098e+01  9.12622e+00        00000 
-2.06980e+01  1.04231e+01        00000 
-2.34148e+01  1.18599e+01        00000 
 2.47997e+01  1.33289e+01        00000 
 2.16787e+01  1.20325e+01        00000 
 1.86091e+01  1.08866e+01        00000 
 1.56051e+01  9.90104e+00        00000 
 1.26643e+01  9.08217e+00        00000 
 9.77562e+00  8.43194e+00        00000 
 6.92919e+00  7.95257e+00        00000 
 4.12454e+00  7.64469e+00        00000 
 1.36559e+00  7.49946e+00        00000 
-1.36792e+00  7.49957e+00        00000 
-4.12594e+00  7.64527e+00        00000 
-6.92921e+00  7.95282e+00        00000 
-9.77486e+00  8.43184e+00        00000 
-1.26633e+01  9.08165e+00        00000 
-1.56043e+01  9.90041e+00        00000 
-1.86085e+01  1.08859e+01        00000 
-2.16782e+01  1.20319e+01        00000 
-2.47992e+01  1.33283e+01        00000 
-2.79349e+01  1.47676e+01        00000 
 2.88934e+01  1.66745e+01        00000 
 2.53278e+01  1.53810e+01        00000 
 2.17999e+01  1.42362e+01        00000 
 1.83224e+01  1.32458e+01        00000 
 1.48960e+01  1.24147e+01        00000 
 1.15130e+01  1.17450e+01        00000 
 8.15865e+00  1.12389e+01        00000 
 4.83562e+00  1.09145e+01        00000 
 1.58632e+00  1.07733e+01        00000 
-1.58990e+00  1.07743e+01        00000 
-4.83741e+00  1.09144e+01        00000 
-8.15814e+00  1.12393e+01        00000 
-1.15112e+01  1.17441e+01        00000 
-1.48948e+01  1.24137e+01        00000 
-1.83215e+01  1.32450e+01        00000 
-2.17992e+01  1.42355e+01        00000 
-2.53272e+01  1.53804e+01        00000 
-2.88930e+01  1.66740e+01        00000 
-3.24718e+01  1.81142e+01        00000 
 3.29807e+01  2.04803e+01        00000 
 2.89605e+01  1.91909e+01        00000 
 2.49719e+01  1.80513e+01        00000 
 2.10241e+01  1.70644e+01        00000 
 1.71188e+01  1.62335e+01        00000 
 1.32503e+01  1.55595e+01        00000 
 9.40417e+00  1.50378e+01        00000 
 5.53788e+00  1.46646e+01        00000 
 1.74883e+00  1.45208e+01        00000 
-5.54292e+00  1.46684e+01        00000 
-9.39976e+00  1.50354e+01        00000 
-1.32482e+01  1.55573e+01        00000 
-1.71176e+01  1.62322e+01        00000 
-2.10232e+01  1.70635e+01        00000 
-2.49713e+01  1.80506e+01        00000 
-2.89600e+01  1.91904e+01        00000 
-3.29803e+01  2.04798e+01        00000 
-3.70170e+01  2.19194e+01        00000 
 3.70603e+01  2.47560e+01        00000 
 3.25783e+01  2.34716e+01        00000 
 2.81255e+01  2.23390e+01        00000 
 2.37077e+01  2.13601e+01        00000 
 1.93262e+01  2.05381e+01        00000 
 1.49775e+01  1.98750e+01        00000 
 1.06507e+01  1.93704e+01        00000 
 6.30966e+00  1.90071e+01        00000 
-1.06469e+01  1.93653e+01        00000 
-1.49759e+01  1.98733e+01        00000 
-1.93252e+01  2.05372e+01        00000 
-2.37070e+01  2.13597e+01        00000 
-2.81250e+01  2.23386e+01        00000 
-3.25779e+01  2.34713e+01        00000 
-3.70600e+01  2.47558e+01        00000 
-4.15626e+01  2.61932e+01        00000 
 4.11306e+01  2.95058e+01        00000 
 3.61821e+01  2.82265e+01        00000 
 3.12618e+01  2.71013e+01        00000 
 2.63726e+01  2.61317e+01        00000 
 2.15150e+01  2.53208e+01        00000 
 1.66857e+01  2.46732e+01        00000 
 1.18776e+01  2.41958e+01        00000 
 7.08171e+00  2.38990e+01        00000 
-1.18749e+01  2.41990e+01        00000 
-1.66842e+01  2.46741e+01        00000 
-2.15141e+01  2.53212e+01        00000 
-2.63720e+01  2.61319e+01        00000 
-3.12612e+01  2.71014e+01        00000 
-3.61817e+01  2.82266e+01        00000 
-4.11303e+01  2.95059e+01        00000 
-4.61032e+01  3.09400e+01        00000 
 4.51902e+01  3.47305e+01        00000 
 3.97723e+01  3.34563e+01        00000 
 3.43822e+01  3.23377e+01        00000 
 2.90208e+01  3.13758e+01        00000 
 2.36872e+01  3.05731e+01        00000 
 1.83783e+01  2.99328e+01        00000 
 1.30897e+01  2.94570e+01        00000 
 7.83034e+00  2.91408e+01        00000 
 2.62946e+00  2.90040e+01        00000 
-2.62987e+00  2.90064e+01        00000 
-7.83723e+00  2.91391e+01        00000 
-1.30854e+01  2.94600e+01        00000 
-1.83766e+01  2.99348e+01        00000 
-2.36861e+01  3.05743e+01        00000 
-2.90200e+01  3.13765e+01        00000 
-3.43816e+01  3.23381e+01        00000 
-3.97718e+01  3.34567e+01        00000 
-4.51898e+01  3.47309e+01        00000 
-5.06347e+01  3.61611e+01        00000 
 4.92381e+01  4.04296e+01        00000 
 4.33495e+01  3.91601e+01        00000 
 3.74887e+01  3.80469e+01        00000 
 3.16550e+01  3.70907e+01        00000 
 2.58471e+01  3.62926e+01        00000 
 2.00625e+01  3.56537e+01        00000 
 1.43008e+01  3.51732e+01        00000 
 8.56543e+00  3.48516e+01        00000 
 2.85449e+00  3.46925e+01        00000 
-2.85610e+00  3.46926e+01        00000 
-8.56774e+00  3.48519e+01        00000 
-1.43004e+01  3.51729e+01        00000 
-2.00609e+01  3.56547e+01        00000 
-2.58459e+01  3.62936e+01        00000 
-3.16541e+01  3.70915e+01        00000 
-3.74880e+01  3.80475e+01        00000 
-4.33490e+01  3.91606e+01        00000 
-4.92377e+01  4.04301e+01        00000 
-5.51548e+01  4.18562e+01        00000 
 5.32738e+01  4.66020e+01        00000 
 4.69142e+01  4.53369e+01        00000 
 4.05826e+01  4.42282e+01        00000 
 3.42774e+01  4.32762e+01        00000 
 2.79972e+01  4.24812e+01        00000 
 2.17402e+01  4.18434e+01        00000 
 1.55055e+01  4.13627e+01        00000 
 9.29214e+00  4.10404e+01        00000 
 3.09521e+00  4.08787e+01        00000 
-3.09667e+00  4.08787e+01        00000 
-9.29330e+00  4.10402e+01        00000 
-1.55055e+01  4.13626e+01        00000 
-2.17394e+01  4.18436e+01        00000 
-2.79962e+01  4.24818e+01        00000 
-3.42766e+01  4.32769e+01        00000 
-4.05819e+01  4.42289e+01        00000 
-4.69137e+01  4.53374e+01        00000 
-5.32733e+01  4.66025e+01        00000 
-5.96622e+01  4.80243e+01        00000 
 5.72968e+01  5.32466e+01        00000 
 5.04667e+01  5.19858e+01        00000 
 4.36648e+01  5.08813e+01        00000 
 3.68891e+01  4.99331e+01        00000 
 3.01380e+01  4.91412e+01        00000 
 2.34097e+01  4.85057e+01        00000 
 1.67021e+01  4.80271e+01        00000 
 1.00126e+01  4.77066e+01        00000 
 3.33565e+00  4.75458e+01        00000 
-3.33673e+00  4.75457e+01        00000 
-1.00134e+01  4.77065e+01        00000 
-1.67023e+01  4.80270e+01        00000 
-2.34093e+01  4.85057e+01        00000 
-3.01374e+01  4.91414e+01        00000 
-3.68884e+01  4.99335e+01        00000 
-4.36641e+01  5.08818e+01        00000 
-5.04662e+01  5.19863e+01        00000 
-5.72963e+01  5.32471e+01        00000 
-6.41564e+01  5.46645e+01        00000 
 6.13070e+01  6.03624e+01        00000 
 5.40071e+01  5.91058e+01        00000 
 4.67355e+01  5.80054e+01        00000 
 3.94902e+01  5.70611e+01        00000 
 3.22693e+01  5.62727e+01        00000 
 2.50704e+01  5.56406e+01        00000 
 1.78910e+01  5.51651e+01        00000 
 1.07274e+01  5.48471e+01        00000 
 3.57427e+00  5.46878e+01        00000 
-3.57504e+00  5.46877e+01        00000 
-1.07279e+01  5.48470e+01        00000 
-1.78912e+01  5.51650e+01        00000 
-2.50702e+01  5.56405e+01        00000 
-3.22689e+01  5.62728e+01        00000 
-3.94897e+01  5.70613e+01        00000 
-4.67349e+01  5.80058e+01        00000 
-5.40065e+01  5.91062e+01        00000 
-6.13064e+01  6.03628e+01        00000 
-6.86368e+01  6.17757e+01        00000 
 6.53041e+01  6.79483e+01        00000 
 5.75352e+01  6.66961e+01        00000 
 4.97947e+01  6.55999e+01        00000 
 4.20807e+01  6.46596e+01        00000 
 3.43907e+01  6.38751e+01        00000 
 2.67223e+01  6.32467e+01        00000 
 1.90724e+01  6.27746e+01        00000 
 1.14370e+01  6.24594e+01        00000 
 3.81106e+00  6.23015e+01        00000 
-3.81162e+00  6.23015e+01        00000 
-1.14375e+01  6.24592e+01        00000 
-1.90726e+01  6.27745e+01        00000 
-2.67222e+01  6.32467e+01        00000 
-3.43904e+01  6.38752e+01        00000 
-4.20803e+01  6.46597e+01        00000 
-4.97943e+01  6.56001e+01        00000 
-5.75346e+01  6.66964e+01        00000 
-6.53035e+01  6.79486e+01        00000 
-7.31031e+01  6.93569e+01        00000 
 6.92879e+01  7.60032e+01        00000 
 6.10509e+01  7.47554e+01        00000 
 5.28424e+01  7.36635e+01        00000 
 4.46603e+01  7.27274e+01        00000 
 3.65023e+01  7.19470e+01        00000 
 2.83655e+01  7.13225e+01        00000 
 2.02468e+01  7.08539e+01        00000 
 1.21421e+01  7.05413e+01        00000 
 4.04619e+00  7.03850e+01        00000 
-4.04659e+00  7.03849e+01        00000 
-1.21424e+01  7.05412e+01        00000 
-2.02470e+01  7.08538e+01        00000 
-2.83655e+01  7.13224e+01        00000 
-3.65021e+01  7.19470e+01        00000 
-4.46600e+01  7.27274e+01        00000 
-5.28420e+01  7.36636e+01        00000 
-6.10504e+01  7.47556e+01        00000 
-6.92874e+01  7.60034e+01        00000 
-7.75553e+01  7.74071e+01        00000 
 7.32585e+01  8.45259e+01        00000 
 6.45542e+01  8.32825e+01        00000 
 5.58785e+01  8.21949e+01        00000 
 4.72292e+01  8.12630e+01        00000 
 3.86040e+01  8.04868e+01        00000 
 3.00001e+01  7.98663e+01        00000 
 2.14144e+01  7.94012e+01        00000 
 1.28426e+01  7.90913e+01        00000 
 4.27976e+00  7.89364e+01        00000 
-4.28004e+00  7.89364e+01        00000 
-1.28429e+01  7.90912e+01        00000 
-2.14145e+01  7.94011e+01        00000 
-3.00002e+01  7.98662e+01        00000 
-3.86039e+01  8.04867e+01        00000 
-4.72290e+01  8.12630e+01        00000 
-5.58782e+01  8.21949e+01        00000 
-6.45538e+01  8.32826e+01        00000 
-7.32580e+01  8.45260e+01        00000 
-8.19931e+01  8.59251e+01        00000 
-1.75297e+00  1.45144e+01        00000 
-6.29229e+00  1.89976e+01        00000 
 7.72159e+01  9.35151e+01        00000 
 6.80451e+01  9.22761e+01        00000 
 5.89029e+01  9.11927e+01        00000 
 4.97872e+01  9.02649e+01        00000 
 4.06958e+01  8.94928e+01        00000 
 3.16261e+01  8.88762e+01        00000 
 2.25751e+01  8.84147e+01        00000 
 1.35387e+01  8.81077e+01        00000 
 4.51174e+00  8.79544e+01        00000 
-4.51192e+00  8.79544e+01        00000 
-1.35388e+01  8.81076e+01        00000 
-2.25752e+01  8.84146e+01        00000 
-3.16261e+01  8.88761e+01        00000 
-4.06957e+01  8.94927e+01        00000 
-4.97871e+01  9.02648e+01        00000 
-5.89026e+01  9.11926e+01        00000 
-6.80447e+01  9.22761e+01        00000 
-7.72154e+01  9.35152e+01        00000 
-8.64167e+01  9.49097e+01        00000 
 5.38871e+00  3.28111e+00        00000 
 9.99660e+00  5.22628e+00        00000 
 1.44546e+01  7.18985e+00        00000 
 1.89208e+01  9.35552e+00        00000 
 2.34153e+01  1.18604e+01        00000 
 2.79353e+01  1.47682e+01        00000 
 3.24722e+01  1.81148e+01        00000 
 3.70172e+01  2.19198e+01        00000 
 4.15628e+01  2.61934e+01        00000 
 4.61033e+01  3.09400e+01        00000 
-7.06041e+00  2.39048e+01        00000 
 5.06349e+01  3.61609e+01        00000 
 5.51551e+01  4.18558e+01        00000 
 5.96627e+01  4.80238e+01        00000 
 6.41569e+01  5.46640e+01        00000 
 6.86374e+01  6.17753e+01        00000 
 7.31038e+01  6.93566e+01        00000 
 7.75559e+01  7.74069e+01        00000 
 8.19938e+01  8.59250e+01        00000 
 8.64173e+01  9.49096e+01        00000 
 5.43981e-16  1.04971e-16        00000 
 8.11601e+01  1.02970e+02        00000 
 7.15237e+01  1.01735e+02        00000 
 6.19159e+01  1.00656e+02        00000 
 5.23345e+01  9.97316e+01        00000 
 4.27777e+01  9.89633e+01        00000 
 3.32432e+01  9.83506e+01        00000 
 2.37285e+01  9.78928e+01        00000 
 1.42299e+01  9.75889e+01        00000 
 4.74201e+00  9.74373e+01        00000 
-4.74208e+00  9.74373e+01        00000 
-1.42300e+01  9.75887e+01        00000 
-2.37286e+01  9.78927e+01        00000 
-3.32433e+01  9.83504e+01        00000 
-4.27777e+01  9.89632e+01        00000 
-5.23344e+01  9.97315e+01        00000 
-6.19156e+01  1.00655e+02        00000 
-7.15233e+01  1.01735e+02        00000 
-8.11596e+01  1.02970e+02        00000 
-9.08263e+01  1.04360e+02        00000 
 8.50912e+01  1.12889e+02        00000 
 7.49902e+01  1.11658e+02        00000 
 6.49176e+01  1.10582e+02        00000 
 5.48714e+01  1.09662e+02        00000 
 4.48497e+01  1.08897e+02        00000 
 3.48511e+01  1.08287e+02        00000 
 2.48740e+01  1.07833e+02        00000 
 1.49155e+01  1.07533e+02        00000 
 4.97025e+00  1.07384e+02        00000 
-4.97019e+00  1.07384e+02        00000 
-1.49155e+01  1.07533e+02        00000 
-2.48741e+01  1.07833e+02        00000 
-3.48512e+01  1.08287e+02        00000 
-4.48498e+01  1.08896e+02        00000 
-5.48714e+01  1.09662e+02        00000 
-6.49174e+01  1.10582e+02        00000 
-7.49898e+01  1.11658e+02        00000 
-8.50907e+01  1.12889e+02        00000 
-9.52220e+01  1.14275e+02        00000 
 8.90094e+01  1.23273e+02        00000 
 7.84448e+01  1.22046e+02        00000 
 6.79087e+01  1.20973e+02        00000 
 5.73985e+01  1.20054e+02        00000 
 4.69123e+01  1.19291e+02        00000 
 3.64495e+01  1.18684e+02        00000 
 2.60103e+01  1.18234e+02        00000 
 1.55941e+01  1.17938e+02        00000 
 5.19579e+00  1.17792e+02        00000 
-5.19554e+00  1.17791e+02        00000 
-1.55940e+01  1.17938e+02        00000 
-2.60104e+01  1.18234e+02        00000 
-3.64497e+01  1.18684e+02        00000 
-4.69125e+01  1.19290e+02        00000 
-5.73985e+01  1.20054e+02        00000 
-6.79085e+01  1.20972e+02        00000 
-7.84444e+01  1.22046e+02        00000 
-8.90088e+01  1.23273e+02        00000 
-9.96041e+01  1.24654e+02        00000 
 9.29144e+01  1.34121e+02        00000 
 8.18878e+01  1.32897e+02        00000 
 7.08899e+01  1.31826e+02        00000 
 5.99171e+01  1.30908e+02        00000 
 4.89667e+01  1.30144e+02        00000 
 3.80384e+01  1.29538e+02        00000 
 2.71357e+01  1.29091e+02        00000 
 1.62627e+01  1.28800e+02        00000 
 5.41719e+00  1.28659e+02        00000 
-5.41663e+00  1.28659e+02        00000 
-1.62624e+01  1.28800e+02        00000 
-2.71358e+01  1.29090e+02        00000 
-3.80388e+01  1.29538e+02        00000 
-4.89670e+01  1.30144e+02        00000 
-5.99172e+01  1.30908e+02        00000 
-7.08898e+01  1.31826e+02        00000 
-8.18875e+01  1.32897e+02        00000 
-9.29139e+01  1.34120e+02        00000 
-1.03972e+02  1.35497e+02        00000 
 9.68060e+01  1.45432e+02        00000 
 8.53195e+01  1.44212e+02        00000 
 7.38622e+01  1.43143e+02        00000 
 6.24292e+01  1.42224e+02        00000 
 5.10156e+01  1.41457e+02        00000 
 3.96197e+01  1.40847e+02        00000 
 2.82481e+01  1.40399e+02        00000 
 1.69157e+01  1.40115e+02        00000 
 5.63101e+00  1.39982e+02        00000 
-5.62987e+00  1.39982e+02        00000 
-1.69153e+01  1.40115e+02        00000 
-2.82484e+01  1.40399e+02        00000 
-3.96203e+01  1.40846e+02        00000 
-5.10160e+01  1.41457e+02        00000 
-6.24293e+01  1.42224e+02        00000 
-7.38621e+01  1.43143e+02        00000 
-8.53191e+01  1.44212e+02        00000 
-9.68054e+01  1.45432e+02        00000 
-1.08326e+02  1.46804e+02        00000 
 1.00683e+02  1.57208e+02        00000 
 8.87392e+01  1.55992e+02        00000 
 7.68259e+01  1.54925e+02        00000 
 6.49364e+01  1.54005e+02        00000 
 5.30634e+01  1.53233e+02        00000 
 4.11998e+01  1.52611e+02        00000 