<?xml version="1.0" encoding="utf-8"?>
<VTKFile byte_order="LittleEndian" type="UnstructuredGrid" version="0.1">
   <UnstructuredGrid>
      <Piece NumberOfCells="2040" NumberOfPoints="2040">
         <Points>
            <DataArray Name="Points" NumberOfComponents="3" format="ascii" type="Float32">
-0.1579 -0.0526 0.0000
-0.1579 0.0526 0.0000
-0.0526 -0.1579 0.0000
-0.0526 0.1579 0.0000
0.0526 -0.1579 0.0000
0.0526 0.1579 0.0000
0.1579 -0.0526 0.0000
0.1579 0.0526 0.0000
-0.1053 -0.1053 0.0000
-0.1053 0.1053 0.0000
0.1053 -0.1053 0.0000
0.1053 0.1053 0.0000
1.8421 -0.1579 0.0000
1.8421 -0.0526 0.0000
1.8421 0.0526 0.0000
1.8421 0.1579 0.0000
1.9474 -0.1579 0.0000
1.9474 0.1579 0.0000
2.0526 -0.1579 0.0000
2.0526 0.1579 0.0000
2.1579 -0.1579 0.0000
2.1579 -0.0526 0.0000
2.1579 0.0526 0.0000
2.1579 0.1579 0.0000
3.7368 -0.0526 0.0000
3.7368 0.0526 0.0000
3.8421 -0.1579 0.0000
3.8421 0.1579 0.0000
3.9474 -0.2632 0.0000
3.9474 0.2632 0.0000
4.0526 -0.2632 0.0000
4.0526 0.2632 0.0000
4.1579 -0.1579 0.0000
4.1579 0.1579 0.0000
4.2632 -0.0526 0.0000
4.2632 0.0526 0.0000
3.7895 -0.1053 0.0000
3.7895 0.0000 0.0000
3.7895 0.1053 0.0000
3.8947 -0.2105 0.0000
3.8947 0.2105 0.0000
4.0000 -0.2105 0.0000
4.0000 0.2105 0.0000
4.1053 -0.2105 0.0000
4.1053 0.2105 0.0000
4.2105 -0.1053 0.0000
4.2105 0.0000 0.0000
4.2105 0.1053 0.0000
5.7368 -0.1579 0.0000
5.7368 -0.0526 0.0000
5.7368 0.0526 0.0000
5.7368 0.1579 0.0000
5.8421 -0.2632 0.0000
5.8421 0.2632 0.0000
5.9474 -0.2632 0.0000
5.9474 0.2632 0.0000
6.0526 -0.2632 0.0000
6.0526 0.2632 0.0000
6.1579 -0.2632 0.0000
6.1579 0.2632 0.0000
6.2632 -0.1579 0.0000
6.2632 -0.0526 0.0000
6.2632 0.0526 0.0000
6.2632 0.1579 0.0000
5.7895 -0.2105 0.0000
5.7895 0.2105 0.0000
6.2105 -0.2105 0.0000
6.2105 0.2105 0.0000
7.6316 -0.0526 0.0000
7.6316 0.0526 0.0000
7.7368 -0.2632 0.0000
7.7368 -0.1579 0.0000
7.7368 0.1579 0.0000
7.7368 0.2632 0.0000
7.8421 -0.2632 0.0000
7.8421 0.2632 0.0000
7.9474 -0.3684 0.0000
7.9474 0.3684 0.0000
8.0526 -0.3684 0.0000
8.0526 0.3684 0.0000
8.1579 -0.2632 0.0000
8.1579 0.2632 0.0000
8.2632 -0.2632 0.0000
8.2632 -0.1579 0.0000
8.2632 0.1579 0.0000
8.2632 0.2632 0.0000
8.3684 -0.0526 0.0000
8.3684 0.0526 0.0000
7.6842 -0.1053 0.0000
7.6842 0.0000 0.0000
7.6842 0.1053 0.0000
7.8947 -0.3158 0.0000
7.8947 0.3158 0.0000
8.0000 -0.3158 0.0000
8.0000 0.3158 0.0000
8.1053 -0.3158 0.0000
8.1053 0.3158 0.0000
8.3158 -0.1053 0.0000
8.3158 0.0000 0.0000
8.3158 0.1053 0.0000
9.6316 -0.1579 0.0000
9.6316 -0.0526 0.0000
9.6316 0.0526 0.0000
9.6316 0.1579 0.0000
9.7368 -0.2632 0.0000
9.7368 0.2632 0.0000
9.8421 -0.3684 0.0000
9.8421 0.3684 0.0000
9.9474 -0.3684 0.0000
9.9474 0.3684 0.0000
10.0526 -0.3684 0.0000
10.0526 0.3684 0.0000
10.1579 -0.3684 0.0000
10.1579 0.3684 0.0000
10.2632 -0.2632 0.0000
10.2632 0.2632 0.0000
10.3684 -0.1579 0.0000
10.3684 -0.0526 0.0000
10.3684 0.0526 0.0000
10.3684 0.1579 0.0000
9.6842 -0.2105 0.0000
9.6842 0.2105 0.0000
9.7895 -0.3158 0.0000
9.7895 0.3158 0.0000
10.2105 -0.3158 0.0000
10.2105 0.3158 0.0000
10.3158 -0.2105 0.0000
10.3158 0.2105 0.0000
11.5263 -0.1579 0.0000
11.5263 -0.0526 0.0000
11.5263 0.0526 0.0000
11.5263 0.1579 0.0000
11.6316 -0.3684 0.0000
11.6316 -0.2632 0.0000
11.6316 0.2632 0.0000
11.6316 0.3684 0.0000
11.7368 -0.3684 0.0000
11.7368 0.3684 0.0000
11.8421 -0.4737 0.0000
11.8421 0.4737 0.0000
11.9474 -0.4737 0.0000
11.9474 0.4737 0.0000
12.0526 -0.4737 0.0000
12.0526 0.4737 0.0000
12.1579 -0.4737 0.0000
12.1579 0.4737 0.0000
12.2632 -0.3684 0.0000
12.2632 0.3684 0.0000
12.3684 -0.3684 0.0000
12.3684 -0.2632 0.0000
12.3684 0.2632 0.0000
12.3684 0.3684 0.0000
12.4737 -0.1579 0.0000
12.4737 -0.0526 0.0000
12.4737 0.0526 0.0000
12.4737 0.1579 0.0000
11.5789 -0.2105 0.0000
11.5789 0.2105 0.0000
11.7895 -0.4211 0.0000
11.7895 0.4211 0.0000
12.2105 -0.4211 0.0000
12.2105 0.4211 0.0000
12.4211 -0.2105 0.0000
12.4211 0.2105 0.0000
13.4211 -0.1579 0.0000
13.4211 -0.0526 0.0000
13.4211 0.0526 0.0000
13.4211 0.1579 0.0000
13.5263 -0.2632 0.0000
13.5263 0.2632 0.0000
13.6316 -0.3684 0.0000
13.6316 0.3684 0.0000
13.7368 -0.4737 0.0000
13.7368 0.4737 0.0000
13.8421 -0.5789 0.0000
13.8421 0.5789 0.0000
13.9474 -0.5789 0.0000
13.9474 0.5789 0.0000
14.0526 -0.5789 0.0000
14.0526 0.5789 0.0000
14.1579 -0.5789 0.0000
14.1579 0.5789 0.0000
14.2632 -0.4737 0.0000
14.2632 0.4737 0.0000
14.3684 -0.3684 0.0000
14.3684 0.3684 0.0000
14.4737 -0.2632 0.0000
14.4737 0.2632 0.0000
14.5789 -0.1579 0.0000
14.5789 -0.0526 0.0000
14.5789 0.0526 0.0000
14.5789 0.1579 0.0000
13.4737 -0.2105 0.0000
13.4737 -0.1053 0.0000
13.4737 0.0000 0.0000
13.4737 0.1053 0.0000
13.4737 0.2105 0.0000
13.5789 -0.3158 0.0000
13.5789 0.3158 0.0000
13.6842 -0.4211 0.0000
13.6842 0.4211 0.0000
13.7895 -0.5263 0.0000
13.7895 0.5263 0.0000
13.8947 -0.5263 0.0000
13.8947 0.5263 0.0000
14.0000 -0.5263 0.0000
14.0000 0.5263 0.0000
14.1053 -0.5263 0.0000
14.1053 0.5263 0.0000
14.2105 -0.5263 0.0000
14.2105 0.5263 0.0000
14.3158 -0.4211 0.0000
14.3158 0.4211 0.0000
14.4211 -0.3158 0.0000
14.4211 0.3158 0.0000
14.5263 -0.2105 0.0000
14.5263 -0.1053 0.0000
14.5263 0.0000 0.0000
14.5263 0.1053 0.0000
14.5263 0.2105 0.0000
15.4211 -0.2632 0.0000
15.4211 -0.1579 0.0000
15.4211 -0.0526 0.0000
15.4211 0.0526 0.0000
15.4211 0.1579 0.0000
15.4211 0.2632 0.0000
15.5263 -0.3684 0.0000
15.5263 0.3684 0.0000
15.6316 -0.4737 0.0000
15.6316 0.4737 0.0000
15.7368 -0.5789 0.0000
15.7368 0.5789 0.0000
15.8421 -0.5789 0.0000
15.8421 0.5789 0.0000
15.9474 -0.5789 0.0000
15.9474 0.5789 0.0000
16.0526 -0.5789 0.0000
16.0526 0.5789 0.0000
16.1579 -0.5789 0.0000
16.1579 0.5789 0.0000
16.2632 -0.5789 0.0000
16.2632 0.5789 0.0000
16.3684 -0.4737 0.0000
16.3684 0.4737 0.0000
16.4737 -0.3684 0.0000
16.4737 0.3684 0.0000
16.5789 -0.2632 0.0000
16.5789 -0.1579 0.0000
16.5789 -0.0526 0.0000
16.5789 0.0526 0.0000
16.5789 0.1579 0.0000
16.5789 0.2632 0.0000
15.4737 -0.3158 0.0000
15.4737 -0.2105 0.0000
15.4737 0.2105 0.0000
15.4737 0.3158 0.0000
15.5789 -0.4211 0.0000
15.5789 0.4211 0.0000
15.6842 -0.5263 0.0000
15.6842 0.5263 0.0000
15.7895 -0.5263 0.0000
15.7895 0.5263 0.0000
16.2105 -0.5263 0.0000
16.2105 0.5263 0.0000
16.3158 -0.5263 0.0000
16.3158 0.5263 0.0000
16.4211 -0.4211 0.0000
16.4211 0.4211 0.0000
16.5263 -0.3158 0.0000
16.5263 -0.2105 0.0000
16.5263 0.2105 0.0000
16.5263 0.3158 0.0000
17.3158 -0.1579 0.0000
17.3158 -0.0526 0.0000
17.3158 0.0526 0.0000
17.3158 0.1579 0.0000
17.4211 -0.3684 0.0000
17.4211 -0.2632 0.0000
17.4211 0.2632 0.0000
17.4211 0.3684 0.0000
17.5263 -0.4737 0.0000
17.5263 0.4737 0.0000
17.6316 -0.5789 0.0000
17.6316 0.5789 0.0000
17.7368 -0.5789 0.0000
17.7368 0.5789 0.0000
17.8421 -0.6842 0.0000
17.8421 0.6842 0.0000
17.9474 -0.6842 0.0000
17.9474 0.6842 0.0000
18.0526 -0.6842 0.0000
18.0526 0.6842 0.0000
18.1579 -0.6842 0.0000
18.1579 0.6842 0.0000
18.2632 -0.5789 0.0000
18.2632 0.5789 0.0000
18.3684 -0.5789 0.0000
18.3684 0.5789 0.0000
18.4737 -0.4737 0.0000
18.4737 0.4737 0.0000
18.5789 -0.3684 0.0000
18.5789 -0.2632 0.0000
18.5789 0.2632 0.0000
18.5789 0.3684 0.0000
18.6842 -0.1579 0.0000
18.6842 -0.0526 0.0000
18.6842 0.0526 0.0000
18.6842 0.1579 0.0000
17.3684 -0.2105 0.0000
17.3684 -0.1053 0.0000
17.3684 0.0000 0.0000
17.3684 0.1053 0.0000
17.3684 0.2105 0.0000
17.4737 -0.4211 0.0000
17.4737 -0.3158 0.0000
17.4737 0.3158 0.0000
17.4737 0.4211 0.0000
17.5789 -0.5263 0.0000
17.5789 0.5263 0.0000
17.6842 -0.5263 0.0000
17.6842 0.5263 0.0000
17.7895 -0.6316 0.0000
17.7895 0.6316 0.0000
17.8947 -0.6316 0.0000
17.8947 0.6316 0.0000
18.0000 -0.6316 0.0000
18.0000 0.6316 0.0000
18.1053 -0.6316 0.0000
18.1053 0.6316 0.0000
18.2105 -0.6316 0.0000
18.2105 0.6316 0.0000
18.3158 -0.5263 0.0000
18.3158 0.5263 0.0000
18.4211 -0.5263 0.0000
18.4211 0.5263 0.0000
18.5263 -0.4211 0.0000
18.5263 -0.3158 0.0000
18.5263 0.3158 0.0000
18.5263 0.4211 0.0000
18.6316 -0.2105 0.0000
18.6316 -0.1053 0.0000
18.6316 0.0000 0.0000
18.6316 0.1053 0.0000
18.6316 0.2105 0.0000
19.3158 -0.2632 0.0000
19.3158 -0.1579 0.0000
19.3158 -0.0526 0.0000
19.3158 0.0526 0.0000
19.3158 0.1579 0.0000
19.3158 0.2632 0.0000
19.4211 -0.3684 0.0000
19.4211 0.3684 0.0000
19.5263 -0.4737 0.0000
19.5263 0.4737 0.0000
19.6316 -0.5789 0.0000
19.6316 0.5789 0.0000
19.7368 -0.6842 0.0000
19.7368 0.6842 0.0000
19.8421 -0.6842 0.0000
19.8421 0.6842 0.0000
19.9474 -0.6842 0.0000
19.9474 0.6842 0.0000
20.0526 -0.6842 0.0000
20.0526 0.6842 0.0000
20.1579 -0.6842 0.0000
20.1579 0.6842 0.0000
20.2632 -0.6842 0.0000
20.2632 0.6842 0.0000
20.3684 -0.5789 0.0000
20.3684 0.5789 0.0000
20.4737 -0.4737 0.0000
20.4737 0.4737 0.0000
20.5789 -0.3684 0.0000
20.5789 0.3684 0.0000
20.6842 -0.2632 0.0000
20.6842 -0.1579 0.0000
20.6842 -0.0526 0.0000
20.6842 0.0526 0.0000
20.6842 0.1579 0.0000
20.6842 0.2632 0.0000
19.3684 -0.3158 0.0000
19.3684 -0.2105 0.0000
19.3684 0.2105 0.0000
19.3684 0.3158 0.0000
19.4737 -0.4211 0.0000
19.4737 0.4211 0.0000
19.5789 -0.5263 0.0000
19.5789 0.5263 0.0000
19.6842 -0.6316 0.0000
19.6842 0.6316 0.0000
19.7895 -0.6316 0.0000
19.7895 0.6316 0.0000
20.2105 -0.6316 0.0000
20.2105 0.6316 0.0000
20.3158 -0.6316 0.0000
20.3158 0.6316 0.0000
20.4211 -0.5263 0.0000
20.4211 0.5263 0.0000
20.5263 -0.4211 0.0000
20.5263 0.4211 0.0000
20.6316 -0.3158 0.0000
20.6316 -0.2105 0.0000
20.6316 0.2105 0.0000
20.6316 0.3158 0.0000
21.2105 -0.0526 0.0000
21.2105 0.0526 0.0000
21.3158 -0.3684 0.0000
21.3158 -0.2632 0.0000
21.3158 -0.1579 0.0000
21.3158 0.1579 0.0000
21.3158 0.2632 0.0000
21.3158 0.3684 0.0000
21.4211 -0.4737 0.0000
21.4211 0.4737 0.0000
21.5263 -0.5789 0.0000
21.5263 0.5789 0.0000
21.6316 -0.6842 0.0000
21.6316 0.6842 0.0000
21.7368 -0.6842 0.0000
21.7368 0.6842 0.0000
21.8421 -0.6842 0.0000
21.8421 0.6842 0.0000
21.9474 -0.7895 0.0000
21.9474 0.7895 0.0000
22.0526 -0.7895 0.0000
22.0526 0.7895 0.0000
22.1579 -0.6842 0.0000
22.1579 0.6842 0.0000
22.2632 -0.6842 0.0000
22.2632 0.6842 0.0000
22.3684 -0.6842 0.0000
22.3684 0.6842 0.0000
22.4737 -0.5789 0.0000
22.4737 0.5789 0.0000
22.5789 -0.4737 0.0000
22.5789 0.4737 0.0000
[...]
         <PointData>
            <DataArray Name="fValues" NumberOfComponents="3" format="ascii" type="Float64">
 1.74883e+00  1.45208e+01        00000 
-1.75297e+00  1.45144e+01        00000 
 6.30966e+00  1.90071e+01        00000 
-6.29229e+00  1.89976e+01        00000 
 7.08171e+00  2.38990e+01        00000 
-7.06041e+00  2.39048e+01        00000 
 2.62946e+00  2.90040e+01        00000 
-2.62987e+00  2.90064e+01        00000 
 3.81182e+00  1.66392e+01        00000 
-3.83546e+00  1.66451e+01        00000 
 4.98010e+00  2.63839e+01        00000 
-5.01777e+00  2.63926e+01        00000 
 1.87009e+01  1.76666e+02        00000 
 5.96612e+00  1.76472e+02        00000 
-5.95736e+00  1.76477e+02        00000 
-1.87045e+01  1.76666e+02        00000 
 1.93624e+01  1.90003e+02        00000 
-1.93750e+01  1.89998e+02        00000 
 2.02929e+01  2.03830e+02        00000 
-2.03083e+01  2.03829e+02        00000 
 2.10754e+01  2.17808e+02        00000 
 7.18387e+00  2.17730e+02        00000 
-7.17016e+00  2.17728e+02        00000 
-2.10719e+01  2.17801e+02        00000 
 9.93749e+00  4.80545e+02        00000 
-9.93443e+00  4.80546e+02        00000 
 3.05217e+01  5.01553e+02        00000 
-3.05226e+01  5.01560e+02        00000 
 5.31315e+01  5.23710e+02        00000 
-5.31310e+01  5.23706e+02        00000 
 5.42893e+01  5.45728e+02        00000 
-5.42900e+01  5.45736e+02        00000 
 3.35909e+01  5.67657e+02        00000 
-3.35970e+01  5.67656e+02        00000 
 1.14375e+01  5.90176e+02        00000 
-1.14377e+01  5.90176e+02        00000 
 2.00964e+01  4.90930e+02        00000 
-2.01456e-03  4.90758e+02        00000 
-2.00928e+01  4.90929e+02        00000 
 4.16217e+01  5.12571e+02        00000 
-4.16127e+01  5.12570e+02        00000 
 4.27982e+01  5.34572e+02        00000 
-4.27629e+01  5.34571e+02        00000 
 4.41028e+01  5.56628e+02        00000 
-4.40915e+01  5.56631e+02        00000 
 2.26502e+01  5.78851e+02        00000 
-1.38961e-03  5.78841e+02        00000 
-2.26487e+01  5.78849e+02        00000 
 4.12540e+01  9.49058e+02        00000 
 1.35306e+01  9.48839e+02        00000 
-1.35388e+01  9.48835e+02        00000 
-4.12518e+01  9.49052e+02        00000 
 7.06725e+01  9.78276e+02        00000 
-7.06594e+01  9.78274e+02        00000 
 7.17677e+01  1.00776e+03        00000 
-7.17526e+01  1.00776e+03        00000 
 7.31903e+01  1.03745e+03        00000 
-7.31737e+01  1.03745e+03        00000 
 7.44356e+01  1.06719e+03        00000 
-7.44200e+01  1.06720e+03        00000 
 4.56368e+01  1.09703e+03        00000 
 1.53681e+01  1.09698e+03        00000 
-1.53779e+01  1.09698e+03        00000 
-4.56445e+01  1.09703e+03        00000 
 5.57284e+01  9.63568e+02        00000 
-5.57396e+01  9.63577e+02        00000 
 6.02207e+01  1.08204e+03        00000 
-6.02508e+01  1.08205e+03        00000 
 1.69667e+01  1.52265e+03        00000 
-1.69679e+01  1.52264e+03        00000 
 8.68523e+01  1.55823e+03        00000 
 5.13126e+01  1.55788e+03        00000 
-5.13131e+01  1.55786e+03        00000 
-8.68482e+01  1.55823e+03        00000 
 8.74260e+01  1.59442e+03        00000 
-8.74122e+01  1.59441e+03        00000 
 1.25427e+02  1.63142e+03        00000 
-1.25426e+02  1.63144e+03        00000 
 1.26892e+02  1.66814e+03        00000 
-1.26888e+02  1.66811e+03        00000 
 9.22558e+01  1.70453e+03        00000 
-9.22271e+01  1.70453e+03        00000 
 9.30295e+01  1.74141e+03        00000 
 5.63834e+01  1.74128e+03        00000 
-5.63697e+01  1.74129e+03        00000 
-9.30166e+01  1.74141e+03        00000 
 1.89302e+01  1.77867e+03        00000 
-1.89214e+01  1.77867e+03        00000 
 3.40678e+01  1.54012e+03        00000 
 1.01823e-02  1.53990e+03        00000 
-3.40683e+01  1.54013e+03        00000 
 1.06238e+02  1.61285e+03        00000 
-1.06277e+02  1.61286e+03        00000 
 1.07820e+02  1.64961e+03        00000 
-1.07955e+02  1.64961e+03        00000 
 1.09640e+02  1.68627e+03        00000 
-1.09687e+02  1.68626e+03        00000 
 3.77179e+01  1.75992e+03        00000 
 8.48318e-03  1.75986e+03        00000 
-3.77116e+01  1.75991e+03        00000 
 6.05613e+01  2.25393e+03        00000 
 2.00345e+01  2.25362e+03        00000 
-2.00276e+01  2.25363e+03        00000 
-6.05548e+01  2.25393e+03        00000 
 1.02148e+02  2.29624e+03        00000 
-1.02136e+02  2.29624e+03        00000 
 1.45812e+02  2.33951e+03        00000 
-1.45814e+02  2.33952e+03        00000 
 1.47307e+02  2.38268e+03        00000 
-1.47345e+02  2.38269e+03        00000 
 1.49074e+02  2.42588e+03        00000 
-1.49114e+02  2.42587e+03        00000 
 1.50820e+02  2.46901e+03        00000 
-1.50819e+02  2.46899e+03        00000 
 1.09324e+02  2.51203e+03        00000 
-1.09310e+02  2.51202e+03        00000 
 6.62581e+01  2.55554e+03        00000 
 2.22026e+01  2.55548e+03        00000 
-2.21942e+01  2.55548e+03        00000 
-6.62472e+01  2.55554e+03        00000 
 8.12530e+01  2.27501e+03        00000 
-8.12431e+01  2.27500e+03        00000 
 1.23741e+02  2.31783e+03        00000 
-1.23726e+02  2.31784e+03        00000 
 1.30288e+02  2.49046e+03        00000 
-1.30261e+02  2.49044e+03        00000 
 8.79081e+01  2.53374e+03        00000 
-8.78926e+01  2.53374e+03        00000 
 6.86866e+01  3.05679e+03        00000 
 2.28124e+01  3.05653e+03        00000 
-2.28336e+01  3.05652e+03        00000 
-6.86796e+01  3.05679e+03        00000 
 1.63188e+02  3.10516e+03        00000 
 1.15323e+02  3.10470e+03        00000 
-1.15312e+02  3.10474e+03        00000 
-1.63192e+02  3.10518e+03        00000 
 1.63628e+02  3.15383e+03        00000 
-1.63649e+02  3.15384e+03        00000 
 2.14176e+02  3.20336e+03        00000 
-2.14151e+02  3.20334e+03        00000 
 2.15905e+02  3.25254e+03        00000 
-2.15833e+02  3.25254e+03        00000 
 2.18048e+02  3.30177e+03        00000 
-2.17974e+02  3.30179e+03        00000 
 2.19916e+02  3.35102e+03        00000 
-2.19898e+02  3.35108e+03        00000 
 1.73218e+02  3.39990e+03        00000 
-1.73290e+02  3.39995e+03        00000 
 1.73990e+02  3.44918e+03        00000 
 1.25114e+02  3.44908e+03        00000 
-1.25157e+02  3.44909e+03        00000 
-1.74027e+02  3.44919e+03        00000 
 7.54960e+01  3.49872e+03        00000 
 2.52096e+01  3.49868e+03        00000 
-2.52482e+01  3.49868e+03        00000 
-7.55253e+01  3.49873e+03        00000 
 9.19426e+01  3.08063e+03        00000 
-9.19303e+01  3.08062e+03        00000 
 1.88664e+02  3.17852e+03        00000 
-1.88643e+02  3.17851e+03        00000 
 1.96760e+02  3.37538e+03        00000 
-1.96741e+02  3.37543e+03        00000 
 1.00377e+02  3.47384e+03        00000 
-1.00403e+02  3.47386e+03        00000 
 7.66215e+01  3.95963e+03        00000 
 2.54604e+01  3.95955e+03        00000 
-2.54965e+01  3.95955e+03        00000 
-7.66566e+01  3.95963e+03        00000 
 1.28375e+02  4.01234e+03        00000 
-1.28368e+02  4.01233e+03        00000 
 1.81202e+02  4.06626e+03        00000 
-1.81218e+02  4.06627e+03        00000 
 2.36059e+02  4.12110e+03        00000 
-2.36065e+02  4.12109e+03        00000 
 2.92269e+02  4.17627e+03        00000 
-2.92289e+02  4.17629e+03        00000 
 2.94050e+02  4.23109e+03        00000 
-2.94040e+02  4.23109e+03        00000 
 2.95974e+02  4.28587e+03        00000 
-2.95960e+02  4.28588e+03        00000 
 2.97804e+02  4.34056e+03        00000 
-2.97828e+02  4.34054e+03        00000 
 2.45687e+02  4.39472e+03        00000 
-2.45694e+02  4.39476e+03        00000 
 1.92881e+02  4.44917e+03        00000 
-1.92920e+02  4.44918e+03        00000 
 1.38671e+02  4.50397e+03        00000 
-1.38693e+02  4.50398e+03        00000 
 8.34792e+01  4.55932e+03        00000 
 2.78546e+01  4.55935e+03        00000 
-2.78844e+01  4.55935e+03        00000 
-8.35092e+01  4.55932e+03        00000 
 1.02426e+02  3.98586e+03        00000 
 5.09861e+01  3.98549e+03        00000 
-2.24853e-02  3.98529e+03        00000 
-5.10323e+01  3.98548e+03        00000 
-1.02441e+02  3.98584e+03        00000 
 1.54711e+02  4.03925e+03        00000 
-1.54716e+02  4.03925e+03        00000 
 2.08406e+02  4.09366e+03        00000 
-2.08419e+02  4.09366e+03        00000 
 2.64070e+02  4.14865e+03        00000 
-2.64054e+02  4.14864e+03        00000 
 2.65662e+02  4.20340e+03        00000 
-2.65676e+02  4.20344e+03        00000 
 2.67765e+02  4.25823e+03        00000 
-2.67641e+02  4.25823e+03        00000 
 2.69870e+02  4.31301e+03        00000 
-2.69879e+02  4.31296e+03        00000 
 2.71788e+02  4.36761e+03        00000 
-2.71765e+02  4.36763e+03        00000 
 2.19480e+02  4.42189e+03        00000 
-2.19499e+02  4.42191e+03        00000 
 1.65886e+02  4.47654e+03        00000 
-1.65910e+02  4.47655e+03        00000 
 1.11126e+02  4.53160e+03        00000 
 5.56833e+01  4.53157e+03        00000 
-1.56885e-02  4.53154e+03        00000 
-5.57157e+01  4.53158e+03        00000 
-1.11152e+02  4.53160e+03        00000 
 1.40364e+02  5.01085e+03        00000 
 8.38813e+01  5.01055e+03        00000 
 2.78978e+01  5.01028e+03        00000 
-2.79408e+01  5.01028e+03        00000 
-8.39098e+01  5.01054e+03        00000 
-1.40391e+02  5.01085e+03        00000 
 1.97616e+02  5.06902e+03        00000 
-1.97607e+02  5.06902e+03        00000 
 2.56332e+02  5.12835e+03        00000 
-2.56360e+02  5.12838e+03        00000 
 3.16738e+02  5.18830e+03        00000 
-3.16747e+02  5.18830e+03        00000 
 3.18156e+02  5.24821e+03        00000 
-3.18156e+02  5.24819e+03        00000 
 3.19932e+02  5.30812e+03        00000 
-3.19889e+02  5.30812e+03        00000 
 3.22168e+02  5.36798e+03        00000 
-3.22122e+02  5.36800e+03        00000 
 3.24139e+02  5.42770e+03        00000 
-3.24142e+02  5.42776e+03        00000 
 3.25837e+02  5.48719e+03        00000 
-3.25857e+02  5.48722e+03        00000 
 2.68353e+02  5.54646e+03        00000 
-2.68400e+02  5.54651e+03        00000 
 2.10047e+02  5.60604e+03        00000 
-2.10111e+02  5.60606e+03        00000 
 1.50567e+02  5.66601e+03        00000 
 9.04863e+01  5.66606e+03        00000 
 3.01664e+01  5.66607e+03        00000 
-3.02259e+01  5.66607e+03        00000 
-9.05439e+01  5.66607e+03        00000 
-1.50625e+02  5.66602e+03        00000 
 1.68914e+02  5.03983e+03        00000 
 1.12075e+02  5.03935e+03        00000 
-1.12114e+02  5.03933e+03        00000 
-1.68926e+02  5.03982e+03        00000 
 2.26825e+02  5.09866e+03        00000 
-2.26830e+02  5.09867e+03        00000 
 2.86368e+02  5.15827e+03        00000 
-2.86382e+02  5.15828e+03        00000 
 2.87245e+02  5.21798e+03        00000 
-2.87259e+02  5.21798e+03        00000 
 2.95869e+02  5.45723e+03        00000 
-2.95876e+02  5.45726e+03        00000 
 2.97193e+02  5.51678e+03        00000 
-2.97215e+02  5.51682e+03        00000 
 2.39362e+02  5.57621e+03        00000 
-2.39413e+02  5.57624e+03        00000 
 1.80379e+02  5.63599e+03        00000 
 1.20536e+02  5.63601e+03        00000 
-1.20594e+02  5.63602e+03        00000 
-1.80438e+02  5.63600e+03        00000 
 9.04449e+01  6.09227e+03        00000 
 3.00839e+01  6.09218e+03        00000 
-3.01464e+01  6.09218e+03        00000 
-9.05040e+01  6.09227e+03        00000 
 2.12499e+02  6.15444e+03        00000 
 1.51165e+02  6.15409e+03        00000 
-1.51192e+02  6.15408e+03        00000 
-2.12545e+02  6.15444e+03        00000 
 2.74937e+02  6.21760e+03        00000 
-2.74977e+02  6.21759e+03        00000 
 3.38814e+02  6.28160e+03        00000 
-3.38848e+02  6.28159e+03        00000 
 3.39616e+02  6.34586e+03        00000 
-3.39647e+02  6.34584e+03        00000 
 4.05546e+02  6.41091e+03        00000 
-4.05592e+02  6.41092e+03        00000 
 4.07248e+02  6.47557e+03        00000 
-4.07277e+02  6.47558e+03        00000 
 4.09069e+02  6.54014e+03        00000 
-4.09094e+02  6.54010e+03        00000 
 4.10852e+02  6.60441e+03        00000 
-4.10901e+02  6.60438e+03        00000 
 3.49396e+02  6.66795e+03        00000 
-3.49423e+02  6.66798e+03        00000 
 3.50594e+02  6.73190e+03        00000 
-3.50629e+02  6.73190e+03        00000 
 2.88239e+02  6.79567e+03        00000 
-2.88275e+02  6.79567e+03        00000 
 2.24943e+02  6.85984e+03        00000 
 1.60911e+02  6.85993e+03        00000 
-1.60946e+02  6.85993e+03        00000 
-2.24977e+02  6.85984e+03        00000 
 9.66005e+01  6.92446e+03        00000 
 3.21956e+01  6.92452e+03        00000 
-3.22284e+01  6.92452e+03        00000 
-9.66338e+01  6.92446e+03        00000 
 1.20755e+02  6.12306e+03        00000 
 6.02196e+01  6.12270e+03        00000 
-2.90226e-02  6.12252e+03        00000 
-6.02879e+01  6.12268e+03        00000 
-1.20797e+02  6.12304e+03        00000 
 2.43615e+02  6.18596e+03        00000 
 1.81759e+02  6.18542e+03        00000 
-1.81805e+02  6.18542e+03        00000 
-2.43657e+02  6.18595e+03        00000 
 3.06710e+02  6.24954e+03        00000 
-3.06747e+02  6.24953e+03        00000 
 3.07083e+02  6.31351e+03        00000 
-3.07121e+02  6.31350e+03        00000 
 3.72488e+02  6.37834e+03        00000 
-3.72499e+02  6.37832e+03        00000 
 3.74032e+02  6.44298e+03        00000 
-3.74067e+02  6.44301e+03        00000 
 3.75984e+02  6.50761e+03        00000 
-3.76062e+02  6.50760e+03        00000 
 3.78166e+02  6.57208e+03        00000 
-3.78190e+02  6.57201e+03        00000 
 3.80127e+02  6.63616e+03        00000 
-3.80124e+02  6.63618e+03        00000 
 3.18587e+02  6.69980e+03        00000 
-3.18632e+02  6.69980e+03        00000 
 3.19550e+02  6.76373e+03        00000 
-3.19586e+02  6.76373e+03        00000 
 2.56687e+02  6.82772e+03        00000 
 1.92920e+02  6.82779e+03        00000 
-1.92954e+02  6.82779e+03        00000 
-2.56722e+02  6.82771e+03        00000 
 1.28769e+02  6.89218e+03        00000 
 6.44072e+01  6.89226e+03        00000 
-1.65933e-02  6.89229e+03        00000 
-6.44401e+01  6.89226e+03        00000 
-1.28804e+02  6.89218e+03        00000 
 1.60874e+02  7.31464e+03        00000 
 9.63164e+01  7.31435e+03        00000 
 3.20846e+01  7.31410e+03        00000 
-3.21149e+01  7.31410e+03        00000 
-9.63407e+01  7.31436e+03        00000 
-1.60908e+02  7.31464e+03        00000 
 2.25922e+02  7.38096e+03        00000 
-2.25956e+02  7.38096e+03        00000 
 2.91656e+02  7.44835e+03        00000 
-2.91721e+02  7.44831e+03        00000 
 3.59095e+02  7.51671e+03        00000 
-3.59125e+02  7.51670e+03        00000 
 4.28217e+02  7.58561e+03        00000 
-4.28251e+02  7.58560e+03        00000 
 4.29459e+02  7.65458e+03        00000 
-4.29492e+02  7.65456e+03        00000 
 4.31040e+02  7.72350e+03        00000 
-4.31069e+02  7.72349e+03        00000 
 4.33063e+02  7.79235e+03        00000 
-4.33093e+02  7.79234e+03        00000 
 4.34982e+02  7.86101e+03        00000 
-4.35019e+02  7.86102e+03        00000 
 4.36617e+02  7.92913e+03        00000 
-4.36652e+02  7.92912e+03        00000 
 3.70959e+02  7.99672e+03        00000 
-3.70988e+02  7.99671e+03        00000 
 3.04661e+02  8.06456e+03        00000 
-3.04654e+02  8.06453e+03        00000 
 2.37446e+02  8.13258e+03        00000 
-2.37463e+02  8.13258e+03        00000 
 1.69657e+02  8.20087e+03        00000 
 1.01762e+02  8.20104e+03        00000 
 3.39088e+01  8.20115e+03        00000 
-3.39330e+01  8.20115e+03        00000 
-1.01785e+02  8.20104e+03        00000 
-1.69674e+02  8.20087e+03        00000 
 1.93359e+02  7.34770e+03        00000 
 1.28541e+02  7.34715e+03        00000 
-1.28573e+02  7.34716e+03        00000 
-1.93394e+02  7.34771e+03        00000 
 2.58762e+02  7.41458e+03        00000 
-2.58808e+02  7.41458e+03        00000 
 3.25213e+02  7.48253e+03        00000 
-3.25246e+02  7.48251e+03        00000 
 3.93463e+02  7.55108e+03        00000 
-3.93496e+02  7.55107e+03        00000 
 3.94229e+02  7.61986e+03        00000 
-3.94262e+02  7.61986e+03        00000 
 4.02354e+02  7.89491e+03        00000 
-4.02395e+02  7.89490e+03        00000 
 4.03866e+02  7.96288e+03        00000 
-4.03904e+02  7.96287e+03        00000 
 3.37926e+02  8.03059e+03        00000 
-3.37947e+02  8.03058e+03        00000 
 2.71135e+02  8.09855e+03        00000 
-2.71149e+02  8.09854e+03        00000 
 2.03578e+02  8.16671e+03        00000 
 1.35723e+02  8.16691e+03        00000 
-1.35742e+02  8.16691e+03        00000 
-2.03594e+02  8.16671e+03        00000 
 3.37785e+01  8.54310e+03        00000 
-3.38120e+01  8.54310e+03        00000 
 2.37638e+02  8.61256e+03        00000 
 1.69347e+02  8.61214e+03        00000 
 1.01458e+02  8.61160e+03        00000 
-1.01517e+02  8.61152e+03        00000 
-1.69376e+02  8.61211e+03        00000 
-2.37635e+02  8.61255e+03        00000 
 3.06499e+02  8.68275e+03        00000 
-3.06466e+02  8.68277e+03        00000 
 3.76324e+02  8.75403e+03        00000 
-3.76353e+02  8.75411e+03        00000 
 4.47860e+02  8.82614e+03        00000 
-4.47897e+02  8.82618e+03        00000 
 4.48392e+02  8.89867e+03        00000 
-4.48433e+02  8.89868e+03        00000 
 4.49218e+02  8.97167e+03        00000 
-4.49178e+02  8.97169e+03        00000 
 5.23615e+02  9.04529e+03        00000 
-5.23671e+02  9.04530e+03        00000 
 5.25146e+02  9.11833e+03        00000 
-5.25187e+02  9.11821e+03        00000 
 4.55433e+02  9.19037e+03        00000 
-4.55223e+02  9.19021e+03        00000 
 4.57138e+02  9.26233e+03        00000 
-4.57101e+02  9.26226e+03        00000 
 4.58385e+02  9.33392e+03        00000 
-4.58375e+02  9.33390e+03        00000 
 3.88723e+02  9.40513e+03        00000 
-3.88744e+02  9.40514e+03        00000 
 3.18562e+02  9.47657e+03        00000 
-3.18594e+02  9.47656e+03        00000 
 2.47768e+02  9.54814e+03        00000 
 1.76840e+02  9.54845e+03        00000 
 1.06008e+02  9.54882e+03        00000 
-1.05987e+02  9.54877e+03        00000 
-1.76838e+02  9.54843e+03        00000 
-2.47780e+02  9.54813e+03        00000 
 3.52915e+01  9.62001e+03        00000 
-3.52879e+01  9.62001e+03        00000 
 6.75818e+01  8.57724e+03        00000 
-1.25322e-02  8.57709e+03        00000 
-6.76292e+01  8.57723e+03        00000 
 2.72035e+02  8.64759e+03        00000 
 2.03405e+02  8.64705e+03        00000 
-2.03451e+02  8.64698e+03        00000 
-2.72020e+02  8.64759e+03        00000 
 3.41329e+02  8.71836e+03        00000 
-3.41324e+02  8.71842e+03        00000 
 4.11922e+02  8.79003e+03        00000 
-4.11958e+02  8.79009e+03        00000 
 4.11991e+02  8.86224e+03        00000 
-4.12038e+02  8.86225e+03        00000 
 4.86371e+02  9.00843e+03        00000 
-4.86459e+02  9.00849e+03        00000 
 4.88021e+02  9.08162e+03        00000 
-4.88186e+02  9.08157e+03        00000 
 4.90022e+02  9.15443e+03        00000 
-4.90081e+02  9.15425e+03        00000 
 4.22673e+02  9.29806e+03        00000 
-4.22575e+02  9.29798e+03        00000 
 4.23638e+02  9.36948e+03        00000 
-4.23642e+02  9.36947e+03        00000 
 3.53748e+02  9.44081e+03        00000 
-3.53771e+02  9.44081e+03        00000 
 2.83211e+02  9.51234e+03        00000 
 2.12316e+02  9.51263e+03        00000 
-2.12309e+02  9.51260e+03        00000 
-2.83231e+02  9.51233e+03        00000 
 7.06242e+01  9.58446e+03        00000 
-1.01642e-03  9.58457e+03        00000 
-7.06095e+01  9.58446e+03        00000 
 1.76457e+02  9.90567e+03        00000 
 1.05707e+02  9.90536e+03        00000 
 3.52246e+01  9.90512e+03        00000 
-3.52410e+01  9.90511e+03        00000 
-1.05726e+02  9.90535e+03        00000 
-1.76457e+02  9.90567e+03        00000 
 3.19112e+02  9.97847e+03        00000 
 2.47524e+02  9.97807e+03        00000 
-2.47516e+02  9.97808e+03        00000 
-3.19070e+02  9.97853e+03        00000 
 3.91388e+02  1.00520e+04        00000 
-3.91377e+02  1.00521e+04        00000 
 4.64797e+02  1.01264e+04        00000 
-4.64832e+02  1.01265e+04        00000 
 4.64776e+02  1.02016e+04        00000 
-4.64857e+02  1.02017e+04        00000 
 5.40671e+02  1.02779e+04        00000 
-5.40741e+02  1.02780e+04        00000 
 5.41523e+02  1.03547e+04        00000 
-5.41582e+02  1.03548e+04        00000 
 5.42671e+02  1.04318e+04        00000 