<?xml version="1.0" encoding="utf-8"?>
<VTKFile byte_order="LittleEndian" type="UnstructuredGrid" version="0.1">
   <UnstructuredGrid>
      <Piece NumberOfCells="266" NumberOfPoints="351">
         <Points>
            <DataArray Name="Points" NumberOfComponents="3" format="ascii" type="Float32">
-1.1125 1.0007 0.0000
-1.0821 0.9070 0.0000
-1.0113 1.0007 0.0000
-1.0518 0.8133 0.0000
-0.9759 0.9056 0.0000
-0.9102 1.0007 0.0000
-1.4905 0.1573 0.0000
-1.0215 0.7196 0.0000
-0.9415 0.8092 0.0000
-0.8091 1.0007 0.0000
-0.8702 0.9033 0.0000
-1.4905 0.0524 0.0000
-1.3975 0.1573 0.0000
-0.9911 0.6258 0.0000
-0.9094 0.7109 0.0000
-0.7079 1.0007 0.0000
-0.8314 0.8038 0.0000
-0.7651 0.9010 0.0000
-1.3980 0.0523 0.0000
-1.4905 -0.0524 0.0000
-1.3045 0.1573 0.0000
-0.9608 0.5321 0.0000
-0.8800 0.6125 0.0000
-1.3981 -0.0525 0.0000
-1.3061 0.0521 0.0000
-1.4905 -0.1573 0.0000
-0.6068 1.0007 0.0000
-1.2115 0.1573 0.0000
-0.7946 0.7021 0.0000
-0.6618 0.8997 0.0000
-0.7203 0.7993 0.0000
-0.9305 0.4384 0.0000
-1.3061 -0.0530 0.0000
-1.3975 -0.1573 0.0000
-0.8526 0.5132 0.0000
-1.2128 0.0519 0.0000
-1.1185 0.1573 0.0000
-0.5057 1.0007 0.0000
-0.7676 0.5994 0.0000
-0.5588 0.8996 0.0000
-0.6152 0.7975 0.0000
-0.6715 0.6925 0.0000
-0.9001 0.3447 0.0000
-1.2132 -0.0532 0.0000
-1.3045 -0.1573 0.0000
-1.1203 0.0516 0.0000
-1.0255 0.1573 0.0000
-0.8278 0.4133 0.0000
-0.7437 0.4941 0.0000
-0.4045 1.0007 0.0000
-0.4565 0.8997 0.0000
-0.6525 0.5853 0.0000
-0.5112 0.7974 0.0000
-0.5682 0.6925 0.0000
-1.2115 -0.1573 0.0000
-1.1198 -0.0530 0.0000
-0.8698 0.2510 0.0000
-1.0266 0.0519 0.0000
-0.9325 0.1573 0.0000
-0.8070 0.3156 0.0000
-0.7226 0.3865 0.0000
-0.3034 1.0007 0.0000
-0.6334 0.4781 0.0000
-0.3544 0.8997 0.0000
-1.1185 -0.1573 0.0000
-0.4080 0.7974 0.0000
-1.0271 -0.0531 0.0000
-0.7965 0.2360 0.0000
-0.9336 0.0519 0.0000
-0.4649 0.6925 0.0000
-0.8395 0.1573 0.0000
-0.7011 0.2684 0.0000
-0.7354 0.2204 0.0000
-0.7736 0.1571 0.0000
-0.6143 0.3708 0.0000
-1.0255 -0.1573 0.0000
-0.2023 1.0007 0.0000
-0.9332 -0.0527 0.0000
-0.2524 0.8998 0.0000
-0.8395 0.0524 0.0000
-0.3052 0.7974 0.0000
-0.3616 0.6925 0.0000
-0.7078 0.1568 0.0000
-0.9325 -0.1573 0.0000
-0.8395 -0.0524 0.0000
-0.5952 0.2636 0.0000
-0.7392 0.0538 0.0000
-0.1011 1.0007 0.0000
-0.6941 0.0995 0.0000
-0.1504 0.8998 0.0000
-0.6420 0.1566 0.0000
-0.2025 0.7975 0.0000
-0.2583 0.6925 0.0000
-0.8395 -0.1573 0.0000
-0.6354 0.0879 0.0000
-0.7460 -0.0561 0.0000
-0.5762 0.1564 0.0000
0.0000 1.0007 0.0000
-0.8698 -0.2510 0.0000
-0.0485 0.8999 0.0000
-0.6438 0.0178 0.0000
-0.0998 0.7976 0.0000
-0.1550 0.6925 0.0000
-0.7517 -0.1571 0.0000
-0.5622 0.0782 0.0000
-0.9001 -0.3447 0.0000
-0.6537 -0.0686 0.0000
-0.7787 -0.2543 0.0000
-0.9305 -0.4384 0.0000
0.1011 1.0007 0.0000
-0.5483 -0.0000 0.0000
0.0534 0.9000 0.0000
-0.6640 -0.1569 0.0000
0.0029 0.7976 0.0000
-0.0517 0.6925 0.0000
-0.8053 -0.3522 0.0000
-0.9608 -0.5321 0.0000
-0.5623 -0.0784 0.0000
-0.6873 -0.2582 0.0000
-0.9911 -0.6258 0.0000
-0.8323 -0.4507 0.0000
-0.5762 -0.1568 0.0000
0.2023 1.0007 0.0000
0.1554 0.9002 0.0000
0.1054 0.7976 0.0000
-0.7100 -0.3614 0.0000
0.0517 0.6925 0.0000
-1.0215 -0.7196 0.0000
-0.8599 -0.5498 0.0000
-0.5953 -0.2639 0.0000
-0.7332 -0.4640 0.0000
-1.0518 -0.8133 0.0000
-0.8897 -0.6494 0.0000
0.3034 1.0007 0.0000
0.2577 0.9000 0.0000
-0.6144 -0.3711 0.0000
0.2080 0.7977 0.0000
-1.0821 -0.9070 0.0000
0.1550 0.6925 0.0000
-0.9236 -0.7470 0.0000
-0.7570 -0.5679 0.0000
-0.9642 -0.8289 0.0000
-0.6334 -0.4782 0.0000
-1.1125 -1.0007 0.0000
-0.7844 -0.6750 0.0000
0.4045 1.0007 0.0000
-0.9892 -0.9126 0.0000
0.3615 0.9013 0.0000
0.3114 0.7980 0.0000
0.2583 0.6925 0.0000
-0.8949 -0.8453 0.0000
-0.6525 -0.5854 0.0000
-0.8205 -0.7923 0.0000
-1.0113 -1.0007 0.0000
-0.9001 -0.9147 0.0000
-0.6715 -0.6925 0.0000
0.5057 1.0007 0.0000
0.4668 0.9039 0.0000
0.4166 0.7984 0.0000
0.3616 0.6925 0.0000
-0.9102 -1.0007 0.0000
-0.8071 -0.9011 0.0000
-0.6944 -0.7948 0.0000
-0.5682 -0.6925 0.0000
0.6068 1.0007 0.0000
0.5735 0.9135 0.0000
-0.8091 -1.0007 0.0000
0.4649 0.6925 0.0000
0.5287 0.8020 0.0000
-0.7006 -0.8989 0.0000
-0.5852 -0.7957 0.0000
-0.4649 -0.6925 0.0000
0.6592 0.9384 0.0000
-0.7079 -1.0007 0.0000
0.7079 1.0007 0.0000
-0.5968 -0.8994 0.0000
0.5682 0.6925 0.0000
0.7179 0.9589 0.0000
-0.4794 -0.7962 0.0000
0.6623 0.8108 0.0000
-0.3616 -0.6925 0.0000
-0.6068 -1.0007 0.0000
0.7377 0.8847 0.0000
-0.4926 -0.8992 0.0000
0.8091 1.0007 0.0000
0.7867 0.9406 0.0000
-0.3752 -0.7965 0.0000
0.6715 0.6925 0.0000
-0.2583 -0.6925 0.0000
-0.5057 -1.0007 0.0000
0.6525 0.5854 0.0000
-0.3901 -0.8986 0.0000
0.9102 1.0007 0.0000
0.6334 0.4783 0.0000
-0.2720 -0.7957 0.0000
0.8808 0.9249 0.0000
0.8425 0.8490 0.0000
0.7995 0.7655 0.0000
-0.1550 -0.6925 0.0000
0.7782 0.6672 0.0000
-0.4045 -1.0007 0.0000
0.6144 0.3712 0.0000
-0.2879 -0.8982 0.0000
0.7559 0.5662 0.0000
0.5953 0.2641 0.0000
-0.1698 -0.7960 0.0000
1.0113 1.0007 0.0000
0.7324 0.4634 0.0000
0.9814 0.9141 0.0000
-0.0517 -0.6925 0.0000
0.9481 0.8282 0.0000
-0.3034 -1.0007 0.0000
0.9138 0.7394 0.0000
0.5763 0.1570 0.0000
0.7097 0.3613 0.0000
-0.1859 -0.8984 0.0000
0.8856 0.6453 0.0000
0.5623 0.0785 0.0000
-0.0666 -0.7957 0.0000
0.6869 0.2583 0.0000
0.8591 0.5486 0.0000
1.1125 1.0007 0.0000
0.5483 -0.0000 0.0000
0.0517 -0.6925 0.0000
0.8320 0.4506 0.0000
-0.2023 -1.0007 0.0000
1.0821 0.9070 0.0000
0.6640 0.1571 0.0000
1.0518 0.8133 0.0000
-0.0841 -0.8980 0.0000
0.8051 0.3522 0.0000
1.0215 0.7196 0.0000
0.6579 0.0787 0.0000
0.5622 -0.0779 0.0000
0.0362 -0.7954 0.0000
0.9911 0.6258 0.0000
0.7784 0.2542 0.0000
0.9608 0.5321 0.0000
-0.1011 -1.0007 0.0000
0.1550 -0.6925 0.0000
0.7517 0.1572 0.0000
0.6532 0.0003 0.0000
0.9305 0.4384 0.0000
0.0180 -0.8986 0.0000
0.5761 -0.1558 0.0000
0.9001 0.3447 0.0000
0.7495 0.0787 0.0000
0.6577 -0.0779 0.0000
0.1390 -0.7952 0.0000
0.8698 0.2510 0.0000
0.0000 -1.0007 0.0000
0.8395 0.1573 0.0000
0.2583 -0.6925 0.0000
0.7479 0.0002 0.0000
0.6639 -0.1563 0.0000
0.5952 -0.2631 0.0000
0.1200 -0.8988 0.0000
0.8395 0.0786 0.0000
0.7494 -0.0782 0.0000
0.2411 -0.7958 0.0000
0.9208 0.1573 0.0000
0.1011 -1.0007 0.0000
0.8395 -0.0000 0.0000
0.3616 -0.6925 0.0000
0.7517 -0.1568 0.0000
0.6865 -0.2555 0.0000
0.6143 -0.3705 0.0000
0.9175 0.0894 0.0000
0.2219 -0.8987 0.0000
0.8395 -0.0786 0.0000
0.3444 -0.7970 0.0000
1.0022 0.1573 0.0000
0.9299 0.0193 0.0000
0.9837 0.1007 0.0000
0.2023 -1.0007 0.0000
0.7772 -0.2480 0.0000
0.8395 -0.1573 0.0000
0.4649 -0.6925 0.0000
0.7087 -0.3554 0.0000
0.6334 -0.4778 0.0000
0.3240 -0.8995 0.0000
0.9316 -0.0677 0.0000
1.0836 0.1573 0.0000
1.0312 0.0555 0.0000
0.4492 -0.7978 0.0000
0.3034 -1.0007 0.0000
0.8668 -0.2416 0.0000
0.8022 -0.3403 0.0000
0.7321 -0.4553 0.0000
0.9325 -0.1573 0.0000
0.5682 -0.6925 0.0000
0.6525 -0.5852 0.0000
0.4269 -0.9007 0.0000
1.0280 -0.0555 0.0000
1.1650 0.1573 0.0000
0.8941 -0.3260 0.0000
1.1377 0.0532 0.0000
0.5607 -0.8008 0.0000
0.4045 -1.0007 0.0000
0.8278 -0.4327 0.0000
0.7549 -0.5537 0.0000
1.0255 -0.1573 0.0000
0.6715 -0.6925 0.0000
1.2464 0.1573 0.0000
0.5325 -0.9036 0.0000
1.1252 -0.0528 0.0000
0.9214 -0.4103 0.0000
0.8538 -0.5241 0.0000
1.2295 0.0529 0.0000
0.5057 -1.0007 0.0000
0.7812 -0.6504 0.0000
1.1185 -0.1573 0.0000
1.3277 0.1573 0.0000
0.6955 -0.8080 0.0000
1.2181 -0.0522 0.0000
0.6365 -0.9121 0.0000
0.9487 -0.4946 0.0000
0.8813 -0.6128 0.0000
1.3173 0.0527 0.0000
0.6068 -1.0007 0.0000
0.8152 -0.7435 0.0000
1.2115 -0.1573 0.0000
1.4091 0.1573 0.0000
1.3093 -0.0521 0.0000
0.7145 -0.9362 0.0000
0.9760 -0.5790 0.0000
0.9132 -0.6982 0.0000
1.4039 0.0526 0.0000
0.7079 -1.0007 0.0000
0.7989 -0.8959 0.0000
1.3045 -0.1573 0.0000
1.4905 0.1573 0.0000
0.8709 -0.8174 0.0000
1.0033 -0.6633 0.0000
1.3998 -0.0521 0.0000
0.9494 -0.7763 0.0000
1.4905 0.0524 0.0000
0.8091 -1.0007 0.0000
0.9194 -0.8601 0.0000
1.3975 -0.1573 0.0000
0.9061 -0.9178 0.0000
1.0306 -0.7477 0.0000
1.4905 -0.0524 0.0000
0.9813 -0.8452 0.0000
0.9102 -1.0007 0.0000
1.4905 -0.1573 0.0000
1.0579 -0.8320 0.0000
0.9961 -0.9192 0.0000
1.0113 -1.0007 0.0000
1.0852 -0.9164 0.0000
1.1125 -1.0007 0.0000</DataArray>
         </Points>
         <Cells>
            <DataArray Name="connectivity" format="ascii" type="Int32">
 0 1 4 2
 1 3 8 4
 3 7 14 8
 4 8 16 10
 5 2 4 10
 7 13 22 14
 9 5 10 17
 10 16 30 17
 11 19 23 18
 12 6 11 18
 13 21 34 22
 14 28 16 8
 15 9 17 29
 17 30 40 29
 18 23 32 24
 20 12 18 24
 21 31 47 34
 22 38 28 14
 24 32 43 35
 25 33 23 19
 26 15 29 39
 27 20 24 35
 28 41 30 16
 29 40 52 39
 31 42 59 47
 33 44 32 23
 34 48 38 22
 36 27 35 45
 37 26 39 50
 39 52 65 50
 41 53 40 30
 42 56 67 59
 44 54 43 32
 45 35 43 55
 46 36 45 57
 47 60 48 34
 49 37 50 63
 50 65 80 63
 51 41 28 38
 53 69 52 40
 55 43 54 64
 58 46 57 68
 59 71 60 47
 61 49 63 78
 62 51 38 48
 63 80 91 78
 64 75 66 55
 66 57 45 55
 67 72 71 59
 69 81 65 52
 70 58 68 79
 70 73 67 56
 73 70 79 86
 73 82 72 67
 74 62 48 60
 75 83 77 66
 76 61 78 89
 77 68 57 66
 78 91 101 89
 79 84 95 86
 81 92 80 65
 82 73 86 88
 82 90 71 72
 83 93 84 77
 84 79 68 77
 85 74 60 71
 87 76 89 99
 88 86 100 94
 89 101 113 99
 90 82 88 94
 90 96 85 71
 92 102 91 80
 93 103 95 84
 95 106 100 86
 96 90 94 104
 97 87 99 111
 98 105 115 107
 99 113 124 111
 102 114 101 91
 103 112 106 95
 103 93 98 107
 105 108 120 115
 108 116 128 120
 109 97 111 123
 110 104 94 100
 111 124 136 123
 112 103 107 118
 114 126 113 101
 115 125 118 107
 116 119 132 128
 117 110 100 106
 119 127 139 132
 121 117 106 112
 121 112 118 129
 122 109 123 134
 123 136 148 134
 125 115 120 130
 126 138 124 113
 127 131 141 139
 130 120 128 140
 131 137 146 141
 132 139 152 144
 133 122 134 147
 134 148 158 147
 135 129 118 125
 137 143 153 146
 138 149 136 124
 139 141 150 152
 140 128 132 144
 141 146 154 150
 142 135 125 130
 145 133 147 157
 147 158 168 157
 149 159 148 136
 151 142 130 140
 152 161 169 162
 153 160 154 146
 154 161 152 150
 155 151 140 144
 155 144 152 162
 156 145 157 165
 157 168 179 165
 159 167 158 148
 160 166 161 154
 162 169 175 170
 163 155 162 170
 164 156 165 172
 166 173 169 161
 167 176 168 158
 170 175 183 178
 171 163 170 178
 172 165 179 182
 172 182 185 177
 173 181 175 169
 174 164 172 177
 176 187 179 168
 178 183 191 186
 179 197 196 182
 180 171 178 186
 181 189 183 175
 184 174 177 185
 186 191 202 194
 187 190 203 199
 187 199 197 179
 188 180 186 194
 189 200 191 183
 190 193 207 203
 192 184 185 195
 193 201 214 207
 194 202 215 205
 196 195 185 182
 198 188 194 205
 200 211 202 191
 201 204 219 214
 203 220 216 199
 205 215 229 218
 206 192 195 208
 207 224 220 203
 208 195 196 210
 209 198 205 218
 211 225 215 202
 212 210 196 197
 213 217 232 227
 213 227 219 204
 214 230 224 207
 216 212 197 199
 218 229 243 234
 219 236 230 214
 222 233 247 241
 223 209 218 234
 225 238 229 215
 226 221 206 208
 227 240 236 219
 228 226 208 210
 231 228 210 212
 233 244 254 247
 234 243 256 248
 235 231 212 216
 237 235 216 220
 238 250 243 229
 239 223 234 248
 240 251 249 236
 241 232 217 222
 241 253 246 232
 242 237 220 224
 245 242 224 230
 246 240 227 232
 247 258 253 241
 248 256 268 259
 249 245 230 236
 250 261 256 243
 251 257 267 260
 252 239 248 259
 254 264 258 247
 254 244 255 265
 255 266 278 265
 257 251 240 246
 257 262 272 267
 259 268 280 270
 261 274 268 256
 262 257 246 253
 262 269 281 272
 263 252 259 270
 264 254 265 275
 266 279 288 278
 269 262 253 258
 269 276 289 281
 270 280 292 284
 271 260 267 273
 273 267 272 283
 274 285 280 268
 275 265 278 287
 276 269 258 264
 276 264 275 286
 277 263 270 284
 279 291 300 288
 281 293 283 272
 282 271 273 283
 284 292 304 297
 285 298 292 280
 287 278 288 299
 289 301 293 281
 290 277 284 297
 291 302 310 300
 294 282 283 296
 295 286 275 287
 298 309 304 292
 299 288 300 307
 301 311 305 293
 302 290 297 313
 303 294 296 308
 304 315 313 297
 305 296 283 293
 306 295 287 299
 307 300 310 317
 309 319 315 304
 310 302 313 320
 311 321 314 305
 312 303 308 318
 314 308 296 305
 316 306 299 307
 319 328 324 315
 321 330 323 314
 322 312 318 327
 323 318 308 314
 324 329 313 315
 325 316 307 317
 326 317 310 320
 328 337 329 324
 330 339 334 323
 331 322 327 336
 332 320 313 329
 333 325 317 326
 334 327 318 323
 335 326 320 332
 337 344 340 329
 339 345 342 334
 340 338 332 329
 341 333 326 335
 342 336 327 334
 343 335 332 338
 344 348 347 340
 346 341 335 343
 347 343 338 340
 349 346 343 347
 350 349 347 348</DataArray>
            <DataArray Name="offsets" format="ascii" type="Int32">4 8 12 16 20 24 28 32 36 40 44 48 52 56 60 64 68 72 76 80 84 88 92 96 100 104 108 112 116 120 124 128 132 136 140 144 148 152 156 160 164 168 172 176 180 184 188 192 196 200 204 208 212 216 220 224 228 232 236 240 244 248 252 256 260 264 268 272 276 280 284 288 292 296 300 304 308 312 316 320 324 328 332 336 340 344 348 352 356 360 364 368 372 376 380 384 388 392 396 400 404 408 412 416 420 424 428 432 436 440 444 448 452 456 460 464 468 472 476 480 484 488 492 496 500 504 508 512 516 520 524 528 532 536 540 544 548 552 556 560 564 568 572 576 580 584 588 592 596 600 604 608 612 616 620 624 628 632 636 640 644 648 652 656 660 664 668 672 676 680 684 688 692 696 700 704 708 712 716 720 724 728 732 736 740 744 748 752 756 760 764 768 772 776 780 784 788 792 796 800 804 808 812 816 820 824 828 832 836 840 844 848 852 856 860 864 868 872 876 880 884 888 892 896 900 904 908 912 916 920 924 928 932 936 940 944 948 952 956 960 964 968 972 976 980 984 988 992 996 1000 1004 1008 1012 1016 1020 1024 1028 1032 1036 1040 1044 1048 1052 1056 1060 1064 </DataArray>
            <DataArray Name="types" format="ascii" type="UInt8">9 9 9 9 9 9 9 9 9 9 9 9 9 9 9 9 9 9 9 9 9 9 9 9 9 9 9 9 9 9 9 9 9 9 9 9 9 9 9 9 9 9 9 9 9 9 9 9 9 9 9 9 9 9 9 9 9 9 9 9 9 9 9 9 9 9 9 9 9 9 9 9 9 9 9 9 9 9 9 9 9 9 9 9 9 9 9 9 9 9 9 9 9 9 9 9 9 9 9 9 9 9 9 9 9 9 9 9 9 9 9 9 9 9 9 9 9 9 9 9 9 9 9 9 9 9 9 9 9 9 9 9 9 9 9 9 9 9 9 9 9 9 9 9 9 9 9 9 9 9 9 9 9 9 9 9 9 9 9 9 9 9 9 9 9 9 9 9 9 9 9 9 9 9 9 9 9 9 9 9 9 9 9 9 9 9 9 9 9 9 9 9 9 9 9 9 9 9 9 9 9 9 9 9 9 9 9 9 9 9 9 9 9 9 9 9 9 9 9 9 9 9 9 9 9 9 9 9 9 9 9 9 9 9 9 9 9 9 9 9 9 9 9 9 9 9 9 9 9 9 9 9 9 9 9 9 9 9 9 9 9 9 9 9 9 9 </DataArray>
         </Cells>
         <PointData>
            <DataArray Name="fValues" NumberOfComponents="3" format="ascii" type="Float64">
-1.65802e-18  1.05655e+00        00000 
 1.27832e-18  9.92515e-01        00000 
-1.86917e-18  1.00604e+00        00000 
 1.70163e-18  9.30022e-01        00000 
-1.25690e-02  9.48121e-01        00000 
 2.99396e-18  9.55434e-01        00000 
 1.23590e-18  7.20492e-01        00000 
 3.45941e-19  8.68833e-01        00000 
-2.04744e-02  8.89004e-01        00000 
-1.71527e-17  9.04855e-01        00000 
-2.33614e-02  9.01983e-01        00000 
 2.81534e-19  6.55284e-01        00000 
-3.73641e-18  6.93848e-01        00000 
-5.14096e-18  8.09414e-01        00000 
-2.36624e-02  8.30803e-01        00000 
 5.68154e-18  8.54269e-01        00000 
-3.99808e-02  8.48134e-01        00000 
-3.30704e-02  8.58630e-01        00000 
-1.14968e-02  6.32624e-01        00000 
-1.30662e-18  5.89968e-01        00000 
 6.03487e-18  6.65947e-01        00000 
 1.17349e-17  7.50139e-01        00000 
-2.28853e-02  7.75983e-01        00000 
-1.11966e-02  5.66647e-01        00000 
-2.50394e-02  6.10957e-01        00000 
       00000  5.24760e-01        00000 
 1.46411e-17  8.03685e-01        00000 
-5.56694e-18  6.42747e-01        00000 
-4.47616e-02  7.94510e-01        00000 
-3.96523e-02  8.18329e-01        00000 
-5.87129e-02  8.16249e-01        00000 
-1.69747e-17  6.97044e-01        00000 
-2.48661e-02  5.44290e-01        00000 
 1.24737e-18  5.04902e-01        00000 
-2.15033e-02  7.26064e-01        00000 
-4.19949e-02  5.84887e-01        00000 
-9.83455e-03  5.49635e-01        00000 
 1.36342e-17  7.53100e-01        00000 
-4.00450e-02  7.47099e-01        00000 
-4.17334e-02  7.76198e-01        00000 
-7.04341e-02  7.90501e-01        00000 
-7.06203e-02  7.77288e-01        00000 
-2.91056e-02  6.72692e-01        00000 
-4.72732e-02  5.35027e-01        00000 
-6.06265e-18  4.86300e-01        00000 
-4.84646e-02  5.49705e-01        00000 
-2.48391e-02  5.23919e-01        00000 
-2.71358e-02  6.79476e-01        00000 
-3.87371e-02  6.97401e-01        00000 
 2.91627e-17  7.02516e-01        00000 
-4.17066e-02  7.29107e-01        00000 
-5.45438e-02  7.21859e-01        00000 
-7.70435e-02  7.53949e-01        00000 
-1.01887e-01  7.71711e-01        00000 
-1.87850e-17  4.62997e-01        00000 
-5.55652e-02  5.40941e-01        00000 
-4.85502e-02  6.25389e-01        00000 
-4.23304e-02  5.22787e-01        00000 
-4.14543e-02  5.12996e-01        00000 
-4.42146e-02  6.30274e-01        00000 
-4.84409e-02  6.44371e-01        00000 
-2.27397e-18  6.51931e-01        00000 
-5.57565e-02  6.65188e-01        00000 
-4.18856e-02  6.78791e-01        00000 
-3.73252e-02  5.38646e-01        00000 
-8.18238e-02  7.06013e-01        00000 
-5.15253e-02  5.30342e-01        00000 
-6.00496e-02  5.91132e-01        00000 
-3.98542e-02  5.10110e-01        00000 
-1.19273e-01  7.30772e-01        00000 
-5.69386e-02  5.51398e-01        00000 
-6.79246e-02  5.88343e-01        00000 
-6.86724e-02  5.75286e-01        00000 
-6.85714e-02  5.53872e-01        00000 
-6.64207e-02  6.10449e-01        00000 
-6.32924e-02  5.27527e-01        00000 
-2.93322e-17  6.01347e-01        00000 
-4.83107e-02  5.01253e-01        00000 
-4.24264e-02  6.27501e-01        00000 
-5.05685e-02  5.08667e-01        00000 
-8.54708e-02  6.54712e-01        00000 
-1.30127e-01  6.81813e-01        00000 
-7.72314e-02  5.45818e-01        00000 
-7.89057e-02  5.00441e-01        00000 
-5.94360e-02  4.69960e-01        00000 
-8.09102e-02  5.62710e-01        00000 
-7.32354e-02  5.05929e-01        00000 
 5.68882e-18  5.50762e-01        00000 
-8.16160e-02  5.21232e-01        00000 
-4.28833e-02  5.76053e-01        00000 
-8.55478e-02  5.34387e-01        00000 
-8.77647e-02  6.02683e-01        00000 
-1.35951e-01  6.30272e-01        00000 
-8.10856e-02  4.18780e-01        00000 
-9.07076e-02  5.09227e-01        00000 
-8.02914e-02  4.56073e-01        00000 
-9.25035e-02  5.20416e-01        00000 
       00000  5.00178e-01        00000 
-5.61896e-02  3.31062e-01        00000 
-4.28878e-02  5.24701e-01        00000 
-9.42440e-02  4.84236e-01        00000 
-8.87436e-02  5.50794e-01        00000 
-1.38657e-01  5.78398e-01        00000 
-9.04814e-02  4.11390e-01        00000 
-9.94439e-02  4.93998e-01        00000 
-2.42605e-02  2.80281e-01        00000 
-9.81502e-02  4.52845e-01        00000 
-7.13204e-02  3.65515e-01        00000 
-2.92151e-18  2.68188e-01        00000 
-1.02492e-17  4.49593e-01        00000 
-1.06626e-01  4.73946e-01        00000 
-4.21666e-02  4.73451e-01        00000 
-9.80168e-02  4.20362e-01        00000 
-8.84435e-02  4.99235e-01        00000 
-1.39277e-01  5.26749e-01        00000 
-3.66015e-02  3.07272e-01        00000 
-3.06717e-18  2.30259e-01        00000 
-1.08386e-01  4.56438e-01        00000 
-8.31970e-02  3.76851e-01        00000 
 1.84167e-18  1.86152e-01        00000 
-1.59684e-02  2.51523e-01        00000 
-1.06359e-01  4.34530e-01        00000 
 2.16848e-17  3.99009e-01        00000 
-4.03886e-02  4.22094e-01        00000 
-8.67760e-02  4.47897e-01        00000 
-5.65200e-02  3.23024e-01        00000 
-1.38295e-01  4.75365e-01        00000 
-1.86748e-18  1.41899e-01        00000 
-8.86128e-03  2.08093e-01        00000 
-9.31535e-02  3.97405e-01        00000 
-3.34812e-02  2.62232e-01        00000 
 4.63891e-19  9.58764e-02        00000 
-5.93652e-03  1.64928e-01        00000 
-2.85353e-17  3.48424e-01        00000 
-3.74679e-02  3.70279e-01        00000 
-7.06161e-02  3.47949e-01        00000 
-8.34671e-02  3.96402e-01        00000 
-1.35683e-18  4.85500e-02        00000 
-1.35884e-01  4.24078e-01        00000 
-6.10303e-03  1.21388e-01        00000 
-1.60847e-02  1.98728e-01        00000 
-5.66508e-03  8.31953e-02        00000 
-4.94447e-02  2.85789e-01        00000 
 4.55300e-19 -3.18760e-04        00000 
-7.24547e-03  1.47437e-01        00000 
 7.44534e-18  2.97840e-01        00000 
-3.97424e-03  4.22742e-02        00000 
-3.23148e-02  3.16507e-01        00000 
-7.79068e-02  3.43573e-01        00000 
-1.32031e-01  3.72432e-01        00000 
-9.16197e-03  7.23126e-02        00000 
-3.49742e-02  2.13064e-01        00000 
-1.34586e-02  9.45326e-02        00000 
-1.64413e-18 -3.73485e-04        00000 
-7.21794e-03  3.94426e-02        00000 
-9.21659e-03  1.15681e-01        00000 
 1.28614e-17  2.47255e-01        00000 
-2.60964e-02  2.60164e-01        00000 
-6.93605e-02  2.87392e-01        00000 
-1.26449e-01  3.19427e-01        00000 
 2.41149e-18 -3.35990e-04        00000 
-1.32280e-02  4.21583e-02        00000 
-2.30739e-02  7.53537e-02        00000 
-1.63583e-03  2.85286e-02        00000 
 3.11644e-18  1.96671e-01        00000 
-1.88067e-02  2.02323e-01        00000 
-3.98017e-18 -3.23206e-04        00000 
-1.17818e-01  2.62524e-01        00000 
-5.38471e-02  2.19846e-01        00000 
-1.92324e-02  3.47157e-02        00000 
-2.60803e-02  3.52719e-02        00000 
-3.55215e-03  6.56178e-03        00000 
-1.21375e-02  1.59878e-01        00000 
 1.11562e-17 -3.03800e-04        00000 
-3.05890e-18  1.46087e-01        00000 
-2.09727e-02  2.05516e-02        00000 
-1.02380e-01  2.00022e-01        00000 
-8.08279e-03  1.34172e-01        00000 
-1.67927e-02  7.79576e-03        00000 
-4.05187e-02  1.36386e-01        00000 
-6.18084e-03 -9.96218e-04        00000 
-9.58966e-18 -2.86168e-04        00000 
-2.19457e-02  1.12279e-01        00000 
-1.71948e-02  7.80779e-03        00000 
 8.06802e-19  9.55006e-02        00000 
-1.09725e-02  9.75967e-02        00000 
-1.08769e-02  1.58822e-04        00000 
-6.09433e-02  1.08205e-01        00000 
-6.46701e-03 -2.08927e-03        00000 
-4.52884e-18 -2.68061e-04        00000 
-2.67606e-02  6.65447e-02        00000 
-1.09144e-02  1.55764e-03        00000 
       00000  4.49218e-02        00000 
-2.01001e-02  4.95959e-02        00000 
-7.41240e-03 -1.38550e-03        00000 
-1.11257e-02  5.11887e-02        00000 
-2.18304e-02  6.06906e-02        00000 
-3.49184e-02  7.02004e-02        00000 
-5.55901e-03 -1.61433e-03        00000 
-4.05471e-02  7.24278e-02        00000 
 2.27154e-18 -2.50081e-04        00000 
-1.34492e-02  3.73925e-02        00000 
-6.45698e-03 -8.08198e-05        00000 
-3.05241e-02  6.89530e-02        00000 
-5.80464e-03  2.94079e-02        00000 
-5.23255e-03 -1.08841e-03        00000 
-8.91414e-19 -5.68390e-03        00000 
-2.27616e-02  5.50466e-02        00000 
-7.62367e-03  4.46113e-03        00000 
-4.29899e-03 -1.00310e-03        00000 
-1.34780e-02  1.61533e-02        00000 
 1.68992e-18 -2.32067e-04        00000 
-1.86070e-02  2.85285e-02        00000 
-1.09361e-03  2.65553e-02        00000 
-1.63950e-02  4.27587e-02        00000 
-3.86094e-03 -3.25802e-04        00000 
-1.93974e-02  3.82505e-02        00000 
-1.74843e-03  2.62181e-02        00000 
-3.75010e-03 -6.17702e-04        00000 
-7.00746e-03  3.33048e-02        00000 
-2.09094e-02  4.93336e-02        00000 
-2.10314e-19 -5.61893e-02        00000 
-4.39378e-03  2.55796e-02        00000 
-3.14372e-03 -6.08162e-04        00000 
-2.68180e-02  5.15767e-02        00000 
 4.63818e-19 -2.14063e-04        00000 
 9.44605e-19 -3.90358e-02        00000 
-1.30051e-03  2.78877e-02        00000 
-1.69619e-18 -2.33115e-02        00000 
-2.46601e-03 -2.21453e-04        00000 
-2.14268e-02  4.34964e-02        00000 
-5.70559e-18 -9.31351e-03        00000 
-1.99284e-03  2.53873e-02        00000 
-7.94716e-03  2.29742e-02        00000 
-2.70337e-03 -3.21703e-04        00000 
 2.00268e-18  4.49091e-03        00000 
-9.07984e-03  3.37812e-02        00000 
 1.34135e-17  1.22679e-02        00000 
-8.17360e-20 -1.96055e-04        00000 
-2.23323e-03 -4.03444e-04        00000 
-3.88035e-04  2.76404e-02        00000 
-5.51112e-03  2.28204e-02        00000 
-3.04457e-02  3.80631e-02        00000 
-1.65864e-03 -1.16553e-04        00000 
-1.07173e-02  1.86780e-02        00000 
-2.32953e-02  4.60660e-02        00000 
-2.18161e-03  2.41646e-02        00000 
-9.66599e-03  1.95286e-02        00000 
-1.93148e-03 -1.88248e-04        00000 
-1.22049e-02  4.13191e-02        00000 
 4.68529e-19 -1.78049e-04        00000 
 1.86921e-03  2.51150e-02        00000 
-1.57196e-03 -2.96300e-04        00000 
-7.16713e-03  2.04363e-02        00000 
-1.24127e-02  1.59788e-02        00000 
-1.06277e-02  1.22892e-02        00000 
-1.15599e-03 -6.83493e-05        00000 
-2.84497e-03  1.74302e-02        00000 
-1.22494e-02  1.69937e-02        00000 
-1.34514e-03 -1.38224e-04        00000 
 1.02527e-02 -4.74107e-04        00000 
-1.11494e-20 -1.60042e-04        00000 
-8.73580e-03  1.30531e-02        00000 
-1.12850e-03 -1.89705e-04        00000 
-1.49658e-02  1.36432e-02        00000 
-1.20784e-02  1.17878e-02        00000 
-7.04826e-03  7.63095e-03        00000 
-2.08708e-03  1.59607e-03        00000 
-7.91163e-04 -5.23954e-05        00000 
-1.46085e-02  1.12050e-02        00000 
-8.71936e-04 -8.63870e-05        00000 
 1.17057e-02 -1.85701e-02        00000 
-7.77980e-03 -2.36964e-03        00000 
 1.46624e-03 -1.45205e-02        00000 
-7.04614e-20 -1.42035e-04        00000 
-1.32052e-02  1.07906e-02        00000 
-1.86844e-02  1.10463e-02        00000 
-8.62735e-04  7.34291e-05        00000 
-8.33493e-03  9.00784e-03        00000 
-2.77897e-03  5.38031e-03        00000 
-4.75988e-04 -3.16764e-05        00000 
-1.44482e-02 -3.52335e-03        00000 
 8.28062e-03 -3.49734e-02        00000 
-4.35166e-03 -2.53553e-02        00000 
-4.59184e-04  7.90586e-05        00000 
-7.89509e-21 -1.24030e-04        00000 
-1.32869e-02  1.20628e-02        00000 
-9.10964e-03  9.70846e-03        00000 
-3.79223e-03  7.21095e-03        00000 
-2.57797e-02 -4.86822e-03        00000 
-6.47177e-04  6.81580e-04        00000 
-7.40374e-05  4.41001e-03        00000 
-1.73251e-04  5.87328e-05        00000 
-1.30460e-02 -2.45984e-02        00000 
-1.81124e-18 -5.06600e-02        00000 
-1.00005e-02  1.17084e-02        00000 
-4.81111e-03 -4.64247e-02        00000 
-9.58968e-07  6.95536e-04        00000 
 1.38565e-19 -1.06018e-04        00000 
-4.63671e-03  8.19677e-03        00000 
-8.04942e-04  5.78107e-03        00000 
-2.56900e-02 -2.35200e-02        00000 
-8.46680e-05  2.79211e-03        00000 
 2.47301e-18 -7.04936e-02        00000 
 6.97577e-05  2.81574e-04        00000 
-1.18580e-02 -4.35456e-02        00000 
-6.22586e-03  1.07280e-02        00000 
-4.76064e-04  6.76240e-03        00000 
-6.11192e-03 -6.41551e-02        00000 
-3.99194e-20 -8.80320e-05        00000 
 3.18625e-05  4.41820e-03        00000 
-1.81335e-02 -4.14236e-02        00000 
-1.30750e-18 -9.50323e-02        00000 
 1.33082e-04  1.83238e-03        00000 
-9.95107e-03 -5.69208e-02        00000 
 1.32449e-04  5.64791e-04        00000 
-3.04593e-19  9.78013e-03        00000 
 8.89638e-05  5.34127e-03        00000 
-5.47607e-03 -8.46744e-02        00000 
-1.04883e-20 -6.99489e-05        00000 
-1.62999e-04  3.04289e-03        00000 
-6.03163e-19 -4.12795e-02        00000 
 3.30319e-19 -1.18312e-01        00000 
-5.35171e-03 -7.36198e-02        00000 
 1.73110e-05  5.27895e-04        00000 
 2.03315e-19  1.52526e-03        00000 
-3.72606e-04  2.45466e-03        00000 
-3.05191e-03 -1.06784e-01        00000 
-2.40715e-20 -5.22275e-05        00000 
-2.72353e-04  1.01952e-03        00000 
 6.38194e-19 -6.50294e-02        00000 
-3.27568e-19 -1.41924e-01        00000 
-5.10230e-04  1.60028e-03        00000 
-3.07434e-20 -1.27015e-04        00000 
-3.04753e-03 -9.44947e-02        00000 
-4.84874e-04  7.73444e-04        00000 
       00000 -1.29055e-01        00000 
 5.08607e-20 -3.31563e-05        00000 
-6.48335e-04  6.84789e-04        00000 
 1.22093e-18 -8.35119e-02        00000 
-5.75842e-04  4.47125e-04        00000 
 9.91974e-20 -2.09014e-03        00000 
 8.25902e-19 -1.16183e-01        00000 
-6.02469e-04 -2.56590e-04        00000 
-1.26071e-19 -1.91227e-05        00000 
-8.25682e-19 -1.03400e-01        00000 
-3.87120e-20 -2.50474e-03        00000 
-6.45425e-04 -2.68703e-04        00000 
-2.21770e-19  1.37115e-05        00000 
-8.92591e-20 -1.89490e-03        00000 
 8.18853e-20 -2.36193e-05        00000 </DataArray>
         </PointData>
         <CellData/>
      </Piece>
   </UnstructuredGrid>
</VTKFile>