<?xml version="1.0" encoding="utf-8"?>
<VTKFile byte_order="LittleEndian" type="UnstructuredGrid" version="0.1">
   <UnstructuredGrid>
      <Piece NumberOfCells="21780" NumberOfPoints="11315">
         <Points>
            <DataArray Name="Points" NumberOfComponents="3" format="ascii" type="Float32">
-1.0000 -0.8947 0.0000
-1.0000 -0.7895 0.0000
-1.0000 -0.6842 0.0000
-1.0000 -0.5789 0.0000
-1.0000 -0.4737 0.0000
-1.0000 -0.3684 0.0000
-1.0000 -0.2632 0.0000
-1.0000 -0.1579 0.0000
-1.0000 -0.0526 0.0000
-1.0000 0.0526 0.0000
-1.0000 0.1579 0.0000
-1.0000 0.2632 0.0000
-1.0000 0.3684 0.0000
-1.0000 0.4737 0.0000
-1.0000 0.5789 0.0000
-1.0000 0.6842 0.0000
-1.0000 0.7895 0.0000
-1.0000 0.8947 0.0000
-1.0000 1.0000 0.0000
-0.8947 -0.8947 0.0000
-0.8947 -0.7895 0.0000
-0.8947 -0.6842 0.0000
-0.8947 -0.5789 0.0000
-0.8947 -0.4737 0.0000
-0.8947 -0.3684 0.0000
-0.8947 -0.2632 0.0000
-0.8947 -0.1579 0.0000
-0.8947 -0.0526 0.0000
-0.8947 0.0526 0.0000
-0.8947 0.1579 0.0000
-0.8947 0.2632 0.0000
-0.8947 0.3684 0.0000
-0.8947 0.4737 0.0000
-0.8947 0.5789 0.0000
-0.8947 0.6842 0.0000
-0.8947 0.7895 0.0000
-0.8947 0.8947 0.0000
-0.8947 1.0000 0.0000
-0.7895 -0.8947 0.0000
-0.7895 -0.7895 0.0000
-0.7895 -0.6842 0.0000
-0.7895 -0.5789 0.0000
-0.7895 -0.4737 0.0000
-0.7895 -0.3684 0.0000
-0.7895 -0.2632 0.0000
-0.7895 -0.1579 0.0000
-0.7895 -0.0526 0.0000
-0.7895 0.0526 0.0000
-0.7895 0.1579 0.0000
-0.7895 0.2632 0.0000
-0.7895 0.3684 0.0000
-0.7895 0.4737 0.0000
-0.7895 0.5789 0.0000
-0.7895 0.6842 0.0000
-0.7895 0.7895 0.0000
-0.7895 0.8947 0.0000
-0.7895 1.0000 0.0000
-0.6842 -0.8947 0.0000
-0.6842 -0.7895 0.0000
-0.6842 -0.6842 0.0000
-0.6842 -0.5789 0.0000
-0.6842 -0.4737 0.0000
-0.6842 -0.3684 0.0000
-0.6842 -0.2632 0.0000
-0.6842 -0.1579 0.0000
-0.6842 -0.0526 0.0000
-0.6842 0.0526 0.0000
-0.6842 0.1579 0.0000
-0.6842 0.2632 0.0000
-0.6842 0.3684 0.0000
-0.6842 0.4737 0.0000
-0.6842 0.5789 0.0000
-0.6842 0.6842 0.0000
-0.6842 0.7895 0.0000
-0.6842 0.8947 0.0000
-0.6842 1.0000 0.0000
-0.5789 -0.8947 0.0000
-0.5789 -0.7895 0.0000
-0.5789 -0.6842 0.0000
-0.5789 -0.5789 0.0000
-0.5789 -0.4737 0.0000
-0.5789 -0.3684 0.0000
-0.5789 -0.2632 0.0000
-0.5789 -0.1579 0.0000
-0.5789 -0.0526 0.0000
-0.5789 0.0526 0.0000
-0.5789 0.1579 0.0000
-0.5789 0.2632 0.0000
-0.5789 0.3684 0.0000
-0.5789 0.4737 0.0000
-0.5789 0.5789 0.0000
-0.5789 0.6842 0.0000
-0.5789 0.7895 0.0000
-0.5789 0.8947 0.0000
-0.5789 1.0000 0.0000
-0.4737 -0.8947 0.0000
-0.4737 -0.7895 0.0000
-0.4737 -0.6842 0.0000
-0.4737 -0.5789 0.0000
-0.4737 -0.4737 0.0000
-0.4737 -0.3684 0.0000
-0.4737 -0.2632 0.0000
-0.4737 -0.1579 0.0000
-0.4737 -0.0526 0.0000
-0.4737 0.0526 0.0000
-0.4737 0.1579 0.0000
-0.4737 0.2632 0.0000
-0.4737 0.3684 0.0000
-0.4737 0.4737 0.0000
-0.4737 0.5789 0.0000
-0.4737 0.6842 0.0000
-0.4737 0.7895 0.0000
-0.4737 0.8947 0.0000
-0.4737 1.0000 0.0000
-0.3684 -0.8947 0.0000
-0.3684 -0.7895 0.0000
-0.3684 -0.6842 0.0000
-0.3684 -0.5789 0.0000
-0.3684 -0.4737 0.0000
-0.3684 -0.3684 0.0000
-0.3684 -0.2632 0.0000
-0.3684 -0.1579 0.0000
-0.3684 -0.0526 0.0000
-0.3684 0.0526 0.0000
-0.3684 0.1579 0.0000
-0.3684 0.2632 0.0000
-0.3684 0.3684 0.0000
-0.3684 0.4737 0.0000
-0.3684 0.5789 0.0000
-0.3684 0.6842 0.0000
-0.3684 0.7895 0.0000
-0.3684 0.8947 0.0000
-0.3684 1.0000 0.0000
-0.2632 -0.8947 0.0000
-0.2632 -0.7895 0.0000
-0.2632 -0.6842 0.0000
-0.2632 -0.5789 0.0000
-0.2632 -0.4737 0.0000
-0.2632 -0.3684 0.0000
-0.2632 -0.2632 0.0000
-0.2632 -0.1579 0.0000
-0.2632 -0.0526 0.0000
-0.2632 0.0526 0.0000
-0.2632 0.1579 0.0000
-0.2632 0.2632 0.0000
-0.2632 0.3684 0.0000
-0.2632 0.4737 0.0000
-0.2632 0.5789 0.0000
-0.2632 0.6842 0.0000
-0.2632 0.7895 0.0000
-0.2632 0.8947 0.0000
-0.2632 1.0000 0.0000
-0.1579 -0.8947 0.0000
-0.1579 -0.7895 0.0000
-0.1579 -0.6842 0.0000
-0.1579 -0.5789 0.0000
-0.1579 -0.4737 0.0000
-0.1579 -0.3684 0.0000
-0.1579 -0.2632 0.0000
-0.1579 -0.1579 0.0000
-0.1579 -0.0526 0.0000
-0.1579 0.0526 0.0000
-0.1579 0.1579 0.0000
-0.1579 0.2632 0.0000
-0.1579 0.3684 0.0000
-0.1579 0.4737 0.0000
-0.1579 0.5789 0.0000
-0.1579 0.6842 0.0000
-0.1579 0.7895 0.0000
-0.1579 0.8947 0.0000
-0.1579 1.0000 0.0000
-0.0526 -0.8947 0.0000
-0.0526 -0.7895 0.0000
-0.0526 -0.6842 0.0000
-0.0526 -0.5789 0.0000
-0.0526 -0.4737 0.0000
-0.0526 -0.3684 0.0000
-0.0526 -0.2632 0.0000
-0.0526 -0.1579 0.0000
-0.0526 -0.0526 0.0000
-0.0526 0.0526 0.0000
-0.0526 0.1579 0.0000
-0.0526 0.2632 0.0000
-0.0526 0.3684 0.0000
-0.0526 0.4737 0.0000
-0.0526 0.5789 0.0000
-0.0526 0.6842 0.0000
-0.0526 0.7895 0.0000
-0.0526 0.8947 0.0000
-0.0526 1.0000 0.0000
0.0526 -0.8947 0.0000
0.0526 -0.7895 0.0000
0.0526 -0.6842 0.0000
0.0526 -0.5789 0.0000
0.0526 -0.4737 0.0000
0.0526 -0.3684 0.0000
0.0526 -0.2632 0.0000
0.0526 -0.1579 0.0000
0.0526 -0.0526 0.0000
0.0526 0.0526 0.0000
0.0526 0.1579 0.0000
0.0526 0.2632 0.0000
0.0526 0.3684 0.0000
0.0526 0.4737 0.0000
0.0526 0.5789 0.0000
0.0526 0.6842 0.0000
0.0526 0.7895 0.0000
0.0526 0.8947 0.0000
0.0526 1.0000 0.0000
0.1579 -0.8947 0.0000
0.1579 -0.7895 0.0000
0.1579 -0.6842 0.0000
0.1579 -0.5789 0.0000
0.1579 -0.4737 0.0000
0.1579 -0.3684 0.0000
0.1579 -0.2632 0.0000
0.1579 -0.1579 0.0000
0.1579 -0.0526 0.0000
0.1579 0.0526 0.0000
0.1579 0.1579 0.0000
0.1579 0.2632 0.0000
0.1579 0.3684 0.0000
0.1579 0.4737 0.0000
0.1579 0.5789 0.0000
0.1579 0.6842 0.0000
0.1579 0.7895 0.0000
0.1579 0.8947 0.0000
0.1579 1.0000 0.0000
0.2632 -0.8947 0.0000
0.2632 -0.7895 0.0000
0.2632 -0.6842 0.0000
0.2632 -0.5789 0.0000
0.2632 -0.4737 0.0000
0.2632 -0.3684 0.0000
0.2632 -0.2632 0.0000
0.2632 -0.1579 0.0000
0.2632 -0.0526 0.0000
0.2632 0.0526 0.0000
0.2632 0.1579 0.0000
0.2632 0.2632 0.0000
0.2632 0.3684 0.0000
0.2632 0.4737 0.0000
0.2632 0.5789 0.0000
0.2632 0.6842 0.0000
0.2632 0.7895 0.0000
0.2632 0.8947 0.0000
0.2632 1.0000 0.0000
0.3684 -0.8947 0.0000
0.3684 -0.7895 0.0000
0.3684 -0.6842 0.0000
0.3684 -0.5789 0.0000
0.3684 -0.4737 0.0000
0.3684 -0.3684 0.0000
0.3684 -0.2632 0.0000
0.3684 -0.1579 0.0000
0.3684 -0.0526 0.0000
0.3684 0.0526 0.0000
0.3684 0.1579 0.0000
0.3684 0.2632 0.0000
0.3684 0.3684 0.0000
0.3684 0.4737 0.0000
0.3684 0.6842 0.0000
0.3684 0.7895 0.0000
0.3684 0.8947 0.0000
0.3684 1.0000 0.0000
0.4737 -0.8947 0.0000
0.4737 -0.7895 0.0000
0.4737 -0.6842 0.0000
0.4737 -0.5789 0.0000
0.4737 -0.4737 0.0000
0.4737 -0.3684 0.0000
0.4737 -0.2632 0.0000
0.4737 -0.1579 0.0000
0.4737 -0.0526 0.0000
0.4737 0.0526 0.0000
0.4737 0.1579 0.0000
0.4737 0.2632 0.0000
0.4737 0.3684 0.0000
0.4737 0.7895 0.0000
0.4737 0.8947 0.0000
0.4737 1.0000 0.0000
0.5789 -0.8947 0.0000
0.5789 -0.7895 0.0000
0.5789 -0.6842 0.0000
0.5789 -0.5789 0.0000
0.5789 -0.4737 0.0000
0.5789 -0.3684 0.0000
0.5789 -0.2632 0.0000
0.5789 -0.1579 0.0000
0.5789 -0.0526 0.0000
0.5789 0.0526 0.0000
0.5789 0.1579 0.0000
0.5789 0.2632 0.0000
0.5789 0.3684 0.0000
0.5789 0.6842 0.0000
0.5789 0.7895 0.0000
0.5789 0.8947 0.0000
0.5789 1.0000 0.0000
0.6842 -0.8947 0.0000
0.6842 -0.7895 0.0000
0.6842 -0.6842 0.0000
0.6842 -0.5789 0.0000
0.6842 -0.4737 0.0000
0.6842 -0.3684 0.0000
0.6842 -0.2632 0.0000
0.6842 -0.1579 0.0000
0.6842 -0.0526 0.0000
0.6842 0.0526 0.0000
0.6842 0.1579 0.0000
0.6842 0.2632 0.0000
0.6842 0.3684 0.0000
0.6842 0.4737 0.0000
0.6842 0.5789 0.0000
0.6842 0.6842 0.0000
0.6842 0.7895 0.0000
0.6842 0.8947 0.0000
0.6842 1.0000 0.0000
0.7895 -0.8947 0.0000
0.7895 -0.7895 0.0000
0.7895 -0.6842 0.0000
0.7895 -0.5789 0.0000
0.7895 -0.4737 0.0000
0.7895 -0.3684 0.0000
0.7895 -0.2632 0.0000
0.7895 -0.1579 0.0000
0.7895 -0.0526 0.0000
0.7895 0.0526 0.0000
0.7895 0.1579 0.0000
0.7895 0.2632 0.0000
0.7895 0.3684 0.0000
0.7895 0.4737 0.0000
0.7895 0.5789 0.0000
0.7895 0.6842 0.0000
0.7895 0.7895 0.0000
0.7895 0.8947 0.0000
0.7895 1.0000 0.0000
0.8947 -0.8947 0.0000
0.8947 -0.7895 0.0000
0.8947 -0.6842 0.0000
0.8947 -0.5789 0.0000
0.8947 -0.4737 0.0000
0.8947 -0.3684 0.0000
0.8947 -0.2632 0.0000
0.8947 -0.1579 0.0000
0.8947 -0.0526 0.0000
0.8947 0.0526 0.0000
0.8947 0.1579 0.0000
0.8947 0.2632 0.0000
0.8947 0.3684 0.0000
0.8947 0.4737 0.0000
0.8947 0.5789 0.0000
0.8947 0.6842 0.0000
0.8947 0.7895 0.0000
0.8947 0.8947 0.0000
0.8947 1.0000 0.0000
0.3684 0.5789 0.0000
0.4737 0.6842 0.0000
1.0000 -0.8947 0.0000
1.0000 -0.7895 0.0000
1.0000 -0.6842 0.0000
1.0000 -0.5789 0.0000
1.0000 -0.4737 0.0000
1.0000 -0.3684 0.0000
1.0000 -0.2632 0.0000
1.0000 -0.1579 0.0000
1.0000 -0.0526 0.0000
1.0000 0.0526 0.0000
1.0000 0.1579 0.0000
1.0000 0.2632 0.0000
1.0000 0.3684 0.0000
1.0000 0.4737 0.0000
1.0000 0.5789 0.0000
1.0000 0.6842 0.0000
1.0000 0.7895 0.0000
1.0000 0.8947 0.0000
1.0000 1.0000 0.0000
-0.8947 -1.0000 0.0000
-0.7895 -1.0000 0.0000
-0.6842 -1.0000 0.0000
-0.5789 -1.0000 0.0000
-0.4737 -1.0000 0.0000
-0.3684 -1.0000 0.0000
-0.2632 -1.0000 0.0000
-0.1579 -1.0000 0.0000
-0.0526 -1.0000 0.0000
0.0526 -1.0000 0.0000
0.1579 -1.0000 0.0000
0.2632 -1.0000 0.0000
0.3684 -1.0000 0.0000
0.4737 -1.0000 0.0000
0.5789 -1.0000 0.0000
0.5789 0.5789 0.0000
0.6842 -1.0000 0.0000
0.7895 -1.0000 0.0000
0.8947 -1.0000 0.0000
1.0000 -1.0000 0.0000
-1.0000 -1.0000 0.0000
-0.9474 -0.9474 0.0000
-0.9474 -0.8421 0.0000
-0.9474 -0.7368 0.0000
-0.9474 -0.6316 0.0000
-0.9474 -0.5263 0.0000
-0.9474 -0.4211 0.0000
-0.9474 -0.3158 0.0000
-0.9474 -0.2105 0.0000
-0.9474 -0.1053 0.0000
-0.9474 0.0000 0.0000
-0.9474 0.1053 0.0000
-0.9474 0.2105 0.0000
-0.9474 0.3158 0.0000
-0.9474 0.4211 0.0000
-0.9474 0.5263 0.0000
-0.9474 0.6316 0.0000
-0.9474 0.7368 0.0000
-0.9474 0.8421 0.0000
-0.9474 0.9474 0.0000
-0.8421 -0.9474 0.0000
-0.8421 -0.8421 0.0000
-0.8421 -0.7368 0.0000
-0.8421 -0.6316 0.0000
-0.8421 -0.5263 0.0000
-0.8421 -0.4211 0.0000
-0.8421 -0.3158 0.0000
-0.8421 -0.2105 0.0000
-0.8421 -0.1053 0.0000
-0.8421 0.0000 0.0000
-0.8421 0.1053 0.0000
-0.8421 0.2105 0.0000
-0.8421 0.3158 0.0000
-0.8421 0.4211 0.0000
-0.8421 0.5263 0.0000
-0.8421 0.6316 0.0000
-0.8421 0.7368 0.0000
-0.8421 0.8421 0.0000
-0.8421 0.9474 0.0000
-0.7368 -0.9474 0.0000
-0.7368 -0.8421 0.0000
-0.7368 -0.7368 0.0000
-0.7368 -0.6316 0.0000
[...]
         <PointData>
            <DataArray Name="fValues" NumberOfComponents="3" format="ascii" type="Float64">
-8.74352e-17  4.37176e-17        00000 
 3.88390e-16        00000        00000 
-9.75967e-17  9.31489e-17        00000 
 2.37349e-16 -8.26003e-18        00000 
 3.63922e-16 -1.21746e-17        00000 
 2.80504e-16 -3.50208e-17        00000 
-8.94636e-17  7.11643e-18        00000 
 1.29463e-16 -5.39430e-17        00000 
-5.44163e-18 -3.26498e-17        00000 
-3.23658e-17 -1.40252e-16        00000 
-5.52370e-17  3.45655e-17        00000 
 2.15772e-17 -9.70975e-17        00000 
-1.54299e-16  3.48179e-17        00000 
 1.51041e-16        00000        00000 
 1.55884e-16 -6.79449e-17        00000 
 1.29463e-16  1.40252e-16        00000 
-2.61217e-16 -4.35361e-17        00000 
 5.22295e-16  2.61148e-16        00000 
-5.87277e-16 -6.52869e-17        00000 
 3.90145e+00  1.81777e+00        00000 
 3.29172e+00  1.05963e+00        00000 
 2.78600e+00  5.78231e-01        00000 
 2.32800e+00  2.40963e-01        00000 
 1.88976e+00 -2.94996e-03        00000 
 1.46222e+00 -1.79101e-01        00000 
 1.04096e+00 -3.01801e-01        00000 
 6.23582e-01 -3.79586e-01        00000 
 2.08414e-01 -4.17470e-01        00000 
-2.05968e-01 -4.17905e-01        00000 
-6.21013e-01 -3.81099e-01        00000 
-1.03835e+00 -3.04900e-01        00000 
-1.45995e+00 -1.84319e-01        00000 
-1.88848e+00 -1.04945e-02        00000 
-2.32835e+00  2.31464e-01        00000 
-2.78829e+00  5.67768e-01        00000 
-3.29554e+00  1.04956e+00        00000 
-3.90528e+00  1.80922e+00        00000 
-5.38553e+00  3.27385e+00        00000 
 8.21816e+00  3.81837e+00        00000 
 6.87480e+00  2.63576e+00        00000 
 5.80015e+00  1.78631e+00        00000 
 4.82710e+00  1.16368e+00        00000 
 3.90705e+00  7.03338e-01        00000 
 3.01660e+00  3.66878e-01        00000 
 2.14427e+00  1.30849e-01        00000 
 1.28322e+00 -1.93529e-02        00000 
 4.28681e-01 -9.25234e-02        00000 
-4.23472e-01 -9.30601e-02        00000 
-1.27741e+00 -2.14072e-02        00000 
-2.13781e+00  1.26154e-01        00000 
-3.01037e+00  3.58292e-01        00000 
-3.90268e+00  6.90155e-01        00000 
-4.82643e+00  1.14625e+00        00000 
-5.80427e+00  1.76613e+00        00000 
-6.88312e+00  2.61504e+00        00000 
-8.22741e+00  3.79898e+00        00000 
-9.99417e+00  5.20899e+00        00000 
 1.24296e+01  5.75784e+00        00000 
 1.05949e+01  4.49354e+00        00000 
 8.95706e+00  3.45467e+00        00000 
 7.45230e+00  2.64315e+00        00000 
 6.02530e+00  2.02153e+00        00000 
 4.64698e+00  1.55784e+00        00000 
 3.30005e+00  1.22868e+00        00000 
 1.97339e+00  1.01796e+00        00000 
 6.58734e-01  9.15331e-01        00000 
-6.51276e-01  9.15322e-01        00000 
-1.96421e+00  1.01710e+00        00000 
-3.28864e+00  1.22482e+00        00000 
-4.63473e+00  1.54843e+00        00000 
-6.01533e+00  2.00479e+00        00000 
-7.44838e+00  2.61898e+00        00000 
-8.96189e+00  3.42493e+00        00000 
-1.06081e+01  4.46149e+00        00000 
-1.24467e+01  5.72683e+00        00000 
-1.44568e+01  7.16018e+00        00000 
 1.65740e+01  7.91776e+00        00000 
 1.43106e+01  6.62770e+00        00000 
 1.21717e+01  5.51848e+00        00000 
 1.01473e+01  4.60555e+00        00000 
 8.20871e+00  3.88188e+00        00000 
 6.33021e+00  3.32998e+00        00000 
 4.49365e+00  2.93293e+00        00000 
 2.68564e+00  2.67713e+00        00000 
 8.95301e-01  2.55286e+00        00000 
-8.87595e-01  2.55437e+00        00000 
-2.67398e+00  2.68019e+00        00000 
-4.47633e+00  2.93363e+00        00000 
-6.30915e+00  3.32353e+00        00000 
-8.18929e+00  3.86455e+00        00000 
-1.01366e+01  4.57627e+00        00000 
-1.21752e+01  5.47947e+00        00000 
-1.43295e+01  6.58378e+00        00000 
-1.66026e+01  7.87451e+00        00000 
-1.89330e+01  9.31093e+00        00000 
 2.06876e+01  1.04116e+01        00000 
 1.80010e+01  9.11662e+00        00000 
 1.53903e+01  7.98204e+00        00000 
 1.28678e+01  7.02336e+00        00000 
 1.04238e+01  6.24407e+00        00000 
 8.04264e+00  5.63875e+00        00000 
 5.70916e+00  5.19819e+00        00000 
 3.41031e+00  4.91309e+00        00000 
 1.13431e+00  4.77558e+00        00000 
-1.13084e+00  4.78013e+00        00000 
-3.39870e+00  4.92419e+00        00000 
-5.68526e+00  5.20913e+00        00000 
-8.00883e+00  5.64107e+00        00000 
-1.03889e+01  6.23078e+00        00000 
-1.28442e+01  6.99169e+00        00000 
-1.53890e+01  7.93459e+00        00000 
-1.80261e+01  9.06049e+00        00000 
-2.07326e+01  1.03556e+01        00000 
-2.34460e+01  1.17983e+01        00000 
 2.47890e+01  1.33065e+01        00000 
 2.16678e+01  1.20118e+01        00000 
 1.85946e+01  1.08708e+01        00000 
 1.55871e+01  9.89458e+00        00000 
 1.26463e+01  9.08953e+00        00000 
 9.76487e+00  8.45640e+00        00000 
 6.93236e+00  7.99200e+00        00000 
 4.13810e+00  7.69119e+00        00000 
 1.37122e+00  7.54835e+00        00000 
-1.38042e+00  7.55812e+00        00000 
-4.13180e+00  7.71639e+00        00000 
-6.90183e+00  8.02157e+00        00000 
-9.71268e+00  8.47617e+00        00000 
-1.25867e+01  9.08735e+00        00000 
-1.55413e+01  9.86496e+00        00000 
-1.85826e+01  1.08169e+01        00000 
-2.16995e+01  1.19440e+01        00000 
-2.48576e+01  1.32381e+01        00000 
-2.79986e+01  1.46875e+01        00000 
 2.88857e+01  1.66392e+01        00000 
 2.53164e+01  1.53465e+01        00000 
 2.17801e+01  1.42064e+01        00000 
 1.82935e+01  1.32261e+01        00000 
 1.48621e+01  1.24118e+01        00000 
 1.14837e+01  1.17670e+01        00000 
 8.15248e+00  1.12923e+01        00000 
 4.86108e+00  1.09859e+01        00000 
 1.60118e+00  1.08442e+01        00000 
-1.63754e+00  1.08622e+01        00000 
-4.86970e+00  1.10334e+01        00000 
-8.11642e+00  1.13522e+01        00000 
-1.14050e+01  1.18166e+01        00000 
-1.47634e+01  1.24309e+01        00000 
-1.82108e+01  1.32053e+01        00000 
-2.17482e+01  1.41500e+01        00000 
-2.53546e+01  1.52697e+01        00000 
-2.89881e+01  1.65617e+01        00000 
-3.25906e+01  1.80186e+01        00000 
 3.29799e+01  2.04313e+01        00000 
 2.89511e+01  1.91410e+01        00000 
 2.49477e+01  1.80042e+01        00000 
 2.09834e+01  1.70255e+01        00000 
 1.70645e+01  1.62099e+01        00000 
 1.31918e+01  1.55620e+01        00000 
 9.36278e+00  1.50844e+01        00000 
 5.57340e+00  1.47783e+01        00000 
 1.81920e+00  1.46423e+01        00000 
-1.90589e+00  1.46720e+01        00000 
-5.61315e+00  1.48584e+01        00000 
-9.32446e+00  1.51899e+01        00000 
-1.30747e+01  1.56577e+01        00000 
-1.69044e+01  1.62639e+01        00000 
-2.08411e+01  1.70227e+01        00000 
-2.48824e+01  1.79524e+01        00000 
-2.89958e+01  1.90633e+01        00000 
-3.31303e+01  2.03549e+01        00000 
-3.72247e+01  2.18214e+01        00000 
 3.70715e+01  2.46956e+01        00000 
 3.25745e+01  2.34077e+01        00000 
 2.80995e+01  2.22748e+01        00000 
 2.36568e+01  2.12992e+01        00000 
 1.92520e+01  2.04852e+01        00000 
 1.48867e+01  1.98371e+01        00000 
 1.05605e+01  1.93591e+01        00000 
 6.27191e+00  1.90545e+01        00000 
 2.02085e+00  1.89252e+01        00000 
-2.19186e+00  1.89691e+01        00000 
-6.36891e+00  1.91762e+01        00000 
-1.05280e+01  1.95267e+01        00000 
-1.47144e+01  1.99991e+01        00000 
-1.89951e+01  2.05902e+01        00000 
-2.34208e+01  2.13248e+01        00000 
-2.79843e+01  2.22384e+01        00000 
-3.26292e+01  2.33474e+01        00000 
-3.72899e+01  2.46461e+01        00000 
-4.19059e+01  2.61256e+01        00000 
 4.11594e+01  2.94401e+01        00000 
 3.61879e+01  2.81547e+01        00000 
 3.12377e+01  2.70252e+01        00000 
 2.63156e+01  2.60528e+01        00000 
 2.14257e+01  2.52403e+01        00000 
 1.65694e+01  2.45916e+01        00000 
 1.17466e+01  2.41114e+01        00000 
 6.95729e+00  2.38048e+01        00000 
 2.20443e+00  2.36774e+01        00000 
-2.50328e+00  2.37333e+01        00000 
-7.15171e+00  2.39676e+01        00000 
-1.17399e+01  2.43523e+01        00000 
-1.63194e+01  2.48416e+01        00000 
-2.10128e+01  2.54130e+01        00000 
-2.59339e+01  2.61142e+01        00000 
-3.10592e+01  2.70186e+01        00000 
-3.62693e+01  2.81485e+01        00000 
-4.14732e+01  2.94723e+01        00000 
-4.66356e+01  3.09693e+01        00000 
 4.52420e+01  3.46702e+01        00000 
 3.97921e+01  3.33874e+01        00000 
 3.43641e+01  3.22609e+01        00000 
 2.89621e+01  3.12908e+01        00000 
 2.35882e+01  3.04788e+01        00000 
 1.82429e+01  2.98278e+01        00000 
 1.29252e+01  2.93417e+01        00000 
 7.63480e+00  2.90259e+01        00000 
 2.37482e+00  2.88883e+01        00000 
-2.84251e+00  2.89409e+01        00000 
-7.98424e+00  2.91968e+01        00000 
-1.29959e+01  2.96418e+01        00000 
-1.78950e+01  3.01816e+01        00000 
-2.29093e+01  3.07342e+01        00000 
-2.83515e+01  3.13823e+01        00000 
-3.41332e+01  3.23042e+01        00000 
-3.99512e+01  3.35039e+01        00000 
-4.56870e+01  3.48824e+01        00000 
-5.13941e+01  3.63944e+01        00000 
 4.93175e+01  4.03893e+01        00000 
 4.33868e+01  3.91094e+01        00000 
 3.74798e+01  3.79858e+01        00000 
 3.15981e+01  3.70177e+01        00000 
 2.57419e+01  3.62056e+01        00000 
 1.99104e+01  3.55510e+01        00000 
 1.41014e+01  3.50561e+01        00000 
 8.31304e+00  3.47242e+01        00000 
 2.54544e+00  3.45614e+01        00000 
-3.19347e+00  3.45804e+01        00000 
-8.87180e+00  3.48100e+01        00000 
-1.43760e+01  3.53016e+01        00000 
-1.95004e+01  3.59994e+01        00000 
-2.45576e+01  3.65415e+01        00000 
-3.06269e+01  3.71184e+01        00000 
-3.72983e+01  3.81323e+01        00000 
-4.37335e+01  3.94917e+01        00000 
-4.99201e+01  4.09113e+01        00000 
-5.61248e+01  4.24135e+01        00000 
 5.33838e+01  4.65994e+01        00000 
 4.69714e+01  4.53229e+01        00000 
 4.05851e+01  4.42026e+01        00000 
 3.42244e+01  4.32370e+01        00000 
 2.78880e+01  4.24256e+01        00000 
 2.15738e+01  4.17684e+01        00000 
 1.52787e+01  4.12656e+01        00000 
 8.99907e+00  4.09170e+01        00000 
 2.73172e+00  4.07226e+01        00000 
-3.52361e+00  4.06841e+01        00000 
-9.75515e+00  4.08122e+01        00000 
-1.58943e+01  4.11686e+01        00000 
-2.14553e+01  4.19531e+01        00000 
-2.56259e+01  4.27980e+01        00000 
-4.08026e+01  4.48001e+01        00000 
-4.75815e+01  4.61665e+01        00000 
-5.41275e+01  4.75033e+01        00000 
-6.07530e+01  4.89573e+01        00000 
 5.74389e+01  5.33010e+01        00000 
 5.05447e+01  5.20287e+01        00000 
 4.36794e+01  5.09125e+01        00000 
 3.68408e+01  4.99507e+01        00000 
 3.00261e+01  4.91423e+01        00000 
 2.32324e+01  4.84863e+01        00000 
 1.64559e+01  4.79817e+01        00000 
 9.69223e+00  4.76259e+01        00000 
 2.93653e+00  4.74144e+01        00000 
-3.81630e+00  4.73375e+01        00000 
-1.05694e+01  4.73748e+01        00000 
-1.73242e+01  4.74747e+01        00000 
-2.39099e+01  4.76368e+01        00000 
-5.13412e+01  5.32766e+01        00000 
-5.82726e+01  5.44655e+01        00000 
-6.52525e+01  5.58677e+01        00000 
 6.14804e+01  6.04932e+01        00000 
 5.41053e+01  5.92260e+01        00000 
 4.67618e+01  5.81151e+01        00000 
 3.94460e+01  5.71589e+01        00000 
 3.21544e+01  5.63564e+01        00000 
 2.48830e+01  5.57068e+01        00000 
 1.76275e+01  5.52092e+01        00000 
 1.03830e+01  5.48621e+01        00000 
 3.14323e+00  5.46632e+01        00000 
-4.10018e+00  5.46088e+01        00000 
-1.13646e+01  5.46963e+01        00000 
-1.86949e+01  5.49451e+01        00000 
-2.65893e+01  5.55489e+01        00000 
-4.78582e+01  5.92792e+01        00000 
-5.50638e+01  6.03682e+01        00000 
-6.23807e+01  6.16028e+01        00000 
-6.96985e+01  6.30132e+01        00000 
 6.55064e+01  6.81737e+01        00000 
 5.76517e+01  6.69123e+01        00000 
 4.98308e+01  6.58077e+01        00000 
 4.20387e+01  6.48587e+01        00000 
 3.42706e+01  6.40648e+01        00000 
 2.65220e+01  6.34260e+01        00000 
 1.87873e+01  6.29428e+01        00000 
 1.10602e+01  6.26167e+01        00000 
 3.33126e+00  6.24517e+01        00000 
-4.41603e+00  6.24579e+01        00000 
-1.22188e+01  6.26631e+01        00000 
-2.02031e+01  6.31451e+01        00000 
-2.87411e+01  6.39491e+01        00000 
-3.76883e+01  6.45548e+01        00000 
-4.48826e+01  6.50463e+01        00000 
-5.15042e+01  6.62176e+01        00000 
-5.88345e+01  6.76041e+01        00000 
-6.65167e+01  6.89684e+01        00000 
-7.42005e+01  7.04250e+01        00000 
 6.95152e+01  7.63389e+01        00000 
 6.11828e+01  7.50839e+01        00000 
 5.28856e+01  7.39863e+01        00000 
 4.46177e+01  7.30454e+01        00000 
 3.63736e+01  7.22614e+01        00000 
 2.81473e+01  7.16351e+01        00000 
 1.99324e+01  7.11687e+01        00000 
 1.17200e+01  7.08658e+01        00000 
 3.49673e+00  7.07338e+01        00000 
-4.76119e+00  7.07864e+01        00000 
-1.31028e+01  7.10460e+01        00000 
-2.16258e+01  7.15197e+01        00000 
-3.03725e+01  7.20933e+01        00000 
-3.90316e+01  7.26016e+01        00000 
-4.70805e+01  7.32026e+01        00000 
-5.47795e+01  7.41429e+01        00000 
-6.26163e+01  7.53928e+01        00000 
-7.06753e+01  7.67739e+01        00000 
-7.87986e+01  7.82544e+01        00000 
 7.35057e+01  8.49843e+01        00000 
 6.46978e+01  8.37360e+01        00000 
 5.59258e+01  8.26454e+01        00000 
 4.71830e+01  8.17126e+01        00000 
 3.84632e+01  8.09383e+01        00000 
 2.97598e+01  8.03237e+01        00000 
 2.10648e+01  7.98714e+01        00000 
 1.23678e+01  7.95852e+01        00000 
 3.65352e+00  7.94709e+01        00000 
-5.10185e+00  7.95354e+01        00000 
-1.39337e+01  7.97786e+01        00000 
-2.28696e+01  8.01703e+01        00000 
-3.18647e+01  8.06454e+01        00000 
-4.07568e+01  8.11707e+01        00000 
-4.93864e+01  8.18196e+01        00000 
-5.78277e+01  8.27053e+01        00000 
-6.62726e+01  8.38371e+01        00000 
-7.48158e+01  8.51550e+01        00000 
-8.34441e+01  8.66255e+01        00000 
-3.27677e+01  4.34163e+01        00000 
-4.44190e+01  5.23990e+01        00000 
 7.74773e+01  9.41051e+01        00000 
 6.81964e+01  9.28634e+01        00000 
 5.89513e+01  9.17795e+01        00000 
 4.97351e+01  9.08541e+01        00000 
 4.05410e+01  9.00879e+01        00000 
 3.13619e+01  8.94823e+01        00000 
 2.21894e+01  8.90391e+01        00000 
 1.30128e+01  8.87605e+01        00000 
 3.81804e+00  8.86485e+01        00000 
-5.41231e+00  8.87020e+01        00000 
-1.46942e+01  8.89103e+01        00000 
-2.40254e+01  8.92488e+01        00000 
-3.33642e+01  8.96892e+01        00000 
-4.26319e+01  9.02282e+01        00000 
-5.17715e+01  9.09064e+01        00000 
-6.08107e+01  9.17757e+01        00000 
-6.98330e+01  9.28541e+01        00000 
-7.89070e+01  9.41242e+01        00000 
-8.80711e+01  9.55710e+01        00000 
 5.38620e+00  3.28123e+00        00000 
 9.99071e+00  5.22629e+00        00000 
 1.44447e+01  7.18808e+00        00000 
 1.89071e+01  9.34964e+00        00000 
 2.33988e+01  1.18476e+01        00000 
 2.79183e+01  1.47459e+01        00000 
 3.24589e+01  1.80810e+01        00000 
 3.70136e+01  2.18743e+01        00000 
 4.15765e+01  2.61389e+01        00000 
 4.61428e+01  3.08828e+01        00000 
 5.07083e+01  3.61114e+01        00000 
 5.52694e+01  4.18281e+01        00000 
 5.98226e+01  4.80349e+01        00000 
 6.43644e+01  5.47322e+01        00000 
 6.88915e+01  6.19192e+01        00000 
-4.24906e+01  5.80689e+01        00000 
 7.34008e+01  6.95936e+01        00000 
 7.78899e+01  7.77521e+01        00000 
 8.23572e+01  8.63906e+01        00000 
 8.68019e+01  9.55043e+01        00000 
 2.50211e-16  2.17422e-16        00000 
 2.13898e+00  1.08916e+00        00000 
 1.70353e+00  6.43135e-01        00000 
 1.45925e+00  3.46251e-01        00000 
 1.23634e+00  1.47549e-01        00000 
 1.02395e+00  4.72339e-03        00000 
 8.15976e-01 -9.89557e-02        00000 
 6.10458e-01 -1.72882e-01        00000 
 4.06413e-01 -2.22519e-01        00000 
 2.03264e-01 -2.51160e-01        00000 
 5.57212e-04 -2.60642e-01        00000 
-2.02144e-01 -2.51632e-01        00000 
-4.05317e-01 -2.23667e-01        00000 
-6.09504e-01 -1.75005e-01        00000 
-8.15380e-01 -1.02269e-01        00000 
-1.02396e+00  2.58761e-04        00000 
-1.23712e+00  1.42316e-01        00000 
-1.46073e+00  3.40927e-01        00000 
-1.70525e+00  6.38479e-01        00000 
-2.13962e+00  1.08574e+00        00000 
 6.88107e+00  3.49994e+00        00000 
 5.51848e+00  2.24118e+00        00000 
 4.64216e+00  1.44387e+00        00000 
 3.89964e+00  8.77915e-01        00000 
 3.21092e+00  4.66031e-01        00000 
 2.54887e+00  1.64179e-01        00000 
 1.90185e+00 -5.21788e-02        00000 
 1.26396e+00 -1.97931e-01        00000 
 6.31564e-01 -2.82155e-01        00000 
 1.90103e-03 -3.09961e-01        00000 
-6.27609e-01 -2.83229e-01        00000 
-1.25973e+00 -2.00696e-01        00000 
-1.89768e+00 -5.75630e-02        00000 
-2.54562e+00  1.55436e-01        00000 
-3.20971e+00  4.53859e-01        00000 
-3.90138e+00  8.63167e-01        00000 
-4.64691e+00  1.42818e+00        00000 
-5.52480e+00  2.22639e+00        00000 
-6.88493e+00  3.48695e+00        00000 
 1.12680e+01  5.46732e+00        00000 
 9.51914e+00  4.11496e+00        00000 
 8.03304e+00  3.02218e+00        00000 
 6.73554e+00  2.19549e+00        00000 
 5.53278e+00  1.56956e+00        00000 
 4.38308e+00  1.10141e+00        00000 
 3.26533e+00  7.61739e-01        00000 
 2.16767e+00  5.31333e-01        00000 
 1.08232e+00  3.97839e-01        00000 
 3.23242e-03  3.54035e-01        00000 
-1.07533e+00  3.97112e-01        00000 
-2.15950e+00  5.28663e-01        00000 
-3.25645e+00  7.55231e-01        00000 
-4.37522e+00  1.08938e+00        00000 
-5.52844e+00  1.55138e+00        00000 
-6.73698e+00  2.17212e+00        00000 
-8.04090e+00  2.99597e+00        00000 
-9.53118e+00  4.08880e+00        00000 
-1.12784e+01  5.44334e+00        00000 
 1.55887e+01  7.51358e+00        00000 
 1.34740e+01  6.14563e+00        00000 
 1.14998e+01  4.96096e+00        00000 
 9.66943e+00  3.99051e+00        00000 
 7.94566e+00  3.22407e+00        00000 
 6.29178e+00  2.63528e+00        00000 
 4.68424e+00  2.20116e+00        00000 
 3.10755e+00  1.90401e+00        00000 
 1.55056e+00  1.73136e+00        00000 
 3.98120e-03  1.67536e+00        00000 
-1.54126e+00  1.73256e+00        00000 
-3.09507e+00  1.90419e+00        00000 
-4.66893e+00  2.19676e+00        00000 
-6.27655e+00  2.62288e+00        00000 
-7.93520e+00  3.20187e+00        00000 
-9.66836e+00  3.95927e+00        00000 
-1.15102e+01  4.92391e+00        00000 
-1.34936e+01  6.10734e+00        00000 
-1.56094e+01  7.47807e+00        00000 
 1.98913e+01  9.83441e+00        00000 
 1.73927e+01  8.46552e+00        00000 
 1.49652e+01  7.25224e+00        00000 
 1.26386e+01  6.22008e+00        00000 
 1.04049e+01  5.37555e+00        00000 
 8.24466e+00  4.71084e+00        00000 
 6.13848e+00  4.21285e+00        00000 
 4.07103e+00  3.86898e+00        00000 
 2.02974e+00  3.66896e+00        00000 
 3.17483e-03  3.60545e+00        00000 
-2.02050e+00  3.67453e+00        00000 
-4.05463e+00  3.87626e+00        00000 
-6.11464e+00  4.21549e+00        00000 
-8.21796e+00  4.70249e+00        00000 
-1.03836e+01  5.35232e+00        00000 
-1.26313e+01  6.18223e+00        00000 
-1.49773e+01  7.20424e+00        00000 
-1.74222e+01  8.41441e+00        00000 
-1.99278e+01  9.78698e+00        00000 
 2.41980e+01  1.25256e+01        00000 
 2.12863e+01  1.11573e+01        00000 
 1.84126e+01  9.93750e+00        00000 
 1.56077e+01  8.88209e+00        00000 
 1.28780e+01  8.00079e+00        00000 