<?xml version="1.0" encoding="utf-8"?>
<VTKFile byte_order="LittleEndian" type="UnstructuredGrid" version="0.1">
   <UnstructuredGrid>
      <Piece NumberOfCells="296" NumberOfPoints="296">
         <Points>
            <DataArray Name="Points" NumberOfComponents="3" format="ascii" type="Float32">
-0.1579 -0.0526 0.0000
-0.1579 0.0526 0.0000
-0.0526 -0.1579 0.0000
-0.0526 0.1579 0.0000
0.0526 -0.1579 0.0000
0.0526 0.1579 0.0000
0.1579 -0.0526 0.0000
0.1579 0.0526 0.0000
-0.1053 -0.1053 0.0000
-0.1053 0.1053 0.0000
0.1053 -0.1053 0.0000
0.1053 0.1053 0.0000
1.8421 -0.0526 0.0000
1.8421 0.0526 0.0000
1.9474 -0.1579 0.0000
1.9474 0.1579 0.0000
2.0526 -0.1579 0.0000
2.0526 0.1579 0.0000
2.1579 -0.0526 0.0000
2.1579 0.0526 0.0000
1.8947 -0.1053 0.0000
1.8947 0.1053 0.0000
2.1053 -0.1053 0.0000
2.1053 0.1053 0.0000
3.1053 -0.2632 0.0000
3.1053 -0.1579 0.0000
3.1053 -0.0526 0.0000
3.1053 0.0526 0.0000
3.1053 0.1579 0.0000
3.1053 0.2632 0.0000
3.2105 -0.4737 0.0000
3.2105 -0.3684 0.0000
3.2105 0.3684 0.0000
3.2105 0.4737 0.0000
3.3158 -0.5789 0.0000
3.3158 0.5789 0.0000
3.4211 -0.6842 0.0000
3.4211 0.6842 0.0000
3.5263 -0.7895 0.0000
3.5263 0.7895 0.0000
3.6316 -0.7895 0.0000
3.6316 0.7895 0.0000
3.7368 -0.8947 0.0000
3.7368 0.8947 0.0000
3.8421 -0.8947 0.0000
3.8421 0.8947 0.0000
3.9474 -0.8947 0.0000
3.9474 0.8947 0.0000
4.0526 -0.8947 0.0000
4.0526 0.8947 0.0000
4.1579 -0.8947 0.0000
4.1579 0.8947 0.0000
4.2632 -0.8947 0.0000
4.2632 0.8947 0.0000
4.3684 -0.7895 0.0000
4.3684 0.7895 0.0000
4.4737 -0.7895 0.0000
4.4737 0.7895 0.0000
4.5789 -0.6842 0.0000
4.5789 0.6842 0.0000
4.6842 -0.5789 0.0000
4.6842 0.5789 0.0000
4.7895 -0.4737 0.0000
4.7895 -0.3684 0.0000
4.7895 0.3684 0.0000
4.7895 0.4737 0.0000
4.8947 -0.2632 0.0000
4.8947 -0.1579 0.0000
4.8947 -0.0526 0.0000
4.8947 0.0526 0.0000
4.8947 0.1579 0.0000
4.8947 0.2632 0.0000
3.1579 -0.3158 0.0000
3.1579 -0.2105 0.0000
3.1579 0.2105 0.0000
3.1579 0.3158 0.0000
3.2632 -0.5263 0.0000
3.2632 0.5263 0.0000
3.3684 -0.6316 0.0000
3.3684 0.6316 0.0000
3.4737 -0.7368 0.0000
3.4737 0.7368 0.0000
3.6842 -0.8421 0.0000
3.6842 0.8421 0.0000
3.7895 -0.8421 0.0000
3.7895 0.8421 0.0000
4.2105 -0.8421 0.0000
4.2105 0.8421 0.0000
4.3158 -0.8421 0.0000
4.3158 0.8421 0.0000
4.5263 -0.7368 0.0000
4.5263 0.7368 0.0000
4.6316 -0.6316 0.0000
4.6316 0.6316 0.0000
4.7368 -0.5263 0.0000
4.7368 0.5263 0.0000
4.8421 -0.3158 0.0000
4.8421 -0.2105 0.0000
4.8421 0.2105 0.0000
4.8421 0.3158 0.0000
-0.0843 -0.0526 0.0000
-0.1054 -0.0001 0.0000
-0.0843 0.0526 0.0000
-0.1054 0.0001 0.0000
-0.0526 -0.0843 0.0000
-0.0001 -0.1054 0.0000
-0.0725 -0.0725 0.0000
-0.0526 0.0843 0.0000
-0.0725 0.0725 0.0000
-0.0001 0.1054 0.0000
0.0526 -0.0843 0.0000
0.0001 -0.1054 0.0000
0.0843 -0.0526 0.0000
0.0725 -0.0725 0.0000
0.0526 0.0843 0.0000
0.0843 0.0526 0.0000
0.0725 0.0725 0.0000
0.0001 0.1054 0.0000
0.1054 -0.0001 0.0000
0.1054 0.0001 0.0000
1.9157 -0.0526 0.0000
1.8946 -0.0001 0.0000
1.9157 0.0526 0.0000
1.8946 0.0001 0.0000
1.9474 -0.0843 0.0000
1.9999 -0.1054 0.0000
1.9275 -0.0725 0.0000
1.9474 0.0843 0.0000
1.9275 0.0725 0.0000
1.9999 0.1054 0.0000
2.0526 -0.0843 0.0000
2.0001 -0.1054 0.0000
2.0843 -0.0526 0.0000
2.0725 -0.0725 0.0000
2.0526 0.0843 0.0000
2.0843 0.0526 0.0000
2.0725 0.0725 0.0000
2.0001 0.1054 0.0000
2.1054 -0.0001 0.0000
2.1054 0.0001 0.0000
3.1914 -0.2632 0.0000
3.1651 -0.1579 0.0000
3.1562 -0.1070 0.0000
3.1519 -0.0526 0.0000
3.1557 -0.1031 0.0000
3.1497 -0.0082 0.0000
3.1519 0.0526 0.0000
3.1497 0.0082 0.0000
3.1557 0.1031 0.0000
3.1651 0.1579 0.0000
3.1562 0.1070 0.0000
3.1914 0.2632 0.0000
3.2939 -0.4737 0.0000
3.2617 -0.4225 0.0000
3.2105 -0.3141 0.0000
3.2338 -0.3684 0.0000
3.2584 -0.4163 0.0000
3.2262 -0.3528 0.0000
3.1961 -0.2776 0.0000
3.1832 -0.2358 0.0000
3.1727 -0.1958 0.0000
3.1727 0.1958 0.0000
3.2105 0.3141 0.0000
3.1832 0.2358 0.0000
3.1961 0.2776 0.0000
3.2338 0.3684 0.0000
3.2262 0.3528 0.0000
3.2584 0.4163 0.0000
3.2939 0.4737 0.0000
3.2617 0.4225 0.0000
3.3158 -0.5043 0.0000
3.3780 -0.5789 0.0000
3.3485 -0.5462 0.0000
3.3026 -0.4869 0.0000
3.3158 0.5043 0.0000
3.3026 0.4869 0.0000
3.3780 0.5789 0.0000
3.3485 0.5462 0.0000
3.4211 -0.6220 0.0000
3.4957 -0.6842 0.0000
3.4538 -0.6515 0.0000
3.3988 -0.6012 0.0000
3.4211 0.6220 0.0000
3.3988 0.6012 0.0000
3.4957 0.6842 0.0000
3.4538 0.6515 0.0000
3.5263 -0.7061 0.0000
3.5775 -0.7383 0.0000
3.5131 -0.6974 0.0000
3.5263 0.7061 0.0000
3.5131 0.6974 0.0000
3.5775 0.7383 0.0000
3.6316 -0.7662 0.0000
3.6859 -0.7895 0.0000
3.5837 -0.7416 0.0000
3.6472 -0.7738 0.0000
3.6316 0.7662 0.0000
3.6859 0.7895 0.0000
3.5837 0.7416 0.0000
3.6472 0.7738 0.0000
3.7368 -0.8086 0.0000
3.7224 -0.8039 0.0000
3.7642 -0.8168 0.0000
3.7368 0.8086 0.0000
3.7224 0.8039 0.0000
3.7642 0.8168 0.0000
3.8421 -0.8349 0.0000
3.8930 -0.8438 0.0000
3.8042 -0.8273 0.0000
3.8421 0.8349 0.0000
3.8042 0.8273 0.0000
3.8930 0.8438 0.0000
3.9474 -0.8481 0.0000
3.8969 -0.8443 0.0000
3.9918 -0.8503 0.0000
3.9474 0.8481 0.0000
3.8969 0.8443 0.0000
3.9918 0.8503 0.0000
4.0526 -0.8481 0.0000
4.0082 -0.8503 0.0000
4.1031 -0.8443 0.0000
4.0526 0.8481 0.0000
4.0082 0.8503 0.0000
4.1031 0.8443 0.0000
4.1579 -0.8349 0.0000
4.1070 -0.8438 0.0000
4.1958 -0.8273 0.0000
4.1579 0.8349 0.0000
4.1958 0.8273 0.0000
4.1070 0.8438 0.0000
4.2632 -0.8086 0.0000
4.3141 -0.7895 0.0000
4.2358 -0.8168 0.0000
4.2776 -0.8039 0.0000
4.2632 0.8086 0.0000
4.3141 0.7895 0.0000
4.2358 0.8168 0.0000
4.2776 0.8039 0.0000
4.3684 -0.7662 0.0000
4.3528 -0.7738 0.0000
4.4163 -0.7416 0.0000
4.3684 0.7662 0.0000
4.3528 0.7738 0.0000
4.4163 0.7416 0.0000
4.4737 -0.7061 0.0000
4.4225 -0.7383 0.0000
4.5043 -0.6842 0.0000
4.4869 -0.6974 0.0000
4.4737 0.7061 0.0000
4.5043 0.6842 0.0000
4.4869 0.6974 0.0000
4.4225 0.7383 0.0000
4.5789 -0.6220 0.0000
4.5462 -0.6515 0.0000
4.6220 -0.5789 0.0000
4.6012 -0.6012 0.0000
4.5789 0.6220 0.0000
4.6220 0.5789 0.0000
4.6012 0.6012 0.0000
4.5462 0.6515 0.0000
4.6842 -0.5043 0.0000
4.6515 -0.5462 0.0000
4.7061 -0.4737 0.0000
4.6974 -0.4869 0.0000
4.7662 -0.3684 0.0000
4.7662 0.3684 0.0000
4.6842 0.5043 0.0000
4.7061 0.4737 0.0000
4.6974 0.4869 0.0000
4.6515 0.5462 0.0000
4.7383 -0.4225 0.0000
4.7895 -0.3141 0.0000
4.7416 -0.4163 0.0000
4.7738 -0.3528 0.0000
4.8086 -0.2632 0.0000
4.8039 -0.2776 0.0000
4.8168 -0.2358 0.0000
4.8349 -0.1579 0.0000
4.8273 -0.1958 0.0000
4.8481 -0.0526 0.0000
4.8481 0.0526 0.0000
4.8349 0.1579 0.0000
4.8273 0.1958 0.0000
4.7895 0.3141 0.0000
4.8086 0.2632 0.0000
4.8168 0.2358 0.0000
4.8039 0.2776 0.0000
4.7738 0.3528 0.0000
4.7416 0.4163 0.0000
4.7383 0.4225 0.0000
4.8438 -0.1070 0.0000
4.8443 -0.1031 0.0000
4.8503 -0.0082 0.0000
4.8503 0.0082 0.0000
4.8443 0.1031 0.0000
4.8438 0.1070 0.0000</DataArray>
         </Points>
         <Cells>
            <DataArray Name="connectivity" format="ascii" type="Int32">
 1 101 103
 1 0 101
 104 2 105
 3 107 109
 110 4 10
 113 110 10
 114 116 11
 5 114 11
 100 0 8
 106 100 8
 102 1 103
 5 3 117
 3 109 117
 112 113 10
 6 112 10
 7 115 119
 104 106 8
 2 104 8
 107 3 9
 108 107 9
 4 110 111
 114 5 117
 6 7 118
 7 119 118
 0 100 101
 102 108 9
 1 102 9
 2 4 105
 4 111 105
 112 6 118
 115 7 11
 116 115 11
 13 12 123
 12 121 123
 124 14 125
 15 127 129
 130 16 22
 133 130 22
 134 136 23
 17 134 23
 120 12 20
 126 120 20
 122 13 123
 17 129 137
 17 15 129
 132 133 22
 18 132 22
 19 135 139
 124 126 20
 14 124 20
 127 15 21
 128 127 21
 16 130 131
 134 17 137
 18 19 138
 19 139 138
 12 120 121
 122 128 21
 13 122 21
 14 131 125
 14 16 131
 132 18 138
 135 19 23
 136 135 23
 26 25 144
 25 142 144
 27 145 147
 27 26 145
 28 148 150
 28 27 148
 31 30 156
 30 153 156
 154 31 157
 32 162 166
 33 167 169
 33 32 167
 170 34 172
 35 174 177
 178 36 180
 37 182 185
 186 38 187
 39 189 191
 192 40 195
 41 196 199
 42 84 202
 200 42 202
 43 203 205
 43 205 85
 206 44 207
 45 209 211
 212 46 214
 47 215 217
 218 48 220
 49 221 223
 224 50 86
 226 224 86
 227 228 87
 51 227 87
 230 52 88
 233 230 88
 234 237 89
 53 234 89
 238 54 240
 55 241 243
 244 56 90
 247 244 90
 248 250 91
 57 248 91
 252 58 92
 255 252 92
 256 258 93
 59 256 93
 260 60 94
 263 260 94
 266 268 95
 61 266 95
 271 63 96
 275 271 96
 276 97 278
 282 98 285
 283 286 99
 64 283 99
 140 24 72
 158 140 72
 141 25 73
 160 141 73
 143 26 144
 146 27 147
 149 28 150
 29 74 163
 151 29 163
 152 30 76
 173 152 76
 155 31 156
 165 32 166
 168 33 169
 171 34 78
 181 171 78
 176 35 177
 179 36 80
 188 179 80
 184 37 185
 41 39 198
 39 191 198
 193 40 82
 201 193 82
 197 41 199
 202 84 208
 47 45 216
 45 211 216
 49 47 222
 47 217 222
 51 223 229
 51 49 223
 226 86 232
 231 233 88
 54 231 88
 55 235 242
 57 243 251
 57 55 243
 246 247 90
 58 246 90
 59 249 259
 254 255 92
 60 254 92
 61 257 269
 262 263 94
 62 262 94
 63 264 272
 64 265 287
 65 267 289
 274 275 96
 66 274 96
 277 278 97
 67 277 97
 68 279 291
 69 280 293
 70 281 295
 71 284 285
 71 285 98
 154 158 72
 31 154 72
 160 73 159
 163 74 161
 162 32 75
 164 162 75
 170 173 76
 34 170 76
 174 35 77
 175 174 77
 178 181 78
 36 178 78
 182 37 79
 183 182 79
 186 188 80
 38 186 80
 189 39 81
 190 189 81
 40 192 194
 196 41 198
 200 201 82
 42 200 82
 203 43 83
 204 203 83
 206 208 84
 44 206 84
 209 45 85
 210 209 85
 46 212 213
 215 47 216
 48 218 219
 221 49 222
 50 224 225
 227 51 229
 52 230 232
 52 232 86
 53 87 236
 234 53 236
 54 238 239
 241 55 242
 56 244 245
 248 57 251
 58 252 253
 256 59 259
 60 260 261
 266 61 269
 62 272 270
 62 63 272
 63 271 273
 283 64 287
 64 65 288
 65 289 288
 67 291 290
 67 68 291
 68 69 292
 69 293 292
 69 70 294
 70 295 294
 24 140 159
 24 159 73
 25 141 142
 26 143 145
 27 146 148
 149 161 74
 28 149 74
 151 164 75
 29 151 75
 30 152 153
 31 155 157
 32 165 167
 168 175 77
 33 168 77
 34 171 172
 176 183 79
 35 176 79
 36 179 180
 184 190 81
 37 184 81
 38 194 187
 38 40 194
 40 193 195
 197 204 83
 41 197 83
 210 85 205
 44 213 207
 44 46 213
 46 48 214
 48 219 214
 48 50 220
 50 225 220
 236 87 228
 231 54 239
 235 55 89
 237 235 89
 54 56 240
 56 245 240
 246 58 253
 249 59 91
 250 249 91
 254 60 261
 257 61 93
 258 257 93
 262 62 270
 264 63 273
 265 64 288
 267 65 95
 268 267 95
 66 97 276
 274 66 276
 277 67 290
 279 68 292
 280 69 294
 281 70 98
 282 281 98
 284 71 99
 286 284 99</DataArray>
            <DataArray Name="offsets" format="ascii" type="Int32">3 6 9 12 15 18 21 24 27 30 33 36 39 42 45 48 51 54 57 60 63 66 69 72 75 78 81 84 87 90 93 96 99 102 105 108 111 114 117 120 123 126 129 132 135 138 141 144 147 150 153 156 159 162 165 168 171 174 177 180 183 186 189 192 195 198 201 204 207 210 213 216 219 222 225 228 231 234 237 240 243 246 249 252 255 258 261 264 267 270 273 276 279 282 285 288 291 294 297 300 303 306 309 312 315 318 321 324 327 330 333 336 339 342 345 348 351 354 357 360 363 366 369 372 375 378 381 384 387 390 393 396 399 402 405 408 411 414 417 420 423 426 429 432 435 438 441 444 447 450 453 456 459 462 465 468 471 474 477 480 483 486 489 492 495 498 501 504 507 510 513 516 519 522 525 528 531 534 537 540 543 546 549 552 555 558 561 564 567 570 573 576 579 582 585 588 591 594 597 600 603 606 609 612 615 618 621 624 627 630 633 636 639 642 645 648 651 654 657 660 663 666 669 672 675 678 681 684 687 690 693 696 699 702 705 708 711 714 717 720 723 726 729 732 735 738 741 744 747 750 753 756 759 762 765 768 771 774 777 780 783 786 789 792 795 798 801 804 807 810 813 816 819 822 825 828 831 834 837 840 843 846 849 852 855 858 861 864 867 870 873 876 879 882 885 888 </DataArray>
            <DataArray Name="types" format="ascii" type="UInt8">5 5 5 5 5 5 5 5 5 5 5 5 5 5 5 5 5 5 5 5 5 5 5 5 5 5 5 5 5 5 5 5 5 5 5 5 5 5 5 5 5 5 5 5 5 5 5 5 5 5 5 5 5 5 5 5 5 5 5 5 5 5 5 5 5 5 5 5 5 5 5 5 5 5 5 5 5 5 5 5 5 5 5 5 5 5 5 5 5 5 5 5 5 5 5 5 5 5 5 5 5 5 5 5 5 5 5 5 5 5 5 5 5 5 5 5 5 5 5 5 5 5 5 5 5 5 5 5 5 5 5 5 5 5 5 5 5 5 5 5 5 5 5 5 5 5 5 5 5 5 5 5 5 5 5 5 5 5 5 5 5 5 5 5 5 5 5 5 5 5 5 5 5 5 5 5 5 5 5 5 5 5 5 5 5 5 5 5 5 5 5 5 5 5 5 5 5 5 5 5 5 5 5 5 5 5 5 5 5 5 5 5 5 5 5 5 5 5 5 5 5 5 5 5 5 5 5 5 5 5 5 5 5 5 5 5 5 5 5 5 5 5 5 5 5 5 5 5 5 5 5 5 5 5 5 5 5 5 5 5 5 5 5 5 5 5 5 5 5 5 5 5 5 5 5 5 5 5 5 5 5 5 5 5 5 5 5 5 5 5 5 5 5 5 5 5 </DataArray>
         </Cells>
         <PointData>
            <DataArray Name="fValues" NumberOfComponents="3" format="ascii" type="Float64">
 2.73531e-01  3.83090e+00        00000 
-2.75431e-01  3.82844e+00        00000 
 1.07883e+00  4.82805e+00        00000 
-1.07712e+00  4.82519e+00        00000 
 1.21270e+00  5.96834e+00        00000 
-1.20758e+00  5.96809e+00        00000 
 4.25638e-01  7.07521e+00        00000 
-4.24316e-01  7.07423e+00        00000 
 6.23999e-01  4.28718e+00        00000 
-6.23089e-01  4.29311e+00        00000 
 8.19365e-01  6.52477e+00        00000 
-8.30645e-01  6.53132e+00        00000 
 9.25628e-01  3.44906e+01        00000 
-9.29234e-01  3.44887e+01        00000 
 2.97144e+00  3.67794e+01        00000 
-2.97457e+00  3.67792e+01        00000 
 3.03993e+00  3.92164e+01        00000 
-3.04011e+00  3.92174e+01        00000 
 9.96895e-01  4.16098e+01        00000 
-1.00148e+00  4.16084e+01        00000 
 1.91004e+00  3.55977e+01        00000 
-1.90827e+00  3.56053e+01        00000 
 2.00023e+00  4.04255e+01        00000 
-2.01517e+00  4.04354e+01        00000 
 5.11716e+00  6.49517e+01        00000 
 3.01258e+00  6.47295e+01        00000 
 9.97505e-01  6.45895e+01        00000 
-1.00497e+00  6.45891e+01        00000 
-3.04264e+00  6.47188e+01        00000 
-5.11861e+00  6.49341e+01        00000 
 9.61310e+00  6.84663e+01        00000 
 7.20511e+00  6.80562e+01        00000 
-7.21904e+00  6.80242e+01        00000 
-9.63430e+00  6.84417e+01        00000 
 1.21012e+01  7.24771e+01        00000 
-1.21204e+01  7.24205e+01        00000 
 1.49718e+01  7.74960e+01        00000 
-1.49843e+01  7.74118e+01        00000 
 1.93088e+01  8.36305e+01        00000 
-1.92767e+01  8.35085e+01        00000 
 1.83293e+01  9.12083e+01        00000 
-1.83330e+01  9.10657e+01        00000 
 2.67580e+01  1.01367e+02        00000 
-2.67014e+01  1.01169e+02        00000 
 2.68430e+01  1.13591e+02        00000 
-2.67525e+01  1.13193e+02        00000 
 2.69396e+01  1.27657e+02        00000 
-2.68144e+01  1.27288e+02        00000 
 2.72710e+01  1.42683e+02        00000 
-2.71511e+01  1.42239e+02        00000 
 2.78633e+01  1.57116e+02        00000 
-2.76812e+01  1.56513e+02        00000 
 2.83974e+01  1.69815e+02        00000 
-2.81687e+01  1.69373e+02        00000 
 1.91686e+01  1.80954e+02        00000 
-1.88731e+01  1.80543e+02        00000 
 2.02019e+01  1.90223e+02        00000 
-1.99261e+01  1.89850e+02        00000 
 1.36684e+01  1.98501e+02        00000 
-1.32978e+01  1.98195e+02        00000 
 8.03615e+00  2.06252e+02        00000 
-7.58869e+00  2.06015e+02        00000 
 3.03223e+00  2.12993e+02        00000 
-8.62918e-01  2.14034e+02        00000 
 1.44120e+00  2.13866e+02        00000 
-2.50747e+00  2.12851e+02        00000 
-2.63823e+00  2.17651e+02        00000 
-2.55978e+00  2.17907e+02        00000 
-8.75081e-01  2.18154e+02        00000 
 1.62354e+00  2.18157e+02        00000 
 3.39740e+00  2.17861e+02        00000 
 3.27817e+00  2.17565e+02        00000 
 6.16528e+00  6.64197e+01        00000 
 4.07069e+00  6.60870e+01        00000 
-4.08965e+00  6.60394e+01        00000 
-6.16850e+00  6.64011e+01        00000 
 1.08629e+01  7.04249e+01        00000 
-1.08872e+01  7.03864e+01        00000 
 1.35383e+01  7.49675e+01        00000 
-1.35636e+01  7.48890e+01        00000 
 1.70221e+01  8.05202e+01        00000 
-1.70118e+01  8.04123e+01        00000 
 2.20521e+01  9.61307e+01        00000 
-2.20206e+01  9.59636e+01        00000 
 2.11775e+01  1.07352e+02        00000 
-2.12459e+01  1.07050e+02        00000 
 2.23594e+01  1.63478e+02        00000 
-2.20011e+01  1.62955e+02        00000 
 2.34098e+01  1.75485e+02        00000 
-2.31594e+01  1.75059e+02        00000 
 1.68904e+01  1.94363e+02        00000 
-1.65686e+01  1.94020e+02        00000 
 1.08844e+01  2.02351e+02        00000 
-1.04662e+01  2.02071e+02        00000 
 5.52561e+00  2.09683e+02        00000 
-5.03521e+00  2.09496e+02        00000 
-1.87488e+00  2.16254e+02        00000 
-2.65856e+00  2.17310e+02        00000 
 3.39980e+00  2.17086e+02        00000 
 2.48225e+00  2.16137e+02        00000 
 2.50971e-01  4.45402e+00        00000 
-2.76803e-04  4.24814e+00        00000 
-2.45334e-01  4.46188e+00        00000 
-1.25709e-03  4.24814e+00        00000 
 4.93567e-01  4.75441e+00        00000 
 6.99138e-01  5.37439e+00        00000 
 3.85376e-01  4.55868e+00        00000 
-4.86842e-01  4.76215e+00        00000 
-3.79493e-01  4.56859e+00        00000 
-6.93061e-01  5.37263e+00        00000 
 5.98898e-01  5.98650e+00        00000 
 6.99377e-01  5.37642e+00        00000 
 3.61795e-01  6.31995e+00        00000 
 5.16938e-01  6.19408e+00        00000 
-6.02945e-01  5.98979e+00        00000 
-3.66986e-01  6.32301e+00        00000 
-5.26173e-01  6.19954e+00        00000 
-6.93294e-01  5.37467e+00        00000 
 1.81741e-03  6.54815e+00        00000 
 2.99637e-04  6.54814e+00        00000 
 8.89104e-01  3.60262e+01        00000 
-1.52584e-04  3.55624e+01        00000 
-8.85041e-01  3.60343e+01        00000 
-3.46484e-03  3.55624e+01        00000 
 1.50541e+00  3.67157e+01        00000 
 1.92839e+00  3.79849e+01        00000 
 1.26373e+00  3.62776e+01        00000 
-1.50120e+00  3.67243e+01        00000 
-1.25847e+00  3.62882e+01        00000 
-1.92905e+00  3.79850e+01        00000 
 1.55068e+00  3.92577e+01        00000 
 1.92851e+00  3.79893e+01        00000 
 9.35214e-01  3.99787e+01        00000 
 1.31968e+00  3.97086e+01        00000 
-1.56111e+00  3.92652e+01        00000 
-9.46977e-01  3.99855e+01        00000 
-1.33457e+00  3.97187e+01        00000 
-1.92916e+00  3.79894e+01        00000 
-1.47548e-04  4.04692e+01        00000 
-3.71608e-03  4.04692e+01        00000 
 5.17379e+00  6.70455e+01        00000 
 3.03702e+00  6.61092e+01        00000 
 2.04739e+00  6.57374e+01        00000 
 1.01335e+00  6.55616e+01        00000 
 1.97293e+00  6.57225e+01        00000 
 1.51936e-01  6.54884e+01        00000 
-1.02089e+00  6.55709e+01        00000 
-1.59312e-01  6.54883e+01        00000 
-1.98618e+00  6.57345e+01        00000 
-3.07264e+00  6.60588e+01        00000 
-2.06143e+00  6.57493e+01        00000 
-5.17355e+00  6.70187e+01        00000 
 9.49567e+00  7.12845e+01        00000 
 8.41965e+00  6.99175e+01        00000 
 6.16398e+00  6.77746e+01        00000 
 7.15322e+00  6.88464e+01        00000 
 8.28056e+00  6.97866e+01        00000 
 6.93190e+00  6.82842e+01        00000 
 5.45470e+00  6.72112e+01        00000 
 4.60748e+00  6.67717e+01        00000 
 3.78578e+00  6.63872e+01        00000 
-3.81060e+00  6.63305e+01        00000 
-6.17041e+00  6.77442e+01        00000 
-4.61702e+00  6.67331e+01        00000 
-5.45513e+00  6.71852e+01        00000 
-7.16283e+00  6.88316e+01        00000 
-6.94349e+00  6.82614e+01        00000 
-8.27019e+00  6.97988e+01        00000 
-9.53222e+00  7.12392e+01        00000 
-8.40780e+00  6.99330e+01        00000 
 1.02309e+01  7.21546e+01        00000 
 1.18211e+01  7.52647e+01        00000 
 1.10971e+01  7.38064e+01        00000 
 9.81510e+00  7.16224e+01        00000 
-1.02653e+01  7.21022e+01        00000 
-9.85158e+00  7.15747e+01        00000 
-1.18384e+01  7.51978e+01        00000 
-1.11641e+01  7.37028e+01        00000 
 1.29946e+01  7.73165e+01        00000 
 1.43448e+01  8.18498e+01        00000 
 1.36397e+01  7.92614e+01        00000 
 1.24356e+01  7.62514e+01        00000 
-1.30092e+01  7.72383e+01        00000 
-1.24555e+01  7.61755e+01        00000 
-1.43614e+01  8.17233e+01        00000 
-1.37157e+01  7.91111e+01        00000 
 1.51715e+01  8.36325e+01        00000 
 1.62368e+01  8.72501e+01        00000 
 1.48229e+01  8.28533e+01        00000 
-1.51794e+01  8.34932e+01        00000 
-1.48341e+01  8.27185e+01        00000 
-1.61260e+01  8.71782e+01        00000 
 1.72214e+01  9.11154e+01        00000 
 1.74192e+01  9.65855e+01        00000 
 1.63479e+01  8.76967e+01        00000 
 1.65530e+01  9.28471e+01        00000 
-1.71973e+01  9.09731e+01        00000 
-1.74372e+01  9.64148e+01        00000 
-1.62454e+01  8.76196e+01        00000 
-1.65528e+01  9.26949e+01        00000 
 1.84157e+01  1.01586e+02        00000 
 1.80688e+01  1.00126e+02        00000 
 1.89580e+01  1.04601e+02        00000 
-1.84312e+01  1.01389e+02        00000 
-1.80830e+01  9.99371e+01        00000 
-1.90087e+01  1.04349e+02        00000 
 1.99232e+01  1.13751e+02        00000 
 2.05283e+01  1.20277e+02        00000 
 1.93508e+01  1.09182e+02        00000 
-2.00262e+01  1.13331e+02        00000 
-1.94700e+01  1.08842e+02        00000 
-2.03877e+01  1.19924e+02        00000 
 2.08038e+01  1.27730e+02        00000 
 2.05897e+01  1.20797e+02        00000 
 2.10212e+01  1.33954e+02        00000 
-2.06761e+01  1.27361e+02        00000 
-2.04481e+01  1.20445e+02        00000 
-2.09257e+01  1.33551e+02        00000 
 2.10384e+01  1.42540e+02        00000 
 2.10727e+01  1.36289e+02        00000 
 2.10833e+01  1.49584e+02        00000 
-2.10038e+01  1.42095e+02        00000 
-2.09781e+01  1.35875e+02        00000 
-2.10488e+01  1.49088e+02        00000 
 2.09238e+01  1.56907e+02        00000 
 2.10459e+01  1.50116e+02        00000 
 2.04776e+01  1.61589e+02        00000 
-2.05503e+01  1.56295e+02        00000 
-2.00742e+01  1.61040e+02        00000 
-2.10101e+01  1.49615e+02        00000 
 1.93966e+01  1.69526e+02        00000 
 1.82561e+01  1.75027e+02        00000 
 1.99729e+01  1.66357e+02        00000 
 1.90469e+01  1.71113e+02        00000 
-1.91109e+01  1.69083e+02        00000 
-1.79591e+01  1.74600e+02        00000 
-1.96435e+01  1.65872e+02        00000 
-1.87617e+01  1.70674e+02        00000 
 1.76405e+01  1.81043e+02        00000 
 1.72151e+01  1.79157e+02        00000 
 1.62522e+01  1.85137e+02        00000 
-1.73612e+01  1.80633e+02        00000 
-1.69285e+01  1.78741e+02        00000 
-1.60285e+01  1.84794e+02        00000 
 1.44288e+01  1.90222e+02        00000 
 1.60778e+01  1.85676e+02        00000 
 1.31352e+01  1.92627e+02        00000 
 1.39121e+01  1.91259e+02        00000 
-1.40826e+01  1.89835e+02        00000 
-1.27689e+01  1.92262e+02        00000 
-1.35583e+01  1.90881e+02        00000 
-1.58596e+01  1.85338e+02        00000 
 1.01347e+01  1.98712e+02        00000 
 1.16244e+01  1.96095e+02        00000 
 7.83221e+00  2.01881e+02        00000 
 9.04157e+00  2.00336e+02        00000 
-9.72402e+00  1.98410e+02        00000 
-7.39013e+00  2.01607e+02        00000 
-8.61175e+00  2.00044e+02        00000 
-1.11829e+01  1.95719e+02        00000 
 4.50097e+00  2.06810e+02        00000 
 6.35728e+00  2.04198e+02        00000 
 3.04875e+00  2.08274e+02        00000 
 3.67241e+00  2.07701e+02        00000 
-9.53798e-01  2.12618e+02        00000 
 1.53119e+00  2.12466e+02        00000 
-3.98562e+00  2.06574e+02        00000 
-2.50941e+00  2.08058e+02        00000 
-3.14247e+00  2.07477e+02        00000 
-5.83673e+00  2.03889e+02        00000 
 1.10718e+00  2.10592e+02        00000 
-1.61215e+00  2.14953e+02        00000 
 8.81823e-01  2.10841e+02        00000 
-9.90750e-01  2.14048e+02        00000 
-2.37426e+00  2.16148e+02        00000 
-2.19485e+00  2.15935e+02        00000 
-2.49359e+00  2.16591e+02        00000 
-2.36656e+00  2.17825e+02        00000 
-2.53542e+00  2.17437e+02        00000 
-7.64628e-01  2.18746e+02        00000 
 1.51289e+00  2.18792e+02        00000 
 3.21834e+00  2.17576e+02        00000 
 3.31071e+00  2.17163e+02        00000 
 2.22271e+00  2.14777e+02        00000 
 3.01496e+00  2.15984e+02        00000 
 3.18654e+00  2.16387e+02        00000 
 2.82654e+00  2.15771e+02        00000 
 1.57899e+00  2.13883e+02        00000 
-3.79661e-01  2.10749e+02        00000 
-6.11727e-01  2.10505e+02        00000 
-1.80307e+00  2.18364e+02        00000 
-1.74037e+00  2.18370e+02        00000 
 1.81057e-01  2.18918e+02        00000 
 5.69422e-01  2.18919e+02        00000 
 2.50390e+00  2.18422e+02        00000 
 2.56964e+00  2.18415e+02        00000 </DataArray>
         </PointData>
         <CellData/>
      </Piece>
   </UnstructuredGrid>
</VTKFile>