<?xml version="1.0" encoding="utf-8"?>
<VTKFile byte_order="LittleEndian" type="UnstructuredGrid" version="0.1">
   <UnstructuredGrid>
      <Piece NumberOfCells="3360" NumberOfPoints="1804">
         <Points>
            <DataArray Name="Points" NumberOfComponents="3" format="ascii" type="Float32">
-1.0000 -0.8947 0.0000
-1.0000 -0.7895 0.0000
-1.0000 -0.6842 0.0000
-1.0000 -0.5789 0.0000
-1.0000 -0.4737 0.0000
-1.0000 -0.3684 0.0000
-1.0000 -0.2632 0.0000
-1.0000 -0.1579 0.0000
-1.0000 -0.0526 0.0000
-1.0000 0.0526 0.0000
-1.0000 0.1579 0.0000
-1.0000 0.2632 0.0000
-1.0000 0.3684 0.0000
-1.0000 0.4737 0.0000
-1.0000 0.5789 0.0000
-1.0000 0.6842 0.0000
-1.0000 0.7895 0.0000
-1.0000 0.8947 0.0000
-1.0000 1.0000 0.0000
-0.8947 -0.8947 0.0000
-0.8947 -0.7895 0.0000
-0.8947 -0.6842 0.0000
-0.8947 -0.5789 0.0000
-0.8947 -0.4737 0.0000
-0.8947 -0.3684 0.0000
-0.8947 -0.2632 0.0000
-0.8947 -0.1579 0.0000
-0.8947 -0.0526 0.0000
-0.8947 0.0526 0.0000
-0.8947 0.1579 0.0000
-0.8947 0.2632 0.0000
-0.8947 0.3684 0.0000
-0.8947 0.4737 0.0000
-0.8947 0.5789 0.0000
-0.8947 0.6842 0.0000
-0.8947 0.7895 0.0000
-0.8947 0.8947 0.0000
-0.8947 1.0000 0.0000
-0.7895 -0.8947 0.0000
-0.7895 -0.7895 0.0000
-0.7895 -0.6842 0.0000
-0.7895 -0.5789 0.0000
-0.7895 -0.4737 0.0000
-0.7895 -0.3684 0.0000
-0.7895 -0.2632 0.0000
-0.7895 -0.1579 0.0000
-0.7895 -0.0526 0.0000
-0.7895 0.0526 0.0000
-0.7895 0.1579 0.0000
-0.7895 0.2632 0.0000
-0.7895 0.3684 0.0000
-0.7895 0.4737 0.0000
-0.7895 0.5789 0.0000
-0.7895 0.6842 0.0000
-0.7895 0.7895 0.0000
-0.7895 0.8947 0.0000
-0.7895 1.0000 0.0000
-0.6842 -0.8947 0.0000
-0.6842 -0.7895 0.0000
-0.6842 -0.6842 0.0000
-0.6842 -0.5789 0.0000
-0.6842 -0.4737 0.0000
-0.6842 -0.3684 0.0000
-0.6842 -0.2632 0.0000
-0.6842 -0.1579 0.0000
-0.6842 -0.0526 0.0000
-0.6842 0.0526 0.0000
-0.6842 0.1579 0.0000
-0.6842 0.2632 0.0000
-0.6842 0.3684 0.0000
-0.6842 0.4737 0.0000
-0.6842 0.5789 0.0000
-0.6842 0.6842 0.0000
-0.6842 0.7895 0.0000
-0.6842 0.8947 0.0000
-0.6842 1.0000 0.0000
-0.5789 -0.8947 0.0000
-0.5789 -0.7895 0.0000
-0.5789 -0.6842 0.0000
-0.5789 -0.5789 0.0000
-0.5789 -0.4737 0.0000
-0.5789 -0.3684 0.0000
-0.5789 -0.2632 0.0000
-0.5789 -0.1579 0.0000
-0.5789 -0.0526 0.0000
-0.5789 0.0526 0.0000
-0.5789 0.1579 0.0000
-0.5789 0.2632 0.0000
-0.5789 0.3684 0.0000
-0.5789 0.4737 0.0000
-0.5789 0.5789 0.0000
-0.5789 0.6842 0.0000
-0.5789 0.7895 0.0000
-0.5789 0.8947 0.0000
-0.5789 1.0000 0.0000
-0.4737 -0.8947 0.0000
-0.4737 -0.7895 0.0000
-0.4737 -0.6842 0.0000
-0.4737 -0.5789 0.0000
-0.4737 -0.4737 0.0000
-0.4737 -0.3684 0.0000
-0.4737 -0.2632 0.0000
-0.4737 -0.1579 0.0000
-0.4737 -0.0526 0.0000
-0.4737 0.0526 0.0000
-0.4737 0.1579 0.0000
-0.4737 0.2632 0.0000
-0.4737 0.3684 0.0000
-0.4737 0.4737 0.0000
-0.4737 0.5789 0.0000
-0.4737 0.6842 0.0000
-0.4737 0.7895 0.0000
-0.4737 0.8947 0.0000
-0.4737 1.0000 0.0000
-0.3684 -0.8947 0.0000
-0.3684 -0.7895 0.0000
-0.3684 -0.6842 0.0000
-0.3684 -0.5789 0.0000
-0.3684 -0.4737 0.0000
-0.3684 -0.3684 0.0000
-0.3684 -0.2632 0.0000
-0.3684 -0.1579 0.0000
-0.3684 -0.0526 0.0000
-0.3684 0.0526 0.0000
-0.3684 0.1579 0.0000
-0.3684 0.2632 0.0000
-0.3684 0.3684 0.0000
-0.3684 0.4737 0.0000
-0.3684 0.5789 0.0000
-0.3684 0.6842 0.0000
-0.3684 0.7895 0.0000
-0.3684 0.8947 0.0000
-0.3684 1.0000 0.0000
-0.2632 -0.8947 0.0000
-0.2632 -0.7895 0.0000
-0.2632 -0.6842 0.0000
-0.2632 -0.5789 0.0000
-0.2632 -0.4737 0.0000
-0.2632 -0.3684 0.0000
-0.2632 -0.2632 0.0000
-0.2632 -0.1579 0.0000
-0.2632 -0.0526 0.0000
-0.2632 0.0526 0.0000
-0.2632 0.1579 0.0000
-0.2632 0.2632 0.0000
-0.2632 0.3684 0.0000
-0.2632 0.4737 0.0000
-0.2632 0.5789 0.0000
-0.2632 0.6842 0.0000
-0.2632 0.7895 0.0000
-0.2632 0.8947 0.0000
-0.2632 1.0000 0.0000
-0.1579 -0.8947 0.0000
-0.1579 -0.7895 0.0000
-0.1579 -0.6842 0.0000
-0.1579 -0.5789 0.0000
-0.1579 -0.4737 0.0000
-0.1579 -0.3684 0.0000
-0.1579 -0.2632 0.0000
-0.1579 -0.1579 0.0000
-0.1579 -0.0526 0.0000
-0.1579 0.1579 0.0000
-0.1579 0.2632 0.0000
-0.1579 0.3684 0.0000
-0.1579 0.4737 0.0000
-0.1579 0.5789 0.0000
-0.1579 0.6842 0.0000
-0.1579 0.7895 0.0000
-0.1579 0.8947 0.0000
-0.1579 1.0000 0.0000
-0.0526 -0.8947 0.0000
-0.0526 -0.7895 0.0000
-0.0526 -0.6842 0.0000
-0.0526 -0.5789 0.0000
-0.0526 -0.4737 0.0000
-0.0526 -0.3684 0.0000
-0.0526 -0.2632 0.0000
-0.0526 -0.1579 0.0000
-0.0526 0.2632 0.0000
-0.0526 0.3684 0.0000
-0.0526 0.4737 0.0000
-0.0526 0.5789 0.0000
-0.0526 0.6842 0.0000
-0.0526 0.7895 0.0000
-0.0526 0.8947 0.0000
-0.0526 1.0000 0.0000
0.0526 -0.8947 0.0000
0.0526 -0.7895 0.0000
0.0526 -0.6842 0.0000
0.0526 -0.5789 0.0000
0.0526 -0.4737 0.0000
0.0526 -0.3684 0.0000
0.0526 -0.2632 0.0000
0.0526 -0.1579 0.0000
0.0526 0.2632 0.0000
0.0526 0.3684 0.0000
0.0526 0.4737 0.0000
0.0526 0.5789 0.0000
0.0526 0.6842 0.0000
0.0526 0.7895 0.0000
0.0526 0.8947 0.0000
0.0526 1.0000 0.0000
0.1579 -0.8947 0.0000
0.1579 -0.7895 0.0000
0.1579 -0.6842 0.0000
0.1579 -0.5789 0.0000
0.1579 -0.4737 0.0000
0.1579 -0.3684 0.0000
0.1579 -0.2632 0.0000
0.1579 -0.1579 0.0000
0.1579 -0.0526 0.0000
0.1579 0.0526 0.0000
0.1579 0.1579 0.0000
0.1579 0.2632 0.0000
0.1579 0.3684 0.0000
0.1579 0.4737 0.0000
0.1579 0.5789 0.0000
0.1579 0.6842 0.0000
0.1579 0.7895 0.0000
0.1579 0.8947 0.0000
0.1579 1.0000 0.0000
0.2632 -0.8947 0.0000
0.2632 -0.7895 0.0000
0.2632 -0.6842 0.0000
0.2632 -0.5789 0.0000
0.2632 -0.4737 0.0000
0.2632 -0.3684 0.0000
0.2632 -0.2632 0.0000
0.2632 -0.1579 0.0000
0.2632 -0.0526 0.0000
0.2632 0.0526 0.0000
0.2632 0.1579 0.0000
0.2632 0.2632 0.0000
0.2632 0.3684 0.0000
0.2632 0.4737 0.0000
0.2632 0.5789 0.0000
0.2632 0.6842 0.0000
0.2632 0.7895 0.0000
0.2632 0.8947 0.0000
0.2632 1.0000 0.0000
0.3684 -0.8947 0.0000
0.3684 -0.7895 0.0000
0.3684 -0.6842 0.0000
0.3684 -0.5789 0.0000
0.3684 -0.4737 0.0000
0.3684 -0.3684 0.0000
0.3684 -0.2632 0.0000
0.3684 -0.1579 0.0000
0.3684 -0.0526 0.0000
0.3684 0.0526 0.0000
0.3684 0.1579 0.0000
0.3684 0.2632 0.0000
0.3684 0.3684 0.0000
0.3684 0.4737 0.0000
0.3684 0.5789 0.0000
0.3684 0.6842 0.0000
0.3684 0.7895 0.0000
0.3684 0.8947 0.0000
0.3684 1.0000 0.0000
0.4737 -0.8947 0.0000
0.4737 -0.7895 0.0000
0.4737 -0.6842 0.0000
0.4737 -0.5789 0.0000
0.4737 -0.4737 0.0000
0.4737 -0.3684 0.0000
0.4737 -0.2632 0.0000
0.4737 -0.1579 0.0000
0.4737 -0.0526 0.0000
0.4737 0.0526 0.0000
0.4737 0.1579 0.0000
0.4737 0.2632 0.0000
0.4737 0.3684 0.0000
0.4737 0.4737 0.0000
0.4737 0.5789 0.0000
0.4737 0.6842 0.0000
0.4737 0.7895 0.0000
0.4737 0.8947 0.0000
0.4737 1.0000 0.0000
0.5789 -0.8947 0.0000
0.5789 -0.7895 0.0000
0.5789 -0.6842 0.0000
0.5789 -0.5789 0.0000
0.5789 -0.4737 0.0000
0.5789 -0.3684 0.0000
0.5789 -0.2632 0.0000
0.5789 -0.1579 0.0000
0.5789 -0.0526 0.0000
0.5789 0.0526 0.0000
0.5789 0.1579 0.0000
0.5789 0.2632 0.0000
0.5789 0.3684 0.0000
0.5789 0.4737 0.0000
0.5789 0.5789 0.0000
0.5789 0.6842 0.0000
0.5789 0.7895 0.0000
0.5789 0.8947 0.0000
0.5789 1.0000 0.0000
0.6842 -0.8947 0.0000
0.6842 -0.7895 0.0000
0.6842 -0.6842 0.0000
0.6842 -0.5789 0.0000
0.6842 -0.4737 0.0000
0.6842 -0.3684 0.0000
0.6842 -0.2632 0.0000
0.6842 -0.1579 0.0000
0.6842 -0.0526 0.0000
0.6842 0.0526 0.0000
0.6842 0.1579 0.0000
0.6842 0.2632 0.0000
0.6842 0.3684 0.0000
0.6842 0.4737 0.0000
0.6842 0.5789 0.0000
0.6842 0.6842 0.0000
0.6842 0.7895 0.0000
0.6842 0.8947 0.0000
0.6842 1.0000 0.0000
0.7895 -0.8947 0.0000
0.7895 -0.7895 0.0000
0.7895 -0.6842 0.0000
0.7895 -0.5789 0.0000
0.7895 -0.4737 0.0000
0.7895 -0.3684 0.0000
0.7895 -0.2632 0.0000
0.7895 -0.1579 0.0000
0.7895 -0.0526 0.0000
0.7895 0.0526 0.0000
0.7895 0.1579 0.0000
0.7895 0.2632 0.0000
0.7895 0.3684 0.0000
0.7895 0.4737 0.0000
0.7895 0.5789 0.0000
0.7895 0.6842 0.0000
0.7895 0.7895 0.0000
0.7895 0.8947 0.0000
0.7895 1.0000 0.0000
0.8947 -0.8947 0.0000
0.8947 -0.7895 0.0000
0.8947 -0.6842 0.0000
0.8947 -0.5789 0.0000
0.8947 -0.4737 0.0000
0.8947 -0.3684 0.0000
0.8947 -0.2632 0.0000
0.8947 -0.1579 0.0000
0.8947 -0.0526 0.0000
0.8947 0.0526 0.0000
0.8947 0.1579 0.0000
0.8947 0.2632 0.0000
0.8947 0.3684 0.0000
0.8947 0.4737 0.0000
0.8947 0.5789 0.0000
0.8947 0.6842 0.0000
0.8947 0.7895 0.0000
0.8947 0.8947 0.0000
0.8947 1.0000 0.0000
-0.1579 0.0526 0.0000
-0.0526 0.1579 0.0000
1.0000 -0.8947 0.0000
1.0000 -0.7895 0.0000
1.0000 -0.6842 0.0000
1.0000 -0.5789 0.0000
1.0000 -0.4737 0.0000
1.0000 -0.3684 0.0000
1.0000 -0.2632 0.0000
1.0000 -0.1579 0.0000
1.0000 -0.0526 0.0000
1.0000 0.0526 0.0000
1.0000 0.1579 0.0000
1.0000 0.2632 0.0000
1.0000 0.3684 0.0000
1.0000 0.4737 0.0000
1.0000 0.5789 0.0000
1.0000 0.6842 0.0000
1.0000 0.7895 0.0000
1.0000 0.8947 0.0000
1.0000 1.0000 0.0000
-0.8947 -1.0000 0.0000
-0.7895 -1.0000 0.0000
-0.6842 -1.0000 0.0000
-0.5789 -1.0000 0.0000
-0.4737 -1.0000 0.0000
-0.3684 -1.0000 0.0000
-0.2632 -1.0000 0.0000
-0.1579 -1.0000 0.0000
-0.0526 -1.0000 0.0000
0.0526 -1.0000 0.0000
0.0526 0.1579 0.0000
0.1579 -1.0000 0.0000
0.2632 -1.0000 0.0000
0.3684 -1.0000 0.0000
0.4737 -1.0000 0.0000
0.5789 -1.0000 0.0000
0.6842 -1.0000 0.0000
0.7895 -1.0000 0.0000
0.8947 -1.0000 0.0000
1.0000 -1.0000 0.0000
-1.0000 -1.0000 0.0000
1.1053 -0.8947 0.0000
1.1053 -0.7895 0.0000
1.1053 -0.6842 0.0000
1.1053 -0.5789 0.0000
1.1053 -0.4737 0.0000
1.1053 -0.3684 0.0000
1.1053 -0.2632 0.0000
1.1053 -0.1579 0.0000
1.1053 -0.0526 0.0000
1.1053 0.0526 0.0000
1.1053 0.1579 0.0000
1.1053 0.2632 0.0000
1.1053 0.3684 0.0000
1.1053 0.4737 0.0000
1.1053 0.5789 0.0000
1.1053 0.6842 0.0000
1.1053 0.7895 0.0000
1.1053 0.8947 0.0000
1.1053 1.0000 0.0000
1.2105 -0.8947 0.0000
1.2105 -0.7895 0.0000
1.2105 -0.6842 0.0000
1.2105 -0.5789 0.0000
1.2105 -0.4737 0.0000
1.2105 -0.3684 0.0000
1.2105 -0.2632 0.0000
1.2105 -0.1579 0.0000
1.2105 -0.0526 0.0000
1.2105 0.0526 0.0000
1.2105 0.1579 0.0000
1.2105 0.2632 0.0000
1.2105 0.3684 0.0000
1.2105 0.4737 0.0000
1.2105 0.5789 0.0000
1.2105 0.6842 0.0000
1.2105 0.7895 0.0000
1.2105 0.8947 0.0000
1.2105 1.0000 0.0000
1.3158 -0.8947 0.0000
1.3158 -0.7895 0.0000
1.3158 -0.6842 0.0000
1.3158 -0.5789 0.0000
1.3158 -0.4737 0.0000
1.3158 -0.3684 0.0000
1.3158 -0.2632 0.0000
[...]
         <PointData>
            <DataArray Name="fValues" NumberOfComponents="3" format="ascii" type="Float64">
 1.61600e-16  4.46615e-17        00000 
-7.01260e-17 -3.77601e-17        00000 
 4.50245e-17  1.21239e-17        00000 
-5.93374e-17 -1.34858e-17        00000 
 1.94855e-17 -7.62474e-19        00000 
 8.09146e-18  2.02286e-18        00000 
 3.40094e-19  6.46179e-18        00000 
       00000  2.69715e-18        00000 
 8.55666e-18  8.21778e-18        00000 
-4.04573e-18 -6.74288e-18        00000 
 8.16231e-18  1.49642e-17        00000 
-1.34858e-17 -6.06859e-18        00000 
-2.32978e-17  1.02934e-17        00000 
-3.23658e-17        00000        00000 
-5.57555e-17  1.87800e-17        00000 
 9.17032e-17 -1.34858e-17        00000 
-7.67292e-17 -4.75313e-18        00000 
-2.99232e-17  5.44057e-18        00000 
 7.48079e-18 -8.69921e-17        00000 
 7.87962e-01  4.44350e-01        00000 
 6.47322e-01  3.00955e-01        00000 
 5.37381e-01  2.15677e-01        00000 
 4.42463e-01  1.59019e-01        00000 
 3.54906e-01  1.19966e-01        00000 
 2.71917e-01  9.30424e-02        00000 
 1.92033e-01  7.51341e-02        00000 
 1.14316e-01  6.42603e-02        00000 
 3.79383e-02  5.91510e-02        00000 
-3.79769e-02  5.91587e-02        00000 
-1.14347e-01  6.42806e-02        00000 
-1.92051e-01  7.51603e-02        00000 
-2.71923e-01  9.30669e-02        00000 
-3.54901e-01  1.19983e-01        00000 
-4.42451e-01  1.59027e-01        00000 
-5.37364e-01  2.15676e-01        00000 
-6.47302e-01  3.00947e-01        00000 
-7.87937e-01  4.44336e-01        00000 
-1.14009e+00  7.43575e-01        00000 
 1.65220e+00  9.52463e-01        00000 
 1.34569e+00  7.24330e-01        00000 
 1.11367e+00  5.68418e-01        00000 
 9.12955e-01  4.59256e-01        00000 
 7.29850e-01  3.81911e-01        00000 
 5.57656e-01  3.27675e-01        00000 
 3.92955e-01  2.91168e-01        00000 
 2.33536e-01  2.68822e-01        00000 
 7.74298e-02  2.58273e-01        00000 
-7.75187e-02  2.58287e-01        00000 
-2.33604e-01  2.68856e-01        00000 
-3.92992e-01  2.91211e-01        00000 
-5.57662e-01  3.27712e-01        00000 
-7.29833e-01  3.81933e-01        00000 
-9.12923e-01  4.59260e-01        00000 
-1.11363e+00  5.68405e-01        00000 
-1.34565e+00  7.24304e-01        00000 
-1.65215e+00  9.52427e-01        00000 
-2.08392e+00  1.23278e+00        00000 
 2.48053e+00  1.45457e+00        00000 
 2.06485e+00  1.21271e+00        00000 
 1.71340e+00  1.01975e+00        00000 
 1.40428e+00  8.74092e-01        00000 
 1.12107e+00  7.66267e-01        00000 
 8.55113e-01  6.88644e-01        00000 
 6.01466e-01  6.35610e-01        00000 
 3.56869e-01  6.02949e-01        00000 
 1.18195e-01  5.87525e-01        00000 
-1.18350e-01  5.87545e-01        00000 
-3.56982e-01  6.03000e-01        00000 
-6.01519e-01  6.35668e-01        00000 
-8.55110e-01  6.88686e-01        00000 
-1.12103e+00  7.66282e-01        00000 
-1.40422e+00  8.74078e-01        00000 
-1.71333e+00  1.01972e+00        00000 
-2.06479e+00  1.21266e+00        00000 
-2.48045e+00  1.45450e+00        00000 
-2.96962e+00  1.73351e+00        00000 
 3.28018e+00  2.00180e+00        00000 
 2.77418e+00  1.75783e+00        00000 
 2.31932e+00  1.55185e+00        00000 
 1.90579e+00  1.38598e+00        00000 
 1.52227e+00  1.25765e+00        00000 
 1.16032e+00  1.16254e+00        00000 
 8.14857e-01  1.09658e+00        00000 
 4.82522e-01  1.05591e+00        00000 
 1.59565e-01  1.03686e+00        00000 
-1.59812e-01  1.03689e+00        00000 
-4.82689e-01  1.05599e+00        00000 
-8.14915e-01  1.09665e+00        00000 
-1.16029e+00  1.16258e+00        00000 
-1.52219e+00  1.25765e+00        00000 
-1.90569e+00  1.38593e+00        00000 
-2.31922e+00  1.55177e+00        00000 
-2.77409e+00  1.75774e+00        00000 
-3.28009e+00  2.00170e+00        00000 
-3.83525e+00  2.27549e+00        00000 
 4.05892e+00  2.61362e+00        00000 
 3.46842e+00  2.37200e+00        00000 
 2.91979e+00  2.16226e+00        00000 
 2.40858e+00  1.98700e+00        00000 
 1.92727e+00  1.84633e+00        00000 
 1.46906e+00  1.73907e+00        00000 
 1.02981e+00  1.66368e+00        00000 
 6.07839e-01  1.61766e+00        00000 
 2.00394e-01  1.59674e+00        00000 
-2.00788e-01  1.59680e+00        00000 
-6.08065e-01  1.61777e+00        00000 
-1.02985e+00  1.66377e+00        00000 
-1.46897e+00  1.73909e+00        00000 
-1.92713e+00  1.84628e+00        00000 
-2.40844e+00  1.98691e+00        00000 
-2.91967e+00  2.16214e+00        00000 
-3.46831e+00  2.37187e+00        00000 
-4.05882e+00  2.61349e+00        00000 
-4.68802e+00  2.88295e+00        00000 
 4.82094e+00  3.30149e+00        00000 
 4.14745e+00  3.06345e+00        00000 
 3.51048e+00  2.85417e+00        00000 
 2.90716e+00  2.67534e+00        00000 
 2.33187e+00  2.52768e+00        00000 
 1.77848e+00  2.41153e+00        00000 
 1.24356e+00  2.32826e+00        00000 
 7.29211e-01  2.27865e+00        00000 
 2.38539e-01  2.25816e+00        00000 
-2.39190e-01  2.25822e+00        00000 
-7.29483e-01  2.27887e+00        00000 
-1.24350e+00  2.32832e+00        00000 
-1.77830e+00  2.41150e+00        00000 
-2.33165e+00  2.52756e+00        00000 
-2.90697e+00  2.67518e+00        00000 
-3.51033e+00  2.85400e+00        00000 
-4.14733e+00  3.06328e+00        00000 
-4.82084e+00  3.30132e+00        00000 
-5.52918e+00  3.56643e+00        00000 
 5.56791e+00  4.07097e+00        00000 
 4.81193e+00  3.83722e+00        00000 
 4.08978e+00  3.63057e+00        00000 
 3.39867e+00  3.45177e+00        00000 
 2.73367e+00  3.30101e+00        00000 
 2.08835e+00  3.17808e+00        00000 
 1.45640e+00  3.08450e+00        00000 
 8.42328e-01  3.02845e+00        00000 
 2.68344e-01  3.01065e+00        00000 
-2.69561e-01  3.01118e+00        00000 
-8.42386e-01  3.02848e+00        00000 
-1.45622e+00  3.08460e+00        00000 
-2.08797e+00  3.17792e+00        00000 
-2.73337e+00  3.30077e+00        00000 
-3.39846e+00  3.45154e+00        00000 
-4.08962e+00  3.63036e+00        00000 
-4.81181e+00  3.83702e+00        00000 
-5.56781e+00  4.07079e+00        00000 
-6.35787e+00  4.33133e+00        00000 
 6.30015e+00  4.92437e+00        00000 
 5.46217e+00  4.69543e+00        00000 
 4.65685e+00  4.49296e+00        00000 
 3.88113e+00  4.31711e+00        00000 
 3.13043e+00  4.16754e+00        00000 
 2.39839e+00  4.04268e+00        00000 
 1.67553e+00  3.93919e+00        00000 
 9.49996e-01  3.85869e+00        00000 
 2.73531e-01  3.83090e+00        00000 
-9.50119e-01  3.86002e+00        00000 
-1.67465e+00  3.93896e+00        00000 
-2.39786e+00  4.04221e+00        00000 
-3.13012e+00  4.16719e+00        00000 
-3.88092e+00  4.31684e+00        00000 
-4.65670e+00  4.49273e+00        00000 
-5.46206e+00  4.69523e+00        00000 
-6.30007e+00  4.92418e+00        00000 
-7.17263e+00  5.17978e+00        00000 
 7.01744e+00  5.86167e+00        00000 
 6.09812e+00  5.63799e+00        00000 
 5.21097e+00  5.44080e+00        00000 
 4.35259e+00  5.27031e+00        00000 
 3.51870e+00  5.12654e+00        00000 
 2.70373e+00  5.00866e+00        00000 
 1.89914e+00  4.91318e+00        00000 
 1.07883e+00  4.82805e+00        00000 
-1.89806e+00  4.91164e+00        00000 
-2.70334e+00  5.00805e+00        00000 
-3.51845e+00  5.12619e+00        00000 
-4.35241e+00  5.27007e+00        00000 
-5.21084e+00  5.44062e+00        00000 
-6.09803e+00  5.63783e+00        00000 
-7.01739e+00  5.86152e+00        00000 
-7.97199e+00  6.11184e+00        00000 
 7.71950e+00  6.88142e+00        00000 
 6.71971e+00  6.66317e+00        00000 
 5.75170e+00  6.47169e+00        00000 
 4.81169e+00  6.30757e+00        00000 
 3.89536e+00  6.17178e+00        00000 
 2.99734e+00  6.06607e+00        00000 
 2.10949e+00  5.99477e+00        00000 
 1.21270e+00  5.96834e+00        00000 
-2.10929e+00  5.99466e+00        00000 
-2.99705e+00  6.06591e+00        00000 
-3.89518e+00  6.17165e+00        00000 
-4.81154e+00  6.30746e+00        00000 
-5.75159e+00  6.47159e+00        00000 
-6.71964e+00  6.66307e+00        00000 
-7.71946e+00  6.88133e+00        00000 
-8.75484e+00  7.12616e+00        00000 
 8.40620e+00  7.98135e+00        00000 
 7.32711e+00  7.76839e+00        00000 
 6.27927e+00  7.58227e+00        00000 
 5.25860e+00  7.42376e+00        00000 
 4.26055e+00  7.29407e+00        00000 
 3.27958e+00  7.19508e+00        00000 
 2.30819e+00  7.12903e+00        00000 
 1.34251e+00  7.09244e+00        00000 
 4.25638e-01  7.07521e+00        00000 
-4.24316e-01  7.07423e+00        00000 
-1.34424e+00  7.09287e+00        00000 
-2.30741e+00  7.12976e+00        00000 
-3.27932e+00  7.19534e+00        00000 
-4.26034e+00  7.29416e+00        00000 
-5.25845e+00  7.42378e+00        00000 
-6.27916e+00  7.58226e+00        00000 
-7.32704e+00  7.76837e+00        00000 
-8.40617e+00  7.98133e+00        00000 
-9.52064e+00  8.22065e+00        00000 
 9.07768e+00  9.15908e+00        00000 
 7.92074e+00  8.95106e+00        00000 
 6.79448e+00  8.76952e+00        00000 
 5.69476e+00  8.61503e+00        00000 
 4.61713e+00  8.48820e+00        00000 
 3.55680e+00  8.38926e+00        00000 
 2.51008e+00  8.31637e+00        00000 
 1.48139e+00  8.26385e+00        00000 
 4.86248e-01  8.23107e+00        00000 
-4.85723e-01  8.23146e+00        00000 
-1.48185e+00  8.26398e+00        00000 
-2.50992e+00  8.31638e+00        00000 
-3.55644e+00  8.38947e+00        00000 
-4.61689e+00  8.48835e+00        00000 
-5.69458e+00  8.61512e+00        00000 
-6.79436e+00  8.76958e+00        00000 
-7.92067e+00  8.95111e+00        00000 
-9.07766e+00  9.15912e+00        00000 
-1.02694e+01  9.39307e+00        00000 
 9.73426e+00  1.04125e+01        00000 
 8.50112e+00  1.02091e+01        00000 
 7.29821e+00  1.00314e+01        00000 
 6.12160e+00  9.87975e+00        00000 
 4.96728e+00  9.75404e+00        00000 
 3.83171e+00  9.65351e+00        00000 
 2.71330e+00  9.57627e+00        00000 
 1.61400e+00  9.52095e+00        00000 
 5.34825e-01  9.49066e+00        00000 
-5.34628e-01  9.49072e+00        00000 
-1.61398e+00  9.52106e+00        00000 
-2.71320e+00  9.57632e+00        00000 
-3.83147e+00  9.65359e+00        00000 
-4.96704e+00  9.75417e+00        00000 
-6.12141e+00  9.87987e+00        00000 
-7.29808e+00  1.00315e+01        00000 
-8.50105e+00  1.02092e+01        00000 
-9.73424e+00  1.04126e+01        00000 
-1.10015e+01  1.06414e+01        00000 
 1.03763e+01  1.17400e+01        00000 
 9.06865e+00  1.15410e+01        00000 
 7.79101e+00  1.13668e+01        00000 
 6.53968e+00  1.12176e+01        00000 
 5.31116e+00  1.10930e+01        00000 
 4.10250e+00  1.09924e+01        00000 
 2.91184e+00  1.09149e+01        00000 
 1.73793e+00  1.08611e+01        00000 
 5.77532e-01  1.08329e+01        00000 
-5.77395e-01  1.08329e+01        00000 
-1.73783e+00  1.08611e+01        00000 
-2.91171e+00  1.09150e+01        00000 
-4.10231e+00  1.09925e+01        00000 
-5.31096e+00  1.10931e+01        00000 
-6.53951e+00  1.12178e+01        00000 
-7.79088e+00  1.13670e+01        00000 
-9.06858e+00  1.15411e+01        00000 
-1.03762e+01  1.17402e+01        00000 
-1.17174e+01  1.19639e+01        00000 
 1.10039e+01  1.31402e+01        00000 
 9.62355e+00  1.29455e+01        00000 
 8.27298e+00  1.27749e+01        00000 
 6.94885e+00  1.26284e+01        00000 
 5.64787e+00  1.25057e+01        00000 
 4.36711e+00  1.24064e+01        00000 
 3.10393e+00  1.23306e+01        00000 
 1.85543e+00  1.22788e+01        00000 
 6.17248e-01  1.22523e+01        00000 
-6.17122e-01  1.22523e+01        00000 
-1.85530e+00  1.22788e+01        00000 
-3.10379e+00  1.23307e+01        00000 
-4.36694e+00  1.24065e+01        00000 
-5.64769e+00  1.25058e+01        00000 
-6.94869e+00  1.26285e+01        00000 
-8.27286e+00  1.27751e+01        00000 
-9.62348e+00  1.29457e+01        00000 
-1.10039e+01  1.31404e+01        00000 
-1.24175e+01  1.33592e+01        00000 
 1.16174e+01  1.46120e+01        00000 
 1.01658e+01  1.44216e+01        00000 
 8.74398e+00  1.42547e+01        00000 
 7.34864e+00  1.41113e+01        00000 
 5.97657e+00  1.39911e+01        00000 
 4.62464e+00  1.38942e+01        00000 
 3.28965e+00  1.38206e+01        00000 
 1.96797e+00  1.37709e+01        00000 
 6.55005e-01  1.37457e+01        00000 
-6.54886e-01  1.37457e+01        00000 
-1.96784e+00  1.37709e+01        00000 
-3.28951e+00  1.38207e+01        00000 
-4.62448e+00  1.38944e+01        00000 
-5.97641e+00  1.39913e+01        00000 
-7.34849e+00  1.41115e+01        00000 
-8.74387e+00  1.42550e+01        00000 
-1.01658e+01  1.44219e+01        00000 
-1.16174e+01  1.46123e+01        00000 
-1.31021e+01  1.48261e+01        00000 
 1.22168e+01  1.61541e+01        00000 
 1.06954e+01  1.59682e+01        00000 
 9.20381e+00  1.58052e+01        00000 
 7.73868e+00  1.56652e+01        00000 
 6.29681e+00  1.55481e+01        00000 
 4.87488e+00  1.54539e+01        00000 
 3.46937e+00  1.53827e+01        00000 
 2.07636e+00  1.53349e+01        00000 
 6.91245e-01  1.53109e+01        00000 
-6.91144e-01  1.53109e+01        00000 
-2.07625e+00  1.53350e+01        00000 
-3.46925e+00  1.53829e+01        00000 
-4.87473e+00  1.54541e+01        00000 
-6.29666e+00  1.55483e+01        00000 
-7.73854e+00  1.56655e+01        00000 
-9.20370e+00  1.58055e+01        00000 
-1.06954e+01  1.59685e+01        00000 
-1.22168e+01  1.61545e+01        00000 
-1.37712e+01  1.63634e+01        00000 
 1.28021e+01  1.77654e+01        00000 
 1.12123e+01  1.75839e+01        00000 
 9.65230e+00  1.74250e+01        00000 
 8.11875e+00  1.72886e+01        00000 
 6.60839e+00  1.71748e+01        00000 
 5.11782e+00  1.70835e+01        00000 
 3.64338e+00  1.70149e+01        00000 
 2.18101e+00  1.69690e+01        00000 
 7.26167e-01  1.69460e+01        00000 
-7.26102e-01  1.69461e+01        00000 
-2.18093e+00  1.69691e+01        00000 
-3.64328e+00  1.70151e+01        00000 
-5.11770e+00  1.70838e+01        00000 
-6.60825e+00  1.71751e+01        00000 
-8.11861e+00  1.72890e+01        00000 
-9.65219e+00  1.74254e+01        00000 
-1.12123e+01  1.75843e+01        00000 
-1.28021e+01  1.77658e+01        00000 
-1.44249e+01  1.79698e+01        00000 
-2.75431e-01  3.82844e+00        00000 
-1.07712e+00  4.82519e+00        00000 
 1.33732e+01  1.94443e+01        00000 
 1.17165e+01  1.92674e+01        00000 
 1.00894e+01  1.91126e+01        00000 
 8.48874e+00  1.89799e+01        00000 
 6.91125e+00  1.88695e+01        00000 
 5.35349e+00  1.87813e+01        00000 
 3.81180e+00  1.87152e+01        00000 
 2.28210e+00  1.86713e+01        00000 
 7.59853e-01  1.86493e+01        00000 
-7.59847e-01  1.86494e+01        00000 
-2.28207e+00  1.86714e+01        00000 
-3.81174e+00  1.87155e+01        00000 
-5.35340e+00  1.87817e+01        00000 
-6.91112e+00  1.88700e+01        00000 
-8.48860e+00  1.89805e+01        00000 
-1.00893e+01  1.91131e+01        00000 
-1.17164e+01  1.92679e+01        00000 
-1.33732e+01  1.94449e+01        00000 
-1.50630e+01  1.96440e+01        00000 
 1.14013e+00  7.43599e-01        00000 
 2.08399e+00  1.23283e+00        00000 
 2.96971e+00  1.73358e+00        00000 
 3.83537e+00  2.27559e+00        00000 
 4.68814e+00  2.88309e+00        00000 
 5.52929e+00  3.56660e+00        00000 
 6.35795e+00  4.33151e+00        00000 
 7.17268e+00  5.17995e+00        00000 
 7.97201e+00  6.11198e+00        00000 
 8.75483e+00  7.12624e+00        00000 
-1.20758e+00  5.96809e+00        00000 
 9.52061e+00  8.22067e+00        00000 
 1.02694e+01  9.39303e+00        00000 
 1.10014e+01  1.06413e+01        00000 
 1.17174e+01  1.19637e+01        00000 
 1.24175e+01  1.33590e+01        00000 
 1.31020e+01  1.48259e+01        00000 
 1.37711e+01  1.63631e+01        00000 
 1.44248e+01  1.79694e+01        00000 
 1.50629e+01  1.96434e+01        00000 
-1.54576e-16 -1.82429e-16        00000 
 1.39302e+01  2.11896e+01        00000 
 1.22078e+01  2.10171e+01        00000 
 1.05150e+01  2.08664e+01        00000 
 8.84861e+00  2.07376e+01        00000 
 7.20533e+00  2.06306e+01        00000 
 5.58187e+00  2.05454e+01        00000 
 3.97464e+00  2.04820e+01        00000 
 2.37964e+00  2.04400e+01        00000 
 7.92309e-01  2.04191e+01        00000 
-7.92392e-01  2.04192e+01        00000 
-2.37970e+00  2.04402e+01        00000 
-3.97465e+00  2.04824e+01        00000 
-5.58182e+00  2.05459e+01        00000 
-7.20523e+00  2.06312e+01        00000 
-8.84846e+00  2.07382e+01        00000 
-1.05149e+01  2.08671e+01        00000 
-1.22077e+01  2.10178e+01        00000 
-1.39302e+01  2.11903e+01        00000 
-1.56856e+01  2.13844e+01        00000 
 1.44732e+01  2.29996e+01        00000 
 1.26865e+01  2.28316e+01        00000 
 1.09293e+01  2.26850e+01        00000 
 9.19839e+00  2.25598e+01        00000 
 7.49063e+00  2.24562e+01        00000 
 5.80287e+00  2.23741e+01        00000 
 4.13176e+00  2.23134e+01        00000 
 2.47350e+00  2.22735e+01        00000 
 8.23472e-01  2.22538e+01        00000 
-8.23683e-01  2.22539e+01        00000 
-2.47367e+00  2.22738e+01        00000 
-4.13186e+00  2.23139e+01        00000 
-5.80287e+00  2.23748e+01        00000 
-7.49055e+00  2.24569e+01        00000 
-9.19824e+00  2.25606e+01        00000 
-1.09291e+01  2.26859e+01        00000 
-1.26863e+01  2.28325e+01        00000 
-1.44731e+01  2.30005e+01        00000 
-1.62927e+01  2.31897e+01        00000 
 1.50021e+01  2.48731e+01        00000 
 1.31525e+01  2.47095e+01        00000 
 1.13323e+01  2.45667e+01        00000 
 9.53820e+00  2.44450e+01        00000 
 7.76716e+00  2.43445e+01        00000 
 6.01632e+00  2.42655e+01        00000 
 4.28283e+00  2.42076e+01        00000 
 2.56331e+00  2.41700e+01        00000 
 8.53179e-01  2.41518e+01        00000 
-8.53573e-01  2.41519e+01        00000 
-2.56364e+00  2.41704e+01        00000 
-4.28305e+00  2.42082e+01        00000 
-6.01641e+00  2.42663e+01        00000 
-7.76712e+00  2.43455e+01        00000 
-9.53804e+00  2.44461e+01        00000 
-1.13321e+01  2.45679e+01        00000 
-1.31523e+01  2.47106e+01        00000 
-1.50019e+01  2.48742e+01        00000 
-1.68844e+01  2.50585e+01        00000 
 1.55170e+01  2.68086e+01        00000 
 1.36060e+01  2.66493e+01        00000 
 1.17243e+01  2.65103e+01        00000 
 9.86828e+00  2.63917e+01        00000 
 8.03507e+00  2.62940e+01        00000 
 6.22209e+00  2.62176e+01        00000 
 4.42731e+00  2.61625e+01        00000 
 2.64838e+00  2.61277e+01        00000 
 8.81096e-01  2.61112e+01        00000 
-8.81744e-01  2.61114e+01        00000 
-2.64893e+00  2.61282e+01        00000 
-4.42768e+00  2.61633e+01        00000 
-6.22228e+00  2.62187e+01        00000 
-8.03506e+00  2.62953e+01        00000 
-9.86811e+00  2.63931e+01        00000 
-1.17239e+01  2.65117e+01        00000 
-1.36057e+01  2.66508e+01        00000 
-1.55167e+01  2.68100e+01        00000 
-1.74605e+01  2.69894e+01        00000 
 1.60179e+01  2.88049e+01        00000 
 1.40472e+01  2.86499e+01        00000 
 1.21054e+01  2.85145e+01        00000 
 1.01890e+01  2.83988e+01        00000 
 8.29475e+00  2.83032e+01        00000 
 6.42023e+00  2.82287e+01        00000 
 4.56448e+00  2.81759e+01        00000 
 2.72742e+00  2.81442e+01        00000 
 9.06495e-01  2.81303e+01        00000 
-9.07500e-01  2.81305e+01        00000 
-2.72825e+00  2.81449e+01        00000 
-4.56506e+00  2.81770e+01        00000 
-6.42055e+00  2.82300e+01        00000 
-8.29481e+00  2.83048e+01        00000 
-1.01888e+01  2.84004e+01        00000 
-1.21050e+01  2.85162e+01        00000 
-1.40467e+01  2.86517e+01        00000 
-1.60174e+01  2.88067e+01        00000 
-1.80211e+01  2.89811e+01        00000 
 1.65048e+01  3.08605e+01        00000 
 1.44760e+01  3.07099e+01        00000 
 1.24759e+01  3.05782e+01        00000 
 1.05008e+01  3.04654e+01        00000 
 8.54702e+00  3.03716e+01        00000 
 6.61160e+00  3.02975e+01        00000 