<?xml version="1.0" encoding="utf-8"?>
<VTKFile byte_order="LittleEndian" type="UnstructuredGrid" version="0.1">
   <UnstructuredGrid>
      <Piece NumberOfCells="21720" NumberOfPoints="11300">
         <Points>
            <DataArray Name="Points" NumberOfComponents="3" format="ascii" type="Float32">
-1.0000 -0.8947 0.0000
-1.0000 -0.7895 0.0000
-1.0000 -0.6842 0.0000
-1.0000 -0.5789 0.0000
-1.0000 -0.4737 0.0000
-1.0000 -0.3684 0.0000
-1.0000 -0.2632 0.0000
-1.0000 -0.1579 0.0000
-1.0000 -0.0526 0.0000
-1.0000 0.0526 0.0000
-1.0000 0.1579 0.0000
-1.0000 0.2632 0.0000
-1.0000 0.3684 0.0000
-1.0000 0.4737 0.0000
-1.0000 0.5789 0.0000
-1.0000 0.6842 0.0000
-1.0000 0.7895 0.0000
-1.0000 0.8947 0.0000
-1.0000 1.0000 0.0000
-0.8947 -0.8947 0.0000
-0.8947 -0.7895 0.0000
-0.8947 -0.6842 0.0000
-0.8947 -0.5789 0.0000
-0.8947 -0.4737 0.0000
-0.8947 -0.3684 0.0000
-0.8947 -0.2632 0.0000
-0.8947 -0.1579 0.0000
-0.8947 -0.0526 0.0000
-0.8947 0.0526 0.0000
-0.8947 0.1579 0.0000
-0.8947 0.2632 0.0000
-0.8947 0.3684 0.0000
-0.8947 0.4737 0.0000
-0.8947 0.5789 0.0000
-0.8947 0.6842 0.0000
-0.8947 0.7895 0.0000
-0.8947 0.8947 0.0000
-0.8947 1.0000 0.0000
-0.7895 -0.8947 0.0000
-0.7895 -0.7895 0.0000
-0.7895 -0.6842 0.0000
-0.7895 -0.5789 0.0000
-0.7895 -0.4737 0.0000
-0.7895 -0.3684 0.0000
-0.7895 -0.2632 0.0000
-0.7895 -0.1579 0.0000
-0.7895 -0.0526 0.0000
-0.7895 0.0526 0.0000
-0.7895 0.1579 0.0000
-0.7895 0.2632 0.0000
-0.7895 0.3684 0.0000
-0.7895 0.4737 0.0000
-0.7895 0.5789 0.0000
-0.7895 0.6842 0.0000
-0.7895 0.7895 0.0000
-0.7895 0.8947 0.0000
-0.7895 1.0000 0.0000
-0.6842 -0.8947 0.0000
-0.6842 -0.7895 0.0000
-0.6842 -0.6842 0.0000
-0.6842 -0.5789 0.0000
-0.6842 -0.4737 0.0000
-0.6842 -0.3684 0.0000
-0.6842 -0.2632 0.0000
-0.6842 -0.1579 0.0000
-0.6842 -0.0526 0.0000
-0.6842 0.0526 0.0000
-0.6842 0.1579 0.0000
-0.6842 0.2632 0.0000
-0.6842 0.3684 0.0000
-0.6842 0.4737 0.0000
-0.6842 0.5789 0.0000
-0.6842 0.6842 0.0000
-0.6842 0.7895 0.0000
-0.6842 0.8947 0.0000
-0.6842 1.0000 0.0000
-0.5789 -0.8947 0.0000
-0.5789 -0.7895 0.0000
-0.5789 -0.6842 0.0000
-0.5789 -0.5789 0.0000
-0.5789 -0.4737 0.0000
-0.5789 -0.3684 0.0000
-0.5789 -0.2632 0.0000
-0.5789 -0.1579 0.0000
-0.5789 -0.0526 0.0000
-0.5789 0.0526 0.0000
-0.5789 0.1579 0.0000
-0.5789 0.2632 0.0000
-0.5789 0.3684 0.0000
-0.5789 0.4737 0.0000
-0.5789 0.5789 0.0000
-0.5789 0.6842 0.0000
-0.5789 0.7895 0.0000
-0.5789 0.8947 0.0000
-0.5789 1.0000 0.0000
-0.4737 -0.8947 0.0000
-0.4737 -0.7895 0.0000
-0.4737 -0.6842 0.0000
-0.4737 -0.5789 0.0000
-0.4737 -0.4737 0.0000
-0.4737 -0.3684 0.0000
-0.4737 -0.2632 0.0000
-0.4737 -0.1579 0.0000
-0.4737 -0.0526 0.0000
-0.4737 0.0526 0.0000
-0.4737 0.1579 0.0000
-0.4737 0.2632 0.0000
-0.4737 0.3684 0.0000
-0.4737 0.4737 0.0000
-0.4737 0.5789 0.0000
-0.4737 0.6842 0.0000
-0.4737 0.7895 0.0000
-0.4737 0.8947 0.0000
-0.4737 1.0000 0.0000
-0.3684 -0.8947 0.0000
-0.3684 -0.7895 0.0000
-0.3684 -0.6842 0.0000
-0.3684 -0.5789 0.0000
-0.3684 -0.4737 0.0000
-0.3684 -0.3684 0.0000
-0.3684 -0.2632 0.0000
-0.3684 -0.1579 0.0000
-0.3684 -0.0526 0.0000
-0.3684 0.0526 0.0000
-0.3684 0.1579 0.0000
-0.3684 0.2632 0.0000
-0.3684 0.3684 0.0000
-0.3684 0.4737 0.0000
-0.3684 0.5789 0.0000
-0.3684 0.6842 0.0000
-0.3684 0.7895 0.0000
-0.3684 0.8947 0.0000
-0.3684 1.0000 0.0000
-0.2632 -0.8947 0.0000
-0.2632 -0.7895 0.0000
-0.2632 -0.6842 0.0000
-0.2632 -0.5789 0.0000
-0.2632 -0.4737 0.0000
-0.2632 -0.3684 0.0000
-0.2632 -0.2632 0.0000
-0.2632 -0.1579 0.0000
-0.2632 -0.0526 0.0000
-0.2632 0.0526 0.0000
-0.2632 0.1579 0.0000
-0.2632 0.2632 0.0000
-0.2632 0.3684 0.0000
-0.2632 0.4737 0.0000
-0.2632 0.5789 0.0000
-0.2632 0.6842 0.0000
-0.2632 0.7895 0.0000
-0.2632 0.8947 0.0000
-0.2632 1.0000 0.0000
-0.1579 -0.8947 0.0000
-0.1579 -0.7895 0.0000
-0.1579 -0.6842 0.0000
-0.1579 -0.5789 0.0000
-0.1579 -0.4737 0.0000
-0.1579 -0.3684 0.0000
-0.1579 -0.2632 0.0000
-0.1579 -0.1579 0.0000
-0.1579 -0.0526 0.0000
-0.1579 0.1579 0.0000
-0.1579 0.2632 0.0000
-0.1579 0.3684 0.0000
-0.1579 0.4737 0.0000
-0.1579 0.5789 0.0000
-0.1579 0.6842 0.0000
-0.1579 0.7895 0.0000
-0.1579 0.8947 0.0000
-0.1579 1.0000 0.0000
-0.0526 -0.8947 0.0000
-0.0526 -0.7895 0.0000
-0.0526 -0.6842 0.0000
-0.0526 -0.5789 0.0000
-0.0526 -0.4737 0.0000
-0.0526 -0.3684 0.0000
-0.0526 -0.2632 0.0000
-0.0526 -0.1579 0.0000
-0.0526 0.2632 0.0000
-0.0526 0.3684 0.0000
-0.0526 0.4737 0.0000
-0.0526 0.5789 0.0000
-0.0526 0.6842 0.0000
-0.0526 0.7895 0.0000
-0.0526 0.8947 0.0000
-0.0526 1.0000 0.0000
0.0526 -0.8947 0.0000
0.0526 -0.7895 0.0000
0.0526 -0.6842 0.0000
0.0526 -0.5789 0.0000
0.0526 -0.4737 0.0000
0.0526 -0.3684 0.0000
0.0526 -0.2632 0.0000
0.0526 -0.1579 0.0000
0.0526 0.2632 0.0000
0.0526 0.3684 0.0000
0.0526 0.4737 0.0000
0.0526 0.5789 0.0000
0.0526 0.6842 0.0000
0.0526 0.7895 0.0000
0.0526 0.8947 0.0000
0.0526 1.0000 0.0000
0.1579 -0.8947 0.0000
0.1579 -0.7895 0.0000
0.1579 -0.6842 0.0000
0.1579 -0.5789 0.0000
0.1579 -0.4737 0.0000
0.1579 -0.3684 0.0000
0.1579 -0.2632 0.0000
0.1579 -0.1579 0.0000
0.1579 -0.0526 0.0000
0.1579 0.0526 0.0000
0.1579 0.1579 0.0000
0.1579 0.2632 0.0000
0.1579 0.3684 0.0000
0.1579 0.4737 0.0000
0.1579 0.5789 0.0000
0.1579 0.6842 0.0000
0.1579 0.7895 0.0000
0.1579 0.8947 0.0000
0.1579 1.0000 0.0000
0.2632 -0.8947 0.0000
0.2632 -0.7895 0.0000
0.2632 -0.6842 0.0000
0.2632 -0.5789 0.0000
0.2632 -0.4737 0.0000
0.2632 -0.3684 0.0000
0.2632 -0.2632 0.0000
0.2632 -0.1579 0.0000
0.2632 -0.0526 0.0000
0.2632 0.0526 0.0000
0.2632 0.1579 0.0000
0.2632 0.2632 0.0000
0.2632 0.3684 0.0000
0.2632 0.4737 0.0000
0.2632 0.5789 0.0000
0.2632 0.6842 0.0000
0.2632 0.7895 0.0000
0.2632 0.8947 0.0000
0.2632 1.0000 0.0000
0.3684 -0.8947 0.0000
0.3684 -0.7895 0.0000
0.3684 -0.6842 0.0000
0.3684 -0.5789 0.0000
0.3684 -0.4737 0.0000
0.3684 -0.3684 0.0000
0.3684 -0.2632 0.0000
0.3684 -0.1579 0.0000
0.3684 -0.0526 0.0000
0.3684 0.0526 0.0000
0.3684 0.1579 0.0000
0.3684 0.2632 0.0000
0.3684 0.3684 0.0000
0.3684 0.4737 0.0000
0.3684 0.5789 0.0000
0.3684 0.6842 0.0000
0.3684 0.7895 0.0000
0.3684 0.8947 0.0000
0.3684 1.0000 0.0000
0.4737 -0.8947 0.0000
0.4737 -0.7895 0.0000
0.4737 -0.6842 0.0000
0.4737 -0.5789 0.0000
0.4737 -0.4737 0.0000
0.4737 -0.3684 0.0000
0.4737 -0.2632 0.0000
0.4737 -0.1579 0.0000
0.4737 -0.0526 0.0000
0.4737 0.0526 0.0000
0.4737 0.1579 0.0000
0.4737 0.2632 0.0000
0.4737 0.3684 0.0000
0.4737 0.4737 0.0000
0.4737 0.5789 0.0000
0.4737 0.6842 0.0000
0.4737 0.7895 0.0000
0.4737 0.8947 0.0000
0.4737 1.0000 0.0000
0.5789 -0.8947 0.0000
0.5789 -0.7895 0.0000
0.5789 -0.6842 0.0000
0.5789 -0.5789 0.0000
0.5789 -0.4737 0.0000
0.5789 -0.3684 0.0000
0.5789 -0.2632 0.0000
0.5789 -0.1579 0.0000
0.5789 -0.0526 0.0000
0.5789 0.0526 0.0000
0.5789 0.1579 0.0000
0.5789 0.2632 0.0000
0.5789 0.3684 0.0000
0.5789 0.4737 0.0000
0.5789 0.5789 0.0000
0.5789 0.6842 0.0000
0.5789 0.7895 0.0000
0.5789 0.8947 0.0000
0.5789 1.0000 0.0000
0.6842 -0.8947 0.0000
0.6842 -0.7895 0.0000
0.6842 -0.6842 0.0000
0.6842 -0.5789 0.0000
0.6842 -0.4737 0.0000
0.6842 -0.3684 0.0000
0.6842 -0.2632 0.0000
0.6842 -0.1579 0.0000
0.6842 -0.0526 0.0000
0.6842 0.0526 0.0000
0.6842 0.1579 0.0000
0.6842 0.2632 0.0000
0.6842 0.3684 0.0000
0.6842 0.4737 0.0000
0.6842 0.5789 0.0000
0.6842 0.6842 0.0000
0.6842 0.7895 0.0000
0.6842 0.8947 0.0000
0.6842 1.0000 0.0000
0.7895 -0.8947 0.0000
0.7895 -0.7895 0.0000
0.7895 -0.6842 0.0000
0.7895 -0.5789 0.0000
0.7895 -0.4737 0.0000
0.7895 -0.3684 0.0000
0.7895 -0.2632 0.0000
0.7895 -0.1579 0.0000
0.7895 -0.0526 0.0000
0.7895 0.0526 0.0000
0.7895 0.1579 0.0000
0.7895 0.2632 0.0000
0.7895 0.3684 0.0000
0.7895 0.4737 0.0000
0.7895 0.5789 0.0000
0.7895 0.6842 0.0000
0.7895 0.7895 0.0000
0.7895 0.8947 0.0000
0.7895 1.0000 0.0000
0.8947 -0.8947 0.0000
0.8947 -0.7895 0.0000
0.8947 -0.6842 0.0000
0.8947 -0.5789 0.0000
0.8947 -0.4737 0.0000
0.8947 -0.3684 0.0000
0.8947 -0.2632 0.0000
0.8947 -0.1579 0.0000
0.8947 -0.0526 0.0000
0.8947 0.0526 0.0000
0.8947 0.1579 0.0000
0.8947 0.2632 0.0000
0.8947 0.3684 0.0000
0.8947 0.4737 0.0000
0.8947 0.5789 0.0000
0.8947 0.6842 0.0000
0.8947 0.7895 0.0000
0.8947 0.8947 0.0000
0.8947 1.0000 0.0000
-0.1579 0.0526 0.0000
-0.0526 0.1579 0.0000
1.0000 -0.8947 0.0000
1.0000 -0.7895 0.0000
1.0000 -0.6842 0.0000
1.0000 -0.5789 0.0000
1.0000 -0.4737 0.0000
1.0000 -0.3684 0.0000
1.0000 -0.2632 0.0000
1.0000 -0.1579 0.0000
1.0000 -0.0526 0.0000
1.0000 0.0526 0.0000
1.0000 0.1579 0.0000
1.0000 0.2632 0.0000
1.0000 0.3684 0.0000
1.0000 0.4737 0.0000
1.0000 0.5789 0.0000
1.0000 0.6842 0.0000
1.0000 0.7895 0.0000
1.0000 0.8947 0.0000
1.0000 1.0000 0.0000
-0.8947 -1.0000 0.0000
-0.7895 -1.0000 0.0000
-0.6842 -1.0000 0.0000
-0.5789 -1.0000 0.0000
-0.4737 -1.0000 0.0000
-0.3684 -1.0000 0.0000
-0.2632 -1.0000 0.0000
-0.1579 -1.0000 0.0000
-0.0526 -1.0000 0.0000
0.0526 -1.0000 0.0000
0.0526 0.1579 0.0000
0.1579 -1.0000 0.0000
0.2632 -1.0000 0.0000
0.3684 -1.0000 0.0000
0.4737 -1.0000 0.0000
0.5789 -1.0000 0.0000
0.6842 -1.0000 0.0000
0.7895 -1.0000 0.0000
0.8947 -1.0000 0.0000
1.0000 -1.0000 0.0000
-1.0000 -1.0000 0.0000
-0.9474 -0.9474 0.0000
-0.9474 -0.8421 0.0000
-0.9474 -0.7368 0.0000
-0.9474 -0.6316 0.0000
-0.9474 -0.5263 0.0000
-0.9474 -0.4211 0.0000
-0.9474 -0.3158 0.0000
-0.9474 -0.2105 0.0000
-0.9474 -0.1053 0.0000
-0.9474 0.0000 0.0000
-0.9474 0.1053 0.0000
-0.9474 0.2105 0.0000
-0.9474 0.3158 0.0000
-0.9474 0.4211 0.0000
-0.9474 0.5263 0.0000
-0.9474 0.6316 0.0000
-0.9474 0.7368 0.0000
-0.9474 0.8421 0.0000
-0.9474 0.9474 0.0000
-0.8421 -0.9474 0.0000
-0.8421 -0.8421 0.0000
-0.8421 -0.7368 0.0000
-0.8421 -0.6316 0.0000
-0.8421 -0.5263 0.0000
-0.8421 -0.4211 0.0000
-0.8421 -0.3158 0.0000
-0.8421 -0.2105 0.0000
-0.8421 -0.1053 0.0000
-0.8421 0.0000 0.0000
-0.8421 0.1053 0.0000
-0.8421 0.2105 0.0000
-0.8421 0.3158 0.0000
-0.8421 0.4211 0.0000
-0.8421 0.5263 0.0000
-0.8421 0.6316 0.0000
-0.8421 0.7368 0.0000
-0.8421 0.8421 0.0000
-0.8421 0.9474 0.0000
-0.7368 -0.9474 0.0000
-0.7368 -0.8421 0.0000
-0.7368 -0.7368 0.0000
-0.7368 -0.6316 0.0000
-0.7368 -0.5263 0.0000
[...]
         <PointData>
            <DataArray Name="fValues" NumberOfComponents="3" format="ascii" type="Float64">
 8.19705e-18 -7.51396e-18        00000 
-1.34858e-17  7.08002e-18        00000 
-8.68373e-18 -8.09070e-18        00000 
 2.69715e-18 -5.05716e-18        00000 
-6.41355e-18 -5.29948e-18        00000 
 1.55086e-17  1.38229e-17        00000 
-8.19130e-18  1.04840e-17        00000 
 4.63573e-18  7.41717e-18        00000 
 1.70051e-18  1.36041e-17        00000 
-2.27572e-18  1.68572e-18        00000 
-2.32978e-18  5.93036e-18        00000 
-2.69715e-18  1.14629e-17        00000 
-9.99749e-18  1.51418e-17        00000 
-6.06859e-18  4.72002e-18        00000 
-1.65203e-18  4.32069e-18        00000 
 1.34858e-17  5.22573e-18        00000 
-1.36050e-17 -6.12227e-18        00000 
-4.08043e-18  3.06032e-18        00000 
 1.02011e-18  2.77789e-17        00000 
 1.23103e-01  3.23597e-02        00000 
 1.06267e-01  1.52588e-02        00000 
 8.32485e-02  1.68311e-02        00000 
 6.65034e-02  2.39861e-02        00000 
 5.50606e-02  2.82037e-02        00000 
 4.45951e-02  2.84580e-02        00000 
 3.30021e-02  2.68688e-02        00000 
 2.00595e-02  2.52235e-02        00000 
 6.22462e-03  2.43219e-02        00000 
-7.91007e-03  2.43958e-02        00000 
-2.17407e-02  2.54428e-02        00000 
-3.46705e-02  2.72298e-02        00000 
-4.62041e-02  2.89713e-02        00000 
-5.65212e-02  2.89165e-02        00000 
-6.79794e-02  2.49526e-02        00000 
-8.53734e-02  1.79861e-02        00000 
-1.10301e-01  1.65030e-02        00000 
-1.22190e-01  3.39174e-02        00000 
-7.77106e-02  7.53396e-02        00000 
 2.20160e-01 -8.53111e-02        00000 
 1.74806e-01 -9.21418e-02        00000 
 1.26325e-01 -8.89041e-02        00000 
 9.58343e-02 -8.49678e-02        00000 
 7.75419e-02 -8.49379e-02        00000 
 6.21402e-02 -8.80873e-02        00000 
 4.56287e-02 -9.19956e-02        00000 
 2.77173e-02 -9.50022e-02        00000 
 9.05630e-03 -9.65439e-02        00000 
-9.81139e-03 -9.65792e-02        00000 
-2.84652e-02 -9.51230e-02        00000 
-4.63501e-02 -9.22396e-02        00000 
-6.27352e-02 -8.84864e-02        00000 
-7.77940e-02 -8.54496e-02        00000 
-9.58165e-02 -8.54082e-02        00000 
-1.26982e-01 -8.90224e-02        00000 
-1.77486e-01 -9.17548e-02        00000 
-2.21463e-01 -8.48447e-02        00000 
-1.90540e-01 -5.53316e-02        00000 
 2.82285e-01 -1.64668e-01        00000 
 2.13656e-01 -1.71111e-01        00000 
 1.53248e-01 -1.73386e-01        00000 
 1.17075e-01 -1.78632e-01        00000 
 9.53339e-02 -1.86589e-01        00000 
 7.63331e-02 -1.94887e-01        00000 
 5.56503e-02 -2.01559e-01        00000 
 3.34828e-02 -2.05822e-01        00000 
 1.08571e-02 -2.07822e-01        00000 
-1.17942e-02 -2.07926e-01        00000 
-3.44095e-02 -2.06151e-01        00000 
-5.65413e-02 -2.02157e-01        00000 
-7.70728e-02 -1.95806e-01        00000 
-9.56853e-02 -1.87810e-01        00000 
-1.17069e-01 -1.79952e-01        00000 
-1.53811e-01 -1.74424e-01        00000 
-2.16614e-01 -1.71626e-01        00000 
-2.85469e-01 -1.65222e-01        00000 
-3.08899e-01 -1.37940e-01        00000 
 3.45163e-01 -1.70470e-01        00000 
 2.53088e-01 -1.86160e-01        00000 
 1.84228e-01 -1.99002e-01        00000 
 1.43377e-01 -2.12687e-01        00000 
 1.16917e-01 -2.25607e-01        00000 
 9.25850e-02 -2.35742e-01        00000 
 6.63870e-02 -2.42248e-01        00000 
 3.92815e-02 -2.45490e-01        00000 
 1.27024e-02 -2.46621e-01        00000 
-1.33972e-02 -2.46693e-01        00000 
-3.99566e-02 -2.45717e-01        00000 
-6.70074e-02 -2.42672e-01        00000 
-9.30383e-02 -2.36428e-01        00000 
-1.17000e-01 -2.26602e-01        00000 
-1.43140e-01 -2.13933e-01        00000 
-1.84466e-01 -2.00282e-01        00000 
-2.55485e-01 -1.87318e-01        00000 
-3.49328e-01 -1.72057e-01        00000 
-4.27992e-01 -1.40519e-01        00000 
 4.23446e-01 -1.06325e-01        00000 
 3.09915e-01 -1.33381e-01        00000 
 2.29779e-01 -1.57031e-01        00000 
 1.80136e-01 -1.77266e-01        00000 
 1.45042e-01 -1.92818e-01        00000 
 1.12089e-01 -2.02957e-01        00000 
 7.78132e-02 -2.07885e-01        00000 
 4.43011e-02 -2.08808e-01        00000 
 1.38044e-02 -2.08118e-01        00000 
-1.48788e-02 -2.08127e-01        00000 
-4.53529e-02 -2.08843e-01        00000 
-7.88040e-02 -2.07974e-01        00000 
-1.12917e-01 -2.03161e-01        00000 
-1.45544e-01 -1.93225e-01        00000 
-1.80377e-01 -1.77948e-01        00000 
-2.30389e-01 -1.57963e-01        00000 
-3.12202e-01 -1.34522e-01        00000 
-4.27870e-01 -1.07580e-01        00000 
-5.54708e-01 -6.99403e-02        00000 
 5.23388e-01  6.50074e-03        00000 
 3.89772e-01 -3.02762e-02        00000 
 2.94481e-01 -6.19294e-02        00000 
 2.31114e-01 -8.68397e-02        00000 
 1.83070e-01 -1.04530e-01        00000 
 1.37659e-01 -1.15517e-01        00000 
 9.14196e-02 -1.20166e-01        00000 
 4.83850e-02 -1.19225e-01        00000 
 1.38066e-02 -1.16178e-01        00000 
-1.52453e-02 -1.16150e-01        00000 
-4.98037e-02 -1.19139e-01        00000 
-9.27781e-02 -1.20042e-01        00000 
-1.38868e-01 -1.15398e-01        00000 
-1.83996e-01 -1.04506e-01        00000 
-2.31821e-01 -8.70279e-02        00000 
-2.95467e-01 -6.23802e-02        00000 
-3.92001e-01 -3.09823e-02        00000 
-5.27535e-01  5.78501e-03        00000 
-6.86254e-01  4.95664e-02        00000 
 6.42974e-01  1.51809e-01        00000 
 4.90136e-01  1.08958e-01        00000 
 3.76967e-01  7.26096e-02        00000 
 2.96310e-01  4.47260e-02        00000 
 2.32192e-01  2.49846e-02        00000 
 1.71704e-01  1.14559e-02        00000 
 1.09218e-01  2.91108e-03        00000 
 5.01044e-02  2.44445e-03        00000 
 1.01882e-02  8.30263e-03        00000 
-1.17613e-02  8.34906e-03        00000 
-5.16571e-02  2.53188e-03        00000 
-1.10724e-01  3.05594e-03        00000 
-1.73088e-01  1.16291e-02        00000 
-2.33344e-01  2.51192e-02        00000 
-2.97289e-01  4.47159e-02        00000 
-3.78162e-01  7.23868e-02        00000 
-4.92245e-01  1.08503e-01        00000 
-6.46538e-01  1.51289e-01        00000 
-8.28475e-01  1.99908e-01        00000 
 7.76524e-01  3.24332e-01        00000 
 6.04817e-01  2.78785e-01        00000 
 4.72352e-01  2.40553e-01        00000 
 3.72402e-01  2.11583e-01        00000 
 2.90559e-01  1.91091e-01        00000 
 2.14481e-01  1.75804e-01        00000 
 1.36142e-01  1.61022e-01        00000 
 5.06368e-02  1.46249e-01        00000 
-6.61536e-03  1.48865e-01        00000 
-5.22273e-02  1.46332e-01        00000 
-1.37703e-01  1.61073e-01        00000 
-2.15950e-01  1.75894e-01        00000 
-2.91853e-01  1.91165e-01        00000 
-3.73573e-01  2.11557e-01        00000 
-4.73695e-01  2.40361e-01        00000 
-6.06816e-01  2.78392e-01        00000 
-7.79417e-01  3.23828e-01        00000 
-9.81861e-01  3.74990e-01        00000 
 9.16582e-01  5.22155e-01        00000 
 7.26423e-01  4.76606e-01        00000 
 5.74219e-01  4.38705e-01        00000 
 4.54011e-01  4.10588e-01        00000 
 3.53456e-01  3.91822e-01        00000 
 2.61732e-01  3.79421e-01        00000 
 1.71170e-01  3.67698e-01        00000 
 6.83914e-02  3.44746e-01        00000 
-1.72759e-01  3.67683e-01        00000 
-2.63288e-01  3.79397e-01        00000 
-3.54895e-01  3.91790e-01        00000 
-4.55380e-01  4.10483e-01        00000 
-5.75721e-01  4.38473e-01        00000 
-7.28350e-01  4.76211e-01        00000 
-9.18802e-01  5.21626e-01        00000 
-1.14039e+00  5.72634e-01        00000 
 1.05477e+00  7.43540e-01        00000 
 8.47323e-01  7.00262e-01        00000 
 6.75995e-01  6.64265e-01        00000 
 5.35459e-01  6.38208e-01        00000 
 4.15408e-01  6.22682e-01        00000 
 3.06457e-01  6.16728e-01        00000 
 2.01246e-01  6.20330e-01        00000 
 8.64213e-02  6.39953e-01        00000 
-2.02937e-01  6.20235e-01        00000 
-3.08129e-01  6.16600e-01        00000 
-4.17028e-01  6.22539e-01        00000 
-5.37071e-01  6.38010e-01        00000 
-6.77705e-01  6.63972e-01        00000 
-8.49213e-01  6.99839e-01        00000 
-1.05627e+00  7.42967e-01        00000 
-1.29545e+00  7.90985e-01        00000 
 1.18186e+00  9.87289e-01        00000 
 9.59846e-01  9.48421e-01        00000 
 7.71670e-01  9.15175e-01        00000 
 6.12181e-01  8.90983e-01        00000 
 4.73046e-01  8.77380e-01        00000 
 3.46208e-01  8.74156e-01        00000 
 2.24595e-01  8.80792e-01        00000 
 1.01834e-01  8.93666e-01        00000 
 1.03394e-02  8.93224e-01        00000 
-1.21731e-02  8.93154e-01        00000 
-1.03660e-01  8.93444e-01        00000 
-2.26381e-01  8.80599e-01        00000 
-3.48010e-01  8.73934e-01        00000 
-4.74872e-01  8.77132e-01        00000 
-6.14079e-01  8.90689e-01        00000 
-7.73636e-01  9.14810e-01        00000 
-9.61719e-01  9.47949e-01        00000 
-1.18255e+00  9.86649e-01        00000 
-1.43742e+00  1.02855e+00        00000 
 1.28727e+00  1.25452e+00        00000 
 1.05631e+00  1.22194e+00        00000 
 8.56161e-01  1.19134e+00        00000 
 6.81227e-01  1.16740e+00        00000 
 5.25613e-01  1.15261e+00        00000 
 3.83680e-01  1.14639e+00        00000 
 2.51323e-01  1.14540e+00        00000 
 1.31471e-01  1.14230e+00        00000 
 3.65402e-02  1.13543e+00        00000 
-3.83705e-02  1.13537e+00        00000 
-1.33296e-01  1.14214e+00        00000 
-2.53153e-01  1.14517e+00        00000 
-3.85561e-01  1.14611e+00        00000 
-5.27605e-01  1.15229e+00        00000 
-6.83390e-01  1.16704e+00        00000 
-8.58379e-01  1.19092e+00        00000 
-1.05815e+00  1.22144e+00        00000 
-1.28707e+00  1.25382e+00        00000 
-1.55468e+00  1.28577e+00        00000 
 1.35950e+00  1.54758e+00        00000 
 1.13019e+00  1.52219e+00        00000 
 9.26191e-01  1.49276e+00        00000 
 7.41413e-01  1.46630e+00        00000 
 5.73499e-01  1.44699e+00        00000 
 4.20442e-01  1.43458e+00        00000 
 2.81305e-01  1.42591e+00        00000 
 1.57331e-01  1.41812e+00        00000 
 4.91975e-02  1.41223e+00        00000 
-5.09310e-02  1.41218e+00        00000 
-1.59054e-01  1.41798e+00        00000 
-2.83029e-01  1.42571e+00        00000 
-4.22238e-01  1.43433e+00        00000 
-5.75491e-01  1.44669e+00        00000 
-7.43691e-01  1.46596e+00        00000 
-9.28518e-01  1.49236e+00        00000 
-1.13186e+00  1.52172e+00        00000 
-1.35844e+00  1.54682e+00        00000 
-1.62980e+00  1.56382e+00        00000 
 1.38936e+00  1.85372e+00        00000 
 1.17868e+00  1.83601e+00        00000 
 9.81814e-01  1.80544e+00        00000 
 7.93917e-01  1.77340e+00        00000 
 6.17898e-01  1.74682e+00        00000 
 4.56353e-01  1.72689e+00        00000 
 3.10000e-01  1.71203e+00        00000 
 1.77988e-01  1.70107e+00        00000 
 5.72939e-02  1.69480e+00        00000 
-5.88285e-02  1.69478e+00        00000 
-1.79489e-01  1.70100e+00        00000 
-3.11465e-01  1.71192e+00        00000 
-4.57878e-01  1.72677e+00        00000 
-6.19684e-01  1.74666e+00        00000 
-7.96084e-01  1.77314e+00        00000 
-9.83955e-01  1.80496e+00        00000 
-1.17983e+00  1.83519e+00        00000 
-1.38775e+00  1.85269e+00        00000 
-1.63853e+00  1.84964e+00        00000 
 1.37667e+00  2.12025e+00        00000 
 1.20494e+00  2.11103e+00        00000 
 1.02693e+00  2.07918e+00        00000 
 8.42195e-01  2.04112e+00        00000 
 6.61060e-01  2.00704e+00        00000 
 4.91945e-01  1.97997e+00        00000 
 3.37505e-01  1.95947e+00        00000 
 1.96112e-01  1.94515e+00        00000 
 6.37407e-02  1.93759e+00        00000 
-6.53395e-02  1.93756e+00        00000 
-1.97647e-01  1.94509e+00        00000 
-3.38951e-01  1.95938e+00        00000 
-4.93414e-01  1.97985e+00        00000 
-6.62828e-01  2.00682e+00        00000 
-8.44355e-01  2.04062e+00        00000 
-1.02874e+00  2.07812e+00        00000 
-1.20510e+00  2.10916e+00        00000 
-1.37517e+00  2.11871e+00        00000 
-1.56873e+00  2.09633e+00        00000 
 1.33991e+00  2.26796e+00        00000 
 1.21931e+00  2.26710e+00        00000 
 1.06781e+00  2.23904e+00        00000 
 8.89991e-01  2.20092e+00        00000 
 7.05018e-01  2.16471e+00        00000 
 5.28329e-01  2.13467e+00        00000 
 3.65026e-01  2.11130e+00        00000 
 2.13486e-01  2.09496e+00        00000 
 6.95571e-02  2.08643e+00        00000 
-7.17245e-02  2.08637e+00        00000 
-2.15571e-01  2.09479e+00        00000 
-3.66987e-01  2.11103e+00        00000 
-5.30284e-01  2.13427e+00        00000 
-7.07282e-01  2.16406e+00        00000 
-8.92526e-01  2.19969e+00        00000 
-1.06937e+00  2.23686e+00        00000 
-1.21805e+00  2.26389e+00        00000 
-1.33947e+00  2.26576e+00        00000 
-1.45322e+00  2.23663e+00        00000 
 1.31606e+00  2.26627e+00        00000 
 1.23829e+00  2.26910e+00        00000 
 1.11086e+00  2.25322e+00        00000 
 9.38941e-01  2.22797e+00        00000 
 7.49840e-01  2.20122e+00        00000 
 5.65341e-01  2.17687e+00        00000 
 3.92758e-01  2.15653e+00        00000 
 2.30735e-01  2.14170e+00        00000 
 7.53047e-02  2.13379e+00        00000 
-7.78903e-02  2.13363e+00        00000 
-2.33237e-01  2.14124e+00        00000 
-3.95124e-01  2.15576e+00        00000 
-5.67672e-01  2.17575e+00        00000 
-7.52414e-01  2.19959e+00        00000 
-9.41514e-01  2.22547e+00        00000 
-1.11185e+00  2.24964e+00        00000 
-1.23569e+00  2.26488e+00        00000 
-1.31688e+00  2.26340e+00        00000 
-1.38154e+00  2.24996e+00        00000 
 1.34438e+00  2.26467e+00        00000 
 1.27647e+00  2.25242e+00        00000 
 1.15609e+00  2.24988e+00        00000 
 9.84193e-01  2.24487e+00        00000 
 7.90239e-01  2.23491e+00        00000 
 5.98655e-01  2.22150e+00        00000 
 4.17630e-01  2.20765e+00        00000 
 2.46073e-01  2.19648e+00        00000 
 8.03415e-02  2.19027e+00        00000 
-8.34487e-02  2.19018e+00        00000 
-2.49140e-01  2.19623e+00        00000 
-4.20634e-01  2.20724e+00        00000 
-6.01683e-01  2.22091e+00        00000 
-7.93480e-01  2.23409e+00        00000 
-9.87266e-01  2.24365e+00        00000 
-1.15766e+00  2.24820e+00        00000 
-1.27455e+00  2.25037e+00        00000 
-1.34583e+00  2.25852e+00        00000 
-1.44132e+00  2.28102e+00        00000 
 4.94224e-03  1.48752e-01        00000 
-7.00728e-02  3.44618e-01        00000 
 1.34804e+00  2.42027e+00        00000 
 1.27812e+00  2.38847e+00        00000 
 1.16068e+00  2.38214e+00        00000 
 9.92815e-01  2.38178e+00        00000 
 8.02524e-01  2.37554e+00        00000 
 6.12074e-01  2.36251e+00        00000 
 4.29529e-01  2.34721e+00        00000 
 2.54611e-01  2.33433e+00        00000 
 8.45362e-02  2.32701e+00        00000 
-8.38984e-02  2.32674e+00        00000 
-2.53939e-01  2.33356e+00        00000 
-4.28795e-01  2.34603e+00        00000 
-6.11299e-01  2.36113e+00        00000 
-8.01717e-01  2.37429e+00        00000 
-9.91603e-01  2.38115e+00        00000 
-1.15837e+00  2.38262e+00        00000 
-1.27293e+00  2.38993e+00        00000 
-1.34593e+00  2.41903e+00        00000 
-1.40305e+00  2.45309e+00        00000 
 7.64162e-02  7.39034e-02        00000 
 1.88980e-01 -5.65268e-02        00000 
 3.06810e-01 -1.38287e-01        00000 
 4.25595e-01 -1.39806e-01        00000 
 5.51692e-01 -6.89918e-02        00000 
 6.83364e-01  5.02369e-02        00000 
 8.26050e-01  2.00450e-01        00000 
 9.79878e-01  3.75535e-01        00000 
 1.13881e+00  5.73224e-01        00000 
 1.29429e+00  7.91651e-01        00000 
-8.81720e-02  6.39831e-01        00000 
 1.43672e+00  1.02930e+00        00000 
 1.55450e+00  1.28653e+00        00000 
 1.63031e+00  1.56451e+00        00000 
 1.63990e+00  1.85071e+00        00000 
 1.57061e+00  2.09873e+00        00000 
 1.45468e+00  2.24044e+00        00000 
 1.38225e+00  2.25471e+00        00000 
 1.44009e+00  2.28508e+00        00000 
 1.40110e+00  2.45408e+00        00000 
-2.04926e-18 -1.68951e-18        00000 
 5.11123e-02  9.40798e-02        00000 
 7.13449e-02  7.25052e-02        00000 
 6.46736e-02  6.54047e-02        00000 
 5.52352e-02  6.57565e-02        00000 
 4.73464e-02  6.57698e-02        00000 
 4.00419e-02  6.32768e-02        00000 
 3.17908e-02  5.95945e-02        00000 
 2.21121e-02  5.62434e-02        00000 
 1.12460e-02  5.40453e-02        00000 
-2.65031e-04  5.33234e-02        00000 
-1.17698e-02  5.41582e-02        00000 
-2.26167e-02  5.64743e-02        00000 
-3.22583e-02  5.99570e-02        00000 
-4.04351e-02  6.37913e-02        00000 
-4.76230e-02  6.64167e-02        00000 
-5.54551e-02  6.64186e-02        00000 
-6.49941e-02  6.60312e-02        00000 
-7.20238e-02  7.31339e-02        00000 
-5.19640e-02  9.48587e-02        00000 
 1.75099e-01 -1.25458e-02        00000 
 1.77281e-01 -3.37885e-02        00000 
 1.35232e-01 -3.39790e-02        00000 
 9.97610e-02 -2.57034e-02        00000 
 7.83692e-02 -1.99364e-02        00000 
 6.35228e-02 -1.91362e-02        00000 
 4.91883e-02 -2.10959e-02        00000 
 3.36380e-02 -2.34358e-02        00000 
 1.70682e-02 -2.50149e-02        00000 
 9.62051e-06 -2.55345e-02        00000 
-1.70414e-02 -2.49668e-02        00000 
-3.35887e-02 -2.33370e-02        00000 
-4.90920e-02 -2.09358e-02        00000 
-6.33008e-02 -1.88959e-02        00000 
-7.78980e-02 -1.96262e-02        00000 
-9.91440e-02 -2.53971e-02        00000 
-1.34918e-01 -3.37197e-02        00000 
-1.78140e-01 -3.30021e-02        00000 
-1.76438e-01 -1.11511e-02        00000 
 2.61130e-01 -1.27502e-01        00000 
 2.29604e-01 -1.37681e-01        00000 
 1.67596e-01 -1.36564e-01        00000 
 1.21259e-01 -1.35384e-01        00000 
 9.53483e-02 -1.38243e-01        00000 
 7.77770e-02 -1.44129e-01        00000 
 6.02544e-02 -1.50408e-01        00000 
 4.09377e-02 -1.55234e-01        00000 
 2.05111e-02 -1.58035e-01        00000 
-2.87069e-04 -1.58947e-01        00000 
-2.10781e-02 -1.58117e-01        00000 
-4.14845e-02 -1.55406e-01        00000 
-6.07597e-02 -1.50683e-01        00000 
-7.81678e-02 -1.44508e-01        00000 
-9.55188e-02 -1.38690e-01        00000 
-1.21349e-01 -1.35813e-01        00000 
-1.68252e-01 -1.36863e-01        00000 
-2.31492e-01 -1.37578e-01        00000 
-2.63320e-01 -1.26942e-01        00000 
 3.41958e-01 -1.66587e-01        00000 
 2.69971e-01 -1.82269e-01        00000 
 1.93577e-01 -1.89037e-01        00000 
 1.42962e-01 -1.97955e-01        00000 
 1.14481e-01 -2.09221e-01        00000 
 9.37490e-02 -2.20142e-01        00000 
 7.21981e-02 -2.28665e-01        00000 
 4.85438e-02 -2.34057e-01        00000 
 2.40848e-02 -2.36711e-01        00000 
-3.29931e-04 -2.37493e-01        00000 
-2.47335e-02 -2.36852e-01        00000 
-4.91606e-02 -2.34352e-01        00000 
-7.27592e-02 -2.29135e-01        00000 
-9.42060e-02 -2.20806e-01        00000 
-1.14790e-01 -2.10048e-01        00000 
-1.43288e-01 -1.98820e-01        00000 
-1.94549e-01 -1.89797e-01        00000 
-2.72399e-01 -1.82835e-01        00000 
-3.44544e-01 -1.66767e-01        00000 
 4.33071e-01 -1.32224e-01        00000 
 3.23194e-01 -1.56796e-01        00000 
 2.32477e-01 -1.76376e-01        00000 
 1.75064e-01 -1.94998e-01        00000 
 1.40643e-01 -2.11515e-01        00000 
 1.13556e-01 -2.24088e-01        00000 
 8.55274e-02 -2.32005e-01        00000 
 5.60267e-02 -2.35633e-01        00000 
 2.70749e-02 -2.36403e-01        00000 
-6.03541e-04 -2.36339e-01        00000 
-2.82718e-02 -2.36488e-01        00000 
-5.71935e-02 -2.35814e-01        00000 
-8.66439e-02 -2.32306e-01        00000 
-1.14597e-01 -2.24542e-01        00000 
-1.41605e-01 -2.12136e-01        00000 
-1.76080e-01 -1.95746e-01        00000 
-2.33969e-01 -1.77193e-01        00000 
-3.25837e-01 -1.57775e-01        00000 
-4.36137e-01 -1.33308e-01        00000 
 5.39044e-01 -3.52305e-02        00000 
 4.00329e-01 -7.04286e-02        00000 
 2.93549e-01 -1.01487e-01        00000 
 2.24083e-01 -1.27619e-01        00000 
 1.78498e-01 -1.47552e-01        00000 
 1.40661e-01 -1.60941e-01        00000 