<?xml version="1.0" encoding="utf-8"?>
<VTKFile byte_order="LittleEndian" type="UnstructuredGrid" version="0.1">
   <UnstructuredGrid>
      <Piece NumberOfCells="412" NumberOfPoints="412">
         <Points>
            <DataArray Name="Points" NumberOfComponents="3" format="ascii" type="Float32">
-0.8947 -0.2632 0.0000
-0.8947 -0.1579 0.0000
-0.8947 -0.0526 0.0000
-0.8947 0.0526 0.0000
-0.8947 0.1579 0.0000
-0.8947 0.2632 0.0000
-0.7895 -0.4737 0.0000
-0.7895 -0.3684 0.0000
-0.7895 0.3684 0.0000
-0.7895 0.4737 0.0000
-0.6842 -0.5789 0.0000
-0.6842 0.5789 0.0000
-0.5789 -0.6842 0.0000
-0.5789 0.6842 0.0000
-0.4737 -0.7895 0.0000
-0.4737 0.7895 0.0000
-0.3684 -0.7895 0.0000
-0.3684 0.7895 0.0000
-0.2632 -0.8947 0.0000
-0.2632 0.8947 0.0000
-0.1579 -0.8947 0.0000
-0.1579 0.8947 0.0000
-0.0526 -0.8947 0.0000
-0.0526 0.8947 0.0000
0.0526 -0.8947 0.0000
0.0526 0.8947 0.0000
0.1579 -0.8947 0.0000
0.1579 0.8947 0.0000
0.2632 -0.8947 0.0000
0.2632 0.8947 0.0000
0.3684 -0.7895 0.0000
0.3684 0.7895 0.0000
0.4737 -0.7895 0.0000
0.4737 0.7895 0.0000
0.5789 -0.6842 0.0000
0.5789 0.6842 0.0000
0.6842 -0.5789 0.0000
0.6842 0.5789 0.0000
0.7895 -0.4737 0.0000
0.7895 -0.3684 0.0000
0.7895 0.3684 0.0000
0.7895 0.4737 0.0000
0.8947 -0.2632 0.0000
0.8947 -0.1579 0.0000
0.8947 -0.0526 0.0000
0.8947 0.0526 0.0000
0.8947 0.1579 0.0000
0.8947 0.2632 0.0000
-0.8421 -0.3158 0.0000
-0.8421 -0.2105 0.0000
-0.8421 0.2105 0.0000
-0.8421 0.3158 0.0000
-0.7368 -0.5263 0.0000
-0.7368 0.5263 0.0000
-0.6316 -0.6316 0.0000
-0.6316 0.6316 0.0000
-0.5263 -0.7368 0.0000
-0.5263 0.7368 0.0000
-0.3158 -0.8421 0.0000
-0.3158 0.8421 0.0000
-0.2105 -0.8421 0.0000
-0.2105 0.8421 0.0000
0.2105 -0.8421 0.0000
0.2105 0.8421 0.0000
0.3158 -0.8421 0.0000
0.3158 0.8421 0.0000
0.5263 -0.7368 0.0000
0.5263 0.7368 0.0000
0.6316 -0.6316 0.0000
0.6316 0.6316 0.0000
0.7368 -0.5263 0.0000
0.7368 0.5263 0.0000
0.8421 -0.3158 0.0000
0.8421 -0.2105 0.0000
0.8421 0.2105 0.0000
0.8421 0.3158 0.0000
1.4211 -0.1579 0.0000
1.4211 -0.0526 0.0000
1.4211 0.0526 0.0000
1.4211 0.1579 0.0000
1.5263 -0.2632 0.0000
1.5263 0.2632 0.0000
1.6316 -0.3684 0.0000
1.6316 0.3684 0.0000
1.7368 -0.4737 0.0000
1.7368 0.4737 0.0000
1.8421 -0.5789 0.0000
1.8421 0.5789 0.0000
1.9474 -0.5789 0.0000
1.9474 0.5789 0.0000
2.0526 -0.5789 0.0000
2.0526 0.5789 0.0000
2.1579 -0.5789 0.0000
2.1579 0.5789 0.0000
2.2632 -0.4737 0.0000
2.2632 0.4737 0.0000
2.3684 -0.3684 0.0000
2.3684 0.3684 0.0000
2.4737 -0.2632 0.0000
2.4737 0.2632 0.0000
2.5789 -0.1579 0.0000
2.5789 -0.0526 0.0000
2.5789 0.0526 0.0000
2.5789 0.1579 0.0000
1.4737 -0.2105 0.0000
1.4737 -0.1053 0.0000
1.4737 0.0000 0.0000
1.4737 0.1053 0.0000
1.4737 0.2105 0.0000
1.5789 -0.3158 0.0000
1.5789 0.3158 0.0000
1.6842 -0.4211 0.0000
1.6842 0.4211 0.0000
1.7895 -0.5263 0.0000
1.7895 0.5263 0.0000
1.8947 -0.5263 0.0000
1.8947 0.5263 0.0000
2.0000 -0.5263 0.0000
2.0000 0.5263 0.0000
2.1053 -0.5263 0.0000
2.1053 0.5263 0.0000
2.2105 -0.5263 0.0000
2.2105 0.5263 0.0000
2.3158 -0.4211 0.0000
2.3158 0.4211 0.0000
2.4211 -0.3158 0.0000
2.4211 0.3158 0.0000
2.5263 -0.2105 0.0000
2.5263 -0.1053 0.0000
2.5263 0.0000 0.0000
2.5263 0.1053 0.0000
2.5263 0.2105 0.0000
3.8421 -0.0526 0.0000
3.8421 0.0526 0.0000
3.9474 -0.1579 0.0000
3.9474 0.1579 0.0000
4.0526 -0.1579 0.0000
4.0526 0.1579 0.0000
4.1579 -0.0526 0.0000
4.1579 0.0526 0.0000
3.8947 -0.1053 0.0000
3.8947 0.1053 0.0000
4.1053 -0.1053 0.0000
4.1053 0.1053 0.0000
-0.8086 -0.2632 0.0000
-0.8349 -0.1579 0.0000
-0.8438 -0.1070 0.0000
-0.8481 -0.0526 0.0000
-0.8443 -0.1031 0.0000
-0.8503 -0.0082 0.0000
-0.8481 0.0526 0.0000
-0.8503 0.0082 0.0000
-0.8443 0.1031 0.0000
-0.8349 0.1579 0.0000
-0.8438 0.1070 0.0000
-0.8086 0.2632 0.0000
-0.7061 -0.4737 0.0000
-0.7383 -0.4225 0.0000
-0.7895 -0.3141 0.0000
-0.7662 -0.3684 0.0000
-0.7416 -0.4163 0.0000
-0.7738 -0.3528 0.0000
-0.8039 -0.2776 0.0000
-0.8168 -0.2358 0.0000
-0.8273 -0.1958 0.0000
-0.8273 0.1958 0.0000
-0.7895 0.3141 0.0000
-0.8168 0.2358 0.0000
-0.8039 0.2776 0.0000
-0.7662 0.3684 0.0000
-0.7738 0.3528 0.0000
-0.7416 0.4163 0.0000
-0.7061 0.4737 0.0000
-0.7383 0.4225 0.0000
-0.6842 -0.5043 0.0000
-0.6220 -0.5789 0.0000
-0.6515 -0.5462 0.0000
-0.6974 -0.4869 0.0000
-0.6842 0.5043 0.0000
-0.6974 0.4869 0.0000
-0.6220 0.5789 0.0000
-0.6515 0.5462 0.0000
-0.5789 -0.6220 0.0000
-0.5043 -0.6842 0.0000
-0.5462 -0.6515 0.0000
-0.6012 -0.6012 0.0000
-0.5789 0.6220 0.0000
-0.6012 0.6012 0.0000
-0.5043 0.6842 0.0000
-0.5462 0.6515 0.0000
-0.4737 -0.7061 0.0000
-0.4225 -0.7383 0.0000
-0.4869 -0.6974 0.0000
-0.4737 0.7061 0.0000
-0.4869 0.6974 0.0000
-0.4225 0.7383 0.0000
-0.3684 -0.7662 0.0000
-0.3141 -0.7895 0.0000
-0.4163 -0.7416 0.0000
-0.3528 -0.7738 0.0000
-0.3684 0.7662 0.0000
-0.3141 0.7895 0.0000
-0.4163 0.7416 0.0000
-0.3528 0.7738 0.0000
-0.2632 -0.8086 0.0000
-0.2776 -0.8039 0.0000
-0.2358 -0.8168 0.0000
-0.2632 0.8086 0.0000
-0.2776 0.8039 0.0000
-0.2358 0.8168 0.0000
-0.1579 -0.8349 0.0000
-0.1070 -0.8438 0.0000
-0.1958 -0.8273 0.0000
-0.1579 0.8349 0.0000
-0.1958 0.8273 0.0000
-0.1070 0.8438 0.0000
-0.0526 -0.8481 0.0000
-0.1031 -0.8443 0.0000
-0.0082 -0.8503 0.0000
-0.0526 0.8481 0.0000
-0.1031 0.8443 0.0000
-0.0082 0.8503 0.0000
0.0526 -0.8481 0.0000
0.0082 -0.8503 0.0000
0.1031 -0.8443 0.0000
0.0526 0.8481 0.0000
0.0082 0.8503 0.0000
0.1031 0.8443 0.0000
0.1579 -0.8349 0.0000
0.1070 -0.8438 0.0000
0.1958 -0.8273 0.0000
0.1579 0.8349 0.0000
0.1958 0.8273 0.0000
0.1070 0.8438 0.0000
0.2632 -0.8086 0.0000
0.3141 -0.7895 0.0000
0.2358 -0.8168 0.0000
0.2776 -0.8039 0.0000
0.2632 0.8086 0.0000
0.3141 0.7895 0.0000
0.2358 0.8168 0.0000
0.2776 0.8039 0.0000
0.3684 -0.7662 0.0000
0.3528 -0.7738 0.0000
0.4163 -0.7416 0.0000
0.3684 0.7662 0.0000
0.3528 0.7738 0.0000
0.4163 0.7416 0.0000
0.4737 -0.7061 0.0000
0.4225 -0.7383 0.0000
0.5043 -0.6842 0.0000
0.4869 -0.6974 0.0000
0.4737 0.7061 0.0000
0.5043 0.6842 0.0000
0.4869 0.6974 0.0000
0.4225 0.7383 0.0000
0.5789 -0.6220 0.0000
0.5462 -0.6515 0.0000
0.6220 -0.5789 0.0000
0.6012 -0.6012 0.0000
0.5789 0.6220 0.0000
0.6220 0.5789 0.0000
0.6012 0.6012 0.0000
0.5462 0.6515 0.0000
0.6842 -0.5043 0.0000
0.6515 -0.5462 0.0000
0.7061 -0.4737 0.0000
0.6974 -0.4869 0.0000
0.7662 -0.3684 0.0000
0.7662 0.3684 0.0000
0.6842 0.5043 0.0000
0.7061 0.4737 0.0000
0.6974 0.4869 0.0000
0.6515 0.5462 0.0000
0.7383 -0.4225 0.0000
0.7895 -0.3141 0.0000
0.7416 -0.4163 0.0000
0.7738 -0.3528 0.0000
0.8086 -0.2632 0.0000
0.8039 -0.2776 0.0000
0.8168 -0.2358 0.0000
0.8349 -0.1579 0.0000
0.8273 -0.1958 0.0000
0.8481 -0.0526 0.0000
0.8481 0.0526 0.0000
0.8349 0.1579 0.0000
0.8273 0.1958 0.0000
0.7895 0.3141 0.0000
0.8086 0.2632 0.0000
0.8168 0.2358 0.0000
0.8039 0.2776 0.0000
0.7738 0.3528 0.0000
0.7416 0.4163 0.0000
0.7383 0.4225 0.0000
0.8438 -0.1070 0.0000
0.8443 -0.1031 0.0000
0.8503 -0.0082 0.0000
0.8503 0.0082 0.0000
0.8443 0.1031 0.0000
0.8438 0.1070 0.0000
1.5236 -0.1579 0.0000
1.5025 -0.0526 0.0000
1.5025 0.0526 0.0000
1.5236 0.1579 0.0000
1.5263 -0.1648 0.0000
1.5755 -0.2632 0.0000
1.5571 -0.2324 0.0000
1.5242 -0.1600 0.0000
1.5225 -0.1541 0.0000
1.5051 -0.0739 0.0000
1.5004 -0.0267 0.0000
1.5004 0.0267 0.0000
1.5051 0.0739 0.0000
1.5263 0.1648 0.0000
1.5225 0.1541 0.0000
1.5242 0.1600 0.0000
1.5755 0.2632 0.0000
1.5571 0.2324 0.0000
1.6316 -0.3379 0.0000
1.6621 -0.3684 0.0000
1.6459 -0.3541 0.0000
1.5976 -0.2971 0.0000
1.6316 0.3379 0.0000
1.5976 0.2971 0.0000
1.6621 0.3684 0.0000
1.6459 0.3541 0.0000
1.7368 -0.4245 0.0000
1.8352 -0.4737 0.0000
1.7676 -0.4429 0.0000
1.7029 -0.4024 0.0000
1.7368 0.4245 0.0000
1.7029 0.4024 0.0000
1.8352 0.4737 0.0000
1.7676 0.4429 0.0000
1.8421 -0.4764 0.0000
1.8400 -0.4758 0.0000
1.8459 -0.4775 0.0000
1.8421 0.4764 0.0000
1.8400 0.4758 0.0000
1.8459 0.4775 0.0000
1.9474 -0.4975 0.0000
1.9261 -0.4949 0.0000
1.9733 -0.4996 0.0000
1.9474 0.4975 0.0000
1.9261 0.4949 0.0000
1.9733 0.4996 0.0000
2.0526 -0.4975 0.0000
2.0267 -0.4996 0.0000
2.0739 -0.4949 0.0000
2.0526 0.4975 0.0000
2.0267 0.4996 0.0000
2.0739 0.4949 0.0000
2.1579 -0.4764 0.0000
2.1648 -0.4737 0.0000
2.1541 -0.4775 0.0000
2.1600 -0.4758 0.0000
2.1579 0.4764 0.0000
2.1648 0.4737 0.0000
2.1541 0.4775 0.0000
2.1600 0.4758 0.0000
2.2632 -0.4245 0.0000
2.2324 -0.4429 0.0000
2.3379 -0.3684 0.0000
2.2971 -0.4024 0.0000
2.2632 0.4245 0.0000
2.3379 0.3684 0.0000
2.2971 0.4024 0.0000
2.2324 0.4429 0.0000
2.3684 -0.3379 0.0000
2.3541 -0.3541 0.0000
2.4245 -0.2632 0.0000
2.4024 -0.2971 0.0000
2.3684 0.3379 0.0000
2.4245 0.2632 0.0000
2.4024 0.2971 0.0000
2.3541 0.3541 0.0000
2.4737 -0.1648 0.0000
2.4429 -0.2324 0.0000
2.4764 -0.1579 0.0000
2.4758 -0.1600 0.0000
2.4775 -0.1541 0.0000
2.4975 -0.0526 0.0000
2.4949 -0.0739 0.0000
2.4996 -0.0267 0.0000
2.4975 0.0526 0.0000
2.4996 0.0267 0.0000
2.4949 0.0739 0.0000
2.4737 0.1648 0.0000
2.4764 0.1579 0.0000
2.4775 0.1541 0.0000
2.4758 0.1600 0.0000
2.4429 0.2324 0.0000
3.9157 -0.0526 0.0000
3.8946 -0.0001 0.0000
3.9157 0.0526 0.0000
3.8946 0.0001 0.0000
3.9474 -0.0843 0.0000
3.9999 -0.1054 0.0000
3.9275 -0.0725 0.0000
3.9474 0.0843 0.0000
3.9275 0.0725 0.0000
3.9999 0.1054 0.0000
4.0526 -0.0843 0.0000
4.0001 -0.1054 0.0000
4.0843 -0.0526 0.0000
4.0725 -0.0725 0.0000
4.0526 0.0843 0.0000
4.0843 0.0526 0.0000
4.0725 0.0725 0.0000
4.0001 0.1054 0.0000
4.1054 -0.0001 0.0000
4.1054 0.0001 0.0000</DataArray>
         </Points>
         <Cells>
            <DataArray Name="connectivity" format="ascii" type="Int32">
 2 1 148
 1 146 148
 3 149 151
 3 2 149
 4 152 154
 4 3 152
 7 6 160
 6 157 160
 158 7 161
 8 166 170
 9 171 173
 9 8 171
 174 10 176
 11 178 181
 182 12 184
 13 186 189
 190 14 191
 15 193 195
 196 16 199
 17 200 203
 18 60 206
 204 18 206
 19 207 209
 19 209 61
 210 20 211
 21 213 215
 216 22 218
 23 219 221
 222 24 224
 25 225 227
 228 26 62
 230 228 62
 231 232 63
 27 231 63
 234 28 64
 237 234 64
 238 241 65
 29 238 65
 242 30 244
 31 245 247
 248 32 66
 251 248 66
 252 254 67
 33 252 67
 256 34 68
 259 256 68
 260 262 69
 35 260 69
 264 36 70
 267 264 70
 270 272 71
 37 270 71
 275 39 72
 279 275 72
 280 73 282
 286 74 289
 287 290 75
 40 287 75
 144 0 48
 162 144 48
 145 1 49
 164 145 49
 147 2 148
 150 3 151
 153 4 154
 5 50 167
 155 5 167
 156 6 52
 177 156 52
 159 7 160
 169 8 170
 172 9 173
 175 10 54
 185 175 54
 180 11 181
 183 12 56
 192 183 56
 188 13 189
 17 15 202
 15 195 202
 197 16 58
 205 197 58
 201 17 203
 206 60 212
 23 21 220
 21 215 220
 25 221 226
 25 23 221
 27 227 233
 27 25 227
 230 62 236
 235 237 64
 30 235 64
 31 239 246
 33 247 255
 33 31 247
 250 251 66
 34 250 66
 35 253 263
 258 259 68
 36 258 68
 37 261 273
 266 267 70
 38 266 70
 39 268 276
 40 269 291
 41 271 293
 278 279 72
 42 278 72
 281 282 73
 43 281 73
 44 283 295
 45 284 297
 46 285 299
 47 288 289
 47 289 74
 158 162 48
 7 158 48
 164 49 163
 167 50 165
 166 8 51
 168 166 51
 174 177 52
 10 174 52
 178 11 53
 179 178 53
 182 185 54
 12 182 54
 186 13 55
 187 186 55
 190 192 56
 14 190 56
 193 15 57
 194 193 57
 16 196 198
 200 17 202
 204 205 58
 18 204 58
 207 19 59
 208 207 59
 210 212 60
 20 210 60
 213 21 61
 214 213 61
 22 216 217
 219 23 220
 24 222 223
 225 25 226
 26 228 229
 231 27 233
 28 234 236
 28 236 62
 29 63 240
 238 29 240
 30 242 243
 245 31 246
 32 248 249
 252 33 255
 34 256 257
 260 35 263
 36 264 265
 270 37 273
 38 276 274
 38 39 276
 39 275 277
 287 40 291
 40 41 292
 41 293 292
 43 295 294
 43 44 295
 44 45 296
 45 297 296
 45 46 298
 46 299 298
 0 144 163
 0 163 49
 1 145 146
 2 147 149
 3 150 152
 153 165 50
 4 153 50
 155 168 51
 5 155 51
 6 156 157
 7 159 161
 8 169 171
 172 179 53
 9 172 53
 10 175 176
 180 187 55
 11 180 55
 12 183 184
 188 194 57
 13 188 57
 14 198 191
 14 16 198
 16 197 199
 201 208 59
 17 201 59
 214 61 209
 20 217 211
 20 22 217
 22 223 218
 22 24 223
 24 26 224
 26 229 224
 240 63 232
 235 30 243
 239 31 65
 241 239 65
 30 32 244
 32 249 244
 250 34 257
 253 35 67
 254 253 67
 258 36 265
 261 37 69
 262 261 69
 266 38 274
 268 39 277
 269 40 292
 271 41 71
 272 271 71
 42 73 280
 278 42 280
 281 43 294
 283 44 296
 284 45 298
 285 46 74
 286 285 74
 288 47 75
 290 288 75
 304 80 306
 81 313 317
 318 82 320
 83 322 325
 326 84 328
 85 330 333
 86 115 336
 334 86 336
 87 337 339
 87 339 116
 340 88 117
 342 340 117
 343 345 118
 89 343 118
 346 90 119
 348 346 119
 349 351 120
 91 349 120
 352 92 121
 355 352 121
 356 359 122
 93 356 122
 360 94 123
 363 360 123
 364 366 124
 95 364 124
 368 96 125
 371 368 125
 372 374 126
 97 372 126
 376 98 127
 379 376 127
 380 128 382
 383 129 385
 386 130 389
 387 390 131
 99 387 131
 300 76 104
 307 300 104
 301 77 105
 309 301 105
 302 78 106
 311 302 106
 79 107 314
 303 79 314
 305 80 109
 321 305 109
 316 81 317
 319 82 111
 329 319 111
 324 83 325
 327 84 113
 335 327 113
 332 85 333
 336 115 341
 342 117 347
 348 119 354
 353 355 121
 94 353 121
 95 357 367
 362 363 123
 96 362 123
 97 365 375
 370 371 125
 98 370 125
 99 373 391
 378 379 127
 100 378 127
 381 382 128
 101 381 128
 384 385 129
 102 384 129
 103 388 389
 103 389 130
 304 307 104
 80 304 104
 309 105 308
 311 106 310
 314 107 312
 313 81 108
 315 313 108
 318 321 109
 82 318 109
 322 83 110
 323 322 110
 326 329 111
 84 326 111
 330 85 112
 331 330 112
 334 335 113
 86 334 113
 337 87 114
 338 337 114
 340 341 115
 88 340 115
 343 89 116
 344 343 116
 346 347 117
 90 346 117
 349 91 118
 350 349 118
 92 352 354
 92 354 119
 93 120 358
 356 93 358
 94 360 361
 364 95 367
 96 368 369
 372 97 375
 98 376 377
 387 99 391
 76 300 308
 76 308 105
 301 310 106
 77 301 106
 302 312 107
 78 302 107
 303 315 108
 79 303 108
 80 305 306
 316 323 110
 81 316 110
 82 319 320
 324 331 112
 83 324 112
 84 327 328
 332 338 114
 85 332 114
 344 116 339
 350 118 345
 358 120 351
 353 94 361
 357 95 122
 359 357 122
 362 96 369
 365 97 124
 366 365 124
 370 98 377
 373 99 126
 374 373 126
 100 128 380
 378 100 380
 381 101 129
 383 381 129
 384 102 130
 386 384 130
 388 103 131
 390 388 131
 133 393 395
 133 132 393
 396 134 397
 135 399 401
 402 136 142
 405 402 142
 406 408 143
 137 406 143
 392 132 140
 398 392 140
 394 133 395
 137 135 409
 135 401 409
 404 405 142
 138 404 142
 139 407 411
 396 398 140
 134 396 140
 399 135 141
 400 399 141
 136 402 403
 406 137 409
 138 139 410
 139 411 410
 132 392 393
 394 400 141
 133 394 141
 134 136 397
 136 403 397
 404 138 410
 407 139 143
 408 407 143</DataArray>
            <DataArray Name="offsets" format="ascii" type="Int32">3 6 9 12 15 18 21 24 27 30 33 36 39 42 45 48 51 54 57 60 63 66 69 72 75 78 81 84 87 90 93 96 99 102 105 108 111 114 117 120 123 126 129 132 135 138 141 144 147 150 153 156 159 162 165 168 171 174 177 180 183 186 189 192 195 198 201 204 207 210 213 216 219 222 225 228 231 234 237 240 243 246 249 252 255 258 261 264 267 270 273 276 279 282 285 288 291 294 297 300 303 306 309 312 315 318 321 324 327 330 333 336 339 342 345 348 351 354 357 360 363 366 369 372 375 378 381 384 387 390 393 396 399 402 405 408 411 414 417 420 423 426 429 432 435 438 441 444 447 450 453 456 459 462 465 468 471 474 477 480 483 486 489 492 495 498 501 504 507 510 513 516 519 522 525 528 531 534 537 540 543 546 549 552 555 558 561 564 567 570 573 576 579 582 585 588 591 594 597 600 603 606 609 612 615 618 621 624 627 630 633 636 639 642 645 648 651 654 657 660 663 666 669 672 675 678 681 684 687 690 693 696 699 702 705 708 711 714 717 720 723 726 729 732 735 738 741 744 747 750 753 756 759 762 765 768 771 774 777 780 783 786 789 792 795 798 801 804 807 810 813 816 819 822 825 828 831 834 837 840 843 846 849 852 855 858 861 864 867 870 873 876 879 882 885 888 891 894 897 900 903 906 909 912 915 918 921 924 927 930 933 936 939 942 945 948 951 954 957 960 963 966 969 972 975 978 981 984 987 990 993 996 999 1002 1005 1008 1011 1014 1017 1020 1023 1026 1029 1032 1035 1038 1041 1044 1047 1050 1053 1056 1059 1062 1065 1068 1071 1074 1077 1080 1083 1086 1089 1092 1095 1098 1101 1104 1107 1110 1113 1116 1119 1122 1125 1128 1131 1134 1137 1140 1143 1146 1149 1152 1155 1158 1161 1164 1167 1170 1173 1176 1179 1182 1185 1188 1191 1194 1197 1200 1203 1206 1209 1212 1215 1218 1221 1224 1227 1230 1233 1236 </DataArray>
            <DataArray Name="types" format="ascii" type="UInt8">5 5 5 5 5 5 5 5 5 5 5 5 5 5 5 5 5 5 5 5 5 5 5 5 5 5 5 5 5 5 5 5 5 5 5 5 5 5 5 5 5 5 5 5 5 5 5 5 5 5 5 5 5 5 5 5 5 5 5 5 5 5 5 5 5 5 5 5 5 5 5 5 5 5 5 5 5 5 5 5 5 5 5 5 5 5 5 5 5 5 5 5 5 5 5 5 5 5 5 5 5 5 5 5 5 5 5 5 5 5 5 5 5 5 5 5 5 5 5 5 5 5 5 5 5 5 5 5 5 5 5 5 5 5 5 5 5 5 5 5 5 5 5 5 5 5 5 5 5 5 5 5 5 5 5 5 5 5 5 5 5 5 5 5 5 5 5 5 5 5 5 5 5 5 5 5 5 5 5 5 5 5 5 5 5 5 5 5 5 5 5 5 5 5 5 5 5 5 5 5 5 5 5 5 5 5 5 5 5 5 5 5 5 5 5 5 5 5 5 5 5 5 5 5 5 5 5 5 5 5 5 5 5 5 5 5 5 5 5 5 5 5 5 5 5 5 5 5 5 5 5 5 5 5 5 5 5 5 5 5 5 5 5 5 5 5 5 5 5 5 5 5 5 5 5 5 5 5 5 5 5 5 5 5 5 5 5 5 5 5 5 5 5 5 5 5 5 5 5 5 5 5 5 5 5 5 5 5 5 5 5 5 5 5 5 5 5 5 5 5 5 5 5 5 5 5 5 5 5 5 5 5 5 5 5 5 5 5 5 5 5 5 5 5 5 5 5 5 5 5 5 5 5 5 5 5 5 5 5 5 5 5 5 5 5 5 5 5 5 5 5 5 5 5 5 5 5 5 5 5 5 5 5 5 5 5 5 5 5 5 5 5 5 5 5 5 5 5 5 5 5 5 5 5 5 5 5 5 5 5 5 5 </DataArray>
         </Cells>
         <PointData>
            <DataArray Name="fValues" NumberOfComponents="3" format="ascii" type="Float64">
-1.17136e-01  4.71442e-01        00000 
-4.80719e-02  3.13277e-01        00000 
-8.95785e-03  2.23059e-01        00000 
 1.25370e-02  2.24208e-01        00000 
 3.93413e-02  3.12667e-01        00000 
 1.25987e-01  4.71307e-01        00000 
-4.80786e-01  1.51298e+00        00000 
-3.96102e-01  1.15172e+00        00000 
 3.96186e-01  1.14723e+00        00000 
 4.74473e-01  1.52073e+00        00000 
-3.71193e-01  3.13946e+00        00000 
 3.70005e-01  3.13379e+00        00000 
 7.13835e-01  5.68432e+00        00000 
-7.09941e-01  5.67844e+00        00000 
 3.21379e+00  8.50101e+00        00000 
-3.20811e+00  8.49726e+00        00000 
 3.95885e+00  1.09629e+01        00000 
-3.94598e+00  1.09618e+01        00000 
 7.66233e+00  1.34124e+01        00000 
-7.63510e+00  1.33795e+01        00000 
 9.05920e+00  1.54958e+01        00000 
-9.05342e+00  1.55729e+01        00000 
 1.06432e+01  1.75802e+01        00000 
-1.07065e+01  1.75687e+01        00000 
 1.23764e+01  1.95812e+01        00000 
-1.24431e+01  1.95807e+01        00000 
 1.41085e+01  2.16129e+01        00000 
-1.41087e+01  2.15122e+01        00000 
 1.56716e+01  2.34589e+01        00000 
-1.56517e+01  2.34967e+01        00000 
 1.59378e+01  2.51670e+01        00000 
-1.58945e+01  2.51723e+01        00000 
 1.69851e+01  2.68558e+01        00000 
-1.69660e+01  2.68535e+01        00000 
 1.65340e+01  2.83476e+01        00000 
-1.65177e+01  2.83462e+01        00000 
 1.50854e+01  3.00680e+01        00000 
-1.50727e+01  3.00682e+01        00000 
 1.27181e+01  3.22873e+01        00000 
 9.99689e+00  3.22329e+01        00000 
-9.98701e+00  3.22319e+01        00000 
-1.27103e+01  3.22829e+01        00000 
 7.10626e+00  3.49390e+01        00000 
 4.25296e+00  3.49232e+01        00000 
 1.41793e+00  3.49134e+01        00000 
-1.41213e+00  3.49130e+01        00000 
-4.24783e+00  3.49231e+01        00000 
-7.09716e+00  3.49387e+01        00000 
-2.40235e-01  7.44834e-01        00000 
-8.11375e-02  5.00474e-01        00000 
 7.76378e-02  4.79818e-01        00000 
 2.49967e-01  7.47825e-01        00000 
-4.69212e-01  2.25630e+00        00000 
 4.60789e-01  2.25905e+00        00000 
 6.08963e-02  4.39197e+00        00000 
-6.52581e-02  4.38055e+00        00000 
 1.83001e+00  7.08335e+00        00000 
-1.81933e+00  7.08149e+00        00000 
 5.79038e+00  1.21656e+01        00000 
-5.77837e+00  1.21632e+01        00000 
 7.04004e+00  1.42312e+01        00000 
-6.89403e+00  1.42364e+01        00000 
 1.44291e+01  2.22502e+01        00000 
-1.42739e+01  2.22214e+01        00000 
 1.57519e+01  2.42513e+01        00000 
-1.57443e+01  2.42688e+01        00000 
 1.68720e+01  2.75794e+01        00000 
-1.68562e+01  2.75765e+01        00000 
 1.59198e+01  2.91821e+01        00000 
-1.59027e+01  2.91811e+01        00000 
 1.39503e+01  3.11369e+01        00000 
-1.39409e+01  3.11348e+01        00000 
 8.54627e+00  3.35642e+01        00000 
 5.67844e+00  3.35225e+01        00000 
-5.66972e+00  3.35247e+01        00000 
-8.53451e+00  3.35623e+01        00000 
 4.08596e+00  5.03727e+01        00000 
 1.35011e+00  5.03326e+01        00000 
-1.34479e+00  5.03306e+01        00000 
-4.08061e+00  5.03742e+01        00000 
 6.91299e+00  5.36706e+01        00000 
-6.89371e+00  5.36686e+01        00000 
 9.93077e+00  5.73096e+01        00000 
-9.91873e+00  5.73180e+01        00000 
 1.34284e+01  6.11827e+01        00000 
-1.34187e+01  6.11851e+01        00000 
 1.72386e+01  6.50316e+01        00000 
-1.72316e+01  6.50354e+01        00000 
 1.75611e+01  6.87090e+01        00000 
-1.75492e+01  6.87074e+01        00000 
 1.79277e+01  7.23180e+01        00000 
-1.79145e+01  7.23168e+01        00000 
 1.82891e+01  7.58531e+01        00000 
-1.82841e+01  7.58471e+01        00000 
 1.53619e+01  7.92300e+01        00000 
-1.53527e+01  7.92377e+01        00000 
 1.23423e+01  8.26225e+01        00000 
-1.23402e+01  8.26225e+01        00000 
 9.03236e+00  8.60555e+01        00000 
-9.02500e+00  8.60569e+01        00000 
 5.49219e+00  8.96119e+01        00000 
 1.84281e+00  8.96153e+01        00000 
-1.83666e+00  8.96158e+01        00000 
-5.48645e+00  8.96119e+01        00000 
 5.48380e+00  5.19822e+01        00000 
 2.69986e+00  5.18375e+01        00000 
 1.12060e-03  5.17675e+01        00000 
-2.69815e+00  5.18339e+01        00000 
-5.47163e+00  5.19773e+01        00000 
 8.41193e+00  5.54769e+01        00000 
-8.39783e+00  5.54784e+01        00000 
 1.16298e+01  5.92534e+01        00000 
-1.16206e+01  5.92565e+01        00000 
 1.53094e+01  6.31051e+01        00000 
-1.52966e+01  6.31052e+01        00000 
 1.55786e+01  6.68135e+01        00000 
-1.55727e+01  6.68209e+01        00000 
 1.59851e+01  7.04676e+01        00000 
-1.59507e+01  7.04650e+01        00000 
 1.64206e+01  7.40486e+01        00000 
-1.64121e+01  7.40359e+01        00000 
 1.68260e+01  7.75396e+01        00000 
-1.68104e+01  7.75433e+01        00000 
 1.38922e+01  8.09176e+01        00000 
-1.38856e+01  8.09206e+01        00000 
 1.07124e+01  8.43347e+01        00000 
-1.07061e+01  8.43346e+01        00000 
 7.27488e+00  8.78217e+01        00000 
 3.67131e+00  8.78072e+01        00000 
 2.78286e-03  8.77956e+01        00000 
-3.66617e+00  8.78079e+01        00000 
-7.26826e+00  8.78231e+01        00000 
 1.89227e+00  1.36172e+02        00000 
-1.88554e+00  1.36170e+02        00000 
 5.76099e+00  1.40209e+02        00000 
-5.75346e+00  1.40208e+02        00000 
 5.78781e+00  1.44297e+02        00000 
-5.77795e+00  1.44296e+02        00000 
 1.92470e+00  1.48323e+02        00000 
-1.91546e+00  1.48322e+02        00000 
 3.80830e+00  1.38170e+02        00000 
-3.79719e+00  1.38174e+02        00000 
 3.84549e+00  1.46318e+02        00000 
-3.84202e+00  1.46322e+02        00000 
-9.19566e-02  6.75979e-01        00000 
-3.95229e-02  4.19917e-01        00000 
-2.19225e-02  3.09531e-01        00000 
-1.51080e-03  2.56893e-01        00000 
-2.05445e-02  3.05839e-01        00000 
-9.81919e-06  2.42297e-01        00000 
 4.48986e-03  2.63826e-01        00000 
 3.33115e-03  2.42475e-01        00000 
 2.04153e-02  3.16461e-01        00000 
 2.59528e-02  3.96451e-01        00000 
 2.13590e-02  3.20183e-01        00000 
 1.03090e-01  6.70861e-01        00000 
-6.04087e-01  2.39952e+00        00000 
-4.74405e-01  1.77599e+00        00000 
-2.36364e-01  9.29775e-01        00000 
-4.44772e-01  1.37668e+00        00000 
-4.67206e-01  1.72647e+00        00000 
-3.28892e-01  1.04710e+00        00000 
-1.28546e-01  7.27799e-01        00000 
-8.36547e-02  6.06754e-01        00000 
-6.76359e-02  5.00592e-01        00000 
 6.02784e-02  4.74275e-01        00000 
 2.42408e-01  9.24390e-01        00000 
 8.74394e-02  5.93041e-01        00000 
 1.39663e-01  7.24101e-01        00000 
 4.48032e-01  1.38904e+00        00000 
 3.30789e-01  1.04828e+00        00000 
 4.92865e-01  1.77379e+00        00000 
 5.83168e-01  2.39631e+00        00000 
 5.01665e-01  1.82723e+00        00000 
-5.59327e-01  2.77924e+00        00000 
-5.11797e-01  4.41453e+00        00000 
-5.97190e-01  3.66180e+00        00000 
-5.94507e-01  2.53767e+00        00000 
 5.41427e-01  2.77328e+00        00000 
 5.73851e-01  2.53381e+00        00000 
 5.13551e-01  4.41156e+00        00000 
 5.55223e-01  3.61690e+00        00000 
-6.82354e-02  5.45487e+00        00000 
 7.35582e-01  7.52134e+00        00000 
 2.26013e-01  6.37283e+00        00000 
-3.25714e-01  4.91381e+00        00000 
 7.20674e-02  5.45182e+00        00000 
 3.26057e-01  4.90835e+00        00000 
-7.30641e-01  7.50863e+00        00000 
-2.43906e-01  6.34106e+00        00000 
 1.25698e+00  8.32090e+00        00000 
 2.17276e+00  9.58033e+00        00000 
 1.01640e+00  7.97556e+00        00000 
-1.25154e+00  8.30783e+00        00000 
-1.00969e+00  7.96346e+00        00000 
-2.18692e+00  9.57364e+00        00000 
 3.20918e+00  1.09834e+01        00000 
 4.51308e+00  1.20295e+01        00000 
 2.30721e+00  9.73166e+00        00000 
 3.81123e+00  1.12214e+01        00000 
-3.19962e+00  1.09840e+01        00000 
-4.49094e+00  1.20267e+01        00000 
-2.31944e+00  9.72541e+00        00000 
-3.79377e+00  1.12210e+01        00000 
 5.51090e+00  1.31003e+01        00000 
 5.24098e+00  1.27938e+01        00000 
 6.07462e+00  1.36537e+01        00000 
-5.48071e+00  1.30907e+01        00000 
-5.21529e+00  1.27899e+01        00000 
-5.98402e+00  1.36543e+01        00000 
 7.54453e+00  1.52292e+01        00000 
 8.52464e+00  1.62427e+01        00000 
 6.85883e+00  1.44545e+01        00000 
-7.38530e+00  1.53009e+01        00000 
-6.67641e+00  1.44772e+01        00000 
-8.69872e+00  1.62498e+01        00000 
 9.63238e+00  1.72716e+01        00000 
 8.59492e+00  1.63220e+01        00000 
 1.05373e+01  1.81298e+01        00000 
-9.81975e+00  1.72839e+01        00000 
-8.77022e+00  1.63261e+01        00000 
-1.06080e+01  1.81055e+01        00000 
 1.15301e+01  1.92737e+01        00000 
 1.08067e+01  1.84408e+01        00000 
 1.24674e+01  2.02561e+01        00000 
-1.17193e+01  1.92717e+01        00000 
-1.08779e+01  1.84183e+01        00000 
-1.26614e+01  2.02069e+01        00000 
 1.36133e+01  2.13083e+01        00000 
 1.25245e+01  2.03283e+01        00000 
 1.40946e+01  2.19209e+01        00000 
-1.34233e+01  2.12238e+01        00000 
-1.38891e+01  2.18799e+01        00000 
-1.27176e+01  2.02755e+01        00000 
 1.47474e+01  2.31024e+01        00000 
 1.52181e+01  2.40614e+01        00000 
 1.44836e+01  2.26222e+01        00000 
 1.48739e+01  2.33599e+01        00000 
-1.46886e+01  2.31235e+01        00000 
-1.51623e+01  2.40729e+01        00000 
-1.43706e+01  2.26156e+01        00000 
-1.48229e+01  2.33773e+01        00000 
 1.59547e+01  2.52255e+01        00000 
 1.54188e+01  2.47788e+01        00000 
 1.61431e+01  2.58202e+01        00000 
-1.59330e+01  2.52310e+01        00000 
-1.53797e+01  2.47833e+01        00000 
-1.61800e+01  2.58468e+01        00000 
 1.63029e+01  2.67609e+01        00000 
 1.61854e+01  2.59108e+01        00000 
 1.62433e+01  2.72043e+01        00000 
 1.63115e+01  2.69473e+01        00000 
-1.62856e+01  2.67550e+01        00000 
-1.62266e+01  2.71990e+01        00000 
-1.62950e+01  2.69414e+01        00000 
-1.62286e+01  2.59386e+01        00000 
 1.56463e+01  2.82920e+01        00000 
 1.60214e+01  2.78172e+01        00000 
 1.50541e+01  2.89954e+01        00000 
 1.54077e+01  2.86463e+01        00000 
-1.56317e+01  2.82911e+01        00000 
-1.50410e+01  2.89951e+01        00000 
-1.53928e+01  2.86456e+01        00000 
-1.59975e+01  2.78123e+01        00000 
 1.34222e+01  2.99780e+01        00000 
 1.43788e+01  2.94431e+01        00000 
 1.27363e+01  3.04281e+01        00000 
 1.30439e+01  3.02407e+01        00000 
 1.00075e+01  3.16910e+01        00000 
-9.99790e+00  3.16867e+01        00000 
-1.34157e+01  2.99791e+01        00000 
-1.27315e+01  3.04283e+01        00000 
-1.30386e+01  3.02412e+01        00000 
-1.43759e+01  2.94538e+01        00000 
 1.14214e+01  3.10809e+01        00000 
 8.50377e+00  3.21873e+01        00000 
 1.12608e+01  3.11542e+01        00000 
 9.56137e+00  3.17922e+01        00000 
 7.10255e+00  3.26519e+01        00000 
 7.49770e+00  3.25336e+01        00000 
 6.36324e+00  3.28594e+01        00000 
 4.25165e+00  3.33186e+01        00000 
 5.27771e+00  3.31233e+01        00000 
 1.41721e+00  3.36568e+01        00000 
-1.41085e+00  3.36557e+01        00000 
-4.24603e+00  3.33215e+01        00000 
-5.26976e+00  3.31264e+01        00000 
-8.49312e+00  3.21866e+01        00000 
-7.09159e+00  3.26516e+01        00000 
-6.35324e+00  3.28604e+01        00000 
-7.48622e+00  3.25328e+01        00000 
-9.55119e+00  3.17901e+01        00000 
-1.12436e+01  3.11401e+01        00000 
-1.14038e+01  3.10658e+01        00000 
 2.88150e+00  3.35467e+01        00000 
 2.77687e+00  3.35588e+01        00000 
 2.24439e-01  3.37118e+01        00000 
-2.15441e-01  3.37117e+01        00000 
-2.76794e+00  3.35571e+01        00000 
-2.87256e+00  3.35450e+01        00000 
 4.07588e+00  5.33613e+01        00000 
 1.36046e+00  5.25713e+01        00000 
-1.35191e+00  5.25740e+01        00000 
-4.07830e+00  5.33383e+01        00000 
 4.26181e+00  5.34568e+01        00000 
 6.91656e+00  5.52492e+01        00000 
 6.07217e+00  5.45862e+01        00000 
 4.13161e+00  5.33838e+01        00000 
 3.97529e+00  5.33249e+01        00000 
 1.90340e+00  5.26649e+01        00000 
 6.93409e-01  5.25086e+01        00000 
-6.87480e-01  5.25107e+01        00000 
-1.89705e+00  5.26659e+01        00000 
-4.26300e+00  5.34346e+01        00000 
-3.97761e+00  5.33026e+01        00000 
-4.13366e+00  5.33609e+01        00000 
-6.89276e+00  5.52581e+01        00000 
-6.05198e+00  5.45949e+01        00000 
 9.05908e+00  5.72343e+01        00000 
 9.89523e+00  5.84196e+01        00000 
 9.53396e+00  5.78073e+01        00000 