<?xml version="1.0" encoding="utf-8"?>
<VTKFile byte_order="LittleEndian" type="UnstructuredGrid" version="0.1">
   <UnstructuredGrid>
      <Piece NumberOfCells="3044" NumberOfPoints="1668">
         <Points>
            <DataArray Name="Points" NumberOfComponents="3" format="ascii" type="Float32">
-1.0000 -0.8947 0.0000
-1.0000 -0.7895 0.0000
-1.0000 -0.6842 0.0000
-1.0000 -0.5789 0.0000
-1.0000 -0.4737 0.0000
-1.0000 -0.3684 0.0000
-1.0000 -0.2632 0.0000
-1.0000 -0.1579 0.0000
-1.0000 -0.0526 0.0000
-1.0000 0.0526 0.0000
-1.0000 0.1579 0.0000
-1.0000 0.2632 0.0000
-1.0000 0.3684 0.0000
-1.0000 0.4737 0.0000
-1.0000 0.5789 0.0000
-1.0000 0.6842 0.0000
-1.0000 0.7895 0.0000
-1.0000 0.8947 0.0000
-1.0000 1.0000 0.0000
-0.8947 -0.8947 0.0000
-0.8947 -0.7895 0.0000
-0.8947 -0.6842 0.0000
-0.8947 -0.5789 0.0000
-0.8947 -0.4737 0.0000
-0.8947 -0.3684 0.0000
-0.8947 -0.2632 0.0000
-0.8947 -0.1579 0.0000
-0.8947 0.2632 0.0000
-0.8947 0.3684 0.0000
-0.8947 0.4737 0.0000
-0.8947 0.5789 0.0000
-0.8947 0.6842 0.0000
-0.8947 0.7895 0.0000
-0.8947 0.8947 0.0000
-0.8947 1.0000 0.0000
-0.7895 -0.8947 0.0000
-0.7895 -0.7895 0.0000
-0.7895 -0.6842 0.0000
-0.7895 -0.5789 0.0000
-0.7895 -0.4737 0.0000
-0.7895 0.5789 0.0000
-0.7895 0.6842 0.0000
-0.7895 0.7895 0.0000
-0.7895 0.8947 0.0000
-0.7895 1.0000 0.0000
-0.6842 -0.8947 0.0000
-0.6842 -0.7895 0.0000
-0.6842 -0.6842 0.0000
-0.6842 -0.5789 0.0000
-0.6842 0.6842 0.0000
-0.6842 0.7895 0.0000
-0.6842 0.8947 0.0000
-0.6842 1.0000 0.0000
-0.5789 -0.8947 0.0000
-0.5789 -0.7895 0.0000
-0.5789 -0.6842 0.0000
-0.5789 0.7895 0.0000
-0.5789 0.8947 0.0000
-0.5789 1.0000 0.0000
-0.4737 -0.8947 0.0000
-0.4737 -0.7895 0.0000
-0.4737 0.8947 0.0000
-0.4737 1.0000 0.0000
-0.3684 -0.8947 0.0000
-0.3684 -0.7895 0.0000
-0.3684 0.8947 0.0000
-0.3684 1.0000 0.0000
-0.2632 -0.8947 0.0000
-0.2632 1.0000 0.0000
-0.1579 -0.8947 0.0000
-0.1579 1.0000 0.0000
-0.0526 -0.8947 0.0000
-0.0526 1.0000 0.0000
0.0526 -0.8947 0.0000
0.0526 1.0000 0.0000
0.1579 -0.8947 0.0000
0.1579 1.0000 0.0000
0.2632 -0.8947 0.0000
0.2632 1.0000 0.0000
0.3684 -0.8947 0.0000
0.3684 -0.7895 0.0000
0.3684 0.8947 0.0000
0.3684 1.0000 0.0000
0.4737 -0.8947 0.0000
0.4737 -0.7895 0.0000
0.4737 0.8947 0.0000
0.4737 1.0000 0.0000
0.5789 -0.8947 0.0000
0.5789 -0.7895 0.0000
0.5789 -0.6842 0.0000
0.5789 0.7895 0.0000
0.5789 0.8947 0.0000
0.5789 1.0000 0.0000
0.6842 -0.8947 0.0000
0.6842 -0.7895 0.0000
0.6842 -0.6842 0.0000
0.6842 -0.5789 0.0000
0.6842 0.6842 0.0000
0.6842 0.7895 0.0000
0.6842 0.8947 0.0000
0.6842 1.0000 0.0000
0.7895 -0.8947 0.0000
0.7895 -0.7895 0.0000
0.7895 -0.6842 0.0000
0.7895 -0.5789 0.0000
0.7895 -0.4737 0.0000
0.7895 -0.3684 0.0000
0.7895 0.4737 0.0000
0.7895 0.5789 0.0000
0.7895 0.6842 0.0000
0.7895 0.7895 0.0000
0.7895 0.8947 0.0000
0.7895 1.0000 0.0000
0.8947 -0.8947 0.0000
0.8947 -0.7895 0.0000
0.8947 -0.6842 0.0000
0.8947 -0.5789 0.0000
0.8947 -0.4737 0.0000
0.8947 -0.3684 0.0000
0.8947 -0.2632 0.0000
0.8947 -0.1579 0.0000
0.8947 -0.0526 0.0000
0.8947 0.0526 0.0000
0.8947 0.1579 0.0000
0.8947 0.2632 0.0000
0.8947 0.3684 0.0000
0.8947 0.4737 0.0000
0.8947 0.5789 0.0000
0.8947 0.6842 0.0000
0.8947 0.7895 0.0000
0.8947 0.8947 0.0000
0.8947 1.0000 0.0000
-0.8947 -0.0526 0.0000
-0.8947 0.0526 0.0000
-0.8947 0.1579 0.0000
-0.7895 -0.3684 0.0000
-0.7895 0.3684 0.0000
-0.7895 0.4737 0.0000
-0.6842 0.5789 0.0000
-0.5789 0.6842 0.0000
-0.4737 0.7895 0.0000
-0.2632 0.8947 0.0000
-0.1579 0.8947 0.0000
0.2632 0.8947 0.0000
1.0000 -0.8947 0.0000
1.0000 -0.7895 0.0000
1.0000 -0.6842 0.0000
1.0000 -0.5789 0.0000
1.0000 -0.4737 0.0000
1.0000 -0.3684 0.0000
1.0000 -0.2632 0.0000
1.0000 -0.1579 0.0000
1.0000 -0.0526 0.0000
1.0000 0.0526 0.0000
1.0000 0.1579 0.0000
1.0000 0.2632 0.0000
1.0000 0.3684 0.0000
1.0000 0.4737 0.0000
1.0000 0.5789 0.0000
1.0000 0.6842 0.0000
1.0000 0.7895 0.0000
1.0000 0.8947 0.0000
1.0000 1.0000 0.0000
-0.8947 -1.0000 0.0000
-0.7895 -1.0000 0.0000
-0.6842 -1.0000 0.0000
-0.5789 -1.0000 0.0000
-0.4737 -1.0000 0.0000
-0.3684 -1.0000 0.0000
-0.3684 0.7895 0.0000
-0.2632 -1.0000 0.0000
-0.1579 -1.0000 0.0000
-0.0526 -1.0000 0.0000
-0.0526 0.8947 0.0000
0.0526 -1.0000 0.0000
0.0526 0.8947 0.0000
0.1579 -1.0000 0.0000
0.1579 0.8947 0.0000
0.2632 -1.0000 0.0000
0.3684 -1.0000 0.0000
0.3684 0.7895 0.0000
0.4737 -1.0000 0.0000
0.4737 0.7895 0.0000
0.5789 -1.0000 0.0000
0.5789 0.6842 0.0000
0.6842 -1.0000 0.0000
0.6842 0.5789 0.0000
0.7895 -1.0000 0.0000
0.8947 -1.0000 0.0000
1.0000 -1.0000 0.0000
-1.0000 -1.0000 0.0000
0.7895 0.3684 0.0000
1.1053 -0.8947 0.0000
1.1053 -0.7895 0.0000
1.1053 -0.6842 0.0000
1.1053 -0.5789 0.0000
1.1053 -0.4737 0.0000
1.1053 -0.3684 0.0000
1.1053 -0.2632 0.0000
1.1053 -0.1579 0.0000
1.1053 -0.0526 0.0000
1.1053 0.0526 0.0000
1.1053 0.1579 0.0000
1.1053 0.2632 0.0000
1.1053 0.3684 0.0000
1.1053 0.4737 0.0000
1.1053 0.5789 0.0000
1.1053 0.6842 0.0000
1.1053 0.7895 0.0000
1.1053 0.8947 0.0000
1.1053 1.0000 0.0000
1.2105 -0.8947 0.0000
1.2105 -0.7895 0.0000
1.2105 -0.6842 0.0000
1.2105 -0.5789 0.0000
1.2105 -0.4737 0.0000
1.2105 -0.3684 0.0000
1.2105 -0.2632 0.0000
1.2105 -0.1579 0.0000
1.2105 -0.0526 0.0000
1.2105 0.0526 0.0000
1.2105 0.1579 0.0000
1.2105 0.2632 0.0000
1.2105 0.3684 0.0000
1.2105 0.4737 0.0000
1.2105 0.5789 0.0000
1.2105 0.6842 0.0000
1.2105 0.7895 0.0000
1.2105 0.8947 0.0000
1.2105 1.0000 0.0000
1.3158 -0.8947 0.0000
1.3158 -0.7895 0.0000
1.3158 -0.6842 0.0000
1.3158 -0.5789 0.0000
1.3158 -0.4737 0.0000
1.3158 -0.3684 0.0000
1.3158 -0.2632 0.0000
1.3158 -0.1579 0.0000
1.3158 -0.0526 0.0000
1.3158 0.0526 0.0000
1.3158 0.1579 0.0000
1.3158 0.2632 0.0000
1.3158 0.3684 0.0000
1.3158 0.4737 0.0000
1.3158 0.5789 0.0000
1.3158 0.6842 0.0000
1.3158 0.7895 0.0000
1.3158 0.8947 0.0000
1.3158 1.0000 0.0000
1.4211 -0.8947 0.0000
1.4211 -0.7895 0.0000
1.4211 -0.6842 0.0000
1.4211 -0.5789 0.0000
1.4211 -0.4737 0.0000
1.4211 -0.3684 0.0000
1.4211 -0.2632 0.0000
1.4211 -0.1579 0.0000
1.4211 -0.0526 0.0000
1.4211 0.0526 0.0000
1.4211 0.1579 0.0000
1.4211 0.2632 0.0000
1.4211 0.3684 0.0000
1.4211 0.4737 0.0000
1.4211 0.5789 0.0000
1.4211 0.6842 0.0000
1.4211 0.7895 0.0000
1.4211 0.8947 0.0000
1.4211 1.0000 0.0000
1.5263 -0.8947 0.0000
1.5263 -0.7895 0.0000
1.5263 -0.6842 0.0000
1.5263 -0.5789 0.0000
1.5263 -0.4737 0.0000
1.5263 -0.3684 0.0000
1.5263 -0.2632 0.0000
1.5263 0.3684 0.0000
1.5263 0.4737 0.0000
1.5263 0.5789 0.0000
1.5263 0.6842 0.0000
1.5263 0.7895 0.0000
1.5263 0.8947 0.0000
1.5263 1.0000 0.0000
1.6316 -0.8947 0.0000
1.6316 -0.7895 0.0000
1.6316 -0.6842 0.0000
1.6316 -0.5789 0.0000
1.6316 -0.4737 0.0000
1.6316 -0.3684 0.0000
1.6316 0.4737 0.0000
1.6316 0.5789 0.0000
1.6316 0.6842 0.0000
1.6316 0.7895 0.0000
1.6316 0.8947 0.0000
1.6316 1.0000 0.0000
1.7368 -0.8947 0.0000
1.7368 -0.7895 0.0000
1.7368 -0.6842 0.0000
1.7368 -0.5789 0.0000
1.7368 -0.4737 0.0000
1.7368 0.5789 0.0000
1.7368 0.6842 0.0000
1.7368 0.7895 0.0000
1.7368 0.8947 0.0000
1.7368 1.0000 0.0000
1.8421 -0.8947 0.0000
1.8421 -0.7895 0.0000
1.8421 -0.6842 0.0000
1.8421 -0.5789 0.0000
1.8421 0.6842 0.0000
1.8421 0.7895 0.0000
1.8421 0.8947 0.0000
1.8421 1.0000 0.0000
1.9474 -0.8947 0.0000
1.9474 -0.7895 0.0000
1.9474 -0.6842 0.0000
1.9474 -0.5789 0.0000
1.9474 0.6842 0.0000
1.9474 0.7895 0.0000
1.9474 0.8947 0.0000
1.9474 1.0000 0.0000
2.0526 -0.8947 0.0000
2.0526 -0.7895 0.0000
2.0526 -0.6842 0.0000
2.0526 -0.5789 0.0000
2.0526 0.6842 0.0000
2.0526 0.7895 0.0000
2.0526 0.8947 0.0000
2.0526 1.0000 0.0000
2.1579 -0.8947 0.0000
2.1579 -0.7895 0.0000
2.1579 -0.6842 0.0000
2.1579 -0.5789 0.0000
2.1579 0.6842 0.0000
2.1579 0.7895 0.0000
2.1579 0.8947 0.0000
2.1579 1.0000 0.0000
2.2632 -0.8947 0.0000
2.2632 -0.7895 0.0000
2.2632 -0.6842 0.0000
2.2632 -0.5789 0.0000
2.2632 -0.4737 0.0000
2.2632 0.5789 0.0000
2.2632 0.6842 0.0000
2.2632 0.7895 0.0000
2.2632 0.8947 0.0000
2.2632 1.0000 0.0000
2.3684 -0.8947 0.0000
2.3684 -0.7895 0.0000
2.3684 -0.6842 0.0000
2.3684 -0.5789 0.0000
2.3684 -0.4737 0.0000
2.3684 -0.3684 0.0000
2.3684 0.4737 0.0000
2.3684 0.5789 0.0000
2.3684 0.6842 0.0000
2.3684 0.7895 0.0000
2.3684 0.8947 0.0000
2.3684 1.0000 0.0000
2.4737 -0.8947 0.0000
2.4737 -0.7895 0.0000
2.4737 -0.6842 0.0000
2.4737 -0.5789 0.0000
2.4737 -0.4737 0.0000
2.4737 -0.3684 0.0000
2.4737 -0.2632 0.0000
2.4737 0.3684 0.0000
2.4737 0.4737 0.0000
2.4737 0.5789 0.0000
2.4737 0.6842 0.0000
2.4737 0.7895 0.0000
2.4737 0.8947 0.0000
2.4737 1.0000 0.0000
2.5789 -0.8947 0.0000
2.5789 -0.7895 0.0000
2.5789 -0.6842 0.0000
2.5789 -0.5789 0.0000
2.5789 -0.4737 0.0000
2.5789 -0.3684 0.0000
2.5789 -0.2632 0.0000
2.5789 -0.1579 0.0000
2.5789 -0.0526 0.0000
2.5789 0.0526 0.0000
2.5789 0.1579 0.0000
2.5789 0.2632 0.0000
2.5789 0.3684 0.0000
2.5789 0.4737 0.0000
2.5789 0.5789 0.0000
2.5789 0.6842 0.0000
2.5789 0.7895 0.0000
2.5789 0.8947 0.0000
2.5789 1.0000 0.0000
2.6842 -0.8947 0.0000
2.6842 -0.7895 0.0000
2.6842 -0.6842 0.0000
2.6842 -0.5789 0.0000
2.6842 -0.4737 0.0000
2.6842 -0.3684 0.0000
2.6842 -0.2632 0.0000
2.6842 -0.1579 0.0000
2.6842 -0.0526 0.0000
2.6842 0.0526 0.0000
2.6842 0.1579 0.0000
2.6842 0.2632 0.0000
2.6842 0.3684 0.0000
2.6842 0.4737 0.0000
2.6842 0.5789 0.0000
2.6842 0.6842 0.0000
2.6842 0.7895 0.0000
2.6842 0.8947 0.0000
2.6842 1.0000 0.0000
2.7895 -0.8947 0.0000
2.7895 -0.7895 0.0000
2.7895 -0.6842 0.0000
2.7895 -0.5789 0.0000
2.7895 -0.4737 0.0000
2.7895 -0.3684 0.0000
2.7895 -0.2632 0.0000
2.7895 -0.1579 0.0000
2.7895 -0.0526 0.0000
2.7895 0.0526 0.0000
2.7895 0.1579 0.0000
2.7895 0.2632 0.0000
2.7895 0.3684 0.0000
2.7895 0.4737 0.0000
2.7895 0.5789 0.0000
2.7895 0.6842 0.0000
2.7895 0.7895 0.0000
2.7895 0.8947 0.0000
2.7895 1.0000 0.0000
2.8947 -0.8947 0.0000
2.8947 -0.7895 0.0000
2.8947 -0.6842 0.0000
2.8947 -0.5789 0.0000
2.8947 -0.4737 0.0000
2.8947 -0.3684 0.0000
2.8947 -0.2632 0.0000
2.8947 -0.1579 0.0000
2.8947 -0.0526 0.0000
2.8947 0.0526 0.0000
2.8947 0.1579 0.0000
2.8947 0.2632 0.0000
2.8947 0.3684 0.0000
2.8947 0.4737 0.0000
2.8947 0.5789 0.0000
2.8947 0.6842 0.0000
2.8947 0.7895 0.0000
[...]
         <PointData>
            <DataArray Name="fValues" NumberOfComponents="3" format="ascii" type="Float64">
-2.18199e-17  3.05479e-16        00000 
 2.15772e-17 -3.23658e-17        00000 
 1.15218e-17 -3.38877e-18        00000 
-1.07886e-17  5.39430e-18        00000 
 5.44217e-18  2.17687e-17        00000 
-2.96687e-17 -1.61829e-17        00000 
-5.44799e-18  8.71678e-17        00000 
 4.07075e-18        00000        00000 
-4.74910e-18  2.17102e-17        00000 
 5.76231e-18  4.88102e-17        00000 
 1.34858e-18  5.93374e-17        00000 
 1.90680e-17  6.53758e-17        00000 
 1.07886e-17  4.31544e-17        00000 
 3.26530e-17  6.53061e-17        00000 
-2.42744e-17  2.15772e-17        00000 
 1.08441e-17 -2.71102e-17        00000 
-4.45030e-17  1.07886e-17        00000 
 2.18199e-17  4.36399e-17        00000 
 1.65809e-16 -1.82174e-16        00000 
 8.61180e-01  1.24926e+00        00000 
 4.28727e-01  1.03425e+00        00000 
 9.99030e-02  8.36336e-01        00000 
-1.45518e-01  7.35549e-01        00000 
-2.65360e-01  6.74577e-01        00000 
-2.44419e-01  5.98637e-01        00000 
-1.17136e-01  4.71442e-01        00000 
-4.80719e-02  3.13277e-01        00000 
 1.25987e-01  4.71307e-01        00000 
 2.46301e-01  5.98900e-01        00000 
 2.63749e-01  6.74663e-01        00000 
 1.43524e-01  7.37689e-01        00000 
-1.00508e-01  8.38771e-01        00000 
-4.15225e-01  1.02852e+00        00000 
-8.64165e-01  1.26315e+00        00000 
-1.89688e+00  1.71914e+00        00000 
 1.92414e+00  2.91617e+00        00000 
 1.01479e+00  2.45595e+00        00000 
 2.86333e-01  2.04078e+00        00000 
-2.59946e-01  1.76274e+00        00000 
-4.80786e-01  1.51298e+00        00000 
 2.56511e-01  1.76710e+00        00000 
-2.85722e-01  2.04194e+00        00000 
-9.98842e-01  2.45561e+00        00000 
-1.93797e+00  2.93417e+00        00000 
-3.34709e+00  3.36782e+00        00000 
 3.02961e+00  4.73803e+00        00000 
 1.72789e+00  4.17129e+00        00000 
 5.34734e-01  3.60552e+00        00000 
-3.71193e-01  3.13946e+00        00000 
-5.32914e-01  3.60038e+00        00000 
-1.71666e+00  4.16626e+00        00000 
-3.04037e+00  4.75127e+00        00000 
-4.67332e+00  5.22343e+00        00000 
 4.17504e+00  6.75097e+00        00000 
 2.48798e+00  6.19105e+00        00000 
 7.13835e-01  5.68432e+00        00000 
-2.48014e+00  6.18249e+00        00000 
-4.18119e+00  6.75827e+00        00000 
-6.00467e+00  7.23688e+00        00000 
 5.32690e+00  8.94795e+00        00000 
 3.21379e+00  8.50101e+00        00000 
-5.32717e+00  8.94910e+00        00000 
-7.32151e+00  9.39627e+00        00000 
 6.47511e+00  1.12339e+01        00000 
 3.95885e+00  1.09629e+01        00000 
-6.46642e+00  1.12266e+01        00000 
-8.60089e+00  1.16148e+01        00000 
 7.66233e+00  1.34124e+01        00000 
-9.92712e+00  1.38258e+01        00000 
 9.05920e+00  1.54958e+01        00000 
-1.13058e+01  1.60373e+01        00000 
 1.06432e+01  1.75802e+01        00000 
-1.27608e+01  1.81171e+01        00000 
 1.23764e+01  1.95812e+01        00000 
-1.42825e+01  2.01083e+01        00000 
 1.41085e+01  2.16129e+01        00000 
-1.58039e+01  2.20367e+01        00000 
 1.56716e+01  2.34589e+01        00000 
-1.72574e+01  2.39509e+01        00000 
 1.69905e+01  2.54188e+01        00000 
 1.59378e+01  2.51670e+01        00000 
-1.69846e+01  2.54325e+01        00000 
-1.86292e+01  2.58313e+01        00000 
 1.82585e+01  2.72203e+01        00000 
 1.69851e+01  2.68558e+01        00000 
-1.82524e+01  2.72281e+01        00000 
-1.99560e+01  2.76584e+01        00000 
 1.95012e+01  2.90485e+01        00000 
 1.79225e+01  2.86283e+01        00000 
 1.65340e+01  2.83476e+01        00000 
-1.79062e+01  2.86271e+01        00000 
-1.94963e+01  2.90544e+01        00000 
-2.13007e+01  2.95050e+01        00000 
 2.07145e+01  3.09939e+01        00000 
 1.88427e+01  3.05675e+01        00000 
 1.70071e+01  3.02393e+01        00000 
 1.50854e+01  3.00680e+01        00000 
-1.69926e+01  3.02389e+01        00000 
-1.88313e+01  3.05663e+01        00000 
-2.07083e+01  3.09984e+01        00000 
-2.26513e+01  3.14447e+01        00000 
 2.18805e+01  3.30652e+01        00000 
 1.97142e+01  3.26940e+01        00000 
 1.75002e+01  3.24369e+01        00000 
 1.52082e+01  3.23224e+01        00000 
 1.27181e+01  3.22873e+01        00000 
 9.99689e+00  3.22329e+01        00000 
-1.27103e+01  3.22829e+01        00000 
-1.51987e+01  3.23192e+01        00000 
-1.74891e+01  3.24345e+01        00000 
-1.97103e+01  3.26913e+01        00000 
-2.18724e+01  3.30659e+01        00000 
-2.39781e+01  3.34981e+01        00000 
 2.28984e+01  3.53282e+01        00000 
 2.04374e+01  3.50645e+01        00000 
 1.79205e+01  3.49277e+01        00000 
 1.53587e+01  3.48835e+01        00000 
 1.27103e+01  3.48988e+01        00000 
 9.95135e+00  3.49300e+01        00000 
 7.10626e+00  3.49390e+01        00000 
 4.25296e+00  3.49232e+01        00000 
 1.41793e+00  3.49134e+01        00000 
-1.41213e+00  3.49130e+01        00000 
-4.24783e+00  3.49231e+01        00000 
-7.09716e+00  3.49387e+01        00000 
-9.94306e+00  3.49304e+01        00000 
-1.27037e+01  3.49003e+01        00000 
-1.53532e+01  3.48851e+01        00000 
-1.79149e+01  3.49301e+01        00000 
-2.04437e+01  3.50677e+01        00000 
-2.28865e+01  3.53210e+01        00000 
-2.52234e+01  3.56738e+01        00000 
-8.95785e-03  2.23059e-01        00000 
 1.25370e-02  2.24208e-01        00000 
 3.93413e-02  3.12667e-01        00000 
-3.96102e-01  1.15172e+00        00000 
 3.96186e-01  1.14723e+00        00000 
 4.74473e-01  1.52073e+00        00000 
 3.70005e-01  3.13379e+00        00000 
-7.09941e-01  5.67844e+00        00000 
-3.20811e+00  8.49726e+00        00000 
-7.63510e+00  1.33795e+01        00000 
-9.05342e+00  1.55729e+01        00000 
-1.56517e+01  2.34967e+01        00000 
 2.36982e+01  3.79425e+01        00000 
 2.09758e+01  3.78158e+01        00000 
 1.82490e+01  3.77597e+01        00000 
 1.55053e+01  3.77454e+01        00000 
 1.27316e+01  3.77595e+01        00000 
 9.92105e+00  3.77855e+01        00000 
 7.08504e+00  3.78061e+01        00000 
 4.24637e+00  3.78156e+01        00000 
 1.41667e+00  3.78177e+01        00000 
-1.40821e+00  3.78178e+01        00000 
-4.23803e+00  3.78152e+01        00000 
-7.07558e+00  3.78057e+01        00000 
-9.91141e+00  3.77854e+01        00000 
-1.27221e+01  3.77591e+01        00000 
-1.54956e+01  3.77445e+01        00000 
-1.82391e+01  3.77587e+01        00000 
-2.09673e+01  3.78128e+01        00000 
-2.36780e+01  3.79299e+01        00000 
-2.63790e+01  3.82137e+01        00000 
 1.89688e+00  1.72220e+00        00000 
 3.35496e+00  3.36845e+00        00000 
 4.68153e+00  5.22746e+00        00000 
 6.01408e+00  7.24259e+00        00000 
 7.33283e+00  9.40258e+00        00000 
 8.61304e+00  1.16303e+01        00000 
-3.94598e+00  1.09618e+01        00000 
 9.91213e+00  1.38288e+01        00000 
 1.12880e+01  1.59780e+01        00000 
 1.27600e+01  1.80876e+01        00000 
-1.07065e+01  1.75687e+01        00000 
 1.42848e+01  2.01310e+01        00000 
-1.24431e+01  1.95807e+01        00000 
 1.57890e+01  2.20979e+01        00000 
-1.41087e+01  2.15122e+01        00000 
 1.72454e+01  2.39433e+01        00000 
 1.86477e+01  2.58144e+01        00000 
-1.58945e+01  2.51723e+01        00000 
 1.99714e+01  2.76568e+01        00000 
-1.69660e+01  2.68535e+01        00000 
 2.13141e+01  2.95060e+01        00000 
-1.65177e+01  2.83462e+01        00000 
 2.26646e+01  3.14462e+01        00000 
-1.50727e+01  3.00682e+01        00000 
 2.39948e+01  3.34989e+01        00000 
 2.52444e+01  3.56637e+01        00000 
 2.63966e+01  3.82238e+01        00000 
 1.76719e-16 -2.47634e-16        00000 
-9.98701e+00  3.22319e+01        00000 
 2.42924e+01  4.10728e+01        00000 
 2.13863e+01  4.09801e+01        00000 
 1.85198e+01  4.09120e+01        00000 
 1.56520e+01  4.08706e+01        00000 
 1.27822e+01  4.08529e+01        00000 
 9.91474e+00  4.08554e+01        00000 
 7.05932e+00  4.08708e+01        00000 
 4.22438e+00  4.08893e+01        00000 
 1.40911e+00  4.09017e+01        00000 
-1.39813e+00  4.09020e+01        00000 
-4.21343e+00  4.08896e+01        00000 
-7.04824e+00  4.08703e+01        00000 
-9.90317e+00  4.08534e+01        00000 
-1.27697e+01  4.08495e+01        00000 
-1.56382e+01  4.08662e+01        00000 
-1.85055e+01  4.09072e+01        00000 
-2.13636e+01  4.09732e+01        00000 
-2.42789e+01  4.10739e+01        00000 
-2.73625e+01  4.12595e+01        00000 
 2.47443e+01  4.44761e+01        00000 
 2.17282e+01  4.43392e+01        00000 
 1.87640e+01  4.42131e+01        00000 
 1.58023e+01  4.41201e+01        00000 
 1.28495e+01  4.40628e+01        00000 
 9.91861e+00  4.40401e+01        00000 
 7.02754e+00  4.40448e+01        00000 
 4.18759e+00  4.40629e+01        00000 
 1.39232e+00  4.40779e+01        00000 
-1.38495e+00  4.40781e+01        00000 
-4.17945e+00  4.40635e+01        00000 
-7.01815e+00  4.40451e+01        00000 
-9.90851e+00  4.40398e+01        00000 
-1.28393e+01  4.40618e+01        00000 
-1.57922e+01  4.41187e+01        00000 
-1.87545e+01  4.42114e+01        00000 
-2.17148e+01  4.43374e+01        00000 
-2.47408e+01  4.44791e+01        00000 
-2.80127e+01  4.46288e+01        00000 
 2.51584e+01  4.79324e+01        00000 
 2.20665e+01  4.77533e+01        00000 
 1.90189e+01  4.75704e+01        00000 
 1.59703e+01  4.74236e+01        00000 
 1.29315e+01  4.73201e+01        00000 
 9.92659e+00  4.72606e+01        00000 
 6.98848e+00  4.72381e+01        00000 
 4.13980e+00  4.72384e+01        00000 
 1.37131e+00  4.72441e+01        00000 
-1.36482e+00  4.72446e+01        00000 
-4.13193e+00  4.72388e+01        00000 
-6.97784e+00  4.72385e+01        00000 
-9.91510e+00  4.72596e+01        00000 
-1.29209e+01  4.73190e+01        00000 
-1.59604e+01  4.74227e+01        00000 
-1.90098e+01  4.75695e+01        00000 
-2.20534e+01  4.77528e+01        00000 
-2.51572e+01  4.79368e+01        00000 
-2.84618e+01  4.80893e+01        00000 
 2.55749e+01  5.14054e+01        00000 
 2.24273e+01  5.12004e+01        00000 
 1.93054e+01  5.09732e+01        00000 
 1.61691e+01  5.07759e+01        00000 
 1.30339e+01  5.06209e+01        00000 
 9.94032e+00  5.05105e+01        00000 
 6.94510e+00  5.04326e+01        00000 
 4.08596e+00  5.03727e+01        00000 
 1.35011e+00  5.03326e+01        00000 
-1.34479e+00  5.03306e+01        00000 
-4.08061e+00  5.03742e+01        00000 
-6.93096e+00  5.04307e+01        00000 
-9.92799e+00  5.05086e+01        00000 
-1.30237e+01  5.06199e+01        00000 
-1.61598e+01  5.07755e+01        00000 
-1.92966e+01  5.09727e+01        00000 
-2.24155e+01  5.11996e+01        00000 
-2.55729e+01  5.14095e+01        00000 
-2.89066e+01  5.15703e+01        00000 
 2.60021e+01  5.49036e+01        00000 
 2.28107e+01  5.46846e+01        00000 
 1.96238e+01  5.44303e+01        00000 
 1.64023e+01  5.41951e+01        00000 
 1.31576e+01  5.39920e+01        00000 
 9.95462e+00  5.38306e+01        00000 
 6.91299e+00  5.36706e+01        00000 
-9.94281e+00  5.38298e+01        00000 
-1.31482e+01  5.39928e+01        00000 
-1.63931e+01  5.41959e+01        00000 
-1.96150e+01  5.44305e+01        00000 
-2.27997e+01  5.46838e+01        00000 
-2.59997e+01  5.49075e+01        00000 
-2.93552e+01  5.50730e+01        00000 
 2.64343e+01  5.84275e+01        00000 
 2.32076e+01  5.82102e+01        00000 
 1.99660e+01  5.79552e+01        00000 
 1.66651e+01  5.77115e+01        00000 
 1.32995e+01  5.74939e+01        00000 
 9.93077e+00  5.73096e+01        00000 
-1.32904e+01  5.74974e+01        00000 
-1.66556e+01  5.77133e+01        00000 
-1.99569e+01  5.79557e+01        00000 
-2.31972e+01  5.82096e+01        00000 
-2.64316e+01  5.84309e+01        00000 
-2.98059e+01  5.85959e+01        00000 
 2.68643e+01  6.19743e+01        00000 
 2.36059e+01  6.17750e+01        00000 
 2.03176e+01  6.15492e+01        00000 
 1.69459e+01  6.13403e+01        00000 
 1.34284e+01  6.11827e+01        00000 
-1.69355e+01  6.13408e+01        00000 
-2.03087e+01  6.15502e+01        00000 
-2.35958e+01  6.17746e+01        00000 
-2.68615e+01  6.19769e+01        00000 
-3.02528e+01  6.21361e+01        00000 
 2.72858e+01  6.55343e+01        00000 
 2.39946e+01  6.53635e+01        00000 
 2.06662e+01  6.51855e+01        00000 
 1.72386e+01  6.50316e+01        00000 
-2.06562e+01  6.51864e+01        00000 
-2.39846e+01  6.53634e+01        00000 
-2.72828e+01  6.55361e+01        00000 
-3.06909e+01  6.56860e+01        00000 
 2.76967e+01  6.90936e+01        00000 
 2.43693e+01  6.89506e+01        00000 
 2.10088e+01  6.88192e+01        00000 
 1.75611e+01  6.87090e+01        00000 
-2.09989e+01  6.88181e+01        00000 
-2.43594e+01  6.89504e+01        00000 
-2.76935e+01  6.90947e+01        00000 
-3.11185e+01  6.92355e+01        00000 
 2.81001e+01  7.26391e+01        00000 
 2.47345e+01  7.25129e+01        00000 
 2.13480e+01  7.24077e+01        00000 
 1.79277e+01  7.23180e+01        00000 
-2.13387e+01  7.24068e+01        00000 
-2.47248e+01  7.25129e+01        00000 
-2.80965e+01  7.26399e+01        00000 
-3.15385e+01  7.27754e+01        00000 
 2.85026e+01  7.61650e+01        00000 
 2.50994e+01  7.60410e+01        00000 
 2.16920e+01  7.59375e+01        00000 
 1.82891e+01  7.58531e+01        00000 
-2.16829e+01  7.59360e+01        00000 
-2.50901e+01  7.60414e+01        00000 
-2.84983e+01  7.61662e+01        00000 
-3.19569e+01  7.63015e+01        00000 
 2.89103e+01  7.96749e+01        00000 
 2.54726e+01  7.95420e+01        00000 
 2.20419e+01  7.94219e+01        00000 
 1.86426e+01  7.93140e+01        00000 
 1.53619e+01  7.92300e+01        00000 
-1.86318e+01  7.93188e+01        00000 
-2.20341e+01  7.94226e+01        00000 
-2.54635e+01  7.95430e+01        00000 
-2.89051e+01  7.96765e+01        00000 
-3.23796e+01  7.98156e+01        00000 
 2.93259e+01  8.31780e+01        00000 
 2.58567e+01  8.30340e+01        00000 
 2.23992e+01  8.28950e+01        00000 
 1.89748e+01  8.27688e+01        00000 
 1.56209e+01  8.26677e+01        00000 
 1.23423e+01  8.26225e+01        00000 
-1.56127e+01  8.26689e+01        00000 
-1.89650e+01  8.27709e+01        00000 
-2.23903e+01  8.28969e+01        00000 
-2.58478e+01  8.30352e+01        00000 
-2.93197e+01  8.31800e+01        00000 
-3.28097e+01  8.33240e+01        00000 
 2.97480e+01  8.66847e+01        00000 
 2.62477e+01  8.65344e+01        00000 
 2.27558e+01  8.63878e+01        00000 
 1.92874e+01  8.62579e+01        00000 
 1.58573e+01  8.61532e+01        00000 
 1.24562e+01  8.60858e+01        00000 
 9.03236e+00  8.60555e+01        00000 
-1.24506e+01  8.60862e+01        00000 
-1.58502e+01  8.61533e+01        00000 
-1.92788e+01  8.62586e+01        00000 
-2.27470e+01  8.63888e+01        00000 
-2.62391e+01  8.65354e+01        00000 
-2.97409e+01  8.66866e+01        00000 
-3.32469e+01  8.68341e+01        00000 
 3.01724e+01  9.02023e+01        00000 
 2.66386e+01  9.00539e+01        00000 
 2.31039e+01  8.99131e+01        00000 
 1.95821e+01  8.97931e+01        00000 
 1.60795e+01  8.96997e+01        00000 
 1.25865e+01  8.96392e+01        00000 
 9.07156e+00  8.96136e+01        00000 
 5.49219e+00  8.96119e+01        00000 
 1.84281e+00  8.96153e+01        00000 
-1.83666e+00  8.96158e+01        00000 
-5.48645e+00  8.96119e+01        00000 
-9.06458e+00  8.96142e+01        00000 
-1.25798e+01  8.96397e+01        00000 
-1.60724e+01  8.96999e+01        00000 
-1.95742e+01  8.97934e+01        00000 
-2.30955e+01  8.99136e+01        00000 
-2.66306e+01  9.00544e+01        00000 
-3.01648e+01  9.02037e+01        00000 
-3.36884e+01  9.03519e+01        00000 
 3.05937e+01  9.37353e+01        00000 
 2.70215e+01  9.35974e+01        00000 
 2.34374e+01  9.34751e+01        00000 
 1.98582e+01  9.33759e+01        00000 
 1.62872e+01  9.33022e+01        00000 
 1.27173e+01  9.32573e+01        00000 
 9.12997e+00  9.32405e+01        00000 
 5.50595e+00  9.32432e+01        00000 
 1.84301e+00  9.32505e+01        00000 
-1.83671e+00  9.32505e+01        00000 
-5.49956e+00  9.32434e+01        00000 
-9.12321e+00  9.32407e+01        00000 
-1.27102e+01  9.32575e+01        00000 
-1.62799e+01  9.33025e+01        00000 
-1.98505e+01  9.33762e+01        00000 
-2.34295e+01  9.34756e+01        00000 
-2.70147e+01  9.35978e+01        00000 
-3.05857e+01  9.37359e+01        00000 
-3.41305e+01  9.38814e+01        00000 
 3.10028e+01  9.72865e+01        00000 
 2.73860e+01  9.71682e+01        00000 
 2.37486e+01  9.70773e+01        00000 
 2.01122e+01  9.70068e+01        00000 
 1.64788e+01  9.69569e+01        00000 
 1.28439e+01  9.69283e+01        00000 
 9.19830e+00  9.69189e+01        00000 
 5.53342e+00  9.69218e+01        00000 
 1.84934e+00  9.69271e+01        00000 
-1.84284e+00  9.69271e+01        00000 
-5.52686e+00  9.69217e+01        00000 
-9.19158e+00  9.69187e+01        00000 
-1.28371e+01  9.69281e+01        00000 
-1.64717e+01  9.69568e+01        00000 
-2.01050e+01  9.70068e+01        00000 
-2.37411e+01  9.70772e+01        00000 
-2.73807e+01  9.71683e+01        00000 
-3.09946e+01  9.72860e+01        00000 
-3.45677e+01  9.74273e+01        00000 
 3.13645e+01  1.00874e+02        00000 
 2.76939e+01  1.00788e+02        00000 
 2.40093e+01  1.00737e+02        00000 
 2.03241e+01  1.00700e+02        00000 
 1.66400e+01  1.00675e+02        00000 
 1.29547e+01  1.00661e+02        00000 
 9.26411e+00  1.00658e+02        00000 
 5.56518e+00  1.00661e+02        00000 
 1.85822e+00  1.00664e+02        00000 
-1.85208e+00  1.00665e+02        00000 
-5.55906e+00  1.00661e+02        00000 
-9.25804e+00  1.00659e+02        00000 
-1.29486e+01  1.00663e+02        00000 
-1.66340e+01  1.00677e+02        00000 
-2.03183e+01  1.00703e+02        00000 
-2.40034e+01  1.00740e+02        00000 
-2.76912e+01  1.00792e+02        00000 
-3.13552e+01  1.00874e+02        00000 
-3.49804e+01  1.00991e+02        00000 
-6.89371e+00  5.36686e+01        00000 
-9.91873e+00  5.73180e+01        00000 
-1.34187e+01  6.11851e+01        00000 
-1.72316e+01  6.50354e+01        00000 
-1.75492e+01  6.87074e+01        00000 
-1.79145e+01  7.23168e+01        00000 
-1.82841e+01  7.58471e+01        00000 
 3.16516e+01  1.04570e+02        00000 
 2.79270e+01  1.04527e+02        00000 
 2.42059e+01  1.04507e+02        00000 
 2.04849e+01  1.04493e+02        00000 
 1.67645e+01  1.04484e+02        00000 
 1.30438e+01  1.04479e+02        00000 
 9.32119e+00  1.04478e+02        00000 
 5.59587e+00  1.04479e+02        00000 
 1.86801e+00  1.04480e+02        00000 
-1.86088e+00  1.04480e+02        00000 
-5.58871e+00  1.04479e+02        00000 
-9.31397e+00  1.04478e+02        00000 
-1.30365e+01  1.04479e+02        00000 
-1.67572e+01  1.04484e+02        00000 
-2.04776e+01  1.04494e+02        00000 
-2.41986e+01  1.04507e+02        00000 
-2.79196e+01  1.04527e+02        00000 
-3.16407e+01  1.04567e+02        00000 
-3.53714e+01  1.04662e+02        00000 
 2.73689e+01  4.12731e+01        00000 
 2.80202e+01  4.46268e+01        00000 
 2.84703e+01  4.80900e+01        00000 
 2.89155e+01  5.15709e+01        00000 
 2.93642e+01  5.50735e+01        00000 
 2.98149e+01  5.85962e+01        00000 
 3.02618e+01  6.21362e+01        00000 
 3.06997e+01  6.56860e+01        00000 
 3.11270e+01  6.92355e+01        00000 
 3.15467e+01  7.27754e+01        00000 
 3.19648e+01  7.63014e+01        00000 
 3.23875e+01  7.98153e+01        00000 
-1.53527e+01  7.92377e+01        00000 
 3.28177e+01  8.33236e+01        00000 
-1.23402e+01  8.26225e+01        00000 
 3.32551e+01  8.68336e+01        00000 
-9.02500e+00  8.60569e+01        00000 
 3.36967e+01  9.03513e+01        00000 
 3.41391e+01  9.38807e+01        00000 
 3.45774e+01  9.74269e+01        00000 
 3.49915e+01  1.00984e+02        00000 
 3.53828e+01  1.04664e+02        00000 
 3.18646e+01  1.08454e+02        00000 