<?xml version="1.0" encoding="utf-8"?>
<VTKFile byte_order="LittleEndian" type="UnstructuredGrid" version="0.1">
   <UnstructuredGrid>
      <Piece NumberOfCells="28728" NumberOfPoints="14624">
         <Points>
            <DataArray Name="Points" NumberOfComponents="3" format="ascii" type="Float32">
-1.0000 -0.9592 0.0000
-1.0000 -0.9184 0.0000
-1.0000 -0.8776 0.0000
-1.0000 -0.8367 0.0000
-1.0000 -0.7959 0.0000
-1.0000 -0.7551 0.0000
-1.0000 -0.7143 0.0000
-1.0000 -0.6735 0.0000
-1.0000 -0.6327 0.0000
-1.0000 -0.5918 0.0000
-1.0000 -0.5510 0.0000
-1.0000 -0.5102 0.0000
-1.0000 -0.4694 0.0000
-1.0000 -0.4286 0.0000
-1.0000 -0.3878 0.0000
-1.0000 -0.3469 0.0000
-1.0000 -0.3061 0.0000
-1.0000 -0.2653 0.0000
-1.0000 -0.2245 0.0000
-1.0000 -0.1837 0.0000
-1.0000 -0.1429 0.0000
-1.0000 -0.1020 0.0000
-1.0000 -0.0612 0.0000
-1.0000 -0.0204 0.0000
-1.0000 0.0204 0.0000
-1.0000 0.0612 0.0000
-1.0000 0.1020 0.0000
-1.0000 0.1429 0.0000
-1.0000 0.1837 0.0000
-1.0000 0.2245 0.0000
-1.0000 0.2653 0.0000
-1.0000 0.3061 0.0000
-1.0000 0.3469 0.0000
-1.0000 0.3878 0.0000
-1.0000 0.4286 0.0000
-1.0000 0.4694 0.0000
-1.0000 0.5102 0.0000
-1.0000 0.5510 0.0000
-1.0000 0.5918 0.0000
-1.0000 0.6327 0.0000
-1.0000 0.6735 0.0000
-1.0000 0.7143 0.0000
-1.0000 0.7551 0.0000
-1.0000 0.7959 0.0000
-1.0000 0.8367 0.0000
-1.0000 0.8776 0.0000
-1.0000 0.9184 0.0000
-1.0000 0.9592 0.0000
-1.0000 1.0000 0.0000
-0.9592 -0.9592 0.0000
-0.9592 -0.9184 0.0000
-0.9592 -0.8776 0.0000
-0.9592 -0.8367 0.0000
-0.9592 -0.7959 0.0000
-0.9592 -0.7551 0.0000
-0.9592 -0.7143 0.0000
-0.9592 -0.6735 0.0000
-0.9592 -0.6327 0.0000
-0.9592 -0.5918 0.0000
-0.9592 -0.5510 0.0000
-0.9592 -0.5102 0.0000
-0.9592 -0.4694 0.0000
-0.9592 -0.4286 0.0000
-0.9592 -0.3878 0.0000
-0.9592 -0.3469 0.0000
-0.9592 -0.3061 0.0000
-0.9592 -0.2653 0.0000
-0.9592 -0.2245 0.0000
-0.9592 -0.1837 0.0000
-0.9592 -0.1429 0.0000
-0.9592 -0.1020 0.0000
-0.9592 -0.0612 0.0000
-0.9592 -0.0204 0.0000
-0.9592 0.0204 0.0000
-0.9592 0.0612 0.0000
-0.9592 0.1020 0.0000
-0.9592 0.1429 0.0000
-0.9592 0.1837 0.0000
-0.9592 0.2245 0.0000
-0.9592 0.2653 0.0000
-0.9592 0.3061 0.0000
-0.9592 0.3469 0.0000
-0.9592 0.3878 0.0000
-0.9592 0.4286 0.0000
-0.9592 0.4694 0.0000
-0.9592 0.5102 0.0000
-0.9592 0.5510 0.0000
-0.9592 0.5918 0.0000
-0.9592 0.6327 0.0000
-0.9592 0.6735 0.0000
-0.9592 0.7143 0.0000
-0.9592 0.7551 0.0000
-0.9592 0.7959 0.0000
-0.9592 0.8367 0.0000
-0.9592 0.8776 0.0000
-0.9592 0.9184 0.0000
-0.9592 0.9592 0.0000
-0.9592 1.0000 0.0000
-0.9184 -0.9592 0.0000
-0.9184 -0.9184 0.0000
-0.9184 -0.8776 0.0000
-0.9184 -0.8367 0.0000
-0.9184 -0.7959 0.0000
-0.9184 -0.7551 0.0000
-0.9184 -0.7143 0.0000
-0.9184 -0.6735 0.0000
-0.9184 -0.6327 0.0000
-0.9184 -0.5918 0.0000
-0.9184 -0.5510 0.0000
-0.9184 -0.5102 0.0000
-0.9184 -0.4694 0.0000
-0.9184 -0.4286 0.0000
-0.9184 -0.3878 0.0000
-0.9184 -0.3469 0.0000
-0.9184 -0.3061 0.0000
-0.9184 -0.2653 0.0000
-0.9184 -0.2245 0.0000
-0.9184 -0.1837 0.0000
-0.9184 -0.1429 0.0000
-0.9184 -0.1020 0.0000
-0.9184 -0.0612 0.0000
-0.9184 -0.0204 0.0000
-0.9184 0.0204 0.0000
-0.9184 0.0612 0.0000
-0.9184 0.1020 0.0000
-0.9184 0.1429 0.0000
-0.9184 0.1837 0.0000
-0.9184 0.2245 0.0000
-0.9184 0.2653 0.0000
-0.9184 0.3061 0.0000
-0.9184 0.3469 0.0000
-0.9184 0.3878 0.0000
-0.9184 0.4286 0.0000
-0.9184 0.4694 0.0000
-0.9184 0.5102 0.0000
-0.9184 0.5510 0.0000
-0.9184 0.5918 0.0000
-0.9184 0.6327 0.0000
-0.9184 0.6735 0.0000
-0.9184 0.7143 0.0000
-0.9184 0.7551 0.0000
-0.9184 0.7959 0.0000
-0.9184 0.8367 0.0000
-0.9184 0.8776 0.0000
-0.9184 0.9184 0.0000
-0.9184 0.9592 0.0000
-0.9184 1.0000 0.0000
-0.8776 -0.9592 0.0000
-0.8776 -0.9184 0.0000
-0.8776 -0.8776 0.0000
-0.8776 -0.8367 0.0000
-0.8776 -0.7959 0.0000
-0.8776 -0.7551 0.0000
-0.8776 -0.7143 0.0000
-0.8776 -0.6735 0.0000
-0.8776 -0.6327 0.0000
-0.8776 -0.5918 0.0000
-0.8776 -0.5510 0.0000
-0.8776 -0.5102 0.0000
-0.8776 -0.4694 0.0000
-0.8776 -0.4286 0.0000
-0.8776 -0.3878 0.0000
-0.8776 -0.3469 0.0000
-0.8776 -0.3061 0.0000
-0.8776 -0.2653 0.0000
-0.8776 -0.2245 0.0000
-0.8776 -0.1837 0.0000
-0.8776 -0.1429 0.0000
-0.8776 -0.1020 0.0000
-0.8776 -0.0612 0.0000
-0.8776 -0.0204 0.0000
-0.8776 0.0204 0.0000
-0.8776 0.0612 0.0000
-0.8776 0.1020 0.0000
-0.8776 0.1429 0.0000
-0.8776 0.1837 0.0000
-0.8776 0.2245 0.0000
-0.8776 0.2653 0.0000
-0.8776 0.3061 0.0000
-0.8776 0.3469 0.0000
-0.8776 0.3878 0.0000
-0.8776 0.4286 0.0000
-0.8776 0.4694 0.0000
-0.8776 0.5102 0.0000
-0.8776 0.5510 0.0000
-0.8776 0.5918 0.0000
-0.8776 0.6327 0.0000
-0.8776 0.6735 0.0000
-0.8776 0.7143 0.0000
-0.8776 0.7551 0.0000
-0.8776 0.7959 0.0000
-0.8776 0.8367 0.0000
-0.8776 0.8776 0.0000
-0.8776 0.9184 0.0000
-0.8776 0.9592 0.0000
-0.8776 1.0000 0.0000
-0.8367 -0.9592 0.0000
-0.8367 -0.9184 0.0000
-0.8367 -0.8776 0.0000
-0.8367 -0.8367 0.0000
-0.8367 -0.7959 0.0000
-0.8367 -0.7551 0.0000
-0.8367 -0.7143 0.0000
-0.8367 -0.6735 0.0000
-0.8367 -0.6327 0.0000
-0.8367 -0.5918 0.0000
-0.8367 -0.5510 0.0000
-0.8367 -0.5102 0.0000
-0.8367 -0.4694 0.0000
-0.8367 -0.4286 0.0000
-0.8367 -0.3878 0.0000
-0.8367 -0.3469 0.0000
-0.8367 -0.3061 0.0000
-0.8367 -0.2653 0.0000
-0.8367 -0.2245 0.0000
-0.8367 -0.1837 0.0000
-0.8367 -0.1429 0.0000
-0.8367 -0.1020 0.0000
-0.8367 -0.0612 0.0000
-0.8367 -0.0204 0.0000
-0.8367 0.0204 0.0000
-0.8367 0.0612 0.0000
-0.8367 0.1020 0.0000
-0.8367 0.1429 0.0000
-0.8367 0.1837 0.0000
-0.8367 0.2245 0.0000
-0.8367 0.2653 0.0000
-0.8367 0.3061 0.0000
-0.8367 0.3469 0.0000
-0.8367 0.3878 0.0000
-0.8367 0.4286 0.0000
-0.8367 0.4694 0.0000
-0.8367 0.5102 0.0000
-0.8367 0.5510 0.0000
-0.8367 0.5918 0.0000
-0.8367 0.6327 0.0000
-0.8367 0.6735 0.0000
-0.8367 0.7143 0.0000
-0.8367 0.7551 0.0000
-0.8367 0.7959 0.0000
-0.8367 0.8367 0.0000
-0.8367 0.8776 0.0000
-0.8367 0.9184 0.0000
-0.8367 0.9592 0.0000
-0.8367 1.0000 0.0000
-0.7959 -0.9592 0.0000
-0.7959 -0.9184 0.0000
-0.7959 -0.8776 0.0000
-0.7959 -0.8367 0.0000
-0.7959 -0.7959 0.0000
-0.7959 -0.7551 0.0000
-0.7959 -0.7143 0.0000
-0.7959 -0.6735 0.0000
-0.7959 -0.6327 0.0000
-0.7959 -0.5918 0.0000
-0.7959 -0.5510 0.0000
-0.7959 -0.5102 0.0000
-0.7959 -0.4694 0.0000
-0.7959 -0.4286 0.0000
-0.7959 -0.3878 0.0000
-0.7959 -0.3469 0.0000
-0.7959 -0.3061 0.0000
-0.7959 -0.2653 0.0000
-0.7959 -0.2245 0.0000
-0.7959 -0.1837 0.0000
-0.7959 -0.1429 0.0000
-0.7959 -0.1020 0.0000
-0.7959 -0.0612 0.0000
-0.7959 -0.0204 0.0000
-0.7959 0.0204 0.0000
-0.7959 0.0612 0.0000
-0.7959 0.1020 0.0000
-0.7959 0.1429 0.0000
-0.7959 0.1837 0.0000
-0.7959 0.2245 0.0000
-0.7959 0.2653 0.0000
-0.7959 0.3061 0.0000
-0.7959 0.3469 0.0000
-0.7959 0.3878 0.0000
-0.7959 0.4286 0.0000
-0.7959 0.4694 0.0000
-0.7959 0.5102 0.0000
-0.7959 0.5510 0.0000
-0.7959 0.5918 0.0000
-0.7959 0.6327 0.0000
-0.7959 0.6735 0.0000
-0.7959 0.7143 0.0000
-0.7959 0.7551 0.0000
-0.7959 0.7959 0.0000
-0.7959 0.8367 0.0000
-0.7959 0.8776 0.0000
-0.7959 0.9184 0.0000
-0.7959 0.9592 0.0000
-0.7959 1.0000 0.0000
-0.7551 -0.9592 0.0000
-0.7551 -0.9184 0.0000
-0.7551 -0.8776 0.0000
-0.7551 -0.8367 0.0000
-0.7551 -0.7959 0.0000
-0.7551 -0.7551 0.0000
-0.7551 -0.7143 0.0000
-0.7551 -0.6735 0.0000
-0.7551 -0.6327 0.0000
-0.7551 -0.5918 0.0000
-0.7551 -0.5510 0.0000
-0.7551 -0.5102 0.0000
-0.7551 -0.4694 0.0000
-0.7551 -0.4286 0.0000
-0.7551 -0.3878 0.0000
-0.7551 -0.3469 0.0000
-0.7551 -0.3061 0.0000
-0.7551 -0.2653 0.0000
-0.7551 -0.2245 0.0000
-0.7551 -0.1837 0.0000
-0.7551 -0.1429 0.0000
-0.7551 -0.1020 0.0000
-0.7551 -0.0612 0.0000
-0.7551 -0.0204 0.0000
-0.7551 0.0204 0.0000
-0.7551 0.0612 0.0000
-0.7551 0.1020 0.0000
-0.7551 0.1429 0.0000
-0.7551 0.1837 0.0000
-0.7551 0.2245 0.0000
-0.7551 0.2653 0.0000
-0.7551 0.3061 0.0000
-0.7551 0.3469 0.0000
-0.7551 0.3878 0.0000
-0.7551 0.4286 0.0000
-0.7551 0.4694 0.0000
-0.7551 0.5102 0.0000
-0.7551 0.5510 0.0000
-0.7551 0.5918 0.0000
-0.7551 0.6327 0.0000
-0.7551 0.6735 0.0000
-0.7551 0.7143 0.0000
-0.7551 0.7551 0.0000
-0.7551 0.7959 0.0000
-0.7551 0.8367 0.0000
-0.7551 0.8776 0.0000
-0.7551 0.9184 0.0000
-0.7551 0.9592 0.0000
-0.7551 1.0000 0.0000
-0.7143 -0.9592 0.0000
-0.7143 -0.9184 0.0000
-0.7143 -0.8776 0.0000
-0.7143 -0.8367 0.0000
-0.7143 -0.7959 0.0000
-0.7143 -0.7551 0.0000
-0.7143 -0.7143 0.0000
-0.7143 -0.6735 0.0000
-0.7143 -0.6327 0.0000
-0.7143 -0.5918 0.0000
-0.7143 -0.5510 0.0000
-0.7143 -0.5102 0.0000
-0.7143 -0.4694 0.0000
-0.7143 -0.4286 0.0000
-0.7143 -0.3878 0.0000
-0.7143 -0.3469 0.0000
-0.7143 -0.3061 0.0000
-0.7143 -0.2653 0.0000
-0.7143 -0.2245 0.0000
-0.7143 -0.1837 0.0000
-0.7143 -0.1429 0.0000
-0.7143 -0.1020 0.0000
-0.7143 -0.0612 0.0000
-0.7143 -0.0204 0.0000
-0.7143 0.0204 0.0000
-0.7143 0.0612 0.0000
-0.7143 0.1020 0.0000
-0.7143 0.1429 0.0000
-0.7143 0.1837 0.0000
-0.7143 0.2245 0.0000
-0.7143 0.2653 0.0000
-0.7143 0.3061 0.0000
-0.7143 0.3469 0.0000
-0.7143 0.3878 0.0000
-0.7143 0.4286 0.0000
-0.7143 0.4694 0.0000
-0.7143 0.5102 0.0000
-0.7143 0.5510 0.0000
-0.7143 0.5918 0.0000
-0.7143 0.6327 0.0000
-0.7143 0.6735 0.0000
-0.7143 0.7143 0.0000
-0.7143 0.7551 0.0000
-0.7143 0.7959 0.0000
-0.7143 0.8367 0.0000
-0.7143 0.8776 0.0000
-0.7143 0.9184 0.0000
-0.7143 0.9592 0.0000
-0.7143 1.0000 0.0000
-0.6735 -0.9592 0.0000
-0.6735 -0.9184 0.0000
-0.6735 -0.8776 0.0000
-0.6735 -0.8367 0.0000
-0.6735 -0.7959 0.0000
-0.6735 -0.7551 0.0000
-0.6735 -0.7143 0.0000
-0.6735 -0.6735 0.0000
-0.6735 -0.6327 0.0000
-0.6735 -0.5918 0.0000
-0.6735 -0.5510 0.0000
-0.6735 -0.5102 0.0000
-0.6735 -0.4694 0.0000
-0.6735 -0.4286 0.0000
-0.6735 -0.3878 0.0000
-0.6735 -0.3469 0.0000
-0.6735 -0.3061 0.0000
-0.6735 -0.2653 0.0000
-0.6735 -0.2245 0.0000
-0.6735 -0.1837 0.0000
-0.6735 -0.1429 0.0000
-0.6735 -0.1020 0.0000
-0.6735 -0.0612 0.0000
-0.6735 -0.0204 0.0000
-0.6735 0.0204 0.0000
-0.6735 0.0612 0.0000
-0.6735 0.1020 0.0000
-0.6735 0.1429 0.0000
-0.6735 0.1837 0.0000
-0.6735 0.2245 0.0000
-0.6735 0.2653 0.0000
-0.6735 0.3061 0.0000
-0.6735 0.3469 0.0000
-0.6735 0.3878 0.0000
-0.6735 0.4286 0.0000
-0.6735 0.4694 0.0000
-0.6735 0.5102 0.0000
-0.6735 0.5510 0.0000
[...]
         <PointData>
            <DataArray Name="fValues" NumberOfComponents="3" format="ascii" type="Float64">
-1.98682e-19 -2.28664e-20        00000 
 3.86340e-19  1.56234e-19        00000 
 2.27333e-19  1.18573e-19        00000 
-4.27090e-19  6.71318e-20        00000 
 5.36627e-19  2.71954e-20        00000 
 1.63027e-19 -1.35856e-20        00000 
-3.09894e-19  1.73388e-19        00000 
-1.33647e-19  2.03143e-19        00000 
 1.88869e-19 -1.51181e-19        00000 
-1.63027e-19  2.71711e-19        00000 
-9.57962e-20  2.55343e-20        00000 
-1.87200e-19  4.84881e-20        00000 
 7.63192e-19 -1.10914e-19        00000 
-4.07567e-20 -8.49098e-20        00000 
 5.91996e-19 -1.66858e-19        00000 
 1.08685e-19 -2.03784e-20        00000 
-2.49684e-19  2.02145e-19        00000 
-1.63027e-19 -6.79279e-21        00000 
 1.32971e-19 -9.42310e-20        00000 
 9.55026e-20  6.33424e-21        00000 
 7.56994e-20 -1.21805e-19        00000 
 1.08685e-19 -1.05288e-19        00000 
-6.64091e-20 -1.18200e-19        00000 
-1.90198e-19  2.71711e-20        00000 
-4.65836e-19  1.23258e-20        00000 
 1.35856e-19 -1.46045e-19        00000 
 1.67230e-19  5.20857e-20        00000 
 1.62048e-19 -4.58879e-20        00000 
-3.32674e-19 -3.57133e-20        00000 
 3.05675e-19 -1.03590e-19        00000 
 1.22937e-19 -1.44338e-19        00000 
-2.71711e-20 -7.13243e-20        00000 
 2.36736e-19  1.66735e-19        00000 
 1.76612e-19 -3.73603e-20        00000 
 1.15614e-19 -1.31569e-19        00000 
 2.16114e-19 -6.44669e-20        00000 
 2.31624e-20  1.52290e-20        00000 
       00000  1.18874e-20        00000 
 3.68400e-20 -2.35788e-20        00000 
       00000  3.22657e-20        00000 
 2.82035e-20  1.87540e-20        00000 
-1.35856e-20  7.64189e-21        00000 
-2.02382e-21 -6.29048e-21        00000 
-3.39639e-20  8.49098e-22        00000 
 8.31414e-21  1.33197e-20        00000 
-3.39639e-21 -9.55236e-21        00000 
 1.88112e-20  6.25260e-21        00000 
-1.50689e-20  4.02073e-22        00000 
 2.24650e-21 -4.49301e-21        00000 
 2.17741e-03 -6.84195e-04        00000 
 2.23225e-03 -4.81986e-04        00000 
 2.18516e-03 -4.47347e-04        00000 
 2.13806e-03 -4.33972e-04        00000 
 2.09040e-03 -4.23278e-04        00000 
 2.04271e-03 -4.13035e-04        00000 
 1.99502e-03 -4.02859e-04        00000 
 1.94733e-03 -3.92690e-04        00000 
 1.89963e-03 -3.82522e-04        00000 
 1.85194e-03 -3.72355e-04        00000 
 1.80424e-03 -3.62187e-04        00000 
 1.75655e-03 -3.52020e-04        00000 
 1.70885e-03 -3.41853e-04        00000 
 1.66116e-03 -3.31685e-04        00000 
 1.61346e-03 -3.21518e-04        00000 
 1.56577e-03 -3.11350e-04        00000 
 1.51807e-03 -3.01183e-04        00000 
 1.47038e-03 -2.91016e-04        00000 
 1.42268e-03 -2.80848e-04        00000 
 1.37499e-03 -2.70681e-04        00000 
 1.32729e-03 -2.60513e-04        00000 
 1.27960e-03 -2.50346e-04        00000 
 1.23190e-03 -2.40179e-04        00000 
 1.18421e-03 -2.30011e-04        00000 
 1.13651e-03 -2.19844e-04        00000 
 1.08882e-03 -2.09676e-04        00000 
 1.04112e-03 -1.99509e-04        00000 
 9.93428e-04 -1.89341e-04        00000 
 9.45733e-04 -1.79174e-04        00000 
 8.98038e-04 -1.69007e-04        00000 
 8.50343e-04 -1.58839e-04        00000 
 8.02648e-04 -1.48672e-04        00000 
 7.54954e-04 -1.38504e-04        00000 
 7.07259e-04 -1.28337e-04        00000 
 6.59564e-04 -1.18170e-04        00000 
 6.11869e-04 -1.08002e-04        00000 
 5.64174e-04 -9.78348e-05        00000 
 5.16479e-04 -8.76674e-05        00000 
 4.68784e-04 -7.75000e-05        00000 
 4.21089e-04 -6.73326e-05        00000 
 3.73394e-04 -5.71652e-05        00000 
 3.25699e-04 -4.69977e-05        00000 
 2.78004e-04 -3.68297e-05        00000 
 2.30310e-04 -2.66566e-05        00000 
 1.82616e-04 -1.64462e-05        00000 
 1.34943e-04 -5.93517e-06        00000 
 8.74556e-05  6.48122e-06        00000 
 4.13164e-05  3.06771e-05        00000 
-3.91139e-05  8.10239e-05        00000 
 5.08290e-04  5.09678e-05        00000 
 4.64452e-04  5.12372e-05        00000 
 4.58112e-04  5.15637e-05        00000 
 4.49530e-04  5.13493e-05        00000 
 4.39650e-04  5.03770e-05        00000 
 4.29687e-04  4.93441e-05        00000 
 4.19703e-04  4.83063e-05        00000 
 4.09715e-04  4.72682e-05        00000 
 3.99727e-04  4.62301e-05        00000 
 3.89739e-04  4.51921e-05        00000 
 3.79752e-04  4.41541e-05        00000 
 3.69764e-04  4.31161e-05        00000 
 3.59776e-04  4.20781e-05        00000 
 3.49788e-04  4.10401e-05        00000 
 3.39800e-04  4.00021e-05        00000 
 3.29812e-04  3.89641e-05        00000 
 3.19824e-04  3.79260e-05        00000 
 3.09837e-04  3.68880e-05        00000 
 2.99849e-04  3.58500e-05        00000 
 2.89861e-04  3.48120e-05        00000 
 2.79873e-04  3.37740e-05        00000 
 2.69885e-04  3.27360e-05        00000 
 2.59897e-04  3.16980e-05        00000 
 2.49909e-04  3.06600e-05        00000 
 2.39922e-04  2.96220e-05        00000 
 2.29934e-04  2.85839e-05        00000 
 2.19946e-04  2.75459e-05        00000 
 2.09958e-04  2.65079e-05        00000 
 1.99970e-04  2.54699e-05        00000 
 1.89982e-04  2.44319e-05        00000 
 1.79994e-04  2.33939e-05        00000 
 1.70006e-04  2.23559e-05        00000 
 1.60019e-04  2.13179e-05        00000 
 1.50031e-04  2.02799e-05        00000 
 1.40043e-04  1.92419e-05        00000 
 1.30055e-04  1.82038e-05        00000 
 1.20067e-04  1.71658e-05        00000 
 1.10079e-04  1.61278e-05        00000 
 1.00091e-04  1.50898e-05        00000 
 9.01036e-05  1.40518e-05        00000 
 8.01157e-05  1.30138e-05        00000 
 7.01279e-05  1.19760e-05        00000 
 6.01399e-05  1.09396e-05        00000 
 5.01525e-05  9.91343e-06        00000 
 4.01711e-05  8.95968e-06        00000 
 3.00987e-05  8.52448e-06        00000 
 2.10836e-05  1.12587e-05        00000 
 3.15522e-06  3.23130e-05        00000 
-4.46176e-05  7.25169e-05        00000 
 7.85675e-05 -3.08388e-05        00000 
 7.70511e-05 -6.25091e-06        00000 
 7.20272e-05 -7.76912e-06        00000 
 7.05560e-05 -7.40534e-06        00000 
 6.89384e-05 -7.23377e-06        00000 
 6.73635e-05 -7.06284e-06        00000 
 6.57933e-05 -6.88369e-06        00000 
 6.42236e-05 -6.70519e-06        00000 
 6.26541e-05 -6.52635e-06        00000 
 6.10846e-05 -6.34753e-06        00000 
 5.95152e-05 -6.16870e-06        00000 
 5.79457e-05 -5.98988e-06        00000 
 5.63762e-05 -5.81105e-06        00000 
 5.48068e-05 -5.63222e-06        00000 
 5.32373e-05 -5.45340e-06        00000 
 5.16678e-05 -5.27457e-06        00000 
 5.00984e-05 -5.09575e-06        00000 
 4.85289e-05 -4.91692e-06        00000 
 4.69594e-05 -4.73809e-06        00000 
 4.53900e-05 -4.55927e-06        00000 
 4.38205e-05 -4.38044e-06        00000 
 4.22511e-05 -4.20161e-06        00000 
 4.06816e-05 -4.02279e-06        00000 
 3.91121e-05 -3.84396e-06        00000 
 3.75427e-05 -3.66514e-06        00000 
 3.59732e-05 -3.48631e-06        00000 
 3.44037e-05 -3.30748e-06        00000 
 3.28343e-05 -3.12866e-06        00000 
 3.12648e-05 -2.94983e-06        00000 
 2.96953e-05 -2.77101e-06        00000 
 2.81259e-05 -2.59218e-06        00000 
 2.65564e-05 -2.41335e-06        00000 
 2.49870e-05 -2.23453e-06        00000 
 2.34175e-05 -2.05570e-06        00000 
 2.18480e-05 -1.87688e-06        00000 
 2.02786e-05 -1.69805e-06        00000 
 1.87091e-05 -1.51922e-06        00000 
 1.71396e-05 -1.34040e-06        00000 
 1.55702e-05 -1.16157e-06        00000 
 1.40007e-05 -9.82741e-07        00000 
 1.24312e-05 -8.03887e-07        00000 
 1.08619e-05 -6.24855e-07        00000 
 9.29191e-06 -4.44469e-07        00000 
 7.72437e-06 -2.54335e-07        00000 
 6.14974e-06  5.51039e-09        00000 
 4.54505e-06  7.30325e-07        00000 
 3.56132e-06  4.39589e-06        00000 
-5.41629e-06  2.31527e-05        00000 
-4.81003e-05  5.79883e-05        00000 
 4.15929e-06 -2.13152e-05        00000 
 1.04127e-05 -2.12747e-06        00000 
 1.02844e-05 -6.33021e-07        00000 
 1.00781e-05 -4.11786e-07        00000 
 9.85053e-06 -3.68474e-07        00000 
 9.62366e-06 -3.56699e-07        00000 
 9.39849e-06 -3.44237e-07        00000 
 9.17290e-06 -3.33244e-07        00000 
 8.94743e-06 -3.22131e-07        00000 
 8.72193e-06 -3.11072e-07        00000 
 8.49644e-06 -3.00009e-07        00000 
 8.27094e-06 -2.88947e-07        00000 
 8.04544e-06 -2.77885e-07        00000 
 7.81995e-06 -2.66823e-07        00000 
 7.59445e-06 -2.55761e-07        00000 
 7.36896e-06 -2.44699e-07        00000 
 7.14346e-06 -2.33637e-07        00000 
 6.91796e-06 -2.22575e-07        00000 
 6.69247e-06 -2.11514e-07        00000 
 6.46697e-06 -2.00452e-07        00000 
 6.24147e-06 -1.89390e-07        00000 
 6.01598e-06 -1.78328e-07        00000 
 5.79048e-06 -1.67266e-07        00000 
 5.56499e-06 -1.56204e-07        00000 
 5.33949e-06 -1.45142e-07        00000 
 5.11399e-06 -1.34080e-07        00000 
 4.88850e-06 -1.23018e-07        00000 
 4.66300e-06 -1.11956e-07        00000 
 4.43751e-06 -1.00894e-07        00000 
 4.21201e-06 -8.98324e-08        00000 
 3.98651e-06 -7.87705e-08        00000 
 3.76102e-06 -6.77086e-08        00000 
 3.53552e-06 -5.66467e-08        00000 
 3.31003e-06 -4.55847e-08        00000 
 3.08453e-06 -3.45228e-08        00000 
 2.85903e-06 -2.34609e-08        00000 
 2.63354e-06 -1.23990e-08        00000 
 2.40804e-06 -1.33699e-09        00000 
 2.18254e-06  9.72530e-09        00000 
 1.95705e-06  2.07901e-08        00000 
 1.73154e-06  3.18750e-08        00000 
 1.50613e-06  4.31106e-08        00000 
 1.28019e-06  5.54958e-08        00000 
 1.05648e-06  7.62168e-08        00000 
 8.27027e-07  1.57034e-07        00000 
 5.67561e-07  6.41446e-07        00000 
 9.41631e-07  3.70087e-06        00000 
-6.20707e-06  2.02173e-05        00000 
-4.54411e-05  5.06656e-05        00000 
-5.02931e-06 -1.70075e-05        00000 
 1.41845e-06 -1.39179e-06        00000 
 1.48857e-06 -1.14445e-07        00000 
 1.45215e-06  3.43489e-08        00000 
 1.42485e-06  5.20937e-08        00000 
 1.39250e-06  5.17458e-08        00000 
 1.36040e-06  5.13006e-08        00000 
 1.32794e-06  5.02827e-08        00000 
 1.29552e-06  4.93589e-08        00000 
 1.26307e-06  4.84142e-08        00000 
 1.23063e-06  4.74743e-08        00000 
 1.19819e-06  4.65338e-08        00000 
 1.16575e-06  4.55935e-08        00000 
 1.13330e-06  4.46531e-08        00000 
 1.10086e-06  4.37127e-08        00000 
 1.06842e-06  4.27723e-08        00000 
 1.03598e-06  4.18320e-08        00000 
 1.00353e-06  4.08916e-08        00000 
 9.71090e-07  3.99512e-08        00000 
 9.38648e-07  3.90108e-08        00000 
 9.06205e-07  3.80705e-08        00000 
 8.73763e-07  3.71301e-08        00000 
 8.41320e-07  3.61897e-08        00000 
 8.08878e-07  3.52494e-08        00000 
 7.76435e-07  3.43090e-08        00000 
 7.43993e-07  3.33686e-08        00000 
 7.11551e-07  3.24282e-08        00000 
 6.79108e-07  3.14879e-08        00000 
 6.46666e-07  3.05475e-08        00000 
 6.14223e-07  2.96071e-08        00000 
 5.81781e-07  2.86668e-08        00000 
 5.49338e-07  2.77264e-08        00000 
 5.16896e-07  2.67860e-08        00000 
 4.84453e-07  2.58456e-08        00000 
 4.52011e-07  2.49053e-08        00000 
 4.19568e-07  2.39649e-08        00000 
 3.87126e-07  2.30245e-08        00000 
 3.54683e-07  2.20842e-08        00000 
 3.22240e-07  2.11442e-08        00000 
 2.89801e-07  2.02064e-08        00000 
 2.57342e-07  1.92867e-08        00000 
 2.24988e-07  1.85017e-08        00000 
 1.92112e-07  1.87427e-08        00000 
 1.61377e-07  2.63963e-08        00000 
 1.24918e-07  8.74225e-08        00000 
 6.11406e-08  5.05519e-07        00000 
 5.79507e-07  3.20004e-06        00000 
-5.94943e-06  1.77275e-05        00000 
-4.20789e-05  4.44302e-05        00000 
-6.44211e-06 -1.48188e-05        00000 
 2.55854e-08 -1.36955e-06        00000 
 2.06642e-07 -1.79296e-07        00000 
 1.79595e-07 -5.68791e-08        00000 
 1.78008e-07 -4.09062e-08        00000 
 1.73054e-07 -3.88352e-08        00000 
 1.68985e-07 -3.75939e-08        00000 
 1.64844e-07 -3.66574e-08        00000 
 1.60746e-07 -3.56987e-08        00000 
 1.56645e-07 -3.47517e-08        00000 
 1.52545e-07 -3.38030e-08        00000 
 1.48445e-07 -3.28548e-08        00000 
 1.44346e-07 -3.19066e-08        00000 
 1.40246e-07 -3.09583e-08        00000 
 1.36147e-07 -3.00101e-08        00000 
 1.32047e-07 -2.90618e-08        00000 
 1.27947e-07 -2.81136e-08        00000 
 1.23848e-07 -2.71653e-08        00000 
 1.19748e-07 -2.62171e-08        00000 
 1.15649e-07 -2.52689e-08        00000 
 1.11549e-07 -2.43206e-08        00000 
 1.07449e-07 -2.33724e-08        00000 
 1.03350e-07 -2.24241e-08        00000 
 9.92501e-08 -2.14759e-08        00000 
 9.51505e-08 -2.05276e-08        00000 
 9.10509e-08 -1.95794e-08        00000 
 8.69513e-08 -1.86312e-08        00000 
 8.28517e-08 -1.76829e-08        00000 
 7.87520e-08 -1.67347e-08        00000 
 7.46524e-08 -1.57864e-08        00000 
 7.05528e-08 -1.48382e-08        00000 
 6.64532e-08 -1.38899e-08        00000 
 6.23536e-08 -1.29417e-08        00000 
 5.82540e-08 -1.19935e-08        00000 
 5.41544e-08 -1.10452e-08        00000 
 5.00548e-08 -1.00970e-08        00000 
 4.59551e-08 -9.14872e-09        00000 
 4.18556e-08 -8.20044e-09        00000 
 3.77555e-08 -7.25190e-09        00000 
 3.36588e-08 -6.30136e-09        00000 
 2.95431e-08 -5.33511e-09        00000 
 2.55276e-08 -4.25115e-09        00000 
 2.10169e-08 -2.27120e-09        00000 
 1.85412e-08  6.17729e-09        00000 
 1.06108e-08  6.11828e-08        00000 
-2.26833e-08  4.27454e-07        00000 
 4.90626e-07  2.77733e-06        00000 
-5.59983e-06  1.54471e-05        00000 
-3.91045e-05  3.86505e-05        00000 
-6.21794e-06 -1.23243e-05        00000 
-1.37959e-07 -1.10907e-06        00000 
 4.39584e-08 -1.07704e-07        00000 
 2.29604e-08 -7.72876e-09        00000 
 2.63950e-08  4.77439e-09        00000 
 2.54098e-08  5.79742e-09        00000 
 2.49341e-08  5.86203e-09        00000 
 2.43340e-08  5.73408e-09        00000 
 2.37453e-08  5.60492e-09        00000 
 2.31520e-08  5.47053e-09        00000 
 2.25590e-08  5.33675e-09        00000 
 2.19659e-08  5.20277e-09        00000 
 2.13728e-08  5.06884e-09        00000 
 2.07796e-08  4.93490e-09        00000 
 2.01865e-08  4.80096e-09        00000 
 1.95934e-08  4.66701e-09        00000 
 1.90002e-08  4.53307e-09        00000 
 1.84071e-08  4.39913e-09        00000 
 1.78139e-08  4.26519e-09        00000 
 1.72208e-08  4.13125e-09        00000 
 1.66277e-08  3.99731e-09        00000 
 1.60345e-08  3.86337e-09        00000 
 1.54414e-08  3.72943e-09        00000 
 1.48483e-08  3.59549e-09        00000 
 1.42551e-08  3.46154e-09        00000 
 1.36620e-08  3.32760e-09        00000 
 1.30688e-08  3.19366e-09        00000 
 1.24757e-08  3.05972e-09        00000 
 1.18826e-08  2.92578e-09        00000 
 1.12894e-08  2.79184e-09        00000 
 1.06963e-08  2.65790e-09        00000 
 1.01032e-08  2.52396e-09        00000 
 9.51002e-09  2.39002e-09        00000 
 8.91689e-09  2.25607e-09        00000 
 8.32375e-09  2.12213e-09        00000 
 7.73061e-09  1.98819e-09        00000 
 7.13746e-09  1.85426e-09        00000 
 6.54441e-09  1.72035e-09        00000 
 5.95079e-09  1.58667e-09        00000 
 5.36041e-09  1.45472e-09        00000 
 4.75189e-09  1.33646e-09        00000 
 4.23927e-09  1.32044e-09        00000 
 3.25192e-09  2.08201e-09        00000 
 4.21809e-09  8.44488e-09        00000 
-1.34094e-10  5.50823e-08        00000 
-2.79865e-08  3.70390e-07        00000 
 4.57376e-07  2.39631e-06        00000 
-5.29031e-06  1.33122e-05        00000 
-3.63860e-05  3.31868e-05        00000 
-5.92828e-06 -1.00835e-05        00000 
-1.58743e-07 -9.12837e-07        00000 
 1.92643e-08 -9.29938e-08        00000 
-3.57859e-10 -1.28232e-08        00000 
 3.25536e-09 -2.61921e-09        00000 
 2.70223e-09 -1.66305e-09        00000 
 2.70888e-09 -1.48979e-09        00000 
 2.62862e-09 -1.44635e-09        00000 
 2.56345e-09 -1.40804e-09        00000 
 2.49641e-09 -1.37224e-09        00000 
 2.42985e-09 -1.33625e-09        00000 
 2.36325e-09 -1.30035e-09        00000 
 2.29666e-09 -1.26444e-09        00000 
 2.23008e-09 -1.22853e-09        00000 
 2.16349e-09 -1.19262e-09        00000 
 2.09691e-09 -1.15671e-09        00000 
 2.03032e-09 -1.12079e-09        00000 
 1.96374e-09 -1.08488e-09        00000 
 1.89715e-09 -1.04897e-09        00000 
 1.83056e-09 -1.01306e-09        00000 
 1.76398e-09 -9.77149e-10        00000 
 1.69739e-09 -9.41238e-10        00000 
 1.63081e-09 -9.05327e-10        00000 
 1.56422e-09 -8.69415e-10        00000 
 1.49764e-09 -8.33504e-10        00000 
 1.43105e-09 -7.97593e-10        00000 
 1.36447e-09 -7.61682e-10        00000 
 1.29788e-09 -7.25770e-10        00000 
 1.23130e-09 -6.89859e-10        00000 
 1.16471e-09 -6.53948e-10        00000 
 1.09812e-09 -6.18037e-10        00000 
 1.03154e-09 -5.82125e-10        00000 
 9.64954e-10 -5.46214e-10        00000 
 8.98369e-10 -5.10303e-10        00000 
 8.31783e-10 -4.74392e-10        00000 
 7.65199e-10 -4.38480e-10        00000 
 6.98601e-10 -4.02565e-10        00000 
 6.32094e-10 -3.66626e-10        00000 
 5.65043e-10 -3.30491e-10        00000 
 5.01121e-10 -2.92864e-10        00000 
 4.19703e-10 -2.43508e-10        00000 
 4.30734e-10 -1.06760e-10        00000 
-1.65607e-11  6.94003e-10        00000 
 1.42620e-09  6.26300e-09        00000 
-2.36899e-09  4.60774e-08        00000 
-2.78832e-08  3.13625e-07        00000 
 4.30124e-07  2.02973e-06        00000 
-5.02153e-06  1.12625e-05        00000 
-3.39289e-05  2.79284e-05        00000 
-5.64063e-06 -7.91290e-06        00000 
-1.59465e-07 -7.13699e-07        00000 
 1.46750e-08 -7.00821e-08        00000 
-2.89615e-09 -8.55884e-09        00000 
 8.04301e-10 -5.75001e-10        00000 
 3.73420e-10  1.25847e-10        00000 
 4.43957e-10  2.27153e-10        00000 
 4.24177e-10  2.28898e-10        00000 
 4.15808e-10  2.25103e-10        00000 
 4.05296e-10  2.19662e-10        00000 
 3.95043e-10  2.14234e-10        00000 
 3.84731e-10  2.08765e-10        00000 
 3.74426e-10  2.03300e-10        00000 
 3.64118e-10  1.97834e-10        00000 
 3.53811e-10  1.92368e-10        00000 
 3.43504e-10  1.86903e-10        00000 
 3.33197e-10  1.81437e-10        00000 
 3.22890e-10  1.75971e-10        00000 
 3.12583e-10  1.70505e-10        00000 
 3.02276e-10  1.65039e-10        00000 
 2.91968e-10  1.59574e-10        00000 
 2.81661e-10  1.54108e-10        00000 
 2.71354e-10  1.48642e-10        00000 
 2.61047e-10  1.43176e-10        00000 
 2.50740e-10  1.37710e-10        00000 
 2.40433e-10  1.32244e-10        00000 
 2.30125e-10  1.26779e-10        00000 
 2.19818e-10  1.21313e-10        00000 
 2.09511e-10  1.15847e-10        00000 
 1.99204e-10  1.10381e-10        00000 
 1.88897e-10  1.04915e-10        00000 
 1.78590e-10  9.94494e-11        00000 
 1.68283e-10  9.39836e-11        00000 
 1.57975e-10  8.85177e-11        00000 
 1.47668e-10  8.30520e-11        00000 
 1.37363e-10  7.75865e-11        00000 
 1.27043e-10  7.21237e-11        00000 
 1.16813e-10  6.66815e-11        00000 
 1.06054e-10  6.14052e-11        00000 
 9.83285e-11  5.73824e-11        00000 
 7.36367e-11  6.32164e-11        00000 
 1.38604e-10  1.42139e-10        00000 
-2.41764e-10  7.75704e-10        00000 
 1.21886e-09  5.37343e-09        00000 
-2.52588e-09  3.83982e-08        00000 
-2.63216e-08  2.59566e-07        00000 
 4.06803e-07  1.67595e-06        00000 
-4.78896e-06  9.27866e-06        00000 
-3.16928e-05  2.28239e-05        00000 
-5.38522e-06 -5.81904e-06        00000 
-1.58649e-07 -5.23091e-07        00000 
 1.25082e-08 -4.99096e-08        00000 
-3.27621e-09 -6.44990e-09        00000 
 3.68579e-10 -6.04542e-10        00000 
-2.81130e-11 -1.30015e-10        00000 
 4.68793e-11 -5.26265e-11        00000 