<?xml version="1.0" encoding="utf-8"?>
<VTKFile byte_order="LittleEndian" type="UnstructuredGrid" version="0.1">
   <UnstructuredGrid>
      <Piece NumberOfCells="1136" NumberOfPoints="664">
         <Points>
            <DataArray Name="Points" NumberOfComponents="3" format="ascii" type="Float32">
0.0000 0.0526 0.0000
0.0000 0.1053 0.0000
0.0000 0.1579 0.0000
0.0000 0.2105 0.0000
0.0000 0.2632 0.0000
0.0000 0.3158 0.0000
0.0000 0.3684 0.0000
0.0000 0.4211 0.0000
0.0000 0.4737 0.0000
0.0000 0.5263 0.0000
0.0000 0.5789 0.0000
0.0000 0.6316 0.0000
0.0000 0.6842 0.0000
0.0000 0.7368 0.0000
0.0000 0.7895 0.0000
0.0000 0.8421 0.0000
0.0000 0.8947 0.0000
0.0000 0.9474 0.0000
0.0000 1.0000 0.0000
0.0526 0.0526 0.0000
0.0526 0.1053 0.0000
0.0526 0.1579 0.0000
0.0526 0.2105 0.0000
0.0526 0.2632 0.0000
0.0526 0.3158 0.0000
0.0526 0.3684 0.0000
0.0526 0.4211 0.0000
0.0526 0.4737 0.0000
0.0526 0.5263 0.0000
0.0526 0.5789 0.0000
0.0526 0.6316 0.0000
0.0526 0.6842 0.0000
0.0526 0.7368 0.0000
0.0526 0.7895 0.0000
0.0526 0.8421 0.0000
0.0526 0.8947 0.0000
0.0526 0.9474 0.0000
0.0526 1.0000 0.0000
0.1053 0.0526 0.0000
0.1053 0.1053 0.0000
0.1053 0.1579 0.0000
0.1053 0.2105 0.0000
0.1053 0.2632 0.0000
0.1053 0.3158 0.0000
0.1053 0.3684 0.0000
0.1053 0.4211 0.0000
0.1053 0.4737 0.0000
0.1053 0.5263 0.0000
0.1053 0.5789 0.0000
0.1053 0.6316 0.0000
0.1053 0.6842 0.0000
0.1053 0.7368 0.0000
0.1053 0.7895 0.0000
0.1053 0.8421 0.0000
0.1053 0.8947 0.0000
0.1053 0.9474 0.0000
0.1053 1.0000 0.0000
0.1579 0.0526 0.0000
0.1579 0.1053 0.0000
0.1579 0.1579 0.0000
0.1579 0.2105 0.0000
0.1579 0.2632 0.0000
0.1579 0.3158 0.0000
0.1579 0.3684 0.0000
0.1579 0.4211 0.0000
0.1579 0.4737 0.0000
0.1579 0.5263 0.0000
0.1579 0.5789 0.0000
0.1579 0.6316 0.0000
0.1579 0.6842 0.0000
0.1579 0.7368 0.0000
0.1579 0.7895 0.0000
0.1579 0.8421 0.0000
0.1579 0.8947 0.0000
0.1579 0.9474 0.0000
0.1579 1.0000 0.0000
0.2105 0.0526 0.0000
0.2105 0.1053 0.0000
0.2105 0.1579 0.0000
0.2105 0.2105 0.0000
0.2105 0.2632 0.0000
0.2105 0.3158 0.0000
0.2105 0.3684 0.0000
0.2105 0.6842 0.0000
0.2105 0.7368 0.0000
0.2105 0.7895 0.0000
0.2105 0.8421 0.0000
0.2105 0.8947 0.0000
0.2105 0.9474 0.0000
0.2105 1.0000 0.0000
0.2632 0.0526 0.0000
0.2632 0.1053 0.0000
0.2632 0.1579 0.0000
0.2632 0.2105 0.0000
0.2632 0.2632 0.0000
0.2632 0.7895 0.0000
0.2632 0.8421 0.0000
0.2632 0.8947 0.0000
0.2632 0.9474 0.0000
0.2632 1.0000 0.0000
0.3158 0.0526 0.0000
0.3158 0.1053 0.0000
0.3158 0.1579 0.0000
0.3158 0.2105 0.0000
0.3158 0.8421 0.0000
0.3158 0.8947 0.0000
0.3158 0.9474 0.0000
0.3158 1.0000 0.0000
0.3684 0.0526 0.0000
0.3684 0.1053 0.0000
0.3684 0.1579 0.0000
0.3684 0.2105 0.0000
0.3684 0.8421 0.0000
0.3684 0.8947 0.0000
0.3684 0.9474 0.0000
0.3684 1.0000 0.0000
0.4211 0.0526 0.0000
0.4211 0.1053 0.0000
0.4211 0.1579 0.0000
0.4211 0.8947 0.0000
0.4211 0.9474 0.0000
0.4211 1.0000 0.0000
0.4737 0.0526 0.0000
0.4737 0.1053 0.0000
0.4737 0.1579 0.0000
0.4737 0.8947 0.0000
0.4737 0.9474 0.0000
0.4737 1.0000 0.0000
0.5263 0.0526 0.0000
0.5263 0.1053 0.0000
0.5263 0.1579 0.0000
0.5263 0.8947 0.0000
0.5263 0.9474 0.0000
0.5263 1.0000 0.0000
0.5789 0.0526 0.0000
0.5789 0.1053 0.0000
0.5789 0.1579 0.0000
0.5789 0.8947 0.0000
0.5789 0.9474 0.0000
0.5789 1.0000 0.0000
0.6316 0.0526 0.0000
0.6316 0.1053 0.0000
0.6316 0.1579 0.0000
0.6316 0.2105 0.0000
0.6316 0.8421 0.0000
0.6316 0.8947 0.0000
0.6316 0.9474 0.0000
0.6316 1.0000 0.0000
0.6842 0.0526 0.0000
0.6842 0.1053 0.0000
0.6842 0.1579 0.0000
0.6842 0.2105 0.0000
0.6842 0.8421 0.0000
0.6842 0.8947 0.0000
0.6842 0.9474 0.0000
0.6842 1.0000 0.0000
0.7368 0.0526 0.0000
0.7368 0.1053 0.0000
0.7368 0.1579 0.0000
0.7368 0.2105 0.0000
0.7368 0.2632 0.0000
0.7368 0.7895 0.0000
0.7368 0.8421 0.0000
0.7368 0.8947 0.0000
0.7368 0.9474 0.0000
0.7368 1.0000 0.0000
0.7895 0.0526 0.0000
0.7895 0.1053 0.0000
0.7895 0.1579 0.0000
0.7895 0.2105 0.0000
0.7895 0.2632 0.0000
0.7895 0.3158 0.0000
0.7895 0.3684 0.0000
0.7895 0.6842 0.0000
0.7895 0.7368 0.0000
0.7895 0.7895 0.0000
0.7895 0.8421 0.0000
0.7895 0.8947 0.0000
0.7895 0.9474 0.0000
0.7895 1.0000 0.0000
0.8421 0.0526 0.0000
0.8421 0.1053 0.0000
0.8421 0.1579 0.0000
0.8421 0.2105 0.0000
0.8421 0.2632 0.0000
0.8421 0.3158 0.0000
0.8421 0.3684 0.0000
0.8421 0.4211 0.0000
0.8421 0.4737 0.0000
0.8421 0.5263 0.0000
0.8421 0.5789 0.0000
0.8421 0.6316 0.0000
0.8421 0.6842 0.0000
0.8421 0.7368 0.0000
0.8421 0.7895 0.0000
0.8421 0.8421 0.0000
0.8421 0.8947 0.0000
0.8421 0.9474 0.0000
0.8421 1.0000 0.0000
0.8947 0.0526 0.0000
0.8947 0.1053 0.0000
0.8947 0.1579 0.0000
0.8947 0.2105 0.0000
0.8947 0.2632 0.0000
0.8947 0.3158 0.0000
0.8947 0.3684 0.0000
0.8947 0.4211 0.0000
0.8947 0.4737 0.0000
0.8947 0.5263 0.0000
0.8947 0.5789 0.0000
0.8947 0.6316 0.0000
0.8947 0.6842 0.0000
0.8947 0.7368 0.0000
0.8947 0.7895 0.0000
0.8947 0.8421 0.0000
0.8947 0.8947 0.0000
0.8947 0.9474 0.0000
0.8947 1.0000 0.0000
0.9474 0.0526 0.0000
0.9474 0.1053 0.0000
0.9474 0.1579 0.0000
0.9474 0.2105 0.0000
0.9474 0.2632 0.0000
0.9474 0.3158 0.0000
0.9474 0.3684 0.0000
0.9474 0.4211 0.0000
0.9474 0.4737 0.0000
0.9474 0.5263 0.0000
0.9474 0.5789 0.0000
0.9474 0.6316 0.0000
0.9474 0.6842 0.0000
0.9474 0.7368 0.0000
0.9474 0.7895 0.0000
0.9474 0.8421 0.0000
0.9474 0.8947 0.0000
0.9474 0.9474 0.0000
0.9474 1.0000 0.0000
0.2105 0.6316 0.0000
0.2632 0.7368 0.0000
0.3158 0.7895 0.0000
0.3684 0.7895 0.0000
0.4211 0.8421 0.0000
0.4737 0.8421 0.0000
0.5263 0.8421 0.0000
0.5789 0.8421 0.0000
0.6842 0.7895 0.0000
1.0000 0.0526 0.0000
1.0000 0.1053 0.0000
1.0000 0.1579 0.0000
1.0000 0.2105 0.0000
1.0000 0.2632 0.0000
1.0000 0.3158 0.0000
1.0000 0.3684 0.0000
1.0000 0.4211 0.0000
1.0000 0.4737 0.0000
1.0000 0.5263 0.0000
1.0000 0.5789 0.0000
1.0000 0.6316 0.0000
1.0000 0.6842 0.0000
1.0000 0.7368 0.0000
1.0000 0.7895 0.0000
1.0000 0.8421 0.0000
1.0000 0.8947 0.0000
1.0000 0.9474 0.0000
1.0000 1.0000 0.0000
0.0526 0.0000 0.0000
0.1053 0.0000 0.0000
0.1579 0.0000 0.0000
0.2105 0.0000 0.0000
0.2632 0.0000 0.0000
0.3158 0.0000 0.0000
0.3684 0.0000 0.0000
0.4211 0.0000 0.0000
0.4737 0.0000 0.0000
0.5263 0.0000 0.0000
0.5789 0.0000 0.0000
0.6316 0.0000 0.0000
0.6316 0.7895 0.0000
0.6842 0.0000 0.0000
0.7368 0.0000 0.0000
0.7368 0.7368 0.0000
0.7895 0.0000 0.0000
0.7895 0.6316 0.0000
0.8421 0.0000 0.0000
0.8947 0.0000 0.0000
0.9474 0.0000 0.0000
1.0000 0.0000 0.0000
0.0000 0.0000 0.0000
0.0263 0.0263 0.0000
0.0263 0.0789 0.0000
0.0263 0.1316 0.0000
0.0263 0.1842 0.0000
0.0263 0.2368 0.0000
0.0263 0.2895 0.0000
0.0263 0.3421 0.0000
0.0263 0.3947 0.0000
0.0263 0.4474 0.0000
0.0263 0.5000 0.0000
0.0263 0.5526 0.0000
0.0263 0.6053 0.0000
0.0263 0.6579 0.0000
0.0263 0.7105 0.0000
0.0263 0.7632 0.0000
0.0263 0.8158 0.0000
0.0263 0.8684 0.0000
0.0263 0.9211 0.0000
0.0263 0.9737 0.0000
0.0789 0.0263 0.0000
0.0789 0.0789 0.0000
0.0789 0.1316 0.0000
0.0789 0.1842 0.0000
0.0789 0.2368 0.0000
0.0789 0.2895 0.0000
0.0789 0.3421 0.0000
0.0789 0.3947 0.0000
0.0789 0.4474 0.0000
0.0789 0.5000 0.0000
0.0789 0.5526 0.0000
0.0789 0.6053 0.0000
0.0789 0.6579 0.0000
0.0789 0.7105 0.0000
0.0789 0.7632 0.0000
0.0789 0.8158 0.0000
0.0789 0.8684 0.0000
0.0789 0.9211 0.0000
0.0789 0.9737 0.0000
0.1316 0.0263 0.0000
0.1316 0.0789 0.0000
0.1316 0.1316 0.0000
0.1316 0.1842 0.0000
0.1316 0.2368 0.0000
0.1316 0.2895 0.0000
0.1316 0.3421 0.0000
0.1316 0.3947 0.0000
0.1316 0.4474 0.0000
0.1316 0.5000 0.0000
0.1316 0.5526 0.0000
0.1316 0.6053 0.0000
0.1316 0.6579 0.0000
0.1316 0.7105 0.0000
0.1316 0.7632 0.0000
0.1316 0.8158 0.0000
0.1316 0.8684 0.0000
0.1316 0.9211 0.0000
0.1316 0.9737 0.0000
0.1842 0.0263 0.0000
0.1842 0.0789 0.0000
0.1842 0.1316 0.0000
0.1842 0.1842 0.0000
0.1842 0.2368 0.0000
0.1842 0.2895 0.0000
0.1842 0.3421 0.0000
0.1842 0.3947 0.0000
0.1842 0.4474 0.0000
0.1842 0.5000 0.0000
0.1842 0.5526 0.0000
0.1842 0.6053 0.0000
0.1842 0.6579 0.0000
0.1842 0.7105 0.0000
0.1842 0.7632 0.0000
0.1842 0.8158 0.0000
0.1842 0.8684 0.0000
0.1842 0.9211 0.0000
0.1842 0.9737 0.0000
0.2368 0.0263 0.0000
0.2368 0.0789 0.0000
0.2368 0.1316 0.0000
0.2368 0.1842 0.0000
0.2368 0.2368 0.0000
0.2368 0.2895 0.0000
0.2368 0.3421 0.0000
0.2368 0.6579 0.0000
0.2368 0.7105 0.0000
0.2368 0.7632 0.0000
0.2368 0.8158 0.0000
0.2368 0.8684 0.0000
0.2368 0.9211 0.0000
0.2368 0.9737 0.0000
0.2895 0.0263 0.0000
0.2895 0.0789 0.0000
0.2895 0.1316 0.0000
0.2895 0.1842 0.0000
0.2895 0.2368 0.0000
0.2895 0.7632 0.0000
0.2895 0.8158 0.0000
0.2895 0.8684 0.0000
0.2895 0.9211 0.0000
0.2895 0.9737 0.0000
0.3421 0.0263 0.0000
0.3421 0.0789 0.0000
0.3421 0.1316 0.0000
0.3421 0.1842 0.0000
0.3421 0.8158 0.0000
0.3421 0.8684 0.0000
0.3421 0.9211 0.0000
0.3421 0.9737 0.0000
0.3947 0.0263 0.0000
0.3947 0.0789 0.0000
0.3947 0.1316 0.0000
0.3947 0.1842 0.0000
0.3947 0.8158 0.0000
0.3947 0.8684 0.0000
0.3947 0.9211 0.0000
0.3947 0.9737 0.0000
0.4474 0.0263 0.0000
0.4474 0.0789 0.0000
0.4474 0.1316 0.0000
0.4474 0.8684 0.0000
0.4474 0.9211 0.0000
0.4474 0.9737 0.0000
0.5000 0.0263 0.0000
0.5000 0.0789 0.0000
0.5000 0.1316 0.0000
0.5000 0.8684 0.0000
0.5000 0.9211 0.0000
0.5000 0.9737 0.0000
0.5526 0.0263 0.0000
0.5526 0.0789 0.0000
0.5526 0.1316 0.0000
0.5526 0.8684 0.0000
0.5526 0.9211 0.0000
0.5526 0.9737 0.0000
0.6053 0.0263 0.0000
0.6053 0.0789 0.0000
0.6053 0.1316 0.0000
0.6053 0.8684 0.0000
0.6053 0.9211 0.0000
0.6053 0.9737 0.0000
0.6579 0.0263 0.0000
0.6579 0.0789 0.0000
0.6579 0.1316 0.0000
0.6579 0.1842 0.0000
0.6579 0.8158 0.0000
0.6579 0.8684 0.0000
0.6579 0.9211 0.0000
0.6579 0.9737 0.0000
0.7105 0.0263 0.0000
0.7105 0.0789 0.0000
0.7105 0.1316 0.0000
0.7105 0.1842 0.0000
0.7105 0.8158 0.0000
0.7105 0.8684 0.0000
0.7105 0.9211 0.0000
0.7105 0.9737 0.0000
0.7632 0.0263 0.0000
0.7632 0.0789 0.0000
0.7632 0.1316 0.0000
0.7632 0.1842 0.0000
0.7632 0.2368 0.0000
0.7632 0.7632 0.0000
0.7632 0.8158 0.0000
0.7632 0.8684 0.0000
0.7632 0.9211 0.0000
0.7632 0.9737 0.0000
0.8158 0.0263 0.0000
0.8158 0.0789 0.0000
0.8158 0.1316 0.0000
0.8158 0.1842 0.0000
0.8158 0.2368 0.0000
0.8158 0.2895 0.0000
0.8158 0.3421 0.0000
[...]
         <PointData>
            <DataArray Name="fValues" NumberOfComponents="3" format="ascii" type="Float64">
 7.33815e-02 -1.00955e-01 -2.61399e-01 
 7.75188e-02 -1.53873e-01 -1.57089e-01 
 6.66888e-02 -1.55882e-01 -1.36854e-01 
 1.67427e-02 -1.14086e-01 -1.02023e-01 
-4.88996e-02 -5.70713e-02 -7.79541e-02 
-1.21137e-01  7.45575e-03 -7.12278e-02 
-1.87648e-01  6.95170e-02 -9.36306e-02 
-2.38527e-01  1.21039e-01 -1.51571e-01 
-2.67814e-01  1.56423e-01 -2.40208e-01 
-2.72599e-01  1.72661e-01 -3.40745e-01 
-2.51029e-01  1.68585e-01 -4.28810e-01 
-2.03347e-01  1.45483e-01 -4.85690e-01 
-1.34560e-01  1.07985e-01 -5.06291e-01 
-5.42002e-02  6.28883e-02 -4.95656e-01 
 2.63994e-02  1.71317e-02 -4.62768e-01 
 1.02892e-01 -3.21105e-02 -4.05584e-01 
 1.54712e-01 -7.17259e-02 -3.29507e-01 
 3.11161e-01 -2.98860e-01 -1.87856e-02 
-1.32932e-01 -2.10148e-01  4.77599e-01 
 1.24990e-01 -2.85653e-01 -1.67492e-01 
 9.89962e-02 -2.21733e-01 -1.43327e-01 
 6.19491e-02 -1.75064e-01 -1.19997e-01 
 7.85616e-03 -1.21921e-01 -1.04564e-01 
-6.01397e-02 -5.85318e-02 -8.83768e-02 
-1.30423e-01  6.54063e-03 -8.04491e-02 
-1.90738e-01  6.45699e-02 -9.13795e-02 
-2.32559e-01  1.09115e-01 -1.32112e-01 
-2.55151e-01  1.39116e-01 -2.01688e-01 
-2.60249e-01  1.55305e-01 -2.82908e-01 
-2.45704e-01  1.56533e-01 -3.49765e-01 
-2.07137e-01  1.40483e-01 -3.86717e-01 
-1.45145e-01  1.08036e-01 -3.92757e-01 
-6.86169e-02  6.52999e-02 -3.76496e-01 
 1.03831e-02  1.94811e-02 -3.43762e-01 
 7.89739e-02 -2.10667e-02 -2.96199e-01 
 1.35630e-01 -6.66996e-02 -1.95986e-01 
 1.01349e-01 -7.19146e-03 -6.97840e-02 
-1.96640e-01  2.08942e-01  3.92287e-02 
 7.49031e-02 -2.73808e-01 -1.16548e-01 
 9.44097e-02 -2.53676e-01 -1.18291e-01 
 5.54544e-02 -1.98164e-01 -1.10987e-01 
-3.82572e-03 -1.33060e-01 -1.08392e-01 
-7.58194e-02 -6.20191e-02 -1.00567e-01 
-1.46974e-01  7.79568e-03 -8.55625e-02 
-2.00194e-01  6.50960e-02 -7.56831e-02 
-2.28112e-01  1.03933e-01 -8.85152e-02 
-2.37642e-01  1.26860e-01 -1.33426e-01 
-2.43590e-01  1.42806e-01 -1.91114e-01 
-2.42423e-01  1.49823e-01 -2.33161e-01 
-2.17419e-01  1.39138e-01 -2.41409e-01 
-1.63788e-01  1.09756e-01 -2.26450e-01 
-9.05250e-02  6.88226e-02 -2.02991e-01 
-1.62030e-02  2.88233e-02 -1.77402e-01 
 4.33324e-02 -5.77732e-05 -1.42457e-01 
 6.77826e-02  6.84460e-03 -1.00058e-01 
 2.09811e-02  6.08933e-02 -9.48280e-02 
 2.45034e-02  8.21865e-02 -1.59070e-01 
 7.22464e-02 -2.78914e-01 -6.93085e-02 
 7.93562e-02 -2.54241e-01 -9.89420e-02 
 4.96205e-02 -2.07954e-01 -1.14798e-01 
-1.14458e-02 -1.42184e-01 -1.26820e-01 
-9.16243e-02 -6.51093e-02 -1.23637e-01 
-1.69939e-01  1.07457e-02 -9.89192e-02 
-2.22967e-01  7.18589e-02 -6.47578e-02 
-2.34835e-01  1.08877e-01 -5.48263e-02 
-2.36759e-01  1.34555e-01 -7.10324e-02 
-2.42264e-01  1.46292e-01 -9.58092e-02 
-2.47917e-01  1.47058e-01 -1.02435e-01 
-2.37695e-01  1.37494e-01 -9.24218e-02 
-1.85304e-01  1.07376e-01 -6.36246e-02 
-1.08909e-01  6.65914e-02 -3.84901e-02 
-3.40066e-02  3.21140e-02 -2.98434e-02 
 1.94970e-02  1.68392e-02 -3.19685e-02 
 4.03649e-02  2.67598e-02 -4.78655e-02 
 4.38301e-02  5.25150e-02 -9.96181e-02 
 4.62982e-02  7.71493e-02 -1.35887e-01 
 7.78623e-02 -2.82292e-01 -2.14057e-02 
 7.66005e-02 -2.54452e-01 -7.07562e-02 
 4.85769e-02 -2.11141e-01 -1.13851e-01 
-1.56818e-02 -1.46482e-01 -1.47218e-01 
-1.06916e-01 -6.88027e-02 -1.50395e-01 
-2.04009e-01  1.02412e-02 -1.01420e-01 
-2.36913e-01  6.01371e-02 -5.42318e-02 
-2.07458e-01  8.52595e-02  8.34563e-02 
-1.18224e-01  5.24105e-02  1.08864e-01 
-3.78305e-02  2.38635e-02  9.52893e-02 
 1.73017e-02  1.39507e-02  5.41186e-02 
 4.46333e-02  2.46063e-02 -6.44317e-04 
 5.59612e-02  4.71381e-02 -6.36886e-02 
 6.66556e-02  6.62940e-02 -1.02680e-01 
 8.20974e-02 -2.78108e-01  1.99482e-02 
 8.10724e-02 -2.50039e-01 -3.94044e-02 
 5.46861e-02 -2.07884e-01 -1.08012e-01 
-9.86172e-03 -1.45944e-01 -1.70218e-01 
-1.42820e-01 -4.61571e-02 -1.75640e-01 
-2.17171e-02  4.27156e-03  2.02604e-01 
 3.25581e-02  5.03651e-04  1.24248e-01 
 5.82797e-02  1.66156e-02  4.11710e-02 
 6.80872e-02  4.32646e-02 -3.11840e-02 
 7.50566e-02  6.58882e-02 -6.61470e-02 
 8.24463e-02 -2.64258e-01  5.52079e-02 
 8.65296e-02 -2.36004e-01 -8.95028e-03 
 7.48986e-02 -1.99265e-01 -1.04295e-01 
-1.34168e-02 -1.13131e-01 -2.19266e-01 
 6.64124e-02 -2.00290e-02  1.74938e-01 
 7.64886e-02  8.76953e-03  6.55497e-02 
 7.61196e-02  4.56299e-02 -1.14227e-02 
 7.69221e-02  7.36597e-02 -4.16969e-02 
 7.62852e-02 -2.40861e-01  8.08317e-02 
 9.18608e-02 -2.13705e-01  1.92631e-02 
 1.00301e-01 -1.78041e-01 -1.13246e-01 
 5.89590e-02 -1.17582e-01 -2.80774e-01 
 1.11129e-01 -4.38857e-02  2.05054e-01 
 9.69190e-02  2.48310e-03  6.18126e-02 
 7.86853e-02  5.45378e-02 -1.18843e-02 
 7.10655e-02  8.95496e-02 -3.49120e-02 
 6.34718e-02 -2.13149e-01  9.54339e-02 
 9.42436e-02 -1.89536e-01  4.94071e-02 
 1.51899e-01 -1.78782e-01 -1.00903e-01 
 1.14129e-01 -2.01566e-03  2.06041e-02 
 7.42512e-02  6.78913e-02 -3.51559e-02 
 5.76702e-02  1.10292e-01 -4.79827e-02 
 4.49170e-02 -1.88589e-01  1.01457e-01 
 8.86476e-02 -1.69246e-01  8.54634e-02 
 2.07127e-01 -2.00014e-01  1.00120e-02 
 1.18893e-01 -1.93617e-03 -5.81901e-02 
 6.10646e-02  8.32070e-02 -7.76156e-02 
 3.82984e-02  1.30232e-01 -7.66354e-02 
 2.29278e-02 -1.75420e-01  1.00880e-01 
 7.01903e-02 -1.56715e-01  1.32828e-01 
 2.09833e-01 -1.98738e-01  1.72331e-01 
 1.00436e-01  1.05948e-02 -1.60101e-01 
 3.90754e-02  9.63760e-02 -1.24722e-01 
 1.57561e-02  1.42851e-01 -1.11298e-01 
 4.91260e-04 -1.79579e-01  1.00908e-01 
 3.95037e-02 -1.55625e-01  1.67601e-01 
 1.40024e-01 -1.68038e-01  3.29752e-01 
 5.93890e-02  3.18951e-02 -2.37612e-01 
 1.12707e-02  1.01461e-01 -1.61186e-01 
-6.69501e-03  1.42713e-01 -1.38812e-01 
-2.03451e-02 -2.00934e-01  1.05989e-01 
 3.72904e-03 -1.72252e-01  1.89478e-01 
 4.08086e-02 -1.42859e-01  3.75568e-01 
 8.21062e-02 -1.21832e-01  6.41391e-01 
 5.16367e-02 -8.70329e-03 -4.67376e-01 
 8.78725e-03  4.39360e-02 -2.70554e-01 
-1.79449e-02  9.44644e-02 -1.74936e-01 
-2.67043e-02  1.27758e-01 -1.49723e-01 
-3.88128e-02 -2.34495e-01  1.20479e-01 
-3.22232e-02 -2.02138e-01  2.05083e-01 
-3.01834e-02 -1.63481e-01  3.54827e-01 
-9.77571e-02 -6.96897e-02  6.19294e-01 
-3.86696e-02  1.57558e-02 -4.25470e-01 
-4.22642e-02  4.26360e-02 -2.61683e-01 
-4.51395e-02  7.53932e-02 -1.64264e-01 
-4.41135e-02  1.01395e-01 -1.40166e-01 
-5.65488e-02 -2.70747e-01  1.44704e-01 
-6.42822e-02 -2.36003e-01  2.19493e-01 
-9.47406e-02 -1.86990e-01  3.43185e-01 
-1.66036e-01 -1.13526e-01  5.06754e-01 
-3.58567e-01  3.82930e-02  6.58551e-01 
-1.77891e-01  3.66904e-02 -5.39141e-01 
-1.16869e-01  2.13977e-02 -3.59420e-01 
-8.70749e-02  3.06522e-02 -2.21260e-01 
-7.05590e-02  5.06254e-02 -1.33468e-01 
-5.98143e-02  7.00248e-02 -1.11249e-01 
-7.30321e-02 -3.02767e-01  1.70974e-01 
-9.71090e-02 -2.61445e-01  2.35685e-01 
-1.43958e-01 -2.08889e-01  3.36512e-01 
-2.28022e-01 -1.37059e-01  4.61335e-01 
-3.59234e-01 -4.66250e-02  5.54537e-01 
-5.61034e-01  8.07964e-02  5.50442e-01 
-7.21856e-01  1.42491e-01  4.08403e-01 
-5.64483e-01  1.55815e-01 -5.32478e-01 
-3.70542e-01  7.45882e-02 -5.13006e-01 
-2.50170e-01  3.32864e-02 -4.09406e-01 
-1.75233e-01  1.62026e-02 -2.76780e-01 
-1.29076e-01  1.76141e-02 -1.64284e-01 
-9.49332e-02  2.66627e-02 -8.58800e-02 
-7.33412e-02  3.91774e-02 -6.60734e-02 
-8.95912e-02 -3.24531e-01  1.90819e-01 
-1.31878e-01 -2.72101e-01  2.41209e-01 
-1.96731e-01 -2.10988e-01  3.40260e-01 
-2.77601e-01 -1.45230e-01  4.49840e-01 
-3.89970e-01 -6.68073e-02  5.30664e-01 
-5.27272e-01  1.63139e-02  5.41137e-01 
-6.76030e-01  9.87910e-02  4.61034e-01 
-7.78647e-01  1.45717e-01  3.09210e-01 
-8.23325e-01  1.62458e-01  1.58907e-01 
-8.28830e-01  1.74196e-01  7.93462e-03 
-7.91728e-01  1.83898e-01 -1.51949e-01 
-6.90759e-01  1.64426e-01 -3.03854e-01 
-5.42637e-01  1.12944e-01 -3.78593e-01 
-4.07255e-01  6.48934e-02 -3.68536e-01 
-3.00162e-01  2.90679e-02 -2.93176e-01 
-2.26855e-01  1.38051e-02 -1.93493e-01 
-1.70870e-01  8.90039e-03 -9.44010e-02 
-1.18008e-01  6.89842e-03 -2.18926e-02 
-8.21345e-02  1.19183e-02 -9.97488e-03 
-9.11864e-02 -3.40369e-01  1.61072e-01 
-1.89865e-01 -2.53855e-01  2.37866e-01 
-2.55919e-01 -1.89688e-01  3.56462e-01 
-3.27946e-01 -1.34553e-01  4.62036e-01 
-4.20683e-01 -6.78975e-02  5.31642e-01 
-5.32115e-01  8.41635e-03  5.50046e-01 
-6.45794e-01  8.34649e-02  5.02780e-01 
-7.39278e-01  1.45537e-01  3.95055e-01 
-7.95398e-01  1.87035e-01  2.44427e-01 
-8.01346e-01  2.02981e-01  8.01139e-02 
-7.53588e-01  1.91427e-01 -7.33786e-02 
-6.63019e-01  1.57507e-01 -1.85687e-01 
-5.48929e-01  1.10377e-01 -2.38034e-01 
-4.35389e-01  6.29441e-02 -2.28084e-01 
-3.40324e-01  2.73302e-02 -1.76242e-01 
-2.68041e-01  8.41746e-03 -1.03018e-01 
-2.16492e-01  6.66627e-03 -1.95166e-02 
-1.45108e-01 -5.66705e-03  5.03037e-02 
-6.03695e-02 -2.80809e-02  7.32978e-02 
-1.88008e-01 -2.74687e-01  1.04770e-01 
-2.77111e-01 -1.79383e-01  2.67701e-01 
-3.12995e-01 -1.64093e-01  4.05924e-01 
-3.73019e-01 -1.19353e-01  4.87563e-01 
-4.50700e-01 -6.08147e-02  5.41034e-01 
-5.41242e-01  7.68075e-03  5.55021e-01 
-6.31745e-01  7.64939e-02  5.20525e-01 
-7.06261e-01  1.35266e-01  4.35646e-01 
-7.50863e-01  1.75517e-01  3.12179e-01 
-7.55961e-01  1.91706e-01  1.72416e-01 
-7.19407e-01  1.82684e-01  4.62309e-02 
-6.48143e-01  1.52407e-01 -4.24284e-02 
-5.55963e-01  1.09176e-01 -8.18151e-02 
-4.59177e-01  6.30170e-02 -7.61605e-02 
-3.70492e-01  2.20491e-02 -3.92366e-02 
-2.95970e-01 -1.00954e-02  1.02720e-02 
-2.40478e-01 -2.43495e-02  7.16122e-02 
-2.11648e-01  3.77366e-03  1.32506e-01 
 2.28340e-02 -7.14320e-02  1.04011e-01 
-2.43465e-01  1.06009e-01  2.64215e-02 
-1.31579e-01  3.91396e-02  2.43759e-01 
-1.27045e-04 -1.23615e-02  3.14690e-01 
 8.99391e-02 -6.36656e-02  3.81541e-01 
 1.77670e-01 -8.76173e-02  1.70651e-01 
 2.37929e-01 -1.28704e-01  1.64250e-02 
 2.40635e-01 -1.27428e-01 -1.98768e-01 
 1.65795e-01 -7.68730e-02 -3.99499e-01 
-8.44673e-02  3.10800e-02 -7.14718e-01 
-4.03609e-01  1.65517e-02  2.82391e-02 
-3.02860e-01 -1.73694e-01  3.47411e-01 
-3.44052e-01 -1.51255e-01  4.33469e-01 
-3.95110e-01 -1.14771e-01  4.99700e-01 
-4.67640e-01 -5.71098e-02  5.38160e-01 
-5.49065e-01  7.29329e-03  5.48308e-01 
-6.27740e-01  6.95903e-02  5.20460e-01 
-6.90924e-01  1.21458e-01  4.51233e-01 
-7.28188e-01  1.57134e-01  3.48401e-01 
-7.32973e-01  1.73373e-01  2.32552e-01 
-7.03427e-01  1.69004e-01  1.29147e-01 
-6.43439e-01  1.45557e-01  5.88602e-02 
-5.62487e-01  1.07822e-01  2.92114e-02 
-4.72941e-01  6.28497e-02  3.54504e-02 
-3.85453e-01  1.64469e-02  6.50917e-02 
-3.07849e-01 -2.74838e-02  1.08969e-01 
-2.25667e-01 -9.15464e-02  1.39185e-01 
-1.65830e-01 -1.81353e-01  2.51946e-01 
 2.42437e-01 -4.15409e-01  2.38602e-01 
-9.14292e-02 -2.22180e-01 -1.21811e-01 
 6.92710e-03 -2.61800e-01 -1.07155e-01 
 5.06645e-02 -2.92118e-01 -3.75065e-02 
 6.63460e-02 -2.99856e-01  8.90499e-03 
 7.53789e-02 -2.98756e-01  4.96704e-02 
 7.70149e-02 -2.87008e-01  8.02251e-02 
 7.10722e-02 -2.66158e-01  9.86435e-02 
 5.75415e-02 -2.40535e-01  1.04090e-01 
 3.80642e-02 -2.17477e-01  9.87108e-02 
 1.55219e-02 -2.04858e-01  8.92227e-02 
-6.82373e-03 -2.08114e-01  8.27054e-02 
-2.66976e-02 -2.27949e-01  8.59916e-02 
 1.13086e-01 -6.79150e-02 -7.42157e-01 
-4.40207e-02 -2.59272e-01  1.01638e-01 
-5.94920e-02 -2.94620e-01  1.27726e-01 
-3.47326e-01  1.23590e-01 -7.26670e-01 
-7.36509e-02 -3.26973e-01  1.59848e-01 
-7.28408e-01  1.88362e-01 -3.80593e-01 
-7.77682e-02 -3.57349e-01  1.83368e-01 
-7.79458e-02 -3.72068e-01  1.92926e-01 
 1.28045e-01 -5.02553e-01 -2.14287e-02 
 5.89363e-02 -8.43231e-02 -4.71474e-01 
-3.16432e-01  1.20938e-01 -2.44727e-01 
-6.14522e-02 -1.13475e-01 -2.45362e-01 
 1.10451e-01 -1.91210e-01 -1.18296e-01 
 8.44055e-02 -1.83927e-01 -1.51341e-01 
 4.54946e-02 -1.44815e-01 -1.22595e-01 
-1.48811e-02 -8.98038e-02 -9.41709e-02 
-8.55520e-02 -2.56052e-02 -7.50246e-02 
-1.56086e-01  3.83394e-02 -7.81487e-02 
-2.15692e-01  9.34316e-02 -1.16102e-01 
-2.56363e-01  1.34171e-01 -1.93315e-01 
-2.73516e-01  1.58787e-01 -2.97075e-01 
-2.64744e-01  1.66197e-01 -3.99907e-01 
-2.29403e-01  1.55401e-01 -4.75001e-01 
-1.70325e-01  1.27234e-01 -5.10564e-01 
-9.49212e-02  8.68229e-02 -5.10764e-01 
-1.34506e-02  4.15654e-02 -4.86553e-01 
 6.51165e-02 -2.16339e-03 -4.46818e-01 
 1.32310e-01 -4.43448e-02 -3.89604e-01 
 2.02277e-01 -8.07139e-02 -2.83523e-01 
-2.16875e-02 -1.25891e-01  3.37170e-01 
 2.82232e-02 -2.71001e-01 -2.00326e-01 
 8.61127e-02 -2.54408e-01 -1.40120e-01 
 7.55229e-02 -2.10819e-01 -9.67021e-02 
 2.75049e-02 -1.58215e-01 -9.88337e-02 
-3.42794e-02 -9.45271e-02 -9.22649e-02 
-1.02276e-01 -2.59556e-02 -7.99182e-02 
-1.63838e-01  3.81624e-02 -6.92509e-02 
-2.08800e-01  8.84867e-02 -7.90483e-02 
-2.34937e-01  1.22707e-01 -1.26530e-01 
-2.46275e-01  1.43668e-01 -2.05422e-01 
-2.44145e-01  1.53980e-01 -2.80456e-01 
-2.23645e-01  1.49020e-01 -3.20697e-01 
-1.79838e-01  1.26206e-01 -3.23808e-01 
-1.15689e-01  8.84526e-02 -3.04076e-01 
-4.22277e-02  4.50873e-02 -2.74619e-01 
 2.61151e-02  5.38245e-03 -2.33977e-01 
 7.62773e-02 -2.18022e-02 -1.70124e-01 
 5.25814e-02 -2.82899e-02 -2.15945e-02 
 1.67597e-02  1.03867e-01 -1.55235e-01 
 5.44277e-02 -2.79880e-01 -6.89983e-02 
 7.38450e-02 -2.68123e-01 -1.26241e-01 
 6.46126e-02 -2.29445e-01 -1.12564e-01 
 1.96338e-02 -1.70819e-01 -1.14891e-01 
-4.67757e-02 -1.00945e-01 -1.19283e-01 
-1.19356e-01 -2.62064e-02 -1.05235e-01 
-1.80752e-01  4.05974e-02 -7.18286e-02 
-2.17654e-01  9.08773e-02 -4.27106e-02 
-2.30651e-01  1.21339e-01 -5.88366e-02 
-2.35091e-01  1.40927e-01 -1.22744e-01 
-2.40323e-01  1.48154e-01 -1.84016e-01 
-2.32696e-01  1.45817e-01 -1.95311e-01 
-1.97397e-01  1.23926e-01 -1.61782e-01 
-1.36253e-01  8.73513e-02 -1.23566e-01 
-6.46351e-02  4.68620e-02 -9.90454e-02 
-1.64347e-03  1.57657e-02 -8.13833e-02 
 3.30873e-02  4.12905e-03 -5.67265e-02 
 4.03982e-02  3.28202e-02 -6.70586e-02 
 3.72895e-02  7.52591e-02 -1.69209e-01 
 6.63799e-02 -2.91427e-01 -8.46738e-03 
 7.32160e-02 -2.68503e-01 -7.41963e-02 
 5.83653e-02 -2.33917e-01 -1.05902e-01 
 1.36830e-02 -1.78380e-01 -1.35337e-01 
-5.79003e-02 -1.05222e-01 -1.56710e-01 
-1.39830e-01 -2.68856e-02 -1.45840e-01 
-2.06993e-01  4.04851e-02 -8.32485e-02 
-2.37995e-01  8.89343e-02 -2.68481e-02 
-2.42363e-01  1.39497e-01 -3.41492e-02 
-2.45142e-01  1.75749e-01 -2.39081e-02 
-2.52280e-01  1.57966e-01 -1.05323e-02 
-2.48977e-01  1.33426e-01 -2.73692e-02 
-2.18081e-01  1.08944e-01  1.01827e-02 
-1.53673e-01  7.75941e-02  5.41021e-02 
-7.77821e-02  4.12081e-02  5.95065e-02 
-1.43694e-02  1.71582e-02  4.08393e-02 
 2.54531e-02  1.65598e-02  7.58186e-03 
 4.40682e-02  3.59832e-02 -4.23883e-02 
 5.50481e-02  6.57645e-02 -1.33155e-01 
 7.52537e-02 -2.93172e-01  4.24823e-02 
 7.69654e-02 -2.66454e-01 -2.73468e-02 
 6.07017e-02 -2.32530e-01 -8.27341e-02 
 1.29377e-02 -1.78843e-01 -1.44916e-01 
-6.86674e-02 -1.02994e-01 -1.93638e-01 
-1.68820e-01 -1.95772e-02 -1.50409e-01 
-2.46262e-01  2.06784e-02 -2.84484e-02 
-2.47786e-01  7.97740e-02  1.11645e-01 
-1.68389e-01  6.25020e-02  1.90207e-01 
-7.94709e-02  2.72158e-02  1.97309e-01 
-8.86410e-03  7.06111e-03  1.36708e-01 
 3.41315e-02  1.10682e-02  6.33534e-02 
 5.53196e-02  3.23057e-02 -8.67273e-03 
 6.69507e-02  6.09746e-02 -9.25659e-02 
 7.97071e-02 -2.86521e-01  8.33679e-02 
 8.17772e-02 -2.56774e-01  1.87755e-02 
 6.83847e-02 -2.24578e-01 -5.04304e-02 
 2.20401e-02 -1.72837e-01 -1.46255e-01 
-8.70358e-02 -7.68177e-02 -2.40990e-01 
-7.23917e-02  1.26596e-02  3.33330e-01 
 1.45904e-02 -1.30503e-02  2.10356e-01 
 5.34773e-02 -1.01341e-03  1.01405e-01 
 6.89411e-02  2.84766e-02  1.56714e-02 
 7.48875e-02  6.42571e-02 -6.08859e-02 
 7.83523e-02 -2.71003e-01  1.10931e-01 
 8.42979e-02 -2.38032e-01  5.99907e-02 
 8.44626e-02 -2.10106e-01 -1.16519e-02 
 4.08631e-02 -1.55669e-01 -1.72889e-01 
 5.51048e-02 -4.19420e-02  2.83115e-01 
 8.47597e-02 -1.66629e-02  1.10790e-01 
 8.23131e-02  2.84060e-02  1.96103e-02 
 7.74658e-02  7.54993e-02 -4.42390e-02 
 7.01877e-02 -2.49047e-01  1.20973e-01 
 8.37101e-02 -2.13041e-01  8.94138e-02 
 1.09764e-01 -1.93138e-01  2.22058e-02 
 1.44928e-01 -1.63225e-01 -2.59848e-01 
 1.68645e-01 -1.03179e-01  3.41887e-01 
 1.25431e-01 -3.38265e-02  8.51008e-02 
 9.34697e-02  3.23443e-02 -1.24622e-03 
 7.34969e-02  9.29329e-02 -4.56674e-02 
 5.52595e-02 -2.26031e-01  1.12638e-01 
 7.89588e-02 -1.87925e-01  1.07874e-01 
 1.38888e-01 -1.78472e-01  5.71274e-02 
 1.65957e-01 -4.96236e-02  1.38681e-02 
 9.82949e-02  4.02856e-02 -4.99355e-02 
 6.20519e-02  1.12319e-01 -6.37417e-02 
 3.50938e-02 -2.09063e-01  9.13679e-02 
 6.46350e-02 -1.69620e-01  1.14569e-01 
 1.56445e-01 -1.67639e-01  1.16643e-01 
 1.86498e-01 -5.20546e-02 -1.16643e-01 
 8.79765e-02  5.19030e-02 -1.14569e-01 
 4.32469e-02  1.27872e-01 -9.13679e-02 
 1.20516e-02 -2.04406e-01  6.76648e-02 
 4.07764e-02 -1.65061e-01  1.13982e-01 
 1.22836e-01 -1.58638e-01  1.78090e-01 
 1.49905e-01 -2.97899e-02 -2.49086e-01 
 6.01126e-02  6.31496e-02 -1.71921e-01 
 1.88440e-02  1.33944e-01 -1.16561e-01 
-1.07132e-02 -2.15088e-01  5.31270e-02 
 9.62980e-03 -1.76912e-01  1.15055e-01 
 6.02246e-02 -1.59343e-01  2.05388e-01 
 7.58916e-02 -3.09858e-05 -3.12694e-01 
 1.93895e-02  6.84738e-02 -2.03223e-01 
-7.40409e-03  1.26892e-01 -1.28432e-01 
-3.14968e-02 -2.39216e-01  5.60175e-02 
-2.14203e-02 -2.03096e-01  1.23322e-01 
-4.84617e-03 -1.74674e-01  2.19608e-01 
-1.53439e-02 -1.28582e-01  4.67542e-01 
-1.10224e-03 -1.48546e-02 -5.77768e-01 
-4.54903e-03  1.87693e-02 -3.18746e-01 
-2.34051e-02  6.33416e-02 -2.02923e-01 
-3.23834e-02  1.07287e-01 -1.22709e-01 
-5.03807e-02 -2.70965e-01  7.75573e-02 
-4.91877e-02 -2.36547e-01  1.45300e-01 
-6.12419e-02 -1.99482e-01  2.38345e-01 
-1.03523e-01 -1.43819e-01  4.00294e-01 
-1.10972e-01  1.59683e-02 -4.64395e-01 
-7.61493e-02  2.40835e-02 -2.89320e-01 
-6.20238e-02  4.87036e-02 -1.79747e-01 
-5.52002e-02  7.98140e-02 -1.00039e-01 
-6.80243e-02 -3.03681e-01  1.13154e-01 
-7.54602e-02 -2.67988e-01  1.74049e-01 
-1.03911e-01 -2.24278e-01  2.55907e-01 
-1.66767e-01 -1.63721e-01  3.86843e-01 
-2.81252e-01 -7.10171e-02  5.42260e-01 
-2.92055e-01  5.91931e-02 -5.45931e-01 
-1.88569e-01  2.21835e-02 -3.78635e-01 
-1.30481e-01  1.93201e-02 -2.36526e-01 
-9.71060e-02  3.07710e-02 -1.38029e-01 
-7.63274e-02  5.04655e-02 -6.30703e-02 
-8.38891e-02 -3.33365e-01  1.54726e-01 
-1.00652e-01 -2.89818e-01  1.94447e-01 
-1.44971e-01 -2.37159e-01  2.71866e-01 
-2.15127e-01 -1.75055e-01  3.87987e-01 
-3.18986e-01 -9.70019e-02  5.11262e-01 
-4.56819e-01 -2.76254e-03  5.85585e-01 
-6.19226e-01  9.64565e-02  5.37043e-01 
-6.30314e-01  1.64915e-01 -4.63977e-01 
-4.70661e-01  1.01717e-01 -4.93848e-01 
-3.38868e-01  4.94285e-02 -4.14059e-01 
-2.43180e-01  2.04829e-02 -2.93490e-01 
-1.77883e-01  1.33181e-02 -1.73545e-01 
-1.29800e-01  1.46687e-02 -7.78623e-02 
-9.52210e-02  2.38269e-02 -1.31035e-02 
-9.22454e-02 -3.57132e-01  1.87962e-01 
-1.28361e-01 -2.95850e-01  1.89337e-01 
-1.90667e-01 -2.26141e-01  2.73997e-01 
-2.67014e-01 -1.69577e-01  4.01850e-01 
-3.56831e-01 -1.03554e-01  5.10622e-01 
-4.68486e-01 -2.47202e-02  5.76714e-01 
-5.91059e-01  5.53016e-02  5.71586e-01 
-7.03178e-01  1.21047e-01  4.76694e-01 
-7.84233e-01  1.61931e-01  3.15785e-01 
-8.17499e-01  1.79729e-01  1.22744e-01 
-7.93906e-01  1.88746e-01 -7.29324e-02 
-7.18220e-01  1.75988e-01 -2.38672e-01 
-6.07705e-01  1.38630e-01 -3.37975e-01 
-4.85383e-01  8.88375e-02 -3.47914e-01 
-3.74691e-01  4.42535e-02 -2.92294e-01 
-2.88291e-01  1.70080e-02 -2.05575e-01 
-2.22192e-01  7.43312e-03 -1.04707e-01 
-1.61808e-01  5.09333e-03  3.96303e-03 
-1.09384e-01 -1.99310e-03  5.02447e-02 
-9.20407e-02 -3.92389e-01  1.67825e-01 
-1.63660e-01 -2.38026e-01  1.00533e-01 
-2.60220e-01 -1.98368e-01  3.07693e-01 
-3.20466e-01 -1.53698e-01  4.32052e-01 
-3.96028e-01 -9.71048e-02  5.22993e-01 
-4.87150e-01 -2.83540e-02  5.73834e-01 
-5.85949e-01  4.53139e-02  5.69816e-01 
-6.76801e-01  1.12072e-01  4.99782e-01 
-7.42577e-01  1.61815e-01  3.71759e-01 
-7.69832e-01  1.90003e-01  2.05422e-01 