<?xml version="1.0" encoding="utf-8"?>
<VTKFile byte_order="LittleEndian" type="UnstructuredGrid" version="0.1">
   <UnstructuredGrid>
      <Piece NumberOfCells="1444" NumberOfPoints="761">
         <Points>
            <DataArray Name="Points" NumberOfComponents="3" format="ascii" type="Float32">
-1.0000 -1.0000 0.0000
-1.0000 -0.8947 0.0000
-1.0000 -0.7895 0.0000
-1.0000 -0.6842 0.0000
-1.0000 -0.5789 0.0000
-1.0000 -0.4737 0.0000
-1.0000 -0.3684 0.0000
-1.0000 -0.2632 0.0000
-1.0000 -0.1579 0.0000
-1.0000 -0.0526 0.0000
-1.0000 0.0526 0.0000
-1.0000 0.1579 0.0000
-1.0000 0.2632 0.0000
-1.0000 0.3684 0.0000
-1.0000 0.4737 0.0000
-1.0000 0.5789 0.0000
-1.0000 0.6842 0.0000
-1.0000 0.7895 0.0000
-1.0000 0.8947 0.0000
-1.0000 1.0000 0.0000
-0.8947 -1.0000 0.0000
-0.8947 -0.8947 0.0000
-0.8947 -0.7895 0.0000
-0.8947 -0.6842 0.0000
-0.8947 -0.5789 0.0000
-0.8947 -0.4737 0.0000
-0.8947 -0.3684 0.0000
-0.8947 -0.2632 0.0000
-0.8947 -0.1579 0.0000
-0.8947 -0.0526 0.0000
-0.8947 0.0526 0.0000
-0.8947 0.1579 0.0000
-0.8947 0.2632 0.0000
-0.8947 0.3684 0.0000
-0.8947 0.4737 0.0000
-0.8947 0.5789 0.0000
-0.8947 0.6842 0.0000
-0.8947 0.7895 0.0000
-0.8947 0.8947 0.0000
-0.8947 1.0000 0.0000
-0.7895 -1.0000 0.0000
-0.7895 -0.8947 0.0000
-0.7895 -0.7895 0.0000
-0.7895 -0.6842 0.0000
-0.7895 -0.5789 0.0000
-0.7895 -0.4737 0.0000
-0.7895 -0.3684 0.0000
-0.7895 -0.2632 0.0000
-0.7895 -0.1579 0.0000
-0.7895 -0.0526 0.0000
-0.7895 0.0526 0.0000
-0.7895 0.1579 0.0000
-0.7895 0.2632 0.0000
-0.7895 0.3684 0.0000
-0.7895 0.4737 0.0000
-0.7895 0.5789 0.0000
-0.7895 0.6842 0.0000
-0.7895 0.7895 0.0000
-0.7895 0.8947 0.0000
-0.7895 1.0000 0.0000
-0.6842 -1.0000 0.0000
-0.6842 -0.8947 0.0000
-0.6842 -0.7895 0.0000
-0.6842 -0.6842 0.0000
-0.6842 -0.5789 0.0000
-0.6842 -0.4737 0.0000
-0.6842 -0.3684 0.0000
-0.6842 -0.2632 0.0000
-0.6842 -0.1579 0.0000
-0.6842 -0.0526 0.0000
-0.6842 0.0526 0.0000
-0.6842 0.1579 0.0000
-0.6842 0.2632 0.0000
-0.6842 0.3684 0.0000
-0.6842 0.4737 0.0000
-0.6842 0.5789 0.0000
-0.6842 0.6842 0.0000
-0.6842 0.7895 0.0000
-0.6842 0.8947 0.0000
-0.6842 1.0000 0.0000
-0.5789 -1.0000 0.0000
-0.5789 -0.8947 0.0000
-0.5789 -0.7895 0.0000
-0.5789 -0.6842 0.0000
-0.5789 -0.5789 0.0000
-0.5789 -0.4737 0.0000
-0.5789 -0.3684 0.0000
-0.5789 -0.2632 0.0000
-0.5789 -0.1579 0.0000
-0.5789 -0.0526 0.0000
-0.5789 0.0526 0.0000
-0.5789 0.1579 0.0000
-0.5789 0.2632 0.0000
-0.5789 0.3684 0.0000
-0.5789 0.4737 0.0000
-0.5789 0.5789 0.0000
-0.5789 0.6842 0.0000
-0.5789 0.7895 0.0000
-0.5789 0.8947 0.0000
-0.5789 1.0000 0.0000
-0.4737 -1.0000 0.0000
-0.4737 -0.8947 0.0000
-0.4737 -0.7895 0.0000
-0.4737 -0.6842 0.0000
-0.4737 -0.5789 0.0000
-0.4737 -0.4737 0.0000
-0.4737 -0.3684 0.0000
-0.4737 -0.2632 0.0000
-0.4737 -0.1579 0.0000
-0.4737 -0.0526 0.0000
-0.4737 0.0526 0.0000
-0.4737 0.1579 0.0000
-0.4737 0.2632 0.0000
-0.4737 0.3684 0.0000
-0.4737 0.4737 0.0000
-0.4737 0.5789 0.0000
-0.4737 0.6842 0.0000
-0.4737 0.7895 0.0000
-0.4737 0.8947 0.0000
-0.4737 1.0000 0.0000
-0.3684 -1.0000 0.0000
-0.3684 -0.8947 0.0000
-0.3684 -0.7895 0.0000
-0.3684 -0.6842 0.0000
-0.3684 -0.5789 0.0000
-0.3684 -0.4737 0.0000
-0.3684 -0.3684 0.0000
-0.3684 -0.2632 0.0000
-0.3684 -0.1579 0.0000
-0.3684 -0.0526 0.0000
-0.3684 0.0526 0.0000
-0.3684 0.1579 0.0000
-0.3684 0.2632 0.0000
-0.3684 0.3684 0.0000
-0.3684 0.4737 0.0000
-0.3684 0.5789 0.0000
-0.3684 0.6842 0.0000
-0.3684 0.7895 0.0000
-0.3684 0.8947 0.0000
-0.3684 1.0000 0.0000
-0.2632 -1.0000 0.0000
-0.2632 -0.8947 0.0000
-0.2632 -0.7895 0.0000
-0.2632 -0.6842 0.0000
-0.2632 -0.5789 0.0000
-0.2632 -0.4737 0.0000
-0.2632 -0.3684 0.0000
-0.2632 -0.2632 0.0000
-0.2632 -0.1579 0.0000
-0.2632 -0.0526 0.0000
-0.2632 0.0526 0.0000
-0.2632 0.1579 0.0000
-0.2632 0.2632 0.0000
-0.2632 0.3684 0.0000
-0.2632 0.4737 0.0000
-0.2632 0.5789 0.0000
-0.2632 0.6842 0.0000
-0.2632 0.7895 0.0000
-0.2632 0.8947 0.0000
-0.2632 1.0000 0.0000
-0.1579 -1.0000 0.0000
-0.1579 -0.8947 0.0000
-0.1579 -0.7895 0.0000
-0.1579 -0.6842 0.0000
-0.1579 -0.5789 0.0000
-0.1579 -0.4737 0.0000
-0.1579 -0.3684 0.0000
-0.1579 -0.2632 0.0000
-0.1579 -0.1579 0.0000
-0.1579 -0.0526 0.0000
-0.1579 0.0526 0.0000
-0.1579 0.1579 0.0000
-0.1579 0.2632 0.0000
-0.1579 0.3684 0.0000
-0.1579 0.4737 0.0000
-0.1579 0.5789 0.0000
-0.1579 0.6842 0.0000
-0.1579 0.7895 0.0000
-0.1579 0.8947 0.0000
-0.1579 1.0000 0.0000
-0.0526 -1.0000 0.0000
-0.0526 -0.8947 0.0000
-0.0526 -0.7895 0.0000
-0.0526 -0.6842 0.0000
-0.0526 -0.5789 0.0000
-0.0526 -0.4737 0.0000
-0.0526 -0.3684 0.0000
-0.0526 -0.2632 0.0000
-0.0526 -0.1579 0.0000
-0.0526 -0.0526 0.0000
-0.0526 0.0526 0.0000
-0.0526 0.1579 0.0000
-0.0526 0.2632 0.0000
-0.0526 0.3684 0.0000
-0.0526 0.4737 0.0000
-0.0526 0.5789 0.0000
-0.0526 0.6842 0.0000
-0.0526 0.7895 0.0000
-0.0526 0.8947 0.0000
-0.0526 1.0000 0.0000
0.0526 -1.0000 0.0000
0.0526 -0.8947 0.0000
0.0526 -0.7895 0.0000
0.0526 -0.6842 0.0000
0.0526 -0.5789 0.0000
0.0526 -0.4737 0.0000
0.0526 -0.3684 0.0000
0.0526 -0.2632 0.0000
0.0526 -0.1579 0.0000
0.0526 -0.0526 0.0000
0.0526 0.0526 0.0000
0.0526 0.1579 0.0000
0.0526 0.2632 0.0000
0.0526 0.3684 0.0000
0.0526 0.4737 0.0000
0.0526 0.5789 0.0000
0.0526 0.6842 0.0000
0.0526 0.7895 0.0000
0.0526 0.8947 0.0000
0.0526 1.0000 0.0000
0.1579 -1.0000 0.0000
0.1579 -0.8947 0.0000
0.1579 -0.7895 0.0000
0.1579 -0.6842 0.0000
0.1579 -0.5789 0.0000
0.1579 -0.4737 0.0000
0.1579 -0.3684 0.0000
0.1579 -0.2632 0.0000
0.1579 -0.1579 0.0000
0.1579 -0.0526 0.0000
0.1579 0.0526 0.0000
0.1579 0.1579 0.0000
0.1579 0.2632 0.0000
0.1579 0.3684 0.0000
0.1579 0.4737 0.0000
0.1579 0.5789 0.0000
0.1579 0.6842 0.0000
0.1579 0.7895 0.0000
0.1579 0.8947 0.0000
0.1579 1.0000 0.0000
0.2632 -1.0000 0.0000
0.2632 -0.8947 0.0000
0.2632 -0.7895 0.0000
0.2632 -0.6842 0.0000
0.2632 -0.5789 0.0000
0.2632 -0.4737 0.0000
0.2632 -0.3684 0.0000
0.2632 -0.2632 0.0000
0.2632 -0.1579 0.0000
0.2632 -0.0526 0.0000
0.2632 0.0526 0.0000
0.2632 0.1579 0.0000
0.2632 0.2632 0.0000
0.2632 0.3684 0.0000
0.2632 0.4737 0.0000
0.2632 0.5789 0.0000
0.2632 0.6842 0.0000
0.2632 0.7895 0.0000
0.2632 0.8947 0.0000
0.2632 1.0000 0.0000
0.3684 -1.0000 0.0000
0.3684 -0.8947 0.0000
0.3684 -0.7895 0.0000
0.3684 -0.6842 0.0000
0.3684 -0.5789 0.0000
0.3684 -0.4737 0.0000
0.3684 -0.3684 0.0000
0.3684 -0.2632 0.0000
0.3684 -0.1579 0.0000
0.3684 -0.0526 0.0000
0.3684 0.0526 0.0000
0.3684 0.1579 0.0000
0.3684 0.2632 0.0000
0.3684 0.3684 0.0000
0.3684 0.4737 0.0000
0.3684 0.5789 0.0000
0.3684 0.6842 0.0000
0.3684 0.7895 0.0000
0.3684 0.8947 0.0000
0.3684 1.0000 0.0000
0.4737 -1.0000 0.0000
0.4737 -0.8947 0.0000
0.4737 -0.7895 0.0000
0.4737 -0.6842 0.0000
0.4737 -0.5789 0.0000
0.4737 -0.4737 0.0000
0.4737 -0.3684 0.0000
0.4737 -0.2632 0.0000
0.4737 -0.1579 0.0000
0.4737 -0.0526 0.0000
0.4737 0.0526 0.0000
0.4737 0.1579 0.0000
0.4737 0.2632 0.0000
0.4737 0.3684 0.0000
0.4737 0.4737 0.0000
0.4737 0.5789 0.0000
0.4737 0.6842 0.0000
0.4737 0.7895 0.0000
0.4737 0.8947 0.0000
0.4737 1.0000 0.0000
0.5789 -1.0000 0.0000
0.5789 -0.8947 0.0000
0.5789 -0.7895 0.0000
0.5789 -0.6842 0.0000
0.5789 -0.5789 0.0000
0.5789 -0.4737 0.0000
0.5789 -0.3684 0.0000
0.5789 -0.2632 0.0000
0.5789 -0.1579 0.0000
0.5789 -0.0526 0.0000
0.5789 0.0526 0.0000
0.5789 0.1579 0.0000
0.5789 0.2632 0.0000
0.5789 0.3684 0.0000
0.5789 0.4737 0.0000
0.5789 0.5789 0.0000
0.5789 0.6842 0.0000
0.5789 0.7895 0.0000
0.5789 0.8947 0.0000
0.5789 1.0000 0.0000
0.6842 -1.0000 0.0000
0.6842 -0.8947 0.0000
0.6842 -0.7895 0.0000
0.6842 -0.6842 0.0000
0.6842 -0.5789 0.0000
0.6842 -0.4737 0.0000
0.6842 -0.3684 0.0000
0.6842 -0.2632 0.0000
0.6842 -0.1579 0.0000
0.6842 -0.0526 0.0000
0.6842 0.0526 0.0000
0.6842 0.1579 0.0000
0.6842 0.2632 0.0000
0.6842 0.3684 0.0000
0.6842 0.4737 0.0000
0.6842 0.5789 0.0000
0.6842 0.6842 0.0000
0.6842 0.7895 0.0000
0.6842 0.8947 0.0000
0.6842 1.0000 0.0000
0.7895 -1.0000 0.0000
0.7895 -0.8947 0.0000
0.7895 -0.7895 0.0000
0.7895 -0.6842 0.0000
0.7895 -0.5789 0.0000
0.7895 -0.4737 0.0000
0.7895 -0.3684 0.0000
0.7895 -0.2632 0.0000
0.7895 -0.1579 0.0000
0.7895 -0.0526 0.0000
0.7895 0.0526 0.0000
0.7895 0.1579 0.0000
0.7895 0.2632 0.0000
0.7895 0.3684 0.0000
0.7895 0.4737 0.0000
0.7895 0.5789 0.0000
0.7895 0.6842 0.0000
0.7895 0.7895 0.0000
0.7895 0.8947 0.0000
0.7895 1.0000 0.0000
0.8947 -1.0000 0.0000
0.8947 -0.8947 0.0000
0.8947 -0.7895 0.0000
0.8947 -0.6842 0.0000
0.8947 -0.5789 0.0000
0.8947 -0.4737 0.0000
0.8947 -0.3684 0.0000
0.8947 -0.2632 0.0000
0.8947 -0.1579 0.0000
0.8947 -0.0526 0.0000
0.8947 0.0526 0.0000
0.8947 0.1579 0.0000
0.8947 0.2632 0.0000
0.8947 0.3684 0.0000
0.8947 0.4737 0.0000
0.8947 0.5789 0.0000
0.8947 0.6842 0.0000
0.8947 0.7895 0.0000
0.8947 0.8947 0.0000
0.8947 1.0000 0.0000
1.0000 -1.0000 0.0000
1.0000 -0.8947 0.0000
1.0000 -0.7895 0.0000
1.0000 -0.6842 0.0000
1.0000 -0.5789 0.0000
1.0000 -0.4737 0.0000
1.0000 -0.3684 0.0000
1.0000 -0.2632 0.0000
1.0000 -0.1579 0.0000
1.0000 -0.0526 0.0000
1.0000 0.0526 0.0000
1.0000 0.1579 0.0000
1.0000 0.2632 0.0000
1.0000 0.3684 0.0000
1.0000 0.4737 0.0000
1.0000 0.5789 0.0000
1.0000 0.6842 0.0000
1.0000 0.7895 0.0000
1.0000 0.8947 0.0000
1.0000 1.0000 0.0000
-0.9474 -0.9474 0.0000
-0.9474 -0.8421 0.0000
-0.9474 -0.7368 0.0000
-0.9474 -0.6316 0.0000
-0.9474 -0.5263 0.0000
-0.9474 -0.4211 0.0000
-0.9474 -0.3158 0.0000
-0.9474 -0.2105 0.0000
-0.9474 -0.1053 0.0000
-0.9474 0.0000 0.0000
-0.9474 0.1053 0.0000
-0.9474 0.2105 0.0000
-0.9474 0.3158 0.0000
-0.9474 0.4211 0.0000
-0.9474 0.5263 0.0000
-0.9474 0.6316 0.0000
-0.9474 0.7368 0.0000
-0.9474 0.8421 0.0000
-0.9474 0.9474 0.0000
-0.8421 -0.9474 0.0000
-0.8421 -0.8421 0.0000
-0.8421 -0.7368 0.0000
-0.8421 -0.6316 0.0000
-0.8421 -0.5263 0.0000
-0.8421 -0.4211 0.0000
-0.8421 -0.3158 0.0000
-0.8421 -0.2105 0.0000
-0.8421 -0.1053 0.0000
-0.8421 0.0000 0.0000
-0.8421 0.1053 0.0000
-0.8421 0.2105 0.0000
-0.8421 0.3158 0.0000
-0.8421 0.4211 0.0000
-0.8421 0.5263 0.0000
-0.8421 0.6316 0.0000
-0.8421 0.7368 0.0000
-0.8421 0.8421 0.0000
-0.8421 0.9474 0.0000
-0.7368 -0.9474 0.0000
-0.7368 -0.8421 0.0000
[...]
         <PointData>
            <DataArray Name="fValues" NumberOfComponents="3" format="ascii" type="Float64">
 4.26346e-19  2.09897e-19        00000 
-7.68474e-19 -5.12316e-19        00000 
 1.68572e-19  4.63573e-19        00000 
 5.24201e-19 -4.13007e-19        00000 
       00000  1.01143e-18        00000 
 9.11677e-19 -8.91862e-19        00000 
-4.21430e-19  4.72002e-18        00000 
 8.04834e-19  2.54158e-18        00000 
 1.18000e-18  3.37144e-18        00000 
 3.40102e-18  1.22437e-17        00000 
 3.03430e-18  2.02286e-18        00000 
 3.70647e-19 -3.04990e-18        00000 
 2.52858e-18  6.06859e-18        00000 
-1.26904e-19  9.48088e-19        00000 
 1.51715e-18  2.02286e-18        00000 
-2.04385e-18 -5.80328e-18        00000 
 7.58574e-19  2.69715e-18        00000 
-8.50315e-19  1.36050e-18        00000 
-8.50090e-20 -1.02011e-18        00000 
-2.59452e-19  1.27430e-17        00000 
-4.90911e-19 -3.27274e-19        00000 
 3.53518e-03  3.92122e-03        00000 
 5.14641e-03  6.64065e-03        00000 
 6.26388e-03  9.08274e-03        00000 
 7.17175e-03  1.15948e-02        00000 
 8.07618e-03  1.43213e-02        00000 
 9.14139e-03  1.72646e-02        00000 
 1.04685e-02  2.02913e-02        00000 
 1.20404e-02  2.31732e-02        00000 
 1.36865e-02  2.56781e-02        00000 
 1.51142e-02  2.76847e-02        00000 
 1.60181e-02  2.92615e-02        00000 
 1.62161e-02  3.06370e-02        00000 
 1.56897e-02  3.20893e-02        00000 
 1.45753e-02  3.38607e-02        00000 
 1.30317e-02  3.60773e-02        00000 
 1.11753e-02  3.87914e-02        00000 
 8.94412e-03  4.20733e-02        00000 
 6.00330e-03  4.62476e-02        00000 
 1.12282e-18  5.26344e-02        00000 
 3.81247e-19 -1.74738e-19        00000 
 5.47501e-03  6.03804e-03        00000 
 8.82127e-03  1.12711e-02        00000 
 1.10062e-02  1.60721e-02        00000 
 1.26685e-02  2.09488e-02        00000 
 1.42636e-02  2.62042e-02        00000 
 1.61807e-02  3.18897e-02        00000 
 1.87762e-02  3.78747e-02        00000 
 2.20939e-02  4.38075e-02        00000 
 2.57312e-02  4.92296e-02        00000 
 2.89754e-02  5.38663e-02        00000 
 3.10427e-02  5.77772e-02        00000 
 3.14335e-02  6.13451e-02        00000 
 3.02413e-02  6.51094e-02        00000 
 2.77369e-02  6.94174e-02        00000 
 2.43458e-02  7.44490e-02        00000 
 2.03423e-02  8.03324e-02        00000 
 1.56255e-02  8.72031e-02        00000 
 9.40311e-03  9.54359e-02        00000 
 1.68218e-19  1.05269e-01        00000 
 3.37144e-19  5.05716e-19        00000 
 6.76706e-03  7.56284e-03        00000 
 1.14217e-02  1.45083e-02        00000 
 1.45241e-02  2.11477e-02        00000 
 1.67082e-02  2.79577e-02        00000 
 1.86326e-02  3.53414e-02        00000 
 2.11091e-02  4.36036e-02        00000 
 2.47899e-02  5.26589e-02        00000 
 2.98968e-02  6.20049e-02        00000 
 3.58760e-02  7.09209e-02        00000 
 4.14221e-02  7.89058e-02        00000 
 4.50062e-02  8.58527e-02        00000 
 4.56468e-02  9.22695e-02        00000 
 4.34519e-02  9.89382e-02        00000 
 3.91830e-02  1.06320e-01        00000 
 3.37659e-02  1.14632e-01        00000 
 2.74693e-02  1.23828e-01        00000 
 2.03053e-02  1.34064e-01        00000 
 1.15415e-02  1.45428e-01        00000 
 4.33219e-20  1.57903e-01        00000 
-1.09078e-18 -2.32981e-19        00000 
 7.86445e-03  8.67737e-03        00000 
 1.35628e-02  1.67515e-02        00000 
 1.73284e-02  2.45592e-02        00000 
 1.96824e-02  3.26011e-02        00000 
 2.15299e-02  4.15695e-02        00000 
 2.39288e-02  5.19091e-02        00000 
 2.79929e-02  6.36704e-02        00000 
 3.46386e-02  7.66580e-02        00000 
 4.33595e-02  8.99471e-02        00000 
 5.19751e-02  1.02188e-01        00000 
 5.75905e-02  1.13206e-01        00000 
 5.85210e-02  1.23495e-01        00000 
 5.52434e-02  1.33974e-01        00000 
 4.88093e-02  1.44727e-01        00000 
 4.11487e-02  1.56474e-01        00000 
 3.26751e-02  1.68914e-01        00000 
 2.34624e-02  1.82095e-01        00000 
 1.28461e-02  1.95991e-01        00000 
 1.75350e-18  2.10537e-01        00000 
 1.68572e-18  1.68572e-19        00000 
 9.08794e-03  9.54030e-03        00000 
 1.57823e-02  1.83010e-02        00000 
 2.00255e-02  2.66132e-02        00000 
 2.23061e-02  3.51772e-02        00000 
 2.33687e-02  4.45737e-02        00000 
 2.47701e-02  5.57716e-02        00000 
 2.84043e-02  6.96681e-02        00000 
 3.61195e-02  8.66778e-02        00000 
 4.77343e-02  1.05405e-01        00000 
 6.05951e-02  1.24431e-01        00000 
 6.93522e-02  1.40911e-01        00000 
 7.03546e-02  1.55957e-01        00000 
 6.51010e-02  1.70618e-01        00000 
 5.64466e-02  1.85531e-01        00000 
 4.65656e-02  2.00660e-01        00000 
 3.63134e-02  2.15961e-01        00000 
 2.54674e-02  2.31363e-01        00000 
 1.35600e-02  2.47115e-01        00000 
 1.22333e-18  2.63172e-01        00000 
-1.70051e-18 -3.40102e-19        00000 
 1.06771e-02  1.03567e-02        00000 
 1.85266e-02  1.96017e-02        00000 
 2.33101e-02  2.80355e-02        00000 
 2.53674e-02  3.63074e-02        00000 
 2.52466e-02  4.49273e-02        00000 
 2.50929e-02  5.56832e-02        00000 
 2.65159e-02  6.85235e-02        00000 
 3.25182e-02  8.48382e-02        00000 
 4.49754e-02  1.08558e-01        00000 
 6.20742e-02  1.37789e-01        00000 
 7.68871e-02  1.68927e-01        00000 
 8.10879e-02  1.92237e-01        00000 
 7.33602e-02  2.11605e-01        00000 
 6.20746e-02  2.30451e-01        00000 
 5.01911e-02  2.48131e-01        00000 
 3.87232e-02  2.65370e-01        00000 
 2.68241e-02  2.82154e-01        00000 
 1.39699e-02  2.98872e-01        00000 
-1.18040e-19  3.15806e-01        00000 
 2.36001e-18 -6.74288e-19        00000 
 1.27429e-02  1.14045e-02        00000 
 2.20255e-02  2.12625e-02        00000 
 2.76885e-02  2.99108e-02        00000 
 2.96479e-02  3.73460e-02        00000 
 2.85103e-02  4.44305e-02        00000 
 2.57667e-02  5.16682e-02        00000 
 2.43027e-02  5.91276e-02        00000 
 2.97593e-02  7.27204e-02        00000 
 4.43361e-02  1.09392e-01        00000 
 6.40232e-02  1.67880e-01        00000 
 8.18604e-02  2.07172e-01        00000 
 9.25363e-02  2.40883e-01        00000 
 8.05314e-02  2.62053e-01        00000 
 6.62807e-02  2.81920e-01        00000 
 5.31338e-02  3.00429e-01        00000 
 4.06896e-02  3.17591e-01        00000 
 2.80991e-02  3.34478e-01        00000 
 1.44505e-02  3.51263e-01        00000 
 1.32222e-18  3.68440e-01        00000 
-1.05899e-20  5.40086e-19        00000 
 1.52018e-02  1.29930e-02        00000 
 2.62447e-02  2.41764e-02        00000 
 3.31869e-02  3.36703e-02        00000 
 3.57362e-02  4.09642e-02        00000 
 3.42924e-02  4.67461e-02        00000 
 2.85651e-02  4.88037e-02        00000 
 2.52514e-02  5.33694e-02        00000 
 3.93671e-02  9.16879e-02        00000 
 5.53723e-02  1.46660e-01        00000 
 7.26524e-02  2.07431e-01        00000 
 1.01079e-01  2.72218e-01        00000 
 1.12631e-01  3.15471e-01        00000 
 9.09113e-02  3.27705e-01        00000 
 7.01099e-02  3.40863e-01        00000 
 5.64556e-02  3.57020e-01        00000 
 4.32488e-02  3.72209e-01        00000 
 2.99296e-02  3.87906e-01        00000 
 1.53955e-02  4.04085e-01        00000 
 2.72902e-18  4.21075e-01        00000 
 3.20287e-18  1.51715e-18        00000 
 1.77518e-02  1.53633e-02        00000 
 3.06794e-02  2.89466e-02        00000 
 3.92077e-02  4.07127e-02        00000 
 4.31433e-02  4.97604e-02        00000 
 4.23996e-02  5.61854e-02        00000 
 3.44190e-02  5.61139e-02        00000 
 2.48524e-02  5.99991e-02        00000 
 4.32442e-02  1.24788e-01        00000 
 6.71937e-02  2.00769e-01        00000 
 8.35804e-02  2.58287e-01        00000 
 1.17272e-01  3.32809e-01        00000 
 1.31462e-01  3.84271e-01        00000 
 1.04359e-01  4.00274e-01        00000 
 7.60879e-02  4.04566e-01        00000 
 6.16269e-02  4.15284e-01        00000 
 4.72782e-02  4.27419e-01        00000 
 3.28439e-02  4.41506e-01        00000 
 1.70115e-02  4.56914e-01        00000 
 1.82793e-18  4.73709e-01        00000 
 2.72072e-18 -1.36036e-18        00000 
 1.99417e-02  1.85723e-02        00000 
 3.45078e-02  3.57771e-02        00000 
 4.45522e-02  5.15988e-02        00000 
 5.01031e-02  6.51386e-02        00000 
 5.11663e-02  7.64424e-02        00000 
 4.26068e-02  8.01586e-02        00000 
 2.96250e-02  9.85705e-02        00000 
 4.16266e-02  1.57888e-01        00000 
 7.26780e-02  2.40628e-01        00000 
 8.94551e-02  3.02717e-01        00000 
 1.16500e-01  3.86373e-01        00000 
 1.37105e-01  4.60588e-01        00000 
 1.12524e-01  4.63499e-01        00000 
 8.47969e-02  4.62901e-01        00000 
 6.85726e-02  4.69900e-01        00000 
 5.26229e-02  4.80344e-01        00000 
 3.66698e-02  4.93839e-01        00000 
 1.92020e-02  5.09211e-01        00000 
-1.35249e-18  5.26344e-01        00000 
-2.52858e-18 -1.68572e-19        00000 
 2.13286e-02  2.24407e-02        00000 
 3.69051e-02  4.42286e-02        00000 
 4.78524e-02  6.55168e-02        00000 
 5.45234e-02  8.57893e-02        00000 
 5.70088e-02  1.05875e-01        00000 
 5.16151e-02  1.20745e-01        00000 
 3.79353e-02  1.35557e-01        00000 
 4.34085e-02  1.91836e-01        00000 
 7.10504e-02  2.80221e-01        00000 
 9.22863e-02  3.64299e-01        00000 
 1.07728e-01  4.41523e-01        00000 
 1.25711e-01  4.95674e-01        00000 
 1.13957e-01  5.02816e-01        00000 
 9.27742e-02  5.06582e-01        00000 
 7.52381e-02  5.16299e-01        00000 
 5.79076e-02  5.28672e-01        00000 
 4.05857e-02  5.43756e-01        00000 
 2.15247e-02  5.60541e-01        00000 
 7.66888e-18  5.78978e-01        00000 
 1.73675e-18  1.44023e-18        00000 
 2.16405e-02  2.66137e-02        00000 
 3.73511e-02  5.33543e-02        00000 
 4.83428e-02  8.06018e-02        00000 
 5.50559e-02  1.08165e-01        00000 
 5.76291e-02  1.37148e-01        00000 
 5.53232e-02  1.67105e-01        00000 
 4.70617e-02  1.97265e-01        00000 
 4.91051e-02  2.42907e-01        00000 
 5.56303e-02  2.97674e-01        00000 
 8.49678e-02  4.07333e-01        00000 
 1.01206e-01  4.77588e-01        00000 
 1.15368e-01  5.02854e-01        00000 
 1.10237e-01  5.19283e-01        00000 
 9.53269e-02  5.36614e-01        00000 
 7.85058e-02  5.54137e-01        00000 
 6.13406e-02  5.71960e-01        00000 
 4.34073e-02  5.90962e-01        00000 
 2.33536e-02  6.10777e-01        00000 
-3.52396e-18  6.31612e-01        00000 
-1.68572e-19  2.69715e-18        00000 
 2.08489e-02  3.07122e-02        00000 
 3.58480e-02  6.22770e-02        00000 
 4.60543e-02  9.49663e-02        00000 
 5.20836e-02  1.29157e-01        00000 
 5.38464e-02  1.64746e-01        00000 
 5.20861e-02  2.03941e-01        00000 
 4.70003e-02  2.44667e-01        00000 
 4.48154e-02  2.89648e-01        00000 
 5.19757e-02  3.47625e-01        00000 
 6.89280e-02  4.05674e-01        00000 
 8.91241e-02  4.56408e-01        00000 
 1.01613e-01  4.94676e-01        00000 
 1.00461e-01  5.28856e-01        00000 
 9.06831e-02  5.59980e-01        00000 
 7.68254e-02  5.86513e-01        00000 
 6.14732e-02  6.11691e-01        00000 
 4.41313e-02  6.35992e-01        00000 
 2.41477e-02  6.60113e-01        00000 
 5.64602e-18  6.84247e-01        00000 
 2.04061e-18  6.80204e-19        00000 
 1.91347e-02  3.44750e-02        00000 
 3.27096e-02  7.03796e-02        00000 
 4.16035e-02  1.07603e-01        00000 
 4.64860e-02  1.46565e-01        00000 
 4.76480e-02  1.86839e-01        00000 
 4.56534e-02  2.28718e-01        00000 
 4.21934e-02  2.72463e-01        00000 
 4.02440e-02  3.17706e-01        00000 
 4.43710e-02  3.61653e-01        00000 
 5.71295e-02  4.07995e-01        00000 
 7.33107e-02  4.54619e-01        00000 
 8.41238e-02  5.01848e-01        00000 
 8.60227e-02  5.44952e-01        00000 
 8.07374e-02  5.83129e-01        00000 
 7.07594e-02  6.17661e-01        00000 
 5.78989e-02  6.49879e-01        00000 
 4.24002e-02  6.80014e-01        00000 
 2.36117e-02  7.08925e-01        00000 
-1.05598e-18  7.36881e-01        00000 
-2.69715e-18  1.68572e-18        00000 
 1.67359e-02  3.78195e-02        00000 
 2.83361e-02  7.73886e-02        00000 
 3.56730e-02  1.18533e-01        00000 
 3.93785e-02  1.60915e-01        00000 
 4.01832e-02  2.04601e-01        00000 
 3.86394e-02  2.48701e-01        00000 
 3.64227e-02  2.92986e-01        00000 
 3.59328e-02  3.37244e-01        00000 
 3.96228e-02  3.81556e-01        00000 
 4.81898e-02  4.26242e-01        00000 
 5.87997e-02  4.72922e-01        00000 
 6.68955e-02  5.19822e-01        00000 
 6.99521e-02  5.65362e-01        00000 
 6.74507e-02  6.09169e-01        00000 
 6.08523e-02  6.50079e-01        00000 
 5.10270e-02  6.88054e-01        00000 
 3.82443e-02  7.23820e-01        00000 
 2.17219e-02  7.57565e-01        00000 
 4.16468e-18  7.89515e-01        00000 
 7.20115e-19 -4.36305e-18        00000 
 1.38284e-02  4.08232e-02        00000 
 2.30088e-02  8.36230e-02        00000 
 2.85464e-02  1.28026e-01        00000 
 3.12526e-02  1.73535e-01        00000 
 3.17590e-02  2.19497e-01        00000 
 3.08654e-02  2.65634e-01        00000 
 2.98070e-02  3.11718e-01        00000 
 2.99521e-02  3.56981e-01        00000 
 3.27783e-02  4.02083e-01        00000 
 3.82948e-02  4.48152e-01        00000 
 4.50049e-02  4.95209e-01        00000 
 5.06242e-02  5.43419e-01        00000 
 5.31339e-02  5.91880e-01        00000 
 5.22742e-02  6.38923e-01        00000 
 4.83262e-02  6.83914e-01        00000 
 4.14984e-02  7.27047e-01        00000 
 3.18992e-02  7.67857e-01        00000 
 1.86065e-02  8.06238e-01        00000 
-4.02536e-18  8.42150e-01        00000 
-1.51715e-18  2.36001e-18        00000 
 1.04262e-02  4.37120e-02        00000 
 1.67225e-02  8.96145e-02        00000 
 2.02965e-02  1.37090e-01        00000 
 2.20306e-02  1.85364e-01        00000 
 2.24231e-02  2.33856e-01        00000 
 2.21162e-02  2.82231e-01        00000 
 2.16387e-02  3.29859e-01        00000 
 2.20323e-02  3.77193e-01        00000 
 2.38219e-02  4.24517e-01        00000 
 2.70508e-02  4.72415e-01        00000 
 3.09490e-02  5.21312e-01        00000 
 3.42626e-02  5.71020e-01        00000 
 3.60333e-02  6.21010e-01        00000 
 3.59100e-02  6.70541e-01        00000 
 3.37144e-02  7.19277e-01        00000 
 2.96372e-02  7.66551e-01        00000 
 2.35306e-02  8.11961e-01        00000 
 1.43566e-02  8.54866e-01        00000 
 1.63610e-18  8.94784e-01        00000 
 6.81873e-19  2.72749e-18        00000 
 6.22628e-03  4.68935e-02        00000 
 9.11974e-03  9.63202e-02        00000 
 1.07850e-02  1.46723e-01        00000 
 1.16083e-02  1.97475e-01        00000 
 1.18494e-02  2.48208e-01        00000 
 1.17901e-02  2.98678e-01        00000 
 1.17200e-02  3.48747e-01        00000 
 1.20133e-02  3.98549e-01        00000 
 1.28770e-02  4.48336e-01        00000 
 1.42999e-02  4.98346e-01        00000 
 1.59746e-02  5.49064e-01        00000 
 1.74577e-02  6.00381e-01        00000 
 1.83288e-02  6.52004e-01        00000 
 1.83530e-02  7.03648e-01        00000 
 1.74698e-02  7.54897e-01        00000 
 1.56979e-02  8.05450e-01        00000 
 1.29188e-02  8.55016e-01        00000 
 8.69521e-03  9.02990e-01        00000 
-1.59779e-18  9.47418e-01        00000 
-7.39196e-19  1.10213e-18        00000 
 4.90911e-19  5.26344e-02        00000 
-4.37057e-19  1.05269e-01        00000 
 1.55676e-18  1.57903e-01        00000 
-5.54507e-19  2.10537e-01        00000 
-6.34680e-19  2.63172e-01        00000 
 4.84278e-19  3.15806e-01        00000 
 1.10413e-18  3.68440e-01        00000 
 1.06217e-18  4.21075e-01        00000 
 1.77842e-18  4.73709e-01        00000 
-1.14277e-18  5.26344e-01        00000 
 2.03159e-18  5.78978e-01        00000 
 2.23779e-18  6.31612e-01        00000 
 2.53731e-18  6.84247e-01        00000 
-7.93299e-19  7.36881e-01        00000 
 3.77451e-19  7.89515e-01        00000 
-5.64291e-19  8.42150e-01        00000 
-1.31155e-18  8.94784e-01        00000 
 9.81823e-19  9.47418e-01        00000 
-5.15007e-19  1.00005e+00        00000 
 1.37395e-03  1.42220e-03        00000 
 2.51033e-03  2.84187e-03        00000 
 3.15783e-03  4.07053e-03        00000 
 3.67291e-03  5.28286e-03        00000 
 4.15280e-03  6.59208e-03        00000 
 4.67230e-03  8.02963e-03        00000 
 5.28082e-03  9.55487e-03        00000 
 5.98748e-03  1.10626e-02        00000 
 6.74486e-03  1.24186e-02        00000 
 7.45118e-03  1.35194e-02        00000 
 7.98053e-03  1.43501e-02        00000 
 8.23045e-03  1.49996e-02        00000 
 8.15831e-03  1.56163e-02        00000 
 7.78767e-03  1.63482e-02        00000 
 7.17884e-03  1.72916e-02        00000 
 6.39102e-03  1.84851e-02        00000 
 5.44009e-03  1.99373e-02        00000 
 4.25864e-03  2.17126e-02        00000 
 2.29918e-03  2.39701e-02        00000 
 2.51715e-03  2.73229e-03        00000 
 6.05868e-03  7.18464e-03        00000 
 8.10431e-03  1.09001e-02        00000 
 9.57319e-03  1.45189e-02        00000 
 1.08611e-02  1.83536e-02        00000 
 1.22699e-02  2.25377e-02        00000 
 1.40114e-02  2.69886e-02        00000 
 1.62190e-02  3.14976e-02        00000 
 1.87524e-02  3.57206e-02        00000 
 2.12052e-02  3.93405e-02        00000 
 2.30791e-02  4.22927e-02        00000 
 2.39476e-02  4.47766e-02        00000 
 2.37035e-02  4.72500e-02        00000 
 2.23831e-02  4.99508e-02        00000 
 2.02744e-02  5.32202e-02        00000 
 1.76199e-02  5.71441e-02        00000 
 1.44704e-02  6.17894e-02        00000 
 1.05013e-02  6.73298e-02        00000 
 4.28235e-03  7.44717e-02        00000 
 3.25112e-03  3.56173e-03        00000 
 8.33532e-03  1.00086e-02        00000 
 1.16731e-02  1.58645e-02        00000 
 1.39685e-02  2.15968e-02        00000 
 1.58477e-02  2.76682e-02        00000 
 1.78685e-02  3.43296e-02        00000 
 2.05844e-02  4.16290e-02        00000 
 2.43143e-02  4.93097e-02        00000 
 2.88376e-02  5.67846e-02        00000 
 3.34209e-02  6.35220e-02        00000 
 3.69976e-02  6.93027e-02        00000 
 3.86452e-02  7.43517e-02        00000 
 3.80327e-02  7.92405e-02        00000 
 3.55168e-02  8.46823e-02        00000 
 3.16685e-02  9.09530e-02        00000 
 2.68948e-02  9.80236e-02        00000 
 2.13561e-02  1.06051e-01        00000 
 1.46104e-02  1.15215e-01        00000 
 5.56639e-03  1.25742e-01        00000 
 3.79719e-03  4.19722e-03        00000 
 1.00451e-02  1.20055e-02        00000 
 1.43553e-02  1.93246e-02        00000 
 1.72087e-02  2.65811e-02        00000 
 1.93241e-02  3.43447e-02        00000 
 2.15586e-02  4.30944e-02        00000 
 2.48357e-02  5.30551e-02        00000 
 2.97761e-02  6.39283e-02        00000 
 3.64861e-02  7.52243e-02        00000 
 4.36863e-02  8.58657e-02        00000 
 4.94959e-02  9.52693e-02        00000 
 5.21680e-02  1.03740e-01        00000 
 5.11984e-02  1.12024e-01        00000 
 4.70915e-02  1.20693e-01        00000 
 4.11526e-02  1.30257e-01        00000 
 3.41696e-02  1.40690e-01        00000 
 2.63453e-02  1.51968e-01        00000 
 1.73553e-02  1.64163e-01        00000 
 6.35585e-03  1.77302e-01        00000 
 4.34596e-03  4.70735e-03        00000 
 1.16602e-02  1.34421e-02        00000 
 1.67503e-02  2.16303e-02        00000 
 1.98888e-02  2.97149e-02        00000 
 2.18112e-02  3.84215e-02        00000 
 2.34987e-02  4.83221e-02        00000 
 2.64979e-02  6.01505e-02        00000 
 3.22007e-02  7.41902e-02        00000 
 4.11568e-02  9.00255e-02        00000 
 5.17819e-02  1.06017e-01        00000 
 6.06394e-02  1.20629e-01        00000 
 6.45334e-02  1.33446e-01        00000 
 6.27893e-02  1.45752e-01        00000 
 5.69184e-02  1.58438e-01        00000 
 4.86676e-02  1.71559e-01        00000 
 3.95301e-02  1.85279e-01        00000 
 2.97470e-02  1.99372e-01        00000 
 1.90650e-02  2.13979e-01        00000 
 6.79029e-03  2.29115e-01        00000 
 5.04331e-03  5.17289e-03        00000 
 1.35792e-02  1.45946e-02        00000 