<?xml version="1.0" encoding="utf-8"?>
<VTKFile byte_order="LittleEndian" type="UnstructuredGrid" version="0.1">
   <UnstructuredGrid>
      <Piece NumberOfCells="11088" NumberOfPoints="3722">
         <Points>
            <DataArray Name="Points" NumberOfComponents="3" format="ascii" type="Float32">
0.0500 -0.0154 -0.4818
0.0500 -0.0196 -0.4817
0.0500 -0.0174 -0.4774
0.0500 -0.0141 -0.4742
0.0500 -0.0204 -0.4740
0.0500 -0.0132 -0.4689
0.0500 -0.0210 -0.4687
0.0500 -0.0123 -0.4636
0.0500 -0.0216 -0.4633
0.0500 -0.0112 -0.4569
0.0500 -0.0223 -0.4566
0.0500 -0.0101 -0.4501
0.0500 -0.0231 -0.4497
0.0500 -0.0089 -0.4421
0.0500 -0.0239 -0.4417
0.0500 -0.0169 -0.4365
0.0500 -0.0075 -0.4337
0.0500 -0.0248 -0.4332
0.0500 -0.0168 -0.4250
0.0500 -0.0061 -0.4245
0.0500 -0.0258 -0.4241
0.0500 -0.0045 -0.4146
0.0500 -0.0268 -0.4140
0.0500 -0.0155 -0.4092
0.0500 -0.0029 -0.4041
0.0500 -0.0278 -0.4035
0.0500 -0.0092 -0.3989
0.0500 -0.0192 -0.3978
0.0500 -0.0011 -0.3928
0.0500 -0.0290 -0.3921
0.0500 -0.0148 -0.3906
0.0500 -0.0221 -0.3899
0.0472 -0.0171 -0.4691
0.0500 -0.0132 -0.3803
0.0500 0.0006 -0.3811
0.0500 -0.0224 -0.3793
0.0500 -0.0301 -0.3799
0.0500 -0.0115 -0.3700
0.0500 -0.0228 -0.3687
0.0500 0.0025 -0.3686
0.0500 -0.0313 -0.3677
0.0457 -0.0174 -0.4783
0.0460 -0.0155 -0.4445
0.0500 -0.0098 -0.3592
0.0454 -0.0173 -0.4752
0.0500 -0.0232 -0.3580
0.0500 0.0044 -0.3556
0.0500 -0.0325 -0.3544
0.0500 -0.0080 -0.3477
0.0500 -0.0235 -0.3472
0.0500 0.0064 -0.3420
0.0500 -0.0338 -0.3409
0.0500 -0.0244 -0.3386
0.0435 -0.0154 -0.4818
0.0435 -0.0196 -0.4817
0.0435 -0.0141 -0.4742
0.0435 -0.0204 -0.4740
0.0435 -0.0123 -0.4636
0.0435 -0.0216 -0.4633
0.0500 -0.0053 -0.3305
0.0500 -0.0253 -0.3299
0.0500 0.0084 -0.3279
0.0500 -0.0350 -0.3268
0.0445 -0.0250 -0.3948
0.0500 -0.0037 -0.3207
0.0500 -0.0263 -0.3202
0.0421 -0.0101 -0.4501
0.0421 -0.0231 -0.4497
0.0438 -0.0187 -0.3928
0.0421 -0.0075 -0.4337
0.0421 -0.0248 -0.4332
0.0500 0.0105 -0.3133
0.0500 -0.0363 -0.3120
0.0500 -0.0022 -0.3109
0.0500 -0.0273 -0.3102
0.0435 -0.0275 -0.3862
0.0500 -0.0282 -0.3001
0.0500 -0.0006 -0.3002
0.0500 -0.0376 -0.2976
0.0500 0.0126 -0.2984
0.0398 -0.0088 -0.4419
0.0405 -0.0045 -0.4146
0.0405 -0.0268 -0.4140
0.0500 0.0010 -0.2891
0.0500 -0.0294 -0.2883
0.0500 0.0148 -0.2826
0.0382 -0.0165 -0.4351
0.0500 -0.0390 -0.2811
0.0500 0.0028 -0.2773
0.0367 -0.0133 -0.4532
0.0385 -0.0193 -0.3991
0.0374 -0.0060 -0.4240
0.0374 -0.0258 -0.4235
0.0385 -0.0011 -0.3928
0.0358 -0.0154 -0.4818
0.0358 -0.0196 -0.4817
0.0358 -0.0141 -0.4742
0.0358 -0.0204 -0.4740
0.0383 -0.0290 -0.3921
0.0383 -0.0148 -0.3906
0.0358 -0.0123 -0.4636
0.0358 -0.0216 -0.4633
0.0383 -0.0221 -0.3899
0.0500 0.0046 -0.2652
0.0500 0.0170 -0.2665
0.0500 -0.0402 -0.2653
0.0500 -0.0316 -0.2642
0.0392 -0.0107 -0.3650
0.0366 -0.0028 -0.4038
0.0365 -0.0279 -0.4031
0.0385 0.0025 -0.3686
0.0357 -0.0164 -0.4161
0.0384 -0.0313 -0.3677
0.0376 -0.0128 -0.3779
0.0500 0.0064 -0.2524
0.0368 -0.0226 -0.3760
0.0500 0.0192 -0.2500
0.0500 -0.0416 -0.2484
0.0384 -0.0235 -0.3472
0.0372 -0.0231 -0.3605
0.0384 -0.0338 -0.3409
0.0354 0.0007 -0.3808
0.0353 -0.0301 -0.3799
0.0327 -0.0075 -0.4337
0.0327 -0.0248 -0.4332
0.0500 0.0083 -0.2393
0.0322 -0.0101 -0.4501
0.0322 -0.0231 -0.4497
0.0500 -0.0339 -0.2382
0.0384 -0.0253 -0.3299
0.0500 0.0214 -0.2332
0.0500 -0.0429 -0.2318
0.0500 0.0102 -0.2257
0.0352 -0.0080 -0.3477
0.0354 0.0064 -0.3420
0.0294 -0.0157 -0.4569
0.0335 0.0045 -0.3554
0.0353 -0.0053 -0.3305
0.0500 0.0237 -0.2158
0.0500 -0.0442 -0.2140
0.0293 -0.0268 -0.4140
0.0292 -0.0045 -0.4146
0.0500 0.0121 -0.2117
0.0500 -0.0363 -0.2104
0.0356 -0.0363 -0.3120
0.0317 -0.0325 -0.3548
0.0356 -0.0273 -0.3102
0.0354 -0.0022 -0.3109
0.0264 -0.0154 -0.4818
0.0264 -0.0196 -0.4817
0.0353 0.0105 -0.3133
0.0264 -0.0141 -0.4742
0.0264 -0.0204 -0.4740
0.0264 -0.0123 -0.4636
0.0264 -0.0216 -0.4633
0.0268 -0.0167 -0.4424
0.0341 0.0062 -0.3220
0.0335 -0.0351 -0.3265
0.0262 -0.0149 -0.4288
0.0500 0.0141 -0.1972
0.0500 0.0259 -0.1983
0.0500 -0.0454 -0.1968
0.0370 -0.0333 -0.2779
0.0353 0.0010 -0.2891
0.0245 -0.0060 -0.4238
0.0245 -0.0258 -0.4233
0.0351 0.0148 -0.2826
0.0500 0.0161 -0.1824
0.0500 -0.0386 -0.1809
0.0246 -0.0011 -0.3928
0.0246 -0.0290 -0.3921
0.0246 -0.0148 -0.3906
0.0246 -0.0221 -0.3899
0.0233 -0.0157 -0.4160
0.0500 0.0282 -0.1803
0.0500 -0.0468 -0.1783
0.0254 0.0025 -0.3686
0.0250 -0.0313 -0.3677
0.0351 0.0046 -0.2652
0.0215 -0.0075 -0.4337
0.0215 -0.0248 -0.4332
0.0202 -0.0101 -0.4501
0.0202 -0.0231 -0.4497
0.0311 -0.0294 -0.2883
0.0500 0.0181 -0.1672
0.0250 -0.0235 -0.3472
0.0232 -0.0116 -0.3706
0.0315 -0.0390 -0.2811
0.0250 -0.0338 -0.3409
0.0500 0.0303 -0.1622
0.0500 -0.0480 -0.1599
0.0250 -0.0253 -0.3299
0.0317 -0.0316 -0.2642
0.0208 -0.0228 -0.3678
0.0269 0.0125 -0.2993
0.0500 0.0201 -0.1516
0.0500 -0.0410 -0.1500
0.0174 -0.0196 -0.4021
0.0152 -0.0154 -0.4818
0.0152 -0.0196 -0.4817
0.0152 -0.0141 -0.4742
0.0152 -0.0204 -0.4740
0.0152 -0.0123 -0.4636
0.0152 -0.0216 -0.4633
0.0291 0.0170 -0.2663
0.0313 0.0192 -0.2500
0.0313 -0.0416 -0.2484
0.0160 -0.0268 -0.4140
0.0500 0.0326 -0.1435
0.0500 -0.0492 -0.1413
0.0157 -0.0045 -0.4146
0.0317 -0.0339 -0.2382
0.0315 0.0083 -0.2393
0.0261 -0.0349 -0.2770
0.0500 0.0221 -0.1357
0.0180 -0.0080 -0.3477
0.0183 0.0064 -0.3420
0.0129 -0.0182 -0.4246
0.0183 -0.0053 -0.3305
0.0500 0.0347 -0.1250
0.0500 -0.0504 -0.1220
0.0319 0.0237 -0.2158
0.0500 0.0241 -0.1196
0.0185 0.0105 -0.3133
0.0185 -0.0363 -0.3120
0.0319 0.0121 -0.2117
0.0185 -0.0022 -0.3109
0.0500 -0.0433 -0.1178
0.0183 -0.0273 -0.3102
0.0189 0.0010 -0.2891
0.0082 -0.0248 -0.4332
0.0082 -0.0075 -0.4337
0.0188 0.0148 -0.2826
0.0090 -0.0290 -0.3921
0.0090 -0.0148 -0.3906
0.0090 -0.0221 -0.3899
0.0500 0.0369 -0.1059
0.0500 -0.0515 -0.1035
0.0100 0.0025 -0.3686
0.0500 0.0261 -0.1031
0.0084 -0.0011 -0.3928
0.0062 -0.0101 -0.4501
0.0062 -0.0231 -0.4497
0.0500 -0.0444 -0.1009
0.0093 -0.0313 -0.3677
0.0189 0.0046 -0.2652
0.0319 0.0161 -0.1824
0.0259 -0.0442 -0.2140
0.0095 -0.0235 -0.3472
0.0319 0.0282 -0.1803
0.0260 -0.0363 -0.2104
0.0095 -0.0338 -0.3409
0.0274 0.0259 -0.1981
0.0095 -0.0253 -0.3299
0.0500 0.0281 -0.0866
0.0500 -0.0455 -0.0846
0.0500 0.0390 -0.0870
0.0020 -0.0154 -0.4818
0.0020 -0.0196 -0.4817
0.0020 -0.0141 -0.4742
0.0020 -0.0204 -0.4740
0.0020 -0.0123 -0.4636
0.0020 -0.0216 -0.4633
0.0500 -0.0526 -0.0834
0.0006 -0.0268 -0.4140
0.0293 -0.0423 -0.1664
0.0103 -0.0294 -0.2883
-0.0000 -0.0045 -0.4146
0.0258 -0.0386 -0.1809
0.0106 -0.0390 -0.2811
-0.0017 -0.0186 -0.4760
0.0367 0.0270 -0.1268
0.0001 -0.0197 -0.4025
0.0261 -0.0468 -0.1783
0.0500 0.0301 -0.0693
0.0500 -0.0465 -0.0674
0.0500 0.0411 -0.0674
0.0500 -0.0536 -0.0649
0.0111 -0.0316 -0.2642
0.0004 -0.0228 -0.3683
-0.0003 -0.0110 -0.3665
0.0111 -0.0416 -0.2484
-0.0057 -0.0167 -0.4798
0.0104 0.0192 -0.2500
0.0500 0.0320 -0.0526
0.0116 -0.0339 -0.2382
-0.0010 -0.0080 -0.3477
0.0500 -0.0476 -0.0505
-0.0009 0.0064 -0.3420
0.0261 0.0201 -0.1516
0.0107 0.0083 -0.2393
0.0259 -0.0410 -0.1500
-0.0006 -0.0053 -0.3305
-0.0071 -0.0248 -0.4332
-0.0072 -0.0075 -0.4337
0.0500 0.0432 -0.0471
0.0500 -0.0546 -0.0449
0.0261 0.0326 -0.1435
-0.0003 0.0105 -0.3133
-0.0005 -0.0022 -0.3109
-0.0091 -0.0101 -0.4501
-0.0091 -0.0231 -0.4497
0.0256 -0.0492 -0.1413
-0.0011 -0.0363 -0.3120
0.0116 0.0237 -0.2158
-0.0015 -0.0273 -0.3102
0.0116 0.0121 -0.2117
0.0356 0.0311 -0.0922
0.0006 0.0010 -0.2891
0.0500 0.0340 -0.0349
-0.0086 -0.0290 -0.3921
-0.0086 -0.0148 -0.3906
0.0500 -0.0485 -0.0326
-0.0086 -0.0221 -0.3899
0.0008 0.0148 -0.2826
-0.0076 0.0025 -0.3686
-0.0096 -0.0011 -0.3928
-0.0123 -0.0154 -0.4818
-0.0123 -0.0196 -0.4817
-0.0123 -0.0141 -0.4742
-0.0123 -0.0204 -0.4740
-0.0084 -0.0313 -0.3677
-0.0123 -0.0123 -0.4636
-0.0123 -0.0216 -0.4633
0.0500 0.0451 -0.0285
-0.0120 -0.0139 -0.4245
0.0010 0.0046 -0.2652
0.0500 -0.0555 -0.0258
-0.0082 -0.0235 -0.3472
0.0260 0.0241 -0.1196
0.0259 -0.0433 -0.1178
-0.0082 -0.0338 -0.3409
-0.0082 -0.0253 -0.3299
0.0118 0.0161 -0.1824
0.0500 0.0358 -0.0181
0.0500 -0.0495 -0.0158
0.0118 0.0282 -0.1803
-0.0151 -0.0268 -0.4140
-0.0157 -0.0045 -0.4146
0.0259 0.0369 -0.1059
0.0254 -0.0515 -0.1035
0.0500 0.0470 -0.0083
0.0500 -0.0563 -0.0056
-0.0173 -0.0197 -0.4023
0.0500 0.0376 0.0001
0.0500 -0.0503 0.0024
0.0260 0.0281 -0.0866
0.0260 -0.0455 -0.0846
-0.0207 -0.0248 -0.4332
-0.0208 -0.0075 -0.4337
-0.0006 -0.0442 -0.2140
-0.0114 -0.0294 -0.2883
-0.0006 -0.0363 -0.2104
-0.0222 -0.0101 -0.4501
-0.0222 -0.0231 -0.4497
-0.0116 -0.0390 -0.2811
-0.0226 -0.0157 -0.4159
0.0318 -0.0476 -0.0505
0.0500 0.0488 0.0106
-0.0202 -0.0228 -0.3678
0.0500 -0.0571 0.0135
-0.0245 -0.0154 -0.4818
-0.0245 -0.0196 -0.4817
-0.0245 -0.0141 -0.4742
-0.0245 -0.0204 -0.4740
-0.0210 -0.0119 -0.3726
-0.0245 -0.0123 -0.4636
-0.0245 -0.0216 -0.4633
-0.0193 -0.0080 -0.3477
-0.0238 -0.0259 -0.4230
-0.0239 -0.0059 -0.4236
-0.0195 0.0064 -0.3420
-0.0114 -0.0316 -0.2642
0.0500 0.0394 0.0170
0.0500 -0.0511 0.0194
-0.0191 -0.0053 -0.3305
0.0260 -0.0536 -0.0649
0.0258 0.0411 -0.0674
-0.0257 -0.0174 -0.4287
-0.0244 -0.0290 -0.3921
0.0001 -0.0386 -0.1809
-0.0244 -0.0148 -0.3906
-0.0244 -0.0221 -0.3899
-0.0108 -0.0416 -0.2484
-0.0188 0.0105 -0.3133
0.0002 -0.0468 -0.1783
-0.0115 0.0192 -0.2500
-0.0191 -0.0022 -0.3109
-0.0254 -0.0011 -0.3928
-0.0239 0.0025 -0.3686
0.0500 0.0500 0.0248
-0.0107 -0.0339 -0.2382
-0.0244 -0.0313 -0.3677
0.0500 -0.0575 0.0278
-0.0198 -0.0363 -0.3120
-0.0201 -0.0273 -0.3102
-0.0116 0.0083 -0.2393
0.0500 0.0405 0.0292
-0.0182 0.0010 -0.2891
0.0262 0.0320 -0.0526
0.0500 -0.0516 0.0317
-0.0243 -0.0235 -0.3472
-0.0178 0.0148 -0.2826
-0.0293 -0.0148 -0.4433
-0.0288 -0.0268 -0.4140
-0.0243 -0.0338 -0.3409
0.0318 0.0451 -0.0285
-0.0292 -0.0045 -0.4146
0.0316 -0.0555 -0.0258
-0.0243 -0.0253 -0.3299
-0.0177 0.0046 -0.2652
0.0500 0.0511 0.0374
0.0500 -0.0579 0.0403
-0.0111 0.0237 -0.2158
0.0002 -0.0410 -0.1500
0.0500 0.0416 0.0407
0.0321 0.0358 -0.0181
-0.0111 0.0121 -0.2117
0.0321 -0.0495 -0.0158
0.0500 -0.0521 0.0433
-0.0323 -0.0248 -0.4332
-0.0323 -0.0075 -0.4337
0.0238 0.0431 -0.0478
[...]
         <PointData>
            <DataArray Name="fValues" NumberOfComponents="3" format="ascii" type="Float64">
-6.10571e-01  1.45208e+01        00000 
-5.98841e-01  2.98268e-01        00000 
 1.45125e+01 -7.17694e-01        00000 
-1.35923e-01  1.43962e+01        00000 
-6.53907e-01 -7.83057e-01        00000 
 1.43093e+01 -5.55744e-01        00000 
 5.38344e-01  1.42989e+01        00000 
-7.42682e-01 -9.02963e-01        00000 
 1.41532e+01 -5.25709e-01        00000 
 6.87905e-01  1.41376e+01        00000 
-7.65225e-01 -1.01403e+00        00000 
 1.40012e+01 -5.05591e-01        00000 
 8.25921e-01  1.39830e+01        00000 
-7.77718e-01 -1.16022e+00        00000 
 1.38018e+01 -4.74648e-01        00000 
 9.88442e-01  1.37844e+01        00000 
-7.93777e-01 -1.30053e+00        00000 
 1.35992e+01 -4.47125e-01        00000 
 1.17991e+00  1.35891e+01        00000 
-8.12296e-01 -1.44253e+00        00000 
 1.33756e+01 -4.17160e-01        00000 
 1.38834e+00  1.33558e+01        00000 
-8.29929e-01  1.11330e-01        00000 
 1.32118e+01 -6.39216e-01        00000 
-1.58159e+00  1.31409e+01        00000 
-3.87428e-01  1.56405e+00        00000 
 1.31307e+01 -8.52785e-01        00000 
 1.73394e-01  1.28921e+01        00000 
-6.35258e-01 -1.72021e+00        00000 
 1.28963e+01 -3.65022e-01        00000 
 1.76332e+00  1.28825e+01        00000 
-8.66715e-01 -1.85495e+00        00000 
 1.26356e+01 -3.39299e-01        00000 
 1.97476e+00  1.26207e+01        00000 
-8.83278e-01  7.18483e-02        00000 
 1.24829e+01 -6.02297e-01        00000 
-1.97767e+00  1.23818e+01        00000 
-3.23102e-01  2.17884e+00        00000 
 1.23588e+01 -8.97180e-01        00000 
-8.36428e-01  1.22454e+01        00000 
-4.76472e-01  7.46236e-01        00000 
 1.22056e+01 -6.81184e-01        00000 
-2.02553e+00  1.21364e+01        00000 
-3.00438e-01  2.25775e+00        00000 
 1.21070e+01 -9.08580e-01        00000 
 2.02743e-01  1.20427e+01        00000 
-6.29832e-01  1.13310e+00        00000 
 1.20357e+01 -7.13089e-01        00000 
-1.10350e-01  1.35712e+01        00000 
-6.23472e-01  2.52869e-01        00000 
 1.17836e+01 -6.33894e-01        00000 
-1.98704e+00  1.18326e+01        00000 
-2.57542e-01  8.48667e-01        00000 
 1.16436e+01 -6.12827e-01        00000 
 2.09094e+00  1.17084e+01        00000 
-9.34611e-01  3.12594e-01        00000 
 1.14757e+01 -6.47577e-01        00000 
 6.19209e-01  1.11248e+01        00000 
-5.39685e-01 -1.87846e+00        00000 
 1.14648e+01 -2.10691e-01        00000 
 1.88173e+00  1.11306e+01        00000 
-9.74953e-01 -1.36451e-01        00000 
 1.34979e+01 -6.16507e-01        00000 
-2.26876e-01  1.26662e+01        00000 
-5.59344e-01  3.44643e-01        00000 
 1.10994e+01 -6.57951e-01        00000 
-1.20551e-01  1.33585e+01        00000 
-6.09788e-01  4.43808e-01        00000 
 1.05174e+01 -4.46301e-01        00000 
-1.76558e+00  1.10056e+01        00000 
-1.40879e-01  1.69043e+00        00000 
 1.03126e+01 -1.05738e+00        00000 
 3.47104e-01  1.06456e+01        00000 
-6.87395e-01  3.59239e-01        00000 
 9.73301e+00 -3.60677e-01        00000 
-1.59514e+00  1.04234e+01        00000 
-9.22462e-03  1.46338e+00        00000 
 9.24733e+00 -1.15732e+00        00000 
 3.52765e-01  8.98848e+00        00000 
-3.58004e-01 -5.89352e-01        00000 
 1.30965e+01 -5.51875e-01        00000 
 2.92483e-01  1.30826e+01        00000 
-6.33799e-01 -7.66085e-01        00000 
 1.29278e+01 -5.16721e-01        00000 
 5.36495e-01  1.29306e+01        00000 
-6.57075e-01 -9.95620e-01        00000 
 1.26772e+01 -4.66399e-01        00000 
 8.14817e-01  1.26771e+01        00000 
-7.02739e-01  3.42428e-01        00000 
 9.75846e+00 -6.77709e-01        00000 
 3.31833e-01  8.22065e+00        00000 
-3.78195e-01 -1.46075e+00        00000 
 9.64976e+00  9.93510e-02        00000 
 1.24494e+00  7.96548e+00        00000 
-1.24606e+00  1.62130e+00        00000 
 1.12226e+01 -7.54534e-01        00000 
 3.24163e-01  9.18285e+00        00000 
-6.58701e-01  3.57859e-01        00000 
 7.30175e+00 -4.08800e-01        00000 
-1.28621e+00  1.20652e+01        00000 
-4.01095e-01  1.17273e+00        00000 
 1.20370e+01 -7.12822e-01        00000 
 6.79455e-01  1.10477e+01        00000 
-6.16265e-01 -1.56728e+00        00000 
 1.16827e+01 -3.54139e-01        00000 
 1.54493e+00  1.16829e+01        00000 
-7.49654e-01 -1.27122e+00        00000 
 8.73613e+00  2.60402e-01        00000 
 1.04894e+00  6.54449e+00        00000 
-1.32090e+00  2.90285e-01        00000 
 8.51714e+00 -6.14401e-01        00000 
 3.76314e-01  6.33761e+00        00000 
-4.54337e-01  1.83881e+00        00000 
 1.08050e+01 -7.98184e-01        00000 
 3.48059e-01  5.36897e+00        00000 
-5.01285e-01  2.56312e-01        00000 
 7.72642e+00 -5.42461e-01        00000 
 8.52253e-01  5.16392e+00        00000 
-1.37848e+00 -1.10308e+00        00000 
 7.62335e+00  4.01805e-01        00000 
-1.42778e+00  1.14365e+01        00000 
-3.60111e-01 -1.82146e+00        00000 
 1.09541e+01 -2.98840e-01        00000 
 1.93892e+00  1.09380e+01        00000 
-7.61462e-01  2.41640e-01        00000 
 6.89031e+00 -4.94654e-01        00000 
 3.56993e-01  4.22633e+00        00000 
-5.66672e-01 -9.24954e-01        00000 
 6.39194e+00  5.33734e-01        00000 
 2.99692e-02  1.09880e+01        00000 
-5.17955e-01  6.12009e-01        00000 
 3.66537e+00 -1.42357e+00        00000 
 1.71543e-01  5.94176e+00        00000 
-4.25471e-01 -6.98445e-01        00000 
 1.10853e+01 -4.48050e-01        00000 
 7.33556e-01  1.02615e+01        00000 
-5.81076e-01 -1.68144e+00        00000 
 1.06132e+01 -3.02980e-01        00000 
 1.72352e+00  1.06038e+01        00000 
-7.02710e-01 -1.97805e+00        00000 
 1.01708e+01 -2.25528e-01        00000 
-5.66691e-01  1.14637e+01        00000 
-4.89365e-01  3.05362e-01        00000 
 1.14561e+01 -5.55270e-01        00000 
-7.50427e-01  1.13366e+01        00000 
-4.67735e-01  5.14997e-01        00000 
 1.13419e+01 -5.77134e-01        00000 
 2.20712e+00  1.01231e+01        00000 
-7.72874e-01  1.82838e-01        00000 
 1.00490e+01 -5.16058e-01        00000 
-9.83704e-01  1.11411e+01        00000 
-4.24300e-01  8.03425e-01        00000 
 1.11423e+01 -6.15302e-01        00000 
 1.08849e+00  1.00428e+01        00000 
-6.07093e-01  1.31504e-01        00000 
 4.92010e+00 -3.54460e-01        00000 
-7.05013e-01  5.06884e+00        00000 
 7.06184e-01  4.66100e-01        00000 
 2.24667e+00 -1.39909e+00        00000 
 3.93959e-01  2.17765e+00        00000 
-7.12721e-01  3.41797e-01        00000 
 9.51976e+00 -5.19427e-01        00000 
-1.88244e+00  1.00154e+01        00000 
-2.39273e-01  2.09601e+00        00000 
 1.00464e+01 -7.27279e-01        00000 
-1.79267e+00  9.58767e+00        00000 
-1.19288e-01  1.68488e-01        00000 
 1.01374e+01 -4.97574e-01        00000 
 1.78782e+00  9.32881e+00        00000 
-8.67815e-01  2.83266e-01        00000 
 9.62777e+00 -5.19228e-01        00000 
 4.44780e-02  3.77554e+00        00000 
-2.74974e-01  6.93131e-01        00000 
 9.37061e+00 -5.08654e-01        00000 
-5.01665e-01  3.57887e+00        00000 
 8.85162e-01  2.69559e-01        00000 
 5.41574e-01 -1.57185e+00        00000 
 3.09801e-01  8.22951e+00        00000 
-4.02457e-01  4.30263e-01        00000 
 8.75419e+00 -4.46067e-01        00000 
 1.39996e+00  7.85861e+00        00000 
-1.05781e+00 -1.88001e+00        00000 
 9.39382e+00 -1.67857e-01        00000 
 1.97810e+00  9.28443e+00        00000 
-7.56094e-01 -1.51431e+00        00000 
 9.97425e+00 -3.03968e-01        00000 
 1.48066e+00  9.97031e+00        00000 
-6.28319e-01 -9.44956e-02        00000 
 2.54749e+00 -1.76433e-01        00000 
-1.22066e+00  1.01504e+01        00000 
-3.49177e-01  1.13298e+00        00000 
 1.01708e+01 -5.88687e-01        00000 
 4.23512e-01 -5.94247e-01        00000 
-6.97628e-01  2.76345e-01        00000 
 6.97637e+00 -4.02208e-01        00000 
-3.94737e-01  1.96611e+00        00000 
 1.05398e+00  9.62826e-02        00000 
-1.18306e+00 -1.54588e+00        00000 
-1.97775e-01  1.20025e+00        00000 
-6.44379e-02  3.57885e-01        00000 
 8.31303e+00 -4.54008e-01        00000 
-1.52271e+00  8.12971e+00        00000 
 9.94272e-02 -2.87252e-01        00000 
 9.76741e+00 -4.22590e-01        00000 
-1.65063e+00  8.36120e+00        00000 
-2.10093e-02  3.56815e-01        00000 
 7.62916e+00 -4.02541e-01        00000 
-1.89850e-01  2.45403e-01        00000 
 1.24617e+00  5.78510e-02        00000 
-2.88138e+00 -1.57772e+00        00000 
 1.85069e+00  9.01224e+00        00000 
-6.22379e-01 -1.71270e+00        00000 
 8.99606e+00 -2.21264e-01        00000 
-2.66588e-01 -2.04820e-01        00000 
 9.15741e-02  4.99773e-01        00000 
-3.24513e+00 -8.46666e-01        00000 
 9.83132e-01  5.44061e+00        00000 
-1.14519e+00  1.54194e+00        00000 
 7.77610e+00 -8.33244e-01        00000 
 3.04643e-01  5.29971e+00        00000 
-4.54538e-01  3.28947e-01        00000 
 6.74556e+00 -4.84179e-01        00000 
-5.35592e-01  9.55081e+00        00000 
-4.25642e-01  2.72533e-01        00000 
 9.55104e+00 -4.57302e-01        00000 
-1.21279e+00  6.98696e+00        00000 
 2.59105e-01 -7.28442e-01        00000 
 9.49507e+00 -4.07667e-01        00000 
 4.90212e-01  9.48875e+00        00000 
-4.76990e-01 -9.20872e-01        00000 
 9.34459e+00 -3.63344e-01        00000 
 7.73173e-01  9.33344e+00        00000 
-4.93822e-01  5.06495e-03        00000 
 9.04613e+00 -4.17206e-01        00000 
-8.84547e-01  7.17532e+00        00000 
 9.64036e-02  1.11995e+00        00000 
 6.24571e+00 -1.07141e+00        00000 
-1.93236e-01  8.74364e+00        00000 
-3.84902e-01 -3.05231e-01        00000 
-1.65386e+00  2.64238e-01        00000 
 3.74866e-02 -1.52929e+00        00000 
 1.41842e+00  2.22864e-02        00000 
-4.34284e+00 -1.54703e+00        00000 
 4.21603e-01  2.99746e+00        00000 
-8.13351e-01  2.59877e-01        00000 
 5.48478e+00 -3.72124e-01        00000 
-1.58945e+00  8.38056e+00        00000 
-2.28833e-01  1.63892e+00        00000 
 8.37540e+00 -5.47036e-01        00000 
-8.56389e-01  5.05417e+00        00000 
 5.05465e-01 -3.50051e-01        00000 
-3.11248e+00  4.07053e-01        00000 
 5.07218e-01 -5.57745e+00        00000 
-9.54649e-01 -1.88201e+00        00000 
 7.89068e+00 -1.15310e-01        00000 
 2.09722e+00  7.88139e+00        00000 
-6.37239e-01  1.60288e-01        00000 
 7.83525e+00 -3.83498e-01        00000 
 1.03917e+00  7.81984e+00        00000 
-4.95236e-01  4.36016e-02        00000 
 8.04277e+00 -3.73803e-01        00000 
 2.27739e-01 -3.31710e+00        00000 
 1.54891e+00 -1.65845e-01        00000 
-5.66972e+00 -1.40293e+00        00000 
-1.65610e+00  7.49174e+00        00000 
-1.25279e-02  1.61674e+00        00000 
 7.33708e+00 -7.22843e-01        00000 
 1.26689e-01  3.94045e+00        00000 
-1.86367e-01 -1.40112e+00        00000 
 8.03949e+00 -2.44617e-01        00000 
 1.35362e+00  8.02993e+00        00000 
-4.79966e-01 -1.10255e+00        00000 
 8.05918e+00 -2.89757e-01        00000 
 1.05049e+00  8.03481e+00        00000 
-4.44901e-01  2.66221e-01        00000 
 3.43255e+00 -5.44497e-01        00000 
-4.62398e-01 -4.51525e+00        00000 
 5.77064e-01  2.40671e-01        00000 
 6.62020e+00 -3.86103e-01        00000 
 3.49064e-01  7.18833e+00        00000 
-3.37374e-01  6.01445e-01        00000 
 3.00055e+00 -1.19555e+00        00000 
 1.28036e+00  6.29728e+00        00000 
-9.13846e-01  3.91001e-01        00000 
-4.91447e+00  1.60786e+00        00000 
-2.52593e-01 -6.42303e+00        00000 
-1.38882e+00  2.28751e-01        00000 
 5.70872e+00 -4.41892e-01        00000 
 3.47214e-01  1.90518e+00        00000 
-6.69103e-01  4.51058e-01        00000 
 6.73221e+00 -4.89744e-01        00000 
-1.03573e+00  5.19297e+00        00000 
 3.81390e-01 -5.88073e-01        00000 
-5.78829e+00  7.58496e-01        00000 
 4.33975e-01 -7.01327e+00        00000 
-9.52133e-01  6.84086e-01        00000 
 6.87052e+00 -4.04521e-01        00000 
-5.00456e-01  7.40801e+00        00000 
-3.34683e-01  2.43533e-01        00000 
 7.40883e+00 -3.47489e-01        00000 
-6.65801e-01  7.37639e+00        00000 
-3.20144e-01  4.65042e-01        00000 
 7.37399e+00 -3.55162e-01        00000 
-8.65538e-01  7.30392e+00        00000 
-3.01064e-01  7.05257e-01        00000 
 7.32984e+00 -3.74272e-01        00000 
-6.53077e-01  3.58433e+00        00000 
 5.92117e-01 -5.32837e-01        00000 
 2.71382e+00  7.18103e-01        00000 
 3.89266e-01  8.78096e-01        00000 
-1.31378e+00  1.69325e+00        00000 
 6.88548e+00 -4.82844e-01        00000 
 5.41858e-01 -6.42182e+00        00000 
 1.70249e+00 -4.32837e-01        00000 
-7.42722e+00 -1.31770e+00        00000 
-1.58251e+00  6.80982e+00        00000 
-1.56926e-01  3.84587e-01        00000 
 8.64263e-02 -6.83447e-01        00000 
-1.23479e-01  1.95891e+00        00000 
-7.93106e-02  4.37155e-01        00000 
 2.53756e+00 -8.39328e-01        00000 
-6.12164e-01 -7.02799e+00        00000 
 9.01045e-01  3.63763e-01        00000 
 5.91558e+00 -1.96901e-01        00000 
-1.35079e+00  5.82920e+00        00000 
 1.72098e-01  3.45004e-01        00000 
 6.47559e+00 -3.25988e-01        00000 
 3.33399e-01  5.42521e+00        00000 
-2.49196e-01  6.57930e-01        00000 
-7.79997e+00  1.76611e+00        00000 
-4.41133e-01 -8.30890e+00        00000 
-1.30732e+00 -1.48256e-01        00000 
 2.95480e-01  1.05307e+00        00000 
-7.09112e-01 -8.17814e+00        00000 
 1.04785e+00 -1.05132e+00        00000 
 4.84521e+00  2.95506e-01        00000 
 8.80564e-01  4.14325e+00        00000 
-9.42318e-01 -2.15451e-01        00000 
-5.70407e-02  1.49249e-01        00000 
 3.10716e-01  4.73875e+00        00000 
-1.77737e-01  4.24303e-01        00000 
-8.52036e+00 -9.96805e-01        00000 
 1.94793e-01  3.99345e+00        00000 
-4.75197e-01  2.61343e-01        00000 
 3.99510e+00 -8.86398e-02        00000 
 1.27409e+00  5.86691e+00        00000 
-3.51885e-01 -1.31445e+00        00000 
 5.86234e+00 -1.99320e-01        00000 
-7.66828e-01  3.75913e+00        00000 
 4.34725e-01  1.88786e+00        00000 
 5.51109e+00 -4.74194e-01        00000 
 1.53450e-01  5.45803e+00        00000 
-2.60593e-01  9.28519e-01        00000 
 5.45969e+00 -3.81175e-01        00000 
 7.27542e-01 -9.06197e+00        00000 
 1.80836e+00 -4.69468e-01        00000 
-9.09513e+00 -1.24167e+00        00000 
-1.47268e+00  5.24358e+00        00000 
 5.50151e-02 -7.20929e-01        00000 
-9.25163e+00  1.15840e+00        00000 
-1.68505e+00  5.41222e+00        00000 
-3.74711e-02 -1.02519e+00        00000 
 5.69733e+00 -2.10315e-01        00000 
 9.67874e-01  5.72714e+00        00000 
-3.00412e-01  4.04661e-01        00000 
-9.19223e+00 -9.74242e-01        00000 
 1.42258e+00  5.25334e+00        00000 
-5.98435e-01  9.93839e-02        00000 
 2.98877e+00 -7.09395e-02        00000 
-3.83110e-01 -2.17479e+00        00000 
 3.53821e-01  6.46940e-02        00000 
-1.67625e+00 -1.22603e+00        00000 
 1.14797e-01  4.72592e+00        00000 
-4.09888e-01  2.32671e-01        00000 
-2.32916e+00  1.22768e+00        00000 
 4.53661e-01 -1.93830e+00        00000 
-7.12200e-01  1.14910e+00        00000 
 4.58665e+00 -7.52144e-01        00000 
 2.02688e-02 -8.13949e-01        00000 
 9.79242e-01  1.35794e-01        00000 
 4.10599e+00 -4.24970e-01        00000 
-7.45099e-01 -1.01315e+01        00000 
 1.31142e+00  4.22184e-01        00000 
-9.74952e+00 -9.61773e-01        00000 
 8.05249e-01 -1.01441e+01        00000 
 1.79747e+00 -4.51291e-01        00000 
 5.12908e+00 -2.54636e-01        00000 
 2.10520e-01  5.13290e+00        00000 
-2.50947e-01 -5.70848e-01        00000 
 5.11665e+00 -2.46657e-01        00000 
 4.21388e-01  5.11932e+00        00000 
-2.56212e-01 -7.89394e-01        00000 
 5.12750e+00 -2.22743e-01        00000 
 6.08950e-01  5.09953e+00        00000 
-2.51944e-01 -4.77732e-01        00000 
-9.77566e+00 -1.18600e+00        00000 
 1.53967e+00  4.59388e+00        00000 
-3.21900e-01  1.85563e-01        00000 
-4.41643e+00 -9.00115e-01        00000 
 8.16436e-02  2.48144e+00        00000 
-5.52301e-01 -1.43484e+00        00000 
 4.47151e+00 -1.15303e-01        00000 
 4.21401e-01 -3.74167e+00        00000 
-6.80999e-01  5.19034e-01        00000 
 2.28398e+00 -9.15045e-01        00000 
 9.09152e-02  4.57424e+00        00000 
-2.23247e-01 -2.31003e-01        00000 
-6.06613e+00  1.05292e+00        00000 
 5.79496e-01  4.33979e+00        00000 
-2.65450e-01 -1.58514e-01        00000 
-3.81547e+00 -1.08047e+00        00000 
-8.64167e-01 -1.07904e+01        00000 
 1.46640e+00  4.79397e-01        00000 
-1.02724e+01 -9.44135e-01        00000 
 8.67600e-01 -1.08255e+01        00000 
 1.83467e+00 -4.95794e-01        00000 
-1.03420e+01 -1.13761e+00        00000 
 2.98707e-01  1.37561e+00        00000 
-4.83691e-01  2.57984e-01        00000 
 4.07007e+00 -3.82814e-01        00000 
 3.11146e-01  3.81162e+00        00000 
-8.93671e-02  3.73242e-01        00000 
 5.91939e-01 -9.72451e-01        00000 
-2.30128e-01  3.96782e+00        00000 
-2.00390e-01 -5.11350e-01        00000 
 1.80317e+00  5.38640e-01        00000 
-7.92588e-01 -1.13532e+01        00000 
 1.52118e+00  3.61307e-01        00000 
 5.40466e-02 -5.69852e-01        00000 
 3.47513e-01  3.46227e+00        00000 
-4.74029e-02  4.66781e-01        00000 
-1.07644e+01 -9.16788e-01        00000 
-1.12879e+00  3.41529e+00        00000 
 1.95616e-01 -4.77309e-01        00000 
-3.62745e+00  5.57887e-01        00000 
-3.35485e-02  1.39567e+00        00000 
 1.04571e-01  3.33503e-01        00000 
-4.74470e+00 -7.75471e-01        00000 
 2.95031e-01  3.23843e+00        00000 
-6.01747e-02  1.15268e+00        00000 
 3.63544e+00 -2.02887e-01        00000 
-1.18904e+00  3.67348e+00        00000 
-1.20336e-01  9.06525e-01        00000 
-1.14598e+01  1.79274e+00        00000 
-4.81919e-01 -1.08945e+01        00000 
-1.06226e+00  5.24767e-01        00000 
-4.03352e+00  1.18590e+00        00000 
-8.50954e-01  2.85090e+00        00000 
 2.91381e-01  2.45691e-01        00000 
 2.76215e+00  2.20523e-02        00000 
-9.04379e-01  3.41280e+00        00000 
-1.48872e-01  8.35824e-01        00000 
 3.43178e+00 -1.79441e-01        00000 
-3.31409e-01 -4.97493e+00        00000 
-1.02298e+00  7.30537e-01        00000 
 2.50879e+00 -7.39442e-01        00000 
-1.02225e-01  3.39942e-01        00000 
 7.35584e-01  6.34250e-02        00000 
 2.40567e+00 -4.58462e-01        00000 
-2.13592e-01  1.35080e-01        00000 
 1.65688e-01 -2.30699e-01        00000 
-7.78595e+00  1.22912e+00        00000 
 3.23864e-01  2.34305e+00        00000 
 2.02502e-02 -8.23176e-01        00000 
-1.16553e+01  1.62533e+00        00000 
 1.52034e+00  3.14552e+00        00000 
-2.86489e-01  1.49968e-01        00000 
 3.07310e+00 -1.42501e-01        00000 
 4.98923e-01 -1.11111e+01        00000 
-9.18812e-01  7.30669e-01        00000 
 3.07697e+00 -2.55921e-01        00000 
-6.97743e-01  2.24660e+00        00000 
 3.86381e-01 -1.20845e+00        00000 
 2.98875e+00  1.29732e-01        00000 
-1.33319e+00  2.98480e+00        00000 
 3.34294e-03 -4.17531e-01        00000 
 2.99223e+00 -1.52172e-01        00000 
 1.55107e-01  2.98386e+00        00000 
-1.41246e-01 -4.69138e-01        00000 
 2.97756e+00 -1.45574e-01        00000 
 3.40518e-01  2.98880e+00        00000 
-1.38824e-01  1.10641e+00        00000 
 3.02719e+00 -4.37984e-01        00000 
-6.68562e-01  2.97924e+00        00000 
-1.43701e-01  5.51108e-01        00000 
 3.01639e+00 -1.37964e-01        00000 
 9.30372e-01 -1.17069e+01        00000 
 1.66069e+00 -2.50397e-01        00000 
 2.90591e+00 -1.18828e-01        00000 
 1.21888e-01  1.73253e+00        00000 
 6.61591e-02 -4.84010e-01        00000 
-1.11985e+01 -9.80614e-01        00000 
-4.79585e-02  2.69549e+00        00000 
-3.85425e-01 -6.78322e-01        00000 
-5.20307e+00  7.22131e-01        00000 
 3.56487e-01 -5.88447e+00        00000 
-7.12893e-01  9.03391e-01        00000 