<?xml version="1.0" encoding="utf-8"?>
<VTKFile byte_order="LittleEndian" type="UnstructuredGrid" version="0.1">
   <UnstructuredGrid>
      <Piece NumberOfCells="11088" NumberOfPoints="3722">
         <Points>
            <DataArray Name="Points" NumberOfComponents="3" format="ascii" type="Float32">
0.0500 -0.0154 -0.4818
0.0500 -0.0196 -0.4817
0.0500 -0.0174 -0.4774
0.0500 -0.0141 -0.4742
0.0500 -0.0204 -0.4740
0.0500 -0.0132 -0.4689
0.0500 -0.0210 -0.4687
0.0500 -0.0123 -0.4636
0.0500 -0.0216 -0.4633
0.0500 -0.0112 -0.4569
0.0500 -0.0223 -0.4566
0.0500 -0.0101 -0.4501
0.0500 -0.0231 -0.4497
0.0500 -0.0089 -0.4421
0.0500 -0.0239 -0.4417
0.0500 -0.0169 -0.4365
0.0500 -0.0075 -0.4337
0.0500 -0.0248 -0.4332
0.0500 -0.0168 -0.4250
0.0500 -0.0061 -0.4245
0.0500 -0.0258 -0.4241
0.0500 -0.0045 -0.4146
0.0500 -0.0268 -0.4140
0.0500 -0.0155 -0.4092
0.0500 -0.0029 -0.4041
0.0500 -0.0278 -0.4035
0.0500 -0.0092 -0.3989
0.0500 -0.0192 -0.3978
0.0500 -0.0011 -0.3928
0.0500 -0.0290 -0.3921
0.0500 -0.0148 -0.3906
0.0500 -0.0221 -0.3899
0.0472 -0.0171 -0.4691
0.0500 -0.0132 -0.3803
0.0500 0.0006 -0.3811
0.0500 -0.0224 -0.3793
0.0500 -0.0301 -0.3799
0.0500 -0.0115 -0.3700
0.0500 -0.0228 -0.3687
0.0500 0.0025 -0.3686
0.0500 -0.0313 -0.3677
0.0457 -0.0174 -0.4783
0.0460 -0.0155 -0.4445
0.0500 -0.0098 -0.3592
0.0454 -0.0173 -0.4752
0.0500 -0.0232 -0.3580
0.0500 0.0044 -0.3556
0.0500 -0.0325 -0.3544
0.0500 -0.0080 -0.3477
0.0500 -0.0235 -0.3472
0.0500 0.0064 -0.3420
0.0500 -0.0338 -0.3409
0.0500 -0.0244 -0.3386
0.0435 -0.0154 -0.4818
0.0435 -0.0196 -0.4817
0.0435 -0.0141 -0.4742
0.0435 -0.0204 -0.4740
0.0435 -0.0123 -0.4636
0.0435 -0.0216 -0.4633
0.0500 -0.0053 -0.3305
0.0500 -0.0253 -0.3299
0.0500 0.0084 -0.3279
0.0500 -0.0350 -0.3268
0.0445 -0.0250 -0.3948
0.0500 -0.0037 -0.3207
0.0500 -0.0263 -0.3202
0.0421 -0.0101 -0.4501
0.0421 -0.0231 -0.4497
0.0438 -0.0187 -0.3928
0.0421 -0.0075 -0.4337
0.0421 -0.0248 -0.4332
0.0500 0.0105 -0.3133
0.0500 -0.0363 -0.3120
0.0500 -0.0022 -0.3109
0.0500 -0.0273 -0.3102
0.0435 -0.0275 -0.3862
0.0500 -0.0282 -0.3001
0.0500 -0.0006 -0.3002
0.0500 -0.0376 -0.2976
0.0500 0.0126 -0.2984
0.0398 -0.0088 -0.4419
0.0405 -0.0045 -0.4146
0.0405 -0.0268 -0.4140
0.0500 0.0010 -0.2891
0.0500 -0.0294 -0.2883
0.0500 0.0148 -0.2826
0.0382 -0.0165 -0.4351
0.0500 -0.0390 -0.2811
0.0500 0.0028 -0.2773
0.0367 -0.0133 -0.4532
0.0385 -0.0193 -0.3991
0.0374 -0.0060 -0.4240
0.0374 -0.0258 -0.4235
0.0385 -0.0011 -0.3928
0.0358 -0.0154 -0.4818
0.0358 -0.0196 -0.4817
0.0358 -0.0141 -0.4742
0.0358 -0.0204 -0.4740
0.0383 -0.0290 -0.3921
0.0383 -0.0148 -0.3906
0.0358 -0.0123 -0.4636
0.0358 -0.0216 -0.4633
0.0383 -0.0221 -0.3899
0.0500 0.0046 -0.2652
0.0500 0.0170 -0.2665
0.0500 -0.0402 -0.2653
0.0500 -0.0316 -0.2642
0.0392 -0.0107 -0.3650
0.0366 -0.0028 -0.4038
0.0365 -0.0279 -0.4031
0.0385 0.0025 -0.3686
0.0357 -0.0164 -0.4161
0.0384 -0.0313 -0.3677
0.0376 -0.0128 -0.3779
0.0500 0.0064 -0.2524
0.0368 -0.0226 -0.3760
0.0500 0.0192 -0.2500
0.0500 -0.0416 -0.2484
0.0384 -0.0235 -0.3472
0.0372 -0.0231 -0.3605
0.0384 -0.0338 -0.3409
0.0354 0.0007 -0.3808
0.0353 -0.0301 -0.3799
0.0327 -0.0075 -0.4337
0.0327 -0.0248 -0.4332
0.0500 0.0083 -0.2393
0.0322 -0.0101 -0.4501
0.0322 -0.0231 -0.4497
0.0500 -0.0339 -0.2382
0.0384 -0.0253 -0.3299
0.0500 0.0214 -0.2332
0.0500 -0.0429 -0.2318
0.0500 0.0102 -0.2257
0.0352 -0.0080 -0.3477
0.0354 0.0064 -0.3420
0.0294 -0.0157 -0.4569
0.0335 0.0045 -0.3554
0.0353 -0.0053 -0.3305
0.0500 0.0237 -0.2158
0.0500 -0.0442 -0.2140
0.0293 -0.0268 -0.4140
0.0292 -0.0045 -0.4146
0.0500 0.0121 -0.2117
0.0500 -0.0363 -0.2104
0.0356 -0.0363 -0.3120
0.0317 -0.0325 -0.3548
0.0356 -0.0273 -0.3102
0.0354 -0.0022 -0.3109
0.0264 -0.0154 -0.4818
0.0264 -0.0196 -0.4817
0.0353 0.0105 -0.3133
0.0264 -0.0141 -0.4742
0.0264 -0.0204 -0.4740
0.0264 -0.0123 -0.4636
0.0264 -0.0216 -0.4633
0.0268 -0.0167 -0.4424
0.0341 0.0062 -0.3220
0.0335 -0.0351 -0.3265
0.0262 -0.0149 -0.4288
0.0500 0.0141 -0.1972
0.0500 0.0259 -0.1983
0.0500 -0.0454 -0.1968
0.0370 -0.0333 -0.2779
0.0353 0.0010 -0.2891
0.0245 -0.0060 -0.4238
0.0245 -0.0258 -0.4233
0.0351 0.0148 -0.2826
0.0500 0.0161 -0.1824
0.0500 -0.0386 -0.1809
0.0246 -0.0011 -0.3928
0.0246 -0.0290 -0.3921
0.0246 -0.0148 -0.3906
0.0246 -0.0221 -0.3899
0.0233 -0.0157 -0.4160
0.0500 0.0282 -0.1803
0.0500 -0.0468 -0.1783
0.0254 0.0025 -0.3686
0.0250 -0.0313 -0.3677
0.0351 0.0046 -0.2652
0.0215 -0.0075 -0.4337
0.0215 -0.0248 -0.4332
0.0202 -0.0101 -0.4501
0.0202 -0.0231 -0.4497
0.0311 -0.0294 -0.2883
0.0500 0.0181 -0.1672
0.0250 -0.0235 -0.3472
0.0232 -0.0116 -0.3706
0.0315 -0.0390 -0.2811
0.0250 -0.0338 -0.3409
0.0500 0.0303 -0.1622
0.0500 -0.0480 -0.1599
0.0250 -0.0253 -0.3299
0.0317 -0.0316 -0.2642
0.0208 -0.0228 -0.3678
0.0269 0.0125 -0.2993
0.0500 0.0201 -0.1516
0.0500 -0.0410 -0.1500
0.0174 -0.0196 -0.4021
0.0152 -0.0154 -0.4818
0.0152 -0.0196 -0.4817
0.0152 -0.0141 -0.4742
0.0152 -0.0204 -0.4740
0.0152 -0.0123 -0.4636
0.0152 -0.0216 -0.4633
0.0291 0.0170 -0.2663
0.0313 0.0192 -0.2500
0.0313 -0.0416 -0.2484
0.0160 -0.0268 -0.4140
0.0500 0.0326 -0.1435
0.0500 -0.0492 -0.1413
0.0157 -0.0045 -0.4146
0.0317 -0.0339 -0.2382
0.0315 0.0083 -0.2393
0.0261 -0.0349 -0.2770
0.0500 0.0221 -0.1357
0.0180 -0.0080 -0.3477
0.0183 0.0064 -0.3420
0.0129 -0.0182 -0.4246
0.0183 -0.0053 -0.3305
0.0500 0.0347 -0.1250
0.0500 -0.0504 -0.1220
0.0319 0.0237 -0.2158
0.0500 0.0241 -0.1196
0.0185 0.0105 -0.3133
0.0185 -0.0363 -0.3120
0.0319 0.0121 -0.2117
0.0185 -0.0022 -0.3109
0.0500 -0.0433 -0.1178
0.0183 -0.0273 -0.3102
0.0189 0.0010 -0.2891
0.0082 -0.0248 -0.4332
0.0082 -0.0075 -0.4337
0.0188 0.0148 -0.2826
0.0090 -0.0290 -0.3921
0.0090 -0.0148 -0.3906
0.0090 -0.0221 -0.3899
0.0500 0.0369 -0.1059
0.0500 -0.0515 -0.1035
0.0100 0.0025 -0.3686
0.0500 0.0261 -0.1031
0.0084 -0.0011 -0.3928
0.0062 -0.0101 -0.4501
0.0062 -0.0231 -0.4497
0.0500 -0.0444 -0.1009
0.0093 -0.0313 -0.3677
0.0189 0.0046 -0.2652
0.0319 0.0161 -0.1824
0.0259 -0.0442 -0.2140
0.0095 -0.0235 -0.3472
0.0319 0.0282 -0.1803
0.0260 -0.0363 -0.2104
0.0095 -0.0338 -0.3409
0.0274 0.0259 -0.1981
0.0095 -0.0253 -0.3299
0.0500 0.0281 -0.0866
0.0500 -0.0455 -0.0846
0.0500 0.0390 -0.0870
0.0020 -0.0154 -0.4818
0.0020 -0.0196 -0.4817
0.0020 -0.0141 -0.4742
0.0020 -0.0204 -0.4740
0.0020 -0.0123 -0.4636
0.0020 -0.0216 -0.4633
0.0500 -0.0526 -0.0834
0.0006 -0.0268 -0.4140
0.0293 -0.0423 -0.1664
0.0103 -0.0294 -0.2883
-0.0000 -0.0045 -0.4146
0.0258 -0.0386 -0.1809
0.0106 -0.0390 -0.2811
-0.0017 -0.0186 -0.4760
0.0367 0.0270 -0.1268
0.0001 -0.0197 -0.4025
0.0261 -0.0468 -0.1783
0.0500 0.0301 -0.0693
0.0500 -0.0465 -0.0674
0.0500 0.0411 -0.0674
0.0500 -0.0536 -0.0649
0.0111 -0.0316 -0.2642
0.0004 -0.0228 -0.3683
-0.0003 -0.0110 -0.3665
0.0111 -0.0416 -0.2484
-0.0057 -0.0167 -0.4798
0.0104 0.0192 -0.2500
0.0500 0.0320 -0.0526
0.0116 -0.0339 -0.2382
-0.0010 -0.0080 -0.3477
0.0500 -0.0476 -0.0505
-0.0009 0.0064 -0.3420
0.0261 0.0201 -0.1516
0.0107 0.0083 -0.2393
0.0259 -0.0410 -0.1500
-0.0006 -0.0053 -0.3305
-0.0071 -0.0248 -0.4332
-0.0072 -0.0075 -0.4337
0.0500 0.0432 -0.0471
0.0500 -0.0546 -0.0449
0.0261 0.0326 -0.1435
-0.0003 0.0105 -0.3133
-0.0005 -0.0022 -0.3109
-0.0091 -0.0101 -0.4501
-0.0091 -0.0231 -0.4497
0.0256 -0.0492 -0.1413
-0.0011 -0.0363 -0.3120
0.0116 0.0237 -0.2158
-0.0015 -0.0273 -0.3102
0.0116 0.0121 -0.2117
0.0356 0.0311 -0.0922
0.0006 0.0010 -0.2891
0.0500 0.0340 -0.0349
-0.0086 -0.0290 -0.3921
-0.0086 -0.0148 -0.3906
0.0500 -0.0485 -0.0326
-0.0086 -0.0221 -0.3899
0.0008 0.0148 -0.2826
-0.0076 0.0025 -0.3686
-0.0096 -0.0011 -0.3928
-0.0123 -0.0154 -0.4818
-0.0123 -0.0196 -0.4817
-0.0123 -0.0141 -0.4742
-0.0123 -0.0204 -0.4740
-0.0084 -0.0313 -0.3677
-0.0123 -0.0123 -0.4636
-0.0123 -0.0216 -0.4633
0.0500 0.0451 -0.0285
-0.0120 -0.0139 -0.4245
0.0010 0.0046 -0.2652
0.0500 -0.0555 -0.0258
-0.0082 -0.0235 -0.3472
0.0260 0.0241 -0.1196
0.0259 -0.0433 -0.1178
-0.0082 -0.0338 -0.3409
-0.0082 -0.0253 -0.3299
0.0118 0.0161 -0.1824
0.0500 0.0358 -0.0181
0.0500 -0.0495 -0.0158
0.0118 0.0282 -0.1803
-0.0151 -0.0268 -0.4140
-0.0157 -0.0045 -0.4146
0.0259 0.0369 -0.1059
0.0254 -0.0515 -0.1035
0.0500 0.0470 -0.0083
0.0500 -0.0563 -0.0056
-0.0173 -0.0197 -0.4023
0.0500 0.0376 0.0001
0.0500 -0.0503 0.0024
0.0260 0.0281 -0.0866
0.0260 -0.0455 -0.0846
-0.0207 -0.0248 -0.4332
-0.0208 -0.0075 -0.4337
-0.0006 -0.0442 -0.2140
-0.0114 -0.0294 -0.2883
-0.0006 -0.0363 -0.2104
-0.0222 -0.0101 -0.4501
-0.0222 -0.0231 -0.4497
-0.0116 -0.0390 -0.2811
-0.0226 -0.0157 -0.4159
0.0318 -0.0476 -0.0505
0.0500 0.0488 0.0106
-0.0202 -0.0228 -0.3678
0.0500 -0.0571 0.0135
-0.0245 -0.0154 -0.4818
-0.0245 -0.0196 -0.4817
-0.0245 -0.0141 -0.4742
-0.0245 -0.0204 -0.4740
-0.0210 -0.0119 -0.3726
-0.0245 -0.0123 -0.4636
-0.0245 -0.0216 -0.4633
-0.0193 -0.0080 -0.3477
-0.0238 -0.0259 -0.4230
-0.0239 -0.0059 -0.4236
-0.0195 0.0064 -0.3420
-0.0114 -0.0316 -0.2642
0.0500 0.0394 0.0170
0.0500 -0.0511 0.0194
-0.0191 -0.0053 -0.3305
0.0260 -0.0536 -0.0649
0.0258 0.0411 -0.0674
-0.0257 -0.0174 -0.4287
-0.0244 -0.0290 -0.3921
0.0001 -0.0386 -0.1809
-0.0244 -0.0148 -0.3906
-0.0244 -0.0221 -0.3899
-0.0108 -0.0416 -0.2484
-0.0188 0.0105 -0.3133
0.0002 -0.0468 -0.1783
-0.0115 0.0192 -0.2500
-0.0191 -0.0022 -0.3109
-0.0254 -0.0011 -0.3928
-0.0239 0.0025 -0.3686
0.0500 0.0500 0.0248
-0.0107 -0.0339 -0.2382
-0.0244 -0.0313 -0.3677
0.0500 -0.0575 0.0278
-0.0198 -0.0363 -0.3120
-0.0201 -0.0273 -0.3102
-0.0116 0.0083 -0.2393
0.0500 0.0405 0.0292
-0.0182 0.0010 -0.2891
0.0262 0.0320 -0.0526
0.0500 -0.0516 0.0317
-0.0243 -0.0235 -0.3472
-0.0178 0.0148 -0.2826
-0.0293 -0.0148 -0.4433
-0.0288 -0.0268 -0.4140
-0.0243 -0.0338 -0.3409
0.0318 0.0451 -0.0285
-0.0292 -0.0045 -0.4146
0.0316 -0.0555 -0.0258
-0.0243 -0.0253 -0.3299
-0.0177 0.0046 -0.2652
0.0500 0.0511 0.0374
0.0500 -0.0579 0.0403
-0.0111 0.0237 -0.2158
0.0002 -0.0410 -0.1500
0.0500 0.0416 0.0407
0.0321 0.0358 -0.0181
-0.0111 0.0121 -0.2117
0.0321 -0.0495 -0.0158
0.0500 -0.0521 0.0433
-0.0323 -0.0248 -0.4332
-0.0323 -0.0075 -0.4337
0.0238 0.0431 -0.0478
[...]
         <PointData>
            <DataArray Name="fValues" NumberOfComponents="3" format="ascii" type="Float64">
 5.10135e-01 -7.40483e+00        00000 
 5.81731e-01 -1.07655e-01        00000 
-7.41197e+00  3.07003e-01        00000 
 1.82231e-01 -7.69282e+00        00000 
 4.49551e-01  6.53797e-01        00000 
-7.89553e+00  6.62680e-01        00000 
-3.09451e-01 -7.90583e+00        00000 
 2.47213e-01  7.64803e-01        00000 
-8.23855e+00  7.18749e-01        00000 
-4.69582e-01 -8.25113e+00        00000 
 2.00523e-01  8.60302e-01        00000 
-8.59539e+00  7.66418e-01        00000 
-6.19693e-01 -8.59401e+00        00000 
 1.72131e-01  9.94379e-01        00000 
-9.02248e+00  8.33742e-01        00000 
-8.20956e-01 -9.00872e+00        00000 
 1.23071e-01  1.13144e+00        00000 
-9.42703e+00  8.94226e-01        00000 
-1.00812e+00 -9.46661e+00        00000 
 8.29794e-02  1.33738e+00        00000 
-9.94201e+00  9.82207e-01        00000 
-1.23237e+00 -9.96718e+00        00000 
 2.41951e-02 -8.46606e-02        00000 
-1.02798e+01  4.65630e-01        00000 
 1.54855e+00 -1.04994e+01        00000 
 1.06885e+00 -1.52212e+00        00000 
-1.05253e+01 -3.70442e-02        00000 
-1.77641e-01 -1.09941e+01        00000 
 4.77609e-01  1.79643e+00        00000 
-1.10784e+01  1.15760e+00        00000 
-1.83963e+00 -1.11018e+01        00000 
-9.64523e-02  2.04534e+00        00000 
-1.17117e+01  1.24150e+00        00000 
-2.17678e+00 -1.17500e+01        00000 
-1.57975e-01 -7.25139e-02        00000 
-1.19734e+01  5.63659e-01        00000 
 2.30470e+00 -1.23555e+01        00000 
 1.32463e+00 -2.54987e+00        00000 
-1.23724e+01 -2.34261e-01        00000 
 9.86210e-01 -1.26226e+01        00000 
 9.26707e-01 -8.74822e-01        00000 
-1.27153e+01  3.54062e-01        00000 
 2.51004e+00 -1.30572e+01        00000 
 1.37948e+00 -2.75687e+00        00000 
-1.30937e+01 -2.54067e-01        00000 
-2.54623e-01 -1.31032e+01        00000 
 6.16403e-01 -1.33338e+00        00000 
-1.32023e+01  1.99132e-01        00000 
 1.37751e-01 -7.79949e+00        00000 
 4.29865e-01 -4.05705e-01        00000 
-1.36612e+01  6.95784e-01        00000 
 2.56014e+00 -1.36458e+01        00000 
 1.39265e+00 -8.96193e-01        00000 
-1.39136e+01  2.24482e-01        00000 
-2.63679e+00 -1.38797e+01        00000 
-3.03230e-01 -5.41528e-01        00000 
-1.41941e+01  8.04091e-01        00000 
-5.24132e-01 -1.46549e+01        00000 
 2.27309e-01  2.50121e+00        00000 
-1.42551e+01  1.44810e+00        00000 
-2.46962e+00 -1.47319e+01        00000 
-3.66467e-01  1.78412e-01        00000 
-7.00773e+00  4.09277e-01        00000 
 2.11026e-01 -9.11395e+00        00000 
 5.23031e-01 -6.70760e-01        00000 
-1.46746e+01  9.07806e-01        00000 
 1.67001e-01 -7.16410e+00        00000 
 4.10961e-01 -1.74936e-01        00000 
-1.54069e+01  2.32858e-01        00000 
 2.45351e+00 -1.48054e+01        00000 
 1.47264e+00 -2.36997e+00        00000 
-1.56752e+01 -4.35116e-01        00000 
-7.70667e-01 -1.50667e+01        00000 
 1.03717e+00  1.68701e-01        00000 
-1.62090e+01  2.02604e-01        00000 
 2.40610e+00 -1.52789e+01        00000 
 1.48670e+00 -2.30764e+00        00000 
-1.66450e+01 -4.97530e-01        00000 
 2.63060e-01 -1.67931e+01        00000 
 1.23581e-01  4.79087e-01        00000 
-6.52287e+00  5.11467e-01        00000 
-9.12498e-02 -6.53265e+00        00000 
 2.75335e-01  5.97587e-01        00000 
-6.96794e+00  5.82043e-01        00000 
-2.83308e-01 -6.96222e+00        00000 
 2.14897e-01  8.24781e-01        00000 
-7.58261e+00  6.83789e-01        00000 
-5.89768e-01 -7.61921e+00        00000 
 1.32124e-01 -9.42407e-01        00000 
-1.56480e+01  1.17770e+00        00000 
 3.49081e-01 -1.73603e+01        00000 
 3.12286e-02  2.31899e+00        00000 
-1.56702e+01  1.53729e+00        00000 
-2.25000e+00 -1.75262e+01        00000 
-5.46454e-01 -1.91221e+00        00000 
-1.17675e+01 -6.94188e-03        00000 
-1.04268e+00 -1.58166e+01        00000 
 1.25337e+00  4.81079e-01        00000 
-1.78653e+01 -6.22842e-02        00000 
 1.06311e+00 -8.15711e+00        00000 
 8.19691e-01 -9.52000e-01        00000 
-8.18810e+00  3.79861e-02        00000 
-7.84601e-01 -1.17253e+01        00000 
 3.50627e-01  1.47636e+00        00000 
-9.11970e+00  9.47178e-01        00000 
-1.44248e+00 -9.14709e+00        00000 
-6.26043e-02  2.20272e+00        00000 
-1.60131e+01  1.53701e+00        00000 
-2.10329e+00 -1.83304e+01        00000 
-5.54708e-01 -1.12959e+00        00000 
-1.60688e+01  1.28694e+00        00000 
 6.11121e-01 -1.84236e+01        00000 
-1.38111e-01 -2.21798e+00        00000 
-1.21062e+01 -1.38234e-01        00000 
 6.72304e-01 -1.88258e+01        00000 
-2.03812e-01 -1.16610e+00        00000 
-1.62187e+01  1.30104e+00        00000 
-2.03219e+00 -1.89318e+01        00000 
-5.85271e-01  2.13233e+00        00000 
-1.63105e+01  1.54820e+00        00000 
 1.21912e+00 -8.29299e+00        00000 
 8.47170e-01  1.93874e+00        00000 
-9.93547e+00  1.04557e+00        00000 
-2.06792e+00 -9.97356e+00        00000 
-1.51015e-01 -1.23133e+00        00000 
-1.64617e+01  1.37590e+00        00000 
 7.74610e-01 -1.92790e+01        00000 
-3.19880e-01  2.06747e+00        00000 
-1.64958e+01  1.56240e+00        00000 
-1.37638e-02 -8.38282e+00        00000 
 3.95696e-01 -1.96823e+00        00000 
-1.94504e+01 -6.22653e-01        00000 
-1.28418e+00 -1.65073e+01        00000 
 1.40415e+00  5.76423e-01        00000 
-7.15433e+00  5.53594e-01        00000 
-8.05935e-01 -1.03154e+01        00000 
 2.82736e-01  1.63283e+00        00000 
-8.87231e+00  9.47627e-01        00000 
-1.68286e+00 -8.89931e+00        00000 
-1.06833e-01  2.34873e+00        00000 
-1.06862e+01  1.12802e+00        00000 
 4.48526e-01 -5.54118e+00        00000 
 4.36977e-01 -8.65889e-02        00000 
-5.54612e+00  2.14546e-01        00000 
 5.66400e-01 -5.93746e+00        00000 
 4.96442e-01 -2.73066e-01        00000 
-5.95613e+00  1.67609e-01        00000 
-2.57245e+00 -1.06824e+01        00000 
-1.87055e-01 -2.14918e-01        00000 
-1.06993e+01  5.18934e-01        00000 
 7.57999e-01 -6.50291e+00        00000 
 6.02567e-01 -5.58850e-01        00000 
-6.49631e+00  8.63197e-02        00000 
-1.22296e+00 -1.07497e+01        00000 
 1.80626e-01 -1.29577e+00        00000 
-1.66206e+01  1.47359e+00        00000 
 2.05744e+00 -1.65929e+01        00000 
 1.53274e+00 -1.87309e+00        00000 
-1.98165e+01 -6.36702e-01        00000 
 8.17980e-01 -1.98337e+01        00000 
-4.70338e-01 -6.34341e-01        00000 
-1.19165e+01  6.63586e-01        00000 
 2.06845e+00 -9.75084e+00        00000 
 1.01001e+00 -2.29334e+00        00000 
-9.82520e+00 -1.50487e-01        00000 
 2.33478e+00 -1.17373e+01        00000 
 1.16076e+00 -1.87885e-01        00000 
-8.98877e+00  3.83674e-01        00000 
-2.26926e+00 -1.20868e+01        00000 
-2.68091e-01 -4.61963e-01        00000 
-1.10550e+01  5.64722e-01        00000 
-1.32860e+00 -1.65930e+01        00000 
 1.52084e+00 -6.89507e-01        00000 
-1.11610e+01  2.26990e-01        00000 
 1.97825e+00 -1.66278e+01        00000 
 1.53460e+00 -1.82610e+00        00000 
-2.01878e+01 -7.14467e-01        00000 
 1.85559e-01 -1.32348e+01        00000 
 2.29176e-01 -1.55936e-01        00000 
-1.21612e+01  2.64072e-01        00000 
-2.11953e+00 -1.36757e+01        00000 
-3.40395e-01  2.29748e+00        00000 
-1.05871e+01  1.06093e+00        00000 
-2.36133e+00 -1.06832e+01        00000 
-1.75126e-01  1.34978e+00        00000 
-7.60547e+00  8.09479e-01        00000 
-1.30821e+00 -7.63551e+00        00000 
-7.45581e-02 -1.32841e+00        00000 
-1.66891e+01  1.56850e+00        00000 
 9.86332e-01 -6.67767e+00        00000 
 6.75642e-01 -8.71838e-01        00000 
-6.73758e+00 -4.11614e-03        00000 
 9.89586e-01 -2.04247e+01        00000 
-5.88417e-01  3.39778e-01        00000 
-1.41848e+01  1.36304e-01        00000 
 1.93064e+00 -1.66443e+01        00000 
 1.56493e+00 -1.74097e+00        00000 
-2.04763e+01 -7.38812e-01        00000 
-1.35155e+00 -1.66266e+01        00000 
 1.59903e+00 -7.34699e-01        00000 
-1.15875e+01  6.87426e-01        00000 
 2.21755e+00 -1.18648e+01        00000 
 1.11459e+00  2.46915e-01        00000 
-5.96700e+00  3.73469e-01        00000 
 2.20307e+00 -1.10974e+01        00000 
 1.04937e+00 -8.76202e-01        00000 
-1.20113e+01  7.90372e-01        00000 
 1.81691e+00 -1.66371e+01        00000 
 1.52281e+00 -1.64640e+00        00000 
-2.07339e+01 -7.81066e-01        00000 
-1.89757e+00 -8.05095e+00        00000 
-1.14399e-01  1.78992e+00        00000 
-7.99087e+00  8.54842e-01        00000 
-1.38875e+00 -1.66448e+01        00000 
 1.61568e+00  1.06891e+00        00000 
-2.08062e+01 -6.99255e-01        00000 
-1.90860e+00 -1.42212e+01        00000 
-3.38847e-01 -2.04980e+00        00000 
-1.12787e+01 -1.90313e-01        00000 
 6.16713e-01 -1.42619e+01        00000 
 2.00033e-02 -1.10005e+00        00000 
-1.23657e+01  8.76964e-01        00000 
 4.05565e-01 -4.42186e+00        00000 
 3.59929e-01 -7.50283e-02        00000 
-4.42585e+00  1.81623e-01        00000 
 1.99823e+00 -1.22719e+01        00000 
 1.07923e+00  5.16133e-01        00000 
-4.74558e+00  4.21466e-01        00000 
-2.47528e-01 -4.75691e+00        00000 
 1.37060e-01  6.89131e-01        00000 
-5.25884e+00  5.06074e-01        00000 
-5.15960e-01 -5.23507e+00        00000 
 7.09629e-02 -2.63913e-03        00000 
-6.27412e+00  3.08420e-01        00000 
 1.37139e+00 -1.18970e+01        00000 
 9.92254e-01 -2.02698e+00        00000 
-1.30752e+01 -2.56859e-01        00000 
 1.83938e-01 -6.80768e+00        00000 
 3.79155e-01 -1.40590e+00        00000 
-1.64830e+01  1.61247e+00        00000 
 1.72312e+00 -1.64635e+01        00000 
 1.49114e+00 -1.56355e+00        00000 
-2.08459e+01 -7.76837e-01        00000 
-9.87313e-02 -1.56238e+01        00000 
-2.46930e-01 -1.19614e+00        00000 
-1.26682e+01  9.30755e-01        00000 
 1.51227e+00 -6.77716e+00        00000 
 7.32672e-01 -1.54206e+00        00000 
-6.80852e+00 -8.52600e-02        00000 
 1.88198e+00 -1.26423e+01        00000 
 1.08689e+00 -1.37211e+00        00000 
-1.63427e+01  1.63504e+00        00000 
 1.11312e+00 -2.09161e+01        00000 
-7.84917e-01  2.13828e+00        00000 
-8.07196e+00  8.11901e-01        00000 
-2.34111e+00 -8.15069e+00        00000 
-1.39427e-01 -1.84737e-01        00000 
-8.19181e+00  3.81749e-01        00000 
-1.12574e+00 -8.22230e+00        00000 
 1.46752e-01 -3.70330e-02        00000 
-6.91707e+00  3.40792e-01        00000 
 1.66106e+00 -1.62637e+01        00000 
 1.47490e+00 -1.48495e+00        00000 
-2.09129e+01 -7.03110e-01        00000 
 2.10573e+00 -8.93852e+00        00000 
 8.31694e-01 -1.98054e+00        00000 
-9.19797e+00 -1.08688e-01        00000 
-1.17625e+00 -1.27346e+01        00000 
 1.03887e+00  1.20066e+00        00000 
-5.97628e+00  6.20333e-01        00000 
-1.14211e+00 -5.96860e+00        00000 
-1.89144e-02  8.42903e-01        00000 
-5.11681e+00  5.04059e-01        00000 
-7.61049e-01 -5.08336e+00        00000 
-3.56607e-03  7.06203e-01        00000 
-1.36569e+01 -3.30791e-02        00000 
-1.35165e+00 -1.60013e+01        00000 
 1.62050e+00  2.07926e-01        00000 
-1.01103e+01  2.87891e-01        00000 
-5.27398e-01 -8.41325e+00        00000 
 4.24553e-01 -1.74509e+00        00000 
-1.40097e+01 -2.93998e-01        00000 
-1.90293e+00 -1.04241e+01        00000 
-1.44134e-01  1.59058e+00        00000 
-1.59001e+01  1.39635e+00        00000 
-1.53591e+00 -2.06054e+01        00000 
-6.69549e-01  3.44845e-01        00000 
-1.06945e+01  1.80809e-01        00000 
 7.78821e-01 -1.43075e+01        00000 
-1.76411e-01 -3.56345e-01        00000 
-8.39670e+00  2.04982e-01        00000 
 1.81165e+00 -1.04425e+01        00000 
 8.69749e-01 -1.29157e+00        00000 
-1.57120e+01  1.60987e+00        00000 
 9.63948e-01 -2.04189e+01        00000 
-8.12434e-01 -7.15262e-01        00000 
-6.49980e+00  1.58755e-01        00000 
 3.59986e-01 -3.21568e+00        00000 
 2.76220e-01 -7.38521e-02        00000 
-3.21782e+00  1.22398e-01        00000 
 4.59593e-01 -3.49862e+00        00000 
 3.26572e-01 -2.21728e-01        00000 
-3.50810e+00  7.21016e-02        00000 
 6.18001e-01 -3.90071e+00        00000 
 3.89754e-01 -4.36251e-01        00000 
-3.94219e+00  3.14778e-02        00000 
 1.78970e+00 -1.12902e+01        00000 
 9.16981e-01  1.80007e+00        00000 
-1.17345e+01  9.87781e-01        00000 
-1.61749e+00 -1.44695e+01        00000 
-3.62681e-01 -1.64871e+00        00000 
-5.94186e+00 -8.17411e-02        00000 
 1.48760e+00 -1.56398e+01        00000 
 1.36483e+00 -1.46863e+00        00000 
-2.01877e+01 -5.90800e-01        00000 
 1.54096e+00 -5.82699e+00        00000 
 5.88964e-01  8.50222e-01        00000 
-1.46262e+01 -2.96273e-01        00000 
-1.17946e+00 -1.18050e+01        00000 
 1.00781e+00 -4.05857e-01        00000 
-1.25654e+01 -1.30387e-01        00000 
-1.32256e+00 -1.54091e+01        00000 
 1.57903e+00 -6.63644e-01        00000 
-7.93415e+00  3.76730e-01        00000 
 1.91692e+00 -8.05486e+00        00000 
 6.57178e-01 -2.98219e-01        00000 
-5.08672e+00  1.68780e-01        00000 
-8.20566e-01 -8.29586e+00        00000 
 4.50596e-01  1.42575e+00        00000 
-1.51607e+01  1.28659e+00        00000 
-1.44951e+00 -1.96235e+01        00000 
-5.76815e-01  1.62653e+00        00000 
-1.20021e+01  1.02171e+00        00000 
-1.20921e+00 -1.50491e+01        00000 
 1.55670e+00  1.74964e+00        00000 
-8.56146e+00  6.44861e-01        00000 
-1.64676e+00 -9.76818e+00        00000 
-6.77301e-02 -1.29874e+00        00000 
-1.19238e+01  1.04305e+00        00000 
-9.37296e-01 -8.58814e+00        00000 
 5.19368e-01  9.05160e-01        00000 
-1.95065e+01 -7.92784e-01        00000 
 5.57841e-01 -9.71223e+00        00000 
 1.69198e-01 -9.78589e-01        00000 
-8.87145e+00  5.93687e-01        00000 
-1.00662e+00 -4.23041e+00        00000 
-8.16897e-02  1.08065e+00        00000 
-4.17758e+00  4.92733e-01        00000 
 1.68709e+00 -8.83735e+00        00000 
 6.54341e-01 -2.04228e+00        00000 
-5.51057e+00 -8.95123e-02        00000 
-1.49629e-01 -5.52637e+00        00000 
 2.40621e-01 -9.24009e-01        00000 
-5.53707e+00  1.20158e-01        00000 
 1.33136e+00 -1.47824e+01        00000 
 1.21037e+00 -1.32795e+00        00000 
-1.90974e+01 -5.35351e-01        00000 
 1.77857e+00 -6.05463e+00        00000 
 5.17586e-01 -1.24042e+00        00000 
-1.46607e+01  1.51450e+00        00000 
 1.85493e+00 -5.41814e+00        00000 
 5.58463e-01  7.56230e-01        00000 
-3.39153e+00  4.02785e-01        00000 
-6.71258e-01 -3.46062e+00        00000 
-3.27779e-02  9.82068e-01        00000 
-1.89834e+01 -7.70325e-01        00000 
-1.72509e+00 -6.35869e+00        00000 
-6.17065e-03 -1.04374e+00        00000 
-8.96776e+00  6.61777e-01        00000 
-1.23144e+00 -1.17471e+01        00000 
 1.07591e+00 -1.43785e+00        00000 
-1.31058e+01 -3.05791e-01        00000 
 2.12074e-01 -6.86467e+00        00000 
 2.80733e-01  1.51361e+00        00000 
-1.17783e+01  9.45398e-01        00000 
 9.40233e-01 -1.31683e+01        00000 
-2.63481e-01 -1.59805e+00        00000 
-7.05774e+00  1.34097e-02        00000 
 1.45232e+00 -1.08296e+01        00000 
 8.85361e-01  3.71546e-01        00000 
-7.25045e+00  2.34526e-01        00000 
-1.17031e+00 -1.41629e+01        00000 
 1.47787e+00  9.12454e-01        00000 
-1.84463e+01 -7.31612e-01        00000 
 1.21276e+00 -1.41476e+01        00000 
 1.11378e+00  3.06252e-01        00000 
-1.92834e+00  2.12575e-01        00000 
-5.94935e-02 -1.93562e+00        00000 
 8.14473e-02  3.85363e-01        00000 
-2.17197e+00  2.49521e-01        00000 
-2.10916e-01 -2.17237e+00        00000 
 4.56489e-02  5.46386e-01        00000 
-2.55586e+00  3.02004e-01        00000 
-3.51265e-01 -2.53682e+00        00000 
 1.91448e-02 -1.29551e+00        00000 
-1.83869e+01 -4.95877e-01        00000 
-1.43321e+00 -3.78594e+00        00000 
-1.23370e-01  1.84898e-01        00000 
-1.42036e+01 -3.93964e-01        00000 
 5.69564e-01 -8.20890e+00        00000 
 1.68362e-01  1.33429e+00        00000 
-3.69344e+00  4.31685e-01        00000 
 1.05630e+00 -1.32914e+01        00000 
-3.37031e-01 -1.42889e+00        00000 
-8.36471e+00  1.02581e-02        00000 
-8.98734e-03 -1.81790e+00        00000 
 9.28813e-02 -3.20992e-01        00000 
-1.21881e+01  1.12146e+00        00000 
-5.85447e-01 -3.92066e+00        00000 
 1.00914e-01 -1.28702e+00        00000 
-1.34102e+01 -3.25616e-01        00000 
-9.95053e-01 -1.35255e+01        00000 
 1.44309e+00  9.16184e-01        00000 
-1.78738e+01 -6.90127e-01        00000 
 1.17593e+00 -1.34444e+01        00000 
 1.03499e+00 -1.16179e+00        00000 
-1.78080e+01 -4.65696e-01        00000 
 7.49905e-01 -8.77892e+00        00000 
 8.35789e-02 -1.57102e-01        00000 
-4.70426e+00  2.34905e-01        00000 
-4.37684e-01 -4.40440e+00        00000 
 1.80616e-01 -1.33541e+00        00000 
-8.99107e+00 -5.43041e-02        00000 
 1.71517e-01 -1.38336e+00        00000 
 1.38369e-01  1.47691e+00        00000 
-7.18247e+00  4.81584e-01        00000 
-9.83006e-01 -1.29378e+01        00000 
 1.37978e+00  7.73125e-01        00000 
-9.12466e+00 -3.02713e-02        00000 
-5.58314e-01 -4.44693e+00        00000 
 1.10736e-01  9.17909e-01        00000 
-1.73703e+01 -6.53255e-01        00000 
 1.53507e+00 -4.53893e+00        00000 
 2.42133e-01 -1.16762e+00        00000 
-1.00183e+01  9.24663e-01        00000 
-9.23189e-01 -7.09788e+00        00000 
 4.81196e-01  8.38915e-01        00000 
-1.29072e+01 -3.60841e-01        00000 
-6.82803e-01 -4.69284e+00        00000 
 1.19755e-01 -8.70469e-01        00000 
-2.43811e+00 -1.33597e-01        00000 
 9.12343e-01 -2.47084e+00        00000 
 3.50312e-01  1.16630e+00        00000 
-1.26819e+01  9.18489e-01        00000 
-1.11404e+00 -1.71367e+01        00000 
-3.80155e-01  1.24947e+00        00000 
-9.96047e+00  7.84682e-01        00000 
 1.41398e+00 -4.99480e+00        00000 
 2.66541e-01 -7.37592e-01        00000 
-4.95207e+00  1.69646e-01        00000 
 6.36804e-01 -1.84079e+00        00000 
 2.54866e-01 -5.42408e-01        00000 
-1.86071e+00 -8.07985e-02        00000 
-1.34326e+00 -1.26366e+01        00000 
-2.14488e-01 -1.28694e+00        00000 
-5.50780e+00  1.20542e-01        00000 
 1.32826e+00 -7.30027e+00        00000 
 5.22581e-01  4.73556e-01        00000 
-5.49000e+00  2.51072e-01        00000 
-1.09286e+00 -7.36735e+00        00000 
 5.59484e-01 -3.07158e-01        00000 
-1.12936e+01  1.02638e+00        00000 
-8.90478e-01 -5.15873e+00        00000 
 2.36847e-01 -9.36946e-01        00000 
-1.21485e+01  1.31345e+00        00000 
-1.56292e+00 -2.99871e+00        00000 
-2.93439e-02 -1.94414e-01        00000 
-2.88749e+00  9.29361e-02        00000 
 7.98960e-01 -1.66290e+01        00000 
-6.25390e-01 -7.24715e-01        00000 
-2.94306e+00  7.72988e-02        00000 
 1.38786e+00 -5.23335e+00        00000 
 2.83752e-01  1.44412e+00        00000 
-3.35135e+00  1.99931e-01        00000 
 1.38952e+00 -2.79320e+00        00000 
 2.77089e-01  2.56153e-01        00000 
-8.14794e-01  1.43578e-01        00000 
-1.78067e-02 -8.31138e-01        00000 
 1.65261e-02  2.84100e-01        00000 
-1.02447e+00  1.54118e-01        00000 
-1.50132e-01 -1.02733e+00        00000 
-3.86235e-03 -1.24580e+00        00000 
-3.44112e+00  9.94566e-02        00000 
 4.31101e-01 -1.24976e+00        00000 
 2.03611e-01 -3.14298e-01        00000 
-1.28472e+00 -3.78185e-02        00000 
 1.07112e+00 -1.18954e+01        00000 
 7.76743e-01  2.18485e-01        00000 
-2.08131e+00  1.42217e-01        00000 
-8.92178e-01 -5.30213e+00        00000 
 2.63261e-01 -1.01259e+00        00000 
-1.63881e+01 -3.23009e-01        00000 
 2.34694e-01 -3.60456e+00        00000 
 2.92547e-01 -1.07229e+00        00000 
-9.65393e+00  9.15438e-01        00000 
 8.45630e-01 -1.20850e+01        00000 
-3.95866e-01 -1.23529e+00        00000 