<?xml version="1.0" encoding="utf-8"?>
<VTKFile byte_order="LittleEndian" type="UnstructuredGrid" version="0.1">
   <UnstructuredGrid>
      <Piece NumberOfCells="11800" NumberOfPoints="6560">
         <Points>
            <DataArray Name="Points" NumberOfComponents="3" format="ascii" type="Float32">
0.0000 0.0909 0.0000
0.0000 0.1818 0.0000
0.0000 0.2727 0.0000
0.0000 0.3636 0.0000
0.0000 0.4545 0.0000
0.0000 0.5455 0.0000
0.0000 0.6364 0.0000
0.0000 0.7273 0.0000
0.0000 0.8182 0.0000
0.0000 0.9091 0.0000
0.0000 1.0000 0.0000
0.0909 0.0909 0.0000
0.0909 0.1818 0.0000
0.0909 0.2727 0.0000
0.0909 0.3636 0.0000
0.0909 0.4545 0.0000
0.0909 0.5455 0.0000
0.0909 0.6364 0.0000
0.0909 0.7273 0.0000
0.0909 0.8182 0.0000
0.0909 0.9091 0.0000
0.0909 1.0000 0.0000
0.1818 0.0909 0.0000
0.1818 0.1818 0.0000
0.1818 0.2727 0.0000
0.1818 0.3636 0.0000
0.1818 0.4545 0.0000
0.1818 0.5455 0.0000
0.1818 0.6364 0.0000
0.1818 0.7273 0.0000
0.1818 0.8182 0.0000
0.1818 0.9091 0.0000
0.1818 1.0000 0.0000
0.2727 0.0909 0.0000
0.2727 0.1818 0.0000
0.2727 0.2727 0.0000
0.2727 0.3636 0.0000
0.2727 0.4545 0.0000
0.2727 0.6364 0.0000
0.2727 0.7273 0.0000
0.2727 0.8182 0.0000
0.2727 0.9091 0.0000
0.2727 1.0000 0.0000
0.3636 0.0909 0.0000
0.3636 0.1818 0.0000
0.3636 0.2727 0.0000
0.3636 0.8182 0.0000
0.3636 0.9091 0.0000
0.3636 1.0000 0.0000
0.4545 0.0909 0.0000
0.4545 0.1818 0.0000
0.4545 0.2727 0.0000
0.4545 0.8182 0.0000
0.4545 0.9091 0.0000
0.4545 1.0000 0.0000
0.5455 0.0909 0.0000
0.5455 0.1818 0.0000
0.5455 0.2727 0.0000
0.5455 0.8182 0.0000
0.5455 0.9091 0.0000
0.5455 1.0000 0.0000
0.6364 0.0909 0.0000
0.6364 0.1818 0.0000
0.6364 0.2727 0.0000
0.6364 0.8182 0.0000
0.6364 0.9091 0.0000
0.6364 1.0000 0.0000
0.7273 0.0909 0.0000
0.7273 0.1818 0.0000
0.7273 0.2727 0.0000
0.7273 0.3636 0.0000
0.7273 0.4545 0.0000
0.7273 0.5455 0.0000
0.7273 0.6364 0.0000
0.7273 0.7273 0.0000
0.7273 0.8182 0.0000
0.7273 0.9091 0.0000
0.7273 1.0000 0.0000
0.8182 0.0909 0.0000
0.8182 0.1818 0.0000
0.8182 0.2727 0.0000
0.8182 0.3636 0.0000
0.8182 0.4545 0.0000
0.8182 0.5455 0.0000
0.8182 0.6364 0.0000
0.8182 0.7273 0.0000
0.8182 0.8182 0.0000
0.8182 0.9091 0.0000
0.8182 1.0000 0.0000
0.9091 0.0909 0.0000
0.9091 0.1818 0.0000
0.9091 0.2727 0.0000
0.9091 0.3636 0.0000
0.9091 0.4545 0.0000
0.9091 0.5455 0.0000
0.9091 0.6364 0.0000
0.9091 0.7273 0.0000
0.9091 0.8182 0.0000
0.9091 0.9091 0.0000
0.9091 1.0000 0.0000
0.2727 0.5455 0.0000
0.3636 0.7273 0.0000
0.4545 0.7273 0.0000
0.6364 0.7273 0.0000
1.0000 0.0909 0.0000
1.0000 0.1818 0.0000
1.0000 0.2727 0.0000
1.0000 0.3636 0.0000
1.0000 0.4545 0.0000
1.0000 0.5455 0.0000
1.0000 0.6364 0.0000
1.0000 0.7273 0.0000
1.0000 0.8182 0.0000
1.0000 0.9091 0.0000
1.0000 1.0000 0.0000
0.0909 0.0000 0.0000
0.1818 0.0000 0.0000
0.2727 0.0000 0.0000
0.3636 0.0000 0.0000
0.4545 0.0000 0.0000
0.5455 0.0000 0.0000
0.5455 0.7273 0.0000
0.6364 0.0000 0.0000
0.7273 0.0000 0.0000
0.8182 0.0000 0.0000
0.9091 0.0000 0.0000
1.0000 0.0000 0.0000
0.0000 0.0000 0.0000
0.0455 0.0455 0.0000
0.0455 0.1364 0.0000
0.0455 0.2273 0.0000
0.0455 0.3182 0.0000
0.0455 0.4091 0.0000
0.0455 0.5000 0.0000
0.0455 0.5909 0.0000
0.0455 0.6818 0.0000
0.0455 0.7727 0.0000
0.0455 0.8636 0.0000
0.0455 0.9545 0.0000
0.1364 0.0455 0.0000
0.1364 0.1364 0.0000
0.1364 0.2273 0.0000
0.1364 0.3182 0.0000
0.1364 0.4091 0.0000
0.1364 0.5000 0.0000
0.1364 0.5909 0.0000
0.1364 0.6818 0.0000
0.1364 0.7727 0.0000
0.1364 0.8636 0.0000
0.1364 0.9545 0.0000
0.2273 0.0455 0.0000
0.2273 0.1364 0.0000
0.2273 0.2273 0.0000
0.2273 0.3182 0.0000
0.2273 0.4091 0.0000
0.2273 0.5000 0.0000
0.2273 0.5909 0.0000
0.2273 0.6818 0.0000
0.2273 0.7727 0.0000
0.2273 0.8636 0.0000
0.2273 0.9545 0.0000
0.3182 0.0455 0.0000
0.3182 0.1364 0.0000
0.3182 0.2273 0.0000
0.3182 0.3182 0.0000
0.3182 0.4091 0.0000
0.3182 0.5909 0.0000
0.3182 0.6818 0.0000
0.3182 0.7727 0.0000
0.3182 0.8636 0.0000
0.3182 0.9545 0.0000
0.4091 0.0455 0.0000
0.4091 0.1364 0.0000
0.4091 0.2273 0.0000
0.4091 0.7727 0.0000
0.4091 0.8636 0.0000
0.4091 0.9545 0.0000
0.5000 0.0455 0.0000
0.5000 0.1364 0.0000
0.5000 0.2273 0.0000
0.5000 0.7727 0.0000
0.5000 0.8636 0.0000
0.5000 0.9545 0.0000
0.5909 0.0455 0.0000
0.5909 0.1364 0.0000
0.5909 0.2273 0.0000
0.5909 0.7727 0.0000
0.5909 0.8636 0.0000
0.5909 0.9545 0.0000
0.6818 0.0455 0.0000
0.6818 0.1364 0.0000
0.6818 0.2273 0.0000
0.6818 0.7727 0.0000
0.6818 0.8636 0.0000
0.6818 0.9545 0.0000
0.7727 0.0455 0.0000
0.7727 0.1364 0.0000
0.7727 0.2273 0.0000
0.7727 0.3182 0.0000
0.7727 0.4091 0.0000
0.7727 0.5000 0.0000
0.7727 0.5909 0.0000
0.7727 0.6818 0.0000
0.7727 0.7727 0.0000
0.7727 0.8636 0.0000
0.7727 0.9545 0.0000
0.8636 0.0455 0.0000
0.8636 0.1364 0.0000
0.8636 0.2273 0.0000
0.8636 0.3182 0.0000
0.8636 0.4091 0.0000
0.8636 0.5000 0.0000
0.8636 0.5909 0.0000
0.8636 0.6818 0.0000
0.8636 0.7727 0.0000
0.8636 0.8636 0.0000
0.8636 0.9545 0.0000
0.9545 0.0455 0.0000
0.9545 0.1364 0.0000
0.9545 0.2273 0.0000
0.9545 0.3182 0.0000
0.9545 0.4091 0.0000
0.9545 0.5000 0.0000
0.9545 0.5909 0.0000
0.9545 0.6818 0.0000
0.9545 0.7727 0.0000
0.9545 0.8636 0.0000
0.9545 0.9545 0.0000
0.4091 0.6818 0.0000
0.5909 0.6818 0.0000
0.6818 0.6818 0.0000
0.6818 0.3182 0.0000
0.6818 0.4091 0.0000
0.6818 0.5909 0.0000
0.4091 0.3182 0.0000
0.5909 0.3182 0.0000
0.3514 0.3636 0.0000
0.3059 0.4545 0.0000
0.3004 0.4822 0.0000
0.3059 0.5455 0.0000
0.3004 0.5178 0.0000
0.3514 0.6364 0.0000
0.3636 0.3514 0.0000
0.3568 0.3568 0.0000
0.3227 0.4045 0.0000
0.4045 0.3227 0.0000
0.3192 0.4101 0.0000
0.3192 0.5899 0.0000
0.3636 0.6486 0.0000
0.3227 0.5955 0.0000
0.3568 0.6432 0.0000
0.4045 0.6773 0.0000
0.4545 0.3059 0.0000
0.4822 0.3004 0.0000
0.4101 0.3192 0.0000
0.4545 0.6941 0.0000
0.4101 0.6808 0.0000
0.4822 0.6996 0.0000
0.5455 0.3059 0.0000
0.5178 0.3004 0.0000
0.5899 0.3192 0.0000
0.5455 0.6941 0.0000
0.5899 0.6808 0.0000
0.5178 0.6996 0.0000
0.6364 0.3514 0.0000
0.6486 0.3636 0.0000
0.5955 0.3227 0.0000
0.6432 0.3568 0.0000
0.6773 0.4045 0.0000
0.6941 0.4545 0.0000
0.6808 0.4101 0.0000
0.6941 0.5455 0.0000
0.6808 0.5899 0.0000
0.6364 0.6486 0.0000
0.6486 0.6364 0.0000
0.5955 0.6773 0.0000
0.6773 0.5955 0.0000
0.6432 0.6432 0.0000
0.6996 0.4822 0.0000
0.6996 0.5178 0.0000
1.0000 1.0000 0.0000
1.0909 0.0909 0.0000
1.0909 0.1818 0.0000
1.0909 0.2727 0.0000
1.0909 0.3636 0.0000
1.0909 0.4545 0.0000
1.0909 0.5455 0.0000
1.0909 0.6364 0.0000
1.0909 0.7273 0.0000
1.0909 0.8182 0.0000
1.0909 0.9091 0.0000
1.0909 1.0000 0.0000
1.1818 0.0909 0.0000
1.1818 0.1818 0.0000
1.1818 0.2727 0.0000
1.1818 0.3636 0.0000
1.1818 0.4545 0.0000
1.1818 0.5455 0.0000
1.1818 0.6364 0.0000
1.1818 0.7273 0.0000
1.1818 0.8182 0.0000
1.1818 0.9091 0.0000
1.1818 1.0000 0.0000
1.2727 0.0909 0.0000
1.2727 0.1818 0.0000
1.2727 0.2727 0.0000
1.2727 0.3636 0.0000
1.2727 0.4545 0.0000
1.2727 0.6364 0.0000
1.2727 0.7273 0.0000
1.2727 0.8182 0.0000
1.2727 0.9091 0.0000
1.2727 1.0000 0.0000
1.3636 0.0909 0.0000
1.3636 0.1818 0.0000
1.3636 0.2727 0.0000
1.3636 0.8182 0.0000
1.3636 0.9091 0.0000
1.3636 1.0000 0.0000
1.4545 0.0909 0.0000
1.4545 0.1818 0.0000
1.4545 0.2727 0.0000
1.4545 0.8182 0.0000
1.4545 0.9091 0.0000
1.4545 1.0000 0.0000
1.5455 0.0909 0.0000
1.5455 0.1818 0.0000
1.5455 0.2727 0.0000
1.5455 0.8182 0.0000
1.5455 0.9091 0.0000
1.5455 1.0000 0.0000
1.6364 0.0909 0.0000
1.6364 0.1818 0.0000
1.6364 0.2727 0.0000
1.6364 0.8182 0.0000
1.6364 0.9091 0.0000
1.6364 1.0000 0.0000
1.7273 0.0909 0.0000
1.7273 0.1818 0.0000
1.7273 0.2727 0.0000
1.7273 0.3636 0.0000
1.7273 0.4545 0.0000
1.7273 0.5455 0.0000
1.7273 0.6364 0.0000
1.7273 0.7273 0.0000
1.7273 0.8182 0.0000
1.7273 0.9091 0.0000
1.7273 1.0000 0.0000
1.8182 0.0909 0.0000
1.8182 0.1818 0.0000
1.8182 0.2727 0.0000
1.8182 0.3636 0.0000
1.8182 0.4545 0.0000
1.8182 0.5455 0.0000
1.8182 0.6364 0.0000
1.8182 0.7273 0.0000
1.8182 0.8182 0.0000
1.8182 0.9091 0.0000
1.8182 1.0000 0.0000
1.9091 0.0909 0.0000
1.9091 0.1818 0.0000
1.9091 0.2727 0.0000
1.9091 0.3636 0.0000
1.9091 0.4545 0.0000
1.9091 0.5455 0.0000
1.9091 0.6364 0.0000
1.9091 0.7273 0.0000
1.9091 0.8182 0.0000
1.9091 0.9091 0.0000
1.9091 1.0000 0.0000
1.2727 0.5455 0.0000
1.3636 0.7273 0.0000
1.4545 0.7273 0.0000
1.6364 0.7273 0.0000
2.0000 0.0909 0.0000
2.0000 0.1818 0.0000
2.0000 0.2727 0.0000
2.0000 0.3636 0.0000
2.0000 0.4545 0.0000
2.0000 0.5455 0.0000
2.0000 0.6364 0.0000
2.0000 0.7273 0.0000
2.0000 0.8182 0.0000
2.0000 0.9091 0.0000
2.0000 1.0000 0.0000
1.0909 0.0000 0.0000
1.1818 0.0000 0.0000
1.2727 0.0000 0.0000
1.3636 0.0000 0.0000
1.4545 0.0000 0.0000
1.5455 0.0000 0.0000
1.5455 0.7273 0.0000
1.6364 0.0000 0.0000
1.7273 0.0000 0.0000
1.8182 0.0000 0.0000
1.9091 0.0000 0.0000
2.0000 0.0000 0.0000
1.0000 0.0000 0.0000
1.0455 0.0455 0.0000
1.0455 0.1364 0.0000
1.0455 0.2273 0.0000
1.0455 0.3182 0.0000
1.0455 0.4091 0.0000
1.0455 0.5000 0.0000
1.0455 0.5909 0.0000
1.0455 0.6818 0.0000
1.0455 0.7727 0.0000
1.0455 0.8636 0.0000
1.0455 0.9545 0.0000
1.1364 0.0455 0.0000
1.1364 0.1364 0.0000
1.1364 0.2273 0.0000
1.1364 0.3182 0.0000
1.1364 0.4091 0.0000
1.1364 0.5000 0.0000
1.1364 0.5909 0.0000
1.1364 0.6818 0.0000
1.1364 0.7727 0.0000
1.1364 0.8636 0.0000
1.1364 0.9545 0.0000
1.2273 0.0455 0.0000
1.2273 0.1364 0.0000
1.2273 0.2273 0.0000
1.2273 0.3182 0.0000
1.2273 0.4091 0.0000
1.2273 0.5000 0.0000
1.2273 0.5909 0.0000
1.2273 0.6818 0.0000
1.2273 0.7727 0.0000
1.2273 0.8636 0.0000
1.2273 0.9545 0.0000
1.3182 0.0455 0.0000
1.3182 0.1364 0.0000
1.3182 0.2273 0.0000
1.3182 0.3182 0.0000
1.3182 0.4091 0.0000
1.3182 0.5909 0.0000
1.3182 0.6818 0.0000
1.3182 0.7727 0.0000
1.3182 0.8636 0.0000
1.3182 0.9545 0.0000
1.4091 0.0455 0.0000
1.4091 0.1364 0.0000
1.4091 0.2273 0.0000
1.4091 0.7727 0.0000
1.4091 0.8636 0.0000
1.4091 0.9545 0.0000
1.5000 0.0455 0.0000
1.5000 0.1364 0.0000
1.5000 0.2273 0.0000
1.5000 0.7727 0.0000
1.5000 0.8636 0.0000
1.5000 0.9545 0.0000
1.5909 0.0455 0.0000
1.5909 0.1364 0.0000
1.5909 0.2273 0.0000
1.5909 0.7727 0.0000
1.5909 0.8636 0.0000
1.5909 0.9545 0.0000
1.6818 0.0455 0.0000
1.6818 0.1364 0.0000
[...]
         <PointData>
            <DataArray Name="fValues" NumberOfComponents="3" format="ascii" type="Float64">
 9.81818e-01  6.16810e-21        00000 
 9.63636e-01 -4.87972e-19        00000 
 9.45455e-01 -5.93192e-20        00000 
 9.27273e-01  2.92783e-19        00000 
 9.09091e-01 -1.52662e-18        00000 
 8.90909e-01  8.29552e-19        00000 
 8.72727e-01 -4.92247e-19        00000 
 8.54545e-01  2.92783e-19        00000 
 8.36364e-01  3.67860e-20        00000 
 8.18182e-01  1.85429e-18        00000 
 7.79028e-01 -2.70684e-03        00000 
 9.67320e-01  4.43478e-03        00000 
 9.51887e-01  7.43797e-03        00000 
 9.36926e-01  8.94225e-03        00000 
 9.21571e-01  8.42186e-03        00000 
 9.04158e-01  6.26359e-03        00000 
 8.83960e-01  4.13732e-03        00000 
 8.62333e-01  3.60396e-03        00000 
 8.41347e-01  4.85839e-03        00000 
 8.21764e-01  7.05920e-03        00000 
 8.01042e-01  1.00748e-02        00000 
 7.78703e-01  1.01820e-02        00000 
 9.50617e-01  6.32745e-03        00000 
 9.38244e-01  1.19540e-02        00000 
 9.27583e-01  1.57891e-02        00000 
 9.16983e-01  1.65633e-02        00000 
 9.01578e-01  1.40853e-02        00000 
 8.78337e-01  1.08508e-02        00000 
 8.51295e-01  1.01700e-02        00000 
 8.26739e-01  1.19316e-02        00000 
 8.05800e-01  1.48050e-02        00000 
 7.86720e-01  1.72231e-02        00000 
 7.69353e-01  1.84629e-02        00000 
 9.32544e-01  6.79311e-03        00000 
 9.22246e-01  1.38856e-02        00000 
 9.16174e-01  2.04088e-02        00000 
 9.12847e-01  2.43569e-02        00000 
 9.01688e-01  2.49810e-02        00000 
 8.39575e-01  1.98317e-02        00000 
 8.10682e-01  2.02937e-02        00000 
 7.89855e-01  2.19546e-02        00000 
 7.72664e-01  2.32001e-02        00000 
 7.57184e-01  2.42148e-02        00000 
 9.13768e-01  5.53792e-03        00000 
 9.04015e-01  1.19837e-02        00000 
 9.01475e-01  1.93551e-02        00000 
 7.74121e-01  2.70889e-02        00000 
 7.58927e-01  2.66306e-02        00000 
 7.44456e-01  2.66464e-02        00000 
 8.95433e-01  3.03180e-03        00000 
 8.84742e-01  6.13603e-03        00000 
 8.82234e-01  1.09947e-02        00000 
 7.58634e-01  2.70152e-02        00000 
 7.45648e-01  2.62194e-02        00000 
 7.31859e-01  2.57574e-02        00000 
 8.78149e-01  9.52757e-04        00000 
 8.66624e-01  9.33660e-04        00000 
 8.55687e-01  2.17930e-03        00000 
 7.42946e-01  2.10811e-02        00000 
 7.32192e-01  2.25881e-02        00000 
 7.19387e-01  2.29533e-02        00000 
 8.61530e-01  6.94372e-04        00000 
 8.49195e-01  4.71184e-04        00000 
 8.32505e-01  2.95792e-05        00000 
 7.26448e-01  1.44236e-02        00000 
 7.18150e-01  1.86585e-02        00000 
 7.06686e-01  2.06235e-02        00000 
 8.44693e-01  2.05574e-03        00000 
 8.32035e-01  3.64134e-03        00000 
 8.14288e-01  5.11660e-03        00000 
 7.87212e-01  5.22310e-03        00000 
 7.52694e-01  1.88190e-03        00000 
 7.26185e-01  3.92776e-04        00000 
 7.16022e-01  1.76274e-03        00000 
 7.14349e-01  6.21355e-03        00000 
 7.10884e-01  1.22987e-02        00000 
 7.03833e-01  1.74254e-02        00000 
 6.93725e-01  2.06149e-02        00000 
 8.27388e-01  3.91205e-03        00000 
 8.15075e-01  7.47084e-03        00000 
 7.98224e-01  1.06133e-02        00000 
 7.75578e-01  1.25407e-02        00000 
 7.49054e-01  1.21540e-02        00000 
 7.25932e-01  9.50081e-03        00000 
 7.11410e-01  7.95835e-03        00000 
 7.03061e-01  9.86718e-03        00000 
 6.96590e-01  1.46990e-02        00000 
 6.89972e-01  1.97595e-02        00000 
 6.81154e-01  2.33459e-02        00000 
 8.09845e-01  5.57331e-03        00000 
 7.98536e-01  1.06257e-02        00000 
 7.83669e-01  1.46506e-02        00000 
 7.64824e-01  1.68934e-02        00000 
 7.43361e-01  1.67778e-02        00000 
 7.22688e-01  1.50806e-02        00000 
 7.05724e-01  1.38316e-02        00000 
 6.92744e-01  1.48403e-02        00000 
 6.82295e-01  1.85513e-02        00000 
 6.76083e-01  2.51738e-02        00000 
 6.71237e-01  2.80525e-02        00000 
 8.74880e-01  2.30575e-02        00000 
 7.92812e-01  2.74819e-02        00000 
 7.70549e-01  2.62494e-02        00000 
 7.27942e-01  8.03955e-03        00000 
 7.92216e-01  6.92281e-03        00000 
 7.82422e-01  1.31882e-02        00000 
 7.70266e-01  1.79228e-02        00000 
 7.55123e-01  2.03281e-02        00000 
 7.37021e-01  2.03801e-02        00000 
 7.17382e-01  1.92370e-02        00000 
 6.98518e-01  1.86927e-02        00000 
 6.82140e-01  1.98921e-02        00000 
 6.68543e-01  2.26005e-02        00000 
 6.57017e-01  2.62408e-02        00000 
 6.69619e-01  3.55836e-02        00000 
 9.81818e-01  3.78949e-19        00000 
 9.63636e-01 -1.21346e-18        00000 
 9.45455e-01  2.24301e-19        00000 
 9.27273e-01 -1.09074e-18        00000 
 9.09091e-01  8.06885e-19        00000 
 8.90909e-01  1.46546e-19        00000 
 7.45585e-01  1.69958e-02        00000 
 8.72727e-01  3.83296e-20        00000 
 8.54545e-01 -2.68235e-21        00000 
 8.36364e-01  1.10078e-19        00000 
 8.18182e-01 -5.68424e-19        00000 
 8.00000e-01  1.03284e-18        00000 
 1.00000e+00  3.28258e-20        00000 
 9.83293e-01  1.56916e-03        00000 
 9.66541e-01  3.31181e-03        00000 
 9.49664e-01  4.49757e-03        00000 
 9.32741e-01  4.69446e-03        00000 
 9.15254e-01  3.76747e-03        00000 
 8.96764e-01  2.34823e-03        00000 
 8.77416e-01  1.50468e-03        00000 
 8.57895e-01  1.76497e-03        00000 
 8.38780e-01  2.80425e-03        00000 
 8.19715e-01  3.96606e-03        00000 
 7.94591e-01  6.48922e-03        00000 
 9.66085e-01  2.87544e-03        00000 
 9.52345e-01  7.92095e-03        00000 
 9.38951e-01  1.15685e-02        00000 
 9.25928e-01  1.30234e-02        00000 
 9.11033e-01  1.15845e-02        00000 
 8.91870e-01  8.45385e-03        00000 
 8.68963e-01  6.51359e-03        00000 
 8.45492e-01  7.19486e-03        00000 
 8.23996e-01  9.49399e-03        00000 
 8.03757e-01  1.24957e-02        00000 
 7.84096e-01  1.46073e-02        00000 
 9.48121e-01  3.29374e-03        00000 
 9.36096e-01  9.99947e-03        00000 
 9.26398e-01  1.60830e-02        00000 
 9.18794e-01  2.01885e-02        00000 
 9.08662e-01  2.05274e-02        00000 
 8.89285e-01  1.77978e-02        00000 
 8.60704e-01  1.49447e-02        00000 
 8.31910e-01  1.50146e-02        00000 
 8.08117e-01  1.72603e-02        00000 
 7.88613e-01  1.95318e-02        00000 
 7.71452e-01  2.10111e-02        00000 
 9.29603e-01  3.00842e-03        00000 
 9.18062e-01  9.61830e-03        00000 
 9.11084e-01  1.68497e-02        00000 
 9.10087e-01  2.36608e-02        00000 
 9.07712e-01  2.76729e-02        00000 
 8.54481e-01  2.93685e-02        00000 
 8.16914e-01  2.39970e-02        00000 
 7.91611e-01  2.44719e-02        00000 
 7.73679e-01  2.49682e-02        00000 
 7.58183e-01  2.52990e-02        00000 
 9.11078e-01  2.12336e-03        00000 
 8.99072e-01  6.55501e-03        00000 
 8.92803e-01  1.21215e-02        00000 
 7.74174e-01  2.78058e-02        00000 
 7.59291e-01  2.70145e-02        00000 
 7.45163e-01  2.63988e-02        00000 
 8.93136e-01  1.10828e-03        00000 
 8.80847e-01  2.65939e-03        00000 
 8.71870e-01  4.00726e-03        00000 
 7.54844e-01  2.39949e-02        00000 
 7.45143e-01  2.45050e-02        00000 
 7.32375e-01  2.45025e-02        00000 
 8.75797e-01  6.07231e-04        00000 
 8.63849e-01  6.61643e-04        00000 
 8.50792e-01  1.84312e-04        00000 
 7.36018e-01  1.52782e-02        00000 
 7.30275e-01  1.94948e-02        00000 
 7.19304e-01  2.13736e-02        00000 
 8.58544e-01  8.55618e-04        00000 
 8.47089e-01  1.67527e-03        00000 
 8.32245e-01  2.18256e-03        00000 
 7.19868e-01  9.99743e-03        00000 
 7.14940e-01  1.58575e-02        00000 
 7.05752e-01  1.95000e-02        00000 
 8.40980e-01  1.60156e-03        00000 
 8.30045e-01  4.31318e-03        00000 
 8.15114e-01  6.82246e-03        00000 
 7.94053e-01  8.92726e-03        00000 
 7.66504e-01  8.94898e-03        00000 
 7.38321e-01  6.40581e-03        00000 
 7.19523e-01  4.35877e-03        00000 
 7.10893e-01  5.61595e-03        00000 
 7.06064e-01  1.03940e-02        00000 
 7.00312e-01  1.60997e-02        00000 
 6.92221e-01  2.04476e-02        00000 
 8.23152e-01  2.45118e-03        00000 
 8.12898e-01  7.02100e-03        00000 
 7.98986e-01  1.10880e-02        00000 
 7.80613e-01  1.41496e-02        00000 
 7.58238e-01  1.52242e-02        00000 
 7.35378e-01  1.36844e-02        00000 
 7.16475e-01  1.12875e-02        00000 
 7.03122e-01  1.10456e-02        00000 
 6.93532e-01  1.39921e-02        00000 
 6.86430e-01  1.95967e-02        00000 
 6.79523e-01  2.45795e-02        00000 
 8.05229e-01  3.19306e-03        00000 
 7.95906e-01  9.26687e-03        00000 
 7.83812e-01  1.44359e-02        00000 
 7.68491e-01  1.79114e-02        00000 
 7.50103e-01  1.90149e-02        00000 
 7.30182e-01  1.79982e-02        00000 
 7.11166e-01  1.64729e-02        00000 
 6.94805e-01  1.63894e-02        00000 
 6.81305e-01  1.85776e-02        00000 
 6.70612e-01  2.24773e-02        00000 
 6.69297e-01  3.09438e-02        00000 
 7.96430e-01  2.69393e-02        00000 
 7.29734e-01  9.44540e-03        00000 
 7.19430e-01  3.40282e-03        00000 
 8.09027e-01  2.34458e-03        00000 
 7.72785e-01 -3.52007e-03        00000 
 7.20735e-01 -1.15840e-03        00000 
 8.98965e-01  1.84878e-02        00000 
 8.29742e-01  1.17586e-03        00000 
 9.09290e-01  2.51544e-02        00000 
 9.00649e-01  2.94161e-02        00000 
 8.93938e-01  3.04404e-02        00000 
 8.74537e-01  3.08352e-02        00000 
 8.83125e-01  3.03289e-02        00000 
 8.29821e-01  2.96140e-02        00000 
 9.07912e-01  2.36158e-02        00000 
 9.08692e-01  2.43466e-02        00000 
 9.08064e-01  2.74607e-02        00000 
 9.00450e-01  1.92266e-02        00000 
 9.07534e-01  2.78354e-02        00000 
 8.54979e-01  2.98301e-02        00000 
 8.21452e-01  2.93041e-02        00000 
 8.52370e-01  2.94721e-02        00000 
 8.25732e-01  2.92094e-02        00000 
 7.99888e-01  2.68178e-02        00000 
 8.86624e-01  1.37625e-02        00000 
 8.76400e-01  1.02847e-02        00000 
 8.99034e-01  1.84406e-02        00000 
 7.76137e-01  2.28271e-02        00000 
 7.96298e-01  2.67333e-02        00000 
 7.63529e-01  2.17867e-02        00000 
 8.50372e-01  5.74461e-03        00000 
 8.63172e-01  7.40416e-03        00000 
 8.29887e-01  1.39522e-03        00000 
 7.41329e-01  1.43200e-02        00000 
 7.29660e-01  9.50063e-03        00000 
 7.50815e-01  1.72500e-02        00000 
 8.05078e-01 -2.05815e-03        00000 
 7.96900e-01 -2.72190e-03        00000 
 8.26308e-01  1.24653e-03        00000 
 8.00878e-01 -2.14723e-03        00000 
 7.74854e-01 -3.49674e-03        00000 
 7.53017e-01 -5.38599e-03        00000 
 7.72292e-01 -3.97465e-03        00000 
 7.27359e-01 -3.57733e-03        00000 
 7.20906e-01 -1.31224e-03        00000 
 7.21073e-01  3.89981e-03        00000 
 7.19623e-01  2.18595e-03        00000 
 7.28308e-01  8.68831e-03        00000 
 7.20442e-01 -8.25876e-04        00000 
 7.20278e-01  3.08504e-03        00000 
 7.44439e-01 -4.90021e-03        00000 
 7.34024e-01 -4.96750e-03        00000 
 6.22619e-01  3.16770e-02        00000 
 7.74345e-01  7.98599e-03        00000 
 7.66317e-01  1.54762e-02        00000 
 7.57506e-01  2.12485e-02        00000 
 7.46471e-01  2.41469e-02        00000 
 7.31188e-01  2.41870e-02        00000 
 7.11372e-01  2.31979e-02        00000 
 6.89835e-01  2.33693e-02        00000 
 6.70257e-01  2.56335e-02        00000 
 6.54102e-01  2.97100e-02        00000 
 6.37838e-01  3.59750e-02        00000 
 6.20902e-01  3.93326e-02        00000 
 7.55904e-01  8.55315e-03        00000 
 7.49487e-01  1.72025e-02        00000 
 7.44558e-01  2.46083e-02        00000 
 7.38990e-01  2.88948e-02        00000 
 7.27302e-01  2.92593e-02        00000 
 7.05826e-01  2.80150e-02        00000 
 6.79567e-01  2.89378e-02        00000 
 6.56421e-01  3.21598e-02        00000 
 6.38159e-01  3.66894e-02        00000 
 6.22989e-01  4.10143e-02        00000 
 6.10725e-01  4.44045e-02        00000 
 7.36777e-01  8.07604e-03        00000 
 7.31231e-01  1.70272e-02        00000 
 7.30109e-01  2.60845e-02        00000 
 7.32286e-01  3.30423e-02        00000 
 7.26353e-01  3.67515e-02        00000 
 6.67919e-01  3.75244e-02        00000 
 6.40598e-01  3.96490e-02        00000 
 6.22308e-01  4.26612e-02        00000 
 6.08738e-01  4.52226e-02        00000 
 5.97829e-01  4.76614e-02        00000 
 7.17475e-01  6.09698e-03        00000 
 7.11606e-01  1.32645e-02        00000 
 7.13048e-01  2.15837e-02        00000 
 6.06622e-01  4.68611e-02        00000 
 5.94891e-01  4.71979e-02        00000 
 5.84597e-01  4.80581e-02        00000 
 6.99013e-01  3.29485e-03        00000 
 6.91725e-01  6.54832e-03        00000 
 6.92080e-01  1.14080e-02        00000 
 5.91190e-01  4.60645e-02        00000 
 5.81599e-01  4.55533e-02        00000 
 5.71720e-01  4.54834e-02        00000 
 6.81668e-01  1.44663e-03        00000 
 6.73278e-01  1.98400e-03        00000 
 6.64223e-01  3.84408e-03        00000 
 5.75608e-01  3.91335e-02        00000 
 5.68187e-01  4.06454e-02        00000 
 5.59085e-01  4.12162e-02        00000 
 6.64792e-01  1.64303e-03        00000 
 6.55239e-01  2.69995e-03        00000 
 6.40535e-01  3.85807e-03        00000 
 5.59081e-01  3.07616e-02        00000 
 5.54104e-01  3.51414e-02        00000 
 5.46167e-01  3.74237e-02        00000 
 6.47506e-01  3.29209e-03        00000 
 6.37359e-01  6.45439e-03        00000 
 6.21796e-01  9.76024e-03        00000 
 5.97023e-01  1.18209e-02        00000 
 5.66375e-01  1.07390e-02        00000 
 5.45295e-01  1.15385e-02        00000 
 5.40500e-01  1.42541e-02        00000 
 5.43102e-01  1.96234e-02        00000 
 5.43199e-01  2.63448e-02        00000 
 5.39536e-01  3.19912e-02        00000 
 5.32835e-01  3.57598e-02        00000 
 6.29746e-01  5.15288e-03        00000 
 6.19785e-01  1.01888e-02        00000 
 6.05330e-01  1.48807e-02        00000 
 5.85493e-01  1.82449e-02        00000 
 5.62798e-01  1.91236e-02        00000 
 5.44557e-01  1.77140e-02        00000 
 5.35046e-01  1.74992e-02        00000 
 5.31063e-01  2.05718e-02        00000 
 5.28360e-01  2.63449e-02        00000 
 5.25216e-01  3.22197e-02        00000 
 5.19758e-01  3.65941e-02        00000 
 6.11849e-01  6.62841e-03        00000 
 6.02802e-01  1.28847e-02        00000 
 5.90512e-01  1.81238e-02        00000 
 5.74796e-01  2.14660e-02        00000 
 5.57237e-01  2.23187e-02        00000 
 5.41110e-01  2.15665e-02        00000 
 5.28815e-01  2.13074e-02        00000 
 5.20136e-01  2.33131e-02        00000 
 5.13488e-01  2.79576e-02        00000 
 5.10744e-01  3.54740e-02        00000 
 5.09327e-01  3.92647e-02        00000 
 7.02001e-01  3.82710e-02        00000 
 6.22830e-01  4.64319e-02        00000 
 6.00723e-01  4.50909e-02        00000 
 5.57338e-01  2.43134e-02        00000 
 5.93975e-01  7.69981e-03        00000 
 5.86364e-01  1.48506e-02        00000 
 5.76868e-01  2.05147e-02        00000 
 5.65020e-01  2.38237e-02        00000 
 5.50914e-01  2.47071e-02        00000 
 5.35754e-01  2.43268e-02        00000 
 5.21403e-01  2.45261e-02        00000 
 5.09190e-01  2.64954e-02        00000 
 4.99290e-01  3.00107e-02        00000 
 4.91079e-01  3.44901e-02        00000 
 5.07386e-01  4.43249e-02        00000 
 7.81818e-01  5.68424e-19        00000 
 7.63636e-01  8.82888e-19        00000 
 7.45455e-01 -1.95189e-19        00000 
 7.27273e-01  1.33900e-18        00000 
 7.09091e-01 -5.86773e-19        00000 
 6.90909e-01  1.69046e-20        00000 
 5.75485e-01  3.51741e-02        00000 
 6.72727e-01  5.97890e-20        00000 
 6.54545e-01  4.21512e-21        00000 
 6.36364e-01  7.21620e-19        00000 
 6.18182e-01 -1.32632e-18        00000 
 6.00000e-01        00000        00000 
 8.00000e-01  5.16421e-19        00000 
 7.87228e-01  3.76611e-03        00000 
 7.78978e-01  1.11141e-02        00000 
 7.69258e-01  1.73770e-02        00000 
 7.57403e-01  2.14250e-02        00000 
 7.42449e-01  2.26130e-02        00000 
 7.24260e-01  2.17282e-02        00000 
 7.04366e-01  2.07901e-02        00000 
 6.85320e-01  2.14969e-02        00000 
 6.68931e-01  2.41394e-02        00000 
 6.54703e-01  2.80393e-02        00000 
 6.34334e-01  3.54891e-02        00000 
 7.68997e-01  4.10237e-03        00000 
 7.61658e-01  1.25058e-02        00000 
 7.54671e-01  2.01191e-02        00000 
 7.47055e-01  2.54081e-02        00000 
 7.36028e-01  2.70713e-02        00000 
 7.18890e-01  2.59572e-02        00000 
 6.96744e-01  2.52899e-02        00000 
 6.74140e-01  2.70791e-02        00000 
 6.54791e-01  3.07848e-02        00000 
 6.38030e-01  3.59840e-02        00000 
 6.23117e-01  4.07655e-02        00000 
 7.50383e-01  4.03916e-03        00000 
 7.43388e-01  1.28236e-02        00000 
 7.39053e-01  2.17064e-02        00000 
 7.36820e-01  2.91256e-02        00000 
 7.31651e-01  3.27063e-02        00000 
 7.15716e-01  3.27149e-02        00000 
 6.88620e-01  3.22090e-02        00000 
 6.60989e-01  3.40460e-02        00000 
 6.39182e-01  3.77863e-02        00000 
 6.22828e-01  4.15969e-02        00000 
 6.09951e-01  4.47451e-02        00000 
 7.31497e-01  3.40322e-03        00000 
 7.24049e-01  1.10758e-02        00000 
 7.21406e-01  1.98105e-02        00000 
 7.25407e-01  2.86396e-02        00000 
 7.29162e-01  3.48369e-02        00000 
 6.82015e-01  4.61246e-02        00000 
 6.45988e-01  4.25129e-02        00000 
 6.22767e-01  4.41610e-02        00000 
 6.07862e-01  4.57155e-02        00000 
 5.96317e-01  4.71119e-02        00000 
 7.12863e-01  2.31296e-03        00000 
 7.04465e-01  7.12375e-03        00000 
 7.01682e-01  1.30653e-02        00000 
 6.05409e-01  4.69464e-02        00000 
 5.93470e-01  4.66868e-02        00000 
 5.83086e-01  4.66251e-02        00000 
 6.94939e-01  1.29000e-03        00000 
 6.86082e-01  3.18064e-03        00000 
 6.79951e-01  4.76981e-03        00000 
 5.86125e-01  4.25727e-02        00000 
 5.79399e-01  4.31204e-02        00000 
 5.70228e-01  4.33217e-02        00000 
 6.77549e-01  9.35566e-04        00000 
 6.68809e-01  1.79812e-03        00000 
 6.58231e-01  2.39039e-03        00000 
 5.67189e-01  3.25481e-02        00000 
 5.64603e-01  3.67260e-02        00000 
 5.57100e-01  3.87523e-02        00000 
 6.60099e-01  1.34573e-03        00000 
 6.51487e-01  3.44816e-03        00000 
 6.39001e-01  5.58580e-03        00000 
 5.50714e-01  2.50553e-02        00000 
 5.49138e-01  3.12239e-02        00000 
 5.43346e-01  3.52335e-02        00000 
 6.42273e-01  2.16402e-03        00000 
 6.33833e-01  6.29523e-03        00000 
 6.21241e-01  1.04596e-02        00000 
 6.02573e-01  1.42936e-02        00000 
 5.78167e-01  1.59763e-02        00000 
 5.54480e-01  1.51336e-02        00000 
 5.40983e-01  1.46620e-02        00000 
 5.37140e-01  1.71640e-02        00000 
 5.36312e-01  2.28711e-02        00000 
 5.34106e-01  2.92901e-02        00000 
 5.29412e-01  3.42967e-02        00000 
 6.24219e-01  2.98086e-03        00000 
 6.16198e-01  8.82810e-03        00000 
 6.04676e-01  1.42901e-02        00000 
 5.89030e-01  1.86940e-02        00000 
 5.70077e-01  2.09302e-02        00000 
 5.51507e-01  2.04450e-02        00000 
 5.37376e-01  1.91738e-02        00000 
 5.28632e-01  2.00859e-02        00000 
 5.23121e-01  2.40537e-02        00000 
 5.19657e-01  3.05490e-02        00000 
 5.16188e-01  3.63933e-02        00000 
 6.06135e-01  3.62060e-03        00000 
 5.98859e-01  1.06953e-02        00000 
 5.89190e-01  1.69426e-02        00000 
 5.76795e-01  2.14656e-02        00000 
 5.61995e-01  2.35106e-02        00000 
 5.46300e-01  2.33506e-02        00000 
 5.31828e-01  2.26746e-02        00000 
 5.19881e-01  2.34688e-02        00000 
 5.10385e-01  2.65378e-02        00000 
 5.03271e-01  3.12996e-02        00000 