<?xml version="1.0" encoding="utf-8"?>
<VTKFile byte_order="LittleEndian" type="UnstructuredGrid" version="0.1">
   <UnstructuredGrid>
      <Piece NumberOfCells="17640" NumberOfPoints="19224">
         <Points>
            <DataArray Name="Points" NumberOfComponents="3" format="ascii" type="Float32">
0.1449 0.1449 0.0000
0.2671 0.2671 0.0000
0.3892 0.3892 0.0000
0.5114 0.5114 0.0000
0.6335 0.6335 0.0000
0.7557 0.7557 0.0000
0.8778 0.8778 0.0000
1.0000 1.0000 0.0000
0.1334 0.1556 0.0000
0.2368 0.2763 0.0000
0.3402 0.3969 0.0000
0.4436 0.5175 0.0000
0.5470 0.6381 0.0000
0.6504 0.7588 0.0000
0.7538 0.8794 0.0000
0.8571 1.0000 0.0000
0.1191 0.1668 0.0000
0.2042 0.2858 0.0000
0.2892 0.4049 0.0000
0.3742 0.5239 0.0000
0.4592 0.6429 0.0000
0.5442 0.7619 0.0000
0.6293 0.8810 0.0000
0.7143 1.0000 0.0000
0.1017 0.1780 0.0000
0.1688 0.2954 0.0000
0.2359 0.4128 0.0000
0.3030 0.5303 0.0000
0.3701 0.6477 0.0000
0.4372 0.7651 0.0000
0.5043 0.8826 0.0000
0.5714 1.0000 0.0000
0.0807 0.1884 0.0000
0.1304 0.3044 0.0000
0.1801 0.4203 0.0000
0.2298 0.5362 0.0000
0.2795 0.6522 0.0000
0.3292 0.7681 0.0000
0.3789 0.8841 0.0000
0.4286 1.0000 0.0000
0.0563 0.1971 0.0000
0.0891 0.3118 0.0000
0.1219 0.4265 0.0000
0.1546 0.5412 0.0000
0.1874 0.6559 0.0000
0.2202 0.7706 0.0000
0.2529 0.8853 0.0000
0.2857 1.0000 0.0000
0.0290 0.2029 0.0000
0.0453 0.3168 0.0000
0.0615 0.4307 0.0000
0.0778 0.5445 0.0000
0.0941 0.6584 0.0000
0.1103 0.7723 0.0000
0.1266 0.8861 0.0000
0.1429 1.0000 0.0000
0.0000 0.2050 0.0000
0.0000 0.3186 0.0000
0.0000 0.4321 0.0000
0.0000 0.5457 0.0000
0.0000 0.6593 0.0000
0.0000 0.7729 0.0000
0.0000 0.8864 0.0000
0.0000 1.0000 0.0000
-0.0290 0.2029 0.0000
-0.0453 0.3168 0.0000
-0.0615 0.4307 0.0000
-0.0778 0.5445 0.0000
-0.0941 0.6584 0.0000
-0.1103 0.7723 0.0000
-0.1266 0.8861 0.0000
-0.1429 1.0000 0.0000
-0.0563 0.1971 0.0000
-0.0891 0.3118 0.0000
-0.1219 0.4265 0.0000
-0.1546 0.5412 0.0000
-0.1874 0.6559 0.0000
-0.2202 0.7706 0.0000
-0.2529 0.8853 0.0000
-0.2857 1.0000 0.0000
-0.0807 0.1884 0.0000
-0.1304 0.3044 0.0000
-0.1801 0.4203 0.0000
-0.2298 0.5362 0.0000
-0.2795 0.6522 0.0000
-0.3292 0.7681 0.0000
-0.3789 0.8841 0.0000
-0.4286 1.0000 0.0000
-0.1017 0.1780 0.0000
-0.1688 0.2954 0.0000
-0.2359 0.4128 0.0000
-0.3030 0.5303 0.0000
-0.3701 0.6477 0.0000
-0.4372 0.7651 0.0000
-0.5043 0.8826 0.0000
-0.5714 1.0000 0.0000
-0.1191 0.1668 0.0000
-0.2042 0.2858 0.0000
-0.2892 0.4049 0.0000
-0.3742 0.5239 0.0000
-0.4592 0.6429 0.0000
-0.5442 0.7619 0.0000
-0.6293 0.8810 0.0000
-0.7143 1.0000 0.0000
-0.1334 0.1556 0.0000
-0.2368 0.2763 0.0000
-0.3402 0.3969 0.0000
-0.4436 0.5175 0.0000
-0.5470 0.6381 0.0000
-0.6504 0.7588 0.0000
-0.7538 0.8794 0.0000
-0.8571 1.0000 0.0000
-0.1449 0.1449 0.0000
-0.2671 0.2671 0.0000
-0.3892 0.3892 0.0000
-0.5114 0.5114 0.0000
-0.6335 0.6335 0.0000
-0.7557 0.7557 0.0000
-0.8778 0.8778 0.0000
-1.0000 1.0000 0.0000
-0.1556 0.1334 0.0000
-0.2763 0.2368 0.0000
-0.3969 0.3402 0.0000
-0.5175 0.4436 0.0000
-0.6381 0.5470 0.0000
-0.7588 0.6504 0.0000
-0.8794 0.7538 0.0000
-1.0000 0.8571 0.0000
-0.1668 0.1191 0.0000
-0.2858 0.2042 0.0000
-0.4049 0.2892 0.0000
-0.5239 0.3742 0.0000
-0.6429 0.4592 0.0000
-0.7619 0.5442 0.0000
-0.8810 0.6293 0.0000
-1.0000 0.7143 0.0000
-0.1780 0.1017 0.0000
-0.2954 0.1688 0.0000
-0.4128 0.2359 0.0000
-0.5303 0.3030 0.0000
-0.6477 0.3701 0.0000
-0.7651 0.4372 0.0000
-0.8826 0.5043 0.0000
-1.0000 0.5714 0.0000
-0.1884 0.0807 0.0000
-0.3044 0.1304 0.0000
-0.4203 0.1801 0.0000
-0.5362 0.2298 0.0000
-0.6522 0.2795 0.0000
-0.7681 0.3292 0.0000
-0.8841 0.3789 0.0000
-1.0000 0.4286 0.0000
-0.1971 0.0563 0.0000
-0.3118 0.0891 0.0000
-0.4265 0.1219 0.0000
-0.5412 0.1546 0.0000
-0.6559 0.1874 0.0000
-0.7706 0.2202 0.0000
-0.8853 0.2529 0.0000
-1.0000 0.2857 0.0000
-0.2029 0.0290 0.0000
-0.3168 0.0453 0.0000
-0.4307 0.0615 0.0000
-0.5445 0.0778 0.0000
-0.6584 0.0941 0.0000
-0.7723 0.1103 0.0000
-0.8861 0.1266 0.0000
-1.0000 0.1429 0.0000
-0.2050 0.0000 0.0000
-0.3186 0.0000 0.0000
-0.4321 0.0000 0.0000
-0.5457 0.0000 0.0000
-0.6593 0.0000 0.0000
-0.7729 0.0000 0.0000
-0.8864 0.0000 0.0000
-1.0000 0.0000 0.0000
-0.2029 -0.0290 0.0000
-0.3168 -0.0453 0.0000
-0.4307 -0.0615 0.0000
-0.5445 -0.0778 0.0000
-0.6584 -0.0941 0.0000
-0.7723 -0.1103 0.0000
-0.8861 -0.1266 0.0000
-1.0000 -0.1429 0.0000
-0.1971 -0.0563 0.0000
-0.3118 -0.0891 0.0000
-0.4265 -0.1219 0.0000
-0.5412 -0.1546 0.0000
-0.6559 -0.1874 0.0000
-0.7706 -0.2202 0.0000
-0.8853 -0.2529 0.0000
-1.0000 -0.2857 0.0000
-0.1884 -0.0807 0.0000
-0.3044 -0.1304 0.0000
-0.4203 -0.1801 0.0000
-0.5362 -0.2298 0.0000
-0.6522 -0.2795 0.0000
-0.7681 -0.3292 0.0000
-0.8841 -0.3789 0.0000
-1.0000 -0.4286 0.0000
-0.1780 -0.1017 0.0000
-0.2954 -0.1688 0.0000
-0.4128 -0.2359 0.0000
-0.5303 -0.3030 0.0000
-0.6477 -0.3701 0.0000
-0.7651 -0.4372 0.0000
-0.8826 -0.5043 0.0000
-1.0000 -0.5714 0.0000
-0.1668 -0.1191 0.0000
-0.2858 -0.2042 0.0000
-0.4049 -0.2892 0.0000
-0.5239 -0.3742 0.0000
-0.6429 -0.4592 0.0000
-0.7619 -0.5442 0.0000
-0.8810 -0.6293 0.0000
-1.0000 -0.7143 0.0000
-0.1556 -0.1334 0.0000
-0.2763 -0.2368 0.0000
-0.3969 -0.3402 0.0000
-0.5175 -0.4436 0.0000
-0.6381 -0.5470 0.0000
-0.7588 -0.6504 0.0000
-0.8794 -0.7538 0.0000
-1.0000 -0.8571 0.0000
-0.1449 -0.1449 0.0000
-0.2671 -0.2671 0.0000
-0.3892 -0.3892 0.0000
-0.5114 -0.5114 0.0000
-0.6335 -0.6335 0.0000
-0.7557 -0.7557 0.0000
-0.8778 -0.8778 0.0000
-1.0000 -1.0000 0.0000
-0.1334 -0.1556 0.0000
-0.2368 -0.2763 0.0000
-0.3402 -0.3969 0.0000
-0.4436 -0.5175 0.0000
-0.5470 -0.6381 0.0000
-0.6504 -0.7588 0.0000
-0.7538 -0.8794 0.0000
-0.8571 -1.0000 0.0000
-0.1191 -0.1668 0.0000
-0.2042 -0.2858 0.0000
-0.2892 -0.4049 0.0000
-0.3742 -0.5239 0.0000
-0.4592 -0.6429 0.0000
-0.5442 -0.7619 0.0000
-0.6293 -0.8810 0.0000
-0.7143 -1.0000 0.0000
-0.1017 -0.1780 0.0000
-0.1688 -0.2954 0.0000
-0.2359 -0.4128 0.0000
-0.3030 -0.5303 0.0000
-0.3701 -0.6477 0.0000
-0.4372 -0.7651 0.0000
-0.5043 -0.8826 0.0000
-0.5714 -1.0000 0.0000
-0.0807 -0.1884 0.0000
-0.1304 -0.3044 0.0000
-0.1801 -0.4203 0.0000
-0.2298 -0.5362 0.0000
-0.2795 -0.6522 0.0000
-0.3292 -0.7681 0.0000
-0.3789 -0.8841 0.0000
-0.4286 -1.0000 0.0000
-0.0563 -0.1971 0.0000
-0.0891 -0.3118 0.0000
-0.1219 -0.4265 0.0000
-0.1546 -0.5412 0.0000
-0.1874 -0.6559 0.0000
-0.2202 -0.7706 0.0000
-0.2529 -0.8853 0.0000
-0.2857 -1.0000 0.0000
-0.0290 -0.2029 0.0000
-0.0453 -0.3168 0.0000
-0.0615 -0.4307 0.0000
-0.0778 -0.5445 0.0000
-0.0941 -0.6584 0.0000
-0.1103 -0.7723 0.0000
-0.1266 -0.8861 0.0000
-0.1429 -1.0000 0.0000
0.0000 -0.2050 0.0000
0.0000 -0.3186 0.0000
0.0000 -0.4321 0.0000
0.0000 -0.5457 0.0000
0.0000 -0.6593 0.0000
0.0000 -0.7729 0.0000
0.0000 -0.8864 0.0000
0.0000 -1.0000 0.0000
0.0290 -0.2029 0.0000
0.0453 -0.3168 0.0000
0.0615 -0.4307 0.0000
0.0778 -0.5445 0.0000
0.0941 -0.6584 0.0000
0.1103 -0.7723 0.0000
0.1266 -0.8861 0.0000
0.1429 -1.0000 0.0000
0.0563 -0.1971 0.0000
0.0891 -0.3118 0.0000
0.1219 -0.4265 0.0000
0.1546 -0.5412 0.0000
0.1874 -0.6559 0.0000
0.2202 -0.7706 0.0000
0.2529 -0.8853 0.0000
0.2857 -1.0000 0.0000
0.0807 -0.1884 0.0000
0.1304 -0.3044 0.0000
0.1801 -0.4203 0.0000
0.2298 -0.5362 0.0000
0.2795 -0.6522 0.0000
0.3292 -0.7681 0.0000
0.3789 -0.8841 0.0000
0.4286 -1.0000 0.0000
0.1017 -0.1780 0.0000
0.1688 -0.2954 0.0000
0.2359 -0.4128 0.0000
0.3030 -0.5303 0.0000
0.3701 -0.6477 0.0000
0.4372 -0.7651 0.0000
0.5043 -0.8826 0.0000
0.5714 -1.0000 0.0000
0.1191 -0.1668 0.0000
0.2042 -0.2858 0.0000
0.2892 -0.4049 0.0000
0.3742 -0.5239 0.0000
0.4592 -0.6429 0.0000
0.5442 -0.7619 0.0000
0.6293 -0.8810 0.0000
0.7143 -1.0000 0.0000
0.1334 -0.1556 0.0000
0.2368 -0.2763 0.0000
0.3402 -0.3969 0.0000
0.4436 -0.5175 0.0000
0.5470 -0.6381 0.0000
0.6504 -0.7588 0.0000
0.7538 -0.8794 0.0000
0.8571 -1.0000 0.0000
0.1449 -0.1449 0.0000
0.2671 -0.2671 0.0000
0.3892 -0.3892 0.0000
0.5114 -0.5114 0.0000
0.6335 -0.6335 0.0000
0.7557 -0.7557 0.0000
0.8778 -0.8778 0.0000
1.0000 -1.0000 0.0000
0.1556 -0.1334 0.0000
0.2763 -0.2368 0.0000
0.3969 -0.3402 0.0000
0.5175 -0.4436 0.0000
0.6381 -0.5470 0.0000
0.7588 -0.6504 0.0000
0.8794 -0.7538 0.0000
1.0000 -0.8571 0.0000
0.1668 -0.1191 0.0000
0.2858 -0.2042 0.0000
0.4049 -0.2892 0.0000
0.5239 -0.3742 0.0000
0.6429 -0.4592 0.0000
0.7619 -0.5442 0.0000
0.8810 -0.6293 0.0000
1.0000 -0.7143 0.0000
0.1780 -0.1017 0.0000
0.2954 -0.1688 0.0000
0.4128 -0.2359 0.0000
0.5303 -0.3030 0.0000
0.6477 -0.3701 0.0000
0.7651 -0.4372 0.0000
0.8826 -0.5043 0.0000
1.0000 -0.5714 0.0000
0.1884 -0.0807 0.0000
0.3044 -0.1304 0.0000
0.4203 -0.1801 0.0000
0.5362 -0.2298 0.0000
0.6522 -0.2795 0.0000
0.7681 -0.3292 0.0000
0.8841 -0.3789 0.0000
1.0000 -0.4286 0.0000
0.1971 -0.0563 0.0000
0.3118 -0.0891 0.0000
0.4265 -0.1219 0.0000
0.5412 -0.1546 0.0000
0.6559 -0.1874 0.0000
0.7706 -0.2202 0.0000
0.8853 -0.2529 0.0000
1.0000 -0.2857 0.0000
0.2029 -0.0290 0.0000
0.3168 -0.0453 0.0000
0.4307 -0.0615 0.0000
0.5445 -0.0778 0.0000
0.6584 -0.0941 0.0000
0.7723 -0.1103 0.0000
0.8861 -0.1266 0.0000
1.0000 -0.1429 0.0000
0.2050 0.0000 0.0000
0.3186 0.0000 0.0000
0.4321 0.0000 0.0000
0.5457 0.0000 0.0000
0.6593 0.0000 0.0000
0.7729 0.0000 0.0000
0.8864 0.0000 0.0000
1.0000 0.0000 0.0000
0.2029 0.0290 0.0000
0.3168 0.0453 0.0000
0.4307 0.0615 0.0000
0.5445 0.0778 0.0000
0.6584 0.0941 0.0000
0.7723 0.1103 0.0000
0.8861 0.1266 0.0000
1.0000 0.1429 0.0000
0.1971 0.0563 0.0000
0.3118 0.0891 0.0000
0.4265 0.1219 0.0000
0.5412 0.1546 0.0000
0.6559 0.1874 0.0000
0.7706 0.2202 0.0000
0.8853 0.2529 0.0000
1.0000 0.2857 0.0000
0.1884 0.0807 0.0000
0.3044 0.1304 0.0000
0.4203 0.1801 0.0000
0.5362 0.2298 0.0000
0.6522 0.2795 0.0000
0.7681 0.3292 0.0000
0.8841 0.3789 0.0000
1.0000 0.4286 0.0000
0.1780 0.1017 0.0000
0.2954 0.1688 0.0000
0.4128 0.2359 0.0000
0.5303 0.3030 0.0000
0.6477 0.3701 0.0000
0.7651 0.4372 0.0000
0.8826 0.5043 0.0000
1.0000 0.5714 0.0000
0.1668 0.1191 0.0000
0.2858 0.2042 0.0000
0.4049 0.2892 0.0000
0.5239 0.3742 0.0000
0.6429 0.4592 0.0000
0.7619 0.5442 0.0000
0.8810 0.6293 0.0000
1.0000 0.7143 0.0000
0.1556 0.1334 0.0000
[...]
         <PointData>
            <DataArray Name="fValues" NumberOfComponents="3" format="ascii" type="Float64">
-1.19361e-03 -6.32821e-04        00000 
-1.07653e-03 -7.57516e-04        00000 
-1.03696e-03 -8.51402e-04        00000 
-1.00624e-03 -9.52662e-04        00000 
-9.74888e-04 -1.06013e-03        00000 
-9.37238e-04 -1.17148e-03        00000 
-8.78064e-04 -1.29009e-03        00000 
-7.33061e-04 -1.43180e-03        00000 
-1.16262e-03 -6.13876e-04        00000 
-1.03759e-03 -7.15239e-04        00000 
-9.90958e-04 -7.94392e-04        00000 
-9.53902e-04 -8.74750e-04        00000 
-9.15632e-04 -9.59541e-04        00000 
-8.70639e-04 -1.04641e-03        00000 
-8.08266e-04 -1.13473e-03        00000 
-7.16077e-04 -1.23342e-03        00000 
-1.12512e-03 -5.91065e-04        00000 
-9.95107e-04 -6.68850e-04        00000 
-9.41805e-04 -7.32633e-04        00000 
-8.99213e-04 -7.95194e-04        00000 
-8.55694e-04 -8.59890e-04        00000 
-8.06456e-04 -9.26594e-04        00000 
-7.46770e-04 -9.96004e-04        00000 
-6.76953e-04 -1.07239e-03        00000 
-1.08054e-03 -5.64368e-04        00000 
-9.49249e-04 -6.17975e-04        00000 
-8.90381e-04 -6.66548e-04        00000 
-8.42789e-04 -7.13229e-04        00000 
-7.95221e-04 -7.60425e-04        00000 
-7.43675e-04 -8.09152e-04        00000 
-6.86130e-04 -8.60501e-04        00000 
-6.23166e-04 -9.15750e-04        00000 
-1.02867e-03 -5.34265e-04        00000 
-9.00928e-04 -5.63261e-04        00000 
-8.37916e-04 -5.97247e-04        00000 
-7.85921e-04 -6.29526e-04        00000 
-7.35006e-04 -6.61329e-04        00000 
-6.81926e-04 -6.93890e-04        00000 
-6.25444e-04 -7.28218e-04        00000 
-5.65548e-04 -7.64947e-04        00000 
-9.70132e-04 -5.01918e-04        00000 
-8.51723e-04 -5.06934e-04        00000 
-7.86036e-04 -5.27181e-04        00000 
-7.30194e-04 -5.46315e-04        00000 
-6.76261e-04 -5.64370e-04        00000 
-6.21741e-04 -5.82400e-04        00000 
-5.65699e-04 -6.01308e-04        00000 
-5.07820e-04 -6.21688e-04        00000 
-9.06662e-04 -4.69187e-04        00000 
-8.03405e-04 -4.52846e-04        00000 
-7.36279e-04 -4.60309e-04        00000 
-6.76922e-04 -4.67308e-04        00000 
-6.19995e-04 -4.72869e-04        00000 
-5.63803e-04 -4.77813e-04        00000 
-5.07658e-04 -4.82902e-04        00000 
-4.51195e-04 -4.88679e-04        00000 
-8.41187e-04 -4.38354e-04        00000 
-7.57237e-04 -4.05491e-04        00000 
-6.89323e-04 -4.01165e-04        00000 
-6.26440e-04 -3.96724e-04        00000 
-5.66292e-04 -3.90701e-04        00000 
-5.08040e-04 -3.83782e-04        00000 
-4.51235e-04 -3.76603e-04        00000 
-3.95538e-04 -3.69536e-04        00000 
-7.77297e-04 -4.11544e-04        00000 
-7.13598e-04 -3.68204e-04        00000 
-6.44649e-04 -3.52971e-04        00000 
-5.77868e-04 -3.37481e-04        00000 
-5.14125e-04 -3.20523e-04        00000 
-4.53416e-04 -3.02854e-04        00000 
-3.95505e-04 -2.85066e-04        00000 
-3.40043e-04 -2.67413e-04        00000 
-7.18328e-04 -3.90109e-04        00000 
-6.72252e-04 -3.41749e-04        00000 
-6.01132e-04 -3.16165e-04        00000 
-5.29810e-04 -2.89813e-04        00000 
-4.62066e-04 -2.62494e-04        00000 
-3.98635e-04 -2.35268e-04        00000 
-3.39454e-04 -2.08843e-04        00000 
-2.84139e-04 -1.83549e-04        00000 
-6.66542e-04 -3.74315e-04        00000 
-6.32974e-04 -3.24406e-04        00000 
-5.57984e-04 -2.88603e-04        00000 
-4.81363e-04 -2.51514e-04        00000 
-4.09286e-04 -2.14547e-04        00000 
-3.43079e-04 -1.79243e-04        00000 
-2.82847e-04 -1.46574e-04        00000 
-2.28177e-04 -1.17143e-04        00000 
-6.22858e-04 -3.63499e-04        00000 
-5.95868e-04 -3.13300e-04        00000 
-5.15150e-04 -2.67046e-04        00000 
-4.32545e-04 -2.19412e-04        00000 
-3.55935e-04 -1.73842e-04        00000 
-2.87070e-04 -1.32333e-04        00000 
-2.26409e-04 -9.61781e-05        00000 
-1.73502e-04 -6.65035e-05        00000 
-5.87111e-04 -3.56502e-04        00000 
-5.61220e-04 -3.05781e-04        00000 
-4.73065e-04 -2.48509e-04        00000 
-3.84042e-04 -1.90728e-04        00000 
-3.02769e-04 -1.38132e-04        00000 
-2.31378e-04 -9.26320e-05        00000 
-1.71374e-04 -5.58728e-05        00000 
-1.22386e-04 -3.01994e-05        00000 
-5.58538e-04 -3.52102e-04        00000 
-5.29172e-04 -3.00081e-04        00000 
-4.32288e-04 -2.30757e-04        00000 
-3.36730e-04 -1.63776e-04        00000 
-2.50574e-04 -1.06293e-04        00000 
-1.76380e-04 -5.92845e-05        00000 
-1.19105e-04 -2.40575e-05        00000 
-7.88457e-05 -6.81786e-06        00000 
-5.36187e-04 -3.49277e-04        00000 
-4.99522e-04 -2.95307e-04        00000 
-3.93448e-04 -2.12141e-04        00000 
-2.91180e-04 -1.38269e-04        00000 
-1.99738e-04 -7.79238e-05        00000 
-1.22404e-04 -3.21534e-05        00000 
-6.57002e-05 -8.18395e-07        00000 
-6.48548e-05  2.27033e-05        00000 
-5.12993e-04 -3.46406e-04        00000 
-4.81449e-04 -3.02204e-04        00000 
-3.90090e-04 -2.21082e-04        00000 
-2.94089e-04 -1.47784e-04        00000 
-2.05783e-04 -8.73219e-05        00000 
-1.27008e-04 -4.08541e-05        00000 
-5.85176e-05 -8.34274e-06        00000 
-6.50166e-21 -8.18512e-21        00000 
-4.87799e-04 -3.44896e-04        00000 
-4.60652e-04 -3.08678e-04        00000 
-3.81401e-04 -2.30621e-04        00000 
-2.93612e-04 -1.57957e-04        00000 
-2.09251e-04 -9.73134e-05        00000 
-1.31549e-04 -4.98023e-05        00000 
-6.12085e-05 -1.63019e-05        00000 
 1.04918e-20 -1.74864e-21        00000 
-4.61924e-04 -3.45118e-04        00000 
-4.37505e-04 -3.14513e-04        00000 
-3.68711e-04 -2.39550e-04        00000 
-2.89242e-04 -1.67995e-04        00000 
-2.09799e-04 -1.07174e-04        00000 
-1.34186e-04 -5.86292e-05        00000 
-6.37941e-05 -2.26485e-05        00000 
 5.06692e-21  5.82696e-21        00000 
-4.37568e-04 -3.47753e-04        00000 
-4.13761e-04 -3.19056e-04        00000 
-3.54174e-04 -2.46758e-04        00000 
-2.82341e-04 -1.76583e-04        00000 
-2.07946e-04 -1.15800e-04        00000 
-1.35059e-04 -6.62143e-05        00000 
-6.53702e-05 -2.78720e-05        00000 
-5.70143e-21 -4.56444e-21        00000 
-4.17797e-04 -3.53693e-04        00000 
-3.93095e-04 -3.21600e-04        00000 
-3.41472e-04 -2.51305e-04        00000 
-2.76102e-04 -1.82597e-04        00000 
-2.05960e-04 -1.22028e-04        00000 
-1.35430e-04 -7.15323e-05        00000 
-6.64857e-05 -3.13214e-05        00000 
-9.26517e-21  4.86393e-21        00000 
-4.06120e-04 -3.63764e-04        00000 
-3.80912e-04 -3.22109e-04        00000 
-3.35875e-04 -2.53080e-04        00000 
-2.75300e-04 -1.85862e-04        00000 
-2.07742e-04 -1.25604e-04        00000 
-1.38015e-04 -7.42536e-05        00000 
-6.85148e-05 -3.26012e-05        00000 
 7.14462e-21 -1.42892e-20        00000 
-4.05572e-04 -3.78338e-04        00000 
-3.82815e-04 -3.21909e-04        00000 
-3.42914e-04 -2.53586e-04        00000 
-2.84998e-04 -1.87909e-04        00000 
-2.17628e-04 -1.27992e-04        00000 
-1.46085e-04 -7.56561e-05        00000 
-7.32376e-05 -3.25262e-05        00000 
-2.88383e-20  9.26947e-21        00000 
-4.17581e-04 -3.97041e-04        00000 
-4.02085e-04 -3.23574e-04        00000 
-3.65904e-04 -2.55874e-04        00000 
-3.08304e-04 -1.91879e-04        00000 
-2.38365e-04 -1.32313e-04        00000 
-1.61783e-04 -7.86594e-05        00000 
-8.18557e-05 -3.33117e-05        00000 
 2.68444e-20  9.74334e-21        00000 
-4.41291e-04 -4.18785e-04        00000 
-4.37890e-04 -3.29742e-04        00000 
-4.04164e-04 -2.63161e-04        00000 
-3.44758e-04 -2.01147e-04        00000 
-2.69702e-04 -1.42036e-04        00000 
-1.84989e-04 -8.66575e-05        00000 
-9.43072e-05 -3.76367e-05        00000 
 2.12610e-20 -6.71496e-21        00000 
-4.73831e-04 -4.42106e-04        00000 
-4.85815e-04 -3.41709e-04        00000 
-4.53546e-04 -2.77194e-04        00000 
-3.90822e-04 -2.17683e-04        00000 
-3.08910e-04 -1.59405e-04        00000 
-2.13859e-04 -1.02116e-04        00000 
-1.09637e-04 -4.75510e-05        00000 
-3.54169e-20 -7.08338e-21        00000 
-5.11367e-04 -4.65563e-04        00000 
-5.40179e-04 -3.59006e-04        00000 
-5.08677e-04 -2.97757e-04        00000 
-4.41902e-04 -2.41461e-04        00000 
-3.52711e-04 -1.84850e-04        00000 
-2.46625e-04 -1.26236e-04        00000 
-1.27143e-04 -6.45906e-05        00000 
 1.41873e-20  2.33077e-20        00000 
-5.50238e-04 -4.87962e-04        00000 
-5.96265e-04 -3.80095e-04        00000 
-5.64892e-04 -3.23362e-04        00000 
-4.94182e-04 -2.71033e-04        00000 
-3.99014e-04 -2.17497e-04        00000 
-2.83405e-04 -1.59899e-04        00000 
-1.47492e-04 -9.15381e-05        00000 
-3.52378e-21 -4.16362e-20        00000 
-5.87657e-04 -5.08401e-04        00000 
-6.51247e-04 -4.03386e-04        00000 
-6.18826e-04 -3.52104e-04        00000 
-5.45536e-04 -3.04378e-04        00000 
-4.47731e-04 -2.56332e-04        00000 
-3.26524e-04 -2.03691e-04        00000 
-1.78352e-04 -1.38722e-04        00000 
-4.15215e-20  3.68036e-20        00000 
-6.21888e-04 -5.26202e-04        00000 
-7.04019e-04 -4.27917e-04        00000 
-6.68027e-04 -3.81910e-04        00000 
-5.96126e-04 -3.39970e-04        00000 
-5.00851e-04 -3.00443e-04        00000 
-3.90763e-04 -2.60925e-04        00000 
-3.01392e-04 -2.11102e-04        00000 
-4.44971e-04 -1.24352e-04        00000 
-6.54337e-04 -5.46370e-04        00000 
-7.52674e-04 -4.67411e-04        00000 
-7.36712e-04 -4.28391e-04        00000 
-6.89895e-04 -3.98853e-04        00000 
-6.26607e-04 -3.73649e-04        00000 
-5.56844e-04 -3.54096e-04        00000 
-5.09040e-04 -3.36790e-04        00000 
-5.25502e-04 -2.81971e-04        00000 
-6.95180e-04 -5.70885e-04        00000 
-8.06496e-04 -5.12045e-04        00000 
-8.10431e-04 -4.81858e-04        00000 
-7.87658e-04 -4.62534e-04        00000 
-7.53552e-04 -4.49338e-04        00000 
-7.17588e-04 -4.42057e-04        00000 
-6.92383e-04 -4.37577e-04        00000 
-6.88903e-04 -4.21701e-04        00000 
-7.45411e-04 -5.99693e-04        00000 
-8.65555e-04 -5.62425e-04        00000 
-8.88400e-04 -5.41952e-04        00000 
-8.88865e-04 -5.32110e-04        00000 
-8.81548e-04 -5.29167e-04        00000 
-8.73924e-04 -5.31230e-04        00000 
-8.71952e-04 -5.35721e-04        00000 
-8.75913e-04 -5.37663e-04        00000 
-8.05514e-04 -6.32078e-04        00000 
-9.28872e-04 -6.17880e-04        00000 
-9.69296e-04 -6.07546e-04        00000 
-9.92112e-04 -6.07037e-04        00000 
-1.00975e-03 -6.13634e-04        00000 
-1.02770e-03 -6.24819e-04        00000 
-1.04918e-03 -6.38104e-04        00000 
-1.07389e-03 -6.51704e-04        00000 
-8.74846e-04 -6.66469e-04        00000 
-9.94460e-04 -6.75723e-04        00000 
-1.05108e-03 -6.75922e-04        00000 
-1.09543e-03 -6.84983e-04        00000 
-1.13687e-03 -7.01286e-04        00000 
-1.17904e-03 -7.22347e-04        00000 
-1.22400e-03 -7.45885e-04        00000 
-1.27319e-03 -7.70583e-04        00000 
-9.51054e-04 -7.00494e-04        00000 
-1.05990e-03 -7.31225e-04        00000 
-1.13153e-03 -7.42548e-04        00000 
-1.19689e-03 -7.61923e-04        00000 
-1.26160e-03 -7.88731e-04        00000 
-1.32756e-03 -8.20766e-04        00000 
-1.39588e-03 -8.56034e-04        00000 
-1.46832e-03 -8.92875e-04        00000 
-1.02998e-03 -7.31453e-04        00000 
-1.12322e-03 -7.79031e-04        00000 
-1.20919e-03 -8.02292e-04        00000 
-1.29545e-03 -8.33295e-04        00000 
-1.38339e-03 -8.71933e-04        00000 
-1.47327e-03 -9.16154e-04        00000 
-1.56501e-03 -9.64109e-04        00000 
-1.65863e-03 -1.01386e-03        00000 
-1.10644e-03 -7.57117e-04        00000 
-1.18343e-03 -8.15589e-04        00000 
-1.28383e-03 -8.51782e-04        00000 
-1.39125e-03 -8.96144e-04        00000 
-1.50280e-03 -9.48330e-04        00000 
-1.61700e-03 -1.00614e-03        00000 
-1.73261e-03 -1.06755e-03        00000 
-1.84754e-03 -1.13071e-03        00000 
-1.17571e-03 -7.76426e-04        00000 
-1.24017e-03 -8.40774e-04        00000 
-1.35588e-03 -8.91054e-04        00000 
-1.48506e-03 -9.50619e-04        00000 
-1.62083e-03 -1.01826e-03        00000 
-1.75997e-03 -1.09141e-03        00000 
-1.90015e-03 -1.16767e-03        00000 
-2.03903e-03 -1.24543e-03        00000 
-1.23476e-03 -7.89639e-04        00000 
-1.29309e-03 -8.57343e-04        00000 
-1.42547e-03 -9.22963e-04        00000 
-1.57721e-03 -9.99443e-04        00000 
-1.73809e-03 -1.08439e-03        00000 
-1.90305e-03 -1.17507e-03        00000 
-2.06849e-03 -1.26866e-03        00000 
-2.23366e-03 -1.36315e-03        00000 
-1.28263e-03 -7.97938e-04        00000 
-1.34165e-03 -8.68951e-04        00000 
-1.49222e-03 -9.51224e-04        00000 
-1.66739e-03 -1.04611e-03        00000 
-1.85459e-03 -1.14996e-03        00000 
-2.04681e-03 -1.26048e-03        00000 
-2.23770e-03 -1.37459e-03        00000 
-2.42659e-03 -1.48710e-03        00000 
-1.31990e-03 -8.02822e-04        00000 
-1.38545e-03 -8.78489e-04        00000 
-1.55557e-03 -9.78906e-04        00000 
-1.75489e-03 -1.09343e-03        00000 
-1.97001e-03 -1.21713e-03        00000 
-2.19207e-03 -1.34934e-03        00000 
-2.40792e-03 -1.48606e-03        00000 
-2.60758e-03 -1.61270e-03        00000 
-1.34795e-03 -8.05657e-04        00000 
-1.42456e-03 -8.87544e-04        00000 
-1.61515e-03 -1.00811e-03        00000 
-1.83907e-03 -1.14296e-03        00000 
-2.08414e-03 -1.28657e-03        00000 
-2.34099e-03 -1.44007e-03        00000 
-2.58018e-03 -1.59780e-03        00000 
-2.76241e-03 -1.71969e-03        00000 
-1.36831e-03 -8.07463e-04        00000 
-1.45961e-03 -8.96654e-04        00000 
-1.67068e-03 -1.04033e-03        00000 
-1.91969e-03 -1.19473e-03        00000 
-2.19716e-03 -1.35778e-03        00000 
-2.49466e-03 -1.52795e-03        00000 
-2.77210e-03 -1.68904e-03        00000 
-2.83575e-03 -1.80868e-03        00000 
-1.38973e-03 -8.09994e-04        00000 
-1.46954e-03 -8.87468e-04        00000 
-1.64816e-03 -1.02343e-03        00000 
-1.86775e-03 -1.16906e-03        00000 
-2.11483e-03 -1.32028e-03        00000 
-2.38964e-03 -1.47418e-03        00000 
-2.69234e-03 -1.62765e-03        00000 
-3.01383e-03 -1.69628e-03        00000 
-1.41175e-03 -8.10845e-04        00000 
-1.48014e-03 -8.79549e-04        00000 
-1.62969e-03 -1.00734e-03        00000 
-1.81726e-03 -1.14543e-03        00000 
-2.03012e-03 -1.28755e-03        00000 
-2.26627e-03 -1.43259e-03        00000 
-2.52698e-03 -1.57734e-03        00000 
-2.79727e-03 -1.72831e-03        00000 
-1.43239e-03 -8.09810e-04        00000 
-1.49048e-03 -8.73074e-04        00000 
-1.61321e-03 -9.93415e-04        00000 
-1.76895e-03 -1.12463e-03        00000 
-1.94611e-03 -1.26017e-03        00000 
-2.14103e-03 -1.39915e-03        00000 
-2.35218e-03 -1.54444e-03        00000 
-2.57804e-03 -1.70586e-03        00000 
-1.44884e-03 -8.06376e-04        00000 
-1.49821e-03 -8.68582e-04        00000 
-1.59604e-03 -9.82684e-04        00000 
-1.72150e-03 -1.10793e-03        00000 
-1.86393e-03 -1.23843e-03        00000 
-2.01852e-03 -1.37389e-03        00000 
-2.18360e-03 -1.51722e-03        00000 
-2.36021e-03 -1.67479e-03        00000 
-1.45781e-03 -7.99802e-04        00000 
-1.49942e-03 -8.66435e-04        00000 
-1.57441e-03 -9.75742e-04        00000 
-1.67208e-03 -1.09601e-03        00000 
-1.78260e-03 -1.22270e-03        00000 
-1.90061e-03 -1.35576e-03        00000 
-2.02361e-03 -1.49702e-03        00000 
-2.15159e-03 -1.64956e-03        00000 
-1.45632e-03 -7.89378e-04        00000 
-1.48935e-03 -8.66072e-04        00000 
-1.54382e-03 -9.72117e-04        00000 
-1.61692e-03 -1.08838e-03        00000 
-1.69966e-03 -1.21217e-03        00000 
-1.78649e-03 -1.34361e-03        00000 
-1.87410e-03 -1.48376e-03        00000 
-1.96060e-03 -1.63382e-03        00000 
-1.44276e-03 -7.74810e-04        00000 
-1.46424e-03 -8.65602e-04        00000 
-1.50060e-03 -9.69754e-04        00000 
-1.55276e-03 -1.08289e-03        00000 
-1.61246e-03 -1.20441e-03        00000 
-1.67443e-03 -1.33476e-03        00000 
-1.73528e-03 -1.47456e-03        00000 
-1.79263e-03 -1.62424e-03        00000 
-1.41765e-03 -7.56494e-04        00000 
-1.42346e-03 -8.62350e-04        00000 
-1.44388e-03 -9.65493e-04        00000 
-1.47869e-03 -1.07619e-03        00000 
-1.52002e-03 -1.19590e-03        00000 
-1.56321e-03 -1.32527e-03        00000 
-1.60581e-03 -1.46456e-03        00000 
-1.64675e-03 -1.61352e-03        00000 
-1.38354e-03 -7.35487e-04        00000 
-1.37007e-03 -8.54191e-04        00000 
-1.37644e-03 -9.56578e-04        00000 
-1.39700e-03 -1.06530e-03        00000 
-1.42383e-03 -1.18342e-03        00000 
-1.45309e-03 -1.31156e-03        00000 
-1.48354e-03 -1.44931e-03        00000 
-1.51588e-03 -1.59528e-03        00000 
-1.34409e-03 -7.13165e-04        00000 
-1.30944e-03 -8.40590e-04        00000 
-1.30333e-03 -9.41973e-04        00000 
-1.31202e-03 -1.04894e-03        00000 
-1.32709e-03 -1.16549e-03        00000 
-1.34528e-03 -1.29191e-03        00000 
-1.36613e-03 -1.42692e-03        00000 
-1.39070e-03 -1.56777e-03        00000 
-1.30298e-03 -6.90838e-04        00000 
-1.24692e-03 -8.22553e-04        00000 
-1.22971e-03 -9.22423e-04        00000 
-1.22821e-03 -1.02771e-03        00000 
-1.23286e-03 -1.14255e-03        00000 
-1.24079e-03 -1.26668e-03        00000 
-1.25138e-03 -1.39837e-03        00000 
-1.26369e-03 -1.53435e-03        00000 
-1.26309e-03 -6.69543e-04        00000 
-1.18628e-03 -8.01786e-04        00000 
-1.15936e-03 -8.99601e-04        00000 
-1.14870e-03 -1.00335e-03        00000 
-1.14291e-03 -1.11627e-03        00000 
-1.13940e-03 -1.23719e-03        00000 
-1.13769e-03 -1.36612e-03        00000 
-1.13073e-03 -1.50267e-03        00000 
-1.22631e-03 -6.50026e-04        00000 
-1.12935e-03 -7.79817e-04        00000 
-1.09463e-03 -8.75329e-04        00000 
-1.07489e-03 -9.77855e-04        00000 
-1.05726e-03 -1.08832e-03        00000 
-1.03977e-03 -1.20531e-03        00000 
-1.02028e-03 -1.32865e-03        00000 
-9.91690e-04 -1.48909e-03        00000 
-3.27373e-03 -3.67770e-03        00000 
-2.98422e-03 -3.95226e-03        00000 
-2.77396e-03 -4.17412e-03        00000 
-2.58519e-03 -4.38786e-03        00000 
-2.40124e-03 -4.60275e-03        00000 
-2.21334e-03 -4.82201e-03        00000 
-2.00685e-03 -5.05183e-03        00000 
-1.73357e-03 -5.31131e-03        00000 
-3.18980e-03 -3.61224e-03        00000 
-2.89935e-03 -3.83680e-03        00000 
-2.68845e-03 -4.02410e-03        00000 
-2.50055e-03 -4.20140e-03        00000 
-2.31818e-03 -4.37791e-03        00000 
-2.13276e-03 -4.55561e-03        00000 
-1.93547e-03 -4.73592e-03        00000 
-1.71792e-03 -4.92648e-03        00000 
-3.09236e-03 -3.53363e-03        00000 
-2.80623e-03 -3.70897e-03        00000 
-2.59612e-03 -3.86009e-03        00000 
-2.41031e-03 -4.00345e-03        00000 
-2.23141e-03 -4.14524e-03        00000 
-2.05175e-03 -4.28802e-03        00000 
-1.86712e-03 -4.43359e-03        00000 
-1.67840e-03 -4.58488e-03        00000 
-2.98170e-03 -3.44140e-03        00000 
-2.70529e-03 -3.56746e-03        00000 
-2.49873e-03 -3.68244e-03        00000 
-2.31636e-03 -3.79316e-03        00000 
-2.14228e-03 -3.90288e-03        00000 
-1.96968e-03 -4.01351e-03        00000 
-1.79577e-03 -4.12642e-03        00000 
-1.62032e-03 -4.24229e-03        00000 
-2.85911e-03 -3.33598e-03        00000 
-2.59874e-03 -3.41340e-03        00000 
-2.39900e-03 -3.49302e-03        00000 
-2.22176e-03 -3.57244e-03        00000 
-2.05331e-03 -3.65198e-03        00000 
-1.88783e-03 -3.73245e-03        00000 
-1.72273e-03 -3.81461e-03        00000 
-1.55705e-03 -3.89883e-03        00000 
-2.72779e-03 -3.21950e-03        00000 
-2.49025e-03 -3.25109e-03        00000 
-2.30076e-03 -3.29694e-03        00000 
-2.13023e-03 -3.34667e-03        00000 
-1.96784e-03 -3.39773e-03        00000 
-1.80891e-03 -3.44976e-03        00000 
-1.65124e-03 -3.50298e-03        00000 
-1.49369e-03 -3.55773e-03        00000 
-2.59317e-03 -3.09653e-03        00000 