<?xml version="1.0" encoding="utf-8"?>
<VTKFile byte_order="LittleEndian" type="UnstructuredGrid" version="0.1">
   <UnstructuredGrid>
      <Piece NumberOfCells="27720" NumberOfPoints="8756">
         <Points>
            <DataArray Name="Points" NumberOfComponents="3" format="ascii" type="Float32">
0.0500 -0.0154 -0.4818
0.0500 -0.0196 -0.4817
0.0500 -0.0174 -0.4774
0.0500 -0.0141 -0.4742
0.0500 -0.0204 -0.4740
0.0500 -0.0132 -0.4689
0.0500 -0.0210 -0.4687
0.0500 -0.0123 -0.4636
0.0500 -0.0216 -0.4633
0.0500 -0.0112 -0.4569
0.0500 -0.0223 -0.4566
0.0500 -0.0101 -0.4501
0.0500 -0.0231 -0.4497
0.0500 -0.0089 -0.4421
0.0500 -0.0239 -0.4417
0.0500 -0.0169 -0.4365
0.0500 -0.0075 -0.4337
0.0500 -0.0248 -0.4332
0.0500 -0.0168 -0.4250
0.0500 -0.0061 -0.4245
0.0500 -0.0258 -0.4241
0.0500 -0.0045 -0.4146
0.0500 -0.0268 -0.4140
0.0500 -0.0155 -0.4092
0.0500 -0.0029 -0.4041
0.0500 -0.0278 -0.4035
0.0500 -0.0092 -0.3989
0.0500 -0.0192 -0.3978
0.0500 -0.0011 -0.3928
0.0500 -0.0290 -0.3921
0.0500 -0.0148 -0.3906
0.0500 -0.0221 -0.3899
0.0472 -0.0171 -0.4691
0.0500 -0.0132 -0.3803
0.0500 0.0006 -0.3811
0.0500 -0.0224 -0.3793
0.0500 -0.0301 -0.3799
0.0500 -0.0115 -0.3700
0.0500 -0.0228 -0.3687
0.0500 0.0025 -0.3686
0.0500 -0.0313 -0.3677
0.0457 -0.0174 -0.4783
0.0460 -0.0155 -0.4445
0.0500 -0.0098 -0.3592
0.0454 -0.0173 -0.4752
0.0500 -0.0232 -0.3580
0.0500 0.0044 -0.3556
0.0500 -0.0325 -0.3544
0.0500 -0.0080 -0.3477
0.0500 -0.0235 -0.3472
0.0500 0.0064 -0.3420
0.0500 -0.0338 -0.3409
0.0500 -0.0244 -0.3386
0.0435 -0.0154 -0.4818
0.0435 -0.0196 -0.4817
0.0435 -0.0141 -0.4742
0.0435 -0.0204 -0.4740
0.0435 -0.0123 -0.4636
0.0435 -0.0216 -0.4633
0.0500 -0.0053 -0.3305
0.0500 -0.0253 -0.3299
0.0500 0.0084 -0.3279
0.0500 -0.0350 -0.3268
0.0445 -0.0250 -0.3948
0.0500 -0.0037 -0.3207
0.0500 -0.0263 -0.3202
0.0421 -0.0101 -0.4501
0.0421 -0.0231 -0.4497
0.0438 -0.0187 -0.3928
0.0421 -0.0075 -0.4337
0.0421 -0.0248 -0.4332
0.0500 0.0105 -0.3133
0.0500 -0.0363 -0.3120
0.0500 -0.0022 -0.3109
0.0500 -0.0273 -0.3102
0.0435 -0.0275 -0.3862
0.0500 -0.0282 -0.3001
0.0500 -0.0006 -0.3002
0.0500 -0.0376 -0.2976
0.0500 0.0126 -0.2984
0.0398 -0.0088 -0.4419
0.0405 -0.0045 -0.4146
0.0405 -0.0268 -0.4140
0.0500 0.0010 -0.2891
0.0500 -0.0294 -0.2883
0.0500 0.0148 -0.2826
0.0382 -0.0165 -0.4351
0.0500 -0.0390 -0.2811
0.0500 0.0028 -0.2773
0.0367 -0.0133 -0.4532
0.0385 -0.0193 -0.3991
0.0374 -0.0060 -0.4240
0.0374 -0.0258 -0.4235
0.0385 -0.0011 -0.3928
0.0358 -0.0154 -0.4818
0.0358 -0.0196 -0.4817
0.0358 -0.0141 -0.4742
0.0358 -0.0204 -0.4740
0.0383 -0.0290 -0.3921
0.0383 -0.0148 -0.3906
0.0358 -0.0123 -0.4636
0.0358 -0.0216 -0.4633
0.0383 -0.0221 -0.3899
0.0500 0.0046 -0.2652
0.0500 0.0170 -0.2665
0.0500 -0.0402 -0.2653
0.0500 -0.0316 -0.2642
0.0392 -0.0107 -0.3650
0.0366 -0.0028 -0.4038
0.0365 -0.0279 -0.4031
0.0385 0.0025 -0.3686
0.0357 -0.0164 -0.4161
0.0384 -0.0313 -0.3677
0.0376 -0.0128 -0.3779
0.0500 0.0064 -0.2524
0.0368 -0.0226 -0.3760
0.0500 0.0192 -0.2500
0.0500 -0.0416 -0.2484
0.0384 -0.0235 -0.3472
0.0372 -0.0231 -0.3605
0.0384 -0.0338 -0.3409
0.0354 0.0007 -0.3808
0.0353 -0.0301 -0.3799
0.0327 -0.0075 -0.4337
0.0327 -0.0248 -0.4332
0.0500 0.0083 -0.2393
0.0322 -0.0101 -0.4501
0.0322 -0.0231 -0.4497
0.0500 -0.0339 -0.2382
0.0384 -0.0253 -0.3299
0.0500 0.0214 -0.2332
0.0500 -0.0429 -0.2318
0.0500 0.0102 -0.2257
0.0352 -0.0080 -0.3477
0.0354 0.0064 -0.3420
0.0294 -0.0157 -0.4569
0.0335 0.0045 -0.3554
0.0353 -0.0053 -0.3305
0.0500 0.0237 -0.2158
0.0500 -0.0442 -0.2140
0.0293 -0.0268 -0.4140
0.0292 -0.0045 -0.4146
0.0500 0.0121 -0.2117
0.0500 -0.0363 -0.2104
0.0356 -0.0363 -0.3120
0.0317 -0.0325 -0.3548
0.0356 -0.0273 -0.3102
0.0354 -0.0022 -0.3109
0.0264 -0.0154 -0.4818
0.0264 -0.0196 -0.4817
0.0353 0.0105 -0.3133
0.0264 -0.0141 -0.4742
0.0264 -0.0204 -0.4740
0.0264 -0.0123 -0.4636
0.0264 -0.0216 -0.4633
0.0268 -0.0167 -0.4424
0.0341 0.0062 -0.3220
0.0335 -0.0351 -0.3265
0.0262 -0.0149 -0.4288
0.0500 0.0141 -0.1972
0.0500 0.0259 -0.1983
0.0500 -0.0454 -0.1968
0.0370 -0.0333 -0.2779
0.0353 0.0010 -0.2891
0.0245 -0.0060 -0.4238
0.0245 -0.0258 -0.4233
0.0351 0.0148 -0.2826
0.0500 0.0161 -0.1824
0.0500 -0.0386 -0.1809
0.0246 -0.0011 -0.3928
0.0246 -0.0290 -0.3921
0.0246 -0.0148 -0.3906
0.0246 -0.0221 -0.3899
0.0233 -0.0157 -0.4160
0.0500 0.0282 -0.1803
0.0500 -0.0468 -0.1783
0.0254 0.0025 -0.3686
0.0250 -0.0313 -0.3677
0.0351 0.0046 -0.2652
0.0215 -0.0075 -0.4337
0.0215 -0.0248 -0.4332
0.0202 -0.0101 -0.4501
0.0202 -0.0231 -0.4497
0.0311 -0.0294 -0.2883
0.0500 0.0181 -0.1672
0.0250 -0.0235 -0.3472
0.0232 -0.0116 -0.3706
0.0315 -0.0390 -0.2811
0.0250 -0.0338 -0.3409
0.0500 0.0303 -0.1622
0.0500 -0.0480 -0.1599
0.0250 -0.0253 -0.3299
0.0317 -0.0316 -0.2642
0.0208 -0.0228 -0.3678
0.0269 0.0125 -0.2993
0.0500 0.0201 -0.1516
0.0500 -0.0410 -0.1500
0.0174 -0.0196 -0.4021
0.0152 -0.0154 -0.4818
0.0152 -0.0196 -0.4817
0.0152 -0.0141 -0.4742
0.0152 -0.0204 -0.4740
0.0152 -0.0123 -0.4636
0.0152 -0.0216 -0.4633
0.0291 0.0170 -0.2663
0.0313 0.0192 -0.2500
0.0313 -0.0416 -0.2484
0.0160 -0.0268 -0.4140
0.0500 0.0326 -0.1435
0.0500 -0.0492 -0.1413
0.0157 -0.0045 -0.4146
0.0317 -0.0339 -0.2382
0.0315 0.0083 -0.2393
0.0261 -0.0349 -0.2770
0.0500 0.0221 -0.1357
0.0180 -0.0080 -0.3477
0.0183 0.0064 -0.3420
0.0129 -0.0182 -0.4246
0.0183 -0.0053 -0.3305
0.0500 0.0347 -0.1250
0.0500 -0.0504 -0.1220
0.0319 0.0237 -0.2158
0.0500 0.0241 -0.1196
0.0185 0.0105 -0.3133
0.0185 -0.0363 -0.3120
0.0319 0.0121 -0.2117
0.0185 -0.0022 -0.3109
0.0500 -0.0433 -0.1178
0.0183 -0.0273 -0.3102
0.0189 0.0010 -0.2891
0.0082 -0.0248 -0.4332
0.0082 -0.0075 -0.4337
0.0188 0.0148 -0.2826
0.0090 -0.0290 -0.3921
0.0090 -0.0148 -0.3906
0.0090 -0.0221 -0.3899
0.0500 0.0369 -0.1059
0.0500 -0.0515 -0.1035
0.0100 0.0025 -0.3686
0.0500 0.0261 -0.1031
0.0084 -0.0011 -0.3928
0.0062 -0.0101 -0.4501
0.0062 -0.0231 -0.4497
0.0500 -0.0444 -0.1009
0.0093 -0.0313 -0.3677
0.0189 0.0046 -0.2652
0.0319 0.0161 -0.1824
0.0259 -0.0442 -0.2140
0.0095 -0.0235 -0.3472
0.0319 0.0282 -0.1803
0.0260 -0.0363 -0.2104
0.0095 -0.0338 -0.3409
0.0274 0.0259 -0.1981
0.0095 -0.0253 -0.3299
0.0500 0.0281 -0.0866
0.0500 -0.0455 -0.0846
0.0500 0.0390 -0.0870
0.0020 -0.0154 -0.4818
0.0020 -0.0196 -0.4817
0.0020 -0.0141 -0.4742
0.0020 -0.0204 -0.4740
0.0020 -0.0123 -0.4636
0.0020 -0.0216 -0.4633
0.0500 -0.0526 -0.0834
0.0006 -0.0268 -0.4140
0.0293 -0.0423 -0.1664
0.0103 -0.0294 -0.2883
-0.0000 -0.0045 -0.4146
0.0258 -0.0386 -0.1809
0.0106 -0.0390 -0.2811
-0.0017 -0.0186 -0.4760
0.0367 0.0270 -0.1268
0.0001 -0.0197 -0.4025
0.0261 -0.0468 -0.1783
0.0500 0.0301 -0.0693
0.0500 -0.0465 -0.0674
0.0500 0.0411 -0.0674
0.0500 -0.0536 -0.0649
0.0111 -0.0316 -0.2642
0.0004 -0.0228 -0.3683
-0.0003 -0.0110 -0.3665
0.0111 -0.0416 -0.2484
-0.0057 -0.0167 -0.4798
0.0104 0.0192 -0.2500
0.0500 0.0320 -0.0526
0.0116 -0.0339 -0.2382
-0.0010 -0.0080 -0.3477
0.0500 -0.0476 -0.0505
-0.0009 0.0064 -0.3420
0.0261 0.0201 -0.1516
0.0107 0.0083 -0.2393
0.0259 -0.0410 -0.1500
-0.0006 -0.0053 -0.3305
-0.0071 -0.0248 -0.4332
-0.0072 -0.0075 -0.4337
0.0500 0.0432 -0.0471
0.0500 -0.0546 -0.0449
0.0261 0.0326 -0.1435
-0.0003 0.0105 -0.3133
-0.0005 -0.0022 -0.3109
-0.0091 -0.0101 -0.4501
-0.0091 -0.0231 -0.4497
0.0256 -0.0492 -0.1413
-0.0011 -0.0363 -0.3120
0.0116 0.0237 -0.2158
-0.0015 -0.0273 -0.3102
0.0116 0.0121 -0.2117
0.0356 0.0311 -0.0922
0.0006 0.0010 -0.2891
0.0500 0.0340 -0.0349
-0.0086 -0.0290 -0.3921
-0.0086 -0.0148 -0.3906
0.0500 -0.0485 -0.0326
-0.0086 -0.0221 -0.3899
0.0008 0.0148 -0.2826
-0.0076 0.0025 -0.3686
-0.0096 -0.0011 -0.3928
-0.0123 -0.0154 -0.4818
-0.0123 -0.0196 -0.4817
-0.0123 -0.0141 -0.4742
-0.0123 -0.0204 -0.4740
-0.0084 -0.0313 -0.3677
-0.0123 -0.0123 -0.4636
-0.0123 -0.0216 -0.4633
0.0500 0.0451 -0.0285
-0.0120 -0.0139 -0.4245
0.0010 0.0046 -0.2652
0.0500 -0.0555 -0.0258
-0.0082 -0.0235 -0.3472
0.0260 0.0241 -0.1196
0.0259 -0.0433 -0.1178
-0.0082 -0.0338 -0.3409
-0.0082 -0.0253 -0.3299
0.0118 0.0161 -0.1824
0.0500 0.0358 -0.0181
0.0500 -0.0495 -0.0158
0.0118 0.0282 -0.1803
-0.0151 -0.0268 -0.4140
-0.0157 -0.0045 -0.4146
0.0259 0.0369 -0.1059
0.0254 -0.0515 -0.1035
0.0500 0.0470 -0.0083
0.0500 -0.0563 -0.0056
-0.0173 -0.0197 -0.4023
0.0500 0.0376 0.0001
0.0500 -0.0503 0.0024
0.0260 0.0281 -0.0866
0.0260 -0.0455 -0.0846
-0.0207 -0.0248 -0.4332
-0.0208 -0.0075 -0.4337
-0.0006 -0.0442 -0.2140
-0.0114 -0.0294 -0.2883
-0.0006 -0.0363 -0.2104
-0.0222 -0.0101 -0.4501
-0.0222 -0.0231 -0.4497
-0.0116 -0.0390 -0.2811
-0.0226 -0.0157 -0.4159
0.0318 -0.0476 -0.0505
0.0500 0.0488 0.0106
-0.0202 -0.0228 -0.3678
0.0500 -0.0571 0.0135
-0.0245 -0.0154 -0.4818
-0.0245 -0.0196 -0.4817
-0.0245 -0.0141 -0.4742
-0.0245 -0.0204 -0.4740
-0.0210 -0.0119 -0.3726
-0.0245 -0.0123 -0.4636
-0.0245 -0.0216 -0.4633
-0.0193 -0.0080 -0.3477
-0.0238 -0.0259 -0.4230
-0.0239 -0.0059 -0.4236
-0.0195 0.0064 -0.3420
-0.0114 -0.0316 -0.2642
0.0500 0.0394 0.0170
0.0500 -0.0511 0.0194
-0.0191 -0.0053 -0.3305
0.0260 -0.0536 -0.0649
0.0258 0.0411 -0.0674
-0.0257 -0.0174 -0.4287
-0.0244 -0.0290 -0.3921
0.0001 -0.0386 -0.1809
-0.0244 -0.0148 -0.3906
-0.0244 -0.0221 -0.3899
-0.0108 -0.0416 -0.2484
-0.0188 0.0105 -0.3133
0.0002 -0.0468 -0.1783
-0.0115 0.0192 -0.2500
-0.0191 -0.0022 -0.3109
-0.0254 -0.0011 -0.3928
-0.0239 0.0025 -0.3686
0.0500 0.0500 0.0248
-0.0107 -0.0339 -0.2382
-0.0244 -0.0313 -0.3677
0.0500 -0.0575 0.0278
-0.0198 -0.0363 -0.3120
-0.0201 -0.0273 -0.3102
-0.0116 0.0083 -0.2393
0.0500 0.0405 0.0292
-0.0182 0.0010 -0.2891
0.0262 0.0320 -0.0526
0.0500 -0.0516 0.0317
-0.0243 -0.0235 -0.3472
-0.0178 0.0148 -0.2826
-0.0293 -0.0148 -0.4433
-0.0288 -0.0268 -0.4140
-0.0243 -0.0338 -0.3409
0.0318 0.0451 -0.0285
-0.0292 -0.0045 -0.4146
0.0316 -0.0555 -0.0258
-0.0243 -0.0253 -0.3299
-0.0177 0.0046 -0.2652
0.0500 0.0511 0.0374
0.0500 -0.0579 0.0403
-0.0111 0.0237 -0.2158
0.0002 -0.0410 -0.1500
0.0500 0.0416 0.0407
0.0321 0.0358 -0.0181
-0.0111 0.0121 -0.2117
0.0321 -0.0495 -0.0158
0.0500 -0.0521 0.0433
-0.0323 -0.0248 -0.4332
-0.0323 -0.0075 -0.4337
0.0238 0.0431 -0.0478
[...]
         <PointData>
            <DataArray Name="fValues" NumberOfComponents="3" format="ascii" type="Float64">
 3.21769e-01 -6.34663e+00  1.93249e-01 
-8.95928e-02 -6.33501e+00  4.15358e-01 
 1.05707e-01 -6.11438e+00  2.96349e-01 
 3.81337e-01 -5.95097e+00  1.16527e-01 
-1.85138e-01 -5.93407e+00  4.61300e-01 
 4.19044e-01 -5.66360e+00  6.19288e-02 
-2.35330e-01 -5.63947e+00  5.00739e-01 
 4.44303e-01 -5.38290e+00  2.13931e-02 
-2.72142e-01 -5.35363e+00  5.28136e-01 
 4.85555e-01 -5.01574e+00 -3.85830e-02 
-3.03624e-01 -4.98761e+00  5.61913e-01 
 5.22373e-01 -4.64375e+00 -9.71767e-02 
-3.64717e-01 -4.62295e+00  6.02705e-01 
 5.23370e-01 -4.21623e+00 -1.66182e-01 
-4.14675e-01 -4.18457e+00  6.44535e-01 
 1.16192e-02 -3.90539e+00  2.68835e-01 
 5.21460e-01 -3.76323e+00 -2.44204e-01 
-4.12865e-01 -3.73746e+00  7.00371e-01 
 9.47276e-04 -3.27656e+00  2.58589e-01 
 4.92195e-01 -3.26261e+00 -3.25020e-01 
-4.11044e-01 -3.23421e+00  7.52809e-01 
 4.63041e-01 -2.72098e+00 -4.11828e-01 
-4.09936e-01 -2.68680e+00  8.17165e-01 
 2.31106e-02 -2.41572e+00  1.82677e-01 
 4.19809e-01 -2.14359e+00 -5.04585e-01 
-3.98173e-01 -2.11545e+00  8.94807e-01 
 1.97719e-01 -1.84947e+00 -1.62292e-01 
-1.03883e-01 -1.78528e+00  3.86389e-01 
 3.47821e-01 -1.53092e+00 -5.84885e-01 
-3.55599e-01 -1.48305e+00  9.42840e-01 
 1.30843e-02 -1.39854e+00  1.37973e-01 
-1.93137e-01 -1.35814e+00  5.51060e-01 
 9.47528e-02 -5.42123e+00  2.76373e-01 
 7.97605e-02 -8.63237e-01  4.51703e-02 
 3.00349e-01 -9.08872e-01 -6.68560e-01 
-2.11733e-01 -7.70830e-01  5.75430e-01 
-3.13724e-01 -8.07858e-01  1.00217e+00 
 1.21037e-01 -3.42175e-01 -4.50306e-02 
-2.39402e-01 -1.89495e-01  6.02114e-01 
 2.59951e-01 -2.67428e-01 -7.62814e-01 
-2.84453e-01 -1.39768e-01  1.06962e+00 
 1.02756e-01 -5.75288e+00  2.84030e-01 
 1.30086e-01 -4.07724e+00  1.75414e-01 
 1.84292e-01  2.03924e-01 -1.51675e-01 
 9.29386e-02 -5.57007e+00  2.76263e-01 
-2.84861e-01  3.94145e-01  6.18943e-01 
 2.01971e-01  3.67267e-01 -8.41091e-01 
-2.45727e-01  5.92217e-01  1.13880e+00 
 2.56870e-01  7.38232e-01 -2.55796e-01 
-3.71123e-01  9.96500e-01  6.42631e-01 
 1.21085e-01  9.87523e-01 -9.35093e-01 
-1.90422e-01  1.34084e+00  1.20791e+00 
-4.11810e-01  1.47572e+00  6.96529e-01 
 2.96370e-01 -5.68574e+00  1.85490e-01 
-8.28932e-02 -5.66774e+00  3.60666e-01 
 3.60763e-01 -5.34384e+00  1.20443e-01 
-1.82151e-01 -5.34540e+00  4.04361e-01 
 4.20133e-01 -4.85224e+00  2.50813e-02 
-2.58341e-01 -4.84456e+00  4.80914e-01 
 3.55413e-01  1.54117e+00 -4.09105e-01 
-4.43993e-01  1.94767e+00  7.57908e-01 
 8.45740e-02  1.61848e+00 -1.02200e+00 
-1.38353e-01  2.10101e+00  1.26786e+00 
-2.51566e-01 -1.49779e+00  6.67745e-01 
 4.12129e-01  1.94810e+00 -4.84067e-01 
-5.04673e-01  2.45188e+00  8.22416e-01 
 5.07076e-01 -4.10190e+00 -8.70707e-02 
-3.58220e-01 -4.06031e+00  5.35484e-01 
-9.05487e-02 -1.38102e+00  3.32943e-01 
 5.02559e-01 -3.32561e+00 -2.09027e-01 
-4.00822e-01 -3.31574e+00  6.23024e-01 
 3.14901e-02  2.25875e+00 -1.10491e+00 
-1.26256e-01  2.84495e+00  1.31608e+00 
 4.73363e-01  2.37445e+00 -5.56254e-01 
-5.62611e-01  2.94274e+00  8.86962e-01 
-2.77199e-01 -1.00762e+00  7.92561e-01 
-5.81771e-01  3.39976e+00  9.42162e-01 
 5.11127e-01  2.83884e+00 -6.38603e-01 
-8.75875e-02  3.50246e+00  1.36279e+00 
-3.14999e-02  2.90618e+00 -1.16879e+00 
 5.15669e-01 -3.56432e+00 -1.45409e-01 
 4.31793e-01 -2.32274e+00 -3.37352e-01 
-3.80696e-01 -2.28788e+00  7.03368e-01 
 5.39941e-01  3.28420e+00 -7.16763e-01 
-6.26693e-01  3.92041e+00  1.01848e+00 
-8.08902e-02  3.50929e+00 -1.22440e+00 
 3.81529e-02 -3.17003e+00  2.01905e-01 
-4.40757e-02  4.15728e+00  1.40790e+00 
 5.88260e-01  3.70587e+00 -7.91850e-01 
 2.93295e-01 -3.87053e+00  7.35235e-02 
-1.00388e-01 -1.53638e+00  3.28152e-01 
 4.63112e-01 -2.63374e+00 -2.63975e-01 
-3.86986e-01 -2.60897e+00  6.16750e-01 
 3.17430e-01 -1.24129e+00 -5.07805e-01 
 2.75654e-01 -4.95774e+00  1.68204e-01 
-9.72319e-02 -4.94842e+00  3.24647e-01 
 3.46666e-01 -4.66857e+00  1.20622e-01 
-1.63350e-01 -4.66741e+00  3.63728e-01 
-3.19171e-01 -1.21285e+00  7.85766e-01 
 1.62536e-02 -1.13481e+00  1.03582e-01 
 4.15567e-01 -4.24679e+00  3.48299e-02 
-2.51236e-01 -4.24549e+00  4.30667e-01 
-1.77688e-01 -1.09957e+00  4.61253e-01 
 6.06976e-01  4.08788e+00 -8.71641e-01 
-1.63680e-01  4.04454e+00 -1.25424e+00 
-2.37671e-02  4.72934e+00  1.41623e+00 
-6.88468e-01  4.76456e+00  1.14565e+00 
 1.70923e-01 -2.59930e-02 -9.37047e-02 
 3.59218e-01 -1.65832e+00 -3.92757e-01 
-3.54573e-01 -1.66369e+00  6.91848e-01 
 2.07235e-01 -1.94302e-01 -6.55869e-01 
 4.59268e-03 -2.19599e+00  1.94179e-01 
-2.47311e-01 -9.25937e-02  9.14142e-01 
 9.72257e-02 -5.75850e-01  1.86515e-02 
 6.47732e-01  4.45422e+00 -9.45575e-01 
-1.90680e-01 -4.61410e-01  4.77533e-01 
-1.95521e-01  4.50338e+00 -1.28445e+00 
 5.39372e-03  5.39324e+00  1.51639e+00 
-3.49029e-01  8.19873e-01  5.75150e-01 
-2.68748e-01  2.43867e-01  5.22025e-01 
-1.62665e-01  1.09061e+00  1.03749e+00 
 2.56214e-01 -6.87692e-01 -5.36865e-01 
-2.68450e-01 -6.15891e-01  7.83085e-01 
 4.70713e-01 -2.82445e+00 -1.81883e-01 
-3.70951e-01 -2.80642e+00  5.30285e-01 
 6.91609e-01  4.79833e+00 -1.00769e+00 
 4.51356e-01 -3.42621e+00 -6.76164e-02 
-3.36821e-01 -3.42505e+00  4.51794e-01 
-7.65256e-01  5.83163e+00  1.20722e+00 
-4.07421e-01  1.60237e+00  6.54903e-01 
-2.10118e-01  4.93036e+00 -1.32611e+00 
 3.95344e-02  6.01732e+00  1.51363e+00 
 7.27967e-01  5.12837e+00 -1.06217e+00 
 2.36707e-01  6.57340e-01 -2.12137e-01 
 9.20059e-02  8.95706e-01 -7.91223e-01 
 1.49790e-01 -3.51235e+00  1.39100e-01 
 1.60372e-01  3.63135e-01 -6.73029e-01 
 3.20028e-01  1.26813e+00 -3.58713e-01 
-2.28241e-01  5.33439e+00 -1.33845e+00 
 2.38063e-02  6.59165e+00  1.54505e+00 
-3.40254e-01 -1.85854e+00  5.71686e-01 
 3.62773e-01 -1.87870e+00 -3.10732e-01 
 7.53906e-01  5.44082e+00 -1.11594e+00 
-8.18403e-01  6.72701e+00  1.31799e+00 
-8.38215e-02  2.18839e+00  1.07718e+00 
-1.85559e-01  4.19799e-01  8.41752e-01 
-5.08955e-01  2.25379e+00  7.28940e-01 
 4.28123e-01  1.86967e+00 -4.08473e-01 
 2.54853e-01 -4.13561e+00  1.56197e-01 
-7.34969e-02 -4.13353e+00  2.67756e-01 
 1.56165e-02  1.71468e+00 -8.67237e-01 
 3.33278e-01 -3.93477e+00  1.10895e-01 
-1.50732e-01 -3.92247e+00  3.03579e-01 
 3.70615e-01 -3.57141e+00  3.14301e-02 
-2.35945e-01 -3.56455e+00  3.44799e-01 
 5.21372e-02 -2.82828e+00  1.66468e-01 
 8.63043e-02  1.45516e+00 -7.30040e-01 
-7.51883e-02  1.56869e+00  9.93465e-01 
 8.92296e-02 -2.32936e+00  1.00048e-01 
 7.65512e-01  5.68583e+00 -1.16056e+00 
-2.53556e-01  5.65421e+00 -1.34707e+00 
 1.15199e-02  7.00858e+00  1.52832e+00 
-4.05719e-01  3.39968e+00  9.91327e-01 
 5.03357e-01  2.57421e+00 -5.45834e-01 
 4.01851e-01 -2.08271e+00 -2.21254e-01 
-3.49012e-01 -2.06088e+00  4.81774e-01 
-1.08949e-01  2.73584e+00 -9.69973e-01 
 7.54988e-01  5.90631e+00 -1.20154e+00 
-8.33885e-01  7.34241e+00  1.39167e+00 
 2.74921e-01 -9.51155e-01 -4.07296e-01 
-2.78301e-01 -9.00920e-01  6.27619e-01 
 9.68580e-03 -8.49139e-01  8.01545e-02 
-1.56629e-01 -8.17357e-01  3.69450e-01 
 2.05895e-02 -1.75147e+00  1.11976e-01 
-2.77134e-01  5.90931e+00 -1.34265e+00 
 3.87474e-02  7.34038e+00  1.44527e+00 
 1.57801e-01 -1.26443e-01 -5.32877e-01 
-1.97269e-01 -6.81608e-02  7.10984e-01 
 5.59987e-01  3.18192e+00 -7.13995e-01 
 4.13935e-01 -2.27722e+00 -1.38647e-01 
-3.21000e-01 -2.26732e+00  3.87989e-01 
 3.89599e-01 -2.74373e+00 -3.21377e-02 
-3.00346e-01 -2.72978e+00  3.44544e-01 
-5.37717e-01  2.74846e+00  7.78369e-01 
 7.66427e-01  6.02308e+00 -1.23384e+00 
-3.11283e-01  5.70049e-01  4.58122e-01 
 1.01104e-01 -2.00622e-01 -4.67051e-02 
-8.30288e-03  2.97546e+00  1.08362e+00 
-1.20499e-01  7.98768e-01  8.28735e-01 
-2.78483e-01  6.02312e+00 -1.29025e+00 
 7.06414e-02  7.34489e+00  1.42522e+00 
-3.67391e-01  1.11879e+00  5.60691e-01 
-6.11644e-01  3.43064e+00  8.96515e-01 
-1.87627e-01 -6.65142e-02  4.36138e-01 
-3.15362e-02  1.89106e+00 -8.12839e-01 
 7.61512e-01  6.06579e+00 -1.26132e+00 
-7.65200e-01  7.37702e+00  1.41010e+00 
-8.87492e-02 -1.08298e+00  2.44784e-01 
 2.34586e-01 -3.24951e+00  1.25010e-01 
-5.58672e-02 -3.24828e+00  2.11070e-01 
 2.91812e-01 -3.08541e+00  8.66907e-02 
-1.43839e-01 -3.07653e+00  2.38354e-01 
 3.39463e-01 -2.82871e+00  3.83914e-02 
-2.10743e-01 -2.83072e+00  2.72963e-01 
-1.77300e-01  2.79835e+00 -8.98812e-01 
-2.08926e-01  3.22307e+00 -9.65707e-01 
 1.21006e-03  3.79546e+00  1.16869e+00 
-2.99712e-01 -1.44331e+00  4.39966e-01 
-2.62135e-01  6.07486e+00 -1.25489e+00 
 7.84971e-02  7.28594e+00  1.33257e+00 
 3.36067e-01 -1.45308e+00 -2.11619e-01 
-6.60800e-01  4.10033e+00  9.64296e-01 
 6.26197e-01  3.45873e+00 -7.61683e-01 
-2.89297e-01  2.74604e+00  8.78909e-01 
 7.76427e-01  6.06443e+00 -1.26752e+00 
 1.95262e-01  4.39766e-01 -1.85836e-01 
 4.71003e-02  5.62451e-01 -5.74809e-01 
-5.28730e-02 -1.61879e+00  1.66009e-01 
 2.95233e-01  9.03689e-01 -2.48479e-01 
-2.47013e-01  6.00192e+00 -1.19823e+00 
 7.88962e-02  7.07276e+00  1.30981e+00 
-2.46537e-01  3.89840e+00 -1.03739e+00 
 7.42128e-01  5.98657e+00 -1.27672e+00 
-3.64396e-02  1.32625e+00 -6.39596e-01 
-4.47423e-02  1.43985e+00  7.99221e-01 
 6.83763e-01  3.96863e+00 -8.46696e-01 
 3.64955e-01  1.39081e+00 -3.57523e-01 
-7.35148e-01  7.04155e+00  1.39788e+00 
-4.17254e-01  1.48581e+00  5.64616e-01 
 4.14534e-01  1.83517e+00 -4.77236e-01 
-3.21318e-01 -1.66159e+00  3.17568e-01 
 3.82548e-01 -1.68662e+00 -1.02708e-01 
-1.35761e-01  1.90605e+00 -7.12210e-01 
-2.23665e-01 -6.27250e-01  4.50541e-01 
 1.88092e-03 -5.83489e-01  6.41458e-02 
-1.47279e-01 -5.77341e-01  2.76280e-01 
-2.06810e-01  5.87012e+00 -1.13225e+00 
 2.50030e-02  6.83523e+00  1.26266e+00 
 1.43915e-01 -9.60998e-02 -3.90713e-01 
 7.63713e-01  5.84799e+00 -1.25890e+00 
 2.21986e-01 -6.21369e-01 -3.10541e-01 
 3.53925e-01 -1.99388e+00 -3.97616e-02 
-2.75621e-01 -1.98137e+00  2.50258e-01 
-7.73989e-01  6.80385e+00  1.37106e+00 
-1.43098e-01 -8.69203e-02  5.25198e-01 
 4.99409e-01  2.23145e+00 -5.45433e-01 
 6.88618e-01  4.31892e+00 -9.12671e-01 
 7.64036e-02  4.21119e+00  1.08690e+00 
-2.32340e-01  3.51665e-01  3.66131e-01 
-2.93658e-01  4.33613e+00 -1.00991e+00 
-6.84966e-01  4.31153e+00  9.41126e-01 
-9.89993e-02  4.76828e-01  6.15153e-01 
-2.50450e-01  3.75794e+00 -9.39124e-01 
-3.06032e-01  7.28695e-01  4.31095e-01 
 7.33470e-01  5.60111e+00 -1.24625e+00 
-7.48580e-01  6.53494e+00  1.33814e+00 
-1.51749e-01  5.59755e+00 -1.04868e+00 
 2.07385e-01 -2.35963e+00  9.71385e-02 
-4.94334e-02 -2.35783e+00  1.60649e-01 
 2.40042e-01 -2.22832e+00  7.01403e-02 
-1.23949e-01 -2.22715e+00  1.80143e-01 
 3.00996e-01 -2.04342e+00  2.32106e-02 
-1.79389e-01 -2.02866e+00  1.88854e-01 
 5.69124e-03  6.49759e+00  1.21578e+00 
-2.82608e-01 -9.99525e-01  3.31712e-01 
-4.22517e-01  5.12439e+00  1.05366e+00 
-3.81723e-01  1.58589e+00  5.58896e-01 
 3.03521e-01 -9.68883e-01 -1.51326e-01 
-7.06624e-01  4.77154e+00  9.61133e-01 
 2.56534e-02  1.68808e+00  7.34814e-01 
-3.93365e-03 -2.04793e+00  1.32527e-01 
 3.77615e-01  4.86400e+00 -1.02826e+00 
-7.01180e-02 -7.14487e-01  1.60746e-01 
 9.39509e-02  4.80432e+00  1.03716e+00 
 6.47480e-01  5.23711e+00 -1.22587e+00 
-7.52751e-01  6.23810e+00  1.30196e+00 
-1.20989e-01  5.17719e+00 -9.79128e-01 
-5.86879e-02  6.18222e+00  1.17261e+00 
-5.20721e-01  2.10678e+00  5.93254e-01 
-1.20743e-01 -1.13663e-01  2.61049e-01 
 9.18113e-02 -1.08077e-02 -8.15841e-02 
 2.54269e-02  2.40708e+00  8.01309e-01 
 1.18470e-01 -1.86832e+00  9.36311e-02 
-1.85581e-01  1.98719e+00 -6.36676e-01 
 6.53402e-01  4.87942e+00 -1.17022e+00 
-5.60810e-01  2.62060e+00  6.82240e-01 
 1.37951e-01  2.59096e-01 -1.14608e-01 
-7.60541e-01  5.94507e+00  1.26528e+00 
 1.56312e-02  3.28335e-01 -3.44927e-01 
 6.67050e-01  3.95446e+00 -8.57201e-01 
 4.80245e-01  2.08520e+00 -5.25376e-01 
-6.29707e-01  4.76346e+00  9.88954e-01 
 2.36585e-01  5.11234e-01 -1.58429e-01 
-3.00682e-01 -1.08955e+00  2.31288e-01 
 3.56140e-01 -1.10711e+00 -8.94499e-02 
-1.08657e-01  4.72094e+00 -8.86471e-01 
-8.18766e-02  5.80676e+00  1.10399e+00 
-2.61999e-01  3.95891e+00 -8.64003e-01 
-6.88870e-02  8.33638e-01 -4.19882e-01 
 2.96118e-01  8.70710e-01 -2.56095e-01 
 3.09712e-01 -1.26423e+00 -1.35852e-02 
-2.45585e-01 -1.26102e+00  1.85029e-01 
 1.44544e-01  4.66561e+00  9.39679e-01 
-1.96354e-02  8.02620e-01  5.29111e-01 
-2.37377e-01  2.39339e+00 -6.90299e-01 
-2.99329e-01  8.38019e-01  3.90128e-01 
 5.74144e-01  2.46900e+00 -5.81156e-01 
 3.81059e-01  4.52524e+00 -9.64573e-01 
 3.15590e-01  1.13456e+00 -3.04316e-01 
 6.39915e-01  4.40714e+00 -1.12389e+00 
-1.80867e-01 -3.76861e-01  2.63574e-01 
 2.13847e-02 -3.86501e-01  5.64664e-02 
-7.11876e-01  5.50691e+00  1.24251e+00 
-1.02976e-01 -3.55336e-01  1.80840e-01 
-1.21159e-01  1.18727e+00 -4.79345e-01 
 8.44031e-02 -3.89504e-02 -2.51486e-01 
 1.73250e-01 -3.88377e-01 -1.74203e-01 
 1.92543e-01 -1.51271e+00  5.57240e-02 
-4.42947e-02 -1.49775e+00  1.12398e-01 
 2.04519e-01 -1.39668e+00  4.26297e-02 
-1.06358e-01 -1.40066e+00  1.18881e-01 
-1.13177e-01 -7.86951e-02  3.22421e-01 
 2.57202e-01 -1.28235e+00  1.27005e-02 
-1.68622e-01 -1.28783e+00  1.33450e-01 
-4.05134e-02  4.21127e+00 -7.82196e-01 
 7.69711e-02 -7.79742e-01  1.77959e-02 
 4.01268e-01  1.39223e+00 -3.71168e-01 
-1.50324e-01  5.32381e+00  1.04599e+00 
-1.32919e-01  1.53857e-01  2.43860e-01 
 6.47641e-01  3.91919e+00 -8.68297e-01 
-6.32246e-01  4.45953e+00  9.98017e-01 
-5.58845e-02  2.22511e-01  3.97153e-01 
-2.18409e-01  3.83959e-01  2.84980e-01 
 5.65503e-01  2.75688e+00 -6.19902e-01 
 6.29086e-01  3.88526e+00 -1.06511e+00 
-7.33755e-01  5.05932e+00  1.18387e+00 
-2.78889e-01  2.75489e+00 -6.91163e-01 
-2.37503e-01 -5.55168e-01  2.21571e-01 
 2.48949e-01 -5.59011e-01 -9.13339e-02 
-2.29729e-01  3.83067e+00 -7.73798e-01 
 8.46407e-02  4.22465e+00  8.76563e-01 
 2.88156e-02  3.52043e+00 -6.51398e-01 
-2.18057e-01  4.73825e+00  9.65929e-01 
-6.48431e-02 -3.53935e-01  9.63487e-02 
 5.72832e-01  3.20043e+00 -1.01407e+00 
-6.80111e-01  4.50985e+00  1.14370e+00 
 6.11516e-01  3.69911e+00 -8.63672e-01 
-6.27337e-01  4.05012e+00  9.40252e-01 
-2.72891e-01 -6.00290e-01  1.45198e-01 
 3.01179e-01 -6.20388e-01 -6.90828e-02 
 8.57751e-02  2.02844e+00  6.21397e-01 
-2.77003e-01  7.46910e-01  3.14714e-01 
-4.70763e-01  2.04549e+00  5.63221e-01 
 2.69171e-01 -6.98073e-01 -1.39131e-02 
-2.06651e-01 -6.90563e-01  1.19121e-01 
 1.29560e-02  8.17437e-01  4.01876e-01 
 1.72048e-02 -3.84422e-01  3.86474e-02 
-6.85368e-01  4.18940e+00  9.83553e-01 
 1.21552e-01  2.74805e+00 -5.52269e-01 
-6.63605e-02 -6.86677e-02  1.49448e-01 
-3.07002e-01  4.13418e+00  8.99914e-01 
 1.56535e-01 -8.65478e-01  3.68565e-02 
-4.37368e-02 -8.62200e-01  8.05535e-02 
 1.81959e-01 -7.89424e-01  3.04473e-02 
-9.42377e-02 -7.89966e-01  7.52299e-02 
 9.63746e-03 -6.39540e-02 -1.58856e-02 
 2.05172e-01 -7.01665e-01  1.53426e-02 
-1.28328e-01 -7.06776e-01  8.05859e-02 
 1.21317e-01  8.97420e-02 -6.89621e-02 
-2.05849e-01 -3.97217e-01  1.30050e-01 
 2.30085e-01 -4.15561e-01 -5.64669e-02 
 1.44683e-02  1.11108e-01 -1.70999e-01 
-3.07078e-01  9.17948e-01  3.57463e-01 
 5.32028e-01  2.50980e+00 -9.36999e-01 
-6.79634e-01  3.92915e+00  1.12358e+00 
 1.80551e-01  1.59612e-01 -9.30594e-02 
-8.28417e-03  3.81352e+00  8.32975e-01 
-1.84020e-01  3.40694e+00 -6.99895e-01 
-2.13497e-02 -3.86053e-01  4.96083e-02 
-1.28713e-01 -1.75960e-01  1.44441e-01 
-5.41210e-01  2.32462e+00  5.67257e-01 
 4.59461e-04 -1.66058e-01  3.65150e-02 
-6.42486e-02 -1.60543e-01  1.06899e-01 
 5.14653e-02  1.08415e+00  4.72690e-01 
-8.06367e-02  3.75585e-01 -2.59203e-01 
 1.10831e-01  2.34152e+00  6.17816e-01 
-1.64898e-01  9.15507e-01 -3.46862e-01 
 1.89464e-01  3.89237e-01 -1.38188e-01 
 1.18899e-01 -1.79409e-01 -8.16537e-02 
 5.02822e-02 -3.29934e-02 -1.11862e-01 
 1.80132e-01  2.16304e+00 -4.77060e-01 
-4.00223e-01  1.19478e+00  4.00647e-01 
-7.78187e-02 -5.03062e-02  1.78176e-01 
-3.17932e-01  3.55335e+00  8.38646e-01 
-2.60446e-03  3.46177e-01  2.76853e-01 
-1.96880e-01  3.67415e-01  2.08607e-01 
 3.33442e-01  9.57800e-01 -2.95826e-01 
 4.96698e-01  1.98726e+00 -8.94025e-01 
 2.25496e-01  5.68015e-01 -1.82883e-01 
 5.66206e-01  3.21123e+00 -8.47601e-01 
-6.40238e-01  3.39876e+00  1.09551e+00 
-7.59826e-02  7.36806e-02  1.35302e-01 
-9.82441e-02  6.04865e-01 -2.54103e-01 
 5.33238e-02 -3.96003e-01  1.44589e-02 
-1.49151e-01 -2.61540e-01  1.10409e-01 
-1.75241e-02  1.08615e-01  2.16717e-01 
-6.70321e-02  3.03839e+00 -6.08927e-01 
 1.66147e-01 -2.75895e-01 -4.93029e-02 
-9.70631e-02  3.80143e+00  8.47026e-01 
-1.35689e-01  1.89159e-01  1.73200e-01 
 2.76631e-01  6.65226e-01 -2.29845e-01 
 2.39170e-01  1.58500e+00 -3.80389e-01 
-3.79154e-01  2.96228e+00  7.75411e-01 
-1.91145e-01  1.08028e+00 -3.70002e-01 
-4.61238e-01  2.32984e+00  6.07843e-01 
 4.72992e-01  1.45611e+00 -8.38111e-01 
 5.38745e-01  2.82849e+00 -8.36941e-01 
 3.83482e-01  1.12329e+00 -3.11195e-01 
-5.92678e-01  3.72396e+00  9.18311e-01 
-6.40956e-01  2.82397e+00  1.07417e+00 
-1.73713e-01 -2.75927e-01  6.36891e-02 
 1.78297e-01 -2.70228e-01 -2.11308e-02 
-1.12262e-01  2.95196e+00 -6.02870e-01 
 4.83649e-01  1.94282e+00 -4.66838e-01 
-6.92427e-02  3.37610e+00  7.59302e-01 
 1.69973e-01 -3.29456e-01 -2.46186e-04 
-1.48305e-01 -2.99638e-01  5.47930e-02 
 1.47575e-01  2.28566e+00  5.64543e-01 
 1.17415e-01 -3.96156e-01  3.02600e-02 
-2.89591e-02 -3.83335e-01  4.04107e-02 
 1.40986e-01 -3.73656e-01  2.01665e-02 
-8.31821e-02 -3.52586e-01  4.34019e-02 
 1.44716e-01 -3.36647e-01  1.07727e-02 
-8.65885e-02 -2.97883e-01  3.45201e-02 
-2.29751e-01  1.90398e+00 -4.81249e-01 
 2.90687e-01  1.03322e+00 -3.35232e-01 
-4.19649e-01  2.28556e+00  7.14938e-01 
-1.37472e-02 -9.34463e-03  1.53737e-01 
 4.54800e-01  9.43790e-01 -7.64287e-01 
-6.93863e-02  3.01851e-01 -1.77325e-01 
-6.27636e-01  2.18982e+00  1.04014e+00 
-2.66717e-02 -9.23283e-02  3.55168e-02 
 1.40035e-02 -1.31875e-01  1.71301e-02 
 4.16737e-01  1.30123e+00 -3.28857e-01 
-2.48008e-01  1.25937e+00 -3.75873e-01 
-6.01986e-02 -5.32364e-02  9.51125e-02 
-1.37617e-01 -1.39464e-01  5.24250e-02 
 1.46037e-01 -1.44533e-01 -2.27366e-02 
-8.52124e-02 -9.75734e-02  5.48628e-02 
 2.62627e-02 -7.77693e-03 -6.32454e-02 
 6.35405e-02 -4.03955e-02 -7.70075e-02 
 9.82103e-02 -9.07907e-02 -5.16989e-02 
 7.26098e-03 -1.37805e-01  1.56552e-02 
-6.09882e-01  3.11812e+00  9.76171e-01 
-4.57114e-01  2.10247e+00  5.96500e-01 
 5.04048e-01  1.94436e+00 -4.83628e-01 
-2.35370e-02 -3.02459e-02  7.01356e-02 
-6.17070e-01  3.19304e+00  8.70883e-01 
 9.20745e-03  1.92933e-01  1.89265e-01 
 2.95222e-02  7.91379e-03 -2.29676e-02 
-4.89793e-01  2.37356e+00  8.33478e-01 
 3.56740e-01  4.05140e-01 -2.84919e-01 
 4.46443e-01  3.81410e-01 -6.90043e-01 
-4.68581e-01  1.44963e+00  6.64146e-01 
-1.10880e-01 -1.21982e-01  2.61843e-02 
 1.26627e-01 -1.23125e-01  5.86273e-04 
-6.15942e-01  1.42394e+00  9.98094e-01 
 3.09002e-03 -1.31851e-02 -8.48227e-03 
-6.58080e-02 -6.13141e-02  6.38339e-02 
-1.00462e-02 -4.18905e-02  1.78016e-02 
-3.24195e-02 -4.74539e-02  4.98624e-02 
 4.32250e-03  6.70206e-02  1.32349e-01 
 5.28841e-02  1.83476e-02 -3.05717e-02 
 4.97992e-02 -5.51716e-02 -4.02521e-02 
 3.93958e-02  1.92383e+00 -4.33343e-01 
 9.19151e-03 -1.01072e-02 -5.50644e-02 
-1.77858e-02 -2.20563e-02  7.55146e-02 
-7.10594e-02 -8.16536e-02  4.61670e-02 
-2.60863e-01  3.06606e+00  7.41218e-01 
 2.65883e-02 -1.33304e-02 -5.10413e-02 
 7.11412e-02 -8.20267e-02 -3.20691e-02 
-3.20965e-02 -3.28529e-02  7.93990e-02 
 7.66800e-02  2.80974e-02 -2.90547e-02 
-1.44330e-01  2.12763e-01  1.42821e-01 
 8.52052e-02  1.98672e+00  5.31220e-01 
-5.87449e-01  2.60780e+00  9.50110e-01 
-7.37865e-02 -8.91116e-02  2.26054e-02 
 7.99292e-02 -8.85709e-02 -2.46570e-03 
 8.29965e-02 -9.23115e-02  1.97458e-02 
-8.24243e-02 -8.34947e-02  9.10026e-03 
-2.12773e-01  1.93064e+00 -4.54469e-01 
 4.59842e-01  1.79043e+00 -7.02907e-01 
-1.06953e-01  3.08934e-01 -1.48259e-01 
 6.11252e-02 -1.10984e-01  1.37119e-02 
-3.41566e-02 -1.01560e-01  6.38751e-03 
 7.03760e-02 -1.01248e-01  7.17569e-03 
-6.07167e-02 -1.14308e-01  8.97787e-03 