<?xml version="1.0" encoding="utf-8"?>
<VTKFile byte_order="LittleEndian" type="UnstructuredGrid" version="0.1">
   <UnstructuredGrid>
      <Piece NumberOfCells="27720" NumberOfPoints="8756">
         <Points>
            <DataArray Name="Points" NumberOfComponents="3" format="ascii" type="Float32">
0.0500 -0.0154 -0.4818
0.0500 -0.0196 -0.4817
0.0500 -0.0174 -0.4774
0.0500 -0.0141 -0.4742
0.0500 -0.0204 -0.4740
0.0500 -0.0132 -0.4689
0.0500 -0.0210 -0.4687
0.0500 -0.0123 -0.4636
0.0500 -0.0216 -0.4633
0.0500 -0.0112 -0.4569
0.0500 -0.0223 -0.4566
0.0500 -0.0101 -0.4501
0.0500 -0.0231 -0.4497
0.0500 -0.0089 -0.4421
0.0500 -0.0239 -0.4417
0.0500 -0.0169 -0.4365
0.0500 -0.0075 -0.4337
0.0500 -0.0248 -0.4332
0.0500 -0.0168 -0.4250
0.0500 -0.0061 -0.4245
0.0500 -0.0258 -0.4241
0.0500 -0.0045 -0.4146
0.0500 -0.0268 -0.4140
0.0500 -0.0155 -0.4092
0.0500 -0.0029 -0.4041
0.0500 -0.0278 -0.4035
0.0500 -0.0092 -0.3989
0.0500 -0.0192 -0.3978
0.0500 -0.0011 -0.3928
0.0500 -0.0290 -0.3921
0.0500 -0.0148 -0.3906
0.0500 -0.0221 -0.3899
0.0472 -0.0171 -0.4691
0.0500 -0.0132 -0.3803
0.0500 0.0006 -0.3811
0.0500 -0.0224 -0.3793
0.0500 -0.0301 -0.3799
0.0500 -0.0115 -0.3700
0.0500 -0.0228 -0.3687
0.0500 0.0025 -0.3686
0.0500 -0.0313 -0.3677
0.0457 -0.0174 -0.4783
0.0460 -0.0155 -0.4445
0.0500 -0.0098 -0.3592
0.0454 -0.0173 -0.4752
0.0500 -0.0232 -0.3580
0.0500 0.0044 -0.3556
0.0500 -0.0325 -0.3544
0.0500 -0.0080 -0.3477
0.0500 -0.0235 -0.3472
0.0500 0.0064 -0.3420
0.0500 -0.0338 -0.3409
0.0500 -0.0244 -0.3386
0.0435 -0.0154 -0.4818
0.0435 -0.0196 -0.4817
0.0435 -0.0141 -0.4742
0.0435 -0.0204 -0.4740
0.0435 -0.0123 -0.4636
0.0435 -0.0216 -0.4633
0.0500 -0.0053 -0.3305
0.0500 -0.0253 -0.3299
0.0500 0.0084 -0.3279
0.0500 -0.0350 -0.3268
0.0445 -0.0250 -0.3948
0.0500 -0.0037 -0.3207
0.0500 -0.0263 -0.3202
0.0421 -0.0101 -0.4501
0.0421 -0.0231 -0.4497
0.0438 -0.0187 -0.3928
0.0421 -0.0075 -0.4337
0.0421 -0.0248 -0.4332
0.0500 0.0105 -0.3133
0.0500 -0.0363 -0.3120
0.0500 -0.0022 -0.3109
0.0500 -0.0273 -0.3102
0.0435 -0.0275 -0.3862
0.0500 -0.0282 -0.3001
0.0500 -0.0006 -0.3002
0.0500 -0.0376 -0.2976
0.0500 0.0126 -0.2984
0.0398 -0.0088 -0.4419
0.0405 -0.0045 -0.4146
0.0405 -0.0268 -0.4140
0.0500 0.0010 -0.2891
0.0500 -0.0294 -0.2883
0.0500 0.0148 -0.2826
0.0382 -0.0165 -0.4351
0.0500 -0.0390 -0.2811
0.0500 0.0028 -0.2773
0.0367 -0.0133 -0.4532
0.0385 -0.0193 -0.3991
0.0374 -0.0060 -0.4240
0.0374 -0.0258 -0.4235
0.0385 -0.0011 -0.3928
0.0358 -0.0154 -0.4818
0.0358 -0.0196 -0.4817
0.0358 -0.0141 -0.4742
0.0358 -0.0204 -0.4740
0.0383 -0.0290 -0.3921
0.0383 -0.0148 -0.3906
0.0358 -0.0123 -0.4636
0.0358 -0.0216 -0.4633
0.0383 -0.0221 -0.3899
0.0500 0.0046 -0.2652
0.0500 0.0170 -0.2665
0.0500 -0.0402 -0.2653
0.0500 -0.0316 -0.2642
0.0392 -0.0107 -0.3650
0.0366 -0.0028 -0.4038
0.0365 -0.0279 -0.4031
0.0385 0.0025 -0.3686
0.0357 -0.0164 -0.4161
0.0384 -0.0313 -0.3677
0.0376 -0.0128 -0.3779
0.0500 0.0064 -0.2524
0.0368 -0.0226 -0.3760
0.0500 0.0192 -0.2500
0.0500 -0.0416 -0.2484
0.0384 -0.0235 -0.3472
0.0372 -0.0231 -0.3605
0.0384 -0.0338 -0.3409
0.0354 0.0007 -0.3808
0.0353 -0.0301 -0.3799
0.0327 -0.0075 -0.4337
0.0327 -0.0248 -0.4332
0.0500 0.0083 -0.2393
0.0322 -0.0101 -0.4501
0.0322 -0.0231 -0.4497
0.0500 -0.0339 -0.2382
0.0384 -0.0253 -0.3299
0.0500 0.0214 -0.2332
0.0500 -0.0429 -0.2318
0.0500 0.0102 -0.2257
0.0352 -0.0080 -0.3477
0.0354 0.0064 -0.3420
0.0294 -0.0157 -0.4569
0.0335 0.0045 -0.3554
0.0353 -0.0053 -0.3305
0.0500 0.0237 -0.2158
0.0500 -0.0442 -0.2140
0.0293 -0.0268 -0.4140
0.0292 -0.0045 -0.4146
0.0500 0.0121 -0.2117
0.0500 -0.0363 -0.2104
0.0356 -0.0363 -0.3120
0.0317 -0.0325 -0.3548
0.0356 -0.0273 -0.3102
0.0354 -0.0022 -0.3109
0.0264 -0.0154 -0.4818
0.0264 -0.0196 -0.4817
0.0353 0.0105 -0.3133
0.0264 -0.0141 -0.4742
0.0264 -0.0204 -0.4740
0.0264 -0.0123 -0.4636
0.0264 -0.0216 -0.4633
0.0268 -0.0167 -0.4424
0.0341 0.0062 -0.3220
0.0335 -0.0351 -0.3265
0.0262 -0.0149 -0.4288
0.0500 0.0141 -0.1972
0.0500 0.0259 -0.1983
0.0500 -0.0454 -0.1968
0.0370 -0.0333 -0.2779
0.0353 0.0010 -0.2891
0.0245 -0.0060 -0.4238
0.0245 -0.0258 -0.4233
0.0351 0.0148 -0.2826
0.0500 0.0161 -0.1824
0.0500 -0.0386 -0.1809
0.0246 -0.0011 -0.3928
0.0246 -0.0290 -0.3921
0.0246 -0.0148 -0.3906
0.0246 -0.0221 -0.3899
0.0233 -0.0157 -0.4160
0.0500 0.0282 -0.1803
0.0500 -0.0468 -0.1783
0.0254 0.0025 -0.3686
0.0250 -0.0313 -0.3677
0.0351 0.0046 -0.2652
0.0215 -0.0075 -0.4337
0.0215 -0.0248 -0.4332
0.0202 -0.0101 -0.4501
0.0202 -0.0231 -0.4497
0.0311 -0.0294 -0.2883
0.0500 0.0181 -0.1672
0.0250 -0.0235 -0.3472
0.0232 -0.0116 -0.3706
0.0315 -0.0390 -0.2811
0.0250 -0.0338 -0.3409
0.0500 0.0303 -0.1622
0.0500 -0.0480 -0.1599
0.0250 -0.0253 -0.3299
0.0317 -0.0316 -0.2642
0.0208 -0.0228 -0.3678
0.0269 0.0125 -0.2993
0.0500 0.0201 -0.1516
0.0500 -0.0410 -0.1500
0.0174 -0.0196 -0.4021
0.0152 -0.0154 -0.4818
0.0152 -0.0196 -0.4817
0.0152 -0.0141 -0.4742
0.0152 -0.0204 -0.4740
0.0152 -0.0123 -0.4636
0.0152 -0.0216 -0.4633
0.0291 0.0170 -0.2663
0.0313 0.0192 -0.2500
0.0313 -0.0416 -0.2484
0.0160 -0.0268 -0.4140
0.0500 0.0326 -0.1435
0.0500 -0.0492 -0.1413
0.0157 -0.0045 -0.4146
0.0317 -0.0339 -0.2382
0.0315 0.0083 -0.2393
0.0261 -0.0349 -0.2770
0.0500 0.0221 -0.1357
0.0180 -0.0080 -0.3477
0.0183 0.0064 -0.3420
0.0129 -0.0182 -0.4246
0.0183 -0.0053 -0.3305
0.0500 0.0347 -0.1250
0.0500 -0.0504 -0.1220
0.0319 0.0237 -0.2158
0.0500 0.0241 -0.1196
0.0185 0.0105 -0.3133
0.0185 -0.0363 -0.3120
0.0319 0.0121 -0.2117
0.0185 -0.0022 -0.3109
0.0500 -0.0433 -0.1178
0.0183 -0.0273 -0.3102
0.0189 0.0010 -0.2891
0.0082 -0.0248 -0.4332
0.0082 -0.0075 -0.4337
0.0188 0.0148 -0.2826
0.0090 -0.0290 -0.3921
0.0090 -0.0148 -0.3906
0.0090 -0.0221 -0.3899
0.0500 0.0369 -0.1059
0.0500 -0.0515 -0.1035
0.0100 0.0025 -0.3686
0.0500 0.0261 -0.1031
0.0084 -0.0011 -0.3928
0.0062 -0.0101 -0.4501
0.0062 -0.0231 -0.4497
0.0500 -0.0444 -0.1009
0.0093 -0.0313 -0.3677
0.0189 0.0046 -0.2652
0.0319 0.0161 -0.1824
0.0259 -0.0442 -0.2140
0.0095 -0.0235 -0.3472
0.0319 0.0282 -0.1803
0.0260 -0.0363 -0.2104
0.0095 -0.0338 -0.3409
0.0274 0.0259 -0.1981
0.0095 -0.0253 -0.3299
0.0500 0.0281 -0.0866
0.0500 -0.0455 -0.0846
0.0500 0.0390 -0.0870
0.0020 -0.0154 -0.4818
0.0020 -0.0196 -0.4817
0.0020 -0.0141 -0.4742
0.0020 -0.0204 -0.4740
0.0020 -0.0123 -0.4636
0.0020 -0.0216 -0.4633
0.0500 -0.0526 -0.0834
0.0006 -0.0268 -0.4140
0.0293 -0.0423 -0.1664
0.0103 -0.0294 -0.2883
-0.0000 -0.0045 -0.4146
0.0258 -0.0386 -0.1809
0.0106 -0.0390 -0.2811
-0.0017 -0.0186 -0.4760
0.0367 0.0270 -0.1268
0.0001 -0.0197 -0.4025
0.0261 -0.0468 -0.1783
0.0500 0.0301 -0.0693
0.0500 -0.0465 -0.0674
0.0500 0.0411 -0.0674
0.0500 -0.0536 -0.0649
0.0111 -0.0316 -0.2642
0.0004 -0.0228 -0.3683
-0.0003 -0.0110 -0.3665
0.0111 -0.0416 -0.2484
-0.0057 -0.0167 -0.4798
0.0104 0.0192 -0.2500
0.0500 0.0320 -0.0526
0.0116 -0.0339 -0.2382
-0.0010 -0.0080 -0.3477
0.0500 -0.0476 -0.0505
-0.0009 0.0064 -0.3420
0.0261 0.0201 -0.1516
0.0107 0.0083 -0.2393
0.0259 -0.0410 -0.1500
-0.0006 -0.0053 -0.3305
-0.0071 -0.0248 -0.4332
-0.0072 -0.0075 -0.4337
0.0500 0.0432 -0.0471
0.0500 -0.0546 -0.0449
0.0261 0.0326 -0.1435
-0.0003 0.0105 -0.3133
-0.0005 -0.0022 -0.3109
-0.0091 -0.0101 -0.4501
-0.0091 -0.0231 -0.4497
0.0256 -0.0492 -0.1413
-0.0011 -0.0363 -0.3120
0.0116 0.0237 -0.2158
-0.0015 -0.0273 -0.3102
0.0116 0.0121 -0.2117
0.0356 0.0311 -0.0922
0.0006 0.0010 -0.2891
0.0500 0.0340 -0.0349
-0.0086 -0.0290 -0.3921
-0.0086 -0.0148 -0.3906
0.0500 -0.0485 -0.0326
-0.0086 -0.0221 -0.3899
0.0008 0.0148 -0.2826
-0.0076 0.0025 -0.3686
-0.0096 -0.0011 -0.3928
-0.0123 -0.0154 -0.4818
-0.0123 -0.0196 -0.4817
-0.0123 -0.0141 -0.4742
-0.0123 -0.0204 -0.4740
-0.0084 -0.0313 -0.3677
-0.0123 -0.0123 -0.4636
-0.0123 -0.0216 -0.4633
0.0500 0.0451 -0.0285
-0.0120 -0.0139 -0.4245
0.0010 0.0046 -0.2652
0.0500 -0.0555 -0.0258
-0.0082 -0.0235 -0.3472
0.0260 0.0241 -0.1196
0.0259 -0.0433 -0.1178
-0.0082 -0.0338 -0.3409
-0.0082 -0.0253 -0.3299
0.0118 0.0161 -0.1824
0.0500 0.0358 -0.0181
0.0500 -0.0495 -0.0158
0.0118 0.0282 -0.1803
-0.0151 -0.0268 -0.4140
-0.0157 -0.0045 -0.4146
0.0259 0.0369 -0.1059
0.0254 -0.0515 -0.1035
0.0500 0.0470 -0.0083
0.0500 -0.0563 -0.0056
-0.0173 -0.0197 -0.4023
0.0500 0.0376 0.0001
0.0500 -0.0503 0.0024
0.0260 0.0281 -0.0866
0.0260 -0.0455 -0.0846
-0.0207 -0.0248 -0.4332
-0.0208 -0.0075 -0.4337
-0.0006 -0.0442 -0.2140
-0.0114 -0.0294 -0.2883
-0.0006 -0.0363 -0.2104
-0.0222 -0.0101 -0.4501
-0.0222 -0.0231 -0.4497
-0.0116 -0.0390 -0.2811
-0.0226 -0.0157 -0.4159
0.0318 -0.0476 -0.0505
0.0500 0.0488 0.0106
-0.0202 -0.0228 -0.3678
0.0500 -0.0571 0.0135
-0.0245 -0.0154 -0.4818
-0.0245 -0.0196 -0.4817
-0.0245 -0.0141 -0.4742
-0.0245 -0.0204 -0.4740
-0.0210 -0.0119 -0.3726
-0.0245 -0.0123 -0.4636
-0.0245 -0.0216 -0.4633
-0.0193 -0.0080 -0.3477
-0.0238 -0.0259 -0.4230
-0.0239 -0.0059 -0.4236
-0.0195 0.0064 -0.3420
-0.0114 -0.0316 -0.2642
0.0500 0.0394 0.0170
0.0500 -0.0511 0.0194
-0.0191 -0.0053 -0.3305
0.0260 -0.0536 -0.0649
0.0258 0.0411 -0.0674
-0.0257 -0.0174 -0.4287
-0.0244 -0.0290 -0.3921
0.0001 -0.0386 -0.1809
-0.0244 -0.0148 -0.3906
-0.0244 -0.0221 -0.3899
-0.0108 -0.0416 -0.2484
-0.0188 0.0105 -0.3133
0.0002 -0.0468 -0.1783
-0.0115 0.0192 -0.2500
-0.0191 -0.0022 -0.3109
-0.0254 -0.0011 -0.3928
-0.0239 0.0025 -0.3686
0.0500 0.0500 0.0248
-0.0107 -0.0339 -0.2382
-0.0244 -0.0313 -0.3677
0.0500 -0.0575 0.0278
-0.0198 -0.0363 -0.3120
-0.0201 -0.0273 -0.3102
-0.0116 0.0083 -0.2393
0.0500 0.0405 0.0292
-0.0182 0.0010 -0.2891
0.0262 0.0320 -0.0526
0.0500 -0.0516 0.0317
-0.0243 -0.0235 -0.3472
-0.0178 0.0148 -0.2826
-0.0293 -0.0148 -0.4433
-0.0288 -0.0268 -0.4140
-0.0243 -0.0338 -0.3409
0.0318 0.0451 -0.0285
-0.0292 -0.0045 -0.4146
0.0316 -0.0555 -0.0258
-0.0243 -0.0253 -0.3299
-0.0177 0.0046 -0.2652
0.0500 0.0511 0.0374
0.0500 -0.0579 0.0403
-0.0111 0.0237 -0.2158
0.0002 -0.0410 -0.1500
0.0500 0.0416 0.0407
0.0321 0.0358 -0.0181
-0.0111 0.0121 -0.2117
0.0321 -0.0495 -0.0158
0.0500 -0.0521 0.0433
-0.0323 -0.0248 -0.4332
-0.0323 -0.0075 -0.4337
0.0238 0.0431 -0.0478
[...]
         <PointData>
            <DataArray Name="fValues" NumberOfComponents="3" format="ascii" type="Float64">
-2.48404e-01  1.46616e+00 -1.93524e-01 
-1.53630e-01  1.46251e+00 -2.30534e-01 
-1.92185e-01  1.42668e+00 -2.09069e-01 
-2.52239e-01  1.40068e+00 -1.77809e-01 
-1.19409e-01  1.39543e+00 -2.35365e-01 
-2.54852e-01  1.35299e+00 -1.66671e-01 
-9.91706e-02  1.34598e+00 -2.40108e-01 
-2.55244e-01  1.30651e+00 -1.58197e-01 
-8.15142e-02  1.29819e+00 -2.42796e-01 
-2.58119e-01  1.24546e+00 -1.45759e-01 
-6.25398e-02  1.23701e+00 -2.46058e-01 
-2.59937e-01  1.18366e+00 -1.33948e-01 
-3.78143e-02  1.17600e+00 -2.50628e-01 
-2.55530e-01  1.11276e+00 -1.20085e-01 
-1.33989e-02  1.10262e+00 -2.55128e-01 
-1.16754e-01  1.05853e+00 -1.91169e-01 
-2.50098e-01  1.03761e+00 -1.05042e-01 
 2.05391e-03  1.02811e+00 -2.61998e-01 
-1.00109e-01  9.54129e-01 -1.86691e-01 
-2.40154e-01  9.54647e-01 -8.92378e-02 
 1.91867e-02  9.44735e-01 -2.67422e-01 
-2.28853e-01  8.66231e-01 -7.27985e-02 
 3.78434e-02  8.53161e-01 -2.73495e-01 
-8.95961e-02  8.12921e-01 -1.72627e-01 
-2.14731e-01  7.73405e-01 -5.48041e-02 
 5.32991e-02  7.57548e-01 -2.78779e-01 
-1.35905e-01  7.25059e-01 -1.13246e-01 
-3.52556e-02  7.06923e-01 -2.08542e-01 
-1.90944e-01  6.72202e-01 -2.41615e-02 
 6.24049e-02  6.65121e-01 -2.60720e-01 
-6.38373e-02  6.44242e-01 -1.72418e-01 
-3.77490e-03  6.49306e-01 -2.31543e-01 
-1.74594e-01  1.29420e+00 -1.97634e-01 
-6.32801e-02  5.30031e-01 -1.55804e-01 
-1.66459e-01  5.41107e-01  1.15531e-02 
-2.09329e-02  6.47610e-01 -2.51206e-01 
 6.56289e-02  6.42140e-01 -2.32213e-01 
-5.85471e-02  3.95508e-01 -1.44689e-01 
-3.44717e-02  7.06735e-01 -2.66019e-01 
-1.37611e-01  3.81150e-01  4.92325e-02 
 7.04500e-02  7.03049e-01 -2.06166e-01 
-1.87719e-01  1.33987e+00 -1.99573e-01 
-1.51859e-01  1.06428e+00 -1.70142e-01 
-6.21912e-02  2.37286e-01 -1.30014e-01 
-1.80771e-01  1.30789e+00 -1.96591e-01 
-4.97932e-02  8.00807e-01 -2.88597e-01 
-1.01825e-01  1.91265e-01  9.12825e-02 
 8.80510e-02  8.44062e-01 -1.67073e-01 
-7.26089e-02  6.01949e-02 -1.18058e-01 
-7.46464e-02  9.61849e-01 -3.06043e-01 
-4.96640e-02 -3.65957e-02  1.54240e-01 
 1.22089e-01  1.07379e+00 -1.22443e-01 
-8.07219e-02  1.12977e+00 -3.02961e-01 
-2.35183e-01  1.31559e+00 -1.80847e-01 
-1.46463e-01  1.31071e+00 -2.09372e-01 
-2.40159e-01  1.25986e+00 -1.67005e-01 
-1.11879e-01  1.25778e+00 -2.13594e-01 
-2.43186e-01  1.17936e+00 -1.47204e-01 
-7.62449e-02  1.17491e+00 -2.22738e-01 
-9.60537e-02 -2.82610e-01 -7.97716e-02 
-8.27689e-02  1.30604e+00 -2.91128e-01 
-1.32167e-02 -3.23585e-01  2.10528e-01 
 1.63521e-01  1.37049e+00 -7.90619e-02 
 2.63592e-02  6.27224e-01 -2.29849e-01 
-1.13962e-01 -4.79005e-01 -5.15677e-02 
-1.02825e-01  1.51982e+00 -2.75810e-01 
-2.48569e-01  1.04761e+00 -1.21273e-01 
-3.02093e-02  1.03596e+00 -2.24248e-01 
-3.06380e-02  6.07277e-01 -1.88065e-01 
-2.39556e-01  9.20217e-01 -9.62650e-02 
 7.64669e-03  9.13223e-01 -2.33983e-01 
 3.35390e-02 -6.43965e-01  2.68830e-01 
 1.87774e-01  1.71726e+00 -3.90401e-02 
-1.37215e-01 -7.08684e-01 -2.11034e-02 
-1.22054e-01  1.76335e+00 -2.56074e-01 
 4.76581e-02  5.84402e-01 -2.21855e-01 
-1.20262e-01  2.00243e+00 -2.35668e-01 
-1.48898e-01 -9.56375e-01  1.52793e-02 
 2.30222e-01  2.05824e+00 -4.10701e-03 
 8.07324e-02 -1.00227e+00  3.16619e-01 
-2.43110e-01  9.45963e-01 -1.04932e-01 
-2.16415e-01  7.46525e-01 -6.63230e-02 
 4.16622e-02  7.32475e-01 -2.38736e-01 
-1.59185e-01 -1.21827e+00  5.40767e-02 
-1.36524e-01  2.29823e+00 -2.04898e-01 
 1.27705e-01 -1.35398e+00  3.57580e-01 
-1.10200e-01  8.69095e-01 -1.57310e-01 
 2.81812e-01  2.45421e+00  4.28992e-02 
-1.81455e-01 -1.46535e+00  9.05554e-02 
-1.92871e-01  9.76330e-01 -1.39505e-01 
-2.82460e-02  5.98214e-01 -1.75953e-01 
-2.23122e-01  7.79627e-01 -7.57081e-02 
 2.73143e-02  7.69127e-01 -2.21469e-01 
-1.77380e-01  5.58501e-01 -1.79455e-02 
-2.20855e-01  1.14776e+00 -1.64738e-01 
-1.33557e-01  1.14434e+00 -1.89800e-01 
-2.27471e-01  1.10155e+00 -1.53885e-01 
-1.05523e-01  1.09910e+00 -1.93198e-01 
 6.69468e-02  5.44862e-01 -2.27611e-01 
-5.56815e-02  5.32872e-01 -1.41977e-01 
-2.32514e-01  1.03365e+00 -1.35543e-01 
-6.83598e-02  1.03001e+00 -2.00340e-01 
 2.25967e-03  5.31983e-01 -1.98776e-01 
-1.88710e-01 -1.72203e+00  1.34549e-01 
 1.91369e-01 -1.68934e+00  3.92386e-01 
 3.03631e-01  2.84319e+00  5.59818e-02 
-1.51202e-01  2.85541e+00 -1.30903e-01 
-5.99907e-02  2.66887e-01 -1.14833e-01 
-1.92480e-01  6.15955e-01 -4.39800e-02 
 5.73137e-02  6.07521e-01 -2.24844e-01 
-1.21100e-01  3.13192e-01  4.77131e-02 
-7.82575e-02  6.94126e-01 -1.47135e-01 
 6.53261e-02  5.66823e-01 -1.81737e-01 
-5.62252e-02  4.08821e-01 -1.31564e-01 
-2.09294e-01 -1.97160e+00  1.74834e-01 
-1.75566e-02  5.10782e-01 -2.16711e-01 
 2.33989e-01 -2.02117e+00  4.31160e-01 
 3.49222e-01  3.31564e+00  1.38795e-01 
-6.86841e-02  7.53705e-01 -2.56278e-01 
-4.68547e-02  6.00465e-01 -2.42512e-01 
 1.08858e-01  8.47871e-01 -1.11589e-01 
-1.48659e-01  4.21502e-01  8.01536e-03 
 6.20862e-02  4.91866e-01 -2.02156e-01 
-2.23480e-01  7.83916e-01 -8.36914e-02 
 1.07287e-02  7.75532e-01 -2.00916e-01 
-2.38187e-01 -2.24905e+00  2.16044e-01 
-2.26190e-01  8.77928e-01 -1.07133e-01 
-2.33185e-02  8.73841e-01 -1.91973e-01 
-1.98191e-01  3.63499e+00 -9.01394e-02 
-7.33877e-02  1.02795e+00 -2.52493e-01 
 2.57573e-01 -2.36146e+00  4.75646e-01 
 3.80669e-01  3.78900e+00  1.55260e-01 
-2.59004e-01 -2.51157e+00  2.55390e-01 
-6.38590e-02  3.25854e-02 -8.23703e-02 
-4.47723e-02 -6.20661e-02  1.37503e-01 
-1.51766e-01  8.74151e-01 -1.38660e-01 
-8.96451e-02  1.23017e-01  7.72765e-02 
-8.03081e-02 -2.21083e-01 -4.48200e-02 
 2.90030e-01 -2.70542e+00  5.05554e-01 
 3.77395e-01  4.25625e+00  1.92605e-01 
 4.19459e-02  5.97686e-01 -1.97024e-01 
-1.92101e-01  6.10140e-01 -4.72844e-02 
-2.75895e-01 -2.79420e+00  2.99737e-01 
-2.29614e-01  4.35688e+00  3.49018e-03 
 1.67801e-01  1.25319e+00 -5.41550e-02 
 7.45899e-02  5.74508e-01 -1.53100e-01 
-1.11629e-01  1.28056e+00 -2.22487e-01 
-1.19150e-01 -5.19731e-01 -4.12995e-02 
-2.03290e-01  9.56438e-01 -1.47258e-01 
-1.25226e-01  9.54299e-01 -1.64468e-01 
 2.18540e-02 -4.39018e-01  1.98361e-01 
-2.11926e-01  9.26049e-01 -1.36716e-01 
-9.56453e-02  9.21290e-01 -1.67170e-01 
-2.11228e-01  8.68320e-01 -1.19005e-01 
-5.97866e-02  8.63250e-01 -1.69365e-01 
-1.08168e-01  7.47371e-01 -1.33306e-01 
-7.33016e-03 -3.21398e-01  1.33472e-01 
 1.51880e-01  9.76885e-01 -8.22821e-02 
-1.07131e-01  6.63648e-01 -1.16975e-01 
-2.79399e-01 -3.03417e+00  3.41503e-01 
 3.29672e-01 -3.00884e+00  5.35075e-01 
 3.83004e-01  4.61492e+00  1.99160e-01 
-5.20244e-03  1.94491e+00 -1.02328e-01 
-1.47565e-01 -9.06271e-01  2.01821e-02 
-1.97937e-01  6.16654e-01 -5.80073e-02 
 3.15479e-02  6.06419e-01 -1.75839e-01 
 1.16930e-01 -1.01066e+00  2.74701e-01 
-2.76438e-01 -3.27578e+00  3.80420e-01 
-2.20940e-01  4.90888e+00  7.99865e-02 
-1.60106e-01  4.30352e-01 -1.01087e-02 
 6.52962e-02  4.15314e-01 -1.83852e-01 
-4.62913e-02  4.08189e-01 -1.08138e-01 
 7.21562e-03  4.06364e-01 -1.61049e-01 
-7.34748e-02  5.51567e-01 -1.10759e-01 
 3.65105e-01 -3.29655e+00  5.57164e-01 
 4.25925e-01  4.93495e+00  1.63378e-01 
-1.01978e-01  2.47038e-01  4.30594e-02 
 5.76688e-02  4.09076e-01 -1.61810e-01 
-1.67956e-01 -1.28535e+00  1.10196e-01 
-1.98454e-01  6.32707e-01 -7.08722e-02 
 1.11283e-02  6.24999e-01 -1.58004e-01 
-1.97707e-01  7.01099e-01 -9.27711e-02 
-1.72402e-02  6.93133e-01 -1.53602e-01 
-1.10944e-01  1.52047e+00 -1.73467e-01 
-2.89611e-01 -3.44549e+00  4.14394e-01 
-6.01165e-02  5.29727e-01 -2.14330e-01 
-4.07964e-02  2.56376e-01 -8.33475e-02 
 2.31186e-01  1.66935e+00  8.09425e-03 
 9.92704e-02  6.01326e-01 -1.08511e-01 
 3.88041e-01 -3.49191e+00  5.46426e-01 
 4.58053e-01  5.01980e+00  1.66759e-01 
-6.88256e-02  7.01960e-01 -2.02933e-01 
-1.38244e-01  1.95781e+00 -1.17708e-01 
-2.43657e-02  3.74676e-01 -1.67616e-01 
 4.97723e-02 -5.86358e-01  2.08656e-01 
-2.98412e-01 -3.59388e+00  4.52649e-01 
-1.79194e-01  5.09877e+00  1.15047e-01 
-1.78271e-02  4.05968e-01 -1.23646e-01 
-1.82211e-01  7.47408e-01 -1.24038e-01 
-1.12224e-01  7.45317e-01 -1.36800e-01 
-1.87203e-01  7.23229e-01 -1.14510e-01 
-8.13095e-02  7.19025e-01 -1.37542e-01 
-1.89386e-01  6.84393e-01 -1.02046e-01 
-5.05359e-02  6.81700e-01 -1.38708e-01 
 1.58816e-01 -1.11854e+00  2.68857e-01 
 1.94905e-01 -1.38140e+00  3.10797e-01 
 2.66534e-01  2.22320e+00  7.82655e-02 
 4.19775e-02  4.58997e-01 -1.54804e-01 
 4.03755e-01 -3.68987e+00  5.55618e-01 
 4.74865e-01  5.11790e+00  1.31725e-01 
-1.71012e-01  4.65472e-01 -4.09049e-02 
-1.58800e-01  2.43186e+00 -7.84826e-02 
-2.14384e-01 -1.54646e+00  1.50152e-01 
 3.73292e-02  1.52805e+00 -7.25973e-02 
-3.01508e-01 -3.72529e+00  4.78968e-01 
-4.82873e-02  4.96940e-02 -4.31775e-02 
-3.33231e-02  8.76309e-03  9.56577e-02 
-4.84297e-02  4.74517e-01 -1.04856e-01 
-7.61317e-02 -1.35993e-01 -4.45471e-02 
 4.16174e-01 -3.78480e+00  5.45977e-01 
 4.74838e-01  5.11422e+00  1.46218e-01 
 2.59067e-01 -1.91060e+00  3.85873e-01 
-2.90520e-01 -3.81115e+00  5.03694e-01 
 3.26488e-02 -3.39123e-01  1.45726e-01 
 1.38535e-01  7.74206e-01 -6.75598e-02 
-2.44723e-01 -1.96068e+00  2.16250e-01 
-9.53190e-02 -3.69478e-01 -3.80258e-04 
-1.59559e-01  5.11466e+00  1.58195e-01 
-8.73671e-02  7.89494e-01 -1.74730e-01 
-1.08735e-01 -6.08835e-01  5.07330e-02 
 2.35288e-02  4.56603e-01 -1.24480e-01 
-1.75421e-01  4.66294e-01 -5.65835e-02 
 1.08519e-01 -6.60655e-01  1.91404e-01 
 6.17866e-02  2.81184e-01 -1.34393e-01 
-3.60444e-02  2.77605e-01 -7.51968e-02 
 7.57291e-03  2.76089e-01 -1.18582e-01 
 4.13618e-01 -3.88388e+00  5.35832e-01 
 4.55243e-01  5.09847e+00  1.35526e-01 
-8.94597e-02  1.83816e-01  2.82155e-02 
-2.93461e-01 -3.87422e+00  5.16230e-01 
-1.32550e-01  2.83457e-01 -7.07128e-04 
-1.71613e-01  5.04493e-01 -6.96967e-02 
-5.46650e-03  4.98332e-01 -1.15138e-01 
-1.69867e-01  5.07352e+00  1.64090e-01 
 5.01173e-02  2.71526e-01 -1.25663e-01 
-1.50730e-01 -8.57441e-01  8.21852e-02 
-2.54947e-01 -2.30790e+00  2.72063e-01 
 3.14780e-01  2.59825e+00  9.85056e-02 
-4.30289e-02  3.29802e-01 -1.51618e-01 
 3.27117e-01 -2.34334e+00  3.99777e-01 
-1.91830e-01  2.66475e+00 -2.83602e-02 
 7.41836e-02  3.55494e-01 -9.67846e-02 
 2.65609e-01 -1.91467e+00  3.45967e-01 
-5.86990e-02  4.32184e-01 -1.56515e-01 
-2.80212e-01 -3.87618e+00  5.33591e-01 
-1.52730e-01  4.99588e+00  1.67612e-01 
 4.02927e-01 -3.87352e+00  5.14513e-01 
-1.55365e-01  5.33561e-01 -9.99155e-02 
-9.33618e-02  5.31358e-01 -1.08852e-01 
-1.55513e-01  5.14796e-01 -9.19648e-02 
-6.56615e-02  5.11701e-01 -1.08092e-01 
-1.61440e-01  4.89316e-01 -7.95459e-02 
-3.93847e-02  4.81898e-01 -1.04465e-01 
 4.52518e-01  4.98612e+00  1.30575e-01 
 4.84855e-02  3.10424e-01 -1.13101e-01 
 1.35934e-02  3.39585e+00  5.59119e-02 
-5.91059e-02  8.11114e-01 -1.22338e-01 
-1.44976e-01  3.09041e-01 -2.88081e-02 
-1.98365e-01  3.09477e+00 -1.51754e-04 
 1.81608e-01  8.76660e-01 -2.42451e-02 
-9.15356e-02  4.66191e-01 -9.65026e-02 
-5.18564e-02 -2.98244e+00  4.09362e-01 
-1.04630e-02  2.58746e-01 -8.18581e-02 
 3.52505e-01  3.13779e+00  8.48451e-02 
-2.50508e-01 -3.81285e+00  5.52367e-01 
-1.54624e-01  4.89070e+00  1.70108e-01 
 4.05057e-01 -3.79970e+00  5.06796e-01 
 4.25671e-01  4.88504e+00  1.29260e-01 
-1.32524e-01  1.13904e+00 -1.24486e-01 
-2.24961e-02  1.91848e-01 -1.09884e-01 
-2.86137e-02  1.22869e-01 -3.14874e-02 
 2.02592e-01  1.35403e+00  1.89924e-02 
-1.18921e-01  4.18422e-01 -8.70836e-02 
 1.42968e-01 -8.16859e-01  1.92867e-01 
-2.38285e-01 -3.75132e+00  5.49688e-01 
-1.49678e-01  1.49779e+00 -7.63855e-02 
-3.07283e-02  4.80384e-02 -3.09092e-02 
-1.54599e-01  4.80105e+00  1.71548e-01 
-2.72501e-02  2.48551e-02  4.99914e-02 
-2.51367e-01 -2.23439e+00  2.87488e-01 
-1.51515e-01 -8.82652e-01  1.05920e-01 
-1.42148e-01  3.20779e+00  4.19432e-02 
-6.00871e-02 -4.79596e-02 -3.16716e-02 
 3.40650e-02  2.90537e-01 -8.71293e-02 
-1.48692e-01  3.01558e-01 -3.64264e-02 
 4.10635e-01 -3.70442e+00  4.79023e-01 
 4.13565e-01  4.74719e+00  1.08898e-01 
 3.31948e-01 -2.28660e+00  3.58456e-01 
 3.31290e-02 -2.04153e-01  9.37263e-02 
-7.65976e-02 -2.19438e-01  8.15389e-03 
-1.39448e-01  3.13910e-01 -5.20494e-02 
 6.08109e-03  3.08125e-01 -8.21055e-02 
 3.97169e-01  3.19328e+00  5.78859e-02 
 1.00583e-01  3.93278e-01 -5.52493e-02 
 2.11455e-01 -1.12178e+00  2.39965e-01 
-5.47637e-02  4.05771e-01 -1.14810e-01 
-2.07697e-01 -1.16871e+00  1.41213e-01 
-3.98513e-02 -3.02307e+00  4.20009e-01 
-7.52997e-02 -3.61133e-01  2.64950e-02 
-2.27149e-01 -3.60327e+00  5.49898e-01 
 5.23634e-02  1.61833e-01 -8.68762e-02 
-2.84111e-02  1.69335e-01 -5.02925e-02 
-1.20359e-01  4.60257e+00  1.81782e-01 
 1.06886e-02  1.58097e-01 -7.54775e-02 
 7.62437e-02 -3.98258e-01  1.26927e-01 
-6.43229e-02  1.11112e-01  1.85807e-02 
-9.93751e-02  1.69048e-01 -5.34075e-03 
-1.27877e-01  3.31175e-01 -7.29680e-02 
-7.19290e-02  3.26428e-01 -8.07206e-02 
-1.22737e-01  3.14600e-01 -6.68503e-02 
-4.75162e-02  3.12261e-01 -7.75665e-02 
 3.28105e-02  1.32234e-01 -9.07931e-02 
-1.28325e-01  2.99108e-01 -5.72598e-02 
-2.09754e-02  2.96699e-01 -7.44428e-02 
 3.92597e-01 -3.56151e+00  4.35499e-01 
-6.20509e-02  2.22570e-01 -4.40201e-02 
-1.18484e-01 -5.21383e-01  5.47423e-02 
 3.87342e-01  4.53996e+00  9.92145e-02 
-2.61182e-02  1.41621e-01 -9.58292e-02 
-2.55297e-01 -2.38214e+00  3.21590e-01 
-1.45301e-01  3.18159e+00  7.03113e-02 
 5.63385e-02  1.53736e-01 -7.08879e-02 
-3.97778e-02  1.98820e-01 -1.06008e-01 
-2.00174e-01 -1.42456e+00  1.76532e-01 
-2.10479e-01 -3.41533e+00  5.36793e-01 
-1.22618e-01  4.39041e+00  1.71483e-01 
 2.65996e-01 -1.43782e+00  2.59134e-01 
 4.87529e-02  1.68273e-01 -7.32772e-02 
-1.11442e-01  1.77188e-01 -1.93912e-02 
 3.56495e-01 -2.43106e+00  3.57740e-01 
 3.83649e-01  3.11051e+00  5.29741e-02 
 3.72971e-01 -3.26037e+00  3.67090e-01 
 3.54451e-01  4.23296e+00  7.48147e-02 
-2.52688e-04  1.26011e-01 -4.73038e-02 
-1.76869e-01 -3.11086e+00  5.29023e-01 
-8.74551e-02  4.11616e+00  1.67961e-01 
-2.29276e-01 -2.46050e+00  3.59164e-01 
-1.31621e-01  3.06698e+00  7.97852e-02 
 4.13392e-02  1.55338e-01 -5.44974e-02 
-1.15855e-01  1.65213e-01 -2.17583e-02 
 2.14241e-01  1.19918e+00  9.51944e-03 
-5.16830e-02  3.50831e-01 -9.56192e-02 
-1.29892e-01  1.20189e+00 -4.18131e-02 
-1.08383e-01  1.69554e-01 -3.39257e-02 
 1.37605e-02  1.62349e-01 -5.38674e-02 
 1.01344e-01  4.02104e-01 -4.65425e-02 
-2.84951e-02  1.16363e-01 -3.25197e-02 
-1.60382e-01  3.37738e+00  1.00798e-01 
 3.39283e-01 -2.93345e+00  3.28732e-01 
-1.50035e-02  6.63826e-02 -6.23099e-02 
 3.05238e-01  3.95992e+00  6.36168e-02 
-9.70811e-02  1.81905e-01 -5.32037e-02 
-5.05459e-02  1.78744e-01 -5.92229e-02 
-9.45495e-02  1.71794e-01 -4.78688e-02 
-3.04595e-02  1.68463e-01 -5.37498e-02 
-5.75410e-03  7.06745e-02 -1.73606e-02 
-9.40159e-02  1.59675e-01 -4.09436e-02 
-1.26690e-02  1.55636e-01 -4.90311e-02 
-2.60757e-02  4.81067e-02 -1.46921e-02 
 3.62010e-02  1.10133e-01 -4.63692e-02 
-9.39711e-02  1.21426e-01 -1.70389e-02 
-2.52592e-02  4.57325e-02  1.92090e-02 
-5.90698e-02  4.54028e-01 -7.96596e-02 
-1.43051e-01 -2.82564e+00  5.07887e-01 
-8.40467e-02  3.85388e+00  1.79784e-01 
-4.85635e-02  2.37822e-02 -1.32524e-02 
 3.48322e-01  2.99627e+00  5.39633e-02 
 3.44242e-01 -2.41773e+00  3.41408e-01 
-1.98257e-02  1.04316e-01 -3.29534e-02 
 3.79000e-02  7.15318e-02 -4.95179e-02 
-1.71505e-01  1.44824e+00 -4.05401e-02 
-1.27743e-02  7.37955e-02 -2.62369e-02 
 9.81550e-03  6.92625e-02 -4.22178e-02 
 1.43269e-01  5.73342e-01 -7.87085e-03 
 2.84541e-02 -7.73448e-02  6.64630e-02 
 2.54664e-01  1.47576e+00  1.55713e-02 
 1.05274e-01 -3.58273e-01  1.01181e-01 
-4.34817e-02 -8.77393e-02  6.08859e-03 
-6.68226e-02  8.00811e-02 -5.21662e-03 
-4.36501e-02  6.23079e-02  2.22643e-03 
 3.19158e-01 -2.66132e+00  2.94664e-01 
-1.14800e-01  6.43075e-01 -6.36666e-02 
 2.23242e-02  4.45989e-02 -5.83789e-02 
 3.00151e-01  3.66327e+00  4.18857e-02 
 5.87880e-02  1.49323e-01 -5.13324e-02 
-3.71151e-02  1.52613e-01 -8.08242e-02 
-1.04807e-01 -3.86501e-01  6.15209e-02 
-1.15625e-01 -2.56119e+00  4.99894e-01 
-5.32797e-02 -1.82438e-01  2.19773e-02 
-2.16342e-01 -2.38967e+00  3.77223e-01 
-5.67981e-02  3.57591e+00  1.78543e-01 
-1.71215e-02  4.79467e-02 -6.16187e-02 
 5.28601e-02 -2.03254e-01  6.26590e-02 
-4.20697e-02  9.49414e-02 -2.63513e-02 
 3.10608e-02  7.50382e-02 -3.74129e-02 
 3.47074e-02  4.92354e-02 -4.99095e-02 
 3.39167e-01 -2.53036e+00  3.27074e-01 
-7.26269e-02  8.45705e-02 -1.09370e-02 
 3.32317e-01  3.22323e+00  7.16083e-02 
-2.22483e-02  7.42655e-02 -6.52954e-02 
-7.74655e-02 -2.41607e-01  4.20810e-02 
 3.00243e-01 -2.37664e+00  2.43666e-01 
 2.68245e-01  3.35459e+00  1.94192e-02 
 1.43133e-01 -4.88240e-01  1.21048e-01 
-1.19732e-01  1.53812e+00  2.41846e-03 
-9.27569e-02 -2.30398e+00  4.75423e-01 
-1.84214e-01 -2.46782e+00  4.15794e-01 
-1.32491e-01 -5.05447e-01  6.92383e-02 
-8.55759e-02  3.20443e+00  1.01049e-01 
-5.15219e-02  3.27330e+00  1.81353e-01 
 2.79570e-02  6.73399e-02 -2.66385e-02 
-6.84819e-02  7.30064e-02 -1.58929e-02 
 3.21230e-01 -2.23658e+00  3.02130e-01 
-1.75800e-01 -1.04818e+00  1.44919e-01 
 3.09453e-01  2.76950e+00  4.21948e-02 
-6.57241e-02  7.86692e-02 -2.12096e-02 
 1.27126e-02  6.48861e-02 -2.85289e-02 
 2.96454e-01  1.55286e+00  6.03623e-03 
-6.62082e-02  7.92485e-02 -3.77356e-02 
-3.44745e-02  7.37926e-02 -3.81948e-02 
-6.35605e-02  7.94196e-02 -3.16182e-02 
-1.44474e-02  7.01126e-02 -3.44705e-02 
-6.03805e-02  7.59752e-02 -2.54164e-02 
-5.95291e-03  6.09795e-02 -2.72823e-02 
 2.31075e-01 -1.04534e+00  1.79315e-01 
 2.82143e-01 -2.10466e+00  2.21445e-01 
 2.45986e-01  2.99226e+00 -5.47039e-03 
 2.66919e-02  8.02769e-03 -3.97513e-02 
-6.25827e-02 -2.05341e+00  4.41767e-01 
 2.84146e-02 -8.83188e-02  4.41634e-02 
-3.79108e-02  2.92936e+00  1.80407e-01 
-2.44225e-04  3.27613e-02 -1.72959e-02 
-1.60181e-02  3.85566e-02 -1.54051e-02 
-1.47216e-01 -6.53305e-01  8.38706e-02 
 1.97498e-01 -6.39395e-01  1.32955e-01 
 1.87819e-02  1.96761e-02 -3.35059e-02 
 2.73340e-02  3.47299e-02 -1.84086e-02 
-5.40106e-02  4.27863e-02 -9.62291e-03 
 2.04567e-02  3.19536e-02 -1.99040e-02 
-2.52317e-02  3.62372e-02  1.45783e-03 
-3.86746e-02  3.09951e-02  5.40482e-03 
-4.58007e-02  3.17576e-02 -8.24470e-04 
-1.48509e-02  3.35229e-02 -1.40076e-02 
-8.56124e-02  3.01881e+00  1.55265e-01 
-1.14903e-01  1.49337e+00  1.79230e-02 
-1.98583e-01 -1.10523e+00  1.63922e-01 
-1.41449e-03  9.01955e-03 -2.57346e-02 
-1.04989e-01  2.89075e+00  1.05193e-01 
 4.33441e-02  8.15558e-02 -3.04119e-02 
-4.10039e-03  1.88867e-02 -2.48647e-03 
 1.01825e-01  2.86143e+00  7.81959e-02 
 2.53622e-01 -1.77858e+00  1.95528e-01 
-4.15182e-02 -1.75668e+00  4.09665e-01 
 2.16653e-01  2.50342e+00 -2.34146e-02 
 1.56316e-02  2.46562e-02 -1.33264e-02 
-4.41112e-02  3.24672e-02 -1.25741e-02 
-2.41832e-02  2.47750e+00  1.75670e-01 
-3.66756e-05  1.62168e-02 -4.51616e-03 
 1.96330e-02  2.18435e-02 -2.17651e-02 
-4.23462e-04  1.84777e-02 -9.67459e-03 
 6.65028e-03  1.88449e-02 -1.84715e-02 
 2.65265e-02  2.58793e-02 -3.21700e-02 
-7.01449e-03  2.34409e-02 -1.90775e-03 
-2.74705e-02  2.49265e-02  1.71901e-04 
 3.12260e-01 -2.04342e+00  2.52502e-01 
-1.59820e-02  3.45313e-02  2.73548e-03 
-1.43694e-03 -1.98243e-03 -2.63135e-02 
 1.45645e-02  2.13320e-02 -1.49400e-02 
 2.42925e-01  2.88748e+00  4.76434e-02 
-2.29691e-02  2.56026e-02  2.75576e-03 
-3.00231e-02  2.71648e-02 -2.62407e-03 
 9.16609e-03  6.51303e-03 -2.64090e-02 
-1.43464e-02  1.94147e-02 -8.02534e-03 
-2.88638e-02  8.82616e-02 -4.52732e-02 
 2.76102e-01  1.46600e+00  3.31520e-03 
-5.73345e-02  2.81957e+00  1.51454e-01 
 1.17222e-02  1.85908e-02 -9.41243e-03 
-2.94752e-02  2.54749e-02 -9.45805e-03 
-2.99193e-02  2.37013e-02 -1.38737e-02 
 9.68667e-03  1.44239e-02 -8.93928e-03 
 2.54614e-01 -1.14829e+00  1.91899e-01 
-1.24253e-01 -1.98228e+00  3.75927e-01 
 5.60457e-02 -1.07629e-01  3.72025e-02 
-3.30702e-02  2.02471e-02 -2.11100e-02 
-1.35930e-02  1.45141e-02 -1.81840e-02 
-2.96206e-02  2.05170e-02 -1.49314e-02 
-1.85233e-03  1.88949e-02 -1.34228e-02 