<?xml version="1.0" encoding="utf-8"?>
<VTKFile byte_order="LittleEndian" type="UnstructuredGrid" version="0.1">
   <UnstructuredGrid>
      <Piece NumberOfCells="17640" NumberOfPoints="19224">
         <Points>
            <DataArray Name="Points" NumberOfComponents="3" format="ascii" type="Float32">
0.3442 0.3442 0.0000
0.4379 0.4379 0.0000
0.5316 0.5316 0.0000
0.6253 0.6253 0.0000
0.7190 0.7190 0.0000
0.8126 0.8126 0.0000
0.9063 0.9063 0.0000
1.0000 1.0000 0.0000
0.3168 0.3696 0.0000
0.3940 0.4597 0.0000
0.4712 0.5497 0.0000
0.5484 0.6398 0.0000
0.6256 0.7298 0.0000
0.7028 0.8199 0.0000
0.7800 0.9099 0.0000
0.8571 1.0000 0.0000
0.2830 0.3961 0.0000
0.3446 0.4824 0.0000
0.4062 0.5687 0.0000
0.4678 0.6549 0.0000
0.5294 0.7412 0.0000
0.5910 0.8275 0.0000
0.6527 0.9137 0.0000
0.7143 1.0000 0.0000
0.2415 0.4227 0.0000
0.2887 0.5051 0.0000
0.3358 0.5876 0.0000
0.3829 0.6701 0.0000
0.4300 0.7526 0.0000
0.4772 0.8350 0.0000
0.5243 0.9175 0.0000
0.5714 1.0000 0.0000
0.1918 0.4475 0.0000
0.2256 0.5264 0.0000
0.2594 0.6053 0.0000
0.2933 0.6843 0.0000
0.3271 0.7632 0.0000
0.3609 0.8421 0.0000
0.3947 0.9211 0.0000
0.4286 1.0000 0.0000
0.1337 0.4681 0.0000
0.1554 0.5441 0.0000
0.1772 0.6201 0.0000
0.1989 0.6960 0.0000
0.2206 0.7720 0.0000
0.2423 0.8480 0.0000
0.2640 0.9240 0.0000
0.2857 1.0000 0.0000
0.0688 0.4819 0.0000
0.0794 0.5559 0.0000
0.0900 0.6299 0.0000
0.1006 0.7040 0.0000
0.1111 0.7780 0.0000
0.1217 0.8520 0.0000
0.1323 0.9260 0.0000
0.1429 1.0000 0.0000
0.0000 0.4868 0.0000
0.0000 0.5601 0.0000
0.0000 0.6334 0.0000
0.0000 0.7067 0.0000
0.0000 0.7801 0.0000
0.0000 0.8534 0.0000
0.0000 0.9267 0.0000
0.0000 1.0000 0.0000
-0.0688 0.4819 0.0000
-0.0794 0.5559 0.0000
-0.0900 0.6299 0.0000
-0.1006 0.7040 0.0000
-0.1111 0.7780 0.0000
-0.1217 0.8520 0.0000
-0.1323 0.9260 0.0000
-0.1429 1.0000 0.0000
-0.1337 0.4681 0.0000
-0.1554 0.5441 0.0000
-0.1772 0.6201 0.0000
-0.1989 0.6960 0.0000
-0.2206 0.7720 0.0000
-0.2423 0.8480 0.0000
-0.2640 0.9240 0.0000
-0.2857 1.0000 0.0000
-0.1918 0.4475 0.0000
-0.2256 0.5264 0.0000
-0.2594 0.6053 0.0000
-0.2933 0.6843 0.0000
-0.3271 0.7632 0.0000
-0.3609 0.8421 0.0000
-0.3947 0.9211 0.0000
-0.4286 1.0000 0.0000
-0.2415 0.4227 0.0000
-0.2887 0.5051 0.0000
-0.3358 0.5876 0.0000
-0.3829 0.6701 0.0000
-0.4300 0.7526 0.0000
-0.4772 0.8350 0.0000
-0.5243 0.9175 0.0000
-0.5714 1.0000 0.0000
-0.2830 0.3961 0.0000
-0.3446 0.4824 0.0000
-0.4062 0.5687 0.0000
-0.4678 0.6549 0.0000
-0.5294 0.7412 0.0000
-0.5910 0.8275 0.0000
-0.6527 0.9137 0.0000
-0.7143 1.0000 0.0000
-0.3168 0.3696 0.0000
-0.3940 0.4597 0.0000
-0.4712 0.5497 0.0000
-0.5484 0.6398 0.0000
-0.6256 0.7298 0.0000
-0.7028 0.8199 0.0000
-0.7800 0.9099 0.0000
-0.8571 1.0000 0.0000
-0.3442 0.3442 0.0000
-0.4379 0.4379 0.0000
-0.5316 0.5316 0.0000
-0.6253 0.6253 0.0000
-0.7190 0.7190 0.0000
-0.8126 0.8126 0.0000
-0.9063 0.9063 0.0000
-1.0000 1.0000 0.0000
-0.3696 0.3168 0.0000
-0.4597 0.3940 0.0000
-0.5497 0.4712 0.0000
-0.6398 0.5484 0.0000
-0.7298 0.6256 0.0000
-0.8199 0.7028 0.0000
-0.9099 0.7800 0.0000
-1.0000 0.8571 0.0000
-0.3961 0.2830 0.0000
-0.4824 0.3446 0.0000
-0.5687 0.4062 0.0000
-0.6549 0.4678 0.0000
-0.7412 0.5294 0.0000
-0.8275 0.5910 0.0000
-0.9137 0.6527 0.0000
-1.0000 0.7143 0.0000
-0.4227 0.2415 0.0000
-0.5051 0.2887 0.0000
-0.5876 0.3358 0.0000
-0.6701 0.3829 0.0000
-0.7526 0.4300 0.0000
-0.8350 0.4772 0.0000
-0.9175 0.5243 0.0000
-1.0000 0.5714 0.0000
-0.4475 0.1918 0.0000
-0.5264 0.2256 0.0000
-0.6053 0.2594 0.0000
-0.6843 0.2933 0.0000
-0.7632 0.3271 0.0000
-0.8421 0.3609 0.0000
-0.9211 0.3947 0.0000
-1.0000 0.4286 0.0000
-0.4681 0.1337 0.0000
-0.5441 0.1554 0.0000
-0.6201 0.1772 0.0000
-0.6960 0.1989 0.0000
-0.7720 0.2206 0.0000
-0.8480 0.2423 0.0000
-0.9240 0.2640 0.0000
-1.0000 0.2857 0.0000
-0.4819 0.0688 0.0000
-0.5559 0.0794 0.0000
-0.6299 0.0900 0.0000
-0.7040 0.1006 0.0000
-0.7780 0.1111 0.0000
-0.8520 0.1217 0.0000
-0.9260 0.1323 0.0000
-1.0000 0.1429 0.0000
-0.4868 0.0000 0.0000
-0.5601 0.0000 0.0000
-0.6334 0.0000 0.0000
-0.7067 0.0000 0.0000
-0.7801 0.0000 0.0000
-0.8534 0.0000 0.0000
-0.9267 0.0000 0.0000
-1.0000 0.0000 0.0000
-0.4819 -0.0688 0.0000
-0.5559 -0.0794 0.0000
-0.6299 -0.0900 0.0000
-0.7040 -0.1006 0.0000
-0.7780 -0.1111 0.0000
-0.8520 -0.1217 0.0000
-0.9260 -0.1323 0.0000
-1.0000 -0.1429 0.0000
-0.4681 -0.1337 0.0000
-0.5441 -0.1554 0.0000
-0.6201 -0.1772 0.0000
-0.6960 -0.1989 0.0000
-0.7720 -0.2206 0.0000
-0.8480 -0.2423 0.0000
-0.9240 -0.2640 0.0000
-1.0000 -0.2857 0.0000
-0.4475 -0.1918 0.0000
-0.5264 -0.2256 0.0000
-0.6053 -0.2594 0.0000
-0.6843 -0.2933 0.0000
-0.7632 -0.3271 0.0000
-0.8421 -0.3609 0.0000
-0.9211 -0.3947 0.0000
-1.0000 -0.4286 0.0000
-0.4227 -0.2415 0.0000
-0.5051 -0.2887 0.0000
-0.5876 -0.3358 0.0000
-0.6701 -0.3829 0.0000
-0.7526 -0.4300 0.0000
-0.8350 -0.4772 0.0000
-0.9175 -0.5243 0.0000
-1.0000 -0.5714 0.0000
-0.3961 -0.2830 0.0000
-0.4824 -0.3446 0.0000
-0.5687 -0.4062 0.0000
-0.6549 -0.4678 0.0000
-0.7412 -0.5294 0.0000
-0.8275 -0.5910 0.0000
-0.9137 -0.6527 0.0000
-1.0000 -0.7143 0.0000
-0.3696 -0.3168 0.0000
-0.4597 -0.3940 0.0000
-0.5497 -0.4712 0.0000
-0.6398 -0.5484 0.0000
-0.7298 -0.6256 0.0000
-0.8199 -0.7028 0.0000
-0.9099 -0.7800 0.0000
-1.0000 -0.8571 0.0000
-0.3442 -0.3442 0.0000
-0.4379 -0.4379 0.0000
-0.5316 -0.5316 0.0000
-0.6253 -0.6253 0.0000
-0.7190 -0.7190 0.0000
-0.8126 -0.8126 0.0000
-0.9063 -0.9063 0.0000
-1.0000 -1.0000 0.0000
-0.3168 -0.3696 0.0000
-0.3940 -0.4597 0.0000
-0.4712 -0.5497 0.0000
-0.5484 -0.6398 0.0000
-0.6256 -0.7298 0.0000
-0.7028 -0.8199 0.0000
-0.7800 -0.9099 0.0000
-0.8571 -1.0000 0.0000
-0.2830 -0.3961 0.0000
-0.3446 -0.4824 0.0000
-0.4062 -0.5687 0.0000
-0.4678 -0.6549 0.0000
-0.5294 -0.7412 0.0000
-0.5910 -0.8275 0.0000
-0.6527 -0.9137 0.0000
-0.7143 -1.0000 0.0000
-0.2415 -0.4227 0.0000
-0.2887 -0.5051 0.0000
-0.3358 -0.5876 0.0000
-0.3829 -0.6701 0.0000
-0.4300 -0.7526 0.0000
-0.4772 -0.8350 0.0000
-0.5243 -0.9175 0.0000
-0.5714 -1.0000 0.0000
-0.1918 -0.4475 0.0000
-0.2256 -0.5264 0.0000
-0.2594 -0.6053 0.0000
-0.2933 -0.6843 0.0000
-0.3271 -0.7632 0.0000
-0.3609 -0.8421 0.0000
-0.3947 -0.9211 0.0000
-0.4286 -1.0000 0.0000
-0.1337 -0.4681 0.0000
-0.1554 -0.5441 0.0000
-0.1772 -0.6201 0.0000
-0.1989 -0.6960 0.0000
-0.2206 -0.7720 0.0000
-0.2423 -0.8480 0.0000
-0.2640 -0.9240 0.0000
-0.2857 -1.0000 0.0000
-0.0688 -0.4819 0.0000
-0.0794 -0.5559 0.0000
-0.0900 -0.6299 0.0000
-0.1006 -0.7040 0.0000
-0.1111 -0.7780 0.0000
-0.1217 -0.8520 0.0000
-0.1323 -0.9260 0.0000
-0.1429 -1.0000 0.0000
0.0000 -0.4868 0.0000
0.0000 -0.5601 0.0000
0.0000 -0.6334 0.0000
0.0000 -0.7067 0.0000
0.0000 -0.7801 0.0000
0.0000 -0.8534 0.0000
0.0000 -0.9267 0.0000
0.0000 -1.0000 0.0000
0.0688 -0.4819 0.0000
0.0794 -0.5559 0.0000
0.0900 -0.6299 0.0000
0.1006 -0.7040 0.0000
0.1111 -0.7780 0.0000
0.1217 -0.8520 0.0000
0.1323 -0.9260 0.0000
0.1429 -1.0000 0.0000
0.1337 -0.4681 0.0000
0.1554 -0.5441 0.0000
0.1772 -0.6201 0.0000
0.1989 -0.6960 0.0000
0.2206 -0.7720 0.0000
0.2423 -0.8480 0.0000
0.2640 -0.9240 0.0000
0.2857 -1.0000 0.0000
0.1918 -0.4475 0.0000
0.2256 -0.5264 0.0000
0.2594 -0.6053 0.0000
0.2933 -0.6843 0.0000
0.3271 -0.7632 0.0000
0.3609 -0.8421 0.0000
0.3947 -0.9211 0.0000
0.4286 -1.0000 0.0000
0.2415 -0.4227 0.0000
0.2887 -0.5051 0.0000
0.3358 -0.5876 0.0000
0.3829 -0.6701 0.0000
0.4300 -0.7526 0.0000
0.4772 -0.8350 0.0000
0.5243 -0.9175 0.0000
0.5714 -1.0000 0.0000
0.2830 -0.3961 0.0000
0.3446 -0.4824 0.0000
0.4062 -0.5687 0.0000
0.4678 -0.6549 0.0000
0.5294 -0.7412 0.0000
0.5910 -0.8275 0.0000
0.6527 -0.9137 0.0000
0.7143 -1.0000 0.0000
0.3168 -0.3696 0.0000
0.3940 -0.4597 0.0000
0.4712 -0.5497 0.0000
0.5484 -0.6398 0.0000
0.6256 -0.7298 0.0000
0.7028 -0.8199 0.0000
0.7800 -0.9099 0.0000
0.8571 -1.0000 0.0000
0.3442 -0.3442 0.0000
0.4379 -0.4379 0.0000
0.5316 -0.5316 0.0000
0.6253 -0.6253 0.0000
0.7190 -0.7190 0.0000
0.8126 -0.8126 0.0000
0.9063 -0.9063 0.0000
1.0000 -1.0000 0.0000
0.3696 -0.3168 0.0000
0.4597 -0.3940 0.0000
0.5497 -0.4712 0.0000
0.6398 -0.5484 0.0000
0.7298 -0.6256 0.0000
0.8199 -0.7028 0.0000
0.9099 -0.7800 0.0000
1.0000 -0.8571 0.0000
0.3961 -0.2830 0.0000
0.4824 -0.3446 0.0000
0.5687 -0.4062 0.0000
0.6549 -0.4678 0.0000
0.7412 -0.5294 0.0000
0.8275 -0.5910 0.0000
0.9137 -0.6527 0.0000
1.0000 -0.7143 0.0000
0.4227 -0.2415 0.0000
0.5051 -0.2887 0.0000
0.5876 -0.3358 0.0000
0.6701 -0.3829 0.0000
0.7526 -0.4300 0.0000
0.8350 -0.4772 0.0000
0.9175 -0.5243 0.0000
1.0000 -0.5714 0.0000
0.4475 -0.1918 0.0000
0.5264 -0.2256 0.0000
0.6053 -0.2594 0.0000
0.6843 -0.2933 0.0000
0.7632 -0.3271 0.0000
0.8421 -0.3609 0.0000
0.9211 -0.3947 0.0000
1.0000 -0.4286 0.0000
0.4681 -0.1337 0.0000
0.5441 -0.1554 0.0000
0.6201 -0.1772 0.0000
0.6960 -0.1989 0.0000
0.7720 -0.2206 0.0000
0.8480 -0.2423 0.0000
0.9240 -0.2640 0.0000
1.0000 -0.2857 0.0000
0.4819 -0.0688 0.0000
0.5559 -0.0794 0.0000
0.6299 -0.0900 0.0000
0.7040 -0.1006 0.0000
0.7780 -0.1111 0.0000
0.8520 -0.1217 0.0000
0.9260 -0.1323 0.0000
1.0000 -0.1429 0.0000
0.4868 0.0000 0.0000
0.5601 0.0000 0.0000
0.6334 0.0000 0.0000
0.7067 0.0000 0.0000
0.7801 0.0000 0.0000
0.8534 0.0000 0.0000
0.9267 0.0000 0.0000
1.0000 0.0000 0.0000
0.4819 0.0688 0.0000
0.5559 0.0794 0.0000
0.6299 0.0900 0.0000
0.7040 0.1006 0.0000
0.7780 0.1111 0.0000
0.8520 0.1217 0.0000
0.9260 0.1323 0.0000
1.0000 0.1429 0.0000
0.4681 0.1337 0.0000
0.5441 0.1554 0.0000
0.6201 0.1772 0.0000
0.6960 0.1989 0.0000
0.7720 0.2206 0.0000
0.8480 0.2423 0.0000
0.9240 0.2640 0.0000
1.0000 0.2857 0.0000
0.4475 0.1918 0.0000
0.5264 0.2256 0.0000
0.6053 0.2594 0.0000
0.6843 0.2933 0.0000
0.7632 0.3271 0.0000
0.8421 0.3609 0.0000
0.9211 0.3947 0.0000
1.0000 0.4286 0.0000
0.4227 0.2415 0.0000
0.5051 0.2887 0.0000
0.5876 0.3358 0.0000
0.6701 0.3829 0.0000
0.7526 0.4300 0.0000
0.8350 0.4772 0.0000
0.9175 0.5243 0.0000
1.0000 0.5714 0.0000
0.3961 0.2830 0.0000
0.4824 0.3446 0.0000
0.5687 0.4062 0.0000
0.6549 0.4678 0.0000
0.7412 0.5294 0.0000
0.8275 0.5910 0.0000
0.9137 0.6527 0.0000
1.0000 0.7143 0.0000
0.3696 0.3168 0.0000
[...]
         <PointData>
            <DataArray Name="fValues" NumberOfComponents="3" format="ascii" type="Float64">
 1.00341e-02  1.06676e-03        00000 
 9.56981e-03  1.35804e-03        00000 
 9.53767e-03  1.38694e-03        00000 
 9.70715e-03  1.30806e-03        00000 
 9.99224e-03  1.16646e-03        00000 
 1.03180e-02  9.98310e-04        00000 
 1.05014e-02  9.07051e-04        00000 
 9.99628e-03  1.17576e-03        00000 
 9.69666e-03  9.89296e-04        00000 
 9.20496e-03  1.19726e-03        00000 
 9.11342e-03  1.22713e-03        00000 
 9.20217e-03  1.16141e-03        00000 
 9.38409e-03  1.03120e-03        00000 
 9.59600e-03  8.47264e-04        00000 
 9.74886e-03  6.33572e-04        00000 
 9.73949e-03  4.87649e-04        00000 
 9.26808e-03  9.03581e-04        00000 
 8.77951e-03  1.02625e-03        00000 
 8.64067e-03  1.04263e-03        00000 
 8.66247e-03  9.92912e-04        00000 
 8.76682e-03  8.93672e-04        00000 
 8.90978e-03  7.56439e-04        00000 
 9.06357e-03  5.99761e-04        00000 
 9.24020e-03  4.59340e-04        00000 
 8.73881e-03  8.19076e-04        00000 
 8.28431e-03  8.49258e-04        00000 
 8.11853e-03  8.43857e-04        00000 
 8.09047e-03  8.04665e-04        00000 
 8.13706e-03  7.35746e-04        00000 
 8.22838e-03  6.42617e-04        00000 
 8.35388e-03  5.32926e-04        00000 
 8.51743e-03  4.13147e-04        00000 
 8.10250e-03  7.43788e-04        00000 
 7.71670e-03  6.81141e-04        00000 
 7.54833e-03  6.46639e-04        00000 
 7.49000e-03  6.10374e-04        00000 
 7.49482e-03  5.63577e-04        00000 
 7.54141e-03  5.04121e-04        00000 
 7.62143e-03  4.31805e-04        00000 
 7.73426e-03  3.46216e-04        00000 
 7.36516e-03  6.83802e-04        00000 
 7.08021e-03  5.41265e-04        00000 
 6.93526e-03  4.74860e-04        00000 
 6.86657e-03  4.34293e-04        00000 
 6.84422e-03  4.00248e-04        00000 
 6.85387e-03  3.64604e-04        00000 
 6.88915e-03  3.23376e-04        00000 
 6.94802e-03  2.73764e-04        00000 
 6.55058e-03  6.41650e-04        00000 
 6.38830e-03  4.45618e-04        00000 
 6.28871e-03  3.53193e-04        00000 
 6.22703e-03  3.05312e-04        00000 
 6.19046e-03  2.76611e-04        00000 
 6.17246e-03  2.55469e-04        00000 
 6.16985e-03  2.36146e-04        00000 
 6.18131e-03  2.15447e-04        00000 
 5.69989e-03  6.15826e-04        00000 
 5.66745e-03  4.00533e-04        00000 
 5.62449e-03  2.96282e-04        00000 
 5.57978e-03  2.43780e-04        00000 
 5.53695e-03  2.16286e-04        00000 
 5.49774e-03  2.01130e-04        00000 
 5.46308e-03  1.92082e-04        00000 
 5.43353e-03  1.86009e-04        00000 
 4.86373e-03  6.02342e-04        00000 
 4.95416e-03  4.02197e-04        00000 
 4.96507e-03  3.03014e-04        00000 
 4.93620e-03  2.51282e-04        00000 
 4.88656e-03  2.22836e-04        00000 
 4.82588e-03  2.06092e-04        00000 
 4.75927e-03  1.95179e-04        00000 
 4.68930e-03  1.86895e-04        00000 
 4.08975e-03  5.97211e-04        00000 
 4.28460e-03  4.40343e-04        00000 
 4.33426e-03  3.58783e-04        00000 
 4.30976e-03  3.10856e-04        00000 
 4.24446e-03  2.78413e-04        00000 
 4.15516e-03  2.52819e-04        00000 
 4.05045e-03  2.29500e-04        00000 
 3.93439e-03  2.05549e-04        00000 
 3.41127e-03  5.97864e-04        00000 
 3.68414e-03  5.01740e-04        00000 
 3.75039e-03  4.41804e-04        00000 
 3.71309e-03  3.95378e-04        00000 
 3.61870e-03  3.53207e-04        00000 
 3.49015e-03  3.11297e-04        00000 
 3.33873e-03  2.67987e-04        00000 
 3.16925e-03  2.22314e-04        00000 
 2.84257e-03  6.02784e-04        00000 
 3.16379e-03  5.72660e-04        00000 
 3.22346e-03  5.30195e-04        00000 
 3.15542e-03  4.78187e-04        00000 
 3.01803e-03  4.17888e-04        00000 
 2.84029e-03  3.51757e-04        00000 
 2.63676e-03  2.83651e-04        00000 
 2.41240e-03  2.18721e-04        00000 
 2.38154e-03  6.10412e-04        00000 
 2.72320e-03  6.41587e-04        00000 
 2.75617e-03  6.07812e-04        00000 
 2.64134e-03  5.40487e-04        00000 
 2.44830e-03  4.51807e-04        00000 
 2.21539e-03  3.51930e-04        00000 
 1.96313e-03  2.56426e-04        00000 
 1.69965e-03  1.83067e-04        00000 
 2.01646e-03  6.18309e-04        00000 
 2.35534e-03  7.01894e-04        00000 
 2.34554e-03  6.66229e-04        00000 
 2.17118e-03  5.72250e-04        00000 
 1.91073e-03  4.45131e-04        00000 
 1.61620e-03  2.99972e-04        00000 
 1.34632e-03  1.63519e-04        00000 
 1.09662e-03  1.16855e-04        00000 
 1.73442e-03  6.22159e-04        00000 
 2.04811e-03  7.54217e-04        00000 
 1.98592e-03  7.00597e-04        00000 
 1.74277e-03  5.70539e-04        00000 
 1.40251e-03  3.97163e-04        00000 
 1.03110e-03  2.00640e-04        00000 
 7.49173e-04  4.22821e-06        00000 
 9.53557e-04 -1.27280e-04        00000 
 1.46273e-03  6.17648e-04        00000 
 1.72539e-03  7.86167e-04        00000 
 1.70197e-03  7.60883e-04        00000 
 1.51197e-03  6.50362e-04        00000 
 1.21872e-03  4.92344e-04        00000 
 8.55011e-04  3.07267e-04        00000 
 4.40521e-04  1.15692e-04        00000 
-2.05651e-19 -7.49768e-21        00000 
 1.17792e-03  6.18730e-04        00000 
 1.39058e-03  8.05857e-04        00000 
 1.38914e-03  8.06253e-04        00000 
 1.25196e-03  7.15847e-04        00000 
 1.02078e-03  5.72156e-04        00000 
 7.21685e-04  3.93065e-04        00000 
 3.73341e-04  1.94586e-04        00000 
 1.63633e-19 -8.18163e-20        00000 
 8.96357e-04  6.24071e-04        00000 
 1.05369e-03  8.13073e-04        00000 
 1.06390e-03  8.29958e-04        00000 
 9.71881e-04  7.56487e-04        00000 
 8.03506e-04  6.25977e-04        00000 
 5.75754e-04  4.52436e-04        00000 
 3.02854e-04  2.41921e-04        00000 
-7.69693e-20 -6.25375e-20        00000 
 6.36239e-04  6.36729e-04        00000 
 7.35677e-04  8.07793e-04        00000 
 7.47921e-04  8.28413e-04        00000 
 6.91703e-04  7.64257e-04        00000 
 5.80200e-04  6.43787e-04        00000 
 4.22539e-04  4.77179e-04        00000 
 2.26301e-04  2.64474e-04        00000 
-2.30589e-20 -1.07886e-19        00000 
 4.16439e-04  6.62480e-04        00000 
 4.62358e-04  7.95248e-04        00000 
 4.69471e-04  8.03207e-04        00000 
 4.38825e-04  7.37197e-04        00000 
 3.73802e-04  6.20883e-04        00000 
 2.77411e-04  4.62301e-04        00000 
 1.52008e-04  2.59010e-04        00000 
 3.77190e-20  1.18026e-19        00000 
 2.53232e-04  7.10449e-04        00000 
 2.57319e-04  7.86331e-04        00000 
 2.57634e-04  7.63446e-04        00000 
 2.43830e-04  6.82084e-04        00000 
 2.12374e-04  5.61811e-04        00000 
 1.62130e-04  4.10076e-04        00000 
 9.20350e-05  2.25813e-04        00000 
 8.81028e-21  7.04822e-20        00000 
 1.58258e-04  7.92649e-04        00000 
 1.38336e-04  7.93896e-04        00000 
 1.37020e-04  7.23466e-04        00000 
 1.34632e-04  6.14037e-04        00000 
 1.23027e-04  4.81342e-04        00000 
 9.87787e-05  3.33174e-04        00000 
 5.92353e-05  1.72814e-04        00000 
-1.78188e-20 -1.52732e-20        00000 
 1.39284e-04  9.19836e-04        00000 
 1.19811e-04  8.28238e-04        00000 
 1.27388e-04  6.98961e-04        00000 
 1.33159e-04  5.53750e-04        00000 
 1.26657e-04  4.02813e-04        00000 
 1.04168e-04  2.53977e-04        00000 
 6.32871e-05  1.15888e-04        00000 
 1.54379e-20  1.26032e-20        00000 
 2.00621e-04  1.09493e-03        00000 
 2.13394e-04  8.95815e-04        00000 
 2.41483e-04  7.05964e-04        00000 
 2.50625e-04  5.25279e-04        00000 
 2.31926e-04  3.54798e-04        00000 
 1.83995e-04  2.00782e-04        00000 
 1.06880e-04  7.57695e-05        00000 
 1.32828e-20 -1.26907e-20        00000 
 3.40055e-04  1.30926e-03        00000 
 4.19959e-04  9.99985e-04        00000 
 4.75726e-04  7.59297e-04        00000 
 4.79249e-04  5.51193e-04        00000 
 4.28922e-04  3.63902e-04        00000 
 3.28768e-04  1.99754e-04        00000 
 1.83784e-04  7.12995e-05        00000 
-5.12480e-20 -5.97893e-20        00000 
 5.45845e-04  1.54542e-03        00000 
 7.21814e-04  1.14008e-03        00000 
 8.05066e-04  8.66791e-04        00000 
 7.91351e-04  6.43963e-04        00000 
 6.92092e-04  4.45481e-04        00000 
 5.18700e-04  2.66532e-04        00000 
 2.83129e-04  1.13822e-04        00000 
 8.65899e-20  6.25371e-20        00000 
 7.98264e-04  1.78460e-03        00000 
 1.08681e-03  1.30988e-03        00000 
 1.19180e-03  1.02518e-03        00000 
 1.15111e-03  8.01527e-04        00000 
 9.94187e-04  6.00028e-04        00000 
 7.38898e-04  4.07611e-04        00000 
 3.97468e-04  2.11874e-04        00000 
-1.52088e-19 -5.21157e-20        00000 
 1.07428e-03  2.01185e-03        00000 
 1.48150e-03  1.49911e-03        00000 
 1.59973e-03  1.22315e-03        00000 
 1.52774e-03  1.01015e-03        00000 
 1.32090e-03  8.17643e-04        00000 
 9.96039e-04  6.27552e-04        00000 
 5.51180e-04  4.08508e-04        00000 
 1.94396e-19  2.84322e-19        00000 
 1.35055e-03  2.21436e-03        00000 
 1.88436e-03  1.70019e-03        00000 
 1.99847e-03  1.44535e-03        00000 
 1.90599e-03  1.25061e-03        00000 
 1.69498e-03  1.08515e-03        00000 
 1.43674e-03  9.39968e-04        00000 
 1.32012e-03  7.69051e-04        00000 
 2.04510e-03  3.91048e-04        00000 
 1.64420e-03  2.43704e-03        00000 
 2.24012e-03  2.01548e-03        00000 
 2.41514e-03  1.79934e-03        00000 
 2.40634e-03  1.64633e-03        00000 
 2.31515e-03  1.52242e-03        00000 
 2.20933e-03  1.42771e-03        00000 
 2.17825e-03  1.34376e-03        00000 
 2.27612e-03  1.14328e-03        00000 
 2.03598e-03  2.70638e-03        00000 
 2.66880e-03  2.38764e-03        00000 
 2.89704e-03  2.22401e-03        00000 
 2.95729e-03  2.10969e-03        00000 
 2.95430e-03  2.01565e-03        00000 
 2.94667e-03  1.93537e-03        00000 
 2.96307e-03  1.86252e-03        00000 
 2.99828e-03  1.77882e-03        00000 
 2.54416e-03  3.01479e-03        00000 
 3.18093e-03  2.81910e-03        00000 
 3.44379e-03  2.71605e-03        00000 
 3.55441e-03  2.64451e-03        00000 
 3.61176e-03  2.58234e-03        00000 
 3.66893e-03  2.52081e-03        00000 
 3.75104e-03  2.45868e-03        00000 
 3.84996e-03  2.40065e-03        00000 
 3.18580e-03  3.34674e-03        00000 
 3.77777e-03  3.29036e-03        00000 
 4.04822e-03  3.25591e-03        00000 
 4.18650e-03  3.23215e-03        00000 
 4.27976e-03  3.21034e-03        00000 
 4.37794e-03  3.18408e-03        00000 
 4.51369e-03  3.15121e-03        00000 
 4.70671e-03  3.11878e-03        00000 
 3.96467e-03  3.67381e-03        00000 
 4.45142e-03  3.75575e-03        00000 
 4.69456e-03  3.79281e-03        00000 
 4.83535e-03  3.81928e-03        00000 
 4.94190e-03  3.84331e-03        00000 
 5.05662e-03  3.86416e-03        00000 
 5.21528e-03  3.87889e-03        00000 
 5.45724e-03  3.88736e-03        00000 
 4.86089e-03  3.95516e-03        00000 
 5.18355e-03  4.14747e-03        00000 
 5.36302e-03  4.24543e-03        00000 
 5.48159e-03  4.31586e-03        00000 
 5.58079e-03  4.38127e-03        00000 
 5.68818e-03  4.44715e-03        00000 
 5.82997e-03  4.51095e-03        00000 
 6.04084e-03  4.56497e-03        00000 
 5.82739e-03  4.14806e-03        00000 
 5.94605e-03  4.39624e-03        00000 
 6.03595e-03  4.52771e-03        00000 
 6.11467e-03  4.62375e-03        00000 
 6.19197e-03  4.71363e-03        00000 
 6.27456e-03  4.80592e-03        00000 
 6.36837e-03  4.89846e-03        00000 
 6.48013e-03  4.97967e-03        00000 
 6.79861e-03  4.22682e-03        00000 
 6.70542e-03  4.46319e-03        00000 
 6.70096e-03  4.59156e-03        00000 
 6.73632e-03  4.68790e-03        00000 
 6.78831e-03  4.77832e-03        00000 
 6.84155e-03  4.86941e-03        00000 
 6.87984e-03  4.95811e-03        00000 
 6.87842e-03  5.03434e-03        00000 
 7.70876e-03  4.19582e-03        00000 
 7.42963e-03  4.35946e-03        00000 
 7.34854e-03  4.45316e-03        00000 
 7.35218e-03  4.52841e-03        00000 
 7.38728e-03  4.59931e-03        00000 
 7.42035e-03  4.66636e-03        00000 
 7.42104e-03  4.72522e-03        00000 
 7.35197e-03  4.77184e-03        00000 
 8.50976e-03  4.08351e-03        00000 
 8.09404e-03  4.13586e-03        00000 
 7.96813e-03  4.17847e-03        00000 
 7.96098e-03  4.22238e-03        00000 
 7.99504e-03  4.26495e-03        00000 
 8.02513e-03  4.29987e-03        00000 
 8.01896e-03  4.32240e-03        00000 
 7.95209e-03  4.33556e-03        00000 
 9.17968e-03  3.92539e-03        00000 
 8.68412e-03  3.85436e-03        00000 
 8.54759e-03  3.84427e-03        00000 
 8.55285e-03  3.85666e-03        00000 
 8.60449e-03  3.87292e-03        00000 
 8.65047e-03  3.88217e-03        00000 
 8.66311e-03  3.87970e-03        00000 
 8.64378e-03  3.86813e-03        00000 
 9.71959e-03  3.75157e-03        00000 
 9.19469e-03  3.56476e-03        00000 
 9.07653e-03  3.50831e-03        00000 
 9.11564e-03  3.49379e-03        00000 
 9.20483e-03  3.49054e-03        00000 
 9.28490e-03  3.48668e-03        00000 
 9.32544e-03  3.47262e-03        00000 
 9.33127e-03  3.43281e-03        00000 
 1.01438e-02  3.58312e-03        00000 
 9.62798e-03  3.29561e-03        00000 
 9.55001e-03  3.20184e-03        00000 
 9.64023e-03  3.16608e-03        00000 
 9.78897e-03  3.14552e-03        00000 
 9.92824e-03  3.13108e-03        00000 
 9.97765e-03  3.09988e-03        00000 
 9.90183e-03  2.95039e-03        00000 
 1.04681e-02  3.43479e-03        00000 
 9.99436e-03  3.05397e-03        00000 
 9.96749e-03  2.93998e-03        00000 
 1.01215e-02  2.88234e-03        00000 
 1.03544e-02  2.83493e-03        00000 
 1.05931e-02  2.77783e-03        00000 
 1.06716e-02  2.65367e-03        00000 
 1.00691e-02  2.33399e-03        00000 
 1.07789e-02  3.29588e-03        00000 
 1.04002e-02  2.88286e-03        00000 
 1.03450e-02  2.73446e-03        00000 
 1.04653e-02  2.65483e-03        00000 
 1.06874e-02  2.58692e-03        00000 
 1.09840e-02  2.50645e-03        00000 
 1.13440e-02  2.38671e-03        00000 
 1.17325e-02  2.00690e-03        00000 
 1.10991e-02  3.12641e-03        00000 
 1.08154e-02  2.71628e-03        00000 
 1.07550e-02  2.54291e-03        00000 
 1.08351e-02  2.44567e-03        00000 
 1.10094e-02  2.36881e-03        00000 
 1.12524e-02  2.29212e-03        00000 
 1.15487e-02  2.20485e-03        00000 
 1.18572e-02  2.14403e-03        00000 
 1.14053e-02  2.93218e-03        00000 
 1.12217e-02  2.55797e-03        00000 
 1.11700e-02  2.37857e-03        00000 
 1.12182e-02  2.27255e-03        00000 
 1.13403e-02  2.19430e-03        00000 
 1.15181e-02  2.12795e-03        00000 
 1.17379e-02  2.07736e-03        00000 
 1.19941e-02  2.05858e-03        00000 
 1.16716e-02  2.71861e-03        00000 
 1.15844e-02  2.41459e-03        00000 
 1.15528e-02  2.25175e-03        00000 
 1.15814e-02  2.15014e-03        00000 
 1.16610e-02  2.07668e-03        00000 
 1.17824e-02  2.01969e-03        00000 
 1.19397e-02  1.97864e-03        00000 
 1.21307e-02  1.95986e-03        00000 
 1.18711e-02  2.49443e-03        00000 
 1.18619e-02  2.28932e-03        00000 
 1.18555e-02  2.16655e-03        00000 
 1.18767e-02  2.08426e-03        00000 
 1.19283e-02  2.02303e-03        00000 
 1.20079e-02  1.97494e-03        00000 
 1.21127e-02  1.93807e-03        00000 
 1.22416e-02  1.91355e-03        00000 
 1.19805e-02  2.26996e-03        00000 
 1.20183e-02  2.18055e-03        00000 
 1.20319e-02  2.11666e-03        00000 
 1.20531e-02  2.06700e-03        00000 
 1.20908e-02  2.02571e-03        00000 
 1.21459e-02  1.99034e-03        00000 
 1.22166e-02  1.96024e-03        00000 
 1.23007e-02  1.93552e-03        00000 
 1.19850e-02  2.05360e-03        00000 
 1.20327e-02  2.08375e-03        00000 
 1.20524e-02  2.08699e-03        00000 
 1.20751e-02  2.07653e-03        00000 
 1.21103e-02  2.05934e-03        00000 
 1.21596e-02  2.03939e-03        00000 
 1.22209e-02  2.01905e-03        00000 
 1.22912e-02  1.99975e-03        00000 
 1.18816e-02  1.85031e-03        00000 
 1.19023e-02  1.99337e-03        00000 
 1.19120e-02  2.05887e-03        00000 
 1.19353e-02  2.08376e-03        00000 
 1.19785e-02  2.08733e-03        00000 
 1.20411e-02  2.07980e-03        00000 
 1.21206e-02  2.06669e-03        00000 
 1.22142e-02  2.05098e-03        00000 
 1.16798e-02  1.66338e-03        00000 
 1.16414e-02  1.90320e-03        00000 
 1.16299e-02  2.01437e-03        00000 
 1.16565e-02  2.06130e-03        00000 
 1.17195e-02  2.07514e-03        00000 
 1.18146e-02  2.07119e-03        00000 
 1.19381e-02  2.05662e-03        00000 
 1.20878e-02  2.03431e-03        00000 
 1.14001e-02  1.49638e-03        00000 
 1.12798e-02  1.80718e-03        00000 
 1.12454e-02  1.94058e-03        00000 
 1.12834e-02  1.99160e-03        00000 
 1.13802e-02  2.00217e-03        00000 
 1.15254e-02  1.99104e-03        00000 
 1.17125e-02  1.96504e-03        00000 
 1.19384e-02  1.92372e-03        00000 
 1.10695e-02  1.35265e-03        00000 
 1.08577e-02  1.70214e-03        00000 
 1.08067e-02  1.83374e-03        00000 
 1.08675e-02  1.87107e-03        00000 
 1.10119e-02  1.86505e-03        00000 
 1.12223e-02  1.83883e-03        00000 
 1.14844e-02  1.79727e-03        00000 
 1.17904e-02  1.73356e-03        00000 
 1.07161e-02  1.23344e-03        00000 
 1.04151e-02  1.58966e-03        00000 
 1.03575e-02  1.69927e-03        00000 
 1.04513e-02  1.70758e-03        00000 
 1.06531e-02  1.67216e-03        00000 
 1.09394e-02  1.62252e-03        00000 
 1.12914e-02  1.58181e-03        00000 
 1.16613e-02  1.52884e-03        00000 
 1.03642e-02  1.13782e-03        00000 
 9.98158e-03  1.47437e-03        00000 
 9.92778e-03  1.54673e-03        00000 
 1.00615e-02  1.51490e-03        00000 
 1.03193e-02  1.43536e-03        00000 
 1.06759e-02  1.34539e-03        00000 
 1.11098e-02  1.29888e-03        00000 
 1.15524e-02  1.52523e-03        00000 
 1.99494e-02  3.21963e-04        00000 
 1.96967e-02  4.25945e-04        00000 
 1.99033e-02  2.94469e-04        00000 
 2.03098e-02  6.77433e-05        00000 
 2.08474e-02 -2.31444e-04        00000 
 2.14579e-02 -5.82938e-04        00000 
 2.19639e-02 -8.89806e-04        00000 
 2.17511e-02 -8.55929e-04        00000 
 1.97241e-02  3.09940e-04        00000 
 1.94415e-02  3.61746e-04        00000 
 1.95874e-02  2.56098e-04        00000 
 1.99091e-02  6.24098e-05        00000 
 2.03324e-02 -2.01747e-04        00000 
 2.08061e-02 -5.36331e-04        00000 
 2.12378e-02 -9.21743e-04        00000 
 2.15026e-02 -1.24531e-03        00000 
 1.94347e-02  2.98579e-04        00000 
 1.91465e-02  2.96526e-04        00000 
 1.92390e-02  2.04385e-04        00000 
 1.94852e-02  4.81034e-05        00000 
 1.98141e-02 -1.65891e-04        00000 
 2.01894e-02 -4.34060e-04        00000 
 2.05838e-02 -7.39838e-04        00000 
 2.10145e-02 -1.03682e-03        00000 
 1.90729e-02  2.94807e-04        00000 
 1.88052e-02  2.33131e-04        00000 
 1.88583e-02  1.47899e-04        00000 
 1.90408e-02  2.62570e-05        00000 
 1.92914e-02 -1.35079e-04        00000 
 1.95863e-02 -3.35166e-04        00000 
 1.99207e-02 -5.67759e-04        00000 
 2.03086e-02 -8.24992e-04        00000 
 1.86317e-02  3.05457e-04        00000 
 1.84158e-02  1.82015e-04        00000 
 1.84474e-02  9.85547e-05        00000 
 1.85801e-02  6.59010e-06        00000 
 1.87662e-02 -1.06796e-04        00000 
 1.89891e-02 -2.45410e-04        00000 
 1.92469e-02 -4.10856e-04        00000 
 1.95474e-02 -6.05808e-04        00000 
 1.81121e-02  3.36303e-04        00000 
 1.79809e-02  1.59373e-04        00000 
 1.80110e-02  7.47174e-05        00000 
 1.81086e-02  6.20237e-06        00000 
 1.82421e-02 -6.77952e-05        00000 
 1.84007e-02 -1.54517e-04        00000 
 1.85826e-02 -2.57685e-04        00000 
 1.87914e-02 -3.81510e-04        00000 
 1.75278e-02  3.90539e-04        00000 