<?xml version="1.0" encoding="utf-8"?>
<VTKFile byte_order="LittleEndian" type="UnstructuredGrid" version="0.1">
   <UnstructuredGrid>
      <Piece NumberOfCells="11760" NumberOfPoints="12881">
         <Points>
            <DataArray Name="Points" NumberOfComponents="3" format="ascii" type="Float32">
0.0916 0.0916 0.0000
0.2214 0.2214 0.0000
0.3511 0.3511 0.0000
0.4809 0.4809 0.0000
0.6107 0.6107 0.0000
0.7405 0.7405 0.0000
0.8702 0.8702 0.0000
1.0000 1.0000 0.0000
0.0843 0.0983 0.0000
0.1947 0.2272 0.0000
0.3051 0.3560 0.0000
0.4155 0.4848 0.0000
0.5259 0.6136 0.0000
0.6363 0.7424 0.0000
0.7467 0.8712 0.0000
0.8571 1.0000 0.0000
0.0753 0.1054 0.0000
0.1666 0.2332 0.0000
0.2579 0.3610 0.0000
0.3491 0.4888 0.0000
0.4404 0.6166 0.0000
0.5317 0.7444 0.0000
0.6230 0.8722 0.0000
0.7143 1.0000 0.0000
0.0643 0.1125 0.0000
0.1367 0.2393 0.0000
0.2092 0.3660 0.0000
0.2816 0.4928 0.0000
0.3541 0.6196 0.0000
0.4265 0.7464 0.0000
0.4990 0.8732 0.0000
0.5714 1.0000 0.0000
0.0510 0.1191 0.0000
0.1050 0.2449 0.0000
0.1589 0.3708 0.0000
0.2128 0.4966 0.0000
0.2668 0.6225 0.0000
0.3207 0.7483 0.0000
0.3746 0.8742 0.0000
0.4286 1.0000 0.0000
0.0356 0.1245 0.0000
0.0713 0.2496 0.0000
0.1071 0.3747 0.0000
0.1428 0.4997 0.0000
0.1785 0.6248 0.0000
0.2142 0.7499 0.0000
0.2500 0.8749 0.0000
0.2857 1.0000 0.0000
0.0183 0.1282 0.0000
0.0361 0.2528 0.0000
0.0539 0.3773 0.0000
0.0717 0.5018 0.0000
0.0895 0.6264 0.0000
0.1073 0.7509 0.0000
0.1251 0.8755 0.0000
0.1429 1.0000 0.0000
0.0000 0.1295 0.0000
0.0000 0.2539 0.0000
0.0000 0.3782 0.0000
0.0000 0.5026 0.0000
0.0000 0.6269 0.0000
0.0000 0.7513 0.0000
0.0000 0.8756 0.0000
0.0000 1.0000 0.0000
-0.0183 0.1282 0.0000
-0.0361 0.2528 0.0000
-0.0539 0.3773 0.0000
-0.0717 0.5018 0.0000
-0.0895 0.6264 0.0000
-0.1073 0.7509 0.0000
-0.1251 0.8755 0.0000
-0.1429 1.0000 0.0000
-0.0356 0.1245 0.0000
-0.0713 0.2496 0.0000
-0.1071 0.3747 0.0000
-0.1428 0.4997 0.0000
-0.1785 0.6248 0.0000
-0.2142 0.7499 0.0000
-0.2500 0.8749 0.0000
-0.2857 1.0000 0.0000
-0.0510 0.1191 0.0000
-0.1050 0.2449 0.0000
-0.1589 0.3708 0.0000
-0.2128 0.4966 0.0000
-0.2668 0.6225 0.0000
-0.3207 0.7483 0.0000
-0.3746 0.8742 0.0000
-0.4286 1.0000 0.0000
-0.0643 0.1125 0.0000
-0.1367 0.2393 0.0000
-0.2092 0.3660 0.0000
-0.2816 0.4928 0.0000
-0.3541 0.6196 0.0000
-0.4265 0.7464 0.0000
-0.4990 0.8732 0.0000
-0.5714 1.0000 0.0000
-0.0753 0.1054 0.0000
-0.1666 0.2332 0.0000
-0.2579 0.3610 0.0000
-0.3491 0.4888 0.0000
-0.4404 0.6166 0.0000
-0.5317 0.7444 0.0000
-0.6230 0.8722 0.0000
-0.7143 1.0000 0.0000
-0.0843 0.0983 0.0000
-0.1947 0.2272 0.0000
-0.3051 0.3560 0.0000
-0.4155 0.4848 0.0000
-0.5259 0.6136 0.0000
-0.6363 0.7424 0.0000
-0.7467 0.8712 0.0000
-0.8571 1.0000 0.0000
-0.0916 0.0916 0.0000
-0.2214 0.2214 0.0000
-0.3511 0.3511 0.0000
-0.4809 0.4809 0.0000
-0.6107 0.6107 0.0000
-0.7405 0.7405 0.0000
-0.8702 0.8702 0.0000
-1.0000 1.0000 0.0000
-0.0983 0.0843 0.0000
-0.2272 0.1947 0.0000
-0.3560 0.3051 0.0000
-0.4848 0.4155 0.0000
-0.6136 0.5259 0.0000
-0.7424 0.6363 0.0000
-0.8712 0.7467 0.0000
-1.0000 0.8571 0.0000
-0.1054 0.0753 0.0000
-0.2332 0.1666 0.0000
-0.3610 0.2579 0.0000
-0.4888 0.3491 0.0000
-0.6166 0.4404 0.0000
-0.7444 0.5317 0.0000
-0.8722 0.6230 0.0000
-1.0000 0.7143 0.0000
-0.1125 0.0643 0.0000
-0.2393 0.1367 0.0000
-0.3660 0.2092 0.0000
-0.4928 0.2816 0.0000
-0.6196 0.3541 0.0000
-0.7464 0.4265 0.0000
-0.8732 0.4990 0.0000
-1.0000 0.5714 0.0000
-0.1191 0.0510 0.0000
-0.2449 0.1050 0.0000
-0.3708 0.1589 0.0000
-0.4966 0.2128 0.0000
-0.6225 0.2668 0.0000
-0.7483 0.3207 0.0000
-0.8742 0.3746 0.0000
-1.0000 0.4286 0.0000
-0.1245 0.0356 0.0000
-0.2496 0.0713 0.0000
-0.3747 0.1071 0.0000
-0.4997 0.1428 0.0000
-0.6248 0.1785 0.0000
-0.7499 0.2142 0.0000
-0.8749 0.2500 0.0000
-1.0000 0.2857 0.0000
-0.1282 0.0183 0.0000
-0.2528 0.0361 0.0000
-0.3773 0.0539 0.0000
-0.5018 0.0717 0.0000
-0.6264 0.0895 0.0000
-0.7509 0.1073 0.0000
-0.8755 0.1251 0.0000
-1.0000 0.1429 0.0000
-0.1295 0.0000 0.0000
-0.2539 0.0000 0.0000
-0.3782 0.0000 0.0000
-0.5026 0.0000 0.0000
-0.6269 0.0000 0.0000
-0.7513 0.0000 0.0000
-0.8756 0.0000 0.0000
-1.0000 0.0000 0.0000
-0.1282 -0.0183 0.0000
-0.2528 -0.0361 0.0000
-0.3773 -0.0539 0.0000
-0.5018 -0.0717 0.0000
-0.6264 -0.0895 0.0000
-0.7509 -0.1073 0.0000
-0.8755 -0.1251 0.0000
-1.0000 -0.1429 0.0000
-0.1245 -0.0356 0.0000
-0.2496 -0.0713 0.0000
-0.3747 -0.1071 0.0000
-0.4997 -0.1428 0.0000
-0.6248 -0.1785 0.0000
-0.7499 -0.2142 0.0000
-0.8749 -0.2500 0.0000
-1.0000 -0.2857 0.0000
-0.1191 -0.0510 0.0000
-0.2449 -0.1050 0.0000
-0.3708 -0.1589 0.0000
-0.4966 -0.2128 0.0000
-0.6225 -0.2668 0.0000
-0.7483 -0.3207 0.0000
-0.8742 -0.3746 0.0000
-1.0000 -0.4286 0.0000
-0.1125 -0.0643 0.0000
-0.2393 -0.1367 0.0000
-0.3660 -0.2092 0.0000
-0.4928 -0.2816 0.0000
-0.6196 -0.3541 0.0000
-0.7464 -0.4265 0.0000
-0.8732 -0.4990 0.0000
-1.0000 -0.5714 0.0000
-0.1054 -0.0753 0.0000
-0.2332 -0.1666 0.0000
-0.3610 -0.2579 0.0000
-0.4888 -0.3491 0.0000
-0.6166 -0.4404 0.0000
-0.7444 -0.5317 0.0000
-0.8722 -0.6230 0.0000
-1.0000 -0.7143 0.0000
-0.0983 -0.0843 0.0000
-0.2272 -0.1947 0.0000
-0.3560 -0.3051 0.0000
-0.4848 -0.4155 0.0000
-0.6136 -0.5259 0.0000
-0.7424 -0.6363 0.0000
-0.8712 -0.7467 0.0000
-1.0000 -0.8571 0.0000
-0.0916 -0.0916 0.0000
-0.2214 -0.2214 0.0000
-0.3511 -0.3511 0.0000
-0.4809 -0.4809 0.0000
-0.6107 -0.6107 0.0000
-0.7405 -0.7405 0.0000
-0.8702 -0.8702 0.0000
-1.0000 -1.0000 0.0000
-0.0843 -0.0983 0.0000
-0.1947 -0.2272 0.0000
-0.3051 -0.3560 0.0000
-0.4155 -0.4848 0.0000
-0.5259 -0.6136 0.0000
-0.6363 -0.7424 0.0000
-0.7467 -0.8712 0.0000
-0.8571 -1.0000 0.0000
-0.0753 -0.1054 0.0000
-0.1666 -0.2332 0.0000
-0.2579 -0.3610 0.0000
-0.3491 -0.4888 0.0000
-0.4404 -0.6166 0.0000
-0.5317 -0.7444 0.0000
-0.6230 -0.8722 0.0000
-0.7143 -1.0000 0.0000
-0.0643 -0.1125 0.0000
-0.1367 -0.2393 0.0000
-0.2092 -0.3660 0.0000
-0.2816 -0.4928 0.0000
-0.3541 -0.6196 0.0000
-0.4265 -0.7464 0.0000
-0.4990 -0.8732 0.0000
-0.5714 -1.0000 0.0000
-0.0510 -0.1191 0.0000
-0.1050 -0.2449 0.0000
-0.1589 -0.3708 0.0000
-0.2128 -0.4966 0.0000
-0.2668 -0.6225 0.0000
-0.3207 -0.7483 0.0000
-0.3746 -0.8742 0.0000
-0.4286 -1.0000 0.0000
-0.0356 -0.1245 0.0000
-0.0713 -0.2496 0.0000
-0.1071 -0.3747 0.0000
-0.1428 -0.4997 0.0000
-0.1785 -0.6248 0.0000
-0.2142 -0.7499 0.0000
-0.2500 -0.8749 0.0000
-0.2857 -1.0000 0.0000
-0.0183 -0.1282 0.0000
-0.0361 -0.2528 0.0000
-0.0539 -0.3773 0.0000
-0.0717 -0.5018 0.0000
-0.0895 -0.6264 0.0000
-0.1073 -0.7509 0.0000
-0.1251 -0.8755 0.0000
-0.1429 -1.0000 0.0000
0.0000 -0.1295 0.0000
0.0000 -0.2539 0.0000
0.0000 -0.3782 0.0000
0.0000 -0.5026 0.0000
0.0000 -0.6269 0.0000
0.0000 -0.7513 0.0000
0.0000 -0.8756 0.0000
0.0000 -1.0000 0.0000
0.0183 -0.1282 0.0000
0.0361 -0.2528 0.0000
0.0539 -0.3773 0.0000
0.0717 -0.5018 0.0000
0.0895 -0.6264 0.0000
0.1073 -0.7509 0.0000
0.1251 -0.8755 0.0000
0.1429 -1.0000 0.0000
0.0356 -0.1245 0.0000
0.0713 -0.2496 0.0000
0.1071 -0.3747 0.0000
0.1428 -0.4997 0.0000
0.1785 -0.6248 0.0000
0.2142 -0.7499 0.0000
0.2500 -0.8749 0.0000
0.2857 -1.0000 0.0000
0.0510 -0.1191 0.0000
0.1050 -0.2449 0.0000
0.1589 -0.3708 0.0000
0.2128 -0.4966 0.0000
0.2668 -0.6225 0.0000
0.3207 -0.7483 0.0000
0.3746 -0.8742 0.0000
0.4286 -1.0000 0.0000
0.0643 -0.1125 0.0000
0.1367 -0.2393 0.0000
0.2092 -0.3660 0.0000
0.2816 -0.4928 0.0000
0.3541 -0.6196 0.0000
0.4265 -0.7464 0.0000
0.4990 -0.8732 0.0000
0.5714 -1.0000 0.0000
0.0753 -0.1054 0.0000
0.1666 -0.2332 0.0000
0.2579 -0.3610 0.0000
0.3491 -0.4888 0.0000
0.4404 -0.6166 0.0000
0.5317 -0.7444 0.0000
0.6230 -0.8722 0.0000
0.7143 -1.0000 0.0000
0.0843 -0.0983 0.0000
0.1947 -0.2272 0.0000
0.3051 -0.3560 0.0000
0.4155 -0.4848 0.0000
0.5259 -0.6136 0.0000
0.6363 -0.7424 0.0000
0.7467 -0.8712 0.0000
0.8571 -1.0000 0.0000
0.0916 -0.0916 0.0000
0.2214 -0.2214 0.0000
0.3511 -0.3511 0.0000
0.4809 -0.4809 0.0000
0.6107 -0.6107 0.0000
0.7405 -0.7405 0.0000
0.8702 -0.8702 0.0000
1.0000 -1.0000 0.0000
0.0983 -0.0843 0.0000
0.2272 -0.1947 0.0000
0.3560 -0.3051 0.0000
0.4848 -0.4155 0.0000
0.6136 -0.5259 0.0000
0.7424 -0.6363 0.0000
0.8712 -0.7467 0.0000
1.0000 -0.8571 0.0000
0.1054 -0.0753 0.0000
0.2332 -0.1666 0.0000
0.3610 -0.2579 0.0000
0.4888 -0.3491 0.0000
0.6166 -0.4404 0.0000
0.7444 -0.5317 0.0000
0.8722 -0.6230 0.0000
1.0000 -0.7143 0.0000
0.1125 -0.0643 0.0000
0.2393 -0.1367 0.0000
0.3660 -0.2092 0.0000
0.4928 -0.2816 0.0000
0.6196 -0.3541 0.0000
0.7464 -0.4265 0.0000
0.8732 -0.4990 0.0000
1.0000 -0.5714 0.0000
0.1191 -0.0510 0.0000
0.2449 -0.1050 0.0000
0.3708 -0.1589 0.0000
0.4966 -0.2128 0.0000
0.6225 -0.2668 0.0000
0.7483 -0.3207 0.0000
0.8742 -0.3746 0.0000
1.0000 -0.4286 0.0000
0.1245 -0.0356 0.0000
0.2496 -0.0713 0.0000
0.3747 -0.1071 0.0000
0.4997 -0.1428 0.0000
0.6248 -0.1785 0.0000
0.7499 -0.2142 0.0000
0.8749 -0.2500 0.0000
1.0000 -0.2857 0.0000
0.1282 -0.0183 0.0000
0.2528 -0.0361 0.0000
0.3773 -0.0539 0.0000
0.5018 -0.0717 0.0000
0.6264 -0.0895 0.0000
0.7509 -0.1073 0.0000
0.8755 -0.1251 0.0000
1.0000 -0.1429 0.0000
0.1295 0.0000 0.0000
0.2539 0.0000 0.0000
0.3782 0.0000 0.0000
0.5026 0.0000 0.0000
0.6269 0.0000 0.0000
0.7513 0.0000 0.0000
0.8756 0.0000 0.0000
1.0000 0.0000 0.0000
0.1282 0.0183 0.0000
0.2528 0.0361 0.0000
0.3773 0.0539 0.0000
0.5018 0.0717 0.0000
0.6264 0.0895 0.0000
0.7509 0.1073 0.0000
0.8755 0.1251 0.0000
1.0000 0.1429 0.0000
0.1245 0.0356 0.0000
0.2496 0.0713 0.0000
0.3747 0.1071 0.0000
0.4997 0.1428 0.0000
0.6248 0.1785 0.0000
0.7499 0.2142 0.0000
0.8749 0.2500 0.0000
1.0000 0.2857 0.0000
0.1191 0.0510 0.0000
0.2449 0.1050 0.0000
0.3708 0.1589 0.0000
0.4966 0.2128 0.0000
0.6225 0.2668 0.0000
0.7483 0.3207 0.0000
0.8742 0.3746 0.0000
1.0000 0.4286 0.0000
0.1125 0.0643 0.0000
0.2393 0.1367 0.0000
0.3660 0.2092 0.0000
0.4928 0.2816 0.0000
0.6196 0.3541 0.0000
0.7464 0.4265 0.0000
0.8732 0.4990 0.0000
1.0000 0.5714 0.0000
0.1054 0.0753 0.0000
0.2332 0.1666 0.0000
0.3610 0.2579 0.0000
0.4888 0.3491 0.0000
0.6166 0.4404 0.0000
0.7444 0.5317 0.0000
0.8722 0.6230 0.0000
1.0000 0.7143 0.0000
0.0983 0.0843 0.0000
[...]
         <PointData>
            <DataArray Name="fValues" NumberOfComponents="3" format="ascii" type="Float64">
-3.18016e-03 -4.96238e-03        00000 
-2.59842e-03 -5.77781e-03        00000 
-2.15559e-03 -6.62071e-03        00000 
-1.65394e-03 -7.57326e-03        00000 
-1.05981e-03 -8.61228e-03        00000 
-3.61944e-04 -9.71656e-03        00000 
 4.35441e-04 -1.08473e-02        00000 
 1.32881e-03 -1.18632e-02        00000 
-3.11820e-03 -4.88396e-03        00000 
-2.50810e-03 -5.57000e-03        00000 
-2.06083e-03 -6.26933e-03        00000 
-1.56985e-03 -7.05150e-03        00000 
-1.00227e-03 -7.91211e-03        00000 
-3.46189e-04 -8.83877e-03        00000 
 4.04768e-04 -9.81606e-03        00000 
 1.16875e-03 -1.08182e-02        00000 
-3.04487e-03 -4.78741e-03        00000 
-2.40960e-03 -5.34436e-03        00000 
-1.95867e-03 -5.90552e-03        00000 
-1.47983e-03 -6.52779e-03        00000 
-9.40317e-04 -7.21488e-03        00000 
-3.26980e-04 -7.96345e-03        00000 
 3.64486e-04 -8.76782e-03        00000 
 1.12105e-03 -9.60314e-03        00000 
-2.95933e-03 -4.67023e-03        00000 
-2.30426e-03 -5.09765e-03        00000 
-1.85103e-03 -5.52726e-03        00000 
-1.38469e-03 -5.99946e-03        00000 
-8.73483e-04 -6.52103e-03        00000 
-3.04593e-04 -7.09481e-03        00000 
 3.31034e-04 -7.72077e-03        00000 
 1.03957e-03 -8.39078e-03        00000 
-2.86182e-03 -4.53166e-03        00000 
-2.19551e-03 -4.82877e-03        00000 
-1.74137e-03 -5.13436e-03        00000 
-1.28715e-03 -5.46643e-03        00000 
-8.03285e-04 -5.83230e-03        00000 
-2.77683e-04 -6.23730e-03        00000 
 2.99984e-04 -6.68598e-03        00000 
 9.42231e-04 -7.18101e-03        00000 
-2.75424e-03 -4.37411e-03        00000 
-2.08901e-03 -4.54109e-03        00000 
-1.63478e-03 -4.73049e-03        00000 
-1.19153e-03 -4.93257e-03        00000 
-7.32701e-04 -5.15389e-03        00000 
-2.47593e-04 -5.39975e-03        00000 
 2.73123e-04 -5.67564e-03        00000 
 8.41864e-04 -5.98840e-03        00000 
-2.64048e-03 -4.20436e-03        00000 
-1.99127e-03 -4.24446e-03        00000 
-1.53674e-03 -4.32497e-03        00000 
-1.10236e-03 -4.40682e-03        00000 
-6.65312e-04 -4.49564e-03        00000 
-2.16449e-04 -4.59548e-03        00000 
 2.51777e-04 -4.70968e-03        00000 
 7.48946e-04 -4.84257e-03        00000 
-2.52595e-03 -4.03309e-03        00000 
-1.90690e-03 -3.95436e-03        00000 
-1.45060e-03 -3.93185e-03        00000 
-1.02220e-03 -3.90219e-03        00000 
-6.03262e-04 -3.87083e-03        00000 
-1.85988e-04 -3.84082e-03        00000 
 2.35717e-04 -3.81288e-03        00000 
 6.68404e-04 -3.78667e-03        00000 
-2.41644e-03 -3.87239e-03        00000 
-1.83620e-03 -3.68709e-03        00000 
-1.37553e-03 -3.56557e-03        00000 
-9.49937e-04 -3.43167e-03        00000 
-5.45848e-04 -3.29231e-03        00000 
-1.56524e-04 -3.15092e-03        00000 
 2.23108e-04 -3.00777e-03        00000 
 5.97015e-04 -2.86171e-03        00000 
-2.31671e-03 -3.73199e-03        00000 
-1.77548e-03 -3.45339e-03        00000 
-1.30708e-03 -3.23517e-03        00000 
-8.81528e-04 -3.00313e-03        00000 
-4.90212e-04 -2.76789e-03        00000 
-1.27333e-04 -2.53505e-03        00000 
 2.10970e-04 -2.30731e-03        00000 
 5.25649e-04 -2.08768e-03        00000 
-2.22955e-03 -3.61672e-03        00000 
-1.71980e-03 -3.25549e-03        00000 
-1.24003e-03 -2.94175e-03        00000 
-8.12658e-04 -2.61725e-03        00000 
-4.33659e-04 -2.29865e-03        00000 
-9.80973e-05 -1.99499e-03        00000 
 1.96039e-04 -1.71235e-03        00000 
 4.45668e-04 -1.45817e-03        00000 
-2.15577e-03 -3.52643e-03        00000 
-1.66561e-03 -3.08897e-03        00000 
-1.17089e-03 -2.68029e-03        00000 
-7.41015e-04 -2.26935e-03        00000 
-3.75420e-04 -1.88084e-03        00000 
-6.97291e-05 -1.52697e-03        00000 
 1.76052e-04 -1.21508e-03        00000 
 3.54640e-04 -9.51561e-04        00000 
-2.09477e-03 -3.45777e-03        00000 
-1.61138e-03 -2.94677e-03        00000 
-1.09852e-03 -2.44328e-03        00000 
-6.66723e-04 -1.95307e-03        00000 
-3.16625e-04 -1.50927e-03        00000 
-4.39470e-05 -1.12517e-03        00000 
 1.50950e-04 -8.05408e-04        00000 
 2.58487e-04 -5.47359e-04        00000 
-2.04522e-03 -3.40624e-03        00000 
-1.55686e-03 -2.82221e-03        00000 
-1.02348e-03 -2.22336e-03        00000 
-5.91452e-04 -1.66320e-03        00000 
-2.58845e-04 -1.17961e-03        00000 
-2.33642e-05 -7.83356e-04        00000 
 1.24416e-04 -4.77842e-04        00000 
 1.73031e-04 -2.31467e-04        00000 
-2.00554e-03 -3.36756e-03        00000 
-1.50217e-03 -2.71014e-03        00000 
-9.47434e-04 -2.01433e-03        00000 
-5.16819e-04 -1.39741e-03        00000 
-2.03621e-04 -8.88238e-04        00000 
-8.35647e-06 -4.96977e-04        00000 
 8.20856e-05 -2.24182e-04        00000 
 2.11637e-04 -5.91687e-05        00000 
-1.96528e-03 -3.33228e-03        00000 
-1.53010e-03 -2.71133e-03        00000 
-1.02936e-03 -2.02380e-03        00000 
-6.18556e-04 -1.41260e-03        00000 
-3.10277e-04 -9.01980e-04        00000 
-1.03965e-04 -5.00434e-04        00000 
-2.59511e-06 -2.11987e-04        00000 
-3.59885e-21  6.11805e-20        00000 
-1.92047e-03 -3.29865e-03        00000 
-1.55038e-03 -2.71413e-03        00000 
-1.10106e-03 -2.03768e-03        00000 
-7.14688e-04 -1.43151e-03        00000 
-4.10234e-04 -9.20165e-04        00000 
-1.90050e-04 -5.11668e-04        00000 
-5.52832e-05 -2.07809e-04        00000 
-3.37895e-21 -8.10948e-20        00000 
-1.87272e-03 -3.26896e-03        00000 
-1.56239e-03 -2.71889e-03        00000 
-1.16299e-03 -2.05493e-03        00000 
-8.02596e-04 -1.45450e-03        00000 
-5.03129e-04 -9.42799e-04        00000 
-2.69776e-04 -5.28371e-04        00000 
-1.02998e-04 -2.14117e-04        00000 
-6.83691e-20  4.68816e-20        00000 
-1.82550e-03 -3.24647e-03        00000 
-1.56768e-03 -2.72515e-03        00000 
-1.21711e-03 -2.07435e-03        00000 
-8.82627e-04 -1.48055e-03        00000 
-5.88796e-04 -9.69006e-04        00000 
-3.43207e-04 -5.49308e-04        00000 
-1.47267e-04 -2.25669e-04        00000 
 2.22576e-20 -4.58006e-20        00000 
-1.78458e-03 -3.23523e-03        00000 
-1.57169e-03 -2.73187e-03        00000 
-1.26855e-03 -2.09457e-03        00000 
-9.58801e-04 -1.50819e-03        00000 
-6.69925e-04 -9.97312e-04        00000 
-4.12208e-04 -5.72431e-04        00000 
-1.88838e-04 -2.39292e-04        00000 
 3.09610e-20  1.67658e-19        00000 
-1.75760e-03 -3.23945e-03        00000 
-1.58471e-03 -2.73855e-03        00000 
-1.32656e-03 -2.11493e-03        00000 
-1.03923e-03 -1.53676e-03        00000 
-7.53105e-04 -1.02691e-03        00000 
-4.81501e-04 -5.96397e-04        00000 
-2.30042e-04 -2.52857e-04        00000 
-1.64205e-19 -3.42093e-19        00000 
-1.75207e-03 -3.26223e-03        00000 
-1.61976e-03 -2.74706e-03        00000 
-1.40301e-03 -2.13712e-03        00000 
-1.13466e-03 -1.56798e-03        00000 
-8.47647e-04 -1.05944e-03        00000 
-5.58225e-04 -6.22377e-04        00000 
-2.74755e-04 -2.66508e-04        00000 
 2.09051e-19  1.89329e-19        00000 
-1.77241e-03 -3.30428e-03        00000 
-1.68723e-03 -2.76218e-03        00000 
-1.50776e-03 -2.16577e-03        00000 
-1.25441e-03 -1.60651e-03        00000 
-9.62096e-04 -1.09973e-03        00000 
-6.49308e-04 -6.54998e-04        00000 
-3.26928e-04 -2.83613e-04        00000 
 7.09448e-20 -1.36228e-19        00000 
-1.81776e-03 -3.36330e-03        00000 
-1.78955e-03 -2.78943e-03        00000 
-1.64389e-03 -2.20652e-03        00000 
-1.40213e-03 -1.65822e-03        00000 
-1.10065e-03 -1.15426e-03        00000 
-7.58706e-04 -7.01235e-04        00000 
-3.88978e-04 -3.10033e-04        00000 
 8.60511e-20  5.36247e-20        00000 
-1.88223e-03 -3.43453e-03        00000 
-1.92070e-03 -2.83178e-03        00000 
-1.80679e-03 -2.26294e-03        00000 
-1.57492e-03 -1.72721e-03        00000 
-1.26256e-03 -1.22840e-03        00000 
-8.87377e-04 -7.68233e-04        00000 
-4.61902e-04 -3.52745e-04        00000 
-2.72315e-20        00000        00000 
-1.95748e-03 -3.51216e-03        00000 
-2.07034e-03 -2.88828e-03        00000 
-1.98750e-03 -2.33500e-03        00000 
-1.76605e-03 -1.81406e-03        00000 
-1.44499e-03 -1.32478e-03        00000 
-1.03643e-03 -8.62541e-04        00000 
-5.47477e-04 -4.20720e-04        00000 
 7.03222e-20  8.59494e-20        00000 
-2.03556e-03 -3.59071e-03        00000 
-2.22880e-03 -2.95537e-03        00000 
-2.17654e-03 -2.41987e-03        00000 
-1.96885e-03 -1.91638e-03        00000 
-1.64647e-03 -1.44351e-03        00000 
-1.21154e-03 -9.91739e-04        00000 
-6.52012e-04 -5.30527e-04        00000 
 1.58192e-19  1.13753e-19        00000 
-2.11062e-03 -3.66593e-03        00000 
-2.38944e-03 -3.02909e-03        00000 
-2.36599e-03 -2.51341e-03        00000 
-2.17948e-03 -2.03025e-03        00000 
-1.86939e-03 -1.58478e-03        00000 
-1.42361e-03 -1.16183e-03        00000 
-8.10484e-04 -7.30314e-04        00000 
-3.89906e-19 -1.46138e-19        00000 
-2.17925e-03 -3.73496e-03        00000 
-2.54877e-03 -3.10654e-03        00000 
-2.54963e-03 -2.61081e-03        00000 
-2.39907e-03 -2.15293e-03        00000 
-2.12069e-03 -1.74787e-03        00000 
-1.72821e-03 -1.39116e-03        00000 
-1.35640e-03 -1.03853e-03        00000 
-2.03332e-03 -5.71319e-04        00000 
-2.24141e-03 -3.81201e-03        00000 
-2.67757e-03 -3.28375e-03        00000 
-2.76110e-03 -2.86779e-03        00000 
-2.72362e-03 -2.49384e-03        00000 
-2.59659e-03 -2.16826e-03        00000 
-2.40566e-03 -1.90499e-03        00000 
-2.27396e-03 -1.69593e-03        00000 
-2.43626e-03 -1.34957e-03        00000 
-2.31904e-03 -3.90751e-03        00000 
-2.81862e-03 -3.48154e-03        00000 
-2.98424e-03 -3.14843e-03        00000 
-3.05554e-03 -2.85622e-03        00000 
-3.06927e-03 -2.60758e-03        00000 
-3.05464e-03 -2.41391e-03        00000 
-3.06844e-03 -2.26721e-03        00000 
-3.17709e-03 -2.09255e-03        00000 
-2.41375e-03 -4.02395e-03        00000 
-2.97141e-03 -3.70392e-03        00000 
-3.21762e-03 -3.45531e-03        00000 
-3.39403e-03 -3.24506e-03        00000 
-3.53881e-03 -3.07270e-03        00000 
-3.67614e-03 -2.94186e-03        00000 
-3.83088e-03 -2.84684e-03        00000 
-4.00655e-03 -2.76091e-03        00000 
-2.52577e-03 -4.16193e-03        00000 
-3.13265e-03 -3.95276e-03        00000 
-3.45781e-03 -3.78959e-03        00000 
-3.73603e-03 -3.66283e-03        00000 
-4.00320e-03 -3.56855e-03        00000 
-4.27802e-03 -3.50483e-03        00000 
-4.57136e-03 -3.46657e-03        00000 
-4.87441e-03 -3.44654e-03        00000 
-2.65289e-03 -4.31867e-03        00000 
-3.29595e-03 -4.22507e-03        00000 
-3.69883e-03 -4.14868e-03        00000 
-4.07604e-03 -4.10813e-03        00000 
-4.45911e-03 -4.09641e-03        00000 
-4.86226e-03 -4.10837e-03        00000 
-5.29192e-03 -4.13931e-03        00000 
-5.74482e-03 -4.18802e-03        00000 
-2.78985e-03 -4.48694e-03        00000 
-3.45311e-03 -4.51101e-03        00000 
-3.93308e-03 -4.52443e-03        00000 
-4.40741e-03 -4.57465e-03        00000 
-4.90196e-03 -4.65230e-03        00000 
-5.42766e-03 -4.75046e-03        00000 
-5.99038e-03 -4.86474e-03        00000 
-6.59421e-03 -4.99451e-03        00000 
-2.92867e-03 -4.65586e-03        00000 
-3.59719e-03 -4.79506e-03        00000 
-4.15408e-03 -4.90380e-03        00000 
-4.72459e-03 -5.05180e-03        00000 
-5.32787e-03 -5.22785e-03        00000 
-5.97226e-03 -5.42381e-03        00000 
-6.66392e-03 -5.63502e-03        00000 
-7.41010e-03 -5.85969e-03        00000 
-3.06048e-03 -4.81360e-03        00000 
-3.72532e-03 -5.06145e-03        00000 
-4.35921e-03 -5.27331e-03        00000 
-5.02545e-03 -5.52841e-03        00000 
-5.73572e-03 -5.81374e-03        00000 
-6.49572e-03 -6.11982e-03        00000 
-7.31130e-03 -6.44077e-03        00000 
-8.18968e-03 -6.77322e-03        00000 
-3.17785e-03 -4.95111e-03        00000 
-3.83884e-03 -5.30037e-03        00000 
-4.54986e-03 -5.62447e-03        00000 
-5.31141e-03 -5.99741e-03        00000 
-6.12730e-03 -6.40384e-03        00000 
-6.99984e-03 -6.83280e-03        00000 
-7.93312e-03 -7.27622e-03        00000 
-8.93472e-03 -7.72868e-03        00000 
-3.27654e-03 -5.06428e-03        00000 
-3.94085e-03 -5.51031e-03        00000 
-4.72929e-03 -5.95605e-03        00000 
-5.58545e-03 -6.45774e-03        00000 
-6.50562e-03 -6.99680e-03        00000 
-7.48764e-03 -7.56120e-03        00000 
-8.53082e-03 -8.14030e-03        00000 
-9.64365e-03 -8.72398e-03        00000 
-3.35562e-03 -5.15367e-03        00000 
-4.03410e-03 -5.69551e-03        00000 
-4.90044e-03 -6.27210e-03        00000 
-5.85004e-03 -6.91275e-03        00000 
-6.87324e-03 -7.59439e-03        00000 
-7.96247e-03 -8.30551e-03        00000 
-9.10596e-03 -9.03285e-03        00000 
-1.03052e-02 -9.75347e-03        00000 
-3.41651e-03 -5.22262e-03        00000 
-4.12037e-03 -5.86208e-03        00000 
-5.06513e-03 -6.57880e-03        00000 
-6.10624e-03 -7.36711e-03        00000 
-7.23175e-03 -8.19857e-03        00000 
-8.42835e-03 -9.06472e-03        00000 
-9.66102e-03 -9.94814e-03        00000 
-1.08957e-02 -1.07947e-02        00000 
-3.46180e-03 -5.27539e-03        00000 
-4.20097e-03 -6.01544e-03        00000 
-5.22417e-03 -6.88228e-03        00000 
-6.35417e-03 -7.82431e-03        00000 
-7.58197e-03 -8.80983e-03        00000 
-8.89145e-03 -9.83238e-03        00000 
-1.02012e-02 -1.08682e-02        00000 
-1.13796e-02 -1.17900e-02        00000 
-3.49424e-03 -5.31592e-03        00000 
-4.27717e-03 -6.15955e-03        00000 
-5.37740e-03 -7.18788e-03        00000 
-6.59388e-03 -8.28504e-03        00000 
-7.92518e-03 -9.42705e-03        00000 
-9.35349e-03 -1.05965e-02        00000 
-1.07739e-02 -1.17363e-02        00000 
-1.16145e-02 -1.27431e-02        00000 
-3.53098e-03 -5.35597e-03        00000 
-4.20920e-03 -6.15640e-03        00000 
-5.16530e-03 -7.15871e-03        00000 
-6.23441e-03 -8.22196e-03        00000 
-7.39740e-03 -9.32423e-03        00000 
-8.65759e-03 -1.04448e-02        00000 
-1.00125e-02 -1.15638e-02        00000 
-1.14320e-02 -1.24378e-02        00000 
-3.57003e-03 -5.39407e-03        00000 
-4.14381e-03 -6.15417e-03        00000 
-4.96185e-03 -7.12952e-03        00000 
-5.88061e-03 -8.16350e-03        00000 
-6.87608e-03 -9.23242e-03        00000 
-7.94500e-03 -1.03230e-02        00000 
-9.08854e-03 -1.14144e-02        00000 
-1.02604e-02 -1.25030e-02        00000 
-3.60868e-03 -5.42821e-03        00000 
-4.08087e-03 -6.15201e-03        00000 
-4.76486e-03 -7.10152e-03        00000 
-5.53493e-03 -8.10906e-03        00000 
-6.36530e-03 -9.15152e-03        00000 
-7.24742e-03 -1.02189e-02        00000 
-8.17401e-03 -1.13086e-02        00000 
-9.13251e-03 -1.24371e-02        00000 
-3.64239e-03 -5.45521e-03        00000 
-4.01838e-03 -6.14968e-03        00000 
-4.57141e-03 -7.07538e-03        00000 
-5.19662e-03 -8.05944e-03        00000 
-5.86703e-03 -9.08025e-03        00000 
-6.57078e-03 -1.01314e-02        00000 
-7.30032e-03 -1.12148e-02        00000 
-8.05230e-03 -1.23420e-02        00000 
-3.66496e-03 -5.47085e-03        00000 
-3.95129e-03 -6.14720e-03        00000 
-4.37676e-03 -7.05155e-03        00000 
-4.86223e-03 -8.01525e-03        00000 
-5.37979e-03 -9.01863e-03        00000 
-5.91646e-03 -1.00573e-02        00000 
-6.46497e-03 -1.11331e-02        00000 
-7.02271e-03 -1.22514e-02        00000 
-3.66977e-03 -5.47042e-03        00000 
-3.87131e-03 -6.14373e-03        00000 
-4.17396e-03 -7.02957e-03        00000 
-4.52597e-03 -7.97617e-03        00000 
-4.89910e-03 -8.96589e-03        00000 
-5.28032e-03 -9.99520e-03        00000 
-5.66280e-03 -1.10648e-02        00000 
-6.04319e-03 -1.21763e-02        00000 
-3.65195e-03 -5.45022e-03        00000 
-3.76930e-03 -6.13635e-03        00000 
-3.95542e-03 -7.00694e-03        00000 
-4.18131e-03 -7.93989e-03        00000 
-4.41884e-03 -8.91972e-03        00000 
-4.65555e-03 -9.94294e-03        00000 
-4.88566e-03 -1.10090e-02        00000 
-5.10658e-03 -1.21175e-02        00000 
-3.61062e-03 -5.40918e-03        00000 
-3.63975e-03 -6.12014e-03        00000 
-3.71654e-03 -6.97907e-03        00000 
-3.82418e-03 -7.90214e-03        00000 
-3.93446e-03 -8.87615e-03        00000 
-4.03579e-03 -9.89700e-03        00000 
-4.12409e-03 -1.09627e-02        00000 
-4.19898e-03 -1.20710e-02        00000 
-3.54955e-03 -5.34966e-03        00000 
-3.48415e-03 -6.09050e-03        00000 
-3.45877e-03 -6.94124e-03        00000 
-3.45565e-03 -7.85850e-03        00000 
-3.44558e-03 -8.83117e-03        00000 
-3.41777e-03 -9.85380e-03        00000 
-3.37002e-03 -1.09225e-02        00000 
-3.30387e-03 -1.20335e-02        00000 
-3.47564e-03 -5.27677e-03        00000 
-3.31026e-03 -6.04581e-03        00000 
-3.18913e-03 -6.89125e-03        00000 
-3.08163e-03 -7.80691e-03        00000 
-2.95584e-03 -8.78304e-03        00000 
-2.80144e-03 -9.81189e-03        00000 
-2.61790e-03 -1.08872e-02        00000 
-2.40755e-03 -1.20045e-02        00000 
-3.39651e-03 -5.19666e-03        00000 
-3.12803e-03 -5.98810e-03        00000 
-2.91688e-03 -6.83030e-03        00000 
-2.70985e-03 -7.74863e-03        00000 
-2.47020e-03 -8.73329e-03        00000 
-2.18774e-03 -9.77286e-03        00000 
-1.86376e-03 -1.08579e-02        00000 
-1.50111e-03 -1.19858e-02        00000 
-3.31845e-03 -5.11493e-03        00000 
-2.94575e-03 -5.92154e-03        00000 
-2.65022e-03 -6.76193e-03        00000 
-2.34664e-03 -7.68741e-03        00000 
-1.99207e-03 -8.68571e-03        00000 
-1.57670e-03 -9.74055e-03        00000 
-1.10345e-03 -1.08369e-02        00000 
-5.77519e-04 -1.19771e-02        00000 
-3.24562e-03 -5.03590e-03        00000 
-2.76849e-03 -5.85040e-03        00000 
-2.39512e-03 -6.69055e-03        00000 
-1.99507e-03 -7.62783e-03        00000 
-1.52205e-03 -8.64421e-03        00000 
-9.67921e-04 -9.72048e-03        00000 
-3.31903e-04 -1.08261e-02        00000 
 3.65739e-04 -1.19672e-02        00000 
-6.72531e-03 -2.41689e-02        00000 
-5.47887e-03 -2.55342e-02        00000 
-4.36654e-03 -2.68590e-02        00000 
-3.27221e-03 -2.82325e-02        00000 
-2.16030e-03 -2.96415e-02        00000 
-1.01341e-03 -3.10758e-02        00000 
 1.84284e-04 -3.25224e-02        00000 
 1.49139e-03 -3.39230e-02        00000 
-6.59983e-03 -2.39991e-02        00000 
-5.34057e-03 -2.51586e-02        00000 
-4.23716e-03 -2.62734e-02        00000 
-3.15602e-03 -2.74202e-02        00000 
-2.06302e-03 -2.85993e-02        00000 
-9.42624e-04 -2.98035e-02        00000 
 2.19406e-04 -3.10276e-02        00000 
 1.38126e-03 -3.22708e-02        00000 
-6.46003e-03 -2.37895e-02        00000 
-5.19005e-03 -2.47451e-02        00000 
-4.09592e-03 -2.56549e-02        00000 
-3.03075e-03 -2.65862e-02        00000 
-1.95968e-03 -2.75433e-02        00000 
-8.68359e-04 -2.85241e-02        00000 
 2.49069e-04 -2.95273e-02        00000 
 1.38377e-03 -3.05451e-02        00000 
-6.30792e-03 -2.35340e-02        00000 
-5.03057e-03 -2.42861e-02        00000 
-3.94690e-03 -2.49979e-02        00000 
-2.89888e-03 -2.57236e-02        00000 
-1.85130e-03 -2.64686e-02        00000 
-7.90987e-04 -2.72337e-02        00000 
 2.88103e-04 -2.80187e-02        00000 
 1.38683e-03 -2.88206e-02        00000 
-6.14792e-03 -2.32294e-02        00000 
-4.86939e-03 -2.37770e-02        00000 
-3.79725e-03 -2.42988e-02        00000 
-2.76642e-03 -2.48291e-02        00000 
-1.74208e-03 -2.53725e-02        00000 
-7.11791e-04 -2.59309e-02        00000 
 3.30636e-04 -2.65054e-02        00000 
 1.38942e-03 -2.70963e-02        00000 
-5.98733e-03 -2.28783e-02        00000 
-4.71791e-03 -2.32205e-02        00000 
-3.65773e-03 -2.35604e-02        00000 
-2.64265e-03 -2.39053e-02        00000 
-1.63920e-03 -2.42575e-02        00000 
-6.35893e-04 -2.46190e-02        00000 
 3.73010e-04 -2.49916e-02        00000 
 1.39192e-03 -2.53772e-02        00000 
-5.83590e-03 -2.24916e-02        00000 