<?xml version="1.0" encoding="utf-8"?>
<VTKFile byte_order="LittleEndian" type="UnstructuredGrid" version="0.1">
   <UnstructuredGrid>
      <Piece NumberOfCells="11760" NumberOfPoints="12881">
         <Points>
            <DataArray Name="Points" NumberOfComponents="3" format="ascii" type="Float32">
0.0916 0.0916 0.0000
0.2214 0.2214 0.0000
0.3511 0.3511 0.0000
0.4809 0.4809 0.0000
0.6107 0.6107 0.0000
0.7405 0.7405 0.0000
0.8702 0.8702 0.0000
1.0000 1.0000 0.0000
0.0843 0.0983 0.0000
0.1947 0.2272 0.0000
0.3051 0.3560 0.0000
0.4155 0.4848 0.0000
0.5259 0.6136 0.0000
0.6363 0.7424 0.0000
0.7467 0.8712 0.0000
0.8571 1.0000 0.0000
0.0753 0.1054 0.0000
0.1666 0.2332 0.0000
0.2579 0.3610 0.0000
0.3491 0.4888 0.0000
0.4404 0.6166 0.0000
0.5317 0.7444 0.0000
0.6230 0.8722 0.0000
0.7143 1.0000 0.0000
0.0643 0.1125 0.0000
0.1367 0.2393 0.0000
0.2092 0.3660 0.0000
0.2816 0.4928 0.0000
0.3541 0.6196 0.0000
0.4265 0.7464 0.0000
0.4990 0.8732 0.0000
0.5714 1.0000 0.0000
0.0510 0.1191 0.0000
0.1050 0.2449 0.0000
0.1589 0.3708 0.0000
0.2128 0.4966 0.0000
0.2668 0.6225 0.0000
0.3207 0.7483 0.0000
0.3746 0.8742 0.0000
0.4286 1.0000 0.0000
0.0356 0.1245 0.0000
0.0713 0.2496 0.0000
0.1071 0.3747 0.0000
0.1428 0.4997 0.0000
0.1785 0.6248 0.0000
0.2142 0.7499 0.0000
0.2500 0.8749 0.0000
0.2857 1.0000 0.0000
0.0183 0.1282 0.0000
0.0361 0.2528 0.0000
0.0539 0.3773 0.0000
0.0717 0.5018 0.0000
0.0895 0.6264 0.0000
0.1073 0.7509 0.0000
0.1251 0.8755 0.0000
0.1429 1.0000 0.0000
0.0000 0.1295 0.0000
0.0000 0.2539 0.0000
0.0000 0.3782 0.0000
0.0000 0.5026 0.0000
0.0000 0.6269 0.0000
0.0000 0.7513 0.0000
0.0000 0.8756 0.0000
0.0000 1.0000 0.0000
-0.0183 0.1282 0.0000
-0.0361 0.2528 0.0000
-0.0539 0.3773 0.0000
-0.0717 0.5018 0.0000
-0.0895 0.6264 0.0000
-0.1073 0.7509 0.0000
-0.1251 0.8755 0.0000
-0.1429 1.0000 0.0000
-0.0356 0.1245 0.0000
-0.0713 0.2496 0.0000
-0.1071 0.3747 0.0000
-0.1428 0.4997 0.0000
-0.1785 0.6248 0.0000
-0.2142 0.7499 0.0000
-0.2500 0.8749 0.0000
-0.2857 1.0000 0.0000
-0.0510 0.1191 0.0000
-0.1050 0.2449 0.0000
-0.1589 0.3708 0.0000
-0.2128 0.4966 0.0000
-0.2668 0.6225 0.0000
-0.3207 0.7483 0.0000
-0.3746 0.8742 0.0000
-0.4286 1.0000 0.0000
-0.0643 0.1125 0.0000
-0.1367 0.2393 0.0000
-0.2092 0.3660 0.0000
-0.2816 0.4928 0.0000
-0.3541 0.6196 0.0000
-0.4265 0.7464 0.0000
-0.4990 0.8732 0.0000
-0.5714 1.0000 0.0000
-0.0753 0.1054 0.0000
-0.1666 0.2332 0.0000
-0.2579 0.3610 0.0000
-0.3491 0.4888 0.0000
-0.4404 0.6166 0.0000
-0.5317 0.7444 0.0000
-0.6230 0.8722 0.0000
-0.7143 1.0000 0.0000
-0.0843 0.0983 0.0000
-0.1947 0.2272 0.0000
-0.3051 0.3560 0.0000
-0.4155 0.4848 0.0000
-0.5259 0.6136 0.0000
-0.6363 0.7424 0.0000
-0.7467 0.8712 0.0000
-0.8571 1.0000 0.0000
-0.0916 0.0916 0.0000
-0.2214 0.2214 0.0000
-0.3511 0.3511 0.0000
-0.4809 0.4809 0.0000
-0.6107 0.6107 0.0000
-0.7405 0.7405 0.0000
-0.8702 0.8702 0.0000
-1.0000 1.0000 0.0000
-0.0983 0.0843 0.0000
-0.2272 0.1947 0.0000
-0.3560 0.3051 0.0000
-0.4848 0.4155 0.0000
-0.6136 0.5259 0.0000
-0.7424 0.6363 0.0000
-0.8712 0.7467 0.0000
-1.0000 0.8571 0.0000
-0.1054 0.0753 0.0000
-0.2332 0.1666 0.0000
-0.3610 0.2579 0.0000
-0.4888 0.3491 0.0000
-0.6166 0.4404 0.0000
-0.7444 0.5317 0.0000
-0.8722 0.6230 0.0000
-1.0000 0.7143 0.0000
-0.1125 0.0643 0.0000
-0.2393 0.1367 0.0000
-0.3660 0.2092 0.0000
-0.4928 0.2816 0.0000
-0.6196 0.3541 0.0000
-0.7464 0.4265 0.0000
-0.8732 0.4990 0.0000
-1.0000 0.5714 0.0000
-0.1191 0.0510 0.0000
-0.2449 0.1050 0.0000
-0.3708 0.1589 0.0000
-0.4966 0.2128 0.0000
-0.6225 0.2668 0.0000
-0.7483 0.3207 0.0000
-0.8742 0.3746 0.0000
-1.0000 0.4286 0.0000
-0.1245 0.0356 0.0000
-0.2496 0.0713 0.0000
-0.3747 0.1071 0.0000
-0.4997 0.1428 0.0000
-0.6248 0.1785 0.0000
-0.7499 0.2142 0.0000
-0.8749 0.2500 0.0000
-1.0000 0.2857 0.0000
-0.1282 0.0183 0.0000
-0.2528 0.0361 0.0000
-0.3773 0.0539 0.0000
-0.5018 0.0717 0.0000
-0.6264 0.0895 0.0000
-0.7509 0.1073 0.0000
-0.8755 0.1251 0.0000
-1.0000 0.1429 0.0000
-0.1295 0.0000 0.0000
-0.2539 0.0000 0.0000
-0.3782 0.0000 0.0000
-0.5026 0.0000 0.0000
-0.6269 0.0000 0.0000
-0.7513 0.0000 0.0000
-0.8756 0.0000 0.0000
-1.0000 0.0000 0.0000
-0.1282 -0.0183 0.0000
-0.2528 -0.0361 0.0000
-0.3773 -0.0539 0.0000
-0.5018 -0.0717 0.0000
-0.6264 -0.0895 0.0000
-0.7509 -0.1073 0.0000
-0.8755 -0.1251 0.0000
-1.0000 -0.1429 0.0000
-0.1245 -0.0356 0.0000
-0.2496 -0.0713 0.0000
-0.3747 -0.1071 0.0000
-0.4997 -0.1428 0.0000
-0.6248 -0.1785 0.0000
-0.7499 -0.2142 0.0000
-0.8749 -0.2500 0.0000
-1.0000 -0.2857 0.0000
-0.1191 -0.0510 0.0000
-0.2449 -0.1050 0.0000
-0.3708 -0.1589 0.0000
-0.4966 -0.2128 0.0000
-0.6225 -0.2668 0.0000
-0.7483 -0.3207 0.0000
-0.8742 -0.3746 0.0000
-1.0000 -0.4286 0.0000
-0.1125 -0.0643 0.0000
-0.2393 -0.1367 0.0000
-0.3660 -0.2092 0.0000
-0.4928 -0.2816 0.0000
-0.6196 -0.3541 0.0000
-0.7464 -0.4265 0.0000
-0.8732 -0.4990 0.0000
-1.0000 -0.5714 0.0000
-0.1054 -0.0753 0.0000
-0.2332 -0.1666 0.0000
-0.3610 -0.2579 0.0000
-0.4888 -0.3491 0.0000
-0.6166 -0.4404 0.0000
-0.7444 -0.5317 0.0000
-0.8722 -0.6230 0.0000
-1.0000 -0.7143 0.0000
-0.0983 -0.0843 0.0000
-0.2272 -0.1947 0.0000
-0.3560 -0.3051 0.0000
-0.4848 -0.4155 0.0000
-0.6136 -0.5259 0.0000
-0.7424 -0.6363 0.0000
-0.8712 -0.7467 0.0000
-1.0000 -0.8571 0.0000
-0.0916 -0.0916 0.0000
-0.2214 -0.2214 0.0000
-0.3511 -0.3511 0.0000
-0.4809 -0.4809 0.0000
-0.6107 -0.6107 0.0000
-0.7405 -0.7405 0.0000
-0.8702 -0.8702 0.0000
-1.0000 -1.0000 0.0000
-0.0843 -0.0983 0.0000
-0.1947 -0.2272 0.0000
-0.3051 -0.3560 0.0000
-0.4155 -0.4848 0.0000
-0.5259 -0.6136 0.0000
-0.6363 -0.7424 0.0000
-0.7467 -0.8712 0.0000
-0.8571 -1.0000 0.0000
-0.0753 -0.1054 0.0000
-0.1666 -0.2332 0.0000
-0.2579 -0.3610 0.0000
-0.3491 -0.4888 0.0000
-0.4404 -0.6166 0.0000
-0.5317 -0.7444 0.0000
-0.6230 -0.8722 0.0000
-0.7143 -1.0000 0.0000
-0.0643 -0.1125 0.0000
-0.1367 -0.2393 0.0000
-0.2092 -0.3660 0.0000
-0.2816 -0.4928 0.0000
-0.3541 -0.6196 0.0000
-0.4265 -0.7464 0.0000
-0.4990 -0.8732 0.0000
-0.5714 -1.0000 0.0000
-0.0510 -0.1191 0.0000
-0.1050 -0.2449 0.0000
-0.1589 -0.3708 0.0000
-0.2128 -0.4966 0.0000
-0.2668 -0.6225 0.0000
-0.3207 -0.7483 0.0000
-0.3746 -0.8742 0.0000
-0.4286 -1.0000 0.0000
-0.0356 -0.1245 0.0000
-0.0713 -0.2496 0.0000
-0.1071 -0.3747 0.0000
-0.1428 -0.4997 0.0000
-0.1785 -0.6248 0.0000
-0.2142 -0.7499 0.0000
-0.2500 -0.8749 0.0000
-0.2857 -1.0000 0.0000
-0.0183 -0.1282 0.0000
-0.0361 -0.2528 0.0000
-0.0539 -0.3773 0.0000
-0.0717 -0.5018 0.0000
-0.0895 -0.6264 0.0000
-0.1073 -0.7509 0.0000
-0.1251 -0.8755 0.0000
-0.1429 -1.0000 0.0000
0.0000 -0.1295 0.0000
0.0000 -0.2539 0.0000
0.0000 -0.3782 0.0000
0.0000 -0.5026 0.0000
0.0000 -0.6269 0.0000
0.0000 -0.7513 0.0000
0.0000 -0.8756 0.0000
0.0000 -1.0000 0.0000
0.0183 -0.1282 0.0000
0.0361 -0.2528 0.0000
0.0539 -0.3773 0.0000
0.0717 -0.5018 0.0000
0.0895 -0.6264 0.0000
0.1073 -0.7509 0.0000
0.1251 -0.8755 0.0000
0.1429 -1.0000 0.0000
0.0356 -0.1245 0.0000
0.0713 -0.2496 0.0000
0.1071 -0.3747 0.0000
0.1428 -0.4997 0.0000
0.1785 -0.6248 0.0000
0.2142 -0.7499 0.0000
0.2500 -0.8749 0.0000
0.2857 -1.0000 0.0000
0.0510 -0.1191 0.0000
0.1050 -0.2449 0.0000
0.1589 -0.3708 0.0000
0.2128 -0.4966 0.0000
0.2668 -0.6225 0.0000
0.3207 -0.7483 0.0000
0.3746 -0.8742 0.0000
0.4286 -1.0000 0.0000
0.0643 -0.1125 0.0000
0.1367 -0.2393 0.0000
0.2092 -0.3660 0.0000
0.2816 -0.4928 0.0000
0.3541 -0.6196 0.0000
0.4265 -0.7464 0.0000
0.4990 -0.8732 0.0000
0.5714 -1.0000 0.0000
0.0753 -0.1054 0.0000
0.1666 -0.2332 0.0000
0.2579 -0.3610 0.0000
0.3491 -0.4888 0.0000
0.4404 -0.6166 0.0000
0.5317 -0.7444 0.0000
0.6230 -0.8722 0.0000
0.7143 -1.0000 0.0000
0.0843 -0.0983 0.0000
0.1947 -0.2272 0.0000
0.3051 -0.3560 0.0000
0.4155 -0.4848 0.0000
0.5259 -0.6136 0.0000
0.6363 -0.7424 0.0000
0.7467 -0.8712 0.0000
0.8571 -1.0000 0.0000
0.0916 -0.0916 0.0000
0.2214 -0.2214 0.0000
0.3511 -0.3511 0.0000
0.4809 -0.4809 0.0000
0.6107 -0.6107 0.0000
0.7405 -0.7405 0.0000
0.8702 -0.8702 0.0000
1.0000 -1.0000 0.0000
0.0983 -0.0843 0.0000
0.2272 -0.1947 0.0000
0.3560 -0.3051 0.0000
0.4848 -0.4155 0.0000
0.6136 -0.5259 0.0000
0.7424 -0.6363 0.0000
0.8712 -0.7467 0.0000
1.0000 -0.8571 0.0000
0.1054 -0.0753 0.0000
0.2332 -0.1666 0.0000
0.3610 -0.2579 0.0000
0.4888 -0.3491 0.0000
0.6166 -0.4404 0.0000
0.7444 -0.5317 0.0000
0.8722 -0.6230 0.0000
1.0000 -0.7143 0.0000
0.1125 -0.0643 0.0000
0.2393 -0.1367 0.0000
0.3660 -0.2092 0.0000
0.4928 -0.2816 0.0000
0.6196 -0.3541 0.0000
0.7464 -0.4265 0.0000
0.8732 -0.4990 0.0000
1.0000 -0.5714 0.0000
0.1191 -0.0510 0.0000
0.2449 -0.1050 0.0000
0.3708 -0.1589 0.0000
0.4966 -0.2128 0.0000
0.6225 -0.2668 0.0000
0.7483 -0.3207 0.0000
0.8742 -0.3746 0.0000
1.0000 -0.4286 0.0000
0.1245 -0.0356 0.0000
0.2496 -0.0713 0.0000
0.3747 -0.1071 0.0000
0.4997 -0.1428 0.0000
0.6248 -0.1785 0.0000
0.7499 -0.2142 0.0000
0.8749 -0.2500 0.0000
1.0000 -0.2857 0.0000
0.1282 -0.0183 0.0000
0.2528 -0.0361 0.0000
0.3773 -0.0539 0.0000
0.5018 -0.0717 0.0000
0.6264 -0.0895 0.0000
0.7509 -0.1073 0.0000
0.8755 -0.1251 0.0000
1.0000 -0.1429 0.0000
0.1295 0.0000 0.0000
0.2539 0.0000 0.0000
0.3782 0.0000 0.0000
0.5026 0.0000 0.0000
0.6269 0.0000 0.0000
0.7513 0.0000 0.0000
0.8756 0.0000 0.0000
1.0000 0.0000 0.0000
0.1282 0.0183 0.0000
0.2528 0.0361 0.0000
0.3773 0.0539 0.0000
0.5018 0.0717 0.0000
0.6264 0.0895 0.0000
0.7509 0.1073 0.0000
0.8755 0.1251 0.0000
1.0000 0.1429 0.0000
0.1245 0.0356 0.0000
0.2496 0.0713 0.0000
0.3747 0.1071 0.0000
0.4997 0.1428 0.0000
0.6248 0.1785 0.0000
0.7499 0.2142 0.0000
0.8749 0.2500 0.0000
1.0000 0.2857 0.0000
0.1191 0.0510 0.0000
0.2449 0.1050 0.0000
0.3708 0.1589 0.0000
0.4966 0.2128 0.0000
0.6225 0.2668 0.0000
0.7483 0.3207 0.0000
0.8742 0.3746 0.0000
1.0000 0.4286 0.0000
0.1125 0.0643 0.0000
0.2393 0.1367 0.0000
0.3660 0.2092 0.0000
0.4928 0.2816 0.0000
0.6196 0.3541 0.0000
0.7464 0.4265 0.0000
0.8732 0.4990 0.0000
1.0000 0.5714 0.0000
0.1054 0.0753 0.0000
0.2332 0.1666 0.0000
0.3610 0.2579 0.0000
0.4888 0.3491 0.0000
0.6166 0.4404 0.0000
0.7444 0.5317 0.0000
0.8722 0.6230 0.0000
1.0000 0.7143 0.0000
0.0983 0.0843 0.0000
[...]
         <PointData>
            <DataArray Name="fValues" NumberOfComponents="3" format="ascii" type="Float64">
 6.26315e-04  5.12586e-04        00000 
 5.26510e-04  6.31232e-04        00000 
 4.50950e-04  7.48086e-04        00000 
 3.58870e-04  8.84144e-04        00000 
 2.46170e-04  1.03864e-03        00000 
 1.11145e-04  1.20963e-03        00000 
-4.49423e-05  1.39182e-03        00000 
-2.12371e-04  1.56749e-03        00000 
 6.11622e-04  5.01386e-04        00000 
 5.07072e-04  5.99273e-04        00000 
 4.29296e-04  6.95819e-04        00000 
 3.38595e-04  8.05146e-04        00000 
 2.30606e-04  9.29842e-04        00000 
 1.03754e-04  1.06927e-03        00000 
-4.23303e-05  1.22194e-03        00000 
-2.00082e-04  1.38307e-03        00000 
 5.94463e-04  4.87917e-04        00000 
 4.86427e-04  5.65176e-04        00000 
 4.06628e-04  6.42031e-04        00000 
 3.17419e-04  7.27050e-04        00000 
 2.14229e-04  8.23538e-04        00000 
 9.54808e-05  9.32253e-04        00000 
-3.97671e-05  1.05302e-03        00000 
-1.91865e-04  1.18310e-03        00000 
 5.74745e-04  4.72053e-04        00000 
 4.64886e-04  5.28794e-04        00000 
 3.83442e-04  5.86857e-04        00000 
 2.95663e-04  6.49625e-04        00000 
 1.97186e-04  7.20121e-04        00000 
 8.64732e-05  7.99795e-04        00000 
-3.79708e-05  8.89364e-04        00000 
-1.78159e-04  9.88674e-04        00000 
 5.52624e-04  4.53967e-04        00000 
 4.43091e-04  4.90432e-04        00000 
 3.60418e-04  5.30799e-04        00000 
 2.73967e-04  5.73238e-04        00000 
 1.79925e-04  6.20188e-04        00000 
 7.68882e-05  6.73147e-04        00000 
-3.65814e-05  7.33274e-04        00000 
-1.62678e-04  8.01682e-04        00000 
 5.28619e-04  4.34287e-04        00000 
 4.21950e-04  4.51131e-04        00000 
 3.38374e-04  4.74975e-04        00000 
 2.53105e-04  4.98947e-04        00000 
 1.63091e-04  5.24906e-04        00000 
 6.71787e-05  5.54062e-04        00000 
-3.57476e-05  5.87390e-04        00000 
-1.47416e-04  6.26076e-04        00000 
 5.03661e-04  4.14142e-04        00000 
 4.02351e-04  4.12745e-04        00000 
 3.18017e-04  4.21183e-04        00000 
 2.33709e-04  4.28455e-04        00000 
 1.47269e-04  4.36009e-04        00000 
 5.78322e-05  4.44724e-04        00000 
-3.53617e-05  4.55101e-04        00000 
-1.33376e-04  4.67645e-04        00000 
 4.78977e-04  3.94985e-04        00000 
 3.84756e-04  3.77523e-04        00000 
 2.99580e-04  3.71512e-04        00000 
 2.15941e-04  3.63696e-04        00000 
 1.32661e-04  3.55390e-04        00000 
 4.91479e-05  3.47320e-04        00000 
-3.50684e-05  3.39693e-04        00000 
-1.20422e-04  3.32491e-04        00000 
 4.55836e-04  3.78178e-04        00000 
 3.68995e-04  3.47239e-04        00000 
 2.82674e-04  3.27550e-04        00000 
 1.99393e-04  3.06093e-04        00000 
 1.18989e-04  2.84393e-04        00000 
 4.11293e-05  2.63307e-04        00000 
-3.44004e-05  2.43190e-04        00000 
-1.07455e-04  2.24263e-04        00000 
 4.35227e-04  3.64567e-04        00000 
 3.54491e-04  3.22462e-04        00000 
 2.66552e-04  2.89722e-04        00000 
 1.83367e-04  2.55969e-04        00000 
 1.05756e-04  2.23288e-04        00000 
 3.36441e-05  1.92908e-04        00000 
-3.28980e-05  1.65636e-04        00000 
-9.31611e-05  1.42360e-04        00000 
 4.17681e-04  3.54300e-04        00000 
 3.40709e-04  3.02552e-04        00000 
 2.50581e-04  2.57307e-04        00000 
 1.67325e-04  2.12596e-04        00000 
 9.26367e-05  1.71353e-04        00000 
 2.66724e-05  1.35232e-04        00000 
-3.02101e-05  1.05360e-04        00000 
-7.69008e-05  8.27887e-05        00000 
 4.03274e-04  3.46973e-04        00000 
 3.27403e-04  2.86261e-04        00000 
 2.34488e-04  2.29009e-04        00000 
 1.51120e-04  1.74747e-04        00000 
 7.96509e-05  1.27433e-04        00000 
 2.03702e-05  8.88808e-05        00000 
-2.62154e-05  5.99721e-05        00000 
-5.91451e-05  4.07672e-05        00000 
 3.91769e-04  3.41928e-04        00000 
 3.14557e-04  2.72363e-04        00000 
 2.18305e-04  2.03523e-04        00000 
 1.34938e-04  1.41283e-04        00000 
 6.70427e-05  9.04923e-05        00000 
 1.49303e-05  5.25414e-05        00000 
-2.10960e-05  2.73990e-05        00000 
-4.14080e-05  1.28055e-05        00000 
 3.82776e-04  3.38509e-04        00000 
 3.02222e-04  2.59960e-04        00000 
 2.02227e-04  1.79805e-04        00000 
 1.19091e-04  1.11484e-04        00000 
 5.50344e-05  5.98705e-05        00000 
 1.04642e-05  2.52461e-05        00000 
-1.52637e-05  6.48479e-06        00000 
-2.62012e-05 -2.63593e-06        00000 
 3.75872e-04  3.36185e-04        00000 
 2.90392e-04  2.48497e-04        00000 
 1.86528e-04  1.57084e-04        00000 
 1.03778e-04  8.52067e-05        00000 
 4.37291e-05  3.51133e-05        00000 
 6.91377e-06  6.46920e-06        00000 
-8.65495e-06 -3.46364e-06        00000 
-1.84528e-05 -5.78185e-06        00000 
 3.68871e-04  3.34176e-04        00000 
 2.93670e-04  2.51869e-04        00000 
 2.01093e-04  1.61916e-04        00000 
 1.22535e-04  9.01050e-05        00000 
 6.33450e-05  3.86218e-05        00000 
 2.37428e-05  7.41395e-06        00000 
 3.58840e-06 -5.06298e-06        00000 
-1.34957e-21  2.33363e-21        00000 
 3.61527e-04  3.32723e-04        00000 
 2.96102e-04  2.55223e-04        00000 
 2.13683e-04  1.67353e-04        00000 
 1.40207e-04  9.57769e-05        00000 
 8.17362e-05  4.32545e-05        00000 
 3.92608e-05  1.00269e-05        00000 
 1.23848e-05 -4.23488e-06        00000 
-2.53421e-21        00000        00000 
 3.54377e-04  3.32060e-04        00000 
 2.97913e-04  2.58485e-04        00000 
 2.24808e-04  1.72992e-04        00000 
 1.56472e-04  1.02084e-04        00000 
 9.89401e-05  4.88062e-05        00000 
 5.37946e-05  1.39129e-05        00000 
 2.10109e-05 -2.41649e-06        00000 
 1.04995e-20 -9.76701e-22        00000 
 3.48325e-04  3.32517e-04        00000 
 2.99818e-04  2.61451e-04        00000 
 2.35311e-04  1.78486e-04        00000 
 1.71736e-04  1.08659e-04        00000 
 1.15114e-04  5.49762e-05        00000 
 6.74652e-05  1.86020e-05        00000 
 2.91696e-05  1.45816e-07        00000 
-1.58243e-20  2.00018e-21        00000 
 3.44647e-04  3.34503e-04        00000 
 3.03221e-04  2.63914e-04        00000 
 2.46563e-04  1.83592e-04        00000 
 1.87101e-04  1.15189e-04        00000 
 1.31005e-04  6.14261e-05        00000 
 8.07126e-05  2.37101e-05        00000 
 3.70273e-05  3.04721e-06        00000 
-7.92981e-21  6.90799e-23        00000 
 3.44789e-04  3.38425e-04        00000 
 3.10149e-04  2.65945e-04        00000 
 2.60441e-04  1.88375e-04        00000 
 2.04238e-04  1.21691e-04        00000 
 1.47953e-04  6.81077e-05        00000 
 9.44652e-05  2.91071e-05        00000 
 4.50375e-05  6.06390e-06        00000 
 5.13140e-20 -2.56570e-21        00000 
 3.49921e-04  3.44560e-04        00000 
 3.22643e-04  2.68169e-04        00000 
 2.78846e-04  1.93446e-04        00000 
 2.24898e-04  1.28733e-04        00000 
 1.67483e-04  7.55318e-05        00000 
 1.09879e-04  3.52082e-05        00000 
 5.38203e-05  9.42373e-06        00000 
-5.91653e-21 -1.60239e-21        00000 
 3.60395e-04  3.52900e-04        00000 
 3.41752e-04  2.71684e-04        00000 
 3.02839e-04  1.99879e-04        00000 
 2.50160e-04  1.37362e-04        00000 
 1.90623e-04  8.47341e-05        00000 
 1.27798e-04  4.29969e-05        00000 
 6.38511e-05  1.38760e-05        00000 
-2.41794e-20 -1.31028e-21        00000 
 3.75485e-04  3.63085e-04        00000 
 3.66886e-04  2.77520e-04        00000 
 3.32071e-04  2.08712e-04        00000 
 2.79905e-04  1.48635e-04        00000 
 2.17453e-04  9.68548e-05        00000 
 1.48392e-04  5.36821e-05        00000 
 7.52449e-05  2.04371e-05        00000 
-4.29899e-21 -7.58455e-21        00000 
 3.93617e-04  3.74473e-04        00000 
 3.96145e-04  2.86052e-04        00000 
 3.65016e-04  2.20405e-04        00000 
 3.12991e-04  1.63101e-04        00000 
 2.47286e-04  1.12647e-04        00000 
 1.71371e-04  6.83019e-05        00000 
 8.78986e-05  3.01376e-05        00000 
-2.72315e-20  6.80787e-21        00000 
 4.12957e-04  3.86300e-04        00000 
 4.27307e-04  2.96908e-04        00000 
 3.99757e-04  2.34728e-04        00000 
 3.47926e-04  1.80637e-04        00000 
 2.79311e-04  1.32307e-04        00000 
 1.96625e-04  8.76869e-05        00000 
 1.01910e-04  4.42489e-05        00000 
 3.51611e-20 -8.79028e-21        00000 
 4.31942e-04  3.97860e-04        00000 
 4.58650e-04  3.09331e-04        00000 
 4.34626e-04  2.51027e-04        00000 
 3.83513e-04  2.00657e-04        00000 
 3.13163e-04  1.55643e-04        00000 
 2.24910e-04  1.12827e-04        00000 
 1.18140e-04  6.52629e-05        00000 
-1.99883e-21 -1.72398e-20        00000 
 4.49538e-04  4.08608e-04        00000 
 4.89213e-04  3.22604e-04        00000 
 4.68394e-04  2.68518e-04        00000 
 4.19206e-04  2.22417e-04        00000 
 3.49223e-04  1.82558e-04        00000 
 2.57786e-04  1.44446e-04        00000 
 1.42057e-04  1.00769e-04        00000 
-8.68254e-20 -1.55438e-20        00000 
 4.65229e-04  4.18190e-04        00000 
 5.18647e-04  3.36283e-04        00000 
 5.00164e-04  2.86353e-04        00000 
 4.55388e-04  2.45481e-04        00000 
 3.88529e-04  2.12853e-04        00000 
 3.03760e-04  1.85292e-04        00000 
 2.25563e-04  1.52679e-04        00000 
 3.22137e-04  9.44823e-05        00000 
 4.79483e-04  4.29062e-04        00000 
 5.44661e-04  3.62019e-04        00000 
 5.42462e-04  3.19762e-04        00000 
 5.18343e-04  2.88024e-04        00000 
 4.77737e-04  2.64452e-04        00000 
 4.25686e-04  2.49521e-04        00000 
 3.83486e-04  2.39920e-04        00000 
 3.89223e-04  2.02844e-04        00000 
 4.96949e-04  4.42288e-04        00000 
 5.72741e-04  3.90495e-04        00000 
 5.86807e-04  3.57060e-04        00000 
 5.82916e-04  3.33985e-04        00000 
 5.67149e-04  3.18892e-04        00000 
 5.44408e-04  3.12077e-04        00000 
 5.24192e-04  3.10868e-04        00000 
 5.16812e-04  3.01873e-04        00000 
 5.17904e-04  4.58024e-04        00000 
 6.02776e-04  4.22053e-04        00000 
 6.32871e-04  3.98269e-04        00000 
 6.48909e-04  3.84094e-04        00000 
 6.56784e-04  3.77313e-04        00000 
 6.60102e-04  3.77203e-04        00000 
 6.62533e-04  3.81837e-04        00000 
 6.63870e-04  3.86045e-04        00000 
 5.42334e-04  4.76099e-04        00000 
 6.34215e-04  4.56579e-04        00000 
 6.80073e-04  4.43116e-04        00000 
 7.15773e-04  4.38478e-04        00000 
 7.46318e-04  4.40448e-04        00000 
 7.74078e-04  4.47680e-04        00000 
 8.00066e-04  4.58616e-04        00000 
 8.21922e-04  4.71516e-04        00000 
 5.69737e-04  4.95840e-04        00000 
 6.66067e-04  4.93160e-04        00000 
 7.27524e-04  4.90745e-04        00000 
 7.82673e-04  4.96585e-04        00000 
 8.35276e-04  5.08369e-04        00000 
 8.86734e-04  5.24486e-04        00000 
 9.37119e-04  5.43684e-04        00000 
 9.84831e-04  5.65403e-04        00000 
 5.98987e-04  5.16037e-04        00000 
 6.97161e-04  5.29957e-04        00000 
 7.74204e-04  5.39593e-04        00000 
 8.48726e-04  5.57205e-04        00000 
 9.23089e-04  5.80378e-04        00000 
 9.98014e-04  6.07420e-04        00000 
 1.07340e-03  6.37326e-04        00000 
 1.14869e-03  6.69828e-04        00000 
 6.28415e-04  5.35159e-04        00000 
 7.26598e-04  5.64674e-04        00000 
 8.19338e-04  5.87730e-04        00000 
 9.13299e-04  6.18796e-04        00000 
 1.00938e-03  6.55357e-04        00000 
 1.10779e-03  6.95670e-04        00000 
 1.20856e-03  7.38824e-04        00000 
 1.31163e-03  7.84569e-04        00000 
 6.56161e-04  5.51820e-04        00000 
 7.54047e-04  5.95523e-04        00000 
 8.62656e-04  6.33654e-04        00000 
 9.76212e-04  6.80152e-04        00000 
 1.09411e-03  7.32392e-04        00000 
 1.21612e-03  7.88546e-04        00000 
 1.34237e-03  8.47569e-04        00000 
 1.47326e-03  9.09151e-04        00000 
 6.80672e-04  5.65234e-04        00000 
 7.79595e-04  6.22013e-04        00000 
 9.04272e-04  6.76943e-04        00000 
 1.03761e-03  7.40950e-04        00000 
 1.17754e-03  8.11261e-04        00000 
 1.32324e-03  8.85970e-04        00000 
 1.47475e-03  9.63713e-04        00000 
 1.63338e-03  1.04390e-03        00000 
 7.01055e-04  5.75351e-04        00000 
 8.03385e-04  6.44861e-04        00000 
 9.44354e-04  7.18216e-04        00000 
 1.09766e-03  8.01712e-04        00000 
 1.25991e-03  8.92373e-04        00000 
 1.42944e-03  9.88368e-04        00000 
 1.60555e-03  1.08793e-03        00000 
 1.79052e-03  1.18938e-03        00000 
 7.17123e-04  5.82655e-04        00000 
 8.25444e-04  6.65283e-04        00000 
 9.82967e-04  7.58557e-04        00000 
 1.15639e-03  8.63321e-04        00000 
 1.34135e-03  9.76284e-04        00000 
 1.53512e-03  1.09608e-03        00000 
 1.73467e-03  1.22042e-03        00000 
 1.94097e-03  1.34445e-03        00000 
 7.29209e-04  5.87831e-04        00000 
 8.45776e-04  6.84347e-04        00000 
 1.02011e-03  7.99011e-04        00000 
 1.21371e-03  9.26538e-04        00000 
 1.42197e-03  1.06323e-03        00000 
 1.64098e-03  1.20870e-03        00000 
 1.86232e-03  1.35965e-03        00000 
 2.07833e-03  1.50340e-03        00000 
 7.37895e-04  5.91514e-04        00000 
 8.64483e-04  7.02729e-04        00000 
 1.05578e-03  8.40396e-04        00000 
 1.26953e-03  9.91712e-04        00000 
 1.50184e-03  1.15300e-03        00000 
 1.74841e-03  1.32438e-03        00000 
 1.98954e-03  1.50095e-03        00000 
 2.19359e-03  1.65187e-03        00000 
 7.43817e-04  5.94195e-04        00000 
 8.81810e-04  7.20776e-04        00000 
 1.08994e-03  8.83343e-04        00000 
 1.32390e-03  1.05863e-03        00000 
 1.58126e-03  1.24502e-03        00000 
 1.85775e-03  1.43994e-03        00000 
 2.12799e-03  1.63016e-03        00000 
 2.25112e-03  1.79109e-03        00000 
 7.50545e-04  5.97189e-04        00000 
 8.72325e-04  7.16737e-04        00000 
 1.05392e-03  8.73629e-04        00000 
 1.26220e-03  1.04178e-03        00000 
 1.49121e-03  1.21916e-03        00000 
 1.74161e-03  1.40237e-03        00000 
 2.01308e-03  1.58742e-03        00000 
 2.29870e-03  1.71374e-03        00000 
 7.57258e-04  5.99531e-04        00000 
 8.62618e-04  7.13187e-04        00000 
 1.01900e-03  8.64209e-04        00000 
 1.20017e-03  1.02607e-03        00000 
 1.39959e-03  1.19593e-03        00000 
 1.61636e-03  1.37206e-03        00000 
 1.85091e-03  1.55017e-03        00000 
 2.09178e-03  1.72978e-03        00000 
 7.63185e-04  6.01019e-04        00000 
 8.52281e-04  7.10107e-04        00000 
 9.84301e-04  8.55519e-04        00000 
 1.13814e-03  1.01156e-03        00000 
 1.30734e-03  1.17544e-03        00000 
 1.48982e-03  1.34604e-03        00000 
 1.68399e-03  1.52359e-03        00000 
 1.88680e-03  1.71267e-03        00000 
 7.67168e-04  6.01328e-04        00000 
 8.40443e-04  7.07583e-04        00000 
 9.48731e-04  8.47815e-04        00000 
 1.07565e-03  9.98570e-04        00000 
 1.21481e-03  1.15747e-03        00000 
 1.36347e-03  1.32413e-03        00000 
 1.52006e-03  1.49977e-03        00000 
 1.68406e-03  1.68778e-03        00000 
 7.67767e-04  6.00009e-04        00000 
 8.25662e-04  7.05638e-04        00000 
 9.10908e-04  8.41172e-04        00000 
 1.01169e-03  9.87228e-04        00000 
 1.12163e-03  1.14200e-03        00000 
 1.23781e-03  1.30550e-03        00000 
 1.35879e-03  1.47877e-03        00000 
 1.48432e-03  1.66364e-03        00000 
 7.63615e-04  5.96564e-04        00000 
 8.06158e-04  7.03960e-04        00000 
 8.69300e-04  8.35307e-04        00000 
 9.45023e-04  9.77300e-04        00000 
 1.02702e-03  1.12871e-03        00000 
 1.11239e-03  1.28969e-03        00000 
 1.19970e-03  1.46091e-03        00000 
 1.28844e-03  1.64317e-03        00000 
 7.53967e-04  5.90620e-04        00000 
 7.80524e-04  7.01702e-04        00000 
 8.22764e-04  8.29436e-04        00000 
 8.74729e-04  9.68055e-04        00000 
 9.30234e-04  1.11688e-03        00000 
 9.86503e-04  1.27605e-03        00000 
 1.04223e-03  1.44592e-03        00000 
 1.09679e-03  1.62672e-03        00000 
 7.39133e-04  5.82143e-04        00000 
 7.48626e-04  6.97699e-04        00000 
 7.71258e-04  8.22452e-04        00000 
 8.00809e-04  9.58456e-04        00000 
 8.31205e-04  1.10553e-03        00000 
 8.59895e-04  1.26369e-03        00000 
 8.85863e-04  1.43300e-03        00000 
 9.08808e-04  1.61335e-03        00000 
 7.20462e-04  5.71538e-04        00000 
 7.11906e-04  6.91065e-04        00000 
 7.16099e-04  8.13462e-04        00000 
 7.24418e-04  9.47650e-04        00000 
 7.30800e-04  1.09385e-03        00000 
 7.32957e-04  1.25187e-03        00000 
 7.30282e-04  1.42138e-03        00000 
 7.22976e-04  1.60193e-03        00000 
 6.99844e-04  5.59546e-04        00000 
 6.72753e-04  6.81688e-04        00000 
 6.59430e-04  8.02255e-04        00000 
 6.47412e-04  9.35413e-04        00000 
 6.30438e-04  1.08164e-03        00000 
 6.06453e-04  1.24037e-03        00000 
 5.75266e-04  1.41080e-03        00000 
 5.37443e-04  1.59210e-03        00000 
 6.79082e-04  5.47014e-04        00000 
 6.33474e-04  6.70177e-04        00000 
 6.03353e-04  7.89297e-04        00000 
 5.71578e-04  9.22172e-04        00000 
 5.31406e-04  1.06932e-03        00000 
 4.80974e-04  1.22961e-03        00000 
 4.20430e-04  1.40159e-03        00000 
 3.50617e-04  1.58420e-03        00000 
 6.59492e-04  5.34685e-04        00000 
 5.95628e-04  6.57445e-04        00000 
 5.49388e-04  7.75394e-04        00000 
 4.98098e-04  9.08723e-04        00000 
 4.34380e-04  1.05762e-03        00000 
 3.56654e-04  1.22035e-03        00000 
 2.65108e-04  1.39444e-03        00000 
 1.61308e-04  1.57831e-03        00000 
 6.41813e-04  5.23098e-04        00000 
 5.59934e-04  6.44295e-04        00000 
 4.98428e-04  7.61393e-04        00000 
 4.27349e-04  8.95881e-04        00000 
 3.39363e-04  1.04724e-03        00000 
 2.33342e-04  1.21342e-03        00000 
 1.08925e-04  1.39053e-03        00000 
-3.10746e-05  1.57257e-03        00000 
 1.56672e-03  3.69558e-03        00000 
 1.29325e-03  3.97221e-03        00000 
 1.05451e-03  4.23565e-03        00000 
 8.12061e-04  4.50938e-03        00000 
 5.60348e-04  4.79362e-03        00000 
 2.96992e-04  5.08708e-03        00000 
 2.01389e-05  5.38763e-03        00000 
-2.74163e-04  5.68852e-03        00000 
 1.53132e-03  3.66466e-03        00000 
 1.25714e-03  3.89629e-03        00000 
 1.01966e-03  4.11852e-03        00000 
 7.80584e-04  4.34621e-03        00000 
 5.33933e-04  4.58219e-03        00000 
 2.77569e-04  4.82590e-03        00000 
 9.74377e-06  5.07665e-03        00000 
-2.66990e-04  5.33358e-03        00000 
 1.49169e-03  3.62697e-03        00000 
 1.21866e-03  3.81420e-03        00000 
 9.82758e-04  3.99574e-03        00000 
 7.47460e-04  4.18018e-03        00000 
 5.06374e-04  4.37024e-03        00000 
 2.57493e-04  4.56643e-03        00000 
-2.59211e-07  4.76877e-03        00000 
-2.66797e-04  4.97664e-03        00000 
 1.44835e-03  3.58176e-03        00000 
 1.17862e-03  3.72512e-03        00000 
 9.44968e-04  3.86707e-03        00000 
 7.13579e-04  4.01054e-03        00000 
 4.78254e-04  4.15744e-03        00000 
 2.37077e-04  4.30865e-03        00000 
-1.09235e-05  4.46460e-03        00000 
-2.66373e-04  4.62538e-03        00000 
 1.40250e-03  3.52882e-03        00000 
 1.13868e-03  3.62904e-03        00000 
 9.07940e-04  3.73290e-03        00000 
 6.80477e-04  3.83756e-03        00000 
 4.50741e-04  3.94401e-03        00000 
 2.17000e-04  4.05307e-03        00000 
-2.16013e-05  4.16533e-03        00000 
-2.65799e-04  4.28126e-03        00000 
 1.35615e-03  3.46893e-03        00000 
 1.10116e-03  3.52741e-03        00000 
 8.73811e-04  3.59483e-03        00000 
 6.50065e-04  3.66279e-03        00000 
 4.25402e-04  3.73139e-03        00000 
 1.98401e-04  3.80120e-03        00000 
-3.16088e-05  3.87274e-03        00000 
-2.65183e-04  3.94650e-03        00000 
 1.31206e-03  3.40421e-03        00000 