<?xml version="1.0" encoding="utf-8"?>
<VTKFile byte_order="LittleEndian" type="UnstructuredGrid" version="0.1">
   <UnstructuredGrid>
      <Piece NumberOfCells="11760" NumberOfPoints="12881">
         <Points>
            <DataArray Name="Points" NumberOfComponents="3" format="ascii" type="Float32">
0.0916 0.0916 0.0000
0.2214 0.2214 0.0000
0.3511 0.3511 0.0000
0.4809 0.4809 0.0000
0.6107 0.6107 0.0000
0.7405 0.7405 0.0000
0.8702 0.8702 0.0000
1.0000 1.0000 0.0000
0.0843 0.0983 0.0000
0.1947 0.2272 0.0000
0.3051 0.3560 0.0000
0.4155 0.4848 0.0000
0.5259 0.6136 0.0000
0.6363 0.7424 0.0000
0.7467 0.8712 0.0000
0.8571 1.0000 0.0000
0.0753 0.1054 0.0000
0.1666 0.2332 0.0000
0.2579 0.3610 0.0000
0.3491 0.4888 0.0000
0.4404 0.6166 0.0000
0.5317 0.7444 0.0000
0.6230 0.8722 0.0000
0.7143 1.0000 0.0000
0.0643 0.1125 0.0000
0.1367 0.2393 0.0000
0.2092 0.3660 0.0000
0.2816 0.4928 0.0000
0.3541 0.6196 0.0000
0.4265 0.7464 0.0000
0.4990 0.8732 0.0000
0.5714 1.0000 0.0000
0.0510 0.1191 0.0000
0.1050 0.2449 0.0000
0.1589 0.3708 0.0000
0.2128 0.4966 0.0000
0.2668 0.6225 0.0000
0.3207 0.7483 0.0000
0.3746 0.8742 0.0000
0.4286 1.0000 0.0000
0.0356 0.1245 0.0000
0.0713 0.2496 0.0000
0.1071 0.3747 0.0000
0.1428 0.4997 0.0000
0.1785 0.6248 0.0000
0.2142 0.7499 0.0000
0.2500 0.8749 0.0000
0.2857 1.0000 0.0000
0.0183 0.1282 0.0000
0.0361 0.2528 0.0000
0.0539 0.3773 0.0000
0.0717 0.5018 0.0000
0.0895 0.6264 0.0000
0.1073 0.7509 0.0000
0.1251 0.8755 0.0000
0.1429 1.0000 0.0000
0.0000 0.1295 0.0000
0.0000 0.2539 0.0000
0.0000 0.3782 0.0000
0.0000 0.5026 0.0000
0.0000 0.6269 0.0000
0.0000 0.7513 0.0000
0.0000 0.8756 0.0000
0.0000 1.0000 0.0000
-0.0183 0.1282 0.0000
-0.0361 0.2528 0.0000
-0.0539 0.3773 0.0000
-0.0717 0.5018 0.0000
-0.0895 0.6264 0.0000
-0.1073 0.7509 0.0000
-0.1251 0.8755 0.0000
-0.1429 1.0000 0.0000
-0.0356 0.1245 0.0000
-0.0713 0.2496 0.0000
-0.1071 0.3747 0.0000
-0.1428 0.4997 0.0000
-0.1785 0.6248 0.0000
-0.2142 0.7499 0.0000
-0.2500 0.8749 0.0000
-0.2857 1.0000 0.0000
-0.0510 0.1191 0.0000
-0.1050 0.2449 0.0000
-0.1589 0.3708 0.0000
-0.2128 0.4966 0.0000
-0.2668 0.6225 0.0000
-0.3207 0.7483 0.0000
-0.3746 0.8742 0.0000
-0.4286 1.0000 0.0000
-0.0643 0.1125 0.0000
-0.1367 0.2393 0.0000
-0.2092 0.3660 0.0000
-0.2816 0.4928 0.0000
-0.3541 0.6196 0.0000
-0.4265 0.7464 0.0000
-0.4990 0.8732 0.0000
-0.5714 1.0000 0.0000
-0.0753 0.1054 0.0000
-0.1666 0.2332 0.0000
-0.2579 0.3610 0.0000
-0.3491 0.4888 0.0000
-0.4404 0.6166 0.0000
-0.5317 0.7444 0.0000
-0.6230 0.8722 0.0000
-0.7143 1.0000 0.0000
-0.0843 0.0983 0.0000
-0.1947 0.2272 0.0000
-0.3051 0.3560 0.0000
-0.4155 0.4848 0.0000
-0.5259 0.6136 0.0000
-0.6363 0.7424 0.0000
-0.7467 0.8712 0.0000
-0.8571 1.0000 0.0000
-0.0916 0.0916 0.0000
-0.2214 0.2214 0.0000
-0.3511 0.3511 0.0000
-0.4809 0.4809 0.0000
-0.6107 0.6107 0.0000
-0.7405 0.7405 0.0000
-0.8702 0.8702 0.0000
-1.0000 1.0000 0.0000
-0.0983 0.0843 0.0000
-0.2272 0.1947 0.0000
-0.3560 0.3051 0.0000
-0.4848 0.4155 0.0000
-0.6136 0.5259 0.0000
-0.7424 0.6363 0.0000
-0.8712 0.7467 0.0000
-1.0000 0.8571 0.0000
-0.1054 0.0753 0.0000
-0.2332 0.1666 0.0000
-0.3610 0.2579 0.0000
-0.4888 0.3491 0.0000
-0.6166 0.4404 0.0000
-0.7444 0.5317 0.0000
-0.8722 0.6230 0.0000
-1.0000 0.7143 0.0000
-0.1125 0.0643 0.0000
-0.2393 0.1367 0.0000
-0.3660 0.2092 0.0000
-0.4928 0.2816 0.0000
-0.6196 0.3541 0.0000
-0.7464 0.4265 0.0000
-0.8732 0.4990 0.0000
-1.0000 0.5714 0.0000
-0.1191 0.0510 0.0000
-0.2449 0.1050 0.0000
-0.3708 0.1589 0.0000
-0.4966 0.2128 0.0000
-0.6225 0.2668 0.0000
-0.7483 0.3207 0.0000
-0.8742 0.3746 0.0000
-1.0000 0.4286 0.0000
-0.1245 0.0356 0.0000
-0.2496 0.0713 0.0000
-0.3747 0.1071 0.0000
-0.4997 0.1428 0.0000
-0.6248 0.1785 0.0000
-0.7499 0.2142 0.0000
-0.8749 0.2500 0.0000
-1.0000 0.2857 0.0000
-0.1282 0.0183 0.0000
-0.2528 0.0361 0.0000
-0.3773 0.0539 0.0000
-0.5018 0.0717 0.0000
-0.6264 0.0895 0.0000
-0.7509 0.1073 0.0000
-0.8755 0.1251 0.0000
-1.0000 0.1429 0.0000
-0.1295 0.0000 0.0000
-0.2539 0.0000 0.0000
-0.3782 0.0000 0.0000
-0.5026 0.0000 0.0000
-0.6269 0.0000 0.0000
-0.7513 0.0000 0.0000
-0.8756 0.0000 0.0000
-1.0000 0.0000 0.0000
-0.1282 -0.0183 0.0000
-0.2528 -0.0361 0.0000
-0.3773 -0.0539 0.0000
-0.5018 -0.0717 0.0000
-0.6264 -0.0895 0.0000
-0.7509 -0.1073 0.0000
-0.8755 -0.1251 0.0000
-1.0000 -0.1429 0.0000
-0.1245 -0.0356 0.0000
-0.2496 -0.0713 0.0000
-0.3747 -0.1071 0.0000
-0.4997 -0.1428 0.0000
-0.6248 -0.1785 0.0000
-0.7499 -0.2142 0.0000
-0.8749 -0.2500 0.0000
-1.0000 -0.2857 0.0000
-0.1191 -0.0510 0.0000
-0.2449 -0.1050 0.0000
-0.3708 -0.1589 0.0000
-0.4966 -0.2128 0.0000
-0.6225 -0.2668 0.0000
-0.7483 -0.3207 0.0000
-0.8742 -0.3746 0.0000
-1.0000 -0.4286 0.0000
-0.1125 -0.0643 0.0000
-0.2393 -0.1367 0.0000
-0.3660 -0.2092 0.0000
-0.4928 -0.2816 0.0000
-0.6196 -0.3541 0.0000
-0.7464 -0.4265 0.0000
-0.8732 -0.4990 0.0000
-1.0000 -0.5714 0.0000
-0.1054 -0.0753 0.0000
-0.2332 -0.1666 0.0000
-0.3610 -0.2579 0.0000
-0.4888 -0.3491 0.0000
-0.6166 -0.4404 0.0000
-0.7444 -0.5317 0.0000
-0.8722 -0.6230 0.0000
-1.0000 -0.7143 0.0000
-0.0983 -0.0843 0.0000
-0.2272 -0.1947 0.0000
-0.3560 -0.3051 0.0000
-0.4848 -0.4155 0.0000
-0.6136 -0.5259 0.0000
-0.7424 -0.6363 0.0000
-0.8712 -0.7467 0.0000
-1.0000 -0.8571 0.0000
-0.0916 -0.0916 0.0000
-0.2214 -0.2214 0.0000
-0.3511 -0.3511 0.0000
-0.4809 -0.4809 0.0000
-0.6107 -0.6107 0.0000
-0.7405 -0.7405 0.0000
-0.8702 -0.8702 0.0000
-1.0000 -1.0000 0.0000
-0.0843 -0.0983 0.0000
-0.1947 -0.2272 0.0000
-0.3051 -0.3560 0.0000
-0.4155 -0.4848 0.0000
-0.5259 -0.6136 0.0000
-0.6363 -0.7424 0.0000
-0.7467 -0.8712 0.0000
-0.8571 -1.0000 0.0000
-0.0753 -0.1054 0.0000
-0.1666 -0.2332 0.0000
-0.2579 -0.3610 0.0000
-0.3491 -0.4888 0.0000
-0.4404 -0.6166 0.0000
-0.5317 -0.7444 0.0000
-0.6230 -0.8722 0.0000
-0.7143 -1.0000 0.0000
-0.0643 -0.1125 0.0000
-0.1367 -0.2393 0.0000
-0.2092 -0.3660 0.0000
-0.2816 -0.4928 0.0000
-0.3541 -0.6196 0.0000
-0.4265 -0.7464 0.0000
-0.4990 -0.8732 0.0000
-0.5714 -1.0000 0.0000
-0.0510 -0.1191 0.0000
-0.1050 -0.2449 0.0000
-0.1589 -0.3708 0.0000
-0.2128 -0.4966 0.0000
-0.2668 -0.6225 0.0000
-0.3207 -0.7483 0.0000
-0.3746 -0.8742 0.0000
-0.4286 -1.0000 0.0000
-0.0356 -0.1245 0.0000
-0.0713 -0.2496 0.0000
-0.1071 -0.3747 0.0000
-0.1428 -0.4997 0.0000
-0.1785 -0.6248 0.0000
-0.2142 -0.7499 0.0000
-0.2500 -0.8749 0.0000
-0.2857 -1.0000 0.0000
-0.0183 -0.1282 0.0000
-0.0361 -0.2528 0.0000
-0.0539 -0.3773 0.0000
-0.0717 -0.5018 0.0000
-0.0895 -0.6264 0.0000
-0.1073 -0.7509 0.0000
-0.1251 -0.8755 0.0000
-0.1429 -1.0000 0.0000
0.0000 -0.1295 0.0000
0.0000 -0.2539 0.0000
0.0000 -0.3782 0.0000
0.0000 -0.5026 0.0000
0.0000 -0.6269 0.0000
0.0000 -0.7513 0.0000
0.0000 -0.8756 0.0000
0.0000 -1.0000 0.0000
0.0183 -0.1282 0.0000
0.0361 -0.2528 0.0000
0.0539 -0.3773 0.0000
0.0717 -0.5018 0.0000
0.0895 -0.6264 0.0000
0.1073 -0.7509 0.0000
0.1251 -0.8755 0.0000
0.1429 -1.0000 0.0000
0.0356 -0.1245 0.0000
0.0713 -0.2496 0.0000
0.1071 -0.3747 0.0000
0.1428 -0.4997 0.0000
0.1785 -0.6248 0.0000
0.2142 -0.7499 0.0000
0.2500 -0.8749 0.0000
0.2857 -1.0000 0.0000
0.0510 -0.1191 0.0000
0.1050 -0.2449 0.0000
0.1589 -0.3708 0.0000
0.2128 -0.4966 0.0000
0.2668 -0.6225 0.0000
0.3207 -0.7483 0.0000
0.3746 -0.8742 0.0000
0.4286 -1.0000 0.0000
0.0643 -0.1125 0.0000
0.1367 -0.2393 0.0000
0.2092 -0.3660 0.0000
0.2816 -0.4928 0.0000
0.3541 -0.6196 0.0000
0.4265 -0.7464 0.0000
0.4990 -0.8732 0.0000
0.5714 -1.0000 0.0000
0.0753 -0.1054 0.0000
0.1666 -0.2332 0.0000
0.2579 -0.3610 0.0000
0.3491 -0.4888 0.0000
0.4404 -0.6166 0.0000
0.5317 -0.7444 0.0000
0.6230 -0.8722 0.0000
0.7143 -1.0000 0.0000
0.0843 -0.0983 0.0000
0.1947 -0.2272 0.0000
0.3051 -0.3560 0.0000
0.4155 -0.4848 0.0000
0.5259 -0.6136 0.0000
0.6363 -0.7424 0.0000
0.7467 -0.8712 0.0000
0.8571 -1.0000 0.0000
0.0916 -0.0916 0.0000
0.2214 -0.2214 0.0000
0.3511 -0.3511 0.0000
0.4809 -0.4809 0.0000
0.6107 -0.6107 0.0000
0.7405 -0.7405 0.0000
0.8702 -0.8702 0.0000
1.0000 -1.0000 0.0000
0.0983 -0.0843 0.0000
0.2272 -0.1947 0.0000
0.3560 -0.3051 0.0000
0.4848 -0.4155 0.0000
0.6136 -0.5259 0.0000
0.7424 -0.6363 0.0000
0.8712 -0.7467 0.0000
1.0000 -0.8571 0.0000
0.1054 -0.0753 0.0000
0.2332 -0.1666 0.0000
0.3610 -0.2579 0.0000
0.4888 -0.3491 0.0000
0.6166 -0.4404 0.0000
0.7444 -0.5317 0.0000
0.8722 -0.6230 0.0000
1.0000 -0.7143 0.0000
0.1125 -0.0643 0.0000
0.2393 -0.1367 0.0000
0.3660 -0.2092 0.0000
0.4928 -0.2816 0.0000
0.6196 -0.3541 0.0000
0.7464 -0.4265 0.0000
0.8732 -0.4990 0.0000
1.0000 -0.5714 0.0000
0.1191 -0.0510 0.0000
0.2449 -0.1050 0.0000
0.3708 -0.1589 0.0000
0.4966 -0.2128 0.0000
0.6225 -0.2668 0.0000
0.7483 -0.3207 0.0000
0.8742 -0.3746 0.0000
1.0000 -0.4286 0.0000
0.1245 -0.0356 0.0000
0.2496 -0.0713 0.0000
0.3747 -0.1071 0.0000
0.4997 -0.1428 0.0000
0.6248 -0.1785 0.0000
0.7499 -0.2142 0.0000
0.8749 -0.2500 0.0000
1.0000 -0.2857 0.0000
0.1282 -0.0183 0.0000
0.2528 -0.0361 0.0000
0.3773 -0.0539 0.0000
0.5018 -0.0717 0.0000
0.6264 -0.0895 0.0000
0.7509 -0.1073 0.0000
0.8755 -0.1251 0.0000
1.0000 -0.1429 0.0000
0.1295 0.0000 0.0000
0.2539 0.0000 0.0000
0.3782 0.0000 0.0000
0.5026 0.0000 0.0000
0.6269 0.0000 0.0000
0.7513 0.0000 0.0000
0.8756 0.0000 0.0000
1.0000 0.0000 0.0000
0.1282 0.0183 0.0000
0.2528 0.0361 0.0000
0.3773 0.0539 0.0000
0.5018 0.0717 0.0000
0.6264 0.0895 0.0000
0.7509 0.1073 0.0000
0.8755 0.1251 0.0000
1.0000 0.1429 0.0000
0.1245 0.0356 0.0000
0.2496 0.0713 0.0000
0.3747 0.1071 0.0000
0.4997 0.1428 0.0000
0.6248 0.1785 0.0000
0.7499 0.2142 0.0000
0.8749 0.2500 0.0000
1.0000 0.2857 0.0000
0.1191 0.0510 0.0000
0.2449 0.1050 0.0000
0.3708 0.1589 0.0000
0.4966 0.2128 0.0000
0.6225 0.2668 0.0000
0.7483 0.3207 0.0000
0.8742 0.3746 0.0000
1.0000 0.4286 0.0000
0.1125 0.0643 0.0000
0.2393 0.1367 0.0000
0.3660 0.2092 0.0000
0.4928 0.2816 0.0000
0.6196 0.3541 0.0000
0.7464 0.4265 0.0000
0.8732 0.4990 0.0000
1.0000 0.5714 0.0000
0.1054 0.0753 0.0000
0.2332 0.1666 0.0000
0.3610 0.2579 0.0000
0.4888 0.3491 0.0000
0.6166 0.4404 0.0000
0.7444 0.5317 0.0000
0.8722 0.6230 0.0000
1.0000 0.7143 0.0000
0.0983 0.0843 0.0000
[...]
         <PointData>
            <DataArray Name="fValues" NumberOfComponents="3" format="ascii" type="Float64">
-9.29083e-03 -3.22248e-02        00000 
-7.14217e-03 -3.60746e-02        00000 
-5.53747e-03 -4.02363e-02        00000 
-3.97185e-03 -4.47647e-02        00000 
-2.25418e-03 -4.94461e-02        00000 
-3.35793e-04 -5.41351e-02        00000 
 1.79412e-03 -5.86418e-02        00000 
 4.51475e-03 -6.22451e-02        00000 
-9.21097e-03 -3.18398e-02        00000 
-6.94389e-03 -3.51540e-02        00000 
-5.37054e-03 -3.86272e-02        00000 
-3.85311e-03 -4.24442e-02        00000 
-2.21758e-03 -4.64586e-02        00000 
-4.01644e-04 -5.05640e-02        00000 
 1.64896e-03 -5.46576e-02        00000 
 3.41999e-03 -5.86678e-02        00000 
-9.10671e-03 -3.13534e-02        00000 
-6.70628e-03 -3.41293e-02        00000 
-5.16489e-03 -3.69433e-02        00000 
-3.70673e-03 -4.00605e-02        00000 
-2.16590e-03 -4.33919e-02        00000 
-4.66938e-04 -4.68717e-02        00000 
 1.40085e-03 -5.04458e-02        00000 
 3.29619e-03 -5.39711e-02        00000 
-8.97259e-03 -3.07446e-02        00000 
-6.43106e-03 -3.29723e-02        00000 
-4.92136e-03 -3.51585e-02        00000 
-3.52862e-03 -3.75949e-02        00000 
-2.08894e-03 -4.02354e-02        00000 
-5.28249e-04 -4.30527e-02        00000 
 1.18979e-03 -4.60179e-02        00000 
 3.05092e-03 -4.90541e-02        00000 
-8.80477e-03 -2.99988e-02        00000 
-6.12925e-03 -3.16596e-02        00000 
-4.64987e-03 -3.32513e-02        00000 
-3.32268e-03 -3.50320e-02        00000 
-1.98524e-03 -3.69839e-02        00000 
-5.65767e-04 -3.91047e-02        00000 
 9.86886e-04 -4.13962e-02        00000 
 2.71577e-03 -4.38426e-02        00000 
-8.60290e-03 -2.91172e-02        00000 
-5.82475e-03 -3.01861e-02        00000 
-4.37186e-03 -3.12171e-02        00000 
-3.10402e-03 -3.23715e-02        00000 
-1.86103e-03 -3.36467e-02        00000 
-5.75815e-04 -3.50516e-02        00000 
 8.04933e-04 -3.66055e-02        00000 
 2.34176e-03 -3.83330e-02        00000 
-8.37149e-03 -2.81269e-02        00000 
-5.55130e-03 -2.85832e-02        00000 
-4.11729e-03 -2.90836e-02        00000 
-2.89571e-03 -2.96411e-02        00000 
-1.73109e-03 -3.02595e-02        00000 
-5.61533e-04 -3.09479e-02        00000 
 6.61830e-04 -3.17221e-02        00000 
 1.99675e-03 -3.26077e-02        00000 
-8.11985e-03 -2.70832e-02        00000 
-5.33926e-03 -2.69260e-02        00000 
-3.91219e-03 -2.69171e-02        00000 
-2.71812e-03 -2.69024e-02        00000 
-1.60989e-03 -2.68887e-02        00000 
-5.29129e-04 -2.68806e-02        00000 
 5.69449e-04 -2.68782e-02        00000 
 1.73728e-03 -2.68790e-02        00000 
-7.86010e-03 -2.60593e-02        00000 
-5.19853e-03 -2.53158e-02        00000 
-3.76311e-03 -2.48072e-02        00000 
-2.57555e-03 -2.42362e-02        00000 
-1.50069e-03 -2.36170e-02        00000 
-4.81218e-04 -2.29527e-02        00000 
 5.27725e-04 -2.22327e-02        00000 
 1.57402e-03 -2.14359e-02        00000 
-7.60413e-03 -2.51240e-02        00000 
-5.11284e-03 -2.38428e-02        00000 
-3.65248e-03 -2.28317e-02        00000 
-2.45270e-03 -2.17128e-02        00000 
-1.39270e-03 -2.05167e-02        00000 
-4.14928e-04 -1.92546e-02        00000 
 5.24284e-04 -1.79230e-02        00000 
 1.46404e-03 -1.65180e-02        00000 
-7.36131e-03 -2.43216e-02        00000 
-5.05173e-03 -2.25546e-02        00000 
-3.55044e-03 -2.10301e-02        00000 
-2.32547e-03 -1.93675e-02        00000 
-1.27037e-03 -1.76278e-02        00000 
-3.27523e-04 -1.58413e-02        00000 
 5.38807e-04 -1.40275e-02        00000 
 1.34158e-03 -1.22226e-02        00000 
-7.13772e-03 -2.36660e-02        00000 
-4.98800e-03 -2.14531e-02        00000 
-3.43141e-03 -1.94000e-02        00000 
-2.17558e-03 -1.71994e-02        00000 
-1.12503e-03 -1.49571e-02        00000 
-2.22653e-04 -1.27303e-02        00000 
 5.51688e-04 -1.05620e-02        00000 
 1.16047e-03 -8.51859e-03        00000 
-6.93661e-03 -2.31477e-02        00000 
-4.90650e-03 -2.05118e-02        00000 
-3.28238e-03 -1.79133e-02        00000 
-1.99746e-03 -1.51865e-02        00000 
-9.59295e-04 -1.24914e-02        00000 
-1.11143e-04 -9.91383e-03        00000 
 5.54053e-04 -7.50551e-03        00000 
 9.19746e-04 -5.33353e-03        00000 
-6.75919e-03 -2.27449e-02        00000 
-4.80296e-03 -1.96957e-02        00000 
-3.10206e-03 -1.65337e-02        00000 
-1.79665e-03 -1.33027e-02        00000 
-7.81205e-04 -1.02125e-02        00000 
-1.62483e-05 -7.36642e-03        00000 
 5.67431e-04 -4.84785e-03        00000 
 6.81009e-04 -2.58198e-03        00000 
-6.60539e-03 -2.24333e-02        00000 
-4.67868e-03 -1.89728e-02        00000 
-2.89718e-03 -1.52264e-02        00000 
-1.58249e-03 -1.15299e-02        00000 
-6.03043e-04 -8.10093e-03        00000 
 5.54600e-05 -5.06252e-03        00000 
 4.46033e-04 -2.53254e-03        00000 
 1.42726e-03 -8.43756e-04        00000 
-6.44845e-03 -2.21443e-02        00000 
-4.83085e-03 -1.88580e-02        00000 
-3.17516e-03 -1.51416e-02        00000 
-1.90388e-03 -1.15031e-02        00000 
-9.43158e-04 -8.11441e-03        00000 
-2.78664e-04 -5.06960e-03        00000 
 5.26427e-05 -2.47503e-03        00000 
-5.03839e-20  5.47026e-19        00000 
-6.25623e-03 -2.18514e-02        00000 
-4.93505e-03 -1.87607e-02        00000 
-3.42178e-03 -1.50797e-02        00000 
-2.20845e-03 -1.14852e-02        00000 
-1.26084e-03 -8.13001e-03        00000 
-5.65739e-04 -5.09163e-03        00000 
-1.51174e-04 -2.40433e-03        00000 
 1.35158e-20  6.48759e-19        00000 
-6.02464e-03 -2.15694e-02        00000 
-4.97598e-03 -1.86873e-02        00000 
-3.62208e-03 -1.50450e-02        00000 
-2.48106e-03 -1.14849e-02        00000 
-1.55069e-03 -8.15581e-03        00000 
-8.24638e-04 -5.12025e-03        00000 
-3.09458e-04 -2.40352e-03        00000 
-3.51612e-20 -3.75053e-19        00000 
-5.75518e-03 -2.13195e-02        00000 
-4.94228e-03 -1.86409e-02        00000 
-3.76431e-03 -1.50382e-02        00000 
-2.70986e-03 -1.15057e-02        00000 
-1.80483e-03 -8.19426e-03        00000 
-1.05126e-03 -5.16094e-03        00000 
-4.49851e-04 -2.42764e-03        00000 
-3.20264e-20 -8.31782e-19        00000 
-5.45946e-03 -2.11284e-02        00000 
-4.83717e-03 -1.86181e-02        00000 
-3.84947e-03 -1.50544e-02        00000 
-2.89448e-03 -1.15444e-02        00000 
-2.02269e-03 -8.24303e-03        00000 
-1.24817e-03 -5.20724e-03        00000 
-5.73794e-04 -2.45935e-03        00000 
 2.42097e-19  4.71709e-19        00000 
-5.16193e-03 -2.10239e-02        00000 
-4.69032e-03 -1.86110e-02        00000 
-3.90239e-03 -1.50839e-02        00000 
-3.05579e-03 -1.15933e-02        00000 
-2.22172e-03 -8.29557e-03        00000 
-1.42909e-03 -5.25024e-03        00000 
-6.88264e-04 -2.48518e-03        00000 
-7.11554e-19        00000        00000 
-4.89680e-03 -2.10278e-02        00000 
-4.56000e-03 -1.86151e-02        00000 
-3.97453e-03 -1.51210e-02        00000 
-3.23889e-03 -1.16486e-02        00000 
-2.44082e-03 -8.34947e-03        00000 
-1.62429e-03 -5.28629e-03        00000 
-8.10002e-04 -2.49793e-03        00000 
 1.57774e-20 -3.78658e-19        00000 
-4.69725e-03 -2.11478e-02        00000 
-4.51494e-03 -1.86381e-02        00000 
-4.12837e-03 -1.51729e-02        00000 
-3.49998e-03 -1.17188e-02        00000 
-2.72989e-03 -8.41539e-03        00000 
-1.87388e-03 -5.32602e-03        00000 
-9.62126e-04 -2.50403e-03        00000 
 6.44783e-20  9.70325e-19        00000 
-4.58260e-03 -2.13737e-02        00000 
-4.60377e-03 -1.86983e-02        00000 
-4.40960e-03 -1.52589e-02        00000 
-3.88200e-03 -1.18249e-02        00000 
-3.12970e-03 -8.51738e-03        00000 
-2.21264e-03 -5.39588e-03        00000 
-1.16552e-03 -2.52563e-03        00000 
 3.22297e-19 -1.43746e-19        00000 
-4.55212e-03 -2.16805e-02        00000 
-4.83641e-03 -1.88125e-02        00000 
-4.82888e-03 -1.53986e-02        00000 
-4.39825e-03 -1.19886e-02        00000 
-3.65894e-03 -8.68274e-03        00000 
-2.66185e-03 -5.53057e-03        00000 
-1.43469e-03 -2.59589e-03        00000 
 5.44630e-19  4.35704e-19        00000 
-4.58921e-03 -2.20369e-02        00000 
-5.19033e-03 -1.89852e-02        00000 
-5.36585e-03 -1.56006e-02        00000 
-5.03560e-03 -1.22207e-02        00000 
-4.31904e-03 -8.93113e-03        00000 
-3.23744e-03 -5.76645e-03        00000 
-1.78466e-03 -2.75947e-03        00000 
-1.03139e-18  5.62578e-19        00000 
-4.67071e-03 -2.24130e-02        00000 
-5.63012e-03 -1.92085e-02        00000 
-5.98544e-03 -1.58605e-02        00000 
-5.77029e-03 -1.25186e-02        00000 
-5.10871e-03 -9.27103e-03        00000 
-3.97015e-03 -6.14458e-03        00000 
-2.24882e-03 -3.09357e-03        00000 
 1.06781e-18  1.30208e-19        00000 
-4.77510e-03 -2.27852e-02        00000 
-6.12328e-03 -1.94683e-02        00000 
-6.65182e-03 -1.61651e-02        00000 
-6.58328e-03 -1.28698e-02        00000 
-6.03876e-03 -9.70795e-03        00000 
-4.91457e-03 -6.69982e-03        00000 
-2.98349e-03 -3.80977e-03        00000 
-2.25260e-18  1.22677e-19        00000 
-4.88629e-03 -2.31376e-02        00000 
-6.64653e-03 -1.97517e-02        00000 
-7.33450e-03 -1.64966e-02        00000 
-7.47162e-03 -1.32624e-02        00000 
-7.14215e-03 -1.02420e-02        00000 
-6.32601e-03 -7.51842e-03        00000 
-5.48277e-03 -5.02899e-03        00000 
-8.87393e-03 -2.33795e-03        00000 
-4.98573e-03 -2.35234e-02        00000 
-6.98900e-03 -2.06099e-02        00000 
-7.91044e-03 -1.78977e-02        00000 
-8.42821e-03 -1.51991e-02        00000 
-8.66290e-03 -1.26740e-02        00000 
-8.68833e-03 -1.04544e-02        00000 
-8.97002e-03 -8.58953e-03        00000 
-1.04947e-02 -6.34978e-03        00000 
-5.12314e-03 -2.40110e-02        00000 
-7.37988e-03 -2.15770e-02        00000 
-8.52913e-03 -1.93941e-02        00000 
-9.39870e-03 -1.72244e-02        00000 
-1.01404e-02 -1.51885e-02        00000 
-1.08724e-02 -1.33968e-02        00000 
-1.18243e-02 -1.18723e-02        00000 
-1.32966e-02 -1.03523e-02        00000 
-5.30502e-03 -2.46202e-02        00000 
-7.81788e-03 -2.26816e-02        00000 
-9.18825e-03 -2.10117e-02        00000 
-1.03823e-02 -1.93618e-02        00000 
-1.15745e-02 -1.78124e-02        00000 
-1.28816e-02 -1.64302e-02        00000 
-1.44253e-02 -1.52318e-02        00000 
-1.62559e-02 -1.41392e-02        00000 
-5.53440e-03 -2.53638e-02        00000 
-8.28999e-03 -2.39470e-02        00000 
-9.87424e-03 -2.27724e-02        00000 
-1.13681e-02 -2.16313e-02        00000 
-1.29567e-02 -2.05674e-02        00000 
-1.47474e-02 -1.96124e-02        00000 
-1.68187e-02 -1.87734e-02        00000 
-1.91753e-02 -1.80422e-02        00000 
-5.80800e-03 -2.62379e-02        00000 
-8.76768e-03 -2.53767e-02        00000 
-1.05588e-02 -2.46817e-02        00000 
-1.23307e-02 -2.40389e-02        00000 
-1.42705e-02 -2.34631e-02        00000 
-1.64754e-02 -2.29616e-02        00000 
-1.90138e-02 -2.25329e-02        00000 
-2.19183e-02 -2.21850e-02        00000 
-6.11433e-03 -2.72138e-02        00000 
-9.21055e-03 -2.69380e-02        00000 
-1.12021e-02 -2.67136e-02        00000 
-1.32349e-02 -2.65641e-02        00000 
-1.54898e-02 -2.64831e-02        00000 
-1.80554e-02 -2.64624e-02        00000 
-2.09997e-02 -2.64929e-02        00000 
-2.43907e-02 -2.65768e-02        00000 
-6.43473e-03 -2.82362e-02        00000 
-9.58101e-03 -2.85567e-02        00000 
-1.17668e-02 -2.88055e-02        00000 
-1.40474e-02 -2.91546e-02        00000 
-1.65895e-02 -2.95818e-02        00000 
-1.94727e-02 -3.00675e-02        00000 
-2.27621e-02 -3.05962e-02        00000 
-2.65363e-02 -3.11559e-02        00000 
-6.74794e-03 -2.92352e-02        00000 
-9.86242e-03 -3.01364e-02        00000 
-1.22362e-02 -3.08740e-02        00000 
-1.47534e-02 -3.17396e-02        00000 
-1.75593e-02 -3.26960e-02        00000 
-2.07223e-02 -3.37124e-02        00000 
-2.42975e-02 -3.47654e-02        00000 
-2.83435e-02 -3.58287e-02        00000 
-7.03618e-03 -3.01471e-02        00000 
-1.00656e-02 -3.15941e-02        00000 
-1.26211e-02 -3.28470e-02        00000 
-1.53630e-02 -3.42576e-02        00000 
-1.84095e-02 -3.57696e-02        00000 
-2.18153e-02 -3.73394e-02        00000 
-2.56181e-02 -3.89328e-02        00000 
-2.98420e-02 -4.05127e-02        00000 
-7.28901e-03 -3.09313e-02        00000 
-1.02177e-02 -3.28871e-02        00000 
-1.29492e-02 -3.46883e-02        00000 
-1.59011e-02 -3.66779e-02        00000 
-1.91625e-02 -3.87730e-02        00000 
-2.27723e-02 -4.09156e-02        00000 
-2.67456e-02 -4.30602e-02        00000 
-3.10764e-02 -4.51632e-02        00000 
-7.50337e-03 -3.15756e-02        00000 
-1.03460e-02 -3.40139e-02        00000 
-1.32488e-02 -3.63993e-02        00000 
-1.63924e-02 -3.90020e-02        00000 
-1.98399e-02 -4.17037e-02        00000 
-2.36135e-02 -4.44333e-02        00000 
-2.77027e-02 -4.71377e-02        00000 
-3.20781e-02 -4.97662e-02        00000 
-7.68115e-03 -3.20893e-02        00000 
-1.04689e-02 -3.49979e-02        00000 
-1.35385e-02 -3.80051e-02        00000 
-1.68516e-02 -4.12501e-02        00000 
-2.04545e-02 -4.45734e-02        00000 
-2.43538e-02 -4.78980e-02        00000 
-2.85071e-02 -5.11671e-02        00000 
-3.28535e-02 -5.43122e-02        00000 
-7.82640e-03 -3.24922e-02        00000 
-1.05953e-02 -3.58698e-02        00000 
-1.38267e-02 -3.95385e-02        00000 
-1.72829e-02 -4.34452e-02        00000 
-2.10120e-02 -4.73961e-02        00000 
-2.50041e-02 -5.13158e-02        00000 
-2.91732e-02 -5.51447e-02        00000 
-3.33878e-02 -5.87682e-02        00000 
-7.94349e-03 -3.28068e-02        00000 
-1.07290e-02 -3.66581e-02        00000 
-1.41129e-02 -4.10313e-02        00000 
-1.76854e-02 -4.56028e-02        00000 
-2.15151e-02 -5.01826e-02        00000 
-2.55694e-02 -5.46869e-02        00000 
-2.97398e-02 -5.90380e-02        00000 
-3.35883e-02 -6.31349e-02        00000 
-8.07460e-03 -3.31041e-02        00000 
-1.04026e-02 -3.67729e-02        00000 
-1.33188e-02 -4.10912e-02        00000 
-1.63658e-02 -4.55832e-02        00000 
-1.95643e-02 -5.00969e-02        00000 
-2.29140e-02 -5.45494e-02        00000 
-2.63915e-02 -5.88899e-02        00000 
-2.99459e-02 -6.29548e-02        00000 
-8.23161e-03 -3.34056e-02        00000 
-1.01132e-02 -3.68781e-02        00000 
-1.25739e-02 -4.11387e-02        00000 
-1.51173e-02 -4.55655e-02        00000 
-1.77385e-02 -5.00198e-02        00000 
-2.04332e-02 -5.44315e-02        00000 
-2.31905e-02 -5.87521e-02        00000 
-2.59707e-02 -6.29593e-02        00000 
-8.41599e-03 -3.36980e-02        00000 
-9.87515e-03 -3.69656e-02        00000 
-1.18892e-02 -4.11697e-02        00000 
-1.39529e-02 -4.55419e-02        00000 
-1.60436e-02 -4.99473e-02        00000 
-1.81494e-02 -5.43252e-02        00000 
-2.02554e-02 -5.86413e-02        00000 
-2.23456e-02 -6.28844e-02        00000 
-8.62497e-03 -3.39611e-02        00000 
-9.70120e-03 -3.70301e-02        00000 
-1.12760e-02 -4.11823e-02        00000 
-1.28831e-02 -4.55093e-02        00000 
-1.44858e-02 -4.98760e-02        00000 
-1.60662e-02 -5.42296e-02        00000 
-1.76072e-02 -5.85421e-02        00000 
-1.90952e-02 -6.28000e-02        00000 
-8.84897e-03 -3.41685e-02        00000 
-9.59339e-03 -3.70716e-02        00000 
-1.07378e-02 -4.11788e-02        00000 
-1.19102e-02 -4.54702e-02        00000 
-1.30640e-02 -4.98082e-02        00000 
-1.41778e-02 -5.41455e-02        00000 
-1.52340e-02 -5.84580e-02        00000 
-1.62168e-02 -6.27308e-02        00000 
-9.07062e-03 -3.42910e-02        00000 
-9.53313e-03 -3.70941e-02        00000 
-1.02603e-02 -4.11661e-02        00000 
-1.10206e-02 -4.54312e-02        00000 
-1.17617e-02 -4.97503e-02        00000 
-1.24607e-02 -5.40789e-02        00000 
-1.31026e-02 -5.83951e-02        00000 
-1.36747e-02 -6.26845e-02        00000 
-9.26712e-03 -3.43048e-02        00000 
-9.47805e-03 -3.70999e-02        00000 
-9.80713e-03 -4.11488e-02        00000 
-1.01813e-02 -4.53971e-02        00000 
-1.05441e-02 -4.97072e-02        00000 
-1.08721e-02 -5.40349e-02        00000 
-1.11555e-02 -5.83581e-02        00000 
-1.13911e-02 -6.26614e-02        00000 
-9.41663e-03 -3.42003e-02        00000 
-9.37480e-03 -3.70829e-02        00000 
-9.33111e-03 -4.11217e-02        00000 
-9.34904e-03 -4.53637e-02        00000 
-9.36621e-03 -4.96758e-02        00000 
-9.35850e-03 -5.40119e-02        00000 
-9.32111e-03 -5.83468e-02        00000 
-9.25936e-03 -6.26610e-02        00000 
-9.50589e-03 -3.39867e-02        00000 
-9.18304e-03 -3.70285e-02        00000 
-8.79623e-03 -4.10698e-02        00000 
-8.49042e-03 -4.53174e-02        00000 
-8.19166e-03 -4.96449e-02        00000 
-7.87350e-03 -5.40011e-02        00000 
-7.53395e-03 -5.83560e-02        00000 
-7.17971e-03 -6.26865e-02        00000 
-9.53421e-03 -3.36884e-02        00000 
-8.89175e-03 -3.69237e-02        00000 
-8.19346e-03 -4.09777e-02        00000 
-7.59603e-03 -4.52448e-02        00000 
-7.00497e-03 -4.96038e-02        00000 
-6.38950e-03 -5.39943e-02        00000 
-5.74978e-03 -5.83803e-02        00000 
-5.08814e-03 -6.27442e-02        00000 
-9.51173e-03 -3.33365e-02        00000 
-8.51632e-03 -3.67658e-02        00000 
-7.53861e-03 -4.08393e-02        00000 
-6.67828e-03 -4.51421e-02        00000 
-5.80936e-03 -4.95515e-02        00000 
-4.89594e-03 -5.39911e-02        00000 
-3.94488e-03 -5.84174e-02        00000 
-2.95411e-03 -6.28381e-02        00000 
-9.45394e-03 -3.29607e-02        00000 
-8.08375e-03 -3.65627e-02        00000 
-6.85948e-03 -4.06603e-02        00000 
-5.75852e-03 -4.50172e-02        00000 
-4.61520e-03 -4.94979e-02        00000 
-3.38877e-03 -5.40004e-02        00000 
-2.10299e-03 -5.84633e-02        00000 
-7.49659e-04 -6.29624e-02        00000 
-9.37624e-03 -3.25846e-02        00000 
-7.61958e-03 -3.63281e-02        00000 
-6.18445e-03 -4.04536e-02        00000 
-4.85452e-03 -4.48862e-02        00000 
-3.42900e-03 -4.94572e-02        00000 
-1.86950e-03 -5.40457e-02        00000 
-1.84801e-04 -5.84899e-02        00000 
 1.53096e-03 -6.30880e-02        00000 
-1.06163e-02 -1.02738e-01        00000 
-8.37054e-03 -1.05779e-01        00000 
-6.20754e-03 -1.08802e-01        00000 
-4.31047e-03 -1.11850e-01        00000 
-2.56948e-03 -1.14819e-01        00000 
-9.29635e-04 -1.17665e-01        00000 
 6.73971e-04 -1.20357e-01        00000 
 2.59882e-03 -1.22732e-01        00000 
-1.06157e-02 -1.02262e-01        00000 
-8.29101e-03 -1.04945e-01        00000 
-6.16371e-03 -1.07491e-01        00000 
-4.27633e-03 -1.10087e-01        00000 
-2.53838e-03 -1.12657e-01        00000 
-8.95973e-04 -1.15158e-01        00000 
 7.07238e-04 -1.17566e-01        00000 
 2.08073e-03 -1.19907e-01        00000 
-1.06220e-02 -1.01661e-01        00000 
-8.18240e-03 -1.03982e-01        00000 
-6.08328e-03 -1.06071e-01        00000 
-4.21418e-03 -1.08214e-01        00000 
-2.48696e-03 -1.10369e-01        00000 
-8.49768e-04 -1.12504e-01        00000 
 7.13826e-04 -1.14603e-01        00000 
 2.14963e-03 -1.16631e-01        00000 
-1.06372e-02 -1.00907e-01        00000 
-8.04696e-03 -1.02853e-01        00000 
-5.96596e-03 -1.04501e-01        00000 
-4.11905e-03 -1.06196e-01        00000 
-2.40795e-03 -1.07926e-01        00000 
-7.84957e-04 -1.09669e-01        00000 
 7.69908e-04 -1.11412e-01        00000 
 2.24804e-03 -1.13127e-01        00000 
-1.06636e-02 -9.99794e-02        00000 
-7.89602e-03 -1.01520e-01        00000 
-5.82173e-03 -1.02743e-01        00000 
-3.99545e-03 -1.03999e-01        00000 
-2.30216e-03 -1.05297e-01        00000 
-6.93731e-04 -1.06625e-01        00000 
 8.54268e-04 -1.07977e-01        00000 
 2.35430e-03 -1.09340e-01        00000 
-1.07031e-02 -9.88757e-02        00000 
-7.75413e-03 -9.99628e-02        00000 
-5.67532e-03 -1.00771e-01        00000 
-3.86278e-03 -1.01598e-01        00000 
-2.18242e-03 -1.02460e-01        00000 
-5.84137e-04 -1.03355e-01        00000 
 9.58391e-04 -1.04282e-01        00000 
 2.46435e-03 -1.05242e-01        00000 
-1.07563e-02 -9.76205e-02        00000 