<?xml version="1.0" encoding="utf-8"?>
<VTKFile byte_order="LittleEndian" type="UnstructuredGrid" version="0.1">
   <UnstructuredGrid>
      <Piece NumberOfCells="90441" NumberOfPoints="18722">
         <Points>
            <DataArray Name="Points" NumberOfComponents="3" format="ascii" type="Float32">
1150.0000 650.0000 0.0000
1150.0000 634.9400 0.0000
1150.0000 650.0000 16.6210
1140.7000 637.4200 10.7360
1130.0000 650.0000 0.0000
1130.0000 634.9400 0.0000
1130.0000 650.0000 16.6210
1150.0000 627.3200 15.5880
1140.5000 639.8600 26.1490
1120.0000 650.0000 0.0000
1150.0000 619.7000 0.0000
1143.4000 619.6700 10.3920
1120.0000 634.9400 0.0000
1130.0000 627.3200 15.5880
1120.0000 650.0000 16.6210
1150.0000 650.0000 34.7520
1130.0000 619.7000 0.0000
1150.0000 637.3800 35.5650
1130.0000 650.0000 34.7520
1120.0000 627.3200 15.5880
1150.0000 611.9900 15.5880
1139.3000 619.6600 26.3670
1120.0000 619.7000 0.0000
1130.0000 637.3800 35.5650
1104.7000 650.0000 0.0000
1130.0000 611.9900 15.5880
1150.0000 604.2800 0.0000
1120.0000 650.0000 34.7520
1140.4000 634.4000 42.2310
1150.0000 619.9200 35.3870
1120.0000 637.3800 35.5650
1105.2000 635.9300 16.3890
1130.0000 604.2800 0.0000
1130.0000 619.9200 35.3870
1120.0000 611.9900 15.5880
1100.9000 631.5300 0.0000
1150.0000 650.0000 53.1930
1106.6000 619.6700 10.3920
1120.0000 604.2800 0.0000
1120.0000 619.9200 35.3870
1096.5000 650.0000 15.5880
1150.0000 596.4800 15.5880
1106.9000 650.0000 35.5650
1110.7000 619.6600 26.3670
1130.0000 650.0000 53.1930
1136.8000 594.6500 5.7822
1135.6000 614.1400 44.0200
1141.1000 639.9600 57.1840
1150.0000 627.3200 54.4120
1130.0000 596.4800 15.5880
1150.0000 603.5200 36.7600
1104.4000 611.9900 0.0000
1120.0000 650.0000 53.1930
1150.0000 588.6900 0.0000
1088.4000 650.0000 0.0000
1140.1000 597.6300 31.3350
1090.9000 633.7600 9.9595
1130.0000 627.3200 54.4120
1130.0000 603.5200 36.7600
1120.0000 596.4800 15.5880
1100.7000 629.7500 34.5900
1130.0000 588.6900 0.0000
1089.9000 636.5000 24.1450
1120.0000 627.3200 54.4120
1150.0000 611.9900 54.4120
1120.0000 603.5200 36.7600
1095.6000 617.8400 21.1240
1138.0000 584.2500 9.1031
1108.8000 626.8500 48.6940
1120.0000 588.6900 0.0000
1088.8000 619.6500 0.0000
1143.4000 627.3200 64.8040
1130.0000 611.9900 54.4120
1150.0000 650.0000 70.0000
1104.4000 596.4800 0.0000
1088.4000 650.0000 35.8080
1080.4000 634.1500 0.0000
1150.0000 634.9400 70.0000
1079.9000 650.0000 15.5880
1150.0000 580.0700 17.3480
1140.0000 583.3400 26.4310
1130.0000 650.0000 70.0000
1120.0000 611.9900 54.4120
1099.5000 599.9100 16.6530
1110.8000 588.8900 13.4160
1105.8000 637.4200 58.0930
1130.0000 634.9400 70.0000
1150.0000 585.4900 37.7060
1130.0000 580.0700 17.3480
1093.3000 626.5100 43.1710
1081.2000 636.8800 27.5690
1104.1000 599.5100 32.4250
1102.0000 612.2300 44.8260
1120.0000 650.0000 70.0000
1096.5000 650.0000 54.4120
1150.0000 619.7000 70.0000
1150.0000 596.4800 54.4120
1079.8000 625.4800 17.4060
1150.0000 572.9100 0.0000
1130.0000 585.4900 37.7060
1090.4000 641.3000 48.7490
1120.0000 634.9400 70.0000
1085.7000 609.3600 16.0270
1120.0000 580.0700 17.3480
1071.4000 650.0000 0.0000
1130.0000 619.7000 70.0000
1130.0000 596.4800 54.4120
1085.4000 603.8100 0.0000
1130.0000 572.9100 0.0000
1108.1000 581.5100 0.0000
1120.0000 585.4900 37.7060
1071.1000 636.5800 10.2850
1085.0000 614.0100 32.5090
1143.4000 571.8700 21.0880
1139.8000 587.4500 51.5450
1120.0000 619.7000 70.0000
1120.0000 596.4800 54.4120
1079.5000 633.2700 38.8690
1071.6000 642.5100 24.1720
1120.0000 572.9100 0.0000
1103.6000 585.6300 23.6450
1104.7000 650.0000 70.0000
1150.0000 604.2800 70.0000
1073.5000 628.5700 27.4330
1096.8000 620.8900 58.1960
1071.0000 618.9900 0.0000
1150.0000 570.5900 30.3280
1130.0000 604.2800 70.0000
1106.2000 596.7900 51.6940
1150.0000 564.9400 15.5880
1139.4000 574.7700 42.5630
1130.0000 570.5900 30.3280
1108.3000 602.1000 60.1530
1100.9000 631.5300 70.0000
1089.6000 593.1200 27.9080
1091.7000 584.5100 0.0000
1091.1000 586.2700 13.0460
1073.1000 609.4900 13.4810
1091.4000 599.8600 42.7990
1079.9000 650.0000 54.4120
1130.0000 564.9400 15.5880
1120.0000 604.2800 70.0000
1070.3000 650.0000 39.2840
1062.0000 650.0000 15.2670
1062.0000 634.7300 0.0000
1065.7000 622.0500 10.1880
1084.7000 613.4100 49.2620
1150.0000 581.5100 58.1120
1082.5000 628.6600 55.4410
1142.0000 560.5700 7.5464
1120.0000 570.5900 30.3280
1098.7000 585.5900 39.3330
1120.0000 564.9400 15.5880
1104.4000 611.9900 70.0000
1106.6000 571.8700 21.0880
1130.0000 581.5100 58.1120
1079.3000 592.0100 13.8720
1078.9000 596.4100 25.8330
1150.0000 556.9700 0.0000
1150.0000 588.6900 70.0000
1088.4000 650.0000 70.0000
1070.7000 618.9600 39.6630
1093.2000 601.8400 57.4260
1105.5000 566.9600 0.0000
1120.0000 581.5100 58.1120
1130.0000 556.9700 0.0000
1130.0000 588.6900 70.0000
1068.0000 609.0900 26.8000
1064.5000 634.1000 40.4800
1057.3000 634.5000 19.1050
1107.9000 580.9000 52.1570
1053.6000 650.0000 0.0000
1075.5000 603.2600 40.1850
1150.0000 567.4700 50.5480
1120.0000 556.9700 0.0000
1120.0000 588.6900 70.0000
1088.8000 619.6500 70.0000
1106.6000 571.1500 38.9920
1071.1000 626.9900 53.7910
1130.0000 567.4700 50.5480
1140.3000 559.7600 39.4160
1104.4000 596.4800 70.0000
1061.9000 603.6700 0.0000
1072.1000 587.9200 0.0000
1150.0000 555.0100 30.4510
1071.1000 636.5800 59.7150
1080.4000 634.1500 70.0000
1092.4000 590.9600 56.9420
1138.9000 551.0200 12.6900
1082.0000 580.2900 27.1930
1120.0000 567.4700 50.5480
1130.0000 555.0100 30.4510
1106.3000 558.8600 12.0970
1052.9000 619.2200 0.0000
1150.0000 548.9100 15.5880
1080.6000 598.6300 55.1180
1091.5000 572.4500 32.6970
1060.0000 604.0700 18.7140
1057.5000 618.9100 33.2790
1092.0000 565.9800 16.4950
1062.0000 650.0000 54.7330
1052.4000 650.0000 35.9110
1150.0000 572.9100 70.0000
1120.0000 555.0100 30.4510
1130.0000 548.9100 15.5880
1102.4000 561.0800 26.9400
1069.1000 610.3500 53.5780
1064.5000 590.2200 11.0070
1051.7000 616.0500 14.0280
1139.9000 560.9000 54.9300
1071.4000 650.0000 70.0000
1095.8000 574.4200 49.4360
1077.5000 573.5600 0.0000
1085.4000 603.8100 70.0000
1130.0000 572.9100 70.0000
1108.1000 581.5100 70.0000
1120.0000 548.9100 15.5880
1044.1000 650.0000 15.1230
1044.1000 634.8800 0.0000
1070.8000 578.2500 13.4160
1059.5000 606.9400 40.7170
1064.5000 592.9600 33.6880
1120.0000 572.9100 70.0000
1078.8000 579.8400 42.3410
1057.5000 636.2200 55.1750
1150.0000 540.8500 0.0000
1050.9000 630.5400 41.8490
1106.7000 564.6200 54.0710
1071.0000 618.9900 70.0000
1112.3000 555.4900 42.5530
1044.3000 628.0700 25.2060
1104.4000 548.9100 0.0000
1130.0000 540.8500 0.0000
1067.7000 595.3300 50.7610
1088.8000 556.9200 0.0000
1091.7000 584.5100 70.0000
1052.1000 621.8600 47.8710
1109.9000 547.3700 23.0320
1120.0000 540.8500 0.0000
1062.0000 634.7300 70.0000
1150.0000 548.9100 51.7150
1051.1000 600.6300 28.0980
1035.8000 650.0000 0.0000
1053.4000 588.7000 0.0000
1055.5000 589.5200 24.8890
1150.0000 540.4500 34.8790
1130.0000 548.9100 51.7150
1137.5000 537.9700 24.7580
1043.9000 603.8900 0.0000
1108.8000 542.0300 7.7015
1048.7000 594.9300 11.1030
1094.3000 549.9500 18.7290
1080.7000 558.9900 20.2860
1062.7000 573.2800 0.0000
1037.3000 623.9000 12.4690
1150.0000 556.9700 70.0000
1095.4000 556.6100 43.2090
1130.0000 540.4500 34.8790
1105.5000 566.9600 70.0000
1045.0000 614.2700 38.7170
1120.0000 548.9100 51.7150
1066.2000 572.4800 30.1890
1035.9000 619.7300 0.0000
1139.1000 540.3600 42.6070
1130.0000 556.9700 70.0000
1070.6000 562.4100 9.0081
1033.6000 638.9300 20.2770
1150.0000 532.5400 16.9610
1036.8000 637.6400 33.4190
1120.0000 540.4500 34.8790
1085.4000 556.1000 33.6810
1053.6000 650.0000 70.0000
1039.5000 613.0400 24.6180
1044.1000 650.0000 54.8770
1138.9000 545.3400 56.9560
1038.3000 607.8500 9.0715
1081.7000 567.7000 54.4740
1120.0000 556.9700 70.0000
1130.0000 532.5400 16.9610
1038.6000 625.2100 39.7000
1102.3000 544.7900 35.7920
1060.9000 580.3700 43.5850
1052.6000 603.6100 55.2770
1052.0000 579.4100 12.5330
1061.9000 603.6700 70.0000
1072.1000 587.9200 70.0000
1068.2000 579.3800 56.6660
1050.8000 593.1700 42.7300
1120.0000 532.5400 16.9610
1043.2000 626.5700 55.9620
1102.9000 547.1700 49.1690
1041.6000 595.7600 22.5390
1031.9000 650.0000 36.1840
1052.9000 619.2200 70.0000
1125.4000 531.0400 26.6550
1069.6000 566.5100 45.1220
1026.3000 634.8800 0.0000
1091.1000 555.8600 56.9580
1030.9000 625.8700 28.7490
1051.3000 579.3700 30.2840
1150.0000 524.5500 0.0000
1071.7000 551.7400 0.0000
1034.7000 637.6400 48.3460
1104.4000 532.7000 0.0000
1089.5000 539.0500 0.0000
1077.5000 573.5600 70.0000
1086.4000 542.1600 19.9590
1024.2000 650.0000 16.4900
1130.0000 524.5500 0.0000
1065.0000 558.2700 23.9560
1044.1000 634.8800 70.0000
1107.5000 531.9500 26.8200
1120.0000 524.5500 0.0000
1053.7000 585.7500 57.1360
1150.0000 532.7000 54.4120
1150.0000 540.8500 70.0000
1035.5000 588.4200 0.0000
1044.7000 572.9700 0.0000
1053.6000 564.8400 22.9540
1075.3000 554.3300 48.4180
1027.5000 604.1200 0.0000
1150.0000 524.1800 35.7080
1130.0000 532.7000 54.4120
1072.0000 545.9800 14.8720
1077.1000 545.6400 30.8940
1097.7000 530.5400 13.3110
1104.4000 548.9100 70.0000
1025.1000 613.8100 16.7440
1130.0000 540.8500 70.0000
1022.3000 638.8400 28.3560
1088.8000 556.9200 70.0000
1017.9000 650.0000 0.0000
1130.0000 524.1800 35.7080
1040.6000 577.2200 18.0850
1086.1000 540.4200 38.8930
1120.0000 532.7000 54.4120
1066.3000 553.4300 36.7900
1070.6000 562.4100 60.9920
1137.8000 521.0000 30.3960
1120.0000 540.8500 70.0000
1054.2000 565.9700 39.3350
1087.0000 544.5300 52.1770
1035.8000 609.2500 56.5840
1018.7000 627.3500 13.2740
1143.4000 516.3200 5.1962
1035.8000 650.0000 70.0000
1053.4000 588.7000 70.0000
1120.0000 524.1800 35.7080
1103.7000 536.3800 55.0250
1029.8000 620.5900 52.5860
1025.4000 611.3300 32.9840
1150.0000 516.3200 15.5880
1136.6000 532.7000 64.8040
1057.0000 569.4100 55.1720
1043.9000 603.8900 70.0000
1044.8000 577.9900 45.2800
1028.8000 598.7300 32.4110
1018.0000 619.2800 0.0000
1039.2000 593.6400 54.1360
1062.7000 573.2800 70.0000
1035.8000 583.8800 32.3590
[...]
         <PointData>
            <DataArray Name="fValues" NumberOfComponents="3" format="ascii" type="Float64">
-1.45291e-05 -6.62999e-05 -1.52271e-05 
-1.12169e-05 -6.63217e-05 -1.50768e-05 
-1.71319e-05 -6.53942e-05 -1.50171e-05 
-1.32774e-05 -6.75030e-05 -1.72689e-05 
-1.42991e-05 -6.97098e-05 -1.99061e-05 
-1.06325e-05 -6.99750e-05 -2.00251e-05 
-1.61541e-05 -6.89368e-05 -2.00546e-05 
-1.20086e-05 -6.55605e-05 -1.48158e-05 
-1.63065e-05 -6.69095e-05 -1.69731e-05 
-1.42004e-05 -7.15912e-05 -2.23393e-05 
-8.26408e-06 -6.65607e-05 -1.48303e-05 
-9.64052e-06 -6.71278e-05 -1.62672e-05 
-1.03891e-05 -7.20448e-05 -2.24705e-05 
-1.11119e-05 -6.93526e-05 -1.95512e-05 
-1.50709e-05 -7.09114e-05 -2.21776e-05 
-2.12389e-05 -6.48699e-05 -1.42848e-05 
-7.73135e-06 -7.00899e-05 -1.98305e-05 
-1.79189e-05 -6.46698e-05 -1.42722e-05 
-1.94114e-05 -6.82955e-05 -1.91762e-05 
-1.02379e-05 -7.13560e-05 -2.13871e-05 
-9.13461e-06 -6.55885e-05 -1.43481e-05 
-1.14107e-05 -6.73440e-05 -1.68152e-05 
-7.38287e-06 -7.20863e-05 -2.18315e-05 
-1.61354e-05 -6.88871e-05 -1.88761e-05 
-1.31824e-05 -7.49383e-05 -2.39117e-05 
-8.60123e-06 -6.89344e-05 -1.84822e-05 
-6.00621e-06 -6.64871e-05 -1.41709e-05 
-1.75520e-05 -7.00387e-05 -2.13402e-05 
-1.80163e-05 -6.67739e-05 -1.62305e-05 
-1.33517e-05 -6.50703e-05 -1.42452e-05 
-1.45099e-05 -7.07347e-05 -2.08089e-05 
-1.01567e-05 -7.41670e-05 -2.30404e-05 
-5.91268e-06 -6.99654e-05 -1.84798e-05 
-1.19102e-05 -6.89444e-05 -1.82346e-05 
-7.74005e-06 -7.06445e-05 -2.03649e-05 
-9.71868e-06 -7.59121e-05 -2.37030e-05 
-2.57867e-05 -6.47105e-05 -1.29811e-05 
-7.84948e-06 -7.34612e-05 -2.25222e-05 
-5.95804e-06 -7.21591e-05 -2.06687e-05 
-1.08483e-05 -7.05960e-05 -1.95844e-05 
-1.09670e-05 -7.51413e-05 -2.27831e-05 
-7.22509e-06 -6.45848e-05 -1.21866e-05 
-1.40300e-05 -7.26788e-05 -2.26742e-05 
-8.64048e-06 -7.19436e-05 -2.02420e-05 
-2.31860e-05 -6.78194e-05 -1.82732e-05 
-6.39301e-06 -6.74237e-05 -1.51379e-05 
-1.29063e-05 -6.77142e-05 -1.60750e-05 
-2.37355e-05 -6.65885e-05 -1.53456e-05 
-1.96741e-05 -6.48926e-05 -1.33025e-05 
-6.76240e-06 -6.75868e-05 -1.58939e-05 
-1.03203e-05 -6.49446e-05 -1.24190e-05 
-6.83816e-06 -7.38538e-05 -2.18516e-05 
-2.08040e-05 -6.92231e-05 -2.00832e-05 
-5.34129e-06 -6.53841e-05 -1.13219e-05 
-1.19779e-05 -7.65488e-05 -2.11491e-05 
-8.80532e-06 -6.60198e-05 -1.30397e-05 
-8.93575e-06 -7.55992e-05 -2.11857e-05 
-1.76366e-05 -6.88719e-05 -1.75455e-05 
-9.45856e-06 -6.80008e-05 -1.56235e-05 
-6.36374e-06 -6.87147e-05 -1.71631e-05 
-9.41561e-06 -7.39739e-05 -2.02145e-05 
-5.62419e-06 -6.89547e-05 -1.55925e-05 
-8.03613e-06 -7.52576e-05 -1.97477e-05 
-1.55002e-05 -7.06669e-05 -1.91086e-05 
-1.55534e-05 -6.50681e-05 -1.26279e-05 
-8.83069e-06 -6.90621e-05 -1.63293e-05 
-7.16002e-06 -7.16776e-05 -1.79971e-05 
-6.43224e-06 -6.52273e-05 -1.16393e-05 
-1.21537e-05 -7.20621e-05 -1.91172e-05 
-5.62124e-06 -7.04739e-05 -1.69719e-05 
-9.22175e-06 -7.35507e-05 -2.01321e-05 
-2.28350e-05 -6.64751e-05 -1.43557e-05 
-1.35922e-05 -6.85950e-05 -1.61161e-05 
-3.24027e-05 -6.56480e-05 -1.26326e-05 
-5.66284e-06 -7.05148e-05 -1.81506e-05 
-9.41061e-06 -7.52377e-05 -2.06476e-05 
-1.09159e-05 -7.47556e-05 -1.78306e-05 
-2.75917e-05 -6.55618e-05 -1.27740e-05 
-7.08120e-06 -7.42029e-05 -1.68752e-05 
-6.85046e-06 -6.25594e-05 -7.90217e-06 
-7.43730e-06 -6.41983e-05 -9.58892e-06 
-2.96016e-05 -6.82962e-05 -1.67131e-05 
-1.21587e-05 -7.00584e-05 -1.71148e-05 
-5.36614e-06 -6.76747e-05 -1.52634e-05 
-5.00862e-06 -6.76231e-05 -1.46255e-05 
-1.42721e-05 -7.21612e-05 -1.98548e-05 
-2.41083e-05 -6.86814e-05 -1.64684e-05 
-8.08431e-06 -6.39519e-05 -8.15675e-06 
-6.75381e-06 -6.49924e-05 -1.08017e-05 
-9.43520e-06 -7.30760e-05 -1.70229e-05 
-7.74990e-06 -7.45698e-05 -1.63483e-05 
-7.21729e-06 -6.78177e-05 -1.34605e-05 
-9.61264e-06 -7.03714e-05 -1.53142e-05 
-2.71734e-05 -6.91377e-05 -1.81766e-05 
-1.35577e-05 -7.30004e-05 -2.22546e-05 
-2.29670e-05 -6.49625e-05 -1.19334e-05 
-1.24451e-05 -6.50092e-05 -1.03005e-05 
-7.10808e-06 -7.07120e-05 -1.41438e-05 
-6.03122e-06 -6.25474e-05 -7.12402e-06 
-8.00970e-06 -6.60780e-05 -1.09233e-05 
-1.03646e-05 -7.45016e-05 -1.95234e-05 
-2.11920e-05 -6.97710e-05 -1.77548e-05 
-6.43875e-06 -6.74903e-05 -1.31536e-05 
-6.10538e-06 -6.52487e-05 -1.13569e-05 
-8.00348e-06 -7.24875e-05 -1.38828e-05 
-1.93403e-05 -6.82865e-05 -1.57149e-05 
-1.10171e-05 -6.73653e-05 -1.31983e-05 
-8.35479e-06 -6.66965e-05 -1.42328e-05 
-6.25318e-06 -6.57776e-05 -1.04121e-05 
-6.97451e-06 -6.76929e-05 -1.34335e-05 
-7.91507e-06 -6.58498e-05 -1.04559e-05 
-8.26476e-06 -6.91268e-05 -1.14213e-05 
-7.61558e-06 -6.87229e-05 -1.14720e-05 
-7.12971e-06 -6.13861e-05 -5.74327e-06 
-1.03050e-05 -6.56396e-05 -9.70001e-06 
-1.61127e-05 -6.95757e-05 -1.60393e-05 
-1.01795e-05 -6.80380e-05 -1.33565e-05 
-8.64413e-06 -7.25133e-05 -1.39667e-05 
-6.17327e-06 -7.09190e-05 -1.23517e-05 
-6.46543e-06 -6.69961e-05 -1.13637e-05 
-5.97586e-06 -6.39709e-05 -9.22988e-06 
-1.98382e-05 -7.02260e-05 -2.02205e-05 
-1.76934e-05 -6.42114e-05 -1.07343e-05 
-7.96017e-06 -6.91835e-05 -9.27509e-06 
-9.80338e-06 -7.10454e-05 -1.53465e-05 
-1.21013e-05 -6.43919e-05 -9.82481e-06 
-6.79209e-06 -6.13275e-05 -4.18854e-06 
-1.50882e-05 -6.70880e-05 -1.34780e-05 
-9.58457e-06 -6.67771e-05 -1.06572e-05 
-6.30344e-06 -5.91641e-05 -3.11368e-06 
-8.05144e-06 -6.41095e-05 -5.87019e-06 
-7.53072e-06 -6.31752e-05 -5.78240e-06 
-1.00819e-05 -6.74629e-05 -1.24238e-05 
-1.21376e-05 -7.15091e-05 -1.66165e-05 
-6.59927e-06 -6.18304e-05 -4.99196e-06 
-7.63930e-06 -6.07932e-05 -7.61707e-06 
-5.04760e-06 -5.86168e-05 -5.39484e-06 
-7.97891e-06 -6.06604e-05 -5.94384e-06 
-8.94944e-06 -6.54011e-05 -7.17621e-06 
-7.02291e-06 -7.28480e-05 -1.78354e-05 
-7.09717e-06 -6.17143e-05 -5.34823e-06 
-1.28998e-05 -6.78069e-05 -1.33562e-05 
-5.48191e-06 -6.98899e-05 -1.28565e-05 
-3.14166e-06 -6.36920e-05 -6.81547e-06 
-1.16310e-05 -6.21508e-05 -5.65027e-06 
-6.39447e-06 -5.90724e-05  8.38076e-07 
-1.00788e-05 -6.80549e-05 -8.87200e-06 
-1.06584e-05 -6.38353e-05 -6.21414e-06 
-9.06899e-06 -7.11920e-05 -1.35073e-05 
-7.04474e-06 -5.92633e-05 -3.31381e-06 
-7.42684e-06 -6.25923e-05 -5.41468e-06 
-8.49368e-06 -6.21568e-05 -4.35363e-06 
-6.81196e-06 -6.15264e-05 -5.26348e-06 
-9.96878e-06 -6.82312e-05 -1.20608e-05 
-5.65917e-06 -5.94580e-05 -3.64021e-06 
-1.00165e-05 -6.49227e-05 -8.16364e-06 
-6.12429e-06 -5.39395e-05  9.29036e-07 
-7.10003e-06 -5.80622e-05  6.42229e-08 
-6.05591e-06 -5.66141e-05 -2.27351e-06 
-1.43585e-05 -6.32107e-05 -7.38131e-06 
-8.92484e-06 -7.24987e-05 -1.81629e-05 
-9.34041e-06 -6.51464e-05 -3.47256e-06 
-9.22741e-06 -6.55056e-05 -7.58176e-06 
-6.27853e-06 -6.13644e-05 -5.68397e-06 
-9.97433e-06 -6.45823e-05 -7.77854e-06 
-6.76186e-06 -6.13342e-05 -5.12635e-06 
-1.21145e-05 -6.47065e-05 -9.69691e-06 
-8.26720e-06 -5.85835e-05  6.81346e-07 
-8.02735e-06 -6.43237e-05 -4.50272e-06 
-8.40655e-06 -5.56465e-05  3.17541e-06 
-1.01694e-05 -6.22053e-05 -4.37087e-06 
-5.68492e-06 -5.71492e-05 -3.51610e-06 
-9.95992e-06 -6.03272e-05  8.58765e-07 
-8.24776e-06 -6.26179e-05 -1.80621e-06 
-7.01303e-06 -6.18321e-05 -5.53742e-06 
-1.04997e-05 -6.46311e-05 -9.07024e-06 
-7.23553e-06 -6.79056e-05 -1.06878e-05 
-8.65925e-06 -5.93145e-05 -6.99307e-07 
-9.80356e-06 -6.64997e-05 -6.87449e-06 
-8.92818e-06 -6.23359e-05 -3.16147e-06 
-7.42445e-06 -6.08912e-05 -1.19500e-06 
-8.55570e-06 -6.32008e-05 -7.27310e-06 
-1.29600e-05 -4.87246e-05  6.77493e-06 
-9.44436e-06 -4.84740e-05  8.25721e-06 
-5.96871e-06 -5.80348e-05 -2.96075e-09 
-7.80466e-06 -6.86039e-05 -1.02139e-05 
-6.72236e-06 -7.07218e-05 -1.24571e-05 
-1.07043e-05 -6.05082e-05 -8.16794e-07 
-6.06603e-06 -5.72622e-05 -1.15801e-06 
-7.45540e-06 -5.17329e-05  1.08596e-05 
-9.43429e-06 -6.11481e-05 -2.02034e-06 
-7.19779e-06 -5.95908e-05 -9.48697e-07 
-5.65025e-06 -5.66580e-05  3.78953e-07 
-6.22984e-06 -4.19753e-05  3.24253e-05 
-5.30292e-06 -5.56354e-05 -3.12034e-07 
-1.16719e-05 -5.88696e-05  2.99348e-06 
-8.43310e-06 -5.36336e-05  6.29547e-06 
-9.26744e-06 -4.99172e-05  1.18861e-05 
-8.89838e-06 -5.44620e-05  1.08045e-05 
-5.44068e-06 -4.88104e-05  8.12398e-06 
-5.35665e-06 -6.46394e-05 -7.70295e-06 
-4.95141e-06 -5.53927e-05  8.70585e-09 
-1.12569e-05 -6.14730e-05 -1.93983e-06 
-7.66417e-06 -5.83106e-05  4.51343e-09 
-6.32473e-06 -5.70806e-05 -8.09163e-07 
-7.18383e-06 -5.41604e-05  3.99043e-06 
-1.24800e-05 -5.92076e-05  5.07225e-06 
-7.91585e-06 -4.39243e-05  1.62702e-05 
-7.50341e-06 -4.37718e-05  3.20908e-05 
-8.68991e-06 -6.11130e-05 -2.17920e-07 
-9.41509e-07 -7.04847e-05 -1.34208e-05 
-1.11709e-05 -5.65774e-05  4.75319e-06 
-8.60107e-06 -4.18766e-05  1.84646e-05 
-7.60053e-06 -5.97437e-05 -2.08098e-06 
-1.02041e-05 -6.12236e-05 -3.44807e-06 
-8.91231e-06 -5.94354e-05 -2.88723e-06 
-6.41515e-06 -5.66096e-05 -1.56183e-08 
-5.88328e-06 -5.01551e-05  8.68494e-06 
-1.11520e-05 -4.70529e-05  1.28942e-05 
-6.77710e-06 -3.93589e-05  3.18709e-05 
-1.10906e-05 -5.38736e-05  1.32121e-05 
-9.68648e-06 -4.93414e-05  1.66470e-05 
-9.76615e-06 -5.99901e-05 -2.41516e-06 
-1.05089e-05 -5.10556e-05  1.36520e-05 
-9.30937e-06 -6.02143e-05 -1.00761e-06 
-4.56079e-06 -5.18454e-05 -7.82932e-07 
-8.20072e-06 -5.43385e-05  9.33818e-06 
-1.07616e-05 -5.58583e-05  3.80135e-06 
-8.53706e-06 -5.96355e-05 -1.42186e-06 
-9.77537e-06 -5.56505e-05  4.01589e-06 
-8.62770e-06 -4.68157e-05  3.23839e-05 
-8.60199e-06 -5.14688e-05  2.29689e-06 
-5.63211e-06 -5.52824e-05 -2.03725e-06 
-1.25867e-05 -5.20901e-05  1.44886e-05 
-6.49107e-06 -3.97626e-05  1.56402e-05 
-9.24510e-06 -5.39322e-05  4.80084e-06 
-1.03028e-05 -5.42274e-05  1.18266e-05 
-6.89183e-06 -5.27719e-05  4.66233e-06 
-6.59408e-06 -5.48521e-05 -1.36664e-06 
-6.78754e-06 -6.01758e-05 -3.65092e-06 
-7.44454e-06 -5.84208e-05  2.97049e-06 
-8.42961e-06 -4.52772e-05  3.10879e-05 
-7.37194e-06 -4.53319e-05  3.25833e-05 
-4.97274e-06 -4.02704e-05  2.98888e-05 
-7.88233e-06 -4.38338e-05  3.06447e-05 
-5.47164e-06 -5.53908e-05  2.14062e-06 
-9.17706e-06 -5.71586e-05  2.72127e-06 
-5.73990e-06 -5.44657e-05  1.64231e-06 
-5.44593e-06 -4.21269e-05  2.98723e-05 
-6.18741e-06 -5.07010e-05  3.45460e-06 
-6.48100e-06 -4.22974e-05  2.99491e-05 
-6.27478e-06 -4.50578e-05  1.32691e-05 
-7.27789e-06 -4.30015e-05  1.92040e-05 
-4.35051e-06 -3.89780e-05  2.97810e-05 
-7.66469e-06 -4.49328e-05  3.10073e-05 
-1.04421e-05 -5.91344e-05  3.67535e-06 
-1.16732e-05 -4.95047e-05  1.14160e-05 
-7.32286e-06 -5.51836e-05  2.75474e-06 
-9.88305e-06 -5.32435e-05  5.27068e-06 
-9.40878e-06 -4.85871e-05  3.15691e-05 
-1.02130e-05 -5.49803e-05  4.75158e-06 
-8.73837e-06 -4.19288e-05  3.09376e-05 
-6.38853e-06 -4.33415e-05  3.03206e-05 
-7.40057e-06 -5.56374e-05  2.98711e-06 
-9.75269e-06 -5.74568e-05  2.56941e-06 
-5.38377e-06 -3.83448e-05  3.01033e-05 
-8.41996e-06 -4.72604e-05  3.15962e-05 
-4.37180e-06 -5.17332e-05  3.56231e-07 
-9.69734e-06 -4.84529e-05  3.25859e-05 
-7.95848e-06 -5.30543e-05  5.21818e-06 
-1.01212e-05 -4.57596e-05  1.74841e-05 
-3.64569e-06 -5.86177e-05 -5.39127e-06 
-8.24475e-06 -4.61320e-05  3.03823e-05 
-7.95290e-06 -5.33199e-05  6.50761e-06 
-8.65346e-06 -5.69097e-05  3.49841e-06 
-6.65639e-06 -4.38126e-05  2.96599e-05 
-1.28792e-05 -4.87311e-05  1.78637e-05 
-9.79464e-06 -5.52402e-05  4.03407e-06 
-5.34585e-06 -5.20629e-05  1.66925e-06 
-9.67082e-06 -4.94845e-05  3.18716e-05 
-9.63232e-06 -4.79438e-05  1.07379e-05 
-1.04894e-05 -4.65744e-05  3.15244e-05 
-1.17688e-05 -4.99045e-05  3.26391e-05 
-6.28709e-06 -4.13932e-05  2.90053e-05 
-1.24930e-05 -4.94487e-05  2.07899e-05 
-1.27823e-05 -4.83396e-05  1.79529e-05 
-1.35693e-05 -4.75666e-05  2.32192e-05 
-1.01207e-05 -4.74201e-05  3.10237e-05 
-5.94489e-06 -5.03913e-05  3.62577e-06 
-1.20139e-05 -5.09431e-05  1.56612e-05 
-1.31214e-05 -4.85400e-05  1.14961e-05 
-7.80407e-06 -4.44488e-05  2.92656e-05 
-8.70545e-06 -5.14042e-05  3.18196e-05 
-1.38688e-05 -4.98558e-05  1.69868e-05 
-6.54345e-06 -5.15257e-05  3.63005e-06 
-1.09399e-05 -4.46401e-05  3.28637e-05 
-6.96219e-06 -4.52933e-05  3.04372e-05 
-1.33693e-05 -4.77037e-05  1.67992e-05 
-8.86924e-06 -4.79757e-05  3.07173e-05 
-8.48973e-06 -4.39080e-05  2.93337e-05 
-4.56325e-06 -4.77229e-05 -1.97246e-06 
-3.90949e-06 -3.64809e-05  2.91064e-05 
-1.03995e-05 -5.03167e-05  1.90013e-05 
-8.96634e-06 -4.47535e-05  7.44898e-06 
-3.63980e-06 -3.41153e-05  3.04174e-05 
-1.26986e-05 -4.49855e-05  1.89982e-05 
-6.87790e-06 -4.02526e-05  2.04619e-05 
-8.36456e-06 -4.82682e-05  3.14296e-05 
-6.33350e-06 -4.87897e-05 -1.12007e-06 
-7.46760e-06 -4.03921e-05  2.92790e-05 
-1.10630e-05 -5.03432e-05  1.02043e-05 
-6.99357e-06 -4.58902e-05  1.19918e-05 
-7.16739e-06 -4.66947e-05  1.34402e-06 
-1.21466e-05 -4.90297e-05  3.17051e-05 
-6.78234e-06 -5.36117e-05  3.45623e-06 
-8.79989e-06 -5.54138e-05  5.55468e-06 
-4.93182e-06 -4.19302e-05  2.74150e-05 
-4.42656e-06 -4.02844e-05  2.71808e-05 
-7.30170e-06 -4.17502e-05  2.80271e-05 
-1.09951e-05 -4.45331e-05  3.22403e-05 
-5.58708e-06 -4.35144e-05  2.78866e-05 
-4.98665e-06 -5.12073e-05  2.32410e-06 
-9.61096e-06 -5.19718e-05  5.50611e-06 
-5.89741e-06 -3.78939e-05  2.87946e-05 
-8.32505e-06 -3.97892e-05  3.01197e-05 
-5.66285e-06 -4.09211e-05  1.79731e-05 
-1.22096e-05 -4.67893e-05  1.24495e-05 
-7.62429e-06 -4.61523e-05  2.87717e-05 
-9.31635e-06 -5.35853e-05  5.97225e-06 
-8.54164e-06 -4.99564e-05  3.02802e-05 
-1.30375e-05 -4.43526e-05  1.93320e-05 
-7.30054e-06 -4.68511e-05  3.10011e-05 
-6.72321e-06 -5.02015e-05  4.35033e-06 
-6.90651e-06 -4.28953e-05  2.73808e-05 
-1.12751e-05 -4.21252e-05  2.06080e-05 
-1.08666e-05 -4.91731e-05  8.47994e-06 
-9.33109e-06 -4.16800e-05  2.94328e-05 
-1.30271e-05 -4.71967e-05  3.23007e-05 
-5.55774e-06 -4.96282e-05  2.84694e-06 
-1.04471e-05 -5.00459e-05  8.22740e-06 
-9.83084e-06 -4.46081e-05  2.91457e-05 
-1.31675e-05 -4.45287e-05  2.17646e-05 
-1.13662e-05 -5.18802e-05  3.05783e-05 
-7.80113e-06 -4.70138e-05  2.92217e-05 
-5.77763e-06 -4.63595e-05 -2.36831e-06 
-1.01852e-05 -5.63733e-05  3.32363e-05 
-1.38785e-05 -5.08913e-05  3.20065e-05 
-7.54580e-06 -4.75821e-05  8.27165e-06 
-1.36529e-05 -4.49100e-05  1.44643e-05 
-1.05117e-05 -5.25060e-05  3.05874e-05 
-8.87191e-06 -4.84957e-05  2.88863e-05 
-5.05524e-06 -4.74053e-05 -1.52718e-06 
-8.63556e-06 -5.23778e-05  5.20576e-06 
-1.20007e-05 -4.80777e-05  3.05445e-05 
-1.34014e-05 -5.21887e-05  3.17294e-05 
-1.05041e-05 -4.76270e-05  2.93352e-05 
-8.75739e-06 -4.72807e-05  2.82098e-05 
-6.35043e-06 -4.52458e-05  2.82562e-05 
-1.14226e-05 -5.05097e-05  2.99627e-05 
-1.41585e-05 -4.96864e-05  3.20217e-05 
-8.75495e-06 -4.57964e-05  2.77520e-05 
-4.93960e-06 -4.01443e-05  2.64340e-05 
-5.40448e-06 -4.62966e-05  1.65782e-06 
-8.99312e-06 -5.51061e-05  3.19410e-05 
-1.23264e-05 -5.38245e-05  3.16368e-05 
-6.22094e-06 -4.95918e-05  3.88707e-06 
-9.46603e-06 -5.07324e-05  2.96853e-05 
-5.49164e-06 -4.37329e-05  6.19573e-06 
-8.50273e-06 -5.10071e-05  3.08219e-05 
-8.21791e-06 -4.89719e-05  2.95637e-05 
-5.87723e-06 -4.10062e-05  1.37655e-05 
-9.48087e-06 -5.33207e-05  3.05445e-05 
-4.82443e-06 -3.59264e-05  2.81341e-05 
-7.21985e-06 -4.49462e-05  2.67477e-05 
-3.88755e-06 -3.86025e-05  2.59579e-05 
-6.32601e-06 -3.99639e-05  2.64946e-05 
-1.29241e-05 -4.46452e-05  3.20829e-05 
-1.11897e-05 -4.60625e-05  2.95008e-05 
-6.71683e-06 -3.65301e-05  2.94111e-05 
-7.03938e-06 -3.83828e-05  2.81905e-05 
-8.48075e-06 -4.42440e-05  2.66196e-05 
-7.02126e-06 -4.70437e-05  2.89327e-05 
-5.98780e-06 -3.83734e-05  1.27829e-05 
-8.98597e-06 -5.30201e-05  3.11600e-05 
-3.11231e-06 -3.31645e-05  2.87015e-05 
-8.51841e-06 -4.88255e-05  2.84988e-05 
-6.88583e-06 -4.55980e-05  2.65998e-05 
-7.59562e-06 -4.37901e-05 -4.93964e-06 
-1.24770e-05 -4.15847e-05  2.26515e-05 
-3.28705e-06 -3.49560e-05  2.70996e-05 
-1.04179e-05 -4.97340e-05  2.79142e-05 
-1.09782e-05 -5.56479e-05  3.13489e-05 
-8.10290e-06 -4.33744e-05 -2.71975e-07 
-5.79034e-06 -4.42791e-05  4.78607e-06 
-1.04337e-05 -4.25417e-05  1.57526e-05 
-6.39568e-06 -5.04376e-05  4.65604e-06 
-1.48303e-05 -4.69417e-05  3.17884e-05 
-5.70741e-06 -4.29128e-05  2.52403e-05 
-1.09127e-05 -5.19397e-05  2.87914e-05 
-1.29274e-05 -4.16841e-05  1.55904e-05 
-6.07553e-06 -4.84699e-05  4.00151e-06 
-7.30359e-06 -4.70666e-05  2.74440e-05 
-1.46407e-05 -4.45933e-05  3.29914e-05 
-9.40852e-06 -4.10801e-05  2.81923e-05 
-8.99381e-06 -5.16368e-05  2.95683e-05 
-7.44702e-06 -3.89553e-05  2.02411e-05 
-8.43281e-06 -4.27959e-05  2.62271e-05 
-8.99382e-06 -4.85207e-05  7.38338e-06 
-7.96386e-06 -4.10254e-05  4.25631e-06 
-1.28580e-05 -5.01687e-05  2.88746e-05 
-3.51343e-06 -3.68182e-05  2.56231e-05 
-1.27699e-05 -4.27442e-05  1.29202e-05 
-6.58682e-06 -4.19277e-05  2.52534e-05 
-4.84220e-06 -4.48602e-05  2.21199e-06 
-1.30036e-05 -4.59713e-05  3.01360e-05 
-5.09883e-06 -4.35848e-05  2.52212e-05 
-9.02623e-06 -4.67267e-05  6.61590e-06 
-5.60492e-06 -4.17454e-05  2.47326e-05 
-1.05345e-05 -4.53050e-05  1.05230e-05 
-1.14404e-05 -4.33374e-05  3.01387e-05 
-5.40883e-06 -3.79223e-05  2.60092e-05 
-7.92513e-06 -4.72755e-05  2.63172e-05 
-1.07459e-05 -4.40714e-05  1.06034e-05 
-5.50475e-06 -3.78621e-05  1.36254e-05 
-1.37208e-05 -5.19575e-05  2.92467e-05 
-5.82592e-06 -4.51105e-05  2.59214e-05 
-7.65394e-06 -4.47892e-05  2.51854e-05 
-1.41659e-05 -5.05365e-05  2.92006e-05 
-6.25512e-06 -4.24611e-05  7.92309e-06 
-1.31151e-05 -5.31876e-05  2.94525e-05 
-1.04641e-05 -4.46197e-05  2.76510e-05 
-7.77340e-06 -4.04159e-05  2.61750e-05 
-4.54201e-06 -4.18534e-05  2.41321e-05 
-4.60698e-06 -4.61225e-05  2.78264e-06 
-1.29899e-05 -4.85870e-05  2.82072e-05 
-5.05428e-06 -4.00032e-05  2.43090e-05 
-9.81408e-06 -5.65914e-05  3.16116e-05 
-8.83469e-06 -4.73766e-05  2.57916e-05 
-9.47658e-06 -5.08417e-05  2.75964e-05 
-1.36983e-05 -4.08789e-05  2.13815e-05 
-6.96852e-06 -4.86508e-05  2.97268e-05 
-6.40123e-06 -4.44593e-05  6.30963e-06 
-9.02230e-06 -3.90388e-05  2.84166e-05 
-6.10774e-06 -3.89933e-05  1.59061e-05 
-4.57668e-06 -3.45345e-05  2.72586e-05 
-1.05944e-05 -4.65556e-05  2.64395e-05 
-9.83482e-06 -4.75998e-05  2.57599e-05 
-6.28350e-06 -4.56954e-05  4.76498e-06 
-8.43687e-06 -5.00859e-05  2.98753e-05 
-5.04388e-06 -4.23889e-05 -2.52503e-06 
-7.89972e-06 -4.88047e-05  2.79257e-05 
-7.26349e-06 -4.20437e-05  1.12125e-05 
-9.24110e-06 -5.18523e-05  2.83816e-05 
-6.59634e-06 -4.68414e-05  2.67343e-05 
-1.03761e-05 -5.35368e-05  2.86338e-05 
-1.00619e-05 -5.04809e-05  2.66424e-05 
-9.23755e-06 -5.42089e-05  2.96616e-05 
-5.10548e-06 -4.08753e-05  4.18194e-06 
-6.56823e-06 -4.10469e-05  2.42998e-05 
-1.21077e-05 -5.47588e-05  2.95417e-05 
-8.51112e-06 -5.03487e-05  2.82572e-05 
-5.49850e-06 -3.88672e-05  2.44646e-05 
-4.93860e-06 -3.80114e-05  1.01194e-05 
-8.42579e-06 -5.24790e-05  3.00338e-05 
-5.72368e-06 -3.65284e-05  2.59715e-05 
-4.06268e-06 -4.02613e-05  2.30551e-05 
-6.14564e-06 -4.55093e-05  2.44875e-05 
-4.86719e-06 -3.36247e-05  2.78220e-05 
-6.90591e-06 -4.52810e-05  2.41537e-05 
-5.63886e-06 -3.52500e-05  1.51863e-05 
-5.46281e-06 -4.08132e-05 -2.69572e-07 
-1.24940e-05 -4.50744e-05  2.81130e-05 
-4.29381e-06 -3.60482e-05  2.49615e-05 
-1.23913e-05 -4.92091e-05  2.61981e-05 
-1.47276e-05 -4.88393e-05  2.82103e-05 
-1.29512e-05 -5.12371e-05  2.68574e-05 
-7.51328e-06 -4.78862e-05  2.55628e-05 
-3.61382e-06 -3.84019e-05  2.31110e-05 
-1.21574e-05 -5.21249e-05  2.69039e-05 
-8.65038e-06 -4.47782e-05  2.40468e-05 
-2.68821e-06 -3.20212e-05  2.69786e-05 
-2.86086e-06 -3.38417e-05  2.54867e-05 
-8.77695e-06 -4.30112e-05  2.43479e-05 
-1.07438e-05 -5.62956e-05  2.97871e-05 
-1.23672e-05 -4.02113e-05  1.84777e-05 
-1.48018e-05 -4.25372e-05  3.18404e-05 
-1.08578e-05 -3.85763e-05  2.30616e-05 
-5.86788e-06 -3.97850e-05  8.70344e-06 
-5.07779e-06 -4.48706e-05  5.18211e-06 
-8.12243e-06 -3.99179e-05 -4.85247e-06 
-1.15613e-05 -4.17367e-05  2.95695e-05 
-1.46650e-05 -4.54028e-05  2.97980e-05 
-8.42106e-06 -4.00975e-05  2.55856e-05 
-1.22753e-05 -3.99396e-05  1.83890e-05 
-8.49674e-06 -5.49749e-05  3.02769e-05 
-7.30855e-06 -4.84565e-05  2.76300e-05 
-1.09782e-05 -5.03457e-05  2.51567e-05 