<?xml version="1.0" encoding="utf-8"?>
<VTKFile byte_order="LittleEndian" type="UnstructuredGrid" version="0.1">
   <UnstructuredGrid>
      <Piece NumberOfCells="25088" NumberOfPoints="25425">
         <Points>
            <DataArray Name="Points" NumberOfComponents="3" format="ascii" type="Float32">
0.0000 1.0000 0.0000
0.0000 0.9938 0.0000
0.0063 1.0000 0.0000
0.0063 0.9938 0.0000
0.0125 1.0000 0.0000
0.0000 0.9875 0.0000
0.0063 0.9875 0.0000
0.0125 0.9938 0.0000
0.0125 0.9875 0.0000
0.0187 1.0000 0.0000
0.0000 0.9812 0.0000
0.0187 0.9938 0.0000
0.0063 0.9812 0.0000
0.0187 0.9875 0.0000
0.0125 0.9812 0.0000
0.0000 0.9750 0.0000
0.0250 1.0000 0.0000
0.0250 0.9938 0.0000
0.0063 0.9750 0.0000
0.0187 0.9812 0.0000
0.0250 0.9875 0.0000
0.0125 0.9750 0.0000
0.0312 1.0000 0.0000
0.0000 0.9688 0.0000
0.0187 0.9750 0.0000
0.0250 0.9812 0.0000
0.0063 0.9688 0.0000
0.0312 0.9938 0.0000
0.0125 0.9688 0.0000
0.0312 0.9875 0.0000
0.0250 0.9750 0.0000
0.0312 0.9812 0.0000
0.0187 0.9688 0.0000
0.0375 1.0000 0.0000
0.0000 0.9625 0.0000
0.0375 0.9938 0.0000
0.0063 0.9625 0.0000
0.0375 0.9875 0.0000
0.0125 0.9625 0.0000
0.0250 0.9688 0.0000
0.0312 0.9750 0.0000
0.0187 0.9625 0.0000
0.0375 0.9812 0.0000
0.0000 0.9563 0.0000
0.0437 1.0000 0.0000
0.0312 0.9688 0.0000
0.0063 0.9563 0.0000
0.0437 0.9938 0.0000
0.0375 0.9750 0.0000
0.0250 0.9625 0.0000
0.0125 0.9563 0.0000
0.0437 0.9875 0.0000
0.0187 0.9563 0.0000
0.0437 0.9812 0.0000
0.0375 0.9688 0.0000
0.0312 0.9625 0.0000
0.0500 1.0000 0.0000
0.0000 0.9500 0.0000
0.0250 0.9563 0.0000
0.0500 0.9938 0.0000
0.0437 0.9750 0.0000
0.0063 0.9500 0.0000
0.0500 0.9875 0.0000
0.0125 0.9500 0.0000
0.0375 0.9625 0.0000
0.0500 0.9812 0.0000
0.0187 0.9500 0.0000
0.0437 0.9688 0.0000
0.0312 0.9563 0.0000
0.0500 0.9750 0.0000
0.0250 0.9500 0.0000
0.0000 0.9437 0.0000
0.0563 1.0000 0.0000
0.0563 0.9938 0.0000
0.0063 0.9437 0.0000
0.0563 0.9875 0.0000
0.0437 0.9625 0.0000
0.0375 0.9563 0.0000
0.0125 0.9437 0.0000
0.0500 0.9688 0.0000
0.0312 0.9500 0.0000
0.0187 0.9437 0.0000
0.0563 0.9812 0.0000
0.0563 0.9750 0.0000
0.0250 0.9437 0.0000
0.0437 0.9563 0.0000
0.0000 0.9375 0.0000
0.0625 1.0000 0.0000
0.0500 0.9625 0.0000
0.0375 0.9500 0.0000
0.0625 0.9938 0.0000
0.0063 0.9375 0.0000
0.0625 0.9875 0.0000
0.0125 0.9375 0.0000
0.0563 0.9688 0.0000
0.0312 0.9437 0.0000
0.0625 0.9812 0.0000
0.0187 0.9375 0.0000
0.0500 0.9563 0.0000
0.0437 0.9500 0.0000
0.0625 0.9750 0.0000
0.0250 0.9375 0.0000
0.0563 0.9625 0.0000
0.0375 0.9437 0.0000
0.0688 1.0000 0.0000
0.0000 0.9313 0.0000
0.0688 0.9938 0.0000
0.0063 0.9313 0.0000
0.0688 0.9875 0.0000
0.0625 0.9688 0.0000
0.0125 0.9313 0.0000
0.0312 0.9375 0.0000
0.0500 0.9500 0.0000
0.0688 0.9812 0.0000
0.0563 0.9563 0.0000
0.0187 0.9313 0.0000
0.0437 0.9437 0.0000
0.0625 0.9625 0.0000
0.0375 0.9375 0.0000
0.0688 0.9750 0.0000
0.0250 0.9313 0.0000
0.0000 0.9250 0.0000
0.0750 1.0000 0.0000
0.0063 0.9250 0.0000
0.0563 0.9500 0.0000
0.0750 0.9938 0.0000
0.0500 0.9437 0.0000
0.0688 0.9688 0.0000
0.0312 0.9313 0.0000
0.0125 0.9250 0.0000
0.0750 0.9875 0.0000
0.0625 0.9563 0.0000
0.0437 0.9375 0.0000
0.0187 0.9250 0.0000
0.0750 0.9812 0.0000
0.0688 0.9625 0.0000
0.0375 0.9313 0.0000
0.0250 0.9250 0.0000
0.0750 0.9750 0.0000
0.0563 0.9437 0.0000
0.0625 0.9500 0.0000
0.0500 0.9375 0.0000
0.0312 0.9250 0.0000
0.0813 1.0000 0.0000
0.0000 0.9187 0.0000
0.0750 0.9688 0.0000
0.0437 0.9313 0.0000
0.0813 0.9938 0.0000
0.0688 0.9563 0.0000
0.0063 0.9187 0.0000
0.0813 0.9875 0.0000
0.0125 0.9187 0.0000
0.0813 0.9812 0.0000
0.0187 0.9187 0.0000
0.0375 0.9250 0.0000
0.0750 0.9625 0.0000
0.0625 0.9437 0.0000
0.0563 0.9375 0.0000
0.0688 0.9500 0.0000
0.0500 0.9313 0.0000
0.0813 0.9750 0.0000
0.0250 0.9187 0.0000
0.0437 0.9250 0.0000
0.0750 0.9563 0.0000
0.0813 0.9688 0.0000
0.0312 0.9187 0.0000
0.0000 0.9125 0.0000
0.0875 1.0000 0.0000
0.0875 0.9938 0.0000
0.0063 0.9125 0.0000
0.0875 0.9875 0.0000
0.0125 0.9125 0.0000
0.0625 0.9375 0.0000
0.0563 0.9313 0.0000
0.0688 0.9437 0.0000
0.0813 0.9625 0.0000
0.0875 0.9812 0.0000
0.0187 0.9125 0.0000
0.0375 0.9187 0.0000
0.0500 0.9250 0.0000
0.0750 0.9500 0.0000
0.0875 0.9750 0.0000
0.0250 0.9125 0.0000
0.0813 0.9563 0.0000
0.0437 0.9187 0.0000
0.0875 0.9688 0.0000
0.0625 0.9313 0.0000
0.0312 0.9125 0.0000
0.0688 0.9375 0.0000
0.0563 0.9250 0.0000
0.0000 0.9062 0.0000
0.0938 1.0000 0.0000
0.0750 0.9437 0.0000
0.0938 0.9938 0.0000
0.0063 0.9062 0.0000
0.0938 0.9875 0.0000
0.0125 0.9062 0.0000
0.0875 0.9625 0.0000
0.0375 0.9125 0.0000
0.0813 0.9500 0.0000
0.0500 0.9187 0.0000
0.0938 0.9812 0.0000
0.0187 0.9062 0.0000
0.0938 0.9750 0.0000
0.0250 0.9062 0.0000
0.0688 0.9313 0.0000
0.0625 0.9250 0.0000
0.0750 0.9375 0.0000
0.0875 0.9563 0.0000
0.0437 0.9125 0.0000
0.0938 0.9688 0.0000
0.0312 0.9062 0.0000
0.0813 0.9437 0.0000
0.0563 0.9187 0.0000
0.0000 0.9000 0.0000
0.1000 1.0000 0.0000
0.0063 0.9000 0.0000
0.1000 0.9938 0.0000
0.0125 0.9000 0.0000
0.1000 0.9875 0.0000
0.0875 0.9500 0.0000
0.0500 0.9125 0.0000
0.0938 0.9625 0.0000
0.0375 0.9062 0.0000
0.0187 0.9000 0.0000
0.0750 0.9313 0.0000
0.0688 0.9250 0.0000
0.1000 0.9812 0.0000
0.0813 0.9375 0.0000
0.0625 0.9187 0.0000
0.0250 0.9000 0.0000
0.1000 0.9750 0.0000
0.0938 0.9563 0.0000
0.0437 0.9062 0.0000
0.0875 0.9437 0.0000
0.0563 0.9125 0.0000
0.0312 0.9000 0.0000
0.1000 0.9688 0.0000
0.0750 0.9250 0.0000
0.0000 0.8938 0.0000
0.0938 0.9500 0.0000
0.1062 1.0000 0.0000
0.0500 0.9062 0.0000
0.1062 0.9938 0.0000
0.0813 0.9313 0.0000
0.0688 0.9187 0.0000
0.0063 0.8938 0.0000
0.0375 0.9000 0.0000
0.1000 0.9625 0.0000
0.1062 0.9875 0.0000
0.0125 0.8938 0.0000
0.0625 0.9125 0.0000
0.0875 0.9375 0.0000
0.1062 0.9812 0.0000
0.0187 0.8938 0.0000
0.1062 0.9750 0.0000
0.0437 0.9000 0.0000
0.1000 0.9563 0.0000
0.0250 0.8938 0.0000
0.0938 0.9437 0.0000
0.0563 0.9062 0.0000
0.0813 0.9250 0.0000
0.0750 0.9187 0.0000
0.1062 0.9688 0.0000
0.0312 0.8938 0.0000
0.0875 0.9313 0.0000
0.0688 0.9125 0.0000
0.0500 0.9000 0.0000
0.1000 0.9500 0.0000
0.0000 0.8875 0.0000
0.1125 1.0000 0.0000
0.1125 0.9938 0.0000
0.0625 0.9062 0.0000
0.1062 0.9625 0.0000
0.0375 0.8938 0.0000
0.0063 0.8875 0.0000
0.0938 0.9375 0.0000
0.1125 0.9875 0.0000
0.0125 0.8875 0.0000
0.1125 0.9812 0.0000
0.0187 0.8875 0.0000
0.1000 0.9437 0.0000
0.0563 0.9000 0.0000
0.1062 0.9563 0.0000
0.0437 0.8938 0.0000
0.0813 0.9187 0.0000
0.0875 0.9250 0.0000
0.1125 0.9750 0.0000
0.0750 0.9125 0.0000
0.0250 0.8875 0.0000
0.0688 0.9062 0.0000
0.0938 0.9313 0.0000
0.1125 0.9688 0.0000
0.0312 0.8875 0.0000
0.0500 0.8938 0.0000
0.1062 0.9500 0.0000
0.0625 0.9000 0.0000
0.1000 0.9375 0.0000
0.1125 0.9625 0.0000
0.0375 0.8875 0.0000
0.1187 1.0000 0.0000
0.0000 0.8812 0.0000
0.1187 0.9938 0.0000
0.0063 0.8812 0.0000
0.1187 0.9875 0.0000
0.0813 0.9125 0.0000
0.0125 0.8812 0.0000
0.0875 0.9187 0.0000
0.0938 0.9250 0.0000
0.0750 0.9062 0.0000
0.1187 0.9812 0.0000
0.1062 0.9437 0.0000
0.0187 0.8812 0.0000
0.0563 0.8938 0.0000
0.1125 0.9563 0.0000
0.0437 0.8875 0.0000
0.0688 0.9000 0.0000
0.1187 0.9750 0.0000
0.1000 0.9313 0.0000
0.0250 0.8812 0.0000
0.1187 0.9688 0.0000
0.0312 0.8812 0.0000
0.1125 0.9500 0.0000
0.0500 0.8875 0.0000
0.0625 0.8938 0.0000
0.1062 0.9375 0.0000
0.0875 0.9125 0.0000
0.0813 0.9062 0.0000
0.0938 0.9187 0.0000
0.1187 0.9625 0.0000
0.0375 0.8812 0.0000
0.0000 0.8750 0.0000
0.1250 1.0000 0.0000
0.0750 0.9000 0.0000
0.1000 0.9250 0.0000
0.1250 0.9938 0.0000
0.0063 0.8750 0.0000
0.1250 0.9875 0.0000
0.0125 0.8750 0.0000
0.1125 0.9437 0.0000
0.0563 0.8875 0.0000
0.1250 0.9812 0.0000
0.0187 0.8750 0.0000
0.0688 0.8938 0.0000
0.1062 0.9313 0.0000
0.1187 0.9563 0.0000
0.0437 0.8812 0.0000
0.1250 0.9750 0.0000
0.0250 0.8750 0.0000
0.0938 0.9125 0.0000
0.0875 0.9062 0.0000
0.0625 0.8875 0.0000
0.1125 0.9375 0.0000
0.1250 0.9688 0.0000
0.0500 0.8812 0.0000
0.1187 0.9500 0.0000
0.0813 0.9000 0.0000
0.0312 0.8750 0.0000
0.1000 0.9187 0.0000
0.1062 0.9250 0.0000
0.0750 0.8938 0.0000
0.1250 0.9625 0.0000
0.0375 0.8750 0.0000
0.0000 0.8688 0.0000
0.1313 1.0000 0.0000
0.1187 0.9437 0.0000
0.0063 0.8688 0.0000
0.1313 0.9938 0.0000
0.0563 0.8812 0.0000
0.1125 0.9313 0.0000
0.0125 0.8688 0.0000
0.0688 0.8875 0.0000
0.1313 0.9875 0.0000
0.1250 0.9563 0.0000
0.0437 0.8750 0.0000
0.0938 0.9062 0.0000
0.0187 0.8688 0.0000
0.1313 0.9812 0.0000
0.1000 0.9125 0.0000
0.0875 0.9000 0.0000
0.0250 0.8688 0.0000
0.1313 0.9750 0.0000
0.0813 0.8938 0.0000
0.1062 0.9187 0.0000
0.0625 0.8812 0.0000
0.1187 0.9375 0.0000
0.1250 0.9500 0.0000
0.0500 0.8750 0.0000
0.0312 0.8688 0.0000
0.1313 0.9688 0.0000
0.1125 0.9250 0.0000
0.0750 0.8875 0.0000
0.0375 0.8688 0.0000
0.1313 0.9625 0.0000
0.1250 0.9437 0.0000
0.1000 0.9062 0.0000
0.0938 0.9000 0.0000
0.0563 0.8750 0.0000
0.0688 0.8812 0.0000
0.1187 0.9313 0.0000
0.0000 0.8625 0.0000
0.1375 1.0000 0.0000
0.0063 0.8625 0.0000
0.1375 0.9938 0.0000
0.1062 0.9125 0.0000
0.0875 0.8938 0.0000
0.0125 0.8625 0.0000
0.1375 0.9875 0.0000
0.1313 0.9563 0.0000
0.0437 0.8688 0.0000
0.0187 0.8625 0.0000
0.1375 0.9812 0.0000
0.1125 0.9187 0.0000
0.0813 0.8875 0.0000
0.0250 0.8625 0.0000
0.1375 0.9750 0.0000
0.0625 0.8750 0.0000
0.1250 0.9375 0.0000
0.1187 0.9250 0.0000
0.0500 0.8688 0.0000
0.1313 0.9500 0.0000
0.0750 0.8812 0.0000
0.0312 0.8625 0.0000
0.1375 0.9688 0.0000
0.1000 0.9000 0.0000
0.0938 0.8938 0.0000
0.1062 0.9062 0.0000
0.0375 0.8625 0.0000
0.1375 0.9625 0.0000
0.1125 0.9125 0.0000
0.0875 0.8875 0.0000
0.1250 0.9313 0.0000
0.0688 0.8750 0.0000
0.0563 0.8688 0.0000
0.1313 0.9437 0.0000
0.0000 0.8562 0.0000
0.1437 1.0000 0.0000
0.1437 0.9938 0.0000
0.0813 0.8812 0.0000
0.0063 0.8562 0.0000
0.1187 0.9187 0.0000
0.1437 0.9875 0.0000
0.0437 0.8625 0.0000
0.1375 0.9563 0.0000
0.0125 0.8562 0.0000
0.1437 0.9812 0.0000
0.0187 0.8562 0.0000
0.0625 0.8688 0.0000
0.1313 0.9375 0.0000
0.1250 0.9250 0.0000
0.0750 0.8750 0.0000
0.1437 0.9750 0.0000
0.0250 0.8562 0.0000
0.1062 0.9000 0.0000
0.1000 0.8938 0.0000
0.0500 0.8625 0.0000
0.1375 0.9500 0.0000
0.1125 0.9062 0.0000
0.0938 0.8875 0.0000
0.1437 0.9688 0.0000
0.0312 0.8562 0.0000
[...]
         <PointData>
            <DataArray Name="fValues" NumberOfComponents="1" format="ascii" type="Float64">
 3.64537e-03 
 3.64610e-03 
 3.64610e-03 
 3.64634e-03 
 3.64839e-03 
 3.64839e-03 
 3.64694e-03 
 3.64695e-03 
 3.64684e-03 
 3.65145e-03 
 3.65143e-03 
 3.64739e-03 
 3.64740e-03 
 3.64980e-03 
 3.64991e-03 
 3.65303e-03 
 3.65312e-03 
 3.64912e-03 
 3.64932e-03 
 3.66429e-03 
 3.66154e-03 
 3.66233e-03 
 3.65231e-03 
 3.65219e-03 
 3.69941e-03 
 3.69835e-03 
 3.65629e-03 
 3.65528e-03 
 3.69283e-03 
 3.68983e-03 
 3.76856e-03 
 3.76244e-03 
 3.76688e-03 
 3.65153e-03 
 3.65195e-03 
 3.67110e-03 
 3.67449e-03 
 3.74285e-03 
 3.75112e-03 
 3.88519e-03 
 3.88116e-03 
 3.87850e-03 
 3.86643e-03 
 3.66095e-03 
 3.65797e-03 
 4.05904e-03 
 3.71357e-03 
 3.70451e-03 
 4.04783e-03 
 4.06101e-03 
 3.84779e-03 
 3.82919e-03 
 4.04524e-03 
 4.01908e-03 
 4.29918e-03 
 4.30900e-03 
 3.68334e-03 
 3.69374e-03 
 4.30693e-03 
 3.76639e-03 
 4.27724e-03 
 3.78705e-03 
 3.95835e-03 
 3.99478e-03 
 4.63285e-03 
 4.22855e-03 
 4.27742e-03 
 4.61403e-03 
 4.64150e-03 
 4.57639e-03 
 4.63173e-03 
 3.77027e-03 
 3.74309e-03 
 3.87027e-03 
 3.91224e-03 
 4.14107e-03 
 5.04071e-03 
 5.05863e-03 
 4.20557e-03 
 5.00972e-03 
 5.06397e-03 
 4.58503e-03 
 4.50304e-03 
 4.95138e-03 
 5.04239e-03 
 5.56612e-03 
 3.91501e-03 
 3.85543e-03 
 5.53811e-03 
 5.58269e-03 
 4.03183e-03 
 4.10967e-03 
 4.38941e-03 
 4.49511e-03 
 5.49077e-03 
 5.58087e-03 
 4.85133e-03 
 4.97796e-03 
 6.16921e-03 
 6.19529e-03 
 5.40822e-03 
 5.54442e-03 
 6.12856e-03 
 6.20745e-03 
 4.04028e-03 
 4.15585e-03 
 4.26827e-03 
 4.40229e-03 
 4.71662e-03 
 6.06101e-03 
 4.87939e-03 
 6.19406e-03 
 6.90689e-03 
 5.28304e-03 
 6.87085e-03 
 5.46595e-03 
 6.92901e-03 
 6.81436e-03 
 6.93191e-03 
 5.95332e-03 
 6.14208e-03 
 4.52278e-03 
 4.31846e-03 
 4.81449e-03 
 7.72033e-03 
 4.59771e-03 
 7.75065e-03 
 6.72430e-03 
 6.90323e-03 
 5.37486e-03 
 5.13690e-03 
 7.67247e-03 
 7.76405e-03 
 6.05827e-03 
 5.80867e-03 
 7.59748e-03 
 7.75204e-03 
 6.83836e-03 
 6.59391e-03 
 8.67538e-03 
 8.63671e-03 
 8.69559e-03 
 7.70605e-03 
 4.71093e-03 
 5.04651e-03 
 7.48510e-03 
 8.69357e-03 
 5.03864e-03 
 8.57484e-03 
 5.37085e-03 
 5.66506e-03 
 5.99754e-03 
 6.43954e-03 
 6.76324e-03 
 8.66122e-03 
 8.48024e-03 
 9.70445e-03 
 9.72988e-03 
 9.65624e-03 
 9.73280e-03 
 7.33811e-03 
 7.63481e-03 
 9.70760e-03 
 9.57879e-03 
 8.34874e-03 
 8.59830e-03 
 5.75696e-03 
 5.23832e-03 
 5.60950e-03 
 6.09490e-03 
 6.31627e-03 
 6.76208e-03 
 1.08686e-02 
 1.08735e-02 
 1.08380e-02 
 9.46573e-03 
 7.18766e-03 
 7.58757e-03 
 9.65052e-03 
 1.08499e-02 
 1.07789e-02 
 8.19496e-03 
 8.53119e-03 
 1.06858e-02 
 1.07936e-02 
 9.32161e-03 
 1.21180e-02 
 9.57386e-03 
 1.21124e-02 
 1.20921e-02 
 6.68155e-03 
 5.92051e-03 
 1.20758e-02 
 6.32831e-03 
 7.00767e-03 
 7.10580e-03 
 7.68068e-03 
 1.05581e-02 
 1.07090e-02 
 1.20050e-02 
 1.20316e-02 
 8.06554e-03 
 8.53566e-03 
 9.17431e-03 
 9.52512e-03 
 1.34676e-02 
 1.34375e-02 
 1.34610e-02 
 1.18982e-02 
 1.19367e-02 
 1.04112e-02 
 1.06246e-02 
 1.34176e-02 
 1.33689e-02 
 7.84348e-03 
 6.77639e-03 
 8.12615e-03 
 7.21249e-03 
 8.76191e-03 
 8.04877e-03 
 1.33359e-02 
 1.32604e-02 
 1.17628e-02 
 1.18239e-02 
 9.60877e-03 
 1.49226e-02 
 1.48881e-02 
 9.08601e-03 
 1.49144e-02 
 1.48092e-02 
 1.06116e-02 
 1.02868e-02 
 1.32198e-02 
 1.31208e-02 
 1.48640e-02 
 1.46844e-02 
 1.17404e-02 
 1.16259e-02 
 1.64450e-02 
 9.25973e-03 
 1.47739e-02 
 7.82369e-03 
 1.45176e-02 
 8.27865e-03 
 1.64834e-02 
 1.63555e-02 
 9.46162e-03 
 1.29809e-02 
 1.30863e-02 
 9.16003e-03 
 1.00095e-02 
 1.62128e-02 
 1.64729e-02 
 1.02621e-02 
 1.08043e-02 
 1.15435e-02 
 1.43283e-02 
 1.46553e-02 
 1.17829e-02 
 1.64166e-02 
 1.60181e-02 
 1.81092e-02 
 1.80099e-02 
 1.29752e-02 
 1.29091e-02 
 1.81503e-02 
 1.78494e-02 
 1.57832e-02 
 1.63226e-02 
 1.09389e-02 
 9.07901e-03 
 9.54254e-03 
 1.76268e-02 
 1.45363e-02 
 1.41645e-02 
 1.10179e-02 
 1.81375e-02 
 1.04540e-02 
 1.14211e-02 
 1.16068e-02 
 1.21150e-02 
 1.80780e-02 
 1.73488e-02 
 1.62112e-02 
 1.55411e-02 
 1.97740e-02 
 1.98815e-02 
 1.29560e-02 
 1.95971e-02 
 1.30277e-02 
 1.93479e-02 
 1.99245e-02 
 1.44690e-02 
 1.41166e-02 
 1.70376e-02 
 1.79872e-02 
 1.90294e-02 
 1.99105e-02 
 1.61215e-02 
 1.53584e-02 
 1.05577e-02 
 1.28792e-02 
 1.10190e-02 
 1.27896e-02 
 1.19447e-02 
 2.14584e-02 
 1.29872e-02 
 2.16495e-02 
 2.17633e-02 
 2.11852e-02 
 1.31330e-02 
 1.98526e-02 
 1.35284e-02 
 1.86560e-02 
 1.78949e-02 
 1.67416e-02 
 2.08295e-02 
 1.45363e-02 
 2.18079e-02 
 1.43316e-02 
 1.61183e-02 
 1.53472e-02 
 1.97741e-02 
 1.82624e-02 
 2.03999e-02 
 2.17955e-02 
 2.34358e-02 
 2.31420e-02 
 2.36379e-02 
 1.78517e-02 
 1.65462e-02 
 1.50655e-02 
 1.22740e-02 
 2.27532e-02 
 2.37565e-02 
 1.27220e-02 
 1.47600e-02 
 1.36455e-02 
 1.46897e-02 
 2.17458e-02 
 1.99209e-02 
 1.48537e-02 
 1.50262e-02 
 2.22736e-02 
 2.38037e-02 
 1.97150e-02 
 1.79132e-02 
 1.62963e-02 
 1.56770e-02 
 2.55315e-02 
 2.52215e-02 
 2.17195e-02 
 2.37975e-02 
 1.79343e-02 
 1.94410e-02 
 2.16910e-02 
 2.48049e-02 
 1.65841e-02 
 2.57416e-02 
 2.58642e-02 
 2.42816e-02 
 1.97372e-02 
 1.77123e-02 
 1.74673e-02 
 1.42410e-02 
 2.37648e-02 
 1.68995e-02 
 1.46645e-02 
 2.11273e-02 
 2.59166e-02 
 1.65015e-02 
 2.36622e-02 
 1.55692e-02 
 2.16813e-02 
 1.90414e-02 
 2.74267e-02 
 1.65844e-02 
 1.67813e-02 
 2.77482e-02 
 2.69883e-02 
 1.70431e-02 
 1.82482e-02 
 2.64287e-02 
 2.79637e-02 
 2.29729e-02 
 2.59230e-02 
 2.37470e-02 
 2.05602e-02 
 1.78101e-02 
 1.99285e-02 
 2.80909e-02 
 2.57533e-02 
 1.88428e-02 
 2.17893e-02 
 2.59180e-02 
 2.97610e-02 
 2.93074e-02 
 2.22637e-02 
 2.49809e-02 
 2.81529e-02 
 2.00368e-02 
 1.64709e-02 
 1.91644e-02 
 1.68588e-02 
 3.00889e-02 
 2.87197e-02 
 1.83855e-02 
 1.77281e-02 
 2.38042e-02 
 2.01154e-02 
 1.81733e-02 
 1.89280e-02 
 3.03082e-02 
 2.79978e-02 
 1.84073e-02 
 2.04041e-02 
 2.41509e-02 
 2.81801e-02 
 3.04426e-02 
 2.16128e-02 
 2.59522e-02 
 2.71556e-02 
 1.90088e-02 
 2.21129e-02 
 3.17668e-02 
 3.11598e-02 
 3.22275e-02 
 1.99276e-02 
 2.40194e-02 
 3.25576e-02 
 3.04011e-02 
 3.05203e-02 
 2.62227e-02 
 2.33265e-02 
 2.82153e-02 
 2.27069e-02 
 1.89749e-02 
 1.93163e-02 
 2.95022e-02 
 2.14952e-02 
 3.27813e-02 
 2.01339e-02 
 2.11314e-02 
 2.60952e-02 
 2.02944e-02 
 2.13057e-02 
 1.97575e-02 
 2.52520e-02 
 3.05784e-02 
 3.29272e-02 
 2.84830e-02 
 2.27760e-02 
 1.97455e-02 
 3.43699e-02 
 3.37549e-02 
 2.25990e-02 
 2.83175e-02 
 3.48298e-02 
 3.29698e-02 
 2.44996e-02 
 2.01670e-02 
 3.51600e-02 
 3.20257e-02 
 3.30287e-02 
 2.73874e-02 
 2.43174e-02 
 2.64395e-02 
 2.09619e-02 
 3.06672e-02 
 3.53909e-02 
 3.09382e-02 
 2.17632e-02 
 2.53876e-02 
 2.20475e-02 
 2.38157e-02 
 2.85660e-02 
 3.65100e-02 
 2.20906e-02 
 3.71196e-02 
 2.27977e-02 
 2.21715e-02 
 3.57125e-02 
 2.62808e-02 
 3.31287e-02 
 2.39259e-02 
 3.55548e-02 
 2.97352e-02 
 2.12980e-02 
 3.47324e-02 
 3.75725e-02 
 2.53756e-02 
 2.10342e-02 
 2.35259e-02 
 3.08546e-02 
 3.79040e-02 
 3.35939e-02 
 2.71003e-02 
 2.12742e-02 
 2.84853e-02 
 3.56888e-02 
 2.52473e-02 
 3.23062e-02 
 3.32855e-02 
 3.81477e-02 
 2.90617e-02 
 2.19462e-02 
 3.94269e-02 
 3.86384e-02 
 3.76342e-02 
 4.00182e-02 
 2.79699e-02 
 2.48451e-02 
 4.04629e-02 
 3.12286e-02 
 2.30006e-02 
 3.64518e-02 
 2.60351e-02 
 2.50624e-02 
 3.09245e-02 
 3.83368e-02 
 2.57299e-02 
 2.39519e-02 
 3.58426e-02 
 2.72469e-02 
 2.27527e-02 
 2.67996e-02 
 3.51141e-02 
 4.08013e-02 
 3.35756e-02 
 2.44075e-02 
 2.82145e-02 
 2.22510e-02 
 4.17509e-02 
 2.99270e-02 
 2.95332e-02 
 4.07503e-02 
 3.85128e-02 
 2.23235e-02 
 4.25034e-02 
 3.36086e-02 
 4.10645e-02 
 4.30699e-02 
 3.95204e-02 
 3.60823e-02 
 2.61437e-02 
 2.28889e-02 
 3.18980e-02 
 3.81519e-02 
 4.35135e-02 
 4.12861e-02 
 3.20917e-02 
 3.40953e-02 
 2.38835e-02 
 3.03264e-02 
 2.82293e-02 
 3.87322e-02 
 2.81725e-02 
 2.83699e-02 
 2.80501e-02 
 3.65870e-02 
 2.89404e-02 
 4.38668e-02 
 2.55653e-02 
 2.99373e-02 
 2.40789e-02 
 4.50411e-02 
 4.40957e-02 
 3.64928e-02 
 4.28357e-02 
 4.57377e-02 
 2.52584e-02 
 3.13036e-02 
 2.33762e-02 
 4.15129e-02 
 4.13955e-02 
 3.05195e-02 
 4.62881e-02 
 4.41554e-02 
 3.48721e-02 
 3.29913e-02 
 2.33150e-02 
 3.90696e-02 
 2.70292e-02 
 3.98765e-02 
 4.67427e-02 
 3.49604e-02 
 2.37982e-02 
 4.44153e-02 
 3.32825e-02 
 4.76554e-02 
 4.84914e-02 
 4.64518e-02 
 3.71783e-02 
 4.71172e-02 
 2.91589e-02 
 4.18097e-02 
 3.79639e-02 
 2.47742e-02 
 3.23115e-02 
 3.19228e-02 
 2.97462e-02 
 3.19781e-02 
 4.48850e-02 
 4.91400e-02 
 2.69375e-02 
 3.24382e-02 
 2.52367e-02 
 3.33490e-02 
 3.96183e-02 
 4.96966e-02 
 4.33558e-02 
 2.61485e-02 
 2.43910e-02 
 3.46538e-02 
 4.74342e-02 
 3.62825e-02 
 4.47011e-02 
 3.14685e-02 
 2.42532e-02 
 3.63043e-02 
 5.01720e-02 
 4.16027e-02 
 4.22597e-02 
 2.78531e-02 
 5.13777e-02 
 5.03689e-02 
 2.47095e-02 
 3.82606e-02 
 4.87725e-02 
 5.20994e-02 
 4.77365e-02 
 3.42718e-02 
 5.05684e-02 
 3.92806e-02 
 4.69431e-02 
 5.27414e-02 
 4.50868e-02 
 3.01749e-02 
 2.56542e-02 
 4.04894e-02 
 3.59330e-02 
 3.37735e-02 
 3.58948e-02 
 3.10073e-02 
 5.33256e-02 
 4.56001e-02 
 3.62319e-02 
 2.79947e-02 
 3.70440e-02 
 2.71443e-02 
 4.29642e-02 
 2.61855e-02 
 5.09129e-02 
 3.79385e-02 
 4.80889e-02 
 3.28891e-02 
 3.82750e-02 
 2.52950e-02 
 5.44723e-02 
 5.38215e-02 
 4.29635e-02 
 5.31606e-02 
 5.52215e-02 
 5.09641e-02 
 5.59042e-02 
 3.98770e-02 
 2.51182e-02 
 2.89775e-02 
 4.56645e-02 
 5.65897e-02 
 4.93536e-02 
 4.18098e-02 
 5.12602e-02 
 2.56457e-02 
 3.68228e-02 
 5.42325e-02 
 4.18324e-02 
 3.29374e-02 
 4.85751e-02 
 5.72029e-02 
 4.78567e-02 
 4.40403e-02 
 2.67389e-02 
 4.02685e-02 
 3.45704e-02 
 5.78569e-02 
 5.86143e-02 
 4.01272e-02 
 3.17222e-02 
 4.03291e-02 
 5.46007e-02 
 5.58694e-02 
 4.94622e-02 
 2.86684e-02 
 5.92310e-02 
 4.65422e-02 
 2.92176e-02 
 4.76152e-02 
 4.10311e-02 
 5.16868e-02 
 4.89759e-02 
 5.77037e-02 
 2.68819e-02 
 5.31043e-02 
 5.99863e-02 
 4.21771e-02 
 2.60648e-02 
 4.92954e-02 
 4.20690e-02 
 6.07288e-02 
 5.30664e-02 
 4.37196e-02 
 2.60072e-02 
 5.81165e-02 
 7.36006e-02 
 5.49957e-02 
 6.94121e-02 
 4.56189e-02 
 2.67734e-02 
 6.13425e-02 
 6.75846e-02 
 6.24564e-02 
 6.19736e-02 
 6.14539e-02 
 5.22856e-02 
 6.28165e-02 
 4.78423e-02 
 6.35508e-02 
 5.81013e-02 
 3.48302e-02 
 7.67489e-02 
 5.85047e-02 
 3.45804e-02 
 4.49304e-02 
 6.44245e-02 
 6.03694e-02 
 3.18024e-02 
 6.18215e-02 
 4.46807e-02 
 8.77420e-02 
 2.88747e-02 
 4.47372e-02 
 5.03637e-02 
 5.55049e-02 
 7.29553e-02 
 5.38714e-02 
 2.73011e-02 
 4.53183e-02 
 9.35964e-02 
 6.51748e-02 
 2.67004e-02 
 4.63688e-02 
 5.31637e-02 
 6.80275e-02 
 8.88262e-02 
 2.84882e-02 
 6.22235e-02 
 6.69156e-02 
 4.78419e-02 
 6.68573e-02 
 5.89515e-02 
 7.86320e-02 
 6.73498e-02 
 6.44345e-02 
 6.57393e-02 
 9.22600e-02 
 4.96984e-02 
 4.41964e-02 
 6.83308e-02 
 7.72142e-02 
 5.62292e-02 
 7.06377e-02 
 1.08997e-01 
 5.19060e-02 
 6.92400e-02 
 6.19031e-02 
 6.26305e-02 
 3.77477e-02 
 7.82923e-02 
 6.61707e-02 
 4.99243e-02 
 3.37448e-02 
 3.11675e-02 
 5.95536e-02 
 4.95601e-02 
 2.61595e-02 
 7.22456e-02 
 5.44395e-02 
 2.85644e-02 
 4.94622e-02 
 6.99072e-02 
 1.07820e-01 
 7.17892e-02 
 2.74244e-02 
 4.99130e-02 
 7.11974e-02 
 7.15657e-02 
 1.02659e-01 
 7.25189e-02 
 3.23158e-02 
 5.08586e-02 
 6.65549e-02 
-3.45282e-03 
 3.14960e-02 
 5.72803e-02 
 6.31366e-02 
 2.27017e-02 
 7.03762e-02 
-7.59637e-03 
 5.20918e-02 
 5.22532e-02 
 7.35988e-02 
 1.09673e-01 
 7.18880e-02 
 5.40581e-02 
-4.95939e-03 
 7.43799e-02 
 1.05384e-01 
 6.04164e-02 
 7.07462e-02 
-1.76620e-02 
 5.12783e-02 
 6.69854e-02 
 5.62419e-02 
-1.91459e-02 
 7.68046e-02 
 7.97793e-02 
 7.71940e-02 
 1.25596e-01 
-1.04872e-02 
 7.48841e-02 
-1.75854e-02 
 6.38425e-02 
 3.21147e-02 
 5.52537e-02 
 6.13595e-03 
 5.47699e-02 
 2.98202e-02 
 1.20423e-01 
 5.87803e-02 
 7.83518e-02 
 5.45096e-02 
 2.78986e-02 
 5.48219e-02 
 3.61216e-02 
 7.11148e-02 
 7.92349e-02 
 4.80107e-02 
-2.84761e-02 
 5.56543e-02 
 7.52365e-02 
-2.68208e-02 
 5.82435e-02 
-1.36664e-02 
 6.16556e-02 
-2.70394e-02 
 6.75601e-02 
 5.69619e-02 
 7.39175e-02 
-2.12447e-02 
 7.97553e-02 
 9.52047e-02 
 5.87072e-02 
 2.93267e-02 
 8.31010e-02 
 1.39728e-01 
-2.33211e-02 
 6.48573e-02 
 7.55479e-02 
 8.36939e-02 
-3.67646e-02 
 1.46224e-01 
-3.53189e-02 
 7.15776e-02 
 6.08597e-02 
-6.03907e-03 
 8.00700e-02 
-3.53341e-02 
-9.08534e-04 
 8.45708e-02 
-3.18628e-02 
 6.83815e-02 
 6.33959e-02 
-1.76479e-02 
 6.09212e-02 
 3.02250e-02 
 8.50647e-02 
 6.03136e-02 
-2.93889e-02 
 2.84439e-02 
 5.98843e-02 
 3.74105e-02 
-4.24709e-02 
 7.59112e-02 
 8.03160e-02 
-4.40377e-02 
 6.00512e-02 
 6.00347e-02 
 6.07630e-02 
 6.62998e-02 
 7.22312e-02 
-3.91721e-02 
 1.19397e-01 
 1.46469e-01 
-2.66627e-02 
 6.51418e-02 
-4.30733e-02 
 8.53023e-02 
 9.01948e-02 
 1.49923e-01 
 6.19763e-02 
 1.78042e-02 
 9.04642e-02 
-1.76514e-02 
-3.42950e-02 
 6.95622e-02 
 6.36545e-02 
-4.86981e-02 
 8.05840e-02 
-1.02199e-02 
-3.71422e-02 
 9.08695e-02 
 8.54578e-02 
-5.02142e-02 
 7.64166e-02 
-4.54777e-02 
 6.57683e-02 
-1.97558e-02 
 7.31805e-02 
-4.97143e-02 
 9.09897e-02 
-4.07469e-02 
 1.45826e-01 
 6.82959e-02 
-2.78464e-02 
 1.13341e-01 
 1.45287e-01 
 8.56271e-02 
-5.42946e-02 
 3.43119e-02 
 6.69284e-02 
-5.09497e-02 
 3.79436e-02 
 6.61940e-02 
 8.09553e-02 
 9.67735e-02 
 5.41520e-02 
 6.55905e-02 
-2.58933e-02 
 5.00815e-02 
 6.56062e-02 
 9.10179e-02 
-5.58685e-02 
 7.71599e-02 
-4.61771e-02 
 7.12227e-02 
-4.48028e-02 
 9.70792e-02 
-3.45765e-02 
 9.68272e-03 
 6.61913e-02 
-1.13237e-02 
 6.73036e-02 
-5.53136e-02 
 9.71466e-02 
-5.55630e-02 
 8.58713e-02 
 7.45404e-02 
-5.91953e-02 
 9.10738e-02 
-4.01340e-02 
 6.89081e-02 
-1.97658e-02 
 8.15128e-02 
-5.06199e-02 
 4.31072e-02 
 1.56561e-01 
 9.70364e-02 
-6.10549e-02 
-3.22265e-02 
 1.67846e-01 
-2.69644e-02 
 7.09768e-02 
 7.82488e-02 
-4.46248e-02 
-5.16888e-02 
 1.03076e-01 
-5.94123e-02 
 9.11948e-02 
 8.62591e-02 
-3.28479e-02 
 7.34897e-02 
-5.42435e-02 
-6.34118e-02 
 9.69570e-02 
 7.32762e-02 
 3.88409e-02 
 1.03631e-01 
-6.04666e-02 
 7.24130e-02 
 4.18539e-02 
 7.16318e-02 
 3.16991e-02 
 8.23554e-02 
-4.83360e-02 
 7.14918e-02 
 3.22742e-03 
-3.76852e-02 
 7.64332e-02 
 7.19450e-02 
 1.03522e-01 
-6.56902e-02 
-1.04194e-02 
 9.14254e-02 
-5.72996e-02 
-6.26597e-02 
 7.29508e-02 
-1.52174e-03 
-1.78647e-02 
 9.69591e-02 
 1.88680e-01 
-3.77127e-02 
-4.18450e-02 
 7.98011e-02 
-5.70516e-02 
 8.68754e-02 
 1.85077e-01 
-5.15919e-02 
 7.44753e-02 
-6.70849e-02 
 1.03316e-01 
-2.43435e-02 
 1.09971e-01 
-6.52981e-02 
 7.64933e-02 
-2.98230e-02 
-4.56253e-02 
 8.35953e-02 
 9.70446e-02 
-5.99763e-02 
 1.10428e-01 
-6.97274e-02 
 9.18323e-02 
-6.54220e-02 
-5.45357e-02 
 1.03199e-01 
 7.89855e-02 
-3.47149e-02 
 2.29792e-02 
 7.99640e-02 
 7.89722e-02 
 8.08651e-03 
 7.80115e-02 
-4.90853e-02 
-7.03234e-02 
 8.78258e-02 
-2.13499e-03 
 1.10203e-01 
-1.43733e-02 
-4.35826e-02 
 7.77125e-02 
-6.14156e-02 
 2.16113e-01 
-8.11911e-03 
 8.19398e-02 
-3.92558e-02 
 7.80296e-02 
-1.47436e-02 
-6.23766e-02 
 1.03155e-01 
-6.97571e-02 
 1.99565e-01 
 9.72578e-02 
-5.72079e-02 
 7.89238e-02 
-2.10576e-02 
-6.78296e-02 
 1.09955e-01 
 1.17862e-01 
 8.53525e-02 
-5.22275e-02 
 9.25115e-02 
-7.33040e-02 
-4.34325e-02 
 8.03637e-02 
-2.68949e-02 
-7.31073e-02 
 1.17746e-01 
 1.03191e-01 
 8.23254e-02 
-3.23467e-02 
-5.96259e-02 
 8.92277e-02 
-4.72360e-02 
 1.09799e-01 
-6.45507e-02 
-4.99153e-02 
-5.50706e-02 
 9.76805e-02 
-6.55680e-02 
-2.00693e-02 
 8.47910e-02 
-7.38960e-02 
 2.36330e-01 
-3.74047e-02 
-6.99919e-02 
 1.17343e-01 
 9.35781e-02 
-1.13861e-03 
 8.69952e-02 
-5.06843e-02 
-2.23900e-03 
 8.58737e-02 
 2.12235e-01 
-7.67024e-02 
-5.85193e-03 
 8.47320e-02 
 8.77506e-02 
-4.20491e-02 
-1.17170e-02 
 8.42719e-02 
 1.09679e-01 
-6.18045e-02 
-5.76300e-02 
 1.03371e-01 
 1.26608e-01 
-7.55303e-02 
-1.83459e-02 
 1.17036e-01 
-6.65238e-02 
 8.44499e-02 
-2.48314e-02 
 8.52287e-02 
 9.84261e-02 
-5.37807e-02 
 9.12027e-02 
-4.62726e-02 
-7.19478e-02 
 1.25675e-01 
-3.09181e-02 
-6.98932e-02 
 8.65797e-02 
-5.59215e-02 
-7.76679e-02 
-2.44002e-02 
-5.99077e-02 
 1.09633e-01 
 1.16780e-01 
-6.37608e-02 
 9.51537e-02 
 2.51405e-01 
-5.00646e-02 
-7.99973e-02 
-3.65391e-02 
 8.84800e-02 
 1.03805e-01 
-5.65238e-02 
-6.83149e-02 
 1.24993e-01 
-7.78012e-02 
 2.22651e-01 
-4.16734e-02 
 9.09135e-02 
 9.96188e-02 
-5.34261e-02 
 9.43675e-02 
-2.87271e-03 
 9.31175e-02 
 1.35783e-01 
-4.84458e-03 
-6.19088e-02 
-7.37381e-02 
 1.16525e-01 
 9.17956e-02 
-9.79406e-03 
 1.24564e-01 
-4.63092e-02 
 9.38730e-02 
 1.09761e-01 
-5.89239e-02 
-6.55070e-02 
 9.11738e-02 
-1.64658e-02 
-7.42639e-02 
 9.12102e-02 
-8.10545e-02 
-2.35520e-02 
-6.09895e-02 
-6.99416e-02 
 1.34075e-01 
 1.04624e-01 
-5.63716e-02 
-2.77512e-02 
-8.30131e-02 
 9.18711e-02 
-5.04435e-02 
-3.03333e-02 
 9.73590e-02 
-8.00123e-02 
 2.63260e-01 
 9.31293e-02 
-3.65834e-02 
-6.36472e-02 
 1.24120e-01 
 1.16353e-01 
-6.09961e-02 
 1.33141e-01 
-6.70539e-02 
-7.54386e-02 
-5.40848e-02 
 1.01380e-01 
 2.32034e-01 
 1.10206e-01 
-5.89173e-02 
 9.49632e-02 
-4.22511e-02 
 1.45099e-01 
 9.73598e-02 
-4.73309e-02 
-7.14307e-02 
 1.05955e-01 
-5.72476e-02 
-7.84157e-02 
-8.42290e-02 
 1.23656e-01 
-6.27564e-02 
-6.51411e-02 
-6.51102e-02 
-8.56127e-02 
 1.32499e-01 
 1.02080e-01 
-5.79629e-03 
 1.16418e-01 
-6.10799e-02 
-8.64107e-03 
 1.00704e-01 
-1.47858e-02 
 1.00314e-01 
 9.92045e-02 
-8.20862e-02 
-3.03170e-02 
-5.18327e-02 
-2.22124e-02 
 9.84208e-02 
 1.42824e-01 
-6.84184e-02 
 9.83149e-02 
-2.98019e-02 
-7.70876e-02 
 2.75528e-01 
 1.11110e-01 
-5.99502e-02 
 1.03828e-01 
-5.57727e-02 
 9.88560e-02 
-3.69190e-02 
 1.31759e-01 
-6.42242e-02 
 1.23329e-01 
-6.28792e-02 
-7.28168e-02 
 2.45060e-01 
-6.64106e-02 
 1.41744e-01 
 1.00018e-01 
-4.33394e-02 
 1.07915e-01 
-5.91701e-02 
-6.22148e-02 
 1.16886e-01 
-8.73526e-02 
-4.90311e-02 
-8.22408e-02 
 1.01781e-01 
-8.79016e-02 
 1.54509e-01 
-6.96255e-02 
-8.39333e-02 
-6.85279e-02 
 1.04136e-01 
-5.40208e-02 
 1.31026e-01 
-6.43378e-02 
-7.86500e-02 
 1.40754e-01 
-3.24180e-02 
-6.54220e-02 
 1.12593e-01 
-6.20474e-02 
-6.40647e-02 
 1.23340e-01 
-6.74786e-02 
 1.51977e-01 
 2.90759e-01 
 1.10133e-01 
-1.05966e-02 
-7.41180e-02 
 1.08635e-01 
-1.38775e-02 
 1.07079e-01 
-5.83452e-02 
 1.06961e-01 
-2.07080e-02 
 1.06016e-01 
-2.86826e-02 
 1.17892e-01 
-6.44295e-02 
 1.05769e-01 
-3.66944e-02 
 2.65407e-01 
-7.07018e-02 
 1.39610e-01 
-6.54806e-02 
-6.20408e-02 
 1.10617e-01 
-6.55250e-02 
 1.30547e-01 
 1.50702e-01 
-9.04392e-02 
-6.63750e-02 
 1.06188e-01 
-4.41290e-02 
-9.00820e-02 
-8.55742e-02 
-8.57367e-02 
 1.07250e-01 
-5.07386e-02 
-8.00724e-02 
-7.15361e-02 
 1.23851e-01 
-6.63433e-02 
-6.83712e-02 
 1.63958e-01 
-6.51418e-02 
 1.14762e-01 
-3.42683e-02 
 1.08939e-01 
-5.64831e-02 
-7.53222e-02 
 1.49190e-01 
-6.63347e-02 
-6.66230e-02 
 1.38601e-01 
 1.11248e-01 
-6.14032e-02 
 1.19540e-01 
-6.76810e-02 
 3.09011e-01 
-7.16646e-02 
-6.71107e-02 
 1.61552e-01 
 1.30530e-01 
-6.78168e-02 
 1.18528e-01 
 1.14176e-01 
-1.76174e-02 
-6.55587e-02 
 1.16912e-01 
-9.22634e-02 
-2.08373e-02 
-8.71148e-02 
-9.34200e-02 
 1.15066e-01 
-6.91137e-02 
 2.89156e-01 
-2.77442e-02 
 1.13964e-01 
 1.24980e-01 
-8.13489e-02 
-8.89038e-02 
-6.96906e-02 
-3.59040e-02 
-6.73881e-02 
 1.47606e-01 
 1.59836e-01 
-6.69297e-02 
 1.13575e-01 
-4.41285e-02 
 1.38011e-01 
-7.64069e-02 
-6.88799e-02 
-7.43174e-02 
 1.17731e-01 
-6.90071e-02 
 1.13870e-01 
-5.17666e-02 
 1.73459e-01 
-6.76573e-02 
-3.57899e-02 
-7.25171e-02 
-7.12032e-02 
 1.14829e-01 
 1.31117e-01 
-5.85245e-02 
-7.17995e-02 
 1.21930e-01 
 1.16441e-01 
-6.78521e-02 
 1.57682e-01 
-6.43265e-02 
-6.97262e-02 
 3.29187e-01 
 1.46388e-01 
-6.95645e-02 
 1.71403e-01 
-6.72966e-02 
-8.86506e-02 
-9.44386e-02 
 1.26800e-01 
-7.39813e-02 
 1.18699e-01 
-8.25280e-02 
-9.61868e-02 
-6.92023e-02 
-7.22522e-02 
 1.37999e-01 
-9.17217e-02 
-7.73699e-02 
 3.10271e-01 
-6.80422e-02 