<?xml version="1.0" encoding="utf-8"?>
<VTKFile byte_order="LittleEndian" type="UnstructuredGrid" version="0.1">
   <UnstructuredGrid>
      <Piece NumberOfCells="25088" NumberOfPoints="25425">
         <Points>
            <DataArray Name="Points" NumberOfComponents="3" format="ascii" type="Float32">
0.0000 1.0000 0.0000
0.0000 0.9938 0.0000
0.0063 1.0000 0.0000
0.0063 0.9938 0.0000
0.0125 1.0000 0.0000
0.0000 0.9875 0.0000
0.0063 0.9875 0.0000
0.0125 0.9938 0.0000
0.0125 0.9875 0.0000
0.0187 1.0000 0.0000
0.0000 0.9812 0.0000
0.0187 0.9938 0.0000
0.0063 0.9812 0.0000
0.0187 0.9875 0.0000
0.0125 0.9812 0.0000
0.0000 0.9750 0.0000
0.0250 1.0000 0.0000
0.0250 0.9938 0.0000
0.0063 0.9750 0.0000
0.0187 0.9812 0.0000
0.0250 0.9875 0.0000
0.0125 0.9750 0.0000
0.0312 1.0000 0.0000
0.0000 0.9688 0.0000
0.0187 0.9750 0.0000
0.0250 0.9812 0.0000
0.0063 0.9688 0.0000
0.0312 0.9938 0.0000
0.0125 0.9688 0.0000
0.0312 0.9875 0.0000
0.0250 0.9750 0.0000
0.0312 0.9812 0.0000
0.0187 0.9688 0.0000
0.0375 1.0000 0.0000
0.0000 0.9625 0.0000
0.0375 0.9938 0.0000
0.0063 0.9625 0.0000
0.0375 0.9875 0.0000
0.0125 0.9625 0.0000
0.0250 0.9688 0.0000
0.0312 0.9750 0.0000
0.0187 0.9625 0.0000
0.0375 0.9812 0.0000
0.0000 0.9563 0.0000
0.0437 1.0000 0.0000
0.0312 0.9688 0.0000
0.0063 0.9563 0.0000
0.0437 0.9938 0.0000
0.0375 0.9750 0.0000
0.0250 0.9625 0.0000
0.0125 0.9563 0.0000
0.0437 0.9875 0.0000
0.0187 0.9563 0.0000
0.0437 0.9812 0.0000
0.0375 0.9688 0.0000
0.0312 0.9625 0.0000
0.0500 1.0000 0.0000
0.0000 0.9500 0.0000
0.0250 0.9563 0.0000
0.0500 0.9938 0.0000
0.0437 0.9750 0.0000
0.0063 0.9500 0.0000
0.0500 0.9875 0.0000
0.0125 0.9500 0.0000
0.0375 0.9625 0.0000
0.0500 0.9812 0.0000
0.0187 0.9500 0.0000
0.0437 0.9688 0.0000
0.0312 0.9563 0.0000
0.0500 0.9750 0.0000
0.0250 0.9500 0.0000
0.0000 0.9437 0.0000
0.0563 1.0000 0.0000
0.0563 0.9938 0.0000
0.0063 0.9437 0.0000
0.0563 0.9875 0.0000
0.0437 0.9625 0.0000
0.0375 0.9563 0.0000
0.0125 0.9437 0.0000
0.0500 0.9688 0.0000
0.0312 0.9500 0.0000
0.0187 0.9437 0.0000
0.0563 0.9812 0.0000
0.0563 0.9750 0.0000
0.0250 0.9437 0.0000
0.0437 0.9563 0.0000
0.0000 0.9375 0.0000
0.0625 1.0000 0.0000
0.0500 0.9625 0.0000
0.0375 0.9500 0.0000
0.0625 0.9938 0.0000
0.0063 0.9375 0.0000
0.0625 0.9875 0.0000
0.0125 0.9375 0.0000
0.0563 0.9688 0.0000
0.0312 0.9437 0.0000
0.0625 0.9812 0.0000
0.0187 0.9375 0.0000
0.0500 0.9563 0.0000
0.0437 0.9500 0.0000
0.0625 0.9750 0.0000
0.0250 0.9375 0.0000
0.0563 0.9625 0.0000
0.0375 0.9437 0.0000
0.0688 1.0000 0.0000
0.0000 0.9313 0.0000
0.0688 0.9938 0.0000
0.0063 0.9313 0.0000
0.0688 0.9875 0.0000
0.0625 0.9688 0.0000
0.0125 0.9313 0.0000
0.0312 0.9375 0.0000
0.0500 0.9500 0.0000
0.0688 0.9812 0.0000
0.0563 0.9563 0.0000
0.0187 0.9313 0.0000
0.0437 0.9437 0.0000
0.0625 0.9625 0.0000
0.0375 0.9375 0.0000
0.0688 0.9750 0.0000
0.0250 0.9313 0.0000
0.0000 0.9250 0.0000
0.0750 1.0000 0.0000
0.0063 0.9250 0.0000
0.0563 0.9500 0.0000
0.0750 0.9938 0.0000
0.0500 0.9437 0.0000
0.0688 0.9688 0.0000
0.0312 0.9313 0.0000
0.0125 0.9250 0.0000
0.0750 0.9875 0.0000
0.0625 0.9563 0.0000
0.0437 0.9375 0.0000
0.0187 0.9250 0.0000
0.0750 0.9812 0.0000
0.0688 0.9625 0.0000
0.0375 0.9313 0.0000
0.0250 0.9250 0.0000
0.0750 0.9750 0.0000
0.0563 0.9437 0.0000
0.0625 0.9500 0.0000
0.0500 0.9375 0.0000
0.0312 0.9250 0.0000
0.0813 1.0000 0.0000
0.0000 0.9187 0.0000
0.0750 0.9688 0.0000
0.0437 0.9313 0.0000
0.0813 0.9938 0.0000
0.0688 0.9563 0.0000
0.0063 0.9187 0.0000
0.0813 0.9875 0.0000
0.0125 0.9187 0.0000
0.0813 0.9812 0.0000
0.0187 0.9187 0.0000
0.0375 0.9250 0.0000
0.0750 0.9625 0.0000
0.0625 0.9437 0.0000
0.0563 0.9375 0.0000
0.0688 0.9500 0.0000
0.0500 0.9313 0.0000
0.0813 0.9750 0.0000
0.0250 0.9187 0.0000
0.0437 0.9250 0.0000
0.0750 0.9563 0.0000
0.0813 0.9688 0.0000
0.0312 0.9187 0.0000
0.0000 0.9125 0.0000
0.0875 1.0000 0.0000
0.0875 0.9938 0.0000
0.0063 0.9125 0.0000
0.0875 0.9875 0.0000
0.0125 0.9125 0.0000
0.0625 0.9375 0.0000
0.0563 0.9313 0.0000
0.0688 0.9437 0.0000
0.0813 0.9625 0.0000
0.0875 0.9812 0.0000
0.0187 0.9125 0.0000
0.0375 0.9187 0.0000
0.0500 0.9250 0.0000
0.0750 0.9500 0.0000
0.0875 0.9750 0.0000
0.0250 0.9125 0.0000
0.0813 0.9563 0.0000
0.0437 0.9187 0.0000
0.0875 0.9688 0.0000
0.0625 0.9313 0.0000
0.0312 0.9125 0.0000
0.0688 0.9375 0.0000
0.0563 0.9250 0.0000
0.0000 0.9062 0.0000
0.0938 1.0000 0.0000
0.0750 0.9437 0.0000
0.0938 0.9938 0.0000
0.0063 0.9062 0.0000
0.0938 0.9875 0.0000
0.0125 0.9062 0.0000
0.0875 0.9625 0.0000
0.0375 0.9125 0.0000
0.0813 0.9500 0.0000
0.0500 0.9187 0.0000
0.0938 0.9812 0.0000
0.0187 0.9062 0.0000
0.0938 0.9750 0.0000
0.0250 0.9062 0.0000
0.0688 0.9313 0.0000
0.0625 0.9250 0.0000
0.0750 0.9375 0.0000
0.0875 0.9563 0.0000
0.0437 0.9125 0.0000
0.0938 0.9688 0.0000
0.0312 0.9062 0.0000
0.0813 0.9437 0.0000
0.0563 0.9187 0.0000
0.0000 0.9000 0.0000
0.1000 1.0000 0.0000
0.0063 0.9000 0.0000
0.1000 0.9938 0.0000
0.0125 0.9000 0.0000
0.1000 0.9875 0.0000
0.0875 0.9500 0.0000
0.0500 0.9125 0.0000
0.0938 0.9625 0.0000
0.0375 0.9062 0.0000
0.0187 0.9000 0.0000
0.0750 0.9313 0.0000
0.0688 0.9250 0.0000
0.1000 0.9812 0.0000
0.0813 0.9375 0.0000
0.0625 0.9187 0.0000
0.0250 0.9000 0.0000
0.1000 0.9750 0.0000
0.0938 0.9563 0.0000
0.0437 0.9062 0.0000
0.0875 0.9437 0.0000
0.0563 0.9125 0.0000
0.0312 0.9000 0.0000
0.1000 0.9688 0.0000
0.0750 0.9250 0.0000
0.0000 0.8938 0.0000
0.0938 0.9500 0.0000
0.1062 1.0000 0.0000
0.0500 0.9062 0.0000
0.1062 0.9938 0.0000
0.0813 0.9313 0.0000
0.0688 0.9187 0.0000
0.0063 0.8938 0.0000
0.0375 0.9000 0.0000
0.1000 0.9625 0.0000
0.1062 0.9875 0.0000
0.0125 0.8938 0.0000
0.0625 0.9125 0.0000
0.0875 0.9375 0.0000
0.1062 0.9812 0.0000
0.0187 0.8938 0.0000
0.1062 0.9750 0.0000
0.0437 0.9000 0.0000
0.1000 0.9563 0.0000
0.0250 0.8938 0.0000
0.0938 0.9437 0.0000
0.0563 0.9062 0.0000
0.0813 0.9250 0.0000
0.0750 0.9187 0.0000
0.1062 0.9688 0.0000
0.0312 0.8938 0.0000
0.0875 0.9313 0.0000
0.0688 0.9125 0.0000
0.0500 0.9000 0.0000
0.1000 0.9500 0.0000
0.0000 0.8875 0.0000
0.1125 1.0000 0.0000
0.1125 0.9938 0.0000
0.0625 0.9062 0.0000
0.1062 0.9625 0.0000
0.0375 0.8938 0.0000
0.0063 0.8875 0.0000
0.0938 0.9375 0.0000
0.1125 0.9875 0.0000
0.0125 0.8875 0.0000
0.1125 0.9812 0.0000
0.0187 0.8875 0.0000
0.1000 0.9437 0.0000
0.0563 0.9000 0.0000
0.1062 0.9563 0.0000
0.0437 0.8938 0.0000
0.0813 0.9187 0.0000
0.0875 0.9250 0.0000
0.1125 0.9750 0.0000
0.0750 0.9125 0.0000
0.0250 0.8875 0.0000
0.0688 0.9062 0.0000
0.0938 0.9313 0.0000
0.1125 0.9688 0.0000
0.0312 0.8875 0.0000
0.0500 0.8938 0.0000
0.1062 0.9500 0.0000
0.0625 0.9000 0.0000
0.1000 0.9375 0.0000
0.1125 0.9625 0.0000
0.0375 0.8875 0.0000
0.1187 1.0000 0.0000
0.0000 0.8812 0.0000
0.1187 0.9938 0.0000
0.0063 0.8812 0.0000
0.1187 0.9875 0.0000
0.0813 0.9125 0.0000
0.0125 0.8812 0.0000
0.0875 0.9187 0.0000
0.0938 0.9250 0.0000
0.0750 0.9062 0.0000
0.1187 0.9812 0.0000
0.1062 0.9437 0.0000
0.0187 0.8812 0.0000
0.0563 0.8938 0.0000
0.1125 0.9563 0.0000
0.0437 0.8875 0.0000
0.0688 0.9000 0.0000
0.1187 0.9750 0.0000
0.1000 0.9313 0.0000
0.0250 0.8812 0.0000
0.1187 0.9688 0.0000
0.0312 0.8812 0.0000
0.1125 0.9500 0.0000
0.0500 0.8875 0.0000
0.0625 0.8938 0.0000
0.1062 0.9375 0.0000
0.0875 0.9125 0.0000
0.0813 0.9062 0.0000
0.0938 0.9187 0.0000
0.1187 0.9625 0.0000
0.0375 0.8812 0.0000
0.0000 0.8750 0.0000
0.1250 1.0000 0.0000
0.0750 0.9000 0.0000
0.1000 0.9250 0.0000
0.1250 0.9938 0.0000
0.0063 0.8750 0.0000
0.1250 0.9875 0.0000
0.0125 0.8750 0.0000
0.1125 0.9437 0.0000
0.0563 0.8875 0.0000
0.1250 0.9812 0.0000
0.0187 0.8750 0.0000
0.0688 0.8938 0.0000
0.1062 0.9313 0.0000
0.1187 0.9563 0.0000
0.0437 0.8812 0.0000
0.1250 0.9750 0.0000
0.0250 0.8750 0.0000
0.0938 0.9125 0.0000
0.0875 0.9062 0.0000
0.0625 0.8875 0.0000
0.1125 0.9375 0.0000
0.1250 0.9688 0.0000
0.0500 0.8812 0.0000
0.1187 0.9500 0.0000
0.0813 0.9000 0.0000
0.0312 0.8750 0.0000
0.1000 0.9187 0.0000
0.1062 0.9250 0.0000
0.0750 0.8938 0.0000
0.1250 0.9625 0.0000
0.0375 0.8750 0.0000
0.0000 0.8688 0.0000
0.1313 1.0000 0.0000
0.1187 0.9437 0.0000
0.0063 0.8688 0.0000
0.1313 0.9938 0.0000
0.0563 0.8812 0.0000
0.1125 0.9313 0.0000
0.0125 0.8688 0.0000
0.0688 0.8875 0.0000
0.1313 0.9875 0.0000
0.1250 0.9563 0.0000
0.0437 0.8750 0.0000
0.0938 0.9062 0.0000
0.0187 0.8688 0.0000
0.1313 0.9812 0.0000
0.1000 0.9125 0.0000
0.0875 0.9000 0.0000
0.0250 0.8688 0.0000
0.1313 0.9750 0.0000
0.0813 0.8938 0.0000
0.1062 0.9187 0.0000
0.0625 0.8812 0.0000
0.1187 0.9375 0.0000
0.1250 0.9500 0.0000
0.0500 0.8750 0.0000
0.0312 0.8688 0.0000
0.1313 0.9688 0.0000
0.1125 0.9250 0.0000
0.0750 0.8875 0.0000
0.0375 0.8688 0.0000
0.1313 0.9625 0.0000
0.1250 0.9437 0.0000
0.1000 0.9062 0.0000
0.0938 0.9000 0.0000
0.0563 0.8750 0.0000
0.0688 0.8812 0.0000
0.1187 0.9313 0.0000
0.0000 0.8625 0.0000
0.1375 1.0000 0.0000
0.0063 0.8625 0.0000
0.1375 0.9938 0.0000
0.1062 0.9125 0.0000
0.0875 0.8938 0.0000
0.0125 0.8625 0.0000
0.1375 0.9875 0.0000
0.1313 0.9563 0.0000
0.0437 0.8688 0.0000
0.0187 0.8625 0.0000
0.1375 0.9812 0.0000
0.1125 0.9187 0.0000
0.0813 0.8875 0.0000
0.0250 0.8625 0.0000
0.1375 0.9750 0.0000
0.0625 0.8750 0.0000
0.1250 0.9375 0.0000
0.1187 0.9250 0.0000
0.0500 0.8688 0.0000
0.1313 0.9500 0.0000
0.0750 0.8812 0.0000
0.0312 0.8625 0.0000
0.1375 0.9688 0.0000
0.1000 0.9000 0.0000
0.0938 0.8938 0.0000
0.1062 0.9062 0.0000
0.0375 0.8625 0.0000
0.1375 0.9625 0.0000
0.1125 0.9125 0.0000
0.0875 0.8875 0.0000
0.1250 0.9313 0.0000
0.0688 0.8750 0.0000
0.0563 0.8688 0.0000
0.1313 0.9437 0.0000
0.0000 0.8562 0.0000
0.1437 1.0000 0.0000
0.1437 0.9938 0.0000
0.0813 0.8812 0.0000
0.0063 0.8562 0.0000
0.1187 0.9187 0.0000
0.1437 0.9875 0.0000
0.0437 0.8625 0.0000
0.1375 0.9563 0.0000
0.0125 0.8562 0.0000
0.1437 0.9812 0.0000
0.0187 0.8562 0.0000
0.0625 0.8688 0.0000
0.1313 0.9375 0.0000
0.1250 0.9250 0.0000
0.0750 0.8750 0.0000
0.1437 0.9750 0.0000
0.0250 0.8562 0.0000
0.1062 0.9000 0.0000
0.1000 0.8938 0.0000
0.0500 0.8625 0.0000
0.1375 0.9500 0.0000
0.1125 0.9062 0.0000
0.0938 0.8875 0.0000
0.1437 0.9688 0.0000
0.0312 0.8562 0.0000
[...]
         <PointData>
            <DataArray Name="fValues" NumberOfComponents="1" format="ascii" type="Float64">
-7.83062e-07 
-1.25236e-06 
-1.25681e-06 
-2.93560e-06 
-3.92714e-06 
-3.95548e-06 
-2.09585e-05 
-2.08321e-05 
-9.31751e-05 
-1.61004e-05 
-1.65075e-05 
-7.99295e-05 
-8.04625e-05 
-2.59392e-04 
-2.59350e-04 
-7.07612e-05 
-6.88384e-05 
-2.17978e-04 
-2.18688e-04 
-5.75641e-04 
-5.59904e-04 
-5.57015e-04 
-2.23342e-04 
-2.28445e-04 
-1.05988e-03 
-1.06563e-03 
-4.81351e-04 
-4.83427e-04 
-1.01012e-03 
-1.02560e-03 
-1.75527e-03 
-1.74853e-03 
-1.72132e-03 
-5.63684e-04 
-5.71125e-04 
-9.35210e-04 
-9.19895e-04 
-1.68266e-03 
-1.63188e-03 
-2.62982e-03 
-2.65592e-03 
-2.54857e-03 
-2.62807e-03 
-1.18149e-03 
-1.18354e-03 
-3.74355e-03 
-1.58287e-03 
-1.63812e-03 
-3.75302e-03 
-3.66684e-03 
-2.42795e-03 
-2.55717e-03 
-3.51913e-03 
-3.70070e-03 
-5.04724e-03 
-4.98771e-03 
-2.17340e-03 
-2.12184e-03 
-4.83163e-03 
-2.65556e-03 
-5.02328e-03 
-2.50271e-03 
-3.67502e-03 
-3.39475e-03 
-6.49009e-03 
-4.96086e-03 
-4.60735e-03 
-6.50501e-03 
-6.35428e-03 
-6.43685e-03 
-6.09108e-03 
-3.41086e-03 
-3.61026e-03 
-4.04238e-03 
-3.68040e-03 
-5.05925e-03 
-8.12766e-03 
-8.05527e-03 
-4.51583e-03 
-8.06868e-03 
-7.81482e-03 
-5.79136e-03 
-6.40278e-03 
-7.96320e-03 
-7.42872e-03 
-9.87407e-03 
-4.99795e-03 
-5.55008e-03 
-9.83635e-03 
-9.72581e-03 
-5.83901e-03 
-5.06973e-03 
-6.72688e-03 
-5.76041e-03 
-9.68674e-03 
-9.36592e-03 
-8.02056e-03 
-7.06359e-03 
-1.17283e-02 
-1.17395e-02 
-9.57487e-03 
-8.86371e-03 
-1.15457e-02 
-1.15139e-02 
-8.02316e-03 
-6.73604e-03 
-8.06763e-03 
-6.56403e-03 
-8.68642e-03 
-1.13121e-02 
-7.08851e-03 
-1.10525e-02 
-1.37477e-02 
-9.80760e-03 
-1.35279e-02 
-8.44953e-03 
-1.37486e-02 
-1.31907e-02 
-1.34844e-02 
-1.12497e-02 
-1.04775e-02 
-8.35865e-03 
-1.10324e-02 
-7.99124e-03 
-1.56369e-02 
-1.07304e-02 
-1.59245e-02 
-1.29075e-02 
-1.29972e-02 
-8.46774e-03 
-1.09364e-02 
-1.51905e-02 
-1.59758e-02 
-1.00378e-02 
-1.17559e-02 
-1.47204e-02 
-1.57819e-02 
-1.24500e-02 
-1.29714e-02 
-1.78990e-02 
-1.73079e-02 
-1.83297e-02 
-1.54361e-02 
-1.45541e-02 
-9.47795e-03 
-1.44484e-02 
-1.85664e-02 
-1.38097e-02 
-1.66538e-02 
-9.12786e-03 
-1.34647e-02 
-9.90349e-03 
-1.38555e-02 
-1.20177e-02 
-1.86614e-02 
-1.61032e-02 
-1.95567e-02 
-2.03693e-02 
-1.86906e-02 
-2.10884e-02 
-1.47298e-02 
-1.50991e-02 
-2.17569e-02 
-1.78824e-02 
-1.59233e-02 
-1.87567e-02 
-9.64046e-03 
-1.85414e-02 
-1.72701e-02 
-9.74496e-03 
-1.62496e-02 
-1.14687e-02 
-2.19677e-02 
-2.31369e-02 
-2.08260e-02 
-1.73274e-02 
-1.60938e-02 
-1.46989e-02 
-2.25182e-02 
-2.43879e-02 
-1.97511e-02 
-1.65188e-02 
-1.89023e-02 
-1.88679e-02 
-2.58922e-02 
-1.73316e-02 
-2.45859e-02 
-2.35251e-02 
-2.30632e-02 
-2.63204e-02 
-8.50049e-03 
-2.29289e-02 
-2.16841e-02 
-2.10616e-02 
-9.68314e-03 
-1.92605e-02 
-1.32743e-02 
-1.83989e-02 
-2.79140e-02 
-2.04906e-02 
-2.84767e-02 
-1.84557e-02 
-1.84493e-02 
-1.83357e-02 
-2.44565e-02 
-2.54041e-02 
-2.74575e-02 
-2.36580e-02 
-1.96253e-02 
-3.14345e-02 
-1.86815e-02 
-3.04875e-02 
-2.21507e-02 
-3.00510e-02 
-6.13381e-03 
-2.76382e-02 
-8.88430e-03 
-2.51234e-02 
-1.52738e-02 
-2.24599e-02 
-2.09383e-02 
-3.36488e-02 
-1.93366e-02 
-3.56007e-02 
-2.34554e-02 
-2.56406e-02 
-2.78339e-02 
-2.09229e-02 
-2.38037e-02 
-3.06038e-02 
-3.23138e-02 
-2.01786e-02 
-2.01860e-02 
-3.89699e-02 
-2.22764e-02 
-3.44336e-02 
-4.05499e-02 
-1.99854e-02 
-2.75762e-02 
-3.33034e-03 
-2.11411e-02 
-3.25832e-02 
-4.02039e-02 
-2.93881e-02 
-2.53954e-02 
-3.02937e-02 
-7.29122e-03 
-4.65842e-02 
-2.01666e-02 
-2.58052e-02 
-1.68521e-02 
-3.39734e-02 
-2.35810e-02 
-2.34746e-02 
-2.92605e-02 
-2.20452e-02 
-4.92308e-02 
-2.05903e-02 
-4.27377e-02 
-2.21280e-02 
-3.94725e-02 
-2.68520e-02 
-2.93663e-02 
-2.12576e-02 
-5.48842e-02 
-2.47882e-02 
-3.26422e-02 
-4.83714e-02 
-2.11544e-02 
-1.31212e-03 
-3.76758e-02 
-3.37851e-02 
-3.73661e-02 
-2.09182e-02 
-6.23835e-02 
-5.50736e-03 
-2.30802e-02 
-2.92507e-02 
-1.74821e-02 
-2.60870e-02 
-3.50115e-02 
-2.17765e-02 
-4.49362e-02 
-2.08811e-02 
-6.31782e-02 
-2.80715e-02 
-2.58249e-02 
-2.39315e-02 
-3.08497e-02 
-5.59718e-02 
-3.46089e-02 
-2.39341e-02 
-2.25111e-02 
-7.56632e-02 
-5.81318e-02 
-2.10339e-02 
-4.03254e-02 
-2.23877e-02 
-2.16193e-02 
-8.58177e-02 
-4.28291e-02 
 8.08302e-05 
-3.82439e-02 
-3.25400e-03 
-3.27494e-02 
-2.89241e-02 
-1.67738e-02 
-2.66097e-02 
-2.46287e-02 
-3.17975e-02 
-2.87346e-02 
-2.12888e-02 
-4.09828e-02 
-5.01128e-02 
-2.10991e-02 
-8.20786e-02 
-3.57662e-02 
-2.58310e-02 
-2.29299e-02 
-7.35672e-02 
-2.37562e-02 
-1.08021e-01 
-2.08306e-02 
-6.87027e-02 
-4.20259e-02 
-2.15774e-02 
-2.70683e-02 
-2.92801e-02 
-2.51139e-02 
-2.22943e-02 
-1.22595e-01 
 5.95524e-02 
-4.79608e-02 
-3.19613e-02 
-2.33593e-02 
-4.26964e-02 
 2.68557e-02 
-3.62541e-02 
-6.86981e-03 
-2.07227e-02 
-5.33794e-02 
-3.13901e-02 
-4.17237e-02 
-3.56089e-02 
-2.18497e-02 
-2.12800e-02 
-1.06254e-01 
-2.77344e-02 
-9.61307e-02 
-2.53726e-02 
-2.71763e-02 
-4.13699e-02 
-2.07088e-02 
-2.49993e-02 
-7.66066e-02 
-2.05882e-02 
-2.90952e-02 
-1.62055e-01 
-2.36573e-02 
-2.20785e-02 
-3.12600e-02 
-2.29624e-02 
-1.84915e-01 
 4.90266e-02 
-5.29948e-02 
-2.01255e-02 
 7.32961e-02 
-4.70783e-02 
-5.21891e-02 
-2.07466e-02 
 4.64397e-02 
-3.40016e-02 
-3.97187e-02 
-2.14530e-02 
-1.30622e-01 
-2.54629e-02 
-1.71502e-02 
-3.40252e-02 
-2.38526e-02 
-2.70446e-02 
-1.06047e-01 
-2.96297e-02 
-2.85986e-02 
-2.22709e-02 
-3.82528e-02 
-1.98273e-02 
-2.03417e-02 
-7.44414e-02 
-2.67531e-01 
-2.62425e-02 
-2.08225e-02 
-3.02361e-02 
-3.43797e-01 
-2.36375e-02 
-1.95341e-02 
-2.40561e-02 
-2.55851e-02 
-4.67877e-02 
-3.24658e-02 
-1.96573e-02 
 2.87340e-02 
-5.78618e-02 
 5.05010e-02 
-5.13301e-02 
-2.24866e-02 
-2.70552e-02 
 9.71710e-02 
-4.30989e-02 
-2.16402e-02 
-1.49235e-01 
 9.66780e-02 
-3.66110e-02 
-2.09612e-02 
-2.85901e-02 
 4.02979e-02 
-3.15025e-02 
-3.77890e-02 
-1.89666e-02 
-1.96111e-02 
-4.82097e-02 
-2.01185e-02 
-3.07779e-02 
-3.76473e-01 
-2.74841e-02 
-2.45045e-02 
-2.61602e-02 
-2.28627e-02 
-7.88121e-01 
-2.43281e-02 
-2.12396e-02 
-2.80019e-02 
-1.86067e-02 
-3.62308e-02 
-4.20711e-02 
-1.89767e-02 
 2.95804e-02 
-6.24996e-02 
-5.53971e-02 
-3.06805e-02 
 2.85490e-02 
-1.97235e-02 
-4.63529e-02 
 7.95869e-02 
-2.18577e-02 
 5.50597e-02 
-3.91187e-02 
 1.19185e-01 
-4.86233e-02 
-1.81516e-02 
-1.84550e-02 
-3.64164e-02 
-3.33365e-02 
 5.95372e-01 
-2.36394e-02 
-2.55978e-02 
 1.43870e-01 
-1.99388e-02 
-2.18027e-02 
-2.78732e-02 
-2.87191e-02 
 1.60988e-01 
-2.00780e-02 
-3.10898e-02 
-1.76121e-02 
-5.00961e-02 
 1.97203e-02 
-2.50383e-02 
-1.31960e+00 
-1.84743e-02 
-1.85501e-02 
-3.69560e-02 
-6.68523e-02 
 2.74968e-02 
-5.92294e-02 
 2.62046e-02 
-2.21162e-02 
-2.51725e-02 
 9.48622e-01 
-2.28766e-02 
-4.94410e-02 
 2.91298e-02 
-2.78963e-02 
-3.84522e-02 
-1.74007e-02 
-4.15197e-02 
-1.73604e-02 
-4.93831e-02 
 6.24885e-02 
-3.15947e-02 
-2.08159e-02 
-3.51141e-02 
 7.27665e-01 
 6.06329e-01 
-1.98171e-02 
-1.89750e-02 
-3.75611e-02 
-2.99395e-02 
 4.56061e-01 
-5.11661e-02 
-1.66864e-02 
 1.49754e-01 
-4.85480e-02 
-1.80427e-02 
-1.74346e-02 
-2.57684e-02 
-1.64475e+00 
-2.47682e-02 
-2.79129e-02 
-3.20372e-02 
-2.21420e-02 
 2.46935e-02 
-7.08696e-02 
-1.98613e-02 
-2.24221e-02 
 1.06717e+00 
-3.81189e-02 
 2.32201e-02 
-6.27814e-02 
-5.80264e-02 
-1.63325e-02 
-5.23258e-02 
 2.60603e-02 
-1.67280e-02 
 1.60389e-01 
 7.87920e-02 
-4.37862e-02 
-4.80905e-02 
-1.79126e-02 
-1.97638e-02 
 7.06193e-01 
-3.68168e-02 
 4.64977e-01 
-2.78415e-02 
-3.11357e-02 
 5.60439e-02 
-3.23359e-02 
-1.58401e-02 
 1.40436e-01 
-2.43183e-02 
-6.02636e-02 
-1.63740e-02 
-2.13905e-02 
-3.85567e-02 
-1.76937e-02 
 1.37684e-01 
-1.57605e+00 
-2.65160e-02 
-4.77628e-02 
-1.89136e-02 
-1.53772e-02 
-2.64894e-02 
-2.27787e-02 
 1.95853e-01 
 2.14389e-02 
-7.45057e-02 
-1.61452e-02 
 1.82632e-01 
-6.60112e-02 
 1.98976e-02 
-6.05131e-02 
-5.49726e-02 
-1.68813e-02 
 2.22941e-02 
-4.58913e-02 
 1.16369e-01 
-2.76423e-02 
-3.24614e-02 
-1.97861e-02 
-3.88132e-02 
-2.37864e-02 
 4.98811e-01 
-3.84260e-02 
 1.61400e-01 
-1.50829e-02 
-4.76147e-02 
 1.52862e-01 
-2.05972e-02 
-1.53694e-02 
-4.57789e-02 
-3.22966e-02 
-2.32998e-01 
-1.74367e-02 
 2.41919e-01 
-5.94773e-02 
-1.79607e-02 
-2.72769e-02 
-9.53608e-01 
-1.45016e-02 
 1.44264e-01 
-3.24070e-02 
-2.72971e-02 
-3.89136e-02 
-2.31873e-02 
-1.58791e-02 
 9.93551e-02 
-1.56623e-02 
-5.87498e-02 
-3.73310e-01 
 1.70521e-02 
-7.77185e-02 
 1.60016e-02 
-6.88797e-02 
-4.74712e-02 
-2.31554e-02 
 2.45353e-02 
-5.73484e-02 
 5.80612e-02 
-4.78092e-02 
-1.98891e-02 
-1.97517e-02 
-5.89701e-02 
 2.68866e-01 
 1.98149e-02 
-3.99233e-02 
-1.44260e-02 
 8.89207e-02 
-1.44246e-02 
 1.00466e-01 
-2.12471e-01 
-3.34111e-02 
-1.69999e-02 
-6.55619e-02 
-1.72797e-02 
 3.71894e-01 
-3.21667e-02 
-3.88510e-02 
-4.90811e-01 
-2.80462e-02 
-4.73406e-02 
-2.67992e-02 
-1.37149e-02 
 1.56419e-01 
-1.49102e-02 
-2.83147e-03 
-5.82453e-02 
-2.24209e-02 
-1.52886e-02 
 1.17233e-01 
-3.76979e-01 
-2.36482e-02 
-8.04683e-02 
 1.19344e-02 
-7.13505e-02 
 1.14391e-02 
-1.88542e-02 
-6.93629e-02 
-5.94223e-02 
 3.67415e-02 
-4.95157e-02 
-1.67748e-02 
-2.00774e-02 
 4.25978e-02 
-1.35523e-02 
 1.54779e-01 
-1.38754e-02 
 7.93433e-02 
-4.12912e-02 
-2.25835e-02 
-3.86015e-02 
-1.60364e-02 
-3.90655e-02 
-4.71120e-02 
-3.17380e-02 
-5.76866e-02 
-2.61510e-02 
-3.44682e-02 
-1.64061e-01 
 2.90311e-01 
-1.72298e-02 
-2.15880e-02 
-6.97682e-02 
-2.88188e-02 
-1.30277e-02 
-3.16848e-01 
 7.26744e-02 
-1.39836e-02 
 1.31167e-01 
 1.84018e-01 
-1.50337e-02 
-1.79128e-02 
-5.75734e-02 
-2.41613e-02 
-3.34147e-01 
-8.27174e-02 
 7.47966e-03 
-4.67364e-02 
-3.81565e-02 
-7.33888e-02 
 7.12185e-03 
-6.11652e-02 
-1.27601e-02 
-5.71712e-02 
 7.64282e-02 
 2.50331e-02 
-3.11259e-02 
-2.03549e-02 
-1.39848e-01 
 9.19387e-02 
-5.09880e-02 
-1.34464e-02 
 1.37281e-01 
-1.50812e-02 
 2.09479e-02 
-6.95332e-02 
-2.53621e-02 
-4.25137e-02 
-2.95651e-02 
-1.72947e-02 
 4.30783e-01 
-2.06686e-02 
-7.03142e-02 
-3.54582e-02 
-1.26916e-01 
-1.31126e-02 
 1.15290e-01 
-1.24528e-02 
 7.92256e-02 
-2.95907e-02 
-2.37434e-01 
-1.69412e-02 
 5.36925e-02 
-4.61966e-02 
 3.21896e-01 
-5.66321e-02 
-1.49076e-02 
-3.75153e-02 
-2.47276e-02 
-3.03417e-02 
-6.91008e-02 
-3.00359e-01 
 6.99292e-02 
-1.20634e-02 
 4.32062e-03 
-8.44293e-02 
-2.44479e-02 
-7.73792e-02 
 4.94076e-03 
-1.41496e-02 
-7.49613e-02 
 1.62303e-01 
 8.32683e-03 
-6.25496e-02 
-2.07268e-02 
-1.31499e-02 
 1.08703e-01 
-1.96375e-01 
 3.02816e-03 
-5.22051e-02 
-2.62708e-02 
-1.96797e-02 
-3.10964e-02 
-4.35765e-02 
-1.74824e-02 
 4.13081e-01 
 6.80700e-02 
-1.01855e-01 
-1.23132e-02 
-5.59581e-02 
-3.63730e-02 
-4.54611e-02 
-1.20042e-02 
 9.14160e-02 
-3.66851e-02 
-6.83129e-02 
-1.59576e-02 
 1.53665e-01 
-3.03595e-02 
-1.88485e-01 
-2.94018e-02 
-8.06224e-02 
-1.49213e-02 
 3.68262e-01 
-5.24155e-02 
-2.53493e-02 
-2.34277e-02 
-2.63484e-01 
-1.14786e-02 
 7.81828e-02 
 7.02943e-02 
-1.32602e-02 
-8.55683e-02 
 2.21270e-03 
 5.70338e-03 
-1.29989e-02 
-7.60362e-02 
 1.26718e-01 
-2.24920e-01 
-2.11989e-02 
 5.78628e-03 
-6.35500e-02 
-1.86422e-02 
 1.60733e-01 
-5.50614e-02 
-2.10078e-03 
-5.31485e-02 
-6.74330e-02 
-4.45328e-02 
-8.07072e-02 
-3.56807e-02 
-3.04810e-02 
-4.44676e-02 
-1.16042e-02 
 7.07264e-02 
 1.97758e-01 
-1.78024e-02 
-1.16974e-02 
 8.92974e-02 
-1.49833e-02 
 1.02252e-01 
-8.69567e-02 
-3.72070e-02 
-2.83258e-02 
-7.18166e-02 
-1.58641e-01 
-3.11248e-02 
 2.97092e-01 
-2.23242e-02 
 1.28492e-01 
-1.50866e-02 
-1.24342e-02 
 6.71325e-02 
-2.26683e-01 
-1.10232e-02 
-2.60306e-02 
 8.55281e-02 
-5.40009e-02 
-6.63551e-02 
-4.34279e-02 
-8.06341e-02 
 1.48547e-01 
-1.75797e-02 
 1.45603e-01 
-1.30080e-02 
 1.17414e-03 
-8.60992e-02 
-2.17264e-01 
-7.65825e-02 
 3.80062e-03 
-8.40526e-02 
-2.17794e-02 
-3.45186e-02 
-6.41428e-02 
 2.62557e-03 
-5.38021e-02 
-3.55283e-03 
-1.10054e-02 
-2.71359e-02 
 1.55904e-02 
 7.56454e-02 
-4.51783e-02 
-1.40418e-02 
 6.88636e-02 
-2.85065e-02 
 5.14181e-03 
-1.82655e-02 
 1.09776e-01 
-1.15491e-02 
-3.79578e-02 
-7.74364e-02 
 1.69000e-01 
-2.11625e-02 
-6.52146e-02 
-3.18896e-02 
-1.41078e-01 
-5.27828e-02 
-7.96261e-02 
 2.34809e-01 
-1.54171e-02 
-1.16940e-02 
-4.21521e-02 
 7.09758e-02 
-9.15540e-02 
 9.26526e-02 
-1.07163e-02 
-2.67787e-02 
-2.02095e-01 
-1.65182e-02 
 7.35898e-02 
-4.41834e-02 
-3.32172e-02 
 1.89846e-01 
-1.31926e-02 
-2.24786e-02 
-2.01657e-01 
-8.59874e-02 
 8.81099e-04 
-2.58572e-02 
-7.65706e-02 
 1.66584e-01 
 7.36272e-04 
-6.43067e-02 
-1.37664e-04 
 8.18516e-02 
-1.05382e-02 
-1.31582e-02 
 7.01998e-02 
-5.41531e-02 
-3.99512e-03 
-4.57035e-02 
-1.88844e-02 
-1.15767e-02 
 1.19065e-01 
-6.38941e-02 
-7.83333e-02 
-6.68469e-02 
-2.56181e-02 
 8.33983e-02 
-1.99700e-02 
-5.13742e-02 
-9.34246e-02 
-3.86267e-02 
-6.95403e-02 
-4.07135e-02 
-7.00829e-02 
 3.77061e-01 
-1.59273e-02 
-3.26604e-02 
 7.57779e-02 
-1.10633e-02 
-1.28894e-01 
 2.03052e-01 
-3.17989e-02 
-1.54848e-02 
 7.11528e-02 
-1.05774e-02 
 1.01067e-01 
-2.76038e-02 
-1.89846e-01 
-1.35691e-02 
 1.20664e-01 
-2.45173e-02 
 3.00642e-01 
-7.68629e-02 
-2.33091e-02 
-2.02809e-01 
-9.29241e-02 
-6.23298e-02 
-1.23585e-02 
 7.32257e-02 
 3.48093e-04 
-8.51988e-02 
 8.93975e-02 
-9.87780e-05 
-7.59725e-02 
-1.02242e-02 
-4.97750e-02 
-4.29476e-04 
-6.40233e-02 
-8.99007e-02 
-3.59155e-03 
-5.41927e-02 
-1.87756e-02 
 7.48113e-02 
-1.17982e-02 
 1.30449e-01 
-1.96738e-02 
 9.70497e-02 
-3.91312e-02 
-9.11129e-02 
-2.24174e-02 
-4.60429e-02 
-6.26764e-02 
-3.92201e-02 
 1.81771e-01 
-3.02910e-02 
 8.21367e-02 
-1.05657e-02 
-1.66332e-02 
 7.35195e-02 
-1.45075e-02 
 4.96806e-01 
-3.34481e-02 
-1.19836e-01 
-1.06260e-02 
 1.11481e-01 
-9.20168e-02 
-7.51652e-02 
-2.31462e-02 
 8.14909e-02 
-1.00917e-01 
-6.05580e-02 
-1.84463e-01 
-2.85197e-02 
-1.41545e-02 
 3.69264e-01 
-2.13646e-02 
-4.80049e-02 
 7.84125e-02 
-1.16684e-02 
-1.00847e-02 
-2.14233e-01 
-2.42867e-02 
 9.86579e-02 
 7.64445e-02 
-1.76089e-02 
-8.37006e-02 
 1.50747e-04 
-3.74318e-02 
 1.86687e-01 
-7.47622e-02 
-1.68695e-04 
-6.32780e-02 
-4.01189e-04 
-1.22316e-02 
 1.40819e-01 
-5.39172e-02 
-2.94641e-03 
-1.13227e-01 
-2.06501e-02 
-4.62016e-02 
-2.87238e-02 
 8.74807e-02 
-1.96595e-02 
-1.02247e-02 
 9.02225e-02 
 7.76397e-02 
-3.97496e-02 
-9.01314e-02 
-5.75627e-02 
-1.36141e-02 
-7.32465e-02 
-1.06303e-01 
 5.56788e-01 
-1.75515e-02 
-6.34805e-02 
-1.08813e-02 
-5.85816e-02 
 1.22829e-01 
-3.42685e-02 
 8.04054e-02 
-2.17748e-02 
-1.14324e-01 
-4.60898e-02 
 2.20060e-01 
-2.95443e-02 
-1.84457e-01 
 4.05280e-01 
-1.49657e-02 
-1.11131e-02 
 8.53234e-02 
-3.56464e-02 
 1.10558e-01 
-1.01403e-02 
 7.91659e-02 
 1.09296e-01 
-1.64995e-02 
-2.54295e-02 
-2.27886e-01 
 1.57037e-03 
-8.14616e-02 
-7.29170e-02 
 7.17952e-04 
-6.20613e-02 
 1.49969e-01 
 8.49783e-02 
-1.28944e-02 
-4.61357e-04 
-2.71292e-02 
-8.79840e-02 
-1.06003e-01 
-5.33291e-02 
-9.14985e-02 
-7.10288e-02 
-2.28237e-03 
-2.18310e-02 
-1.30463e-01 
-4.61918e-02 
-1.72599e-02 
 8.33611e-02 
-1.28317e-02 
 2.06986e-01 
-5.64243e-02 
-1.00623e-02 
 9.98107e-02 
-4.02335e-02 
-5.40771e-02 
 8.23298e-02 
-2.04340e-02 
-4.40623e-02 
-1.86993e-02 
 1.34059e-01 
-1.13615e-02 
 1.71786e-01 
 6.09595e-01 
-3.51426e-02 
-1.12077e-01 
 9.21113e-02 
-3.38075e-02 
-1.07164e-02 
-3.06989e-02 
-1.88462e-01 
 9.37765e-02 
-1.60191e-02 
 4.37919e-01 
-1.54760e-02 
 8.37915e-02 
-1.04908e-01 
 1.20670e-01 
-1.04100e-02 
-1.09464e-01 
-8.54970e-02 
-2.67577e-02 
 3.58285e-02 
-6.86032e-02 
-2.42204e-01 
 8.69940e-02 
-2.55390e-02 
-1.38024e-02 
 1.54384e-03 
-7.84536e-02 
 1.59053e-01 
 3.38059e-03 
-7.04184e-02 
-5.41314e-02 
 2.06247e-01 
 1.46620e-03 
-6.03700e-02 
-2.32348e-02 
-1.44183e-01 
-1.44528e-03 
-5.24390e-02 
-1.21857e-02 
 9.06842e-02 
 1.10529e-01 
-1.00986e-02 
-4.19566e-02 
 9.83166e-02 
-1.43992e-02 
-1.91537e-02 
 8.61360e-02 
-4.60336e-02 
-5.13285e-02 
-4.06971e-02 
-1.20825e-02 
 1.45128e-01 
-2.00927e-02 
 6.56903e-01 
 9.24244e-02 
-3.19476e-02 
-1.12030e-01 
-1.18945e-01 
-3.60970e-02 
-1.02461e-01 
-5.54392e-02 
-8.28389e-02 
 1.03554e-01 
-1.04998e-02 
-1.45653e-02 
 9.00644e-02 
-1.73292e-02 
-6.60328e-02 
 4.68584e-01 
 2.24888e-01 
-1.94901e-01 
-3.20083e-02 
-1.09103e-02 
 1.32413e-01 
 8.99205e-02 
-2.39840e-02 
 1.10919e-01 
-5.17369e-02 
-2.56938e-01 
-2.82927e-02 
-1.49691e-02 
 1.68866e-01 
-7.46531e-02 
 1.71074e-03 
-6.72540e-02 
-3.98046e-02 
 3.21015e-03 
 9.94385e-02 
 9.75629e-02 
-1.16989e-02 
-5.82097e-02 
 4.17553e-03 
-1.79621e-02 
-1.56224e-01 
-2.48791e-02 
-1.03509e-02 
 1.22060e-01 
 9.14612e-02 
-5.12674e-02 
 9.97058e-04 
-1.20372e-01 
-4.57569e-02 
-9.13034e-02 
-1.08363e-02 
-9.94207e-02 
 9.46181e-02 
-3.00977e-02 
-1.30572e-02 
 1.56461e-01 
-7.99838e-02 
 2.88235e-01 
-4.11732e-02 
 7.01930e-01 
-4.87698e-02 
-2.17457e-02 
 1.55716e-01 
-6.33278e-02 
-3.71626e-02 
-1.13206e-01 
 9.78123e-02 
-1.37918e-02 
-1.04818e-02 
 1.14421e-01 
-2.24936e-02 
 9.44310e-02 
 1.04702e-01 
 4.99173e-01 
-1.89072e-02 
-4.92690e-02 
-1.16541e-02 
 1.44537e-01 
-3.34987e-02 
-2.02769e-01 
-3.76372e-02 
-3.00548e-02 
-2.72052e-01 
 1.00196e-01 
-1.64037e-02 
 1.79773e-01 
-1.18169e-01 
-1.18201e-01 
-1.13912e-02 
 1.09447e-01 
 9.82808e-02 
-9.61950e-02 
 1.12604e-01 
-1.68850e-02 
-7.00434e-02 
 2.88675e-03 
-1.08329e-02 
 1.34263e-01 
 3.04367e-03 
-6.34208e-02 
 1.04146e-02 
-2.67781e-02 
-5.55979e-02 
 2.29565e-01 
-7.69263e-02 
-1.67292e-01 
 8.20495e-03 
-4.98475e-02 
-2.82880e-02 
 9.86159e-02 
-4.54023e-02 
-6.76921e-03 
 1.11616e-01 
-6.05157e-02 
-1.42938e-02 
 1.68458e-01 
-2.36678e-02 
 7.47674e-01 
-4.17021e-02 
-4.55332e-02 
-1.31768e-02 
 1.06908e-01 
-1.06770e-02 
 1.26219e-01 
 1.06488e-01 
-4.67580e-02 
 1.00457e-01 
-2.10946e-02 
-3.83737e-02 
-1.14941e-01 
-2.07588e-02 
 5.31234e-01 
 1.57233e-01 
-1.26496e-02 
-1.30866e-01 
-2.11885e-01 
-1.15190e-01 
-3.51955e-02 
-3.99233e-02 
-3.54846e-02 
 1.03726e-01 
 2.37539e-01 
-9.27572e-02 
-3.20601e-02 
-2.87670e-01 
-1.12785e-02 
 1.20572e-01 
 1.18156e-01 
-1.59451e-02 
-7.37394e-02 
 1.06496e-01 
-1.81098e-02 
 1.91945e-01 
 1.47158e-01 
-1.15532e-02 
 1.03981e-01 
-2.65463e-02 
-5.76309e-02 
-6.46190e-02 
 4.62037e-03 
 1.12144e-01 
-5.89287e-02 
 4.70723e-03 
-2.89401e-02 
-1.77603e-01 
-5.25675e-02 
 1.18875e-02 
-4.82274e-02 
 1.26286e-02 
-1.57949e-02 
 1.81389e-01 
-4.50215e-02 
-1.95423e-03 
-4.42348e-02 
 1.09359e-01 
-1.27375e-02 
 1.17239e-01 
 7.94692e-01 
-2.58610e-02 
 1.38891e-01 
-1.10950e-02 
-1.98112e-02 
-1.34432e-01 
 1.07869e-01 
-4.23294e-02 
-4.04161e-02 
-9.02504e-02 
 3.22698e-01 
-1.11130e-01 
-3.97638e-02 
-1.17266e-01 
 1.54130e-01 
-8.91712e-02 
-1.38992e-02 
 1.70715e-01 
 1.08512e-01 
-3.33759e-02 
 5.65065e-01 
-2.28822e-02 
-7.04455e-02 
-3.71186e-02 
-2.22817e-01 
 1.18399e-01 
-1.51613e-02 
 1.16008e-01 
 1.32733e-01 
-1.13718e-02 
-3.43161e-02 
-3.03929e-01 
-2.00832e-02 
 2.05494e-01 
-5.47039e-02 
 1.15297e-01 
 1.10686e-01 
-2.48983e-02 
-1.25150e-02 
 1.60855e-01 
-5.83908e-02 
-3.13629e-02 
 7.11658e-03 
-1.87021e-01 
-5.38063e-02 
-1.25405e-01 
 6.99666e-03 
 1.88919e-01 
-1.31390e-01 
-4.91722e-02 
 1.13743e-01 
-4.17298e-02 
 8.56086e-03 
-4.64730e-02 
-1.75556e-02 
 2.39816e-01 
-1.07008e-01 
 1.95445e-01 
 1.87114e-02 
 1.28726e-01 
-1.24866e-02 
-1.86638e-02 
 1.16597e-01 
-4.46766e-02 
 1.05096e-02 
-1.17401e-02 
 1.25419e-01 
 1.52464e-01 
-8.54036e-02 
-2.83168e-02 
 8.42662e-01 
-4.31015e-02 
-3.26653e-02 
-3.13383e-02 
 1.14617e-01 
-6.70716e-02 
 1.21531e-01 
 1.85173e-01 
-4.13593e-02 
-1.53984e-02 
-1.20525e-01 
 6.00489e-01 
-2.52650e-02 
-3.92753e-02 
 1.26750e-01 
-1.45477e-02 
-2.36149e-01 
 1.19413e-01 
-5.17667e-02 
-1.16769e-02 
 1.45913e-01 
-2.33662e-02 
 1.18694e-01 
-1.80854e-02 
-1.42636e-01 
-2.23100e-02 
 2.20499e-01 
-3.68154e-02 
 2.53061e-01 
-1.27690e-01 
-3.20923e-01 
 1.75490e-01 
-1.37148e-02 
-1.02709e-01 
 1.30200e-01 
-3.92725e-02 
 1.19354e-01 