<?xml version="1.0" encoding="utf-8"?>
<VTKFile byte_order="LittleEndian" type="UnstructuredGrid" version="0.1">
   <UnstructuredGrid>
      <Piece NumberOfCells="5025" NumberOfPoints="5495">
         <Points>
            <DataArray Name="Points" NumberOfComponents="3" format="ascii" type="Float32">
1.0000 -0.8164 0.0000
0.8164 -1.0000 0.0000
0.8702 -0.8702 0.0000
1.0000 -0.6679 0.0000
0.6679 -1.0000 0.0000
0.8513 -0.6949 0.0000
0.6938 -0.8559 0.0000
1.0000 -0.5195 0.0000
0.5195 -1.0000 0.0000
0.6944 -0.7064 0.0000
0.5401 -0.8472 0.0000
0.8380 -0.5357 0.0000
1.0000 -0.3711 0.0000
0.3711 -1.0000 0.0000
0.5598 -0.7198 0.0000
0.6726 -0.5550 0.0000
1.0000 -0.2226 0.0000
0.8219 -0.3745 0.0000
0.3843 -0.8184 0.0000
0.4606 -0.7264 0.0000
0.2226 -1.0000 0.0000
0.5368 -0.6008 0.0000
0.4378 -0.6411 0.0000
1.0000 -0.0742 0.0000
0.8281 -0.2109 0.0000
0.2192 -0.8424 0.0000
0.0742 -1.0000 0.0000
0.3358 -0.6785 0.0000
0.6158 -0.3785 0.0000
0.4118 -0.5608 0.0000
0.4771 -0.4874 0.0000
1.0000 0.0742 0.0000
0.2027 -0.7001 0.0000
0.8353 -0.0547 0.0000
0.0693 -0.8511 0.0000
0.3204 -0.5538 0.0000
0.6532 -0.1923 0.0000
-0.0742 -1.0000 0.0000
0.3393 -0.4111 0.0000
0.1933 -0.5694 0.0000
0.0659 -0.7101 0.0000
0.4474 -0.2855 0.0000
1.0000 0.2226 0.0000
0.8412 0.0982 0.0000
-0.0773 -0.8518 0.0000
0.6718 -0.0320 0.0000
-0.2226 -1.0000 0.0000
0.4989 -0.1479 0.0000
0.1910 -0.4440 0.0000
0.0648 -0.5803 0.0000
-0.0732 -0.7091 0.0000
0.8465 0.2481 0.0000
0.2633 -0.2917 0.0000
1.0000 0.3711 0.0000
0.3367 -0.2086 0.0000
-0.2242 -0.8465 0.0000
0.6781 0.1245 0.0000
0.5169 -0.0056 0.0000
0.0698 -0.4631 0.0000
0.1686 -0.3388 0.0000
-0.3711 -1.0000 0.0000
0.3793 -0.1089 0.0000
-0.0627 -0.5783 0.0000
0.0730 -0.3642 0.0000
0.2106 -0.2106 0.0000
-0.2155 -0.6960 0.0000
0.2579 -0.1489 0.0000
0.1489 -0.2579 0.0000
0.3937 -0.0021 0.0000
0.8496 0.3962 0.0000
-0.0458 -0.4643 0.0000
0.6942 0.2736 0.0000
1.0000 0.5195 0.0000
0.2877 -0.0771 0.0000
-0.3754 -0.8367 0.0000
0.0771 -0.2877 0.0000
0.5052 0.1585 0.0000
-0.0223 -0.3704 0.0000
-0.5195 -1.0000 0.0000
-0.1928 -0.5589 0.0000
0.2978 -0.0000 0.0000
-0.0000 -0.2978 0.0000
0.3780 0.1076 0.0000
-0.1561 -0.4449 0.0000
0.6980 0.4176 0.0000
0.8516 0.5450 0.0000
0.5503 0.3002 0.0000
-0.3678 -0.6692 0.0000
-0.1163 -0.3554 0.0000
1.0000 0.6679 0.0000
0.2877 0.0771 0.0000
-0.0771 -0.2877 0.0000
-0.5348 -0.8289 0.0000
-0.6679 -1.0000 0.0000
-0.3267 -0.5133 0.0000
0.4012 0.2593 0.0000
0.3244 0.1964 0.0000
0.2579 0.1489 0.0000
0.4513 0.3326 0.0000
-0.2656 -0.4006 0.0000
-0.1489 -0.2579 0.0000
-0.2022 -0.3175 0.0000
0.5508 0.4321 0.0000
0.7002 0.5617 0.0000
0.8553 0.6986 0.0000
1.0000 0.8164 0.0000
0.2106 0.2106 0.0000
-0.6956 -0.8439 0.0000
0.2606 0.2699 0.0000
-0.5466 -0.6240 0.0000
-0.2106 -0.2106 0.0000
-0.8164 -1.0000 0.0000
0.3225 0.3442 0.0000
-0.2781 -0.2563 0.0000
0.4025 0.4383 0.0000
0.5524 0.5722 0.0000
-0.3635 -0.3238 0.0000
0.6988 0.7093 0.0000
0.1489 0.2579 0.0000
-0.4804 -0.4243 0.0000
0.8702 0.8702 0.0000
-0.2579 -0.1489 0.0000
0.1832 0.3233 0.0000
-0.7111 -0.6724 0.0000
-0.3338 -0.1733 0.0000
-0.8702 -0.8702 0.0000
0.2262 0.4062 0.0000
0.4130 0.5771 0.0000
-0.6388 -0.5195 0.0000
0.0771 0.2877 0.0000
-0.2877 -0.0771 0.0000
0.5451 0.7132 0.0000
0.2741 0.4986 0.0000
-0.4232 -0.2080 0.0000
0.6936 0.8592 0.0000
0.0970 0.3591 0.0000
-0.0000 0.2978 0.0000
-0.6285 -0.4000 0.0000
-0.3632 -0.0797 0.0000
0.3049 0.5860 0.0000
-0.2978 0.0000 0.0000
-0.7414 -0.5345 0.0000
0.8164 1.0000 0.0000
-0.8608 -0.6871 0.0000
-0.5275 -0.2462 0.0000
0.1239 0.4499 0.0000
0.3919 0.7084 0.0000
-0.0771 0.2877 0.0000
0.0038 0.3739 0.0000
-0.2877 0.0771 0.0000
-1.0000 -0.8164 0.0000
0.5356 0.8580 0.0000
-0.4581 -0.0863 0.0000
0.1634 0.5529 0.0000
-0.3732 0.0179 0.0000
-0.1489 0.2579 0.0000
-0.2579 0.1489 0.0000
-0.2106 0.2106 0.0000
-0.7495 -0.3963 0.0000
0.6679 1.0000 0.0000
-0.6438 -0.2536 0.0000
-0.0886 0.3625 0.0000
-0.8680 -0.5336 0.0000
0.0123 0.4664 0.0000
-0.3510 0.1137 0.0000
0.2276 0.6824 0.0000
-0.5613 -0.0970 0.0000
-1.0000 -0.6679 0.0000
-0.1772 0.3296 0.0000
-0.3086 0.1992 0.0000
-0.4677 0.0390 0.0000
-0.2511 0.2728 0.0000
0.3812 0.8548 0.0000
0.0277 0.5779 0.0000
-0.1040 0.4590 0.0000
0.5195 1.0000 0.0000
-0.7580 -0.2507 0.0000
-0.8722 -0.3893 0.0000
-0.6588 -0.1179 0.0000
-0.4330 0.1601 0.0000
-1.0000 -0.5195 0.0000
-0.2177 0.4224 0.0000
-0.3746 0.2617 0.0000
-0.3030 0.3463 0.0000
0.2247 0.8504 0.0000
0.0544 0.7071 0.0000
-0.5897 0.0628 0.0000
-0.1136 0.5730 0.0000
-0.6674 -0.0114 0.0000
0.3711 1.0000 0.0000
-0.7612 -0.1103 0.0000
-0.8760 -0.2405 0.0000
-1.0000 -0.3711 0.0000
-0.5338 0.2255 0.0000
-0.4509 0.3366 0.0000
-0.3673 0.4262 0.0000
-0.7537 0.0210 0.0000
0.0655 0.8548 0.0000
-0.2753 0.5415 0.0000
-0.1006 0.7104 0.0000
0.2226 1.0000 0.0000
-0.8761 -0.0954 0.0000
-1.0000 -0.2226 0.0000
-0.7143 0.1557 0.0000
-0.4349 0.4758 0.0000
-0.5229 0.4287 0.0000
-0.0882 0.8562 0.0000
0.0742 1.0000 0.0000
-0.2550 0.7052 0.0000
-0.8702 0.0491 0.0000
-0.4146 0.5726 0.0000
-1.0000 -0.0742 0.0000
-0.6602 0.3405 0.0000
-0.8557 0.1965 0.0000
-0.0742 1.0000 0.0000
-0.2391 0.8548 0.0000
-0.5421 0.5594 0.0000
-0.4006 0.7097 0.0000
-1.0000 0.0742 0.0000
-0.8409 0.3594 0.0000
-0.6862 0.5309 0.0000
-0.2226 1.0000 0.0000
-0.3880 0.8554 0.0000
-0.5447 0.7055 0.0000
-1.0000 0.2226 0.0000
-0.3711 1.0000 0.0000
-0.8456 0.5262 0.0000
-0.5372 0.8542 0.0000
-0.6953 0.6963 0.0000
-1.0000 0.3711 0.0000
-0.5195 1.0000 0.0000
-1.0000 0.5195 0.0000
-0.8534 0.6909 0.0000
-0.6941 0.8556 0.0000
-0.6679 1.0000 0.0000
-1.0000 0.6679 0.0000
-0.8702 0.8702 0.0000
-0.8164 1.0000 0.0000
-1.0000 0.8164 0.0000
3.0000 -0.8164 0.0000
2.8164 -1.0000 0.0000
2.8702 -0.8702 0.0000
3.0000 -0.6679 0.0000
2.6679 -1.0000 0.0000
2.8513 -0.6949 0.0000
2.6938 -0.8559 0.0000
3.0000 -0.5195 0.0000
2.5195 -1.0000 0.0000
2.6944 -0.7064 0.0000
2.5401 -0.8472 0.0000
2.8380 -0.5357 0.0000
3.0000 -0.3711 0.0000
2.3711 -1.0000 0.0000
2.5598 -0.7198 0.0000
2.6726 -0.5550 0.0000
3.0000 -0.2226 0.0000
2.8219 -0.3745 0.0000
2.3843 -0.8184 0.0000
2.4606 -0.7264 0.0000
2.2226 -1.0000 0.0000
2.5368 -0.6008 0.0000
2.4378 -0.6411 0.0000
3.0000 -0.0742 0.0000
2.8281 -0.2109 0.0000
2.2192 -0.8424 0.0000
2.0742 -1.0000 0.0000
2.3358 -0.6785 0.0000
2.6158 -0.3785 0.0000
2.4118 -0.5608 0.0000
2.4771 -0.4874 0.0000
3.0000 0.0742 0.0000
2.2027 -0.7001 0.0000
2.8353 -0.0547 0.0000
2.0693 -0.8511 0.0000
2.3204 -0.5538 0.0000
2.6532 -0.1923 0.0000
1.9258 -1.0000 0.0000
2.3393 -0.4111 0.0000
2.1933 -0.5694 0.0000
2.0659 -0.7101 0.0000
2.4474 -0.2855 0.0000
3.0000 0.2226 0.0000
2.8412 0.0982 0.0000
1.9227 -0.8518 0.0000
2.6718 -0.0320 0.0000
1.7774 -1.0000 0.0000
2.4989 -0.1479 0.0000
2.1910 -0.4440 0.0000
2.0648 -0.5803 0.0000
1.9268 -0.7091 0.0000
2.8465 0.2481 0.0000
2.2633 -0.2917 0.0000
3.0000 0.3711 0.0000
2.3367 -0.2086 0.0000
1.7758 -0.8465 0.0000
2.6781 0.1245 0.0000
2.5169 -0.0056 0.0000
2.0698 -0.4631 0.0000
2.1686 -0.3388 0.0000
1.6289 -1.0000 0.0000
2.3793 -0.1089 0.0000
1.9373 -0.5783 0.0000
2.0730 -0.3642 0.0000
2.2106 -0.2106 0.0000
1.7845 -0.6960 0.0000
2.2579 -0.1489 0.0000
2.1489 -0.2579 0.0000
2.3937 -0.0021 0.0000
2.8496 0.3962 0.0000
1.9542 -0.4643 0.0000
2.6942 0.2736 0.0000
3.0000 0.5195 0.0000
2.2877 -0.0771 0.0000
1.6246 -0.8367 0.0000
2.0771 -0.2877 0.0000
2.5052 0.1585 0.0000
1.9777 -0.3704 0.0000
1.4805 -1.0000 0.0000
1.8072 -0.5589 0.0000
2.2978 -0.0000 0.0000
2.0000 -0.2978 0.0000
2.3780 0.1076 0.0000
1.8439 -0.4449 0.0000
2.6980 0.4176 0.0000
2.8516 0.5450 0.0000
2.5503 0.3002 0.0000
1.6322 -0.6692 0.0000
1.8837 -0.3554 0.0000
3.0000 0.6679 0.0000
2.2877 0.0771 0.0000
1.9229 -0.2877 0.0000
1.4652 -0.8289 0.0000
1.3321 -1.0000 0.0000
1.6733 -0.5133 0.0000
2.4012 0.2593 0.0000
2.3244 0.1964 0.0000
2.2579 0.1489 0.0000
2.4513 0.3326 0.0000
1.7344 -0.4006 0.0000
1.8511 -0.2579 0.0000
1.7978 -0.3175 0.0000
2.5508 0.4321 0.0000
2.7002 0.5617 0.0000
2.8553 0.6986 0.0000
3.0000 0.8164 0.0000
2.2106 0.2106 0.0000
1.3044 -0.8439 0.0000
2.2606 0.2699 0.0000
1.4534 -0.6240 0.0000
1.7894 -0.2106 0.0000
1.1836 -1.0000 0.0000
2.3225 0.3442 0.0000
1.7219 -0.2563 0.0000
2.4025 0.4383 0.0000
2.5524 0.5722 0.0000
1.6365 -0.3238 0.0000
2.6988 0.7093 0.0000
2.1489 0.2579 0.0000
1.5196 -0.4243 0.0000
2.8702 0.8702 0.0000
1.7421 -0.1489 0.0000
2.1832 0.3233 0.0000
1.2889 -0.6724 0.0000
1.6662 -0.1733 0.0000
1.1298 -0.8702 0.0000
2.2262 0.4062 0.0000
2.4130 0.5771 0.0000
1.3612 -0.5195 0.0000
2.0771 0.2877 0.0000
1.7123 -0.0771 0.0000
2.5451 0.7132 0.0000
2.2741 0.4986 0.0000
1.5768 -0.2080 0.0000
2.6936 0.8592 0.0000
2.0970 0.3591 0.0000
2.0000 0.2978 0.0000
1.3715 -0.4000 0.0000
1.6368 -0.0797 0.0000
2.3049 0.5860 0.0000
1.7022 0.0000 0.0000
1.2586 -0.5345 0.0000
2.8164 1.0000 0.0000
1.1392 -0.6871 0.0000
1.4725 -0.2462 0.0000
2.1239 0.4499 0.0000
2.3919 0.7084 0.0000
1.9229 0.2877 0.0000
2.0038 0.3739 0.0000
1.7123 0.0771 0.0000
2.5356 0.8580 0.0000
1.5419 -0.0863 0.0000
2.1634 0.5529 0.0000
1.6268 0.0179 0.0000
1.8511 0.2579 0.0000
1.7421 0.1489 0.0000
1.7894 0.2106 0.0000
1.2505 -0.3963 0.0000
2.6679 1.0000 0.0000
1.3562 -0.2536 0.0000
1.9114 0.3625 0.0000
1.1320 -0.5336 0.0000
2.0123 0.4664 0.0000
1.6490 0.1137 0.0000
2.2276 0.6824 0.0000
1.4387 -0.0970 0.0000
1.8228 0.3296 0.0000
1.6914 0.1992 0.0000
1.5323 0.0390 0.0000
1.7489 0.2728 0.0000
2.3812 0.8548 0.0000
2.0277 0.5779 0.0000
1.8960 0.4590 0.0000
2.5195 1.0000 0.0000
1.2420 -0.2507 0.0000
1.1278 -0.3893 0.0000
1.3412 -0.1179 0.0000
1.5670 0.1601 0.0000
1.7823 0.4224 0.0000
1.6254 0.2617 0.0000
1.6970 0.3463 0.0000
2.2247 0.8504 0.0000
2.0544 0.7071 0.0000
1.4103 0.0628 0.0000
1.8864 0.5730 0.0000
1.3326 -0.0114 0.0000
2.3711 1.0000 0.0000
1.2388 -0.1103 0.0000
1.1240 -0.2405 0.0000
1.4662 0.2255 0.0000
1.5491 0.3366 0.0000
1.6327 0.4262 0.0000
1.2463 0.0210 0.0000
2.0655 0.8548 0.0000
1.7247 0.5415 0.0000
1.8994 0.7104 0.0000
2.2226 1.0000 0.0000
1.1239 -0.0954 0.0000
1.2857 0.1557 0.0000
1.5651 0.4758 0.0000
1.4771 0.4287 0.0000
1.9118 0.8562 0.0000
2.0742 1.0000 0.0000
1.7450 0.7052 0.0000
1.1298 0.0491 0.0000
1.5854 0.5726 0.0000
[...]
         <PointData>
            <DataArray Name="fValues" NumberOfComponents="1" format="ascii" type="Float64">
       00000 
       00000 
       00000 
       00000 
       00000 
       00000 
       00000 
       00000 
       00000 
       00000 
       00000 
       00000 
       00000 
       00000 
       00000 
       00000 
       00000 
       00000 
       00000 
       00000 
       00000 
       00000 
       00000 
       00000 
       00000 
       00000 
       00000 
       00000 
       00000 
       00000 
       00000 
       00000 
       00000 
       00000 
       00000 
       00000 
       00000 
       00000 
       00000 
       00000 
       00000 
       00000 
       00000 
       00000 
       00000 
       00000 
       00000 
       00000 
       00000 
       00000 
       00000 
       00000 
       00000 
       00000 
       00000 
       00000 
       00000 
       00000 
       00000 
       00000 
       00000 
       00000 
       00000 
       00000 
       00000 
       00000 
       00000 
       00000 
       00000 
       00000 
       00000 
       00000 
       00000 
       00000 
       00000 
       00000 
       00000 
       00000 
       00000 
       00000 
       00000 
       00000 
       00000 
       00000 
       00000 
       00000 
       00000 
       00000 
       00000 
       00000 
       00000 
       00000 
       00000 
       00000 
       00000 
       00000 
       00000 
       00000 
       00000 
       00000 
       00000 
       00000 
       00000 
       00000 
       00000 
       00000 
       00000 
       00000 
       00000 
       00000 
       00000 
       00000 
       00000 
       00000 
       00000 
       00000 
       00000 
       00000 
       00000 
       00000 
       00000 
       00000 
       00000 
       00000 
       00000 
       00000 
       00000 
       00000 
       00000 
       00000 
       00000 
       00000 
       00000 
       00000 
       00000 
       00000 
       00000 
       00000 
       00000 
       00000 
       00000 
       00000 
       00000 
       00000 
       00000 
       00000 
       00000 
       00000 
       00000 
       00000 
       00000 
       00000 
       00000 
       00000 
       00000 
       00000 
       00000 
       00000 
       00000 
       00000 
       00000 
       00000 
       00000 
       00000 
       00000 
       00000 
       00000 
       00000 
       00000 
       00000 
       00000 
       00000 
       00000 
       00000 
       00000 
       00000 
       00000 
       00000 
       00000 
       00000 
       00000 
       00000 
       00000 
       00000 
       00000 
       00000 
       00000 
       00000 
       00000 
       00000 
       00000 
       00000 
       00000 
       00000 
       00000 
       00000 
       00000 
       00000 
       00000 
       00000 
       00000 
       00000 
       00000 
       00000 
       00000 
       00000 
       00000 
       00000 
       00000 
       00000 
       00000 
       00000 
       00000 
       00000 
       00000 
       00000 
       00000 
       00000 
       00000 
       00000 
       00000 
       00000 
       00000 
       00000 
       00000 
       00000 
       00000 
       00000 
       00000 
       00000 
       00000 
       00000 
       00000 
       00000 
       00000 
       00000 
       00000 
       00000 
       00000 
       00000 
       00000 
       00000 
       00000 
       00000 
       00000 
       00000 
       00000 
       00000 
       00000 
       00000 
       00000 
       00000 
       00000 
       00000 
       00000 
       00000 
       00000 
       00000 
       00000 
       00000 
       00000 
       00000 
       00000 
       00000 
       00000 
       00000 
       00000 
       00000 
       00000 
       00000 
       00000 
       00000 
       00000 
       00000 
       00000 
       00000 
       00000 
       00000 
       00000 
       00000 
       00000 
       00000 
       00000 
       00000 
       00000 
       00000 
       00000 
       00000 
       00000 
       00000 
       00000 
       00000 
       00000 
       00000 
       00000 
       00000 
       00000 
       00000 
       00000 
       00000 
       00000 
       00000 
       00000 
       00000 
       00000 
       00000 
       00000 
       00000 
       00000 
       00000 
       00000 
       00000 
       00000 
       00000 
       00000 
       00000 
       00000 
       00000 
       00000 
       00000 
       00000 
       00000 
       00000 
       00000 
       00000 
       00000 
       00000 
       00000 
       00000 
       00000 
       00000 
       00000 
       00000 
       00000 
       00000 
       00000 
       00000 
       00000 
       00000 
       00000 
       00000 
       00000 
       00000 
       00000 
       00000 
       00000 
       00000 
       00000 
       00000 
       00000 
       00000 
       00000 
       00000 
       00000 
       00000 
       00000 
       00000 
       00000 
       00000 
       00000 
       00000 
       00000 
       00000 
       00000 
       00000 
       00000 
       00000 
       00000 
       00000 
       00000 
       00000 
       00000 
       00000 
       00000 
       00000 
       00000 
       00000 
       00000 
       00000 
       00000 
       00000 
       00000 
       00000 
       00000 
       00000 
       00000 
       00000 
       00000 
       00000 
       00000 
       00000 
       00000 
       00000 
       00000 
       00000 
       00000 
       00000 
       00000 
       00000 
       00000 
       00000 
       00000 
       00000 
       00000 
       00000 
       00000 
       00000 
       00000 
       00000 
       00000 
       00000 
       00000 
       00000 
       00000 
       00000 
       00000 
       00000 
       00000 
       00000 
       00000 
       00000 
       00000 
       00000 
       00000 
       00000 
       00000 
       00000 
       00000 
       00000 
       00000 
       00000 
       00000 
       00000 
       00000 
       00000 
       00000 
       00000 
       00000 
       00000 
       00000 
       00000 
       00000 
       00000 
       00000 
       00000 
       00000 
       00000 
       00000 
       00000 
       00000 
       00000 
       00000 
       00000 
       00000 
       00000 
       00000 
       00000 
       00000 
       00000 
       00000 
       00000 
       00000 
       00000 
       00000 
       00000 
       00000 
       00000 
       00000 
       00000 
       00000 
       00000 
       00000 
       00000 
       00000 
       00000 
       00000 
       00000 
       00000 
       00000 
       00000 
       00000 
       00000 
       00000 
       00000 
       00000 
       00000 
       00000 
       00000 
       00000 
       00000 
       00000 
       00000 
       00000 
       00000 
       00000 
       00000 
       00000 
       00000 
       00000 
       00000 
       00000 
       00000 
       00000 
       00000 
       00000 
       00000 
       00000 
       00000 
       00000 
       00000 
       00000 
       00000 
       00000 
       00000 
       00000 
       00000 
       00000 
       00000 
       00000 
       00000 
       00000 
       00000 
       00000 
       00000 
       00000 
       00000 
       00000 
       00000 
       00000 
       00000 
       00000 
       00000 
       00000 
       00000 
       00000 
       00000 
       00000 
       00000 
       00000 
       00000 
       00000 
       00000 
       00000 
       00000 
       00000 
       00000 
       00000 
       00000 
       00000 
       00000 
       00000 
       00000 
       00000 
       00000 
       00000 
       00000 
       00000 
       00000 
       00000 
       00000 
       00000 
       00000 
       00000 
       00000 
       00000 
       00000 
       00000 
       00000 
       00000 
       00000 
       00000 
       00000 
       00000 
       00000 
       00000 
       00000 
       00000 
       00000 
       00000 
       00000 
       00000 
       00000 
       00000 
       00000 
       00000 
       00000 
       00000 
       00000 
       00000 
       00000 
       00000 
       00000 
       00000 
       00000 
       00000 
       00000 
       00000 
       00000 
       00000 
       00000 
       00000 
       00000 
       00000 
       00000 
       00000 
       00000 
       00000 
       00000 
       00000 
       00000 
       00000 
       00000 
       00000 
       00000 
       00000 
       00000 
       00000 
       00000 
       00000 
       00000 
       00000 
       00000 
       00000 
       00000 
       00000 
       00000 
       00000 
       00000 
       00000 
       00000 
       00000 
       00000 
       00000 
       00000 
       00000 
       00000 
       00000 
       00000 
       00000 
       00000 
       00000 
       00000 
       00000 
       00000 
       00000 
       00000 
       00000 
       00000 
       00000 
       00000 
       00000 
       00000 
       00000 
       00000 
       00000 
       00000 
       00000 
       00000 
       00000 
       00000 
       00000 
       00000 
       00000 
       00000 
       00000 
       00000 
       00000 
       00000 
       00000 
       00000 
       00000 
       00000 
       00000 
       00000 
       00000 
       00000 
       00000 
       00000 
       00000 
       00000 
       00000 
       00000 
       00000 
       00000 
       00000 
       00000 
       00000 
       00000 
       00000 
       00000 
       00000 
       00000 
       00000 
       00000 
       00000 
       00000 
       00000 
       00000 
       00000 
       00000 
       00000 
       00000 
       00000 
       00000 
       00000 
       00000 
       00000 
       00000 
       00000 
       00000 
       00000 
       00000 
       00000 
       00000 
       00000 
       00000 
       00000 
       00000 
       00000 
       00000 
       00000 
       00000 
       00000 
       00000 
       00000 
       00000 
       00000 
       00000 
       00000 
       00000 
       00000 
       00000 
       00000 
       00000 
       00000 
       00000 
       00000 
       00000 
       00000 
       00000 
       00000 
       00000 
       00000 
       00000 
       00000 
       00000 
       00000 
       00000 
       00000 
       00000 
       00000 
       00000 
       00000 
       00000 
       00000 
       00000 
       00000 
       00000 
       00000 
       00000 
       00000 
       00000 
       00000 
       00000 
       00000 
       00000 
       00000 
       00000 
       00000 
       00000 
       00000 
       00000 
       00000 
       00000 
       00000 
       00000 
       00000 
       00000 
       00000 
       00000 
       00000 
       00000 
       00000 
       00000 
       00000 
       00000 
       00000 
       00000 
       00000 
       00000 
       00000 
       00000 
       00000 
       00000 
       00000 
       00000 
       00000 
       00000 
       00000 
       00000 
       00000 
       00000 
       00000 
       00000 
       00000 
       00000 
       00000 
       00000 
       00000 
       00000 
       00000 
       00000 
       00000 
       00000 
       00000 
       00000 
       00000 
       00000 
       00000 
       00000 
       00000 
       00000 
       00000 
       00000 
       00000 
       00000 
       00000 
       00000 
       00000 
       00000 
       00000 
       00000 
       00000 
       00000 
       00000 
       00000 
       00000 
       00000 
       00000 
       00000 
       00000 
       00000 
       00000 
       00000 
       00000 
       00000 
       00000 
       00000 
       00000 
       00000 
       00000 
       00000 
       00000 
       00000 
       00000 
       00000 
       00000 
       00000 
       00000 
       00000 
       00000 
       00000 
       00000 
       00000 
       00000 
       00000 
       00000 
       00000 
       00000 
       00000 
       00000 
       00000 
       00000 
       00000 
       00000 
       00000 
       00000 
       00000 
       00000 
       00000 
       00000 
       00000 
       00000 
       00000 
       00000 
       00000 
       00000 
       00000 
       00000 
       00000 
       00000 
       00000 
       00000 
       00000 
       00000 
       00000 
       00000 
       00000 
       00000 
       00000 
       00000 
       00000 
       00000 
       00000 
       00000 
       00000 
       00000 
       00000 
       00000 
       00000 
       00000 
       00000 
       00000 
       00000 
       00000 
       00000 
       00000 
       00000 
       00000 
       00000 
       00000 
       00000 
       00000 
       00000 
       00000 
       00000 
       00000 
       00000 
       00000 
       00000 
       00000 
       00000 
       00000 
       00000 
       00000 
       00000 
       00000 
       00000 
       00000 
       00000 
       00000 
       00000 
       00000 
       00000 
       00000 
       00000 
       00000 
       00000 
       00000 
       00000 
       00000 
       00000 
       00000 
       00000 
       00000 
       00000 
       00000 
       00000 
       00000 
       00000 
       00000 
       00000 
       00000 
       00000 
       00000 
       00000 
       00000 
       00000 
       00000 
       00000 
       00000 
       00000 
       00000 
       00000 
       00000 
       00000 
       00000 
       00000 
       00000 
       00000 
       00000 
       00000 
       00000 
       00000 
       00000 
       00000 
       00000 
       00000 
       00000 
       00000 
       00000 
       00000 
       00000 
       00000 
       00000 
       00000 
       00000 
       00000 
       00000 
       00000 
       00000 
       00000 
       00000 
       00000 
       00000 
       00000 
       00000 
       00000 
       00000 
       00000 
       00000 
       00000 
       00000 
       00000 
       00000 
       00000 
       00000 
       00000 
       00000 
       00000 
       00000 
       00000 
       00000 
       00000 
       00000 
       00000 
       00000 
       00000 
       00000 
       00000 
       00000 
       00000 
       00000 
       00000 
       00000 
       00000 
       00000 
       00000 
       00000 
       00000 
       00000 
       00000 
       00000 
       00000 
       00000 
       00000 
       00000 
       00000 
       00000 
       00000 
       00000 
       00000 
       00000 
       00000 
       00000 
       00000 
       00000 
       00000 
       00000 
       00000 
       00000 
       00000 
       00000 
       00000 
       00000 
       00000 
       00000 
       00000 
       00000 
       00000 
       00000 
       00000 
       00000 
       00000 
       00000 
       00000 
       00000 
       00000 
       00000 
       00000 
       00000 
       00000 
       00000 
       00000 
       00000 
       00000 
       00000 
       00000 
       00000 
       00000 
       00000 
       00000 
       00000 
       00000 
       00000 
       00000 
       00000 
       00000 
       00000 
       00000 
       00000 
       00000 
       00000 
       00000 
       00000 
       00000 
       00000 
       00000 
       00000 
       00000 
       00000 
       00000 
       00000 
       00000 
       00000 
       00000 
       00000 
       00000 
       00000 
       00000 
       00000 
       00000 
       00000 
       00000 
       00000 
       00000 
       00000 
       00000 
       00000 
       00000 
       00000 
       00000 
       00000 
       00000 
       00000 
       00000 
       00000 
       00000 
       00000 
       00000 
       00000 
       00000 
       00000 
       00000 
       00000 
       00000 
       00000 
       00000 
       00000 
       00000 
       00000 
       00000 
       00000 
       00000 
       00000 
       00000 
       00000 
       00000 
       00000 
       00000 
       00000 
       00000 
       00000 
       00000 
       00000 
       00000 
       00000 
       00000 
       00000 
       00000 
       00000 
       00000 
       00000 
       00000 
       00000 
       00000 
       00000 
       00000 
       00000 
       00000 
       00000 
       00000 
       00000 
       00000 
       00000 
       00000 
       00000 
       00000 
       00000 
       00000 
       00000 
       00000 
       00000 
       00000 
       00000 
       00000 
       00000 
       00000 
       00000 
       00000 
       00000 
       00000 
       00000 
       00000 
       00000 
       00000 
       00000 
       00000 
       00000 
       00000 
       00000 
       00000 
       00000 
       00000 
       00000 
       00000 
       00000 
       00000 
       00000 
       00000 
       00000 
       00000 
       00000 
       00000 
       00000 
       00000 
       00000 
       00000 
       00000 
       00000 
       00000 
       00000 
       00000 
       00000 
       00000 
       00000 
       00000 
       00000 
       00000 
       00000 
       00000 
       00000 
       00000 
       00000 
       00000 
       00000 
       00000 
       00000 
       00000 
       00000 
       00000 
       00000 
       00000 
       00000 
       00000 
       00000 
       00000 
       00000 
       00000 
       00000 
       00000 
       00000 
       00000 
       00000 
       00000 
       00000 
       00000 
       00000 
       00000 
       00000 
       00000 
       00000 
       00000 
       00000 
       00000 
       00000 
       00000 
       00000 
       00000 
       00000 
       00000 
       00000 
       00000 
       00000 
       00000 
       00000 
       00000 
       00000 
       00000 
       00000 
       00000 
       00000 
       00000 
       00000 
       00000 
       00000 
       00000 
       00000 
       00000 
       00000 
       00000 
       00000 
       00000 
       00000 
       00000 
       00000 
       00000 
       00000 
       00000 
       00000 
       00000 
       00000 
       00000 
       00000 
       00000 
       00000 
       00000 
       00000 
       00000 
       00000 
       00000 
       00000 
       00000 
       00000 
       00000 
       00000 
       00000 
       00000 
       00000 
       00000 
       00000 
       00000 
       00000 
       00000 
       00000 
       00000 
       00000 
       00000 
       00000 
       00000 
       00000 
       00000 
       00000 
       00000 
       00000 
       00000 
       00000 
       00000 
       00000 
       00000 
       00000 
       00000 
       00000 
       00000 
       00000 
       00000 
       00000 
       00000 
       00000 
       00000 
       00000 
       00000 
       00000 
       00000 
       00000 
       00000 
       00000 
       00000 
       00000 
       00000 
       00000 
       00000 
       00000 
       00000 
       00000 
       00000 
       00000 
       00000 
       00000 
       00000 
       00000 
       00000 
       00000 
       00000 
       00000 
       00000 
       00000 
       00000 
       00000 
       00000 
       00000 
       00000 
       00000 
       00000 
       00000 
       00000 
       00000 
       00000 
       00000 
       00000 
       00000 
       00000 
       00000 
       00000 
       00000 
       00000 
       00000 
       00000 
       00000 
       00000 
       00000 
       00000 
       00000 
       00000 
       00000 
       00000 
       00000 
       00000 
       00000 
       00000 