<?xml version="1.0" encoding="utf-8"?>
<VTKFile byte_order="LittleEndian" type="UnstructuredGrid" version="0.1">
   <UnstructuredGrid>
      <Piece NumberOfCells="1448" NumberOfPoints="764">
         <Points>
            <DataArray Name="Points" NumberOfComponents="3" format="ascii" type="Float32">
0.0000 0.0526 0.0000
0.0000 0.1053 0.0000
0.0000 0.1579 0.0000
0.0000 0.2105 0.0000
0.0000 0.2632 0.0000
0.0000 0.3158 0.0000
0.0000 0.3684 0.0000
0.0000 0.4211 0.0000
0.0000 0.4737 0.0000
0.0000 0.5263 0.0000
0.0000 0.5789 0.0000
0.0000 0.6316 0.0000
0.0000 0.6842 0.0000
0.0000 0.7368 0.0000
0.0000 0.7895 0.0000
0.0000 0.8421 0.0000
0.0000 0.8947 0.0000
0.0000 0.9474 0.0000
0.0000 1.0000 0.0000
0.0526 0.0526 0.0000
0.0526 0.1053 0.0000
0.0526 0.1579 0.0000
0.0526 0.2105 0.0000
0.0526 0.2632 0.0000
0.0526 0.3158 0.0000
0.0526 0.3684 0.0000
0.0526 0.4211 0.0000
0.0526 0.4737 0.0000
0.0526 0.5263 0.0000
0.0526 0.5789 0.0000
0.0526 0.6316 0.0000
0.0526 0.6842 0.0000
0.0526 0.7368 0.0000
0.0526 0.7895 0.0000
0.0526 0.8421 0.0000
0.0526 0.8947 0.0000
0.0526 0.9474 0.0000
0.0526 1.0000 0.0000
0.1053 0.0526 0.0000
0.1053 0.1053 0.0000
0.1053 0.1579 0.0000
0.1053 0.2105 0.0000
0.1053 0.2632 0.0000
0.1053 0.3158 0.0000
0.1053 0.3684 0.0000
0.1053 0.4211 0.0000
0.1053 0.4737 0.0000
0.1053 0.5263 0.0000
0.1053 0.5789 0.0000
0.1053 0.6316 0.0000
0.1053 0.6842 0.0000
0.1053 0.7368 0.0000
0.1053 0.7895 0.0000
0.1053 0.8421 0.0000
0.1053 0.8947 0.0000
0.1053 0.9474 0.0000
0.1053 1.0000 0.0000
0.1579 0.0526 0.0000
0.1579 0.1053 0.0000
0.1579 0.1579 0.0000
0.1579 0.2105 0.0000
0.1579 0.2632 0.0000
0.1579 0.3158 0.0000
0.1579 0.3684 0.0000
0.1579 0.4211 0.0000
0.1579 0.4737 0.0000
0.1579 0.5263 0.0000
0.1579 0.5789 0.0000
0.1579 0.6316 0.0000
0.1579 0.6842 0.0000
0.1579 0.7368 0.0000
0.1579 0.7895 0.0000
0.1579 0.8421 0.0000
0.1579 0.8947 0.0000
0.1579 0.9474 0.0000
0.1579 1.0000 0.0000
0.2105 0.0526 0.0000
0.2105 0.1053 0.0000
0.2105 0.1579 0.0000
0.2105 0.2105 0.0000
0.2105 0.2632 0.0000
0.2105 0.3158 0.0000
0.2105 0.3684 0.0000
0.2105 0.4211 0.0000
0.2105 0.4737 0.0000
0.2105 0.5263 0.0000
0.2105 0.5789 0.0000
0.2105 0.6316 0.0000
0.2105 0.6842 0.0000
0.2105 0.7368 0.0000
0.2105 0.7895 0.0000
0.2105 0.8421 0.0000
0.2105 0.8947 0.0000
0.2105 0.9474 0.0000
0.2105 1.0000 0.0000
0.2632 0.0526 0.0000
0.2632 0.1053 0.0000
0.2632 0.1579 0.0000
0.2632 0.2105 0.0000
0.2632 0.2632 0.0000
0.2632 0.3158 0.0000
0.2632 0.3684 0.0000
0.2632 0.4211 0.0000
0.2632 0.4737 0.0000
0.2632 0.5263 0.0000
0.2632 0.5789 0.0000
0.2632 0.6316 0.0000
0.2632 0.6842 0.0000
0.2632 0.7368 0.0000
0.2632 0.7895 0.0000
0.2632 0.8421 0.0000
0.2632 0.8947 0.0000
0.2632 0.9474 0.0000
0.2632 1.0000 0.0000
0.3158 0.0526 0.0000
0.3158 0.1053 0.0000
0.3158 0.1579 0.0000
0.3158 0.2105 0.0000
0.3158 0.2632 0.0000
0.3158 0.3158 0.0000
0.3158 0.3684 0.0000
0.3158 0.4211 0.0000
0.3158 0.4737 0.0000
0.3158 0.5263 0.0000
0.3158 0.5789 0.0000
0.3158 0.6316 0.0000
0.3158 0.6842 0.0000
0.3158 0.7368 0.0000
0.3158 0.7895 0.0000
0.3158 0.8421 0.0000
0.3158 0.8947 0.0000
0.3158 0.9474 0.0000
0.3158 1.0000 0.0000
0.3684 0.0526 0.0000
0.3684 0.1053 0.0000
0.3684 0.1579 0.0000
0.3684 0.2105 0.0000
0.3684 0.2632 0.0000
0.3684 0.3158 0.0000
0.3684 0.3684 0.0000
0.3684 0.4211 0.0000
0.3684 0.4737 0.0000
0.3684 0.5263 0.0000
0.3684 0.5789 0.0000
0.3684 0.6316 0.0000
0.3684 0.6842 0.0000
0.3684 0.7368 0.0000
0.3684 0.7895 0.0000
0.3684 0.8421 0.0000
0.3684 0.8947 0.0000
0.3684 0.9474 0.0000
0.3684 1.0000 0.0000
0.4211 0.0526 0.0000
0.4211 0.1053 0.0000
0.4211 0.1579 0.0000
0.4211 0.2105 0.0000
0.4211 0.2632 0.0000
0.4211 0.3158 0.0000
0.4211 0.3684 0.0000
0.4211 0.4211 0.0000
0.4211 0.4737 0.0000
0.4211 0.5263 0.0000
0.4211 0.5789 0.0000
0.4211 0.6316 0.0000
0.4211 0.6842 0.0000
0.4211 0.7368 0.0000
0.4211 0.7895 0.0000
0.4211 0.8421 0.0000
0.4211 0.8947 0.0000
0.4211 0.9474 0.0000
0.4211 1.0000 0.0000
0.4737 0.0526 0.0000
0.4737 0.1053 0.0000
0.4737 0.1579 0.0000
0.4737 0.2105 0.0000
0.4737 0.2632 0.0000
0.4737 0.3158 0.0000
0.4737 0.3684 0.0000
0.4737 0.4211 0.0000
0.4737 0.4737 0.0000
0.4737 0.5789 0.0000
0.4737 0.6316 0.0000
0.4737 0.6842 0.0000
0.4737 0.7368 0.0000
0.4737 0.7895 0.0000
0.4737 0.8421 0.0000
0.4737 0.8947 0.0000
0.4737 0.9474 0.0000
0.4737 1.0000 0.0000
0.5263 0.0526 0.0000
0.5263 0.1053 0.0000
0.5263 0.1579 0.0000
0.5263 0.2105 0.0000
0.5263 0.2632 0.0000
0.5263 0.3158 0.0000
0.5263 0.3684 0.0000
0.5263 0.4211 0.0000
0.5263 0.4737 0.0000
0.5263 0.5263 0.0000
0.5263 0.5789 0.0000
0.5263 0.6316 0.0000
0.5263 0.6842 0.0000
0.5263 0.7368 0.0000
0.5263 0.7895 0.0000
0.5263 0.8421 0.0000
0.5263 0.8947 0.0000
0.5263 0.9474 0.0000
0.5263 1.0000 0.0000
0.5789 0.0526 0.0000
0.5789 0.1053 0.0000
0.5789 0.1579 0.0000
0.5789 0.2105 0.0000
0.5789 0.2632 0.0000
0.5789 0.3158 0.0000
0.5789 0.3684 0.0000
0.5789 0.4211 0.0000
0.5789 0.4737 0.0000
0.5789 0.5263 0.0000
0.5789 0.5789 0.0000
0.5789 0.6316 0.0000
0.5789 0.6842 0.0000
0.5789 0.7368 0.0000
0.5789 0.7895 0.0000
0.5789 0.8421 0.0000
0.5789 0.8947 0.0000
0.5789 0.9474 0.0000
0.5789 1.0000 0.0000
0.6316 0.0526 0.0000
0.6316 0.1053 0.0000
0.6316 0.1579 0.0000
0.6316 0.2105 0.0000
0.6316 0.2632 0.0000
0.6316 0.3158 0.0000
0.6316 0.3684 0.0000
0.6316 0.4211 0.0000
0.6316 0.4737 0.0000
0.6316 0.5263 0.0000
0.6316 0.5789 0.0000
0.6316 0.6316 0.0000
0.6316 0.6842 0.0000
0.6316 0.7368 0.0000
0.6316 0.7895 0.0000
0.6316 0.8421 0.0000
0.6316 0.8947 0.0000
0.6316 0.9474 0.0000
0.6316 1.0000 0.0000
0.6842 0.0526 0.0000
0.6842 0.1053 0.0000
0.6842 0.1579 0.0000
0.6842 0.2105 0.0000
0.6842 0.2632 0.0000
0.6842 0.3158 0.0000
0.6842 0.3684 0.0000
0.6842 0.4211 0.0000
0.6842 0.4737 0.0000
0.6842 0.5263 0.0000
0.6842 0.5789 0.0000
0.6842 0.6316 0.0000
0.6842 0.6842 0.0000
0.6842 0.7368 0.0000
0.6842 0.7895 0.0000
0.6842 0.8421 0.0000
0.6842 0.8947 0.0000
0.6842 0.9474 0.0000
0.6842 1.0000 0.0000
0.7368 0.0526 0.0000
0.7368 0.1053 0.0000
0.7368 0.1579 0.0000
0.7368 0.2105 0.0000
0.7368 0.2632 0.0000
0.7368 0.3158 0.0000
0.7368 0.3684 0.0000
0.7368 0.4211 0.0000
0.7368 0.4737 0.0000
0.7368 0.5263 0.0000
0.7368 0.5789 0.0000
0.7368 0.6316 0.0000
0.7368 0.6842 0.0000
0.7368 0.7368 0.0000
0.7368 0.7895 0.0000
0.7368 0.8421 0.0000
0.7368 0.8947 0.0000
0.7368 0.9474 0.0000
0.7368 1.0000 0.0000
0.7895 0.0526 0.0000
0.7895 0.1053 0.0000
0.7895 0.1579 0.0000
0.7895 0.2105 0.0000
0.7895 0.2632 0.0000
0.7895 0.3158 0.0000
0.7895 0.3684 0.0000
0.7895 0.4211 0.0000
0.7895 0.4737 0.0000
0.7895 0.5263 0.0000
0.7895 0.5789 0.0000
0.7895 0.6316 0.0000
0.7895 0.6842 0.0000
0.7895 0.7368 0.0000
0.7895 0.7895 0.0000
0.7895 0.8421 0.0000
0.7895 0.8947 0.0000
0.7895 0.9474 0.0000
0.7895 1.0000 0.0000
0.8421 0.0526 0.0000
0.8421 0.1053 0.0000
0.8421 0.1579 0.0000
0.8421 0.2105 0.0000
0.8421 0.2632 0.0000
0.8421 0.3158 0.0000
0.8421 0.3684 0.0000
0.8421 0.4211 0.0000
0.8421 0.4737 0.0000
0.8421 0.5263 0.0000
0.8421 0.5789 0.0000
0.8421 0.6316 0.0000
0.8421 0.6842 0.0000
0.8421 0.7368 0.0000
0.8421 0.7895 0.0000
0.8421 0.8421 0.0000
0.8421 0.8947 0.0000
0.8421 0.9474 0.0000
0.8421 1.0000 0.0000
0.8947 0.0526 0.0000
0.8947 0.1053 0.0000
0.8947 0.1579 0.0000
0.8947 0.2105 0.0000
0.8947 0.2632 0.0000
0.8947 0.3158 0.0000
0.8947 0.3684 0.0000
0.8947 0.4211 0.0000
0.8947 0.4737 0.0000
0.8947 0.5263 0.0000
0.8947 0.5789 0.0000
0.8947 0.6316 0.0000
0.8947 0.6842 0.0000
0.8947 0.7368 0.0000
0.8947 0.7895 0.0000
0.8947 0.8421 0.0000
0.8947 0.8947 0.0000
0.8947 0.9474 0.0000
0.8947 1.0000 0.0000
0.9474 0.0526 0.0000
0.9474 0.1053 0.0000
0.9474 0.1579 0.0000
0.9474 0.2105 0.0000
0.9474 0.2632 0.0000
0.9474 0.3158 0.0000
0.9474 0.3684 0.0000
0.9474 0.4211 0.0000
0.9474 0.4737 0.0000
0.9474 0.5263 0.0000
0.9474 0.5789 0.0000
0.9474 0.6316 0.0000
0.9474 0.6842 0.0000
0.9474 0.7368 0.0000
0.9474 0.7895 0.0000
0.9474 0.8421 0.0000
0.9474 0.8947 0.0000
0.9474 0.9474 0.0000
0.9474 1.0000 0.0000
0.4737 0.5263 0.0000
1.0000 0.0526 0.0000
1.0000 0.1053 0.0000
1.0000 0.1579 0.0000
1.0000 0.2105 0.0000
1.0000 0.2632 0.0000
1.0000 0.3158 0.0000
1.0000 0.3684 0.0000
1.0000 0.4211 0.0000
1.0000 0.4737 0.0000
1.0000 0.5263 0.0000
1.0000 0.5789 0.0000
1.0000 0.6316 0.0000
1.0000 0.6842 0.0000
1.0000 0.7368 0.0000
1.0000 0.7895 0.0000
1.0000 0.8421 0.0000
1.0000 0.8947 0.0000
1.0000 0.9474 0.0000
1.0000 1.0000 0.0000
0.0526 0.0000 0.0000
0.1053 0.0000 0.0000
0.1579 0.0000 0.0000
0.2105 0.0000 0.0000
0.2632 0.0000 0.0000
0.3158 0.0000 0.0000
0.3684 0.0000 0.0000
0.4211 0.0000 0.0000
0.4737 0.0000 0.0000
0.5263 0.0000 0.0000
0.5789 0.0000 0.0000
0.6316 0.0000 0.0000
0.6842 0.0000 0.0000
0.7368 0.0000 0.0000
0.7895 0.0000 0.0000
0.8421 0.0000 0.0000
0.8947 0.0000 0.0000
0.9474 0.0000 0.0000
1.0000 0.0000 0.0000
0.0000 0.0000 0.0000
0.0263 0.0263 0.0000
0.0263 0.0789 0.0000
0.0263 0.1316 0.0000
0.0263 0.1842 0.0000
0.0263 0.2368 0.0000
0.0263 0.2895 0.0000
0.0263 0.3421 0.0000
0.0263 0.3947 0.0000
0.0263 0.4474 0.0000
0.0263 0.5000 0.0000
0.0263 0.5526 0.0000
0.0263 0.6053 0.0000
0.0263 0.6579 0.0000
0.0263 0.7105 0.0000
0.0263 0.7632 0.0000
0.0263 0.8158 0.0000
0.0263 0.8684 0.0000
0.0263 0.9211 0.0000
0.0263 0.9737 0.0000
0.0789 0.0263 0.0000
0.0789 0.0789 0.0000
0.0789 0.1316 0.0000
0.0789 0.1842 0.0000
0.0789 0.2368 0.0000
0.0789 0.2895 0.0000
0.0789 0.3421 0.0000
0.0789 0.3947 0.0000
0.0789 0.4474 0.0000
0.0789 0.5000 0.0000
0.0789 0.5526 0.0000
0.0789 0.6053 0.0000
0.0789 0.6579 0.0000
0.0789 0.7105 0.0000
0.0789 0.7632 0.0000
0.0789 0.8158 0.0000
0.0789 0.8684 0.0000
0.0789 0.9211 0.0000
0.0789 0.9737 0.0000
0.1316 0.0263 0.0000
0.1316 0.0789 0.0000
0.1316 0.1316 0.0000
0.1316 0.1842 0.0000
0.1316 0.2368 0.0000
0.1316 0.2895 0.0000
0.1316 0.3421 0.0000
0.1316 0.3947 0.0000
0.1316 0.4474 0.0000
0.1316 0.5000 0.0000
0.1316 0.5526 0.0000
0.1316 0.6053 0.0000
0.1316 0.6579 0.0000
0.1316 0.7105 0.0000
0.1316 0.7632 0.0000
0.1316 0.8158 0.0000
0.1316 0.8684 0.0000
0.1316 0.9211 0.0000
0.1316 0.9737 0.0000
0.1842 0.0263 0.0000
0.1842 0.0789 0.0000
0.1842 0.1316 0.0000
0.1842 0.1842 0.0000
[...]
         <PointData>
            <DataArray Name="fValues" NumberOfComponents="3" format="ascii" type="Float64">
-6.97264e-08 -9.78021e-06        00000 
 3.18924e-07 -1.89838e-05        00000 
 7.26690e-07 -2.69193e-05        00000 
 1.11379e-06 -3.27596e-05        00000 
 1.43173e-06 -3.55811e-05        00000 
 1.63192e-06 -3.45348e-05        00000 
 1.66132e-06 -2.91412e-05        00000 
 1.47668e-06 -1.96191e-05        00000 
 1.06735e-06 -7.07447e-06        00000 
 4.74794e-07  6.61732e-06        00000 
-2.07373e-07  1.92628e-05        00000 
-8.58849e-07  2.89524e-05        00000 
-1.37135e-06  3.45288e-05        00000 
-1.67871e-06  3.57263e-05        00000 
-1.76455e-06  3.29967e-05        00000 
-1.64969e-06  2.71815e-05        00000 
-1.36370e-06  1.92098e-05        00000 
-9.39255e-07  9.91788e-06        00000 
-2.72217e-23  3.91992e-21        00000 
 1.85090e-07 -9.21936e-06        00000 
-7.80342e-07 -1.85060e-05        00000 
-2.74974e-06 -2.65900e-05        00000 
-5.92979e-06 -3.26649e-05        00000 
-1.03693e-05 -3.57772e-05        00000 
-1.58312e-05 -3.49895e-05        00000 
-2.16645e-05 -2.96966e-05        00000 
-2.68330e-05 -2.00157e-05        00000 
-3.01839e-05 -7.05091e-06        00000 
-3.08905e-05  7.19746e-06        00000 
-2.88234e-05  2.03387e-05        00000 
-2.45961e-05  3.03054e-05        00000 
-1.92545e-05  3.58970e-05        00000 
-1.38386e-05  3.69170e-05        00000 
-9.07535e-06  3.39328e-05        00000 
-5.30236e-06  2.78838e-05        00000 
-2.56413e-06  1.97475e-05        00000 
-7.27618e-07  1.03590e-05        00000 
 2.14123e-07  5.06533e-07        00000 
 6.29140e-07 -8.70603e-06        00000 
-1.45455e-06 -1.80023e-05        00000 
-5.60075e-06 -2.64014e-05        00000 
-1.21824e-05 -3.31239e-05        00000 
-2.13952e-05 -3.71213e-05        00000 
-3.28530e-05 -3.71656e-05        00000 
-4.52272e-05 -3.22142e-05        00000 
-5.62156e-05 -2.20190e-05        00000 
-6.31320e-05 -7.66838e-06        00000 
-6.40346e-05  8.37401e-06        00000 
-5.87223e-05  2.30143e-05        00000 
-4.88253e-05  3.36589e-05        00000 
-3.69197e-05  3.90466e-05        00000 
-2.53774e-05  3.93024e-05        00000 
-1.56800e-05  3.54331e-05        00000 
-8.36555e-06  2.86954e-05        00000 
-3.35020e-06  2.01937e-05        00000 
-3.31286e-07  1.07591e-05        00000 
 9.04484e-07  9.55686e-07        00000 
 1.52820e-06 -8.01344e-06        00000 
-1.39626e-06 -1.71928e-05        00000 
-7.25782e-06 -2.59420e-05        00000 
-1.68147e-05 -3.36587e-05        00000 
-3.07091e-05 -3.92287e-05        00000 
-4.87714e-05 -4.09479e-05        00000 
-6.91594e-05 -3.69132e-05        00000 
-8.79203e-05 -2.59877e-05        00000 
-9.98973e-05 -9.10848e-06        00000 
-1.01129e-04  1.03409e-05        00000 
-9.12642e-05  2.76941e-05        00000 
-7.37716e-05  3.93062e-05        00000 
-5.37349e-05  4.39284e-05        00000 
-3.53321e-05  4.25273e-05        00000 
-2.06979e-05  3.70051e-05        00000 
-1.02212e-05  2.91583e-05        00000 
-3.37905e-06  2.02033e-05        00000 
 5.37486e-07  1.08180e-05        00000 
 2.03532e-06  1.31992e-06        00000 
 2.86349e-06 -6.97864e-06        00000 
-4.62492e-07 -1.56382e-05        00000 
-7.28799e-06 -2.45009e-05        00000 
-1.89413e-05 -3.33479e-05        00000 
-3.69790e-05 -4.12127e-05        00000 
-6.22548e-05 -4.59420e-05        00000 
-9.30425e-05 -4.41009e-05        00000 
-1.23330e-04 -3.26922e-05        00000 
-1.43485e-04 -1.17483e-05        00000 
-1.45288e-04  1.34921e-05        00000 
-1.28047e-04  3.52406e-05        00000 
-9.91577e-05  4.76893e-05        00000 
-6.83715e-05  5.02445e-05        00000 
-4.22867e-05  4.57166e-05        00000 
-2.31455e-05  3.76742e-05        00000 
-1.03615e-05  2.84768e-05        00000 
-2.46257e-06  1.92480e-05        00000 
 1.87953e-06  1.02892e-05        00000 
 3.48084e-06  1.55777e-06        00000 
 4.34827e-06 -5.45943e-06        00000 
 1.16774e-06 -1.29172e-05        00000 
-5.60071e-06 -2.12184e-05        00000 
-1.78057e-05 -3.07448e-05        00000 
-3.84352e-05 -4.13757e-05        00000 
-7.06831e-05 -5.08606e-05        00000 
-1.15088e-04 -5.41012e-05        00000 
-1.63776e-04 -4.34134e-05        00000 
-1.98818e-04 -1.66036e-05        00000 
-2.01701e-04  1.88770e-05        00000 
-1.70847e-04  4.71399e-05        00000 
-1.23372e-04  5.93947e-05        00000 
-7.80996e-05  5.68046e-05        00000 
-4.42752e-05  4.71077e-05        00000 
-2.21143e-05  3.58448e-05        00000 
-8.61439e-06  2.56521e-05        00000 
-7.41024e-07  1.67941e-05        00000 
 3.42251e-06  8.93909e-06        00000 
 4.92406e-06  1.62737e-06        00000 
 5.47769e-06 -3.45746e-06        00000 
 2.94759e-06 -8.87944e-06        00000 
-2.67628e-06 -1.54878e-05        00000 
-1.34645e-05 -2.42983e-05        00000 
-3.32250e-05 -3.65082e-05        00000 
-6.96945e-05 -5.28245e-05        00000 
-1.29888e-04 -6.54898e-05        00000 
-2.09588e-04 -6.14921e-05        00000 
-2.74985e-04 -2.47218e-05        00000 
-2.80251e-04  2.76103e-05        00000 
-2.20901e-04  6.73235e-05        00000 
-1.41047e-04  7.33997e-05        00000 
-7.81199e-05  6.07249e-05        00000 
-3.90758e-05  4.31293e-05        00000 
-1.75229e-05  2.96813e-05        00000 
-5.41290e-06  1.98893e-05        00000 
 1.24677e-06  1.25766e-05        00000 
 4.66042e-06  6.69489e-06        00000 
 5.87883e-06  1.49780e-06        00000 
 5.69153e-06 -1.23403e-06        00000 
 4.10435e-06 -3.96539e-06        00000 
 3.50443e-07 -7.66618e-06        00000 
-7.20471e-06 -1.34998e-05        00000 
-2.24232e-05 -2.37688e-05        00000 
-5.26973e-05 -4.22353e-05        00000 
-1.25383e-04 -7.62550e-05        00000 
-2.53608e-04 -8.56495e-05        00000 
-3.91621e-04 -4.72431e-05        00000 
-4.03257e-04  5.12968e-05        00000 
-2.72874e-04  9.57960e-05        00000 
-1.39126e-04  8.85365e-05        00000 
-6.06102e-05  5.11544e-05        00000 
-2.75785e-05  3.02348e-05        00000 
-1.06404e-05  1.82999e-05        00000 
-1.94128e-06  1.13784e-05        00000 
 2.68490e-06  6.96958e-06        00000 
 5.00948e-06  3.79652e-06        00000 
 5.84855e-06  1.16463e-06        00000 
 4.64565e-06  6.75407e-07        00000 
 3.99379e-06  6.51606e-07        00000 
 2.22504e-06  3.70775e-07        00000 
-1.61286e-06 -7.71441e-07        00000 
-9.42636e-06 -4.34700e-06        00000 
-2.85363e-05 -1.50470e-05        00000 
-6.70072e-05 -4.37192e-05        00000 
-2.67008e-04 -1.48472e-04        00000 
-5.90130e-04 -5.56009e-05        00000 
-6.27147e-04  6.22072e-05        00000 
-2.97304e-04  1.73349e-04        00000 
-7.71465e-05  5.58390e-05        00000 
-3.47777e-05  2.21162e-05        00000 
-1.33488e-05  8.86000e-06        00000 
-4.30900e-06  3.92387e-06        00000 
 3.90357e-07  1.97799e-06        00000 
 2.83770e-06  1.19242e-06        00000 
 4.08464e-06  8.44709e-07        00000 
 4.56162e-06  6.62632e-07        00000 
 2.45375e-06  1.63047e-06        00000 
 2.55899e-06  3.40117e-06        00000 
 2.38537e-06  5.58423e-06        00000 
 1.76213e-06  8.37333e-06        00000 
-1.06966e-07  1.18734e-05        00000 
-2.81112e-06  1.58596e-05        00000 
-2.41961e-05  1.66289e-05        00000 
-1.81119e-06 -2.77080e-07        00000 
-1.02501e-03 -3.68339e-04        00000 
-9.02618e-06  9.58990e-06        00000 
-3.18975e-05 -1.34923e-05        00000 
-6.98133e-06 -1.43134e-05        00000 
-3.17106e-06 -1.08670e-05        00000 
-4.43793e-07 -7.63846e-06        00000 
 8.22393e-07 -5.02950e-06        00000 
 1.55256e-06 -2.99406e-06        00000 
 1.95941e-06 -1.36095e-06        00000 
 2.16688e-06  6.63469e-08        00000 
-2.74330e-07  1.20135e-06        00000 
 4.73803e-07  3.11734e-06        00000 
 1.64062e-06  5.47427e-06        00000 
 3.50498e-06  8.55637e-06        00000 
 7.07699e-06  1.27032e-05        00000 
 1.24277e-05  1.85149e-05        00000 
 3.82582e-05  2.54520e-05        00000 
 2.56922e-05  3.89648e-05        00000 
 1.02825e-03 -1.98119e-04        00000 
 1.08134e-03  1.76307e-04        00000 
 1.08017e-05 -5.71707e-05        00000 
 3.33341e-05 -3.31065e-05        00000 
 8.21628e-06 -2.26652e-05        00000 
 4.10969e-06 -1.51933e-05        00000 
 1.30168e-06 -1.02119e-05        00000 
 7.29747e-08 -6.69406e-06        00000 
-5.40715e-07 -4.13451e-06        00000 
-7.73638e-07 -2.17374e-06        00000 
-7.55751e-07 -5.26211e-07        00000 
-2.69185e-06 -5.67789e-07        00000 
-1.19920e-06 -2.09644e-07        00000 
 1.47461e-06 -6.37639e-08        00000 
 6.31360e-06 -5.63674e-07        00000 
 1.52358e-05 -2.92010e-06        00000 
 3.53334e-05 -1.10206e-05        00000 
 7.40780e-05 -3.39412e-05        00000 
 2.64760e-04 -1.31241e-04        00000 
 6.16714e-04 -7.54034e-05        00000 
 6.26211e-04  5.99041e-05        00000 
 2.63458e-04  1.24520e-04        00000 
 6.73564e-05  2.52534e-05        00000 
 3.07925e-05  4.83256e-06        00000 
 1.17866e-05 -1.51060e-06        00000 
 3.80088e-06 -2.69974e-06        00000 
-3.05780e-07 -2.48648e-06        00000 
-2.34428e-06 -1.94509e-06        00000 
-3.25368e-06 -1.43114e-06        00000 
-3.41490e-06 -1.02142e-06        00000 
-4.12014e-06 -3.15819e-06        00000 
-1.69546e-06 -5.39563e-06        00000 
 2.86840e-06 -8.61062e-06        00000 
 1.11862e-05 -1.38553e-05        00000 
 2.70176e-05 -2.33086e-05        00000 
 5.75800e-05 -4.07424e-05        00000 
 1.29406e-04 -7.45197e-05        00000 
 2.62644e-04 -9.02009e-05        00000 
 4.04753e-04 -5.03964e-05        00000 
 4.05599e-04  4.18246e-05        00000 
 2.61102e-04  8.34864e-05        00000 
 1.25119e-04  6.87707e-05        00000 
 5.29300e-05  3.50805e-05        00000 
 2.33075e-05  1.85650e-05        00000 
 8.35284e-06  9.96385e-06        00000 
 8.34409e-07  5.35978e-06        00000 
-3.01218e-06  2.54502e-06        00000 
-4.76750e-06  4.82507e-07        00000 
-5.15159e-06 -1.35554e-06        00000 
-4.34447e-06 -5.84718e-06        00000 
-9.54529e-07 -1.07868e-05        00000 
 5.44591e-06 -1.69943e-05        00000 
 1.69136e-05 -2.54647e-05        00000 
 3.72407e-05 -3.74592e-05        00000 
 7.41626e-05 -5.39750e-05        00000 
 1.35769e-04 -6.80867e-05        00000 
 2.17605e-04 -6.49659e-05        00000 
 2.83237e-04 -2.89665e-05        00000 
 2.82807e-04  2.34734e-05        00000 
 2.15661e-04  6.00151e-05        00000 
 1.32347e-04  6.34337e-05        00000 
 7.02022e-05  4.94896e-05        00000 
 3.35892e-05  3.32244e-05        00000 
 1.39543e-05  2.16700e-05        00000 
 3.23987e-06  1.36122e-05        00000 
-2.41049e-06  7.69560e-06        00000 
-5.06732e-06  2.88428e-06        00000 
-5.69774e-06 -1.50547e-06        00000 
-3.61979e-06 -8.04312e-06        00000 
 4.61159e-07 -1.51057e-05        00000 
 8.03111e-06 -2.31322e-05        00000 
 2.09591e-05 -3.25260e-05        00000 
 4.22725e-05 -4.32410e-05        00000 
 7.53626e-05 -5.31605e-05        00000 
 1.20833e-04 -5.69269e-05        00000 
 1.70344e-04 -4.65839e-05        00000 
 2.04491e-04 -1.95170e-05        00000 
 2.03877e-04  1.57590e-05        00000 
 1.68471e-04  4.29388e-05        00000 
 1.17907e-04  5.33551e-05        00000 
 7.19231e-05  4.96023e-05        00000 
 3.88983e-05  3.97589e-05        00000 
 1.80414e-05  2.92081e-05        00000 
 5.76653e-06  2.00188e-05        00000 
-1.07207e-06  1.21508e-05        00000 
-4.39134e-06  5.14659e-06        00000 
-5.21496e-06 -1.48307e-06        00000 
-2.45252e-06 -9.47082e-06        00000 
 1.80733e-06 -1.78468e-05        00000 
 9.47337e-06 -2.65353e-05        00000 
 2.19070e-05 -3.53398e-05        00000 
 4.07113e-05 -4.33173e-05        00000 
 6.67580e-05 -4.82581e-05        00000 
 9.82052e-05 -4.65914e-05        00000 
 1.28602e-04 -3.51127e-05        00000 
 1.47710e-04 -1.39583e-05        00000 
 1.47124e-04  1.12928e-05        00000 
 1.26904e-04  3.24523e-05        00000 
 9.56288e-05  4.39107e-05        00000 
 6.36970e-05  4.55428e-05        00000 
 3.76011e-05  4.05948e-05        00000 
 1.91069e-05  3.26619e-05        00000 
 7.22386e-06  2.39304e-05        00000 
 2.48599e-07  1.52987e-05        00000 
-3.24742e-06  6.91955e-06        00000 
-4.12967e-06 -1.32057e-06        00000 
-1.32787e-06 -1.01580e-05        00000 
 2.52917e-06 -1.91566e-05        00000 
 9.24450e-06 -2.77902e-05        00000 
 1.96031e-05 -3.54760e-05        00000 
 3.42399e-05 -4.10903e-05        00000 
 5.29282e-05 -4.28720e-05        00000 
 7.36676e-05 -3.88221e-05        00000 
 9.22365e-05 -2.77566e-05        00000 
 1.03222e-04 -1.06868e-05        00000 
 1.02679e-04  8.78861e-06        00000 
 9.06814e-05  2.58480e-05        00000 
 7.13167e-05  3.68894e-05        00000 
 5.01082e-05  4.09098e-05        00000 
 3.13158e-05  3.91106e-05        00000 
 1.69054e-05  3.34995e-05        00000 
 7.02810e-06  2.58267e-05        00000 
 9.66924e-07  1.71912e-05        00000 
-2.13280e-06  8.14910e-06        00000 
-2.89749e-06 -1.05646e-06        00000 
-5.34390e-07 -1.03063e-05        00000 
 2.41941e-06 -1.94970e-05        00000 
 7.40002e-06 -2.78014e-05        00000 
 1.47741e-05 -3.44841e-05        00000 
 2.46777e-05 -3.84776e-05        00000 
 3.66359e-05 -3.85110e-05        00000 
 4.91835e-05 -3.34965e-05        00000 
 5.98571e-05 -2.31751e-05        00000 
 6.58698e-05 -8.69399e-06        00000 
 6.53482e-05  7.37867e-06        00000 
 5.83650e-05  2.18693e-05        00000 
 4.69267e-05  3.22050e-05        00000 
 3.39143e-05  3.72352e-05        00000 
 2.18282e-05  3.72168e-05        00000 
 1.21137e-05  3.32345e-05        00000 
 5.18890e-06  2.65504e-05        00000 
 8.46149e-07  1.82195e-05        00000 
-1.35004e-06  8.96456e-06        00000 
-1.81781e-06 -7.26935e-07        00000 
-1.30689e-07 -1.01589e-05        00000 
 1.57117e-06 -1.93288e-05        00000 
 4.36793e-06 -2.73464e-05        00000 
 8.32578e-06 -3.33893e-05        00000 
 1.34158e-05 -3.64866e-05        00000 
 1.93026e-05 -3.56778e-05        00000 
 2.52209e-05 -3.03391e-05        00000 
 3.00306e-05 -2.05880e-05        00000 
 3.25408e-05 -7.55663e-06        00000 
 3.20054e-05  6.70955e-06        00000 
 2.85020e-05  1.97882e-05        00000 
 2.29143e-05  2.96184e-05        00000 
 1.65255e-05  3.50452e-05        00000 
 1.05089e-05  3.59291e-05        00000 
 5.60951e-06  3.28784e-05        00000 
 2.10710e-06  2.68446e-05        00000 
-3.98361e-08  1.87942e-05        00000 
-9.68156e-07  9.54833e-06        00000 
-9.34781e-07 -3.62995e-07        00000 
-1.15506e-03  4.23483e-04        00000 
-6.97264e-08 -9.78021e-06        00000 
 3.18924e-07 -1.89838e-05        00000 
 7.26690e-07 -2.69193e-05        00000 
 1.11379e-06 -3.27596e-05        00000 
 1.43173e-06 -3.55811e-05        00000 
 1.63192e-06 -3.45348e-05        00000 
 1.66132e-06 -2.91412e-05        00000 
 1.47668e-06 -1.96191e-05        00000 
 1.06735e-06 -7.07447e-06        00000 
 4.74794e-07  6.61732e-06        00000 
-2.07373e-07  1.92628e-05        00000 
-8.58849e-07  2.89524e-05        00000 
-1.37135e-06  3.45288e-05        00000 
-1.67871e-06  3.57263e-05        00000 
-1.76455e-06  3.29967e-05        00000 
-1.64969e-06  2.71815e-05        00000 
-1.36370e-06  1.92098e-05        00000 
-9.39255e-07  9.91788e-06        00000 
-2.17773e-22  1.00720e-21        00000 
 2.14123e-07  5.06533e-07        00000 
 9.04484e-07  9.55686e-07        00000 
 2.03532e-06  1.31992e-06        00000 
 3.48084e-06  1.55777e-06        00000 
 4.92406e-06  1.62737e-06        00000 
 5.87883e-06  1.49780e-06        00000 
 5.84855e-06  1.16463e-06        00000 
 4.56162e-06  6.62632e-07        00000 
 2.16688e-06  6.63469e-08        00000 
-7.55751e-07 -5.26211e-07        00000 
-3.41490e-06 -1.02142e-06        00000 
-5.15159e-06 -1.35554e-06        00000 
-5.69774e-06 -1.50547e-06        00000 
-5.21496e-06 -1.48307e-06        00000 
-4.12967e-06 -1.32057e-06        00000 
-2.89749e-06 -1.05646e-06        00000 
-1.81781e-06 -7.26935e-07        00000 
-9.34781e-07 -3.62995e-07        00000 
-9.52758e-23        00000        00000 
-5.10406e-23 -2.17773e-21        00000 
 9.03709e-08 -4.61696e-06        00000 
-9.56933e-08 -1.42904e-05        00000 
-6.38449e-07 -2.30457e-05        00000 
-1.73788e-06 -3.01781e-05        00000 
-3.47354e-06 -3.47892e-05        00000 
-5.81532e-06 -3.59272e-05        00000 
-8.56201e-06 -3.28221e-05        00000 
-1.13188e-05 -2.52399e-05        00000 
-1.35645e-05 -1.38065e-05        00000 
-1.48123e-05 -9.06869e-08        00000 
-1.47984e-05  1.36989e-05        00000 
-1.35856e-05  2.53259e-05        00000 
-1.15171e-05  3.31539e-05        00000 
-9.05675e-06  3.64839e-05        00000 
-6.61992e-06  3.55006e-05        00000 
-4.47601e-06  3.09572e-05        00000 
-2.73933e-06  2.38134e-05        00000 
-1.40953e-06  1.49863e-05        00000 
-3.53796e-07  5.19737e-06        00000 
 4.92442e-07 -4.14537e-06        00000 
-3.55156e-07 -1.37470e-05        00000 
-2.68453e-06 -2.26458e-05        00000 
-6.69542e-06 -3.01190e-05        00000 
-1.25786e-05 -3.52673e-05        00000 
-2.02150e-05 -3.70117e-05        00000 
-2.89354e-05 -3.43329e-05        00000 
-3.74196e-05 -2.67127e-05        00000 
-4.39167e-05 -1.46330e-05        00000 
-4.68348e-05  1.89742e-07        00000 
-4.54291e-05  1.51380e-05        00000 
-4.01558e-05  2.75393e-05        00000 
-3.24232e-05  3.55487e-05        00000 
-2.39419e-05  3.85578e-05        00000 
-1.61023e-05  3.70143e-05        00000 
-9.69069e-06  3.19302e-05        00000 
-4.94002e-06  2.44159e-05        00000 
-1.74786e-06  1.54138e-05        00000 
 2.22612e-08  5.68304e-06        00000 
 1.31654e-06 -3.63873e-06        00000 
-1.57543e-07 -1.30825e-05        00000 
-3.96991e-06 -2.20978e-05        00000 
-1.05870e-05 -3.01522e-05        00000 
-2.04707e-05 -3.63671e-05        00000 
-3.36403e-05 -3.94402e-05        00000 
-4.91161e-05 -3.78108e-05        00000 
-6.45381e-05 -3.02539e-05        00000 
-7.64740e-05 -1.68273e-05        00000 
-8.16211e-05  4.44604e-07        00000 
-7.84472e-05  1.79261e-05        00000 
-6.80237e-05  3.18690e-05        00000 
-5.34073e-05  4.00026e-05        00000 
-3.80469e-05  4.20599e-05        00000 
-2.44772e-05  3.91853e-05        00000 
-1.38786e-05  3.29695e-05        00000 
-6.38444e-06  2.47922e-05        00000 
-1.62339e-06  1.56070e-05        00000 
 8.25881e-07  5.99715e-06        00000 
 2.57779e-06 -3.04117e-06        00000 
 6.99426e-07 -1.20047e-05        00000 
-4.11412e-06 -2.09378e-05        00000 
-1.27156e-05 -2.96232e-05        00000 
-2.61467e-05 -3.73787e-05        00000 
-4.50536e-05 -4.27333e-05        00000 
-6.85800e-05 -4.32748e-05        00000 
-9.33014e-05 -3.63630e-05        00000 
-1.13149e-04 -2.09052e-05        00000 
-1.21725e-04  6.73773e-07        00000 
-1.15882e-04  2.26152e-05        00000 
-9.79544e-05  3.89084e-05        00000 
-7.40161e-05  4.66370e-05        00000 
-5.03209e-05  4.65656e-05        00000 
-3.06793e-05  4.12954e-05        00000 
-1.62741e-05  3.33682e-05        00000 
-6.63909e-06  2.44049e-05        00000 
-8.01623e-07  1.51940e-05        00000 
 2.08033e-06  6.01037e-06        00000 
 4.08658e-06 -2.30683e-06        00000 
 2.13068e-06 -1.02290e-05        00000 
-2.97446e-06 -1.85603e-05        00000 
-1.24926e-05 -2.75208e-05        00000 
-2.83849e-05 -3.69931e-05        00000 
-5.26813e-05 -4.57181e-05        00000 
-8.59012e-05 -5.04521e-05        00000 
-1.23898e-04 -4.58758e-05        00000 
-1.56618e-04 -2.79740e-05        00000 
-1.71042e-04  8.70586e-07        00000 
-1.60655e-04  3.03903e-05        00000 
-1.30379e-04  4.96905e-05        00000 
-9.28921e-05  5.53452e-05        00000 
-5.89032e-05  5.09370e-05        00000 
-3.33568e-05  4.19645e-05        00000 
-1.61821e-05  3.20027e-05        00000 
-5.49731e-06  2.25407e-05        00000 
 6.63794e-07  1.37965e-05        00000 
 3.60541e-06  5.59210e-06        00000 
 5.42487e-06 -1.42489e-06        00000 
 3.74101e-06 -7.59586e-06        00000 