<?xml version="1.0" encoding="utf-8"?>
<VTKFile byte_order="LittleEndian" type="UnstructuredGrid" version="0.1">
   <UnstructuredGrid>
      <Piece NumberOfCells="201" NumberOfPoints="239">
         <Points>
            <DataArray Name="Points" NumberOfComponents="3" format="ascii" type="Float32">
1.0000 -0.8164 0.0000
0.8164 -1.0000 0.0000
0.8702 -0.8702 0.0000
1.0000 -0.6679 0.0000
0.6679 -1.0000 0.0000
0.8513 -0.6949 0.0000
0.6938 -0.8559 0.0000
1.0000 -0.5195 0.0000
0.5195 -1.0000 0.0000
0.6944 -0.7064 0.0000
0.5401 -0.8472 0.0000
0.8380 -0.5357 0.0000
1.0000 -0.3711 0.0000
0.3711 -1.0000 0.0000
0.5598 -0.7198 0.0000
0.6726 -0.5550 0.0000
1.0000 -0.2226 0.0000
0.8219 -0.3745 0.0000
0.3843 -0.8184 0.0000
0.4606 -0.7264 0.0000
0.2226 -1.0000 0.0000
0.5368 -0.6008 0.0000
0.4378 -0.6411 0.0000
1.0000 -0.0742 0.0000
0.8281 -0.2109 0.0000
0.2192 -0.8424 0.0000
0.0742 -1.0000 0.0000
0.3358 -0.6785 0.0000
0.6158 -0.3785 0.0000
0.4118 -0.5608 0.0000
0.4771 -0.4874 0.0000
1.0000 0.0742 0.0000
0.2027 -0.7001 0.0000
0.8353 -0.0547 0.0000
0.0693 -0.8511 0.0000
0.3204 -0.5538 0.0000
0.6532 -0.1923 0.0000
-0.0742 -1.0000 0.0000
0.3393 -0.4111 0.0000
0.1933 -0.5694 0.0000
0.0659 -0.7101 0.0000
0.4474 -0.2855 0.0000
1.0000 0.2226 0.0000
0.8412 0.0982 0.0000
-0.0773 -0.8518 0.0000
0.6718 -0.0320 0.0000
-0.2226 -1.0000 0.0000
0.4989 -0.1479 0.0000
0.1910 -0.4440 0.0000
0.0648 -0.5803 0.0000
-0.0732 -0.7091 0.0000
0.8465 0.2481 0.0000
0.2633 -0.2917 0.0000
1.0000 0.3711 0.0000
0.3367 -0.2086 0.0000
-0.2242 -0.8465 0.0000
0.6781 0.1245 0.0000
0.5169 -0.0056 0.0000
0.0698 -0.4631 0.0000
0.1686 -0.3388 0.0000
-0.3711 -1.0000 0.0000
0.3793 -0.1089 0.0000
-0.0627 -0.5783 0.0000
0.0730 -0.3642 0.0000
0.2106 -0.2106 0.0000
-0.2155 -0.6960 0.0000
0.2579 -0.1489 0.0000
0.1489 -0.2579 0.0000
0.3937 -0.0021 0.0000
0.8496 0.3962 0.0000
-0.0458 -0.4643 0.0000
0.6942 0.2736 0.0000
1.0000 0.5195 0.0000
0.2877 -0.0771 0.0000
-0.3754 -0.8367 0.0000
0.0771 -0.2877 0.0000
0.5052 0.1585 0.0000
-0.0223 -0.3704 0.0000
-0.5195 -1.0000 0.0000
-0.1928 -0.5589 0.0000
0.2978 -0.0000 0.0000
-0.0000 -0.2978 0.0000
0.3780 0.1076 0.0000
-0.1561 -0.4449 0.0000
0.6980 0.4176 0.0000
0.8516 0.5450 0.0000
0.5503 0.3002 0.0000
-0.3678 -0.6692 0.0000
-0.1163 -0.3554 0.0000
1.0000 0.6679 0.0000
0.2877 0.0771 0.0000
-0.0771 -0.2877 0.0000
-0.5348 -0.8289 0.0000
-0.6679 -1.0000 0.0000
-0.3267 -0.5133 0.0000
0.4012 0.2593 0.0000
0.3244 0.1964 0.0000
0.2579 0.1489 0.0000
0.4513 0.3326 0.0000
-0.2656 -0.4006 0.0000
-0.1489 -0.2579 0.0000
-0.2022 -0.3175 0.0000
0.5508 0.4321 0.0000
0.7002 0.5617 0.0000
0.8553 0.6986 0.0000
1.0000 0.8164 0.0000
0.2106 0.2106 0.0000
-0.6956 -0.8439 0.0000
0.2606 0.2699 0.0000
-0.5466 -0.6240 0.0000
-0.2106 -0.2106 0.0000
-0.8164 -1.0000 0.0000
0.3225 0.3442 0.0000
-0.2781 -0.2563 0.0000
0.4025 0.4383 0.0000
0.5524 0.5722 0.0000
-0.3635 -0.3238 0.0000
0.6988 0.7093 0.0000
0.1489 0.2579 0.0000
-0.4804 -0.4243 0.0000
0.8702 0.8702 0.0000
-0.2579 -0.1489 0.0000
0.1832 0.3233 0.0000
-0.7111 -0.6724 0.0000
-0.3338 -0.1733 0.0000
-0.8702 -0.8702 0.0000
0.2262 0.4062 0.0000
0.4130 0.5771 0.0000
-0.6388 -0.5195 0.0000
0.0771 0.2877 0.0000
-0.2877 -0.0771 0.0000
0.5451 0.7132 0.0000
0.2741 0.4986 0.0000
-0.4232 -0.2080 0.0000
0.6936 0.8592 0.0000
0.0970 0.3591 0.0000
-0.0000 0.2978 0.0000
-0.6285 -0.4000 0.0000
-0.3632 -0.0797 0.0000
0.3049 0.5860 0.0000
-0.2978 0.0000 0.0000
-0.7414 -0.5345 0.0000
0.8164 1.0000 0.0000
-0.8608 -0.6871 0.0000
-0.5275 -0.2462 0.0000
0.1239 0.4499 0.0000
0.3919 0.7084 0.0000
-0.0771 0.2877 0.0000
0.0038 0.3739 0.0000
-0.2877 0.0771 0.0000
-1.0000 -0.8164 0.0000
0.5356 0.8580 0.0000
-0.4581 -0.0863 0.0000
0.1634 0.5529 0.0000
-0.3732 0.0179 0.0000
-0.1489 0.2579 0.0000
-0.2579 0.1489 0.0000
-0.2106 0.2106 0.0000
-0.7495 -0.3963 0.0000
0.6679 1.0000 0.0000
-0.6438 -0.2536 0.0000
-0.0886 0.3625 0.0000
-0.8680 -0.5336 0.0000
0.0123 0.4664 0.0000
-0.3510 0.1137 0.0000
0.2276 0.6824 0.0000
-0.5613 -0.0970 0.0000
-1.0000 -0.6679 0.0000
-0.1772 0.3296 0.0000
-0.3086 0.1992 0.0000
-0.4677 0.0390 0.0000
-0.2511 0.2728 0.0000
0.3812 0.8548 0.0000
0.0277 0.5779 0.0000
-0.1040 0.4590 0.0000
0.5195 1.0000 0.0000
-0.7580 -0.2507 0.0000
-0.8722 -0.3893 0.0000
-0.6588 -0.1179 0.0000
-0.4330 0.1601 0.0000
-1.0000 -0.5195 0.0000
-0.2177 0.4224 0.0000
-0.3746 0.2617 0.0000
-0.3030 0.3463 0.0000
0.2247 0.8504 0.0000
0.0544 0.7071 0.0000
-0.5897 0.0628 0.0000
-0.1136 0.5730 0.0000
-0.6674 -0.0114 0.0000
0.3711 1.0000 0.0000
-0.7612 -0.1103 0.0000
-0.8760 -0.2405 0.0000
-1.0000 -0.3711 0.0000
-0.5338 0.2255 0.0000
-0.4509 0.3366 0.0000
-0.3673 0.4262 0.0000
-0.7537 0.0210 0.0000
0.0655 0.8548 0.0000
-0.2753 0.5415 0.0000
-0.1006 0.7104 0.0000
0.2226 1.0000 0.0000
-0.8761 -0.0954 0.0000
-1.0000 -0.2226 0.0000
-0.7143 0.1557 0.0000
-0.4349 0.4758 0.0000
-0.5229 0.4287 0.0000
-0.0882 0.8562 0.0000
0.0742 1.0000 0.0000
-0.2550 0.7052 0.0000
-0.8702 0.0491 0.0000
-0.4146 0.5726 0.0000
-1.0000 -0.0742 0.0000
-0.6602 0.3405 0.0000
-0.8557 0.1965 0.0000
-0.0742 1.0000 0.0000
-0.2391 0.8548 0.0000
-0.5421 0.5594 0.0000
-0.4006 0.7097 0.0000
-1.0000 0.0742 0.0000
-0.8409 0.3594 0.0000
-0.6862 0.5309 0.0000
-0.2226 1.0000 0.0000
-0.3880 0.8554 0.0000
-0.5447 0.7055 0.0000
-1.0000 0.2226 0.0000
-0.3711 1.0000 0.0000
-0.8456 0.5262 0.0000
-0.5372 0.8542 0.0000
-0.6953 0.6963 0.0000
-1.0000 0.3711 0.0000
-0.5195 1.0000 0.0000
-1.0000 0.5195 0.0000
-0.8534 0.6909 0.0000
-0.6941 0.8556 0.0000
-0.6679 1.0000 0.0000
-1.0000 0.6679 0.0000
-0.8702 0.8702 0.0000
-0.8164 1.0000 0.0000
-1.0000 0.8164 0.0000</DataArray>
         </Points>
         <Cells>
            <DataArray Name="connectivity" format="ascii" type="Int32">
 1 2 6 4
 2 0 3 5
 3 7 11 5
 5 11 15 9
 6 2 5 9
 7 12 17 11
 8 4 6 10
 10 6 9 14
 11 17 28 15
 12 16 24 17
 13 8 10 18
 14 9 15 21
 15 28 30 21
 16 23 33 24
 17 24 36 28
 18 10 14 19
 19 14 21 22
 20 13 18 25
 21 30 29 22
 23 31 43 33
 24 33 45 36
 25 18 27 32
 26 20 25 34
 27 18 19 22
 28 41 38 30
 30 38 35 29
 31 42 51 43
 32 27 35 39
 32 39 49 40
 33 43 56 45
 34 25 32 40
 35 27 22 29
 37 26 34 44
 40 49 62 50
 42 53 69 51
 43 51 71 56
 44 34 40 50
 46 37 44 55
 47 41 28 36
 47 36 45 57
 48 58 49 39
 48 39 35 38
 50 62 79 65
 51 69 84 71
 52 59 48 38
 53 72 85 69
 54 52 38 41
 55 44 50 65
 56 71 86 76
 57 45 56 76
 58 70 62 49
 59 63 58 48
 60 46 55 74
 61 54 41 47
 63 77 70 58
 64 67 59 52
 65 79 94 87
 66 64 52 54
 67 75 63 59
 68 61 47 57
 69 85 103 84
 70 83 79 62
 71 84 102 86
 72 89 104 85
 73 66 54 61
 74 55 65 87
 75 81 77 63
 77 88 83 70
 78 60 74 92
 80 73 61 68
 81 91 88 77
 82 68 57 76
 83 99 94 79
 84 103 115 102
 85 104 117 103
 86 102 114 98
 87 94 119 109
 88 101 99 83
 90 80 68 82
 91 100 101 88
 92 74 87 109
 93 78 92 107
 95 76 86 98
 96 82 76 95
 97 90 82 96
 99 116 119 94
 100 110 113 101
 101 113 116 99
 103 117 131 115
 104 120 134 117
 105 120 104 89
 106 97 96 108
 107 92 109 123
 108 96 95 112
 110 121 124 113
 112 95 98 114
 113 124 133 116
 115 127 114 102
 116 133 144 119
 118 106 108 122
 119 137 128 109
 120 142 159 134
 121 130 138 124
 122 108 112 126
 124 138 152 133
 125 111 93 107
 126 112 114 132
 129 118 122 135
 130 140 154 138
 131 146 127 115
 132 139 165 153
 133 152 166 144
 134 151 131 117
 135 122 126 145
 136 129 135 148
 138 154 170 152
 139 132 114 127
 140 149 164 154
 141 123 109 128
 143 125 107 123
 144 160 137 119
 145 126 132 153
 146 165 139 127
 147 136 148 161
 148 135 145 163
 149 156 169 164
 150 125 143 167
 151 172 146 131
 152 170 186 166
 154 164 179 170
 155 147 161 168
 156 157 171 169
 157 155 168 171
 158 141 128 137
 159 175 151 134
 161 148 163 174
 162 143 123 141
 163 145 153 173
 164 169 182 179
 166 178 160 144
 168 161 174 181
 169 171 183 182
 170 179 193 186
 171 168 181 183
 172 184 165 146
 174 163 173 187
 175 189 172 151
 176 158 137 160
 177 162 141 158
 178 166 186 188
 179 182 194 193
 180 167 143 162
 181 174 187 198
 182 183 195 194
 183 181 198 195
 184 197 185 165
 185 173 153 165
 189 200 184 172
 190 176 160 178
 191 177 158 176
 192 180 162 177
 196 190 178 188
 196 188 186 203
 197 206 199 185
 198 210 204 195
 199 187 173 185
 200 207 197 184
 201 191 176 190
 202 192 177 191
 203 186 193 212
 205 194 195 204
 206 215 208 199
 207 214 206 197
 208 217 210 198
 208 198 187 199
 209 201 190 196
 210 216 205 204
 211 202 191 201
 212 193 194 205
 213 209 196 203
 214 221 215 206
 215 222 217 208
 217 223 216 210
 218 211 201 209
 219 213 203 212
 220 212 205 216
 221 225 222 215
 222 227 223 217
 223 228 220 216
 224 218 209 213
 225 230 227 222
 226 219 212 220
 227 233 228 223
 229 224 213 219
 230 234 233 227
 231 229 219 226
 232 226 220 228
 233 236 232 228
 235 231 226 232
 236 238 235 232
 237 236 233 234</DataArray>
            <DataArray Name="offsets" format="ascii" type="Int32">4 8 12 16 20 24 28 32 36 40 44 48 52 56 60 64 68 72 76 80 84 88 92 96 100 104 108 112 116 120 124 128 132 136 140 144 148 152 156 160 164 168 172 176 180 184 188 192 196 200 204 208 212 216 220 224 228 232 236 240 244 248 252 256 260 264 268 272 276 280 284 288 292 296 300 304 308 312 316 320 324 328 332 336 340 344 348 352 356 360 364 368 372 376 380 384 388 392 396 400 404 408 412 416 420 424 428 432 436 440 444 448 452 456 460 464 468 472 476 480 484 488 492 496 500 504 508 512 516 520 524 528 532 536 540 544 548 552 556 560 564 568 572 576 580 584 588 592 596 600 604 608 612 616 620 624 628 632 636 640 644 648 652 656 660 664 668 672 676 680 684 688 692 696 700 704 708 712 716 720 724 728 732 736 740 744 748 752 756 760 764 768 772 776 780 784 788 792 796 800 804 </DataArray>
            <DataArray Name="types" format="ascii" type="UInt8">9 9 9 9 9 9 9 9 9 9 9 9 9 9 9 9 9 9 9 9 9 9 9 9 9 9 9 9 9 9 9 9 9 9 9 9 9 9 9 9 9 9 9 9 9 9 9 9 9 9 9 9 9 9 9 9 9 9 9 9 9 9 9 9 9 9 9 9 9 9 9 9 9 9 9 9 9 9 9 9 9 9 9 9 9 9 9 9 9 9 9 9 9 9 9 9 9 9 9 9 9 9 9 9 9 9 9 9 9 9 9 9 9 9 9 9 9 9 9 9 9 9 9 9 9 9 9 9 9 9 9 9 9 9 9 9 9 9 9 9 9 9 9 9 9 9 9 9 9 9 9 9 9 9 9 9 9 9 9 9 9 9 9 9 9 9 9 9 9 9 9 9 9 9 9 9 9 9 9 9 9 9 9 9 9 9 9 9 9 9 9 9 9 9 9 9 9 9 9 9 9 </DataArray>
         </Cells>
         <PointData>
            <DataArray Name="fValues" NumberOfComponents="3" format="ascii" type="Float64">
 2.52141e-01  8.59639e-02        00000 
 2.18901e-01  7.95682e-02        00000 
 2.36280e-01  8.25907e-02        00000 
 2.57384e-01  8.19574e-02        00000 
 2.19318e-01  8.41374e-02        00000 
 2.49709e-01  8.28162e-02        00000 
 2.30785e-01  8.48628e-02        00000 
 2.65393e-01  8.18798e-02        00000 
 2.16132e-01  8.61657e-02        00000 
 2.41598e-01  8.50877e-02        00000 
 2.26003e-01  8.69210e-02        00000 
 2.58220e-01  8.30959e-02        00000 
 2.74344e-01  8.23377e-02        00000 
 2.11906e-01  8.72403e-02        00000 
 2.34938e-01  8.68609e-02        00000 
 2.50311e-01  8.50567e-02        00000 
 2.84246e-01  8.34086e-02        00000 
 2.68144e-01  8.37680e-02        00000 
 2.22223e-01  8.81825e-02        00000 
 2.30493e-01  8.78448e-02        00000 
 2.07260e-01  8.72645e-02        00000 
 2.41470e-01  8.70061e-02        00000 
 2.34674e-01  8.81578e-02        00000 
 2.94960e-01  8.49414e-02        00000 
 2.80198e-01  8.47344e-02        00000 
 2.15160e-01  8.80919e-02        00000 
 2.02437e-01  8.62610e-02        00000 
 2.28317e-01  8.87813e-02        00000 
 2.60005e-01  8.56571e-02        00000 
 2.38491e-01  8.83783e-02        00000 
 2.46258e-01  8.75524e-02        00000 
 3.06032e-01  8.65503e-02        00000 
 2.21918e-01  8.87326e-02        00000 
 2.92230e-01  8.62499e-02        00000 
 2.09515e-01  8.69673e-02        00000 
 2.34768e-01  8.91008e-02        00000 
 2.76451e-01  8.60566e-02        00000 
 1.97567e-01  8.45737e-02        00000 
 2.44788e-01  8.90768e-02        00000 
 2.28300e-01  8.92144e-02        00000 
 2.16157e-01  8.75092e-02        00000 
 2.60731e-01  8.76054e-02        00000 
 3.16794e-01  8.77496e-02        00000 
 3.03470e-01  8.79441e-02        00000 
 2.04299e-01  8.51513e-02        00000 
 2.90169e-01  8.76734e-02        00000 
 1.92736e-01  8.27735e-02        00000 
 2.76065e-01  8.76814e-02        00000 
 2.35131e-01  8.94665e-02        00000 
 2.22115e-01  8.77807e-02        00000 
 2.10645e-01  8.53889e-02        00000 
 3.13370e-01  8.91242e-02        00000 
 2.51192e-01  8.94266e-02        00000 
 3.26757e-01  8.82196e-02        00000 
 2.64251e-01  8.93282e-02        00000 
 1.99228e-01  8.32651e-02        00000 
 3.01312e-01  8.97020e-02        00000 
 2.89883e-01  8.97643e-02        00000 
 2.27560e-01  8.76748e-02        00000 
 2.40870e-01  8.88945e-02        00000 
 1.88085e-01  8.13918e-02        00000 
 2.77740e-01  9.01525e-02        00000 
 2.16215e-01  8.51506e-02        00000 
 2.32005e-01  8.65961e-02        00000 
 2.59755e-01  9.00212e-02        00000 
 2.05131e-01  8.30981e-02        00000 
 2.71272e-01  9.28490e-02        00000 
 2.47863e-01  8.70662e-02        00000 
 2.89455e-01  9.24770e-02        00000 
 3.21831e-01  8.92746e-02        00000 
 2.20720e-01  8.44541e-02        00000 
 3.09880e-01  9.09136e-02        00000 
 3.35696e-01  8.78504e-02        00000 
 2.81739e-01  9.53813e-02        00000 
 1.94257e-01  8.19795e-02        00000 
 2.36184e-01  8.38463e-02        00000 
 3.00338e-01  9.32223e-02        00000 
 2.23948e-01  8.32609e-02        00000 
 1.83895e-01  8.07173e-02        00000 
 2.10209e-01  8.22335e-02        00000 
 2.90210e-01  9.75316e-02        00000 
 2.25495e-01  8.08112e-02        00000 
 2.97147e-01  9.59271e-02        00000 
 2.14284e-01  8.10278e-02        00000 
 3.16084e-01  9.05722e-02        00000 
 3.29095e-01  8.80536e-02        00000 
 3.06156e-01  9.33632e-02        00000 
 1.99402e-01  8.15269e-02        00000 
 2.16551e-01  7.97572e-02        00000 
 3.43684e-01  8.69285e-02        00000 
 2.95812e-01  9.91161e-02        00000 
 2.16421e-01  7.83391e-02        00000 
 1.89391e-01  8.18098e-02        00000 
 1.80699e-01  8.07694e-02        00000 
 2.04262e-01  8.00596e-02        00000 
 3.01033e-01  9.67952e-02        00000 
 2.99035e-01  9.87258e-02        00000 
 2.98174e-01  9.98900e-02        00000 
 3.03437e-01  9.50419e-02        00000 
 2.08060e-01  7.84478e-02        00000 
 2.09513e-01  7.66647e-02        00000 
 2.10136e-01  7.71217e-02        00000 
 3.09722e-01  9.23994e-02        00000 
 3.21169e-01  8.86708e-02        00000 
 3.35115e-01  8.47373e-02        00000 
 3.49001e-01  8.09337e-02        00000 
 2.96887e-01  9.95422e-02        00000 
 1.84740e-01  8.30498e-02        00000 
 2.96140e-01  9.91755e-02        00000 
 1.93143e-01  8.15903e-02        00000 
 2.05124e-01  7.58787e-02        00000 
 1.81038e-01  8.29647e-02        00000 
 2.97895e-01  9.71935e-02        00000 
 2.05182e-01  7.61232e-02        00000 
 3.02423e-01  9.45197e-02        00000 
 3.13074e-01  9.02671e-02        00000 
 2.03191e-01  7.77463e-02        00000 
 3.24399e-01  8.54912e-02        00000 
 2.92224e-01  9.83185e-02        00000 
 1.98525e-01  7.96983e-02        00000 
 3.33292e-01  7.95264e-02        00000 
 2.03545e-01  7.59531e-02        00000 
 2.90291e-01  9.74458e-02        00000 
 1.85853e-01  8.30892e-02        00000 
 2.03102e-01  7.71367e-02        00000 
 1.80265e-01  8.62070e-02        00000 
 2.91831e-01  9.55531e-02        00000 
 3.05304e-01  9.16559e-02        00000 
 1.91137e-01  8.16657e-02        00000 
 2.84582e-01  9.63909e-02        00000 
 2.05071e-01  7.67978e-02        00000 
 3.15803e-01  8.80163e-02        00000 
 2.95661e-01  9.35351e-02        00000 
 2.01825e-01  7.89108e-02        00000 
 3.25805e-01  8.34053e-02        00000 
 2.82889e-01  9.41447e-02        00000 
 2.74600e-01  9.39237e-02        00000 
 1.93786e-01  8.13517e-02        00000 
 2.05237e-01  7.95881e-02        00000 
 2.99301e-01  9.16043e-02        00000 
 2.09746e-01  7.83329e-02        00000 
 1.86824e-01  8.22405e-02        00000 
 3.31470e-01  7.97087e-02        00000 
 1.78541e-01  8.35994e-02        00000 
 1.99350e-01  8.06262e-02        00000 
 2.84934e-01  9.22331e-02        00000 
 3.07502e-01  8.96563e-02        00000 
 2.63030e-01  9.10838e-02        00000 
 2.74683e-01  9.03634e-02        00000 
 2.17174e-01  8.03039e-02        00000 
 1.69748e-01  8.59356e-02        00000 
 3.19352e-01  8.66770e-02        00000 
 2.05036e-01  8.19340e-02        00000 
 2.89833e-01  9.08159e-02        00000 
 2.11764e-01  8.25567e-02        00000 
 2.50640e-01  8.81761e-02        00000 
 2.26925e-01  8.26356e-02        00000 
 2.38345e-01  8.52952e-02        00000 
 1.89941e-01  8.21264e-02        00000 
 3.30247e-01  8.42527e-02        00000 
 1.96826e-01  8.21260e-02        00000 
 2.65991e-01  8.74970e-02        00000 
 1.81869e-01  8.23162e-02        00000 
 2.77470e-01  8.85880e-02        00000 
 2.21743e-01  8.45527e-02        00000 
 2.97571e-01  8.96814e-02        00000 
 2.03783e-01  8.33210e-02        00000 
 1.72449e-01  8.19324e-02        00000 
 2.56282e-01  8.60043e-02        00000 
 2.33401e-01  8.54463e-02        00000 
 2.13185e-01  8.50580e-02        00000 
 2.45305e-01  8.56469e-02        00000 
 3.12029e-01  8.81412e-02        00000 
 2.82359e-01  8.76220e-02        00000 
 2.69469e-01  8.57568e-02        00000 
 3.24926e-01  8.62742e-02        00000 
 1.94236e-01  8.30034e-02        00000 
 1.86201e-01  8.23974e-02        00000 
 2.01548e-01  8.39994e-02        00000 
 2.24989e-01  8.66992e-02        00000 
 1.77241e-01  8.18559e-02        00000 
 2.60197e-01  8.47882e-02        00000 
 2.37502e-01  8.64761e-02        00000 
 2.49313e-01  8.54515e-02        00000 
 3.04066e-01  8.80713e-02        00000 
 2.89186e-01  8.71581e-02        00000 
 2.13023e-01  8.66057e-02        00000 
 2.74203e-01  8.50032e-02        00000 
 2.06982e-01  8.56070e-02        00000 
 3.18135e-01  8.73464e-02        00000 
 1.99909e-01  8.46041e-02        00000 
 1.91598e-01  8.33669e-02        00000 
 1.82758e-01  8.23112e-02        00000 
 2.27089e-01  8.75995e-02        00000 
 2.39959e-01  8.66522e-02        00000 
 2.51303e-01  8.51768e-02        00000 
 2.06730e-01  8.62866e-02        00000 
 2.96343e-01  8.66254e-02        00000 
 2.63740e-01  8.39220e-02        00000 
 2.81363e-01  8.48223e-02        00000 
 3.10930e-01  8.73693e-02        00000 
 1.97963e-01  8.49110e-02        00000 
 1.89007e-01  8.33806e-02        00000 
 2.15764e-01  8.76906e-02        00000 
 2.50450e-01  8.51742e-02        00000 
 2.42438e-01  8.63512e-02        00000 
 2.88916e-01  8.47318e-02        00000 
 3.03673e-01  8.63564e-02        00000 
 2.73266e-01  8.33990e-02        00000 
 2.05307e-01  8.65871e-02        00000 
 2.57450e-01  8.40935e-02        00000 
 1.95887e-01  8.49113e-02        00000 
 2.29779e-01  8.78860e-02        00000 
 2.13557e-01  8.78428e-02        00000 
 2.96431e-01  8.46676e-02        00000 
 2.81533e-01  8.31089e-02        00000 
 2.49211e-01  8.48889e-02        00000 
 2.65869e-01  8.28535e-02        00000 
 2.03051e-01  8.65195e-02        00000 
 2.22558e-01  8.81602e-02        00000 
 2.39189e-01  8.63982e-02        00000 
 2.89158e-01  8.28713e-02        00000 
 2.74262e-01  8.20285e-02        00000 
 2.57518e-01  8.30080e-02        00000 
 2.09978e-01  8.77164e-02        00000 
 2.81942e-01  8.14993e-02        00000 
 2.30099e-01  8.76013e-02        00000 
 2.66796e-01  8.14672e-02        00000 
 2.47635e-01  8.38481e-02        00000 
 2.16287e-01  8.81828e-02        00000 
 2.75195e-01  8.08254e-02        00000 
 2.21799e-01  8.78115e-02        00000 
 2.36371e-01  8.58836e-02        00000 
 2.58914e-01  8.15088e-02        00000 
 2.69849e-01  8.08718e-02        00000 
 2.26581e-01  8.68919e-02        00000 
 2.50134e-01  8.30622e-02        00000 
 2.68552e-01  8.30907e-02        00000 
 2.29361e-01  8.08933e-02        00000 </DataArray>
         </PointData>
         <CellData/>
      </Piece>
   </UnstructuredGrid>
</VTKFile>