<?xml version="1.0" encoding="utf-8"?>
<VTKFile byte_order="LittleEndian" type="UnstructuredGrid" version="0.1">
   <UnstructuredGrid>
      <Piece NumberOfCells="1444" NumberOfPoints="761">
         <Points>
            <DataArray Name="Points" NumberOfComponents="3" format="ascii" type="Float32">
-1.0000 -1.0000 0.0000
-1.0000 -0.8947 0.0000
-1.0000 -0.7895 0.0000
-1.0000 -0.6842 0.0000
-1.0000 -0.5789 0.0000
-1.0000 -0.4737 0.0000
-1.0000 -0.3684 0.0000
-1.0000 -0.2632 0.0000
-1.0000 -0.1579 0.0000
-1.0000 -0.0526 0.0000
-1.0000 0.0526 0.0000
-1.0000 0.1579 0.0000
-1.0000 0.2632 0.0000
-1.0000 0.3684 0.0000
-1.0000 0.4737 0.0000
-1.0000 0.5789 0.0000
-1.0000 0.6842 0.0000
-1.0000 0.7895 0.0000
-1.0000 0.8947 0.0000
-1.0000 1.0000 0.0000
-0.8947 -1.0000 0.0000
-0.8947 -0.8947 0.0000
-0.8947 -0.7895 0.0000
-0.8947 -0.6842 0.0000
-0.8947 -0.5789 0.0000
-0.8947 -0.4737 0.0000
-0.8947 -0.3684 0.0000
-0.8947 -0.2632 0.0000
-0.8947 -0.1579 0.0000
-0.8947 -0.0526 0.0000
-0.8947 0.0526 0.0000
-0.8947 0.1579 0.0000
-0.8947 0.2632 0.0000
-0.8947 0.3684 0.0000
-0.8947 0.4737 0.0000
-0.8947 0.5789 0.0000
-0.8947 0.6842 0.0000
-0.8947 0.7895 0.0000
-0.8947 0.8947 0.0000
-0.8947 1.0000 0.0000
-0.7895 -1.0000 0.0000
-0.7895 -0.8947 0.0000
-0.7895 -0.7895 0.0000
-0.7895 -0.6842 0.0000
-0.7895 -0.5789 0.0000
-0.7895 -0.4737 0.0000
-0.7895 -0.3684 0.0000
-0.7895 -0.2632 0.0000
-0.7895 -0.1579 0.0000
-0.7895 -0.0526 0.0000
-0.7895 0.0526 0.0000
-0.7895 0.1579 0.0000
-0.7895 0.2632 0.0000
-0.7895 0.3684 0.0000
-0.7895 0.4737 0.0000
-0.7895 0.5789 0.0000
-0.7895 0.6842 0.0000
-0.7895 0.7895 0.0000
-0.7895 0.8947 0.0000
-0.7895 1.0000 0.0000
-0.6842 -1.0000 0.0000
-0.6842 -0.8947 0.0000
-0.6842 -0.7895 0.0000
-0.6842 -0.6842 0.0000
-0.6842 -0.5789 0.0000
-0.6842 -0.4737 0.0000
-0.6842 -0.3684 0.0000
-0.6842 -0.2632 0.0000
-0.6842 -0.1579 0.0000
-0.6842 -0.0526 0.0000
-0.6842 0.0526 0.0000
-0.6842 0.1579 0.0000
-0.6842 0.2632 0.0000
-0.6842 0.3684 0.0000
-0.6842 0.4737 0.0000
-0.6842 0.5789 0.0000
-0.6842 0.6842 0.0000
-0.6842 0.7895 0.0000
-0.6842 0.8947 0.0000
-0.6842 1.0000 0.0000
-0.5789 -1.0000 0.0000
-0.5789 -0.8947 0.0000
-0.5789 -0.7895 0.0000
-0.5789 -0.6842 0.0000
-0.5789 -0.5789 0.0000
-0.5789 -0.4737 0.0000
-0.5789 -0.3684 0.0000
-0.5789 -0.2632 0.0000
-0.5789 -0.1579 0.0000
-0.5789 -0.0526 0.0000
-0.5789 0.0526 0.0000
-0.5789 0.1579 0.0000
-0.5789 0.2632 0.0000
-0.5789 0.3684 0.0000
-0.5789 0.4737 0.0000
-0.5789 0.5789 0.0000
-0.5789 0.6842 0.0000
-0.5789 0.7895 0.0000
-0.5789 0.8947 0.0000
-0.5789 1.0000 0.0000
-0.4737 -1.0000 0.0000
-0.4737 -0.8947 0.0000
-0.4737 -0.7895 0.0000
-0.4737 -0.6842 0.0000
-0.4737 -0.5789 0.0000
-0.4737 -0.4737 0.0000
-0.4737 -0.3684 0.0000
-0.4737 -0.2632 0.0000
-0.4737 -0.1579 0.0000
-0.4737 -0.0526 0.0000
-0.4737 0.0526 0.0000
-0.4737 0.1579 0.0000
-0.4737 0.2632 0.0000
-0.4737 0.3684 0.0000
-0.4737 0.4737 0.0000
-0.4737 0.5789 0.0000
-0.4737 0.6842 0.0000
-0.4737 0.7895 0.0000
-0.4737 0.8947 0.0000
-0.4737 1.0000 0.0000
-0.3684 -1.0000 0.0000
-0.3684 -0.8947 0.0000
-0.3684 -0.7895 0.0000
-0.3684 -0.6842 0.0000
-0.3684 -0.5789 0.0000
-0.3684 -0.4737 0.0000
-0.3684 -0.3684 0.0000
-0.3684 -0.2632 0.0000
-0.3684 -0.1579 0.0000
-0.3684 -0.0526 0.0000
-0.3684 0.0526 0.0000
-0.3684 0.1579 0.0000
-0.3684 0.2632 0.0000
-0.3684 0.3684 0.0000
-0.3684 0.4737 0.0000
-0.3684 0.5789 0.0000
-0.3684 0.6842 0.0000
-0.3684 0.7895 0.0000
-0.3684 0.8947 0.0000
-0.3684 1.0000 0.0000
-0.2632 -1.0000 0.0000
-0.2632 -0.8947 0.0000
-0.2632 -0.7895 0.0000
-0.2632 -0.6842 0.0000
-0.2632 -0.5789 0.0000
-0.2632 -0.4737 0.0000
-0.2632 -0.3684 0.0000
-0.2632 -0.2632 0.0000
-0.2632 -0.1579 0.0000
-0.2632 -0.0526 0.0000
-0.2632 0.0526 0.0000
-0.2632 0.1579 0.0000
-0.2632 0.2632 0.0000
-0.2632 0.3684 0.0000
-0.2632 0.4737 0.0000
-0.2632 0.5789 0.0000
-0.2632 0.6842 0.0000
-0.2632 0.7895 0.0000
-0.2632 0.8947 0.0000
-0.2632 1.0000 0.0000
-0.1579 -1.0000 0.0000
-0.1579 -0.8947 0.0000
-0.1579 -0.7895 0.0000
-0.1579 -0.6842 0.0000
-0.1579 -0.5789 0.0000
-0.1579 -0.4737 0.0000
-0.1579 -0.3684 0.0000
-0.1579 -0.2632 0.0000
-0.1579 -0.1579 0.0000
-0.1579 -0.0526 0.0000
-0.1579 0.0526 0.0000
-0.1579 0.1579 0.0000
-0.1579 0.2632 0.0000
-0.1579 0.3684 0.0000
-0.1579 0.4737 0.0000
-0.1579 0.5789 0.0000
-0.1579 0.6842 0.0000
-0.1579 0.7895 0.0000
-0.1579 0.8947 0.0000
-0.1579 1.0000 0.0000
-0.0526 -1.0000 0.0000
-0.0526 -0.8947 0.0000
-0.0526 -0.7895 0.0000
-0.0526 -0.6842 0.0000
-0.0526 -0.5789 0.0000
-0.0526 -0.4737 0.0000
-0.0526 -0.3684 0.0000
-0.0526 -0.2632 0.0000
-0.0526 -0.1579 0.0000
-0.0526 -0.0526 0.0000
-0.0526 0.0526 0.0000
-0.0526 0.1579 0.0000
-0.0526 0.2632 0.0000
-0.0526 0.3684 0.0000
-0.0526 0.4737 0.0000
-0.0526 0.5789 0.0000
-0.0526 0.6842 0.0000
-0.0526 0.7895 0.0000
-0.0526 0.8947 0.0000
-0.0526 1.0000 0.0000
0.0526 -1.0000 0.0000
0.0526 -0.8947 0.0000
0.0526 -0.7895 0.0000
0.0526 -0.6842 0.0000
0.0526 -0.5789 0.0000
0.0526 -0.4737 0.0000
0.0526 -0.3684 0.0000
0.0526 -0.2632 0.0000
0.0526 -0.1579 0.0000
0.0526 -0.0526 0.0000
0.0526 0.0526 0.0000
0.0526 0.1579 0.0000
0.0526 0.2632 0.0000
0.0526 0.3684 0.0000
0.0526 0.4737 0.0000
0.0526 0.5789 0.0000
0.0526 0.6842 0.0000
0.0526 0.7895 0.0000
0.0526 0.8947 0.0000
0.0526 1.0000 0.0000
0.1579 -1.0000 0.0000
0.1579 -0.8947 0.0000
0.1579 -0.7895 0.0000
0.1579 -0.6842 0.0000
0.1579 -0.5789 0.0000
0.1579 -0.4737 0.0000
0.1579 -0.3684 0.0000
0.1579 -0.2632 0.0000
0.1579 -0.1579 0.0000
0.1579 -0.0526 0.0000
0.1579 0.0526 0.0000
0.1579 0.1579 0.0000
0.1579 0.2632 0.0000
0.1579 0.3684 0.0000
0.1579 0.4737 0.0000
0.1579 0.5789 0.0000
0.1579 0.6842 0.0000
0.1579 0.7895 0.0000
0.1579 0.8947 0.0000
0.1579 1.0000 0.0000
0.2632 -1.0000 0.0000
0.2632 -0.8947 0.0000
0.2632 -0.7895 0.0000
0.2632 -0.6842 0.0000
0.2632 -0.5789 0.0000
0.2632 -0.4737 0.0000
0.2632 -0.3684 0.0000
0.2632 -0.2632 0.0000
0.2632 -0.1579 0.0000
0.2632 -0.0526 0.0000
0.2632 0.0526 0.0000
0.2632 0.1579 0.0000
0.2632 0.2632 0.0000
0.2632 0.3684 0.0000
0.2632 0.4737 0.0000
0.2632 0.5789 0.0000
0.2632 0.6842 0.0000
0.2632 0.7895 0.0000
0.2632 0.8947 0.0000
0.2632 1.0000 0.0000
0.3684 -1.0000 0.0000
0.3684 -0.8947 0.0000
0.3684 -0.7895 0.0000
0.3684 -0.6842 0.0000
0.3684 -0.5789 0.0000
0.3684 -0.4737 0.0000
0.3684 -0.3684 0.0000
0.3684 -0.2632 0.0000
0.3684 -0.1579 0.0000
0.3684 -0.0526 0.0000
0.3684 0.0526 0.0000
0.3684 0.1579 0.0000
0.3684 0.2632 0.0000
0.3684 0.3684 0.0000
0.3684 0.4737 0.0000
0.3684 0.5789 0.0000
0.3684 0.6842 0.0000
0.3684 0.7895 0.0000
0.3684 0.8947 0.0000
0.3684 1.0000 0.0000
0.4737 -1.0000 0.0000
0.4737 -0.8947 0.0000
0.4737 -0.7895 0.0000
0.4737 -0.6842 0.0000
0.4737 -0.5789 0.0000
0.4737 -0.4737 0.0000
0.4737 -0.3684 0.0000
0.4737 -0.2632 0.0000
0.4737 -0.1579 0.0000
0.4737 -0.0526 0.0000
0.4737 0.0526 0.0000
0.4737 0.1579 0.0000
0.4737 0.2632 0.0000
0.4737 0.3684 0.0000
0.4737 0.4737 0.0000
0.4737 0.5789 0.0000
0.4737 0.6842 0.0000
0.4737 0.7895 0.0000
0.4737 0.8947 0.0000
0.4737 1.0000 0.0000
0.5789 -1.0000 0.0000
0.5789 -0.8947 0.0000
0.5789 -0.7895 0.0000
0.5789 -0.6842 0.0000
0.5789 -0.5789 0.0000
0.5789 -0.4737 0.0000
0.5789 -0.3684 0.0000
0.5789 -0.2632 0.0000
0.5789 -0.1579 0.0000
0.5789 -0.0526 0.0000
0.5789 0.0526 0.0000
0.5789 0.1579 0.0000
0.5789 0.2632 0.0000
0.5789 0.3684 0.0000
0.5789 0.4737 0.0000
0.5789 0.5789 0.0000
0.5789 0.6842 0.0000
0.5789 0.7895 0.0000
0.5789 0.8947 0.0000
0.5789 1.0000 0.0000
0.6842 -1.0000 0.0000
0.6842 -0.8947 0.0000
0.6842 -0.7895 0.0000
0.6842 -0.6842 0.0000
0.6842 -0.5789 0.0000
0.6842 -0.4737 0.0000
0.6842 -0.3684 0.0000
0.6842 -0.2632 0.0000
0.6842 -0.1579 0.0000
0.6842 -0.0526 0.0000
0.6842 0.0526 0.0000
0.6842 0.1579 0.0000
0.6842 0.2632 0.0000
0.6842 0.3684 0.0000
0.6842 0.4737 0.0000
0.6842 0.5789 0.0000
0.6842 0.6842 0.0000
0.6842 0.7895 0.0000
0.6842 0.8947 0.0000
0.6842 1.0000 0.0000
0.7895 -1.0000 0.0000
0.7895 -0.8947 0.0000
0.7895 -0.7895 0.0000
0.7895 -0.6842 0.0000
0.7895 -0.5789 0.0000
0.7895 -0.4737 0.0000
0.7895 -0.3684 0.0000
0.7895 -0.2632 0.0000
0.7895 -0.1579 0.0000
0.7895 -0.0526 0.0000
0.7895 0.0526 0.0000
0.7895 0.1579 0.0000
0.7895 0.2632 0.0000
0.7895 0.3684 0.0000
0.7895 0.4737 0.0000
0.7895 0.5789 0.0000
0.7895 0.6842 0.0000
0.7895 0.7895 0.0000
0.7895 0.8947 0.0000
0.7895 1.0000 0.0000
0.8947 -1.0000 0.0000
0.8947 -0.8947 0.0000
0.8947 -0.7895 0.0000
0.8947 -0.6842 0.0000
0.8947 -0.5789 0.0000
0.8947 -0.4737 0.0000
0.8947 -0.3684 0.0000
0.8947 -0.2632 0.0000
0.8947 -0.1579 0.0000
0.8947 -0.0526 0.0000
0.8947 0.0526 0.0000
0.8947 0.1579 0.0000
0.8947 0.2632 0.0000
0.8947 0.3684 0.0000
0.8947 0.4737 0.0000
0.8947 0.5789 0.0000
0.8947 0.6842 0.0000
0.8947 0.7895 0.0000
0.8947 0.8947 0.0000
0.8947 1.0000 0.0000
1.0000 -1.0000 0.0000
1.0000 -0.8947 0.0000
1.0000 -0.7895 0.0000
1.0000 -0.6842 0.0000
1.0000 -0.5789 0.0000
1.0000 -0.4737 0.0000
1.0000 -0.3684 0.0000
1.0000 -0.2632 0.0000
1.0000 -0.1579 0.0000
1.0000 -0.0526 0.0000
1.0000 0.0526 0.0000
1.0000 0.1579 0.0000
1.0000 0.2632 0.0000
1.0000 0.3684 0.0000
1.0000 0.4737 0.0000
1.0000 0.5789 0.0000
1.0000 0.6842 0.0000
1.0000 0.7895 0.0000
1.0000 0.8947 0.0000
1.0000 1.0000 0.0000
-0.9474 -0.9474 0.0000
-0.9474 -0.8421 0.0000
-0.9474 -0.7368 0.0000
-0.9474 -0.6316 0.0000
-0.9474 -0.5263 0.0000
-0.9474 -0.4211 0.0000
-0.9474 -0.3158 0.0000
-0.9474 -0.2105 0.0000
-0.9474 -0.1053 0.0000
-0.9474 0.0000 0.0000
-0.9474 0.1053 0.0000
-0.9474 0.2105 0.0000
-0.9474 0.3158 0.0000
-0.9474 0.4211 0.0000
-0.9474 0.5263 0.0000
-0.9474 0.6316 0.0000
-0.9474 0.7368 0.0000
-0.9474 0.8421 0.0000
-0.9474 0.9474 0.0000
-0.8421 -0.9474 0.0000
-0.8421 -0.8421 0.0000
-0.8421 -0.7368 0.0000
-0.8421 -0.6316 0.0000
-0.8421 -0.5263 0.0000
-0.8421 -0.4211 0.0000
-0.8421 -0.3158 0.0000
-0.8421 -0.2105 0.0000
-0.8421 -0.1053 0.0000
-0.8421 0.0000 0.0000
-0.8421 0.1053 0.0000
-0.8421 0.2105 0.0000
-0.8421 0.3158 0.0000
-0.8421 0.4211 0.0000
-0.8421 0.5263 0.0000
-0.8421 0.6316 0.0000
-0.8421 0.7368 0.0000
-0.8421 0.8421 0.0000
-0.8421 0.9474 0.0000
-0.7368 -0.9474 0.0000
-0.7368 -0.8421 0.0000
[...]
         <PointData>
            <DataArray Name="fValues" NumberOfComponents="3" format="ascii" type="Float64">
 3.49172e-18 -9.60881e-20        00000 
-6.83088e-18  1.36618e-18        00000 
-2.69715e-18 -1.85429e-18        00000 
 2.01208e-18  3.43113e-18        00000 
-3.70858e-18 -1.34858e-18        00000 
-3.24232e-19 -1.31646e-18        00000 
 4.04573e-18 -2.02286e-18        00000 
 2.85928e-19        00000        00000 
 3.20287e-18 -4.55144e-18        00000 
 2.04061e-18 -3.40102e-18        00000 
 4.72002e-18 -2.19144e-18        00000 
 9.00143e-19 -2.66866e-18        00000 
       00000 -8.42860e-20        00000 
 1.95963e-18 -1.73502e-18        00000 
-1.01143e-18 -5.05716e-19        00000 
 4.97726e-19 -1.90619e-19        00000 
-1.68572e-18 -3.37144e-19        00000 
 5.10189e-19 -3.40126e-19        00000 
-5.95063e-19  8.50090e-20        00000 
 7.56233e-20 -2.99104e-19        00000 
 5.26316e-02 -9.81823e-19        00000 
 4.68848e-02 -6.23133e-03        00000 
 4.36984e-02 -1.04340e-02        00000 
 4.08050e-02 -1.38380e-02        00000 
 3.77989e-02 -1.67480e-02        00000 
 3.44552e-02 -1.91524e-02        00000 
 3.06922e-02 -2.08775e-02        00000 
 2.65873e-02 -2.16818e-02        00000 
 2.23973e-02 -2.13846e-02        00000 
 1.85016e-02 -1.99987e-02        00000 
 1.52624e-02 -1.77888e-02        00000 
 1.28711e-02 -1.52015e-02        00000 
 1.12788e-02 -1.26999e-02        00000 
 1.02444e-02 -1.05996e-02        00000 
 9.45169e-03 -8.99330e-03        00000 
 8.61403e-03 -7.77104e-03        00000 
 7.52046e-03 -6.68877e-03        00000 
 6.01033e-03 -5.41952e-03        00000 
 3.90356e-03 -3.50552e-03        00000 
-1.53430e-19  2.19408e-19        00000 
 1.05263e-01  9.95479e-19        00000 
 9.63042e-02 -9.12475e-03        00000 
 8.95875e-02 -1.67300e-02        00000 
 8.35871e-02 -2.30182e-02        00000 
 7.73486e-02 -2.83516e-02        00000 
 7.03495e-02 -3.27414e-02        00000 
 6.23296e-02 -3.59192e-02        00000 
 5.34141e-02 -3.74642e-02        00000 
 4.42076e-02 -3.70349e-02        00000 
 3.56765e-02 -3.46389e-02        00000 
 2.87634e-02 -3.07688e-02        00000 
 2.39420e-02 -2.62614e-02        00000 
 2.10304e-02 -2.19547e-02        00000 
 1.93604e-02 -1.83709e-02        00000 
 1.81217e-02 -1.56025e-02        00000 
 1.66344e-02 -1.33925e-02        00000 
 1.44394e-02 -1.12840e-02        00000 
 1.12331e-02 -8.72762e-03        00000 
 6.62151e-03 -5.10048e-03        00000 
-7.58239e-20 -4.14297e-19        00000 
 1.57895e-01  3.37144e-19        00000 
 1.46699e-01 -1.07863e-02        00000 
 1.37046e-01 -2.02948e-02        00000 
 1.27970e-01 -2.85400e-02        00000 
 1.18474e-01 -3.56685e-02        00000 
 1.07690e-01 -4.16586e-02        00000 
 9.50495e-02 -4.61421e-02        00000 
 8.06187e-02 -4.84656e-02        00000 
 6.54313e-02 -4.80101e-02        00000 
 5.13653e-02 -4.46954e-02        00000 
 4.03213e-02 -3.92864e-02        00000 
 3.31852e-02 -3.31388e-02        00000 
 2.94480e-02 -2.75241e-02        00000 
 2.76949e-02 -2.30900e-02        00000 
 2.63945e-02 -1.97809e-02        00000 
 2.44070e-02 -1.70873e-02        00000 
 2.10730e-02 -1.43402e-02        00000 
 1.60421e-02 -1.08877e-02        00000 
 9.07344e-03 -6.20876e-03        00000 
-4.84232e-19  7.65755e-19        00000 
 2.10526e-01 -1.23904e-18        00000 
 1.97439e-01 -1.16020e-02        00000 
 1.85291e-01 -2.20073e-02        00000 
 1.73471e-01 -3.12295e-02        00000 
 1.60974e-01 -3.94028e-02        00000 
 1.46574e-01 -4.65119e-02        00000 
 1.29163e-01 -5.21196e-02        00000 
 1.08461e-01 -5.52585e-02        00000 
 8.59476e-02 -5.48125e-02        00000 
 6.50132e-02 -5.04465e-02        00000 
 4.93121e-02 -4.33540e-02        00000 
 4.03357e-02 -3.57329e-02        00000 
 3.67490e-02 -2.94081e-02        00000 
 3.57754e-02 -2.49685e-02        00000 
 3.48753e-02 -2.19365e-02        00000 
 3.24831e-02 -1.94061e-02        00000 
 2.79053e-02 -1.64957e-02        00000 
 2.09457e-02 -1.25403e-02        00000 
 1.16050e-02 -7.11548e-03        00000 
-3.00782e-19 -1.00539e-19        00000 
 2.63158e-01 -1.68572e-19        00000 
 2.48163e-01 -1.18407e-02        00000 
 2.33758e-01 -2.23917e-02        00000 
 2.19568e-01 -3.17507e-02        00000 
 2.04568e-01 -4.01390e-02        00000 
 1.87100e-01 -4.76919e-02        00000 
 1.65136e-01 -5.40265e-02        00000 
 1.37388e-01 -5.78341e-02        00000 
 1.05523e-01 -5.72107e-02        00000 
 7.55641e-02 -5.14126e-02        00000 
 5.46876e-02 -4.24187e-02        00000 
 4.51505e-02 -3.38613e-02        00000 
 4.34561e-02 -2.79997e-02        00000 
 4.44400e-02 -2.47706e-02        00000 
 4.43678e-02 -2.29696e-02        00000 
 4.14825e-02 -2.12091e-02        00000 
 3.53822e-02 -1.84598e-02        00000 
 2.62439e-02 -1.41495e-02        00000 
 1.43575e-02 -8.02956e-03        00000 
 1.70720e-18 -1.17282e-18        00000 
 3.15789e-01  6.80204e-19        00000 
 2.98626e-01 -1.17692e-02        00000 
 2.82013e-01 -2.20095e-02        00000 
 2.65747e-01 -3.08681e-02        00000 
 2.48840e-01 -3.86545e-02        00000 
 2.29248e-01 -4.57161e-02        00000 
 2.03551e-01 -5.19573e-02        00000 
 1.68035e-01 -5.56245e-02        00000 
 1.23448e-01 -5.34295e-02        00000 
 8.11230e-02 -4.47598e-02        00000 
 5.55150e-02 -3.49170e-02        00000 
 4.80457e-02 -2.81671e-02        00000 
 5.06180e-02 -2.48217e-02        00000 
 5.48702e-02 -2.41591e-02        00000 
 5.57683e-02 -2.43714e-02        00000 
 5.19181e-02 -2.36512e-02        00000 
 4.37335e-02 -2.10049e-02        00000 
 3.20069e-02 -1.61456e-02        00000 
 1.73259e-02 -9.11762e-03        00000 
 8.98593e-19 -7.31223e-19        00000 
 3.68421e-01 -6.74288e-19        00000 
 3.48715e-01 -1.17109e-02        00000 
 3.29799e-01 -2.15942e-02        00000 
 3.11558e-01 -2.97416e-02        00000 
 2.93260e-01 -3.63726e-02        00000 
 2.72766e-01 -4.20847e-02        00000 
 2.45174e-01 -4.70384e-02        00000 
 2.01496e-01 -4.90396e-02        00000 
 1.36024e-01 -3.92562e-02        00000 
 8.14285e-02 -2.35583e-02        00000 
 5.58137e-02 -2.21350e-02        00000 
 4.95699e-02 -2.37045e-02        00000 
 5.94160e-02 -2.36235e-02        00000 
 6.84058e-02 -2.58678e-02        00000 
 6.98264e-02 -2.81212e-02        00000 
 6.39531e-02 -2.79916e-02        00000 
 5.28389e-02 -2.48052e-02        00000 
 3.80500e-02 -1.88368e-02        00000 
 2.03664e-02 -1.04796e-02        00000 
 4.26069e-18 -1.50980e-18        00000 
 4.21053e-01  6.45985e-19        00000 
 3.98503e-01 -1.20035e-02        00000 
 3.77147e-01 -2.19875e-02        00000 
 3.56867e-01 -2.99146e-02        00000 
 3.37309e-01 -3.57495e-02        00000 
 3.17439e-01 -3.98846e-02        00000 
 2.91366e-01 -4.41507e-02        00000 
 2.43693e-01 -4.59815e-02        00000 
 2.02388e-01 -4.95126e-02        00000 
 1.60878e-01 -5.09172e-02        00000 
 1.28633e-01 -4.99652e-02        00000 
 9.79800e-02 -4.22838e-02        00000 
 7.04078e-02 -2.92201e-02        00000 
 8.65530e-02 -3.28599e-02        00000 
 8.67579e-02 -3.61055e-02        00000 
 7.71092e-02 -3.49873e-02        00000 
 6.21870e-02 -3.00766e-02        00000 
 4.39772e-02 -2.22386e-02        00000 
 2.32405e-02 -1.20898e-02        00000 
 1.71052e-18 -1.02845e-19        00000 
 4.73684e-01 -1.01143e-18        00000 
 4.48260e-01 -1.28756e-02        00000 
 4.24449e-01 -2.38155e-02        00000 
 4.02067e-01 -3.27269e-02        00000 
 3.81243e-01 -3.94563e-02        00000 
 3.62332e-01 -4.41820e-02        00000 
 3.46635e-01 -4.96873e-02        00000 
 3.19076e-01 -7.05483e-02        00000 
 2.82177e-01 -7.34198e-02        00000 
 2.35612e-01 -7.11869e-02        00000 
 1.95014e-01 -6.70586e-02        00000 
 1.55225e-01 -5.71357e-02        00000 
 9.39849e-02 -3.75620e-02        00000 
 1.11265e-01 -4.72644e-02        00000 
 1.05423e-01 -4.83360e-02        00000 
 9.03165e-02 -4.40188e-02        00000 
 7.10470e-02 -3.62094e-02        00000 
 4.93460e-02 -2.59460e-02        00000 
 2.57135e-02 -1.37635e-02        00000 
 5.60927e-18 -2.52123e-18        00000 
 5.26316e-01  6.80181e-19        00000 
 4.98351e-01 -1.43069e-02        00000 
 4.72297e-01 -2.70690e-02        00000 
 4.47983e-01 -3.83011e-02        00000 
 4.25970e-01 -4.81248e-02        00000 
 4.08296e-01 -5.71126e-02        00000 
 4.01417e-01 -6.70846e-02        00000 
 4.30880e-01 -8.72461e-02        00000 
 3.54202e-01 -8.91391e-02        00000 
 3.08512e-01 -8.89097e-02        00000 
 2.60907e-01 -8.47868e-02        00000 
 2.08469e-01 -7.28860e-02        00000 
 1.56087e-01 -5.46770e-02        00000 
 1.40686e-01 -6.51532e-02        00000 
 1.23923e-01 -6.13739e-02        00000 
 1.02454e-01 -5.27242e-02        00000 
 7.88917e-02 -4.17985e-02        00000 
 5.39024e-02 -2.92060e-02        00000 
 2.76750e-02 -1.51972e-02        00000 
 1.03425e-18 -6.19532e-19        00000 
 5.78947e-01 -1.85429e-18        00000 
 5.49045e-01 -1.59932e-02        00000 
 5.21118e-01 -3.09650e-02        00000 
 4.95182e-01 -4.50844e-02        00000 
 4.72270e-01 -5.88817e-02        00000 
 4.55170e-01 -7.34600e-02        00000 
 4.51785e-01 -9.03339e-02        00000 
 4.76968e-01 -1.03189e-01        00000 
 4.33275e-01 -1.05877e-01        00000 
 3.81367e-01 -1.08271e-01        00000 
 3.29139e-01 -1.07262e-01        00000 
 2.66443e-01 -9.86012e-02        00000 
 2.09329e-01 -8.62860e-02        00000 
 1.69974e-01 -7.92205e-02        00000 
 1.40549e-01 -6.98031e-02        00000 
 1.13269e-01 -5.81803e-02        00000 
 8.57421e-02 -4.52770e-02        00000 
 5.77473e-02 -3.12309e-02        00000 
 2.92077e-02 -1.60853e-02        00000 
 4.05137e-18 -3.10736e-18        00000 
 6.31579e-01  1.52495e-18        00000 
 6.00355e-01 -1.74739e-02        00000 
 5.70846e-01 -3.43110e-02        00000 
 5.43410e-01 -5.06818e-02        00000 
 5.19359e-01 -6.71317e-02        00000 
 5.01458e-01 -8.44303e-02        00000 
 4.94016e-01 -1.02289e-01        00000 
 4.98876e-01 -1.17413e-01        00000 
 5.00938e-01 -1.27212e-01        00000 
 4.62849e-01 -1.42585e-01        00000 
 3.99786e-01 -1.41175e-01        00000 
 3.13512e-01 -1.11230e-01        00000 
 2.40381e-01 -9.18141e-02        00000 
 1.92373e-01 -8.10192e-02        00000 
 1.55859e-01 -7.04934e-02        00000 
 1.23378e-01 -5.87849e-02        00000 
 9.21638e-02 -4.57698e-02        00000 
 6.12883e-02 -3.15678e-02        00000 
 3.05561e-02 -1.62487e-02        00000 
-4.79906e-18  1.02296e-18        00000 
 6.84211e-01  1.34858e-18        00000 
 6.52027e-01 -1.83384e-02        00000 
 6.20936e-01 -3.61118e-02        00000 
 5.91643e-01 -5.32984e-02        00000 
 5.65485e-01 -7.00723e-02        00000 
 5.44320e-01 -8.63353e-02        00000 
 5.29562e-01 -1.00889e-01        00000 
 5.19072e-01 -1.10847e-01        00000 
 5.02599e-01 -1.13301e-01        00000 
 4.63967e-01 -1.08554e-01        00000 
 3.99443e-01 -9.86021e-02        00000 
 3.25915e-01 -8.81236e-02        00000 
 2.62378e-01 -7.99883e-02        00000 
 2.12044e-01 -7.30270e-02        00000 
 1.70636e-01 -6.49610e-02        00000 
 1.33718e-01 -5.50713e-02        00000 
 9.88487e-02 -4.34446e-02        00000 
 6.50258e-02 -3.02558e-02        00000 
 3.20122e-02 -1.56909e-02        00000 
 4.05137e-18  1.10694e-18        00000 
 7.36842e-01 -3.40102e-18        00000 
 7.03668e-01 -1.83607e-02        00000 
 6.70648e-01 -3.59187e-02        00000 
 6.38763e-01 -5.24089e-02        00000 
 6.09185e-01 -6.76056e-02        00000 
 5.82905e-01 -8.09103e-02        00000 
 5.59784e-01 -9.09223e-02        00000 
 5.36924e-01 -9.55221e-02        00000 
 5.07586e-01 -9.31794e-02        00000 
 4.64045e-01 -8.52046e-02        00000 
 4.05734e-01 -7.62242e-02        00000 
 3.41776e-01 -6.98116e-02        00000 
 2.82265e-01 -6.56774e-02        00000 
 2.30667e-01 -6.16350e-02        00000 
 1.85624e-01 -5.61619e-02        00000 
 1.44746e-01 -4.86634e-02        00000 
 1.06266e-01 -3.91160e-02        00000 
 6.93356e-02 -2.76781e-02        00000 
 3.38030e-02 -1.45512e-02        00000 
 4.06297e-18 -1.09608e-18        00000 
 7.89474e-01 -3.37144e-19        00000 
 7.54905e-01 -1.74877e-02        00000 
 7.19347e-01 -3.37383e-02        00000 
 6.84029e-01 -4.83514e-02        00000 
 6.50002e-01 -6.09525e-02        00000 
 6.17748e-01 -7.08940e-02        00000 
 5.86602e-01 -7.71302e-02        00000 
 5.54155e-01 -7.85599e-02        00000 
 5.16451e-01 -7.50010e-02        00000 
 4.70134e-01 -6.81702e-02        00000 
 4.15566e-01 -6.10732e-02        00000 
 3.57290e-01 -5.59161e-02        00000 
 3.00658e-01 -5.26951e-02        00000 
 2.48474e-01 -4.99616e-02        00000 
 2.00806e-01 -4.63001e-02        00000 
 1.56533e-01 -4.09426e-02        00000 
 1.14583e-01 -3.36109e-02        00000 
 7.44058e-02 -2.42692e-02        00000 
 3.60444e-02 -1.30010e-02        00000 
-2.24310e-18  1.67009e-18        00000 
 8.42105e-01 -7.41294e-19        00000 
 8.05446e-01 -1.57218e-02        00000 
 7.66588e-01 -2.96800e-02        00000 
 7.27120e-01 -4.15595e-02        00000 
 6.88109e-01 -5.11273e-02        00000 
 6.49849e-01 -5.79787e-02        00000 
 6.11704e-01 -6.15334e-02        00000 
 5.72076e-01 -6.14121e-02        00000 
 5.28860e-01 -5.79821e-02        00000 
 4.80605e-01 -5.26171e-02        00000 
 4.27726e-01 -4.72065e-02        00000 
 3.72539e-01 -4.31047e-02        00000 
 3.17871e-01 -4.04610e-02        00000 
 2.65561e-01 -3.84686e-02        00000 
 2.16070e-01 -3.60880e-02        00000 
 1.69007e-01 -3.25354e-02        00000 
 1.23831e-01 -2.73527e-02        00000 
 8.03172e-02 -2.02696e-02        00000 
 3.87780e-02 -1.11433e-02        00000 
 3.08325e-18 -2.14115e-18        00000 
 8.94737e-01  6.74288e-19        00000 
 8.55000e-01 -1.29420e-02        00000 
 8.11973e-01 -2.35714e-02        00000 
 7.67889e-01 -3.19514e-02        00000 
 7.23859e-01 -3.83074e-02        00000 
 6.80054e-01 -4.24778e-02        00000 
 6.36056e-01 -4.41972e-02        00000 
 5.90980e-01 -4.34142e-02        00000 
 5.43807e-01 -4.05667e-02        00000 
 4.93933e-01 -3.66228e-02        00000 
 4.41638e-01 -3.27511e-02        00000 
 3.88053e-01 -2.97890e-02        00000 
 3.34584e-01 -2.78977e-02        00000 
 2.82260e-01 -2.66403e-02        00000 
 2.31477e-01 -2.53300e-02        00000 
 1.82157e-01 -2.33407e-02        00000 
 1.34081e-01 -2.02118e-02        00000 
 8.72036e-02 -1.55661e-02        00000 
 4.20721e-02 -8.91679e-03        00000 
 2.81406e-18  1.33294e-18        00000 
 9.47368e-01 -6.81873e-19        00000 
 9.02960e-01 -8.71184e-03        00000 
 8.54850e-01 -1.43823e-02        00000 
 8.06233e-01 -1.86373e-02        00000 
 7.57566e-01 -2.17569e-02        00000 
 7.08926e-01 -2.36529e-02        00000 
 6.60121e-01 -2.41946e-02        00000 
 6.10796e-01 -2.33999e-02        00000 
 5.60575e-01 -2.15589e-02        00000 
 5.09261e-01 -1.92198e-02        00000 
 4.56980e-01 -1.70090e-02        00000 
 4.04161e-01 -1.53734e-02        00000 
 3.51342e-01 -1.44142e-02        00000 
 2.98945e-01 -1.39120e-02        00000 
 2.47169e-01 -1.34889e-02        00000 
 1.96021e-01 -1.27757e-02        00000 
 1.45441e-01 -1.14849e-02        00000 
 9.54402e-02 -9.36617e-03        00000 
 4.62509e-02 -5.98549e-03        00000 
-4.84214e-18  5.64145e-19        00000 
 1.00000e+00  1.88065e-18        00000 
 9.47368e-01 -3.27274e-18        00000 
 8.94737e-01  1.29902e-18        00000 
 8.42105e-01 -1.48940e-18        00000 
 7.89474e-01 -2.74853e-18        00000 
 7.36842e-01 -1.48940e-18        00000 
 6.84211e-01 -2.36513e-18        00000 
 6.31579e-01 -1.36296e-18        00000 
 5.78947e-01  2.01419e-19        00000 
 5.26316e-01 -2.03725e-18        00000 
 4.73684e-01  1.54954e-18        00000 
 4.21053e-01  1.59484e-18        00000 
 3.68421e-01 -3.44770e-18        00000 
 3.15789e-01 -4.28024e-19        00000 
 2.63158e-01 -9.07325e-19        00000 
 2.10526e-01 -1.01594e-18        00000 
 1.57895e-01 -2.29690e-18        00000 
 1.05263e-01 -1.18715e-18        00000 
 5.26316e-02  4.90911e-19        00000 
 1.90505e-17 -2.63764e-19        00000 
 2.41002e-02 -2.27618e-03        00000 
 2.21205e-02 -4.56463e-03        00000 
 2.07003e-02 -6.42968e-03        00000 
 1.92872e-02 -8.02227e-03        00000 
 1.77630e-02 -9.39303e-03        00000 
 1.60712e-02 -1.04778e-02        00000 
 1.42193e-02 -1.11529e-02        00000 
 1.22833e-02 -1.12904e-02        00000 
 1.03980e-02 -1.08328e-02        00000 
 8.71724e-03 -9.85179e-03        00000 
 7.35678e-03 -8.54648e-03        00000 
 6.35020e-03 -7.17440e-03        00000 
 5.64334e-03 -5.95418e-03        00000 
 5.12482e-03 -4.99732e-03        00000 
 4.66921e-03 -4.29579e-03        00000 
 4.16891e-03 -3.75165e-03        00000 
 3.54135e-03 -3.21584e-03        00000 
 2.71772e-03 -2.49461e-03        00000 
 1.41408e-03 -1.36433e-03        00000 
 7.49093e-02 -4.24054e-03        00000 
 6.86934e-02 -1.10713e-02        00000 
 6.40590e-02 -1.63934e-02        00000 
 5.95819e-02 -2.08930e-02        00000 
 5.47398e-02 -2.47053e-02        00000 
 4.92750e-02 -2.77047e-02        00000 
 4.31632e-02 -2.95870e-02        00000 
 3.66681e-02 -3.00185e-02        00000 
 3.03220e-02 -2.88437e-02        00000 
 2.47585e-02 -2.62580e-02        00000 
 2.04497e-02 -2.28089e-02        00000 
 1.75062e-02 -1.91943e-02        00000 
 1.56640e-02 -1.59857e-02        00000 
 1.44398e-02 -1.34473e-02        00000 
 1.33289e-02 -1.15210e-02        00000 
 1.19304e-02 -9.92177e-03        00000 
 9.96172e-03 -8.24200e-03        00000 
 7.15627e-03 -6.00139e-03        00000 
 2.83064e-03 -2.49125e-03        00000 
 1.26333e-01 -5.25735e-03        00000 
 1.17171e-01 -1.46010e-02        00000 
 1.09303e-01 -2.25302e-02        00000 
 1.01621e-01 -2.93018e-02        00000 
 9.32656e-02 -3.50782e-02        00000 
 8.36915e-02 -3.96929e-02        00000 
 7.27557e-02 -4.26872e-02        00000 
 6.09212e-02 -4.34913e-02        00000 
 4.92850e-02 -4.17867e-02        00000 
 3.92240e-02 -3.78637e-02        00000 
 3.17580e-02 -3.26532e-02        00000 
 2.70649e-02 -2.73230e-02        00000 
 2.44897e-02 -2.27453e-02        00000 
 2.29605e-02 -1.92188e-02        00000 
 2.14499e-02 -1.65283e-02        00000 
 1.92183e-02 -1.41684e-02        00000 
 1.58089e-02 -1.15379e-02        00000 
 1.08740e-02 -8.02577e-03        00000 
 4.06227e-03 -3.13380e-03        00000 
 1.78038e-01 -5.83349e-03        00000 
 1.66507e-01 -1.64845e-02        00000 
 1.55823e-01 -2.58609e-02        00000 
 1.45092e-01 -3.40854e-02        00000 
 1.33288e-01 -4.12624e-02        00000 
 1.19479e-01 -4.72044e-02        00000 
 1.03221e-01 -5.12803e-02        00000 
 8.51136e-02 -5.25525e-02        00000 
 6.70708e-02 -5.03496e-02        00000 
 5.17134e-02 -4.50277e-02        00000 
 4.09728e-02 -3.81081e-02        00000 
 3.50183e-02 -3.14322e-02        00000 
 3.24175e-02 -2.61502e-02        00000 
 3.11504e-02 -2.23939e-02        00000 
 2.95196e-02 -1.96033e-02        00000 
 2.64875e-02 -1.69878e-02        00000 
 2.15544e-02 -1.38071e-02        00000 
 1.45098e-02 -9.48457e-03        00000 
 5.28294e-03 -3.64750e-03        00000 
 2.29792e-01 -6.09914e-03        00000 
 2.16145e-01 -1.72426e-02        00000 
 2.03005e-01 -2.71410e-02        00000 
 1.89619e-01 -3.59433e-02        00000 
 1.74749e-01 -4.38200e-02        00000 
 1.56902e-01 -5.06566e-02        00000 
 1.34953e-01 -5.56905e-02        00000 
 1.09352e-01 -5.74478e-02        00000 
 8.31910e-02 -5.45986e-02        00000 
 6.13819e-02 -4.75549e-02        00000 
 4.74885e-02 -3.89118e-02        00000 
 4.13649e-02 -3.15140e-02        00000 
 3.99538e-02 -2.65420e-02        00000 
 3.97107e-02 -2.35578e-02        00000 
 3.82059e-02 -2.14420e-02        00000 
 3.42932e-02 -1.90830e-02        00000 
 2.76637e-02 -1.56837e-02        00000 
 1.83749e-02 -1.07769e-02        00000 
 6.60486e-03 -4.13032e-03        00000 
 2.81443e-01 -6.17353e-03        00000 
 2.65679e-01 -1.72787e-02        00000 