<?xml version="1.0" encoding="utf-8"?>
<VTKFile byte_order="LittleEndian" type="UnstructuredGrid" version="0.1">
   <UnstructuredGrid>
      <Piece NumberOfCells="3456" NumberOfPoints="2080">
         <Points>
            <DataArray Name="Points" NumberOfComponents="3" format="ascii" type="Float32">
-1.0000 -0.8947 0.0000
-1.0000 -0.7895 0.0000
-1.0000 -0.6842 0.0000
-1.0000 -0.5789 0.0000
-1.0000 -0.4737 0.0000
-1.0000 -0.3684 0.0000
-1.0000 -0.2632 0.0000
-1.0000 -0.1579 0.0000
-1.0000 -0.0526 0.0000
-1.0000 0.0526 0.0000
-1.0000 0.1579 0.0000
-1.0000 0.2632 0.0000
-1.0000 0.3684 0.0000
-1.0000 0.4737 0.0000
-1.0000 0.5789 0.0000
-1.0000 0.6842 0.0000
-1.0000 0.7895 0.0000
-1.0000 0.8947 0.0000
-1.0000 1.0000 0.0000
-0.8947 -0.8947 0.0000
-0.8947 -0.7895 0.0000
-0.8947 -0.6842 0.0000
-0.8947 -0.5789 0.0000
-0.8947 -0.4737 0.0000
-0.8947 -0.3684 0.0000
-0.8947 -0.2632 0.0000
-0.8947 -0.1579 0.0000
-0.8947 -0.0526 0.0000
-0.8947 0.0526 0.0000
-0.8947 0.1579 0.0000
-0.8947 0.2632 0.0000
-0.8947 0.3684 0.0000
-0.8947 0.4737 0.0000
-0.8947 0.5789 0.0000
-0.8947 0.6842 0.0000
-0.8947 0.7895 0.0000
-0.8947 0.8947 0.0000
-0.8947 1.0000 0.0000
-0.7895 -0.8947 0.0000
-0.7895 -0.7895 0.0000
-0.7895 -0.6842 0.0000
-0.7895 -0.5789 0.0000
-0.7895 -0.4737 0.0000
-0.7895 -0.3684 0.0000
-0.7895 -0.2632 0.0000
-0.7895 -0.1579 0.0000
-0.7895 -0.0526 0.0000
-0.7895 0.0526 0.0000
-0.7895 0.1579 0.0000
-0.7895 0.2632 0.0000
-0.7895 0.3684 0.0000
-0.7895 0.4737 0.0000
-0.7895 0.5789 0.0000
-0.7895 0.6842 0.0000
-0.7895 0.7895 0.0000
-0.7895 0.8947 0.0000
-0.7895 1.0000 0.0000
-0.6842 -0.8947 0.0000
-0.6842 -0.7895 0.0000
-0.6842 -0.6842 0.0000
-0.6842 -0.5789 0.0000
-0.6842 -0.4737 0.0000
-0.6842 -0.3684 0.0000
-0.6842 -0.2632 0.0000
-0.6842 -0.1579 0.0000
-0.6842 -0.0526 0.0000
-0.6842 0.0526 0.0000
-0.6842 0.1579 0.0000
-0.6842 0.2632 0.0000
-0.6842 0.3684 0.0000
-0.6842 0.4737 0.0000
-0.6842 0.5789 0.0000
-0.6842 0.6842 0.0000
-0.6842 0.7895 0.0000
-0.6842 0.8947 0.0000
-0.6842 1.0000 0.0000
-0.5789 -0.8947 0.0000
-0.5789 -0.7895 0.0000
-0.5789 -0.6842 0.0000
-0.5789 -0.5789 0.0000
-0.5789 -0.4737 0.0000
-0.5789 -0.3684 0.0000
-0.5789 -0.2632 0.0000
-0.5789 -0.1579 0.0000
-0.5789 -0.0526 0.0000
-0.5789 0.0526 0.0000
-0.5789 0.1579 0.0000
-0.5789 0.2632 0.0000
-0.5789 0.3684 0.0000
-0.5789 0.4737 0.0000
-0.5789 0.5789 0.0000
-0.5789 0.6842 0.0000
-0.5789 0.7895 0.0000
-0.5789 0.8947 0.0000
-0.5789 1.0000 0.0000
-0.4737 -0.8947 0.0000
-0.4737 -0.7895 0.0000
-0.4737 -0.6842 0.0000
-0.4737 -0.5789 0.0000
-0.4737 -0.4737 0.0000
-0.4737 -0.3684 0.0000
-0.4737 -0.2632 0.0000
-0.4737 -0.1579 0.0000
-0.4737 -0.0526 0.0000
-0.4737 0.0526 0.0000
-0.4737 0.1579 0.0000
-0.4737 0.2632 0.0000
-0.4737 0.3684 0.0000
-0.4737 0.4737 0.0000
-0.4737 0.5789 0.0000
-0.4737 0.6842 0.0000
-0.4737 0.7895 0.0000
-0.4737 0.8947 0.0000
-0.4737 1.0000 0.0000
-0.3684 -0.8947 0.0000
-0.3684 -0.7895 0.0000
-0.3684 -0.6842 0.0000
-0.3684 -0.5789 0.0000
-0.3684 -0.4737 0.0000
-0.3684 -0.3684 0.0000
-0.3684 -0.2632 0.0000
-0.3684 -0.1579 0.0000
-0.3684 -0.0526 0.0000
-0.3684 0.0526 0.0000
-0.3684 0.1579 0.0000
-0.3684 0.2632 0.0000
-0.3684 0.3684 0.0000
-0.3684 0.4737 0.0000
-0.3684 0.5789 0.0000
-0.3684 0.6842 0.0000
-0.3684 0.7895 0.0000
-0.3684 0.8947 0.0000
-0.3684 1.0000 0.0000
-0.2632 -0.8947 0.0000
-0.2632 -0.7895 0.0000
-0.2632 -0.6842 0.0000
-0.2632 -0.5789 0.0000
-0.2632 -0.4737 0.0000
-0.2632 -0.3684 0.0000
-0.2632 -0.2632 0.0000
-0.2632 -0.1579 0.0000
-0.2632 -0.0526 0.0000
-0.2632 0.0526 0.0000
-0.2632 0.1579 0.0000
-0.2632 0.2632 0.0000
-0.2632 0.3684 0.0000
-0.2632 0.4737 0.0000
-0.2632 0.5789 0.0000
-0.2632 0.6842 0.0000
-0.2632 0.7895 0.0000
-0.2632 0.8947 0.0000
-0.2632 1.0000 0.0000
-0.1579 -0.8947 0.0000
-0.1579 -0.7895 0.0000
-0.1579 -0.6842 0.0000
-0.1579 -0.5789 0.0000
-0.1579 -0.4737 0.0000
-0.1579 -0.3684 0.0000
-0.1579 -0.2632 0.0000
-0.1579 -0.1579 0.0000
-0.1579 -0.0526 0.0000
-0.1579 0.1579 0.0000
-0.1579 0.2632 0.0000
-0.1579 0.3684 0.0000
-0.1579 0.4737 0.0000
-0.1579 0.5789 0.0000
-0.1579 0.6842 0.0000
-0.1579 0.7895 0.0000
-0.1579 0.8947 0.0000
-0.1579 1.0000 0.0000
-0.0526 -0.8947 0.0000
-0.0526 -0.7895 0.0000
-0.0526 -0.6842 0.0000
-0.0526 -0.5789 0.0000
-0.0526 -0.4737 0.0000
-0.0526 -0.3684 0.0000
-0.0526 -0.2632 0.0000
-0.0526 -0.1579 0.0000
-0.0526 0.2632 0.0000
-0.0526 0.3684 0.0000
-0.0526 0.4737 0.0000
-0.0526 0.5789 0.0000
-0.0526 0.6842 0.0000
-0.0526 0.7895 0.0000
-0.0526 0.8947 0.0000
-0.0526 1.0000 0.0000
0.0526 -0.8947 0.0000
0.0526 -0.7895 0.0000
0.0526 -0.6842 0.0000
0.0526 -0.5789 0.0000
0.0526 -0.4737 0.0000
0.0526 -0.3684 0.0000
0.0526 -0.2632 0.0000
0.0526 -0.1579 0.0000
0.0526 0.2632 0.0000
0.0526 0.3684 0.0000
0.0526 0.4737 0.0000
0.0526 0.5789 0.0000
0.0526 0.6842 0.0000
0.0526 0.7895 0.0000
0.0526 0.8947 0.0000
0.0526 1.0000 0.0000
0.1579 -0.8947 0.0000
0.1579 -0.7895 0.0000
0.1579 -0.6842 0.0000
0.1579 -0.5789 0.0000
0.1579 -0.4737 0.0000
0.1579 -0.3684 0.0000
0.1579 -0.2632 0.0000
0.1579 -0.1579 0.0000
0.1579 -0.0526 0.0000
0.1579 0.0526 0.0000
0.1579 0.1579 0.0000
0.1579 0.2632 0.0000
0.1579 0.3684 0.0000
0.1579 0.4737 0.0000
0.1579 0.5789 0.0000
0.1579 0.6842 0.0000
0.1579 0.7895 0.0000
0.1579 0.8947 0.0000
0.1579 1.0000 0.0000
0.2632 -0.8947 0.0000
0.2632 -0.7895 0.0000
0.2632 -0.6842 0.0000
0.2632 -0.5789 0.0000
0.2632 -0.4737 0.0000
0.2632 -0.3684 0.0000
0.2632 -0.2632 0.0000
0.2632 -0.1579 0.0000
0.2632 -0.0526 0.0000
0.2632 0.0526 0.0000
0.2632 0.1579 0.0000
0.2632 0.2632 0.0000
0.2632 0.3684 0.0000
0.2632 0.4737 0.0000
0.2632 0.5789 0.0000
0.2632 0.6842 0.0000
0.2632 0.7895 0.0000
0.2632 0.8947 0.0000
0.2632 1.0000 0.0000
0.3684 -0.8947 0.0000
0.3684 -0.7895 0.0000
0.3684 -0.6842 0.0000
0.3684 -0.5789 0.0000
0.3684 -0.4737 0.0000
0.3684 -0.3684 0.0000
0.3684 -0.2632 0.0000
0.3684 -0.1579 0.0000
0.3684 -0.0526 0.0000
0.3684 0.0526 0.0000
0.3684 0.1579 0.0000
0.3684 0.2632 0.0000
0.3684 0.3684 0.0000
0.3684 0.4737 0.0000
0.3684 0.5789 0.0000
0.3684 0.6842 0.0000
0.3684 0.7895 0.0000
0.3684 0.8947 0.0000
0.3684 1.0000 0.0000
0.4737 -0.8947 0.0000
0.4737 -0.7895 0.0000
0.4737 -0.6842 0.0000
0.4737 -0.5789 0.0000
0.4737 -0.4737 0.0000
0.4737 -0.3684 0.0000
0.4737 -0.2632 0.0000
0.4737 -0.1579 0.0000
0.4737 -0.0526 0.0000
0.4737 0.0526 0.0000
0.4737 0.1579 0.0000
0.4737 0.2632 0.0000
0.4737 0.3684 0.0000
0.4737 0.4737 0.0000
0.4737 0.5789 0.0000
0.4737 0.6842 0.0000
0.4737 0.7895 0.0000
0.4737 0.8947 0.0000
0.4737 1.0000 0.0000
0.5789 -0.8947 0.0000
0.5789 -0.7895 0.0000
0.5789 -0.6842 0.0000
0.5789 -0.5789 0.0000
0.5789 -0.4737 0.0000
0.5789 -0.3684 0.0000
0.5789 -0.2632 0.0000
0.5789 -0.1579 0.0000
0.5789 -0.0526 0.0000
0.5789 0.0526 0.0000
0.5789 0.1579 0.0000
0.5789 0.2632 0.0000
0.5789 0.3684 0.0000
0.5789 0.4737 0.0000
0.5789 0.5789 0.0000
0.5789 0.6842 0.0000
0.5789 0.7895 0.0000
0.5789 0.8947 0.0000
0.5789 1.0000 0.0000
0.6842 -0.8947 0.0000
0.6842 -0.7895 0.0000
0.6842 -0.6842 0.0000
0.6842 -0.5789 0.0000
0.6842 -0.4737 0.0000
0.6842 -0.3684 0.0000
0.6842 -0.2632 0.0000
0.6842 -0.1579 0.0000
0.6842 -0.0526 0.0000
0.6842 0.0526 0.0000
0.6842 0.1579 0.0000
0.6842 0.2632 0.0000
0.6842 0.3684 0.0000
0.6842 0.4737 0.0000
0.6842 0.5789 0.0000
0.6842 0.6842 0.0000
0.6842 0.7895 0.0000
0.6842 0.8947 0.0000
0.6842 1.0000 0.0000
0.7895 -0.8947 0.0000
0.7895 -0.7895 0.0000
0.7895 -0.6842 0.0000
0.7895 -0.5789 0.0000
0.7895 -0.4737 0.0000
0.7895 -0.3684 0.0000
0.7895 -0.2632 0.0000
0.7895 -0.1579 0.0000
0.7895 -0.0526 0.0000
0.7895 0.0526 0.0000
0.7895 0.1579 0.0000
0.7895 0.2632 0.0000
0.7895 0.3684 0.0000
0.7895 0.4737 0.0000
0.7895 0.5789 0.0000
0.7895 0.6842 0.0000
0.7895 0.7895 0.0000
0.7895 0.8947 0.0000
0.7895 1.0000 0.0000
0.8947 -0.8947 0.0000
0.8947 -0.7895 0.0000
0.8947 -0.6842 0.0000
0.8947 -0.5789 0.0000
0.8947 -0.4737 0.0000
0.8947 -0.3684 0.0000
0.8947 -0.2632 0.0000
0.8947 -0.1579 0.0000
0.8947 -0.0526 0.0000
0.8947 0.0526 0.0000
0.8947 0.1579 0.0000
0.8947 0.2632 0.0000
0.8947 0.3684 0.0000
0.8947 0.4737 0.0000
0.8947 0.5789 0.0000
0.8947 0.6842 0.0000
0.8947 0.7895 0.0000
0.8947 0.8947 0.0000
0.8947 1.0000 0.0000
-0.1579 0.0526 0.0000
-0.0526 0.1579 0.0000
1.0000 -0.8947 0.0000
1.0000 -0.7895 0.0000
1.0000 -0.6842 0.0000
1.0000 -0.5789 0.0000
1.0000 -0.4737 0.0000
1.0000 -0.3684 0.0000
1.0000 -0.2632 0.0000
1.0000 -0.1579 0.0000
1.0000 -0.0526 0.0000
1.0000 0.0526 0.0000
1.0000 0.1579 0.0000
1.0000 0.2632 0.0000
1.0000 0.3684 0.0000
1.0000 0.4737 0.0000
1.0000 0.5789 0.0000
1.0000 0.6842 0.0000
1.0000 0.7895 0.0000
1.0000 0.8947 0.0000
1.0000 1.0000 0.0000
-0.8947 -1.0000 0.0000
-0.7895 -1.0000 0.0000
-0.6842 -1.0000 0.0000
-0.5789 -1.0000 0.0000
-0.4737 -1.0000 0.0000
-0.3684 -1.0000 0.0000
-0.2632 -1.0000 0.0000
-0.1579 -1.0000 0.0000
-0.0526 -1.0000 0.0000
0.0526 -1.0000 0.0000
0.0526 0.1579 0.0000
0.1579 -1.0000 0.0000
0.2632 -1.0000 0.0000
0.3684 -1.0000 0.0000
0.4737 -1.0000 0.0000
0.5789 -1.0000 0.0000
0.6842 -1.0000 0.0000
0.7895 -1.0000 0.0000
0.8947 -1.0000 0.0000
1.0000 -1.0000 0.0000
-1.0000 -1.0000 0.0000
1.1053 -0.8947 0.0000
1.1053 -0.7895 0.0000
1.1053 -0.6842 0.0000
1.1053 -0.5789 0.0000
1.1053 -0.4737 0.0000
1.1053 -0.3684 0.0000
1.1053 -0.2632 0.0000
1.1053 -0.1579 0.0000
1.1053 -0.0526 0.0000
1.1053 0.0526 0.0000
1.1053 0.1579 0.0000
1.1053 0.2632 0.0000
1.1053 0.3684 0.0000
1.1053 0.4737 0.0000
1.1053 0.5789 0.0000
1.1053 0.6842 0.0000
1.1053 0.7895 0.0000
1.1053 0.8947 0.0000
1.1053 1.0000 0.0000
1.2105 -0.8947 0.0000
1.2105 -0.7895 0.0000
1.2105 -0.6842 0.0000
1.2105 -0.5789 0.0000
1.2105 -0.4737 0.0000
1.2105 -0.3684 0.0000
1.2105 -0.2632 0.0000
1.2105 -0.1579 0.0000
1.2105 -0.0526 0.0000
1.2105 0.0526 0.0000
1.2105 0.1579 0.0000
1.2105 0.2632 0.0000
1.2105 0.3684 0.0000
1.2105 0.4737 0.0000
1.2105 0.5789 0.0000
1.2105 0.6842 0.0000
1.2105 0.7895 0.0000
1.2105 0.8947 0.0000
1.2105 1.0000 0.0000
1.3158 -0.8947 0.0000
1.3158 -0.7895 0.0000
1.3158 -0.6842 0.0000
1.3158 -0.5789 0.0000
1.3158 -0.4737 0.0000
1.3158 -0.3684 0.0000
1.3158 -0.2632 0.0000
[...]
         <PointData>
            <DataArray Name="fValues" NumberOfComponents="3" format="ascii" type="Float64">
 6.47763e-18  1.64327e-16        00000 
-1.07886e-17 -3.77601e-17        00000 
 3.16240e-17  6.75950e-18        00000 
-1.07886e-17 -3.77601e-17        00000 
 3.57516e-17 -3.01601e-17        00000 
 1.75315e-17  9.17032e-17        00000 
 5.98569e-17 -2.17662e-17        00000 
-2.69715e-18  9.70975e-17        00000 
 1.08441e-17 -3.55821e-17        00000 
-1.34858e-18  8.63089e-17        00000 
-2.17662e-17  1.08831e-17        00000 
 9.44003e-18  3.77601e-17        00000 
-5.76092e-18 -1.21996e-17        00000 
-2.42744e-17  4.85487e-17        00000 
 7.48224e-17 -8.16245e-17        00000 
-8.36117e-17  8.09146e-17        00000 
 3.42905e-17 -1.73150e-17        00000 
-7.61680e-17 -2.72029e-17        00000 
 7.61300e-17  1.20977e-16        00000 
 5.73335e-01  7.10671e-01        00000 
 4.70606e-01  6.18485e-01        00000 
 3.97555e-01  5.41172e-01        00000 
 3.30733e-01  4.84665e-01        00000 
 2.67744e-01  4.40485e-01        00000 
 2.06659e-01  4.06915e-01        00000 
 1.46781e-01  3.82690e-01        00000 
 8.77175e-02  3.67020e-01        00000 
 2.91711e-02  3.59342e-01        00000 
-2.91916e-02  3.59351e-01        00000 
-8.77327e-02  3.67044e-01        00000 
-1.46788e-01  3.82725e-01        00000 
-2.06656e-01  4.06952e-01        00000 
-2.67742e-01  4.40524e-01        00000 
-3.30663e-01  4.84622e-01        00000 
-3.97744e-01  5.41246e-01        00000 
-4.68670e-01  6.14115e-01        00000 
-5.74516e-01  7.10042e-01        00000 
-1.03186e+00  9.49612e-01        00000 
 1.22606e+00  1.51360e+00        00000 
 9.90690e-01  1.32670e+00        00000 
 8.35707e-01  1.18215e+00        00000 
 6.93753e-01  1.06864e+00        00000 
 5.60673e-01  9.80114e-01        00000 
 4.32119e-01  9.12779e-01        00000 
 3.06510e-01  8.64251e-01        00000 
 1.82977e-01  8.32897e-01        00000 
 6.08088e-02  8.17552e-01        00000 
-6.08627e-02  8.17569e-01        00000 
-1.83017e-01  8.32943e-01        00000 
-3.06528e-01  8.64316e-01        00000 
-4.32112e-01  9.12851e-01        00000 
-5.60666e-01  9.80193e-01        00000 
-6.93612e-01  1.06874e+00        00000 
-8.36172e-01  1.18246e+00        00000 
-9.85155e-01  1.32843e+00        00000 
-1.23605e+00  1.51795e+00        00000 
-1.79687e+00  1.73289e+00        00000 
 1.86964e+00  2.31829e+00        00000 
 1.54931e+00  2.09360e+00        00000 
 1.30821e+00  1.89328e+00        00000 
 1.08620e+00  1.72975e+00        00000 
 8.77149e-01  1.60051e+00        00000 
 6.75309e-01  1.50157e+00        00000 
 4.78399e-01  1.43015e+00        00000 
 2.85230e-01  1.38406e+00        00000 
 9.47071e-02  1.36156e+00        00000 
-9.48111e-02  1.36159e+00        00000 
-2.85305e-01  1.38413e+00        00000 
-4.78430e-01  1.43024e+00        00000 
-6.75299e-01  1.50167e+00        00000 
-8.77126e-01  1.60061e+00        00000 
-1.08607e+00  1.72988e+00        00000 
-1.30861e+00  1.89341e+00        00000 
-1.54494e+00  2.09521e+00        00000 
-1.88020e+00  2.32282e+00        00000 
-2.49357e+00  2.54890e+00        00000 
 2.52618e+00  3.14434e+00        00000 
 2.13054e+00  2.89423e+00        00000 
 1.80632e+00  2.65219e+00        00000 
 1.50262e+00  2.44855e+00        00000 
 1.21385e+00  2.28472e+00        00000 
 9.34016e-01  2.15806e+00        00000 
 6.60789e-01  2.06632e+00        00000 
 3.93286e-01  2.00729e+00        00000 
 1.30401e-01  1.97865e+00        00000 
-1.30581e-01  1.97869e+00        00000 
-3.93407e-01  2.00739e+00        00000 
-6.60831e-01  2.06645e+00        00000 
-9.33993e-01  2.15820e+00        00000 
-1.21380e+00  2.28485e+00        00000 
-1.50248e+00  2.44869e+00        00000 
-1.80663e+00  2.65223e+00        00000 
-2.12656e+00  2.89520e+00        00000 
-2.53576e+00  3.14926e+00        00000 
-3.18481e+00  3.38232e+00        00000 
 3.18871e+00  3.98489e+00        00000 
 2.72453e+00  3.71743e+00        00000 
 2.32148e+00  3.44487e+00        00000 
 1.93702e+00  3.21067e+00        00000 
 1.56683e+00  3.01899e+00        00000 
 1.20554e+00  2.86900e+00        00000 
 8.51458e-01  2.75988e+00        00000 
 5.05235e-01  2.69018e+00        00000 
 1.67032e-01  2.65691e+00        00000 
-1.67337e-01  2.65698e+00        00000 
-5.05416e-01  2.69033e+00        00000 
-8.51499e-01  2.76006e+00        00000 
-1.20548e+00  2.86916e+00        00000 
-1.56675e+00  3.01913e+00        00000 
-1.93686e+00  3.21081e+00        00000 
-2.32174e+00  3.44486e+00        00000 
-2.72098e+00  3.71782e+00        00000 
-3.19713e+00  3.99001e+00        00000 
-3.87769e+00  4.22827e+00        00000 
 3.85471e+00  4.83694e+00        00000 
 3.32611e+00  4.55749e+00        00000 
 2.84777e+00  4.26321e+00        00000 
 2.38430e+00  4.00663e+00        00000 
 1.93260e+00  3.79348e+00        00000 
 1.48771e+00  3.62409e+00        00000 
 1.04835e+00  3.49965e+00        00000 
 6.18263e-01  3.42117e+00        00000 
 2.02868e-01  3.38539e+00        00000 
-2.03392e-01  3.38546e+00        00000 
-6.18507e-01  3.42145e+00        00000 
-1.04833e+00  3.49985e+00        00000 
-1.48760e+00  3.62427e+00        00000 
-1.93245e+00  3.79361e+00        00000 
-2.38412e+00  4.00675e+00        00000 
-2.84797e+00  4.26316e+00        00000 
-3.32295e+00  4.55743e+00        00000 
-3.86204e+00  4.84216e+00        00000 
-4.57182e+00  5.08398e+00        00000 
 4.52245e+00  5.69832e+00        00000 
 3.93203e+00  5.41112e+00        00000 
 3.38100e+00  5.10236e+00        00000 
 2.84037e+00  4.83066e+00        00000 
 2.30813e+00  4.60240e+00        00000 
 1.77976e+00  4.41776e+00        00000 
 1.25162e+00  4.27754e+00        00000 
 7.28894e-01  4.18867e+00        00000 
 2.33069e-01  4.15264e+00        00000 
-2.34086e-01  4.15322e+00        00000 
-7.28996e-01  4.18880e+00        00000 
-1.25157e+00  4.27792e+00        00000 
-1.77947e+00  4.41788e+00        00000 
-2.30792e+00  4.60247e+00        00000 
-2.84018e+00  4.83076e+00        00000 
-3.38116e+00  5.10228e+00        00000 
-3.92927e+00  5.41072e+00        00000 
-4.52875e+00  5.70355e+00        00000 
-5.26659e+00  5.94773e+00        00000 
 5.19089e+00  6.56767e+00        00000 
 4.54014e+00  6.27624e+00        00000 
 3.91802e+00  5.95923e+00        00000 
 3.30160e+00  5.67915e+00        00000 
 2.69006e+00  5.44278e+00        00000 
 2.07995e+00  5.24979e+00        00000 
 1.46652e+00  5.09748e+00        00000 
 8.40083e-01  4.98449e+00        00000 
 2.43675e-01  4.93743e+00        00000 
-8.40558e-01  4.98647e+00        00000 
-1.46571e+00  5.09760e+00        00000 
-2.07953e+00  5.24968e+00        00000 
-2.68984e+00  5.44277e+00        00000 
-3.30143e+00  5.67923e+00        00000 
-3.91817e+00  5.95914e+00        00000 
-4.53779e+00  6.27559e+00        00000 
-5.19621e+00  6.57283e+00        00000 
-5.96154e+00  6.81840e+00        00000 
 5.85936e+00  7.44402e+00        00000 
 5.14892e+00  7.15135e+00        00000 
 4.45640e+00  6.83144e+00        00000 
 3.76467e+00  6.54904e+00        00000 
 3.07409e+00  6.31163e+00        00000 
 2.38297e+00  6.12001e+00        00000 
 1.68803e+00  5.97263e+00        00000 
 9.73890e-01  5.86199e+00        00000 
-1.68717e+00  5.97150e+00        00000 
-2.38266e+00  6.11976e+00        00000 
-3.07393e+00  6.31163e+00        00000 
-3.76455e+00  6.54915e+00        00000 
-4.45653e+00  6.83138e+00        00000 
-5.14698e+00  7.15054e+00        00000 
-5.86372e+00  7.44903e+00        00000 
-6.65640e+00  7.69520e+00        00000 
 6.52744e+00  8.32673e+00        00000 
 5.75738e+00  8.03535e+00        00000 
 4.99440e+00  7.71705e+00        00000 
 4.22703e+00  7.43712e+00        00000 
 3.45659e+00  7.20367e+00        00000 
 2.68259e+00  7.01932e+00        00000 
 1.90318e+00  6.88774e+00        00000 
 1.10955e+00  6.81656e+00        00000 
-1.90297e+00  6.88805e+00        00000 
-2.68238e+00  7.01944e+00        00000 
-3.45649e+00  7.20383e+00        00000 
-4.22696e+00  7.43732e+00        00000 
-4.99451e+00  7.71704e+00        00000 
-5.75588e+00  8.03444e+00        00000 
-6.53086e+00  8.33151e+00        00000 
-7.35105e+00  8.57765e+00        00000 
 7.19493e+00  9.21550e+00        00000 
 6.36491e+00  8.92768e+00        00000 
 5.53094e+00  8.61489e+00        00000 
 4.68737e+00  8.34104e+00        00000 
 3.83635e+00  8.11391e+00        00000 
 2.97864e+00  7.93563e+00        00000 
 2.11388e+00  7.80725e+00        00000 
 1.24673e+00  7.72425e+00        00000 
 4.08135e-01  7.68223e+00        00000 
-4.07656e-01  7.68241e+00        00000 
-1.24847e+00  7.72366e+00        00000 
-2.11321e+00  7.80777e+00        00000 
-2.97848e+00  7.93598e+00        00000 
-3.83625e+00  8.11420e+00        00000 
-4.68733e+00  8.34132e+00        00000 
-5.53103e+00  8.61493e+00        00000 
-6.36387e+00  8.92672e+00        00000 
-7.19740e+00  9.21995e+00        00000 
-8.04551e+00  9.46553e+00        00000 
 7.86166e+00  1.01105e+01        00000 
 6.97104e+00  9.82856e+00        00000 
 6.06527e+00  9.52523e+00        00000 
 5.14500e+00  9.26099e+00        00000 
 4.21362e+00  9.04233e+00        00000 
 3.27383e+00  8.86966e+00        00000 
 2.32903e+00  8.74108e+00        00000 
 1.38719e+00  8.65301e+00        00000 
 4.59383e-01  8.60619e+00        00000 
-4.59398e-01  8.60630e+00        00000 
-1.38775e+00  8.65313e+00        00000 
-2.32913e+00  8.74102e+00        00000 
-3.27367e+00  8.86992e+00        00000 
-4.21355e+00  9.04264e+00        00000 
-5.14497e+00  9.26131e+00        00000 
-6.06532e+00  9.52532e+00        00000 
-6.97051e+00  9.82759e+00        00000 
-7.86319e+00  1.01145e+01        00000 
-8.73987e+00  1.03590e+01        00000 
 8.52729e+00  1.10126e+01        00000 
 7.57500e+00  1.07393e+01        00000 
 6.59616e+00  1.04502e+01        00000 
 5.59863e+00  1.02002e+01        00000 
 4.58745e+00  9.99397e+00        00000 
 3.56744e+00  9.83059e+00        00000 
 2.54361e+00  9.70792e+00        00000 
 1.52182e+00  9.62456e+00        00000 
 5.06092e-01  9.58169e+00        00000 
-5.06252e-01  9.58174e+00        00000 
-1.52207e+00  9.62463e+00        00000 
-2.54375e+00  9.70801e+00        00000 
-3.56745e+00  9.83075e+00        00000 
-4.58742e+00  9.99424e+00        00000 
-5.59865e+00  1.02005e+01        00000 
-6.59617e+00  1.04503e+01        00000 
-7.57506e+00  1.07383e+01        00000 
-8.52788e+00  1.10160e+01        00000 
-9.43418e+00  1.12587e+01        00000 
 9.19104e+00  1.19232e+01        00000 
 8.17521e+00  1.16622e+01        00000 
 7.12130e+00  1.13937e+01        00000 
 6.04557e+00  1.11642e+01        00000 
 4.95488e+00  1.09764e+01        00000 
 3.85547e+00  1.08282e+01        00000 
 2.75239e+00  1.07175e+01        00000 
 1.64970e+00  1.06432e+01        00000 
 5.49397e-01  1.06056e+01        00000 
-5.49578e-01  1.06056e+01        00000 
-1.64988e+00  1.06432e+01        00000 
-2.75253e+00  1.07176e+01        00000 
-3.85555e+00  1.08284e+01        00000 
-4.95492e+00  1.09767e+01        00000 
-6.04564e+00  1.11646e+01        00000 
-7.12128e+00  1.13938e+01        00000 
-8.17597e+00  1.16613e+01        00000 
-9.19069e+00  1.19259e+01        00000 
-1.01283e+01  1.21658e+01        00000 
 9.85122e+00  1.28447e+01        00000 
 8.76865e+00  1.26011e+01        00000 
 7.63667e+00  1.23617e+01        00000 
 6.48150e+00  1.21610e+01        00000 
 5.31162e+00  1.19988e+01        00000 
 4.13383e+00  1.18719e+01        00000 
 2.95262e+00  1.17777e+01        00000 
 1.77094e+00  1.17151e+01        00000 
 5.90078e-01  1.16837e+01        00000 
-5.90274e-01  1.16838e+01        00000 
-1.77113e+00  1.17152e+01        00000 
-2.95278e+00  1.17779e+01        00000 
-4.13395e+00  1.18721e+01        00000 
-5.31171e+00  1.19991e+01        00000 
-6.48163e+00  1.21613e+01        00000 
-7.63661e+00  1.23618e+01        00000 
-8.77031e+00  1.26004e+01        00000 
-9.84991e+00  1.28464e+01        00000 
-1.08217e+01  1.30821e+01        00000 
 1.05044e+01  1.37815e+01        00000 
 9.34966e+00  1.35627e+01        00000 
 8.13570e+00  1.33635e+01        00000 
 6.90030e+00  1.32014e+01        00000 
 5.65255e+00  1.30725e+01        00000 
 4.39866e+00  1.29725e+01        00000 
 3.14214e+00  1.28988e+01        00000 
 1.88502e+00  1.28501e+01        00000 
 6.28169e-01  1.28258e+01        00000 
-6.28470e-01  1.28258e+01        00000 
-1.88530e+00  1.28502e+01        00000 
-3.14238e+00  1.28990e+01        00000 
-4.39887e+00  1.29728e+01        00000 
-5.65273e+00  1.30729e+01        00000 
-6.90055e+00  1.32019e+01        00000 
-8.13564e+00  1.33638e+01        00000 
-9.35256e+00  1.35623e+01        00000 
-1.05018e+01  1.37819e+01        00000 
-1.15138e+01  1.40112e+01        00000 
 1.11418e+01  1.47380e+01        00000 
 9.90524e+00  1.45545e+01        00000 
 8.60620e+00  1.44113e+01        00000 
 7.29221e+00  1.42985e+01        00000 
 5.97001e+00  1.42097e+01        00000 
 4.64419e+00  1.41411e+01        00000 
 3.31705e+00  1.40905e+01        00000 
 1.98980e+00  1.40570e+01        00000 
 6.62891e-01  1.40403e+01        00000 
-6.63814e-01  1.40402e+01        00000 
-1.99066e+00  1.40569e+01        00000 
-3.31781e+00  1.40904e+01        00000 
-4.64486e+00  1.41410e+01        00000 
-5.97061e+00  1.42096e+01        00000 
-7.29290e+00  1.42984e+01        00000 
-8.60656e+00  1.44111e+01        00000 
-9.91031e+00  1.45541e+01        00000 
-1.11369e+01  1.47363e+01        00000 
-1.22066e+01  1.49553e+01        00000 
 1.17303e+01  1.57533e+01        00000 
 1.03875e+01  1.56229e+01        00000 
 9.00956e+00  1.55436e+01        00000 
 7.62326e+00  1.54848e+01        00000 
 6.23402e+00  1.54395e+01        00000 
 4.84474e+00  1.54054e+01        00000 
 3.45714e+00  1.53813e+01        00000 
 2.07202e+00  1.53661e+01        00000 
 6.89059e-01  1.53590e+01        00000 
-6.92984e-01  1.53596e+01        00000 
-2.07578e+00  1.53677e+01        00000 
-3.46066e+00  1.53836e+01        00000 
-4.84810e+00  1.54082e+01        00000 
-6.23742e+00  1.54425e+01        00000 
-7.62706e+00  1.54878e+01        00000 
-9.01355e+00  1.55464e+01        00000 
-1.03983e+01  1.56244e+01        00000 
-1.17226e+01  1.57503e+01        00000 
-1.29266e+01  1.59558e+01        00000 
-2.45250e-01  4.93492e+00        00000 
-9.71885e-01  5.85916e+00        00000 
 1.22468e+01  1.70313e+01        00000 
 1.07848e+01  1.69507e+01        00000 
 9.33355e+00  1.69072e+01        00000 
 7.88101e+00  1.68802e+01        00000 
 6.43088e+00  1.68633e+01        00000 
 4.98632e+00  1.68559e+01        00000 
 3.55048e+00  1.68559e+01        00000 
 2.12460e+00  1.68595e+01        00000 
 7.06852e-01  1.68627e+01        00000 
-7.07704e-01  1.68627e+01        00000 
-2.12531e+00  1.68595e+01        00000 
-3.55097e+00  1.68558e+01        00000 
-4.98668e+00  1.68558e+01        00000 
-6.43123e+00  1.68631e+01        00000 
-7.88138e+00  1.68800e+01        00000 
-9.33420e+00  1.69076e+01        00000 
-1.07843e+01  1.69488e+01        00000 
-1.22409e+01  1.70255e+01        00000 
-1.37208e+01  1.72255e+01        00000 
 1.02992e+00  9.49051e-01        00000 
 1.79710e+00  1.73102e+00        00000 
 2.49345e+00  2.54785e+00        00000 
 3.18462e+00  3.38203e+00        00000 
 3.87775e+00  4.22832e+00        00000 
 4.57210e+00  5.08430e+00        00000 
 5.26706e+00  5.94825e+00        00000 
 5.96217e+00  6.81906e+00        00000 
 6.65715e+00  7.69597e+00        00000 
 7.35190e+00  8.57848e+00        00000 
-1.10517e+00  6.81747e+00        00000 
 8.04644e+00  9.46640e+00        00000 
 8.74086e+00  1.03599e+01        00000 
 9.43521e+00  1.12595e+01        00000 
 1.01293e+01  1.21665e+01        00000 
 1.08228e+01  1.30827e+01        00000 
 1.15150e+01  1.40114e+01        00000 
 1.22077e+01  1.49560e+01        00000 
 1.29234e+01  1.59441e+01        00000 
 1.37221e+01  1.72305e+01        00000 
-1.61941e-18 -4.10818e-17        00000 
 1.27054e+01  1.87990e+01        00000 
 1.11330e+01  1.87032e+01        00000 
 9.60790e+00  1.86317e+01        00000 
 8.08648e+00  1.85845e+01        00000 
 6.57226e+00  1.85596e+01        00000 
 5.07203e+00  1.85558e+01        00000 
 3.59392e+00  1.85677e+01        00000 
 2.14199e+00  1.85856e+01        00000 
 7.11878e-01  1.85982e+01        00000 
-7.09606e-01  1.85978e+01        00000 
-2.13948e+00  1.85845e+01        00000 
-3.59109e+00  1.85658e+01        00000 
-5.06904e+00  1.85532e+01        00000 
-6.56927e+00  1.85567e+01        00000 
-8.08322e+00  1.85817e+01        00000 
-9.60496e+00  1.86296e+01        00000 
-1.11217e+01  1.87008e+01        00000 
-1.27076e+01  1.88016e+01        00000 
-1.44747e+01  1.89605e+01        00000 
 1.31264e+01  2.08520e+01        00000 
 1.14658e+01  2.07049e+01        00000 
 9.86191e+00  2.05713e+01        00000 
 8.26143e+00  2.04727e+01        00000 
 6.67178e+00  2.04118e+01        00000 
 5.10710e+00  2.03875e+01        00000 
 3.58586e+00  2.03923e+01        00000 
 2.11908e+00  2.04115e+01        00000 
 6.99422e-01  2.04275e+01        00000 
-7.01306e-01  2.04277e+01        00000 
-2.12019e+00  2.04122e+01        00000 
-3.58583e+00  2.03928e+01        00000 
-5.10666e+00  2.03874e+01        00000 
-6.67169e+00  2.04113e+01        00000 
-8.26184e+00  2.04721e+01        00000 
-9.86322e+00  2.05709e+01        00000 
-1.14628e+01  2.07051e+01        00000 
-1.31342e+01  2.08563e+01        00000 
-1.50624e+01  2.10086e+01        00000 
 1.35564e+01  2.29702e+01        00000 
 1.18207e+01  2.27803e+01        00000 
 1.01322e+01  2.25867e+01        00000 
 8.44261e+00  2.24312e+01        00000 
 6.76346e+00  2.23216e+01        00000 
 5.12033e+00  2.22584e+01        00000 
 3.54799e+00  2.22346e+01        00000 
 2.07034e+00  2.22350e+01        00000 
 6.77609e-01  2.22411e+01        00000 
-6.80869e-01  2.22417e+01        00000 
-2.07215e+00  2.22356e+01        00000 
-3.54689e+00  2.22354e+01        00000 
-5.11842e+00  2.22579e+01        00000 
-6.76265e+00  2.23211e+01        00000 
-8.44256e+00  2.24311e+01        00000 
-1.01330e+01  2.25868e+01        00000 
-1.18174e+01  2.27810e+01        00000 
-1.35654e+01  2.29759e+01        00000 
-1.55258e+01  2.31372e+01        00000 
 1.39974e+01  2.51082e+01        00000 
 1.22032e+01  2.48909e+01        00000 
 1.04361e+01  2.46503e+01        00000 
 8.65392e+00  2.44414e+01        00000 
 6.87275e+00  2.42773e+01        00000 
 5.13560e+00  2.41605e+01        00000 
 3.50257e+00  2.40780e+01        00000 
 2.01360e+00  2.40148e+01        00000 
 6.55211e-01  2.39725e+01        00000 
-6.59813e-01  2.39705e+01        00000 
-2.01822e+00  2.40166e+01        00000 
-3.49793e+00  2.40764e+01        00000 
-5.13294e+00  2.41589e+01        00000 
-6.87234e+00  2.42769e+01        00000 
-8.65436e+00  2.44418e+01        00000 
-1.04372e+01  2.46507e+01        00000 
-1.22010e+01  2.48911e+01        00000 
-1.40055e+01  2.51136e+01        00000 
-1.59963e+01  2.52839e+01        00000 
 1.44503e+01  2.72730e+01        00000 
 1.26098e+01  2.70411e+01        00000 
 1.07738e+01  2.67717e+01        00000 
 8.90139e+00  2.65227e+01        00000 
 7.00427e+00  2.63076e+01        00000 
 5.15117e+00  2.61368e+01        00000 
 3.46876e+00  2.59676e+01        00000 
-5.14912e+00  2.61366e+01        00000 
-7.00481e+00  2.63092e+01        00000 
-8.90211e+00  2.65242e+01        00000 
-1.07749e+01  2.67727e+01        00000 
-1.26083e+01  2.70410e+01        00000 
-1.44579e+01  2.72781e+01        00000 
-1.64718e+01  2.74535e+01        00000 
 1.49086e+01  2.94651e+01        00000 
 1.30306e+01  2.92350e+01        00000 
 1.11368e+01  2.89649e+01        00000 
 9.18024e+00  2.87069e+01        00000 
 7.15500e+00  2.84765e+01        00000 
 5.12628e+00  2.82815e+01        00000 
-7.15586e+00  2.84808e+01        00000 
-9.18059e+00  2.87094e+01        00000 
-1.11376e+01  2.89661e+01        00000 
-1.30299e+01  2.92350e+01        00000 
-1.49159e+01  2.94695e+01        00000 