<?xml version="1.0" encoding="utf-8"?>
<VTKFile byte_order="LittleEndian" type="UnstructuredGrid" version="0.1">
   <UnstructuredGrid>
      <Piece NumberOfCells="2280" NumberOfPoints="1676">
         <Points>
            <DataArray Name="Points" NumberOfComponents="3" format="ascii" type="Float32">
-1.0000 -0.8947 0.0000
-1.0000 -0.7895 0.0000
-1.0000 -0.6842 0.0000
-1.0000 -0.5789 0.0000
-1.0000 -0.4737 0.0000
-1.0000 -0.3684 0.0000
-1.0000 -0.2632 0.0000
-1.0000 -0.1579 0.0000
-1.0000 -0.0526 0.0000
-1.0000 0.0526 0.0000
-1.0000 0.1579 0.0000
-1.0000 0.2632 0.0000
-1.0000 0.3684 0.0000
-1.0000 0.4737 0.0000
-1.0000 0.5789 0.0000
-1.0000 0.6842 0.0000
-1.0000 0.7895 0.0000
-1.0000 0.8947 0.0000
-1.0000 1.0000 0.0000
-0.8947 -0.8947 0.0000
-0.8947 -0.7895 0.0000
-0.8947 -0.6842 0.0000
-0.8947 -0.5789 0.0000
-0.8947 -0.4737 0.0000
-0.8947 -0.3684 0.0000
-0.8947 -0.2632 0.0000
-0.8947 -0.1579 0.0000
-0.8947 0.2632 0.0000
-0.8947 0.3684 0.0000
-0.8947 0.4737 0.0000
-0.8947 0.5789 0.0000
-0.8947 0.6842 0.0000
-0.8947 0.7895 0.0000
-0.8947 0.8947 0.0000
-0.8947 1.0000 0.0000
-0.7895 -0.8947 0.0000
-0.7895 -0.7895 0.0000
-0.7895 -0.6842 0.0000
-0.7895 -0.5789 0.0000
-0.7895 -0.4737 0.0000
-0.7895 0.5789 0.0000
-0.7895 0.6842 0.0000
-0.7895 0.7895 0.0000
-0.7895 0.8947 0.0000
-0.7895 1.0000 0.0000
-0.6842 -0.8947 0.0000
-0.6842 -0.7895 0.0000
-0.6842 -0.6842 0.0000
-0.6842 -0.5789 0.0000
-0.6842 0.6842 0.0000
-0.6842 0.7895 0.0000
-0.6842 0.8947 0.0000
-0.6842 1.0000 0.0000
-0.5789 -0.8947 0.0000
-0.5789 -0.7895 0.0000
-0.5789 -0.6842 0.0000
-0.5789 0.7895 0.0000
-0.5789 0.8947 0.0000
-0.5789 1.0000 0.0000
-0.4737 -0.8947 0.0000
-0.4737 -0.7895 0.0000
-0.4737 0.8947 0.0000
-0.4737 1.0000 0.0000
-0.3684 -0.8947 0.0000
-0.3684 -0.7895 0.0000
-0.3684 0.8947 0.0000
-0.3684 1.0000 0.0000
-0.2632 -0.8947 0.0000
-0.2632 1.0000 0.0000
-0.1579 -0.8947 0.0000
-0.1579 1.0000 0.0000
-0.0526 -0.8947 0.0000
-0.0526 1.0000 0.0000
0.0526 -0.8947 0.0000
0.0526 1.0000 0.0000
0.1579 -0.8947 0.0000
0.1579 1.0000 0.0000
0.2632 -0.8947 0.0000
0.2632 1.0000 0.0000
0.3684 -0.8947 0.0000
0.3684 -0.7895 0.0000
0.3684 0.8947 0.0000
0.3684 1.0000 0.0000
0.4737 -0.8947 0.0000
0.4737 -0.7895 0.0000
0.4737 0.8947 0.0000
0.4737 1.0000 0.0000
0.5789 -0.8947 0.0000
0.5789 -0.7895 0.0000
0.5789 -0.6842 0.0000
0.5789 0.7895 0.0000
0.5789 0.8947 0.0000
0.5789 1.0000 0.0000
0.6842 -0.8947 0.0000
0.6842 -0.7895 0.0000
0.6842 -0.6842 0.0000
0.6842 -0.5789 0.0000
0.6842 0.6842 0.0000
0.6842 0.7895 0.0000
0.6842 0.8947 0.0000
0.6842 1.0000 0.0000
0.7895 -0.8947 0.0000
0.7895 -0.7895 0.0000
0.7895 -0.6842 0.0000
0.7895 -0.5789 0.0000
0.7895 -0.4737 0.0000
0.7895 -0.3684 0.0000
0.7895 0.4737 0.0000
0.7895 0.5789 0.0000
0.7895 0.6842 0.0000
0.7895 0.7895 0.0000
0.7895 0.8947 0.0000
0.7895 1.0000 0.0000
0.8947 -0.8947 0.0000
0.8947 -0.7895 0.0000
0.8947 -0.6842 0.0000
0.8947 -0.5789 0.0000
0.8947 -0.4737 0.0000
0.8947 -0.3684 0.0000
0.8947 -0.2632 0.0000
0.8947 -0.1579 0.0000
0.8947 -0.0526 0.0000
0.8947 0.0526 0.0000
0.8947 0.1579 0.0000
0.8947 0.2632 0.0000
0.8947 0.3684 0.0000
0.8947 0.4737 0.0000
0.8947 0.5789 0.0000
0.8947 0.6842 0.0000
0.8947 0.7895 0.0000
0.8947 0.8947 0.0000
0.8947 1.0000 0.0000
-0.8947 -0.0526 0.0000
-0.8947 0.0526 0.0000
-0.8947 0.1579 0.0000
-0.7895 -0.3684 0.0000
-0.7895 0.3684 0.0000
-0.7895 0.4737 0.0000
-0.6842 0.5789 0.0000
-0.5789 0.6842 0.0000
-0.4737 0.7895 0.0000
-0.2632 0.8947 0.0000
-0.1579 0.8947 0.0000
0.2632 0.8947 0.0000
1.0000 -0.8947 0.0000
1.0000 -0.7895 0.0000
1.0000 -0.6842 0.0000
1.0000 -0.5789 0.0000
1.0000 -0.4737 0.0000
1.0000 -0.3684 0.0000
1.0000 -0.2632 0.0000
1.0000 -0.1579 0.0000
1.0000 -0.0526 0.0000
1.0000 0.0526 0.0000
1.0000 0.1579 0.0000
1.0000 0.2632 0.0000
1.0000 0.3684 0.0000
1.0000 0.4737 0.0000
1.0000 0.5789 0.0000
1.0000 0.6842 0.0000
1.0000 0.7895 0.0000
1.0000 0.8947 0.0000
1.0000 1.0000 0.0000
-0.8947 -1.0000 0.0000
-0.7895 -1.0000 0.0000
-0.6842 -1.0000 0.0000
-0.5789 -1.0000 0.0000
-0.4737 -1.0000 0.0000
-0.3684 -1.0000 0.0000
-0.3684 0.7895 0.0000
-0.2632 -1.0000 0.0000
-0.1579 -1.0000 0.0000
-0.0526 -1.0000 0.0000
-0.0526 0.8947 0.0000
0.0526 -1.0000 0.0000
0.0526 0.8947 0.0000
0.1579 -1.0000 0.0000
0.1579 0.8947 0.0000
0.2632 -1.0000 0.0000
0.3684 -1.0000 0.0000
0.3684 0.7895 0.0000
0.4737 -1.0000 0.0000
0.4737 0.7895 0.0000
0.5789 -1.0000 0.0000
0.5789 0.6842 0.0000
0.6842 -1.0000 0.0000
0.6842 0.5789 0.0000
0.7895 -1.0000 0.0000
0.8947 -1.0000 0.0000
1.0000 -1.0000 0.0000
-1.0000 -1.0000 0.0000
0.7895 0.3684 0.0000
1.1053 -0.8947 0.0000
1.1053 -0.7895 0.0000
1.1053 -0.6842 0.0000
1.1053 -0.5789 0.0000
1.1053 -0.4737 0.0000
1.1053 -0.3684 0.0000
1.1053 -0.2632 0.0000
1.1053 -0.1579 0.0000
1.1053 0.2632 0.0000
1.1053 0.3684 0.0000
1.1053 0.4737 0.0000
1.1053 0.5789 0.0000
1.1053 0.6842 0.0000
1.1053 0.7895 0.0000
1.1053 0.8947 0.0000
1.1053 1.0000 0.0000
1.2105 -0.8947 0.0000
1.2105 -0.7895 0.0000
1.2105 -0.6842 0.0000
1.2105 -0.5789 0.0000
1.2105 -0.4737 0.0000
1.2105 0.5789 0.0000
1.2105 0.6842 0.0000
1.2105 0.7895 0.0000
1.2105 0.8947 0.0000
1.2105 1.0000 0.0000
1.3158 -0.8947 0.0000
1.3158 -0.7895 0.0000
1.3158 -0.6842 0.0000
1.3158 -0.5789 0.0000
1.3158 0.6842 0.0000
1.3158 0.7895 0.0000
1.3158 0.8947 0.0000
1.3158 1.0000 0.0000
1.4211 -0.8947 0.0000
1.4211 -0.7895 0.0000
1.4211 -0.6842 0.0000
1.4211 0.7895 0.0000
1.4211 0.8947 0.0000
1.4211 1.0000 0.0000
1.5263 -0.8947 0.0000
1.5263 -0.7895 0.0000
1.5263 0.8947 0.0000
1.5263 1.0000 0.0000
1.6316 -0.8947 0.0000
1.6316 -0.7895 0.0000
1.6316 0.8947 0.0000
1.6316 1.0000 0.0000
1.7368 -0.8947 0.0000
1.7368 1.0000 0.0000
1.8421 -0.8947 0.0000
1.8421 1.0000 0.0000
1.9474 -0.8947 0.0000
1.9474 1.0000 0.0000
2.0526 -0.8947 0.0000
2.0526 1.0000 0.0000
2.1579 -0.8947 0.0000
2.1579 1.0000 0.0000
2.2632 -0.8947 0.0000
2.2632 1.0000 0.0000
2.3684 -0.8947 0.0000
2.3684 -0.7895 0.0000
2.3684 0.8947 0.0000
2.3684 1.0000 0.0000
2.4737 -0.8947 0.0000
2.4737 -0.7895 0.0000
2.4737 0.8947 0.0000
2.4737 1.0000 0.0000
2.5789 -0.8947 0.0000
2.5789 -0.7895 0.0000
2.5789 -0.6842 0.0000
2.5789 0.7895 0.0000
2.5789 0.8947 0.0000
2.5789 1.0000 0.0000
2.6842 -0.8947 0.0000
2.6842 -0.7895 0.0000
2.6842 -0.6842 0.0000
2.6842 -0.5789 0.0000
2.6842 0.6842 0.0000
2.6842 0.7895 0.0000
2.6842 0.8947 0.0000
2.6842 1.0000 0.0000
2.7895 -0.8947 0.0000
2.7895 -0.7895 0.0000
2.7895 -0.6842 0.0000
2.7895 -0.5789 0.0000
2.7895 -0.4737 0.0000
2.7895 -0.3684 0.0000
2.7895 0.4737 0.0000
2.7895 0.5789 0.0000
2.7895 0.6842 0.0000
2.7895 0.7895 0.0000
2.7895 0.8947 0.0000
2.7895 1.0000 0.0000
2.8947 -0.8947 0.0000
2.8947 -0.7895 0.0000
2.8947 -0.6842 0.0000
2.8947 -0.5789 0.0000
2.8947 -0.4737 0.0000
2.8947 -0.3684 0.0000
2.8947 -0.2632 0.0000
2.8947 -0.1579 0.0000
2.8947 -0.0526 0.0000
2.8947 0.0526 0.0000
2.8947 0.1579 0.0000
2.8947 0.2632 0.0000
2.8947 0.3684 0.0000
2.8947 0.4737 0.0000
2.8947 0.5789 0.0000
2.8947 0.6842 0.0000
2.8947 0.7895 0.0000
2.8947 0.8947 0.0000
2.8947 1.0000 0.0000
1.1053 -0.0526 0.0000
1.1053 0.0526 0.0000
1.1053 0.1579 0.0000
1.2105 -0.3684 0.0000
1.2105 0.3684 0.0000
1.2105 0.4737 0.0000
1.3158 0.5789 0.0000
1.4211 0.6842 0.0000
1.5263 0.7895 0.0000
1.7368 0.8947 0.0000
1.8421 0.8947 0.0000
2.2632 0.8947 0.0000
3.0000 -0.8947 0.0000
3.0000 -0.7895 0.0000
3.0000 -0.6842 0.0000
3.0000 -0.5789 0.0000
3.0000 -0.4737 0.0000
3.0000 -0.3684 0.0000
3.0000 -0.2632 0.0000
3.0000 -0.1579 0.0000
3.0000 -0.0526 0.0000
3.0000 0.0526 0.0000
3.0000 0.1579 0.0000
3.0000 0.2632 0.0000
3.0000 0.3684 0.0000
3.0000 0.4737 0.0000
3.0000 0.5789 0.0000
3.0000 0.6842 0.0000
3.0000 0.7895 0.0000
3.0000 0.8947 0.0000
3.0000 1.0000 0.0000
1.1053 -1.0000 0.0000
1.2105 -1.0000 0.0000
1.3158 -1.0000 0.0000
1.4211 -1.0000 0.0000
1.5263 -1.0000 0.0000
1.6316 -1.0000 0.0000
1.6316 0.7895 0.0000
1.7368 -1.0000 0.0000
1.8421 -1.0000 0.0000
1.9474 -1.0000 0.0000
1.9474 0.8947 0.0000
2.0526 -1.0000 0.0000
2.0526 0.8947 0.0000
2.1579 -1.0000 0.0000
2.1579 0.8947 0.0000
2.2632 -1.0000 0.0000
2.3684 -1.0000 0.0000
2.3684 0.7895 0.0000
2.4737 -1.0000 0.0000
2.4737 0.7895 0.0000
2.5789 -1.0000 0.0000
2.5789 0.6842 0.0000
2.6842 -1.0000 0.0000
2.6842 0.5789 0.0000
2.7895 -1.0000 0.0000
2.8947 -1.0000 0.0000
3.0000 -1.0000 0.0000
2.7895 0.3684 0.0000
3.1053 -0.8947 0.0000
3.1053 -0.7895 0.0000
3.1053 -0.6842 0.0000
3.1053 -0.5789 0.0000
3.1053 -0.4737 0.0000
3.1053 -0.3684 0.0000
3.1053 -0.2632 0.0000
3.1053 -0.1579 0.0000
3.1053 0.2632 0.0000
3.1053 0.3684 0.0000
3.1053 0.4737 0.0000
3.1053 0.5789 0.0000
3.1053 0.6842 0.0000
3.1053 0.7895 0.0000
3.1053 0.8947 0.0000
3.1053 1.0000 0.0000
3.2105 -0.8947 0.0000
3.2105 -0.7895 0.0000
3.2105 -0.6842 0.0000
3.2105 -0.5789 0.0000
3.2105 -0.4737 0.0000
3.2105 0.5789 0.0000
3.2105 0.6842 0.0000
3.2105 0.7895 0.0000
3.2105 0.8947 0.0000
3.2105 1.0000 0.0000
3.3158 -0.8947 0.0000
3.3158 -0.7895 0.0000
3.3158 -0.6842 0.0000
3.3158 -0.5789 0.0000
3.3158 0.6842 0.0000
3.3158 0.7895 0.0000
3.3158 0.8947 0.0000
3.3158 1.0000 0.0000
3.4211 -0.8947 0.0000
3.4211 -0.7895 0.0000
3.4211 -0.6842 0.0000
3.4211 0.7895 0.0000
3.4211 0.8947 0.0000
3.4211 1.0000 0.0000
3.5263 -0.8947 0.0000
3.5263 -0.7895 0.0000
3.5263 0.8947 0.0000
3.5263 1.0000 0.0000
3.6316 -0.8947 0.0000
3.6316 -0.7895 0.0000
3.6316 0.8947 0.0000
3.6316 1.0000 0.0000
3.7368 -0.8947 0.0000
3.7368 1.0000 0.0000
3.8421 -0.8947 0.0000
3.8421 1.0000 0.0000
3.9474 -0.8947 0.0000
3.9474 1.0000 0.0000
4.0526 -0.8947 0.0000
4.0526 1.0000 0.0000
4.1579 -0.8947 0.0000
4.1579 1.0000 0.0000
4.2632 -0.8947 0.0000
4.2632 1.0000 0.0000
4.3684 -0.8947 0.0000
4.3684 -0.7895 0.0000
4.3684 0.8947 0.0000
4.3684 1.0000 0.0000
4.4737 -0.8947 0.0000
4.4737 -0.7895 0.0000
4.4737 0.8947 0.0000
4.4737 1.0000 0.0000
4.5789 -0.8947 0.0000
4.5789 -0.7895 0.0000
4.5789 -0.6842 0.0000
4.5789 0.7895 0.0000
4.5789 0.8947 0.0000
4.5789 1.0000 0.0000
4.6842 -0.8947 0.0000
4.6842 -0.7895 0.0000
4.6842 -0.6842 0.0000
4.6842 -0.5789 0.0000
4.6842 0.6842 0.0000
4.6842 0.7895 0.0000
4.6842 0.8947 0.0000
4.6842 1.0000 0.0000
[...]
         <PointData>
            <DataArray Name="fValues" NumberOfComponents="3" format="ascii" type="Float64">
 6.54598e-17  4.36399e-17        00000 
-5.39430e-18  7.55203e-17        00000 
 8.81081e-18 -2.71102e-18        00000 
 4.31544e-17  9.70975e-17        00000 
-9.05770e-17 -1.07699e-16        00000 
-1.88801e-17  1.94195e-16        00000 
-1.08960e-17  4.35839e-17        00000 
-1.35692e-18  7.59873e-17        00000 
-3.56182e-18  3.25652e-17        00000 
 6.77919e-19  5.42335e-18        00000 
 2.02286e-18  1.07886e-17        00000 
 2.72399e-17  1.19856e-16        00000 
 6.74288e-17 -5.39430e-17        00000 
-3.80952e-17  2.17687e-17        00000 
       00000  1.29463e-16        00000 
 4.06653e-18 -9.69189e-17        00000 
 4.85487e-17  1.94195e-16        00000 
-1.52740e-16 -4.36399e-17        00000 
 3.23625e-16 -4.61780e-17        00000 
 9.21273e-01  1.33070e+00        00000 
 4.59704e-01  1.10082e+00        00000 
 1.08506e-01  8.89631e-01        00000 
-1.53789e-01  7.82227e-01        00000 
-2.82114e-01  7.17491e-01        00000 
-2.60177e-01  6.36914e-01        00000 
-1.24725e-01  5.01693e-01        00000 
-5.11729e-02  3.33388e-01        00000 
 1.34125e-01  5.01470e-01        00000 
 2.62138e-01  6.37082e-01        00000 
 2.80342e-01  7.17447e-01        00000 
 1.51609e-01  7.84351e-01        00000 
-1.09195e-01  8.92051e-01        00000 
-4.45344e-01  1.09454e+00        00000 
-9.24446e-01  1.34529e+00        00000 
-2.02531e+00  1.83252e+00        00000 
 2.05799e+00  3.10687e+00        00000 
 1.08734e+00  2.61540e+00        00000 
 3.09311e-01  2.17247e+00        00000 
-2.74563e-01  1.87614e+00        00000 
-5.11266e-01  1.61033e+00        00000 
 2.70803e-01  1.88046e+00        00000 
-3.08737e-01  2.17334e+00        00000 
-1.07038e+00  2.61464e+00        00000 
-2.07268e+00  3.12561e+00        00000 
-3.57494e+00  3.58907e+00        00000 
 3.24010e+00  5.04848e+00        00000 
 1.85053e+00  4.44344e+00        00000 
 5.76224e-01  3.83997e+00        00000 
-3.92174e-01  3.34339e+00        00000 
-5.74384e-01  3.83390e+00        00000 
-1.83862e+00  4.43743e+00        00000 
-3.25147e+00  5.06188e+00        00000 
-4.99265e+00  5.56643e+00        00000 
 4.46490e+00  7.19402e+00        00000 
 2.66392e+00  6.59627e+00        00000 
 7.69302e-01  6.05582e+00        00000 
-2.65563e+00  6.58621e+00        00000 
-4.47133e+00  7.20080e+00        00000 
-6.41586e+00  7.71225e+00        00000 
 5.69671e+00  9.53593e+00        00000 
 3.44094e+00  9.05860e+00        00000 
-5.69681e+00  9.53585e+00        00000 
-7.82361e+00  1.00138e+01        00000 
 6.92475e+00  1.19726e+01        00000 
 4.23915e+00  1.16830e+01        00000 
-6.91526e+00  1.19632e+01        00000 
-9.19142e+00  1.23782e+01        00000 
 8.19462e+00  1.42943e+01        00000 
-1.06095e+01  1.47345e+01        00000 
 9.68859e+00  1.65146e+01        00000 
-1.20836e+01  1.70915e+01        00000 
 1.13822e+01  1.87362e+01        00000 
-1.36392e+01  1.93076e+01        00000 
 1.32350e+01  2.08686e+01        00000 
-1.52658e+01  2.14292e+01        00000 
 1.50861e+01  2.30338e+01        00000 
-1.68917e+01  2.34837e+01        00000 
 1.67562e+01  2.50004e+01        00000 
-1.84450e+01  2.55228e+01        00000 
 1.81652e+01  2.70884e+01        00000 
 1.70440e+01  2.68192e+01        00000 
-1.81585e+01  2.70994e+01        00000 
-1.99109e+01  2.75257e+01        00000 
 1.95200e+01  2.90072e+01        00000 
 1.81618e+01  2.86172e+01        00000 
-1.95129e+01  2.90117e+01        00000 
-2.13288e+01  2.94718e+01        00000 
 2.08480e+01  3.09549e+01        00000 
 1.91627e+01  3.05050e+01        00000 
 1.76801e+01  3.02036e+01        00000 
-1.91449e+01  3.04997e+01        00000 
-2.08420e+01  3.09572e+01        00000 
-2.27663e+01  3.14389e+01        00000 
 2.21450e+01  3.30280e+01        00000 
 2.01452e+01  3.25715e+01        00000 
 1.81839e+01  3.22192e+01        00000 
 1.61295e+01  3.20345e+01        00000 
-1.81680e+01  3.22149e+01        00000 
-2.01325e+01  3.25661e+01        00000 
-2.21371e+01  3.30288e+01        00000 
-2.42113e+01  3.35063e+01        00000 
 2.33941e+01  3.52373e+01        00000 
 2.10746e+01  3.48394e+01        00000 
 1.87064e+01  3.45635e+01        00000 
 1.62548e+01  3.44395e+01        00000 
 1.35921e+01  3.43999e+01        00000 
 1.06805e+01  3.43387e+01        00000 
-1.35830e+01  3.43920e+01        00000 
-1.62440e+01  3.44325e+01        00000 
-1.86937e+01  3.45572e+01        00000 
-2.10693e+01  3.48327e+01        00000 
-2.33823e+01  3.52334e+01        00000 
-2.56403e+01  3.56924e+01        00000 
 2.45047e+01  3.76425e+01        00000 
 2.18331e+01  3.73648e+01        00000 
 1.91237e+01  3.72176e+01        00000 
 1.63722e+01  3.71729e+01        00000 
 1.35383e+01  3.71931e+01        00000 
 1.05958e+01  3.72289e+01        00000 
 7.56656e+00  3.72378e+01        00000 
 4.52890e+00  3.72167e+01        00000 
 1.50987e+00  3.72026e+01        00000 
-1.50399e+00  3.72019e+01        00000 
-4.52295e+00  3.72166e+01        00000 
-7.55813e+00  3.72368e+01        00000 
-1.05877e+01  3.72293e+01        00000 
-1.35319e+01  3.71948e+01        00000 
-1.63667e+01  3.71741e+01        00000 
-1.91176e+01  3.72179e+01        00000 
-2.18386e+01  3.73618e+01        00000 
-2.44868e+01  3.76302e+01        00000 
-2.70544e+01  3.80334e+01        00000 
-9.53442e-03  2.37368e-01        00000 
 1.33391e-02  2.38577e-01        00000 
 4.18739e-02  3.32695e-01        00000 
-4.21770e-01  1.22586e+00        00000 
 4.21796e-01  1.22087e+00        00000 
 5.04445e-01  1.61830e+00        00000 
 3.90769e-01  3.33682e+00        00000 
-7.65290e-01  6.04869e+00        00000 
-3.43498e+00  9.05339e+00        00000 
-8.16529e+00  1.42571e+01        00000 
-9.68218e+00  1.65948e+01        00000 
-1.67345e+01  2.50375e+01        00000 
 2.54143e+01  4.05314e+01        00000 
 2.23829e+01  4.03786e+01        00000 
 1.93974e+01  4.03036e+01        00000 
 1.64193e+01  4.02890e+01        00000 
 1.34467e+01  4.03086e+01        00000 
 1.04746e+01  4.03300e+01        00000 
 7.49600e+00  4.03219e+01        00000 
 4.50271e+00  4.02929e+01        00000 
 1.50581e+00  4.02681e+01        00000 
-1.49437e+00  4.02669e+01        00000 
-4.49369e+00  4.02917e+01        00000 
-7.48318e+00  4.03203e+01        00000 
-1.04625e+01  4.03262e+01        00000 
-1.34363e+01  4.03044e+01        00000 
-1.64088e+01  4.02843e+01        00000 
-1.93867e+01  4.02991e+01        00000 
-2.23663e+01  4.03706e+01        00000 
-2.53968e+01  4.05162e+01        00000 
-2.85289e+01  4.08868e+01        00000 
 2.02545e+00  1.83600e+00        00000 
 3.58355e+00  3.59022e+00        00000 
 5.00167e+00  5.57147e+00        00000 
 6.42621e+00  7.71936e+00        00000 
 7.83605e+00  1.00218e+01        00000 
 9.20480e+00  1.23964e+01        00000 
-4.22546e+00  1.16803e+01        00000 
 1.05939e+01  1.47396e+01        00000 
 1.20650e+01  1.70302e+01        00000 
 1.36388e+01  1.92786e+01        00000 
-1.14496e+01  1.87214e+01        00000 
 1.52687e+01  2.14563e+01        00000 
-1.33060e+01  2.08653e+01        00000 
 1.68764e+01  2.35522e+01        00000 
-1.50859e+01  2.29233e+01        00000 
 1.84327e+01  2.55180e+01        00000 
 1.99313e+01  2.75112e+01        00000 
-1.69975e+01  2.68212e+01        00000 
 2.13460e+01  2.94740e+01        00000 
-1.81411e+01  2.86109e+01        00000 
 2.27812e+01  3.14441e+01        00000 
-1.76625e+01  3.01982e+01        00000 
 2.42258e+01  3.35120e+01        00000 
-1.61154e+01  3.20311e+01        00000 
 2.56567e+01  3.56986e+01        00000 
 2.70700e+01  3.80224e+01        00000 
 2.85457e+01  4.09028e+01        00000 
-2.44717e-16 -1.25086e-16        00000 
-1.06700e+01  3.43349e+01        00000 
 2.61763e+01  4.42461e+01        00000 
 2.28122e+01  4.40573e+01        00000 
 1.95740e+01  4.39117e+01        00000 
 1.64018e+01  4.38314e+01        00000 
 1.33247e+01  4.37745e+01        00000 
 1.03497e+01  4.37022e+01        00000 
 7.44734e+00  4.35921e+01        00000 
 4.49031e+00  4.34626e+01        00000 
-7.42488e+00  4.35871e+01        00000 
-1.03326e+01  4.36950e+01        00000 
-1.33108e+01  4.37647e+01        00000 
-1.63876e+01  4.38220e+01        00000 
-1.95583e+01  4.39030e+01        00000 
-2.27760e+01  4.40484e+01        00000 
-2.61711e+01  4.42526e+01        00000 
-2.98965e+01  4.45405e+01        00000 
 2.68628e+01  4.84802e+01        00000 
 2.32088e+01  4.81698e+01        00000 
 1.96976e+01  4.78715e+01        00000 
 1.63249e+01  4.76592e+01        00000 
 1.31877e+01  4.74539e+01        00000 
-1.63170e+01  4.76574e+01        00000 
-1.96866e+01  4.78664e+01        00000 
-2.31873e+01  4.81627e+01        00000 
-2.68625e+01  4.84865e+01        00000 
-3.09514e+01  4.87738e+01        00000 
 2.75722e+01  5.29007e+01        00000 
 2.36429e+01  5.25067e+01        00000 
 1.98134e+01  5.20940e+01        00000 
 1.62105e+01  5.17336e+01        00000 
-1.98012e+01  5.20845e+01        00000 
-2.36220e+01  5.24972e+01        00000 
-2.75704e+01  5.29055e+01        00000 
-3.17960e+01  5.32133e+01        00000 
 2.82922e+01  5.74475e+01        00000 
 2.40974e+01  5.70590e+01        00000 
 1.98671e+01  5.66870e+01        00000 
-2.40791e+01  5.70462e+01        00000 
-2.82866e+01  5.74474e+01        00000 
-3.26476e+01  5.77598e+01        00000 
 2.90118e+01  6.21275e+01        00000 
 2.45191e+01  6.18245e+01        00000 
-2.90024e+01  6.21232e+01        00000 
-3.34864e+01  6.24125e+01        00000 
 2.97232e+01  6.68760e+01        00000 
 2.49296e+01  6.66996e+01        00000 
-2.97077e+01  6.68669e+01        00000 
-3.42971e+01  6.71140e+01        00000 
 3.04549e+01  7.15623e+01        00000 
-3.51311e+01  7.18150e+01        00000 
 3.13215e+01  7.61779e+01        00000 
-3.59988e+01  7.65111e+01        00000 
 3.23218e+01  8.07838e+01        00000 
-3.69220e+01  8.11202e+01        00000 
 3.34329e+01  8.53355e+01        00000 
-3.78976e+01  8.56703e+01        00000 
 3.45599e+01  8.99106e+01        00000 
-3.88843e+01  9.01812e+01        00000 
 3.55916e+01  9.43700e+01        00000 
-3.98335e+01  9.46887e+01        00000 
 3.64665e+01  9.89175e+01        00000 
 3.26147e+01  9.87566e+01        00000 
-3.64497e+01  9.89198e+01        00000 
-4.07290e+01  9.91774e+01        00000 
 3.73045e+01  1.03356e+02        00000 
 3.33520e+01  1.03137e+02        00000 
-3.72875e+01  1.03354e+02        00000 
-4.15902e+01  1.03627e+02        00000 
 3.81206e+01  1.07800e+02        00000 
 3.39979e+01  1.07557e+02        00000 
 3.00168e+01  1.07424e+02        00000 
-3.39718e+01  1.07551e+02        00000 
-3.81047e+01  1.07796e+02        00000 
-4.24586e+01  1.08079e+02        00000 
 3.89138e+01  1.12304e+02        00000 
 3.46216e+01  1.12057e+02        00000 
 3.03813e+01  1.11897e+02        00000 
 2.61276e+01  1.11849e+02        00000 
-3.03551e+01  1.11892e+02        00000 
-3.45977e+01  1.12053e+02        00000 
-3.88969e+01  1.12300e+02        00000 
-4.33290e+01  1.12580e+02        00000 
 3.96767e+01  1.16877e+02        00000 
 3.52115e+01  1.16655e+02        00000 
 3.07448e+01  1.16522e+02        00000 
 2.62507e+01  1.16481e+02        00000 
 2.16566e+01  1.16502e+02        00000 
 1.69265e+01  1.16533e+02        00000 
-2.16337e+01  1.16497e+02        00000 
-2.62269e+01  1.16476e+02        00000 
-3.07209e+01  1.16517e+02        00000 
-3.51912e+01  1.16650e+02        00000 
-3.96580e+01  1.16872e+02        00000 
-4.41841e+01  1.17145e+02        00000 
 4.03342e+01  1.21548e+02        00000 
 3.56812e+01  1.21388e+02        00000 
 3.10270e+01  1.21315e+02        00000 
 2.63578e+01  1.21302e+02        00000 
 2.16499e+01  1.21332e+02        00000 
 1.68854e+01  1.21376e+02        00000 
 1.20736e+01  1.21410e+02        00000 
 7.24686e+00  1.21427e+02        00000 
 2.42114e+00  1.21434e+02        00000 
-2.40203e+00  1.21434e+02        00000 
-7.22508e+00  1.21427e+02        00000 
-1.20540e+01  1.21410e+02        00000 
-1.68647e+01  1.21377e+02        00000 
-2.16296e+01  1.21333e+02        00000 
-2.63377e+01  1.21304e+02        00000 
-3.10069e+01  1.21317e+02        00000 
-3.56658e+01  1.21390e+02        00000 
-4.03117e+01  1.21543e+02        00000 
-4.49814e+01  1.21767e+02        00000 
 1.50826e+00  4.33877e+01        00000 
-1.48972e+00  4.33882e+01        00000 
-4.48299e+00  4.34589e+01        00000 
 1.02586e+01  4.71559e+01        00000 
-1.02468e+01  4.71475e+01        00000 
-1.31816e+01  4.74556e+01        00000 
-1.62006e+01  5.17238e+01        00000 
-1.98539e+01  5.66765e+01        00000 
-2.45017e+01  6.18145e+01        00000 
-3.04274e+01  7.15380e+01        00000 
-3.13068e+01  7.62202e+01        00000 
-3.55649e+01  9.43892e+01        00000 
 4.08263e+01  1.26459e+02        00000 
 3.59878e+01  1.26381e+02        00000 
 3.11896e+01  1.26343e+02        00000 
 2.63986e+01  1.26336e+02        00000 
 2.16128e+01  1.26346e+02        00000 
 1.68269e+01  1.26357e+02        00000 
 1.20348e+01  1.26353e+02        00000 
 7.22909e+00  1.26338e+02        00000 
 2.41830e+00  1.26326e+02        00000 
-2.39518e+00  1.26325e+02        00000 
-7.20713e+00  1.26337e+02        00000 
-1.20109e+01  1.26351e+02        00000 
-1.68034e+01  1.26353e+02        00000 
-2.15902e+01  1.26342e+02        00000 
-2.63759e+01  1.26332e+02        00000 
-3.11668e+01  1.26339e+02        00000 
-3.59606e+01  1.26375e+02        00000 
-4.08011e+01  1.26449e+02        00000 
-4.57441e+01  1.26633e+02        00000 
 2.99114e+01  4.45646e+01        00000 
 3.09658e+01  4.87783e+01        00000 
 3.18129e+01  5.32229e+01        00000 
 3.26660e+01  5.77700e+01        00000 
 3.35061e+01  6.24231e+01        00000 
 3.43172e+01  6.71295e+01        00000 
-2.49101e+01  6.66930e+01        00000 
 3.51348e+01  7.18222e+01        00000 
 3.60006e+01  7.64799e+01        00000 
 3.69341e+01  8.11068e+01        00000 
-3.23496e+01  8.07714e+01        00000 
 3.79129e+01  8.56901e+01        00000 
-3.34628e+01  8.53298e+01        00000 
 3.88884e+01  9.02267e+01        00000 
-3.45461e+01  8.98371e+01        00000 
 3.98393e+01  9.46876e+01        00000 
 4.07557e+01  9.91704e+01        00000 
-3.25714e+01  9.87553e+01        00000 
 4.16148e+01  1.03631e+02        00000 
-3.33253e+01  1.03130e+02        00000 
 4.24818e+01  1.08085e+02        00000 
-2.99892e+01  1.07418e+02        00000 
 4.33523e+01  1.12585e+02        00000 
-2.61017e+01  1.11844e+02        00000 
 4.42108e+01  1.17151e+02        00000 
 4.50136e+01  1.21760e+02        00000 
 4.57759e+01  1.26644e+02        00000 
-1.69041e+01  1.16528e+02        00000 
 4.11740e+01  1.31778e+02        00000 
 3.61743e+01  1.31702e+02        00000 
 3.12557e+01  1.31629e+02        00000 
 2.63757e+01  1.31580e+02        00000 
 2.15458e+01  1.31533e+02        00000 
 1.67646e+01  1.31471e+02        00000 
 1.20165e+01  1.31388e+02        00000 
 7.22633e+00  1.31296e+02        00000 
-1.19857e+01  1.31383e+02        00000 
-1.67378e+01  1.31464e+02        00000 
-2.15211e+01  1.31524e+02        00000 
-2.63511e+01  1.31571e+02        00000 
-3.12302e+01  1.31619e+02        00000 
-3.61372e+01  1.31691e+02        00000 
-4.11546e+01  1.31778e+02        00000 
-4.64052e+01  1.31897e+02        00000 
 4.14180e+01  1.37357e+02        00000 
 3.62850e+01  1.37222e+02        00000 
 3.12464e+01  1.37068e+02        00000 
 2.62905e+01  1.36941e+02        00000 
 2.14578e+01  1.36799e+02        00000 
-2.62699e+01  1.36939e+02        00000 
-3.12237e+01  1.37063e+02        00000 
-3.62554e+01  1.37215e+02        00000 
-4.14023e+01  1.37359e+02        00000 
-4.68383e+01  1.37462e+02        00000 
 4.16376e+01  1.43027e+02        00000 
 3.63796e+01  1.42846e+02        00000 
 3.12042e+01  1.42626e+02        00000 
 2.61748e+01  1.42404e+02        00000 
-3.11816e+01  1.42618e+02        00000 
-3.63498e+01  1.42838e+02        00000 
-4.16208e+01  1.43028e+02        00000 
-4.71190e+01  1.43140e+02        00000 
 4.18550e+01  1.48759e+02        00000 
 3.64773e+01  1.48581e+02        00000 
 3.11213e+01  1.48379e+02        00000 
-3.64481e+01  1.48571e+02        00000 
-4.18361e+01  1.48757e+02        00000 
-4.73981e+01  1.48871e+02        00000 
 4.20642e+01  1.54559e+02        00000 
 3.65463e+01  1.54431e+02        00000 
-4.20442e+01  1.54555e+02        00000 
-4.76697e+01  1.54656e+02        00000 
 4.22615e+01  1.60401e+02        00000 
 3.65732e+01  1.60338e+02        00000 
-4.22388e+01  1.60396e+02        00000 
-4.79250e+01  1.60476e+02        00000 
 4.24579e+01  1.66233e+02        00000 
-4.81773e+01  1.66303e+02        00000 
 4.27003e+01  1.72026e+02        00000 
-4.84409e+01  1.72119e+02        00000 
 4.30097e+01  1.77798e+02        00000 
-4.87334e+01  1.77902e+02        00000 
 4.33812e+01  1.83551e+02        00000 
-4.90595e+01  1.83662e+02        00000 
 4.37854e+01  1.89317e+02        00000 
-4.94080e+01  1.89410e+02        00000 
 4.41789e+01  1.95051e+02        00000 
-4.97539e+01  1.95167e+02        00000 
 4.45199e+01  2.00839e+02        00000 
 3.91523e+01  2.00786e+02        00000 
-4.44901e+01  2.00833e+02        00000 
-5.00798e+01  2.00922e+02        00000 
 4.48415e+01  2.06578e+02        00000 
 3.95073e+01  2.06529e+02        00000 
-4.48117e+01  2.06569e+02        00000 
-5.03852e+01  2.06656e+02        00000 
 4.51463e+01  2.12300e+02        00000 
 3.97970e+01  2.12263e+02        00000 
 3.45278e+01  2.12296e+02        00000 
-3.97599e+01  2.12256e+02        00000 
-4.51174e+01  2.12290e+02        00000 
-5.06859e+01  2.12375e+02        00000 
 4.54369e+01  2.18014e+02        00000 
 4.00608e+01  2.17977e+02        00000 
 3.47505e+01  2.18006e+02        00000 
 2.95042e+01  2.18091e+02        00000 
-3.47113e+01  2.17999e+02        00000 
-4.00226e+01  2.17972e+02        00000 
-4.54081e+01  2.18006e+02        00000 
-5.09841e+01  2.18088e+02        00000 
 4.57115e+01  2.23736e+02        00000 
 4.03054e+01  2.23692e+02        00000 
 3.49499e+01  2.23701e+02        00000 
 2.96207e+01  2.23741e+02        00000 
 2.43011e+01  2.23820e+02        00000 
 1.89560e+01  2.23940e+02        00000 
-2.42617e+01  2.23815e+02        00000 
-2.95814e+01  2.23735e+02        00000 
-3.49131e+01  2.23694e+02        00000 
-4.02670e+01  2.23686e+02        00000 
-4.56838e+01  2.23730e+02        00000 
-5.12765e+01  2.23826e+02        00000 
 4.58844e+01  2.29466e+02        00000 
 4.04583e+01  2.29425e+02        00000 
 3.50755e+01  2.29420e+02        00000 
 2.97014e+01  2.29437e+02        00000 
 2.43307e+01  2.29478e+02        00000 
 1.89542e+01  2.29533e+02        00000 
 1.35674e+01  2.29595e+02        00000 
 8.15820e+00  2.29653e+02        00000 
 2.73160e+00  2.29686e+02        00000 
-2.69521e+00  2.29688e+02        00000 
-8.11494e+00  2.29656e+02        00000 
-1.35317e+01  2.29597e+02        00000 
-1.89152e+01  2.29537e+02        00000 
-2.42896e+01  2.29482e+02        00000 
-2.96592e+01  2.29443e+02        00000 
-3.50347e+01  2.29426e+02        00000 
-4.04145e+01  2.29432e+02        00000 
-4.58578e+01  2.29466e+02        00000 
-5.14260e+01  2.29486e+02        00000 
 2.42144e+00  1.31244e+02        00000 
-2.39376e+00  1.31244e+02        00000 
-7.20652e+00  1.31293e+02        00000 
 1.67180e+01  1.36593e+02        00000 
-1.66943e+01  1.36586e+02        00000 
-2.14380e+01  1.36799e+02        00000 
-2.61536e+01  1.42396e+02        00000 
-3.10983e+01  1.48370e+02        00000 
-3.65169e+01  1.54421e+02        00000 
-4.24307e+01  1.66225e+02        00000 
-4.26753e+01  1.72033e+02        00000 
-4.41447e+01  1.95053e+02        00000 
 4.59333e+01  2.35170e+02        00000 
 4.04990e+01  2.35101e+02        00000 
 3.51060e+01  2.35085e+02        00000 
 2.97165e+01  2.35089e+02        00000 
 2.43319e+01  2.35109e+02        00000 
 1.89454e+01  2.35140e+02        00000 
 1.35513e+01  2.35178e+02        00000 
 8.14479e+00  2.35212e+02        00000 