<?xml version="1.0" encoding="utf-8"?>
<VTKFile byte_order="LittleEndian" type="UnstructuredGrid" version="0.1">
   <UnstructuredGrid>
      <Piece NumberOfCells="2280" NumberOfPoints="1676">
         <Points>
            <DataArray Name="Points" NumberOfComponents="3" format="ascii" type="Float32">
-1.0000 -0.8947 0.0000
-1.0000 -0.7895 0.0000
-1.0000 -0.6842 0.0000
-1.0000 -0.5789 0.0000
-1.0000 -0.4737 0.0000
-1.0000 -0.3684 0.0000
-1.0000 -0.2632 0.0000
-1.0000 -0.1579 0.0000
-1.0000 -0.0526 0.0000
-1.0000 0.0526 0.0000
-1.0000 0.1579 0.0000
-1.0000 0.2632 0.0000
-1.0000 0.3684 0.0000
-1.0000 0.4737 0.0000
-1.0000 0.5789 0.0000
-1.0000 0.6842 0.0000
-1.0000 0.7895 0.0000
-1.0000 0.8947 0.0000
-1.0000 1.0000 0.0000
-0.8947 -0.8947 0.0000
-0.8947 -0.7895 0.0000
-0.8947 -0.6842 0.0000
-0.8947 -0.5789 0.0000
-0.8947 -0.4737 0.0000
-0.8947 -0.3684 0.0000
-0.8947 -0.2632 0.0000
-0.8947 -0.1579 0.0000
-0.8947 0.2632 0.0000
-0.8947 0.3684 0.0000
-0.8947 0.4737 0.0000
-0.8947 0.5789 0.0000
-0.8947 0.6842 0.0000
-0.8947 0.7895 0.0000
-0.8947 0.8947 0.0000
-0.8947 1.0000 0.0000
-0.7895 -0.8947 0.0000
-0.7895 -0.7895 0.0000
-0.7895 -0.6842 0.0000
-0.7895 -0.5789 0.0000
-0.7895 -0.4737 0.0000
-0.7895 0.5789 0.0000
-0.7895 0.6842 0.0000
-0.7895 0.7895 0.0000
-0.7895 0.8947 0.0000
-0.7895 1.0000 0.0000
-0.6842 -0.8947 0.0000
-0.6842 -0.7895 0.0000
-0.6842 -0.6842 0.0000
-0.6842 -0.5789 0.0000
-0.6842 0.6842 0.0000
-0.6842 0.7895 0.0000
-0.6842 0.8947 0.0000
-0.6842 1.0000 0.0000
-0.5789 -0.8947 0.0000
-0.5789 -0.7895 0.0000
-0.5789 -0.6842 0.0000
-0.5789 0.7895 0.0000
-0.5789 0.8947 0.0000
-0.5789 1.0000 0.0000
-0.4737 -0.8947 0.0000
-0.4737 -0.7895 0.0000
-0.4737 0.8947 0.0000
-0.4737 1.0000 0.0000
-0.3684 -0.8947 0.0000
-0.3684 -0.7895 0.0000
-0.3684 0.8947 0.0000
-0.3684 1.0000 0.0000
-0.2632 -0.8947 0.0000
-0.2632 1.0000 0.0000
-0.1579 -0.8947 0.0000
-0.1579 1.0000 0.0000
-0.0526 -0.8947 0.0000
-0.0526 1.0000 0.0000
0.0526 -0.8947 0.0000
0.0526 1.0000 0.0000
0.1579 -0.8947 0.0000
0.1579 1.0000 0.0000
0.2632 -0.8947 0.0000
0.2632 1.0000 0.0000
0.3684 -0.8947 0.0000
0.3684 -0.7895 0.0000
0.3684 0.8947 0.0000
0.3684 1.0000 0.0000
0.4737 -0.8947 0.0000
0.4737 -0.7895 0.0000
0.4737 0.8947 0.0000
0.4737 1.0000 0.0000
0.5789 -0.8947 0.0000
0.5789 -0.7895 0.0000
0.5789 -0.6842 0.0000
0.5789 0.7895 0.0000
0.5789 0.8947 0.0000
0.5789 1.0000 0.0000
0.6842 -0.8947 0.0000
0.6842 -0.7895 0.0000
0.6842 -0.6842 0.0000
0.6842 -0.5789 0.0000
0.6842 0.6842 0.0000
0.6842 0.7895 0.0000
0.6842 0.8947 0.0000
0.6842 1.0000 0.0000
0.7895 -0.8947 0.0000
0.7895 -0.7895 0.0000
0.7895 -0.6842 0.0000
0.7895 -0.5789 0.0000
0.7895 -0.4737 0.0000
0.7895 -0.3684 0.0000
0.7895 0.4737 0.0000
0.7895 0.5789 0.0000
0.7895 0.6842 0.0000
0.7895 0.7895 0.0000
0.7895 0.8947 0.0000
0.7895 1.0000 0.0000
0.8947 -0.8947 0.0000
0.8947 -0.7895 0.0000
0.8947 -0.6842 0.0000
0.8947 -0.5789 0.0000
0.8947 -0.4737 0.0000
0.8947 -0.3684 0.0000
0.8947 -0.2632 0.0000
0.8947 -0.1579 0.0000
0.8947 -0.0526 0.0000
0.8947 0.0526 0.0000
0.8947 0.1579 0.0000
0.8947 0.2632 0.0000
0.8947 0.3684 0.0000
0.8947 0.4737 0.0000
0.8947 0.5789 0.0000
0.8947 0.6842 0.0000
0.8947 0.7895 0.0000
0.8947 0.8947 0.0000
0.8947 1.0000 0.0000
-0.8947 -0.0526 0.0000
-0.8947 0.0526 0.0000
-0.8947 0.1579 0.0000
-0.7895 -0.3684 0.0000
-0.7895 0.3684 0.0000
-0.7895 0.4737 0.0000
-0.6842 0.5789 0.0000
-0.5789 0.6842 0.0000
-0.4737 0.7895 0.0000
-0.2632 0.8947 0.0000
-0.1579 0.8947 0.0000
0.2632 0.8947 0.0000
1.0000 -0.8947 0.0000
1.0000 -0.7895 0.0000
1.0000 -0.6842 0.0000
1.0000 -0.5789 0.0000
1.0000 -0.4737 0.0000
1.0000 -0.3684 0.0000
1.0000 -0.2632 0.0000
1.0000 -0.1579 0.0000
1.0000 -0.0526 0.0000
1.0000 0.0526 0.0000
1.0000 0.1579 0.0000
1.0000 0.2632 0.0000
1.0000 0.3684 0.0000
1.0000 0.4737 0.0000
1.0000 0.5789 0.0000
1.0000 0.6842 0.0000
1.0000 0.7895 0.0000
1.0000 0.8947 0.0000
1.0000 1.0000 0.0000
-0.8947 -1.0000 0.0000
-0.7895 -1.0000 0.0000
-0.6842 -1.0000 0.0000
-0.5789 -1.0000 0.0000
-0.4737 -1.0000 0.0000
-0.3684 -1.0000 0.0000
-0.3684 0.7895 0.0000
-0.2632 -1.0000 0.0000
-0.1579 -1.0000 0.0000
-0.0526 -1.0000 0.0000
-0.0526 0.8947 0.0000
0.0526 -1.0000 0.0000
0.0526 0.8947 0.0000
0.1579 -1.0000 0.0000
0.1579 0.8947 0.0000
0.2632 -1.0000 0.0000
0.3684 -1.0000 0.0000
0.3684 0.7895 0.0000
0.4737 -1.0000 0.0000
0.4737 0.7895 0.0000
0.5789 -1.0000 0.0000
0.5789 0.6842 0.0000
0.6842 -1.0000 0.0000
0.6842 0.5789 0.0000
0.7895 -1.0000 0.0000
0.8947 -1.0000 0.0000
1.0000 -1.0000 0.0000
-1.0000 -1.0000 0.0000
0.7895 0.3684 0.0000
1.1053 -0.8947 0.0000
1.1053 -0.7895 0.0000
1.1053 -0.6842 0.0000
1.1053 -0.5789 0.0000
1.1053 -0.4737 0.0000
1.1053 -0.3684 0.0000
1.1053 -0.2632 0.0000
1.1053 -0.1579 0.0000
1.1053 0.2632 0.0000
1.1053 0.3684 0.0000
1.1053 0.4737 0.0000
1.1053 0.5789 0.0000
1.1053 0.6842 0.0000
1.1053 0.7895 0.0000
1.1053 0.8947 0.0000
1.1053 1.0000 0.0000
1.2105 -0.8947 0.0000
1.2105 -0.7895 0.0000
1.2105 -0.6842 0.0000
1.2105 -0.5789 0.0000
1.2105 -0.4737 0.0000
1.2105 0.5789 0.0000
1.2105 0.6842 0.0000
1.2105 0.7895 0.0000
1.2105 0.8947 0.0000
1.2105 1.0000 0.0000
1.3158 -0.8947 0.0000
1.3158 -0.7895 0.0000
1.3158 -0.6842 0.0000
1.3158 -0.5789 0.0000
1.3158 0.6842 0.0000
1.3158 0.7895 0.0000
1.3158 0.8947 0.0000
1.3158 1.0000 0.0000
1.4211 -0.8947 0.0000
1.4211 -0.7895 0.0000
1.4211 -0.6842 0.0000
1.4211 0.7895 0.0000
1.4211 0.8947 0.0000
1.4211 1.0000 0.0000
1.5263 -0.8947 0.0000
1.5263 -0.7895 0.0000
1.5263 0.8947 0.0000
1.5263 1.0000 0.0000
1.6316 -0.8947 0.0000
1.6316 -0.7895 0.0000
1.6316 0.8947 0.0000
1.6316 1.0000 0.0000
1.7368 -0.8947 0.0000
1.7368 1.0000 0.0000
1.8421 -0.8947 0.0000
1.8421 1.0000 0.0000
1.9474 -0.8947 0.0000
1.9474 1.0000 0.0000
2.0526 -0.8947 0.0000
2.0526 1.0000 0.0000
2.1579 -0.8947 0.0000
2.1579 1.0000 0.0000
2.2632 -0.8947 0.0000
2.2632 1.0000 0.0000
2.3684 -0.8947 0.0000
2.3684 -0.7895 0.0000
2.3684 0.8947 0.0000
2.3684 1.0000 0.0000
2.4737 -0.8947 0.0000
2.4737 -0.7895 0.0000
2.4737 0.8947 0.0000
2.4737 1.0000 0.0000
2.5789 -0.8947 0.0000
2.5789 -0.7895 0.0000
2.5789 -0.6842 0.0000
2.5789 0.7895 0.0000
2.5789 0.8947 0.0000
2.5789 1.0000 0.0000
2.6842 -0.8947 0.0000
2.6842 -0.7895 0.0000
2.6842 -0.6842 0.0000
2.6842 -0.5789 0.0000
2.6842 0.6842 0.0000
2.6842 0.7895 0.0000
2.6842 0.8947 0.0000
2.6842 1.0000 0.0000
2.7895 -0.8947 0.0000
2.7895 -0.7895 0.0000
2.7895 -0.6842 0.0000
2.7895 -0.5789 0.0000
2.7895 -0.4737 0.0000
2.7895 -0.3684 0.0000
2.7895 0.4737 0.0000
2.7895 0.5789 0.0000
2.7895 0.6842 0.0000
2.7895 0.7895 0.0000
2.7895 0.8947 0.0000
2.7895 1.0000 0.0000
2.8947 -0.8947 0.0000
2.8947 -0.7895 0.0000
2.8947 -0.6842 0.0000
2.8947 -0.5789 0.0000
2.8947 -0.4737 0.0000
2.8947 -0.3684 0.0000
2.8947 -0.2632 0.0000
2.8947 -0.1579 0.0000
2.8947 -0.0526 0.0000
2.8947 0.0526 0.0000
2.8947 0.1579 0.0000
2.8947 0.2632 0.0000
2.8947 0.3684 0.0000
2.8947 0.4737 0.0000
2.8947 0.5789 0.0000
2.8947 0.6842 0.0000
2.8947 0.7895 0.0000
2.8947 0.8947 0.0000
2.8947 1.0000 0.0000
1.1053 -0.0526 0.0000
1.1053 0.0526 0.0000
1.1053 0.1579 0.0000
1.2105 -0.3684 0.0000
1.2105 0.3684 0.0000
1.2105 0.4737 0.0000
1.3158 0.5789 0.0000
1.4211 0.6842 0.0000
1.5263 0.7895 0.0000
1.7368 0.8947 0.0000
1.8421 0.8947 0.0000
2.2632 0.8947 0.0000
3.0000 -0.8947 0.0000
3.0000 -0.7895 0.0000
3.0000 -0.6842 0.0000
3.0000 -0.5789 0.0000
3.0000 -0.4737 0.0000
3.0000 -0.3684 0.0000
3.0000 -0.2632 0.0000
3.0000 -0.1579 0.0000
3.0000 -0.0526 0.0000
3.0000 0.0526 0.0000
3.0000 0.1579 0.0000
3.0000 0.2632 0.0000
3.0000 0.3684 0.0000
3.0000 0.4737 0.0000
3.0000 0.5789 0.0000
3.0000 0.6842 0.0000
3.0000 0.7895 0.0000
3.0000 0.8947 0.0000
3.0000 1.0000 0.0000
1.1053 -1.0000 0.0000
1.2105 -1.0000 0.0000
1.3158 -1.0000 0.0000
1.4211 -1.0000 0.0000
1.5263 -1.0000 0.0000
1.6316 -1.0000 0.0000
1.6316 0.7895 0.0000
1.7368 -1.0000 0.0000
1.8421 -1.0000 0.0000
1.9474 -1.0000 0.0000
1.9474 0.8947 0.0000
2.0526 -1.0000 0.0000
2.0526 0.8947 0.0000
2.1579 -1.0000 0.0000
2.1579 0.8947 0.0000
2.2632 -1.0000 0.0000
2.3684 -1.0000 0.0000
2.3684 0.7895 0.0000
2.4737 -1.0000 0.0000
2.4737 0.7895 0.0000
2.5789 -1.0000 0.0000
2.5789 0.6842 0.0000
2.6842 -1.0000 0.0000
2.6842 0.5789 0.0000
2.7895 -1.0000 0.0000
2.8947 -1.0000 0.0000
3.0000 -1.0000 0.0000
2.7895 0.3684 0.0000
3.1053 -0.8947 0.0000
3.1053 -0.7895 0.0000
3.1053 -0.6842 0.0000
3.1053 -0.5789 0.0000
3.1053 -0.4737 0.0000
3.1053 -0.3684 0.0000
3.1053 -0.2632 0.0000
3.1053 -0.1579 0.0000
3.1053 0.2632 0.0000
3.1053 0.3684 0.0000
3.1053 0.4737 0.0000
3.1053 0.5789 0.0000
3.1053 0.6842 0.0000
3.1053 0.7895 0.0000
3.1053 0.8947 0.0000
3.1053 1.0000 0.0000
3.2105 -0.8947 0.0000
3.2105 -0.7895 0.0000
3.2105 -0.6842 0.0000
3.2105 -0.5789 0.0000
3.2105 -0.4737 0.0000
3.2105 0.5789 0.0000
3.2105 0.6842 0.0000
3.2105 0.7895 0.0000
3.2105 0.8947 0.0000
3.2105 1.0000 0.0000
3.3158 -0.8947 0.0000
3.3158 -0.7895 0.0000
3.3158 -0.6842 0.0000
3.3158 -0.5789 0.0000
3.3158 0.6842 0.0000
3.3158 0.7895 0.0000
3.3158 0.8947 0.0000
3.3158 1.0000 0.0000
3.4211 -0.8947 0.0000
3.4211 -0.7895 0.0000
3.4211 -0.6842 0.0000
3.4211 0.7895 0.0000
3.4211 0.8947 0.0000
3.4211 1.0000 0.0000
3.5263 -0.8947 0.0000
3.5263 -0.7895 0.0000
3.5263 0.8947 0.0000
3.5263 1.0000 0.0000
3.6316 -0.8947 0.0000
3.6316 -0.7895 0.0000
3.6316 0.8947 0.0000
3.6316 1.0000 0.0000
3.7368 -0.8947 0.0000
3.7368 1.0000 0.0000
3.8421 -0.8947 0.0000
3.8421 1.0000 0.0000
3.9474 -0.8947 0.0000
3.9474 1.0000 0.0000
4.0526 -0.8947 0.0000
4.0526 1.0000 0.0000
4.1579 -0.8947 0.0000
4.1579 1.0000 0.0000
4.2632 -0.8947 0.0000
4.2632 1.0000 0.0000
4.3684 -0.8947 0.0000
4.3684 -0.7895 0.0000
4.3684 0.8947 0.0000
4.3684 1.0000 0.0000
4.4737 -0.8947 0.0000
4.4737 -0.7895 0.0000
4.4737 0.8947 0.0000
4.4737 1.0000 0.0000
4.5789 -0.8947 0.0000
4.5789 -0.7895 0.0000
4.5789 -0.6842 0.0000
4.5789 0.7895 0.0000
4.5789 0.8947 0.0000
4.5789 1.0000 0.0000
4.6842 -0.8947 0.0000
4.6842 -0.7895 0.0000
4.6842 -0.6842 0.0000
4.6842 -0.5789 0.0000
4.6842 0.6842 0.0000
4.6842 0.7895 0.0000
4.6842 0.8947 0.0000
4.6842 1.0000 0.0000
[...]
         <PointData>
            <DataArray Name="fValues" NumberOfComponents="3" format="ascii" type="Float64">
 1.30920e-16  1.63650e-17        00000 
 1.17326e-16 -3.37144e-18        00000 
 3.72765e-18 -3.38877e-18        00000 
 2.42744e-17  1.61829e-17        00000 
-5.65657e-17  7.16127e-17        00000 
 2.15772e-17  9.17032e-17        00000 
-3.26879e-17  4.35839e-17        00000 
 6.10612e-18  5.42766e-18        00000 
-3.05299e-18  2.44239e-17        00000 
 1.86428e-18  1.35584e-17        00000 
-4.04573e-18 -5.39430e-18        00000 
 1.36200e-17  5.44799e-17        00000 
 2.69715e-18  4.31544e-17        00000 
 1.08843e-17  4.35374e-17        00000 
 1.88801e-17  2.15772e-17        00000 
-6.37090e-17 -1.52495e-17        00000 
 4.04573e-18  7.41717e-18        00000 
 8.72798e-17 -1.09100e-17        00000 
-2.18199e-17  8.83594e-17        00000 
 1.49436e+00  2.71685e-01        00000 
 7.43741e-01  2.97563e-02        00000 
 1.35228e-01  6.47561e-02        00000 
-2.24112e-01  2.24176e-01        00000 
-3.24823e-01  3.61945e-01        00000 
-2.42270e-01  3.96293e-01        00000 
-9.55510e-02  3.23517e-01        00000 
-3.01147e-02  2.11885e-01        00000 
 1.01913e-01  3.23810e-01        00000 
 2.43973e-01  3.96037e-01        00000 
 3.22524e-01  3.61086e-01        00000 
 2.20351e-01  2.25389e-01        00000 
-1.36645e-01  6.61736e-02        00000 
-7.43246e-01  2.99159e-02        00000 
-1.49310e+00  2.70693e-01        00000 
-2.34519e+00  9.43278e-01        00000 
 3.18340e+00  1.23856e+00        00000 
 1.48639e+00  8.90175e-01        00000 
 1.53039e-01  8.61613e-01        00000 
-5.74546e-01  9.62060e-01        00000 
-6.72079e-01  9.61288e-01        00000 
 5.67061e-01  9.65081e-01        00000 
-1.54570e-01  8.61445e-01        00000 
-1.48425e+00  8.88020e-01        00000 
-3.18041e+00  1.23447e+00        00000 
-4.82005e+00  1.93156e+00        00000 
 4.89790e+00  3.00292e+00        00000 
 2.15461e+00  2.61046e+00        00000 
 2.24065e-02  2.48287e+00        00000 
-1.00064e+00  2.30051e+00        00000 
-2.59576e-02  2.47647e+00        00000 
-2.14888e+00  2.60473e+00        00000 
-4.89281e+00  2.99486e+00        00000 
-7.59421e+00  3.77150e+00        00000 
 6.63032e+00  5.97799e+00        00000 
 2.65539e+00  5.56028e+00        00000 
-4.14597e-01  5.32547e+00        00000 
-2.64140e+00  5.55095e+00        00000 
-6.62396e+00  5.96995e+00        00000 
-1.07363e+01  6.81982e+00        00000 
 8.31921e+00  1.06135e+01        00000 
 2.81167e+00  1.02349e+01        00000 
-8.31601e+00  1.06220e+01        00000 
-1.42477e+01  1.15489e+01        00000 
 9.94765e+00  1.74700e+01        00000 
 2.37751e+00  1.70079e+01        00000 
-9.94314e+00  1.75089e+01        00000 
-1.79910e+01  1.84827e+01        00000 
 1.14487e+01  2.70122e+01        00000 
-2.16208e+01  2.79377e+01        00000 
 1.29042e+01  3.88268e+01        00000 
-2.46947e+01  3.96097e+01        00000 
 1.46750e+01  5.19624e+01        00000 
-2.68053e+01  5.24261e+01        00000 
 1.69221e+01  6.46926e+01        00000 
-2.78422e+01  6.46789e+01        00000 
 1.93041e+01  7.54633e+01        00000 
-2.82036e+01  7.50376e+01        00000 
 2.12704e+01  8.35749e+01        00000 
-2.82979e+01  8.33573e+01        00000 
 2.25892e+01  9.02093e+01        00000 
 1.76306e+01  8.99482e+01        00000 
-2.24262e+01  8.98250e+01        00000 
-2.83480e+01  8.99765e+01        00000 
 2.36471e+01  9.54157e+01        00000 
 1.92126e+01  9.50611e+01        00000 
-2.34802e+01  9.51058e+01        00000 
-2.85052e+01  9.53147e+01        00000 
 2.45435e+01  9.99320e+01        00000 
 2.02879e+01  9.96533e+01        00000 
 1.65632e+01  9.95137e+01        00000 
-2.00565e+01  9.94039e+01        00000 
-2.43748e+01  9.96823e+01        00000 
-2.88864e+01  9.99115e+01        00000 
 2.53225e+01  1.04151e+02        00000 
 2.11005e+01  1.03942e+02        00000 
 1.71533e+01  1.03872e+02        00000 
 1.35279e+01  1.04053e+02        00000 
-1.68587e+01  1.03683e+02        00000 
-2.08663e+01  1.03754e+02        00000 
-2.51475e+01  1.03961e+02        00000 
-2.94504e+01  1.04187e+02        00000 
 2.60677e+01  1.08226e+02        00000 
 2.17589e+01  1.08055e+02        00000 
 1.75816e+01  1.08042e+02        00000 
 1.36501e+01  1.08252e+02        00000 
 9.96924e+00  1.08704e+02        00000 
 6.56398e+00  1.09439e+02        00000 
-9.58486e+00  1.08579e+02        00000 
-1.33102e+01  1.08122e+02        00000 
-1.72919e+01  1.07909e+02        00000 
-2.15230e+01  1.07922e+02        00000 
-2.58861e+01  1.08091e+02        00000 
-3.01516e+01  1.08333e+02        00000 
 2.68429e+01  1.12259e+02        00000 
 2.23406e+01  1.12088e+02        00000 
 1.79042e+01  1.12080e+02        00000 
 1.37076e+01  1.12255e+02        00000 
 9.84846e+00  1.12600e+02        00000 
 6.47119e+00  1.13037e+02        00000 
 3.82809e+00  1.13517e+02        00000 
 1.93519e+00  1.14039e+02        00000 
 6.88212e-01  1.14387e+02        00000 
-2.12973e-01  1.14381e+02        00000 
-1.40474e+00  1.13991e+02        00000 
-3.39763e+00  1.13440e+02        00000 
-6.05509e+00  1.12956e+02        00000 
-9.46924e+00  1.12514e+02        00000 
-1.33718e+01  1.12170e+02        00000 
-1.76170e+01  1.11995e+02        00000 
-2.21034e+01  1.12004e+02        00000 
-2.66555e+01  1.12173e+02        00000 
-3.10130e+01  1.12454e+02        00000 
-4.84304e-03  1.49759e-01        00000 
 7.00853e-03  1.50464e-01        00000 
 2.46232e-02  2.11589e-01        00000 
-4.09681e-01  7.38371e-01        00000 
 4.10537e-01  7.34156e-01        00000 
 6.64859e-01  9.67223e-01        00000 
 9.93472e-01  2.29207e+00        00000 
 4.10034e-01  5.31814e+00        00000 
-2.78699e+00  1.02314e+01        00000 
-1.14494e+01  2.70675e+01        00000 
-1.29289e+01  3.88579e+01        00000 
-2.11031e+01  8.31134e+01        00000 
 2.76967e+01  1.16369e+02        00000 
 2.28982e+01  1.16168e+02        00000 
 1.81653e+01  1.16116e+02        00000 
 1.37265e+01  1.16180e+02        00000 
 9.74202e+00  1.16298e+02        00000 
 6.37277e+00  1.16408e+02        00000 
 3.74432e+00  1.16463e+02        00000 
 1.87073e+00  1.16482e+02        00000 
 6.93674e-01  1.16482e+02        00000 
-1.88454e-01  1.16462e+02        00000 
-1.38166e+00  1.16460e+02        00000 
-3.28471e+00  1.16438e+02        00000 
-5.95215e+00  1.16363e+02        00000 
-9.36568e+00  1.16252e+02        00000 
-1.33961e+01  1.16136e+02        00000 
-1.78809e+01  1.16076e+02        00000 
-2.26599e+01  1.16128e+02        00000 
-2.75042e+01  1.16328e+02        00000 
-3.20906e+01  1.16669e+02        00000 
 2.34778e+00  9.45160e-01        00000 
 4.82409e+00  1.93647e+00        00000 
 7.59657e+00  3.77955e+00        00000 
 1.07322e+01  6.82463e+00        00000 
 1.42379e+01  1.15376e+01        00000 
 1.79842e+01  1.84456e+01        00000 
-2.37299e+00  1.70453e+01        00000 
 2.16355e+01  2.78840e+01        00000 
 2.47574e+01  3.95866e+01        00000 
 2.69433e+01  5.25644e+01        00000 
-1.47769e+01  5.18240e+01        00000 
 2.80294e+01  6.51382e+01        00000 
-1.70310e+01  6.42860e+01        00000 
 2.82842e+01  7.57361e+01        00000 
-1.92407e+01  7.46842e+01        00000 
 2.83089e+01  8.38844e+01        00000 
 2.84139e+01  9.03580e+01        00000 
-1.73626e+01  8.95626e+01        00000 
 2.85959e+01  9.56283e+01        00000 
-1.89829e+01  9.47407e+01        00000 
 2.89932e+01  1.00162e+02        00000 
-1.62621e+01  9.92652e+01        00000 
 2.95682e+01  1.04380e+02        00000 
-1.31846e+01  1.03865e+02        00000 
 3.02802e+01  1.08471e+02        00000 
 3.11518e+01  1.12542e+02        00000 
 3.22386e+01  1.16712e+02        00000 
 3.09798e-16 -6.11792e-17        00000 
-6.14765e+00  1.09308e+02        00000 
 2.86603e+01  1.20723e+02        00000 
 2.34495e+01  1.20478e+02        00000 
 1.83727e+01  1.20364e+02        00000 
 1.37174e+01  1.20287e+02        00000 
 9.64187e+00  1.20133e+02        00000 
 6.26887e+00  1.19859e+02        00000 
 3.76072e+00  1.19455e+02        00000 
 1.87428e+00  1.18922e+02        00000 
-3.27390e+00  1.19441e+02        00000 
-5.84437e+00  1.19851e+02        00000 
-9.27005e+00  1.20127e+02        00000 
-1.33937e+01  1.20287e+02        00000 
-1.80911e+01  1.20366e+02        00000 
-2.32099e+01  1.20479e+02        00000 
-2.84632e+01  1.20723e+02        00000 
-3.34455e+01  1.21139e+02        00000 
 2.97406e+01  1.25539e+02        00000 
 2.39742e+01  1.25253e+02        00000 
 1.84855e+01  1.25083e+02        00000 
 1.36334e+01  1.24879e+02        00000 
 9.56491e+00  1.24456e+02        00000 
-1.33154e+01  1.24922e+02        00000 
-1.82055e+01  1.25124e+02        00000 
-2.37329e+01  1.25293e+02        00000 
-2.95394e+01  1.25577e+02        00000 
-3.51257e+01  1.26074e+02        00000 
 3.09176e+01  1.31089e+02        00000 
 2.44127e+01  1.30776e+02        00000 
 1.84213e+01  1.30578e+02        00000 
 1.34080e+01  1.30217e+02        00000 
-1.81451e+01  1.30651e+02        00000 
-2.41685e+01  1.30852e+02        00000 
-3.07121e+01  1.31163e+02        00000 
-3.71555e+01  1.31737e+02        00000 
 3.21324e+01  1.37693e+02        00000 
 2.46772e+01  1.37396e+02        00000 
 1.80155e+01  1.37199e+02        00000 
-2.44268e+01  1.37506e+02        00000 
-3.19235e+01  1.37804e+02        00000 
-3.95349e+01  1.38437e+02        00000 
 3.32965e+01  1.45709e+02        00000 
 2.46017e+01  1.45477e+02        00000 
-3.30888e+01  1.45869e+02        00000 
-4.22426e+01  1.46562e+02        00000 
 3.43834e+01  1.55627e+02        00000 
 2.39519e+01  1.55312e+02        00000 
-3.41732e+01  1.55840e+02        00000 
-4.51632e+01  1.56580e+02        00000 
 3.53205e+01  1.67934e+02        00000 
-4.79949e+01  1.68809e+02        00000 
 3.61251e+01  1.82344e+02        00000 
-5.03837e+01  1.83080e+02        00000 
 3.71223e+01  1.98128e+02        00000 
-5.19450e+01  1.98657e+02        00000 
 3.84988e+01  2.13900e+02        00000 
-5.24805e+01  2.14061e+02        00000 
 4.00584e+01  2.28112e+02        00000 
-5.22675e+01  2.27924e+02        00000 
 4.13480e+01  2.39888e+02        00000 
-5.16691e+01  2.39826e+02        00000 
 4.21043e+01  2.49998e+02        00000 
 3.37483e+01  2.49879e+02        00000 
-4.17501e+01  2.49946e+02        00000 
-5.09422e+01  2.49867e+02        00000 
 4.26253e+01  2.58404e+02        00000 
 3.51118e+01  2.58196e+02        00000 
-4.22670e+01  2.58366e+02        00000 
-5.02917e+01  2.58345e+02        00000 
 4.30035e+01  2.65794e+02        00000 
 3.59490e+01  2.65658e+02        00000 
 2.95063e+01  2.65601e+02        00000 
-3.55830e+01  2.65623e+02        00000 
-4.26435e+01  2.65759e+02        00000 
-4.98764e+01  2.65770e+02        00000 
 4.32817e+01  2.72594e+02        00000 
 3.64983e+01  2.72515e+02        00000 
 3.00556e+01  2.72513e+02        00000 
 2.41046e+01  2.72743e+02        00000 
-2.96815e+01  2.72482e+02        00000 
-3.61290e+01  2.72486e+02        00000 
-4.29153e+01  2.72563e+02        00000 
-4.96894e+01  2.72587e+02        00000 
 4.35450e+01  2.79016e+02        00000 
 3.68846e+01  2.78960e+02        00000 
 3.03942e+01  2.78994e+02        00000 
 2.42527e+01  2.79206e+02        00000 
 1.85006e+01  2.79657e+02        00000 
 1.31375e+01  2.80427e+02        00000 
-1.81486e+01  2.79630e+02        00000 
-2.38900e+01  2.79177e+02        00000 
-3.00259e+01  2.78964e+02        00000 
-3.65136e+01  2.78930e+02        00000 
-4.31717e+01  2.78985e+02        00000 
-4.96975e+01  2.79041e+02        00000 
 4.38567e+01  2.85219e+02        00000 
 3.71904e+01  2.85153e+02        00000 
 3.06072e+01  2.85177e+02        00000 
 2.43138e+01  2.85331e+02        00000 
 1.84239e+01  2.85636e+02        00000 
 1.30794e+01  2.86040e+02        00000 
 8.51303e+00  2.86511e+02        00000 
 4.70489e+00  2.87043e+02        00000 
 1.54413e+00  2.87404e+02        00000 
-1.26029e+00  2.87406e+02        00000 
-4.34484e+00  2.87019e+02        00000 
-8.21831e+00  2.86468e+02        00000 
-1.27526e+01  2.85999e+02        00000 
-1.80802e+01  2.85594e+02        00000 
-2.39572e+01  2.85294e+02        00000 
-3.02422e+01  2.85141e+02        00000 
-3.68179e+01  2.85118e+02        00000 
-4.34769e+01  2.85184e+02        00000 
-4.99173e+01  2.85289e+02        00000 
 7.16247e-01  1.18548e+02        00000 
-1.85204e-01  1.18556e+02        00000 
-1.43034e+00  1.18916e+02        00000 
 6.21364e+00  1.23654e+02        00000 
-5.79231e+00  1.23676e+02        00000 
-9.20351e+00  1.24502e+02        00000 
-1.30917e+01  1.30287e+02        00000 
-1.77434e+01  1.37310e+02        00000 
-2.43440e+01  1.45625e+02        00000 
-3.51153e+01  1.68182e+02        00000 
-3.59223e+01  1.82543e+02        00000 
-4.09892e+01  2.39810e+02        00000 
 4.42591e+01  2.91363e+02        00000 
 3.74709e+01  2.91263e+02        00000 
 3.07485e+01  2.91239e+02        00000 
 2.43255e+01  2.91274e+02        00000 
 1.83651e+01  2.91336e+02        00000 
 1.30310e+01  2.91392e+02        00000 
 8.45168e+00  2.91414e+02        00000 
 4.64301e+00  2.91422e+02        00000 
 1.54860e+00  2.91421e+02        00000 
-1.23653e+00  2.91400e+02        00000 
-4.32682e+00  2.91398e+02        00000 
-8.12884e+00  2.91386e+02        00000 
-1.27007e+01  2.91342e+02        00000 
-1.80260e+01  2.91285e+02        00000 
-2.39759e+01  2.91226e+02        00000 
-3.03871e+01  2.91195e+02        00000 
-3.70971e+01  2.91219e+02        00000 
-4.38728e+01  2.91319e+02        00000 
-5.03850e+01  2.91489e+02        00000 
 3.36014e+01  1.21140e+02        00000 
 3.52878e+01  1.26038e+02        00000 
 3.73209e+01  1.31664e+02        00000 
 3.97001e+01  1.38324e+02        00000 
 4.24103e+01  1.46401e+02        00000 
 4.53435e+01  1.56369e+02        00000 
-2.37205e+01  1.55524e+02        00000 
 4.82095e+01  1.68575e+02        00000 
 5.06335e+01  1.82874e+02        00000 
 5.22468e+01  1.98523e+02        00000 
-3.69539e+01  1.98273e+02        00000 
 5.28424e+01  2.14130e+02        00000 
-3.83415e+01  2.13875e+02        00000 
 5.25664e+01  2.28173e+02        00000 
-3.97785e+01  2.27799e+02        00000 
 5.19282e+01  2.39958e+02        00000 
 5.12563e+01  2.49918e+02        00000 
-3.33467e+01  2.49826e+02        00000 
 5.06313e+01  2.58386e+02        00000 
-3.47481e+01  2.58147e+02        00000 
 5.02314e+01  2.65806e+02        00000 
-2.91253e+01  2.65567e+02        00000 
 5.00545e+01  2.72621e+02        00000 
-2.37376e+01  2.72710e+02        00000 
 5.00732e+01  2.79075e+02        00000 
 5.03041e+01  2.85328e+02        00000 
 5.07832e+01  2.91536e+02        00000 
-1.28086e+01  2.80386e+02        00000 
 4.47743e+01  2.97631e+02        00000 
 3.77448e+01  2.97490e+02        00000 
 3.08343e+01  2.97409e+02        00000 
 2.43084e+01  2.97309e+02        00000 
 1.83131e+01  2.97106e+02        00000 
 1.29776e+01  2.96784e+02        00000 
 8.49346e+00  2.96351e+02        00000 
 4.65229e+00  2.95802e+02        00000 
-8.14138e+00  2.96295e+02        00000 
-1.26431e+01  2.96726e+02        00000 
-1.79785e+01  2.97045e+02        00000 
-2.39660e+01  2.97251e+02        00000 
-3.04762e+01  2.97353e+02        00000 
-3.73693e+01  2.97433e+02        00000 
-4.43814e+01  2.97573e+02        00000 
-5.11351e+01  2.97815e+02        00000 
 4.53999e+01  3.04234e+02        00000 
 3.79914e+01  3.04062e+02        00000 
 3.08307e+01  3.03940e+02        00000 
 2.42237e+01  3.03734e+02        00000 
 1.82819e+01  3.03297e+02        00000 
-2.38874e+01  3.03664e+02        00000 
-3.04751e+01  3.03866e+02        00000 
-3.76138e+01  3.03986e+02        00000 
-4.49999e+01  3.04156e+02        00000 
-5.21899e+01  3.04470e+02        00000 
 4.61084e+01  3.11408e+02        00000 
 3.81506e+01  3.11227e+02        00000 
 3.06618e+01  3.11100e+02        00000 
 2.40146e+01  3.10782e+02        00000 
-3.03117e+01  3.10998e+02        00000 
-3.77702e+01  3.11126e+02        00000 
-4.57008e+01  3.11305e+02        00000 
-5.35560e+01  3.11683e+02        00000 
 4.68379e+01  3.19430e+02        00000 
 3.81334e+01  3.19280e+02        00000 
 3.01868e+01  3.19173e+02        00000 
-3.77479e+01  3.19147e+02        00000 
-4.64236e+01  3.19296e+02        00000 
-5.52320e+01  3.19721e+02        00000 
 4.74968e+01  3.28618e+02        00000 
 3.77793e+01  3.28544e+02        00000 
-4.70810e+01  3.28458e+02        00000 
-5.72197e+01  3.28936e+02        00000 
 4.80537e+01  3.39473e+02        00000 
 3.68236e+01  3.39306e+02        00000 
-4.76336e+01  3.39279e+02        00000 
-5.94507e+01  3.39815e+02        00000 
 4.84187e+01  3.52596e+02        00000 
-6.16674e+01  3.52755e+02        00000 
 4.85174e+01  3.67890e+02        00000 
-6.36213e+01  3.67806e+02        00000 
 4.86390e+01  3.84941e+02        00000 
-6.49484e+01  3.84720e+02        00000 
 4.90041e+01  4.02839e+02        00000 
-6.53255e+01  4.02355e+02        00000 
 4.96237e+01  4.20036e+02        00000 
-6.48520e+01  4.19297e+02        00000 
 5.01722e+01  4.35410e+02        00000 
-6.38211e+01  4.34735e+02        00000 
 5.03578e+01  4.49146e+02        00000 
 3.83395e+01  4.49176e+02        00000 
-4.97737e+01  4.48694e+02        00000 
-6.25257e+01  4.48419e+02        00000 
 5.03492e+01  4.61070e+02        00000 
 3.93913e+01  4.61036e+02        00000 
-4.97650e+01  4.60672e+02        00000 
-6.12284e+01  4.60441e+02        00000 
 5.02204e+01  4.71726e+02        00000 
 3.99169e+01  4.71780e+02        00000 
 3.03008e+01  4.71888e+02        00000 
-3.92629e+01  4.71446e+02        00000 
-4.96399e+01  4.71393e+02        00000 
-6.01446e+01  4.71199e+02        00000 
 5.00170e+01  4.81529e+02        00000 
 4.01225e+01  4.81616e+02        00000 
 3.07064e+01  4.81774e+02        00000 
 2.21188e+01  4.82207e+02        00000 
-2.99581e+01  4.81522e+02        00000 
-3.94621e+01  4.81365e+02        00000 
-4.94367e+01  4.81276e+02        00000 
-5.93481e+01  4.81123e+02        00000 
 4.98357e+01  4.90801e+02        00000 
 4.01741e+01  4.90818e+02        00000 
 3.08479e+01  4.90849e+02        00000 
 2.22172e+01  4.91021e+02        00000 
 1.45681e+01  4.91507e+02        00000 
 8.13341e+00  4.92555e+02        00000 
-1.36494e+01  4.91355e+02        00000 
-2.13823e+01  4.90864e+02        00000 
-3.00995e+01  4.90686e+02        00000 
-3.95106e+01  4.90652e+02        00000 
-4.92549e+01  4.90634e+02        00000 
-5.88692e+01  4.90562e+02        00000 
 4.97403e+01  4.99924e+02        00000 
 4.02114e+01  4.99769e+02        00000 
 3.09470e+01  4.99493e+02        00000 
 2.22871e+01  4.99170e+02        00000 
 1.45530e+01  4.98900e+02        00000 
 8.20615e+00  4.98718e+02        00000 
 3.83334e+00  4.98708e+02        00000 
 1.39935e+00  4.98965e+02        00000 
 5.81876e-01  4.99214e+02        00000 
 5.82603e-01  4.99216e+02        00000 
-1.47772e-01  4.98918e+02        00000 
-2.78554e+00  4.98621e+02        00000 
-7.22867e+00  4.98637e+02        00000 
-1.36452e+01  4.98819e+02        00000 
-2.14528e+01  4.99092e+02        00000 
-3.01966e+01  4.99414e+02        00000 
-3.95461e+01  4.99688e+02        00000 
-4.91593e+01  4.99842e+02        00000 
-5.87076e+01  4.99868e+02        00000 
 1.57298e+00  2.95413e+02        00000 
-1.23183e+00  2.95411e+02        00000 
-4.37934e+00  2.95768e+02        00000 
 1.29591e+01  3.02500e+02        00000 
-1.26264e+01  3.02421e+02        00000 
-1.79565e+01  3.03233e+02        00000 
-2.36816e+01  3.10680e+02        00000 
-2.98440e+01  3.19041e+02        00000 
-3.73896e+01  3.28373e+02        00000 
-4.80026e+01  3.52347e+02        00000 
-4.80697e+01  3.67446e+02        00000 
-4.95829e+01  4.34915e+02        00000 
 4.97556e+01  5.09286e+02        00000 
 4.03278e+01  5.08937e+02        00000 
 3.11490e+01  5.08261e+02        00000 
 2.25402e+01  5.07244e+02        00000 
 1.48593e+01  5.05896e+02        00000 
 8.57320e+00  5.04281e+02        00000 
 4.11577e+00  5.02622e+02        00000 
 1.58406e+00  5.01204e+02        00000 