<?xml version="1.0" encoding="utf-8"?>
<VTKFile byte_order="LittleEndian" type="UnstructuredGrid" version="0.1">
   <UnstructuredGrid>
      <Piece NumberOfCells="3364" NumberOfPoints="1741">
         <Points>
            <DataArray Name="Points" NumberOfComponents="3" format="ascii" type="Float32">
0.0000 1.0000 0.0000
0.0000 1.0345 0.0000
0.0000 1.0690 0.0000
0.0000 1.1034 0.0000
0.0000 1.1379 0.0000
0.0000 1.1724 0.0000
0.0000 1.2069 0.0000
0.0000 1.2414 0.0000
0.0000 1.2759 0.0000
0.0000 1.3103 0.0000
0.0000 1.3448 0.0000
0.0000 1.3793 0.0000
0.0000 1.4138 0.0000
0.0000 1.4483 0.0000
0.0000 1.4828 0.0000
0.0000 1.5172 0.0000
0.0000 1.5517 0.0000
0.0000 1.5862 0.0000
0.0000 1.6207 0.0000
0.0000 1.6552 0.0000
0.0000 1.6897 0.0000
0.0000 1.7241 0.0000
0.0000 1.7586 0.0000
0.0000 1.7931 0.0000
0.0000 1.8276 0.0000
0.0000 1.8621 0.0000
0.0000 1.8966 0.0000
0.0000 1.9310 0.0000
0.0000 1.9655 0.0000
0.0000 2.0000 0.0000
0.0690 1.0000 0.0000
0.0690 1.0345 0.0000
0.0690 1.0690 0.0000
0.0690 1.1034 0.0000
0.0690 1.1379 0.0000
0.0690 1.1724 0.0000
0.0690 1.2069 0.0000
0.0690 1.2414 0.0000
0.0690 1.2759 0.0000
0.0690 1.3103 0.0000
0.0690 1.3448 0.0000
0.0690 1.3793 0.0000
0.0690 1.4138 0.0000
0.0690 1.4483 0.0000
0.0690 1.4828 0.0000
0.0690 1.5172 0.0000
0.0690 1.5517 0.0000
0.0690 1.5862 0.0000
0.0690 1.6207 0.0000
0.0690 1.6552 0.0000
0.0690 1.6897 0.0000
0.0690 1.7241 0.0000
0.0690 1.7586 0.0000
0.0690 1.7931 0.0000
0.0690 1.8276 0.0000
0.0690 1.8621 0.0000
0.0690 1.8966 0.0000
0.0690 1.9310 0.0000
0.0690 1.9655 0.0000
0.0690 2.0000 0.0000
0.1379 1.0000 0.0000
0.1379 1.0345 0.0000
0.1379 1.0690 0.0000
0.1379 1.1034 0.0000
0.1379 1.1379 0.0000
0.1379 1.1724 0.0000
0.1379 1.2069 0.0000
0.1379 1.2414 0.0000
0.1379 1.2759 0.0000
0.1379 1.3103 0.0000
0.1379 1.3448 0.0000
0.1379 1.3793 0.0000
0.1379 1.4138 0.0000
0.1379 1.4483 0.0000
0.1379 1.4828 0.0000
0.1379 1.5172 0.0000
0.1379 1.5517 0.0000
0.1379 1.5862 0.0000
0.1379 1.6207 0.0000
0.1379 1.6552 0.0000
0.1379 1.6897 0.0000
0.1379 1.7241 0.0000
0.1379 1.7586 0.0000
0.1379 1.7931 0.0000
0.1379 1.8276 0.0000
0.1379 1.8621 0.0000
0.1379 1.8966 0.0000
0.1379 1.9310 0.0000
0.1379 1.9655 0.0000
0.1379 2.0000 0.0000
0.2069 1.0000 0.0000
0.2069 1.0345 0.0000
0.2069 1.0690 0.0000
0.2069 1.1034 0.0000
0.2069 1.1379 0.0000
0.2069 1.1724 0.0000
0.2069 1.2069 0.0000
0.2069 1.2414 0.0000
0.2069 1.2759 0.0000
0.2069 1.3103 0.0000
0.2069 1.3448 0.0000
0.2069 1.3793 0.0000
0.2069 1.4138 0.0000
0.2069 1.4483 0.0000
0.2069 1.4828 0.0000
0.2069 1.5172 0.0000
0.2069 1.5517 0.0000
0.2069 1.5862 0.0000
0.2069 1.6207 0.0000
0.2069 1.6552 0.0000
0.2069 1.6897 0.0000
0.2069 1.7241 0.0000
0.2069 1.7586 0.0000
0.2069 1.7931 0.0000
0.2069 1.8276 0.0000
0.2069 1.8621 0.0000
0.2069 1.8966 0.0000
0.2069 1.9310 0.0000
0.2069 1.9655 0.0000
0.2069 2.0000 0.0000
0.2759 1.0000 0.0000
0.2759 1.0345 0.0000
0.2759 1.0690 0.0000
0.2759 1.1034 0.0000
0.2759 1.1379 0.0000
0.2759 1.1724 0.0000
0.2759 1.2069 0.0000
0.2759 1.2414 0.0000
0.2759 1.2759 0.0000
0.2759 1.3103 0.0000
0.2759 1.3448 0.0000
0.2759 1.3793 0.0000
0.2759 1.4138 0.0000
0.2759 1.4483 0.0000
0.2759 1.4828 0.0000
0.2759 1.5172 0.0000
0.2759 1.5517 0.0000
0.2759 1.5862 0.0000
0.2759 1.6207 0.0000
0.2759 1.6552 0.0000
0.2759 1.6897 0.0000
0.2759 1.7241 0.0000
0.2759 1.7586 0.0000
0.2759 1.7931 0.0000
0.2759 1.8276 0.0000
0.2759 1.8621 0.0000
0.2759 1.8966 0.0000
0.2759 1.9310 0.0000
0.2759 1.9655 0.0000
0.2759 2.0000 0.0000
0.3448 1.0000 0.0000
0.3448 1.0345 0.0000
0.3448 1.0690 0.0000
0.3448 1.1034 0.0000
0.3448 1.1379 0.0000
0.3448 1.1724 0.0000
0.3448 1.2069 0.0000
0.3448 1.2414 0.0000
0.3448 1.2759 0.0000
0.3448 1.3103 0.0000
0.3448 1.3448 0.0000
0.3448 1.3793 0.0000
0.3448 1.4138 0.0000
0.3448 1.4483 0.0000
0.3448 1.4828 0.0000
0.3448 1.5172 0.0000
0.3448 1.5517 0.0000
0.3448 1.5862 0.0000
0.3448 1.6207 0.0000
0.3448 1.6552 0.0000
0.3448 1.6897 0.0000
0.3448 1.7241 0.0000
0.3448 1.7586 0.0000
0.3448 1.7931 0.0000
0.3448 1.8276 0.0000
0.3448 1.8621 0.0000
0.3448 1.8966 0.0000
0.3448 1.9310 0.0000
0.3448 1.9655 0.0000
0.3448 2.0000 0.0000
0.4138 1.0000 0.0000
0.4138 1.0345 0.0000
0.4138 1.0690 0.0000
0.4138 1.1034 0.0000
0.4138 1.1379 0.0000
0.4138 1.1724 0.0000
0.4138 1.2069 0.0000
0.4138 1.2414 0.0000
0.4138 1.2759 0.0000
0.4138 1.3103 0.0000
0.4138 1.3448 0.0000
0.4138 1.3793 0.0000
0.4138 1.4138 0.0000
0.4138 1.4483 0.0000
0.4138 1.4828 0.0000
0.4138 1.5172 0.0000
0.4138 1.5517 0.0000
0.4138 1.5862 0.0000
0.4138 1.6207 0.0000
0.4138 1.6552 0.0000
0.4138 1.6897 0.0000
0.4138 1.7241 0.0000
0.4138 1.7586 0.0000
0.4138 1.7931 0.0000
0.4138 1.8276 0.0000
0.4138 1.8621 0.0000
0.4138 1.8966 0.0000
0.4138 1.9310 0.0000
0.4138 1.9655 0.0000
0.4138 2.0000 0.0000
0.4828 1.0000 0.0000
0.4828 1.0345 0.0000
0.4828 1.0690 0.0000
0.4828 1.1034 0.0000
0.4828 1.1379 0.0000
0.4828 1.1724 0.0000
0.4828 1.2069 0.0000
0.4828 1.2414 0.0000
0.4828 1.2759 0.0000
0.4828 1.3103 0.0000
0.4828 1.3448 0.0000
0.4828 1.3793 0.0000
0.4828 1.4138 0.0000
0.4828 1.4483 0.0000
0.4828 1.4828 0.0000
0.4828 1.5172 0.0000
0.4828 1.5517 0.0000
0.4828 1.5862 0.0000
0.4828 1.6207 0.0000
0.4828 1.6552 0.0000
0.4828 1.6897 0.0000
0.4828 1.7241 0.0000
0.4828 1.7586 0.0000
0.4828 1.7931 0.0000
0.4828 1.8276 0.0000
0.4828 1.8621 0.0000
0.4828 1.8966 0.0000
0.4828 1.9310 0.0000
0.4828 1.9655 0.0000
0.4828 2.0000 0.0000
0.5517 1.0000 0.0000
0.5517 1.0345 0.0000
0.5517 1.0690 0.0000
0.5517 1.1034 0.0000
0.5517 1.1379 0.0000
0.5517 1.1724 0.0000
0.5517 1.2069 0.0000
0.5517 1.2414 0.0000
0.5517 1.2759 0.0000
0.5517 1.3103 0.0000
0.5517 1.3448 0.0000
0.5517 1.3793 0.0000
0.5517 1.4138 0.0000
0.5517 1.4483 0.0000
0.5517 1.4828 0.0000
0.5517 1.5172 0.0000
0.5517 1.5517 0.0000
0.5517 1.5862 0.0000
0.5517 1.6207 0.0000
0.5517 1.6552 0.0000
0.5517 1.6897 0.0000
0.5517 1.7241 0.0000
0.5517 1.7586 0.0000
0.5517 1.7931 0.0000
0.5517 1.8276 0.0000
0.5517 1.8621 0.0000
0.5517 1.8966 0.0000
0.5517 1.9310 0.0000
0.5517 1.9655 0.0000
0.5517 2.0000 0.0000
0.6207 1.0000 0.0000
0.6207 1.0345 0.0000
0.6207 1.0690 0.0000
0.6207 1.1034 0.0000
0.6207 1.1379 0.0000
0.6207 1.1724 0.0000
0.6207 1.2069 0.0000
0.6207 1.2414 0.0000
0.6207 1.2759 0.0000
0.6207 1.3103 0.0000
0.6207 1.3448 0.0000
0.6207 1.3793 0.0000
0.6207 1.4138 0.0000
0.6207 1.4483 0.0000
0.6207 1.4828 0.0000
0.6207 1.5172 0.0000
0.6207 1.5517 0.0000
0.6207 1.5862 0.0000
0.6207 1.6207 0.0000
0.6207 1.6552 0.0000
0.6207 1.6897 0.0000
0.6207 1.7241 0.0000
0.6207 1.7586 0.0000
0.6207 1.7931 0.0000
0.6207 1.8276 0.0000
0.6207 1.8621 0.0000
0.6207 1.8966 0.0000
0.6207 1.9310 0.0000
0.6207 1.9655 0.0000
0.6207 2.0000 0.0000
0.6897 1.0000 0.0000
0.6897 1.0345 0.0000
0.6897 1.0690 0.0000
0.6897 1.1034 0.0000
0.6897 1.1379 0.0000
0.6897 1.1724 0.0000
0.6897 1.2069 0.0000
0.6897 1.2414 0.0000
0.6897 1.2759 0.0000
0.6897 1.3103 0.0000
0.6897 1.3448 0.0000
0.6897 1.3793 0.0000
0.6897 1.4138 0.0000
0.6897 1.4483 0.0000
0.6897 1.4828 0.0000
0.6897 1.5172 0.0000
0.6897 1.5517 0.0000
0.6897 1.5862 0.0000
0.6897 1.6207 0.0000
0.6897 1.6552 0.0000
0.6897 1.6897 0.0000
0.6897 1.7241 0.0000
0.6897 1.7586 0.0000
0.6897 1.7931 0.0000
0.6897 1.8276 0.0000
0.6897 1.8621 0.0000
0.6897 1.8966 0.0000
0.6897 1.9310 0.0000
0.6897 1.9655 0.0000
0.6897 2.0000 0.0000
0.7586 1.0000 0.0000
0.7586 1.0345 0.0000
0.7586 1.0690 0.0000
0.7586 1.1034 0.0000
0.7586 1.1379 0.0000
0.7586 1.1724 0.0000
0.7586 1.2069 0.0000
0.7586 1.2414 0.0000
0.7586 1.2759 0.0000
0.7586 1.3103 0.0000
0.7586 1.3448 0.0000
0.7586 1.3793 0.0000
0.7586 1.4138 0.0000
0.7586 1.4483 0.0000
0.7586 1.4828 0.0000
0.7586 1.5172 0.0000
0.7586 1.5517 0.0000
0.7586 1.5862 0.0000
0.7586 1.6207 0.0000
0.7586 1.6552 0.0000
0.7586 1.6897 0.0000
0.7586 1.7241 0.0000
0.7586 1.7586 0.0000
0.7586 1.7931 0.0000
0.7586 1.8276 0.0000
0.7586 1.8621 0.0000
0.7586 1.8966 0.0000
0.7586 1.9310 0.0000
0.7586 1.9655 0.0000
0.7586 2.0000 0.0000
0.8276 1.0000 0.0000
0.8276 1.0345 0.0000
0.8276 1.0690 0.0000
0.8276 1.1034 0.0000
0.8276 1.1379 0.0000
0.8276 1.1724 0.0000
0.8276 1.2069 0.0000
0.8276 1.2414 0.0000
0.8276 1.2759 0.0000
0.8276 1.3103 0.0000
0.8276 1.3448 0.0000
0.8276 1.3793 0.0000
0.8276 1.4138 0.0000
0.8276 1.4483 0.0000
0.8276 1.4828 0.0000
0.8276 1.5172 0.0000
0.8276 1.5517 0.0000
0.8276 1.5862 0.0000
0.8276 1.6207 0.0000
0.8276 1.6552 0.0000
0.8276 1.6897 0.0000
0.8276 1.7241 0.0000
0.8276 1.7586 0.0000
0.8276 1.7931 0.0000
0.8276 1.8276 0.0000
0.8276 1.8621 0.0000
0.8276 1.8966 0.0000
0.8276 1.9310 0.0000
0.8276 1.9655 0.0000
0.8276 2.0000 0.0000
0.8966 1.0000 0.0000
0.8966 1.0345 0.0000
0.8966 1.0690 0.0000
0.8966 1.1034 0.0000
0.8966 1.1379 0.0000
0.8966 1.1724 0.0000
0.8966 1.2069 0.0000
0.8966 1.2414 0.0000
0.8966 1.2759 0.0000
0.8966 1.3103 0.0000
0.8966 1.3448 0.0000
0.8966 1.3793 0.0000
0.8966 1.4138 0.0000
0.8966 1.4483 0.0000
0.8966 1.4828 0.0000
0.8966 1.5172 0.0000
0.8966 1.5517 0.0000
0.8966 1.5862 0.0000
0.8966 1.6207 0.0000
0.8966 1.6552 0.0000
0.8966 1.6897 0.0000
0.8966 1.7241 0.0000
0.8966 1.7586 0.0000
0.8966 1.7931 0.0000
0.8966 1.8276 0.0000
0.8966 1.8621 0.0000
0.8966 1.8966 0.0000
0.8966 1.9310 0.0000
0.8966 1.9655 0.0000
0.8966 2.0000 0.0000
0.9655 1.0000 0.0000
0.9655 1.0345 0.0000
0.9655 1.0690 0.0000
0.9655 1.1034 0.0000
0.9655 1.1379 0.0000
0.9655 1.1724 0.0000
0.9655 1.2069 0.0000
0.9655 1.2414 0.0000
0.9655 1.2759 0.0000
0.9655 1.3103 0.0000
0.9655 1.3448 0.0000
0.9655 1.3793 0.0000
0.9655 1.4138 0.0000
0.9655 1.4483 0.0000
0.9655 1.4828 0.0000
0.9655 1.5172 0.0000
0.9655 1.5517 0.0000
0.9655 1.5862 0.0000
0.9655 1.6207 0.0000
0.9655 1.6552 0.0000
0.9655 1.6897 0.0000
0.9655 1.7241 0.0000
0.9655 1.7586 0.0000
0.9655 1.7931 0.0000
0.9655 1.8276 0.0000
0.9655 1.8621 0.0000
0.9655 1.8966 0.0000
0.9655 1.9310 0.0000
0.9655 1.9655 0.0000
0.9655 2.0000 0.0000
1.0345 1.0000 0.0000
1.0345 1.0345 0.0000
1.0345 1.0690 0.0000
1.0345 1.1034 0.0000
1.0345 1.1379 0.0000
1.0345 1.1724 0.0000
1.0345 1.2069 0.0000
1.0345 1.2414 0.0000
1.0345 1.2759 0.0000
1.0345 1.3103 0.0000
1.0345 1.3448 0.0000
[...]
         <PointData>
            <DataArray Name="fValues" NumberOfComponents="3" format="ascii" type="Float64">
-2.75742e-22  8.68275e-21        00000 
 8.62411e-21  2.87470e-21        00000 
 1.77670e-21  1.63457e-20        00000 
-2.12068e-21  1.56261e-21        00000 
-6.39613e-21 -1.13709e-20        00000 
 1.08425e-20  7.67414e-21        00000 
-3.90875e-21 -7.10681e-22        00000 
 1.36170e-21 -2.58947e-21        00000 
 2.13204e-21  5.68545e-21        00000 
-4.34070e-22  9.52154e-23        00000 
-1.77670e-22 -4.61943e-21        00000 
 1.82211e-21  3.03592e-21        00000 
-5.33011e-22  1.06602e-21        00000 
 6.43979e-22  5.75625e-22        00000 
-2.22088e-22  2.84273e-21        00000 
 4.71573e-22 -2.79037e-21        00000 
-1.77670e-22  1.06602e-21        00000 
 2.75145e-22 -2.75075e-21        00000 
-1.68787e-21  6.75147e-21        00000 
 3.79491e-22 -5.75933e-21        00000 
-3.02040e-21  2.13204e-21        00000 
 4.03123e-21 -1.13656e-20        00000 
       00000  4.97477e-21        00000 
-2.00907e-22 -6.02720e-22        00000 
-3.19807e-21  1.06602e-20        00000 
 3.15139e-21 -1.14003e-20        00000 
-1.77670e-21 -7.10681e-22        00000 
-1.12718e-20  1.35530e-20        00000 
 2.59832e-21  6.98858e-21        00000 
-2.52987e-21  2.01343e-21        00000 
 3.69872e-05  6.55594e-05        00000 
 5.34276e-05  1.00358e-04        00000 
 4.36702e-05  8.04529e-05        00000 
 3.70959e-05  6.69672e-05        00000 
 3.20149e-05  5.73655e-05        00000 
 2.77700e-05  5.02835e-05        00000 
 2.40473e-05  4.49319e-05        00000 
 2.06755e-05  4.08249e-05        00000 
 1.75512e-05  3.76492e-05        00000 
 1.46070e-05  3.51944e-05        00000 
 1.17960e-05  3.33158e-05        00000 
 9.08305e-06  3.19122e-05        00000 
 6.44069e-06  3.09133e-05        00000 
 3.84604e-06  3.02717e-05        00000 
 1.27900e-06  2.99579e-05        00000 
-1.27900e-06  2.99579e-05        00000 
-3.84604e-06  3.02717e-05        00000 
-6.44069e-06  3.09133e-05        00000 
-9.08305e-06  3.19122e-05        00000 
-1.17960e-05  3.33158e-05        00000 
-1.46070e-05  3.51944e-05        00000 
-1.75512e-05  3.76492e-05        00000 
-2.06755e-05  4.08249e-05        00000 
-2.40473e-05  4.49319e-05        00000 
-2.77700e-05  5.02835e-05        00000 
-3.20149e-05  5.73655e-05        00000 
-3.70959e-05  6.69672e-05        00000 
-4.36702e-05  8.04529e-05        00000 
-5.34276e-05  1.00358e-04        00000 
-3.69872e-05  6.55594e-05        00000 
 6.46241e-05  1.08414e-04        00000 
 1.09169e-04  1.93734e-04        00000 
 9.21164e-05  1.71005e-04        00000 
 7.88731e-05  1.51908e-04        00000 
 6.80826e-05  1.36455e-04        00000 
 5.89116e-05  1.24069e-04        00000 
 5.08526e-05  1.14160e-04        00000 
 4.35838e-05  1.06242e-04        00000 
 3.68918e-05  9.99336e-05        00000 
 3.06279e-05  9.49478e-05        00000 
 2.46837e-05  9.10672e-05        00000 
 1.89765e-05  8.81309e-05        00000 
 1.34402e-05  8.60216e-05        00000 
 8.01958e-06  8.46580e-05        00000 
 2.66588e-06  8.39886e-05        00000 
-2.66588e-06  8.39886e-05        00000 
-8.01958e-06  8.46580e-05        00000 
-1.34402e-05  8.60216e-05        00000 
-1.89765e-05  8.81309e-05        00000 
-2.46837e-05  9.10672e-05        00000 
-3.06279e-05  9.49478e-05        00000 
-3.68918e-05  9.99336e-05        00000 
-4.35838e-05  1.06242e-04        00000 
-5.08526e-05  1.14160e-04        00000 
-5.89116e-05  1.24069e-04        00000 
-6.80826e-05  1.36455e-04        00000 
-7.88731e-05  1.51908e-04        00000 
-9.21164e-05  1.71005e-04        00000 
-1.09169e-04  1.93734e-04        00000 
-6.46241e-05  1.08414e-04        00000 
 8.98803e-05  1.53086e-04        00000 
 1.58006e-04  2.84006e-04        00000 
 1.38278e-04  2.63262e-04        00000 
 1.20675e-04  2.44112e-04        00000 
 1.05204e-04  2.27197e-04        00000 
 9.14909e-05  2.12660e-04        00000 
 7.91605e-05  2.00381e-04        00000 
 6.79056e-05  1.90143e-04        00000 
 5.74855e-05  1.81711e-04        00000 
 4.77118e-05  1.74870e-04        00000 
 3.84354e-05  1.69436e-04        00000 
 2.95354e-05  1.65260e-04        00000 
 2.09105e-05  1.62225e-04        00000 
 1.24735e-05  1.60248e-04        00000 
 4.14585e-06  1.59272e-04        00000 
-4.14585e-06  1.59272e-04        00000 
-1.24735e-05  1.60248e-04        00000 
-2.09105e-05  1.62225e-04        00000 
-2.95354e-05  1.65260e-04        00000 
-3.84354e-05  1.69436e-04        00000 
-4.77118e-05  1.74870e-04        00000 
-5.74855e-05  1.81711e-04        00000 
-6.79056e-05  1.90143e-04        00000 
-7.91605e-05  2.00381e-04        00000 
-9.14909e-05  2.12660e-04        00000 
-1.05204e-04  2.27197e-04        00000 
-1.20675e-04  2.44112e-04        00000 
-1.38278e-04  2.63262e-04        00000 
-1.58006e-04  2.84006e-04        00000 
-8.98803e-05  1.53086e-04        00000 
 1.13777e-04  2.01377e-04        00000 
 2.03421e-04  3.81992e-04        00000 
 1.80947e-04  3.62419e-04        00000 
 1.60196e-04  3.44275e-04        00000 
 1.41119e-04  3.27718e-04        00000 
 1.23608e-04  3.12924e-04        00000 
 1.07469e-04  2.99958e-04        00000 
 9.24876e-05  2.88790e-04        00000 
 7.84624e-05  2.79337e-04        00000 
 6.52127e-05  2.71491e-04        00000 
 5.25804e-05  2.65142e-04        00000 
 4.04273e-05  2.60191e-04        00000 
 2.86314e-05  2.56554e-04        00000 
 1.70823e-05  2.54166e-04        00000 
 5.67819e-06  2.52982e-04        00000 
-5.67819e-06  2.52982e-04        00000 
-1.70823e-05  2.54166e-04        00000 
-2.86314e-05  2.56554e-04        00000 
-4.04273e-05  2.60191e-04        00000 
-5.25804e-05  2.65142e-04        00000 
-6.52127e-05  2.71491e-04        00000 
-7.84624e-05  2.79337e-04        00000 
-9.24876e-05  2.88790e-04        00000 
-1.07469e-04  2.99958e-04        00000 
-1.23608e-04  3.12924e-04        00000 
-1.41119e-04  3.27718e-04        00000 
-1.60196e-04  3.44275e-04        00000 
-1.80947e-04  3.62419e-04        00000 
-2.03421e-04  3.81992e-04        00000 
-1.13777e-04  2.01377e-04        00000 
 1.36383e-04  2.54733e-04        00000 
 2.46042e-04  4.89862e-04        00000 
 2.20859e-04  4.71470e-04        00000 
 1.97208e-04  4.54346e-04        00000 
 1.75045e-04  4.38592e-04        00000 
 1.54281e-04  4.24293e-04        00000 
 1.34795e-04  4.11514e-04        00000 
 1.16443e-04  4.00287e-04        00000 
 9.90674e-05  3.90603e-04        00000 
 8.25139e-05  3.82430e-04        00000 
 6.66346e-05  3.75724e-04        00000 
 5.12909e-05  3.70432e-04        00000 
 3.63532e-05  3.66510e-04        00000 
 2.16999e-05  3.63918e-04        00000 
 7.21473e-06  3.62628e-04        00000 
-7.21473e-06  3.62628e-04        00000 
-2.16999e-05  3.63918e-04        00000 
-3.63532e-05  3.66510e-04        00000 
-5.12909e-05  3.70432e-04        00000 
-6.66346e-05  3.75724e-04        00000 
-8.25139e-05  3.82430e-04        00000 
-9.90674e-05  3.90603e-04        00000 
-1.16443e-04  4.00287e-04        00000 
-1.34795e-04  4.11514e-04        00000 
-1.54281e-04  4.24293e-04        00000 
-1.75045e-04  4.38592e-04        00000 
-1.97208e-04  4.54346e-04        00000 
-2.20859e-04  4.71470e-04        00000 
-2.46042e-04  4.89862e-04        00000 
-1.36383e-04  2.54733e-04        00000 
 1.57724e-04  3.13426e-04        00000 
 2.86097e-04  6.08414e-04        00000 
 2.58254e-04  5.91142e-04        00000 
 2.31867e-04  5.75065e-04        00000 
 2.06870e-04  5.60224e-04        00000 
 1.83177e-04  5.46672e-04        00000 
 1.60684e-04  5.34454e-04        00000 
 1.39273e-04  5.23607e-04        00000 
 1.18817e-04  5.14148e-04        00000 
 9.91809e-05  5.06081e-04        00000 
 8.02316e-05  4.99397e-04        00000 
 6.18370e-05  4.94081e-04        00000 
 4.38685e-05  4.90115e-04        00000 
 2.62015e-05  4.87481e-04        00000 
 8.71396e-06  4.86168e-04        00000 
-8.71396e-06  4.86168e-04        00000 
-2.62015e-05  4.87481e-04        00000 
-4.38685e-05  4.90115e-04        00000 
-6.18370e-05  4.94081e-04        00000 
-8.02316e-05  4.99397e-04        00000 
-9.91809e-05  5.06081e-04        00000 
-1.18817e-04  5.14148e-04        00000 
-1.39273e-04  5.23607e-04        00000 
-1.60684e-04  5.34454e-04        00000 
-1.83177e-04  5.46672e-04        00000 
-2.06870e-04  5.60224e-04        00000 
-2.31867e-04  5.75065e-04        00000 
-2.58254e-04  5.91142e-04        00000 
-2.86097e-04  6.08414e-04        00000 
-1.57724e-04  3.13426e-04        00000 
 1.77777e-04  3.77432e-04        00000 
 3.23649e-04  7.37593e-04        00000 
 2.93245e-04  7.21432e-04        00000 
 2.64264e-04  7.06391e-04        00000 
 2.36620e-04  6.92495e-04        00000 
 2.10223e-04  6.79775e-04        00000 
 1.84972e-04  6.68264e-04        00000 
 1.60756e-04  6.57993e-04        00000 
 1.37461e-04  6.48986e-04        00000 
 1.14966e-04  6.41259e-04        00000 
 9.31463e-05  6.34820e-04        00000 
 7.18783e-05  6.29672e-04        00000 
 5.10377e-05  6.25816e-04        00000 
 3.05013e-05  6.23247e-04        00000 
 1.01469e-05  6.21964e-04        00000 
-1.01469e-05  6.21964e-04        00000 
-3.05013e-05  6.23247e-04        00000 
-5.10377e-05  6.25816e-04        00000 
-7.18783e-05  6.29672e-04        00000 
-9.31463e-05  6.34820e-04        00000 
-1.14966e-04  6.41259e-04        00000 
-1.37461e-04  6.48986e-04        00000 
-1.60756e-04  6.57993e-04        00000 
-1.84972e-04  6.68264e-04        00000 
-2.10223e-04  6.79775e-04        00000 
-2.36620e-04  6.92495e-04        00000 
-2.64264e-04  7.06391e-04        00000 
-2.93245e-04  7.21432e-04        00000 
-3.23649e-04  7.37593e-04        00000 
-1.77777e-04  3.77432e-04        00000 
 1.96519e-04  4.46532e-04        00000 
 3.58711e-04  8.76968e-04        00000 
 3.25882e-04  8.61910e-04        00000 
 2.94456e-04  8.47897e-04        00000 
 2.64338e-04  8.34946e-04        00000 
 2.35427e-04  8.23081e-04        00000 
 2.07623e-04  8.12327e-04        00000 
 1.80817e-04  8.02709e-04        00000 
 1.54898e-04  7.94252e-04        00000 
 1.29753e-04  7.86974e-04        00000 
 1.05265e-04  7.80891e-04        00000 
 8.13146e-05  7.76015e-04        00000 
 5.77828e-05  7.72353e-04        00000 
 3.45501e-05  7.69909e-04        00000 
 1.14968e-05  7.68686e-04        00000 
-1.14968e-05  7.68686e-04        00000 
-3.45501e-05  7.69909e-04        00000 
-5.77828e-05  7.72353e-04        00000 
-8.13146e-05  7.76015e-04        00000 
-1.05265e-04  7.80891e-04        00000 
-1.29753e-04  7.86974e-04        00000 
-1.54898e-04  7.94252e-04        00000 
-1.80817e-04  8.02709e-04        00000 
-2.07623e-04  8.12327e-04        00000 
-2.35427e-04  8.23081e-04        00000 
-2.64338e-04  8.34946e-04        00000 
-2.94456e-04  8.47897e-04        00000 
-3.25882e-04  8.61910e-04        00000 
-3.58711e-04  8.76968e-04        00000 
-1.96519e-04  4.46532e-04        00000 
 2.13935e-04  5.20408e-04        00000 
 3.91285e-04  1.02590e-03        00000 
 3.56193e-04  1.01194e-03        00000 
 3.22486e-04  9.98942e-04        00000 
 2.90063e-04  9.86926e-04        00000 
 2.58819e-04  9.75912e-04        00000 
 2.28649e-04  9.65922e-04        00000 
 1.99447e-04  9.56979e-04        00000 
 1.71103e-04  9.49104e-04        00000 
 1.43507e-04  9.42318e-04        00000 
 1.16545e-04  9.36637e-04        00000 
 9.01047e-05  9.32077e-04        00000 
 6.40701e-05  9.28647e-04        00000 
 3.83258e-05  9.26356e-04        00000 
 1.27559e-05  9.25210e-04        00000 
-1.27559e-05  9.25210e-04        00000 
-3.83258e-05  9.26356e-04        00000 
-6.40701e-05  9.28647e-04        00000 
-9.01047e-05  9.32077e-04        00000 
-1.16545e-04  9.36637e-04        00000 
-1.43507e-04  9.42318e-04        00000 
-1.71103e-04  9.49104e-04        00000 
-1.99447e-04  9.56979e-04        00000 
-2.28649e-04  9.65922e-04        00000 
-2.58819e-04  9.75912e-04        00000 
-2.90063e-04  9.86926e-04        00000 
-3.22486e-04  9.98942e-04        00000 
-3.56193e-04  1.01194e-03        00000 
-3.91285e-04  1.02590e-03        00000 
-2.13935e-04  5.20408e-04        00000 
 2.30019e-04  5.98692e-04        00000 
 4.21381e-04  1.18364e-03        00000 
 3.84202e-04  1.17077e-03        00000 
 3.48389e-04  1.15877e-03        00000 
 3.13836e-04  1.14768e-03        00000 
 2.80436e-04  1.13750e-03        00000 
 2.48083e-04  1.12826e-03        00000 
 2.16669e-04  1.11999e-03        00000 
 1.86087e-04  1.11270e-03        00000 
 1.56228e-04  1.10641e-03        00000 
 1.26983e-04  1.10114e-03        00000 
 9.82415e-05  1.09691e-03        00000 
 6.98919e-05  1.09373e-03        00000 
 4.18228e-05  1.09160e-03        00000 
 1.39222e-05  1.09053e-03        00000 
-1.39222e-05  1.09053e-03        00000 
-4.18228e-05  1.09160e-03        00000 
-6.98919e-05  1.09373e-03        00000 
-9.82415e-05  1.09691e-03        00000 
-1.26983e-04  1.10114e-03        00000 
-1.56228e-04  1.10641e-03        00000 
-1.86087e-04  1.11270e-03        00000 
-2.16669e-04  1.11999e-03        00000 
-2.48083e-04  1.12826e-03        00000 
-2.80436e-04  1.13750e-03        00000 
-3.13836e-04  1.14768e-03        00000 
-3.48389e-04  1.15877e-03        00000 
-3.84202e-04  1.17077e-03        00000 
-4.21381e-04  1.18364e-03        00000 
-2.30019e-04  5.98692e-04        00000 
 2.44778e-04  6.80986e-04        00000 
 4.49020e-04  1.34940e-03        00000 
 4.09939e-04  1.33759e-03        00000 
 3.72202e-04  1.32658e-03        00000 
 3.35698e-04  1.31638e-03        00000 
 3.00320e-04  1.30702e-03        00000 
 2.65962e-04  1.29852e-03        00000 
 2.32517e-04  1.29090e-03        00000 
 1.99878e-04  1.28418e-03        00000 
 1.67940e-04  1.27838e-03        00000 
 1.36594e-04  1.27352e-03        00000 
 1.05735e-04  1.26961e-03        00000 
 7.52546e-05  1.26667e-03        00000 
 4.50445e-05  1.26471e-03        00000 
 1.49968e-05  1.26372e-03        00000 
-1.49968e-05  1.26372e-03        00000 
-4.50445e-05  1.26471e-03        00000 
-7.52546e-05  1.26667e-03        00000 
-1.05735e-04  1.26961e-03        00000 
-1.36594e-04  1.27352e-03        00000 
-1.67940e-04  1.27838e-03        00000 
-1.99878e-04  1.28418e-03        00000 
-2.32517e-04  1.29090e-03        00000 
-2.65962e-04  1.29852e-03        00000 
-3.00320e-04  1.30702e-03        00000 
-3.35698e-04  1.31638e-03        00000 
-3.72202e-04  1.32658e-03        00000 
-4.09939e-04  1.33759e-03        00000 
-4.49020e-04  1.34940e-03        00000 
-2.44778e-04  6.80986e-04        00000 
 2.58226e-04  7.66881e-04        00000 
 4.74235e-04  1.52233e-03        00000 
 4.33443e-04  1.51158e-03        00000 
 3.93964e-04  1.50153e-03        00000 
 3.55691e-04  1.49221e-03        00000 
 3.18514e-04  1.48364e-03        00000 
 2.82328e-04  1.47585e-03        00000 
 2.47029e-04  1.46886e-03        00000 
 2.12511e-04  1.46270e-03        00000 
 1.78670e-04  1.45737e-03        00000 
 1.45403e-04  1.45291e-03        00000 
 1.12604e-04  1.44931e-03        00000 
 8.01709e-05  1.44661e-03        00000 
 4.79982e-05  1.44480e-03        00000 
 1.59820e-05  1.44390e-03        00000 
-1.59820e-05  1.44390e-03        00000 
-4.79982e-05  1.44480e-03        00000 
-8.01709e-05  1.44661e-03        00000 
-1.12604e-04  1.44931e-03        00000 
-1.45403e-04  1.45291e-03        00000 
-1.78670e-04  1.45737e-03        00000 
-2.12511e-04  1.46270e-03        00000 
-2.47029e-04  1.46886e-03        00000 
-2.82328e-04  1.47585e-03        00000 
-3.18514e-04  1.48364e-03        00000 
-3.55691e-04  1.49221e-03        00000 
-3.93964e-04  1.50153e-03        00000 
-4.33443e-04  1.51158e-03        00000 
-4.74235e-04  1.52233e-03        00000 
-2.58226e-04  7.66881e-04        00000 
 2.70385e-04  8.55964e-04        00000 
 4.97070e-04  1.70162e-03        00000 
 4.54759e-04  1.69190e-03        00000 
 4.13725e-04  1.68278e-03        00000 
 3.73862e-04  1.67431e-03        00000 
 3.35064e-04  1.66651e-03        00000 
 2.97227e-04  1.65941e-03        00000 
 2.60247e-04  1.65303e-03        00000 
 2.24023e-04  1.64740e-03        00000 
 1.88453e-04  1.64253e-03        00000 
 1.53435e-04  1.63844e-03        00000 
 1.18870e-04  1.63515e-03        00000 
 8.46563e-05  1.63267e-03        00000 
 5.06934e-05  1.63102e-03        00000 
 1.68811e-05  1.63019e-03        00000 
-1.68811e-05  1.63019e-03        00000 
-5.06934e-05  1.63102e-03        00000 
-8.46563e-05  1.63267e-03        00000 
-1.18870e-04  1.63515e-03        00000 
-1.53435e-04  1.63844e-03        00000 
-1.88453e-04  1.64253e-03        00000 
-2.24023e-04  1.64740e-03        00000 
-2.60247e-04  1.65303e-03        00000 
-2.97227e-04  1.65941e-03        00000 
-3.35064e-04  1.66651e-03        00000 
-3.73862e-04  1.67431e-03        00000 
-4.13725e-04  1.68278e-03        00000 
-4.54759e-04  1.69190e-03        00000 
-4.97070e-04  1.70162e-03        00000 
-2.70385e-04  8.55964e-04        00000 
 2.81286e-04  9.47826e-04        00000 
 5.17585e-04  1.88644e-03        00000 
 4.73943e-04  1.87771e-03        00000 
 4.31537e-04  1.86951e-03        00000 
 3.90265e-04  1.86186e-03        00000 
 3.50021e-04  1.85480e-03        00000 
 3.10704e-04  1.84836e-03        00000 
 2.72215e-04  1.84257e-03        00000 
 2.34454e-04  1.83744e-03        00000 
 1.97322e-04  1.83301e-03        00000 
 1.60721e-04  1.82928e-03        00000 
 1.24556e-04  1.82628e-03        00000 
 8.87274e-05  1.82402e-03        00000 
 5.31401e-05  1.82251e-03        00000 
 1.76973e-05  1.82175e-03        00000 
-1.76973e-05  1.82175e-03        00000 
-5.31401e-05  1.82251e-03        00000 
-8.87274e-05  1.82402e-03        00000 
-1.24556e-04  1.82628e-03        00000 
-1.60721e-04  1.82928e-03        00000 
-1.97322e-04  1.83301e-03        00000 
-2.34454e-04  1.83744e-03        00000 
-2.72215e-04  1.84257e-03        00000 
-3.10704e-04  1.84836e-03        00000 
-3.50021e-04  1.85480e-03        00000 
-3.90265e-04  1.86186e-03        00000 
-4.31537e-04  1.86951e-03        00000 
-4.73943e-04  1.87771e-03        00000 
-5.17585e-04  1.88644e-03        00000 
-2.81286e-04  9.47826e-04        00000 
 2.90964e-04  1.04206e-03        00000 
 5.35847e-04  2.07597e-03        00000 
 4.91060e-04  2.06821e-03        00000 
 4.47464e-04  2.06088e-03        00000 
 4.04957e-04  2.05403e-03        00000 
 3.63439e-04  2.04769e-03        00000 
 3.22812e-04  2.04188e-03        00000 
 2.82979e-04  2.03665e-03        00000 
 2.43844e-04  2.03201e-03        00000 
 2.05312e-04  2.02799e-03        00000 
 1.67290e-04  2.02461e-03        00000 
 1.29684e-04  2.02188e-03        00000 
 9.24010e-05  2.01982e-03        00000 
 5.53484e-05  2.01845e-03        00000 
 1.84341e-05  2.01776e-03        00000 
-1.84341e-05  2.01776e-03        00000 
-5.53484e-05  2.01845e-03        00000 
-9.24010e-05  2.01982e-03        00000 
-1.29684e-04  2.02188e-03        00000 
-1.67290e-04  2.02461e-03        00000 
-2.05312e-04  2.02799e-03        00000 
-2.43844e-04  2.03201e-03        00000 
-2.82979e-04  2.03665e-03        00000 
-3.22812e-04  2.04188e-03        00000 
-3.63439e-04  2.04769e-03        00000 
-4.04957e-04  2.05403e-03        00000 
-4.47464e-04  2.06088e-03        00000 
-4.91060e-04  2.06821e-03        00000 
-5.35847e-04  2.07597e-03        00000 
-2.90964e-04  1.04206e-03        00000 
 2.99462e-04  1.13829e-03        00000 
 5.51934e-04  2.26943e-03        00000 
 5.06184e-04  2.26260e-03        00000 
 4.61573e-04  2.25611e-03        00000 
 4.18003e-04  2.25002e-03        00000 
 3.75378e-04  2.24436e-03        00000 
 3.33604e-04  2.23916e-03        00000 
 2.92587e-04  2.23446e-03        00000 
 2.52237e-04  2.23028e-03        00000 
 2.12462e-04  2.22666e-03        00000 
 1.73173e-04  2.22360e-03        00000 
 1.34280e-04  2.22114e-03        00000 
 9.56947e-05  2.21928e-03        00000 
 5.73290e-05  2.21803e-03        00000 
 1.90951e-05  2.21741e-03        00000 
-1.90951e-05  2.21741e-03        00000 
-5.73290e-05  2.21803e-03        00000 