<?xml version="1.0" encoding="utf-8"?>
<VTKFile byte_order="LittleEndian" type="UnstructuredGrid" version="0.1">
   <UnstructuredGrid>
      <Piece NumberOfCells="3364" NumberOfPoints="1741">
         <Points>
            <DataArray Name="Points" NumberOfComponents="3" format="ascii" type="Float32">
0.0000 1.0000 0.0000
0.0000 1.0345 0.0000
0.0000 1.0690 0.0000
0.0000 1.1034 0.0000
0.0000 1.1379 0.0000
0.0000 1.1724 0.0000
0.0000 1.2069 0.0000
0.0000 1.2414 0.0000
0.0000 1.2759 0.0000
0.0000 1.3103 0.0000
0.0000 1.3448 0.0000
0.0000 1.3793 0.0000
0.0000 1.4138 0.0000
0.0000 1.4483 0.0000
0.0000 1.4828 0.0000
0.0000 1.5172 0.0000
0.0000 1.5517 0.0000
0.0000 1.5862 0.0000
0.0000 1.6207 0.0000
0.0000 1.6552 0.0000
0.0000 1.6897 0.0000
0.0000 1.7241 0.0000
0.0000 1.7586 0.0000
0.0000 1.7931 0.0000
0.0000 1.8276 0.0000
0.0000 1.8621 0.0000
0.0000 1.8966 0.0000
0.0000 1.9310 0.0000
0.0000 1.9655 0.0000
0.0000 2.0000 0.0000
0.0690 1.0000 0.0000
0.0690 1.0345 0.0000
0.0690 1.0690 0.0000
0.0690 1.1034 0.0000
0.0690 1.1379 0.0000
0.0690 1.1724 0.0000
0.0690 1.2069 0.0000
0.0690 1.2414 0.0000
0.0690 1.2759 0.0000
0.0690 1.3103 0.0000
0.0690 1.3448 0.0000
0.0690 1.3793 0.0000
0.0690 1.4138 0.0000
0.0690 1.4483 0.0000
0.0690 1.4828 0.0000
0.0690 1.5172 0.0000
0.0690 1.5517 0.0000
0.0690 1.5862 0.0000
0.0690 1.6207 0.0000
0.0690 1.6552 0.0000
0.0690 1.6897 0.0000
0.0690 1.7241 0.0000
0.0690 1.7586 0.0000
0.0690 1.7931 0.0000
0.0690 1.8276 0.0000
0.0690 1.8621 0.0000
0.0690 1.8966 0.0000
0.0690 1.9310 0.0000
0.0690 1.9655 0.0000
0.0690 2.0000 0.0000
0.1379 1.0000 0.0000
0.1379 1.0345 0.0000
0.1379 1.0690 0.0000
0.1379 1.1034 0.0000
0.1379 1.1379 0.0000
0.1379 1.1724 0.0000
0.1379 1.2069 0.0000
0.1379 1.2414 0.0000
0.1379 1.2759 0.0000
0.1379 1.3103 0.0000
0.1379 1.3448 0.0000
0.1379 1.3793 0.0000
0.1379 1.4138 0.0000
0.1379 1.4483 0.0000
0.1379 1.4828 0.0000
0.1379 1.5172 0.0000
0.1379 1.5517 0.0000
0.1379 1.5862 0.0000
0.1379 1.6207 0.0000
0.1379 1.6552 0.0000
0.1379 1.6897 0.0000
0.1379 1.7241 0.0000
0.1379 1.7586 0.0000
0.1379 1.7931 0.0000
0.1379 1.8276 0.0000
0.1379 1.8621 0.0000
0.1379 1.8966 0.0000
0.1379 1.9310 0.0000
0.1379 1.9655 0.0000
0.1379 2.0000 0.0000
0.2069 1.0000 0.0000
0.2069 1.0345 0.0000
0.2069 1.0690 0.0000
0.2069 1.1034 0.0000
0.2069 1.1379 0.0000
0.2069 1.1724 0.0000
0.2069 1.2069 0.0000
0.2069 1.2414 0.0000
0.2069 1.2759 0.0000
0.2069 1.3103 0.0000
0.2069 1.3448 0.0000
0.2069 1.3793 0.0000
0.2069 1.4138 0.0000
0.2069 1.4483 0.0000
0.2069 1.4828 0.0000
0.2069 1.5172 0.0000
0.2069 1.5517 0.0000
0.2069 1.5862 0.0000
0.2069 1.6207 0.0000
0.2069 1.6552 0.0000
0.2069 1.6897 0.0000
0.2069 1.7241 0.0000
0.2069 1.7586 0.0000
0.2069 1.7931 0.0000
0.2069 1.8276 0.0000
0.2069 1.8621 0.0000
0.2069 1.8966 0.0000
0.2069 1.9310 0.0000
0.2069 1.9655 0.0000
0.2069 2.0000 0.0000
0.2759 1.0000 0.0000
0.2759 1.0345 0.0000
0.2759 1.0690 0.0000
0.2759 1.1034 0.0000
0.2759 1.1379 0.0000
0.2759 1.1724 0.0000
0.2759 1.2069 0.0000
0.2759 1.2414 0.0000
0.2759 1.2759 0.0000
0.2759 1.3103 0.0000
0.2759 1.3448 0.0000
0.2759 1.3793 0.0000
0.2759 1.4138 0.0000
0.2759 1.4483 0.0000
0.2759 1.4828 0.0000
0.2759 1.5172 0.0000
0.2759 1.5517 0.0000
0.2759 1.5862 0.0000
0.2759 1.6207 0.0000
0.2759 1.6552 0.0000
0.2759 1.6897 0.0000
0.2759 1.7241 0.0000
0.2759 1.7586 0.0000
0.2759 1.7931 0.0000
0.2759 1.8276 0.0000
0.2759 1.8621 0.0000
0.2759 1.8966 0.0000
0.2759 1.9310 0.0000
0.2759 1.9655 0.0000
0.2759 2.0000 0.0000
0.3448 1.0000 0.0000
0.3448 1.0345 0.0000
0.3448 1.0690 0.0000
0.3448 1.1034 0.0000
0.3448 1.1379 0.0000
0.3448 1.1724 0.0000
0.3448 1.2069 0.0000
0.3448 1.2414 0.0000
0.3448 1.2759 0.0000
0.3448 1.3103 0.0000
0.3448 1.3448 0.0000
0.3448 1.3793 0.0000
0.3448 1.4138 0.0000
0.3448 1.4483 0.0000
0.3448 1.4828 0.0000
0.3448 1.5172 0.0000
0.3448 1.5517 0.0000
0.3448 1.5862 0.0000
0.3448 1.6207 0.0000
0.3448 1.6552 0.0000
0.3448 1.6897 0.0000
0.3448 1.7241 0.0000
0.3448 1.7586 0.0000
0.3448 1.7931 0.0000
0.3448 1.8276 0.0000
0.3448 1.8621 0.0000
0.3448 1.8966 0.0000
0.3448 1.9310 0.0000
0.3448 1.9655 0.0000
0.3448 2.0000 0.0000
0.4138 1.0000 0.0000
0.4138 1.0345 0.0000
0.4138 1.0690 0.0000
0.4138 1.1034 0.0000
0.4138 1.1379 0.0000
0.4138 1.1724 0.0000
0.4138 1.2069 0.0000
0.4138 1.2414 0.0000
0.4138 1.2759 0.0000
0.4138 1.3103 0.0000
0.4138 1.3448 0.0000
0.4138 1.3793 0.0000
0.4138 1.4138 0.0000
0.4138 1.4483 0.0000
0.4138 1.4828 0.0000
0.4138 1.5172 0.0000
0.4138 1.5517 0.0000
0.4138 1.5862 0.0000
0.4138 1.6207 0.0000
0.4138 1.6552 0.0000
0.4138 1.6897 0.0000
0.4138 1.7241 0.0000
0.4138 1.7586 0.0000
0.4138 1.7931 0.0000
0.4138 1.8276 0.0000
0.4138 1.8621 0.0000
0.4138 1.8966 0.0000
0.4138 1.9310 0.0000
0.4138 1.9655 0.0000
0.4138 2.0000 0.0000
0.4828 1.0000 0.0000
0.4828 1.0345 0.0000
0.4828 1.0690 0.0000
0.4828 1.1034 0.0000
0.4828 1.1379 0.0000
0.4828 1.1724 0.0000
0.4828 1.2069 0.0000
0.4828 1.2414 0.0000
0.4828 1.2759 0.0000
0.4828 1.3103 0.0000
0.4828 1.3448 0.0000
0.4828 1.3793 0.0000
0.4828 1.4138 0.0000
0.4828 1.4483 0.0000
0.4828 1.4828 0.0000
0.4828 1.5172 0.0000
0.4828 1.5517 0.0000
0.4828 1.5862 0.0000
0.4828 1.6207 0.0000
0.4828 1.6552 0.0000
0.4828 1.6897 0.0000
0.4828 1.7241 0.0000
0.4828 1.7586 0.0000
0.4828 1.7931 0.0000
0.4828 1.8276 0.0000
0.4828 1.8621 0.0000
0.4828 1.8966 0.0000
0.4828 1.9310 0.0000
0.4828 1.9655 0.0000
0.4828 2.0000 0.0000
0.5517 1.0000 0.0000
0.5517 1.0345 0.0000
0.5517 1.0690 0.0000
0.5517 1.1034 0.0000
0.5517 1.1379 0.0000
0.5517 1.1724 0.0000
0.5517 1.2069 0.0000
0.5517 1.2414 0.0000
0.5517 1.2759 0.0000
0.5517 1.3103 0.0000
0.5517 1.3448 0.0000
0.5517 1.3793 0.0000
0.5517 1.4138 0.0000
0.5517 1.4483 0.0000
0.5517 1.4828 0.0000
0.5517 1.5172 0.0000
0.5517 1.5517 0.0000
0.5517 1.5862 0.0000
0.5517 1.6207 0.0000
0.5517 1.6552 0.0000
0.5517 1.6897 0.0000
0.5517 1.7241 0.0000
0.5517 1.7586 0.0000
0.5517 1.7931 0.0000
0.5517 1.8276 0.0000
0.5517 1.8621 0.0000
0.5517 1.8966 0.0000
0.5517 1.9310 0.0000
0.5517 1.9655 0.0000
0.5517 2.0000 0.0000
0.6207 1.0000 0.0000
0.6207 1.0345 0.0000
0.6207 1.0690 0.0000
0.6207 1.1034 0.0000
0.6207 1.1379 0.0000
0.6207 1.1724 0.0000
0.6207 1.2069 0.0000
0.6207 1.2414 0.0000
0.6207 1.2759 0.0000
0.6207 1.3103 0.0000
0.6207 1.3448 0.0000
0.6207 1.3793 0.0000
0.6207 1.4138 0.0000
0.6207 1.4483 0.0000
0.6207 1.4828 0.0000
0.6207 1.5172 0.0000
0.6207 1.5517 0.0000
0.6207 1.5862 0.0000
0.6207 1.6207 0.0000
0.6207 1.6552 0.0000
0.6207 1.6897 0.0000
0.6207 1.7241 0.0000
0.6207 1.7586 0.0000
0.6207 1.7931 0.0000
0.6207 1.8276 0.0000
0.6207 1.8621 0.0000
0.6207 1.8966 0.0000
0.6207 1.9310 0.0000
0.6207 1.9655 0.0000
0.6207 2.0000 0.0000
0.6897 1.0000 0.0000
0.6897 1.0345 0.0000
0.6897 1.0690 0.0000
0.6897 1.1034 0.0000
0.6897 1.1379 0.0000
0.6897 1.1724 0.0000
0.6897 1.2069 0.0000
0.6897 1.2414 0.0000
0.6897 1.2759 0.0000
0.6897 1.3103 0.0000
0.6897 1.3448 0.0000
0.6897 1.3793 0.0000
0.6897 1.4138 0.0000
0.6897 1.4483 0.0000
0.6897 1.4828 0.0000
0.6897 1.5172 0.0000
0.6897 1.5517 0.0000
0.6897 1.5862 0.0000
0.6897 1.6207 0.0000
0.6897 1.6552 0.0000
0.6897 1.6897 0.0000
0.6897 1.7241 0.0000
0.6897 1.7586 0.0000
0.6897 1.7931 0.0000
0.6897 1.8276 0.0000
0.6897 1.8621 0.0000
0.6897 1.8966 0.0000
0.6897 1.9310 0.0000
0.6897 1.9655 0.0000
0.6897 2.0000 0.0000
0.7586 1.0000 0.0000
0.7586 1.0345 0.0000
0.7586 1.0690 0.0000
0.7586 1.1034 0.0000
0.7586 1.1379 0.0000
0.7586 1.1724 0.0000
0.7586 1.2069 0.0000
0.7586 1.2414 0.0000
0.7586 1.2759 0.0000
0.7586 1.3103 0.0000
0.7586 1.3448 0.0000
0.7586 1.3793 0.0000
0.7586 1.4138 0.0000
0.7586 1.4483 0.0000
0.7586 1.4828 0.0000
0.7586 1.5172 0.0000
0.7586 1.5517 0.0000
0.7586 1.5862 0.0000
0.7586 1.6207 0.0000
0.7586 1.6552 0.0000
0.7586 1.6897 0.0000
0.7586 1.7241 0.0000
0.7586 1.7586 0.0000
0.7586 1.7931 0.0000
0.7586 1.8276 0.0000
0.7586 1.8621 0.0000
0.7586 1.8966 0.0000
0.7586 1.9310 0.0000
0.7586 1.9655 0.0000
0.7586 2.0000 0.0000
0.8276 1.0000 0.0000
0.8276 1.0345 0.0000
0.8276 1.0690 0.0000
0.8276 1.1034 0.0000
0.8276 1.1379 0.0000
0.8276 1.1724 0.0000
0.8276 1.2069 0.0000
0.8276 1.2414 0.0000
0.8276 1.2759 0.0000
0.8276 1.3103 0.0000
0.8276 1.3448 0.0000
0.8276 1.3793 0.0000
0.8276 1.4138 0.0000
0.8276 1.4483 0.0000
0.8276 1.4828 0.0000
0.8276 1.5172 0.0000
0.8276 1.5517 0.0000
0.8276 1.5862 0.0000
0.8276 1.6207 0.0000
0.8276 1.6552 0.0000
0.8276 1.6897 0.0000
0.8276 1.7241 0.0000
0.8276 1.7586 0.0000
0.8276 1.7931 0.0000
0.8276 1.8276 0.0000
0.8276 1.8621 0.0000
0.8276 1.8966 0.0000
0.8276 1.9310 0.0000
0.8276 1.9655 0.0000
0.8276 2.0000 0.0000
0.8966 1.0000 0.0000
0.8966 1.0345 0.0000
0.8966 1.0690 0.0000
0.8966 1.1034 0.0000
0.8966 1.1379 0.0000
0.8966 1.1724 0.0000
0.8966 1.2069 0.0000
0.8966 1.2414 0.0000
0.8966 1.2759 0.0000
0.8966 1.3103 0.0000
0.8966 1.3448 0.0000
0.8966 1.3793 0.0000
0.8966 1.4138 0.0000
0.8966 1.4483 0.0000
0.8966 1.4828 0.0000
0.8966 1.5172 0.0000
0.8966 1.5517 0.0000
0.8966 1.5862 0.0000
0.8966 1.6207 0.0000
0.8966 1.6552 0.0000
0.8966 1.6897 0.0000
0.8966 1.7241 0.0000
0.8966 1.7586 0.0000
0.8966 1.7931 0.0000
0.8966 1.8276 0.0000
0.8966 1.8621 0.0000
0.8966 1.8966 0.0000
0.8966 1.9310 0.0000
0.8966 1.9655 0.0000
0.8966 2.0000 0.0000
0.9655 1.0000 0.0000
0.9655 1.0345 0.0000
0.9655 1.0690 0.0000
0.9655 1.1034 0.0000
0.9655 1.1379 0.0000
0.9655 1.1724 0.0000
0.9655 1.2069 0.0000
0.9655 1.2414 0.0000
0.9655 1.2759 0.0000
0.9655 1.3103 0.0000
0.9655 1.3448 0.0000
0.9655 1.3793 0.0000
0.9655 1.4138 0.0000
0.9655 1.4483 0.0000
0.9655 1.4828 0.0000
0.9655 1.5172 0.0000
0.9655 1.5517 0.0000
0.9655 1.5862 0.0000
0.9655 1.6207 0.0000
0.9655 1.6552 0.0000
0.9655 1.6897 0.0000
0.9655 1.7241 0.0000
0.9655 1.7586 0.0000
0.9655 1.7931 0.0000
0.9655 1.8276 0.0000
0.9655 1.8621 0.0000
0.9655 1.8966 0.0000
0.9655 1.9310 0.0000
0.9655 1.9655 0.0000
0.9655 2.0000 0.0000
1.0345 1.0000 0.0000
1.0345 1.0345 0.0000
1.0345 1.0690 0.0000
1.0345 1.1034 0.0000
1.0345 1.1379 0.0000
1.0345 1.1724 0.0000
1.0345 1.2069 0.0000
1.0345 1.2414 0.0000
1.0345 1.2759 0.0000
1.0345 1.3103 0.0000
1.0345 1.3448 0.0000
[...]
         <PointData>
            <DataArray Name="fValues" NumberOfComponents="3" format="ascii" type="Float64">
-1.38932e-21  2.95830e-21        00000 
 1.79669e-21 -4.31206e-21        00000 
-1.77670e-22  3.19807e-21        00000 
-3.18102e-22 -2.12068e-22        00000 
       00000  2.30971e-21        00000 
-2.67493e-23 -1.35016e-21        00000 
 7.10681e-22  1.06602e-21        00000 
-5.02267e-22 -2.44437e-21        00000 
       00000  3.46457e-21        00000 
 7.73625e-23 -3.93884e-21        00000 
-4.88593e-22  1.24369e-21        00000 
 2.46948e-22 -1.84723e-21        00000 
-9.99396e-23  1.15486e-21        00000 
 4.31605e-22  1.57489e-22        00000 
-1.88775e-22 -9.77187e-22        00000 
-6.97593e-25  1.28357e-21        00000 
-4.44176e-23        00000        00000 
-1.86274e-22  1.95384e-21        00000 
-5.99637e-22  7.99517e-22        00000 
 3.18102e-22 -3.24799e-21        00000 
-6.21846e-22  1.59903e-21        00000 
 1.24095e-21  9.30811e-22        00000 
       00000  8.88352e-22        00000 
-2.51133e-22  1.03802e-21        00000 
 3.55341e-22 -1.06602e-21        00000 
-1.08868e-22  3.21527e-21        00000 
 6.21846e-22 -2.30971e-21        00000 
-1.37542e-21  2.61666e-21        00000 
 1.38876e-21 -3.67348e-21        00000 
-1.75740e-21  4.67894e-21        00000 
 1.17139e-05  2.07628e-05        00000 
 1.69206e-05  3.17836e-05        00000 
 1.38304e-05  2.54797e-05        00000 
 1.17483e-05  2.12088e-05        00000 
 1.01392e-05  1.81679e-05        00000 
 8.79480e-06  1.59250e-05        00000 
 7.61582e-06  1.42302e-05        00000 
 6.54795e-06  1.29295e-05        00000 
 5.55848e-06  1.19237e-05        00000 
 4.62607e-06  1.11463e-05        00000 
 3.73581e-06  1.05513e-05        00000 
 2.87661e-06  1.01068e-05        00000 
 2.03978e-06  9.79048e-06        00000 
 1.21804e-06  9.58728e-06        00000 
 4.05060e-07  9.48791e-06        00000 
-4.05060e-07  9.48791e-06        00000 
-1.21804e-06  9.58728e-06        00000 
-2.03978e-06  9.79048e-06        00000 
-2.87661e-06  1.01068e-05        00000 
-3.73581e-06  1.05513e-05        00000 
-4.62607e-06  1.11463e-05        00000 
-5.55848e-06  1.19237e-05        00000 
-6.54795e-06  1.29295e-05        00000 
-7.61582e-06  1.42302e-05        00000 
-8.79480e-06  1.59250e-05        00000 
-1.01392e-05  1.81679e-05        00000 
-1.17483e-05  2.12088e-05        00000 
-1.38304e-05  2.54797e-05        00000 
-1.69206e-05  3.17836e-05        00000 
-1.17139e-05  2.07628e-05        00000 
 2.04666e-05  3.43350e-05        00000 
 3.45740e-05  6.13562e-05        00000 
 2.91734e-05  5.41580e-05        00000 
 2.49792e-05  4.81097e-05        00000 
 2.15619e-05  4.32158e-05        00000 
 1.86574e-05  3.92931e-05        00000 
 1.61051e-05  3.61551e-05        00000 
 1.38031e-05  3.36472e-05        00000 
 1.16837e-05  3.16495e-05        00000 
 9.69990e-06  3.00705e-05        00000 
 7.81736e-06  2.88415e-05        00000 
 6.00988e-06  2.79115e-05        00000 
 4.25653e-06  2.72435e-05        00000 
 2.53981e-06  2.68117e-05        00000 
 8.44288e-07  2.65997e-05        00000 
-8.44288e-07  2.65997e-05        00000 
-2.53981e-06  2.68117e-05        00000 
-4.25653e-06  2.72435e-05        00000 
-6.00988e-06  2.79115e-05        00000 
-7.81736e-06  2.88415e-05        00000 
-9.69990e-06  3.00705e-05        00000 
-1.16837e-05  3.16495e-05        00000 
-1.38031e-05  3.36472e-05        00000 
-1.61051e-05  3.61551e-05        00000 
-1.86574e-05  3.92931e-05        00000 
-2.15619e-05  4.32158e-05        00000 
-2.49792e-05  4.81097e-05        00000 
-2.91734e-05  5.41580e-05        00000 
-3.45740e-05  6.13562e-05        00000 
-2.04666e-05  3.43350e-05        00000 
 2.84653e-05  4.84828e-05        00000 
 5.00407e-05  8.99458e-05        00000 
 4.37928e-05  8.33759e-05        00000 
 3.82179e-05  7.73111e-05        00000 
 3.33184e-05  7.19541e-05        00000 
 2.89753e-05  6.73504e-05        00000 
 2.50702e-05  6.34616e-05        00000 
 2.15058e-05  6.02190e-05        00000 
 1.82057e-05  5.75485e-05        00000 
 1.51104e-05  5.53820e-05        00000 
 1.21726e-05  5.36612e-05        00000 
 9.35388e-06  5.23386e-05        00000 
 6.62238e-06  5.13775e-05        00000 
 3.95036e-06  5.07512e-05        00000 
 1.31300e-06  5.04424e-05        00000 
-1.31300e-06  5.04424e-05        00000 
-3.95036e-06  5.07512e-05        00000 
-6.62238e-06  5.13775e-05        00000 
-9.35388e-06  5.23386e-05        00000 
-1.21726e-05  5.36612e-05        00000 
-1.51104e-05  5.53820e-05        00000 
-1.82057e-05  5.75485e-05        00000 
-2.15058e-05  6.02190e-05        00000 
-2.50702e-05  6.34616e-05        00000 
-2.89753e-05  6.73504e-05        00000 
-3.33184e-05  7.19541e-05        00000 
-3.82179e-05  7.73111e-05        00000 
-4.37928e-05  8.33759e-05        00000 
-5.00407e-05  8.99458e-05        00000 
-2.84653e-05  4.84828e-05        00000 
 3.60333e-05  6.37766e-05        00000 
 6.44239e-05  1.20978e-04        00000 
 5.73061e-05  1.14779e-04        00000 
 5.07342e-05  1.09033e-04        00000 
 4.46926e-05  1.03789e-04        00000 
 3.91468e-05  9.91041e-05        00000 
 3.40355e-05  9.49978e-05        00000 
 2.92909e-05  9.14610e-05        00000 
 2.48491e-05  8.84671e-05        00000 
 2.06529e-05  8.59822e-05        00000 
 1.66523e-05  8.39716e-05        00000 
 1.28034e-05  8.24037e-05        00000 
 9.06760e-06  8.12518e-05        00000 
 5.41000e-06  8.04954e-05        00000 
 1.79829e-06  8.01206e-05        00000 
-1.79829e-06  8.01206e-05        00000 
-5.41000e-06  8.04954e-05        00000 
-9.06760e-06  8.12518e-05        00000 
-1.28034e-05  8.24037e-05        00000 
-1.66523e-05  8.39716e-05        00000 
-2.06529e-05  8.59822e-05        00000 
-2.48491e-05  8.84671e-05        00000 
-2.92909e-05  9.14610e-05        00000 
-3.40355e-05  9.49978e-05        00000 
-3.91468e-05  9.91041e-05        00000 
-4.46926e-05  1.03789e-04        00000 
-5.07342e-05  1.09033e-04        00000 
-5.73061e-05  1.14779e-04        00000 
-6.44239e-05  1.20978e-04        00000 
-3.60333e-05  6.37766e-05        00000 
 4.31927e-05  8.06748e-05        00000 
 7.79218e-05  1.55141e-04        00000 
 6.99464e-05  1.49316e-04        00000 
 6.24561e-05  1.43893e-04        00000 
 5.54371e-05  1.38904e-04        00000 
 4.88610e-05  1.34375e-04        00000 
 4.26899e-05  1.30328e-04        00000 
 3.68776e-05  1.26772e-04        00000 
 3.13748e-05  1.23705e-04        00000 
 2.61323e-05  1.21117e-04        00000 
 2.11033e-05  1.18993e-04        00000 
 1.62439e-05  1.17317e-04        00000 
 1.15131e-05  1.16075e-04        00000 
 6.87237e-06  1.15254e-04        00000 
 2.28491e-06  1.14846e-04        00000 
-2.28491e-06  1.14846e-04        00000 
-6.87237e-06  1.15254e-04        00000 
-1.15131e-05  1.16075e-04        00000 
-1.62439e-05  1.17317e-04        00000 
-2.11033e-05  1.18993e-04        00000 
-2.61323e-05  1.21117e-04        00000 
-3.13748e-05  1.23705e-04        00000 
-3.68776e-05  1.26772e-04        00000 
-4.26899e-05  1.30328e-04        00000 
-4.88610e-05  1.34375e-04        00000 
-5.54371e-05  1.38904e-04        00000 
-6.24561e-05  1.43893e-04        00000 
-6.99464e-05  1.49316e-04        00000 
-7.79218e-05  1.55141e-04        00000 
-4.31927e-05  8.06748e-05        00000 
 4.99516e-05  9.92629e-05        00000 
 9.06074e-05  1.92687e-04        00000 
 8.17894e-05  1.87217e-04        00000 
 7.34328e-05  1.82125e-04        00000 
 6.55160e-05  1.77425e-04        00000 
 5.80123e-05  1.73133e-04        00000 
 5.08887e-05  1.69264e-04        00000 
 4.41080e-05  1.65828e-04        00000 
 3.76294e-05  1.62833e-04        00000 
 3.14107e-05  1.60278e-04        00000 
 2.54094e-05  1.58161e-04        00000 
 1.95838e-05  1.56477e-04        00000 
 1.38932e-05  1.55221e-04        00000 
 8.29804e-06  1.54387e-04        00000 
 2.75972e-06  1.53971e-04        00000 
-2.75972e-06  1.53971e-04        00000 
-8.29804e-06  1.54387e-04        00000 
-1.38932e-05  1.55221e-04        00000 
-1.95838e-05  1.56477e-04        00000 
-2.54094e-05  1.58161e-04        00000 
-3.14107e-05  1.60278e-04        00000 
-3.76294e-05  1.62833e-04        00000 
-4.41080e-05  1.65828e-04        00000 
-5.08887e-05  1.69264e-04        00000 
-5.80123e-05  1.73133e-04        00000 
-6.55160e-05  1.77425e-04        00000 
-7.34328e-05  1.82125e-04        00000 
-8.17894e-05  1.87217e-04        00000 
-9.06074e-05  1.92687e-04        00000 
-4.99516e-05  9.92629e-05        00000 
 5.63024e-05  1.19534e-04        00000 
 1.02500e-04  2.33598e-04        00000 
 9.28712e-05  2.28480e-04        00000 
 8.36927e-05  2.23716e-04        00000 
 7.49380e-05  2.19315e-04        00000 
 6.65779e-05  2.15287e-04        00000 
 5.85807e-05  2.11641e-04        00000 
 5.09117e-05  2.08389e-04        00000 
 4.35341e-05  2.05536e-04        00000 
 3.64098e-05  2.03089e-04        00000 
 2.94995e-05  2.01050e-04        00000 
 2.27639e-05  1.99419e-04        00000 
 1.61637e-05  1.98198e-04        00000 
 9.65978e-06  1.97384e-04        00000 
 3.21353e-06  1.96978e-04        00000 
-3.21353e-06  1.96978e-04        00000 
-9.65978e-06  1.97384e-04        00000 
-1.61637e-05  1.98198e-04        00000 
-2.27639e-05  1.99419e-04        00000 
-2.94995e-05  2.01050e-04        00000 
-3.64098e-05  2.03089e-04        00000 
-4.35341e-05  2.05536e-04        00000 
-5.09117e-05  2.08389e-04        00000 
-5.85807e-05  2.11641e-04        00000 
-6.65779e-05  2.15287e-04        00000 
-7.49380e-05  2.19315e-04        00000 
-8.36927e-05  2.23716e-04        00000 
-9.28712e-05  2.28480e-04        00000 
-1.02500e-04  2.33598e-04        00000 
-5.63024e-05  1.19534e-04        00000 
 6.22379e-05  1.41418e-04        00000 
 1.13604e-04  2.77738e-04        00000 
 1.03207e-04  2.72969e-04        00000 
 9.32547e-05  2.68531e-04        00000 
 8.37161e-05  2.64430e-04        00000 
 7.45601e-05  2.60672e-04        00000 
 6.57543e-05  2.57266e-04        00000 
 5.72648e-05  2.54220e-04        00000 
 4.90565e-05  2.51542e-04        00000 
 4.10930e-05  2.49237e-04        00000 
 3.33375e-05  2.47311e-04        00000 
 2.57524e-05  2.45766e-04        00000 
 1.82999e-05  2.44606e-04        00000 
 1.09421e-05  2.43833e-04        00000 
 3.64104e-06  2.43445e-04        00000 
-3.64104e-06  2.43445e-04        00000 
-1.09421e-05  2.43833e-04        00000 
-1.82999e-05  2.44606e-04        00000 
-2.57524e-05  2.45766e-04        00000 
-3.33375e-05  2.47311e-04        00000 
-4.10930e-05  2.49237e-04        00000 
-4.90565e-05  2.51542e-04        00000 
-5.72648e-05  2.54220e-04        00000 
-6.57543e-05  2.57266e-04        00000 
-7.45601e-05  2.60672e-04        00000 
-8.37161e-05  2.64430e-04        00000 
-9.32547e-05  2.68531e-04        00000 
-1.03207e-04  2.72969e-04        00000 
-1.13604e-04  2.77738e-04        00000 
-6.22379e-05  1.41418e-04        00000 
 6.77534e-05  1.64815e-04        00000 
 1.23921e-04  3.24906e-04        00000 
 1.12807e-04  3.20484e-04        00000 
 1.02132e-04  3.16368e-04        00000 
 9.18633e-05  3.12562e-04        00000 
 8.19683e-05  3.09074e-04        00000 
 7.24135e-05  3.05910e-04        00000 
 6.31651e-05  3.03078e-04        00000 
 5.41885e-05  3.00584e-04        00000 
 4.54487e-05  2.98435e-04        00000 
 3.69100e-05  2.96636e-04        00000 
 2.85362e-05  2.95191e-04        00000 
 2.02911e-05  2.94105e-04        00000 
 1.21378e-05  2.93380e-04        00000 
 4.03981e-06  2.93017e-04        00000 
-4.03981e-06  2.93017e-04        00000 
-1.21378e-05  2.93380e-04        00000 
-2.02911e-05  2.94105e-04        00000 
-2.85362e-05  2.95191e-04        00000 
-3.69100e-05  2.96636e-04        00000 
-4.54487e-05  2.98435e-04        00000 
-5.41885e-05  3.00584e-04        00000 
-6.31651e-05  3.03078e-04        00000 
-7.24135e-05  3.05910e-04        00000 
-8.19683e-05  3.09074e-04        00000 
-9.18633e-05  3.12562e-04        00000 
-1.02132e-04  3.16368e-04        00000 
-1.12807e-04  3.20484e-04        00000 
-1.23921e-04  3.24906e-04        00000 
-6.77534e-05  1.64815e-04        00000 
 7.28473e-05  1.89607e-04        00000 
 1.33452e-04  3.74863e-04        00000 
 1.21677e-04  3.70785e-04        00000 
 1.10335e-04  3.66986e-04        00000 
 9.93923e-05  3.63472e-04        00000 
 8.88145e-05  3.60249e-04        00000 
 7.85681e-05  3.57324e-04        00000 
 6.86193e-05  3.54703e-04        00000 
 5.89339e-05  3.52394e-04        00000 
 4.94776e-05  3.50403e-04        00000 
 4.02157e-05  3.48735e-04        00000 
 3.11132e-05  3.47395e-04        00000 
 2.21348e-05  3.46386e-04        00000 
 1.32453e-05  3.45712e-04        00000 
 4.40918e-06  3.45375e-04        00000 
-4.40918e-06  3.45375e-04        00000 
-1.32453e-05  3.45712e-04        00000 
-2.21348e-05  3.46386e-04        00000 
-3.11132e-05  3.47395e-04        00000 
-4.02157e-05  3.48735e-04        00000 
-4.94776e-05  3.50403e-04        00000 
-5.89339e-05  3.52394e-04        00000 
-6.86193e-05  3.54703e-04        00000 
-7.85681e-05  3.57324e-04        00000 
-8.88145e-05  3.60249e-04        00000 
-9.93923e-05  3.63472e-04        00000 
-1.10335e-04  3.66986e-04        00000 
-1.21677e-04  3.70785e-04        00000 
-1.33452e-04  3.74863e-04        00000 
-7.28473e-05  1.89607e-04        00000 
 7.75214e-05  2.15670e-04        00000 
 1.42205e-04  4.27357e-04        00000 
 1.29828e-04  4.23619e-04        00000 
 1.17877e-04  4.20131e-04        00000 
 1.06316e-04  4.16902e-04        00000 
 9.51117e-05  4.13937e-04        00000 
 8.42304e-05  4.11244e-04        00000 
 7.36382e-05  4.08831e-04        00000 
 6.33016e-05  4.06703e-04        00000 
 5.31866e-05  4.04867e-04        00000 
 4.32596e-05  4.03327e-04        00000 
 3.34865e-05  4.02090e-04        00000 
 2.38332e-05  4.01159e-04        00000 
 1.42656e-05  4.00536e-04        00000 
 4.74949e-06  4.00225e-04        00000 
-4.74949e-06  4.00225e-04        00000 
-1.42656e-05  4.00536e-04        00000 
-2.38332e-05  4.01159e-04        00000 
-3.34865e-05  4.02090e-04        00000 
-4.32596e-05  4.03327e-04        00000 
-5.31866e-05  4.04867e-04        00000 
-6.33016e-05  4.06703e-04        00000 
-7.36382e-05  4.08831e-04        00000 
-8.42304e-05  4.11244e-04        00000 
-9.51117e-05  4.13937e-04        00000 
-1.06316e-04  4.16902e-04        00000 
-1.17877e-04  4.20131e-04        00000 
-1.29828e-04  4.23619e-04        00000 
-1.42205e-04  4.27357e-04        00000 
-7.75214e-05  2.15670e-04        00000 
 8.17803e-05  2.42873e-04        00000 
 1.50191e-04  4.82126e-04        00000 
 1.37272e-04  4.78721e-04        00000 
 1.24769e-04  4.75538e-04        00000 
 1.12647e-04  4.72586e-04        00000 
 1.00874e-04  4.69873e-04        00000 
 8.94136e-05  4.67406e-04        00000 
 7.82342e-05  4.65192e-04        00000 
 6.73024e-05  4.63239e-04        00000 
 5.65850e-05  4.61553e-04        00000 
 4.60492e-05  4.60139e-04        00000 
 3.56619e-05  4.59001e-04        00000 
 2.53902e-05  4.58145e-04        00000 
 1.52011e-05  4.57572e-04        00000 
 5.06152e-06  4.57286e-04        00000 
-5.06152e-06  4.57286e-04        00000 
-1.52011e-05  4.57572e-04        00000 
-2.53902e-05  4.58145e-04        00000 
-3.56619e-05  4.59001e-04        00000 
-4.60492e-05  4.60139e-04        00000 
-5.65850e-05  4.61553e-04        00000 
-6.73024e-05  4.63239e-04        00000 
-7.82342e-05  4.65192e-04        00000 
-8.94136e-05  4.67406e-04        00000 
-1.00874e-04  4.69873e-04        00000 
-1.12647e-04  4.72586e-04        00000 
-1.24769e-04  4.75538e-04        00000 
-1.37272e-04  4.78721e-04        00000 
-1.50191e-04  4.82126e-04        00000 
-8.17803e-05  2.42873e-04        00000 
 8.56312e-05  2.71086e-04        00000 
 1.57423e-04  5.38907e-04        00000 
 1.44022e-04  5.35827e-04        00000 
 1.31027e-04  5.32941e-04        00000 
 1.18402e-04  5.30259e-04        00000 
 1.06115e-04  5.27789e-04        00000 
 9.41319e-05  5.25540e-04        00000 
 8.24204e-05  5.23519e-04        00000 
 7.09482e-05  5.21734e-04        00000 
 5.96831e-05  5.20192e-04        00000 
 4.85931e-05  5.18898e-04        00000 
 3.76463e-05  5.17856e-04        00000 
 2.68107e-05  5.17072e-04        00000 
 1.60546e-05  5.16547e-04        00000 
 5.34625e-06  5.16284e-04        00000 
-5.34625e-06  5.16284e-04        00000 
-1.60546e-05  5.16547e-04        00000 
-2.68107e-05  5.17072e-04        00000 
-3.76463e-05  5.17856e-04        00000 
-4.85931e-05  5.18898e-04        00000 
-5.96831e-05  5.20192e-04        00000 
-7.09482e-05  5.21734e-04        00000 
-8.24204e-05  5.23519e-04        00000 
-9.41319e-05  5.25540e-04        00000 
-1.06115e-04  5.27789e-04        00000 
-1.18402e-04  5.30259e-04        00000 
-1.31027e-04  5.32941e-04        00000 
-1.44022e-04  5.35827e-04        00000 
-1.57423e-04  5.38907e-04        00000 
-8.56312e-05  2.71086e-04        00000 
 8.90835e-05  3.00178e-04        00000 
 1.63920e-04  5.97439e-04        00000 
 1.50098e-04  5.94675e-04        00000 
 1.36668e-04  5.92077e-04        00000 
 1.23597e-04  5.89655e-04        00000 
 1.10852e-04  5.87420e-04        00000 
 9.84002e-05  5.85381e-04        00000 
 8.62107e-05  5.83546e-04        00000 
 7.42516e-05  5.81922e-04        00000 
 6.24919e-05  5.80518e-04        00000 
 5.09006e-05  5.79338e-04        00000 
 3.94468e-05  5.78388e-04        00000 
 2.81000e-05  5.77671e-04        00000 
 1.68295e-05  5.77192e-04        00000 
 5.60475e-06  5.76952e-04        00000 
-5.60475e-06  5.76952e-04        00000 
-1.68295e-05  5.77192e-04        00000 
-2.81000e-05  5.77671e-04        00000 
-3.94468e-05  5.78388e-04        00000 
-5.09006e-05  5.79338e-04        00000 
-6.24919e-05  5.80518e-04        00000 
-7.42516e-05  5.81922e-04        00000 
-8.62107e-05  5.83546e-04        00000 
-9.84002e-05  5.85381e-04        00000 
-1.10852e-04  5.87420e-04        00000 
-1.23597e-04  5.89655e-04        00000 
-1.36668e-04  5.92077e-04        00000 
-1.50098e-04  5.94675e-04        00000 
-1.63920e-04  5.97439e-04        00000 
-8.90835e-05  3.00178e-04        00000 
 9.21486e-05  3.30024e-04        00000 
 1.69703e-04  6.57464e-04        00000 
 1.55519e-04  6.55006e-04        00000 
 1.41712e-04  6.52686e-04        00000 
 1.28250e-04  6.50516e-04        00000 
 1.15101e-04  6.48506e-04        00000 
 1.02235e-04  6.46668e-04        00000 
 8.96195e-05  6.45010e-04        00000 
 7.72255e-05  6.43541e-04        00000 
 6.50225e-05  6.42268e-04        00000 
 5.29809e-05  6.41197e-04        00000 
 4.10710e-05  6.40334e-04        00000 
 2.92634e-05  6.39682e-04        00000 
 1.75289e-05  6.39247e-04        00000 
 5.83810e-06  6.39028e-04        00000 
-5.83810e-06  6.39028e-04        00000 
-1.75289e-05  6.39247e-04        00000 
-2.92634e-05  6.39682e-04        00000 
-4.10710e-05  6.40334e-04        00000 
-5.29809e-05  6.41197e-04        00000 
-6.50225e-05  6.42268e-04        00000 
-7.72255e-05  6.43541e-04        00000 
-8.96195e-05  6.45010e-04        00000 
-1.02235e-04  6.46668e-04        00000 
-1.15101e-04  6.48506e-04        00000 
-1.28250e-04  6.50516e-04        00000 
-1.41712e-04  6.52686e-04        00000 
-1.55519e-04  6.55006e-04        00000 
-1.69703e-04  6.57464e-04        00000 
-9.21486e-05  3.30024e-04        00000 
 9.48398e-05  3.60497e-04        00000 
 1.74798e-04  7.18733e-04        00000 
 1.60309e-04  7.16568e-04        00000 
 1.46180e-04  7.14515e-04        00000 
 1.32382e-04  7.12585e-04        00000 
 1.18882e-04  7.10792e-04        00000 
 1.05652e-04  7.09146e-04        00000 
 9.26626e-05  7.07657e-04        00000 
 7.98836e-05  7.06335e-04        00000 
 6.72869e-05  7.05187e-04        00000 
 5.48439e-05  7.04219e-04        00000 
 4.25265e-05  7.03439e-04        00000 
 3.03065e-05  7.02849e-04        00000 
 1.81561e-05  7.02454e-04        00000 
 6.04741e-06  7.02256e-04        00000 
-6.04741e-06  7.02256e-04        00000 
-1.81561e-05  7.02454e-04        00000 