<?xml version="1.0" encoding="utf-8"?>
<VTKFile byte_order="LittleEndian" type="UnstructuredGrid" version="0.1">
   <UnstructuredGrid>
      <Piece NumberOfCells="3364" NumberOfPoints="1741">
         <Points>
            <DataArray Name="Points" NumberOfComponents="3" format="ascii" type="Float32">
0.0000 1.0000 0.0000
0.0000 1.0345 0.0000
0.0000 1.0690 0.0000
0.0000 1.1034 0.0000
0.0000 1.1379 0.0000
0.0000 1.1724 0.0000
0.0000 1.2069 0.0000
0.0000 1.2414 0.0000
0.0000 1.2759 0.0000
0.0000 1.3103 0.0000
0.0000 1.3448 0.0000
0.0000 1.3793 0.0000
0.0000 1.4138 0.0000
0.0000 1.4483 0.0000
0.0000 1.4828 0.0000
0.0000 1.5172 0.0000
0.0000 1.5517 0.0000
0.0000 1.5862 0.0000
0.0000 1.6207 0.0000
0.0000 1.6552 0.0000
0.0000 1.6897 0.0000
0.0000 1.7241 0.0000
0.0000 1.7586 0.0000
0.0000 1.7931 0.0000
0.0000 1.8276 0.0000
0.0000 1.8621 0.0000
0.0000 1.8966 0.0000
0.0000 1.9310 0.0000
0.0000 1.9655 0.0000
0.0000 2.0000 0.0000
0.0690 1.0000 0.0000
0.0690 1.0345 0.0000
0.0690 1.0690 0.0000
0.0690 1.1034 0.0000
0.0690 1.1379 0.0000
0.0690 1.1724 0.0000
0.0690 1.2069 0.0000
0.0690 1.2414 0.0000
0.0690 1.2759 0.0000
0.0690 1.3103 0.0000
0.0690 1.3448 0.0000
0.0690 1.3793 0.0000
0.0690 1.4138 0.0000
0.0690 1.4483 0.0000
0.0690 1.4828 0.0000
0.0690 1.5172 0.0000
0.0690 1.5517 0.0000
0.0690 1.5862 0.0000
0.0690 1.6207 0.0000
0.0690 1.6552 0.0000
0.0690 1.6897 0.0000
0.0690 1.7241 0.0000
0.0690 1.7586 0.0000
0.0690 1.7931 0.0000
0.0690 1.8276 0.0000
0.0690 1.8621 0.0000
0.0690 1.8966 0.0000
0.0690 1.9310 0.0000
0.0690 1.9655 0.0000
0.0690 2.0000 0.0000
0.1379 1.0000 0.0000
0.1379 1.0345 0.0000
0.1379 1.0690 0.0000
0.1379 1.1034 0.0000
0.1379 1.1379 0.0000
0.1379 1.1724 0.0000
0.1379 1.2069 0.0000
0.1379 1.2414 0.0000
0.1379 1.2759 0.0000
0.1379 1.3103 0.0000
0.1379 1.3448 0.0000
0.1379 1.3793 0.0000
0.1379 1.4138 0.0000
0.1379 1.4483 0.0000
0.1379 1.4828 0.0000
0.1379 1.5172 0.0000
0.1379 1.5517 0.0000
0.1379 1.5862 0.0000
0.1379 1.6207 0.0000
0.1379 1.6552 0.0000
0.1379 1.6897 0.0000
0.1379 1.7241 0.0000
0.1379 1.7586 0.0000
0.1379 1.7931 0.0000
0.1379 1.8276 0.0000
0.1379 1.8621 0.0000
0.1379 1.8966 0.0000
0.1379 1.9310 0.0000
0.1379 1.9655 0.0000
0.1379 2.0000 0.0000
0.2069 1.0000 0.0000
0.2069 1.0345 0.0000
0.2069 1.0690 0.0000
0.2069 1.1034 0.0000
0.2069 1.1379 0.0000
0.2069 1.1724 0.0000
0.2069 1.2069 0.0000
0.2069 1.2414 0.0000
0.2069 1.2759 0.0000
0.2069 1.3103 0.0000
0.2069 1.3448 0.0000
0.2069 1.3793 0.0000
0.2069 1.4138 0.0000
0.2069 1.4483 0.0000
0.2069 1.4828 0.0000
0.2069 1.5172 0.0000
0.2069 1.5517 0.0000
0.2069 1.5862 0.0000
0.2069 1.6207 0.0000
0.2069 1.6552 0.0000
0.2069 1.6897 0.0000
0.2069 1.7241 0.0000
0.2069 1.7586 0.0000
0.2069 1.7931 0.0000
0.2069 1.8276 0.0000
0.2069 1.8621 0.0000
0.2069 1.8966 0.0000
0.2069 1.9310 0.0000
0.2069 1.9655 0.0000
0.2069 2.0000 0.0000
0.2759 1.0000 0.0000
0.2759 1.0345 0.0000
0.2759 1.0690 0.0000
0.2759 1.1034 0.0000
0.2759 1.1379 0.0000
0.2759 1.1724 0.0000
0.2759 1.2069 0.0000
0.2759 1.2414 0.0000
0.2759 1.2759 0.0000
0.2759 1.3103 0.0000
0.2759 1.3448 0.0000
0.2759 1.3793 0.0000
0.2759 1.4138 0.0000
0.2759 1.4483 0.0000
0.2759 1.4828 0.0000
0.2759 1.5172 0.0000
0.2759 1.5517 0.0000
0.2759 1.5862 0.0000
0.2759 1.6207 0.0000
0.2759 1.6552 0.0000
0.2759 1.6897 0.0000
0.2759 1.7241 0.0000
0.2759 1.7586 0.0000
0.2759 1.7931 0.0000
0.2759 1.8276 0.0000
0.2759 1.8621 0.0000
0.2759 1.8966 0.0000
0.2759 1.9310 0.0000
0.2759 1.9655 0.0000
0.2759 2.0000 0.0000
0.3448 1.0000 0.0000
0.3448 1.0345 0.0000
0.3448 1.0690 0.0000
0.3448 1.1034 0.0000
0.3448 1.1379 0.0000
0.3448 1.1724 0.0000
0.3448 1.2069 0.0000
0.3448 1.2414 0.0000
0.3448 1.2759 0.0000
0.3448 1.3103 0.0000
0.3448 1.3448 0.0000
0.3448 1.3793 0.0000
0.3448 1.4138 0.0000
0.3448 1.4483 0.0000
0.3448 1.4828 0.0000
0.3448 1.5172 0.0000
0.3448 1.5517 0.0000
0.3448 1.5862 0.0000
0.3448 1.6207 0.0000
0.3448 1.6552 0.0000
0.3448 1.6897 0.0000
0.3448 1.7241 0.0000
0.3448 1.7586 0.0000
0.3448 1.7931 0.0000
0.3448 1.8276 0.0000
0.3448 1.8621 0.0000
0.3448 1.8966 0.0000
0.3448 1.9310 0.0000
0.3448 1.9655 0.0000
0.3448 2.0000 0.0000
0.4138 1.0000 0.0000
0.4138 1.0345 0.0000
0.4138 1.0690 0.0000
0.4138 1.1034 0.0000
0.4138 1.1379 0.0000
0.4138 1.1724 0.0000
0.4138 1.2069 0.0000
0.4138 1.2414 0.0000
0.4138 1.2759 0.0000
0.4138 1.3103 0.0000
0.4138 1.3448 0.0000
0.4138 1.3793 0.0000
0.4138 1.4138 0.0000
0.4138 1.4483 0.0000
0.4138 1.4828 0.0000
0.4138 1.5172 0.0000
0.4138 1.5517 0.0000
0.4138 1.5862 0.0000
0.4138 1.6207 0.0000
0.4138 1.6552 0.0000
0.4138 1.6897 0.0000
0.4138 1.7241 0.0000
0.4138 1.7586 0.0000
0.4138 1.7931 0.0000
0.4138 1.8276 0.0000
0.4138 1.8621 0.0000
0.4138 1.8966 0.0000
0.4138 1.9310 0.0000
0.4138 1.9655 0.0000
0.4138 2.0000 0.0000
0.4828 1.0000 0.0000
0.4828 1.0345 0.0000
0.4828 1.0690 0.0000
0.4828 1.1034 0.0000
0.4828 1.1379 0.0000
0.4828 1.1724 0.0000
0.4828 1.2069 0.0000
0.4828 1.2414 0.0000
0.4828 1.2759 0.0000
0.4828 1.3103 0.0000
0.4828 1.3448 0.0000
0.4828 1.3793 0.0000
0.4828 1.4138 0.0000
0.4828 1.4483 0.0000
0.4828 1.4828 0.0000
0.4828 1.5172 0.0000
0.4828 1.5517 0.0000
0.4828 1.5862 0.0000
0.4828 1.6207 0.0000
0.4828 1.6552 0.0000
0.4828 1.6897 0.0000
0.4828 1.7241 0.0000
0.4828 1.7586 0.0000
0.4828 1.7931 0.0000
0.4828 1.8276 0.0000
0.4828 1.8621 0.0000
0.4828 1.8966 0.0000
0.4828 1.9310 0.0000
0.4828 1.9655 0.0000
0.4828 2.0000 0.0000
0.5517 1.0000 0.0000
0.5517 1.0345 0.0000
0.5517 1.0690 0.0000
0.5517 1.1034 0.0000
0.5517 1.1379 0.0000
0.5517 1.1724 0.0000
0.5517 1.2069 0.0000
0.5517 1.2414 0.0000
0.5517 1.2759 0.0000
0.5517 1.3103 0.0000
0.5517 1.3448 0.0000
0.5517 1.3793 0.0000
0.5517 1.4138 0.0000
0.5517 1.4483 0.0000
0.5517 1.4828 0.0000
0.5517 1.5172 0.0000
0.5517 1.5517 0.0000
0.5517 1.5862 0.0000
0.5517 1.6207 0.0000
0.5517 1.6552 0.0000
0.5517 1.6897 0.0000
0.5517 1.7241 0.0000
0.5517 1.7586 0.0000
0.5517 1.7931 0.0000
0.5517 1.8276 0.0000
0.5517 1.8621 0.0000
0.5517 1.8966 0.0000
0.5517 1.9310 0.0000
0.5517 1.9655 0.0000
0.5517 2.0000 0.0000
0.6207 1.0000 0.0000
0.6207 1.0345 0.0000
0.6207 1.0690 0.0000
0.6207 1.1034 0.0000
0.6207 1.1379 0.0000
0.6207 1.1724 0.0000
0.6207 1.2069 0.0000
0.6207 1.2414 0.0000
0.6207 1.2759 0.0000
0.6207 1.3103 0.0000
0.6207 1.3448 0.0000
0.6207 1.3793 0.0000
0.6207 1.4138 0.0000
0.6207 1.4483 0.0000
0.6207 1.4828 0.0000
0.6207 1.5172 0.0000
0.6207 1.5517 0.0000
0.6207 1.5862 0.0000
0.6207 1.6207 0.0000
0.6207 1.6552 0.0000
0.6207 1.6897 0.0000
0.6207 1.7241 0.0000
0.6207 1.7586 0.0000
0.6207 1.7931 0.0000
0.6207 1.8276 0.0000
0.6207 1.8621 0.0000
0.6207 1.8966 0.0000
0.6207 1.9310 0.0000
0.6207 1.9655 0.0000
0.6207 2.0000 0.0000
0.6897 1.0000 0.0000
0.6897 1.0345 0.0000
0.6897 1.0690 0.0000
0.6897 1.1034 0.0000
0.6897 1.1379 0.0000
0.6897 1.1724 0.0000
0.6897 1.2069 0.0000
0.6897 1.2414 0.0000
0.6897 1.2759 0.0000
0.6897 1.3103 0.0000
0.6897 1.3448 0.0000
0.6897 1.3793 0.0000
0.6897 1.4138 0.0000
0.6897 1.4483 0.0000
0.6897 1.4828 0.0000
0.6897 1.5172 0.0000
0.6897 1.5517 0.0000
0.6897 1.5862 0.0000
0.6897 1.6207 0.0000
0.6897 1.6552 0.0000
0.6897 1.6897 0.0000
0.6897 1.7241 0.0000
0.6897 1.7586 0.0000
0.6897 1.7931 0.0000
0.6897 1.8276 0.0000
0.6897 1.8621 0.0000
0.6897 1.8966 0.0000
0.6897 1.9310 0.0000
0.6897 1.9655 0.0000
0.6897 2.0000 0.0000
0.7586 1.0000 0.0000
0.7586 1.0345 0.0000
0.7586 1.0690 0.0000
0.7586 1.1034 0.0000
0.7586 1.1379 0.0000
0.7586 1.1724 0.0000
0.7586 1.2069 0.0000
0.7586 1.2414 0.0000
0.7586 1.2759 0.0000
0.7586 1.3103 0.0000
0.7586 1.3448 0.0000
0.7586 1.3793 0.0000
0.7586 1.4138 0.0000
0.7586 1.4483 0.0000
0.7586 1.4828 0.0000
0.7586 1.5172 0.0000
0.7586 1.5517 0.0000
0.7586 1.5862 0.0000
0.7586 1.6207 0.0000
0.7586 1.6552 0.0000
0.7586 1.6897 0.0000
0.7586 1.7241 0.0000
0.7586 1.7586 0.0000
0.7586 1.7931 0.0000
0.7586 1.8276 0.0000
0.7586 1.8621 0.0000
0.7586 1.8966 0.0000
0.7586 1.9310 0.0000
0.7586 1.9655 0.0000
0.7586 2.0000 0.0000
0.8276 1.0000 0.0000
0.8276 1.0345 0.0000
0.8276 1.0690 0.0000
0.8276 1.1034 0.0000
0.8276 1.1379 0.0000
0.8276 1.1724 0.0000
0.8276 1.2069 0.0000
0.8276 1.2414 0.0000
0.8276 1.2759 0.0000
0.8276 1.3103 0.0000
0.8276 1.3448 0.0000
0.8276 1.3793 0.0000
0.8276 1.4138 0.0000
0.8276 1.4483 0.0000
0.8276 1.4828 0.0000
0.8276 1.5172 0.0000
0.8276 1.5517 0.0000
0.8276 1.5862 0.0000
0.8276 1.6207 0.0000
0.8276 1.6552 0.0000
0.8276 1.6897 0.0000
0.8276 1.7241 0.0000
0.8276 1.7586 0.0000
0.8276 1.7931 0.0000
0.8276 1.8276 0.0000
0.8276 1.8621 0.0000
0.8276 1.8966 0.0000
0.8276 1.9310 0.0000
0.8276 1.9655 0.0000
0.8276 2.0000 0.0000
0.8966 1.0000 0.0000
0.8966 1.0345 0.0000
0.8966 1.0690 0.0000
0.8966 1.1034 0.0000
0.8966 1.1379 0.0000
0.8966 1.1724 0.0000
0.8966 1.2069 0.0000
0.8966 1.2414 0.0000
0.8966 1.2759 0.0000
0.8966 1.3103 0.0000
0.8966 1.3448 0.0000
0.8966 1.3793 0.0000
0.8966 1.4138 0.0000
0.8966 1.4483 0.0000
0.8966 1.4828 0.0000
0.8966 1.5172 0.0000
0.8966 1.5517 0.0000
0.8966 1.5862 0.0000
0.8966 1.6207 0.0000
0.8966 1.6552 0.0000
0.8966 1.6897 0.0000
0.8966 1.7241 0.0000
0.8966 1.7586 0.0000
0.8966 1.7931 0.0000
0.8966 1.8276 0.0000
0.8966 1.8621 0.0000
0.8966 1.8966 0.0000
0.8966 1.9310 0.0000
0.8966 1.9655 0.0000
0.8966 2.0000 0.0000
0.9655 1.0000 0.0000
0.9655 1.0345 0.0000
0.9655 1.0690 0.0000
0.9655 1.1034 0.0000
0.9655 1.1379 0.0000
0.9655 1.1724 0.0000
0.9655 1.2069 0.0000
0.9655 1.2414 0.0000
0.9655 1.2759 0.0000
0.9655 1.3103 0.0000
0.9655 1.3448 0.0000
0.9655 1.3793 0.0000
0.9655 1.4138 0.0000
0.9655 1.4483 0.0000
0.9655 1.4828 0.0000
0.9655 1.5172 0.0000
0.9655 1.5517 0.0000
0.9655 1.5862 0.0000
0.9655 1.6207 0.0000
0.9655 1.6552 0.0000
0.9655 1.6897 0.0000
0.9655 1.7241 0.0000
0.9655 1.7586 0.0000
0.9655 1.7931 0.0000
0.9655 1.8276 0.0000
0.9655 1.8621 0.0000
0.9655 1.8966 0.0000
0.9655 1.9310 0.0000
0.9655 1.9655 0.0000
0.9655 2.0000 0.0000
1.0345 1.0000 0.0000
1.0345 1.0345 0.0000
1.0345 1.0690 0.0000
1.0345 1.1034 0.0000
1.0345 1.1379 0.0000
1.0345 1.1724 0.0000
1.0345 1.2069 0.0000
1.0345 1.2414 0.0000
1.0345 1.2759 0.0000
1.0345 1.3103 0.0000
1.0345 1.3448 0.0000
[...]
         <PointData>
            <DataArray Name="fValues" NumberOfComponents="3" format="ascii" type="Float64">
-2.73929e-18 -2.62889e-17        00000 
-2.35496e-16 -1.41297e-16        00000 
 1.16438e-16 -2.32876e-17        00000 
 7.16850e-17 -3.21851e-17        00000 
-2.56164e-16 -9.02395e-17        00000 
 1.68098e-16 -7.11495e-18        00000 
 3.49314e-17 -8.73285e-18        00000 
 4.97406e-17 -6.21757e-18        00000 
 5.82190e-18  2.91095e-18        00000 
-3.01908e-17  5.40497e-17        00000 
 3.49314e-17 -7.27738e-17        00000 
-9.50923e-18  9.18007e-17        00000 
 3.63869e-17 -1.74657e-17        00000 
-4.46202e-17 -1.62254e-17        00000 
 2.76540e-17  3.49314e-17        00000 
 4.38888e-18 -4.27915e-17        00000 
 1.60102e-17  1.74657e-17        00000 
 2.34116e-17 -2.96115e-17        00000 
-1.01883e-17 -4.65752e-17        00000 
-1.02407e-17  5.63239e-17        00000 
 8.15066e-17 -2.61986e-17        00000 
-8.94111e-17  5.10917e-17        00000 
 1.33904e-16 -8.73285e-18        00000 
-6.14443e-17  4.02314e-18        00000 
 2.21232e-16 -1.27354e-17        00000 
 5.41874e-17  4.39326e-18        00000 
-1.74657e-16  3.34759e-17        00000 
 1.29713e-16 -8.89260e-17        00000 
 1.20373e-16 -4.03689e-18        00000 
 9.31333e-17 -1.22217e-16        00000 
-1.81835e+00 -1.60219e+00        00000 
-1.55590e+00 -1.23539e+00        00000 
-1.60117e+00 -9.42328e-01        00000 
-1.49986e+00 -6.41862e-01        00000 
-1.34918e+00 -3.61070e-01        00000 
-1.28628e+00 -2.71189e-01        00000 
-1.13082e+00 -1.23720e-01        00000 
-9.51420e-01 -6.65699e-03        00000 
-7.20737e-01  8.52264e-02        00000 
-6.11193e-01  1.99646e-01        00000 
-4.71688e-01  3.24985e-01        00000 
-3.80351e-01  4.20407e-01        00000 
-2.26073e-01  3.86253e-01        00000 
-1.65731e-01  4.00433e-01        00000 
-5.72761e-02  4.13340e-01        00000 
 8.95144e-02  4.20098e-01        00000 
 9.54730e-02  4.71252e-01        00000 
 1.43913e-01  3.94430e-01        00000 
 2.52081e-01  4.28549e-01        00000 
 4.16352e-01  3.82828e-01        00000 
 5.18559e-01  3.96200e-01        00000 
 6.49118e-01  3.45765e-01        00000 
 8.46078e-01  2.99399e-01        00000 
 8.66189e-01  2.36172e-01        00000 
 1.09695e+00  1.32624e-01        00000 
 1.22414e+00 -2.65671e-02        00000 
 1.29350e+00 -2.22384e-01        00000 
 1.35573e+00 -5.26492e-01        00000 
 1.23499e+00 -8.71613e-01        00000 
 1.24298e+00 -1.27072e+00        00000 
-2.91619e+00 -1.30400e+00        00000 
-3.13546e+00 -1.06493e+00        00000 
-3.08757e+00 -8.40301e-01        00000 
-3.00187e+00 -7.02397e-01        00000 
-2.79340e+00 -5.60524e-01        00000 
-2.56498e+00 -3.69324e-01        00000 
-2.30175e+00 -1.79194e-01        00000 
-2.00161e+00  9.53065e-02        00000 
-1.71373e+00  3.57718e-01        00000 
-1.41194e+00  5.64019e-01        00000 
-1.10228e+00  6.83938e-01        00000 
-7.65340e-01  8.03561e-01        00000 
-5.19726e-01  9.30909e-01        00000 
-3.76329e-01  1.04151e+00        00000 
-9.78288e-02  1.10778e+00        00000 
 8.05380e-02  1.16336e+00        00000 
 2.89635e-01  1.15137e+00        00000 
 4.66654e-01  1.12139e+00        00000 
 6.99559e-01  9.99823e-01        00000 
 9.52592e-01  9.29435e-01        00000 
 1.22717e+00  8.09946e-01        00000 
 1.53734e+00  8.19165e-01        00000 
 1.78070e+00  6.62142e-01        00000 
 2.12148e+00  5.21313e-01        00000 
 2.36691e+00  3.29736e-01        00000 
 2.56948e+00  2.04276e-01        00000 
 2.75621e+00  5.53506e-02        00000 
 2.70261e+00 -3.01655e-02        00000 
 2.48579e+00 -1.60285e-01        00000 
 2.13670e+00 -2.99164e-01        00000 
-4.78604e+00 -1.24928e+00        00000 
-4.77626e+00 -8.84808e-01        00000 
-4.67928e+00 -5.29317e-01        00000 
-4.52511e+00 -2.91087e-01        00000 
-4.24394e+00 -5.55616e-02        00000 
-3.99875e+00  1.97817e-01        00000 
-3.60521e+00  3.72252e-01        00000 
-3.26786e+00  5.97521e-01        00000 
-2.86381e+00  7.84343e-01        00000 
-2.40353e+00  1.03995e+00        00000 
-1.92666e+00  1.22968e+00        00000 
-1.46091e+00  1.44303e+00        00000 
-1.08928e+00  1.57213e+00        00000 
-6.27804e-01  1.65311e+00        00000 
-3.31477e-01  1.75573e+00        00000 
-7.69787e-03  1.76351e+00        00000 
 3.53350e-01  1.84213e+00        00000 
 7.35145e-01  1.84085e+00        00000 
 1.12075e+00  1.85826e+00        00000 
 1.52450e+00  1.82374e+00        00000 
 2.07748e+00  1.82096e+00        00000 
 2.45903e+00  1.74122e+00        00000 
 2.95003e+00  1.67064e+00        00000 
 3.37094e+00  1.55918e+00        00000 
 3.65888e+00  1.48762e+00        00000 
 3.89629e+00  1.36344e+00        00000 
 4.02564e+00  1.24128e+00        00000 
 3.92585e+00  1.13441e+00        00000 
 3.86504e+00  9.35881e-01        00000 
 3.40170e+00  6.22800e-01        00000 
-7.07798e+00 -1.54797e+00        00000 
-6.96793e+00 -9.63074e-01        00000 
-6.73188e+00 -4.80947e-01        00000 
-6.42652e+00  1.37654e-02        00000 
-6.06916e+00  3.70216e-01        00000 
-5.60990e+00  6.98931e-01        00000 
-5.01606e+00  9.21536e-01        00000 
-4.50734e+00  1.18826e+00        00000 
-4.09154e+00  1.43628e+00        00000 
-3.60164e+00  1.68234e+00        00000 
-2.97651e+00  2.00426e+00        00000 
-2.37797e+00  2.24459e+00        00000 
-1.59154e+00  2.43531e+00        00000 
-1.07817e+00  2.58352e+00        00000 
-5.58515e-01  2.75714e+00        00000 
-1.23673e-01  2.80797e+00        00000 
 4.29760e-01  2.81623e+00        00000 
 9.57778e-01  2.78276e+00        00000 
 1.56332e+00  2.72810e+00        00000 
 2.09764e+00  2.67558e+00        00000 
 2.72121e+00  2.59933e+00        00000 
 3.30913e+00  2.64918e+00        00000 
 3.99700e+00  2.66434e+00        00000 
 4.45149e+00  2.62827e+00        00000 
 4.94902e+00  2.60414e+00        00000 
 5.37342e+00  2.51739e+00        00000 
 5.62002e+00  2.29224e+00        00000 
 5.77096e+00  1.99948e+00        00000 
 5.85522e+00  1.61190e+00        00000 
 5.88434e+00  1.03547e+00        00000 
-9.91796e+00 -1.80081e+00        00000 
-9.57100e+00 -1.11697e+00        00000 
-9.12688e+00 -5.79953e-01        00000 
-8.65140e+00 -1.21559e-01        00000 
-8.03013e+00  2.95717e-01        00000 
-7.22692e+00  6.86052e-01        00000 
-6.59440e+00  1.07545e+00        00000 
-5.89750e+00  1.38924e+00        00000 
-5.26049e+00  1.66745e+00        00000 
-4.70433e+00  1.91696e+00        00000 
-3.94900e+00  2.12415e+00        00000 
-3.04042e+00  2.36951e+00        00000 
-2.19915e+00  2.61126e+00        00000 
-1.46249e+00  2.82039e+00        00000 
-7.73438e-01  2.99216e+00        00000 
-1.20577e-01  3.13245e+00        00000 
 5.98778e-01  3.18557e+00        00000 
 1.29376e+00  3.30568e+00        00000 
 2.01505e+00  3.34272e+00        00000 
 2.82502e+00  3.39921e+00        00000 
 3.57937e+00  3.29988e+00        00000 
 4.22443e+00  3.17928e+00        00000 
 4.98597e+00  3.16214e+00        00000 
 5.73694e+00  3.10731e+00        00000 
 6.48796e+00  2.93052e+00        00000 
 7.08184e+00  2.70517e+00        00000 
 7.62725e+00  2.49262e+00        00000 
 7.96919e+00  2.10237e+00        00000 
 8.38535e+00  1.64859e+00        00000 
 8.73742e+00  1.06285e+00        00000 
-1.30120e+01 -2.48726e+00        00000 
-1.22865e+01 -1.85904e+00        00000 
-1.15048e+01 -1.29290e+00        00000 
-1.07974e+01 -8.60160e-01        00000 
-9.98534e+00 -5.56693e-01        00000 
-9.12880e+00 -2.28040e-01        00000 
-8.20006e+00  1.61944e-01        00000 
-7.34539e+00  4.60294e-01        00000 
-6.41853e+00  7.60624e-01        00000 
-5.57959e+00  9.49120e-01        00000 
-4.73850e+00  1.11399e+00        00000 
-3.81742e+00  1.26607e+00        00000 
-2.82171e+00  1.43125e+00        00000 
-1.97977e+00  1.64472e+00        00000 
-1.12193e+00  1.83630e+00        00000 
-2.57853e-01  1.98909e+00        00000 
 5.39148e-01  2.16413e+00        00000 
 1.22880e+00  2.31216e+00        00000 
 2.14982e+00  2.50973e+00        00000 
 3.27100e+00  2.61939e+00        00000 
 4.33781e+00  2.68329e+00        00000 
 5.23621e+00  2.69222e+00        00000 
 6.27169e+00  2.56679e+00        00000 
 7.14890e+00  2.39507e+00        00000 
 8.03797e+00  2.26748e+00        00000 
 8.90702e+00  2.04837e+00        00000 
 9.66784e+00  1.77766e+00        00000 
 1.02995e+01  1.44062e+00        00000 
 1.09996e+01  9.66704e-01        00000 
 1.16956e+01  4.06521e-01        00000 
-1.60243e+01 -4.11920e+00        00000 
-1.49743e+01 -3.57868e+00        00000 
-1.38225e+01 -3.06727e+00        00000 
-1.28327e+01 -2.66420e+00        00000 
-1.18726e+01 -2.33170e+00        00000 
-1.08460e+01 -2.01585e+00        00000 
-9.91214e+00 -1.63797e+00        00000 
-8.77400e+00 -1.27212e+00        00000 
-7.68371e+00 -9.78789e-01        00000 
-6.63976e+00 -7.19481e-01        00000 
-5.58478e+00 -5.53435e-01        00000 
-4.53245e+00 -4.41125e-01        00000 
-3.49914e+00 -3.38010e-01        00000 
-2.48053e+00 -2.18856e-01        00000 
-1.58080e+00 -3.46807e-02        00000 
-6.60472e-01  1.97457e-01        00000 
 2.24919e-01  4.67376e-01        00000 
 1.22186e+00  6.67608e-01        00000 
 2.32796e+00  8.01516e-01        00000 
 3.56110e+00  8.34919e-01        00000 
 4.82266e+00  9.10484e-01        00000 
 6.09947e+00  9.63709e-01        00000 
 7.26489e+00  9.16824e-01        00000 
 8.46600e+00  8.08843e-01        00000 
 9.53589e+00  6.10377e-01        00000 
 1.06695e+01  4.47265e-01        00000 
 1.16762e+01  1.73639e-01        00000 
 1.26290e+01 -2.35500e-01        00000 
 1.37225e+01 -7.29704e-01        00000 
 1.47156e+01 -1.41111e+00        00000 
-1.90012e+01 -6.90237e+00        00000 
-1.74553e+01 -6.25725e+00        00000 
-1.61495e+01 -5.76638e+00        00000 
-1.49353e+01 -5.28638e+00        00000 
-1.36445e+01 -4.86632e+00        00000 
-1.24962e+01 -4.50645e+00        00000 
-1.13537e+01 -4.21129e+00        00000 
-1.01269e+01 -3.98289e+00        00000 
-8.96837e+00 -3.71571e+00        00000 
-7.80468e+00 -3.47845e+00        00000 
-6.57058e+00 -3.21964e+00        00000 
-5.40208e+00 -2.92922e+00        00000 
-4.29604e+00 -2.66076e+00        00000 
-3.21636e+00 -2.31093e+00        00000 
-2.21125e+00 -1.97129e+00        00000 
-1.08040e+00 -1.70021e+00        00000 
 5.12353e-02 -1.46815e+00        00000 
 1.38454e+00 -1.39043e+00        00000 
 2.66678e+00 -1.32665e+00        00000 
 4.06149e+00 -1.29689e+00        00000 
 5.49678e+00 -1.34290e+00        00000 
 6.92282e+00 -1.42123e+00        00000 
 8.28190e+00 -1.49464e+00        00000 
 9.58779e+00 -1.63237e+00        00000 
 1.10110e+01 -1.80343e+00        00000 
 1.23309e+01 -2.10356e+00        00000 
 1.36517e+01 -2.42177e+00        00000 
 1.50247e+01 -2.87592e+00        00000 
 1.64714e+01 -3.49876e+00        00000 
 1.80082e+01 -4.14567e+00        00000 
-2.19559e+01 -1.05541e+01        00000 
-2.01090e+01 -9.88961e+00        00000 
-1.85117e+01 -9.29781e+00        00000 
-1.69625e+01 -8.78191e+00        00000 
-1.55615e+01 -8.26986e+00        00000 
-1.41189e+01 -7.76223e+00        00000 
-1.27045e+01 -7.31948e+00        00000 
-1.14437e+01 -6.93043e+00        00000 
-1.01755e+01 -6.67768e+00        00000 
-8.84518e+00 -6.50832e+00        00000 
-7.62246e+00 -6.29918e+00        00000 
-6.38513e+00 -5.96624e+00        00000 
-5.20478e+00 -5.66434e+00        00000 
-4.00610e+00 -5.38192e+00        00000 
-2.66982e+00 -5.13536e+00        00000 
-1.38242e+00 -4.95942e+00        00000 
 3.13938e-02 -4.85958e+00        00000 
 1.50948e+00 -4.69643e+00        00000 
 3.02019e+00 -4.67926e+00        00000 
 4.63296e+00 -4.69977e+00        00000 
 6.24768e+00 -4.76095e+00        00000 
 7.72620e+00 -4.82344e+00        00000 
 9.21470e+00 -4.82731e+00        00000 
 1.07560e+01 -4.96639e+00        00000 
 1.24647e+01 -5.21136e+00        00000 
 1.41123e+01 -5.53592e+00        00000 
 1.57538e+01 -6.04117e+00        00000 
 1.74103e+01 -6.58219e+00        00000 
 1.92449e+01 -7.11486e+00        00000 
 2.11575e+01 -7.76038e+00        00000 
-2.46091e+01 -1.45171e+01        00000 
-2.26609e+01 -1.39625e+01        00000 
-2.08703e+01 -1.33782e+01        00000 
-1.92282e+01 -1.27324e+01        00000 
-1.76007e+01 -1.21337e+01        00000 
-1.58637e+01 -1.16178e+01        00000 
-1.41229e+01 -1.12103e+01        00000 
-1.26269e+01 -1.08831e+01        00000 
-1.11939e+01 -1.06858e+01        00000 
-9.85847e+00 -1.03674e+01        00000 
-8.49301e+00 -1.01610e+01        00000 
-7.19078e+00 -9.97951e+00        00000 
-5.80529e+00 -9.81418e+00        00000 
-4.42334e+00 -9.65021e+00        00000 
-2.95069e+00 -9.60626e+00        00000 
-1.46347e+00 -9.46282e+00        00000 
 1.22426e-02 -9.35221e+00        00000 
 1.55557e+00 -9.23109e+00        00000 
 3.28750e+00 -9.10565e+00        00000 
 5.09618e+00 -8.92967e+00        00000 
 6.85963e+00 -8.82745e+00        00000 
 8.57024e+00 -8.76789e+00        00000 
 1.02668e+01 -8.89086e+00        00000 
 1.20609e+01 -9.09082e+00        00000 
 1.40663e+01 -9.39637e+00        00000 
 1.61423e+01 -9.79659e+00        00000 
 1.81132e+01 -1.02776e+01        00000 
 1.99887e+01 -1.09139e+01        00000 
 2.19680e+01 -1.15687e+01        00000 
 2.41251e+01 -1.21813e+01        00000 
-2.71647e+01 -1.86822e+01        00000 
-2.51338e+01 -1.80408e+01        00000 
-2.32688e+01 -1.73512e+01        00000 
-2.14265e+01 -1.67859e+01        00000 
-1.94862e+01 -1.63525e+01        00000 
-1.76186e+01 -1.59657e+01        00000 
-1.57006e+01 -1.56013e+01        00000 
-1.39023e+01 -1.52429e+01        00000 
-1.22824e+01 -1.49323e+01        00000 
-1.08420e+01 -1.47354e+01        00000 
-9.33870e+00 -1.45918e+01        00000 
-7.78935e+00 -1.44119e+01        00000 
-6.10395e+00 -1.43243e+01        00000 
-4.56986e+00 -1.43186e+01        00000 
-3.06335e+00 -1.43401e+01        00000 
-1.48523e+00 -1.42578e+01        00000 
 4.88972e-02 -1.41491e+01        00000 
 1.69335e+00 -1.40904e+01        00000 
 3.42077e+00 -1.39680e+01        00000 
 5.30414e+00 -1.38125e+01        00000 
 7.27848e+00 -1.35960e+01        00000 
 9.32090e+00 -1.35690e+01        00000 
 1.14237e+01 -1.36467e+01        00000 
 1.35495e+01 -1.38670e+01        00000 
 1.58292e+01 -1.42256e+01        00000 
 1.81248e+01 -1.45774e+01        00000 
 2.04301e+01 -1.49515e+01        00000 
 2.26433e+01 -1.54327e+01        00000 
 2.48828e+01 -1.60937e+01        00000 
 2.71761e+01 -1.68489e+01        00000 
-2.99215e+01 -2.27991e+01        00000 
-2.78023e+01 -2.21550e+01        00000 
-2.56655e+01 -2.16367e+01        00000 
-2.34920e+01 -2.11884e+01        00000 
-2.12536e+01 -2.07838e+01        00000 
-1.91451e+01 -2.05490e+01        00000 
-1.71208e+01 -2.02982e+01        00000 
-1.52729e+01 -2.00366e+01        00000 
-1.34584e+01 -1.97460e+01        00000 
-1.17039e+01 -1.95191e+01        00000 
-1.00573e+01 -1.93187e+01        00000 
-8.28377e+00 -1.92137e+01        00000 
-6.44065e+00 -1.92149e+01        00000 
-4.70437e+00 -1.91569e+01        00000 
-3.09501e+00 -1.91361e+01        00000 
-1.41063e+00 -1.91506e+01        00000 
 2.91712e-01 -1.91653e+01        00000 
 2.06518e+00 -1.91762e+01        00000 
 3.97136e+00 -1.91406e+01        00000 
 5.85868e+00 -1.91610e+01        00000 
 7.99437e+00 -1.92040e+01        00000 
 1.02358e+01 -1.92518e+01        00000 
 1.25787e+01 -1.93407e+01        00000 
 1.50872e+01 -1.95569e+01        00000 
 1.75150e+01 -1.97790e+01        00000 
 2.00576e+01 -2.00597e+01        00000 
 2.25923e+01 -2.04254e+01        00000 
 2.51979e+01 -2.08907e+01        00000 
 2.78412e+01 -2.14628e+01        00000 
 3.05755e+01 -2.21684e+01        00000 
-3.29327e+01 -2.77143e+01        00000 
-3.03873e+01 -2.71659e+01        00000 
-2.78827e+01 -2.66863e+01        00000 
-2.54830e+01 -2.63142e+01        00000 
-2.30013e+01 -2.60488e+01        00000 
-2.06792e+01 -2.57464e+01        00000 
-1.85364e+01 -2.54606e+01        00000 
-1.65174e+01 -2.52692e+01        00000 
-1.46113e+01 -2.50686e+01        00000 
-1.27065e+01 -2.48667e+01        00000 
-1.08030e+01 -2.47345e+01        00000 
-8.83722e+00 -2.45591e+01        00000 
-6.76930e+00 -2.45578e+01        00000 
-4.94584e+00 -2.44466e+01        00000 
-3.17328e+00 -2.44375e+01        00000 
-1.26660e+00 -2.44436e+01        00000 
 6.64701e-01 -2.45090e+01        00000 
 2.59125e+00 -2.46149e+01        00000 
 4.75831e+00 -2.47236e+01        00000 
 6.84456e+00 -2.47733e+01        00000 
 9.06356e+00 -2.49136e+01        00000 
 1.13213e+01 -2.51790e+01        00000 
 1.38238e+01 -2.53753e+01        00000 
 1.64135e+01 -2.55712e+01        00000 
 1.91956e+01 -2.57657e+01        00000 
 2.19468e+01 -2.61160e+01        00000 
 2.47322e+01 -2.65447e+01        00000 
 2.75961e+01 -2.70603e+01        00000 
 3.05788e+01 -2.76032e+01        00000 
 3.35947e+01 -2.81681e+01        00000 
-3.56784e+01 -3.33739e+01        00000 
-3.28739e+01 -3.27567e+01        00000 
-3.01018e+01 -3.23029e+01        00000 
-2.73278e+01 -3.19175e+01        00000 
-2.47641e+01 -3.15209e+01        00000 
-2.22505e+01 -3.12904e+01        00000 
-1.99249e+01 -3.10741e+01        00000 
-1.78034e+01 -3.08602e+01        00000 
-1.57937e+01 -3.07150e+01        00000 
-1.36754e+01 -3.06099e+01        00000 
-1.15842e+01 -3.05166e+01        00000 
-9.49064e+00 -3.03945e+01        00000 
-7.38144e+00 -3.02121e+01        00000 
-5.26644e+00 -3.01020e+01        00000 
-3.19709e+00 -3.01525e+01        00000 
-1.12302e+00 -3.02352e+01        00000 
 1.03204e+00 -3.04246e+01        00000 
 3.33184e+00 -3.05268e+01        00000 
 5.51944e+00 -3.06776e+01        00000 
 7.79812e+00 -3.08743e+01        00000 
 1.02036e+01 -3.10692e+01        00000 
 1.25811e+01 -3.12886e+01        00000 
 1.50705e+01 -3.15077e+01        00000 
 1.78012e+01 -3.17462e+01        00000 
 2.07718e+01 -3.20159e+01        00000 
 2.38485e+01 -3.23174e+01        00000 
 2.68978e+01 -3.27228e+01        00000 
 3.00157e+01 -3.31715e+01        00000 
 3.30771e+01 -3.37266e+01        00000 
 3.62480e+01 -3.42837e+01        00000 
-3.84823e+01 -3.91706e+01        00000 
-3.53113e+01 -3.86100e+01        00000 
-3.21899e+01 -3.81462e+01        00000 
-2.93526e+01 -3.77387e+01        00000 
-2.64713e+01 -3.74324e+01        00000 
-2.38155e+01 -3.71638e+01        00000 
-2.13132e+01 -3.68822e+01        00000 
-1.90630e+01 -3.66316e+01        00000 
-1.68032e+01 -3.65024e+01        00000 
-1.45101e+01 -3.64663e+01        00000 
-1.22267e+01 -3.64538e+01        00000 
-1.00650e+01 -3.64593e+01        00000 
-7.83310e+00 -3.64469e+01        00000 
-5.53422e+00 -3.64648e+01        00000 
-3.22141e+00 -3.64692e+01        00000 
-8.85437e-01 -3.65351e+01        00000 
 1.41076e+00 -3.66492e+01        00000 
 3.84986e+00 -3.68017e+01        00000 
 6.27882e+00 -3.69709e+01        00000 
 8.78647e+00 -3.71182e+01        00000 
 1.12658e+01 -3.73068e+01        00000 
 1.38306e+01 -3.76065e+01        00000 
 1.64386e+01 -3.79084e+01        00000 
 1.92773e+01 -3.82172e+01        00000 
 2.23164e+01 -3.85805e+01        00000 
 2.55921e+01 -3.89112e+01        00000 
 2.89047e+01 -3.92350e+01        00000 
 3.22483e+01 -3.96676e+01        00000 
 3.55578e+01 -4.01509e+01        00000 
 3.89177e+01 -4.06963e+01        00000 
-4.09580e+01 -4.56781e+01        00000 
-3.76081e+01 -4.51622e+01        00000 
-3.43612e+01 -4.47303e+01        00000 
-3.12542e+01 -4.42999e+01        00000 
-2.81992e+01 -4.39462e+01        00000 
-2.53341e+01 -4.35719e+01        00000 
-2.27056e+01 -4.32640e+01        00000 
-2.01478e+01 -4.31296e+01        00000 
-1.76657e+01 -4.30685e+01        00000 
-1.51913e+01 -4.30310e+01        00000 
-1.27336e+01 -4.30350e+01        00000 
-1.03873e+01 -4.30584e+01        00000 
-7.97112e+00 -4.31353e+01        00000 
-5.62004e+00 -4.32483e+01        00000 
-3.08094e+00 -4.33214e+01        00000 
-6.90150e-01 -4.34189e+01        00000 
 1.83282e+00 -4.35302e+01        00000 