<?xml version="1.0" encoding="utf-8"?>
<VTKFile byte_order="LittleEndian" type="UnstructuredGrid" version="0.1">
   <UnstructuredGrid>
      <Piece NumberOfCells="3364" NumberOfPoints="1741">
         <Points>
            <DataArray Name="Points" NumberOfComponents="3" format="ascii" type="Float32">
0.0000 1.0000 0.0000
0.0000 1.0345 0.0000
0.0000 1.0690 0.0000
0.0000 1.1034 0.0000
0.0000 1.1379 0.0000
0.0000 1.1724 0.0000
0.0000 1.2069 0.0000
0.0000 1.2414 0.0000
0.0000 1.2759 0.0000
0.0000 1.3103 0.0000
0.0000 1.3448 0.0000
0.0000 1.3793 0.0000
0.0000 1.4138 0.0000
0.0000 1.4483 0.0000
0.0000 1.4828 0.0000
0.0000 1.5172 0.0000
0.0000 1.5517 0.0000
0.0000 1.5862 0.0000
0.0000 1.6207 0.0000
0.0000 1.6552 0.0000
0.0000 1.6897 0.0000
0.0000 1.7241 0.0000
0.0000 1.7586 0.0000
0.0000 1.7931 0.0000
0.0000 1.8276 0.0000
0.0000 1.8621 0.0000
0.0000 1.8966 0.0000
0.0000 1.9310 0.0000
0.0000 1.9655 0.0000
0.0000 2.0000 0.0000
0.0690 1.0000 0.0000
0.0690 1.0345 0.0000
0.0690 1.0690 0.0000
0.0690 1.1034 0.0000
0.0690 1.1379 0.0000
0.0690 1.1724 0.0000
0.0690 1.2069 0.0000
0.0690 1.2414 0.0000
0.0690 1.2759 0.0000
0.0690 1.3103 0.0000
0.0690 1.3448 0.0000
0.0690 1.3793 0.0000
0.0690 1.4138 0.0000
0.0690 1.4483 0.0000
0.0690 1.4828 0.0000
0.0690 1.5172 0.0000
0.0690 1.5517 0.0000
0.0690 1.5862 0.0000
0.0690 1.6207 0.0000
0.0690 1.6552 0.0000
0.0690 1.6897 0.0000
0.0690 1.7241 0.0000
0.0690 1.7586 0.0000
0.0690 1.7931 0.0000
0.0690 1.8276 0.0000
0.0690 1.8621 0.0000
0.0690 1.8966 0.0000
0.0690 1.9310 0.0000
0.0690 1.9655 0.0000
0.0690 2.0000 0.0000
0.1379 1.0000 0.0000
0.1379 1.0345 0.0000
0.1379 1.0690 0.0000
0.1379 1.1034 0.0000
0.1379 1.1379 0.0000
0.1379 1.1724 0.0000
0.1379 1.2069 0.0000
0.1379 1.2414 0.0000
0.1379 1.2759 0.0000
0.1379 1.3103 0.0000
0.1379 1.3448 0.0000
0.1379 1.3793 0.0000
0.1379 1.4138 0.0000
0.1379 1.4483 0.0000
0.1379 1.4828 0.0000
0.1379 1.5172 0.0000
0.1379 1.5517 0.0000
0.1379 1.5862 0.0000
0.1379 1.6207 0.0000
0.1379 1.6552 0.0000
0.1379 1.6897 0.0000
0.1379 1.7241 0.0000
0.1379 1.7586 0.0000
0.1379 1.7931 0.0000
0.1379 1.8276 0.0000
0.1379 1.8621 0.0000
0.1379 1.8966 0.0000
0.1379 1.9310 0.0000
0.1379 1.9655 0.0000
0.1379 2.0000 0.0000
0.2069 1.0000 0.0000
0.2069 1.0345 0.0000
0.2069 1.0690 0.0000
0.2069 1.1034 0.0000
0.2069 1.1379 0.0000
0.2069 1.1724 0.0000
0.2069 1.2069 0.0000
0.2069 1.2414 0.0000
0.2069 1.2759 0.0000
0.2069 1.3103 0.0000
0.2069 1.3448 0.0000
0.2069 1.3793 0.0000
0.2069 1.4138 0.0000
0.2069 1.4483 0.0000
0.2069 1.4828 0.0000
0.2069 1.5172 0.0000
0.2069 1.5517 0.0000
0.2069 1.5862 0.0000
0.2069 1.6207 0.0000
0.2069 1.6552 0.0000
0.2069 1.6897 0.0000
0.2069 1.7241 0.0000
0.2069 1.7586 0.0000
0.2069 1.7931 0.0000
0.2069 1.8276 0.0000
0.2069 1.8621 0.0000
0.2069 1.8966 0.0000
0.2069 1.9310 0.0000
0.2069 1.9655 0.0000
0.2069 2.0000 0.0000
0.2759 1.0000 0.0000
0.2759 1.0345 0.0000
0.2759 1.0690 0.0000
0.2759 1.1034 0.0000
0.2759 1.1379 0.0000
0.2759 1.1724 0.0000
0.2759 1.2069 0.0000
0.2759 1.2414 0.0000
0.2759 1.2759 0.0000
0.2759 1.3103 0.0000
0.2759 1.3448 0.0000
0.2759 1.3793 0.0000
0.2759 1.4138 0.0000
0.2759 1.4483 0.0000
0.2759 1.4828 0.0000
0.2759 1.5172 0.0000
0.2759 1.5517 0.0000
0.2759 1.5862 0.0000
0.2759 1.6207 0.0000
0.2759 1.6552 0.0000
0.2759 1.6897 0.0000
0.2759 1.7241 0.0000
0.2759 1.7586 0.0000
0.2759 1.7931 0.0000
0.2759 1.8276 0.0000
0.2759 1.8621 0.0000
0.2759 1.8966 0.0000
0.2759 1.9310 0.0000
0.2759 1.9655 0.0000
0.2759 2.0000 0.0000
0.3448 1.0000 0.0000
0.3448 1.0345 0.0000
0.3448 1.0690 0.0000
0.3448 1.1034 0.0000
0.3448 1.1379 0.0000
0.3448 1.1724 0.0000
0.3448 1.2069 0.0000
0.3448 1.2414 0.0000
0.3448 1.2759 0.0000
0.3448 1.3103 0.0000
0.3448 1.3448 0.0000
0.3448 1.3793 0.0000
0.3448 1.4138 0.0000
0.3448 1.4483 0.0000
0.3448 1.4828 0.0000
0.3448 1.5172 0.0000
0.3448 1.5517 0.0000
0.3448 1.5862 0.0000
0.3448 1.6207 0.0000
0.3448 1.6552 0.0000
0.3448 1.6897 0.0000
0.3448 1.7241 0.0000
0.3448 1.7586 0.0000
0.3448 1.7931 0.0000
0.3448 1.8276 0.0000
0.3448 1.8621 0.0000
0.3448 1.8966 0.0000
0.3448 1.9310 0.0000
0.3448 1.9655 0.0000
0.3448 2.0000 0.0000
0.4138 1.0000 0.0000
0.4138 1.0345 0.0000
0.4138 1.0690 0.0000
0.4138 1.1034 0.0000
0.4138 1.1379 0.0000
0.4138 1.1724 0.0000
0.4138 1.2069 0.0000
0.4138 1.2414 0.0000
0.4138 1.2759 0.0000
0.4138 1.3103 0.0000
0.4138 1.3448 0.0000
0.4138 1.3793 0.0000
0.4138 1.4138 0.0000
0.4138 1.4483 0.0000
0.4138 1.4828 0.0000
0.4138 1.5172 0.0000
0.4138 1.5517 0.0000
0.4138 1.5862 0.0000
0.4138 1.6207 0.0000
0.4138 1.6552 0.0000
0.4138 1.6897 0.0000
0.4138 1.7241 0.0000
0.4138 1.7586 0.0000
0.4138 1.7931 0.0000
0.4138 1.8276 0.0000
0.4138 1.8621 0.0000
0.4138 1.8966 0.0000
0.4138 1.9310 0.0000
0.4138 1.9655 0.0000
0.4138 2.0000 0.0000
0.4828 1.0000 0.0000
0.4828 1.0345 0.0000
0.4828 1.0690 0.0000
0.4828 1.1034 0.0000
0.4828 1.1379 0.0000
0.4828 1.1724 0.0000
0.4828 1.2069 0.0000
0.4828 1.2414 0.0000
0.4828 1.2759 0.0000
0.4828 1.3103 0.0000
0.4828 1.3448 0.0000
0.4828 1.3793 0.0000
0.4828 1.4138 0.0000
0.4828 1.4483 0.0000
0.4828 1.4828 0.0000
0.4828 1.5172 0.0000
0.4828 1.5517 0.0000
0.4828 1.5862 0.0000
0.4828 1.6207 0.0000
0.4828 1.6552 0.0000
0.4828 1.6897 0.0000
0.4828 1.7241 0.0000
0.4828 1.7586 0.0000
0.4828 1.7931 0.0000
0.4828 1.8276 0.0000
0.4828 1.8621 0.0000
0.4828 1.8966 0.0000
0.4828 1.9310 0.0000
0.4828 1.9655 0.0000
0.4828 2.0000 0.0000
0.5517 1.0000 0.0000
0.5517 1.0345 0.0000
0.5517 1.0690 0.0000
0.5517 1.1034 0.0000
0.5517 1.1379 0.0000
0.5517 1.1724 0.0000
0.5517 1.2069 0.0000
0.5517 1.2414 0.0000
0.5517 1.2759 0.0000
0.5517 1.3103 0.0000
0.5517 1.3448 0.0000
0.5517 1.3793 0.0000
0.5517 1.4138 0.0000
0.5517 1.4483 0.0000
0.5517 1.4828 0.0000
0.5517 1.5172 0.0000
0.5517 1.5517 0.0000
0.5517 1.5862 0.0000
0.5517 1.6207 0.0000
0.5517 1.6552 0.0000
0.5517 1.6897 0.0000
0.5517 1.7241 0.0000
0.5517 1.7586 0.0000
0.5517 1.7931 0.0000
0.5517 1.8276 0.0000
0.5517 1.8621 0.0000
0.5517 1.8966 0.0000
0.5517 1.9310 0.0000
0.5517 1.9655 0.0000
0.5517 2.0000 0.0000
0.6207 1.0000 0.0000
0.6207 1.0345 0.0000
0.6207 1.0690 0.0000
0.6207 1.1034 0.0000
0.6207 1.1379 0.0000
0.6207 1.1724 0.0000
0.6207 1.2069 0.0000
0.6207 1.2414 0.0000
0.6207 1.2759 0.0000
0.6207 1.3103 0.0000
0.6207 1.3448 0.0000
0.6207 1.3793 0.0000
0.6207 1.4138 0.0000
0.6207 1.4483 0.0000
0.6207 1.4828 0.0000
0.6207 1.5172 0.0000
0.6207 1.5517 0.0000
0.6207 1.5862 0.0000
0.6207 1.6207 0.0000
0.6207 1.6552 0.0000
0.6207 1.6897 0.0000
0.6207 1.7241 0.0000
0.6207 1.7586 0.0000
0.6207 1.7931 0.0000
0.6207 1.8276 0.0000
0.6207 1.8621 0.0000
0.6207 1.8966 0.0000
0.6207 1.9310 0.0000
0.6207 1.9655 0.0000
0.6207 2.0000 0.0000
0.6897 1.0000 0.0000
0.6897 1.0345 0.0000
0.6897 1.0690 0.0000
0.6897 1.1034 0.0000
0.6897 1.1379 0.0000
0.6897 1.1724 0.0000
0.6897 1.2069 0.0000
0.6897 1.2414 0.0000
0.6897 1.2759 0.0000
0.6897 1.3103 0.0000
0.6897 1.3448 0.0000
0.6897 1.3793 0.0000
0.6897 1.4138 0.0000
0.6897 1.4483 0.0000
0.6897 1.4828 0.0000
0.6897 1.5172 0.0000
0.6897 1.5517 0.0000
0.6897 1.5862 0.0000
0.6897 1.6207 0.0000
0.6897 1.6552 0.0000
0.6897 1.6897 0.0000
0.6897 1.7241 0.0000
0.6897 1.7586 0.0000
0.6897 1.7931 0.0000
0.6897 1.8276 0.0000
0.6897 1.8621 0.0000
0.6897 1.8966 0.0000
0.6897 1.9310 0.0000
0.6897 1.9655 0.0000
0.6897 2.0000 0.0000
0.7586 1.0000 0.0000
0.7586 1.0345 0.0000
0.7586 1.0690 0.0000
0.7586 1.1034 0.0000
0.7586 1.1379 0.0000
0.7586 1.1724 0.0000
0.7586 1.2069 0.0000
0.7586 1.2414 0.0000
0.7586 1.2759 0.0000
0.7586 1.3103 0.0000
0.7586 1.3448 0.0000
0.7586 1.3793 0.0000
0.7586 1.4138 0.0000
0.7586 1.4483 0.0000
0.7586 1.4828 0.0000
0.7586 1.5172 0.0000
0.7586 1.5517 0.0000
0.7586 1.5862 0.0000
0.7586 1.6207 0.0000
0.7586 1.6552 0.0000
0.7586 1.6897 0.0000
0.7586 1.7241 0.0000
0.7586 1.7586 0.0000
0.7586 1.7931 0.0000
0.7586 1.8276 0.0000
0.7586 1.8621 0.0000
0.7586 1.8966 0.0000
0.7586 1.9310 0.0000
0.7586 1.9655 0.0000
0.7586 2.0000 0.0000
0.8276 1.0000 0.0000
0.8276 1.0345 0.0000
0.8276 1.0690 0.0000
0.8276 1.1034 0.0000
0.8276 1.1379 0.0000
0.8276 1.1724 0.0000
0.8276 1.2069 0.0000
0.8276 1.2414 0.0000
0.8276 1.2759 0.0000
0.8276 1.3103 0.0000
0.8276 1.3448 0.0000
0.8276 1.3793 0.0000
0.8276 1.4138 0.0000
0.8276 1.4483 0.0000
0.8276 1.4828 0.0000
0.8276 1.5172 0.0000
0.8276 1.5517 0.0000
0.8276 1.5862 0.0000
0.8276 1.6207 0.0000
0.8276 1.6552 0.0000
0.8276 1.6897 0.0000
0.8276 1.7241 0.0000
0.8276 1.7586 0.0000
0.8276 1.7931 0.0000
0.8276 1.8276 0.0000
0.8276 1.8621 0.0000
0.8276 1.8966 0.0000
0.8276 1.9310 0.0000
0.8276 1.9655 0.0000
0.8276 2.0000 0.0000
0.8966 1.0000 0.0000
0.8966 1.0345 0.0000
0.8966 1.0690 0.0000
0.8966 1.1034 0.0000
0.8966 1.1379 0.0000
0.8966 1.1724 0.0000
0.8966 1.2069 0.0000
0.8966 1.2414 0.0000
0.8966 1.2759 0.0000
0.8966 1.3103 0.0000
0.8966 1.3448 0.0000
0.8966 1.3793 0.0000
0.8966 1.4138 0.0000
0.8966 1.4483 0.0000
0.8966 1.4828 0.0000
0.8966 1.5172 0.0000
0.8966 1.5517 0.0000
0.8966 1.5862 0.0000
0.8966 1.6207 0.0000
0.8966 1.6552 0.0000
0.8966 1.6897 0.0000
0.8966 1.7241 0.0000
0.8966 1.7586 0.0000
0.8966 1.7931 0.0000
0.8966 1.8276 0.0000
0.8966 1.8621 0.0000
0.8966 1.8966 0.0000
0.8966 1.9310 0.0000
0.8966 1.9655 0.0000
0.8966 2.0000 0.0000
0.9655 1.0000 0.0000
0.9655 1.0345 0.0000
0.9655 1.0690 0.0000
0.9655 1.1034 0.0000
0.9655 1.1379 0.0000
0.9655 1.1724 0.0000
0.9655 1.2069 0.0000
0.9655 1.2414 0.0000
0.9655 1.2759 0.0000
0.9655 1.3103 0.0000
0.9655 1.3448 0.0000
0.9655 1.3793 0.0000
0.9655 1.4138 0.0000
0.9655 1.4483 0.0000
0.9655 1.4828 0.0000
0.9655 1.5172 0.0000
0.9655 1.5517 0.0000
0.9655 1.5862 0.0000
0.9655 1.6207 0.0000
0.9655 1.6552 0.0000
0.9655 1.6897 0.0000
0.9655 1.7241 0.0000
0.9655 1.7586 0.0000
0.9655 1.7931 0.0000
0.9655 1.8276 0.0000
0.9655 1.8621 0.0000
0.9655 1.8966 0.0000
0.9655 1.9310 0.0000
0.9655 1.9655 0.0000
0.9655 2.0000 0.0000
1.0345 1.0000 0.0000
1.0345 1.0345 0.0000
1.0345 1.0690 0.0000
1.0345 1.1034 0.0000
1.0345 1.1379 0.0000
1.0345 1.1724 0.0000
1.0345 1.2069 0.0000
1.0345 1.2414 0.0000
1.0345 1.2759 0.0000
1.0345 1.3103 0.0000
1.0345 1.3448 0.0000
[...]
         <PointData>
            <DataArray Name="fValues" NumberOfComponents="3" format="ascii" type="Float64">
 2.35496e-17        00000        00000 
-9.41983e-17        00000        00000 
-4.65752e-17  3.26026e-16        00000 
-2.64796e-16 -2.03351e-16        00000 
 6.52053e-16  1.16438e-16        00000 
-8.02305e-16 -2.80569e-16        00000 
 3.95889e-16  3.26026e-16        00000 
-1.31666e-17  6.72961e-17        00000 
 1.16438e-17  3.49314e-17        00000 
-1.63985e-16 -2.91079e-16        00000 
-1.28082e-16  1.51369e-16        00000 
 4.68147e-17 -1.03870e-16        00000 
-3.49314e-17 -7.56847e-17        00000 
 4.59743e-17 -2.41245e-17        00000 
-1.16438e-17 -1.33904e-16        00000 
-3.65740e-18  8.04627e-18        00000 
 5.82190e-18  5.82190e-18        00000 
 5.00006e-17 -1.23940e-16        00000 
 9.31504e-17 -9.31504e-17        00000 
 3.51110e-17  1.09722e-17        00000 
-9.31504e-17        00000        00000 
 2.25622e-16  1.13615e-16        00000 
 4.65752e-17  1.04794e-16        00000 
-2.98444e-16 -2.32610e-16        00000 
 6.28765e-16  2.56164e-16        00000 
-5.44042e-16 -3.83579e-16        00000 
 4.42465e-16  3.49314e-16        00000 
 3.95736e-16 -9.67354e-17        00000 
-3.52310e-17 -4.16901e-16        00000 
 1.24107e-15 -1.42228e-16        00000 
-5.98760e+00 -5.01317e+00        00000 
-4.42133e+00 -3.76850e+00        00000 
-3.67065e+00 -2.94223e+00        00000 
-3.15850e+00 -2.36637e+00        00000 
-2.75781e+00 -1.94741e+00        00000 
-2.41852e+00 -1.62754e+00        00000 
-2.10663e+00 -1.37671e+00        00000 
-1.82571e+00 -1.17837e+00        00000 
-1.55592e+00 -1.02731e+00        00000 
-1.30306e+00 -9.06569e-01        00000 
-1.05843e+00 -8.14906e-01        00000 
-8.19084e-01 -7.40658e-01        00000 
-5.81901e-01 -6.87147e-01        00000 
-3.50120e-01 -6.52298e-01        00000 
-1.14637e-01 -6.32527e-01        00000 
 1.22446e-01 -6.30733e-01        00000 
 3.51348e-01 -6.45916e-01        00000 
 5.82530e-01 -6.80051e-01        00000 
 8.12030e-01 -7.30128e-01        00000 
 1.05997e+00 -8.03392e-01        00000 
 1.30334e+00 -9.01349e-01        00000 
 1.55927e+00 -1.02110e+00        00000 
 1.83300e+00 -1.17416e+00        00000 
 2.11531e+00 -1.36865e+00        00000 
 2.42492e+00 -1.61466e+00        00000 
 2.77567e+00 -1.93735e+00        00000 
 3.18048e+00 -2.36714e+00        00000 
 3.68920e+00 -2.95033e+00        00000 
 4.43602e+00 -3.77994e+00        00000 
 6.00226e+00 -5.03099e+00        00000 
-1.05988e+01 -8.12174e+00        00000 
-9.09762e+00 -7.15942e+00        00000 
-7.79191e+00 -6.20892e+00        00000 
-6.74921e+00 -5.39709e+00        00000 
-5.89293e+00 -4.72376e+00        00000 
-5.15316e+00 -4.17691e+00        00000 
-4.48374e+00 -3.72735e+00        00000 
-3.86267e+00 -3.36327e+00        00000 
-3.28444e+00 -3.07495e+00        00000 
-2.74285e+00 -2.84256e+00        00000 
-2.22438e+00 -2.66095e+00        00000 
-1.71873e+00 -2.52013e+00        00000 
-1.22632e+00 -2.41745e+00        00000 
-7.31460e-01 -2.35068e+00        00000 
-2.43175e-01 -2.31605e+00        00000 
 2.47709e-01 -2.31095e+00        00000 
 7.32889e-01 -2.34180e+00        00000 
 1.21730e+00 -2.40398e+00        00000 
 1.71449e+00 -2.50500e+00        00000 
 2.22656e+00 -2.64326e+00        00000 
 2.75230e+00 -2.82805e+00        00000 
 3.30162e+00 -3.06658e+00        00000 
 3.87868e+00 -3.36285e+00        00000 
 4.49341e+00 -3.72617e+00        00000 
 5.16555e+00 -4.17562e+00        00000 
 5.92245e+00 -4.72154e+00        00000 
 6.79083e+00 -5.38626e+00        00000 
 7.83268e+00 -6.20111e+00        00000 
 9.14444e+00 -7.16062e+00        00000 
 1.06462e+01 -8.13296e+00        00000 
-1.49456e+01 -1.13787e+01        00000 
-1.32970e+01 -1.04305e+01        00000 
-1.17718e+01 -9.53959e+00        00000 
-1.03918e+01 -8.71469e+00        00000 
-9.15266e+00 -7.97651e+00        00000 
-8.02884e+00 -7.33526e+00        00000 
-7.00289e+00 -6.78688e+00        00000 
-6.04080e+00 -6.32853e+00        00000 
-5.13570e+00 -5.94371e+00        00000 
-4.28685e+00 -5.63074e+00        00000 
-3.46920e+00 -5.38220e+00        00000 
-2.68264e+00 -5.18990e+00        00000 
-1.90939e+00 -5.05028e+00        00000 
-1.14324e+00 -4.95910e+00        00000 
-3.78489e-01 -4.91544e+00        00000 
 3.74536e-01 -4.91287e+00        00000 
 1.13420e+00 -4.95629e+00        00000 
 1.90175e+00 -5.04616e+00        00000 
 2.67809e+00 -5.18649e+00        00000 
 3.47826e+00 -5.38324e+00        00000 
 4.30401e+00 -5.64122e+00        00000 
 5.16166e+00 -5.95649e+00        00000 
 6.06096e+00 -6.33782e+00        00000 
 7.02997e+00 -6.80201e+00        00000 
 8.06082e+00 -7.34909e+00        00000 
 9.18685e+00 -7.99347e+00        00000 
 1.04385e+01 -8.73199e+00        00000 
 1.18422e+01 -9.55791e+00        00000 
 1.33779e+01 -1.04497e+01        00000 
 1.50346e+01 -1.14011e+01        00000 
-1.91697e+01 -1.49693e+01        00000 
-1.73000e+01 -1.40590e+01        00000 
-1.55367e+01 -1.32041e+01        00000 
-1.38881e+01 -1.24058e+01        00000 
-1.23429e+01 -1.16741e+01        00000 
-1.08956e+01 -1.10151e+01        00000 
-9.54212e+00 -1.04402e+01        00000 
-8.26180e+00 -9.93510e+00        00000 
-7.04527e+00 -9.50369e+00        00000 
-5.87951e+00 -9.14875e+00        00000 
-4.76032e+00 -8.86087e+00        00000 
-3.67245e+00 -8.63442e+00        00000 
-2.60894e+00 -8.47161e+00        00000 
-1.55864e+00 -8.36572e+00        00000 
-5.22609e-01 -8.31286e+00        00000 
 5.15256e-01 -8.31057e+00        00000 
 1.55010e+00 -8.36591e+00        00000 
 2.60159e+00 -8.47632e+00        00000 
 3.67095e+00 -8.64301e+00        00000 
 4.77159e+00 -8.87249e+00        00000 
 5.89653e+00 -9.16123e+00        00000 
 7.06701e+00 -9.52086e+00        00000 
 8.28614e+00 -9.95378e+00        00000 
 9.57313e+00 -1.04580e+01        00000 
 1.09394e+01 -1.10408e+01        00000 
 1.23968e+01 -1.17039e+01        00000 
 1.39488e+01 -1.24427e+01        00000 
 1.56122e+01 -1.32452e+01        00000 
 1.73831e+01 -1.41031e+01        00000 
 1.92599e+01 -1.50106e+01        00000 
-2.32297e+01 -1.89987e+01        00000 
-2.11352e+01 -1.81249e+01        00000 
-1.91360e+01 -1.72996e+01        00000 
-1.72239e+01 -1.65310e+01        00000 
-1.54095e+01 -1.58223e+01        00000 
-1.36746e+01 -1.51800e+01        00000 
-1.20210e+01 -1.46055e+01        00000 
-1.04395e+01 -1.40993e+01        00000 
-8.92285e+00 -1.36666e+01        00000 
-7.46027e+00 -1.32992e+01        00000 
-6.04610e+00 -1.29976e+01        00000 
-4.66520e+00 -1.27576e+01        00000 
-3.30725e+00 -1.25799e+01        00000 
-1.97421e+00 -1.24630e+01        00000 
-6.53847e-01 -1.24098e+01        00000 
 6.55119e-01 -1.24118e+01        00000 
 1.97598e+00 -1.24721e+01        00000 
 3.30885e+00 -1.25928e+01        00000 
 4.66522e+00 -1.27735e+01        00000 
 6.05528e+00 -1.30137e+01        00000 
 7.48095e+00 -1.33187e+01        00000 
 8.94898e+00 -1.36940e+01        00000 
 1.04707e+01 -1.41396e+01        00000 
 1.20585e+01 -1.46528e+01        00000 
 1.37234e+01 -1.52374e+01        00000 
 1.54613e+01 -1.58792e+01        00000 
 1.72909e+01 -1.65839e+01        00000 
 1.92143e+01 -1.73569e+01        00000 
 2.12225e+01 -1.81868e+01        00000 
 2.33205e+01 -1.90654e+01        00000 
-2.71418e+01 -2.34939e+01        00000 
-2.48111e+01 -2.26560e+01        00000 
-2.25669e+01 -2.18741e+01        00000 
-2.04075e+01 -2.11483e+01        00000 
-1.83348e+01 -2.04774e+01        00000 
-1.63313e+01 -1.98641e+01        00000 
-1.44018e+01 -1.93110e+01        00000 
-1.25407e+01 -1.88158e+01        00000 
-1.07399e+01 -1.83870e+01        00000 
-8.99715e+00 -1.80221e+01        00000 
-7.30205e+00 -1.77194e+01        00000 
-5.63568e+00 -1.74793e+01        00000 
-4.00126e+00 -1.72961e+01        00000 
-2.38909e+00 -1.71750e+01        00000 
-7.90607e-01 -1.71155e+01        00000 
 8.03316e-01 -1.71239e+01        00000 
 2.40079e+00 -1.71947e+01        00000 
 4.01116e+00 -1.73256e+01        00000 
 5.64672e+00 -1.75156e+01        00000 
 7.31383e+00 -1.77655e+01        00000 
 9.01983e+00 -1.80760e+01        00000 
 1.07743e+01 -1.84490e+01        00000 
 1.25803e+01 -1.88873e+01        00000 
 1.44456e+01 -1.93885e+01        00000 
 1.63752e+01 -1.99472e+01        00000 
 1.83871e+01 -2.05657e+01        00000 
 2.04753e+01 -2.12412e+01        00000 
 2.26517e+01 -2.19743e+01        00000 
 2.49103e+01 -2.27609e+01        00000 
 2.72584e+01 -2.36011e+01        00000 
-3.09291e+01 -2.85079e+01        00000 
-2.83349e+01 -2.77029e+01        00000 
-2.58425e+01 -2.69567e+01        00000 
-2.34374e+01 -2.62631e+01        00000 
-2.11152e+01 -2.56310e+01        00000 
-1.88638e+01 -2.50517e+01        00000 
-1.66792e+01 -2.45252e+01        00000 
-1.45551e+01 -2.40557e+01        00000 
-1.24954e+01 -2.36380e+01        00000 
-1.04834e+01 -2.32793e+01        00000 
-8.51516e+00 -2.29829e+01        00000 
-6.58833e+00 -2.27407e+01        00000 
-4.68472e+00 -2.25560e+01        00000 
-2.79563e+00 -2.24409e+01        00000 
-9.15670e-01 -2.23867e+01        00000 
 9.50247e-01 -2.24002e+01        00000 
 2.81823e+00 -2.24725e+01        00000 
 4.70144e+00 -2.26047e+01        00000 
 6.60210e+00 -2.27964e+01        00000 
 8.53708e+00 -2.30520e+01        00000 
 1.05088e+01 -2.33600e+01        00000 
 1.25313e+01 -2.37266e+01        00000 
 1.46053e+01 -2.41516e+01        00000 
 1.67263e+01 -2.46371e+01        00000 
 1.89139e+01 -2.51774e+01        00000 
 2.11640e+01 -2.57679e+01        00000 
 2.35029e+01 -2.64103e+01        00000 
 2.59224e+01 -2.70983e+01        00000 
 2.84321e+01 -2.78478e+01        00000 
 3.10358e+01 -2.86527e+01        00000 
-3.45437e+01 -3.40427e+01        00000 
-3.17177e+01 -3.32670e+01        00000 
-2.89797e+01 -3.25476e+01        00000 
-2.63322e+01 -3.18814e+01        00000 
-2.37643e+01 -3.12747e+01        00000 
-2.12650e+01 -3.07174e+01        00000 
-1.88421e+01 -3.02172e+01        00000 
-1.64784e+01 -2.97695e+01        00000 
-1.41702e+01 -2.93746e+01        00000 
-1.19079e+01 -2.90354e+01        00000 
-9.68504e+00 -2.87530e+01        00000 
-7.50259e+00 -2.85293e+01        00000 
-5.33910e+00 -2.83616e+01        00000 
-3.18996e+00 -2.82492e+01        00000 
-1.04562e+00 -2.81944e+01        00000 
 1.09312e+00 -2.82057e+01        00000 
 3.21929e+00 -2.82787e+01        00000 
 5.35918e+00 -2.84143e+01        00000 
 7.52644e+00 -2.86038e+01        00000 
 9.71739e+00 -2.88451e+01        00000 
 1.19390e+01 -2.91458e+01        00000 
 1.42099e+01 -2.94998e+01        00000 
 1.65319e+01 -2.99092e+01        00000 
 1.89044e+01 -3.03690e+01        00000 
 2.13253e+01 -3.08758e+01        00000 
 2.38211e+01 -3.14428e+01        00000 
 2.63909e+01 -3.20631e+01        00000 
 2.90459e+01 -3.27336e+01        00000 
 3.17972e+01 -3.34520e+01        00000 
 3.46462e+01 -3.42208e+01        00000 
-3.80153e+01 -4.00434e+01        00000 
-3.49495e+01 -3.93017e+01        00000 
-3.19808e+01 -3.86187e+01        00000 
-2.90952e+01 -3.79877e+01        00000 
-2.62999e+01 -3.74046e+01        00000 
-2.35696e+01 -3.68741e+01        00000 
-2.09052e+01 -3.63953e+01        00000 
-1.83052e+01 -3.59751e+01        00000 
-1.57585e+01 -3.56055e+01        00000 
-1.32536e+01 -3.52890e+01        00000 
-1.07915e+01 -3.50266e+01        00000 
-8.36221e+00 -3.48187e+01        00000 
-5.95641e+00 -3.46651e+01        00000 
-3.56346e+00 -3.45660e+01        00000 
-1.17288e+00 -3.45207e+01        00000 
 1.21768e+00 -3.45294e+01        00000 
 3.60517e+00 -3.45975e+01        00000 
 5.99651e+00 -3.47223e+01        00000 
 8.40101e+00 -3.49027e+01        00000 
 1.08327e+01 -3.51334e+01        00000 
 1.32934e+01 -3.54145e+01        00000 
 1.58000e+01 -3.57475e+01        00000 
 1.83504e+01 -3.61342e+01        00000 
 2.09527e+01 -3.65666e+01        00000 
 2.36135e+01 -3.70577e+01        00000 
 2.63443e+01 -3.75985e+01        00000 
 2.91504e+01 -3.81877e+01        00000 
 3.20319e+01 -3.88238e+01        00000 
 3.50062e+01 -3.95095e+01        00000 
 3.80669e+01 -4.02407e+01        00000 
-4.13250e+01 -4.65017e+01        00000 
-3.80288e+01 -4.58046e+01        00000 
-3.48332e+01 -4.51574e+01        00000 
-3.17304e+01 -4.45604e+01        00000 
-2.87067e+01 -4.40110e+01        00000 
-2.57559e+01 -4.35159e+01        00000 
-2.28602e+01 -4.30658e+01        00000 
-2.00343e+01 -4.26653e+01        00000 
-1.72604e+01 -4.23183e+01        00000 
-1.45311e+01 -4.20186e+01        00000 
-1.18318e+01 -4.17751e+01        00000 
-9.17024e+00 -4.15843e+01        00000 
-6.53369e+00 -4.14409e+01        00000 
-3.90841e+00 -4.13515e+01        00000 
-1.28828e+00 -4.13129e+01        00000 
 1.33627e+00 -4.13208e+01        00000 
 3.96045e+00 -4.13812e+01        00000 
 6.58935e+00 -4.14900e+01        00000 
 9.23153e+00 -4.16581e+01        00000 
 1.18850e+01 -4.18737e+01        00000 
 1.45721e+01 -4.21397e+01        00000 
 1.72974e+01 -4.24555e+01        00000 
 2.00738e+01 -4.28161e+01        00000 
 2.29036e+01 -4.32321e+01        00000 
 2.57957e+01 -4.36911e+01        00000 
 2.87491e+01 -4.42019e+01        00000 
 3.17702e+01 -4.47546e+01        00000 
 3.48653e+01 -4.53579e+01        00000 
 3.80532e+01 -4.60055e+01        00000 
 4.13438e+01 -4.67036e+01        00000 
-4.44632e+01 -5.34194e+01        00000 
-4.09521e+01 -5.27536e+01        00000 
-3.75366e+01 -5.21393e+01        00000 
-3.42181e+01 -5.15755e+01        00000 
-3.09755e+01 -5.10628e+01        00000 
-2.78119e+01 -5.05992e+01        00000 
-2.47149e+01 -5.01763e+01        00000 
-2.16699e+01 -4.98000e+01        00000 
-1.86836e+01 -4.94699e+01        00000 
-1.57303e+01 -4.91892e+01        00000 
-1.28135e+01 -4.89555e+01        00000 
-9.92921e+00 -4.87710e+01        00000 
-7.07362e+00 -4.86356e+01        00000 
-4.22828e+00 -4.85507e+01        00000 
-1.39212e+00 -4.85133e+01        00000 
 1.44293e+00 -4.85213e+01        00000 
 4.28592e+00 -4.85719e+01        00000 
 7.13718e+00 -4.86713e+01        00000 
 1.00057e+01 -4.88246e+01        00000 
 1.28817e+01 -4.90285e+01        00000 
 1.57866e+01 -4.92863e+01        00000 
 1.87231e+01 -4.95855e+01        00000 
 2.17093e+01 -4.99323e+01        00000 
 2.47555e+01 -5.03241e+01        00000 
 2.78516e+01 -5.07550e+01        00000 
 3.10158e+01 -5.12282e+01        00000 
 3.42479e+01 -5.17428e+01        00000 
 3.75584e+01 -5.23084e+01        00000 
 4.09558e+01 -5.29206e+01        00000 
 4.44520e+01 -5.35827e+01        00000 
-4.74452e+01 -6.07532e+01        00000 
-4.37175e+01 -6.01260e+01        00000 
-4.00932e+01 -5.95474e+01        00000 
-3.65613e+01 -5.90172e+01        00000 
-3.31114e+01 -5.85384e+01        00000 
-2.97465e+01 -5.81014e+01        00000 
-2.64541e+01 -5.77065e+01        00000 
-2.32133e+01 -5.73538e+01        00000 
-2.00164e+01 -5.70445e+01        00000 
-1.68621e+01 -5.67809e+01        00000 
-1.37409e+01 -5.65576e+01        00000 
-1.06532e+01 -5.63758e+01        00000 
-7.58831e+00 -5.62435e+01        00000 
-4.53440e+00 -5.61584e+01        00000 
-1.48984e+00 -5.61233e+01        00000 
 1.55172e+00 -5.61339e+01        00000 
 4.59390e+00 -5.61904e+01        00000 
 7.65340e+00 -5.62915e+01        00000 
 1.07289e+01 -5.64327e+01        00000 
 1.38188e+01 -5.66193e+01        00000 
 1.69338e+01 -5.68492e+01        00000 
 2.00789e+01 -5.71302e+01        00000 
 2.32684e+01 -5.74544e+01        00000 
 2.64984e+01 -5.78194e+01        00000 
 2.97897e+01 -5.82228e+01        00000 
 3.31479e+01 -5.86637e+01        00000 
 3.65839e+01 -5.91497e+01        00000 
 4.01026e+01 -5.96788e+01        00000 
 4.37094e+01 -6.02585e+01        00000 
 4.74097e+01 -6.08818e+01        00000 
-5.02665e+01 -6.85111e+01        00000 
-4.63353e+01 -6.79205e+01        00000 
-4.25077e+01 -6.73728e+01        00000 
-3.87730e+01 -6.68665e+01        00000 
-3.51236e+01 -6.64110e+01        00000 
-3.15640e+01 -6.59953e+01        00000 
-2.80806e+01 -6.56299e+01        00000 
-2.46509e+01 -6.53076e+01        00000 
-2.12691e+01 -6.50227e+01        00000 
-1.79217e+01 -6.47742e+01        00000 
-1.46166e+01 -6.45629e+01        00000 
-1.13417e+01 -6.43918e+01        00000 
-8.08160e+00 -6.42652e+01        00000 
-4.82783e+00 -6.41821e+01        00000 
-1.58412e+00 -6.41442e+01        00000 
 1.65358e+00 -6.41503e+01        00000 
 4.89853e+00 -6.42069e+01        00000 
 8.14768e+00 -6.43021e+01        00000 
 1.14086e+01 -6.44369e+01        00000 
 1.46897e+01 -6.46068e+01        00000 
 1.79947e+01 -6.48163e+01        00000 
 2.13336e+01 -6.50673e+01        00000 
 2.47128e+01 -6.53633e+01        00000 
 2.81418e+01 -6.57003e+01        00000 
 3.16172e+01 -6.60789e+01        00000 
 3.51610e+01 -6.65037e+01        00000 
 3.87873e+01 -6.69638e+01        00000 
 4.24989e+01 -6.74690e+01        00000 
 4.63109e+01 -6.80155e+01        00000 
 5.02213e+01 -6.86128e+01        00000 
-5.29281e+01 -7.66897e+01        00000 
-4.87993e+01 -7.61275e+01        00000 
-4.47840e+01 -7.56085e+01        00000 
-4.08603e+01 -7.51340e+01        00000 
-3.70315e+01 -7.46984e+01        00000 
-3.32791e+01 -7.43007e+01        00000 
-2.95986e+01 -7.39503e+01        00000 
-2.59904e+01 -7.36438e+01        00000 
-2.24338e+01 -7.33754e+01        00000 
-1.89182e+01 -7.31416e+01        00000 
-1.54340e+01 -7.29479e+01        00000 
-1.19779e+01 -7.27926e+01        00000 
-8.53946e+00 -7.26745e+01        00000 
-5.10475e+00 -7.25981e+01        00000 
-1.68051e+00 -7.25597e+01        00000 
 1.74857e+00 -7.25598e+01        00000 
 5.17659e+00 -7.26046e+01        00000 
 8.61136e+00 -7.26905e+01        00000 
 1.20494e+01 -7.28141e+01        00000 
 1.55011e+01 -7.29750e+01        00000 
 1.89822e+01 -7.31699e+01        00000 
 2.24995e+01 -7.34030e+01        00000 
 2.60629e+01 -7.36742e+01        00000 
 2.96710e+01 -7.39848e+01        00000 
 3.33382e+01 -7.43360e+01        00000 
 3.70665e+01 -7.47325e+01        00000 
 4.08706e+01 -7.51650e+01        00000 
 4.47724e+01 -7.56475e+01        00000 
 4.87644e+01 -7.61660e+01        00000 
 5.28702e+01 -7.67221e+01        00000 
-5.54174e+01 -8.52241e+01        00000 
-5.11198e+01 -8.46988e+01        00000 
-4.69251e+01 -8.42089e+01        00000 
-4.28283e+01 -8.37566e+01        00000 
-3.88238e+01 -8.33437e+01        00000 
-3.48914e+01 -8.29707e+01        00000 
-3.10368e+01 -8.26388e+01        00000 
-2.72571e+01 -8.23422e+01        00000 
-2.35340e+01 -8.20880e+01        00000 
-1.98441e+01 -8.18725e+01        00000 
-1.61925e+01 -8.16906e+01        00000 
-1.25749e+01 -8.15460e+01        00000 
-8.96051e+00 -8.14388e+01        00000 
-5.36456e+00 -8.13707e+01        00000 
-1.77288e+00 -8.13364e+01        00000 
 1.82737e+00 -8.13407e+01        00000 
 5.42316e+00 -8.13744e+01        00000 
 9.02484e+00 -8.14429e+01        00000 
 1.26326e+01 -8.15451e+01        00000 
 1.62546e+01 -8.16838e+01        00000 
 1.98973e+01 -8.18651e+01        00000 
 2.35898e+01 -8.20780e+01        00000 
 2.73170e+01 -8.23296e+01        00000 
 3.10978e+01 -8.26218e+01        00000 
 3.49383e+01 -8.29496e+01        00000 
 3.88466e+01 -8.33203e+01        00000 
 4.28338e+01 -8.37342e+01        00000 
 4.69046e+01 -8.41844e+01        00000 
 5.10706e+01 -8.46739e+01        00000 
 5.53286e+01 -8.51940e+01        00000 
-5.77056e+01 -9.40344e+01        00000 
-5.32678e+01 -9.35530e+01        00000 
-4.89232e+01 -9.31022e+01        00000 
-4.46673e+01 -9.26854e+01        00000 
-4.04979e+01 -9.23060e+01        00000 
-3.64095e+01 -9.19603e+01        00000 
-3.23986e+01 -9.16474e+01        00000 
-2.84570e+01 -9.13642e+01        00000 
-2.45623e+01 -9.11294e+01        00000 
-2.07156e+01 -9.09269e+01        00000 
-1.69101e+01 -9.07556e+01        00000 
-1.31244e+01 -9.06231e+01        00000 
-9.35865e+00 -9.05255e+01        00000 
-5.59829e+00 -9.04585e+01        00000 
-1.85166e+00 -9.04318e+01        00000 
 1.89046e+00 -9.04303e+01        00000 
 5.63611e+00 -9.04579e+01        00000 