<?xml version="1.0" encoding="utf-8"?>
<VTKFile byte_order="LittleEndian" type="UnstructuredGrid" version="0.1">
   <UnstructuredGrid>
      <Piece NumberOfCells="3364" NumberOfPoints="1741">
         <Points>
            <DataArray Name="Points" NumberOfComponents="3" format="ascii" type="Float32">
0.0000 1.0000 0.0000
0.0000 1.0345 0.0000
0.0000 1.0690 0.0000
0.0000 1.1034 0.0000
0.0000 1.1379 0.0000
0.0000 1.1724 0.0000
0.0000 1.2069 0.0000
0.0000 1.2414 0.0000
0.0000 1.2759 0.0000
0.0000 1.3103 0.0000
0.0000 1.3448 0.0000
0.0000 1.3793 0.0000
0.0000 1.4138 0.0000
0.0000 1.4483 0.0000
0.0000 1.4828 0.0000
0.0000 1.5172 0.0000
0.0000 1.5517 0.0000
0.0000 1.5862 0.0000
0.0000 1.6207 0.0000
0.0000 1.6552 0.0000
0.0000 1.6897 0.0000
0.0000 1.7241 0.0000
0.0000 1.7586 0.0000
0.0000 1.7931 0.0000
0.0000 1.8276 0.0000
0.0000 1.8621 0.0000
0.0000 1.8966 0.0000
0.0000 1.9310 0.0000
0.0000 1.9655 0.0000
0.0000 2.0000 0.0000
0.0690 1.0000 0.0000
0.0690 1.0345 0.0000
0.0690 1.0690 0.0000
0.0690 1.1034 0.0000
0.0690 1.1379 0.0000
0.0690 1.1724 0.0000
0.0690 1.2069 0.0000
0.0690 1.2414 0.0000
0.0690 1.2759 0.0000
0.0690 1.3103 0.0000
0.0690 1.3448 0.0000
0.0690 1.3793 0.0000
0.0690 1.4138 0.0000
0.0690 1.4483 0.0000
0.0690 1.4828 0.0000
0.0690 1.5172 0.0000
0.0690 1.5517 0.0000
0.0690 1.5862 0.0000
0.0690 1.6207 0.0000
0.0690 1.6552 0.0000
0.0690 1.6897 0.0000
0.0690 1.7241 0.0000
0.0690 1.7586 0.0000
0.0690 1.7931 0.0000
0.0690 1.8276 0.0000
0.0690 1.8621 0.0000
0.0690 1.8966 0.0000
0.0690 1.9310 0.0000
0.0690 1.9655 0.0000
0.0690 2.0000 0.0000
0.1379 1.0000 0.0000
0.1379 1.0345 0.0000
0.1379 1.0690 0.0000
0.1379 1.1034 0.0000
0.1379 1.1379 0.0000
0.1379 1.1724 0.0000
0.1379 1.2069 0.0000
0.1379 1.2414 0.0000
0.1379 1.2759 0.0000
0.1379 1.3103 0.0000
0.1379 1.3448 0.0000
0.1379 1.3793 0.0000
0.1379 1.4138 0.0000
0.1379 1.4483 0.0000
0.1379 1.4828 0.0000
0.1379 1.5172 0.0000
0.1379 1.5517 0.0000
0.1379 1.5862 0.0000
0.1379 1.6207 0.0000
0.1379 1.6552 0.0000
0.1379 1.6897 0.0000
0.1379 1.7241 0.0000
0.1379 1.7586 0.0000
0.1379 1.7931 0.0000
0.1379 1.8276 0.0000
0.1379 1.8621 0.0000
0.1379 1.8966 0.0000
0.1379 1.9310 0.0000
0.1379 1.9655 0.0000
0.1379 2.0000 0.0000
0.2069 1.0000 0.0000
0.2069 1.0345 0.0000
0.2069 1.0690 0.0000
0.2069 1.1034 0.0000
0.2069 1.1379 0.0000
0.2069 1.1724 0.0000
0.2069 1.2069 0.0000
0.2069 1.2414 0.0000
0.2069 1.2759 0.0000
0.2069 1.3103 0.0000
0.2069 1.3448 0.0000
0.2069 1.3793 0.0000
0.2069 1.4138 0.0000
0.2069 1.4483 0.0000
0.2069 1.4828 0.0000
0.2069 1.5172 0.0000
0.2069 1.5517 0.0000
0.2069 1.5862 0.0000
0.2069 1.6207 0.0000
0.2069 1.6552 0.0000
0.2069 1.6897 0.0000
0.2069 1.7241 0.0000
0.2069 1.7586 0.0000
0.2069 1.7931 0.0000
0.2069 1.8276 0.0000
0.2069 1.8621 0.0000
0.2069 1.8966 0.0000
0.2069 1.9310 0.0000
0.2069 1.9655 0.0000
0.2069 2.0000 0.0000
0.2759 1.0000 0.0000
0.2759 1.0345 0.0000
0.2759 1.0690 0.0000
0.2759 1.1034 0.0000
0.2759 1.1379 0.0000
0.2759 1.1724 0.0000
0.2759 1.2069 0.0000
0.2759 1.2414 0.0000
0.2759 1.2759 0.0000
0.2759 1.3103 0.0000
0.2759 1.3448 0.0000
0.2759 1.3793 0.0000
0.2759 1.4138 0.0000
0.2759 1.4483 0.0000
0.2759 1.4828 0.0000
0.2759 1.5172 0.0000
0.2759 1.5517 0.0000
0.2759 1.5862 0.0000
0.2759 1.6207 0.0000
0.2759 1.6552 0.0000
0.2759 1.6897 0.0000
0.2759 1.7241 0.0000
0.2759 1.7586 0.0000
0.2759 1.7931 0.0000
0.2759 1.8276 0.0000
0.2759 1.8621 0.0000
0.2759 1.8966 0.0000
0.2759 1.9310 0.0000
0.2759 1.9655 0.0000
0.2759 2.0000 0.0000
0.3448 1.0000 0.0000
0.3448 1.0345 0.0000
0.3448 1.0690 0.0000
0.3448 1.1034 0.0000
0.3448 1.1379 0.0000
0.3448 1.1724 0.0000
0.3448 1.2069 0.0000
0.3448 1.2414 0.0000
0.3448 1.2759 0.0000
0.3448 1.3103 0.0000
0.3448 1.3448 0.0000
0.3448 1.3793 0.0000
0.3448 1.4138 0.0000
0.3448 1.4483 0.0000
0.3448 1.4828 0.0000
0.3448 1.5172 0.0000
0.3448 1.5517 0.0000
0.3448 1.5862 0.0000
0.3448 1.6207 0.0000
0.3448 1.6552 0.0000
0.3448 1.6897 0.0000
0.3448 1.7241 0.0000
0.3448 1.7586 0.0000
0.3448 1.7931 0.0000
0.3448 1.8276 0.0000
0.3448 1.8621 0.0000
0.3448 1.8966 0.0000
0.3448 1.9310 0.0000
0.3448 1.9655 0.0000
0.3448 2.0000 0.0000
0.4138 1.0000 0.0000
0.4138 1.0345 0.0000
0.4138 1.0690 0.0000
0.4138 1.1034 0.0000
0.4138 1.1379 0.0000
0.4138 1.1724 0.0000
0.4138 1.2069 0.0000
0.4138 1.2414 0.0000
0.4138 1.2759 0.0000
0.4138 1.3103 0.0000
0.4138 1.3448 0.0000
0.4138 1.3793 0.0000
0.4138 1.4138 0.0000
0.4138 1.4483 0.0000
0.4138 1.4828 0.0000
0.4138 1.5172 0.0000
0.4138 1.5517 0.0000
0.4138 1.5862 0.0000
0.4138 1.6207 0.0000
0.4138 1.6552 0.0000
0.4138 1.6897 0.0000
0.4138 1.7241 0.0000
0.4138 1.7586 0.0000
0.4138 1.7931 0.0000
0.4138 1.8276 0.0000
0.4138 1.8621 0.0000
0.4138 1.8966 0.0000
0.4138 1.9310 0.0000
0.4138 1.9655 0.0000
0.4138 2.0000 0.0000
0.4828 1.0000 0.0000
0.4828 1.0345 0.0000
0.4828 1.0690 0.0000
0.4828 1.1034 0.0000
0.4828 1.1379 0.0000
0.4828 1.1724 0.0000
0.4828 1.2069 0.0000
0.4828 1.2414 0.0000
0.4828 1.2759 0.0000
0.4828 1.3103 0.0000
0.4828 1.3448 0.0000
0.4828 1.3793 0.0000
0.4828 1.4138 0.0000
0.4828 1.4483 0.0000
0.4828 1.4828 0.0000
0.4828 1.5172 0.0000
0.4828 1.5517 0.0000
0.4828 1.5862 0.0000
0.4828 1.6207 0.0000
0.4828 1.6552 0.0000
0.4828 1.6897 0.0000
0.4828 1.7241 0.0000
0.4828 1.7586 0.0000
0.4828 1.7931 0.0000
0.4828 1.8276 0.0000
0.4828 1.8621 0.0000
0.4828 1.8966 0.0000
0.4828 1.9310 0.0000
0.4828 1.9655 0.0000
0.4828 2.0000 0.0000
0.5517 1.0000 0.0000
0.5517 1.0345 0.0000
0.5517 1.0690 0.0000
0.5517 1.1034 0.0000
0.5517 1.1379 0.0000
0.5517 1.1724 0.0000
0.5517 1.2069 0.0000
0.5517 1.2414 0.0000
0.5517 1.2759 0.0000
0.5517 1.3103 0.0000
0.5517 1.3448 0.0000
0.5517 1.3793 0.0000
0.5517 1.4138 0.0000
0.5517 1.4483 0.0000
0.5517 1.4828 0.0000
0.5517 1.5172 0.0000
0.5517 1.5517 0.0000
0.5517 1.5862 0.0000
0.5517 1.6207 0.0000
0.5517 1.6552 0.0000
0.5517 1.6897 0.0000
0.5517 1.7241 0.0000
0.5517 1.7586 0.0000
0.5517 1.7931 0.0000
0.5517 1.8276 0.0000
0.5517 1.8621 0.0000
0.5517 1.8966 0.0000
0.5517 1.9310 0.0000
0.5517 1.9655 0.0000
0.5517 2.0000 0.0000
0.6207 1.0000 0.0000
0.6207 1.0345 0.0000
0.6207 1.0690 0.0000
0.6207 1.1034 0.0000
0.6207 1.1379 0.0000
0.6207 1.1724 0.0000
0.6207 1.2069 0.0000
0.6207 1.2414 0.0000
0.6207 1.2759 0.0000
0.6207 1.3103 0.0000
0.6207 1.3448 0.0000
0.6207 1.3793 0.0000
0.6207 1.4138 0.0000
0.6207 1.4483 0.0000
0.6207 1.4828 0.0000
0.6207 1.5172 0.0000
0.6207 1.5517 0.0000
0.6207 1.5862 0.0000
0.6207 1.6207 0.0000
0.6207 1.6552 0.0000
0.6207 1.6897 0.0000
0.6207 1.7241 0.0000
0.6207 1.7586 0.0000
0.6207 1.7931 0.0000
0.6207 1.8276 0.0000
0.6207 1.8621 0.0000
0.6207 1.8966 0.0000
0.6207 1.9310 0.0000
0.6207 1.9655 0.0000
0.6207 2.0000 0.0000
0.6897 1.0000 0.0000
0.6897 1.0345 0.0000
0.6897 1.0690 0.0000
0.6897 1.1034 0.0000
0.6897 1.1379 0.0000
0.6897 1.1724 0.0000
0.6897 1.2069 0.0000
0.6897 1.2414 0.0000
0.6897 1.2759 0.0000
0.6897 1.3103 0.0000
0.6897 1.3448 0.0000
0.6897 1.3793 0.0000
0.6897 1.4138 0.0000
0.6897 1.4483 0.0000
0.6897 1.4828 0.0000
0.6897 1.5172 0.0000
0.6897 1.5517 0.0000
0.6897 1.5862 0.0000
0.6897 1.6207 0.0000
0.6897 1.6552 0.0000
0.6897 1.6897 0.0000
0.6897 1.7241 0.0000
0.6897 1.7586 0.0000
0.6897 1.7931 0.0000
0.6897 1.8276 0.0000
0.6897 1.8621 0.0000
0.6897 1.8966 0.0000
0.6897 1.9310 0.0000
0.6897 1.9655 0.0000
0.6897 2.0000 0.0000
0.7586 1.0000 0.0000
0.7586 1.0345 0.0000
0.7586 1.0690 0.0000
0.7586 1.1034 0.0000
0.7586 1.1379 0.0000
0.7586 1.1724 0.0000
0.7586 1.2069 0.0000
0.7586 1.2414 0.0000
0.7586 1.2759 0.0000
0.7586 1.3103 0.0000
0.7586 1.3448 0.0000
0.7586 1.3793 0.0000
0.7586 1.4138 0.0000
0.7586 1.4483 0.0000
0.7586 1.4828 0.0000
0.7586 1.5172 0.0000
0.7586 1.5517 0.0000
0.7586 1.5862 0.0000
0.7586 1.6207 0.0000
0.7586 1.6552 0.0000
0.7586 1.6897 0.0000
0.7586 1.7241 0.0000
0.7586 1.7586 0.0000
0.7586 1.7931 0.0000
0.7586 1.8276 0.0000
0.7586 1.8621 0.0000
0.7586 1.8966 0.0000
0.7586 1.9310 0.0000
0.7586 1.9655 0.0000
0.7586 2.0000 0.0000
0.8276 1.0000 0.0000
0.8276 1.0345 0.0000
0.8276 1.0690 0.0000
0.8276 1.1034 0.0000
0.8276 1.1379 0.0000
0.8276 1.1724 0.0000
0.8276 1.2069 0.0000
0.8276 1.2414 0.0000
0.8276 1.2759 0.0000
0.8276 1.3103 0.0000
0.8276 1.3448 0.0000
0.8276 1.3793 0.0000
0.8276 1.4138 0.0000
0.8276 1.4483 0.0000
0.8276 1.4828 0.0000
0.8276 1.5172 0.0000
0.8276 1.5517 0.0000
0.8276 1.5862 0.0000
0.8276 1.6207 0.0000
0.8276 1.6552 0.0000
0.8276 1.6897 0.0000
0.8276 1.7241 0.0000
0.8276 1.7586 0.0000
0.8276 1.7931 0.0000
0.8276 1.8276 0.0000
0.8276 1.8621 0.0000
0.8276 1.8966 0.0000
0.8276 1.9310 0.0000
0.8276 1.9655 0.0000
0.8276 2.0000 0.0000
0.8966 1.0000 0.0000
0.8966 1.0345 0.0000
0.8966 1.0690 0.0000
0.8966 1.1034 0.0000
0.8966 1.1379 0.0000
0.8966 1.1724 0.0000
0.8966 1.2069 0.0000
0.8966 1.2414 0.0000
0.8966 1.2759 0.0000
0.8966 1.3103 0.0000
0.8966 1.3448 0.0000
0.8966 1.3793 0.0000
0.8966 1.4138 0.0000
0.8966 1.4483 0.0000
0.8966 1.4828 0.0000
0.8966 1.5172 0.0000
0.8966 1.5517 0.0000
0.8966 1.5862 0.0000
0.8966 1.6207 0.0000
0.8966 1.6552 0.0000
0.8966 1.6897 0.0000
0.8966 1.7241 0.0000
0.8966 1.7586 0.0000
0.8966 1.7931 0.0000
0.8966 1.8276 0.0000
0.8966 1.8621 0.0000
0.8966 1.8966 0.0000
0.8966 1.9310 0.0000
0.8966 1.9655 0.0000
0.8966 2.0000 0.0000
0.9655 1.0000 0.0000
0.9655 1.0345 0.0000
0.9655 1.0690 0.0000
0.9655 1.1034 0.0000
0.9655 1.1379 0.0000
0.9655 1.1724 0.0000
0.9655 1.2069 0.0000
0.9655 1.2414 0.0000
0.9655 1.2759 0.0000
0.9655 1.3103 0.0000
0.9655 1.3448 0.0000
0.9655 1.3793 0.0000
0.9655 1.4138 0.0000
0.9655 1.4483 0.0000
0.9655 1.4828 0.0000
0.9655 1.5172 0.0000
0.9655 1.5517 0.0000
0.9655 1.5862 0.0000
0.9655 1.6207 0.0000
0.9655 1.6552 0.0000
0.9655 1.6897 0.0000
0.9655 1.7241 0.0000
0.9655 1.7586 0.0000
0.9655 1.7931 0.0000
0.9655 1.8276 0.0000
0.9655 1.8621 0.0000
0.9655 1.8966 0.0000
0.9655 1.9310 0.0000
0.9655 1.9655 0.0000
0.9655 2.0000 0.0000
1.0345 1.0000 0.0000
1.0345 1.0345 0.0000
1.0345 1.0690 0.0000
1.0345 1.1034 0.0000
1.0345 1.1379 0.0000
1.0345 1.1724 0.0000
1.0345 1.2069 0.0000
1.0345 1.2414 0.0000
1.0345 1.2759 0.0000
1.0345 1.3103 0.0000
1.0345 1.3448 0.0000
[...]
         <PointData>
            <DataArray Name="fValues" NumberOfComponents="3" format="ascii" type="Float64">
-2.21467e-22  3.59338e-22        00000 
-2.87470e-21 -1.43735e-21        00000 
 1.77670e-21        00000        00000 
-1.09383e-21  4.81060e-21        00000 
 1.42136e-21  5.33011e-22        00000 
 7.78315e-22  3.83874e-21        00000 
 1.77670e-22  7.10681e-22        00000 
-7.47820e-22 -2.51133e-21        00000 
 3.10923e-22  8.88352e-22        00000 
-5.87745e-22 -3.01049e-22        00000 
-1.77670e-22  3.55341e-21        00000 
-7.25497e-23 -1.64074e-21        00000 
-2.99819e-22  8.88352e-23        00000 
-3.68401e-23 -6.79282e-22        00000 
 2.22088e-23  3.55341e-22        00000 
-2.37182e-23 -2.23230e-22        00000 
-4.44176e-23 -1.24369e-21        00000 
-3.72942e-22  3.21667e-21        00000 
-5.10802e-22 -1.42136e-21        00000 
 2.23230e-23 -2.47785e-21        00000 
-3.55341e-22  2.30971e-21        00000 
 6.96521e-22 -1.36956e-21        00000 
 3.55341e-22 -5.33011e-22        00000 
-3.51587e-22  1.88629e-21        00000 
 1.24369e-21  3.19807e-21        00000 
-9.19555e-22 -4.38971e-22        00000 
 1.59903e-21 -1.42136e-21        00000 
-1.19651e-21  9.84043e-22        00000 
-2.64312e-21  2.82231e-21        00000 
-7.49436e-22 -4.46615e-21        00000 
 1.34459e-05  2.38326e-05        00000 
 1.94223e-05  3.64828e-05        00000 
 1.58753e-05  2.92469e-05        00000 
 1.34853e-05  2.43445e-05        00000 
 1.16383e-05  2.08540e-05        00000 
 1.00951e-05  1.82795e-05        00000 
 8.74181e-06  1.63341e-05        00000 
 7.51607e-06  1.48411e-05        00000 
 6.38031e-06  1.36867e-05        00000 
 5.31003e-06  1.27943e-05        00000 
 4.28814e-06  1.21113e-05        00000 
 3.30192e-06  1.16011e-05        00000 
 2.34136e-06  1.12380e-05        00000 
 1.39813e-06  1.10048e-05        00000 
 4.64948e-07  1.08907e-05        00000 
-4.64948e-07  1.08907e-05        00000 
-1.39813e-06  1.10048e-05        00000 
-2.34136e-06  1.12380e-05        00000 
-3.30192e-06  1.16011e-05        00000 
-4.28814e-06  1.21113e-05        00000 
-5.31003e-06  1.27943e-05        00000 
-6.38031e-06  1.36867e-05        00000 
-7.51607e-06  1.48411e-05        00000 
-8.74181e-06  1.63341e-05        00000 
-1.00951e-05  1.82795e-05        00000 
-1.16383e-05  2.08540e-05        00000 
-1.34853e-05  2.43445e-05        00000 
-1.58753e-05  2.92469e-05        00000 
-1.94223e-05  3.64828e-05        00000 
-1.34459e-05  2.38326e-05        00000 
 2.34926e-05  3.94114e-05        00000 
 3.96857e-05  7.04277e-05        00000 
 3.34867e-05  6.21652e-05        00000 
 2.86724e-05  5.52227e-05        00000 
 2.47498e-05  4.96053e-05        00000 
 2.14159e-05  4.51026e-05        00000 
 1.84862e-05  4.15006e-05        00000 
 1.58438e-05  3.86219e-05        00000 
 1.34111e-05  3.63288e-05        00000 
 1.11340e-05  3.45164e-05        00000 
 8.97315e-06  3.31057e-05        00000 
 6.89844e-06  3.20383e-05        00000 
 4.88586e-06  3.12715e-05        00000 
 2.91532e-06  3.07758e-05        00000 
 9.69115e-07  3.05324e-05        00000 
-9.69115e-07  3.05324e-05        00000 
-2.91532e-06  3.07758e-05        00000 
-4.88586e-06  3.12715e-05        00000 
-6.89844e-06  3.20383e-05        00000 
-8.97315e-06  3.31057e-05        00000 
-1.11340e-05  3.45164e-05        00000 
-1.34111e-05  3.63288e-05        00000 
-1.58438e-05  3.86219e-05        00000 
-1.84862e-05  4.15006e-05        00000 
-2.14159e-05  4.51026e-05        00000 
-2.47498e-05  4.96053e-05        00000 
-2.86724e-05  5.52227e-05        00000 
-3.34867e-05  6.21652e-05        00000 
-3.96857e-05  7.04277e-05        00000 
-2.34926e-05  3.94114e-05        00000 
 3.26738e-05  5.56510e-05        00000 
 5.74392e-05  1.03244e-04        00000 
 5.02676e-05  9.57030e-05        00000 
 4.38684e-05  8.87415e-05        00000 
 3.82445e-05  8.25925e-05        00000 
 3.32593e-05  7.73081e-05        00000 
 2.87769e-05  7.28444e-05        00000 
 2.46854e-05  6.91224e-05        00000 
 2.08974e-05  6.60571e-05        00000 
 1.73445e-05  6.35702e-05        00000 
 1.39723e-05  6.15949e-05        00000 
 1.07369e-05  6.00768e-05        00000 
 7.60149e-06  5.89736e-05        00000 
 4.53443e-06  5.82548e-05        00000 
 1.50712e-06  5.79003e-05        00000 
-1.50712e-06  5.79003e-05        00000 
-4.53443e-06  5.82548e-05        00000 
-7.60149e-06  5.89736e-05        00000 
-1.07369e-05  6.00768e-05        00000 
-1.39723e-05  6.15949e-05        00000 
-1.73445e-05  6.35702e-05        00000 
-2.08974e-05  6.60571e-05        00000 
-2.46854e-05  6.91224e-05        00000 
-2.87769e-05  7.28444e-05        00000 
-3.32593e-05  7.73081e-05        00000 
-3.82445e-05  8.25925e-05        00000 
-4.38684e-05  8.87415e-05        00000 
-5.02676e-05  9.57030e-05        00000 
-5.74392e-05  1.03244e-04        00000 
-3.26738e-05  5.56510e-05        00000 
 4.13608e-05  7.32060e-05        00000 
 7.39489e-05  1.38865e-04        00000 
 6.57788e-05  1.31750e-04        00000 
 5.82353e-05  1.25154e-04        00000 
 5.13004e-05  1.19135e-04        00000 
 4.49347e-05  1.13757e-04        00000 
 3.90676e-05  1.09043e-04        00000 
 3.36216e-05  1.04983e-04        00000 
 2.85231e-05  1.01547e-04        00000 
 2.37065e-05  9.86946e-05        00000 
 1.91143e-05  9.63868e-05        00000 
 1.46964e-05  9.45871e-05        00000 
 1.04082e-05  9.32648e-05        00000 
 6.20987e-06  9.23966e-05        00000 
 2.06417e-06  9.19665e-05        00000 
-2.06417e-06  9.19665e-05        00000 
-6.20987e-06  9.23966e-05        00000 
-1.04082e-05  9.32648e-05        00000 
-1.46964e-05  9.45871e-05        00000 
-1.91143e-05  9.63868e-05        00000 
-2.37065e-05  9.86946e-05        00000 
-2.85231e-05  1.01547e-04        00000 
-3.36216e-05  1.04983e-04        00000 
-3.90676e-05  1.09043e-04        00000 
-4.49347e-05  1.13757e-04        00000 
-5.13004e-05  1.19135e-04        00000 
-5.82353e-05  1.25154e-04        00000 
-6.57788e-05  1.31750e-04        00000 
-7.39489e-05  1.38865e-04        00000 
-4.13608e-05  7.32060e-05        00000 
 4.95787e-05  9.26025e-05        00000 
 8.94425e-05  1.78078e-04        00000 
 8.02879e-05  1.71392e-04        00000 
 7.16903e-05  1.65167e-04        00000 
 6.36334e-05  1.59441e-04        00000 
 5.60850e-05  1.54242e-04        00000 
 4.90016e-05  1.49597e-04        00000 
 4.23300e-05  1.45515e-04        00000 
 3.60135e-05  1.41995e-04        00000 
 2.99959e-05  1.39024e-04        00000 
 2.42234e-05  1.36586e-04        00000 
 1.86455e-05  1.34663e-04        00000 
 1.32153e-05  1.33237e-04        00000 
 7.88845e-06  1.32294e-04        00000 
 2.62274e-06  1.31826e-04        00000 
-2.62274e-06  1.31826e-04        00000 
-7.88845e-06  1.32294e-04        00000 
-1.32153e-05  1.33237e-04        00000 
-1.86455e-05  1.34663e-04        00000 
-2.42234e-05  1.36586e-04        00000 
-2.99959e-05  1.39024e-04        00000 
-3.60135e-05  1.41995e-04        00000 
-4.23300e-05  1.45515e-04        00000 
-4.90016e-05  1.49597e-04        00000 
-5.60850e-05  1.54242e-04        00000 
-6.36334e-05  1.59441e-04        00000 
-7.16903e-05  1.65167e-04        00000 
-8.02879e-05  1.71392e-04        00000 
-8.94425e-05  1.78078e-04        00000 
-4.95787e-05  9.26025e-05        00000 
 5.73369e-05  1.13939e-04        00000 
 1.04004e-04  2.21175e-04        00000 
 9.38820e-05  2.14897e-04        00000 
 8.42898e-05  2.09052e-04        00000 
 7.52025e-05  2.03657e-04        00000 
 6.65894e-05  1.98730e-04        00000 
 5.84126e-05  1.94289e-04        00000 
 5.06294e-05  1.90346e-04        00000 
 4.31929e-05  1.86907e-04        00000 
 3.60548e-05  1.83975e-04        00000 
 2.91662e-05  1.81545e-04        00000 
 2.24793e-05  1.79612e-04        00000 
 1.59473e-05  1.78171e-04        00000 
 9.52490e-06  1.77213e-04        00000 
 3.16774e-06  1.76736e-04        00000 
-3.16774e-06  1.76736e-04        00000 
-9.52490e-06  1.77213e-04        00000 
-1.59473e-05  1.78171e-04        00000 
-2.24793e-05  1.79612e-04        00000 
-2.91662e-05  1.81545e-04        00000 
-3.60548e-05  1.83975e-04        00000 
-4.31929e-05  1.86907e-04        00000 
-5.06294e-05  1.90346e-04        00000 
-5.84126e-05  1.94289e-04        00000 
-6.65894e-05  1.98730e-04        00000 
-7.52025e-05  2.03657e-04        00000 
-8.42898e-05  2.09052e-04        00000 
-9.38820e-05  2.14897e-04        00000 
-1.04004e-04  2.21175e-04        00000 
-5.73369e-05  1.13939e-04        00000 
 6.46266e-05  1.37207e-04        00000 
 1.17655e-04  2.68135e-04        00000 
 1.06602e-04  2.62260e-04        00000 
 9.60666e-05  2.56793e-04        00000 
 8.60175e-05  2.51741e-04        00000 
 7.64215e-05  2.47117e-04        00000 
 6.72418e-05  2.42933e-04        00000 
 5.84390e-05  2.39199e-04        00000 
 4.99706e-05  2.35924e-04        00000 
 4.17930e-05  2.33115e-04        00000 
 3.38610e-05  2.30775e-04        00000 
 2.61296e-05  2.28903e-04        00000 
 1.85535e-05  2.27501e-04        00000 
 1.10880e-05  2.26568e-04        00000 
 3.68865e-06  2.26101e-04        00000 
-3.68865e-06  2.26101e-04        00000 
-1.10880e-05  2.26568e-04        00000 
-1.85535e-05  2.27501e-04        00000 
-2.61296e-05  2.28903e-04        00000 
-3.38610e-05  2.30775e-04        00000 
-4.17930e-05  2.33115e-04        00000 
-4.99706e-05  2.35924e-04        00000 
-5.84390e-05  2.39199e-04        00000 
-6.72418e-05  2.42933e-04        00000 
-7.64215e-05  2.47117e-04        00000 
-8.60175e-05  2.51741e-04        00000 
-9.60666e-05  2.56793e-04        00000 
-1.06602e-04  2.62260e-04        00000 
-1.17655e-04  2.68135e-04        00000 
-6.46266e-05  1.37207e-04        00000 
 7.14398e-05  1.62326e-04        00000 
 1.30401e-04  3.18802e-04        00000 
 1.18466e-04  3.13328e-04        00000 
 1.07042e-04  3.08234e-04        00000 
 9.60935e-05  3.03526e-04        00000 
 8.55838e-05  2.99213e-04        00000 
 7.54761e-05  2.95303e-04        00000 
 6.57314e-05  2.91807e-04        00000 
 5.63094e-05  2.88732e-04        00000 
 4.71686e-05  2.86087e-04        00000 
 3.82665e-05  2.83876e-04        00000 
 2.95599e-05  2.82103e-04        00000 
 2.10055e-05  2.80771e-04        00000 
 1.25598e-05  2.79883e-04        00000 
 4.17937e-06  2.79439e-04        00000 
-4.17937e-06  2.79439e-04        00000 
-1.25598e-05  2.79883e-04        00000 
-2.10055e-05  2.80771e-04        00000 
-2.95599e-05  2.82103e-04        00000 
-3.82665e-05  2.83876e-04        00000 
-4.71686e-05  2.86087e-04        00000 
-5.63094e-05  2.88732e-04        00000 
-6.57314e-05  2.91807e-04        00000 
-7.54761e-05  2.95303e-04        00000 
-8.55838e-05  2.99213e-04        00000 
-9.60935e-05  3.03526e-04        00000 
-1.07042e-04  3.08234e-04        00000 
-1.18466e-04  3.13328e-04        00000 
-1.30401e-04  3.18802e-04        00000 
-7.14398e-05  1.62326e-04        00000 
 7.77707e-05  1.89182e-04        00000 
 1.42242e-04  3.72943e-04        00000 
 1.29485e-04  3.67867e-04        00000 
 1.17232e-04  3.63143e-04        00000 
 1.05445e-04  3.58775e-04        00000 
 9.40873e-05  3.54771e-04        00000 
 8.31198e-05  3.51139e-04        00000 
 7.25040e-05  3.47888e-04        00000 
 6.22003e-05  3.45025e-04        00000 
 5.21683e-05  3.42558e-04        00000 
 4.23671e-05  3.40493e-04        00000 
 3.27553e-05  3.38835e-04        00000 
 2.32911e-05  3.37589e-04        00000 
 1.39324e-05  3.36756e-04        00000 
 4.63709e-06  3.36339e-04        00000 
-4.63709e-06  3.36339e-04        00000 
-1.39324e-05  3.36756e-04        00000 
-2.32911e-05  3.37589e-04        00000 
-3.27553e-05  3.38835e-04        00000 
-4.23671e-05  3.40493e-04        00000 
-5.21683e-05  3.42558e-04        00000 
-6.22003e-05  3.45025e-04        00000 
-7.25040e-05  3.47888e-04        00000 
-8.31198e-05  3.51139e-04        00000 
-9.40873e-05  3.54771e-04        00000 
-1.05445e-04  3.58775e-04        00000 
-1.17232e-04  3.63143e-04        00000 
-1.29485e-04  3.67867e-04        00000 
-1.42242e-04  3.72943e-04        00000 
-7.77707e-05  1.89182e-04        00000 
 8.36177e-05  2.17641e-04        00000 
 1.53183e-04  4.30287e-04        00000 
 1.39667e-04  4.25606e-04        00000 
 1.26648e-04  4.21245e-04        00000 
 1.14087e-04  4.17211e-04        00000 
 1.01946e-04  4.13512e-04        00000 
 9.01844e-05  4.10154e-04        00000 
 7.87646e-05  4.07146e-04        00000 
 6.76473e-05  4.04496e-04        00000 
 5.67929e-05  4.02210e-04        00000 
 4.61616e-05  4.00295e-04        00000 
 3.57132e-05  3.98757e-04        00000 
 2.54075e-05  3.97599e-04        00000 
 1.52037e-05  3.96825e-04        00000 
 5.06108e-06  3.96438e-04        00000 
-5.06108e-06  3.96438e-04        00000 
-1.52037e-05  3.96825e-04        00000 
-2.54075e-05  3.97599e-04        00000 
-3.57132e-05  3.98757e-04        00000 
-4.61616e-05  4.00295e-04        00000 
-5.67929e-05  4.02210e-04        00000 
-6.76473e-05  4.04496e-04        00000 
-7.87646e-05  4.07146e-04        00000 
-9.01844e-05  4.10154e-04        00000 
-1.01946e-04  4.13512e-04        00000 
-1.14087e-04  4.17211e-04        00000 
-1.26648e-04  4.21245e-04        00000 
-1.39667e-04  4.25606e-04        00000 
-1.53183e-04  4.30287e-04        00000 
-8.36177e-05  2.17641e-04        00000 
 8.89829e-05  2.47557e-04        00000 
 1.63230e-04  4.90542e-04        00000 
 1.49023e-04  4.86251e-04        00000 
 1.35305e-04  4.82248e-04        00000 
 1.22035e-04  4.78540e-04        00000 
 1.09174e-04  4.75138e-04        00000 
 9.66838e-05  4.72047e-04        00000 
 8.45256e-05  4.69276e-04        00000 
 7.26607e-05  4.66834e-04        00000 
 6.10503e-05  4.64726e-04        00000 
 4.96555e-05  4.62959e-04        00000 
 3.84374e-05  4.61539e-04        00000 
 2.73569e-05  4.60470e-04        00000 
 1.63748e-05  4.59756e-04        00000 
 5.45170e-06  4.59398e-04        00000 
-5.45170e-06  4.59398e-04        00000 
-1.63748e-05  4.59756e-04        00000 
-2.73569e-05  4.60470e-04        00000 
-3.84374e-05  4.61539e-04        00000 
-4.96555e-05  4.62959e-04        00000 
-6.10503e-05  4.64726e-04        00000 
-7.26607e-05  4.66834e-04        00000 
-8.45256e-05  4.69276e-04        00000 
-9.66838e-05  4.72047e-04        00000 
-1.09174e-04  4.75138e-04        00000 
-1.22035e-04  4.78540e-04        00000 
-1.35305e-04  4.82248e-04        00000 
-1.49023e-04  4.86251e-04        00000 
-1.63230e-04  4.90542e-04        00000 
-8.89829e-05  2.47557e-04        00000 
 9.38715e-05  2.78782e-04        00000 
 1.72396e-04  5.53409e-04        00000 
 1.57567e-04  5.49500e-04        00000 
 1.43216e-04  5.45846e-04        00000 
 1.29302e-04  5.42458e-04        00000 
 1.15788e-04  5.39343e-04        00000 
 1.02633e-04  5.36512e-04        00000 
 8.98011e-05  5.33971e-04        00000 
 7.72530e-05  5.31729e-04        00000 
 6.49511e-05  5.29793e-04        00000 
 5.28575e-05  5.28170e-04        00000 
 4.09345e-05  5.26865e-04        00000 
 2.91441e-05  5.25882e-04        00000 
 1.74485e-05  5.25224e-04        00000 
 5.80986e-06  5.24895e-04        00000 
-5.80986e-06  5.24895e-04        00000 
-1.74485e-05  5.25224e-04        00000 
-2.91441e-05  5.25882e-04        00000 
-4.09345e-05  5.26865e-04        00000 
-5.28575e-05  5.28170e-04        00000 
-6.49511e-05  5.29793e-04        00000 
-7.72530e-05  5.31729e-04        00000 
-8.98011e-05  5.33971e-04        00000 
-1.02633e-04  5.36512e-04        00000 
-1.15788e-04  5.39343e-04        00000 
-1.29302e-04  5.42458e-04        00000 
-1.43216e-04  5.45846e-04        00000 
-1.57567e-04  5.49500e-04        00000 
-1.72396e-04  5.53409e-04        00000 
-9.38715e-05  2.78782e-04        00000 
 9.82917e-05  3.11166e-04        00000 
 1.80697e-04  6.18584e-04        00000 
 1.65316e-04  6.15049e-04        00000 
 1.50399e-04  6.11736e-04        00000 
 1.35908e-04  6.08657e-04        00000 
 1.21804e-04  6.05822e-04        00000 
 1.08049e-04  6.03241e-04        00000 
 9.46063e-05  6.00921e-04        00000 
 8.14379e-05  5.98873e-04        00000 
 6.85073e-05  5.97102e-04        00000 
 5.57776e-05  5.95617e-04        00000 
 4.32123e-05  5.94421e-04        00000 
 3.07747e-05  5.93520e-04        00000 
 1.84283e-05  5.92918e-04        00000 
 6.13669e-06  5.92616e-04        00000 
-6.13669e-06  5.92616e-04        00000 
-1.84283e-05  5.92918e-04        00000 
-3.07747e-05  5.93520e-04        00000 
-4.32123e-05  5.94421e-04        00000 
-5.57776e-05  5.95617e-04        00000 
-6.85073e-05  5.97102e-04        00000 
-8.14379e-05  5.98873e-04        00000 
-9.46063e-05  6.00921e-04        00000 
-1.08049e-04  6.03241e-04        00000 
-1.21804e-04  6.05822e-04        00000 
-1.35908e-04  6.08657e-04        00000 
-1.50399e-04  6.11736e-04        00000 
-1.65316e-04  6.15049e-04        00000 
-1.80697e-04  6.18584e-04        00000 
-9.82917e-05  3.11166e-04        00000 
 1.02254e-04  3.44560e-04        00000 
 1.88155e-04  6.85770e-04        00000 
 1.72290e-04  6.82597e-04        00000 
 1.56875e-04  6.79615e-04        00000 
 1.41871e-04  6.76836e-04        00000 
 1.27241e-04  6.74270e-04        00000 
 1.12949e-04  6.71929e-04        00000 
 9.89569e-05  6.69823e-04        00000 
 8.52297e-05  6.67959e-04        00000 
 7.17313e-05  6.66347e-04        00000 
 5.84262e-05  6.64993e-04        00000 
 4.52790e-05  6.63902e-04        00000 
 3.22546e-05  6.63080e-04        00000 
 1.93177e-05  6.62530e-04        00000 
 6.43341e-06  6.62254e-04        00000 
-6.43341e-06  6.62254e-04        00000 
-1.93177e-05  6.62530e-04        00000 
-3.22546e-05  6.63080e-04        00000 
-4.52790e-05  6.63902e-04        00000 
-5.84262e-05  6.64993e-04        00000 
-7.17313e-05  6.66347e-04        00000 
-8.52297e-05  6.67959e-04        00000 
-9.89569e-05  6.69823e-04        00000 
-1.12949e-04  6.71929e-04        00000 
-1.27241e-04  6.74270e-04        00000 
-1.41871e-04  6.76836e-04        00000 
-1.56875e-04  6.79615e-04        00000 
-1.72290e-04  6.82597e-04        00000 
-1.88155e-04  6.85770e-04        00000 
-1.02254e-04  3.44560e-04        00000 
 1.05773e-04  3.78818e-04        00000 
 1.94794e-04  7.54670e-04        00000 
 1.78512e-04  7.51849e-04        00000 
 1.62664e-04  7.49185e-04        00000 
 1.47212e-04  7.46694e-04        00000 
 1.32119e-04  7.44388e-04        00000 
 1.17350e-04  7.42278e-04        00000 
 1.02870e-04  7.40375e-04        00000 
 8.86433e-05  7.38688e-04        00000 
 7.46361e-05  7.37227e-04        00000 
 6.08141e-05  7.35998e-04        00000 
 4.71434e-05  7.35007e-04        00000 
 3.35900e-05  7.34259e-04        00000 
 2.01205e-05  7.33759e-04        00000 
 6.70126e-06  7.33508e-04        00000 
-6.70126e-06  7.33508e-04        00000 
-2.01205e-05  7.33759e-04        00000 
-3.35900e-05  7.34259e-04        00000 
-4.71434e-05  7.35007e-04        00000 
-6.08141e-05  7.35998e-04        00000 
-7.46361e-05  7.37227e-04        00000 
-8.86433e-05  7.38688e-04        00000 
-1.02870e-04  7.40375e-04        00000 
-1.17350e-04  7.42278e-04        00000 
-1.32119e-04  7.44388e-04        00000 
-1.47212e-04  7.46694e-04        00000 
-1.62664e-04  7.49185e-04        00000 
-1.78512e-04  7.51849e-04        00000 
-1.94794e-04  7.54670e-04        00000 
-1.05773e-04  3.78818e-04        00000 
 1.08862e-04  4.13796e-04        00000 
 2.00642e-04  8.24997e-04        00000 
 1.84010e-04  8.22513e-04        00000 
 1.67793e-04  8.20156e-04        00000 
 1.51954e-04  8.17941e-04        00000 
 1.36459e-04  8.15882e-04        00000 
 1.21273e-04  8.13993e-04        00000 
 1.06363e-04  8.12284e-04        00000 
 9.16944e-05  8.10766e-04        00000 
 7.72352e-05  8.09448e-04        00000 
 6.29526e-05  8.08338e-04        00000 
 4.88140e-05  8.07442e-04        00000 
 3.47874e-05  8.06765e-04        00000 
 2.08405e-05  8.06312e-04        00000 
 6.94152e-06  8.06085e-04        00000 
-6.94152e-06  8.06085e-04        00000 
-2.08405e-05  8.06312e-04        00000 