<?xml version="1.0" encoding="utf-8"?>
<VTKFile byte_order="LittleEndian" type="UnstructuredGrid" version="0.1">
   <UnstructuredGrid>
      <Piece NumberOfCells="1408" NumberOfPoints="804">
         <Points>
            <DataArray Name="Points" NumberOfComponents="3" format="ascii" type="Float32">
-1.0000 -0.8947 0.0000
-1.0000 -0.7895 0.0000
-1.0000 -0.6842 0.0000
-1.0000 -0.5789 0.0000
-1.0000 -0.4737 0.0000
-1.0000 -0.3684 0.0000
-1.0000 -0.2632 0.0000
-1.0000 -0.1579 0.0000
-1.0000 -0.0526 0.0000
-1.0000 0.0526 0.0000
-1.0000 0.1579 0.0000
-1.0000 0.2632 0.0000
-1.0000 0.3684 0.0000
-1.0000 0.4737 0.0000
-1.0000 0.5789 0.0000
-1.0000 0.6842 0.0000
-1.0000 0.7895 0.0000
-1.0000 0.8947 0.0000
-1.0000 1.0000 0.0000
-0.8947 -0.8947 0.0000
-0.8947 -0.7895 0.0000
-0.8947 -0.6842 0.0000
-0.8947 -0.5789 0.0000
-0.8947 -0.4737 0.0000
-0.8947 -0.3684 0.0000
-0.8947 -0.2632 0.0000
-0.8947 -0.1579 0.0000
-0.8947 -0.0526 0.0000
-0.8947 0.0526 0.0000
-0.8947 0.1579 0.0000
-0.8947 0.2632 0.0000
-0.8947 0.3684 0.0000
-0.8947 0.4737 0.0000
-0.8947 0.5789 0.0000
-0.8947 0.6842 0.0000
-0.8947 0.7895 0.0000
-0.8947 0.8947 0.0000
-0.8947 1.0000 0.0000
-0.7895 -0.8947 0.0000
-0.7895 -0.7895 0.0000
-0.7895 -0.6842 0.0000
-0.7895 -0.5789 0.0000
-0.7895 -0.4737 0.0000
-0.7895 -0.3684 0.0000
-0.7895 -0.2632 0.0000
-0.7895 -0.1579 0.0000
-0.7895 -0.0526 0.0000
-0.7895 0.0526 0.0000
-0.7895 0.1579 0.0000
-0.7895 0.2632 0.0000
-0.7895 0.3684 0.0000
-0.7895 0.4737 0.0000
-0.7895 0.5789 0.0000
-0.7895 0.6842 0.0000
-0.7895 0.7895 0.0000
-0.7895 0.8947 0.0000
-0.7895 1.0000 0.0000
-0.6842 -0.8947 0.0000
-0.6842 -0.7895 0.0000
-0.6842 -0.6842 0.0000
-0.6842 -0.5789 0.0000
-0.6842 -0.4737 0.0000
-0.6842 -0.3684 0.0000
-0.6842 -0.2632 0.0000
-0.6842 -0.1579 0.0000
-0.6842 -0.0526 0.0000
-0.6842 0.0526 0.0000
-0.6842 0.1579 0.0000
-0.6842 0.2632 0.0000
-0.6842 0.3684 0.0000
-0.6842 0.4737 0.0000
-0.6842 0.5789 0.0000
-0.6842 0.6842 0.0000
-0.6842 0.7895 0.0000
-0.6842 0.8947 0.0000
-0.6842 1.0000 0.0000
-0.5789 -0.8947 0.0000
-0.5789 -0.7895 0.0000
-0.5789 -0.6842 0.0000
-0.5789 -0.5789 0.0000
-0.5789 -0.4737 0.0000
-0.5789 -0.3684 0.0000
-0.5789 -0.2632 0.0000
-0.5789 -0.1579 0.0000
-0.5789 -0.0526 0.0000
-0.5789 0.0526 0.0000
-0.5789 0.1579 0.0000
-0.5789 0.2632 0.0000
-0.5789 0.3684 0.0000
-0.5789 0.4737 0.0000
-0.5789 0.5789 0.0000
-0.5789 0.6842 0.0000
-0.5789 0.7895 0.0000
-0.5789 0.8947 0.0000
-0.5789 1.0000 0.0000
-0.4737 -0.8947 0.0000
-0.4737 -0.7895 0.0000
-0.4737 -0.6842 0.0000
-0.4737 -0.5789 0.0000
-0.4737 -0.4737 0.0000
-0.4737 -0.3684 0.0000
-0.4737 -0.2632 0.0000
-0.4737 -0.1579 0.0000
-0.4737 -0.0526 0.0000
-0.4737 0.0526 0.0000
-0.4737 0.1579 0.0000
-0.4737 0.2632 0.0000
-0.4737 0.3684 0.0000
-0.4737 0.4737 0.0000
-0.4737 0.5789 0.0000
-0.4737 0.6842 0.0000
-0.4737 0.7895 0.0000
-0.4737 0.8947 0.0000
-0.4737 1.0000 0.0000
-0.3684 -0.8947 0.0000
-0.3684 -0.7895 0.0000
-0.3684 -0.6842 0.0000
-0.3684 -0.5789 0.0000
-0.3684 -0.4737 0.0000
-0.3684 -0.3684 0.0000
-0.3684 -0.2632 0.0000
-0.3684 -0.1579 0.0000
-0.3684 -0.0526 0.0000
-0.3684 0.0526 0.0000
-0.3684 0.1579 0.0000
-0.3684 0.2632 0.0000
-0.3684 0.3684 0.0000
-0.3684 0.4737 0.0000
-0.3684 0.5789 0.0000
-0.3684 0.6842 0.0000
-0.3684 0.7895 0.0000
-0.3684 0.8947 0.0000
-0.3684 1.0000 0.0000
-0.2632 -0.8947 0.0000
-0.2632 -0.7895 0.0000
-0.2632 -0.6842 0.0000
-0.2632 -0.5789 0.0000
-0.2632 -0.4737 0.0000
-0.2632 -0.3684 0.0000
-0.2632 -0.2632 0.0000
-0.2632 0.3684 0.0000
-0.2632 0.4737 0.0000
-0.2632 0.5789 0.0000
-0.2632 0.6842 0.0000
-0.2632 0.7895 0.0000
-0.2632 0.8947 0.0000
-0.2632 1.0000 0.0000
-0.1579 -0.8947 0.0000
-0.1579 -0.7895 0.0000
-0.1579 -0.6842 0.0000
-0.1579 -0.5789 0.0000
-0.1579 -0.4737 0.0000
-0.1579 -0.3684 0.0000
-0.1579 -0.2632 0.0000
-0.1579 0.3684 0.0000
-0.1579 0.4737 0.0000
-0.1579 0.5789 0.0000
-0.1579 0.6842 0.0000
-0.1579 0.7895 0.0000
-0.1579 0.8947 0.0000
-0.1579 1.0000 0.0000
-0.0526 -0.8947 0.0000
-0.0526 -0.7895 0.0000
-0.0526 -0.6842 0.0000
-0.0526 -0.5789 0.0000
-0.0526 -0.4737 0.0000
-0.0526 -0.3684 0.0000
-0.0526 0.4737 0.0000
-0.0526 0.5789 0.0000
-0.0526 0.6842 0.0000
-0.0526 0.7895 0.0000
-0.0526 0.8947 0.0000
-0.0526 1.0000 0.0000
0.0526 -0.8947 0.0000
0.0526 -0.7895 0.0000
0.0526 -0.6842 0.0000
0.0526 -0.5789 0.0000
0.0526 -0.4737 0.0000
0.0526 -0.3684 0.0000
0.0526 0.4737 0.0000
0.0526 0.5789 0.0000
0.0526 0.6842 0.0000
0.0526 0.7895 0.0000
0.0526 0.8947 0.0000
0.0526 1.0000 0.0000
0.1579 -0.8947 0.0000
0.1579 -0.7895 0.0000
0.1579 -0.6842 0.0000
0.1579 -0.5789 0.0000
0.1579 -0.4737 0.0000
0.1579 -0.3684 0.0000
0.1579 -0.2632 0.0000
0.1579 0.3684 0.0000
0.1579 0.4737 0.0000
0.1579 0.5789 0.0000
0.1579 0.6842 0.0000
0.1579 0.7895 0.0000
0.1579 0.8947 0.0000
0.1579 1.0000 0.0000
0.2632 -0.8947 0.0000
0.2632 -0.7895 0.0000
0.2632 -0.6842 0.0000
0.2632 -0.5789 0.0000
0.2632 -0.4737 0.0000
0.2632 -0.3684 0.0000
0.2632 -0.2632 0.0000
0.2632 -0.1579 0.0000
0.2632 0.2632 0.0000
0.2632 0.3684 0.0000
0.2632 0.4737 0.0000
0.2632 0.5789 0.0000
0.2632 0.6842 0.0000
0.2632 0.7895 0.0000
0.2632 0.8947 0.0000
0.2632 1.0000 0.0000
0.3684 -0.8947 0.0000
0.3684 -0.7895 0.0000
0.3684 -0.6842 0.0000
0.3684 -0.5789 0.0000
0.3684 -0.4737 0.0000
0.3684 -0.3684 0.0000
0.3684 -0.2632 0.0000
0.3684 -0.1579 0.0000
0.3684 -0.0526 0.0000
0.3684 0.0526 0.0000
0.3684 0.1579 0.0000
0.3684 0.2632 0.0000
0.3684 0.3684 0.0000
0.3684 0.4737 0.0000
0.3684 0.5789 0.0000
0.3684 0.6842 0.0000
0.3684 0.7895 0.0000
0.3684 0.8947 0.0000
0.3684 1.0000 0.0000
0.4737 -0.8947 0.0000
0.4737 -0.7895 0.0000
0.4737 -0.6842 0.0000
0.4737 -0.5789 0.0000
0.4737 -0.4737 0.0000
0.4737 -0.3684 0.0000
0.4737 -0.2632 0.0000
0.4737 -0.1579 0.0000
0.4737 -0.0526 0.0000
0.4737 0.0526 0.0000
0.4737 0.1579 0.0000
0.4737 0.2632 0.0000
0.4737 0.3684 0.0000
0.4737 0.4737 0.0000
0.4737 0.5789 0.0000
0.4737 0.6842 0.0000
0.4737 0.7895 0.0000
0.4737 0.8947 0.0000
0.4737 1.0000 0.0000
0.5789 -0.8947 0.0000
0.5789 -0.7895 0.0000
0.5789 -0.6842 0.0000
0.5789 -0.5789 0.0000
0.5789 -0.4737 0.0000
0.5789 -0.3684 0.0000
0.5789 -0.2632 0.0000
0.5789 -0.1579 0.0000
0.5789 -0.0526 0.0000
0.5789 0.0526 0.0000
0.5789 0.1579 0.0000
0.5789 0.2632 0.0000
0.5789 0.3684 0.0000
0.5789 0.4737 0.0000
0.5789 0.5789 0.0000
0.5789 0.6842 0.0000
0.5789 0.7895 0.0000
0.5789 0.8947 0.0000
0.5789 1.0000 0.0000
0.6842 -0.8947 0.0000
0.6842 -0.7895 0.0000
0.6842 -0.6842 0.0000
0.6842 -0.5789 0.0000
0.6842 -0.4737 0.0000
0.6842 -0.3684 0.0000
0.6842 -0.2632 0.0000
0.6842 -0.1579 0.0000
0.6842 -0.0526 0.0000
0.6842 0.0526 0.0000
0.6842 0.1579 0.0000
0.6842 0.2632 0.0000
0.6842 0.3684 0.0000
0.6842 0.4737 0.0000
0.6842 0.5789 0.0000
0.6842 0.6842 0.0000
0.6842 0.7895 0.0000
0.6842 0.8947 0.0000
0.6842 1.0000 0.0000
0.7895 -0.8947 0.0000
0.7895 -0.7895 0.0000
0.7895 -0.6842 0.0000
0.7895 -0.5789 0.0000
0.7895 -0.4737 0.0000
0.7895 -0.3684 0.0000
0.7895 -0.2632 0.0000
0.7895 -0.1579 0.0000
0.7895 -0.0526 0.0000
0.7895 0.0526 0.0000
0.7895 0.1579 0.0000
0.7895 0.2632 0.0000
0.7895 0.3684 0.0000
0.7895 0.4737 0.0000
0.7895 0.5789 0.0000
0.7895 0.6842 0.0000
0.7895 0.7895 0.0000
0.7895 0.8947 0.0000
0.7895 1.0000 0.0000
0.8947 -0.8947 0.0000
0.8947 -0.7895 0.0000
0.8947 -0.6842 0.0000
0.8947 -0.5789 0.0000
0.8947 -0.4737 0.0000
0.8947 -0.3684 0.0000
0.8947 -0.2632 0.0000
0.8947 -0.1579 0.0000
0.8947 -0.0526 0.0000
0.8947 0.0526 0.0000
0.8947 0.1579 0.0000
0.8947 0.2632 0.0000
0.8947 0.3684 0.0000
0.8947 0.4737 0.0000
0.8947 0.5789 0.0000
0.8947 0.6842 0.0000
0.8947 0.7895 0.0000
0.8947 0.8947 0.0000
0.8947 1.0000 0.0000
-0.2632 -0.1579 0.0000
-0.2632 0.1579 0.0000
-0.2632 0.2632 0.0000
-0.0526 0.3684 0.0000
0.0526 0.3684 0.0000
1.0000 -0.8947 0.0000
1.0000 -0.7895 0.0000
1.0000 -0.6842 0.0000
1.0000 -0.5789 0.0000
1.0000 -0.4737 0.0000
1.0000 -0.3684 0.0000
1.0000 -0.2632 0.0000
1.0000 -0.1579 0.0000
1.0000 -0.0526 0.0000
1.0000 0.0526 0.0000
1.0000 0.1579 0.0000
1.0000 0.2632 0.0000
1.0000 0.3684 0.0000
1.0000 0.4737 0.0000
1.0000 0.5789 0.0000
1.0000 0.6842 0.0000
1.0000 0.7895 0.0000
1.0000 0.8947 0.0000
1.0000 1.0000 0.0000
-0.8947 -1.0000 0.0000
-0.7895 -1.0000 0.0000
-0.6842 -1.0000 0.0000
-0.5789 -1.0000 0.0000
-0.4737 -1.0000 0.0000
-0.3684 -1.0000 0.0000
-0.2632 -1.0000 0.0000
-0.1579 -1.0000 0.0000
-0.1579 0.2632 0.0000
-0.0526 -1.0000 0.0000
0.0526 -1.0000 0.0000
0.1579 -1.0000 0.0000
0.1579 0.2632 0.0000
0.2632 -1.0000 0.0000
0.3684 -1.0000 0.0000
0.4737 -1.0000 0.0000
0.5789 -1.0000 0.0000
0.6842 -1.0000 0.0000
0.7895 -1.0000 0.0000
0.8947 -1.0000 0.0000
1.0000 -1.0000 0.0000
-1.0000 -1.0000 0.0000
0.2632 0.1579 0.0000
-0.9474 -0.9474 0.0000
-0.9474 -0.8421 0.0000
-0.9474 -0.7368 0.0000
-0.9474 -0.6316 0.0000
-0.9474 -0.5263 0.0000
-0.9474 -0.4211 0.0000
-0.9474 -0.3158 0.0000
-0.9474 -0.2105 0.0000
-0.9474 -0.1053 0.0000
-0.9474 0.0000 0.0000
-0.9474 0.1053 0.0000
-0.9474 0.2105 0.0000
-0.9474 0.3158 0.0000
-0.9474 0.4211 0.0000
-0.9474 0.5263 0.0000
-0.9474 0.6316 0.0000
-0.9474 0.7368 0.0000
-0.9474 0.8421 0.0000
-0.9474 0.9474 0.0000
-0.8421 -0.9474 0.0000
-0.8421 -0.8421 0.0000
-0.8421 -0.7368 0.0000
-0.8421 -0.6316 0.0000
-0.8421 -0.5263 0.0000
-0.8421 -0.4211 0.0000
-0.8421 -0.3158 0.0000
-0.8421 -0.2105 0.0000
-0.8421 -0.1053 0.0000
-0.8421 0.0000 0.0000
-0.8421 0.1053 0.0000
-0.8421 0.2105 0.0000
-0.8421 0.3158 0.0000
-0.8421 0.4211 0.0000
-0.8421 0.5263 0.0000
-0.8421 0.6316 0.0000
-0.8421 0.7368 0.0000
-0.8421 0.8421 0.0000
-0.8421 0.9474 0.0000
-0.7368 -0.9474 0.0000
-0.7368 -0.8421 0.0000
-0.7368 -0.7368 0.0000
-0.7368 -0.6316 0.0000
-0.7368 -0.5263 0.0000
-0.7368 -0.4211 0.0000
-0.7368 -0.3158 0.0000
-0.7368 -0.2105 0.0000
-0.7368 -0.1053 0.0000
-0.7368 0.0000 0.0000
-0.7368 0.1053 0.0000
-0.7368 0.2105 0.0000
-0.7368 0.3158 0.0000
-0.7368 0.4211 0.0000
-0.7368 0.5263 0.0000
-0.7368 0.6316 0.0000
-0.7368 0.7368 0.0000
-0.7368 0.8421 0.0000
-0.7368 0.9474 0.0000
-0.6316 -0.9474 0.0000
-0.6316 -0.8421 0.0000
-0.6316 -0.7368 0.0000
-0.6316 -0.6316 0.0000
-0.6316 -0.5263 0.0000
-0.6316 -0.4211 0.0000
[...]
         <PointData>
            <DataArray Name="fValues" NumberOfComponents="3" format="ascii" type="Float64">
 9.19798e-01 -1.98460e-02        00000 
 8.79267e-01 -1.67871e-02        00000 
 8.36335e-01 -1.20727e-02        00000 
 7.96247e-01 -5.60145e-03        00000 
 7.54053e-01 -2.36294e-03        00000 
 6.95347e-01  2.27189e-03        00000 
 6.35130e-01  7.04147e-03        00000 
 5.76198e-01  1.32420e-02        00000 
 5.21549e-01  1.72240e-02        00000 
 4.65240e-01  1.50938e-02        00000 
 4.11557e-01  1.41511e-02        00000 
 3.59625e-01  1.39489e-02        00000 
 3.05073e-01  1.11602e-02        00000 
 2.46701e-01  9.05002e-03        00000 
 2.04037e-01  7.26368e-03        00000 
 1.59316e-01  6.82127e-03        00000 
 1.07158e-01  7.70262e-03        00000 
 5.70236e-02  8.17793e-03        00000 
 1.86506e-02 -1.01374e-03        00000 
 8.85951e-01 -2.66353e-03        00000 
 8.46342e-01 -3.28897e-04        00000 
 8.06734e-01  2.00574e-03        00000 
 7.70521e-01  6.94498e-03        00000 
 7.34493e-01  9.46879e-03        00000 
 6.84890e-01  1.22926e-02        00000 
 6.23777e-01  1.50955e-02        00000 
 5.64358e-01  1.97389e-02        00000 
 5.07283e-01  2.32465e-02        00000 
 4.50857e-01  1.89256e-02        00000 
 3.97748e-01  1.80983e-02        00000 
 3.45816e-01  1.78962e-02        00000 
 2.90906e-01  1.73545e-02        00000 
 2.38105e-01  1.33124e-02        00000 
 1.97369e-01  1.21610e-02        00000 
 1.47179e-01  1.26919e-02        00000 
 9.50206e-02  1.35733e-02        00000 
 5.29545e-02  1.19747e-02        00000 
 1.34326e-02 -1.50583e-03        00000 
 8.50656e-01  1.37413e-02        00000 
 8.11047e-01  1.60759e-02        00000 
 7.71439e-01  1.84105e-02        00000 
 7.36826e-01  2.45767e-02        00000 
 7.01370e-01  2.80753e-02        00000 
 6.64757e-01  2.96026e-02        00000 
 6.12512e-01  3.01043e-02        00000 
 5.53757e-01  3.22074e-02        00000 
 4.94535e-01  3.68954e-02        00000 
 4.37469e-01  3.29113e-02        00000 
 3.84102e-01  2.98845e-02        00000 
 3.32123e-01  2.74448e-02        00000 
 2.75137e-01  2.30513e-02        00000 
 2.30749e-01  1.88917e-02        00000 
 1.87201e-01  1.76812e-02        00000 
 1.35042e-01  1.85626e-02        00000 
 8.54797e-02  1.89233e-02        00000 
 4.77366e-02  1.14826e-02        00000 
 8.21470e-03 -1.99792e-03        00000 
 8.09486e-01  2.29729e-02        00000 
 7.75752e-01  3.24807e-02        00000 
 7.36428e-01  3.50330e-02        00000 
 7.03130e-01  4.22083e-02        00000 
 6.70215e-01  4.80138e-02        00000 
 6.35789e-01  5.10215e-02        00000 
 5.97735e-01  5.29864e-02        00000 
 5.43296e-01  5.40432e-02        00000 
 4.81406e-01  5.44085e-02        00000 
 4.24080e-01  4.68970e-02        00000 
 3.70499e-01  4.37795e-02        00000 
 3.18056e-01  4.07008e-02        00000 
 2.59573e-01  3.30446e-02        00000 
 2.17998e-01  2.98116e-02        00000 
 1.73735e-01  2.81766e-02        00000 
 1.21913e-01  2.78870e-02        00000 
 8.13977e-02  2.50203e-02        00000 
 4.22056e-02  1.12580e-02        00000 
 2.99677e-03 -2.49001e-03        00000 
 7.59896e-01  2.19230e-02        00000 
 7.30807e-01  3.62332e-02        00000 
 7.03044e-01  5.08588e-02        00000 
 6.74557e-01  6.25909e-02        00000 
 6.43130e-01  7.07066e-02        00000 
 6.08705e-01  7.37143e-02        00000 
 5.73596e-01  7.65258e-02        00000 
 5.29784e-01  7.68364e-02        00000 
 4.69357e-01  7.50650e-02        00000 
 4.06988e-01  6.69640e-02        00000 
 3.56771e-01  5.78674e-02        00000 
 3.02783e-01  5.20607e-02        00000 
 2.44616e-01  4.32375e-02        00000 
 2.05247e-01  4.07315e-02        00000 
 1.60102e-01  3.92535e-02        00000 
 1.12758e-01  3.81426e-02        00000 
 7.47135e-02  2.57809e-02        00000 
 3.55214e-02  1.20186e-02        00000 
 3.58842e-04  1.03147e-04        00000 
 7.10974e-01  1.85013e-02        00000 
 6.81979e-01  3.24782e-02        00000 
 6.55261e-01  4.76546e-02        00000 
 6.30393e-01  6.38050e-02        00000 
 6.05525e-01  7.99554e-02        00000 
 5.78843e-01  9.30168e-02        00000 
 5.47194e-01  9.94149e-02        00000 
 5.05646e-01  1.00376e-01        00000 
 4.56663e-01  9.69988e-02        00000 
 3.89896e-01  8.55818e-02        00000 
 3.39180e-01  7.67857e-02        00000 
 2.86459e-01  6.29809e-02        00000 
 2.31865e-01  5.41574e-02        00000 
 1.92496e-01  5.16514e-02        00000 
 1.46819e-01  5.02602e-02        00000 
 1.07221e-01  4.03038e-02        00000 
 6.80293e-02  2.65415e-02        00000 
 2.64234e-02  1.17944e-02        00000 
 9.78272e-04  4.30967e-03        00000 
 6.62146e-01  1.47462e-02        00000 
 6.33151e-01  2.87231e-02        00000 
 6.07479e-01  4.44504e-02        00000 
 5.82611e-01  6.06008e-02        00000 
 5.57743e-01  7.67513e-02        00000 
 5.32356e-01  9.20192e-02        00000 
 5.04434e-01  1.02968e-01        00000 
 4.72336e-01  1.12716e-01        00000 
 4.31005e-01  1.17724e-01        00000 
 3.72928e-01  1.03395e-01        00000 
 3.21279e-01  9.35493e-02        00000 
 2.67032e-01  7.77608e-02        00000 
 2.18183e-01  6.62637e-02        00000 
 1.79746e-01  6.25713e-02        00000 
 1.39729e-01  5.48268e-02        00000 
 1.00537e-01  4.10645e-02        00000 
 5.24879e-02  2.34856e-02        00000 
 2.70428e-02  1.60009e-02        00000 
 1.71459e-03  7.54231e-03        00000 
 6.09406e-01  7.52569e-03        00000 
 5.82255e-01  2.11505e-02        00000 
 5.57406e-01  3.73333e-02        00000 
 5.32557e-01  5.35162e-02        00000 
 5.07707e-01  6.96990e-02        00000 
 4.82858e-01  8.58819e-02        00000 
 4.55732e-01  9.81869e-02        00000 
 2.01552e-01  8.21301e-02        00000 
 1.64209e-01  6.93065e-02        00000 
 1.30645e-01  5.45399e-02        00000 
 7.85524e-02  3.51769e-02        00000 
 5.31073e-02  2.76922e-02        00000 
 2.77514e-02  1.94649e-02        00000 
 2.72352e-03  9.81693e-03        00000 
 5.57754e-01  6.53768e-03        00000 
 5.30926e-01  1.18896e-02        00000 
 5.06077e-01  2.80725e-02        00000 
 4.81228e-01  4.42553e-02        00000 
 4.56379e-01  6.04382e-02        00000 
 4.31529e-01  7.66210e-02        00000 
 4.05699e-01  9.11326e-02        00000 
 1.67602e-01  7.66941e-02        00000 
 1.35611e-01  5.97042e-02        00000 
 9.94253e-02  4.26837e-02        00000 
 8.03882e-02  3.73576e-02        00000 
 5.53034e-02  2.88639e-02        00000 
 3.03775e-02  1.90461e-02        00000 
 5.45162e-03  9.22834e-03        00000 
 5.03721e-01  9.41852e-03        00000 
 4.76554e-01  1.35766e-02        00000 
 4.50852e-01  1.94981e-02        00000 
 4.28594e-01  3.47803e-02        00000 
 4.05050e-01  5.11773e-02        00000 
 3.80201e-01  6.73601e-02        00000 
 9.84387e-02  4.07927e-02        00000 
 8.97619e-02  3.83942e-02        00000 
 7.84936e-02  3.64463e-02        00000 
 5.80315e-02  2.82753e-02        00000 
 3.31056e-02  1.84575e-02        00000 
 8.17972e-03  8.63976e-03        00000 
 4.48113e-01  1.20064e-02        00000 
 4.21846e-01  1.65121e-02        00000 
 3.96736e-01  2.19808e-02        00000 
 3.75179e-01  2.83976e-02        00000 
 3.48709e-01  4.25231e-02        00000 
 3.25510e-01  5.75478e-02        00000 
 8.49991e-02  3.58485e-02        00000 
 8.00985e-02  3.41046e-02        00000 
 6.88301e-02  3.21568e-02        00000 
 5.79701e-02  2.68067e-02        00000 
 3.58337e-02  1.78689e-02        00000 
 1.09078e-02  8.05117e-03        00000 
 3.91285e-01  1.45662e-02        00000 
 3.72182e-01  1.97136e-02        00000 
 3.52668e-01  2.50509e-02        00000 
 3.32109e-01  3.10233e-02        00000 
 3.11059e-01  3.74321e-02        00000 
 2.81363e-01  5.15200e-02        00000 
 2.49986e-01  6.29695e-02        00000 
 7.65609e-02  3.31852e-02        00000 
 7.25184e-02  3.14688e-02        00000 
 6.84760e-02  2.97523e-02        00000 
 5.91873e-02  2.76957e-02        00000 
 4.83308e-02  2.23165e-02        00000 
 3.74743e-02  1.69373e-02        00000 
 1.36359e-02  7.46259e-03        00000 
 3.43889e-01  1.77406e-02        00000 
 3.24901e-01  2.29080e-02        00000 
 3.05913e-01  2.80753e-02        00000 
 2.86163e-01  3.40443e-02        00000 
 2.66391e-01  4.00349e-02        00000 
 2.44415e-01  4.34446e-02        00000 
 2.11750e-01  5.19332e-02        00000 
 1.78479e-01  6.04079e-02        00000 
 7.17294e-02  3.28100e-02        00000 
 6.40802e-02  2.88055e-02        00000 
 6.00378e-02  2.70890e-02        00000 
 5.59954e-02  2.53725e-02        00000 
 4.95480e-02  2.32055e-02        00000 
 3.86915e-02  1.78263e-02        00000 
 2.78350e-02  1.24471e-02        00000 
 1.63640e-02  6.87401e-03        00000 
 2.96609e-01  2.09350e-02        00000 
 2.77621e-01  2.61023e-02        00000 
 2.58633e-01  3.12697e-02        00000 
 2.39072e-01  3.70389e-02        00000 
 2.16218e-01  3.81905e-02        00000 
 1.93349e-01  3.93174e-02        00000 
 1.67620e-01  4.47810e-02        00000 
 1.33845e-01  5.54627e-02        00000 
 1.11257e-01  4.99818e-02        00000 
 8.63807e-02  4.20088e-02        00000 
 7.18292e-02  3.57711e-02        00000 
 6.27825e-02  3.05618e-02        00000 
 5.69847e-02  2.67325e-02        00000 
 4.75571e-02  2.27092e-02        00000 
 4.35147e-02  2.09927e-02        00000 
 3.95410e-02  1.87036e-02        00000 
 2.90521e-02  1.33361e-02        00000 
 1.81956e-02  7.95689e-03        00000 
 7.33915e-03  2.57766e-03        00000 
 2.49329e-01  2.41294e-02        00000 
 2.30341e-01  2.92967e-02        00000 
 2.10177e-01  3.26185e-02        00000 
 1.87708e-01  3.33244e-02        00000 
 1.64839e-01  3.44513e-02        00000 
 1.39532e-01  4.13438e-02        00000 
 1.19844e-01  4.44432e-02        00000 
 1.08224e-01  4.30287e-02        00000 
 7.58546e-02  3.59994e-02        00000 
 6.84379e-02  3.54167e-02        00000 
 6.55113e-02  3.36835e-02        00000 
 5.66600e-02  2.88468e-02        00000 
 4.74094e-02  2.32486e-02        00000 
 4.41625e-02  2.19903e-02        00000 
 3.55854e-02  1.85057e-02        00000 
 2.70844e-02  1.41232e-02        00000 
 1.94128e-02  8.84591e-03        00000 
 8.55631e-03  3.46669e-03        00000 
-2.30019e-03 -1.91253e-03        00000 
 2.02048e-01  2.73237e-02        00000 
 1.80694e-01  2.87755e-02        00000 
 1.58607e-01  2.90791e-02        00000 
 1.34890e-01  3.18151e-02        00000 
 1.13149e-01  3.82823e-02        00000 
 1.02582e-01  3.81347e-02        00000 
 9.30730e-02  3.82529e-02        00000 
 7.17094e-02  3.54848e-02        00000 
 5.49337e-02  3.00050e-02        00000 
 4.83414e-02  2.79661e-02        00000 
 5.10884e-02  3.14686e-02        00000 
 4.94369e-02  2.71409e-02        00000 
 4.14908e-02  2.19226e-02        00000 
 3.64443e-02  1.77686e-02        00000 
 3.37923e-02  1.76650e-02        00000 
 2.41487e-02  1.35021e-02        00000 
 1.32275e-02  5.79207e-03        00000 
-1.08303e-03 -1.02351e-03        00000 
-1.19395e-02 -6.40273e-03        00000 
 1.51210e-01  2.49325e-02        00000 
 1.29124e-01  2.52361e-02        00000 
 1.09429e-01  2.98883e-02        00000 
 9.39368e-02  3.39040e-02        00000 
 8.55397e-02  3.32771e-02        00000 
 7.71663e-02  3.34215e-02        00000 
 5.71723e-02  3.09602e-02        00000 
 5.18020e-02  2.99030e-02        00000 
 4.31357e-02  2.64432e-02        00000 
 3.59912e-02  2.33589e-02        00000 
 3.22081e-02  2.32153e-02        00000 
 3.27683e-02  2.57766e-02        00000 
 3.11167e-02  2.14489e-02        00000 
 2.81588e-02  1.72065e-02        00000 
 2.57233e-02  1.23901e-02        00000 
 2.35900e-02  1.21535e-02        00000 
 1.30311e-02  5.84040e-03        00000 
-2.29887e-03 -2.01076e-03        00000 
-1.92223e-02 -9.91294e-03        00000 
 1.04656e-01  2.26146e-02        00000 
 8.71417e-02  2.83547e-02        00000 
 7.63087e-02  2.88655e-02        00000 
 6.84972e-02  2.84194e-02        00000 
 6.01238e-02  2.85638e-02        00000 
 4.35218e-02  2.59987e-02        00000 
 3.94737e-02  2.50522e-02        00000 
 4.12699e-02  2.59074e-02        00000 
 3.40256e-02  2.29856e-02        00000 
 2.71178e-02  2.01164e-02        00000 
 2.04651e-02  1.73233e-02        00000 
 1.91827e-02  1.92810e-02        00000 
 1.79957e-02  1.99609e-02        00000 
 1.88699e-02  1.80607e-02        00000 
 1.93846e-02  1.53868e-02        00000 
 1.80601e-02  1.14238e-02        00000 
 1.39697e-02  4.54383e-03        00000 
 6.06346e-04 -2.52542e-03        00000 
-1.78252e-02 -9.81359e-03        00000 
 6.58202e-02  2.59741e-02        00000 
 5.85666e-02  2.47431e-02        00000 
 5.13399e-02  2.36825e-02        00000 
 4.30813e-02  2.37062e-02        00000 
 2.98714e-02  2.10372e-02        00000 
 2.81685e-02  1.98312e-02        00000 
 3.02444e-02  2.07899e-02        00000 
 3.14908e-02  2.14417e-02        00000 
 2.52202e-02  1.98049e-02        00000 
 1.83160e-02  1.69419e-02        00000 
 1.16571e-02  1.40868e-02        00000 
 5.14208e-03  1.12992e-02        00000 
 6.15722e-03  1.53468e-02        00000 
 1.00622e-02  1.68152e-02        00000 
 1.30968e-02  1.58135e-02        00000 
 1.24947e-02  1.34243e-02        00000 
 7.38723e-03  1.03740e-02        00000 
-9.26018e-05  1.98931e-04        00000 
-1.42198e-02 -9.10868e-03        00000 
 4.26599e-01  1.08814e-01        00000 
 2.98143e-01  1.06202e-01        00000 
 2.47605e-01  9.25407e-02        00000 
 1.29051e-01  5.81461e-02        00000 
 9.18784e-02  3.92346e-02        00000 
 4.08245e-02  2.06207e-02        00000 
 3.35978e-02  1.95601e-02        00000 
 2.60389e-02  1.88485e-02        00000 
 1.64776e-02  1.62996e-02        00000 
 1.73655e-02  1.51267e-02        00000 
 1.93316e-02  1.59725e-02        00000 
 2.12977e-02  1.68182e-02        00000 
 2.20476e-02  1.73214e-02        00000 
 1.59945e-02  1.59082e-02        00000 
 9.51419e-03  1.37674e-02        00000 
 2.92218e-03  1.09161e-02        00000 
-3.66307e-03  8.06526e-03        00000 
-9.34867e-03  6.76903e-03        00000 
-1.83879e-03  1.43850e-02        00000 
 5.38446e-04  1.44479e-02        00000 
 2.11753e-03  1.33995e-02        00000 
 3.06920e-03  1.28675e-02        00000 
-5.13076e-03  7.48571e-03        00000 
-1.43217e-02 -4.15131e-03        00000 
 9.25560e-01 -4.99817e-03        00000 
 8.88347e-01  9.06576e-03        00000 
 8.38757e-01  8.01589e-03        00000 
 7.88176e-01  6.64305e-03        00000 
 7.36195e-01  3.29534e-03        00000 
 6.83933e-01  7.45545e-05        00000 
 6.35063e-01  1.54274e-03        00000 
 5.83664e-01  2.33020e-03        00000 
 2.10347e-01  9.29090e-02        00000 
 5.30889e-01  5.26043e-03        00000 
 4.75280e-01  7.84833e-03        00000 
 4.17665e-01  1.03899e-02        00000 
 8.53181e-02  3.76765e-02        00000 
 3.63877e-01  1.29591e-02        00000 
 3.15597e-01  1.57677e-02        00000 
 2.68317e-01  1.89620e-02        00000 
 2.21036e-01  2.21564e-02        00000 
 1.73296e-01  2.46288e-02        00000 
 1.22749e-01  2.12683e-02        00000 
 8.23494e-02  2.10879e-02        00000 
 4.80512e-02  2.16813e-02        00000 
 9.59120e-01 -2.23347e-02        00000 
 8.31365e-02  3.98442e-02        00000 
 9.23403e-01 -1.20333e-02        00000 
 8.83794e-01 -9.69862e-03        00000 
 8.44186e-01 -7.36398e-03        00000 
 8.04577e-01 -5.02934e-03        00000 
 7.66728e-01  1.83073e-03        00000 
 7.20580e-01  5.56027e-03        00000 
 6.59466e-01  8.36312e-03        00000 
 5.99445e-01  1.23514e-02        00000 
 5.40369e-01  1.80512e-02        00000 
 4.86142e-01  1.79466e-02        00000 
 4.30619e-01  1.62258e-02        00000 
 3.78686e-01  1.60236e-02        00000 
 3.25941e-01  1.47022e-02        00000 
 2.68786e-01  1.32312e-02        00000 
 2.21071e-01  1.02881e-02        00000 
 1.79327e-01  9.31592e-03        00000 
 1.27168e-01  1.01973e-02        00000 
 7.51682e-02  1.10469e-02        00000 
 3.58025e-02  5.48048e-03        00000 
 8.88108e-01  4.37155e-03        00000 
 8.48499e-01  6.70619e-03        00000 
 8.08891e-01  9.04082e-03        00000 
 7.70322e-01  1.21732e-02        00000 
 7.36238e-01  1.80084e-02        00000 
 6.99625e-01  1.95357e-02        00000 
 6.48899e-01  2.01287e-02        00000 
 5.88634e-01  2.24223e-02        00000 
 5.29955e-01  2.78920e-02        00000 
 4.72376e-01  2.80789e-02        00000 
 4.16893e-01  2.41568e-02        00000 
 3.64914e-01  2.17172e-02        00000 
 3.12055e-01  1.98176e-02        00000 
 2.55140e-01  1.63368e-02        00000 
 2.14403e-01  1.51854e-02        00000 
 1.67190e-01  1.51866e-02        00000 
 1.15031e-01  1.60679e-02        00000 
 6.80676e-02  1.59794e-02        00000 
 3.05846e-02  4.98840e-03        00000 
 8.48917e-01  1.60193e-02        00000 
 8.13204e-01  2.31110e-02        00000 
 7.73596e-01  2.54456e-02        00000 
 7.36627e-01  2.98048e-02        00000 
 7.03115e-01  3.66149e-02        00000 
 6.66544e-01  3.81712e-02        00000 
 6.31710e-01  4.10614e-02        00000 
 5.77904e-01  4.20737e-02        00000 
 5.18799e-01  4.37975e-02        00000 
 4.58987e-01  4.20646e-02        00000 
 4.03290e-01  3.80519e-02        00000 
 3.51311e-01  3.56122e-02        00000 
 2.97076e-01  3.17618e-02        00000 
 2.44057e-01  2.56047e-02        00000 
 2.04689e-01  2.30986e-02        00000 
 1.54640e-01  2.24933e-02        00000 
 1.03564e-01  2.20540e-02        00000 
 6.48886e-02  1.79768e-02        00000 
 2.53667e-02  4.49631e-03        00000 
 7.99327e-01  1.49694e-02        00000 
 7.70056e-01  2.99264e-02        00000 
 7.38301e-01  4.18504e-02        00000 
 7.04433e-01  4.82430e-02        00000 
 6.73061e-01  5.64525e-02        00000 
 6.39460e-01  6.08641e-02        00000 
 6.05034e-01  6.38718e-02        00000 
 5.63759e-01  6.49114e-02        00000 
 5.08688e-01  6.60126e-02        00000 
 4.42105e-01  6.17861e-02        00000 
 3.89688e-01  5.19469e-02        00000 
 3.37709e-01  4.95072e-02        00000 
 2.81118e-01  4.24036e-02        00000 
 2.31307e-01  3.65246e-02        00000 
 1.91938e-01  3.40185e-02        00000 
 1.41007e-01  3.35703e-02        00000 
 9.73533e-02  3.19176e-02        00000 
 5.84595e-02  1.85195e-02        00000 
 1.92674e-02  4.75717e-03        00000 
 7.49886e-01  1.33903e-02        00000 
 7.20891e-01  2.73672e-02        00000 
 6.91896e-01  4.13442e-02        00000 
 6.66718e-01  5.73319e-02        00000 
 6.41850e-01  7.34823e-02        00000 
 6.12375e-01  8.35569e-02        00000 
 5.77949e-01  8.65646e-02        00000 
 5.39621e-01  8.84508e-02        00000 
 4.95809e-01  8.87614e-02        00000 
 4.25685e-01  8.13081e-02        00000 
 3.72016e-01  7.18519e-02        00000 
 3.23515e-01  6.35197e-02        00000 
 2.65521e-01  5.24524e-02        00000 
 2.18556e-01  4.74445e-02        00000 
 1.79188e-01  4.49384e-02        00000 
 1.29397e-01  4.42416e-02        00000 
 9.09674e-02  3.30424e-02        00000 
 5.17753e-02  1.92801e-02        00000 
 1.33911e-02  5.94877e-03        00000 
 6.99905e-01  9.24315e-03        00000 
 6.72062e-01  2.36122e-02        00000 
 6.43805e-01  3.79773e-02        00000 
 6.18936e-01  5.41277e-02        00000 
 5.94068e-01  7.02781e-02        00000 
 5.69200e-01  8.64286e-02        00000 
 5.41639e-01  9.79923e-02        00000 
 5.12760e-01  1.08666e-01        00000 
 4.71671e-01  1.12301e-01        00000 
 4.13909e-01  1.00147e-01        00000 
 3.54955e-01  8.96250e-02        00000 
 3.04137e-01  7.84758e-02        00000 
 2.49230e-01  6.33723e-02        00000 
 2.05805e-01  5.83643e-02        00000 
 1.65563e-01  5.60137e-02        00000 
 1.23475e-01  4.75653e-02        00000 
 8.42832e-02  3.38030e-02        00000 
 3.94556e-02  1.76400e-02        00000 
 1.40105e-02  1.01553e-02        00000 
 6.47419e-01  5.07998e-03        00000 
 6.22834e-01  1.91742e-02        00000 
 5.95495e-01  3.38724e-02        00000 
 5.70646e-01  5.00552e-02        00000 
 5.45796e-01  6.62380e-02        00000 
 5.20947e-01  8.24209e-02        00000 
 4.94700e-01  9.62236e-02        00000 