<?xml version="1.0" encoding="utf-8"?>
<VTKFile byte_order="LittleEndian" type="UnstructuredGrid" version="0.1">
   <UnstructuredGrid>
      <Piece NumberOfCells="9064" NumberOfPoints="4760">
         <Points>
            <DataArray Name="Points" NumberOfComponents="3" format="ascii" type="Float32">
-1.0000 -0.9592 0.0000
-1.0000 -0.9184 0.0000
-1.0000 -0.8776 0.0000
-1.0000 -0.8367 0.0000
-1.0000 -0.7959 0.0000
-1.0000 -0.7551 0.0000
-1.0000 -0.7143 0.0000
-1.0000 -0.6735 0.0000
-1.0000 -0.6327 0.0000
-1.0000 -0.5918 0.0000
-1.0000 -0.5510 0.0000
-1.0000 -0.5102 0.0000
-1.0000 -0.4694 0.0000
-1.0000 -0.4286 0.0000
-1.0000 -0.3878 0.0000
-1.0000 -0.3469 0.0000
-1.0000 -0.3061 0.0000
-1.0000 -0.2653 0.0000
-1.0000 -0.2245 0.0000
-1.0000 -0.1837 0.0000
-1.0000 -0.1429 0.0000
-1.0000 -0.1020 0.0000
-1.0000 -0.0612 0.0000
-1.0000 -0.0204 0.0000
-1.0000 0.0204 0.0000
-1.0000 0.0612 0.0000
-1.0000 0.1020 0.0000
-1.0000 0.1429 0.0000
-1.0000 0.1837 0.0000
-1.0000 0.2245 0.0000
-1.0000 0.2653 0.0000
-1.0000 0.3061 0.0000
-1.0000 0.3469 0.0000
-1.0000 0.3878 0.0000
-1.0000 0.4286 0.0000
-1.0000 0.4694 0.0000
-1.0000 0.5102 0.0000
-1.0000 0.5510 0.0000
-1.0000 0.5918 0.0000
-1.0000 0.6327 0.0000
-1.0000 0.6735 0.0000
-1.0000 0.7143 0.0000
-1.0000 0.7551 0.0000
-1.0000 0.7959 0.0000
-1.0000 0.8367 0.0000
-1.0000 0.8776 0.0000
-1.0000 0.9184 0.0000
-1.0000 0.9592 0.0000
-1.0000 1.0000 0.0000
-0.9592 -0.9592 0.0000
-0.9592 -0.9184 0.0000
-0.9592 -0.8776 0.0000
-0.9592 -0.8367 0.0000
-0.9592 -0.7959 0.0000
-0.9592 -0.7551 0.0000
-0.9592 -0.7143 0.0000
-0.9592 -0.6735 0.0000
-0.9592 -0.6327 0.0000
-0.9592 -0.5918 0.0000
-0.9592 -0.5510 0.0000
-0.9592 -0.5102 0.0000
-0.9592 -0.4694 0.0000
-0.9592 -0.4286 0.0000
-0.9592 -0.3878 0.0000
-0.9592 -0.3469 0.0000
-0.9592 -0.3061 0.0000
-0.9592 -0.2653 0.0000
-0.9592 -0.2245 0.0000
-0.9592 -0.1837 0.0000
-0.9592 -0.1429 0.0000
-0.9592 -0.1020 0.0000
-0.9592 -0.0612 0.0000
-0.9592 -0.0204 0.0000
-0.9592 0.0204 0.0000
-0.9592 0.0612 0.0000
-0.9592 0.1020 0.0000
-0.9592 0.1429 0.0000
-0.9592 0.1837 0.0000
-0.9592 0.2245 0.0000
-0.9592 0.2653 0.0000
-0.9592 0.3061 0.0000
-0.9592 0.3469 0.0000
-0.9592 0.3878 0.0000
-0.9592 0.4286 0.0000
-0.9592 0.4694 0.0000
-0.9592 0.5102 0.0000
-0.9592 0.5510 0.0000
-0.9592 0.5918 0.0000
-0.9592 0.6327 0.0000
-0.9592 0.6735 0.0000
-0.9592 0.7143 0.0000
-0.9592 0.7551 0.0000
-0.9592 0.7959 0.0000
-0.9592 0.8367 0.0000
-0.9592 0.8776 0.0000
-0.9592 0.9184 0.0000
-0.9592 0.9592 0.0000
-0.9592 1.0000 0.0000
-0.9184 -0.9592 0.0000
-0.9184 -0.9184 0.0000
-0.9184 -0.8776 0.0000
-0.9184 -0.8367 0.0000
-0.9184 -0.7959 0.0000
-0.9184 -0.7551 0.0000
-0.9184 -0.7143 0.0000
-0.9184 -0.6735 0.0000
-0.9184 -0.6327 0.0000
-0.9184 -0.5918 0.0000
-0.9184 -0.5510 0.0000
-0.9184 -0.5102 0.0000
-0.9184 -0.4694 0.0000
-0.9184 -0.4286 0.0000
-0.9184 -0.3878 0.0000
-0.9184 -0.3469 0.0000
-0.9184 -0.3061 0.0000
-0.9184 -0.2653 0.0000
-0.9184 -0.2245 0.0000
-0.9184 -0.1837 0.0000
-0.9184 -0.1429 0.0000
-0.9184 -0.1020 0.0000
-0.9184 -0.0612 0.0000
-0.9184 -0.0204 0.0000
-0.9184 0.0204 0.0000
-0.9184 0.0612 0.0000
-0.9184 0.1020 0.0000
-0.9184 0.1429 0.0000
-0.9184 0.1837 0.0000
-0.9184 0.2245 0.0000
-0.9184 0.2653 0.0000
-0.9184 0.3061 0.0000
-0.9184 0.3469 0.0000
-0.9184 0.3878 0.0000
-0.9184 0.4286 0.0000
-0.9184 0.4694 0.0000
-0.9184 0.5102 0.0000
-0.9184 0.5510 0.0000
-0.9184 0.5918 0.0000
-0.9184 0.6327 0.0000
-0.9184 0.6735 0.0000
-0.9184 0.7143 0.0000
-0.9184 0.7551 0.0000
-0.9184 0.7959 0.0000
-0.9184 0.8367 0.0000
-0.9184 0.8776 0.0000
-0.9184 0.9184 0.0000
-0.9184 0.9592 0.0000
-0.9184 1.0000 0.0000
-0.8776 -0.9592 0.0000
-0.8776 -0.9184 0.0000
-0.8776 -0.8776 0.0000
-0.8776 -0.8367 0.0000
-0.8776 -0.7959 0.0000
-0.8776 -0.7551 0.0000
-0.8776 -0.7143 0.0000
-0.8776 -0.6735 0.0000
-0.8776 -0.6327 0.0000
-0.8776 -0.5918 0.0000
-0.8776 -0.5510 0.0000
-0.8776 -0.5102 0.0000
-0.8776 -0.4694 0.0000
-0.8776 -0.4286 0.0000
-0.8776 -0.3878 0.0000
-0.8776 -0.3469 0.0000
-0.8776 -0.3061 0.0000
-0.8776 -0.2653 0.0000
-0.8776 -0.2245 0.0000
-0.8776 -0.1837 0.0000
-0.8776 -0.1429 0.0000
-0.8776 -0.1020 0.0000
-0.8776 -0.0612 0.0000
-0.8776 -0.0204 0.0000
-0.8776 0.0204 0.0000
-0.8776 0.0612 0.0000
-0.8776 0.1020 0.0000
-0.8776 0.1429 0.0000
-0.8776 0.1837 0.0000
-0.8776 0.2245 0.0000
-0.8776 0.2653 0.0000
-0.8776 0.3061 0.0000
-0.8776 0.3469 0.0000
-0.8776 0.3878 0.0000
-0.8776 0.4286 0.0000
-0.8776 0.4694 0.0000
-0.8776 0.5102 0.0000
-0.8776 0.5510 0.0000
-0.8776 0.5918 0.0000
-0.8776 0.6327 0.0000
-0.8776 0.6735 0.0000
-0.8776 0.7143 0.0000
-0.8776 0.7551 0.0000
-0.8776 0.7959 0.0000
-0.8776 0.8367 0.0000
-0.8776 0.8776 0.0000
-0.8776 0.9184 0.0000
-0.8776 0.9592 0.0000
-0.8776 1.0000 0.0000
-0.8367 -0.9592 0.0000
-0.8367 -0.9184 0.0000
-0.8367 -0.8776 0.0000
-0.8367 -0.8367 0.0000
-0.8367 -0.7959 0.0000
-0.8367 -0.7551 0.0000
-0.8367 -0.7143 0.0000
-0.8367 -0.6735 0.0000
-0.8367 -0.6327 0.0000
-0.8367 -0.5918 0.0000
-0.8367 -0.5510 0.0000
-0.8367 -0.5102 0.0000
-0.8367 -0.4694 0.0000
-0.8367 -0.4286 0.0000
-0.8367 -0.3878 0.0000
-0.8367 -0.3469 0.0000
-0.8367 -0.3061 0.0000
-0.8367 -0.2653 0.0000
-0.8367 -0.2245 0.0000
-0.8367 -0.1837 0.0000
-0.8367 -0.1429 0.0000
-0.8367 -0.1020 0.0000
-0.8367 -0.0612 0.0000
-0.8367 -0.0204 0.0000
-0.8367 0.0204 0.0000
-0.8367 0.0612 0.0000
-0.8367 0.1020 0.0000
-0.8367 0.1429 0.0000
-0.8367 0.1837 0.0000
-0.8367 0.2245 0.0000
-0.8367 0.2653 0.0000
-0.8367 0.3061 0.0000
-0.8367 0.3469 0.0000
-0.8367 0.3878 0.0000
-0.8367 0.4286 0.0000
-0.8367 0.4694 0.0000
-0.8367 0.5102 0.0000
-0.8367 0.5510 0.0000
-0.8367 0.5918 0.0000
-0.8367 0.6327 0.0000
-0.8367 0.6735 0.0000
-0.8367 0.7143 0.0000
-0.8367 0.7551 0.0000
-0.8367 0.7959 0.0000
-0.8367 0.8367 0.0000
-0.8367 0.8776 0.0000
-0.8367 0.9184 0.0000
-0.8367 0.9592 0.0000
-0.8367 1.0000 0.0000
-0.7959 -0.9592 0.0000
-0.7959 -0.9184 0.0000
-0.7959 -0.8776 0.0000
-0.7959 -0.8367 0.0000
-0.7959 -0.7959 0.0000
-0.7959 -0.7551 0.0000
-0.7959 -0.7143 0.0000
-0.7959 -0.6735 0.0000
-0.7959 -0.6327 0.0000
-0.7959 -0.5918 0.0000
-0.7959 -0.5510 0.0000
-0.7959 -0.5102 0.0000
-0.7959 -0.4694 0.0000
-0.7959 -0.4286 0.0000
-0.7959 -0.3878 0.0000
-0.7959 -0.3469 0.0000
-0.7959 -0.3061 0.0000
-0.7959 -0.2653 0.0000
-0.7959 -0.2245 0.0000
-0.7959 -0.1837 0.0000
-0.7959 -0.1429 0.0000
-0.7959 -0.1020 0.0000
-0.7959 -0.0612 0.0000
-0.7959 -0.0204 0.0000
-0.7959 0.0204 0.0000
-0.7959 0.0612 0.0000
-0.7959 0.1020 0.0000
-0.7959 0.1429 0.0000
-0.7959 0.1837 0.0000
-0.7959 0.2245 0.0000
-0.7959 0.2653 0.0000
-0.7959 0.3061 0.0000
-0.7959 0.3469 0.0000
-0.7959 0.3878 0.0000
-0.7959 0.4286 0.0000
-0.7959 0.4694 0.0000
-0.7959 0.5102 0.0000
-0.7959 0.5510 0.0000
-0.7959 0.5918 0.0000
-0.7959 0.6327 0.0000
-0.7959 0.6735 0.0000
-0.7959 0.7143 0.0000
-0.7959 0.7551 0.0000
-0.7959 0.7959 0.0000
-0.7959 0.8367 0.0000
-0.7959 0.8776 0.0000
-0.7959 0.9184 0.0000
-0.7959 0.9592 0.0000
-0.7959 1.0000 0.0000
-0.7551 -0.9592 0.0000
-0.7551 -0.9184 0.0000
-0.7551 -0.8776 0.0000
-0.7551 -0.8367 0.0000
-0.7551 -0.7959 0.0000
-0.7551 -0.7551 0.0000
-0.7551 -0.7143 0.0000
-0.7551 -0.6735 0.0000
-0.7551 -0.6327 0.0000
-0.7551 -0.5918 0.0000
-0.7551 -0.5510 0.0000
-0.7551 -0.5102 0.0000
-0.7551 -0.4694 0.0000
-0.7551 -0.4286 0.0000
-0.7551 -0.3878 0.0000
-0.7551 -0.3469 0.0000
-0.7551 -0.3061 0.0000
-0.7551 -0.2653 0.0000
-0.7551 -0.2245 0.0000
-0.7551 -0.1837 0.0000
-0.7551 -0.1429 0.0000
-0.7551 -0.1020 0.0000
-0.7551 -0.0612 0.0000
-0.7551 -0.0204 0.0000
-0.7551 0.0204 0.0000
-0.7551 0.0612 0.0000
-0.7551 0.1020 0.0000
-0.7551 0.1429 0.0000
-0.7551 0.1837 0.0000
-0.7551 0.2245 0.0000
-0.7551 0.2653 0.0000
-0.7551 0.3061 0.0000
-0.7551 0.3469 0.0000
-0.7551 0.3878 0.0000
-0.7551 0.4286 0.0000
-0.7551 0.4694 0.0000
-0.7551 0.5102 0.0000
-0.7551 0.5510 0.0000
-0.7551 0.5918 0.0000
-0.7551 0.6327 0.0000
-0.7551 0.6735 0.0000
-0.7551 0.7143 0.0000
-0.7551 0.7551 0.0000
-0.7551 0.7959 0.0000
-0.7551 0.8367 0.0000
-0.7551 0.8776 0.0000
-0.7551 0.9184 0.0000
-0.7551 0.9592 0.0000
-0.7551 1.0000 0.0000
-0.7143 -0.9592 0.0000
-0.7143 -0.9184 0.0000
-0.7143 -0.8776 0.0000
-0.7143 -0.8367 0.0000
-0.7143 -0.7959 0.0000
-0.7143 -0.7551 0.0000
-0.7143 -0.7143 0.0000
-0.7143 -0.6735 0.0000
-0.7143 -0.6327 0.0000
-0.7143 -0.5918 0.0000
-0.7143 -0.5510 0.0000
-0.7143 -0.5102 0.0000
-0.7143 -0.4694 0.0000
-0.7143 -0.4286 0.0000
-0.7143 -0.3878 0.0000
-0.7143 -0.3469 0.0000
-0.7143 -0.3061 0.0000
-0.7143 -0.2653 0.0000
-0.7143 -0.2245 0.0000
-0.7143 -0.1837 0.0000
-0.7143 -0.1429 0.0000
-0.7143 -0.1020 0.0000
-0.7143 -0.0612 0.0000
-0.7143 -0.0204 0.0000
-0.7143 0.0204 0.0000
-0.7143 0.0612 0.0000
-0.7143 0.1020 0.0000
-0.7143 0.1429 0.0000
-0.7143 0.1837 0.0000
-0.7143 0.2245 0.0000
-0.7143 0.2653 0.0000
-0.7143 0.3061 0.0000
-0.7143 0.3469 0.0000
-0.7143 0.3878 0.0000
-0.7143 0.4286 0.0000
-0.7143 0.4694 0.0000
-0.7143 0.5102 0.0000
-0.7143 0.5510 0.0000
-0.7143 0.5918 0.0000
-0.7143 0.6327 0.0000
-0.7143 0.6735 0.0000
-0.7143 0.7143 0.0000
-0.7143 0.7551 0.0000
-0.7143 0.7959 0.0000
-0.7143 0.8367 0.0000
-0.7143 0.8776 0.0000
-0.7143 0.9184 0.0000
-0.7143 0.9592 0.0000
-0.7143 1.0000 0.0000
-0.6735 -0.9592 0.0000
-0.6735 -0.9184 0.0000
-0.6735 -0.8776 0.0000
-0.6735 -0.8367 0.0000
-0.6735 -0.7959 0.0000
-0.6735 -0.7551 0.0000
-0.6735 -0.7143 0.0000
-0.6735 -0.6735 0.0000
-0.6735 -0.6327 0.0000
-0.6735 -0.5918 0.0000
-0.6735 -0.5510 0.0000
-0.6735 -0.5102 0.0000
-0.6735 -0.4694 0.0000
-0.6735 -0.4286 0.0000
-0.6735 -0.3878 0.0000
-0.6735 -0.3469 0.0000
-0.6735 -0.3061 0.0000
-0.6735 -0.2653 0.0000
-0.6735 -0.2245 0.0000
-0.6735 -0.1837 0.0000
-0.6735 -0.1429 0.0000
-0.6735 -0.1020 0.0000
-0.6735 -0.0612 0.0000
-0.6735 -0.0204 0.0000
-0.6735 0.0204 0.0000
-0.6735 0.0612 0.0000
-0.6735 0.1020 0.0000
-0.6735 0.1429 0.0000
-0.6735 0.1837 0.0000
-0.6735 0.2245 0.0000
-0.6735 0.2653 0.0000
-0.6735 0.3061 0.0000
-0.6735 0.3469 0.0000
-0.6735 0.3878 0.0000
-0.6735 0.4286 0.0000
-0.6735 0.4694 0.0000
-0.6735 0.5102 0.0000
-0.6735 0.5510 0.0000
-0.6735 0.5918 0.0000
[...]
         <PointData>
            <DataArray Name="fValues" NumberOfComponents="3" format="ascii" type="Float64">
 1.21575e-03 -3.48265e-04        00000 
-3.63253e-04 -1.31993e-03        00000 
-1.23391e-03 -2.52906e-03        00000 
-6.65930e-04 -2.24488e-03        00000 
-5.83666e-04 -1.31461e-03        00000 
-7.62555e-04 -1.02079e-03        00000 
-3.98371e-04  1.34633e-03        00000 
-2.36231e-04  1.45974e-03        00000 
 4.03958e-04  1.48750e-03        00000 
-2.22790e-04  1.39282e-03        00000 
-1.28421e-03  1.20207e-03        00000 
-1.30126e-03  1.61324e-03        00000 
-1.13339e-03  3.22339e-03        00000 
-1.19315e-03  4.78134e-03        00000 
-1.16148e-03  4.57032e-03        00000 
-7.17881e-04  3.03325e-03        00000 
 1.31714e-05  7.94864e-04        00000 
 3.71694e-04  9.15952e-04        00000 
 4.33731e-04  2.41537e-03        00000 
 3.20900e-04  2.07095e-03        00000 
 2.34717e-04  1.24772e-03        00000 
 7.39144e-04  2.43641e-04        00000 
 9.30177e-04 -5.10314e-04        00000 
 1.34411e-03 -9.78946e-04        00000 
 1.78467e-03 -2.45252e-03        00000 
 2.19317e-03 -4.00498e-03        00000 
 1.05017e-03 -4.40564e-03        00000 
-7.82747e-05 -4.34728e-03        00000 
-4.69588e-04 -4.38490e-03        00000 
-1.17393e-03 -4.46451e-03        00000 
-1.37154e-03 -3.90173e-03        00000 
-9.66559e-04 -3.09436e-03        00000 
-1.16623e-03 -3.08772e-03        00000 
-7.44662e-04 -2.36663e-03        00000 
 4.79021e-05 -1.66077e-03        00000 
 5.03019e-04 -7.59962e-04        00000 
 7.67823e-04  2.98554e-04        00000 
 6.42997e-04  4.42938e-04        00000 
-3.30607e-04  1.04235e-03        00000 
-9.38781e-04  1.98004e-03        00000 
-1.31127e-03  2.59525e-03        00000 
-1.22415e-03  2.32690e-03        00000 
-1.30080e-03  2.29882e-03        00000 
-2.00825e-03  2.00949e-03        00000 
-3.50308e-03  1.01811e-03        00000 
-4.81763e-03 -5.65354e-04        00000 
-4.39730e-03 -1.72983e-03        00000 
-1.18812e-03  8.46387e-04        00000 
 1.75425e-03  3.76317e-03        00000 
 1.97518e-03  4.51398e-04        00000 
 9.34604e-04 -5.89236e-04        00000 
 2.05038e-03 -1.44511e-03        00000 
 2.86150e-03 -1.00425e-03        00000 
 2.44960e-03  2.92115e-04        00000 
 1.30469e-03  1.60937e-03        00000 
 1.16416e-03  2.21821e-03        00000 
 1.81091e-03  1.86394e-03        00000 
 2.15646e-03  1.89175e-03        00000 
 1.39406e-03  2.44391e-03        00000 
 2.26342e-04  3.51445e-03        00000 
 6.02659e-05  5.69812e-03        00000 
-2.83368e-04  7.55194e-03        00000 
 5.03634e-04  9.11085e-03        00000 
 2.38369e-03  9.94219e-03        00000 
 3.72919e-03  9.44629e-03        00000 
 4.43218e-03  7.14834e-03        00000 
 5.29354e-03  6.31902e-03        00000 
 5.66453e-03  8.20618e-03        00000 
 6.45296e-03  8.97305e-03        00000 
 6.95672e-03  9.38954e-03        00000 
 6.15752e-03  9.88224e-03        00000 
 5.31840e-03  9.90987e-03        00000 
 5.98464e-03  9.68330e-03        00000 
 6.59830e-03  8.48756e-03        00000 
 7.20358e-03  7.29989e-03        00000 
 7.76992e-03  6.76516e-03        00000 
 7.11801e-03  7.05598e-03        00000 
 5.49141e-03  7.39757e-03        00000 
 4.85779e-03  8.04422e-03        00000 
 5.09104e-03  8.73635e-03        00000 
 5.40710e-03  9.34026e-03        00000 
 4.84824e-03  9.10344e-03        00000 
 4.76218e-03  9.14042e-03        00000 
 4.85351e-03  9.74785e-03        00000 
 4.94858e-03  1.09058e-02        00000 
 5.43073e-03  1.29227e-02        00000 
 5.15223e-03  1.37735e-02        00000 
 4.96553e-03  1.43196e-02        00000 
 4.33963e-03  1.57941e-02        00000 
 3.27160e-03  1.54277e-02        00000 
 1.82420e-03  1.45252e-02        00000 
 1.24908e-03  1.42674e-02        00000 
 7.66681e-04  1.41341e-02        00000 
-2.67137e-05  1.32360e-02        00000 
-1.15321e-03  1.14198e-02        00000 
-2.52251e-03  1.39897e-02        00000 
-1.29850e-03  1.71637e-02        00000 
-4.83669e-04  2.12754e-02        00000 
 3.43964e-03 -1.03512e-03        00000 
 2.83895e-03 -1.59715e-03        00000 
 3.28578e-03  2.34084e-04        00000 
 3.95115e-03  2.05508e-03        00000 
 3.29056e-03  2.65884e-03        00000 
 1.76377e-03  2.36397e-03        00000 
 1.22272e-03  3.62005e-03        00000 
 2.35545e-03  5.24927e-03        00000 
 3.29558e-03  4.11252e-03        00000 
 3.14983e-03  4.79463e-03        00000 
 2.00923e-03  6.57195e-03        00000 
 1.93784e-03  1.02765e-02        00000 
 2.97606e-03  1.22942e-02        00000 
 4.79790e-03  1.32200e-02        00000 
 6.42268e-03  1.40988e-02        00000 
 7.68862e-03  1.42597e-02        00000 
 8.23223e-03  1.28799e-02        00000 
 8.55522e-03  1.11183e-02        00000 
 9.30507e-03  1.26760e-02        00000 
 9.87844e-03  1.36915e-02        00000 
 9.64525e-03  1.48659e-02        00000 
 9.19085e-03  1.61582e-02        00000 
 9.00508e-03  1.75695e-02        00000 
 9.63751e-03  1.92147e-02        00000 
 1.04393e-02  1.86659e-02        00000 
 1.20583e-02  1.81917e-02        00000 
 1.26105e-02  1.82926e-02        00000 
 1.27135e-02  1.85491e-02        00000 
 1.18744e-02  1.88716e-02        00000 
 1.15579e-02  2.00845e-02        00000 
 1.21390e-02  2.15433e-02        00000 
 1.14629e-02  2.21738e-02        00000 
 1.07610e-02  2.20947e-02        00000 
 1.01964e-02  2.19591e-02        00000 
 1.05629e-02  2.31258e-02        00000 
 1.08265e-02  2.46538e-02        00000 
 1.07229e-02  2.70921e-02        00000 
 9.94442e-03  2.91194e-02        00000 
 9.21794e-03  3.04767e-02        00000 
 8.31278e-03  3.03097e-02        00000 
 8.10124e-03  3.06411e-02        00000 
 7.66123e-03  3.03289e-02        00000 
 5.79980e-03  2.84693e-02        00000 
 4.55036e-03  2.76943e-02        00000 
 3.47074e-03  2.77576e-02        00000 
 6.80450e-04  3.04806e-02        00000 
-1.42796e-03  3.30828e-02        00000 
-2.85546e-03  3.74098e-02        00000 
-3.84796e-03  4.10123e-02        00000 
 4.37354e-03  1.34045e-03        00000 
 3.16907e-03  1.70625e-03        00000 
 5.12297e-03  3.23191e-03        00000 
 6.52092e-03  2.77973e-03        00000 
 6.40211e-03  3.31224e-03        00000 
 5.50847e-03  4.90776e-03        00000 
 5.51323e-03  6.69722e-03        00000 
 6.19066e-03  8.64292e-03        00000 
 6.34564e-03  1.09689e-02        00000 
 6.13393e-03  1.18947e-02        00000 
 6.15051e-03  1.13077e-02        00000 
 8.13797e-03  1.31208e-02        00000 
 9.94278e-03  1.63783e-02        00000 
 1.17170e-02  1.91327e-02        00000 
 1.29397e-02  2.01838e-02        00000 
 1.37179e-02  2.03651e-02        00000 
 1.41631e-02  2.00931e-02        00000 
 1.43148e-02  1.88389e-02        00000 
 1.53352e-02  2.02209e-02        00000 
 1.52007e-02  2.10170e-02        00000 
 1.45216e-02  2.22542e-02        00000 
 1.38660e-02  2.35106e-02        00000 
 1.38571e-02  2.50089e-02        00000 
 1.38787e-02  2.63870e-02        00000 
 1.46712e-02  2.72709e-02        00000 
 1.73130e-02  2.89771e-02        00000 
 1.82889e-02  2.96134e-02        00000 
 1.82411e-02  3.06343e-02        00000 
 1.86715e-02  3.24061e-02        00000 
 1.90593e-02  3.37686e-02        00000 
 1.88307e-02  3.47592e-02        00000 
 1.81594e-02  3.52678e-02        00000 
 1.72331e-02  3.51895e-02        00000 
 1.64317e-02  3.53484e-02        00000 
 1.64157e-02  3.68330e-02        00000 
 1.60128e-02  3.88313e-02        00000 
 1.48113e-02  4.16173e-02        00000 
 1.36737e-02  4.37562e-02        00000 
 1.40708e-02  4.47601e-02        00000 
 1.42448e-02  4.54873e-02        00000 
 1.44016e-02  4.60034e-02        00000 
 1.28839e-02  4.46853e-02        00000 
 1.06560e-02  4.50949e-02        00000 
 7.50636e-03  4.50363e-02        00000 
 3.87129e-03  4.75821e-02        00000 
 1.74291e-03  5.03841e-02        00000 
 2.15882e-04  5.30987e-02        00000 
-1.62044e-03  5.70612e-02        00000 
-4.39583e-03  5.97169e-02        00000 
 3.68077e-03  4.01238e-03        00000 
 3.53886e-03  3.98529e-03        00000 
 5.20322e-03  2.58289e-03        00000 
 6.70223e-03  3.36653e-03        00000 
 7.83785e-03  5.76857e-03        00000 
 8.11990e-03  7.40182e-03        00000 
 9.17981e-03  9.41521e-03        00000 
 9.82306e-03  1.12963e-02        00000 
 9.47398e-03  1.38782e-02        00000 
 1.03693e-02  1.64818e-02        00000 
 1.16137e-02  1.75220e-02        00000 
 1.30760e-02  1.93579e-02        00000 
 1.45093e-02  2.09780e-02        00000 
 1.61488e-02  2.39067e-02        00000 
 1.73713e-02  2.63685e-02        00000 
 1.81047e-02  2.61966e-02        00000 
 1.82609e-02  2.60971e-02        00000 
 1.81197e-02  2.57000e-02        00000 
 1.91187e-02  2.70411e-02        00000 
 1.99025e-02  2.85919e-02        00000 
 1.94848e-02  2.96991e-02        00000 
 1.87252e-02  3.09461e-02        00000 
 1.85087e-02  3.21993e-02        00000 
 1.82474e-02  3.35327e-02        00000 
 1.92992e-02  3.58084e-02        00000 
 2.11180e-02  3.75450e-02        00000 
 2.21358e-02  3.86138e-02        00000 
 2.31433e-02  4.12534e-02        00000 
 2.41467e-02  4.40575e-02        00000 
 2.50437e-02  4.62669e-02        00000 
 2.58739e-02  4.80132e-02        00000 
 2.59775e-02  4.90039e-02        00000 
 2.55459e-02  4.90508e-02        00000 
 2.42868e-02  4.90839e-02        00000 
 2.26388e-02  5.02180e-02        00000 
 2.14203e-02  5.27686e-02        00000 
 2.04807e-02  5.57368e-02        00000 
 1.90997e-02  5.73885e-02        00000 
 1.95326e-02  5.93946e-02        00000 
 1.95133e-02  6.06306e-02        00000 
 1.86007e-02  6.14151e-02        00000 
 1.66391e-02  6.29776e-02        00000 
 1.44885e-02  6.45091e-02        00000 
 1.09304e-02  6.66470e-02        00000 
 7.41204e-03  6.84569e-02        00000 
 4.56123e-03  6.98501e-02        00000 
 3.75844e-03  7.30351e-02        00000 
 2.30047e-03  7.69707e-02        00000 
-1.91043e-03  7.86316e-02        00000 
 2.80168e-03  4.45822e-03        00000 
 3.62432e-03  2.23674e-03        00000 
 5.76768e-03  1.99587e-03        00000 
 8.11550e-03  4.85710e-03        00000 
 9.15384e-03  7.69935e-03        00000 
 9.42453e-03  1.02417e-02        00000 
 1.08090e-02  1.24430e-02        00000 
 1.20398e-02  1.42520e-02        00000 
 1.31603e-02  1.72378e-02        00000 
 1.44207e-02  2.01436e-02        00000 
 1.58554e-02  2.27047e-02        00000 
 1.72935e-02  2.45700e-02        00000 
 1.80586e-02  2.61328e-02        00000 
 1.84626e-02  2.81230e-02        00000 
 1.94859e-02  3.11269e-02        00000 
 1.98958e-02  3.20432e-02        00000 
 2.01763e-02  3.14940e-02        00000 
 2.10031e-02  3.13736e-02        00000 
 2.24654e-02  3.41546e-02        00000 
 2.31470e-02  3.59690e-02        00000 
 2.36281e-02  3.75509e-02        00000 
 2.34595e-02  3.84060e-02        00000 
 2.31053e-02  3.94950e-02        00000 
 2.33148e-02  4.12325e-02        00000 
 2.42828e-02  4.39079e-02        00000 
 2.55018e-02  4.67931e-02        00000 
 2.62736e-02  4.86537e-02        00000 
 2.79998e-02  5.12172e-02        00000 
 2.92485e-02  5.41103e-02        00000 
 3.06167e-02  5.71149e-02        00000 
 3.16629e-02  5.89511e-02        00000 
 3.22696e-02  6.05064e-02        00000 
 3.26431e-02  6.18384e-02        00000 
 3.13777e-02  6.31510e-02        00000 
 2.93283e-02  6.46073e-02        00000 
 2.85512e-02  6.72844e-02        00000 
 2.73273e-02  7.00795e-02        00000 
 2.55763e-02  7.22507e-02        00000 
 2.43972e-02  7.41982e-02        00000 
 2.32606e-02  7.66018e-02        00000 
 2.15771e-02  7.94294e-02        00000 
 1.96187e-02  8.12991e-02        00000 
 1.70570e-02  8.32362e-02        00000 
 1.39770e-02  8.56305e-02        00000 
 1.21400e-02  8.78192e-02        00000 
 9.98144e-03  9.03460e-02        00000 
 7.81447e-03  9.31732e-02        00000 
 4.16058e-03  9.46781e-02        00000 
 2.78516e-04  9.61964e-02        00000 
 1.96092e-03  2.41821e-03        00000 
 4.83481e-03  1.74879e-03        00000 
 7.43513e-03  4.55030e-03        00000 
 9.47996e-03  7.33954e-03        00000 
 1.02458e-02  1.01921e-02        00000 
 1.07990e-02  1.27342e-02        00000 
 1.27136e-02  1.53573e-02        00000 
 1.49752e-02  1.74253e-02        00000 
 1.59830e-02  2.05542e-02        00000 
 1.69687e-02  2.33008e-02        00000 
 1.80347e-02  2.56939e-02        00000 
 1.94876e-02  2.87962e-02        00000 
 2.01035e-02  3.04842e-02        00000 
 2.00864e-02  3.23928e-02        00000 
 2.10917e-02  3.48624e-02        00000 
 2.20793e-02  3.69352e-02        00000 
 2.27271e-02  3.77123e-02        00000 
 2.38303e-02  3.76905e-02        00000 
 2.51441e-02  4.06582e-02        00000 
 2.63026e-02  4.36208e-02        00000 
 2.65923e-02  4.47203e-02        00000 
 2.73333e-02  4.57674e-02        00000 
 2.75924e-02  4.71492e-02        00000 
 2.84247e-02  4.98565e-02        00000 
 2.94296e-02  5.29649e-02        00000 
 3.06786e-02  5.62348e-02        00000 
 3.15806e-02  5.96159e-02        00000 
 3.25400e-02  6.22362e-02        00000 
 3.41102e-02  6.53836e-02        00000 
 3.65490e-02  6.91363e-02        00000 
 3.88090e-02  7.22148e-02        00000 
 4.02692e-02  7.47679e-02        00000 
 3.96336e-02  7.67123e-02        00000 
 3.75745e-02  7.83164e-02        00000 
 3.46849e-02  7.90320e-02        00000 
 3.28210e-02  8.12518e-02        00000 
 3.10318e-02  8.42533e-02        00000 
 2.91248e-02  8.67118e-02        00000 
 2.77214e-02  8.92227e-02        00000 
 2.60609e-02  9.46911e-02        00000 
 2.39715e-02  9.73662e-02        00000 
 2.12335e-02  9.87118e-02        00000 
 1.82750e-02  1.01344e-01        00000 
 1.59059e-02  1.04030e-01        00000 
 1.41257e-02  1.07147e-01        00000 
 1.19065e-02  1.09708e-01        00000 
 8.55389e-03  1.11799e-01        00000 
 4.55801e-03  1.12635e-01        00000 
-3.11857e-04  1.16926e-01        00000 
 2.33981e-03  1.48463e-03        00000 
 6.33235e-03  3.94710e-03        00000 
 8.91522e-03  6.68956e-03        00000 
 1.05118e-02  9.56094e-03        00000 
 1.13577e-02  1.23053e-02        00000 
 1.21914e-02  1.45831e-02        00000 
 1.49212e-02  1.74856e-02        00000 
 1.70742e-02  2.02061e-02        00000 
 1.81426e-02  2.30543e-02        00000 
 1.88738e-02  2.55723e-02        00000 
 1.86512e-02  2.77341e-02        00000 
 1.95904e-02  3.08430e-02        00000 
 2.07464e-02  3.34155e-02        00000 
 2.19113e-02  3.57480e-02        00000 
 2.29080e-02  3.85053e-02        00000 
 2.40800e-02  4.08299e-02        00000 
 2.49390e-02  4.26426e-02        00000 
 2.65526e-02  4.60207e-02        00000 
 2.76383e-02  4.83492e-02        00000 
 2.82670e-02  5.05509e-02        00000 
 2.91366e-02  5.20438e-02        00000 
 2.98620e-02  5.30992e-02        00000 
 3.14886e-02  5.54730e-02        00000 
 3.29514e-02  5.88525e-02        00000 
 3.40104e-02  6.19161e-02        00000 
 3.57956e-02  6.54462e-02        00000 
 3.66637e-02  6.87256e-02        00000 
 3.83552e-02  7.29472e-02        00000 
 4.03557e-02  7.72721e-02        00000 
 4.33426e-02  8.18455e-02        00000 
 4.55664e-02  8.59810e-02        00000 
 4.67020e-02  8.88093e-02        00000 
 4.51717e-02  9.08219e-02        00000 
 4.19261e-02  9.27103e-02        00000 
 3.88700e-02  9.36323e-02        00000 
 3.58302e-02  9.48055e-02        00000 
 3.41090e-02  9.76701e-02        00000 
 3.24893e-02  1.02443e-01        00000 
 2.98996e-02  1.05889e-01        00000 
 2.85595e-02  1.10159e-01        00000 
 2.66011e-02  1.14233e-01        00000 
 2.36195e-02  1.17170e-01        00000 
 2.04963e-02  1.19471e-01        00000 
 1.76519e-02  1.22188e-01        00000 
 1.58392e-02  1.25133e-01        00000 
 1.32957e-02  1.27423e-01        00000 
 8.41774e-03  1.28557e-01        00000 
 3.72904e-03  1.34408e-01        00000 
-1.50035e-03  1.39871e-01        00000 
 3.78339e-03  4.67337e-03        00000 
 7.03671e-03  5.90035e-03        00000 
 9.61694e-03  8.38128e-03        00000 
 1.14690e-02  1.14478e-02        00000 
 1.23119e-02  1.35984e-02        00000 
 1.38815e-02  1.63946e-02        00000 
 1.62704e-02  1.92295e-02        00000 
 1.81037e-02  2.16136e-02        00000 
 1.93156e-02  2.40272e-02        00000 
 1.96923e-02  2.65585e-02        00000 
 1.91754e-02  2.84884e-02        00000 
 1.94430e-02  3.13574e-02        00000 
 2.13593e-02  3.57454e-02        00000 
 2.27987e-02  3.82450e-02        00000 
 2.38370e-02  4.10513e-02        00000 
 2.50964e-02  4.38291e-02        00000 
 2.67649e-02  4.61338e-02        00000 
 2.79391e-02  5.10363e-02        00000 
 2.90569e-02  5.63782e-02        00000 
 2.93375e-02  5.83621e-02        00000 
 3.06611e-02  5.99006e-02        00000 
 3.24015e-02  6.18921e-02        00000 
 3.43845e-02  6.39976e-02        00000 
 3.68119e-02  6.73988e-02        00000 
 3.83309e-02  7.05019e-02        00000 
 4.05121e-02  7.39870e-02        00000 
 4.27344e-02  7.81978e-02        00000 
 4.46943e-02  8.29524e-02        00000 
 4.66753e-02  8.82453e-02        00000 
 4.86125e-02  9.36322e-02        00000 
 5.09293e-02  9.89091e-02        00000 
 5.17976e-02  1.02262e-01        00000 
 4.87762e-02  1.03861e-01        00000 
 4.55373e-02  1.05939e-01        00000 
 4.23893e-02  1.07244e-01        00000 
 3.92003e-02  1.09192e-01        00000 
 3.66938e-02  1.14145e-01        00000 
 3.42423e-02  1.19271e-01        00000 
 3.22038e-02  1.21041e-01        00000 
 3.08473e-02  1.25592e-01        00000 
 2.87832e-02  1.30076e-01        00000 
 2.62585e-02  1.35061e-01        00000 
 2.35456e-02  1.39086e-01        00000 
 2.04560e-02  1.41575e-01        00000 
 1.72003e-02  1.43965e-01        00000 
 1.26529e-02  1.46300e-01        00000 
 7.90392e-03  1.51496e-01        00000 
 3.15794e-03  1.56517e-01        00000 
-1.83731e-03  1.61974e-01        00000 
 4.56631e-03  5.97551e-03        00000 
 7.63945e-03  6.49380e-03        00000 
 9.72274e-03  8.26406e-03        00000 
 1.12037e-02  1.06084e-02        00000 
 1.17299e-02  1.33208e-02        00000 
 1.44753e-02  1.63747e-02        00000 
 1.66112e-02  1.88503e-02        00000 
 1.86086e-02  2.16392e-02        00000 
 2.02321e-02  2.44443e-02        00000 
 2.06101e-02  2.69623e-02        00000 
 2.03503e-02  2.95941e-02        00000 
 2.00690e-02  3.22287e-02        00000 
 2.13994e-02  3.63688e-02        00000 
 2.27859e-02  4.01055e-02        00000 
 2.39279e-02  4.25853e-02        00000 
 2.52792e-02  4.57391e-02        00000 
 2.71134e-02  4.88232e-02        00000 
 2.86858e-02  5.46078e-02        00000 
 2.93421e-02  5.94072e-02        00000 
 3.02617e-02  6.41682e-02        00000 
 3.20447e-02  6.72106e-02        00000 
 3.42497e-02  6.96225e-02        00000 
 3.73046e-02  7.32051e-02        00000 
 3.97646e-02  7.58998e-02        00000 
 4.27528e-02  8.02892e-02        00000 
 4.64664e-02  8.54847e-02        00000 
 4.93148e-02  9.00479e-02        00000 
 5.05618e-02  9.48177e-02        00000 
 5.19023e-02  9.99469e-02        00000 
 5.32774e-02  1.06054e-01        00000 
 5.55345e-02  1.12654e-01        00000 
 5.49971e-02  1.16530e-01        00000 
 5.18904e-02  1.18366e-01        00000 
 4.87007e-02  1.20062e-01        00000 
 4.54406e-02  1.21955e-01        00000 
 4.21857e-02  1.26662e-01        00000 
 3.88957e-02  1.31264e-01        00000 
 3.61577e-02  1.35406e-01        00000 
 3.45080e-02  1.37535e-01        00000 
 3.31949e-02  1.41065e-01        00000 
 3.13016e-02  1.46401e-01        00000 
 2.88969e-02  1.51503e-01        00000 
 2.61839e-02  1.55961e-01        00000 
 2.31602e-02  1.59700e-01        00000 
 1.92279e-02  1.64459e-01        00000 
 1.35318e-02  1.68085e-01        00000 
 7.75209e-03  1.71677e-01        00000 
 2.86400e-03  1.75965e-01        00000 
-2.50900e-03  1.82734e-01        00000 
 5.22308e-03  5.07459e-03        00000 
 7.84713e-03  4.71024e-03        00000 
 9.94960e-03  7.04538e-03        00000 
 1.04181e-02  9.93178e-03        00000 
 1.20550e-02  1.33499e-02        00000 
 1.50797e-02  1.67629e-02        00000 
 1.75514e-02  1.97255e-02        00000 