<?xml version="1.0" encoding="utf-8"?>
<VTKFile byte_order="LittleEndian" type="UnstructuredGrid" version="0.1">
   <UnstructuredGrid>
      <Piece NumberOfCells="1408" NumberOfPoints="804">
         <Points>
            <DataArray Name="Points" NumberOfComponents="3" format="ascii" type="Float32">
-1.0000 -0.8947 0.0000
-1.0000 -0.7895 0.0000
-1.0000 -0.6842 0.0000
-1.0000 -0.5789 0.0000
-1.0000 -0.4737 0.0000
-1.0000 -0.3684 0.0000
-1.0000 -0.2632 0.0000
-1.0000 -0.1579 0.0000
-1.0000 -0.0526 0.0000
-1.0000 0.0526 0.0000
-1.0000 0.1579 0.0000
-1.0000 0.2632 0.0000
-1.0000 0.3684 0.0000
-1.0000 0.4737 0.0000
-1.0000 0.5789 0.0000
-1.0000 0.6842 0.0000
-1.0000 0.7895 0.0000
-1.0000 0.8947 0.0000
-1.0000 1.0000 0.0000
-0.8947 -0.8947 0.0000
-0.8947 -0.7895 0.0000
-0.8947 -0.6842 0.0000
-0.8947 -0.5789 0.0000
-0.8947 -0.4737 0.0000
-0.8947 -0.3684 0.0000
-0.8947 -0.2632 0.0000
-0.8947 -0.1579 0.0000
-0.8947 -0.0526 0.0000
-0.8947 0.0526 0.0000
-0.8947 0.1579 0.0000
-0.8947 0.2632 0.0000
-0.8947 0.3684 0.0000
-0.8947 0.4737 0.0000
-0.8947 0.5789 0.0000
-0.8947 0.6842 0.0000
-0.8947 0.7895 0.0000
-0.8947 0.8947 0.0000
-0.8947 1.0000 0.0000
-0.7895 -0.8947 0.0000
-0.7895 -0.7895 0.0000
-0.7895 -0.6842 0.0000
-0.7895 -0.5789 0.0000
-0.7895 -0.4737 0.0000
-0.7895 -0.3684 0.0000
-0.7895 -0.2632 0.0000
-0.7895 -0.1579 0.0000
-0.7895 -0.0526 0.0000
-0.7895 0.0526 0.0000
-0.7895 0.1579 0.0000
-0.7895 0.2632 0.0000
-0.7895 0.3684 0.0000
-0.7895 0.4737 0.0000
-0.7895 0.5789 0.0000
-0.7895 0.6842 0.0000
-0.7895 0.7895 0.0000
-0.7895 0.8947 0.0000
-0.7895 1.0000 0.0000
-0.6842 -0.8947 0.0000
-0.6842 -0.7895 0.0000
-0.6842 -0.6842 0.0000
-0.6842 -0.5789 0.0000
-0.6842 -0.4737 0.0000
-0.6842 -0.3684 0.0000
-0.6842 -0.2632 0.0000
-0.6842 -0.1579 0.0000
-0.6842 -0.0526 0.0000
-0.6842 0.0526 0.0000
-0.6842 0.1579 0.0000
-0.6842 0.2632 0.0000
-0.6842 0.3684 0.0000
-0.6842 0.4737 0.0000
-0.6842 0.5789 0.0000
-0.6842 0.6842 0.0000
-0.6842 0.7895 0.0000
-0.6842 0.8947 0.0000
-0.6842 1.0000 0.0000
-0.5789 -0.8947 0.0000
-0.5789 -0.7895 0.0000
-0.5789 -0.6842 0.0000
-0.5789 -0.5789 0.0000
-0.5789 -0.4737 0.0000
-0.5789 -0.3684 0.0000
-0.5789 -0.2632 0.0000
-0.5789 -0.1579 0.0000
-0.5789 -0.0526 0.0000
-0.5789 0.0526 0.0000
-0.5789 0.1579 0.0000
-0.5789 0.2632 0.0000
-0.5789 0.3684 0.0000
-0.5789 0.4737 0.0000
-0.5789 0.5789 0.0000
-0.5789 0.6842 0.0000
-0.5789 0.7895 0.0000
-0.5789 0.8947 0.0000
-0.5789 1.0000 0.0000
-0.4737 -0.8947 0.0000
-0.4737 -0.7895 0.0000
-0.4737 -0.6842 0.0000
-0.4737 -0.5789 0.0000
-0.4737 -0.4737 0.0000
-0.4737 -0.3684 0.0000
-0.4737 -0.2632 0.0000
-0.4737 -0.1579 0.0000
-0.4737 -0.0526 0.0000
-0.4737 0.0526 0.0000
-0.4737 0.1579 0.0000
-0.4737 0.2632 0.0000
-0.4737 0.3684 0.0000
-0.4737 0.4737 0.0000
-0.4737 0.5789 0.0000
-0.4737 0.6842 0.0000
-0.4737 0.7895 0.0000
-0.4737 0.8947 0.0000
-0.4737 1.0000 0.0000
-0.3684 -0.8947 0.0000
-0.3684 -0.7895 0.0000
-0.3684 -0.6842 0.0000
-0.3684 -0.5789 0.0000
-0.3684 -0.4737 0.0000
-0.3684 -0.3684 0.0000
-0.3684 -0.2632 0.0000
-0.3684 -0.1579 0.0000
-0.3684 -0.0526 0.0000
-0.3684 0.0526 0.0000
-0.3684 0.1579 0.0000
-0.3684 0.2632 0.0000
-0.3684 0.3684 0.0000
-0.3684 0.4737 0.0000
-0.3684 0.5789 0.0000
-0.3684 0.6842 0.0000
-0.3684 0.7895 0.0000
-0.3684 0.8947 0.0000
-0.3684 1.0000 0.0000
-0.2632 -0.8947 0.0000
-0.2632 -0.7895 0.0000
-0.2632 -0.6842 0.0000
-0.2632 -0.5789 0.0000
-0.2632 -0.4737 0.0000
-0.2632 -0.3684 0.0000
-0.2632 -0.2632 0.0000
-0.2632 0.3684 0.0000
-0.2632 0.4737 0.0000
-0.2632 0.5789 0.0000
-0.2632 0.6842 0.0000
-0.2632 0.7895 0.0000
-0.2632 0.8947 0.0000
-0.2632 1.0000 0.0000
-0.1579 -0.8947 0.0000
-0.1579 -0.7895 0.0000
-0.1579 -0.6842 0.0000
-0.1579 -0.5789 0.0000
-0.1579 -0.4737 0.0000
-0.1579 -0.3684 0.0000
-0.1579 -0.2632 0.0000
-0.1579 0.3684 0.0000
-0.1579 0.4737 0.0000
-0.1579 0.5789 0.0000
-0.1579 0.6842 0.0000
-0.1579 0.7895 0.0000
-0.1579 0.8947 0.0000
-0.1579 1.0000 0.0000
-0.0526 -0.8947 0.0000
-0.0526 -0.7895 0.0000
-0.0526 -0.6842 0.0000
-0.0526 -0.5789 0.0000
-0.0526 -0.4737 0.0000
-0.0526 -0.3684 0.0000
-0.0526 0.4737 0.0000
-0.0526 0.5789 0.0000
-0.0526 0.6842 0.0000
-0.0526 0.7895 0.0000
-0.0526 0.8947 0.0000
-0.0526 1.0000 0.0000
0.0526 -0.8947 0.0000
0.0526 -0.7895 0.0000
0.0526 -0.6842 0.0000
0.0526 -0.5789 0.0000
0.0526 -0.4737 0.0000
0.0526 -0.3684 0.0000
0.0526 0.4737 0.0000
0.0526 0.5789 0.0000
0.0526 0.6842 0.0000
0.0526 0.7895 0.0000
0.0526 0.8947 0.0000
0.0526 1.0000 0.0000
0.1579 -0.8947 0.0000
0.1579 -0.7895 0.0000
0.1579 -0.6842 0.0000
0.1579 -0.5789 0.0000
0.1579 -0.4737 0.0000
0.1579 -0.3684 0.0000
0.1579 -0.2632 0.0000
0.1579 0.3684 0.0000
0.1579 0.4737 0.0000
0.1579 0.5789 0.0000
0.1579 0.6842 0.0000
0.1579 0.7895 0.0000
0.1579 0.8947 0.0000
0.1579 1.0000 0.0000
0.2632 -0.8947 0.0000
0.2632 -0.7895 0.0000
0.2632 -0.6842 0.0000
0.2632 -0.5789 0.0000
0.2632 -0.4737 0.0000
0.2632 -0.3684 0.0000
0.2632 -0.2632 0.0000
0.2632 -0.1579 0.0000
0.2632 0.2632 0.0000
0.2632 0.3684 0.0000
0.2632 0.4737 0.0000
0.2632 0.5789 0.0000
0.2632 0.6842 0.0000
0.2632 0.7895 0.0000
0.2632 0.8947 0.0000
0.2632 1.0000 0.0000
0.3684 -0.8947 0.0000
0.3684 -0.7895 0.0000
0.3684 -0.6842 0.0000
0.3684 -0.5789 0.0000
0.3684 -0.4737 0.0000
0.3684 -0.3684 0.0000
0.3684 -0.2632 0.0000
0.3684 -0.1579 0.0000
0.3684 -0.0526 0.0000
0.3684 0.0526 0.0000
0.3684 0.1579 0.0000
0.3684 0.2632 0.0000
0.3684 0.3684 0.0000
0.3684 0.4737 0.0000
0.3684 0.5789 0.0000
0.3684 0.6842 0.0000
0.3684 0.7895 0.0000
0.3684 0.8947 0.0000
0.3684 1.0000 0.0000
0.4737 -0.8947 0.0000
0.4737 -0.7895 0.0000
0.4737 -0.6842 0.0000
0.4737 -0.5789 0.0000
0.4737 -0.4737 0.0000
0.4737 -0.3684 0.0000
0.4737 -0.2632 0.0000
0.4737 -0.1579 0.0000
0.4737 -0.0526 0.0000
0.4737 0.0526 0.0000
0.4737 0.1579 0.0000
0.4737 0.2632 0.0000
0.4737 0.3684 0.0000
0.4737 0.4737 0.0000
0.4737 0.5789 0.0000
0.4737 0.6842 0.0000
0.4737 0.7895 0.0000
0.4737 0.8947 0.0000
0.4737 1.0000 0.0000
0.5789 -0.8947 0.0000
0.5789 -0.7895 0.0000
0.5789 -0.6842 0.0000
0.5789 -0.5789 0.0000
0.5789 -0.4737 0.0000
0.5789 -0.3684 0.0000
0.5789 -0.2632 0.0000
0.5789 -0.1579 0.0000
0.5789 -0.0526 0.0000
0.5789 0.0526 0.0000
0.5789 0.1579 0.0000
0.5789 0.2632 0.0000
0.5789 0.3684 0.0000
0.5789 0.4737 0.0000
0.5789 0.5789 0.0000
0.5789 0.6842 0.0000
0.5789 0.7895 0.0000
0.5789 0.8947 0.0000
0.5789 1.0000 0.0000
0.6842 -0.8947 0.0000
0.6842 -0.7895 0.0000
0.6842 -0.6842 0.0000
0.6842 -0.5789 0.0000
0.6842 -0.4737 0.0000
0.6842 -0.3684 0.0000
0.6842 -0.2632 0.0000
0.6842 -0.1579 0.0000
0.6842 -0.0526 0.0000
0.6842 0.0526 0.0000
0.6842 0.1579 0.0000
0.6842 0.2632 0.0000
0.6842 0.3684 0.0000
0.6842 0.4737 0.0000
0.6842 0.5789 0.0000
0.6842 0.6842 0.0000
0.6842 0.7895 0.0000
0.6842 0.8947 0.0000
0.6842 1.0000 0.0000
0.7895 -0.8947 0.0000
0.7895 -0.7895 0.0000
0.7895 -0.6842 0.0000
0.7895 -0.5789 0.0000
0.7895 -0.4737 0.0000
0.7895 -0.3684 0.0000
0.7895 -0.2632 0.0000
0.7895 -0.1579 0.0000
0.7895 -0.0526 0.0000
0.7895 0.0526 0.0000
0.7895 0.1579 0.0000
0.7895 0.2632 0.0000
0.7895 0.3684 0.0000
0.7895 0.4737 0.0000
0.7895 0.5789 0.0000
0.7895 0.6842 0.0000
0.7895 0.7895 0.0000
0.7895 0.8947 0.0000
0.7895 1.0000 0.0000
0.8947 -0.8947 0.0000
0.8947 -0.7895 0.0000
0.8947 -0.6842 0.0000
0.8947 -0.5789 0.0000
0.8947 -0.4737 0.0000
0.8947 -0.3684 0.0000
0.8947 -0.2632 0.0000
0.8947 -0.1579 0.0000
0.8947 -0.0526 0.0000
0.8947 0.0526 0.0000
0.8947 0.1579 0.0000
0.8947 0.2632 0.0000
0.8947 0.3684 0.0000
0.8947 0.4737 0.0000
0.8947 0.5789 0.0000
0.8947 0.6842 0.0000
0.8947 0.7895 0.0000
0.8947 0.8947 0.0000
0.8947 1.0000 0.0000
-0.2632 -0.1579 0.0000
-0.2632 0.1579 0.0000
-0.2632 0.2632 0.0000
-0.0526 0.3684 0.0000
0.0526 0.3684 0.0000
1.0000 -0.8947 0.0000
1.0000 -0.7895 0.0000
1.0000 -0.6842 0.0000
1.0000 -0.5789 0.0000
1.0000 -0.4737 0.0000
1.0000 -0.3684 0.0000
1.0000 -0.2632 0.0000
1.0000 -0.1579 0.0000
1.0000 -0.0526 0.0000
1.0000 0.0526 0.0000
1.0000 0.1579 0.0000
1.0000 0.2632 0.0000
1.0000 0.3684 0.0000
1.0000 0.4737 0.0000
1.0000 0.5789 0.0000
1.0000 0.6842 0.0000
1.0000 0.7895 0.0000
1.0000 0.8947 0.0000
1.0000 1.0000 0.0000
-0.8947 -1.0000 0.0000
-0.7895 -1.0000 0.0000
-0.6842 -1.0000 0.0000
-0.5789 -1.0000 0.0000
-0.4737 -1.0000 0.0000
-0.3684 -1.0000 0.0000
-0.2632 -1.0000 0.0000
-0.1579 -1.0000 0.0000
-0.1579 0.2632 0.0000
-0.0526 -1.0000 0.0000
0.0526 -1.0000 0.0000
0.1579 -1.0000 0.0000
0.1579 0.2632 0.0000
0.2632 -1.0000 0.0000
0.3684 -1.0000 0.0000
0.4737 -1.0000 0.0000
0.5789 -1.0000 0.0000
0.6842 -1.0000 0.0000
0.7895 -1.0000 0.0000
0.8947 -1.0000 0.0000
1.0000 -1.0000 0.0000
-1.0000 -1.0000 0.0000
0.2632 0.1579 0.0000
-0.9474 -0.9474 0.0000
-0.9474 -0.8421 0.0000
-0.9474 -0.7368 0.0000
-0.9474 -0.6316 0.0000
-0.9474 -0.5263 0.0000
-0.9474 -0.4211 0.0000
-0.9474 -0.3158 0.0000
-0.9474 -0.2105 0.0000
-0.9474 -0.1053 0.0000
-0.9474 0.0000 0.0000
-0.9474 0.1053 0.0000
-0.9474 0.2105 0.0000
-0.9474 0.3158 0.0000
-0.9474 0.4211 0.0000
-0.9474 0.5263 0.0000
-0.9474 0.6316 0.0000
-0.9474 0.7368 0.0000
-0.9474 0.8421 0.0000
-0.9474 0.9474 0.0000
-0.8421 -0.9474 0.0000
-0.8421 -0.8421 0.0000
-0.8421 -0.7368 0.0000
-0.8421 -0.6316 0.0000
-0.8421 -0.5263 0.0000
-0.8421 -0.4211 0.0000
-0.8421 -0.3158 0.0000
-0.8421 -0.2105 0.0000
-0.8421 -0.1053 0.0000
-0.8421 0.0000 0.0000
-0.8421 0.1053 0.0000
-0.8421 0.2105 0.0000
-0.8421 0.3158 0.0000
-0.8421 0.4211 0.0000
-0.8421 0.5263 0.0000
-0.8421 0.6316 0.0000
-0.8421 0.7368 0.0000
-0.8421 0.8421 0.0000
-0.8421 0.9474 0.0000
-0.7368 -0.9474 0.0000
-0.7368 -0.8421 0.0000
-0.7368 -0.7368 0.0000
-0.7368 -0.6316 0.0000
-0.7368 -0.5263 0.0000
-0.7368 -0.4211 0.0000
-0.7368 -0.3158 0.0000
-0.7368 -0.2105 0.0000
-0.7368 -0.1053 0.0000
-0.7368 0.0000 0.0000
-0.7368 0.1053 0.0000
-0.7368 0.2105 0.0000
-0.7368 0.3158 0.0000
-0.7368 0.4211 0.0000
-0.7368 0.5263 0.0000
-0.7368 0.6316 0.0000
-0.7368 0.7368 0.0000
-0.7368 0.8421 0.0000
-0.7368 0.9474 0.0000
-0.6316 -0.9474 0.0000
-0.6316 -0.8421 0.0000
-0.6316 -0.7368 0.0000
-0.6316 -0.6316 0.0000
-0.6316 -0.5263 0.0000
-0.6316 -0.4211 0.0000
[...]
         <PointData>
            <DataArray Name="fValues" NumberOfComponents="3" format="ascii" type="Float64">
 1.16202e-02  9.30649e-01        00000 
 1.36094e-02  8.86609e-01        00000 
 1.00559e-02  8.38153e-01        00000 
 2.56359e-03  7.87038e-01        00000 
-4.92872e-03  7.35922e-01        00000 
-9.26802e-03  6.89887e-01        00000 
-1.27271e-02  6.42321e-01        00000 
-1.66299e-02  5.91323e-01        00000 
-1.59921e-02  5.35597e-01        00000 
-1.03481e-02  4.76448e-01        00000 
-4.70394e-03  4.17911e-01        00000 
 9.40772e-04  3.61897e-01        00000 
 5.10061e-03  3.10364e-01        00000 
 9.38746e-03  2.60505e-01        00000 
 9.35316e-03  2.06028e-01        00000 
 8.68576e-03  1.50874e-01        00000 
 8.01835e-03  9.57199e-02        00000 
 5.85319e-03  4.03416e-02        00000 
-6.22524e-04  1.69956e-02        00000 
 1.83140e-02  8.92031e-01        00000 
 2.37288e-02  8.50737e-01        00000 
 2.91435e-02  8.09443e-01        00000 
 2.75369e-02  7.62782e-01        00000 
 2.00446e-02  7.11666e-01        00000 
 1.25523e-02  6.60551e-01        00000 
 7.97919e-03  6.12808e-01        00000 
 4.07643e-03  5.61809e-01        00000 
 1.73665e-04  5.10811e-01        00000 
-3.72910e-03  4.59812e-01        00000 
-2.31871e-03  4.07362e-01        00000 
 6.27580e-04  3.54642e-01        00000 
 6.29296e-03  3.02582e-01        00000 
 1.05798e-02  2.52723e-01        00000 
 1.27603e-02  2.00613e-01        00000 
 1.20929e-02  1.45459e-01        00000 
 1.11370e-02  9.27283e-02        00000 
 9.19288e-03  3.98674e-02        00000 
 1.95686e-03  2.21697e-02        00000 
 2.35993e-02  8.48174e-01        00000 
 3.04226e-02  8.12120e-01        00000 
 3.58373e-02  7.70825e-01        00000 
 4.12520e-02  7.29531e-01        00000 
 4.27441e-02  6.85588e-01        00000 
 3.75257e-02  6.36295e-01        00000 
 3.00334e-02  5.85179e-01        00000 
 2.47827e-02  5.32295e-01        00000 
 1.98387e-02  4.83080e-01        00000 
 1.44252e-02  4.34668e-01        00000 
 9.01169e-03  3.86256e-01        00000 
 1.32729e-02  3.35942e-01        00000 
 1.52119e-02  2.88164e-01        00000 
 1.63387e-02  2.41019e-01        00000 
 1.66871e-02  1.93042e-01        00000 
 1.51608e-02  1.42893e-01        00000 
 1.41605e-02  9.05356e-02        00000 
 1.17723e-02  4.50415e-02        00000 
 4.53624e-03  2.73438e-02        00000 
 2.56158e-02  7.96953e-01        00000 
 3.77518e-02  7.78150e-01        00000 
 4.31458e-02  7.37595e-01        00000 
 4.86533e-02  6.97114e-01        00000 
 5.05651e-02  6.54205e-01        00000 
 5.16981e-02  6.10770e-01        00000 
 5.17621e-02  5.66479e-01        00000 
 4.36644e-02  5.10596e-01        00000 
 3.73644e-02  4.59012e-01        00000 
 3.20303e-02  4.10659e-01        00000 
 2.92219e-02  3.64190e-01        00000 
 2.65872e-02  3.17814e-01        00000 
 2.77139e-02  2.70669e-01        00000 
 2.61085e-02  2.20604e-01        00000 
 2.40640e-02  1.72052e-01        00000 
 2.18511e-02  1.24915e-01        00000 
 1.95139e-02  7.75580e-02        00000 
 1.43308e-02  4.74555e-02        00000 
 7.11513e-03  3.24533e-02        00000 
 2.74594e-02  7.49209e-01        00000 
 4.16865e-02  7.36838e-01        00000 
 5.25261e-02  7.12393e-01        00000 
 5.70043e-02  6.71229e-01        00000 
 5.75645e-02  6.27419e-01        00000 
 5.85939e-02  5.83916e-01        00000 
 5.97269e-02  5.40481e-01        00000 
 6.18607e-02  4.94970e-01        00000 
 5.65253e-02  4.38704e-01        00000 
 5.26199e-02  3.88876e-01        00000 
 4.98116e-02  3.42406e-01        00000 
 4.00486e-02  2.97193e-01        00000 
 3.55299e-02  2.48166e-01        00000 
 3.30170e-02  1.97216e-01        00000 
 3.02569e-02  1.49113e-01        00000 
 2.74967e-02  1.01011e-01        00000 
 2.40532e-02  5.79851e-02        00000 
 1.68375e-02  4.29828e-02        00000 
 9.62181e-03  2.79805e-02        00000 
 2.93030e-02  7.01465e-01        00000 
 4.35300e-02  6.89094e-01        00000 
 5.75858e-02  6.75953e-01        00000 
 6.56085e-02  6.45492e-01        00000 
 6.61688e-02  6.01682e-01        00000 
 6.67290e-02  5.57873e-01        00000 
 6.77762e-02  5.14426e-01        00000 
 7.05744e-02  4.71590e-01        00000 
 7.62172e-02  4.24069e-01        00000 
 7.43193e-02  3.70489e-01        00000 
 7.00888e-02  3.15874e-01        00000 
 5.39318e-02  2.69646e-01        00000 
 4.10824e-02  2.21831e-01        00000 
 3.82397e-02  1.72566e-01        00000 
 3.54796e-02  1.24464e-01        00000 
 3.27194e-02  7.63611e-02        00000 
 2.65599e-02  5.35124e-02        00000 
 1.93442e-02  3.85101e-02        00000 
 1.21285e-02  2.35078e-02        00000 
 3.11465e-02  6.53721e-01        00000 
 4.53736e-02  6.41350e-01        00000 
 5.89207e-02  6.28520e-01        00000 
 6.83821e-02  6.07667e-01        00000 
 7.49967e-02  5.76113e-01        00000 
 7.75372e-02  5.33779e-01        00000 
 8.00777e-02  4.91446e-01        00000 
 8.24166e-02  4.48972e-01        00000 
 8.66888e-02  4.01921e-01        00000 
 8.77591e-02  3.45641e-01        00000 
 8.48456e-02  2.87752e-01        00000 
 6.46509e-02  2.39688e-01        00000 
 4.62225e-02  1.96019e-01        00000 
 4.34624e-02  1.47916e-01        00000 
 4.07022e-02  9.98138e-02        00000 
 3.62823e-02  6.40419e-02        00000 
 2.90666e-02  4.90397e-02        00000 
 2.18509e-02  3.40374e-02        00000 
 1.46352e-02  1.90351e-02        00000 
 3.13332e-02  6.04837e-01        00000 
 4.63129e-02  5.92996e-01        00000 
 5.95417e-02  5.80032e-01        00000 
 7.12355e-02  5.66031e-01        00000 
 8.12032e-02  5.41021e-01        00000 
 8.87822e-02  5.10060e-01        00000 
 9.07869e-02  4.67352e-01        00000 
 5.60148e-02  1.69184e-01        00000 
 4.86851e-02  1.23267e-01        00000 
 4.59249e-02  7.51641e-02        00000 
 3.87890e-02  5.95692e-02        00000 
 3.15733e-02  4.45669e-02        00000 
 2.43576e-02  2.95647e-02        00000 
 1.75238e-02  1.77510e-02        00000 
 3.27493e-02  5.56989e-01        00000 
 4.85634e-02  5.45771e-01        00000 
 6.11440e-02  5.32369e-01        00000 
 7.28378e-02  5.18368e-01        00000 
 8.39405e-02  5.00597e-01        00000 
 9.36936e-02  4.74218e-01        00000 
 1.01162e-01  4.43024e-01        00000 
 5.88345e-02  1.38168e-01        00000 
 5.33704e-02  9.81862e-02        00000 
 4.85114e-02  7.00988e-02        00000 
 4.12056e-02  5.50963e-02        00000 
 3.19152e-02  4.00895e-02        00000 
 2.42842e-02  2.72453e-02        00000 
 2.04622e-02  1.93650e-02        00000 
 3.49997e-02  5.09764e-01        00000 
 5.08138e-02  4.98546e-01        00000 
 6.27462e-02  4.84706e-01        00000 
 7.44401e-02  4.70705e-01        00000 
 8.61339e-02  4.56704e-01        00000 
 9.64308e-02  4.33794e-01        00000 
 4.36068e-02  7.43281e-02        00000 
 4.14913e-02  6.22096e-02        00000 
 3.64494e-02  5.06078e-02        00000 
 2.80277e-02  3.67330e-02        00000 
 2.42057e-02  2.88527e-02        00000 
 2.03836e-02  2.09724e-02        00000 
 3.72502e-02  4.62539e-01        00000 
 5.26547e-02  4.51044e-01        00000 
 6.43485e-02  4.37043e-01        00000 
 7.60423e-02  4.23042e-01        00000 
 8.77362e-02  4.09041e-01        00000 
 9.81399e-02  3.91119e-01        00000 
 3.86834e-02  6.43793e-02        00000 
 3.18697e-02  5.05351e-02        00000 
 2.49807e-02  4.07785e-02        00000 
 2.55715e-02  3.64349e-02        00000 
 2.41271e-02  3.04601e-02        00000 
 2.03051e-02  2.25798e-02        00000 
 3.95007e-02  4.15314e-01        00000 
 5.42570e-02  4.03381e-01        00000 
 6.59032e-02  3.89276e-01        00000 
 7.47878e-02  3.69125e-01        00000 
 8.36724e-02  3.48975e-01        00000 
 9.20739e-02  3.29089e-01        00000 
 9.42608e-02  2.97518e-01        00000 
 4.05737e-02  6.82747e-02        00000 
 3.37600e-02  5.44305e-02        00000 
 2.69464e-02  4.05863e-02        00000 
 2.20541e-02  3.28462e-02        00000 
 1.71611e-02  2.82137e-02        00000 
 1.52896e-02  2.50477e-02        00000 
 1.58805e-02  2.07041e-02        00000 
 3.97933e-02  3.62882e-01        00000 
 5.04839e-02  3.43951e-01        00000 
 5.93685e-02  3.23800e-01        00000 
 6.82531e-02  3.03650e-01        00000 
 7.37159e-02  2.85375e-01        00000 
 7.83670e-02  2.68416e-01        00000 
 8.22536e-02  2.53018e-01        00000 
 8.10082e-02  2.13909e-01        00000 
 4.33978e-02  7.27812e-02        00000 
 3.59691e-02  5.85345e-02        00000 
 2.88366e-02  4.44817e-02        00000 
 2.36249e-02  3.57266e-02        00000 
 1.90207e-02  2.89016e-02        00000 
 1.44165e-02  2.20765e-02        00000 
 9.78812e-03  1.54353e-02        00000 
 5.00772e-03  1.36604e-02        00000 
 2.89722e-02  3.09825e-01        00000 
 3.84294e-02  2.91158e-01        00000 
 4.51770e-02  2.73777e-01        00000 
 5.06002e-02  2.57318e-01        00000 
 5.60900e-02  2.40345e-01        00000 
 6.16447e-02  2.22869e-01        00000 
 6.71995e-02  2.05394e-01        00000 
 7.07832e-02  1.78506e-01        00000 
 6.35532e-02  1.45164e-01        00000 
 5.23260e-02  1.17512e-01        00000 
 4.46582e-02  8.42480e-02        00000 
 3.93377e-02  6.33973e-02        00000 
 3.19091e-02  4.91507e-02        00000 
 2.57747e-02  3.89859e-02        00000 
 2.05915e-02  3.17820e-02        00000 
 1.59873e-02  2.49569e-02        00000 
 1.13831e-02  1.81318e-02        00000 
 6.77892e-03  1.13068e-02        00000 
 2.17473e-03  4.48174e-03        00000 
 2.18605e-02  2.50773e-01        00000 
 2.72836e-02  2.34314e-01        00000 
 3.27068e-02  2.17855e-01        00000 
 3.81299e-02  2.01396e-01        00000 
 4.35530e-02  1.84938e-01        00000 
 4.89762e-02  1.68479e-01        00000 
 5.43993e-02  1.52020e-01        00000 
 5.89808e-02  1.36401e-01        00000 
 4.95908e-02  1.15370e-01        00000 
 3.83636e-02  8.77178e-02        00000 
 3.11156e-02  6.28891e-02        00000 
 3.10173e-02  5.42095e-02        00000 
 2.84864e-02  4.53924e-02        00000 
 2.36221e-02  3.56176e-02        00000 
 1.84233e-02  2.84035e-02        00000 
 1.32246e-02  2.11894e-02        00000 
 8.34968e-03  1.41872e-02        00000 
 3.74549e-03  7.36213e-03        00000 
-8.58694e-04  5.37081e-04        00000 
 1.13985e-02  1.96073e-01        00000 
 1.71801e-02  1.79833e-01        00000 
 2.29618e-02  1.63592e-01        00000 
 2.87434e-02  1.47351e-01        00000 
 3.45251e-02  1.31111e-01        00000 
 4.03068e-02  1.14870e-01        00000 
 4.34718e-02  1.01139e-01        00000 
 4.19628e-02  9.35722e-02        00000 
 3.90562e-02  8.38718e-02        00000 
 2.75227e-02  6.04053e-02        00000 
 2.23781e-02  5.10168e-02        00000 
 2.23489e-02  4.45760e-02        00000 
 2.21165e-02  4.35609e-02        00000 
 2.18841e-02  4.25459e-02        00000 
 1.53980e-02  3.21172e-02        00000 
 1.26491e-02  1.92484e-02        00000 
 7.52688e-03  1.21036e-02        00000 
 2.43995e-03  4.98184e-03        00000 
-2.08779e-03 -1.77400e-03        00000 
 1.78998e-02  1.51698e-01        00000 
 2.36815e-02  1.35458e-01        00000 
 2.94631e-02  1.19217e-01        00000 
 3.52448e-02  1.02976e-01        00000 
 3.75934e-02  9.00279e-02        00000 
 3.54522e-02  8.13853e-02        00000 
 3.33109e-02  7.27427e-02        00000 
 3.24410e-02  6.62637e-02        00000 
 3.18404e-02  6.02430e-02        00000 
 2.43946e-02  4.32993e-02        00000 
 1.93618e-02  4.00676e-02        00000 
 1.90580e-02  3.96038e-02        00000 
 1.88256e-02  3.85887e-02        00000 
 1.85932e-02  3.75736e-02        00000 
 1.83608e-02  3.65585e-02        00000 
 1.22632e-02  2.67148e-02        00000 
 9.42527e-03  1.24016e-02        00000 
 4.30306e-03  5.25673e-03        00000 
-8.19141e-04 -1.88812e-03        00000 
 2.44011e-02  1.07323e-01        00000 
 3.01828e-02  9.10825e-02        00000 
 3.17151e-02  7.89169e-02        00000 
 2.95739e-02  7.02744e-02        00000 
 2.74326e-02  6.16318e-02        00000 
 2.52914e-02  5.29892e-02        00000 
 2.35199e-02  4.49760e-02        00000 
 2.29193e-02  3.89552e-02        00000 
 2.23186e-02  3.29345e-02        00000 
 2.12718e-02  2.62154e-02        00000 
 1.69077e-02  3.12387e-02        00000 
 1.58344e-02  3.41122e-02        00000 
 1.55347e-02  3.36164e-02        00000 
 1.53023e-02  3.26014e-02        00000 
 1.50699e-02  3.15863e-02        00000 
 1.48374e-02  3.05712e-02        00000 
 9.12842e-03  2.13123e-02        00000 
 5.61098e-03  6.76131e-03        00000 
 1.07925e-03 -1.59015e-03        00000 
 2.58368e-02  6.78060e-02        00000 
 2.36956e-02  5.91635e-02        00000 
 2.15543e-02  5.05209e-02        00000 
 1.94130e-02  4.18783e-02        00000 
 1.72718e-02  3.32358e-02        00000 
 1.52553e-02  2.50737e-02        00000 
 1.49177e-02  2.12083e-02        00000 
 1.51118e-02  1.82479e-02        00000 
 1.53059e-02  1.52876e-02        00000 
 1.64135e-02  1.66013e-02        00000 
 1.53614e-02  2.09787e-02        00000 
 1.29563e-02  2.59518e-02        00000 
 1.23069e-02  2.81569e-02        00000 
 1.20114e-02  2.76291e-02        00000 
 1.17790e-02  2.66141e-02        00000 
 1.15465e-02  2.55990e-02        00000 
 1.13141e-02  2.45839e-02        00000 
 5.99364e-03  1.59099e-02        00000 
 4.37247e-04  3.89898e-03        00000 
 9.27915e-02  4.24643e-01        00000 
 8.39930e-02  2.55589e-01        00000 
 7.21527e-02  2.09456e-01        00000 
 5.60224e-02  1.08948e-01        00000 
 4.68238e-02  8.31441e-02        00000 
 1.59298e-02  4.03872e-02        00000 
 1.45833e-02  3.48050e-02        00000 
 1.32368e-02  2.92228e-02        00000 
 1.18903e-02  2.36406e-02        00000 
 1.05438e-02  1.80584e-02        00000 
 9.30457e-03  1.26588e-02        00000 
 9.49869e-03  9.69843e-03        00000 
 1.15199e-02  1.07119e-02        00000 
 1.29223e-02  1.22812e-02        00000 
 1.36620e-02  1.31751e-02        00000 
 1.44016e-02  1.40690e-02        00000 
 1.00782e-02  1.77913e-02        00000 
 9.42880e-03  1.99965e-02        00000 
 8.77943e-03  2.22016e-02        00000 
 8.48806e-03  2.16418e-02        00000 
 8.25564e-03  2.06267e-02        00000 
 8.02322e-03  1.96117e-02        00000 
 7.79080e-03  1.85966e-02        00000 
 2.85886e-03  1.05074e-02        00000 
 8.35553e-03  9.16423e-01        00000 
 1.04831e-02  8.60927e-01        00000 
 1.13888e-02  8.09324e-01        00000 
 1.32323e-02  7.61579e-01        00000 
 1.50759e-02  7.13835e-01        00000 
 1.69194e-02  6.66091e-01        00000 
 1.65649e-02  6.16835e-01        00000 
 1.69352e-02  5.68208e-01        00000 
 7.05014e-02  1.79178e-01        00000 
 1.91857e-02  5.20983e-01        00000 
 2.14361e-02  4.73758e-01        00000 
 2.36866e-02  4.26532e-01        00000 
 5.17121e-02  9.73645e-02        00000 
 2.59371e-02  3.79307e-01        00000 
 2.23938e-02  3.24905e-01        00000 
 1.41115e-02  2.68851e-01        00000 
 5.61681e-03  2.12314e-01        00000 
 1.21181e-02  1.67939e-01        00000 
 1.86195e-02  1.23564e-01        00000 
 2.51208e-02  7.91887e-02        00000 
 1.78172e-02  4.80526e-02        00000 
 6.07777e-03  9.71468e-01        00000 
 5.79464e-02  1.12466e-01        00000 
 1.22598e-02  9.31987e-01        00000 
 1.76745e-02  8.90693e-01        00000 
 2.30892e-02  8.49398e-01        00000 
 1.87964e-02  8.00467e-01        00000 
 1.13041e-02  7.49352e-01        00000 
 3.81180e-03  6.98236e-01        00000 
-5.35732e-04  6.52188e-01        00000 
-4.32533e-03  6.02065e-01        00000 
-8.22810e-03  5.51067e-01        00000 
-1.15301e-02  4.99781e-01        00000 
-7.68260e-03  4.43558e-01        00000 
-2.03818e-03  3.86277e-01        00000 
 3.55336e-03  3.31402e-01        00000 
 7.84021e-03  2.81543e-01        00000 
 1.13904e-02  2.30897e-01        00000 
 1.07230e-02  1.75743e-01        00000 
 1.00556e-02  1.20589e-01        00000 
 8.72083e-03  6.69330e-02        00000 
 4.28518e-03  2.84315e-02        00000 
 1.59774e-02  8.82298e-01        00000 
 2.43683e-02  8.52075e-01        00000 
 2.97830e-02  8.10781e-01        00000 
 3.51978e-02  7.69487e-01        00000 
 3.62775e-02  7.25096e-01        00000 
 2.87851e-02  6.73980e-01        00000 
 2.12928e-02  6.22865e-01        00000 
 1.63810e-02  5.72552e-01        00000 
 1.24782e-02  5.21553e-01        00000 
 8.36906e-03  4.70908e-01        00000 
 2.95557e-03  4.22496e-01        00000 
 4.36424e-03  3.70822e-01        00000 
 8.39752e-03  3.20484e-01        00000 
 9.52428e-03  2.73339e-01        00000 
 1.33194e-02  2.23903e-01        00000 
 1.41301e-02  1.70329e-01        00000 
 1.31489e-02  1.17811e-01        00000 
 1.21486e-02  6.54530e-02        00000 
 6.86456e-03  3.36056e-02        00000 
 1.75853e-02  8.27014e-01        00000 
 3.10621e-02  8.13458e-01        00000 
 3.64769e-02  7.72164e-01        00000 
 4.18916e-02  7.30869e-01        00000 
 4.65507e-02  6.89350e-01        00000 
 4.76837e-02  6.45915e-01        00000 
 4.55394e-02  5.99853e-01        00000 
 3.76031e-02  5.46817e-01        00000 
 3.13083e-02  4.95252e-01        00000 
 2.58948e-02  4.46840e-01        00000 
 2.04813e-02  3.98428e-01        00000 
 1.76560e-02  3.51783e-01        00000 
 2.08995e-02  3.02989e-01        00000 
 2.20263e-02  2.55844e-01        00000 
 2.13978e-02  2.06823e-01        00000 
 1.92759e-02  1.58921e-01        00000 
 1.70630e-02  1.11784e-01        00000 
 1.51721e-02  6.32603e-02        00000 
 9.44394e-03  3.87797e-02        00000 
 1.94241e-02  7.79266e-01        00000 
 3.36512e-02  7.66896e-01        00000 
 4.51390e-02  7.45272e-01        00000 
 5.00737e-02  7.04416e-01        00000 
 5.34465e-02  6.62496e-01        00000 
 5.45795e-02  6.19061e-01        00000 
 5.57125e-02  5.75626e-01        00000 
 5.69015e-02  5.32074e-01        00000 
 4.97257e-02  4.74374e-01        00000 
 4.37293e-02  4.23002e-01        00000 
 4.09209e-02  3.76533e-01        00000 
 3.81126e-02  3.30063e-01        00000 
 3.26543e-02  2.84695e-01        00000 
 3.08192e-02  2.34385e-01        00000 
 2.88520e-02  1.85183e-01        00000 
 2.62655e-02  1.37387e-01        00000 
 2.35053e-02  8.92844e-02        00000 
 1.91920e-02  5.27203e-02        00000 
 1.19763e-02  3.77180e-02        00000 
 2.12676e-02  7.31522e-01        00000 
 3.54947e-02  7.19152e-01        00000 
 4.97218e-02  7.06781e-01        00000 
 5.99133e-02  6.79514e-01        00000 
 6.15865e-02  6.36455e-01        00000 
 6.21468e-02  5.92646e-01        00000 
 6.27070e-02  5.48836e-01        00000 
 6.37413e-02  5.05336e-01        00000 
 6.84223e-02  4.59060e-01        00000 
 6.54223e-02  4.04596e-01        00000 
 6.15106e-02  3.54749e-01        00000 
 5.61106e-02  3.05545e-01        00000 
 4.00989e-02  2.61697e-01        00000 
 3.70271e-02  2.09206e-01        00000 
 3.42483e-02  1.60840e-01        00000 
 3.14882e-02  1.12737e-01        00000 
 2.87280e-02  6.46347e-02        00000 
 2.16987e-02  4.82476e-02        00000 
 1.44830e-02  3.32453e-02        00000 
 2.31112e-02  6.83778e-01        00000 
 3.73383e-02  6.71407e-01        00000 
 5.15654e-02  6.59037e-01        00000 
 6.37431e-02  6.42323e-01        00000 
 7.01908e-02  6.10719e-01        00000 
 7.07510e-02  5.66909e-01        00000 
 7.26567e-02  5.24103e-01        00000 
 7.51972e-02  4.81769e-01        00000 
 7.89860e-02  4.37003e-01        00000 
 8.42993e-02  3.89267e-01        00000 
 8.18936e-02  3.30741e-01        00000 
 6.88091e-02  2.77095e-01        00000 
 4.97737e-02  2.32239e-01        00000 
 4.22311e-02  1.84293e-01        00000 
 3.94710e-02  1.36190e-01        00000 
 3.67108e-02  8.80874e-02        00000 
 3.14211e-02  5.87771e-02        00000 
 2.42054e-02  4.37749e-02        00000 
 1.69897e-02  2.87726e-02        00000 
 2.48938e-02  6.35992e-01        00000 
 3.91818e-02  6.23663e-01        00000 
 5.34089e-02  6.11293e-01        00000 
 6.39366e-02  5.96424e-01        00000 
 7.42198e-02  5.73906e-01        00000 
 8.24177e-02  5.43456e-01        00000 
 8.45971e-02  5.00870e-01        00000 