<?xml version="1.0" encoding="utf-8"?>
<VTKFile byte_order="LittleEndian" type="UnstructuredGrid" version="0.1">
   <UnstructuredGrid>
      <Piece NumberOfCells="9064" NumberOfPoints="4760">
         <Points>
            <DataArray Name="Points" NumberOfComponents="3" format="ascii" type="Float32">
-1.0000 -0.9592 0.0000
-1.0000 -0.9184 0.0000
-1.0000 -0.8776 0.0000
-1.0000 -0.8367 0.0000
-1.0000 -0.7959 0.0000
-1.0000 -0.7551 0.0000
-1.0000 -0.7143 0.0000
-1.0000 -0.6735 0.0000
-1.0000 -0.6327 0.0000
-1.0000 -0.5918 0.0000
-1.0000 -0.5510 0.0000
-1.0000 -0.5102 0.0000
-1.0000 -0.4694 0.0000
-1.0000 -0.4286 0.0000
-1.0000 -0.3878 0.0000
-1.0000 -0.3469 0.0000
-1.0000 -0.3061 0.0000
-1.0000 -0.2653 0.0000
-1.0000 -0.2245 0.0000
-1.0000 -0.1837 0.0000
-1.0000 -0.1429 0.0000
-1.0000 -0.1020 0.0000
-1.0000 -0.0612 0.0000
-1.0000 -0.0204 0.0000
-1.0000 0.0204 0.0000
-1.0000 0.0612 0.0000
-1.0000 0.1020 0.0000
-1.0000 0.1429 0.0000
-1.0000 0.1837 0.0000
-1.0000 0.2245 0.0000
-1.0000 0.2653 0.0000
-1.0000 0.3061 0.0000
-1.0000 0.3469 0.0000
-1.0000 0.3878 0.0000
-1.0000 0.4286 0.0000
-1.0000 0.4694 0.0000
-1.0000 0.5102 0.0000
-1.0000 0.5510 0.0000
-1.0000 0.5918 0.0000
-1.0000 0.6327 0.0000
-1.0000 0.6735 0.0000
-1.0000 0.7143 0.0000
-1.0000 0.7551 0.0000
-1.0000 0.7959 0.0000
-1.0000 0.8367 0.0000
-1.0000 0.8776 0.0000
-1.0000 0.9184 0.0000
-1.0000 0.9592 0.0000
-1.0000 1.0000 0.0000
-0.9592 -0.9592 0.0000
-0.9592 -0.9184 0.0000
-0.9592 -0.8776 0.0000
-0.9592 -0.8367 0.0000
-0.9592 -0.7959 0.0000
-0.9592 -0.7551 0.0000
-0.9592 -0.7143 0.0000
-0.9592 -0.6735 0.0000
-0.9592 -0.6327 0.0000
-0.9592 -0.5918 0.0000
-0.9592 -0.5510 0.0000
-0.9592 -0.5102 0.0000
-0.9592 -0.4694 0.0000
-0.9592 -0.4286 0.0000
-0.9592 -0.3878 0.0000
-0.9592 -0.3469 0.0000
-0.9592 -0.3061 0.0000
-0.9592 -0.2653 0.0000
-0.9592 -0.2245 0.0000
-0.9592 -0.1837 0.0000
-0.9592 -0.1429 0.0000
-0.9592 -0.1020 0.0000
-0.9592 -0.0612 0.0000
-0.9592 -0.0204 0.0000
-0.9592 0.0204 0.0000
-0.9592 0.0612 0.0000
-0.9592 0.1020 0.0000
-0.9592 0.1429 0.0000
-0.9592 0.1837 0.0000
-0.9592 0.2245 0.0000
-0.9592 0.2653 0.0000
-0.9592 0.3061 0.0000
-0.9592 0.3469 0.0000
-0.9592 0.3878 0.0000
-0.9592 0.4286 0.0000
-0.9592 0.4694 0.0000
-0.9592 0.5102 0.0000
-0.9592 0.5510 0.0000
-0.9592 0.5918 0.0000
-0.9592 0.6327 0.0000
-0.9592 0.6735 0.0000
-0.9592 0.7143 0.0000
-0.9592 0.7551 0.0000
-0.9592 0.7959 0.0000
-0.9592 0.8367 0.0000
-0.9592 0.8776 0.0000
-0.9592 0.9184 0.0000
-0.9592 0.9592 0.0000
-0.9592 1.0000 0.0000
-0.9184 -0.9592 0.0000
-0.9184 -0.9184 0.0000
-0.9184 -0.8776 0.0000
-0.9184 -0.8367 0.0000
-0.9184 -0.7959 0.0000
-0.9184 -0.7551 0.0000
-0.9184 -0.7143 0.0000
-0.9184 -0.6735 0.0000
-0.9184 -0.6327 0.0000
-0.9184 -0.5918 0.0000
-0.9184 -0.5510 0.0000
-0.9184 -0.5102 0.0000
-0.9184 -0.4694 0.0000
-0.9184 -0.4286 0.0000
-0.9184 -0.3878 0.0000
-0.9184 -0.3469 0.0000
-0.9184 -0.3061 0.0000
-0.9184 -0.2653 0.0000
-0.9184 -0.2245 0.0000
-0.9184 -0.1837 0.0000
-0.9184 -0.1429 0.0000
-0.9184 -0.1020 0.0000
-0.9184 -0.0612 0.0000
-0.9184 -0.0204 0.0000
-0.9184 0.0204 0.0000
-0.9184 0.0612 0.0000
-0.9184 0.1020 0.0000
-0.9184 0.1429 0.0000
-0.9184 0.1837 0.0000
-0.9184 0.2245 0.0000
-0.9184 0.2653 0.0000
-0.9184 0.3061 0.0000
-0.9184 0.3469 0.0000
-0.9184 0.3878 0.0000
-0.9184 0.4286 0.0000
-0.9184 0.4694 0.0000
-0.9184 0.5102 0.0000
-0.9184 0.5510 0.0000
-0.9184 0.5918 0.0000
-0.9184 0.6327 0.0000
-0.9184 0.6735 0.0000
-0.9184 0.7143 0.0000
-0.9184 0.7551 0.0000
-0.9184 0.7959 0.0000
-0.9184 0.8367 0.0000
-0.9184 0.8776 0.0000
-0.9184 0.9184 0.0000
-0.9184 0.9592 0.0000
-0.9184 1.0000 0.0000
-0.8776 -0.9592 0.0000
-0.8776 -0.9184 0.0000
-0.8776 -0.8776 0.0000
-0.8776 -0.8367 0.0000
-0.8776 -0.7959 0.0000
-0.8776 -0.7551 0.0000
-0.8776 -0.7143 0.0000
-0.8776 -0.6735 0.0000
-0.8776 -0.6327 0.0000
-0.8776 -0.5918 0.0000
-0.8776 -0.5510 0.0000
-0.8776 -0.5102 0.0000
-0.8776 -0.4694 0.0000
-0.8776 -0.4286 0.0000
-0.8776 -0.3878 0.0000
-0.8776 -0.3469 0.0000
-0.8776 -0.3061 0.0000
-0.8776 -0.2653 0.0000
-0.8776 -0.2245 0.0000
-0.8776 -0.1837 0.0000
-0.8776 -0.1429 0.0000
-0.8776 -0.1020 0.0000
-0.8776 -0.0612 0.0000
-0.8776 -0.0204 0.0000
-0.8776 0.0204 0.0000
-0.8776 0.0612 0.0000
-0.8776 0.1020 0.0000
-0.8776 0.1429 0.0000
-0.8776 0.1837 0.0000
-0.8776 0.2245 0.0000
-0.8776 0.2653 0.0000
-0.8776 0.3061 0.0000
-0.8776 0.3469 0.0000
-0.8776 0.3878 0.0000
-0.8776 0.4286 0.0000
-0.8776 0.4694 0.0000
-0.8776 0.5102 0.0000
-0.8776 0.5510 0.0000
-0.8776 0.5918 0.0000
-0.8776 0.6327 0.0000
-0.8776 0.6735 0.0000
-0.8776 0.7143 0.0000
-0.8776 0.7551 0.0000
-0.8776 0.7959 0.0000
-0.8776 0.8367 0.0000
-0.8776 0.8776 0.0000
-0.8776 0.9184 0.0000
-0.8776 0.9592 0.0000
-0.8776 1.0000 0.0000
-0.8367 -0.9592 0.0000
-0.8367 -0.9184 0.0000
-0.8367 -0.8776 0.0000
-0.8367 -0.8367 0.0000
-0.8367 -0.7959 0.0000
-0.8367 -0.7551 0.0000
-0.8367 -0.7143 0.0000
-0.8367 -0.6735 0.0000
-0.8367 -0.6327 0.0000
-0.8367 -0.5918 0.0000
-0.8367 -0.5510 0.0000
-0.8367 -0.5102 0.0000
-0.8367 -0.4694 0.0000
-0.8367 -0.4286 0.0000
-0.8367 -0.3878 0.0000
-0.8367 -0.3469 0.0000
-0.8367 -0.3061 0.0000
-0.8367 -0.2653 0.0000
-0.8367 -0.2245 0.0000
-0.8367 -0.1837 0.0000
-0.8367 -0.1429 0.0000
-0.8367 -0.1020 0.0000
-0.8367 -0.0612 0.0000
-0.8367 -0.0204 0.0000
-0.8367 0.0204 0.0000
-0.8367 0.0612 0.0000
-0.8367 0.1020 0.0000
-0.8367 0.1429 0.0000
-0.8367 0.1837 0.0000
-0.8367 0.2245 0.0000
-0.8367 0.2653 0.0000
-0.8367 0.3061 0.0000
-0.8367 0.3469 0.0000
-0.8367 0.3878 0.0000
-0.8367 0.4286 0.0000
-0.8367 0.4694 0.0000
-0.8367 0.5102 0.0000
-0.8367 0.5510 0.0000
-0.8367 0.5918 0.0000
-0.8367 0.6327 0.0000
-0.8367 0.6735 0.0000
-0.8367 0.7143 0.0000
-0.8367 0.7551 0.0000
-0.8367 0.7959 0.0000
-0.8367 0.8367 0.0000
-0.8367 0.8776 0.0000
-0.8367 0.9184 0.0000
-0.8367 0.9592 0.0000
-0.8367 1.0000 0.0000
-0.7959 -0.9592 0.0000
-0.7959 -0.9184 0.0000
-0.7959 -0.8776 0.0000
-0.7959 -0.8367 0.0000
-0.7959 -0.7959 0.0000
-0.7959 -0.7551 0.0000
-0.7959 -0.7143 0.0000
-0.7959 -0.6735 0.0000
-0.7959 -0.6327 0.0000
-0.7959 -0.5918 0.0000
-0.7959 -0.5510 0.0000
-0.7959 -0.5102 0.0000
-0.7959 -0.4694 0.0000
-0.7959 -0.4286 0.0000
-0.7959 -0.3878 0.0000
-0.7959 -0.3469 0.0000
-0.7959 -0.3061 0.0000
-0.7959 -0.2653 0.0000
-0.7959 -0.2245 0.0000
-0.7959 -0.1837 0.0000
-0.7959 -0.1429 0.0000
-0.7959 -0.1020 0.0000
-0.7959 -0.0612 0.0000
-0.7959 -0.0204 0.0000
-0.7959 0.0204 0.0000
-0.7959 0.0612 0.0000
-0.7959 0.1020 0.0000
-0.7959 0.1429 0.0000
-0.7959 0.1837 0.0000
-0.7959 0.2245 0.0000
-0.7959 0.2653 0.0000
-0.7959 0.3061 0.0000
-0.7959 0.3469 0.0000
-0.7959 0.3878 0.0000
-0.7959 0.4286 0.0000
-0.7959 0.4694 0.0000
-0.7959 0.5102 0.0000
-0.7959 0.5510 0.0000
-0.7959 0.5918 0.0000
-0.7959 0.6327 0.0000
-0.7959 0.6735 0.0000
-0.7959 0.7143 0.0000
-0.7959 0.7551 0.0000
-0.7959 0.7959 0.0000
-0.7959 0.8367 0.0000
-0.7959 0.8776 0.0000
-0.7959 0.9184 0.0000
-0.7959 0.9592 0.0000
-0.7959 1.0000 0.0000
-0.7551 -0.9592 0.0000
-0.7551 -0.9184 0.0000
-0.7551 -0.8776 0.0000
-0.7551 -0.8367 0.0000
-0.7551 -0.7959 0.0000
-0.7551 -0.7551 0.0000
-0.7551 -0.7143 0.0000
-0.7551 -0.6735 0.0000
-0.7551 -0.6327 0.0000
-0.7551 -0.5918 0.0000
-0.7551 -0.5510 0.0000
-0.7551 -0.5102 0.0000
-0.7551 -0.4694 0.0000
-0.7551 -0.4286 0.0000
-0.7551 -0.3878 0.0000
-0.7551 -0.3469 0.0000
-0.7551 -0.3061 0.0000
-0.7551 -0.2653 0.0000
-0.7551 -0.2245 0.0000
-0.7551 -0.1837 0.0000
-0.7551 -0.1429 0.0000
-0.7551 -0.1020 0.0000
-0.7551 -0.0612 0.0000
-0.7551 -0.0204 0.0000
-0.7551 0.0204 0.0000
-0.7551 0.0612 0.0000
-0.7551 0.1020 0.0000
-0.7551 0.1429 0.0000
-0.7551 0.1837 0.0000
-0.7551 0.2245 0.0000
-0.7551 0.2653 0.0000
-0.7551 0.3061 0.0000
-0.7551 0.3469 0.0000
-0.7551 0.3878 0.0000
-0.7551 0.4286 0.0000
-0.7551 0.4694 0.0000
-0.7551 0.5102 0.0000
-0.7551 0.5510 0.0000
-0.7551 0.5918 0.0000
-0.7551 0.6327 0.0000
-0.7551 0.6735 0.0000
-0.7551 0.7143 0.0000
-0.7551 0.7551 0.0000
-0.7551 0.7959 0.0000
-0.7551 0.8367 0.0000
-0.7551 0.8776 0.0000
-0.7551 0.9184 0.0000
-0.7551 0.9592 0.0000
-0.7551 1.0000 0.0000
-0.7143 -0.9592 0.0000
-0.7143 -0.9184 0.0000
-0.7143 -0.8776 0.0000
-0.7143 -0.8367 0.0000
-0.7143 -0.7959 0.0000
-0.7143 -0.7551 0.0000
-0.7143 -0.7143 0.0000
-0.7143 -0.6735 0.0000
-0.7143 -0.6327 0.0000
-0.7143 -0.5918 0.0000
-0.7143 -0.5510 0.0000
-0.7143 -0.5102 0.0000
-0.7143 -0.4694 0.0000
-0.7143 -0.4286 0.0000
-0.7143 -0.3878 0.0000
-0.7143 -0.3469 0.0000
-0.7143 -0.3061 0.0000
-0.7143 -0.2653 0.0000
-0.7143 -0.2245 0.0000
-0.7143 -0.1837 0.0000
-0.7143 -0.1429 0.0000
-0.7143 -0.1020 0.0000
-0.7143 -0.0612 0.0000
-0.7143 -0.0204 0.0000
-0.7143 0.0204 0.0000
-0.7143 0.0612 0.0000
-0.7143 0.1020 0.0000
-0.7143 0.1429 0.0000
-0.7143 0.1837 0.0000
-0.7143 0.2245 0.0000
-0.7143 0.2653 0.0000
-0.7143 0.3061 0.0000
-0.7143 0.3469 0.0000
-0.7143 0.3878 0.0000
-0.7143 0.4286 0.0000
-0.7143 0.4694 0.0000
-0.7143 0.5102 0.0000
-0.7143 0.5510 0.0000
-0.7143 0.5918 0.0000
-0.7143 0.6327 0.0000
-0.7143 0.6735 0.0000
-0.7143 0.7143 0.0000
-0.7143 0.7551 0.0000
-0.7143 0.7959 0.0000
-0.7143 0.8367 0.0000
-0.7143 0.8776 0.0000
-0.7143 0.9184 0.0000
-0.7143 0.9592 0.0000
-0.7143 1.0000 0.0000
-0.6735 -0.9592 0.0000
-0.6735 -0.9184 0.0000
-0.6735 -0.8776 0.0000
-0.6735 -0.8367 0.0000
-0.6735 -0.7959 0.0000
-0.6735 -0.7551 0.0000
-0.6735 -0.7143 0.0000
-0.6735 -0.6735 0.0000
-0.6735 -0.6327 0.0000
-0.6735 -0.5918 0.0000
-0.6735 -0.5510 0.0000
-0.6735 -0.5102 0.0000
-0.6735 -0.4694 0.0000
-0.6735 -0.4286 0.0000
-0.6735 -0.3878 0.0000
-0.6735 -0.3469 0.0000
-0.6735 -0.3061 0.0000
-0.6735 -0.2653 0.0000
-0.6735 -0.2245 0.0000
-0.6735 -0.1837 0.0000
-0.6735 -0.1429 0.0000
-0.6735 -0.1020 0.0000
-0.6735 -0.0612 0.0000
-0.6735 -0.0204 0.0000
-0.6735 0.0204 0.0000
-0.6735 0.0612 0.0000
-0.6735 0.1020 0.0000
-0.6735 0.1429 0.0000
-0.6735 0.1837 0.0000
-0.6735 0.2245 0.0000
-0.6735 0.2653 0.0000
-0.6735 0.3061 0.0000
-0.6735 0.3469 0.0000
-0.6735 0.3878 0.0000
-0.6735 0.4286 0.0000
-0.6735 0.4694 0.0000
-0.6735 0.5102 0.0000
-0.6735 0.5510 0.0000
-0.6735 0.5918 0.0000
[...]
         <PointData>
            <DataArray Name="fValues" NumberOfComponents="3" format="ascii" type="Float64">
 3.67150e-03  4.07234e-03        00000 
 3.89434e-03  3.25762e-03        00000 
 4.35946e-03  3.09107e-03        00000 
 4.11809e-03  3.12265e-03        00000 
 3.53400e-03  3.73875e-03        00000 
 2.96289e-03  4.22966e-03        00000 
 4.05926e-03  2.07502e-03        00000 
 3.46151e-03  3.20179e-03        00000 
 3.29378e-03  3.44512e-03        00000 
 3.40968e-03  3.39143e-03        00000 
 3.06748e-03  3.55005e-03        00000 
 2.30969e-03  4.27858e-03        00000 
 1.02825e-03  3.12143e-03        00000 
 1.31293e-04  2.13415e-03        00000 
-5.90618e-04  2.05064e-03        00000 
-5.87842e-04  3.66195e-03        00000 
-6.59819e-04  5.73811e-03        00000 
-4.11426e-04  6.70277e-03        00000 
 1.74697e-04  6.60573e-03        00000 
 6.83827e-04  4.99037e-03        00000 
 5.43132e-04  5.76218e-03        00000 
-8.65662e-04  7.79980e-03        00000 
-1.72085e-03  9.14831e-03        00000 
-1.68972e-03  8.94851e-03        00000 
-1.68022e-03  8.55164e-03        00000 
-1.65019e-03  7.27904e-03        00000 
-1.39332e-03  6.25422e-03        00000 
-1.40300e-03  5.85167e-03        00000 
-1.13438e-03  6.03044e-03        00000 
-9.06055e-04  5.87318e-03        00000 
-6.00628e-04  5.47473e-03        00000 
-8.57165e-04  4.92494e-03        00000 
-1.23666e-03  3.69515e-03        00000 
-1.78007e-03  3.86621e-03        00000 
-2.50780e-03  4.27432e-03        00000 
-3.05751e-03  5.07057e-03        00000 
-3.42758e-03  5.81162e-03        00000 
-3.29454e-03  6.47346e-03        00000 
-2.30376e-03  5.43866e-03        00000 
-1.42611e-03  4.02372e-03        00000 
-6.79661e-04  2.83223e-03        00000 
-9.86295e-04  3.73367e-03        00000 
-1.17490e-03  4.86857e-03        00000 
-1.11168e-03  5.68366e-03        00000 
-8.81950e-04  6.12636e-03        00000 
-4.32625e-04  5.60660e-03        00000 
 3.31775e-04  5.84100e-03        00000 
 7.01730e-04  4.68350e-03        00000 
 1.11566e-03  3.13564e-03        00000 
 1.46262e-03  2.15025e-02        00000 
 2.28165e-04  2.04840e-02        00000 
-1.40117e-03  1.99102e-02        00000 
-2.00440e-03  1.98434e-02        00000 
-1.13962e-03  1.97736e-02        00000 
-5.39329e-04  2.03756e-02        00000 
-1.47165e-03  2.00059e-02        00000 
-2.95835e-03  1.96922e-02        00000 
-3.62746e-03  1.89040e-02        00000 
-3.77330e-03  1.85521e-02        00000 
-3.84028e-03  1.78065e-02        00000 
-4.20110e-03  1.68436e-02        00000 
-4.49702e-03  1.58251e-02        00000 
-5.17478e-03  1.50486e-02        00000 
-6.06957e-03  1.41599e-02        00000 
-6.97244e-03  1.48205e-02        00000 
-7.40300e-03  1.63331e-02        00000 
-7.65838e-03  1.68833e-02        00000 
-7.42090e-03  1.59708e-02        00000 
-7.65611e-03  1.44860e-02        00000 
-7.92849e-03  1.47715e-02        00000 
-7.50746e-03  1.52532e-02        00000 
-7.50926e-03  1.64601e-02        00000 
-7.71480e-03  1.53305e-02        00000 
-7.58528e-03  1.39870e-02        00000 
-7.01305e-03  1.30921e-02        00000 
-6.11659e-03  1.33194e-02        00000 
-4.95848e-03  1.23294e-02        00000 
-4.09987e-03  1.07551e-02        00000 
-3.79488e-03  9.86247e-03        00000 
-4.19952e-03  9.42790e-03        00000 
-4.65320e-03  8.54322e-03        00000 
-5.30309e-03  8.36729e-03        00000 
-5.83629e-03  7.99057e-03        00000 
-5.71038e-03  8.03504e-03        00000 
-5.95286e-03  9.52302e-03        00000 
-6.20117e-03  9.58078e-03        00000 
-6.23908e-03  8.31072e-03        00000 
-6.20653e-03  7.28728e-03        00000 
-5.37432e-03  5.11481e-03        00000 
-4.75386e-03  4.28802e-03        00000 
-3.75687e-03  4.02934e-03        00000 
-3.37212e-03  4.57814e-03        00000 
-3.40789e-03  5.37074e-03        00000 
-3.21507e-03  6.34454e-03        00000 
-1.52463e-03  6.55605e-03        00000 
 1.71806e-03  4.81497e-03        00000 
 2.54370e-03  2.91239e-03        00000 
 1.68860e-03  1.37601e-03        00000 
-2.19024e-03  4.22755e-02        00000 
-4.08408e-03  3.83168e-02        00000 
-3.53223e-03  3.54832e-02        00000 
-3.75673e-03  3.54069e-02        00000 
-3.81878e-03  3.60320e-02        00000 
-4.13470e-03  3.65354e-02        00000 
-5.09178e-03  3.46422e-02        00000 
-6.56396e-03  3.25234e-02        00000 
-8.98562e-03  3.29029e-02        00000 
-1.06662e-02  3.29538e-02        00000 
-1.06974e-02  3.20192e-02        00000 
-1.02255e-02  2.94948e-02        00000 
-1.10202e-02  2.88543e-02        00000 
-1.18783e-02  2.79776e-02        00000 
-1.27819e-02  2.72064e-02        00000 
-1.30954e-02  2.67555e-02        00000 
-1.32402e-02  2.69846e-02        00000 
-1.33371e-02  2.74768e-02        00000 
-1.33167e-02  2.61370e-02        00000 
-1.35784e-02  2.43737e-02        00000 
-1.35340e-02  2.42506e-02        00000 
-1.30997e-02  2.39001e-02        00000 
-1.24345e-02  2.30538e-02        00000 
-1.18052e-02  2.27233e-02        00000 
-1.13226e-02  2.20079e-02        00000 
-9.86707e-03  2.12302e-02        00000 
-8.88990e-03  2.11306e-02        00000 
-8.25656e-03  2.07679e-02        00000 
-7.84119e-03  1.96813e-02        00000 
-7.48800e-03  1.71389e-02        00000 
-6.83286e-03  1.45526e-02        00000 
-6.70070e-03  1.40328e-02        00000 
-7.16284e-03  1.38370e-02        00000 
-7.63910e-03  1.37615e-02        00000 
-8.01471e-03  1.46345e-02        00000 
-8.14171e-03  1.43665e-02        00000 
-7.45602e-03  1.05792e-02        00000 
-7.13510e-03  9.10128e-03        00000 
-6.68123e-03  8.11809e-03        00000 
-6.26052e-03  7.27193e-03        00000 
-5.97217e-03  6.48771e-03        00000 
-5.80462e-03  6.17961e-03        00000 
-5.59573e-03  6.19164e-03        00000 
-5.01949e-03  6.21099e-03        00000 
-3.80784e-03  7.41680e-03        00000 
-1.94629e-03  6.52018e-03        00000 
 6.76314e-04  4.41124e-03        00000 
 1.62270e-03  1.28891e-03        00000 
 3.05374e-03 -1.37409e-04        00000 
-3.33976e-03  6.08065e-02        00000 
-2.73724e-03  5.75183e-02        00000 
-4.90280e-03  5.59377e-02        00000 
-7.59582e-03  5.52418e-02        00000 
-8.97096e-03  5.40546e-02        00000 
-8.72433e-03  5.29204e-02        00000 
-9.77006e-03  5.06151e-02        00000 
-1.19097e-02  4.75889e-02        00000 
-1.32484e-02  4.48833e-02        00000 
-1.48225e-02  4.38055e-02        00000 
-1.72000e-02  4.51931e-02        00000 
-1.90059e-02  4.51485e-02        00000 
-1.99051e-02  4.38107e-02        00000 
-2.04863e-02  4.21617e-02        00000 
-2.13040e-02  4.12096e-02        00000 
-2.13257e-02  3.99336e-02        00000 
-2.09866e-02  3.86627e-02        00000 
-2.08339e-02  3.85333e-02        00000 
-2.06141e-02  3.73901e-02        00000 
-2.02102e-02  3.57373e-02        00000 
-1.97976e-02  3.59550e-02        00000 
-1.92667e-02  3.59681e-02        00000 
-1.82688e-02  3.48462e-02        00000 
-1.67184e-02  3.27980e-02        00000 
-1.49539e-02  3.12802e-02        00000 
-1.36603e-02  2.97364e-02        00000 
-1.24794e-02  2.93744e-02        00000 
-1.19387e-02  2.90018e-02        00000 
-1.18751e-02  2.74327e-02        00000 
-1.16135e-02  2.56734e-02        00000 
-1.09423e-02  2.31292e-02        00000 
-1.04095e-02  2.23734e-02        00000 
-1.03674e-02  2.21116e-02        00000 
-1.04743e-02  2.20847e-02        00000 
-1.05135e-02  2.09488e-02        00000 
-9.87661e-03  1.75396e-02        00000 
-8.79833e-03  1.41490e-02        00000 
-8.31666e-03  1.23112e-02        00000 
-8.53142e-03  1.19149e-02        00000 
-8.31234e-03  1.06015e-02        00000 
-7.88988e-03  9.16601e-03        00000 
-7.80202e-03  8.96215e-03        00000 
-7.53369e-03  7.62397e-03        00000 
-6.27373e-03  7.17670e-03        00000 
-4.72131e-03  6.46965e-03        00000 
-3.77355e-03  5.55113e-03        00000 
-1.83031e-03  3.45158e-03        00000 
-6.86932e-04  8.26206e-04        00000 
 2.11680e-03 -1.14334e-03        00000 
-2.76656e-03  7.98791e-02        00000 
-4.08304e-03  7.66612e-02        00000 
-7.93999e-03  7.60012e-02        00000 
-1.05315e-02  7.34958e-02        00000 
-1.18799e-02  7.03070e-02        00000 
-1.29128e-02  6.77789e-02        00000 
-1.43924e-02  6.53844e-02        00000 
-1.62025e-02  6.28309e-02        00000 
-1.67231e-02  5.99935e-02        00000 
-1.82001e-02  5.72003e-02        00000 
-2.15114e-02  5.77100e-02        00000 
-2.48718e-02  5.77511e-02        00000 
-2.60759e-02  5.74893e-02        00000 
-2.69411e-02  5.50982e-02        00000 
-2.75204e-02  5.31799e-02        00000 
-2.81187e-02  5.23553e-02        00000 
-2.77466e-02  5.11371e-02        00000 
-2.69718e-02  4.99516e-02        00000 
-2.65124e-02  4.85314e-02        00000 
-2.61931e-02  4.85494e-02        00000 
-2.57707e-02  4.88792e-02        00000 
-2.50005e-02  4.85930e-02        00000 
-2.32729e-02  4.63507e-02        00000 
-2.12770e-02  4.39125e-02        00000 
-1.87365e-02  4.16623e-02        00000 
-1.70455e-02  3.91791e-02        00000 
-1.58747e-02  3.82909e-02        00000 
-1.54984e-02  3.62916e-02        00000 
-1.52655e-02  3.42512e-02        00000 
-1.50805e-02  3.22907e-02        00000 
-1.48471e-02  3.03760e-02        00000 
-1.46821e-02  2.97248e-02        00000 
-1.45241e-02  2.97424e-02        00000 
-1.43633e-02  2.94610e-02        00000 
-1.33162e-02  2.54526e-02        00000 
-1.21718e-02  2.18164e-02        00000 
-1.10822e-02  1.84069e-02        00000 
-1.06073e-02  1.76123e-02        00000 
-1.10463e-02  1.72639e-02        00000 
-1.10278e-02  1.63029e-02        00000 
-1.04524e-02  1.38458e-02        00000 
-1.00652e-02  1.11163e-02        00000 
-9.42725e-03  9.54218e-03        00000 
-8.23023e-03  7.70512e-03        00000 
-7.15732e-03  5.74678e-03        00000 
-5.88623e-03  5.08592e-03        00000 
-4.60461e-03  4.42489e-03        00000 
-3.26436e-03  3.16970e-03        00000 
 6.12007e-04  1.60888e-03        00000 
-1.91151e-03  9.99454e-02        00000 
-6.58310e-03  9.68695e-02        00000 
-1.11422e-02  9.50458e-02        00000 
-1.42226e-02  9.20276e-02        00000 
-1.59424e-02  8.77203e-02        00000 
-1.64553e-02  8.43241e-02        00000 
-1.88901e-02  8.17946e-02        00000 
-2.13885e-02  7.90706e-02        00000 
-2.36328e-02  7.73619e-02        00000 
-2.53554e-02  7.49700e-02        00000 
-2.68709e-02  7.25168e-02        00000 
-2.94540e-02  7.16197e-02        00000 
-3.15302e-02  7.02864e-02        00000 
-3.13176e-02  6.68900e-02        00000 
-3.16592e-02  6.46396e-02        00000 
-3.18601e-02  6.34179e-02        00000 
-3.21180e-02  6.25493e-02        00000 
-3.19909e-02  6.13295e-02        00000 
-3.15502e-02  5.85683e-02        00000 
-3.12413e-02  5.91825e-02        00000 
-3.08798e-02  6.05025e-02        00000 
-2.95322e-02  5.91302e-02        00000 
-2.76747e-02  5.69020e-02        00000 
-2.53785e-02  5.46240e-02        00000 
-2.30463e-02  5.22047e-02        00000 
-2.11008e-02  4.94239e-02        00000 
-1.96167e-02  4.59679e-02        00000 
-1.87106e-02  4.31100e-02        00000 
-1.83694e-02  4.08733e-02        00000 
-1.81416e-02  3.86661e-02        00000 
-1.79495e-02  3.66758e-02        00000 
-1.79543e-02  3.55050e-02        00000 
-1.81076e-02  3.56924e-02        00000 
-1.75408e-02  3.31808e-02        00000 
-1.65872e-02  2.99344e-02        00000 
-1.58161e-02  2.73773e-02        00000 
-1.47443e-02  2.44342e-02        00000 
-1.40109e-02  2.30326e-02        00000 
-1.36383e-02  2.23367e-02        00000 
-1.32366e-02  1.98746e-02        00000 
-1.31477e-02  1.68828e-02        00000 
-1.25241e-02  1.47675e-02        00000 
-1.15906e-02  1.23459e-02        00000 
-1.04550e-02  1.06436e-02        00000 
-1.00467e-02  9.74030e-03        00000 
-8.11900e-03  7.95876e-03        00000 
-6.39578e-03  6.09724e-03        00000 
-4.23602e-03  4.88899e-03        00000 
-5.70118e-04  3.50543e-03        00000 
-2.12603e-03  1.20769e-01        00000 
-8.32365e-03  1.16597e-01        00000 
-1.28559e-02  1.13712e-01        00000 
-1.59501e-02  1.09928e-01        00000 
-1.73509e-02  1.05172e-01        00000 
-1.84305e-02  1.01679e-01        00000 
-2.17730e-02  9.69477e-02        00000 
-2.54348e-02  9.49132e-02        00000 
-2.80934e-02  9.36544e-02        00000 
-3.03291e-02  9.19296e-02        00000 
-3.22162e-02  8.87947e-02        00000 
-3.42613e-02  8.67675e-02        00000 
-3.63929e-02  8.56550e-02        00000 
-3.68951e-02  8.31602e-02        00000 
-3.70975e-02  7.93178e-02        00000 
-3.71466e-02  7.62064e-02        00000 
-3.70172e-02  7.34448e-02        00000 
-3.68187e-02  7.12763e-02        00000 
-3.65274e-02  6.92836e-02        00000 
-3.62956e-02  6.90070e-02        00000 
-3.55225e-02  6.95737e-02        00000 
-3.40732e-02  6.86538e-02        00000 
-3.22040e-02  6.63766e-02        00000 
-2.97297e-02  6.39495e-02        00000 
-2.73537e-02  6.15164e-02        00000 
-2.47003e-02  5.88004e-02        00000 
-2.31808e-02  5.51069e-02        00000 
-2.20419e-02  5.11808e-02        00000 
-2.15330e-02  4.76135e-02        00000 
-2.12200e-02  4.48512e-02        00000 
-2.12572e-02  4.27712e-02        00000 
-2.13076e-02  4.12885e-02        00000 
-2.13192e-02  4.07397e-02        00000 
-2.01360e-02  3.67041e-02        00000 
-1.91992e-02  3.43819e-02        00000 
-1.82317e-02  3.18187e-02        00000 
-1.68899e-02  2.85443e-02        00000 
-1.56556e-02  2.58901e-02        00000 
-1.53977e-02  2.46823e-02        00000 
-1.54974e-02  2.11500e-02        00000 
-1.47680e-02  1.87887e-02        00000 
-1.38897e-02  1.70773e-02        00000 
-1.26043e-02  1.50648e-02        00000 
-1.12058e-02  1.27143e-02        00000 
-1.01104e-02  1.10208e-02        00000 
-8.29435e-03  9.32144e-03        00000 
-6.00784e-03  7.30230e-03        00000 
-3.73749e-03  5.57741e-03        00000 
-1.79852e-04  2.66597e-03        00000 
-3.11464e-03  1.41516e-01        00000 
-9.90005e-03  1.35027e-01        00000 
-1.49023e-02  1.31465e-01        00000 
-1.76158e-02  1.26463e-01        00000 
-1.89522e-02  1.22776e-01        00000 
-2.10390e-02  1.18274e-01        00000 
-2.53092e-02  1.14297e-01        00000 
-2.94366e-02  1.10919e-01        00000 
-3.25082e-02  1.08954e-01        00000 
-3.47663e-02  1.07661e-01        00000 
-3.60999e-02  1.05227e-01        00000 
-3.78179e-02  1.02336e-01        00000 
-4.00907e-02  1.00247e-01        00000 
-4.21824e-02  9.76066e-02        00000 
-4.28672e-02  9.40733e-02        00000 
-4.32505e-02  9.08586e-02        00000 
-4.32853e-02  8.80348e-02        00000 
-4.26363e-02  8.39859e-02        00000 
-4.22162e-02  8.25210e-02        00000 
-4.14455e-02  8.15126e-02        00000 
-3.95991e-02  7.83918e-02        00000 
-3.79858e-02  7.69784e-02        00000 
-3.60245e-02  7.53310e-02        00000 
-3.35102e-02  7.29552e-02        00000 
-3.10139e-02  7.03479e-02        00000 
-2.83130e-02  6.66246e-02        00000 
-2.62534e-02  6.35509e-02        00000 
-2.52538e-02  5.95572e-02        00000 
-2.49208e-02  5.57227e-02        00000 
-2.48779e-02  5.18046e-02        00000 
-2.43685e-02  4.88087e-02        00000 
-2.40335e-02  4.69377e-02        00000 
-2.35841e-02  4.52260e-02        00000 
-2.22970e-02  4.15410e-02        00000 
-2.12622e-02  3.90540e-02        00000 
-1.99219e-02  3.57651e-02        00000 
-1.83994e-02  3.16671e-02        00000 
-1.75193e-02  2.76831e-02        00000 
-1.76636e-02  2.57786e-02        00000 
-1.70209e-02  2.30432e-02        00000 
-1.60868e-02  2.01569e-02        00000 
-1.47563e-02  1.81669e-02        00000 
-1.32126e-02  1.64966e-02        00000 
-1.13478e-02  1.45469e-02        00000 
-1.03169e-02  1.27668e-02        00000 
-8.39233e-03  1.08441e-02        00000 
-5.20199e-03  8.60786e-03        00000 
-2.68321e-03  4.53011e-03        00000 
 8.15294e-04  2.32774e-03        00000 
-2.94200e-03  1.60055e-01        00000 
-1.07070e-02  1.53989e-01        00000 
-1.66779e-02  1.49282e-01        00000 
-1.95160e-02  1.43776e-01        00000 
-2.09009e-02  1.40155e-01        00000 
-2.43666e-02  1.35302e-01        00000 
-2.88694e-02  1.31252e-01        00000 
-3.30252e-02  1.28049e-01        00000 
-3.58295e-02  1.25623e-01        00000 
-3.79202e-02  1.23989e-01        00000 
-3.94789e-02  1.21612e-01        00000 
-4.10892e-02  1.18276e-01        00000 
-4.30256e-02  1.13980e-01        00000 
-4.57564e-02  1.11279e-01        00000 
-4.73065e-02  1.07534e-01        00000 
-4.74731e-02  1.04634e-01        00000 
-4.79709e-02  1.01633e-01        00000 
-4.79720e-02  9.81947e-02        00000 
-4.74381e-02  9.63818e-02        00000 
-4.63221e-02  9.51912e-02        00000 
-4.43194e-02  9.13000e-02        00000 
-4.20213e-02  8.68474e-02        00000 
-3.98806e-02  8.45388e-02        00000 
-3.74251e-02  8.21163e-02        00000 
-3.44879e-02  7.89491e-02        00000 
-3.17012e-02  7.43553e-02        00000 
-2.97215e-02  7.11570e-02        00000 
-2.85173e-02  6.76371e-02        00000 
-2.79691e-02  6.34990e-02        00000 
-2.74353e-02  5.93374e-02        00000 
-2.69656e-02  5.51158e-02        00000 
-2.64180e-02  5.26772e-02        00000 
-2.52454e-02  4.97617e-02        00000 
-2.40072e-02  4.58690e-02        00000 
-2.28005e-02  4.26021e-02        00000 
-2.15082e-02  3.91062e-02        00000 
-2.08124e-02  3.46738e-02        00000 
-2.00208e-02  2.95714e-02        00000 
-1.91673e-02  2.75211e-02        00000 
-1.84474e-02  2.51544e-02        00000 
-1.76587e-02  2.31988e-02        00000 
-1.61910e-02  2.08837e-02        00000 
-1.45285e-02  1.88250e-02        00000 
-1.25092e-02  1.70244e-02        00000 
-9.79483e-03  1.42606e-02        00000 
-6.81208e-03  1.11596e-02        00000 
-4.56596e-03  7.86317e-03        00000 
-2.76902e-03  5.09936e-03        00000 
 7.99775e-04  4.04048e-03        00000 
-3.60393e-03  1.78647e-01        00000 
-1.16650e-02  1.73750e-01        00000 
-1.72794e-02  1.69145e-01        00000 
-2.01035e-02  1.64683e-01        00000 
-2.22863e-02  1.60490e-01        00000 
-2.67083e-02  1.55018e-01        00000 
-3.16472e-02  1.50070e-01        00000 
-3.61174e-02  1.46374e-01        00000 
-3.87578e-02  1.43514e-01        00000 
-4.10337e-02  1.41460e-01        00000 
-4.29286e-02  1.37046e-01        00000 
-4.46458e-02  1.32309e-01        00000 
-4.63234e-02  1.27953e-01        00000 
-4.82445e-02  1.23743e-01        00000 
-5.09218e-02  1.20849e-01        00000 
-5.19954e-02  1.17449e-01        00000 
-5.19369e-02  1.14774e-01        00000 
-5.22057e-02  1.12605e-01        00000 
-5.21662e-02  1.10176e-01        00000 
-5.06410e-02  1.06867e-01        00000 
-4.84197e-02  1.02310e-01        00000 
-4.61832e-02  9.81824e-02        00000 
-4.38359e-02  9.44686e-02        00000 
-4.17298e-02  9.21573e-02        00000 
-3.88328e-02  8.86992e-02        00000 
-3.64762e-02  8.49730e-02        00000 
-3.44359e-02  8.15761e-02        00000 
-3.25875e-02  7.75829e-02        00000 
-3.10377e-02  7.30213e-02        00000 
-3.02269e-02  6.82525e-02        00000 
-2.98687e-02  6.40390e-02        00000 
-2.87740e-02  5.89378e-02        00000 
-2.72829e-02  5.42920e-02        00000 
-2.56487e-02  4.96912e-02        00000 
-2.47472e-02  4.63844e-02        00000 
-2.44403e-02  4.25768e-02        00000 
-2.39203e-02  3.84539e-02        00000 
-2.17189e-02  3.22898e-02        00000 
-2.06017e-02  2.98958e-02        00000 
-2.02459e-02  2.84268e-02        00000 
-1.89292e-02  2.61973e-02        00000 
-1.75512e-02  2.40599e-02        00000 
-1.57305e-02  2.17846e-02        00000 
-1.34359e-02  1.91880e-02        00000 
-1.05881e-02  1.48953e-02        00000 
-8.61404e-03  1.25906e-02        00000 
-6.24501e-03  9.60313e-03        00000 
-3.77690e-03  6.28866e-03        00000 
 1.26981e-03  4.64602e-03        00000 
-4.52453e-03  1.99193e-01        00000 
-1.22206e-02  1.95685e-01        00000 
-1.74186e-02  1.89760e-01        00000 
-2.08751e-02  1.84925e-01        00000 
-2.40892e-02  1.80493e-01        00000 
-2.85080e-02  1.75710e-01        00000 
-3.31434e-02  1.70386e-01        00000 