<?xml version="1.0" encoding="utf-8"?>
<VTKFile byte_order="LittleEndian" type="UnstructuredGrid" version="0.1">
   <UnstructuredGrid>
      <Piece NumberOfCells="9064" NumberOfPoints="4760">
         <Points>
            <DataArray Name="Points" NumberOfComponents="3" format="ascii" type="Float32">
-1.0000 -0.9592 0.0000
-1.0000 -0.9184 0.0000
-1.0000 -0.8776 0.0000
-1.0000 -0.8367 0.0000
-1.0000 -0.7959 0.0000
-1.0000 -0.7551 0.0000
-1.0000 -0.7143 0.0000
-1.0000 -0.6735 0.0000
-1.0000 -0.6327 0.0000
-1.0000 -0.5918 0.0000
-1.0000 -0.5510 0.0000
-1.0000 -0.5102 0.0000
-1.0000 -0.4694 0.0000
-1.0000 -0.4286 0.0000
-1.0000 -0.3878 0.0000
-1.0000 -0.3469 0.0000
-1.0000 -0.3061 0.0000
-1.0000 -0.2653 0.0000
-1.0000 -0.2245 0.0000
-1.0000 -0.1837 0.0000
-1.0000 -0.1429 0.0000
-1.0000 -0.1020 0.0000
-1.0000 -0.0612 0.0000
-1.0000 -0.0204 0.0000
-1.0000 0.0204 0.0000
-1.0000 0.0612 0.0000
-1.0000 0.1020 0.0000
-1.0000 0.1429 0.0000
-1.0000 0.1837 0.0000
-1.0000 0.2245 0.0000
-1.0000 0.2653 0.0000
-1.0000 0.3061 0.0000
-1.0000 0.3469 0.0000
-1.0000 0.3878 0.0000
-1.0000 0.4286 0.0000
-1.0000 0.4694 0.0000
-1.0000 0.5102 0.0000
-1.0000 0.5510 0.0000
-1.0000 0.5918 0.0000
-1.0000 0.6327 0.0000
-1.0000 0.6735 0.0000
-1.0000 0.7143 0.0000
-1.0000 0.7551 0.0000
-1.0000 0.7959 0.0000
-1.0000 0.8367 0.0000
-1.0000 0.8776 0.0000
-1.0000 0.9184 0.0000
-1.0000 0.9592 0.0000
-1.0000 1.0000 0.0000
-0.9592 -0.9592 0.0000
-0.9592 -0.9184 0.0000
-0.9592 -0.8776 0.0000
-0.9592 -0.8367 0.0000
-0.9592 -0.7959 0.0000
-0.9592 -0.7551 0.0000
-0.9592 -0.7143 0.0000
-0.9592 -0.6735 0.0000
-0.9592 -0.6327 0.0000
-0.9592 -0.5918 0.0000
-0.9592 -0.5510 0.0000
-0.9592 -0.5102 0.0000
-0.9592 -0.4694 0.0000
-0.9592 -0.4286 0.0000
-0.9592 -0.3878 0.0000
-0.9592 -0.3469 0.0000
-0.9592 -0.3061 0.0000
-0.9592 -0.2653 0.0000
-0.9592 -0.2245 0.0000
-0.9592 -0.1837 0.0000
-0.9592 -0.1429 0.0000
-0.9592 -0.1020 0.0000
-0.9592 -0.0612 0.0000
-0.9592 -0.0204 0.0000
-0.9592 0.0204 0.0000
-0.9592 0.0612 0.0000
-0.9592 0.1020 0.0000
-0.9592 0.1429 0.0000
-0.9592 0.1837 0.0000
-0.9592 0.2245 0.0000
-0.9592 0.2653 0.0000
-0.9592 0.3061 0.0000
-0.9592 0.3469 0.0000
-0.9592 0.3878 0.0000
-0.9592 0.4286 0.0000
-0.9592 0.4694 0.0000
-0.9592 0.5102 0.0000
-0.9592 0.5510 0.0000
-0.9592 0.5918 0.0000
-0.9592 0.6327 0.0000
-0.9592 0.6735 0.0000
-0.9592 0.7143 0.0000
-0.9592 0.7551 0.0000
-0.9592 0.7959 0.0000
-0.9592 0.8367 0.0000
-0.9592 0.8776 0.0000
-0.9592 0.9184 0.0000
-0.9592 0.9592 0.0000
-0.9592 1.0000 0.0000
-0.9184 -0.9592 0.0000
-0.9184 -0.9184 0.0000
-0.9184 -0.8776 0.0000
-0.9184 -0.8367 0.0000
-0.9184 -0.7959 0.0000
-0.9184 -0.7551 0.0000
-0.9184 -0.7143 0.0000
-0.9184 -0.6735 0.0000
-0.9184 -0.6327 0.0000
-0.9184 -0.5918 0.0000
-0.9184 -0.5510 0.0000
-0.9184 -0.5102 0.0000
-0.9184 -0.4694 0.0000
-0.9184 -0.4286 0.0000
-0.9184 -0.3878 0.0000
-0.9184 -0.3469 0.0000
-0.9184 -0.3061 0.0000
-0.9184 -0.2653 0.0000
-0.9184 -0.2245 0.0000
-0.9184 -0.1837 0.0000
-0.9184 -0.1429 0.0000
-0.9184 -0.1020 0.0000
-0.9184 -0.0612 0.0000
-0.9184 -0.0204 0.0000
-0.9184 0.0204 0.0000
-0.9184 0.0612 0.0000
-0.9184 0.1020 0.0000
-0.9184 0.1429 0.0000
-0.9184 0.1837 0.0000
-0.9184 0.2245 0.0000
-0.9184 0.2653 0.0000
-0.9184 0.3061 0.0000
-0.9184 0.3469 0.0000
-0.9184 0.3878 0.0000
-0.9184 0.4286 0.0000
-0.9184 0.4694 0.0000
-0.9184 0.5102 0.0000
-0.9184 0.5510 0.0000
-0.9184 0.5918 0.0000
-0.9184 0.6327 0.0000
-0.9184 0.6735 0.0000
-0.9184 0.7143 0.0000
-0.9184 0.7551 0.0000
-0.9184 0.7959 0.0000
-0.9184 0.8367 0.0000
-0.9184 0.8776 0.0000
-0.9184 0.9184 0.0000
-0.9184 0.9592 0.0000
-0.9184 1.0000 0.0000
-0.8776 -0.9592 0.0000
-0.8776 -0.9184 0.0000
-0.8776 -0.8776 0.0000
-0.8776 -0.8367 0.0000
-0.8776 -0.7959 0.0000
-0.8776 -0.7551 0.0000
-0.8776 -0.7143 0.0000
-0.8776 -0.6735 0.0000
-0.8776 -0.6327 0.0000
-0.8776 -0.5918 0.0000
-0.8776 -0.5510 0.0000
-0.8776 -0.5102 0.0000
-0.8776 -0.4694 0.0000
-0.8776 -0.4286 0.0000
-0.8776 -0.3878 0.0000
-0.8776 -0.3469 0.0000
-0.8776 -0.3061 0.0000
-0.8776 -0.2653 0.0000
-0.8776 -0.2245 0.0000
-0.8776 -0.1837 0.0000
-0.8776 -0.1429 0.0000
-0.8776 -0.1020 0.0000
-0.8776 -0.0612 0.0000
-0.8776 -0.0204 0.0000
-0.8776 0.0204 0.0000
-0.8776 0.0612 0.0000
-0.8776 0.1020 0.0000
-0.8776 0.1429 0.0000
-0.8776 0.1837 0.0000
-0.8776 0.2245 0.0000
-0.8776 0.2653 0.0000
-0.8776 0.3061 0.0000
-0.8776 0.3469 0.0000
-0.8776 0.3878 0.0000
-0.8776 0.4286 0.0000
-0.8776 0.4694 0.0000
-0.8776 0.5102 0.0000
-0.8776 0.5510 0.0000
-0.8776 0.5918 0.0000
-0.8776 0.6327 0.0000
-0.8776 0.6735 0.0000
-0.8776 0.7143 0.0000
-0.8776 0.7551 0.0000
-0.8776 0.7959 0.0000
-0.8776 0.8367 0.0000
-0.8776 0.8776 0.0000
-0.8776 0.9184 0.0000
-0.8776 0.9592 0.0000
-0.8776 1.0000 0.0000
-0.8367 -0.9592 0.0000
-0.8367 -0.9184 0.0000
-0.8367 -0.8776 0.0000
-0.8367 -0.8367 0.0000
-0.8367 -0.7959 0.0000
-0.8367 -0.7551 0.0000
-0.8367 -0.7143 0.0000
-0.8367 -0.6735 0.0000
-0.8367 -0.6327 0.0000
-0.8367 -0.5918 0.0000
-0.8367 -0.5510 0.0000
-0.8367 -0.5102 0.0000
-0.8367 -0.4694 0.0000
-0.8367 -0.4286 0.0000
-0.8367 -0.3878 0.0000
-0.8367 -0.3469 0.0000
-0.8367 -0.3061 0.0000
-0.8367 -0.2653 0.0000
-0.8367 -0.2245 0.0000
-0.8367 -0.1837 0.0000
-0.8367 -0.1429 0.0000
-0.8367 -0.1020 0.0000
-0.8367 -0.0612 0.0000
-0.8367 -0.0204 0.0000
-0.8367 0.0204 0.0000
-0.8367 0.0612 0.0000
-0.8367 0.1020 0.0000
-0.8367 0.1429 0.0000
-0.8367 0.1837 0.0000
-0.8367 0.2245 0.0000
-0.8367 0.2653 0.0000
-0.8367 0.3061 0.0000
-0.8367 0.3469 0.0000
-0.8367 0.3878 0.0000
-0.8367 0.4286 0.0000
-0.8367 0.4694 0.0000
-0.8367 0.5102 0.0000
-0.8367 0.5510 0.0000
-0.8367 0.5918 0.0000
-0.8367 0.6327 0.0000
-0.8367 0.6735 0.0000
-0.8367 0.7143 0.0000
-0.8367 0.7551 0.0000
-0.8367 0.7959 0.0000
-0.8367 0.8367 0.0000
-0.8367 0.8776 0.0000
-0.8367 0.9184 0.0000
-0.8367 0.9592 0.0000
-0.8367 1.0000 0.0000
-0.7959 -0.9592 0.0000
-0.7959 -0.9184 0.0000
-0.7959 -0.8776 0.0000
-0.7959 -0.8367 0.0000
-0.7959 -0.7959 0.0000
-0.7959 -0.7551 0.0000
-0.7959 -0.7143 0.0000
-0.7959 -0.6735 0.0000
-0.7959 -0.6327 0.0000
-0.7959 -0.5918 0.0000
-0.7959 -0.5510 0.0000
-0.7959 -0.5102 0.0000
-0.7959 -0.4694 0.0000
-0.7959 -0.4286 0.0000
-0.7959 -0.3878 0.0000
-0.7959 -0.3469 0.0000
-0.7959 -0.3061 0.0000
-0.7959 -0.2653 0.0000
-0.7959 -0.2245 0.0000
-0.7959 -0.1837 0.0000
-0.7959 -0.1429 0.0000
-0.7959 -0.1020 0.0000
-0.7959 -0.0612 0.0000
-0.7959 -0.0204 0.0000
-0.7959 0.0204 0.0000
-0.7959 0.0612 0.0000
-0.7959 0.1020 0.0000
-0.7959 0.1429 0.0000
-0.7959 0.1837 0.0000
-0.7959 0.2245 0.0000
-0.7959 0.2653 0.0000
-0.7959 0.3061 0.0000
-0.7959 0.3469 0.0000
-0.7959 0.3878 0.0000
-0.7959 0.4286 0.0000
-0.7959 0.4694 0.0000
-0.7959 0.5102 0.0000
-0.7959 0.5510 0.0000
-0.7959 0.5918 0.0000
-0.7959 0.6327 0.0000
-0.7959 0.6735 0.0000
-0.7959 0.7143 0.0000
-0.7959 0.7551 0.0000
-0.7959 0.7959 0.0000
-0.7959 0.8367 0.0000
-0.7959 0.8776 0.0000
-0.7959 0.9184 0.0000
-0.7959 0.9592 0.0000
-0.7959 1.0000 0.0000
-0.7551 -0.9592 0.0000
-0.7551 -0.9184 0.0000
-0.7551 -0.8776 0.0000
-0.7551 -0.8367 0.0000
-0.7551 -0.7959 0.0000
-0.7551 -0.7551 0.0000
-0.7551 -0.7143 0.0000
-0.7551 -0.6735 0.0000
-0.7551 -0.6327 0.0000
-0.7551 -0.5918 0.0000
-0.7551 -0.5510 0.0000
-0.7551 -0.5102 0.0000
-0.7551 -0.4694 0.0000
-0.7551 -0.4286 0.0000
-0.7551 -0.3878 0.0000
-0.7551 -0.3469 0.0000
-0.7551 -0.3061 0.0000
-0.7551 -0.2653 0.0000
-0.7551 -0.2245 0.0000
-0.7551 -0.1837 0.0000
-0.7551 -0.1429 0.0000
-0.7551 -0.1020 0.0000
-0.7551 -0.0612 0.0000
-0.7551 -0.0204 0.0000
-0.7551 0.0204 0.0000
-0.7551 0.0612 0.0000
-0.7551 0.1020 0.0000
-0.7551 0.1429 0.0000
-0.7551 0.1837 0.0000
-0.7551 0.2245 0.0000
-0.7551 0.2653 0.0000
-0.7551 0.3061 0.0000
-0.7551 0.3469 0.0000
-0.7551 0.3878 0.0000
-0.7551 0.4286 0.0000
-0.7551 0.4694 0.0000
-0.7551 0.5102 0.0000
-0.7551 0.5510 0.0000
-0.7551 0.5918 0.0000
-0.7551 0.6327 0.0000
-0.7551 0.6735 0.0000
-0.7551 0.7143 0.0000
-0.7551 0.7551 0.0000
-0.7551 0.7959 0.0000
-0.7551 0.8367 0.0000
-0.7551 0.8776 0.0000
-0.7551 0.9184 0.0000
-0.7551 0.9592 0.0000
-0.7551 1.0000 0.0000
-0.7143 -0.9592 0.0000
-0.7143 -0.9184 0.0000
-0.7143 -0.8776 0.0000
-0.7143 -0.8367 0.0000
-0.7143 -0.7959 0.0000
-0.7143 -0.7551 0.0000
-0.7143 -0.7143 0.0000
-0.7143 -0.6735 0.0000
-0.7143 -0.6327 0.0000
-0.7143 -0.5918 0.0000
-0.7143 -0.5510 0.0000
-0.7143 -0.5102 0.0000
-0.7143 -0.4694 0.0000
-0.7143 -0.4286 0.0000
-0.7143 -0.3878 0.0000
-0.7143 -0.3469 0.0000
-0.7143 -0.3061 0.0000
-0.7143 -0.2653 0.0000
-0.7143 -0.2245 0.0000
-0.7143 -0.1837 0.0000
-0.7143 -0.1429 0.0000
-0.7143 -0.1020 0.0000
-0.7143 -0.0612 0.0000
-0.7143 -0.0204 0.0000
-0.7143 0.0204 0.0000
-0.7143 0.0612 0.0000
-0.7143 0.1020 0.0000
-0.7143 0.1429 0.0000
-0.7143 0.1837 0.0000
-0.7143 0.2245 0.0000
-0.7143 0.2653 0.0000
-0.7143 0.3061 0.0000
-0.7143 0.3469 0.0000
-0.7143 0.3878 0.0000
-0.7143 0.4286 0.0000
-0.7143 0.4694 0.0000
-0.7143 0.5102 0.0000
-0.7143 0.5510 0.0000
-0.7143 0.5918 0.0000
-0.7143 0.6327 0.0000
-0.7143 0.6735 0.0000
-0.7143 0.7143 0.0000
-0.7143 0.7551 0.0000
-0.7143 0.7959 0.0000
-0.7143 0.8367 0.0000
-0.7143 0.8776 0.0000
-0.7143 0.9184 0.0000
-0.7143 0.9592 0.0000
-0.7143 1.0000 0.0000
-0.6735 -0.9592 0.0000
-0.6735 -0.9184 0.0000
-0.6735 -0.8776 0.0000
-0.6735 -0.8367 0.0000
-0.6735 -0.7959 0.0000
-0.6735 -0.7551 0.0000
-0.6735 -0.7143 0.0000
-0.6735 -0.6735 0.0000
-0.6735 -0.6327 0.0000
-0.6735 -0.5918 0.0000
-0.6735 -0.5510 0.0000
-0.6735 -0.5102 0.0000
-0.6735 -0.4694 0.0000
-0.6735 -0.4286 0.0000
-0.6735 -0.3878 0.0000
-0.6735 -0.3469 0.0000
-0.6735 -0.3061 0.0000
-0.6735 -0.2653 0.0000
-0.6735 -0.2245 0.0000
-0.6735 -0.1837 0.0000
-0.6735 -0.1429 0.0000
-0.6735 -0.1020 0.0000
-0.6735 -0.0612 0.0000
-0.6735 -0.0204 0.0000
-0.6735 0.0204 0.0000
-0.6735 0.0612 0.0000
-0.6735 0.1020 0.0000
-0.6735 0.1429 0.0000
-0.6735 0.1837 0.0000
-0.6735 0.2245 0.0000
-0.6735 0.2653 0.0000
-0.6735 0.3061 0.0000
-0.6735 0.3469 0.0000
-0.6735 0.3878 0.0000
-0.6735 0.4286 0.0000
-0.6735 0.4694 0.0000
-0.6735 0.5102 0.0000
-0.6735 0.5510 0.0000
-0.6735 0.5918 0.0000
[...]
         <PointData>
            <DataArray Name="fValues" NumberOfComponents="3" format="ascii" type="Float64">
 1.39197e-03 -9.50585e-04        00000 
 2.10638e-03 -2.57775e-03        00000 
 1.39266e-03 -2.01460e-03        00000 
 1.19478e-03 -1.94041e-03        00000 
 2.08271e-03 -2.25962e-03        00000 
 2.52321e-03 -2.72554e-03        00000 
 1.74047e-03 -2.38821e-03        00000 
 8.54209e-04 -1.94247e-03        00000 
-2.63713e-04 -1.08777e-03        00000 
-8.83406e-04 -3.53238e-04        00000 
-8.57998e-04 -5.62298e-04        00000 
 4.97177e-04 -7.33921e-04        00000 
-7.81698e-05 -1.38330e-03        00000 
-7.67276e-04 -1.78090e-03        00000 
 3.63830e-04 -2.12678e-03        00000 
 3.49767e-03 -2.54106e-03        00000 
 3.65353e-03 -2.05260e-03        00000 
 2.29540e-03 -1.53672e-03        00000 
 3.79800e-04 -8.02811e-04        00000 
 1.72163e-04 -6.91526e-04        00000 
 2.67619e-03 -1.15749e-03        00000 
 5.62981e-03 -1.98276e-03        00000 
 7.38370e-03 -2.62227e-03        00000 
 6.77929e-03 -3.10423e-03        00000 
 5.64107e-03 -3.18447e-03        00000 
 4.68703e-03 -3.34429e-03        00000 
 4.63381e-03 -3.32506e-03        00000 
 4.66177e-03 -3.88878e-03        00000 
 5.37693e-03 -3.86066e-03        00000 
 6.11257e-03 -3.77466e-03        00000 
 6.70678e-03 -3.19882e-03        00000 
 7.10596e-03 -2.98439e-03        00000 
 5.62296e-03 -2.69999e-03        00000 
 4.62236e-03 -2.99486e-03        00000 
 3.73994e-03 -3.26140e-03        00000 
 2.61451e-03 -3.66938e-03        00000 
 1.37897e-03 -4.08666e-03        00000 
 1.67393e-03 -3.56034e-03        00000 
 2.19111e-03 -2.51568e-03        00000 
 2.49811e-03 -1.56503e-03        00000 
 3.08692e-03 -8.58999e-04        00000 
 3.93457e-03 -1.22580e-03        00000 
 4.31829e-03 -1.30091e-03        00000 
 4.23003e-03 -1.42461e-03        00000 
 3.50451e-03 -1.31583e-03        00000 
 2.80103e-03 -7.79209e-04        00000 
 2.46138e-03  1.06643e-03        00000 
 2.99643e-03  2.08179e-03        00000 
 3.86599e-03  3.20357e-03        00000 
 2.13357e-02 -3.96450e-03        00000 
 2.00215e-02 -5.69701e-03        00000 
 1.82962e-02 -6.60436e-03        00000 
 1.88969e-02 -7.21714e-03        00000 
 1.92552e-02 -6.49743e-03        00000 
 1.92370e-02 -5.81476e-03        00000 
 1.84349e-02 -7.00990e-03        00000 
 1.78835e-02 -8.07834e-03        00000 
 1.69170e-02 -7.82049e-03        00000 
 1.62686e-02 -7.81215e-03        00000 
 1.58481e-02 -8.26446e-03        00000 
 1.54126e-02 -8.73847e-03        00000 
 1.48272e-02 -9.10328e-03        00000 
 1.41965e-02 -9.54877e-03        00000 
 1.41172e-02 -9.96172e-03        00000 
 1.45104e-02 -1.01912e-02        00000 
 1.38641e-02 -9.79377e-03        00000 
 1.21271e-02 -9.48622e-03        00000 
 9.42021e-03 -8.92230e-03        00000 
 7.83035e-03 -8.53498e-03        00000 
 8.28921e-03 -8.18322e-03        00000 
 9.75448e-03 -8.70536e-03        00000 
 1.23328e-02 -9.90381e-03        00000 
 1.12632e-02 -1.04519e-02        00000 
 9.52946e-03 -1.04065e-02        00000 
 7.87101e-03 -1.02104e-02        00000 
 7.79360e-03 -9.39015e-03        00000 
 7.26766e-03 -8.42687e-03        00000 
 6.68032e-03 -7.61250e-03        00000 
 6.52177e-03 -7.35905e-03        00000 
 7.29712e-03 -7.77362e-03        00000 
 7.45936e-03 -8.02091e-03        00000 
 6.91080e-03 -8.14905e-03        00000 
 6.18257e-03 -8.12287e-03        00000 
 4.87000e-03 -7.75779e-03        00000 
 3.98097e-03 -7.89476e-03        00000 
 3.07814e-03 -7.88847e-03        00000 
 3.78094e-03 -7.14992e-03        00000 
 4.81911e-03 -6.27095e-03        00000 
 5.02253e-03 -5.13728e-03        00000 
 5.38234e-03 -4.92213e-03        00000 
 6.53164e-03 -4.68795e-03        00000 
 6.98318e-03 -4.45983e-03        00000 
 6.59797e-03 -4.25550e-03        00000 
 6.01632e-03 -3.96537e-03        00000 
 5.34668e-03 -2.54656e-03        00000 
 4.21244e-03  4.38372e-05        00000 
 2.53993e-03  1.32813e-03        00000 
 7.79040e-04  2.18478e-03        00000 
 4.28251e-02 -7.02621e-03        00000 
 3.91394e-02 -8.80605e-03        00000 
 3.56890e-02 -8.54857e-03        00000 
 3.45397e-02 -8.24548e-03        00000 
 3.52848e-02 -7.81081e-03        00000 
 3.67890e-02 -7.75838e-03        00000 
 3.70859e-02 -8.85071e-03        00000 
 3.62902e-02 -1.07327e-02        00000 
 3.45878e-02 -1.30735e-02        00000 
 3.21682e-02 -1.59362e-02        00000 
 3.10648e-02 -1.66469e-02        00000 
 2.88765e-02 -1.60724e-02        00000 
 2.79690e-02 -1.64372e-02        00000 
 2.78085e-02 -1.66624e-02        00000 
 2.72818e-02 -1.70269e-02        00000 
 2.55469e-02 -1.68096e-02        00000 
 2.38156e-02 -1.63838e-02        00000 
 2.23583e-02 -1.59122e-02        00000 
 1.91900e-02 -1.58251e-02        00000 
 1.75421e-02 -1.56670e-02        00000 
 1.74443e-02 -1.60819e-02        00000 
 1.72122e-02 -1.64278e-02        00000 
 1.63635e-02 -1.65428e-02        00000 
 1.51761e-02 -1.67145e-02        00000 
 1.34088e-02 -1.64408e-02        00000 
 1.18816e-02 -1.46071e-02        00000 
 1.13420e-02 -1.35685e-02        00000 
 1.10044e-02 -1.30769e-02        00000 
 1.10210e-02 -1.27656e-02        00000 
 1.04736e-02 -1.22975e-02        00000 
 9.67166e-03 -1.15529e-02        00000 
 9.99108e-03 -1.12147e-02        00000 
 9.51186e-03 -1.09685e-02        00000 
 9.11036e-03 -1.06228e-02        00000 
 8.64498e-03 -1.08646e-02        00000 
 7.78210e-03 -1.08348e-02        00000 
 5.60702e-03 -9.76301e-03        00000 
 5.86464e-03 -8.93055e-03        00000 
 6.75985e-03 -7.76302e-03        00000 
 7.21725e-03 -7.66524e-03        00000 
 7.55491e-03 -7.48776e-03        00000 
 8.36757e-03 -7.38522e-03        00000 
 8.36642e-03 -7.03937e-03        00000 
 8.32707e-03 -6.20078e-03        00000 
 7.35232e-03 -4.62723e-03        00000 
 6.29216e-03 -3.18600e-03        00000 
 4.90893e-03 -8.42115e-04        00000 
 2.36235e-03  7.61943e-04        00000 
 1.13758e-03  2.44463e-03        00000 
 5.96898e-02 -6.21755e-03        00000 
 5.57379e-02 -7.57619e-03        00000 
 5.31999e-02 -9.48861e-03        00000 
 5.34155e-02 -1.10822e-02        00000 
 5.39267e-02 -1.17449e-02        00000 
 5.32216e-02 -1.16525e-02        00000 
 5.32719e-02 -1.28937e-02        00000 
 5.38191e-02 -1.53971e-02        00000 
 5.15863e-02 -1.80073e-02        00000 
 4.85612e-02 -2.06492e-02        00000 
 4.82709e-02 -2.38605e-02        00000 
 4.54584e-02 -2.52568e-02        00000 
 4.28807e-02 -2.52750e-02        00000 
 4.08697e-02 -2.50407e-02        00000 
 4.02872e-02 -2.53824e-02        00000 
 3.80749e-02 -2.50491e-02        00000 
 3.55645e-02 -2.44566e-02        00000 
 3.38727e-02 -2.37210e-02        00000 
 3.08359e-02 -2.33390e-02        00000 
 2.84794e-02 -2.37457e-02        00000 
 2.80883e-02 -2.41284e-02        00000 
 2.76624e-02 -2.44338e-02        00000 
 2.54487e-02 -2.41939e-02        00000 
 2.24357e-02 -2.33404e-02        00000 
 1.96793e-02 -2.15748e-02        00000 
 1.62000e-02 -1.96846e-02        00000 
 1.44537e-02 -1.82164e-02        00000 
 1.38432e-02 -1.73852e-02        00000 
 1.42852e-02 -1.69283e-02        00000 
 1.55088e-02 -1.65875e-02        00000 
 1.58690e-02 -1.59452e-02        00000 
 1.71963e-02 -1.55883e-02        00000 
 1.63315e-02 -1.47504e-02        00000 
 1.51778e-02 -1.40115e-02        00000 
 1.40615e-02 -1.38890e-02        00000 
 1.19864e-02 -1.30111e-02        00000 
 9.77006e-03 -1.17926e-02        00000 
 9.30621e-03 -1.11148e-02        00000 
 9.99255e-03 -1.06736e-02        00000 
 1.00963e-02 -1.04124e-02        00000 
 1.00448e-02 -9.98429e-03        00000 
 1.00669e-02 -9.72956e-03        00000 
 9.10823e-03 -8.73864e-03        00000 
 8.45767e-03 -6.79138e-03        00000 
 7.91889e-03 -5.41718e-03        00000 
 6.61467e-03 -4.25347e-03        00000 
 4.91256e-03 -2.13532e-03        00000 
 2.14195e-03 -2.14952e-04        00000 
 6.45619e-05  1.92485e-03        00000 
 7.68105e-02 -4.39881e-03        00000 
 7.39474e-02 -6.67993e-03        00000 
 7.49152e-02 -1.01103e-02        00000 
 7.26252e-02 -1.23443e-02        00000 
 6.94760e-02 -1.38346e-02        00000 
 6.79067e-02 -1.46426e-02        00000 
 6.84037e-02 -1.67332e-02        00000 
 6.84237e-02 -1.93982e-02        00000 
 6.54733e-02 -2.14894e-02        00000 
 6.20385e-02 -2.42416e-02        00000 
 6.17105e-02 -2.77292e-02        00000 
 6.00007e-02 -3.08412e-02        00000 
 5.73235e-02 -3.18414e-02        00000 
 5.41522e-02 -3.19884e-02        00000 
 5.14466e-02 -3.19177e-02        00000 
 4.89224e-02 -3.18973e-02        00000 
 4.61979e-02 -3.13214e-02        00000 
 4.33413e-02 -3.09370e-02        00000 
 4.02107e-02 -3.12455e-02        00000 
 3.83013e-02 -3.17579e-02        00000 
 3.77923e-02 -3.18395e-02        00000 
 3.70926e-02 -3.15729e-02        00000 
 3.37532e-02 -3.01625e-02        00000 
 3.02712e-02 -2.85449e-02        00000 
 2.68928e-02 -2.60036e-02        00000 
 2.23137e-02 -2.34559e-02        00000 
 1.99835e-02 -2.17815e-02        00000 
 1.90953e-02 -2.10437e-02        00000 
 1.83338e-02 -2.04268e-02        00000 
 1.82173e-02 -1.98567e-02        00000 
 1.90652e-02 -1.92986e-02        00000 
 2.16410e-02 -1.92073e-02        00000 
 2.27120e-02 -1.87368e-02        00000 
 2.18313e-02 -1.82460e-02        00000 
 1.92154e-02 -1.69724e-02        00000 
 1.62736e-02 -1.57826e-02        00000 
 1.33822e-02 -1.45213e-02        00000 
 1.29799e-02 -1.37995e-02        00000 
 1.35725e-02 -1.38005e-02        00000 
 1.42765e-02 -1.38197e-02        00000 
 1.31046e-02 -1.28701e-02        00000 
 1.13642e-02 -1.15575e-02        00000 
 1.02741e-02 -9.61394e-03        00000 
 8.77736e-03 -8.12897e-03        00000 
 7.16403e-03 -6.75146e-03        00000 
 6.11093e-03 -5.18567e-03        00000 
 3.91836e-03 -2.97423e-03        00000 
 1.41363e-03 -1.00552e-03        00000 
-5.42453e-04  1.15378e-03        00000 
 9.72034e-02 -4.06068e-03        00000 
 9.66054e-02 -7.72228e-03        00000 
 9.57043e-02 -1.14069e-02        00000 
 9.19669e-02 -1.37615e-02        00000 
 8.72515e-02 -1.54983e-02        00000 
 8.39109e-02 -1.68528e-02        00000 
 8.45146e-02 -1.95758e-02        00000 
 8.43828e-02 -2.23325e-02        00000 
 8.18125e-02 -2.51072e-02        00000 
 7.80295e-02 -2.79105e-02        00000 
 7.51919e-02 -3.08316e-02        00000 
 7.29611e-02 -3.37262e-02        00000 
 7.07080e-02 -3.64272e-02        00000 
 6.64170e-02 -3.65277e-02        00000 
 6.27236e-02 -3.63264e-02        00000 
 5.93480e-02 -3.65509e-02        00000 
 5.60824e-02 -3.67200e-02        00000 
 5.32878e-02 -3.65575e-02        00000 
 4.91890e-02 -3.67032e-02        00000 
 4.76541e-02 -3.69399e-02        00000 
 4.68429e-02 -3.71715e-02        00000 
 4.36917e-02 -3.61200e-02        00000 
 3.97188e-02 -3.45823e-02        00000 
 3.61702e-02 -3.24100e-02        00000 
 3.28265e-02 -2.99245e-02        00000 
 2.94777e-02 -2.76401e-02        00000 
 2.67584e-02 -2.56739e-02        00000 
 2.41166e-02 -2.41867e-02        00000 
 2.27876e-02 -2.34008e-02        00000 
 2.16680e-02 -2.27040e-02        00000 
 2.17196e-02 -2.20753e-02        00000 
 2.31160e-02 -2.18740e-02        00000 
 2.52654e-02 -2.21818e-02        00000 
 2.35702e-02 -2.12481e-02        00000 
 2.18952e-02 -2.01167e-02        00000 
 1.99520e-02 -1.93808e-02        00000 
 1.79433e-02 -1.84729e-02        00000 
 1.76655e-02 -1.79087e-02        00000 
 1.85054e-02 -1.76173e-02        00000 
 1.75080e-02 -1.63361e-02        00000 
 1.59005e-02 -1.49945e-02        00000 
 1.45331e-02 -1.31119e-02        00000 
 1.27871e-02 -1.12276e-02        00000 
 1.07938e-02 -9.83247e-03        00000 
 8.90458e-03 -8.57649e-03        00000 
 6.30536e-03 -5.79300e-03        00000 
 3.81398e-03 -3.46723e-03        00000 
 1.46791e-03 -1.73397e-03        00000 
-5.38006e-04  2.73598e-04        00000 
 1.20487e-01 -5.12770e-03        00000 
 1.18595e-01 -9.22744e-03        00000 
 1.15608e-01 -1.29881e-02        00000 
 1.11101e-01 -1.52290e-02        00000 
 1.06122e-01 -1.67829e-02        00000 
 1.03027e-01 -1.86358e-02        00000 
 1.00217e-01 -2.24026e-02        00000 
 9.97256e-02 -2.53520e-02        00000 
 9.69713e-02 -2.79308e-02        00000 
 9.52141e-02 -3.07684e-02        00000 
 9.21189e-02 -3.38830e-02        00000 
 8.75411e-02 -3.62802e-02        00000 
 8.44500e-02 -3.89132e-02        00000 
 8.06170e-02 -4.05373e-02        00000 
 7.57473e-02 -4.08338e-02        00000 
 7.11825e-02 -4.10729e-02        00000 
 6.63212e-02 -4.09280e-02        00000 
 6.27797e-02 -4.09892e-02        00000 
 5.90717e-02 -4.12194e-02        00000 
 5.69061e-02 -4.14551e-02        00000 
 5.48951e-02 -4.12133e-02        00000 
 5.03957e-02 -4.02747e-02        00000 
 4.57400e-02 -3.86052e-02        00000 
 4.16012e-02 -3.59481e-02        00000 
 3.77030e-02 -3.34017e-02        00000 
 3.43448e-02 -3.08454e-02        00000 
 3.21756e-02 -2.92662e-02        00000 
 2.94983e-02 -2.75582e-02        00000 
 2.69860e-02 -2.62918e-02        00000 
 2.44205e-02 -2.51242e-02        00000 
 2.35733e-02 -2.43837e-02        00000 
 2.39180e-02 -2.39492e-02        00000 
 2.59538e-02 -2.44969e-02        00000 
 2.49965e-02 -2.34530e-02        00000 
 2.46054e-02 -2.26492e-02        00000 
 2.38041e-02 -2.19761e-02        00000 
 2.24338e-02 -2.12219e-02        00000 
 2.19870e-02 -2.07530e-02        00000 
 2.16333e-02 -1.97939e-02        00000 
 1.95598e-02 -1.82143e-02        00000 
 1.80151e-02 -1.58672e-02        00000 
 1.68498e-02 -1.36354e-02        00000 
 1.56612e-02 -1.23845e-02        00000 
 1.39462e-02 -1.09955e-02        00000 
 1.12498e-02 -8.98626e-03        00000 
 8.82723e-03 -6.25504e-03        00000 
 6.92249e-03 -4.13884e-03        00000 
 4.22367e-03 -2.54362e-03        00000 
-4.66023e-04 -1.20005e-04        00000 
 1.42691e-01 -6.12031e-03        00000 
 1.37541e-01 -1.05727e-02        00000 
 1.34408e-01 -1.45124e-02        00000 
 1.28848e-01 -1.64995e-02        00000 
 1.25123e-01 -1.80307e-02        00000 
 1.21416e-01 -2.05154e-02        00000 
 1.17899e-01 -2.42867e-02        00000 
 1.14661e-01 -2.80250e-02        00000 
 1.11682e-01 -3.11441e-02        00000 
 1.10516e-01 -3.42972e-02        00000 
 1.08550e-01 -3.65997e-02        00000 
 1.03618e-01 -3.89871e-02        00000 
 9.81894e-02 -4.12605e-02        00000 
 9.34618e-02 -4.33378e-02        00000 
 8.82431e-02 -4.48795e-02        00000 
 8.29748e-02 -4.52308e-02        00000 
 7.84120e-02 -4.53405e-02        00000 
 7.26962e-02 -4.51680e-02        00000 
 6.96127e-02 -4.53941e-02        00000 
 6.69695e-02 -4.54961e-02        00000 
 6.13525e-02 -4.46748e-02        00000 
 5.60271e-02 -4.36035e-02        00000 
 5.06361e-02 -4.17984e-02        00000 
 4.59682e-02 -3.89489e-02        00000 
 4.17028e-02 -3.63099e-02        00000 
 3.80625e-02 -3.36191e-02        00000 
 3.66468e-02 -3.18271e-02        00000 
 3.37142e-02 -3.03698e-02        00000 
 3.09851e-02 -2.90856e-02        00000 
 2.80035e-02 -2.77618e-02        00000 
 2.56320e-02 -2.64042e-02        00000 
 2.52788e-02 -2.58771e-02        00000 
 2.74374e-02 -2.62258e-02        00000 
 2.94909e-02 -2.60549e-02        00000 
 2.92871e-02 -2.53247e-02        00000 
 2.86841e-02 -2.45675e-02        00000 
 2.71828e-02 -2.38496e-02        00000 
 2.44554e-02 -2.25762e-02        00000 
 2.38489e-02 -2.17086e-02        00000 
 2.21957e-02 -1.92970e-02        00000 
 2.14158e-02 -1.71089e-02        00000 
 2.02871e-02 -1.52794e-02        00000 
 1.83524e-02 -1.34730e-02        00000 
 1.62234e-02 -1.14106e-02        00000 
 1.37025e-02 -9.31584e-03        00000 
 1.14255e-02 -6.79599e-03        00000 
 9.83726e-03 -4.84414e-03        00000 
 4.96284e-03 -2.69420e-03        00000 
 2.18463e-03 -6.99494e-04        00000 
 1.61056e-01 -5.80759e-03        00000 
 1.55424e-01 -1.12169e-02        00000 
 1.52056e-01 -1.58534e-02        00000 
 1.47127e-01 -1.78218e-02        00000 
 1.44214e-01 -1.91673e-02        00000 
 1.39183e-01 -2.24088e-02        00000 
 1.34532e-01 -2.63886e-02        00000 
 1.31067e-01 -3.02075e-02        00000 
 1.28480e-01 -3.34549e-02        00000 
 1.25933e-01 -3.66624e-02        00000 
 1.23362e-01 -3.89687e-02        00000 
 1.19597e-01 -4.08986e-02        00000 
 1.13412e-01 -4.25347e-02        00000 
 1.07650e-01 -4.46198e-02        00000 
 1.00824e-01 -4.64201e-02        00000 
 9.47426e-02 -4.77155e-02        00000 
 8.97825e-02 -4.82549e-02        00000 
 8.44535e-02 -4.94036e-02        00000 
 8.07110e-02 -4.98130e-02        00000 
 7.73229e-02 -4.94393e-02        00000 
 7.01442e-02 -4.82496e-02        00000 
 6.23710e-02 -4.66455e-02        00000 
 5.60620e-02 -4.45766e-02        00000 
 5.04268e-02 -4.17172e-02        00000 
 4.55521e-02 -3.88299e-02        00000 
 4.17185e-02 -3.60968e-02        00000 
 3.94044e-02 -3.39480e-02        00000 
 3.73813e-02 -3.25435e-02        00000 
 3.43790e-02 -3.12970e-02        00000 
 3.15396e-02 -2.99269e-02        00000 
 2.86824e-02 -2.85241e-02        00000 
 2.84209e-02 -2.81254e-02        00000 
 3.08435e-02 -2.81893e-02        00000 
 3.35153e-02 -2.82609e-02        00000 
 3.34286e-02 -2.77632e-02        00000 
 3.28037e-02 -2.70169e-02        00000 
 3.04260e-02 -2.58766e-02        00000 
 2.73228e-02 -2.46266e-02        00000 
 2.65108e-02 -2.25434e-02        00000 
 2.60757e-02 -2.04529e-02        00000 
 2.53435e-02 -1.84213e-02        00000 
 2.32596e-02 -1.66464e-02        00000 
 2.10594e-02 -1.46724e-02        00000 
 1.89243e-02 -1.23545e-02        00000 
 1.74370e-02 -9.67558e-03        00000 
 1.39661e-02 -6.98760e-03        00000 
 9.64434e-03 -4.69759e-03        00000 
 5.43874e-03 -2.64031e-03        00000 
 2.63451e-03 -1.85795e-04        00000 
 1.78501e-01 -5.97944e-03        00000 
 1.73149e-01 -1.14422e-02        00000 
 1.73181e-01 -1.60526e-02        00000 
 1.70510e-01 -1.81716e-02        00000 
 1.65587e-01 -2.02280e-02        00000 
 1.59607e-01 -2.37926e-02        00000 
 1.53951e-01 -2.81276e-02        00000 
 1.49333e-01 -3.21715e-02        00000 
 1.46298e-01 -3.50986e-02        00000 
 1.43006e-01 -3.81194e-02        00000 
 1.38365e-01 -4.06261e-02        00000 
 1.34323e-01 -4.27175e-02        00000 
 1.28344e-01 -4.41224e-02        00000 
 1.21869e-01 -4.57420e-02        00000 
 1.15829e-01 -4.77642e-02        00000 
 1.07735e-01 -4.91748e-02        00000 
 1.00964e-01 -5.06563e-02        00000 
 9.60550e-02 -5.23748e-02        00000 
 9.13325e-02 -5.35521e-02        00000 
 8.58960e-02 -5.30635e-02        00000 
 7.72978e-02 -5.12847e-02        00000 
 6.92718e-02 -4.92855e-02        00000 
 6.18274e-02 -4.68160e-02        00000 
 5.55473e-02 -4.44916e-02        00000 
 5.01345e-02 -4.13142e-02        00000 
 4.60181e-02 -3.84391e-02        00000 
 4.30965e-02 -3.60643e-02        00000 
 4.12325e-02 -3.45293e-02        00000 
 3.86763e-02 -3.29965e-02        00000 
 3.59482e-02 -3.18372e-02        00000 
 3.34226e-02 -3.09653e-02        00000 
 3.30092e-02 -3.01410e-02        00000 
 3.48636e-02 -3.00360e-02        00000 
 3.68629e-02 -3.00077e-02        00000 
 3.73785e-02 -2.97134e-02        00000 
 3.61292e-02 -2.89990e-02        00000 
 3.46376e-02 -2.80344e-02        00000 
 3.19382e-02 -2.57223e-02        00000 
 3.06997e-02 -2.34709e-02        00000 
 2.98788e-02 -2.14417e-02        00000 
 2.82769e-02 -1.95152e-02        00000 
 2.62296e-02 -1.77963e-02        00000 
 2.40228e-02 -1.56381e-02        00000 
 2.15747e-02 -1.31318e-02        00000 
 1.67927e-02 -9.86666e-03        00000 
 1.27739e-02 -7.33025e-03        00000 
 8.75061e-03 -4.71799e-03        00000 
 5.56013e-03 -2.53563e-03        00000 
 3.06209e-03  4.36109e-04        00000 
 1.99272e-01 -5.62580e-03        00000 
 1.96285e-01 -1.11322e-02        00000 
 1.95108e-01 -1.56553e-02        00000 
 1.91639e-01 -1.89348e-02        00000 
 1.85468e-01 -2.11219e-02        00000 
 1.79619e-01 -2.46600e-02        00000 
 1.73722e-01 -2.85288e-02        00000 