<?xml version="1.0" encoding="utf-8"?>
<VTKFile byte_order="LittleEndian" type="UnstructuredGrid" version="0.1">
   <UnstructuredGrid>
      <Piece NumberOfCells="9604" NumberOfPoints="4901">
         <Points>
            <DataArray Name="Points" NumberOfComponents="3" format="ascii" type="Float32">
-1.0000 -1.0000 0.0000
-1.0000 -0.9592 0.0000
-1.0000 -0.9184 0.0000
-1.0000 -0.8776 0.0000
-1.0000 -0.8367 0.0000
-1.0000 -0.7959 0.0000
-1.0000 -0.7551 0.0000
-1.0000 -0.7143 0.0000
-1.0000 -0.6735 0.0000
-1.0000 -0.6327 0.0000
-1.0000 -0.5918 0.0000
-1.0000 -0.5510 0.0000
-1.0000 -0.5102 0.0000
-1.0000 -0.4694 0.0000
-1.0000 -0.4286 0.0000
-1.0000 -0.3878 0.0000
-1.0000 -0.3469 0.0000
-1.0000 -0.3061 0.0000
-1.0000 -0.2653 0.0000
-1.0000 -0.2245 0.0000
-1.0000 -0.1837 0.0000
-1.0000 -0.1429 0.0000
-1.0000 -0.1020 0.0000
-1.0000 -0.0612 0.0000
-1.0000 -0.0204 0.0000
-1.0000 0.0204 0.0000
-1.0000 0.0612 0.0000
-1.0000 0.1020 0.0000
-1.0000 0.1429 0.0000
-1.0000 0.1837 0.0000
-1.0000 0.2245 0.0000
-1.0000 0.2653 0.0000
-1.0000 0.3061 0.0000
-1.0000 0.3469 0.0000
-1.0000 0.3878 0.0000
-1.0000 0.4286 0.0000
-1.0000 0.4694 0.0000
-1.0000 0.5102 0.0000
-1.0000 0.5510 0.0000
-1.0000 0.5918 0.0000
-1.0000 0.6327 0.0000
-1.0000 0.6735 0.0000
-1.0000 0.7143 0.0000
-1.0000 0.7551 0.0000
-1.0000 0.7959 0.0000
-1.0000 0.8367 0.0000
-1.0000 0.8776 0.0000
-1.0000 0.9184 0.0000
-1.0000 0.9592 0.0000
-1.0000 1.0000 0.0000
-0.9592 -1.0000 0.0000
-0.9592 -0.9592 0.0000
-0.9592 -0.9184 0.0000
-0.9592 -0.8776 0.0000
-0.9592 -0.8367 0.0000
-0.9592 -0.7959 0.0000
-0.9592 -0.7551 0.0000
-0.9592 -0.7143 0.0000
-0.9592 -0.6735 0.0000
-0.9592 -0.6327 0.0000
-0.9592 -0.5918 0.0000
-0.9592 -0.5510 0.0000
-0.9592 -0.5102 0.0000
-0.9592 -0.4694 0.0000
-0.9592 -0.4286 0.0000
-0.9592 -0.3878 0.0000
-0.9592 -0.3469 0.0000
-0.9592 -0.3061 0.0000
-0.9592 -0.2653 0.0000
-0.9592 -0.2245 0.0000
-0.9592 -0.1837 0.0000
-0.9592 -0.1429 0.0000
-0.9592 -0.1020 0.0000
-0.9592 -0.0612 0.0000
-0.9592 -0.0204 0.0000
-0.9592 0.0204 0.0000
-0.9592 0.0612 0.0000
-0.9592 0.1020 0.0000
-0.9592 0.1429 0.0000
-0.9592 0.1837 0.0000
-0.9592 0.2245 0.0000
-0.9592 0.2653 0.0000
-0.9592 0.3061 0.0000
-0.9592 0.3469 0.0000
-0.9592 0.3878 0.0000
-0.9592 0.4286 0.0000
-0.9592 0.4694 0.0000
-0.9592 0.5102 0.0000
-0.9592 0.5510 0.0000
-0.9592 0.5918 0.0000
-0.9592 0.6327 0.0000
-0.9592 0.6735 0.0000
-0.9592 0.7143 0.0000
-0.9592 0.7551 0.0000
-0.9592 0.7959 0.0000
-0.9592 0.8367 0.0000
-0.9592 0.8776 0.0000
-0.9592 0.9184 0.0000
-0.9592 0.9592 0.0000
-0.9592 1.0000 0.0000
-0.9184 -1.0000 0.0000
-0.9184 -0.9592 0.0000
-0.9184 -0.9184 0.0000
-0.9184 -0.8776 0.0000
-0.9184 -0.8367 0.0000
-0.9184 -0.7959 0.0000
-0.9184 -0.7551 0.0000
-0.9184 -0.7143 0.0000
-0.9184 -0.6735 0.0000
-0.9184 -0.6327 0.0000
-0.9184 -0.5918 0.0000
-0.9184 -0.5510 0.0000
-0.9184 -0.5102 0.0000
-0.9184 -0.4694 0.0000
-0.9184 -0.4286 0.0000
-0.9184 -0.3878 0.0000
-0.9184 -0.3469 0.0000
-0.9184 -0.3061 0.0000
-0.9184 -0.2653 0.0000
-0.9184 -0.2245 0.0000
-0.9184 -0.1837 0.0000
-0.9184 -0.1429 0.0000
-0.9184 -0.1020 0.0000
-0.9184 -0.0612 0.0000
-0.9184 -0.0204 0.0000
-0.9184 0.0204 0.0000
-0.9184 0.0612 0.0000
-0.9184 0.1020 0.0000
-0.9184 0.1429 0.0000
-0.9184 0.1837 0.0000
-0.9184 0.2245 0.0000
-0.9184 0.2653 0.0000
-0.9184 0.3061 0.0000
-0.9184 0.3469 0.0000
-0.9184 0.3878 0.0000
-0.9184 0.4286 0.0000
-0.9184 0.4694 0.0000
-0.9184 0.5102 0.0000
-0.9184 0.5510 0.0000
-0.9184 0.5918 0.0000
-0.9184 0.6327 0.0000
-0.9184 0.6735 0.0000
-0.9184 0.7143 0.0000
-0.9184 0.7551 0.0000
-0.9184 0.7959 0.0000
-0.9184 0.8367 0.0000
-0.9184 0.8776 0.0000
-0.9184 0.9184 0.0000
-0.9184 0.9592 0.0000
-0.9184 1.0000 0.0000
-0.8776 -1.0000 0.0000
-0.8776 -0.9592 0.0000
-0.8776 -0.9184 0.0000
-0.8776 -0.8776 0.0000
-0.8776 -0.8367 0.0000
-0.8776 -0.7959 0.0000
-0.8776 -0.7551 0.0000
-0.8776 -0.7143 0.0000
-0.8776 -0.6735 0.0000
-0.8776 -0.6327 0.0000
-0.8776 -0.5918 0.0000
-0.8776 -0.5510 0.0000
-0.8776 -0.5102 0.0000
-0.8776 -0.4694 0.0000
-0.8776 -0.4286 0.0000
-0.8776 -0.3878 0.0000
-0.8776 -0.3469 0.0000
-0.8776 -0.3061 0.0000
-0.8776 -0.2653 0.0000
-0.8776 -0.2245 0.0000
-0.8776 -0.1837 0.0000
-0.8776 -0.1429 0.0000
-0.8776 -0.1020 0.0000
-0.8776 -0.0612 0.0000
-0.8776 -0.0204 0.0000
-0.8776 0.0204 0.0000
-0.8776 0.0612 0.0000
-0.8776 0.1020 0.0000
-0.8776 0.1429 0.0000
-0.8776 0.1837 0.0000
-0.8776 0.2245 0.0000
-0.8776 0.2653 0.0000
-0.8776 0.3061 0.0000
-0.8776 0.3469 0.0000
-0.8776 0.3878 0.0000
-0.8776 0.4286 0.0000
-0.8776 0.4694 0.0000
-0.8776 0.5102 0.0000
-0.8776 0.5510 0.0000
-0.8776 0.5918 0.0000
-0.8776 0.6327 0.0000
-0.8776 0.6735 0.0000
-0.8776 0.7143 0.0000
-0.8776 0.7551 0.0000
-0.8776 0.7959 0.0000
-0.8776 0.8367 0.0000
-0.8776 0.8776 0.0000
-0.8776 0.9184 0.0000
-0.8776 0.9592 0.0000
-0.8776 1.0000 0.0000
-0.8367 -1.0000 0.0000
-0.8367 -0.9592 0.0000
-0.8367 -0.9184 0.0000
-0.8367 -0.8776 0.0000
-0.8367 -0.8367 0.0000
-0.8367 -0.7959 0.0000
-0.8367 -0.7551 0.0000
-0.8367 -0.7143 0.0000
-0.8367 -0.6735 0.0000
-0.8367 -0.6327 0.0000
-0.8367 -0.5918 0.0000
-0.8367 -0.5510 0.0000
-0.8367 -0.5102 0.0000
-0.8367 -0.4694 0.0000
-0.8367 -0.4286 0.0000
-0.8367 -0.3878 0.0000
-0.8367 -0.3469 0.0000
-0.8367 -0.3061 0.0000
-0.8367 -0.2653 0.0000
-0.8367 -0.2245 0.0000
-0.8367 -0.1837 0.0000
-0.8367 -0.1429 0.0000
-0.8367 -0.1020 0.0000
-0.8367 -0.0612 0.0000
-0.8367 -0.0204 0.0000
-0.8367 0.0204 0.0000
-0.8367 0.0612 0.0000
-0.8367 0.1020 0.0000
-0.8367 0.1429 0.0000
-0.8367 0.1837 0.0000
-0.8367 0.2245 0.0000
-0.8367 0.2653 0.0000
-0.8367 0.3061 0.0000
-0.8367 0.3469 0.0000
-0.8367 0.3878 0.0000
-0.8367 0.4286 0.0000
-0.8367 0.4694 0.0000
-0.8367 0.5102 0.0000
-0.8367 0.5510 0.0000
-0.8367 0.5918 0.0000
-0.8367 0.6327 0.0000
-0.8367 0.6735 0.0000
-0.8367 0.7143 0.0000
-0.8367 0.7551 0.0000
-0.8367 0.7959 0.0000
-0.8367 0.8367 0.0000
-0.8367 0.8776 0.0000
-0.8367 0.9184 0.0000
-0.8367 0.9592 0.0000
-0.8367 1.0000 0.0000
-0.7959 -1.0000 0.0000
-0.7959 -0.9592 0.0000
-0.7959 -0.9184 0.0000
-0.7959 -0.8776 0.0000
-0.7959 -0.8367 0.0000
-0.7959 -0.7959 0.0000
-0.7959 -0.7551 0.0000
-0.7959 -0.7143 0.0000
-0.7959 -0.6735 0.0000
-0.7959 -0.6327 0.0000
-0.7959 -0.5918 0.0000
-0.7959 -0.5510 0.0000
-0.7959 -0.5102 0.0000
-0.7959 -0.4694 0.0000
-0.7959 -0.4286 0.0000
-0.7959 -0.3878 0.0000
-0.7959 -0.3469 0.0000
-0.7959 -0.3061 0.0000
-0.7959 -0.2653 0.0000
-0.7959 -0.2245 0.0000
-0.7959 -0.1837 0.0000
-0.7959 -0.1429 0.0000
-0.7959 -0.1020 0.0000
-0.7959 -0.0612 0.0000
-0.7959 -0.0204 0.0000
-0.7959 0.0204 0.0000
-0.7959 0.0612 0.0000
-0.7959 0.1020 0.0000
-0.7959 0.1429 0.0000
-0.7959 0.1837 0.0000
-0.7959 0.2245 0.0000
-0.7959 0.2653 0.0000
-0.7959 0.3061 0.0000
-0.7959 0.3469 0.0000
-0.7959 0.3878 0.0000
-0.7959 0.4286 0.0000
-0.7959 0.4694 0.0000
-0.7959 0.5102 0.0000
-0.7959 0.5510 0.0000
-0.7959 0.5918 0.0000
-0.7959 0.6327 0.0000
-0.7959 0.6735 0.0000
-0.7959 0.7143 0.0000
-0.7959 0.7551 0.0000
-0.7959 0.7959 0.0000
-0.7959 0.8367 0.0000
-0.7959 0.8776 0.0000
-0.7959 0.9184 0.0000
-0.7959 0.9592 0.0000
-0.7959 1.0000 0.0000
-0.7551 -1.0000 0.0000
-0.7551 -0.9592 0.0000
-0.7551 -0.9184 0.0000
-0.7551 -0.8776 0.0000
-0.7551 -0.8367 0.0000
-0.7551 -0.7959 0.0000
-0.7551 -0.7551 0.0000
-0.7551 -0.7143 0.0000
-0.7551 -0.6735 0.0000
-0.7551 -0.6327 0.0000
-0.7551 -0.5918 0.0000
-0.7551 -0.5510 0.0000
-0.7551 -0.5102 0.0000
-0.7551 -0.4694 0.0000
-0.7551 -0.4286 0.0000
-0.7551 -0.3878 0.0000
-0.7551 -0.3469 0.0000
-0.7551 -0.3061 0.0000
-0.7551 -0.2653 0.0000
-0.7551 -0.2245 0.0000
-0.7551 -0.1837 0.0000
-0.7551 -0.1429 0.0000
-0.7551 -0.1020 0.0000
-0.7551 -0.0612 0.0000
-0.7551 -0.0204 0.0000
-0.7551 0.0204 0.0000
-0.7551 0.0612 0.0000
-0.7551 0.1020 0.0000
-0.7551 0.1429 0.0000
-0.7551 0.1837 0.0000
-0.7551 0.2245 0.0000
-0.7551 0.2653 0.0000
-0.7551 0.3061 0.0000
-0.7551 0.3469 0.0000
-0.7551 0.3878 0.0000
-0.7551 0.4286 0.0000
-0.7551 0.4694 0.0000
-0.7551 0.5102 0.0000
-0.7551 0.5510 0.0000
-0.7551 0.5918 0.0000
-0.7551 0.6327 0.0000
-0.7551 0.6735 0.0000
-0.7551 0.7143 0.0000
-0.7551 0.7551 0.0000
-0.7551 0.7959 0.0000
-0.7551 0.8367 0.0000
-0.7551 0.8776 0.0000
-0.7551 0.9184 0.0000
-0.7551 0.9592 0.0000
-0.7551 1.0000 0.0000
-0.7143 -1.0000 0.0000
-0.7143 -0.9592 0.0000
-0.7143 -0.9184 0.0000
-0.7143 -0.8776 0.0000
-0.7143 -0.8367 0.0000
-0.7143 -0.7959 0.0000
-0.7143 -0.7551 0.0000
-0.7143 -0.7143 0.0000
-0.7143 -0.6735 0.0000
-0.7143 -0.6327 0.0000
-0.7143 -0.5918 0.0000
-0.7143 -0.5510 0.0000
-0.7143 -0.5102 0.0000
-0.7143 -0.4694 0.0000
-0.7143 -0.4286 0.0000
-0.7143 -0.3878 0.0000
-0.7143 -0.3469 0.0000
-0.7143 -0.3061 0.0000
-0.7143 -0.2653 0.0000
-0.7143 -0.2245 0.0000
-0.7143 -0.1837 0.0000
-0.7143 -0.1429 0.0000
-0.7143 -0.1020 0.0000
-0.7143 -0.0612 0.0000
-0.7143 -0.0204 0.0000
-0.7143 0.0204 0.0000
-0.7143 0.0612 0.0000
-0.7143 0.1020 0.0000
-0.7143 0.1429 0.0000
-0.7143 0.1837 0.0000
-0.7143 0.2245 0.0000
-0.7143 0.2653 0.0000
-0.7143 0.3061 0.0000
-0.7143 0.3469 0.0000
-0.7143 0.3878 0.0000
-0.7143 0.4286 0.0000
-0.7143 0.4694 0.0000
-0.7143 0.5102 0.0000
-0.7143 0.5510 0.0000
-0.7143 0.5918 0.0000
-0.7143 0.6327 0.0000
-0.7143 0.6735 0.0000
-0.7143 0.7143 0.0000
-0.7143 0.7551 0.0000
-0.7143 0.7959 0.0000
-0.7143 0.8367 0.0000
-0.7143 0.8776 0.0000
-0.7143 0.9184 0.0000
-0.7143 0.9592 0.0000
-0.7143 1.0000 0.0000
-0.6735 -1.0000 0.0000
-0.6735 -0.9592 0.0000
-0.6735 -0.9184 0.0000
-0.6735 -0.8776 0.0000
-0.6735 -0.8367 0.0000
-0.6735 -0.7959 0.0000
-0.6735 -0.7551 0.0000
-0.6735 -0.7143 0.0000
-0.6735 -0.6735 0.0000
-0.6735 -0.6327 0.0000
-0.6735 -0.5918 0.0000
-0.6735 -0.5510 0.0000
-0.6735 -0.5102 0.0000
-0.6735 -0.4694 0.0000
-0.6735 -0.4286 0.0000
-0.6735 -0.3878 0.0000
-0.6735 -0.3469 0.0000
-0.6735 -0.3061 0.0000
-0.6735 -0.2653 0.0000
-0.6735 -0.2245 0.0000
-0.6735 -0.1837 0.0000
-0.6735 -0.1429 0.0000
-0.6735 -0.1020 0.0000
-0.6735 -0.0612 0.0000
-0.6735 -0.0204 0.0000
-0.6735 0.0204 0.0000
-0.6735 0.0612 0.0000
-0.6735 0.1020 0.0000
-0.6735 0.1429 0.0000
-0.6735 0.1837 0.0000
[...]
         <PointData>
            <DataArray Name="fValues" NumberOfComponents="3" format="ascii" type="Float64">
 9.40938e-20  2.35026e-17        00000 
 5.49536e-20 -6.59443e-18        00000 
 1.08685e-19 -8.69477e-19        00000 
-2.08245e-19 -1.57037e-18        00000 
 6.52108e-19 -2.60843e-18        00000 
-5.00649e-19  1.59551e-18        00000 
 4.34738e-19  6.52108e-19        00000 
-2.25314e-19  1.14706e-18        00000 
 8.15134e-19 -1.30422e-18        00000 
-2.04727e-18 -2.91434e-19        00000 
 1.19553e-18 -2.39106e-18        00000 
-3.24316e-19  6.69116e-19        00000 
 2.17369e-19  3.26054e-19        00000 
-1.97279e-18  1.76973e-18        00000 
-2.17369e-19  4.34738e-19        00000 
-5.18906e-19 -2.38970e-19        00000 
 1.84764e-18  5.43423e-19        00000 
-1.92343e-18  4.99465e-19        00000 
 8.15134e-19  9.78161e-19        00000 
-1.36554e-20 -4.77940e-19        00000 
 8.69477e-19 -4.34738e-19        00000 
-2.10237e-18  2.85851e-18        00000 
 6.52108e-19 -2.60843e-18        00000 
-1.09926e-18  1.98686e-18        00000 
 4.89081e-19  8.69477e-19        00000 
-8.72028e-19  2.34833e-19        00000 
-1.35856e-18 -3.26054e-19        00000 
 4.98423e-19  1.72741e-18        00000 
 3.26054e-19  7.60792e-19        00000 
-6.06864e-19  5.52473e-19        00000 
 1.08685e-19        00000        00000 
-4.06249e-19  3.00419e-19        00000 
 3.26054e-19 -6.52108e-19        00000 
-5.25010e-19  2.05571e-20        00000 
 3.26054e-19 -1.08685e-18        00000 
-1.09926e-18  1.89128e-18        00000 
 1.24987e-18 -1.19553e-18        00000 
-8.32457e-19  8.70038e-19        00000 
 1.05967e-18 -8.15134e-19        00000 
-8.48343e-19  2.25314e-19        00000 
 4.89081e-19  4.89081e-19        00000 
-5.27633e-19 -6.85238e-21        00000 
 8.15134e-20  1.08685e-19        00000 
-3.32851e-19  2.86764e-19        00000 
 8.15134e-20 -3.53225e-19        00000 
 1.37369e-19  3.99794e-19        00000 
       00000 -8.15134e-20        00000 
 8.72157e-20 -2.32575e-19        00000 
-1.12774e-19 -8.62985e-20        00000 
 1.40943e-20 -1.66099e-20        00000 
       00000  2.04082e-02        00000 
-1.52931e-03  1.88544e-02        00000 
-2.29101e-03  1.78800e-02        00000 
-2.85250e-03  1.71330e-02        00000 
-3.30617e-03  1.65012e-02        00000 
-3.69636e-03  1.59403e-02        00000 
-4.04416e-03  1.54293e-02        00000 
-4.36140e-03  1.49573e-02        00000 
-4.65487e-03  1.45189e-02        00000 
-4.92837e-03  1.41115e-02        00000 
-5.18360e-03  1.37341e-02        00000 
-5.42066e-03  1.33866e-02        00000 
-5.63847e-03  1.30690e-02        00000 
-5.83551e-03  1.27812e-02        00000 
-6.01001e-03  1.25231e-02        00000 
-6.15936e-03  1.22941e-02        00000 
-6.27933e-03  1.20930e-02        00000 
-6.36453e-03  1.19163e-02        00000 
-6.41249e-03  1.17570e-02        00000 
-6.42150e-03  1.16088e-02        00000 
-6.38854e-03  1.14631e-02        00000 
-6.31503e-03  1.13100e-02        00000 
-6.20191e-03  1.11410e-02        00000 
-6.05310e-03  1.09473e-02        00000 
-5.87293e-03  1.07219e-02        00000 
-5.66708e-03  1.04598e-02        00000 
-5.44233e-03  1.01585e-02        00000 
-5.20567e-03  9.81845e-03        00000 
-4.96344e-03  9.44211e-03        00000 
-4.72166e-03  9.03389e-03        00000 
-4.48549e-03  8.59957e-03        00000 
-4.25898e-03  8.14599e-03        00000 
-4.04495e-03  7.68038e-03        00000 
-3.84491e-03  7.20985e-03        00000 
-3.65923e-03  6.74097e-03        00000 
-3.48719e-03  6.27940e-03        00000 
-3.32720e-03  5.82963e-03        00000 
-3.17692e-03  5.39479e-03        00000 
-3.03349e-03  4.97663e-03        00000 
-2.89367e-03  4.57546e-03        00000 
-2.75391e-03  4.19023e-03        00000 
-2.61041e-03  3.81857e-03        00000 
-2.45900e-03  3.45674e-03        00000 
-2.29490e-03  3.09953e-03        00000 
-2.11216e-03  2.73979e-03        00000 
-1.90246e-03  2.36734e-03        00000 
-1.65255e-03  1.96617e-03        00000 
-1.33582e-03  1.50717e-03        00000 
-8.97233e-04  9.21744e-04        00000 
-8.73790e-20 -2.78590e-19        00000 
-1.43386e-19  4.08163e-02        00000 
-2.45464e-03  3.84509e-02        00000 
-4.08136e-03  3.65413e-02        00000 
-5.26519e-03  3.49934e-02        00000 
-6.21978e-03  3.36698e-02        00000 
-7.03470e-03  3.24952e-02        00000 
-7.75760e-03  3.14279e-02        00000 
-8.41513e-03  3.04444e-02        00000 
-9.02282e-03  2.95315e-02        00000 
-9.58950e-03  2.86816e-02        00000 
-1.01195e-02  2.78913e-02        00000 
-1.06133e-02  2.71592e-02        00000 
-1.10686e-02  2.64848e-02        00000 
-1.14817e-02  2.58668e-02        00000 
-1.18499e-02  2.53041e-02        00000 
-1.21676e-02  2.47956e-02        00000 
-1.24256e-02  2.43374e-02        00000 
-1.26112e-02  2.39240e-02        00000 
-1.27161e-02  2.35478e-02        00000 
-1.27427e-02  2.31917e-02        00000 
-1.26746e-02  2.28404e-02        00000 
-1.25213e-02  2.24786e-02        00000 
-1.23083e-02  2.21018e-02        00000 
-1.20018e-02  2.16779e-02        00000 
-1.16216e-02  2.11864e-02        00000 
-1.11827e-02  2.06195e-02        00000 
-1.06964e-02  1.99726e-02        00000 
-1.01945e-02  1.92590e-02        00000 
-9.66332e-03  1.84730e-02        00000 
-9.16002e-03  1.76485e-02        00000 
-8.67303e-03  1.67794e-02        00000 
-8.20919e-03  1.58775e-02        00000 
-7.77632e-03  1.49569e-02        00000 
-7.37597e-03  1.40297e-02        00000 
-7.00830e-03  1.31074e-02        00000 
-6.67122e-03  1.22002e-02        00000 
-6.36062e-03  1.13155e-02        00000 
-6.07093e-03  1.04588e-02        00000 
-5.79549e-03  9.63252e-03        00000 
-5.52687e-03  8.83657e-03        00000 
-5.25713e-03  8.06826e-03        00000 
-4.97781e-03  7.32226e-03        00000 
-4.67971e-03  6.59060e-03        00000 
-4.35233e-03  5.86223e-03        00000 
-3.98257e-03  5.12215e-03        00000 
-3.55210e-03  4.34936e-03        00000 
-3.03146e-03  3.51261e-03        00000 
-2.36735e-03  2.56157e-03        00000 
-1.43334e-03  1.41043e-03        00000 
-3.30568e-19  1.10189e-19        00000 
 2.71711e-19  6.12245e-02        00000 
-3.12282e-03  5.82372e-02        00000 
-5.45975e-03  5.56255e-02        00000 
-7.26868e-03  5.33552e-02        00000 
-8.74510e-03  5.13556e-02        00000 
-1.00093e-02  4.95580e-02        00000 
-1.11301e-02  4.79151e-02        00000 
-1.21487e-02  4.63962e-02        00000 
-1.30897e-02  4.49821e-02        00000 
-1.39677e-02  4.36609e-02        00000 
-1.47903e-02  4.24257e-02        00000 
-1.55594e-02  4.12738e-02        00000 
-1.62708e-02  4.02040e-02        00000 
-1.69176e-02  3.92152e-02        00000 
-1.74966e-02  3.83053e-02        00000 
-1.80011e-02  3.74697e-02        00000 
-1.84196e-02  3.67116e-02        00000 
-1.87511e-02  3.60399e-02        00000 
-1.89437e-02  3.54280e-02        00000 
-1.90624e-02  3.49062e-02        00000 
-1.89711e-02  3.43457e-02        00000 
-1.87410e-02  3.37709e-02        00000 
-1.84396e-02  3.31546e-02        00000 
-1.79482e-02  3.24448e-02        00000 
-1.73360e-02  3.16239e-02        00000 
-1.66341e-02  3.06939e-02        00000 
-1.58538e-02  2.96475e-02        00000 
-1.50540e-02  2.85088e-02        00000 
-1.42024e-02  2.72674e-02        00000 
-1.33979e-02  2.59774e-02        00000 
-1.26373e-02  2.46343e-02        00000 
-1.18781e-02  2.32324e-02        00000 
-1.11960e-02  2.18337e-02        00000 
-1.05960e-02  2.04550e-02        00000 
-1.00503e-02  1.90876e-02        00000 
-9.55638e-03  1.77459e-02        00000 
-9.10531e-03  1.64385e-02        00000 
-8.68734e-03  1.51719e-02        00000 
-8.29112e-03  1.39485e-02        00000 
-7.90423e-03  1.27671e-02        00000 
-7.51352e-03  1.16229e-02        00000 
-7.10516e-03  1.05074e-02        00000 
-6.66430e-03  9.40811e-03        00000 
-6.17414e-03  8.30879e-03        00000 
-5.61408e-03  7.18793e-03        00000 
-4.95605e-03  6.01738e-03        00000 
-4.15778e-03  4.75971e-03        00000 
-3.14835e-03  3.36593e-03        00000 
-1.81319e-03  1.78753e-03        00000 
 1.08685e-19 -3.80396e-19        00000 
-1.50859e-19  8.16327e-02        00000 
-3.64608e-03  7.81284e-02        00000 
-6.56228e-03  7.49339e-02        00000 
-8.93239e-03  7.20435e-02        00000 
-1.09171e-02  6.94217e-02        00000 
-1.26350e-02  6.70235e-02        00000 
-1.41653e-02  6.48086e-02        00000 
-1.55588e-02  6.27469e-02        00000 
-1.68476e-02  6.08168e-02        00000 
-1.80510e-02  5.90035e-02        00000 
-1.91806e-02  5.72972e-02        00000 
-2.02411e-02  5.56937e-02        00000 
-2.12256e-02  5.41904e-02        00000 
-2.21212e-02  5.27855e-02        00000 
-2.29350e-02  5.14919e-02        00000 
-2.37011e-02  5.03618e-02        00000 
-2.43847e-02  4.93897e-02        00000 
-2.48935e-02  4.84896e-02        00000 
-2.52467e-02  4.76702e-02        00000 
-2.54019e-02  4.69063e-02        00000 
-2.52888e-02  4.60699e-02        00000 
-2.49193e-02  4.51619e-02        00000 
-2.44063e-02  4.41783e-02        00000 
-2.36927e-02  4.30645e-02        00000 
-2.28252e-02  4.18610e-02        00000 
-2.18379e-02  4.05306e-02        00000 
-2.07793e-02  3.90941e-02        00000 
-1.96646e-02  3.75324e-02        00000 
-1.85583e-02  3.58777e-02        00000 
-1.74481e-02  3.41024e-02        00000 
-1.63893e-02  3.22561e-02        00000 
-1.53559e-02  3.03506e-02        00000 
-1.44063e-02  2.84376e-02        00000 
-1.35855e-02  2.65616e-02        00000 
-1.28138e-02  2.46951e-02        00000 
-1.21459e-02  2.29023e-02        00000 
-1.15653e-02  2.11822e-02        00000 
-1.10319e-02  1.95184e-02        00000 
-1.05275e-02  1.79113e-02        00000 
-1.00339e-02  1.63579e-02        00000 
-9.53201e-03  1.48508e-02        00000 
-9.00229e-03  1.33782e-02        00000 
-8.42394e-03  1.19238e-02        00000 
-7.77403e-03  1.04670e-02        00000 
-7.02541e-03  8.98243e-03        00000 
-6.14312e-03  7.43916e-03        00000 
-5.07871e-03  5.80133e-03        00000 
-3.76341e-03  4.03167e-03        00000 
-2.10544e-03  2.10070e-03        00000 
-3.23443e-19 -3.40919e-20        00000 
 5.43423e-20  1.02041e-01        00000 
-4.07023e-03  9.80847e-02        00000 
-7.46570e-03  9.43863e-02        00000 
-1.03260e-02  9.09521e-02        00000 
-1.27817e-02  8.77673e-02        00000 
-1.49390e-02  8.48052e-02        00000 
-1.68771e-02  8.20372e-02        00000 
-1.86504e-02  7.94381e-02        00000 
-2.02949e-02  7.69875e-02        00000 
-2.18330e-02  7.46700e-02        00000 
-2.32782e-02  7.24749e-02        00000 
-2.46427e-02  7.03934e-02        00000 
-2.59177e-02  6.84261e-02        00000 
-2.71347e-02  6.66357e-02        00000 
-2.83030e-02  6.50693e-02        00000 
-2.94190e-02  6.36976e-02        00000 
-3.03513e-02  6.24575e-02        00000 
-3.10545e-02  6.12899e-02        00000 
-3.14073e-02  6.00684e-02        00000 
-3.14546e-02  5.88155e-02        00000 
-3.12079e-02  5.74857e-02        00000 
-3.06095e-02  5.60422e-02        00000 
-2.98368e-02  5.45729e-02        00000 
-2.88724e-02  5.29909e-02        00000 
-2.77384e-02  5.13539e-02        00000 
-2.64620e-02  4.96160e-02        00000 
-2.50970e-02  4.77710e-02        00000 
-2.37125e-02  4.58522e-02        00000 
-2.23858e-02  4.38667e-02        00000 
-2.10183e-02  4.16728e-02        00000 
-1.96828e-02  3.93993e-02        00000 
-1.85069e-02  3.71157e-02        00000 
-1.73871e-02  3.47664e-02        00000 
-1.63475e-02  3.23873e-02        00000 
-1.53869e-02  3.00326e-02        00000 
-1.45260e-02  2.77443e-02        00000 
-1.37736e-02  2.55591e-02        00000 
-1.31132e-02  2.34867e-02        00000 
-1.25145e-02  2.15115e-02        00000 
-1.19278e-02  1.96042e-02        00000 
-1.13267e-02  1.77532e-02        00000 
-1.06855e-02  1.59434e-02        00000 
-9.97769e-03  1.41553e-02        00000 
-9.17505e-03  1.23651e-02        00000 
-8.24570e-03  1.05454e-02        00000 
-7.15141e-03  8.66562e-03        00000 
-5.84429e-03  6.69417e-03        00000 
-4.26434e-03  4.60251e-03        00000 
-2.34082e-03  2.37189e-03        00000 
 5.00638e-19 -8.21606e-20        00000 
 9.55880e-20  1.22449e-01        00000 
-4.41860e-03  1.18088e-01        00000 
-8.21459e-03  1.13942e-01        00000 
-1.14998e-02  1.10023e-01        00000 
-1.43814e-02  1.06327e-01        00000 
-1.69521e-02  1.02841e-01        00000 
-1.92851e-02  9.95463e-02        00000 
-2.14344e-02  9.64237e-02        00000 
-2.34357e-02  9.34569e-02        00000 
-2.53109e-02  9.06300e-02        00000 
-2.70778e-02  8.79314e-02        00000 
-2.87670e-02  8.53823e-02        00000 
-3.04444e-02  8.30446e-02        00000 
-3.20881e-02  8.09500e-02        00000 
-3.36167e-02  7.90489e-02        00000 
-3.49746e-02  7.72798e-02        00000 
-3.60517e-02  7.55096e-02        00000 
-3.67817e-02  7.38660e-02        00000 
-3.69958e-02  7.19598e-02        00000 
-3.69093e-02  7.00714e-02        00000 
-3.64911e-02  6.81676e-02        00000 
-3.57538e-02  6.62087e-02        00000 
-3.47595e-02  6.42440e-02        00000 
-3.35543e-02  6.22348e-02        00000 
-3.21467e-02  6.01561e-02        00000 
-3.05726e-02  5.79929e-02        00000 
-2.89012e-02  5.57387e-02        00000 
-2.72144e-02  5.33968e-02        00000 
-2.55696e-02  5.09661e-02        00000 
-2.39314e-02  4.83953e-02        00000 
-2.24482e-02  4.58188e-02        00000 
-2.10483e-02  4.31215e-02        00000 
-1.98543e-02  4.04650e-02        00000 
-1.87277e-02  3.77456e-02        00000 
-1.76775e-02  3.50041e-02        00000 
-1.67024e-02  3.22902e-02        00000 
-1.58164e-02  2.96518e-02        00000 
-1.49769e-02  2.71047e-02        00000 
-1.42671e-02  2.47439e-02        00000 
-1.36024e-02  2.25039e-02        00000 
-1.29167e-02  2.03339e-02        00000 
-1.21767e-02  1.82135e-02        00000 
-1.13506e-02  1.61200e-02        00000 
-1.04061e-02  1.40275e-02        00000 
-9.30857e-03  1.19077e-02        00000 
-8.01949e-03  9.73114e-03        00000 
-6.49501e-03  7.46987e-03        00000 
-4.68547e-03  5.10097e-03        00000 
-2.53765e-03  2.61103e-03        00000 
-1.61796e-19  9.06056e-21        00000 
 8.15134e-19  1.42857e-01        00000 
-4.70458e-03  1.38130e-01        00000 
-8.83654e-03  1.33580e-01        00000 
-1.24889e-02  1.29223e-01        00000 
-1.57512e-02  1.25062e-01        00000 
-1.87033e-02  1.21091e-01        00000 
-2.14110e-02  1.17300e-01        00000 
-2.39242e-02  1.13674e-01        00000 
-2.62790e-02  1.10200e-01        00000 
-2.84848e-02  1.06866e-01        00000 
-3.06072e-02  1.03700e-01        00000 
-3.26476e-02  1.00697e-01        00000 
-3.47926e-02  9.79905e-02        00000 
-3.68298e-02  9.54587e-02        00000 
-3.85774e-02  9.30038e-02        00000 
-4.00266e-02  9.06212e-02        00000 
-4.12142e-02  8.83547e-02        00000 
-4.18333e-02  8.57948e-02        00000 
-4.20296e-02  8.32680e-02        00000 
-4.19324e-02  8.08304e-02        00000 
-4.14527e-02  7.84430e-02        00000 
-4.07050e-02  7.61107e-02        00000 
-3.95757e-02  7.37562e-02        00000 
-3.81395e-02  7.13327e-02        00000 
-3.64404e-02  6.88311e-02        00000 
-3.45395e-02  6.62230e-02        00000 
-3.25127e-02  6.34673e-02        00000 
-3.04367e-02  6.05645e-02        00000 
-2.83610e-02  5.75126e-02        00000 
-2.64131e-02  5.44758e-02        00000 
-2.46214e-02  5.13837e-02        00000 
-2.30305e-02  4.83191e-02        00000 
-2.16951e-02  4.53012e-02        00000 
-2.05361e-02  4.23148e-02        00000 
-1.94991e-02  3.93399e-02        00000 
-1.85373e-02  3.63502e-02        00000 
-1.76044e-02  3.33680e-02        00000 
-1.67064e-02  3.04645e-02        00000 
-1.58836e-02  2.77007e-02        00000 
-1.51050e-02  2.50857e-02        00000 
-1.43259e-02  2.25983e-02        00000 
-1.35025e-02  2.01992e-02        00000 
-1.25722e-02  1.78340e-02        00000 
-1.14994e-02  1.54748e-02        00000 
-1.02485e-02  1.30926e-02        00000 
-8.78281e-03  1.06588e-02        00000 
-7.06385e-03  8.14789e-03        00000 
-5.05208e-03  5.53991e-03        00000 
-2.70887e-03  2.82385e-03        00000 
 3.10439e-19 -2.99530e-19        00000 
-1.94229e-18  1.63265e-01        00000 
-4.93694e-03  1.58206e-01        00000 
-9.35018e-03  1.53290e-01        00000 
-1.33188e-02  1.48536e-01        00000 
-1.69189e-02  1.43950e-01        00000 
-2.02190e-02  1.39533e-01        00000 
-2.32770e-02  1.35278e-01        00000 
-2.61371e-02  1.31176e-01        00000 
-2.88327e-02  1.27216e-01        00000 
-3.13798e-02  1.23390e-01        00000 
-3.38533e-02  1.19752e-01        00000 
-3.63140e-02  1.16354e-01        00000 
-3.88779e-02  1.13169e-01        00000 
-4.11785e-02  1.10070e-01        00000 
-4.30813e-02  1.06915e-01        00000 
-4.46331e-02  1.03804e-01        00000 
-4.57606e-02  1.00613e-01        00000 
-4.65103e-02  9.75387e-02        00000 
-4.69207e-02  9.46005e-02        00000 
-4.69518e-02  9.17900e-02        00000 
-4.65715e-02  8.90265e-02        00000 
-4.58528e-02  8.63841e-02        00000 
-4.46208e-02  8.36717e-02        00000 
-4.29425e-02  8.08501e-02        00000 
-4.09116e-02  7.78963e-02        00000 
-3.86143e-02  7.47499e-02        00000 
-3.61513e-02  7.13978e-02        00000 
-3.35987e-02  6.78085e-02        00000 
-3.10505e-02  6.40475e-02        00000 
-2.87068e-02  6.03699e-02        00000 
-2.65396e-02  5.66176e-02        00000 
-2.47012e-02  5.30184e-02        00000 
-2.31082e-02  4.94590e-02        00000 
-2.18114e-02  4.60608e-02        00000 
-2.07535e-02  4.28012e-02        00000 
-1.98454e-02  3.96320e-02        00000 
-1.90165e-02  3.65098e-02        00000 
-1.82071e-02  3.34229e-02        00000 
-1.73821e-02  3.03752e-02        00000 
-1.64783e-02  2.73831e-02        00000 
-1.56097e-02  2.45863e-02        00000 
-1.46944e-02  2.19133e-02        00000 
-1.36744e-02  1.93125e-02        00000 
-1.24883e-02  1.67245e-02        00000 
-1.10993e-02  1.41183e-02        00000 
-9.47365e-03  1.14654e-02        00000 
-7.57881e-03  8.74154e-03        00000 
-5.38463e-03  5.92795e-03        00000 
-2.86493e-03  3.01426e-03        00000 
-1.04957e-19 -2.03078e-19        00000 
 5.43423e-19  1.83673e-01        00000 
-5.12226e-03  1.78313e-01        00000 
-9.76952e-03  1.73067e-01        00000 
-1.40097e-02  1.67954e-01        00000 
-1.79076e-02  1.62983e-01        00000 
-2.15230e-02  1.58157e-01        00000 
-2.49058e-02  1.53475e-01        00000 
-2.80999e-02  1.48937e-01        00000 
-3.10838e-02  1.44498e-01        00000 
-3.39808e-02  1.40194e-01        00000 
-3.67909e-02  1.36026e-01        00000 
-3.96199e-02  1.32049e-01        00000 
-4.24578e-02  1.28342e-01        00000 
-4.49141e-02  1.24453e-01        00000 
-4.70455e-02  1.20635e-01        00000 
-4.87545e-02  1.16836e-01        00000 
-5.01571e-02  1.13203e-01        00000 
-5.12742e-02  1.09762e-01        00000 
-5.20213e-02  1.06500e-01        00000 
-5.22757e-02  1.03375e-01        00000 
-5.20470e-02  1.00285e-01        00000 
-5.13043e-02  9.72947e-02        00000 
-4.99349e-02  9.41796e-02        00000 
-4.79687e-02  9.09004e-02        00000 
-4.55298e-02  8.73940e-02        00000 
-4.27479e-02  8.36273e-02        00000 
-3.97617e-02  7.95750e-02        00000 
-3.66833e-02  7.52596e-02        00000 
-3.36626e-02  7.07575e-02        00000 
-3.08935e-02  6.63254e-02        00000 
-2.83638e-02  6.18386e-02        00000 
-2.62310e-02  5.75553e-02        00000 
-2.43451e-02  5.33234e-02        00000 
-2.28261e-02  4.93364e-02        00000 
-2.16469e-02  4.56204e-02        00000 
-2.07215e-02  4.21523e-02        00000 
-1.99749e-02  3.88942e-02        00000 
-1.94027e-02  3.58195e-02        00000 
-1.86524e-02  3.26237e-02        00000 
-1.77975e-02  2.94565e-02        00000 
-1.68160e-02  2.63332e-02        00000 
-1.58095e-02  2.33990e-02        00000 
-1.46927e-02  2.05717e-02        00000 
-1.34068e-02  1.77928e-02        00000 
-1.18938e-02  1.50005e-02        00000 
-1.01219e-02  1.21648e-02        00000 
-8.06475e-03  9.26148e-03        00000 