<?xml version="1.0" encoding="utf-8"?>
<VTKFile byte_order="LittleEndian" type="UnstructuredGrid" version="0.1">
   <UnstructuredGrid>
      <Piece NumberOfCells="9604" NumberOfPoints="4901">
         <Points>
            <DataArray Name="Points" NumberOfComponents="3" format="ascii" type="Float32">
-1.0000 -1.0000 0.0000
-1.0000 -0.9592 0.0000
-1.0000 -0.9184 0.0000
-1.0000 -0.8776 0.0000
-1.0000 -0.8367 0.0000
-1.0000 -0.7959 0.0000
-1.0000 -0.7551 0.0000
-1.0000 -0.7143 0.0000
-1.0000 -0.6735 0.0000
-1.0000 -0.6327 0.0000
-1.0000 -0.5918 0.0000
-1.0000 -0.5510 0.0000
-1.0000 -0.5102 0.0000
-1.0000 -0.4694 0.0000
-1.0000 -0.4286 0.0000
-1.0000 -0.3878 0.0000
-1.0000 -0.3469 0.0000
-1.0000 -0.3061 0.0000
-1.0000 -0.2653 0.0000
-1.0000 -0.2245 0.0000
-1.0000 -0.1837 0.0000
-1.0000 -0.1429 0.0000
-1.0000 -0.1020 0.0000
-1.0000 -0.0612 0.0000
-1.0000 -0.0204 0.0000
-1.0000 0.0204 0.0000
-1.0000 0.0612 0.0000
-1.0000 0.1020 0.0000
-1.0000 0.1429 0.0000
-1.0000 0.1837 0.0000
-1.0000 0.2245 0.0000
-1.0000 0.2653 0.0000
-1.0000 0.3061 0.0000
-1.0000 0.3469 0.0000
-1.0000 0.3878 0.0000
-1.0000 0.4286 0.0000
-1.0000 0.4694 0.0000
-1.0000 0.5102 0.0000
-1.0000 0.5510 0.0000
-1.0000 0.5918 0.0000
-1.0000 0.6327 0.0000
-1.0000 0.6735 0.0000
-1.0000 0.7143 0.0000
-1.0000 0.7551 0.0000
-1.0000 0.7959 0.0000
-1.0000 0.8367 0.0000
-1.0000 0.8776 0.0000
-1.0000 0.9184 0.0000
-1.0000 0.9592 0.0000
-1.0000 1.0000 0.0000
-0.9592 -1.0000 0.0000
-0.9592 -0.9592 0.0000
-0.9592 -0.9184 0.0000
-0.9592 -0.8776 0.0000
-0.9592 -0.8367 0.0000
-0.9592 -0.7959 0.0000
-0.9592 -0.7551 0.0000
-0.9592 -0.7143 0.0000
-0.9592 -0.6735 0.0000
-0.9592 -0.6327 0.0000
-0.9592 -0.5918 0.0000
-0.9592 -0.5510 0.0000
-0.9592 -0.5102 0.0000
-0.9592 -0.4694 0.0000
-0.9592 -0.4286 0.0000
-0.9592 -0.3878 0.0000
-0.9592 -0.3469 0.0000
-0.9592 -0.3061 0.0000
-0.9592 -0.2653 0.0000
-0.9592 -0.2245 0.0000
-0.9592 -0.1837 0.0000
-0.9592 -0.1429 0.0000
-0.9592 -0.1020 0.0000
-0.9592 -0.0612 0.0000
-0.9592 -0.0204 0.0000
-0.9592 0.0204 0.0000
-0.9592 0.0612 0.0000
-0.9592 0.1020 0.0000
-0.9592 0.1429 0.0000
-0.9592 0.1837 0.0000
-0.9592 0.2245 0.0000
-0.9592 0.2653 0.0000
-0.9592 0.3061 0.0000
-0.9592 0.3469 0.0000
-0.9592 0.3878 0.0000
-0.9592 0.4286 0.0000
-0.9592 0.4694 0.0000
-0.9592 0.5102 0.0000
-0.9592 0.5510 0.0000
-0.9592 0.5918 0.0000
-0.9592 0.6327 0.0000
-0.9592 0.6735 0.0000
-0.9592 0.7143 0.0000
-0.9592 0.7551 0.0000
-0.9592 0.7959 0.0000
-0.9592 0.8367 0.0000
-0.9592 0.8776 0.0000
-0.9592 0.9184 0.0000
-0.9592 0.9592 0.0000
-0.9592 1.0000 0.0000
-0.9184 -1.0000 0.0000
-0.9184 -0.9592 0.0000
-0.9184 -0.9184 0.0000
-0.9184 -0.8776 0.0000
-0.9184 -0.8367 0.0000
-0.9184 -0.7959 0.0000
-0.9184 -0.7551 0.0000
-0.9184 -0.7143 0.0000
-0.9184 -0.6735 0.0000
-0.9184 -0.6327 0.0000
-0.9184 -0.5918 0.0000
-0.9184 -0.5510 0.0000
-0.9184 -0.5102 0.0000
-0.9184 -0.4694 0.0000
-0.9184 -0.4286 0.0000
-0.9184 -0.3878 0.0000
-0.9184 -0.3469 0.0000
-0.9184 -0.3061 0.0000
-0.9184 -0.2653 0.0000
-0.9184 -0.2245 0.0000
-0.9184 -0.1837 0.0000
-0.9184 -0.1429 0.0000
-0.9184 -0.1020 0.0000
-0.9184 -0.0612 0.0000
-0.9184 -0.0204 0.0000
-0.9184 0.0204 0.0000
-0.9184 0.0612 0.0000
-0.9184 0.1020 0.0000
-0.9184 0.1429 0.0000
-0.9184 0.1837 0.0000
-0.9184 0.2245 0.0000
-0.9184 0.2653 0.0000
-0.9184 0.3061 0.0000
-0.9184 0.3469 0.0000
-0.9184 0.3878 0.0000
-0.9184 0.4286 0.0000
-0.9184 0.4694 0.0000
-0.9184 0.5102 0.0000
-0.9184 0.5510 0.0000
-0.9184 0.5918 0.0000
-0.9184 0.6327 0.0000
-0.9184 0.6735 0.0000
-0.9184 0.7143 0.0000
-0.9184 0.7551 0.0000
-0.9184 0.7959 0.0000
-0.9184 0.8367 0.0000
-0.9184 0.8776 0.0000
-0.9184 0.9184 0.0000
-0.9184 0.9592 0.0000
-0.9184 1.0000 0.0000
-0.8776 -1.0000 0.0000
-0.8776 -0.9592 0.0000
-0.8776 -0.9184 0.0000
-0.8776 -0.8776 0.0000
-0.8776 -0.8367 0.0000
-0.8776 -0.7959 0.0000
-0.8776 -0.7551 0.0000
-0.8776 -0.7143 0.0000
-0.8776 -0.6735 0.0000
-0.8776 -0.6327 0.0000
-0.8776 -0.5918 0.0000
-0.8776 -0.5510 0.0000
-0.8776 -0.5102 0.0000
-0.8776 -0.4694 0.0000
-0.8776 -0.4286 0.0000
-0.8776 -0.3878 0.0000
-0.8776 -0.3469 0.0000
-0.8776 -0.3061 0.0000
-0.8776 -0.2653 0.0000
-0.8776 -0.2245 0.0000
-0.8776 -0.1837 0.0000
-0.8776 -0.1429 0.0000
-0.8776 -0.1020 0.0000
-0.8776 -0.0612 0.0000
-0.8776 -0.0204 0.0000
-0.8776 0.0204 0.0000
-0.8776 0.0612 0.0000
-0.8776 0.1020 0.0000
-0.8776 0.1429 0.0000
-0.8776 0.1837 0.0000
-0.8776 0.2245 0.0000
-0.8776 0.2653 0.0000
-0.8776 0.3061 0.0000
-0.8776 0.3469 0.0000
-0.8776 0.3878 0.0000
-0.8776 0.4286 0.0000
-0.8776 0.4694 0.0000
-0.8776 0.5102 0.0000
-0.8776 0.5510 0.0000
-0.8776 0.5918 0.0000
-0.8776 0.6327 0.0000
-0.8776 0.6735 0.0000
-0.8776 0.7143 0.0000
-0.8776 0.7551 0.0000
-0.8776 0.7959 0.0000
-0.8776 0.8367 0.0000
-0.8776 0.8776 0.0000
-0.8776 0.9184 0.0000
-0.8776 0.9592 0.0000
-0.8776 1.0000 0.0000
-0.8367 -1.0000 0.0000
-0.8367 -0.9592 0.0000
-0.8367 -0.9184 0.0000
-0.8367 -0.8776 0.0000
-0.8367 -0.8367 0.0000
-0.8367 -0.7959 0.0000
-0.8367 -0.7551 0.0000
-0.8367 -0.7143 0.0000
-0.8367 -0.6735 0.0000
-0.8367 -0.6327 0.0000
-0.8367 -0.5918 0.0000
-0.8367 -0.5510 0.0000
-0.8367 -0.5102 0.0000
-0.8367 -0.4694 0.0000
-0.8367 -0.4286 0.0000
-0.8367 -0.3878 0.0000
-0.8367 -0.3469 0.0000
-0.8367 -0.3061 0.0000
-0.8367 -0.2653 0.0000
-0.8367 -0.2245 0.0000
-0.8367 -0.1837 0.0000
-0.8367 -0.1429 0.0000
-0.8367 -0.1020 0.0000
-0.8367 -0.0612 0.0000
-0.8367 -0.0204 0.0000
-0.8367 0.0204 0.0000
-0.8367 0.0612 0.0000
-0.8367 0.1020 0.0000
-0.8367 0.1429 0.0000
-0.8367 0.1837 0.0000
-0.8367 0.2245 0.0000
-0.8367 0.2653 0.0000
-0.8367 0.3061 0.0000
-0.8367 0.3469 0.0000
-0.8367 0.3878 0.0000
-0.8367 0.4286 0.0000
-0.8367 0.4694 0.0000
-0.8367 0.5102 0.0000
-0.8367 0.5510 0.0000
-0.8367 0.5918 0.0000
-0.8367 0.6327 0.0000
-0.8367 0.6735 0.0000
-0.8367 0.7143 0.0000
-0.8367 0.7551 0.0000
-0.8367 0.7959 0.0000
-0.8367 0.8367 0.0000
-0.8367 0.8776 0.0000
-0.8367 0.9184 0.0000
-0.8367 0.9592 0.0000
-0.8367 1.0000 0.0000
-0.7959 -1.0000 0.0000
-0.7959 -0.9592 0.0000
-0.7959 -0.9184 0.0000
-0.7959 -0.8776 0.0000
-0.7959 -0.8367 0.0000
-0.7959 -0.7959 0.0000
-0.7959 -0.7551 0.0000
-0.7959 -0.7143 0.0000
-0.7959 -0.6735 0.0000
-0.7959 -0.6327 0.0000
-0.7959 -0.5918 0.0000
-0.7959 -0.5510 0.0000
-0.7959 -0.5102 0.0000
-0.7959 -0.4694 0.0000
-0.7959 -0.4286 0.0000
-0.7959 -0.3878 0.0000
-0.7959 -0.3469 0.0000
-0.7959 -0.3061 0.0000
-0.7959 -0.2653 0.0000
-0.7959 -0.2245 0.0000
-0.7959 -0.1837 0.0000
-0.7959 -0.1429 0.0000
-0.7959 -0.1020 0.0000
-0.7959 -0.0612 0.0000
-0.7959 -0.0204 0.0000
-0.7959 0.0204 0.0000
-0.7959 0.0612 0.0000
-0.7959 0.1020 0.0000
-0.7959 0.1429 0.0000
-0.7959 0.1837 0.0000
-0.7959 0.2245 0.0000
-0.7959 0.2653 0.0000
-0.7959 0.3061 0.0000
-0.7959 0.3469 0.0000
-0.7959 0.3878 0.0000
-0.7959 0.4286 0.0000
-0.7959 0.4694 0.0000
-0.7959 0.5102 0.0000
-0.7959 0.5510 0.0000
-0.7959 0.5918 0.0000
-0.7959 0.6327 0.0000
-0.7959 0.6735 0.0000
-0.7959 0.7143 0.0000
-0.7959 0.7551 0.0000
-0.7959 0.7959 0.0000
-0.7959 0.8367 0.0000
-0.7959 0.8776 0.0000
-0.7959 0.9184 0.0000
-0.7959 0.9592 0.0000
-0.7959 1.0000 0.0000
-0.7551 -1.0000 0.0000
-0.7551 -0.9592 0.0000
-0.7551 -0.9184 0.0000
-0.7551 -0.8776 0.0000
-0.7551 -0.8367 0.0000
-0.7551 -0.7959 0.0000
-0.7551 -0.7551 0.0000
-0.7551 -0.7143 0.0000
-0.7551 -0.6735 0.0000
-0.7551 -0.6327 0.0000
-0.7551 -0.5918 0.0000
-0.7551 -0.5510 0.0000
-0.7551 -0.5102 0.0000
-0.7551 -0.4694 0.0000
-0.7551 -0.4286 0.0000
-0.7551 -0.3878 0.0000
-0.7551 -0.3469 0.0000
-0.7551 -0.3061 0.0000
-0.7551 -0.2653 0.0000
-0.7551 -0.2245 0.0000
-0.7551 -0.1837 0.0000
-0.7551 -0.1429 0.0000
-0.7551 -0.1020 0.0000
-0.7551 -0.0612 0.0000
-0.7551 -0.0204 0.0000
-0.7551 0.0204 0.0000
-0.7551 0.0612 0.0000
-0.7551 0.1020 0.0000
-0.7551 0.1429 0.0000
-0.7551 0.1837 0.0000
-0.7551 0.2245 0.0000
-0.7551 0.2653 0.0000
-0.7551 0.3061 0.0000
-0.7551 0.3469 0.0000
-0.7551 0.3878 0.0000
-0.7551 0.4286 0.0000
-0.7551 0.4694 0.0000
-0.7551 0.5102 0.0000
-0.7551 0.5510 0.0000
-0.7551 0.5918 0.0000
-0.7551 0.6327 0.0000
-0.7551 0.6735 0.0000
-0.7551 0.7143 0.0000
-0.7551 0.7551 0.0000
-0.7551 0.7959 0.0000
-0.7551 0.8367 0.0000
-0.7551 0.8776 0.0000
-0.7551 0.9184 0.0000
-0.7551 0.9592 0.0000
-0.7551 1.0000 0.0000
-0.7143 -1.0000 0.0000
-0.7143 -0.9592 0.0000
-0.7143 -0.9184 0.0000
-0.7143 -0.8776 0.0000
-0.7143 -0.8367 0.0000
-0.7143 -0.7959 0.0000
-0.7143 -0.7551 0.0000
-0.7143 -0.7143 0.0000
-0.7143 -0.6735 0.0000
-0.7143 -0.6327 0.0000
-0.7143 -0.5918 0.0000
-0.7143 -0.5510 0.0000
-0.7143 -0.5102 0.0000
-0.7143 -0.4694 0.0000
-0.7143 -0.4286 0.0000
-0.7143 -0.3878 0.0000
-0.7143 -0.3469 0.0000
-0.7143 -0.3061 0.0000
-0.7143 -0.2653 0.0000
-0.7143 -0.2245 0.0000
-0.7143 -0.1837 0.0000
-0.7143 -0.1429 0.0000
-0.7143 -0.1020 0.0000
-0.7143 -0.0612 0.0000
-0.7143 -0.0204 0.0000
-0.7143 0.0204 0.0000
-0.7143 0.0612 0.0000
-0.7143 0.1020 0.0000
-0.7143 0.1429 0.0000
-0.7143 0.1837 0.0000
-0.7143 0.2245 0.0000
-0.7143 0.2653 0.0000
-0.7143 0.3061 0.0000
-0.7143 0.3469 0.0000
-0.7143 0.3878 0.0000
-0.7143 0.4286 0.0000
-0.7143 0.4694 0.0000
-0.7143 0.5102 0.0000
-0.7143 0.5510 0.0000
-0.7143 0.5918 0.0000
-0.7143 0.6327 0.0000
-0.7143 0.6735 0.0000
-0.7143 0.7143 0.0000
-0.7143 0.7551 0.0000
-0.7143 0.7959 0.0000
-0.7143 0.8367 0.0000
-0.7143 0.8776 0.0000
-0.7143 0.9184 0.0000
-0.7143 0.9592 0.0000
-0.7143 1.0000 0.0000
-0.6735 -1.0000 0.0000
-0.6735 -0.9592 0.0000
-0.6735 -0.9184 0.0000
-0.6735 -0.8776 0.0000
-0.6735 -0.8367 0.0000
-0.6735 -0.7959 0.0000
-0.6735 -0.7551 0.0000
-0.6735 -0.7143 0.0000
-0.6735 -0.6735 0.0000
-0.6735 -0.6327 0.0000
-0.6735 -0.5918 0.0000
-0.6735 -0.5510 0.0000
-0.6735 -0.5102 0.0000
-0.6735 -0.4694 0.0000
-0.6735 -0.4286 0.0000
-0.6735 -0.3878 0.0000
-0.6735 -0.3469 0.0000
-0.6735 -0.3061 0.0000
-0.6735 -0.2653 0.0000
-0.6735 -0.2245 0.0000
-0.6735 -0.1837 0.0000
-0.6735 -0.1429 0.0000
-0.6735 -0.1020 0.0000
-0.6735 -0.0612 0.0000
-0.6735 -0.0204 0.0000
-0.6735 0.0204 0.0000
-0.6735 0.0612 0.0000
-0.6735 0.1020 0.0000
-0.6735 0.1429 0.0000
-0.6735 0.1837 0.0000
[...]
         <PointData>
            <DataArray Name="fValues" NumberOfComponents="3" format="ascii" type="Float64">
-5.84789e-03 -1.10443e-02        00000 
-5.99176e-03 -8.75271e-03        00000 
-6.97411e-03 -6.11764e-03        00000 
-7.18981e-03 -4.65405e-03        00000 
-6.71811e-03 -4.49028e-03        00000 
-6.17276e-03 -4.27817e-03        00000 
-5.52799e-03 -4.18030e-03        00000 
-4.96837e-03 -4.37410e-03        00000 
-4.19615e-03 -4.22783e-03        00000 
-3.41943e-03 -3.60368e-03        00000 
-2.42718e-03 -2.64943e-03        00000 
-1.34750e-03 -1.69866e-03        00000 
-3.49309e-04 -1.10350e-03        00000 
 4.75926e-04 -4.89858e-04        00000 
 3.74752e-04 -3.95116e-04        00000 
-1.14203e-04 -4.38340e-04        00000 
-1.00298e-03 -5.51884e-04        00000 
-6.00150e-04 -2.70104e-04        00000 
 6.36485e-04  9.48270e-04        00000 
 1.40206e-03  1.66473e-03        00000 
 1.46037e-03  1.64052e-03        00000 
 1.18755e-03  1.63087e-03        00000 
 1.71928e-03  2.06591e-03        00000 
 2.41415e-03  2.13872e-03        00000 
 2.69262e-03  2.08432e-03        00000 
 2.15285e-03  1.78681e-03        00000 
 1.53277e-03  1.46688e-03        00000 
 8.31828e-04  1.12295e-03        00000 
 1.29682e-04  6.99024e-04        00000 
-6.44967e-04  8.02035e-05        00000 
-9.65529e-04 -3.30805e-04        00000 
-1.08382e-03 -6.66933e-04        00000 
-2.79400e-04 -6.22643e-04        00000 
 1.95980e-03 -2.46652e-05        00000 
 3.26348e-03  5.82121e-04        00000 
 2.92774e-03  2.47206e-04        00000 
 2.18322e-03 -8.90615e-04        00000 
 1.78286e-03 -1.39595e-03        00000 
 1.74607e-03 -1.46991e-03        00000 
 8.08894e-04 -1.35911e-03        00000 
-1.12492e-03 -1.48451e-03        00000 
-3.05322e-03 -1.13685e-03        00000 
-2.44778e-03  4.19967e-04        00000 
 2.25446e-05  2.80885e-03        00000 
-9.89506e-04  2.77349e-03        00000 
-9.54067e-04  2.15344e-03        00000 
-1.96230e-04  1.79548e-03        00000 
 2.57099e-03 -8.11927e-04        00000 
 3.41014e-03 -3.34230e-03        00000 
 5.12988e-04 -5.74306e-03        00000 
-5.54277e-04 -7.01966e-03        00000 
 2.65927e-04 -3.52308e-03        00000 
-5.06185e-04 -7.74980e-04        00000 
 4.39223e-04  1.30113e-03        00000 
 1.96881e-03  2.01804e-03        00000 
 2.22360e-03  2.02542e-03        00000 
 2.25853e-03  1.55750e-03        00000 
 2.91704e-03  1.05578e-03        00000 
 4.38856e-03  1.51112e-03        00000 
 5.72821e-03  2.31303e-03        00000 
 6.42034e-03  3.64761e-03        00000 
 6.48600e-03  4.43933e-03        00000 
 6.59455e-03  4.85949e-03        00000 
 6.96402e-03  5.29297e-03        00000 
 6.25239e-03  5.33568e-03        00000 
 5.89322e-03  5.04063e-03        00000 
 6.06947e-03  5.07511e-03        00000 
 6.31349e-03  5.07682e-03        00000 
 7.08574e-03  5.21118e-03        00000 
 7.82801e-03  5.71724e-03        00000 
 8.59300e-03  6.31609e-03        00000 
 9.45472e-03  6.98470e-03        00000 
 1.02075e-02  7.60143e-03        00000 
 1.06448e-02  7.80426e-03        00000 
 1.10383e-02  7.52278e-03        00000 
 1.11467e-02  7.32724e-03        00000 
 1.10001e-02  7.15375e-03        00000 
 1.07316e-02  6.92978e-03        00000 
 1.12424e-02  6.89729e-03        00000 
 1.20417e-02  7.18232e-03        00000 
 1.16481e-02  6.81870e-03        00000 
 1.16808e-02  6.59559e-03        00000 
 1.21284e-02  6.79411e-03        00000 
 1.22986e-02  6.91184e-03        00000 
 1.19192e-02  6.78462e-03        00000 
 1.30976e-02  6.67694e-03        00000 
 1.46432e-02  6.65869e-03        00000 
 1.54489e-02  6.61997e-03        00000 
 1.71732e-02  6.23658e-03        00000 
 1.73469e-02  5.06909e-03        00000 
 1.54906e-02  3.94626e-03        00000 
 1.49653e-02  4.49351e-03        00000 
 1.63866e-02  6.82887e-03        00000 
 1.55311e-02  7.62009e-03        00000 
 1.37424e-02  7.03314e-03        00000 
 1.45139e-02  6.27535e-03        00000 
 1.84750e-02  5.51001e-03        00000 
 2.02863e-02  4.52318e-03        00000 
 1.87895e-02  3.44475e-03        00000 
 1.68392e-02  1.15470e-03        00000 
 2.07593e-03 -4.30797e-03        00000 
 4.13420e-03 -5.64255e-04        00000 
 3.59130e-03  2.26476e-03        00000 
 5.28975e-03  4.33581e-03        00000 
 7.08503e-03  5.29485e-03        00000 
 7.37835e-03  5.84916e-03        00000 
 7.04327e-03  5.59883e-03        00000 
 6.86188e-03  5.03160e-03        00000 
 7.50943e-03  5.50031e-03        00000 
 7.87620e-03  6.09316e-03        00000 
 8.35236e-03  6.93977e-03        00000 
 9.07617e-03  8.03611e-03        00000 
 9.68880e-03  8.96206e-03        00000 
 1.03497e-02  9.43306e-03        00000 
 1.11280e-02  1.00127e-02        00000 
 1.21644e-02  1.06866e-02        00000 
 1.24171e-02  1.04766e-02        00000 
 1.24833e-02  1.00705e-02        00000 
 1.29410e-02  9.88334e-03        00000 
 1.34232e-02  9.57863e-03        00000 
 1.39476e-02  9.77434e-03        00000 
 1.47321e-02  1.03651e-02        00000 
 1.56259e-02  1.10385e-02        00000 
 1.64663e-02  1.16806e-02        00000 
 1.71737e-02  1.22627e-02        00000 
 1.77700e-02  1.27066e-02        00000 
 1.82341e-02  1.26138e-02        00000 
 1.85387e-02  1.23435e-02        00000 
 1.87911e-02  1.20417e-02        00000 
 1.95030e-02  1.20597e-02        00000 
 2.06238e-02  1.26159e-02        00000 
 2.07748e-02  1.27528e-02        00000 
 2.09525e-02  1.29450e-02        00000 
 2.29627e-02  1.34125e-02        00000 
 2.48386e-02  1.37566e-02        00000 
 2.68437e-02  1.39033e-02        00000 
 2.93062e-02  1.32083e-02        00000 
 3.08046e-02  1.29169e-02        00000 
 3.21932e-02  1.23073e-02        00000 
 3.21458e-02  1.11352e-02        00000 
 3.13950e-02  1.02314e-02        00000 
 3.22222e-02  1.12618e-02        00000 
 3.26656e-02  1.18560e-02        00000 
 3.15759e-02  1.13038e-02        00000 
 3.09370e-02  1.06662e-02        00000 
 3.20281e-02  9.98144e-03        00000 
 3.36153e-02  9.02477e-03        00000 
 3.44278e-02  8.11008e-03        00000 
 3.77478e-02  5.86057e-03        00000 
 4.17048e-02  2.20885e-03        00000 
 2.21302e-03 -3.11743e-03        00000 
 6.10231e-03  1.88631e-03        00000 
 5.19404e-03  4.47463e-03        00000 
 6.93420e-03  6.55737e-03        00000 
 8.15698e-03  7.48099e-03        00000 
 8.60977e-03  8.11522e-03        00000 
 8.92055e-03  8.53426e-03        00000 
 9.04604e-03  8.21507e-03        00000 
 9.10011e-03  8.47368e-03        00000 
 1.05332e-02  9.44430e-03        00000 
 1.21770e-02  1.04497e-02        00000 
 1.32268e-02  1.13065e-02        00000 
 1.33650e-02  1.24079e-02        00000 
 1.49221e-02  1.37969e-02        00000 
 1.54297e-02  1.45312e-02        00000 
 1.57984e-02  1.49333e-02        00000 
 1.67953e-02  1.54861e-02        00000 
 1.70425e-02  1.51079e-02        00000 
 1.77847e-02  1.45416e-02        00000 
 1.84418e-02  1.37587e-02        00000 
 1.85984e-02  1.32363e-02        00000 
 1.94962e-02  1.36442e-02        00000 
 2.10354e-02  1.46136e-02        00000 
 2.26520e-02  1.55506e-02        00000 
 2.41025e-02  1.64236e-02        00000 
 2.50119e-02  1.71324e-02        00000 
 2.61393e-02  1.78510e-02        00000 
 2.68730e-02  1.79838e-02        00000 
 2.72982e-02  1.77725e-02        00000 
 2.77220e-02  1.75368e-02        00000 
 2.90093e-02  1.80401e-02        00000 
 3.18409e-02  1.90588e-02        00000 
 3.38395e-02  1.95513e-02        00000 
 3.47500e-02  1.95713e-02        00000 
 3.66073e-02  1.93342e-02        00000 
 3.96005e-02  1.89404e-02        00000 
 4.17513e-02  1.80201e-02        00000 
 4.42230e-02  1.78405e-02        00000 
 4.64462e-02  1.77282e-02        00000 
 4.56472e-02  1.66603e-02        00000 
 4.73453e-02  1.68554e-02        00000 
 4.91969e-02  1.72133e-02        00000 
 4.82103e-02  1.66793e-02        00000 
 4.78163e-02  1.49859e-02        00000 
 4.96341e-02  1.46003e-02        00000 
 5.24222e-02  1.24973e-02        00000 
 5.45917e-02  1.00545e-02        00000 
 5.71935e-02  8.01550e-03        00000 
 6.00089e-02  5.33480e-03        00000 
 6.28974e-02  2.43583e-03        00000 
 1.39217e-03 -2.61796e-03        00000 
 5.35630e-03  2.61889e-03        00000 
 6.54918e-03  6.39089e-03        00000 
 7.28534e-03  7.93842e-03        00000 
 9.36387e-03  9.43204e-03        00000 
 1.01474e-02  1.02316e-02        00000 
 1.05319e-02  1.07041e-02        00000 
 1.09015e-02  1.10848e-02        00000 
 1.20232e-02  1.17464e-02        00000 
 1.43517e-02  1.30904e-02        00000 
 1.60476e-02  1.40941e-02        00000 
 1.63388e-02  1.48074e-02        00000 
 1.69317e-02  1.56325e-02        00000 
 1.78670e-02  1.67204e-02        00000 
 1.93356e-02  1.79246e-02        00000 
 1.94582e-02  1.86275e-02        00000 
 2.01431e-02  1.95288e-02        00000 
 2.02988e-02  1.98053e-02        00000 
 2.03238e-02  1.92360e-02        00000 
 1.99003e-02  1.83789e-02        00000 
 2.12505e-02  1.79555e-02        00000 
 2.43669e-02  1.78610e-02        00000 
 2.75423e-02  1.86097e-02        00000 
 2.94065e-02  1.94662e-02        00000 
 3.06991e-02  2.02954e-02        00000 
 3.16935e-02  2.10299e-02        00000 
 3.29003e-02  2.17514e-02        00000 
 3.44775e-02  2.24071e-02        00000 
 3.62762e-02  2.29097e-02        00000 
 3.78512e-02  2.30330e-02        00000 
 4.05372e-02  2.39033e-02        00000 
 4.32330e-02  2.48289e-02        00000 
 4.53949e-02  2.53038e-02        00000 
 4.59278e-02  2.49020e-02        00000 
 4.77889e-02  2.45162e-02        00000 
 5.07895e-02  2.43342e-02        00000 
 5.29738e-02  2.33350e-02        00000 
 5.62893e-02  2.27004e-02        00000 
 5.94513e-02  2.23875e-02        00000 
 6.04330e-02  2.22892e-02        00000 
 6.21199e-02  2.19671e-02        00000 
 6.49144e-02  2.20068e-02        00000 
 6.66553e-02  2.17518e-02        00000 
 6.82419e-02  1.81656e-02        00000 
 7.17982e-02  1.51411e-02        00000 
 7.38318e-02  1.27845e-02        00000 
 7.50551e-02  1.03817e-02        00000 
 7.78494e-02  8.08104e-03        00000 
 8.11894e-02  5.62581e-03        00000 
 8.51625e-02  2.91979e-03        00000 
 2.01604e-04 -2.51449e-03        00000 
 4.50597e-03  3.01469e-03        00000 
 7.37103e-03  7.59045e-03        00000 
 7.78109e-03  8.91757e-03        00000 
 9.74683e-03  1.05683e-02        00000 
 1.13088e-02  1.19496e-02        00000 
 1.19604e-02  1.28660e-02        00000 
 1.33793e-02  1.36375e-02        00000 
 1.53463e-02  1.46831e-02        00000 
 1.81612e-02  1.64614e-02        00000 
 1.91755e-02  1.72624e-02        00000 
 1.87908e-02  1.77736e-02        00000 
 1.93784e-02  1.86881e-02        00000 
 2.01020e-02  1.95497e-02        00000 
 2.06779e-02  2.03522e-02        00000 
 2.12151e-02  2.13851e-02        00000 
 2.18744e-02  2.23718e-02        00000 
 2.26222e-02  2.33767e-02        00000 
 2.46461e-02  2.44450e-02        00000 
 2.58203e-02  2.41102e-02        00000 
 2.68583e-02  2.35240e-02        00000 
 2.80163e-02  2.29823e-02        00000 
 3.08274e-02  2.28966e-02        00000 
 3.56554e-02  2.34389e-02        00000 
 3.81342e-02  2.40500e-02        00000 
 3.98990e-02  2.48230e-02        00000 
 4.16586e-02  2.56049e-02        00000 
 4.36538e-02  2.64370e-02        00000 
 4.55342e-02  2.70825e-02        00000 
 4.77985e-02  2.78953e-02        00000 
 5.00217e-02  2.83775e-02        00000 
 5.22002e-02  2.85149e-02        00000 
 5.64010e-02  2.89881e-02        00000 
 5.99300e-02  2.95769e-02        00000 
 6.16888e-02  2.98158e-02        00000 
 6.30018e-02  2.91468e-02        00000 
 6.52093e-02  2.80343e-02        00000 
 6.97610e-02  2.73587e-02        00000 
 7.33020e-02  2.72397e-02        00000 
 7.51960e-02  2.73648e-02        00000 
 7.59014e-02  2.74751e-02        00000 
 8.28278e-02  2.59516e-02        00000 
 8.66313e-02  2.36020e-02        00000 
 9.03061e-02  2.00854e-02        00000 
 9.15287e-02  1.66147e-02        00000 
 9.29580e-02  1.38047e-02        00000 
 9.56771e-02  1.03254e-02        00000 
 9.86880e-02  8.14398e-03        00000 
 1.02580e-01  5.82802e-03        00000 
 1.06599e-01  2.91734e-03        00000 
-1.57106e-03 -2.86512e-03        00000 
 3.01327e-03  3.14009e-03        00000 
 7.15417e-03  7.84803e-03        00000 
 7.92309e-03  9.45258e-03        00000 
 1.02140e-02  1.13030e-02        00000 
 1.16170e-02  1.26836e-02        00000 
 1.29217e-02  1.42762e-02        00000 
 1.49985e-02  1.56839e-02        00000 
 1.88159e-02  1.75788e-02        00000 
 2.09943e-02  1.88320e-02        00000 
 2.02820e-02  1.95620e-02        00000 
 1.93903e-02  2.00003e-02        00000 
 1.95179e-02  2.07331e-02        00000 
 1.99045e-02  2.15385e-02        00000 
 2.07058e-02  2.25342e-02        00000 
 2.34100e-02  2.41955e-02        00000 
 2.45443e-02  2.51869e-02        00000 
 2.60845e-02  2.62656e-02        00000 
 2.84069e-02  2.73584e-02        00000 
 3.08497e-02  2.81373e-02        00000 
 3.29797e-02  2.85384e-02        00000 
 3.40785e-02  2.79800e-02        00000 
 3.45866e-02  2.72520e-02        00000 
 3.68935e-02  2.71260e-02        00000 
 4.15619e-02  2.76072e-02        00000 
 4.60029e-02  2.82255e-02        00000 
 4.94163e-02  2.89998e-02        00000 
 5.18015e-02  2.99587e-02        00000 
 5.53763e-02  3.11801e-02        00000 
 5.76696e-02  3.16125e-02        00000 
 6.02445e-02  3.16287e-02        00000 
 6.44162e-02  3.20311e-02        00000 
 6.85215e-02  3.25135e-02        00000 
 7.26247e-02  3.30355e-02        00000 
 7.60043e-02  3.32805e-02        00000 
 7.89654e-02  3.36065e-02        00000 
 8.17938e-02  3.32465e-02        00000 
 8.65655e-02  3.28516e-02        00000 
 8.82341e-02  3.24713e-02        00000 
 9.12748e-02  3.13584e-02        00000 
 9.65181e-02  2.97212e-02        00000 
 1.00448e-01  2.81040e-02        00000 
 1.02636e-01  2.51456e-02        00000 
 1.06748e-01  2.15046e-02        00000 
 1.10090e-01  1.73638e-02        00000 
 1.12317e-01  1.37648e-02        00000 
 1.14652e-01  1.12785e-02        00000 
 1.17661e-01  8.47033e-03        00000 
 1.21842e-01  6.14152e-03        00000 
 1.25857e-01  2.61205e-03        00000 
-1.59929e-03 -2.64309e-03        00000 
 2.12366e-03  3.32021e-03        00000 
 6.77733e-03  7.78556e-03        00000 
 8.73565e-03  1.00618e-02        00000 
 1.05277e-02  1.17993e-02        00000 
 1.22229e-02  1.33446e-02        00000 
 1.49262e-02  1.55865e-02        00000 
 1.82968e-02  1.78729e-02        00000 
 2.24761e-02  1.99626e-02        00000 
 2.50266e-02  2.11415e-02        00000 
 2.45764e-02  2.21649e-02        00000 
 2.37854e-02  2.29469e-02        00000 
 2.38492e-02  2.36384e-02        00000 
 2.41312e-02  2.43001e-02        00000 
 2.50342e-02  2.52855e-02        00000 
 2.74560e-02  2.69950e-02        00000 
 2.89386e-02  2.78899e-02        00000 
 3.03538e-02  2.91564e-02        00000 
 3.25508e-02  2.99130e-02        00000 
 3.49284e-02  3.06846e-02        00000 
 3.73589e-02  3.14392e-02        00000 
 3.87659e-02  3.17227e-02        00000 
 3.98549e-02  3.15572e-02        00000 
 4.13148e-02  3.10935e-02        00000 
 4.39616e-02  3.09535e-02        00000 
 4.78607e-02  3.13795e-02        00000 
 5.44333e-02  3.24408e-02        00000 
 6.10193e-02  3.36936e-02        00000 
 6.56870e-02  3.48189e-02        00000 
 6.81593e-02  3.52002e-02        00000 
 7.26435e-02  3.54510e-02        00000 
 7.69711e-02  3.56418e-02        00000 
 8.10302e-02  3.60551e-02        00000 
 8.53256e-02  3.65658e-02        00000 
 8.83167e-02  3.66336e-02        00000 
 9.23582e-02  3.66511e-02        00000 
 9.68205e-02  3.66720e-02        00000 
 1.01236e-01  3.69139e-02        00000 
 1.06425e-01  3.51344e-02        00000 
 1.11095e-01  3.36240e-02        00000 
 1.14091e-01  3.20092e-02        00000 
 1.15252e-01  2.99553e-02        00000 
 1.18304e-01  2.62526e-02        00000 
 1.23255e-01  2.17583e-02        00000 
 1.27721e-01  1.76555e-02        00000 
 1.29217e-01  1.47219e-02        00000 
 1.31942e-01  1.20044e-02        00000 
 1.36336e-01  9.24212e-03        00000 
 1.41418e-01  6.21503e-03        00000 
 1.46079e-01  2.15479e-03        00000 
 2.41573e-04 -2.30303e-03        00000 
 2.12623e-03  3.41490e-03        00000 
 7.01224e-03  7.72540e-03        00000 
 1.02747e-02  1.06374e-02        00000 
 1.13677e-02  1.22088e-02        00000 
 1.46711e-02  1.46378e-02        00000 
 1.82355e-02  1.73977e-02        00000 
 2.11339e-02  1.97172e-02        00000 
 2.53888e-02  2.18607e-02        00000 
 2.79222e-02  2.28696e-02        00000 
 2.78742e-02  2.38777e-02        00000 
 2.72532e-02  2.48517e-02        00000 
 2.75834e-02  2.57353e-02        00000 
 2.82147e-02  2.66933e-02        00000 
 2.91092e-02  2.77341e-02        00000 
 3.02230e-02  2.86596e-02        00000 
 3.20270e-02  2.95777e-02        00000 
 3.33786e-02  3.06051e-02        00000 
 3.63662e-02  3.21249e-02        00000 
 3.74359e-02  3.26277e-02        00000 
 3.85053e-02  3.30249e-02        00000 
 4.05769e-02  3.36322e-02        00000 
 4.17992e-02  3.38528e-02        00000 
 4.37756e-02  3.41875e-02        00000 
 4.71071e-02  3.42586e-02        00000 
 5.19835e-02  3.46186e-02        00000 
 5.89631e-02  3.57016e-02        00000 
 6.73058e-02  3.68247e-02        00000 
 7.48309e-02  3.77248e-02        00000 
 7.88102e-02  3.81473e-02        00000 
 8.35892e-02  3.88296e-02        00000 
 8.83691e-02  3.91259e-02        00000 
 9.29421e-02  3.93714e-02        00000 
 9.74308e-02  3.98190e-02        00000 
 1.02099e-01  3.99914e-02        00000 
 1.06198e-01  4.00049e-02        00000 
 1.08600e-01  3.98076e-02        00000 
 1.15633e-01  3.88715e-02        00000 
 1.23130e-01  3.65557e-02        00000 
 1.27707e-01  3.55549e-02        00000 
 1.29568e-01  3.34497e-02        00000 
 1.31570e-01  3.08304e-02        00000 
 1.34849e-01  2.70994e-02        00000 
 1.39368e-01  2.26193e-02        00000 
 1.43790e-01  1.84932e-02        00000 
 1.47244e-01  1.53416e-02        00000 
 1.51482e-01  1.24003e-02        00000 
 1.55975e-01  9.62730e-03        00000 
 1.59824e-01  6.21151e-03        00000 
 1.67316e-01  1.82666e-03        00000 
 9.49431e-04 -3.13741e-03        00000 
 3.91701e-03  3.18339e-03        00000 
 7.30262e-03  7.49356e-03        00000 
 1.16679e-02  1.10853e-02        00000 
 1.39870e-02  1.31787e-02        00000 
 1.84320e-02  1.62788e-02        00000 
 2.19254e-02  1.90434e-02        00000 
 2.45029e-02  2.13544e-02        00000 
 2.79783e-02  2.34166e-02        00000 
 3.07223e-02  2.44986e-02        00000 
 3.01307e-02  2.52005e-02        00000 
 3.06404e-02  2.64715e-02        00000 
 3.16949e-02  2.77322e-02        00000 
 3.20517e-02  2.85347e-02        00000 
 3.22877e-02  2.92379e-02        00000 
 3.29809e-02  3.00215e-02        00000 
 3.40182e-02  3.06410e-02        00000 
 3.49332e-02  3.14333e-02        00000 
 3.71194e-02  3.28156e-02        00000 
 3.88985e-02  3.38041e-02        00000 
 4.04671e-02  3.45975e-02        00000 
 4.16097e-02  3.49463e-02        00000 
 4.28207e-02  3.54052e-02        00000 
 4.49379e-02  3.58085e-02        00000 
 5.04847e-02  3.69107e-02        00000 
 5.66417e-02  3.77625e-02        00000 
 6.28640e-02  3.82449e-02        00000 
 7.26796e-02  3.94583e-02        00000 
 8.19719e-02  4.02586e-02        00000 
 8.76171e-02  4.06776e-02        00000 
 9.22311e-02  4.14305e-02        00000 
 9.73919e-02  4.22250e-02        00000 
 1.02235e-01  4.26406e-02        00000 
 1.08264e-01  4.28582e-02        00000 
 1.13086e-01  4.31164e-02        00000 
 1.17988e-01  4.38902e-02        00000 
 1.24695e-01  4.26239e-02        00000 
 1.31944e-01  4.05552e-02        00000 
 1.38417e-01  3.88946e-02        00000 
 1.43043e-01  3.73455e-02        00000 
 1.46457e-01  3.43021e-02        00000 
 1.49617e-01  3.18235e-02        00000 
 1.52467e-01  2.80680e-02        00000 
 1.57478e-01  2.38045e-02        00000 
 1.61204e-01  1.97942e-02        00000 
 1.65665e-01  1.62448e-02        00000 
 1.70356e-01  1.30718e-02        00000 