<?xml version="1.0" encoding="utf-8"?>
<VTKFile byte_order="LittleEndian" type="UnstructuredGrid" version="0.1">
   <UnstructuredGrid>
      <Piece NumberOfCells="9604" NumberOfPoints="4901">
         <Points>
            <DataArray Name="Points" NumberOfComponents="3" format="ascii" type="Float32">
-1.0000 -1.0000 0.0000
-1.0000 -0.9592 0.0000
-1.0000 -0.9184 0.0000
-1.0000 -0.8776 0.0000
-1.0000 -0.8367 0.0000
-1.0000 -0.7959 0.0000
-1.0000 -0.7551 0.0000
-1.0000 -0.7143 0.0000
-1.0000 -0.6735 0.0000
-1.0000 -0.6327 0.0000
-1.0000 -0.5918 0.0000
-1.0000 -0.5510 0.0000
-1.0000 -0.5102 0.0000
-1.0000 -0.4694 0.0000
-1.0000 -0.4286 0.0000
-1.0000 -0.3878 0.0000
-1.0000 -0.3469 0.0000
-1.0000 -0.3061 0.0000
-1.0000 -0.2653 0.0000
-1.0000 -0.2245 0.0000
-1.0000 -0.1837 0.0000
-1.0000 -0.1429 0.0000
-1.0000 -0.1020 0.0000
-1.0000 -0.0612 0.0000
-1.0000 -0.0204 0.0000
-1.0000 0.0204 0.0000
-1.0000 0.0612 0.0000
-1.0000 0.1020 0.0000
-1.0000 0.1429 0.0000
-1.0000 0.1837 0.0000
-1.0000 0.2245 0.0000
-1.0000 0.2653 0.0000
-1.0000 0.3061 0.0000
-1.0000 0.3469 0.0000
-1.0000 0.3878 0.0000
-1.0000 0.4286 0.0000
-1.0000 0.4694 0.0000
-1.0000 0.5102 0.0000
-1.0000 0.5510 0.0000
-1.0000 0.5918 0.0000
-1.0000 0.6327 0.0000
-1.0000 0.6735 0.0000
-1.0000 0.7143 0.0000
-1.0000 0.7551 0.0000
-1.0000 0.7959 0.0000
-1.0000 0.8367 0.0000
-1.0000 0.8776 0.0000
-1.0000 0.9184 0.0000
-1.0000 0.9592 0.0000
-1.0000 1.0000 0.0000
-0.9592 -1.0000 0.0000
-0.9592 -0.9592 0.0000
-0.9592 -0.9184 0.0000
-0.9592 -0.8776 0.0000
-0.9592 -0.8367 0.0000
-0.9592 -0.7959 0.0000
-0.9592 -0.7551 0.0000
-0.9592 -0.7143 0.0000
-0.9592 -0.6735 0.0000
-0.9592 -0.6327 0.0000
-0.9592 -0.5918 0.0000
-0.9592 -0.5510 0.0000
-0.9592 -0.5102 0.0000
-0.9592 -0.4694 0.0000
-0.9592 -0.4286 0.0000
-0.9592 -0.3878 0.0000
-0.9592 -0.3469 0.0000
-0.9592 -0.3061 0.0000
-0.9592 -0.2653 0.0000
-0.9592 -0.2245 0.0000
-0.9592 -0.1837 0.0000
-0.9592 -0.1429 0.0000
-0.9592 -0.1020 0.0000
-0.9592 -0.0612 0.0000
-0.9592 -0.0204 0.0000
-0.9592 0.0204 0.0000
-0.9592 0.0612 0.0000
-0.9592 0.1020 0.0000
-0.9592 0.1429 0.0000
-0.9592 0.1837 0.0000
-0.9592 0.2245 0.0000
-0.9592 0.2653 0.0000
-0.9592 0.3061 0.0000
-0.9592 0.3469 0.0000
-0.9592 0.3878 0.0000
-0.9592 0.4286 0.0000
-0.9592 0.4694 0.0000
-0.9592 0.5102 0.0000
-0.9592 0.5510 0.0000
-0.9592 0.5918 0.0000
-0.9592 0.6327 0.0000
-0.9592 0.6735 0.0000
-0.9592 0.7143 0.0000
-0.9592 0.7551 0.0000
-0.9592 0.7959 0.0000
-0.9592 0.8367 0.0000
-0.9592 0.8776 0.0000
-0.9592 0.9184 0.0000
-0.9592 0.9592 0.0000
-0.9592 1.0000 0.0000
-0.9184 -1.0000 0.0000
-0.9184 -0.9592 0.0000
-0.9184 -0.9184 0.0000
-0.9184 -0.8776 0.0000
-0.9184 -0.8367 0.0000
-0.9184 -0.7959 0.0000
-0.9184 -0.7551 0.0000
-0.9184 -0.7143 0.0000
-0.9184 -0.6735 0.0000
-0.9184 -0.6327 0.0000
-0.9184 -0.5918 0.0000
-0.9184 -0.5510 0.0000
-0.9184 -0.5102 0.0000
-0.9184 -0.4694 0.0000
-0.9184 -0.4286 0.0000
-0.9184 -0.3878 0.0000
-0.9184 -0.3469 0.0000
-0.9184 -0.3061 0.0000
-0.9184 -0.2653 0.0000
-0.9184 -0.2245 0.0000
-0.9184 -0.1837 0.0000
-0.9184 -0.1429 0.0000
-0.9184 -0.1020 0.0000
-0.9184 -0.0612 0.0000
-0.9184 -0.0204 0.0000
-0.9184 0.0204 0.0000
-0.9184 0.0612 0.0000
-0.9184 0.1020 0.0000
-0.9184 0.1429 0.0000
-0.9184 0.1837 0.0000
-0.9184 0.2245 0.0000
-0.9184 0.2653 0.0000
-0.9184 0.3061 0.0000
-0.9184 0.3469 0.0000
-0.9184 0.3878 0.0000
-0.9184 0.4286 0.0000
-0.9184 0.4694 0.0000
-0.9184 0.5102 0.0000
-0.9184 0.5510 0.0000
-0.9184 0.5918 0.0000
-0.9184 0.6327 0.0000
-0.9184 0.6735 0.0000
-0.9184 0.7143 0.0000
-0.9184 0.7551 0.0000
-0.9184 0.7959 0.0000
-0.9184 0.8367 0.0000
-0.9184 0.8776 0.0000
-0.9184 0.9184 0.0000
-0.9184 0.9592 0.0000
-0.9184 1.0000 0.0000
-0.8776 -1.0000 0.0000
-0.8776 -0.9592 0.0000
-0.8776 -0.9184 0.0000
-0.8776 -0.8776 0.0000
-0.8776 -0.8367 0.0000
-0.8776 -0.7959 0.0000
-0.8776 -0.7551 0.0000
-0.8776 -0.7143 0.0000
-0.8776 -0.6735 0.0000
-0.8776 -0.6327 0.0000
-0.8776 -0.5918 0.0000
-0.8776 -0.5510 0.0000
-0.8776 -0.5102 0.0000
-0.8776 -0.4694 0.0000
-0.8776 -0.4286 0.0000
-0.8776 -0.3878 0.0000
-0.8776 -0.3469 0.0000
-0.8776 -0.3061 0.0000
-0.8776 -0.2653 0.0000
-0.8776 -0.2245 0.0000
-0.8776 -0.1837 0.0000
-0.8776 -0.1429 0.0000
-0.8776 -0.1020 0.0000
-0.8776 -0.0612 0.0000
-0.8776 -0.0204 0.0000
-0.8776 0.0204 0.0000
-0.8776 0.0612 0.0000
-0.8776 0.1020 0.0000
-0.8776 0.1429 0.0000
-0.8776 0.1837 0.0000
-0.8776 0.2245 0.0000
-0.8776 0.2653 0.0000
-0.8776 0.3061 0.0000
-0.8776 0.3469 0.0000
-0.8776 0.3878 0.0000
-0.8776 0.4286 0.0000
-0.8776 0.4694 0.0000
-0.8776 0.5102 0.0000
-0.8776 0.5510 0.0000
-0.8776 0.5918 0.0000
-0.8776 0.6327 0.0000
-0.8776 0.6735 0.0000
-0.8776 0.7143 0.0000
-0.8776 0.7551 0.0000
-0.8776 0.7959 0.0000
-0.8776 0.8367 0.0000
-0.8776 0.8776 0.0000
-0.8776 0.9184 0.0000
-0.8776 0.9592 0.0000
-0.8776 1.0000 0.0000
-0.8367 -1.0000 0.0000
-0.8367 -0.9592 0.0000
-0.8367 -0.9184 0.0000
-0.8367 -0.8776 0.0000
-0.8367 -0.8367 0.0000
-0.8367 -0.7959 0.0000
-0.8367 -0.7551 0.0000
-0.8367 -0.7143 0.0000
-0.8367 -0.6735 0.0000
-0.8367 -0.6327 0.0000
-0.8367 -0.5918 0.0000
-0.8367 -0.5510 0.0000
-0.8367 -0.5102 0.0000
-0.8367 -0.4694 0.0000
-0.8367 -0.4286 0.0000
-0.8367 -0.3878 0.0000
-0.8367 -0.3469 0.0000
-0.8367 -0.3061 0.0000
-0.8367 -0.2653 0.0000
-0.8367 -0.2245 0.0000
-0.8367 -0.1837 0.0000
-0.8367 -0.1429 0.0000
-0.8367 -0.1020 0.0000
-0.8367 -0.0612 0.0000
-0.8367 -0.0204 0.0000
-0.8367 0.0204 0.0000
-0.8367 0.0612 0.0000
-0.8367 0.1020 0.0000
-0.8367 0.1429 0.0000
-0.8367 0.1837 0.0000
-0.8367 0.2245 0.0000
-0.8367 0.2653 0.0000
-0.8367 0.3061 0.0000
-0.8367 0.3469 0.0000
-0.8367 0.3878 0.0000
-0.8367 0.4286 0.0000
-0.8367 0.4694 0.0000
-0.8367 0.5102 0.0000
-0.8367 0.5510 0.0000
-0.8367 0.5918 0.0000
-0.8367 0.6327 0.0000
-0.8367 0.6735 0.0000
-0.8367 0.7143 0.0000
-0.8367 0.7551 0.0000
-0.8367 0.7959 0.0000
-0.8367 0.8367 0.0000
-0.8367 0.8776 0.0000
-0.8367 0.9184 0.0000
-0.8367 0.9592 0.0000
-0.8367 1.0000 0.0000
-0.7959 -1.0000 0.0000
-0.7959 -0.9592 0.0000
-0.7959 -0.9184 0.0000
-0.7959 -0.8776 0.0000
-0.7959 -0.8367 0.0000
-0.7959 -0.7959 0.0000
-0.7959 -0.7551 0.0000
-0.7959 -0.7143 0.0000
-0.7959 -0.6735 0.0000
-0.7959 -0.6327 0.0000
-0.7959 -0.5918 0.0000
-0.7959 -0.5510 0.0000
-0.7959 -0.5102 0.0000
-0.7959 -0.4694 0.0000
-0.7959 -0.4286 0.0000
-0.7959 -0.3878 0.0000
-0.7959 -0.3469 0.0000
-0.7959 -0.3061 0.0000
-0.7959 -0.2653 0.0000
-0.7959 -0.2245 0.0000
-0.7959 -0.1837 0.0000
-0.7959 -0.1429 0.0000
-0.7959 -0.1020 0.0000
-0.7959 -0.0612 0.0000
-0.7959 -0.0204 0.0000
-0.7959 0.0204 0.0000
-0.7959 0.0612 0.0000
-0.7959 0.1020 0.0000
-0.7959 0.1429 0.0000
-0.7959 0.1837 0.0000
-0.7959 0.2245 0.0000
-0.7959 0.2653 0.0000
-0.7959 0.3061 0.0000
-0.7959 0.3469 0.0000
-0.7959 0.3878 0.0000
-0.7959 0.4286 0.0000
-0.7959 0.4694 0.0000
-0.7959 0.5102 0.0000
-0.7959 0.5510 0.0000
-0.7959 0.5918 0.0000
-0.7959 0.6327 0.0000
-0.7959 0.6735 0.0000
-0.7959 0.7143 0.0000
-0.7959 0.7551 0.0000
-0.7959 0.7959 0.0000
-0.7959 0.8367 0.0000
-0.7959 0.8776 0.0000
-0.7959 0.9184 0.0000
-0.7959 0.9592 0.0000
-0.7959 1.0000 0.0000
-0.7551 -1.0000 0.0000
-0.7551 -0.9592 0.0000
-0.7551 -0.9184 0.0000
-0.7551 -0.8776 0.0000
-0.7551 -0.8367 0.0000
-0.7551 -0.7959 0.0000
-0.7551 -0.7551 0.0000
-0.7551 -0.7143 0.0000
-0.7551 -0.6735 0.0000
-0.7551 -0.6327 0.0000
-0.7551 -0.5918 0.0000
-0.7551 -0.5510 0.0000
-0.7551 -0.5102 0.0000
-0.7551 -0.4694 0.0000
-0.7551 -0.4286 0.0000
-0.7551 -0.3878 0.0000
-0.7551 -0.3469 0.0000
-0.7551 -0.3061 0.0000
-0.7551 -0.2653 0.0000
-0.7551 -0.2245 0.0000
-0.7551 -0.1837 0.0000
-0.7551 -0.1429 0.0000
-0.7551 -0.1020 0.0000
-0.7551 -0.0612 0.0000
-0.7551 -0.0204 0.0000
-0.7551 0.0204 0.0000
-0.7551 0.0612 0.0000
-0.7551 0.1020 0.0000
-0.7551 0.1429 0.0000
-0.7551 0.1837 0.0000
-0.7551 0.2245 0.0000
-0.7551 0.2653 0.0000
-0.7551 0.3061 0.0000
-0.7551 0.3469 0.0000
-0.7551 0.3878 0.0000
-0.7551 0.4286 0.0000
-0.7551 0.4694 0.0000
-0.7551 0.5102 0.0000
-0.7551 0.5510 0.0000
-0.7551 0.5918 0.0000
-0.7551 0.6327 0.0000
-0.7551 0.6735 0.0000
-0.7551 0.7143 0.0000
-0.7551 0.7551 0.0000
-0.7551 0.7959 0.0000
-0.7551 0.8367 0.0000
-0.7551 0.8776 0.0000
-0.7551 0.9184 0.0000
-0.7551 0.9592 0.0000
-0.7551 1.0000 0.0000
-0.7143 -1.0000 0.0000
-0.7143 -0.9592 0.0000
-0.7143 -0.9184 0.0000
-0.7143 -0.8776 0.0000
-0.7143 -0.8367 0.0000
-0.7143 -0.7959 0.0000
-0.7143 -0.7551 0.0000
-0.7143 -0.7143 0.0000
-0.7143 -0.6735 0.0000
-0.7143 -0.6327 0.0000
-0.7143 -0.5918 0.0000
-0.7143 -0.5510 0.0000
-0.7143 -0.5102 0.0000
-0.7143 -0.4694 0.0000
-0.7143 -0.4286 0.0000
-0.7143 -0.3878 0.0000
-0.7143 -0.3469 0.0000
-0.7143 -0.3061 0.0000
-0.7143 -0.2653 0.0000
-0.7143 -0.2245 0.0000
-0.7143 -0.1837 0.0000
-0.7143 -0.1429 0.0000
-0.7143 -0.1020 0.0000
-0.7143 -0.0612 0.0000
-0.7143 -0.0204 0.0000
-0.7143 0.0204 0.0000
-0.7143 0.0612 0.0000
-0.7143 0.1020 0.0000
-0.7143 0.1429 0.0000
-0.7143 0.1837 0.0000
-0.7143 0.2245 0.0000
-0.7143 0.2653 0.0000
-0.7143 0.3061 0.0000
-0.7143 0.3469 0.0000
-0.7143 0.3878 0.0000
-0.7143 0.4286 0.0000
-0.7143 0.4694 0.0000
-0.7143 0.5102 0.0000
-0.7143 0.5510 0.0000
-0.7143 0.5918 0.0000
-0.7143 0.6327 0.0000
-0.7143 0.6735 0.0000
-0.7143 0.7143 0.0000
-0.7143 0.7551 0.0000
-0.7143 0.7959 0.0000
-0.7143 0.8367 0.0000
-0.7143 0.8776 0.0000
-0.7143 0.9184 0.0000
-0.7143 0.9592 0.0000
-0.7143 1.0000 0.0000
-0.6735 -1.0000 0.0000
-0.6735 -0.9592 0.0000
-0.6735 -0.9184 0.0000
-0.6735 -0.8776 0.0000
-0.6735 -0.8367 0.0000
-0.6735 -0.7959 0.0000
-0.6735 -0.7551 0.0000
-0.6735 -0.7143 0.0000
-0.6735 -0.6735 0.0000
-0.6735 -0.6327 0.0000
-0.6735 -0.5918 0.0000
-0.6735 -0.5510 0.0000
-0.6735 -0.5102 0.0000
-0.6735 -0.4694 0.0000
-0.6735 -0.4286 0.0000
-0.6735 -0.3878 0.0000
-0.6735 -0.3469 0.0000
-0.6735 -0.3061 0.0000
-0.6735 -0.2653 0.0000
-0.6735 -0.2245 0.0000
-0.6735 -0.1837 0.0000
-0.6735 -0.1429 0.0000
-0.6735 -0.1020 0.0000
-0.6735 -0.0612 0.0000
-0.6735 -0.0204 0.0000
-0.6735 0.0204 0.0000
-0.6735 0.0612 0.0000
-0.6735 0.1020 0.0000
-0.6735 0.1429 0.0000
-0.6735 0.1837 0.0000
[...]
         <PointData>
            <DataArray Name="fValues" NumberOfComponents="3" format="ascii" type="Float64">
 1.00114e+00 -4.82608e-17        00000 
 9.80711e-01 -3.97589e-16        00000 
 9.60280e-01 -5.75865e-16        00000 
 9.39848e-01 -5.40912e-16        00000 
 9.19417e-01  6.52108e-19        00000 
 8.98985e-01 -3.46413e-16        00000 
 8.78554e-01 -1.03576e-16        00000 
 8.58122e-01  5.88822e-17        00000 
 8.37691e-01  1.01077e-17        00000 
 8.17259e-01 -1.15703e-17        00000 
 7.96828e-01  2.52148e-17        00000 
 7.76396e-01  3.82079e-17        00000 
 7.55965e-01  3.15185e-18        00000 
 7.35534e-01  5.36274e-18        00000 
 7.15102e-01  9.78161e-19        00000 
 6.94671e-01  1.90493e-18        00000 
 6.74239e-01 -8.58608e-18        00000 
 6.53808e-01  3.74531e-19        00000 
 6.33376e-01  2.28238e-18        00000 
 6.12945e-01  7.44221e-19        00000 
 5.92513e-01 -1.19553e-18        00000 
 5.72082e-01 -1.62937e-18        00000 
 5.51650e-01  2.17369e-18        00000 
 5.31219e-01  9.49052e-19        00000 
 5.10787e-01  5.43423e-19        00000 
 4.90356e-01 -5.69223e-19        00000 
 4.69924e-01  1.30422e-18        00000 
 4.49493e-01  1.09926e-18        00000 
 4.29061e-01 -1.35856e-18        00000 
 4.08630e-01  2.10646e-18        00000 
 3.88198e-01  3.26054e-19        00000 
 3.67767e-01  3.99421e-19        00000 
 3.47335e-01  1.63027e-19        00000 
 3.26904e-01  2.65731e-19        00000 
 3.06472e-01 -3.80396e-19        00000 
 2.86041e-01  5.66700e-19        00000 
 2.65609e-01 -7.60792e-19        00000 
 2.45178e-01  1.59532e-18        00000 
 2.24746e-01 -3.80396e-19        00000 
 2.04315e-01  5.18906e-19        00000 
 1.83883e-01  3.26054e-19        00000 
 1.63452e-01 -4.93371e-19        00000 
 1.43020e-01  5.97765e-19        00000 
 1.22589e-01  1.01733e-18        00000 
 1.02157e-01 -1.14119e-18        00000 
 8.17259e-02  7.35346e-19        00000 
 6.12945e-02 -2.71711e-19        00000 
 4.08630e-02 -3.45443e-19        00000 
 2.04315e-02  3.32936e-19        00000 
 2.12789e-17 -3.09846e-19        00000 
 9.80711e-01        00000        00000 
 9.62364e-01  2.14140e-03        00000 
 9.42988e-01  3.50138e-03        00000 
 9.23364e-01  4.55370e-03        00000 
 9.03618e-01  5.44579e-03        00000 
 8.83811e-01  6.23342e-03        00000 
 8.63971e-01  6.94133e-03        00000 
 8.44114e-01  7.58028e-03        00000 
 8.24250e-01  8.15385e-03        00000 
 8.04384e-01  8.66157e-03        00000 
 7.84518e-01  9.10051e-03        00000 
 7.64651e-01  9.46653e-03        00000 
 7.44783e-01  9.75493e-03        00000 
 7.24909e-01  9.96091e-03        00000 
 7.05025e-01  1.00801e-02        00000 
 6.85125e-01  1.01099e-02        00000 
 6.65201e-01  1.00500e-02        00000 
 6.45244e-01  9.90344e-03        00000 
 6.25246e-01  9.67638e-03        00000 
 6.05201e-01  9.37878e-03        00000 
 5.85101e-01  9.02359e-03        00000 
 5.64944e-01  8.62658e-03        00000 
 5.44728e-01  8.20543e-03        00000 
 5.24455e-01  7.77841e-03        00000 
 5.04127e-01  7.36320e-03        00000 
 4.83753e-01  6.97558e-03        00000 
 4.63342e-01  6.62843e-03        00000 
 4.42904e-01  6.33080e-03        00000 
 4.22450e-01  6.08745e-03        00000 
 4.01992e-01  5.89790e-03        00000 
 3.81539e-01  5.75905e-03        00000 
 3.61103e-01  5.66279e-03        00000 
 3.40688e-01  5.60053e-03        00000 
 3.20302e-01  5.56150e-03        00000 
 2.99947e-01  5.53565e-03        00000 
 2.79626e-01  5.51176e-03        00000 
 2.59338e-01  5.48005e-03        00000 
 2.39084e-01  5.43195e-03        00000 
 2.18862e-01  5.35966e-03        00000 
 1.98673e-01  5.25639e-03        00000 
 1.78515e-01  5.11601e-03        00000 
 1.58387e-01  4.93307e-03        00000 
 1.38289e-01  4.70222e-03        00000 
 1.18225e-01  4.41722e-03        00000 
 9.81991e-02  4.06953e-03        00000 
 7.82199e-02  3.64586e-03        00000 
 5.83058e-02  3.12294e-03        00000 
 3.84965e-02  2.45497e-03        00000 
 1.88771e-02  1.52964e-03        00000 
-7.34551e-18  3.31342e-19        00000 
 9.60280e-01  9.90044e-20        00000 
 9.43177e-01  3.24233e-03        00000 
 9.24995e-01  5.87499e-03        00000 
 9.06262e-01  8.01482e-03        00000 
 8.87271e-01  9.84043e-03        00000 
 8.68141e-01  1.14467e-02        00000 
 8.48939e-01  1.28830e-02        00000 
 8.29701e-01  1.41739e-02        00000 
 8.10447e-01  1.53298e-02        00000 
 7.91190e-01  1.63529e-02        00000 
 7.71936e-01  1.72398e-02        00000 
 7.52683e-01  1.79841e-02        00000 
 7.33430e-01  1.85784e-02        00000 
 7.14169e-01  1.90145e-02        00000 
 6.94892e-01  1.92851e-02        00000 
 6.75583e-01  1.93849e-02        00000 
 6.56225e-01  1.93154e-02        00000 
 6.36799e-01  1.90805e-02        00000 
 6.17286e-01  1.86924e-02        00000 
 5.97632e-01  1.81406e-02        00000 
 5.77886e-01  1.74882e-02        00000 
 5.58023e-01  1.67644e-02        00000 
 5.38021e-01  1.59883e-02        00000 
 5.17902e-01  1.52019e-02        00000 
 4.97663e-01  1.44321e-02        00000 
 4.77325e-01  1.37122e-02        00000 
 4.56906e-01  1.30651e-02        00000 
 4.36431e-01  1.25084e-02        00000 
 4.15930e-01  1.20496e-02        00000 
 3.95418e-01  1.16903e-02        00000 
 3.74926e-01  1.14243e-02        00000 
 3.54489e-01  1.12371e-02        00000 
 3.34074e-01  1.10852e-02        00000 
 3.13722e-01  1.09733e-02        00000 
 2.93441e-01  1.08808e-02        00000 
 2.73233e-01  1.07884e-02        00000 
 2.53098e-01  1.06782e-02        00000 
 2.33035e-01  1.05331e-02        00000 
 2.13042e-01  1.03394e-02        00000 
 1.93117e-01  1.00838e-02        00000 
 1.73259e-01  9.75452e-03        00000 
 1.53464e-01  9.34041e-03        00000 
 1.33735e-01  8.83036e-03        00000 
 1.14076e-01  8.21090e-03        00000 
 9.44981e-02  7.46371e-03        00000 
 7.50233e-02  6.56145e-03        00000 
 5.56924e-02  5.45967e-03        00000 
 3.65857e-02  4.08168e-03        00000 
 1.79021e-02  2.29138e-03        00000 
 4.40758e-18 -1.10189e-19        00000 
 9.39848e-01 -1.03250e-18        00000 
 9.23634e-01  4.05702e-03        00000 
 9.06435e-01  7.61290e-03        00000 
 8.88601e-01  1.06998e-02        00000 
 8.70397e-01  1.34028e-02        00000 
 8.51986e-01  1.58052e-02        00000 
 8.33462e-01  1.79611e-02        00000 
 8.14881e-01  1.99015e-02        00000 
 7.96278e-01  2.16418e-02        00000 
 7.77671e-01  2.31864e-02        00000 
 7.59072e-01  2.45323e-02        00000 
 7.40481e-01  2.56712e-02        00000 
 7.21891e-01  2.65929e-02        00000 
 7.03297e-01  2.72870e-02        00000 
 6.84684e-01  2.77413e-02        00000 
 6.66023e-01  2.79524e-02        00000 
 6.47250e-01  2.78781e-02        00000 
 6.28382e-01  2.75701e-02        00000 
 6.09396e-01  2.70558e-02        00000 
 5.90236e-01  2.63527e-02        00000 
 5.70889e-01  2.54846e-02        00000 
 5.51340e-01  2.44996e-02        00000 
 5.31610e-01  2.34552e-02        00000 
 5.11654e-01  2.23762e-02        00000 
 4.91498e-01  2.13064e-02        00000 
 4.71174e-01  2.02907e-02        00000 
 4.50713e-01  1.93637e-02        00000 
 4.30155e-01  1.85462e-02        00000 
 4.09538e-01  1.78626e-02        00000 
 3.88928e-01  1.73153e-02        00000 
 3.68355e-01  1.68934e-02        00000 
 3.47850e-01  1.65809e-02        00000 
 3.27444e-01  1.63582e-02        00000 
 3.07129e-01  1.61817e-02        00000 
 2.86960e-01  1.60361e-02        00000 
 2.66874e-01  1.58497e-02        00000 
 2.46903e-01  1.56236e-02        00000 
 2.27047e-01  1.53439e-02        00000 
 2.07302e-01  1.49896e-02        00000 
 1.87666e-01  1.45424e-02        00000 
 1.68134e-01  1.39851e-02        00000 
 1.48702e-01  1.33025e-02        00000 
 1.29372e-01  1.24787e-02        00000 
 1.10152e-01  1.14938e-02        00000 
 9.10609e-02  1.03229e-02        00000 
 7.21307e-02  8.93107e-03        00000 
 5.34204e-02  7.26846e-03        00000 
 3.50365e-02  5.26554e-03        00000 
 1.71544e-02  2.85293e-03        00000 
-3.47791e-18 -4.34738e-19        00000 
 9.19417e-01  1.20987e-19        00000 
 9.03895e-01  4.70369e-03        00000 
 8.87503e-01  8.99203e-03        00000 
 8.70485e-01  1.28571e-02        00000 
 8.53056e-01  1.63342e-02        00000 
 8.35376e-01  1.94720e-02        00000 
 8.17555e-01  2.23126e-02        00000 
 7.99661e-01  2.48839e-02        00000 
 7.81741e-01  2.72007e-02        00000 
 7.63820e-01  2.92677e-02        00000 
 7.45915e-01  3.10819e-02        00000 
 7.28029e-01  3.26344e-02        00000 
 7.10148e-01  3.39122e-02        00000 
 6.92274e-01  3.48903e-02        00000 
 6.74337e-01  3.55156e-02        00000 
 6.56351e-01  3.58203e-02        00000 
 6.38281e-01  3.58342e-02        00000 
 6.20056e-01  3.55459e-02        00000 
 6.01681e-01  3.49948e-02        00000 
 5.83083e-01  3.42139e-02        00000 
 5.64190e-01  3.32001e-02        00000 
 5.45020e-01  3.20219e-02        00000 
 5.25530e-01  3.07233e-02        00000 
 5.05743e-01  2.93818e-02        00000 
 4.85661e-01  2.80413e-02        00000 
 4.65329e-01  2.67594e-02        00000 
 4.44798e-01  2.55788e-02        00000 
 4.24125e-01  2.45312e-02        00000 
 4.03366e-01  2.36388e-02        00000 
 3.82616e-01  2.28945e-02        00000 
 3.61918e-01  2.23015e-02        00000 
 3.41308e-01  2.18295e-02        00000 
 3.20838e-01  2.14662e-02        00000 
 3.00542e-01  2.11727e-02        00000 
 2.80429e-01  2.09134e-02        00000 
 2.60506e-01  2.06606e-02        00000 
 2.40759e-01  2.03472e-02        00000 
 2.21131e-01  1.99077e-02        00000 
 2.01652e-01  1.93604e-02        00000 
 1.82330e-01  1.86884e-02        00000 
 1.63151e-01  1.78737e-02        00000 
 1.44107e-01  1.68972e-02        00000 
 1.25204e-01  1.57385e-02        00000 
 1.06452e-01  1.43746e-02        00000 
 8.78728e-02  1.27785e-02        00000 
 6.95064e-02  1.09162e-02        00000 
 5.14189e-02  8.74534e-03        00000 
 3.37116e-02  6.22050e-03        00000 
 1.65217e-02  3.30681e-03        00000 
 5.56727e-18  6.10151e-19        00000 
 8.98985e-01  1.08685e-19        00000 
 8.84028e-01  5.23907e-03        00000 
 8.68312e-01  1.01278e-02        00000 
 8.52018e-01  1.46418e-02        00000 
 8.35319e-01  1.87866e-02        00000 
 8.18358e-01  2.25843e-02        00000 
 8.01245e-01  2.60593e-02        00000 
 7.84055e-01  2.92304e-02        00000 
 7.66840e-01  3.21078e-02        00000 
 7.49633e-01  3.46925e-02        00000 
 7.32454e-01  3.69786e-02        00000 
 7.15314e-01  3.89527e-02        00000 
 6.98132e-01  4.05671e-02        00000 
 6.80993e-01  4.18072e-02        00000 
 6.63859e-01  4.26937e-02        00000 
 6.46681e-01  4.32285e-02        00000 
 6.29391e-01  4.34093e-02        00000 
 6.11892e-01  4.32100e-02        00000 
 5.94177e-01  4.26745e-02        00000 
 5.76151e-01  4.18143e-02        00000 
 5.57754e-01  4.06623e-02        00000 
 5.38947e-01  3.92722e-02        00000 
 5.19728e-01  3.77376e-02        00000 
 5.00088e-01  3.61240e-02        00000 
 4.80062e-01  3.45216e-02        00000 
 4.59697e-01  3.29927e-02        00000 
 4.39065e-01  3.15925e-02        00000 
 4.18250e-01  3.03577e-02        00000 
 3.97353e-01  2.93024e-02        00000 
 3.76444e-01  2.84104e-02        00000 
 3.55600e-01  2.76728e-02        00000 
 3.34886e-01  2.70603e-02        00000 
 3.14339e-01  2.65362e-02        00000 
 2.94042e-01  2.61034e-02        00000 
 2.73962e-01  2.56799e-02        00000 
 2.54144e-01  2.52460e-02        00000 
 2.34590e-01  2.47750e-02        00000 
 2.15249e-01  2.42116e-02        00000 
 1.96091e-01  2.34803e-02        00000 
 1.77114e-01  2.25708e-02        00000 
 1.58311e-01  2.14829e-02        00000 
 1.39680e-01  2.01966e-02        00000 
 1.21227e-01  1.86920e-02        00000 
 1.02962e-01  1.69474e-02        00000 
 8.49078e-02  1.49381e-02        00000 
 6.71061e-02  1.26361e-02        00000 
 4.96196e-02  1.00111e-02        00000 
 3.25357e-02  7.03648e-03        00000 
 1.59600e-02  3.69751e-03        00000 
-4.50731e-18 -1.23699e-18        00000 
 8.78554e-01  5.46217e-19        00000 
 8.64068e-01  5.69011e-03        00000 
 8.48927e-01  1.10820e-02        00000 
 8.33274e-01  1.61436e-02        00000 
 8.17249e-01  2.08639e-02        00000 
 8.00978e-01  2.52460e-02        00000 
 7.84561e-01  2.92990e-02        00000 
 7.68078e-01  3.30312e-02        00000 
 7.51581e-01  3.64467e-02        00000 
 7.35105e-01  3.95451e-02        00000 
 7.18671e-01  4.23156e-02        00000 
 7.02234e-01  4.46893e-02        00000 
 6.85855e-01  4.66758e-02        00000 
 6.69585e-01  4.82914e-02        00000 
 6.53338e-01  4.95085e-02        00000 
 6.37020e-01  5.03156e-02        00000 
 6.20528e-01  5.06806e-02        00000 
 6.03817e-01  5.05984e-02        00000 
 5.86789e-01  5.00587e-02        00000 
 5.69349e-01  4.90888e-02        00000 
 5.51492e-01  4.77756e-02        00000 
 5.33043e-01  4.61302e-02        00000 
 5.14105e-01  4.43264e-02        00000 
 4.94598e-01  4.24274e-02        00000 
 4.74597e-01  4.05558e-02        00000 
 4.54158e-01  3.87877e-02        00000 
 4.33379e-01  3.71863e-02        00000 
 4.12380e-01  3.57990e-02        00000 
 3.91328e-01  3.46342e-02        00000 
 3.70247e-01  3.36704e-02        00000 
 3.49275e-01  3.28489e-02        00000 
 3.28467e-01  3.21698e-02        00000 
 3.07904e-01  3.15749e-02        00000 
 2.87594e-01  3.09924e-02        00000 
 2.67571e-01  3.04002e-02        00000 
 2.47880e-01  2.97905e-02        00000 
 2.28502e-01  2.91083e-02        00000 
 2.09404e-01  2.83109e-02        00000 
 1.90589e-01  2.73794e-02        00000 
 1.72022e-01  2.62592e-02        00000 
 1.53615e-01  2.48754e-02        00000 
 1.35415e-01  2.32630e-02        00000 
 1.17430e-01  2.14072e-02        00000 
 9.96639e-02  1.92870e-02        00000 
 8.21378e-02  1.68819e-02        00000 
 6.48899e-02  1.41710e-02        00000 
 4.79757e-02  1.11353e-02        00000 
 3.14675e-02  7.76141e-03        00000 
 1.54484e-02  4.04624e-03        00000 
-8.04232e-19 -1.80348e-19        00000 
 8.58122e-01 -3.26054e-19        00000 
 8.44033e-01  6.07205e-03        00000 
 8.29387e-01  1.18895e-02        00000 
 8.14303e-01  1.74169e-02        00000 
 7.98896e-01  2.26335e-02        00000 
 7.83276e-01  2.75303e-02        00000 
 7.67535e-01  3.21044e-02        00000 
 7.51748e-01  3.63543e-02        00000 
 7.35971e-01  4.02767e-02        00000 
 7.20145e-01  4.38547e-02        00000 
 7.04412e-01  4.70737e-02        00000 
 6.88823e-01  4.99088e-02        00000 
 6.73370e-01  5.23465e-02        00000 
 6.58014e-01  5.43717e-02        00000 
 6.42688e-01  5.59449e-02        00000 
 6.27264e-01  5.70401e-02        00000 
 6.11618e-01  5.76284e-02        00000 
 5.95700e-01  5.76168e-02        00000 
 5.79397e-01  5.70238e-02        00000 
 5.62618e-01  5.59273e-02        00000 
 5.45347e-01  5.44219e-02        00000 
 5.27340e-01  5.25416e-02        00000 
 5.08689e-01  5.04617e-02        00000 
 4.89320e-01  4.82871e-02        00000 
 4.69308e-01  4.61457e-02        00000 
 4.48740e-01  4.41341e-02        00000 
 4.27749e-01  4.23311e-02        00000 
 4.06499e-01  4.07876e-02        00000 
 3.85189e-01  3.95192e-02        00000 
 3.63891e-01  3.85114e-02        00000 
 3.42778e-01  3.76926e-02        00000 
 3.21882e-01  3.70079e-02        00000 
 3.01347e-01  3.64215e-02        00000 
 2.81124e-01  3.57970e-02        00000 
 2.61203e-01  3.50538e-02        00000 
 2.41671e-01  3.42689e-02        00000 
 2.22497e-01  3.33727e-02        00000 
 2.03652e-01  3.23084e-02        00000 
 1.85169e-01  3.11033e-02        00000 
 1.66997e-01  2.97107e-02        00000 
 1.49045e-01  2.80723e-02        00000 
 1.31306e-01  2.61396e-02        00000 
 1.13803e-01  2.39350e-02        00000 
 9.65402e-02  2.14489e-02        00000 
 7.95385e-02  1.86660e-02        00000 
 6.28287e-02  1.55725e-02        00000 
 4.64573e-02  1.21593e-02        00000 
 3.04840e-02  8.42217e-03        00000 
 1.49762e-02  4.36492e-03        00000 
-2.76835e-18 -3.67514e-19        00000 
 8.37691e-01  1.94000e-18        00000 
 8.23936e-01  6.39385e-03        00000 
 8.09719e-01  1.25709e-02        00000 
 7.95139e-01  1.84944e-02        00000 
 7.80296e-01  2.41383e-02        00000 
 7.65286e-01  2.94856e-02        00000 
 7.50192e-01  3.45253e-02        00000 
 7.35085e-01  3.92488e-02        00000 
 7.19913e-01  4.36434e-02        00000 
 7.04771e-01  4.77204e-02        00000 
 6.89839e-01  5.14249e-02        00000 
 6.75230e-01  5.47512e-02        00000 
 6.60726e-01  5.76464e-02        00000 
 6.46285e-01  6.00904e-02        00000 
 6.31826e-01  6.20299e-02        00000 
 6.17247e-01  6.34175e-02        00000 
 6.02483e-01  6.41519e-02        00000 
 5.87450e-01  6.41991e-02        00000 
 5.72012e-01  6.36007e-02        00000 
 5.56068e-01  6.24320e-02        00000 
 5.39457e-01  6.07708e-02        00000 
 5.22040e-01  5.87511e-02        00000 
 5.03708e-01  5.64496e-02        00000 
 4.84495e-01  5.40417e-02        00000 
 4.64438e-01  5.16408e-02        00000 
 4.43678e-01  4.93780e-02        00000 
 4.22391e-01  4.73486e-02        00000 
 4.00789e-01  4.56152e-02        00000 
 3.79062e-01  4.41855e-02        00000 
 3.57440e-01  4.30740e-02        00000 
 3.36083e-01  4.22124e-02        00000 
 3.15071e-01  4.15293e-02        00000 
 2.94535e-01  4.09425e-02        00000 
 2.74449e-01  4.03466e-02        00000 
 2.54759e-01  3.96197e-02        00000 
 2.35452e-01  3.86903e-02        00000 
 2.16543e-01  3.75907e-02        00000 
 1.98022e-01  3.62939e-02        00000 
 1.79885e-01  3.47921e-02        00000 
 1.62095e-01  3.30684e-02        00000 
 1.44597e-01  3.11022e-02        00000 
 1.27349e-01  2.88570e-02        00000 
 1.10333e-01  2.63145e-02        00000 
 9.35747e-02  2.34721e-02        00000 
 7.70915e-02  2.03269e-02        00000 
 6.09022e-02  1.68728e-02        00000 
 4.50457e-02  1.31079e-02        00000 
 2.95724e-02  9.03438e-03        00000 
 1.45382e-02  4.66038e-03        00000 
 3.64551e-19  2.48423e-21        00000 
 8.17259e-01 -7.60792e-19        00000 
 8.03785e-01  6.66091e-03        00000 
 7.89940e-01  1.31385e-02        00000 
 7.75809e-01  1.93957e-02        00000 
 7.61479e-01  2.54041e-02        00000 
 7.47036e-01  3.11417e-02        00000 
 7.32555e-01  3.65924e-02        00000 
 7.18096e-01  4.17495e-02        00000 
 7.03423e-01  4.66422e-02        00000 
 6.89043e-01  5.11971e-02        00000 
 6.75101e-01  5.53616e-02        00000 
 6.61369e-01  5.91275e-02        00000 
 6.47731e-01  6.24735e-02        00000 
 6.34133e-01  6.53305e-02        00000 
 6.20500e-01  6.76561e-02        00000 
 6.06846e-01  6.93295e-02        00000 
 5.93104e-01  7.02910e-02        00000 
 5.79160e-01  7.05342e-02        00000 
 5.64842e-01  7.00830e-02        00000 
 5.49840e-01  6.89543e-02        00000 
 5.34110e-01  6.72795e-02        00000 
 5.17400e-01  6.52196e-02        00000 
 4.99448e-01  6.27747e-02        00000 
 4.80404e-01  6.01745e-02        00000 
 4.60271e-01  5.75323e-02        00000 
 4.39247e-01  5.50058e-02        00000 
 4.17564e-01  5.27188e-02        00000 
 3.95485e-01  5.07438e-02        00000 
 3.73207e-01  4.90977e-02        00000 
 3.51129e-01  4.77812e-02        00000 
 3.29385e-01  4.68022e-02        00000 
 3.08164e-01  4.60010e-02        00000 
 2.87533e-01  4.53193e-02        00000 
 2.67520e-01  4.46603e-02        00000 
 2.48075e-01  4.38986e-02        00000 
 2.29110e-01  4.29276e-02        00000 
 2.10551e-01  4.16663e-02        00000 
 1.92435e-01  4.01636e-02        00000 
 1.74689e-01  3.83873e-02        00000 
 1.57329e-01  3.63534e-02        00000 
 1.40287e-01  3.40413e-02        00000 
 1.23543e-01  3.14622e-02        00000 
 1.07017e-01  2.85666e-02        00000 
 9.07527e-02  2.53752e-02        00000 
 7.47843e-02  2.18859e-02        00000 
 5.90968e-02  1.80909e-02        00000 
 4.37298e-02  1.39957e-02        00000 