<?xml version="1.0" encoding="utf-8"?>
<VTKFile byte_order="LittleEndian" type="UnstructuredGrid" version="0.1">
   <UnstructuredGrid>
      <Piece NumberOfCells="9064" NumberOfPoints="4760">
         <Points>
            <DataArray Name="Points" NumberOfComponents="3" format="ascii" type="Float32">
-1.0000 -0.9592 0.0000
-1.0000 -0.9184 0.0000
-1.0000 -0.8776 0.0000
-1.0000 -0.8367 0.0000
-1.0000 -0.7959 0.0000
-1.0000 -0.7551 0.0000
-1.0000 -0.7143 0.0000
-1.0000 -0.6735 0.0000
-1.0000 -0.6327 0.0000
-1.0000 -0.5918 0.0000
-1.0000 -0.5510 0.0000
-1.0000 -0.5102 0.0000
-1.0000 -0.4694 0.0000
-1.0000 -0.4286 0.0000
-1.0000 -0.3878 0.0000
-1.0000 -0.3469 0.0000
-1.0000 -0.3061 0.0000
-1.0000 -0.2653 0.0000
-1.0000 -0.2245 0.0000
-1.0000 -0.1837 0.0000
-1.0000 -0.1429 0.0000
-1.0000 -0.1020 0.0000
-1.0000 -0.0612 0.0000
-1.0000 -0.0204 0.0000
-1.0000 0.0204 0.0000
-1.0000 0.0612 0.0000
-1.0000 0.1020 0.0000
-1.0000 0.1429 0.0000
-1.0000 0.1837 0.0000
-1.0000 0.2245 0.0000
-1.0000 0.2653 0.0000
-1.0000 0.3061 0.0000
-1.0000 0.3469 0.0000
-1.0000 0.3878 0.0000
-1.0000 0.4286 0.0000
-1.0000 0.4694 0.0000
-1.0000 0.5102 0.0000
-1.0000 0.5510 0.0000
-1.0000 0.5918 0.0000
-1.0000 0.6327 0.0000
-1.0000 0.6735 0.0000
-1.0000 0.7143 0.0000
-1.0000 0.7551 0.0000
-1.0000 0.7959 0.0000
-1.0000 0.8367 0.0000
-1.0000 0.8776 0.0000
-1.0000 0.9184 0.0000
-1.0000 0.9592 0.0000
-1.0000 1.0000 0.0000
-0.9592 -0.9592 0.0000
-0.9592 -0.9184 0.0000
-0.9592 -0.8776 0.0000
-0.9592 -0.8367 0.0000
-0.9592 -0.7959 0.0000
-0.9592 -0.7551 0.0000
-0.9592 -0.7143 0.0000
-0.9592 -0.6735 0.0000
-0.9592 -0.6327 0.0000
-0.9592 -0.5918 0.0000
-0.9592 -0.5510 0.0000
-0.9592 -0.5102 0.0000
-0.9592 -0.4694 0.0000
-0.9592 -0.4286 0.0000
-0.9592 -0.3878 0.0000
-0.9592 -0.3469 0.0000
-0.9592 -0.3061 0.0000
-0.9592 -0.2653 0.0000
-0.9592 -0.2245 0.0000
-0.9592 -0.1837 0.0000
-0.9592 -0.1429 0.0000
-0.9592 -0.1020 0.0000
-0.9592 -0.0612 0.0000
-0.9592 -0.0204 0.0000
-0.9592 0.0204 0.0000
-0.9592 0.0612 0.0000
-0.9592 0.1020 0.0000
-0.9592 0.1429 0.0000
-0.9592 0.1837 0.0000
-0.9592 0.2245 0.0000
-0.9592 0.2653 0.0000
-0.9592 0.3061 0.0000
-0.9592 0.3469 0.0000
-0.9592 0.3878 0.0000
-0.9592 0.4286 0.0000
-0.9592 0.4694 0.0000
-0.9592 0.5102 0.0000
-0.9592 0.5510 0.0000
-0.9592 0.5918 0.0000
-0.9592 0.6327 0.0000
-0.9592 0.6735 0.0000
-0.9592 0.7143 0.0000
-0.9592 0.7551 0.0000
-0.9592 0.7959 0.0000
-0.9592 0.8367 0.0000
-0.9592 0.8776 0.0000
-0.9592 0.9184 0.0000
-0.9592 0.9592 0.0000
-0.9592 1.0000 0.0000
-0.9184 -0.9592 0.0000
-0.9184 -0.9184 0.0000
-0.9184 -0.8776 0.0000
-0.9184 -0.8367 0.0000
-0.9184 -0.7959 0.0000
-0.9184 -0.7551 0.0000
-0.9184 -0.7143 0.0000
-0.9184 -0.6735 0.0000
-0.9184 -0.6327 0.0000
-0.9184 -0.5918 0.0000
-0.9184 -0.5510 0.0000
-0.9184 -0.5102 0.0000
-0.9184 -0.4694 0.0000
-0.9184 -0.4286 0.0000
-0.9184 -0.3878 0.0000
-0.9184 -0.3469 0.0000
-0.9184 -0.3061 0.0000
-0.9184 -0.2653 0.0000
-0.9184 -0.2245 0.0000
-0.9184 -0.1837 0.0000
-0.9184 -0.1429 0.0000
-0.9184 -0.1020 0.0000
-0.9184 -0.0612 0.0000
-0.9184 -0.0204 0.0000
-0.9184 0.0204 0.0000
-0.9184 0.0612 0.0000
-0.9184 0.1020 0.0000
-0.9184 0.1429 0.0000
-0.9184 0.1837 0.0000
-0.9184 0.2245 0.0000
-0.9184 0.2653 0.0000
-0.9184 0.3061 0.0000
-0.9184 0.3469 0.0000
-0.9184 0.3878 0.0000
-0.9184 0.4286 0.0000
-0.9184 0.4694 0.0000
-0.9184 0.5102 0.0000
-0.9184 0.5510 0.0000
-0.9184 0.5918 0.0000
-0.9184 0.6327 0.0000
-0.9184 0.6735 0.0000
-0.9184 0.7143 0.0000
-0.9184 0.7551 0.0000
-0.9184 0.7959 0.0000
-0.9184 0.8367 0.0000
-0.9184 0.8776 0.0000
-0.9184 0.9184 0.0000
-0.9184 0.9592 0.0000
-0.9184 1.0000 0.0000
-0.8776 -0.9592 0.0000
-0.8776 -0.9184 0.0000
-0.8776 -0.8776 0.0000
-0.8776 -0.8367 0.0000
-0.8776 -0.7959 0.0000
-0.8776 -0.7551 0.0000
-0.8776 -0.7143 0.0000
-0.8776 -0.6735 0.0000
-0.8776 -0.6327 0.0000
-0.8776 -0.5918 0.0000
-0.8776 -0.5510 0.0000
-0.8776 -0.5102 0.0000
-0.8776 -0.4694 0.0000
-0.8776 -0.4286 0.0000
-0.8776 -0.3878 0.0000
-0.8776 -0.3469 0.0000
-0.8776 -0.3061 0.0000
-0.8776 -0.2653 0.0000
-0.8776 -0.2245 0.0000
-0.8776 -0.1837 0.0000
-0.8776 -0.1429 0.0000
-0.8776 -0.1020 0.0000
-0.8776 -0.0612 0.0000
-0.8776 -0.0204 0.0000
-0.8776 0.0204 0.0000
-0.8776 0.0612 0.0000
-0.8776 0.1020 0.0000
-0.8776 0.1429 0.0000
-0.8776 0.1837 0.0000
-0.8776 0.2245 0.0000
-0.8776 0.2653 0.0000
-0.8776 0.3061 0.0000
-0.8776 0.3469 0.0000
-0.8776 0.3878 0.0000
-0.8776 0.4286 0.0000
-0.8776 0.4694 0.0000
-0.8776 0.5102 0.0000
-0.8776 0.5510 0.0000
-0.8776 0.5918 0.0000
-0.8776 0.6327 0.0000
-0.8776 0.6735 0.0000
-0.8776 0.7143 0.0000
-0.8776 0.7551 0.0000
-0.8776 0.7959 0.0000
-0.8776 0.8367 0.0000
-0.8776 0.8776 0.0000
-0.8776 0.9184 0.0000
-0.8776 0.9592 0.0000
-0.8776 1.0000 0.0000
-0.8367 -0.9592 0.0000
-0.8367 -0.9184 0.0000
-0.8367 -0.8776 0.0000
-0.8367 -0.8367 0.0000
-0.8367 -0.7959 0.0000
-0.8367 -0.7551 0.0000
-0.8367 -0.7143 0.0000
-0.8367 -0.6735 0.0000
-0.8367 -0.6327 0.0000
-0.8367 -0.5918 0.0000
-0.8367 -0.5510 0.0000
-0.8367 -0.5102 0.0000
-0.8367 -0.4694 0.0000
-0.8367 -0.4286 0.0000
-0.8367 -0.3878 0.0000
-0.8367 -0.3469 0.0000
-0.8367 -0.3061 0.0000
-0.8367 -0.2653 0.0000
-0.8367 -0.2245 0.0000
-0.8367 -0.1837 0.0000
-0.8367 -0.1429 0.0000
-0.8367 -0.1020 0.0000
-0.8367 -0.0612 0.0000
-0.8367 -0.0204 0.0000
-0.8367 0.0204 0.0000
-0.8367 0.0612 0.0000
-0.8367 0.1020 0.0000
-0.8367 0.1429 0.0000
-0.8367 0.1837 0.0000
-0.8367 0.2245 0.0000
-0.8367 0.2653 0.0000
-0.8367 0.3061 0.0000
-0.8367 0.3469 0.0000
-0.8367 0.3878 0.0000
-0.8367 0.4286 0.0000
-0.8367 0.4694 0.0000
-0.8367 0.5102 0.0000
-0.8367 0.5510 0.0000
-0.8367 0.5918 0.0000
-0.8367 0.6327 0.0000
-0.8367 0.6735 0.0000
-0.8367 0.7143 0.0000
-0.8367 0.7551 0.0000
-0.8367 0.7959 0.0000
-0.8367 0.8367 0.0000
-0.8367 0.8776 0.0000
-0.8367 0.9184 0.0000
-0.8367 0.9592 0.0000
-0.8367 1.0000 0.0000
-0.7959 -0.9592 0.0000
-0.7959 -0.9184 0.0000
-0.7959 -0.8776 0.0000
-0.7959 -0.8367 0.0000
-0.7959 -0.7959 0.0000
-0.7959 -0.7551 0.0000
-0.7959 -0.7143 0.0000
-0.7959 -0.6735 0.0000
-0.7959 -0.6327 0.0000
-0.7959 -0.5918 0.0000
-0.7959 -0.5510 0.0000
-0.7959 -0.5102 0.0000
-0.7959 -0.4694 0.0000
-0.7959 -0.4286 0.0000
-0.7959 -0.3878 0.0000
-0.7959 -0.3469 0.0000
-0.7959 -0.3061 0.0000
-0.7959 -0.2653 0.0000
-0.7959 -0.2245 0.0000
-0.7959 -0.1837 0.0000
-0.7959 -0.1429 0.0000
-0.7959 -0.1020 0.0000
-0.7959 -0.0612 0.0000
-0.7959 -0.0204 0.0000
-0.7959 0.0204 0.0000
-0.7959 0.0612 0.0000
-0.7959 0.1020 0.0000
-0.7959 0.1429 0.0000
-0.7959 0.1837 0.0000
-0.7959 0.2245 0.0000
-0.7959 0.2653 0.0000
-0.7959 0.3061 0.0000
-0.7959 0.3469 0.0000
-0.7959 0.3878 0.0000
-0.7959 0.4286 0.0000
-0.7959 0.4694 0.0000
-0.7959 0.5102 0.0000
-0.7959 0.5510 0.0000
-0.7959 0.5918 0.0000
-0.7959 0.6327 0.0000
-0.7959 0.6735 0.0000
-0.7959 0.7143 0.0000
-0.7959 0.7551 0.0000
-0.7959 0.7959 0.0000
-0.7959 0.8367 0.0000
-0.7959 0.8776 0.0000
-0.7959 0.9184 0.0000
-0.7959 0.9592 0.0000
-0.7959 1.0000 0.0000
-0.7551 -0.9592 0.0000
-0.7551 -0.9184 0.0000
-0.7551 -0.8776 0.0000
-0.7551 -0.8367 0.0000
-0.7551 -0.7959 0.0000
-0.7551 -0.7551 0.0000
-0.7551 -0.7143 0.0000
-0.7551 -0.6735 0.0000
-0.7551 -0.6327 0.0000
-0.7551 -0.5918 0.0000
-0.7551 -0.5510 0.0000
-0.7551 -0.5102 0.0000
-0.7551 -0.4694 0.0000
-0.7551 -0.4286 0.0000
-0.7551 -0.3878 0.0000
-0.7551 -0.3469 0.0000
-0.7551 -0.3061 0.0000
-0.7551 -0.2653 0.0000
-0.7551 -0.2245 0.0000
-0.7551 -0.1837 0.0000
-0.7551 -0.1429 0.0000
-0.7551 -0.1020 0.0000
-0.7551 -0.0612 0.0000
-0.7551 -0.0204 0.0000
-0.7551 0.0204 0.0000
-0.7551 0.0612 0.0000
-0.7551 0.1020 0.0000
-0.7551 0.1429 0.0000
-0.7551 0.1837 0.0000
-0.7551 0.2245 0.0000
-0.7551 0.2653 0.0000
-0.7551 0.3061 0.0000
-0.7551 0.3469 0.0000
-0.7551 0.3878 0.0000
-0.7551 0.4286 0.0000
-0.7551 0.4694 0.0000
-0.7551 0.5102 0.0000
-0.7551 0.5510 0.0000
-0.7551 0.5918 0.0000
-0.7551 0.6327 0.0000
-0.7551 0.6735 0.0000
-0.7551 0.7143 0.0000
-0.7551 0.7551 0.0000
-0.7551 0.7959 0.0000
-0.7551 0.8367 0.0000
-0.7551 0.8776 0.0000
-0.7551 0.9184 0.0000
-0.7551 0.9592 0.0000
-0.7551 1.0000 0.0000
-0.7143 -0.9592 0.0000
-0.7143 -0.9184 0.0000
-0.7143 -0.8776 0.0000
-0.7143 -0.8367 0.0000
-0.7143 -0.7959 0.0000
-0.7143 -0.7551 0.0000
-0.7143 -0.7143 0.0000
-0.7143 -0.6735 0.0000
-0.7143 -0.6327 0.0000
-0.7143 -0.5918 0.0000
-0.7143 -0.5510 0.0000
-0.7143 -0.5102 0.0000
-0.7143 -0.4694 0.0000
-0.7143 -0.4286 0.0000
-0.7143 -0.3878 0.0000
-0.7143 -0.3469 0.0000
-0.7143 -0.3061 0.0000
-0.7143 -0.2653 0.0000
-0.7143 -0.2245 0.0000
-0.7143 -0.1837 0.0000
-0.7143 -0.1429 0.0000
-0.7143 -0.1020 0.0000
-0.7143 -0.0612 0.0000
-0.7143 -0.0204 0.0000
-0.7143 0.0204 0.0000
-0.7143 0.0612 0.0000
-0.7143 0.1020 0.0000
-0.7143 0.1429 0.0000
-0.7143 0.1837 0.0000
-0.7143 0.2245 0.0000
-0.7143 0.2653 0.0000
-0.7143 0.3061 0.0000
-0.7143 0.3469 0.0000
-0.7143 0.3878 0.0000
-0.7143 0.4286 0.0000
-0.7143 0.4694 0.0000
-0.7143 0.5102 0.0000
-0.7143 0.5510 0.0000
-0.7143 0.5918 0.0000
-0.7143 0.6327 0.0000
-0.7143 0.6735 0.0000
-0.7143 0.7143 0.0000
-0.7143 0.7551 0.0000
-0.7143 0.7959 0.0000
-0.7143 0.8367 0.0000
-0.7143 0.8776 0.0000
-0.7143 0.9184 0.0000
-0.7143 0.9592 0.0000
-0.7143 1.0000 0.0000
-0.6735 -0.9592 0.0000
-0.6735 -0.9184 0.0000
-0.6735 -0.8776 0.0000
-0.6735 -0.8367 0.0000
-0.6735 -0.7959 0.0000
-0.6735 -0.7551 0.0000
-0.6735 -0.7143 0.0000
-0.6735 -0.6735 0.0000
-0.6735 -0.6327 0.0000
-0.6735 -0.5918 0.0000
-0.6735 -0.5510 0.0000
-0.6735 -0.5102 0.0000
-0.6735 -0.4694 0.0000
-0.6735 -0.4286 0.0000
-0.6735 -0.3878 0.0000
-0.6735 -0.3469 0.0000
-0.6735 -0.3061 0.0000
-0.6735 -0.2653 0.0000
-0.6735 -0.2245 0.0000
-0.6735 -0.1837 0.0000
-0.6735 -0.1429 0.0000
-0.6735 -0.1020 0.0000
-0.6735 -0.0612 0.0000
-0.6735 -0.0204 0.0000
-0.6735 0.0204 0.0000
-0.6735 0.0612 0.0000
-0.6735 0.1020 0.0000
-0.6735 0.1429 0.0000
-0.6735 0.1837 0.0000
-0.6735 0.2245 0.0000
-0.6735 0.2653 0.0000
-0.6735 0.3061 0.0000
-0.6735 0.3469 0.0000
-0.6735 0.3878 0.0000
-0.6735 0.4286 0.0000
-0.6735 0.4694 0.0000
-0.6735 0.5102 0.0000
-0.6735 0.5510 0.0000
-0.6735 0.5918 0.0000
[...]
         <PointData>
            <DataArray Name="fValues" NumberOfComponents="3" format="ascii" type="Float64">
 2.08768e-02  1.99202e-19        00000 
 4.17536e-02 -2.44540e-19        00000 
 6.26303e-02 -4.38553e-19        00000 
 8.35071e-02 -8.15134e-20        00000 
 1.04384e-01 -1.60451e-19        00000 
 1.25261e-01  1.30422e-18        00000 
 1.46137e-01 -2.74205e-18        00000 
 1.67014e-01  1.57593e-18        00000 
 1.87891e-01 -6.14494e-20        00000 
 2.08768e-01  2.01066e-18        00000 
 2.29645e-01 -1.47562e-18        00000 
 2.50521e-01  1.14119e-18        00000 
 2.71398e-01 -5.12078e-19        00000 
 2.92275e-01        00000        00000 
 3.13152e-01 -7.33762e-19        00000 
 3.34029e-01 -7.60792e-19        00000 
 3.54905e-01  7.33979e-19        00000 
 3.75782e-01 -8.15134e-19        00000 
 3.96659e-01 -2.31000e-19        00000 
 4.17536e-01 -1.35856e-18        00000 
 4.38412e-01  1.52941e-18        00000 
 4.59289e-01  2.17369e-19        00000 
 4.80166e-01 -1.50556e-18        00000 
 5.01043e-01  9.78161e-19        00000 
 5.21920e-01 -1.23582e-18        00000 
 5.42796e-01  1.08685e-19        00000 
 5.63673e-01 -3.05830e-18        00000 
 5.84550e-01  1.52158e-18        00000 
 6.05427e-01 -8.94430e-19        00000 
 6.26303e-01 -5.43423e-19        00000 
 6.47180e-01 -4.43978e-18        00000 
 6.68057e-01  1.63027e-18        00000 
 6.88934e-01 -3.14075e-19        00000 
 7.09811e-01  9.78161e-19        00000 
 7.30687e-01 -2.85359e-18        00000 
 7.51564e-01        00000        00000 
 7.72441e-01 -1.98004e-19        00000 
 7.93318e-01  1.52158e-18        00000 
 8.14194e-01 -3.28914e-18        00000 
 8.35071e-01  1.30422e-18        00000 
 8.55948e-01  2.38970e-19        00000 
 8.76825e-01  1.24987e-18        00000 
 8.97702e-01 -1.13707e-18        00000 
 9.18578e-01  1.24987e-18        00000 
 9.39455e-01 -9.08086e-19        00000 
 9.60332e-01  7.06450e-19        00000 
 9.81209e-01        00000        00000 
 1.00209e+00  1.64425e-19        00000 
 1.02296e+00 -1.49930e-19        00000 
 1.93332e-02 -1.52257e-03        00000 
 3.94038e-02 -2.44645e-03        00000 
 5.96618e-02 -3.11674e-03        00000 
 8.00221e-02 -3.64539e-03        00000 
 1.00444e-01 -4.07823e-03        00000 
 1.20909e-01 -4.43837e-03        00000 
 1.41406e-01 -4.73857e-03        00000 
 1.61929e-01 -4.98648e-03        00000 
 1.82474e-01 -5.18727e-03        00000 
 2.03039e-01 -5.34499e-03        00000 
 2.23624e-01 -5.46301e-03        00000 
 2.44230e-01 -5.54468e-03        00000 
 2.64861e-01 -5.59531e-03        00000 
 2.85520e-01 -5.62421e-03        00000 
 3.06209e-01 -5.64113e-03        00000 
 3.26925e-01 -5.65891e-03        00000 
 3.47665e-01 -5.68818e-03        00000 
 3.68428e-01 -5.73929e-03        00000 
 3.89210e-01 -5.82287e-03        00000 
 4.10003e-01 -5.94805e-03        00000 
 4.30799e-01 -6.11762e-03        00000 
 4.51591e-01 -6.33264e-03        00000 
 4.72367e-01 -6.58951e-03        00000 
 4.93119e-01 -6.88236e-03        00000 
 5.13838e-01 -7.20190e-03        00000 
 5.34519e-01 -7.53651e-03        00000 
 5.55157e-01 -7.87277e-03        00000 
 5.75750e-01 -8.19621e-03        00000 
 5.96297e-01 -8.49362e-03        00000 
 6.16803e-01 -8.75028e-03        00000 
 6.37270e-01 -8.95653e-03        00000 
 6.57704e-01 -9.10227e-03        00000 
 6.78111e-01 -9.18156e-03        00000 
 6.98497e-01 -9.18869e-03        00000 
 7.18866e-01 -9.12128e-03        00000 
 7.39225e-01 -8.97693e-03        00000 
 7.59580e-01 -8.75518e-03        00000 
 7.79939e-01 -8.45900e-03        00000 
 8.00308e-01 -8.09404e-03        00000 
 8.20689e-01 -7.66753e-03        00000 
 8.41079e-01 -7.18608e-03        00000 
 8.61474e-01 -6.65422e-03        00000 
 8.81867e-01 -6.07347e-03        00000 
 9.02247e-01 -5.44084e-03        00000 
 9.22597e-01 -4.74618e-03        00000 
 9.42889e-01 -3.96632e-03        00000 
 9.63071e-01 -3.05037e-03        00000 
 9.83030e-01 -1.86702e-03        00000 
 1.00209e+00 -1.39810e-19        00000 
 1.83672e-02 -2.28050e-03        00000 
 3.75097e-02 -4.06572e-03        00000 
 5.70704e-02 -5.44419e-03        00000 
 7.68504e-02 -6.55183e-03        00000 
 9.67679e-02 -7.46524e-03        00000 
 1.16779e-01 -8.22841e-03        00000 
 1.36860e-01 -8.86749e-03        00000 
 1.56996e-01 -9.39864e-03        00000 
 1.77179e-01 -9.83291e-03        00000 
 1.97406e-01 -1.01796e-02        00000 
 2.17674e-01 -1.04473e-02        00000 
 2.37985e-01 -1.06435e-02        00000 
 2.58350e-01 -1.07783e-02        00000 
 2.78782e-01 -1.08682e-02        00000 
 2.99276e-01 -1.09375e-02        00000 
 3.19836e-01 -1.09961e-02        00000 
 3.40453e-01 -1.10771e-02        00000 
 3.61120e-01 -1.12051e-02        00000 
 3.81933e-01 -1.14710e-02        00000 
 4.02685e-01 -1.17635e-02        00000 
 4.23438e-01 -1.21237e-02        00000 
 4.44295e-01 -1.26131e-02        00000 
 4.65041e-01 -1.31602e-02        00000 
 4.85714e-01 -1.37347e-02        00000 
 5.06291e-01 -1.43242e-02        00000 
 5.26737e-01 -1.48964e-02        00000 
 5.47113e-01 -1.54752e-02        00000 
 5.67282e-01 -1.59786e-02        00000 
 5.87444e-01 -1.64709e-02        00000 
 6.07534e-01 -1.68996e-02        00000 
 6.27473e-01 -1.72023e-02        00000 
 6.47421e-01 -1.74475e-02        00000 
 6.67313e-01 -1.75653e-02        00000 
 6.87160e-01 -1.75492e-02        00000 
 7.06973e-01 -1.73916e-02        00000 
 7.26761e-01 -1.70887e-02        00000 
 7.46544e-01 -1.66409e-02        00000 
 7.66337e-01 -1.60507e-02        00000 
 7.86155e-01 -1.53272e-02        00000 
 8.06002e-01 -1.44820e-02        00000 
 8.25871e-01 -1.35251e-02        00000 
 8.45752e-01 -1.24624e-02        00000 
 8.65630e-01 -1.12944e-02        00000 
 8.85477e-01 -1.00125e-02        00000 
 9.05257e-01 -8.59441e-03        00000 
 9.24909e-01 -6.99449e-03        00000 
 9.44323e-01 -5.12645e-03        00000 
 9.63243e-01 -2.83034e-03        00000 
 9.81209e-01 -1.37013e-19        00000 
 1.76276e-02 -2.83737e-03        00000 
 3.59759e-02 -5.23971e-03        00000 
 5.48199e-02 -7.23787e-03        00000 
 7.39836e-02 -8.90150e-03        00000 
 9.33579e-02 -1.03001e-02        00000 
 1.12880e-01 -1.14828e-02        00000 
 1.32510e-01 -1.24827e-02        00000 
 1.52227e-01 -1.33211e-02        00000 
 1.72017e-01 -1.40127e-02        00000 
 1.91878e-01 -1.45704e-02        00000 
 2.11805e-01 -1.50085e-02        00000 
 2.31795e-01 -1.53408e-02        00000 
 2.51872e-01 -1.55826e-02        00000 
 2.72065e-01 -1.57612e-02        00000 
 2.92362e-01 -1.58885e-02        00000 
 3.12877e-01 -1.61373e-02        00000 
 3.33506e-01 -1.64326e-02        00000 
 3.54202e-01 -1.67946e-02        00000 
 3.75004e-01 -1.72528e-02        00000 
 3.95758e-01 -1.77302e-02        00000 
 4.16523e-01 -1.82870e-02        00000 
 4.37309e-01 -1.89271e-02        00000 
 4.58006e-01 -1.96279e-02        00000 
 4.78591e-01 -2.04039e-02        00000 
 4.99033e-01 -2.12227e-02        00000 
 5.19313e-01 -2.20634e-02        00000 
 5.39416e-01 -2.28816e-02        00000 
 5.59325e-01 -2.36522e-02        00000 
 5.79077e-01 -2.43183e-02        00000 
 5.98689e-01 -2.48487e-02        00000 
 6.18073e-01 -2.51678e-02        00000 
 6.37313e-01 -2.53211e-02        00000 
 6.56621e-01 -2.53580e-02        00000 
 6.75783e-01 -2.51944e-02        00000 
 6.94998e-01 -2.49124e-02        00000 
 7.14170e-01 -2.44412e-02        00000 
 7.33330e-01 -2.37629e-02        00000 
 7.52509e-01 -2.28791e-02        00000 
 7.71735e-01 -2.18001e-02        00000 
 7.91010e-01 -2.05414e-02        00000 
 8.10325e-01 -1.91142e-02        00000 
 8.29661e-01 -1.75257e-02        00000 
 8.48992e-01 -1.57761e-02        00000 
 8.68277e-01 -1.38541e-02        00000 
 8.87456e-01 -1.17314e-02        00000 
 9.06441e-01 -9.35790e-03        00000 
 9.25082e-01 -6.65660e-03        00000 
 9.43148e-01 -3.54839e-03        00000 
 9.60332e-01 -1.12994e-19        00000 
 1.70016e-02 -3.28543e-03        00000 
 3.46640e-02 -6.18175e-03        00000 
 5.28375e-02 -8.69382e-03        00000 
 7.13836e-02 -1.08569e-02        00000 
 9.01968e-02 -1.27166e-02        00000 
 1.09205e-01 -1.43139e-02        00000 
 1.28359e-01 -1.56808e-02        00000 
 1.47627e-01 -1.68398e-02        00000 
 1.66994e-01 -1.78058e-02        00000 
 1.86458e-01 -1.85897e-02        00000 
 2.06018e-01 -1.92054e-02        00000 
 2.25653e-01 -1.96639e-02        00000 
 2.45425e-01 -2.00192e-02        00000 
 2.65484e-01 -2.04331e-02        00000 
 2.85807e-01 -2.09496e-02        00000 
 3.06263e-01 -2.14397e-02        00000 
 3.26802e-01 -2.19001e-02        00000 
 3.47445e-01 -2.23677e-02        00000 
 3.68030e-01 -2.27487e-02        00000 
 3.88756e-01 -2.32505e-02        00000 
 4.09437e-01 -2.38220e-02        00000 
 4.30148e-01 -2.45241e-02        00000 
 4.50800e-01 -2.53458e-02        00000 
 4.71328e-01 -2.62988e-02        00000 
 4.91671e-01 -2.73499e-02        00000 
 5.11820e-01 -2.84736e-02        00000 
 5.31693e-01 -2.95834e-02        00000 
 5.51388e-01 -3.06606e-02        00000 
 5.70776e-01 -3.16087e-02        00000 
 5.89889e-01 -3.23309e-02        00000 
 6.08876e-01 -3.28620e-02        00000 
 6.27588e-01 -3.30778e-02        00000 
 6.46213e-01 -3.29833e-02        00000 
 6.64672e-01 -3.25727e-02        00000 
 6.83031e-01 -3.19037e-02        00000 
 7.01444e-01 -3.11231e-02        00000 
 7.19937e-01 -3.02085e-02        00000 
 7.38448e-01 -2.90395e-02        00000 
 7.57043e-01 -2.76137e-02        00000 
 7.75712e-01 -2.59474e-02        00000 
 7.94441e-01 -2.40561e-02        00000 
 8.13206e-01 -2.19525e-02        00000 
 8.31970e-01 -1.96400e-02        00000 
 8.50675e-01 -1.71086e-02        00000 
 8.69246e-01 -1.43330e-02        00000 
 8.87577e-01 -1.12734e-02        00000 
 9.05520e-01 -7.88268e-03        00000 
 9.22884e-01 -4.12450e-03        00000 
 9.39455e-01 -7.00463e-19        00000 
 1.64442e-02 -3.66971e-03        00000 
 3.34974e-02 -6.98316e-03        00000 
 5.10535e-02 -9.93540e-03        00000 
 6.90042e-02 -1.25415e-02        00000 
 8.72568e-02 -1.48281e-02        00000 
 1.05739e-01 -1.68237e-02        00000 
 1.24399e-01 -1.85531e-02        00000 
 1.43197e-01 -2.00357e-02        00000 
 1.62110e-01 -2.12863e-02        00000 
 1.81145e-01 -2.23181e-02        00000 
 2.00328e-01 -2.31459e-02        00000 
 2.19656e-01 -2.38423e-02        00000 
 2.39335e-01 -2.46049e-02        00000 
 2.59278e-01 -2.53370e-02        00000 
 2.79415e-01 -2.59814e-02        00000 
 2.99561e-01 -2.64407e-02        00000 
 3.19952e-01 -2.68839e-02        00000 
 3.40332e-01 -2.72030e-02        00000 
 3.60861e-01 -2.75954e-02        00000 
 3.81533e-01 -2.80944e-02        00000 
 4.02307e-01 -2.87702e-02        00000 
 4.23068e-01 -2.96171e-02        00000 
 4.43745e-01 -3.06243e-02        00000 
 4.64258e-01 -3.17719e-02        00000 
 4.84537e-01 -3.30375e-02        00000 
 5.04521e-01 -3.43652e-02        00000 
 5.24156e-01 -3.56881e-02        00000 
 5.43418e-01 -3.69288e-02        00000 
 5.62397e-01 -3.80737e-02        00000 
 5.81027e-01 -3.90257e-02        00000 
 5.99468e-01 -3.97391e-02        00000 
 6.17673e-01 -4.01296e-02        00000 
 6.35648e-01 -4.00699e-02        00000 
 6.53585e-01 -3.96712e-02        00000 
 6.71297e-01 -3.88266e-02        00000 
 6.88935e-01 -3.76400e-02        00000 
 7.06488e-01 -3.61969e-02        00000 
 7.24140e-01 -3.46577e-02        00000 
 7.42073e-01 -3.28778e-02        00000 
 7.60103e-01 -3.08003e-02        00000 
 7.78220e-01 -2.84515e-02        00000 
 7.96399e-01 -2.58487e-02        00000 
 8.14587e-01 -2.30004e-02        00000 
 8.32713e-01 -1.99018e-02        00000 
 8.50689e-01 -1.65362e-02        00000 
 8.68408e-01 -1.28792e-02        00000 
 8.85733e-01 -8.90709e-03        00000 
 9.02510e-01 -4.60901e-03        00000 
 9.18578e-01  2.67402e-19        00000 
 1.59339e-02 -4.01260e-03        00000 
 3.24345e-02 -7.69450e-03        00000 
 4.94204e-02 -1.10366e-02        00000 
 6.68053e-02 -1.40423e-02        00000 
 8.45097e-02 -1.67244e-02        00000 
 1.02466e-01 -1.91000e-02        00000 
 1.20620e-01 -2.11839e-02        00000 
 1.38932e-01 -2.29870e-02        00000 
 1.57361e-01 -2.45085e-02        00000 
 1.75929e-01 -2.57728e-02        00000 
 1.94839e-01 -2.69858e-02        00000 
 2.13997e-01 -2.81181e-02        00000 
 2.33398e-01 -2.91016e-02        00000 
 2.52982e-01 -2.98743e-02        00000 
 2.72718e-01 -3.04238e-02        00000 
 2.92642e-01 -3.08527e-02        00000 
 3.12766e-01 -3.12071e-02        00000 
 3.33169e-01 -3.16364e-02        00000 
 3.53712e-01 -3.21104e-02        00000 
 3.74436e-01 -3.27004e-02        00000 
 3.95289e-01 -3.34537e-02        00000 
 4.16138e-01 -3.44047e-02        00000 
 4.36888e-01 -3.55504e-02        00000 
 4.57433e-01 -3.68797e-02        00000 
 4.77674e-01 -3.83553e-02        00000 
 4.97523e-01 -3.99163e-02        00000 
 5.16913e-01 -4.14788e-02        00000 
 5.35825e-01 -4.29668e-02        00000 
 5.54325e-01 -4.42971e-02        00000 
 5.72409e-01 -4.53806e-02        00000 
 5.90147e-01 -4.61198e-02        00000 
 6.07578e-01 -4.64605e-02        00000 
 6.24924e-01 -4.64726e-02        00000 
 6.42205e-01 -4.60829e-02        00000 
 6.59246e-01 -4.51353e-02        00000 
 6.76377e-01 -4.37826e-02        00000 
 6.93134e-01 -4.20025e-02        00000 
 7.09771e-01 -3.99185e-02        00000 
 7.26824e-01 -3.76589e-02        00000 
 7.44178e-01 -3.51858e-02        00000 
 7.61661e-01 -3.23956e-02        00000 
 7.79249e-01 -2.93128e-02        00000 
 7.96866e-01 -2.59579e-02        00000 
 8.14428e-01 -2.23351e-02        00000 
 8.31841e-01 -1.84388e-02        00000 
 8.48998e-01 -1.42585e-02        00000 
 8.65779e-01 -9.78661e-03        00000 
 8.82056e-01 -5.02669e-03        00000 
 8.97702e-01 -1.40165e-19        00000 
 1.54602e-02 -4.32742e-03        00000 
 3.14523e-02 -8.34592e-03        00000 
 4.79090e-02 -1.20446e-02        00000 
 6.47585e-02 -1.54197e-02        00000 
 8.19330e-02 -1.84739e-02        00000 
 9.93716e-02 -2.12150e-02        00000 
 1.17017e-01 -2.36511e-02        00000 
 1.34830e-01 -2.57820e-02        00000 
 1.52764e-01 -2.76266e-02        00000 
 1.71020e-01 -2.93390e-02        00000 
 1.89571e-01 -3.08781e-02        00000 
 2.08420e-01 -3.22304e-02        00000 
 2.27322e-01 -3.32064e-02        00000 
 2.46469e-01 -3.39868e-02        00000 
 2.65904e-01 -3.45941e-02        00000 
 2.85645e-01 -3.50413e-02        00000 
 3.05656e-01 -3.54756e-02        00000 
 3.25990e-01 -3.59054e-02        00000 
 3.46529e-01 -3.63703e-02        00000 
 3.67312e-01 -3.69588e-02        00000 
 3.88307e-01 -3.77531e-02        00000 
 4.09312e-01 -3.87883e-02        00000 
 4.30206e-01 -4.00723e-02        00000 
 4.50847e-01 -4.15799e-02        00000 
 4.71101e-01 -4.32777e-02        00000 
 4.90847e-01 -4.50861e-02        00000 
 5.09997e-01 -4.69014e-02        00000 
 5.28506e-01 -4.86256e-02        00000 
 5.46506e-01 -5.01932e-02        00000 
 5.64002e-01 -5.14529e-02        00000 
 5.80982e-01 -5.22791e-02        00000 
 5.97638e-01 -5.26429e-02        00000 
 6.14124e-01 -5.25261e-02        00000 
 6.30436e-01 -5.19378e-02        00000 
 6.46890e-01 -5.08850e-02        00000 
 6.63375e-01 -4.93364e-02        00000 
 6.79675e-01 -4.73740e-02        00000 
 6.95774e-01 -4.49515e-02        00000 
 7.11886e-01 -4.22590e-02        00000 
 7.27927e-01 -3.92184e-02        00000 
 7.44757e-01 -3.59913e-02        00000 
 7.61765e-01 -3.24368e-02        00000 
 7.78827e-01 -2.85965e-02        00000 
 7.95853e-01 -2.44861e-02        00000 
 8.12741e-01 -2.01091e-02        00000 
 8.29391e-01 -1.54646e-02        00000 
 8.45693e-01 -1.05552e-02        00000 
 8.61539e-01 -5.39237e-03        00000 
 8.76825e-01  4.10947e-19        00000 
 1.50184e-02 -4.62246e-03        00000 
 3.05395e-02 -8.95625e-03        00000 
 4.65034e-02 -1.29900e-02        00000 
 6.28471e-02 -1.67157e-02        00000 
 7.95117e-02 -2.01287e-02        00000 
 9.64468e-02 -2.32276e-02        00000 
 1.13590e-01 -2.60105e-02        00000 
 1.30886e-01 -2.85015e-02        00000 
 1.48376e-01 -3.07307e-02        00000 
 1.66236e-01 -3.27400e-02        00000 
 1.84303e-01 -3.44506e-02        00000 
 2.02645e-01 -3.58570e-02        00000 
 2.21106e-01 -3.69590e-02        00000 
 2.39954e-01 -3.78871e-02        00000 
 2.59082e-01 -3.85898e-02        00000 
 2.78603e-01 -3.91584e-02        00000 
 2.98430e-01 -3.95509e-02        00000 
 3.18703e-01 -3.99527e-02        00000 
 3.39291e-01 -4.03997e-02        00000 
 3.60210e-01 -4.09840e-02        00000 
 3.81448e-01 -4.18364e-02        00000 
 4.02712e-01 -4.29711e-02        00000 
 4.23843e-01 -4.44032e-02        00000 
 4.44666e-01 -4.61056e-02        00000 
 4.65001e-01 -4.80372e-02        00000 
 4.84684e-01 -5.01072e-02        00000 
 5.03584e-01 -5.21749e-02        00000 
 5.21630e-01 -5.41288e-02        00000 
 5.39065e-01 -5.59017e-02        00000 
 5.55813e-01 -5.72999e-02        00000 
 5.71966e-01 -5.82045e-02        00000 
 5.87704e-01 -5.85647e-02        00000 
 6.03305e-01 -5.83860e-02        00000 
 6.18732e-01 -5.75807e-02        00000 
 6.34220e-01 -5.62293e-02        00000 
 6.49732e-01 -5.43393e-02        00000 
 6.65443e-01 -5.20341e-02        00000 
 6.81197e-01 -4.93501e-02        00000 
 6.96863e-01 -4.63003e-02        00000 
 7.12187e-01 -4.29644e-02        00000 
 7.27779e-01 -3.93161e-02        00000 
 7.43940e-01 -3.52948e-02        00000 
 7.60483e-01 -3.09812e-02        00000 
 7.77010e-01 -2.64112e-02        00000 
 7.93420e-01 -2.15932e-02        00000 
 8.09613e-01 -1.65318e-02        00000 
 8.25494e-01 -1.12342e-02        00000 
 8.40968e-01 -5.71531e-03        00000 
 8.55948e-01  3.33084e-19        00000 
 1.46068e-02 -4.90298e-03        00000 
 2.96907e-02 -9.53711e-03        00000 
 4.51962e-02 -1.38910e-02        00000 
 6.10644e-02 -1.79558e-02        00000 
 7.72404e-02 -2.17231e-02        00000 
 9.36929e-02 -2.51916e-02        00000 
 1.10345e-01 -2.83352e-02        00000 
 1.27050e-01 -3.11002e-02        00000 
 1.44071e-01 -3.36042e-02        00000 
 1.61455e-01 -3.58647e-02        00000 
 1.79035e-01 -3.77856e-02        00000 
 1.96872e-01 -3.94396e-02        00000 
 2.14964e-01 -4.07466e-02        00000 
 2.33417e-01 -4.17909e-02        00000 
 2.52181e-01 -4.25404e-02        00000 
 2.71434e-01 -4.31265e-02        00000 
 2.91113e-01 -4.35473e-02        00000 
 3.11382e-01 -4.39713e-02        00000 
 3.32031e-01 -4.43877e-02        00000 
 3.53139e-01 -4.49495e-02        00000 
 3.74680e-01 -4.57974e-02        00000 
 3.96287e-01 -4.69700e-02        00000 
 4.17770e-01 -4.85175e-02        00000 
 4.38882e-01 -5.04191e-02        00000 
 4.59384e-01 -5.26033e-02        00000 
 4.79058e-01 -5.49633e-02        00000 
 4.97728e-01 -5.73403e-02        00000 
 5.15325e-01 -5.95996e-02        00000 
 5.32118e-01 -6.16269e-02        00000 
 5.48068e-01 -6.31890e-02        00000 
 5.63241e-01 -6.41402e-02        00000 
 5.77882e-01 -6.44061e-02        00000 
 5.92409e-01 -6.40392e-02        00000 
 6.06800e-01 -6.30157e-02        00000 
 6.21374e-01 -6.13914e-02        00000 
 6.36002e-01 -5.91808e-02        00000 
 6.50755e-01 -5.64762e-02        00000 
 6.65957e-01 -5.33817e-02        00000 
 6.81275e-01 -4.99049e-02        00000 
 6.96355e-01 -4.61785e-02        00000 
 7.11074e-01 -4.22101e-02        00000 
 7.26062e-01 -3.79105e-02        00000 
 7.41835e-01 -3.31571e-02        00000 
 7.57916e-01 -2.81452e-02        00000 
 7.73897e-01 -2.29187e-02        00000 
 7.89685e-01 -1.74804e-02        00000 
 8.05196e-01 -1.18360e-02        00000 
 8.20349e-01 -6.00086e-03        00000 
 8.35071e-01  1.06305e-18        00000 
 1.42258e-02 -5.17220e-03        00000 
 2.89045e-02 -1.00959e-02        00000 
 4.39837e-02 -1.47581e-02        00000 
 5.94092e-02 -1.91494e-02        00000 
 7.51157e-02 -2.32598e-02        00000 
 9.11010e-02 -2.70874e-02        00000 
 1.07081e-01 -3.04596e-02        00000 