<?xml version="1.0" encoding="utf-8"?>
<VTKFile byte_order="LittleEndian" type="UnstructuredGrid" version="0.1">
   <UnstructuredGrid>
      <Piece NumberOfCells="9604" NumberOfPoints="4901">
         <Points>
            <DataArray Name="Points" NumberOfComponents="3" format="ascii" type="Float32">
-1.0000 -1.0000 0.0000
-1.0000 -0.9592 0.0000
-1.0000 -0.9184 0.0000
-1.0000 -0.8776 0.0000
-1.0000 -0.8367 0.0000
-1.0000 -0.7959 0.0000
-1.0000 -0.7551 0.0000
-1.0000 -0.7143 0.0000
-1.0000 -0.6735 0.0000
-1.0000 -0.6327 0.0000
-1.0000 -0.5918 0.0000
-1.0000 -0.5510 0.0000
-1.0000 -0.5102 0.0000
-1.0000 -0.4694 0.0000
-1.0000 -0.4286 0.0000
-1.0000 -0.3878 0.0000
-1.0000 -0.3469 0.0000
-1.0000 -0.3061 0.0000
-1.0000 -0.2653 0.0000
-1.0000 -0.2245 0.0000
-1.0000 -0.1837 0.0000
-1.0000 -0.1429 0.0000
-1.0000 -0.1020 0.0000
-1.0000 -0.0612 0.0000
-1.0000 -0.0204 0.0000
-1.0000 0.0204 0.0000
-1.0000 0.0612 0.0000
-1.0000 0.1020 0.0000
-1.0000 0.1429 0.0000
-1.0000 0.1837 0.0000
-1.0000 0.2245 0.0000
-1.0000 0.2653 0.0000
-1.0000 0.3061 0.0000
-1.0000 0.3469 0.0000
-1.0000 0.3878 0.0000
-1.0000 0.4286 0.0000
-1.0000 0.4694 0.0000
-1.0000 0.5102 0.0000
-1.0000 0.5510 0.0000
-1.0000 0.5918 0.0000
-1.0000 0.6327 0.0000
-1.0000 0.6735 0.0000
-1.0000 0.7143 0.0000
-1.0000 0.7551 0.0000
-1.0000 0.7959 0.0000
-1.0000 0.8367 0.0000
-1.0000 0.8776 0.0000
-1.0000 0.9184 0.0000
-1.0000 0.9592 0.0000
-1.0000 1.0000 0.0000
-0.9592 -1.0000 0.0000
-0.9592 -0.9592 0.0000
-0.9592 -0.9184 0.0000
-0.9592 -0.8776 0.0000
-0.9592 -0.8367 0.0000
-0.9592 -0.7959 0.0000
-0.9592 -0.7551 0.0000
-0.9592 -0.7143 0.0000
-0.9592 -0.6735 0.0000
-0.9592 -0.6327 0.0000
-0.9592 -0.5918 0.0000
-0.9592 -0.5510 0.0000
-0.9592 -0.5102 0.0000
-0.9592 -0.4694 0.0000
-0.9592 -0.4286 0.0000
-0.9592 -0.3878 0.0000
-0.9592 -0.3469 0.0000
-0.9592 -0.3061 0.0000
-0.9592 -0.2653 0.0000
-0.9592 -0.2245 0.0000
-0.9592 -0.1837 0.0000
-0.9592 -0.1429 0.0000
-0.9592 -0.1020 0.0000
-0.9592 -0.0612 0.0000
-0.9592 -0.0204 0.0000
-0.9592 0.0204 0.0000
-0.9592 0.0612 0.0000
-0.9592 0.1020 0.0000
-0.9592 0.1429 0.0000
-0.9592 0.1837 0.0000
-0.9592 0.2245 0.0000
-0.9592 0.2653 0.0000
-0.9592 0.3061 0.0000
-0.9592 0.3469 0.0000
-0.9592 0.3878 0.0000
-0.9592 0.4286 0.0000
-0.9592 0.4694 0.0000
-0.9592 0.5102 0.0000
-0.9592 0.5510 0.0000
-0.9592 0.5918 0.0000
-0.9592 0.6327 0.0000
-0.9592 0.6735 0.0000
-0.9592 0.7143 0.0000
-0.9592 0.7551 0.0000
-0.9592 0.7959 0.0000
-0.9592 0.8367 0.0000
-0.9592 0.8776 0.0000
-0.9592 0.9184 0.0000
-0.9592 0.9592 0.0000
-0.9592 1.0000 0.0000
-0.9184 -1.0000 0.0000
-0.9184 -0.9592 0.0000
-0.9184 -0.9184 0.0000
-0.9184 -0.8776 0.0000
-0.9184 -0.8367 0.0000
-0.9184 -0.7959 0.0000
-0.9184 -0.7551 0.0000
-0.9184 -0.7143 0.0000
-0.9184 -0.6735 0.0000
-0.9184 -0.6327 0.0000
-0.9184 -0.5918 0.0000
-0.9184 -0.5510 0.0000
-0.9184 -0.5102 0.0000
-0.9184 -0.4694 0.0000
-0.9184 -0.4286 0.0000
-0.9184 -0.3878 0.0000
-0.9184 -0.3469 0.0000
-0.9184 -0.3061 0.0000
-0.9184 -0.2653 0.0000
-0.9184 -0.2245 0.0000
-0.9184 -0.1837 0.0000
-0.9184 -0.1429 0.0000
-0.9184 -0.1020 0.0000
-0.9184 -0.0612 0.0000
-0.9184 -0.0204 0.0000
-0.9184 0.0204 0.0000
-0.9184 0.0612 0.0000
-0.9184 0.1020 0.0000
-0.9184 0.1429 0.0000
-0.9184 0.1837 0.0000
-0.9184 0.2245 0.0000
-0.9184 0.2653 0.0000
-0.9184 0.3061 0.0000
-0.9184 0.3469 0.0000
-0.9184 0.3878 0.0000
-0.9184 0.4286 0.0000
-0.9184 0.4694 0.0000
-0.9184 0.5102 0.0000
-0.9184 0.5510 0.0000
-0.9184 0.5918 0.0000
-0.9184 0.6327 0.0000
-0.9184 0.6735 0.0000
-0.9184 0.7143 0.0000
-0.9184 0.7551 0.0000
-0.9184 0.7959 0.0000
-0.9184 0.8367 0.0000
-0.9184 0.8776 0.0000
-0.9184 0.9184 0.0000
-0.9184 0.9592 0.0000
-0.9184 1.0000 0.0000
-0.8776 -1.0000 0.0000
-0.8776 -0.9592 0.0000
-0.8776 -0.9184 0.0000
-0.8776 -0.8776 0.0000
-0.8776 -0.8367 0.0000
-0.8776 -0.7959 0.0000
-0.8776 -0.7551 0.0000
-0.8776 -0.7143 0.0000
-0.8776 -0.6735 0.0000
-0.8776 -0.6327 0.0000
-0.8776 -0.5918 0.0000
-0.8776 -0.5510 0.0000
-0.8776 -0.5102 0.0000
-0.8776 -0.4694 0.0000
-0.8776 -0.4286 0.0000
-0.8776 -0.3878 0.0000
-0.8776 -0.3469 0.0000
-0.8776 -0.3061 0.0000
-0.8776 -0.2653 0.0000
-0.8776 -0.2245 0.0000
-0.8776 -0.1837 0.0000
-0.8776 -0.1429 0.0000
-0.8776 -0.1020 0.0000
-0.8776 -0.0612 0.0000
-0.8776 -0.0204 0.0000
-0.8776 0.0204 0.0000
-0.8776 0.0612 0.0000
-0.8776 0.1020 0.0000
-0.8776 0.1429 0.0000
-0.8776 0.1837 0.0000
-0.8776 0.2245 0.0000
-0.8776 0.2653 0.0000
-0.8776 0.3061 0.0000
-0.8776 0.3469 0.0000
-0.8776 0.3878 0.0000
-0.8776 0.4286 0.0000
-0.8776 0.4694 0.0000
-0.8776 0.5102 0.0000
-0.8776 0.5510 0.0000
-0.8776 0.5918 0.0000
-0.8776 0.6327 0.0000
-0.8776 0.6735 0.0000
-0.8776 0.7143 0.0000
-0.8776 0.7551 0.0000
-0.8776 0.7959 0.0000
-0.8776 0.8367 0.0000
-0.8776 0.8776 0.0000
-0.8776 0.9184 0.0000
-0.8776 0.9592 0.0000
-0.8776 1.0000 0.0000
-0.8367 -1.0000 0.0000
-0.8367 -0.9592 0.0000
-0.8367 -0.9184 0.0000
-0.8367 -0.8776 0.0000
-0.8367 -0.8367 0.0000
-0.8367 -0.7959 0.0000
-0.8367 -0.7551 0.0000
-0.8367 -0.7143 0.0000
-0.8367 -0.6735 0.0000
-0.8367 -0.6327 0.0000
-0.8367 -0.5918 0.0000
-0.8367 -0.5510 0.0000
-0.8367 -0.5102 0.0000
-0.8367 -0.4694 0.0000
-0.8367 -0.4286 0.0000
-0.8367 -0.3878 0.0000
-0.8367 -0.3469 0.0000
-0.8367 -0.3061 0.0000
-0.8367 -0.2653 0.0000
-0.8367 -0.2245 0.0000
-0.8367 -0.1837 0.0000
-0.8367 -0.1429 0.0000
-0.8367 -0.1020 0.0000
-0.8367 -0.0612 0.0000
-0.8367 -0.0204 0.0000
-0.8367 0.0204 0.0000
-0.8367 0.0612 0.0000
-0.8367 0.1020 0.0000
-0.8367 0.1429 0.0000
-0.8367 0.1837 0.0000
-0.8367 0.2245 0.0000
-0.8367 0.2653 0.0000
-0.8367 0.3061 0.0000
-0.8367 0.3469 0.0000
-0.8367 0.3878 0.0000
-0.8367 0.4286 0.0000
-0.8367 0.4694 0.0000
-0.8367 0.5102 0.0000
-0.8367 0.5510 0.0000
-0.8367 0.5918 0.0000
-0.8367 0.6327 0.0000
-0.8367 0.6735 0.0000
-0.8367 0.7143 0.0000
-0.8367 0.7551 0.0000
-0.8367 0.7959 0.0000
-0.8367 0.8367 0.0000
-0.8367 0.8776 0.0000
-0.8367 0.9184 0.0000
-0.8367 0.9592 0.0000
-0.8367 1.0000 0.0000
-0.7959 -1.0000 0.0000
-0.7959 -0.9592 0.0000
-0.7959 -0.9184 0.0000
-0.7959 -0.8776 0.0000
-0.7959 -0.8367 0.0000
-0.7959 -0.7959 0.0000
-0.7959 -0.7551 0.0000
-0.7959 -0.7143 0.0000
-0.7959 -0.6735 0.0000
-0.7959 -0.6327 0.0000
-0.7959 -0.5918 0.0000
-0.7959 -0.5510 0.0000
-0.7959 -0.5102 0.0000
-0.7959 -0.4694 0.0000
-0.7959 -0.4286 0.0000
-0.7959 -0.3878 0.0000
-0.7959 -0.3469 0.0000
-0.7959 -0.3061 0.0000
-0.7959 -0.2653 0.0000
-0.7959 -0.2245 0.0000
-0.7959 -0.1837 0.0000
-0.7959 -0.1429 0.0000
-0.7959 -0.1020 0.0000
-0.7959 -0.0612 0.0000
-0.7959 -0.0204 0.0000
-0.7959 0.0204 0.0000
-0.7959 0.0612 0.0000
-0.7959 0.1020 0.0000
-0.7959 0.1429 0.0000
-0.7959 0.1837 0.0000
-0.7959 0.2245 0.0000
-0.7959 0.2653 0.0000
-0.7959 0.3061 0.0000
-0.7959 0.3469 0.0000
-0.7959 0.3878 0.0000
-0.7959 0.4286 0.0000
-0.7959 0.4694 0.0000
-0.7959 0.5102 0.0000
-0.7959 0.5510 0.0000
-0.7959 0.5918 0.0000
-0.7959 0.6327 0.0000
-0.7959 0.6735 0.0000
-0.7959 0.7143 0.0000
-0.7959 0.7551 0.0000
-0.7959 0.7959 0.0000
-0.7959 0.8367 0.0000
-0.7959 0.8776 0.0000
-0.7959 0.9184 0.0000
-0.7959 0.9592 0.0000
-0.7959 1.0000 0.0000
-0.7551 -1.0000 0.0000
-0.7551 -0.9592 0.0000
-0.7551 -0.9184 0.0000
-0.7551 -0.8776 0.0000
-0.7551 -0.8367 0.0000
-0.7551 -0.7959 0.0000
-0.7551 -0.7551 0.0000
-0.7551 -0.7143 0.0000
-0.7551 -0.6735 0.0000
-0.7551 -0.6327 0.0000
-0.7551 -0.5918 0.0000
-0.7551 -0.5510 0.0000
-0.7551 -0.5102 0.0000
-0.7551 -0.4694 0.0000
-0.7551 -0.4286 0.0000
-0.7551 -0.3878 0.0000
-0.7551 -0.3469 0.0000
-0.7551 -0.3061 0.0000
-0.7551 -0.2653 0.0000
-0.7551 -0.2245 0.0000
-0.7551 -0.1837 0.0000
-0.7551 -0.1429 0.0000
-0.7551 -0.1020 0.0000
-0.7551 -0.0612 0.0000
-0.7551 -0.0204 0.0000
-0.7551 0.0204 0.0000
-0.7551 0.0612 0.0000
-0.7551 0.1020 0.0000
-0.7551 0.1429 0.0000
-0.7551 0.1837 0.0000
-0.7551 0.2245 0.0000
-0.7551 0.2653 0.0000
-0.7551 0.3061 0.0000
-0.7551 0.3469 0.0000
-0.7551 0.3878 0.0000
-0.7551 0.4286 0.0000
-0.7551 0.4694 0.0000
-0.7551 0.5102 0.0000
-0.7551 0.5510 0.0000
-0.7551 0.5918 0.0000
-0.7551 0.6327 0.0000
-0.7551 0.6735 0.0000
-0.7551 0.7143 0.0000
-0.7551 0.7551 0.0000
-0.7551 0.7959 0.0000
-0.7551 0.8367 0.0000
-0.7551 0.8776 0.0000
-0.7551 0.9184 0.0000
-0.7551 0.9592 0.0000
-0.7551 1.0000 0.0000
-0.7143 -1.0000 0.0000
-0.7143 -0.9592 0.0000
-0.7143 -0.9184 0.0000
-0.7143 -0.8776 0.0000
-0.7143 -0.8367 0.0000
-0.7143 -0.7959 0.0000
-0.7143 -0.7551 0.0000
-0.7143 -0.7143 0.0000
-0.7143 -0.6735 0.0000
-0.7143 -0.6327 0.0000
-0.7143 -0.5918 0.0000
-0.7143 -0.5510 0.0000
-0.7143 -0.5102 0.0000
-0.7143 -0.4694 0.0000
-0.7143 -0.4286 0.0000
-0.7143 -0.3878 0.0000
-0.7143 -0.3469 0.0000
-0.7143 -0.3061 0.0000
-0.7143 -0.2653 0.0000
-0.7143 -0.2245 0.0000
-0.7143 -0.1837 0.0000
-0.7143 -0.1429 0.0000
-0.7143 -0.1020 0.0000
-0.7143 -0.0612 0.0000
-0.7143 -0.0204 0.0000
-0.7143 0.0204 0.0000
-0.7143 0.0612 0.0000
-0.7143 0.1020 0.0000
-0.7143 0.1429 0.0000
-0.7143 0.1837 0.0000
-0.7143 0.2245 0.0000
-0.7143 0.2653 0.0000
-0.7143 0.3061 0.0000
-0.7143 0.3469 0.0000
-0.7143 0.3878 0.0000
-0.7143 0.4286 0.0000
-0.7143 0.4694 0.0000
-0.7143 0.5102 0.0000
-0.7143 0.5510 0.0000
-0.7143 0.5918 0.0000
-0.7143 0.6327 0.0000
-0.7143 0.6735 0.0000
-0.7143 0.7143 0.0000
-0.7143 0.7551 0.0000
-0.7143 0.7959 0.0000
-0.7143 0.8367 0.0000
-0.7143 0.8776 0.0000
-0.7143 0.9184 0.0000
-0.7143 0.9592 0.0000
-0.7143 1.0000 0.0000
-0.6735 -1.0000 0.0000
-0.6735 -0.9592 0.0000
-0.6735 -0.9184 0.0000
-0.6735 -0.8776 0.0000
-0.6735 -0.8367 0.0000
-0.6735 -0.7959 0.0000
-0.6735 -0.7551 0.0000
-0.6735 -0.7143 0.0000
-0.6735 -0.6735 0.0000
-0.6735 -0.6327 0.0000
-0.6735 -0.5918 0.0000
-0.6735 -0.5510 0.0000
-0.6735 -0.5102 0.0000
-0.6735 -0.4694 0.0000
-0.6735 -0.4286 0.0000
-0.6735 -0.3878 0.0000
-0.6735 -0.3469 0.0000
-0.6735 -0.3061 0.0000
-0.6735 -0.2653 0.0000
-0.6735 -0.2245 0.0000
-0.6735 -0.1837 0.0000
-0.6735 -0.1429 0.0000
-0.6735 -0.1020 0.0000
-0.6735 -0.0612 0.0000
-0.6735 -0.0204 0.0000
-0.6735 0.0204 0.0000
-0.6735 0.0612 0.0000
-0.6735 0.1020 0.0000
-0.6735 0.1429 0.0000
-0.6735 0.1837 0.0000
[...]
         <PointData>
            <DataArray Name="fValues" NumberOfComponents="3" format="ascii" type="Float64">
 2.26816e-03  1.58805e-03        00000 
 1.53046e-03  3.37149e-03        00000 
 3.46821e-03  3.43351e-03        00000 
 4.52569e-03  2.92941e-03        00000 
 3.56095e-03  3.16537e-03        00000 
 1.41863e-03  4.45001e-03        00000 
 1.08628e-03  4.14349e-03        00000 
 1.45142e-03  2.99026e-03        00000 
 1.95115e-03  1.95433e-03        00000 
 2.92836e-03  9.99238e-04        00000 
 2.93515e-03  1.39624e-03        00000 
 2.51758e-03  2.09829e-03        00000 
 2.22983e-03  2.30667e-03        00000 
 1.97949e-03  2.57367e-03        00000 
 2.16860e-03  1.41843e-03        00000 
 2.47960e-03  6.93802e-05        00000 
 2.89577e-03 -1.68614e-03        00000 
 1.04836e-03 -1.43272e-03        00000 
 4.72415e-04 -6.42128e-04        00000 
 1.08076e-03 -9.19664e-04        00000 
 2.30901e-03 -1.59080e-03        00000 
 3.44095e-03 -2.22931e-03        00000 
 3.23096e-03 -2.72554e-03        00000 
 1.31102e-03 -1.26706e-03        00000 
 9.85446e-05  2.38483e-04        00000 
 7.43807e-06  5.20011e-04        00000 
-5.66860e-05  6.33691e-04        00000 
-9.25511e-05  5.89763e-04        00000 
 4.77455e-04 -2.78366e-04        00000 
 1.52047e-03 -1.43612e-03        00000 
 2.32108e-03 -2.12701e-03        00000 
 3.05885e-03 -2.75882e-03        00000 
 3.64915e-03 -3.47752e-03        00000 
 3.86579e-03 -4.13775e-03        00000 
 4.29489e-03 -4.38839e-03        00000 
 3.85288e-03 -3.52256e-03        00000 
 2.81408e-03 -2.31811e-03        00000 
 1.14513e-03 -1.65147e-03        00000 
 9.66971e-05 -1.77174e-03        00000 
-7.91016e-04 -2.84409e-03        00000 
-8.66814e-04 -3.37737e-03        00000 
 2.83476e-04 -3.03882e-03        00000 
-2.01923e-04 -3.51614e-03        00000 
-4.51991e-04 -5.17845e-03        00000 
-5.04575e-04 -5.14302e-03        00000 
 9.83061e-04 -4.07769e-03        00000 
 9.99561e-04 -2.66359e-03        00000 
-1.66736e-04  2.12666e-04        00000 
-4.81200e-04  1.57571e-03        00000 
-1.91376e-03 -2.09085e-05        00000 
 2.16728e-03  1.60110e-02        00000 
-9.74395e-04  1.85245e-02        00000 
-4.98417e-05  1.65865e-02        00000 
 1.86818e-04  1.49904e-02        00000 
-8.47746e-04  1.47519e-02        00000 
-1.86057e-03  1.47605e-02        00000 
-2.74068e-03  1.42329e-02        00000 
-3.75994e-03  1.38063e-02        00000 
-3.98120e-03  1.35497e-02        00000 
-2.95109e-03  1.27047e-02        00000 
-3.60232e-03  1.44091e-02        00000 
-4.06662e-03  1.58763e-02        00000 
-4.35066e-03  1.65570e-02        00000 
-4.50176e-03  1.60862e-02        00000 
-4.39916e-03  1.41531e-02        00000 
-4.33979e-03  1.25284e-02        00000 
-4.46018e-03  1.11850e-02        00000 
-4.44119e-03  9.56739e-03        00000 
-4.98068e-03  8.55347e-03        00000 
-6.31313e-03  9.19126e-03        00000 
-6.58120e-03  8.99900e-03        00000 
-6.20390e-03  8.29159e-03        00000 
-5.59766e-03  7.35152e-03        00000 
-4.62890e-03  6.35163e-03        00000 
-4.96987e-03  6.89970e-03        00000 
-4.78778e-03  6.83967e-03        00000 
-4.61152e-03  6.89224e-03        00000 
-4.38348e-03  6.83515e-03        00000 
-4.12580e-03  6.86044e-03        00000 
-3.59977e-03  5.76081e-03        00000 
-2.66073e-03  5.08082e-03        00000 
-2.02326e-03  4.62150e-03        00000 
-1.67150e-03  4.55641e-03        00000 
-7.61148e-04  4.59820e-03        00000 
-4.07901e-04  5.06261e-03        00000 
-9.08638e-04  6.01264e-03        00000 
-2.48513e-03  5.92622e-03        00000 
-3.53953e-03  4.81808e-03        00000 
-4.44019e-03  4.47454e-03        00000 
-5.45258e-03  3.13925e-03        00000 
-5.91834e-03  3.90656e-03        00000 
-5.25670e-03  3.30419e-03        00000 
-4.25369e-03  1.07788e-03        00000 
-2.66105e-03 -7.75367e-04        00000 
-2.07614e-03 -7.02896e-04        00000 
-1.26077e-03  6.01321e-04        00000 
-1.99855e-03  1.50596e-03        00000 
-2.05465e-03  1.96136e-03        00000 
-8.86887e-04  1.29090e-03        00000 
-6.88993e-04 -2.20987e-03        00000 
 2.81443e-03  3.39954e-02        00000 
-1.42978e-03  3.50509e-02        00000 
-2.56837e-03  3.33025e-02        00000 
-3.53964e-03  3.29521e-02        00000 
-4.65957e-03  3.23287e-02        00000 
-5.76499e-03  3.14245e-02        00000 
-6.80688e-03  3.00718e-02        00000 
-7.65799e-03  2.82654e-02        00000 
-8.32845e-03  2.81617e-02        00000 
-8.95511e-03  2.80684e-02        00000 
-9.30324e-03  2.85185e-02        00000 
-9.65933e-03  2.95681e-02        00000 
-9.93826e-03  2.97077e-02        00000 
-9.86630e-03  2.93406e-02        00000 
-1.07417e-02  2.79213e-02        00000 
-1.17780e-02  2.63325e-02        00000 
-1.15675e-02  2.40030e-02        00000 
-1.10586e-02  2.14084e-02        00000 
-1.10744e-02  1.97645e-02        00000 
-1.16591e-02  1.83591e-02        00000 
-1.23617e-02  1.80001e-02        00000 
-1.25842e-02  1.78462e-02        00000 
-1.21874e-02  1.72062e-02        00000 
-1.16899e-02  1.64452e-02        00000 
-1.14775e-02  1.60608e-02        00000 
-1.09903e-02  1.50983e-02        00000 
-9.97344e-03  1.47985e-02        00000 
-8.77704e-03  1.43969e-02        00000 
-8.08456e-03  1.45127e-02        00000 
-7.74601e-03  1.44380e-02        00000 
-7.28723e-03  1.28607e-02        00000 
-6.76534e-03  1.26702e-02        00000 
-5.55068e-03  1.25225e-02        00000 
-4.49900e-03  1.21923e-02        00000 
-5.57347e-03  1.34046e-02        00000 
-6.58956e-03  1.32666e-02        00000 
-6.09524e-03  1.22615e-02        00000 
-5.93570e-03  1.05272e-02        00000 
-6.27517e-03  8.91713e-03        00000 
-6.80821e-03  7.30747e-03        00000 
-7.89309e-03  5.41896e-03        00000 
-7.77133e-03  5.19305e-03        00000 
-6.43690e-03  4.87058e-03        00000 
-4.35849e-03  4.10798e-03        00000 
-2.71423e-03  3.45587e-03        00000 
-3.97229e-03  3.57830e-03        00000 
-4.48021e-03  4.20501e-03        00000 
-3.17326e-03  4.21856e-03        00000 
 5.68065e-05  2.24252e-03        00000 
 1.92426e-03 -2.81658e-03        00000 
 3.95866e-03  5.58760e-02        00000 
-1.12807e-03  5.41379e-02        00000 
-6.06721e-03  5.16782e-02        00000 
-7.48199e-03  5.14948e-02        00000 
-8.73598e-03  5.15091e-02        00000 
-9.96525e-03  5.06250e-02        00000 
-1.11731e-02  4.93119e-02        00000 
-1.22193e-02  4.72829e-02        00000 
-1.23527e-02  4.58511e-02        00000 
-1.30723e-02  4.40266e-02        00000 
-1.41298e-02  4.21907e-02        00000 
-1.56080e-02  4.18002e-02        00000 
-1.63314e-02  4.23612e-02        00000 
-1.73201e-02  4.28113e-02        00000 
-1.77801e-02  4.12671e-02        00000 
-1.83044e-02  3.93165e-02        00000 
-1.84431e-02  3.64304e-02        00000 
-1.79253e-02  3.40055e-02        00000 
-1.74803e-02  3.15235e-02        00000 
-1.73245e-02  2.88507e-02        00000 
-1.80058e-02  2.72246e-02        00000 
-1.75526e-02  2.62134e-02        00000 
-1.80308e-02  2.65734e-02        00000 
-1.81758e-02  2.66701e-02        00000 
-1.79017e-02  2.62939e-02        00000 
-1.62018e-02  2.43628e-02        00000 
-1.56404e-02  2.34335e-02        00000 
-1.48378e-02  2.29651e-02        00000 
-1.37204e-02  2.25248e-02        00000 
-1.25651e-02  2.19377e-02        00000 
-1.15861e-02  2.05692e-02        00000 
-1.01477e-02  1.89193e-02        00000 
-8.31387e-03  1.82689e-02        00000 
-7.68177e-03  1.72482e-02        00000 
-7.60313e-03  1.63572e-02        00000 
-8.02776e-03  1.63716e-02        00000 
-7.70407e-03  1.55427e-02        00000 
-7.82928e-03  1.46773e-02        00000 
-7.36622e-03  1.33375e-02        00000 
-7.72413e-03  1.05665e-02        00000 
-8.93514e-03  7.81774e-03        00000 
-8.75053e-03  6.53632e-03        00000 
-7.22841e-03  6.72485e-03        00000 
-5.65847e-03  6.52944e-03        00000 
-5.83682e-03  8.75376e-03        00000 
-6.18086e-03  7.48648e-03        00000 
-5.04691e-03  6.64746e-03        00000 
-2.35685e-03  5.51898e-03        00000 
 2.03324e-04  2.66891e-03        00000 
 1.80404e-03 -2.71229e-03        00000 
 3.79286e-03  7.81390e-02        00000 
-1.19248e-03  7.54068e-02        00000 
-7.01250e-03  7.34852e-02        00000 
-1.07560e-02  7.16404e-02        00000 
-1.28037e-02  7.00601e-02        00000 
-1.41643e-02  6.92331e-02        00000 
-1.54975e-02  6.77909e-02        00000 
-1.63375e-02  6.58560e-02        00000 
-1.69299e-02  6.39706e-02        00000 
-1.79928e-02  6.12328e-02        00000 
-1.89905e-02  5.84532e-02        00000 
-2.03926e-02  5.60424e-02        00000 
-2.23876e-02  5.43505e-02        00000 
-2.47041e-02  5.55937e-02        00000 
-2.53524e-02  5.58028e-02        00000 
-2.55476e-02  5.31154e-02        00000 
-2.56052e-02  4.96750e-02        00000 
-2.47893e-02  4.59059e-02        00000 
-2.37315e-02  4.31495e-02        00000 
-2.34454e-02  4.05884e-02        00000 
-2.36458e-02  3.83366e-02        00000 
-2.44566e-02  3.70915e-02        00000 
-2.39180e-02  3.61425e-02        00000 
-2.40377e-02  3.61036e-02        00000 
-2.32515e-02  3.52446e-02        00000 
-2.16711e-02  3.35122e-02        00000 
-1.99730e-02  3.15434e-02        00000 
-1.89140e-02  2.98711e-02        00000 
-1.81728e-02  2.90615e-02        00000 
-1.71303e-02  2.85083e-02        00000 
-1.56930e-02  2.66184e-02        00000 
-1.31962e-02  2.38076e-02        00000 
-1.09005e-02  2.02942e-02        00000 
-1.00217e-02  1.93287e-02        00000 
-9.77129e-03  1.88961e-02        00000 
-9.87232e-03  1.85125e-02        00000 
-9.33460e-03  1.78363e-02        00000 
-9.26088e-03  1.74463e-02        00000 
-9.30046e-03  1.72062e-02        00000 
-9.66807e-03  1.45425e-02        00000 
-9.65622e-03  1.23451e-02        00000 
-1.05699e-02  1.11373e-02        00000 
-1.02775e-02  1.06885e-02        00000 
-8.59788e-03  1.15859e-02        00000 
-6.98541e-03  9.63818e-03        00000 
-6.06790e-03  8.78118e-03        00000 
-4.37752e-03  7.66496e-03        00000 
-2.09230e-03  6.57303e-03        00000 
-8.11833e-04  2.52679e-03        00000 
 1.33245e-03 -2.61090e-03        00000 
 2.65690e-03  9.99321e-02        00000 
-2.39790e-03  9.64986e-02        00000 
-7.48614e-03  9.36547e-02        00000 
-1.28786e-02  9.27024e-02        00000 
-1.54632e-02  8.99444e-02        00000 
-1.80091e-02  8.74347e-02        00000 
-1.93831e-02  8.57503e-02        00000 
-2.03696e-02  8.37861e-02        00000 
-2.17376e-02  8.08534e-02        00000 
-2.30216e-02  7.79299e-02        00000 
-2.43831e-02  7.58902e-02        00000 
-2.59907e-02  7.39154e-02        00000 
-2.76424e-02  7.13679e-02        00000 
-2.92662e-02  6.86785e-02        00000 
-3.09922e-02  6.79443e-02        00000 
-3.13165e-02  6.64836e-02        00000 
-3.16163e-02  6.37652e-02        00000 
-3.16463e-02  6.05312e-02        00000 
-3.14065e-02  5.68616e-02        00000 
-3.14282e-02  5.43459e-02        00000 
-3.13904e-02  5.17462e-02        00000 
-3.16499e-02  4.96241e-02        00000 
-3.12666e-02  4.77792e-02        00000 
-3.05387e-02  4.64906e-02        00000 
-2.78556e-02  4.33188e-02        00000 
-2.60667e-02  4.11785e-02        00000 
-2.42256e-02  3.89724e-02        00000 
-2.20697e-02  3.65469e-02        00000 
-2.05046e-02  3.42713e-02        00000 
-1.99482e-02  3.31145e-02        00000 
-1.82265e-02  3.10428e-02        00000 
-1.59636e-02  2.77700e-02        00000 
-1.43318e-02  2.51228e-02        00000 
-1.37815e-02  2.36694e-02        00000 
-1.34880e-02  2.25443e-02        00000 
-1.26463e-02  2.20364e-02        00000 
-1.20700e-02  2.19991e-02        00000 
-1.22234e-02  2.17179e-02        00000 
-1.30901e-02  2.15708e-02        00000 
-1.32973e-02  1.97120e-02        00000 
-1.33381e-02  1.74196e-02        00000 
-1.24532e-02  1.52513e-02        00000 
-1.04791e-02  1.38275e-02        00000 
-8.29523e-03  1.10591e-02        00000 
-6.53400e-03  8.97401e-03        00000 
-5.77769e-03  9.22078e-03        00000 
-5.59902e-03  9.98857e-03        00000 
-4.51199e-03  8.06657e-03        00000 
-2.47514e-03  4.12520e-03        00000 
 2.17181e-03 -1.97383e-03        00000 
 2.33236e-03  1.19617e-01        00000 
-2.82760e-03  1.15546e-01        00000 
-8.16744e-03  1.12392e-01        00000 
-1.37858e-02  1.10697e-01        00000 
-1.72341e-02  1.09380e-01        00000 
-1.99906e-02  1.06410e-01        00000 
-2.23263e-02  1.03791e-01        00000 
-2.39649e-02  1.01078e-01        00000 
-2.61577e-02  9.69858e-02        00000 
-2.80037e-02  9.49373e-02        00000 
-2.92880e-02  9.37689e-02        00000 
-3.06294e-02  9.27573e-02        00000 
-3.20781e-02  9.05026e-02        00000 
-3.35249e-02  8.81176e-02        00000 
-3.48724e-02  8.53931e-02        00000 
-3.64157e-02  8.11829e-02        00000 
-3.65420e-02  7.66820e-02        00000 
-3.71065e-02  7.36399e-02        00000 
-3.83375e-02  7.09586e-02        00000 
-3.91309e-02  6.86359e-02        00000 
-3.99133e-02  6.56743e-02        00000 
-3.95829e-02  6.30394e-02        00000 
-3.86564e-02  6.02331e-02        00000 
-3.57709e-02  5.63367e-02        00000 
-3.27302e-02  5.22724e-02        00000 
-2.95222e-02  4.83217e-02        00000 
-2.65344e-02  4.50340e-02        00000 
-2.41940e-02  4.27331e-02        00000 
-2.21230e-02  4.08973e-02        00000 
-2.06534e-02  3.85982e-02        00000 
-1.89362e-02  3.54808e-02        00000 
-1.78499e-02  3.30561e-02        00000 
-1.67060e-02  3.06281e-02        00000 
-1.62584e-02  2.91726e-02        00000 
-1.63649e-02  2.88405e-02        00000 
-1.66760e-02  2.80409e-02        00000 
-1.59732e-02  2.68568e-02        00000 
-1.66592e-02  2.71348e-02        00000 
-1.81843e-02  2.66299e-02        00000 
-1.78176e-02  2.41243e-02        00000 
-1.52078e-02  2.03321e-02        00000 
-1.35573e-02  1.81446e-02        00000 
-1.08312e-02  1.59594e-02        00000 
-8.42093e-03  1.27051e-02        00000 
-7.72019e-03  1.14953e-02        00000 
-7.76330e-03  1.17777e-02        00000 
-7.32955e-03  1.06911e-02        00000 
-6.35850e-03  9.09609e-03        00000 
-2.11526e-03  4.59677e-03        00000 
 2.96653e-03 -7.69727e-04        00000 
 2.49658e-03  1.40699e-01        00000 
-3.29881e-03  1.36560e-01        00000 
-8.82571e-03  1.32111e-01        00000 
-1.41444e-02  1.27688e-01        00000 
-1.85085e-02  1.26639e-01        00000 
-2.17943e-02  1.24494e-01        00000 
-2.42818e-02  1.21179e-01        00000 
-2.70539e-02  1.18037e-01        00000 
-2.96176e-02  1.14128e-01        00000 
-3.19323e-02  1.11920e-01        00000 
-3.38112e-02  1.10992e-01        00000 
-3.51063e-02  1.10119e-01        00000 
-3.66272e-02  1.08025e-01        00000 
-3.80995e-02  1.05752e-01        00000 
-3.94640e-02  1.02932e-01        00000 
-4.05731e-02  9.85462e-02        00000 
-4.24320e-02  9.18563e-02        00000 
-4.31452e-02  8.67917e-02        00000 
-4.45240e-02  8.30809e-02        00000 
-4.54813e-02  8.11593e-02        00000 
-4.61298e-02  7.86744e-02        00000 
-4.62668e-02  7.55449e-02        00000 
-4.50559e-02  7.15350e-02        00000 
-4.11142e-02  6.58058e-02        00000 
-3.68564e-02  6.01639e-02        00000 
-3.36139e-02  5.60589e-02        00000 
-3.02253e-02  5.24982e-02        00000 
-2.67951e-02  4.92248e-02        00000 
-2.49855e-02  4.73599e-02        00000 
-2.28037e-02  4.46319e-02        00000 
-2.07108e-02  4.12290e-02        00000 
-1.90271e-02  3.80797e-02        00000 
-1.78978e-02  3.57490e-02        00000 
-1.77527e-02  3.43429e-02        00000 
-1.83383e-02  3.36107e-02        00000 
-1.94358e-02  3.31177e-02        00000 
-1.91817e-02  3.23352e-02        00000 
-1.90678e-02  3.12488e-02        00000 
-1.97767e-02  2.88164e-02        00000 
-1.89248e-02  2.52919e-02        00000 
-1.65084e-02  2.26250e-02        00000 
-1.49532e-02  2.16825e-02        00000 
-1.29544e-02  1.91673e-02        00000 
-1.01548e-02  1.57298e-02        00000 
-9.50681e-03  1.48235e-02        00000 
-9.17200e-03  1.23961e-02        00000 
-9.03190e-03  1.13753e-02        00000 
-6.58902e-03  9.04682e-03        00000 
-2.03211e-03  4.74365e-03        00000 
 2.75841e-03  8.38695e-04        00000 
 2.50077e-03  1.61940e-01        00000 
-3.63592e-03  1.59683e-01        00000 
-9.67835e-03  1.55298e-01        00000 
-1.48938e-02  1.50311e-01        00000 
-1.94895e-02  1.46684e-01        00000 
-2.35806e-02  1.43449e-01        00000 
-2.67861e-02  1.38576e-01        00000 
-2.96982e-02  1.34543e-01        00000 
-3.23789e-02  1.30589e-01        00000 
-3.47522e-02  1.28360e-01        00000 
-3.73777e-02  1.27569e-01        00000 
-3.89103e-02  1.26662e-01        00000 
-4.05760e-02  1.24673e-01        00000 
-4.15917e-02  1.21074e-01        00000 
-4.31239e-02  1.17113e-01        00000 
-4.53858e-02  1.13345e-01        00000 
-4.73789e-02  1.08715e-01        00000 
-4.84119e-02  1.01369e-01        00000 
-4.96896e-02  9.65888e-02        00000 
-5.03492e-02  9.31163e-02        00000 
-5.03326e-02  8.95954e-02        00000 
-4.98269e-02  8.59524e-02        00000 
-4.76922e-02  8.01689e-02        00000 
-4.49385e-02  7.41676e-02        00000 
-4.11772e-02  6.87419e-02        00000 
-3.73865e-02  6.38825e-02        00000 
-3.37697e-02  6.00752e-02        00000 
-3.03002e-02  5.60763e-02        00000 
-2.77669e-02  5.29158e-02        00000 
-2.51944e-02  4.97796e-02        00000 
-2.27070e-02  4.67805e-02        00000 
-2.11191e-02  4.36779e-02        00000 
-1.96210e-02  4.05149e-02        00000 
-1.92118e-02  3.86229e-02        00000 
-2.08836e-02  3.87071e-02        00000 
-2.19390e-02  3.81773e-02        00000 
-2.07372e-02  3.53259e-02        00000 
-1.95513e-02  3.21342e-02        00000 
-1.97661e-02  2.88277e-02        00000 
-1.88572e-02  2.60275e-02        00000 
-1.78798e-02  2.52336e-02        00000 
-1.66661e-02  2.36604e-02        00000 
-1.51936e-02  2.15102e-02        00000 
-1.30541e-02  2.01897e-02        00000 
-1.13777e-02  1.68782e-02        00000 
-1.15640e-02  1.43260e-02        00000 
-1.17740e-02  1.32275e-02        00000 
-7.53164e-03  9.64409e-03        00000 
-2.33348e-03  5.67412e-03        00000 
 2.49665e-03  1.74409e-03        00000 
 2.04638e-03  1.82271e-01        00000 
-4.44892e-03  1.80095e-01        00000 
-1.05208e-02  1.77374e-01        00000 
-1.53723e-02  1.71469e-01        00000 
-2.11686e-02  1.67875e-01        00000 
-2.52399e-02  1.64440e-01        00000 
-2.92118e-02  1.60641e-01        00000 
-3.23027e-02  1.55199e-01        00000 
-3.49440e-02  1.49348e-01        00000 
-3.76444e-02  1.43923e-01        00000 
-3.98536e-02  1.42890e-01        00000 
-4.21723e-02  1.41502e-01        00000 
-4.36143e-02  1.38682e-01        00000 
-4.56899e-02  1.35093e-01        00000 
-4.79117e-02  1.31463e-01        00000 
-5.01152e-02  1.27835e-01        00000 
-5.20477e-02  1.22932e-01        00000 
-5.35815e-02  1.16853e-01        00000 
-5.34124e-02  1.08310e-01        00000 
-5.33649e-02  1.03328e-01        00000 
-5.30397e-02  9.92693e-02        00000 
-5.20302e-02  9.42532e-02        00000 
-4.93376e-02  8.78169e-02        00000 
-4.71113e-02  8.19737e-02        00000 
-4.39311e-02  7.64289e-02        00000 
-4.03050e-02  7.14012e-02        00000 
-3.64732e-02  6.63634e-02        00000 
-3.32650e-02  6.23338e-02        00000 
-2.92633e-02  5.72715e-02        00000 
-2.63764e-02  5.35037e-02        00000 
-2.40335e-02  5.05162e-02        00000 
-2.23220e-02  4.79440e-02        00000 
-2.09830e-02  4.51589e-02        00000 
-2.10385e-02  4.29678e-02        00000 
-2.23094e-02  4.28158e-02        00000 
-2.34919e-02  4.23836e-02        00000 
-2.16010e-02  3.82859e-02        00000 
-2.03936e-02  3.35296e-02        00000 
-1.99502e-02  3.05406e-02        00000 
-2.03602e-02  2.92207e-02        00000 
-1.98744e-02  2.86937e-02        00000 
-1.85083e-02  2.67433e-02        00000 
-1.68084e-02  2.45297e-02        00000 
-1.53806e-02  2.29619e-02        00000 
-1.49579e-02  1.95763e-02        00000 
-1.52719e-02  1.69035e-02        00000 
-1.30175e-02  1.47894e-02        00000 