<?xml version="1.0" encoding="utf-8"?>
<VTKFile byte_order="LittleEndian" type="UnstructuredGrid" version="0.1">
   <UnstructuredGrid>
      <Piece NumberOfCells="9604" NumberOfPoints="4901">
         <Points>
            <DataArray Name="Points" NumberOfComponents="3" format="ascii" type="Float32">
-1.0000 -1.0000 0.0000
-1.0000 -0.9592 0.0000
-1.0000 -0.9184 0.0000
-1.0000 -0.8776 0.0000
-1.0000 -0.8367 0.0000
-1.0000 -0.7959 0.0000
-1.0000 -0.7551 0.0000
-1.0000 -0.7143 0.0000
-1.0000 -0.6735 0.0000
-1.0000 -0.6327 0.0000
-1.0000 -0.5918 0.0000
-1.0000 -0.5510 0.0000
-1.0000 -0.5102 0.0000
-1.0000 -0.4694 0.0000
-1.0000 -0.4286 0.0000
-1.0000 -0.3878 0.0000
-1.0000 -0.3469 0.0000
-1.0000 -0.3061 0.0000
-1.0000 -0.2653 0.0000
-1.0000 -0.2245 0.0000
-1.0000 -0.1837 0.0000
-1.0000 -0.1429 0.0000
-1.0000 -0.1020 0.0000
-1.0000 -0.0612 0.0000
-1.0000 -0.0204 0.0000
-1.0000 0.0204 0.0000
-1.0000 0.0612 0.0000
-1.0000 0.1020 0.0000
-1.0000 0.1429 0.0000
-1.0000 0.1837 0.0000
-1.0000 0.2245 0.0000
-1.0000 0.2653 0.0000
-1.0000 0.3061 0.0000
-1.0000 0.3469 0.0000
-1.0000 0.3878 0.0000
-1.0000 0.4286 0.0000
-1.0000 0.4694 0.0000
-1.0000 0.5102 0.0000
-1.0000 0.5510 0.0000
-1.0000 0.5918 0.0000
-1.0000 0.6327 0.0000
-1.0000 0.6735 0.0000
-1.0000 0.7143 0.0000
-1.0000 0.7551 0.0000
-1.0000 0.7959 0.0000
-1.0000 0.8367 0.0000
-1.0000 0.8776 0.0000
-1.0000 0.9184 0.0000
-1.0000 0.9592 0.0000
-1.0000 1.0000 0.0000
-0.9592 -1.0000 0.0000
-0.9592 -0.9592 0.0000
-0.9592 -0.9184 0.0000
-0.9592 -0.8776 0.0000
-0.9592 -0.8367 0.0000
-0.9592 -0.7959 0.0000
-0.9592 -0.7551 0.0000
-0.9592 -0.7143 0.0000
-0.9592 -0.6735 0.0000
-0.9592 -0.6327 0.0000
-0.9592 -0.5918 0.0000
-0.9592 -0.5510 0.0000
-0.9592 -0.5102 0.0000
-0.9592 -0.4694 0.0000
-0.9592 -0.4286 0.0000
-0.9592 -0.3878 0.0000
-0.9592 -0.3469 0.0000
-0.9592 -0.3061 0.0000
-0.9592 -0.2653 0.0000
-0.9592 -0.2245 0.0000
-0.9592 -0.1837 0.0000
-0.9592 -0.1429 0.0000
-0.9592 -0.1020 0.0000
-0.9592 -0.0612 0.0000
-0.9592 -0.0204 0.0000
-0.9592 0.0204 0.0000
-0.9592 0.0612 0.0000
-0.9592 0.1020 0.0000
-0.9592 0.1429 0.0000
-0.9592 0.1837 0.0000
-0.9592 0.2245 0.0000
-0.9592 0.2653 0.0000
-0.9592 0.3061 0.0000
-0.9592 0.3469 0.0000
-0.9592 0.3878 0.0000
-0.9592 0.4286 0.0000
-0.9592 0.4694 0.0000
-0.9592 0.5102 0.0000
-0.9592 0.5510 0.0000
-0.9592 0.5918 0.0000
-0.9592 0.6327 0.0000
-0.9592 0.6735 0.0000
-0.9592 0.7143 0.0000
-0.9592 0.7551 0.0000
-0.9592 0.7959 0.0000
-0.9592 0.8367 0.0000
-0.9592 0.8776 0.0000
-0.9592 0.9184 0.0000
-0.9592 0.9592 0.0000
-0.9592 1.0000 0.0000
-0.9184 -1.0000 0.0000
-0.9184 -0.9592 0.0000
-0.9184 -0.9184 0.0000
-0.9184 -0.8776 0.0000
-0.9184 -0.8367 0.0000
-0.9184 -0.7959 0.0000
-0.9184 -0.7551 0.0000
-0.9184 -0.7143 0.0000
-0.9184 -0.6735 0.0000
-0.9184 -0.6327 0.0000
-0.9184 -0.5918 0.0000
-0.9184 -0.5510 0.0000
-0.9184 -0.5102 0.0000
-0.9184 -0.4694 0.0000
-0.9184 -0.4286 0.0000
-0.9184 -0.3878 0.0000
-0.9184 -0.3469 0.0000
-0.9184 -0.3061 0.0000
-0.9184 -0.2653 0.0000
-0.9184 -0.2245 0.0000
-0.9184 -0.1837 0.0000
-0.9184 -0.1429 0.0000
-0.9184 -0.1020 0.0000
-0.9184 -0.0612 0.0000
-0.9184 -0.0204 0.0000
-0.9184 0.0204 0.0000
-0.9184 0.0612 0.0000
-0.9184 0.1020 0.0000
-0.9184 0.1429 0.0000
-0.9184 0.1837 0.0000
-0.9184 0.2245 0.0000
-0.9184 0.2653 0.0000
-0.9184 0.3061 0.0000
-0.9184 0.3469 0.0000
-0.9184 0.3878 0.0000
-0.9184 0.4286 0.0000
-0.9184 0.4694 0.0000
-0.9184 0.5102 0.0000
-0.9184 0.5510 0.0000
-0.9184 0.5918 0.0000
-0.9184 0.6327 0.0000
-0.9184 0.6735 0.0000
-0.9184 0.7143 0.0000
-0.9184 0.7551 0.0000
-0.9184 0.7959 0.0000
-0.9184 0.8367 0.0000
-0.9184 0.8776 0.0000
-0.9184 0.9184 0.0000
-0.9184 0.9592 0.0000
-0.9184 1.0000 0.0000
-0.8776 -1.0000 0.0000
-0.8776 -0.9592 0.0000
-0.8776 -0.9184 0.0000
-0.8776 -0.8776 0.0000
-0.8776 -0.8367 0.0000
-0.8776 -0.7959 0.0000
-0.8776 -0.7551 0.0000
-0.8776 -0.7143 0.0000
-0.8776 -0.6735 0.0000
-0.8776 -0.6327 0.0000
-0.8776 -0.5918 0.0000
-0.8776 -0.5510 0.0000
-0.8776 -0.5102 0.0000
-0.8776 -0.4694 0.0000
-0.8776 -0.4286 0.0000
-0.8776 -0.3878 0.0000
-0.8776 -0.3469 0.0000
-0.8776 -0.3061 0.0000
-0.8776 -0.2653 0.0000
-0.8776 -0.2245 0.0000
-0.8776 -0.1837 0.0000
-0.8776 -0.1429 0.0000
-0.8776 -0.1020 0.0000
-0.8776 -0.0612 0.0000
-0.8776 -0.0204 0.0000
-0.8776 0.0204 0.0000
-0.8776 0.0612 0.0000
-0.8776 0.1020 0.0000
-0.8776 0.1429 0.0000
-0.8776 0.1837 0.0000
-0.8776 0.2245 0.0000
-0.8776 0.2653 0.0000
-0.8776 0.3061 0.0000
-0.8776 0.3469 0.0000
-0.8776 0.3878 0.0000
-0.8776 0.4286 0.0000
-0.8776 0.4694 0.0000
-0.8776 0.5102 0.0000
-0.8776 0.5510 0.0000
-0.8776 0.5918 0.0000
-0.8776 0.6327 0.0000
-0.8776 0.6735 0.0000
-0.8776 0.7143 0.0000
-0.8776 0.7551 0.0000
-0.8776 0.7959 0.0000
-0.8776 0.8367 0.0000
-0.8776 0.8776 0.0000
-0.8776 0.9184 0.0000
-0.8776 0.9592 0.0000
-0.8776 1.0000 0.0000
-0.8367 -1.0000 0.0000
-0.8367 -0.9592 0.0000
-0.8367 -0.9184 0.0000
-0.8367 -0.8776 0.0000
-0.8367 -0.8367 0.0000
-0.8367 -0.7959 0.0000
-0.8367 -0.7551 0.0000
-0.8367 -0.7143 0.0000
-0.8367 -0.6735 0.0000
-0.8367 -0.6327 0.0000
-0.8367 -0.5918 0.0000
-0.8367 -0.5510 0.0000
-0.8367 -0.5102 0.0000
-0.8367 -0.4694 0.0000
-0.8367 -0.4286 0.0000
-0.8367 -0.3878 0.0000
-0.8367 -0.3469 0.0000
-0.8367 -0.3061 0.0000
-0.8367 -0.2653 0.0000
-0.8367 -0.2245 0.0000
-0.8367 -0.1837 0.0000
-0.8367 -0.1429 0.0000
-0.8367 -0.1020 0.0000
-0.8367 -0.0612 0.0000
-0.8367 -0.0204 0.0000
-0.8367 0.0204 0.0000
-0.8367 0.0612 0.0000
-0.8367 0.1020 0.0000
-0.8367 0.1429 0.0000
-0.8367 0.1837 0.0000
-0.8367 0.2245 0.0000
-0.8367 0.2653 0.0000
-0.8367 0.3061 0.0000
-0.8367 0.3469 0.0000
-0.8367 0.3878 0.0000
-0.8367 0.4286 0.0000
-0.8367 0.4694 0.0000
-0.8367 0.5102 0.0000
-0.8367 0.5510 0.0000
-0.8367 0.5918 0.0000
-0.8367 0.6327 0.0000
-0.8367 0.6735 0.0000
-0.8367 0.7143 0.0000
-0.8367 0.7551 0.0000
-0.8367 0.7959 0.0000
-0.8367 0.8367 0.0000
-0.8367 0.8776 0.0000
-0.8367 0.9184 0.0000
-0.8367 0.9592 0.0000
-0.8367 1.0000 0.0000
-0.7959 -1.0000 0.0000
-0.7959 -0.9592 0.0000
-0.7959 -0.9184 0.0000
-0.7959 -0.8776 0.0000
-0.7959 -0.8367 0.0000
-0.7959 -0.7959 0.0000
-0.7959 -0.7551 0.0000
-0.7959 -0.7143 0.0000
-0.7959 -0.6735 0.0000
-0.7959 -0.6327 0.0000
-0.7959 -0.5918 0.0000
-0.7959 -0.5510 0.0000
-0.7959 -0.5102 0.0000
-0.7959 -0.4694 0.0000
-0.7959 -0.4286 0.0000
-0.7959 -0.3878 0.0000
-0.7959 -0.3469 0.0000
-0.7959 -0.3061 0.0000
-0.7959 -0.2653 0.0000
-0.7959 -0.2245 0.0000
-0.7959 -0.1837 0.0000
-0.7959 -0.1429 0.0000
-0.7959 -0.1020 0.0000
-0.7959 -0.0612 0.0000
-0.7959 -0.0204 0.0000
-0.7959 0.0204 0.0000
-0.7959 0.0612 0.0000
-0.7959 0.1020 0.0000
-0.7959 0.1429 0.0000
-0.7959 0.1837 0.0000
-0.7959 0.2245 0.0000
-0.7959 0.2653 0.0000
-0.7959 0.3061 0.0000
-0.7959 0.3469 0.0000
-0.7959 0.3878 0.0000
-0.7959 0.4286 0.0000
-0.7959 0.4694 0.0000
-0.7959 0.5102 0.0000
-0.7959 0.5510 0.0000
-0.7959 0.5918 0.0000
-0.7959 0.6327 0.0000
-0.7959 0.6735 0.0000
-0.7959 0.7143 0.0000
-0.7959 0.7551 0.0000
-0.7959 0.7959 0.0000
-0.7959 0.8367 0.0000
-0.7959 0.8776 0.0000
-0.7959 0.9184 0.0000
-0.7959 0.9592 0.0000
-0.7959 1.0000 0.0000
-0.7551 -1.0000 0.0000
-0.7551 -0.9592 0.0000
-0.7551 -0.9184 0.0000
-0.7551 -0.8776 0.0000
-0.7551 -0.8367 0.0000
-0.7551 -0.7959 0.0000
-0.7551 -0.7551 0.0000
-0.7551 -0.7143 0.0000
-0.7551 -0.6735 0.0000
-0.7551 -0.6327 0.0000
-0.7551 -0.5918 0.0000
-0.7551 -0.5510 0.0000
-0.7551 -0.5102 0.0000
-0.7551 -0.4694 0.0000
-0.7551 -0.4286 0.0000
-0.7551 -0.3878 0.0000
-0.7551 -0.3469 0.0000
-0.7551 -0.3061 0.0000
-0.7551 -0.2653 0.0000
-0.7551 -0.2245 0.0000
-0.7551 -0.1837 0.0000
-0.7551 -0.1429 0.0000
-0.7551 -0.1020 0.0000
-0.7551 -0.0612 0.0000
-0.7551 -0.0204 0.0000
-0.7551 0.0204 0.0000
-0.7551 0.0612 0.0000
-0.7551 0.1020 0.0000
-0.7551 0.1429 0.0000
-0.7551 0.1837 0.0000
-0.7551 0.2245 0.0000
-0.7551 0.2653 0.0000
-0.7551 0.3061 0.0000
-0.7551 0.3469 0.0000
-0.7551 0.3878 0.0000
-0.7551 0.4286 0.0000
-0.7551 0.4694 0.0000
-0.7551 0.5102 0.0000
-0.7551 0.5510 0.0000
-0.7551 0.5918 0.0000
-0.7551 0.6327 0.0000
-0.7551 0.6735 0.0000
-0.7551 0.7143 0.0000
-0.7551 0.7551 0.0000
-0.7551 0.7959 0.0000
-0.7551 0.8367 0.0000
-0.7551 0.8776 0.0000
-0.7551 0.9184 0.0000
-0.7551 0.9592 0.0000
-0.7551 1.0000 0.0000
-0.7143 -1.0000 0.0000
-0.7143 -0.9592 0.0000
-0.7143 -0.9184 0.0000
-0.7143 -0.8776 0.0000
-0.7143 -0.8367 0.0000
-0.7143 -0.7959 0.0000
-0.7143 -0.7551 0.0000
-0.7143 -0.7143 0.0000
-0.7143 -0.6735 0.0000
-0.7143 -0.6327 0.0000
-0.7143 -0.5918 0.0000
-0.7143 -0.5510 0.0000
-0.7143 -0.5102 0.0000
-0.7143 -0.4694 0.0000
-0.7143 -0.4286 0.0000
-0.7143 -0.3878 0.0000
-0.7143 -0.3469 0.0000
-0.7143 -0.3061 0.0000
-0.7143 -0.2653 0.0000
-0.7143 -0.2245 0.0000
-0.7143 -0.1837 0.0000
-0.7143 -0.1429 0.0000
-0.7143 -0.1020 0.0000
-0.7143 -0.0612 0.0000
-0.7143 -0.0204 0.0000
-0.7143 0.0204 0.0000
-0.7143 0.0612 0.0000
-0.7143 0.1020 0.0000
-0.7143 0.1429 0.0000
-0.7143 0.1837 0.0000
-0.7143 0.2245 0.0000
-0.7143 0.2653 0.0000
-0.7143 0.3061 0.0000
-0.7143 0.3469 0.0000
-0.7143 0.3878 0.0000
-0.7143 0.4286 0.0000
-0.7143 0.4694 0.0000
-0.7143 0.5102 0.0000
-0.7143 0.5510 0.0000
-0.7143 0.5918 0.0000
-0.7143 0.6327 0.0000
-0.7143 0.6735 0.0000
-0.7143 0.7143 0.0000
-0.7143 0.7551 0.0000
-0.7143 0.7959 0.0000
-0.7143 0.8367 0.0000
-0.7143 0.8776 0.0000
-0.7143 0.9184 0.0000
-0.7143 0.9592 0.0000
-0.7143 1.0000 0.0000
-0.6735 -1.0000 0.0000
-0.6735 -0.9592 0.0000
-0.6735 -0.9184 0.0000
-0.6735 -0.8776 0.0000
-0.6735 -0.8367 0.0000
-0.6735 -0.7959 0.0000
-0.6735 -0.7551 0.0000
-0.6735 -0.7143 0.0000
-0.6735 -0.6735 0.0000
-0.6735 -0.6327 0.0000
-0.6735 -0.5918 0.0000
-0.6735 -0.5510 0.0000
-0.6735 -0.5102 0.0000
-0.6735 -0.4694 0.0000
-0.6735 -0.4286 0.0000
-0.6735 -0.3878 0.0000
-0.6735 -0.3469 0.0000
-0.6735 -0.3061 0.0000
-0.6735 -0.2653 0.0000
-0.6735 -0.2245 0.0000
-0.6735 -0.1837 0.0000
-0.6735 -0.1429 0.0000
-0.6735 -0.1020 0.0000
-0.6735 -0.0612 0.0000
-0.6735 -0.0204 0.0000
-0.6735 0.0204 0.0000
-0.6735 0.0612 0.0000
-0.6735 0.1020 0.0000
-0.6735 0.1429 0.0000
-0.6735 0.1837 0.0000
[...]
         <PointData>
            <DataArray Name="fValues" NumberOfComponents="3" format="ascii" type="Float64">
-5.10198e-03  4.11097e-03        00000 
-3.50404e-03  2.31812e-03        00000 
-3.40950e-03 -3.20909e-04        00000 
-2.92471e-03 -1.21820e-03        00000 
-2.22074e-03 -3.50486e-04        00000 
-1.33661e-03  8.18212e-04        00000 
-1.39048e-03  1.51262e-03        00000 
-2.02520e-03  1.94586e-03        00000 
-2.46662e-03  2.52666e-03        00000 
-2.76520e-03  2.99265e-03        00000 
-2.80649e-03  3.48112e-03        00000 
-2.78337e-03  3.90925e-03        00000 
-3.25329e-03  3.93692e-03        00000 
-3.79409e-03  3.83120e-03        00000 
-4.02824e-03  3.76548e-03        00000 
-4.42686e-03  3.45536e-03        00000 
-4.45979e-03  3.25762e-03        00000 
-3.44120e-03  4.36868e-03        00000 
-3.31937e-03  4.87887e-03        00000 
-3.17625e-03  5.10658e-03        00000 
-3.06757e-03  4.95839e-03        00000 
-3.11393e-03  4.57606e-03        00000 
-2.76834e-03  4.87328e-03        00000 
-2.22755e-03  5.51110e-03        00000 
-1.72682e-03  5.94285e-03        00000 
-1.53474e-03  5.76406e-03        00000 
-1.43794e-03  5.47146e-03        00000 
-1.42274e-03  5.07810e-03        00000 
-1.99054e-03  4.23072e-03        00000 
-2.94170e-03  3.06549e-03        00000 
-3.09018e-03  2.93881e-03        00000 
-3.03766e-03  3.17961e-03        00000 
-3.25717e-03  3.53177e-03        00000 
-3.23621e-03  4.76366e-03        00000 
-3.07296e-03  5.30302e-03        00000 
-3.08313e-03  5.04015e-03        00000 
-4.08601e-03  4.22912e-03        00000 
-4.52171e-03  3.77005e-03        00000 
-4.46937e-03  3.99815e-03        00000 
-3.92485e-03  3.86041e-03        00000 
-2.94324e-03  3.16708e-03        00000 
-1.73049e-03  1.94880e-03        00000 
 1.05520e-03  3.59115e-03        00000 
 3.45849e-03  6.23494e-03        00000 
 1.68382e-03  3.78971e-03        00000 
-1.13363e-03  1.90107e-03        00000 
-2.60390e-03  1.66100e-03        00000 
-4.53388e-03  4.63063e-03        00000 
-5.10294e-03  7.31204e-03        00000 
-2.34472e-03  9.80179e-03        00000 
-3.40864e-03  5.83397e-03        00000 
-9.93366e-04  5.00116e-03        00000 
-8.14214e-04  2.61452e-03        00000 
-2.51920e-04  2.65217e-03        00000 
 1.05026e-03  4.63032e-03        00000 
 1.71092e-03  5.48023e-03        00000 
 1.82409e-03  5.97116e-03        00000 
 1.60956e-03  6.79211e-03        00000 
 1.59557e-03  7.96565e-03        00000 
 1.42263e-03  8.84679e-03        00000 
 1.44184e-03  9.28551e-03        00000 
 1.18504e-03  9.16362e-03        00000 
 5.77021e-04  8.72273e-03        00000 
 1.48563e-04  8.59498e-03        00000 
-3.19759e-05  8.43561e-03        00000 
-1.31089e-04  8.46952e-03        00000 
 4.51100e-04  9.22374e-03        00000 
 1.08084e-03  1.00429e-02        00000 
 1.70220e-03  1.10404e-02        00000 
 1.99473e-03  1.15724e-02        00000 
 2.32841e-03  1.20521e-02        00000 
 2.65633e-03  1.24947e-02        00000 
 2.80068e-03  1.26978e-02        00000 
 2.72624e-03  1.25706e-02        00000 
 2.83948e-03  1.27335e-02        00000 
 3.11222e-03  1.28258e-02        00000 
 3.42119e-03  1.28212e-02        00000 
 3.56972e-03  1.26534e-02        00000 
 4.19612e-03  1.33780e-02        00000 
 4.83376e-03  1.42759e-02        00000 
 4.04907e-03  1.36556e-02        00000 
 3.62746e-03  1.34996e-02        00000 
 2.89553e-03  1.31555e-02        00000 
 2.23357e-03  1.26573e-02        00000 
 2.39761e-03  1.23275e-02        00000 
 3.24153e-03  1.38919e-02        00000 
 4.51107e-03  1.58401e-02        00000 
 4.54918e-03  1.64324e-02        00000 
 3.94737e-03  1.74358e-02        00000 
 3.30365e-03  1.77610e-02        00000 
 2.02597e-03  1.57039e-02        00000 
 3.55253e-03  1.62256e-02        00000 
 6.44111e-03  1.85745e-02        00000 
 8.34480e-03  1.93506e-02        00000 
 6.40081e-03  1.66677e-02        00000 
 4.59927e-03  1.65322e-02        00000 
 2.34157e-03  1.92134e-02        00000 
 6.36991e-04  2.06177e-02        00000 
 9.83674e-04  2.11718e-02        00000 
 1.01468e-03  2.30551e-02        00000 
-1.79002e-03  6.45012e-03        00000 
 5.99311e-04  6.03289e-03        00000 
 1.80145e-03  4.32000e-03        00000 
 3.11873e-03  5.45412e-03        00000 
 4.52505e-03  7.73986e-03        00000 
 5.49309e-03  9.12661e-03        00000 
 5.53203e-03  9.63247e-03        00000 
 4.90891e-03  9.86867e-03        00000 
 4.78701e-03  1.05507e-02        00000 
 4.74181e-03  1.11096e-02        00000 
 4.65096e-03  1.14655e-02        00000 
 4.66946e-03  1.18380e-02        00000 
 4.45505e-03  1.19742e-02        00000 
 3.59706e-03  1.16380e-02        00000 
 3.73665e-03  1.24083e-02        00000 
 4.16730e-03  1.35191e-02        00000 
 4.82050e-03  1.44933e-02        00000 
 5.31330e-03  1.52441e-02        00000 
 5.60711e-03  1.59105e-02        00000 
 6.15347e-03  1.67645e-02        00000 
 6.45271e-03  1.72570e-02        00000 
 6.62488e-03  1.76045e-02        00000 
 6.82716e-03  1.79452e-02        00000 
 6.93586e-03  1.81654e-02        00000 
 6.96659e-03  1.83604e-02        00000 
 7.45429e-03  1.90377e-02        00000 
 8.05519e-03  1.97997e-02        00000 
 8.52170e-03  2.03557e-02        00000 
 8.88056e-03  2.07178e-02        00000 
 9.47148e-03  2.14840e-02        00000 
 1.01704e-02  2.25022e-02        00000 
 9.14230e-03  2.17493e-02        00000 
 8.31251e-03  2.11601e-02        00000 
 8.72950e-03  2.28854e-02        00000 
 9.98722e-03  2.47520e-02        00000 
 1.14784e-02  2.73789e-02        00000 
 1.15576e-02  2.90855e-02        00000 
 1.09734e-02  3.01354e-02        00000 
 9.87378e-03  3.05282e-02        00000 
 9.41264e-03  3.08903e-02        00000 
 1.00053e-02  3.13458e-02        00000 
 1.05404e-02  3.16489e-02        00000 
 1.01338e-02  3.13376e-02        00000 
 9.79397e-03  3.09703e-02        00000 
 9.87531e-03  3.16547e-02        00000 
 9.77247e-03  3.35572e-02        00000 
 8.15859e-03  3.49291e-02        00000 
 6.39079e-03  3.63223e-02        00000 
 2.53786e-03  3.91453e-02        00000 
-1.38951e-03  4.22966e-02        00000 
-7.84624e-04  5.50561e-03        00000 
 2.34179e-03  6.64332e-03        00000 
 4.38680e-03  5.62865e-03        00000 
 5.63542e-03  6.47429e-03        00000 
 6.95069e-03  8.51287e-03        00000 
 7.93539e-03  1.00493e-02        00000 
 8.50652e-03  1.13313e-02        00000 
 8.06080e-03  1.18925e-02        00000 
 7.70345e-03  1.23235e-02        00000 
 7.96136e-03  1.37959e-02        00000 
 8.47341e-03  1.55250e-02        00000 
 8.91716e-03  1.66499e-02        00000 
 8.78358e-03  1.72952e-02        00000 
 8.53664e-03  1.83434e-02        00000 
 8.43050e-03  1.86549e-02        00000 
 8.24725e-03  1.90981e-02        00000 
 8.61841e-03  2.01992e-02        00000 
 8.93735e-03  2.07791e-02        00000 
 9.12216e-03  2.08325e-02        00000 
 9.55398e-03  2.10107e-02        00000 
 1.02315e-02  2.18336e-02        00000 
 1.03305e-02  2.23873e-02        00000 
 1.10179e-02  2.37139e-02        00000 
 1.16017e-02  2.49372e-02        00000 
 1.21084e-02  2.59952e-02        00000 
 1.25743e-02  2.67651e-02        00000 
 1.32871e-02  2.78920e-02        00000 
 1.38542e-02  2.87093e-02        00000 
 1.42514e-02  2.92183e-02        00000 
 1.45847e-02  2.96552e-02        00000 
 1.48636e-02  3.04262e-02        00000 
 1.55399e-02  3.26027e-02        00000 
 1.53775e-02  3.39973e-02        00000 
 1.58334e-02  3.60696e-02        00000 
 1.62943e-02  3.84621e-02        00000 
 1.67163e-02  4.16432e-02        00000 
 1.65350e-02  4.27386e-02        00000 
 1.62220e-02  4.26840e-02        00000 
 1.56199e-02  4.35834e-02        00000 
 1.49867e-02  4.30591e-02        00000 
 1.64446e-02  4.56415e-02        00000 
 1.57788e-02  4.64079e-02        00000 
 1.47421e-02  4.51009e-02        00000 
 1.40109e-02  4.61654e-02        00000 
 1.30599e-02  4.80594e-02        00000 
 1.15965e-02  5.18563e-02        00000 
 8.45794e-03  5.52815e-02        00000 
 4.81481e-03  5.76499e-02        00000 
 9.96786e-04  5.99945e-02        00000 
-2.12347e-03  6.17829e-02        00000 
 4.71412e-05  4.27511e-03        00000 
 3.16804e-03  5.65892e-03        00000 
 6.29236e-03  6.28943e-03        00000 
 7.55667e-03  6.76260e-03        00000 
 9.23414e-03  9.30467e-03        00000 
 1.03685e-02  1.11540e-02        00000 
 1.09597e-02  1.24830e-02        00000 
 1.09603e-02  1.34954e-02        00000 
 1.11742e-02  1.49151e-02        00000 
 1.18896e-02  1.71760e-02        00000 
 1.23442e-02  1.89954e-02        00000 
 1.24264e-02  2.16422e-02        00000 
 1.24628e-02  2.42231e-02        00000 
 1.26379e-02  2.58588e-02        00000 
 1.20553e-02  2.66307e-02        00000 
 1.22132e-02  2.71524e-02        00000 
 1.27059e-02  2.82021e-02        00000 
 1.29265e-02  2.95163e-02        00000 
 1.27534e-02  2.93524e-02        00000 
 1.29300e-02  2.89477e-02        00000 
 1.41875e-02  2.96627e-02        00000 
 1.53639e-02  2.98198e-02        00000 
 1.58879e-02  3.09629e-02        00000 
 1.63529e-02  3.23129e-02        00000 
 1.68624e-02  3.32999e-02        00000 
 1.73274e-02  3.40937e-02        00000 
 1.78759e-02  3.51383e-02        00000 
 1.87548e-02  3.68928e-02        00000 
 1.96556e-02  3.86524e-02        00000 
 2.04090e-02  4.01323e-02        00000 
 2.12362e-02  4.32244e-02        00000 
 2.20442e-02  4.65512e-02        00000 
 2.24127e-02  4.89212e-02        00000 
 2.29052e-02  4.98969e-02        00000 
 2.32046e-02  5.19303e-02        00000 
 2.35260e-02  5.48782e-02        00000 
 2.28603e-02  5.55389e-02        00000 
 2.16500e-02  5.54145e-02        00000 
 2.05943e-02  5.54763e-02        00000 
 2.08138e-02  5.66364e-02        00000 
 1.93345e-02  5.71201e-02        00000 
 1.94312e-02  5.98735e-02        00000 
 1.96507e-02  6.23317e-02        00000 
 1.63769e-02  6.30455e-02        00000 
 1.39227e-02  6.86115e-02        00000 
 1.10739e-02  7.22467e-02        00000 
 7.66845e-03  7.44042e-02        00000 
 3.94261e-03  7.72365e-02        00000 
 1.89504e-03  8.06160e-02        00000 
-1.25187e-03  8.40264e-02        00000 
 8.22995e-04  3.08524e-03        00000 
 4.18068e-03  4.82907e-03        00000 
 7.72641e-03  6.70717e-03        00000 
 9.99279e-03  8.14021e-03        00000 
 1.12016e-02  9.97669e-03        00000 
 1.24108e-02  1.18297e-02        00000 
 1.34135e-02  1.35328e-02        00000 
 1.37443e-02  1.52615e-02        00000 
 1.45136e-02  1.75851e-02        00000 
 1.55350e-02  2.03332e-02        00000 
 1.51871e-02  2.18867e-02        00000 
 1.47086e-02  2.44650e-02        00000 
 1.46972e-02  2.71769e-02        00000 
 1.47635e-02  2.97451e-02        00000 
 1.45834e-02  3.12011e-02        00000 
 1.47747e-02  3.27167e-02        00000 
 1.55434e-02  3.43666e-02        00000 
 1.62757e-02  3.66978e-02        00000 
 1.73269e-02  3.90604e-02        00000 
 1.83035e-02  4.01221e-02        00000 
 1.94225e-02  4.11028e-02        00000 
 2.02835e-02  4.15926e-02        00000 
 2.06896e-02  4.06204e-02        00000 
 2.10370e-02  3.95655e-02        00000 
 2.16315e-02  4.12729e-02        00000 
 2.25720e-02  4.31536e-02        00000 
 2.34537e-02  4.52691e-02        00000 
 2.42026e-02  4.77019e-02        00000 
 2.50515e-02  5.04480e-02        00000 
 2.61301e-02  5.31323e-02        00000 
 2.65376e-02  5.54507e-02        00000 
 2.71571e-02  5.78372e-02        00000 
 2.77587e-02  6.18324e-02        00000 
 2.83420e-02  6.48733e-02        00000 
 2.92207e-02  6.67377e-02        00000 
 2.96002e-02  6.80115e-02        00000 
 2.84235e-02  6.80558e-02        00000 
 2.69198e-02  6.86700e-02        00000 
 2.56093e-02  6.86240e-02        00000 
 2.45092e-02  6.80858e-02        00000 
 2.52340e-02  7.00649e-02        00000 
 2.41516e-02  7.60126e-02        00000 
 2.16418e-02  8.02660e-02        00000 
 1.87534e-02  8.59790e-02        00000 
 1.56268e-02  8.91647e-02        00000 
 1.18358e-02  9.10044e-02        00000 
 7.34744e-03  9.34459e-02        00000 
 5.10214e-03  9.73136e-02        00000 
 2.67058e-03  1.01493e-01        00000 
-1.05757e-03  1.05846e-01        00000 
 1.09352e-03  1.32132e-03        00000 
 4.88763e-03  3.50646e-03        00000 
 8.98546e-03  6.97538e-03        00000 
 1.15793e-02  8.89867e-03        00000 
 1.31511e-02  1.09954e-02        00000 
 1.40788e-02  1.24761e-02        00000 
 1.51738e-02  1.40351e-02        00000 
 1.60329e-02  1.62756e-02        00000 
 1.74227e-02  1.99270e-02        00000 
 1.71372e-02  2.11490e-02        00000 
 1.63066e-02  2.32992e-02        00000 
 1.54455e-02  2.52063e-02        00000 
 1.51386e-02  2.74301e-02        00000 
 1.50910e-02  2.99291e-02        00000 
 1.55282e-02  3.30361e-02        00000 
 1.75988e-02  3.78984e-02        00000 
 1.88115e-02  4.02165e-02        00000 
 2.00541e-02  4.31799e-02        00000 
 2.16464e-02  4.69960e-02        00000 
 2.24418e-02  4.88522e-02        00000 
 2.38357e-02  5.06981e-02        00000 
 2.46714e-02  5.17481e-02        00000 
 2.48789e-02  5.25324e-02        00000 
 2.49584e-02  5.25034e-02        00000 
 2.61287e-02  5.40244e-02        00000 
 2.72346e-02  5.56040e-02        00000 
 2.80469e-02  5.76197e-02        00000 
 2.85485e-02  6.01965e-02        00000 
 2.87168e-02  6.29953e-02        00000 
 2.91427e-02  6.53699e-02        00000 
 2.98997e-02  6.79218e-02        00000 
 3.10178e-02  7.14825e-02        00000 
 3.23132e-02  7.49947e-02        00000 
 3.32496e-02  7.79467e-02        00000 
 3.28926e-02  8.01938e-02        00000 
 3.34783e-02  8.25236e-02        00000 
 3.29744e-02  8.27691e-02        00000 
 3.15620e-02  8.38173e-02        00000 
 3.10776e-02  8.34563e-02        00000 
 3.12178e-02  8.56362e-02        00000 
 2.98238e-02  9.00460e-02        00000 
 2.79726e-02  9.41100e-02        00000 
 2.45910e-02  9.75482e-02        00000 
 2.07645e-02  1.03292e-01        00000 
 1.60951e-02  1.06869e-01        00000 
 1.21442e-02  1.09160e-01        00000 
 9.65766e-03  1.12418e-01        00000 
 6.60817e-03  1.16163e-01        00000 
 3.06210e-03  1.20726e-01        00000 
-1.58944e-03  1.25179e-01        00000 
 1.07379e-03  1.09084e-04        00000 
 5.66229e-03  2.26633e-03        00000 
 9.86110e-03  6.60898e-03        00000 
 1.28844e-02  9.75280e-03        00000 
 1.46673e-02  1.17050e-02        00000 
 1.58266e-02  1.34040e-02        00000 
 1.74469e-02  1.59768e-02        00000 
 1.90237e-02  1.90049e-02        00000 
 2.06178e-02  2.30585e-02        00000 
 2.04911e-02  2.46099e-02        00000 
 1.97263e-02  2.70228e-02        00000 
 1.88727e-02  2.89875e-02        00000 
 1.84878e-02  3.12530e-02        00000 
 1.82463e-02  3.34342e-02        00000 
 1.86784e-02  3.64150e-02        00000 
 2.05123e-02  4.12897e-02        00000 
 2.26900e-02  4.72121e-02        00000 
 2.45860e-02  5.17047e-02        00000 
 2.59083e-02  5.45047e-02        00000 
 2.65961e-02  5.65259e-02        00000 
 2.74139e-02  5.82983e-02        00000 
 2.80313e-02  5.99426e-02        00000 
 2.87215e-02  6.22641e-02        00000 
 2.94963e-02  6.51020e-02        00000 
 3.02691e-02  6.71968e-02        00000 
 3.13159e-02  6.88738e-02        00000 
 3.19659e-02  7.10093e-02        00000 
 3.24665e-02  7.32246e-02        00000 
 3.28378e-02  7.54191e-02        00000 
 3.29329e-02  7.75415e-02        00000 
 3.34703e-02  8.13594e-02        00000 
 3.42236e-02  8.49220e-02        00000 
 3.53295e-02  8.82599e-02        00000 
 3.67765e-02  9.15298e-02        00000 
 3.77259e-02  9.33367e-02        00000 
 3.83895e-02  9.52292e-02        00000 
 3.69839e-02  9.62859e-02        00000 
 3.64310e-02  9.89448e-02        00000 
 3.57666e-02  1.03959e-01        00000 
 3.53569e-02  1.07765e-01        00000 
 3.44416e-02  1.10369e-01        00000 
 3.12515e-02  1.10926e-01        00000 
 2.67428e-02  1.13569e-01        00000 
 2.16599e-02  1.19018e-01        00000 
 1.64875e-02  1.23396e-01        00000 
 1.42920e-02  1.26083e-01        00000 
 1.18125e-02  1.29783e-01        00000 
 7.63068e-03  1.34500e-01        00000 
 3.26640e-03  1.40060e-01        00000 
-3.10239e-03  1.44298e-01        00000 
 4.24077e-04 -5.94477e-04        00000 
 6.14425e-03  1.13346e-03        00000 
 1.05712e-02  5.85224e-03        00000 
 1.39164e-02  9.90568e-03        00000 
 1.57348e-02  1.18410e-02        00000 
 1.79335e-02  1.51343e-02        00000 
 2.01689e-02  1.87013e-02        00000 
 2.18598e-02  2.15816e-02        00000 
 2.32364e-02  2.53316e-02        00000 
 2.31333e-02  2.70004e-02        00000 
 2.25191e-02  2.95493e-02        00000 
 2.17449e-02  3.16910e-02        00000 
 2.14662e-02  3.41498e-02        00000 
 2.16339e-02  3.71537e-02        00000 
 2.23733e-02  4.13012e-02        00000 
 2.33077e-02  4.59726e-02        00000 
 2.44009e-02  5.14893e-02        00000 
 2.67419e-02  5.69797e-02        00000 
 2.91995e-02  6.14219e-02        00000 
 2.94675e-02  6.27973e-02        00000 
 2.93541e-02  6.40083e-02        00000 
 2.98632e-02  6.63044e-02        00000 
 3.10542e-02  7.05346e-02        00000 
 3.23085e-02  7.45603e-02        00000 
 3.32874e-02  7.71621e-02        00000 
 3.39312e-02  7.99649e-02        00000 
 3.47105e-02  8.28650e-02        00000 
 3.58057e-02  8.52735e-02        00000 
 3.66728e-02  8.67939e-02        00000 
 3.66661e-02  8.96697e-02        00000 
 3.70086e-02  9.33459e-02        00000 
 3.82851e-02  9.72571e-02        00000 
 3.95513e-02  1.00894e-01        00000 
 4.10180e-02  1.04210e-01        00000 
 4.17175e-02  1.05988e-01        00000 
 4.20690e-02  1.07629e-01        00000 
 4.25281e-02  1.10274e-01        00000 
 4.17306e-02  1.16579e-01        00000 
 4.06609e-02  1.23120e-01        00000 
 3.94362e-02  1.26876e-01        00000 
 3.69152e-02  1.27222e-01        00000 
 3.32008e-02  1.28324e-01        00000 
 2.86629e-02  1.31246e-01        00000 
 2.33624e-02  1.34940e-01        00000 
 1.85385e-02  1.39094e-01        00000 
 1.59268e-02  1.43103e-01        00000 
 1.30543e-02  1.47869e-01        00000 
 8.26440e-03  1.53097e-01        00000 
 3.15147e-03  1.57869e-01        00000 
-3.90826e-03  1.64340e-01        00000 
-1.98071e-04 -2.32643e-03        00000 
 5.70004e-03  3.21546e-04        00000 
 1.11377e-02  4.91678e-03        00000 
 1.47700e-02  9.92682e-03        00000 
 1.73221e-02  1.29093e-02        00000 
 1.98793e-02  1.69146e-02        00000 
 2.20813e-02  2.02106e-02        00000 
 2.37680e-02  2.30585e-02        00000 
 2.51358e-02  2.65507e-02        00000 
 2.54225e-02  2.88722e-02        00000 
 2.45283e-02  3.12393e-02        00000 
 2.44317e-02  3.41151e-02        00000 
 2.47789e-02  3.73097e-02        00000 
 2.50330e-02  4.15656e-02        00000 
 2.54003e-02  4.59880e-02        00000 
 2.60359e-02  5.04007e-02        00000 
 2.66079e-02  5.49649e-02        00000 
 2.76036e-02  5.98129e-02        00000 
 3.02058e-02  6.56897e-02        00000 
 3.13185e-02  6.91212e-02        00000 
 3.17740e-02  7.15076e-02        00000 
 3.19716e-02  7.30875e-02        00000 
 3.27455e-02  7.74136e-02        00000 
 3.40175e-02  8.17760e-02        00000 
 3.50317e-02  8.51704e-02        00000 
 3.58890e-02  8.81507e-02        00000 
 3.68922e-02  9.08383e-02        00000 
 3.83025e-02  9.41451e-02        00000 
 3.97088e-02  9.72654e-02        00000 
 4.05971e-02  9.98595e-02        00000 
 4.14420e-02  1.03530e-01        00000 
 4.26372e-02  1.07344e-01        00000 
 4.39781e-02  1.11164e-01        00000 
 4.52268e-02  1.14988e-01        00000 
 4.53598e-02  1.17473e-01        00000 
 4.69530e-02  1.22309e-01        00000 
 4.65977e-02  1.28168e-01        00000 
 4.63892e-02  1.34149e-01        00000 
 4.51494e-02  1.40242e-01        00000 
 4.22000e-02  1.42912e-01        00000 
 3.85155e-02  1.44281e-01        00000 
 3.49838e-02  1.46770e-01        00000 
 3.03280e-02  1.49411e-01        00000 
 2.53176e-02  1.53830e-01        00000 
 2.08428e-02  1.56059e-01        00000 
 1.78698e-02  1.60690e-01        00000 
 1.36817e-02  1.65731e-01        00000 