<?xml version="1.0" encoding="utf-8"?>
<VTKFile byte_order="LittleEndian" type="UnstructuredGrid" version="0.1">
   <UnstructuredGrid>
      <Piece NumberOfCells="9604" NumberOfPoints="4901">
         <Points>
            <DataArray Name="Points" NumberOfComponents="3" format="ascii" type="Float32">
-1.0000 -1.0000 0.0000
-1.0000 -0.9592 0.0000
-1.0000 -0.9184 0.0000
-1.0000 -0.8776 0.0000
-1.0000 -0.8367 0.0000
-1.0000 -0.7959 0.0000
-1.0000 -0.7551 0.0000
-1.0000 -0.7143 0.0000
-1.0000 -0.6735 0.0000
-1.0000 -0.6327 0.0000
-1.0000 -0.5918 0.0000
-1.0000 -0.5510 0.0000
-1.0000 -0.5102 0.0000
-1.0000 -0.4694 0.0000
-1.0000 -0.4286 0.0000
-1.0000 -0.3878 0.0000
-1.0000 -0.3469 0.0000
-1.0000 -0.3061 0.0000
-1.0000 -0.2653 0.0000
-1.0000 -0.2245 0.0000
-1.0000 -0.1837 0.0000
-1.0000 -0.1429 0.0000
-1.0000 -0.1020 0.0000
-1.0000 -0.0612 0.0000
-1.0000 -0.0204 0.0000
-1.0000 0.0204 0.0000
-1.0000 0.0612 0.0000
-1.0000 0.1020 0.0000
-1.0000 0.1429 0.0000
-1.0000 0.1837 0.0000
-1.0000 0.2245 0.0000
-1.0000 0.2653 0.0000
-1.0000 0.3061 0.0000
-1.0000 0.3469 0.0000
-1.0000 0.3878 0.0000
-1.0000 0.4286 0.0000
-1.0000 0.4694 0.0000
-1.0000 0.5102 0.0000
-1.0000 0.5510 0.0000
-1.0000 0.5918 0.0000
-1.0000 0.6327 0.0000
-1.0000 0.6735 0.0000
-1.0000 0.7143 0.0000
-1.0000 0.7551 0.0000
-1.0000 0.7959 0.0000
-1.0000 0.8367 0.0000
-1.0000 0.8776 0.0000
-1.0000 0.9184 0.0000
-1.0000 0.9592 0.0000
-1.0000 1.0000 0.0000
-0.9592 -1.0000 0.0000
-0.9592 -0.9592 0.0000
-0.9592 -0.9184 0.0000
-0.9592 -0.8776 0.0000
-0.9592 -0.8367 0.0000
-0.9592 -0.7959 0.0000
-0.9592 -0.7551 0.0000
-0.9592 -0.7143 0.0000
-0.9592 -0.6735 0.0000
-0.9592 -0.6327 0.0000
-0.9592 -0.5918 0.0000
-0.9592 -0.5510 0.0000
-0.9592 -0.5102 0.0000
-0.9592 -0.4694 0.0000
-0.9592 -0.4286 0.0000
-0.9592 -0.3878 0.0000
-0.9592 -0.3469 0.0000
-0.9592 -0.3061 0.0000
-0.9592 -0.2653 0.0000
-0.9592 -0.2245 0.0000
-0.9592 -0.1837 0.0000
-0.9592 -0.1429 0.0000
-0.9592 -0.1020 0.0000
-0.9592 -0.0612 0.0000
-0.9592 -0.0204 0.0000
-0.9592 0.0204 0.0000
-0.9592 0.0612 0.0000
-0.9592 0.1020 0.0000
-0.9592 0.1429 0.0000
-0.9592 0.1837 0.0000
-0.9592 0.2245 0.0000
-0.9592 0.2653 0.0000
-0.9592 0.3061 0.0000
-0.9592 0.3469 0.0000
-0.9592 0.3878 0.0000
-0.9592 0.4286 0.0000
-0.9592 0.4694 0.0000
-0.9592 0.5102 0.0000
-0.9592 0.5510 0.0000
-0.9592 0.5918 0.0000
-0.9592 0.6327 0.0000
-0.9592 0.6735 0.0000
-0.9592 0.7143 0.0000
-0.9592 0.7551 0.0000
-0.9592 0.7959 0.0000
-0.9592 0.8367 0.0000
-0.9592 0.8776 0.0000
-0.9592 0.9184 0.0000
-0.9592 0.9592 0.0000
-0.9592 1.0000 0.0000
-0.9184 -1.0000 0.0000
-0.9184 -0.9592 0.0000
-0.9184 -0.9184 0.0000
-0.9184 -0.8776 0.0000
-0.9184 -0.8367 0.0000
-0.9184 -0.7959 0.0000
-0.9184 -0.7551 0.0000
-0.9184 -0.7143 0.0000
-0.9184 -0.6735 0.0000
-0.9184 -0.6327 0.0000
-0.9184 -0.5918 0.0000
-0.9184 -0.5510 0.0000
-0.9184 -0.5102 0.0000
-0.9184 -0.4694 0.0000
-0.9184 -0.4286 0.0000
-0.9184 -0.3878 0.0000
-0.9184 -0.3469 0.0000
-0.9184 -0.3061 0.0000
-0.9184 -0.2653 0.0000
-0.9184 -0.2245 0.0000
-0.9184 -0.1837 0.0000
-0.9184 -0.1429 0.0000
-0.9184 -0.1020 0.0000
-0.9184 -0.0612 0.0000
-0.9184 -0.0204 0.0000
-0.9184 0.0204 0.0000
-0.9184 0.0612 0.0000
-0.9184 0.1020 0.0000
-0.9184 0.1429 0.0000
-0.9184 0.1837 0.0000
-0.9184 0.2245 0.0000
-0.9184 0.2653 0.0000
-0.9184 0.3061 0.0000
-0.9184 0.3469 0.0000
-0.9184 0.3878 0.0000
-0.9184 0.4286 0.0000
-0.9184 0.4694 0.0000
-0.9184 0.5102 0.0000
-0.9184 0.5510 0.0000
-0.9184 0.5918 0.0000
-0.9184 0.6327 0.0000
-0.9184 0.6735 0.0000
-0.9184 0.7143 0.0000
-0.9184 0.7551 0.0000
-0.9184 0.7959 0.0000
-0.9184 0.8367 0.0000
-0.9184 0.8776 0.0000
-0.9184 0.9184 0.0000
-0.9184 0.9592 0.0000
-0.9184 1.0000 0.0000
-0.8776 -1.0000 0.0000
-0.8776 -0.9592 0.0000
-0.8776 -0.9184 0.0000
-0.8776 -0.8776 0.0000
-0.8776 -0.8367 0.0000
-0.8776 -0.7959 0.0000
-0.8776 -0.7551 0.0000
-0.8776 -0.7143 0.0000
-0.8776 -0.6735 0.0000
-0.8776 -0.6327 0.0000
-0.8776 -0.5918 0.0000
-0.8776 -0.5510 0.0000
-0.8776 -0.5102 0.0000
-0.8776 -0.4694 0.0000
-0.8776 -0.4286 0.0000
-0.8776 -0.3878 0.0000
-0.8776 -0.3469 0.0000
-0.8776 -0.3061 0.0000
-0.8776 -0.2653 0.0000
-0.8776 -0.2245 0.0000
-0.8776 -0.1837 0.0000
-0.8776 -0.1429 0.0000
-0.8776 -0.1020 0.0000
-0.8776 -0.0612 0.0000
-0.8776 -0.0204 0.0000
-0.8776 0.0204 0.0000
-0.8776 0.0612 0.0000
-0.8776 0.1020 0.0000
-0.8776 0.1429 0.0000
-0.8776 0.1837 0.0000
-0.8776 0.2245 0.0000
-0.8776 0.2653 0.0000
-0.8776 0.3061 0.0000
-0.8776 0.3469 0.0000
-0.8776 0.3878 0.0000
-0.8776 0.4286 0.0000
-0.8776 0.4694 0.0000
-0.8776 0.5102 0.0000
-0.8776 0.5510 0.0000
-0.8776 0.5918 0.0000
-0.8776 0.6327 0.0000
-0.8776 0.6735 0.0000
-0.8776 0.7143 0.0000
-0.8776 0.7551 0.0000
-0.8776 0.7959 0.0000
-0.8776 0.8367 0.0000
-0.8776 0.8776 0.0000
-0.8776 0.9184 0.0000
-0.8776 0.9592 0.0000
-0.8776 1.0000 0.0000
-0.8367 -1.0000 0.0000
-0.8367 -0.9592 0.0000
-0.8367 -0.9184 0.0000
-0.8367 -0.8776 0.0000
-0.8367 -0.8367 0.0000
-0.8367 -0.7959 0.0000
-0.8367 -0.7551 0.0000
-0.8367 -0.7143 0.0000
-0.8367 -0.6735 0.0000
-0.8367 -0.6327 0.0000
-0.8367 -0.5918 0.0000
-0.8367 -0.5510 0.0000
-0.8367 -0.5102 0.0000
-0.8367 -0.4694 0.0000
-0.8367 -0.4286 0.0000
-0.8367 -0.3878 0.0000
-0.8367 -0.3469 0.0000
-0.8367 -0.3061 0.0000
-0.8367 -0.2653 0.0000
-0.8367 -0.2245 0.0000
-0.8367 -0.1837 0.0000
-0.8367 -0.1429 0.0000
-0.8367 -0.1020 0.0000
-0.8367 -0.0612 0.0000
-0.8367 -0.0204 0.0000
-0.8367 0.0204 0.0000
-0.8367 0.0612 0.0000
-0.8367 0.1020 0.0000
-0.8367 0.1429 0.0000
-0.8367 0.1837 0.0000
-0.8367 0.2245 0.0000
-0.8367 0.2653 0.0000
-0.8367 0.3061 0.0000
-0.8367 0.3469 0.0000
-0.8367 0.3878 0.0000
-0.8367 0.4286 0.0000
-0.8367 0.4694 0.0000
-0.8367 0.5102 0.0000
-0.8367 0.5510 0.0000
-0.8367 0.5918 0.0000
-0.8367 0.6327 0.0000
-0.8367 0.6735 0.0000
-0.8367 0.7143 0.0000
-0.8367 0.7551 0.0000
-0.8367 0.7959 0.0000
-0.8367 0.8367 0.0000
-0.8367 0.8776 0.0000
-0.8367 0.9184 0.0000
-0.8367 0.9592 0.0000
-0.8367 1.0000 0.0000
-0.7959 -1.0000 0.0000
-0.7959 -0.9592 0.0000
-0.7959 -0.9184 0.0000
-0.7959 -0.8776 0.0000
-0.7959 -0.8367 0.0000
-0.7959 -0.7959 0.0000
-0.7959 -0.7551 0.0000
-0.7959 -0.7143 0.0000
-0.7959 -0.6735 0.0000
-0.7959 -0.6327 0.0000
-0.7959 -0.5918 0.0000
-0.7959 -0.5510 0.0000
-0.7959 -0.5102 0.0000
-0.7959 -0.4694 0.0000
-0.7959 -0.4286 0.0000
-0.7959 -0.3878 0.0000
-0.7959 -0.3469 0.0000
-0.7959 -0.3061 0.0000
-0.7959 -0.2653 0.0000
-0.7959 -0.2245 0.0000
-0.7959 -0.1837 0.0000
-0.7959 -0.1429 0.0000
-0.7959 -0.1020 0.0000
-0.7959 -0.0612 0.0000
-0.7959 -0.0204 0.0000
-0.7959 0.0204 0.0000
-0.7959 0.0612 0.0000
-0.7959 0.1020 0.0000
-0.7959 0.1429 0.0000
-0.7959 0.1837 0.0000
-0.7959 0.2245 0.0000
-0.7959 0.2653 0.0000
-0.7959 0.3061 0.0000
-0.7959 0.3469 0.0000
-0.7959 0.3878 0.0000
-0.7959 0.4286 0.0000
-0.7959 0.4694 0.0000
-0.7959 0.5102 0.0000
-0.7959 0.5510 0.0000
-0.7959 0.5918 0.0000
-0.7959 0.6327 0.0000
-0.7959 0.6735 0.0000
-0.7959 0.7143 0.0000
-0.7959 0.7551 0.0000
-0.7959 0.7959 0.0000
-0.7959 0.8367 0.0000
-0.7959 0.8776 0.0000
-0.7959 0.9184 0.0000
-0.7959 0.9592 0.0000
-0.7959 1.0000 0.0000
-0.7551 -1.0000 0.0000
-0.7551 -0.9592 0.0000
-0.7551 -0.9184 0.0000
-0.7551 -0.8776 0.0000
-0.7551 -0.8367 0.0000
-0.7551 -0.7959 0.0000
-0.7551 -0.7551 0.0000
-0.7551 -0.7143 0.0000
-0.7551 -0.6735 0.0000
-0.7551 -0.6327 0.0000
-0.7551 -0.5918 0.0000
-0.7551 -0.5510 0.0000
-0.7551 -0.5102 0.0000
-0.7551 -0.4694 0.0000
-0.7551 -0.4286 0.0000
-0.7551 -0.3878 0.0000
-0.7551 -0.3469 0.0000
-0.7551 -0.3061 0.0000
-0.7551 -0.2653 0.0000
-0.7551 -0.2245 0.0000
-0.7551 -0.1837 0.0000
-0.7551 -0.1429 0.0000
-0.7551 -0.1020 0.0000
-0.7551 -0.0612 0.0000
-0.7551 -0.0204 0.0000
-0.7551 0.0204 0.0000
-0.7551 0.0612 0.0000
-0.7551 0.1020 0.0000
-0.7551 0.1429 0.0000
-0.7551 0.1837 0.0000
-0.7551 0.2245 0.0000
-0.7551 0.2653 0.0000
-0.7551 0.3061 0.0000
-0.7551 0.3469 0.0000
-0.7551 0.3878 0.0000
-0.7551 0.4286 0.0000
-0.7551 0.4694 0.0000
-0.7551 0.5102 0.0000
-0.7551 0.5510 0.0000
-0.7551 0.5918 0.0000
-0.7551 0.6327 0.0000
-0.7551 0.6735 0.0000
-0.7551 0.7143 0.0000
-0.7551 0.7551 0.0000
-0.7551 0.7959 0.0000
-0.7551 0.8367 0.0000
-0.7551 0.8776 0.0000
-0.7551 0.9184 0.0000
-0.7551 0.9592 0.0000
-0.7551 1.0000 0.0000
-0.7143 -1.0000 0.0000
-0.7143 -0.9592 0.0000
-0.7143 -0.9184 0.0000
-0.7143 -0.8776 0.0000
-0.7143 -0.8367 0.0000
-0.7143 -0.7959 0.0000
-0.7143 -0.7551 0.0000
-0.7143 -0.7143 0.0000
-0.7143 -0.6735 0.0000
-0.7143 -0.6327 0.0000
-0.7143 -0.5918 0.0000
-0.7143 -0.5510 0.0000
-0.7143 -0.5102 0.0000
-0.7143 -0.4694 0.0000
-0.7143 -0.4286 0.0000
-0.7143 -0.3878 0.0000
-0.7143 -0.3469 0.0000
-0.7143 -0.3061 0.0000
-0.7143 -0.2653 0.0000
-0.7143 -0.2245 0.0000
-0.7143 -0.1837 0.0000
-0.7143 -0.1429 0.0000
-0.7143 -0.1020 0.0000
-0.7143 -0.0612 0.0000
-0.7143 -0.0204 0.0000
-0.7143 0.0204 0.0000
-0.7143 0.0612 0.0000
-0.7143 0.1020 0.0000
-0.7143 0.1429 0.0000
-0.7143 0.1837 0.0000
-0.7143 0.2245 0.0000
-0.7143 0.2653 0.0000
-0.7143 0.3061 0.0000
-0.7143 0.3469 0.0000
-0.7143 0.3878 0.0000
-0.7143 0.4286 0.0000
-0.7143 0.4694 0.0000
-0.7143 0.5102 0.0000
-0.7143 0.5510 0.0000
-0.7143 0.5918 0.0000
-0.7143 0.6327 0.0000
-0.7143 0.6735 0.0000
-0.7143 0.7143 0.0000
-0.7143 0.7551 0.0000
-0.7143 0.7959 0.0000
-0.7143 0.8367 0.0000
-0.7143 0.8776 0.0000
-0.7143 0.9184 0.0000
-0.7143 0.9592 0.0000
-0.7143 1.0000 0.0000
-0.6735 -1.0000 0.0000
-0.6735 -0.9592 0.0000
-0.6735 -0.9184 0.0000
-0.6735 -0.8776 0.0000
-0.6735 -0.8367 0.0000
-0.6735 -0.7959 0.0000
-0.6735 -0.7551 0.0000
-0.6735 -0.7143 0.0000
-0.6735 -0.6735 0.0000
-0.6735 -0.6327 0.0000
-0.6735 -0.5918 0.0000
-0.6735 -0.5510 0.0000
-0.6735 -0.5102 0.0000
-0.6735 -0.4694 0.0000
-0.6735 -0.4286 0.0000
-0.6735 -0.3878 0.0000
-0.6735 -0.3469 0.0000
-0.6735 -0.3061 0.0000
-0.6735 -0.2653 0.0000
-0.6735 -0.2245 0.0000
-0.6735 -0.1837 0.0000
-0.6735 -0.1429 0.0000
-0.6735 -0.1020 0.0000
-0.6735 -0.0612 0.0000
-0.6735 -0.0204 0.0000
-0.6735 0.0204 0.0000
-0.6735 0.0612 0.0000
-0.6735 0.1020 0.0000
-0.6735 0.1429 0.0000
-0.6735 0.1837 0.0000
[...]
         <PointData>
            <DataArray Name="fValues" NumberOfComponents="3" format="ascii" type="Float64">
 1.18374e-19  2.13121e-17        00000 
-3.29722e-19 -7.03406e-18        00000 
 3.26054e-19  1.95632e-18        00000 
       00000  1.55672e-18        00000 
 4.34738e-19 -1.73895e-18        00000 
-5.44762e-19  5.17059e-19        00000 
-4.89081e-19 -8.69477e-19        00000 
-4.02835e-19  3.00419e-19        00000 
 2.17369e-19 -2.60843e-18        00000 
-9.94035e-19  3.75958e-18        00000 
 1.41290e-18 -3.26054e-18        00000 
-1.24947e-18  6.55460e-19        00000 
-5.43423e-20 -7.60792e-19        00000 
-3.68262e-19  1.41684e-18        00000 
-3.26054e-19 -7.60792e-19        00000 
-1.16071e-19  1.17437e-18        00000 
 4.89081e-19  1.19553e-18        00000 
-3.63962e-19 -8.04048e-19        00000 
 9.23819e-19  1.52158e-18        00000 
-8.94430e-19  7.51048e-19        00000 
 5.97765e-19 -1.63027e-18        00000 
-7.59892e-19  2.78849e-18        00000 
-6.52108e-19 -5.43423e-19        00000 
-3.82352e-19  3.61869e-19        00000 
-1.03250e-18  6.52108e-19        00000 
 1.72644e-18  2.18103e-18        00000 
-1.30422e-18 -4.34738e-19        00000 
 3.72110e-19  2.70377e-18        00000 
-1.08685e-19 -2.06501e-18        00000 
-5.37698e-19  5.05791e-19        00000 
       00000  5.43423e-19        00000 
-6.21322e-19  2.24632e-18        00000 
 8.15134e-19 -6.52108e-19        00000 
-5.48646e-19  7.48971e-19        00000 
 2.71711e-19 -1.41290e-18        00000 
-6.82771e-19  1.94590e-18        00000 
 4.89081e-19 -8.15134e-19        00000 
-4.55148e-19  5.56328e-19        00000 
 8.42306e-19 -1.46724e-18        00000 
-3.39679e-19  1.88445e-18        00000 
 1.90198e-19 -8.15134e-19        00000 
-1.37048e-19 -1.37048e-19        00000 
 3.26054e-19 -1.08685e-19        00000 
-5.29148e-20  5.53045e-19        00000 
-2.71711e-20 -8.69477e-19        00000 
-1.82016e-20  5.04935e-19        00000 
 5.43423e-20 -1.63027e-19        00000 
 5.30135e-20 -2.61647e-19        00000 
-1.40942e-20  2.53159e-19        00000 
 1.88632e-20 -1.59699e-19        00000 
       00000  2.04082e-02        00000 
-1.52737e-03  1.88566e-02        00000 
-2.28810e-03  1.78836e-02        00000 
-2.84885e-03  1.71377e-02        00000 
-3.30203e-03  1.65068e-02        00000 
-3.69208e-03  1.59468e-02        00000 
-4.04031e-03  1.54368e-02        00000 
-4.35869e-03  1.49663e-02        00000 
-4.65413e-03  1.45301e-02        00000 
-4.93039e-03  1.41260e-02        00000 
-5.18909e-03  1.37533e-02        00000 
-5.43025e-03  1.34120e-02        00000 
-5.65261e-03  1.31022e-02        00000 
-5.85394e-03  1.28239e-02        00000 
-6.03124e-03  1.25760e-02        00000 
-6.18103e-03  1.23568e-02        00000 
-6.29963e-03  1.21629e-02        00000 
-6.38352e-03  1.19898e-02        00000 
-6.42964e-03  1.18316e-02        00000 
-6.43581e-03  1.16810e-02        00000 
-6.40095e-03  1.15299e-02        00000 
-6.32540e-03  1.13699e-02        00000 
-6.21098e-03  1.11926e-02        00000 
-6.06101e-03  1.09906e-02        00000 
-5.88018e-03  1.07575e-02        00000 
-5.67423e-03  1.04890e-02        00000 
-5.44962e-03  1.01830e-02        00000 
-5.21310e-03  9.83947e-03        00000 
-4.97122e-03  9.46062e-03        00000 
-4.72998e-03  9.05065e-03        00000 
-4.49449e-03  8.61520e-03        00000 
-4.26872e-03  8.16093e-03        00000 
-4.05543e-03  7.69493e-03        00000 
-3.85609e-03  7.22423e-03        00000 
-3.67101e-03  6.75531e-03        00000 
-3.49943e-03  6.29377e-03        00000 
-3.33972e-03  5.84401e-03        00000 
-3.18956e-03  5.40913e-03        00000 
-3.04609e-03  4.99084e-03        00000 
-2.90607e-03  4.58941e-03        00000 
-2.76598e-03  4.20381e-03        00000 
-2.62202e-03  3.83162e-03        00000 
-2.47003e-03  3.46912e-03        00000 
-2.30523e-03  3.11109e-03        00000 
-2.12167e-03  2.75037e-03        00000 
-1.91101e-03  2.37676e-03        00000 
-1.65994e-03  1.97419e-03        00000 
-1.34175e-03  1.51344e-03        00000 
-9.01172e-04  9.25645e-04        00000 
 8.24178e-20  9.80863e-20        00000 
-2.38976e-19  4.08163e-02        00000 
-2.45167e-03  3.84542e-02        00000 
-4.07634e-03  3.65475e-02        00000 
-5.25859e-03  3.50021e-02        00000 
-6.21207e-03  3.36806e-02        00000 
-7.02671e-03  3.25082e-02        00000 
-7.75061e-03  3.14434e-02        00000 
-8.41086e-03  3.04635e-02        00000 
-9.02320e-03  2.95558e-02        00000 
-9.59636e-03  2.87137e-02        00000 
-1.01343e-02  2.79341e-02        00000 
-1.06372e-02  2.72154e-02        00000 
-1.11026e-02  2.65569e-02        00000 
-1.15257e-02  2.59575e-02        00000 
-1.18999e-02  2.54148e-02        00000 
-1.22175e-02  2.49250e-02        00000 
-1.24702e-02  2.44819e-02        00000 
-1.26500e-02  2.40768e-02        00000 
-1.27499e-02  2.36987e-02        00000 
-1.27649e-02  2.33344e-02        00000 
-1.26923e-02  2.29694e-02        00000 
-1.25326e-02  2.25883e-02        00000 
-1.22899e-02  2.21760e-02        00000 
-1.19715e-02  2.17191e-02        00000 
-1.15878e-02  2.12065e-02        00000 
-1.11517e-02  2.06307e-02        00000 
-1.06777e-02  1.99878e-02        00000 
-1.01806e-02  1.92784e-02        00000 
-9.67519e-03  1.85067e-02        00000 
-9.17443e-03  1.76805e-02        00000 
-8.68937e-03  1.68103e-02        00000 
-8.22843e-03  1.59082e-02        00000 
-7.79715e-03  1.49870e-02        00000 
-7.39828e-03  1.40595e-02        00000 
-7.03187e-03  1.31371e-02        00000 
-6.69570e-03  1.22297e-02        00000 
-6.38565e-03  1.13449e-02        00000 
-6.09613e-03  1.04878e-02        00000 
-5.82051e-03  9.66095e-03        00000 
-5.55142e-03  8.86425e-03        00000 
-5.28092e-03  8.09492e-03        00000 
-5.00058e-03  7.34765e-03        00000 
-4.70123e-03  6.61444e-03        00000 
-4.37236e-03  5.88423e-03        00000 
-4.00086e-03  5.14197e-03        00000 
-3.56834e-03  4.36664e-03        00000 
-3.04523e-03  3.52687e-03        00000 
-2.37802e-03  2.57216e-03        00000 
-1.43974e-03  1.41635e-03        00000 
-2.20379e-19  5.50947e-20        00000 
 8.69477e-19  6.12245e-02        00000 
-3.11933e-03  5.82414e-02        00000 
-5.45335e-03  5.56336e-02        00000 
-7.25978e-03  5.33669e-02        00000 
-8.73441e-03  5.13707e-02        00000 
-9.99812e-03  4.95766e-02        00000 
-1.11207e-02  4.79379e-02        00000 
-1.21440e-02  4.64249e-02        00000 
-1.30932e-02  4.50195e-02        00000 
-1.39826e-02  4.37111e-02        00000 
-1.48190e-02  4.24938e-02        00000 
-1.56030e-02  4.13643e-02        00000 
-1.63308e-02  4.03205e-02        00000 
-1.69948e-02  3.93602e-02        00000 
-1.75844e-02  3.84796e-02        00000 
-1.80868e-02  3.76730e-02        00000 
-1.84885e-02  3.69314e-02        00000 
-1.87760e-02  3.62430e-02        00000 
-1.89374e-02  3.55924e-02        00000 
-1.89641e-02  3.49613e-02        00000 
-1.88513e-02  3.43295e-02        00000 
-1.85998e-02  3.36758e-02        00000 
-1.82159e-02  3.29793e-02        00000 
-1.77116e-02  3.22217e-02        00000 
-1.71045e-02  3.13878e-02        00000 
-1.64157e-02  3.04676e-02        00000 
-1.56694e-02  2.94565e-02        00000 
-1.48901e-02  2.83556e-02        00000 
-1.41017e-02  2.71716e-02        00000 
-1.33257e-02  2.59160e-02        00000 
-1.25795e-02  2.46036e-02        00000 
-1.18764e-02  2.32517e-02        00000 
-1.12247e-02  2.18781e-02        00000 
-1.06281e-02  2.05002e-02        00000 
-1.00857e-02  1.91336e-02        00000 
-9.59306e-03  1.77914e-02        00000 
-9.14270e-03  1.64834e-02        00000 
-8.72489e-03  1.52159e-02        00000 
-8.32830e-03  1.39913e-02        00000 
-7.94057e-03  1.28085e-02        00000 
-7.54859e-03  1.16624e-02        00000 
-7.13858e-03  1.05446e-02        00000 
-6.69570e-03  9.44273e-03        00000 
-6.20317e-03  8.34035e-03        00000 
-5.64034e-03  7.21599e-03        00000 
-4.97909e-03  6.04141e-03        00000 
-4.17697e-03  4.77907e-03        00000 
-3.16276e-03  3.37983e-03        00000 
-1.82142e-03  1.79501e-03        00000 
 5.97765e-19 -5.43423e-20        00000 
 7.72151e-19  8.16327e-02        00000 
-3.64243e-03  7.81331e-02        00000 
-6.55501e-03  7.49431e-02        00000 
-8.92167e-03  7.20572e-02        00000 
-1.09038e-02  6.94397e-02        00000 
-1.26208e-02  6.70461e-02        00000 
-1.41535e-02  6.48369e-02        00000 
-1.55541e-02  6.27830e-02        00000 
-1.68556e-02  6.08647e-02        00000 
-1.80775e-02  5.90692e-02        00000 
-1.92291e-02  5.73890e-02        00000 
-2.03117e-02  5.58196e-02        00000 
-2.13200e-02  5.43577e-02        00000 
-2.22433e-02  5.30001e-02        00000 
-2.30663e-02  5.17422e-02        00000 
-2.37708e-02  5.05768e-02        00000 
-2.43367e-02  4.94929e-02        00000 
-2.47443e-02  4.84759e-02        00000 
-2.49757e-02  4.75067e-02        00000 
-2.50177e-02  4.65627e-02        00000 
-2.48629e-02  4.56183e-02        00000 
-2.45119e-02  4.46470e-02        00000 
-2.39737e-02  4.36228e-02        00000 
-2.32660e-02  4.25227e-02        00000 
-2.24143e-02  4.13282e-02        00000 
-2.14499e-02  4.00273e-02        00000 
-2.04082e-02  3.86150e-02        00000 
-1.93253e-02  3.70940e-02        00000 
-1.82357e-02  3.54739e-02        00000 
-1.71701e-02  3.37701e-02        00000 
-1.61534e-02  3.20022e-02        00000 
-1.52037e-02  3.01925e-02        00000 
-1.43320e-02  2.83635e-02        00000 
-1.35421e-02  2.65370e-02        00000 
-1.28318e-02  2.47319e-02        00000 
-1.21933e-02  2.29637e-02        00000 
-1.16148e-02  2.12436e-02        00000 
-1.10815e-02  1.95781e-02        00000 
-1.05764e-02  1.79689e-02        00000 
-1.00815e-02  1.64130e-02        00000 
-9.57781e-03  1.49030e-02        00000 
-9.04573e-03  1.34270e-02        00000 
-8.46453e-03  1.19687e-02        00000 
-7.81130e-03  1.05076e-02        00000 
-7.05884e-03  9.01802e-03        00000 
-6.17212e-03  7.46920e-03        00000 
-5.10250e-03  5.82512e-03        00000 
-3.78091e-03  4.04842e-03        00000 
-2.11516e-03  2.10952e-03        00000 
-1.42211e-19  1.61296e-19        00000 
-1.08685e-19  1.02041e-01        00000 
-4.06668e-03  9.80893e-02        00000 
-7.45783e-03  9.43957e-02        00000 
-1.03136e-02  9.09660e-02        00000 
-1.27655e-02  8.77858e-02        00000 
-1.49214e-02  8.48287e-02        00000 
-1.68623e-02  8.20672e-02        00000 
-1.86450e-02  7.94772e-02        00000 
-2.03077e-02  7.70408e-02        00000 
-2.18734e-02  7.47455e-02        00000 
-2.33537e-02  7.25835e-02        00000 
-2.47499e-02  7.05498e-02        00000 
-2.60552e-02  6.86410e-02        00000 
-2.72554e-02  6.68536e-02        00000 
-2.83301e-02  6.51826e-02        00000 
-2.92545e-02  6.36202e-02        00000 
-3.00012e-02  6.21542e-02        00000 
-3.05426e-02  6.07676e-02        00000 
-3.08539e-02  5.94383e-02        00000 
-3.09158e-02  5.81397e-02        00000 
-3.07175e-02  5.68414e-02        00000 
-3.02590e-02  5.55115e-02        00000 
-2.95523e-02  5.41191e-02        00000 
-2.86217e-02  5.26367e-02        00000 
-2.75021e-02  5.10427e-02        00000 
-2.62372e-02  4.93237e-02        00000 
-2.48754e-02  4.74752e-02        00000 
-2.34664e-02  4.55020e-02        00000 
-2.20572e-02  4.34177e-02        00000 
-2.06889e-02  4.12424e-02        00000 
-1.93943e-02  3.90013e-02        00000 
-1.81965e-02  3.67217e-02        00000 
-1.71085e-02  3.44312e-02        00000 
-1.61339e-02  3.21554e-02        00000 
-1.52675e-02  2.99161e-02        00000 
-1.44974e-02  2.77306e-02        00000 
-1.38063e-02  2.56104e-02        00000 
-1.31731e-02  2.35616e-02        00000 
-1.25747e-02  2.15843e-02        00000 
-1.19862e-02  1.96733e-02        00000 
-1.13826e-02  1.78181e-02        00000 
-1.07383e-02  1.60036e-02        00000 
-1.00267e-02  1.42102e-02        00000 
-9.21977e-03  1.24142e-02        00000 
-8.28550e-03  1.05880e-02        00000 
-7.18560e-03  8.70122e-03        00000 
-5.87199e-03  6.72200e-03        00000 
-4.28441e-03  4.62183e-03        00000 
-2.35178e-03  2.38193e-03        00000 
-1.27076e-20 -2.08945e-19        00000 
-1.25630e-18  1.22449e-01        00000 
-4.41521e-03  1.18092e-01        00000 
-8.20601e-03  1.13950e-01        00000 
-1.14852e-02  1.10034e-01        00000 
-1.43615e-02  1.06342e-01        00000 
-1.69296e-02  1.02861e-01        00000 
-1.92655e-02  9.95720e-02        00000 
-2.14261e-02  9.64590e-02        00000 
-2.34514e-02  9.35075e-02        00000 
-2.53669e-02  9.07067e-02        00000 
-2.71849e-02  8.80499e-02        00000 
-2.89069e-02  8.55327e-02        00000 
-3.05239e-02  8.31524e-02        00000 
-3.20178e-02  8.09061e-02        00000 
-3.33625e-02  7.87895e-02        00000 
-3.45258e-02  7.67948e-02        00000 
-3.54714e-02  7.49093e-02        00000 
-3.61625e-02  7.31149e-02        00000 
-3.65652e-02  7.13868e-02        00000 
-3.66529e-02  6.96946e-02        00000 
-3.64098e-02  6.80031e-02        00000 
-3.58349e-02  6.62753e-02        00000 
-3.49434e-02  6.44748e-02        00000 
-3.37671e-02  6.25699e-02        00000 
-3.23528e-02  6.05360e-02        00000 
-3.07586e-02  5.83588e-02        00000 
-2.90490e-02  5.60354e-02        00000 
-2.72896e-02  5.35740e-02        00000 
-2.55419e-02  5.09933e-02        00000 
-2.38587e-02  4.83194e-02        00000 
-2.22811e-02  4.55839e-02        00000 
-2.08372e-02  4.28201e-02        00000 
-1.95412e-02  4.00605e-02        00000 
-1.83949e-02  3.73344e-02        00000 
-1.73894e-02  3.46661e-02        00000 
-1.65067e-02  3.20737e-02        00000 
-1.57229e-02  2.95684e-02        00000 
-1.50096e-02  2.71547e-02        00000 
-1.43362e-02  2.48303e-02        00000 
-1.36709e-02  2.25872e-02        00000 
-1.29820e-02  2.04115e-02        00000 
-1.22380e-02  1.82849e-02        00000 
-1.14073e-02  1.61846e-02        00000 
-1.04575e-02  1.40849e-02        00000 
-9.35397e-03  1.19571e-02        00000 
-8.05815e-03  9.77199e-03        00000 
-6.52601e-03  7.50150e-03        00000 
-4.70768e-03  5.12271e-03        00000 
-2.54963e-03  2.62221e-03        00000 
 5.58303e-19 -4.98331e-19        00000 
 6.52108e-19  1.42857e-01        00000 
-4.70115e-03  1.38132e-01        00000 
-8.82660e-03  1.33585e-01        00000 
-1.24708e-02  1.29229e-01        00000 
-1.57256e-02  1.25069e-01        00000 
-1.86732e-02  1.21100e-01        00000 
-2.13830e-02  1.17312e-01        00000 
-2.39093e-02  1.13694e-01        00000 
-2.62921e-02  1.10237e-01        00000 
-2.85572e-02  1.06931e-01        00000 
-3.07176e-02  1.03772e-01        00000 
-3.27740e-02  1.00757e-01        00000 
-3.47151e-02  9.78844e-02        00000 
-3.65186e-02  9.51535e-02        00000 
-3.81519e-02  9.25611e-02        00000 
-3.95742e-02  9.01007e-02        00000 
-4.07390e-02  8.77603e-02        00000 
-4.15980e-02  8.55210e-02        00000 
-4.21061e-02  8.33560e-02        00000 
-4.22267e-02  8.12315e-02        00000 
-4.19378e-02  7.91076e-02        00000 
-4.12360e-02  7.69414e-02        00000 
-4.01400e-02  7.46912e-02        00000 
-3.86909e-02  7.23205e-02        00000 
-3.69497e-02  6.98022e-02        00000 
-3.49923e-02  6.71222e-02        00000 
-3.29029e-02  6.42800e-02        00000 
-3.07662e-02  6.12894e-02        00000 
-2.86604e-02  5.81755e-02        00000 
-2.66514e-02  5.49727e-02        00000 
-2.47892e-02  5.17197e-02        00000 
-2.31057e-02  4.84566e-02        00000 
-2.16154e-02  4.52211e-02        00000 
-2.03168e-02  4.20459e-02        00000 
-1.91950e-02  3.89569e-02        00000 
-1.82247e-02  3.59720e-02        00000 
-1.73734e-02  3.31011e-02        00000 
-1.66042e-02  3.03459e-02        00000 
-1.58782e-02  2.77010e-02        00000 
-1.51563e-02  2.51544e-02        00000 
-1.43998e-02  2.26887e-02        00000 
-1.35716e-02  2.02818e-02        00000 
-1.26357e-02  1.79083e-02        00000 
-1.15566e-02  1.55402e-02        00000 
-1.02987e-02  1.31485e-02        00000 
-8.82525e-03  1.07047e-02        00000 
-7.09760e-03  8.18312e-03        00000 
-5.07604e-03  5.56393e-03        00000 
-2.72167e-03  2.83611e-03        00000 
 6.88058e-20 -4.59184e-20        00000 
-1.41323e-18  1.63265e-01        00000 
-4.93288e-03  1.58205e-01        00000 
-9.33751e-03  1.53288e-01        00000 
-1.32950e-02  1.48531e-01        00000 
-1.68840e-02  1.43942e-01        00000 
-2.01762e-02  1.39521e-01        00000 
-2.32340e-02  1.35264e-01        00000 
-2.61081e-02  1.31164e-01        00000 
-2.88369e-02  1.27214e-01        00000 
-3.14461e-02  1.23409e-01        00000 
-3.39486e-02  1.19745e-01        00000 
-3.63441e-02  1.16223e-01        00000 
-3.86190e-02  1.12842e-01        00000 
-4.07466e-02  1.09603e-01        00000 
-4.26872e-02  1.06507e-01        00000 
-4.43902e-02  1.03549e-01        00000 
-4.57968e-02  1.00718e-01        00000 
-4.68448e-02  9.79967e-02        00000 
-4.74747e-02  9.53559e-02        00000 
-4.76372e-02  9.27587e-02        00000 
-4.73010e-02  9.01602e-02        00000 
-4.64595e-02  8.75116e-02        00000 
-4.51350e-02  8.47648e-02        00000 
-4.33797e-02  8.18789e-02        00000 
-4.12724e-02  7.88247e-02        00000 
-3.89115e-02  7.55894e-02        00000 
-3.64053e-02  7.21774e-02        00000 
-3.38615e-02  6.86101e-02        00000 
-3.13779e-02  6.49220e-02        00000 
-2.90347e-02  6.11570e-02        00000 
-2.68904e-02  5.73629e-02        00000 
-2.49802e-02  5.35871e-02        00000 
-2.33166e-02  4.98722e-02        00000 
-2.18925e-02  4.62538e-02        00000 
-2.06846e-02  4.27580e-02        00000 
-1.96582e-02  3.94014e-02        00000 
-1.87704e-02  3.61908e-02        00000 
-1.79747e-02  3.31242e-02        00000 
-1.72229e-02  3.01914e-02        00000 
-1.64677e-02  2.73760e-02        00000 
-1.56640e-02  2.46559e-02        00000 
-1.47694e-02  2.20055e-02        00000 
-1.37440e-02  1.93960e-02        00000 
-1.25506e-02  1.67977e-02        00000 
-1.11536e-02  1.41804e-02        00000 
-9.51923e-03  1.15161e-02        00000 
-7.61478e-03  8.78021e-03        00000 
-5.40995e-03  5.95415e-03        00000 
-2.87836e-03  3.02754e-03        00000 
 2.77693e-19 -3.79800e-19        00000 
 6.52108e-19  1.83673e-01        00000 
-5.11649e-03  1.78308e-01        00000 
-9.75190e-03  1.73055e-01        00000 
-1.39766e-02  1.67934e-01        00000 
-1.78584e-02  1.62952e-01        00000 
-2.14600e-02  1.58115e-01        00000 
-2.48371e-02  1.53419e-01        00000 
-2.80365e-02  1.48862e-01        00000 
-3.10948e-02  1.44438e-01        00000 
-3.40372e-02  1.40145e-01        00000 
-3.68764e-02  1.35980e-01        00000 
-3.96114e-02  1.31945e-01        00000 
-4.22267e-02  1.28043e-01        00000 
-4.46910e-02  1.24277e-01        00000 
-4.69573e-02  1.20652e-01        00000 
-4.89639e-02  1.17164e-01        00000 
-5.06376e-02  1.13808e-01        00000 
-5.18989e-02  1.10564e-01        00000 
-5.26703e-02  1.07405e-01        00000 
-5.28853e-02  1.04291e-01        00000 
-5.25002e-02  1.01170e-01        00000 
-5.15028e-02  9.79871e-02        00000 
-4.99194e-02  9.46879e-02        00000 
-4.78162e-02  9.12266e-02        00000 
-4.52949e-02  8.75735e-02        00000 
-4.24822e-02  8.37191e-02        00000 
-3.95165e-02  7.96761e-02        00000 
-3.65335e-02  7.54768e-02        00000 
-3.36533e-02  7.11684e-02        00000 
-3.09717e-02  6.68068e-02        00000 
-2.85549e-02  6.24500e-02        00000 
-2.64390e-02  5.81526e-02        00000 
-2.46320e-02  5.39616e-02        00000 
-2.31181e-02  4.99137e-02        00000 
-2.18629e-02  4.60338e-02        00000 
-2.08193e-02  4.23351e-02        00000 
-1.99326e-02  3.88196e-02        00000 
-1.91445e-02  3.54794e-02        00000 
-1.83973e-02  3.22988e-02        00000 
-1.76353e-02  2.92552e-02        00000 
-1.68069e-02  2.63218e-02        00000 
-1.58648e-02  2.34683e-02        00000 
-1.47665e-02  2.06629e-02        00000 
-1.34734e-02  1.78734e-02        00000 
-1.19514e-02  1.50686e-02        00000 
-1.01699e-02  1.22201e-02        00000 
-8.10242e-03  9.30340e-03        00000 