<?xml version="1.0" encoding="utf-8"?>
<VTKFile byte_order="LittleEndian" type="UnstructuredGrid" version="0.1">
   <UnstructuredGrid>
      <Piece NumberOfCells="9604" NumberOfPoints="4901">
         <Points>
            <DataArray Name="Points" NumberOfComponents="3" format="ascii" type="Float32">
-1.0000 -1.0000 0.0000
-1.0000 -0.9592 0.0000
-1.0000 -0.9184 0.0000
-1.0000 -0.8776 0.0000
-1.0000 -0.8367 0.0000
-1.0000 -0.7959 0.0000
-1.0000 -0.7551 0.0000
-1.0000 -0.7143 0.0000
-1.0000 -0.6735 0.0000
-1.0000 -0.6327 0.0000
-1.0000 -0.5918 0.0000
-1.0000 -0.5510 0.0000
-1.0000 -0.5102 0.0000
-1.0000 -0.4694 0.0000
-1.0000 -0.4286 0.0000
-1.0000 -0.3878 0.0000
-1.0000 -0.3469 0.0000
-1.0000 -0.3061 0.0000
-1.0000 -0.2653 0.0000
-1.0000 -0.2245 0.0000
-1.0000 -0.1837 0.0000
-1.0000 -0.1429 0.0000
-1.0000 -0.1020 0.0000
-1.0000 -0.0612 0.0000
-1.0000 -0.0204 0.0000
-1.0000 0.0204 0.0000
-1.0000 0.0612 0.0000
-1.0000 0.1020 0.0000
-1.0000 0.1429 0.0000
-1.0000 0.1837 0.0000
-1.0000 0.2245 0.0000
-1.0000 0.2653 0.0000
-1.0000 0.3061 0.0000
-1.0000 0.3469 0.0000
-1.0000 0.3878 0.0000
-1.0000 0.4286 0.0000
-1.0000 0.4694 0.0000
-1.0000 0.5102 0.0000
-1.0000 0.5510 0.0000
-1.0000 0.5918 0.0000
-1.0000 0.6327 0.0000
-1.0000 0.6735 0.0000
-1.0000 0.7143 0.0000
-1.0000 0.7551 0.0000
-1.0000 0.7959 0.0000
-1.0000 0.8367 0.0000
-1.0000 0.8776 0.0000
-1.0000 0.9184 0.0000
-1.0000 0.9592 0.0000
-1.0000 1.0000 0.0000
-0.9592 -1.0000 0.0000
-0.9592 -0.9592 0.0000
-0.9592 -0.9184 0.0000
-0.9592 -0.8776 0.0000
-0.9592 -0.8367 0.0000
-0.9592 -0.7959 0.0000
-0.9592 -0.7551 0.0000
-0.9592 -0.7143 0.0000
-0.9592 -0.6735 0.0000
-0.9592 -0.6327 0.0000
-0.9592 -0.5918 0.0000
-0.9592 -0.5510 0.0000
-0.9592 -0.5102 0.0000
-0.9592 -0.4694 0.0000
-0.9592 -0.4286 0.0000
-0.9592 -0.3878 0.0000
-0.9592 -0.3469 0.0000
-0.9592 -0.3061 0.0000
-0.9592 -0.2653 0.0000
-0.9592 -0.2245 0.0000
-0.9592 -0.1837 0.0000
-0.9592 -0.1429 0.0000
-0.9592 -0.1020 0.0000
-0.9592 -0.0612 0.0000
-0.9592 -0.0204 0.0000
-0.9592 0.0204 0.0000
-0.9592 0.0612 0.0000
-0.9592 0.1020 0.0000
-0.9592 0.1429 0.0000
-0.9592 0.1837 0.0000
-0.9592 0.2245 0.0000
-0.9592 0.2653 0.0000
-0.9592 0.3061 0.0000
-0.9592 0.3469 0.0000
-0.9592 0.3878 0.0000
-0.9592 0.4286 0.0000
-0.9592 0.4694 0.0000
-0.9592 0.5102 0.0000
-0.9592 0.5510 0.0000
-0.9592 0.5918 0.0000
-0.9592 0.6327 0.0000
-0.9592 0.6735 0.0000
-0.9592 0.7143 0.0000
-0.9592 0.7551 0.0000
-0.9592 0.7959 0.0000
-0.9592 0.8367 0.0000
-0.9592 0.8776 0.0000
-0.9592 0.9184 0.0000
-0.9592 0.9592 0.0000
-0.9592 1.0000 0.0000
-0.9184 -1.0000 0.0000
-0.9184 -0.9592 0.0000
-0.9184 -0.9184 0.0000
-0.9184 -0.8776 0.0000
-0.9184 -0.8367 0.0000
-0.9184 -0.7959 0.0000
-0.9184 -0.7551 0.0000
-0.9184 -0.7143 0.0000
-0.9184 -0.6735 0.0000
-0.9184 -0.6327 0.0000
-0.9184 -0.5918 0.0000
-0.9184 -0.5510 0.0000
-0.9184 -0.5102 0.0000
-0.9184 -0.4694 0.0000
-0.9184 -0.4286 0.0000
-0.9184 -0.3878 0.0000
-0.9184 -0.3469 0.0000
-0.9184 -0.3061 0.0000
-0.9184 -0.2653 0.0000
-0.9184 -0.2245 0.0000
-0.9184 -0.1837 0.0000
-0.9184 -0.1429 0.0000
-0.9184 -0.1020 0.0000
-0.9184 -0.0612 0.0000
-0.9184 -0.0204 0.0000
-0.9184 0.0204 0.0000
-0.9184 0.0612 0.0000
-0.9184 0.1020 0.0000
-0.9184 0.1429 0.0000
-0.9184 0.1837 0.0000
-0.9184 0.2245 0.0000
-0.9184 0.2653 0.0000
-0.9184 0.3061 0.0000
-0.9184 0.3469 0.0000
-0.9184 0.3878 0.0000
-0.9184 0.4286 0.0000
-0.9184 0.4694 0.0000
-0.9184 0.5102 0.0000
-0.9184 0.5510 0.0000
-0.9184 0.5918 0.0000
-0.9184 0.6327 0.0000
-0.9184 0.6735 0.0000
-0.9184 0.7143 0.0000
-0.9184 0.7551 0.0000
-0.9184 0.7959 0.0000
-0.9184 0.8367 0.0000
-0.9184 0.8776 0.0000
-0.9184 0.9184 0.0000
-0.9184 0.9592 0.0000
-0.9184 1.0000 0.0000
-0.8776 -1.0000 0.0000
-0.8776 -0.9592 0.0000
-0.8776 -0.9184 0.0000
-0.8776 -0.8776 0.0000
-0.8776 -0.8367 0.0000
-0.8776 -0.7959 0.0000
-0.8776 -0.7551 0.0000
-0.8776 -0.7143 0.0000
-0.8776 -0.6735 0.0000
-0.8776 -0.6327 0.0000
-0.8776 -0.5918 0.0000
-0.8776 -0.5510 0.0000
-0.8776 -0.5102 0.0000
-0.8776 -0.4694 0.0000
-0.8776 -0.4286 0.0000
-0.8776 -0.3878 0.0000
-0.8776 -0.3469 0.0000
-0.8776 -0.3061 0.0000
-0.8776 -0.2653 0.0000
-0.8776 -0.2245 0.0000
-0.8776 -0.1837 0.0000
-0.8776 -0.1429 0.0000
-0.8776 -0.1020 0.0000
-0.8776 -0.0612 0.0000
-0.8776 -0.0204 0.0000
-0.8776 0.0204 0.0000
-0.8776 0.0612 0.0000
-0.8776 0.1020 0.0000
-0.8776 0.1429 0.0000
-0.8776 0.1837 0.0000
-0.8776 0.2245 0.0000
-0.8776 0.2653 0.0000
-0.8776 0.3061 0.0000
-0.8776 0.3469 0.0000
-0.8776 0.3878 0.0000
-0.8776 0.4286 0.0000
-0.8776 0.4694 0.0000
-0.8776 0.5102 0.0000
-0.8776 0.5510 0.0000
-0.8776 0.5918 0.0000
-0.8776 0.6327 0.0000
-0.8776 0.6735 0.0000
-0.8776 0.7143 0.0000
-0.8776 0.7551 0.0000
-0.8776 0.7959 0.0000
-0.8776 0.8367 0.0000
-0.8776 0.8776 0.0000
-0.8776 0.9184 0.0000
-0.8776 0.9592 0.0000
-0.8776 1.0000 0.0000
-0.8367 -1.0000 0.0000
-0.8367 -0.9592 0.0000
-0.8367 -0.9184 0.0000
-0.8367 -0.8776 0.0000
-0.8367 -0.8367 0.0000
-0.8367 -0.7959 0.0000
-0.8367 -0.7551 0.0000
-0.8367 -0.7143 0.0000
-0.8367 -0.6735 0.0000
-0.8367 -0.6327 0.0000
-0.8367 -0.5918 0.0000
-0.8367 -0.5510 0.0000
-0.8367 -0.5102 0.0000
-0.8367 -0.4694 0.0000
-0.8367 -0.4286 0.0000
-0.8367 -0.3878 0.0000
-0.8367 -0.3469 0.0000
-0.8367 -0.3061 0.0000
-0.8367 -0.2653 0.0000
-0.8367 -0.2245 0.0000
-0.8367 -0.1837 0.0000
-0.8367 -0.1429 0.0000
-0.8367 -0.1020 0.0000
-0.8367 -0.0612 0.0000
-0.8367 -0.0204 0.0000
-0.8367 0.0204 0.0000
-0.8367 0.0612 0.0000
-0.8367 0.1020 0.0000
-0.8367 0.1429 0.0000
-0.8367 0.1837 0.0000
-0.8367 0.2245 0.0000
-0.8367 0.2653 0.0000
-0.8367 0.3061 0.0000
-0.8367 0.3469 0.0000
-0.8367 0.3878 0.0000
-0.8367 0.4286 0.0000
-0.8367 0.4694 0.0000
-0.8367 0.5102 0.0000
-0.8367 0.5510 0.0000
-0.8367 0.5918 0.0000
-0.8367 0.6327 0.0000
-0.8367 0.6735 0.0000
-0.8367 0.7143 0.0000
-0.8367 0.7551 0.0000
-0.8367 0.7959 0.0000
-0.8367 0.8367 0.0000
-0.8367 0.8776 0.0000
-0.8367 0.9184 0.0000
-0.8367 0.9592 0.0000
-0.8367 1.0000 0.0000
-0.7959 -1.0000 0.0000
-0.7959 -0.9592 0.0000
-0.7959 -0.9184 0.0000
-0.7959 -0.8776 0.0000
-0.7959 -0.8367 0.0000
-0.7959 -0.7959 0.0000
-0.7959 -0.7551 0.0000
-0.7959 -0.7143 0.0000
-0.7959 -0.6735 0.0000
-0.7959 -0.6327 0.0000
-0.7959 -0.5918 0.0000
-0.7959 -0.5510 0.0000
-0.7959 -0.5102 0.0000
-0.7959 -0.4694 0.0000
-0.7959 -0.4286 0.0000
-0.7959 -0.3878 0.0000
-0.7959 -0.3469 0.0000
-0.7959 -0.3061 0.0000
-0.7959 -0.2653 0.0000
-0.7959 -0.2245 0.0000
-0.7959 -0.1837 0.0000
-0.7959 -0.1429 0.0000
-0.7959 -0.1020 0.0000
-0.7959 -0.0612 0.0000
-0.7959 -0.0204 0.0000
-0.7959 0.0204 0.0000
-0.7959 0.0612 0.0000
-0.7959 0.1020 0.0000
-0.7959 0.1429 0.0000
-0.7959 0.1837 0.0000
-0.7959 0.2245 0.0000
-0.7959 0.2653 0.0000
-0.7959 0.3061 0.0000
-0.7959 0.3469 0.0000
-0.7959 0.3878 0.0000
-0.7959 0.4286 0.0000
-0.7959 0.4694 0.0000
-0.7959 0.5102 0.0000
-0.7959 0.5510 0.0000
-0.7959 0.5918 0.0000
-0.7959 0.6327 0.0000
-0.7959 0.6735 0.0000
-0.7959 0.7143 0.0000
-0.7959 0.7551 0.0000
-0.7959 0.7959 0.0000
-0.7959 0.8367 0.0000
-0.7959 0.8776 0.0000
-0.7959 0.9184 0.0000
-0.7959 0.9592 0.0000
-0.7959 1.0000 0.0000
-0.7551 -1.0000 0.0000
-0.7551 -0.9592 0.0000
-0.7551 -0.9184 0.0000
-0.7551 -0.8776 0.0000
-0.7551 -0.8367 0.0000
-0.7551 -0.7959 0.0000
-0.7551 -0.7551 0.0000
-0.7551 -0.7143 0.0000
-0.7551 -0.6735 0.0000
-0.7551 -0.6327 0.0000
-0.7551 -0.5918 0.0000
-0.7551 -0.5510 0.0000
-0.7551 -0.5102 0.0000
-0.7551 -0.4694 0.0000
-0.7551 -0.4286 0.0000
-0.7551 -0.3878 0.0000
-0.7551 -0.3469 0.0000
-0.7551 -0.3061 0.0000
-0.7551 -0.2653 0.0000
-0.7551 -0.2245 0.0000
-0.7551 -0.1837 0.0000
-0.7551 -0.1429 0.0000
-0.7551 -0.1020 0.0000
-0.7551 -0.0612 0.0000
-0.7551 -0.0204 0.0000
-0.7551 0.0204 0.0000
-0.7551 0.0612 0.0000
-0.7551 0.1020 0.0000
-0.7551 0.1429 0.0000
-0.7551 0.1837 0.0000
-0.7551 0.2245 0.0000
-0.7551 0.2653 0.0000
-0.7551 0.3061 0.0000
-0.7551 0.3469 0.0000
-0.7551 0.3878 0.0000
-0.7551 0.4286 0.0000
-0.7551 0.4694 0.0000
-0.7551 0.5102 0.0000
-0.7551 0.5510 0.0000
-0.7551 0.5918 0.0000
-0.7551 0.6327 0.0000
-0.7551 0.6735 0.0000
-0.7551 0.7143 0.0000
-0.7551 0.7551 0.0000
-0.7551 0.7959 0.0000
-0.7551 0.8367 0.0000
-0.7551 0.8776 0.0000
-0.7551 0.9184 0.0000
-0.7551 0.9592 0.0000
-0.7551 1.0000 0.0000
-0.7143 -1.0000 0.0000
-0.7143 -0.9592 0.0000
-0.7143 -0.9184 0.0000
-0.7143 -0.8776 0.0000
-0.7143 -0.8367 0.0000
-0.7143 -0.7959 0.0000
-0.7143 -0.7551 0.0000
-0.7143 -0.7143 0.0000
-0.7143 -0.6735 0.0000
-0.7143 -0.6327 0.0000
-0.7143 -0.5918 0.0000
-0.7143 -0.5510 0.0000
-0.7143 -0.5102 0.0000
-0.7143 -0.4694 0.0000
-0.7143 -0.4286 0.0000
-0.7143 -0.3878 0.0000
-0.7143 -0.3469 0.0000
-0.7143 -0.3061 0.0000
-0.7143 -0.2653 0.0000
-0.7143 -0.2245 0.0000
-0.7143 -0.1837 0.0000
-0.7143 -0.1429 0.0000
-0.7143 -0.1020 0.0000
-0.7143 -0.0612 0.0000
-0.7143 -0.0204 0.0000
-0.7143 0.0204 0.0000
-0.7143 0.0612 0.0000
-0.7143 0.1020 0.0000
-0.7143 0.1429 0.0000
-0.7143 0.1837 0.0000
-0.7143 0.2245 0.0000
-0.7143 0.2653 0.0000
-0.7143 0.3061 0.0000
-0.7143 0.3469 0.0000
-0.7143 0.3878 0.0000
-0.7143 0.4286 0.0000
-0.7143 0.4694 0.0000
-0.7143 0.5102 0.0000
-0.7143 0.5510 0.0000
-0.7143 0.5918 0.0000
-0.7143 0.6327 0.0000
-0.7143 0.6735 0.0000
-0.7143 0.7143 0.0000
-0.7143 0.7551 0.0000
-0.7143 0.7959 0.0000
-0.7143 0.8367 0.0000
-0.7143 0.8776 0.0000
-0.7143 0.9184 0.0000
-0.7143 0.9592 0.0000
-0.7143 1.0000 0.0000
-0.6735 -1.0000 0.0000
-0.6735 -0.9592 0.0000
-0.6735 -0.9184 0.0000
-0.6735 -0.8776 0.0000
-0.6735 -0.8367 0.0000
-0.6735 -0.7959 0.0000
-0.6735 -0.7551 0.0000
-0.6735 -0.7143 0.0000
-0.6735 -0.6735 0.0000
-0.6735 -0.6327 0.0000
-0.6735 -0.5918 0.0000
-0.6735 -0.5510 0.0000
-0.6735 -0.5102 0.0000
-0.6735 -0.4694 0.0000
-0.6735 -0.4286 0.0000
-0.6735 -0.3878 0.0000
-0.6735 -0.3469 0.0000
-0.6735 -0.3061 0.0000
-0.6735 -0.2653 0.0000
-0.6735 -0.2245 0.0000
-0.6735 -0.1837 0.0000
-0.6735 -0.1429 0.0000
-0.6735 -0.1020 0.0000
-0.6735 -0.0612 0.0000
-0.6735 -0.0204 0.0000
-0.6735 0.0204 0.0000
-0.6735 0.0612 0.0000
-0.6735 0.1020 0.0000
-0.6735 0.1429 0.0000
-0.6735 0.1837 0.0000
[...]
         <PointData>
            <DataArray Name="fValues" NumberOfComponents="3" format="ascii" type="Float64">
 1.00480e+00 -3.03261e-04        00000 
 9.81838e-01  2.97520e-03        00000 
 9.59907e-01  3.83489e-03        00000 
 9.39048e-01  4.61810e-03        00000 
 9.18230e-01  5.69697e-03        00000 
 8.98517e-01  6.30299e-03        00000 
 8.78455e-01  6.64479e-03        00000 
 8.58423e-01  6.83566e-03        00000 
 8.37681e-01  6.77190e-03        00000 
 8.17396e-01  6.42664e-03        00000 
 7.98035e-01  6.25532e-03        00000 
 7.77519e-01  6.27499e-03        00000 
 7.55721e-01  6.43864e-03        00000 
 7.35018e-01  6.46815e-03        00000 
 7.14909e-01  5.89392e-03        00000 
 6.95797e-01  5.36310e-03        00000 
 6.76796e-01  4.86872e-03        00000 
 6.55929e-01  4.35032e-03        00000 
 6.33947e-01  3.83903e-03        00000 
 6.11867e-01  3.66183e-03        00000 
 5.90061e-01  3.49934e-03        00000 
 5.68872e-01  3.37883e-03        00000 
 5.49791e-01  3.27193e-03        00000 
 5.30985e-01  3.15634e-03        00000 
 5.11706e-01  3.06700e-03        00000 
 4.92499e-01  2.89714e-03        00000 
 4.73341e-01  2.57428e-03        00000 
 4.54136e-01  2.10492e-03        00000 
 4.34097e-01  2.10557e-03        00000 
 4.13281e-01  2.73667e-03        00000 
 3.92157e-01  3.00154e-03        00000 
 3.70405e-01  2.93111e-03        00000 
 3.47816e-01  3.25049e-03        00000 
 3.24515e-01  4.00910e-03        00000 
 3.01454e-01  4.60350e-03        00000 
 2.82610e-01  4.16402e-03        00000 
 2.66569e-01  3.54220e-03        00000 
 2.47641e-01  2.67864e-03        00000 
 2.27803e-01  1.97523e-03        00000 
 2.08535e-01  3.64385e-04        00000 
 1.88910e-01 -7.68068e-04        00000 
 1.68796e-01 -9.12861e-04        00000 
 1.43342e-01 -1.17515e-03        00000 
 1.21812e-01 -1.90031e-03        00000 
 1.06041e-01 -2.85278e-03        00000 
 8.73755e-02 -3.41352e-03        00000 
 6.46937e-02 -3.39266e-03        00000 
 4.19786e-02 -3.17013e-03        00000 
 1.96138e-02 -4.12795e-03        00000 
 3.04340e-03 -7.24269e-03        00000 
 9.83259e-01  2.47695e-03        00000 
 9.61655e-01  5.65692e-03        00000 
 9.41574e-01  7.16175e-03        00000 
 9.21604e-01  8.24569e-03        00000 
 9.00833e-01  8.92310e-03        00000 
 8.81623e-01  9.52822e-03        00000 
 8.63479e-01  1.00209e-02        00000 
 8.44768e-01  1.02699e-02        00000 
 8.23438e-01  1.00998e-02        00000 
 8.02760e-01  9.86880e-03        00000 
 7.83401e-01  1.04458e-02        00000 
 7.63751e-01  1.10484e-02        00000 
 7.42587e-01  1.15426e-02        00000 
 7.22361e-01  1.17582e-02        00000 
 7.03045e-01  1.15349e-02        00000 
 6.83811e-01  1.14293e-02        00000 
 6.63875e-01  1.14332e-02        00000 
 6.44249e-01  1.11874e-02        00000 
 6.24876e-01  1.05912e-02        00000 
 6.04260e-01  1.02994e-02        00000 
 5.83386e-01  1.01313e-02        00000 
 5.62718e-01  1.00692e-02        00000 
 5.42477e-01  9.87242e-03        00000 
 5.22434e-01  9.62713e-03        00000 
 5.02054e-01  9.47160e-03        00000 
 4.82796e-01  9.19936e-03        00000 
 4.63724e-01  9.03311e-03        00000 
 4.44190e-01  9.12729e-03        00000 
 4.23878e-01  8.36063e-03        00000 
 4.02831e-01  7.52974e-03        00000 
 3.81774e-01  7.82477e-03        00000 
 3.60544e-01  8.23924e-03        00000 
 3.39370e-01  9.36934e-03        00000 
 3.18108e-01  1.02179e-02        00000 
 2.97292e-01  9.98353e-03        00000 
 2.76241e-01  8.86360e-03        00000 
 2.56633e-01  7.11305e-03        00000 
 2.36638e-01  7.35157e-03        00000 
 2.12934e-01  7.96470e-03        00000 
 1.93965e-01  8.24262e-03        00000 
 1.75846e-01  7.56784e-03        00000 
 1.56238e-01  6.96664e-03        00000 
 1.35919e-01  6.22231e-03        00000 
 1.15624e-01  5.25760e-03        00000 
 9.93428e-02  3.81000e-03        00000 
 7.93868e-02  3.22169e-03        00000 
 5.93229e-02  2.45341e-03        00000 
 3.89224e-02  1.16999e-03        00000 
 1.90977e-02 -6.26670e-04        00000 
 4.11760e-03 -5.64922e-03        00000 
 9.63158e-01  2.75637e-03        00000 
 9.41252e-01  7.39864e-03        00000 
 9.22964e-01  9.16752e-03        00000 
 9.02866e-01  1.03640e-02        00000 
 8.83353e-01  1.11550e-02        00000 
 8.64903e-01  1.22632e-02        00000 
 8.47725e-01  1.34886e-02        00000 
 8.30656e-01  1.44838e-02        00000 
 8.10632e-01  1.48219e-02        00000 
 7.91877e-01  1.51252e-02        00000 
 7.73127e-01  1.56686e-02        00000 
 7.53226e-01  1.64182e-02        00000 
 7.32138e-01  1.71027e-02        00000 
 7.11680e-01  1.74185e-02        00000 
 6.91318e-01  1.77508e-02        00000 
 6.72168e-01  1.79684e-02        00000 
 6.52314e-01  1.79593e-02        00000 
 6.33061e-01  1.77813e-02        00000 
 6.14511e-01  1.75848e-02        00000 
 5.96420e-01  1.71012e-02        00000 
 5.77008e-01  1.66759e-02        00000 
 5.57050e-01  1.64784e-02        00000 
 5.37205e-01  1.64050e-02        00000 
 5.17588e-01  1.62210e-02        00000 
 4.97125e-01  1.67870e-02        00000 
 4.76446e-01  1.72271e-02        00000 
 4.55119e-01  1.70086e-02        00000 
 4.33688e-01  1.66208e-02        00000 
 4.14141e-01  1.61927e-02        00000 
 3.94264e-01  1.53870e-02        00000 
 3.73516e-01  1.45928e-02        00000 
 3.53186e-01  1.55456e-02        00000 
 3.32850e-01  1.61973e-02        00000 
 3.11741e-01  1.59555e-02        00000 
 2.90678e-01  1.48121e-02        00000 
 2.69121e-01  1.32860e-02        00000 
 2.47886e-01  1.19621e-02        00000 
 2.28262e-01  1.23055e-02        00000 
 2.08783e-01  1.34971e-02        00000 
 1.90312e-01  1.36699e-02        00000 
 1.69910e-01  1.31550e-02        00000 
 1.49967e-01  1.29693e-02        00000 
 1.31145e-01  1.25863e-02        00000 
 1.15720e-01  1.17376e-02        00000 
 9.57424e-02  9.93351e-03        00000 
 7.49072e-02  8.21845e-03        00000 
 5.55202e-02  6.30140e-03        00000 
 3.70137e-02  3.52408e-03        00000 
 1.76944e-02  6.68525e-04        00000 
 1.06315e-03 -6.34108e-03        00000 
 9.40028e-01  1.98371e-03        00000 
 9.20890e-01  6.76954e-03        00000 
 9.06281e-01  1.18923e-02        00000 
 8.86064e-01  1.38759e-02        00000 
 8.67446e-01  1.49075e-02        00000 
 8.49643e-01  1.61037e-02        00000 
 8.32625e-01  1.72657e-02        00000 
 8.16166e-01  1.83335e-02        00000 
 7.97586e-01  1.94425e-02        00000 
 7.78757e-01  2.02990e-02        00000 
 7.61064e-01  2.09971e-02        00000 
 7.43413e-01  2.15580e-02        00000 
 7.22763e-01  2.25316e-02        00000 
 7.01845e-01  2.40064e-02        00000 
 6.81551e-01  2.44964e-02        00000 
 6.62216e-01  2.47781e-02        00000 
 6.42529e-01  2.48587e-02        00000 
 6.23512e-01  2.47531e-02        00000 
 6.05262e-01  2.44942e-02        00000 
 5.87432e-01  2.38994e-02        00000 
 5.70109e-01  2.33353e-02        00000 
 5.51383e-01  2.30016e-02        00000 
 5.30912e-01  2.28960e-02        00000 
 5.10229e-01  2.32044e-02        00000 
 4.89704e-01  2.33643e-02        00000 
 4.69051e-01  2.33430e-02        00000 
 4.48551e-01  2.31983e-02        00000 
 4.27902e-01  2.29630e-02        00000 
 4.07010e-01  2.25649e-02        00000 
 3.85948e-01  2.20280e-02        00000 
 3.65435e-01  2.21204e-02        00000 
 3.44817e-01  2.21091e-02        00000 
 3.24162e-01  2.25939e-02        00000 
 3.06485e-01  2.20136e-02        00000 
 2.86434e-01  2.06868e-02        00000 
 2.64303e-01  1.97044e-02        00000 
 2.44685e-01  1.83577e-02        00000 
 2.24210e-01  1.80110e-02        00000 
 2.03054e-01  1.83486e-02        00000 
 1.86551e-01  1.83201e-02        00000 
 1.65974e-01  1.82551e-02        00000 
 1.46412e-01  1.80841e-02        00000 
 1.28769e-01  1.77287e-02        00000 
 1.10813e-01  1.61650e-02        00000 
 9.02170e-02  1.36336e-02        00000 
 7.06887e-02  1.00522e-02        00000 
 5.22270e-02  7.67225e-03        00000 
 3.52034e-02  5.12961e-03        00000 
 1.76787e-02  1.06788e-03        00000 
 2.52460e-03 -5.96950e-03        00000 
 9.18216e-01  2.17826e-03        00000 
 8.99507e-01  6.86926e-03        00000 
 8.85154e-01  1.22638e-02        00000 
 8.67205e-01  1.65461e-02        00000 
 8.48928e-01  1.84197e-02        00000 
 8.32499e-01  1.95992e-02        00000 
 8.16601e-01  2.08926e-02        00000 
 8.00799e-01  2.21071e-02        00000 
 7.84289e-01  2.35901e-02        00000 
 7.65365e-01  2.48391e-02        00000 
 7.48108e-01  2.59779e-02        00000 
 7.31204e-01  2.76864e-02        00000 
 7.12514e-01  2.92370e-02        00000 
 6.93149e-01  3.04924e-02        00000 
 6.73514e-01  3.18186e-02        00000 
 6.54052e-01  3.21847e-02        00000 
 6.34936e-01  3.23331e-02        00000 
 6.16706e-01  3.25107e-02        00000 
 5.98505e-01  3.26985e-02        00000 
 5.80642e-01  3.25461e-02        00000 
 5.62103e-01  3.13631e-02        00000 
 5.42228e-01  2.99383e-02        00000 
 5.22437e-01  2.91101e-02        00000 
 5.02650e-01  2.90691e-02        00000 
 4.82558e-01  2.92912e-02        00000 
 4.62474e-01  2.93627e-02        00000 
 4.42356e-01  2.91822e-02        00000 
 4.21786e-01  2.86485e-02        00000 
 4.01205e-01  2.81962e-02        00000 
 3.80191e-01  2.75902e-02        00000 
 3.59169e-01  2.76470e-02        00000 
 3.39393e-01  2.79928e-02        00000 
 3.20487e-01  2.82354e-02        00000 
 3.00436e-01  2.81596e-02        00000 
 2.79615e-01  2.73928e-02        00000 
 2.57866e-01  2.61405e-02        00000 
 2.38819e-01  2.45855e-02        00000 
 2.19525e-01  2.36812e-02        00000 
 1.98487e-01  2.32668e-02        00000 
 1.81353e-01  2.24633e-02        00000 
 1.63717e-01  2.23125e-02        00000 
 1.43695e-01  2.13503e-02        00000 
 1.21964e-01  1.95764e-02        00000 
 1.02676e-01  1.72918e-02        00000 
 8.47918e-02  1.43721e-02        00000 
 6.82468e-02  1.18399e-02        00000 
 5.08660e-02  9.20032e-03        00000 
 3.33340e-02  6.44839e-03        00000 
 1.83510e-02  1.51917e-03        00000 
 3.61622e-03 -5.07278e-03        00000 
 8.98442e-01  2.98518e-03        00000 
 8.80229e-01  7.57903e-03        00000 
 8.64542e-01  1.22843e-02        00000 
 8.49526e-01  1.70234e-02        00000 
 8.31706e-01  2.01773e-02        00000 
 8.15300e-01  2.28935e-02        00000 
 7.99329e-01  2.43794e-02        00000 
 7.83604e-01  2.56938e-02        00000 
 7.68526e-01  2.73442e-02        00000 
 7.50720e-01  2.90028e-02        00000 
 7.35026e-01  3.12700e-02        00000 
 7.19016e-01  3.37207e-02        00000 
 7.00571e-01  3.53985e-02        00000 
 6.83115e-01  3.66578e-02        00000 
 6.65942e-01  3.83073e-02        00000 
 6.46523e-01  3.94711e-02        00000 
 6.27486e-01  4.00883e-02        00000 
 6.09521e-01  4.07649e-02        00000 
 5.91656e-01  4.05392e-02        00000 
 5.72331e-01  4.01697e-02        00000 
 5.53186e-01  3.95414e-02        00000 
 5.34430e-01  3.88014e-02        00000 
 5.14840e-01  3.74667e-02        00000 
 4.94545e-01  3.56806e-02        00000 
 4.74904e-01  3.49081e-02        00000 
 4.54868e-01  3.47120e-02        00000 
 4.35101e-01  3.44569e-02        00000 
 4.15086e-01  3.42660e-02        00000 
 3.94712e-01  3.37306e-02        00000 
 3.75002e-01  3.31690e-02        00000 
 3.56788e-01  3.37282e-02        00000 
 3.37880e-01  3.37052e-02        00000 
 3.15917e-01  3.31675e-02        00000 
 2.93774e-01  3.30680e-02        00000 
 2.72735e-01  3.28525e-02        00000 
 2.51406e-01  3.24981e-02        00000 
 2.33194e-01  3.11939e-02        00000 
 2.13892e-01  2.93860e-02        00000 
 1.94356e-01  2.83133e-02        00000 
 1.76342e-01  2.63923e-02        00000 
 1.58249e-01  2.39536e-02        00000 
 1.36466e-01  2.21642e-02        00000 
 1.16207e-01  2.02842e-02        00000 
 9.76564e-02  1.80349e-02        00000 
 8.17330e-02  1.62360e-02        00000 
 6.62991e-02  1.35122e-02        00000 
 4.88914e-02  1.02889e-02        00000 
 3.24235e-02  6.96891e-03        00000 
 1.77870e-02  2.40320e-03        00000 
 3.02124e-03 -3.72502e-03        00000 
 8.79891e-01  3.75900e-03        00000 
 8.62201e-01  8.16675e-03        00000 
 8.46291e-01  1.25649e-02        00000 
 8.32202e-01  1.74337e-02        00000 
 8.15369e-01  2.08650e-02        00000 
 7.99742e-01  2.40457e-02        00000 
 7.84470e-01  2.73493e-02        00000 
 7.68265e-01  2.92478e-02        00000 
 7.51191e-01  3.14509e-02        00000 
 7.36248e-01  3.36707e-02        00000 
 7.21547e-01  3.68024e-02        00000 
 7.06320e-01  3.98994e-02        00000 
 6.89788e-01  4.22027e-02        00000 
 6.73171e-01  4.39807e-02        00000 
 6.56252e-01  4.51645e-02        00000 
 6.38314e-01  4.56401e-02        00000 
 6.19581e-01  4.60898e-02        00000 
 6.00756e-01  4.66023e-02        00000 
 5.81149e-01  4.73711e-02        00000 
 5.62367e-01  4.76417e-02        00000 
 5.43738e-01  4.72525e-02        00000 
 5.25489e-01  4.70917e-02        00000 
 5.08461e-01  4.78308e-02        00000 
 4.89817e-01  4.74091e-02        00000 
 4.69461e-01  4.52393e-02        00000 
 4.49519e-01  4.34338e-02        00000 
 4.29686e-01  4.27670e-02        00000 
 4.09697e-01  4.27473e-02        00000 
 3.88152e-01  4.22815e-02        00000 
 3.68514e-01  4.17240e-02        00000 
 3.49942e-01  4.14298e-02        00000 
 3.29566e-01  4.03156e-02        00000 
 3.09209e-01  3.90155e-02        00000 
 2.88014e-01  3.80122e-02        00000 
 2.67337e-01  3.82012e-02        00000 
 2.46410e-01  3.79126e-02        00000 
 2.26695e-01  3.71357e-02        00000 
 2.07111e-01  3.52489e-02        00000 
 1.90762e-01  3.32241e-02        00000 
 1.71822e-01  2.94847e-02        00000 
 1.51762e-01  2.64265e-02        00000 
 1.30894e-01  2.38693e-02        00000 
 1.14657e-01  2.13633e-02        00000 
 9.65963e-02  1.86961e-02        00000 
 7.96279e-02  1.71044e-02        00000 
 6.34762e-02  1.44708e-02        00000 
 4.83064e-02  1.11511e-02        00000 
 3.13121e-02  7.53258e-03        00000 
 1.73402e-02  3.40111e-03        00000 
 2.12222e-03 -2.32653e-03        00000 
 8.60285e-01  3.83578e-03        00000 
 8.43161e-01  8.49839e-03        00000 
 8.27805e-01  1.29014e-02        00000 
 8.14508e-01  1.74439e-02        00000 
 7.99587e-01  2.14341e-02        00000 
 7.84651e-01  2.48325e-02        00000 
 7.68868e-01  2.85417e-02        00000 
 7.52128e-01  3.20559e-02        00000 
 7.35174e-01  3.39205e-02        00000 
 7.20558e-01  3.67024e-02        00000 
 7.06321e-01  4.02376e-02        00000 
 6.91055e-01  4.35563e-02        00000 
 6.74968e-01  4.60631e-02        00000 
 6.59825e-01  4.80912e-02        00000 
 6.44612e-01  4.96575e-02        00000 
 6.27207e-01  5.04040e-02        00000 
 6.09062e-01  5.14463e-02        00000 
 5.89166e-01  5.23288e-02        00000 
 5.70301e-01  5.35102e-02        00000 
 5.52069e-01  5.40321e-02        00000 
 5.34186e-01  5.41441e-02        00000 
 5.17559e-01  5.50248e-02        00000 
 5.00966e-01  5.57335e-02        00000 
 4.83262e-01  5.57116e-02        00000 
 4.64855e-01  5.49757e-02        00000 
 4.45876e-01  5.34958e-02        00000 
 4.24061e-01  5.16207e-02        00000 
 4.02189e-01  5.00974e-02        00000 
 3.80217e-01  4.90286e-02        00000 
 3.62151e-01  4.86649e-02        00000 
 3.40784e-01  4.78777e-02        00000 
 3.19827e-01  4.69853e-02        00000 
 3.00050e-01  4.59940e-02        00000 
 2.79266e-01  4.49826e-02        00000 
 2.60173e-01  4.40973e-02        00000 
 2.40506e-01  4.24897e-02        00000 
 2.19522e-01  4.16375e-02        00000 
 1.99874e-01  3.96995e-02        00000 
 1.83828e-01  3.71448e-02        00000 
 1.66375e-01  3.34544e-02        00000 
 1.45601e-01  2.95590e-02        00000 
 1.29262e-01  2.66491e-02        00000 
 1.12694e-01  2.27064e-02        00000 
 9.44175e-02  1.90407e-02        00000 
 7.69210e-02  1.74764e-02        00000 
 6.27248e-02  1.49059e-02        00000 
 4.72347e-02  1.17593e-02        00000 
 3.17511e-02  8.31628e-03        00000 
 1.65097e-02  3.91342e-03        00000 
 2.62844e-03 -1.30723e-03        00000 
 8.40124e-01  3.48142e-03        00000 
 8.23341e-01  8.73451e-03        00000 
 8.07486e-01  1.32378e-02        00000 
 7.94095e-01  1.76547e-02        00000 
 7.81573e-01  2.19844e-02        00000 
 7.66936e-01  2.60097e-02        00000 
 7.51949e-01  3.01786e-02        00000 
 7.36866e-01  3.40377e-02        00000 
 7.19876e-01  3.69523e-02        00000 
 7.05657e-01  4.00567e-02        00000 
 6.92603e-01  4.34809e-02        00000 
 6.78271e-01  4.67976e-02        00000 
 6.62072e-01  4.94388e-02        00000 
 6.46931e-01  5.14765e-02        00000 
 6.31731e-01  5.35782e-02        00000 
 6.16414e-01  5.60801e-02        00000 
 5.99835e-01  5.79909e-02        00000 
 5.81650e-01  5.84758e-02        00000 
 5.62209e-01  5.89854e-02        00000 
 5.45763e-01  6.02677e-02        00000 
 5.29981e-01  6.20937e-02        00000 
 5.13589e-01  6.30835e-02        00000 
 4.97298e-01  6.38823e-02        00000 
 4.80411e-01  6.41144e-02        00000 
 4.61409e-01  6.33044e-02        00000 
 4.40751e-01  6.20288e-02        00000 
 4.18904e-01  6.03774e-02        00000 
 3.95665e-01  5.75251e-02        00000 
 3.73467e-01  5.49575e-02        00000 
 3.53604e-01  5.44787e-02        00000 
 3.33505e-01  5.38427e-02        00000 
 3.12678e-01  5.30661e-02        00000 
 2.91662e-01  5.18543e-02        00000 
 2.70747e-01  5.05442e-02        00000 
 2.50515e-01  4.87493e-02        00000 
 2.30907e-01  4.68029e-02        00000 
 2.13149e-01  4.50793e-02        00000 
 1.94076e-01  4.29705e-02        00000 
 1.78044e-01  3.99035e-02        00000 
 1.60081e-01  3.69547e-02        00000 
 1.43496e-01  3.32726e-02        00000 
 1.26189e-01  2.93061e-02        00000 
 1.09316e-01  2.50643e-02        00000 
 9.13219e-02  2.03030e-02        00000 
 7.53590e-02  1.76705e-02        00000 
 6.18794e-02  1.44373e-02        00000 
 4.68622e-02  1.12289e-02        00000 
 3.19854e-02  8.17047e-03        00000 
 1.59793e-02  4.44405e-03        00000 
 3.53553e-03 -6.80863e-04        00000 
 8.20445e-01  3.20845e-03        00000 
 8.03803e-01  8.72092e-03        00000 
 7.88158e-01  1.34562e-02        00000 
 7.74630e-01  1.78361e-02        00000 
 7.61840e-01  2.29267e-02        00000 
 7.45997e-01  2.76024e-02        00000 
 7.31787e-01  3.21524e-02        00000 
 7.18233e-01  3.62774e-02        00000 
 7.03481e-01  3.98619e-02        00000 
 6.90829e-01  4.34968e-02        00000 
 6.78729e-01  4.71848e-02        00000 
 6.65284e-01  4.99453e-02        00000 
 6.49430e-01  5.22069e-02        00000 
 6.34303e-01  5.55726e-02        00000 
 6.19579e-01  5.87031e-02        00000 
 6.05176e-01  6.12216e-02        00000 
 5.91617e-01  6.35197e-02        00000 
 5.77345e-01  6.53756e-02        00000 
 5.59383e-01  6.56555e-02        00000 
 5.42543e-01  6.73512e-02        00000 
 5.26359e-01  6.87694e-02        00000 
 5.10536e-01  7.02727e-02        00000 
 4.94855e-01  7.15777e-02        00000 
 4.78021e-01  7.20255e-02        00000 
 4.58279e-01  7.09982e-02        00000 
 4.38012e-01  6.95701e-02        00000 
 4.16380e-01  6.73737e-02        00000 
 3.91482e-01  6.39141e-02        00000 
 3.67643e-01  6.12951e-02        00000 
 3.47190e-01  6.04635e-02        00000 
 3.26958e-01  5.96060e-02        00000 
 3.06742e-01  5.84796e-02        00000 
 2.86132e-01  5.73329e-02        00000 
 2.64578e-01  5.48333e-02        00000 
 2.43391e-01  5.30873e-02        00000 
 2.23550e-01  5.02647e-02        00000 
 2.05542e-01  4.83491e-02        00000 
 1.88380e-01  4.52591e-02        00000 
 1.71926e-01  4.28616e-02        00000 
 1.56761e-01  4.02175e-02        00000 
 1.40752e-01  3.65342e-02        00000 
 1.22668e-01  3.20953e-02        00000 
 1.06303e-01  2.76931e-02        00000 
 8.92960e-02  2.28255e-02        00000 
 7.43444e-02  1.86646e-02        00000 
 6.05048e-02  1.46870e-02        00000 
 4.65761e-02  1.07553e-02        00000 