<?xml version="1.0" encoding="utf-8"?>
<VTKFile byte_order="LittleEndian" type="UnstructuredGrid" version="0.1">
   <UnstructuredGrid>
      <Piece NumberOfCells="9604" NumberOfPoints="4901">
         <Points>
            <DataArray Name="Points" NumberOfComponents="3" format="ascii" type="Float32">
-1.0000 -1.0000 0.0000
-1.0000 -0.9592 0.0000
-1.0000 -0.9184 0.0000
-1.0000 -0.8776 0.0000
-1.0000 -0.8367 0.0000
-1.0000 -0.7959 0.0000
-1.0000 -0.7551 0.0000
-1.0000 -0.7143 0.0000
-1.0000 -0.6735 0.0000
-1.0000 -0.6327 0.0000
-1.0000 -0.5918 0.0000
-1.0000 -0.5510 0.0000
-1.0000 -0.5102 0.0000
-1.0000 -0.4694 0.0000
-1.0000 -0.4286 0.0000
-1.0000 -0.3878 0.0000
-1.0000 -0.3469 0.0000
-1.0000 -0.3061 0.0000
-1.0000 -0.2653 0.0000
-1.0000 -0.2245 0.0000
-1.0000 -0.1837 0.0000
-1.0000 -0.1429 0.0000
-1.0000 -0.1020 0.0000
-1.0000 -0.0612 0.0000
-1.0000 -0.0204 0.0000
-1.0000 0.0204 0.0000
-1.0000 0.0612 0.0000
-1.0000 0.1020 0.0000
-1.0000 0.1429 0.0000
-1.0000 0.1837 0.0000
-1.0000 0.2245 0.0000
-1.0000 0.2653 0.0000
-1.0000 0.3061 0.0000
-1.0000 0.3469 0.0000
-1.0000 0.3878 0.0000
-1.0000 0.4286 0.0000
-1.0000 0.4694 0.0000
-1.0000 0.5102 0.0000
-1.0000 0.5510 0.0000
-1.0000 0.5918 0.0000
-1.0000 0.6327 0.0000
-1.0000 0.6735 0.0000
-1.0000 0.7143 0.0000
-1.0000 0.7551 0.0000
-1.0000 0.7959 0.0000
-1.0000 0.8367 0.0000
-1.0000 0.8776 0.0000
-1.0000 0.9184 0.0000
-1.0000 0.9592 0.0000
-1.0000 1.0000 0.0000
-0.9592 -1.0000 0.0000
-0.9592 -0.9592 0.0000
-0.9592 -0.9184 0.0000
-0.9592 -0.8776 0.0000
-0.9592 -0.8367 0.0000
-0.9592 -0.7959 0.0000
-0.9592 -0.7551 0.0000
-0.9592 -0.7143 0.0000
-0.9592 -0.6735 0.0000
-0.9592 -0.6327 0.0000
-0.9592 -0.5918 0.0000
-0.9592 -0.5510 0.0000
-0.9592 -0.5102 0.0000
-0.9592 -0.4694 0.0000
-0.9592 -0.4286 0.0000
-0.9592 -0.3878 0.0000
-0.9592 -0.3469 0.0000
-0.9592 -0.3061 0.0000
-0.9592 -0.2653 0.0000
-0.9592 -0.2245 0.0000
-0.9592 -0.1837 0.0000
-0.9592 -0.1429 0.0000
-0.9592 -0.1020 0.0000
-0.9592 -0.0612 0.0000
-0.9592 -0.0204 0.0000
-0.9592 0.0204 0.0000
-0.9592 0.0612 0.0000
-0.9592 0.1020 0.0000
-0.9592 0.1429 0.0000
-0.9592 0.1837 0.0000
-0.9592 0.2245 0.0000
-0.9592 0.2653 0.0000
-0.9592 0.3061 0.0000
-0.9592 0.3469 0.0000
-0.9592 0.3878 0.0000
-0.9592 0.4286 0.0000
-0.9592 0.4694 0.0000
-0.9592 0.5102 0.0000
-0.9592 0.5510 0.0000
-0.9592 0.5918 0.0000
-0.9592 0.6327 0.0000
-0.9592 0.6735 0.0000
-0.9592 0.7143 0.0000
-0.9592 0.7551 0.0000
-0.9592 0.7959 0.0000
-0.9592 0.8367 0.0000
-0.9592 0.8776 0.0000
-0.9592 0.9184 0.0000
-0.9592 0.9592 0.0000
-0.9592 1.0000 0.0000
-0.9184 -1.0000 0.0000
-0.9184 -0.9592 0.0000
-0.9184 -0.9184 0.0000
-0.9184 -0.8776 0.0000
-0.9184 -0.8367 0.0000
-0.9184 -0.7959 0.0000
-0.9184 -0.7551 0.0000
-0.9184 -0.7143 0.0000
-0.9184 -0.6735 0.0000
-0.9184 -0.6327 0.0000
-0.9184 -0.5918 0.0000
-0.9184 -0.5510 0.0000
-0.9184 -0.5102 0.0000
-0.9184 -0.4694 0.0000
-0.9184 -0.4286 0.0000
-0.9184 -0.3878 0.0000
-0.9184 -0.3469 0.0000
-0.9184 -0.3061 0.0000
-0.9184 -0.2653 0.0000
-0.9184 -0.2245 0.0000
-0.9184 -0.1837 0.0000
-0.9184 -0.1429 0.0000
-0.9184 -0.1020 0.0000
-0.9184 -0.0612 0.0000
-0.9184 -0.0204 0.0000
-0.9184 0.0204 0.0000
-0.9184 0.0612 0.0000
-0.9184 0.1020 0.0000
-0.9184 0.1429 0.0000
-0.9184 0.1837 0.0000
-0.9184 0.2245 0.0000
-0.9184 0.2653 0.0000
-0.9184 0.3061 0.0000
-0.9184 0.3469 0.0000
-0.9184 0.3878 0.0000
-0.9184 0.4286 0.0000
-0.9184 0.4694 0.0000
-0.9184 0.5102 0.0000
-0.9184 0.5510 0.0000
-0.9184 0.5918 0.0000
-0.9184 0.6327 0.0000
-0.9184 0.6735 0.0000
-0.9184 0.7143 0.0000
-0.9184 0.7551 0.0000
-0.9184 0.7959 0.0000
-0.9184 0.8367 0.0000
-0.9184 0.8776 0.0000
-0.9184 0.9184 0.0000
-0.9184 0.9592 0.0000
-0.9184 1.0000 0.0000
-0.8776 -1.0000 0.0000
-0.8776 -0.9592 0.0000
-0.8776 -0.9184 0.0000
-0.8776 -0.8776 0.0000
-0.8776 -0.8367 0.0000
-0.8776 -0.7959 0.0000
-0.8776 -0.7551 0.0000
-0.8776 -0.7143 0.0000
-0.8776 -0.6735 0.0000
-0.8776 -0.6327 0.0000
-0.8776 -0.5918 0.0000
-0.8776 -0.5510 0.0000
-0.8776 -0.5102 0.0000
-0.8776 -0.4694 0.0000
-0.8776 -0.4286 0.0000
-0.8776 -0.3878 0.0000
-0.8776 -0.3469 0.0000
-0.8776 -0.3061 0.0000
-0.8776 -0.2653 0.0000
-0.8776 -0.2245 0.0000
-0.8776 -0.1837 0.0000
-0.8776 -0.1429 0.0000
-0.8776 -0.1020 0.0000
-0.8776 -0.0612 0.0000
-0.8776 -0.0204 0.0000
-0.8776 0.0204 0.0000
-0.8776 0.0612 0.0000
-0.8776 0.1020 0.0000
-0.8776 0.1429 0.0000
-0.8776 0.1837 0.0000
-0.8776 0.2245 0.0000
-0.8776 0.2653 0.0000
-0.8776 0.3061 0.0000
-0.8776 0.3469 0.0000
-0.8776 0.3878 0.0000
-0.8776 0.4286 0.0000
-0.8776 0.4694 0.0000
-0.8776 0.5102 0.0000
-0.8776 0.5510 0.0000
-0.8776 0.5918 0.0000
-0.8776 0.6327 0.0000
-0.8776 0.6735 0.0000
-0.8776 0.7143 0.0000
-0.8776 0.7551 0.0000
-0.8776 0.7959 0.0000
-0.8776 0.8367 0.0000
-0.8776 0.8776 0.0000
-0.8776 0.9184 0.0000
-0.8776 0.9592 0.0000
-0.8776 1.0000 0.0000
-0.8367 -1.0000 0.0000
-0.8367 -0.9592 0.0000
-0.8367 -0.9184 0.0000
-0.8367 -0.8776 0.0000
-0.8367 -0.8367 0.0000
-0.8367 -0.7959 0.0000
-0.8367 -0.7551 0.0000
-0.8367 -0.7143 0.0000
-0.8367 -0.6735 0.0000
-0.8367 -0.6327 0.0000
-0.8367 -0.5918 0.0000
-0.8367 -0.5510 0.0000
-0.8367 -0.5102 0.0000
-0.8367 -0.4694 0.0000
-0.8367 -0.4286 0.0000
-0.8367 -0.3878 0.0000
-0.8367 -0.3469 0.0000
-0.8367 -0.3061 0.0000
-0.8367 -0.2653 0.0000
-0.8367 -0.2245 0.0000
-0.8367 -0.1837 0.0000
-0.8367 -0.1429 0.0000
-0.8367 -0.1020 0.0000
-0.8367 -0.0612 0.0000
-0.8367 -0.0204 0.0000
-0.8367 0.0204 0.0000
-0.8367 0.0612 0.0000
-0.8367 0.1020 0.0000
-0.8367 0.1429 0.0000
-0.8367 0.1837 0.0000
-0.8367 0.2245 0.0000
-0.8367 0.2653 0.0000
-0.8367 0.3061 0.0000
-0.8367 0.3469 0.0000
-0.8367 0.3878 0.0000
-0.8367 0.4286 0.0000
-0.8367 0.4694 0.0000
-0.8367 0.5102 0.0000
-0.8367 0.5510 0.0000
-0.8367 0.5918 0.0000
-0.8367 0.6327 0.0000
-0.8367 0.6735 0.0000
-0.8367 0.7143 0.0000
-0.8367 0.7551 0.0000
-0.8367 0.7959 0.0000
-0.8367 0.8367 0.0000
-0.8367 0.8776 0.0000
-0.8367 0.9184 0.0000
-0.8367 0.9592 0.0000
-0.8367 1.0000 0.0000
-0.7959 -1.0000 0.0000
-0.7959 -0.9592 0.0000
-0.7959 -0.9184 0.0000
-0.7959 -0.8776 0.0000
-0.7959 -0.8367 0.0000
-0.7959 -0.7959 0.0000
-0.7959 -0.7551 0.0000
-0.7959 -0.7143 0.0000
-0.7959 -0.6735 0.0000
-0.7959 -0.6327 0.0000
-0.7959 -0.5918 0.0000
-0.7959 -0.5510 0.0000
-0.7959 -0.5102 0.0000
-0.7959 -0.4694 0.0000
-0.7959 -0.4286 0.0000
-0.7959 -0.3878 0.0000
-0.7959 -0.3469 0.0000
-0.7959 -0.3061 0.0000
-0.7959 -0.2653 0.0000
-0.7959 -0.2245 0.0000
-0.7959 -0.1837 0.0000
-0.7959 -0.1429 0.0000
-0.7959 -0.1020 0.0000
-0.7959 -0.0612 0.0000
-0.7959 -0.0204 0.0000
-0.7959 0.0204 0.0000
-0.7959 0.0612 0.0000
-0.7959 0.1020 0.0000
-0.7959 0.1429 0.0000
-0.7959 0.1837 0.0000
-0.7959 0.2245 0.0000
-0.7959 0.2653 0.0000
-0.7959 0.3061 0.0000
-0.7959 0.3469 0.0000
-0.7959 0.3878 0.0000
-0.7959 0.4286 0.0000
-0.7959 0.4694 0.0000
-0.7959 0.5102 0.0000
-0.7959 0.5510 0.0000
-0.7959 0.5918 0.0000
-0.7959 0.6327 0.0000
-0.7959 0.6735 0.0000
-0.7959 0.7143 0.0000
-0.7959 0.7551 0.0000
-0.7959 0.7959 0.0000
-0.7959 0.8367 0.0000
-0.7959 0.8776 0.0000
-0.7959 0.9184 0.0000
-0.7959 0.9592 0.0000
-0.7959 1.0000 0.0000
-0.7551 -1.0000 0.0000
-0.7551 -0.9592 0.0000
-0.7551 -0.9184 0.0000
-0.7551 -0.8776 0.0000
-0.7551 -0.8367 0.0000
-0.7551 -0.7959 0.0000
-0.7551 -0.7551 0.0000
-0.7551 -0.7143 0.0000
-0.7551 -0.6735 0.0000
-0.7551 -0.6327 0.0000
-0.7551 -0.5918 0.0000
-0.7551 -0.5510 0.0000
-0.7551 -0.5102 0.0000
-0.7551 -0.4694 0.0000
-0.7551 -0.4286 0.0000
-0.7551 -0.3878 0.0000
-0.7551 -0.3469 0.0000
-0.7551 -0.3061 0.0000
-0.7551 -0.2653 0.0000
-0.7551 -0.2245 0.0000
-0.7551 -0.1837 0.0000
-0.7551 -0.1429 0.0000
-0.7551 -0.1020 0.0000
-0.7551 -0.0612 0.0000
-0.7551 -0.0204 0.0000
-0.7551 0.0204 0.0000
-0.7551 0.0612 0.0000
-0.7551 0.1020 0.0000
-0.7551 0.1429 0.0000
-0.7551 0.1837 0.0000
-0.7551 0.2245 0.0000
-0.7551 0.2653 0.0000
-0.7551 0.3061 0.0000
-0.7551 0.3469 0.0000
-0.7551 0.3878 0.0000
-0.7551 0.4286 0.0000
-0.7551 0.4694 0.0000
-0.7551 0.5102 0.0000
-0.7551 0.5510 0.0000
-0.7551 0.5918 0.0000
-0.7551 0.6327 0.0000
-0.7551 0.6735 0.0000
-0.7551 0.7143 0.0000
-0.7551 0.7551 0.0000
-0.7551 0.7959 0.0000
-0.7551 0.8367 0.0000
-0.7551 0.8776 0.0000
-0.7551 0.9184 0.0000
-0.7551 0.9592 0.0000
-0.7551 1.0000 0.0000
-0.7143 -1.0000 0.0000
-0.7143 -0.9592 0.0000
-0.7143 -0.9184 0.0000
-0.7143 -0.8776 0.0000
-0.7143 -0.8367 0.0000
-0.7143 -0.7959 0.0000
-0.7143 -0.7551 0.0000
-0.7143 -0.7143 0.0000
-0.7143 -0.6735 0.0000
-0.7143 -0.6327 0.0000
-0.7143 -0.5918 0.0000
-0.7143 -0.5510 0.0000
-0.7143 -0.5102 0.0000
-0.7143 -0.4694 0.0000
-0.7143 -0.4286 0.0000
-0.7143 -0.3878 0.0000
-0.7143 -0.3469 0.0000
-0.7143 -0.3061 0.0000
-0.7143 -0.2653 0.0000
-0.7143 -0.2245 0.0000
-0.7143 -0.1837 0.0000
-0.7143 -0.1429 0.0000
-0.7143 -0.1020 0.0000
-0.7143 -0.0612 0.0000
-0.7143 -0.0204 0.0000
-0.7143 0.0204 0.0000
-0.7143 0.0612 0.0000
-0.7143 0.1020 0.0000
-0.7143 0.1429 0.0000
-0.7143 0.1837 0.0000
-0.7143 0.2245 0.0000
-0.7143 0.2653 0.0000
-0.7143 0.3061 0.0000
-0.7143 0.3469 0.0000
-0.7143 0.3878 0.0000
-0.7143 0.4286 0.0000
-0.7143 0.4694 0.0000
-0.7143 0.5102 0.0000
-0.7143 0.5510 0.0000
-0.7143 0.5918 0.0000
-0.7143 0.6327 0.0000
-0.7143 0.6735 0.0000
-0.7143 0.7143 0.0000
-0.7143 0.7551 0.0000
-0.7143 0.7959 0.0000
-0.7143 0.8367 0.0000
-0.7143 0.8776 0.0000
-0.7143 0.9184 0.0000
-0.7143 0.9592 0.0000
-0.7143 1.0000 0.0000
-0.6735 -1.0000 0.0000
-0.6735 -0.9592 0.0000
-0.6735 -0.9184 0.0000
-0.6735 -0.8776 0.0000
-0.6735 -0.8367 0.0000
-0.6735 -0.7959 0.0000
-0.6735 -0.7551 0.0000
-0.6735 -0.7143 0.0000
-0.6735 -0.6735 0.0000
-0.6735 -0.6327 0.0000
-0.6735 -0.5918 0.0000
-0.6735 -0.5510 0.0000
-0.6735 -0.5102 0.0000
-0.6735 -0.4694 0.0000
-0.6735 -0.4286 0.0000
-0.6735 -0.3878 0.0000
-0.6735 -0.3469 0.0000
-0.6735 -0.3061 0.0000
-0.6735 -0.2653 0.0000
-0.6735 -0.2245 0.0000
-0.6735 -0.1837 0.0000
-0.6735 -0.1429 0.0000
-0.6735 -0.1020 0.0000
-0.6735 -0.0612 0.0000
-0.6735 -0.0204 0.0000
-0.6735 0.0204 0.0000
-0.6735 0.0612 0.0000
-0.6735 0.1020 0.0000
-0.6735 0.1429 0.0000
-0.6735 0.1837 0.0000
[...]
         <PointData>
            <DataArray Name="fValues" NumberOfComponents="3" format="ascii" type="Float64">
 2.76050e-17  2.37743e-19        00000 
 2.04082e-02 -1.64861e-19        00000 
 4.08163e-02  6.24936e-19        00000 
 6.12245e-02  2.49211e-19        00000 
 8.16327e-02  4.34738e-19        00000 
 1.02041e-01  3.31807e-19        00000 
 1.22449e-01 -2.17369e-19        00000 
 1.42857e-01  8.80775e-19        00000 
 1.63265e-01  9.78161e-19        00000 
 1.83673e-01 -1.69396e-18        00000 
 2.04082e-01  2.33672e-18        00000 
 2.24490e-01 -1.23240e-18        00000 
 2.44898e-01  9.78161e-19        00000 
 2.65306e-01 -1.43383e-18        00000 
 2.85714e-01  1.63027e-19        00000 
 3.06122e-01 -5.66700e-19        00000 
 3.26531e-01  5.43423e-20        00000 
 3.46939e-01  1.20127e-19        00000 
 3.67347e-01  1.08685e-19        00000 
 3.87755e-01 -4.60871e-19        00000 
 4.08163e-01  4.34738e-19        00000 
 4.28571e-01 -8.79942e-19        00000 
 4.48980e-01  5.43423e-20        00000 
 4.69388e-01 -3.75524e-19        00000 
 4.89796e-01 -6.52108e-19        00000 
 5.10204e-01 -5.41103e-19        00000 
 5.30612e-01 -1.41290e-18        00000 
 5.51020e-01 -3.14075e-19        00000 
 5.71429e-01 -1.08685e-19        00000 
 5.91837e-01 -1.18032e-18        00000 
 6.12245e-01  5.43423e-19        00000 
 6.32653e-01 -2.90861e-18        00000 
 6.53061e-01  2.06501e-18        00000 
 6.73469e-01 -3.09050e-18        00000 
 6.93878e-01  1.73895e-18        00000 
 7.14286e-01 -2.10976e-18        00000 
 7.34694e-01  7.60792e-19        00000 
 7.55102e-01 -4.47974e-19        00000 
 7.75510e-01  1.41290e-18        00000 
 7.95918e-01  4.57457e-19        00000 
 8.16327e-01 -1.19553e-18        00000 
 8.36735e-01 -2.87800e-19        00000 
 8.57143e-01 -2.17369e-19        00000 
 8.77551e-01 -8.05670e-19        00000 
 8.97959e-01  1.84764e-18        00000 
 9.18367e-01 -1.85228e-18        00000 
 9.38776e-01  9.78161e-19        00000 
 9.59184e-01  6.43002e-19        00000 
 9.79592e-01 -4.40242e-19        00000 
 1.00000e+00  3.23693e-19        00000 
-6.75218e-18 -2.11006e-19        00000 
 1.88544e-02 -1.52920e-03        00000 
 3.84508e-02 -2.45432e-03        00000 
 5.82371e-02 -3.12221e-03        00000 
 7.81283e-02 -3.64515e-03        00000 
 9.80848e-02 -4.06901e-03        00000 
 1.18089e-01 -4.41720e-03        00000 
 1.38131e-01 -4.70322e-03        00000 
 1.58207e-01 -4.93590e-03        00000 
 1.78314e-01 -5.12176e-03        00000 
 1.98451e-01 -5.26634e-03        00000 
 2.18620e-01 -5.37505e-03        00000 
 2.38821e-01 -5.45395e-03        00000 
 2.59055e-01 -5.50992e-03        00000 
 2.79321e-01 -5.55031e-03        00000 
 2.99619e-01 -5.58280e-03        00000 
 3.19949e-01 -5.61563e-03        00000 
 3.40310e-01 -5.65872e-03        00000 
 3.60699e-01 -5.72373e-03        00000 
 3.81110e-01 -5.82002e-03        00000 
 4.01536e-01 -5.95685e-03        00000 
 4.21969e-01 -6.14190e-03        00000 
 4.42397e-01 -6.37857e-03        00000 
 4.62812e-01 -6.66763e-03        00000 
 4.83200e-01 -7.00549e-03        00000 
 5.03553e-01 -7.38449e-03        00000 
 5.23860e-01 -7.79299e-03        00000 
 5.44114e-01 -8.21578e-03        00000 
 5.64310e-01 -8.63509e-03        00000 
 5.84447e-01 -9.03235e-03        00000 
 6.04524e-01 -9.38904e-03        00000 
 6.24546e-01 -9.68825e-03        00000 
 6.44520e-01 -9.91560e-03        00000 
 6.64453e-01 -1.00604e-02        00000 
 6.84356e-01 -1.01163e-02        00000 
 7.04236e-01 -1.00814e-02        00000 
 7.24102e-01 -9.95739e-03        00000 
 7.43959e-01 -9.74842e-03        00000 
 7.63810e-01 -9.45922e-03        00000 
 7.83658e-01 -9.09450e-03        00000 
 8.03504e-01 -8.65849e-03        00000 
 8.23348e-01 -8.15460e-03        00000 
 8.43187e-01 -7.58491e-03        00000 
 8.63018e-01 -6.94929e-03        00000 
 8.82832e-01 -6.24373e-03        00000 
 9.02612e-01 -5.45724e-03        00000 
 9.22330e-01 -4.56495e-03        00000 
 9.41927e-01 -3.51100e-03        00000 
 9.61275e-01 -2.14765e-03        00000 
 9.79592e-01 -2.79426e-19        00000 
 3.40029e-18  1.87767e-19        00000 
 1.78798e-02 -2.29081e-03        00000 
 3.65409e-02 -4.08080e-03        00000 
 5.56250e-02 -5.45871e-03        00000 
 7.49335e-02 -6.56067e-03        00000 
 9.43864e-02 -7.46352e-03        00000 
 1.13943e-01 -8.21198e-03        00000 
 1.33582e-01 -8.83380e-03        00000 
 1.53293e-01 -9.34780e-03        00000 
 1.73069e-01 -9.76803e-03        00000 
 1.92911e-01 -1.01061e-02        00000 
 2.12818e-01 -1.03729e-02        00000 
 2.32794e-01 -1.05799e-02        00000 
 2.52840e-01 -1.07401e-02        00000 
 2.72955e-01 -1.08679e-02        00000 
 2.93140e-01 -1.09771e-02        00000 
 3.13393e-01 -1.10845e-02        00000 
 3.33717e-01 -1.12068e-02        00000 
 3.54105e-01 -1.13605e-02        00000 
 3.74536e-01 -1.15679e-02        00000 
 3.95010e-01 -1.18458e-02        00000 
 4.15498e-01 -1.22052e-02        00000 
 4.35944e-01 -1.26378e-02        00000 
 4.56383e-01 -1.31635e-02        00000 
 4.76774e-01 -1.37870e-02        00000 
 4.97096e-01 -1.44917e-02        00000 
 5.17332e-01 -1.52591e-02        00000 
 5.37441e-01 -1.60440e-02        00000 
 5.57458e-01 -1.68320e-02        00000 
 5.77302e-01 -1.75504e-02        00000 
 5.97016e-01 -1.81902e-02        00000 
 6.16610e-01 -1.87190e-02        00000 
 6.36097e-01 -1.91095e-02        00000 
 6.55498e-01 -1.93429e-02        00000 
 6.74834e-01 -1.94060e-02        00000 
 6.94126e-01 -1.92959e-02        00000 
 7.13392e-01 -1.90159e-02        00000 
 7.32643e-01 -1.85729e-02        00000 
 7.51887e-01 -1.79754e-02        00000 
 7.71126e-01 -1.72317e-02        00000 
 7.90365e-01 -1.63486e-02        00000 
 8.09600e-01 -1.53311e-02        00000 
 8.28829e-01 -1.41811e-02        00000 
 8.48039e-01 -1.28954e-02        00000 
 8.67210e-01 -1.14628e-02        00000 
 8.86308e-01 -9.85826e-03        00000 
 9.05267e-01 -8.03212e-03        00000 
 9.23967e-01 -5.88929e-03        00000 
 9.42115e-01 -3.25085e-03        00000 
 9.59184e-01 -2.75473e-19        00000 
-2.60843e-18  4.61910e-19        00000 
 1.71325e-02 -2.85228e-03        00000 
 3.49925e-02 -5.26455e-03        00000 
 5.33542e-02 -7.26743e-03        00000 
 7.20426e-02 -8.93037e-03        00000 
 9.09518e-02 -1.03232e-02        00000 
 1.10023e-01 -1.14961e-02        00000 
 1.29225e-01 -1.24846e-02        00000 
 1.48540e-01 -1.33146e-02        00000 
 1.67958e-01 -1.40064e-02        00000 
 1.87478e-01 -1.45772e-02        00000 
 2.07101e-01 -1.50425e-02        00000 
 2.26832e-01 -1.54177e-02        00000 
 2.46676e-01 -1.57202e-02        00000 
 2.66632e-01 -1.59698e-02        00000 
 2.86697e-01 -1.61890e-02        00000 
 3.06868e-01 -1.63919e-02        00000 
 3.27120e-01 -1.65836e-02        00000 
 3.47495e-01 -1.68035e-02        00000 
 3.67873e-01 -1.70232e-02        00000 
 3.88400e-01 -1.73841e-02        00000 
 4.08955e-01 -1.78528e-02        00000 
 4.29410e-01 -1.84313e-02        00000 
 4.49908e-01 -1.91721e-02        00000 
 4.70339e-01 -2.00602e-02        00000 
 4.90654e-01 -2.10643e-02        00000 
 5.10839e-01 -2.21591e-02        00000 
 5.30819e-01 -2.32777e-02        00000 
 5.50663e-01 -2.43972e-02        00000 
 5.70229e-01 -2.54362e-02        00000 
 5.89561e-01 -2.63467e-02        00000 
 6.08771e-01 -2.71355e-02        00000 
 6.27776e-01 -2.76836e-02        00000 
 6.46578e-01 -2.79680e-02        00000 
 6.65289e-01 -2.79967e-02        00000 
 6.83934e-01 -2.77732e-02        00000 
 7.02545e-01 -2.73015e-02        00000 
 7.21140e-01 -2.65943e-02        00000 
 7.39728e-01 -2.56645e-02        00000 
 7.58315e-01 -2.45238e-02        00000 
 7.76902e-01 -2.31812e-02        00000 
 7.95489e-01 -2.16427e-02        00000 
 8.14066e-01 -1.99091e-02        00000 
 8.32615e-01 -1.79748e-02        00000 
 8.51104e-01 -1.58235e-02        00000 
 8.69478e-01 -1.34233e-02        00000 
 8.87643e-01 -1.07196e-02        00000 
 9.05439e-01 -7.62901e-03        00000 
 9.22600e-01 -4.06643e-03        00000 
 9.38776e-01  1.08685e-19        00000 
-5.82881e-19 -4.97601e-20        00000 
 1.65003e-02 -3.30603e-03        00000 
 3.36684e-02 -6.21927e-03        00000 
 5.13538e-02 -8.74397e-03        00000 
 6.94200e-02 -1.09151e-02        00000 
 8.77662e-02 -1.27785e-02        00000 
 1.06327e-01 -1.43769e-02        00000 
 1.25064e-01 -1.57454e-02        00000 
 1.43955e-01 -1.69122e-02        00000 
 1.62990e-01 -1.79013e-02        00000 
 1.82165e-01 -1.87343e-02        00000 
 2.01481e-01 -1.94300e-02        00000 
 2.20947e-01 -2.00080e-02        00000 
 2.40575e-01 -2.04898e-02        00000 
 2.60351e-01 -2.08836e-02        00000 
 2.80221e-01 -2.11554e-02        00000 
 3.00197e-01 -2.13296e-02        00000 
 3.20368e-01 -2.15204e-02        00000 
 3.40649e-01 -2.17225e-02        00000 
 3.61067e-01 -2.19819e-02        00000 
 3.81663e-01 -2.24342e-02        00000 
 4.02375e-01 -2.30748e-02        00000 
 4.23022e-01 -2.38941e-02        00000 
 4.43637e-01 -2.49132e-02        00000 
 4.64137e-01 -2.60624e-02        00000 
 4.84464e-01 -2.73317e-02        00000 
 5.04552e-01 -2.86578e-02        00000 
 5.24394e-01 -3.00210e-02        00000 
 5.43906e-01 -3.13397e-02        00000 
 5.63169e-01 -3.26120e-02        00000 
 5.82109e-01 -3.37572e-02        00000 
 6.00849e-01 -3.47468e-02        00000 
 6.19347e-01 -3.54573e-02        00000 
 6.37527e-01 -3.58552e-02        00000 
 6.55648e-01 -3.59446e-02        00000 
 6.73636e-01 -3.56245e-02        00000 
 6.91538e-01 -3.49280e-02        00000 
 7.09428e-01 -3.39220e-02        00000 
 7.27318e-01 -3.26309e-02        00000 
 7.45211e-01 -3.10733e-02        00000 
 7.63111e-01 -2.92604e-02        00000 
 7.81013e-01 -2.71985e-02        00000 
 7.98905e-01 -2.48884e-02        00000 
 8.16764e-01 -2.23240e-02        00000 
 8.34545e-01 -1.94888e-02        00000 
 8.52181e-01 -1.63539e-02        00000 
 8.69566e-01 -1.28766e-02        00000 
 8.86540e-01 -9.00804e-03        00000 
 9.02888e-01 -4.71304e-03        00000 
 9.18367e-01 -2.54405e-19        00000 
 1.52158e-18 -2.71711e-20        00000 
 1.59392e-02 -3.69640e-03        00000 
 3.24932e-02 -7.03456e-03        00000 
 4.95553e-02 -1.00087e-02        00000 
 6.70206e-02 -1.26335e-02        00000 
 8.48028e-02 -1.49362e-02        00000 
 1.02840e-01 -1.69475e-02        00000 
 1.21093e-01 -1.86967e-02        00000 
 1.39538e-01 -2.02101e-02        00000 
 1.58167e-01 -2.15124e-02        00000 
 1.76977e-01 -2.26266e-02        00000 
 1.95963e-01 -2.35770e-02        00000 
 2.15140e-01 -2.43815e-02        00000 
 2.34468e-01 -2.49957e-02        00000 
 2.53926e-01 -2.53921e-02        00000 
 2.73504e-01 -2.56257e-02        00000 
 2.93321e-01 -2.57916e-02        00000 
 3.13396e-01 -2.59749e-02        00000 
 3.33812e-01 -2.63324e-02        00000 
 3.54484e-01 -2.68641e-02        00000 
 3.75314e-01 -2.76106e-02        00000 
 3.96350e-01 -2.86225e-02        00000 
 4.17273e-01 -2.97781e-02        00000 
 4.38069e-01 -3.11171e-02        00000 
 4.58665e-01 -3.25496e-02        00000 
 4.79008e-01 -3.40640e-02        00000 
 4.99025e-01 -3.56064e-02        00000 
 5.18629e-01 -3.70681e-02        00000 
 5.37711e-01 -3.84159e-02        00000 
 5.56556e-01 -3.97228e-02        00000 
 5.75043e-01 -4.09100e-02        00000 
 5.93031e-01 -4.18161e-02        00000 
 6.10797e-01 -4.25022e-02        00000 
 6.28315e-01 -4.29526e-02        00000 
 6.45714e-01 -4.30514e-02        00000 
 6.63030e-01 -4.27270e-02        00000 
 6.80285e-01 -4.19253e-02        00000 
 6.97479e-01 -4.06461e-02        00000 
 7.14637e-01 -3.89633e-02        00000 
 7.31806e-01 -3.69684e-02        00000 
 7.48986e-01 -3.46776e-02        00000 
 7.66176e-01 -3.20959e-02        00000 
 7.83361e-01 -2.92261e-02        00000 
 8.00511e-01 -2.60634e-02        00000 
 8.17579e-01 -2.25954e-02        00000 
 8.34490e-01 -1.88021e-02        00000 
 8.51138e-01 -1.46583e-02        00000 
 8.67381e-01 -1.01419e-02        00000 
 8.83049e-01 -5.24751e-03        00000 
 8.97959e-01  2.96366e-19        00000 
-3.41386e-18  3.41386e-20        00000 
 1.54279e-02 -4.04448e-03        00000 
 3.14254e-02 -7.75811e-03        00000 
 4.79116e-02 -1.11305e-02        00000 
 6.48045e-02 -1.41651e-02        00000 
 8.20331e-02 -1.68756e-02        00000 
 9.95435e-02 -1.92817e-02        00000 
 1.17300e-01 -2.14053e-02        00000 
 1.35283e-01 -2.32676e-02        00000 
 1.53487e-01 -2.48929e-02        00000 
 1.71910e-01 -2.63043e-02        00000 
 1.90533e-01 -2.74957e-02        00000 
 2.09276e-01 -2.84123e-02        00000 
 2.28177e-01 -2.90495e-02        00000 
 2.47311e-01 -2.94862e-02        00000 
 2.66736e-01 -2.98254e-02        00000 
 2.86522e-01 -3.02261e-02        00000 
 3.06740e-01 -3.06179e-02        00000 
 3.27501e-01 -3.14192e-02        00000 
 3.48493e-01 -3.23527e-02        00000 
 3.69656e-01 -3.34587e-02        00000 
 3.90937e-01 -3.47759e-02        00000 
 4.12126e-01 -3.62253e-02        00000 
 4.33116e-01 -3.78106e-02        00000 
 4.53835e-01 -3.95033e-02        00000 
 4.74204e-01 -4.12540e-02        00000 
 4.94127e-01 -4.29894e-02        00000 
 5.13504e-01 -4.46183e-02        00000 
 5.32287e-01 -4.60970e-02        00000 
 5.50666e-01 -4.73942e-02        00000 
 5.68398e-01 -4.84152e-02        00000 
 5.85793e-01 -4.91667e-02        00000 
 6.02620e-01 -4.95077e-02        00000 
 6.19167e-01 -4.97268e-02        00000 
 6.35627e-01 -4.95855e-02        00000 
 6.52064e-01 -4.91126e-02        00000 
 6.68540e-01 -4.81461e-02        00000 
 6.85188e-01 -4.67159e-02        00000 
 7.01667e-01 -4.47140e-02        00000 
 7.18088e-01 -4.22798e-02        00000 
 7.34524e-01 -3.95057e-02        00000 
 7.50986e-01 -3.64143e-02        00000 
 7.67451e-01 -3.30095e-02        00000 
 7.83890e-01 -2.92889e-02        00000 
 8.00253e-01 -2.52459e-02        00000 
 8.16467e-01 -2.08709e-02        00000 
 8.32433e-01 -1.61541e-02        00000 
 8.48029e-01 -1.10922e-02        00000 
 8.63115e-01 -5.69669e-03        00000 
 8.77551e-01 -3.45164e-19        00000 
 2.60843e-18 -1.63027e-19        00000 
 1.49560e-02 -4.36203e-03        00000 
 3.04418e-02 -8.41644e-03        00000 
 4.63921e-02 -1.21506e-02        00000 
 6.27414e-02 -1.55607e-02        00000 
 7.94318e-02 -1.86515e-02        00000 
 9.64186e-02 -2.14335e-02        00000 
 1.13672e-01 -2.39215e-02        00000 
 1.31178e-01 -2.61328e-02        00000 
 1.48945e-01 -2.80850e-02        00000 
 1.66923e-01 -2.97565e-02        00000 
 1.85119e-01 -3.11575e-02        00000 
 2.03353e-01 -3.21761e-02        00000 
 2.21853e-01 -3.29608e-02        00000 
 2.40824e-01 -3.36577e-02        00000 
 2.60271e-01 -3.43170e-02        00000 
 2.80135e-01 -3.49455e-02        00000 
 3.00675e-01 -3.59812e-02        00000 
 3.21663e-01 -3.71144e-02        00000 
 3.42855e-01 -3.82979e-02        00000 
 3.64265e-01 -3.95965e-02        00000 
 3.85654e-01 -4.09851e-02        00000 
 4.07041e-01 -4.25410e-02        00000 
 4.28237e-01 -4.42796e-02        00000 
 4.49112e-01 -4.61622e-02        00000 
 4.69535e-01 -4.81380e-02        00000 
 4.89396e-01 -5.01373e-02        00000 
 5.08628e-01 -5.20827e-02        00000 
 5.27260e-01 -5.38656e-02        00000 
 5.45134e-01 -5.52796e-02        00000 
 5.62386e-01 -5.63270e-02        00000 
 5.79028e-01 -5.68961e-02        00000 
 5.95026e-01 -5.69744e-02        00000 
 6.10565e-01 -5.66413e-02        00000 
 6.25741e-01 -5.62106e-02        00000 
 6.41003e-01 -5.52841e-02        00000 
 6.56472e-01 -5.39853e-02        00000 
 6.72210e-01 -5.21948e-02        00000 
 6.88044e-01 -4.98625e-02        00000 
 7.03936e-01 -4.70158e-02        00000 
 7.19723e-01 -4.37976e-02        00000 
 7.35453e-01 -4.02109e-02        00000 
 7.51197e-01 -3.63033e-02        00000 
 7.66931e-01 -3.20705e-02        00000 
 7.82609e-01 -2.75116e-02        00000 
 7.98163e-01 -2.26265e-02        00000 
 8.13503e-01 -1.74174e-02        00000 
 8.28523e-01 -1.18935e-02        00000 
 8.43108e-01 -6.07567e-03        00000 
 8.57143e-01  2.42024e-19        00000 
 1.63573e-18 -2.11112e-19        00000 
 1.45179e-02 -4.65572e-03        00000 
 2.95292e-02 -9.02481e-03        00000 
 4.49781e-02 -1.30931e-02        00000 
 6.08104e-02 -1.68521e-02        00000 
 7.69790e-02 -2.02997e-02        00000 
 9.34481e-02 -2.34393e-02        00000 
 1.10197e-01 -2.62795e-02        00000 
 1.27215e-01 -2.88304e-02        00000 
 1.44506e-01 -3.10986e-02        00000 
 1.62011e-01 -3.30305e-02        00000 
 1.79679e-01 -3.45798e-02        00000 
 1.97449e-01 -3.58154e-02        00000 
 2.15710e-01 -3.69078e-02        00000 
 2.34614e-01 -3.80416e-02        00000 
 2.54100e-01 -3.91545e-02        00000 
 2.74198e-01 -4.03967e-02        00000 
 2.94788e-01 -4.15919e-02        00000 
 3.15736e-01 -4.27404e-02        00000 
 3.37026e-01 -4.39178e-02        00000 
 3.58486e-01 -4.51639e-02        00000 
 3.79972e-01 -4.64482e-02        00000 
 4.01550e-01 -4.79788e-02        00000 
 4.22997e-01 -4.97675e-02        00000 
 4.44091e-01 -5.17947e-02        00000 
 4.64645e-01 -5.40190e-02        00000 
 4.84515e-01 -5.63498e-02        00000 
 5.03659e-01 -5.86985e-02        00000 
 5.22120e-01 -6.08822e-02        00000 
 5.39535e-01 -6.26162e-02        00000 
 5.56363e-01 -6.38624e-02        00000 
 5.72243e-01 -6.44628e-02        00000 
 5.87618e-01 -6.45114e-02        00000 
 6.02355e-01 -6.39803e-02        00000 
 6.16588e-01 -6.28981e-02        00000 
 6.30537e-01 -6.14692e-02        00000 
 6.44570e-01 -5.96108e-02        00000 
 6.58887e-01 -5.73354e-02        00000 
 6.73710e-01 -5.45362e-02        00000 
 6.89157e-01 -5.12848e-02        00000 
 7.04430e-01 -4.75740e-02        00000 
 7.19585e-01 -4.35220e-02        00000 
 7.34620e-01 -3.91508e-02        00000 
 7.49664e-01 -3.44547e-02        00000 
 7.64684e-01 -2.94391e-02        00000 
 7.79617e-01 -2.41108e-02        00000 
 7.94383e-01 -1.84808e-02        00000 
 8.08890e-01 -1.25661e-02        00000 
 8.23039e-01 -6.39334e-03        00000 
 8.36735e-01 -2.40749e-19        00000 
-1.30422e-18 -2.17369e-19        00000 
 1.41110e-02 -4.92916e-03        00000 
 2.86802e-02 -9.59157e-03        00000 
 4.36577e-02 -1.39717e-02        00000 
 5.89974e-02 -1.80578e-02        00000 
 7.46599e-02 -2.18426e-02        00000 
 9.06176e-02 -2.53217e-02        00000 
 1.06852e-01 -2.84921e-02        00000 
 1.23406e-01 -3.13868e-02        00000 
 1.40177e-01 -3.39624e-02        00000 
 1.57183e-01 -3.62139e-02        00000 
 1.74383e-01 -3.81266e-02        00000 
 1.91862e-01 -3.96816e-02        00000 
 2.09994e-01 -4.13334e-02        00000 
 2.28736e-01 -4.28572e-02        00000 
 2.48158e-01 -4.43226e-02        00000 
 2.68094e-01 -4.56042e-02        00000 
 2.88451e-01 -4.67043e-02        00000 
 3.09232e-01 -4.76797e-02        00000 
 3.30514e-01 -4.86609e-02        00000 
 3.52016e-01 -4.97078e-02        00000 
 3.73712e-01 -5.08387e-02        00000 
 3.95574e-01 -5.22964e-02        00000 
 4.17370e-01 -5.41044e-02        00000 
 4.38800e-01 -5.62797e-02        00000 
 4.59594e-01 -5.87689e-02        00000 
 4.79554e-01 -6.14737e-02        00000 
 4.98606e-01 -6.42485e-02        00000 
 5.16754e-01 -6.68335e-02        00000 
 5.33677e-01 -6.89565e-02        00000 
 5.49894e-01 -7.04563e-02        00000 
 5.65016e-01 -7.12813e-02        00000 
 5.79778e-01 -7.14393e-02        00000 
 5.93879e-01 -7.08199e-02        00000 
 6.07428e-01 -6.94607e-02        00000 
 6.20447e-01 -6.75716e-02        00000 
 6.33208e-01 -6.52035e-02        00000 
 6.45656e-01 -6.22678e-02        00000 
 6.59190e-01 -5.89638e-02        00000 
 6.73453e-01 -5.52161e-02        00000 
 6.88450e-01 -5.10025e-02        00000 
 7.03212e-01 -4.64098e-02        00000 
 7.17736e-01 -4.15736e-02        00000 
 7.32115e-01 -3.64701e-02        00000 
 7.46505e-01 -3.10578e-02        00000 
 7.60858e-01 -2.53498e-02        00000 
 7.75099e-01 -1.93636e-02        00000 