<?xml version="1.0" encoding="utf-8"?>
<VTKFile byte_order="LittleEndian" type="UnstructuredGrid" version="0.1">
   <UnstructuredGrid>
      <Piece NumberOfCells="9604" NumberOfPoints="4901">
         <Points>
            <DataArray Name="Points" NumberOfComponents="3" format="ascii" type="Float32">
-1.0000 -1.0000 0.0000
-1.0000 -0.9592 0.0000
-1.0000 -0.9184 0.0000
-1.0000 -0.8776 0.0000
-1.0000 -0.8367 0.0000
-1.0000 -0.7959 0.0000
-1.0000 -0.7551 0.0000
-1.0000 -0.7143 0.0000
-1.0000 -0.6735 0.0000
-1.0000 -0.6327 0.0000
-1.0000 -0.5918 0.0000
-1.0000 -0.5510 0.0000
-1.0000 -0.5102 0.0000
-1.0000 -0.4694 0.0000
-1.0000 -0.4286 0.0000
-1.0000 -0.3878 0.0000
-1.0000 -0.3469 0.0000
-1.0000 -0.3061 0.0000
-1.0000 -0.2653 0.0000
-1.0000 -0.2245 0.0000
-1.0000 -0.1837 0.0000
-1.0000 -0.1429 0.0000
-1.0000 -0.1020 0.0000
-1.0000 -0.0612 0.0000
-1.0000 -0.0204 0.0000
-1.0000 0.0204 0.0000
-1.0000 0.0612 0.0000
-1.0000 0.1020 0.0000
-1.0000 0.1429 0.0000
-1.0000 0.1837 0.0000
-1.0000 0.2245 0.0000
-1.0000 0.2653 0.0000
-1.0000 0.3061 0.0000
-1.0000 0.3469 0.0000
-1.0000 0.3878 0.0000
-1.0000 0.4286 0.0000
-1.0000 0.4694 0.0000
-1.0000 0.5102 0.0000
-1.0000 0.5510 0.0000
-1.0000 0.5918 0.0000
-1.0000 0.6327 0.0000
-1.0000 0.6735 0.0000
-1.0000 0.7143 0.0000
-1.0000 0.7551 0.0000
-1.0000 0.7959 0.0000
-1.0000 0.8367 0.0000
-1.0000 0.8776 0.0000
-1.0000 0.9184 0.0000
-1.0000 0.9592 0.0000
-1.0000 1.0000 0.0000
-0.9592 -1.0000 0.0000
-0.9592 -0.9592 0.0000
-0.9592 -0.9184 0.0000
-0.9592 -0.8776 0.0000
-0.9592 -0.8367 0.0000
-0.9592 -0.7959 0.0000
-0.9592 -0.7551 0.0000
-0.9592 -0.7143 0.0000
-0.9592 -0.6735 0.0000
-0.9592 -0.6327 0.0000
-0.9592 -0.5918 0.0000
-0.9592 -0.5510 0.0000
-0.9592 -0.5102 0.0000
-0.9592 -0.4694 0.0000
-0.9592 -0.4286 0.0000
-0.9592 -0.3878 0.0000
-0.9592 -0.3469 0.0000
-0.9592 -0.3061 0.0000
-0.9592 -0.2653 0.0000
-0.9592 -0.2245 0.0000
-0.9592 -0.1837 0.0000
-0.9592 -0.1429 0.0000
-0.9592 -0.1020 0.0000
-0.9592 -0.0612 0.0000
-0.9592 -0.0204 0.0000
-0.9592 0.0204 0.0000
-0.9592 0.0612 0.0000
-0.9592 0.1020 0.0000
-0.9592 0.1429 0.0000
-0.9592 0.1837 0.0000
-0.9592 0.2245 0.0000
-0.9592 0.2653 0.0000
-0.9592 0.3061 0.0000
-0.9592 0.3469 0.0000
-0.9592 0.3878 0.0000
-0.9592 0.4286 0.0000
-0.9592 0.4694 0.0000
-0.9592 0.5102 0.0000
-0.9592 0.5510 0.0000
-0.9592 0.5918 0.0000
-0.9592 0.6327 0.0000
-0.9592 0.6735 0.0000
-0.9592 0.7143 0.0000
-0.9592 0.7551 0.0000
-0.9592 0.7959 0.0000
-0.9592 0.8367 0.0000
-0.9592 0.8776 0.0000
-0.9592 0.9184 0.0000
-0.9592 0.9592 0.0000
-0.9592 1.0000 0.0000
-0.9184 -1.0000 0.0000
-0.9184 -0.9592 0.0000
-0.9184 -0.9184 0.0000
-0.9184 -0.8776 0.0000
-0.9184 -0.8367 0.0000
-0.9184 -0.7959 0.0000
-0.9184 -0.7551 0.0000
-0.9184 -0.7143 0.0000
-0.9184 -0.6735 0.0000
-0.9184 -0.6327 0.0000
-0.9184 -0.5918 0.0000
-0.9184 -0.5510 0.0000
-0.9184 -0.5102 0.0000
-0.9184 -0.4694 0.0000
-0.9184 -0.4286 0.0000
-0.9184 -0.3878 0.0000
-0.9184 -0.3469 0.0000
-0.9184 -0.3061 0.0000
-0.9184 -0.2653 0.0000
-0.9184 -0.2245 0.0000
-0.9184 -0.1837 0.0000
-0.9184 -0.1429 0.0000
-0.9184 -0.1020 0.0000
-0.9184 -0.0612 0.0000
-0.9184 -0.0204 0.0000
-0.9184 0.0204 0.0000
-0.9184 0.0612 0.0000
-0.9184 0.1020 0.0000
-0.9184 0.1429 0.0000
-0.9184 0.1837 0.0000
-0.9184 0.2245 0.0000
-0.9184 0.2653 0.0000
-0.9184 0.3061 0.0000
-0.9184 0.3469 0.0000
-0.9184 0.3878 0.0000
-0.9184 0.4286 0.0000
-0.9184 0.4694 0.0000
-0.9184 0.5102 0.0000
-0.9184 0.5510 0.0000
-0.9184 0.5918 0.0000
-0.9184 0.6327 0.0000
-0.9184 0.6735 0.0000
-0.9184 0.7143 0.0000
-0.9184 0.7551 0.0000
-0.9184 0.7959 0.0000
-0.9184 0.8367 0.0000
-0.9184 0.8776 0.0000
-0.9184 0.9184 0.0000
-0.9184 0.9592 0.0000
-0.9184 1.0000 0.0000
-0.8776 -1.0000 0.0000
-0.8776 -0.9592 0.0000
-0.8776 -0.9184 0.0000
-0.8776 -0.8776 0.0000
-0.8776 -0.8367 0.0000
-0.8776 -0.7959 0.0000
-0.8776 -0.7551 0.0000
-0.8776 -0.7143 0.0000
-0.8776 -0.6735 0.0000
-0.8776 -0.6327 0.0000
-0.8776 -0.5918 0.0000
-0.8776 -0.5510 0.0000
-0.8776 -0.5102 0.0000
-0.8776 -0.4694 0.0000
-0.8776 -0.4286 0.0000
-0.8776 -0.3878 0.0000
-0.8776 -0.3469 0.0000
-0.8776 -0.3061 0.0000
-0.8776 -0.2653 0.0000
-0.8776 -0.2245 0.0000
-0.8776 -0.1837 0.0000
-0.8776 -0.1429 0.0000
-0.8776 -0.1020 0.0000
-0.8776 -0.0612 0.0000
-0.8776 -0.0204 0.0000
-0.8776 0.0204 0.0000
-0.8776 0.0612 0.0000
-0.8776 0.1020 0.0000
-0.8776 0.1429 0.0000
-0.8776 0.1837 0.0000
-0.8776 0.2245 0.0000
-0.8776 0.2653 0.0000
-0.8776 0.3061 0.0000
-0.8776 0.3469 0.0000
-0.8776 0.3878 0.0000
-0.8776 0.4286 0.0000
-0.8776 0.4694 0.0000
-0.8776 0.5102 0.0000
-0.8776 0.5510 0.0000
-0.8776 0.5918 0.0000
-0.8776 0.6327 0.0000
-0.8776 0.6735 0.0000
-0.8776 0.7143 0.0000
-0.8776 0.7551 0.0000
-0.8776 0.7959 0.0000
-0.8776 0.8367 0.0000
-0.8776 0.8776 0.0000
-0.8776 0.9184 0.0000
-0.8776 0.9592 0.0000
-0.8776 1.0000 0.0000
-0.8367 -1.0000 0.0000
-0.8367 -0.9592 0.0000
-0.8367 -0.9184 0.0000
-0.8367 -0.8776 0.0000
-0.8367 -0.8367 0.0000
-0.8367 -0.7959 0.0000
-0.8367 -0.7551 0.0000
-0.8367 -0.7143 0.0000
-0.8367 -0.6735 0.0000
-0.8367 -0.6327 0.0000
-0.8367 -0.5918 0.0000
-0.8367 -0.5510 0.0000
-0.8367 -0.5102 0.0000
-0.8367 -0.4694 0.0000
-0.8367 -0.4286 0.0000
-0.8367 -0.3878 0.0000
-0.8367 -0.3469 0.0000
-0.8367 -0.3061 0.0000
-0.8367 -0.2653 0.0000
-0.8367 -0.2245 0.0000
-0.8367 -0.1837 0.0000
-0.8367 -0.1429 0.0000
-0.8367 -0.1020 0.0000
-0.8367 -0.0612 0.0000
-0.8367 -0.0204 0.0000
-0.8367 0.0204 0.0000
-0.8367 0.0612 0.0000
-0.8367 0.1020 0.0000
-0.8367 0.1429 0.0000
-0.8367 0.1837 0.0000
-0.8367 0.2245 0.0000
-0.8367 0.2653 0.0000
-0.8367 0.3061 0.0000
-0.8367 0.3469 0.0000
-0.8367 0.3878 0.0000
-0.8367 0.4286 0.0000
-0.8367 0.4694 0.0000
-0.8367 0.5102 0.0000
-0.8367 0.5510 0.0000
-0.8367 0.5918 0.0000
-0.8367 0.6327 0.0000
-0.8367 0.6735 0.0000
-0.8367 0.7143 0.0000
-0.8367 0.7551 0.0000
-0.8367 0.7959 0.0000
-0.8367 0.8367 0.0000
-0.8367 0.8776 0.0000
-0.8367 0.9184 0.0000
-0.8367 0.9592 0.0000
-0.8367 1.0000 0.0000
-0.7959 -1.0000 0.0000
-0.7959 -0.9592 0.0000
-0.7959 -0.9184 0.0000
-0.7959 -0.8776 0.0000
-0.7959 -0.8367 0.0000
-0.7959 -0.7959 0.0000
-0.7959 -0.7551 0.0000
-0.7959 -0.7143 0.0000
-0.7959 -0.6735 0.0000
-0.7959 -0.6327 0.0000
-0.7959 -0.5918 0.0000
-0.7959 -0.5510 0.0000
-0.7959 -0.5102 0.0000
-0.7959 -0.4694 0.0000
-0.7959 -0.4286 0.0000
-0.7959 -0.3878 0.0000
-0.7959 -0.3469 0.0000
-0.7959 -0.3061 0.0000
-0.7959 -0.2653 0.0000
-0.7959 -0.2245 0.0000
-0.7959 -0.1837 0.0000
-0.7959 -0.1429 0.0000
-0.7959 -0.1020 0.0000
-0.7959 -0.0612 0.0000
-0.7959 -0.0204 0.0000
-0.7959 0.0204 0.0000
-0.7959 0.0612 0.0000
-0.7959 0.1020 0.0000
-0.7959 0.1429 0.0000
-0.7959 0.1837 0.0000
-0.7959 0.2245 0.0000
-0.7959 0.2653 0.0000
-0.7959 0.3061 0.0000
-0.7959 0.3469 0.0000
-0.7959 0.3878 0.0000
-0.7959 0.4286 0.0000
-0.7959 0.4694 0.0000
-0.7959 0.5102 0.0000
-0.7959 0.5510 0.0000
-0.7959 0.5918 0.0000
-0.7959 0.6327 0.0000
-0.7959 0.6735 0.0000
-0.7959 0.7143 0.0000
-0.7959 0.7551 0.0000
-0.7959 0.7959 0.0000
-0.7959 0.8367 0.0000
-0.7959 0.8776 0.0000
-0.7959 0.9184 0.0000
-0.7959 0.9592 0.0000
-0.7959 1.0000 0.0000
-0.7551 -1.0000 0.0000
-0.7551 -0.9592 0.0000
-0.7551 -0.9184 0.0000
-0.7551 -0.8776 0.0000
-0.7551 -0.8367 0.0000
-0.7551 -0.7959 0.0000
-0.7551 -0.7551 0.0000
-0.7551 -0.7143 0.0000
-0.7551 -0.6735 0.0000
-0.7551 -0.6327 0.0000
-0.7551 -0.5918 0.0000
-0.7551 -0.5510 0.0000
-0.7551 -0.5102 0.0000
-0.7551 -0.4694 0.0000
-0.7551 -0.4286 0.0000
-0.7551 -0.3878 0.0000
-0.7551 -0.3469 0.0000
-0.7551 -0.3061 0.0000
-0.7551 -0.2653 0.0000
-0.7551 -0.2245 0.0000
-0.7551 -0.1837 0.0000
-0.7551 -0.1429 0.0000
-0.7551 -0.1020 0.0000
-0.7551 -0.0612 0.0000
-0.7551 -0.0204 0.0000
-0.7551 0.0204 0.0000
-0.7551 0.0612 0.0000
-0.7551 0.1020 0.0000
-0.7551 0.1429 0.0000
-0.7551 0.1837 0.0000
-0.7551 0.2245 0.0000
-0.7551 0.2653 0.0000
-0.7551 0.3061 0.0000
-0.7551 0.3469 0.0000
-0.7551 0.3878 0.0000
-0.7551 0.4286 0.0000
-0.7551 0.4694 0.0000
-0.7551 0.5102 0.0000
-0.7551 0.5510 0.0000
-0.7551 0.5918 0.0000
-0.7551 0.6327 0.0000
-0.7551 0.6735 0.0000
-0.7551 0.7143 0.0000
-0.7551 0.7551 0.0000
-0.7551 0.7959 0.0000
-0.7551 0.8367 0.0000
-0.7551 0.8776 0.0000
-0.7551 0.9184 0.0000
-0.7551 0.9592 0.0000
-0.7551 1.0000 0.0000
-0.7143 -1.0000 0.0000
-0.7143 -0.9592 0.0000
-0.7143 -0.9184 0.0000
-0.7143 -0.8776 0.0000
-0.7143 -0.8367 0.0000
-0.7143 -0.7959 0.0000
-0.7143 -0.7551 0.0000
-0.7143 -0.7143 0.0000
-0.7143 -0.6735 0.0000
-0.7143 -0.6327 0.0000
-0.7143 -0.5918 0.0000
-0.7143 -0.5510 0.0000
-0.7143 -0.5102 0.0000
-0.7143 -0.4694 0.0000
-0.7143 -0.4286 0.0000
-0.7143 -0.3878 0.0000
-0.7143 -0.3469 0.0000
-0.7143 -0.3061 0.0000
-0.7143 -0.2653 0.0000
-0.7143 -0.2245 0.0000
-0.7143 -0.1837 0.0000
-0.7143 -0.1429 0.0000
-0.7143 -0.1020 0.0000
-0.7143 -0.0612 0.0000
-0.7143 -0.0204 0.0000
-0.7143 0.0204 0.0000
-0.7143 0.0612 0.0000
-0.7143 0.1020 0.0000
-0.7143 0.1429 0.0000
-0.7143 0.1837 0.0000
-0.7143 0.2245 0.0000
-0.7143 0.2653 0.0000
-0.7143 0.3061 0.0000
-0.7143 0.3469 0.0000
-0.7143 0.3878 0.0000
-0.7143 0.4286 0.0000
-0.7143 0.4694 0.0000
-0.7143 0.5102 0.0000
-0.7143 0.5510 0.0000
-0.7143 0.5918 0.0000
-0.7143 0.6327 0.0000
-0.7143 0.6735 0.0000
-0.7143 0.7143 0.0000
-0.7143 0.7551 0.0000
-0.7143 0.7959 0.0000
-0.7143 0.8367 0.0000
-0.7143 0.8776 0.0000
-0.7143 0.9184 0.0000
-0.7143 0.9592 0.0000
-0.7143 1.0000 0.0000
-0.6735 -1.0000 0.0000
-0.6735 -0.9592 0.0000
-0.6735 -0.9184 0.0000
-0.6735 -0.8776 0.0000
-0.6735 -0.8367 0.0000
-0.6735 -0.7959 0.0000
-0.6735 -0.7551 0.0000
-0.6735 -0.7143 0.0000
-0.6735 -0.6735 0.0000
-0.6735 -0.6327 0.0000
-0.6735 -0.5918 0.0000
-0.6735 -0.5510 0.0000
-0.6735 -0.5102 0.0000
-0.6735 -0.4694 0.0000
-0.6735 -0.4286 0.0000
-0.6735 -0.3878 0.0000
-0.6735 -0.3469 0.0000
-0.6735 -0.3061 0.0000
-0.6735 -0.2653 0.0000
-0.6735 -0.2245 0.0000
-0.6735 -0.1837 0.0000
-0.6735 -0.1429 0.0000
-0.6735 -0.1020 0.0000
-0.6735 -0.0612 0.0000
-0.6735 -0.0204 0.0000
-0.6735 0.0204 0.0000
-0.6735 0.0612 0.0000
-0.6735 0.1020 0.0000
-0.6735 0.1429 0.0000
-0.6735 0.1837 0.0000
[...]
         <PointData>
            <DataArray Name="fValues" NumberOfComponents="3" format="ascii" type="Float64">
-2.16275e-04  9.95687e-01        00000 
 1.73394e-03  9.76952e-01        00000 
 9.50882e-05  9.57983e-01        00000 
-4.50204e-04  9.38578e-01        00000 
 1.07778e-03  9.16729e-01        00000 
 2.92098e-03  8.95429e-01        00000 
 3.45577e-03  8.74673e-01        00000 
 3.48596e-03  8.54278e-01        00000 
 3.19588e-03  8.33170e-01        00000 
 2.31609e-03  8.12485e-01        00000 
 2.05478e-03  7.92723e-01        00000 
 2.19088e-03  7.72119e-01        00000 
 2.39382e-03  7.50942e-01        00000 
 2.44356e-03  7.30728e-01        00000 
 1.95261e-03  7.10348e-01        00000 
 1.35638e-03  6.90919e-01        00000 
 7.10743e-04  6.71291e-01        00000 
 1.43860e-03  6.49750e-01        00000 
 1.16281e-03  6.27979e-01        00000 
 7.15269e-04  6.06219e-01        00000 
 1.87017e-04  5.84912e-01        00000 
-3.89892e-04  5.64118e-01        00000 
-3.47597e-04  5.45581e-01        00000 
 8.34300e-04  5.26984e-01        00000 
 1.66223e-03  5.07684e-01        00000 
 1.79250e-03  4.88325e-01        00000 
 1.78777e-03  4.69068e-01        00000 
 1.65465e-03  4.49804e-01        00000 
 1.46873e-03  4.30207e-01        00000 
 1.48324e-03  4.10146e-01        00000 
 1.40755e-03  3.89159e-01        00000 
 1.12952e-03  3.67378e-01        00000 
 1.09127e-03  3.45697e-01        00000 
 1.46670e-03  3.23998e-01        00000 
 1.59527e-03  3.02296e-01        00000 
 1.74312e-03  2.83650e-01        00000 
 2.29254e-03  2.67360e-01        00000 
 3.00368e-03  2.47678e-01        00000 
 3.50142e-03  2.26094e-01        00000 
 3.14687e-03  2.04969e-01        00000 
 2.62777e-03  1.84145e-01        00000 
 1.81046e-03  1.64741e-01        00000 
 1.85571e-03  1.38673e-01        00000 
 1.30068e-03  1.16417e-01        00000 
 8.45821e-04  1.00686e-01        00000 
-3.26225e-04  8.35901e-02        00000 
-1.79316e-04  6.13105e-02        00000 
 1.47503e-03  3.76351e-02        00000 
 1.65570e-03  1.37823e-02        00000 
 9.99059e-04 -7.09789e-03        00000 
 1.20035e-03  9.77586e-01        00000 
 4.21280e-03  9.58892e-01        00000 
 3.54444e-03  9.41442e-01        00000 
 3.48201e-03  9.22550e-01        00000 
 4.68039e-03  9.00743e-01        00000 
 5.90830e-03  8.80356e-01        00000 
 7.03699e-03  8.61421e-01        00000 
 8.04492e-03  8.42243e-01        00000 
 8.08270e-03  8.20692e-01        00000 
 7.23146e-03  7.99846e-01        00000 
 7.51595e-03  7.79590e-01        00000 
 7.82174e-03  7.59414e-01        00000 
 8.09853e-03  7.38510e-01        00000 
 8.16723e-03  7.18598e-01        00000 
 7.78327e-03  6.98614e-01        00000 
 7.68719e-03  6.79424e-01        00000 
 7.79430e-03  6.59358e-01        00000 
 7.69381e-03  6.39695e-01        00000 
 7.69666e-03  6.20588e-01        00000 
 8.26659e-03  5.99785e-01        00000 
 8.37010e-03  5.78827e-01        00000 
 8.17221e-03  5.58427e-01        00000 
 7.75122e-03  5.38652e-01        00000 
 7.20840e-03  5.19418e-01        00000 
 7.65974e-03  4.99480e-01        00000 
 7.69890e-03  4.80490e-01        00000 
 7.75229e-03  4.61515e-01        00000 
 7.91233e-03  4.42169e-01        00000 
 7.56322e-03  4.21910e-01        00000 
 6.89956e-03  4.01004e-01        00000 
 6.59795e-03  3.80494e-01        00000 
 6.58259e-03  3.59825e-01        00000 
 6.96373e-03  3.39895e-01        00000 
 6.92692e-03  3.19709e-01        00000 
 6.72372e-03  2.99344e-01        00000 
 6.72004e-03  2.77690e-01        00000 
 6.92704e-03  2.57772e-01        00000 
 7.81208e-03  2.38190e-01        00000 
 8.95780e-03  2.15499e-01        00000 
 1.01417e-02  1.96437e-01        00000 
 1.04852e-02  1.77416e-01        00000 
 9.74168e-03  1.57184e-01        00000 
 8.40209e-03  1.35868e-01        00000 
 6.90640e-03  1.13744e-01        00000 
 5.63598e-03  9.79622e-02        00000 
 4.76830e-03  7.94075e-02        00000 
 4.99765e-03  5.89517e-02        00000 
 4.41916e-03  3.82002e-02        00000 
 2.59651e-03  1.72911e-02        00000 
-5.92606e-04 -1.86354e-03        00000 
 7.52774e-04  9.59446e-01        00000 
 5.48188e-03  9.41132e-01        00000 
 6.25899e-03  9.25198e-01        00000 
 7.11173e-03  9.05801e-01        00000 
 8.35257e-03  8.84986e-01        00000 
 9.59892e-03  8.64669e-01        00000 
 1.09943e-02  8.46171e-01        00000 
 1.21549e-02  8.28383e-01        00000 
 1.25900e-02  8.07656e-01        00000 
 1.28792e-02  7.87992e-01        00000 
 1.31086e-02  7.68660e-01        00000 
 1.34452e-02  7.48453e-01        00000 
 1.37141e-02  7.27402e-01        00000 
 1.36961e-02  7.07758e-01        00000 
 1.41877e-02  6.87304e-01        00000 
 1.47107e-02  6.68057e-01        00000 
 1.47100e-02  6.48269e-01        00000 
 1.44774e-02  6.29270e-01        00000 
 1.44857e-02  6.11216e-01        00000 
 1.47507e-02  5.93365e-01        00000 
 1.50042e-02  5.73810e-01        00000 
 1.50329e-02  5.53976e-01        00000 
 1.47903e-02  5.34577e-01        00000 
 1.44191e-02  5.15505e-01        00000 
 1.46295e-02  4.95524e-01        00000 
 1.47628e-02  4.74493e-01        00000 
 1.44184e-02  4.53005e-01        00000 
 1.39128e-02  4.31591e-01        00000 
 1.36369e-02  4.12243e-01        00000 
 1.32265e-02  3.92601e-01        00000 
 1.25548e-02  3.72201e-01        00000 
 1.26916e-02  3.53145e-01        00000 
 1.23049e-02  3.33862e-01        00000 
 1.16896e-02  3.13170e-01        00000 
 1.19732e-02  2.92101e-01        00000 
 1.19683e-02  2.69986e-01        00000 
 1.17060e-02  2.49723e-01        00000 
 1.19832e-02  2.30792e-01        00000 
 1.31832e-02  2.12801e-01        00000 
 1.39356e-02  1.94444e-01        00000 
 1.44467e-02  1.73852e-01        00000 
 1.43388e-02  1.53681e-01        00000 
 1.33706e-02  1.34968e-01        00000 
 1.18318e-02  1.18509e-01        00000 
 9.54652e-03  9.85119e-02        00000 
 9.20935e-03  7.69712e-02        00000 
 8.48722e-03  5.66306e-02        00000 
 5.74831e-03  3.68502e-02        00000 
 2.31452e-03  1.71364e-02        00000 
-1.68912e-03 -1.32061e-03        00000 
-4.16534e-04  9.37724e-01        00000 
 4.51874e-03  9.22323e-01        00000 
 9.72092e-03  9.08334e-01        00000 
 1.13347e-02  8.89439e-01        00000 
 1.26467e-02  8.69161e-01        00000 
 1.39618e-02  8.49527e-01        00000 
 1.52015e-02  8.30901e-01        00000 
 1.64277e-02  8.13686e-01        00000 
 1.69814e-02  7.94093e-01        00000 
 1.76472e-02  7.74546e-01        00000 
 1.84309e-02  7.56206e-01        00000 
 1.93902e-02  7.37935e-01        00000 
 1.96158e-02  7.16255e-01        00000 
 2.03875e-02  6.95627e-01        00000 
 2.06421e-02  6.75361e-01        00000 
 2.08364e-02  6.55906e-01        00000 
 2.08302e-02  6.36262e-01        00000 
 2.06831e-02  6.17809e-01        00000 
 2.09053e-02  6.01280e-01        00000 
 2.12304e-02  5.84990e-01        00000 
 2.15835e-02  5.67611e-01        00000 
 2.11770e-02  5.49137e-01        00000 
 2.13344e-02  5.28427e-01        00000 
 2.15733e-02  5.07963e-01        00000 
 2.15025e-02  4.87696e-01        00000 
 2.05815e-02  4.67115e-01        00000 
 2.02735e-02  4.46261e-01        00000 
 1.99671e-02  4.25570e-01        00000 
 1.94804e-02  4.04888e-01        00000 
 1.88943e-02  3.84128e-01        00000 
 1.85193e-02  3.64399e-01        00000 
 1.77733e-02  3.44598e-01        00000 
 1.70555e-02  3.24698e-01        00000 
 1.61850e-02  3.05893e-01        00000 
 1.55150e-02  2.85435e-01        00000 
 1.54920e-02  2.63451e-01        00000 
 1.54364e-02  2.45096e-01        00000 
 1.63121e-02  2.27332e-01        00000 
 1.66582e-02  2.07733e-01        00000 
 1.70307e-02  1.91774e-01        00000 
 1.76580e-02  1.71618e-01        00000 
 1.74325e-02  1.53108e-01        00000 
 1.66419e-02  1.35136e-01        00000 
 1.49598e-02  1.16233e-01        00000 
 1.35660e-02  9.40635e-02        00000 
 1.18874e-02  7.29303e-02        00000 
 9.49158e-03  5.27549e-02        00000 
 6.33388e-03  3.52632e-02        00000 
 2.74736e-03  1.73342e-02        00000 
-1.01915e-03  2.72909e-04        00000 
-9.12573e-05  9.16216e-01        00000 
 4.50212e-03  9.01124e-01        00000 
 1.01926e-02  8.88069e-01        00000 
 1.47444e-02  8.70270e-01        00000 
 1.69369e-02  8.50817e-01        00000 
 1.82694e-02  8.32578e-01        00000 
 1.96296e-02  8.15141e-01        00000 
 2.05727e-02  7.98139e-01        00000 
 2.16120e-02  7.80817e-01        00000 
 2.27202e-02  7.61356e-01        00000 
 2.37173e-02  7.43456e-01        00000 
 2.43551e-02  7.23859e-01        00000 
 2.52185e-02  7.02940e-01        00000 
 2.64586e-02  6.82533e-01        00000 
 2.69619e-02  6.63486e-01        00000 
 2.69237e-02  6.43462e-01        00000 
 2.67195e-02  6.23844e-01        00000 
 2.59213e-02  6.04854e-01        00000 
 2.57907e-02  5.87717e-01        00000 
 2.61511e-02  5.70539e-01        00000 
 2.66173e-02  5.53220e-01        00000 
 2.78820e-02  5.36968e-01        00000 
 2.77267e-02  5.19283e-01        00000 
 2.77577e-02  4.99856e-01        00000 
 2.74598e-02  4.79966e-01        00000 
 2.66596e-02  4.60024e-01        00000 
 2.56704e-02  4.40013e-01        00000 
 2.48984e-02  4.18971e-01        00000 
 2.44768e-02  3.98353e-01        00000 
 2.39243e-02  3.77685e-01        00000 
 2.29534e-02  3.56498e-01        00000 
 2.15244e-02  3.36228e-01        00000 
 2.03858e-02  3.17266e-01        00000 
 1.99135e-02  2.98520e-01        00000 
 1.94873e-02  2.78486e-01        00000 
 1.90165e-02  2.57195e-01        00000 
 1.87459e-02  2.39737e-01        00000 
 1.95599e-02  2.23231e-01        00000 
 2.06481e-02  2.03965e-01        00000 
 2.04947e-02  1.86779e-01        00000 
 2.03896e-02  1.70630e-01        00000 
 2.03296e-02  1.50773e-01        00000 
 1.91574e-02  1.28130e-01        00000 
 1.80344e-02  1.09468e-01        00000 
 1.54513e-02  8.91603e-02        00000 
 1.29931e-02  7.06055e-02        00000 
 1.01591e-02  5.16740e-02        00000 
 7.09002e-03  3.34144e-02        00000 
 4.08504e-03  1.76337e-02        00000 
-9.61970e-05  6.88912e-04        00000 
 1.26941e-03  8.96019e-01        00000 
 5.72153e-03  8.81543e-01        00000 
 1.04155e-02  8.67704e-01        00000 
 1.63032e-02  8.51139e-01        00000 
 1.94891e-02  8.32872e-01        00000 
 2.23656e-02  8.15618e-01        00000 
 2.37702e-02  7.97881e-01        00000 
 2.48785e-02  7.81321e-01        00000 
 2.64006e-02  7.65455e-01        00000 
 2.77508e-02  7.47094e-01        00000 
 2.93592e-02  7.29771e-01        00000 
 3.02826e-02  7.10070e-01        00000 
 3.09150e-02  6.89305e-01        00000 
 3.14286e-02  6.69867e-01        00000 
 3.26002e-02  6.51390e-01        00000 
 3.26549e-02  6.30989e-01        00000 
 3.25966e-02  6.11250e-01        00000 
 3.21420e-02  5.92107e-01        00000 
 3.16130e-02  5.74157e-01        00000 
 3.20948e-02  5.55624e-01        00000 
 3.25657e-02  5.37333e-01        00000 
 3.32125e-02  5.19971e-01        00000 
 3.39196e-02  5.04666e-01        00000 
 3.46030e-02  4.90509e-01        00000 
 3.30210e-02  4.71793e-01        00000 
 3.20305e-02  4.51544e-01        00000 
 3.08302e-02  4.31376e-01        00000 
 2.93574e-02  4.10975e-01        00000 
 2.79903e-02  3.89664e-01        00000 
 2.73053e-02  3.69372e-01        00000 
 2.66545e-02  3.51423e-01        00000 
 2.56418e-02  3.32720e-01        00000 
 2.45253e-02  3.11448e-01        00000 
 2.42204e-02  2.90470e-01        00000 
 2.39854e-02  2.70538e-01        00000 
 2.37289e-02  2.50708e-01        00000 
 2.37227e-02  2.34499e-01        00000 
 2.43047e-02  2.17765e-01        00000 
 2.53376e-02  2.00390e-01        00000 
 2.46523e-02  1.84772e-01        00000 
 2.30230e-02  1.65173e-01        00000 
 2.23853e-02  1.44215e-01        00000 
 2.04499e-02  1.23132e-01        00000 
 1.80633e-02  1.02381e-01        00000 
 1.60385e-02  8.44462e-02        00000 
 1.38464e-02  6.81504e-02        00000 
 1.20056e-02  5.04966e-02        00000 
 9.48313e-03  3.25784e-02        00000 
 5.92742e-03  1.69442e-02        00000 
 1.16925e-04 -2.94651e-04        00000 
 2.24299e-03  8.77130e-01        00000 
 6.43287e-03  8.63162e-01        00000 
 1.12113e-02  8.48356e-01        00000 
 1.72118e-02  8.32651e-01        00000 
 2.10495e-02  8.15513e-01        00000 
 2.42701e-02  7.99319e-01        00000 
 2.72437e-02  7.83217e-01        00000 
 2.89835e-02  7.66283e-01        00000 
 3.12528e-02  7.48956e-01        00000 
 3.36411e-02  7.32879e-01        00000 
 3.47914e-02  7.13579e-01        00000 
 3.59913e-02  6.94498e-01        00000 
 3.69493e-02  6.75479e-01        00000 
 3.76010e-02  6.56516e-01        00000 
 3.78018e-02  6.37278e-01        00000 
 3.78345e-02  6.18207e-01        00000 
 3.76498e-02  5.98940e-01        00000 
 3.75654e-02  5.79351e-01        00000 
 3.79727e-02  5.59515e-01        00000 
 3.87557e-02  5.41411e-01        00000 
 3.95309e-02  5.23186e-01        00000 
 3.99809e-02  5.05822e-01        00000 
 4.03460e-02  4.89508e-01        00000 
 3.96282e-02  4.73908e-01        00000 
 3.82894e-02  4.56835e-01        00000 
 3.68471e-02  4.39957e-01        00000 
 3.54003e-02  4.21793e-01        00000 
 3.38219e-02  4.01712e-01        00000 
 3.20996e-02  3.81189e-01        00000 
 3.09329e-02  3.61715e-01        00000 
 3.01937e-02  3.43842e-01        00000 
 2.94644e-02  3.24445e-01        00000 
 2.86606e-02  3.04850e-01        00000 
 2.84681e-02  2.84768e-01        00000 
 2.89249e-02  2.64894e-01        00000 
 2.92626e-02  2.44837e-01        00000 
 2.94140e-02  2.28166e-01        00000 
 2.96979e-02  2.12126e-01        00000 
 3.02831e-02  1.96874e-01        00000 
 2.90339e-02  1.78283e-01        00000 
 2.66267e-02  1.58690e-01        00000 
 2.44144e-02  1.37247e-01        00000 
 2.13236e-02  1.19425e-01        00000 
 1.83390e-02  9.95258e-02        00000 
 1.73292e-02  8.23203e-02        00000 
 1.61212e-02  6.59077e-02        00000 
 1.39465e-02  4.93380e-02        00000 
 1.13513e-02  3.10016e-02        00000 
 6.37786e-03  1.59131e-02        00000 
 3.02994e-04 -1.02360e-03        00000 
 2.56206e-03  8.57895e-01        00000 
 7.21855e-03  8.44138e-01        00000 
 1.22259e-02  8.29286e-01        00000 
 1.76275e-02  8.14388e-01        00000 
 2.23072e-02  7.98877e-01        00000 
 2.59468e-02  7.83502e-01        00000 
 2.92430e-02  7.67308e-01        00000 
 3.25620e-02  7.50482e-01        00000 
 3.47657e-02  7.33169e-01        00000 
 3.78473e-02  7.17693e-01        00000 
 3.95225e-02  6.98321e-01        00000 
 4.07556e-02  6.78739e-01        00000 
 4.18465e-02  6.59972e-01        00000 
 4.27814e-02  6.42568e-01        00000 
 4.33530e-02  6.25162e-01        00000 
 4.31568e-02  6.05982e-01        00000 
 4.32226e-02  5.85155e-01        00000 
 4.28886e-02  5.63384e-01        00000 
 4.40578e-02  5.45356e-01        00000 
 4.49360e-02  5.27585e-01        00000 
 4.55909e-02  5.10471e-01        00000 
 4.63154e-02  4.93845e-01        00000 
 4.61056e-02  4.76588e-01        00000 
 4.41634e-02  4.58365e-01        00000 
 4.21936e-02  4.41207e-01        00000 
 4.07780e-02  4.24687e-01        00000 
 3.92162e-02  4.07882e-01        00000 
 3.76022e-02  3.91077e-01        00000 
 3.64372e-02  3.71945e-01        00000 
 3.50498e-02  3.54575e-01        00000 
 3.37702e-02  3.34658e-01        00000 
 3.28323e-02  3.15173e-01        00000 
 3.22095e-02  2.96402e-01        00000 
 3.23458e-02  2.76714e-01        00000 
 3.31713e-02  2.58323e-01        00000 
 3.40031e-02  2.40557e-01        00000 
 3.40726e-02  2.22943e-01        00000 
 3.31471e-02  2.04868e-01        00000 
 3.31106e-02  1.87797e-01        00000 
 3.17229e-02  1.70294e-01        00000 
 2.90051e-02  1.49192e-01        00000 
 2.64985e-02  1.33088e-01        00000 
 2.34610e-02  1.16511e-01        00000 
 2.00608e-02  9.73566e-02        00000 
 1.89401e-02  7.99526e-02        00000 
 1.75692e-02  6.44502e-02        00000 
 1.57497e-02  4.76756e-02        00000 
 1.20806e-02  3.12740e-02        00000 
 6.79304e-03  1.47663e-02        00000 
 9.30817e-04  3.65722e-04        00000 
 2.91510e-03  8.39092e-01        00000 
 8.16177e-03  8.24745e-01        00000 
 1.36143e-02  8.09418e-01        00000 
 1.87634e-02  7.94886e-01        00000 
 2.36518e-02  7.81123e-01        00000 
 2.80341e-02  7.66125e-01        00000 
 3.19016e-02  7.50649e-01        00000 
 3.54308e-02  7.35139e-01        00000 
 3.83571e-02  7.18307e-01        00000 
 4.16084e-02  7.03676e-01        00000 
 4.37649e-02  6.85787e-01        00000 
 4.51120e-02  6.66754e-01        00000 
 4.63680e-02  6.47733e-01        00000 
 4.69034e-02  6.29873e-01        00000 
 4.75646e-02  6.11303e-01        00000 
 4.87801e-02  5.92834e-01        00000 
 4.92800e-02  5.73895e-01        00000 
 4.86976e-02  5.53283e-01        00000 
 4.89709e-02  5.34381e-01        00000 
 4.99151e-02  5.17733e-01        00000 
 5.08007e-02  5.01968e-01        00000 
 5.10292e-02  4.85493e-01        00000 
 4.97630e-02  4.66505e-01        00000 
 4.81565e-02  4.47879e-01        00000 
 4.64248e-02  4.30288e-01        00000 
 4.44811e-02  4.12675e-01        00000 
 4.28204e-02  3.95621e-01        00000 
 4.13335e-02  3.79025e-01        00000 
 4.05784e-02  3.63473e-01        00000 
 3.90964e-02  3.45269e-01        00000 
 3.75177e-02  3.26965e-01        00000 
 3.69083e-02  3.07813e-01        00000 
 3.61541e-02  2.88396e-01        00000 
 3.60237e-02  2.68950e-01        00000 
 3.71790e-02  2.51584e-01        00000 
 3.77240e-02  2.34256e-01        00000 
 3.64425e-02  2.15884e-01        00000 
 3.52725e-02  1.96631e-01        00000 
 3.52002e-02  1.79979e-01        00000 
 3.36636e-02  1.61247e-01        00000 
 3.17660e-02  1.45436e-01        00000 
 2.89844e-02  1.28647e-01        00000 
 2.59943e-02  1.11726e-01        00000 
 2.26486e-02  9.40126e-02        00000 
 2.06366e-02  7.81347e-02        00000 
 1.92742e-02  6.39858e-02        00000 
 1.76806e-02  4.82648e-02        00000 
 1.28885e-02  3.20833e-02        00000 
 7.41660e-03  1.44221e-02        00000 
 1.76282e-03  1.70087e-03        00000 
 4.16155e-03  8.21333e-01        00000 
 9.53424e-03  8.07171e-01        00000 
 1.50551e-02  7.90821e-01        00000 
 1.97429e-02  7.76332e-01        00000 
 2.57969e-02  7.62591e-01        00000 
 3.04987e-02  7.46834e-01        00000 
 3.50198e-02  7.32461e-01        00000 
 3.87016e-02  7.18238e-01        00000 
 4.18996e-02  7.03132e-01        00000 
 4.54299e-02  6.90595e-01        00000 
 4.74899e-02  6.73196e-01        00000 
 4.91605e-02  6.55480e-01        00000 
 5.01138e-02  6.36800e-01        00000 
 5.15703e-02  6.17487e-01        00000 
 5.29257e-02  5.98402e-01        00000 
 5.40984e-02  5.80267e-01        00000 
 5.49404e-02  5.64059e-01        00000 
 5.51506e-02  5.47118e-01        00000 
 5.38448e-02  5.27438e-01        00000 
 5.40483e-02  5.09972e-01        00000 
 5.42920e-02  4.93005e-01        00000 
 5.45454e-02  4.76908e-01        00000 
 5.29216e-02  4.58425e-01        00000 
 5.15952e-02  4.39698e-01        00000 
 4.99998e-02  4.22446e-01        00000 
 4.83238e-02  4.06052e-01        00000 
 4.64665e-02  3.88835e-01        00000 
 4.50241e-02  3.71235e-01        00000 
 4.37785e-02  3.54753e-01        00000 
 4.30734e-02  3.38193e-01        00000 
 4.16041e-02  3.19432e-01        00000 
 4.05610e-02  3.01175e-01        00000 
 3.98920e-02  2.82207e-01        00000 
 3.95468e-02  2.63704e-01        00000 
 3.99297e-02  2.45010e-01        00000 
 3.91606e-02  2.24833e-01        00000 
 3.83238e-02  2.06474e-01        00000 
 3.78341e-02  1.89409e-01        00000 
 3.70939e-02  1.71866e-01        00000 
 3.63545e-02  1.57078e-01        00000 
 3.49440e-02  1.42363e-01        00000 
 3.16839e-02  1.24555e-01        00000 
 2.83695e-02  1.08009e-01        00000 
 2.52070e-02  9.10938e-02        00000 
 2.34718e-02  7.72909e-02        00000 
 2.19394e-02  6.30965e-02        00000 
 1.82226e-02  4.85089e-02        00000 