<?xml version="1.0" encoding="utf-8"?>
<VTKFile byte_order="LittleEndian" type="UnstructuredGrid" version="0.1">
   <UnstructuredGrid>
      <Piece NumberOfCells="9064" NumberOfPoints="4760">
         <Points>
            <DataArray Name="Points" NumberOfComponents="3" format="ascii" type="Float32">
-1.0000 -0.9592 0.0000
-1.0000 -0.9184 0.0000
-1.0000 -0.8776 0.0000
-1.0000 -0.8367 0.0000
-1.0000 -0.7959 0.0000
-1.0000 -0.7551 0.0000
-1.0000 -0.7143 0.0000
-1.0000 -0.6735 0.0000
-1.0000 -0.6327 0.0000
-1.0000 -0.5918 0.0000
-1.0000 -0.5510 0.0000
-1.0000 -0.5102 0.0000
-1.0000 -0.4694 0.0000
-1.0000 -0.4286 0.0000
-1.0000 -0.3878 0.0000
-1.0000 -0.3469 0.0000
-1.0000 -0.3061 0.0000
-1.0000 -0.2653 0.0000
-1.0000 -0.2245 0.0000
-1.0000 -0.1837 0.0000
-1.0000 -0.1429 0.0000
-1.0000 -0.1020 0.0000
-1.0000 -0.0612 0.0000
-1.0000 -0.0204 0.0000
-1.0000 0.0204 0.0000
-1.0000 0.0612 0.0000
-1.0000 0.1020 0.0000
-1.0000 0.1429 0.0000
-1.0000 0.1837 0.0000
-1.0000 0.2245 0.0000
-1.0000 0.2653 0.0000
-1.0000 0.3061 0.0000
-1.0000 0.3469 0.0000
-1.0000 0.3878 0.0000
-1.0000 0.4286 0.0000
-1.0000 0.4694 0.0000
-1.0000 0.5102 0.0000
-1.0000 0.5510 0.0000
-1.0000 0.5918 0.0000
-1.0000 0.6327 0.0000
-1.0000 0.6735 0.0000
-1.0000 0.7143 0.0000
-1.0000 0.7551 0.0000
-1.0000 0.7959 0.0000
-1.0000 0.8367 0.0000
-1.0000 0.8776 0.0000
-1.0000 0.9184 0.0000
-1.0000 0.9592 0.0000
-1.0000 1.0000 0.0000
-0.9592 -0.9592 0.0000
-0.9592 -0.9184 0.0000
-0.9592 -0.8776 0.0000
-0.9592 -0.8367 0.0000
-0.9592 -0.7959 0.0000
-0.9592 -0.7551 0.0000
-0.9592 -0.7143 0.0000
-0.9592 -0.6735 0.0000
-0.9592 -0.6327 0.0000
-0.9592 -0.5918 0.0000
-0.9592 -0.5510 0.0000
-0.9592 -0.5102 0.0000
-0.9592 -0.4694 0.0000
-0.9592 -0.4286 0.0000
-0.9592 -0.3878 0.0000
-0.9592 -0.3469 0.0000
-0.9592 -0.3061 0.0000
-0.9592 -0.2653 0.0000
-0.9592 -0.2245 0.0000
-0.9592 -0.1837 0.0000
-0.9592 -0.1429 0.0000
-0.9592 -0.1020 0.0000
-0.9592 -0.0612 0.0000
-0.9592 -0.0204 0.0000
-0.9592 0.0204 0.0000
-0.9592 0.0612 0.0000
-0.9592 0.1020 0.0000
-0.9592 0.1429 0.0000
-0.9592 0.1837 0.0000
-0.9592 0.2245 0.0000
-0.9592 0.2653 0.0000
-0.9592 0.3061 0.0000
-0.9592 0.3469 0.0000
-0.9592 0.3878 0.0000
-0.9592 0.4286 0.0000
-0.9592 0.4694 0.0000
-0.9592 0.5102 0.0000
-0.9592 0.5510 0.0000
-0.9592 0.5918 0.0000
-0.9592 0.6327 0.0000
-0.9592 0.6735 0.0000
-0.9592 0.7143 0.0000
-0.9592 0.7551 0.0000
-0.9592 0.7959 0.0000
-0.9592 0.8367 0.0000
-0.9592 0.8776 0.0000
-0.9592 0.9184 0.0000
-0.9592 0.9592 0.0000
-0.9592 1.0000 0.0000
-0.9184 -0.9592 0.0000
-0.9184 -0.9184 0.0000
-0.9184 -0.8776 0.0000
-0.9184 -0.8367 0.0000
-0.9184 -0.7959 0.0000
-0.9184 -0.7551 0.0000
-0.9184 -0.7143 0.0000
-0.9184 -0.6735 0.0000
-0.9184 -0.6327 0.0000
-0.9184 -0.5918 0.0000
-0.9184 -0.5510 0.0000
-0.9184 -0.5102 0.0000
-0.9184 -0.4694 0.0000
-0.9184 -0.4286 0.0000
-0.9184 -0.3878 0.0000
-0.9184 -0.3469 0.0000
-0.9184 -0.3061 0.0000
-0.9184 -0.2653 0.0000
-0.9184 -0.2245 0.0000
-0.9184 -0.1837 0.0000
-0.9184 -0.1429 0.0000
-0.9184 -0.1020 0.0000
-0.9184 -0.0612 0.0000
-0.9184 -0.0204 0.0000
-0.9184 0.0204 0.0000
-0.9184 0.0612 0.0000
-0.9184 0.1020 0.0000
-0.9184 0.1429 0.0000
-0.9184 0.1837 0.0000
-0.9184 0.2245 0.0000
-0.9184 0.2653 0.0000
-0.9184 0.3061 0.0000
-0.9184 0.3469 0.0000
-0.9184 0.3878 0.0000
-0.9184 0.4286 0.0000
-0.9184 0.4694 0.0000
-0.9184 0.5102 0.0000
-0.9184 0.5510 0.0000
-0.9184 0.5918 0.0000
-0.9184 0.6327 0.0000
-0.9184 0.6735 0.0000
-0.9184 0.7143 0.0000
-0.9184 0.7551 0.0000
-0.9184 0.7959 0.0000
-0.9184 0.8367 0.0000
-0.9184 0.8776 0.0000
-0.9184 0.9184 0.0000
-0.9184 0.9592 0.0000
-0.9184 1.0000 0.0000
-0.8776 -0.9592 0.0000
-0.8776 -0.9184 0.0000
-0.8776 -0.8776 0.0000
-0.8776 -0.8367 0.0000
-0.8776 -0.7959 0.0000
-0.8776 -0.7551 0.0000
-0.8776 -0.7143 0.0000
-0.8776 -0.6735 0.0000
-0.8776 -0.6327 0.0000
-0.8776 -0.5918 0.0000
-0.8776 -0.5510 0.0000
-0.8776 -0.5102 0.0000
-0.8776 -0.4694 0.0000
-0.8776 -0.4286 0.0000
-0.8776 -0.3878 0.0000
-0.8776 -0.3469 0.0000
-0.8776 -0.3061 0.0000
-0.8776 -0.2653 0.0000
-0.8776 -0.2245 0.0000
-0.8776 -0.1837 0.0000
-0.8776 -0.1429 0.0000
-0.8776 -0.1020 0.0000
-0.8776 -0.0612 0.0000
-0.8776 -0.0204 0.0000
-0.8776 0.0204 0.0000
-0.8776 0.0612 0.0000
-0.8776 0.1020 0.0000
-0.8776 0.1429 0.0000
-0.8776 0.1837 0.0000
-0.8776 0.2245 0.0000
-0.8776 0.2653 0.0000
-0.8776 0.3061 0.0000
-0.8776 0.3469 0.0000
-0.8776 0.3878 0.0000
-0.8776 0.4286 0.0000
-0.8776 0.4694 0.0000
-0.8776 0.5102 0.0000
-0.8776 0.5510 0.0000
-0.8776 0.5918 0.0000
-0.8776 0.6327 0.0000
-0.8776 0.6735 0.0000
-0.8776 0.7143 0.0000
-0.8776 0.7551 0.0000
-0.8776 0.7959 0.0000
-0.8776 0.8367 0.0000
-0.8776 0.8776 0.0000
-0.8776 0.9184 0.0000
-0.8776 0.9592 0.0000
-0.8776 1.0000 0.0000
-0.8367 -0.9592 0.0000
-0.8367 -0.9184 0.0000
-0.8367 -0.8776 0.0000
-0.8367 -0.8367 0.0000
-0.8367 -0.7959 0.0000
-0.8367 -0.7551 0.0000
-0.8367 -0.7143 0.0000
-0.8367 -0.6735 0.0000
-0.8367 -0.6327 0.0000
-0.8367 -0.5918 0.0000
-0.8367 -0.5510 0.0000
-0.8367 -0.5102 0.0000
-0.8367 -0.4694 0.0000
-0.8367 -0.4286 0.0000
-0.8367 -0.3878 0.0000
-0.8367 -0.3469 0.0000
-0.8367 -0.3061 0.0000
-0.8367 -0.2653 0.0000
-0.8367 -0.2245 0.0000
-0.8367 -0.1837 0.0000
-0.8367 -0.1429 0.0000
-0.8367 -0.1020 0.0000
-0.8367 -0.0612 0.0000
-0.8367 -0.0204 0.0000
-0.8367 0.0204 0.0000
-0.8367 0.0612 0.0000
-0.8367 0.1020 0.0000
-0.8367 0.1429 0.0000
-0.8367 0.1837 0.0000
-0.8367 0.2245 0.0000
-0.8367 0.2653 0.0000
-0.8367 0.3061 0.0000
-0.8367 0.3469 0.0000
-0.8367 0.3878 0.0000
-0.8367 0.4286 0.0000
-0.8367 0.4694 0.0000
-0.8367 0.5102 0.0000
-0.8367 0.5510 0.0000
-0.8367 0.5918 0.0000
-0.8367 0.6327 0.0000
-0.8367 0.6735 0.0000
-0.8367 0.7143 0.0000
-0.8367 0.7551 0.0000
-0.8367 0.7959 0.0000
-0.8367 0.8367 0.0000
-0.8367 0.8776 0.0000
-0.8367 0.9184 0.0000
-0.8367 0.9592 0.0000
-0.8367 1.0000 0.0000
-0.7959 -0.9592 0.0000
-0.7959 -0.9184 0.0000
-0.7959 -0.8776 0.0000
-0.7959 -0.8367 0.0000
-0.7959 -0.7959 0.0000
-0.7959 -0.7551 0.0000
-0.7959 -0.7143 0.0000
-0.7959 -0.6735 0.0000
-0.7959 -0.6327 0.0000
-0.7959 -0.5918 0.0000
-0.7959 -0.5510 0.0000
-0.7959 -0.5102 0.0000
-0.7959 -0.4694 0.0000
-0.7959 -0.4286 0.0000
-0.7959 -0.3878 0.0000
-0.7959 -0.3469 0.0000
-0.7959 -0.3061 0.0000
-0.7959 -0.2653 0.0000
-0.7959 -0.2245 0.0000
-0.7959 -0.1837 0.0000
-0.7959 -0.1429 0.0000
-0.7959 -0.1020 0.0000
-0.7959 -0.0612 0.0000
-0.7959 -0.0204 0.0000
-0.7959 0.0204 0.0000
-0.7959 0.0612 0.0000
-0.7959 0.1020 0.0000
-0.7959 0.1429 0.0000
-0.7959 0.1837 0.0000
-0.7959 0.2245 0.0000
-0.7959 0.2653 0.0000
-0.7959 0.3061 0.0000
-0.7959 0.3469 0.0000
-0.7959 0.3878 0.0000
-0.7959 0.4286 0.0000
-0.7959 0.4694 0.0000
-0.7959 0.5102 0.0000
-0.7959 0.5510 0.0000
-0.7959 0.5918 0.0000
-0.7959 0.6327 0.0000
-0.7959 0.6735 0.0000
-0.7959 0.7143 0.0000
-0.7959 0.7551 0.0000
-0.7959 0.7959 0.0000
-0.7959 0.8367 0.0000
-0.7959 0.8776 0.0000
-0.7959 0.9184 0.0000
-0.7959 0.9592 0.0000
-0.7959 1.0000 0.0000
-0.7551 -0.9592 0.0000
-0.7551 -0.9184 0.0000
-0.7551 -0.8776 0.0000
-0.7551 -0.8367 0.0000
-0.7551 -0.7959 0.0000
-0.7551 -0.7551 0.0000
-0.7551 -0.7143 0.0000
-0.7551 -0.6735 0.0000
-0.7551 -0.6327 0.0000
-0.7551 -0.5918 0.0000
-0.7551 -0.5510 0.0000
-0.7551 -0.5102 0.0000
-0.7551 -0.4694 0.0000
-0.7551 -0.4286 0.0000
-0.7551 -0.3878 0.0000
-0.7551 -0.3469 0.0000
-0.7551 -0.3061 0.0000
-0.7551 -0.2653 0.0000
-0.7551 -0.2245 0.0000
-0.7551 -0.1837 0.0000
-0.7551 -0.1429 0.0000
-0.7551 -0.1020 0.0000
-0.7551 -0.0612 0.0000
-0.7551 -0.0204 0.0000
-0.7551 0.0204 0.0000
-0.7551 0.0612 0.0000
-0.7551 0.1020 0.0000
-0.7551 0.1429 0.0000
-0.7551 0.1837 0.0000
-0.7551 0.2245 0.0000
-0.7551 0.2653 0.0000
-0.7551 0.3061 0.0000
-0.7551 0.3469 0.0000
-0.7551 0.3878 0.0000
-0.7551 0.4286 0.0000
-0.7551 0.4694 0.0000
-0.7551 0.5102 0.0000
-0.7551 0.5510 0.0000
-0.7551 0.5918 0.0000
-0.7551 0.6327 0.0000
-0.7551 0.6735 0.0000
-0.7551 0.7143 0.0000
-0.7551 0.7551 0.0000
-0.7551 0.7959 0.0000
-0.7551 0.8367 0.0000
-0.7551 0.8776 0.0000
-0.7551 0.9184 0.0000
-0.7551 0.9592 0.0000
-0.7551 1.0000 0.0000
-0.7143 -0.9592 0.0000
-0.7143 -0.9184 0.0000
-0.7143 -0.8776 0.0000
-0.7143 -0.8367 0.0000
-0.7143 -0.7959 0.0000
-0.7143 -0.7551 0.0000
-0.7143 -0.7143 0.0000
-0.7143 -0.6735 0.0000
-0.7143 -0.6327 0.0000
-0.7143 -0.5918 0.0000
-0.7143 -0.5510 0.0000
-0.7143 -0.5102 0.0000
-0.7143 -0.4694 0.0000
-0.7143 -0.4286 0.0000
-0.7143 -0.3878 0.0000
-0.7143 -0.3469 0.0000
-0.7143 -0.3061 0.0000
-0.7143 -0.2653 0.0000
-0.7143 -0.2245 0.0000
-0.7143 -0.1837 0.0000
-0.7143 -0.1429 0.0000
-0.7143 -0.1020 0.0000
-0.7143 -0.0612 0.0000
-0.7143 -0.0204 0.0000
-0.7143 0.0204 0.0000
-0.7143 0.0612 0.0000
-0.7143 0.1020 0.0000
-0.7143 0.1429 0.0000
-0.7143 0.1837 0.0000
-0.7143 0.2245 0.0000
-0.7143 0.2653 0.0000
-0.7143 0.3061 0.0000
-0.7143 0.3469 0.0000
-0.7143 0.3878 0.0000
-0.7143 0.4286 0.0000
-0.7143 0.4694 0.0000
-0.7143 0.5102 0.0000
-0.7143 0.5510 0.0000
-0.7143 0.5918 0.0000
-0.7143 0.6327 0.0000
-0.7143 0.6735 0.0000
-0.7143 0.7143 0.0000
-0.7143 0.7551 0.0000
-0.7143 0.7959 0.0000
-0.7143 0.8367 0.0000
-0.7143 0.8776 0.0000
-0.7143 0.9184 0.0000
-0.7143 0.9592 0.0000
-0.7143 1.0000 0.0000
-0.6735 -0.9592 0.0000
-0.6735 -0.9184 0.0000
-0.6735 -0.8776 0.0000
-0.6735 -0.8367 0.0000
-0.6735 -0.7959 0.0000
-0.6735 -0.7551 0.0000
-0.6735 -0.7143 0.0000
-0.6735 -0.6735 0.0000
-0.6735 -0.6327 0.0000
-0.6735 -0.5918 0.0000
-0.6735 -0.5510 0.0000
-0.6735 -0.5102 0.0000
-0.6735 -0.4694 0.0000
-0.6735 -0.4286 0.0000
-0.6735 -0.3878 0.0000
-0.6735 -0.3469 0.0000
-0.6735 -0.3061 0.0000
-0.6735 -0.2653 0.0000
-0.6735 -0.2245 0.0000
-0.6735 -0.1837 0.0000
-0.6735 -0.1429 0.0000
-0.6735 -0.1020 0.0000
-0.6735 -0.0612 0.0000
-0.6735 -0.0204 0.0000
-0.6735 0.0204 0.0000
-0.6735 0.0612 0.0000
-0.6735 0.1020 0.0000
-0.6735 0.1429 0.0000
-0.6735 0.1837 0.0000
-0.6735 0.2245 0.0000
-0.6735 0.2653 0.0000
-0.6735 0.3061 0.0000
-0.6735 0.3469 0.0000
-0.6735 0.3878 0.0000
-0.6735 0.4286 0.0000
-0.6735 0.4694 0.0000
-0.6735 0.5102 0.0000
-0.6735 0.5510 0.0000
-0.6735 0.5918 0.0000
[...]
         <PointData>
            <DataArray Name="fValues" NumberOfComponents="3" format="ascii" type="Float64">
-2.12940e-19 -4.80832e-18        00000 
-4.61910e-19  8.69477e-19        00000 
 5.48192e-20  2.19277e-18        00000 
 9.78161e-19 -2.17369e-18        00000 
-1.02416e-20  2.53991e-18        00000 
 4.34738e-19 -4.78212e-18        00000 
-7.29628e-19  3.78793e-18        00000 
 2.71711e-19 -1.08685e-18        00000 
-5.08665e-19 -1.92541e-18        00000 
 8.69477e-19 -3.26054e-18        00000 
 2.86943e-20  2.19191e-18        00000 
-6.52108e-19  1.08685e-18        00000 
-4.84768e-19 -4.09663e-19        00000 
 2.71711e-19  1.73895e-18        00000 
 1.51484e-19  1.10297e-18        00000 
 7.60792e-19  1.08685e-19        00000 
-7.51048e-19 -1.14706e-18        00000 
 9.78161e-19  1.08685e-19        00000 
-3.09685e-18  5.27473e-19        00000 
 3.80396e-19  1.63027e-18        00000 
-9.21741e-19 -1.42016e-18        00000 
 4.89081e-19  2.49975e-18        00000 
-4.41077e-19  1.26838e-18        00000 
 5.43423e-20  4.34738e-19        00000 
-5.59872e-19  1.61817e-18        00000 
-3.80396e-19  1.30422e-18        00000 
-1.15120e-18  1.47069e-18        00000 
-1.63027e-19 -5.43423e-19        00000 
 2.01417e-19  1.11974e-18        00000 
 3.26054e-19 -1.08685e-19        00000 
-2.09179e-18  2.83363e-18        00000 
 2.01066e-18        00000        00000 
-5.18906e-19 -1.39968e-18        00000 
 1.63027e-18  6.52108e-19        00000 
-2.66279e-18  1.01715e-18        00000 
 8.15134e-19 -1.08685e-19        00000 
 4.40387e-19 -2.49211e-19        00000 
 4.89081e-19 -1.41290e-18        00000 
-1.86385e-18  3.06987e-18        00000 
 5.97765e-19 -1.79330e-18        00000 
-4.30146e-19  1.06171e-18        00000 
-8.15134e-20 -1.19553e-18        00000 
-1.66117e-19  8.83315e-19        00000 
 1.08685e-19 -2.71711e-19        00000 
-1.86055e-19  4.54043e-19        00000 
-2.71711e-20 -1.63027e-19        00000 
-1.64469e-19 -5.48230e-20        00000 
 6.85105e-20 -5.48084e-20        00000 
-6.65784e-20  3.19945e-20        00000 
-1.52254e-03  1.93333e-02        00000 
-2.28044e-03  1.83674e-02        00000 
-2.83724e-03  1.76280e-02        00000 
-3.28518e-03  1.70020e-02        00000 
-3.66931e-03  1.64447e-02        00000 
-4.01203e-03  1.59345e-02        00000 
-4.32672e-03  1.54608e-02        00000 
-4.62166e-03  1.50191e-02        00000 
-4.90204e-03  1.46076e-02        00000 
-5.17099e-03  1.42267e-02        00000 
-5.43003e-03  1.38782e-02        00000 
-5.67794e-03  1.35646e-02        00000 
-5.90985e-03  1.32872e-02        00000 
-6.12071e-03  1.30440e-02        00000 
-6.30653e-03  1.28323e-02        00000 
-6.46397e-03  1.26464e-02        00000 
-6.59263e-03  1.24819e-02        00000 
-6.68653e-03  1.23332e-02        00000 
-6.74039e-03  1.21924e-02        00000 
-6.75611e-03  1.20508e-02        00000 
-6.73148e-03  1.19028e-02        00000 
-6.66637e-03  1.17411e-02        00000 
-6.56474e-03  1.15600e-02        00000 
-6.42921e-03  1.13530e-02        00000 
-6.26442e-03  1.11148e-02        00000 
-6.07591e-03  1.08411e-02        00000 
-5.86974e-03  1.05297e-02        00000 
-5.65263e-03  1.01809e-02        00000 
-5.43053e-03  9.79743e-03        00000 
-5.20889e-03  9.38386e-03        00000 
-4.99205e-03  8.94620e-03        00000 
-4.78311e-03  8.49121e-03        00000 
-4.58393e-03  8.02585e-03        00000 
-4.39511e-03  7.55672e-03        00000 
-4.21616e-03  7.08959e-03        00000 
-4.04563e-03  6.62914e-03        00000 
-3.88131e-03  6.17870e-03        00000 
-3.72040e-03  5.74020e-03        00000 
-3.55961e-03  5.31411e-03        00000 
-3.39526e-03  4.89941e-03        00000 
-3.22331e-03  4.49366e-03        00000 
-3.03917e-03  4.09286e-03        00000 
-2.83741e-03  3.69124e-03        00000 
-2.61108e-03  3.28064e-03        00000 
-2.35030e-03  2.84911e-03        00000 
-2.03908e-03  2.37740e-03        00000 
-1.64521e-03  1.83003e-03        00000 
-1.10212e-03  1.12306e-03        00000 
 5.40268e-20  7.06068e-20        00000 
-2.44645e-03  3.94039e-02        00000 
-4.06566e-03  3.75100e-02        00000 
-5.23952e-03  3.59764e-02        00000 
-6.18133e-03  3.46646e-02        00000 
-6.98240e-03  3.34983e-02        00000 
-7.69337e-03  3.24354e-02        00000 
-8.34449e-03  3.14533e-02        00000 
-8.95471e-03  3.05405e-02        00000 
-9.53548e-03  2.96921e-02        00000 
-1.00936e-02  2.89063e-02        00000 
-1.06334e-02  2.81838e-02        00000 
-1.11538e-02  2.75276e-02        00000 
-1.16426e-02  2.69397e-02        00000 
-1.20839e-02  2.64161e-02        00000 
-1.24762e-02  2.59458e-02        00000 
-1.28066e-02  2.55316e-02        00000 
-1.30728e-02  2.51518e-02        00000 
-1.32675e-02  2.47903e-02        00000 
-1.33012e-02  2.43694e-02        00000 
-1.33226e-02  2.39901e-02        00000 
-1.32644e-02  2.36093e-02        00000 
-1.30417e-02  2.31655e-02        00000 
-1.27960e-02  2.27057e-02        00000 
-1.24962e-02  2.22279e-02        00000 
-1.21500e-02  2.17202e-02        00000 
-1.17822e-02  2.11791e-02        00000 
-1.13592e-02  2.05659e-02        00000 
-1.09785e-02  1.99153e-02        00000 
-1.05359e-02  1.91626e-02        00000 
-1.00832e-02  1.83487e-02        00000 
-9.68267e-03  1.75045e-02        00000 
-9.25648e-03  1.65971e-02        00000 
-8.85423e-03  1.56719e-02        00000 
-8.47673e-03  1.47411e-02        00000 
-8.12235e-03  1.38149e-02        00000 
-7.78738e-03  1.29014e-02        00000 
-7.46645e-03  1.20061e-02        00000 
-7.15297e-03  1.11319e-02        00000 
-6.83942e-03  1.02790e-02        00000 
-6.51751e-03  9.44451e-03        00000 
-6.17820e-03  8.62292e-03        00000 
-5.81130e-03  7.80554e-03        00000 
-5.40484e-03  6.98005e-03        00000 
-4.94340e-03  6.12924e-03        00000 
-4.40504e-03  5.22849e-03        00000 
-3.75409e-03  4.24037e-03        00000 
-2.92590e-03  3.10391e-03        00000 
-1.76703e-03  1.71449e-03        00000 
-2.05408e-19  2.59228e-19        00000 
-3.11680e-03  5.96619e-02        00000 
-5.44420e-03  5.70707e-02        00000 
-7.23769e-03  5.48204e-02        00000 
-8.69329e-03  5.28382e-02        00000 
-9.93435e-03  5.10544e-02        00000 
-1.10349e-02  4.94214e-02        00000 
-1.20423e-02  4.79100e-02        00000 
-1.29876e-02  4.65043e-02        00000 
-1.38890e-02  4.51973e-02        00000 
-1.47557e-02  4.39860e-02        00000 
-1.55955e-02  4.28680e-02        00000 
-1.64127e-02  4.18437e-02        00000 
-1.71838e-02  4.09139e-02        00000 
-1.78729e-02  4.00688e-02        00000 
-1.84857e-02  3.93146e-02        00000 
-1.89116e-02  3.85030e-02        00000 
-1.92319e-02  3.77233e-02        00000 
-1.94484e-02  3.69703e-02        00000 
-1.95242e-02  3.62169e-02        00000 
-1.95431e-02  3.55377e-02        00000 
-1.94347e-02  3.48729e-02        00000 
-1.91663e-02  3.41994e-02        00000 
-1.88011e-02  3.35149e-02        00000 
-1.83401e-02  3.27754e-02        00000 
-1.77972e-02  3.19738e-02        00000 
-1.71881e-02  3.10902e-02        00000 
-1.65322e-02  3.01288e-02        00000 
-1.58607e-02  2.90736e-02        00000 
-1.51766e-02  2.79413e-02        00000 
-1.44975e-02  2.67436e-02        00000 
-1.38959e-02  2.55155e-02        00000 
-1.33400e-02  2.42464e-02        00000 
-1.27560e-02  2.28966e-02        00000 
-1.22437e-02  2.15496e-02        00000 
-1.17188e-02  2.01675e-02        00000 
-1.12264e-02  1.88052e-02        00000 
-1.07569e-02  1.74696e-02        00000 
-1.02992e-02  1.61636e-02        00000 
-9.84060e-03  1.48862e-02        00000 
-9.36728e-03  1.36325e-02        00000 
-8.86444e-03  1.23932e-02        00000 
-8.31559e-03  1.11551e-02        00000 
-7.70149e-03  9.89992e-03        00000 
-6.99785e-03  8.60312e-03        00000 
-6.17095e-03  7.23193e-03        00000 
-5.16946e-03  5.74193e-03        00000 
-3.90718e-03  4.07427e-03        00000 
-2.24519e-03  2.17027e-03        00000 
 3.32302e-19  1.45642e-19        00000 
-3.64551e-03  8.00222e-02        00000 
-6.55191e-03  7.68506e-02        00000 
-8.90136e-03  7.39839e-02        00000 
-1.08564e-02  7.13840e-02        00000 
-1.25403e-02  6.90048e-02        00000 
-1.40400e-02  6.68061e-02        00000 
-1.54164e-02  6.47593e-02        00000 
-1.67119e-02  6.28477e-02        00000 
-1.79533e-02  6.10645e-02        00000 
-1.91486e-02  5.94098e-02        00000 
-2.03058e-02  5.78837e-02        00000 
-2.14504e-02  5.64919e-02        00000 
-2.25183e-02  5.51997e-02        00000 
-2.33734e-02  5.38748e-02        00000 
-2.40313e-02  5.25013e-02        00000 
-2.45868e-02  5.12222e-02        00000 
-2.50568e-02  5.00556e-02        00000 
-2.53946e-02  4.89846e-02        00000 
-2.56899e-02  4.80964e-02        00000 
-2.57500e-02  4.72090e-02        00000 
-2.56735e-02  4.63541e-02        00000 
-2.53758e-02  4.54591e-02        00000 
-2.48855e-02  4.45144e-02        00000 
-2.42337e-02  4.34671e-02        00000 
-2.34538e-02  4.23075e-02        00000 
-2.25553e-02  4.10149e-02        00000 
-2.16106e-02  3.96107e-02        00000 
-2.05894e-02  3.80686e-02        00000 
-1.95960e-02  3.64610e-02        00000 
-1.86593e-02  3.47890e-02        00000 
-1.77340e-02  3.30398e-02        00000 
-1.69289e-02  3.12945e-02        00000 
-1.61793e-02  2.95430e-02        00000 
-1.55313e-02  2.78113e-02        00000 
-1.49509e-02  2.60900e-02        00000 
-1.43625e-02  2.43315e-02        00000 
-1.37548e-02  2.25609e-02        00000 
-1.31628e-02  2.08293e-02        00000 
-1.25680e-02  1.91343e-02        00000 
-1.19507e-02  1.74681e-02        00000 
-1.12895e-02  1.58181e-02        00000 
-1.05615e-02  1.41669e-02        00000 
-9.74037e-03  1.24916e-02        00000 
-8.79409e-03  1.07636e-02        00000 
-7.68058e-03  8.94727e-03        00000 
-6.34086e-03  7.00082e-03        00000 
-4.69107e-03  4.88014e-03        00000 
-2.61960e-03  2.55000e-03        00000 
 2.92927e-19 -1.37008e-19        00000 
-4.07840e-03  1.00444e-01        00000 
-7.46538e-03  9.67678e-02        00000 
-1.03000e-02  9.33578e-02        00000 
-1.27160e-02  9.01967e-02        00000 
-1.48266e-02  8.72567e-02        00000 
-1.67217e-02  8.45096e-02        00000 
-1.84697e-02  8.19330e-02        00000 
-2.01228e-02  7.95125e-02        00000 
-2.17189e-02  7.72411e-02        00000 
-2.32635e-02  7.51171e-02        00000 
-2.47387e-02  7.31405e-02        00000 
-2.61662e-02  7.12640e-02        00000 
-2.73511e-02  6.93195e-02        00000 
-2.83618e-02  6.74233e-02        00000 
-2.92515e-02  6.56512e-02        00000 
-3.01559e-02  6.41137e-02        00000 
-3.08434e-02  6.26838e-02        00000 
-3.14849e-02  6.14702e-02        00000 
-3.18961e-02  6.03102e-02        00000 
-3.20339e-02  5.91740e-02        00000 
-3.18776e-02  5.79999e-02        00000 
-3.14668e-02  5.67702e-02        00000 
-3.08113e-02  5.54583e-02        00000 
-2.99377e-02  5.40430e-02        00000 
-2.88862e-02  5.24943e-02        00000 
-2.77023e-02  5.08033e-02        00000 
-2.64434e-02  4.89726e-02        00000 
-2.51630e-02  4.70221e-02        00000 
-2.38629e-02  4.49051e-02        00000 
-2.26211e-02  4.27005e-02        00000 
-2.14122e-02  4.04169e-02        00000 
-2.03061e-02  3.81106e-02        00000 
-1.93455e-02  3.58411e-02        00000 
-1.84499e-02  3.35795e-02        00000 
-1.77100e-02  3.14146e-02        00000 
-1.70399e-02  2.93039e-02        00000 
-1.64143e-02  2.72262e-02        00000 
-1.57501e-02  2.51263e-02        00000 
-1.50309e-02  2.30256e-02        00000 
-1.42794e-02  2.09604e-02        00000 
-1.34680e-02  1.89151e-02        00000 
-1.25674e-02  1.68685e-02        00000 
-1.15451e-02  1.47948e-02        00000 
-1.03638e-02  1.26636e-02        00000 
-8.97714e-03  1.04404e-02        00000 
-7.32672e-03  8.08907e-03        00000 
-5.33881e-03  5.57668e-03        00000 
-2.92658e-03  2.88132e-03        00000 
-2.38293e-19 -3.70610e-19        00000 
-4.43855e-03  1.20909e-01        00000 
-8.22856e-03  1.16779e-01        00000 
-1.14828e-02  1.12879e-01        00000 
-1.43134e-02  1.09204e-01        00000 
-1.68220e-02  1.05738e-01        00000 
-1.90964e-02  1.02464e-01        00000 
-2.12097e-02  9.93687e-02        00000 
-2.32203e-02  9.64437e-02        00000 
-2.51854e-02  9.36970e-02        00000 
-2.70987e-02  9.11150e-02        00000 
-2.87894e-02  8.85185e-02        00000 
-3.03811e-02  8.59677e-02        00000 
-3.18364e-02  8.35321e-02        00000 
-3.32046e-02  8.12881e-02        00000 
-3.45092e-02  7.92790e-02        00000 
-3.57049e-02  7.74476e-02        00000 
-3.67209e-02  7.57643e-02        00000 
-3.74542e-02  7.41321e-02        00000 
-3.79531e-02  7.25908e-02        00000 
-3.81144e-02  7.10837e-02        00000 
-3.79136e-02  6.95634e-02        00000 
-3.73852e-02  6.79756e-02        00000 
-3.65394e-02  6.62924e-02        00000 
-3.54166e-02  6.44760e-02        00000 
-3.40672e-02  6.25015e-02        00000 
-3.25573e-02  6.03540e-02        00000 
-3.09615e-02  5.80438e-02        00000 
-2.93360e-02  5.55756e-02        00000 
-2.77222e-02  5.29610e-02        00000 
-2.61799e-02  5.02467e-02        00000 
-2.47409e-02  4.74800e-02        00000 
-2.34487e-02  4.46922e-02        00000 
-2.22449e-02  4.18597e-02        00000 
-2.11450e-02  3.90729e-02        00000 
-2.02370e-02  3.64078e-02        00000 
-1.93864e-02  3.38096e-02        00000 
-1.86819e-02  3.13692e-02        00000 
-1.80165e-02  2.89942e-02        00000 
-1.72430e-02  2.65642e-02        00000 
-1.63709e-02  2.41203e-02        00000 
-1.54210e-02  2.17021e-02        00000 
-1.43584e-02  1.92857e-02        00000 
-1.31460e-02  1.68434e-02        00000 
-1.17433e-02  1.43442e-02        00000 
-1.01037e-02  1.17558e-02        00000 
-8.17319e-03  9.04714e-03        00000 
-5.88986e-03  6.19251e-03        00000 
-3.18705e-03  3.17686e-03        00000 
 3.49723e-19  3.01420e-19        00000 
-4.73875e-03  1.41406e-01        00000 
-8.86759e-03  1.36859e-01        00000 
-1.24825e-02  1.32509e-01        00000 
-1.56802e-02  1.28357e-01        00000 
-1.85514e-02  1.24396e-01        00000 
-2.11789e-02  1.20617e-01        00000 
-2.36420e-02  1.17010e-01        00000 
-2.60018e-02  1.13577e-01        00000 
-2.83342e-02  1.10311e-01        00000 
-3.04701e-02  1.07077e-01        00000 
-3.24531e-02  1.03926e-01        00000 
-3.42907e-02  1.00881e-01        00000 
-3.61954e-02  9.81326e-02        00000 
-3.79847e-02  9.55373e-02        00000 
-3.96201e-02  9.31148e-02        00000 
-4.10792e-02  9.09045e-02        00000 
-4.23213e-02  8.87867e-02        00000 
-4.32500e-02  8.67900e-02        00000 
-4.38787e-02  8.48951e-02        00000 
-4.40931e-02  8.30382e-02        00000 
-4.38286e-02  8.11513e-02        00000 
-4.31578e-02  7.91763e-02        00000 
-4.20901e-02  7.70708e-02        00000 
-4.06774e-02  7.48112e-02        00000 
-3.89877e-02  7.23571e-02        00000 
-3.71107e-02  6.97079e-02        00000 
-3.51420e-02  6.68718e-02        00000 
-3.31613e-02  6.38724e-02        00000 
-3.12065e-02  6.06839e-02        00000 
-2.93461e-02  5.73977e-02        00000 
-2.76596e-02  5.40991e-02        00000 
-2.61469e-02  5.07879e-02        00000 
-2.47881e-02  4.75008e-02        00000 
-2.36049e-02  4.42763e-02        00000 
-2.25127e-02  4.10710e-02        00000 
-2.15242e-02  3.79849e-02        00000 
-2.06577e-02  3.50515e-02        00000 
-1.98843e-02  3.22809e-02        00000 
-1.90802e-02  2.95941e-02        00000 
-1.82465e-02  2.69575e-02        00000 
-1.71742e-02  2.41963e-02        00000 
-1.59640e-02  2.14415e-02        00000 
-1.45764e-02  1.86650e-02        00000 
-1.29696e-02  1.58358e-02        00000 
-1.10991e-02  1.29233e-02        00000 
-8.91677e-03  9.89980e-03        00000 
-6.37227e-03  6.74395e-03        00000 
-3.41524e-03  3.44388e-03        00000 
 3.58974e-19 -4.12043e-19        00000 
-4.98672e-03  1.61928e-01        00000 
-9.39875e-03  1.56995e-01        00000 
-1.33207e-02  1.52226e-01        00000 
-1.68388e-02  1.47625e-01        00000 
-2.00345e-02  1.43193e-01        00000 
-2.29816e-02  1.38927e-01        00000 
-2.57667e-02  1.34824e-01        00000 
-2.84783e-02  1.30866e-01        00000 
-3.11202e-02  1.27040e-01        00000 
-3.35306e-02  1.23302e-01        00000 
-3.58743e-02  1.19718e-01        00000 
-3.81052e-02  1.16308e-01        00000 
-4.03875e-02  1.13100e-01        00000 
-4.24814e-02  1.10014e-01        00000 
-4.44702e-02  1.07134e-01        00000 
-4.62290e-02  1.04408e-01        00000 
-4.77713e-02  1.01913e-01        00000 
-4.89165e-02  9.95264e-02        00000 
-4.96705e-02  9.72374e-02        00000 
-4.99129e-02  9.49849e-02        00000 
-4.95491e-02  9.26672e-02        00000 
-4.86913e-02  9.02419e-02        00000 
-4.73598e-02  8.76595e-02        00000 
-4.56092e-02  8.48955e-02        00000 
-4.35313e-02  8.19172e-02        00000 
-4.12432e-02  7.87189e-02        00000 
-3.88750e-02  7.53236e-02        00000 
-3.65273e-02  7.17748e-02        00000 
-3.42292e-02  6.79931e-02        00000 
-3.20868e-02  6.41485e-02        00000 
-3.01602e-02  6.02870e-02        00000 
-2.84634e-02  5.64482e-02        00000 
-2.69455e-02  5.26404e-02        00000 
-2.56469e-02  4.89479e-02        00000 
-2.44983e-02  4.53667e-02        00000 
-2.34929e-02  4.19112e-02        00000 
-2.25308e-02  3.85405e-02        00000 
-2.16096e-02  3.53043e-02        00000 
-2.07000e-02  3.22301e-02        00000 
-1.97852e-02  2.92891e-02        00000 
-1.87126e-02  2.63618e-02        00000 
-1.74166e-02  2.33559e-02        00000 
-1.58707e-02  2.02823e-02        00000 
-1.40782e-02  1.71614e-02        00000 
-1.19975e-02  1.39638e-02        00000 
-9.58751e-03  1.06636e-02        00000 
-6.80796e-03  7.24168e-03        00000 
-3.62219e-03  3.68718e-03        00000 
 2.99902e-19  4.43059e-19        00000 
-5.18764e-03  1.82473e-01        00000 
-9.83331e-03  1.77178e-01        00000 
-1.40125e-02  1.72017e-01        00000 
-1.78041e-02  1.66993e-01        00000 
-2.12850e-02  1.62108e-01        00000 
-2.45101e-02  1.57357e-01        00000 
-2.75838e-02  1.52758e-01        00000 
-3.07186e-02  1.48396e-01        00000 
-3.36585e-02  1.44126e-01        00000 
-3.63634e-02  1.39908e-01        00000 
-3.90330e-02  1.35845e-01        00000 
-4.16468e-02  1.31892e-01        00000 
-4.42308e-02  1.28158e-01        00000 
-4.66964e-02  1.24592e-01        00000 
-4.90728e-02  1.21257e-01        00000 
-5.11843e-02  1.18082e-01        00000 
-5.30180e-02  1.15111e-01        00000 
-5.43669e-02  1.12249e-01        00000 
-5.52822e-02  1.09531e-01        00000 
-5.55535e-02  1.06838e-01        00000 
-5.50842e-02  1.04079e-01        00000 
-5.40206e-02  1.01197e-01        00000 
-5.23710e-02  9.81076e-02        00000 
-5.02240e-02  9.47749e-02        00000 
-4.77024e-02  9.12004e-02        00000 
-4.49497e-02  8.73805e-02        00000 
-4.21357e-02  8.33555e-02        00000 
-3.93733e-02  7.91578e-02        00000 
-3.67202e-02  7.47508e-02        00000 
-3.42843e-02  7.02942e-02        00000 
-3.21478e-02  6.58946e-02        00000 
-3.03245e-02  6.15643e-02        00000 
-2.87190e-02  5.72893e-02        00000 
-2.73628e-02  5.31514e-02        00000 
-2.61637e-02  4.91410e-02        00000 
-2.51291e-02  4.53152e-02        00000 
-2.41823e-02  4.16426e-02        00000 
-2.31963e-02  3.80447e-02        00000 
-2.21943e-02  3.45983e-02        00000 
-2.11564e-02  3.13121e-02        00000 
-2.00415e-02  2.81621e-02        00000 
-1.87085e-02  2.49935e-02        00000 
-1.70637e-02  2.17148e-02        00000 
-1.51027e-02  1.83401e-02        00000 
-1.28302e-02  1.48939e-02        00000 
-1.02113e-02  1.13513e-02        00000 
-7.21537e-03  7.69378e-03        00000 
-3.81725e-03  3.91048e-03        00000 
-1.30106e-19 -6.83755e-19        00000 
-5.34546e-03  2.03038e-01        00000 
-1.01805e-02  1.97404e-01        00000 
-1.45713e-02  1.91877e-01        00000 
-1.85885e-02  1.86459e-01        00000 
-2.23174e-02  1.81151e-01        00000 
-2.57842e-02  1.75943e-01        00000 
-2.93295e-02  1.71033e-01        00000 