<?xml version="1.0" encoding="utf-8"?>
<VTKFile byte_order="LittleEndian" type="UnstructuredGrid" version="0.1">
   <UnstructuredGrid>
      <Piece NumberOfCells="720" NumberOfPoints="768">
         <Points>
            <DataArray Name="Points" NumberOfComponents="3" format="ascii" type="Float32">
0.2121 0.2121 0.0000
0.2647 0.2647 0.0000
0.3172 0.3172 0.0000
0.3697 0.3697 0.0000
0.4222 0.4222 0.0000
0.4748 0.4748 0.0000
0.5273 0.5273 0.0000
0.5798 0.5798 0.0000
0.6323 0.6323 0.0000
0.6849 0.6849 0.0000
0.7374 0.7374 0.0000
0.7899 0.7899 0.0000
0.8424 0.8424 0.0000
0.8950 0.8950 0.0000
0.9475 0.9475 0.0000
1.0000 1.0000 0.0000
0.1921 0.2305 0.0000
0.2348 0.2818 0.0000
0.2776 0.3331 0.0000
0.3203 0.3844 0.0000
0.3631 0.4357 0.0000
0.4058 0.4870 0.0000
0.4486 0.5383 0.0000
0.4913 0.5896 0.0000
0.5341 0.6409 0.0000
0.5768 0.6922 0.0000
0.6196 0.7435 0.0000
0.6623 0.7948 0.0000
0.7051 0.8461 0.0000
0.7478 0.8974 0.0000
0.7906 0.9487 0.0000
0.8333 1.0000 0.0000
0.1664 0.2496 0.0000
0.1998 0.2996 0.0000
0.2331 0.3497 0.0000
0.2665 0.3997 0.0000
0.2998 0.4497 0.0000
0.3332 0.4997 0.0000
0.3665 0.5498 0.0000
0.3999 0.5998 0.0000
0.4332 0.6498 0.0000
0.4666 0.6998 0.0000
0.4999 0.7499 0.0000
0.5333 0.7999 0.0000
0.5666 0.8499 0.0000
0.6000 0.8999 0.0000
0.6333 0.9500 0.0000
0.6667 1.0000 0.0000
0.1342 0.2683 0.0000
0.1586 0.3171 0.0000
0.1829 0.3659 0.0000
0.2073 0.4147 0.0000
0.2317 0.4634 0.0000
0.2561 0.5122 0.0000
0.2805 0.5610 0.0000
0.3049 0.6098 0.0000
0.3293 0.6586 0.0000
0.3537 0.7073 0.0000
0.3781 0.7561 0.0000
0.4024 0.8049 0.0000
0.4268 0.8537 0.0000
0.4512 0.9024 0.0000
0.4756 0.9512 0.0000
0.5000 1.0000 0.0000
0.0949 0.2846 0.0000
0.1108 0.3323 0.0000
0.1267 0.3800 0.0000
0.1426 0.4277 0.0000
0.1585 0.4754 0.0000
0.1744 0.5231 0.0000
0.1903 0.5708 0.0000
0.2062 0.6185 0.0000
0.2220 0.6661 0.0000
0.2379 0.7138 0.0000
0.2538 0.7615 0.0000
0.2697 0.8092 0.0000
0.2856 0.8569 0.0000
0.3015 0.9046 0.0000
0.3174 0.9523 0.0000
0.3333 1.0000 0.0000
0.0493 0.2959 0.0000
0.0571 0.3429 0.0000
0.0650 0.3898 0.0000
0.0728 0.4367 0.0000
0.0806 0.4837 0.0000
0.0884 0.5306 0.0000
0.0963 0.5776 0.0000
0.1041 0.6245 0.0000
0.1119 0.6714 0.0000
0.1197 0.7184 0.0000
0.1276 0.7653 0.0000
0.1354 0.8122 0.0000
0.1432 0.8592 0.0000
0.1510 0.9061 0.0000
0.1588 0.9531 0.0000
0.1667 1.0000 0.0000
0.0000 0.3000 0.0000
0.0000 0.3467 0.0000
0.0000 0.3933 0.0000
0.0000 0.4400 0.0000
0.0000 0.4867 0.0000
0.0000 0.5333 0.0000
0.0000 0.5800 0.0000
0.0000 0.6267 0.0000
0.0000 0.6733 0.0000
0.0000 0.7200 0.0000
0.0000 0.7667 0.0000
0.0000 0.8133 0.0000
0.0000 0.8600 0.0000
0.0000 0.9067 0.0000
0.0000 0.9533 0.0000
0.0000 1.0000 0.0000
-0.0493 0.2959 0.0000
-0.0571 0.3429 0.0000
-0.0650 0.3898 0.0000
-0.0728 0.4367 0.0000
-0.0806 0.4837 0.0000
-0.0884 0.5306 0.0000
-0.0963 0.5776 0.0000
-0.1041 0.6245 0.0000
-0.1119 0.6714 0.0000
-0.1197 0.7184 0.0000
-0.1276 0.7653 0.0000
-0.1354 0.8122 0.0000
-0.1432 0.8592 0.0000
-0.1510 0.9061 0.0000
-0.1588 0.9531 0.0000
-0.1667 1.0000 0.0000
-0.0949 0.2846 0.0000
-0.1108 0.3323 0.0000
-0.1267 0.3800 0.0000
-0.1426 0.4277 0.0000
-0.1585 0.4754 0.0000
-0.1744 0.5231 0.0000
-0.1903 0.5708 0.0000
-0.2062 0.6185 0.0000
-0.2220 0.6661 0.0000
-0.2379 0.7138 0.0000
-0.2538 0.7615 0.0000
-0.2697 0.8092 0.0000
-0.2856 0.8569 0.0000
-0.3015 0.9046 0.0000
-0.3174 0.9523 0.0000
-0.3333 1.0000 0.0000
-0.1342 0.2683 0.0000
-0.1586 0.3171 0.0000
-0.1829 0.3659 0.0000
-0.2073 0.4147 0.0000
-0.2317 0.4634 0.0000
-0.2561 0.5122 0.0000
-0.2805 0.5610 0.0000
-0.3049 0.6098 0.0000
-0.3293 0.6586 0.0000
-0.3537 0.7073 0.0000
-0.3781 0.7561 0.0000
-0.4024 0.8049 0.0000
-0.4268 0.8537 0.0000
-0.4512 0.9024 0.0000
-0.4756 0.9512 0.0000
-0.5000 1.0000 0.0000
-0.1664 0.2496 0.0000
-0.1998 0.2996 0.0000
-0.2331 0.3497 0.0000
-0.2665 0.3997 0.0000
-0.2998 0.4497 0.0000
-0.3332 0.4997 0.0000
-0.3665 0.5498 0.0000
-0.3999 0.5998 0.0000
-0.4332 0.6498 0.0000
-0.4666 0.6998 0.0000
-0.4999 0.7499 0.0000
-0.5333 0.7999 0.0000
-0.5666 0.8499 0.0000
-0.6000 0.8999 0.0000
-0.6333 0.9500 0.0000
-0.6667 1.0000 0.0000
-0.1921 0.2305 0.0000
-0.2348 0.2818 0.0000
-0.2776 0.3331 0.0000
-0.3203 0.3844 0.0000
-0.3631 0.4357 0.0000
-0.4058 0.4870 0.0000
-0.4486 0.5383 0.0000
-0.4913 0.5896 0.0000
-0.5341 0.6409 0.0000
-0.5768 0.6922 0.0000
-0.6196 0.7435 0.0000
-0.6623 0.7948 0.0000
-0.7051 0.8461 0.0000
-0.7478 0.8974 0.0000
-0.7906 0.9487 0.0000
-0.8333 1.0000 0.0000
-0.2121 0.2121 0.0000
-0.2647 0.2647 0.0000
-0.3172 0.3172 0.0000
-0.3697 0.3697 0.0000
-0.4222 0.4222 0.0000
-0.4748 0.4748 0.0000
-0.5273 0.5273 0.0000
-0.5798 0.5798 0.0000
-0.6323 0.6323 0.0000
-0.6849 0.6849 0.0000
-0.7374 0.7374 0.0000
-0.7899 0.7899 0.0000
-0.8424 0.8424 0.0000
-0.8950 0.8950 0.0000
-0.9475 0.9475 0.0000
-1.0000 1.0000 0.0000
-0.2305 0.1921 0.0000
-0.2818 0.2348 0.0000
-0.3331 0.2776 0.0000
-0.3844 0.3203 0.0000
-0.4357 0.3631 0.0000
-0.4870 0.4058 0.0000
-0.5383 0.4486 0.0000
-0.5896 0.4913 0.0000
-0.6409 0.5341 0.0000
-0.6922 0.5768 0.0000
-0.7435 0.6196 0.0000
-0.7948 0.6623 0.0000
-0.8461 0.7051 0.0000
-0.8974 0.7478 0.0000
-0.9487 0.7906 0.0000
-1.0000 0.8333 0.0000
-0.2496 0.1664 0.0000
-0.2996 0.1998 0.0000
-0.3497 0.2331 0.0000
-0.3997 0.2665 0.0000
-0.4497 0.2998 0.0000
-0.4997 0.3332 0.0000
-0.5498 0.3665 0.0000
-0.5998 0.3999 0.0000
-0.6498 0.4332 0.0000
-0.6998 0.4666 0.0000
-0.7499 0.4999 0.0000
-0.7999 0.5333 0.0000
-0.8499 0.5666 0.0000
-0.8999 0.6000 0.0000
-0.9500 0.6333 0.0000
-1.0000 0.6667 0.0000
-0.2683 0.1342 0.0000
-0.3171 0.1586 0.0000
-0.3659 0.1829 0.0000
-0.4147 0.2073 0.0000
-0.4634 0.2317 0.0000
-0.5122 0.2561 0.0000
-0.5610 0.2805 0.0000
-0.6098 0.3049 0.0000
-0.6586 0.3293 0.0000
-0.7073 0.3537 0.0000
-0.7561 0.3781 0.0000
-0.8049 0.4024 0.0000
-0.8537 0.4268 0.0000
-0.9024 0.4512 0.0000
-0.9512 0.4756 0.0000
-1.0000 0.5000 0.0000
-0.2846 0.0949 0.0000
-0.3323 0.1108 0.0000
-0.3800 0.1267 0.0000
-0.4277 0.1426 0.0000
-0.4754 0.1585 0.0000
-0.5231 0.1744 0.0000
-0.5708 0.1903 0.0000
-0.6185 0.2062 0.0000
-0.6661 0.2220 0.0000
-0.7138 0.2379 0.0000
-0.7615 0.2538 0.0000
-0.8092 0.2697 0.0000
-0.8569 0.2856 0.0000
-0.9046 0.3015 0.0000
-0.9523 0.3174 0.0000
-1.0000 0.3333 0.0000
-0.2959 0.0493 0.0000
-0.3429 0.0571 0.0000
-0.3898 0.0650 0.0000
-0.4367 0.0728 0.0000
-0.4837 0.0806 0.0000
-0.5306 0.0884 0.0000
-0.5776 0.0963 0.0000
-0.6245 0.1041 0.0000
-0.6714 0.1119 0.0000
-0.7184 0.1197 0.0000
-0.7653 0.1276 0.0000
-0.8122 0.1354 0.0000
-0.8592 0.1432 0.0000
-0.9061 0.1510 0.0000
-0.9531 0.1588 0.0000
-1.0000 0.1667 0.0000
-0.3000 0.0000 0.0000
-0.3467 0.0000 0.0000
-0.3933 0.0000 0.0000
-0.4400 0.0000 0.0000
-0.4867 0.0000 0.0000
-0.5333 0.0000 0.0000
-0.5800 0.0000 0.0000
-0.6267 0.0000 0.0000
-0.6733 0.0000 0.0000
-0.7200 0.0000 0.0000
-0.7667 0.0000 0.0000
-0.8133 0.0000 0.0000
-0.8600 0.0000 0.0000
-0.9067 0.0000 0.0000
-0.9533 0.0000 0.0000
-1.0000 0.0000 0.0000
-0.2959 -0.0493 0.0000
-0.3429 -0.0571 0.0000
-0.3898 -0.0650 0.0000
-0.4367 -0.0728 0.0000
-0.4837 -0.0806 0.0000
-0.5306 -0.0884 0.0000
-0.5776 -0.0963 0.0000
-0.6245 -0.1041 0.0000
-0.6714 -0.1119 0.0000
-0.7184 -0.1197 0.0000
-0.7653 -0.1276 0.0000
-0.8122 -0.1354 0.0000
-0.8592 -0.1432 0.0000
-0.9061 -0.1510 0.0000
-0.9531 -0.1588 0.0000
-1.0000 -0.1667 0.0000
-0.2846 -0.0949 0.0000
-0.3323 -0.1108 0.0000
-0.3800 -0.1267 0.0000
-0.4277 -0.1426 0.0000
-0.4754 -0.1585 0.0000
-0.5231 -0.1744 0.0000
-0.5708 -0.1903 0.0000
-0.6185 -0.2062 0.0000
-0.6661 -0.2220 0.0000
-0.7138 -0.2379 0.0000
-0.7615 -0.2538 0.0000
-0.8092 -0.2697 0.0000
-0.8569 -0.2856 0.0000
-0.9046 -0.3015 0.0000
-0.9523 -0.3174 0.0000
-1.0000 -0.3333 0.0000
-0.2683 -0.1342 0.0000
-0.3171 -0.1586 0.0000
-0.3659 -0.1829 0.0000
-0.4147 -0.2073 0.0000
-0.4634 -0.2317 0.0000
-0.5122 -0.2561 0.0000
-0.5610 -0.2805 0.0000
-0.6098 -0.3049 0.0000
-0.6586 -0.3293 0.0000
-0.7073 -0.3537 0.0000
-0.7561 -0.3781 0.0000
-0.8049 -0.4024 0.0000
-0.8537 -0.4268 0.0000
-0.9024 -0.4512 0.0000
-0.9512 -0.4756 0.0000
-1.0000 -0.5000 0.0000
-0.2496 -0.1664 0.0000
-0.2996 -0.1998 0.0000
-0.3497 -0.2331 0.0000
-0.3997 -0.2665 0.0000
-0.4497 -0.2998 0.0000
-0.4997 -0.3332 0.0000
-0.5498 -0.3665 0.0000
-0.5998 -0.3999 0.0000
-0.6498 -0.4332 0.0000
-0.6998 -0.4666 0.0000
-0.7499 -0.4999 0.0000
-0.7999 -0.5333 0.0000
-0.8499 -0.5666 0.0000
-0.8999 -0.6000 0.0000
-0.9500 -0.6333 0.0000
-1.0000 -0.6667 0.0000
-0.2305 -0.1921 0.0000
-0.2818 -0.2348 0.0000
-0.3331 -0.2776 0.0000
-0.3844 -0.3203 0.0000
-0.4357 -0.3631 0.0000
-0.4870 -0.4058 0.0000
-0.5383 -0.4486 0.0000
-0.5896 -0.4913 0.0000
-0.6409 -0.5341 0.0000
-0.6922 -0.5768 0.0000
-0.7435 -0.6196 0.0000
-0.7948 -0.6623 0.0000
-0.8461 -0.7051 0.0000
-0.8974 -0.7478 0.0000
-0.9487 -0.7906 0.0000
-1.0000 -0.8333 0.0000
-0.2121 -0.2121 0.0000
-0.2647 -0.2647 0.0000
-0.3172 -0.3172 0.0000
-0.3697 -0.3697 0.0000
-0.4222 -0.4222 0.0000
-0.4748 -0.4748 0.0000
-0.5273 -0.5273 0.0000
-0.5798 -0.5798 0.0000
-0.6323 -0.6323 0.0000
-0.6849 -0.6849 0.0000
-0.7374 -0.7374 0.0000
-0.7899 -0.7899 0.0000
-0.8424 -0.8424 0.0000
-0.8950 -0.8950 0.0000
-0.9475 -0.9475 0.0000
-1.0000 -1.0000 0.0000
-0.1921 -0.2305 0.0000
-0.2348 -0.2818 0.0000
-0.2776 -0.3331 0.0000
-0.3203 -0.3844 0.0000
-0.3631 -0.4357 0.0000
-0.4058 -0.4870 0.0000
-0.4486 -0.5383 0.0000
-0.4913 -0.5896 0.0000
-0.5341 -0.6409 0.0000
-0.5768 -0.6922 0.0000
-0.6196 -0.7435 0.0000
-0.6623 -0.7948 0.0000
-0.7051 -0.8461 0.0000
-0.7478 -0.8974 0.0000
-0.7906 -0.9487 0.0000
-0.8333 -1.0000 0.0000
-0.1664 -0.2496 0.0000
-0.1998 -0.2996 0.0000
-0.2331 -0.3497 0.0000
-0.2665 -0.3997 0.0000
-0.2998 -0.4497 0.0000
-0.3332 -0.4997 0.0000
-0.3665 -0.5498 0.0000
-0.3999 -0.5998 0.0000
-0.4332 -0.6498 0.0000
-0.4666 -0.6998 0.0000
-0.4999 -0.7499 0.0000
-0.5333 -0.7999 0.0000
-0.5666 -0.8499 0.0000
-0.6000 -0.8999 0.0000
-0.6333 -0.9500 0.0000
-0.6667 -1.0000 0.0000
-0.1342 -0.2683 0.0000
-0.1586 -0.3171 0.0000
-0.1829 -0.3659 0.0000
-0.2073 -0.4147 0.0000
-0.2317 -0.4634 0.0000
-0.2561 -0.5122 0.0000
-0.2805 -0.5610 0.0000
[...]
         <PointData>
            <DataArray Name="fValues" NumberOfComponents="3" format="ascii" type="Float64">
 3.93941e-02  6.89622e-03        00000 
 3.84366e-02  6.63798e-03        00000 
 4.00479e-02  6.28790e-03        00000 
 3.50751e-02  4.79122e-03        00000 
 2.73522e-02  3.49248e-03        00000 
 2.36034e-02  2.13721e-03        00000 
 1.83778e-02 -1.14949e-03        00000 
 8.41411e-03 -6.42690e-03        00000 
-2.82073e-05 -8.58779e-03        00000 
-3.51116e-03 -1.30584e-02        00000 
-6.79780e-03 -1.90405e-02        00000 
-1.51308e-02 -2.75559e-02        00000 
-2.02551e-02 -3.41503e-02        00000 
-2.06409e-02 -3.35036e-02        00000 
-1.94179e-02 -3.15722e-02        00000 
-1.95184e-02 -3.13191e-02        00000 
 4.32922e-02  1.16259e-02        00000 
 4.37099e-02  8.61461e-03        00000 
 4.61489e-02  8.03956e-03        00000 
 4.35096e-02  7.11353e-03        00000 
 3.61010e-02  5.39809e-03        00000 
 2.90557e-02  4.19090e-03        00000 
 2.41148e-02  2.10164e-03        00000 
 1.65283e-02 -7.01172e-04        00000 
 7.05707e-03 -4.92987e-03        00000 
 3.20834e-04 -9.60597e-03        00000 
-4.24749e-03 -1.47921e-02        00000 
-6.65024e-03 -2.19164e-02        00000 
-1.19408e-02 -3.00835e-02        00000 
-1.84671e-02 -3.89147e-02        00000 
-2.58400e-02 -4.90560e-02        00000 
-3.37091e-02 -5.52338e-02        00000 
 5.00648e-02  1.60918e-02        00000 
 5.03544e-02  1.31999e-02        00000 
 5.33761e-02  1.23727e-02        00000 
 5.14970e-02  1.14903e-02        00000 
 4.76286e-02  9.69895e-03        00000 
 4.05220e-02  7.91683e-03        00000 
 3.29617e-02  6.25085e-03        00000 
 2.44522e-02  4.46767e-03        00000 
 1.66227e-02  1.88250e-03        00000 
 1.17120e-02 -2.89419e-03        00000 
 4.21260e-03 -9.99805e-03        00000 
-3.54571e-03 -1.48010e-02        00000 
-1.18294e-02 -2.16904e-02        00000 
-1.96563e-02 -3.03226e-02        00000 
-2.30979e-02 -3.66808e-02        00000 
-2.81559e-02 -4.39194e-02        00000 
 5.85512e-02  2.27200e-02        00000 
 5.91337e-02  1.97259e-02        00000 
 6.29985e-02  2.01520e-02        00000 
 6.25223e-02  1.86363e-02        00000 
 5.71602e-02  1.60889e-02        00000 
 5.30289e-02  1.48135e-02        00000 
 4.69640e-02  1.45040e-02        00000 
 3.91725e-02  1.32460e-02        00000 
 2.99486e-02  1.02216e-02        00000 
 2.43802e-02  6.46835e-03        00000 
 1.75638e-02  2.60076e-03        00000 
 8.99723e-03 -3.26040e-03        00000 
-1.72557e-03 -8.21805e-03        00000 
-8.38822e-03 -1.31751e-02        00000 
-1.49800e-02 -2.08297e-02        00000 
-1.78929e-02 -2.59563e-02        00000 
 7.31214e-02  3.24194e-02        00000 
 7.18336e-02  2.88284e-02        00000 
 7.55724e-02  2.85604e-02        00000 
 7.78787e-02  2.86855e-02        00000 
 7.15604e-02  2.61035e-02        00000 
 6.36842e-02  2.40993e-02        00000 
 5.82920e-02  2.46823e-02        00000 
 5.11609e-02  2.42541e-02        00000 
 4.13824e-02  2.28237e-02        00000 
 3.38481e-02  1.89603e-02        00000 
 2.78663e-02  1.53394e-02        00000 
 1.89899e-02  1.11383e-02        00000 
 9.96780e-03  6.88195e-03        00000 
 6.78028e-04  6.52043e-04        00000 
-8.13814e-03 -5.10862e-03        00000 
-1.38777e-02 -1.02694e-02        00000 
 9.23922e-02  4.42898e-02        00000 
 9.21632e-02  4.27283e-02        00000 
 9.39511e-02  4.19628e-02        00000 
 9.57875e-02  4.12468e-02        00000 
 8.74957e-02  3.97130e-02        00000 
 7.92452e-02  4.01415e-02        00000 
 7.19583e-02  4.06681e-02        00000 
 6.41331e-02  3.93032e-02        00000 
 5.42220e-02  3.79878e-02        00000 
 4.42679e-02  3.48882e-02        00000 
 3.39995e-02  3.09110e-02        00000 
 2.70562e-02  2.64147e-02        00000 
 1.81629e-02  2.04481e-02        00000 
 9.48864e-03  1.55702e-02        00000 
 3.73437e-03  1.27877e-02        00000 
-4.68202e-03  7.06561e-03        00000 
 1.15607e-01  5.65827e-02        00000 
 1.14302e-01  5.56700e-02        00000 
 1.15049e-01  5.55943e-02        00000 
 1.10415e-01  5.53822e-02        00000 
 1.03233e-01  5.52521e-02        00000 
 9.59277e-02  5.59890e-02        00000 
 8.77160e-02  5.44655e-02        00000 
 7.74179e-02  5.21127e-02        00000 
 6.78274e-02  5.00067e-02        00000 
 5.71903e-02  4.66456e-02        00000 
 4.61989e-02  4.30052e-02        00000 
 3.56209e-02  3.90190e-02        00000 
 2.80092e-02  3.44540e-02        00000 
 1.99184e-02  3.10306e-02        00000 
 1.03399e-02  3.10184e-02        00000 
-1.55838e-03  2.75512e-02        00000 
 1.37624e-01  6.75441e-02        00000 
 1.38571e-01  6.82259e-02        00000 
 1.33531e-01  6.86637e-02        00000 
 1.29136e-01  6.95033e-02        00000 
 1.21206e-01  6.90116e-02        00000 
 1.11724e-01  6.75635e-02        00000 
 1.00523e-01  6.40269e-02        00000 
 9.09502e-02  6.04857e-02        00000 
 8.15147e-02  5.66795e-02        00000 
 7.33400e-02  5.29445e-02        00000 
 6.31597e-02  5.01855e-02        00000 
 5.26586e-02  4.58900e-02        00000 
 4.24615e-02  4.19199e-02        00000 
 3.15652e-02  3.98937e-02        00000 
 1.84697e-02  3.71137e-02        00000 
 5.19197e-03  3.19196e-02        00000 
 1.61367e-01  7.83319e-02        00000 
 1.57218e-01  7.92970e-02        00000 
 1.51590e-01  8.02711e-02        00000 
 1.46016e-01  7.89960e-02        00000 
 1.35406e-01  7.49825e-02        00000 
 1.24075e-01  7.14479e-02        00000 
 1.13865e-01  6.74138e-02        00000 
 1.03408e-01  6.35025e-02        00000 
 9.40494e-02  5.88266e-02        00000 
 8.46396e-02  5.38699e-02        00000 
 7.44935e-02  4.93335e-02        00000 
 6.35047e-02  4.46556e-02        00000 
 5.08845e-02  4.05720e-02        00000 
 3.63004e-02  3.54101e-02        00000 
 2.53999e-02  3.21825e-02        00000 
 1.29627e-02  2.76564e-02        00000 
 1.88843e-01  8.91765e-02        00000 
 1.77986e-01  8.80538e-02        00000 
 1.72121e-01  8.51981e-02        00000 
 1.64468e-01  8.18882e-02        00000 
 1.51424e-01  7.68159e-02        00000 
 1.38187e-01  7.26067e-02        00000 
 1.26877e-01  6.70731e-02        00000 
 1.16617e-01  6.17916e-02        00000 
 1.06764e-01  5.52815e-02        00000 
 9.71960e-02  4.97338e-02        00000 
 8.47789e-02  4.38674e-02        00000 
 7.15287e-02  3.79368e-02        00000 
 5.82964e-02  3.21571e-02        00000 
 4.72945e-02  2.54629e-02        00000 
 3.51978e-02  1.88826e-02        00000 
 2.19931e-02  1.12294e-02        00000 
 2.14028e-01  9.75521e-02        00000 
 2.03425e-01  9.27362e-02        00000 
 1.91619e-01  8.57970e-02        00000 
 1.82235e-01  7.89922e-02        00000 
 1.67791e-01  7.33316e-02        00000 
 1.54884e-01  6.80725e-02        00000 
 1.41908e-01  6.16346e-02        00000 
 1.31814e-01  5.57514e-02        00000 
 1.19613e-01  4.70925e-02        00000 
 1.07229e-01  3.90691e-02        00000 
 9.57807e-02  3.17701e-02        00000 
 8.13064e-02  2.33657e-02        00000 
 6.98550e-02  1.57962e-02        00000 
 5.76413e-02  7.08446e-03        00000 
 4.27448e-02 -3.69534e-03        00000 
 3.12128e-02 -1.13526e-02        00000 
 2.37007e-01  1.03491e-01        00000 
 2.25346e-01  9.56177e-02        00000 
 2.10189e-01  8.44852e-02        00000 
 1.97822e-01  7.61206e-02        00000 
 1.83598e-01  6.89528e-02        00000 
 1.71557e-01  6.25064e-02        00000 
 1.58788e-01  5.62047e-02        00000 
 1.46581e-01  4.69449e-02        00000 
 1.33976e-01  3.74207e-02        00000 
 1.21127e-01  2.76503e-02        00000 
 1.10629e-01  1.79062e-02        00000 
 9.47335e-02  5.90220e-03        00000 
 7.63410e-02 -5.03189e-03        00000 
 6.17005e-02 -1.92863e-02        00000 
 4.56146e-02 -2.61763e-02        00000 
 2.81221e-02 -3.33715e-02        00000 
 2.56954e-01  1.08285e-01        00000 
 2.43221e-01  9.70553e-02        00000 
 2.26433e-01  8.36130e-02        00000 
 2.10521e-01  7.34016e-02        00000 
 2.00061e-01  6.46785e-02        00000 
 1.89040e-01  5.64611e-02        00000 
 1.75676e-01  4.62381e-02        00000 
 1.61456e-01  3.48593e-02        00000 
 1.47176e-01  2.48772e-02        00000 
 1.32460e-01  1.45626e-02        00000 
 1.18198e-01  2.92546e-03        00000 
 1.01326e-01 -1.10905e-02        00000 
 8.47445e-02 -2.73472e-02        00000 
 7.07007e-02 -3.67369e-02        00000 
 5.58737e-02 -4.44379e-02        00000 
 4.14801e-02 -5.06038e-02        00000 
 2.76778e-01  1.12564e-01        00000 
 2.64042e-01  1.01305e-01        00000 
 2.49799e-01  8.85677e-02        00000 
 2.36749e-01  7.64784e-02        00000 
 2.26033e-01  6.52068e-02        00000 
 2.18608e-01  5.64651e-02        00000 
 2.08138e-01  4.81193e-02        00000 
 1.97253e-01  3.96129e-02        00000 
 1.87765e-01  3.04463e-02        00000 
 1.76052e-01  2.16924e-02        00000 
 1.62451e-01  1.09954e-02        00000 
 1.48118e-01  1.93893e-03        00000 
 1.34994e-01 -7.81184e-03        00000 
 1.23514e-01 -1.88225e-02        00000 
 1.09998e-01 -2.80286e-02        00000 
 9.88494e-02 -2.79029e-02        00000 
 3.01691e-01  1.16901e-01        00000 
 2.88755e-01  1.04786e-01        00000 
 2.78618e-01  9.29120e-02        00000 
 2.68440e-01  8.09421e-02        00000 
 2.60747e-01  6.92086e-02        00000 
 2.54896e-01  5.97602e-02        00000 
 2.46593e-01  5.23198e-02        00000 
 2.35519e-01  4.26930e-02        00000 
 2.26882e-01  3.43139e-02        00000 
 2.19783e-01  2.75506e-02        00000 
 2.12100e-01  1.87806e-02        00000 
 2.03825e-01  9.70505e-03        00000 
 1.95587e-01  5.22722e-04        00000 
 1.84909e-01 -7.84105e-03        00000 
 1.74638e-01 -1.49250e-02        00000 
 1.62024e-01 -2.36812e-02        00000 
 3.31336e-01  1.20759e-01        00000 
 3.20657e-01  1.07938e-01        00000 
 3.11393e-01  9.45062e-02        00000 
 3.05038e-01  8.29232e-02        00000 
 2.99712e-01  7.23509e-02        00000 
 2.95612e-01  6.29919e-02        00000 
 2.89616e-01  5.49819e-02        00000 
 2.83890e-01  4.96249e-02        00000 
 2.76350e-01  4.26507e-02        00000 
 2.70109e-01  3.53496e-02        00000 
 2.68485e-01  2.80873e-02        00000 
 2.63478e-01  1.96594e-02        00000 
 2.57720e-01  9.64104e-03        00000 
 2.51265e-01  2.23667e-03        00000 
 2.42379e-01 -4.81973e-03        00000 
 2.37297e-01 -1.34601e-02        00000 
 3.66231e-01  1.23336e-01        00000 
 3.58115e-01  1.09820e-01        00000 
 3.50328e-01  9.55435e-02        00000 
 3.47092e-01  8.39931e-02        00000 
 3.45039e-01  7.37847e-02        00000 
 3.40738e-01  6.47485e-02        00000 
 3.38243e-01  5.73386e-02        00000 
 3.35946e-01  5.16458e-02        00000 
 3.34132e-01  4.56220e-02        00000 
 3.32591e-01  3.88806e-02        00000 
 3.32641e-01  3.20430e-02        00000 
 3.29023e-01  2.42281e-02        00000 
 3.24764e-01  1.48462e-02        00000 
 3.26096e-01  9.00480e-03        00000 
 3.18873e-01  5.13716e-03        00000 
 3.16085e-01 -3.97582e-03        00000 
 4.02677e-01  1.25328e-01        00000 
 3.99753e-01  1.12884e-01        00000 
 3.94610e-01  9.91684e-02        00000 
 3.91687e-01  8.64078e-02        00000 
 3.90637e-01  7.68937e-02        00000 
 3.90778e-01  6.85777e-02        00000 
 3.91191e-01  6.23942e-02        00000 
 3.92068e-01  5.57894e-02        00000 
 3.94708e-01  4.96428e-02        00000 
 3.96983e-01  4.23935e-02        00000 
 3.99578e-01  3.75177e-02        00000 
 4.01364e-01  3.17611e-02        00000 
 4.02544e-01  2.36284e-02        00000 
 4.05430e-01  1.81798e-02        00000 
 4.04825e-01  1.42348e-02        00000 
 4.06481e-01  6.93979e-03        00000 
 4.37276e-01  1.27890e-01        00000 
 4.37604e-01  1.16310e-01        00000 
 4.35308e-01  1.03279e-01        00000 
 4.35252e-01  9.03195e-02        00000 
 4.37488e-01  8.13102e-02        00000 
 4.41860e-01  7.42442e-02        00000 
 4.48343e-01  6.79027e-02        00000 
 4.53591e-01  6.10584e-02        00000 
 4.58264e-01  5.31429e-02        00000 
 4.60594e-01  4.65098e-02        00000 
 4.66846e-01  4.17992e-02        00000 
 4.73419e-01  3.86886e-02        00000 
 4.81473e-01  3.30795e-02        00000 
 4.89649e-01  2.88241e-02        00000 
 4.94158e-01  2.46397e-02        00000 
 4.96538e-01  1.71754e-02        00000 
 4.65922e-01  1.29163e-01        00000 
 4.71161e-01  1.19813e-01        00000 
 4.71895e-01  1.07182e-01        00000 
 4.74349e-01  9.52668e-02        00000 
 4.80193e-01  8.70862e-02        00000 
 4.88763e-01  8.05194e-02        00000 
 4.98285e-01  7.36501e-02        00000 
 5.07354e-01  6.69021e-02        00000 
 5.13740e-01  6.09239e-02        00000 
 5.22130e-01  5.53164e-02        00000 
 5.34239e-01  4.91494e-02        00000 
 5.46324e-01  4.52207e-02        00000 
 5.58119e-01  4.07549e-02        00000 
 5.70772e-01  3.63312e-02        00000 
 5.83239e-01  2.85286e-02        00000 
 5.97505e-01  2.10710e-02        00000 
 4.86516e-01  1.28689e-01        00000 
 4.92269e-01  1.19952e-01        00000 
 4.95851e-01  1.09481e-01        00000 
 5.02782e-01  9.87603e-02        00000 
 5.13886e-01  9.09264e-02        00000 
 5.24758e-01  8.38416e-02        00000 
 5.36591e-01  7.86999e-02        00000 
 5.47664e-01  7.27825e-02        00000 
 5.59488e-01  6.62953e-02        00000 
 5.75587e-01  6.10846e-02        00000 
 5.90859e-01  5.52874e-02        00000 
 6.07101e-01  4.85378e-02        00000 
 6.22799e-01  4.20679e-02        00000 
 6.41499e-01  3.43045e-02        00000 
 6.62391e-01  2.70560e-02        00000 
 6.83673e-01  2.01691e-02        00000 
 4.97909e-01  1.25481e-01        00000 
 5.04631e-01  1.18296e-01        00000 
 5.09926e-01  1.08870e-01        00000 
 5.18327e-01  1.00909e-01        00000 
 5.31991e-01  9.38433e-02        00000 
 5.47725e-01  8.71389e-02        00000 
 5.62963e-01  8.15935e-02        00000 
 5.78979e-01  7.52157e-02        00000 
 5.97002e-01  6.82042e-02        00000 
 6.16902e-01  5.99689e-02        00000 
 6.37691e-01  5.26467e-02        00000 
 6.61322e-01  4.56387e-02        00000 
 6.85415e-01  3.92141e-02        00000 
 7.09249e-01  3.17042e-02        00000 
 7.34650e-01  2.18481e-02        00000 
 7.67466e-01  1.64484e-02        00000 
 5.02390e-01  1.20249e-01        00000 
 5.11201e-01  1.15536e-01        00000 
 5.15863e-01  1.08739e-01        00000 
 5.28054e-01  1.01509e-01        00000 
 5.44052e-01  9.49653e-02        00000 
 5.61830e-01  8.87310e-02        00000 
 5.80010e-01  8.06480e-02        00000 
 5.99578e-01  7.24057e-02        00000 
 6.25357e-01  6.36827e-02        00000 
 6.51707e-01  5.42147e-02        00000 
 6.79563e-01  4.59198e-02        00000 
 7.07821e-01  3.69951e-02        00000 
 7.38217e-01  3.07322e-02        00000 
 7.71279e-01  2.28794e-02        00000 
 8.00306e-01  1.49114e-02        00000 
 8.40447e-01  1.35084e-02        00000 
 5.03426e-01  1.14755e-01        00000 
 5.10401e-01  1.12253e-01        00000 
 5.17008e-01  1.06480e-01        00000 
 5.32670e-01  9.91397e-02        00000 
 5.50889e-01  9.32763e-02        00000 
 5.72173e-01  8.67916e-02        00000 
 5.94393e-01  7.61763e-02        00000 
 6.20668e-01  6.56838e-02        00000 
 6.50249e-01  5.32411e-02        00000 
 6.84385e-01  4.32880e-02        00000 
 7.16535e-01  3.23934e-02        00000 
 7.50032e-01  2.27903e-02        00000 
 7.85945e-01  1.42827e-02        00000 
 8.22733e-01  6.62291e-03        00000 
 8.63156e-01  8.09534e-03        00000 
 9.00089e-01  1.58055e-02        00000 
 5.02602e-01  1.11648e-01        00000 
 5.08080e-01  1.08972e-01        00000 
 5.15230e-01  1.02122e-01        00000 
 5.33022e-01  9.39614e-02        00000 
 5.53848e-01  8.77943e-02        00000 
 5.80058e-01  8.06534e-02        00000 
 6.07343e-01  6.73817e-02        00000 
 6.39260e-01  5.31504e-02        00000 
 6.72349e-01  4.00148e-02        00000 
 7.07277e-01  2.89907e-02        00000 
 7.40602e-01  1.51224e-02        00000 
 7.73601e-01  6.86012e-04        00000 
 8.01087e-01 -1.28179e-02        00000 
 8.21793e-01 -2.22502e-02        00000 
 8.25340e-01 -2.43216e-02        00000 
 7.96950e-01 -1.44309e-02        00000 
 4.99685e-01  1.08448e-01        00000 
 5.01764e-01  1.06385e-01        00000 
 5.04937e-01  9.92972e-02        00000 
 5.20737e-01  9.31628e-02        00000 
 5.38443e-01  8.68456e-02        00000 
 5.58555e-01  8.07258e-02        00000 
 5.80363e-01  7.27853e-02        00000 
 6.07039e-01  6.25275e-02        00000 
 6.33791e-01  4.89952e-02        00000 
 6.61628e-01  3.72957e-02        00000 
 6.88009e-01  2.49756e-02        00000 
 7.17317e-01  1.12745e-02        00000 
 7.42429e-01 -5.14676e-03        00000 
 7.64883e-01 -1.98061e-02        00000 
 7.88136e-01 -3.23533e-02        00000 
 8.12289e-01 -3.53238e-02        00000 
 4.90949e-01  1.03065e-01        00000 
 4.90283e-01  1.00069e-01        00000 
 4.91846e-01  9.46506e-02        00000 
 5.01643e-01  8.90889e-02        00000 
 5.17989e-01  8.34110e-02        00000 
 5.34488e-01  7.77272e-02        00000 
 5.51939e-01  7.20576e-02        00000 
 5.73266e-01  6.56405e-02        00000 
 5.95884e-01  5.80557e-02        00000 
 6.17575e-01  4.92670e-02        00000 
 6.40533e-01  3.77420e-02        00000 
 6.65413e-01  2.56837e-02        00000 
 6.89555e-01  1.60029e-02        00000 
 7.12993e-01  4.10638e-03        00000 
 7.41099e-01 -5.25456e-03        00000 
 7.67737e-01 -1.58273e-02        00000 
 4.74588e-01  9.38569e-02        00000 
 4.71905e-01  9.08825e-02        00000 
 4.72722e-01  8.69348e-02        00000 
 4.79402e-01  8.30660e-02        00000 
 4.90866e-01  7.83866e-02        00000 
 5.03773e-01  7.24589e-02        00000 
 5.18622e-01  6.67905e-02        00000 
 5.36690e-01  6.31226e-02        00000 
 5.55381e-01  5.74758e-02        00000 
 5.71611e-01  5.13134e-02        00000 
 5.90469e-01  4.51726e-02        00000 
 6.15321e-01  3.86937e-02        00000 
 6.36701e-01  2.99866e-02        00000 
 6.57546e-01  2.47819e-02        00000 
 6.77417e-01  1.60062e-02        00000 
 7.06315e-01  1.08889e-02        00000 
 4.51135e-01  8.17010e-02        00000 
 4.48473e-01  7.89376e-02        00000 
 4.46601e-01  7.57422e-02        00000 
 4.53472e-01  7.37853e-02        00000 
 4.60435e-01  6.97739e-02        00000 
 4.69896e-01  6.51563e-02        00000 
 4.83124e-01  6.10613e-02        00000 
 4.97637e-01  5.62898e-02        00000 
 5.12603e-01  5.26132e-02        00000 
 5.26802e-01  5.08339e-02        00000 
 5.42135e-01  4.82430e-02        00000 
 5.63853e-01  4.41455e-02        00000 
 5.80478e-01  3.84688e-02        00000 
 5.97238e-01  3.40954e-02        00000 
 6.14775e-01  2.90728e-02        00000 
 6.40038e-01  2.55021e-02        00000 
 4.21793e-01  6.68333e-02        00000 
 4.20060e-01  6.42939e-02        00000 
 4.18893e-01  6.11673e-02        00000 
 4.22225e-01  5.86484e-02        00000 
 4.29864e-01  5.74682e-02        00000 
 4.36668e-01  5.40116e-02        00000 
 4.47917e-01  5.12868e-02        00000 
 4.60054e-01  4.84162e-02        00000 
 4.72201e-01  4.60597e-02        00000 
 4.83191e-01  4.38989e-02        00000 
 4.95973e-01  4.23969e-02        00000 
 5.13601e-01  3.95880e-02        00000 
 5.25796e-01  3.54755e-02        00000 
 5.37035e-01  3.29186e-02        00000 
 5.51368e-01  3.45656e-02        00000 
 5.67633e-01  3.30941e-02        00000 
 3.88390e-01  5.35348e-02        00000 
 3.87554e-01  5.01190e-02        00000 
 3.87116e-01  4.84643e-02        00000 
 3.89018e-01  4.55997e-02        00000 
 3.95312e-01  4.27907e-02        00000 
 4.01685e-01  3.95485e-02        00000 
 4.12319e-01  3.84220e-02        00000 
 4.21231e-01  3.56764e-02        00000 
 4.30716e-01  3.41195e-02        00000 
 4.39998e-01  3.23627e-02        00000 
 4.48872e-01  3.16989e-02        00000 
 4.60016e-01  2.83049e-02        00000 
 4.70899e-01  2.54039e-02        00000 
 4.80047e-01  2.45591e-02        00000 
 4.85364e-01  2.42515e-02        00000 
 4.96649e-01  2.47945e-02        00000 
 3.52972e-01  4.16218e-02        00000 