<?xml version="1.0" encoding="utf-8"?>
<VTKFile byte_order="LittleEndian" type="UnstructuredGrid" version="0.1">
   <UnstructuredGrid>
      <Piece NumberOfCells="720" NumberOfPoints="768">
         <Points>
            <DataArray Name="Points" NumberOfComponents="3" format="ascii" type="Float32">
0.2121 0.2121 0.0000
0.2647 0.2647 0.0000
0.3172 0.3172 0.0000
0.3697 0.3697 0.0000
0.4222 0.4222 0.0000
0.4748 0.4748 0.0000
0.5273 0.5273 0.0000
0.5798 0.5798 0.0000
0.6323 0.6323 0.0000
0.6849 0.6849 0.0000
0.7374 0.7374 0.0000
0.7899 0.7899 0.0000
0.8424 0.8424 0.0000
0.8950 0.8950 0.0000
0.9475 0.9475 0.0000
1.0000 1.0000 0.0000
0.1921 0.2305 0.0000
0.2348 0.2818 0.0000
0.2776 0.3331 0.0000
0.3203 0.3844 0.0000
0.3631 0.4357 0.0000
0.4058 0.4870 0.0000
0.4486 0.5383 0.0000
0.4913 0.5896 0.0000
0.5341 0.6409 0.0000
0.5768 0.6922 0.0000
0.6196 0.7435 0.0000
0.6623 0.7948 0.0000
0.7051 0.8461 0.0000
0.7478 0.8974 0.0000
0.7906 0.9487 0.0000
0.8333 1.0000 0.0000
0.1664 0.2496 0.0000
0.1998 0.2996 0.0000
0.2331 0.3497 0.0000
0.2665 0.3997 0.0000
0.2998 0.4497 0.0000
0.3332 0.4997 0.0000
0.3665 0.5498 0.0000
0.3999 0.5998 0.0000
0.4332 0.6498 0.0000
0.4666 0.6998 0.0000
0.4999 0.7499 0.0000
0.5333 0.7999 0.0000
0.5666 0.8499 0.0000
0.6000 0.8999 0.0000
0.6333 0.9500 0.0000
0.6667 1.0000 0.0000
0.1342 0.2683 0.0000
0.1586 0.3171 0.0000
0.1829 0.3659 0.0000
0.2073 0.4147 0.0000
0.2317 0.4634 0.0000
0.2561 0.5122 0.0000
0.2805 0.5610 0.0000
0.3049 0.6098 0.0000
0.3293 0.6586 0.0000
0.3537 0.7073 0.0000
0.3781 0.7561 0.0000
0.4024 0.8049 0.0000
0.4268 0.8537 0.0000
0.4512 0.9024 0.0000
0.4756 0.9512 0.0000
0.5000 1.0000 0.0000
0.0949 0.2846 0.0000
0.1108 0.3323 0.0000
0.1267 0.3800 0.0000
0.1426 0.4277 0.0000
0.1585 0.4754 0.0000
0.1744 0.5231 0.0000
0.1903 0.5708 0.0000
0.2062 0.6185 0.0000
0.2220 0.6661 0.0000
0.2379 0.7138 0.0000
0.2538 0.7615 0.0000
0.2697 0.8092 0.0000
0.2856 0.8569 0.0000
0.3015 0.9046 0.0000
0.3174 0.9523 0.0000
0.3333 1.0000 0.0000
0.0493 0.2959 0.0000
0.0571 0.3429 0.0000
0.0650 0.3898 0.0000
0.0728 0.4367 0.0000
0.0806 0.4837 0.0000
0.0884 0.5306 0.0000
0.0963 0.5776 0.0000
0.1041 0.6245 0.0000
0.1119 0.6714 0.0000
0.1197 0.7184 0.0000
0.1276 0.7653 0.0000
0.1354 0.8122 0.0000
0.1432 0.8592 0.0000
0.1510 0.9061 0.0000
0.1588 0.9531 0.0000
0.1667 1.0000 0.0000
0.0000 0.3000 0.0000
0.0000 0.3467 0.0000
0.0000 0.3933 0.0000
0.0000 0.4400 0.0000
0.0000 0.4867 0.0000
0.0000 0.5333 0.0000
0.0000 0.5800 0.0000
0.0000 0.6267 0.0000
0.0000 0.6733 0.0000
0.0000 0.7200 0.0000
0.0000 0.7667 0.0000
0.0000 0.8133 0.0000
0.0000 0.8600 0.0000
0.0000 0.9067 0.0000
0.0000 0.9533 0.0000
0.0000 1.0000 0.0000
-0.0493 0.2959 0.0000
-0.0571 0.3429 0.0000
-0.0650 0.3898 0.0000
-0.0728 0.4367 0.0000
-0.0806 0.4837 0.0000
-0.0884 0.5306 0.0000
-0.0963 0.5776 0.0000
-0.1041 0.6245 0.0000
-0.1119 0.6714 0.0000
-0.1197 0.7184 0.0000
-0.1276 0.7653 0.0000
-0.1354 0.8122 0.0000
-0.1432 0.8592 0.0000
-0.1510 0.9061 0.0000
-0.1588 0.9531 0.0000
-0.1667 1.0000 0.0000
-0.0949 0.2846 0.0000
-0.1108 0.3323 0.0000
-0.1267 0.3800 0.0000
-0.1426 0.4277 0.0000
-0.1585 0.4754 0.0000
-0.1744 0.5231 0.0000
-0.1903 0.5708 0.0000
-0.2062 0.6185 0.0000
-0.2220 0.6661 0.0000
-0.2379 0.7138 0.0000
-0.2538 0.7615 0.0000
-0.2697 0.8092 0.0000
-0.2856 0.8569 0.0000
-0.3015 0.9046 0.0000
-0.3174 0.9523 0.0000
-0.3333 1.0000 0.0000
-0.1342 0.2683 0.0000
-0.1586 0.3171 0.0000
-0.1829 0.3659 0.0000
-0.2073 0.4147 0.0000
-0.2317 0.4634 0.0000
-0.2561 0.5122 0.0000
-0.2805 0.5610 0.0000
-0.3049 0.6098 0.0000
-0.3293 0.6586 0.0000
-0.3537 0.7073 0.0000
-0.3781 0.7561 0.0000
-0.4024 0.8049 0.0000
-0.4268 0.8537 0.0000
-0.4512 0.9024 0.0000
-0.4756 0.9512 0.0000
-0.5000 1.0000 0.0000
-0.1664 0.2496 0.0000
-0.1998 0.2996 0.0000
-0.2331 0.3497 0.0000
-0.2665 0.3997 0.0000
-0.2998 0.4497 0.0000
-0.3332 0.4997 0.0000
-0.3665 0.5498 0.0000
-0.3999 0.5998 0.0000
-0.4332 0.6498 0.0000
-0.4666 0.6998 0.0000
-0.4999 0.7499 0.0000
-0.5333 0.7999 0.0000
-0.5666 0.8499 0.0000
-0.6000 0.8999 0.0000
-0.6333 0.9500 0.0000
-0.6667 1.0000 0.0000
-0.1921 0.2305 0.0000
-0.2348 0.2818 0.0000
-0.2776 0.3331 0.0000
-0.3203 0.3844 0.0000
-0.3631 0.4357 0.0000
-0.4058 0.4870 0.0000
-0.4486 0.5383 0.0000
-0.4913 0.5896 0.0000
-0.5341 0.6409 0.0000
-0.5768 0.6922 0.0000
-0.6196 0.7435 0.0000
-0.6623 0.7948 0.0000
-0.7051 0.8461 0.0000
-0.7478 0.8974 0.0000
-0.7906 0.9487 0.0000
-0.8333 1.0000 0.0000
-0.2121 0.2121 0.0000
-0.2647 0.2647 0.0000
-0.3172 0.3172 0.0000
-0.3697 0.3697 0.0000
-0.4222 0.4222 0.0000
-0.4748 0.4748 0.0000
-0.5273 0.5273 0.0000
-0.5798 0.5798 0.0000
-0.6323 0.6323 0.0000
-0.6849 0.6849 0.0000
-0.7374 0.7374 0.0000
-0.7899 0.7899 0.0000
-0.8424 0.8424 0.0000
-0.8950 0.8950 0.0000
-0.9475 0.9475 0.0000
-1.0000 1.0000 0.0000
-0.2305 0.1921 0.0000
-0.2818 0.2348 0.0000
-0.3331 0.2776 0.0000
-0.3844 0.3203 0.0000
-0.4357 0.3631 0.0000
-0.4870 0.4058 0.0000
-0.5383 0.4486 0.0000
-0.5896 0.4913 0.0000
-0.6409 0.5341 0.0000
-0.6922 0.5768 0.0000
-0.7435 0.6196 0.0000
-0.7948 0.6623 0.0000
-0.8461 0.7051 0.0000
-0.8974 0.7478 0.0000
-0.9487 0.7906 0.0000
-1.0000 0.8333 0.0000
-0.2496 0.1664 0.0000
-0.2996 0.1998 0.0000
-0.3497 0.2331 0.0000
-0.3997 0.2665 0.0000
-0.4497 0.2998 0.0000
-0.4997 0.3332 0.0000
-0.5498 0.3665 0.0000
-0.5998 0.3999 0.0000
-0.6498 0.4332 0.0000
-0.6998 0.4666 0.0000
-0.7499 0.4999 0.0000
-0.7999 0.5333 0.0000
-0.8499 0.5666 0.0000
-0.8999 0.6000 0.0000
-0.9500 0.6333 0.0000
-1.0000 0.6667 0.0000
-0.2683 0.1342 0.0000
-0.3171 0.1586 0.0000
-0.3659 0.1829 0.0000
-0.4147 0.2073 0.0000
-0.4634 0.2317 0.0000
-0.5122 0.2561 0.0000
-0.5610 0.2805 0.0000
-0.6098 0.3049 0.0000
-0.6586 0.3293 0.0000
-0.7073 0.3537 0.0000
-0.7561 0.3781 0.0000
-0.8049 0.4024 0.0000
-0.8537 0.4268 0.0000
-0.9024 0.4512 0.0000
-0.9512 0.4756 0.0000
-1.0000 0.5000 0.0000
-0.2846 0.0949 0.0000
-0.3323 0.1108 0.0000
-0.3800 0.1267 0.0000
-0.4277 0.1426 0.0000
-0.4754 0.1585 0.0000
-0.5231 0.1744 0.0000
-0.5708 0.1903 0.0000
-0.6185 0.2062 0.0000
-0.6661 0.2220 0.0000
-0.7138 0.2379 0.0000
-0.7615 0.2538 0.0000
-0.8092 0.2697 0.0000
-0.8569 0.2856 0.0000
-0.9046 0.3015 0.0000
-0.9523 0.3174 0.0000
-1.0000 0.3333 0.0000
-0.2959 0.0493 0.0000
-0.3429 0.0571 0.0000
-0.3898 0.0650 0.0000
-0.4367 0.0728 0.0000
-0.4837 0.0806 0.0000
-0.5306 0.0884 0.0000
-0.5776 0.0963 0.0000
-0.6245 0.1041 0.0000
-0.6714 0.1119 0.0000
-0.7184 0.1197 0.0000
-0.7653 0.1276 0.0000
-0.8122 0.1354 0.0000
-0.8592 0.1432 0.0000
-0.9061 0.1510 0.0000
-0.9531 0.1588 0.0000
-1.0000 0.1667 0.0000
-0.3000 0.0000 0.0000
-0.3467 0.0000 0.0000
-0.3933 0.0000 0.0000
-0.4400 0.0000 0.0000
-0.4867 0.0000 0.0000
-0.5333 0.0000 0.0000
-0.5800 0.0000 0.0000
-0.6267 0.0000 0.0000
-0.6733 0.0000 0.0000
-0.7200 0.0000 0.0000
-0.7667 0.0000 0.0000
-0.8133 0.0000 0.0000
-0.8600 0.0000 0.0000
-0.9067 0.0000 0.0000
-0.9533 0.0000 0.0000
-1.0000 0.0000 0.0000
-0.2959 -0.0493 0.0000
-0.3429 -0.0571 0.0000
-0.3898 -0.0650 0.0000
-0.4367 -0.0728 0.0000
-0.4837 -0.0806 0.0000
-0.5306 -0.0884 0.0000
-0.5776 -0.0963 0.0000
-0.6245 -0.1041 0.0000
-0.6714 -0.1119 0.0000
-0.7184 -0.1197 0.0000
-0.7653 -0.1276 0.0000
-0.8122 -0.1354 0.0000
-0.8592 -0.1432 0.0000
-0.9061 -0.1510 0.0000
-0.9531 -0.1588 0.0000
-1.0000 -0.1667 0.0000
-0.2846 -0.0949 0.0000
-0.3323 -0.1108 0.0000
-0.3800 -0.1267 0.0000
-0.4277 -0.1426 0.0000
-0.4754 -0.1585 0.0000
-0.5231 -0.1744 0.0000
-0.5708 -0.1903 0.0000
-0.6185 -0.2062 0.0000
-0.6661 -0.2220 0.0000
-0.7138 -0.2379 0.0000
-0.7615 -0.2538 0.0000
-0.8092 -0.2697 0.0000
-0.8569 -0.2856 0.0000
-0.9046 -0.3015 0.0000
-0.9523 -0.3174 0.0000
-1.0000 -0.3333 0.0000
-0.2683 -0.1342 0.0000
-0.3171 -0.1586 0.0000
-0.3659 -0.1829 0.0000
-0.4147 -0.2073 0.0000
-0.4634 -0.2317 0.0000
-0.5122 -0.2561 0.0000
-0.5610 -0.2805 0.0000
-0.6098 -0.3049 0.0000
-0.6586 -0.3293 0.0000
-0.7073 -0.3537 0.0000
-0.7561 -0.3781 0.0000
-0.8049 -0.4024 0.0000
-0.8537 -0.4268 0.0000
-0.9024 -0.4512 0.0000
-0.9512 -0.4756 0.0000
-1.0000 -0.5000 0.0000
-0.2496 -0.1664 0.0000
-0.2996 -0.1998 0.0000
-0.3497 -0.2331 0.0000
-0.3997 -0.2665 0.0000
-0.4497 -0.2998 0.0000
-0.4997 -0.3332 0.0000
-0.5498 -0.3665 0.0000
-0.5998 -0.3999 0.0000
-0.6498 -0.4332 0.0000
-0.6998 -0.4666 0.0000
-0.7499 -0.4999 0.0000
-0.7999 -0.5333 0.0000
-0.8499 -0.5666 0.0000
-0.8999 -0.6000 0.0000
-0.9500 -0.6333 0.0000
-1.0000 -0.6667 0.0000
-0.2305 -0.1921 0.0000
-0.2818 -0.2348 0.0000
-0.3331 -0.2776 0.0000
-0.3844 -0.3203 0.0000
-0.4357 -0.3631 0.0000
-0.4870 -0.4058 0.0000
-0.5383 -0.4486 0.0000
-0.5896 -0.4913 0.0000
-0.6409 -0.5341 0.0000
-0.6922 -0.5768 0.0000
-0.7435 -0.6196 0.0000
-0.7948 -0.6623 0.0000
-0.8461 -0.7051 0.0000
-0.8974 -0.7478 0.0000
-0.9487 -0.7906 0.0000
-1.0000 -0.8333 0.0000
-0.2121 -0.2121 0.0000
-0.2647 -0.2647 0.0000
-0.3172 -0.3172 0.0000
-0.3697 -0.3697 0.0000
-0.4222 -0.4222 0.0000
-0.4748 -0.4748 0.0000
-0.5273 -0.5273 0.0000
-0.5798 -0.5798 0.0000
-0.6323 -0.6323 0.0000
-0.6849 -0.6849 0.0000
-0.7374 -0.7374 0.0000
-0.7899 -0.7899 0.0000
-0.8424 -0.8424 0.0000
-0.8950 -0.8950 0.0000
-0.9475 -0.9475 0.0000
-1.0000 -1.0000 0.0000
-0.1921 -0.2305 0.0000
-0.2348 -0.2818 0.0000
-0.2776 -0.3331 0.0000
-0.3203 -0.3844 0.0000
-0.3631 -0.4357 0.0000
-0.4058 -0.4870 0.0000
-0.4486 -0.5383 0.0000
-0.4913 -0.5896 0.0000
-0.5341 -0.6409 0.0000
-0.5768 -0.6922 0.0000
-0.6196 -0.7435 0.0000
-0.6623 -0.7948 0.0000
-0.7051 -0.8461 0.0000
-0.7478 -0.8974 0.0000
-0.7906 -0.9487 0.0000
-0.8333 -1.0000 0.0000
-0.1664 -0.2496 0.0000
-0.1998 -0.2996 0.0000
-0.2331 -0.3497 0.0000
-0.2665 -0.3997 0.0000
-0.2998 -0.4497 0.0000
-0.3332 -0.4997 0.0000
-0.3665 -0.5498 0.0000
-0.3999 -0.5998 0.0000
-0.4332 -0.6498 0.0000
-0.4666 -0.6998 0.0000
-0.4999 -0.7499 0.0000
-0.5333 -0.7999 0.0000
-0.5666 -0.8499 0.0000
-0.6000 -0.8999 0.0000
-0.6333 -0.9500 0.0000
-0.6667 -1.0000 0.0000
-0.1342 -0.2683 0.0000
-0.1586 -0.3171 0.0000
-0.1829 -0.3659 0.0000
-0.2073 -0.4147 0.0000
-0.2317 -0.4634 0.0000
-0.2561 -0.5122 0.0000
-0.2805 -0.5610 0.0000
[...]
         <PointData>
            <DataArray Name="fValues" NumberOfComponents="3" format="ascii" type="Float64">
 2.02621e-01 -1.59754e-02        00000 
 2.14833e-01 -2.27281e-02        00000 
 2.21835e-01 -2.60439e-02        00000 
 2.22865e-01 -2.59151e-02        00000 
 2.20355e-01 -2.40816e-02        00000 
 2.12986e-01 -2.13356e-02        00000 
 2.03565e-01 -1.59064e-02        00000 
 1.89536e-01 -9.16435e-03        00000 
 1.76978e-01 -6.49755e-03        00000 
 1.61514e-01 -1.56493e-04        00000 
 1.49404e-01  7.44873e-03        00000 
 1.34791e-01  1.67010e-02        00000 
 1.26220e-01  2.18213e-02        00000 
 1.26662e-01  2.09120e-02        00000 
 1.39162e-01  1.40886e-02        00000 
 1.84546e-01 -5.48862e-03        00000 
 2.25219e-01 -1.95436e-02        00000 
 2.33041e-01 -2.12872e-02        00000 
 2.43626e-01 -2.32900e-02        00000 
 2.45297e-01 -2.33962e-02        00000 
 2.44346e-01 -2.18283e-02        00000 
 2.41500e-01 -2.03161e-02        00000 
 2.36730e-01 -1.81746e-02        00000 
 2.30613e-01 -1.45496e-02        00000 
 2.22935e-01 -7.99028e-03        00000 
 2.14866e-01 -1.40944e-03        00000 
 2.04818e-01  6.11806e-03        00000 
 1.95120e-01  1.58176e-02        00000 
 1.90355e-01  2.74343e-02        00000 
 1.86607e-01  3.78584e-02        00000 
 1.83887e-01  4.99438e-02        00000 
 1.89631e-01  5.64054e-02        00000 
 2.51528e-01 -2.23065e-02        00000 
 2.56441e-01 -2.18770e-02        00000 
 2.66231e-01 -2.25001e-02        00000 
 2.72127e-01 -2.16625e-02        00000 
 2.72899e-01 -1.99962e-02        00000 
 2.71631e-01 -1.80958e-02        00000 
 2.70493e-01 -1.71556e-02        00000 
 2.69442e-01 -1.58106e-02        00000 
 2.65932e-01 -1.12961e-02        00000 
 2.62748e-01 -5.31398e-03        00000 
 2.58795e-01  3.91839e-03        00000 
 2.53726e-01  9.68112e-03        00000 
 2.49874e-01  1.83763e-02        00000 
 2.48608e-01  2.76576e-02        00000 
 2.39908e-01  3.75186e-02        00000 
 2.31256e-01  4.51619e-02        00000 
 2.82327e-01 -2.64644e-02        00000 
 2.86477e-01 -2.43438e-02        00000 
 2.94613e-01 -2.31689e-02        00000 
 3.00663e-01 -2.06330e-02        00000 
 3.02920e-01 -1.83655e-02        00000 
 3.05197e-01 -1.68981e-02        00000 
 3.08540e-01 -1.61580e-02        00000 
 3.09658e-01 -1.48991e-02        00000 
 3.07003e-01 -1.22432e-02        00000 
 3.04482e-01 -8.18491e-03        00000 
 3.05443e-01 -3.76189e-03        00000 
 3.07708e-01  3.26520e-03        00000 
 3.06340e-01  9.18753e-03        00000 
 3.00004e-01  1.39521e-02        00000 
 2.98194e-01  1.85790e-02        00000 
 2.94113e-01  2.33010e-02        00000 
 3.16299e-01 -3.31430e-02        00000 
 3.18870e-01 -2.93758e-02        00000 
 3.24813e-01 -2.64196e-02        00000 
 3.29866e-01 -2.33663e-02        00000 
 3.34006e-01 -2.09109e-02        00000 
 3.38105e-01 -1.93408e-02        00000 
 3.42567e-01 -1.91008e-02        00000 
 3.46347e-01 -1.82864e-02        00000 
 3.48714e-01 -1.69202e-02        00000 
 3.50124e-01 -1.37135e-02        00000 
 3.54234e-01 -1.02284e-02        00000 
 3.62253e-01 -7.11012e-03        00000 
 3.63564e-01 -3.70951e-03        00000 
 3.61511e-01  1.00289e-03        00000 
 3.64766e-01  3.59401e-03        00000 
 3.63111e-01  1.21561e-02        00000 
 3.50952e-01 -4.08071e-02        00000 
 3.54849e-01 -3.74610e-02        00000 
 3.56597e-01 -3.42829e-02        00000 
 3.60232e-01 -3.06672e-02        00000 
 3.64386e-01 -2.86724e-02        00000 
 3.70986e-01 -2.83493e-02        00000 
 3.76616e-01 -2.79093e-02        00000 
 3.79754e-01 -2.62827e-02        00000 
 3.86450e-01 -2.61286e-02        00000 
 3.95660e-01 -2.51830e-02        00000 
 4.05001e-01 -2.33758e-02        00000 
 4.10062e-01 -2.07209e-02        00000 
 4.14996e-01 -1.63607e-02        00000 
 4.17748e-01 -1.21144e-02        00000 
 4.26253e-01 -1.24030e-02        00000 
 4.34899e-01 -5.66936e-03        00000 
 3.89945e-01 -5.16068e-02        00000 
 3.92019e-01 -4.78846e-02        00000 
 3.88906e-01 -4.39436e-02        00000 
 3.91863e-01 -4.31035e-02        00000 
 3.98104e-01 -4.20082e-02        00000 
 4.05570e-01 -4.12055e-02        00000 
 4.11244e-01 -3.88666e-02        00000 
 4.17581e-01 -3.69370e-02        00000 
 4.27197e-01 -3.66214e-02        00000 
 4.38759e-01 -3.53318e-02        00000 
 4.52042e-01 -3.38508e-02        00000 
 4.60706e-01 -3.11013e-02        00000 
 4.65341e-01 -2.69775e-02        00000 
 4.76976e-01 -2.71961e-02        00000 
 4.89612e-01 -2.88324e-02        00000 
 5.02057e-01 -2.70745e-02        00000 
 4.23443e-01 -6.36955e-02        00000 
 4.23287e-01 -6.00662e-02        00000 
 4.22029e-01 -5.85993e-02        00000 
 4.24518e-01 -5.79184e-02        00000 
 4.32223e-01 -5.68224e-02        00000 
 4.40935e-01 -5.52739e-02        00000 
 4.48963e-01 -5.23199e-02        00000 
 4.58870e-01 -4.95588e-02        00000 
 4.70443e-01 -4.61639e-02        00000 
 4.82062e-01 -4.29504e-02        00000 
 4.96814e-01 -4.10505e-02        00000 
 5.09813e-01 -3.74024e-02        00000 
 5.19571e-01 -3.42660e-02        00000 
 5.34752e-01 -3.59204e-02        00000 
 5.53783e-01 -3.61226e-02        00000 
 5.67566e-01 -3.02697e-02        00000 
 4.51408e-01 -7.58055e-02        00000 
 4.51768e-01 -7.48584e-02        00000 
 4.50570e-01 -7.43012e-02        00000 
 4.51526e-01 -7.13367e-02        00000 
 4.62252e-01 -6.84621e-02        00000 
 4.74986e-01 -6.64719e-02        00000 
 4.85977e-01 -6.36049e-02        00000 
 4.99432e-01 -6.00162e-02        00000 
 5.12938e-01 -5.53644e-02        00000 
 5.27501e-01 -5.05530e-02        00000 
 5.42620e-01 -4.53043e-02        00000 
 5.58069e-01 -4.07088e-02        00000 
 5.77427e-01 -3.88474e-02        00000 
 5.98485e-01 -3.68515e-02        00000 
 6.20477e-01 -3.29185e-02        00000 
 6.33355e-01 -2.47538e-02        00000 
 4.73856e-01 -8.82794e-02        00000 
 4.75069e-01 -8.92507e-02        00000 
 4.73491e-01 -8.62821e-02        00000 
 4.76416e-01 -8.32196e-02        00000 
 4.88561e-01 -7.92020e-02        00000 
 5.04574e-01 -7.59548e-02        00000 
 5.21063e-01 -7.17362e-02        00000 
 5.38551e-01 -6.65005e-02        00000 
 5.55538e-01 -5.90356e-02        00000 
 5.72313e-01 -5.12118e-02        00000 
 5.93558e-01 -4.61150e-02        00000 
 6.12131e-01 -4.21111e-02        00000 
 6.32843e-01 -3.55224e-02        00000 
 6.55742e-01 -2.84908e-02        00000 
 6.79977e-01 -2.01222e-02        00000 
 7.05288e-01 -8.75864e-03        00000 
 4.88201e-01 -9.88306e-02        00000 
 4.91626e-01 -9.96254e-02        00000 
 4.92303e-01 -9.56587e-02        00000 
 4.97816e-01 -9.09482e-02        00000 
 5.12671e-01 -8.60576e-02        00000 
 5.31079e-01 -8.13499e-02        00000 
 5.53204e-01 -7.62655e-02        00000 
 5.72813e-01 -6.90368e-02        00000 
 5.93934e-01 -5.79446e-02        00000 
 6.15852e-01 -4.66739e-02        00000 
 6.39533e-01 -3.66239e-02        00000 
 6.59576e-01 -2.59583e-02        00000 
 6.83866e-01 -1.69306e-02        00000 
 7.10956e-01 -6.65628e-03        00000 
 7.41404e-01  3.74307e-03        00000 
 7.65484e-01  1.68028e-02        00000 
 4.97627e-01 -1.07066e-01        00000 
 5.03629e-01 -1.07330e-01        00000 
 5.07062e-01 -1.01926e-01        00000 
 5.17595e-01 -9.66989e-02        00000 
 5.36854e-01 -9.00747e-02        00000 
 5.55556e-01 -8.20215e-02        00000 
 5.79783e-01 -7.43244e-02        00000 
 6.05666e-01 -6.28638e-02        00000 
 6.32639e-01 -5.05457e-02        00000 
 6.59269e-01 -3.82789e-02        00000 
 6.86527e-01 -2.39378e-02        00000 
 7.16244e-01 -1.15104e-02        00000 
 7.43843e-01 -4.17070e-04        00000 
 7.69555e-01  1.50989e-02        00000 
 7.93139e-01  3.25658e-02        00000 
 8.10116e-01  4.39895e-02        00000 
 5.02921e-01 -1.13047e-01        00000 
 5.09320e-01 -1.11010e-01        00000 
 5.16778e-01 -1.05400e-01        00000 
 5.32689e-01 -9.84409e-02        00000 
 5.54852e-01 -8.99410e-02        00000 
 5.77859e-01 -7.84546e-02        00000 
 6.05793e-01 -6.58162e-02        00000 
 6.38125e-01 -5.35743e-02        00000 
 6.71337e-01 -4.19354e-02        00000 
 7.04280e-01 -2.77808e-02        00000 
 7.37479e-01 -1.41645e-02        00000 
 7.67686e-01 -1.82683e-03        00000 
 7.99200e-01  1.13698e-02        00000 
 8.20188e-01  2.30773e-02        00000 
 8.22889e-01  2.73597e-02        00000 
 7.91902e-01  1.14466e-02        00000 
 5.05402e-01 -1.17994e-01        00000 
 5.11708e-01 -1.15492e-01        00000 
 5.19557e-01 -1.10728e-01        00000 
 5.31393e-01 -1.02646e-01        00000 
 5.49296e-01 -9.34509e-02        00000 
 5.71868e-01 -8.35329e-02        00000 
 5.95855e-01 -7.32199e-02        00000 
 6.19501e-01 -6.26679e-02        00000 
 6.48109e-01 -5.26376e-02        00000 
 6.81777e-01 -4.41286e-02        00000 
 7.13613e-01 -3.27342e-02        00000 
 7.48809e-01 -2.30571e-02        00000 
 7.84421e-01 -1.64781e-02        00000 
 8.27216e-01 -1.12535e-02        00000 
 8.66196e-01 -1.05781e-02        00000 
 9.02679e-01 -1.22014e-02        00000 
 5.03932e-01 -1.22496e-01        00000 
 5.11084e-01 -1.18152e-01        00000 
 5.19318e-01 -1.13857e-01        00000 
 5.28076e-01 -1.06272e-01        00000 
 5.42527e-01 -9.77056e-02        00000 
 5.59121e-01 -8.78025e-02        00000 
 5.79849e-01 -7.91028e-02        00000 
 6.02274e-01 -6.94543e-02        00000 
 6.24774e-01 -6.01067e-02        00000 
 6.51335e-01 -5.32973e-02        00000 
 6.78689e-01 -4.55015e-02        00000 
 7.09242e-01 -3.81374e-02        00000 
 7.38946e-01 -3.08195e-02        00000 
 7.70931e-01 -2.27128e-02        00000 
 8.02215e-01 -1.47202e-02        00000 
 8.38815e-01 -7.06880e-03        00000 
 4.97669e-01 -1.25127e-01        00000 
 5.06178e-01 -1.20031e-01        00000 
 5.10671e-01 -1.11416e-01        00000 
 5.19434e-01 -1.04682e-01        00000 
 5.31396e-01 -9.71451e-02        00000 
 5.44537e-01 -8.72683e-02        00000 
 5.59804e-01 -7.84598e-02        00000 
 5.75470e-01 -7.35547e-02        00000 
 5.96740e-01 -6.78198e-02        00000 
 6.18954e-01 -6.08828e-02        00000 
 6.37159e-01 -5.35240e-02        00000 
 6.60480e-01 -4.77103e-02        00000 
 6.86112e-01 -4.03698e-02        00000 
 7.11188e-01 -3.26286e-02        00000 
 7.37449e-01 -2.23221e-02        00000 
 7.62418e-01 -1.31697e-02        00000 
 4.85819e-01 -1.25127e-01        00000 
 4.91997e-01 -1.17926e-01        00000 
 4.95816e-01 -1.08399e-01        00000 
 5.00605e-01 -1.00068e-01        00000 
 5.10096e-01 -9.18350e-02        00000 
 5.20310e-01 -8.36161e-02        00000 
 5.33231e-01 -7.65793e-02        00000 
 5.46340e-01 -7.14275e-02        00000 
 5.60296e-01 -6.65003e-02        00000 
 5.75166e-01 -6.14326e-02        00000 
 5.86690e-01 -5.38823e-02        00000 
 6.05633e-01 -4.79954e-02        00000 
 6.26778e-01 -4.14967e-02        00000 
 6.43662e-01 -3.45591e-02        00000 
 6.67486e-01 -2.95993e-02        00000 
 6.81696e-01 -2.05698e-02        00000 
 4.66496e-01 -1.23261e-01        00000 
 4.69128e-01 -1.14839e-01        00000 
 4.70622e-01 -1.04588e-01        00000 
 4.72632e-01 -9.35447e-02        00000 
 4.79997e-01 -8.52097e-02        00000 
 4.86715e-01 -7.73897e-02        00000 
 4.98523e-01 -7.24118e-02        00000 
 5.07372e-01 -6.80148e-02        00000 
 5.16704e-01 -6.15994e-02        00000 
 5.25999e-01 -5.52608e-02        00000 
 5.34880e-01 -5.02887e-02        00000 
 5.48189e-01 -4.58627e-02        00000 
 5.58856e-01 -3.92976e-02        00000 
 5.71518e-01 -3.37092e-02        00000 
 5.86597e-01 -2.87903e-02        00000 
 5.98009e-01 -2.25353e-02        00000 
 4.39629e-01 -1.21513e-01        00000 
 4.39711e-01 -1.11917e-01        00000 
 4.36267e-01 -9.93682e-02        00000 
 4.34596e-01 -8.64437e-02        00000 
 4.36663e-01 -7.73504e-02        00000 
 4.42725e-01 -7.02612e-02        00000 
 4.49127e-01 -6.55431e-02        00000 
 4.54075e-01 -6.00507e-02        00000 
 4.56611e-01 -5.21654e-02        00000 
 4.61618e-01 -4.46664e-02        00000 
 4.68815e-01 -4.15123e-02        00000 
 4.77097e-01 -3.93315e-02        00000 
 4.80621e-01 -3.43306e-02        00000 
 4.87914e-01 -2.97593e-02        00000 
 4.93445e-01 -2.35053e-02        00000 
 5.03862e-01 -1.79989e-02        00000 
 4.06317e-01 -1.18757e-01        00000 
 4.03985e-01 -1.09386e-01        00000 
 3.97366e-01 -9.48806e-02        00000 
 3.92221e-01 -8.07802e-02        00000 
 3.93176e-01 -7.13770e-02        00000 
 3.92380e-01 -6.46023e-02        00000 
 3.91562e-01 -5.81547e-02        00000 
 3.92241e-01 -5.20730e-02        00000 
 3.93700e-01 -4.57789e-02        00000 
 3.94784e-01 -4.02747e-02        00000 
 3.98149e-01 -3.53518e-02        00000 
 4.00308e-01 -3.19422e-02        00000 
 4.02648e-01 -2.86976e-02        00000 
 4.04748e-01 -2.32526e-02        00000 
 4.03317e-01 -1.29128e-02        00000 
 4.04420e-01 -5.26921e-03        00000 
 3.69308e-01 -1.16010e-01        00000 
 3.63553e-01 -1.05650e-01        00000 
 3.53757e-01 -9.08647e-02        00000 
 3.45517e-01 -7.63347e-02        00000 
 3.42435e-01 -6.67277e-02        00000 
 3.39761e-01 -5.98319e-02        00000 
 3.38546e-01 -5.48777e-02        00000 
 3.36484e-01 -4.96184e-02        00000 
 3.33694e-01 -4.40500e-02        00000 
 3.29852e-01 -3.85072e-02        00000 
 3.30150e-01 -3.21331e-02        00000 
 3.30459e-01 -2.59536e-02        00000 
 3.27135e-01 -2.01544e-02        00000 
 3.25633e-01 -1.08554e-02        00000 
 3.23377e-01 -1.72982e-03        00000 
 3.17873e-01  5.80785e-03        00000 
 3.34799e-01 -1.12352e-01        00000 
 3.24306e-01 -1.01739e-01        00000 
 3.11732e-01 -8.69617e-02        00000 
 3.03106e-01 -7.54416e-02        00000 
 2.98340e-01 -6.62938e-02        00000 
 2.95639e-01 -6.01982e-02        00000 
 2.90809e-01 -5.44095e-02        00000 
 2.84406e-01 -4.85978e-02        00000 
 2.78556e-01 -4.17339e-02        00000 
 2.71891e-01 -3.45466e-02        00000 
 2.64761e-01 -2.73823e-02        00000 
 2.62169e-01 -2.03897e-02        00000 
 2.56072e-01 -1.38382e-02        00000 
 2.50580e-01 -3.45244e-03        00000 
 2.42721e-01  7.24744e-03        00000 
 2.33474e-01  1.86998e-02        00000 
 3.03153e-01 -1.07604e-01        00000 
 2.89865e-01 -9.79224e-02        00000 
 2.76401e-01 -8.55898e-02        00000 
 2.66107e-01 -7.50661e-02        00000 
 2.60919e-01 -6.85892e-02        00000 
 2.53868e-01 -6.23944e-02        00000 
 2.44262e-01 -5.40780e-02        00000 
 2.37922e-01 -4.70455e-02        00000 
 2.28517e-01 -3.88167e-02        00000 
 2.17809e-01 -3.03241e-02        00000 
 2.10579e-01 -2.17977e-02        00000 
 2.00652e-01 -1.33852e-02        00000 
 1.93859e-01 -5.92303e-03        00000 
 1.84935e-01  5.14034e-03        00000 
 1.74288e-01  1.73454e-02        00000 
 1.60167e-01  2.85087e-02        00000 
 2.76410e-01 -1.02313e-01        00000 
 2.62475e-01 -9.52925e-02        00000 
 2.46946e-01 -8.41184e-02        00000 
 2.36151e-01 -7.52824e-02        00000 
 2.26905e-01 -6.91085e-02        00000 
 2.15049e-01 -6.16197e-02        00000 
 2.07572e-01 -5.26544e-02        00000 
 1.98165e-01 -4.37970e-02        00000 
 1.85618e-01 -3.32130e-02        00000 
 1.72257e-01 -2.26068e-02        00000 
 1.59636e-01 -1.28362e-02        00000 
 1.47116e-01 -3.04134e-03        00000 
 1.35829e-01  8.05598e-03        00000 
 1.27840e-01  2.01902e-02        00000 
 1.12437e-01  2.97922e-02        00000 
 1.00491e-01  3.25613e-02        00000 
 2.55382e-01 -9.98227e-02        00000 
 2.39623e-01 -9.26274e-02        00000 
 2.23180e-01 -8.32149e-02        00000 
 2.10758e-01 -7.47293e-02        00000 
 1.97400e-01 -6.69252e-02        00000 
 1.85638e-01 -5.98583e-02        00000 
 1.75284e-01 -4.90184e-02        00000 
 1.60501e-01 -3.59422e-02        00000 
 1.44756e-01 -2.48108e-02        00000 
 1.33217e-01 -1.43955e-02        00000 
 1.17889e-01 -1.58746e-03        00000 
 1.01471e-01  1.09979e-02        00000 
 8.73060e-02  2.22566e-02        00000 
 7.18664e-02  3.65305e-02        00000 
 5.76537e-02  4.64648e-02        00000 
 4.32430e-02  5.49567e-02        00000 
 2.35202e-01 -9.76125e-02        00000 
 2.22078e-01 -9.41068e-02        00000 
 2.06906e-01 -8.56782e-02        00000 
 1.96975e-01 -7.85409e-02        00000 
 1.84108e-01 -7.08688e-02        00000 
 1.71526e-01 -6.44789e-02        00000 
 1.60278e-01 -5.81398e-02        00000 
 1.45983e-01 -4.84537e-02        00000 
 1.36275e-01 -3.70934e-02        00000 
 1.20805e-01 -2.78594e-02        00000 
 1.10010e-01 -1.83009e-02        00000 
 9.44612e-02 -6.62045e-03        00000 
 7.57842e-02  5.99411e-03        00000 
 6.15784e-02  1.55363e-02        00000 
 4.53277e-02  2.71128e-02        00000 
 2.44063e-02  3.64734e-02        00000 
 2.12866e-01 -9.39194e-02        00000 
 2.01297e-01 -9.25211e-02        00000 
 1.88917e-01 -8.81229e-02        00000 
 1.79150e-01 -8.25715e-02        00000 
 1.68513e-01 -7.52125e-02        00000 
 1.57355e-01 -6.83457e-02        00000 
 1.44690e-01 -6.26472e-02        00000 
 1.31723e-01 -5.73380e-02        00000 
 1.20077e-01 -4.98422e-02        00000 
 1.10282e-01 -4.21376e-02        00000 
 9.76366e-02 -3.33147e-02        00000 
 8.45313e-02 -2.36919e-02        00000 
 7.07918e-02 -1.48588e-02        00000 
 5.57657e-02 -5.92452e-03        00000 
 3.79379e-02  3.87356e-03        00000 
 2.06628e-02  1.74715e-02        00000 
 1.88774e-01 -8.82709e-02        00000 
 1.79479e-01 -8.83409e-02        00000 
 1.70147e-01 -8.68260e-02        00000 
 1.61635e-01 -8.44283e-02        00000 
 1.52312e-01 -7.98010e-02        00000 
 1.41323e-01 -7.26887e-02        00000 
 1.29824e-01 -6.65432e-02        00000 
 1.18371e-01 -6.18145e-02        00000 
 1.05595e-01 -5.63894e-02        00000 
 9.39035e-02 -5.11307e-02        00000 
 8.30615e-02 -4.58553e-02        00000 
 7.03782e-02 -3.82682e-02        00000 
 5.84774e-02 -2.98040e-02        00000 
 4.61245e-02 -2.45037e-02        00000 
 3.30937e-02 -1.67784e-02        00000 
 2.06027e-02 -8.47654e-03        00000 
 1.62660e-01 -7.89038e-02        00000 
 1.55948e-01 -8.05729e-02        00000 
 1.49306e-01 -8.10320e-02        00000 
 1.43985e-01 -8.13185e-02        00000 
 1.35146e-01 -7.90521e-02        00000 
 1.25080e-01 -7.45833e-02        00000 
 1.13860e-01 -6.94468e-02        00000 
 1.01688e-01 -6.40214e-02        00000 
 9.19978e-02 -5.99018e-02        00000 
 8.14804e-02 -5.55729e-02        00000 
 7.22295e-02 -5.16655e-02        00000 
 6.14216e-02 -4.68452e-02        00000 
 4.71773e-02 -4.24136e-02        00000 
 3.41591e-02 -3.77219e-02        00000 
 2.43321e-02 -3.19744e-02        00000 
 1.13938e-02 -2.33556e-02        00000 
 1.37208e-01 -6.70297e-02        00000 
 1.32900e-01 -7.00070e-02        00000 
 1.27727e-01 -7.15450e-02        00000 
 1.21445e-01 -7.27518e-02        00000 
 1.18775e-01 -7.30296e-02        00000 
 1.11148e-01 -7.00178e-02        00000 
 1.03019e-01 -6.62522e-02        00000 
 9.44782e-02 -6.17882e-02        00000 
 8.30901e-02 -5.70231e-02        00000 
 7.18685e-02 -5.36116e-02        00000 
 6.09241e-02 -5.02086e-02        00000 
 4.94442e-02 -4.56352e-02        00000 
 3.67726e-02 -4.10632e-02        00000 
 2.39004e-02 -3.72290e-02        00000 
 1.66760e-02 -3.61577e-02        00000 
 8.20601e-03 -3.05202e-02        00000 
 1.12502e-01 -5.34594e-02        00000 
 1.09448e-01 -5.52680e-02        00000 
 1.07980e-01 -5.92061e-02        00000 
 1.04647e-01 -5.97929e-02        00000 
 1.00474e-01 -5.97150e-02        00000 
 9.40588e-02 -5.77279e-02        00000 
 8.80660e-02 -5.53753e-02        00000 
 8.05997e-02 -5.05692e-02        00000 
 7.10124e-02 -4.82166e-02        00000 
 6.12431e-02 -4.50395e-02        00000 
 5.05630e-02 -4.28144e-02        00000 
 3.93893e-02 -3.88132e-02        00000 
 2.84374e-02 -3.47076e-02        00000 
 1.93416e-02 -3.24003e-02        00000 
 1.21259e-02 -2.87066e-02        00000 
-4.51606e-04 -2.27621e-02        00000 
 9.15518e-02 -4.04293e-02        00000 