<?xml version="1.0" encoding="utf-8"?>
<VTKFile byte_order="LittleEndian" type="UnstructuredGrid" version="0.1">
   <UnstructuredGrid>
      <Piece NumberOfCells="720" NumberOfPoints="768">
         <Points>
            <DataArray Name="Points" NumberOfComponents="3" format="ascii" type="Float32">
0.2121 0.2121 0.0000
0.2647 0.2647 0.0000
0.3172 0.3172 0.0000
0.3697 0.3697 0.0000
0.4222 0.4222 0.0000
0.4748 0.4748 0.0000
0.5273 0.5273 0.0000
0.5798 0.5798 0.0000
0.6323 0.6323 0.0000
0.6849 0.6849 0.0000
0.7374 0.7374 0.0000
0.7899 0.7899 0.0000
0.8424 0.8424 0.0000
0.8950 0.8950 0.0000
0.9475 0.9475 0.0000
1.0000 1.0000 0.0000
0.1921 0.2305 0.0000
0.2348 0.2818 0.0000
0.2776 0.3331 0.0000
0.3203 0.3844 0.0000
0.3631 0.4357 0.0000
0.4058 0.4870 0.0000
0.4486 0.5383 0.0000
0.4913 0.5896 0.0000
0.5341 0.6409 0.0000
0.5768 0.6922 0.0000
0.6196 0.7435 0.0000
0.6623 0.7948 0.0000
0.7051 0.8461 0.0000
0.7478 0.8974 0.0000
0.7906 0.9487 0.0000
0.8333 1.0000 0.0000
0.1664 0.2496 0.0000
0.1998 0.2996 0.0000
0.2331 0.3497 0.0000
0.2665 0.3997 0.0000
0.2998 0.4497 0.0000
0.3332 0.4997 0.0000
0.3665 0.5498 0.0000
0.3999 0.5998 0.0000
0.4332 0.6498 0.0000
0.4666 0.6998 0.0000
0.4999 0.7499 0.0000
0.5333 0.7999 0.0000
0.5666 0.8499 0.0000
0.6000 0.8999 0.0000
0.6333 0.9500 0.0000
0.6667 1.0000 0.0000
0.1342 0.2683 0.0000
0.1586 0.3171 0.0000
0.1829 0.3659 0.0000
0.2073 0.4147 0.0000
0.2317 0.4634 0.0000
0.2561 0.5122 0.0000
0.2805 0.5610 0.0000
0.3049 0.6098 0.0000
0.3293 0.6586 0.0000
0.3537 0.7073 0.0000
0.3781 0.7561 0.0000
0.4024 0.8049 0.0000
0.4268 0.8537 0.0000
0.4512 0.9024 0.0000
0.4756 0.9512 0.0000
0.5000 1.0000 0.0000
0.0949 0.2846 0.0000
0.1108 0.3323 0.0000
0.1267 0.3800 0.0000
0.1426 0.4277 0.0000
0.1585 0.4754 0.0000
0.1744 0.5231 0.0000
0.1903 0.5708 0.0000
0.2062 0.6185 0.0000
0.2220 0.6661 0.0000
0.2379 0.7138 0.0000
0.2538 0.7615 0.0000
0.2697 0.8092 0.0000
0.2856 0.8569 0.0000
0.3015 0.9046 0.0000
0.3174 0.9523 0.0000
0.3333 1.0000 0.0000
0.0493 0.2959 0.0000
0.0571 0.3429 0.0000
0.0650 0.3898 0.0000
0.0728 0.4367 0.0000
0.0806 0.4837 0.0000
0.0884 0.5306 0.0000
0.0963 0.5776 0.0000
0.1041 0.6245 0.0000
0.1119 0.6714 0.0000
0.1197 0.7184 0.0000
0.1276 0.7653 0.0000
0.1354 0.8122 0.0000
0.1432 0.8592 0.0000
0.1510 0.9061 0.0000
0.1588 0.9531 0.0000
0.1667 1.0000 0.0000
0.0000 0.3000 0.0000
0.0000 0.3467 0.0000
0.0000 0.3933 0.0000
0.0000 0.4400 0.0000
0.0000 0.4867 0.0000
0.0000 0.5333 0.0000
0.0000 0.5800 0.0000
0.0000 0.6267 0.0000
0.0000 0.6733 0.0000
0.0000 0.7200 0.0000
0.0000 0.7667 0.0000
0.0000 0.8133 0.0000
0.0000 0.8600 0.0000
0.0000 0.9067 0.0000
0.0000 0.9533 0.0000
0.0000 1.0000 0.0000
-0.0493 0.2959 0.0000
-0.0571 0.3429 0.0000
-0.0650 0.3898 0.0000
-0.0728 0.4367 0.0000
-0.0806 0.4837 0.0000
-0.0884 0.5306 0.0000
-0.0963 0.5776 0.0000
-0.1041 0.6245 0.0000
-0.1119 0.6714 0.0000
-0.1197 0.7184 0.0000
-0.1276 0.7653 0.0000
-0.1354 0.8122 0.0000
-0.1432 0.8592 0.0000
-0.1510 0.9061 0.0000
-0.1588 0.9531 0.0000
-0.1667 1.0000 0.0000
-0.0949 0.2846 0.0000
-0.1108 0.3323 0.0000
-0.1267 0.3800 0.0000
-0.1426 0.4277 0.0000
-0.1585 0.4754 0.0000
-0.1744 0.5231 0.0000
-0.1903 0.5708 0.0000
-0.2062 0.6185 0.0000
-0.2220 0.6661 0.0000
-0.2379 0.7138 0.0000
-0.2538 0.7615 0.0000
-0.2697 0.8092 0.0000
-0.2856 0.8569 0.0000
-0.3015 0.9046 0.0000
-0.3174 0.9523 0.0000
-0.3333 1.0000 0.0000
-0.1342 0.2683 0.0000
-0.1586 0.3171 0.0000
-0.1829 0.3659 0.0000
-0.2073 0.4147 0.0000
-0.2317 0.4634 0.0000
-0.2561 0.5122 0.0000
-0.2805 0.5610 0.0000
-0.3049 0.6098 0.0000
-0.3293 0.6586 0.0000
-0.3537 0.7073 0.0000
-0.3781 0.7561 0.0000
-0.4024 0.8049 0.0000
-0.4268 0.8537 0.0000
-0.4512 0.9024 0.0000
-0.4756 0.9512 0.0000
-0.5000 1.0000 0.0000
-0.1664 0.2496 0.0000
-0.1998 0.2996 0.0000
-0.2331 0.3497 0.0000
-0.2665 0.3997 0.0000
-0.2998 0.4497 0.0000
-0.3332 0.4997 0.0000
-0.3665 0.5498 0.0000
-0.3999 0.5998 0.0000
-0.4332 0.6498 0.0000
-0.4666 0.6998 0.0000
-0.4999 0.7499 0.0000
-0.5333 0.7999 0.0000
-0.5666 0.8499 0.0000
-0.6000 0.8999 0.0000
-0.6333 0.9500 0.0000
-0.6667 1.0000 0.0000
-0.1921 0.2305 0.0000
-0.2348 0.2818 0.0000
-0.2776 0.3331 0.0000
-0.3203 0.3844 0.0000
-0.3631 0.4357 0.0000
-0.4058 0.4870 0.0000
-0.4486 0.5383 0.0000
-0.4913 0.5896 0.0000
-0.5341 0.6409 0.0000
-0.5768 0.6922 0.0000
-0.6196 0.7435 0.0000
-0.6623 0.7948 0.0000
-0.7051 0.8461 0.0000
-0.7478 0.8974 0.0000
-0.7906 0.9487 0.0000
-0.8333 1.0000 0.0000
-0.2121 0.2121 0.0000
-0.2647 0.2647 0.0000
-0.3172 0.3172 0.0000
-0.3697 0.3697 0.0000
-0.4222 0.4222 0.0000
-0.4748 0.4748 0.0000
-0.5273 0.5273 0.0000
-0.5798 0.5798 0.0000
-0.6323 0.6323 0.0000
-0.6849 0.6849 0.0000
-0.7374 0.7374 0.0000
-0.7899 0.7899 0.0000
-0.8424 0.8424 0.0000
-0.8950 0.8950 0.0000
-0.9475 0.9475 0.0000
-1.0000 1.0000 0.0000
-0.2305 0.1921 0.0000
-0.2818 0.2348 0.0000
-0.3331 0.2776 0.0000
-0.3844 0.3203 0.0000
-0.4357 0.3631 0.0000
-0.4870 0.4058 0.0000
-0.5383 0.4486 0.0000
-0.5896 0.4913 0.0000
-0.6409 0.5341 0.0000
-0.6922 0.5768 0.0000
-0.7435 0.6196 0.0000
-0.7948 0.6623 0.0000
-0.8461 0.7051 0.0000
-0.8974 0.7478 0.0000
-0.9487 0.7906 0.0000
-1.0000 0.8333 0.0000
-0.2496 0.1664 0.0000
-0.2996 0.1998 0.0000
-0.3497 0.2331 0.0000
-0.3997 0.2665 0.0000
-0.4497 0.2998 0.0000
-0.4997 0.3332 0.0000
-0.5498 0.3665 0.0000
-0.5998 0.3999 0.0000
-0.6498 0.4332 0.0000
-0.6998 0.4666 0.0000
-0.7499 0.4999 0.0000
-0.7999 0.5333 0.0000
-0.8499 0.5666 0.0000
-0.8999 0.6000 0.0000
-0.9500 0.6333 0.0000
-1.0000 0.6667 0.0000
-0.2683 0.1342 0.0000
-0.3171 0.1586 0.0000
-0.3659 0.1829 0.0000
-0.4147 0.2073 0.0000
-0.4634 0.2317 0.0000
-0.5122 0.2561 0.0000
-0.5610 0.2805 0.0000
-0.6098 0.3049 0.0000
-0.6586 0.3293 0.0000
-0.7073 0.3537 0.0000
-0.7561 0.3781 0.0000
-0.8049 0.4024 0.0000
-0.8537 0.4268 0.0000
-0.9024 0.4512 0.0000
-0.9512 0.4756 0.0000
-1.0000 0.5000 0.0000
-0.2846 0.0949 0.0000
-0.3323 0.1108 0.0000
-0.3800 0.1267 0.0000
-0.4277 0.1426 0.0000
-0.4754 0.1585 0.0000
-0.5231 0.1744 0.0000
-0.5708 0.1903 0.0000
-0.6185 0.2062 0.0000
-0.6661 0.2220 0.0000
-0.7138 0.2379 0.0000
-0.7615 0.2538 0.0000
-0.8092 0.2697 0.0000
-0.8569 0.2856 0.0000
-0.9046 0.3015 0.0000
-0.9523 0.3174 0.0000
-1.0000 0.3333 0.0000
-0.2959 0.0493 0.0000
-0.3429 0.0571 0.0000
-0.3898 0.0650 0.0000
-0.4367 0.0728 0.0000
-0.4837 0.0806 0.0000
-0.5306 0.0884 0.0000
-0.5776 0.0963 0.0000
-0.6245 0.1041 0.0000
-0.6714 0.1119 0.0000
-0.7184 0.1197 0.0000
-0.7653 0.1276 0.0000
-0.8122 0.1354 0.0000
-0.8592 0.1432 0.0000
-0.9061 0.1510 0.0000
-0.9531 0.1588 0.0000
-1.0000 0.1667 0.0000
-0.3000 0.0000 0.0000
-0.3467 0.0000 0.0000
-0.3933 0.0000 0.0000
-0.4400 0.0000 0.0000
-0.4867 0.0000 0.0000
-0.5333 0.0000 0.0000
-0.5800 0.0000 0.0000
-0.6267 0.0000 0.0000
-0.6733 0.0000 0.0000
-0.7200 0.0000 0.0000
-0.7667 0.0000 0.0000
-0.8133 0.0000 0.0000
-0.8600 0.0000 0.0000
-0.9067 0.0000 0.0000
-0.9533 0.0000 0.0000
-1.0000 0.0000 0.0000
-0.2959 -0.0493 0.0000
-0.3429 -0.0571 0.0000
-0.3898 -0.0650 0.0000
-0.4367 -0.0728 0.0000
-0.4837 -0.0806 0.0000
-0.5306 -0.0884 0.0000
-0.5776 -0.0963 0.0000
-0.6245 -0.1041 0.0000
-0.6714 -0.1119 0.0000
-0.7184 -0.1197 0.0000
-0.7653 -0.1276 0.0000
-0.8122 -0.1354 0.0000
-0.8592 -0.1432 0.0000
-0.9061 -0.1510 0.0000
-0.9531 -0.1588 0.0000
-1.0000 -0.1667 0.0000
-0.2846 -0.0949 0.0000
-0.3323 -0.1108 0.0000
-0.3800 -0.1267 0.0000
-0.4277 -0.1426 0.0000
-0.4754 -0.1585 0.0000
-0.5231 -0.1744 0.0000
-0.5708 -0.1903 0.0000
-0.6185 -0.2062 0.0000
-0.6661 -0.2220 0.0000
-0.7138 -0.2379 0.0000
-0.7615 -0.2538 0.0000
-0.8092 -0.2697 0.0000
-0.8569 -0.2856 0.0000
-0.9046 -0.3015 0.0000
-0.9523 -0.3174 0.0000
-1.0000 -0.3333 0.0000
-0.2683 -0.1342 0.0000
-0.3171 -0.1586 0.0000
-0.3659 -0.1829 0.0000
-0.4147 -0.2073 0.0000
-0.4634 -0.2317 0.0000
-0.5122 -0.2561 0.0000
-0.5610 -0.2805 0.0000
-0.6098 -0.3049 0.0000
-0.6586 -0.3293 0.0000
-0.7073 -0.3537 0.0000
-0.7561 -0.3781 0.0000
-0.8049 -0.4024 0.0000
-0.8537 -0.4268 0.0000
-0.9024 -0.4512 0.0000
-0.9512 -0.4756 0.0000
-1.0000 -0.5000 0.0000
-0.2496 -0.1664 0.0000
-0.2996 -0.1998 0.0000
-0.3497 -0.2331 0.0000
-0.3997 -0.2665 0.0000
-0.4497 -0.2998 0.0000
-0.4997 -0.3332 0.0000
-0.5498 -0.3665 0.0000
-0.5998 -0.3999 0.0000
-0.6498 -0.4332 0.0000
-0.6998 -0.4666 0.0000
-0.7499 -0.4999 0.0000
-0.7999 -0.5333 0.0000
-0.8499 -0.5666 0.0000
-0.8999 -0.6000 0.0000
-0.9500 -0.6333 0.0000
-1.0000 -0.6667 0.0000
-0.2305 -0.1921 0.0000
-0.2818 -0.2348 0.0000
-0.3331 -0.2776 0.0000
-0.3844 -0.3203 0.0000
-0.4357 -0.3631 0.0000
-0.4870 -0.4058 0.0000
-0.5383 -0.4486 0.0000
-0.5896 -0.4913 0.0000
-0.6409 -0.5341 0.0000
-0.6922 -0.5768 0.0000
-0.7435 -0.6196 0.0000
-0.7948 -0.6623 0.0000
-0.8461 -0.7051 0.0000
-0.8974 -0.7478 0.0000
-0.9487 -0.7906 0.0000
-1.0000 -0.8333 0.0000
-0.2121 -0.2121 0.0000
-0.2647 -0.2647 0.0000
-0.3172 -0.3172 0.0000
-0.3697 -0.3697 0.0000
-0.4222 -0.4222 0.0000
-0.4748 -0.4748 0.0000
-0.5273 -0.5273 0.0000
-0.5798 -0.5798 0.0000
-0.6323 -0.6323 0.0000
-0.6849 -0.6849 0.0000
-0.7374 -0.7374 0.0000
-0.7899 -0.7899 0.0000
-0.8424 -0.8424 0.0000
-0.8950 -0.8950 0.0000
-0.9475 -0.9475 0.0000
-1.0000 -1.0000 0.0000
-0.1921 -0.2305 0.0000
-0.2348 -0.2818 0.0000
-0.2776 -0.3331 0.0000
-0.3203 -0.3844 0.0000
-0.3631 -0.4357 0.0000
-0.4058 -0.4870 0.0000
-0.4486 -0.5383 0.0000
-0.4913 -0.5896 0.0000
-0.5341 -0.6409 0.0000
-0.5768 -0.6922 0.0000
-0.6196 -0.7435 0.0000
-0.6623 -0.7948 0.0000
-0.7051 -0.8461 0.0000
-0.7478 -0.8974 0.0000
-0.7906 -0.9487 0.0000
-0.8333 -1.0000 0.0000
-0.1664 -0.2496 0.0000
-0.1998 -0.2996 0.0000
-0.2331 -0.3497 0.0000
-0.2665 -0.3997 0.0000
-0.2998 -0.4497 0.0000
-0.3332 -0.4997 0.0000
-0.3665 -0.5498 0.0000
-0.3999 -0.5998 0.0000
-0.4332 -0.6498 0.0000
-0.4666 -0.6998 0.0000
-0.4999 -0.7499 0.0000
-0.5333 -0.7999 0.0000
-0.5666 -0.8499 0.0000
-0.6000 -0.8999 0.0000
-0.6333 -0.9500 0.0000
-0.6667 -1.0000 0.0000
-0.1342 -0.2683 0.0000
-0.1586 -0.3171 0.0000
-0.1829 -0.3659 0.0000
-0.2073 -0.4147 0.0000
-0.2317 -0.4634 0.0000
-0.2561 -0.5122 0.0000
-0.2805 -0.5610 0.0000
[...]
         <PointData>
            <DataArray Name="fValues" NumberOfComponents="3" format="ascii" type="Float64">
 7.11592e-03  3.89760e-02        00000 
 5.74533e-03  4.03684e-02        00000 
 6.08655e-03  4.19692e-02        00000 
 4.51715e-03  3.61013e-02        00000 
 2.94470e-03  2.59330e-02        00000 
 2.63577e-04  2.08203e-02        00000 
-8.47270e-04  1.62105e-02        00000 
-3.93625e-03  8.06420e-03        00000 
-8.12281e-03 -1.37957e-03        00000 
-1.38610e-02 -5.17293e-03        00000 
-2.09733e-02 -8.91672e-03        00000 
-2.92294e-02 -1.62127e-02        00000 
-3.36202e-02 -1.82874e-02        00000 
-3.61392e-02 -2.05765e-02        00000 
-3.42212e-02 -2.30556e-02        00000 
-3.12432e-02 -2.00180e-02        00000 
 4.97238e-03  3.52913e-02        00000 
 4.26500e-03  3.68241e-02        00000 
 4.92098e-03  3.81960e-02        00000 
 4.15016e-03  3.54986e-02        00000 
 3.13559e-03  2.65031e-02        00000 
 2.04147e-03  1.84482e-02        00000 
 1.08086e-03  1.59151e-02        00000 
-6.42387e-04  1.27332e-02        00000 
-2.83823e-03  4.98727e-03        00000 
-7.78595e-03 -3.33183e-03        00000 
-1.25971e-02 -8.55384e-03        00000 
-1.68353e-02 -1.17577e-02        00000 
-2.10173e-02 -1.69303e-02        00000 
-2.51557e-02 -1.98266e-02        00000 
-2.78214e-02 -2.64614e-02        00000 
-2.81042e-02 -3.45652e-02        00000 
 2.19554e-03  3.42784e-02        00000 
 3.51391e-03  3.37386e-02        00000 
 4.90634e-03  3.56562e-02        00000 
 4.43981e-03  3.13808e-02        00000 
 4.85147e-03  2.72766e-02        00000 
 4.62858e-03  2.05034e-02        00000 
 4.29917e-03  1.57486e-02        00000 
 3.26532e-03  1.06233e-02        00000 
 2.47852e-03  5.37703e-03        00000 
 4.25914e-04  3.93158e-03        00000 
-2.28208e-03 -1.08332e-03        00000 
-6.61102e-03 -7.47905e-03        00000 
-1.37092e-02 -1.52434e-02        00000 
-2.05208e-02 -2.04411e-02        00000 
-2.25754e-02 -2.37894e-02        00000 
-2.41366e-02 -2.81256e-02        00000 
 3.59025e-04  3.45559e-02        00000 
 2.99949e-03  3.37036e-02        00000 
 6.71740e-03  3.35091e-02        00000 
 7.55498e-03  3.03144e-02        00000 
 7.85523e-03  2.47900e-02        00000 
 8.75265e-03  2.17412e-02        00000 
 9.58950e-03  1.72395e-02        00000 
 9.35019e-03  1.16365e-02        00000 
 8.42881e-03  6.48359e-03        00000 
 7.21691e-03  4.37509e-03        00000 
 4.76088e-03  2.96229e-03        00000 
 8.79300e-04 -1.71898e-03        00000 
-2.88818e-03 -9.17115e-03        00000 
-5.75790e-03 -1.33864e-02        00000 
-1.08830e-02 -1.61102e-02        00000 
-1.40324e-02 -1.97109e-02        00000 
-1.97456e-04  3.83724e-02        00000 
 3.19723e-03  3.60328e-02        00000 
 9.26774e-03  3.60031e-02        00000 
 1.37747e-02  3.48274e-02        00000 
 1.36399e-02  2.86547e-02        00000 
 1.40114e-02  2.30034e-02        00000 
 1.53396e-02  2.10449e-02        00000 
 1.51011e-02  1.83049e-02        00000 
 1.47428e-02  1.37689e-02        00000 
 1.27063e-02  1.00766e-02        00000 
 9.88585e-03  6.42412e-03        00000 
 7.05869e-03  2.25538e-03        00000 
 5.16541e-03 -3.40991e-03        00000 
 2.43299e-03 -8.89151e-03        00000 
-2.98695e-04 -1.26464e-02        00000 
-3.05128e-03 -1.83136e-02        00000 
 2.25450e-03  4.58528e-02        00000 
 6.46697e-03  4.34277e-02        00000 
 1.43189e-02  4.43386e-02        00000 
 2.00905e-02  4.57981e-02        00000 
 2.13740e-02  4.14831e-02        00000 
 2.29967e-02  3.76442e-02        00000 
 2.42108e-02  3.38572e-02        00000 
 2.43294e-02  2.99493e-02        00000 
 2.36753e-02  2.66447e-02        00000 
 2.09178e-02  2.17575e-02        00000 
 1.84688e-02  1.52425e-02        00000 
 1.67532e-02  1.10432e-02        00000 
 1.39771e-02  4.84238e-03        00000 
 1.12404e-02 -1.58960e-03        00000 
 8.89070e-03 -3.38180e-03        00000 
 6.79468e-03 -1.01945e-02        00000 
 4.72848e-03  6.07352e-02        00000 
 1.12244e-02  5.88628e-02        00000 
 2.06386e-02  6.03844e-02        00000 
 2.44237e-02  6.19314e-02        00000 
 2.73117e-02  5.98220e-02        00000 
 3.07278e-02  5.79229e-02        00000 
 3.26918e-02  5.46271e-02        00000 
 3.32449e-02  4.98300e-02        00000 
 3.31033e-02  4.57056e-02        00000 
 3.03609e-02  3.86090e-02        00000 
 2.69961e-02  2.89012e-02        00000 
 2.55872e-02  2.01171e-02        00000 
 2.40793e-02  1.48518e-02        00000 
 2.09392e-02  1.10248e-02        00000 
 1.85656e-02  5.97545e-03        00000 
 1.59076e-02  2.29559e-04        00000 
 6.65909e-03  8.01103e-02        00000 
 1.67666e-02  8.19909e-02        00000 
 2.39059e-02  8.41757e-02        00000 
 3.01029e-02  8.84164e-02        00000 
 3.39686e-02  8.70855e-02        00000 
 3.63378e-02  8.28673e-02        00000 
 3.69231e-02  7.66526e-02        00000 
 3.71907e-02  7.23569e-02        00000 
 3.68518e-02  6.69569e-02        00000 
 3.59416e-02  6.09169e-02        00000 
 3.37887e-02  5.05406e-02        00000 
 3.26203e-02  4.12081e-02        00000 
 3.21756e-02  3.31692e-02        00000 
 2.83890e-02  2.52046e-02        00000 
 2.46037e-02  1.59407e-02        00000 
 2.30190e-02  8.16142e-03        00000 
 7.93157e-03  1.02642e-01        00000 
 1.73019e-02  1.06123e-01        00000 
 2.62564e-02  1.11636e-01        00000 
 3.35372e-02  1.15868e-01        00000 
 3.58351e-02  1.12505e-01        00000 
 3.67589e-02  1.07438e-01        00000 
 3.71568e-02  1.02870e-01        00000 
 3.68845e-02  9.57438e-02        00000 
 3.65039e-02  8.92082e-02        00000 
 3.51869e-02  8.12450e-02        00000 
 3.31639e-02  7.12682e-02        00000 
 3.19443e-02  6.20829e-02        00000 
 2.96149e-02  5.14420e-02        00000 
 2.67644e-02  3.82392e-02        00000 
 2.45100e-02  2.69047e-02        00000 
 2.47437e-02  1.73463e-02        00000 
 9.67246e-03  1.30145e-01        00000 
 1.73231e-02  1.34792e-01        00000 
 2.66203e-02  1.43072e-01        00000 
 3.31459e-02  1.47136e-01        00000 
 3.54780e-02  1.42219e-01        00000 
 3.64248e-02  1.35480e-01        00000 
 3.61434e-02  1.29839e-01        00000 
 3.55986e-02  1.23178e-01        00000 
 3.40197e-02  1.14072e-01        00000 
 3.10189e-02  1.02535e-01        00000 
 2.82250e-02  9.36218e-02        00000 
 2.59088e-02  8.36403e-02        00000 
 2.37401e-02  6.94033e-02        00000 
 2.05815e-02  5.59634e-02        00000 
 1.79644e-02  3.86868e-02        00000 
 1.73963e-02  2.23169e-02        00000 
 1.05345e-02  1.57312e-01        00000 
 1.71223e-02  1.64911e-01        00000 
 2.55117e-02  1.72770e-01        00000 
 3.04865e-02  1.77242e-01        00000 
 3.27609e-02  1.71165e-01        00000 
 3.36103e-02  1.64411e-01        00000 
 3.20859e-02  1.57308e-01        00000 
 2.94389e-02  1.50026e-01        00000 
 2.61691e-02  1.38823e-01        00000 
 2.27641e-02  1.24173e-01        00000 
 2.03011e-02  1.10344e-01        00000 
 1.81399e-02  9.47478e-02        00000 
 1.50594e-02  8.07621e-02        00000 
 1.16554e-02  6.38862e-02        00000 
 1.03408e-02  4.39908e-02        00000 
 1.08674e-02  2.81985e-02        00000 
 1.17287e-02  1.81827e-01        00000 
 1.75455e-02  1.90947e-01        00000 
 2.36501e-02  1.99093e-01        00000 
 2.80870e-02  2.03057e-01        00000 
 2.93190e-02  1.97025e-01        00000 
 2.88908e-02  1.89562e-01        00000 
 2.60139e-02  1.81355e-01        00000 
 2.17295e-02  1.71038e-01        00000 
 1.68801e-02  1.57238e-01        00000 
 1.23568e-02  1.41753e-01        00000 
 8.64266e-03  1.26911e-01        00000 
 4.68606e-03  1.11942e-01        00000 
 3.15083e-03  9.26752e-02        00000 
 1.27398e-03  7.29434e-02        00000 
 3.88454e-03  4.98025e-02        00000 
 1.40202e-02  3.20154e-02        00000 
 1.35690e-02  2.02773e-01        00000 
 1.87169e-02  2.12673e-01        00000 
 2.39192e-02  2.22620e-01        00000 
 2.69781e-02  2.23952e-01        00000 
 2.56891e-02  2.19843e-01        00000 
 2.33409e-02  2.11483e-01        00000 
 1.92507e-02  2.03148e-01        00000 
 1.23212e-02  1.90843e-01        00000 
 5.61287e-03  1.77846e-01        00000 
 3.45799e-04  1.62052e-01        00000 
-6.05696e-03  1.51514e-01        00000 
-1.40565e-02  1.37543e-01        00000 
-1.98996e-02  1.26580e-01        00000 
-1.97428e-02  1.25948e-01        00000 
-1.18351e-02  1.40963e-01        00000 
 6.48755e-03  1.81826e-01        00000 
 1.62265e-02  2.24617e-01        00000 
 1.93072e-02  2.32736e-01        00000 
 2.22698e-02  2.42167e-01        00000 
 2.46553e-02  2.46183e-01        00000 
 2.44750e-02  2.46428e-01        00000 
 2.11586e-02  2.41580e-01        00000 
 1.71598e-02  2.36611e-01        00000 
 1.37811e-02  2.31382e-01        00000 
 8.28999e-03  2.24602e-01        00000 
 8.92671e-04  2.15899e-01        00000 
-7.75452e-03  2.04227e-01        00000 
-1.63872e-02  1.95569e-01        00000 
-2.70706e-02  1.93969e-01        00000 
-3.90979e-02  1.89068e-01        00000 
-5.04893e-02  1.89135e-01        00000 
-5.45011e-02  1.88075e-01        00000 
 2.00195e-02  2.51693e-01        00000 
 2.02673e-02  2.56158e-01        00000 
 2.15180e-02  2.65685e-01        00000 
 2.28046e-02  2.71328e-01        00000 
 2.24430e-02  2.75219e-01        00000 
 2.14668e-02  2.74312e-01        00000 
 1.78794e-02  2.70942e-01        00000 
 1.37778e-02  2.67875e-01        00000 
 9.90095e-03  2.63880e-01        00000 
 4.18415e-03  2.59812e-01        00000 
-4.12787e-03  2.53654e-01        00000 
-1.32636e-02  2.50326e-01        00000 
-2.12425e-02  2.49758e-01        00000 
-2.82594e-02  2.46540e-01        00000 
-3.34274e-02  2.41976e-01        00000 
-4.42024e-02  2.33214e-01        00000 
 2.49177e-02  2.83421e-01        00000 
 2.25080e-02  2.87113e-01        00000 
 2.18814e-02  2.91702e-01        00000 
 2.13432e-02  2.98594e-01        00000 
 2.03537e-02  3.03829e-01        00000 
 2.00561e-02  3.07230e-01        00000 
 1.87573e-02  3.07108e-01        00000 
 1.69488e-02  3.08001e-01        00000 
 1.32822e-02  3.06133e-01        00000 
 8.17477e-03  3.04146e-01        00000 
 2.07167e-03  3.02494e-01        00000 
-3.74596e-03  3.03253e-01        00000 
-1.02790e-02  3.05649e-01        00000 
-1.44967e-02  3.05741e-01        00000 
-1.94927e-02  2.98521e-01        00000 
-2.58319e-02  2.98894e-01        00000 
 3.11263e-02  3.17939e-01        00000 
 2.77674e-02  3.20463e-01        00000 
 2.47401e-02  3.21999e-01        00000 
 2.38043e-02  3.28560e-01        00000 
 2.35342e-02  3.36320e-01        00000 
 2.30553e-02  3.40651e-01        00000 
 2.16595e-02  3.45662e-01        00000 
 1.92410e-02  3.49007e-01        00000 
 1.54903e-02  3.52018e-01        00000 
 1.20929e-02  3.53979e-01        00000 
 1.04081e-02  3.54504e-01        00000 
 6.19416e-03  3.54919e-01        00000 
 2.18423e-03  3.60370e-01        00000 
 3.79486e-04  3.64867e-01        00000 
-4.69606e-03  3.61481e-01        00000 
-8.07254e-03  3.65947e-01        00000 
 3.93461e-02  3.53377e-01        00000 
 3.65594e-02  3.57399e-01        00000 
 3.39568e-02  3.58679e-01        00000 
 3.24790e-02  3.61773e-01        00000 
 3.14989e-02  3.67351e-01        00000 
 3.12093e-02  3.74280e-01        00000 
 2.75753e-02  3.78908e-01        00000 
 2.50542e-02  3.85863e-01        00000 
 2.26557e-02  3.90366e-01        00000 
 2.03335e-02  3.97020e-01        00000 
 1.90085e-02  4.01838e-01        00000 
 1.61582e-02  4.07676e-01        00000 
 1.36055e-02  4.13569e-01        00000 
 1.25775e-02  4.21254e-01        00000 
 1.09850e-02  4.24996e-01        00000 
 8.19846e-03  4.32479e-01        00000 
 5.25630e-02  3.89953e-01        00000 
 4.82284e-02  3.92291e-01        00000 
 4.67061e-02  3.92938e-01        00000 
 4.48287e-02  3.94789e-01        00000 
 4.34130e-02  4.00282e-01        00000 
 4.12946e-02  4.07146e-01        00000 
 3.83907e-02  4.16183e-01        00000 
 3.60595e-02  4.25204e-01        00000 
 3.49876e-02  4.33573e-01        00000 
 3.31154e-02  4.38209e-01        00000 
 3.11382e-02  4.49386e-01        00000 
 3.08590e-02  4.59223e-01        00000 
 3.17635e-02  4.72087e-01        00000 
 2.96478e-02  4.81149e-01        00000 
 2.82463e-02  4.89908e-01        00000 
 2.49054e-02  4.97536e-01        00000 
 6.73210e-02  4.23361e-01        00000 
 6.42197e-02  4.27193e-01        00000 
 6.13369e-02  4.26192e-01        00000 
 5.86359e-02  4.26711e-01        00000 
 5.61182e-02  4.32084e-01        00000 
 5.47473e-02  4.41490e-01        00000 
 5.34440e-02  4.53331e-01        00000 
 5.08407e-02  4.64703e-01        00000 
 4.77270e-02  4.72662e-01        00000 
 4.42231e-02  4.82550e-01        00000 
 3.97215e-02  4.95152e-01        00000 
 3.86816e-02  5.08438e-01        00000 
 3.78728e-02  5.24165e-01        00000 
 3.68389e-02  5.38535e-01        00000 
 3.57461e-02  5.52118e-01        00000 
 3.01681e-02  5.63436e-01        00000 
 8.04358e-02  4.50592e-01        00000 
 7.78566e-02  4.53461e-01        00000 
 7.50014e-02  4.51997e-01        00000 
 7.21320e-02  4.54206e-01        00000 
 7.02342e-02  4.63414e-01        00000 
 6.68535e-02  4.74321e-01        00000 
 6.44575e-02  4.88046e-01        00000 
 5.93409e-02  5.00132e-01        00000 
 5.30456e-02  5.12526e-01        00000 
 4.94848e-02  5.28811e-01        00000 
 4.58969e-02  5.43834e-01        00000 
 4.17280e-02  5.59901e-01        00000 
 3.88271e-02  5.77835e-01        00000 
 3.56262e-02  5.97067e-01        00000 
 2.97104e-02  6.16337e-01        00000 
 2.50991e-02  6.32059e-01        00000 
 9.13549e-02  4.70368e-01        00000 
 8.97278e-02  4.73404e-01        00000 
 8.73738e-02  4.72872e-01        00000 
 8.42161e-02  4.78365e-01        00000 
 8.07594e-02  4.90237e-01        00000 
 7.54934e-02  5.04247e-01        00000 
 7.10385e-02  5.19537e-01        00000 
 6.55771e-02  5.37295e-01        00000 
 5.83544e-02  5.53988e-01        00000 
 5.10201e-02  5.73696e-01        00000 
 4.49817e-02  5.93495e-01        00000 
 3.88854e-02  6.14278e-01        00000 
 3.25469e-02  6.37539e-01        00000 
 2.72099e-02  6.56948e-01        00000 
 1.68206e-02  6.81523e-01        00000 
 1.06959e-02  7.05640e-01        00000 
 1.01167e-01  4.84455e-01        00000 
 1.00103e-01  4.87766e-01        00000 
 9.68750e-02  4.88372e-01        00000 
 9.26511e-02  4.98313e-01        00000 
 8.54710e-02  5.14410e-01        00000 
 7.90995e-02  5.31941e-01        00000 
 7.41259e-02  5.51176e-01        00000 
 6.49578e-02  5.70383e-01        00000 
 5.67438e-02  5.93620e-01        00000 
 4.78356e-02  6.18095e-01        00000 
 4.03558e-02  6.41077e-01        00000 
 3.11396e-02  6.64896e-01        00000 
 1.94828e-02  6.88877e-01        00000 
 9.13006e-03  7.14241e-01        00000 
-4.90502e-03  7.36669e-01        00000 
-1.76354e-02  7.62506e-01        00000 
 1.09130e-01  4.93948e-01        00000 
 1.06993e-01  4.96549e-01        00000 
 1.02566e-01  4.99540e-01        00000 
 9.52354e-02  5.14657e-01        00000 
 8.78640e-02  5.34637e-01        00000 
 8.16083e-02  5.57857e-01        00000 
 7.11353e-02  5.79220e-01        00000 
 6.15408e-02  6.05445e-01        00000 
 5.22285e-02  6.34653e-01        00000 
 4.26042e-02  6.63241e-01        00000 
 2.86216e-02  6.90219e-01        00000 
 1.36216e-02  7.17005e-01        00000 
-1.25750e-03  7.42080e-01        00000 
-1.86153e-02  7.62032e-01        00000 
-3.12537e-02  7.89504e-01        00000 
-4.20876e-02  8.08992e-01        00000 
 1.15924e-01  5.01314e-01        00000 
 1.11819e-01  5.02465e-01        00000 
 1.03751e-01  5.10246e-01        00000 
 9.40071e-02  5.29202e-01        00000 
 8.71493e-02  5.52186e-01        00000 
 7.70706e-02  5.79684e-01        00000 
 6.51251e-02  6.08204e-01        00000 
 5.57416e-02  6.39984e-01        00000 
 4.52733e-02  6.73181e-01        00000 
 3.16360e-02  7.06125e-01        00000 
 1.67732e-02  7.38187e-01        00000 
 1.09174e-03  7.71314e-01        00000 
-1.14948e-02  7.99830e-01        00000 
-1.85331e-02  8.20616e-01        00000 
-2.26066e-02  8.26917e-01        00000 
-1.63978e-02  7.88965e-01        00000 
 1.21688e-01  5.06941e-01        00000 
 1.15466e-01  5.08478e-01        00000 
 1.07877e-01  5.14088e-01        00000 
 9.79350e-02  5.28404e-01        00000 
 9.07000e-02  5.47371e-01        00000 
 8.23702e-02  5.69496e-01        00000 
 7.20088e-02  5.95385e-01        00000 
 6.30223e-02  6.25715e-01        00000 
 5.27249e-02  6.52112e-01        00000 
 4.27740e-02  6.81969e-01        00000 
 3.28712e-02  7.13089e-01        00000 
 2.44668e-02  7.50490e-01        00000 
 1.50181e-02  7.87521e-01        00000 
 6.28755e-03  8.23491e-01        00000 
 6.66994e-03  8.62950e-01        00000 
 1.37555e-02  9.00677e-01        00000 
 1.26488e-01  5.09279e-01        00000 
 1.18434e-01  5.12247e-01        00000 
 1.10614e-01  5.18093e-01        00000 
 1.02365e-01  5.28209e-01        00000 
 9.50060e-02  5.42206e-01        00000 
 8.71659e-02  5.59077e-01        00000 
 7.97033e-02  5.79595e-01        00000 
 7.19569e-02  6.05269e-01        00000 
 6.42124e-02  6.29750e-01        00000 
 5.54974e-02  6.53265e-01        00000 
 4.45952e-02  6.79997e-01        00000 
 3.50085e-02  7.08223e-01        00000 
 2.78188e-02  7.38448e-01        00000 
 2.02695e-02  7.70763e-01        00000 
 1.43675e-02  8.04697e-01        00000 
 7.21653e-03  8.35563e-01        00000 
 1.29477e-01  5.06318e-01        00000 
 1.20018e-01  5.08420e-01        00000 
 1.09598e-01  5.11053e-01        00000 
 1.01420e-01  5.20173e-01        00000 
 9.44985e-02  5.31625e-01        00000 
 8.84747e-02  5.43805e-01        00000 
 8.24583e-02  5.59291e-01        00000 
 7.62393e-02  5.78869e-01        00000 
 7.11646e-02  6.01175e-01        00000 
 6.50221e-02  6.20308e-01        00000 
 5.62844e-02  6.41212e-01        00000 
 4.63040e-02  6.63985e-01        00000 
 3.83780e-02  6.87828e-01        00000 
 2.89823e-02  7.13799e-01        00000 
 2.06555e-02  7.35423e-01        00000 
 1.22269e-02  7.61548e-01        00000 
 1.30338e-01  4.90307e-01        00000 
 1.19285e-01  4.91940e-01        00000 
 1.07915e-01  4.93794e-01        00000 
 9.88104e-02  5.01890e-01        00000 
 9.07868e-02  5.10328e-01        00000 
 8.53701e-02  5.19718e-01        00000 
 8.08259e-02  5.32219e-01        00000 
 7.39792e-02  5.45791e-01        00000 
 6.66080e-02  5.58025e-01        00000 
 6.13484e-02  5.71380e-01        00000 
 5.39797e-02  5.86179e-01        00000 
 4.63878e-02  6.04695e-01        00000 
 4.12467e-02  6.23186e-01        00000 
 3.46893e-02  6.43594e-01        00000 
 2.63832e-02  6.65497e-01        00000 
 2.00315e-02  6.82948e-01        00000 
 1.29050e-01  4.66397e-01        00000 
 1.17100e-01  4.68643e-01        00000 
 1.04628e-01  4.70397e-01        00000 
 9.57171e-02  4.76853e-01        00000 
 8.61334e-02  4.82626e-01        00000 
 7.80657e-02  4.88505e-01        00000 
 7.23483e-02  4.96355e-01        00000 
 6.49864e-02  5.03950e-01        00000 
 5.88387e-02  5.12695e-01        00000 
 5.39294e-02  5.21682e-01        00000 
 4.94576e-02  5.29885e-01        00000 
 4.38850e-02  5.42183e-01        00000 
 3.84111e-02  5.52373e-01        00000 
 3.42123e-02  5.65750e-01        00000 
 2.80066e-02  5.81972e-01        00000 
 2.06061e-02  5.94934e-01        00000 
 1.26178e-01  4.35158e-01        00000 
 1.13638e-01  4.34188e-01        00000 
 1.00307e-01  4.34951e-01        00000 
 8.93703e-02  4.36570e-01        00000 
 7.98275e-02  4.40056e-01        00000 
 7.16525e-02  4.43320e-01        00000 
 6.60360e-02  4.50283e-01        00000 
 5.99577e-02  4.54158e-01        00000 
 5.40130e-02  4.60164e-01        00000 
 4.86127e-02  4.64475e-01        00000 
 4.37016e-02  4.68620e-01        00000 
 3.70375e-02  4.74738e-01        00000 
 3.00671e-02  4.79914e-01        00000 
 2.58601e-02  4.87209e-01        00000 
 2.06985e-02  4.93404e-01        00000 
 1.56560e-02  5.01482e-01        00000 
 1.22351e-01  4.00145e-01        00000 