<?xml version="1.0" encoding="utf-8"?>
<VTKFile byte_order="LittleEndian" type="UnstructuredGrid" version="0.1">
   <UnstructuredGrid>
      <Piece NumberOfCells="720" NumberOfPoints="768">
         <Points>
            <DataArray Name="Points" NumberOfComponents="3" format="ascii" type="Float32">
0.2121 0.2121 0.0000
0.2647 0.2647 0.0000
0.3172 0.3172 0.0000
0.3697 0.3697 0.0000
0.4222 0.4222 0.0000
0.4748 0.4748 0.0000
0.5273 0.5273 0.0000
0.5798 0.5798 0.0000
0.6323 0.6323 0.0000
0.6849 0.6849 0.0000
0.7374 0.7374 0.0000
0.7899 0.7899 0.0000
0.8424 0.8424 0.0000
0.8950 0.8950 0.0000
0.9475 0.9475 0.0000
1.0000 1.0000 0.0000
0.1921 0.2305 0.0000
0.2348 0.2818 0.0000
0.2776 0.3331 0.0000
0.3203 0.3844 0.0000
0.3631 0.4357 0.0000
0.4058 0.4870 0.0000
0.4486 0.5383 0.0000
0.4913 0.5896 0.0000
0.5341 0.6409 0.0000
0.5768 0.6922 0.0000
0.6196 0.7435 0.0000
0.6623 0.7948 0.0000
0.7051 0.8461 0.0000
0.7478 0.8974 0.0000
0.7906 0.9487 0.0000
0.8333 1.0000 0.0000
0.1664 0.2496 0.0000
0.1998 0.2996 0.0000
0.2331 0.3497 0.0000
0.2665 0.3997 0.0000
0.2998 0.4497 0.0000
0.3332 0.4997 0.0000
0.3665 0.5498 0.0000
0.3999 0.5998 0.0000
0.4332 0.6498 0.0000
0.4666 0.6998 0.0000
0.4999 0.7499 0.0000
0.5333 0.7999 0.0000
0.5666 0.8499 0.0000
0.6000 0.8999 0.0000
0.6333 0.9500 0.0000
0.6667 1.0000 0.0000
0.1342 0.2683 0.0000
0.1586 0.3171 0.0000
0.1829 0.3659 0.0000
0.2073 0.4147 0.0000
0.2317 0.4634 0.0000
0.2561 0.5122 0.0000
0.2805 0.5610 0.0000
0.3049 0.6098 0.0000
0.3293 0.6586 0.0000
0.3537 0.7073 0.0000
0.3781 0.7561 0.0000
0.4024 0.8049 0.0000
0.4268 0.8537 0.0000
0.4512 0.9024 0.0000
0.4756 0.9512 0.0000
0.5000 1.0000 0.0000
0.0949 0.2846 0.0000
0.1108 0.3323 0.0000
0.1267 0.3800 0.0000
0.1426 0.4277 0.0000
0.1585 0.4754 0.0000
0.1744 0.5231 0.0000
0.1903 0.5708 0.0000
0.2062 0.6185 0.0000
0.2220 0.6661 0.0000
0.2379 0.7138 0.0000
0.2538 0.7615 0.0000
0.2697 0.8092 0.0000
0.2856 0.8569 0.0000
0.3015 0.9046 0.0000
0.3174 0.9523 0.0000
0.3333 1.0000 0.0000
0.0493 0.2959 0.0000
0.0571 0.3429 0.0000
0.0650 0.3898 0.0000
0.0728 0.4367 0.0000
0.0806 0.4837 0.0000
0.0884 0.5306 0.0000
0.0963 0.5776 0.0000
0.1041 0.6245 0.0000
0.1119 0.6714 0.0000
0.1197 0.7184 0.0000
0.1276 0.7653 0.0000
0.1354 0.8122 0.0000
0.1432 0.8592 0.0000
0.1510 0.9061 0.0000
0.1588 0.9531 0.0000
0.1667 1.0000 0.0000
0.0000 0.3000 0.0000
0.0000 0.3467 0.0000
0.0000 0.3933 0.0000
0.0000 0.4400 0.0000
0.0000 0.4867 0.0000
0.0000 0.5333 0.0000
0.0000 0.5800 0.0000
0.0000 0.6267 0.0000
0.0000 0.6733 0.0000
0.0000 0.7200 0.0000
0.0000 0.7667 0.0000
0.0000 0.8133 0.0000
0.0000 0.8600 0.0000
0.0000 0.9067 0.0000
0.0000 0.9533 0.0000
0.0000 1.0000 0.0000
-0.0493 0.2959 0.0000
-0.0571 0.3429 0.0000
-0.0650 0.3898 0.0000
-0.0728 0.4367 0.0000
-0.0806 0.4837 0.0000
-0.0884 0.5306 0.0000
-0.0963 0.5776 0.0000
-0.1041 0.6245 0.0000
-0.1119 0.6714 0.0000
-0.1197 0.7184 0.0000
-0.1276 0.7653 0.0000
-0.1354 0.8122 0.0000
-0.1432 0.8592 0.0000
-0.1510 0.9061 0.0000
-0.1588 0.9531 0.0000
-0.1667 1.0000 0.0000
-0.0949 0.2846 0.0000
-0.1108 0.3323 0.0000
-0.1267 0.3800 0.0000
-0.1426 0.4277 0.0000
-0.1585 0.4754 0.0000
-0.1744 0.5231 0.0000
-0.1903 0.5708 0.0000
-0.2062 0.6185 0.0000
-0.2220 0.6661 0.0000
-0.2379 0.7138 0.0000
-0.2538 0.7615 0.0000
-0.2697 0.8092 0.0000
-0.2856 0.8569 0.0000
-0.3015 0.9046 0.0000
-0.3174 0.9523 0.0000
-0.3333 1.0000 0.0000
-0.1342 0.2683 0.0000
-0.1586 0.3171 0.0000
-0.1829 0.3659 0.0000
-0.2073 0.4147 0.0000
-0.2317 0.4634 0.0000
-0.2561 0.5122 0.0000
-0.2805 0.5610 0.0000
-0.3049 0.6098 0.0000
-0.3293 0.6586 0.0000
-0.3537 0.7073 0.0000
-0.3781 0.7561 0.0000
-0.4024 0.8049 0.0000
-0.4268 0.8537 0.0000
-0.4512 0.9024 0.0000
-0.4756 0.9512 0.0000
-0.5000 1.0000 0.0000
-0.1664 0.2496 0.0000
-0.1998 0.2996 0.0000
-0.2331 0.3497 0.0000
-0.2665 0.3997 0.0000
-0.2998 0.4497 0.0000
-0.3332 0.4997 0.0000
-0.3665 0.5498 0.0000
-0.3999 0.5998 0.0000
-0.4332 0.6498 0.0000
-0.4666 0.6998 0.0000
-0.4999 0.7499 0.0000
-0.5333 0.7999 0.0000
-0.5666 0.8499 0.0000
-0.6000 0.8999 0.0000
-0.6333 0.9500 0.0000
-0.6667 1.0000 0.0000
-0.1921 0.2305 0.0000
-0.2348 0.2818 0.0000
-0.2776 0.3331 0.0000
-0.3203 0.3844 0.0000
-0.3631 0.4357 0.0000
-0.4058 0.4870 0.0000
-0.4486 0.5383 0.0000
-0.4913 0.5896 0.0000
-0.5341 0.6409 0.0000
-0.5768 0.6922 0.0000
-0.6196 0.7435 0.0000
-0.6623 0.7948 0.0000
-0.7051 0.8461 0.0000
-0.7478 0.8974 0.0000
-0.7906 0.9487 0.0000
-0.8333 1.0000 0.0000
-0.2121 0.2121 0.0000
-0.2647 0.2647 0.0000
-0.3172 0.3172 0.0000
-0.3697 0.3697 0.0000
-0.4222 0.4222 0.0000
-0.4748 0.4748 0.0000
-0.5273 0.5273 0.0000
-0.5798 0.5798 0.0000
-0.6323 0.6323 0.0000
-0.6849 0.6849 0.0000
-0.7374 0.7374 0.0000
-0.7899 0.7899 0.0000
-0.8424 0.8424 0.0000
-0.8950 0.8950 0.0000
-0.9475 0.9475 0.0000
-1.0000 1.0000 0.0000
-0.2305 0.1921 0.0000
-0.2818 0.2348 0.0000
-0.3331 0.2776 0.0000
-0.3844 0.3203 0.0000
-0.4357 0.3631 0.0000
-0.4870 0.4058 0.0000
-0.5383 0.4486 0.0000
-0.5896 0.4913 0.0000
-0.6409 0.5341 0.0000
-0.6922 0.5768 0.0000
-0.7435 0.6196 0.0000
-0.7948 0.6623 0.0000
-0.8461 0.7051 0.0000
-0.8974 0.7478 0.0000
-0.9487 0.7906 0.0000
-1.0000 0.8333 0.0000
-0.2496 0.1664 0.0000
-0.2996 0.1998 0.0000
-0.3497 0.2331 0.0000
-0.3997 0.2665 0.0000
-0.4497 0.2998 0.0000
-0.4997 0.3332 0.0000
-0.5498 0.3665 0.0000
-0.5998 0.3999 0.0000
-0.6498 0.4332 0.0000
-0.6998 0.4666 0.0000
-0.7499 0.4999 0.0000
-0.7999 0.5333 0.0000
-0.8499 0.5666 0.0000
-0.8999 0.6000 0.0000
-0.9500 0.6333 0.0000
-1.0000 0.6667 0.0000
-0.2683 0.1342 0.0000
-0.3171 0.1586 0.0000
-0.3659 0.1829 0.0000
-0.4147 0.2073 0.0000
-0.4634 0.2317 0.0000
-0.5122 0.2561 0.0000
-0.5610 0.2805 0.0000
-0.6098 0.3049 0.0000
-0.6586 0.3293 0.0000
-0.7073 0.3537 0.0000
-0.7561 0.3781 0.0000
-0.8049 0.4024 0.0000
-0.8537 0.4268 0.0000
-0.9024 0.4512 0.0000
-0.9512 0.4756 0.0000
-1.0000 0.5000 0.0000
-0.2846 0.0949 0.0000
-0.3323 0.1108 0.0000
-0.3800 0.1267 0.0000
-0.4277 0.1426 0.0000
-0.4754 0.1585 0.0000
-0.5231 0.1744 0.0000
-0.5708 0.1903 0.0000
-0.6185 0.2062 0.0000
-0.6661 0.2220 0.0000
-0.7138 0.2379 0.0000
-0.7615 0.2538 0.0000
-0.8092 0.2697 0.0000
-0.8569 0.2856 0.0000
-0.9046 0.3015 0.0000
-0.9523 0.3174 0.0000
-1.0000 0.3333 0.0000
-0.2959 0.0493 0.0000
-0.3429 0.0571 0.0000
-0.3898 0.0650 0.0000
-0.4367 0.0728 0.0000
-0.4837 0.0806 0.0000
-0.5306 0.0884 0.0000
-0.5776 0.0963 0.0000
-0.6245 0.1041 0.0000
-0.6714 0.1119 0.0000
-0.7184 0.1197 0.0000
-0.7653 0.1276 0.0000
-0.8122 0.1354 0.0000
-0.8592 0.1432 0.0000
-0.9061 0.1510 0.0000
-0.9531 0.1588 0.0000
-1.0000 0.1667 0.0000
-0.3000 0.0000 0.0000
-0.3467 0.0000 0.0000
-0.3933 0.0000 0.0000
-0.4400 0.0000 0.0000
-0.4867 0.0000 0.0000
-0.5333 0.0000 0.0000
-0.5800 0.0000 0.0000
-0.6267 0.0000 0.0000
-0.6733 0.0000 0.0000
-0.7200 0.0000 0.0000
-0.7667 0.0000 0.0000
-0.8133 0.0000 0.0000
-0.8600 0.0000 0.0000
-0.9067 0.0000 0.0000
-0.9533 0.0000 0.0000
-1.0000 0.0000 0.0000
-0.2959 -0.0493 0.0000
-0.3429 -0.0571 0.0000
-0.3898 -0.0650 0.0000
-0.4367 -0.0728 0.0000
-0.4837 -0.0806 0.0000
-0.5306 -0.0884 0.0000
-0.5776 -0.0963 0.0000
-0.6245 -0.1041 0.0000
-0.6714 -0.1119 0.0000
-0.7184 -0.1197 0.0000
-0.7653 -0.1276 0.0000
-0.8122 -0.1354 0.0000
-0.8592 -0.1432 0.0000
-0.9061 -0.1510 0.0000
-0.9531 -0.1588 0.0000
-1.0000 -0.1667 0.0000
-0.2846 -0.0949 0.0000
-0.3323 -0.1108 0.0000
-0.3800 -0.1267 0.0000
-0.4277 -0.1426 0.0000
-0.4754 -0.1585 0.0000
-0.5231 -0.1744 0.0000
-0.5708 -0.1903 0.0000
-0.6185 -0.2062 0.0000
-0.6661 -0.2220 0.0000
-0.7138 -0.2379 0.0000
-0.7615 -0.2538 0.0000
-0.8092 -0.2697 0.0000
-0.8569 -0.2856 0.0000
-0.9046 -0.3015 0.0000
-0.9523 -0.3174 0.0000
-1.0000 -0.3333 0.0000
-0.2683 -0.1342 0.0000
-0.3171 -0.1586 0.0000
-0.3659 -0.1829 0.0000
-0.4147 -0.2073 0.0000
-0.4634 -0.2317 0.0000
-0.5122 -0.2561 0.0000
-0.5610 -0.2805 0.0000
-0.6098 -0.3049 0.0000
-0.6586 -0.3293 0.0000
-0.7073 -0.3537 0.0000
-0.7561 -0.3781 0.0000
-0.8049 -0.4024 0.0000
-0.8537 -0.4268 0.0000
-0.9024 -0.4512 0.0000
-0.9512 -0.4756 0.0000
-1.0000 -0.5000 0.0000
-0.2496 -0.1664 0.0000
-0.2996 -0.1998 0.0000
-0.3497 -0.2331 0.0000
-0.3997 -0.2665 0.0000
-0.4497 -0.2998 0.0000
-0.4997 -0.3332 0.0000
-0.5498 -0.3665 0.0000
-0.5998 -0.3999 0.0000
-0.6498 -0.4332 0.0000
-0.6998 -0.4666 0.0000
-0.7499 -0.4999 0.0000
-0.7999 -0.5333 0.0000
-0.8499 -0.5666 0.0000
-0.8999 -0.6000 0.0000
-0.9500 -0.6333 0.0000
-1.0000 -0.6667 0.0000
-0.2305 -0.1921 0.0000
-0.2818 -0.2348 0.0000
-0.3331 -0.2776 0.0000
-0.3844 -0.3203 0.0000
-0.4357 -0.3631 0.0000
-0.4870 -0.4058 0.0000
-0.5383 -0.4486 0.0000
-0.5896 -0.4913 0.0000
-0.6409 -0.5341 0.0000
-0.6922 -0.5768 0.0000
-0.7435 -0.6196 0.0000
-0.7948 -0.6623 0.0000
-0.8461 -0.7051 0.0000
-0.8974 -0.7478 0.0000
-0.9487 -0.7906 0.0000
-1.0000 -0.8333 0.0000
-0.2121 -0.2121 0.0000
-0.2647 -0.2647 0.0000
-0.3172 -0.3172 0.0000
-0.3697 -0.3697 0.0000
-0.4222 -0.4222 0.0000
-0.4748 -0.4748 0.0000
-0.5273 -0.5273 0.0000
-0.5798 -0.5798 0.0000
-0.6323 -0.6323 0.0000
-0.6849 -0.6849 0.0000
-0.7374 -0.7374 0.0000
-0.7899 -0.7899 0.0000
-0.8424 -0.8424 0.0000
-0.8950 -0.8950 0.0000
-0.9475 -0.9475 0.0000
-1.0000 -1.0000 0.0000
-0.1921 -0.2305 0.0000
-0.2348 -0.2818 0.0000
-0.2776 -0.3331 0.0000
-0.3203 -0.3844 0.0000
-0.3631 -0.4357 0.0000
-0.4058 -0.4870 0.0000
-0.4486 -0.5383 0.0000
-0.4913 -0.5896 0.0000
-0.5341 -0.6409 0.0000
-0.5768 -0.6922 0.0000
-0.6196 -0.7435 0.0000
-0.6623 -0.7948 0.0000
-0.7051 -0.8461 0.0000
-0.7478 -0.8974 0.0000
-0.7906 -0.9487 0.0000
-0.8333 -1.0000 0.0000
-0.1664 -0.2496 0.0000
-0.1998 -0.2996 0.0000
-0.2331 -0.3497 0.0000
-0.2665 -0.3997 0.0000
-0.2998 -0.4497 0.0000
-0.3332 -0.4997 0.0000
-0.3665 -0.5498 0.0000
-0.3999 -0.5998 0.0000
-0.4332 -0.6498 0.0000
-0.4666 -0.6998 0.0000
-0.4999 -0.7499 0.0000
-0.5333 -0.7999 0.0000
-0.5666 -0.8499 0.0000
-0.6000 -0.8999 0.0000
-0.6333 -0.9500 0.0000
-0.6667 -1.0000 0.0000
-0.1342 -0.2683 0.0000
-0.1586 -0.3171 0.0000
-0.1829 -0.3659 0.0000
-0.2073 -0.4147 0.0000
-0.2317 -0.4634 0.0000
-0.2561 -0.5122 0.0000
-0.2805 -0.5610 0.0000
[...]
         <PointData>
            <DataArray Name="fValues" NumberOfComponents="3" format="ascii" type="Float64">
 2.54510e-01 -1.07794e-01        00000 
 2.37468e-01 -9.62842e-02        00000 
 2.21553e-01 -8.50771e-02        00000 
 2.08798e-01 -7.55774e-02        00000 
 1.98489e-01 -6.64054e-02        00000 
 1.86541e-01 -5.41695e-02        00000 
 1.73395e-01 -4.43018e-02        00000 
 1.62093e-01 -3.49694e-02        00000 
 1.46981e-01 -2.28190e-02        00000 
 1.34077e-01 -1.03487e-02        00000 
 1.19249e-01 -3.69906e-04        00000 
 1.06220e-01  1.08784e-02        00000 
 9.10822e-02  2.55847e-02        00000 
 7.17744e-02  3.65416e-02        00000 
 5.57951e-02  4.69133e-02        00000 
 4.25979e-02  5.41412e-02        00000 
 2.32758e-01 -1.03603e-01        00000 
 2.20300e-01 -9.60507e-02        00000 
 2.05711e-01 -8.77812e-02        00000 
 1.94010e-01 -7.97236e-02        00000 
 1.83346e-01 -7.25707e-02        00000 
 1.73669e-01 -6.38688e-02        00000 
 1.59707e-01 -5.29808e-02        00000 
 1.46063e-01 -4.28544e-02        00000 
 1.33959e-01 -3.49382e-02        00000 
 1.19727e-01 -2.51991e-02        00000 
 1.05435e-01 -1.41945e-02        00000 
 9.31909e-02 -4.12857e-03        00000 
 7.79214e-02  6.55253e-03        00000 
 6.22564e-02  1.80926e-02        00000 
 4.20741e-02  2.75052e-02        00000 
 1.97520e-02  3.56547e-02        00000 
 2.08252e-01 -9.77523e-02        00000 
 2.00881e-01 -9.44425e-02        00000 
 1.90391e-01 -8.93188e-02        00000 
 1.78734e-01 -8.41977e-02        00000 
 1.68189e-01 -7.74481e-02        00000 
 1.57435e-01 -7.08603e-02        00000 
 1.46114e-01 -6.22176e-02        00000 
 1.32939e-01 -5.34922e-02        00000 
 1.21488e-01 -4.59833e-02        00000 
 1.06489e-01 -3.73544e-02        00000 
 9.61130e-02 -3.03119e-02        00000 
 8.27492e-02 -2.35013e-02        00000 
 6.72013e-02 -1.41309e-02        00000 
 5.06357e-02 -3.18238e-03        00000 
 3.98169e-02  2.25292e-03        00000 
 2.15684e-02  1.07338e-02        00000 
 1.83017e-01 -9.04791e-02        00000 
 1.77845e-01 -8.94344e-02        00000 
 1.70625e-01 -8.77270e-02        00000 
 1.61530e-01 -8.54012e-02        00000 
 1.52683e-01 -8.16085e-02        00000 
 1.42430e-01 -7.52583e-02        00000 
 1.29980e-01 -6.82734e-02        00000 
 1.17912e-01 -6.15004e-02        00000 
 1.08740e-01 -5.53818e-02        00000 
 9.83658e-02 -5.04202e-02        00000 
 8.46329e-02 -4.26766e-02        00000 
 7.31878e-02 -3.70167e-02        00000 
 6.21607e-02 -3.09029e-02        00000 
 4.96016e-02 -2.33391e-02        00000 
 3.31546e-02 -1.68496e-02        00000 
 1.58146e-02 -1.11532e-02        00000 
 1.57452e-01 -8.04328e-02        00000 
 1.55616e-01 -8.23697e-02        00000 
 1.51095e-01 -8.21869e-02        00000 
 1.43740e-01 -8.06924e-02        00000 
 1.35698e-01 -7.84811e-02        00000 
 1.27934e-01 -7.53011e-02        00000 
 1.17984e-01 -7.00434e-02        00000 
 1.06553e-01 -6.48309e-02        00000 
 9.50989e-02 -5.92934e-02        00000 
 8.56232e-02 -5.43431e-02        00000 
 7.46417e-02 -5.03921e-02        00000 
 6.11434e-02 -4.53866e-02        00000 
 4.83947e-02 -4.07542e-02        00000 
 3.75692e-02 -3.74336e-02        00000 
 2.62826e-02 -3.14086e-02        00000 
 1.64801e-02 -2.83129e-02        00000 
 1.33649e-01 -6.97008e-02        00000 
 1.31750e-01 -7.19008e-02        00000 
 1.31392e-01 -7.34293e-02        00000 
 1.25301e-01 -7.22469e-02        00000 
 1.19809e-01 -7.03504e-02        00000 
 1.12192e-01 -6.65181e-02        00000 
 1.04284e-01 -6.32843e-02        00000 
 9.55246e-02 -6.14739e-02        00000 
 8.44581e-02 -5.71992e-02        00000 
 7.27941e-02 -5.22778e-02        00000 
 6.15210e-02 -4.83106e-02        00000 
 5.06102e-02 -4.45102e-02        00000 
 3.89381e-02 -4.16180e-02        00000 
 2.98660e-02 -4.05647e-02        00000 
 1.80028e-02 -3.50538e-02        00000 
 1.00137e-02 -3.40324e-02        00000 
 1.10797e-01 -5.64378e-02        00000 
 1.08941e-01 -5.84342e-02        00000 
 1.10580e-01 -6.11190e-02        00000 
 1.06924e-01 -6.00464e-02        00000 
 1.01334e-01 -5.76838e-02        00000 
 9.67492e-02 -5.51011e-02        00000 
 9.12240e-02 -5.30694e-02        00000 
 8.29523e-02 -5.05382e-02        00000 
 7.30702e-02 -4.71628e-02        00000 
 6.19997e-02 -4.43449e-02        00000 
 4.90433e-02 -4.08378e-02        00000 
 4.00296e-02 -3.81131e-02        00000 
 3.33194e-02 -3.73332e-02        00000 
 2.08939e-02 -3.35570e-02        00000 
 1.15229e-02 -2.98358e-02        00000 
 5.08436e-04 -2.52951e-02        00000 
 9.11156e-02 -4.28821e-02        00000 
 9.15834e-02 -4.48184e-02        00000 
 9.28392e-02 -4.62735e-02        00000 
 9.00926e-02 -4.45654e-02        00000 
 8.51073e-02 -4.19802e-02        00000 
 7.94089e-02 -4.04201e-02        00000 
 7.27229e-02 -3.90909e-02        00000 
 6.49590e-02 -3.57658e-02        00000 
 5.79625e-02 -3.32829e-02        00000 
 4.97734e-02 -3.17925e-02        00000 
 3.71584e-02 -2.88397e-02        00000 
 2.74331e-02 -2.57838e-02        00000 
 2.12874e-02 -2.49908e-02        00000 
 9.68354e-03 -2.14867e-02        00000 
 9.91825e-04 -1.64390e-02        00000 
-5.55134e-03 -7.99631e-03        00000 
 7.36698e-02 -3.09586e-02        00000 
 7.47802e-02 -3.17255e-02        00000 
 7.71530e-02 -3.24640e-02        00000 
 7.77108e-02 -3.18830e-02        00000 
 7.19745e-02 -3.00029e-02        00000 
 6.41240e-02 -2.81364e-02        00000 
 5.68848e-02 -2.58414e-02        00000 
 4.92307e-02 -2.35174e-02        00000 
 4.29610e-02 -2.10498e-02        00000 
 3.49550e-02 -1.80382e-02        00000 
 2.66719e-02 -1.48448e-02        00000 
 1.91349e-02 -1.10404e-02        00000 
 9.45705e-03 -7.52084e-03        00000 
-1.55239e-03 -2.66857e-03        00000 
-1.03505e-02  3.59092e-03        00000 
-1.01164e-02  8.91686e-03        00000 
 5.81549e-02 -2.00244e-02        00000 
 6.02349e-02 -2.02589e-02        00000 
 6.36534e-02 -2.08173e-02        00000 
 6.26584e-02 -1.98335e-02        00000 
 5.77294e-02 -1.91122e-02        00000 
 5.00430e-02 -1.71546e-02        00000 
 4.20684e-02 -1.41327e-02        00000 
 3.56017e-02 -1.12396e-02        00000 
 3.04929e-02 -9.03408e-03        00000 
 2.42602e-02 -6.70808e-03        00000 
 1.27248e-02 -1.31354e-03        00000 
 3.48196e-03  4.86238e-03        00000 
-2.79653e-03  1.07811e-02        00000 
-1.00621e-02  1.57309e-02        00000 
-1.40142e-02  1.98050e-02        00000 
-1.94025e-02  2.80809e-02        00000 
 4.89652e-02 -1.29231e-02        00000 
 4.97820e-02 -1.35524e-02        00000 
 5.21751e-02 -1.32852e-02        00000 
 5.01891e-02 -1.30361e-02        00000 
 4.52918e-02 -1.24920e-02        00000 
 3.80024e-02 -1.00849e-02        00000 
 2.89040e-02 -5.57435e-03        00000 
 2.32559e-02 -1.74118e-03        00000 
 1.86867e-02  1.85297e-03        00000 
 1.28550e-02  3.68412e-03        00000 
 5.99720e-03  6.91302e-03        00000 
 3.83193e-04  1.21001e-02        00000 
-6.47741e-03  2.05688e-02        00000 
-1.26172e-02  2.95332e-02        00000 
-1.94444e-02  3.65190e-02        00000 
-2.21184e-02  4.47036e-02        00000 
 4.26489e-02 -8.43202e-03        00000 
 4.21420e-02 -9.15984e-03        00000 
 4.24657e-02 -9.35174e-03        00000 
 3.99124e-02 -8.71591e-03        00000 
 3.46562e-02 -8.05105e-03        00000 
 2.82299e-02 -5.76925e-03        00000 
 2.14475e-02 -1.42501e-03        00000 
 1.60942e-02  2.48877e-03        00000 
 9.23355e-03  5.95087e-03        00000 
 1.67643e-03  9.91338e-03        00000 
-2.91837e-03  1.46573e-02        00000 
-1.04801e-02  2.43217e-02        00000 
-1.73945e-02  3.27708e-02        00000 
-2.05485e-02  3.76662e-02        00000 
-2.36252e-02  4.84117e-02        00000 
-2.53735e-02  5.63323e-02        00000 
 3.93420e-02 -6.18145e-03        00000 
 3.77203e-02 -8.02174e-03        00000 
 3.60561e-02 -7.29023e-03        00000 
 3.36539e-02 -7.69425e-03        00000 
 2.60923e-02 -5.47954e-03        00000 
 2.07268e-02 -3.11280e-03        00000 
 1.47662e-02  8.68983e-04        00000 
 6.45224e-03  4.75925e-03        00000 
-2.52275e-03  1.01610e-02        00000 
-5.27677e-03  1.37167e-02        00000 
-8.79403e-03  2.07788e-02        00000 
-1.32058e-02  2.55616e-02        00000 
-1.94644e-02  3.00905e-02        00000 
-2.43369e-02  3.68279e-02        00000 
-2.24627e-02  3.43147e-02        00000 
-2.40153e-02  2.78537e-02        00000 
 3.68636e-02 -4.52608e-03        00000 
 3.48119e-02 -6.98676e-03        00000 
 3.19704e-02 -6.20545e-03        00000 
 2.95535e-02 -6.78551e-03        00000 
 2.58395e-02 -6.22163e-03        00000 
 2.06816e-02 -4.78166e-03        00000 
 1.37135e-02 -1.07207e-03        00000 
 8.79382e-03  1.04100e-03        00000 
 2.60575e-03  3.64921e-03        00000 
-4.88525e-03  8.51148e-03        00000 
-8.98114e-03  1.17333e-02        00000 
-1.23143e-02  1.51912e-02        00000 
-1.74631e-02  2.04811e-02        00000 
-2.35326e-02  2.39102e-02        00000 
-2.69424e-02  2.47246e-02        00000 
-3.10094e-02  2.30994e-02        00000 
 3.60554e-02 -3.46288e-03        00000 
 3.38502e-02 -7.06316e-03        00000 
 2.95933e-02 -6.51345e-03        00000 
 2.66301e-02 -6.25669e-03        00000 
 2.33767e-02 -6.71883e-03        00000 
 2.20542e-02 -6.82714e-03        00000 
 1.66000e-02 -4.54473e-03        00000 
 1.08055e-02 -2.19410e-03        00000 
 6.76792e-03 -7.13470e-04        00000 
 1.83827e-03  1.78969e-03        00000 
-3.56630e-03  3.97841e-03        00000 
-9.84988e-03  6.57354e-03        00000 
-1.47143e-02  1.01013e-02        00000 
-1.84756e-02  1.43046e-02        00000 
-1.88163e-02  1.65914e-02        00000 
-2.66284e-02  2.28405e-02        00000 
 3.74943e-02 -2.40395e-03        00000 
 3.32833e-02 -6.49433e-03        00000 
 3.14960e-02 -9.80197e-03        00000 
 2.73394e-02 -9.25733e-03        00000 
 2.39026e-02 -8.79458e-03        00000 
 2.19968e-02 -8.76892e-03        00000 
 1.98583e-02 -7.70528e-03        00000 
 1.53666e-02 -6.89980e-03        00000 
 9.41950e-03 -5.27175e-03        00000 
 3.84271e-03 -3.59798e-03        00000 
 7.58073e-04 -2.84051e-03        00000 
-4.70128e-03 -7.29249e-04        00000 
-1.15093e-02  2.51215e-03        00000 
-1.44562e-02  7.11534e-03        00000 
-1.80965e-02  9.46284e-03        00000 
-2.46973e-02  1.32040e-02        00000 
 4.11098e-02 -6.67594e-04        00000 
 3.78741e-02 -6.48461e-03        00000 
 3.54437e-02 -1.23053e-02        00000 
 3.28365e-02 -1.42145e-02        00000 
 3.01785e-02 -1.37023e-02        00000 
 2.82360e-02 -1.42145e-02        00000 
 2.31743e-02 -1.27367e-02        00000 
 1.79997e-02 -1.10556e-02        00000 
 1.33983e-02 -1.06835e-02        00000 
 9.18021e-03 -1.07226e-02        00000 
 7.59236e-03 -1.25336e-02        00000 
 2.10862e-03 -1.01200e-02        00000 
-5.36429e-03 -4.62057e-03        00000 
-8.02705e-03 -7.01391e-04        00000 
-1.42186e-02  2.68150e-03        00000 
-2.04047e-02  4.57847e-03        00000 
 4.91694e-02 -5.41205e-04        00000 
 4.58891e-02 -6.91716e-03        00000 
 4.43364e-02 -1.39458e-02        00000 
 4.35878e-02 -1.81377e-02        00000 
 4.09671e-02 -1.95566e-02        00000 
 3.97836e-02 -2.12755e-02        00000 
 3.34479e-02 -2.12645e-02        00000 
 2.83142e-02 -2.11886e-02        00000 
 2.41130e-02 -2.17421e-02        00000 
 1.96417e-02 -2.17848e-02        00000 
 1.65069e-02 -2.04791e-02        00000 
 1.02942e-02 -1.63577e-02        00000 
 6.83299e-03 -1.35040e-02        00000 
 1.00296e-03 -9.99726e-03        00000 
-7.34092e-03 -7.29672e-03        00000 
-1.41564e-02 -2.66698e-03        00000 
 6.40656e-02 -1.87378e-03        00000 
 6.12404e-02 -9.02746e-03        00000 
 6.32362e-02 -1.75556e-02        00000 
 6.43920e-02 -2.41758e-02        00000 
 6.28089e-02 -2.71723e-02        00000 
 5.88744e-02 -2.85301e-02        00000 
 5.24269e-02 -2.93946e-02        00000 
 4.76939e-02 -3.06045e-02        00000 
 4.44174e-02 -3.10526e-02        00000 
 3.95964e-02 -3.07843e-02        00000 
 3.24846e-02 -2.85426e-02        00000 
 2.58956e-02 -2.57333e-02        00000 
 2.27202e-02 -2.39912e-02        00000 
 1.53584e-02 -2.27609e-02        00000 
 6.99816e-03 -1.97219e-02        00000 
-2.88516e-03 -1.35730e-02        00000 
 8.37345e-02 -4.02306e-03        00000 
 8.30759e-02 -1.25988e-02        00000 
 8.78476e-02 -2.19146e-02        00000 
 9.01850e-02 -2.97545e-02        00000 
 8.70154e-02 -3.25386e-02        00000 
 8.44159e-02 -3.49009e-02        00000 
 7.91807e-02 -3.67561e-02        00000 
 7.21442e-02 -3.80175e-02        00000 
 6.54899e-02 -3.75608e-02        00000 
 5.83342e-02 -3.59426e-02        00000 
 4.79541e-02 -3.50106e-02        00000 
 4.06971e-02 -3.24373e-02        00000 
 3.55244e-02 -2.99814e-02        00000 
 2.91914e-02 -2.74747e-02        00000 
 2.33045e-02 -2.68008e-02        00000 
 1.38343e-02 -2.37313e-02        00000 
 1.07641e-01 -6.41200e-03        00000 
 1.09679e-01 -1.55322e-02        00000 
 1.15526e-01 -2.63266e-02        00000 
 1.18692e-01 -3.46135e-02        00000 
 1.17449e-01 -3.83280e-02        00000 
 1.12380e-01 -3.96309e-02        00000 
 1.04755e-01 -4.02198e-02        00000 
 9.65601e-02 -4.05490e-02        00000 
 8.70029e-02 -3.96769e-02        00000 
 7.79326e-02 -3.73787e-02        00000 
 6.78778e-02 -3.48579e-02        00000 
 5.72138e-02 -3.25528e-02        00000 
 5.21376e-02 -3.23091e-02        00000 
 4.31349e-02 -3.00329e-02        00000 
 3.09999e-02 -2.51897e-02        00000 
 2.27632e-02 -2.25628e-02        00000 
 1.32595e-01 -8.32916e-03        00000 
 1.38971e-01 -1.73206e-02        00000 
 1.46602e-01 -2.79112e-02        00000 
 1.49429e-01 -3.42396e-02        00000 
 1.46930e-01 -3.72314e-02        00000 
 1.39374e-01 -3.84320e-02        00000 
 1.31553e-01 -3.89238e-02        00000 
 1.22614e-01 -3.77517e-02        00000 
 1.11674e-01 -3.61128e-02        00000 
 1.00622e-01 -3.42936e-02        00000 
 9.05227e-02 -3.17438e-02        00000 
 7.98801e-02 -2.99345e-02        00000 
 6.93092e-02 -2.61667e-02        00000 
 5.63287e-02 -2.43515e-02        00000 
 4.09424e-02 -1.95960e-02        00000 
 2.64258e-02 -1.58650e-02        00000 
 1.58549e-01 -1.10562e-02        00000 
 1.67181e-01 -1.94393e-02        00000 
 1.75891e-01 -2.79369e-02        00000 
 1.77393e-01 -3.27407e-02        00000 
 1.71635e-01 -3.33998e-02        00000 
 1.66557e-01 -3.30100e-02        00000 
 1.61475e-01 -3.23076e-02        00000 
 1.50428e-01 -3.12375e-02        00000 
 1.37750e-01 -2.99858e-02        00000 
 1.25776e-01 -2.77039e-02        00000 
 1.11559e-01 -2.50072e-02        00000 
 9.80765e-02 -2.26832e-02        00000 
 8.22408e-02 -1.83688e-02        00000 
 6.32457e-02 -1.40112e-02        00000 
 4.20981e-02 -8.03742e-03        00000 
 2.22480e-02 -4.50862e-03        00000 
 1.82930e-01 -1.41167e-02        00000 
 1.92587e-01 -2.09830e-02        00000 
 2.00345e-01 -2.76718e-02        00000 
 1.98933e-01 -2.97841e-02        00000 
 1.95698e-01 -2.94521e-02        00000 
 1.92081e-01 -2.77521e-02        00000 
 1.83319e-01 -2.56279e-02        00000 
 1.70837e-01 -2.35333e-02        00000 
 1.57760e-01 -2.03397e-02        00000 
 1.44418e-01 -1.67067e-02        00000 
 1.29398e-01 -1.12260e-02        00000 
 1.13913e-01 -7.50427e-03        00000 
 9.40844e-02 -5.61444e-03        00000 
 6.90450e-02 -3.01839e-03        00000 
 4.91083e-02 -2.34799e-03        00000 
 3.10650e-02 -6.52563e-03        00000 
 2.03846e-01 -1.53561e-02        00000 
 2.15709e-01 -2.27844e-02        00000 
 2.21514e-01 -2.58870e-02        00000 
 2.19060e-01 -2.65681e-02        00000 
 2.19256e-01 -2.53593e-02        00000 
 2.12750e-01 -2.25833e-02        00000 
 2.03743e-01 -1.95727e-02        00000 
 1.93269e-01 -1.66237e-02        00000 
 1.81592e-01 -1.07894e-02        00000 
 1.65555e-01 -2.00669e-03        00000 
 1.51934e-01  5.61198e-03        00000 
 1.38876e-01  1.26909e-02        00000 
 1.28234e-01  1.83388e-02        00000 
 1.25615e-01  1.75257e-02        00000 
 1.34651e-01  1.17247e-02        00000 
 1.83565e-01 -9.20317e-03        00000 
 2.24767e-01 -1.66454e-02        00000 
 2.35520e-01 -2.18588e-02        00000 
 2.43455e-01 -2.35371e-02        00000 
 2.40682e-01 -2.35425e-02        00000 
 2.42598e-01 -2.27948e-02        00000 
 2.41457e-01 -2.08074e-02        00000 
 2.37743e-01 -1.83558e-02        00000 
 2.32969e-01 -1.41832e-02        00000 
 2.24329e-01 -1.00337e-02        00000 
 2.15884e-01 -3.29297e-03        00000 
 2.05008e-01  6.50011e-03        00000 
 1.97680e-01  1.72546e-02        00000 
 1.93622e-01  2.71376e-02        00000 
 1.88576e-01  3.93750e-02        00000 
 1.89256e-01  4.93669e-02        00000 
 1.95137e-01  5.87733e-02        00000 
 2.50363e-01 -1.96690e-02        00000 
 2.60540e-01 -2.18365e-02        00000 
 2.68170e-01 -2.20826e-02        00000 
 2.69372e-01 -2.14631e-02        00000 
 2.70838e-01 -2.10557e-02        00000 
 2.71529e-01 -1.92442e-02        00000 
 2.73483e-01 -1.71301e-02        00000 
 2.72894e-01 -1.46308e-02        00000 
 2.69604e-01 -1.07561e-02        00000 
 2.64743e-01 -5.41484e-03        00000 
 2.59173e-01  4.80346e-04        00000 
 2.51539e-01  7.42203e-03        00000 
 2.47636e-01  1.65502e-02        00000 
 2.44524e-01  2.64851e-02        00000 
 2.40106e-01  3.59515e-02        00000 
 2.33591e-01  4.34891e-02        00000 
 2.80270e-01 -2.40625e-02        00000 
 2.89730e-01 -2.44478e-02        00000 
 2.96079e-01 -2.53727e-02        00000 
 2.99011e-01 -2.33648e-02        00000 
 3.00645e-01 -2.13606e-02        00000 
 3.05596e-01 -2.09639e-02        00000 
 3.08984e-01 -1.95967e-02        00000 
 3.09475e-01 -1.59926e-02        00000 
 3.10303e-01 -1.15203e-02        00000 
 3.11827e-01 -7.93897e-03        00000 
 3.10637e-01 -3.48704e-03        00000 
 3.08065e-01  1.45159e-03        00000 
 3.05370e-01  7.59219e-03        00000 
 3.04248e-01  1.36922e-02        00000 
 3.01973e-01  1.70475e-02        00000 
 2.89954e-01  2.53910e-02        00000 
 3.15606e-01 -3.23967e-02        00000 
 3.22832e-01 -3.07968e-02        00000 
 3.27643e-01 -2.88005e-02        00000 
 3.28895e-01 -2.63107e-02        00000 
 3.31730e-01 -2.52396e-02        00000 
 3.36482e-01 -2.35856e-02        00000 
 3.41832e-01 -2.10312e-02        00000 
 3.46345e-01 -1.90159e-02        00000 
 3.50386e-01 -1.76452e-02        00000 
 3.55975e-01 -1.51024e-02        00000 
 3.58447e-01 -1.17002e-02        00000 
 3.57075e-01 -7.16814e-03        00000 
 3.60108e-01 -2.92423e-03        00000 
 3.64702e-01  5.98191e-04        00000 
 3.66014e-01  4.38034e-03        00000 
 3.66136e-01  5.58736e-03        00000 
 3.52108e-01 -4.32434e-02        00000 
 3.55898e-01 -3.93438e-02        00000 
 3.59237e-01 -3.63090e-02        00000 
 3.63415e-01 -3.33492e-02        00000 
 3.63207e-01 -3.03376e-02        00000 
 3.67127e-01 -2.80705e-02        00000 
 3.72557e-01 -2.66767e-02        00000 
 3.78561e-01 -2.61471e-02        00000 
 3.87712e-01 -2.45667e-02        00000 
 3.96841e-01 -2.28669e-02        00000 
 4.05116e-01 -2.12796e-02        00000 
 4.07238e-01 -1.84227e-02        00000 
 4.13979e-01 -1.72116e-02        00000 
 4.22511e-01 -1.60110e-02        00000 
 4.26370e-01 -9.96063e-03        00000 
 4.29810e-01 -6.57458e-03        00000 
 3.86882e-01 -5.53988e-02        00000 
 3.90634e-01 -5.22014e-02        00000 
 3.91677e-01 -4.70925e-02        00000 
 3.95793e-01 -4.49164e-02        00000 
 3.98805e-01 -4.30080e-02        00000 
 4.03869e-01 -4.10574e-02        00000 
 4.10104e-01 -3.80204e-02        00000 
 4.18942e-01 -3.68296e-02        00000 
 4.28768e-01 -3.45997e-02        00000 
 4.39724e-01 -3.38932e-02        00000 
 4.50354e-01 -3.39308e-02        00000 
 4.57012e-01 -3.35020e-02        00000 
 4.65038e-01 -3.24521e-02        00000 
 4.74679e-01 -3.12131e-02        00000 
 4.84317e-01 -2.70486e-02        00000 
 4.98138e-01 -2.22255e-02        00000 
 4.17513e-01 -6.75768e-02        00000 