<?xml version="1.0" encoding="utf-8"?>
<VTKFile byte_order="LittleEndian" type="UnstructuredGrid" version="0.1">
   <UnstructuredGrid>
      <Piece NumberOfCells="17640" NumberOfPoints="19224">
         <Points>
            <DataArray Name="Points" NumberOfComponents="3" format="ascii" type="Float32">
0.3442 0.3442 0.0000
0.4379 0.4379 0.0000
0.5316 0.5316 0.0000
0.6253 0.6253 0.0000
0.7190 0.7190 0.0000
0.8126 0.8126 0.0000
0.9063 0.9063 0.0000
1.0000 1.0000 0.0000
0.3168 0.3696 0.0000
0.3940 0.4597 0.0000
0.4712 0.5497 0.0000
0.5484 0.6398 0.0000
0.6256 0.7298 0.0000
0.7028 0.8199 0.0000
0.7800 0.9099 0.0000
0.8571 1.0000 0.0000
0.2830 0.3961 0.0000
0.3446 0.4824 0.0000
0.4062 0.5687 0.0000
0.4678 0.6549 0.0000
0.5294 0.7412 0.0000
0.5910 0.8275 0.0000
0.6527 0.9137 0.0000
0.7143 1.0000 0.0000
0.2415 0.4227 0.0000
0.2887 0.5051 0.0000
0.3358 0.5876 0.0000
0.3829 0.6701 0.0000
0.4300 0.7526 0.0000
0.4772 0.8350 0.0000
0.5243 0.9175 0.0000
0.5714 1.0000 0.0000
0.1918 0.4475 0.0000
0.2256 0.5264 0.0000
0.2594 0.6053 0.0000
0.2933 0.6843 0.0000
0.3271 0.7632 0.0000
0.3609 0.8421 0.0000
0.3947 0.9211 0.0000
0.4286 1.0000 0.0000
0.1337 0.4681 0.0000
0.1554 0.5441 0.0000
0.1772 0.6201 0.0000
0.1989 0.6960 0.0000
0.2206 0.7720 0.0000
0.2423 0.8480 0.0000
0.2640 0.9240 0.0000
0.2857 1.0000 0.0000
0.0688 0.4819 0.0000
0.0794 0.5559 0.0000
0.0900 0.6299 0.0000
0.1006 0.7040 0.0000
0.1111 0.7780 0.0000
0.1217 0.8520 0.0000
0.1323 0.9260 0.0000
0.1429 1.0000 0.0000
0.0000 0.4868 0.0000
0.0000 0.5601 0.0000
0.0000 0.6334 0.0000
0.0000 0.7067 0.0000
0.0000 0.7801 0.0000
0.0000 0.8534 0.0000
0.0000 0.9267 0.0000
0.0000 1.0000 0.0000
-0.0688 0.4819 0.0000
-0.0794 0.5559 0.0000
-0.0900 0.6299 0.0000
-0.1006 0.7040 0.0000
-0.1111 0.7780 0.0000
-0.1217 0.8520 0.0000
-0.1323 0.9260 0.0000
-0.1429 1.0000 0.0000
-0.1337 0.4681 0.0000
-0.1554 0.5441 0.0000
-0.1772 0.6201 0.0000
-0.1989 0.6960 0.0000
-0.2206 0.7720 0.0000
-0.2423 0.8480 0.0000
-0.2640 0.9240 0.0000
-0.2857 1.0000 0.0000
-0.1918 0.4475 0.0000
-0.2256 0.5264 0.0000
-0.2594 0.6053 0.0000
-0.2933 0.6843 0.0000
-0.3271 0.7632 0.0000
-0.3609 0.8421 0.0000
-0.3947 0.9211 0.0000
-0.4286 1.0000 0.0000
-0.2415 0.4227 0.0000
-0.2887 0.5051 0.0000
-0.3358 0.5876 0.0000
-0.3829 0.6701 0.0000
-0.4300 0.7526 0.0000
-0.4772 0.8350 0.0000
-0.5243 0.9175 0.0000
-0.5714 1.0000 0.0000
-0.2830 0.3961 0.0000
-0.3446 0.4824 0.0000
-0.4062 0.5687 0.0000
-0.4678 0.6549 0.0000
-0.5294 0.7412 0.0000
-0.5910 0.8275 0.0000
-0.6527 0.9137 0.0000
-0.7143 1.0000 0.0000
-0.3168 0.3696 0.0000
-0.3940 0.4597 0.0000
-0.4712 0.5497 0.0000
-0.5484 0.6398 0.0000
-0.6256 0.7298 0.0000
-0.7028 0.8199 0.0000
-0.7800 0.9099 0.0000
-0.8571 1.0000 0.0000
-0.3442 0.3442 0.0000
-0.4379 0.4379 0.0000
-0.5316 0.5316 0.0000
-0.6253 0.6253 0.0000
-0.7190 0.7190 0.0000
-0.8126 0.8126 0.0000
-0.9063 0.9063 0.0000
-1.0000 1.0000 0.0000
-0.3696 0.3168 0.0000
-0.4597 0.3940 0.0000
-0.5497 0.4712 0.0000
-0.6398 0.5484 0.0000
-0.7298 0.6256 0.0000
-0.8199 0.7028 0.0000
-0.9099 0.7800 0.0000
-1.0000 0.8571 0.0000
-0.3961 0.2830 0.0000
-0.4824 0.3446 0.0000
-0.5687 0.4062 0.0000
-0.6549 0.4678 0.0000
-0.7412 0.5294 0.0000
-0.8275 0.5910 0.0000
-0.9137 0.6527 0.0000
-1.0000 0.7143 0.0000
-0.4227 0.2415 0.0000
-0.5051 0.2887 0.0000
-0.5876 0.3358 0.0000
-0.6701 0.3829 0.0000
-0.7526 0.4300 0.0000
-0.8350 0.4772 0.0000
-0.9175 0.5243 0.0000
-1.0000 0.5714 0.0000
-0.4475 0.1918 0.0000
-0.5264 0.2256 0.0000
-0.6053 0.2594 0.0000
-0.6843 0.2933 0.0000
-0.7632 0.3271 0.0000
-0.8421 0.3609 0.0000
-0.9211 0.3947 0.0000
-1.0000 0.4286 0.0000
-0.4681 0.1337 0.0000
-0.5441 0.1554 0.0000
-0.6201 0.1772 0.0000
-0.6960 0.1989 0.0000
-0.7720 0.2206 0.0000
-0.8480 0.2423 0.0000
-0.9240 0.2640 0.0000
-1.0000 0.2857 0.0000
-0.4819 0.0688 0.0000
-0.5559 0.0794 0.0000
-0.6299 0.0900 0.0000
-0.7040 0.1006 0.0000
-0.7780 0.1111 0.0000
-0.8520 0.1217 0.0000
-0.9260 0.1323 0.0000
-1.0000 0.1429 0.0000
-0.4868 0.0000 0.0000
-0.5601 0.0000 0.0000
-0.6334 0.0000 0.0000
-0.7067 0.0000 0.0000
-0.7801 0.0000 0.0000
-0.8534 0.0000 0.0000
-0.9267 0.0000 0.0000
-1.0000 0.0000 0.0000
-0.4819 -0.0688 0.0000
-0.5559 -0.0794 0.0000
-0.6299 -0.0900 0.0000
-0.7040 -0.1006 0.0000
-0.7780 -0.1111 0.0000
-0.8520 -0.1217 0.0000
-0.9260 -0.1323 0.0000
-1.0000 -0.1429 0.0000
-0.4681 -0.1337 0.0000
-0.5441 -0.1554 0.0000
-0.6201 -0.1772 0.0000
-0.6960 -0.1989 0.0000
-0.7720 -0.2206 0.0000
-0.8480 -0.2423 0.0000
-0.9240 -0.2640 0.0000
-1.0000 -0.2857 0.0000
-0.4475 -0.1918 0.0000
-0.5264 -0.2256 0.0000
-0.6053 -0.2594 0.0000
-0.6843 -0.2933 0.0000
-0.7632 -0.3271 0.0000
-0.8421 -0.3609 0.0000
-0.9211 -0.3947 0.0000
-1.0000 -0.4286 0.0000
-0.4227 -0.2415 0.0000
-0.5051 -0.2887 0.0000
-0.5876 -0.3358 0.0000
-0.6701 -0.3829 0.0000
-0.7526 -0.4300 0.0000
-0.8350 -0.4772 0.0000
-0.9175 -0.5243 0.0000
-1.0000 -0.5714 0.0000
-0.3961 -0.2830 0.0000
-0.4824 -0.3446 0.0000
-0.5687 -0.4062 0.0000
-0.6549 -0.4678 0.0000
-0.7412 -0.5294 0.0000
-0.8275 -0.5910 0.0000
-0.9137 -0.6527 0.0000
-1.0000 -0.7143 0.0000
-0.3696 -0.3168 0.0000
-0.4597 -0.3940 0.0000
-0.5497 -0.4712 0.0000
-0.6398 -0.5484 0.0000
-0.7298 -0.6256 0.0000
-0.8199 -0.7028 0.0000
-0.9099 -0.7800 0.0000
-1.0000 -0.8571 0.0000
-0.3442 -0.3442 0.0000
-0.4379 -0.4379 0.0000
-0.5316 -0.5316 0.0000
-0.6253 -0.6253 0.0000
-0.7190 -0.7190 0.0000
-0.8126 -0.8126 0.0000
-0.9063 -0.9063 0.0000
-1.0000 -1.0000 0.0000
-0.3168 -0.3696 0.0000
-0.3940 -0.4597 0.0000
-0.4712 -0.5497 0.0000
-0.5484 -0.6398 0.0000
-0.6256 -0.7298 0.0000
-0.7028 -0.8199 0.0000
-0.7800 -0.9099 0.0000
-0.8571 -1.0000 0.0000
-0.2830 -0.3961 0.0000
-0.3446 -0.4824 0.0000
-0.4062 -0.5687 0.0000
-0.4678 -0.6549 0.0000
-0.5294 -0.7412 0.0000
-0.5910 -0.8275 0.0000
-0.6527 -0.9137 0.0000
-0.7143 -1.0000 0.0000
-0.2415 -0.4227 0.0000
-0.2887 -0.5051 0.0000
-0.3358 -0.5876 0.0000
-0.3829 -0.6701 0.0000
-0.4300 -0.7526 0.0000
-0.4772 -0.8350 0.0000
-0.5243 -0.9175 0.0000
-0.5714 -1.0000 0.0000
-0.1918 -0.4475 0.0000
-0.2256 -0.5264 0.0000
-0.2594 -0.6053 0.0000
-0.2933 -0.6843 0.0000
-0.3271 -0.7632 0.0000
-0.3609 -0.8421 0.0000
-0.3947 -0.9211 0.0000
-0.4286 -1.0000 0.0000
-0.1337 -0.4681 0.0000
-0.1554 -0.5441 0.0000
-0.1772 -0.6201 0.0000
-0.1989 -0.6960 0.0000
-0.2206 -0.7720 0.0000
-0.2423 -0.8480 0.0000
-0.2640 -0.9240 0.0000
-0.2857 -1.0000 0.0000
-0.0688 -0.4819 0.0000
-0.0794 -0.5559 0.0000
-0.0900 -0.6299 0.0000
-0.1006 -0.7040 0.0000
-0.1111 -0.7780 0.0000
-0.1217 -0.8520 0.0000
-0.1323 -0.9260 0.0000
-0.1429 -1.0000 0.0000
0.0000 -0.4868 0.0000
0.0000 -0.5601 0.0000
0.0000 -0.6334 0.0000
0.0000 -0.7067 0.0000
0.0000 -0.7801 0.0000
0.0000 -0.8534 0.0000
0.0000 -0.9267 0.0000
0.0000 -1.0000 0.0000
0.0688 -0.4819 0.0000
0.0794 -0.5559 0.0000
0.0900 -0.6299 0.0000
0.1006 -0.7040 0.0000
0.1111 -0.7780 0.0000
0.1217 -0.8520 0.0000
0.1323 -0.9260 0.0000
0.1429 -1.0000 0.0000
0.1337 -0.4681 0.0000
0.1554 -0.5441 0.0000
0.1772 -0.6201 0.0000
0.1989 -0.6960 0.0000
0.2206 -0.7720 0.0000
0.2423 -0.8480 0.0000
0.2640 -0.9240 0.0000
0.2857 -1.0000 0.0000
0.1918 -0.4475 0.0000
0.2256 -0.5264 0.0000
0.2594 -0.6053 0.0000
0.2933 -0.6843 0.0000
0.3271 -0.7632 0.0000
0.3609 -0.8421 0.0000
0.3947 -0.9211 0.0000
0.4286 -1.0000 0.0000
0.2415 -0.4227 0.0000
0.2887 -0.5051 0.0000
0.3358 -0.5876 0.0000
0.3829 -0.6701 0.0000
0.4300 -0.7526 0.0000
0.4772 -0.8350 0.0000
0.5243 -0.9175 0.0000
0.5714 -1.0000 0.0000
0.2830 -0.3961 0.0000
0.3446 -0.4824 0.0000
0.4062 -0.5687 0.0000
0.4678 -0.6549 0.0000
0.5294 -0.7412 0.0000
0.5910 -0.8275 0.0000
0.6527 -0.9137 0.0000
0.7143 -1.0000 0.0000
0.3168 -0.3696 0.0000
0.3940 -0.4597 0.0000
0.4712 -0.5497 0.0000
0.5484 -0.6398 0.0000
0.6256 -0.7298 0.0000
0.7028 -0.8199 0.0000
0.7800 -0.9099 0.0000
0.8571 -1.0000 0.0000
0.3442 -0.3442 0.0000
0.4379 -0.4379 0.0000
0.5316 -0.5316 0.0000
0.6253 -0.6253 0.0000
0.7190 -0.7190 0.0000
0.8126 -0.8126 0.0000
0.9063 -0.9063 0.0000
1.0000 -1.0000 0.0000
0.3696 -0.3168 0.0000
0.4597 -0.3940 0.0000
0.5497 -0.4712 0.0000
0.6398 -0.5484 0.0000
0.7298 -0.6256 0.0000
0.8199 -0.7028 0.0000
0.9099 -0.7800 0.0000
1.0000 -0.8571 0.0000
0.3961 -0.2830 0.0000
0.4824 -0.3446 0.0000
0.5687 -0.4062 0.0000
0.6549 -0.4678 0.0000
0.7412 -0.5294 0.0000
0.8275 -0.5910 0.0000
0.9137 -0.6527 0.0000
1.0000 -0.7143 0.0000
0.4227 -0.2415 0.0000
0.5051 -0.2887 0.0000
0.5876 -0.3358 0.0000
0.6701 -0.3829 0.0000
0.7526 -0.4300 0.0000
0.8350 -0.4772 0.0000
0.9175 -0.5243 0.0000
1.0000 -0.5714 0.0000
0.4475 -0.1918 0.0000
0.5264 -0.2256 0.0000
0.6053 -0.2594 0.0000
0.6843 -0.2933 0.0000
0.7632 -0.3271 0.0000
0.8421 -0.3609 0.0000
0.9211 -0.3947 0.0000
1.0000 -0.4286 0.0000
0.4681 -0.1337 0.0000
0.5441 -0.1554 0.0000
0.6201 -0.1772 0.0000
0.6960 -0.1989 0.0000
0.7720 -0.2206 0.0000
0.8480 -0.2423 0.0000
0.9240 -0.2640 0.0000
1.0000 -0.2857 0.0000
0.4819 -0.0688 0.0000
0.5559 -0.0794 0.0000
0.6299 -0.0900 0.0000
0.7040 -0.1006 0.0000
0.7780 -0.1111 0.0000
0.8520 -0.1217 0.0000
0.9260 -0.1323 0.0000
1.0000 -0.1429 0.0000
0.4868 0.0000 0.0000
0.5601 0.0000 0.0000
0.6334 0.0000 0.0000
0.7067 0.0000 0.0000
0.7801 0.0000 0.0000
0.8534 0.0000 0.0000
0.9267 0.0000 0.0000
1.0000 0.0000 0.0000
0.4819 0.0688 0.0000
0.5559 0.0794 0.0000
0.6299 0.0900 0.0000
0.7040 0.1006 0.0000
0.7780 0.1111 0.0000
0.8520 0.1217 0.0000
0.9260 0.1323 0.0000
1.0000 0.1429 0.0000
0.4681 0.1337 0.0000
0.5441 0.1554 0.0000
0.6201 0.1772 0.0000
0.6960 0.1989 0.0000
0.7720 0.2206 0.0000
0.8480 0.2423 0.0000
0.9240 0.2640 0.0000
1.0000 0.2857 0.0000
0.4475 0.1918 0.0000
0.5264 0.2256 0.0000
0.6053 0.2594 0.0000
0.6843 0.2933 0.0000
0.7632 0.3271 0.0000
0.8421 0.3609 0.0000
0.9211 0.3947 0.0000
1.0000 0.4286 0.0000
0.4227 0.2415 0.0000
0.5051 0.2887 0.0000
0.5876 0.3358 0.0000
0.6701 0.3829 0.0000
0.7526 0.4300 0.0000
0.8350 0.4772 0.0000
0.9175 0.5243 0.0000
1.0000 0.5714 0.0000
0.3961 0.2830 0.0000
0.4824 0.3446 0.0000
0.5687 0.4062 0.0000
0.6549 0.4678 0.0000
0.7412 0.5294 0.0000
0.8275 0.5910 0.0000
0.9137 0.6527 0.0000
1.0000 0.7143 0.0000
0.3696 0.3168 0.0000
[...]
         <PointData>
            <DataArray Name="fValues" NumberOfComponents="3" format="ascii" type="Float64">
 1.93598e-03  1.02345e-03        00000 
 1.75073e-03  1.19083e-03        00000 
 1.63484e-03  1.31292e-03        00000 
 1.54733e-03  1.42195e-03        00000 
 1.47196e-03  1.52721e-03        00000 
 1.39687e-03  1.63393e-03        00000 
 1.30012e-03  1.75320e-03        00000 
 1.12066e-03  1.91390e-03        00000 
 1.85529e-03  9.69835e-04        00000 
 1.66912e-03  1.10322e-03        00000 
 1.55034e-03  1.20453e-03        00000 
 1.45933e-03  1.29315e-03        00000 
 1.37974e-03  1.37666e-03        00000 
 1.30117e-03  1.45768e-03        00000 
 1.21217e-03  1.53925e-03        00000 
 1.10315e-03  1.63184e-03        00000 
 1.75879e-03  9.06281e-04        00000 
 1.57695e-03  1.00618e-03        00000 
 1.45730e-03  1.08525e-03        00000 
 1.36472e-03  1.15522e-03        00000 
 1.28405e-03  1.22090e-03        00000 
 1.20703e-03  1.28498e-03        00000 
 1.12892e-03  1.35005e-03        00000 
 1.05031e-03  1.41977e-03        00000 
 1.64575e-03  8.33349e-04        00000 
 1.47354e-03  8.99365e-04        00000 
 1.35638e-03  9.56081e-04        00000 
 1.26460e-03  1.00803e-03        00000 
 1.18516e-03  1.05757e-03        00000 
 1.11149e-03  1.10634e-03        00000 
 1.04050e-03  1.15570e-03        00000 
 9.71391e-04  1.20654e-03        00000 
 1.51612e-03  7.52195e-04        00000 
 1.35967e-03  7.85045e-04        00000 
 1.24896e-03  8.19686e-04        00000 
 1.16074e-03  8.54263e-04        00000 
 1.08437e-03  8.88568e-04        00000 
 1.01451e-03  9.22885e-04        00000 
 9.48405e-04  9.57590e-04        00000 
 8.84675e-04  9.92943e-04        00000 
 1.37192e-03  6.65297e-04        00000 
 1.23734e-03  6.67999e-04        00000 
 1.13737e-03  6.81803e-04        00000 
 1.05550e-03  6.99997e-04        00000 
 9.83809e-04  7.20038e-04        00000 
 9.18171e-04  7.40969e-04        00000 
 8.56329e-04  7.62468e-04        00000 
 7.96963e-04  7.84458e-04        00000 
 1.21778e-03  5.76787e-04        00000 
 1.11003e-03  5.54959e-04        00000 
 1.02456e-03  5.50824e-04        00000 
 9.51415e-04  5.54506e-04        00000 
 8.85639e-04  5.61745e-04        00000 
 8.24569e-04  5.70626e-04        00000 
 7.66686e-04  5.80276e-04        00000 
 7.11070e-04  5.90317e-04        00000 
 1.06071e-03  4.92069e-04        00000 
 9.82613e-04  4.53328e-04        00000 
 9.13756e-04  4.35799e-04        00000 
 8.50519e-04  4.27890e-04        00000 
 7.91060e-04  4.24406e-04        00000 
 7.34355e-04  4.22890e-04        00000 
 6.79783e-04  4.22132e-04        00000 
 6.26935e-04  4.21509e-04        00000 
 9.08723e-04  4.16471e-04        00000 
 8.60587e-04  3.69255e-04        00000 
 8.08033e-04  3.43583e-04        00000 
 7.54022e-04  3.27451e-04        00000 
 6.99958e-04  3.15572e-04        00000 
 6.46523e-04  3.05464e-04        00000 
 5.94035e-04  2.95893e-04        00000 
 5.42600e-04  2.86202e-04        00000 
 7.69113e-04  3.53582e-04        00000 
 7.48594e-04  3.05766e-04        00000 
 7.09588e-04  2.76499e-04        00000 
 6.62306e-04  2.54913e-04        00000 
 6.11476e-04  2.36533e-04        00000 
 5.59460e-04  2.19398e-04        00000 
 5.07481e-04  2.02624e-04        00000 
 4.56154e-04  1.85821e-04        00000 
 6.46860e-04  3.04446e-04        00000 
 6.49320e-04  2.62035e-04        00000 
 6.19431e-04  2.31940e-04        00000 
 5.75315e-04  2.06356e-04        00000 
 5.24961e-04  1.82488e-04        00000 
 4.72323e-04  1.59388e-04        00000 
 4.19474e-04  1.36898e-04        00000 
 3.67518e-04  1.15186e-04        00000 
 5.44032e-04  2.67971e-04        00000 
 5.63421e-04  2.34313e-04        00000 
 5.37704e-04  2.04186e-04        00000 
 4.93041e-04  1.74772e-04        00000 
 4.40506e-04  1.45582e-04        00000 
 3.85604e-04  1.17106e-04        00000 
 3.31296e-04  9.02894e-05        00000 
 2.79033e-04  6.62596e-05        00000 
 4.60153e-04  2.41875e-04        00000 
 4.90206e-04  2.17797e-04        00000 
 4.64122e-04  1.87052e-04        00000 
 4.15636e-04  1.53132e-04        00000 
 3.58706e-04  1.18243e-04        00000 
 3.00700e-04  8.46156e-05        00000 
 2.45655e-04  5.50308e-05        00000 
 1.95401e-04  3.21201e-05        00000 
 3.93246e-04  2.23459e-04        00000 
 4.28312e-04  2.08340e-04        00000 
 3.98090e-04  1.75640e-04        00000 
 3.43278e-04  1.36008e-04        00000 
 2.80175e-04  9.50265e-05        00000 
 2.18422e-04  5.63534e-05        00000 
 1.66928e-04  2.45120e-05        00000 
 1.24975e-04  9.35671e-06        00000 
 3.41215e-04  2.09887e-04        00000 
 3.75726e-04  2.03591e-04        00000 
 3.38942e-04  1.66249e-04        00000 
 2.76104e-04  1.19988e-04        00000 
 2.05215e-04  7.29384e-05        00000 
 1.38217e-04  3.03567e-05        00000 
 9.14263e-05 -3.40238e-06        00000 
 1.10781e-04 -2.31763e-05        00000 
 2.90532e-04  1.97161e-04        00000 
 3.24124e-04  2.04277e-04        00000 
 3.01331e-04  1.75805e-04        00000 
 2.51940e-04  1.35078e-04        00000 
 1.90776e-04  9.11585e-05        00000 
 1.25472e-04  4.92672e-05        00000 
 6.06457e-05  1.42130e-05        00000 
 4.28439e-21 -4.68605e-21        00000 
 2.36529e-04  1.86504e-04        00000 
 2.67705e-04  2.03834e-04        00000 
 2.54742e-04  1.84087e-04        00000 
 2.18586e-04  1.49301e-04        00000 
 1.69585e-04  1.08774e-04        00000 
 1.13922e-04  6.73491e-05        00000 
 5.58620e-05  2.92886e-05        00000 
-1.22724e-20 -6.13622e-21        00000 
 1.82044e-04  1.78594e-04        00000 
 2.07683e-04  2.02689e-04        00000 
 2.01504e-04  1.89931e-04        00000 
 1.76832e-04  1.60620e-04        00000 
 1.40506e-04  1.23519e-04        00000 
 9.67117e-05  8.27715e-05        00000 
 4.87734e-05  4.07678e-05        00000 
 1.20265e-21  6.01323e-21        00000 
 1.30362e-04  1.75177e-04        00000 
 1.47674e-04  2.01254e-04        00000 
 1.45203e-04  1.92596e-04        00000 
 1.29842e-04  1.67083e-04        00000 
 1.05438e-04  1.32769e-04        00000 
 7.43674e-05  9.30164e-05        00000 
 3.85189e-05  4.87900e-05        00000 
-2.44233e-21 -1.32793e-20        00000 
 8.51670e-05  1.78598e-04        00000 
 9.28685e-05  2.00888e-04        00000 
 9.14879e-05  1.92065e-04        00000 
 8.30325e-05  1.67490e-04        00000 
 6.88523e-05  1.34428e-04        00000 
 4.98239e-05  9.57464e-05        00000 
 2.66103e-05  5.15659e-05        00000 
 8.59375e-21  1.54586e-20        00000 
 5.01282e-05  1.91749e-04        00000 
 4.89875e-05  2.03965e-04        00000 
 4.74363e-05  1.89613e-04        00000 
 4.38124e-05  1.62110e-04        00000 
 3.74946e-05  1.27955e-04        00000 
 2.82517e-05  8.98311e-05        00000 
 1.58676e-05  4.78798e-05        00000 
 3.30385e-21  4.40514e-21        00000 
 2.86467e-05  2.17813e-04        00000 
 2.17180e-05  2.13132e-04        00000 
 2.07256e-05  1.87624e-04        00000 
 2.06926e-05  1.53098e-04        00000 
 1.94782e-05  1.15190e-04        00000 
 1.61474e-05  7.66040e-05        00000 
 1.00079e-05  3.83385e-05        00000 
 5.72747e-21  1.78188e-20        00000 
 2.39355e-05  2.59276e-04        00000 
 1.70234e-05  2.30426e-04        00000 
 1.92229e-05  1.89181e-04        00000 
 2.21845e-05  1.44592e-04        00000 
 2.27752e-05  1.00838e-04        00000 
 1.98314e-05  6.05682e-05        00000 
 1.26227e-05  2.60948e-05        00000 
 8.35157e-21 -1.12119e-21        00000 
 3.86467e-05  3.16370e-04        00000 
 4.05430e-05  2.57101e-04        00000 
 4.94484e-05  1.98138e-04        00000 
 5.45402e-05  1.42625e-04        00000 
 5.26873e-05  9.21874e-05        00000 
 4.31555e-05  4.90099e-05        00000 
 2.57335e-05  1.65235e-05        00000 
 1.19952e-21  1.14158e-20        00000 
 7.35314e-05  3.86144e-04        00000 
 9.47155e-05  2.93821e-04        00000 
 1.13119e-04  2.18629e-04        00000 
 1.18458e-04  1.53730e-04        00000 
 1.09100e-04  9.70942e-05        00000 
 8.55371e-05  4.97827e-05        00000 
 4.87436e-05  1.53798e-05        00000 
-1.70827e-20 -1.17443e-20        00000 
 1.26328e-04  4.63229e-04        00000 
 1.76227e-04  3.40320e-04        00000 
 2.05195e-04  2.53215e-04        00000 
 2.08227e-04  1.82157e-04        00000 
 1.86696e-04  1.20944e-04        00000 
 1.42802e-04  6.85346e-05        00000 
 7.93083e-05  2.69186e-05        00000 
 6.73477e-20  9.92176e-21        00000 
 1.92147e-04  5.41839e-04        00000 
 2.77024e-04  3.94870e-04        00000 
 3.16189e-04  3.01447e-04        00000 
 3.14864e-04  2.28205e-04        00000 
 2.78707e-04  1.65128e-04        00000 
 2.11324e-04  1.08597e-04        00000 
 1.15508e-04  5.48531e-05        00000 
-6.55650e-20 -1.67450e-20        00000 
 2.64866e-04  6.17298e-04        00000 
 3.88075e-04  4.54620e-04        00000 
 4.36286e-04  3.60532e-04        00000 
 4.29985e-04  2.88758e-04        00000 
 3.81169e-04  2.27948e-04        00000 
 2.92872e-04  1.72631e-04        00000 
 1.64044e-04  1.12797e-04        00000 
 9.20725e-20  4.79473e-20        00000 
 3.38129e-04  6.85694e-04        00000 
 5.03219e-04  5.17386e-04        00000 
 5.56943e-04  4.26453e-04        00000 
 5.48997e-04  3.58934e-04        00000 
 5.00304e-04  3.06426e-04        00000 
 4.30189e-04  2.65579e-04        00000 
 3.95729e-04  2.20626e-04        00000 
 6.10275e-04  1.12584e-04        00000 
 4.16250e-04  7.61235e-04        00000 
 6.01674e-04  6.18620e-04        00000 
 6.75013e-04  5.38522e-04        00000 
 6.94318e-04  4.81475e-04        00000 
 6.84629e-04  4.38245e-04        00000 
 6.63656e-04  4.08675e-04        00000 
 6.57279e-04  3.86221e-04        00000 
 6.82526e-04  3.30690e-04        00000 
 5.20639e-04  8.53987e-04        00000 
 7.20590e-04  7.40241e-04        00000 
 8.12053e-04  6.75163e-04        00000 
 8.54830e-04  6.28352e-04        00000 
 8.75312e-04  5.91631e-04        00000 
 8.88190e-04  5.63131e-04        00000 
 9.00278e-04  5.40508e-04        00000 
 9.09167e-04  5.17237e-04        00000 
 6.56116e-04  9.63318e-04        00000 
 8.62682e-04  8.84658e-04        00000 
 9.67935e-04  8.37436e-04        00000 
 1.02943e-03  8.02799e-04        00000 
 1.07254e-03  7.74120e-04        00000 
 1.11041e-03  7.48896e-04        00000 
 1.14832e-03  7.26698e-04        00000 
 1.18205e-03  7.08507e-04        00000 
 8.26935e-04  1.08659e-03        00000 
 1.02782e-03  1.04860e-03        00000 
 1.14033e-03  1.02238e-03        00000 
 1.21487e-03  1.00243e-03        00000 
 1.27431e-03  9.85540e-04        00000 
 1.33131e-03  9.69780e-04        00000 
 1.39347e-03  9.54674e-04        00000 
 1.46435e-03  9.42384e-04        00000 
 1.03336e-03  1.21745e-03        00000 
 1.21288e-03  1.22149e-03        00000 
 1.32400e-03  1.21847e-03        00000 
 1.40541e-03  1.21540e-03        00000 
 1.47558e-03  1.21361e-03        00000 
 1.54573e-03  1.21264e-03        00000 
 1.62498e-03  1.21184e-03        00000 
 1.72301e-03  1.21161e-03        00000 
 1.26872e-03  1.34533e-03        00000 
 1.41137e-03  1.38580e-03        00000 
 1.51194e-03  1.40491e-03        00000 
 1.59421e-03  1.41894e-03        00000 
 1.67012e-03  1.43319e-03        00000 
 1.74754e-03  1.44890e-03        00000 
 1.83375e-03  1.46548e-03        00000 
 1.93822e-03  1.48126e-03        00000 
 1.51868e-03  1.45742e-03        00000 
 1.61381e-03  1.52169e-03        00000 
 1.69736e-03  1.55763e-03        00000 
 1.77632e-03  1.58597e-03        00000 
 1.85460e-03  1.61408e-03        00000 
 1.93497e-03  1.64408e-03        00000 
 2.01987e-03  1.67546e-03        00000 
 2.11214e-03  1.70534e-03        00000 
 1.76418e-03  1.54351e-03        00000 
 1.80963e-03  1.61539e-03        00000 
 1.87519e-03  1.66046e-03        00000 
 1.95035e-03  1.69862e-03        00000 
 2.03054e-03  1.73662e-03        00000 
 2.11287e-03  1.77615e-03        00000 
 2.19421e-03  1.81639e-03        00000 
 2.26928e-03  1.85471e-03        00000 
 1.98708e-03  1.60031e-03        00000 
 1.98973e-03  1.66536e-03        00000 
 2.04223e-03  1.71322e-03        00000 
 2.11705e-03  1.75774e-03        00000 
 2.20170e-03  1.80267e-03        00000 
 2.28857e-03  1.84814e-03        00000 
 2.37077e-03  1.89293e-03        00000 
 2.43946e-03  1.93576e-03        00000 
 2.17535e-03  1.63128e-03        00000 
 2.14830e-03  1.68100e-03        00000 
 2.19630e-03  1.72928e-03        00000 
 2.27653e-03  1.77959e-03        00000 
 2.37007e-03  1.83143e-03        00000 
 2.46610e-03  1.88310e-03        00000 
 2.55694e-03  1.93312e-03        00000 
 2.63682e-03  1.98191e-03        00000 
 2.32492e-03  1.64329e-03        00000 
 2.28311e-03  1.67613e-03        00000 
 2.33561e-03  1.72621e-03        00000 
 2.42749e-03  1.78429e-03        00000 
 2.53499e-03  1.84576e-03        00000 
 2.64512e-03  1.90766e-03        00000 
 2.75095e-03  1.96830e-03        00000 
 2.85310e-03  2.02762e-03        00000 
 2.43812e-03  1.64339e-03        00000 
 2.39462e-03  1.66282e-03        00000 
 2.45906e-03  1.71798e-03        00000 
 2.56825e-03  1.78684e-03        00000 
 2.69511e-03  1.86176e-03        00000 
 2.82409e-03  1.93945e-03        00000 
 2.94656e-03  2.01645e-03        00000 
 3.06299e-03  2.08704e-03        00000 
 2.52054e-03  1.63737e-03        00000 
 2.48500e-03  1.64863e-03        00000 
 2.56677e-03  1.71261e-03        00000 
 2.69773e-03  1.79531e-03        00000 
 2.84993e-03  1.88599e-03        00000 
 3.00465e-03  1.98188e-03        00000 
 3.13731e-03  2.07524e-03        00000 
 3.23542e-03  2.13427e-03        00000 
 2.57762e-03  1.62995e-03        00000 
 2.55814e-03  1.63601e-03        00000 
 2.65967e-03  1.71444e-03        00000 
 2.81551e-03  1.81229e-03        00000 
 2.99971e-03  1.91744e-03        00000 
 3.19166e-03  2.02339e-03        00000 
 3.34045e-03  2.11165e-03        00000 
 3.28577e-03  2.14236e-03        00000 
 2.62877e-03  1.62319e-03        00000 
 2.61611e-03  1.61709e-03        00000 
 2.69117e-03  1.68192e-03        00000 
 2.81721e-03  1.76846e-03        00000 
 2.97598e-03  1.86178e-03        00000 
 3.16112e-03  1.95455e-03        00000 
 3.37005e-03  2.03801e-03        00000 
 3.59255e-03  2.04378e-03        00000 
 2.67509e-03  1.61030e-03        00000 
 2.66978e-03  1.60081e-03        00000 
 2.72509e-03  1.65446e-03        00000 
 2.82055e-03  1.73123e-03        00000 
 2.94454e-03  1.81674e-03        00000 
 3.09082e-03  1.90526e-03        00000 
 3.25559e-03  1.99317e-03        00000 
 3.42683e-03  2.09153e-03        00000 
 2.70932e-03  1.59164e-03        00000 
 2.71348e-03  1.58697e-03        00000 
 2.75375e-03  1.63436e-03        00000 
 2.82216e-03  1.70406e-03        00000 
 2.91198e-03  1.78453e-03        00000 
 3.01847e-03  1.87151e-03        00000 
 3.13797e-03  1.96608e-03        00000 
 3.26919e-03  2.07281e-03        00000 
 2.72430e-03  1.56668e-03        00000 
 2.73802e-03  1.57529e-03        00000 
 2.76762e-03  1.62238e-03        00000 
 2.81395e-03  1.68885e-03        00000 
 2.87446e-03  1.76652e-03        00000 
 2.94653e-03  1.85235e-03        00000 
 3.02849e-03  1.94617e-03        00000 
 3.11970e-03  2.04962e-03        00000 
 2.71408e-03  1.53478e-03        00000 
 2.73400e-03  1.56374e-03        00000 
 2.75585e-03  1.61686e-03        00000 
 2.78520e-03  1.68456e-03        00000 
 2.82252e-03  1.76203e-03        00000 
 2.86693e-03  1.84720e-03        00000 
 2.91756e-03  1.93944e-03        00000 
 2.97394e-03  2.03891e-03        00000 
 2.67575e-03  1.49523e-03        00000 
 2.69554e-03  1.54866e-03        00000 
 2.70989e-03  1.61324e-03        00000 
 2.72587e-03  1.68648e-03        00000 
 2.74548e-03  1.76675e-03        00000 
 2.76888e-03  1.85321e-03        00000 
 2.79562e-03  1.94548e-03        00000 
 2.82511e-03  2.04341e-03        00000 
 2.61063e-03  1.44721e-03        00000 
 2.62258e-03  1.52638e-03        00000 
 2.62710e-03  1.60557e-03        00000 
 2.63099e-03  1.68742e-03        00000 
 2.63663e-03  1.77302e-03        00000 
 2.64455e-03  1.86291e-03        00000 
 2.65454e-03  1.95732e-03        00000 
 2.66612e-03  2.05635e-03        00000 
 2.52403e-03  1.39066e-03        00000 
 2.52035e-03  1.49480e-03        00000 
 2.51138e-03  1.58904e-03        00000 
 2.50275e-03  1.68043e-03        00000 
 2.49633e-03  1.77247e-03        00000 
 2.49253e-03  1.86693e-03        00000 
 2.49127e-03  1.96464e-03        00000 
 2.49232e-03  2.06599e-03        00000 
 2.42349e-03  1.32724e-03        00000 
 2.39709e-03  1.45402e-03        00000 
 2.37122e-03  1.56137e-03        00000 
 2.34920e-03  1.66118e-03        00000 
 2.33158e-03  1.75916e-03        00000 
 2.31818e-03  1.85803e-03        00000 
 2.30874e-03  1.95901e-03        00000 
 2.30317e-03  2.06245e-03        00000 
 2.31685e-03  1.26032e-03        00000 
 2.26212e-03  1.40576e-03        00000 
 2.21728e-03  1.52277e-03        00000 
 2.18148e-03  1.62868e-03        00000 
 2.15316e-03  1.73118e-03        00000 
 2.13102e-03  1.83368e-03        00000 
 2.11417e-03  1.93746e-03        00000 
 2.10212e-03  2.04251e-03        00000 
 2.21076e-03  1.19385e-03        00000 
 2.12435e-03  1.35268e-03        00000 
 2.06000e-03  1.47544e-03        00000 
 2.01066e-03  1.58485e-03        00000 
 1.97201e-03  1.69025e-03        00000 
 1.94120e-03  1.79575e-03        00000 
 1.91597e-03  1.90253e-03        00000 
 1.89475e-03  2.01005e-03        00000 
 2.11006e-03  1.13100e-03        00000 
 1.99085e-03  1.29767e-03        00000 
 1.90752e-03  1.42264e-03        00000 
 1.84520e-03  1.53323e-03        00000 
 1.79629e-03  1.64005e-03        00000 
 1.75628e-03  1.74796e-03        00000 
 1.72182e-03  1.86023e-03        00000 
 1.68643e-03  1.97531e-03        00000 
 2.01780e-03  1.07372e-03        00000 
 1.86595e-03  1.24330e-03        00000 
 1.76484e-03  1.36755e-03        00000 
 1.69019e-03  1.47775e-03        00000 
 1.62996e-03  1.58456e-03        00000 
 1.57847e-03  1.69354e-03        00000 
 1.53148e-03  1.81103e-03        00000 
 1.48026e-03  1.96387e-03        00000 
 3.65948e-03  4.32606e-03        00000 
 3.39421e-03  4.58559e-03        00000 
 3.19235e-03  4.80893e-03        00000 
 3.01410e-03  5.02668e-03        00000 
 2.84637e-03  5.24307e-03        00000 
 2.67986e-03  5.45944e-03        00000 
 2.49524e-03  5.68294e-03        00000 
 2.23056e-03  5.93494e-03        00000 
 3.58813e-03  4.26507e-03        00000 
 3.32200e-03  4.47890e-03        00000 
 3.11956e-03  4.66551e-03        00000 
 2.93986e-03  4.84485e-03        00000 
 2.76905e-03  5.02194e-03        00000 
 2.59868e-03  5.19709e-03        00000 
 2.41766e-03  5.37174e-03        00000 
 2.21736e-03  5.55588e-03        00000 
 3.50570e-03  4.19062e-03        00000 
 3.24216e-03  4.35958e-03        00000 
 3.04012e-03  4.50933e-03        00000 
 2.86042e-03  4.65310e-03        00000 
 2.68922e-03  4.79459e-03        00000 
 2.51946e-03  4.93506e-03        00000 
 2.34665e-03  5.07623e-03        00000 
 2.17164e-03  5.22155e-03        00000 
 3.41246e-03  4.10164e-03        00000 
 3.15522e-03  4.22583e-03        00000 
 2.95550e-03  4.33974e-03        00000 
 2.77721e-03  4.44995e-03        00000 
 2.60749e-03  4.55863e-03        00000 
 2.44049e-03  4.66690e-03        00000 
 2.27362e-03  4.77580e-03        00000 
 2.10676e-03  4.88606e-03        00000 
 3.30966e-03  3.99796e-03        00000 
 3.06336e-03  4.07786e-03        00000 
 2.86822e-03  4.15733e-03        00000 
 2.69279e-03  4.23597e-03        00000 
 2.52570e-03  4.31408e-03        00000 
 2.36202e-03  4.39212e-03        00000 
 2.19949e-03  4.47055e-03        00000 
 2.03728e-03  4.54956e-03        00000 
 3.20033e-03  3.88127e-03        00000 
 2.97027e-03  3.91882e-03        00000 
 2.78211e-03  3.96561e-03        00000 
 2.61070e-03  4.01467e-03        00000 
 2.44676e-03  4.06421e-03        00000 
 2.28623e-03  4.11392e-03        00000 
 2.12713e-03  4.16388e-03        00000 
 1.96847e-03  4.21426e-03        00000 
 3.08955e-03  3.75583e-03        00000 