<?xml version="1.0" encoding="utf-8"?>
<VTKFile byte_order="LittleEndian" type="UnstructuredGrid" version="0.1">
   <UnstructuredGrid>
      <Piece NumberOfCells="25088" NumberOfPoints="25425">
         <Points>
            <DataArray Name="Points" NumberOfComponents="3" format="ascii" type="Float32">
0.0000 1.0000 0.0000
0.0000 0.9938 0.0000
0.0063 1.0000 0.0000
0.0063 0.9938 0.0000
0.0125 1.0000 0.0000
0.0000 0.9875 0.0000
0.0063 0.9875 0.0000
0.0125 0.9938 0.0000
0.0125 0.9875 0.0000
0.0187 1.0000 0.0000
0.0000 0.9812 0.0000
0.0187 0.9938 0.0000
0.0063 0.9812 0.0000
0.0187 0.9875 0.0000
0.0125 0.9812 0.0000
0.0000 0.9750 0.0000
0.0250 1.0000 0.0000
0.0250 0.9938 0.0000
0.0063 0.9750 0.0000
0.0187 0.9812 0.0000
0.0250 0.9875 0.0000
0.0125 0.9750 0.0000
0.0312 1.0000 0.0000
0.0000 0.9688 0.0000
0.0187 0.9750 0.0000
0.0250 0.9812 0.0000
0.0063 0.9688 0.0000
0.0312 0.9938 0.0000
0.0125 0.9688 0.0000
0.0312 0.9875 0.0000
0.0250 0.9750 0.0000
0.0312 0.9812 0.0000
0.0187 0.9688 0.0000
0.0375 1.0000 0.0000
0.0000 0.9625 0.0000
0.0375 0.9938 0.0000
0.0063 0.9625 0.0000
0.0375 0.9875 0.0000
0.0125 0.9625 0.0000
0.0250 0.9688 0.0000
0.0312 0.9750 0.0000
0.0187 0.9625 0.0000
0.0375 0.9812 0.0000
0.0000 0.9563 0.0000
0.0437 1.0000 0.0000
0.0312 0.9688 0.0000
0.0063 0.9563 0.0000
0.0437 0.9938 0.0000
0.0375 0.9750 0.0000
0.0250 0.9625 0.0000
0.0125 0.9563 0.0000
0.0437 0.9875 0.0000
0.0187 0.9563 0.0000
0.0437 0.9812 0.0000
0.0375 0.9688 0.0000
0.0312 0.9625 0.0000
0.0500 1.0000 0.0000
0.0000 0.9500 0.0000
0.0250 0.9563 0.0000
0.0500 0.9938 0.0000
0.0437 0.9750 0.0000
0.0063 0.9500 0.0000
0.0500 0.9875 0.0000
0.0125 0.9500 0.0000
0.0375 0.9625 0.0000
0.0500 0.9812 0.0000
0.0187 0.9500 0.0000
0.0437 0.9688 0.0000
0.0312 0.9563 0.0000
0.0500 0.9750 0.0000
0.0250 0.9500 0.0000
0.0000 0.9437 0.0000
0.0563 1.0000 0.0000
0.0563 0.9938 0.0000
0.0063 0.9437 0.0000
0.0563 0.9875 0.0000
0.0437 0.9625 0.0000
0.0375 0.9563 0.0000
0.0125 0.9437 0.0000
0.0500 0.9688 0.0000
0.0312 0.9500 0.0000
0.0187 0.9437 0.0000
0.0563 0.9812 0.0000
0.0563 0.9750 0.0000
0.0250 0.9437 0.0000
0.0437 0.9563 0.0000
0.0000 0.9375 0.0000
0.0625 1.0000 0.0000
0.0500 0.9625 0.0000
0.0375 0.9500 0.0000
0.0625 0.9938 0.0000
0.0063 0.9375 0.0000
0.0625 0.9875 0.0000
0.0125 0.9375 0.0000
0.0563 0.9688 0.0000
0.0312 0.9437 0.0000
0.0625 0.9812 0.0000
0.0187 0.9375 0.0000
0.0500 0.9563 0.0000
0.0437 0.9500 0.0000
0.0625 0.9750 0.0000
0.0250 0.9375 0.0000
0.0563 0.9625 0.0000
0.0375 0.9437 0.0000
0.0688 1.0000 0.0000
0.0000 0.9313 0.0000
0.0688 0.9938 0.0000
0.0063 0.9313 0.0000
0.0688 0.9875 0.0000
0.0625 0.9688 0.0000
0.0125 0.9313 0.0000
0.0312 0.9375 0.0000
0.0500 0.9500 0.0000
0.0688 0.9812 0.0000
0.0563 0.9563 0.0000
0.0187 0.9313 0.0000
0.0437 0.9437 0.0000
0.0625 0.9625 0.0000
0.0375 0.9375 0.0000
0.0688 0.9750 0.0000
0.0250 0.9313 0.0000
0.0000 0.9250 0.0000
0.0750 1.0000 0.0000
0.0063 0.9250 0.0000
0.0563 0.9500 0.0000
0.0750 0.9938 0.0000
0.0500 0.9437 0.0000
0.0688 0.9688 0.0000
0.0312 0.9313 0.0000
0.0125 0.9250 0.0000
0.0750 0.9875 0.0000
0.0625 0.9563 0.0000
0.0437 0.9375 0.0000
0.0187 0.9250 0.0000
0.0750 0.9812 0.0000
0.0688 0.9625 0.0000
0.0375 0.9313 0.0000
0.0250 0.9250 0.0000
0.0750 0.9750 0.0000
0.0563 0.9437 0.0000
0.0625 0.9500 0.0000
0.0500 0.9375 0.0000
0.0312 0.9250 0.0000
0.0813 1.0000 0.0000
0.0000 0.9187 0.0000
0.0750 0.9688 0.0000
0.0437 0.9313 0.0000
0.0813 0.9938 0.0000
0.0688 0.9563 0.0000
0.0063 0.9187 0.0000
0.0813 0.9875 0.0000
0.0125 0.9187 0.0000
0.0813 0.9812 0.0000
0.0187 0.9187 0.0000
0.0375 0.9250 0.0000
0.0750 0.9625 0.0000
0.0625 0.9437 0.0000
0.0563 0.9375 0.0000
0.0688 0.9500 0.0000
0.0500 0.9313 0.0000
0.0813 0.9750 0.0000
0.0250 0.9187 0.0000
0.0437 0.9250 0.0000
0.0750 0.9563 0.0000
0.0813 0.9688 0.0000
0.0312 0.9187 0.0000
0.0000 0.9125 0.0000
0.0875 1.0000 0.0000
0.0875 0.9938 0.0000
0.0063 0.9125 0.0000
0.0875 0.9875 0.0000
0.0125 0.9125 0.0000
0.0625 0.9375 0.0000
0.0563 0.9313 0.0000
0.0688 0.9437 0.0000
0.0813 0.9625 0.0000
0.0875 0.9812 0.0000
0.0187 0.9125 0.0000
0.0375 0.9187 0.0000
0.0500 0.9250 0.0000
0.0750 0.9500 0.0000
0.0875 0.9750 0.0000
0.0250 0.9125 0.0000
0.0813 0.9563 0.0000
0.0437 0.9187 0.0000
0.0875 0.9688 0.0000
0.0625 0.9313 0.0000
0.0312 0.9125 0.0000
0.0688 0.9375 0.0000
0.0563 0.9250 0.0000
0.0000 0.9062 0.0000
0.0938 1.0000 0.0000
0.0750 0.9437 0.0000
0.0938 0.9938 0.0000
0.0063 0.9062 0.0000
0.0938 0.9875 0.0000
0.0125 0.9062 0.0000
0.0875 0.9625 0.0000
0.0375 0.9125 0.0000
0.0813 0.9500 0.0000
0.0500 0.9187 0.0000
0.0938 0.9812 0.0000
0.0187 0.9062 0.0000
0.0938 0.9750 0.0000
0.0250 0.9062 0.0000
0.0688 0.9313 0.0000
0.0625 0.9250 0.0000
0.0750 0.9375 0.0000
0.0875 0.9563 0.0000
0.0437 0.9125 0.0000
0.0938 0.9688 0.0000
0.0312 0.9062 0.0000
0.0813 0.9437 0.0000
0.0563 0.9187 0.0000
0.0000 0.9000 0.0000
0.1000 1.0000 0.0000
0.0063 0.9000 0.0000
0.1000 0.9938 0.0000
0.0125 0.9000 0.0000
0.1000 0.9875 0.0000
0.0875 0.9500 0.0000
0.0500 0.9125 0.0000
0.0938 0.9625 0.0000
0.0375 0.9062 0.0000
0.0187 0.9000 0.0000
0.0750 0.9313 0.0000
0.0688 0.9250 0.0000
0.1000 0.9812 0.0000
0.0813 0.9375 0.0000
0.0625 0.9187 0.0000
0.0250 0.9000 0.0000
0.1000 0.9750 0.0000
0.0938 0.9563 0.0000
0.0437 0.9062 0.0000
0.0875 0.9437 0.0000
0.0563 0.9125 0.0000
0.0312 0.9000 0.0000
0.1000 0.9688 0.0000
0.0750 0.9250 0.0000
0.0000 0.8938 0.0000
0.0938 0.9500 0.0000
0.1062 1.0000 0.0000
0.0500 0.9062 0.0000
0.1062 0.9938 0.0000
0.0813 0.9313 0.0000
0.0688 0.9187 0.0000
0.0063 0.8938 0.0000
0.0375 0.9000 0.0000
0.1000 0.9625 0.0000
0.1062 0.9875 0.0000
0.0125 0.8938 0.0000
0.0625 0.9125 0.0000
0.0875 0.9375 0.0000
0.1062 0.9812 0.0000
0.0187 0.8938 0.0000
0.1062 0.9750 0.0000
0.0437 0.9000 0.0000
0.1000 0.9563 0.0000
0.0250 0.8938 0.0000
0.0938 0.9437 0.0000
0.0563 0.9062 0.0000
0.0813 0.9250 0.0000
0.0750 0.9187 0.0000
0.1062 0.9688 0.0000
0.0312 0.8938 0.0000
0.0875 0.9313 0.0000
0.0688 0.9125 0.0000
0.0500 0.9000 0.0000
0.1000 0.9500 0.0000
0.0000 0.8875 0.0000
0.1125 1.0000 0.0000
0.1125 0.9938 0.0000
0.0625 0.9062 0.0000
0.1062 0.9625 0.0000
0.0375 0.8938 0.0000
0.0063 0.8875 0.0000
0.0938 0.9375 0.0000
0.1125 0.9875 0.0000
0.0125 0.8875 0.0000
0.1125 0.9812 0.0000
0.0187 0.8875 0.0000
0.1000 0.9437 0.0000
0.0563 0.9000 0.0000
0.1062 0.9563 0.0000
0.0437 0.8938 0.0000
0.0813 0.9187 0.0000
0.0875 0.9250 0.0000
0.1125 0.9750 0.0000
0.0750 0.9125 0.0000
0.0250 0.8875 0.0000
0.0688 0.9062 0.0000
0.0938 0.9313 0.0000
0.1125 0.9688 0.0000
0.0312 0.8875 0.0000
0.0500 0.8938 0.0000
0.1062 0.9500 0.0000
0.0625 0.9000 0.0000
0.1000 0.9375 0.0000
0.1125 0.9625 0.0000
0.0375 0.8875 0.0000
0.1187 1.0000 0.0000
0.0000 0.8812 0.0000
0.1187 0.9938 0.0000
0.0063 0.8812 0.0000
0.1187 0.9875 0.0000
0.0813 0.9125 0.0000
0.0125 0.8812 0.0000
0.0875 0.9187 0.0000
0.0938 0.9250 0.0000
0.0750 0.9062 0.0000
0.1187 0.9812 0.0000
0.1062 0.9437 0.0000
0.0187 0.8812 0.0000
0.0563 0.8938 0.0000
0.1125 0.9563 0.0000
0.0437 0.8875 0.0000
0.0688 0.9000 0.0000
0.1187 0.9750 0.0000
0.1000 0.9313 0.0000
0.0250 0.8812 0.0000
0.1187 0.9688 0.0000
0.0312 0.8812 0.0000
0.1125 0.9500 0.0000
0.0500 0.8875 0.0000
0.0625 0.8938 0.0000
0.1062 0.9375 0.0000
0.0875 0.9125 0.0000
0.0813 0.9062 0.0000
0.0938 0.9187 0.0000
0.1187 0.9625 0.0000
0.0375 0.8812 0.0000
0.0000 0.8750 0.0000
0.1250 1.0000 0.0000
0.0750 0.9000 0.0000
0.1000 0.9250 0.0000
0.1250 0.9938 0.0000
0.0063 0.8750 0.0000
0.1250 0.9875 0.0000
0.0125 0.8750 0.0000
0.1125 0.9437 0.0000
0.0563 0.8875 0.0000
0.1250 0.9812 0.0000
0.0187 0.8750 0.0000
0.0688 0.8938 0.0000
0.1062 0.9313 0.0000
0.1187 0.9563 0.0000
0.0437 0.8812 0.0000
0.1250 0.9750 0.0000
0.0250 0.8750 0.0000
0.0938 0.9125 0.0000
0.0875 0.9062 0.0000
0.0625 0.8875 0.0000
0.1125 0.9375 0.0000
0.1250 0.9688 0.0000
0.0500 0.8812 0.0000
0.1187 0.9500 0.0000
0.0813 0.9000 0.0000
0.0312 0.8750 0.0000
0.1000 0.9187 0.0000
0.1062 0.9250 0.0000
0.0750 0.8938 0.0000
0.1250 0.9625 0.0000
0.0375 0.8750 0.0000
0.0000 0.8688 0.0000
0.1313 1.0000 0.0000
0.1187 0.9437 0.0000
0.0063 0.8688 0.0000
0.1313 0.9938 0.0000
0.0563 0.8812 0.0000
0.1125 0.9313 0.0000
0.0125 0.8688 0.0000
0.0688 0.8875 0.0000
0.1313 0.9875 0.0000
0.1250 0.9563 0.0000
0.0437 0.8750 0.0000
0.0938 0.9062 0.0000
0.0187 0.8688 0.0000
0.1313 0.9812 0.0000
0.1000 0.9125 0.0000
0.0875 0.9000 0.0000
0.0250 0.8688 0.0000
0.1313 0.9750 0.0000
0.0813 0.8938 0.0000
0.1062 0.9187 0.0000
0.0625 0.8812 0.0000
0.1187 0.9375 0.0000
0.1250 0.9500 0.0000
0.0500 0.8750 0.0000
0.0312 0.8688 0.0000
0.1313 0.9688 0.0000
0.1125 0.9250 0.0000
0.0750 0.8875 0.0000
0.0375 0.8688 0.0000
0.1313 0.9625 0.0000
0.1250 0.9437 0.0000
0.1000 0.9062 0.0000
0.0938 0.9000 0.0000
0.0563 0.8750 0.0000
0.0688 0.8812 0.0000
0.1187 0.9313 0.0000
0.0000 0.8625 0.0000
0.1375 1.0000 0.0000
0.0063 0.8625 0.0000
0.1375 0.9938 0.0000
0.1062 0.9125 0.0000
0.0875 0.8938 0.0000
0.0125 0.8625 0.0000
0.1375 0.9875 0.0000
0.1313 0.9563 0.0000
0.0437 0.8688 0.0000
0.0187 0.8625 0.0000
0.1375 0.9812 0.0000
0.1125 0.9187 0.0000
0.0813 0.8875 0.0000
0.0250 0.8625 0.0000
0.1375 0.9750 0.0000
0.0625 0.8750 0.0000
0.1250 0.9375 0.0000
0.1187 0.9250 0.0000
0.0500 0.8688 0.0000
0.1313 0.9500 0.0000
0.0750 0.8812 0.0000
0.0312 0.8625 0.0000
0.1375 0.9688 0.0000
0.1000 0.9000 0.0000
0.0938 0.8938 0.0000
0.1062 0.9062 0.0000
0.0375 0.8625 0.0000
0.1375 0.9625 0.0000
0.1125 0.9125 0.0000
0.0875 0.8875 0.0000
0.1250 0.9313 0.0000
0.0688 0.8750 0.0000
0.0563 0.8688 0.0000
0.1313 0.9437 0.0000
0.0000 0.8562 0.0000
0.1437 1.0000 0.0000
0.1437 0.9938 0.0000
0.0813 0.8812 0.0000
0.0063 0.8562 0.0000
0.1187 0.9187 0.0000
0.1437 0.9875 0.0000
0.0437 0.8625 0.0000
0.1375 0.9563 0.0000
0.0125 0.8562 0.0000
0.1437 0.9812 0.0000
0.0187 0.8562 0.0000
0.0625 0.8688 0.0000
0.1313 0.9375 0.0000
0.1250 0.9250 0.0000
0.0750 0.8750 0.0000
0.1437 0.9750 0.0000
0.0250 0.8562 0.0000
0.1062 0.9000 0.0000
0.1000 0.8938 0.0000
0.0500 0.8625 0.0000
0.1375 0.9500 0.0000
0.1125 0.9062 0.0000
0.0938 0.8875 0.0000
0.1437 0.9688 0.0000
0.0312 0.8562 0.0000
[...]
         <PointData>
            <DataArray Name="fValues" NumberOfComponents="1" format="ascii" type="Float64">
 4.52557e-53 
-6.15959e-53 
-4.25243e-37 
 8.50487e-37 
-2.03237e-36 
-6.64429e-52 
-2.97670e-36 
 4.06475e-36 
-1.42266e-35 
 3.91804e-37 
 1.89414e-51 
-7.83608e-37 
 1.10563e-35 
 2.74263e-36 
 5.28417e-35 
-4.01715e-51 
-5.61047e-37 
 1.12209e-36 
-4.12486e-35 
-1.01869e-35 
-3.92733e-36 
-1.97140e-34 
 1.19236e-36 
 6.09259e-50 
 3.80050e-35 
 1.45872e-35 
 1.53938e-34 
-2.38472e-36 
 7.35719e-34 
 8.34653e-36 
-5.44215e-35 
-3.10014e-35 
-1.41833e-34 
-2.97324e-37 
 3.18926e-50 
 5.94648e-37 
-5.74504e-34 
-2.08127e-36 
-2.74574e-33 
 2.03099e-34 
 1.15659e-34 
 5.29327e-34 
 7.73043e-36 
-4.84901e-49 
 2.05417e-37 
-4.31635e-34 
 2.14408e-33 
-4.10834e-37 
-2.88404e-35 
-7.57974e-34 
 1.02472e-32 
 1.43792e-36 
-1.97548e-33 
-5.34084e-36 
 1.07631e-34 
 1.61088e-33 
 9.96393e-37 
 4.53583e-49 
 2.82880e-33 
-1.99279e-36 
 1.99254e-35 
-8.00180e-33 
 6.97475e-36 
-3.82432e-32 
-4.01685e-34 
-2.59062e-35 
 7.37258e-33 
-7.43609e-35 
-6.01189e-33 
 9.66501e-35 
-1.05572e-32 
-3.33863e-48 
 1.24598e-37 
-2.49196e-37 
 2.98631e-32 
 8.72187e-37 
 2.77518e-34 
 1.49911e-33 
 1.42725e-31 
-3.60694e-34 
 2.24367e-32 
-2.75148e-32 
-3.23955e-36 
 1.20860e-35 
 3.94001e-32 
-1.03571e-33 
 8.16450e-48 
-4.67910e-37 
 1.34613e-33 
-5.59475e-33 
 9.35820e-37 
-1.11451e-31 
-3.27537e-36 
-5.32658e-31 
-4.51045e-35 
-8.37348e-32 
 1.21657e-35 
 1.02687e-31 
-5.02381e-33 
 3.86533e-33 
-4.53873e-35 
-1.47043e-31 
 1.68332e-34 
 2.08799e-32 
 2.25696e-37 
       00000 
-4.51391e-37 
 4.15940e-31 
 1.57987e-36 
 1.69383e-34 
 1.98791e-30 
 3.12502e-31 
 1.87491e-32 
-5.86808e-36 
-6.28224e-34 
-3.83232e-31 
-1.44256e-32 
-6.32146e-34 
-7.79248e-32 
 2.18925e-35 
 5.48772e-31 
       00000 
 1.16757e-36 
-1.55231e-30 
 2.34456e-33 
-2.33514e-36 
-6.99727e-32 
-8.17018e-35 
-1.16628e-30 
-7.41898e-30 
 8.17299e-36 
 2.35920e-33 
 5.38371e-32 
 1.43024e-30 
-3.03568e-35 
 3.04915e-34 
 2.90819e-31 
-2.04805e-30 
 1.13254e-34 
-8.75003e-33 
-8.80466e-33 
 2.61142e-31 
 4.35260e-30 
-8.41424e-37 
       00000 
-4.22660e-34 
-2.00923e-31 
 1.68285e-36 
-1.13796e-33 
 5.79329e-30 
-5.88997e-36 
 2.76880e-29 
 2.18770e-35 
-5.33774e-30 
-1.08535e-30 
 1.57739e-33 
 3.28594e-32 
 3.26555e-32 
 4.24691e-33 
-9.74594e-31 
-8.16181e-35 
 7.64341e-30 
 7.49854e-31 
-5.88689e-33 
 3.04595e-34 
-1.62441e-29 
 7.27734e-30 
-8.40299e-38 
 1.68060e-37 
-4.29583e-29 
-5.88209e-37 
-7.91836e-29 
-1.22633e-31 
-1.21872e-31 
-1.58497e-32 
-1.13676e-33 
 2.18478e-36 
-2.47056e-29 
 4.05059e-30 
 3.63723e-30 
 2.19702e-32 
-8.15090e-36 
-1.61138e-29 
 4.24246e-33 
-2.79849e-30 
 3.04188e-35 
 4.57673e-31 
 5.69778e-29 
 5.91519e-32 
 4.54833e-31 
-2.91094e-29 
 2.94666e-37 
-8.19938e-32 
-5.89332e-37 
 1.66040e-28 
 2.06266e-36 
 2.89046e-28 
-1.13524e-34 
-1.41401e-29 
-1.58331e-32 
-1.35743e-29 
-7.66131e-36 
 1.04161e-28 
 2.85826e-35 
 5.68099e-29 
-2.20758e-31 
-1.70806e-30 
 3.06005e-31 
 4.23679e-34 
 1.01823e-29 
-1.06669e-34 
-2.11661e-28 
 5.90898e-32 
-1.69746e-30 
 1.09160e-28 
-1.59420e-37 
-6.21202e-28 
 3.18840e-37 
-1.07700e-27 
-1.11594e-36 
-1.58119e-33 
 5.07303e-29 
 3.98093e-34 
 5.25079e-29 
-3.91936e-28 
-1.14203e-30 
 8.23879e-31 
 4.14492e-36 
-2.20526e-31 
 6.37456e-30 
-2.11126e-28 
-1.54637e-35 
-1.48570e-33 
-3.79304e-29 
 5.90108e-33 
 6.31621e-30 
 7.89665e-28 
 5.77100e-35 
 4.26210e-30 
-4.07944e-28 
 5.54473e-33 
-4.04707e-37 
-1.89347e-28 
 8.09414e-37 
 8.23015e-31 
-3.07476e-30 
 2.31959e-27 
-1.95891e-28 
-2.15376e-34 
-2.83295e-36 
 4.01607e-27 
-2.37852e-29 
-2.20231e-32 
 1.05224e-35 
 1.47430e-27 
-3.92566e-35 
 1.41539e-28 
 8.03795e-34 
 7.47705e-28 
-2.06932e-32 
-2.35674e-29 
-3.07153e-30 
-1.59064e-29 
 1.46504e-34 
-2.79776e-27 
 8.21915e-32 
 1.14738e-29 
 7.06657e-28 
-2.99980e-33 
 1.52261e-27 
-2.59593e-37 
 5.19185e-37 
 8.87660e-29 
-5.46759e-34 
 8.30355e-28 
-8.65716e-27 
 7.72281e-32 
-1.81715e-36 
-1.49873e-26 
 6.74941e-36 
-5.50528e-27 
 1.11954e-32 
 8.79532e-29 
 2.04053e-33 
-5.48834e-28 
 1.14631e-29 
-3.06743e-31 
-2.51805e-35 
 5.93637e-29 
-2.77969e-27 
-4.28205e-29 
-2.88219e-31 
 9.39725e-35 
 1.04014e-26 
-2.63176e-27 
-7.61538e-33 
-3.31279e-28 
-4.17819e-32 
-3.50709e-34 
-3.12553e-27 
 8.14974e-37 
-5.68252e-27 
-1.62995e-36 
 3.23091e-26 
 5.70482e-36 
-4.27810e-29 
 5.59331e-26 
 1.14478e-30 
 1.07565e-30 
-2.21549e-28 
-2.11893e-35 
 2.84210e-32 
 2.05468e-26 
-3.29725e-28 
 1.30887e-33 
 2.05380e-27 
 1.59808e-28 
 7.90525e-35 
 1.55932e-31 
 1.03711e-26 
-2.95021e-34 
-3.88078e-26 
-4.88475e-33 
 9.82039e-27 
 1.23675e-27 
-1.06068e-31 
-4.27235e-30 
 1.59661e-28 
-4.01437e-30 
 1.10103e-33 
 1.16718e-26 
 2.12074e-26 
-4.47807e-37 
 8.26831e-28 
-5.81946e-31 
 8.95613e-37 
-1.20579e-25 
-3.13465e-36 
-2.08745e-25 
 1.82301e-32 
 1.23095e-27 
 1.16430e-35 
-7.66820e-26 
-5.96518e-28 
 3.95853e-31 
-4.10910e-33 
-7.66635e-27 
-4.34372e-35 
-3.87046e-26 
 1.49818e-29 
 1.59446e-29 
-4.61571e-27 
-6.80358e-32 
 1.62106e-34 
-3.66498e-26 
 1.53354e-32 
-5.95863e-28 
 1.44830e-25 
 2.17185e-30 
-1.47734e-30 
-3.08575e-27 
-6.04987e-34 
-4.35615e-26 
-7.91473e-26 
 1.05301e-37 
-5.72324e-32 
 4.50007e-25 
-2.10602e-37 
-4.59406e-27 
 2.53913e-31 
 7.79047e-25 
 2.22626e-27 
 7.37107e-37 
 2.25784e-33 
 2.86116e-26 
-5.59130e-29 
 2.86181e-25 
-2.73783e-36 
-8.10547e-30 
-5.95061e-29 
 1.44447e-25 
 1.02142e-35 
 2.22378e-27 
 5.51352e-30 
 1.72261e-26 
 2.13594e-31 
-8.42638e-33 
 1.36779e-25 
-5.40511e-25 
-3.81190e-35 
-9.47617e-31 
 1.15162e-26 
 1.62574e-25 
 1.42262e-34 
 3.14477e-32 
 3.02500e-29 
 2.08670e-28 
 1.71453e-26 
-8.30854e-27 
-7.97144e-31 
 4.98638e-25 
 4.00094e-37 
-1.98244e-24 
-8.00187e-37 
-2.05767e-29 
 2.22082e-28 
-3.29244e-24 
 2.80066e-36 
-5.30928e-34 
-1.06780e-25 
-5.61563e-25 
-1.04024e-35 
 3.53655e-30 
-8.29927e-27 
-6.88515e-25 
 3.88091e-35 
-6.42886e-26 
-1.17364e-31 
 2.97498e-30 
-5.10465e-25 
 1.98145e-33 
-4.29789e-26 
 2.23634e-24 
-1.44834e-34 
-1.12895e-28 
-7.78768e-28 
 7.67934e-29 
-6.65456e-25 
 5.40526e-34 
-1.31986e-29 
-8.28822e-28 
 4.38009e-31 
 3.10079e-26 
-6.39871e-26 
-7.39487e-33 
-1.91541e-24 
 2.87216e-37 
-5.74431e-37 
 3.09733e-26 
 7.47976e-24 
-1.11028e-29 
 2.01051e-36 
 4.14262e-25 
-2.01727e-33 
 1.23907e-23 
-7.46761e-36 
 1.96007e-24 
 2.39928e-25 
 2.75980e-32 
-1.63467e-30 
 1.60399e-25 
 2.78599e-35 
 2.60961e-24 
-2.86597e-28 
 4.21328e-28 
 1.90086e-24 
 7.52856e-33 
 4.92578e-29 
 2.90640e-27 
-1.03972e-34 
-8.40486e-24 
 4.14362e-29 
 3.09320e-27 
-1.02997e-31 
-1.15723e-25 
 2.39934e-25 
 3.88028e-34 
 2.49925e-24 
-2.80970e-32 
 6.10068e-30 
-1.15594e-25 
-1.19329e-36 
 7.16287e-24 
 2.38659e-36 
-2.79364e-23 
-1.44814e-33 
 1.06959e-27 
-1.55026e-24 
-1.83833e-28 
-8.35305e-36 
-4.62712e-23 
-1.57242e-27 
-8.95728e-25 
 1.04859e-31 
 3.10256e-35 
 3.84391e-31 
-5.98618e-25 
-7.27556e-24 
-1.08468e-26 
-1.54642e-28 
-1.15749e-34 
-9.76169e-24 
-7.09298e-24 
 5.40454e-33 
-2.27681e-29 
-1.15440e-26 
 4.31972e-34 
 3.14270e-23 
 4.31965e-25 
-3.91340e-31 
-8.95750e-25 
 4.31403e-25 
-2.01700e-32 
-1.43457e-30 
-1.61214e-33 
-9.49557e-24 
 6.86073e-28 
-3.99178e-27 
 5.86835e-27 
 5.77131e-28 
-2.67373e-23 
 4.07100e-37 
 8.49716e-29 
 6.01658e-33 
 6.39906e-24 
 4.04810e-26 
 1.04268e-22 
-8.14200e-37 
 2.23405e-24 
 1.46050e-30 
 2.84970e-36 
 1.72685e-22 
 7.52755e-32 
 3.34298e-24 
 2.71756e-23 
-1.05846e-35 
 4.30828e-26 
 5.35388e-30 
-2.24542e-32 
 2.54212e-23 
 3.94887e-35 
 3.63123e-23 
-2.56046e-27 
-1.47370e-34 
-1.61214e-24 
 1.48975e-26 
-2.80932e-31 
-1.16837e-22 
-2.15388e-27 
-1.61001e-24 
-5.45067e-30 
-3.17118e-28 
-2.19010e-26 
 8.38002e-32 
 3.80244e-24 
 3.42143e-23 
 5.49992e-34 
-1.51077e-25 
-1.99809e-29 
 1.04845e-30 
-8.33759e-24 
-2.05260e-33 
-2.32771e-23 
 9.97865e-23 
-3.02685e-38 
-3.12747e-31 
-1.27117e-23 
 6.05370e-38 
-3.89137e-22 
-1.60789e-25 
-2.11880e-37 
 2.03422e-29 
-6.44469e-22 
 7.86981e-37 
-1.01428e-22 
 8.03840e-27 
 9.55577e-27 
 7.66040e-33 
-5.55983e-26 
 1.18350e-27 
-9.47979e-23 
-2.93604e-36 
-1.35483e-22 
 1.16719e-30 
 8.17355e-26 
 6.31742e-24 
 7.45699e-29 
-3.91288e-30 
 6.00864e-24 
 1.09572e-35 
 4.35906e-22 
-2.85890e-32 
-1.42588e-23 
 5.63827e-25 
-7.59180e-29 
-4.08927e-35 
-1.27357e-22 
-4.35600e-30 
 3.10357e-23 
-2.99997e-26 
-4.41689e-27 
-3.56626e-26 
 1.52614e-34 
 1.46031e-29 
 4.74891e-23 
 1.06696e-31 
 6.00072e-25 
 8.67080e-23 
-3.72409e-22 
-2.10743e-37 
 1.45228e-21 
 4.21486e-37 
 2.07496e-25 
-2.78299e-28 
 2.40519e-21 
-1.47520e-36 
 3.78537e-22 
 5.47932e-36 
-5.69562e-34 
 2.83330e-28 
-3.05041e-25 
 3.53771e-22 
 5.05621e-22 
-2.04421e-35 
 1.62568e-29 
-2.24029e-23 
-3.98194e-31 
-2.36539e-23 
-1.62679e-21 
 7.62889e-35 
-5.44994e-29 
-2.10423e-24 
 2.12564e-33 
 5.32328e-23 
 1.64840e-26 
 1.11961e-25 
 4.75214e-22 
-2.84714e-34 
 1.33095e-25 
 1.03862e-27 
 1.48608e-30 
-1.15806e-22 
-6.06712e-29 
-2.24529e-24 
-7.74385e-25 
-1.05740e-27 
-7.93298e-33 
-1.77245e-22 
-3.23555e-22 
 1.06257e-33 
-1.19875e-37 
 1.38985e-21 
 2.39750e-37 
-5.41998e-21 
 2.03394e-28 
 1.13843e-24 
-8.39125e-37 
-8.97629e-21 
 3.11675e-36 
-1.32028e-21 
-3.96555e-33 
-1.41272e-21 
-5.54612e-30 
 8.36034e-23 
 2.96063e-32 
 8.82982e-23 
-1.16279e-35 
-1.88700e-21 
-6.15193e-26 
 2.26428e-28 
 7.85465e-24 
-4.17842e-25 
-3.87620e-27 
-4.96716e-25 
 3.94628e-27 
 4.33947e-35 
 6.07124e-21 
-1.98672e-22 
 1.47996e-32 
-7.59078e-28 
 2.89004e-24 
-1.61951e-34 
-1.10492e-31 
-1.77350e-21 
 4.32190e-22 
 2.06984e-29 
 8.38100e-24 
 6.61490e-22 
-5.52330e-32 
-8.45041e-28 
-4.24909e-24 
 6.04410e-34 
 1.20751e-21 
-9.76929e-37 
-5.18699e-21 
 2.29593e-25 
 1.44662e-26 
 1.95386e-36 
 2.02276e-20 
-6.83850e-36 
 4.12362e-31 
 1.55941e-24 
-3.12013e-22 
 3.35000e-20 
-1.47277e-26 
-2.25569e-33 
 4.92737e-21 
-3.29539e-22 
 2.54002e-35 
 2.06132e-31 
-2.93144e-23 
-7.72475e-29 
 5.27234e-21 
 1.85377e-24 
 2.83292e-27 
-9.47621e-35 
 7.04238e-21 
 8.41834e-33 
 7.41457e-22 
 3.15374e-27 
-1.07857e-23 
 3.53648e-34 
-2.26582e-20 
-1.53896e-30 
-3.12711e-23 
-7.69296e-31 
-1.61295e-21 
-1.31983e-33 
 6.61878e-21 
 2.88292e-28 
 1.58579e-23 
-5.39885e-26 
-2.46871e-21 
-8.56853e-25 
-3.14177e-32 
 5.49645e-26 
 4.92568e-33 
-1.05726e-26 
-5.81979e-24 
-4.50649e-21 
 1.16445e-21 
 2.87105e-30 
 2.51018e-20 
-4.97494e-37 
-1.17699e-26 
-6.91839e-24 
-8.38734e-20 
 5.74347e-30 
 9.94988e-37 
 1.09375e-22 
-9.33452e-20 
-3.48246e-36 
-1.83829e-32 
 1.17252e-31 
 1.22986e-21 
-1.83892e-20 
-4.16811e-20 
 1.29348e-35 
 4.02527e-23 
-1.07592e-27 
-3.40190e-20 
-4.82569e-35 
 6.86058e-32 
-2.76716e-21 
 1.16704e-22 
 8.69180e-20 
-1.07149e-29 
 2.01488e-25 
 1.80093e-34 
-2.05130e-25 
-4.37592e-31 
 6.01962e-21 
 3.94575e-26 
 3.19782e-24 
-2.14349e-29 
-5.90770e-23 
-6.72114e-34 
-2.53331e-20 
 4.39259e-26 
 2.17198e-23 
-2.56040e-31 
 9.21337e-21 
 2.58198e-23 
 2.50836e-33 
 4.01538e-27 
 1.69876e-20 
 1.63311e-30 
-4.34578e-21 
-4.08184e-22 
 3.99886e-29 
-1.25091e-36 
-9.52201e-20 
 3.15266e-19 
 9.55556e-31 
 2.50182e-36 
-4.58989e-21 
 6.85840e-20 
-9.36134e-33 
 3.39881e-19 
-8.75637e-36 
 7.99962e-29 
-1.50619e-22 
 7.65557e-25 
 1.61452e-19 
 3.25236e-35 
-7.51963e-25 
-1.47257e-25 
-1.19344e-23 
-1.63934e-25 
 1.29034e-19 
-1.21338e-34 
-6.09487e-30 
-4.35543e-22 
 1.03393e-20 
 3.49370e-32 
-3.56618e-30 
 2.20450e-22 
-1.49239e-28 
-2.24655e-20 
-3.25014e-19 
 4.52829e-34 
-1.49856e-26 
-8.10593e-23 
 9.47135e-20 
-1.68998e-33 
-3.43880e-20 
-2.98550e-28 
-9.53897e-23 
-1.30387e-31 
 2.27463e-29 
 1.52336e-21 
-6.34441e-20 
 1.33092e-29 
 6.30709e-33 
 1.62187e-20 
 5.49571e-25 
-2.85710e-24 
 6.11809e-25 
 2.80636e-24 
 5.62224e-22 
 5.56969e-28 
 1.71306e-20 
 4.86610e-31 
 3.55779e-19 
 3.39118e-37 
-2.55947e-19 
-6.78236e-37 
-1.17719e-18 
 4.45399e-23 
-2.35384e-32 
 5.59271e-26 
 2.37383e-36 
-1.26617e-18 
-8.81706e-36 
-6.04145e-19 
-4.96705e-29 
 1.11420e-27 
 3.02556e-22 
 1.62547e-21 
 3.28944e-35 
-8.48905e-29 
-8.22724e-22 
-4.82050e-19 
-3.85901e-20 
 8.78464e-32 
 8.38422e-20 
-1.81605e-30 
-1.22761e-34 
 1.21289e-18 
 3.55739e-22 
-2.07864e-27 
-2.05103e-24 
 4.58148e-34 
-3.53262e-19 
-2.28330e-24 
 1.06628e-23 
 1.28339e-19 
-3.27847e-31 
 1.85373e-28 
-2.08723e-25 
-5.68526e-21 
-1.04735e-23 
-6.05288e-20 
 6.77760e-30 
-1.70983e-33 
 2.35998e-19 
 3.16816e-28 
-2.09828e-21 
-1.67109e-22 
-4.15826e-27 
-6.39324e-20 
 1.22354e-30 
 6.38118e-33 
 9.37247e-19 
-1.05970e-36 
-1.32786e-18 
 7.75758e-27 
 2.11939e-36 
-1.12917e-21 
 4.39343e-18 
-7.41788e-36 
 4.72508e-18 
-6.06635e-21 
-2.52943e-29 
-6.91821e-28 
 3.07044e-21 
 2.75521e-35 
 2.25414e-18 
-1.02791e-34 
-2.38149e-32 
-4.56632e-30 
-3.12903e-19 
 8.52140e-24 
 7.65454e-24 
 1.61826e-19 
 1.80284e-18 
-1.32757e-21 
-1.18237e-27 
 7.78964e-25 
-3.97942e-23 
 3.83610e-34 
-4.54025e-18 
 1.55188e-26 
 3.93657e-23 
-4.92395e-19 
 8.88784e-32 
-1.43165e-33 
 2.12177e-20 
 9.43998e-29 
 1.38991e-18 
 6.23896e-22 
-2.89517e-26 
 2.58191e-27 
 7.83089e-21 
 1.70417e-29 
 2.25897e-19 
 5.34299e-33 
-1.07956e-18 
-3.31699e-31 
 4.21411e-21 
 4.41267e-27 
 2.40575e-19 
-3.18023e-23 
-1.99403e-32 
-3.43970e-18 
-2.85671e-23 
-2.90713e-24 
-3.52305e-28 
-1.14591e-20 
 1.36208e-19 
-1.88598e-37 
 2.26399e-20 
-1.05418e-17 
 3.77197e-37 
-6.36006e-29 
-5.79171e-26 
-2.74899e-17 
-1.32019e-36 
 1.47175e-22 
-1.24108e-18 
 4.90356e-36 
-9.63582e-27 
 4.95453e-21 
 1.23792e-30 
 1.16724e-18 
 7.44183e-32 
-1.46989e-22 
 1.08049e-25 
-6.23060e-19 
-7.27794e-18 
-1.82940e-35 
 1.61195e-17 
 6.82726e-35 
-2.32848e-21 
-1.64683e-26 
-7.91854e-20 
 2.37361e-28 
-2.77733e-31 
-2.92253e-20 
 1.31482e-27 
 1.84528e-18 
-2.54797e-34 
-4.98432e-18 
-4.61997e-30 
-8.42916e-19 
 1.18688e-22 
 1.08496e-23 
 3.59614e-26 
-1.57273e-20 
 1.15685e-22 
 2.16150e-25 
 4.02274e-18 
 9.50913e-34 
 1.03651e-30 
-9.00186e-19 
-5.48906e-22 
-4.03245e-25 
 4.27658e-20 
-8.85843e-28 
 1.72419e-29 
 1.28375e-17 
-3.54886e-33 
-8.45314e-20 
-1.84905e-20 
-4.90697e-27 
 1.73972e-36 
 7.83030e-19 
 6.14606e-26 
 5.48591e-22 
-3.47944e-36 
 3.77738e-17 
 1.21780e-35 
 1.05235e-16 
-3.86832e-30 
-4.35558e-18 
-4.52327e-35 
 2.71018e-18 
 2.32611e-18 
 1.32445e-32 
 1.68753e-34 
-1.34210e-25 
 8.69001e-21 
 2.73089e-17 
-6.43478e-29 
 2.95534e-19 
 1.09070e-19 
-6.29779e-34 
-4.04911e-23 
-5.99376e-17 
 3.30601e-27 
-8.06681e-25 
-4.80682e-22 
-6.88746e-18 
-4.94292e-32 
-4.34171e-22 
 1.44368e-29 
 1.50493e-24 
 3.14563e-18 
 2.35036e-33 
 5.86949e-20 
 1.83131e-26 
 1.85474e-17 
-2.29374e-25 
 2.04845e-21 
-8.77167e-33 
-1.50114e-17 
 3.35939e-18 
 1.84472e-31 
 2.40149e-28 
-1.59607e-19 
 5.00878e-25 
-2.04738e-21 
-5.38788e-29 
 6.90076e-20 
 3.15521e-19 
-1.23382e-26 
 3.27363e-32 
-4.79103e-17 
-3.81370e-18 
-2.77558e-37 
 5.55116e-37 
-1.49404e-16 
-1.94291e-36 
 1.62569e-17 
-3.24315e-20 
-6.88460e-31 
-3.03569e-16 
-6.83453e-26 
 3.01058e-24 
 2.87902e-22 
 7.21651e-36 
 1.80404e-21 
-5.61648e-24 
-2.89135e-17 
-1.22174e-31 
-8.68138e-18 
-2.69231e-35 
-1.03852e-16 
-4.07055e-19 
-8.96250e-28 
 1.62100e-21 
 8.56036e-25 
 2.01078e-28 
-1.10296e-18 
 1.00476e-34 
 2.10713e-16 
-2.19052e-19 
 4.60468e-26 
-1.86930e-24 
 4.55958e-31 
-1.17462e-17 
 2.56937e-30 
-7.64489e-21 
 2.57046e-17 
-3.74981e-34 
-6.64061e-17 
 7.64072e-21 
 2.55068e-25 
-7.50434e-28 
 1.39945e-33 
 5.77443e-17 
 5.95664e-19 
-1.70166e-30 
-1.25374e-17 
 3.34485e-27 
-2.57539e-19 
-5.55741e-23 
-1.15311e-18 
-9.58901e-30 
-1.11112e-21 
 2.09610e-23 
-5.22281e-33 
-6.73547e-21 
-3.19477e-24 
 2.08167e-16 
 1.21036e-19 
-1.71849e-25 
 6.35067e-30 
 1.00000e+00 
-2.23125e-37 
-6.06720e-17 
 1.00000e+00 
 4.46251e-37 
 6.97632e-24 
-6.04983e-21 
 1.00000e+00 
-1.56188e-36 
 1.94918e-32 
-2.78793e-17 
       00001 
 5.80126e-36 
 2.80066e-27 
 1.51915e-18 
 4.02510e-18 
 3.57867e-29 
-9.51927e-25 
 2.85318e-20 
 1.00000e+00 
-1.24831e-26 
 8.17513e-19 
-2.16432e-35 
 1.00000e+00 
 8.07714e-35 
-2.37010e-29 
 4.38391e-17 
-7.27444e-32 
-1.04083e-16 
-2.85164e-20 
 6.41349e-25 
 1.00000e+00 
 2.19286e-22 
-3.01442e-34 
-6.65877e-23 
 4.15657e-21 
 1.19230e-23 
-1.88266e-18 
-1.33558e-28 
-1.04522e-26 
 9.61150e-19 
 2.71486e-31 
-2.60360e-23 
 5.79144e-17 
 2.51378e-20 
 1.00000e+00 
 1.12500e-33 
 8.84535e-29 
 4.29690e-18 
-4.51704e-19 
 4.65877e-26 
 2.25756e-20 
 3.55264e-24 
 1.00000e+00 
-4.19855e-33 
-1.01320e-30 
 2.60209e-16 
-3.20406e-37 
 1.00000e+00 
 6.40811e-37 
-2.39355e-24 
       00001 
-6.93990e-18 
-1.06479e-19 
 4.98444e-28 
-2.24284e-36 
 1.00000e+00 
 3.90081e-26 
 1.00000e+00 
 1.56692e-32 
-3.30113e-28 
-1.49974e-17 
-3.05100e-18 
 8.33055e-36 
 1.00000e+00 
 2.45390e-22 
-3.10793e-35 
-8.21570e-22 
 1.00000e+00 
-4.57245e-23 
 1.06391e-19 
-1.73868e-25 
 3.78131e-30 
-1.39087e-16 
 9.71677e-23 
-1.55152e-20 
 1.15987e-34 
 1.00000e+00 
 1.00000e+00 
-5.84783e-32 
-9.38059e-20 
-1.32586e-23 
-4.32868e-34 
 1.00000e+00 
-2.40288e-19 
-1.86022e-27 
 1.23200e-27 
 6.93496e-18 
-1.45580e-25 
 1.68578e-18 
-8.42646e-20 
 1.00000e+00 
 2.18244e-31 
 8.93284e-24 
-1.41120e-29 
-5.20417e-17 
 1.61548e-33 
 1.00000e+00 
 6.48884e-25 
-6.02907e-33 
       00001 
 3.97511e-19 
-8.14497e-31 
 1.00000e+00 
 1.70975e-22 
-9.14972e-22 
-4.59788e-27 
 2.62405e-17 
 1.13881e-17 
-3.74564e-22 
 3.06699e-21 
 6.94243e-27 
 1.15024e-36 
 1.00000e+00 
 5.26668e-29 
 4.55133e-17 
 1.00000e+00 
-2.30047e-36 
 1.00000e+00 
 2.25008e-32 
 8.05165e-36 
 5.78666e-20 
 4.94819e-23 
 1.00000e+00 
 1.00000e+00 
-2.99061e-35 
 5.43313e-25 
-3.97047e-19 
 1.11573e-34 
 1.00000e+00 
 3.50130e-19 
-3.33378e-23 
 3.03974e-30 
 1.00000e+00 
-8.39741e-32 
 1.00000e+00 
-4.16385e-34 
 1.00000e+00 
 1.71595e-26 
       00000 
-1.96555e-28 
-1.87990e-17 
 3.14011e-19 
-2.42167e-24 
-7.37581e-18 
-2.59095e-26 
 1.55397e-33 
 1.00000e+00 
 3.13396e-31 
 1.00000e+00 
       00001 
-1.13445e-29 
-6.38176e-22 
 1.00000e+00 
 1.40109e-21 
-5.79949e-33 
 3.41450e-21 
-2.02767e-24 
-1.48357e-18 
-1.13062e-20 
-6.21243e-23 
 2.16440e-32 
 1.00000e+00 
 7.33554e-28 
-1.15803e-16 
-2.16116e-19 
-6.40402e-26 
 1.24418e-22 
-4.25012e-17 
-1.16961e-30 
       00001 
 1.00000e+00 
 4.23382e-29 
-3.75932e-18 
 9.66956e-26 
 9.03778e-24 
-1.08110e-36 
 1.00000e+00 
-1.30495e-18 
 2.16220e-36 
 1.00000e+00 
-8.07765e-32 
 1.00000e+00 
-7.56771e-36 
       00001 
 2.81086e-35 
 1.00000e+00 
 4.36504e-30 
 1.00000e+00 
-1.04867e-34 
       00001 
 7.56738e-24 
-1.17178e-18 
-2.73766e-27 
       00000 
 1.00000e+00 
 3.01462e-31 
 1.00000e+00 
-1.58008e-28 
 2.39001e-25 
-5.22979e-21 
 2.78175e-17 
 3.91359e-34 
 1.00000e+00 
 2.38173e-21 
-1.32663e-20 
 1.99015e-22 
-1.46057e-33 
 1.00000e+00 
 4.27332e-20 
-4.64020e-22 
-1.62905e-29 
 1.00000e+00 
 1.08024e-17 
-3.60873e-25 
 1.00000e+00 
-1.12507e-30 
-3.37295e-23 
 5.45091e-33 
 1.00000e+00 
 8.00033e-19 
 1.02171e-26 
 1.15175e-16 
 1.00000e+00 
 5.89695e-28 
-2.03431e-32 
 1.00000e+00 
 4.19882e-30 
 1.00000e+00 
-2.82418e-23 
 4.86969e-18 
 1.54343e-17 
-8.91965e-25 
 6.07972e-29 
 1.00000e+00 
 3.74626e-37 
 7.59214e-32 
 1.00000e+00 
 1.00000e+00 
-7.49252e-37 
 1.95181e-20 
 1.00000e+00 
-6.93600e-21 
-7.33937e-22 
 2.62238e-36 
-2.82343e-18 
 1.34680e-24 
 1.00000e+00 
-9.74027e-36 
-1.56702e-29 
 4.75143e-20 
 1.73166e-21 
 1.00000e+00 
 1.00000e+00 
       00001 
-2.20077e-27 
-3.81307e-26 
 5.20417e-17 
 3.63387e-35 
 1.00000e+00 
-2.26898e-28 
-1.36377e-19 
 1.00000e+00 
 1.12388e-22 
-2.83342e-31 
 1.00000e+00 
-1.35615e-34 
 1.00000e+00 
 3.32886e-24 
-4.17262e-17 
 1.05400e-22 
-2.98401e-18 
       00001 
 5.06119e-34 
 5.84821e-29 
 1.00000e+00 
 1.00000e+00 
 1.05745e-30 
-1.88886e-33 
 1.00000e+00 
 8.21339e-27 
       00001 
-1.86033e-17 
-5.02631e-24 
 8.46795e-28 
 1.00000e+00 
 1.42306e-25 
-5.94762e-17 
-8.01303e-20 
 2.73673e-21 
-3.94645e-30 
 1.00000e+00 
 7.04933e-33 
 3.33319e-20 
-6.46262e-21 
 1.00000e+00 
 1.00000e+00 
-2.18258e-28 
-4.15823e-22 
-2.01365e-19 
-1.24235e-23 
 1.24655e-17 