<?xml version="1.0" encoding="utf-8"?>
<VTKFile byte_order="LittleEndian" type="UnstructuredGrid" version="0.1">
   <UnstructuredGrid>
      <Piece NumberOfCells="16" NumberOfPoints="13">
         <Points>
            <DataArray Name="Points" NumberOfComponents="3" format="ascii" type="Float32">
0.0000 1.0000 0.0000
0.0000 1.5000 0.0000
0.0000 2.0000 0.0000
1.0000 1.0000 0.0000
1.0000 1.5000 0.0000
1.0000 2.0000 0.0000
2.0000 1.0000 0.0000
2.0000 1.5000 0.0000
2.0000 2.0000 0.0000
0.5000 1.2500 0.0000
0.5000 1.7500 0.0000
1.5000 1.2500 0.0000
1.5000 1.7500 0.0000</DataArray>
         </Points>
         <Cells>
            <DataArray Name="connectivity" format="ascii" type="Int32">
 1 0 9
 2 1 10
 4 3 11
 5 4 12
 4 1 9
 5 2 10
 7 4 11
 8 5 12
 3 4 9
 4 5 10
 6 7 11
 7 8 12
 0 3 9
 1 4 10
 3 6 11
 4 7 12</DataArray>
            <DataArray Name="offsets" format="ascii" type="Int32">3 6 9 12 15 18 21 24 27 30 33 36 39 42 45 48 </DataArray>
            <DataArray Name="types" format="ascii" type="UInt8">5 5 5 5 5 5 5 5 5 5 5 5 5 5 5 5 </DataArray>
         </Cells>
         <PointData>
            <DataArray Name="fValues" NumberOfComponents="3" format="ascii" type="Float64">
-3.39935e-17  1.64656e-17        00000 
-1.27301e-17  5.37052e-18        00000 
 2.01793e-17 -4.52952e-18        00000 
-3.38557e-01 -1.75306e-02        00000 
-2.43073e-17  8.40115e-02        00000 
 3.38557e-01 -1.75306e-02        00000 
-5.96366e-01 -1.44218e+00        00000 
 3.24537e-18 -1.71176e+00        00000 
 5.96366e-01 -1.44218e+00        00000 
-6.22203e-02  4.76487e-02        00000 
 6.22203e-02  4.76487e-02        00000 
-2.85105e-01 -6.97432e-01        00000 
 2.85105e-01 -6.97432e-01        00000 </DataArray>
         </PointData>
         <CellData/>
      </Piece>
   </UnstructuredGrid>
</VTKFile>