<?xml version="1.0" encoding="utf-8"?>
<VTKFile byte_order="LittleEndian" type="UnstructuredGrid" version="0.1">
   <UnstructuredGrid>
      <Piece NumberOfCells="720" NumberOfPoints="768">
         <Points>
            <DataArray Name="Points" NumberOfComponents="3" format="ascii" type="Float32">
0.2121 0.2121 0.0000
0.2647 0.2647 0.0000
0.3172 0.3172 0.0000
0.3697 0.3697 0.0000
0.4222 0.4222 0.0000
0.4748 0.4748 0.0000
0.5273 0.5273 0.0000
0.5798 0.5798 0.0000
0.6323 0.6323 0.0000
0.6849 0.6849 0.0000
0.7374 0.7374 0.0000
0.7899 0.7899 0.0000
0.8424 0.8424 0.0000
0.8950 0.8950 0.0000
0.9475 0.9475 0.0000
1.0000 1.0000 0.0000
0.1921 0.2305 0.0000
0.2348 0.2818 0.0000
0.2776 0.3331 0.0000
0.3203 0.3844 0.0000
0.3631 0.4357 0.0000
0.4058 0.4870 0.0000
0.4486 0.5383 0.0000
0.4913 0.5896 0.0000
0.5341 0.6409 0.0000
0.5768 0.6922 0.0000
0.6196 0.7435 0.0000
0.6623 0.7948 0.0000
0.7051 0.8461 0.0000
0.7478 0.8974 0.0000
0.7906 0.9487 0.0000
0.8333 1.0000 0.0000
0.1664 0.2496 0.0000
0.1998 0.2996 0.0000
0.2331 0.3497 0.0000
0.2665 0.3997 0.0000
0.2998 0.4497 0.0000
0.3332 0.4997 0.0000
0.3665 0.5498 0.0000
0.3999 0.5998 0.0000
0.4332 0.6498 0.0000
0.4666 0.6998 0.0000
0.4999 0.7499 0.0000
0.5333 0.7999 0.0000
0.5666 0.8499 0.0000
0.6000 0.8999 0.0000
0.6333 0.9500 0.0000
0.6667 1.0000 0.0000
0.1342 0.2683 0.0000
0.1586 0.3171 0.0000
0.1829 0.3659 0.0000
0.2073 0.4147 0.0000
0.2317 0.4634 0.0000
0.2561 0.5122 0.0000
0.2805 0.5610 0.0000
0.3049 0.6098 0.0000
0.3293 0.6586 0.0000
0.3537 0.7073 0.0000
0.3781 0.7561 0.0000
0.4024 0.8049 0.0000
0.4268 0.8537 0.0000
0.4512 0.9024 0.0000
0.4756 0.9512 0.0000
0.5000 1.0000 0.0000
0.0949 0.2846 0.0000
0.1108 0.3323 0.0000
0.1267 0.3800 0.0000
0.1426 0.4277 0.0000
0.1585 0.4754 0.0000
0.1744 0.5231 0.0000
0.1903 0.5708 0.0000
0.2062 0.6185 0.0000
0.2220 0.6661 0.0000
0.2379 0.7138 0.0000
0.2538 0.7615 0.0000
0.2697 0.8092 0.0000
0.2856 0.8569 0.0000
0.3015 0.9046 0.0000
0.3174 0.9523 0.0000
0.3333 1.0000 0.0000
0.0493 0.2959 0.0000
0.0571 0.3429 0.0000
0.0650 0.3898 0.0000
0.0728 0.4367 0.0000
0.0806 0.4837 0.0000
0.0884 0.5306 0.0000
0.0963 0.5776 0.0000
0.1041 0.6245 0.0000
0.1119 0.6714 0.0000
0.1197 0.7184 0.0000
0.1276 0.7653 0.0000
0.1354 0.8122 0.0000
0.1432 0.8592 0.0000
0.1510 0.9061 0.0000
0.1588 0.9531 0.0000
0.1667 1.0000 0.0000
0.0000 0.3000 0.0000
0.0000 0.3467 0.0000
0.0000 0.3933 0.0000
0.0000 0.4400 0.0000
0.0000 0.4867 0.0000
0.0000 0.5333 0.0000
0.0000 0.5800 0.0000
0.0000 0.6267 0.0000
0.0000 0.6733 0.0000
0.0000 0.7200 0.0000
0.0000 0.7667 0.0000
0.0000 0.8133 0.0000
0.0000 0.8600 0.0000
0.0000 0.9067 0.0000
0.0000 0.9533 0.0000
0.0000 1.0000 0.0000
-0.0493 0.2959 0.0000
-0.0571 0.3429 0.0000
-0.0650 0.3898 0.0000
-0.0728 0.4367 0.0000
-0.0806 0.4837 0.0000
-0.0884 0.5306 0.0000
-0.0963 0.5776 0.0000
-0.1041 0.6245 0.0000
-0.1119 0.6714 0.0000
-0.1197 0.7184 0.0000
-0.1276 0.7653 0.0000
-0.1354 0.8122 0.0000
-0.1432 0.8592 0.0000
-0.1510 0.9061 0.0000
-0.1588 0.9531 0.0000
-0.1667 1.0000 0.0000
-0.0949 0.2846 0.0000
-0.1108 0.3323 0.0000
-0.1267 0.3800 0.0000
-0.1426 0.4277 0.0000
-0.1585 0.4754 0.0000
-0.1744 0.5231 0.0000
-0.1903 0.5708 0.0000
-0.2062 0.6185 0.0000
-0.2220 0.6661 0.0000
-0.2379 0.7138 0.0000
-0.2538 0.7615 0.0000
-0.2697 0.8092 0.0000
-0.2856 0.8569 0.0000
-0.3015 0.9046 0.0000
-0.3174 0.9523 0.0000
-0.3333 1.0000 0.0000
-0.1342 0.2683 0.0000
-0.1586 0.3171 0.0000
-0.1829 0.3659 0.0000
-0.2073 0.4147 0.0000
-0.2317 0.4634 0.0000
-0.2561 0.5122 0.0000
-0.2805 0.5610 0.0000
-0.3049 0.6098 0.0000
-0.3293 0.6586 0.0000
-0.3537 0.7073 0.0000
-0.3781 0.7561 0.0000
-0.4024 0.8049 0.0000
-0.4268 0.8537 0.0000
-0.4512 0.9024 0.0000
-0.4756 0.9512 0.0000
-0.5000 1.0000 0.0000
-0.1664 0.2496 0.0000
-0.1998 0.2996 0.0000
-0.2331 0.3497 0.0000
-0.2665 0.3997 0.0000
-0.2998 0.4497 0.0000
-0.3332 0.4997 0.0000
-0.3665 0.5498 0.0000
-0.3999 0.5998 0.0000
-0.4332 0.6498 0.0000
-0.4666 0.6998 0.0000
-0.4999 0.7499 0.0000
-0.5333 0.7999 0.0000
-0.5666 0.8499 0.0000
-0.6000 0.8999 0.0000
-0.6333 0.9500 0.0000
-0.6667 1.0000 0.0000
-0.1921 0.2305 0.0000
-0.2348 0.2818 0.0000
-0.2776 0.3331 0.0000
-0.3203 0.3844 0.0000
-0.3631 0.4357 0.0000
-0.4058 0.4870 0.0000
-0.4486 0.5383 0.0000
-0.4913 0.5896 0.0000
-0.5341 0.6409 0.0000
-0.5768 0.6922 0.0000
-0.6196 0.7435 0.0000
-0.6623 0.7948 0.0000
-0.7051 0.8461 0.0000
-0.7478 0.8974 0.0000
-0.7906 0.9487 0.0000
-0.8333 1.0000 0.0000
-0.2121 0.2121 0.0000
-0.2647 0.2647 0.0000
-0.3172 0.3172 0.0000
-0.3697 0.3697 0.0000
-0.4222 0.4222 0.0000
-0.4748 0.4748 0.0000
-0.5273 0.5273 0.0000
-0.5798 0.5798 0.0000
-0.6323 0.6323 0.0000
-0.6849 0.6849 0.0000
-0.7374 0.7374 0.0000
-0.7899 0.7899 0.0000
-0.8424 0.8424 0.0000
-0.8950 0.8950 0.0000
-0.9475 0.9475 0.0000
-1.0000 1.0000 0.0000
-0.2305 0.1921 0.0000
-0.2818 0.2348 0.0000
-0.3331 0.2776 0.0000
-0.3844 0.3203 0.0000
-0.4357 0.3631 0.0000
-0.4870 0.4058 0.0000
-0.5383 0.4486 0.0000
-0.5896 0.4913 0.0000
-0.6409 0.5341 0.0000
-0.6922 0.5768 0.0000
-0.7435 0.6196 0.0000
-0.7948 0.6623 0.0000
-0.8461 0.7051 0.0000
-0.8974 0.7478 0.0000
-0.9487 0.7906 0.0000
-1.0000 0.8333 0.0000
-0.2496 0.1664 0.0000
-0.2996 0.1998 0.0000
-0.3497 0.2331 0.0000
-0.3997 0.2665 0.0000
-0.4497 0.2998 0.0000
-0.4997 0.3332 0.0000
-0.5498 0.3665 0.0000
-0.5998 0.3999 0.0000
-0.6498 0.4332 0.0000
-0.6998 0.4666 0.0000
-0.7499 0.4999 0.0000
-0.7999 0.5333 0.0000
-0.8499 0.5666 0.0000
-0.8999 0.6000 0.0000
-0.9500 0.6333 0.0000
-1.0000 0.6667 0.0000
-0.2683 0.1342 0.0000
-0.3171 0.1586 0.0000
-0.3659 0.1829 0.0000
-0.4147 0.2073 0.0000
-0.4634 0.2317 0.0000
-0.5122 0.2561 0.0000
-0.5610 0.2805 0.0000
-0.6098 0.3049 0.0000
-0.6586 0.3293 0.0000
-0.7073 0.3537 0.0000
-0.7561 0.3781 0.0000
-0.8049 0.4024 0.0000
-0.8537 0.4268 0.0000
-0.9024 0.4512 0.0000
-0.9512 0.4756 0.0000
-1.0000 0.5000 0.0000
-0.2846 0.0949 0.0000
-0.3323 0.1108 0.0000
-0.3800 0.1267 0.0000
-0.4277 0.1426 0.0000
-0.4754 0.1585 0.0000
-0.5231 0.1744 0.0000
-0.5708 0.1903 0.0000
-0.6185 0.2062 0.0000
-0.6661 0.2220 0.0000
-0.7138 0.2379 0.0000
-0.7615 0.2538 0.0000
-0.8092 0.2697 0.0000
-0.8569 0.2856 0.0000
-0.9046 0.3015 0.0000
-0.9523 0.3174 0.0000
-1.0000 0.3333 0.0000
-0.2959 0.0493 0.0000
-0.3429 0.0571 0.0000
-0.3898 0.0650 0.0000
-0.4367 0.0728 0.0000
-0.4837 0.0806 0.0000
-0.5306 0.0884 0.0000
-0.5776 0.0963 0.0000
-0.6245 0.1041 0.0000
-0.6714 0.1119 0.0000
-0.7184 0.1197 0.0000
-0.7653 0.1276 0.0000
-0.8122 0.1354 0.0000
-0.8592 0.1432 0.0000
-0.9061 0.1510 0.0000
-0.9531 0.1588 0.0000
-1.0000 0.1667 0.0000
-0.3000 0.0000 0.0000
-0.3467 0.0000 0.0000
-0.3933 0.0000 0.0000
-0.4400 0.0000 0.0000
-0.4867 0.0000 0.0000
-0.5333 0.0000 0.0000
-0.5800 0.0000 0.0000
-0.6267 0.0000 0.0000
-0.6733 0.0000 0.0000
-0.7200 0.0000 0.0000
-0.7667 0.0000 0.0000
-0.8133 0.0000 0.0000
-0.8600 0.0000 0.0000
-0.9067 0.0000 0.0000
-0.9533 0.0000 0.0000
-1.0000 0.0000 0.0000
-0.2959 -0.0493 0.0000
-0.3429 -0.0571 0.0000
-0.3898 -0.0650 0.0000
-0.4367 -0.0728 0.0000
-0.4837 -0.0806 0.0000
-0.5306 -0.0884 0.0000
-0.5776 -0.0963 0.0000
-0.6245 -0.1041 0.0000
-0.6714 -0.1119 0.0000
-0.7184 -0.1197 0.0000
-0.7653 -0.1276 0.0000
-0.8122 -0.1354 0.0000
-0.8592 -0.1432 0.0000
-0.9061 -0.1510 0.0000
-0.9531 -0.1588 0.0000
-1.0000 -0.1667 0.0000
-0.2846 -0.0949 0.0000
-0.3323 -0.1108 0.0000
-0.3800 -0.1267 0.0000
-0.4277 -0.1426 0.0000
-0.4754 -0.1585 0.0000
-0.5231 -0.1744 0.0000
-0.5708 -0.1903 0.0000
-0.6185 -0.2062 0.0000
-0.6661 -0.2220 0.0000
-0.7138 -0.2379 0.0000
-0.7615 -0.2538 0.0000
-0.8092 -0.2697 0.0000
-0.8569 -0.2856 0.0000
-0.9046 -0.3015 0.0000
-0.9523 -0.3174 0.0000
-1.0000 -0.3333 0.0000
-0.2683 -0.1342 0.0000
-0.3171 -0.1586 0.0000
-0.3659 -0.1829 0.0000
-0.4147 -0.2073 0.0000
-0.4634 -0.2317 0.0000
-0.5122 -0.2561 0.0000
-0.5610 -0.2805 0.0000
-0.6098 -0.3049 0.0000
-0.6586 -0.3293 0.0000
-0.7073 -0.3537 0.0000
-0.7561 -0.3781 0.0000
-0.8049 -0.4024 0.0000
-0.8537 -0.4268 0.0000
-0.9024 -0.4512 0.0000
-0.9512 -0.4756 0.0000
-1.0000 -0.5000 0.0000
-0.2496 -0.1664 0.0000
-0.2996 -0.1998 0.0000
-0.3497 -0.2331 0.0000
-0.3997 -0.2665 0.0000
-0.4497 -0.2998 0.0000
-0.4997 -0.3332 0.0000
-0.5498 -0.3665 0.0000
-0.5998 -0.3999 0.0000
-0.6498 -0.4332 0.0000
-0.6998 -0.4666 0.0000
-0.7499 -0.4999 0.0000
-0.7999 -0.5333 0.0000
-0.8499 -0.5666 0.0000
-0.8999 -0.6000 0.0000
-0.9500 -0.6333 0.0000
-1.0000 -0.6667 0.0000
-0.2305 -0.1921 0.0000
-0.2818 -0.2348 0.0000
-0.3331 -0.2776 0.0000
-0.3844 -0.3203 0.0000
-0.4357 -0.3631 0.0000
-0.4870 -0.4058 0.0000
-0.5383 -0.4486 0.0000
-0.5896 -0.4913 0.0000
-0.6409 -0.5341 0.0000
-0.6922 -0.5768 0.0000
-0.7435 -0.6196 0.0000
-0.7948 -0.6623 0.0000
-0.8461 -0.7051 0.0000
-0.8974 -0.7478 0.0000
-0.9487 -0.7906 0.0000
-1.0000 -0.8333 0.0000
-0.2121 -0.2121 0.0000
-0.2647 -0.2647 0.0000
-0.3172 -0.3172 0.0000
-0.3697 -0.3697 0.0000
-0.4222 -0.4222 0.0000
-0.4748 -0.4748 0.0000
-0.5273 -0.5273 0.0000
-0.5798 -0.5798 0.0000
-0.6323 -0.6323 0.0000
-0.6849 -0.6849 0.0000
-0.7374 -0.7374 0.0000
-0.7899 -0.7899 0.0000
-0.8424 -0.8424 0.0000
-0.8950 -0.8950 0.0000
-0.9475 -0.9475 0.0000
-1.0000 -1.0000 0.0000
-0.1921 -0.2305 0.0000
-0.2348 -0.2818 0.0000
-0.2776 -0.3331 0.0000
-0.3203 -0.3844 0.0000
-0.3631 -0.4357 0.0000
-0.4058 -0.4870 0.0000
-0.4486 -0.5383 0.0000
-0.4913 -0.5896 0.0000
-0.5341 -0.6409 0.0000
-0.5768 -0.6922 0.0000
-0.6196 -0.7435 0.0000
-0.6623 -0.7948 0.0000
-0.7051 -0.8461 0.0000
-0.7478 -0.8974 0.0000
-0.7906 -0.9487 0.0000
-0.8333 -1.0000 0.0000
-0.1664 -0.2496 0.0000
-0.1998 -0.2996 0.0000
-0.2331 -0.3497 0.0000
-0.2665 -0.3997 0.0000
-0.2998 -0.4497 0.0000
-0.3332 -0.4997 0.0000
-0.3665 -0.5498 0.0000
-0.3999 -0.5998 0.0000
-0.4332 -0.6498 0.0000
-0.4666 -0.6998 0.0000
-0.4999 -0.7499 0.0000
-0.5333 -0.7999 0.0000
-0.5666 -0.8499 0.0000
-0.6000 -0.8999 0.0000
-0.6333 -0.9500 0.0000
-0.6667 -1.0000 0.0000
-0.1342 -0.2683 0.0000
-0.1586 -0.3171 0.0000
-0.1829 -0.3659 0.0000
-0.2073 -0.4147 0.0000
-0.2317 -0.4634 0.0000
-0.2561 -0.5122 0.0000
-0.2805 -0.5610 0.0000
[...]
         <PointData>
            <DataArray Name="fValues" NumberOfComponents="3" format="ascii" type="Float64">
 1.76110e-01 -5.34720e-02        00000 
 1.81978e-01 -5.59857e-02        00000 
 1.90393e-01 -5.88793e-02        00000 
 1.92646e-01 -5.91245e-02        00000 
 1.87489e-01 -5.69969e-02        00000 
 1.81698e-01 -5.35670e-02        00000 
 1.75924e-01 -5.20543e-02        00000 
 1.62614e-01 -4.98417e-02        00000 
 1.45766e-01 -4.75799e-02        00000 
 1.26886e-01 -4.36142e-02        00000 
 1.11626e-01 -4.01676e-02        00000 
 9.28719e-02 -3.82047e-02        00000 
 7.09628e-02 -3.57134e-02        00000 
 5.03224e-02 -3.27084e-02        00000 
 2.63900e-02 -3.29381e-02        00000 
 9.10846e-04 -3.19626e-02        00000 
 1.97127e-01 -5.56484e-02        00000 
 2.02427e-01 -5.68606e-02        00000 
 2.09644e-01 -5.82937e-02        00000 
 2.13450e-01 -5.80053e-02        00000 
 2.11816e-01 -5.61303e-02        00000 
 2.08441e-01 -5.33621e-02        00000 
 2.05473e-01 -5.10054e-02        00000 
 1.99714e-01 -4.96020e-02        00000 
 1.87630e-01 -4.86213e-02        00000 
 1.74596e-01 -4.62814e-02        00000 
 1.62354e-01 -4.31952e-02        00000 
 1.47255e-01 -3.82438e-02        00000 
 1.29910e-01 -3.55937e-02        00000 
 1.16561e-01 -3.43045e-02        00000 
 1.00486e-01 -2.78627e-02        00000 
 8.42556e-02 -2.58662e-02        00000 
 2.22198e-01 -5.73014e-02        00000 
 2.27718e-01 -5.81633e-02        00000 
 2.34584e-01 -5.77990e-02        00000 
 2.37643e-01 -5.61662e-02        00000 
 2.38839e-01 -5.38473e-02        00000 
 2.36197e-01 -5.09060e-02        00000 
 2.36658e-01 -4.93681e-02        00000 
 2.35951e-01 -4.79650e-02        00000 
 2.28692e-01 -4.63289e-02        00000 
 2.21293e-01 -4.35485e-02        00000 
 2.16285e-01 -4.07954e-02        00000 
 2.08506e-01 -3.76541e-02        00000 
 1.94059e-01 -3.20051e-02        00000 
 1.91274e-01 -3.02086e-02        00000 
 1.81677e-01 -2.80307e-02        00000 
 1.69778e-01 -2.34653e-02        00000 
 2.51436e-01 -5.90475e-02        00000 
 2.57641e-01 -6.00802e-02        00000 
 2.63580e-01 -5.80615e-02        00000 
 2.65186e-01 -5.42718e-02        00000 
 2.67172e-01 -5.05523e-02        00000 
 2.69405e-01 -4.82157e-02        00000 
 2.72695e-01 -4.70823e-02        00000 
 2.75067e-01 -4.42049e-02        00000 
 2.73044e-01 -4.26652e-02        00000 
 2.69310e-01 -3.99698e-02        00000 
 2.67760e-01 -3.67090e-02        00000 
 2.69149e-01 -3.37782e-02        00000 
 2.63399e-01 -3.05220e-02        00000 
 2.59882e-01 -2.69910e-02        00000 
 2.56942e-01 -2.38327e-02        00000 
 2.48522e-01 -2.45881e-02        00000 
 2.85638e-01 -6.14387e-02        00000 
 2.92499e-01 -6.12398e-02        00000 
 2.93809e-01 -5.76048e-02        00000 
 2.95415e-01 -5.38009e-02        00000 
 2.98412e-01 -4.94026e-02        00000 
 3.04373e-01 -4.61605e-02        00000 
 3.11915e-01 -4.47340e-02        00000 
 3.15019e-01 -4.18400e-02        00000 
 3.17231e-01 -3.79028e-02        00000 
 3.20976e-01 -3.49052e-02        00000 
 3.25014e-01 -3.17910e-02        00000 
 3.28966e-01 -2.83840e-02        00000 
 3.29440e-01 -2.62904e-02        00000 
 3.28781e-01 -2.15054e-02        00000 
 3.30763e-01 -1.74181e-02        00000 
 3.31244e-01 -1.35341e-02        00000 
 3.22845e-01 -6.64934e-02        00000 
 3.25867e-01 -6.28335e-02        00000 
 3.28592e-01 -5.79325e-02        00000 
 3.32527e-01 -5.28255e-02        00000 
 3.37257e-01 -4.91410e-02        00000 
 3.43519e-01 -4.60648e-02        00000 
 3.50212e-01 -4.30895e-02        00000 
 3.58093e-01 -3.96349e-02        00000 
 3.66679e-01 -3.58842e-02        00000 
 3.75999e-01 -3.28729e-02        00000 
 3.84701e-01 -3.01173e-02        00000 
 3.92037e-01 -2.58290e-02        00000 
 3.96293e-01 -2.16433e-02        00000 
 4.01059e-01 -1.69813e-02        00000 
 4.06547e-01 -1.04085e-02        00000 
 4.14567e-01 -7.21598e-03        00000 
 3.60042e-01 -7.21174e-02        00000 
 3.64266e-01 -6.77124e-02        00000 
 3.66865e-01 -6.22094e-02        00000 
 3.71190e-01 -5.65879e-02        00000 
 3.77526e-01 -5.17084e-02        00000 
 3.84314e-01 -4.72729e-02        00000 
 3.94130e-01 -4.19510e-02        00000 
 4.06058e-01 -3.77051e-02        00000 
 4.17081e-01 -3.46197e-02        00000 
 4.29261e-01 -3.22031e-02        00000 
 4.41153e-01 -2.83020e-02        00000 
 4.52273e-01 -2.38704e-02        00000 
 4.63178e-01 -1.88117e-02        00000 
 4.71645e-01 -1.27997e-02        00000 
 4.83905e-01 -7.14493e-03        00000 
 4.96894e-01 -3.85769e-05        00000 
 3.95094e-01 -7.89962e-02        00000 
 3.99188e-01 -7.37631e-02        00000 
 4.01036e-01 -6.76905e-02        00000 
 4.04421e-01 -6.19642e-02        00000 
 4.13666e-01 -5.70128e-02        00000 
 4.25090e-01 -5.24505e-02        00000 
 4.37121e-01 -4.77767e-02        00000 
 4.50518e-01 -4.20635e-02        00000 
 4.65314e-01 -3.74972e-02        00000 
 4.81252e-01 -3.29408e-02        00000 
 4.95499e-01 -2.80862e-02        00000 
 5.11110e-01 -2.25305e-02        00000 
 5.26510e-01 -1.61598e-02        00000 
 5.45145e-01 -1.13530e-02        00000 
 5.62203e-01 -3.55704e-03        00000 
 5.80608e-01  5.54049e-03        00000 
 4.25456e-01 -8.68350e-02        00000 
 4.32410e-01 -8.24439e-02        00000 
 4.32998e-01 -7.55339e-02        00000 
 4.34343e-01 -6.76935e-02        00000 
 4.44267e-01 -6.22795e-02        00000 
 4.58746e-01 -5.86282e-02        00000 
 4.75471e-01 -5.38225e-02        00000 
 4.94003e-01 -4.75938e-02        00000 
 5.13502e-01 -4.22012e-02        00000 
 5.33937e-01 -3.64209e-02        00000 
 5.51635e-01 -2.87193e-02        00000 
 5.70669e-01 -2.26042e-02        00000 
 5.92058e-01 -1.68430e-02        00000 
 6.15843e-01 -1.07886e-02        00000 
 6.42117e-01 -2.54125e-03        00000 
 6.63458e-01  7.76928e-03        00000 
 4.48714e-01 -9.42547e-02        00000 
 4.58347e-01 -9.09999e-02        00000 
 4.59929e-01 -8.37513e-02        00000 
 4.63572e-01 -7.58439e-02        00000 
 4.74242e-01 -6.99148e-02        00000 
 4.92210e-01 -6.44478e-02        00000 
 5.13047e-01 -5.93575e-02        00000 
 5.34913e-01 -5.15884e-02        00000 
 5.56839e-01 -4.37202e-02        00000 
 5.81955e-01 -3.57029e-02        00000 
 6.07536e-01 -2.84497e-02        00000 
 6.33352e-01 -2.16923e-02        00000 
 6.58891e-01 -1.41110e-02        00000 
 6.86564e-01 -6.64458e-03        00000 
 7.18887e-01  2.63189e-03        00000 
 7.43723e-01  1.23325e-02        00000 
 4.65426e-01 -1.00954e-01        00000 
 4.76561e-01 -9.73639e-02        00000 
 4.81492e-01 -9.08292e-02        00000 
 4.88016e-01 -8.29675e-02        00000 
 5.02409e-01 -7.59620e-02        00000 
 5.21486e-01 -6.90555e-02        00000 
 5.44539e-01 -5.98631e-02        00000 
 5.70120e-01 -5.12322e-02        00000 
 6.01253e-01 -4.24888e-02        00000 
 6.36503e-01 -3.39933e-02        00000 
 6.64304e-01 -2.66472e-02        00000 
 6.92862e-01 -1.87341e-02        00000 
 7.24103e-01 -6.62720e-03        00000 
 7.59482e-01  2.72829e-03        00000 
 7.99325e-01  9.28340e-03        00000 
 8.30369e-01  2.00161e-02        00000 
 4.76348e-01 -1.06510e-01        00000 
 4.88811e-01 -1.02618e-01        00000 
 4.95143e-01 -9.57075e-02        00000 
 5.05248e-01 -8.65236e-02        00000 
 5.25571e-01 -7.83897e-02        00000 
 5.49071e-01 -6.93255e-02        00000 
 5.77493e-01 -5.94894e-02        00000 
 6.09352e-01 -4.93095e-02        00000 
 6.45257e-01 -3.91347e-02        00000 
 6.78582e-01 -2.94753e-02        00000 
 7.11817e-01 -2.09877e-02        00000 
 7.48004e-01 -1.01549e-02        00000 
 7.87024e-01  7.03153e-04        00000 
 8.38319e-01  9.05293e-03        00000 
 8.74970e-01  1.97736e-02        00000 
 9.07418e-01  2.76442e-02        00000 
 4.82404e-01 -1.10711e-01        00000 
 4.95800e-01 -1.05908e-01        00000 
 5.03007e-01 -9.71025e-02        00000 
 5.20324e-01 -8.70893e-02        00000 
 5.44169e-01 -7.75006e-02        00000 
 5.73340e-01 -6.72758e-02        00000 
 6.07294e-01 -5.61765e-02        00000 
 6.42530e-01 -4.45460e-02        00000 
 6.80806e-01 -3.19366e-02        00000 
 7.18484e-01 -2.10841e-02        00000 
 7.58164e-01 -9.84268e-03        00000 
 8.03425e-01  1.94306e-03        00000 
 8.55795e-01  9.54458e-03        00000 
 8.99605e-01  2.05078e-02        00000 
 9.43166e-01  2.87008e-02        00000 
 9.94346e-01  3.08512e-02        00000 
 4.86169e-01 -1.14429e-01        00000 
 4.96673e-01 -1.09301e-01        00000 
 5.03597e-01 -1.01337e-01        00000 
 5.18162e-01 -9.23559e-02        00000 
 5.38543e-01 -8.34712e-02        00000 
 5.61466e-01 -7.41269e-02        00000 
 5.91180e-01 -6.45130e-02        00000 
 6.23102e-01 -5.44030e-02        00000 
 6.52635e-01 -4.26911e-02        00000 
 6.84806e-01 -3.08993e-02        00000 
 7.18499e-01 -2.07028e-02        00000 
 7.54964e-01 -9.92447e-03        00000 
 7.95271e-01 -3.11994e-04        00000 
 8.29405e-01  1.17271e-02        00000 
 8.69450e-01  2.29190e-02        00000 
 9.09749e-01  3.19016e-02        00000 
 4.86942e-01 -1.17106e-01        00000 
 4.95365e-01 -1.12498e-01        00000 
 4.99732e-01 -1.05153e-01        00000 
 5.11675e-01 -9.66059e-02        00000 
 5.29183e-01 -8.86739e-02        00000 
 5.49651e-01 -8.03002e-02        00000 
 5.74364e-01 -7.13834e-02        00000 
 5.98613e-01 -6.08440e-02        00000 
 6.24035e-01 -4.98798e-02        00000 
 6.50285e-01 -3.80444e-02        00000 
 6.74665e-01 -2.72290e-02        00000 
 7.06737e-01 -1.89675e-02        00000 
 7.40507e-01 -1.22746e-02        00000 
 7.72121e-01 -2.15925e-03        00000 
 7.94582e-01  1.31987e-02        00000 
 8.28535e-01  2.36910e-02        00000 
 4.81835e-01 -1.18477e-01        00000 
 4.89673e-01 -1.14672e-01        00000 
 4.92491e-01 -1.07894e-01        00000 
 4.99050e-01 -9.92184e-02        00000 
 5.13441e-01 -9.11399e-02        00000 
 5.28679e-01 -8.24844e-02        00000 
 5.48400e-01 -7.35613e-02        00000 
 5.67253e-01 -6.44191e-02        00000 
 5.87181e-01 -5.34620e-02        00000 
 6.08744e-01 -4.36322e-02        00000 
 6.28040e-01 -3.36464e-02        00000 
 6.49054e-01 -2.33324e-02        00000 
 6.74115e-01 -1.42998e-02        00000 
 6.98028e-01 -4.16157e-03        00000 
 7.23218e-01  7.05816e-03        00000 
 7.46650e-01  1.98531e-02        00000 
 4.69926e-01 -1.17893e-01        00000 
 4.77892e-01 -1.14970e-01        00000 
 4.79341e-01 -1.07650e-01        00000 
 4.81395e-01 -9.88275e-02        00000 
 4.92317e-01 -9.14077e-02        00000 
 5.03601e-01 -8.39438e-02        00000 
 5.16784e-01 -7.47688e-02        00000 
 5.31253e-01 -6.50192e-02        00000 
 5.44741e-01 -5.53629e-02        00000 
 5.60911e-01 -4.66765e-02        00000 
 5.78789e-01 -3.89662e-02        00000 
 5.94765e-01 -2.95026e-02        00000 
 6.11374e-01 -1.88615e-02        00000 
 6.26409e-01 -8.01419e-03        00000 
 6.44743e-01  1.50728e-03        00000 
 6.61002e-01  1.44667e-02        00000 
 4.52589e-01 -1.15527e-01        00000 
 4.57833e-01 -1.11709e-01        00000 
 4.60370e-01 -1.05303e-01        00000 
 4.58689e-01 -9.71212e-02        00000 
 4.65625e-01 -9.01175e-02        00000 
 4.71561e-01 -8.27895e-02        00000 
 4.79865e-01 -7.48903e-02        00000 
 4.89750e-01 -6.67243e-02        00000 
 4.97357e-01 -5.82960e-02        00000 
 5.06447e-01 -4.96199e-02        00000 
 5.19195e-01 -4.15854e-02        00000 
 5.31221e-01 -3.37319e-02        00000 
 5.45549e-01 -2.46928e-02        00000 
 5.54561e-01 -1.26507e-02        00000 
 5.70015e-01 -3.71079e-03        00000 
 5.81668e-01  8.19788e-03        00000 
 4.28980e-01 -1.11959e-01        00000 
 4.30222e-01 -1.06530e-01        00000 
 4.28537e-01 -9.96242e-02        00000 
 4.23789e-01 -9.13116e-02        00000 
 4.27041e-01 -8.46981e-02        00000 
 4.33042e-01 -7.86291e-02        00000 
 4.37512e-01 -7.27618e-02        00000 
 4.41722e-01 -6.72790e-02        00000 
 4.46323e-01 -6.05171e-02        00000 
 4.52735e-01 -5.30072e-02        00000 
 4.61613e-01 -4.43042e-02        00000 
 4.66435e-01 -3.52049e-02        00000 
 4.74492e-01 -2.61482e-02        00000 
 4.77379e-01 -1.53574e-02        00000 
 4.88313e-01 -6.74903e-03        00000 
 4.95963e-01  4.16402e-03        00000 
 3.96254e-01 -1.06436e-01        00000 
 3.95334e-01 -1.00763e-01        00000 
 3.90016e-01 -9.33567e-02        00000 
 3.81553e-01 -8.53378e-02        00000 
 3.83245e-01 -7.88367e-02        00000 
 3.84233e-01 -7.24957e-02        00000 
 3.87242e-01 -6.78442e-02        00000 
 3.88981e-01 -6.36789e-02        00000 
 3.93002e-01 -5.81843e-02        00000 
 3.94183e-01 -5.08072e-02        00000 
 3.94504e-01 -4.28666e-02        00000 
 3.97924e-01 -3.53230e-02        00000 
 4.01822e-01 -2.69586e-02        00000 
 4.06188e-01 -1.92318e-02        00000 
 4.11810e-01 -1.06721e-02        00000 
 4.12700e-01 -7.78995e-04        00000 
 3.59385e-01 -1.02937e-01        00000 
 3.55751e-01 -9.63216e-02        00000 
 3.47623e-01 -8.85083e-02        00000 
 3.39640e-01 -8.09672e-02        00000 
 3.37873e-01 -7.44523e-02        00000 
 3.36821e-01 -6.88716e-02        00000 
 3.34757e-01 -6.44034e-02        00000 
 3.34034e-01 -5.98653e-02        00000 
 3.32884e-01 -5.43978e-02        00000 
 3.31408e-01 -4.78364e-02        00000 
 3.30416e-01 -4.17814e-02        00000 
 3.30092e-01 -3.57009e-02        00000 
 3.33448e-01 -3.08457e-02        00000 
 3.35132e-01 -2.69460e-02        00000 
 3.29568e-01 -1.70832e-02        00000 
 3.30905e-01 -6.22858e-03        00000 
 3.25571e-01 -1.00439e-01        00000 
 3.17288e-01 -9.30898e-02        00000 
 3.08520e-01 -8.60320e-02        00000 
 2.98559e-01 -7.86425e-02        00000 
 2.93823e-01 -7.21216e-02        00000 
 2.91539e-01 -6.75522e-02        00000 
 2.84900e-01 -6.28255e-02        00000 
 2.81268e-01 -5.77851e-02        00000 
 2.76435e-01 -5.25066e-02        00000 
 2.75912e-01 -4.81546e-02        00000 
 2.73497e-01 -4.35319e-02        00000 
 2.66811e-01 -3.84798e-02        00000 
 2.59774e-01 -3.31071e-02        00000 
 2.60658e-01 -2.79108e-02        00000 
 2.59698e-01 -1.99565e-02        00000 
 2.54949e-01 -1.45050e-02        00000 
 2.94335e-01 -9.78861e-02        00000 
 2.84546e-01 -9.10628e-02        00000 
 2.74010e-01 -8.40672e-02        00000 
 2.61973e-01 -7.65967e-02        00000 
 2.54455e-01 -7.03724e-02        00000 
 2.49077e-01 -6.56917e-02        00000 
 2.39588e-01 -6.10916e-02        00000 
 2.31649e-01 -5.59010e-02        00000 
 2.25820e-01 -5.09343e-02        00000 
 2.21457e-01 -4.74012e-02        00000 
 2.14296e-01 -4.32262e-02        00000 
 2.03501e-01 -3.87202e-02        00000 
 1.87665e-01 -3.31587e-02        00000 
 1.84797e-01 -2.85201e-02        00000 
 1.77485e-01 -2.25011e-02        00000 
 1.63187e-01 -1.93402e-02        00000 
 2.67717e-01 -9.52351e-02        00000 
 2.57466e-01 -8.88628e-02        00000 
 2.46167e-01 -8.18201e-02        00000 
 2.30905e-01 -7.42451e-02        00000 
 2.20257e-01 -6.85282e-02        00000 
 2.11208e-01 -6.41273e-02        00000 
 1.99655e-01 -6.00300e-02        00000 
 1.89700e-01 -5.56934e-02        00000 
 1.80591e-01 -5.13724e-02        00000 
 1.68463e-01 -4.69581e-02        00000 
 1.56785e-01 -4.30364e-02        00000 
 1.42898e-01 -3.93532e-02        00000 
 1.29396e-01 -3.54673e-02        00000 
 1.16815e-01 -3.14763e-02        00000 
 1.01128e-01 -2.79812e-02        00000 
 8.19340e-02 -2.37275e-02        00000 
 2.47036e-01 -9.23601e-02        00000 
 2.36481e-01 -8.62418e-02        00000 
 2.22729e-01 -7.95849e-02        00000 
 2.02790e-01 -7.19940e-02        00000 
 1.90110e-01 -6.65950e-02        00000 
 1.77904e-01 -6.28164e-02        00000 
 1.64760e-01 -5.92985e-02        00000 
 1.52057e-01 -5.61994e-02        00000 
 1.36388e-01 -5.20386e-02        00000 
 1.19485e-01 -4.75848e-02        00000 
 1.05340e-01 -4.19808e-02        00000 
 8.92972e-02 -3.54584e-02        00000 
 7.13992e-02 -3.11152e-02        00000 
 5.21397e-02 -3.18622e-02        00000 
 2.53594e-02 -2.90299e-02        00000 
 2.04964e-03 -3.31814e-02        00000 
 2.28286e-01 -8.94199e-02        00000 
 2.18460e-01 -8.43114e-02        00000 
 2.07962e-01 -7.96022e-02        00000 
 1.89992e-01 -7.35467e-02        00000 
 1.73927e-01 -6.80450e-02        00000 
 1.61055e-01 -6.35953e-02        00000 
 1.48497e-01 -6.18087e-02        00000 
 1.33200e-01 -5.94037e-02        00000 
 1.22295e-01 -5.74474e-02        00000 
 1.06873e-01 -5.25371e-02        00000 
 9.24110e-02 -4.69837e-02        00000 
 7.37365e-02 -3.90042e-02        00000 
 5.88016e-02 -3.20043e-02        00000 
 4.25768e-02 -2.87284e-02        00000 
 2.40137e-02 -2.54646e-02        00000 
 1.28644e-03 -2.71132e-02        00000 
 2.07146e-01 -8.54069e-02        00000 
 1.98667e-01 -8.16940e-02        00000 
 1.87968e-01 -7.77418e-02        00000 
 1.76234e-01 -7.36831e-02        00000 
 1.61386e-01 -6.92686e-02        00000 
 1.45281e-01 -6.43718e-02        00000 
 1.34293e-01 -6.09375e-02        00000 
 1.19413e-01 -5.74262e-02        00000 
 1.08466e-01 -5.52971e-02        00000 
 9.52356e-02 -5.08785e-02        00000 
 8.33655e-02 -4.54702e-02        00000 
 6.96555e-02 -4.04117e-02        00000 
 5.26908e-02 -3.42437e-02        00000 
 3.39043e-02 -2.67008e-02        00000 
 1.77677e-02 -2.06517e-02        00000 
 2.85207e-03 -2.10223e-02        00000 
 1.84671e-01 -8.01383e-02        00000 
 1.77352e-01 -7.76634e-02        00000 
 1.70099e-01 -7.47742e-02        00000 
 1.60779e-01 -7.19205e-02        00000 
 1.47166e-01 -6.78153e-02        00000 
 1.32960e-01 -6.39363e-02        00000 
 1.19068e-01 -5.94195e-02        00000 
 1.04667e-01 -5.40587e-02        00000 
 9.25505e-02 -4.95597e-02        00000 
 8.15601e-02 -4.56884e-02        00000 
 6.99723e-02 -4.10287e-02        00000 
 5.86874e-02 -3.57010e-02        00000 
 4.77906e-02 -3.08395e-02        00000 
 3.02972e-02 -2.43861e-02        00000 
 1.33636e-02 -1.89815e-02        00000 
 5.26545e-03 -1.66472e-02        00000 
 1.59842e-01 -7.12996e-02        00000 
 1.54251e-01 -7.04475e-02        00000 
 1.51480e-01 -6.99659e-02        00000 
 1.43982e-01 -6.74403e-02        00000 
 1.34716e-01 -6.47239e-02        00000 
 1.23239e-01 -6.13030e-02        00000 
 1.11693e-01 -5.75503e-02        00000 
 9.69295e-02 -5.16575e-02        00000 
 8.34418e-02 -4.62946e-02        00000 
 6.96167e-02 -4.14312e-02        00000 
 6.00390e-02 -3.72310e-02        00000 
 4.99994e-02 -3.29772e-02        00000 
 3.80890e-02 -2.63205e-02        00000 
 2.55199e-02 -1.92321e-02        00000 
 1.47016e-02 -1.31683e-02        00000 
 1.01433e-02 -1.11696e-02        00000 
 1.35282e-01 -6.11341e-02        00000 
 1.30835e-01 -6.06293e-02        00000 
 1.26902e-01 -6.02155e-02        00000 
 1.22558e-01 -5.90383e-02        00000 
 1.15004e-01 -5.67632e-02        00000 
 1.07210e-01 -5.42521e-02        00000 
 9.88530e-02 -5.15373e-02        00000 
 9.05083e-02 -4.81236e-02        00000 
 7.92852e-02 -4.34956e-02        00000 
 6.62665e-02 -3.87539e-02        00000 
 5.29033e-02 -3.42894e-02        00000 
 4.08412e-02 -3.03198e-02        00000 
 3.17929e-02 -2.52877e-02        00000 
 2.16046e-02 -1.70133e-02        00000 
 1.16649e-02 -7.26149e-03        00000 
 5.27555e-03  8.75659e-05        00000 
 1.14741e-01 -5.06851e-02        00000 
 1.11679e-01 -5.01430e-02        00000 
 1.08948e-01 -4.94889e-02        00000 
 1.06100e-01 -4.94646e-02        00000 
 1.01058e-01 -4.82110e-02        00000 
 9.37100e-02 -4.56044e-02        00000 
 8.51165e-02 -4.24639e-02        00000 
 7.57851e-02 -3.93994e-02        00000 
 6.64946e-02 -3.57477e-02        00000 
 5.80182e-02 -3.18298e-02        00000 
 4.90128e-02 -2.94480e-02        00000 
 4.00363e-02 -2.62250e-02        00000 
 2.96166e-02 -2.00975e-02        00000 
 2.17621e-02 -1.40597e-02        00000 
 1.11212e-02 -5.76346e-03        00000 
 1.62330e-03  2.31216e-03        00000 
 9.91651e-02 -4.15705e-02        00000 