<?xml version="1.0" encoding="utf-8"?>
<VTKFile byte_order="LittleEndian" type="UnstructuredGrid" version="0.1">
   <UnstructuredGrid>
      <Piece NumberOfCells="720" NumberOfPoints="768">
         <Points>
            <DataArray Name="Points" NumberOfComponents="3" format="ascii" type="Float32">
0.2121 0.2121 0.0000
0.2647 0.2647 0.0000
0.3172 0.3172 0.0000
0.3697 0.3697 0.0000
0.4222 0.4222 0.0000
0.4748 0.4748 0.0000
0.5273 0.5273 0.0000
0.5798 0.5798 0.0000
0.6323 0.6323 0.0000
0.6849 0.6849 0.0000
0.7374 0.7374 0.0000
0.7899 0.7899 0.0000
0.8424 0.8424 0.0000
0.8950 0.8950 0.0000
0.9475 0.9475 0.0000
1.0000 1.0000 0.0000
0.1921 0.2305 0.0000
0.2348 0.2818 0.0000
0.2776 0.3331 0.0000
0.3203 0.3844 0.0000
0.3631 0.4357 0.0000
0.4058 0.4870 0.0000
0.4486 0.5383 0.0000
0.4913 0.5896 0.0000
0.5341 0.6409 0.0000
0.5768 0.6922 0.0000
0.6196 0.7435 0.0000
0.6623 0.7948 0.0000
0.7051 0.8461 0.0000
0.7478 0.8974 0.0000
0.7906 0.9487 0.0000
0.8333 1.0000 0.0000
0.1664 0.2496 0.0000
0.1998 0.2996 0.0000
0.2331 0.3497 0.0000
0.2665 0.3997 0.0000
0.2998 0.4497 0.0000
0.3332 0.4997 0.0000
0.3665 0.5498 0.0000
0.3999 0.5998 0.0000
0.4332 0.6498 0.0000
0.4666 0.6998 0.0000
0.4999 0.7499 0.0000
0.5333 0.7999 0.0000
0.5666 0.8499 0.0000
0.6000 0.8999 0.0000
0.6333 0.9500 0.0000
0.6667 1.0000 0.0000
0.1342 0.2683 0.0000
0.1586 0.3171 0.0000
0.1829 0.3659 0.0000
0.2073 0.4147 0.0000
0.2317 0.4634 0.0000
0.2561 0.5122 0.0000
0.2805 0.5610 0.0000
0.3049 0.6098 0.0000
0.3293 0.6586 0.0000
0.3537 0.7073 0.0000
0.3781 0.7561 0.0000
0.4024 0.8049 0.0000
0.4268 0.8537 0.0000
0.4512 0.9024 0.0000
0.4756 0.9512 0.0000
0.5000 1.0000 0.0000
0.0949 0.2846 0.0000
0.1108 0.3323 0.0000
0.1267 0.3800 0.0000
0.1426 0.4277 0.0000
0.1585 0.4754 0.0000
0.1744 0.5231 0.0000
0.1903 0.5708 0.0000
0.2062 0.6185 0.0000
0.2220 0.6661 0.0000
0.2379 0.7138 0.0000
0.2538 0.7615 0.0000
0.2697 0.8092 0.0000
0.2856 0.8569 0.0000
0.3015 0.9046 0.0000
0.3174 0.9523 0.0000
0.3333 1.0000 0.0000
0.0493 0.2959 0.0000
0.0571 0.3429 0.0000
0.0650 0.3898 0.0000
0.0728 0.4367 0.0000
0.0806 0.4837 0.0000
0.0884 0.5306 0.0000
0.0963 0.5776 0.0000
0.1041 0.6245 0.0000
0.1119 0.6714 0.0000
0.1197 0.7184 0.0000
0.1276 0.7653 0.0000
0.1354 0.8122 0.0000
0.1432 0.8592 0.0000
0.1510 0.9061 0.0000
0.1588 0.9531 0.0000
0.1667 1.0000 0.0000
0.0000 0.3000 0.0000
0.0000 0.3467 0.0000
0.0000 0.3933 0.0000
0.0000 0.4400 0.0000
0.0000 0.4867 0.0000
0.0000 0.5333 0.0000
0.0000 0.5800 0.0000
0.0000 0.6267 0.0000
0.0000 0.6733 0.0000
0.0000 0.7200 0.0000
0.0000 0.7667 0.0000
0.0000 0.8133 0.0000
0.0000 0.8600 0.0000
0.0000 0.9067 0.0000
0.0000 0.9533 0.0000
0.0000 1.0000 0.0000
-0.0493 0.2959 0.0000
-0.0571 0.3429 0.0000
-0.0650 0.3898 0.0000
-0.0728 0.4367 0.0000
-0.0806 0.4837 0.0000
-0.0884 0.5306 0.0000
-0.0963 0.5776 0.0000
-0.1041 0.6245 0.0000
-0.1119 0.6714 0.0000
-0.1197 0.7184 0.0000
-0.1276 0.7653 0.0000
-0.1354 0.8122 0.0000
-0.1432 0.8592 0.0000
-0.1510 0.9061 0.0000
-0.1588 0.9531 0.0000
-0.1667 1.0000 0.0000
-0.0949 0.2846 0.0000
-0.1108 0.3323 0.0000
-0.1267 0.3800 0.0000
-0.1426 0.4277 0.0000
-0.1585 0.4754 0.0000
-0.1744 0.5231 0.0000
-0.1903 0.5708 0.0000
-0.2062 0.6185 0.0000
-0.2220 0.6661 0.0000
-0.2379 0.7138 0.0000
-0.2538 0.7615 0.0000
-0.2697 0.8092 0.0000
-0.2856 0.8569 0.0000
-0.3015 0.9046 0.0000
-0.3174 0.9523 0.0000
-0.3333 1.0000 0.0000
-0.1342 0.2683 0.0000
-0.1586 0.3171 0.0000
-0.1829 0.3659 0.0000
-0.2073 0.4147 0.0000
-0.2317 0.4634 0.0000
-0.2561 0.5122 0.0000
-0.2805 0.5610 0.0000
-0.3049 0.6098 0.0000
-0.3293 0.6586 0.0000
-0.3537 0.7073 0.0000
-0.3781 0.7561 0.0000
-0.4024 0.8049 0.0000
-0.4268 0.8537 0.0000
-0.4512 0.9024 0.0000
-0.4756 0.9512 0.0000
-0.5000 1.0000 0.0000
-0.1664 0.2496 0.0000
-0.1998 0.2996 0.0000
-0.2331 0.3497 0.0000
-0.2665 0.3997 0.0000
-0.2998 0.4497 0.0000
-0.3332 0.4997 0.0000
-0.3665 0.5498 0.0000
-0.3999 0.5998 0.0000
-0.4332 0.6498 0.0000
-0.4666 0.6998 0.0000
-0.4999 0.7499 0.0000
-0.5333 0.7999 0.0000
-0.5666 0.8499 0.0000
-0.6000 0.8999 0.0000
-0.6333 0.9500 0.0000
-0.6667 1.0000 0.0000
-0.1921 0.2305 0.0000
-0.2348 0.2818 0.0000
-0.2776 0.3331 0.0000
-0.3203 0.3844 0.0000
-0.3631 0.4357 0.0000
-0.4058 0.4870 0.0000
-0.4486 0.5383 0.0000
-0.4913 0.5896 0.0000
-0.5341 0.6409 0.0000
-0.5768 0.6922 0.0000
-0.6196 0.7435 0.0000
-0.6623 0.7948 0.0000
-0.7051 0.8461 0.0000
-0.7478 0.8974 0.0000
-0.7906 0.9487 0.0000
-0.8333 1.0000 0.0000
-0.2121 0.2121 0.0000
-0.2647 0.2647 0.0000
-0.3172 0.3172 0.0000
-0.3697 0.3697 0.0000
-0.4222 0.4222 0.0000
-0.4748 0.4748 0.0000
-0.5273 0.5273 0.0000
-0.5798 0.5798 0.0000
-0.6323 0.6323 0.0000
-0.6849 0.6849 0.0000
-0.7374 0.7374 0.0000
-0.7899 0.7899 0.0000
-0.8424 0.8424 0.0000
-0.8950 0.8950 0.0000
-0.9475 0.9475 0.0000
-1.0000 1.0000 0.0000
-0.2305 0.1921 0.0000
-0.2818 0.2348 0.0000
-0.3331 0.2776 0.0000
-0.3844 0.3203 0.0000
-0.4357 0.3631 0.0000
-0.4870 0.4058 0.0000
-0.5383 0.4486 0.0000
-0.5896 0.4913 0.0000
-0.6409 0.5341 0.0000
-0.6922 0.5768 0.0000
-0.7435 0.6196 0.0000
-0.7948 0.6623 0.0000
-0.8461 0.7051 0.0000
-0.8974 0.7478 0.0000
-0.9487 0.7906 0.0000
-1.0000 0.8333 0.0000
-0.2496 0.1664 0.0000
-0.2996 0.1998 0.0000
-0.3497 0.2331 0.0000
-0.3997 0.2665 0.0000
-0.4497 0.2998 0.0000
-0.4997 0.3332 0.0000
-0.5498 0.3665 0.0000
-0.5998 0.3999 0.0000
-0.6498 0.4332 0.0000
-0.6998 0.4666 0.0000
-0.7499 0.4999 0.0000
-0.7999 0.5333 0.0000
-0.8499 0.5666 0.0000
-0.8999 0.6000 0.0000
-0.9500 0.6333 0.0000
-1.0000 0.6667 0.0000
-0.2683 0.1342 0.0000
-0.3171 0.1586 0.0000
-0.3659 0.1829 0.0000
-0.4147 0.2073 0.0000
-0.4634 0.2317 0.0000
-0.5122 0.2561 0.0000
-0.5610 0.2805 0.0000
-0.6098 0.3049 0.0000
-0.6586 0.3293 0.0000
-0.7073 0.3537 0.0000
-0.7561 0.3781 0.0000
-0.8049 0.4024 0.0000
-0.8537 0.4268 0.0000
-0.9024 0.4512 0.0000
-0.9512 0.4756 0.0000
-1.0000 0.5000 0.0000
-0.2846 0.0949 0.0000
-0.3323 0.1108 0.0000
-0.3800 0.1267 0.0000
-0.4277 0.1426 0.0000
-0.4754 0.1585 0.0000
-0.5231 0.1744 0.0000
-0.5708 0.1903 0.0000
-0.6185 0.2062 0.0000
-0.6661 0.2220 0.0000
-0.7138 0.2379 0.0000
-0.7615 0.2538 0.0000
-0.8092 0.2697 0.0000
-0.8569 0.2856 0.0000
-0.9046 0.3015 0.0000
-0.9523 0.3174 0.0000
-1.0000 0.3333 0.0000
-0.2959 0.0493 0.0000
-0.3429 0.0571 0.0000
-0.3898 0.0650 0.0000
-0.4367 0.0728 0.0000
-0.4837 0.0806 0.0000
-0.5306 0.0884 0.0000
-0.5776 0.0963 0.0000
-0.6245 0.1041 0.0000
-0.6714 0.1119 0.0000
-0.7184 0.1197 0.0000
-0.7653 0.1276 0.0000
-0.8122 0.1354 0.0000
-0.8592 0.1432 0.0000
-0.9061 0.1510 0.0000
-0.9531 0.1588 0.0000
-1.0000 0.1667 0.0000
-0.3000 0.0000 0.0000
-0.3467 0.0000 0.0000
-0.3933 0.0000 0.0000
-0.4400 0.0000 0.0000
-0.4867 0.0000 0.0000
-0.5333 0.0000 0.0000
-0.5800 0.0000 0.0000
-0.6267 0.0000 0.0000
-0.6733 0.0000 0.0000
-0.7200 0.0000 0.0000
-0.7667 0.0000 0.0000
-0.8133 0.0000 0.0000
-0.8600 0.0000 0.0000
-0.9067 0.0000 0.0000
-0.9533 0.0000 0.0000
-1.0000 0.0000 0.0000
-0.2959 -0.0493 0.0000
-0.3429 -0.0571 0.0000
-0.3898 -0.0650 0.0000
-0.4367 -0.0728 0.0000
-0.4837 -0.0806 0.0000
-0.5306 -0.0884 0.0000
-0.5776 -0.0963 0.0000
-0.6245 -0.1041 0.0000
-0.6714 -0.1119 0.0000
-0.7184 -0.1197 0.0000
-0.7653 -0.1276 0.0000
-0.8122 -0.1354 0.0000
-0.8592 -0.1432 0.0000
-0.9061 -0.1510 0.0000
-0.9531 -0.1588 0.0000
-1.0000 -0.1667 0.0000
-0.2846 -0.0949 0.0000
-0.3323 -0.1108 0.0000
-0.3800 -0.1267 0.0000
-0.4277 -0.1426 0.0000
-0.4754 -0.1585 0.0000
-0.5231 -0.1744 0.0000
-0.5708 -0.1903 0.0000
-0.6185 -0.2062 0.0000
-0.6661 -0.2220 0.0000
-0.7138 -0.2379 0.0000
-0.7615 -0.2538 0.0000
-0.8092 -0.2697 0.0000
-0.8569 -0.2856 0.0000
-0.9046 -0.3015 0.0000
-0.9523 -0.3174 0.0000
-1.0000 -0.3333 0.0000
-0.2683 -0.1342 0.0000
-0.3171 -0.1586 0.0000
-0.3659 -0.1829 0.0000
-0.4147 -0.2073 0.0000
-0.4634 -0.2317 0.0000
-0.5122 -0.2561 0.0000
-0.5610 -0.2805 0.0000
-0.6098 -0.3049 0.0000
-0.6586 -0.3293 0.0000
-0.7073 -0.3537 0.0000
-0.7561 -0.3781 0.0000
-0.8049 -0.4024 0.0000
-0.8537 -0.4268 0.0000
-0.9024 -0.4512 0.0000
-0.9512 -0.4756 0.0000
-1.0000 -0.5000 0.0000
-0.2496 -0.1664 0.0000
-0.2996 -0.1998 0.0000
-0.3497 -0.2331 0.0000
-0.3997 -0.2665 0.0000
-0.4497 -0.2998 0.0000
-0.4997 -0.3332 0.0000
-0.5498 -0.3665 0.0000
-0.5998 -0.3999 0.0000
-0.6498 -0.4332 0.0000
-0.6998 -0.4666 0.0000
-0.7499 -0.4999 0.0000
-0.7999 -0.5333 0.0000
-0.8499 -0.5666 0.0000
-0.8999 -0.6000 0.0000
-0.9500 -0.6333 0.0000
-1.0000 -0.6667 0.0000
-0.2305 -0.1921 0.0000
-0.2818 -0.2348 0.0000
-0.3331 -0.2776 0.0000
-0.3844 -0.3203 0.0000
-0.4357 -0.3631 0.0000
-0.4870 -0.4058 0.0000
-0.5383 -0.4486 0.0000
-0.5896 -0.4913 0.0000
-0.6409 -0.5341 0.0000
-0.6922 -0.5768 0.0000
-0.7435 -0.6196 0.0000
-0.7948 -0.6623 0.0000
-0.8461 -0.7051 0.0000
-0.8974 -0.7478 0.0000
-0.9487 -0.7906 0.0000
-1.0000 -0.8333 0.0000
-0.2121 -0.2121 0.0000
-0.2647 -0.2647 0.0000
-0.3172 -0.3172 0.0000
-0.3697 -0.3697 0.0000
-0.4222 -0.4222 0.0000
-0.4748 -0.4748 0.0000
-0.5273 -0.5273 0.0000
-0.5798 -0.5798 0.0000
-0.6323 -0.6323 0.0000
-0.6849 -0.6849 0.0000
-0.7374 -0.7374 0.0000
-0.7899 -0.7899 0.0000
-0.8424 -0.8424 0.0000
-0.8950 -0.8950 0.0000
-0.9475 -0.9475 0.0000
-1.0000 -1.0000 0.0000
-0.1921 -0.2305 0.0000
-0.2348 -0.2818 0.0000
-0.2776 -0.3331 0.0000
-0.3203 -0.3844 0.0000
-0.3631 -0.4357 0.0000
-0.4058 -0.4870 0.0000
-0.4486 -0.5383 0.0000
-0.4913 -0.5896 0.0000
-0.5341 -0.6409 0.0000
-0.5768 -0.6922 0.0000
-0.6196 -0.7435 0.0000
-0.6623 -0.7948 0.0000
-0.7051 -0.8461 0.0000
-0.7478 -0.8974 0.0000
-0.7906 -0.9487 0.0000
-0.8333 -1.0000 0.0000
-0.1664 -0.2496 0.0000
-0.1998 -0.2996 0.0000
-0.2331 -0.3497 0.0000
-0.2665 -0.3997 0.0000
-0.2998 -0.4497 0.0000
-0.3332 -0.4997 0.0000
-0.3665 -0.5498 0.0000
-0.3999 -0.5998 0.0000
-0.4332 -0.6498 0.0000
-0.4666 -0.6998 0.0000
-0.4999 -0.7499 0.0000
-0.5333 -0.7999 0.0000
-0.5666 -0.8499 0.0000
-0.6000 -0.8999 0.0000
-0.6333 -0.9500 0.0000
-0.6667 -1.0000 0.0000
-0.1342 -0.2683 0.0000
-0.1586 -0.3171 0.0000
-0.1829 -0.3659 0.0000
-0.2073 -0.4147 0.0000
-0.2317 -0.4634 0.0000
-0.2561 -0.5122 0.0000
-0.2805 -0.5610 0.0000
[...]
         <PointData>
            <DataArray Name="fValues" NumberOfComponents="3" format="ascii" type="Float64">
 2.53562e-01 -1.03353e-01        00000 
 2.30811e-01 -9.48451e-02        00000 
 2.16255e-01 -8.59275e-02        00000 
 2.03911e-01 -7.77608e-02        00000 
 1.91891e-01 -7.03864e-02        00000 
 1.79491e-01 -6.37025e-02        00000 
 1.66417e-01 -5.76373e-02        00000 
 1.52537e-01 -5.21572e-02        00000 
 1.37782e-01 -4.72552e-02        00000 
 1.22104e-01 -4.29391e-02        00000 
 1.05460e-01 -3.92263e-02        00000 
 8.77899e-02 -3.61473e-02        00000 
 6.90122e-02 -3.37587e-02        00000 
 4.90040e-02 -3.21715e-02        00000 
 2.75740e-02 -3.15990e-02        00000 
 4.40736e-03 -3.24405e-02        00000 
 2.33882e-01 -9.74624e-02        00000 
 2.14469e-01 -9.40519e-02        00000 
 2.00726e-01 -8.77368e-02        00000 
 1.88596e-01 -8.09441e-02        00000 
 1.76679e-01 -7.43203e-02        00000 
 1.64415e-01 -6.80251e-02        00000 
 1.51561e-01 -6.20950e-02        00000 
 1.38012e-01 -5.65417e-02        00000 
 1.23722e-01 -5.13760e-02        00000 
 1.08675e-01 -4.66121e-02        00000 
 9.28761e-02 -4.22652e-02        00000 
 7.63354e-02 -3.83489e-02        00000 
 5.90740e-02 -3.48715e-02        00000 
 4.11282e-02 -3.18336e-02        00000 
 2.25818e-02 -2.92263e-02        00000 
 3.67280e-03 -2.70338e-02        00000 
 2.11324e-01 -9.00915e-02        00000 
 1.96454e-01 -9.11793e-02        00000 
 1.84324e-01 -8.75914e-02        00000 
 1.72920e-01 -8.24384e-02        00000 
 1.61468e-01 -7.67880e-02        00000 
 1.49636e-01 -7.10352e-02        00000 
 1.37277e-01 -6.53335e-02        00000 
 1.24330e-01 -5.97485e-02        00000 
 1.10782e-01 -5.43134e-02        00000 
 9.66436e-02 -4.90491e-02        00000 
 8.19513e-02 -4.39713e-02        00000 
 6.67608e-02 -3.90921e-02        00000 
 5.11499e-02 -3.44185e-02        00000 
 3.52221e-02 -2.99517e-02        00000 
 1.91065e-02 -2.56877e-02        00000 
 2.93824e-03 -2.16270e-02        00000 
 1.86403e-01 -8.10884e-02        00000 
 1.76943e-01 -8.55921e-02        00000 
 1.67240e-01 -8.45206e-02        00000 
 1.57165e-01 -8.11069e-02        00000 
 1.46617e-01 -7.66228e-02        00000 
 1.35555e-01 -7.16163e-02        00000 
 1.23968e-01 -6.63371e-02        00000 
 1.11865e-01 -6.09051e-02        00000 
 9.92672e-02 -5.53812e-02        00000 
 8.62100e-02 -4.98001e-02        00000 
 7.27416e-02 -4.41845e-02        00000 
 5.89264e-02 -3.85529e-02        00000 
 4.48480e-02 -3.29228e-02        00000 
 3.06115e-02 -2.73124e-02        00000 
 1.63451e-02 -2.17401e-02        00000 
 2.20368e-03 -1.62203e-02        00000 
 1.60206e-01 -7.06878e-02        00000 
 1.56376e-01 -7.69684e-02        00000 
 1.49697e-01 -7.77975e-02        00000 
 1.41487e-01 -7.59520e-02        00000 
 1.32274e-01 -7.26775e-02        00000 
 1.22321e-01 -6.85664e-02        00000 
 1.11773e-01 -6.39167e-02        00000 
 1.00721e-01 -5.88844e-02        00000 
 8.92330e-02 -5.35549e-02        00000 
 7.73630e-02 -4.79771e-02        00000 
 6.51630e-02 -4.21822e-02        00000 
 5.26873e-02 -3.61939e-02        00000 
 3.99971e-02 -3.00344e-02        00000 
 2.71653e-02 -2.37291e-02        00000 
 1.42835e-02 -1.73092e-02        00000 
 1.46912e-03 -1.08135e-02        00000 
 1.34382e-01 -5.95925e-02        00000 
 1.35527e-01 -6.58261e-02        00000 
 1.31962e-01 -6.75872e-02        00000 
 1.25869e-01 -6.68414e-02        00000 
 1.18257e-01 -6.45941e-02        00000 
 1.09645e-01 -6.13710e-02        00000 
 1.00323e-01 -5.74587e-02        00000 
 9.04648e-02 -5.30200e-02        00000 
 8.01834e-02 -4.81508e-02        00000 
 6.95542e-02 -4.29097e-02        00000 
 5.86309e-02 -3.73351e-02        00000 
 4.74535e-02 -3.14549e-02        00000 
 3.60526e-02 -2.52933e-02        00000 
 2.44526e-02 -1.88753e-02        00000 
 1.26735e-02 -1.22324e-02        00000 
 7.34559e-04 -5.40675e-03        00000 
 1.10773e-01 -4.88754e-02        00000 
 1.15511e-01 -5.36340e-02        00000 
 1.14517e-01 -5.53398e-02        00000 
 1.10348e-01 -5.50806e-02        00000 
 1.04283e-01 -5.35051e-02        00000 
 9.70141e-02 -5.09920e-02        00000 
 8.89350e-02 -4.77680e-02        00000 
 8.02840e-02 -4.39740e-02        00000 
 7.12093e-02 -3.97009e-02        00000 
 6.18047e-02 -3.50100e-02        00000 
 5.21280e-02 -2.99447e-02        00000 
 4.22108e-02 -2.45378e-02        00000 
 3.20628e-02 -1.88159e-02        00000 
 2.16729e-02 -1.28029e-02        00000 
 1.10066e-02 -6.52240e-03        00000 
-2.24346e-16  1.35794e-15        00000 
 9.07988e-02 -3.96233e-02        00000 
 9.74982e-02 -4.22454e-02        00000 
 9.81255e-02 -4.32751e-02        00000 
 9.53079e-02 -4.30213e-02        00000 
 9.04312e-02 -4.17657e-02        00000 
 8.42636e-02 -3.97153e-02        00000 
 7.72532e-02 -3.70165e-02        00000 
 6.96724e-02 -3.37739e-02        00000 
 6.16910e-02 -3.00641e-02        00000 
 5.34150e-02 -2.59451e-02        00000 
 4.49078e-02 -2.14623e-02        00000 
 3.62023e-02 -1.66517e-02        00000 
 2.73074e-02 -1.15419e-02        00000 
 1.82112e-02 -6.15474e-03        00000 
 8.88145e-03 -5.04100e-04        00000 
-7.34559e-04  5.40675e-03        00000 
 7.50871e-02 -3.24438e-02        00000 
 8.23386e-02 -3.29970e-02        00000 
 8.36121e-02 -3.32247e-02        00000 
 8.14704e-02 -3.27828e-02        00000 
 7.72959e-02 -3.16369e-02        00000 
 7.18673e-02 -2.98440e-02        00000 
 6.56439e-02 -2.74785e-02        00000 
 5.89075e-02 -2.46110e-02        00000 
 5.18349e-02 -2.13037e-02        00000 
 4.45380e-02 -1.76098e-02        00000 
 3.70868e-02 -1.35733e-02        00000 
 2.95235e-02 -9.23016e-03        00000 
 2.18722e-02 -4.60747e-03        00000 
 1.41471e-02  2.76782e-04        00000 
 6.36007e-03  5.41536e-03        00000 
-1.46912e-03  1.08135e-02        00000 
 6.34737e-02 -2.73422e-02        00000 
 7.03056e-02 -2.63376e-02        00000 
 7.14973e-02 -2.59825e-02        00000 
 6.94829e-02 -2.53842e-02        00000 
 6.55847e-02 -2.42688e-02        00000 
 6.05544e-02 -2.25873e-02        00000 
 5.48389e-02 -2.03668e-02        00000 
 4.87138e-02 -1.76590e-02        00000 
 4.23547e-02 -1.45199e-02        00000 
 3.58762e-02 -1.10012e-02        00000 
 2.93552e-02 -7.14697e-03        00000 
 2.28461e-02 -2.99247e-03        00000 
 1.63917e-02  1.43621e-03        00000 
 1.00322e-02  6.12136e-03        00000 
 3.81400e-03  1.10518e-02        00000 
-2.20368e-03  1.62203e-02        00000 
 5.52908e-02 -2.39610e-02        00000 
 6.11584e-02 -2.20567e-02        00000 
 6.18439e-02 -2.14478e-02        00000 
 5.96086e-02 -2.07968e-02        00000 
 5.56946e-02 -1.96712e-02        00000 
 5.08109e-02 -1.79613e-02        00000 
 4.53808e-02 -1.56811e-02        00000 
 3.96687e-02 -1.28853e-02        00000 
 3.38470e-02 -9.63828e-03        00000 
 2.80329e-02 -6.00075e-03        00000 
 2.23115e-02 -2.02549e-03        00000 
 1.67488e-02  2.24431e-03        00000 
 1.13998e-02  6.77410e-03        00000 
 6.31144e-03  1.15352e-02        00000 
 1.52174e-03  1.64990e-02        00000 
-2.93824e-03  2.16270e-02        00000 
 4.97306e-02 -2.18501e-02        00000 
 5.44035e-02 -1.96472e-02        00000 
 5.43801e-02 -1.90641e-02        00000 
 5.17420e-02 -1.84371e-02        00000 
 4.76358e-02 -1.72173e-02        00000 
 4.27224e-02 -1.52980e-02        00000 
 3.74038e-02 -1.27162e-02        00000 
 3.19342e-02 -9.55375e-03        00000 
 2.64830e-02 -5.90162e-03        00000 
 2.11713e-02 -1.84678e-03        00000 
 1.60937e-02  2.53214e-03        00000 
 1.13288e-02  7.16520e-03        00000 
 6.94378e-03  1.19896e-02        00000 
 2.98874e-03  1.69471e-02        00000 
-5.23577e-04  2.19811e-02        00000 
-3.67280e-03  2.70338e-02        00000 
 4.61094e-02 -2.06509e-02        00000 
 4.94820e-02 -1.85368e-02        00000 
 4.87038e-02 -1.82252e-02        00000 
 4.55814e-02 -1.75970e-02        00000 
 4.11634e-02 -1.61293e-02        00000 
 3.60821e-02 -1.37697e-02        00000 
 3.07223e-02 -1.06091e-02        00000 
 2.53285e-02 -6.77886e-03        00000 
 2.00662e-02 -2.41634e-03        00000 
 1.50588e-02  2.34724e-03        00000 
 1.04083e-02  7.38962e-03        00000 
 6.20644e-03  1.25956e-02        00000 
 2.53947e-03  1.78508e-02        00000 
-5.10072e-04  2.30291e-02        00000 
-2.85889e-03  2.79700e-02        00000 
-4.40735e-03  3.24405e-02        00000 
 4.32312e-02 -1.99668e-02        00000 
 4.51713e-02 -1.84842e-02        00000 
 4.46659e-02 -1.84998e-02        00000 
 4.24508e-02 -1.83276e-02        00000 
 3.91571e-02 -1.74547e-02        00000 
 3.52240e-02 -1.57829e-02        00000 
 3.09475e-02 -1.33520e-02        00000 
 2.65235e-02 -1.02514e-02        00000 
 2.20840e-02 -6.58654e-03        00000 
 1.77214e-02 -2.46589e-03        00000 
 1.35047e-02  2.00548e-03        00000 
 9.49051e-03  6.73073e-03        00000 
 5.72821e-03  1.16273e-02        00000 
 2.26096e-03  1.66370e-02        00000 
-8.78008e-04  2.17458e-02        00000 
-3.67280e-03  2.70338e-02        00000 
 4.10810e-02 -1.96204e-02        00000 
 4.17219e-02 -1.93059e-02        00000 
 4.11356e-02 -1.98856e-02        00000 
 3.94617e-02 -2.01948e-02        00000 
 3.69559e-02 -1.98382e-02        00000 
 3.38776e-02 -1.87190e-02        00000 
 3.04313e-02 -1.68534e-02        00000 
 2.67648e-02 -1.43000e-02        00000 
 2.29809e-02 -1.11345e-02        00000 
 1.91483e-02 -7.43954e-03        00000 
 1.53130e-02 -3.29961e-03        00000 
 1.15061e-02  1.20271e-03        00000 
 7.75169e-03  5.99221e-03        00000 
 4.07239e-03  1.10093e-02        00000 
 4.95852e-04  1.62208e-02        00000 
-2.93824e-03  2.16270e-02        00000 
 4.04136e-02 -1.98634e-02        00000 
 3.99851e-02 -2.12560e-02        00000 
 3.91939e-02 -2.27429e-02        00000 
 3.77674e-02 -2.36704e-02        00000 
 3.57214e-02 -2.38300e-02        00000 
 3.31719e-02 -2.31864e-02        00000 
 3.02473e-02 -2.17651e-02        00000 
 2.70561e-02 -1.96142e-02        00000 
 2.36803e-02 -1.67898e-02        00000 
 2.01773e-02 -1.33526e-02        00000 
 1.65841e-02 -9.36678e-03        00000 
 1.29222e-02 -4.90103e-03        00000 
 9.20308e-03 -2.92253e-05        00000 
 5.43412e-03  5.16961e-03        00000 
 1.62532e-03  1.06128e-02        00000 
-2.20368e-03  1.62203e-02        00000 
 4.22030e-02 -2.08996e-02        00000 
 4.12187e-02 -2.45477e-02        00000 
 4.03220e-02 -2.73063e-02        00000 
 3.90170e-02 -2.90407e-02        00000 
 3.71813e-02 -2.97759e-02        00000 
 3.48520e-02 -2.95823e-02        00000 
 3.21129e-02 -2.85297e-02        00000 
 2.90506e-02 -2.66780e-02        00000 
 2.57397e-02 -2.40781e-02        00000 
 2.22375e-02 -2.07755e-02        00000 
 1.85846e-02 -1.68139e-02        00000 
 1.48061e-02 -1.22405e-02        00000 
 1.09138e-02 -7.11044e-03        00000 
 6.90877e-03 -1.49312e-03        00000 
 2.78429e-03  4.52132e-03        00000 
-1.46912e-03  1.08135e-02        00000 
 4.75697e-02 -2.28393e-02        00000 
 4.68812e-02 -2.91753e-02        00000 
 4.62453e-02 -3.34745e-02        00000 
 4.51203e-02 -3.61436e-02        00000 
 4.33607e-02 -3.74864e-02        00000 
 4.09944e-02 -3.77132e-02        00000 
 3.81039e-02 -3.69630e-02        00000 
 3.47796e-02 -3.53263e-02        00000 
 3.11035e-02 -3.28608e-02        00000 
 2.71433e-02 -2.96036e-02        00000 
 2.29513e-02 -2.55784e-02        00000 
 1.85644e-02 -2.08019e-02        00000 
 1.40046e-02 -1.52893e-02        00000 
 9.27806e-03 -9.06003e-03        00000 
 4.37462e-03 -2.14444e-03        00000 
-7.34559e-04  5.40675e-03        00000 
 5.74553e-02 -2.55866e-02        00000 
 5.81906e-02 -3.47509e-02        00000 
 5.83702e-02 -4.05866e-02        00000 
 5.75981e-02 -4.41174e-02        00000 
 5.58435e-02 -4.59648e-02        00000 
 5.32084e-02 -4.64995e-02        00000 
 4.98233e-02 -4.59414e-02        00000 
 4.58113e-02 -4.44191e-02        00000 
 4.12779e-02 -4.20035e-02        00000 
 3.63093e-02 -3.87270e-02        00000 
 3.09734e-02 -3.45954e-02        00000 
 2.53213e-02 -2.95935e-02        00000 
 1.93880e-02 -2.36893e-02        00000 
 1.31924e-02 -1.68351e-02        00000 
 6.73610e-03 -8.96656e-03        00000 
 3.23746e-15  1.91402e-16        00000 
 7.21193e-02 -2.87966e-02        00000 
 7.54726e-02 -4.04562e-02        00000 
 7.69767e-02 -4.74299e-02        00000 
 7.66635e-02 -5.14792e-02        00000 
 7.47831e-02 -5.35565e-02        00000 
 7.16020e-02 -5.41852e-02        00000 
 6.73475e-02 -5.36570e-02        00000 
 6.22013e-02 -5.21328e-02        00000 
 5.63056e-02 -4.96939e-02        00000 
 4.97710e-02 -4.63699e-02        00000 
 4.26828e-02 -4.21528e-02        00000 
 3.51064e-02 -3.70057e-02        00000 
 2.70915e-02 -3.08645e-02        00000 
 1.86745e-02 -2.36385e-02        00000 
 9.88223e-03 -1.52060e-02        00000 
 7.34559e-04 -5.40675e-03        00000 
 9.08152e-02 -3.20835e-02        00000 
 9.77037e-02 -4.53529e-02        00000 
 1.00722e-01 -5.27355e-02        00000 
 1.00741e-01 -5.67861e-02        00000 
 9.84637e-02 -5.87362e-02        00000 
 9.43949e-02 -5.92154e-02        00000 
 8.88904e-02 -5.85570e-02        00000 
 8.22048e-02 -5.69368e-02        00000 
 7.45228e-02 -5.44396e-02        00000 
 6.59817e-02 -5.10935e-02        00000 
 5.66864e-02 -4.68876e-02        00000 
 4.67200e-02 -4.17822e-02        00000 
 3.61521e-02 -3.57138e-02        00000 
 2.50451e-02 -2.85989e-02        00000 
 1.34612e-02 -2.03366e-02        00000 
 1.46912e-03 -1.08135e-02        00000 
 1.11953e-01 -3.52105e-02        00000 
 1.22702e-01 -4.88192e-02        00000 
 1.27004e-01 -5.58107e-02        00000 
 1.27010e-01 -5.93821e-02        00000 
 1.23991e-01 -6.09147e-02        00000 
 1.18719e-01 -6.10706e-02        00000 
 1.11684e-01 -6.01838e-02        00000 
 1.03209e-01 -5.84248e-02        00000 
 9.35143e-02 -5.58778e-02        00000 
 8.27617e-02 -5.25772e-02        00000 
 7.10770e-02 -4.85266e-02        00000 
 5.85662e-02 -4.37096e-02        00000 
 4.53262e-02 -3.80985e-02        00000 
 3.14522e-02 -3.16612e-02        00000 
 1.70426e-02 -2.43720e-02        00000 
 2.20368e-03 -1.62203e-02        00000 
 1.33752e-01 -3.80593e-02        00000 
 1.48059e-01 -5.07380e-02        00000 
 1.53158e-01 -5.67357e-02        00000 
 1.52755e-01 -5.95323e-02        00000 
 1.48717e-01 -6.05074e-02        00000 
 1.42084e-01 -6.02711e-02        00000 
 1.33446e-01 -5.91159e-02        00000 
 1.23168e-01 -5.71985e-02        00000 
 1.11490e-01 -5.46091e-02        00000 
 9.85908e-02 -5.14058e-02        00000 
 8.46123e-02 -4.76324e-02        00000 
 6.96830e-02 -4.33273e-02        00000 
 5.39272e-02 -3.85298e-02        00000 
 3.74706e-02 -3.32811e-02        00000 
 2.04375e-02 -2.76260e-02        00000 
 2.93824e-03 -2.16270e-02        00000 
 1.54747e-01 -4.05847e-02        00000 
 1.71985e-01 -5.14033e-02        00000 
 1.77376e-01 -5.60596e-02        00000 
 1.76229e-01 -5.80025e-02        00000 
 1.71094e-01 -5.84121e-02        00000 
 1.63169e-01 -5.77613e-02        00000 
 1.53088e-01 -5.62937e-02        00000 
 1.41225e-01 -5.41575e-02        00000 
 1.27824e-01 -5.14656e-02        00000 
 1.13063e-01 -4.83235e-02        00000 
 9.70917e-02 -4.48446e-02        00000 
 8.00440e-02 -4.11583e-02        00000 
 6.20503e-02 -3.74101e-02        00000 
 4.32398e-02 -3.37517e-02        00000 
 2.37402e-02 -3.03023e-02        00000 
 3.67280e-03 -2.70338e-02        00000 
 1.73906e-01 -4.29069e-02        00000 
 1.93720e-01 -5.11449e-02        00000 
 1.98730e-01 -5.44253e-02        00000 
 1.96761e-01 -5.56069e-02        00000 
 1.90673e-01 -5.54682e-02        00000 
 1.81722e-01 -5.43581e-02        00000 
 1.70537e-01 -5.24768e-02        00000 
 1.57478e-01 -4.99791e-02        00000 
 1.42779e-01 -4.70168e-02        00000 
 1.26616e-01 -4.37603e-02        00000 
 1.09129e-01 -4.04117e-02        00000 
 9.04397e-02 -3.72128e-02        00000 
 7.06402e-02 -3.44491e-02        00000 
 4.97715e-02 -3.24552e-02        00000 
 2.77759e-02 -3.16246e-02        00000 
 4.40736e-03 -3.24405e-02        00000 
 1.93757e-01 -4.49843e-02        00000 
 2.13228e-01 -4.92552e-02        00000 
 2.19590e-01 -5.13851e-02        00000 
 2.19857e-01 -5.22954e-02        00000 
 2.16614e-01 -5.23355e-02        00000 
 2.10992e-01 -5.16536e-02        00000 
 2.03561e-01 -5.03534e-02        00000 
 1.94637e-01 -4.85219e-02        00000 
 1.84417e-01 -4.62443e-02        00000 
 1.73038e-01 -4.36119e-02        00000 
 1.60608e-01 -4.07281e-02        00000 
 1.47226e-01 -3.77108e-02        00000 
 1.32996e-01 -3.46924e-02        00000 
 1.18049e-01 -3.18150e-02        00000 
 1.02588e-01 -2.92199e-02        00000 
 8.70061e-02 -2.70338e-02        00000 
 2.18916e-01 -4.74723e-02        00000 
 2.36633e-01 -4.76171e-02        00000 
 2.43745e-01 -4.80845e-02        00000 
 2.45903e-01 -4.83859e-02        00000 
 2.45273e-01 -4.82903e-02        00000 
 2.42814e-01 -4.77293e-02        00000 
 2.39004e-01 -4.66934e-02        00000 
 2.34106e-01 -4.52007e-02        00000 
 2.28284e-01 -4.32807e-02        00000 
 2.21647e-01 -4.09690e-02        00000 
 2.14281e-01 -3.83055e-02        00000 
 2.06260e-01 -3.53353e-02        00000 
 1.97665e-01 -3.21107e-02        00000 
 1.88594e-01 -2.86938e-02        00000 
 1.79183e-01 -2.51635e-02        00000 
 1.69605e-01 -2.16270e-02        00000 
 2.49880e-01 -5.07331e-02        00000 
 2.64283e-01 -4.66985e-02        00000 
 2.71278e-01 -4.52744e-02        00000 
 2.74832e-01 -4.46600e-02        00000 
 2.76502e-01 -4.41357e-02        00000 
 2.76977e-01 -4.34004e-02        00000 
 2.76600e-01 -4.23323e-02        00000 
 2.75559e-01 -4.08858e-02        00000 
 2.73969e-01 -3.90494e-02        00000 
 2.71909e-01 -3.68265e-02        00000 
 2.69434e-01 -3.42267e-02        00000 
 2.66591e-01 -3.12630e-02        00000 
 2.63416e-01 -2.79519e-02        00000 
 2.59941e-01 -2.43159e-02        00000 
 2.56193e-01 -2.03888e-02        00000 
 2.52204e-01 -1.62203e-02        00000 
 2.86439e-01 -5.50599e-02        00000 
 2.95870e-01 -4.75049e-02        00000 
 3.01781e-01 -4.42529e-02        00000 
 3.06157e-01 -4.25907e-02        00000 
 3.09765e-01 -4.14090e-02        00000 
 3.12922e-01 -4.02280e-02        00000 
 3.15777e-01 -3.88329e-02        00000 
 3.18407e-01 -3.71293e-02        00000 
 3.20859e-01 -3.50784e-02        00000 
 3.23169e-01 -3.26676e-02        00000 
 3.25361e-01 -2.98967e-02        00000 
 3.27455e-01 -2.67700e-02        00000 
 3.29460e-01 -2.32931e-02        00000 
 3.31374e-01 -1.94709e-02        00000 
 3.33173e-01 -1.53086e-02        00000 
 3.34802e-01 -1.08135e-02        00000 
 3.26947e-01 -6.07090e-02        00000 
 3.30192e-01 -5.12404e-02        00000 
 3.34253e-01 -4.67133e-02        00000 
 3.39005e-01 -4.41045e-02        00000 
 3.44279e-01 -4.21479e-02        00000 
 3.49938e-01 -4.02857e-02        00000 
 3.55885e-01 -3.82630e-02        00000 
 3.62056e-01 -3.59632e-02        00000 
 3.68415e-01 -3.33358e-02        00000 
 3.74939e-01 -3.03634e-02        00000 
 3.81620e-01 -2.70445e-02        00000 
 3.88459e-01 -2.33848e-02        00000 
 3.95458e-01 -1.93913e-02        00000 
 4.02620e-01 -1.50679e-02        00000 
 4.09941e-01 -1.04116e-02        00000 
 4.17401e-01 -5.40675e-03        00000 
 3.68154e-01 -6.77962e-02        00000 
 3.65115e-01 -5.86770e-02        00000 
 3.67244e-01 -5.38134e-02        00000 
 3.72344e-01 -5.05479e-02        00000 
 3.79290e-01 -4.77796e-02        00000 
 3.87466e-01 -4.50265e-02        00000 
 3.96518e-01 -4.20694e-02        00000 
 4.06234e-01 -3.88076e-02        00000 
 4.16484e-01 -3.51975e-02        00000 
 4.27188e-01 -3.12243e-02        00000 
 4.38301e-01 -2.68876e-02        00000 
 4.49802e-01 -2.21942e-02        00000 
 4.61691e-01 -1.71535e-02        00000 
 4.73989e-01 -1.17737e-02        00000 
 4.86735e-01 -6.05794e-03        00000 
 5.00000e-01 -1.37396e-15        00000 
 4.06007e-01 -7.60758e-02        00000 