<?xml version="1.0" encoding="utf-8"?>
<VTKFile byte_order="LittleEndian" type="UnstructuredGrid" version="0.1">
   <UnstructuredGrid>
      <Piece NumberOfCells="720" NumberOfPoints="768">
         <Points>
            <DataArray Name="Points" NumberOfComponents="3" format="ascii" type="Float32">
0.2121 0.2121 0.0000
0.2647 0.2647 0.0000
0.3172 0.3172 0.0000
0.3697 0.3697 0.0000
0.4222 0.4222 0.0000
0.4748 0.4748 0.0000
0.5273 0.5273 0.0000
0.5798 0.5798 0.0000
0.6323 0.6323 0.0000
0.6849 0.6849 0.0000
0.7374 0.7374 0.0000
0.7899 0.7899 0.0000
0.8424 0.8424 0.0000
0.8950 0.8950 0.0000
0.9475 0.9475 0.0000
1.0000 1.0000 0.0000
0.1921 0.2305 0.0000
0.2348 0.2818 0.0000
0.2776 0.3331 0.0000
0.3203 0.3844 0.0000
0.3631 0.4357 0.0000
0.4058 0.4870 0.0000
0.4486 0.5383 0.0000
0.4913 0.5896 0.0000
0.5341 0.6409 0.0000
0.5768 0.6922 0.0000
0.6196 0.7435 0.0000
0.6623 0.7948 0.0000
0.7051 0.8461 0.0000
0.7478 0.8974 0.0000
0.7906 0.9487 0.0000
0.8333 1.0000 0.0000
0.1664 0.2496 0.0000
0.1998 0.2996 0.0000
0.2331 0.3497 0.0000
0.2665 0.3997 0.0000
0.2998 0.4497 0.0000
0.3332 0.4997 0.0000
0.3665 0.5498 0.0000
0.3999 0.5998 0.0000
0.4332 0.6498 0.0000
0.4666 0.6998 0.0000
0.4999 0.7499 0.0000
0.5333 0.7999 0.0000
0.5666 0.8499 0.0000
0.6000 0.8999 0.0000
0.6333 0.9500 0.0000
0.6667 1.0000 0.0000
0.1342 0.2683 0.0000
0.1586 0.3171 0.0000
0.1829 0.3659 0.0000
0.2073 0.4147 0.0000
0.2317 0.4634 0.0000
0.2561 0.5122 0.0000
0.2805 0.5610 0.0000
0.3049 0.6098 0.0000
0.3293 0.6586 0.0000
0.3537 0.7073 0.0000
0.3781 0.7561 0.0000
0.4024 0.8049 0.0000
0.4268 0.8537 0.0000
0.4512 0.9024 0.0000
0.4756 0.9512 0.0000
0.5000 1.0000 0.0000
0.0949 0.2846 0.0000
0.1108 0.3323 0.0000
0.1267 0.3800 0.0000
0.1426 0.4277 0.0000
0.1585 0.4754 0.0000
0.1744 0.5231 0.0000
0.1903 0.5708 0.0000
0.2062 0.6185 0.0000
0.2220 0.6661 0.0000
0.2379 0.7138 0.0000
0.2538 0.7615 0.0000
0.2697 0.8092 0.0000
0.2856 0.8569 0.0000
0.3015 0.9046 0.0000
0.3174 0.9523 0.0000
0.3333 1.0000 0.0000
0.0493 0.2959 0.0000
0.0571 0.3429 0.0000
0.0650 0.3898 0.0000
0.0728 0.4367 0.0000
0.0806 0.4837 0.0000
0.0884 0.5306 0.0000
0.0963 0.5776 0.0000
0.1041 0.6245 0.0000
0.1119 0.6714 0.0000
0.1197 0.7184 0.0000
0.1276 0.7653 0.0000
0.1354 0.8122 0.0000
0.1432 0.8592 0.0000
0.1510 0.9061 0.0000
0.1588 0.9531 0.0000
0.1667 1.0000 0.0000
0.0000 0.3000 0.0000
0.0000 0.3467 0.0000
0.0000 0.3933 0.0000
0.0000 0.4400 0.0000
0.0000 0.4867 0.0000
0.0000 0.5333 0.0000
0.0000 0.5800 0.0000
0.0000 0.6267 0.0000
0.0000 0.6733 0.0000
0.0000 0.7200 0.0000
0.0000 0.7667 0.0000
0.0000 0.8133 0.0000
0.0000 0.8600 0.0000
0.0000 0.9067 0.0000
0.0000 0.9533 0.0000
0.0000 1.0000 0.0000
-0.0493 0.2959 0.0000
-0.0571 0.3429 0.0000
-0.0650 0.3898 0.0000
-0.0728 0.4367 0.0000
-0.0806 0.4837 0.0000
-0.0884 0.5306 0.0000
-0.0963 0.5776 0.0000
-0.1041 0.6245 0.0000
-0.1119 0.6714 0.0000
-0.1197 0.7184 0.0000
-0.1276 0.7653 0.0000
-0.1354 0.8122 0.0000
-0.1432 0.8592 0.0000
-0.1510 0.9061 0.0000
-0.1588 0.9531 0.0000
-0.1667 1.0000 0.0000
-0.0949 0.2846 0.0000
-0.1108 0.3323 0.0000
-0.1267 0.3800 0.0000
-0.1426 0.4277 0.0000
-0.1585 0.4754 0.0000
-0.1744 0.5231 0.0000
-0.1903 0.5708 0.0000
-0.2062 0.6185 0.0000
-0.2220 0.6661 0.0000
-0.2379 0.7138 0.0000
-0.2538 0.7615 0.0000
-0.2697 0.8092 0.0000
-0.2856 0.8569 0.0000
-0.3015 0.9046 0.0000
-0.3174 0.9523 0.0000
-0.3333 1.0000 0.0000
-0.1342 0.2683 0.0000
-0.1586 0.3171 0.0000
-0.1829 0.3659 0.0000
-0.2073 0.4147 0.0000
-0.2317 0.4634 0.0000
-0.2561 0.5122 0.0000
-0.2805 0.5610 0.0000
-0.3049 0.6098 0.0000
-0.3293 0.6586 0.0000
-0.3537 0.7073 0.0000
-0.3781 0.7561 0.0000
-0.4024 0.8049 0.0000
-0.4268 0.8537 0.0000
-0.4512 0.9024 0.0000
-0.4756 0.9512 0.0000
-0.5000 1.0000 0.0000
-0.1664 0.2496 0.0000
-0.1998 0.2996 0.0000
-0.2331 0.3497 0.0000
-0.2665 0.3997 0.0000
-0.2998 0.4497 0.0000
-0.3332 0.4997 0.0000
-0.3665 0.5498 0.0000
-0.3999 0.5998 0.0000
-0.4332 0.6498 0.0000
-0.4666 0.6998 0.0000
-0.4999 0.7499 0.0000
-0.5333 0.7999 0.0000
-0.5666 0.8499 0.0000
-0.6000 0.8999 0.0000
-0.6333 0.9500 0.0000
-0.6667 1.0000 0.0000
-0.1921 0.2305 0.0000
-0.2348 0.2818 0.0000
-0.2776 0.3331 0.0000
-0.3203 0.3844 0.0000
-0.3631 0.4357 0.0000
-0.4058 0.4870 0.0000
-0.4486 0.5383 0.0000
-0.4913 0.5896 0.0000
-0.5341 0.6409 0.0000
-0.5768 0.6922 0.0000
-0.6196 0.7435 0.0000
-0.6623 0.7948 0.0000
-0.7051 0.8461 0.0000
-0.7478 0.8974 0.0000
-0.7906 0.9487 0.0000
-0.8333 1.0000 0.0000
-0.2121 0.2121 0.0000
-0.2647 0.2647 0.0000
-0.3172 0.3172 0.0000
-0.3697 0.3697 0.0000
-0.4222 0.4222 0.0000
-0.4748 0.4748 0.0000
-0.5273 0.5273 0.0000
-0.5798 0.5798 0.0000
-0.6323 0.6323 0.0000
-0.6849 0.6849 0.0000
-0.7374 0.7374 0.0000
-0.7899 0.7899 0.0000
-0.8424 0.8424 0.0000
-0.8950 0.8950 0.0000
-0.9475 0.9475 0.0000
-1.0000 1.0000 0.0000
-0.2305 0.1921 0.0000
-0.2818 0.2348 0.0000
-0.3331 0.2776 0.0000
-0.3844 0.3203 0.0000
-0.4357 0.3631 0.0000
-0.4870 0.4058 0.0000
-0.5383 0.4486 0.0000
-0.5896 0.4913 0.0000
-0.6409 0.5341 0.0000
-0.6922 0.5768 0.0000
-0.7435 0.6196 0.0000
-0.7948 0.6623 0.0000
-0.8461 0.7051 0.0000
-0.8974 0.7478 0.0000
-0.9487 0.7906 0.0000
-1.0000 0.8333 0.0000
-0.2496 0.1664 0.0000
-0.2996 0.1998 0.0000
-0.3497 0.2331 0.0000
-0.3997 0.2665 0.0000
-0.4497 0.2998 0.0000
-0.4997 0.3332 0.0000
-0.5498 0.3665 0.0000
-0.5998 0.3999 0.0000
-0.6498 0.4332 0.0000
-0.6998 0.4666 0.0000
-0.7499 0.4999 0.0000
-0.7999 0.5333 0.0000
-0.8499 0.5666 0.0000
-0.8999 0.6000 0.0000
-0.9500 0.6333 0.0000
-1.0000 0.6667 0.0000
-0.2683 0.1342 0.0000
-0.3171 0.1586 0.0000
-0.3659 0.1829 0.0000
-0.4147 0.2073 0.0000
-0.4634 0.2317 0.0000
-0.5122 0.2561 0.0000
-0.5610 0.2805 0.0000
-0.6098 0.3049 0.0000
-0.6586 0.3293 0.0000
-0.7073 0.3537 0.0000
-0.7561 0.3781 0.0000
-0.8049 0.4024 0.0000
-0.8537 0.4268 0.0000
-0.9024 0.4512 0.0000
-0.9512 0.4756 0.0000
-1.0000 0.5000 0.0000
-0.2846 0.0949 0.0000
-0.3323 0.1108 0.0000
-0.3800 0.1267 0.0000
-0.4277 0.1426 0.0000
-0.4754 0.1585 0.0000
-0.5231 0.1744 0.0000
-0.5708 0.1903 0.0000
-0.6185 0.2062 0.0000
-0.6661 0.2220 0.0000
-0.7138 0.2379 0.0000
-0.7615 0.2538 0.0000
-0.8092 0.2697 0.0000
-0.8569 0.2856 0.0000
-0.9046 0.3015 0.0000
-0.9523 0.3174 0.0000
-1.0000 0.3333 0.0000
-0.2959 0.0493 0.0000
-0.3429 0.0571 0.0000
-0.3898 0.0650 0.0000
-0.4367 0.0728 0.0000
-0.4837 0.0806 0.0000
-0.5306 0.0884 0.0000
-0.5776 0.0963 0.0000
-0.6245 0.1041 0.0000
-0.6714 0.1119 0.0000
-0.7184 0.1197 0.0000
-0.7653 0.1276 0.0000
-0.8122 0.1354 0.0000
-0.8592 0.1432 0.0000
-0.9061 0.1510 0.0000
-0.9531 0.1588 0.0000
-1.0000 0.1667 0.0000
-0.3000 0.0000 0.0000
-0.3467 0.0000 0.0000
-0.3933 0.0000 0.0000
-0.4400 0.0000 0.0000
-0.4867 0.0000 0.0000
-0.5333 0.0000 0.0000
-0.5800 0.0000 0.0000
-0.6267 0.0000 0.0000
-0.6733 0.0000 0.0000
-0.7200 0.0000 0.0000
-0.7667 0.0000 0.0000
-0.8133 0.0000 0.0000
-0.8600 0.0000 0.0000
-0.9067 0.0000 0.0000
-0.9533 0.0000 0.0000
-1.0000 0.0000 0.0000
-0.2959 -0.0493 0.0000
-0.3429 -0.0571 0.0000
-0.3898 -0.0650 0.0000
-0.4367 -0.0728 0.0000
-0.4837 -0.0806 0.0000
-0.5306 -0.0884 0.0000
-0.5776 -0.0963 0.0000
-0.6245 -0.1041 0.0000
-0.6714 -0.1119 0.0000
-0.7184 -0.1197 0.0000
-0.7653 -0.1276 0.0000
-0.8122 -0.1354 0.0000
-0.8592 -0.1432 0.0000
-0.9061 -0.1510 0.0000
-0.9531 -0.1588 0.0000
-1.0000 -0.1667 0.0000
-0.2846 -0.0949 0.0000
-0.3323 -0.1108 0.0000
-0.3800 -0.1267 0.0000
-0.4277 -0.1426 0.0000
-0.4754 -0.1585 0.0000
-0.5231 -0.1744 0.0000
-0.5708 -0.1903 0.0000
-0.6185 -0.2062 0.0000
-0.6661 -0.2220 0.0000
-0.7138 -0.2379 0.0000
-0.7615 -0.2538 0.0000
-0.8092 -0.2697 0.0000
-0.8569 -0.2856 0.0000
-0.9046 -0.3015 0.0000
-0.9523 -0.3174 0.0000
-1.0000 -0.3333 0.0000
-0.2683 -0.1342 0.0000
-0.3171 -0.1586 0.0000
-0.3659 -0.1829 0.0000
-0.4147 -0.2073 0.0000
-0.4634 -0.2317 0.0000
-0.5122 -0.2561 0.0000
-0.5610 -0.2805 0.0000
-0.6098 -0.3049 0.0000
-0.6586 -0.3293 0.0000
-0.7073 -0.3537 0.0000
-0.7561 -0.3781 0.0000
-0.8049 -0.4024 0.0000
-0.8537 -0.4268 0.0000
-0.9024 -0.4512 0.0000
-0.9512 -0.4756 0.0000
-1.0000 -0.5000 0.0000
-0.2496 -0.1664 0.0000
-0.2996 -0.1998 0.0000
-0.3497 -0.2331 0.0000
-0.3997 -0.2665 0.0000
-0.4497 -0.2998 0.0000
-0.4997 -0.3332 0.0000
-0.5498 -0.3665 0.0000
-0.5998 -0.3999 0.0000
-0.6498 -0.4332 0.0000
-0.6998 -0.4666 0.0000
-0.7499 -0.4999 0.0000
-0.7999 -0.5333 0.0000
-0.8499 -0.5666 0.0000
-0.8999 -0.6000 0.0000
-0.9500 -0.6333 0.0000
-1.0000 -0.6667 0.0000
-0.2305 -0.1921 0.0000
-0.2818 -0.2348 0.0000
-0.3331 -0.2776 0.0000
-0.3844 -0.3203 0.0000
-0.4357 -0.3631 0.0000
-0.4870 -0.4058 0.0000
-0.5383 -0.4486 0.0000
-0.5896 -0.4913 0.0000
-0.6409 -0.5341 0.0000
-0.6922 -0.5768 0.0000
-0.7435 -0.6196 0.0000
-0.7948 -0.6623 0.0000
-0.8461 -0.7051 0.0000
-0.8974 -0.7478 0.0000
-0.9487 -0.7906 0.0000
-1.0000 -0.8333 0.0000
-0.2121 -0.2121 0.0000
-0.2647 -0.2647 0.0000
-0.3172 -0.3172 0.0000
-0.3697 -0.3697 0.0000
-0.4222 -0.4222 0.0000
-0.4748 -0.4748 0.0000
-0.5273 -0.5273 0.0000
-0.5798 -0.5798 0.0000
-0.6323 -0.6323 0.0000
-0.6849 -0.6849 0.0000
-0.7374 -0.7374 0.0000
-0.7899 -0.7899 0.0000
-0.8424 -0.8424 0.0000
-0.8950 -0.8950 0.0000
-0.9475 -0.9475 0.0000
-1.0000 -1.0000 0.0000
-0.1921 -0.2305 0.0000
-0.2348 -0.2818 0.0000
-0.2776 -0.3331 0.0000
-0.3203 -0.3844 0.0000
-0.3631 -0.4357 0.0000
-0.4058 -0.4870 0.0000
-0.4486 -0.5383 0.0000
-0.4913 -0.5896 0.0000
-0.5341 -0.6409 0.0000
-0.5768 -0.6922 0.0000
-0.6196 -0.7435 0.0000
-0.6623 -0.7948 0.0000
-0.7051 -0.8461 0.0000
-0.7478 -0.8974 0.0000
-0.7906 -0.9487 0.0000
-0.8333 -1.0000 0.0000
-0.1664 -0.2496 0.0000
-0.1998 -0.2996 0.0000
-0.2331 -0.3497 0.0000
-0.2665 -0.3997 0.0000
-0.2998 -0.4497 0.0000
-0.3332 -0.4997 0.0000
-0.3665 -0.5498 0.0000
-0.3999 -0.5998 0.0000
-0.4332 -0.6498 0.0000
-0.4666 -0.6998 0.0000
-0.4999 -0.7499 0.0000
-0.5333 -0.7999 0.0000
-0.5666 -0.8499 0.0000
-0.6000 -0.8999 0.0000
-0.6333 -0.9500 0.0000
-0.6667 -1.0000 0.0000
-0.1342 -0.2683 0.0000
-0.1586 -0.3171 0.0000
-0.1829 -0.3659 0.0000
-0.2073 -0.4147 0.0000
-0.2317 -0.4634 0.0000
-0.2561 -0.5122 0.0000
-0.2805 -0.5610 0.0000
[...]
         <PointData>
            <DataArray Name="fValues" NumberOfComponents="3" format="ascii" type="Float64">
-9.37306e-02  2.44234e-01        00000 
-8.98668e-02  2.32653e-01        00000 
-8.47227e-02  2.20225e-01        00000 
-7.80603e-02  2.05448e-01        00000 
-7.08116e-02  1.90053e-01        00000 
-6.37586e-02  1.77946e-01        00000 
-5.82232e-02  1.66860e-01        00000 
-5.35826e-02  1.52047e-01        00000 
-4.78532e-02  1.35401e-01        00000 
-3.94728e-02  1.17370e-01        00000 
-3.49656e-02  1.05539e-01        00000 
-3.44692e-02  8.79728e-02        00000 
-3.36037e-02  6.70071e-02        00000 
-3.30939e-02  5.04347e-02        00000 
-3.22056e-02  2.57962e-02        00000 
-3.24401e-02  3.70177e-03        00000 
-9.64772e-02  2.65032e-01        00000 
-9.18838e-02  2.55073e-01        00000 
-8.67158e-02  2.45373e-01        00000 
-8.01032e-02  2.34691e-01        00000 
-7.37023e-02  2.23229e-01        00000 
-6.65986e-02  2.11058e-01        00000 
-6.03710e-02  2.02991e-01        00000 
-5.52213e-02  1.92356e-01        00000 
-5.17940e-02  1.80092e-01        00000 
-4.63925e-02  1.68188e-01        00000 
-4.04454e-02  1.56680e-01        00000 
-3.49333e-02  1.43230e-01        00000 
-3.51990e-02  1.29131e-01        00000 
-3.26256e-02  1.13845e-01        00000 
-2.64649e-02  1.02610e-01        00000 
-2.26729e-02  8.88873e-02        00000 
-9.85318e-02  2.90202e-01        00000 
-9.43516e-02  2.83284e-01        00000 
-8.82741e-02  2.76453e-01        00000 
-8.18631e-02  2.69148e-01        00000 
-7.53026e-02  2.60820e-01        00000 
-6.79837e-02  2.49392e-01        00000 
-6.16795e-02  2.41322e-01        00000 
-5.55917e-02  2.34165e-01        00000 
-5.22862e-02  2.26104e-01        00000 
-4.78026e-02  2.19115e-01        00000 
-4.21118e-02  2.13632e-01        00000 
-3.71748e-02  2.06435e-01        00000 
-3.12619e-02  1.93738e-01        00000 
-2.75396e-02  1.87708e-01        00000 
-2.37174e-02  1.80335e-01        00000 
-1.79227e-02  1.71930e-01        00000 
-1.00872e-01  3.20807e-01        00000 
-9.71923e-02  3.16335e-01        00000 
-9.06781e-02  3.13221e-01        00000 
-8.28033e-02  3.07598e-01        00000 
-7.53955e-02  3.02098e-01        00000 
-6.89001e-02  2.95193e-01        00000 
-6.28670e-02  2.88817e-01        00000 
-5.51954e-02  2.83550e-01        00000 
-5.09168e-02  2.78660e-01        00000 
-4.71108e-02  2.74163e-01        00000 
-4.26198e-02  2.72167e-01        00000 
-3.77369e-02  2.71086e-01        00000 
-3.18660e-02  2.63526e-01        00000 
-2.51534e-02  2.58448e-01        00000 
-1.82057e-02  2.55154e-01        00000 
-1.55148e-02  2.47845e-01        00000 
-1.04086e-01  3.58110e-01        00000 
-1.00380e-01  3.56846e-01        00000 
-9.27990e-02  3.52123e-01        00000 
-8.45519e-02  3.47264e-01        00000 
-7.63645e-02  3.44338e-01        00000 
-6.85262e-02  3.41674e-01        00000 
-6.19780e-02  3.38116e-01        00000 
-5.41613e-02  3.32764e-01        00000 
-4.78858e-02  3.32509e-01        00000 
-4.35170e-02  3.33378e-01        00000 
-3.98810e-02  3.36673e-01        00000 
-3.45226e-02  3.39887e-01        00000 
-2.83592e-02  3.36025e-01        00000 
-2.11966e-02  3.33972e-01        00000 
-1.32358e-02  3.32564e-01        00000 
-6.38776e-03  3.35356e-01        00000 
-1.06925e-01  3.92651e-01        00000 
-1.02272e-01  3.93649e-01        00000 
-9.45194e-02  3.92757e-01        00000 
-8.60834e-02  3.91791e-01        00000 
-7.94950e-02  3.91568e-01        00000 
-7.27294e-02  3.90873e-01        00000 
-6.54196e-02  3.89286e-01        00000 
-5.80473e-02  3.90106e-01        00000 
-5.10081e-02  3.91896e-01        00000 
-4.47164e-02  3.96766e-01        00000 
-3.83788e-02  4.02307e-01        00000 
-3.17129e-02  4.08141e-01        00000 
-2.42407e-02  4.07522e-01        00000 
-1.70831e-02  4.07558e-01        00000 
-8.30017e-03  4.11409e-01        00000 
-3.06716e-03  4.19350e-01        00000 
-1.10109e-01  4.24154e-01        00000 
-1.05814e-01  4.28124e-01        00000 
-9.90948e-02  4.29659e-01        00000 
-9.06555e-02  4.31043e-01        00000 
-8.30564e-02  4.34050e-01        00000 
-7.65831e-02  4.37115e-01        00000 
-6.92027e-02  4.43213e-01        00000 
-6.21601e-02  4.50028e-01        00000 
-5.56316e-02  4.54425e-01        00000 
-4.88801e-02  4.59920e-01        00000 
-4.10538e-02  4.66711e-01        00000 
-3.28553e-02  4.73049e-01        00000 
-2.36824e-02  4.78614e-01        00000 
-1.48848e-02  4.84125e-01        00000 
-5.84951e-03  4.92221e-01        00000 
 4.07593e-03  5.00213e-01        00000 
-1.14104e-01  4.52532e-01        00000 
-1.09407e-01  4.57490e-01        00000 
-1.02950e-01  4.60369e-01        00000 
-9.57093e-02  4.63079e-01        00000 
-8.77570e-02  4.68171e-01        00000 
-8.01604e-02  4.74752e-01        00000 
-7.22844e-02  4.81309e-01        00000 
-6.43368e-02  4.91232e-01        00000 
-5.73913e-02  5.01720e-01        00000 
-5.04413e-02  5.12121e-01        00000 
-4.21442e-02  5.21607e-01        00000 
-3.35740e-02  5.33875e-01        00000 
-2.35229e-02  5.44211e-01        00000 
-1.36241e-02  5.56372e-01        00000 
-3.29218e-03  5.70461e-01        00000 
 9.15733e-03  5.83747e-01        00000 
-1.16567e-01  4.72663e-01        00000 
-1.12661e-01  4.79911e-01        00000 
-1.06572e-01  4.83887e-01        00000 
-9.86220e-02  4.87247e-01        00000 
-9.16408e-02  4.95105e-01        00000 
-8.47602e-02  5.03598e-01        00000 
-7.70417e-02  5.15323e-01        00000 
-6.79542e-02  5.29180e-01        00000 
-6.07518e-02  5.44307e-01        00000 
-5.28839e-02  5.60239e-01        00000 
-4.30926e-02  5.75263e-01        00000 
-3.32638e-02  5.89448e-01        00000 
-2.20676e-02  6.03544e-01        00000 
-1.29779e-02  6.23517e-01        00000 
-2.87813e-03  6.48439e-01        00000 
 1.11918e-02  6.66272e-01        00000 
-1.17167e-01  4.83279e-01        00000 
-1.14276e-01  4.93014e-01        00000 
-1.07676e-01  4.97684e-01        00000 
-1.00629e-01  5.04771e-01        00000 
-9.35261e-02  5.13299e-01        00000 
-8.70700e-02  5.28028e-01        00000 
-7.98000e-02  5.44432e-01        00000 
-7.02762e-02  5.62986e-01        00000 
-6.14123e-02  5.82996e-01        00000 
-5.10093e-02  6.03417e-01        00000 
-4.06140e-02  6.24803e-01        00000 
-3.06567e-02  6.46967e-01        00000 
-1.98743e-02  6.68296e-01        00000 
-8.69700e-03  6.91695e-01        00000 
 4.55339e-03  7.21124e-01        00000 
 1.46467e-02  7.48397e-01        00000 
-1.16364e-01  4.86516e-01        00000 
-1.13377e-01  4.98577e-01        00000 
-1.06862e-01  5.04924e-01        00000 
-9.95346e-02  5.13792e-01        00000 
-9.19397e-02  5.26155e-01        00000 
-8.50406e-02  5.43600e-01        00000 
-7.67091e-02  5.66825e-01        00000 
-6.70840e-02  5.89989e-01        00000 
-5.43582e-02  6.14312e-01        00000 
-4.24889e-02  6.44232e-01        00000 
-3.33990e-02  6.71116e-01        00000 
-2.53311e-02  7.01882e-01        00000 
-1.26198e-02  7.31315e-01        00000 
-1.34674e-03  7.63129e-01        00000 
 7.27425e-03  8.02406e-01        00000 
 2.07345e-02  8.32596e-01        00000 
-1.14960e-01  4.85218e-01        00000 
-1.11377e-01  4.98540e-01        00000 
-1.04770e-01  5.05882e-01        00000 
-9.59106e-02  5.17554e-01        00000 
-8.72300e-02  5.34349e-01        00000 
-7.88578e-02  5.57212e-01        00000 
-6.93821e-02  5.85292e-01        00000 
-5.78764e-02  6.14957e-01        00000 
-4.55801e-02  6.47717e-01        00000 
-3.51482e-02  6.80379e-01        00000 
-2.57419e-02  7.13237e-01        00000 
-1.47794e-02  7.50036e-01        00000 
-4.74456e-03  7.90352e-01        00000 
 4.01685e-03  8.40546e-01        00000 
 1.58640e-02  8.73130e-01        00000 
 2.75975e-02  9.07331e-01        00000 
-1.12157e-01  4.79827e-01        00000 
-1.08177e-01  4.95020e-01        00000 
-9.97909e-02  5.03719e-01        00000 
-8.90682e-02  5.18218e-01        00000 
-7.95560e-02  5.39767e-01        00000 
-7.09120e-02  5.69377e-01        00000 
-5.95204e-02  6.02909e-01        00000 
-4.80612e-02  6.38710e-01        00000 
-3.61241e-02  6.76841e-01        00000 
-2.50777e-02  7.14921e-01        00000 
-1.46365e-02  7.57831e-01        00000 
-3.68693e-03  8.04389e-01        00000 
 2.73492e-03  8.56408e-01        00000 
 1.75333e-02  8.96465e-01        00000 
 3.00364e-02  9.41478e-01        00000 
 3.28597e-02  9.91778e-01        00000 
-1.08494e-01  4.72356e-01        00000 
-1.04082e-01  4.84522e-01        00000 
-9.76055e-02  4.94420e-01        00000 
-8.82469e-02  5.06604e-01        00000 
-7.92804e-02  5.24481e-01        00000 
-7.10703e-02  5.47212e-01        00000 
-6.12485e-02  5.74609e-01        00000 
-5.11949e-02  6.06305e-01        00000 
-4.27655e-02  6.40439e-01        00000 
-3.40928e-02  6.74195e-01        00000 
-2.50320e-02  7.09699e-01        00000 
-1.45239e-02  7.48622e-01        00000 
-3.76640e-03  7.89903e-01        00000 
 7.65232e-03  8.26670e-01        00000 
 2.01767e-02  8.69672e-01        00000 
 2.99225e-02  9.14848e-01        00000 
-1.02889e-01  4.61461e-01        00000 
-9.88413e-02  4.71501e-01        00000 
-9.29437e-02  4.78804e-01        00000 
-8.47723e-02  4.88881e-01        00000 
-7.68307e-02  5.02976e-01        00000 
-6.91785e-02  5.22004e-01        00000 
-6.02225e-02  5.44583e-01        00000 
-5.17624e-02  5.69741e-01        00000 
-4.48210e-02  5.98878e-01        00000 
-3.76602e-02  6.30713e-01        00000 
-3.14036e-02  6.60242e-01        00000 
-2.30062e-02  6.92035e-01        00000 
-1.35371e-02  7.23344e-01        00000 
-2.69120e-03  7.60664e-01        00000 
 9.05873e-03  7.92835e-01        00000 
 2.08403e-02  8.29098e-01        00000 
-9.61036e-02  4.45877e-01        00000 
-9.22303e-02  4.54007e-01        00000 
-8.63186e-02  4.59684e-01        00000 
-7.85752e-02  4.65627e-01        00000 
-7.06796e-02  4.76314e-01        00000 
-6.22335e-02  4.89792e-01        00000 
-5.47424e-02  5.09555e-01        00000 
-4.89519e-02  5.31416e-01        00000 
-4.28595e-02  5.55249e-01        00000 
-3.83592e-02  5.81787e-01        00000 
-3.32296e-02  6.07198e-01        00000 
-2.62733e-02  6.31386e-01        00000 
-1.88470e-02  6.58539e-01        00000 
-5.80463e-03  6.85377e-01        00000 
 5.77305e-03  7.16844e-01        00000 
 1.64510e-02  7.47895e-01        00000 
-8.77476e-02  4.24879e-01        00000 
-8.40053e-02  4.31042e-01        00000 
-7.77928e-02  4.35933e-01        00000 
-7.05296e-02  4.39720e-01        00000 
-6.36884e-02  4.48260e-01        00000 
-5.74696e-02  4.59081e-01        00000 
-5.13847e-02  4.75751e-01        00000 
-4.58776e-02  4.95292e-01        00000 
-4.02733e-02  5.13026e-01        00000 
-3.47479e-02  5.31467e-01        00000 
-3.03799e-02  5.51596e-01        00000 
-2.57349e-02  5.72886e-01        00000 
-1.92123e-02  5.94744e-01        00000 
-7.82329e-03  6.13559e-01        00000 
 1.92901e-03  6.38436e-01        00000 
 9.36735e-03  6.64604e-01        00000 
-7.83430e-02  3.99220e-01        00000 
-7.42991e-02  4.03473e-01        00000 
-6.97706e-02  4.08569e-01        00000 
-6.36539e-02  4.12005e-01        00000 
-5.80676e-02  4.18622e-01        00000 
-5.26418e-02  4.25958e-01        00000 
-4.75625e-02  4.38048e-01        00000 
-4.34552e-02  4.52461e-01        00000 
-3.84861e-02  4.65353e-01        00000 
-3.24989e-02  4.78200e-01        00000 
-2.71900e-02  4.93133e-01        00000 
-2.31041e-02  5.08386e-01        00000 
-1.83402e-02  5.27977e-01        00000 
-8.82571e-03  5.43367e-01        00000 
-9.39197e-04  5.62806e-01        00000 
 1.51796e-03  5.86109e-01        00000 
-6.87695e-02  3.68769e-01        00000 
-6.41169e-02  3.71624e-01        00000 
-5.98494e-02  3.74762e-01        00000 
-5.47902e-02  3.77425e-01        00000 
-5.12785e-02  3.83793e-01        00000 
-4.80172e-02  3.92470e-01        00000 
-4.44794e-02  3.99827e-01        00000 
-4.14786e-02  4.08441e-01        00000 
-3.79943e-02  4.17664e-01        00000 
-3.27826e-02  4.26134e-01        00000 
-2.73080e-02  4.38915e-01        00000 
-2.23113e-02  4.48576e-01        00000 
-1.79069e-02  4.61735e-01        00000 
-1.08595e-02  4.69957e-01        00000 
-3.17473e-03  4.84163e-01        00000 
-4.44214e-03  5.01491e-01        00000 
-6.00377e-02  3.33932e-01        00000 
-5.55482e-02  3.36543e-01        00000 
-5.13963e-02  3.38800e-01        00000 
-4.89335e-02  3.41455e-01        00000 
-4.66773e-02  3.48342e-01        00000 
-4.31633e-02  3.53192e-01        00000 
-4.11174e-02  3.59727e-01        00000 
-3.83806e-02  3.64034e-01        00000 
-3.49325e-02  3.70164e-01        00000 
-3.06454e-02  3.75072e-01        00000 
-2.65386e-02  3.79950e-01        00000 
-2.42838e-02  3.89429e-01        00000 
-2.18940e-02  3.98663e-01        00000 
-1.63849e-02  4.03342e-01        00000 
-8.61892e-03  4.10076e-01        00000 
-8.26715e-03  4.16909e-01        00000 
-5.65583e-02  2.95734e-01        00000 
-5.21769e-02  2.99872e-01        00000 
-4.84207e-02  3.02539e-01        00000 
-4.66707e-02  3.08531e-01        00000 
-4.53667e-02  3.14068e-01        00000 
-4.32512e-02  3.16280e-01        00000 
-4.06188e-02  3.17176e-01        00000 
-3.75624e-02  3.18259e-01        00000 
-3.47893e-02  3.20893e-01        00000 
-3.04387e-02  3.22380e-01        00000 
-2.72781e-02  3.23721e-01        00000 
-2.62981e-02  3.28216e-01        00000 
-2.46973e-02  3.32021e-01        00000 
-2.23947e-02  3.30898e-01        00000 
-1.56964e-02  3.26178e-01        00000 
-1.34682e-02  3.28879e-01        00000 
-5.57941e-02  2.60802e-01        00000 
-5.16386e-02  2.63143e-01        00000 
-4.94046e-02  2.67067e-01        00000 
-4.77394e-02  2.72111e-01        00000 
-4.68295e-02  2.78189e-01        00000 
-4.63743e-02  2.80469e-01        00000 
-4.36159e-02  2.77509e-01        00000 
-3.99783e-02  2.74775e-01        00000 
-3.74540e-02  2.72673e-01        00000 
-3.45159e-02  2.72701e-01        00000 
-3.18883e-02  2.71747e-01        00000 
-2.93488e-02  2.65960e-01        00000 
-2.77937e-02  2.59412e-01        00000 
-2.63144e-02  2.59868e-01        00000 
-1.97986e-02  2.55843e-01        00000 
-2.16496e-02  2.50500e-01        00000 
-5.53007e-02  2.28395e-01        00000 
-5.25069e-02  2.31298e-01        00000 
-5.16459e-02  2.36393e-01        00000 
-5.00377e-02  2.40300e-01        00000 
-4.90201e-02  2.43525e-01        00000 
-4.90093e-02  2.44311e-01        00000 
-4.70743e-02  2.38747e-01        00000 
-4.40128e-02  2.31978e-01        00000 
-4.09895e-02  2.28154e-01        00000 
-3.85687e-02  2.23347e-01        00000 
-3.65018e-02  2.16639e-01        00000 
-3.43249e-02  2.05773e-01        00000 
-3.25439e-02  1.90368e-01        00000 
-3.07839e-02  1.87261e-01        00000 
-2.60546e-02  1.77620e-01        00000 
-2.97367e-02  1.65208e-01        00000 
-5.46808e-02  2.00565e-01        00000 
-5.34459e-02  2.05341e-01        00000 
-5.34100e-02  2.11718e-01        00000 
-5.23742e-02  2.13440e-01        00000 
-5.19573e-02  2.14733e-01        00000 
-5.23489e-02  2.11612e-01        00000 
-5.19976e-02  2.03518e-01        00000 
-4.98452e-02  1.92688e-01        00000 
-4.65097e-02  1.82443e-01        00000 
-4.32550e-02  1.69887e-01        00000 
-4.13898e-02  1.59140e-01        00000 
-3.96555e-02  1.45373e-01        00000 
-3.91331e-02  1.30722e-01        00000 
-3.62778e-02  1.17126e-01        00000 
-3.03143e-02  9.97337e-02        00000 
-3.28772e-02  8.94306e-02        00000 
-5.36239e-02  1.78472e-01        00000 
-5.34803e-02  1.84421e-01        00000 
-5.50760e-02  1.91011e-01        00000 
-5.47946e-02  1.90446e-01        00000 
-5.50977e-02  1.89954e-01        00000 
-5.60604e-02  1.82198e-01        00000 
-5.55506e-02  1.69054e-01        00000 
-5.39517e-02  1.53909e-01        00000 
-5.06965e-02  1.37741e-01        00000 
-4.69774e-02  1.20708e-01        00000 
-4.36346e-02  1.06489e-01        00000 
-4.04909e-02  8.88172e-02        00000 
-3.71739e-02  6.97111e-02        00000 
-3.28821e-02  4.82128e-02        00000 
-3.19008e-02  2.75883e-02        00000 
-3.97937e-02  2.71819e-03        00000 
-5.25315e-02  1.58457e-01        00000 
-5.28102e-02  1.63149e-01        00000 
-5.54380e-02  1.69687e-01        00000 
-5.64830e-02  1.69097e-01        00000 
-5.63747e-02  1.67109e-01        00000 
-5.75766e-02  1.63622e-01        00000 
-5.80735e-02  1.51056e-01        00000 
-5.78413e-02  1.35351e-01        00000 
-5.71378e-02  1.22988e-01        00000 
-5.42255e-02  1.09570e-01        00000 
-5.01294e-02  9.57455e-02        00000 
-4.44739e-02  7.69680e-02        00000 
-3.77929e-02  6.04805e-02        00000 
-3.44540e-02  4.33305e-02        00000 
-2.84774e-02  2.34956e-02        00000 
-2.83742e-02 -1.30622e-04        00000 
-5.06876e-02  1.35975e-01        00000 
-5.18233e-02  1.39745e-01        00000 
-5.45207e-02  1.42907e-01        00000 
-5.70351e-02  1.45597e-01        00000 
-5.84415e-02  1.44092e-01        00000 
-5.77863e-02  1.38330e-01        00000 
-5.80417e-02  1.32413e-01        00000 
-5.70143e-02  1.18515e-01        00000 
-5.70384e-02  1.07040e-01        00000 
-5.52985e-02  9.60070e-02        00000 
-5.15116e-02  8.50551e-02        00000 
-4.72626e-02  7.05134e-02        00000 
-4.20782e-02  5.32459e-02        00000 
-3.53799e-02  3.54363e-02        00000 
-2.67115e-02  1.84477e-02        00000 
-2.42334e-02  4.12837e-04        00000 
-4.92118e-02  1.13033e-01        00000 
-5.07552e-02  1.14335e-01        00000 
-5.37024e-02  1.19280e-01        00000 
-5.73062e-02  1.21252e-01        00000 
-5.97264e-02  1.19923e-01        00000 
-6.03437e-02  1.15391e-01        00000 
-5.87951e-02  1.09272e-01        00000 
-5.64511e-02  1.00945e-01        00000 
-5.46214e-02  9.10748e-02        00000 
-5.27874e-02  8.01825e-02        00000 
-4.88951e-02  6.87206e-02        00000 
-4.47385e-02  5.96239e-02        00000 
-3.97163e-02  4.82224e-02        00000 
-3.47831e-02  3.22888e-02        00000 
-2.85207e-02  1.33404e-02        00000 
-2.11354e-02 -1.04238e-03        00000 
-4.58560e-02  8.98388e-02        00000 
-4.86225e-02  8.97671e-02        00000 
-5.28213e-02  9.53266e-02        00000 
-5.61089e-02  9.71926e-02        00000 
-5.88898e-02  9.75634e-02        00000 
-6.05491e-02  9.51082e-02        00000 
-5.98892e-02  9.13553e-02        00000 
-5.59303e-02  8.28897e-02        00000 
-5.21522e-02  7.45418e-02        00000 
-4.88236e-02  6.21293e-02        00000 
-4.63555e-02  5.34244e-02        00000 
-4.32153e-02  4.83813e-02        00000 
-3.67168e-02  3.93194e-02        00000 
-2.97790e-02  2.49757e-02        00000 
-2.30792e-02  1.09700e-02        00000 
-1.59446e-02  1.29863e-03        00000 
-3.91733e-02  6.87710e-02        00000 
-4.28436e-02  6.76355e-02        00000 
-4.73852e-02  6.82254e-02        00000 
-5.10866e-02  6.92402e-02        00000 
-5.37918e-02  6.92408e-02        00000 
-5.52990e-02  6.86053e-02        00000 
-5.49498e-02  6.61592e-02        00000 
-5.31540e-02  6.36177e-02        00000 
-4.98905e-02  5.75737e-02        00000 
-4.61465e-02  4.94503e-02        00000 
-4.22165e-02  3.87864e-02        00000 
-3.79592e-02  3.14516e-02        00000 
-3.32341e-02  2.54680e-02        00000 
-2.53358e-02  1.69653e-02        00000 
-1.55952e-02  9.14892e-03        00000 
-5.42271e-03  1.92302e-03        00000 
-3.26574e-02  5.32503e-02        00000 
-3.60146e-02  5.02413e-02        00000 
-3.96605e-02  5.00136e-02        00000 
-4.35990e-02  4.99966e-02        00000 
-4.65815e-02  4.91040e-02        00000 
-4.73627e-02  4.77051e-02        00000 
-4.61654e-02  4.57047e-02        00000 
-4.48571e-02  4.27708e-02        00000 
-4.19174e-02  3.85210e-02        00000 
-3.78933e-02  3.39526e-02        00000 
-3.43528e-02  2.72515e-02        00000 
-2.98282e-02  2.07901e-02        00000 
-2.38183e-02  1.62938e-02        00000 
-1.81734e-02  1.15168e-02        00000 
-8.82432e-03  1.50543e-03        00000 
 7.56147e-04 -2.70860e-03        00000 
-2.67239e-02  4.29499e-02        00000 