<?xml version="1.0" encoding="utf-8"?>
<VTKFile byte_order="LittleEndian" type="UnstructuredGrid" version="0.1">
   <UnstructuredGrid>
      <Piece NumberOfCells="3364" NumberOfPoints="1741">
         <Points>
            <DataArray Name="Points" NumberOfComponents="3" format="ascii" type="Float32">
0.0000 1.0000 0.0000
0.0000 1.0345 0.0000
0.0000 1.0690 0.0000
0.0000 1.1034 0.0000
0.0000 1.1379 0.0000
0.0000 1.1724 0.0000
0.0000 1.2069 0.0000
0.0000 1.2414 0.0000
0.0000 1.2759 0.0000
0.0000 1.3103 0.0000
0.0000 1.3448 0.0000
0.0000 1.3793 0.0000
0.0000 1.4138 0.0000
0.0000 1.4483 0.0000
0.0000 1.4828 0.0000
0.0000 1.5172 0.0000
0.0000 1.5517 0.0000
0.0000 1.5862 0.0000
0.0000 1.6207 0.0000
0.0000 1.6552 0.0000
0.0000 1.6897 0.0000
0.0000 1.7241 0.0000
0.0000 1.7586 0.0000
0.0000 1.7931 0.0000
0.0000 1.8276 0.0000
0.0000 1.8621 0.0000
0.0000 1.8966 0.0000
0.0000 1.9310 0.0000
0.0000 1.9655 0.0000
0.0000 2.0000 0.0000
0.0690 1.0000 0.0000
0.0690 1.0345 0.0000
0.0690 1.0690 0.0000
0.0690 1.1034 0.0000
0.0690 1.1379 0.0000
0.0690 1.1724 0.0000
0.0690 1.2069 0.0000
0.0690 1.2414 0.0000
0.0690 1.2759 0.0000
0.0690 1.3103 0.0000
0.0690 1.3448 0.0000
0.0690 1.3793 0.0000
0.0690 1.4138 0.0000
0.0690 1.4483 0.0000
0.0690 1.4828 0.0000
0.0690 1.5172 0.0000
0.0690 1.5517 0.0000
0.0690 1.5862 0.0000
0.0690 1.6207 0.0000
0.0690 1.6552 0.0000
0.0690 1.6897 0.0000
0.0690 1.7241 0.0000
0.0690 1.7586 0.0000
0.0690 1.7931 0.0000
0.0690 1.8276 0.0000
0.0690 1.8621 0.0000
0.0690 1.8966 0.0000
0.0690 1.9310 0.0000
0.0690 1.9655 0.0000
0.0690 2.0000 0.0000
0.1379 1.0000 0.0000
0.1379 1.0345 0.0000
0.1379 1.0690 0.0000
0.1379 1.1034 0.0000
0.1379 1.1379 0.0000
0.1379 1.1724 0.0000
0.1379 1.2069 0.0000
0.1379 1.2414 0.0000
0.1379 1.2759 0.0000
0.1379 1.3103 0.0000
0.1379 1.3448 0.0000
0.1379 1.3793 0.0000
0.1379 1.4138 0.0000
0.1379 1.4483 0.0000
0.1379 1.4828 0.0000
0.1379 1.5172 0.0000
0.1379 1.5517 0.0000
0.1379 1.5862 0.0000
0.1379 1.6207 0.0000
0.1379 1.6552 0.0000
0.1379 1.6897 0.0000
0.1379 1.7241 0.0000
0.1379 1.7586 0.0000
0.1379 1.7931 0.0000
0.1379 1.8276 0.0000
0.1379 1.8621 0.0000
0.1379 1.8966 0.0000
0.1379 1.9310 0.0000
0.1379 1.9655 0.0000
0.1379 2.0000 0.0000
0.2069 1.0000 0.0000
0.2069 1.0345 0.0000
0.2069 1.0690 0.0000
0.2069 1.1034 0.0000
0.2069 1.1379 0.0000
0.2069 1.1724 0.0000
0.2069 1.2069 0.0000
0.2069 1.2414 0.0000
0.2069 1.2759 0.0000
0.2069 1.3103 0.0000
0.2069 1.3448 0.0000
0.2069 1.3793 0.0000
0.2069 1.4138 0.0000
0.2069 1.4483 0.0000
0.2069 1.4828 0.0000
0.2069 1.5172 0.0000
0.2069 1.5517 0.0000
0.2069 1.5862 0.0000
0.2069 1.6207 0.0000
0.2069 1.6552 0.0000
0.2069 1.6897 0.0000
0.2069 1.7241 0.0000
0.2069 1.7586 0.0000
0.2069 1.7931 0.0000
0.2069 1.8276 0.0000
0.2069 1.8621 0.0000
0.2069 1.8966 0.0000
0.2069 1.9310 0.0000
0.2069 1.9655 0.0000
0.2069 2.0000 0.0000
0.2759 1.0000 0.0000
0.2759 1.0345 0.0000
0.2759 1.0690 0.0000
0.2759 1.1034 0.0000
0.2759 1.1379 0.0000
0.2759 1.1724 0.0000
0.2759 1.2069 0.0000
0.2759 1.2414 0.0000
0.2759 1.2759 0.0000
0.2759 1.3103 0.0000
0.2759 1.3448 0.0000
0.2759 1.3793 0.0000
0.2759 1.4138 0.0000
0.2759 1.4483 0.0000
0.2759 1.4828 0.0000
0.2759 1.5172 0.0000
0.2759 1.5517 0.0000
0.2759 1.5862 0.0000
0.2759 1.6207 0.0000
0.2759 1.6552 0.0000
0.2759 1.6897 0.0000
0.2759 1.7241 0.0000
0.2759 1.7586 0.0000
0.2759 1.7931 0.0000
0.2759 1.8276 0.0000
0.2759 1.8621 0.0000
0.2759 1.8966 0.0000
0.2759 1.9310 0.0000
0.2759 1.9655 0.0000
0.2759 2.0000 0.0000
0.3448 1.0000 0.0000
0.3448 1.0345 0.0000
0.3448 1.0690 0.0000
0.3448 1.1034 0.0000
0.3448 1.1379 0.0000
0.3448 1.1724 0.0000
0.3448 1.2069 0.0000
0.3448 1.2414 0.0000
0.3448 1.2759 0.0000
0.3448 1.3103 0.0000
0.3448 1.3448 0.0000
0.3448 1.3793 0.0000
0.3448 1.4138 0.0000
0.3448 1.4483 0.0000
0.3448 1.4828 0.0000
0.3448 1.5172 0.0000
0.3448 1.5517 0.0000
0.3448 1.5862 0.0000
0.3448 1.6207 0.0000
0.3448 1.6552 0.0000
0.3448 1.6897 0.0000
0.3448 1.7241 0.0000
0.3448 1.7586 0.0000
0.3448 1.7931 0.0000
0.3448 1.8276 0.0000
0.3448 1.8621 0.0000
0.3448 1.8966 0.0000
0.3448 1.9310 0.0000
0.3448 1.9655 0.0000
0.3448 2.0000 0.0000
0.4138 1.0000 0.0000
0.4138 1.0345 0.0000
0.4138 1.0690 0.0000
0.4138 1.1034 0.0000
0.4138 1.1379 0.0000
0.4138 1.1724 0.0000
0.4138 1.2069 0.0000
0.4138 1.2414 0.0000
0.4138 1.2759 0.0000
0.4138 1.3103 0.0000
0.4138 1.3448 0.0000
0.4138 1.3793 0.0000
0.4138 1.4138 0.0000
0.4138 1.4483 0.0000
0.4138 1.4828 0.0000
0.4138 1.5172 0.0000
0.4138 1.5517 0.0000
0.4138 1.5862 0.0000
0.4138 1.6207 0.0000
0.4138 1.6552 0.0000
0.4138 1.6897 0.0000
0.4138 1.7241 0.0000
0.4138 1.7586 0.0000
0.4138 1.7931 0.0000
0.4138 1.8276 0.0000
0.4138 1.8621 0.0000
0.4138 1.8966 0.0000
0.4138 1.9310 0.0000
0.4138 1.9655 0.0000
0.4138 2.0000 0.0000
0.4828 1.0000 0.0000
0.4828 1.0345 0.0000
0.4828 1.0690 0.0000
0.4828 1.1034 0.0000
0.4828 1.1379 0.0000
0.4828 1.1724 0.0000
0.4828 1.2069 0.0000
0.4828 1.2414 0.0000
0.4828 1.2759 0.0000
0.4828 1.3103 0.0000
0.4828 1.3448 0.0000
0.4828 1.3793 0.0000
0.4828 1.4138 0.0000
0.4828 1.4483 0.0000
0.4828 1.4828 0.0000
0.4828 1.5172 0.0000
0.4828 1.5517 0.0000
0.4828 1.5862 0.0000
0.4828 1.6207 0.0000
0.4828 1.6552 0.0000
0.4828 1.6897 0.0000
0.4828 1.7241 0.0000
0.4828 1.7586 0.0000
0.4828 1.7931 0.0000
0.4828 1.8276 0.0000
0.4828 1.8621 0.0000
0.4828 1.8966 0.0000
0.4828 1.9310 0.0000
0.4828 1.9655 0.0000
0.4828 2.0000 0.0000
0.5517 1.0000 0.0000
0.5517 1.0345 0.0000
0.5517 1.0690 0.0000
0.5517 1.1034 0.0000
0.5517 1.1379 0.0000
0.5517 1.1724 0.0000
0.5517 1.2069 0.0000
0.5517 1.2414 0.0000
0.5517 1.2759 0.0000
0.5517 1.3103 0.0000
0.5517 1.3448 0.0000
0.5517 1.3793 0.0000
0.5517 1.4138 0.0000
0.5517 1.4483 0.0000
0.5517 1.4828 0.0000
0.5517 1.5172 0.0000
0.5517 1.5517 0.0000
0.5517 1.5862 0.0000
0.5517 1.6207 0.0000
0.5517 1.6552 0.0000
0.5517 1.6897 0.0000
0.5517 1.7241 0.0000
0.5517 1.7586 0.0000
0.5517 1.7931 0.0000
0.5517 1.8276 0.0000
0.5517 1.8621 0.0000
0.5517 1.8966 0.0000
0.5517 1.9310 0.0000
0.5517 1.9655 0.0000
0.5517 2.0000 0.0000
0.6207 1.0000 0.0000
0.6207 1.0345 0.0000
0.6207 1.0690 0.0000
0.6207 1.1034 0.0000
0.6207 1.1379 0.0000
0.6207 1.1724 0.0000
0.6207 1.2069 0.0000
0.6207 1.2414 0.0000
0.6207 1.2759 0.0000
0.6207 1.3103 0.0000
0.6207 1.3448 0.0000
0.6207 1.3793 0.0000
0.6207 1.4138 0.0000
0.6207 1.4483 0.0000
0.6207 1.4828 0.0000
0.6207 1.5172 0.0000
0.6207 1.5517 0.0000
0.6207 1.5862 0.0000
0.6207 1.6207 0.0000
0.6207 1.6552 0.0000
0.6207 1.6897 0.0000
0.6207 1.7241 0.0000
0.6207 1.7586 0.0000
0.6207 1.7931 0.0000
0.6207 1.8276 0.0000
0.6207 1.8621 0.0000
0.6207 1.8966 0.0000
0.6207 1.9310 0.0000
0.6207 1.9655 0.0000
0.6207 2.0000 0.0000
0.6897 1.0000 0.0000
0.6897 1.0345 0.0000
0.6897 1.0690 0.0000
0.6897 1.1034 0.0000
0.6897 1.1379 0.0000
0.6897 1.1724 0.0000
0.6897 1.2069 0.0000
0.6897 1.2414 0.0000
0.6897 1.2759 0.0000
0.6897 1.3103 0.0000
0.6897 1.3448 0.0000
0.6897 1.3793 0.0000
0.6897 1.4138 0.0000
0.6897 1.4483 0.0000
0.6897 1.4828 0.0000
0.6897 1.5172 0.0000
0.6897 1.5517 0.0000
0.6897 1.5862 0.0000
0.6897 1.6207 0.0000
0.6897 1.6552 0.0000
0.6897 1.6897 0.0000
0.6897 1.7241 0.0000
0.6897 1.7586 0.0000
0.6897 1.7931 0.0000
0.6897 1.8276 0.0000
0.6897 1.8621 0.0000
0.6897 1.8966 0.0000
0.6897 1.9310 0.0000
0.6897 1.9655 0.0000
0.6897 2.0000 0.0000
0.7586 1.0000 0.0000
0.7586 1.0345 0.0000
0.7586 1.0690 0.0000
0.7586 1.1034 0.0000
0.7586 1.1379 0.0000
0.7586 1.1724 0.0000
0.7586 1.2069 0.0000
0.7586 1.2414 0.0000
0.7586 1.2759 0.0000
0.7586 1.3103 0.0000
0.7586 1.3448 0.0000
0.7586 1.3793 0.0000
0.7586 1.4138 0.0000
0.7586 1.4483 0.0000
0.7586 1.4828 0.0000
0.7586 1.5172 0.0000
0.7586 1.5517 0.0000
0.7586 1.5862 0.0000
0.7586 1.6207 0.0000
0.7586 1.6552 0.0000
0.7586 1.6897 0.0000
0.7586 1.7241 0.0000
0.7586 1.7586 0.0000
0.7586 1.7931 0.0000
0.7586 1.8276 0.0000
0.7586 1.8621 0.0000
0.7586 1.8966 0.0000
0.7586 1.9310 0.0000
0.7586 1.9655 0.0000
0.7586 2.0000 0.0000
0.8276 1.0000 0.0000
0.8276 1.0345 0.0000
0.8276 1.0690 0.0000
0.8276 1.1034 0.0000
0.8276 1.1379 0.0000
0.8276 1.1724 0.0000
0.8276 1.2069 0.0000
0.8276 1.2414 0.0000
0.8276 1.2759 0.0000
0.8276 1.3103 0.0000
0.8276 1.3448 0.0000
0.8276 1.3793 0.0000
0.8276 1.4138 0.0000
0.8276 1.4483 0.0000
0.8276 1.4828 0.0000
0.8276 1.5172 0.0000
0.8276 1.5517 0.0000
0.8276 1.5862 0.0000
0.8276 1.6207 0.0000
0.8276 1.6552 0.0000
0.8276 1.6897 0.0000
0.8276 1.7241 0.0000
0.8276 1.7586 0.0000
0.8276 1.7931 0.0000
0.8276 1.8276 0.0000
0.8276 1.8621 0.0000
0.8276 1.8966 0.0000
0.8276 1.9310 0.0000
0.8276 1.9655 0.0000
0.8276 2.0000 0.0000
0.8966 1.0000 0.0000
0.8966 1.0345 0.0000
0.8966 1.0690 0.0000
0.8966 1.1034 0.0000
0.8966 1.1379 0.0000
0.8966 1.1724 0.0000
0.8966 1.2069 0.0000
0.8966 1.2414 0.0000
0.8966 1.2759 0.0000
0.8966 1.3103 0.0000
0.8966 1.3448 0.0000
0.8966 1.3793 0.0000
0.8966 1.4138 0.0000
0.8966 1.4483 0.0000
0.8966 1.4828 0.0000
0.8966 1.5172 0.0000
0.8966 1.5517 0.0000
0.8966 1.5862 0.0000
0.8966 1.6207 0.0000
0.8966 1.6552 0.0000
0.8966 1.6897 0.0000
0.8966 1.7241 0.0000
0.8966 1.7586 0.0000
0.8966 1.7931 0.0000
0.8966 1.8276 0.0000
0.8966 1.8621 0.0000
0.8966 1.8966 0.0000
0.8966 1.9310 0.0000
0.8966 1.9655 0.0000
0.8966 2.0000 0.0000
0.9655 1.0000 0.0000
0.9655 1.0345 0.0000
0.9655 1.0690 0.0000
0.9655 1.1034 0.0000
0.9655 1.1379 0.0000
0.9655 1.1724 0.0000
0.9655 1.2069 0.0000
0.9655 1.2414 0.0000
0.9655 1.2759 0.0000
0.9655 1.3103 0.0000
0.9655 1.3448 0.0000
0.9655 1.3793 0.0000
0.9655 1.4138 0.0000
0.9655 1.4483 0.0000
0.9655 1.4828 0.0000
0.9655 1.5172 0.0000
0.9655 1.5517 0.0000
0.9655 1.5862 0.0000
0.9655 1.6207 0.0000
0.9655 1.6552 0.0000
0.9655 1.6897 0.0000
0.9655 1.7241 0.0000
0.9655 1.7586 0.0000
0.9655 1.7931 0.0000
0.9655 1.8276 0.0000
0.9655 1.8621 0.0000
0.9655 1.8966 0.0000
0.9655 1.9310 0.0000
0.9655 1.9655 0.0000
0.9655 2.0000 0.0000
1.0345 1.0000 0.0000
1.0345 1.0345 0.0000
1.0345 1.0690 0.0000
1.0345 1.1034 0.0000
1.0345 1.1379 0.0000
1.0345 1.1724 0.0000
1.0345 1.2069 0.0000
1.0345 1.2414 0.0000
1.0345 1.2759 0.0000
1.0345 1.3103 0.0000
1.0345 1.3448 0.0000
[...]
         <PointData>
            <DataArray Name="fValues" NumberOfComponents="3" format="ascii" type="Float64">
 4.96839e-23  1.34362e-22        00000 
-2.24586e-23 -6.73759e-23        00000 
 5.55220e-23  1.49909e-22        00000 
-2.89501e-23 -5.02267e-23        00000 
       00000 -1.11044e-23        00000 
 4.82778e-23  7.97895e-23        00000 
-4.44176e-23  5.55220e-24        00000 
 5.02267e-23 -4.91803e-23        00000 
-3.88654e-23  3.33132e-23        00000 
 2.21083e-23 -2.56854e-23        00000 
 5.55220e-24  5.55220e-24        00000 
-1.19027e-23 -2.75549e-23        00000 
 1.31865e-23 -2.77610e-24        00000 
 1.57452e-24  4.34943e-23        00000 
 4.85817e-24 -2.77610e-23        00000 
-3.13917e-24  5.47611e-23        00000 
 5.55220e-24  1.38805e-23        00000 
-1.29220e-23 -1.09994e-23        00000 
-8.32830e-24  1.22148e-22        00000 
 1.29055e-23 -6.97593e-23        00000 
-5.55220e-24  2.77610e-23        00000 
-6.44143e-23  2.11670e-23        00000 
 1.94327e-23 -3.88654e-23        00000 
 2.49390e-23  4.88315e-23        00000 
-4.99698e-23 -4.44176e-23        00000 
 1.15396e-23  3.47486e-23        00000 
 3.33132e-23 -9.43874e-23        00000 
-6.88411e-23  1.29994e-22        00000 
 5.80982e-23  2.79991e-23        00000 
 1.48549e-23  8.11386e-23        00000 
 5.17411e-07  9.16205e-07        00000 
 7.35697e-07  1.00263e-06        00000 
 6.02724e-07  8.17666e-07        00000 
 5.12421e-07  6.89412e-07        00000 
 4.42435e-07  5.95939e-07        00000 
 3.83868e-07  5.25901e-07        00000 
 3.32447e-07  4.72414e-07        00000 
 2.85834e-07  4.31091e-07        00000 
 2.42614e-07  3.99028e-07        00000 
 2.01866e-07  3.74239e-07        00000 
 1.62944e-07  3.55337e-07        00000 
 1.25369e-07  3.41349e-07        00000 
 8.87609e-08  3.31599e-07        00000 
 5.28069e-08  3.25636e-07        00000 
 1.72303e-08  3.23195e-07        00000 
-1.82245e-08  3.24166e-07        00000 
-5.38067e-08  3.28595e-07        00000 
-8.97722e-08  3.36676e-07        00000 
-1.26398e-07  3.48780e-07        00000 
-1.64000e-07  3.65481e-07        00000 
-2.02957e-07  3.87620e-07        00000 
-2.43754e-07  4.16396e-07        00000 
-2.87040e-07  4.53529e-07        00000 
-3.33749e-07  5.01517e-07        00000 
-3.85309e-07  5.64108e-07        00000 
-4.44096e-07  6.47134e-07        00000 
-5.14460e-07  7.60157e-07        00000 
-6.05529e-07  9.19840e-07        00000 
-7.40794e-07  1.15746e-06        00000 
-5.08772e-07  6.10881e-07        00000 
 8.91478e-07  1.73585e-06        00000 
 1.51587e-06  2.35092e-06        00000 
 1.27927e-06  2.04228e-06        00000 
 1.09583e-06  1.80286e-06        00000 
 9.46231e-07  1.61521e-06        00000 
 8.18957e-07  1.46706e-06        00000 
 7.07014e-07  1.34952e-06        00000 
 6.05971e-07  1.25610e-06        00000 
 5.12885e-07  1.18203e-06        00000 
 4.25705e-07  1.12379e-06        00000 
 3.42937e-07  1.07877e-06        00000 
 2.63440e-07  1.04510e-06        00000 
 1.86300e-07  1.02139e-06        00000 
 1.10753e-07  1.00673e-06        00000 
 3.61268e-08  1.00055e-06        00000 
-3.82028e-08  1.00261e-06        00000 
-1.12843e-07  1.01301e-06        00000 
-1.88418e-07  1.03212e-06        00000 
-2.65602e-07  1.06068e-06        00000 
-3.45163e-07  1.09981e-06        00000 
-4.28017e-07  1.15112e-06        00000 
-5.15314e-07  1.21682e-06        00000 
-6.08559e-07  1.29989e-06        00000 
-7.09820e-07  1.40434e-06        00000 
-8.22067e-07  1.53555e-06        00000 
-9.49781e-07  1.70065e-06        00000 
-1.10004e-06  1.90880e-06        00000 
-1.28450e-06  2.17043e-06        00000 
-1.52223e-06  2.49129e-06        00000 
-8.73768e-07  1.14658e-06        00000 
 1.23752e-06  2.50623e-06        00000 
 2.20097e-06  3.62345e-06        00000 
 1.92599e-06  3.33101e-06        00000 
 1.68089e-06  3.06763e-06        00000 
 1.46556e-06  2.84178e-06        00000 
 1.27465e-06  2.65176e-06        00000 
 1.10292e-06  2.49365e-06        00000 
 9.46086e-07  2.36332e-06        00000 
 8.00818e-07  2.25700e-06        00000 
 6.64502e-07  2.17151e-06        00000 
 5.35071e-07  2.10427e-06        00000 
 4.10848e-07  2.05327e-06        00000 
 2.90432e-07  2.01699e-06        00000 
 1.72612e-07  1.99434e-06        00000 
 5.62984e-08  1.98467e-06        00000 
-5.95273e-08  1.98767e-06        00000 
-1.75863e-07  2.00345e-06        00000 
-2.93729e-07  2.03244e-06        00000 
-4.14217e-07  2.07550e-06        00000 
-5.38542e-07  2.13388e-06        00000 
-6.68109e-07  2.20931e-06        00000 
-8.04604e-07  2.30401e-06        00000 
-9.50104e-07  2.42075e-06        00000 
-1.10724e-06  2.56287e-06        00000 
-1.27936e-06  2.73414e-06        00000 
-1.47077e-06  2.93834e-06        00000 
-1.68673e-06  3.17830e-06        00000 
-1.93251e-06  3.45339e-06        00000 
-2.20815e-06  3.75506e-06        00000 
-1.21186e-06  1.64236e-06        00000 
 1.56381e-06  3.33164e-06        00000 
 2.83782e-06  4.97282e-06        00000 
 2.52427e-06  4.69842e-06        00000 
 2.23479e-06  4.44529e-06        00000 
 1.96868e-06  4.21687e-06        00000 
 1.72441e-06  4.01556e-06        00000 
 1.49922e-06  3.84137e-06        00000 
 1.29013e-06  3.69303e-06        00000 
 1.09433e-06  3.56874e-06        00000 
 9.09286e-07  3.46662e-06        00000 
 7.32813e-07  3.38490e-06        00000 
 5.62987e-07  3.32206e-06        00000 
 3.98111e-07  3.27687e-06        00000 
 2.36652e-07  3.24843e-06        00000 
 7.71941e-08  3.23616e-06        00000 
-8.16144e-08  3.23980e-06        00000 
-2.41102e-07  3.25943e-06        00000 
-4.02621e-07  3.29542e-06        00000 
-5.67590e-07  3.34849e-06        00000 
-7.37545e-07  3.41967e-06        00000 
-9.14188e-07  3.51029e-06        00000 
-1.09945e-06  3.62194e-06        00000 
-1.29552e-06  3.75642e-06        00000 
-1.50494e-06  3.91552e-06        00000 
-1.73052e-06  4.10082e-06        00000 
-1.97526e-06  4.31313e-06        00000 
-2.24187e-06  4.55181e-06        00000 
-2.53188e-06  4.81417e-06        00000 
-2.84594e-06  5.09657e-06        00000 
-1.53075e-06  2.16951e-06        00000 
 1.87094e-06  4.23854e-06        00000 
 3.43569e-06  6.45373e-06        00000 
 3.08410e-06  6.19580e-06        00000 
 2.75385e-06  5.95633e-06        00000 
 2.44433e-06  5.73707e-06        00000 
 2.15431e-06  5.53939e-06        00000 
 1.88211e-06  5.36419e-06        00000 
 1.62568e-06  5.21159e-06        00000 
 1.38285e-06  5.08113e-06        00000 
 1.15144e-06  4.97207e-06        00000 
 9.29412e-07  4.88353e-06        00000 
 7.14819e-07  4.81464e-06        00000 
 5.05863e-07  4.76466e-06        00000 
 3.00848e-07  4.73298e-06        00000 
 9.81589e-08  4.71921e-06        00000 
-1.03772e-07  4.72317e-06        00000 
-3.06495e-07  4.74491e-06        00000 
-5.11579e-07  4.78469e-06        00000 
-7.20640e-07  4.84297e-06        00000 
-9.35376e-07  4.92041e-06        00000 
-1.15759e-06  5.01780e-06        00000 
-1.38923e-06  5.13599e-06        00000 
-1.63234e-06  5.27581e-06        00000 
-1.88909e-06  5.43791e-06        00000 
-2.16166e-06  5.62251e-06        00000 
-2.45208e-06  5.82930e-06        00000 
-2.76203e-06  6.05721e-06        00000 
-3.09273e-06  6.30474e-06        00000 
-3.44478e-06  6.57026e-06        00000 
-1.83093e-06  2.74783e-06        00000 
 2.15882e-06  5.23525e-06        00000 
 3.99786e-06  8.08246e-06        00000 
 3.60886e-06  7.84016e-06        00000 
 3.24015e-06  7.61495e-06        00000 
 2.89077e-06  7.40765e-06        00000 
 2.55957e-06  7.21911e-06        00000 
 2.24509e-06  7.05002e-06        00000 
 1.94569e-06  6.90081e-06        00000 
 1.65957e-06  6.77162e-06        00000 
 1.38488e-06  6.66234e-06        00000 
 1.11973e-06  6.57270e-06        00000 
 8.62302e-07  6.50235e-06        00000 
 6.10794e-07  6.45094e-06        00000 
 3.63468e-07  6.41819e-06        00000 
 1.18627e-07  6.40388e-06        00000 
-1.25402e-07  6.40791e-06        00000 
-3.70279e-07  6.43030e-06        00000 
-6.17676e-07  6.47120e-06        00000 
-8.69294e-07  6.53084e-06        00000 
-1.12687e-06  6.60952e-06        00000 
-1.39220e-06  6.70760e-06        00000 
-1.66712e-06  6.82539e-06        00000 
-1.95351e-06  6.96309e-06        00000 
-2.25321e-06  7.12074e-06        00000 
-2.56803e-06  7.29811e-06        00000 
-2.89960e-06  7.49467e-06        00000 
-3.24936e-06  7.70969e-06        00000 
-3.61849e-06  7.94233e-06        00000 
-4.00791e-06  8.19183e-06        00000 
-2.11228e-06  3.38320e-06        00000 
 2.42703e-06  6.32233e-06        00000 
 4.52521e-06  9.86090e-06        00000 
 4.10018e-06  9.63390e-06        00000 
 3.69494e-06  9.42293e-06        00000 
 3.30835e-06  9.22841e-06        00000 
 2.93911e-06  9.05086e-06        00000 
 2.58584e-06  8.89079e-06        00000 
 2.24699e-06  8.74863e-06        00000 
 1.92097e-06  8.62466e-06        00000 
 1.60609e-06  8.51906e-06        00000 
 1.30061e-06  8.43186e-06        00000 
 1.00281e-06  8.36303e-06        00000 
 7.10949e-07  8.31251e-06        00000 
 4.23315e-07  8.28019e-06        00000 
 1.38201e-07  8.26602e-06        00000 
-1.46085e-07  8.26995e-06        00000 
-4.31234e-07  8.29199e-06        00000 
-7.18939e-07  8.33219e-06        00000 
-1.01091e-06  8.39061e-06        00000 
-1.30885e-06  8.46734e-06        00000 
-1.61451e-06  8.56243e-06        00000 
-1.92961e-06  8.67589e-06        00000 
-2.25588e-06  8.80763e-06        00000 
-2.59500e-06  8.95745e-06        00000 
-2.94859e-06  9.12499e-06        00000 
-3.31817e-06  9.30982e-06        00000 
-3.70513e-06  9.51142e-06        00000 
-4.11075e-06  9.72930e-06        00000 
-4.53619e-06  9.96309e-06        00000 
-2.37437e-06  4.07634e-06        00000 
 2.67524e-06  7.49668e-06        00000 
 5.01791e-06  1.17843e-05        00000 
 4.55871e-06  1.15724e-05        00000 
 4.11906e-06  1.13755e-05        00000 
 3.69762e-06  1.11939e-05        00000 
 3.29301e-06  1.10280e-05        00000 
 2.90380e-06  1.08780e-05        00000 
 2.52851e-06  1.07444e-05        00000 
 2.16559e-06  1.06275e-05        00000 
 1.81344e-06  1.05275e-05        00000 
 1.47044e-06  1.04446e-05        00000 
 1.13492e-06  1.03790e-05        00000 
 8.05235e-07  1.03307e-05        00000 
 4.79701e-07  1.02997e-05        00000 
 1.56653e-07  1.02861e-05        00000 
-1.65579e-07  1.02898e-05        00000 
-4.88661e-07  1.03109e-05        00000 
-8.14264e-07  1.03493e-05        00000 
-1.14406e-06  1.04051e-05        00000 
-1.47971e-06  1.04781e-05        00000 
-1.82288e-06  1.05683e-05        00000 
-2.17523e-06  1.06755e-05        00000 
-2.53839e-06  1.07995e-05        00000 
-2.91394e-06  1.09402e-05        00000 
-3.30344e-06  1.10970e-05        00000 
-3.70837e-06  1.12696e-05        00000 
-4.13016e-06  1.14578e-05        00000 
-4.57018e-06  1.16610e-05        00000 
-5.02976e-06  1.18792e-05        00000 
-2.61685e-06  4.82543e-06        00000 
 2.90327e-06  8.75322e-06        00000 
 5.47598e-06  1.38443e-05        00000 
 4.98486e-06  1.36475e-05        00000 
 4.51306e-06  1.34646e-05        00000 
 4.05914e-06  1.32958e-05        00000 
 3.62166e-06  1.31414e-05        00000 
 3.19915e-06  1.30018e-05        00000 
 2.79012e-06  1.28772e-05        00000 
 2.39306e-06  1.27681e-05        00000 
 2.00641e-06  1.26745e-05        00000 
 1.62861e-06  1.25969e-05        00000 
 1.25807e-06  1.25353e-05        00000 
 8.93174e-07  1.24898e-05        00000 
 5.32316e-07  1.24606e-05        00000 
 1.73876e-07  1.24478e-05        00000 
-1.83770e-07  1.24513e-05        00000 
-5.42242e-07  1.24711e-05        00000 
-9.03164e-07  1.25072e-05        00000 
-1.26815e-06  1.25596e-05        00000 
-1.63883e-06  1.26280e-05        00000 
-2.01679e-06  1.27125e-05        00000 
-2.40362e-06  1.28127e-05        00000 
-2.80091e-06  1.29284e-05        00000 
-3.21018e-06  1.30593e-05        00000 
-3.63297e-06  1.32052e-05        00000 
-4.07076e-06  1.33657e-05        00000 
-4.52501e-06  1.35405e-05        00000 
-4.99716e-06  1.37293e-05        00000 
-5.48866e-06  1.39320e-05        00000 
-2.83957e-06  5.62734e-06        00000 
 3.11115e-06  1.00858e-05        00000 
 5.89954e-06  1.60309e-05        00000 
 5.37895e-06  1.58490e-05        00000 
 4.87743e-06  1.56798e-05        00000 
 4.39347e-06  1.55236e-05        00000 
 3.92559e-06  1.53807e-05        00000 
 3.47230e-06  1.52514e-05        00000 
 3.03211e-06  1.51359e-05        00000 
 2.60352e-06  1.50346e-05        00000 
 2.18502e-06  1.49478e-05        00000 
 1.77507e-06  1.48756e-05        00000 
 1.37213e-06  1.48182e-05        00000 
 9.74653e-07  1.47759e-05        00000 
 5.81079e-07  1.47487e-05        00000 
 1.89841e-07  1.47367e-05        00000 
-2.00627e-07  1.47399e-05        00000 
-5.91895e-07  1.47584e-05        00000 
-9.85530e-07  1.47920e-05        00000 
-1.38310e-06  1.48407e-05        00000 
-1.78615e-06  1.49043e-05        00000 
-2.19625e-06  1.49827e-05        00000 
-2.61494e-06  1.50757e-05        00000 
-3.04373e-06  1.51830e-05        00000 
-3.48416e-06  1.53043e-05        00000 
-3.93771e-06  1.54394e-05        00000 
-4.40588e-06  1.55879e-05        00000 
-4.89015e-06  1.57496e-05        00000 
-5.39201e-06  1.59241e-05        00000 
-5.91296e-06  1.61113e-05        00000 
-3.04254e-06  6.47823e-06        00000 
 3.29903e-06  1.14879e-05        00000 
 6.28884e-06  1.83330e-05        00000 
 5.74137e-06  1.81658e-05        00000 
 5.21265e-06  1.80101e-05        00000 
 4.70114e-06  1.78663e-05        00000 
 4.20535e-06  1.77346e-05        00000 
 3.72378e-06  1.76153e-05        00000 
 3.25495e-06  1.75088e-05        00000 
 2.79737e-06  1.74152e-05        00000 
 2.34955e-06  1.73350e-05        00000 
 1.91001e-06  1.72682e-05        00000 
 1.47725e-06  1.72152e-05        00000 
 1.04976e-06  1.71760e-05        00000 
 6.26033e-07  1.71508e-05        00000 
 2.04564e-07  1.71397e-05        00000 
-2.16164e-07  1.71426e-05        00000 
-6.37662e-07  1.71597e-05        00000 
-1.06144e-06  1.71907e-05        00000 
-1.48902e-06  1.72358e-05        00000 
-1.92190e-06  1.72946e-05        00000 
-2.36158e-06  1.73670e-05        00000 
-2.80956e-06  1.74529e-05        00000 
-3.26733e-06  1.75519e-05        00000 
-3.73639e-06  1.76638e-05        00000 
-4.21821e-06  1.77883e-05        00000 
-4.71427e-06  1.79251e-05        00000 
-5.22608e-06  1.80739e-05        00000 
-5.75513e-06  1.82343e-05        00000 
-6.30295e-06  1.84062e-05        00000 
-3.22590e-06  7.37386e-06        00000 
 3.46723e-06  1.29524e-05        00000 
 6.64433e-06  2.07393e-05        00000 
 6.07264e-06  2.05865e-05        00000 
 5.51929e-06  2.04440e-05        00000 
 4.98275e-06  2.03122e-05        00000 
 4.46154e-06  2.01914e-05        00000 
 3.95416e-06  2.00819e-05        00000 
 3.45916e-06  1.99839e-05        00000 
 2.97506e-06  1.98979e-05        00000 
 2.50042e-06  1.98241e-05        00000 
 2.03378e-06  1.97626e-05        00000 
 1.57368e-06  1.97138e-05        00000 
 1.11866e-06  1.96777e-05        00000 
 6.67283e-07  1.96544e-05        00000 
 2.18076e-07  1.96441e-05        00000 
-2.30415e-07  1.96468e-05        00000 
-6.79649e-07  1.96625e-05        00000 
-1.13108e-06  1.96911e-05        00000 
-1.58617e-06  1.97326e-05        00000 
-2.04638e-06  1.97867e-05        00000 
-2.51316e-06  1.98533e-05        00000 
-2.98796e-06  1.99322e-05        00000 
-3.47224e-06  2.00232e-05        00000 
-3.96745e-06  2.01260e-05        00000 
-4.47506e-06  2.02402e-05        00000 
-4.99654e-06  2.03656e-05        00000 
-5.53335e-06  2.05018e-05        00000 
-6.08702e-06  2.06485e-05        00000 
-6.65904e-06  2.08053e-05        00000 
-3.38997e-06  8.30984e-06        00000 
 3.61617e-06  1.44724e-05        00000 
 6.96662e-06  2.32380e-05        00000 
 6.37337e-06  2.30993e-05        00000 
 5.79798e-06  2.29698e-05        00000 
 5.23895e-06  2.28496e-05        00000 
 4.69479e-06  2.27394e-05        00000 
 4.16407e-06  2.26393e-05        00000 
 3.64532e-06  2.25497e-05        00000 
 3.13713e-06  2.24709e-05        00000 
 2.63807e-06  2.24032e-05        00000 
 2.14673e-06  2.23468e-05        00000 
 1.66171e-06  2.23020e-05        00000 
 1.18158e-06  2.22688e-05        00000 
 7.04953e-07  2.22475e-05        00000 
 2.30420e-07  2.22380e-05        00000 
-2.43424e-07  2.22405e-05        00000 
-7.17983e-07  2.22549e-05        00000 
-1.19466e-06  2.22811e-05        00000 
-1.67486e-06  2.23191e-05        00000 
-2.15999e-06  2.23687e-05        00000 
-2.65145e-06  2.24297e-05        00000 
-3.15065e-06  2.25020e-05        00000 
-3.65902e-06  2.25852e-05        00000 
-4.17796e-06  2.26791e-05        00000 
-4.70891e-06  2.27834e-05        00000 
-5.25331e-06  2.28977e-05        00000 
-5.81261e-06  2.30216e-05        00000 
-6.38829e-06  2.31549e-05        00000 
-6.98187e-06  2.32970e-05        00000 
-3.53517e-06  9.28171e-06        00000 
 3.74638e-06  1.60410e-05        00000 
 7.25648e-06  2.58176e-05        00000 
 6.64432e-06  2.56927e-05        00000 
 6.04946e-06  2.55756e-05        00000 
 5.47044e-06  2.54669e-05        00000 
 4.90580e-06  2.53668e-05        00000 
 4.35413e-06  2.52757e-05        00000 
 3.81403e-06  2.51942e-05        00000 
 3.28410e-06  2.51223e-05        00000 
 2.76298e-06  2.50605e-05        00000 
 2.24928e-06  2.50090e-05        00000 
 1.74165e-06  2.49680e-05        00000 
 1.23874e-06  2.49377e-05        00000 
 7.39182e-07  2.49181e-05        00000 
 2.41641e-07  2.49095e-05        00000 
-2.55238e-07  2.49117e-05        00000 
-7.52803e-07  2.49248e-05        00000 
-1.25240e-06  2.49488e-05        00000 
-1.75539e-06  2.49834e-05        00000 
-2.26311e-06  2.50287e-05        00000 
-2.77692e-06  2.50844e-05        00000 
-3.29818e-06  2.51503e-05        00000 
-3.82827e-06  2.52261e-05        00000 
-4.36856e-06  2.53115e-05        00000 
-4.92043e-06  2.54062e-05        00000 
-5.48530e-06  2.55098e-05        00000 
-6.06458e-06  2.56219e-05        00000 
-6.65972e-06  2.57420e-05        00000 
-7.27219e-06  2.58698e-05        00000 
-3.66201e-06  1.02850e-05        00000 
 3.85846e-06  1.76512e-05        00000 
 7.51486e-06  2.84668e-05        00000 
 6.88638e-06  2.83552e-05        00000 
 6.27458e-06  2.82502e-05        00000 
 5.67802e-06  2.81523e-05        00000 
 5.09530e-06  2.80621e-05        00000 
 4.52506e-06  2.79798e-05        00000 
 3.96592e-06  2.79058e-05        00000 
 3.41655e-06  2.78407e-05        00000 
 2.87562e-06  2.77845e-05        00000 
 2.34182e-06  2.77376e-05        00000 
 1.81383e-06  2.77003e-05        00000 
 1.29036e-06  2.76726e-05        00000 
 7.70110e-07  2.76548e-05        00000 
 2.51785e-07  2.76468e-05        00000 
-2.65906e-07  2.76488e-05        00000 
-7.84252e-07  2.76608e-05        00000 
-1.30455e-06  2.76825e-05        00000 
-1.82808e-06  2.77141e-05        00000 
-2.35615e-06  2.77553e-05        00000 
-2.89006e-06  2.78059e-05        00000 
-3.43112e-06  2.78656e-05        00000 
-3.98064e-06  2.79343e-05        00000 
-4.53995e-06  2.80116e-05        00000 
-5.11039e-06  2.80970e-05        00000 
-5.69332e-06  2.81903e-05        00000 
-6.29012e-06  2.82909e-05        00000 
-6.90219e-06  2.83985e-05        00000 
-7.53095e-06  2.85124e-05        00000 
-3.77108e-06  1.13153e-05        00000 
 3.95312e-06  1.92965e-05        00000 
 7.74281e-06  3.11743e-05        00000 
 7.10057e-06  3.10756e-05        00000 
 6.47428e-06  3.09822e-05        00000 
 5.86258e-06  3.08948e-05        00000 
 5.26412e-06  3.08139e-05        00000 
 4.67758e-06  3.07400e-05        00000 
 4.10165e-06  3.06734e-05        00000 
 3.53506e-06  3.06145e-05        00000 
 2.97652e-06  3.05637e-05        00000 
 2.42478e-06  3.05213e-05        00000 
 1.87858e-06  3.04874e-05        00000 
 1.33670e-06  3.04623e-05        00000 
 7.97880e-07  3.04460e-05        00000 
 2.60899e-07  3.04388e-05        00000 
-2.75476e-07  3.04406e-05        00000 
-8.12477e-07  3.04514e-05        00000 