<?xml version="1.0" encoding="utf-8"?>
<VTKFile byte_order="LittleEndian" type="UnstructuredGrid" version="0.1">
   <UnstructuredGrid>
      <Piece NumberOfCells="1444" NumberOfPoints="761">
         <Points>
            <DataArray Name="Points" NumberOfComponents="3" format="ascii" type="Float32">
-1.0000 -1.0000 0.0000
-1.0000 -0.8947 0.0000
-1.0000 -0.7895 0.0000
-1.0000 -0.6842 0.0000
-1.0000 -0.5789 0.0000
-1.0000 -0.4737 0.0000
-1.0000 -0.3684 0.0000
-1.0000 -0.2632 0.0000
-1.0000 -0.1579 0.0000
-1.0000 -0.0526 0.0000
-1.0000 0.0526 0.0000
-1.0000 0.1579 0.0000
-1.0000 0.2632 0.0000
-1.0000 0.3684 0.0000
-1.0000 0.4737 0.0000
-1.0000 0.5789 0.0000
-1.0000 0.6842 0.0000
-1.0000 0.7895 0.0000
-1.0000 0.8947 0.0000
-1.0000 1.0000 0.0000
-0.8947 -1.0000 0.0000
-0.8947 -0.8947 0.0000
-0.8947 -0.7895 0.0000
-0.8947 -0.6842 0.0000
-0.8947 -0.5789 0.0000
-0.8947 -0.4737 0.0000
-0.8947 -0.3684 0.0000
-0.8947 -0.2632 0.0000
-0.8947 -0.1579 0.0000
-0.8947 -0.0526 0.0000
-0.8947 0.0526 0.0000
-0.8947 0.1579 0.0000
-0.8947 0.2632 0.0000
-0.8947 0.3684 0.0000
-0.8947 0.4737 0.0000
-0.8947 0.5789 0.0000
-0.8947 0.6842 0.0000
-0.8947 0.7895 0.0000
-0.8947 0.8947 0.0000
-0.8947 1.0000 0.0000
-0.7895 -1.0000 0.0000
-0.7895 -0.8947 0.0000
-0.7895 -0.7895 0.0000
-0.7895 -0.6842 0.0000
-0.7895 -0.5789 0.0000
-0.7895 -0.4737 0.0000
-0.7895 -0.3684 0.0000
-0.7895 -0.2632 0.0000
-0.7895 -0.1579 0.0000
-0.7895 -0.0526 0.0000
-0.7895 0.0526 0.0000
-0.7895 0.1579 0.0000
-0.7895 0.2632 0.0000
-0.7895 0.3684 0.0000
-0.7895 0.4737 0.0000
-0.7895 0.5789 0.0000
-0.7895 0.6842 0.0000
-0.7895 0.7895 0.0000
-0.7895 0.8947 0.0000
-0.7895 1.0000 0.0000
-0.6842 -1.0000 0.0000
-0.6842 -0.8947 0.0000
-0.6842 -0.7895 0.0000
-0.6842 -0.6842 0.0000
-0.6842 -0.5789 0.0000
-0.6842 -0.4737 0.0000
-0.6842 -0.3684 0.0000
-0.6842 -0.2632 0.0000
-0.6842 -0.1579 0.0000
-0.6842 -0.0526 0.0000
-0.6842 0.0526 0.0000
-0.6842 0.1579 0.0000
-0.6842 0.2632 0.0000
-0.6842 0.3684 0.0000
-0.6842 0.4737 0.0000
-0.6842 0.5789 0.0000
-0.6842 0.6842 0.0000
-0.6842 0.7895 0.0000
-0.6842 0.8947 0.0000
-0.6842 1.0000 0.0000
-0.5789 -1.0000 0.0000
-0.5789 -0.8947 0.0000
-0.5789 -0.7895 0.0000
-0.5789 -0.6842 0.0000
-0.5789 -0.5789 0.0000
-0.5789 -0.4737 0.0000
-0.5789 -0.3684 0.0000
-0.5789 -0.2632 0.0000
-0.5789 -0.1579 0.0000
-0.5789 -0.0526 0.0000
-0.5789 0.0526 0.0000
-0.5789 0.1579 0.0000
-0.5789 0.2632 0.0000
-0.5789 0.3684 0.0000
-0.5789 0.4737 0.0000
-0.5789 0.5789 0.0000
-0.5789 0.6842 0.0000
-0.5789 0.7895 0.0000
-0.5789 0.8947 0.0000
-0.5789 1.0000 0.0000
-0.4737 -1.0000 0.0000
-0.4737 -0.8947 0.0000
-0.4737 -0.7895 0.0000
-0.4737 -0.6842 0.0000
-0.4737 -0.5789 0.0000
-0.4737 -0.4737 0.0000
-0.4737 -0.3684 0.0000
-0.4737 -0.2632 0.0000
-0.4737 -0.1579 0.0000
-0.4737 -0.0526 0.0000
-0.4737 0.0526 0.0000
-0.4737 0.1579 0.0000
-0.4737 0.2632 0.0000
-0.4737 0.3684 0.0000
-0.4737 0.4737 0.0000
-0.4737 0.5789 0.0000
-0.4737 0.6842 0.0000
-0.4737 0.7895 0.0000
-0.4737 0.8947 0.0000
-0.4737 1.0000 0.0000
-0.3684 -1.0000 0.0000
-0.3684 -0.8947 0.0000
-0.3684 -0.7895 0.0000
-0.3684 -0.6842 0.0000
-0.3684 -0.5789 0.0000
-0.3684 -0.4737 0.0000
-0.3684 -0.3684 0.0000
-0.3684 -0.2632 0.0000
-0.3684 -0.1579 0.0000
-0.3684 -0.0526 0.0000
-0.3684 0.0526 0.0000
-0.3684 0.1579 0.0000
-0.3684 0.2632 0.0000
-0.3684 0.3684 0.0000
-0.3684 0.4737 0.0000
-0.3684 0.5789 0.0000
-0.3684 0.6842 0.0000
-0.3684 0.7895 0.0000
-0.3684 0.8947 0.0000
-0.3684 1.0000 0.0000
-0.2632 -1.0000 0.0000
-0.2632 -0.8947 0.0000
-0.2632 -0.7895 0.0000
-0.2632 -0.6842 0.0000
-0.2632 -0.5789 0.0000
-0.2632 -0.4737 0.0000
-0.2632 -0.3684 0.0000
-0.2632 -0.2632 0.0000
-0.2632 -0.1579 0.0000
-0.2632 -0.0526 0.0000
-0.2632 0.0526 0.0000
-0.2632 0.1579 0.0000
-0.2632 0.2632 0.0000
-0.2632 0.3684 0.0000
-0.2632 0.4737 0.0000
-0.2632 0.5789 0.0000
-0.2632 0.6842 0.0000
-0.2632 0.7895 0.0000
-0.2632 0.8947 0.0000
-0.2632 1.0000 0.0000
-0.1579 -1.0000 0.0000
-0.1579 -0.8947 0.0000
-0.1579 -0.7895 0.0000
-0.1579 -0.6842 0.0000
-0.1579 -0.5789 0.0000
-0.1579 -0.4737 0.0000
-0.1579 -0.3684 0.0000
-0.1579 -0.2632 0.0000
-0.1579 -0.1579 0.0000
-0.1579 -0.0526 0.0000
-0.1579 0.0526 0.0000
-0.1579 0.1579 0.0000
-0.1579 0.2632 0.0000
-0.1579 0.3684 0.0000
-0.1579 0.4737 0.0000
-0.1579 0.5789 0.0000
-0.1579 0.6842 0.0000
-0.1579 0.7895 0.0000
-0.1579 0.8947 0.0000
-0.1579 1.0000 0.0000
-0.0526 -1.0000 0.0000
-0.0526 -0.8947 0.0000
-0.0526 -0.7895 0.0000
-0.0526 -0.6842 0.0000
-0.0526 -0.5789 0.0000
-0.0526 -0.4737 0.0000
-0.0526 -0.3684 0.0000
-0.0526 -0.2632 0.0000
-0.0526 -0.1579 0.0000
-0.0526 -0.0526 0.0000
-0.0526 0.0526 0.0000
-0.0526 0.1579 0.0000
-0.0526 0.2632 0.0000
-0.0526 0.3684 0.0000
-0.0526 0.4737 0.0000
-0.0526 0.5789 0.0000
-0.0526 0.6842 0.0000
-0.0526 0.7895 0.0000
-0.0526 0.8947 0.0000
-0.0526 1.0000 0.0000
0.0526 -1.0000 0.0000
0.0526 -0.8947 0.0000
0.0526 -0.7895 0.0000
0.0526 -0.6842 0.0000
0.0526 -0.5789 0.0000
0.0526 -0.4737 0.0000
0.0526 -0.3684 0.0000
0.0526 -0.2632 0.0000
0.0526 -0.1579 0.0000
0.0526 -0.0526 0.0000
0.0526 0.0526 0.0000
0.0526 0.1579 0.0000
0.0526 0.2632 0.0000
0.0526 0.3684 0.0000
0.0526 0.4737 0.0000
0.0526 0.5789 0.0000
0.0526 0.6842 0.0000
0.0526 0.7895 0.0000
0.0526 0.8947 0.0000
0.0526 1.0000 0.0000
0.1579 -1.0000 0.0000
0.1579 -0.8947 0.0000
0.1579 -0.7895 0.0000
0.1579 -0.6842 0.0000
0.1579 -0.5789 0.0000
0.1579 -0.4737 0.0000
0.1579 -0.3684 0.0000
0.1579 -0.2632 0.0000
0.1579 -0.1579 0.0000
0.1579 -0.0526 0.0000
0.1579 0.0526 0.0000
0.1579 0.1579 0.0000
0.1579 0.2632 0.0000
0.1579 0.3684 0.0000
0.1579 0.4737 0.0000
0.1579 0.5789 0.0000
0.1579 0.6842 0.0000
0.1579 0.7895 0.0000
0.1579 0.8947 0.0000
0.1579 1.0000 0.0000
0.2632 -1.0000 0.0000
0.2632 -0.8947 0.0000
0.2632 -0.7895 0.0000
0.2632 -0.6842 0.0000
0.2632 -0.5789 0.0000
0.2632 -0.4737 0.0000
0.2632 -0.3684 0.0000
0.2632 -0.2632 0.0000
0.2632 -0.1579 0.0000
0.2632 -0.0526 0.0000
0.2632 0.0526 0.0000
0.2632 0.1579 0.0000
0.2632 0.2632 0.0000
0.2632 0.3684 0.0000
0.2632 0.4737 0.0000
0.2632 0.5789 0.0000
0.2632 0.6842 0.0000
0.2632 0.7895 0.0000
0.2632 0.8947 0.0000
0.2632 1.0000 0.0000
0.3684 -1.0000 0.0000
0.3684 -0.8947 0.0000
0.3684 -0.7895 0.0000
0.3684 -0.6842 0.0000
0.3684 -0.5789 0.0000
0.3684 -0.4737 0.0000
0.3684 -0.3684 0.0000
0.3684 -0.2632 0.0000
0.3684 -0.1579 0.0000
0.3684 -0.0526 0.0000
0.3684 0.0526 0.0000
0.3684 0.1579 0.0000
0.3684 0.2632 0.0000
0.3684 0.3684 0.0000
0.3684 0.4737 0.0000
0.3684 0.5789 0.0000
0.3684 0.6842 0.0000
0.3684 0.7895 0.0000
0.3684 0.8947 0.0000
0.3684 1.0000 0.0000
0.4737 -1.0000 0.0000
0.4737 -0.8947 0.0000
0.4737 -0.7895 0.0000
0.4737 -0.6842 0.0000
0.4737 -0.5789 0.0000
0.4737 -0.4737 0.0000
0.4737 -0.3684 0.0000
0.4737 -0.2632 0.0000
0.4737 -0.1579 0.0000
0.4737 -0.0526 0.0000
0.4737 0.0526 0.0000
0.4737 0.1579 0.0000
0.4737 0.2632 0.0000
0.4737 0.3684 0.0000
0.4737 0.4737 0.0000
0.4737 0.5789 0.0000
0.4737 0.6842 0.0000
0.4737 0.7895 0.0000
0.4737 0.8947 0.0000
0.4737 1.0000 0.0000
0.5789 -1.0000 0.0000
0.5789 -0.8947 0.0000
0.5789 -0.7895 0.0000
0.5789 -0.6842 0.0000
0.5789 -0.5789 0.0000
0.5789 -0.4737 0.0000
0.5789 -0.3684 0.0000
0.5789 -0.2632 0.0000
0.5789 -0.1579 0.0000
0.5789 -0.0526 0.0000
0.5789 0.0526 0.0000
0.5789 0.1579 0.0000
0.5789 0.2632 0.0000
0.5789 0.3684 0.0000
0.5789 0.4737 0.0000
0.5789 0.5789 0.0000
0.5789 0.6842 0.0000
0.5789 0.7895 0.0000
0.5789 0.8947 0.0000
0.5789 1.0000 0.0000
0.6842 -1.0000 0.0000
0.6842 -0.8947 0.0000
0.6842 -0.7895 0.0000
0.6842 -0.6842 0.0000
0.6842 -0.5789 0.0000
0.6842 -0.4737 0.0000
0.6842 -0.3684 0.0000
0.6842 -0.2632 0.0000
0.6842 -0.1579 0.0000
0.6842 -0.0526 0.0000
0.6842 0.0526 0.0000
0.6842 0.1579 0.0000
0.6842 0.2632 0.0000
0.6842 0.3684 0.0000
0.6842 0.4737 0.0000
0.6842 0.5789 0.0000
0.6842 0.6842 0.0000
0.6842 0.7895 0.0000
0.6842 0.8947 0.0000
0.6842 1.0000 0.0000
0.7895 -1.0000 0.0000
0.7895 -0.8947 0.0000
0.7895 -0.7895 0.0000
0.7895 -0.6842 0.0000
0.7895 -0.5789 0.0000
0.7895 -0.4737 0.0000
0.7895 -0.3684 0.0000
0.7895 -0.2632 0.0000
0.7895 -0.1579 0.0000
0.7895 -0.0526 0.0000
0.7895 0.0526 0.0000
0.7895 0.1579 0.0000
0.7895 0.2632 0.0000
0.7895 0.3684 0.0000
0.7895 0.4737 0.0000
0.7895 0.5789 0.0000
0.7895 0.6842 0.0000
0.7895 0.7895 0.0000
0.7895 0.8947 0.0000
0.7895 1.0000 0.0000
0.8947 -1.0000 0.0000
0.8947 -0.8947 0.0000
0.8947 -0.7895 0.0000
0.8947 -0.6842 0.0000
0.8947 -0.5789 0.0000
0.8947 -0.4737 0.0000
0.8947 -0.3684 0.0000
0.8947 -0.2632 0.0000
0.8947 -0.1579 0.0000
0.8947 -0.0526 0.0000
0.8947 0.0526 0.0000
0.8947 0.1579 0.0000
0.8947 0.2632 0.0000
0.8947 0.3684 0.0000
0.8947 0.4737 0.0000
0.8947 0.5789 0.0000
0.8947 0.6842 0.0000
0.8947 0.7895 0.0000
0.8947 0.8947 0.0000
0.8947 1.0000 0.0000
1.0000 -1.0000 0.0000
1.0000 -0.8947 0.0000
1.0000 -0.7895 0.0000
1.0000 -0.6842 0.0000
1.0000 -0.5789 0.0000
1.0000 -0.4737 0.0000
1.0000 -0.3684 0.0000
1.0000 -0.2632 0.0000
1.0000 -0.1579 0.0000
1.0000 -0.0526 0.0000
1.0000 0.0526 0.0000
1.0000 0.1579 0.0000
1.0000 0.2632 0.0000
1.0000 0.3684 0.0000
1.0000 0.4737 0.0000
1.0000 0.5789 0.0000
1.0000 0.6842 0.0000
1.0000 0.7895 0.0000
1.0000 0.8947 0.0000
1.0000 1.0000 0.0000
-0.9474 -0.9474 0.0000
-0.9474 -0.8421 0.0000
-0.9474 -0.7368 0.0000
-0.9474 -0.6316 0.0000
-0.9474 -0.5263 0.0000
-0.9474 -0.4211 0.0000
-0.9474 -0.3158 0.0000
-0.9474 -0.2105 0.0000
-0.9474 -0.1053 0.0000
-0.9474 0.0000 0.0000
-0.9474 0.1053 0.0000
-0.9474 0.2105 0.0000
-0.9474 0.3158 0.0000
-0.9474 0.4211 0.0000
-0.9474 0.5263 0.0000
-0.9474 0.6316 0.0000
-0.9474 0.7368 0.0000
-0.9474 0.8421 0.0000
-0.9474 0.9474 0.0000
-0.8421 -0.9474 0.0000
-0.8421 -0.8421 0.0000
-0.8421 -0.7368 0.0000
-0.8421 -0.6316 0.0000
-0.8421 -0.5263 0.0000
-0.8421 -0.4211 0.0000
-0.8421 -0.3158 0.0000
-0.8421 -0.2105 0.0000
-0.8421 -0.1053 0.0000
-0.8421 0.0000 0.0000
-0.8421 0.1053 0.0000
-0.8421 0.2105 0.0000
-0.8421 0.3158 0.0000
-0.8421 0.4211 0.0000
-0.8421 0.5263 0.0000
-0.8421 0.6316 0.0000
-0.8421 0.7368 0.0000
-0.8421 0.8421 0.0000
-0.8421 0.9474 0.0000
-0.7368 -0.9474 0.0000
-0.7368 -0.8421 0.0000
[...]
         <PointData>
            <DataArray Name="fValues" NumberOfComponents="3" format="ascii" type="Float64">
-3.72613e-02  9.60740e-01        00000 
-3.06638e-02  9.22919e-01        00000 
-2.24140e-02  8.65981e-01        00000 
-5.76702e-03  8.15643e-01        00000 
 1.20791e-02  7.68988e-01        00000 
 2.43804e-02  7.19460e-01        00000 
 3.61462e-02  6.69016e-01        00000 
 4.23495e-02  6.17012e-01        00000 
 4.39111e-02  5.69376e-01        00000 
 4.07313e-02  5.24739e-01        00000 
 3.11947e-02  4.71289e-01        00000 
 1.97910e-02  4.24117e-01        00000 
 1.05462e-02  3.78908e-01        00000 
-9.11066e-04  3.27075e-01        00000 
-1.09716e-02  2.81153e-01        00000 
-1.97122e-02  2.25824e-01        00000 
-2.84554e-02  1.79595e-01        00000 
-3.78350e-02  1.21141e-01        00000 
-4.82704e-02  6.96478e-02        00000 
-4.24739e-02  1.95547e-02        00000 
-3.01857e-02  9.34165e-01        00000 
-1.83144e-02  8.81201e-01        00000 
-5.11363e-03  8.34225e-01        00000 
 1.14459e-02  7.84368e-01        00000 
 2.42927e-02  7.35948e-01        00000 
 3.63804e-02  6.88856e-01        00000 
 4.49539e-02  6.36643e-01        00000 
 5.10428e-02  5.91408e-01        00000 
 4.90171e-02  5.44617e-01        00000 
 4.61288e-02  5.00453e-01        00000 
 3.65856e-02  4.54134e-01        00000 
 2.63365e-02  4.05364e-01        00000 
 1.55290e-02  3.60617e-01        00000 
 6.34148e-03  3.18104e-01        00000 
-1.28016e-03  2.70900e-01        00000 
-1.02769e-02  2.22988e-01        00000 
-1.73419e-02  1.71488e-01        00000 
-2.63553e-02  1.17560e-01        00000 
-3.36442e-02  6.48083e-02        00000 
-3.38872e-02  2.10249e-02        00000 
-2.03158e-02  8.98197e-01        00000 
-2.40528e-03  8.42012e-01        00000 
 9.88311e-03  8.04771e-01        00000 
 2.81630e-02  7.54342e-01        00000 
 4.10611e-02  7.08640e-01        00000 
 4.90347e-02  6.63177e-01        00000 
 5.68655e-02  6.14638e-01        00000 
 5.85224e-02  5.68412e-01        00000 
 5.88179e-02  5.22989e-01        00000 
 5.50998e-02  4.76291e-01        00000 
 4.40130e-02  4.33033e-01        00000 
 3.24560e-02  3.88607e-01        00000 
 2.64441e-02  3.46257e-01        00000 
 1.58098e-02  3.04838e-01        00000 
 9.64451e-03  2.64446e-01        00000 
 2.13609e-03  2.15301e-01        00000 
-4.83473e-03  1.63918e-01        00000 
-9.52583e-03  1.17207e-01        00000 
-1.47662e-02  6.51367e-02        00000 
-2.35791e-02  1.94752e-02        00000 
-8.95033e-03  8.53060e-01        00000 
 1.24346e-02  8.02876e-01        00000 
 2.70513e-02  7.63841e-01        00000 
 4.32770e-02  7.25572e-01        00000 
 5.64856e-02  6.81616e-01        00000 
 6.38829e-02  6.34379e-01        00000 
 6.95894e-02  5.86997e-01        00000 
 6.90840e-02  5.41019e-01        00000 
 6.58958e-02  4.97274e-01        00000 
 5.93089e-02  4.55018e-01        00000 
 5.24096e-02  4.13750e-01        00000 
 3.94616e-02  3.73580e-01        00000 
 2.73554e-02  3.27299e-01        00000 
 2.06399e-02  2.81060e-01        00000 
 1.95474e-02  2.44835e-01        00000 
 1.56601e-02  2.04204e-01        00000 
 7.24217e-03  1.55244e-01        00000 
 3.30278e-03  1.07654e-01        00000 
 1.60680e-03  6.53906e-02        00000 
-8.15445e-03  2.08661e-02        00000 
 1.03433e-02  8.04079e-01        00000 
 2.64366e-02  7.61655e-01        00000 
 4.19303e-02  7.27044e-01        00000 
 5.68895e-02  6.90159e-01        00000 
 7.04111e-02  6.53068e-01        00000 
 7.67448e-02  6.09966e-01        00000 
 8.11951e-02  5.66515e-01        00000 
 8.17415e-02  5.22693e-01        00000 
 7.85401e-02  4.79016e-01        00000 
 6.95526e-02  4.34475e-01        00000 
 5.88375e-02  3.93776e-01        00000 
 4.33548e-02  3.53439e-01        00000 
 3.50495e-02  3.10594e-01        00000 
 3.14829e-02  2.67559e-01        00000 
 2.81529e-02  2.28214e-01        00000 
 2.63621e-02  1.85959e-01        00000 
 2.20954e-02  1.46192e-01        00000 
 1.98034e-02  9.87988e-02        00000 
 1.45865e-02  6.23171e-02        00000 
 4.11989e-03  2.07816e-02        00000 
 1.82088e-02  7.57410e-01        00000 
 3.28815e-02  7.18214e-01        00000 
 4.78346e-02  6.87342e-01        00000 
 6.56147e-02  6.56736e-01        00000 
 8.09579e-02  6.23038e-01        00000 
 8.89274e-02  5.85964e-01        00000 
 9.46322e-02  5.45986e-01        00000 
 9.66534e-02  5.09141e-01        00000 
 9.03609e-02  4.66943e-01        00000 
 7.93671e-02  4.23462e-01        00000 
 6.59207e-02  3.78161e-01        00000 
 5.02715e-02  3.27335e-01        00000 
 4.27286e-02  2.88789e-01        00000 
 3.98024e-02  2.49595e-01        00000 
 3.70347e-02  2.08119e-01        00000 
 3.46284e-02  1.67429e-01        00000 
 3.33270e-02  1.27709e-01        00000 
 2.75558e-02  9.46584e-02        00000 
 2.03384e-02  5.66515e-02        00000 
 9.88978e-03  1.64315e-02        00000 
 1.94984e-02  7.06116e-01        00000 
 3.53557e-02  6.71640e-01        00000 
 5.45494e-02  6.47121e-01        00000 
 6.94108e-02  6.19959e-01        00000 
 8.64218e-02  5.90757e-01        00000 
 1.00922e-01  5.63589e-01        00000 
 1.10276e-01  5.32411e-01        00000 
 1.15093e-01  5.05658e-01        00000 
 1.05498e-01  4.69764e-01        00000 
 8.75648e-02  4.22901e-01        00000 
 6.86351e-02  3.63255e-01        00000 
 5.15443e-02  3.06155e-01        00000 
 4.14982e-02  2.56135e-01        00000 
 4.03660e-02  2.21618e-01        00000 
 4.31847e-02  1.84075e-01        00000 
 4.24027e-02  1.41326e-01        00000 
 4.00610e-02  1.14331e-01        00000 
 3.29049e-02  8.35077e-02        00000 
 2.59266e-02  5.02016e-02        00000 
 2.01175e-02  1.23502e-02        00000 
 2.04124e-02  6.46900e-01        00000 
 3.74069e-02  6.21793e-01        00000 
 5.83112e-02  6.02086e-01        00000 
 7.28406e-02  5.79419e-01        00000 
 8.89010e-02  5.57719e-01        00000 
 1.05018e-01  5.37320e-01        00000 
 1.20436e-01  5.20779e-01        00000 
 1.29273e-01  5.07725e-01        00000 
 1.21608e-01  4.75402e-01        00000 
 9.75897e-02  4.16869e-01        00000 
 6.95597e-02  3.41249e-01        00000 
 4.60921e-02  2.66719e-01        00000 
 3.62115e-02  2.11214e-01        00000 
 3.99083e-02  1.84830e-01        00000 
 4.90285e-02  1.53361e-01        00000 
 4.67318e-02  1.21703e-01        00000 
 4.26544e-02  9.13045e-02        00000 
 3.87350e-02  6.73198e-02        00000 
 3.38106e-02  4.12318e-02        00000 
 2.36090e-02  1.24858e-02        00000 
 2.26478e-02  5.92224e-01        00000 
 3.90216e-02  5.70788e-01        00000 
 5.89900e-02  5.53159e-01        00000 
 7.29684e-02  5.34710e-01        00000 
 8.48820e-02  5.17213e-01        00000 
 1.04460e-01  5.04693e-01        00000 
 1.29030e-01  5.00626e-01        00000 
 1.44264e-01  4.96096e-01        00000 
 1.28116e-01  4.53370e-01        00000 
 9.90235e-02  3.75932e-01        00000 
 6.83652e-02  2.89578e-01        00000 
 4.17419e-02  2.08860e-01        00000 
 2.75984e-02  1.44226e-01        00000 
 3.50987e-02  1.31058e-01        00000 
 4.60397e-02  1.19838e-01        00000 
 4.65200e-02  9.61680e-02        00000 
 4.16643e-02  7.24468e-02        00000 
 3.86364e-02  5.21802e-02        00000 
 3.36493e-02  2.95472e-02        00000 
 2.17155e-02  6.31595e-03        00000 
 2.28733e-02  5.34686e-01        00000 
 3.85574e-02  5.18055e-01        00000 
 5.46844e-02  5.00118e-01        00000 
 6.86972e-02  4.87317e-01        00000 
 8.42222e-02  4.69562e-01        00000 
 1.02871e-01  4.57260e-01        00000 
 1.31514e-01  4.62321e-01        00000 
 1.50220e-01  4.55107e-01        00000 
 1.30271e-01  3.95014e-01        00000 
 9.72375e-02  3.19863e-01        00000 
 7.03958e-02  2.35689e-01        00000 
 4.04679e-02  1.57383e-01        00000 
 1.92865e-02  9.30613e-02        00000 
 2.85037e-02  8.71077e-02        00000 
 4.07847e-02  8.20328e-02        00000 
 4.42086e-02  7.01719e-02        00000 
 4.17468e-02  5.32550e-02        00000 
 3.40905e-02  3.41754e-02        00000 
 2.93843e-02  2.15746e-02        00000 
 2.24837e-02  4.97843e-03        00000 
 1.59202e-02  4.72101e-01        00000 
 3.17142e-02  4.55724e-01        00000 
 4.75381e-02  4.39606e-01        00000 
 6.41730e-02  4.30421e-01        00000 
 8.04258e-02  4.16447e-01        00000 
 9.88171e-02  4.03676e-01        00000 
 1.28076e-01  4.04020e-01        00000 
 1.47274e-01  3.88239e-01        00000 
 1.29226e-01  3.30616e-01        00000 
 9.62575e-02  2.55901e-01        00000 
 6.65629e-02  1.85975e-01        00000 
 3.82584e-02  1.15685e-01        00000 
 1.76583e-02  5.76900e-02        00000 
 2.22216e-02  4.79209e-02        00000 
 3.31276e-02  5.07852e-02        00000 
 3.84225e-02  4.54004e-02        00000 
 3.60354e-02  3.63000e-02        00000 
 2.91923e-02  2.31430e-02        00000 
 2.25043e-02  5.51663e-03        00000 
 2.02779e-02 -4.95604e-04        00000 
 1.19583e-02  4.10842e-01        00000 
 2.80555e-02  4.00891e-01        00000 
 4.16137e-02  3.84971e-01        00000 
 5.52523e-02  3.70071e-01        00000 
 7.38972e-02  3.57824e-01        00000 
 9.09308e-02  3.43305e-01        00000 
 1.15388e-01  3.27618e-01        00000 
 1.33910e-01  3.07683e-01        00000 
 1.21258e-01  2.62360e-01        00000 
 8.93874e-02  1.99206e-01        00000 
 6.22380e-02  1.33616e-01        00000 
 3.86960e-02  6.79193e-02        00000 
 1.58337e-02  3.66082e-02        00000 
 1.51181e-02  3.10928e-02        00000 
 2.25284e-02  3.46200e-02        00000 
 2.81342e-02  3.39119e-02        00000 
 2.81113e-02  2.53236e-02        00000 
 2.09504e-02  1.12085e-02        00000 
 1.54856e-02 -2.05091e-03        00000 
 1.57998e-02 -7.81833e-03        00000 
 5.63829e-03  3.49989e-01        00000 
 2.25232e-02  3.39026e-01        00000 
 3.67854e-02  3.27742e-01        00000 
 4.79152e-02  3.10682e-01        00000 
 6.47088e-02  2.98361e-01        00000 
 8.11245e-02  2.81956e-01        00000 
 1.01287e-01  2.58353e-01        00000 
 1.12805e-01  2.38814e-01        00000 
 1.05731e-01  2.00318e-01        00000 
 8.21101e-02  1.43932e-01        00000 
 6.00780e-02  9.12446e-02        00000 
 3.50368e-02  5.25251e-02        00000 
 1.90795e-02  3.63478e-02        00000 
 1.45803e-02  2.86662e-02        00000 
 1.68359e-02  2.60451e-02        00000 
 2.02161e-02  2.17532e-02        00000 
 2.11144e-02  1.44399e-02        00000 
 1.38545e-02  4.13215e-03        00000 
 9.49305e-03 -5.91670e-03        00000 
 1.01828e-02 -1.30641e-02        00000 
-2.09744e-03  2.88597e-01        00000 
 1.56188e-02  2.82563e-01        00000 
 3.23491e-02  2.72070e-01        00000 
 4.36005e-02  2.59417e-01        00000 
 5.79359e-02  2.44619e-01        00000 
 7.41321e-02  2.27626e-01        00000 
 8.94560e-02  2.10194e-01        00000 
 9.48265e-02  1.92110e-01        00000 
 9.25274e-02  1.65567e-01        00000 
 7.73410e-02  1.23498e-01        00000 
 6.16107e-02  8.43943e-02        00000 
 4.00528e-02  5.82762e-02        00000 
 2.39693e-02  4.36083e-02        00000 
 1.73811e-02  3.06124e-02        00000 
 1.33391e-02  2.13964e-02        00000 
 1.56888e-02  1.62903e-02        00000 
 1.39592e-02  9.45959e-03        00000 
 7.45976e-03 -4.73334e-04        00000 
 1.46941e-03 -1.12415e-02        00000 
 7.00465e-03 -1.40238e-02        00000 
-5.11987e-03  2.40934e-01        00000 
 1.12921e-02  2.31969e-01        00000 
 2.73923e-02  2.26059e-01        00000 
 4.01060e-02  2.13174e-01        00000 
 5.46054e-02  1.95896e-01        00000 
 6.72425e-02  1.83050e-01        00000 
 7.94188e-02  1.70877e-01        00000 
 8.34873e-02  1.58664e-01        00000 
 7.97101e-02  1.35596e-01        00000 
 7.17026e-02  1.11399e-01        00000 
 5.90410e-02  7.98149e-02        00000 
 4.22767e-02  6.15271e-02        00000 
 2.77332e-02  4.92784e-02        00000 
 1.61859e-02  3.23462e-02        00000 
 1.08269e-02  2.24134e-02        00000 
 1.07815e-02  1.39956e-02        00000 
 8.72454e-03  6.96065e-03        00000 
 2.03372e-03 -1.48802e-03        00000 
-2.35648e-03 -1.14222e-02        00000 
-2.54588e-04 -1.37850e-02        00000 
-1.35140e-02  1.92097e-01        00000 
 3.30575e-03  1.86600e-01        00000 
 1.94997e-02  1.80257e-01        00000 
 3.59800e-02  1.66861e-01        00000 
 5.10999e-02  1.54041e-01        00000 
 6.27741e-02  1.46415e-01        00000 
 7.27772e-02  1.37264e-01        00000 
 7.65237e-02  1.23426e-01        00000 
 7.43049e-02  1.07285e-01        00000 
 6.98836e-02  8.88509e-02        00000 
 5.71264e-02  7.37332e-02        00000 
 4.39039e-02  6.16507e-02        00000 
 2.94079e-02  4.85152e-02        00000 
 1.68772e-02  3.28026e-02        00000 
 9.54506e-03  2.04144e-02        00000 
 2.62208e-03  1.25936e-02        00000 
 1.59295e-03  4.39705e-03        00000 
-3.23760e-03 -3.01327e-03        00000 
-8.14535e-03 -1.14368e-02        00000 
-1.37899e-02 -1.90727e-02        00000 
-2.59810e-02  1.50645e-01        00000 
-5.29007e-03  1.47865e-01        00000 
 1.08502e-02  1.35120e-01        00000 
 2.46980e-02  1.22328e-01        00000 
 4.40990e-02  1.19348e-01        00000 
 5.84106e-02  1.13451e-01        00000 
 6.77143e-02  1.06090e-01        00000 
 7.05785e-02  9.28587e-02        00000 
 6.77342e-02  7.74101e-02        00000 
 6.20619e-02  6.96783e-02        00000 
 5.13715e-02  5.65883e-02        00000 
 3.82424e-02  4.73040e-02        00000 
 2.61500e-02  3.45355e-02        00000 
 1.67970e-02  2.35469e-02        00000 
 7.89156e-03  1.58539e-02        00000 
-2.55332e-03  6.62761e-03        00000 
-4.74930e-03  3.86281e-04        00000 
-1.16490e-02 -6.06385e-03        00000 
-1.46612e-02 -1.34870e-02        00000 
-2.08003e-02 -1.88868e-02        00000 
-3.17439e-02  1.11026e-01        00000 
-1.87246e-02  1.00686e-01        00000 
-6.78534e-04  9.67166e-02        00000 
 1.47192e-02  9.29907e-02        00000 
 2.96315e-02  8.43682e-02        00000 
 4.63555e-02  7.72578e-02        00000 
 5.88346e-02  7.40784e-02        00000 
 6.26561e-02  6.54509e-02        00000 
 6.09109e-02  5.52059e-02        00000 
 5.38281e-02  4.87306e-02        00000 
 4.29075e-02  3.99277e-02        00000 
 3.24296e-02  3.13476e-02        00000 
 2.32596e-02  2.06447e-02        00000 
 1.25443e-02  9.93803e-03        00000 
 1.36207e-03  1.16873e-03        00000 
-4.87683e-03 -2.12059e-03        00000 
-1.17060e-02 -6.03339e-03        00000 
-2.05300e-02 -1.29732e-02        00000 
-2.66144e-02 -1.57095e-02        00000 
-3.23805e-02 -1.91747e-02        00000 
-4.82791e-02  6.27719e-02        00000 
-2.49081e-02  6.28653e-02        00000 
-1.13889e-02  5.66876e-02        00000 
 7.77825e-03  5.55437e-02        00000 
 2.34554e-02  4.92709e-02        00000 
 3.36307e-02  4.43011e-02        00000 
 4.54694e-02  4.49242e-02        00000 
 5.28428e-02  3.98856e-02        00000 
 5.25606e-02  3.28418e-02        00000 
 4.78614e-02  2.74714e-02        00000 
 3.77652e-02  2.08789e-02        00000 
 2.76464e-02  1.14127e-02        00000 
 1.69440e-02  3.49363e-03        00000 
 4.22185e-03 -4.44466e-03        00000 
-8.95534e-03 -8.80306e-03        00000 
-1.47770e-02 -9.72875e-03        00000 
-2.38236e-02 -1.08458e-02        00000 
-3.36523e-02 -1.85593e-02        00000 
-3.87117e-02 -1.80127e-02        00000 
-3.98658e-02 -2.01777e-02        00000 
-6.05238e-02  3.54361e-02        00000 
-3.36573e-02  2.19549e-02        00000 
-2.13264e-02  2.04770e-02        00000 
-4.24284e-03  1.43477e-02        00000 
 1.08656e-02  1.52292e-02        00000 
 2.14158e-02  1.29146e-02        00000 
 3.19891e-02  1.37227e-02        00000 
 3.95026e-02  1.32026e-02        00000 
 4.18486e-02  9.62715e-03        00000 
 4.00615e-02  5.35402e-03        00000 
 3.24030e-02  1.80970e-03        00000 
 1.92571e-02 -4.05576e-03        00000 
 8.66594e-03 -3.41210e-03        00000 
-3.38564e-03 -8.36848e-03        00000 
-1.65687e-02 -1.36162e-02        00000 
-2.87339e-02 -1.87221e-02        00000 
-3.42917e-02 -2.18417e-02        00000 
-4.24861e-02 -2.31253e-02        00000 
-4.60645e-02 -2.61224e-02        00000 
-4.50016e-02 -2.29999e-02        00000 
-2.85918e-02  9.25547e-01        00000 
-1.84858e-02  8.82678e-01        00000 
-6.45834e-03  8.25506e-01        00000 
 1.15396e-02  7.77288e-01        00000 
 2.42558e-02  7.29629e-01        00000 
 3.51627e-02  6.83854e-01        00000 
 4.22807e-02  6.30680e-01        00000 
 4.63035e-02  5.83322e-01        00000 
 4.30008e-02  5.36789e-01        00000 
 3.90354e-02  4.91237e-01        00000 
 2.78032e-02  4.44592e-01        00000 
 1.69712e-02  3.98540e-01        00000 
 6.43794e-03  3.48374e-01        00000 
-2.84073e-03  2.99673e-01        00000 
-1.13808e-02  2.56019e-01        00000 
-1.78700e-02  2.01238e-01        00000 
-2.76094e-02  1.45914e-01        00000 
-3.48802e-02  9.42806e-02        00000 
-4.37741e-02  3.55693e-02        00000 
-1.61220e-02  8.91148e-01        00000 
-5.05673e-03  8.41425e-01        00000 
 1.17253e-02  7.95313e-01        00000 
 2.64722e-02  7.44803e-01        00000 
 3.79704e-02  6.98423e-01        00000 
 4.71340e-02  6.49882e-01        00000 
 5.44156e-02  6.03133e-01        00000 
 5.50144e-02  5.56304e-01        00000 
 5.26695e-02  5.10999e-01        00000 
 4.74880e-02  4.67066e-01        00000 
 3.47221e-02  4.21333e-01        00000 
 2.65431e-02  3.77449e-01        00000 
 1.80095e-02  3.32216e-01        00000 
 6.43242e-03  2.87693e-01        00000 
 1.92875e-03  2.43473e-01        00000 
-7.97013e-03  1.92957e-01        00000 
-1.30533e-02  1.45913e-01        00000 
-2.16354e-02  9.35066e-02        00000 
-2.76026e-02  3.94798e-02        00000 
-3.42358e-03  8.49818e-01        00000 
 1.02713e-02  8.01683e-01        00000 
 2.80361e-02  7.59630e-01        00000 
 4.31510e-02  7.20267e-01        00000 
 5.43162e-02  6.72327e-01        00000 
 6.00733e-02  6.24435e-01        00000 
 6.43250e-02  5.75409e-01        00000 
 6.29775e-02  5.32239e-01        00000 
 5.91597e-02  4.87729e-01        00000 
 5.35650e-02  4.42829e-01        00000 
 4.11250e-02  4.00029e-01        00000 
 3.08996e-02  3.58157e-01        00000 
 2.17594e-02  3.14581e-01        00000 
 1.42890e-02  2.72318e-01        00000 
 1.25591e-02  2.38767e-01        00000 
 3.50818e-03  1.81851e-01        00000 
-3.45848e-03  1.37073e-01        00000 
-5.09141e-03  9.19637e-02        00000 
-1.20339e-02  4.38926e-02        00000 
 1.17510e-02  8.05928e-01        00000 
 2.70429e-02  7.62345e-01        00000 
 4.40325e-02  7.27538e-01        00000 
 5.74499e-02  6.89946e-01        00000 
 6.74056e-02  6.44160e-01        00000 
 7.30394e-02  6.00691e-01        00000 
 7.60450e-02  5.54678e-01        00000 
 7.41828e-02  5.08165e-01        00000 
 6.91546e-02  4.66370e-01        00000 
 6.06306e-02  4.23234e-01        00000 
 4.95235e-02  3.85184e-01        00000 
 3.47391e-02  3.43104e-01        00000 
 2.71139e-02  2.97003e-01        00000 
 2.38642e-02  2.54207e-01        00000 
 2.26384e-02  2.15813e-01        00000 
 1.90782e-02  1.73403e-01        00000 
 1.31771e-02  1.27808e-01        00000 
 1.23712e-02  7.97873e-02        00000 
 2.31336e-03  4.56112e-02        00000 
 2.36400e-02  7.58820e-01        00000 
 3.87790e-02  7.24979e-01        00000 
 5.34819e-02  6.89938e-01        00000 
 6.97957e-02  6.56385e-01        00000 
 8.02299e-02  6.17941e-01        00000 
 8.54100e-02  5.76109e-01        00000 
 8.91270e-02  5.35971e-01        00000 
 8.61523e-02  4.94108e-01        00000 
 7.99642e-02  4.48887e-01        00000 
 6.79628e-02  4.06887e-01        00000 
 5.34437e-02  3.62290e-01        00000 
 4.19720e-02  3.18012e-01        00000 
 3.77402e-02  2.81033e-01        00000 
 3.35088e-02  2.37801e-01        00000 
 3.18237e-02  1.98114e-01        00000 
 2.97953e-02  1.57168e-01        00000 
 2.60478e-02  1.15244e-01        00000 
 2.11706e-02  7.97394e-02        00000 
 1.40741e-02  4.10199e-02        00000 
 2.68571e-02  7.11248e-01        00000 
 4.33853e-02  6.86450e-01        00000 