<?xml version="1.0" encoding="utf-8"?>
<VTKFile byte_order="LittleEndian" type="UnstructuredGrid" version="0.1">
   <UnstructuredGrid>
      <Piece NumberOfCells="24964" NumberOfPoints="12641">
         <Points>
            <DataArray Name="Points" NumberOfComponents="3" format="ascii" type="Float32">
0.0000 0.0000 0.0000
0.0000 0.0127 0.0000
0.0000 0.0253 0.0000
0.0000 0.0380 0.0000
0.0000 0.0506 0.0000
0.0000 0.0633 0.0000
0.0000 0.0759 0.0000
0.0000 0.0886 0.0000
0.0000 0.1013 0.0000
0.0000 0.1139 0.0000
0.0000 0.1266 0.0000
0.0000 0.1392 0.0000
0.0000 0.1519 0.0000
0.0000 0.1646 0.0000
0.0000 0.1772 0.0000
0.0000 0.1899 0.0000
0.0000 0.2025 0.0000
0.0000 0.2152 0.0000
0.0000 0.2278 0.0000
0.0000 0.2405 0.0000
0.0000 0.2532 0.0000
0.0000 0.2658 0.0000
0.0000 0.2785 0.0000
0.0000 0.2911 0.0000
0.0000 0.3038 0.0000
0.0000 0.3165 0.0000
0.0000 0.3291 0.0000
0.0000 0.3418 0.0000
0.0000 0.3544 0.0000
0.0000 0.3671 0.0000
0.0000 0.3797 0.0000
0.0000 0.3924 0.0000
0.0000 0.4051 0.0000
0.0000 0.4177 0.0000
0.0000 0.4304 0.0000
0.0000 0.4430 0.0000
0.0000 0.4557 0.0000
0.0000 0.4684 0.0000
0.0000 0.4810 0.0000
0.0000 0.4937 0.0000
0.0000 0.5063 0.0000
0.0000 0.5190 0.0000
0.0000 0.5316 0.0000
0.0000 0.5443 0.0000
0.0000 0.5570 0.0000
0.0000 0.5696 0.0000
0.0000 0.5823 0.0000
0.0000 0.5949 0.0000
0.0000 0.6076 0.0000
0.0000 0.6203 0.0000
0.0000 0.6329 0.0000
0.0000 0.6456 0.0000
0.0000 0.6582 0.0000
0.0000 0.6709 0.0000
0.0000 0.6835 0.0000
0.0000 0.6962 0.0000
0.0000 0.7089 0.0000
0.0000 0.7215 0.0000
0.0000 0.7342 0.0000
0.0000 0.7468 0.0000
0.0000 0.7595 0.0000
0.0000 0.7722 0.0000
0.0000 0.7848 0.0000
0.0000 0.7975 0.0000
0.0000 0.8101 0.0000
0.0000 0.8228 0.0000
0.0000 0.8354 0.0000
0.0000 0.8481 0.0000
0.0000 0.8608 0.0000
0.0000 0.8734 0.0000
0.0000 0.8861 0.0000
0.0000 0.8987 0.0000
0.0000 0.9114 0.0000
0.0000 0.9241 0.0000
0.0000 0.9367 0.0000
0.0000 0.9494 0.0000
0.0000 0.9620 0.0000
0.0000 0.9747 0.0000
0.0000 0.9873 0.0000
0.0000 1.0000 0.0000
0.0127 0.0000 0.0000
0.0127 0.0127 0.0000
0.0127 0.0253 0.0000
0.0127 0.0380 0.0000
0.0127 0.0506 0.0000
0.0127 0.0633 0.0000
0.0127 0.0759 0.0000
0.0127 0.0886 0.0000
0.0127 0.1013 0.0000
0.0127 0.1139 0.0000
0.0127 0.1266 0.0000
0.0127 0.1392 0.0000
0.0127 0.1519 0.0000
0.0127 0.1646 0.0000
0.0127 0.1772 0.0000
0.0127 0.1899 0.0000
0.0127 0.2025 0.0000
0.0127 0.2152 0.0000
0.0127 0.2278 0.0000
0.0127 0.2405 0.0000
0.0127 0.2532 0.0000
0.0127 0.2658 0.0000
0.0127 0.2785 0.0000
0.0127 0.2911 0.0000
0.0127 0.3038 0.0000
0.0127 0.3165 0.0000
0.0127 0.3291 0.0000
0.0127 0.3418 0.0000
0.0127 0.3544 0.0000
0.0127 0.3671 0.0000
0.0127 0.3797 0.0000
0.0127 0.3924 0.0000
0.0127 0.4051 0.0000
0.0127 0.4177 0.0000
0.0127 0.4304 0.0000
0.0127 0.4430 0.0000
0.0127 0.4557 0.0000
0.0127 0.4684 0.0000
0.0127 0.4810 0.0000
0.0127 0.4937 0.0000
0.0127 0.5063 0.0000
0.0127 0.5190 0.0000
0.0127 0.5316 0.0000
0.0127 0.5443 0.0000
0.0127 0.5570 0.0000
0.0127 0.5696 0.0000
0.0127 0.5823 0.0000
0.0127 0.5949 0.0000
0.0127 0.6076 0.0000
0.0127 0.6203 0.0000
0.0127 0.6329 0.0000
0.0127 0.6456 0.0000
0.0127 0.6582 0.0000
0.0127 0.6709 0.0000
0.0127 0.6835 0.0000
0.0127 0.6962 0.0000
0.0127 0.7089 0.0000
0.0127 0.7215 0.0000
0.0127 0.7342 0.0000
0.0127 0.7468 0.0000
0.0127 0.7595 0.0000
0.0127 0.7722 0.0000
0.0127 0.7848 0.0000
0.0127 0.7975 0.0000
0.0127 0.8101 0.0000
0.0127 0.8228 0.0000
0.0127 0.8354 0.0000
0.0127 0.8481 0.0000
0.0127 0.8608 0.0000
0.0127 0.8734 0.0000
0.0127 0.8861 0.0000
0.0127 0.8987 0.0000
0.0127 0.9114 0.0000
0.0127 0.9241 0.0000
0.0127 0.9367 0.0000
0.0127 0.9494 0.0000
0.0127 0.9620 0.0000
0.0127 0.9747 0.0000
0.0127 0.9873 0.0000
0.0127 1.0000 0.0000
0.0253 0.0000 0.0000
0.0253 0.0127 0.0000
0.0253 0.0253 0.0000
0.0253 0.0380 0.0000
0.0253 0.0506 0.0000
0.0253 0.0633 0.0000
0.0253 0.0759 0.0000
0.0253 0.0886 0.0000
0.0253 0.1013 0.0000
0.0253 0.1139 0.0000
0.0253 0.1266 0.0000
0.0253 0.1392 0.0000
0.0253 0.1519 0.0000
0.0253 0.1646 0.0000
0.0253 0.1772 0.0000
0.0253 0.1899 0.0000
0.0253 0.2025 0.0000
0.0253 0.2152 0.0000
0.0253 0.2278 0.0000
0.0253 0.2405 0.0000
0.0253 0.2532 0.0000
0.0253 0.2658 0.0000
0.0253 0.2785 0.0000
0.0253 0.2911 0.0000
0.0253 0.3038 0.0000
0.0253 0.3165 0.0000
0.0253 0.3291 0.0000
0.0253 0.3418 0.0000
0.0253 0.3544 0.0000
0.0253 0.3671 0.0000
0.0253 0.3797 0.0000
0.0253 0.3924 0.0000
0.0253 0.4051 0.0000
0.0253 0.4177 0.0000
0.0253 0.4304 0.0000
0.0253 0.4430 0.0000
0.0253 0.4557 0.0000
0.0253 0.4684 0.0000
0.0253 0.4810 0.0000
0.0253 0.4937 0.0000
0.0253 0.5063 0.0000
0.0253 0.5190 0.0000
0.0253 0.5316 0.0000
0.0253 0.5443 0.0000
0.0253 0.5570 0.0000
0.0253 0.5696 0.0000
0.0253 0.5823 0.0000
0.0253 0.5949 0.0000
0.0253 0.6076 0.0000
0.0253 0.6203 0.0000
0.0253 0.6329 0.0000
0.0253 0.6456 0.0000
0.0253 0.6582 0.0000
0.0253 0.6709 0.0000
0.0253 0.6835 0.0000
0.0253 0.6962 0.0000
0.0253 0.7089 0.0000
0.0253 0.7215 0.0000
0.0253 0.7342 0.0000
0.0253 0.7468 0.0000
0.0253 0.7595 0.0000
0.0253 0.7722 0.0000
0.0253 0.7848 0.0000
0.0253 0.7975 0.0000
0.0253 0.8101 0.0000
0.0253 0.8228 0.0000
0.0253 0.8354 0.0000
0.0253 0.8481 0.0000
0.0253 0.8608 0.0000
0.0253 0.8734 0.0000
0.0253 0.8861 0.0000
0.0253 0.8987 0.0000
0.0253 0.9114 0.0000
0.0253 0.9241 0.0000
0.0253 0.9367 0.0000
0.0253 0.9494 0.0000
0.0253 0.9620 0.0000
0.0253 0.9747 0.0000
0.0253 0.9873 0.0000
0.0253 1.0000 0.0000
0.0380 0.0000 0.0000
0.0380 0.0127 0.0000
0.0380 0.0253 0.0000
0.0380 0.0380 0.0000
0.0380 0.0506 0.0000
0.0380 0.0633 0.0000
0.0380 0.0759 0.0000
0.0380 0.0886 0.0000
0.0380 0.1013 0.0000
0.0380 0.1139 0.0000
0.0380 0.1266 0.0000
0.0380 0.1392 0.0000
0.0380 0.1519 0.0000
0.0380 0.1646 0.0000
0.0380 0.1772 0.0000
0.0380 0.1899 0.0000
0.0380 0.2025 0.0000
0.0380 0.2152 0.0000
0.0380 0.2278 0.0000
0.0380 0.2405 0.0000
0.0380 0.2532 0.0000
0.0380 0.2658 0.0000
0.0380 0.2785 0.0000
0.0380 0.2911 0.0000
0.0380 0.3038 0.0000
0.0380 0.3165 0.0000
0.0380 0.3291 0.0000
0.0380 0.3418 0.0000
0.0380 0.3544 0.0000
0.0380 0.3671 0.0000
0.0380 0.3797 0.0000
0.0380 0.3924 0.0000
0.0380 0.4051 0.0000
0.0380 0.4177 0.0000
0.0380 0.4304 0.0000
0.0380 0.4430 0.0000
0.0380 0.4557 0.0000
0.0380 0.4684 0.0000
0.0380 0.4810 0.0000
0.0380 0.4937 0.0000
0.0380 0.5063 0.0000
0.0380 0.5190 0.0000
0.0380 0.5316 0.0000
0.0380 0.5443 0.0000
0.0380 0.5570 0.0000
0.0380 0.5696 0.0000
0.0380 0.5823 0.0000
0.0380 0.5949 0.0000
0.0380 0.6076 0.0000
0.0380 0.6203 0.0000
0.0380 0.6329 0.0000
0.0380 0.6456 0.0000
0.0380 0.6582 0.0000
0.0380 0.6709 0.0000
0.0380 0.6835 0.0000
0.0380 0.6962 0.0000
0.0380 0.7089 0.0000
0.0380 0.7215 0.0000
0.0380 0.7342 0.0000
0.0380 0.7468 0.0000
0.0380 0.7595 0.0000
0.0380 0.7722 0.0000
0.0380 0.7848 0.0000
0.0380 0.7975 0.0000
0.0380 0.8101 0.0000
0.0380 0.8228 0.0000
0.0380 0.8354 0.0000
0.0380 0.8481 0.0000
0.0380 0.8608 0.0000
0.0380 0.8734 0.0000
0.0380 0.8861 0.0000
0.0380 0.8987 0.0000
0.0380 0.9114 0.0000
0.0380 0.9241 0.0000
0.0380 0.9367 0.0000
0.0380 0.9494 0.0000
0.0380 0.9620 0.0000
0.0380 0.9747 0.0000
0.0380 0.9873 0.0000
0.0380 1.0000 0.0000
0.0506 0.0000 0.0000
0.0506 0.0127 0.0000
0.0506 0.0253 0.0000
0.0506 0.0380 0.0000
0.0506 0.0506 0.0000
0.0506 0.0633 0.0000
0.0506 0.0759 0.0000
0.0506 0.0886 0.0000
0.0506 0.1013 0.0000
0.0506 0.1139 0.0000
0.0506 0.1266 0.0000
0.0506 0.1392 0.0000
0.0506 0.1519 0.0000
0.0506 0.1646 0.0000
0.0506 0.1772 0.0000
0.0506 0.1899 0.0000
0.0506 0.2025 0.0000
0.0506 0.2152 0.0000
0.0506 0.2278 0.0000
0.0506 0.2405 0.0000
0.0506 0.2532 0.0000
0.0506 0.2658 0.0000
0.0506 0.2785 0.0000
0.0506 0.2911 0.0000
0.0506 0.3038 0.0000
0.0506 0.3165 0.0000
0.0506 0.3291 0.0000
0.0506 0.3418 0.0000
0.0506 0.3544 0.0000
0.0506 0.3671 0.0000
0.0506 0.3797 0.0000
0.0506 0.3924 0.0000
0.0506 0.4051 0.0000
0.0506 0.4177 0.0000
0.0506 0.4304 0.0000
0.0506 0.4430 0.0000
0.0506 0.4557 0.0000
0.0506 0.4684 0.0000
0.0506 0.4810 0.0000
0.0506 0.4937 0.0000
0.0506 0.5063 0.0000
0.0506 0.5190 0.0000
0.0506 0.5316 0.0000
0.0506 0.5443 0.0000
0.0506 0.5570 0.0000
0.0506 0.5696 0.0000
0.0506 0.5823 0.0000
0.0506 0.5949 0.0000
0.0506 0.6076 0.0000
0.0506 0.6203 0.0000
0.0506 0.6329 0.0000
0.0506 0.6456 0.0000
0.0506 0.6582 0.0000
0.0506 0.6709 0.0000
0.0506 0.6835 0.0000
0.0506 0.6962 0.0000
0.0506 0.7089 0.0000
0.0506 0.7215 0.0000
0.0506 0.7342 0.0000
0.0506 0.7468 0.0000
0.0506 0.7595 0.0000
0.0506 0.7722 0.0000
0.0506 0.7848 0.0000
0.0506 0.7975 0.0000
0.0506 0.8101 0.0000
0.0506 0.8228 0.0000
0.0506 0.8354 0.0000
0.0506 0.8481 0.0000
0.0506 0.8608 0.0000
0.0506 0.8734 0.0000
0.0506 0.8861 0.0000
0.0506 0.8987 0.0000
0.0506 0.9114 0.0000
0.0506 0.9241 0.0000
0.0506 0.9367 0.0000
0.0506 0.9494 0.0000
0.0506 0.9620 0.0000
0.0506 0.9747 0.0000
0.0506 0.9873 0.0000
0.0506 1.0000 0.0000
0.0633 0.0000 0.0000
0.0633 0.0127 0.0000
0.0633 0.0253 0.0000
0.0633 0.0380 0.0000
0.0633 0.0506 0.0000
0.0633 0.0633 0.0000
0.0633 0.0759 0.0000
0.0633 0.0886 0.0000
0.0633 0.1013 0.0000
0.0633 0.1139 0.0000
0.0633 0.1266 0.0000
0.0633 0.1392 0.0000
0.0633 0.1519 0.0000
0.0633 0.1646 0.0000
0.0633 0.1772 0.0000
0.0633 0.1899 0.0000
0.0633 0.2025 0.0000
0.0633 0.2152 0.0000
0.0633 0.2278 0.0000
0.0633 0.2405 0.0000
0.0633 0.2532 0.0000
0.0633 0.2658 0.0000
0.0633 0.2785 0.0000
0.0633 0.2911 0.0000
0.0633 0.3038 0.0000
0.0633 0.3165 0.0000
0.0633 0.3291 0.0000
0.0633 0.3418 0.0000
0.0633 0.3544 0.0000
0.0633 0.3671 0.0000
0.0633 0.3797 0.0000
0.0633 0.3924 0.0000
0.0633 0.4051 0.0000
0.0633 0.4177 0.0000
0.0633 0.4304 0.0000
0.0633 0.4430 0.0000
0.0633 0.4557 0.0000
0.0633 0.4684 0.0000
0.0633 0.4810 0.0000
0.0633 0.4937 0.0000
0.0633 0.5063 0.0000
0.0633 0.5190 0.0000
0.0633 0.5316 0.0000
0.0633 0.5443 0.0000
0.0633 0.5570 0.0000
0.0633 0.5696 0.0000
0.0633 0.5823 0.0000
0.0633 0.5949 0.0000
0.0633 0.6076 0.0000
0.0633 0.6203 0.0000
0.0633 0.6329 0.0000
0.0633 0.6456 0.0000
0.0633 0.6582 0.0000
0.0633 0.6709 0.0000
0.0633 0.6835 0.0000
0.0633 0.6962 0.0000
0.0633 0.7089 0.0000
0.0633 0.7215 0.0000
0.0633 0.7342 0.0000
0.0633 0.7468 0.0000
0.0633 0.7595 0.0000
[...]
         <PointData>
            <DataArray Name="fValues" NumberOfComponents="1" format="ascii" type="Float64">
       00001 
 1.00000e+00 
 1.00000e+00 
       00001 
 1.00000e+00 
 1.00000e+00 
 1.00000e+00 
       00001 
 1.00000e+00 
       00001 
 1.00000e+00 
 1.00000e+00 
       00001 
       00001 
 1.00000e+00 
 1.00000e+00 
 1.00000e+00 
 1.00000e+00 
 1.00000e+00 
 1.00000e+00 
 1.00000e+00 
 1.00000e+00 
 1.00000e+00 
 1.00000e+00 
 1.00000e+00 
 1.00000e+00 
 1.00000e+00 
       00001 
 1.00000e+00 
       00001 
 1.00000e+00 
 1.00000e+00 
 1.00000e+00 
 1.00000e+00 
 1.00000e+00 
 1.00000e+00 
 1.00000e+00 
 1.00000e+00 
 1.00000e+00 
       00001 
 1.00000e+00 
 1.00000e+00 
 1.00000e+00 
 1.00000e+00 
 1.00000e+00 
 1.00000e+00 
 1.00000e+00 
 1.00000e+00 
 1.00000e+00 
 1.00000e+00 
 1.00000e+00 
 1.00000e+00 
 1.00000e+00 
 1.00000e+00 
 1.00000e+00 
 1.00000e+00 
 1.00000e+00 
 1.00000e+00 
 1.00000e+00 
 1.00000e+00 
 1.00000e+00 
 1.00000e+00 
 1.00000e+00 
       00001 
 1.00000e+00 
 1.00000e+00 
 1.00000e+00 
 1.00000e+00 
 1.00000e+00 
 1.00000e+00 
 1.00000e+00 
 1.00000e+00 
 1.00000e+00 
 1.00000e+00 
       00001 
 1.00000e+00 
 1.00000e+00 
 1.00000e+00 
       00001 
 1.00000e+00 
 1.00000e+00 
 1.00000e+00 
 1.00000e+00 
       00001 
 1.00000e+00 
 1.00000e+00 
       00001 
 1.00000e+00 
 1.00000e+00 
 1.00000e+00 
 1.00000e+00 
 1.00000e+00 
 1.00000e+00 
       00001 
 1.00000e+00 
 1.00000e+00 
 1.00000e+00 
 1.00000e+00 
 1.00000e+00 
 1.00000e+00 
 1.00000e+00 
 1.00000e+00 
 1.00000e+00 
 1.00000e+00 
 1.00000e+00 
 1.00000e+00 
 1.00000e+00 
 1.00000e+00 
 1.00000e+00 
 1.00000e+00 
 1.00000e+00 
 1.00000e+00 
 1.00000e+00 
 1.00000e+00 
 1.00000e+00 
 1.00000e+00 
 1.00000e+00 
 1.00000e+00 
       00001 
 1.00000e+00 
 1.00000e+00 
 1.00000e+00 
 1.00000e+00 
 1.00000e+00 
 1.00000e+00 
 1.00000e+00 
 1.00000e+00 
       00001 
 1.00000e+00 
 1.00000e+00 
 1.00000e+00 
       00001 
 1.00000e+00 
 1.00000e+00 
 1.00000e+00 
       00001 
 1.00000e+00 
       00001 
 1.00000e+00 
 1.00000e+00 
 1.00000e+00 
 1.00000e+00 
 1.00000e+00 
 1.00000e+00 
 1.00000e+00 
 1.00000e+00 
 1.00000e+00 
 1.00000e+00 
 1.00000e+00 
 1.00000e+00 
 1.00000e+00 
       00001 
 1.00000e+00 
 1.00000e+00 
 1.00000e+00 
 1.00000e+00 
 1.00000e+00 
 1.00000e+00 
 1.00000e+00 
 1.00000e+00 
 1.00000e+00 
 1.00000e+00 
 1.00000e+00 
       00001 
 1.00000e+00 
 1.00000e+00 
 1.00000e+00 
 1.00000e+00 
 1.00000e+00 
 1.00000e+00 
 1.00000e+00 
 1.00000e+00 
 1.00000e+00 
       00001 
 1.00000e+00 
 1.00000e+00 
       00001 
 1.00000e+00 
 1.00000e+00 
 1.00000e+00 
 1.00000e+00 
 1.00000e+00 
 1.00000e+00 
 1.00000e+00 
 1.00000e+00 
 1.00000e+00 
 1.00000e+00 
       00001 
 1.00000e+00 
 1.00000e+00 
       00001 
 1.00000e+00 
       00001 
 1.00000e+00 
 1.00000e+00 
 1.00000e+00 
 1.00000e+00 
 1.00000e+00 
 1.00000e+00 
 1.00000e+00 
 1.00000e+00 
 1.00000e+00 
 1.00000e+00 
 1.00000e+00 
 1.00000e+00 
 1.00000e+00 
 1.00000e+00 
 1.00000e+00 
       00001 
 1.00000e+00 
 1.00000e+00 
 1.00000e+00 
 1.00000e+00 
 1.00000e+00 
       00001 
       00001 
 1.00000e+00 
 1.00000e+00 
 1.00000e+00 
 1.00000e+00 
 1.00000e+00 
 1.00000e+00 
       00001 
 1.00000e+00 
 1.00000e+00 
 1.00000e+00 
 1.00000e+00 
 1.00000e+00 
       00001 
 1.00000e+00 
 1.00000e+00 
 1.00000e+00 
 1.00000e+00 
 1.00000e+00 
       00001 
 1.00000e+00 
 1.00000e+00 
 1.00000e+00 
 1.00000e+00 
       00001 
 1.00000e+00 
 1.00000e+00 
 1.00000e+00 
 1.00000e+00 
 1.00000e+00 
 1.00000e+00 
 1.00000e+00 
 1.00000e+00 
 1.00000e+00 
 1.00000e+00 
 1.00000e+00 
 1.00000e+00 
 1.00000e+00 
 1.00000e+00 
 1.00000e+00 
 1.00000e+00 
 1.00000e+00 
       00001 
 1.00000e+00 
 1.00000e+00 
 1.00000e+00 
 1.00000e+00 
 1.00000e+00 
 1.00000e+00 
 1.00000e+00 
 1.00000e+00 
       00001 
 1.00000e+00 
 1.00000e+00 
 1.00000e+00 
       00001 
 1.00000e+00 
 1.00000e+00 
 1.00000e+00 
 1.00000e+00 
 1.00000e+00 
 1.00000e+00 
 1.00000e+00 
 1.00000e+00 
 1.00000e+00 
 1.00000e+00 
 1.00000e+00 
 1.00000e+00 
 1.00000e+00 
 1.00000e+00 
 1.00000e+00 
       00001 
 1.00000e+00 
 1.00000e+00 
 1.00000e+00 
 1.00000e+00 
 1.00000e+00 
 1.00000e+00 
 1.00000e+00 
 1.00000e+00 
       00001 
 1.00000e+00 
       00001 
 1.00000e+00 
 1.00000e+00 
 1.00000e+00 
 1.00000e+00 
 1.00000e+00 
 1.00000e+00 
 1.00000e+00 
 1.00000e+00 
       00001 
 1.00000e+00 
 1.00000e+00 
 1.00000e+00 
       00001 
 1.00000e+00 
 1.00000e+00 
 1.00000e+00 
       00001 
 1.00000e+00 
 1.00000e+00 
 1.00000e+00 
       00001 
 1.00000e+00 
 1.00000e+00 
 1.00000e+00 
 1.00000e+00 
 1.00000e+00 
       00001 
 1.00000e+00 
 1.00000e+00 
 1.00000e+00 
 1.00000e+00 
 1.00000e+00 
 1.00000e+00 
 1.00000e+00 
 1.00000e+00 
 1.00000e+00 
 1.00000e+00 
 1.00000e+00 
 1.00000e+00 
 1.00000e+00 
       00001 
 1.00000e+00 
 1.00000e+00 
 1.00000e+00 
 1.00000e+00 
 1.00000e+00 
 1.00000e+00 
 1.00000e+00 
 1.00000e+00 
 1.00000e+00 
 1.00000e+00 
 1.00000e+00 
       00001 
 1.00000e+00 
 1.00000e+00 
 1.00000e+00 
 1.00000e+00 
 1.00000e+00 
 1.00000e+00 
 1.00000e+00 
 1.00000e+00 
 1.00000e+00 
 1.00000e+00 
 1.00000e+00 
 1.00000e+00 
 1.00000e+00 
 1.00000e+00 
 1.00000e+00 
 1.00000e+00 
       00001 
 1.00000e+00 
 1.00000e+00 
 1.00000e+00 
 1.00000e+00 
 1.00000e+00 
 1.00000e+00 
 1.00000e+00 
 1.00000e+00 
 1.00000e+00 
 1.00000e+00 
 1.00000e+00 
 1.00000e+00 
 1.00000e+00 
 1.00000e+00 
 1.00000e+00 
 1.00000e+00 
 1.00000e+00 
 1.00000e+00 
 1.00000e+00 
       00001 
 1.00000e+00 
 1.00000e+00 
 1.00000e+00 
 1.00000e+00 
 1.00000e+00 
 1.00000e+00 
 1.00000e+00 
 1.00000e+00 
 1.00000e+00 
 1.00000e+00 
 1.00000e+00 
 1.00000e+00 
 1.00000e+00 
       00001 
 1.00000e+00 
 1.00000e+00 
 1.00000e+00 
 1.00000e+00 
 1.00000e+00 
 1.00000e+00 
 1.00000e+00 
 1.00000e+00 
 1.00000e+00 
 1.00000e+00 
 1.00000e+00 
 1.00000e+00 
 1.00000e+00 
 1.00000e+00 
 1.00000e+00 
 1.00000e+00 
 1.00000e+00 
 1.00000e+00 
 1.00000e+00 
 1.00000e+00 
 1.00000e+00 
 1.00000e+00 
 1.00000e+00 
 1.00000e+00 
       00001 
 1.00000e+00 
       00001 
 1.00000e+00 
 1.00000e+00 
 1.00000e+00 
 1.00000e+00 
 1.00000e+00 
 1.00000e+00 
 1.00000e+00 
 1.00000e+00 
 1.00000e+00 
 1.00000e+00 
 1.00000e+00 
 1.00000e+00 
 1.00000e+00 
       00001 
 1.00000e+00 
       00001 
 1.00000e+00 
 1.00000e+00 
 1.00000e+00 
 1.00000e+00 
       00001 
 1.00000e+00 
 1.00000e+00 
 1.00000e+00 
 1.00000e+00 
 1.00000e+00 
 1.00000e+00 
 1.00000e+00 
 1.00000e+00 
 1.00000e+00 
 1.00000e+00 
 1.00000e+00 
 1.00000e+00 
       00001 
 1.00000e+00 
 1.00000e+00 
 1.00000e+00 
 1.00000e+00 
       00001 
 1.00000e+00 
 1.00000e+00 
 1.00000e+00 
 1.00000e+00 
 1.00000e+00 
 1.00000e+00 
 1.00000e+00 
       00001 
 1.00000e+00 
 1.00000e+00 
 1.00000e+00 
 1.00000e+00 
 1.00000e+00 
 1.00000e+00 
 1.00000e+00 
 1.00000e+00 
 1.00000e+00 
       00001 
 1.00000e+00 
 1.00000e+00 
 1.00000e+00 
 1.00000e+00 
 1.00000e+00 
 1.00000e+00 
 1.00000e+00 
 1.00000e+00 
 1.00000e+00 
 1.00000e+00 
 1.00000e+00 
 1.00000e+00 
 1.00000e+00 
 1.00000e+00 
 1.00000e+00 
 1.00000e+00 
 1.00000e+00 
 1.00000e+00 
 1.00000e+00 
 1.00000e+00 
 1.00000e+00 
 1.00000e+00 
 1.00000e+00 
 1.00000e+00 
 1.00000e+00 
 1.00000e+00 
 1.00000e+00 
 1.00000e+00 
 1.00000e+00 
 1.00000e+00 
 1.00000e+00 
 1.00000e+00 
 1.00000e+00 
 1.00000e+00 
 1.00000e+00 
 1.00000e+00 
 1.00000e+00 
 1.00000e+00 
 1.00000e+00 
 1.00000e+00 
 1.00000e+00 
       00001 
 1.00000e+00 
 1.00000e+00 
 1.00000e+00 
 1.00000e+00 
 1.00000e+00 
 1.00000e+00 
 1.00000e+00 
 1.00000e+00 
 1.00000e+00 
 1.00000e+00 
 1.00000e+00 
 1.00000e+00 
 1.00000e+00 
 1.00000e+00 
 1.00000e+00 
 1.00000e+00 
 1.00000e+00 
 1.00000e+00 
 1.00000e+00 
 1.00000e+00 
 1.00000e+00 
 1.00000e+00 
 1.00000e+00 
 1.00000e+00 
 1.00000e+00 
 1.00000e+00 
 1.00000e+00 
 1.00000e+00 
 1.00000e+00 
       00001 
 1.00000e+00 
 1.00000e+00 
 1.00000e+00 
 1.00000e+00 
       00001 
 1.00000e+00 
 1.00000e+00 
       00001 
       00001 
 1.00000e+00 
 1.00000e+00 
 1.00000e+00 
 1.00000e+00 
 1.00000e+00 
 1.00000e+00 
 1.00000e+00 
 1.00000e+00 
 1.00000e+00 
       00001 
       00001 
 1.00000e+00 
 1.00000e+00 
       00001 
 1.00000e+00 
 1.00000e+00 
       00001 
 1.00000e+00 
 1.00000e+00 
 1.00000e+00 
 1.00000e+00 
 1.00000e+00 
 1.00000e+00 
 1.00000e+00 
 1.00000e+00 
 1.00000e+00 
 1.00000e+00 
 1.00000e+00 
       00001 
 1.00000e+00 
 1.00000e+00 
 1.00000e+00 
 1.00000e+00 
 1.00000e+00 
       00001 
 1.00000e+00 
 1.00000e+00 
 1.00000e+00 
 1.00000e+00 
 1.00000e+00 
       00001 
 1.00000e+00 
 1.00000e+00 
 1.00000e+00 
 1.00000e+00 
 1.00000e+00 
       00001 
 1.00000e+00 
 1.00000e+00 
       00001 
 1.00000e+00 
 1.00000e+00 
 1.00000e+00 
 1.00000e+00 
 1.00000e+00 
 1.00000e+00 
 1.00000e+00 
 1.00000e+00 
 1.00000e+00 
 1.00000e+00 
 1.00000e+00 
 1.00000e+00 
       00001 
 1.00000e+00 
 1.00000e+00 
 1.00000e+00 
 1.00000e+00 
 1.00000e+00 
 1.00000e+00 
 1.00000e+00 
 1.00000e+00 
 1.00000e+00 
 1.00000e+00 
 1.00000e+00 
 1.00000e+00 
       00001 
       00001 
       00001 
       00001 
       00001 
 1.00000e+00 
 1.00000e+00 
 1.00000e+00 
 1.00000e+00 
 1.00000e+00 
 1.00000e+00 
 1.00000e+00 
 1.00000e+00 
 1.00000e+00 
 1.00000e+00 
       00001 
 1.00000e+00 
 1.00000e+00 
 1.00000e+00 
 1.00000e+00 
 1.00000e+00 
 1.00000e+00 
 1.00000e+00 
 1.00000e+00 
 1.00000e+00 
 1.00000e+00 
 1.00000e+00 
 1.00000e+00 
 1.00000e+00 
 1.00000e+00 
 1.00000e+00 
 1.00000e+00 
 1.00000e+00 
 1.00000e+00 
 1.00000e+00 
 1.00000e+00 
 1.00000e+00 
 1.00000e+00 
 1.00000e+00 
 1.00000e+00 
 1.00000e+00 
 1.00000e+00 
 1.00000e+00 
 1.00000e+00 
 1.00000e+00 
 1.00000e+00 
 1.00000e+00 
 1.00000e+00 
 1.00000e+00 
 1.00000e+00 
 1.00000e+00 
 1.00000e+00 
 1.00000e+00 
 1.00000e+00 
 1.00000e+00 
 1.00000e+00 
 1.00000e+00 
       00001 
 1.00000e+00 
 1.00000e+00 
       00001 
 1.00000e+00 
 1.00000e+00 
 1.00000e+00 
 1.00000e+00 
 1.00000e+00 
 1.00000e+00 
 1.00000e+00 
       00001 
 1.00000e+00 
 1.00000e+00 
 1.00000e+00 
 1.00000e+00 
       00001 
 1.00000e+00 
 1.00000e+00 
 1.00000e+00 
 1.00000e+00 
 1.00000e+00 
 1.00000e+00 
 1.00000e+00 
       00001 
 1.00000e+00 
 1.00000e+00 
 1.00000e+00 
 1.00000e+00 
 1.00000e+00 
 1.00000e+00 
 1.00000e+00 
 1.00000e+00 
 1.00000e+00 
       00001 
 1.00000e+00 
 1.00000e+00 
       00001 
 1.00000e+00 
 1.00000e+00 
 1.00000e+00 
 1.00000e+00 
       00001 
 1.00000e+00 
 1.00000e+00 
 1.00000e+00 
 1.00000e+00 
 1.00000e+00 
 1.00000e+00 
       00001 
 1.00000e+00 
 1.00000e+00 
 1.00000e+00 
 1.00000e+00 
 1.00000e+00 
 1.00000e+00 
 1.00000e+00 
 1.00000e+00 
 1.00000e+00 
       00001 
 1.00000e+00 
 1.00000e+00 
       00001 
 1.00000e+00 
 1.00000e+00 
 1.00000e+00 
 1.00000e+00 
 1.00000e+00 
 1.00000e+00 
       00001 
 1.00000e+00 
 1.00000e+00 
       00001 
 1.00000e+00 
 1.00000e+00 
 1.00000e+00 
       00001 
 1.00000e+00 
 1.00000e+00 
 1.00000e+00 
 1.00000e+00 
 1.00000e+00 
 1.00000e+00 
 1.00000e+00 
       00001 
 1.00000e+00 
       00001 
 1.00000e+00 
 1.00000e+00 
 1.00000e+00 
 1.00000e+00 
 1.00000e+00 
 1.00000e+00 
 1.00000e+00 
 1.00000e+00 
 1.00000e+00 
 1.00000e+00 
 1.00000e+00 
       00001 
       00001 
 1.00000e+00 
 1.00000e+00 
 1.00000e+00 
 1.00000e+00 
 1.00000e+00 
 1.00000e+00 
       00001 
 1.00000e+00 
 1.00000e+00 
 1.00000e+00 
 1.00000e+00 
       00001 
 1.00000e+00 
 1.00000e+00 
 1.00000e+00 
 1.00000e+00 
 1.00000e+00 
 1.00000e+00 
 1.00000e+00 
 1.00000e+00 
 1.00000e+00 
 1.00000e+00 
 1.00000e+00 
 1.00000e+00 
 1.00000e+00 
       00001 
 1.00000e+00 
 1.00000e+00 
 1.00000e+00 
 1.00000e+00 
       00001 
 1.00000e+00 
 1.00000e+00 
 1.00000e+00 
 1.00000e+00 
 1.00000e+00 
 1.00000e+00 
 1.00000e+00 
 1.00000e+00 
 1.00000e+00 
 1.00000e+00 
 1.00000e+00 
       00001 
       00001 
       00001 
 1.00000e+00 
       00001 
 1.00000e+00 
 1.00000e+00 
 1.00000e+00 
 1.00000e+00 
 1.00000e+00 
 1.00000e+00 
 1.00000e+00 
       00001 
 1.00000e+00 
 1.00000e+00 
 1.00000e+00 
       00001 
 1.00000e+00 
 1.00000e+00 
 1.00000e+00 
 1.00000e+00 
       00001 
       00001 
 1.00000e+00 
       00001 
 1.00000e+00 
 1.00000e+00 
 1.00000e+00 
 1.00000e+00 
 1.00000e+00 
 1.00000e+00 
       00001 
 1.00000e+00 
 1.00000e+00 
 1.00000e+00 
 1.00000e+00 
 1.00000e+00 
 1.00000e+00 
       00001 
 1.00000e+00 
 1.00000e+00 
 1.00000e+00 
 1.00000e+00 
 1.00000e+00 
 1.00000e+00 
 1.00000e+00 
 1.00000e+00 
 1.00000e+00 
 1.00000e+00 
 1.00000e+00 
 1.00000e+00 
       00001 
       00001 
       00001 
 1.00000e+00 
 1.00000e+00 
 1.00000e+00 
 1.00000e+00 
 1.00000e+00 
 1.00000e+00 
       00001 
 1.00000e+00 
 1.00000e+00 
       00001 
 1.00000e+00 
 1.00000e+00 
 1.00000e+00 
 1.00000e+00 
       00001 
 1.00000e+00 
 1.00000e+00 
 1.00000e+00 
 1.00000e+00 
 1.00000e+00 
       00001 
 1.00000e+00 
 1.00000e+00 
       00001 
       00001 
 1.00000e+00 
 1.00000e+00 
       00001 
 1.00000e+00 
 1.00000e+00 
       00001 
 1.00000e+00 
 1.00000e+00 
 1.00000e+00 
 1.00000e+00 
 1.00000e+00 
 1.00000e+00 
 1.00000e+00 
 1.00000e+00 
 1.00000e+00 
 1.00000e+00 
 1.00000e+00 
 1.00000e+00 
 1.00000e+00 
       00001 
 1.00000e+00 
 1.00000e+00 
 1.00000e+00 
 1.00000e+00 
 1.00000e+00 
 1.00000e+00 
 1.00000e+00 
 1.00000e+00 
 1.00000e+00 
 1.00000e+00 
 1.00000e+00 
 1.00000e+00 
 1.00000e+00 
 1.00000e+00 
 1.00000e+00 
 1.00000e+00 
       00001 
 1.00000e+00 
 1.00000e+00 
       00001 
 1.00000e+00 
 1.00000e+00 
 1.00000e+00 
 1.00000e+00 
       00001 
       00001 
 1.00000e+00 
       00001 
 1.00000e+00 
 1.00000e+00 
 1.00000e+00 
 1.00000e+00 
 1.00000e+00 
 1.00000e+00 
 1.00000e+00 
 1.00000e+00 
 1.00000e+00 
       00001 
       00001 
 1.00000e+00 
 1.00000e+00 
 1.00000e+00 
 1.00000e+00 
 1.00000e+00 
 1.00000e+00 
 1.00000e+00 
 1.00000e+00 
 1.00000e+00 
 1.00000e+00 
 1.00000e+00 
 1.00000e+00 
 1.00000e+00 
 1.00000e+00 
 1.00000e+00 
 1.00000e+00 
 1.00000e+00 
 1.00000e+00 
 1.00000e+00 
 1.00000e+00 
 1.00000e+00 
 1.00000e+00 
 1.00000e+00 
 1.00000e+00 
 1.00000e+00 
 1.00000e+00 
 1.00000e+00 
 1.00000e+00 
 1.00000e+00 
 1.00000e+00 
       00001 
 1.00000e+00 
 1.00000e+00 
 1.00000e+00 
 1.00000e+00 
 1.00000e+00 
 1.00000e+00 
       00001 
 1.00000e+00 
 1.00000e+00 
 1.00000e+00 
 1.00000e+00 
 1.00000e+00 
 1.00000e+00 
 1.00000e+00 
 1.00000e+00 
 1.00000e+00 
 1.00000e+00 
 1.00000e+00 
 1.00000e+00 
 1.00000e+00 
 1.00000e+00 
 1.00000e+00 
 1.00000e+00 
 1.00000e+00 
 1.00000e+00 
       00001 
 1.00000e+00 
 1.00000e+00 
 1.00000e+00 
       00001 
 1.00000e+00 
 1.00000e+00 
 1.00000e+00 
 1.00000e+00 
       00001 
 1.00000e+00 
 1.00000e+00 
 1.00000e+00 
 1.00000e+00 
 1.00000e+00 
 1.00000e+00 
 1.00000e+00 
 1.00000e+00 
 1.00000e+00 
 1.00000e+00 
 1.00000e+00 
 1.00000e+00 
 1.00000e+00 
 1.00000e+00 
       00001 
 1.00000e+00 
 1.00000e+00 
 1.00000e+00 
 1.00000e+00 
 1.00000e+00 
 1.00000e+00 
       00001 
 1.00000e+00 
 1.00000e+00 
 1.00000e+00 
 1.00000e+00 
       00001 
 1.00000e+00 
 1.00000e+00 
 1.00000e+00 
 1.00000e+00 
 1.00000e+00 
 1.00000e+00 
 1.00000e+00 
 1.00000e+00 
 1.00000e+00 
 1.00000e+00 
 1.00000e+00 
       00001 
 1.00000e+00 
 1.00000e+00 
 1.00000e+00 
 1.00000e+00 
       00001 
 1.00000e+00 
 1.00000e+00 
 1.00000e+00 
 1.00000e+00 
 1.00000e+00 
 1.00000e+00 
       00001 
 1.00000e+00 
 1.00000e+00 
 1.00000e+00 
 1.00000e+00 
 1.00000e+00 
 1.00000e+00 
 1.00000e+00 
 1.00000e+00 
 1.00000e+00 
 1.00000e+00 
 1.00000e+00 
 1.00000e+00 
       00001 
       00001 
 1.00000e+00 
       00001 
 1.00000e+00 
 1.00000e+00 
 1.00000e+00 
 1.00000e+00 
 1.00000e+00 
 1.00000e+00 
       00001 
 1.00000e+00 
       00001 
 1.00000e+00 
 1.00000e+00 
 1.00000e+00 
       00001 
 1.00000e+00 
 1.00000e+00 
 1.00000e+00 
 1.00000e+00 
 1.00000e+00 
 1.00000e+00 
 1.00000e+00 
 1.00000e+00 
 1.00000e+00 
 1.00000e+00 
 1.00000e+00 
 1.00000e+00 
 1.00000e+00 
 1.00000e+00 
 1.00000e+00 
 1.00000e+00 
 1.00000e+00 
 1.00000e+00 
 1.00000e+00 
 1.00000e+00 
 1.00000e+00 
 1.00000e+00 
 1.00000e+00 
 1.00000e+00 
 1.00000e+00 
 1.00000e+00 
       00001 
 1.00000e+00 
 1.00000e+00 
 1.00000e+00 
 1.00000e+00 
 1.00000e+00 
 1.00000e+00 
 1.00000e+00 
 1.00000e+00 
 1.00000e+00 
 1.00000e+00 
 1.00000e+00 
 1.00000e+00 
 1.00000e+00 
 1.00000e+00 
 1.00000e+00 
 1.00000e+00 
 1.00000e+00 
 1.00000e+00 
 1.00000e+00 
 1.00000e+00 
 1.00000e+00 
 1.00000e+00 
 1.00000e+00 
       00001 
 1.00000e+00 
 1.00000e+00 
 1.00000e+00 
 1.00000e+00 
 1.00000e+00 
 1.00000e+00 
 1.00000e+00 
 1.00000e+00 
 1.00000e+00 
 1.00000e+00 
 1.00000e+00 
 1.00000e+00 
 1.00000e+00 
 1.00000e+00 
 1.00000e+00 
 1.00000e+00 
 1.00000e+00 
 1.00000e+00 
 1.00000e+00 
 1.00000e+00 
       00001 
 1.00000e+00 
 1.00000e+00 
 1.00000e+00 
 1.00000e+00 
 1.00000e+00 
 1.00000e+00 
 1.00000e+00 
       00001 
       00001 
 1.00000e+00 
       00001 
 1.00000e+00 
 1.00000e+00 
       00001 
 1.00000e+00 
 1.00000e+00 
 1.00000e+00 
 1.00000e+00 
 1.00000e+00 
 1.00000e+00 
 1.00000e+00 
 1.00000e+00 
 1.00000e+00 
 1.00000e+00 
 1.00000e+00 
 1.00000e+00 
 1.00000e+00 
 1.00000e+00 
 1.00000e+00 
 1.00000e+00 
 1.00000e+00 
 1.00000e+00 
 1.00000e+00 
 1.00000e+00 
 1.00000e+00 
 1.00000e+00 
 1.00000e+00 
 1.00000e+00 
       00001 
 1.00000e+00 
       00001 
 1.00000e+00 
 1.00000e+00 
 1.00000e+00 
 1.00000e+00 
 1.00000e+00 
 1.00000e+00 
 1.00000e+00 
 1.00000e+00 
 1.00000e+00 
 1.00000e+00 
       00001 
 1.00000e+00 
 1.00000e+00 
 1.00000e+00 
 1.00000e+00 
 1.00000e+00 
 1.00000e+00 
 1.00000e+00 
 1.00000e+00 
 1.00000e+00 
 1.00000e+00 
 1.00000e+00 
 1.00000e+00 
 1.00000e+00 
       00001 
 1.00000e+00 
 1.00000e+00 
 1.00000e+00 
 1.00000e+00 
 1.00000e+00 
 1.00000e+00 
 1.00000e+00 
 1.00000e+00 
 1.00000e+00 
       00001 
 1.00000e+00 
 1.00000e+00 
 1.00000e+00 
 1.00000e+00 
 1.00000e+00 
       00001 
 1.00000e+00 
 1.00000e+00 
 1.00000e+00 
 1.00000e+00 
 1.00000e+00 
       00001 
 1.00000e+00 
 1.00000e+00 
 1.00000e+00 
 1.00000e+00 
 1.00000e+00 
 1.00000e+00 
 1.00000e+00 
       00001 
 1.00000e+00 
 1.00000e+00 
 1.00000e+00 
       00001 
 1.00000e+00 
 1.00000e+00 
       00001 
 1.00000e+00 
 1.00000e+00 
       00001 
 1.00000e+00 
 1.00000e+00 
 1.00000e+00 
 1.00000e+00 
 1.00000e+00 
 1.00000e+00 
       00001 
 1.00000e+00 
       00001 
 1.00000e+00 
 1.00000e+00 
 1.00000e+00 
 1.00000e+00 
 1.00000e+00 
 1.00000e+00 
 1.00000e+00 
 1.00000e+00 
       00001 
 1.00000e+00 
 1.00000e+00 
 1.00000e+00 
 1.00000e+00 
 1.00000e+00 
 1.00000e+00 
 1.00000e+00 
 1.00000e+00 
 1.00000e+00 
 1.00000e+00 
 1.00000e+00 
 1.00000e+00 
       00001 
 1.00000e+00 
 1.00000e+00 
 1.00000e+00 
 1.00000e+00 
 1.00000e+00 
       00001 
 1.00000e+00 
 1.00000e+00 
 1.00000e+00 
 1.00000e+00 
 1.00000e+00 
 1.00000e+00 
       00001 
 1.00000e+00 
 1.00000e+00 
       00001 
 1.00000e+00 
 1.00000e+00 
 1.00000e+00 
 1.00000e+00 
 1.00000e+00 
 1.00000e+00 
 1.00000e+00 
 1.00000e+00 
 1.00000e+00 
       00001 
 1.00000e+00 
       00001 
 1.00000e+00 
 1.00000e+00 
       00001 
 1.00000e+00 
 1.00000e+00 
 1.00000e+00 
 1.00000e+00 
 1.00000e+00 
 1.00000e+00 
 1.00000e+00 
 1.00000e+00 
       00001 
 1.00000e+00 
 1.00000e+00 
 1.00000e+00 
 1.00000e+00 
 1.00000e+00 
 1.00000e+00 
 1.00000e+00 
 1.00000e+00 
 1.00000e+00 
 1.00000e+00 
 1.00000e+00 
 1.00000e+00 
 1.00000e+00 
 1.00000e+00 
 1.00000e+00 
 1.00000e+00 
 1.00000e+00 
 1.00000e+00 
 1.00000e+00 
 1.00000e+00 
 1.00000e+00 
       00001 
 1.00000e+00 
       00001 
 1.00000e+00 
 1.00000e+00 
 1.00000e+00 
 1.00000e+00 
 1.00000e+00 
 1.00000e+00 
       00001 
 1.00000e+00 
 1.00000e+00 
 1.00000e+00 
 1.00000e+00 
 1.00000e+00 
 1.00000e+00 
 1.00000e+00 
 1.00000e+00 
 1.00000e+00 
 1.00000e+00 
 1.00000e+00 
 1.00000e+00 
 1.00000e+00 
 1.00000e+00 
 1.00000e+00 