<?xml version="1.0" encoding="utf-8"?>
<VTKFile byte_order="LittleEndian" type="UnstructuredGrid" version="0.1">
   <UnstructuredGrid>
      <Piece NumberOfCells="19404" NumberOfPoints="9851">
         <Points>
            <DataArray Name="Points" NumberOfComponents="3" format="ascii" type="Float32">
0.0000 0.0000 0.0000
0.0000 0.0204 0.0000
0.0000 0.0408 0.0000
0.0000 0.0612 0.0000
0.0000 0.0816 0.0000
0.0000 0.1020 0.0000
0.0000 0.1224 0.0000
0.0000 0.1429 0.0000
0.0000 0.1633 0.0000
0.0000 0.1837 0.0000
0.0000 0.2041 0.0000
0.0000 0.2245 0.0000
0.0000 0.2449 0.0000
0.0000 0.2653 0.0000
0.0000 0.2857 0.0000
0.0000 0.3061 0.0000
0.0000 0.3265 0.0000
0.0000 0.3469 0.0000
0.0000 0.3673 0.0000
0.0000 0.3878 0.0000
0.0000 0.4082 0.0000
0.0000 0.4286 0.0000
0.0000 0.4490 0.0000
0.0000 0.4694 0.0000
0.0000 0.4898 0.0000
0.0000 0.5102 0.0000
0.0000 0.5306 0.0000
0.0000 0.5510 0.0000
0.0000 0.5714 0.0000
0.0000 0.5918 0.0000
0.0000 0.6122 0.0000
0.0000 0.6327 0.0000
0.0000 0.6531 0.0000
0.0000 0.6735 0.0000
0.0000 0.6939 0.0000
0.0000 0.7143 0.0000
0.0000 0.7347 0.0000
0.0000 0.7551 0.0000
0.0000 0.7755 0.0000
0.0000 0.7959 0.0000
0.0000 0.8163 0.0000
0.0000 0.8367 0.0000
0.0000 0.8571 0.0000
0.0000 0.8776 0.0000
0.0000 0.8980 0.0000
0.0000 0.9184 0.0000
0.0000 0.9388 0.0000
0.0000 0.9592 0.0000
0.0000 0.9796 0.0000
0.0000 1.0000 0.0000
0.0202 0.0000 0.0000
0.0202 0.0204 0.0000
0.0202 0.0408 0.0000
0.0202 0.0612 0.0000
0.0202 0.0816 0.0000
0.0202 0.1020 0.0000
0.0202 0.1224 0.0000
0.0202 0.1429 0.0000
0.0202 0.1633 0.0000
0.0202 0.1837 0.0000
0.0202 0.2041 0.0000
0.0202 0.2245 0.0000
0.0202 0.2449 0.0000
0.0202 0.2653 0.0000
0.0202 0.2857 0.0000
0.0202 0.3061 0.0000
0.0202 0.3265 0.0000
0.0202 0.3469 0.0000
0.0202 0.3673 0.0000
0.0202 0.3878 0.0000
0.0202 0.4082 0.0000
0.0202 0.4286 0.0000
0.0202 0.4490 0.0000
0.0202 0.4694 0.0000
0.0202 0.4898 0.0000
0.0202 0.5102 0.0000
0.0202 0.5306 0.0000
0.0202 0.5510 0.0000
0.0202 0.5714 0.0000
0.0202 0.5918 0.0000
0.0202 0.6122 0.0000
0.0202 0.6327 0.0000
0.0202 0.6531 0.0000
0.0202 0.6735 0.0000
0.0202 0.6939 0.0000
0.0202 0.7143 0.0000
0.0202 0.7347 0.0000
0.0202 0.7551 0.0000
0.0202 0.7755 0.0000
0.0202 0.7959 0.0000
0.0202 0.8163 0.0000
0.0202 0.8367 0.0000
0.0202 0.8571 0.0000
0.0202 0.8776 0.0000
0.0202 0.8980 0.0000
0.0202 0.9184 0.0000
0.0202 0.9388 0.0000
0.0202 0.9592 0.0000
0.0202 0.9796 0.0000
0.0202 1.0000 0.0000
0.0404 0.0000 0.0000
0.0404 0.0204 0.0000
0.0404 0.0408 0.0000
0.0404 0.0612 0.0000
0.0404 0.0816 0.0000
0.0404 0.1020 0.0000
0.0404 0.1224 0.0000
0.0404 0.1429 0.0000
0.0404 0.1633 0.0000
0.0404 0.1837 0.0000
0.0404 0.2041 0.0000
0.0404 0.2245 0.0000
0.0404 0.2449 0.0000
0.0404 0.2653 0.0000
0.0404 0.2857 0.0000
0.0404 0.3061 0.0000
0.0404 0.3265 0.0000
0.0404 0.3469 0.0000
0.0404 0.3673 0.0000
0.0404 0.3878 0.0000
0.0404 0.4082 0.0000
0.0404 0.4286 0.0000
0.0404 0.4490 0.0000
0.0404 0.4694 0.0000
0.0404 0.4898 0.0000
0.0404 0.5102 0.0000
0.0404 0.5306 0.0000
0.0404 0.5510 0.0000
0.0404 0.5714 0.0000
0.0404 0.5918 0.0000
0.0404 0.6122 0.0000
0.0404 0.6327 0.0000
0.0404 0.6531 0.0000
0.0404 0.6735 0.0000
0.0404 0.6939 0.0000
0.0404 0.7143 0.0000
0.0404 0.7347 0.0000
0.0404 0.7551 0.0000
0.0404 0.7755 0.0000
0.0404 0.7959 0.0000
0.0404 0.8163 0.0000
0.0404 0.8367 0.0000
0.0404 0.8571 0.0000
0.0404 0.8776 0.0000
0.0404 0.8980 0.0000
0.0404 0.9184 0.0000
0.0404 0.9388 0.0000
0.0404 0.9592 0.0000
0.0404 0.9796 0.0000
0.0404 1.0000 0.0000
0.0606 0.0000 0.0000
0.0606 0.0204 0.0000
0.0606 0.0408 0.0000
0.0606 0.0612 0.0000
0.0606 0.0816 0.0000
0.0606 0.1020 0.0000
0.0606 0.1224 0.0000
0.0606 0.1429 0.0000
0.0606 0.1633 0.0000
0.0606 0.1837 0.0000
0.0606 0.2041 0.0000
0.0606 0.2245 0.0000
0.0606 0.2449 0.0000
0.0606 0.2653 0.0000
0.0606 0.2857 0.0000
0.0606 0.3061 0.0000
0.0606 0.3265 0.0000
0.0606 0.3469 0.0000
0.0606 0.3673 0.0000
0.0606 0.3878 0.0000
0.0606 0.4082 0.0000
0.0606 0.4286 0.0000
0.0606 0.4490 0.0000
0.0606 0.4694 0.0000
0.0606 0.4898 0.0000
0.0606 0.5102 0.0000
0.0606 0.5306 0.0000
0.0606 0.5510 0.0000
0.0606 0.5714 0.0000
0.0606 0.5918 0.0000
0.0606 0.6122 0.0000
0.0606 0.6327 0.0000
0.0606 0.6531 0.0000
0.0606 0.6735 0.0000
0.0606 0.6939 0.0000
0.0606 0.7143 0.0000
0.0606 0.7347 0.0000
0.0606 0.7551 0.0000
0.0606 0.7755 0.0000
0.0606 0.7959 0.0000
0.0606 0.8163 0.0000
0.0606 0.8367 0.0000
0.0606 0.8571 0.0000
0.0606 0.8776 0.0000
0.0606 0.8980 0.0000
0.0606 0.9184 0.0000
0.0606 0.9388 0.0000
0.0606 0.9592 0.0000
0.0606 0.9796 0.0000
0.0606 1.0000 0.0000
0.0808 0.0000 0.0000
0.0808 0.0204 0.0000
0.0808 0.0408 0.0000
0.0808 0.0612 0.0000
0.0808 0.0816 0.0000
0.0808 0.1020 0.0000
0.0808 0.1224 0.0000
0.0808 0.1429 0.0000
0.0808 0.1633 0.0000
0.0808 0.1837 0.0000
0.0808 0.2041 0.0000
0.0808 0.2245 0.0000
0.0808 0.2449 0.0000
0.0808 0.2653 0.0000
0.0808 0.2857 0.0000
0.0808 0.3061 0.0000
0.0808 0.3265 0.0000
0.0808 0.3469 0.0000
0.0808 0.3673 0.0000
0.0808 0.3878 0.0000
0.0808 0.4082 0.0000
0.0808 0.4286 0.0000
0.0808 0.4490 0.0000
0.0808 0.4694 0.0000
0.0808 0.4898 0.0000
0.0808 0.5102 0.0000
0.0808 0.5306 0.0000
0.0808 0.5510 0.0000
0.0808 0.5714 0.0000
0.0808 0.5918 0.0000
0.0808 0.6122 0.0000
0.0808 0.6327 0.0000
0.0808 0.6531 0.0000
0.0808 0.6735 0.0000
0.0808 0.6939 0.0000
0.0808 0.7143 0.0000
0.0808 0.7347 0.0000
0.0808 0.7551 0.0000
0.0808 0.7755 0.0000
0.0808 0.7959 0.0000
0.0808 0.8163 0.0000
0.0808 0.8367 0.0000
0.0808 0.8571 0.0000
0.0808 0.8776 0.0000
0.0808 0.8980 0.0000
0.0808 0.9184 0.0000
0.0808 0.9388 0.0000
0.0808 0.9592 0.0000
0.0808 0.9796 0.0000
0.0808 1.0000 0.0000
0.1010 0.0000 0.0000
0.1010 0.0204 0.0000
0.1010 0.0408 0.0000
0.1010 0.0612 0.0000
0.1010 0.0816 0.0000
0.1010 0.1020 0.0000
0.1010 0.1224 0.0000
0.1010 0.1429 0.0000
0.1010 0.1633 0.0000
0.1010 0.1837 0.0000
0.1010 0.2041 0.0000
0.1010 0.2245 0.0000
0.1010 0.2449 0.0000
0.1010 0.2653 0.0000
0.1010 0.2857 0.0000
0.1010 0.3061 0.0000
0.1010 0.3265 0.0000
0.1010 0.3469 0.0000
0.1010 0.3673 0.0000
0.1010 0.3878 0.0000
0.1010 0.4082 0.0000
0.1010 0.4286 0.0000
0.1010 0.4490 0.0000
0.1010 0.4694 0.0000
0.1010 0.4898 0.0000
0.1010 0.5102 0.0000
0.1010 0.5306 0.0000
0.1010 0.5510 0.0000
0.1010 0.5714 0.0000
0.1010 0.5918 0.0000
0.1010 0.6122 0.0000
0.1010 0.6327 0.0000
0.1010 0.6531 0.0000
0.1010 0.6735 0.0000
0.1010 0.6939 0.0000
0.1010 0.7143 0.0000
0.1010 0.7347 0.0000
0.1010 0.7551 0.0000
0.1010 0.7755 0.0000
0.1010 0.7959 0.0000
0.1010 0.8163 0.0000
0.1010 0.8367 0.0000
0.1010 0.8571 0.0000
0.1010 0.8776 0.0000
0.1010 0.8980 0.0000
0.1010 0.9184 0.0000
0.1010 0.9388 0.0000
0.1010 0.9592 0.0000
0.1010 0.9796 0.0000
0.1010 1.0000 0.0000
0.1212 0.0000 0.0000
0.1212 0.0204 0.0000
0.1212 0.0408 0.0000
0.1212 0.0612 0.0000
0.1212 0.0816 0.0000
0.1212 0.1020 0.0000
0.1212 0.1224 0.0000
0.1212 0.1429 0.0000
0.1212 0.1633 0.0000
0.1212 0.1837 0.0000
0.1212 0.2041 0.0000
0.1212 0.2245 0.0000
0.1212 0.2449 0.0000
0.1212 0.2653 0.0000
0.1212 0.2857 0.0000
0.1212 0.3061 0.0000
0.1212 0.3265 0.0000
0.1212 0.3469 0.0000
0.1212 0.3673 0.0000
0.1212 0.3878 0.0000
0.1212 0.4082 0.0000
0.1212 0.4286 0.0000
0.1212 0.4490 0.0000
0.1212 0.4694 0.0000
0.1212 0.4898 0.0000
0.1212 0.5102 0.0000
0.1212 0.5306 0.0000
0.1212 0.5510 0.0000
0.1212 0.5714 0.0000
0.1212 0.5918 0.0000
0.1212 0.6122 0.0000
0.1212 0.6327 0.0000
0.1212 0.6531 0.0000
0.1212 0.6735 0.0000
0.1212 0.6939 0.0000
0.1212 0.7143 0.0000
0.1212 0.7347 0.0000
0.1212 0.7551 0.0000
0.1212 0.7755 0.0000
0.1212 0.7959 0.0000
0.1212 0.8163 0.0000
0.1212 0.8367 0.0000
0.1212 0.8571 0.0000
0.1212 0.8776 0.0000
0.1212 0.8980 0.0000
0.1212 0.9184 0.0000
0.1212 0.9388 0.0000
0.1212 0.9592 0.0000
0.1212 0.9796 0.0000
0.1212 1.0000 0.0000
0.1414 0.0000 0.0000
0.1414 0.0204 0.0000
0.1414 0.0408 0.0000
0.1414 0.0612 0.0000
0.1414 0.0816 0.0000
0.1414 0.1020 0.0000
0.1414 0.1224 0.0000
0.1414 0.1429 0.0000
0.1414 0.1633 0.0000
0.1414 0.1837 0.0000
0.1414 0.2041 0.0000
0.1414 0.2245 0.0000
0.1414 0.2449 0.0000
0.1414 0.2653 0.0000
0.1414 0.2857 0.0000
0.1414 0.3061 0.0000
0.1414 0.3265 0.0000
0.1414 0.3469 0.0000
0.1414 0.3673 0.0000
0.1414 0.3878 0.0000
0.1414 0.4082 0.0000
0.1414 0.4286 0.0000
0.1414 0.4490 0.0000
0.1414 0.4694 0.0000
0.1414 0.4898 0.0000
0.1414 0.5102 0.0000
0.1414 0.5306 0.0000
0.1414 0.5510 0.0000
0.1414 0.5714 0.0000
0.1414 0.5918 0.0000
0.1414 0.6122 0.0000
0.1414 0.6327 0.0000
0.1414 0.6531 0.0000
0.1414 0.6735 0.0000
0.1414 0.6939 0.0000
0.1414 0.7143 0.0000
0.1414 0.7347 0.0000
0.1414 0.7551 0.0000
0.1414 0.7755 0.0000
0.1414 0.7959 0.0000
0.1414 0.8163 0.0000
0.1414 0.8367 0.0000
0.1414 0.8571 0.0000
0.1414 0.8776 0.0000
0.1414 0.8980 0.0000
0.1414 0.9184 0.0000
0.1414 0.9388 0.0000
0.1414 0.9592 0.0000
0.1414 0.9796 0.0000
0.1414 1.0000 0.0000
0.1616 0.0000 0.0000
0.1616 0.0204 0.0000
0.1616 0.0408 0.0000
0.1616 0.0612 0.0000
0.1616 0.0816 0.0000
0.1616 0.1020 0.0000
0.1616 0.1224 0.0000
0.1616 0.1429 0.0000
0.1616 0.1633 0.0000
0.1616 0.1837 0.0000
0.1616 0.2041 0.0000
0.1616 0.2245 0.0000
0.1616 0.2449 0.0000
0.1616 0.2653 0.0000
0.1616 0.2857 0.0000
0.1616 0.3061 0.0000
0.1616 0.3265 0.0000
0.1616 0.3469 0.0000
0.1616 0.3673 0.0000
0.1616 0.3878 0.0000
0.1616 0.4082 0.0000
0.1616 0.4286 0.0000
0.1616 0.4490 0.0000
0.1616 0.4694 0.0000
0.1616 0.4898 0.0000
0.1616 0.5102 0.0000
0.1616 0.5306 0.0000
0.1616 0.5510 0.0000
0.1616 0.5714 0.0000
0.1616 0.5918 0.0000
0.1616 0.6122 0.0000
0.1616 0.6327 0.0000
0.1616 0.6531 0.0000
0.1616 0.6735 0.0000
0.1616 0.6939 0.0000
0.1616 0.7143 0.0000
0.1616 0.7347 0.0000
0.1616 0.7551 0.0000
0.1616 0.7755 0.0000
0.1616 0.7959 0.0000
0.1616 0.8163 0.0000
0.1616 0.8367 0.0000
0.1616 0.8571 0.0000
0.1616 0.8776 0.0000
0.1616 0.8980 0.0000
0.1616 0.9184 0.0000
0.1616 0.9388 0.0000
0.1616 0.9592 0.0000
0.1616 0.9796 0.0000
0.1616 1.0000 0.0000
0.1818 0.0000 0.0000
0.1818 0.0204 0.0000
0.1818 0.0408 0.0000
0.1818 0.0612 0.0000
0.1818 0.0816 0.0000
0.1818 0.1020 0.0000
0.1818 0.1224 0.0000
0.1818 0.1429 0.0000
0.1818 0.1633 0.0000
0.1818 0.1837 0.0000
0.1818 0.2041 0.0000
[...]
         <PointData>
            <DataArray Name="fValues" NumberOfComponents="1" format="ascii" type="Float64">
-9.77485e+00 
-5.70550e+00 
-3.65596e+00 
-2.64101e+00 
-1.96967e+00 
-1.47003e+00 
-1.06849e+00 
-7.29196e-01 
-4.21833e-01 
-1.21719e-01 
 1.86657e-01 
 3.26119e-01 
 4.17508e-01 
 5.32391e-01 
 6.29038e-01 
 6.74225e-01 
 7.00820e-01 
 7.18834e-01 
 7.34046e-01 
 7.39761e-01 
 7.46713e-01 
 7.52089e-01 
 7.60071e-01 
 7.64820e-01 
 7.78891e-01 
 7.78828e-01 
 7.64696e-01 
 7.59982e-01 
 7.52016e-01 
 7.46609e-01 
 7.39632e-01 
 7.33830e-01 
 7.18608e-01 
 7.00536e-01 
 6.73986e-01 
 6.28985e-01 
 5.32568e-01 
 4.17547e-01 
 3.26234e-01 
 1.87234e-01 
-1.21391e-01 
-4.22134e-01 
-7.29718e-01 
-1.06913e+00 
-1.47076e+00 
-1.97051e+00 
-2.64204e+00 
-3.65738e+00 
-5.70801e+00 
-9.77991e+00 
-8.13697e+00 
-5.64121e+00 
-3.77771e+00 
-2.74447e+00 
-2.05666e+00 
-1.54557e+00 
-1.13822e+00 
-7.97551e-01 
-4.91203e-01 
-1.99123e-01 
 1.53909e-01 
 3.23676e-01 
 4.16406e-01 
 5.31595e-01 
 6.28485e-01 
 6.73795e-01 
 7.00458e-01 
 7.18520e-01 
 7.33769e-01 
 7.39501e-01 
 7.46469e-01 
 7.51860e-01 
 7.59860e-01 
 7.64624e-01 
 7.78726e-01 
 7.78662e-01 
 7.64499e-01 
 7.59771e-01 
 7.51786e-01 
 7.46365e-01 
 7.39371e-01 
 7.33552e-01 
 7.18293e-01 
 7.00173e-01 
 6.73555e-01 
 6.28432e-01 
 5.31773e-01 
 4.16446e-01 
 3.23810e-01 
 1.54585e-01 
-1.99010e-01 
-4.91612e-01 
-7.98145e-01 
-1.13890e+00 
-1.54632e+00 
-2.05749e+00 
-2.74546e+00 
-3.77904e+00 
-5.64337e+00 
-8.14063e+00 
-5.35537e+00 
-4.88557e+00 
-3.80161e+00 
-2.87312e+00 
-2.19523e+00 
-1.67881e+00 
-1.26496e+00 
-9.18784e-01 
-6.08556e-01 
-3.30473e-01 
 5.78559e-02 
 3.11963e-01 
 4.13037e-01 
 5.29206e-01 
 6.26828e-01 
 6.72502e-01 
 6.99371e-01 
 7.17574e-01 
 7.32935e-01 
 7.38717e-01 
 7.45736e-01 
 7.51171e-01 
 7.59227e-01 
 7.64035e-01 
 7.78231e-01 
 7.78167e-01 
 7.63909e-01 
 7.59137e-01 
 7.51097e-01 
 7.45631e-01 
 7.38586e-01 
 7.32717e-01 
 7.17345e-01 
 6.99084e-01 
 6.72260e-01 
 6.26774e-01 
 5.29384e-01 
 4.13079e-01 
 3.12187e-01 
 5.84753e-02 
-3.30784e-01 
-6.09131e-01 
-9.19479e-01 
-1.26570e+00 
-1.67958e+00 
-2.19604e+00 
-2.87402e+00 
-3.80270e+00 
-4.88695e+00 
-5.35694e+00 
-4.40257e+00 
-4.14845e+00 
-3.52688e+00 
-2.83964e+00 
-2.24505e+00 
-1.75868e+00 
-1.35490e+00 
-1.01090e+00 
-7.03880e-01 
-4.38936e-01 
-7.88163e-02 
 2.76586e-01 
 4.06902e-01 
 5.25232e-01 
 6.24064e-01 
 6.70341e-01 
 6.97554e-01 
 7.15994e-01 
 7.31543e-01 
 7.37410e-01 
 7.44513e-01 
 7.50022e-01 
 7.58172e-01 
 7.63052e-01 
 7.77405e-01 
 7.77340e-01 
 7.62925e-01 
 7.58080e-01 
 7.49947e-01 
 7.44407e-01 
 7.37277e-01 
 7.31322e-01 
 7.15762e-01 
 6.97264e-01 
 6.70096e-01 
 6.24010e-01 
 5.25413e-01 
 4.06956e-01 
 2.76968e-01 
-7.86726e-02 
-4.39550e-01 
-7.04549e-01 
-1.01161e+00 
-1.35563e+00 
-1.75939e+00 
-2.24575e+00 
-2.84034e+00 
-3.52759e+00 
-4.14917e+00 
-4.40323e+00 
-3.84088e+00 
-3.62143e+00 
-3.19044e+00 
-2.68895e+00 
-2.20426e+00 
-1.77349e+00 
-1.39803e+00 
-1.07061e+00 
-7.77932e-01 
-5.25761e-01 
-2.19381e-01 
 1.93994e-01 
 3.94938e-01 
 5.19647e-01 
 6.20188e-01 
 6.67309e-01 
 6.95003e-01 
 7.13775e-01 
 7.29587e-01 
 7.35572e-01 
 7.42795e-01 
 7.48407e-01 
 7.56689e-01 
 7.61671e-01 
 7.76245e-01 
 7.76179e-01 
 7.61542e-01 
 7.56596e-01 
 7.48331e-01 
 7.42687e-01 
 7.35437e-01 
 7.29363e-01 
 7.13539e-01 
 6.94708e-01 
 6.67060e-01 
 6.20133e-01 
 5.19832e-01 
 3.95049e-01 
 1.94427e-01 
-2.19696e-01 
-5.26474e-01 
-7.78642e-01 
-1.07128e+00 
-1.39867e+00 
-1.77408e+00 
-2.20479e+00 
-2.68941e+00 
-3.19080e+00 
-3.62165e+00 
-3.84095e+00 
-3.42904e+00 
-3.22113e+00 
-2.88146e+00 
-2.49545e+00 
-2.10435e+00 
-1.73596e+00 
-1.40050e+00 
-1.10112e+00 
-8.30605e-01 
-5.97378e-01 
-3.35682e-01 
 5.77742e-02 
 3.66671e-01 
 5.12103e-01 
 6.15191e-01 
 6.63402e-01 
 6.91712e-01 
 7.10909e-01 
 7.27061e-01 
 7.33197e-01 
 7.40574e-01 
 7.46319e-01 
 7.54771e-01 
 7.59886e-01 
 7.74746e-01 
 7.74678e-01 
 7.59754e-01 
 7.54676e-01 
 7.46241e-01 
 7.40464e-01 
 7.33059e-01 
 7.26831e-01 
 7.10669e-01 
 6.91411e-01 
 6.63148e-01 
 6.15135e-01 
 5.12297e-01 
 3.66904e-01 
 5.77450e-02 
-3.36336e-01 
-5.98131e-01 
-8.31301e-01 
-1.10173e+00 
-1.40102e+00 
-1.73640e+00 
-2.10469e+00 
-2.49567e+00 
-2.88153e+00 
-3.22099e+00 
-3.42870e+00 
-3.09018e+00 
-2.89686e+00 
-2.61121e+00 
-2.29883e+00 
-1.97806e+00 
-1.66626e+00 
-1.37367e+00 
-1.10753e+00 
-8.63805e-01 
-6.53013e-01 
-4.16662e-01 
-9.10432e-02 
 3.03728e-01 
 5.01221e-01 
 6.09057e-01 
 6.58604e-01 
 6.87667e-01 
 7.07386e-01 
 7.23953e-01 
 7.30275e-01 
 7.37840e-01 
 7.43749e-01 
 7.52410e-01 
 7.57689e-01 
 7.72899e-01 
 7.72830e-01 
 7.57553e-01 
 7.52312e-01 
 7.43669e-01 
 7.37727e-01 
 7.30133e-01 
 7.23718e-01 
 7.07139e-01 
 6.87358e-01 
 6.58344e-01 
 6.09000e-01 
 5.01449e-01 
 3.03999e-01 
-9.16482e-02 
-4.17386e-01 
-6.53750e-01 
-8.64437e-01 
-1.10804e+00 
-1.37406e+00 
-1.66655e+00 
-1.97822e+00 
-2.29885e+00 
-2.61105e+00 
-2.89646e+00 
-3.08954e+00 
-2.79688e+00 
-2.62202e+00 
-2.37565e+00 
-2.11388e+00 
-1.84535e+00 
-1.58069e+00 
-1.32806e+00 
-1.09553e+00 
-8.80165e-01 
-6.92354e-01 
-4.75981e-01 
-2.17981e-01 
 1.86682e-01 
 4.80669e-01 
 6.01586e-01 
 6.52888e-01 
 6.82851e-01 
 7.03191e-01 
 7.20250e-01 
 7.26793e-01 
 7.34582e-01 
 7.40686e-01 
 7.49595e-01 
 7.55068e-01 
 7.70698e-01 
 7.70627e-01 
 7.54929e-01 
 7.49495e-01 
 7.40603e-01 
 7.34465e-01 
 7.26647e-01 
 7.20008e-01 
 7.02937e-01 
 6.82533e-01 
 6.52620e-01 
 6.01533e-01 
 4.80970e-01 
 1.86568e-01 
-2.18887e-01 
-4.76663e-01 
-6.93024e-01 
-8.80700e-01 
-1.09593e+00 
-1.32832e+00 
-1.58082e+00 
-1.84535e+00 
-2.11374e+00 
-2.37532e+00 
-2.62143e+00 
-2.79604e+00 
-2.53778e+00 
-2.38308e+00 
-2.16890e+00 
-1.94478e+00 
-1.71584e+00 
-1.48923e+00 
-1.27127e+00 
-1.06973e+00 
-8.81510e-01 
-7.16317e-01 
-5.22692e-01 
-3.09244e-01 
 3.34168e-02 
 4.36412e-01 
 5.92164e-01 
 6.46220e-01 
 6.77247e-01 
 6.98306e-01 
 7.15938e-01 
 7.22736e-01 
 7.30784e-01 
 7.37114e-01 
 7.46313e-01 
 7.52014e-01 
 7.68132e-01 
 7.68058e-01 
 7.51870e-01 
 7.46209e-01 
 7.37029e-01 
 7.30663e-01 
 7.22585e-01 
 7.15688e-01 
 6.98042e-01 
 6.76918e-01 
 6.45945e-01 
 5.92128e-01 
 4.36712e-01 
 3.26136e-02 
-3.10169e-01 
-5.23299e-01 
-7.16878e-01 
-8.81919e-01 
-1.06999e+00 
-1.27139e+00 
-1.48922e+00 
-1.71570e+00 
-1.94450e+00 
-2.16844e+00 
-2.38238e+00 
-2.53682e+00 
-2.30763e+00 
-2.17286e+00 
-1.98624e+00 
-1.79170e+00 
-1.59350e+00 
-1.39725e+00 
-1.20811e+00 
-1.03342e+00 
-8.69554e-01 
-7.26106e-01 
-5.56095e-01 
-3.69512e-01 
-1.14470e-01 
 3.46704e-01 
 5.77594e-01 
 6.38478e-01 
 6.70811e-01 
 6.92706e-01 
 7.10994e-01 
 7.18085e-01 
 7.26429e-01 
 7.33019e-01 
 7.42550e-01 
 7.48512e-01 
 7.65189e-01 
 7.65113e-01 
 7.48363e-01 
 7.42442e-01 
 7.32931e-01 
 7.26304e-01 
 7.17928e-01 
 7.10735e-01 
 6.92432e-01 
 6.70473e-01 
 6.38214e-01 
 5.77595e-01 
 3.46685e-01 
-1.15595e-01 
-3.70296e-01 
-5.56583e-01 
-7.26525e-01 
-8.69816e-01 
-1.03353e+00 
-1.20810e+00 
-1.39711e+00 
-1.59326e+00 
-1.79132e+00 
-1.98570e+00 
-2.17209e+00 
-2.30663e+00 
-2.10359e+00 
-1.98719e+00 
-1.82428e+00 
-1.65366e+00 
-1.47975e+00 
-1.30756e+00 
-1.14168e+00 
-9.89168e-01 
-8.46129e-01 
-7.22491e-01 
-5.74646e-01 
-4.11087e-01 
-2.30605e-01 
 2.00363e-01 
 5.47465e-01 
 6.29169e-01 
 6.63372e-01 
 6.86354e-01 
 7.05398e-01 
 7.12819e-01 
 7.21498e-01 
 7.28381e-01 
 7.38287e-01 
 7.44546e-01 
 7.61856e-01 
 7.61777e-01 
 7.44391e-01 
 7.38175e-01 
 7.28289e-01 
 7.21368e-01 
 7.12655e-01 
 7.05128e-01 
 6.86072e-01 
 6.63060e-01 
 6.28959e-01 
 5.47409e-01 
 1.99628e-01 
-2.31713e-01 
-4.11716e-01 
-5.74974e-01 
-7.22745e-01 
-8.46234e-01 
-9.89139e-01 
-1.14154e+00 
-1.30733e+00 
-1.47942e+00 
-1.65322e+00 
-1.82370e+00 
-1.98640e+00 
-2.10260e+00 
-1.92365e+00 
-1.82335e+00 
-1.68061e+00 
-1.52959e+00 
-1.37505e+00 
-1.22183e+00 
-1.07421e+00 
-9.39253e-01 
-8.12973e-01 
-7.05922e-01 
-5.77910e-01 
-4.37905e-01 
-3.05498e-01 
 2.95918e-02 
 4.81006e-01 
 6.17496e-01 
 6.54944e-01 
 6.79081e-01 
 6.99105e-01 
 7.06913e-01 
 7.15967e-01 
 7.23180e-01 
 7.33506e-01 
 7.40098e-01 
 7.58119e-01 
 7.58036e-01 
 7.39936e-01 
 7.33389e-01 
 7.23083e-01 
 7.15831e-01 
 7.06741e-01 
 6.98826e-01 
 6.78827e-01 
 6.54683e-01 
 6.17212e-01 
 4.80520e-01 
 2.83750e-02 
-3.06319e-01 
-4.38340e-01 
-5.78048e-01 
-7.05997e-01 
-8.12922e-01 
-9.39093e-01 
-1.07397e+00 
-1.22151e+00 
-1.37466e+00 
-1.52911e+00 
-1.68001e+00 
-1.82258e+00 
-1.92271e+00 
-1.76604e+00 
-1.67928e+00 
-1.55343e+00 
-1.41854e+00 
-1.27962e+00 
-1.14132e+00 
-1.00773e+00 
-8.85956e-01 
-7.72083e-01 
-6.77598e-01 
-5.66220e-01 
-4.47642e-01 
-3.45163e-01 
-1.21400e-01 
 3.47604e-01 
 5.94778e-01 
 6.45919e-01 
 6.70905e-01 
 6.91950e-01 
 7.00324e-01 
 7.09811e-01 
 7.17390e-01 
 7.28185e-01 
 7.35148e-01 
 7.53959e-01 
 7.53873e-01 
 7.34979e-01 
 7.28062e-01 
 7.17289e-01 
 7.09668e-01 
 7.00148e-01 
 6.91701e-01 
 6.70702e-01 
 6.45581e-01 
 5.94307e-01 
 3.46306e-01 
-1.22536e-01 
-3.45640e-01 
-4.47838e-01 
-5.66155e-01 
-6.77495e-01 
-7.71887e-01 
-8.85685e-01 
-1.00740e+00 
-1.14094e+00 
-1.27919e+00 
-1.41805e+00 
-1.55286e+00 
-1.67857e+00 
-1.76518e+00 
-1.62896e+00 
-1.55320e+00 
-1.44131e+00 
-1.31980e+00 
-1.19363e+00 
-1.06719e+00 
-9.44222e-01 
-8.31828e-01 
-7.26080e-01 
-6.39669e-01 
-5.40457e-01 
-4.38709e-01 
-3.57936e-01 
-2.18130e-01 
 1.55304e-01 
 5.38422e-01 
 6.34669e-01 
 6.62378e-01 
 6.83962e-01 
 6.92895e-01 
 7.02989e-01 
 7.10986e-01 
 7.22299e-01 
 7.29674e-01 
 7.49359e-01 
 7.49268e-01 
 7.29497e-01 
 7.22169e-01 
 7.10879e-01 
 7.02843e-01 
 6.92748e-01 
 6.83763e-01 
 6.62102e-01 
 6.34232e-01 
 5.37414e-01 
 1.53256e-01 
-2.18710e-01 
-3.58092e-01 
-4.38656e-01 
-5.40196e-01 
-6.39407e-01 
-7.25765e-01 
-8.31473e-01 
-9.43838e-01 
-1.06679e+00 
-1.19320e+00 
-1.31932e+00 
-1.44077e+00 
-1.55256e+00 
-1.62821e+00 
-1.51048e+00 
-1.44336e+00 
-1.34293e+00 
-1.23267e+00 
-1.11723e+00 
-1.00052e+00 
-8.85744e-01 
-7.79749e-01 
-6.78287e-01 
-5.95174e-01 
-5.02450e-01 
-4.11913e-01 
-3.48650e-01 
-2.53813e-01 
-3.49935e-02 
 4.05595e-01 
 6.13109e-01 
 6.52841e-01 
 6.75676e-01 
 6.84622e-01 
 6.95353e-01 
 7.03931e-01 
 7.15822e-01 
 7.23652e-01 
 7.44297e-01 
 7.44202e-01 
 7.23465e-01 
 7.15685e-01 
 7.03820e-01 
 6.95232e-01 
 6.84531e-01 
 6.75406e-01 
 6.52497e-01 
 6.12429e-01 
 4.03408e-01 
-3.68152e-02 
-2.53738e-01 
-3.48516e-01 
-4.11637e-01 
-5.02018e-01 
-5.94784e-01 
-6.77886e-01 
-7.79344e-01 
-8.85336e-01 
-1.00011e+00 
-1.11681e+00 
-1.23222e+00 
-1.34244e+00 
-1.44280e+00 
-1.50984e+00 
-1.40848e+00 
-1.34797e+00 
-1.25695e+00 
-1.15637e+00 
-1.05033e+00 
-9.42094e-01 
-8.34159e-01 
-7.32757e-01 
-6.32727e-01 
-5.48365e-01 
-4.55579e-01 
-3.69319e-01 
-3.17727e-01 
-2.42466e-01 
-1.54432e-01 
 1.78697e-01 
 5.51579e-01 
 6.40706e-01 
 6.66534e-01 
 6.76046e-01 
 6.86851e-01 
 6.96084e-01 
 7.08717e-01 
 7.17052e-01 
 7.38749e-01 
 7.38649e-01 
 7.16855e-01 
 7.08573e-01 
 6.95992e-01 
 6.86791e-01 
 6.75899e-01 
 6.66198e-01 
 6.40274e-01 
 5.50054e-01 
 1.75549e-01 
-1.55161e-01 
-2.41958e-01 
-3.17354e-01 
-3.68857e-01 
-4.55013e-01 
-5.47888e-01 
-6.32282e-01 
-7.32338e-01 
-8.33757e-01 
-9.41702e-01 
-1.04994e+00 
-1.15597e+00 
-1.25652e+00 
-1.34750e+00 
-1.40797e+00 
-1.32071e+00 
-1.26516e+00 
-1.18195e+00 
-1.08991e+00 
-9.92468e-01 
-8.92186e-01 
-7.90756e-01 
-6.93568e-01 
-5.93864e-01 
-5.05114e-01 
-4.05372e-01 
-3.13812e-01 
-2.66056e-01 
-2.04708e-01 
-1.80869e-01 
-5.31455e-02 
 3.90950e-01 
 6.14419e-01 
 6.56261e-01 
 6.66675e-01 
 6.78028e-01 
 6.87331e-01 
 7.00851e-01 
 7.09839e-01 
 7.32689e-01 
 7.32583e-01 
 7.09632e-01 
 7.00719e-01 
 6.87315e-01 
 6.77935e-01 
 6.66463e-01 
 6.55889e-01 
 6.13595e-01 
 3.87796e-01 
-5.55188e-02 
-1.80685e-01 
-2.04023e-01 
-2.65510e-01 
-3.13199e-01 
-4.04717e-01 
-5.04602e-01 
-5.93419e-01 
-6.93169e-01 
-7.90384e-01 
-8.91830e-01 
-9.92118e-01 
-1.08956e+00 
-1.18159e+00 
-1.26479e+00 
-1.32032e+00 
-1.24484e+00 
-1.19304e+00 
-1.11639e+00 
-1.03203e+00 
-9.42695e-01 
-8.50282e-01 
-7.55766e-01 
-6.63732e-01 
-5.65535e-01 
-4.72605e-01 
-3.61273e-01 
-2.51204e-01 
-1.94260e-01 
-1.48950e-01 
-1.56127e-01 
-1.76760e-01 
 1.19550e-01 
 5.30463e-01 
 6.41910e-01 
 6.56277e-01 
 6.68496e-01 
 6.78240e-01 
 6.92081e-01 
 7.01879e-01 
 7.26079e-01 
 7.25970e-01 
 7.01682e-01 
 6.92023e-01 
 6.78212e-01 
 6.68329e-01 
 6.56041e-01 
 6.41373e-01 
 5.28301e-01 
 1.15789e-01 
-1.77368e-01 
-1.55729e-01 
-1.48205e-01 
-1.93571e-01 
-2.50477e-01 
-3.60597e-01 
-4.72118e-01 
-5.65131e-01 
-6.63378e-01 
-7.55438e-01 
-8.49969e-01 
-9.42390e-01 
-1.03173e+00 
-1.11609e+00 
-1.19275e+00 
-1.24456e+00 
-1.17859e+00 
-1.12969e+00 
-1.05869e+00 
-9.81287e-01 
-8.99612e-01 
-8.15054e-01 
-7.28070e-01 
-6.42757e-01 
-5.48949e-01 
-4.56309e-01 
-3.36896e-01 
-1.98754e-01 
-1.04491e-01 
-7.39544e-02 
-1.28225e-01 
-1.98286e-01 
-1.15988e-01 
 3.24075e-01 
 6.04349e-01 
 6.44492e-01 
 6.57922e-01 
 6.68528e-01 
 6.82929e-01 
 6.92999e-01 
 7.18774e-01 
 7.18690e-01 
 6.92887e-01 
 6.82863e-01 
 6.68410e-01 
 6.57726e-01 
 6.44212e-01 
 6.03131e-01 
 3.20041e-01 
-1.17898e-01 
-1.97961e-01 
-1.28084e-01 
-7.32839e-02 
-1.03694e-01 
-1.98008e-01 
-3.36293e-01 
-4.55897e-01 
-5.48607e-01 
-6.42454e-01 
-7.27786e-01 
-8.14783e-01 
-8.99350e-01 
-9.81034e-01 
-1.05844e+00 
-1.12948e+00 
-1.17840e+00 
-1.11984e+00 
-1.07337e+00 
-1.00729e+00 
-9.36149e-01 
-8.61567e-01 
-7.84592e-01 
-7.05392e-01 
-6.27954e-01 
-5.41234e-01 
-4.54628e-01 
-3.39072e-01 
-1.86583e-01 
-2.98535e-02 
 3.05189e-02 
-1.15236e-01 
-2.00732e-01 
-2.22513e-01 
 2.32494e-02 
 4.81028e-01 
 6.24766e-01 
 6.46399e-01 
 6.57758e-01 
 6.73258e-01 
 6.83737e-01 
 7.10629e-01 
 7.10614e-01 
 6.83585e-01 
 6.73110e-01 
 6.57608e-01 
 6.46189e-01 
 6.24175e-01 
 4.77908e-01 
 1.98252e-02 
-2.22551e-01 
-2.00342e-01 
-1.15334e-01 
 3.12745e-02 
-2.90614e-02 
-1.85972e-01 
-3.38591e-01 
-4.54291e-01 
-5.40944e-01 
-6.27691e-01 
-7.05143e-01 
-7.84354e-01 
-8.61339e-01 
-9.35934e-01 
-1.00710e+00 
-1.07322e+00 
-1.11973e+00 
-1.06677e+00 
-1.02255e+00 
-9.60848e-01 
-8.95208e-01 
-8.26938e-01 
-7.56879e-01 
-6.85060e-01 
-6.15576e-01 
-5.36824e-01 
-4.58824e-01 
-3.54338e-01 
-2.17295e-01 
-2.59218e-02 
 1.65906e-01 
-3.93819e-02 
-2.20674e-01 
-2.50285e-01 
-1.98084e-01 
 2.11403e-01 
 5.63583e-01 
 6.32449e-01 
 6.46011e-01 
 6.62547e-01 
 6.73965e-01 
 7.02198e-01 
 7.02095e-01 
 6.73734e-01 
 6.62356e-01 
 6.45848e-01 
 6.32129e-01 
 5.61731e-01 
 2.06698e-01 
-1.98915e-01 
-2.49638e-01 
-2.20144e-01 
-3.90800e-02 
 1.66759e-01 
-2.51904e-02 
-2.16815e-01 
-3.53911e-01 
-4.58515e-01 
-5.36556e-01 
-6.15333e-01 
-6.84831e-01 
-7.56663e-01 
-8.26735e-01 
-8.95023e-01 
-9.60691e-01 
-1.02244e+00 
-1.06672e+00 
-1.01800e+00 
-9.76033e-01 
-9.18252e-01 
-8.57324e-01 
-7.94413e-01 
-7.30278e-01 
-6.64895e-01 
-6.02552e-01 
-5.31112e-01 
-4.61427e-01 
-3.68684e-01 
-2.54154e-01 
-8.27253e-02 
 2.35096e-01 
 1.90580e-01 
-1.63590e-01 
-2.64185e-01 
-2.82228e-01 
-1.01470e-01 
 3.78796e-01 
 6.01677e-01 
 6.33168e-01 
 6.50772e-01 
 6.62905e-01 
 6.93136e-01 
 6.92980e-01 
 6.62592e-01 
 6.50564e-01 
 6.32973e-01 
 6.00766e-01 
 3.74850e-01 
-1.03941e-01 
-2.81252e-01 
-2.63396e-01 
-1.62893e-01 
 1.90879e-01 
 2.36222e-01 
-8.19640e-02 
-2.53744e-01 
-3.68261e-01 
-4.61110e-01 
-5.30841e-01 
-6.02311e-01 
-6.64672e-01 
-7.30073e-01 
-7.94226e-01 
-8.57160e-01 
-9.18122e-01 
-9.75955e-01 
-1.01798e+00 
-9.72580e-01 
-9.32980e-01 
-8.78733e-01 
-8.21710e-01 
-7.63126e-01 
-7.03780e-01 
-6.43679e-01 
-5.87387e-01 
-5.22275e-01 
-4.60268e-01 
-3.78992e-01 
-2.80151e-01 
-1.43930e-01 
 2.08445e-01 
 3.82935e-01 
 6.93886e-02 
-2.39240e-01 
-2.98622e-01 
-2.66216e-01 
 4.97487e-02 
 4.94416e-01 
 6.14153e-01 
 6.37886e-01 
 6.51246e-01 
 6.83548e-01 
 6.83371e-01 
 6.50851e-01 
 6.37603e-01 
 6.13679e-01 
 4.91533e-01 
 4.57997e-02 
-2.66102e-01 
-2.97410e-01 
-2.38243e-01 
 7.01386e-02 
 3.83250e-01 
 2.09935e-01 
-1.43112e-01 
-2.79751e-01 
-3.78575e-01 
-4.59942e-01 
-5.21995e-01 
-5.87142e-01 
-6.43457e-01 
-7.03579e-01 
-7.62948e-01 
-8.21559e-01 
-8.78619e-01 
-9.32922e-01 
-9.72579e-01 
-9.30064e-01 
-8.92934e-01 
-8.41838e-01 
-7.87923e-01 
-7.32646e-01 
-6.76976e-01 
-6.21053e-01 
-5.69840e-01 
-5.10279e-01 
-4.55546e-01 
-3.84698e-01 
-3.00198e-01 
-1.94830e-01 
 1.64466e-01 
 4.49442e-01 
 3.56732e-01 
-7.10704e-02 
-2.96087e-01 
-3.02804e-01 
-2.14196e-01 
 2.27631e-01 
 5.57362e-01 
 6.23166e-01 
 6.38792e-01 
 6.72908e-01 
 6.72746e-01 
 6.38435e-01 
 6.22703e-01 
 5.55603e-01 
 2.22800e-01 
-2.14857e-01 
-3.01527e-01 
-2.94627e-01 
-6.98458e-02 
 3.57246e-01 
 4.49828e-01 
 1.66025e-01 
-1.94071e-01 
-2.99796e-01 
-3.84296e-01 
-4.55225e-01 
-5.09996e-01 
-5.69592e-01 
-6.20830e-01 
-6.76777e-01 
-7.32472e-01 
-7.87778e-01 
-8.41733e-01 
-8.92885e-01 
-9.30069e-01 
-8.90405e-01 
-8.55766e-01 
-8.07391e-01 
-7.55799e-01 
-7.02863e-01 
-6.49847e-01 
-5.97130e-01 
-5.50195e-01 
-4.95552e-01 
-4.47609e-01 
-3.86504e-01 
-3.15570e-01 
-2.33919e-01 
 1.05434e-01 
 4.50996e-01 
 5.02961e-01 
 2.55462e-01 
-1.92974e-01 
-3.02030e-01 
-3.04060e-01 
-1.09107e-01 
 3.70650e-01 
 5.90507e-01 
 6.25073e-01 
 6.61315e-01 
 6.61144e-01 
 6.24707e-01 
 5.89528e-01 
 3.66854e-01 
-1.11323e-01 
-3.02717e-01 
-3.00673e-01 
-1.91552e-01 
 2.55791e-01 
 5.03331e-01 
 4.51553e-01 
 1.07157e-01 
-2.33295e-01 
-3.15185e-01 
-3.86121e-01 
-4.47300e-01 
-4.95277e-01 
-5.49951e-01 
-5.96909e-01 
-6.49649e-01 
-7.02690e-01 
-7.55658e-01 
-8.07288e-01 
-8.55717e-01 
-8.90405e-01 
-8.53889e-01 
-8.21611e-01 
-7.75434e-01 
-7.25373e-01 
-6.73859e-01 
-6.22559e-01 
-5.72171e-01 
-5.28782e-01 
-4.78404e-01 
-4.36710e-01 
-3.84654e-01 
-3.25359e-01 
-2.61002e-01 
 3.52952e-02 
 4.29793e-01 
 5.32743e-01 
 4.82087e-01 
 8.60451e-02 
-2.53468e-01 
-2.99681e-01 
-2.60268e-01 
 3.52959e-02 
 4.67466e-01 
 6.01338e-01 
 6.48763e-01 
 6.48581e-01 
 6.00594e-01 
 4.64505e-01 
 3.16748e-02 
-2.60094e-01 
-2.98435e-01 
-2.52145e-01 
 8.69097e-02 
 4.82266e-01 
 5.33216e-01 
 4.30516e-01 
 3.70102e-02 
-2.60476e-01 
-3.25004e-01 
-3.84297e-01 
-4.36420e-01 
-4.78143e-01 
-5.28547e-01 
-5.71955e-01 
-6.22364e-01 
-6.73687e-01 
-7.25231e-01 
-7.75329e-01 
-8.21555e-01 
-8.53877e-01 
-8.21034e-01 
-7.90795e-01 
-7.46159e-01 
-6.96800e-01 
-6.45811e-01 
-5.95333e-01 
-5.46426e-01 
-5.05826e-01 
-4.58945e-01 
-4.22778e-01 
-3.78767e-01 
-3.29580e-01 
-2.79591e-01 
-3.43318e-02 
 3.99529e-01 
 5.31724e-01 
 5.56899e-01 
 4.03835e-01 
-6.57663e-02 
-2.70160e-01 
-2.56137e-01 
-1.76514e-01 
 1.84711e-01 
 5.11770e-01 
 6.28097e-01 
 6.27613e-01 
 5.09475e-01 
 1.80249e-01 
-1.77099e-01 
-2.55151e-01 
-2.69030e-01 
-6.44917e-02 
 4.04142e-01 
 5.57152e-01 
 5.32249e-01 
 4.00460e-01 
-3.27097e-02 
-2.79141e-01 
-3.29260e-01 
-3.78443e-01 
-4.22514e-01 
-4.58703e-01 
-5.05603e-01 
-5.46216e-01 
-5.95141e-01 
-6.45640e-01 
-6.96656e-01 
-7.46048e-01 
-7.90728e-01 
-8.21006e-01 
-7.92502e-01 
-7.63767e-01 
-7.19853e-01 
-6.70307e-01 
-6.18940e-01 
-5.68398e-01 
-5.20112e-01 
-4.81475e-01 
-4.37173e-01 
-4.05585e-01 
-3.68450e-01 
-3.28230e-01 
-2.90794e-01 
-9.98670e-02 
 3.51295e-01 
 5.24760e-01 
 5.66175e-01 
 5.49507e-01 
 2.42706e-01 
-1.63750e-01 
-2.13909e-01 
-1.91946e-01 
-5.78351e-02 
 2.66057e-01 
 5.42363e-01 
 5.40648e-01 
 2.62420e-01 
-5.93887e-02 
-1.90908e-01 
-2.13160e-01 
-1.62802e-01 
 2.43311e-01 
 5.49681e-01 
 5.66478e-01 
 5.25329e-01 
 3.52539e-01 
-9.83377e-02 
-2.90403e-01 
-3.27951e-01 
-3.68165e-01 
-4.05350e-01 
-4.36952e-01 
-4.81266e-01 
-5.19908e-01 
-5.68207e-01 
-6.18766e-01 
-6.70157e-01 
-7.19733e-01 
-7.63686e-01 
-7.92454e-01 
-7.69022e-01 
-7.41041e-01 
-6.96855e-01 
-6.46154e-01 
-5.93484e-01 
-5.41994e-01 
-4.93456e-01 
-4.55909e-01 
-4.13152e-01 
-3.85038e-01 
-3.53490e-01 
-3.21048e-01 
-2.95463e-01 
-1.55534e-01 
 2.79950e-01 
 5.13517e-01 
 5.62941e-01 
 5.84087e-01 
 4.69353e-01 
 5.51569e-02 