<?xml version="1.0" encoding="utf-8"?>
<VTKFile byte_order="LittleEndian" type="UnstructuredGrid" version="0.1">
   <UnstructuredGrid>
      <Piece NumberOfCells="3364" NumberOfPoints="1741">
         <Points>
            <DataArray Name="Points" NumberOfComponents="3" format="ascii" type="Float32">
0.0000 1.0000 0.0000
0.0000 1.0345 0.0000
0.0000 1.0690 0.0000
0.0000 1.1034 0.0000
0.0000 1.1379 0.0000
0.0000 1.1724 0.0000
0.0000 1.2069 0.0000
0.0000 1.2414 0.0000
0.0000 1.2759 0.0000
0.0000 1.3103 0.0000
0.0000 1.3448 0.0000
0.0000 1.3793 0.0000
0.0000 1.4138 0.0000
0.0000 1.4483 0.0000
0.0000 1.4828 0.0000
0.0000 1.5172 0.0000
0.0000 1.5517 0.0000
0.0000 1.5862 0.0000
0.0000 1.6207 0.0000
0.0000 1.6552 0.0000
0.0000 1.6897 0.0000
0.0000 1.7241 0.0000
0.0000 1.7586 0.0000
0.0000 1.7931 0.0000
0.0000 1.8276 0.0000
0.0000 1.8621 0.0000
0.0000 1.8966 0.0000
0.0000 1.9310 0.0000
0.0000 1.9655 0.0000
0.0000 2.0000 0.0000
0.0690 1.0000 0.0000
0.0690 1.0345 0.0000
0.0690 1.0690 0.0000
0.0690 1.1034 0.0000
0.0690 1.1379 0.0000
0.0690 1.1724 0.0000
0.0690 1.2069 0.0000
0.0690 1.2414 0.0000
0.0690 1.2759 0.0000
0.0690 1.3103 0.0000
0.0690 1.3448 0.0000
0.0690 1.3793 0.0000
0.0690 1.4138 0.0000
0.0690 1.4483 0.0000
0.0690 1.4828 0.0000
0.0690 1.5172 0.0000
0.0690 1.5517 0.0000
0.0690 1.5862 0.0000
0.0690 1.6207 0.0000
0.0690 1.6552 0.0000
0.0690 1.6897 0.0000
0.0690 1.7241 0.0000
0.0690 1.7586 0.0000
0.0690 1.7931 0.0000
0.0690 1.8276 0.0000
0.0690 1.8621 0.0000
0.0690 1.8966 0.0000
0.0690 1.9310 0.0000
0.0690 1.9655 0.0000
0.0690 2.0000 0.0000
0.1379 1.0000 0.0000
0.1379 1.0345 0.0000
0.1379 1.0690 0.0000
0.1379 1.1034 0.0000
0.1379 1.1379 0.0000
0.1379 1.1724 0.0000
0.1379 1.2069 0.0000
0.1379 1.2414 0.0000
0.1379 1.2759 0.0000
0.1379 1.3103 0.0000
0.1379 1.3448 0.0000
0.1379 1.3793 0.0000
0.1379 1.4138 0.0000
0.1379 1.4483 0.0000
0.1379 1.4828 0.0000
0.1379 1.5172 0.0000
0.1379 1.5517 0.0000
0.1379 1.5862 0.0000
0.1379 1.6207 0.0000
0.1379 1.6552 0.0000
0.1379 1.6897 0.0000
0.1379 1.7241 0.0000
0.1379 1.7586 0.0000
0.1379 1.7931 0.0000
0.1379 1.8276 0.0000
0.1379 1.8621 0.0000
0.1379 1.8966 0.0000
0.1379 1.9310 0.0000
0.1379 1.9655 0.0000
0.1379 2.0000 0.0000
0.2069 1.0000 0.0000
0.2069 1.0345 0.0000
0.2069 1.0690 0.0000
0.2069 1.1034 0.0000
0.2069 1.1379 0.0000
0.2069 1.1724 0.0000
0.2069 1.2069 0.0000
0.2069 1.2414 0.0000
0.2069 1.2759 0.0000
0.2069 1.3103 0.0000
0.2069 1.3448 0.0000
0.2069 1.3793 0.0000
0.2069 1.4138 0.0000
0.2069 1.4483 0.0000
0.2069 1.4828 0.0000
0.2069 1.5172 0.0000
0.2069 1.5517 0.0000
0.2069 1.5862 0.0000
0.2069 1.6207 0.0000
0.2069 1.6552 0.0000
0.2069 1.6897 0.0000
0.2069 1.7241 0.0000
0.2069 1.7586 0.0000
0.2069 1.7931 0.0000
0.2069 1.8276 0.0000
0.2069 1.8621 0.0000
0.2069 1.8966 0.0000
0.2069 1.9310 0.0000
0.2069 1.9655 0.0000
0.2069 2.0000 0.0000
0.2759 1.0000 0.0000
0.2759 1.0345 0.0000
0.2759 1.0690 0.0000
0.2759 1.1034 0.0000
0.2759 1.1379 0.0000
0.2759 1.1724 0.0000
0.2759 1.2069 0.0000
0.2759 1.2414 0.0000
0.2759 1.2759 0.0000
0.2759 1.3103 0.0000
0.2759 1.3448 0.0000
0.2759 1.3793 0.0000
0.2759 1.4138 0.0000
0.2759 1.4483 0.0000
0.2759 1.4828 0.0000
0.2759 1.5172 0.0000
0.2759 1.5517 0.0000
0.2759 1.5862 0.0000
0.2759 1.6207 0.0000
0.2759 1.6552 0.0000
0.2759 1.6897 0.0000
0.2759 1.7241 0.0000
0.2759 1.7586 0.0000
0.2759 1.7931 0.0000
0.2759 1.8276 0.0000
0.2759 1.8621 0.0000
0.2759 1.8966 0.0000
0.2759 1.9310 0.0000
0.2759 1.9655 0.0000
0.2759 2.0000 0.0000
0.3448 1.0000 0.0000
0.3448 1.0345 0.0000
0.3448 1.0690 0.0000
0.3448 1.1034 0.0000
0.3448 1.1379 0.0000
0.3448 1.1724 0.0000
0.3448 1.2069 0.0000
0.3448 1.2414 0.0000
0.3448 1.2759 0.0000
0.3448 1.3103 0.0000
0.3448 1.3448 0.0000
0.3448 1.3793 0.0000
0.3448 1.4138 0.0000
0.3448 1.4483 0.0000
0.3448 1.4828 0.0000
0.3448 1.5172 0.0000
0.3448 1.5517 0.0000
0.3448 1.5862 0.0000
0.3448 1.6207 0.0000
0.3448 1.6552 0.0000
0.3448 1.6897 0.0000
0.3448 1.7241 0.0000
0.3448 1.7586 0.0000
0.3448 1.7931 0.0000
0.3448 1.8276 0.0000
0.3448 1.8621 0.0000
0.3448 1.8966 0.0000
0.3448 1.9310 0.0000
0.3448 1.9655 0.0000
0.3448 2.0000 0.0000
0.4138 1.0000 0.0000
0.4138 1.0345 0.0000
0.4138 1.0690 0.0000
0.4138 1.1034 0.0000
0.4138 1.1379 0.0000
0.4138 1.1724 0.0000
0.4138 1.2069 0.0000
0.4138 1.2414 0.0000
0.4138 1.2759 0.0000
0.4138 1.3103 0.0000
0.4138 1.3448 0.0000
0.4138 1.3793 0.0000
0.4138 1.4138 0.0000
0.4138 1.4483 0.0000
0.4138 1.4828 0.0000
0.4138 1.5172 0.0000
0.4138 1.5517 0.0000
0.4138 1.5862 0.0000
0.4138 1.6207 0.0000
0.4138 1.6552 0.0000
0.4138 1.6897 0.0000
0.4138 1.7241 0.0000
0.4138 1.7586 0.0000
0.4138 1.7931 0.0000
0.4138 1.8276 0.0000
0.4138 1.8621 0.0000
0.4138 1.8966 0.0000
0.4138 1.9310 0.0000
0.4138 1.9655 0.0000
0.4138 2.0000 0.0000
0.4828 1.0000 0.0000
0.4828 1.0345 0.0000
0.4828 1.0690 0.0000
0.4828 1.1034 0.0000
0.4828 1.1379 0.0000
0.4828 1.1724 0.0000
0.4828 1.2069 0.0000
0.4828 1.2414 0.0000
0.4828 1.2759 0.0000
0.4828 1.3103 0.0000
0.4828 1.3448 0.0000
0.4828 1.3793 0.0000
0.4828 1.4138 0.0000
0.4828 1.4483 0.0000
0.4828 1.4828 0.0000
0.4828 1.5172 0.0000
0.4828 1.5517 0.0000
0.4828 1.5862 0.0000
0.4828 1.6207 0.0000
0.4828 1.6552 0.0000
0.4828 1.6897 0.0000
0.4828 1.7241 0.0000
0.4828 1.7586 0.0000
0.4828 1.7931 0.0000
0.4828 1.8276 0.0000
0.4828 1.8621 0.0000
0.4828 1.8966 0.0000
0.4828 1.9310 0.0000
0.4828 1.9655 0.0000
0.4828 2.0000 0.0000
0.5517 1.0000 0.0000
0.5517 1.0345 0.0000
0.5517 1.0690 0.0000
0.5517 1.1034 0.0000
0.5517 1.1379 0.0000
0.5517 1.1724 0.0000
0.5517 1.2069 0.0000
0.5517 1.2414 0.0000
0.5517 1.2759 0.0000
0.5517 1.3103 0.0000
0.5517 1.3448 0.0000
0.5517 1.3793 0.0000
0.5517 1.4138 0.0000
0.5517 1.4483 0.0000
0.5517 1.4828 0.0000
0.5517 1.5172 0.0000
0.5517 1.5517 0.0000
0.5517 1.5862 0.0000
0.5517 1.6207 0.0000
0.5517 1.6552 0.0000
0.5517 1.6897 0.0000
0.5517 1.7241 0.0000
0.5517 1.7586 0.0000
0.5517 1.7931 0.0000
0.5517 1.8276 0.0000
0.5517 1.8621 0.0000
0.5517 1.8966 0.0000
0.5517 1.9310 0.0000
0.5517 1.9655 0.0000
0.5517 2.0000 0.0000
0.6207 1.0000 0.0000
0.6207 1.0345 0.0000
0.6207 1.0690 0.0000
0.6207 1.1034 0.0000
0.6207 1.1379 0.0000
0.6207 1.1724 0.0000
0.6207 1.2069 0.0000
0.6207 1.2414 0.0000
0.6207 1.2759 0.0000
0.6207 1.3103 0.0000
0.6207 1.3448 0.0000
0.6207 1.3793 0.0000
0.6207 1.4138 0.0000
0.6207 1.4483 0.0000
0.6207 1.4828 0.0000
0.6207 1.5172 0.0000
0.6207 1.5517 0.0000
0.6207 1.5862 0.0000
0.6207 1.6207 0.0000
0.6207 1.6552 0.0000
0.6207 1.6897 0.0000
0.6207 1.7241 0.0000
0.6207 1.7586 0.0000
0.6207 1.7931 0.0000
0.6207 1.8276 0.0000
0.6207 1.8621 0.0000
0.6207 1.8966 0.0000
0.6207 1.9310 0.0000
0.6207 1.9655 0.0000
0.6207 2.0000 0.0000
0.6897 1.0000 0.0000
0.6897 1.0345 0.0000
0.6897 1.0690 0.0000
0.6897 1.1034 0.0000
0.6897 1.1379 0.0000
0.6897 1.1724 0.0000
0.6897 1.2069 0.0000
0.6897 1.2414 0.0000
0.6897 1.2759 0.0000
0.6897 1.3103 0.0000
0.6897 1.3448 0.0000
0.6897 1.3793 0.0000
0.6897 1.4138 0.0000
0.6897 1.4483 0.0000
0.6897 1.4828 0.0000
0.6897 1.5172 0.0000
0.6897 1.5517 0.0000
0.6897 1.5862 0.0000
0.6897 1.6207 0.0000
0.6897 1.6552 0.0000
0.6897 1.6897 0.0000
0.6897 1.7241 0.0000
0.6897 1.7586 0.0000
0.6897 1.7931 0.0000
0.6897 1.8276 0.0000
0.6897 1.8621 0.0000
0.6897 1.8966 0.0000
0.6897 1.9310 0.0000
0.6897 1.9655 0.0000
0.6897 2.0000 0.0000
0.7586 1.0000 0.0000
0.7586 1.0345 0.0000
0.7586 1.0690 0.0000
0.7586 1.1034 0.0000
0.7586 1.1379 0.0000
0.7586 1.1724 0.0000
0.7586 1.2069 0.0000
0.7586 1.2414 0.0000
0.7586 1.2759 0.0000
0.7586 1.3103 0.0000
0.7586 1.3448 0.0000
0.7586 1.3793 0.0000
0.7586 1.4138 0.0000
0.7586 1.4483 0.0000
0.7586 1.4828 0.0000
0.7586 1.5172 0.0000
0.7586 1.5517 0.0000
0.7586 1.5862 0.0000
0.7586 1.6207 0.0000
0.7586 1.6552 0.0000
0.7586 1.6897 0.0000
0.7586 1.7241 0.0000
0.7586 1.7586 0.0000
0.7586 1.7931 0.0000
0.7586 1.8276 0.0000
0.7586 1.8621 0.0000
0.7586 1.8966 0.0000
0.7586 1.9310 0.0000
0.7586 1.9655 0.0000
0.7586 2.0000 0.0000
0.8276 1.0000 0.0000
0.8276 1.0345 0.0000
0.8276 1.0690 0.0000
0.8276 1.1034 0.0000
0.8276 1.1379 0.0000
0.8276 1.1724 0.0000
0.8276 1.2069 0.0000
0.8276 1.2414 0.0000
0.8276 1.2759 0.0000
0.8276 1.3103 0.0000
0.8276 1.3448 0.0000
0.8276 1.3793 0.0000
0.8276 1.4138 0.0000
0.8276 1.4483 0.0000
0.8276 1.4828 0.0000
0.8276 1.5172 0.0000
0.8276 1.5517 0.0000
0.8276 1.5862 0.0000
0.8276 1.6207 0.0000
0.8276 1.6552 0.0000
0.8276 1.6897 0.0000
0.8276 1.7241 0.0000
0.8276 1.7586 0.0000
0.8276 1.7931 0.0000
0.8276 1.8276 0.0000
0.8276 1.8621 0.0000
0.8276 1.8966 0.0000
0.8276 1.9310 0.0000
0.8276 1.9655 0.0000
0.8276 2.0000 0.0000
0.8966 1.0000 0.0000
0.8966 1.0345 0.0000
0.8966 1.0690 0.0000
0.8966 1.1034 0.0000
0.8966 1.1379 0.0000
0.8966 1.1724 0.0000
0.8966 1.2069 0.0000
0.8966 1.2414 0.0000
0.8966 1.2759 0.0000
0.8966 1.3103 0.0000
0.8966 1.3448 0.0000
0.8966 1.3793 0.0000
0.8966 1.4138 0.0000
0.8966 1.4483 0.0000
0.8966 1.4828 0.0000
0.8966 1.5172 0.0000
0.8966 1.5517 0.0000
0.8966 1.5862 0.0000
0.8966 1.6207 0.0000
0.8966 1.6552 0.0000
0.8966 1.6897 0.0000
0.8966 1.7241 0.0000
0.8966 1.7586 0.0000
0.8966 1.7931 0.0000
0.8966 1.8276 0.0000
0.8966 1.8621 0.0000
0.8966 1.8966 0.0000
0.8966 1.9310 0.0000
0.8966 1.9655 0.0000
0.8966 2.0000 0.0000
0.9655 1.0000 0.0000
0.9655 1.0345 0.0000
0.9655 1.0690 0.0000
0.9655 1.1034 0.0000
0.9655 1.1379 0.0000
0.9655 1.1724 0.0000
0.9655 1.2069 0.0000
0.9655 1.2414 0.0000
0.9655 1.2759 0.0000
0.9655 1.3103 0.0000
0.9655 1.3448 0.0000
0.9655 1.3793 0.0000
0.9655 1.4138 0.0000
0.9655 1.4483 0.0000
0.9655 1.4828 0.0000
0.9655 1.5172 0.0000
0.9655 1.5517 0.0000
0.9655 1.5862 0.0000
0.9655 1.6207 0.0000
0.9655 1.6552 0.0000
0.9655 1.6897 0.0000
0.9655 1.7241 0.0000
0.9655 1.7586 0.0000
0.9655 1.7931 0.0000
0.9655 1.8276 0.0000
0.9655 1.8621 0.0000
0.9655 1.8966 0.0000
0.9655 1.9310 0.0000
0.9655 1.9655 0.0000
0.9655 2.0000 0.0000
1.0345 1.0000 0.0000
1.0345 1.0345 0.0000
1.0345 1.0690 0.0000
1.0345 1.1034 0.0000
1.0345 1.1379 0.0000
1.0345 1.1724 0.0000
1.0345 1.2069 0.0000
1.0345 1.2414 0.0000
1.0345 1.2759 0.0000
1.0345 1.3103 0.0000
1.0345 1.3448 0.0000
[...]
         <PointData>
            <DataArray Name="fValues" NumberOfComponents="3" format="ascii" type="Float64">
-2.75205e-17  6.34096e-18        00000 
 1.76622e-17 -1.76622e-17        00000 
-1.16438e-17  2.91095e-17        00000 
-3.65740e-18  1.24351e-17        00000 
 2.03767e-17 -2.03767e-17        00000 
-7.35521e-18  8.34180e-18        00000 
-1.30993e-17  1.16438e-17        00000 
 7.31479e-18 -8.96062e-18        00000 
-2.76540e-17  3.78424e-17        00000 
-6.76769e-19  2.45357e-17        00000 
-5.82190e-18 -1.16438e-17        00000 
-6.58331e-18  6.76618e-17        00000 
 7.64125e-18 -2.32876e-17        00000 
-2.21565e-18  1.94752e-17        00000 
-1.09161e-18  2.61986e-17        00000 
 9.14349e-19 -6.76618e-17        00000 
 1.09161e-18  6.98628e-17        00000 
 4.40258e-18  1.53865e-17        00000 
 1.45548e-18  3.49314e-17        00000 
-3.38309e-18  1.33495e-17        00000 
 1.74657e-17  3.20205e-17        00000 
-1.92521e-17  6.90615e-17        00000 
 2.18321e-17 -1.16438e-17        00000 
-3.84027e-18  2.63333e-17        00000 
 2.61986e-17  1.01883e-17        00000 
 7.00069e-18  3.87264e-17        00000 
 1.30993e-17 -1.60102e-17        00000 
-8.61091e-18  7.51165e-18        00000 
 2.18359e-17  1.28446e-18        00000 
-9.30980e-18 -2.24653e-18        00000 
-8.60827e-02  4.37763e-02        00000 
-1.20615e-01  7.56208e-02        00000 
-1.36429e-01  1.10226e-01        00000 
-1.41899e-01  1.44124e-01        00000 
-1.40902e-01  1.75856e-01        00000 
-1.35509e-01  2.04824e-01        00000 
-1.26950e-01  2.30803e-01        00000 
-1.16022e-01  2.53738e-01        00000 
-1.03275e-01  2.73643e-01        00000 
-8.91191e-02  2.90563e-01        00000 
-7.38694e-02  3.04548e-01        00000 
-5.77832e-02  3.15644e-01        00000 
-4.10788e-02  3.23893e-01        00000 
-2.39485e-02  3.29325e-01        00000 
-6.56804e-03  3.31960e-01        00000 
 1.08959e-02  3.31810e-01        00000 
 2.82796e-02  3.28871e-01        00000 
 4.54168e-02  3.23133e-01        00000 
 6.21321e-02  3.14572e-01        00000 
 7.82343e-02  3.03155e-01        00000 
 9.35069e-02  2.88838e-01        00000 
 1.07695e-01  2.71570e-01        00000 
 1.20486e-01  2.51293e-01        00000 
 1.31480e-01  2.27956e-01        00000 
 1.40134e-01  2.01529e-01        00000 
 1.45672e-01  1.72047e-01        00000 
 1.46904e-01  1.39695e-01        00000 
 1.41845e-01  1.05003e-01        00000 
 1.26845e-01  6.92883e-02        00000 
 9.45471e-02  3.57637e-02        00000 
-2.36407e-01  1.81366e-01        00000 
-2.90887e-01  2.23783e-01        00000 
-3.16538e-01  2.68607e-01        00000 
-3.23694e-01  3.14213e-01        00000 
-3.18384e-01  3.58851e-01        00000 
-3.04296e-01  4.01218e-01        00000 
-2.83795e-01  4.40438e-01        00000 
-2.58476e-01  4.75938e-01        00000 
-2.29468e-01  5.07358e-01        00000 
-1.97611e-01  5.34472e-01        00000 
-1.63552e-01  5.57141e-01        00000 
-1.27816e-01  5.75281e-01        00000 
-9.08450e-02  5.88843e-01        00000 
-5.30250e-02  5.97799e-01        00000 
-1.47068e-02  6.02132e-01        00000 
 2.37783e-02  6.01836e-01        00000 
 6.21058e-02  5.96908e-01        00000 
 9.99449e-02  5.87352e-01        00000 
 1.36946e-01  5.73178e-01        00000 
 1.72726e-01  5.54410e-01        00000 
 2.06847e-01  5.31091e-01        00000 
 2.38789e-01  5.03297e-01        00000 
 2.67913e-01  4.71157e-01        00000 
 2.93393e-01  4.34884e-01        00000 
 3.14122e-01  3.94822e-01        00000 
 3.28540e-01  3.51521e-01        00000 
 3.34341e-01  3.05832e-01        00000 
 3.27942e-01  2.59034e-01        00000 
 3.03492e-01  2.12893e-01        00000 
 2.50574e-01  1.69266e-01        00000 
-4.52734e-01  3.24127e-01        00000 
-5.04405e-01  3.78624e-01        00000 
-5.29132e-01  4.31770e-01        00000 
-5.32524e-01  4.84058e-01        00000 
-5.19716e-01  5.34935e-01        00000 
-4.94626e-01  5.83536e-01        00000 
-4.60144e-01  6.29019e-01        00000 
-4.18412e-01  6.70677e-01        00000 
-3.71044e-01  7.07955e-01        00000 
-3.19282e-01  7.40432e-01        00000 
-2.64115e-01  7.67798e-01        00000 
-2.06351e-01  7.89829e-01        00000 
-1.46674e-01  8.06368e-01        00000 
-8.56830e-02  8.17307e-01        00000 
-2.39202e-02  8.22580e-01        00000 
 3.81018e-02  8.22155e-01        00000 
 9.98811e-02  8.16029e-01        00000 
 1.60907e-01  8.04230e-01        00000 
 2.20637e-01  7.86818e-01        00000 
 2.78478e-01  7.63895e-01        00000 
 3.33749e-01  7.35612e-01        00000 
 3.85652e-01  7.02186e-01        00000 
 4.33207e-01  6.63919e-01        00000 
 4.75186e-01  6.21223e-01        00000 
 5.09999e-01  5.74646e-01        00000 
 5.35532e-01  5.24889e-01        00000 
 5.48932e-01  4.72797e-01        00000 
 5.46321e-01  4.19255e-01        00000 
 5.22549e-01  3.64878e-01        00000 
 4.71974e-01  3.09208e-01        00000 
-7.24469e-01  4.44854e-01        00000 
-7.62595e-01  5.09883e-01        00000 
-7.75866e-01  5.71573e-01        00000 
-7.68011e-01  6.30395e-01        00000 
-7.42636e-01  6.86389e-01        00000 
-7.03016e-01  7.39233e-01        00000 
-6.51925e-01  7.88428e-01        00000 
-5.91639e-01  8.33440e-01        00000 
-5.24012e-01  8.73769e-01        00000 
-4.50558e-01  9.08985e-01        00000 
-3.72530e-01  9.38733e-01        00000 
-2.90986e-01  9.62734e-01        00000 
-2.06836e-01  9.80776e-01        00000 
-1.20890e-01  9.92708e-01        00000 
-3.38883e-02  9.98434e-01        00000 
 5.34685e-02  9.97903e-01        00000 
 1.40493e-01  9.91115e-01        00000 
 2.26486e-01  9.78113e-01        00000 
 3.10709e-01  9.58990e-01        00000 
 3.92357e-01  9.33893e-01        00000 
 4.70522e-01  9.03028e-01        00000 
 5.44156e-01  8.66672e-01        00000 
 6.12012e-01  8.25175e-01        00000 
 6.72587e-01  7.78965e-01        00000 
 7.24042e-01  7.28544e-01        00000 
 7.64114e-01  6.74451e-01        00000 
 7.90036e-01  6.17198e-01        00000 
 7.98530e-01  5.57132e-01        00000 
 7.85973e-01  4.94238e-01        00000 
 7.48598e-01  4.28076e-01        00000 
-1.04480e+00  5.28406e-01        00000 
-1.06284e+00  6.03203e-01        00000 
-1.05764e+00  6.73151e-01        00000 
-1.03196e+00  7.38677e-01        00000 
-9.88564e-01  7.99942e-01        00000 
-9.30107e-01  8.56892e-01        00000 
-8.59025e-01  9.09312e-01        00000 
-7.77479e-01  9.56897e-01        00000 
-6.87354e-01  9.99311e-01        00000 
-5.90276e-01  1.03622e+00        00000 
-4.87656e-01  1.06734e+00        00000 
-3.80724e-01  1.09241e+00        00000 
-2.70571e-01  1.11124e+00        00000 
-1.58187e-01  1.12367e+00        00000 
-4.44850e-02  1.12960e+00        00000 
 6.96599e-02  1.12899e+00        00000 
 1.83388e-01  1.12184e+00        00000 
 2.95827e-01  1.10819e+00        00000 
 4.06063e-01  1.08813e+00        00000 
 5.13111e-01  1.06182e+00        00000 
 6.15882e-01  1.02945e+00        00000 
 7.13150e-01  9.91273e-01        00000 
 8.03511e-01  9.47585e-01        00000 
 8.85341e-01  8.98716e-01        00000 
 9.56761e-01  8.45007e-01        00000 
 1.01561e+00  7.86774e-01        00000 
 1.05945e+00  7.24243e-01        00000 
 1.08561e+00  6.57483e-01        00000 
 1.09130e+00  5.86351e-01        00000 
 1.07374e+00  5.10435e-01        00000 
-1.40990e+00  5.64910e-01        00000 
-1.40305e+00  6.48955e-01        00000 
-1.37411e+00  7.26951e-01        00000 
-1.32533e+00  7.99230e-01        00000 
-1.25902e+00  8.65991e-01        00000 
-1.17743e+00  9.27300e-01        00000 
-1.08270e+00  9.83114e-01        00000 
-9.76825e-01  1.03331e+00        00000 
-8.61615e-01  1.07771e+00        00000 
-7.38708e-01  1.11612e+00        00000 
-6.09577e-01  1.14836e+00        00000 
-4.75548e-01  1.17424e+00        00000 
-3.37831e-01  1.19362e+00        00000 
-1.97540e-01  1.20638e+00        00000 
-5.57267e-02  1.21245e+00        00000 
 8.65991e-02  1.21179e+00        00000 
 2.28440e-01  1.20439e+00        00000 
 3.68785e-01  1.19030e+00        00000 
 5.06585e-01  1.16960e+00        00000 
 6.40727e-01  1.14239e+00        00000 
 7.70002e-01  1.10882e+00        00000 
 8.93085e-01  1.06907e+00        00000 
 1.00851e+00  1.02334e+00        00000 
 1.11463e+00  9.71823e-01        00000 
 1.20963e+00  9.14697e-01        00000 
 1.29153e+00  8.52096e-01        00000 
 1.35816e+00  7.84074e-01        00000 
 1.40727e+00  7.10573e-01        00000 
 1.43652e+00  6.31406e-01        00000 
 1.44363e+00  5.46249e-01        00000 
-1.81766e+00  5.46327e-01        00000 
-1.78187e+00  6.39329e-01        00000 
-1.72479e+00  7.25203e-01        00000 
-1.64845e+00  8.04229e-01        00000 
-1.55492e+00  8.76620e-01        00000 
-1.44620e+00  9.42514e-01        00000 
-1.32423e+00  1.00198e+00        00000 
-1.19086e+00  1.05502e+00        00000 
-1.04780e+00  1.10159e+00        00000 
-8.96662e-01  1.14164e+00        00000 
-7.38907e-01  1.17507e+00        00000 
-5.75903e-01  1.20179e+00        00000 
-4.08916e-01  1.22174e+00        00000 
-2.39138e-01  1.23485e+00        00000 
-6.77017e-02  1.24107e+00        00000 
 1.04291e-01  1.24037e+00        00000 
 2.75751e-01  1.23277e+00        00000 
 4.45577e-01  1.21828e+00        00000 
 6.12637e-01  1.19695e+00        00000 
 7.75738e-01  1.16885e+00        00000 
 9.33615e-01  1.13404e+00        00000 
 1.08490e+00  1.09264e+00        00000 
 1.22813e+00  1.04471e+00        00000 
 1.36168e+00  9.90333e-01        00000 
 1.48385e+00  9.29556e-01        00000 
 1.59278e+00  8.62377e-01        00000 
 1.68652e+00  7.88736e-01        00000 
 1.76305e+00  7.08503e-01        00000 
 1.82029e+00  6.21470e-01        00000 
 1.85619e+00  5.27362e-01        00000 
-2.26700e+00  4.65196e-01        00000 
-2.19842e+00  5.66980e-01        00000 
-2.10921e+00  6.60593e-01        00000 
-2.00131e+00  7.46305e-01        00000 
-1.87665e+00  8.24358e-01        00000 
-1.73710e+00  8.94948e-01        00000 
-1.58447e+00  9.58229e-01        00000 
-1.42049e+00  1.01431e+00        00000 
-1.24679e+00  1.06326e+00        00000 
-1.06492e+00  1.10511e+00        00000 
-8.76301e-01  1.13989e+00        00000 
-6.82304e-01  1.16759e+00        00000 
-4.84204e-01  1.18820e+00        00000 
-2.83217e-01  1.20171e+00        00000 
-8.05122e-02  1.20812e+00        00000 
 1.22768e-01  1.20742e+00        00000 
 3.25491e-01  1.19960e+00        00000 
 5.26516e-01  1.18468e+00        00000 
 7.24671e-01  1.16267e+00        00000 
 9.18741e-01  1.13358e+00        00000 
 1.10745e+00  1.09742e+00        00000 
 1.28943e+00  1.05420e+00        00000 
 1.46324e+00  1.00390e+00        00000 
 1.62734e+00  9.46488e-01        00000 
 1.78009e+00  8.81907e-01        00000 
 1.91976e+00  8.10048e-01        00000 
 2.04452e+00  7.30764e-01        00000 
 2.15249e+00  6.43862e-01        00000 
 2.24174e+00  5.49104e-01        00000 
 2.31030e+00  4.46223e-01        00000 
-2.75732e+00  3.14003e-01        00000 
-2.65210e+00  4.24439e-01        00000 
-2.52691e+00  5.25644e-01        00000 
-2.38365e+00  6.17924e-01        00000 
-2.22420e+00  7.01568e-01        00000 
-2.05034e+00  7.76842e-01        00000 
-1.86379e+00  8.43980e-01        00000 
-1.66619e+00  9.03178e-01        00000 
-1.45909e+00  9.54601e-01        00000 
-1.24397e+00  9.98379e-01        00000 
-1.02221e+00  1.03461e+00        00000 
-7.95129e-01  1.06338e+00        00000 
-5.63981e-01  1.08473e+00        00000 
-3.29964e-01  1.09872e+00        00000 
-9.42392e-02  1.10535e+00        00000 
 1.42056e-01  1.10465e+00        00000 
 3.77794e-01  1.09661e+00        00000 
 6.11834e-01  1.08123e+00        00000 
 8.43017e-01  1.05848e+00        00000 
 1.07014e+00  1.02833e+00        00000 
 1.29195e+00  9.90723e-01        00000 
 1.50714e+00  9.45593e-01        00000 
 1.71429e+00  8.92839e-01        00000 
 1.91195e+00  8.32334e-01        00000 
 2.09855e+00  7.63920e-01        00000 
 2.27244e+00  6.87401e-01        00000 
 2.43190e+00  6.02549e-01        00000 
 2.57513e+00  5.09101e-01        00000 
 2.70026e+00  4.06768e-01        00000 
 2.80536e+00  2.95248e-01        00000 
-3.28815e+00  8.49038e-02        00000 
-3.14232e+00  2.03844e-01        00000 
-2.97728e+00  3.12455e-01        00000 
-2.79496e+00  4.11111e-01        00000 
-2.59718e+00  5.00179e-01        00000 
-2.38567e+00  5.80004e-01        00000 
-2.16207e+00  6.50906e-01        00000 
-1.92795e+00  7.13171e-01        00000 
-1.68478e+00  7.67050e-01        00000 
-1.43395e+00  8.12756e-01        00000 
-1.17679e+00  8.50470e-01        00000 
-9.14528e-01  8.80336e-01        00000 
-6.48374e-01  9.02465e-01        00000 
-3.79469e-01  9.16943e-01        00000 
-1.08927e-01  9.23822e-01        00000 
 1.62160e-01  9.23131e-01        00000 
 4.32707e-01  9.14871e-01        00000 
 7.01621e-01  8.99017e-01        00000 
 9.67789e-01  8.75520e-01        00000 
 1.23006e+00  8.44298e-01        00000 
 1.48725e+00  8.05244e-01        00000 
 1.73809e+00  7.58215e-01        00000 
 1.98126e+00  7.03036e-01        00000 
 2.21538e+00  6.39497e-01        00000 
 2.43895e+00  5.67349e-01        00000 
 2.65043e+00  4.86310e-01        00000 
 2.84814e+00  3.96064e-01        00000 
 3.03035e+00  2.96265e-01        00000 
 3.19524e+00  1.86550e-01        00000 
 3.34086e+00  6.65427e-02        00000 
-3.85885e+00 -2.30380e-01        00000 
-3.66827e+00 -1.03146e-01        00000 
-3.45948e+00  1.26097e-02        00000 
-3.23440e+00  1.17364e-01        00000 
-2.99483e+00  2.11583e-01        00000 
-2.74243e+00  2.95713e-01        00000 
-2.47878e+00  3.70169e-01        00000 
-2.20536e+00  4.35328e-01        00000 
-1.92355e+00  4.91530e-01        00000 
-1.63465e+00  5.39068e-01        00000 
-1.33988e+00  5.78194e-01        00000 
-1.04041e+00  6.09115e-01        00000 
-7.37333e-01  6.31995e-01        00000 
-4.31713e-01  6.46957e-01        00000 
-1.24581e-01  6.54081e-01        00000 
 1.83053e-01  6.53410e-01        00000 
 4.90182e-01  6.44944e-01        00000 
 7.95797e-01  6.28645e-01        00000 
 1.09887e+00  6.04437e-01        00000 
 1.39833e+00  5.72200e-01        00000 
 1.69307e+00  5.31774e-01        00000 
 1.98194e+00  4.82954e-01        00000 
 2.26371e+00  4.25492e-01        00000 
 2.53707e+00  3.59098e-01        00000 
 2.80064e+00  2.83435e-01        00000 
 3.05293e+00  1.98127e-01        00000 
 3.29238e+00  1.02763e-01        00000 
 3.51728e+00 -3.10245e-03        00000 
 3.72585e+00 -1.19935e-01        00000 
 3.91617e+00 -2.48212e-01        00000 
-4.46844e+00 -6.40575e-01        00000 
-4.22879e+00 -5.05360e-01        00000 
-3.97226e+00 -3.82824e-01        00000 
-3.70074e+00 -2.72356e-01        00000 
-3.41596e+00 -1.73363e-01        00000 
-3.11953e+00 -8.52835e-02        00000 
-2.81295e+00 -7.59345e-03        00000 
-2.49759e+00  6.01850e-02        00000 
-2.17471e+00  1.18480e-01        00000 
-1.84550e+00  1.67665e-01        00000 
-1.51107e+00  2.08062e-01        00000 
-1.17246e+00  2.39934e-01        00000 
-8.30644e-01  2.63493e-01        00000 
-4.86576e-01  2.78896e-01        00000 
-1.41169e-01  2.86248e-01        00000 
 2.04679e-01  2.85601e-01        00000 
 5.50078e-01  2.76958e-01        00000 
 8.94128e-01  2.60268e-01        00000 
 1.23591e+00  2.35431e-01        00000 
 1.57449e+00  2.02292e-01        00000 
 1.90887e+00  1.60644e-01        00000 
 2.23801e+00  1.10224e-01        00000 
 2.56080e+00  5.07163e-02        00000 
 2.87605e+00 -1.82517e-02        00000 
 3.18250e+00 -9.71055e-02        00000 
 3.47877e+00 -1.86321e-01        00000 
 3.76336e+00 -2.86420e-01        00000 
 4.03465e+00 -3.97963e-01        00000 
 4.29091e+00 -5.21544e-01        00000 
 4.53024e+00 -6.57772e-01        00000 
-5.11537e+00 -1.15481e+00        00000 
-4.82222e+00 -1.01207e+00        00000 
-4.51390e+00 -8.83245e-01        00000 
-4.19224e+00 -7.67568e-01        00000 
-3.85893e+00 -6.64294e-01        00000 
-3.51547e+00 -5.72725e-01        00000 
-3.16322e+00 -4.92214e-01        00000 
-2.80344e+00 -4.22177e-01        00000 
-2.43724e+00 -3.62092e-01        00000 
-2.06568e+00 -3.11505e-01        00000 
-1.68969e+00 -2.70031e-01        00000 
-1.31017e+00 -2.37351e-01        00000 
-9.27961e-01 -2.13214e-01        00000 
-5.43857e-01 -1.97432e-01        00000 
-1.58631e-01 -1.89881e-01        00000 
 2.26962e-01 -1.90499e-01        00000 
 6.12173e-01 -1.99284e-01        00000 
 9.96246e-01 -2.16296e-01        00000 
 1.37841e+00 -2.41654e-01        00000 
 1.75786e+00 -2.75545e-01        00000 
 2.13377e+00 -3.18216e-01        00000 
 2.50524e+00 -3.69983e-01        00000 
 2.87131e+00 -4.31229e-01        00000 
 3.23094e+00 -5.02405e-01        00000 
 3.58301e+00 -5.84031e-01        00000 
 3.92627e+00 -6.76689e-01        00000 
 4.25934e+00 -7.81026e-01        00000 
 4.58072e+00 -8.97738e-01        00000 
 4.88873e+00 -1.02757e+00        00000 
 5.18152e+00 -1.17129e+00        00000 
-5.79739e+00 -1.78256e+00        00000 
-5.44620e+00 -1.63291e+00        00000 
-5.08203e+00 -1.49844e+00        00000 
-4.70664e+00 -1.37820e+00        00000 
-4.32159e+00 -1.27126e+00        00000 
-3.92824e+00 -1.17676e+00        00000 
-3.52782e+00 -1.09392e+00        00000 
-3.12136e+00 -1.02204e+00        00000 
-2.70984e+00 -9.60516e-01        00000 
-2.29408e+00 -9.08804e-01        00000 
-1.87487e+00 -8.66463e-01        00000 
-1.45290e+00 -8.33131e-01        00000 
-1.02883e+00 -8.08521e-01        00000 
-6.03294e-01 -7.92426e-01        00000 
-1.76886e-01 -7.84706e-01        00000 
 2.49804e-01 -7.85293e-01        00000 
 6.76192e-01 -7.94184e-01        00000 
 1.10169e+00 -8.11447e-01        00000 
 1.52569e+00 -8.37216e-01        00000 
 1.94758e+00 -8.71698e-01        00000 
 2.36669e+00 -9.15176e-01        00000 
 2.78231e+00 -9.68010e-01        00000 
 3.19368e+00 -1.03064e+00        00000 
 3.59995e+00 -1.10360e+00        00000 
 4.00017e+00 -1.18750e+00        00000 
 4.39327e+00 -1.28304e+00        00000 
 4.77804e+00 -1.39100e+00        00000 
 5.15312e+00 -1.51223e+00        00000 
 5.51694e+00 -1.64766e+00        00000 
 5.86774e+00 -1.79825e+00        00000 
-6.51139e+00 -2.53350e+00        00000 
-6.09758e+00 -2.37777e+00        00000 
-5.67357e+00 -2.23850e+00        00000 
-5.24099e+00 -2.11449e+00        00000 
-4.80121e+00 -2.00461e+00        00000 
-4.35542e+00 -1.90783e+00        00000 
-3.90457e+00 -1.82322e+00        00000 
-3.44952e+00 -1.74995e+00        00000 
-2.99094e+00 -1.68733e+00        00000 
-2.52947e+00 -1.63476e+00        00000 
-2.06563e+00 -1.59174e+00        00000 
-1.59991e+00 -1.55788e+00        00000 
-1.13275e+00 -1.53288e+00        00000 
-6.64593e-01 -1.51652e+00        00000 
-1.95840e-01 -1.50865e+00        00000 
 2.73103e-01 -1.50920e+00        00000 
 7.41832e-01 -1.51818e+00        00000 
 1.20994e+00 -1.53564e+00        00000 
 1.67702e+00 -1.56174e+00        00000 
 2.14264e+00 -1.59668e+00        00000 
 2.60636e+00 -1.64077e+00        00000 
 3.06767e+00 -1.69441e+00        00000 
 3.52606e+00 -1.75807e+00        00000 
 3.98091e+00 -1.83236e+00        00000 
 4.43150e+00 -1.91798e+00        00000 
 4.87703e+00 -2.01574e+00        00000 
 5.31649e+00 -2.12659e+00        00000 
 5.74873e+00 -2.25154e+00        00000 
 6.17236e+00 -2.39173e+00        00000 
 6.58576e+00 -2.54836e+00        00000 
-7.25319e+00 -3.41745e+00        00000 
-6.77223e+00 -3.25671e+00        00000 
-6.28457e+00 -3.11368e+00        00000 
-5.79161e+00 -2.98688e+00        00000 
-5.29448e+00 -2.87492e+00        00000 
-4.79405e+00 -2.77658e+00        00000 
-4.29099e+00 -2.69077e+00        00000 
-3.78579e+00 -2.61655e+00        00000 
-3.27886e+00 -2.55314e+00        00000 
-2.77050e+00 -2.49990e+00        00000 
-2.26096e+00 -2.45631e+00        00000 
-1.75047e+00 -2.42198e+00        00000 
-1.23924e+00 -2.39659e+00        00000 
-7.27478e-01 -2.37996e+00        00000 
-2.15406e-01 -2.37193e+00        00000 
 2.96760e-01 -2.37245e+00        00000 
 8.08803e-01 -2.38151e+00        00000 