<?xml version="1.0" encoding="utf-8"?>
<VTKFile byte_order="LittleEndian" type="UnstructuredGrid" version="0.1">
   <UnstructuredGrid>
      <Piece NumberOfCells="3364" NumberOfPoints="1741">
         <Points>
            <DataArray Name="Points" NumberOfComponents="3" format="ascii" type="Float32">
0.0000 1.0000 0.0000
0.0000 1.0345 0.0000
0.0000 1.0690 0.0000
0.0000 1.1034 0.0000
0.0000 1.1379 0.0000
0.0000 1.1724 0.0000
0.0000 1.2069 0.0000
0.0000 1.2414 0.0000
0.0000 1.2759 0.0000
0.0000 1.3103 0.0000
0.0000 1.3448 0.0000
0.0000 1.3793 0.0000
0.0000 1.4138 0.0000
0.0000 1.4483 0.0000
0.0000 1.4828 0.0000
0.0000 1.5172 0.0000
0.0000 1.5517 0.0000
0.0000 1.5862 0.0000
0.0000 1.6207 0.0000
0.0000 1.6552 0.0000
0.0000 1.6897 0.0000
0.0000 1.7241 0.0000
0.0000 1.7586 0.0000
0.0000 1.7931 0.0000
0.0000 1.8276 0.0000
0.0000 1.8621 0.0000
0.0000 1.8966 0.0000
0.0000 1.9310 0.0000
0.0000 1.9655 0.0000
0.0000 2.0000 0.0000
0.0690 1.0000 0.0000
0.0690 1.0345 0.0000
0.0690 1.0690 0.0000
0.0690 1.1034 0.0000
0.0690 1.1379 0.0000
0.0690 1.1724 0.0000
0.0690 1.2069 0.0000
0.0690 1.2414 0.0000
0.0690 1.2759 0.0000
0.0690 1.3103 0.0000
0.0690 1.3448 0.0000
0.0690 1.3793 0.0000
0.0690 1.4138 0.0000
0.0690 1.4483 0.0000
0.0690 1.4828 0.0000
0.0690 1.5172 0.0000
0.0690 1.5517 0.0000
0.0690 1.5862 0.0000
0.0690 1.6207 0.0000
0.0690 1.6552 0.0000
0.0690 1.6897 0.0000
0.0690 1.7241 0.0000
0.0690 1.7586 0.0000
0.0690 1.7931 0.0000
0.0690 1.8276 0.0000
0.0690 1.8621 0.0000
0.0690 1.8966 0.0000
0.0690 1.9310 0.0000
0.0690 1.9655 0.0000
0.0690 2.0000 0.0000
0.1379 1.0000 0.0000
0.1379 1.0345 0.0000
0.1379 1.0690 0.0000
0.1379 1.1034 0.0000
0.1379 1.1379 0.0000
0.1379 1.1724 0.0000
0.1379 1.2069 0.0000
0.1379 1.2414 0.0000
0.1379 1.2759 0.0000
0.1379 1.3103 0.0000
0.1379 1.3448 0.0000
0.1379 1.3793 0.0000
0.1379 1.4138 0.0000
0.1379 1.4483 0.0000
0.1379 1.4828 0.0000
0.1379 1.5172 0.0000
0.1379 1.5517 0.0000
0.1379 1.5862 0.0000
0.1379 1.6207 0.0000
0.1379 1.6552 0.0000
0.1379 1.6897 0.0000
0.1379 1.7241 0.0000
0.1379 1.7586 0.0000
0.1379 1.7931 0.0000
0.1379 1.8276 0.0000
0.1379 1.8621 0.0000
0.1379 1.8966 0.0000
0.1379 1.9310 0.0000
0.1379 1.9655 0.0000
0.1379 2.0000 0.0000
0.2069 1.0000 0.0000
0.2069 1.0345 0.0000
0.2069 1.0690 0.0000
0.2069 1.1034 0.0000
0.2069 1.1379 0.0000
0.2069 1.1724 0.0000
0.2069 1.2069 0.0000
0.2069 1.2414 0.0000
0.2069 1.2759 0.0000
0.2069 1.3103 0.0000
0.2069 1.3448 0.0000
0.2069 1.3793 0.0000
0.2069 1.4138 0.0000
0.2069 1.4483 0.0000
0.2069 1.4828 0.0000
0.2069 1.5172 0.0000
0.2069 1.5517 0.0000
0.2069 1.5862 0.0000
0.2069 1.6207 0.0000
0.2069 1.6552 0.0000
0.2069 1.6897 0.0000
0.2069 1.7241 0.0000
0.2069 1.7586 0.0000
0.2069 1.7931 0.0000
0.2069 1.8276 0.0000
0.2069 1.8621 0.0000
0.2069 1.8966 0.0000
0.2069 1.9310 0.0000
0.2069 1.9655 0.0000
0.2069 2.0000 0.0000
0.2759 1.0000 0.0000
0.2759 1.0345 0.0000
0.2759 1.0690 0.0000
0.2759 1.1034 0.0000
0.2759 1.1379 0.0000
0.2759 1.1724 0.0000
0.2759 1.2069 0.0000
0.2759 1.2414 0.0000
0.2759 1.2759 0.0000
0.2759 1.3103 0.0000
0.2759 1.3448 0.0000
0.2759 1.3793 0.0000
0.2759 1.4138 0.0000
0.2759 1.4483 0.0000
0.2759 1.4828 0.0000
0.2759 1.5172 0.0000
0.2759 1.5517 0.0000
0.2759 1.5862 0.0000
0.2759 1.6207 0.0000
0.2759 1.6552 0.0000
0.2759 1.6897 0.0000
0.2759 1.7241 0.0000
0.2759 1.7586 0.0000
0.2759 1.7931 0.0000
0.2759 1.8276 0.0000
0.2759 1.8621 0.0000
0.2759 1.8966 0.0000
0.2759 1.9310 0.0000
0.2759 1.9655 0.0000
0.2759 2.0000 0.0000
0.3448 1.0000 0.0000
0.3448 1.0345 0.0000
0.3448 1.0690 0.0000
0.3448 1.1034 0.0000
0.3448 1.1379 0.0000
0.3448 1.1724 0.0000
0.3448 1.2069 0.0000
0.3448 1.2414 0.0000
0.3448 1.2759 0.0000
0.3448 1.3103 0.0000
0.3448 1.3448 0.0000
0.3448 1.3793 0.0000
0.3448 1.4138 0.0000
0.3448 1.4483 0.0000
0.3448 1.4828 0.0000
0.3448 1.5172 0.0000
0.3448 1.5517 0.0000
0.3448 1.5862 0.0000
0.3448 1.6207 0.0000
0.3448 1.6552 0.0000
0.3448 1.6897 0.0000
0.3448 1.7241 0.0000
0.3448 1.7586 0.0000
0.3448 1.7931 0.0000
0.3448 1.8276 0.0000
0.3448 1.8621 0.0000
0.3448 1.8966 0.0000
0.3448 1.9310 0.0000
0.3448 1.9655 0.0000
0.3448 2.0000 0.0000
0.4138 1.0000 0.0000
0.4138 1.0345 0.0000
0.4138 1.0690 0.0000
0.4138 1.1034 0.0000
0.4138 1.1379 0.0000
0.4138 1.1724 0.0000
0.4138 1.2069 0.0000
0.4138 1.2414 0.0000
0.4138 1.2759 0.0000
0.4138 1.3103 0.0000
0.4138 1.3448 0.0000
0.4138 1.3793 0.0000
0.4138 1.4138 0.0000
0.4138 1.4483 0.0000
0.4138 1.4828 0.0000
0.4138 1.5172 0.0000
0.4138 1.5517 0.0000
0.4138 1.5862 0.0000
0.4138 1.6207 0.0000
0.4138 1.6552 0.0000
0.4138 1.6897 0.0000
0.4138 1.7241 0.0000
0.4138 1.7586 0.0000
0.4138 1.7931 0.0000
0.4138 1.8276 0.0000
0.4138 1.8621 0.0000
0.4138 1.8966 0.0000
0.4138 1.9310 0.0000
0.4138 1.9655 0.0000
0.4138 2.0000 0.0000
0.4828 1.0000 0.0000
0.4828 1.0345 0.0000
0.4828 1.0690 0.0000
0.4828 1.1034 0.0000
0.4828 1.1379 0.0000
0.4828 1.1724 0.0000
0.4828 1.2069 0.0000
0.4828 1.2414 0.0000
0.4828 1.2759 0.0000
0.4828 1.3103 0.0000
0.4828 1.3448 0.0000
0.4828 1.3793 0.0000
0.4828 1.4138 0.0000
0.4828 1.4483 0.0000
0.4828 1.4828 0.0000
0.4828 1.5172 0.0000
0.4828 1.5517 0.0000
0.4828 1.5862 0.0000
0.4828 1.6207 0.0000
0.4828 1.6552 0.0000
0.4828 1.6897 0.0000
0.4828 1.7241 0.0000
0.4828 1.7586 0.0000
0.4828 1.7931 0.0000
0.4828 1.8276 0.0000
0.4828 1.8621 0.0000
0.4828 1.8966 0.0000
0.4828 1.9310 0.0000
0.4828 1.9655 0.0000
0.4828 2.0000 0.0000
0.5517 1.0000 0.0000
0.5517 1.0345 0.0000
0.5517 1.0690 0.0000
0.5517 1.1034 0.0000
0.5517 1.1379 0.0000
0.5517 1.1724 0.0000
0.5517 1.2069 0.0000
0.5517 1.2414 0.0000
0.5517 1.2759 0.0000
0.5517 1.3103 0.0000
0.5517 1.3448 0.0000
0.5517 1.3793 0.0000
0.5517 1.4138 0.0000
0.5517 1.4483 0.0000
0.5517 1.4828 0.0000
0.5517 1.5172 0.0000
0.5517 1.5517 0.0000
0.5517 1.5862 0.0000
0.5517 1.6207 0.0000
0.5517 1.6552 0.0000
0.5517 1.6897 0.0000
0.5517 1.7241 0.0000
0.5517 1.7586 0.0000
0.5517 1.7931 0.0000
0.5517 1.8276 0.0000
0.5517 1.8621 0.0000
0.5517 1.8966 0.0000
0.5517 1.9310 0.0000
0.5517 1.9655 0.0000
0.5517 2.0000 0.0000
0.6207 1.0000 0.0000
0.6207 1.0345 0.0000
0.6207 1.0690 0.0000
0.6207 1.1034 0.0000
0.6207 1.1379 0.0000
0.6207 1.1724 0.0000
0.6207 1.2069 0.0000
0.6207 1.2414 0.0000
0.6207 1.2759 0.0000
0.6207 1.3103 0.0000
0.6207 1.3448 0.0000
0.6207 1.3793 0.0000
0.6207 1.4138 0.0000
0.6207 1.4483 0.0000
0.6207 1.4828 0.0000
0.6207 1.5172 0.0000
0.6207 1.5517 0.0000
0.6207 1.5862 0.0000
0.6207 1.6207 0.0000
0.6207 1.6552 0.0000
0.6207 1.6897 0.0000
0.6207 1.7241 0.0000
0.6207 1.7586 0.0000
0.6207 1.7931 0.0000
0.6207 1.8276 0.0000
0.6207 1.8621 0.0000
0.6207 1.8966 0.0000
0.6207 1.9310 0.0000
0.6207 1.9655 0.0000
0.6207 2.0000 0.0000
0.6897 1.0000 0.0000
0.6897 1.0345 0.0000
0.6897 1.0690 0.0000
0.6897 1.1034 0.0000
0.6897 1.1379 0.0000
0.6897 1.1724 0.0000
0.6897 1.2069 0.0000
0.6897 1.2414 0.0000
0.6897 1.2759 0.0000
0.6897 1.3103 0.0000
0.6897 1.3448 0.0000
0.6897 1.3793 0.0000
0.6897 1.4138 0.0000
0.6897 1.4483 0.0000
0.6897 1.4828 0.0000
0.6897 1.5172 0.0000
0.6897 1.5517 0.0000
0.6897 1.5862 0.0000
0.6897 1.6207 0.0000
0.6897 1.6552 0.0000
0.6897 1.6897 0.0000
0.6897 1.7241 0.0000
0.6897 1.7586 0.0000
0.6897 1.7931 0.0000
0.6897 1.8276 0.0000
0.6897 1.8621 0.0000
0.6897 1.8966 0.0000
0.6897 1.9310 0.0000
0.6897 1.9655 0.0000
0.6897 2.0000 0.0000
0.7586 1.0000 0.0000
0.7586 1.0345 0.0000
0.7586 1.0690 0.0000
0.7586 1.1034 0.0000
0.7586 1.1379 0.0000
0.7586 1.1724 0.0000
0.7586 1.2069 0.0000
0.7586 1.2414 0.0000
0.7586 1.2759 0.0000
0.7586 1.3103 0.0000
0.7586 1.3448 0.0000
0.7586 1.3793 0.0000
0.7586 1.4138 0.0000
0.7586 1.4483 0.0000
0.7586 1.4828 0.0000
0.7586 1.5172 0.0000
0.7586 1.5517 0.0000
0.7586 1.5862 0.0000
0.7586 1.6207 0.0000
0.7586 1.6552 0.0000
0.7586 1.6897 0.0000
0.7586 1.7241 0.0000
0.7586 1.7586 0.0000
0.7586 1.7931 0.0000
0.7586 1.8276 0.0000
0.7586 1.8621 0.0000
0.7586 1.8966 0.0000
0.7586 1.9310 0.0000
0.7586 1.9655 0.0000
0.7586 2.0000 0.0000
0.8276 1.0000 0.0000
0.8276 1.0345 0.0000
0.8276 1.0690 0.0000
0.8276 1.1034 0.0000
0.8276 1.1379 0.0000
0.8276 1.1724 0.0000
0.8276 1.2069 0.0000
0.8276 1.2414 0.0000
0.8276 1.2759 0.0000
0.8276 1.3103 0.0000
0.8276 1.3448 0.0000
0.8276 1.3793 0.0000
0.8276 1.4138 0.0000
0.8276 1.4483 0.0000
0.8276 1.4828 0.0000
0.8276 1.5172 0.0000
0.8276 1.5517 0.0000
0.8276 1.5862 0.0000
0.8276 1.6207 0.0000
0.8276 1.6552 0.0000
0.8276 1.6897 0.0000
0.8276 1.7241 0.0000
0.8276 1.7586 0.0000
0.8276 1.7931 0.0000
0.8276 1.8276 0.0000
0.8276 1.8621 0.0000
0.8276 1.8966 0.0000
0.8276 1.9310 0.0000
0.8276 1.9655 0.0000
0.8276 2.0000 0.0000
0.8966 1.0000 0.0000
0.8966 1.0345 0.0000
0.8966 1.0690 0.0000
0.8966 1.1034 0.0000
0.8966 1.1379 0.0000
0.8966 1.1724 0.0000
0.8966 1.2069 0.0000
0.8966 1.2414 0.0000
0.8966 1.2759 0.0000
0.8966 1.3103 0.0000
0.8966 1.3448 0.0000
0.8966 1.3793 0.0000
0.8966 1.4138 0.0000
0.8966 1.4483 0.0000
0.8966 1.4828 0.0000
0.8966 1.5172 0.0000
0.8966 1.5517 0.0000
0.8966 1.5862 0.0000
0.8966 1.6207 0.0000
0.8966 1.6552 0.0000
0.8966 1.6897 0.0000
0.8966 1.7241 0.0000
0.8966 1.7586 0.0000
0.8966 1.7931 0.0000
0.8966 1.8276 0.0000
0.8966 1.8621 0.0000
0.8966 1.8966 0.0000
0.8966 1.9310 0.0000
0.8966 1.9655 0.0000
0.8966 2.0000 0.0000
0.9655 1.0000 0.0000
0.9655 1.0345 0.0000
0.9655 1.0690 0.0000
0.9655 1.1034 0.0000
0.9655 1.1379 0.0000
0.9655 1.1724 0.0000
0.9655 1.2069 0.0000
0.9655 1.2414 0.0000
0.9655 1.2759 0.0000
0.9655 1.3103 0.0000
0.9655 1.3448 0.0000
0.9655 1.3793 0.0000
0.9655 1.4138 0.0000
0.9655 1.4483 0.0000
0.9655 1.4828 0.0000
0.9655 1.5172 0.0000
0.9655 1.5517 0.0000
0.9655 1.5862 0.0000
0.9655 1.6207 0.0000
0.9655 1.6552 0.0000
0.9655 1.6897 0.0000
0.9655 1.7241 0.0000
0.9655 1.7586 0.0000
0.9655 1.7931 0.0000
0.9655 1.8276 0.0000
0.9655 1.8621 0.0000
0.9655 1.8966 0.0000
0.9655 1.9310 0.0000
0.9655 1.9655 0.0000
0.9655 2.0000 0.0000
1.0345 1.0000 0.0000
1.0345 1.0345 0.0000
1.0345 1.0690 0.0000
1.0345 1.1034 0.0000
1.0345 1.1379 0.0000
1.0345 1.1724 0.0000
1.0345 1.2069 0.0000
1.0345 1.2414 0.0000
1.0345 1.2759 0.0000
1.0345 1.3103 0.0000
1.0345 1.3448 0.0000
[...]
         <PointData>
            <DataArray Name="fValues" NumberOfComponents="3" format="ascii" type="Float64">
-2.12907e-17  2.19388e-18        00000 
 2.35496e-17 -5.88739e-18        00000 
-3.20205e-17  2.91095e-18        00000 
 2.06643e-17 -5.66896e-18        00000 
-1.16438e-17 -5.82190e-18        00000 
-2.11159e-17 -2.39057e-17        00000 
 1.45548e-18  2.91095e-18        00000 
-1.82870e-19  1.11551e-17        00000 
-1.45548e-17 -8.73285e-18        00000 
-5.74680e-18 -3.43432e-17        00000 
 7.27738e-18  2.91095e-18        00000 
-1.38295e-17 -2.30416e-17        00000 
 9.82446e-18  2.91095e-17        00000 
-8.60572e-18 -7.22533e-17        00000 
 1.45548e-18  6.11300e-17        00000 
 9.82925e-19 -3.69397e-17        00000 
 2.18321e-18  4.07533e-17        00000 
-3.97889e-18  2.51365e-17        00000 
 1.09161e-17  3.78424e-17        00000 
-4.29744e-18 -5.01063e-17        00000 
 1.16438e-17 -1.16438e-17        00000 
-2.12687e-17 -4.00142e-17        00000 
 1.74657e-17  8.73285e-18        00000 
-3.10879e-18  2.06643e-17        00000 
 2.91095e-18 -5.82190e-18        00000 
 1.75573e-17  2.21054e-17        00000 
-1.45548e-17 -5.82190e-18        00000 
 3.46269e-17  1.13591e-17        00000 
 5.50485e-18 -1.28446e-18        00000 
 5.25354e-17  2.24653e-18        00000 
-1.66389e-01 -6.96166e-03        00000 
-1.87909e-01  4.35470e-02        00000 
-1.97373e-01  9.24047e-02        00000 
-1.97707e-01  1.37546e-01        00000 
-1.91912e-01  1.78410e-01        00000 
-1.81810e-01  2.14917e-01        00000 
-1.68551e-01  2.47173e-01        00000 
-1.52906e-01  2.75341e-01        00000 
-1.35420e-01  2.99594e-01        00000 
-1.16503e-01  3.20086e-01        00000 
-9.64742e-02  3.36953e-01        00000 
-7.55955e-02  3.50303e-01        00000 
-5.40887e-02  3.60223e-01        00000 
-3.21494e-02  3.66774e-01        00000 
-9.95652e-03  3.69999e-01        00000 
 1.23204e-02  3.69916e-01        00000 
 3.45151e-02  3.66526e-01        00000 
 5.64581e-02  3.59807e-01        00000 
 7.79709e-02  3.49717e-01        00000 
 9.88584e-02  3.36192e-01        00000 
 1.18899e-01  3.19144e-01        00000 
 1.37834e-01  2.98461e-01        00000 
 1.55344e-01  2.74006e-01        00000 
 1.71025e-01  2.45618e-01        00000 
 1.84336e-01  2.13118e-01        00000 
 1.94518e-01  1.76329e-01        00000 
 2.00441e-01  1.35127e-01        00000 
 2.00332e-01  8.95518e-02        00000 
 1.91312e-01  4.00882e-02        00000 
 1.71012e-01 -1.13383e-02        00000 
-3.90682e-01  1.14484e-01        00000 
-4.35452e-01  1.73865e-01        00000 
-4.49517e-01  2.35734e-01        00000 
-4.45614e-01  2.96796e-01        00000 
-4.29548e-01  3.55044e-01        00000 
-4.04865e-01  4.09249e-01        00000 
-3.73859e-01  4.58681e-01        00000 
-3.38091e-01  5.02918e-01        00000 
-2.98673e-01  5.41732e-01        00000 
-2.56435e-01  5.75012e-01        00000 
-2.12020e-01  6.02709e-01        00000 
-1.65948e-01  6.24814e-01        00000 
-1.18657e-01  6.41335e-01        00000 
-7.05299e-02  6.52286e-01        00000 
-2.19126e-02  6.57677e-01        00000 
 2.68676e-02  6.57515e-01        00000 
 7.54900e-02  6.51799e-01        00000 
 1.23628e-01  6.40521e-01        00000 
 1.70935e-01  6.23666e-01        00000 
 2.17031e-01  6.01217e-01        00000 
 2.61480e-01  5.73165e-01        00000 
 3.03764e-01  5.39514e-01        00000 
 3.43245e-01  5.00306e-01        00000 
 3.79102e-01  4.55647e-01        00000 
 4.10232e-01  4.05756e-01        00000 
 4.35095e-01  3.51040e-01        00000 
 4.51429e-01  2.92218e-01        00000 
 4.55746e-01  2.30505e-01        00000 
 4.42337e-01  1.67917e-01        00000 
 3.98421e-01  1.07874e-01        00000 
-6.87325e-01  2.39408e-01        00000 
-7.26804e-01  3.12344e-01        00000 
-7.36983e-01  3.82875e-01        00000 
-7.24499e-01  4.51549e-01        00000 
-6.95340e-01  5.17488e-01        00000 
-6.53724e-01  5.79669e-01        00000 
-6.02671e-01  6.37210e-01        00000 
-5.44381e-01  6.89421e-01        00000 
-4.80494e-01  7.35794e-01        00000 
-4.12266e-01  7.75963e-01        00000 
-3.40687e-01  8.09675e-01        00000 
-2.66562e-01  8.36756e-01        00000 
-1.90567e-01  8.57091e-01        00000 
-1.13290e-01  8.70606e-01        00000 
-3.52645e-02  8.77258e-01        00000 
 4.30107e-02  8.77026e-01        00000 
 1.21046e-01  8.69908e-01        00000 
 1.98341e-01  8.55923e-01        00000 
 2.74365e-01  8.35111e-01        00000 
 3.48532e-01  8.07543e-01        00000 
 4.20168e-01  7.73330e-01        00000 
 4.88473e-01  7.32643e-01        00000 
 5.52462e-01  6.85730e-01        00000 
 6.10887e-01  6.32952e-01        00000 
 6.62121e-01  5.74813e-01        00000 
 7.03978e-01  5.12001e-01        00000 
 7.33461e-01  4.45398e-01        00000 
 7.46372e-01  3.76040e-01        00000 
 7.36714e-01  3.04836e-01        00000 
 6.97835e-01  2.31259e-01        00000 
-1.04562e+00  3.34158e-01        00000 
-1.06651e+00  4.18576e-01        00000 
-1.06038e+00  4.98323e-01        00000 
-1.03164e+00  5.73917e-01        00000 
-9.84435e-01  6.45399e-01        00000 
-9.22460e-01  7.12375e-01        00000 
-8.48751e-01  7.74290e-01        00000 
-7.65734e-01  8.30582e-01        00000 
-6.75350e-01  8.80748e-01        00000 
-5.79164e-01  9.24370e-01        00000 
-4.78452e-01  9.61113e-01        00000 
-3.74280e-01  9.90721e-01        00000 
-2.67555e-01  1.01301e+00        00000 
-1.59078e-01  1.02784e+00        00000 
-4.95749e-02  1.03513e+00        00000 
 6.02699e-02  1.03484e+00        00000 
 1.69786e-01  1.02697e+00        00000 
 2.78288e-01  1.01155e+00        00000 
 3.85053e-01  9.88676e-01        00000 
 4.89282e-01  9.58469e-01        00000 
 5.90069e-01  9.21116e-01        00000 
 6.86353e-01  8.76872e-01        00000 
 7.76861e-01  8.26067e-01        00000 
 8.60037e-01  7.69121e-01        00000 
 9.33945e-01  7.06536e-01        00000 
 9.96166e-01  6.38878e-01        00000 
 1.04367e+00  5.66709e-01        00000 
 1.07276e+00  4.90435e-01        00000 
 1.07928e+00  4.10030e-01        00000 
 1.05880e+00  3.24994e-01        00000 
-1.45737e+00  3.79437e-01        00000 
-1.45174e+00  4.74457e-01        00000 
-1.42110e+00  5.63003e-01        00000 
-1.36864e+00  6.45638e-01        00000 
-1.29751e+00  7.22585e-01        00000 
-1.21070e+00  7.93815e-01        00000 
-1.11087e+00  8.59111e-01        00000 
-1.00038e+00  9.18159e-01        00000 
-8.81217e-01  9.70617e-01        00000 
-7.55086e-01  1.01616e+00        00000 
-6.23439e-01  1.05449e+00        00000 
-4.87526e-01  1.08537e+00        00000 
-3.48444e-01  1.10861e+00        00000 
-2.07173e-01  1.12407e+00        00000 
-6.46167e-02  1.13166e+00        00000 
 7.83676e-02  1.13132e+00        00000 
 2.20938e-01  1.12307e+00        00000 
 3.62239e-01  1.10694e+00        00000 
 5.01367e-01  1.08303e+00        00000 
 6.37343e-01  1.05147e+00        00000 
 7.69073e-01  1.01246e+00        00000 
 8.95307e-01  9.66226e-01        00000 
 1.01460e+00  9.13072e-01        00000 
 1.12525e+00  8.53323e-01        00000 
 1.22526e+00  7.87323e-01        00000 
 1.31229e+00  7.15392e-01        00000 
 1.38365e+00  6.37754e-01        00000 
 1.43638e+00  5.54445e-01        00000 
 1.46728e+00  4.65252e-01        00000 
 1.47318e+00  3.69620e-01        00000 
-1.91764e+00  3.63222e-01        00000 
-1.87979e+00  4.68112e-01        00000 
-1.81852e+00  5.65134e-01        00000 
-1.73638e+00  6.54771e-01        00000 
-1.63592e+00  7.37327e-01        00000 
-1.51963e+00  8.12937e-01        00000 
-1.38984e+00  8.81598e-01        00000 
-1.24869e+00  9.43210e-01        00000 
-1.09811e+00  9.97613e-01        00000 
-9.39801e-01  1.04462e+00        00000 
-7.75285e-01  1.08406e+00        00000 
-6.05914e-01  1.11575e+00        00000 
-4.32903e-01  1.13955e+00        00000 
-2.57363e-01  1.15536e+00        00000 
-8.03324e-02  1.16311e+00        00000 
 9.71953e-02  1.16274e+00        00000 
 2.74241e-01  1.15428e+00        00000 
 4.49810e-01  1.13774e+00        00000 
 6.22867e-01  1.11321e+00        00000 
 7.92300e-01  1.08080e+00        00000 
 9.56894e-01  1.04063e+00        00000 
 1.11530e+00  9.92896e-01        00000 
 1.26600e+00  9.37766e-01        00000 
 1.40728e+00  8.75431e-01        00000 
 1.53722e+00  8.06053e-01        00000 
 1.65367e+00  7.29738e-01        00000 
 1.75431e+00  6.46493e-01        00000 
 1.83663e+00  5.56189e-01        00000 
 1.89807e+00  4.58526e-01        00000 
 1.93607e+00  3.53029e-01        00000 
-2.42327e+00  2.76065e-01        00000 
-2.34855e+00  3.90338e-01        00000 
-2.25168e+00  4.95527e-01        00000 
-2.13488e+00  5.92068e-01        00000 
-2.00036e+00  6.80298e-01        00000 
-1.85028e+00  7.60450e-01        00000 
-1.68671e+00  8.32660e-01        00000 
-1.51161e+00  8.96985e-01        00000 
-1.32677e+00  9.53422e-01        00000 
-1.13385e+00  1.00193e+00        00000 
-9.34362e-01  1.04243e+00        00000 
-7.29678e-01  1.07487e+00        00000 
-5.21073e-01  1.09917e+00        00000 
-3.09727e-01  1.11528e+00        00000 
-9.67608e-02  1.12316e+00        00000 
 1.16746e-01  1.12278e+00        00000 
 3.29726e-01  1.11415e+00        00000 
 5.41098e-01  1.09728e+00        00000 
 7.49743e-01  1.07223e+00        00000 
 9.54480e-01  1.03904e+00        00000 
 1.15404e+00  9.97778e-01        00000 
 1.34704e+00  9.48529e-01        00000 
 1.53196e+00  8.91354e-01        00000 
 1.70717e+00  8.26300e-01        00000 
 1.87084e+00  7.53372e-01        00000 
 2.02104e+00  6.72518e-01        00000 
 2.15568e+00  5.83605e-01        00000 
 2.27258e+00  4.86405e-01        00000 
 2.36954e+00  3.80584e-01        00000 
 2.44431e+00  2.65706e-01        00000 
-2.97218e+00  1.09583e-01        00000 
-2.85638e+00  2.32871e-01        00000 
-2.71954e+00  3.45937e-01        00000 
-2.56372e+00  4.49213e-01        00000 
-2.39092e+00  5.43073e-01        00000 
-2.20310e+00  6.27825e-01        00000 
-2.00216e+00  7.03710e-01        00000 
-1.78987e+00  7.70904e-01        00000 
-1.56792e+00  8.29530e-01        00000 
-1.33788e+00  8.79666e-01        00000 
-1.10119e+00  9.21358e-01        00000 
-8.59221e-01  9.54629e-01        00000 
-6.13239e-01  9.79487e-01        00000 
-3.64441e-01  9.95932e-01        00000 
-1.13972e-01  1.00396e+00        00000 
 1.37053e-01  1.00358e+00        00000 
 3.87531e-01  9.94777e-01        00000 
 6.36350e-01  9.77564e-01        00000 
 8.82363e-01  9.51941e-01        00000 
 1.12437e+00  9.17910e-01        00000 
 1.36111e+00  8.75463e-01        00000 
 1.59121e+00  8.24579e-01        00000 
 1.81322e+00  7.65216e-01        00000 
 2.02558e+00  6.97297e-01        00000 
 2.22659e+00  6.20702e-01        00000 
 2.41446e+00  5.35257e-01        00000 
 2.58732e+00  4.40724e-01        00000 
 2.74319e+00  3.36798e-01        00000 
 2.88004e+00  2.23106e-01        00000 
 2.99583e+00  9.92192e-02        00000 
-3.56285e+00 -1.44333e-01        00000 
-3.40187e+00 -1.23540e-02        00000 
-3.22098e+00  1.08289e-01        00000 
-3.02213e+00  2.18063e-01        00000 
-2.80720e+00  3.17397e-01        00000 
-2.57802e+00  4.06676e-01        00000 
-2.33632e+00  4.86232e-01        00000 
-2.08377e+00  5.56343e-01        00000 
-1.82192e+00  6.17238e-01        00000 
-1.55225e+00  6.69100e-01        00000 
-1.27612e+00  7.12070e-01        00000 
-9.94839e-01  7.46256e-01        00000 
-7.09626e-01  7.71737e-01        00000 
-4.21647e-01  7.88568e-01        00000 
-1.32025e-01  7.96782e-01        00000 
 1.58144e-01  7.96398e-01        00000 
 4.47772e-01  7.87416e-01        00000 
 7.35764e-01  7.69820e-01        00000 
 1.02100e+00  7.43578e-01        00000 
 1.30230e+00  7.08636e-01        00000 
 1.57846e+00  6.64918e-01        00000 
 1.84817e+00  6.12318e-01        00000 
 2.11005e+00  5.50695e-01        00000 
 2.36263e+00  4.79871e-01        00000 
 2.60435e+00  3.99618e-01        00000 
 2.83355e+00  3.09659e-01        00000 
 3.04848e+00  2.09665e-01        00000 
 3.24733e+00  9.92528e-02        00000 
 3.42818e+00 -2.20058e-02        00000 
 3.58909e+00 -1.54578e-01        00000 
-4.19385e+00 -4.93852e-01        00000 
-3.98363e+00 -3.53522e-01        00000 
-3.75473e+00 -2.25648e-01        00000 
-3.50904e+00 -1.09694e-01        00000 
-3.24836e+00 -5.15020e-03        00000 
-2.97441e+00  8.84528e-02        00000 
-2.68881e+00  1.71539e-01        00000 
-2.39309e+00  2.44482e-01        00000 
-2.08869e+00  3.07606e-01        00000 
-1.77697e+00  3.61186e-01        00000 
-1.45921e+00  4.05447e-01        00000 
-1.13660e+00  4.40573e-01        00000 
-8.10304e-01  4.66703e-01        00000 
-4.81399e-01  4.83941e-01        00000 
-1.50946e-01  4.92355e-01        00000 
 1.80022e-01  4.91977e-01        00000 
 5.10478e-01  4.82810e-01        00000 
 8.39389e-01  4.64820e-01        00000 
 1.16570e+00  4.37942e-01        00000 
 1.48831e+00  4.02076e-01        00000 
 1.80608e+00  3.57082e-01        00000 
 2.11781e+00  3.02781e-01        00000 
 2.42221e+00  2.38946e-01        00000 
 2.71793e+00  1.65307e-01        00000 
 3.00352e+00  8.15404e-02        00000 
 3.27745e+00 -1.27255e-02        00000 
 3.53809e+00 -1.17913e-01        00000 
 3.78372e+00 -2.34492e-01        00000 
 4.01253e+00 -3.62968e-01        00000 
 4.22264e+00 -5.03881e-01        00000 
-4.86362e+00 -9.47337e-01        00000 
-4.60003e+00 -7.99060e-01        00000 
-4.31922e+00 -6.64379e-01        00000 
-4.02302e+00 -5.42653e-01        00000 
-3.71316e+00 -4.33273e-01        00000 
-3.39124e+00 -3.35670e-01        00000 
-3.05877e+00 -2.49322e-01        00000 
-2.71715e+00 -1.73759e-01        00000 
-2.36771e+00 -1.08565e-01        00000 
-2.01167e+00 -5.33826e-02        00000 
-1.65019e+00 -7.90819e-03        00000 
-1.28434e+00  2.81066e-02        00000 
-9.15163e-01  5.48574e-02        00000 
-5.43639e-01  7.24891e-02        00000 
-1.70721e-01  8.10976e-02        00000 
 2.02659e-01  8.07307e-02        00000 
 5.75576e-01  7.13895e-02        00000 
 9.47097e-01  5.30278e-02        00000 
 1.31627e+00  2.55516e-02        00000 
 1.68211e+00 -1.11819e-02        00000 
 2.04358e+00 -5.73668e-02        00000 
 2.39961e+00 -1.13250e-01        00000 
 2.74903e+00 -1.79131e-01        00000 
 3.09061e+00 -2.55369e-01        00000 
 3.42303e+00 -3.42377e-01        00000 
 3.74490e+00 -4.40623e-01        00000 
 4.05469e+00 -5.50628e-01        00000 
 4.35079e+00 -6.72961e-01        00000 
 4.63148e+00 -8.08231e-01        00000 
 4.89493e+00 -9.57077e-01        00000 
-5.57025e+00 -1.51336e+00        00000 
-5.24911e+00 -1.35765e+00        00000 
-4.91251e+00 -1.21668e+00        00000 
-4.56223e+00 -1.08970e+00        00000 
-4.19989e+00 -9.75971e-01        00000 
-3.82698e+00 -8.74806e-01        00000 
-3.44488e+00 -7.85577e-01        00000 
-3.05485e+00 -7.07715e-01        00000 
-2.65807e+00 -6.40714e-01        00000 
-2.25562e+00 -5.84135e-01        00000 
-1.84849e+00 -5.37604e-01        00000 
-1.43763e+00 -5.00813e-01        00000 
-1.02392e+00 -4.73520e-01        00000 
-6.08205e-01 -4.55542e-01        00000 
-1.91303e-01 -4.46759e-01        00000 
 2.25993e-01 -4.47113e-01        00000 
 6.42891e-01 -4.56600e-01        00000 
 1.05859e+00 -4.75281e-01        00000 
 1.47229e+00 -5.03273e-01        00000 
 1.88313e+00 -5.40756e-01        00000 
 2.29023e+00 -5.87970e-01        00000 
 2.69264e+00 -6.45224e-01        00000 
 3.08938e+00 -7.12887e-01        00000 
 3.47934e+00 -7.91399e-01        00000 
 3.86137e+00 -8.81264e-01        00000 
 4.23419e+00 -9.83049e-01        00000 
 4.59643e+00 -1.09738e+00        00000 
 4.94659e+00 -1.22495e+00        00000 
 5.28304e+00 -1.36649e+00        00000 
 5.60400e+00 -1.52276e+00        00000 
-6.31125e+00 -2.20068e+00        00000 
-5.92836e+00 -2.03817e+00        00000 
-5.53216e+00 -1.89157e+00        00000 
-5.12434e+00 -1.75997e+00        00000 
-4.70639e+00 -1.64249e+00        00000 
-4.27967e+00 -1.53831e+00        00000 
-3.84541e+00 -1.44668e+00        00000 
-3.40469e+00 -1.36692e+00        00000 
-2.95851e+00 -1.29845e+00        00000 
-2.50777e+00 -1.24075e+00        00000 
-2.05330e+00 -1.19337e+00        00000 
-1.59585e+00 -1.15596e+00        00000 
-1.13614e+00 -1.12823e+00        00000 
-6.74849e-01 -1.10998e+00        00000 
-2.12612e-01 -1.10105e+00        00000 
 2.49935e-01 -1.10139e+00        00000 
 7.12164e-01 -1.11099e+00        00000 
 1.17344e+00 -1.12992e+00        00000 
 1.63313e+00 -1.15831e+00        00000 
 2.09054e+00 -1.19638e+00        00000 
 2.54497e+00 -1.24442e+00        00000 
 2.99565e+00 -1.30276e+00        00000 
 3.44176e+00 -1.37187e+00        00000 
 3.88240e+00 -1.45224e+00        00000 
 4.31657e+00 -1.54448e+00        00000 
 4.74317e+00 -1.64926e+00        00000 
 5.16099e+00 -1.76732e+00        00000 
 5.56866e+00 -1.89949e+00        00000 
 5.96469e+00 -2.04663e+00        00000 
 6.34739e+00 -2.20968e+00        00000 
-7.08349e+00 -3.01814e+00        00000 
-6.63465e+00 -2.84963e+00        00000 
-6.17513e+00 -2.69821e+00        00000 
-5.70646e+00 -2.56276e+00        00000 
-5.23000e+00 -2.44224e+00        00000 
-4.74691e+00 -2.33568e+00        00000 
-4.25822e+00 -2.24221e+00        00000 
-3.76481e+00 -2.16104e+00        00000 
-3.26747e+00 -2.09148e+00        00000 
-2.76686e+00 -2.03296e+00        00000 
-2.26360e+00 -1.98496e+00        00000 
-1.75825e+00 -1.94710e+00        00000 
-1.25131e+00 -1.91905e+00        00000 
-7.43258e-01 -1.90059e+00        00000 
-2.34548e-01 -1.89156e+00        00000 
 2.74377e-01 -1.89188e+00        00000 
 7.83076e-01 -1.90155e+00        00000 
 1.29111e+00 -1.92065e+00        00000 
 1.79801e+00 -1.94933e+00        00000 
 2.30332e+00 -1.98782e+00        00000 
 2.80652e+00 -2.03644e+00        00000 
 3.30705e+00 -2.09558e+00        00000 
 3.80432e+00 -2.16573e+00        00000 
 4.29762e+00 -2.24749e+00        00000 
 4.78620e+00 -2.34155e+00        00000 
 5.26915e+00 -2.44868e+00        00000 
 5.74546e+00 -2.56975e+00        00000 
 6.21396e+00 -2.70574e+00        00000 
 6.67329e+00 -2.85769e+00        00000 
 7.12191e+00 -3.02671e+00        00000 
-7.88297e+00 -3.97459e+00        00000 
-7.36408e+00 -3.80109e+00        00000 
-6.83767e+00 -3.64582e+00        00000 
-6.30510e+00 -3.50744e+00        00000 
-5.76751e+00 -3.38471e+00        00000 
-5.22583e+00 -3.27650e+00        00000 
-4.68081e+00 -3.18179e+00        00000 
-4.13309e+00 -3.09970e+00        00000 
-3.58315e+00 -3.02945e+00        00000 
-3.03143e+00 -2.97039e+00        00000 
-2.47827e+00 -2.92199e+00        00000 
-1.92398e+00 -2.88382e+00        00000 
-1.36883e+00 -2.85554e+00        00000 
-8.13093e-01 -2.83692e+00        00000 
-2.57001e-01 -2.82780e+00        00000 
 2.99203e-01 -2.82811e+00        00000 
 8.55282e-01 -2.83783e+00        00000 
 1.41100e+00 -2.85705e+00        00000 
 1.96610e+00 -2.88593e+00        00000 
 2.52033e+00 -2.92469e+00        00000 
 3.07343e+00 -2.97368e+00        00000 
 3.62506e+00 -3.03331e+00        00000 
 4.17490e+00 -3.10413e+00        00000 
 4.72251e+00 -3.18679e+00        00000 
 5.26739e+00 -3.28204e+00        00000 
 5.80892e+00 -3.39079e+00        00000 
 6.34634e+00 -3.51405e+00        00000 
 6.87872e+00 -3.65294e+00        00000 
 7.40492e+00 -3.80872e+00        00000 
 7.92358e+00 -3.98270e+00        00000 
-8.70470e+00 -5.07876e+00        00000 
-8.11180e+00 -4.90151e+00        00000 
-7.51521e+00 -4.74357e+00        00000 
-6.91604e+00 -4.60333e+00        00000 
-6.31514e+00 -4.47934e+00        00000 
-5.71310e+00 -4.37027e+00        00000 
-5.11034e+00 -4.27496e+00        00000 
-4.50714e+00 -4.19243e+00        00000 
-3.90365e+00 -4.12182e+00        00000 
-3.29996e+00 -4.06245e+00        00000 
-2.69613e+00 -4.01377e+00        00000 
-2.09219e+00 -3.97535e+00        00000 
-1.48815e+00 -3.94686e+00        00000 
-8.84029e-01 -3.92808e+00        00000 
-2.79868e-01 -3.91887e+00        00000 
 3.24304e-01 -3.91916e+00        00000 
 9.28450e-01 -3.92893e+00        00000 