<?xml version="1.0" encoding="utf-8"?>
<VTKFile byte_order="LittleEndian" type="UnstructuredGrid" version="0.1">
   <UnstructuredGrid>
      <Piece NumberOfCells="3364" NumberOfPoints="1741">
         <Points>
            <DataArray Name="Points" NumberOfComponents="3" format="ascii" type="Float32">
0.0000 1.0000 0.0000
0.0000 1.0345 0.0000
0.0000 1.0690 0.0000
0.0000 1.1034 0.0000
0.0000 1.1379 0.0000
0.0000 1.1724 0.0000
0.0000 1.2069 0.0000
0.0000 1.2414 0.0000
0.0000 1.2759 0.0000
0.0000 1.3103 0.0000
0.0000 1.3448 0.0000
0.0000 1.3793 0.0000
0.0000 1.4138 0.0000
0.0000 1.4483 0.0000
0.0000 1.4828 0.0000
0.0000 1.5172 0.0000
0.0000 1.5517 0.0000
0.0000 1.5862 0.0000
0.0000 1.6207 0.0000
0.0000 1.6552 0.0000
0.0000 1.6897 0.0000
0.0000 1.7241 0.0000
0.0000 1.7586 0.0000
0.0000 1.7931 0.0000
0.0000 1.8276 0.0000
0.0000 1.8621 0.0000
0.0000 1.8966 0.0000
0.0000 1.9310 0.0000
0.0000 1.9655 0.0000
0.0000 2.0000 0.0000
0.0690 1.0000 0.0000
0.0690 1.0345 0.0000
0.0690 1.0690 0.0000
0.0690 1.1034 0.0000
0.0690 1.1379 0.0000
0.0690 1.1724 0.0000
0.0690 1.2069 0.0000
0.0690 1.2414 0.0000
0.0690 1.2759 0.0000
0.0690 1.3103 0.0000
0.0690 1.3448 0.0000
0.0690 1.3793 0.0000
0.0690 1.4138 0.0000
0.0690 1.4483 0.0000
0.0690 1.4828 0.0000
0.0690 1.5172 0.0000
0.0690 1.5517 0.0000
0.0690 1.5862 0.0000
0.0690 1.6207 0.0000
0.0690 1.6552 0.0000
0.0690 1.6897 0.0000
0.0690 1.7241 0.0000
0.0690 1.7586 0.0000
0.0690 1.7931 0.0000
0.0690 1.8276 0.0000
0.0690 1.8621 0.0000
0.0690 1.8966 0.0000
0.0690 1.9310 0.0000
0.0690 1.9655 0.0000
0.0690 2.0000 0.0000
0.1379 1.0000 0.0000
0.1379 1.0345 0.0000
0.1379 1.0690 0.0000
0.1379 1.1034 0.0000
0.1379 1.1379 0.0000
0.1379 1.1724 0.0000
0.1379 1.2069 0.0000
0.1379 1.2414 0.0000
0.1379 1.2759 0.0000
0.1379 1.3103 0.0000
0.1379 1.3448 0.0000
0.1379 1.3793 0.0000
0.1379 1.4138 0.0000
0.1379 1.4483 0.0000
0.1379 1.4828 0.0000
0.1379 1.5172 0.0000
0.1379 1.5517 0.0000
0.1379 1.5862 0.0000
0.1379 1.6207 0.0000
0.1379 1.6552 0.0000
0.1379 1.6897 0.0000
0.1379 1.7241 0.0000
0.1379 1.7586 0.0000
0.1379 1.7931 0.0000
0.1379 1.8276 0.0000
0.1379 1.8621 0.0000
0.1379 1.8966 0.0000
0.1379 1.9310 0.0000
0.1379 1.9655 0.0000
0.1379 2.0000 0.0000
0.2069 1.0000 0.0000
0.2069 1.0345 0.0000
0.2069 1.0690 0.0000
0.2069 1.1034 0.0000
0.2069 1.1379 0.0000
0.2069 1.1724 0.0000
0.2069 1.2069 0.0000
0.2069 1.2414 0.0000
0.2069 1.2759 0.0000
0.2069 1.3103 0.0000
0.2069 1.3448 0.0000
0.2069 1.3793 0.0000
0.2069 1.4138 0.0000
0.2069 1.4483 0.0000
0.2069 1.4828 0.0000
0.2069 1.5172 0.0000
0.2069 1.5517 0.0000
0.2069 1.5862 0.0000
0.2069 1.6207 0.0000
0.2069 1.6552 0.0000
0.2069 1.6897 0.0000
0.2069 1.7241 0.0000
0.2069 1.7586 0.0000
0.2069 1.7931 0.0000
0.2069 1.8276 0.0000
0.2069 1.8621 0.0000
0.2069 1.8966 0.0000
0.2069 1.9310 0.0000
0.2069 1.9655 0.0000
0.2069 2.0000 0.0000
0.2759 1.0000 0.0000
0.2759 1.0345 0.0000
0.2759 1.0690 0.0000
0.2759 1.1034 0.0000
0.2759 1.1379 0.0000
0.2759 1.1724 0.0000
0.2759 1.2069 0.0000
0.2759 1.2414 0.0000
0.2759 1.2759 0.0000
0.2759 1.3103 0.0000
0.2759 1.3448 0.0000
0.2759 1.3793 0.0000
0.2759 1.4138 0.0000
0.2759 1.4483 0.0000
0.2759 1.4828 0.0000
0.2759 1.5172 0.0000
0.2759 1.5517 0.0000
0.2759 1.5862 0.0000
0.2759 1.6207 0.0000
0.2759 1.6552 0.0000
0.2759 1.6897 0.0000
0.2759 1.7241 0.0000
0.2759 1.7586 0.0000
0.2759 1.7931 0.0000
0.2759 1.8276 0.0000
0.2759 1.8621 0.0000
0.2759 1.8966 0.0000
0.2759 1.9310 0.0000
0.2759 1.9655 0.0000
0.2759 2.0000 0.0000
0.3448 1.0000 0.0000
0.3448 1.0345 0.0000
0.3448 1.0690 0.0000
0.3448 1.1034 0.0000
0.3448 1.1379 0.0000
0.3448 1.1724 0.0000
0.3448 1.2069 0.0000
0.3448 1.2414 0.0000
0.3448 1.2759 0.0000
0.3448 1.3103 0.0000
0.3448 1.3448 0.0000
0.3448 1.3793 0.0000
0.3448 1.4138 0.0000
0.3448 1.4483 0.0000
0.3448 1.4828 0.0000
0.3448 1.5172 0.0000
0.3448 1.5517 0.0000
0.3448 1.5862 0.0000
0.3448 1.6207 0.0000
0.3448 1.6552 0.0000
0.3448 1.6897 0.0000
0.3448 1.7241 0.0000
0.3448 1.7586 0.0000
0.3448 1.7931 0.0000
0.3448 1.8276 0.0000
0.3448 1.8621 0.0000
0.3448 1.8966 0.0000
0.3448 1.9310 0.0000
0.3448 1.9655 0.0000
0.3448 2.0000 0.0000
0.4138 1.0000 0.0000
0.4138 1.0345 0.0000
0.4138 1.0690 0.0000
0.4138 1.1034 0.0000
0.4138 1.1379 0.0000
0.4138 1.1724 0.0000
0.4138 1.2069 0.0000
0.4138 1.2414 0.0000
0.4138 1.2759 0.0000
0.4138 1.3103 0.0000
0.4138 1.3448 0.0000
0.4138 1.3793 0.0000
0.4138 1.4138 0.0000
0.4138 1.4483 0.0000
0.4138 1.4828 0.0000
0.4138 1.5172 0.0000
0.4138 1.5517 0.0000
0.4138 1.5862 0.0000
0.4138 1.6207 0.0000
0.4138 1.6552 0.0000
0.4138 1.6897 0.0000
0.4138 1.7241 0.0000
0.4138 1.7586 0.0000
0.4138 1.7931 0.0000
0.4138 1.8276 0.0000
0.4138 1.8621 0.0000
0.4138 1.8966 0.0000
0.4138 1.9310 0.0000
0.4138 1.9655 0.0000
0.4138 2.0000 0.0000
0.4828 1.0000 0.0000
0.4828 1.0345 0.0000
0.4828 1.0690 0.0000
0.4828 1.1034 0.0000
0.4828 1.1379 0.0000
0.4828 1.1724 0.0000
0.4828 1.2069 0.0000
0.4828 1.2414 0.0000
0.4828 1.2759 0.0000
0.4828 1.3103 0.0000
0.4828 1.3448 0.0000
0.4828 1.3793 0.0000
0.4828 1.4138 0.0000
0.4828 1.4483 0.0000
0.4828 1.4828 0.0000
0.4828 1.5172 0.0000
0.4828 1.5517 0.0000
0.4828 1.5862 0.0000
0.4828 1.6207 0.0000
0.4828 1.6552 0.0000
0.4828 1.6897 0.0000
0.4828 1.7241 0.0000
0.4828 1.7586 0.0000
0.4828 1.7931 0.0000
0.4828 1.8276 0.0000
0.4828 1.8621 0.0000
0.4828 1.8966 0.0000
0.4828 1.9310 0.0000
0.4828 1.9655 0.0000
0.4828 2.0000 0.0000
0.5517 1.0000 0.0000
0.5517 1.0345 0.0000
0.5517 1.0690 0.0000
0.5517 1.1034 0.0000
0.5517 1.1379 0.0000
0.5517 1.1724 0.0000
0.5517 1.2069 0.0000
0.5517 1.2414 0.0000
0.5517 1.2759 0.0000
0.5517 1.3103 0.0000
0.5517 1.3448 0.0000
0.5517 1.3793 0.0000
0.5517 1.4138 0.0000
0.5517 1.4483 0.0000
0.5517 1.4828 0.0000
0.5517 1.5172 0.0000
0.5517 1.5517 0.0000
0.5517 1.5862 0.0000
0.5517 1.6207 0.0000
0.5517 1.6552 0.0000
0.5517 1.6897 0.0000
0.5517 1.7241 0.0000
0.5517 1.7586 0.0000
0.5517 1.7931 0.0000
0.5517 1.8276 0.0000
0.5517 1.8621 0.0000
0.5517 1.8966 0.0000
0.5517 1.9310 0.0000
0.5517 1.9655 0.0000
0.5517 2.0000 0.0000
0.6207 1.0000 0.0000
0.6207 1.0345 0.0000
0.6207 1.0690 0.0000
0.6207 1.1034 0.0000
0.6207 1.1379 0.0000
0.6207 1.1724 0.0000
0.6207 1.2069 0.0000
0.6207 1.2414 0.0000
0.6207 1.2759 0.0000
0.6207 1.3103 0.0000
0.6207 1.3448 0.0000
0.6207 1.3793 0.0000
0.6207 1.4138 0.0000
0.6207 1.4483 0.0000
0.6207 1.4828 0.0000
0.6207 1.5172 0.0000
0.6207 1.5517 0.0000
0.6207 1.5862 0.0000
0.6207 1.6207 0.0000
0.6207 1.6552 0.0000
0.6207 1.6897 0.0000
0.6207 1.7241 0.0000
0.6207 1.7586 0.0000
0.6207 1.7931 0.0000
0.6207 1.8276 0.0000
0.6207 1.8621 0.0000
0.6207 1.8966 0.0000
0.6207 1.9310 0.0000
0.6207 1.9655 0.0000
0.6207 2.0000 0.0000
0.6897 1.0000 0.0000
0.6897 1.0345 0.0000
0.6897 1.0690 0.0000
0.6897 1.1034 0.0000
0.6897 1.1379 0.0000
0.6897 1.1724 0.0000
0.6897 1.2069 0.0000
0.6897 1.2414 0.0000
0.6897 1.2759 0.0000
0.6897 1.3103 0.0000
0.6897 1.3448 0.0000
0.6897 1.3793 0.0000
0.6897 1.4138 0.0000
0.6897 1.4483 0.0000
0.6897 1.4828 0.0000
0.6897 1.5172 0.0000
0.6897 1.5517 0.0000
0.6897 1.5862 0.0000
0.6897 1.6207 0.0000
0.6897 1.6552 0.0000
0.6897 1.6897 0.0000
0.6897 1.7241 0.0000
0.6897 1.7586 0.0000
0.6897 1.7931 0.0000
0.6897 1.8276 0.0000
0.6897 1.8621 0.0000
0.6897 1.8966 0.0000
0.6897 1.9310 0.0000
0.6897 1.9655 0.0000
0.6897 2.0000 0.0000
0.7586 1.0000 0.0000
0.7586 1.0345 0.0000
0.7586 1.0690 0.0000
0.7586 1.1034 0.0000
0.7586 1.1379 0.0000
0.7586 1.1724 0.0000
0.7586 1.2069 0.0000
0.7586 1.2414 0.0000
0.7586 1.2759 0.0000
0.7586 1.3103 0.0000
0.7586 1.3448 0.0000
0.7586 1.3793 0.0000
0.7586 1.4138 0.0000
0.7586 1.4483 0.0000
0.7586 1.4828 0.0000
0.7586 1.5172 0.0000
0.7586 1.5517 0.0000
0.7586 1.5862 0.0000
0.7586 1.6207 0.0000
0.7586 1.6552 0.0000
0.7586 1.6897 0.0000
0.7586 1.7241 0.0000
0.7586 1.7586 0.0000
0.7586 1.7931 0.0000
0.7586 1.8276 0.0000
0.7586 1.8621 0.0000
0.7586 1.8966 0.0000
0.7586 1.9310 0.0000
0.7586 1.9655 0.0000
0.7586 2.0000 0.0000
0.8276 1.0000 0.0000
0.8276 1.0345 0.0000
0.8276 1.0690 0.0000
0.8276 1.1034 0.0000
0.8276 1.1379 0.0000
0.8276 1.1724 0.0000
0.8276 1.2069 0.0000
0.8276 1.2414 0.0000
0.8276 1.2759 0.0000
0.8276 1.3103 0.0000
0.8276 1.3448 0.0000
0.8276 1.3793 0.0000
0.8276 1.4138 0.0000
0.8276 1.4483 0.0000
0.8276 1.4828 0.0000
0.8276 1.5172 0.0000
0.8276 1.5517 0.0000
0.8276 1.5862 0.0000
0.8276 1.6207 0.0000
0.8276 1.6552 0.0000
0.8276 1.6897 0.0000
0.8276 1.7241 0.0000
0.8276 1.7586 0.0000
0.8276 1.7931 0.0000
0.8276 1.8276 0.0000
0.8276 1.8621 0.0000
0.8276 1.8966 0.0000
0.8276 1.9310 0.0000
0.8276 1.9655 0.0000
0.8276 2.0000 0.0000
0.8966 1.0000 0.0000
0.8966 1.0345 0.0000
0.8966 1.0690 0.0000
0.8966 1.1034 0.0000
0.8966 1.1379 0.0000
0.8966 1.1724 0.0000
0.8966 1.2069 0.0000
0.8966 1.2414 0.0000
0.8966 1.2759 0.0000
0.8966 1.3103 0.0000
0.8966 1.3448 0.0000
0.8966 1.3793 0.0000
0.8966 1.4138 0.0000
0.8966 1.4483 0.0000
0.8966 1.4828 0.0000
0.8966 1.5172 0.0000
0.8966 1.5517 0.0000
0.8966 1.5862 0.0000
0.8966 1.6207 0.0000
0.8966 1.6552 0.0000
0.8966 1.6897 0.0000
0.8966 1.7241 0.0000
0.8966 1.7586 0.0000
0.8966 1.7931 0.0000
0.8966 1.8276 0.0000
0.8966 1.8621 0.0000
0.8966 1.8966 0.0000
0.8966 1.9310 0.0000
0.8966 1.9655 0.0000
0.8966 2.0000 0.0000
0.9655 1.0000 0.0000
0.9655 1.0345 0.0000
0.9655 1.0690 0.0000
0.9655 1.1034 0.0000
0.9655 1.1379 0.0000
0.9655 1.1724 0.0000
0.9655 1.2069 0.0000
0.9655 1.2414 0.0000
0.9655 1.2759 0.0000
0.9655 1.3103 0.0000
0.9655 1.3448 0.0000
0.9655 1.3793 0.0000
0.9655 1.4138 0.0000
0.9655 1.4483 0.0000
0.9655 1.4828 0.0000
0.9655 1.5172 0.0000
0.9655 1.5517 0.0000
0.9655 1.5862 0.0000
0.9655 1.6207 0.0000
0.9655 1.6552 0.0000
0.9655 1.6897 0.0000
0.9655 1.7241 0.0000
0.9655 1.7586 0.0000
0.9655 1.7931 0.0000
0.9655 1.8276 0.0000
0.9655 1.8621 0.0000
0.9655 1.8966 0.0000
0.9655 1.9310 0.0000
0.9655 1.9655 0.0000
0.9655 2.0000 0.0000
1.0345 1.0000 0.0000
1.0345 1.0345 0.0000
1.0345 1.0690 0.0000
1.0345 1.1034 0.0000
1.0345 1.1379 0.0000
1.0345 1.1724 0.0000
1.0345 1.2069 0.0000
1.0345 1.2414 0.0000
1.0345 1.2759 0.0000
1.0345 1.3103 0.0000
1.0345 1.3448 0.0000
[...]
         <PointData>
            <DataArray Name="fValues" NumberOfComponents="3" format="ascii" type="Float64">
 8.83109e-18  5.88739e-18        00000 
-3.53244e-17 -2.35496e-17        00000 
-8.15066e-17  2.91095e-18        00000 
-4.75462e-18  8.22914e-19        00000 
 3.49314e-17  8.73285e-18        00000 
-5.26135e-17 -1.49915e-17        00000 
-4.94862e-17  3.49314e-17        00000 
 4.60832e-17 -2.44131e-17        00000 
-3.20205e-17  1.45548e-17        00000 
-4.92091e-17  9.41741e-18        00000 
 2.03767e-17 -1.45548e-17        00000 
-8.68632e-19  4.90091e-17        00000 
-1.60102e-17        00000        00000 
-1.36646e-17  4.91280e-17        00000 
 4.36643e-18 -4.07533e-17        00000 
-4.29744e-18  2.77962e-17        00000 
       00000  1.16438e-17        00000 
 2.67266e-18  1.61765e-17        00000 
-2.91095e-18  1.16438e-17        00000 
-2.61504e-17 -2.61504e-17        00000 
 2.03767e-17  4.94862e-17        00000 
-5.90046e-17  8.94354e-18        00000 
       00000 -5.82190e-18        00000 
 2.41388e-17  9.14349e-19        00000 
-4.07533e-17  2.61986e-17        00000 
 4.69896e-17  4.20830e-19        00000 
-8.73285e-17 -1.45548e-18        00000 
 1.09927e-17  1.28248e-18        00000 
-3.00932e-17 -2.05514e-17        00000 
 3.83299e-17 -1.02654e-17        00000 
-5.20281e-01 -2.82357e-01        00000 
-4.59216e-01 -1.55763e-01        00000 
-4.29129e-01 -5.39974e-02        00000 
-4.01340e-01  2.96659e-02        00000 
-3.72395e-01  9.98514e-02        00000 
-3.41760e-01  1.59334e-01        00000 
-3.09525e-01  2.09917e-01        00000 
-2.75913e-01  2.52845e-01        00000 
-2.41155e-01  2.89006e-01        00000 
-2.05463e-01  3.19052e-01        00000 
-1.69024e-01  3.43470e-01        00000 
-1.32002e-01  3.62620e-01        00000 
-9.45454e-02  3.76767e-01        00000 
-5.67866e-02  3.86098e-01        00000 
-1.88502e-02  3.90729e-01        00000 
 1.91449e-02  3.90718e-01        00000 
 5.70816e-02  3.86067e-01        00000 
 9.48409e-02  3.76716e-01        00000 
 1.32298e-01  3.62547e-01        00000 
 1.69321e-01  3.43375e-01        00000 
 2.05762e-01  3.18935e-01        00000 
 2.41456e-01  2.88864e-01        00000 
 2.76217e-01  2.52678e-01        00000 
 3.09834e-01  2.09723e-01        00000 
 3.42075e-01  1.59109e-01        00000 
 3.72720e-01  9.95920e-02        00000 
 4.01680e-01  2.93643e-02        00000 
 4.29498e-01 -5.43532e-02        00000 
 4.59640e-01 -1.56194e-01        00000 
 5.20858e-01 -2.82903e-01        00000 
-1.03275e+00 -3.12321e-01        00000 
-1.00179e+00 -1.90815e-01        00000 
-9.45862e-01 -6.72389e-02        00000 
-8.84085e-01  4.75733e-02        00000 
-8.17893e-01  1.51159e-01        00000 
-7.48137e-01  2.43258e-01        00000 
-6.75496e-01  3.24239e-01        00000 
-6.00524e-01  3.94644e-01        00000 
-5.23677e-01  4.55020e-01        00000 
-4.45327e-01  5.05864e-01        00000 
-3.65789e-01  5.47602e-01        00000 
-2.85332e-01  5.80582e-01        00000 
-2.04190e-01  6.05078e-01        00000 
-1.22576e-01  6.21292e-01        00000 
-4.06833e-02  6.29356e-01        00000 
 4.13011e-02  6.29335e-01        00000 
 1.23194e-01  6.21231e-01        00000 
 2.04810e-01  6.04976e-01        00000 
 2.85954e-01  5.80439e-01        00000 
 3.66414e-01  5.47416e-01        00000 
 4.45956e-01  5.05634e-01        00000 
 5.24311e-01  4.54743e-01        00000 
 6.01167e-01  3.94318e-01        00000 
 6.76149e-01  3.23861e-01        00000 
 7.48806e-01  2.42822e-01        00000 
 8.18584e-01  1.50660e-01        00000 
 8.84810e-01  4.70025e-02        00000 
 9.46638e-01 -6.78908e-02        00000 
 1.00264e+00 -1.91557e-01        00000 
 1.03371e+00 -3.13146e-01        00000 
-1.61430e+00 -3.47206e-01        00000 
-1.56878e+00 -2.10994e-01        00000 
-1.49596e+00 -8.10584e-02        00000 
-1.40452e+00  4.29965e-02        00000 
-1.30190e+00  1.58825e-01        00000 
-1.19172e+00  2.64935e-01        00000 
-1.07612e+00  3.60550e-01        00000 
-9.56483e-01  4.45329e-01        00000 
-8.33794e-01  5.19182e-01        00000 
-7.08769e-01  5.82153e-01        00000 
-5.81960e-01  6.34348e-01        00000 
-4.53806e-01  6.75898e-01        00000 
-3.24671e-01  7.06928e-01        00000 
-1.94869e-01  7.27543e-01        00000 
-6.46769e-02  7.37817e-01        00000 
 6.56428e-02  7.37788e-01        00000 
 1.95836e-01  7.27456e-01        00000 
 3.25641e-01  7.06783e-01        00000 
 4.54779e-01  6.75693e-01        00000 
 5.82938e-01  6.34082e-01        00000 
 7.09754e-01  5.81824e-01        00000 
 8.34789e-01  5.18790e-01        00000 
 9.57490e-01  4.44869e-01        00000 
 1.07714e+00  3.60019e-01        00000 
 1.19277e+00  2.64330e-01        00000 
 1.30297e+00  1.58141e-01        00000 
 1.40564e+00  4.22295e-02        00000 
 1.49713e+00 -8.19107e-02        00000 
 1.57001e+00 -2.11930e-01        00000 
 1.61561e+00 -3.48223e-01        00000 
-2.26002e+00 -4.36795e-01        00000 
-2.18025e+00 -2.89537e-01        00000 
-2.07472e+00 -1.50952e-01        00000 
-1.94916e+00 -2.07925e-02        00000 
-1.80851e+00  1.00764e-01        00000 
-1.65684e+00  2.12952e-01        00000 
-1.49706e+00  3.15033e-01        00000 
-1.33122e+00  4.06442e-01        00000 
-1.16081e+00  4.86796e-01        00000 
-9.86933e-01  5.55853e-01        00000 
-8.10447e-01  6.13473e-01        00000 
-6.32019e-01  6.59587e-01        00000 
-4.52188e-01  6.94166e-01        00000 
-2.71410e-01  7.17204e-01        00000 
-9.00855e-02  7.28703e-01        00000 
 9.14190e-02  7.28667e-01        00000 
 2.72746e-01  7.17095e-01        00000 
 4.53526e-01  6.93985e-01        00000 
 6.33362e-01  6.59333e-01        00000 
 8.11798e-01  6.13144e-01        00000 
 9.88292e-01  5.55447e-01        00000 
 1.16218e+00  4.86313e-01        00000 
 1.33261e+00  4.05879e-01        00000 
 1.49847e+00  3.14388e-01        00000 
 1.65827e+00  2.12224e-01        00000 
 1.80997e+00  9.99510e-02        00000 
 1.95066e+00 -2.16913e-02        00000 
 2.07626e+00 -1.51936e-01        00000 
 2.18185e+00 -2.90602e-01        00000 
 2.26166e+00 -4.37937e-01        00000 
-2.95978e+00 -6.11599e-01        00000 
-2.83482e+00 -4.54013e-01        00000 
-2.68646e+00 -3.07442e-01        00000 
-2.51857e+00 -1.71165e-01        00000 
-2.33484e+00 -4.49942e-02        00000 
-2.13851e+00  7.09653e-02        00000 
-1.93233e+00  1.76399e-01        00000 
-1.71851e+00  2.70940e-01        00000 
-1.49876e+00  3.54248e-01        00000 
-1.27447e+00  4.26045e-01        00000 
-1.04671e+00  4.86120e-01        00000 
-8.16355e-01  5.34319e-01        00000 
-5.84122e-01  5.70534e-01        00000 
-3.50619e-01  5.94698e-01        00000 
-1.16382e-01  6.06768e-01        00000 
 1.18096e-01  6.06727e-01        00000 
 3.52335e-01  5.94573e-01        00000 
 5.85842e-01  5.70326e-01        00000 
 8.18081e-01  5.34027e-01        00000 
 1.04844e+00  4.85744e-01        00000 
 1.27622e+00  4.25584e-01        00000 
 1.50052e+00  3.53700e-01        00000 
 1.72028e+00  2.70305e-01        00000 
 1.93413e+00  1.75678e-01        00000 
 2.14033e+00  7.01559e-02        00000 
 2.33668e+00 -4.58910e-02        00000 
 2.52044e+00 -1.72148e-01        00000 
 2.68836e+00 -3.08509e-01        00000 
 2.83675e+00 -4.55161e-01        00000 
 2.96175e+00 -6.12822e-01        00000 
-3.70685e+00 -8.88045e-01        00000 
-3.52940e+00 -7.21248e-01        00000 
-3.33081e+00 -5.67116e-01        00000 
-3.11394e+00 -4.24948e-01        00000 
-2.88159e+00 -2.94315e-01        00000 
-2.63636e+00 -1.75041e-01        00000 
-2.38061e+00 -6.71206e-02        00000 
-2.11637e+00  2.93398e-02        00000 
-1.84536e+00  1.14180e-01        00000 
-1.56902e+00  1.87230e-01        00000 
-1.28856e+00  2.48333e-01        00000 
-1.00496e+00  2.97358e-01        00000 
-7.19070e-01  3.34201e-01        00000 
-4.31623e-01  3.58788e-01        00000 
-1.43273e-01  3.71071e-01        00000 
 1.45375e-01  3.71025e-01        00000 
 4.33728e-01  3.58653e-01        00000 
 7.21178e-01  3.33975e-01        00000 
 1.00707e+00  2.97042e-01        00000 
 1.29068e+00  2.47926e-01        00000 
 1.57116e+00  1.86733e-01        00000 
 1.84750e+00  1.13592e-01        00000 
 2.11852e+00  2.86610e-02        00000 
 2.38278e+00 -6.78896e-02        00000 
 2.63855e+00 -1.75900e-01        00000 
 2.88380e+00 -2.95261e-01        00000 
 3.11618e+00 -4.25980e-01        00000 
 3.33307e+00 -5.68231e-01        00000 
 3.53168e+00 -7.22444e-01        00000 
 3.70915e+00 -8.89315e-01        00000 
-4.49613e+00 -1.27788e+00        00000 
-4.26078e+00 -1.10269e+00        00000 
-4.00633e+00 -9.41539e-01        00000 
-3.73506e+00 -7.93722e-01        00000 
-3.44919e+00 -6.58727e-01        00000 
-3.15088e+00 -5.36203e-01        00000 
-2.84210e+00 -4.25941e-01        00000 
-2.52467e+00 -3.27840e-01        00000 
-2.20016e+00 -2.41876e-01        00000 
-1.86997e+00 -1.68069e-01        00000 
-1.53529e+00 -1.06464e-01        00000 
-1.19717e+00 -5.71134e-02        00000 
-8.56495e-01 -2.00651e-02        00000 
-5.14077e-01  4.64119e-03        00000 
-1.70640e-01  1.69778e-02        00000 
 1.73132e-01  1.69306e-02        00000 
 5.16571e-01  4.49970e-03        00000 
 8.58992e-01 -2.03008e-02        00000 
 1.19967e+00 -5.74432e-02        00000 
 1.53780e+00 -1.06888e-01        00000 
 1.87249e+00 -1.68586e-01        00000 
 2.20269e+00 -2.42486e-01        00000 
 2.52721e+00 -3.28542e-01        00000 
 2.84465e+00 -4.26734e-01        00000 
 3.15344e+00 -5.37086e-01        00000 
 3.45177e+00 -6.59697e-01        00000 
 3.73765e+00 -7.94777e-01        00000 
 4.00894e+00 -9.42676e-01        00000 
 4.26339e+00 -1.10391e+00        00000 
 4.49875e+00 -1.27917e+00        00000 
-5.32372e+00 -1.79038e+00        00000 
-5.02601e+00 -1.60752e+00        00000 
-4.71111e+00 -1.43987e+00        00000 
-4.38092e+00 -1.28675e+00        00000 
-4.03733e+00 -1.14756e+00        00000 
-3.68215e+00 -1.02185e+00        00000 
-3.31706e+00 -9.09268e-01        00000 
-2.94365e+00 -8.09546e-01        00000 
-2.56332e+00 -7.22507e-01        00000 
-2.17736e+00 -6.48031e-01        00000 
-1.78688e+00 -5.86041e-01        00000 
-1.39290e+00 -5.36492e-01        00000 
-9.96306e-01 -4.99358e-01        00000 
-5.97911e-01 -4.74623e-01        00000 
-1.98461e-01 -4.62281e-01        00000 
 2.01338e-01 -4.62329e-01        00000 
 6.00790e-01 -4.74767e-01        00000 
 9.99187e-01 -4.99597e-01        00000 
 1.39578e+00 -5.36828e-01        00000 
 1.78977e+00 -5.86471e-01        00000 
 2.18025e+00 -6.48555e-01        00000 
 2.56623e+00 -7.23124e-01        00000 
 2.94656e+00 -8.10255e-01        00000 
 3.31998e+00 -9.10068e-01        00000 
 3.68507e+00 -1.02274e+00        00000 
 4.04027e+00 -1.14854e+00        00000 
 4.38386e+00 -1.28781e+00        00000 
 4.71405e+00 -1.44101e+00        00000 
 5.02896e+00 -1.60873e+00        00000 
 5.32666e+00 -1.79167e+00        00000 
-6.18636e+00 -2.43369e+00        00000 
-5.82234e+00 -2.24381e+00        00000 
-5.44300e+00 -2.07023e+00        00000 
-5.05003e+00 -1.91222e+00        00000 
-4.64507e+00 -1.76913e+00        00000 
-4.22966e+00 -1.64041e+00        00000 
-3.80528e+00 -1.52559e+00        00000 
-3.37327e+00 -1.42427e+00        00000 
-2.93489e+00 -1.33616e+00        00000 
-2.49125e+00 -1.26101e+00        00000 
-2.04338e+00 -1.19863e+00        00000 
-1.59220e+00 -1.14889e+00        00000 
-1.13853e+00 -1.11167e+00        00000 
-6.83141e-01 -1.08691e+00        00000 
-2.26740e-01 -1.07457e+00        00000 
 2.29996e-01 -1.07462e+00        00000 
 6.86398e-01 -1.08706e+00        00000 
 1.14179e+00 -1.11191e+00        00000 
 1.59546e+00 -1.14922e+00        00000 
 2.04665e+00 -1.19906e+00        00000 
 2.49452e+00 -1.26153e+00        00000 
 2.93816e+00 -1.33677e+00        00000 
 3.37655e+00 -1.42498e+00        00000 
 3.80856e+00 -1.52638e+00        00000 
 4.23295e+00 -1.64129e+00        00000 
 4.64835e+00 -1.77010e+00        00000 
 5.05332e+00 -1.91327e+00        00000 
 5.44628e+00 -2.07136e+00        00000 
 5.82562e+00 -2.24502e+00        00000 
 6.18963e+00 -2.43496e+00        00000 
-7.08103e+00 -3.21541e+00        00000 
-6.64700e+00 -3.01918e+00        00000 
-6.19964e+00 -2.84027e+00        00000 
-5.74047e+00 -2.67788e+00        00000 
-5.27091e+00 -2.53129e+00        00000 
-4.79233e+00 -2.39986e+00        00000 
-4.30599e+00 -2.28300e+00        00000 
-3.81303e+00 -2.18022e+00        00000 
-3.31453e+00 -2.09112e+00        00000 
-2.81145e+00 -2.01533e+00        00000 
-2.30467e+00 -1.95258e+00        00000 
-1.79499e+00 -1.90264e+00        00000 
-1.28313e+00 -1.86534e+00        00000 
-7.69745e-01 -1.84056e+00        00000 
-2.55472e-01 -1.82821e+00        00000 
 2.59097e-01 -1.82826e+00        00000 
 7.73371e-01 -1.84070e+00        00000 
 1.28675e+00 -1.86558e+00        00000 
 1.79862e+00 -1.90297e+00        00000 
 2.30830e+00 -1.95300e+00        00000 
 2.81508e+00 -2.01584e+00        00000 
 3.31816e+00 -2.09172e+00        00000 
 3.81666e+00 -2.18091e+00        00000 
 4.30962e+00 -2.28377e+00        00000 
 4.79596e+00 -2.40072e+00        00000 
 5.27454e+00 -2.53224e+00        00000 
 5.74409e+00 -2.67891e+00        00000 
 6.20325e+00 -2.84137e+00        00000 
 6.65060e+00 -3.02036e+00        00000 
 7.08462e+00 -3.21666e+00        00000 
-8.00459e+00 -4.14282e+00        00000 
-7.49706e+00 -3.94096e+00        00000 
-6.97838e+00 -3.75740e+00        00000 
-6.44991e+00 -3.59124e+00        00000 
-5.91291e+00 -3.44167e+00        00000 
-5.36854e+00 -3.30794e+00        00000 
-4.81789e+00 -3.18938e+00        00000 
-4.26191e+00 -3.08540e+00        00000 
-3.70147e+00 -2.99549e+00        00000 
-3.13738e+00 -2.91919e+00        00000 
-2.57034e+00 -2.85615e+00        00000 
-2.00099e+00 -2.80608e+00        00000 
-1.42990e+00 -2.76873e+00        00000 
-8.57616e-01 -2.74393e+00        00000 
-2.84622e-01 -2.73159e+00        00000 
 2.88605e-01 -2.73163e+00        00000 
 8.61598e-01 -2.74407e+00        00000 
 1.43388e+00 -2.76895e+00        00000 
 2.00497e+00 -2.80639e+00        00000 
 2.57432e+00 -2.85656e+00        00000 
 3.14136e+00 -2.91969e+00        00000 
 3.70545e+00 -2.99607e+00        00000 
 4.26588e+00 -3.08607e+00        00000 
 4.82186e+00 -3.19014e+00        00000 
 5.37251e+00 -3.30878e+00        00000 
 5.91686e+00 -3.44258e+00        00000 
 6.45385e+00 -3.59223e+00        00000 
 6.98231e+00 -3.75847e+00        00000 
 7.50098e+00 -3.94211e+00        00000 
 8.00849e+00 -4.14404e+00        00000 
-8.95362e+00 -5.22301e+00        00000 
-8.36926e+00 -5.01632e+00        00000 
-7.77618e+00 -4.82887e+00        00000 
-7.17560e+00 -4.65965e+00        00000 
-6.56861e+00 -4.50772e+00        00000 
-5.95619e+00 -4.37225e+00        00000 
-5.33921e+00 -4.25245e+00        00000 
-4.71843e+00 -4.14763e+00        00000 
-4.09453e+00 -4.05719e+00        00000 
-3.46810e+00 -3.98060e+00        00000 
-2.83966e+00 -3.91744e+00        00000 
-2.20966e+00 -3.86733e+00        00000 
-1.57850e+00 -3.83001e+00        00000 
-9.46545e-01 -3.80525e+00        00000 
-3.14124e-01 -3.79293e+00        00000 
 3.18449e-01 -3.79298e+00        00000 
 9.50869e-01 -3.80538e+00        00000 
 1.58282e+00 -3.83023e+00        00000 
 2.21398e+00 -3.86764e+00        00000 
 2.84398e+00 -3.91783e+00        00000 
 3.47242e+00 -3.98108e+00        00000 
 4.09884e+00 -4.05775e+00        00000 
 4.72274e+00 -4.14827e+00        00000 
 5.34351e+00 -4.25317e+00        00000 
 5.96048e+00 -4.37305e+00        00000 
 6.57289e+00 -4.50861e+00        00000 
 7.17986e+00 -4.66060e+00        00000 
 7.78043e+00 -4.82990e+00        00000 
 8.37349e+00 -5.01743e+00        00000 
 8.95783e+00 -5.22418e+00        00000 
-9.92424e+00 -6.46280e+00        00000 
-9.25985e+00 -6.25222e+00        00000 
-8.58954e+00 -6.06176e+00        00000 
-7.91433e+00 -5.89029e+00        00000 
-7.23514e+00 -5.73675e+00        00000 
-6.55273e+00 -5.60018e+00        00000 
-5.86775e+00 -5.47969e+00        00000 
-5.18074e+00 -5.37449e+00        00000 
-4.49215e+00 -5.28389e+00        00000 
-3.80236e+00 -5.20730e+00        00000 
-3.11165e+00 -5.14423e+00        00000 
-2.42027e+00 -5.09425e+00        00000 
-1.72841e+00 -5.05705e+00        00000 
-1.03623e+00 -5.03240e+00        00000 
-3.43879e-01 -5.02013e+00        00000 
 3.48533e-01 -5.02018e+00        00000 
 1.04089e+00 -5.03253e+00        00000 
 1.73306e+00 -5.05726e+00        00000 
 2.42491e+00 -5.09454e+00        00000 
 3.11629e+00 -5.14460e+00        00000 
 3.80699e+00 -5.20776e+00        00000 
 4.49678e+00 -5.28443e+00        00000 
 5.18536e+00 -5.37510e+00        00000 
 5.87236e+00 -5.48038e+00        00000 
 6.55733e+00 -5.60095e+00        00000 
 7.23973e+00 -5.73760e+00        00000 
 7.91890e+00 -5.89121e+00        00000 
 8.59409e+00 -6.06274e+00        00000 
 9.26438e+00 -6.25327e+00        00000 
 9.92874e+00 -6.46392e+00        00000 
-1.09119e+01 -7.86875e+00        00000 
-1.01646e+01 -7.65534e+00        00000 
-9.41443e+00 -7.46289e+00        00000 
-8.66239e+00 -7.29012e+00        00000 
-7.90913e+00 -7.13582e+00        00000 
-7.15516e+00 -6.99888e+00        00000 
-6.40089e+00 -6.87832e+00        00000 
-5.64660e+00 -6.77326e+00        00000 
-4.89248e+00 -6.68292e+00        00000 
-4.13864e+00 -6.60665e+00        00000 
-3.38512e+00 -6.54390e+00        00000 
-2.63192e+00 -6.49422e+00        00000 
-1.87901e+00 -6.45727e+00        00000 
-1.12632e+00 -6.43279e+00        00000 
-3.73769e-01 -6.42061e+00        00000 
 3.78735e-01 -6.42065e+00        00000 
 1.13128e+00 -6.43291e+00        00000 
 1.88397e+00 -6.45747e+00        00000 
 2.63688e+00 -6.49450e+00        00000 
 3.39007e+00 -6.54425e+00        00000 
 4.14358e+00 -6.60708e+00        00000 
 4.89742e+00 -6.68343e+00        00000 
 5.65153e+00 -6.77384e+00        00000 
 6.40580e+00 -6.87898e+00        00000 
 7.16006e+00 -6.99961e+00        00000 
 7.91401e+00 -7.13662e+00        00000 
 8.66726e+00 -7.29099e+00        00000 
 9.41927e+00 -7.46383e+00        00000 
 1.01694e+01 -7.65634e+00        00000 
 1.09167e+01 -7.86982e+00        00000 
-1.19115e+01 -9.44705e+00        00000 
-1.10784e+01 -9.23205e+00        00000 
-1.02462e+01 -9.03879e+00        00000 
-9.41550e+00 -8.86578e+00        00000 
-8.58672e+00 -8.71165e+00        00000 
-7.76009e+00 -8.57517e+00        00000 
-6.93570e+00 -8.45522e+00        00000 
-6.11353e+00 -8.35083e+00        00000 
-5.29345e+00 -8.26116e+00        00000 
-4.47528e+00 -8.18551e+00        00000 
-3.65877e+00 -8.12331e+00        00000 
-2.84366e+00 -8.07407e+00        00000 
-2.02964e+00 -8.03746e+00        00000 
-1.21642e+00 -8.01320e+00        00000 
-4.03665e-01 -8.00113e+00        00000 
 4.08927e-01 -8.00117e+00        00000 
 1.22168e+00 -8.01331e+00        00000 
 2.03490e+00 -8.03764e+00        00000 
 2.84891e+00 -8.07434e+00        00000 
 3.66402e+00 -8.12364e+00        00000 
 4.48052e+00 -8.18592e+00        00000 
 5.29868e+00 -8.26164e+00        00000 
 6.11874e+00 -8.35138e+00        00000 
 6.94090e+00 -8.45584e+00        00000 
 7.76527e+00 -8.57586e+00        00000 
 8.59188e+00 -8.71241e+00        00000 
 9.42064e+00 -8.86660e+00        00000 
 1.02513e+01 -9.03967e+00        00000 
 1.10835e+01 -9.23300e+00        00000 
 1.19166e+01 -9.44807e+00        00000 
-1.29169e+01 -1.12034e+01        00000 
-1.19956e+01 -1.09883e+01        00000 
-1.10795e+01 -1.07955e+01        00000 
-1.01688e+01 -1.06235e+01        00000 
-9.26357e+00 -1.04706e+01        00000 
-8.36373e+00 -1.03354e+01        00000 
-7.46895e+00 -1.02168e+01        00000 
-6.57883e+00 -1.01136e+01        00000 
-5.69289e+00 -1.00249e+01        00000 
-4.81057e+00 -9.95013e+00        00000 
-3.93131e+00 -9.88860e+00        00000 
-3.05453e+00 -9.83987e+00        00000 
-2.17967e+00 -9.80361e+00        00000 
-1.30616e+00 -9.77957e+00        00000 
-4.33449e-01 -9.76761e+00        00000 
 4.38989e-01 -9.76764e+00        00000 
 1.31169e+00 -9.77968e+00        00000 