<?xml version="1.0" encoding="utf-8"?>
<VTKFile byte_order="LittleEndian" type="UnstructuredGrid" version="0.1">
   <UnstructuredGrid>
      <Piece NumberOfCells="3364" NumberOfPoints="1741">
         <Points>
            <DataArray Name="Points" NumberOfComponents="3" format="ascii" type="Float32">
0.0000 1.0000 0.0000
0.0000 1.0345 0.0000
0.0000 1.0690 0.0000
0.0000 1.1034 0.0000
0.0000 1.1379 0.0000
0.0000 1.1724 0.0000
0.0000 1.2069 0.0000
0.0000 1.2414 0.0000
0.0000 1.2759 0.0000
0.0000 1.3103 0.0000
0.0000 1.3448 0.0000
0.0000 1.3793 0.0000
0.0000 1.4138 0.0000
0.0000 1.4483 0.0000
0.0000 1.4828 0.0000
0.0000 1.5172 0.0000
0.0000 1.5517 0.0000
0.0000 1.5862 0.0000
0.0000 1.6207 0.0000
0.0000 1.6552 0.0000
0.0000 1.6897 0.0000
0.0000 1.7241 0.0000
0.0000 1.7586 0.0000
0.0000 1.7931 0.0000
0.0000 1.8276 0.0000
0.0000 1.8621 0.0000
0.0000 1.8966 0.0000
0.0000 1.9310 0.0000
0.0000 1.9655 0.0000
0.0000 2.0000 0.0000
0.0690 1.0000 0.0000
0.0690 1.0345 0.0000
0.0690 1.0690 0.0000
0.0690 1.1034 0.0000
0.0690 1.1379 0.0000
0.0690 1.1724 0.0000
0.0690 1.2069 0.0000
0.0690 1.2414 0.0000
0.0690 1.2759 0.0000
0.0690 1.3103 0.0000
0.0690 1.3448 0.0000
0.0690 1.3793 0.0000
0.0690 1.4138 0.0000
0.0690 1.4483 0.0000
0.0690 1.4828 0.0000
0.0690 1.5172 0.0000
0.0690 1.5517 0.0000
0.0690 1.5862 0.0000
0.0690 1.6207 0.0000
0.0690 1.6552 0.0000
0.0690 1.6897 0.0000
0.0690 1.7241 0.0000
0.0690 1.7586 0.0000
0.0690 1.7931 0.0000
0.0690 1.8276 0.0000
0.0690 1.8621 0.0000
0.0690 1.8966 0.0000
0.0690 1.9310 0.0000
0.0690 1.9655 0.0000
0.0690 2.0000 0.0000
0.1379 1.0000 0.0000
0.1379 1.0345 0.0000
0.1379 1.0690 0.0000
0.1379 1.1034 0.0000
0.1379 1.1379 0.0000
0.1379 1.1724 0.0000
0.1379 1.2069 0.0000
0.1379 1.2414 0.0000
0.1379 1.2759 0.0000
0.1379 1.3103 0.0000
0.1379 1.3448 0.0000
0.1379 1.3793 0.0000
0.1379 1.4138 0.0000
0.1379 1.4483 0.0000
0.1379 1.4828 0.0000
0.1379 1.5172 0.0000
0.1379 1.5517 0.0000
0.1379 1.5862 0.0000
0.1379 1.6207 0.0000
0.1379 1.6552 0.0000
0.1379 1.6897 0.0000
0.1379 1.7241 0.0000
0.1379 1.7586 0.0000
0.1379 1.7931 0.0000
0.1379 1.8276 0.0000
0.1379 1.8621 0.0000
0.1379 1.8966 0.0000
0.1379 1.9310 0.0000
0.1379 1.9655 0.0000
0.1379 2.0000 0.0000
0.2069 1.0000 0.0000
0.2069 1.0345 0.0000
0.2069 1.0690 0.0000
0.2069 1.1034 0.0000
0.2069 1.1379 0.0000
0.2069 1.1724 0.0000
0.2069 1.2069 0.0000
0.2069 1.2414 0.0000
0.2069 1.2759 0.0000
0.2069 1.3103 0.0000
0.2069 1.3448 0.0000
0.2069 1.3793 0.0000
0.2069 1.4138 0.0000
0.2069 1.4483 0.0000
0.2069 1.4828 0.0000
0.2069 1.5172 0.0000
0.2069 1.5517 0.0000
0.2069 1.5862 0.0000
0.2069 1.6207 0.0000
0.2069 1.6552 0.0000
0.2069 1.6897 0.0000
0.2069 1.7241 0.0000
0.2069 1.7586 0.0000
0.2069 1.7931 0.0000
0.2069 1.8276 0.0000
0.2069 1.8621 0.0000
0.2069 1.8966 0.0000
0.2069 1.9310 0.0000
0.2069 1.9655 0.0000
0.2069 2.0000 0.0000
0.2759 1.0000 0.0000
0.2759 1.0345 0.0000
0.2759 1.0690 0.0000
0.2759 1.1034 0.0000
0.2759 1.1379 0.0000
0.2759 1.1724 0.0000
0.2759 1.2069 0.0000
0.2759 1.2414 0.0000
0.2759 1.2759 0.0000
0.2759 1.3103 0.0000
0.2759 1.3448 0.0000
0.2759 1.3793 0.0000
0.2759 1.4138 0.0000
0.2759 1.4483 0.0000
0.2759 1.4828 0.0000
0.2759 1.5172 0.0000
0.2759 1.5517 0.0000
0.2759 1.5862 0.0000
0.2759 1.6207 0.0000
0.2759 1.6552 0.0000
0.2759 1.6897 0.0000
0.2759 1.7241 0.0000
0.2759 1.7586 0.0000
0.2759 1.7931 0.0000
0.2759 1.8276 0.0000
0.2759 1.8621 0.0000
0.2759 1.8966 0.0000
0.2759 1.9310 0.0000
0.2759 1.9655 0.0000
0.2759 2.0000 0.0000
0.3448 1.0000 0.0000
0.3448 1.0345 0.0000
0.3448 1.0690 0.0000
0.3448 1.1034 0.0000
0.3448 1.1379 0.0000
0.3448 1.1724 0.0000
0.3448 1.2069 0.0000
0.3448 1.2414 0.0000
0.3448 1.2759 0.0000
0.3448 1.3103 0.0000
0.3448 1.3448 0.0000
0.3448 1.3793 0.0000
0.3448 1.4138 0.0000
0.3448 1.4483 0.0000
0.3448 1.4828 0.0000
0.3448 1.5172 0.0000
0.3448 1.5517 0.0000
0.3448 1.5862 0.0000
0.3448 1.6207 0.0000
0.3448 1.6552 0.0000
0.3448 1.6897 0.0000
0.3448 1.7241 0.0000
0.3448 1.7586 0.0000
0.3448 1.7931 0.0000
0.3448 1.8276 0.0000
0.3448 1.8621 0.0000
0.3448 1.8966 0.0000
0.3448 1.9310 0.0000
0.3448 1.9655 0.0000
0.3448 2.0000 0.0000
0.4138 1.0000 0.0000
0.4138 1.0345 0.0000
0.4138 1.0690 0.0000
0.4138 1.1034 0.0000
0.4138 1.1379 0.0000
0.4138 1.1724 0.0000
0.4138 1.2069 0.0000
0.4138 1.2414 0.0000
0.4138 1.2759 0.0000
0.4138 1.3103 0.0000
0.4138 1.3448 0.0000
0.4138 1.3793 0.0000
0.4138 1.4138 0.0000
0.4138 1.4483 0.0000
0.4138 1.4828 0.0000
0.4138 1.5172 0.0000
0.4138 1.5517 0.0000
0.4138 1.5862 0.0000
0.4138 1.6207 0.0000
0.4138 1.6552 0.0000
0.4138 1.6897 0.0000
0.4138 1.7241 0.0000
0.4138 1.7586 0.0000
0.4138 1.7931 0.0000
0.4138 1.8276 0.0000
0.4138 1.8621 0.0000
0.4138 1.8966 0.0000
0.4138 1.9310 0.0000
0.4138 1.9655 0.0000
0.4138 2.0000 0.0000
0.4828 1.0000 0.0000
0.4828 1.0345 0.0000
0.4828 1.0690 0.0000
0.4828 1.1034 0.0000
0.4828 1.1379 0.0000
0.4828 1.1724 0.0000
0.4828 1.2069 0.0000
0.4828 1.2414 0.0000
0.4828 1.2759 0.0000
0.4828 1.3103 0.0000
0.4828 1.3448 0.0000
0.4828 1.3793 0.0000
0.4828 1.4138 0.0000
0.4828 1.4483 0.0000
0.4828 1.4828 0.0000
0.4828 1.5172 0.0000
0.4828 1.5517 0.0000
0.4828 1.5862 0.0000
0.4828 1.6207 0.0000
0.4828 1.6552 0.0000
0.4828 1.6897 0.0000
0.4828 1.7241 0.0000
0.4828 1.7586 0.0000
0.4828 1.7931 0.0000
0.4828 1.8276 0.0000
0.4828 1.8621 0.0000
0.4828 1.8966 0.0000
0.4828 1.9310 0.0000
0.4828 1.9655 0.0000
0.4828 2.0000 0.0000
0.5517 1.0000 0.0000
0.5517 1.0345 0.0000
0.5517 1.0690 0.0000
0.5517 1.1034 0.0000
0.5517 1.1379 0.0000
0.5517 1.1724 0.0000
0.5517 1.2069 0.0000
0.5517 1.2414 0.0000
0.5517 1.2759 0.0000
0.5517 1.3103 0.0000
0.5517 1.3448 0.0000
0.5517 1.3793 0.0000
0.5517 1.4138 0.0000
0.5517 1.4483 0.0000
0.5517 1.4828 0.0000
0.5517 1.5172 0.0000
0.5517 1.5517 0.0000
0.5517 1.5862 0.0000
0.5517 1.6207 0.0000
0.5517 1.6552 0.0000
0.5517 1.6897 0.0000
0.5517 1.7241 0.0000
0.5517 1.7586 0.0000
0.5517 1.7931 0.0000
0.5517 1.8276 0.0000
0.5517 1.8621 0.0000
0.5517 1.8966 0.0000
0.5517 1.9310 0.0000
0.5517 1.9655 0.0000
0.5517 2.0000 0.0000
0.6207 1.0000 0.0000
0.6207 1.0345 0.0000
0.6207 1.0690 0.0000
0.6207 1.1034 0.0000
0.6207 1.1379 0.0000
0.6207 1.1724 0.0000
0.6207 1.2069 0.0000
0.6207 1.2414 0.0000
0.6207 1.2759 0.0000
0.6207 1.3103 0.0000
0.6207 1.3448 0.0000
0.6207 1.3793 0.0000
0.6207 1.4138 0.0000
0.6207 1.4483 0.0000
0.6207 1.4828 0.0000
0.6207 1.5172 0.0000
0.6207 1.5517 0.0000
0.6207 1.5862 0.0000
0.6207 1.6207 0.0000
0.6207 1.6552 0.0000
0.6207 1.6897 0.0000
0.6207 1.7241 0.0000
0.6207 1.7586 0.0000
0.6207 1.7931 0.0000
0.6207 1.8276 0.0000
0.6207 1.8621 0.0000
0.6207 1.8966 0.0000
0.6207 1.9310 0.0000
0.6207 1.9655 0.0000
0.6207 2.0000 0.0000
0.6897 1.0000 0.0000
0.6897 1.0345 0.0000
0.6897 1.0690 0.0000
0.6897 1.1034 0.0000
0.6897 1.1379 0.0000
0.6897 1.1724 0.0000
0.6897 1.2069 0.0000
0.6897 1.2414 0.0000
0.6897 1.2759 0.0000
0.6897 1.3103 0.0000
0.6897 1.3448 0.0000
0.6897 1.3793 0.0000
0.6897 1.4138 0.0000
0.6897 1.4483 0.0000
0.6897 1.4828 0.0000
0.6897 1.5172 0.0000
0.6897 1.5517 0.0000
0.6897 1.5862 0.0000
0.6897 1.6207 0.0000
0.6897 1.6552 0.0000
0.6897 1.6897 0.0000
0.6897 1.7241 0.0000
0.6897 1.7586 0.0000
0.6897 1.7931 0.0000
0.6897 1.8276 0.0000
0.6897 1.8621 0.0000
0.6897 1.8966 0.0000
0.6897 1.9310 0.0000
0.6897 1.9655 0.0000
0.6897 2.0000 0.0000
0.7586 1.0000 0.0000
0.7586 1.0345 0.0000
0.7586 1.0690 0.0000
0.7586 1.1034 0.0000
0.7586 1.1379 0.0000
0.7586 1.1724 0.0000
0.7586 1.2069 0.0000
0.7586 1.2414 0.0000
0.7586 1.2759 0.0000
0.7586 1.3103 0.0000
0.7586 1.3448 0.0000
0.7586 1.3793 0.0000
0.7586 1.4138 0.0000
0.7586 1.4483 0.0000
0.7586 1.4828 0.0000
0.7586 1.5172 0.0000
0.7586 1.5517 0.0000
0.7586 1.5862 0.0000
0.7586 1.6207 0.0000
0.7586 1.6552 0.0000
0.7586 1.6897 0.0000
0.7586 1.7241 0.0000
0.7586 1.7586 0.0000
0.7586 1.7931 0.0000
0.7586 1.8276 0.0000
0.7586 1.8621 0.0000
0.7586 1.8966 0.0000
0.7586 1.9310 0.0000
0.7586 1.9655 0.0000
0.7586 2.0000 0.0000
0.8276 1.0000 0.0000
0.8276 1.0345 0.0000
0.8276 1.0690 0.0000
0.8276 1.1034 0.0000
0.8276 1.1379 0.0000
0.8276 1.1724 0.0000
0.8276 1.2069 0.0000
0.8276 1.2414 0.0000
0.8276 1.2759 0.0000
0.8276 1.3103 0.0000
0.8276 1.3448 0.0000
0.8276 1.3793 0.0000
0.8276 1.4138 0.0000
0.8276 1.4483 0.0000
0.8276 1.4828 0.0000
0.8276 1.5172 0.0000
0.8276 1.5517 0.0000
0.8276 1.5862 0.0000
0.8276 1.6207 0.0000
0.8276 1.6552 0.0000
0.8276 1.6897 0.0000
0.8276 1.7241 0.0000
0.8276 1.7586 0.0000
0.8276 1.7931 0.0000
0.8276 1.8276 0.0000
0.8276 1.8621 0.0000
0.8276 1.8966 0.0000
0.8276 1.9310 0.0000
0.8276 1.9655 0.0000
0.8276 2.0000 0.0000
0.8966 1.0000 0.0000
0.8966 1.0345 0.0000
0.8966 1.0690 0.0000
0.8966 1.1034 0.0000
0.8966 1.1379 0.0000
0.8966 1.1724 0.0000
0.8966 1.2069 0.0000
0.8966 1.2414 0.0000
0.8966 1.2759 0.0000
0.8966 1.3103 0.0000
0.8966 1.3448 0.0000
0.8966 1.3793 0.0000
0.8966 1.4138 0.0000
0.8966 1.4483 0.0000
0.8966 1.4828 0.0000
0.8966 1.5172 0.0000
0.8966 1.5517 0.0000
0.8966 1.5862 0.0000
0.8966 1.6207 0.0000
0.8966 1.6552 0.0000
0.8966 1.6897 0.0000
0.8966 1.7241 0.0000
0.8966 1.7586 0.0000
0.8966 1.7931 0.0000
0.8966 1.8276 0.0000
0.8966 1.8621 0.0000
0.8966 1.8966 0.0000
0.8966 1.9310 0.0000
0.8966 1.9655 0.0000
0.8966 2.0000 0.0000
0.9655 1.0000 0.0000
0.9655 1.0345 0.0000
0.9655 1.0690 0.0000
0.9655 1.1034 0.0000
0.9655 1.1379 0.0000
0.9655 1.1724 0.0000
0.9655 1.2069 0.0000
0.9655 1.2414 0.0000
0.9655 1.2759 0.0000
0.9655 1.3103 0.0000
0.9655 1.3448 0.0000
0.9655 1.3793 0.0000
0.9655 1.4138 0.0000
0.9655 1.4483 0.0000
0.9655 1.4828 0.0000
0.9655 1.5172 0.0000
0.9655 1.5517 0.0000
0.9655 1.5862 0.0000
0.9655 1.6207 0.0000
0.9655 1.6552 0.0000
0.9655 1.6897 0.0000
0.9655 1.7241 0.0000
0.9655 1.7586 0.0000
0.9655 1.7931 0.0000
0.9655 1.8276 0.0000
0.9655 1.8621 0.0000
0.9655 1.8966 0.0000
0.9655 1.9310 0.0000
0.9655 1.9655 0.0000
0.9655 2.0000 0.0000
1.0345 1.0000 0.0000
1.0345 1.0345 0.0000
1.0345 1.0690 0.0000
1.0345 1.1034 0.0000
1.0345 1.1379 0.0000
1.0345 1.1724 0.0000
1.0345 1.2069 0.0000
1.0345 1.2414 0.0000
1.0345 1.2759 0.0000
1.0345 1.3103 0.0000
1.0345 1.3448 0.0000
[...]
         <PointData>
            <DataArray Name="fValues" NumberOfComponents="3" format="ascii" type="Float64">
-7.92754e-17  9.90942e-18        00000 
 7.06487e-17 -8.83109e-18        00000 
-6.40409e-17  1.09161e-18        00000 
-9.87497e-18  2.92592e-18        00000 
 2.61986e-17 -1.60102e-17        00000 
-2.42596e-18  3.99307e-17        00000 
 2.61986e-17 -1.01883e-17        00000 
-1.28009e-17 -3.74883e-17        00000 
 8.73285e-18  1.16438e-17        00000 
-1.36042e-17  2.26832e-17        00000 
-2.91095e-18 -4.94862e-17        00000 
 7.13192e-18  2.56018e-17        00000 
 5.09416e-18        00000        00000 
-7.00727e-18  3.79844e-17        00000 
       00000 -3.49314e-17        00000 
 1.18865e-18 -7.68053e-18        00000 
-2.91095e-18 -6.40409e-17        00000 
-7.01431e-18  1.26061e-16        00000 
 2.91095e-18 -2.32876e-17        00000 
 4.93749e-18  6.93077e-17        00000 
 5.23971e-17  2.03767e-17        00000 
-3.07287e-17  6.04854e-19        00000 
       00000  2.61986e-17        00000 
 1.15208e-17 -2.32245e-17        00000 
 6.69519e-17  3.92978e-17        00000 
-4.13145e-17 -1.90556e-18        00000 
 5.53081e-17  5.82190e-18        00000 
-4.54363e-17 -2.01532e-18        00000 
 8.22057e-17  1.98175e-17        00000 
-8.21647e-17 -2.80593e-17        00000 
-4.95498e-01 -2.61931e-01        00000 
-4.40769e-01 -1.40530e-01        00000 
-4.13704e-01 -4.22527e-02        00000 
-3.88002e-01  3.89542e-02        00000 
-3.60721e-01  1.07325e-01        00000 
-3.31517e-01  1.65422e-01        00000 
-3.00571e-01  2.14925e-01        00000 
-2.68153e-01  2.57000e-01        00000 
-2.34524e-01  2.92484e-01        00000 
-1.99913e-01  3.21995e-01        00000 
-1.64520e-01  3.45995e-01        00000 
-1.28519e-01  3.64828e-01        00000 
-9.20638e-02  3.78747e-01        00000 
-5.52940e-02  3.87928e-01        00000 
-1.83393e-02  3.92485e-01        00000 
 1.86766e-02  3.92473e-01        00000 
 5.56315e-02  3.87893e-01        00000 
 9.24019e-02  3.78688e-01        00000 
 1.28858e-01  3.64745e-01        00000 
 1.64860e-01  3.45887e-01        00000 
 2.00255e-01  3.21861e-01        00000 
 2.34869e-01  2.92322e-01        00000 
 2.68501e-01  2.56809e-01        00000 
 3.00924e-01  2.14703e-01        00000 
 3.31877e-01  1.65165e-01        00000 
 3.61092e-01  1.07028e-01        00000 
 3.88392e-01  3.86091e-02        00000 
 4.14126e-01 -4.26598e-02        00000 
 4.41255e-01 -1.41024e-01        00000 
 4.96158e-01 -2.62556e-01        00000 
-9.88619e-01 -2.79537e-01        00000 
-9.63675e-01 -1.62104e-01        00000 
-9.13063e-01 -4.25558e-02        00000 
-8.55534e-01  6.88059e-02        00000 
-7.92908e-01  1.69536e-01        00000 
-7.26269e-01  2.59291e-01        00000 
-6.56438e-01  3.38356e-01        00000 
-5.84058e-01  4.07195e-01        00000 
-5.09643e-01  4.66300e-01        00000 
-4.33609e-01  5.16122e-01        00000 
-3.56298e-01  5.57052e-01        00000 
-2.78001e-01  5.89412e-01        00000 
-1.98973e-01  6.13457e-01        00000 
-1.19440e-01  6.29377e-01        00000 
-3.96104e-02  6.37294e-01        00000 
 4.03174e-02  6.37271e-01        00000 
 1.20148e-01  6.29307e-01        00000 
 1.99683e-01  6.13341e-01        00000 
 2.78713e-01  5.89248e-01        00000 
 3.57013e-01  5.56839e-01        00000 
 4.34329e-01  5.15859e-01        00000 
 5.10370e-01  4.65984e-01        00000 
 5.84794e-01  4.06823e-01        00000 
 6.57186e-01  3.37923e-01        00000 
 7.27035e-01  2.58793e-01        00000 
 7.93699e-01  1.68965e-01        00000 
 8.56364e-01  6.81527e-02        00000 
 9.13952e-01 -4.33019e-02        00000 
 9.64658e-01 -1.62953e-01        00000 
 9.89723e-01 -2.80480e-01        00000 
-1.55173e+00 -3.01465e-01        00000 
-1.51284e+00 -1.69290e-01        00000 
-1.44624e+00 -4.31377e-02        00000 
-1.36052e+00  7.74058e-02        00000 
-1.26306e+00  1.90099e-01        00000 
-1.15759e+00  2.93479e-01        00000 
-1.04631e+00  3.86754e-01        00000 
-9.30716e-01  4.69554e-01        00000 
-8.11834e-01  5.41755e-01        00000 
-6.90437e-01  6.03367e-01        00000 
-5.67117e-01  6.54472e-01        00000 
-4.42347e-01  6.95175e-01        00000 
-3.16519e-01  7.25584e-01        00000 
-1.89970e-01  7.45791e-01        00000 
-6.30010e-02  7.55861e-01        00000 
 6.41062e-02  7.55828e-01        00000 
 1.91076e-01  7.45691e-01        00000 
 3.17628e-01  7.25417e-01        00000 
 4.43460e-01  6.94940e-01        00000 
 5.68236e-01  6.54167e-01        00000 
 6.91564e-01  6.02992e-01        00000 
 8.12972e-01  5.41305e-01        00000 
 9.31869e-01  4.69028e-01        00000 
 1.04749e+00  3.86146e-01        00000 
 1.15879e+00  2.92786e-01        00000 
 1.26430e+00  1.89316e-01        00000 
 1.36180e+00  7.65282e-02        00000 
 1.44758e+00 -4.41130e-02        00000 
 1.51426e+00 -1.70361e-01        00000 
 1.55323e+00 -3.02628e-01        00000 
-2.17939e+00 -3.76639e-01        00000 
-2.10720e+00 -2.33286e-01        00000 
-2.00892e+00 -9.83685e-02        00000 
-1.89024e+00  2.83914e-02        00000 
-1.75605e+00  1.46836e-01        00000 
-1.61047e+00  2.56228e-01        00000 
-1.45641e+00  3.55840e-01        00000 
-1.29598e+00  4.45105e-01        00000 
-1.13072e+00  5.23628e-01        00000 
-9.61789e-01  5.91153e-01        00000 
-7.90075e-01  6.47524e-01        00000 
-6.16284e-01  6.92657e-01        00000 
-4.40991e-01  7.26510e-01        00000 
-2.64681e-01  7.49067e-01        00000 
-8.77828e-02  7.60325e-01        00000 
 8.93087e-02  7.60284e-01        00000 
 2.66209e-01  7.48943e-01        00000 
 4.42522e-01  7.26302e-01        00000 
 6.17821e-01  6.92365e-01        00000 
 7.91620e-01  6.47147e-01        00000 
 9.63345e-01  5.90689e-01        00000 
 1.13229e+00  5.23075e-01        00000 
 1.29757e+00  4.44461e-01        00000 
 1.45802e+00  3.55102e-01        00000 
 1.61211e+00  2.55395e-01        00000 
 1.75773e+00  1.45906e-01        00000 
 1.89195e+00  2.73629e-02        00000 
 2.01068e+00 -9.94939e-02        00000 
 2.10902e+00 -2.34505e-01        00000 
 2.18127e+00 -3.77946e-01        00000 
-2.86150e+00 -5.34940e-01        00000 
-2.74520e+00 -3.81155e-01        00000 
-2.60520e+00 -2.38124e-01        00000 
-2.44532e+00 -1.05130e-01        00000 
-2.26925e+00  1.80249e-02        00000 
-2.08024e+00  1.31246e-01        00000 
-1.88106e+00  2.34228e-01        00000 
-1.67393e+00  3.26606e-01        00000 
-1.46062e+00  4.08042e-01        00000 
-1.24254e+00  4.78252e-01        00000 
-1.02081e+00  5.37018e-01        00000 
-7.96330e-01  5.84180e-01        00000 
-5.69862e-01  6.19623e-01        00000 
-3.42045e-01  6.43273e-01        00000 
-1.13447e-01  6.55084e-01        00000 
 1.15409e-01  6.55037e-01        00000 
 3.44009e-01  6.43130e-01        00000 
 5.71830e-01  6.19385e-01        00000 
 7.98305e-01  5.83846e-01        00000 
 1.02279e+00  5.36588e-01        00000 
 1.24454e+00  4.77724e-01        00000 
 1.46263e+00  4.07415e-01        00000 
 1.67595e+00  3.25881e-01        00000 
 1.88311e+00  2.33402e-01        00000 
 2.08232e+00  1.30320e-01        00000 
 2.27136e+00  1.69987e-02        00000 
 2.44746e+00 -1.06255e-01        00000 
 2.60738e+00 -2.39346e-01        00000 
 2.74742e+00 -3.82468e-01        00000 
 2.86376e+00 -5.36340e-01        00000 
-3.59139e+00 -7.92598e-01        00000 
-3.42376e+00 -6.29482e-01        00000 
-3.23465e+00 -4.78766e-01        00000 
-3.02693e+00 -3.39755e-01        00000 
-2.80339e+00 -2.12023e-01        00000 
-2.56665e+00 -9.53880e-02        00000 
-2.31908e+00  1.01576e-02        00000 
-2.06274e+00  1.04510e-01        00000 
-1.79938e+00  1.87511e-01        00000 
-1.53047e+00  2.58991e-01        00000 
-1.25724e+00  3.18790e-01        00000 
-9.80727e-01  3.66775e-01        00000 
-7.01803e-01  4.02840e-01        00000 
-4.21236e-01  4.26908e-01        00000 
-1.39715e-01  4.38928e-01        00000 
 1.42121e-01  4.38876e-01        00000 
 4.23644e-01  4.26753e-01        00000 
 7.04215e-01  4.02582e-01        00000 
 9.83146e-01  3.66413e-01        00000 
 1.25967e+00  3.18324e-01        00000 
 1.53291e+00  2.58421e-01        00000 
 1.80183e+00  1.86838e-01        00000 
 2.06521e+00  1.03733e-01        00000 
 2.32157e+00  9.27769e-03        00000 
 2.56916e+00 -9.63702e-02        00000 
 2.80592e+00 -2.13105e-01        00000 
 3.02949e+00 -3.40936e-01        00000 
 3.23724e+00 -4.80042e-01        00000 
 3.42637e+00 -6.30850e-01        00000 
 3.59402e+00 -7.94052e-01        00000 
-4.36403e+00 -1.16128e+00        00000 
-4.13967e+00 -9.89646e-01        00000 
-3.89584e+00 -8.31776e-01        00000 
-3.63484e+00 -6.86987e-01        00000 
-3.35891e+00 -5.54768e-01        00000 
-3.07021e+00 -4.34769e-01        00000 
-2.77076e+00 -3.26782e-01        00000 
-2.46237e+00 -2.30704e-01        00000 
-2.14666e+00 -1.46509e-01        00000 
-1.82505e+00 -7.42189e-02        00000 
-1.49876e+00 -1.38778e-02        00000 
-1.16888e+00  3.44623e-02        00000 
-8.36322e-01  7.07519e-02        00000 
-5.01936e-01  9.49507e-02        00000 
-1.66479e-01  1.07030e-01        00000 
 1.69330e-01  1.06976e-01        00000 
 5.04789e-01  9.47887e-02        00000 
 8.39179e-01  7.04822e-02        00000 
 1.17174e+00  3.40848e-02        00000 
 1.50163e+00 -1.43626e-02        00000 
 1.82793e+00 -7.48107e-02        00000 
 2.14955e+00 -1.47207e-01        00000 
 2.46528e+00 -2.31507e-01        00000 
 2.77368e+00 -3.27689e-01        00000 
 3.07315e+00 -4.35779e-01        00000 
 3.36186e+00 -5.55878e-01        00000 
 3.63781e+00 -6.88195e-01        00000 
 3.89882e+00 -8.33078e-01        00000 
 4.14266e+00 -9.91038e-01        00000 
 4.36704e+00 -1.16276e+00        00000 
-5.17561e+00 -1.65027e+00        00000 
-4.89003e+00 -1.47082e+00        00000 
-4.58687e+00 -1.30632e+00        00000 
-4.26806e+00 -1.15609e+00        00000 
-3.93551e+00 -1.01955e+00        00000 
-3.59104e+00 -8.96248e-01        00000 
-3.23636e+00 -7.85827e-01        00000 
-2.87309e+00 -6.88029e-01        00000 
-2.50265e+00 -6.02676e-01        00000 
-2.12636e+00 -5.29646e-01        00000 
-1.74537e+00 -4.68862e-01        00000 
-1.36073e+00 -4.20280e-01        00000 
-9.73354e-01 -3.83871e-01        00000 
-5.84092e-01 -3.59622e-01        00000 
-1.93721e-01 -3.47527e-01        00000 
 1.97014e-01 -3.47582e-01        00000 
 5.87386e-01 -3.59787e-01        00000 
 9.76651e-01 -3.84145e-01        00000 
 1.36403e+00 -4.20663e-01        00000 
 1.74868e+00 -4.69355e-01        00000 
 2.12967e+00 -5.30246e-01        00000 
 2.50597e+00 -6.03382e-01        00000 
 2.87642e+00 -6.88841e-01        00000 
 3.23970e+00 -7.86742e-01        00000 
 3.59439e+00 -8.97264e-01        00000 
 3.93887e+00 -1.02067e+00        00000 
 4.27143e+00 -1.15730e+00        00000 
 4.59024e+00 -1.30762e+00        00000 
 4.89341e+00 -1.47221e+00        00000 
 5.17898e+00 -1.65175e+00        00000 
-6.02291e+00 -2.26778e+00        00000 
-5.67214e+00 -2.08115e+00        00000 
-5.30564e+00 -1.91057e+00        00000 
-4.92512e+00 -1.75531e+00        00000 
-4.53225e+00 -1.61474e+00        00000 
-4.12861e+00 -1.48830e+00        00000 
-3.71568e+00 -1.37552e+00        00000 
-3.29486e+00 -1.27603e+00        00000 
-2.86740e+00 -1.18952e+00        00000 
-2.43448e+00 -1.11573e+00        00000 
-1.99715e+00 -1.05450e+00        00000 
-1.55634e+00 -1.00567e+00        00000 
-1.11294e+00 -9.69139e-01        00000 
-6.67727e-01 -9.44843e-01        00000 
-2.21451e-01 -9.32733e-01        00000 
 2.25177e-01 -9.32788e-01        00000 
 6.71454e-01 -9.45007e-01        00000 
 1.11667e+00 -9.69413e-01        00000 
 1.56008e+00 -1.00605e+00        00000 
 2.00088e+00 -1.05499e+00        00000 
 2.43822e+00 -1.11633e+00        00000 
 2.87115e+00 -1.19022e+00        00000 
 3.29861e+00 -1.27684e+00        00000 
 3.71944e+00 -1.37643e+00        00000 
 4.13237e+00 -1.48930e+00        00000 
 4.53601e+00 -1.61584e+00        00000 
 4.92888e+00 -1.75651e+00        00000 
 5.30939e+00 -1.91186e+00        00000 
 5.67589e+00 -2.08253e+00        00000 
 6.02666e+00 -2.26924e+00        00000 
-6.90298e+00 -3.02146e+00        00000 
-6.48328e+00 -2.82832e+00        00000 
-6.04980e+00 -2.65225e+00        00000 
-5.60411e+00 -2.49247e+00        00000 
-5.14767e+00 -2.34826e+00        00000 
-4.68186e+00 -2.21898e+00        00000 
-4.20796e+00 -2.10406e+00        00000 
-3.72718e+00 -2.00300e+00        00000 
-3.24060e+00 -1.91540e+00        00000 
-2.74923e+00 -1.84090e+00        00000 
-2.25397e+00 -1.77923e+00        00000 
-1.75566e+00 -1.73015e+00        00000 
-1.25504e+00 -1.69350e+00        00000 
-7.52824e-01 -1.66915e+00        00000 
-2.49663e-01 -1.65702e+00        00000 
 2.53811e-01 -1.65708e+00        00000 
 7.56973e-01 -1.66931e+00        00000 
 1.25919e+00 -1.69377e+00        00000 
 1.75981e+00 -1.73053e+00        00000 
 2.25813e+00 -1.77971e+00        00000 
 2.75338e+00 -1.84149e+00        00000 
 3.24476e+00 -1.91609e+00        00000 
 3.73133e+00 -2.00379e+00        00000 
 4.21212e+00 -2.10495e+00        00000 
 4.68601e+00 -2.21997e+00        00000 
 5.15182e+00 -2.34934e+00        00000 
 5.60826e+00 -2.49364e+00        00000 
 6.05394e+00 -2.65351e+00        00000 
 6.48740e+00 -2.82967e+00        00000 
 6.90709e+00 -3.02289e+00        00000 
-7.81274e+00 -3.91873e+00        00000 
-7.32055e+00 -3.71977e+00        00000 
-6.81675e+00 -3.53888e+00        00000 
-6.30274e+00 -3.37518e+00        00000 
-5.77982e+00 -3.22785e+00        00000 
-5.24918e+00 -3.09615e+00        00000 
-4.71192e+00 -2.97942e+00        00000 
-4.16905e+00 -2.87706e+00        00000 
-3.62148e+00 -2.78855e+00        00000 
-3.07002e+00 -2.71347e+00        00000 
-2.51543e+00 -2.65144e+00        00000 
-1.95838e+00 -2.60217e+00        00000 
-1.39947e+00 -2.56543e+00        00000 
-8.39277e-01 -2.54104e+00        00000 
-2.78323e-01 -2.52891e+00        00000 
 2.82880e-01 -2.52896e+00        00000 
 8.43833e-01 -2.54120e+00        00000 
 1.40403e+00 -2.56569e+00        00000 
 1.96293e+00 -2.60253e+00        00000 
 2.51999e+00 -2.65191e+00        00000 
 3.07458e+00 -2.71404e+00        00000 
 3.62603e+00 -2.78922e+00        00000 
 4.17360e+00 -2.87782e+00        00000 
 4.71646e+00 -2.98028e+00        00000 
 5.25371e+00 -3.09711e+00        00000 
 5.78435e+00 -3.22890e+00        00000 
 6.30726e+00 -3.37632e+00        00000 
 6.82126e+00 -3.54011e+00        00000 
 7.32504e+00 -3.72108e+00        00000 
 7.81720e+00 -3.92012e+00        00000 
-8.74880e+00 -4.96677e+00        00000 
-8.18074e+00 -4.76280e+00        00000 
-7.60348e+00 -4.57785e+00        00000 
-7.01829e+00 -4.41093e+00        00000 
-6.42628e+00 -4.26110e+00        00000 
-5.82848e+00 -4.12753e+00        00000 
-5.22579e+00 -4.00943e+00        00000 
-4.61901e+00 -3.90613e+00        00000 
-4.00885e+00 -3.81701e+00        00000 
-3.39593e+00 -3.74156e+00        00000 
-2.78081e+00 -3.67934e+00        00000 
-2.16398e+00 -3.62999e+00        00000 
-1.54587e+00 -3.59323e+00        00000 
-9.26875e-01 -3.56886e+00        00000 
-3.07365e-01 -3.55673e+00        00000 
 3.12315e-01 -3.55678e+00        00000 
 9.31824e-01 -3.56901e+00        00000 
 1.55082e+00 -3.59349e+00        00000 
 2.16892e+00 -3.63034e+00        00000 
 2.78575e+00 -3.67979e+00        00000 
 3.40087e+00 -3.74211e+00        00000 
 4.01378e+00 -3.81765e+00        00000 
 4.62394e+00 -3.90687e+00        00000 
 5.23071e+00 -4.01026e+00        00000 
 5.83339e+00 -4.12845e+00        00000 
 6.43118e+00 -4.26211e+00        00000 
 7.02317e+00 -4.41202e+00        00000 
 7.60834e+00 -4.57903e+00        00000 
 8.18558e+00 -4.76406e+00        00000 
 8.75362e+00 -4.96811e+00        00000 
-9.70734e+00 -6.17255e+00        00000 
-9.06014e+00 -5.96448e+00        00000 
-8.40651e+00 -5.77636e+00        00000 
-7.74755e+00 -5.60703e+00        00000 
-7.08419e+00 -5.45544e+00        00000 
-6.41723e+00 -5.32064e+00        00000 
-5.74737e+00 -5.20174e+00        00000 
-5.07518e+00 -5.09795e+00        00000 
-4.40116e+00 -5.00858e+00        00000 
-3.72569e+00 -4.93305e+00        00000 
-3.04912e+00 -4.87086e+00        00000 
-2.37172e+00 -4.82159e+00        00000 
-1.69372e+00 -4.78492e+00        00000 
-1.01532e+00 -4.76063e+00        00000 
-3.36691e-01 -4.74854e+00        00000 
 3.42016e-01 -4.74859e+00        00000 
 1.02065e+00 -4.76077e+00        00000 
 1.69904e+00 -4.78516e+00        00000 
 2.37704e+00 -4.82192e+00        00000 
 3.05443e+00 -4.87129e+00        00000 
 3.73100e+00 -4.93358e+00        00000 
 4.40646e+00 -5.00920e+00        00000 
 5.08047e+00 -5.09865e+00        00000 
 5.75265e+00 -5.20253e+00        00000 
 6.42250e+00 -5.32152e+00        00000 
 7.08944e+00 -5.45641e+00        00000 
 7.75278e+00 -5.60808e+00        00000 
 8.41172e+00 -5.77748e+00        00000 
 9.06532e+00 -5.96569e+00        00000 
 9.71249e+00 -6.17383e+00        00000 
-1.06839e+01 -7.54277e+00        00000 
-9.95449e+00 -7.33168e+00        00000 
-9.22185e+00 -7.14138e+00        00000 
-8.48684e+00 -6.97058e+00        00000 
-7.75018e+00 -6.81809e+00        00000 
-7.01245e+00 -6.68279e+00        00000 
-6.27407e+00 -6.56370e+00        00000 
-5.53536e+00 -6.45995e+00        00000 
-4.79656e+00 -6.37075e+00        00000 
-4.05780e+00 -6.29546e+00        00000 
-3.31918e+00 -6.23353e+00        00000 
-2.58072e+00 -6.18451e+00        00000 
-1.84242e+00 -6.14806e+00        00000 
-1.10426e+00 -6.12391e+00        00000 
-3.66181e-01 -6.11190e+00        00000 
 3.71864e-01 -6.11194e+00        00000 
 1.10994e+00 -6.12404e+00        00000 
 1.84810e+00 -6.14828e+00        00000 
 2.58639e+00 -6.18483e+00        00000 
 3.32484e+00 -6.23394e+00        00000 
 4.06346e+00 -6.29596e+00        00000 
 4.80221e+00 -6.37134e+00        00000 
 5.54100e+00 -6.46062e+00        00000 
 6.27969e+00 -6.56446e+00        00000 
 7.01805e+00 -6.68363e+00        00000 
 7.75577e+00 -6.81900e+00        00000 
 8.49240e+00 -6.97158e+00        00000 
 9.22739e+00 -7.14246e+00        00000 
 9.96000e+00 -7.33283e+00        00000 
 1.06894e+01 -7.54399e+00        00000 
-1.16733e+01 -9.08379e+00        00000 
-1.08589e+01 -8.87090e+00        00000 
-1.00449e+01 -8.67960e+00        00000 
-9.23190e+00 -8.50840e+00        00000 
-8.42043e+00 -8.35593e+00        00000 
-7.61074e+00 -8.22096e+00        00000 
-6.80294e+00 -8.10236e+00        00000 
-5.99705e+00 -7.99918e+00        00000 
-5.19299e+00 -7.91057e+00        00000 
-4.39060e+00 -7.83583e+00        00000 
-3.58969e+00 -7.77438e+00        00000 
-2.79000e+00 -7.72575e+00        00000 
-1.99130e+00 -7.68959e+00        00000 
-1.19329e+00 -7.66564e+00        00000 
-3.95709e-01 -7.65373e+00        00000 
 4.01730e-01 -7.65377e+00        00000 
 1.19931e+00 -7.66577e+00        00000 
 1.99731e+00 -7.68981e+00        00000 
 2.79601e+00 -7.72605e+00        00000 
 3.59569e+00 -7.77476e+00        00000 
 4.39659e+00 -7.83630e+00        00000 
 5.19897e+00 -7.91112e+00        00000 
 6.00301e+00 -7.99981e+00        00000 
 6.80889e+00 -8.10307e+00        00000 
 7.61666e+00 -8.22175e+00        00000 
 8.42634e+00 -8.35680e+00        00000 
 9.23778e+00 -8.50934e+00        00000 
 1.00507e+01 -8.68062e+00        00000 
 1.08647e+01 -8.87199e+00        00000 
 1.16790e+01 -9.08495e+00        00000 
-1.26694e+01 -1.08015e+01        00000 
-1.17675e+01 -1.05883e+01        00000 
-1.08702e+01 -1.03973e+01        00000 
-9.97786e+00 -1.02269e+01        00000 
-9.09060e+00 -1.00755e+01        00000 
-8.20832e+00 -9.94170e+00        00000 
-7.33077e+00 -9.82428e+00        00000 
-6.45757e+00 -9.72218e+00        00000 
-5.58828e+00 -9.63452e+00        00000 
-4.72238e+00 -9.56056e+00        00000 
-3.85934e+00 -9.49972e+00        00000 
-2.99863e+00 -9.45155e+00        00000 
-2.13971e+00 -9.41571e+00        00000 
-1.28205e+00 -9.39196e+00        00000 
-4.25154e-01 -9.38014e+00        00000 
 4.31495e-01 -9.38018e+00        00000 
 1.28839e+00 -9.39208e+00        00000 