<?xml version="1.0" encoding="utf-8"?>
<VTKFile byte_order="LittleEndian" type="UnstructuredGrid" version="0.1">
   <UnstructuredGrid>
      <Piece NumberOfCells="3364" NumberOfPoints="1741">
         <Points>
            <DataArray Name="Points" NumberOfComponents="3" format="ascii" type="Float32">
0.0000 1.0000 0.0000
0.0000 1.0345 0.0000
0.0000 1.0690 0.0000
0.0000 1.1034 0.0000
0.0000 1.1379 0.0000
0.0000 1.1724 0.0000
0.0000 1.2069 0.0000
0.0000 1.2414 0.0000
0.0000 1.2759 0.0000
0.0000 1.3103 0.0000
0.0000 1.3448 0.0000
0.0000 1.3793 0.0000
0.0000 1.4138 0.0000
0.0000 1.4483 0.0000
0.0000 1.4828 0.0000
0.0000 1.5172 0.0000
0.0000 1.5517 0.0000
0.0000 1.5862 0.0000
0.0000 1.6207 0.0000
0.0000 1.6552 0.0000
0.0000 1.6897 0.0000
0.0000 1.7241 0.0000
0.0000 1.7586 0.0000
0.0000 1.7931 0.0000
0.0000 1.8276 0.0000
0.0000 1.8621 0.0000
0.0000 1.8966 0.0000
0.0000 1.9310 0.0000
0.0000 1.9655 0.0000
0.0000 2.0000 0.0000
0.0690 1.0000 0.0000
0.0690 1.0345 0.0000
0.0690 1.0690 0.0000
0.0690 1.1034 0.0000
0.0690 1.1379 0.0000
0.0690 1.1724 0.0000
0.0690 1.2069 0.0000
0.0690 1.2414 0.0000
0.0690 1.2759 0.0000
0.0690 1.3103 0.0000
0.0690 1.3448 0.0000
0.0690 1.3793 0.0000
0.0690 1.4138 0.0000
0.0690 1.4483 0.0000
0.0690 1.4828 0.0000
0.0690 1.5172 0.0000
0.0690 1.5517 0.0000
0.0690 1.5862 0.0000
0.0690 1.6207 0.0000
0.0690 1.6552 0.0000
0.0690 1.6897 0.0000
0.0690 1.7241 0.0000
0.0690 1.7586 0.0000
0.0690 1.7931 0.0000
0.0690 1.8276 0.0000
0.0690 1.8621 0.0000
0.0690 1.8966 0.0000
0.0690 1.9310 0.0000
0.0690 1.9655 0.0000
0.0690 2.0000 0.0000
0.1379 1.0000 0.0000
0.1379 1.0345 0.0000
0.1379 1.0690 0.0000
0.1379 1.1034 0.0000
0.1379 1.1379 0.0000
0.1379 1.1724 0.0000
0.1379 1.2069 0.0000
0.1379 1.2414 0.0000
0.1379 1.2759 0.0000
0.1379 1.3103 0.0000
0.1379 1.3448 0.0000
0.1379 1.3793 0.0000
0.1379 1.4138 0.0000
0.1379 1.4483 0.0000
0.1379 1.4828 0.0000
0.1379 1.5172 0.0000
0.1379 1.5517 0.0000
0.1379 1.5862 0.0000
0.1379 1.6207 0.0000
0.1379 1.6552 0.0000
0.1379 1.6897 0.0000
0.1379 1.7241 0.0000
0.1379 1.7586 0.0000
0.1379 1.7931 0.0000
0.1379 1.8276 0.0000
0.1379 1.8621 0.0000
0.1379 1.8966 0.0000
0.1379 1.9310 0.0000
0.1379 1.9655 0.0000
0.1379 2.0000 0.0000
0.2069 1.0000 0.0000
0.2069 1.0345 0.0000
0.2069 1.0690 0.0000
0.2069 1.1034 0.0000
0.2069 1.1379 0.0000
0.2069 1.1724 0.0000
0.2069 1.2069 0.0000
0.2069 1.2414 0.0000
0.2069 1.2759 0.0000
0.2069 1.3103 0.0000
0.2069 1.3448 0.0000
0.2069 1.3793 0.0000
0.2069 1.4138 0.0000
0.2069 1.4483 0.0000
0.2069 1.4828 0.0000
0.2069 1.5172 0.0000
0.2069 1.5517 0.0000
0.2069 1.5862 0.0000
0.2069 1.6207 0.0000
0.2069 1.6552 0.0000
0.2069 1.6897 0.0000
0.2069 1.7241 0.0000
0.2069 1.7586 0.0000
0.2069 1.7931 0.0000
0.2069 1.8276 0.0000
0.2069 1.8621 0.0000
0.2069 1.8966 0.0000
0.2069 1.9310 0.0000
0.2069 1.9655 0.0000
0.2069 2.0000 0.0000
0.2759 1.0000 0.0000
0.2759 1.0345 0.0000
0.2759 1.0690 0.0000
0.2759 1.1034 0.0000
0.2759 1.1379 0.0000
0.2759 1.1724 0.0000
0.2759 1.2069 0.0000
0.2759 1.2414 0.0000
0.2759 1.2759 0.0000
0.2759 1.3103 0.0000
0.2759 1.3448 0.0000
0.2759 1.3793 0.0000
0.2759 1.4138 0.0000
0.2759 1.4483 0.0000
0.2759 1.4828 0.0000
0.2759 1.5172 0.0000
0.2759 1.5517 0.0000
0.2759 1.5862 0.0000
0.2759 1.6207 0.0000
0.2759 1.6552 0.0000
0.2759 1.6897 0.0000
0.2759 1.7241 0.0000
0.2759 1.7586 0.0000
0.2759 1.7931 0.0000
0.2759 1.8276 0.0000
0.2759 1.8621 0.0000
0.2759 1.8966 0.0000
0.2759 1.9310 0.0000
0.2759 1.9655 0.0000
0.2759 2.0000 0.0000
0.3448 1.0000 0.0000
0.3448 1.0345 0.0000
0.3448 1.0690 0.0000
0.3448 1.1034 0.0000
0.3448 1.1379 0.0000
0.3448 1.1724 0.0000
0.3448 1.2069 0.0000
0.3448 1.2414 0.0000
0.3448 1.2759 0.0000
0.3448 1.3103 0.0000
0.3448 1.3448 0.0000
0.3448 1.3793 0.0000
0.3448 1.4138 0.0000
0.3448 1.4483 0.0000
0.3448 1.4828 0.0000
0.3448 1.5172 0.0000
0.3448 1.5517 0.0000
0.3448 1.5862 0.0000
0.3448 1.6207 0.0000
0.3448 1.6552 0.0000
0.3448 1.6897 0.0000
0.3448 1.7241 0.0000
0.3448 1.7586 0.0000
0.3448 1.7931 0.0000
0.3448 1.8276 0.0000
0.3448 1.8621 0.0000
0.3448 1.8966 0.0000
0.3448 1.9310 0.0000
0.3448 1.9655 0.0000
0.3448 2.0000 0.0000
0.4138 1.0000 0.0000
0.4138 1.0345 0.0000
0.4138 1.0690 0.0000
0.4138 1.1034 0.0000
0.4138 1.1379 0.0000
0.4138 1.1724 0.0000
0.4138 1.2069 0.0000
0.4138 1.2414 0.0000
0.4138 1.2759 0.0000
0.4138 1.3103 0.0000
0.4138 1.3448 0.0000
0.4138 1.3793 0.0000
0.4138 1.4138 0.0000
0.4138 1.4483 0.0000
0.4138 1.4828 0.0000
0.4138 1.5172 0.0000
0.4138 1.5517 0.0000
0.4138 1.5862 0.0000
0.4138 1.6207 0.0000
0.4138 1.6552 0.0000
0.4138 1.6897 0.0000
0.4138 1.7241 0.0000
0.4138 1.7586 0.0000
0.4138 1.7931 0.0000
0.4138 1.8276 0.0000
0.4138 1.8621 0.0000
0.4138 1.8966 0.0000
0.4138 1.9310 0.0000
0.4138 1.9655 0.0000
0.4138 2.0000 0.0000
0.4828 1.0000 0.0000
0.4828 1.0345 0.0000
0.4828 1.0690 0.0000
0.4828 1.1034 0.0000
0.4828 1.1379 0.0000
0.4828 1.1724 0.0000
0.4828 1.2069 0.0000
0.4828 1.2414 0.0000
0.4828 1.2759 0.0000
0.4828 1.3103 0.0000
0.4828 1.3448 0.0000
0.4828 1.3793 0.0000
0.4828 1.4138 0.0000
0.4828 1.4483 0.0000
0.4828 1.4828 0.0000
0.4828 1.5172 0.0000
0.4828 1.5517 0.0000
0.4828 1.5862 0.0000
0.4828 1.6207 0.0000
0.4828 1.6552 0.0000
0.4828 1.6897 0.0000
0.4828 1.7241 0.0000
0.4828 1.7586 0.0000
0.4828 1.7931 0.0000
0.4828 1.8276 0.0000
0.4828 1.8621 0.0000
0.4828 1.8966 0.0000
0.4828 1.9310 0.0000
0.4828 1.9655 0.0000
0.4828 2.0000 0.0000
0.5517 1.0000 0.0000
0.5517 1.0345 0.0000
0.5517 1.0690 0.0000
0.5517 1.1034 0.0000
0.5517 1.1379 0.0000
0.5517 1.1724 0.0000
0.5517 1.2069 0.0000
0.5517 1.2414 0.0000
0.5517 1.2759 0.0000
0.5517 1.3103 0.0000
0.5517 1.3448 0.0000
0.5517 1.3793 0.0000
0.5517 1.4138 0.0000
0.5517 1.4483 0.0000
0.5517 1.4828 0.0000
0.5517 1.5172 0.0000
0.5517 1.5517 0.0000
0.5517 1.5862 0.0000
0.5517 1.6207 0.0000
0.5517 1.6552 0.0000
0.5517 1.6897 0.0000
0.5517 1.7241 0.0000
0.5517 1.7586 0.0000
0.5517 1.7931 0.0000
0.5517 1.8276 0.0000
0.5517 1.8621 0.0000
0.5517 1.8966 0.0000
0.5517 1.9310 0.0000
0.5517 1.9655 0.0000
0.5517 2.0000 0.0000
0.6207 1.0000 0.0000
0.6207 1.0345 0.0000
0.6207 1.0690 0.0000
0.6207 1.1034 0.0000
0.6207 1.1379 0.0000
0.6207 1.1724 0.0000
0.6207 1.2069 0.0000
0.6207 1.2414 0.0000
0.6207 1.2759 0.0000
0.6207 1.3103 0.0000
0.6207 1.3448 0.0000
0.6207 1.3793 0.0000
0.6207 1.4138 0.0000
0.6207 1.4483 0.0000
0.6207 1.4828 0.0000
0.6207 1.5172 0.0000
0.6207 1.5517 0.0000
0.6207 1.5862 0.0000
0.6207 1.6207 0.0000
0.6207 1.6552 0.0000
0.6207 1.6897 0.0000
0.6207 1.7241 0.0000
0.6207 1.7586 0.0000
0.6207 1.7931 0.0000
0.6207 1.8276 0.0000
0.6207 1.8621 0.0000
0.6207 1.8966 0.0000
0.6207 1.9310 0.0000
0.6207 1.9655 0.0000
0.6207 2.0000 0.0000
0.6897 1.0000 0.0000
0.6897 1.0345 0.0000
0.6897 1.0690 0.0000
0.6897 1.1034 0.0000
0.6897 1.1379 0.0000
0.6897 1.1724 0.0000
0.6897 1.2069 0.0000
0.6897 1.2414 0.0000
0.6897 1.2759 0.0000
0.6897 1.3103 0.0000
0.6897 1.3448 0.0000
0.6897 1.3793 0.0000
0.6897 1.4138 0.0000
0.6897 1.4483 0.0000
0.6897 1.4828 0.0000
0.6897 1.5172 0.0000
0.6897 1.5517 0.0000
0.6897 1.5862 0.0000
0.6897 1.6207 0.0000
0.6897 1.6552 0.0000
0.6897 1.6897 0.0000
0.6897 1.7241 0.0000
0.6897 1.7586 0.0000
0.6897 1.7931 0.0000
0.6897 1.8276 0.0000
0.6897 1.8621 0.0000
0.6897 1.8966 0.0000
0.6897 1.9310 0.0000
0.6897 1.9655 0.0000
0.6897 2.0000 0.0000
0.7586 1.0000 0.0000
0.7586 1.0345 0.0000
0.7586 1.0690 0.0000
0.7586 1.1034 0.0000
0.7586 1.1379 0.0000
0.7586 1.1724 0.0000
0.7586 1.2069 0.0000
0.7586 1.2414 0.0000
0.7586 1.2759 0.0000
0.7586 1.3103 0.0000
0.7586 1.3448 0.0000
0.7586 1.3793 0.0000
0.7586 1.4138 0.0000
0.7586 1.4483 0.0000
0.7586 1.4828 0.0000
0.7586 1.5172 0.0000
0.7586 1.5517 0.0000
0.7586 1.5862 0.0000
0.7586 1.6207 0.0000
0.7586 1.6552 0.0000
0.7586 1.6897 0.0000
0.7586 1.7241 0.0000
0.7586 1.7586 0.0000
0.7586 1.7931 0.0000
0.7586 1.8276 0.0000
0.7586 1.8621 0.0000
0.7586 1.8966 0.0000
0.7586 1.9310 0.0000
0.7586 1.9655 0.0000
0.7586 2.0000 0.0000
0.8276 1.0000 0.0000
0.8276 1.0345 0.0000
0.8276 1.0690 0.0000
0.8276 1.1034 0.0000
0.8276 1.1379 0.0000
0.8276 1.1724 0.0000
0.8276 1.2069 0.0000
0.8276 1.2414 0.0000
0.8276 1.2759 0.0000
0.8276 1.3103 0.0000
0.8276 1.3448 0.0000
0.8276 1.3793 0.0000
0.8276 1.4138 0.0000
0.8276 1.4483 0.0000
0.8276 1.4828 0.0000
0.8276 1.5172 0.0000
0.8276 1.5517 0.0000
0.8276 1.5862 0.0000
0.8276 1.6207 0.0000
0.8276 1.6552 0.0000
0.8276 1.6897 0.0000
0.8276 1.7241 0.0000
0.8276 1.7586 0.0000
0.8276 1.7931 0.0000
0.8276 1.8276 0.0000
0.8276 1.8621 0.0000
0.8276 1.8966 0.0000
0.8276 1.9310 0.0000
0.8276 1.9655 0.0000
0.8276 2.0000 0.0000
0.8966 1.0000 0.0000
0.8966 1.0345 0.0000
0.8966 1.0690 0.0000
0.8966 1.1034 0.0000
0.8966 1.1379 0.0000
0.8966 1.1724 0.0000
0.8966 1.2069 0.0000
0.8966 1.2414 0.0000
0.8966 1.2759 0.0000
0.8966 1.3103 0.0000
0.8966 1.3448 0.0000
0.8966 1.3793 0.0000
0.8966 1.4138 0.0000
0.8966 1.4483 0.0000
0.8966 1.4828 0.0000
0.8966 1.5172 0.0000
0.8966 1.5517 0.0000
0.8966 1.5862 0.0000
0.8966 1.6207 0.0000
0.8966 1.6552 0.0000
0.8966 1.6897 0.0000
0.8966 1.7241 0.0000
0.8966 1.7586 0.0000
0.8966 1.7931 0.0000
0.8966 1.8276 0.0000
0.8966 1.8621 0.0000
0.8966 1.8966 0.0000
0.8966 1.9310 0.0000
0.8966 1.9655 0.0000
0.8966 2.0000 0.0000
0.9655 1.0000 0.0000
0.9655 1.0345 0.0000
0.9655 1.0690 0.0000
0.9655 1.1034 0.0000
0.9655 1.1379 0.0000
0.9655 1.1724 0.0000
0.9655 1.2069 0.0000
0.9655 1.2414 0.0000
0.9655 1.2759 0.0000
0.9655 1.3103 0.0000
0.9655 1.3448 0.0000
0.9655 1.3793 0.0000
0.9655 1.4138 0.0000
0.9655 1.4483 0.0000
0.9655 1.4828 0.0000
0.9655 1.5172 0.0000
0.9655 1.5517 0.0000
0.9655 1.5862 0.0000
0.9655 1.6207 0.0000
0.9655 1.6552 0.0000
0.9655 1.6897 0.0000
0.9655 1.7241 0.0000
0.9655 1.7586 0.0000
0.9655 1.7931 0.0000
0.9655 1.8276 0.0000
0.9655 1.8621 0.0000
0.9655 1.8966 0.0000
0.9655 1.9310 0.0000
0.9655 1.9655 0.0000
0.9655 2.0000 0.0000
1.0345 1.0000 0.0000
1.0345 1.0345 0.0000
1.0345 1.0690 0.0000
1.0345 1.1034 0.0000
1.0345 1.1379 0.0000
1.0345 1.1724 0.0000
1.0345 1.2069 0.0000
1.0345 1.2414 0.0000
1.0345 1.2759 0.0000
1.0345 1.3103 0.0000
1.0345 1.3448 0.0000
[...]
         <PointData>
            <DataArray Name="fValues" NumberOfComponents="3" format="ascii" type="Float64">
 1.00566e-16 -1.68752e-17        00000 
-9.41983e-17  5.88739e-18        00000 
 4.36643e-17 -2.18321e-18        00000 
-2.68819e-17  8.59488e-18        00000 
-5.82190e-17  5.82190e-18        00000 
 5.29218e-17  2.76685e-18        00000 
-2.61986e-17  8.73285e-18        00000 
-1.02407e-17 -4.51688e-17        00000 
-1.16438e-17        00000        00000 
-2.56713e-17  5.60227e-17        00000 
 2.61986e-17 -2.91095e-18        00000 
-3.43338e-17  1.17037e-17        00000 
-2.91095e-18  2.91095e-17        00000 
-4.24429e-18 -4.66926e-17        00000 
-3.63869e-18  1.74657e-17        00000 
 1.09722e-18  3.43795e-17        00000 
       00000 -2.32876e-17        00000 
 1.86828e-18  5.43437e-17        00000 
-4.36643e-18 -1.16438e-17        00000 
-2.88934e-17 -3.12707e-17        00000 
 1.74657e-17  7.27738e-17        00000 
-4.79082e-17 -5.32787e-17        00000 
-1.45548e-17 -2.91095e-18        00000 
 5.74211e-17  2.52360e-17        00000 
 1.16438e-17 -3.78424e-17        00000 
 4.13761e-17  1.35397e-17        00000 
       00000  1.45548e-18        00000 
 1.08094e-17  4.76348e-18        00000 
 1.05693e-16  7.24805e-18        00000 
-5.72299e-17 -9.51366e-18        00000 
-3.77027e-01 -1.65851e-01        00000 
-3.51831e-01 -6.94592e-02        00000 
-3.38866e-01  1.18464e-02        00000 
-3.22984e-01  8.09806e-02        00000 
-3.03597e-01  1.40350e-01        00000 
-2.81245e-01  1.91519e-01        00000 
-2.56517e-01  2.35581e-01        00000 
-2.29898e-01  2.73331e-01        00000 
-2.01777e-01  3.05366e-01        00000 
-1.72464e-01  3.32137e-01        00000 
-1.42213e-01  3.53990e-01        00000 
-1.11241e-01  3.71186e-01        00000 
-7.97324e-02  3.83919e-01        00000 
-4.78539e-02  3.92327e-01        00000 
-1.57583e-02  3.96498e-01        00000 
 1.64090e-02  3.96475e-01        00000 
 4.85051e-02  3.92258e-01        00000 
 8.03846e-02  3.83805e-01        00000 
 1.11895e-01  3.71025e-01        00000 
 1.42870e-01  3.53781e-01        00000 
 1.73123e-01  3.31878e-01        00000 
 2.02442e-01  3.05054e-01        00000 
 2.30570e-01  2.72963e-01        00000 
 2.57198e-01  2.35152e-01        00000 
 2.81940e-01  1.91023e-01        00000 
 3.04314e-01  1.39777e-01        00000 
 3.23736e-01  8.03147e-02        00000 
 3.39680e-01  1.10610e-02        00000 
 3.52768e-01 -7.04113e-02        00000 
 3.78300e-01 -1.67056e-01        00000 
-7.76514e-01 -1.26779e-01        00000 
-7.79375e-01 -2.91973e-02        00000 
-7.53595e-01  7.06947e-02        00000 
-7.16110e-01  1.65134e-01        00000 
-6.70456e-01  2.51775e-01        00000 
-6.18773e-01  3.29907e-01        00000 
-5.62521e-01  3.99408e-01        00000 
-5.02745e-01  4.60402e-01        00000 
-4.40220e-01  5.13105e-01        00000 
-3.75547e-01  5.57756e-01        00000 
-3.09200e-01  5.94584e-01        00000 
-2.41574e-01  6.23788e-01        00000 
-1.73003e-01  6.45535e-01        00000 
-1.03783e-01  6.59947e-01        00000 
-3.41815e-02  6.67111e-01        00000 
 3.55454e-02  6.67066e-01        00000 
 1.05148e-01  6.59814e-01        00000 
 1.74372e-01  6.45310e-01        00000 
 2.42947e-01  6.23472e-01        00000 
 3.10580e-01  5.94173e-01        00000 
 3.76935e-01  5.57248e-01        00000 
 4.41622e-01  5.12494e-01        00000 
 5.04163e-01  4.59683e-01        00000 
 5.63964e-01  3.98573e-01        00000 
 6.20251e-01  3.28945e-01        00000 
 6.71983e-01  2.50673e-01        00000 
 7.17711e-01  1.63873e-01        00000 
 7.55310e-01  6.92553e-02        00000 
 7.81270e-01 -3.08347e-02        00000 
 7.78645e-01 -1.28598e-01        00000 
-1.24943e+00 -8.91757e-02        00000 
-1.24130e+00  2.31630e-02        00000 
-1.20388e+00  1.30713e-01        00000 
-1.14524e+00  2.33969e-01        00000 
-1.07246e+00  3.31187e-01        00000 
-9.89597e-01  4.21041e-01        00000 
-8.99282e-01  5.02686e-01        00000 
-8.03336e-01  5.75615e-01        00000 
-7.03080e-01  6.39547e-01        00000 
-5.99507e-01  6.94344e-01        00000 
-4.93388e-01  7.39958e-01        00000 
-3.85345e-01  7.76387e-01        00000 
-2.75895e-01  8.03656e-01        00000 
-1.65483e-01  8.21792e-01        00000 
-5.45119e-02  8.30822e-01        00000 
 5.66442e-02  8.30758e-01        00000 
 1.67618e-01  8.21600e-01        00000 
 2.78034e-01  8.03334e-01        00000 
 3.87493e-01  7.75934e-01        00000 
 4.95547e-01  7.39371e-01        00000 
 6.01682e-01  6.93619e-01        00000 
 7.05277e-01  6.38679e-01        00000 
 8.05561e-01  5.74599e-01        00000 
 9.01544e-01  5.01514e-01        00000 
 9.91909e-01  4.19705e-01        00000 
 1.07484e+00  3.29676e-01        00000 
 1.14770e+00  2.32276e-01        00000 
 1.20646e+00  1.28831e-01        00000 
 1.24403e+00  2.10962e-02        00000 
 1.25232e+00 -9.14189e-02        00000 
-1.78791e+00 -9.74867e-02        00000 
-1.75123e+00  2.65191e-02        00000 
-1.68722e+00  1.43287e-01        00000 
-1.60128e+00  2.53219e-01        00000 
-1.49814e+00  3.56251e-01        00000 
-1.38190e+00  4.51771e-01        00000 
-1.25561e+00  5.39112e-01        00000 
-1.12159e+00  6.17698e-01        00000 
-9.81592e-01  6.87085e-01        00000 
-8.36971e-01  7.46948e-01        00000 
-6.88802e-01  7.97059e-01        00000 
-5.37954e-01  8.37265e-01        00000 
-3.85152e-01  8.67467e-01        00000 
-2.31018e-01  8.87603e-01        00000 
-7.61097e-02  8.97639e-01        00000 
 7.90538e-02  8.97559e-01        00000 
 2.33965e-01  8.87363e-01        00000 
 3.88106e-01  8.67066e-01        00000 
 5.40920e-01  8.36702e-01        00000 
 6.91783e-01  7.96331e-01        00000 
 8.39973e-01  7.46052e-01        00000 
 9.84621e-01  6.86018e-01        00000 
 1.12465e+00  6.16455e-01        00000 
 1.25872e+00  5.37689e-01        00000 
 1.38506e+00  4.50164e-01        00000 
 1.50137e+00  3.54456e-01        00000 
 1.60459e+00  2.51235e-01        00000 
 1.69063e+00  1.41116e-01        00000 
 1.75474e+00  2.41667e-02        00000 
 1.79154e+00 -1.00009e-01        00000 
-2.38220e+00 -1.78371e-01        00000 
-2.30692e+00 -4.35469e-02        00000 
-2.20669e+00  8.18418e-02        00000 
-2.08522e+00  1.98495e-01        00000 
-1.94609e+00  3.06647e-01        00000 
-1.79255e+00  4.06241e-01        00000 
-1.62742e+00  4.97012e-01        00000 
-1.45305e+00  5.78616e-01        00000 
-1.27135e+00  6.50710e-01        00000 
-1.08388e+00  7.12991e-01        00000 
-8.91925e-01  7.65212e-01        00000 
-6.96564e-01  8.07179e-01        00000 
-4.98700e-01  8.38746e-01        00000 
-2.99127e-01  8.59813e-01        00000 
-9.85567e-02  8.70316e-01        00000 
 1.02342e-01  8.70225e-01        00000 
 3.02916e-01  8.59538e-01        00000 
 5.02498e-01  8.38287e-01        00000 
 7.00374e-01  8.06535e-01        00000 
 8.95753e-01  7.64382e-01        00000 
 1.08773e+00  7.11973e-01        00000 
 1.27522e+00  6.49501e-01        00000 
 1.45696e+00  5.77216e-01        00000 
 1.63138e+00  4.95419e-01        00000 
 1.79656e+00  4.04454e-01        00000 
 1.95016e+00  3.04667e-01        00000 
 2.08935e+00  1.96325e-01        00000 
 2.21089e+00  7.94860e-02        00000 
 2.31120e+00 -4.60808e-02        00000 
 2.38655e+00 -1.81074e-01        00000 
-3.02599e+00 -3.46962e-01        00000 
-2.90524e+00 -2.02335e-01        00000 
-2.76166e+00 -6.87473e-02        00000 
-2.59807e+00  5.44574e-02        00000 
-2.41724e+00  1.67691e-01        00000 
-2.22184e+00  2.71139e-01        00000 
-2.01427e+00  3.64822e-01        00000 
-1.79669e+00  4.48646e-01        00000 
-1.57097e+00  5.22459e-01        00000 
-1.33871e+00  5.86088e-01        00000 
-1.10129e+00  6.39366e-01        00000 
-8.59897e-01  6.82147e-01        00000 
-6.15558e-01  7.14312e-01        00000 
-3.69195e-01  7.35771e-01        00000 
-1.21648e-01  7.46465e-01        00000 
 1.26290e-01  7.46366e-01        00000 
 3.73841e-01  7.35472e-01        00000 
 6.20212e-01  7.13813e-01        00000 
 8.64564e-01  6.81449e-01        00000 
 1.10598e+00  6.38468e-01        00000 
 1.34342e+00  5.84990e-01        00000 
 1.57570e+00  5.21161e-01        00000 
 1.80146e+00  4.47148e-01        00000 
 2.01907e+00  3.63124e-01        00000 
 2.22668e+00  2.69244e-01        00000 
 2.42213e+00  1.65602e-01        00000 
 2.60300e+00  5.21786e-02        00000 
 2.76665e+00 -7.12097e-02        00000 
 2.91027e+00 -2.04974e-01        00000 
 3.03106e+00 -3.49768e-01        00000 
-3.71469e+00 -6.14450e-01        00000 
-3.54320e+00 -4.60759e-01        00000 
-3.35073e+00 -3.19457e-01        00000 
-3.13960e+00 -1.89911e-01        00000 
-2.91209e+00 -7.16421e-02        00000 
-2.67043e+00  3.56832e-02        00000 
-2.41670e+00  1.32268e-01        00000 
-2.15282e+00  2.18211e-01        00000 
-1.88052e+00  2.93541e-01        00000 
-1.60133e+00  3.58235e-01        00000 
-1.31664e+00  4.12248e-01        00000 
-1.02765e+00  4.55523e-01        00000 
-7.35460e-01  4.88007e-01        00000 
-4.41044e-01  5.09655e-01        00000 
-1.45325e-01  5.20435e-01        00000 
 1.50826e-01  5.20331e-01        00000 
 4.46549e-01  5.09343e-01        00000 
 7.40972e-01  4.87487e-01        00000 
 1.03318e+00  4.54795e-01        00000 
 1.32218e+00  4.11313e-01        00000 
 1.60689e+00  3.57094e-01        00000 
 1.88609e+00  2.92194e-01        00000 
 2.15842e+00  2.16661e-01        00000 
 2.42233e+00  1.30517e-01        00000 
 2.67609e+00  3.37348e-02        00000 
 2.91778e+00 -7.37836e-02        00000 
 3.14532e+00 -1.92241e-01        00000 
 3.35649e+00 -3.21968e-01        00000 
 3.54898e+00 -4.63444e-01        00000 
 3.72049e+00 -6.17301e-01        00000 
-4.44491e+00 -9.90050e-01        00000 
-4.21818e+00 -8.27920e-01        00000 
-3.97217e+00 -6.79378e-01        00000 
-3.70891e+00 -5.43793e-01        00000 
-3.43038e+00 -4.20628e-01        00000 
-3.13850e+00 -3.09453e-01        00000 
-2.83509e+00 -2.09931e-01        00000 
-2.52185e+00 -1.21815e-01        00000 
-2.20035e+00 -4.49315e-02        00000 
-1.87202e+00  2.08370e-02        00000 
-1.53816e+00  7.55647e-02        00000 
-1.19995e+00  1.19296e-01        00000 
-8.58463e-01  1.52055e-01        00000 
-5.14702e-01  1.73854e-01        00000 
-1.69598e-01  1.84700e-01        00000 
 1.75951e-01  1.84594e-01        00000 
 5.21058e-01  1.73537e-01        00000 
 8.64825e-01  1.51526e-01        00000 
 1.20632e+00  1.18556e-01        00000 
 1.54454e+00  7.46154e-02        00000 
 1.87841e+00  1.96800e-02        00000 
 2.20676e+00 -4.62942e-02        00000 
 2.52828e+00 -1.23381e-01        00000 
 2.84153e+00 -2.11696e-01        00000 
 3.14496e+00 -3.11413e-01        00000 
 3.43686e+00 -4.22780e-01        00000 
 3.71541e+00 -5.46129e-01        00000 
 3.97868e+00 -6.81894e-01        00000 
 4.22469e+00 -8.30608e-01        00000 
 4.45142e+00 -9.92903e-01        00000 
-5.21383e+00 -1.48214e+00        00000 
-4.92774e+00 -1.31214e+00        00000 
-4.62408e+00 -1.15685e+00        00000 
-4.30466e+00 -1.01561e+00        00000 
-3.97128e+00 -8.87807e-01        00000 
-3.62562e+00 -7.72929e-01        00000 
-3.26930e+00 -6.70530e-01        00000 
-2.90383e+00 -5.80246e-01        00000 
-2.53061e+00 -5.01779e-01        00000 
-2.15094e+00 -4.34893e-01        00000 
-1.76601e+00 -3.79408e-01        00000 
-1.37691e+00 -3.35186e-01        00000 
-9.84671e-01 -3.02126e-01        00000 
-5.90231e-01 -2.80158e-01        00000 
-1.94490e-01 -2.69237e-01        00000 
 2.01680e-01 -2.69343e-01        00000 
 5.97422e-01 -2.80475e-01        00000 
 9.91866e-01 -3.02654e-01        00000 
 1.38411e+00 -3.35923e-01        00000 
 1.77321e+00 -3.80353e-01        00000 
 2.15815e+00 -4.36044e-01        00000 
 2.53784e+00 -5.03133e-01        00000 
 2.91107e+00 -5.81801e-01        00000 
 3.27655e+00 -6.72281e-01        00000 
 3.63287e+00 -7.74872e-01        00000 
 3.97853e+00 -8.89937e-01        00000 
 4.31192e+00 -1.01792e+00        00000 
 4.63133e+00 -1.15934e+00        00000 
 4.93498e+00 -1.31480e+00        00000 
 5.22105e+00 -1.48496e+00        00000 
-6.01883e+00 -2.09872e+00        00000 
-5.66947e+00 -1.92144e+00        00000 
-5.30433e+00 -1.75995e+00        00000 
-4.92512e+00 -1.61352e+00        00000 
-4.53344e+00 -1.48145e+00        00000 
-4.13080e+00 -1.36315e+00        00000 
-3.71865e+00 -1.25807e+00        00000 
-3.29831e+00 -1.16574e+00        00000 
-2.87103e+00 -1.08576e+00        00000 
-2.43794e+00 -1.01778e+00        00000 
-2.00011e+00 -9.61545e-01        00000 
-1.55852e+00 -9.16823e-01        00000 
-1.11407e+00 -8.83449e-01        00000 
-6.67631e-01 -8.61301e-01        00000 
-2.20006e-01 -8.50298e-01        00000 
 2.28010e-01 -8.50402e-01        00000 
 6.75636e-01 -8.61612e-01        00000 
 1.12208e+00 -8.83968e-01        00000 
 1.56653e+00 -9.17547e-01        00000 
 2.00812e+00 -9.62473e-01        00000 
 2.44596e+00 -1.01891e+00        00000 
 2.87904e+00 -1.08708e+00        00000 
 3.30633e+00 -1.16726e+00        00000 
 3.72667e+00 -1.25979e+00        00000 
 4.13882e+00 -1.36505e+00        00000 
 4.54144e+00 -1.48354e+00        00000 
 4.93312e+00 -1.61578e+00        00000 
 5.31231e+00 -1.76239e+00        00000 
 5.67743e+00 -1.92405e+00        00000 
 6.02676e+00 -2.10148e+00        00000 
-6.85718e+00 -2.84766e+00        00000 
-6.44074e+00 -2.66374e+00        00000 
-6.01054e+00 -2.49666e+00        00000 
-5.56815e+00 -2.34560e+00        00000 
-5.11503e+00 -2.20976e+00        00000 
-4.65253e+00 -2.08844e+00        00000 
-4.18192e+00 -1.98101e+00        00000 
-3.70434e+00 -1.88688e+00        00000 
-3.22087e+00 -1.80556e+00        00000 
-2.73249e+00 -1.73663e+00        00000 
-2.24009e+00 -1.67972e+00        00000 
-1.74450e+00 -1.63456e+00        00000 
-1.24650e+00 -1.60090e+00        00000 
-7.46806e-01 -1.57859e+00        00000 
-2.46115e-01 -1.56751e+00        00000 
 2.54907e-01 -1.56761e+00        00000 
 7.55597e-01 -1.57889e+00        00000 
 1.25529e+00 -1.60141e+00        00000 
 1.75329e+00 -1.63526e+00        00000 
 2.24887e+00 -1.68062e+00        00000 
 2.74127e+00 -1.73772e+00        00000 
 3.22965e+00 -1.80685e+00        00000 
 3.71312e+00 -1.88836e+00        00000 
 4.19068e+00 -1.98267e+00        00000 
 4.66129e+00 -2.09029e+00        00000 
 5.12377e+00 -2.21178e+00        00000 
 5.57687e+00 -2.34779e+00        00000 
 6.01923e+00 -2.49903e+00        00000 
 6.44940e+00 -2.66627e+00        00000 
 6.86580e+00 -2.85034e+00        00000 
-7.72579e+00 -3.73669e+00        00000 
-7.23858e+00 -3.54687e+00        00000 
-6.73990e+00 -3.37493e+00        00000 
-6.23120e+00 -3.21989e+00        00000 
-5.71378e+00 -3.08089e+00        00000 
-5.18883e+00 -2.95708e+00        00000 
-4.65741e+00 -2.84773e+00        00000 
-4.12051e+00 -2.75217e+00        00000 
-3.57900e+00 -2.66981e+00        00000 
-3.03366e+00 -2.60014e+00        00000 
-2.48522e+00 -2.54273e+00        00000 
-1.93433e+00 -2.49723e+00        00000 
-1.38159e+00 -2.46338e+00        00000 
-8.27550e-01 -2.44095e+00        00000 
-2.72751e-01 -2.42982e+00        00000 
 2.82300e-01 -2.42991e+00        00000 
 8.37098e-01 -2.44124e+00        00000 
 1.39113e+00 -2.46386e+00        00000 
 1.94387e+00 -2.49791e+00        00000 
 2.49476e+00 -2.54360e+00        00000 
 3.04319e+00 -2.60119e+00        00000 
 3.58851e+00 -2.67105e+00        00000 
 4.13002e+00 -2.75359e+00        00000 
 4.66690e+00 -2.84933e+00        00000 
 5.19829e+00 -2.95886e+00        00000 
 5.72322e+00 -3.08283e+00        00000 
 6.24062e+00 -3.22201e+00        00000 
 6.74928e+00 -3.37720e+00        00000 
 7.24792e+00 -3.54931e+00        00000 
 7.73508e+00 -3.73927e+00        00000 
-8.62111e+00 -4.77343e+00        00000 
-8.05953e+00 -4.57859e+00        00000 
-7.48915e+00 -4.40260e+00        00000 
-6.91125e+00 -4.24439e+00        00000 
-6.32694e+00 -4.10292e+00        00000 
-5.73724e+00 -3.97726e+00        00000 
-5.14301e+00 -3.86654e+00        00000 
-4.54501e+00 -3.77000e+00        00000 
-3.94389e+00 -3.68696e+00        00000 
-3.34024e+00 -3.61684e+00        00000 
-2.73456e+00 -3.55915e+00        00000 
-2.12729e+00 -3.51349e+00        00000 
-1.51884e+00 -3.47954e+00        00000 
-9.09572e-01 -3.45707e+00        00000 
-2.99819e-01 -3.44591e+00        00000 
 3.10093e-01 -3.44601e+00        00000 
 9.19844e-01 -3.45734e+00        00000 
 1.52911e+00 -3.48000e+00        00000 
 2.13755e+00 -3.51414e+00        00000 
 2.74481e+00 -3.55998e+00        00000 
 3.35048e+00 -3.61785e+00        00000 
 3.95411e+00 -3.68815e+00        00000 
 4.55521e+00 -3.77136e+00        00000 
 5.15319e+00 -3.86807e+00        00000 
 5.74740e+00 -3.97896e+00        00000 
 6.33707e+00 -4.10479e+00        00000 
 6.92134e+00 -4.24641e+00        00000 
 7.49920e+00 -4.40478e+00        00000 
 8.06954e+00 -4.58092e+00        00000 
 8.63105e+00 -4.77591e+00        00000 
-9.53892e+00 -5.96532e+00        00000 
-8.89956e+00 -5.76646e+00        00000 
-8.25447e+00 -5.58741e+00        00000 
-7.60474e+00 -5.42693e+00        00000 
-6.95129e+00 -5.28383e+00        00000 
-6.29490e+00 -5.15703e+00        00000 
-5.63619e+00 -5.04556e+00        00000 
-4.97567e+00 -4.94855e+00        00000 
-4.31374e+00 -4.86525e+00        00000 
-3.65075e+00 -4.79501e+00        00000 
-2.98693e+00 -4.73728e+00        00000 
-2.32251e+00 -4.69162e+00        00000 
-1.65766e+00 -4.65770e+00        00000 
-9.92515e-01 -4.63525e+00        00000 
-3.27201e-01 -4.62411e+00        00000 
 3.38165e-01 -4.62420e+00        00000 
 1.00348e+00 -4.63552e+00        00000 
 1.66861e+00 -4.65814e+00        00000 
 2.33346e+00 -4.69224e+00        00000 
 2.99787e+00 -4.73807e+00        00000 
 3.66166e+00 -4.79596e+00        00000 
 4.32464e+00 -4.86638e+00        00000 
 4.98654e+00 -4.94984e+00        00000 
 5.64703e+00 -5.04701e+00        00000 
 6.30571e+00 -5.15864e+00        00000 
 6.96207e+00 -5.28560e+00        00000 
 7.61547e+00 -5.42885e+00        00000 
 8.26516e+00 -5.58949e+00        00000 
 8.91020e+00 -5.76868e+00        00000 
 9.54950e+00 -5.96768e+00        00000 
-1.04743e+01 -7.31951e+00        00000 
-9.75390e+00 -7.11782e+00        00000 
-9.03137e+00 -6.93685e+00        00000 
-8.30754e+00 -6.77513e+00        00000 
-7.58308e+00 -6.63132e+00        00000 
-6.85848e+00 -6.50419e+00        00000 
-6.13407e+00 -6.39264e+00        00000 
-5.41005e+00 -6.29571e+00        00000 
-4.68653e+00 -6.21256e+00        00000 
-3.96354e+00 -6.14250e+00        00000 
-3.24106e+00 -6.08495e+00        00000 
-2.51904e+00 -6.03945e+00        00000 
-1.79738e+00 -6.00565e+00        00000 
-1.07599e+00 -5.98328e+00        00000 
-3.54773e-01 -5.97218e+00        00000 
 3.66390e-01 -5.97226e+00        00000 
 1.08761e+00 -5.98353e+00        00000 
 1.80899e+00 -6.00606e+00        00000 
 2.53063e+00 -6.04003e+00        00000 
 3.25264e+00 -6.08569e+00        00000 
 3.97510e+00 -6.14340e+00        00000 
 4.69807e+00 -6.21362e+00        00000 
 5.42156e+00 -6.29693e+00        00000 
 6.14555e+00 -6.39402e+00        00000 
 6.86992e+00 -6.50572e+00        00000 
 7.59448e+00 -6.63300e+00        00000 
 8.31889e+00 -6.77695e+00        00000 
 9.04267e+00 -6.93881e+00        00000 
 9.76515e+00 -7.11992e+00        00000 
 1.04855e+01 -7.32174e+00        00000 
-1.14213e+01 -8.84276e+00        00000 
-1.06170e+01 -8.63965e+00        00000 
-9.81464e+00 -8.45807e+00        00000 
-9.01490e+00 -8.29631e+00        00000 
-8.21808e+00 -8.15282e+00        00000 
-7.42429e+00 -8.02621e+00        00000 
-6.63349e+00 -7.91526e+00        00000 
-5.84552e+00 -7.81891e+00        00000 
-5.06011e+00 -7.73628e+00        00000 
-4.27693e+00 -7.66664e+00        00000 
-3.49566e+00 -7.60941e+00        00000 
-2.71592e+00 -7.56413e+00        00000 
-1.93737e+00 -7.53047e+00        00000 
-1.15964e+00 -7.50818e+00        00000 
-3.82415e-01 -7.49712e+00        00000 
 3.94648e-01 -7.49719e+00        00000 
 1.17187e+00 -7.50842e+00        00000 