<?xml version="1.0" encoding="utf-8"?>
<VTKFile byte_order="LittleEndian" type="UnstructuredGrid" version="0.1">
   <UnstructuredGrid>
      <Piece NumberOfCells="3364" NumberOfPoints="1741">
         <Points>
            <DataArray Name="Points" NumberOfComponents="3" format="ascii" type="Float32">
0.0000 1.0000 0.0000
0.0000 1.0345 0.0000
0.0000 1.0690 0.0000
0.0000 1.1034 0.0000
0.0000 1.1379 0.0000
0.0000 1.1724 0.0000
0.0000 1.2069 0.0000
0.0000 1.2414 0.0000
0.0000 1.2759 0.0000
0.0000 1.3103 0.0000
0.0000 1.3448 0.0000
0.0000 1.3793 0.0000
0.0000 1.4138 0.0000
0.0000 1.4483 0.0000
0.0000 1.4828 0.0000
0.0000 1.5172 0.0000
0.0000 1.5517 0.0000
0.0000 1.5862 0.0000
0.0000 1.6207 0.0000
0.0000 1.6552 0.0000
0.0000 1.6897 0.0000
0.0000 1.7241 0.0000
0.0000 1.7586 0.0000
0.0000 1.7931 0.0000
0.0000 1.8276 0.0000
0.0000 1.8621 0.0000
0.0000 1.8966 0.0000
0.0000 1.9310 0.0000
0.0000 1.9655 0.0000
0.0000 2.0000 0.0000
0.0690 1.0000 0.0000
0.0690 1.0345 0.0000
0.0690 1.0690 0.0000
0.0690 1.1034 0.0000
0.0690 1.1379 0.0000
0.0690 1.1724 0.0000
0.0690 1.2069 0.0000
0.0690 1.2414 0.0000
0.0690 1.2759 0.0000
0.0690 1.3103 0.0000
0.0690 1.3448 0.0000
0.0690 1.3793 0.0000
0.0690 1.4138 0.0000
0.0690 1.4483 0.0000
0.0690 1.4828 0.0000
0.0690 1.5172 0.0000
0.0690 1.5517 0.0000
0.0690 1.5862 0.0000
0.0690 1.6207 0.0000
0.0690 1.6552 0.0000
0.0690 1.6897 0.0000
0.0690 1.7241 0.0000
0.0690 1.7586 0.0000
0.0690 1.7931 0.0000
0.0690 1.8276 0.0000
0.0690 1.8621 0.0000
0.0690 1.8966 0.0000
0.0690 1.9310 0.0000
0.0690 1.9655 0.0000
0.0690 2.0000 0.0000
0.1379 1.0000 0.0000
0.1379 1.0345 0.0000
0.1379 1.0690 0.0000
0.1379 1.1034 0.0000
0.1379 1.1379 0.0000
0.1379 1.1724 0.0000
0.1379 1.2069 0.0000
0.1379 1.2414 0.0000
0.1379 1.2759 0.0000
0.1379 1.3103 0.0000
0.1379 1.3448 0.0000
0.1379 1.3793 0.0000
0.1379 1.4138 0.0000
0.1379 1.4483 0.0000
0.1379 1.4828 0.0000
0.1379 1.5172 0.0000
0.1379 1.5517 0.0000
0.1379 1.5862 0.0000
0.1379 1.6207 0.0000
0.1379 1.6552 0.0000
0.1379 1.6897 0.0000
0.1379 1.7241 0.0000
0.1379 1.7586 0.0000
0.1379 1.7931 0.0000
0.1379 1.8276 0.0000
0.1379 1.8621 0.0000
0.1379 1.8966 0.0000
0.1379 1.9310 0.0000
0.1379 1.9655 0.0000
0.1379 2.0000 0.0000
0.2069 1.0000 0.0000
0.2069 1.0345 0.0000
0.2069 1.0690 0.0000
0.2069 1.1034 0.0000
0.2069 1.1379 0.0000
0.2069 1.1724 0.0000
0.2069 1.2069 0.0000
0.2069 1.2414 0.0000
0.2069 1.2759 0.0000
0.2069 1.3103 0.0000
0.2069 1.3448 0.0000
0.2069 1.3793 0.0000
0.2069 1.4138 0.0000
0.2069 1.4483 0.0000
0.2069 1.4828 0.0000
0.2069 1.5172 0.0000
0.2069 1.5517 0.0000
0.2069 1.5862 0.0000
0.2069 1.6207 0.0000
0.2069 1.6552 0.0000
0.2069 1.6897 0.0000
0.2069 1.7241 0.0000
0.2069 1.7586 0.0000
0.2069 1.7931 0.0000
0.2069 1.8276 0.0000
0.2069 1.8621 0.0000
0.2069 1.8966 0.0000
0.2069 1.9310 0.0000
0.2069 1.9655 0.0000
0.2069 2.0000 0.0000
0.2759 1.0000 0.0000
0.2759 1.0345 0.0000
0.2759 1.0690 0.0000
0.2759 1.1034 0.0000
0.2759 1.1379 0.0000
0.2759 1.1724 0.0000
0.2759 1.2069 0.0000
0.2759 1.2414 0.0000
0.2759 1.2759 0.0000
0.2759 1.3103 0.0000
0.2759 1.3448 0.0000
0.2759 1.3793 0.0000
0.2759 1.4138 0.0000
0.2759 1.4483 0.0000
0.2759 1.4828 0.0000
0.2759 1.5172 0.0000
0.2759 1.5517 0.0000
0.2759 1.5862 0.0000
0.2759 1.6207 0.0000
0.2759 1.6552 0.0000
0.2759 1.6897 0.0000
0.2759 1.7241 0.0000
0.2759 1.7586 0.0000
0.2759 1.7931 0.0000
0.2759 1.8276 0.0000
0.2759 1.8621 0.0000
0.2759 1.8966 0.0000
0.2759 1.9310 0.0000
0.2759 1.9655 0.0000
0.2759 2.0000 0.0000
0.3448 1.0000 0.0000
0.3448 1.0345 0.0000
0.3448 1.0690 0.0000
0.3448 1.1034 0.0000
0.3448 1.1379 0.0000
0.3448 1.1724 0.0000
0.3448 1.2069 0.0000
0.3448 1.2414 0.0000
0.3448 1.2759 0.0000
0.3448 1.3103 0.0000
0.3448 1.3448 0.0000
0.3448 1.3793 0.0000
0.3448 1.4138 0.0000
0.3448 1.4483 0.0000
0.3448 1.4828 0.0000
0.3448 1.5172 0.0000
0.3448 1.5517 0.0000
0.3448 1.5862 0.0000
0.3448 1.6207 0.0000
0.3448 1.6552 0.0000
0.3448 1.6897 0.0000
0.3448 1.7241 0.0000
0.3448 1.7586 0.0000
0.3448 1.7931 0.0000
0.3448 1.8276 0.0000
0.3448 1.8621 0.0000
0.3448 1.8966 0.0000
0.3448 1.9310 0.0000
0.3448 1.9655 0.0000
0.3448 2.0000 0.0000
0.4138 1.0000 0.0000
0.4138 1.0345 0.0000
0.4138 1.0690 0.0000
0.4138 1.1034 0.0000
0.4138 1.1379 0.0000
0.4138 1.1724 0.0000
0.4138 1.2069 0.0000
0.4138 1.2414 0.0000
0.4138 1.2759 0.0000
0.4138 1.3103 0.0000
0.4138 1.3448 0.0000
0.4138 1.3793 0.0000
0.4138 1.4138 0.0000
0.4138 1.4483 0.0000
0.4138 1.4828 0.0000
0.4138 1.5172 0.0000
0.4138 1.5517 0.0000
0.4138 1.5862 0.0000
0.4138 1.6207 0.0000
0.4138 1.6552 0.0000
0.4138 1.6897 0.0000
0.4138 1.7241 0.0000
0.4138 1.7586 0.0000
0.4138 1.7931 0.0000
0.4138 1.8276 0.0000
0.4138 1.8621 0.0000
0.4138 1.8966 0.0000
0.4138 1.9310 0.0000
0.4138 1.9655 0.0000
0.4138 2.0000 0.0000
0.4828 1.0000 0.0000
0.4828 1.0345 0.0000
0.4828 1.0690 0.0000
0.4828 1.1034 0.0000
0.4828 1.1379 0.0000
0.4828 1.1724 0.0000
0.4828 1.2069 0.0000
0.4828 1.2414 0.0000
0.4828 1.2759 0.0000
0.4828 1.3103 0.0000
0.4828 1.3448 0.0000
0.4828 1.3793 0.0000
0.4828 1.4138 0.0000
0.4828 1.4483 0.0000
0.4828 1.4828 0.0000
0.4828 1.5172 0.0000
0.4828 1.5517 0.0000
0.4828 1.5862 0.0000
0.4828 1.6207 0.0000
0.4828 1.6552 0.0000
0.4828 1.6897 0.0000
0.4828 1.7241 0.0000
0.4828 1.7586 0.0000
0.4828 1.7931 0.0000
0.4828 1.8276 0.0000
0.4828 1.8621 0.0000
0.4828 1.8966 0.0000
0.4828 1.9310 0.0000
0.4828 1.9655 0.0000
0.4828 2.0000 0.0000
0.5517 1.0000 0.0000
0.5517 1.0345 0.0000
0.5517 1.0690 0.0000
0.5517 1.1034 0.0000
0.5517 1.1379 0.0000
0.5517 1.1724 0.0000
0.5517 1.2069 0.0000
0.5517 1.2414 0.0000
0.5517 1.2759 0.0000
0.5517 1.3103 0.0000
0.5517 1.3448 0.0000
0.5517 1.3793 0.0000
0.5517 1.4138 0.0000
0.5517 1.4483 0.0000
0.5517 1.4828 0.0000
0.5517 1.5172 0.0000
0.5517 1.5517 0.0000
0.5517 1.5862 0.0000
0.5517 1.6207 0.0000
0.5517 1.6552 0.0000
0.5517 1.6897 0.0000
0.5517 1.7241 0.0000
0.5517 1.7586 0.0000
0.5517 1.7931 0.0000
0.5517 1.8276 0.0000
0.5517 1.8621 0.0000
0.5517 1.8966 0.0000
0.5517 1.9310 0.0000
0.5517 1.9655 0.0000
0.5517 2.0000 0.0000
0.6207 1.0000 0.0000
0.6207 1.0345 0.0000
0.6207 1.0690 0.0000
0.6207 1.1034 0.0000
0.6207 1.1379 0.0000
0.6207 1.1724 0.0000
0.6207 1.2069 0.0000
0.6207 1.2414 0.0000
0.6207 1.2759 0.0000
0.6207 1.3103 0.0000
0.6207 1.3448 0.0000
0.6207 1.3793 0.0000
0.6207 1.4138 0.0000
0.6207 1.4483 0.0000
0.6207 1.4828 0.0000
0.6207 1.5172 0.0000
0.6207 1.5517 0.0000
0.6207 1.5862 0.0000
0.6207 1.6207 0.0000
0.6207 1.6552 0.0000
0.6207 1.6897 0.0000
0.6207 1.7241 0.0000
0.6207 1.7586 0.0000
0.6207 1.7931 0.0000
0.6207 1.8276 0.0000
0.6207 1.8621 0.0000
0.6207 1.8966 0.0000
0.6207 1.9310 0.0000
0.6207 1.9655 0.0000
0.6207 2.0000 0.0000
0.6897 1.0000 0.0000
0.6897 1.0345 0.0000
0.6897 1.0690 0.0000
0.6897 1.1034 0.0000
0.6897 1.1379 0.0000
0.6897 1.1724 0.0000
0.6897 1.2069 0.0000
0.6897 1.2414 0.0000
0.6897 1.2759 0.0000
0.6897 1.3103 0.0000
0.6897 1.3448 0.0000
0.6897 1.3793 0.0000
0.6897 1.4138 0.0000
0.6897 1.4483 0.0000
0.6897 1.4828 0.0000
0.6897 1.5172 0.0000
0.6897 1.5517 0.0000
0.6897 1.5862 0.0000
0.6897 1.6207 0.0000
0.6897 1.6552 0.0000
0.6897 1.6897 0.0000
0.6897 1.7241 0.0000
0.6897 1.7586 0.0000
0.6897 1.7931 0.0000
0.6897 1.8276 0.0000
0.6897 1.8621 0.0000
0.6897 1.8966 0.0000
0.6897 1.9310 0.0000
0.6897 1.9655 0.0000
0.6897 2.0000 0.0000
0.7586 1.0000 0.0000
0.7586 1.0345 0.0000
0.7586 1.0690 0.0000
0.7586 1.1034 0.0000
0.7586 1.1379 0.0000
0.7586 1.1724 0.0000
0.7586 1.2069 0.0000
0.7586 1.2414 0.0000
0.7586 1.2759 0.0000
0.7586 1.3103 0.0000
0.7586 1.3448 0.0000
0.7586 1.3793 0.0000
0.7586 1.4138 0.0000
0.7586 1.4483 0.0000
0.7586 1.4828 0.0000
0.7586 1.5172 0.0000
0.7586 1.5517 0.0000
0.7586 1.5862 0.0000
0.7586 1.6207 0.0000
0.7586 1.6552 0.0000
0.7586 1.6897 0.0000
0.7586 1.7241 0.0000
0.7586 1.7586 0.0000
0.7586 1.7931 0.0000
0.7586 1.8276 0.0000
0.7586 1.8621 0.0000
0.7586 1.8966 0.0000
0.7586 1.9310 0.0000
0.7586 1.9655 0.0000
0.7586 2.0000 0.0000
0.8276 1.0000 0.0000
0.8276 1.0345 0.0000
0.8276 1.0690 0.0000
0.8276 1.1034 0.0000
0.8276 1.1379 0.0000
0.8276 1.1724 0.0000
0.8276 1.2069 0.0000
0.8276 1.2414 0.0000
0.8276 1.2759 0.0000
0.8276 1.3103 0.0000
0.8276 1.3448 0.0000
0.8276 1.3793 0.0000
0.8276 1.4138 0.0000
0.8276 1.4483 0.0000
0.8276 1.4828 0.0000
0.8276 1.5172 0.0000
0.8276 1.5517 0.0000
0.8276 1.5862 0.0000
0.8276 1.6207 0.0000
0.8276 1.6552 0.0000
0.8276 1.6897 0.0000
0.8276 1.7241 0.0000
0.8276 1.7586 0.0000
0.8276 1.7931 0.0000
0.8276 1.8276 0.0000
0.8276 1.8621 0.0000
0.8276 1.8966 0.0000
0.8276 1.9310 0.0000
0.8276 1.9655 0.0000
0.8276 2.0000 0.0000
0.8966 1.0000 0.0000
0.8966 1.0345 0.0000
0.8966 1.0690 0.0000
0.8966 1.1034 0.0000
0.8966 1.1379 0.0000
0.8966 1.1724 0.0000
0.8966 1.2069 0.0000
0.8966 1.2414 0.0000
0.8966 1.2759 0.0000
0.8966 1.3103 0.0000
0.8966 1.3448 0.0000
0.8966 1.3793 0.0000
0.8966 1.4138 0.0000
0.8966 1.4483 0.0000
0.8966 1.4828 0.0000
0.8966 1.5172 0.0000
0.8966 1.5517 0.0000
0.8966 1.5862 0.0000
0.8966 1.6207 0.0000
0.8966 1.6552 0.0000
0.8966 1.6897 0.0000
0.8966 1.7241 0.0000
0.8966 1.7586 0.0000
0.8966 1.7931 0.0000
0.8966 1.8276 0.0000
0.8966 1.8621 0.0000
0.8966 1.8966 0.0000
0.8966 1.9310 0.0000
0.8966 1.9655 0.0000
0.8966 2.0000 0.0000
0.9655 1.0000 0.0000
0.9655 1.0345 0.0000
0.9655 1.0690 0.0000
0.9655 1.1034 0.0000
0.9655 1.1379 0.0000
0.9655 1.1724 0.0000
0.9655 1.2069 0.0000
0.9655 1.2414 0.0000
0.9655 1.2759 0.0000
0.9655 1.3103 0.0000
0.9655 1.3448 0.0000
0.9655 1.3793 0.0000
0.9655 1.4138 0.0000
0.9655 1.4483 0.0000
0.9655 1.4828 0.0000
0.9655 1.5172 0.0000
0.9655 1.5517 0.0000
0.9655 1.5862 0.0000
0.9655 1.6207 0.0000
0.9655 1.6552 0.0000
0.9655 1.6897 0.0000
0.9655 1.7241 0.0000
0.9655 1.7586 0.0000
0.9655 1.7931 0.0000
0.9655 1.8276 0.0000
0.9655 1.8621 0.0000
0.9655 1.8966 0.0000
0.9655 1.9310 0.0000
0.9655 1.9655 0.0000
0.9655 2.0000 0.0000
1.0345 1.0000 0.0000
1.0345 1.0345 0.0000
1.0345 1.0690 0.0000
1.0345 1.1034 0.0000
1.0345 1.1379 0.0000
1.0345 1.1724 0.0000
1.0345 1.2069 0.0000
1.0345 1.2414 0.0000
1.0345 1.2759 0.0000
1.0345 1.3103 0.0000
1.0345 1.3448 0.0000
[...]
         <PointData>
            <DataArray Name="fValues" NumberOfComponents="3" format="ascii" type="Float64">
-9.19905e-20 -3.02930e-18        00000 
 3.67962e-19  4.41554e-18        00000 
-2.72902e-19 -4.36643e-18        00000 
-3.31452e-19  1.06065e-17        00000 
 3.09289e-18 -1.60102e-17        00000 
-3.84483e-18  7.20141e-18        00000 
 2.54708e-18 -1.01883e-17        00000 
-7.54338e-19 -6.58331e-18        00000 
 6.36771e-19  2.03767e-17        00000 
-2.05038e-19 -1.07652e-17        00000 
 2.72902e-19  1.30993e-17        00000 
-1.65726e-19  1.27095e-17        00000 
 1.36451e-19 -1.01883e-17        00000 
-6.52720e-19 -9.79214e-20        00000 
 1.09161e-18  5.82190e-18        00000 
-1.10293e-18  1.57268e-17        00000 
 1.81934e-19 -2.32876e-17        00000 
 7.03653e-19  2.30754e-17        00000 
 1.63741e-18 -5.82190e-18        00000 
-2.28587e-19  5.21179e-18        00000 
 1.81934e-18 -6.54964e-18        00000 
-1.40064e-21 -1.35555e-18        00000 
 3.63869e-18 -7.27738e-19        00000 
 7.08621e-19  5.66896e-18        00000 
 3.63869e-19 -2.18321e-18        00000 
-4.15489e-18  8.43667e-18        00000 
-1.45548e-18 -9.46059e-18        00000 
 2.61076e-18  1.92371e-18        00000 
 1.65145e-18  3.39466e-18        00000 
 1.99390e-18 -3.73678e-18        00000 
 3.89637e-02  6.86627e-02        00000 
 1.15761e-02  6.48787e-02        00000 
-9.75347e-04  6.64912e-02        00000 
-7.76552e-03  7.06382e-02        00000 
-1.13634e-02  7.58284e-02        00000 
-1.29164e-02  8.13027e-02        00000 
-1.30372e-02  8.66464e-02        00000 
-1.20959e-02  9.16174e-02        00000 
-1.03391e-02  9.60653e-02        00000 
-7.94462e-03  9.98914e-02        00000 
-5.05022e-03  1.03028e-01        00000 
-1.76867e-03  1.05427e-01        00000 
 1.80294e-03  1.07055e-01        00000 
 5.57770e-03  1.07885e-01        00000 
 9.47509e-03  1.07902e-01        00000 
 1.34183e-02  1.07094e-01        00000 
 1.73323e-02  1.05456e-01        00000 
 2.11416e-02  1.02987e-01        00000 
 2.47689e-02  9.96923e-02        00000 
 2.81325e-02  9.55824e-02        00000 
 3.11439e-02  9.06739e-02        00000 
 3.37034e-02  8.49914e-02        00000 
 3.56944e-02  7.85706e-02        00000 
 3.69735e-02  7.14636e-02        00000 
 3.73531e-02  6.37492e-02        00000 
 3.65695e-02  5.55531e-02        00000 
 3.42185e-02  4.70885e-02        00000 
 2.96100e-02  3.87419e-02        00000 
 2.13819e-02  3.12643e-02        00000 
 5.85926e-03  2.61581e-02        00000 
 4.27487e-02  1.43253e-01        00000 
 1.06223e-02  1.45817e-01        00000 
-1.06714e-02  1.49247e-01        00000 
-2.33088e-02  1.54492e-01        00000 
-3.01358e-02  1.61043e-01        00000 
-3.28889e-02  1.68251e-01        00000 
-3.26591e-02  1.75579e-01        00000 
-3.01697e-02  1.82618e-01        00000 
-2.59284e-02  1.89062e-01        00000 
-2.03126e-02  1.94689e-01        00000 
-1.36184e-02  1.99330e-01        00000 
-6.08902e-03  2.02862e-01        00000 
 2.06632e-03  2.05193e-01        00000 
 1.06609e-02  2.06257e-01        00000 
 1.95226e-02  2.06011e-01        00000 
 2.84877e-02  2.04427e-01        00000 
 3.73962e-02  2.01495e-01        00000 
 4.60881e-02  1.97219e-01        00000 
 5.43988e-02  1.91621e-01        00000 
 6.21541e-02  1.84739e-01        00000 
 6.91647e-02  1.76632e-01        00000 
 7.52174e-02  1.67384e-01        00000 
 8.00626e-02  1.57111e-01        00000 
 8.33948e-02  1.45969e-01        00000 
 8.48208e-02  1.34174e-01        00000 
 8.38054e-02  1.22019e-01        00000 
 7.95767e-02  1.09905e-01        00000 
 7.09532e-02  9.83531e-02        00000 
 5.60374e-02  8.79633e-02        00000 
 3.22137e-02  7.90053e-02        00000 
 2.35116e-02  2.19888e-01        00000 
-9.09214e-03  2.26387e-01        00000 
-3.22383e-02  2.33250e-01        00000 
-4.72873e-02  2.40649e-01        00000 
-5.55994e-02  2.48647e-01        00000 
-5.85598e-02  2.57000e-01        00000 
-5.72882e-02  2.65355e-01        00000 
-5.26533e-02  2.73360e-01        00000 
-4.53321e-02  2.80700e-01        00000 
-3.58647e-02  2.87110e-01        00000 
-2.46940e-02  2.92378e-01        00000 
-1.21954e-02  2.96333e-01        00000 
 1.30319e-03  2.98846e-01        00000 
 1.55062e-02  2.99821e-01        00000 
 3.01396e-02  2.99192e-01        00000 
 4.49426e-02  2.96920e-01        00000 
 5.96600e-02  2.92993e-01        00000 
 7.40363e-02  2.87423e-01        00000 
 8.78086e-02  2.80249e-01        00000 
 1.00700e-01  2.71536e-01        00000 
 1.12409e-01  2.61382e-01        00000 
 1.22601e-01  2.49920e-01        00000 
 1.30890e-01  2.37320e-01        00000 
 1.36816e-01  2.23803e-01        00000 
 1.39819e-01  2.09642e-01        00000 
 1.39184e-01  1.95160e-01        00000 
 1.33997e-01  1.80725e-01        00000 
 1.23073e-01  1.66699e-01        00000 
 1.04988e-01  1.53328e-01        00000 
 7.82082e-02  1.40641e-01        00000 
-1.41164e-02  2.93654e-01        00000 
-4.53032e-02  3.03964e-01        00000 
-6.76949e-02  3.14122e-01        00000 
-8.21494e-02  3.24255e-01        00000 
-8.96419e-02  3.34336e-01        00000 
-9.11478e-02  3.44253e-01        00000 
-8.76063e-02  3.53801e-01        00000 
-7.98585e-02  3.62732e-01        00000 
-6.86346e-02  3.70794e-01        00000 
-5.45656e-02  3.77750e-01        00000 
-3.82008e-02  3.83395e-01        00000 
-2.00252e-02  3.87555e-01        00000 
-4.75420e-04  3.90093e-01        00000 
 2.00476e-02  3.90903e-01        00000 
 4.11673e-02  3.89913e-01        00000 
 6.25224e-02  3.87082e-01        00000 
 8.37584e-02  3.82397e-01        00000 
 1.04520e-01  3.75878e-01        00000 
 1.24441e-01  3.67576e-01        00000 
 1.43141e-01  3.57571e-01        00000 
 1.60210e-01  3.45979e-01        00000 
 1.75198e-01  3.32953e-01        00000 
 1.87603e-01  3.18680e-01        00000 
 1.96855e-01  3.03386e-01        00000 
 2.02291e-01  2.87329e-01        00000 
 2.03142e-01  2.70789e-01        00000 
 1.98519e-01  2.54045e-01        00000 
 1.87424e-01  2.37334e-01        00000 
 1.68795e-01  2.20816e-01        00000 
 1.41577e-01  2.04540e-01        00000 
-6.87866e-02  3.62849e-01        00000 
-9.74365e-02  3.76856e-01        00000 
-1.17401e-01  3.90440e-01        00000 
-1.29365e-01  4.03570e-01        00000 
-1.34099e-01  4.16180e-01        00000 
-1.32416e-01  4.28151e-01        00000 
-1.25125e-01  4.39329e-01        00000 
-1.13008e-01  4.49530e-01        00000 
-9.67950e-02  4.58562e-01        00000 
-7.71587e-02  4.66233e-01        00000 
-5.47159e-02  4.72371e-01        00000 
-3.00339e-02  4.76824e-01        00000 
-3.63861e-03  4.79466e-01        00000 
 2.39759e-02  4.80202e-01        00000 
 5.23388e-02  4.78965e-01        00000 
 8.09938e-02  4.75718e-01        00000 
 1.09491e-01  4.70453e-01        00000 
 1.37378e-01  4.63193e-01        00000 
 1.64195e-01  4.53993e-01        00000 
 1.89460e-01  4.42936e-01        00000 
 2.12668e-01  4.30140e-01        00000 
 2.33274e-01  4.15750e-01        00000 
 2.50688e-01  3.99944e-01        00000 
 2.64265e-01  3.82925e-01        00000 
 2.73295e-01  3.64914e-01        00000 
 2.77004e-01  3.46142e-01        00000 
 2.74559e-01  3.26832e-01        00000 
 2.65087e-01  3.07181e-01        00000 
 2.47706e-01  2.87349e-01        00000 
 2.21570e-01  2.67450e-01        00000 
-1.40532e-01  4.26148e-01        00000 
-1.65786e-01  4.44006e-01        00000 
-1.82073e-01  4.61203e-01        00000 
-1.90047e-01  4.77612e-01        00000 
-1.90424e-01  4.93101e-01        00000 
-1.83955e-01  5.07535e-01        00000 
-1.71406e-01  5.20767e-01        00000 
-1.53532e-01  5.32640e-01        00000 
-1.31065e-01  5.43001e-01        00000 
-1.04707e-01  5.51697e-01        00000 
-7.51213e-02  5.58590e-01        00000 
-4.29377e-02  5.63557e-01        00000 
-8.75427e-03  5.66494e-01        00000 
 2.68569e-02  5.67324e-01        00000 
 6.33430e-02  5.65991e-01        00000 
 1.00164e-01  5.62468e-01        00000 
 1.36784e-01  5.56751e-01        00000 
 1.72665e-01  5.48865e-01        00000 
 2.07261e-01  5.38863e-01        00000 
 2.40006e-01  5.26822e-01        00000 
 2.70311e-01  5.12848e-01        00000 
 2.97556e-01  4.97072e-01        00000 
 3.21082e-01  4.79648e-01        00000 
 3.40191e-01  4.60751e-01        00000 
 3.54141e-01  4.40568e-01        00000 
 3.62152e-01  4.19298e-01        00000 
 3.63412e-01  3.97137e-01        00000 
 3.57098e-01  3.74280e-01        00000 
 3.42391e-01  3.50910e-01        00000 
 3.18508e-01  3.27203e-01        00000 
-2.30367e-01  4.82259e-01        00000 
-2.51339e-01  5.04261e-01        00000 
-2.62784e-01  5.25353e-01        00000 
-2.65406e-01  5.45333e-01        00000 
-2.59947e-01  5.64025e-01        00000 
-2.47174e-01  5.81268e-01        00000 
-2.27862e-01  5.96911e-01        00000 
-2.02780e-01  6.10814e-01        00000 
-1.72683e-01  6.22843e-01        00000 
-1.38305e-01  6.32876e-01        00000 
-1.00354e-01  6.40802e-01        00000 
-5.95123e-02  6.46526e-01        00000 
-1.64380e-02  6.49970e-01        00000 
 2.82319e-02  6.51073e-01        00000 
 7.38758e-02  6.49796e-01        00000 
 1.19882e-01  6.46118e-01        00000 
 1.65643e-01  6.40043e-01        00000 
 2.10547e-01  6.31593e-01        00000 
 2.53974e-01  6.20816e-01        00000 
 2.95288e-01  6.07780e-01        00000 
 3.33830e-01  5.92574e-01        00000 
 3.68916e-01  5.75309e-01        00000 
 3.99831e-01  5.56116e-01        00000 
 4.25827e-01  5.35141e-01        00000 
 4.46125e-01  5.12548e-01        00000 
 4.59918e-01  4.88513e-01        00000 
 4.66381e-01  4.63223e-01        00000 
 4.64678e-01  4.36876e-01        00000 
 4.53979e-01  4.09681e-01        00000 
 4.33478e-01  3.81867e-01        00000 
-3.39974e-01  5.29529e-01        00000 
-3.55594e-01  5.56079e-01        00000 
-3.60934e-01  5.81413e-01        00000 
-3.56798e-01  6.05284e-01        00000 
-3.44007e-01  6.27483e-01        00000 
-3.23388e-01  6.47833e-01        00000 
-2.95767e-01  6.66184e-01        00000 
-2.61958e-01  6.82403e-01        00000 
-2.22759e-01  6.96376e-01        00000 
-1.78947e-01  7.08003e-01        00000 
-1.31277e-01  7.17199e-01        00000 
-8.04780e-02  7.23892e-01        00000 
-2.72616e-02  7.28027e-01        00000 
 2.76808e-02  7.29560e-01        00000 
 8.36706e-02  7.28466e-01        00000 
 1.40038e-01  7.24734e-01        00000 
 1.96115e-01  7.18369e-01        00000 
 2.51231e-01  7.09393e-01        00000 
 3.04706e-01  6.97846e-01        00000 
 3.55844e-01  6.83782e-01        00000 
 4.03928e-01  6.67275e-01        00000 
 4.48218e-01  6.48413e-01        00000 
 4.87945e-01  6.27304e-01        00000 
 5.22311e-01  6.04070e-01        00000 
 5.50488e-01  5.78852e-01        00000 
 5.71625e-01  5.51809e-01        00000 
 5.84846e-01  5.23118e-01        00000 
 5.89263e-01  4.92980e-01        00000 
 5.83986e-01  4.61624e-01        00000 
 5.68128e-01  4.29310e-01        00000 
-4.71518e-01  5.65736e-01        00000 
-4.80427e-01  5.97316e-01        00000 
-4.78179e-01  6.27288e-01        00000 
-4.65714e-01  6.55380e-01        00000 
-4.43967e-01  6.81373e-01        00000 
-4.13856e-01  7.05088e-01        00000 
-3.76286e-01  7.26382e-01        00000 
-3.32136e-01  7.45136e-01        00000 
-2.82262e-01  7.61257e-01        00000 
-2.27492e-01  7.74667e-01        00000 
-1.68629e-01  7.85306e-01        00000 
-1.06450e-01  7.93126e-01        00000 
-4.17117e-02  7.98089e-01        00000 
 2.48497e-02  8.00171e-01        00000 
 9.25095e-02  7.99359e-01        00000 
 1.60552e-01  7.95649e-01        00000 
 2.28263e-01  7.89049e-01        00000 
 2.94924e-01  7.79577e-01        00000 
 3.59808e-01  7.67263e-01        00000 
 4.22171e-01  7.52149e-01        00000 
 4.81247e-01  7.34289e-01        00000 
 5.36247e-01  7.13749e-01        00000 
 5.86349e-01  6.90612e-01        00000 
 6.30702e-01  6.64976e-01        00000 
 6.68422e-01  6.36956e-01        00000 
 6.98593e-01  6.06690e-01        00000 
 7.20269e-01  5.74341e-01        00000 
 7.32480e-01  5.40104e-01        00000 
 7.34235e-01  5.04210e-01        00000 
 7.24533e-01  4.66938e-01        00000 
-6.27509e-01  5.87916e-01        00000 
-6.27972e-01  6.25057e-01        00000 
-6.16345e-01  6.60085e-01        00000 
-5.93730e-01  6.92729e-01        00000 
-5.61198e-01  7.22779e-01        00000 
-5.19782e-01  7.50073e-01        00000 
-4.70480e-01  7.74486e-01        00000 
-4.14250e-01  7.95928e-01        00000 
-3.52012e-01  8.14330e-01        00000 
-2.84651e-01  8.29644e-01        00000 
-2.13016e-01  8.41834e-01        00000 
-1.37927e-01  8.50877e-01        00000 
-6.01785e-02  8.56757e-01        00000 
 1.94577e-02  8.59468e-01        00000 
 1.00223e-01  8.59006e-01        00000 
 1.81368e-01  8.55375e-01        00000 
 2.62146e-01  8.48584e-01        00000 
 3.41804e-01  8.38647e-01        00000 
 4.19580e-01  8.25583e-01        00000 
 4.94693e-01  8.09418e-01        00000 
 5.66340e-01  7.90185e-01        00000 
 6.33686e-01  7.67926e-01        00000 
 6.95865e-01  7.42695e-01        00000 
 7.51971e-01  7.14559e-01        00000 
 8.01056e-01  6.83604e-01        00000 
 8.42131e-01  6.49938e-01        00000 
 8.74165e-01  6.13698e-01        00000 
 8.96083e-01  5.75057e-01        00000 
 9.06771e-01  5.34232e-01        00000 
 9.05084e-01  4.91496e-01        00000 
-8.10684e-01  5.92200e-01        00000 
-8.00512e-01  6.35458e-01        00000 
-7.77335e-01  6.75961e-01        00000 
-7.42433e-01  7.13468e-01        00000 
-6.97028e-01  7.47800e-01        00000 
-6.42281e-01  7.78834e-01        00000 
-5.79290e-01  8.06485e-01        00000 
-5.09095e-01  8.30701e-01        00000 
-4.32684e-01  8.51451e-01        00000 
-3.50991e-01  8.68723e-01        00000 
-2.64909e-01  8.82512e-01        00000 
-1.75291e-01  8.92823e-01        00000 
-8.29575e-02  8.99664e-01        00000 
 1.12939e-02  9.03045e-01        00000 
 1.06684e-01  9.02975e-01        00000 
 2.02445e-01  8.99465e-01        00000 
 2.97810e-01  8.92522e-01        00000 
 3.92007e-01  8.82156e-01        00000 
 4.84254e-01  8.68373e-01        00000 
 5.73745e-01  8.51182e-01        00000 
 6.59650e-01  8.30592e-01        00000 
 7.41102e-01  8.06616e-01        00000 
 8.17194e-01  7.79273e-01        00000 
 8.86972e-01  7.48594e-01        00000 
 9.49426e-01  7.14623e-01        00000 
 1.00349e+00  6.77426e-01        00000 
 1.04804e+00  6.37096e-01        00000 
 1.08188e+00  5.93767e-01        00000 
 1.10377e+00  5.47619e-01        00000 
 1.11238e+00  4.98892e-01        00000 
-1.02388e+00  5.73665e-01        00000 
-1.00036e+00  6.23593e-01        00000 
-9.63020e-01  6.69963e-01        00000 
-9.13330e-01  7.12598e-01        00000 
-8.52670e-01  7.51384e-01        00000 
-7.82328e-01  7.86259e-01        00000 
-7.03502e-01  8.17201e-01        00000 
-6.17309e-01  8.44213e-01        00000 
-5.24794e-01  8.67316e-01        00000 
-4.26933e-01  8.86542e-01        00000 
-3.24647e-01  9.01927e-01        00000 
-2.18810e-01  9.13506e-01        00000 
-1.10256e-01  9.21314e-01        00000 
 2.09693e-04  9.25378e-01        00000 
 1.11802e-01  9.25722e-01        00000 
 2.23750e-01  9.22361e-01        00000 
 3.35282e-01  9.15302e-01        00000 
 4.45624e-01  9.04549e-01        00000 
 5.53987e-01  8.90094e-01        00000 
 6.59560e-01  8.71926e-01        00000 
 7.61498e-01  8.50028e-01        00000 
 8.58919e-01  8.24378e-01        00000 
 9.50887e-01  7.94956e-01        00000 
 1.03641e+00  7.61744e-01        00000 
 1.11443e+00  7.24733e-01        00000 
 1.18380e+00  6.83930e-01        00000 
 1.24331e+00  6.39366e-01        00000 
 1.29165e+00  5.91108e-01        00000 
 1.32742e+00  5.39270e-01        00000 
 1.34911e+00  4.84031e-01        00000 
-1.26987e+00  5.26187e-01        00000 
-1.22972e+00  5.83293e-01        00000 
-1.17512e+00  6.35865e-01        00000 
-1.10774e+00  6.83826e-01        00000 
-1.02913e+00  7.27163e-01        00000 
-9.40690e-01  7.65909e-01        00000 
-8.43699e-01  8.00126e-01        00000 
-7.39338e-01  8.29894e-01        00000 
-6.28687e-01  8.55300e-01        00000 
-5.12745e-01  8.76432e-01        00000 
-3.92443e-01  8.93371e-01        00000 
-2.68652e-01  9.06188e-01        00000 
-1.42203e-01  9.14944e-01        00000 
-1.38895e-02  9.19686e-01        00000 
 1.15515e-01  9.20451e-01        00000 
 2.45251e-01  9.17257e-01        00000 
 3.74564e-01  9.10115e-01        00000 
 5.02692e-01  8.99017e-01        00000 
 6.28860e-01  8.83945e-01        00000 
 7.52266e-01  8.64865e-01        00000 
 8.72074e-01  8.41732e-01        00000 
 9.87404e-01  8.14487e-01        00000 
 1.09731e+00  7.83063e-01        00000 
 1.20079e+00  7.47384e-01        00000 
 1.29675e+00  7.07372e-01        00000 
 1.38399e+00  6.62958e-01        00000 
 1.46121e+00  6.14084e-01        00000 
 1.52700e+00  5.60722e-01        00000 
 1.57980e+00  5.02888e-01        00000 
 1.61794e+00  4.40655e-01        00000 
-1.55121e+00  4.42298e-01        00000 
-1.49049e+00  5.07008e-01        00000 
-1.41503e+00  5.66017e-01        00000 
-1.32668e+00  6.19404e-01        00000 
-1.22712e+00  6.67297e-01        00000 
-1.11786e+00  7.09859e-01        00000 
-1.00022e+00  7.47267e-01        00000 
-8.75412e-01  7.79698e-01        00000 
-7.44527e-01  8.07320e-01        00000 
-6.08550e-01  8.30282e-01        00000 
-4.68391e-01  8.48715e-01        00000 
-3.24896e-01  8.62729e-01        00000 
-1.78863e-01  8.72408e-01        00000 
-3.10573e-02  8.77819e-01        00000 
 1.17780e-01  8.79005e-01        00000 
 2.66921e-01  8.75993e-01        00000 
 4.15640e-01  8.68790e-01        00000 
 5.63208e-01  8.57384e-01        00000 
 7.08881e-01  8.41743e-01        00000 
 8.51890e-01  8.21816e-01        00000 
 9.91432e-01  7.97530e-01        00000 
 1.12665e+00  7.68787e-01        00000 
 1.25663e+00  7.35469e-01        00000 
 1.38038e+00  6.97436e-01        00000 
 1.49680e+00  6.54528e-01        00000 
 1.60467e+00  6.06576e-01        00000 
 1.70266e+00  5.53408e-01        00000 
 1.78923e+00  4.94866e-01        00000 
 1.86273e+00  4.30821e-01        00000 
 1.92127e+00  3.61197e-01        00000 
-1.87000e+00  3.13075e-01        00000 
-1.78411e+00  3.85671e-01        00000 
-1.68367e+00  4.51212e-01        00000 
-1.57068e+00  5.09990e-01        00000 
-1.44693e+00  5.62332e-01        00000 
-1.31395e+00  6.08569e-01        00000 
-1.17309e+00  6.49024e-01        00000 
-1.02552e+00  6.83990e-01        00000 
-8.72298e-01  7.13724e-01        00000 
-7.14341e-01  7.38445e-01        00000 
-5.52501e-01  7.58331e-01        00000 
-3.87562e-01  7.73521e-01        00000 
-2.20267e-01  7.84120e-01        00000 
-5.13257e-02  7.90203e-01        00000 
 1.18568e-01  7.91820e-01        00000 
 2.88732e-01  7.88998e-01        00000 
 4.58485e-01  7.81742e-01        00000 
 6.27145e-01  7.70038e-01        00000 
 7.94017e-01  7.53849e-01        00000 
 9.58385e-01  7.33111e-01        00000 
 1.11951e+00  7.07729e-01        00000 
 1.27659e+00  6.77576e-01        00000 
 1.42878e+00  6.42482e-01        00000 
 1.57514e+00  6.02238e-01        00000 
 1.71464e+00  5.56595e-01        00000 
 1.84607e+00  5.05264e-01        00000 
 1.96809e+00  4.47929e-01        00000 
 2.07916e+00  3.84260e-01        00000 
 2.17750e+00  3.13934e-01        00000 
 2.26108e+00  2.36658e-01        00000 
-2.22753e+00  1.28064e-01        00000 
-2.11122e+00  2.08616e-01        00000 
-1.98122e+00  2.80583e-01        00000 
-1.83965e+00  3.44550e-01        00000 
-1.68829e+00  4.01100e-01        00000 
-1.52866e+00  4.50785e-01        00000 
-1.36202e+00  4.94100e-01        00000 
-1.18944e+00  5.31469e-01        00000 
-1.01185e+00  5.63246e-01        00000 
-8.30039e-01  5.89709e-01        00000 
-6.44754e-01  6.11071e-01        00000 
-4.56675e-01  6.27485e-01        00000 
-2.66457e-01  6.39059e-01        00000 
-7.47382e-02  6.45863e-01        00000 
 1.17848e-01  6.47940e-01        00000 
 3.10670e-01  6.45312e-01        00000 
 5.03099e-01  6.37985e-01        00000 