<?xml version="1.0" encoding="utf-8"?>
<VTKFile byte_order="LittleEndian" type="UnstructuredGrid" version="0.1">
   <UnstructuredGrid>
      <Piece NumberOfCells="3364" NumberOfPoints="1741">
         <Points>
            <DataArray Name="Points" NumberOfComponents="3" format="ascii" type="Float32">
0.0000 1.0000 0.0000
0.0000 1.0345 0.0000
0.0000 1.0690 0.0000
0.0000 1.1034 0.0000
0.0000 1.1379 0.0000
0.0000 1.1724 0.0000
0.0000 1.2069 0.0000
0.0000 1.2414 0.0000
0.0000 1.2759 0.0000
0.0000 1.3103 0.0000
0.0000 1.3448 0.0000
0.0000 1.3793 0.0000
0.0000 1.4138 0.0000
0.0000 1.4483 0.0000
0.0000 1.4828 0.0000
0.0000 1.5172 0.0000
0.0000 1.5517 0.0000
0.0000 1.5862 0.0000
0.0000 1.6207 0.0000
0.0000 1.6552 0.0000
0.0000 1.6897 0.0000
0.0000 1.7241 0.0000
0.0000 1.7586 0.0000
0.0000 1.7931 0.0000
0.0000 1.8276 0.0000
0.0000 1.8621 0.0000
0.0000 1.8966 0.0000
0.0000 1.9310 0.0000
0.0000 1.9655 0.0000
0.0000 2.0000 0.0000
0.0690 1.0000 0.0000
0.0690 1.0345 0.0000
0.0690 1.0690 0.0000
0.0690 1.1034 0.0000
0.0690 1.1379 0.0000
0.0690 1.1724 0.0000
0.0690 1.2069 0.0000
0.0690 1.2414 0.0000
0.0690 1.2759 0.0000
0.0690 1.3103 0.0000
0.0690 1.3448 0.0000
0.0690 1.3793 0.0000
0.0690 1.4138 0.0000
0.0690 1.4483 0.0000
0.0690 1.4828 0.0000
0.0690 1.5172 0.0000
0.0690 1.5517 0.0000
0.0690 1.5862 0.0000
0.0690 1.6207 0.0000
0.0690 1.6552 0.0000
0.0690 1.6897 0.0000
0.0690 1.7241 0.0000
0.0690 1.7586 0.0000
0.0690 1.7931 0.0000
0.0690 1.8276 0.0000
0.0690 1.8621 0.0000
0.0690 1.8966 0.0000
0.0690 1.9310 0.0000
0.0690 1.9655 0.0000
0.0690 2.0000 0.0000
0.1379 1.0000 0.0000
0.1379 1.0345 0.0000
0.1379 1.0690 0.0000
0.1379 1.1034 0.0000
0.1379 1.1379 0.0000
0.1379 1.1724 0.0000
0.1379 1.2069 0.0000
0.1379 1.2414 0.0000
0.1379 1.2759 0.0000
0.1379 1.3103 0.0000
0.1379 1.3448 0.0000
0.1379 1.3793 0.0000
0.1379 1.4138 0.0000
0.1379 1.4483 0.0000
0.1379 1.4828 0.0000
0.1379 1.5172 0.0000
0.1379 1.5517 0.0000
0.1379 1.5862 0.0000
0.1379 1.6207 0.0000
0.1379 1.6552 0.0000
0.1379 1.6897 0.0000
0.1379 1.7241 0.0000
0.1379 1.7586 0.0000
0.1379 1.7931 0.0000
0.1379 1.8276 0.0000
0.1379 1.8621 0.0000
0.1379 1.8966 0.0000
0.1379 1.9310 0.0000
0.1379 1.9655 0.0000
0.1379 2.0000 0.0000
0.2069 1.0000 0.0000
0.2069 1.0345 0.0000
0.2069 1.0690 0.0000
0.2069 1.1034 0.0000
0.2069 1.1379 0.0000
0.2069 1.1724 0.0000
0.2069 1.2069 0.0000
0.2069 1.2414 0.0000
0.2069 1.2759 0.0000
0.2069 1.3103 0.0000
0.2069 1.3448 0.0000
0.2069 1.3793 0.0000
0.2069 1.4138 0.0000
0.2069 1.4483 0.0000
0.2069 1.4828 0.0000
0.2069 1.5172 0.0000
0.2069 1.5517 0.0000
0.2069 1.5862 0.0000
0.2069 1.6207 0.0000
0.2069 1.6552 0.0000
0.2069 1.6897 0.0000
0.2069 1.7241 0.0000
0.2069 1.7586 0.0000
0.2069 1.7931 0.0000
0.2069 1.8276 0.0000
0.2069 1.8621 0.0000
0.2069 1.8966 0.0000
0.2069 1.9310 0.0000
0.2069 1.9655 0.0000
0.2069 2.0000 0.0000
0.2759 1.0000 0.0000
0.2759 1.0345 0.0000
0.2759 1.0690 0.0000
0.2759 1.1034 0.0000
0.2759 1.1379 0.0000
0.2759 1.1724 0.0000
0.2759 1.2069 0.0000
0.2759 1.2414 0.0000
0.2759 1.2759 0.0000
0.2759 1.3103 0.0000
0.2759 1.3448 0.0000
0.2759 1.3793 0.0000
0.2759 1.4138 0.0000
0.2759 1.4483 0.0000
0.2759 1.4828 0.0000
0.2759 1.5172 0.0000
0.2759 1.5517 0.0000
0.2759 1.5862 0.0000
0.2759 1.6207 0.0000
0.2759 1.6552 0.0000
0.2759 1.6897 0.0000
0.2759 1.7241 0.0000
0.2759 1.7586 0.0000
0.2759 1.7931 0.0000
0.2759 1.8276 0.0000
0.2759 1.8621 0.0000
0.2759 1.8966 0.0000
0.2759 1.9310 0.0000
0.2759 1.9655 0.0000
0.2759 2.0000 0.0000
0.3448 1.0000 0.0000
0.3448 1.0345 0.0000
0.3448 1.0690 0.0000
0.3448 1.1034 0.0000
0.3448 1.1379 0.0000
0.3448 1.1724 0.0000
0.3448 1.2069 0.0000
0.3448 1.2414 0.0000
0.3448 1.2759 0.0000
0.3448 1.3103 0.0000
0.3448 1.3448 0.0000
0.3448 1.3793 0.0000
0.3448 1.4138 0.0000
0.3448 1.4483 0.0000
0.3448 1.4828 0.0000
0.3448 1.5172 0.0000
0.3448 1.5517 0.0000
0.3448 1.5862 0.0000
0.3448 1.6207 0.0000
0.3448 1.6552 0.0000
0.3448 1.6897 0.0000
0.3448 1.7241 0.0000
0.3448 1.7586 0.0000
0.3448 1.7931 0.0000
0.3448 1.8276 0.0000
0.3448 1.8621 0.0000
0.3448 1.8966 0.0000
0.3448 1.9310 0.0000
0.3448 1.9655 0.0000
0.3448 2.0000 0.0000
0.4138 1.0000 0.0000
0.4138 1.0345 0.0000
0.4138 1.0690 0.0000
0.4138 1.1034 0.0000
0.4138 1.1379 0.0000
0.4138 1.1724 0.0000
0.4138 1.2069 0.0000
0.4138 1.2414 0.0000
0.4138 1.2759 0.0000
0.4138 1.3103 0.0000
0.4138 1.3448 0.0000
0.4138 1.3793 0.0000
0.4138 1.4138 0.0000
0.4138 1.4483 0.0000
0.4138 1.4828 0.0000
0.4138 1.5172 0.0000
0.4138 1.5517 0.0000
0.4138 1.5862 0.0000
0.4138 1.6207 0.0000
0.4138 1.6552 0.0000
0.4138 1.6897 0.0000
0.4138 1.7241 0.0000
0.4138 1.7586 0.0000
0.4138 1.7931 0.0000
0.4138 1.8276 0.0000
0.4138 1.8621 0.0000
0.4138 1.8966 0.0000
0.4138 1.9310 0.0000
0.4138 1.9655 0.0000
0.4138 2.0000 0.0000
0.4828 1.0000 0.0000
0.4828 1.0345 0.0000
0.4828 1.0690 0.0000
0.4828 1.1034 0.0000
0.4828 1.1379 0.0000
0.4828 1.1724 0.0000
0.4828 1.2069 0.0000
0.4828 1.2414 0.0000
0.4828 1.2759 0.0000
0.4828 1.3103 0.0000
0.4828 1.3448 0.0000
0.4828 1.3793 0.0000
0.4828 1.4138 0.0000
0.4828 1.4483 0.0000
0.4828 1.4828 0.0000
0.4828 1.5172 0.0000
0.4828 1.5517 0.0000
0.4828 1.5862 0.0000
0.4828 1.6207 0.0000
0.4828 1.6552 0.0000
0.4828 1.6897 0.0000
0.4828 1.7241 0.0000
0.4828 1.7586 0.0000
0.4828 1.7931 0.0000
0.4828 1.8276 0.0000
0.4828 1.8621 0.0000
0.4828 1.8966 0.0000
0.4828 1.9310 0.0000
0.4828 1.9655 0.0000
0.4828 2.0000 0.0000
0.5517 1.0000 0.0000
0.5517 1.0345 0.0000
0.5517 1.0690 0.0000
0.5517 1.1034 0.0000
0.5517 1.1379 0.0000
0.5517 1.1724 0.0000
0.5517 1.2069 0.0000
0.5517 1.2414 0.0000
0.5517 1.2759 0.0000
0.5517 1.3103 0.0000
0.5517 1.3448 0.0000
0.5517 1.3793 0.0000
0.5517 1.4138 0.0000
0.5517 1.4483 0.0000
0.5517 1.4828 0.0000
0.5517 1.5172 0.0000
0.5517 1.5517 0.0000
0.5517 1.5862 0.0000
0.5517 1.6207 0.0000
0.5517 1.6552 0.0000
0.5517 1.6897 0.0000
0.5517 1.7241 0.0000
0.5517 1.7586 0.0000
0.5517 1.7931 0.0000
0.5517 1.8276 0.0000
0.5517 1.8621 0.0000
0.5517 1.8966 0.0000
0.5517 1.9310 0.0000
0.5517 1.9655 0.0000
0.5517 2.0000 0.0000
0.6207 1.0000 0.0000
0.6207 1.0345 0.0000
0.6207 1.0690 0.0000
0.6207 1.1034 0.0000
0.6207 1.1379 0.0000
0.6207 1.1724 0.0000
0.6207 1.2069 0.0000
0.6207 1.2414 0.0000
0.6207 1.2759 0.0000
0.6207 1.3103 0.0000
0.6207 1.3448 0.0000
0.6207 1.3793 0.0000
0.6207 1.4138 0.0000
0.6207 1.4483 0.0000
0.6207 1.4828 0.0000
0.6207 1.5172 0.0000
0.6207 1.5517 0.0000
0.6207 1.5862 0.0000
0.6207 1.6207 0.0000
0.6207 1.6552 0.0000
0.6207 1.6897 0.0000
0.6207 1.7241 0.0000
0.6207 1.7586 0.0000
0.6207 1.7931 0.0000
0.6207 1.8276 0.0000
0.6207 1.8621 0.0000
0.6207 1.8966 0.0000
0.6207 1.9310 0.0000
0.6207 1.9655 0.0000
0.6207 2.0000 0.0000
0.6897 1.0000 0.0000
0.6897 1.0345 0.0000
0.6897 1.0690 0.0000
0.6897 1.1034 0.0000
0.6897 1.1379 0.0000
0.6897 1.1724 0.0000
0.6897 1.2069 0.0000
0.6897 1.2414 0.0000
0.6897 1.2759 0.0000
0.6897 1.3103 0.0000
0.6897 1.3448 0.0000
0.6897 1.3793 0.0000
0.6897 1.4138 0.0000
0.6897 1.4483 0.0000
0.6897 1.4828 0.0000
0.6897 1.5172 0.0000
0.6897 1.5517 0.0000
0.6897 1.5862 0.0000
0.6897 1.6207 0.0000
0.6897 1.6552 0.0000
0.6897 1.6897 0.0000
0.6897 1.7241 0.0000
0.6897 1.7586 0.0000
0.6897 1.7931 0.0000
0.6897 1.8276 0.0000
0.6897 1.8621 0.0000
0.6897 1.8966 0.0000
0.6897 1.9310 0.0000
0.6897 1.9655 0.0000
0.6897 2.0000 0.0000
0.7586 1.0000 0.0000
0.7586 1.0345 0.0000
0.7586 1.0690 0.0000
0.7586 1.1034 0.0000
0.7586 1.1379 0.0000
0.7586 1.1724 0.0000
0.7586 1.2069 0.0000
0.7586 1.2414 0.0000
0.7586 1.2759 0.0000
0.7586 1.3103 0.0000
0.7586 1.3448 0.0000
0.7586 1.3793 0.0000
0.7586 1.4138 0.0000
0.7586 1.4483 0.0000
0.7586 1.4828 0.0000
0.7586 1.5172 0.0000
0.7586 1.5517 0.0000
0.7586 1.5862 0.0000
0.7586 1.6207 0.0000
0.7586 1.6552 0.0000
0.7586 1.6897 0.0000
0.7586 1.7241 0.0000
0.7586 1.7586 0.0000
0.7586 1.7931 0.0000
0.7586 1.8276 0.0000
0.7586 1.8621 0.0000
0.7586 1.8966 0.0000
0.7586 1.9310 0.0000
0.7586 1.9655 0.0000
0.7586 2.0000 0.0000
0.8276 1.0000 0.0000
0.8276 1.0345 0.0000
0.8276 1.0690 0.0000
0.8276 1.1034 0.0000
0.8276 1.1379 0.0000
0.8276 1.1724 0.0000
0.8276 1.2069 0.0000
0.8276 1.2414 0.0000
0.8276 1.2759 0.0000
0.8276 1.3103 0.0000
0.8276 1.3448 0.0000
0.8276 1.3793 0.0000
0.8276 1.4138 0.0000
0.8276 1.4483 0.0000
0.8276 1.4828 0.0000
0.8276 1.5172 0.0000
0.8276 1.5517 0.0000
0.8276 1.5862 0.0000
0.8276 1.6207 0.0000
0.8276 1.6552 0.0000
0.8276 1.6897 0.0000
0.8276 1.7241 0.0000
0.8276 1.7586 0.0000
0.8276 1.7931 0.0000
0.8276 1.8276 0.0000
0.8276 1.8621 0.0000
0.8276 1.8966 0.0000
0.8276 1.9310 0.0000
0.8276 1.9655 0.0000
0.8276 2.0000 0.0000
0.8966 1.0000 0.0000
0.8966 1.0345 0.0000
0.8966 1.0690 0.0000
0.8966 1.1034 0.0000
0.8966 1.1379 0.0000
0.8966 1.1724 0.0000
0.8966 1.2069 0.0000
0.8966 1.2414 0.0000
0.8966 1.2759 0.0000
0.8966 1.3103 0.0000
0.8966 1.3448 0.0000
0.8966 1.3793 0.0000
0.8966 1.4138 0.0000
0.8966 1.4483 0.0000
0.8966 1.4828 0.0000
0.8966 1.5172 0.0000
0.8966 1.5517 0.0000
0.8966 1.5862 0.0000
0.8966 1.6207 0.0000
0.8966 1.6552 0.0000
0.8966 1.6897 0.0000
0.8966 1.7241 0.0000
0.8966 1.7586 0.0000
0.8966 1.7931 0.0000
0.8966 1.8276 0.0000
0.8966 1.8621 0.0000
0.8966 1.8966 0.0000
0.8966 1.9310 0.0000
0.8966 1.9655 0.0000
0.8966 2.0000 0.0000
0.9655 1.0000 0.0000
0.9655 1.0345 0.0000
0.9655 1.0690 0.0000
0.9655 1.1034 0.0000
0.9655 1.1379 0.0000
0.9655 1.1724 0.0000
0.9655 1.2069 0.0000
0.9655 1.2414 0.0000
0.9655 1.2759 0.0000
0.9655 1.3103 0.0000
0.9655 1.3448 0.0000
0.9655 1.3793 0.0000
0.9655 1.4138 0.0000
0.9655 1.4483 0.0000
0.9655 1.4828 0.0000
0.9655 1.5172 0.0000
0.9655 1.5517 0.0000
0.9655 1.5862 0.0000
0.9655 1.6207 0.0000
0.9655 1.6552 0.0000
0.9655 1.6897 0.0000
0.9655 1.7241 0.0000
0.9655 1.7586 0.0000
0.9655 1.7931 0.0000
0.9655 1.8276 0.0000
0.9655 1.8621 0.0000
0.9655 1.8966 0.0000
0.9655 1.9310 0.0000
0.9655 1.9655 0.0000
0.9655 2.0000 0.0000
1.0345 1.0000 0.0000
1.0345 1.0345 0.0000
1.0345 1.0690 0.0000
1.0345 1.1034 0.0000
1.0345 1.1379 0.0000
1.0345 1.1724 0.0000
1.0345 1.2069 0.0000
1.0345 1.2414 0.0000
1.0345 1.2759 0.0000
1.0345 1.3103 0.0000
1.0345 1.3448 0.0000
[...]
         <PointData>
            <DataArray Name="fValues" NumberOfComponents="3" format="ascii" type="Float64">
-2.23588e-18 -7.24809e-18        00000 
 1.24187e-18  5.88739e-18        00000 
-2.72902e-18 -1.45548e-18        00000 
 3.15450e-18  3.74883e-18        00000 
 1.45548e-18  8.73285e-18        00000 
-4.45512e-18  4.66947e-18        00000 
-7.27738e-19  1.01883e-17        00000 
 1.89727e-18  1.82870e-18        00000 
-7.27738e-19 -5.82190e-18        00000 
 1.34637e-18  1.06046e-17        00000 
-5.45803e-19  1.01883e-17        00000 
 7.00763e-19 -8.59488e-18        00000 
-1.36451e-18  1.45548e-17        00000 
-7.02975e-19  2.93663e-17        00000 
 1.53507e-18 -8.73285e-18        00000 
-1.98371e-18  3.01735e-18        00000 
 1.45548e-18 -1.30993e-17        00000 
-9.33425e-19  1.15488e-17        00000 
 3.63869e-19  1.45548e-17        00000 
-2.92592e-18 -2.55103e-17        00000 
 4.36643e-18  3.49314e-17        00000 
 2.43479e-19 -1.41004e-17        00000 
 1.45548e-18  7.27738e-18        00000 
-6.85762e-19  1.13379e-17        00000 
 7.27738e-18 -5.09416e-18        00000 
 1.98048e-18  1.79946e-19        00000 
 7.27738e-19        00000        00000 
 3.71002e-18  2.61076e-18        00000 
-4.86262e-18 -4.95436e-18        00000 
 4.58513e-18  1.47165e-17        00000 
 2.78339e-02  6.92968e-02        00000 
-1.88476e-03  6.90622e-02        00000 
-1.56806e-02  7.42981e-02        00000 
-2.29346e-02  8.19231e-02        00000 
-2.64642e-02  9.03600e-02        00000 
-2.75658e-02  9.88134e-02        00000 
-2.69468e-02  1.06854e-01        00000 
-2.50426e-02  1.14234e-01        00000 
-2.21468e-02  1.20804e-01        00000 
-1.84741e-02  1.26465e-01        00000 
-1.41914e-02  1.31153e-01        00000 
-9.43647e-03  1.34821e-01        00000 
-4.32822e-03  1.37437e-01        00000 
 1.02677e-03  1.38977e-01        00000 
 6.52958e-03  1.39426e-01        00000 
 1.20857e-02  1.38774e-01        00000 
 1.76024e-02  1.37016e-01        00000 
 2.29864e-02  1.34153e-01        00000 
 2.81413e-02  1.30191e-01        00000 
 3.29646e-02  1.25140e-01        00000 
 3.73443e-02  1.19019e-01        00000 
 4.11534e-02  1.11854e-01        00000 
 4.42418e-02  1.03685e-01        00000 
 4.64228e-02  9.45713e-02        00000 
 4.74503e-02  8.46052e-02        00000 
 4.69753e-02  7.39390e-02        00000 
 4.44589e-02  6.28382e-02        00000 
 3.89754e-02  5.17961e-02        00000 
 2.86863e-02  4.17888e-02        00000 
 8.59258e-03  3.47945e-02        00000 
 1.59947e-02  1.55187e-01        00000 
-2.08513e-02  1.62066e-01        00000 
-4.43598e-02  1.70179e-01        00000 
-5.76690e-02  1.80205e-01        00000 
-6.40902e-02  1.91449e-01        00000 
-6.56499e-02  2.03136e-01        00000 
-6.36309e-02  2.14645e-01        00000 
-5.88906e-02  2.25509e-01        00000 
-5.20359e-02  2.35387e-01        00000 
-4.35205e-02  2.44028e-01        00000 
-3.37017e-02  2.51249e-01        00000 
-2.28746e-02  2.56915e-01        00000 
-1.12932e-02  2.60928e-01        00000 
 8.15390e-04  2.63216e-01        00000 
 1.32413e-02  2.63734e-01        00000 
 2.57848e-02  2.62455e-01        00000 
 3.82501e-02  2.59370e-01        00000 
 5.04401e-02  2.54488e-01        00000 
 6.21511e-02  2.47836e-01        00000 
 7.31662e-02  2.39461e-01        00000 
 8.32474e-02  2.29436e-01        00000 
 9.21239e-02  2.17861e-01        00000 
 9.94757e-02  2.04880e-01        00000 
 1.04907e-01  1.90688e-01        00000 
 1.07904e-01  1.75553e-01        00000 
 1.07762e-01  1.59847e-01        00000 
 1.03455e-01  1.44080e-01        00000 
 9.34065e-02  1.28925e-01        00000 
 7.50735e-02  1.15150e-01        00000 
 4.49578e-02  1.03066e-01        00000 
-2.45355e-02  2.44902e-01        00000 
-6.21869e-02  2.56811e-01        00000 
-8.78766e-02  2.69122e-01        00000 
-1.03489e-01  2.82000e-01        00000 
-1.10859e-01  2.95408e-01        00000 
-1.11717e-01  3.08989e-01        00000 
-1.07438e-01  3.22293e-01        00000 
-9.90822e-02  3.34889e-01        00000 
-8.74741e-02  3.46399e-01        00000 
-7.32713e-02  3.56514e-01        00000 
-5.70129e-02  3.64983e-01        00000 
-3.91553e-02  3.71611e-01        00000 
-2.00973e-02  3.76251e-01        00000 
-1.97940e-04  3.78795e-01        00000 
 2.02098e-02  3.79169e-01        00000 
 4.08083e-02  3.77334e-01        00000 
 6.12864e-02  3.73278e-01        00000 
 8.13306e-02  3.67020e-01        00000 
 1.00617e-01  3.58612e-01        00000 
 1.18801e-01  3.48136e-01        00000 
 1.35507e-01  3.35713e-01        00000 
 1.50309e-01  3.21507e-01        00000 
 1.62715e-01  3.05734e-01        00000 
 1.72133e-01  2.88668e-01        00000 
 1.77830e-01  2.70651e-01        00000 
 1.78873e-01  2.52093e-01        00000 
 1.74050e-01  2.33454e-01        00000 
 1.61795e-01  2.15186e-01        00000 
 1.40218e-01  1.97579e-01        00000 
 1.07292e-01  1.80628e-01        00000 
-8.84748e-02  3.31077e-01        00000 
-1.24063e-01  3.47776e-01        00000 
-1.48405e-01  3.64201e-01        00000 
-1.62727e-01  3.80467e-01        00000 
-1.68353e-01  3.96512e-01        00000 
-1.66572e-01  4.12156e-01        00000 
-1.58590e-01  4.27120e-01        00000 
-1.45464e-01  4.41087e-01        00000 
-1.28106e-01  4.53742e-01        00000 
-1.07295e-01  4.64797e-01        00000 
-8.37075e-02  4.74003e-01        00000 
-5.79370e-02  4.81156e-01        00000 
-3.05166e-02  4.86093e-01        00000 
-1.93440e-03  4.88691e-01        00000 
 2.73519e-02  4.88868e-01        00000 
 5.69028e-02  4.86579e-01        00000 
 8.62866e-02  4.81813e-01        00000 
 1.15068e-01  4.74598e-01        00000 
 1.42800e-01  4.64999e-01        00000 
 1.69008e-01  4.53116e-01        00000 
 1.93181e-01  4.39095e-01        00000 
 2.14755e-01  4.23124e-01        00000 
 2.33091e-01  4.05435e-01        00000 
 2.47457e-01  3.86307e-01        00000 
 2.56998e-01  3.66060e-01        00000 
 2.60713e-01  3.45038e-01        00000 
 2.57436e-01  3.23577e-01        00000 
 2.45859e-01  3.01960e-01        00000 
 2.24585e-01  2.80358e-01        00000 
 1.92228e-01  2.58793e-01        00000 
-1.74061e-01  4.10590e-01        00000 
-2.05850e-01  4.31940e-01        00000 
-2.26525e-01  4.52602e-01        00000 
-2.37063e-01  4.72538e-01        00000 
-2.38523e-01  4.91657e-01        00000 
-2.31991e-01  5.09803e-01        00000 
-2.18525e-01  5.26772e-01        00000 
-1.99129e-01  5.42330e-01        00000 
-1.74727e-01  5.56236e-01        00000 
-1.46159e-01  5.68254e-01        00000 
-1.14190e-01  5.78172e-01        00000 
-7.95193e-02  5.85809e-01        00000 
-4.27896e-02  5.91014e-01        00000 
-4.60326e-03  5.93675e-01        00000 
 3.44672e-02  5.93712e-01        00000 
 7.38677e-02  5.91084e-01        00000 
 1.13051e-01  5.85785e-01        00000 
 1.51467e-01  5.77844e-01        00000 
 1.88551e-01  5.67330e-01        00000 
 2.23712e-01  5.54345e-01        00000 
 2.56320e-01  5.39032e-01        00000 
 2.85698e-01  5.21569e-01        00000 
 3.11101e-01  5.02171e-01        00000 
 3.31709e-01  4.81081e-01        00000 
 3.46615e-01  4.58564e-01        00000 
 3.54821e-01  4.34894e-01        00000 
 3.55249e-01  4.10326e-01        00000 
 3.46762e-01  3.85084e-01        00000 
 3.28211e-01  3.59332e-01        00000 
 2.98488e-01  3.33174e-01        00000 
-2.81189e-01  4.81133e-01        00000 
-3.07816e-01  5.07276e-01        00000 
-3.23037e-01  5.32362e-01        00000 
-3.27768e-01  5.56255e-01        00000 
-3.22986e-01  5.78808e-01        00000 
-3.09691e-01  5.99861e-01        00000 
-2.88883e-01  6.19237e-01        00000 
-2.61535e-01  6.36750e-01        00000 
-2.28576e-01  6.52211e-01        00000 
-1.90884e-01  6.65437e-01        00000 
-1.49284e-01  6.76261e-01        00000 
-1.04551e-01  6.84535e-01        00000 
-5.74164e-02  6.90138e-01        00000 
-8.57617e-03  6.92976e-01        00000 
 4.12992e-02  6.92984e-01        00000 
 9.15555e-02  6.90129e-01        00000 
 1.41545e-01  6.84408e-01        00000 
 1.90614e-01  6.75853e-01        00000 
 2.38099e-01  6.64524e-01        00000 
 2.83307e-01  6.50514e-01        00000 
 3.25515e-01  6.33948e-01        00000 
 3.63955e-01  6.14979e-01        00000 
 3.97806e-01  5.93786e-01        00000 
 4.26191e-01  5.70570e-01        00000 
 4.48173e-01  5.45547e-01        00000 
 4.62759e-01  5.18937e-01        00000 
 4.68911e-01  4.90956e-01        00000 
 4.65567e-01  4.61812e-01        00000 
 4.51669e-01  4.31693e-01        00000 
 4.26196e-01  4.00777e-01        00000 
-4.10880e-01  5.40483e-01        00000 
-4.30967e-01  5.71716e-01        00000 
-4.39067e-01  6.01507e-01        00000 
-4.36140e-01  6.29649e-01        00000 
-4.23177e-01  6.55956e-01        00000 
-4.01184e-01  6.80259e-01        00000 
-3.71162e-01  7.02393e-01        00000 
-3.34093e-01  7.22200e-01        00000 
-2.90926e-01  7.39532e-01        00000 
-2.42576e-01  7.54248e-01        00000 
-1.89917e-01  7.66221e-01        00000 
-1.33785e-01  7.75341e-01        00000 
-7.49794e-02  7.81517e-01        00000 
-1.42720e-02  7.84678e-01        00000 
 4.75877e-02  7.84778e-01        00000 
 1.09863e-01  7.81793e-01        00000 
 1.71824e-01  7.75726e-01        00000 
 2.32733e-01  7.66602e-01        00000 
 2.91843e-01  7.54474e-01        00000 
 3.48382e-01  7.39418e-01        00000 
 4.01549e-01  7.21533e-01        00000 
 4.50507e-01  7.00943e-01        00000 
 4.94376e-01  6.77789e-01        00000 
 5.32229e-01  6.52233e-01        00000 
 5.63095e-01  6.24448e-01        00000 
 5.85964e-01  5.94618e-01        00000 
 5.99792e-01  5.62938e-01        00000 
 6.03518e-01  5.29607e-01        00000 
 5.96076e-01  4.94838e-01        00000 
 5.76424e-01  4.58858e-01        00000 
-5.64877e-01  5.85989e-01        00000 
-5.76833e-01  6.22722e-01        00000 
-5.76039e-01  6.57558e-01        00000 
-5.63562e-01  6.90253e-01        00000 
-5.40470e-01  7.20604e-01        00000 
-5.07826e-01  7.48440e-01        00000 
-4.66675e-01  7.73610e-01        00000 
-4.18039e-01  7.95982e-01        00000 
-3.62909e-01  8.15441e-01        00000 
-3.02238e-01  8.31883e-01        00000 
-2.36949e-01  8.45219e-01        00000 
-1.67927e-01  8.55371e-01        00000 
-9.60275e-02  8.62279e-01        00000 
-2.20810e-02  8.65897e-01        00000 
 5.31016e-02  8.66194e-01        00000 
 1.28721e-01  8.63159e-01        00000 
 2.03981e-01  8.56796e-01        00000 
 2.78082e-01  8.47126e-01        00000 
 3.50211e-01  8.34189e-01        00000 
 4.19534e-01  8.18042e-01        00000 
 4.85191e-01  7.98758e-01        00000 
 5.46287e-01  7.76430e-01        00000 
 6.01890e-01  7.51163e-01        00000 
 6.51025e-01  7.23080e-01        00000 
 6.92679e-01  6.92317e-01        00000 
 7.25800e-01  6.59029e-01        00000 
 7.49299e-01  6.23385e-01        00000 
 7.62066e-01  5.85578e-01        00000 
 7.62974e-01  5.45827e-01        00000 
 7.50890e-01  5.04384e-01        00000 
-7.45394e-01  6.14308e-01        00000 
-7.47284e-01  6.57017e-01        00000 
-7.35581e-01  6.97271e-01        00000 
-7.11490e-01  7.34823e-01        00000 
-6.76194e-01  7.69475e-01        00000 
-6.30845e-01  8.01069e-01        00000 
-5.76561e-01  8.29481e-01        00000 
-5.14421e-01  8.54610e-01        00000 
-4.45468e-01  8.76375e-01        00000 
-3.70705e-01  8.94707e-01        00000 
-2.91094e-01  9.09554e-01        00000 
-2.07566e-01  9.20873e-01        00000 
-1.21020e-01  9.28631e-01        00000 
-3.23281e-02  9.32804e-01        00000 
 5.76530e-02  9.33381e-01        00000 
 1.48079e-01  9.30357e-01        00000 
 2.38109e-01  9.23738e-01        00000 
 3.26896e-01  9.13540e-01        00000 
 4.13582e-01  8.99790e-01        00000 
 4.97288e-01  8.82524e-01        00000 
 5.77106e-01  8.61789e-01        00000 
 6.52097e-01  8.37644e-01        00000 
 7.21281e-01  8.10158e-01        00000 
 7.83638e-01  7.79416e-01        00000 
 8.38101e-01  7.45516e-01        00000 
 8.83560e-01  7.08577e-01        00000 
 9.18863e-01  6.68738e-01        00000 
 9.42816e-01  6.26169e-01        00000 
 9.54191e-01  5.81077e-01        00000 
 9.51730e-01  5.33715e-01        00000 
-9.54908e-01  6.21224e-01        00000 
-9.44377e-01  6.70412e-01        00000 
-9.19414e-01  7.16464e-01        00000 
-8.81387e-01  7.59157e-01        00000 
-8.31610e-01  7.98324e-01        00000 
-7.71342e-01  8.33846e-01        00000 
-7.01785e-01  8.65635e-01        00000 
-6.24091e-01  8.93634e-01        00000 
-5.39354e-01  9.17802e-01        00000 
-4.48624e-01  9.38115e-01        00000 
-3.52903e-01  9.54555e-01        00000 
-2.53154e-01  9.67114e-01        00000 
-1.50306e-01  9.75789e-01        00000 
-4.52607e-02  9.80580e-01        00000 
 6.10987e-02  9.81489e-01        00000 
 1.67901e-01  9.78521e-01        00000 
 2.74278e-01  9.71683e-01        00000 
 3.79356e-01  9.60984e-01        00000 
 4.82248e-01  9.46437e-01        00000 
 5.82047e-01  9.28055e-01        00000 
 6.77813e-01  9.05858e-01        00000 
 7.68574e-01  8.79869e-01        00000 
 8.53311e-01  8.50119e-01        00000 
 9.30959e-01  8.16648e-01        00000 
 1.00040e+00  7.79512e-01        00000 
 1.06046e+00  7.38782e-01        00000 
 1.10990e+00  6.94555e-01        00000 
 1.14743e+00  6.46961e-01        00000 
 1.17171e+00  5.96170e-01        00000 
 1.18132e+00  5.42407e-01        00000 
-1.19599e+00  6.01519e-01        00000 
-1.17020e+00  6.57684e-01        00000 
-1.12924e+00  7.09888e-01        00000 
-1.07463e+00  7.57965e-01        00000 
-1.00785e+00  8.01809e-01        00000 
-9.30248e-01  8.41360e-01        00000 
-8.43127e-01  8.76590e-01        00000 
-7.47700e-01  9.07497e-01        00000 
-6.45116e-01  9.34094e-01        00000 
-5.36459e-01  9.56404e-01        00000 
-4.22759e-01  9.74454e-01        00000 
-3.05001e-01  9.88274e-01        00000 
-1.84126e-01  9.97888e-01        00000 
-6.10502e-02  1.00332e+00        00000 
 6.33363e-02  1.00459e+00        00000 
 1.88154e-01  1.00171e+00        00000 
 3.12527e-01  9.94692e-01        00000 
 4.35574e-01  9.83530e-01        00000 
 5.56400e-01  9.68223e-01        00000 
 6.74085e-01  9.48762e-01        00000 
 7.87677e-01  9.25136e-01        00000 
 8.96181e-01  8.97330e-01        00000 
 9.98555e-01  8.65331e-01        00000 
 1.09370e+00  8.29128e-01        00000 
 1.18044e+00  7.88721e-01        00000 
 1.25755e+00  7.44123e-01        00000 
 1.32372e+00  6.95369e-01        00000 
 1.37753e+00  6.42527e-01        00000 
 1.41753e+00  5.85705e-01        00000 
 1.44213e+00  5.25068e-01        00000 
-1.47114e+00  5.48870e-01        00000 
-1.42674e+00  6.12468e-01        00000 
-1.36660e+00  6.71122e-01        00000 
-1.29243e+00  7.24762e-01        00000 
-1.20583e+00  7.73374e-01        00000 
-1.10828e+00  8.16983e-01        00000 
-1.00114e+00  8.55642e-01        00000 
-8.85684e-01  8.89424e-01        00000 
-7.63096e-01  9.18406e-01        00000 
-6.34482e-01  9.42671e-01        00000 
-5.00882e-01  9.62295e-01        00000 
-3.63282e-01  9.77348e-01        00000 
-2.22619e-01  9.87888e-01        00000 
-7.97987e-02  9.93962e-01        00000 
 6.42982e-02  9.95606e-01        00000 
 2.08805e-01  9.92839e-01        00000 
 3.52860e-01  9.85669e-01        00000 
 4.95594e-01  9.74089e-01        00000 
 6.36123e-01  9.58080e-01        00000 
 7.73537e-01  9.37607e-01        00000 
 9.06889e-01  9.12626e-01        00000 
 1.03519e+00  8.83080e-01        00000 
 1.15738e+00  8.48904e-01        00000 
 1.27234e+00  8.10029e-01        00000 
 1.37888e+00  7.66386e-01        00000 
 1.47571e+00  7.17914e-01        00000 
 1.56145e+00  6.64563e-01        00000 
 1.63459e+00  6.06314e-01        00000 
 1.69352e+00  5.43183e-01        00000 
 1.73653e+00  4.75241e-01        00000 
-1.78262e+00  4.55771e-01        00000 
-1.71568e+00  5.27174e-01        00000 
-1.63274e+00  5.92489e-01        00000 
-1.53568e+00  6.51781e-01        00000 
-1.42620e+00  7.05162e-01        00000 
-1.30587e+00  7.52773e-01        00000 
-1.17611e+00  7.94775e-01        00000 
-1.03823e+00  8.31331e-01        00000 
-8.93421e-01  8.62600e-01        00000 
-7.42781e-01  8.88730e-01        00000 
-5.87337e-01  9.09852e-01        00000 
-4.28050e-01  9.26081e-01        00000 
-2.65829e-01  9.37508e-01        00000 
-1.01548e-01  9.44204e-01        00000 
 6.39447e-02  9.46219e-01        00000 
 2.29818e-01  9.43580e-01        00000 
 3.95243e-01  9.36296e-01        00000 
 5.59386e-01  9.24350e-01        00000 
 7.21397e-01  9.07706e-01        00000 
 8.80399e-01  8.86307e-01        00000 
 1.03547e+00  8.60072e-01        00000 
 1.18565e+00  8.28900e-01        00000 
 1.32991e+00  7.92670e-01        00000 
 1.46712e+00  7.51245e-01        00000 
 1.59609e+00  7.04474e-01        00000 
 1.71550e+00  6.52201e-01        00000 
 1.82391e+00  5.94272e-01        00000 
 1.91976e+00  5.30548e-01        00000 
 2.00131e+00  4.60919e-01        00000 
 2.06667e+00  3.85321e-01        00000 
-2.13223e+00  3.13474e-01        00000 
-2.03828e+00  3.92929e-01        00000 
-1.92849e+00  4.64989e-01        00000 
-1.80485e+00  5.29901e-01        00000 
-1.66918e+00  5.87945e-01        00000 
-1.52309e+00  6.39413e-01        00000 
-1.36802e+00  6.84597e-01        00000 
-1.20527e+00  7.23771e-01        00000 
-1.03600e+00  7.57186e-01        00000 
-8.61267e-01  7.85065e-01        00000 
-6.82050e-01  8.07596e-01        00000 
-4.99253e-01  8.24936e-01        00000 
-3.13729e-01  8.37208e-01        00000 
-1.26295e-01  8.44503e-01        00000 
 6.22573e-02  8.46884e-01        00000 
 2.51151e-01  8.44386e-01        00000 
 4.39612e-01  8.37013e-01        00000 
 6.26865e-01  8.24745e-01        00000 
 8.12113e-01  8.07531e-01        00000 
 9.94538e-01  7.85291e-01        00000 
 1.17328e+00  7.57912e-01        00000 
 1.34743e+00  7.25249e-01        00000 
 1.51600e+00  6.87123e-01        00000 
 1.67794e+00  6.43321e-01        00000 
 1.83206e+00  5.93599e-01        00000 
 1.97707e+00  5.37689e-01        00000 
 2.11151e+00  4.75304e-01        00000 
 2.23377e+00  4.06156e-01        00000 
 2.34203e+00  3.29965e-01        00000 
 2.43427e+00  2.46486e-01        00000 
-2.52111e+00  1.11963e-01        00000 
-2.39512e+00  1.99536e-01        00000 
-2.25400e+00  2.78255e-01        00000 
-2.09984e+00  3.48605e-01        00000 
-1.93450e+00  4.11082e-01        00000 
-1.75958e+00  4.66167e-01        00000 
-1.57649e+00  5.14309e-01        00000 
-1.38644e+00  5.55910e-01        00000 
-1.19052e+00  5.91321e-01        00000 
-9.89697e-01  6.20840e-01        00000 
-7.84841e-01  6.44709e-01        00000 
-5.76769e-01  6.63119e-01        00000 
-3.66247e-01  6.76217e-01        00000 
-1.54009e-01  6.84107e-01        00000 
 5.92286e-02  6.86858e-01        00000 
 2.72762e-01  6.84507e-01        00000 
 4.85890e-01  6.77059e-01        00000 
 6.97908e-01  6.64489e-01        00000 
 9.08099e-01  6.46738e-01        00000 
 1.11573e+00  6.23712e-01        00000 
 1.32002e+00  5.95275e-01        00000 
 1.52016e+00  5.61245e-01        00000 
 1.71527e+00  5.21387e-01        00000 
 1.90437e+00  4.75413e-01        00000 
 2.08639e+00  4.22979e-01        00000 
 2.26009e+00  3.63687e-01        00000 
 2.42407e+00  2.97093e-01        00000 
 2.57672e+00  2.22720e-01        00000 
 2.71618e+00  1.40073e-01        00000 
 2.84035e+00  4.86661e-02        00000 
-2.94943e+00 -1.60029e-01        00000 
-2.78587e+00 -6.45172e-02        00000 
-2.60861e+00  2.05503e-02        00000 
-2.41981e+00  9.59714e-02        00000 
-2.22128e+00  1.62514e-01        00000 
-2.01451e+00  2.20886e-01        00000 
-1.80077e+00  2.71719e-01        00000 
-1.58114e+00  3.15556e-01        00000 
-1.35653e+00  3.52848e-01        00000 
-1.12774e+00  3.83956e-01        00000 
-8.95492e-01  4.09162e-01        00000 
-6.60471e-01  4.28673e-01        00000 
-4.23320e-01  4.42642e-01        00000 
-1.84671e-01  4.51168e-01        00000 
 5.48500e-02  4.54316e-01        00000 
 2.94620e-01  4.52118e-01        00000 
 5.34015e-01  4.44579e-01        00000 