<?xml version="1.0" encoding="utf-8"?>
<VTKFile byte_order="LittleEndian" type="UnstructuredGrid" version="0.1">
   <UnstructuredGrid>
      <Piece NumberOfCells="3364" NumberOfPoints="1741">
         <Points>
            <DataArray Name="Points" NumberOfComponents="3" format="ascii" type="Float32">
0.0000 1.0000 0.0000
0.0000 1.0345 0.0000
0.0000 1.0690 0.0000
0.0000 1.1034 0.0000
0.0000 1.1379 0.0000
0.0000 1.1724 0.0000
0.0000 1.2069 0.0000
0.0000 1.2414 0.0000
0.0000 1.2759 0.0000
0.0000 1.3103 0.0000
0.0000 1.3448 0.0000
0.0000 1.3793 0.0000
0.0000 1.4138 0.0000
0.0000 1.4483 0.0000
0.0000 1.4828 0.0000
0.0000 1.5172 0.0000
0.0000 1.5517 0.0000
0.0000 1.5862 0.0000
0.0000 1.6207 0.0000
0.0000 1.6552 0.0000
0.0000 1.6897 0.0000
0.0000 1.7241 0.0000
0.0000 1.7586 0.0000
0.0000 1.7931 0.0000
0.0000 1.8276 0.0000
0.0000 1.8621 0.0000
0.0000 1.8966 0.0000
0.0000 1.9310 0.0000
0.0000 1.9655 0.0000
0.0000 2.0000 0.0000
0.0690 1.0000 0.0000
0.0690 1.0345 0.0000
0.0690 1.0690 0.0000
0.0690 1.1034 0.0000
0.0690 1.1379 0.0000
0.0690 1.1724 0.0000
0.0690 1.2069 0.0000
0.0690 1.2414 0.0000
0.0690 1.2759 0.0000
0.0690 1.3103 0.0000
0.0690 1.3448 0.0000
0.0690 1.3793 0.0000
0.0690 1.4138 0.0000
0.0690 1.4483 0.0000
0.0690 1.4828 0.0000
0.0690 1.5172 0.0000
0.0690 1.5517 0.0000
0.0690 1.5862 0.0000
0.0690 1.6207 0.0000
0.0690 1.6552 0.0000
0.0690 1.6897 0.0000
0.0690 1.7241 0.0000
0.0690 1.7586 0.0000
0.0690 1.7931 0.0000
0.0690 1.8276 0.0000
0.0690 1.8621 0.0000
0.0690 1.8966 0.0000
0.0690 1.9310 0.0000
0.0690 1.9655 0.0000
0.0690 2.0000 0.0000
0.1379 1.0000 0.0000
0.1379 1.0345 0.0000
0.1379 1.0690 0.0000
0.1379 1.1034 0.0000
0.1379 1.1379 0.0000
0.1379 1.1724 0.0000
0.1379 1.2069 0.0000
0.1379 1.2414 0.0000
0.1379 1.2759 0.0000
0.1379 1.3103 0.0000
0.1379 1.3448 0.0000
0.1379 1.3793 0.0000
0.1379 1.4138 0.0000
0.1379 1.4483 0.0000
0.1379 1.4828 0.0000
0.1379 1.5172 0.0000
0.1379 1.5517 0.0000
0.1379 1.5862 0.0000
0.1379 1.6207 0.0000
0.1379 1.6552 0.0000
0.1379 1.6897 0.0000
0.1379 1.7241 0.0000
0.1379 1.7586 0.0000
0.1379 1.7931 0.0000
0.1379 1.8276 0.0000
0.1379 1.8621 0.0000
0.1379 1.8966 0.0000
0.1379 1.9310 0.0000
0.1379 1.9655 0.0000
0.1379 2.0000 0.0000
0.2069 1.0000 0.0000
0.2069 1.0345 0.0000
0.2069 1.0690 0.0000
0.2069 1.1034 0.0000
0.2069 1.1379 0.0000
0.2069 1.1724 0.0000
0.2069 1.2069 0.0000
0.2069 1.2414 0.0000
0.2069 1.2759 0.0000
0.2069 1.3103 0.0000
0.2069 1.3448 0.0000
0.2069 1.3793 0.0000
0.2069 1.4138 0.0000
0.2069 1.4483 0.0000
0.2069 1.4828 0.0000
0.2069 1.5172 0.0000
0.2069 1.5517 0.0000
0.2069 1.5862 0.0000
0.2069 1.6207 0.0000
0.2069 1.6552 0.0000
0.2069 1.6897 0.0000
0.2069 1.7241 0.0000
0.2069 1.7586 0.0000
0.2069 1.7931 0.0000
0.2069 1.8276 0.0000
0.2069 1.8621 0.0000
0.2069 1.8966 0.0000
0.2069 1.9310 0.0000
0.2069 1.9655 0.0000
0.2069 2.0000 0.0000
0.2759 1.0000 0.0000
0.2759 1.0345 0.0000
0.2759 1.0690 0.0000
0.2759 1.1034 0.0000
0.2759 1.1379 0.0000
0.2759 1.1724 0.0000
0.2759 1.2069 0.0000
0.2759 1.2414 0.0000
0.2759 1.2759 0.0000
0.2759 1.3103 0.0000
0.2759 1.3448 0.0000
0.2759 1.3793 0.0000
0.2759 1.4138 0.0000
0.2759 1.4483 0.0000
0.2759 1.4828 0.0000
0.2759 1.5172 0.0000
0.2759 1.5517 0.0000
0.2759 1.5862 0.0000
0.2759 1.6207 0.0000
0.2759 1.6552 0.0000
0.2759 1.6897 0.0000
0.2759 1.7241 0.0000
0.2759 1.7586 0.0000
0.2759 1.7931 0.0000
0.2759 1.8276 0.0000
0.2759 1.8621 0.0000
0.2759 1.8966 0.0000
0.2759 1.9310 0.0000
0.2759 1.9655 0.0000
0.2759 2.0000 0.0000
0.3448 1.0000 0.0000
0.3448 1.0345 0.0000
0.3448 1.0690 0.0000
0.3448 1.1034 0.0000
0.3448 1.1379 0.0000
0.3448 1.1724 0.0000
0.3448 1.2069 0.0000
0.3448 1.2414 0.0000
0.3448 1.2759 0.0000
0.3448 1.3103 0.0000
0.3448 1.3448 0.0000
0.3448 1.3793 0.0000
0.3448 1.4138 0.0000
0.3448 1.4483 0.0000
0.3448 1.4828 0.0000
0.3448 1.5172 0.0000
0.3448 1.5517 0.0000
0.3448 1.5862 0.0000
0.3448 1.6207 0.0000
0.3448 1.6552 0.0000
0.3448 1.6897 0.0000
0.3448 1.7241 0.0000
0.3448 1.7586 0.0000
0.3448 1.7931 0.0000
0.3448 1.8276 0.0000
0.3448 1.8621 0.0000
0.3448 1.8966 0.0000
0.3448 1.9310 0.0000
0.3448 1.9655 0.0000
0.3448 2.0000 0.0000
0.4138 1.0000 0.0000
0.4138 1.0345 0.0000
0.4138 1.0690 0.0000
0.4138 1.1034 0.0000
0.4138 1.1379 0.0000
0.4138 1.1724 0.0000
0.4138 1.2069 0.0000
0.4138 1.2414 0.0000
0.4138 1.2759 0.0000
0.4138 1.3103 0.0000
0.4138 1.3448 0.0000
0.4138 1.3793 0.0000
0.4138 1.4138 0.0000
0.4138 1.4483 0.0000
0.4138 1.4828 0.0000
0.4138 1.5172 0.0000
0.4138 1.5517 0.0000
0.4138 1.5862 0.0000
0.4138 1.6207 0.0000
0.4138 1.6552 0.0000
0.4138 1.6897 0.0000
0.4138 1.7241 0.0000
0.4138 1.7586 0.0000
0.4138 1.7931 0.0000
0.4138 1.8276 0.0000
0.4138 1.8621 0.0000
0.4138 1.8966 0.0000
0.4138 1.9310 0.0000
0.4138 1.9655 0.0000
0.4138 2.0000 0.0000
0.4828 1.0000 0.0000
0.4828 1.0345 0.0000
0.4828 1.0690 0.0000
0.4828 1.1034 0.0000
0.4828 1.1379 0.0000
0.4828 1.1724 0.0000
0.4828 1.2069 0.0000
0.4828 1.2414 0.0000
0.4828 1.2759 0.0000
0.4828 1.3103 0.0000
0.4828 1.3448 0.0000
0.4828 1.3793 0.0000
0.4828 1.4138 0.0000
0.4828 1.4483 0.0000
0.4828 1.4828 0.0000
0.4828 1.5172 0.0000
0.4828 1.5517 0.0000
0.4828 1.5862 0.0000
0.4828 1.6207 0.0000
0.4828 1.6552 0.0000
0.4828 1.6897 0.0000
0.4828 1.7241 0.0000
0.4828 1.7586 0.0000
0.4828 1.7931 0.0000
0.4828 1.8276 0.0000
0.4828 1.8621 0.0000
0.4828 1.8966 0.0000
0.4828 1.9310 0.0000
0.4828 1.9655 0.0000
0.4828 2.0000 0.0000
0.5517 1.0000 0.0000
0.5517 1.0345 0.0000
0.5517 1.0690 0.0000
0.5517 1.1034 0.0000
0.5517 1.1379 0.0000
0.5517 1.1724 0.0000
0.5517 1.2069 0.0000
0.5517 1.2414 0.0000
0.5517 1.2759 0.0000
0.5517 1.3103 0.0000
0.5517 1.3448 0.0000
0.5517 1.3793 0.0000
0.5517 1.4138 0.0000
0.5517 1.4483 0.0000
0.5517 1.4828 0.0000
0.5517 1.5172 0.0000
0.5517 1.5517 0.0000
0.5517 1.5862 0.0000
0.5517 1.6207 0.0000
0.5517 1.6552 0.0000
0.5517 1.6897 0.0000
0.5517 1.7241 0.0000
0.5517 1.7586 0.0000
0.5517 1.7931 0.0000
0.5517 1.8276 0.0000
0.5517 1.8621 0.0000
0.5517 1.8966 0.0000
0.5517 1.9310 0.0000
0.5517 1.9655 0.0000
0.5517 2.0000 0.0000
0.6207 1.0000 0.0000
0.6207 1.0345 0.0000
0.6207 1.0690 0.0000
0.6207 1.1034 0.0000
0.6207 1.1379 0.0000
0.6207 1.1724 0.0000
0.6207 1.2069 0.0000
0.6207 1.2414 0.0000
0.6207 1.2759 0.0000
0.6207 1.3103 0.0000
0.6207 1.3448 0.0000
0.6207 1.3793 0.0000
0.6207 1.4138 0.0000
0.6207 1.4483 0.0000
0.6207 1.4828 0.0000
0.6207 1.5172 0.0000
0.6207 1.5517 0.0000
0.6207 1.5862 0.0000
0.6207 1.6207 0.0000
0.6207 1.6552 0.0000
0.6207 1.6897 0.0000
0.6207 1.7241 0.0000
0.6207 1.7586 0.0000
0.6207 1.7931 0.0000
0.6207 1.8276 0.0000
0.6207 1.8621 0.0000
0.6207 1.8966 0.0000
0.6207 1.9310 0.0000
0.6207 1.9655 0.0000
0.6207 2.0000 0.0000
0.6897 1.0000 0.0000
0.6897 1.0345 0.0000
0.6897 1.0690 0.0000
0.6897 1.1034 0.0000
0.6897 1.1379 0.0000
0.6897 1.1724 0.0000
0.6897 1.2069 0.0000
0.6897 1.2414 0.0000
0.6897 1.2759 0.0000
0.6897 1.3103 0.0000
0.6897 1.3448 0.0000
0.6897 1.3793 0.0000
0.6897 1.4138 0.0000
0.6897 1.4483 0.0000
0.6897 1.4828 0.0000
0.6897 1.5172 0.0000
0.6897 1.5517 0.0000
0.6897 1.5862 0.0000
0.6897 1.6207 0.0000
0.6897 1.6552 0.0000
0.6897 1.6897 0.0000
0.6897 1.7241 0.0000
0.6897 1.7586 0.0000
0.6897 1.7931 0.0000
0.6897 1.8276 0.0000
0.6897 1.8621 0.0000
0.6897 1.8966 0.0000
0.6897 1.9310 0.0000
0.6897 1.9655 0.0000
0.6897 2.0000 0.0000
0.7586 1.0000 0.0000
0.7586 1.0345 0.0000
0.7586 1.0690 0.0000
0.7586 1.1034 0.0000
0.7586 1.1379 0.0000
0.7586 1.1724 0.0000
0.7586 1.2069 0.0000
0.7586 1.2414 0.0000
0.7586 1.2759 0.0000
0.7586 1.3103 0.0000
0.7586 1.3448 0.0000
0.7586 1.3793 0.0000
0.7586 1.4138 0.0000
0.7586 1.4483 0.0000
0.7586 1.4828 0.0000
0.7586 1.5172 0.0000
0.7586 1.5517 0.0000
0.7586 1.5862 0.0000
0.7586 1.6207 0.0000
0.7586 1.6552 0.0000
0.7586 1.6897 0.0000
0.7586 1.7241 0.0000
0.7586 1.7586 0.0000
0.7586 1.7931 0.0000
0.7586 1.8276 0.0000
0.7586 1.8621 0.0000
0.7586 1.8966 0.0000
0.7586 1.9310 0.0000
0.7586 1.9655 0.0000
0.7586 2.0000 0.0000
0.8276 1.0000 0.0000
0.8276 1.0345 0.0000
0.8276 1.0690 0.0000
0.8276 1.1034 0.0000
0.8276 1.1379 0.0000
0.8276 1.1724 0.0000
0.8276 1.2069 0.0000
0.8276 1.2414 0.0000
0.8276 1.2759 0.0000
0.8276 1.3103 0.0000
0.8276 1.3448 0.0000
0.8276 1.3793 0.0000
0.8276 1.4138 0.0000
0.8276 1.4483 0.0000
0.8276 1.4828 0.0000
0.8276 1.5172 0.0000
0.8276 1.5517 0.0000
0.8276 1.5862 0.0000
0.8276 1.6207 0.0000
0.8276 1.6552 0.0000
0.8276 1.6897 0.0000
0.8276 1.7241 0.0000
0.8276 1.7586 0.0000
0.8276 1.7931 0.0000
0.8276 1.8276 0.0000
0.8276 1.8621 0.0000
0.8276 1.8966 0.0000
0.8276 1.9310 0.0000
0.8276 1.9655 0.0000
0.8276 2.0000 0.0000
0.8966 1.0000 0.0000
0.8966 1.0345 0.0000
0.8966 1.0690 0.0000
0.8966 1.1034 0.0000
0.8966 1.1379 0.0000
0.8966 1.1724 0.0000
0.8966 1.2069 0.0000
0.8966 1.2414 0.0000
0.8966 1.2759 0.0000
0.8966 1.3103 0.0000
0.8966 1.3448 0.0000
0.8966 1.3793 0.0000
0.8966 1.4138 0.0000
0.8966 1.4483 0.0000
0.8966 1.4828 0.0000
0.8966 1.5172 0.0000
0.8966 1.5517 0.0000
0.8966 1.5862 0.0000
0.8966 1.6207 0.0000
0.8966 1.6552 0.0000
0.8966 1.6897 0.0000
0.8966 1.7241 0.0000
0.8966 1.7586 0.0000
0.8966 1.7931 0.0000
0.8966 1.8276 0.0000
0.8966 1.8621 0.0000
0.8966 1.8966 0.0000
0.8966 1.9310 0.0000
0.8966 1.9655 0.0000
0.8966 2.0000 0.0000
0.9655 1.0000 0.0000
0.9655 1.0345 0.0000
0.9655 1.0690 0.0000
0.9655 1.1034 0.0000
0.9655 1.1379 0.0000
0.9655 1.1724 0.0000
0.9655 1.2069 0.0000
0.9655 1.2414 0.0000
0.9655 1.2759 0.0000
0.9655 1.3103 0.0000
0.9655 1.3448 0.0000
0.9655 1.3793 0.0000
0.9655 1.4138 0.0000
0.9655 1.4483 0.0000
0.9655 1.4828 0.0000
0.9655 1.5172 0.0000
0.9655 1.5517 0.0000
0.9655 1.5862 0.0000
0.9655 1.6207 0.0000
0.9655 1.6552 0.0000
0.9655 1.6897 0.0000
0.9655 1.7241 0.0000
0.9655 1.7586 0.0000
0.9655 1.7931 0.0000
0.9655 1.8276 0.0000
0.9655 1.8621 0.0000
0.9655 1.8966 0.0000
0.9655 1.9310 0.0000
0.9655 1.9655 0.0000
0.9655 2.0000 0.0000
1.0345 1.0000 0.0000
1.0345 1.0345 0.0000
1.0345 1.0690 0.0000
1.0345 1.1034 0.0000
1.0345 1.1379 0.0000
1.0345 1.1724 0.0000
1.0345 1.2069 0.0000
1.0345 1.2414 0.0000
1.0345 1.2759 0.0000
1.0345 1.3103 0.0000
1.0345 1.3448 0.0000
[...]
         <PointData>
            <DataArray Name="fValues" NumberOfComponents="3" format="ascii" type="Float64">
-1.79062e-18  7.70165e-18        00000 
 3.31166e-18        00000        00000 
-6.54964e-18  1.16438e-17        00000 
 3.70311e-18 -8.59488e-18        00000 
 1.81934e-18  8.73285e-18        00000 
-1.41769e-17  5.64449e-20        00000 
 5.45803e-18  1.60102e-17        00000 
-2.74305e-19  1.28009e-18        00000 
       00000  7.27738e-18        00000 
 1.13846e-18 -5.55753e-18        00000 
-3.63869e-19  1.16438e-17        00000 
 1.42867e-20 -5.12036e-18        00000 
-6.36771e-19  1.16438e-17        00000 
-5.90472e-19 -1.76464e-17        00000 
-4.09352e-19  1.74657e-17        00000 
 5.68611e-19  3.84027e-18        00000 
-5.82190e-18  1.45548e-17        00000 
 1.06498e-17  5.89520e-18        00000 
-2.18321e-18  2.32876e-17        00000 
-8.68632e-19 -1.44467e-17        00000 
 5.09416e-18  1.74657e-17        00000 
-8.77566e-18 -1.78506e-17        00000 
 1.30993e-17 -7.27738e-18        00000 
-4.66318e-18 -1.28009e-18        00000 
-5.82190e-18 -4.36643e-18        00000 
 1.33676e-17  4.22766e-18        00000 
-8.73285e-18 -7.27738e-18        00000 
 1.78173e-17  1.26416e-17        00000 
-5.04611e-19  8.53252e-18        00000 
 3.97698e-18 -2.13313e-18        00000 
 1.75439e-02  7.21800e-02        00000 
-1.53398e-02  7.54858e-02        00000 
-3.06853e-02  8.44580e-02        00000 
-3.85117e-02  9.57047e-02        00000 
-4.19851e-02  1.07523e-01        00000 
-4.25964e-02  1.19064e-01        00000 
-4.11720e-02  1.29882e-01        00000 
-3.82255e-02  1.39727e-01        00000 
-3.41057e-02  1.48450e-01        00000 
-2.90680e-02  1.55960e-01        00000 
-2.33115e-02  1.62197e-01        00000 
-1.69999e-02  1.67122e-01        00000 
-1.02739e-02  1.70706e-01        00000 
-3.25964e-03  1.72931e-01        00000 
 3.92632e-03  1.73784e-01        00000 
 1.11726e-02  1.73256e-01        00000 
 1.83700e-02  1.71345e-01        00000 
 2.54080e-02  1.68050e-01        00000 
 3.21720e-02  1.63376e-01        00000 
 3.85396e-02  1.57332e-01        00000 
 4.43752e-02  1.49934e-01        00000 
 4.95240e-02  1.41207e-01        00000 
 5.38004e-02  1.31188e-01        00000 
 5.69718e-02  1.19939e-01        00000 
 5.87278e-02  1.07559e-01        00000 
 5.86247e-02  9.42228e-02        00000 
 5.59726e-02  8.02442e-02        00000 
 4.95810e-02  6.62255e-02        00000 
 3.70768e-02  5.33831e-02        00000 
 1.19925e-02  4.42147e-02        00000 
-1.04802e-02  1.71618e-01        00000 
-5.28199e-02  1.83021e-01        00000 
-7.89325e-02  1.95962e-01        00000 
-9.30309e-02  2.10898e-01        00000 
-9.90094e-02  2.26945e-01        00000 
-9.92534e-02  2.43196e-01        00000 
-9.52787e-02  2.58942e-01        00000 
-8.81015e-02  2.73660e-01        00000 
-7.84419e-02  2.86975e-01        00000 
-6.68379e-02  2.98616e-01        00000 
-5.37127e-02  3.08385e-01        00000 
-3.94142e-02  3.16142e-01        00000 
-2.42408e-02  3.21784e-01        00000 
-8.45870e-03  3.25240e-01        00000 
 7.68715e-03  3.26464e-01        00000 
 2.39634e-02  3.25429e-01        00000 
 4.01414e-02  3.22129e-01        00000 
 5.59902e-02  3.16574e-01        00000 
 7.12694e-02  3.08795e-01        00000 
 8.57216e-02  2.98846e-01        00000 
 9.90608e-02  2.86806e-01        00000 
 1.10959e-01  2.72791e-01        00000 
 1.21023e-01  2.56962e-01        00000 
 1.28762e-01  2.39546e-01        00000 
 1.33532e-01  2.20861e-01        00000 
 1.34438e-01  2.01352e-01        00000 
 1.30174e-01  1.81637e-01        00000 
 1.18719e-01  1.62541e-01        00000 
 9.67999e-02  1.45008e-01        00000 
 5.99122e-02  1.29382e-01        00000 
-7.37829e-02  2.76044e-01        00000 
-1.16896e-01  2.93700e-01        00000 
-1.45280e-01  3.11670e-01        00000 
-1.61410e-01  3.30154e-01        00000 
-1.67659e-01  3.49039e-01        00000 
-1.66159e-01  3.67872e-01        00000 
-1.58578e-01  3.86115e-01        00000 
-1.46192e-01  4.03263e-01        00000 
-1.29992e-01  4.18884e-01        00000 
-1.10761e-01  4.32625e-01        00000 
-8.91391e-02  4.44208e-01        00000 
-6.56634e-02  4.53417e-01        00000 
-4.08020e-02  4.60089e-01        00000 
-1.49741e-02  4.64107e-01        00000 
 1.14327e-02  4.65395e-01        00000 
 3.80492e-02  4.63910e-01        00000 
 6.45136e-02  4.59643e-01        00000 
 9.04599e-02  4.52620e-01        00000 
 1.15508e-01  4.42898e-01        00000 
 1.39251e-01  4.30575e-01        00000 
 1.61238e-01  4.15790e-01        00000 
 1.80958e-01  3.98735e-01        00000 
 1.97807e-01  3.79662e-01        00000 
 2.11057e-01  3.58892e-01        00000 
 2.19791e-01  3.36829e-01        00000 
 2.22835e-01  3.13961e-01        00000 
 2.18653e-01  2.90835e-01        00000 
 2.05245e-01  2.67979e-01        00000 
 1.80195e-01  2.45713e-01        00000 
 1.40910e-01  2.23964e-01        00000 
-1.66124e-01  3.75194e-01        00000 
-2.05993e-01  3.98706e-01        00000 
-2.32025e-01  4.21646e-01        00000 
-2.45853e-01  4.44169e-01        00000 
-2.49188e-01  4.66207e-01        00000 
-2.43667e-01  4.87540e-01        00000 
-2.30784e-01  5.07837e-01        00000 
-2.11834e-01  5.26724e-01        00000 
-1.87918e-01  5.43835e-01        00000 
-1.59973e-01  5.58840e-01        00000 
-1.28801e-01  5.71456e-01        00000 
-9.51042e-02  5.81451e-01        00000 
-5.95067e-02  5.88643e-01        00000 
-2.25777e-02  5.92897e-01        00000 
 1.51510e-02  5.94121e-01        00000 
 5.31701e-02  5.92269e-01        00000 
 9.09787e-02  5.87331e-01        00000 
 1.28071e-01  5.79340e-01        00000 
 1.63923e-01  5.68374e-01        00000 
 1.97978e-01  5.54550e-01        00000 
 2.29628e-01  5.38036e-01        00000 
 2.58196e-01  5.19049e-01        00000 
 2.82909e-01  4.97860e-01        00000 
 3.02869e-01  4.74792e-01        00000 
 3.17021e-01  4.50214e-01        00000 
 3.24115e-01  4.24520e-01        00000 
 3.22689e-01  3.98091e-01        00000 
 3.11089e-01  3.71228e-01        00000 
 2.87547e-01  3.44087e-01        00000 
 2.50300e-01  3.16625e-01        00000 
-2.85071e-01  4.64250e-01        00000 
-3.19226e-01  4.93399e-01        00000 
-3.39832e-01  5.21393e-01        00000 
-3.48174e-01  5.48235e-01        00000 
-3.45615e-01  5.73849e-01        00000 
-3.33529e-01  5.98072e-01        00000 
-3.13233e-01  6.20678e-01        00000 
-2.85958e-01  6.41403e-01        00000 
-2.52824e-01  6.59971e-01        00000 
-2.14839e-01  6.76117e-01        00000 
-1.72913e-01  6.89601e-01        00000 
-1.27868e-01  7.00216e-01        00000 
-8.04566e-02  7.07796e-01        00000 
-3.13793e-02  7.12213e-01        00000 
 1.87009e-02  7.13380e-01        00000 
 6.91435e-02  7.11253e-01        00000 
 1.19316e-01  7.05825e-01        00000 
 1.68582e-01  6.97134e-01        00000 
 2.16284e-01  6.85256e-01        00000 
 2.61730e-01  6.70311e-01        00000 
 3.04180e-01  6.52458e-01        00000 
 3.42827e-01  6.31902e-01        00000 
 3.76778e-01  6.08884e-01        00000 
 4.05043e-01  5.83676e-01        00000 
 4.26514e-01  5.56574e-01        00000 
 4.39965e-01  5.27873e-01        00000 
 4.44061e-01  4.97840e-01        00000 
 4.37389e-01  4.66693e-01        00000 
 4.18511e-01  4.34569e-01        00000 
 3.86036e-01  4.01516e-01        00000 
-4.30109e-01  5.39733e-01        00000 
-4.56623e-01  5.74596e-01        00000 
-4.69422e-01  6.07792e-01        00000 
-4.69683e-01  6.39223e-01        00000 
-4.58638e-01  6.68769e-01        00000 
-4.37534e-01  6.96279e-01        00000 
-4.07602e-01  7.21579e-01        00000 
-3.70023e-01  7.44471e-01        00000 
-3.25916e-01  7.64755e-01        00000 
-2.76327e-01  7.82230e-01        00000 
-2.22229e-01  7.96714e-01        00000 
-1.64531e-01  8.08043e-01        00000 
-1.04083e-01  8.16084e-01        00000 
-4.16916e-02  8.20734e-01        00000 
 2.18717e-02  8.21920e-01        00000 
 8.58542e-02  8.19608e-01        00000 
 1.49511e-01  8.13796e-01        00000 
 2.12092e-01  8.04516e-01        00000 
 2.72827e-01  7.91837e-01        00000 
 3.30916e-01  7.75862e-01        00000 
 3.85513e-01  7.56727e-01        00000 
 4.35716e-01  7.34599e-01        00000 
 4.80555e-01  7.09670e-01        00000 
 5.18983e-01  6.82156e-01        00000 
 5.49877e-01  6.52279e-01        00000 
 5.72037e-01  6.20261e-01        00000 
 5.84203e-01  5.86314e-01        00000 
 5.85077e-01  5.50622e-01        00000 
 5.73361e-01  5.13341e-01        00000 
 5.47791e-01  4.74600e-01        00000 
-6.01982e-01  5.98412e-01        00000 
-6.18976e-01  6.39236e-01        00000 
-6.21792e-01  6.77872e-01        00000 
-6.11624e-01  7.14155e-01        00000 
-5.89693e-01  7.47936e-01        00000 
-5.57223e-01  7.79067e-01        00000 
-5.15423e-01  8.07402e-01        00000 
-4.65465e-01  8.32792e-01        00000 
-4.08478e-01  8.55091e-01        00000 
-3.45536e-01  8.74157e-01        00000 
-2.77660e-01  8.89860e-01        00000 
-2.05820e-01  9.02085e-01        00000 
-1.30938e-01  9.10736e-01        00000 
-5.38991e-02  9.15739e-01        00000 
 2.44383e-02  9.17044e-01        00000 
 1.03234e-01  9.14626e-01        00000 
 1.81655e-01  9.08486e-01        00000 
 2.58861e-01  8.98652e-01        00000 
 3.33994e-01  8.85177e-01        00000 
 4.06171e-01  8.68142e-01        00000 
 4.74467e-01  8.47648e-01        00000 
 5.37911e-01  8.23821e-01        00000 
 5.95477e-01  7.96803e-01        00000 
 6.46081e-01  7.66752e-01        00000 
 6.88579e-01  7.33834e-01        00000 
 7.21771e-01  6.98220e-01        00000 
 7.44417e-01  6.60080e-01        00000 
 7.55245e-01  6.19586e-01        00000 
 7.52978e-01  5.76908e-01        00000 
 7.36350e-01  5.32229e-01        00000 
-8.02209e-01  6.36672e-01        00000 
-8.07608e-01  6.83815e-01        00000 
-7.98197e-01  7.28182e-01        00000 
-7.75260e-01  7.69581e-01        00000 
-7.40076e-01  8.07853e-01        00000 
-6.93907e-01  8.42865e-01        00000 
-6.37987e-01  8.74497e-01        00000 
-5.73511e-01  9.02642e-01        00000 
-5.01634e-01  9.27200e-01        00000 
-4.23461e-01  9.48081e-01        00000 
-3.40053e-01  9.65204e-01        00000 
-2.52423e-01  9.78497e-01        00000 
-1.61547e-01  9.87903e-01        00000 
-6.83671e-02  9.93377e-01        00000 
 2.61978e-02  9.94891e-01        00000 
 1.21244e-01  9.92430e-01        00000 
 2.15874e-01  9.85999e-01        00000 
 3.09183e-01  9.75618e-01        00000 
 4.00250e-01  9.61324e-01        00000 
 4.88132e-01  9.43169e-01        00000 
 5.71848e-01  9.21224e-01        00000 
 6.50376e-01  8.95569e-01        00000 
 7.22647e-01  8.66300e-01        00000 
 7.87541e-01  8.33523e-01        00000 
 8.43884e-01  7.97354e-01        00000 
 8.90454e-01  7.57917e-01        00000 
 9.25985e-01  7.15350e-01        00000 
 9.49174e-01  6.69801e-01        00000 
 9.58695e-01  6.21442e-01        00000 
 9.53209e-01  5.70473e-01        00000 
-1.03277e+00  6.50192e-01        00000 
-1.02416e+00  7.04070e-01        00000 
-1.00005e+00  7.54483e-01        00000 
-9.61867e-01  8.01246e-01        00000 
-9.10971e-01  8.44220e-01        00000 
-8.48700e-01  8.83301e-01        00000 
-7.76344e-01  9.18407e-01        00000 
-6.95140e-01  9.49474e-01        00000 
-6.06278e-01  9.76451e-01        00000 
-5.10897e-01  9.99296e-01        00000 
-4.10088e-01  1.01797e+00        00000 
-3.04900e-01  1.03246e+00        00000 
-1.96342e-01  1.04272e+00        00000 
-8.53946e-02  1.04876e+00        00000 
 2.69862e-02  1.05055e+00        00000 
 1.39857e-01  1.04809e+00        00000 
 2.52279e-01  1.04140e+00        00000 
 3.63309e-01  1.03048e+00        00000 
 4.71985e-01  1.01535e+00        00000 
 5.77325e-01  9.96042e-01        00000 
 6.78313e-01  9.72586e-01        00000 
 7.73890e-01  9.45023e-01        00000 
 8.62953e-01  9.13403e-01        00000 
 9.44348e-01  8.77780e-01        00000 
 1.01687e+00  8.38220e-01        00000 
 1.07924e+00  7.94800e-01        00000 
 1.13016e+00  7.47613e-01        00000 
 1.16826e+00  6.96775e-01        00000 
 1.19212e+00  6.42433e-01        00000 
 1.20028e+00  5.84775e-01        00000 
-1.29584e+00  6.33763e-01        00000 
-1.27039e+00  6.94804e-01        00000 
-1.22881e+00  7.51567e-01        00000 
-1.17266e+00  8.03911e-01        00000 
-1.10342e+00  8.51743e-01        00000 
-1.02252e+00  8.95009e-01        00000 
-9.31311e-01  9.33681e-01        00000 
-8.31082e-01  9.67749e-01        00000 
-7.23059e-01  9.97216e-01        00000 
-6.08410e-01  1.02209e+00        00000 
-4.88252e-01  1.04239e+00        00000 
-3.63650e-01  1.05812e+00        00000 
-2.35633e-01  1.06930e+00        00000 
-1.05198e-01  1.07594e+00        00000 
 2.66824e-02  1.07805e+00        00000 
 1.59049e-01  1.07564e+00        00000 
 2.90946e-01  1.06872e+00        00000 
 4.21412e-01  1.05728e+00        00000 
 5.49471e-01  1.04133e+00        00000 
 6.74121e-01  1.02087e+00        00000 
 7.94327e-01  9.95894e-01        00000 
 9.09013e-01  9.66407e-01        00000 
 1.01705e+00  9.32407e-01        00000 
 1.11726e+00  8.93894e-01        00000 
 1.20839e+00  8.50880e-01        00000 
 1.28914e+00  8.03382e-01        00000 
 1.35812e+00  7.51440e-01        00000 
 1.41390e+00  6.95113e-01        00000 
 1.45494e+00  6.34500e-01        00000 
 1.47967e+00  5.69742e-01        00000 
-1.59360e+00  5.81177e-01        00000 
-1.54803e+00  6.49782e-01        00000 
-1.48583e+00  7.13159e-01        00000 
-1.40871e+00  7.71244e-01        00000 
-1.31828e+00  8.24023e-01        00000 
-1.21606e+00  8.71514e-01        00000 
-1.10346e+00  9.13762e-01        00000 
-9.81814e-01  9.50826e-01        00000 
-8.52381e-01  9.82772e-01        00000 
-7.16346e-01  1.00967e+00        00000 
-5.74832e-01  1.03158e+00        00000 
-4.28910e-01  1.04856e+00        00000 
-2.79606e-01  1.06066e+00        00000 
-1.27912e-01  1.06792e+00        00000 
 2.52052e-02  1.07038e+00        00000 
 1.78792e-01  1.06804e+00        00000 
 3.31901e-01  1.06091e+00        00000 
 4.83576e-01  1.04899e+00        00000 
 6.32847e-01  1.03226e+00        00000 
 7.78718e-01  1.01069e+00        00000 
 9.20155e-01  9.84246e-01        00000 
 1.05608e+00  9.52882e-01        00000 
 1.18536e+00  9.16544e-01        00000 
 1.30679e+00  8.75175e-01        00000 
 1.41910e+00  8.28719e-01        00000 
 1.52095e+00  7.77125e-01        00000 
 1.61089e+00  7.20356e-01        00000 
 1.68739e+00  6.58396e-01        00000 
 1.74882e+00  5.91266e-01        00000 
 1.79346e+00  5.19027e-01        00000 
-1.92807e+00  4.85166e-01        00000 
-1.85858e+00  5.61666e-01        00000 
-1.77221e+00  6.31847e-01        00000 
-1.67083e+00  6.95756e-01        00000 
-1.55614e+00  7.53487e-01        00000 
-1.42973e+00  8.05160e-01        00000 
-1.29308e+00  8.50913e-01        00000 
-1.14755e+00  8.90889e-01        00000 
-9.94404e-01  9.25230e-01        00000 
-8.34826e-01  9.54070e-01        00000 
-6.69929e-01  9.77529e-01        00000 
-5.00763e-01  9.95713e-01        00000 
-3.28330e-01  1.00871e+00        00000 
-1.53593e-01  1.01658e+00        00000 
 2.25081e-02  1.01938e+00        00000 
 1.99052e-01  1.01712e+00        00000 
 3.75122e-01  1.00983e+00        00000 
 5.49793e-01  9.97475e-01        00000 
 7.22124e-01  9.80028e-01        00000 
 8.91147e-01  9.57432e-01        00000 
 1.05585e+00  9.29612e-01        00000 
 1.21519e+00  8.96474e-01        00000 
 1.36803e+00  8.57907e-01        00000 
 1.51318e+00  8.13786e-01        00000 
 1.64936e+00  7.63980e-01        00000 
 1.77520e+00  7.08350e-01        00000 
 1.88920e+00  6.46765e-01        00000 
 1.98978e+00  5.79108e-01        00000 
 2.07519e+00  5.05289e-01        00000 
 2.14357e+00  4.25256e-01        00000 
-2.30085e+00  3.37363e-01        00000 
-2.20316e+00  4.21986e-01        00000 
-2.08870e+00  4.99052e-01        00000 
-1.95945e+00  5.68763e-01        00000 
-1.81721e+00  6.31353e-01        00000 
-1.66361e+00  6.87073e-01        00000 
-1.50016e+00  7.36176e-01        00000 
-1.32822e+00  7.78910e-01        00000 
-1.14904e+00  8.15503e-01        00000 
-9.63761e-01  8.46162e-01        00000 
-7.73464e-01  8.71070e-01        00000 
-5.79151e-01  8.90378e-01        00000 
-3.81771e-01  9.04211e-01        00000 
-1.82235e-01  9.12662e-01        00000 
 1.85728e-02  9.15794e-01        00000 
 2.19786e-01  9.13643e-01        00000 
 4.20541e-01  9.06215e-01        00000 
 6.19969e-01  8.93485e-01        00000 
 8.17185e-01  8.75400e-01        00000 
 1.01127e+00  8.51877e-01        00000 
 1.20128e+00  8.22804e-01        00000 
 1.38620e+00  7.88036e-01        00000 
 1.56494e+00  7.47402e-01        00000 
 1.73636e+00  7.00702e-01        00000 
 1.89918e+00  6.47715e-01        00000 
 2.05205e+00  5.88200e-01        00000 
 2.19345e+00  5.21908e-01        00000 
 2.32173e+00  4.48592e-01        00000 
 2.43508e+00  3.68018e-01        00000 
 2.53152e+00  2.79985e-01        00000 
-2.71299e+00  1.28305e-01        00000 
-2.58235e+00  2.21126e-01        00000 
-2.43551e+00  3.05015e-01        00000 
-2.27453e+00  3.80373e-01        00000 
-2.10127e+00  4.47614e-01        00000 
-1.91738e+00  5.07151e-01        00000 
-1.72434e+00  5.59376e-01        00000 
-1.52346e+00  6.04656e-01        00000 
-1.31594e+00  6.43317e-01        00000 
-1.10286e+00  6.75645e-01        00000 
-8.85205e-01  7.01883e-01        00000 
-6.63901e-01  7.22231e-01        00000 
-4.39815e-01  7.36845e-01        00000 
-2.13780e-01  7.45842e-01        00000 
 1.34018e-02  7.49300e-01        00000 
 2.40940e-01  7.47260e-01        00000 
 4.68051e-01  7.39727e-01        00000 
 6.93942e-01  7.26671e-01        00000 
 9.17809e-01  7.08023e-01        00000 
 1.13882e+00  6.83675e-01        00000 
 1.35610e+00  6.53481e-01        00000 
 1.56872e+00  6.17251e-01        00000 
 1.77569e+00  5.74748e-01        00000 
 1.97591e+00  5.25695e-01        00000 
 2.16820e+00  4.69771e-01        00000 
 2.35123e+00  4.06615e-01        00000 
 2.52351e+00  3.35839e-01        00000 
 2.68339e+00  2.57033e-01        00000 
 2.82900e+00  1.69784e-01        00000 
 2.95828e+00  7.36917e-02        00000 
-3.16476e+00 -1.52540e-01        00000 
-2.99596e+00 -5.16483e-02        00000 
-2.81212e+00  3.88175e-02        00000 
-2.61537e+00  1.19508e-01        00000 
-2.40754e+00  1.91063e-01        00000 
-2.19024e+00  2.54089e-01        00000 
-1.96485e+00  3.09143e-01        00000 
-1.73261e+00  3.56722e-01        00000 
-1.49456e+00  3.97257e-01        00000 
-1.25167e+00  4.31112e-01        00000 
-1.00480e+00  4.58585e-01        00000 
-7.54762e-01  4.79913e-01        00000 
-5.02301e-01  4.95277e-01        00000 
-2.48143e-01  5.04807e-01        00000 
 7.00916e-03  5.08589e-01        00000 
 2.62462e-01  5.06667e-01        00000 
 5.17527e-01  4.99045e-01        00000 
 7.71509e-01  4.85688e-01        00000 
 1.02371e+00  4.66521e-01        00000 
 1.27339e+00  4.41421e-01        00000 
 1.51981e+00  4.10215e-01        00000 
 1.76215e+00  3.72675e-01        00000 
 1.99955e+00  3.28510e-01        00000 
 2.23105e+00  2.77362e-01        00000 
 2.45557e+00  2.18806e-01        00000 
 2.67190e+00  1.52349e-01        00000 
 2.87864e+00  7.74397e-02        00000 
 3.07418e+00 -6.52731e-03        00000 
 3.25669e+00 -1.00190e-01        00000 
 3.42403e+00 -2.04199e-01        00000 
-3.65535e+00 -5.16708e-01        00000 
-3.44280e+00 -4.08133e-01        00000 
-3.21716e+00 -3.11570e-01        00000 
-2.98050e+00 -2.26051e-01        00000 
-2.73459e+00 -1.50661e-01        00000 
-2.48088e+00 -8.45620e-02        00000 
-2.22058e+00 -2.70136e-02        00000 
-1.95472e+00  2.26215e-02        00000 
-1.68415e+00  6.48747e-02        00000 
-1.40963e+00  1.00176e-01        00000 
-1.13187e+00  1.28860e-01        00000 
-8.51474e-01  1.51184e-01        00000 
-5.69070e-01  1.67331e-01        00000 
-2.85247e-01  1.77428e-01        00000 
-5.92909e-04  1.81557e-01        00000 
 2.84304e-01  1.79757e-01        00000 
 5.68857e-01  1.72033e-01        00000 