<?xml version="1.0" encoding="utf-8"?>
<VTKFile byte_order="LittleEndian" type="UnstructuredGrid" version="0.1">
   <UnstructuredGrid>
      <Piece NumberOfCells="3364" NumberOfPoints="1741">
         <Points>
            <DataArray Name="Points" NumberOfComponents="3" format="ascii" type="Float32">
0.0000 1.0000 0.0000
0.0000 1.0345 0.0000
0.0000 1.0690 0.0000
0.0000 1.1034 0.0000
0.0000 1.1379 0.0000
0.0000 1.1724 0.0000
0.0000 1.2069 0.0000
0.0000 1.2414 0.0000
0.0000 1.2759 0.0000
0.0000 1.3103 0.0000
0.0000 1.3448 0.0000
0.0000 1.3793 0.0000
0.0000 1.4138 0.0000
0.0000 1.4483 0.0000
0.0000 1.4828 0.0000
0.0000 1.5172 0.0000
0.0000 1.5517 0.0000
0.0000 1.5862 0.0000
0.0000 1.6207 0.0000
0.0000 1.6552 0.0000
0.0000 1.6897 0.0000
0.0000 1.7241 0.0000
0.0000 1.7586 0.0000
0.0000 1.7931 0.0000
0.0000 1.8276 0.0000
0.0000 1.8621 0.0000
0.0000 1.8966 0.0000
0.0000 1.9310 0.0000
0.0000 1.9655 0.0000
0.0000 2.0000 0.0000
0.0690 1.0000 0.0000
0.0690 1.0345 0.0000
0.0690 1.0690 0.0000
0.0690 1.1034 0.0000
0.0690 1.1379 0.0000
0.0690 1.1724 0.0000
0.0690 1.2069 0.0000
0.0690 1.2414 0.0000
0.0690 1.2759 0.0000
0.0690 1.3103 0.0000
0.0690 1.3448 0.0000
0.0690 1.3793 0.0000
0.0690 1.4138 0.0000
0.0690 1.4483 0.0000
0.0690 1.4828 0.0000
0.0690 1.5172 0.0000
0.0690 1.5517 0.0000
0.0690 1.5862 0.0000
0.0690 1.6207 0.0000
0.0690 1.6552 0.0000
0.0690 1.6897 0.0000
0.0690 1.7241 0.0000
0.0690 1.7586 0.0000
0.0690 1.7931 0.0000
0.0690 1.8276 0.0000
0.0690 1.8621 0.0000
0.0690 1.8966 0.0000
0.0690 1.9310 0.0000
0.0690 1.9655 0.0000
0.0690 2.0000 0.0000
0.1379 1.0000 0.0000
0.1379 1.0345 0.0000
0.1379 1.0690 0.0000
0.1379 1.1034 0.0000
0.1379 1.1379 0.0000
0.1379 1.1724 0.0000
0.1379 1.2069 0.0000
0.1379 1.2414 0.0000
0.1379 1.2759 0.0000
0.1379 1.3103 0.0000
0.1379 1.3448 0.0000
0.1379 1.3793 0.0000
0.1379 1.4138 0.0000
0.1379 1.4483 0.0000
0.1379 1.4828 0.0000
0.1379 1.5172 0.0000
0.1379 1.5517 0.0000
0.1379 1.5862 0.0000
0.1379 1.6207 0.0000
0.1379 1.6552 0.0000
0.1379 1.6897 0.0000
0.1379 1.7241 0.0000
0.1379 1.7586 0.0000
0.1379 1.7931 0.0000
0.1379 1.8276 0.0000
0.1379 1.8621 0.0000
0.1379 1.8966 0.0000
0.1379 1.9310 0.0000
0.1379 1.9655 0.0000
0.1379 2.0000 0.0000
0.2069 1.0000 0.0000
0.2069 1.0345 0.0000
0.2069 1.0690 0.0000
0.2069 1.1034 0.0000
0.2069 1.1379 0.0000
0.2069 1.1724 0.0000
0.2069 1.2069 0.0000
0.2069 1.2414 0.0000
0.2069 1.2759 0.0000
0.2069 1.3103 0.0000
0.2069 1.3448 0.0000
0.2069 1.3793 0.0000
0.2069 1.4138 0.0000
0.2069 1.4483 0.0000
0.2069 1.4828 0.0000
0.2069 1.5172 0.0000
0.2069 1.5517 0.0000
0.2069 1.5862 0.0000
0.2069 1.6207 0.0000
0.2069 1.6552 0.0000
0.2069 1.6897 0.0000
0.2069 1.7241 0.0000
0.2069 1.7586 0.0000
0.2069 1.7931 0.0000
0.2069 1.8276 0.0000
0.2069 1.8621 0.0000
0.2069 1.8966 0.0000
0.2069 1.9310 0.0000
0.2069 1.9655 0.0000
0.2069 2.0000 0.0000
0.2759 1.0000 0.0000
0.2759 1.0345 0.0000
0.2759 1.0690 0.0000
0.2759 1.1034 0.0000
0.2759 1.1379 0.0000
0.2759 1.1724 0.0000
0.2759 1.2069 0.0000
0.2759 1.2414 0.0000
0.2759 1.2759 0.0000
0.2759 1.3103 0.0000
0.2759 1.3448 0.0000
0.2759 1.3793 0.0000
0.2759 1.4138 0.0000
0.2759 1.4483 0.0000
0.2759 1.4828 0.0000
0.2759 1.5172 0.0000
0.2759 1.5517 0.0000
0.2759 1.5862 0.0000
0.2759 1.6207 0.0000
0.2759 1.6552 0.0000
0.2759 1.6897 0.0000
0.2759 1.7241 0.0000
0.2759 1.7586 0.0000
0.2759 1.7931 0.0000
0.2759 1.8276 0.0000
0.2759 1.8621 0.0000
0.2759 1.8966 0.0000
0.2759 1.9310 0.0000
0.2759 1.9655 0.0000
0.2759 2.0000 0.0000
0.3448 1.0000 0.0000
0.3448 1.0345 0.0000
0.3448 1.0690 0.0000
0.3448 1.1034 0.0000
0.3448 1.1379 0.0000
0.3448 1.1724 0.0000
0.3448 1.2069 0.0000
0.3448 1.2414 0.0000
0.3448 1.2759 0.0000
0.3448 1.3103 0.0000
0.3448 1.3448 0.0000
0.3448 1.3793 0.0000
0.3448 1.4138 0.0000
0.3448 1.4483 0.0000
0.3448 1.4828 0.0000
0.3448 1.5172 0.0000
0.3448 1.5517 0.0000
0.3448 1.5862 0.0000
0.3448 1.6207 0.0000
0.3448 1.6552 0.0000
0.3448 1.6897 0.0000
0.3448 1.7241 0.0000
0.3448 1.7586 0.0000
0.3448 1.7931 0.0000
0.3448 1.8276 0.0000
0.3448 1.8621 0.0000
0.3448 1.8966 0.0000
0.3448 1.9310 0.0000
0.3448 1.9655 0.0000
0.3448 2.0000 0.0000
0.4138 1.0000 0.0000
0.4138 1.0345 0.0000
0.4138 1.0690 0.0000
0.4138 1.1034 0.0000
0.4138 1.1379 0.0000
0.4138 1.1724 0.0000
0.4138 1.2069 0.0000
0.4138 1.2414 0.0000
0.4138 1.2759 0.0000
0.4138 1.3103 0.0000
0.4138 1.3448 0.0000
0.4138 1.3793 0.0000
0.4138 1.4138 0.0000
0.4138 1.4483 0.0000
0.4138 1.4828 0.0000
0.4138 1.5172 0.0000
0.4138 1.5517 0.0000
0.4138 1.5862 0.0000
0.4138 1.6207 0.0000
0.4138 1.6552 0.0000
0.4138 1.6897 0.0000
0.4138 1.7241 0.0000
0.4138 1.7586 0.0000
0.4138 1.7931 0.0000
0.4138 1.8276 0.0000
0.4138 1.8621 0.0000
0.4138 1.8966 0.0000
0.4138 1.9310 0.0000
0.4138 1.9655 0.0000
0.4138 2.0000 0.0000
0.4828 1.0000 0.0000
0.4828 1.0345 0.0000
0.4828 1.0690 0.0000
0.4828 1.1034 0.0000
0.4828 1.1379 0.0000
0.4828 1.1724 0.0000
0.4828 1.2069 0.0000
0.4828 1.2414 0.0000
0.4828 1.2759 0.0000
0.4828 1.3103 0.0000
0.4828 1.3448 0.0000
0.4828 1.3793 0.0000
0.4828 1.4138 0.0000
0.4828 1.4483 0.0000
0.4828 1.4828 0.0000
0.4828 1.5172 0.0000
0.4828 1.5517 0.0000
0.4828 1.5862 0.0000
0.4828 1.6207 0.0000
0.4828 1.6552 0.0000
0.4828 1.6897 0.0000
0.4828 1.7241 0.0000
0.4828 1.7586 0.0000
0.4828 1.7931 0.0000
0.4828 1.8276 0.0000
0.4828 1.8621 0.0000
0.4828 1.8966 0.0000
0.4828 1.9310 0.0000
0.4828 1.9655 0.0000
0.4828 2.0000 0.0000
0.5517 1.0000 0.0000
0.5517 1.0345 0.0000
0.5517 1.0690 0.0000
0.5517 1.1034 0.0000
0.5517 1.1379 0.0000
0.5517 1.1724 0.0000
0.5517 1.2069 0.0000
0.5517 1.2414 0.0000
0.5517 1.2759 0.0000
0.5517 1.3103 0.0000
0.5517 1.3448 0.0000
0.5517 1.3793 0.0000
0.5517 1.4138 0.0000
0.5517 1.4483 0.0000
0.5517 1.4828 0.0000
0.5517 1.5172 0.0000
0.5517 1.5517 0.0000
0.5517 1.5862 0.0000
0.5517 1.6207 0.0000
0.5517 1.6552 0.0000
0.5517 1.6897 0.0000
0.5517 1.7241 0.0000
0.5517 1.7586 0.0000
0.5517 1.7931 0.0000
0.5517 1.8276 0.0000
0.5517 1.8621 0.0000
0.5517 1.8966 0.0000
0.5517 1.9310 0.0000
0.5517 1.9655 0.0000
0.5517 2.0000 0.0000
0.6207 1.0000 0.0000
0.6207 1.0345 0.0000
0.6207 1.0690 0.0000
0.6207 1.1034 0.0000
0.6207 1.1379 0.0000
0.6207 1.1724 0.0000
0.6207 1.2069 0.0000
0.6207 1.2414 0.0000
0.6207 1.2759 0.0000
0.6207 1.3103 0.0000
0.6207 1.3448 0.0000
0.6207 1.3793 0.0000
0.6207 1.4138 0.0000
0.6207 1.4483 0.0000
0.6207 1.4828 0.0000
0.6207 1.5172 0.0000
0.6207 1.5517 0.0000
0.6207 1.5862 0.0000
0.6207 1.6207 0.0000
0.6207 1.6552 0.0000
0.6207 1.6897 0.0000
0.6207 1.7241 0.0000
0.6207 1.7586 0.0000
0.6207 1.7931 0.0000
0.6207 1.8276 0.0000
0.6207 1.8621 0.0000
0.6207 1.8966 0.0000
0.6207 1.9310 0.0000
0.6207 1.9655 0.0000
0.6207 2.0000 0.0000
0.6897 1.0000 0.0000
0.6897 1.0345 0.0000
0.6897 1.0690 0.0000
0.6897 1.1034 0.0000
0.6897 1.1379 0.0000
0.6897 1.1724 0.0000
0.6897 1.2069 0.0000
0.6897 1.2414 0.0000
0.6897 1.2759 0.0000
0.6897 1.3103 0.0000
0.6897 1.3448 0.0000
0.6897 1.3793 0.0000
0.6897 1.4138 0.0000
0.6897 1.4483 0.0000
0.6897 1.4828 0.0000
0.6897 1.5172 0.0000
0.6897 1.5517 0.0000
0.6897 1.5862 0.0000
0.6897 1.6207 0.0000
0.6897 1.6552 0.0000
0.6897 1.6897 0.0000
0.6897 1.7241 0.0000
0.6897 1.7586 0.0000
0.6897 1.7931 0.0000
0.6897 1.8276 0.0000
0.6897 1.8621 0.0000
0.6897 1.8966 0.0000
0.6897 1.9310 0.0000
0.6897 1.9655 0.0000
0.6897 2.0000 0.0000
0.7586 1.0000 0.0000
0.7586 1.0345 0.0000
0.7586 1.0690 0.0000
0.7586 1.1034 0.0000
0.7586 1.1379 0.0000
0.7586 1.1724 0.0000
0.7586 1.2069 0.0000
0.7586 1.2414 0.0000
0.7586 1.2759 0.0000
0.7586 1.3103 0.0000
0.7586 1.3448 0.0000
0.7586 1.3793 0.0000
0.7586 1.4138 0.0000
0.7586 1.4483 0.0000
0.7586 1.4828 0.0000
0.7586 1.5172 0.0000
0.7586 1.5517 0.0000
0.7586 1.5862 0.0000
0.7586 1.6207 0.0000
0.7586 1.6552 0.0000
0.7586 1.6897 0.0000
0.7586 1.7241 0.0000
0.7586 1.7586 0.0000
0.7586 1.7931 0.0000
0.7586 1.8276 0.0000
0.7586 1.8621 0.0000
0.7586 1.8966 0.0000
0.7586 1.9310 0.0000
0.7586 1.9655 0.0000
0.7586 2.0000 0.0000
0.8276 1.0000 0.0000
0.8276 1.0345 0.0000
0.8276 1.0690 0.0000
0.8276 1.1034 0.0000
0.8276 1.1379 0.0000
0.8276 1.1724 0.0000
0.8276 1.2069 0.0000
0.8276 1.2414 0.0000
0.8276 1.2759 0.0000
0.8276 1.3103 0.0000
0.8276 1.3448 0.0000
0.8276 1.3793 0.0000
0.8276 1.4138 0.0000
0.8276 1.4483 0.0000
0.8276 1.4828 0.0000
0.8276 1.5172 0.0000
0.8276 1.5517 0.0000
0.8276 1.5862 0.0000
0.8276 1.6207 0.0000
0.8276 1.6552 0.0000
0.8276 1.6897 0.0000
0.8276 1.7241 0.0000
0.8276 1.7586 0.0000
0.8276 1.7931 0.0000
0.8276 1.8276 0.0000
0.8276 1.8621 0.0000
0.8276 1.8966 0.0000
0.8276 1.9310 0.0000
0.8276 1.9655 0.0000
0.8276 2.0000 0.0000
0.8966 1.0000 0.0000
0.8966 1.0345 0.0000
0.8966 1.0690 0.0000
0.8966 1.1034 0.0000
0.8966 1.1379 0.0000
0.8966 1.1724 0.0000
0.8966 1.2069 0.0000
0.8966 1.2414 0.0000
0.8966 1.2759 0.0000
0.8966 1.3103 0.0000
0.8966 1.3448 0.0000
0.8966 1.3793 0.0000
0.8966 1.4138 0.0000
0.8966 1.4483 0.0000
0.8966 1.4828 0.0000
0.8966 1.5172 0.0000
0.8966 1.5517 0.0000
0.8966 1.5862 0.0000
0.8966 1.6207 0.0000
0.8966 1.6552 0.0000
0.8966 1.6897 0.0000
0.8966 1.7241 0.0000
0.8966 1.7586 0.0000
0.8966 1.7931 0.0000
0.8966 1.8276 0.0000
0.8966 1.8621 0.0000
0.8966 1.8966 0.0000
0.8966 1.9310 0.0000
0.8966 1.9655 0.0000
0.8966 2.0000 0.0000
0.9655 1.0000 0.0000
0.9655 1.0345 0.0000
0.9655 1.0690 0.0000
0.9655 1.1034 0.0000
0.9655 1.1379 0.0000
0.9655 1.1724 0.0000
0.9655 1.2069 0.0000
0.9655 1.2414 0.0000
0.9655 1.2759 0.0000
0.9655 1.3103 0.0000
0.9655 1.3448 0.0000
0.9655 1.3793 0.0000
0.9655 1.4138 0.0000
0.9655 1.4483 0.0000
0.9655 1.4828 0.0000
0.9655 1.5172 0.0000
0.9655 1.5517 0.0000
0.9655 1.5862 0.0000
0.9655 1.6207 0.0000
0.9655 1.6552 0.0000
0.9655 1.6897 0.0000
0.9655 1.7241 0.0000
0.9655 1.7586 0.0000
0.9655 1.7931 0.0000
0.9655 1.8276 0.0000
0.9655 1.8621 0.0000
0.9655 1.8966 0.0000
0.9655 1.9310 0.0000
0.9655 1.9655 0.0000
0.9655 2.0000 0.0000
1.0345 1.0000 0.0000
1.0345 1.0345 0.0000
1.0345 1.0690 0.0000
1.0345 1.1034 0.0000
1.0345 1.1379 0.0000
1.0345 1.1724 0.0000
1.0345 1.2069 0.0000
1.0345 1.2414 0.0000
1.0345 1.2759 0.0000
1.0345 1.3103 0.0000
1.0345 1.3448 0.0000
[...]
         <PointData>
            <DataArray Name="fValues" NumberOfComponents="3" format="ascii" type="Float64">
 3.39726e-18  1.30243e-17        00000 
-5.88739e-18 -5.88739e-18        00000 
 7.27738e-18 -5.82190e-18        00000 
-1.82870e-18  7.86340e-18        00000 
 1.52825e-17  4.36643e-18        00000 
-1.31489e-17 -3.38462e-18        00000 
 1.01883e-17  1.30993e-17        00000 
-1.28009e-18 -1.20694e-17        00000 
 5.45803e-18  4.36643e-18        00000 
-8.62020e-18  8.83814e-18        00000 
 3.63869e-19 -3.49314e-17        00000 
-4.74319e-19  3.34652e-17        00000 
-2.09225e-18 -1.74657e-17        00000 
-1.14667e-19  2.12635e-17        00000 
 2.72902e-19 -4.36643e-17        00000 
-8.74346e-19 -7.31479e-19        00000 
       00000  2.03767e-17        00000 
-3.76381e-20  4.36932e-17        00000 
 4.73030e-18  3.49314e-17        00000 
-6.08042e-18 -4.27915e-17        00000 
 1.23715e-17  2.32876e-17        00000 
 6.97981e-18 -2.78041e-17        00000 
-8.00511e-18  7.27738e-18        00000 
 2.56018e-18 -1.28009e-18        00000 
-4.36643e-18  7.27738e-18        00000 
-7.86242e-18  2.81153e-17        00000 
 1.45548e-18 -4.07533e-17        00000 
-4.67188e-18  2.43671e-17        00000 
 4.86262e-18 -1.44961e-17        00000 
 7.09759e-19  1.51765e-17        00000 
 9.40944e-03  7.40133e-02        00000 
-2.56798e-02  8.00546e-02        00000 
-4.20687e-02  9.18582e-02        00000 
-5.02283e-02  1.05815e-01        00000 
-5.35807e-02  1.20138e-01        00000 
-5.37605e-02  1.33949e-01        00000 
-5.16817e-02  1.46793e-01        00000 
-4.79151e-02  1.58422e-01        00000 
-4.28497e-02  1.68695e-01        00000 
-3.67700e-02  1.77528e-01        00000 
-2.98978e-02  1.84868e-01        00000 
-2.24146e-02  1.90682e-01        00000 
-1.44765e-02  1.94947e-01        00000 
-6.22248e-03  1.97648e-01        00000 
 2.21904e-03  1.98776e-01        00000 
 1.07256e-02  1.98324e-01        00000 
 1.91769e-02  1.96290e-01        00000 
 2.74513e-02  1.92671e-01        00000 
 3.54222e-02  1.87473e-01        00000 
 4.29533e-02  1.80700e-01        00000 
 4.98935e-02  1.72365e-01        00000 
 5.60685e-02  1.62489e-01        00000 
 6.12683e-02  1.51106e-01        00000 
 6.52278e-02  1.38272e-01        00000 
 6.75909e-02  1.24090e-01        00000 
 6.78467e-02  1.08741e-01        00000 
 6.51983e-02  9.25654e-02        00000 
 5.82684e-02  7.62319e-02        00000 
 4.43146e-02  6.11103e-02        00000 
 1.59100e-02  5.00431e-02        00000 
-3.11279e-02  1.83141e-01        00000 
-7.72895e-02  1.97992e-01        00000 
-1.05095e-01  2.14566e-01        00000 
-1.19569e-01  2.33156e-01        00000 
-1.25039e-01  2.52745e-01        00000 
-1.24156e-01  2.72335e-01        00000 
-1.18606e-01  2.91158e-01        00000 
-1.09522e-01  3.08658e-01        00000 
-9.77047e-02  3.24440e-01        00000 
-8.37527e-02  3.38220e-01        00000 
-6.81346e-02  3.49798e-01        00000 
-5.12345e-02  3.59030e-01        00000 
-3.33811e-02  3.65813e-01        00000 
-1.48658e-02  3.70079e-01        00000 
 4.04305e-03  3.71781e-01        00000 
 2.30907e-02  3.70894e-01        00000 
 4.20272e-02  3.67413e-01        00000 
 6.05997e-02  3.61350e-01        00000 
 7.85442e-02  3.52736e-01        00000 
 9.55761e-02  3.41626e-01        00000 
 1.11378e-01  3.28103e-01        00000 
 1.25583e-01  3.12287e-01        00000 
 1.37747e-01  2.94351e-01        00000 
 1.47313e-01  2.74538e-01        00000 
 1.53544e-01  2.53195e-01        00000 
 1.55413e-01  2.30813e-01        00000 
 1.51413e-01  2.08080e-01        00000 
 1.39204e-01  1.85924e-01        00000 
 1.14994e-01  1.65412e-01        00000 
 7.35044e-02  1.46940e-01        00000 
-1.11850e-01  2.97790e-01        00000 
-1.58590e-01  3.19796e-01        00000 
-1.88587e-01  3.41992e-01        00000 
-2.04764e-01  3.64617e-01        00000 
-2.09894e-01  3.87511e-01        00000 
-2.06405e-01  4.10160e-01        00000 
-1.96180e-01  4.31966e-01        00000 
-1.80655e-01  4.52379e-01        00000 
-1.60936e-01  4.70930e-01        00000 
-1.37896e-01  4.87244e-01        00000 
-1.12243e-01  5.01024e-01        00000 
-8.45716e-02  5.12042e-01        00000 
-5.53950e-02  5.20128e-01        00000 
-2.51719e-02  5.25162e-01        00000 
 5.67517e-03  5.27064e-01        00000 
 3.67441e-02  5.25792e-01        00000 
 6.76406e-02  5.21338e-01        00000 
 9.79656e-02  5.13729e-01        00000 
 1.27303e-01  5.03030e-01        00000 
 1.55203e-01  4.89343e-01        00000 
 1.81169e-01  4.72820e-01        00000 
 2.04629e-01  4.53667e-01        00000 
 2.24906e-01  4.32156e-01        00000 
 2.41172e-01  4.08640e-01        00000 
 2.52386e-01  3.83560e-01        00000 
 2.57199e-01  3.57453e-01        00000 
 2.53841e-01  3.30922e-01        00000 
 2.39998e-01  3.04549e-01        00000 
 2.12858e-01  2.78670e-01        00000 
 1.69399e-01  2.53155e-01        00000 
-2.25754e-01  4.05459e-01        00000 
-2.68165e-01  4.34090e-01        00000 
-2.94897e-01  4.61862e-01        00000 
-3.07883e-01  4.88972e-01        00000 
-3.09119e-01  5.15363e-01        00000 
-3.00497e-01  5.40796e-01        00000 
-2.83720e-01  5.64910e-01        00000 
-2.60253e-01  5.87296e-01        00000 
-2.31333e-01  6.07559e-01        00000 
-1.98002e-01  6.25343e-01        00000 
-1.61152e-01  6.40344e-01        00000 
-1.21556e-01  6.52317e-01        00000 
-7.98993e-02  6.61066e-01        00000 
-3.68033e-02  6.66450e-01        00000 
 7.15286e-03  6.68373e-01        00000 
 5.14156e-02  6.66786e-01        00000 
 9.54404e-02  6.61681e-01        00000 
 1.38677e-01  6.53096e-01        00000 
 1.80552e-01  6.41112e-01        00000 
 2.20456e-01  6.25860e-01        00000 
 2.57717e-01  6.07518e-01        00000 
 2.91582e-01  5.86322e-01        00000 
 3.21187e-01  5.62564e-01        00000 
 3.45522e-01  5.36594e-01        00000 
 3.63387e-01  5.08812e-01        00000 
 3.73358e-01  4.79641e-01        00000 
 3.73759e-01  4.49486e-01        00000 
 3.62683e-01  4.18654e-01        00000 
 3.38087e-01  3.87280e-01        00000 
 2.97923e-01  3.55263e-01        00000 
-3.69832e-01  5.00005e-01        00000 
-4.04884e-01  5.34967e-01        00000 
-4.24704e-01  5.68356e-01        00000 
-4.30799e-01  6.00224e-01        00000 
-4.24751e-01  6.30520e-01        00000 
-4.08138e-01  6.59086e-01        00000 
-3.82462e-01  6.85693e-01        00000 
-3.49111e-01  7.10061e-01        00000 
-3.09343e-01  7.31899e-01        00000 
-2.64280e-01  7.50924e-01        00000 
-2.14927e-01  7.66881e-01        00000 
-1.62190e-01  7.79550e-01        00000 
-1.06892e-01  7.88755e-01        00000 
-4.97973e-02  7.94360e-01        00000 
 8.37473e-03  7.96275e-01        00000 
 6.69293e-02  7.94452e-01        00000 
 1.25181e-01  7.88887e-01        00000 
 1.82438e-01  7.79620e-01        00000 
 2.37985e-01  7.66732e-01        00000 
 2.91067e-01  7.50352e-01        00000 
 3.40870e-01  7.30652e-01        00000 
 3.86502e-01  7.07848e-01        00000 
 4.26973e-01  6.82196e-01        00000 
 4.61173e-01  6.53986e-01        00000 
 4.87859e-01  6.23526e-01        00000 
 5.05643e-01  5.91120e-01        00000 
 5.13010e-01  5.57037e-01        00000 
 5.08348e-01  5.21478e-01        00000 
 4.90011e-01  4.84547e-01        00000 
 4.56400e-01  4.46237e-01        00000 
-5.43176e-01  5.77053e-01        00000 
-5.68521e-01  6.18356e-01        00000 
-5.78613e-01  6.57469e-01        00000 
-5.74806e-01  6.94343e-01        00000 
-5.58509e-01  7.28889e-01        00000 
-5.31139e-01  7.60979e-01        00000 
-4.94083e-01  7.90449e-01        00000 
-4.48667e-01  8.17104e-01        00000 
-3.96133e-01  8.40741e-01        00000 
-3.37642e-01  8.61156e-01        00000 
-2.74263e-01  8.78157e-01        00000 
-2.06991e-01  8.91575e-01        00000 
-1.36754e-01  9.01271e-01        00000 
-6.44248e-02  9.07137e-01        00000 
 9.15987e-03  9.09098e-01        00000 
 8.31871e-02  9.07117e-01        00000 
 1.56852e-01  9.01192e-01        00000 
 2.29344e-01  8.91359e-01        00000 
 2.99829e-01  8.77688e-01        00000 
 3.67437e-01  8.60289e-01        00000 
 4.31245e-01  8.39302e-01        00000 
 4.90264e-01  8.14900e-01        00000 
 5.43426e-01  7.87282e-01        00000 
 5.89574e-01  7.56664e-01        00000 
 6.27456e-01  7.23271e-01        00000 
 6.55734e-01  6.87318e-01        00000 
 6.72994e-01  6.48998e-01        00000 
 6.77776e-01  6.08471e-01        00000 
 6.68615e-01  5.65855e-01        00000 
 6.44081e-01  5.21226e-01        00000 
-7.46218e-01  6.32643e-01        00000 
-7.59627e-01  6.80475e-01        00000 
-7.57457e-01  7.25505e-01        00000 
-7.41053e-01  7.67616e-01        00000 
-7.11788e-01  8.06698e-01        00000 
-6.71029e-01  8.42635e-01        00000 
-6.20118e-01  8.75303e-01        00000 
-5.60355e-01  9.04569e-01        00000 
-4.92982e-01  9.30296e-01        00000 
-4.19176e-01  9.52349e-01        00000 
-3.40053e-01  9.70599e-01        00000 
-2.56664e-01  9.84932e-01        00000 
-1.70010e-01  9.95252e-01        00000 
-8.10460e-02  1.00148e+00        00000 
 9.30551e-03  1.00358e+00        00000 
 1.00141e-01  1.00150e+00        00000 
 1.90565e-01  9.95267e-01        00000 
 2.79673e-01  9.84896e-01        00000 
 3.66543e-01  9.70442e-01        00000 
 4.50221e-01  9.51986e-01        00000 
 5.29707e-01  9.29630e-01        00000 
 6.03945e-01  9.03497e-01        00000 
 6.71817e-01  8.73725e-01        00000 
 7.32137e-01  8.40463e-01        00000 
 7.83648e-01  8.03867e-01        00000 
 8.25030e-01  7.64086e-01        00000 
 8.54911e-01  7.21267e-01        00000 
 8.71884e-01  6.75546e-01        00000 
 8.74527e-01  6.27050e-01        00000 
 8.61435e-01  5.75911e-01        00000 
-9.80206e-01  6.62506e-01        00000 
-9.79288e-01  7.17168e-01        00000 
-9.62302e-01  7.68355e-01        00000 
-9.30666e-01  8.15927e-01        00000 
-8.85789e-01  8.59773e-01        00000 
-8.29056e-01  8.99797e-01        00000 
-7.61818e-01  9.35914e-01        00000 
-6.85380e-01  9.68040e-01        00000 
-6.00995e-01  9.96096e-01        00000 
-5.09863e-01  1.02001e+00        00000 
-4.13128e-01  1.03970e+00        00000 
-3.11882e-01  1.05511e+00        00000 
-2.07173e-01  1.06619e+00        00000 
-1.00010e-01  1.07290e+00        00000 
 8.62605e-03  1.07520e+00        00000 
 1.17769e-01  1.07309e+00        00000 
 2.26461e-01  1.06657e+00        00000 
 3.33736e-01  1.05566e+00        00000 
 4.38611e-01  1.04039e+00        00000 
 5.40074e-01  1.02081e+00        00000 
 6.37074e-01  9.96984e-01        00000 
 7.28513e-01  9.68982e-01        00000 
 8.13239e-01  9.36888e-01        00000 
 8.90039e-01  9.00791e-01        00000 
 9.57643e-01  8.60785e-01        00000 
 1.01472e+00  8.16966e-01        00000 
 1.05990e+00  7.69438e-01        00000 
 1.09176e+00  7.18307e-01        00000 
 1.10884e+00  6.63697e-01        00000 
 1.10969e+00  6.05753e-01        00000 
-1.24684e+00  6.61707e-01        00000 
-1.22889e+00  7.23552e-01        00000 
-1.19434e+00  7.81154e-01        00000 
-1.14473e+00  8.34389e-01        00000 
-1.08155e+00  8.83171e-01        00000 
-1.00622e+00  9.27442e-01        00000 
-9.20149e-01  9.67162e-01        00000 
-8.24656e-01  1.00230e+00        00000 
-7.21020e-01  1.03283e+00        00000 
-6.10460e-01  1.05874e+00        00000 
-4.94142e-01  1.08001e+00        00000 
-3.73182e-01  1.09662e+00        00000 
-2.48654e-01  1.10856e+00        00000 
-1.21598e-01  1.11582e+00        00000 
 6.97240e-03  1.11840e+00        00000 
 1.36057e-01  1.11630e+00        00000 
 2.64663e-01  1.10951e+00        00000 
 3.91790e-01  1.09806e+00        00000 
 5.16422e-01  1.08195e+00        00000 
 6.37515e-01  1.06120e+00        00000 
 7.53988e-01  1.03584e+00        00000 
 8.64719e-01  1.00589e+00        00000 
 9.68531e-01  9.71375e-01        00000 
 1.06419e+00  9.32330e-01        00000 
 1.15041e+00  8.88791e-01        00000 
 1.22583e+00  8.40798e-01        00000 
 1.28904e+00  7.88404e-01        00000 
 1.33857e+00  7.31675e-01        00000 
 1.37291e+00  6.70703e-01        00000 
 1.39049e+00  6.05615e-01        00000 
-1.54799e+00  6.24456e-01        00000 
-1.50991e+00  6.93842e-01        00000 
-1.45478e+00  7.58100e-01        00000 
-1.38426e+00  8.17157e-01        00000 
-1.29993e+00  8.70985e-01        00000 
-1.20330e+00  9.19582e-01        00000 
-1.09580e+00  9.62968e-01        00000 
-9.78816e-01  1.00117e+00        00000 
-8.53628e-01  1.03424e+00        00000 
-7.21475e-01  1.06220e+00        00000 
-5.83532e-01  1.08509e+00        00000 
-4.40925e-01  1.10295e+00        00000 
-2.94734e-01  1.11580e+00        00000 
-1.46006e-01  1.12366e+00        00000 
 4.23732e-03  1.12656e+00        00000 
 1.54989e-01  1.12449e+00        00000 
 3.05246e-01  1.11747e+00        00000 
 4.54002e-01  1.10549e+00        00000 
 6.00231e-01  1.08855e+00        00000 
 7.42882e-01  1.06664e+00        00000 
 8.80868e-01  1.03973e+00        00000 
 1.01306e+00  1.00782e+00        00000 
 1.13826e+00  9.70866e-01        00000 
 1.25523e+00  9.28848e-01        00000 
 1.36266e+00  8.81737e-01        00000 
 1.45917e+00  8.29511e-01        00000 
 1.54329e+00  7.72159e-01        00000 
 1.61349e+00  7.09685e-01        00000 
 1.66817e+00  6.42125e-01        00000 
 1.70564e+00  5.69551e-01        00000 
-1.88550e+00  5.44009e-01        00000 
-1.82375e+00  6.21252e-01        00000 
-1.74467e+00  6.92357e-01        00000 
-1.65004e+00  7.57335e-01        00000 
-1.54155e+00  8.16243e-01        00000 
-1.42077e+00  8.69160e-01        00000 
-1.28919e+00  9.16187e-01        00000 
-1.14820e+00  9.57428e-01        00000 
-9.99114e-01  9.92991e-01        00000 
-8.43163e-01  1.02298e+00        00000 
-6.81520e-01  1.04748e+00        00000 
-5.15296e-01  1.06657e+00        00000 
-3.45560e-01  1.08033e+00        00000 
-1.73342e-01  1.08880e+00        00000 
 3.53370e-04  1.09202e+00        00000 
 1.74538e-01  1.09002e+00        00000 
 3.48227e-01  1.08278e+00        00000 
 5.20429e-01  1.07032e+00        00000 
 6.90139e-01  1.05259e+00        00000 
 8.56321e-01  1.02956e+00        00000 
 1.01790e+00  1.00117e+00        00000 
 1.17376e+00  9.67351e-01        00000 
 1.32272e+00  9.28020e-01        00000 
 1.46353e+00  8.83086e-01        00000 
 1.59486e+00  8.32450e-01        00000 
 1.71532e+00  7.76013e-01        00000 
 1.82341e+00  7.13682e-01        00000 
 1.91751e+00  6.45381e-01        00000 
 1.99594e+00  5.71057e-01        00000 
 2.05689e+00  4.90696e-01        00000 
-2.26094e+00  4.12618e-01        00000 
-2.17154e+00  4.97960e-01        00000 
-2.06479e+00  5.76018e-01        00000 
-1.94260e+00  6.46928e-01        00000 
-1.80674e+00  7.10861e-01        00000 
-1.65884e+00  7.68006e-01        00000 
-1.50041e+00  8.18559e-01        00000 
-1.33287e+00  8.62718e-01        00000 
-1.15750e+00  9.00670e-01        00000 
-9.75541e-01  9.32584e-01        00000 
-7.88118e-01  9.58614e-01        00000 
-5.96314e-01  9.78890e-01        00000 
-4.01156e-01  9.93516e-01        00000 
-2.03635e-01  1.00258e+00        00000 
-4.71223e-03  1.00612e+00        00000 
 1.94668e-01  1.00419e+00        00000 
 3.93564e-01  9.96782e-01        00000 
 5.91030e-01  9.83877e-01        00000 
 7.86101e-01  9.65430e-01        00000 
 9.77785e-01  9.41368e-01        00000 
 1.16505e+00  9.11597e-01        00000 
 1.34681e+00  8.75994e-01        00000 
 1.52191e+00  8.34417e-01        00000 
 1.68913e+00  7.86702e-01        00000 
 1.84716e+00  7.32670e-01        00000 
 1.99457e+00  6.72130e-01        00000 
 2.12986e+00  6.04891e-01        00000 
 2.25136e+00  5.30765e-01        00000 
 2.35730e+00  4.49585e-01        00000 
 2.44575e+00  3.61214e-01        00000 
-2.67547e+00  2.21529e-01        00000 
-2.55399e+00  3.15089e-01        00000 
-2.41551e+00  4.00092e-01        00000 
-2.26204e+00  4.76834e-01        00000 
-2.09543e+00  5.45635e-01        00000 
-1.91732e+00  6.06818e-01        00000 
-1.72924e+00  6.60702e-01        00000 
-1.53256e+00  7.07589e-01        00000 
-1.32856e+00  7.47756e-01        00000 
-1.11839e+00  7.81452e-01        00000 
-9.03152e-01  8.08893e-01        00000 
-6.83845e-01  8.30257e-01        00000 
-4.61436e-01  8.45690e-01        00000 
-2.36845e-01  8.55301e-01        00000 
-1.09639e-02  8.59164e-01        00000 
 2.15330e-01  8.57317e-01        00000 
 4.41166e-01  8.49767e-01        00000 
 6.65666e-01  8.36482e-01        00000 
 8.87936e-01  8.17399e-01        00000 
 1.10705e+00  7.92417e-01        00000 
 1.32205e+00  7.61401e-01        00000 
 1.53191e+00  7.24178e-01        00000 
 1.73554e+00  6.80542e-01        00000 
 1.93177e+00  6.30251e-01        00000 
 2.11932e+00  5.73034e-01        00000 
 2.29681e+00  5.08595e-01        00000 
 2.46271e+00  4.36618e-01        00000 
 2.61534e+00  3.56782e-01        00000 
 2.75288e+00  2.68769e-01        00000 
 2.87330e+00  1.72283e-01        00000 
-3.12961e+00 -3.90020e-02        00000 
-2.97118e+00  6.27357e-02        00000 
-2.79661e+00  1.54524e-01        00000 
-2.60795e+00  2.36862e-01        00000 
-2.40708e+00  3.10254e-01        00000 
-2.19562e+00  3.75189e-01        00000 
-1.97507e+00  4.32128e-01        00000 
-1.74672e+00  4.81495e-01        00000 
-1.51178e+00  5.23666e-01        00000 
-1.27130e+00  5.58971e-01        00000 
-1.02628e+00  5.87687e-01        00000 
-7.77636e-01  6.10042e-01        00000 
-5.26227e-01  6.26215e-01        00000 
-2.72877e-01  6.36339e-01        00000 
-1.83850e-02  6.40502e-01        00000 
 2.36466e-01  6.38750e-01        00000 
 4.90897e-01  6.31088e-01        00000 
 7.44124e-01  6.17478e-01        00000 
 9.95348e-01  5.97840e-01        00000 
 1.24374e+00  5.72050e-01        00000 
 1.48844e+00  5.39938e-01        00000 
 1.72853e+00  5.01282e-01        00000 
 1.96300e+00  4.55812e-01        00000 
 2.19079e+00  4.03206e-01        00000 
 2.41071e+00  3.43091e-01        00000 
 2.62142e+00  2.75050e-01        00000 
 2.82147e+00  1.98624e-01        00000 
 3.00918e+00  1.13327e-01        00000 
 3.18271e+00  1.86564e-02        00000 
 3.33997e+00 -8.58880e-02        00000 
-3.62304e+00 -3.79648e-01        00000 
-3.42244e+00 -2.69984e-01        00000 
-3.20714e+00 -1.71761e-01        00000 
-2.97925e+00 -8.42261e-02        00000 
-2.74057e+00 -6.64976e-03        00000 
-2.49267e+00  6.16535e-02        00000 
-2.23691e+00  1.21309e-01        00000 
-1.97448e+00  1.72873e-01        00000 
-1.70643e+00  2.16827e-01        00000 
-1.43367e+00  2.53577e-01        00000 
-1.15705e+00  2.83457e-01        00000 
-8.77353e-01  3.06731e-01        00000 
-5.95306e-01  3.23604e-01        00000 
-3.11610e-01  3.34222e-01        00000 
-2.69476e-02  3.38681e-01        00000 
 2.58012e-01  3.37029e-01        00000 
 5.42600e-01  3.29271e-01        00000 
 8.26147e-01  3.15366e-01        00000 
 1.10797e+00  2.95225e-01        00000 
 1.38736e+00  2.68710e-01        00000 
 1.66360e+00  2.35624e-01        00000 
 1.93589e+00  1.95708e-01        00000 
 2.20339e+00  1.48636e-01        00000 
 2.46518e+00  9.40075e-02        00000 
 2.72020e+00  3.13448e-02        00000 
 2.96727e+00 -3.99035e-02        00000 
 3.20502e+00 -1.20359e-01        00000 
 3.43188e+00 -2.10706e-01        00000 
 3.64604e+00 -3.11672e-01        00000 
 3.84539e+00 -4.24011e-01        00000 
-4.15433e+00 -8.11926e-01        00000 
-3.90602e+00 -6.94852e-01        00000 
-3.64526e+00 -5.90780e-01        00000 
-3.37407e+00 -4.98639e-01        00000 
-3.09414e+00 -4.17425e-01        00000 
-2.80686e+00 -3.46225e-01        00000 
-2.51339e+00 -2.84231e-01        00000 
-2.21469e+00 -2.30747e-01        00000 
-1.91159e+00 -1.85193e-01        00000 
-1.60480e+00 -1.47099e-01        00000 
-1.29495e+00 -1.16093e-01        00000 
-9.82650e-01 -9.18943e-02        00000 
-6.68458e-01 -7.42957e-02        00000 
-3.52933e-01 -6.31542e-02        00000 
-3.66259e-02 -5.83795e-02        00000 
 2.79913e-01 -5.99267e-02        00000 
 5.96135e-01 -6.77922e-02        00000 