<?xml version="1.0" encoding="utf-8"?>
<VTKFile byte_order="LittleEndian" type="UnstructuredGrid" version="0.1">
   <UnstructuredGrid>
      <Piece NumberOfCells="3364" NumberOfPoints="1741">
         <Points>
            <DataArray Name="Points" NumberOfComponents="3" format="ascii" type="Float32">
0.0000 1.0000 0.0000
0.0000 1.0345 0.0000
0.0000 1.0690 0.0000
0.0000 1.1034 0.0000
0.0000 1.1379 0.0000
0.0000 1.1724 0.0000
0.0000 1.2069 0.0000
0.0000 1.2414 0.0000
0.0000 1.2759 0.0000
0.0000 1.3103 0.0000
0.0000 1.3448 0.0000
0.0000 1.3793 0.0000
0.0000 1.4138 0.0000
0.0000 1.4483 0.0000
0.0000 1.4828 0.0000
0.0000 1.5172 0.0000
0.0000 1.5517 0.0000
0.0000 1.5862 0.0000
0.0000 1.6207 0.0000
0.0000 1.6552 0.0000
0.0000 1.6897 0.0000
0.0000 1.7241 0.0000
0.0000 1.7586 0.0000
0.0000 1.7931 0.0000
0.0000 1.8276 0.0000
0.0000 1.8621 0.0000
0.0000 1.8966 0.0000
0.0000 1.9310 0.0000
0.0000 1.9655 0.0000
0.0000 2.0000 0.0000
0.0690 1.0000 0.0000
0.0690 1.0345 0.0000
0.0690 1.0690 0.0000
0.0690 1.1034 0.0000
0.0690 1.1379 0.0000
0.0690 1.1724 0.0000
0.0690 1.2069 0.0000
0.0690 1.2414 0.0000
0.0690 1.2759 0.0000
0.0690 1.3103 0.0000
0.0690 1.3448 0.0000
0.0690 1.3793 0.0000
0.0690 1.4138 0.0000
0.0690 1.4483 0.0000
0.0690 1.4828 0.0000
0.0690 1.5172 0.0000
0.0690 1.5517 0.0000
0.0690 1.5862 0.0000
0.0690 1.6207 0.0000
0.0690 1.6552 0.0000
0.0690 1.6897 0.0000
0.0690 1.7241 0.0000
0.0690 1.7586 0.0000
0.0690 1.7931 0.0000
0.0690 1.8276 0.0000
0.0690 1.8621 0.0000
0.0690 1.8966 0.0000
0.0690 1.9310 0.0000
0.0690 1.9655 0.0000
0.0690 2.0000 0.0000
0.1379 1.0000 0.0000
0.1379 1.0345 0.0000
0.1379 1.0690 0.0000
0.1379 1.1034 0.0000
0.1379 1.1379 0.0000
0.1379 1.1724 0.0000
0.1379 1.2069 0.0000
0.1379 1.2414 0.0000
0.1379 1.2759 0.0000
0.1379 1.3103 0.0000
0.1379 1.3448 0.0000
0.1379 1.3793 0.0000
0.1379 1.4138 0.0000
0.1379 1.4483 0.0000
0.1379 1.4828 0.0000
0.1379 1.5172 0.0000
0.1379 1.5517 0.0000
0.1379 1.5862 0.0000
0.1379 1.6207 0.0000
0.1379 1.6552 0.0000
0.1379 1.6897 0.0000
0.1379 1.7241 0.0000
0.1379 1.7586 0.0000
0.1379 1.7931 0.0000
0.1379 1.8276 0.0000
0.1379 1.8621 0.0000
0.1379 1.8966 0.0000
0.1379 1.9310 0.0000
0.1379 1.9655 0.0000
0.1379 2.0000 0.0000
0.2069 1.0000 0.0000
0.2069 1.0345 0.0000
0.2069 1.0690 0.0000
0.2069 1.1034 0.0000
0.2069 1.1379 0.0000
0.2069 1.1724 0.0000
0.2069 1.2069 0.0000
0.2069 1.2414 0.0000
0.2069 1.2759 0.0000
0.2069 1.3103 0.0000
0.2069 1.3448 0.0000
0.2069 1.3793 0.0000
0.2069 1.4138 0.0000
0.2069 1.4483 0.0000
0.2069 1.4828 0.0000
0.2069 1.5172 0.0000
0.2069 1.5517 0.0000
0.2069 1.5862 0.0000
0.2069 1.6207 0.0000
0.2069 1.6552 0.0000
0.2069 1.6897 0.0000
0.2069 1.7241 0.0000
0.2069 1.7586 0.0000
0.2069 1.7931 0.0000
0.2069 1.8276 0.0000
0.2069 1.8621 0.0000
0.2069 1.8966 0.0000
0.2069 1.9310 0.0000
0.2069 1.9655 0.0000
0.2069 2.0000 0.0000
0.2759 1.0000 0.0000
0.2759 1.0345 0.0000
0.2759 1.0690 0.0000
0.2759 1.1034 0.0000
0.2759 1.1379 0.0000
0.2759 1.1724 0.0000
0.2759 1.2069 0.0000
0.2759 1.2414 0.0000
0.2759 1.2759 0.0000
0.2759 1.3103 0.0000
0.2759 1.3448 0.0000
0.2759 1.3793 0.0000
0.2759 1.4138 0.0000
0.2759 1.4483 0.0000
0.2759 1.4828 0.0000
0.2759 1.5172 0.0000
0.2759 1.5517 0.0000
0.2759 1.5862 0.0000
0.2759 1.6207 0.0000
0.2759 1.6552 0.0000
0.2759 1.6897 0.0000
0.2759 1.7241 0.0000
0.2759 1.7586 0.0000
0.2759 1.7931 0.0000
0.2759 1.8276 0.0000
0.2759 1.8621 0.0000
0.2759 1.8966 0.0000
0.2759 1.9310 0.0000
0.2759 1.9655 0.0000
0.2759 2.0000 0.0000
0.3448 1.0000 0.0000
0.3448 1.0345 0.0000
0.3448 1.0690 0.0000
0.3448 1.1034 0.0000
0.3448 1.1379 0.0000
0.3448 1.1724 0.0000
0.3448 1.2069 0.0000
0.3448 1.2414 0.0000
0.3448 1.2759 0.0000
0.3448 1.3103 0.0000
0.3448 1.3448 0.0000
0.3448 1.3793 0.0000
0.3448 1.4138 0.0000
0.3448 1.4483 0.0000
0.3448 1.4828 0.0000
0.3448 1.5172 0.0000
0.3448 1.5517 0.0000
0.3448 1.5862 0.0000
0.3448 1.6207 0.0000
0.3448 1.6552 0.0000
0.3448 1.6897 0.0000
0.3448 1.7241 0.0000
0.3448 1.7586 0.0000
0.3448 1.7931 0.0000
0.3448 1.8276 0.0000
0.3448 1.8621 0.0000
0.3448 1.8966 0.0000
0.3448 1.9310 0.0000
0.3448 1.9655 0.0000
0.3448 2.0000 0.0000
0.4138 1.0000 0.0000
0.4138 1.0345 0.0000
0.4138 1.0690 0.0000
0.4138 1.1034 0.0000
0.4138 1.1379 0.0000
0.4138 1.1724 0.0000
0.4138 1.2069 0.0000
0.4138 1.2414 0.0000
0.4138 1.2759 0.0000
0.4138 1.3103 0.0000
0.4138 1.3448 0.0000
0.4138 1.3793 0.0000
0.4138 1.4138 0.0000
0.4138 1.4483 0.0000
0.4138 1.4828 0.0000
0.4138 1.5172 0.0000
0.4138 1.5517 0.0000
0.4138 1.5862 0.0000
0.4138 1.6207 0.0000
0.4138 1.6552 0.0000
0.4138 1.6897 0.0000
0.4138 1.7241 0.0000
0.4138 1.7586 0.0000
0.4138 1.7931 0.0000
0.4138 1.8276 0.0000
0.4138 1.8621 0.0000
0.4138 1.8966 0.0000
0.4138 1.9310 0.0000
0.4138 1.9655 0.0000
0.4138 2.0000 0.0000
0.4828 1.0000 0.0000
0.4828 1.0345 0.0000
0.4828 1.0690 0.0000
0.4828 1.1034 0.0000
0.4828 1.1379 0.0000
0.4828 1.1724 0.0000
0.4828 1.2069 0.0000
0.4828 1.2414 0.0000
0.4828 1.2759 0.0000
0.4828 1.3103 0.0000
0.4828 1.3448 0.0000
0.4828 1.3793 0.0000
0.4828 1.4138 0.0000
0.4828 1.4483 0.0000
0.4828 1.4828 0.0000
0.4828 1.5172 0.0000
0.4828 1.5517 0.0000
0.4828 1.5862 0.0000
0.4828 1.6207 0.0000
0.4828 1.6552 0.0000
0.4828 1.6897 0.0000
0.4828 1.7241 0.0000
0.4828 1.7586 0.0000
0.4828 1.7931 0.0000
0.4828 1.8276 0.0000
0.4828 1.8621 0.0000
0.4828 1.8966 0.0000
0.4828 1.9310 0.0000
0.4828 1.9655 0.0000
0.4828 2.0000 0.0000
0.5517 1.0000 0.0000
0.5517 1.0345 0.0000
0.5517 1.0690 0.0000
0.5517 1.1034 0.0000
0.5517 1.1379 0.0000
0.5517 1.1724 0.0000
0.5517 1.2069 0.0000
0.5517 1.2414 0.0000
0.5517 1.2759 0.0000
0.5517 1.3103 0.0000
0.5517 1.3448 0.0000
0.5517 1.3793 0.0000
0.5517 1.4138 0.0000
0.5517 1.4483 0.0000
0.5517 1.4828 0.0000
0.5517 1.5172 0.0000
0.5517 1.5517 0.0000
0.5517 1.5862 0.0000
0.5517 1.6207 0.0000
0.5517 1.6552 0.0000
0.5517 1.6897 0.0000
0.5517 1.7241 0.0000
0.5517 1.7586 0.0000
0.5517 1.7931 0.0000
0.5517 1.8276 0.0000
0.5517 1.8621 0.0000
0.5517 1.8966 0.0000
0.5517 1.9310 0.0000
0.5517 1.9655 0.0000
0.5517 2.0000 0.0000
0.6207 1.0000 0.0000
0.6207 1.0345 0.0000
0.6207 1.0690 0.0000
0.6207 1.1034 0.0000
0.6207 1.1379 0.0000
0.6207 1.1724 0.0000
0.6207 1.2069 0.0000
0.6207 1.2414 0.0000
0.6207 1.2759 0.0000
0.6207 1.3103 0.0000
0.6207 1.3448 0.0000
0.6207 1.3793 0.0000
0.6207 1.4138 0.0000
0.6207 1.4483 0.0000
0.6207 1.4828 0.0000
0.6207 1.5172 0.0000
0.6207 1.5517 0.0000
0.6207 1.5862 0.0000
0.6207 1.6207 0.0000
0.6207 1.6552 0.0000
0.6207 1.6897 0.0000
0.6207 1.7241 0.0000
0.6207 1.7586 0.0000
0.6207 1.7931 0.0000
0.6207 1.8276 0.0000
0.6207 1.8621 0.0000
0.6207 1.8966 0.0000
0.6207 1.9310 0.0000
0.6207 1.9655 0.0000
0.6207 2.0000 0.0000
0.6897 1.0000 0.0000
0.6897 1.0345 0.0000
0.6897 1.0690 0.0000
0.6897 1.1034 0.0000
0.6897 1.1379 0.0000
0.6897 1.1724 0.0000
0.6897 1.2069 0.0000
0.6897 1.2414 0.0000
0.6897 1.2759 0.0000
0.6897 1.3103 0.0000
0.6897 1.3448 0.0000
0.6897 1.3793 0.0000
0.6897 1.4138 0.0000
0.6897 1.4483 0.0000
0.6897 1.4828 0.0000
0.6897 1.5172 0.0000
0.6897 1.5517 0.0000
0.6897 1.5862 0.0000
0.6897 1.6207 0.0000
0.6897 1.6552 0.0000
0.6897 1.6897 0.0000
0.6897 1.7241 0.0000
0.6897 1.7586 0.0000
0.6897 1.7931 0.0000
0.6897 1.8276 0.0000
0.6897 1.8621 0.0000
0.6897 1.8966 0.0000
0.6897 1.9310 0.0000
0.6897 1.9655 0.0000
0.6897 2.0000 0.0000
0.7586 1.0000 0.0000
0.7586 1.0345 0.0000
0.7586 1.0690 0.0000
0.7586 1.1034 0.0000
0.7586 1.1379 0.0000
0.7586 1.1724 0.0000
0.7586 1.2069 0.0000
0.7586 1.2414 0.0000
0.7586 1.2759 0.0000
0.7586 1.3103 0.0000
0.7586 1.3448 0.0000
0.7586 1.3793 0.0000
0.7586 1.4138 0.0000
0.7586 1.4483 0.0000
0.7586 1.4828 0.0000
0.7586 1.5172 0.0000
0.7586 1.5517 0.0000
0.7586 1.5862 0.0000
0.7586 1.6207 0.0000
0.7586 1.6552 0.0000
0.7586 1.6897 0.0000
0.7586 1.7241 0.0000
0.7586 1.7586 0.0000
0.7586 1.7931 0.0000
0.7586 1.8276 0.0000
0.7586 1.8621 0.0000
0.7586 1.8966 0.0000
0.7586 1.9310 0.0000
0.7586 1.9655 0.0000
0.7586 2.0000 0.0000
0.8276 1.0000 0.0000
0.8276 1.0345 0.0000
0.8276 1.0690 0.0000
0.8276 1.1034 0.0000
0.8276 1.1379 0.0000
0.8276 1.1724 0.0000
0.8276 1.2069 0.0000
0.8276 1.2414 0.0000
0.8276 1.2759 0.0000
0.8276 1.3103 0.0000
0.8276 1.3448 0.0000
0.8276 1.3793 0.0000
0.8276 1.4138 0.0000
0.8276 1.4483 0.0000
0.8276 1.4828 0.0000
0.8276 1.5172 0.0000
0.8276 1.5517 0.0000
0.8276 1.5862 0.0000
0.8276 1.6207 0.0000
0.8276 1.6552 0.0000
0.8276 1.6897 0.0000
0.8276 1.7241 0.0000
0.8276 1.7586 0.0000
0.8276 1.7931 0.0000
0.8276 1.8276 0.0000
0.8276 1.8621 0.0000
0.8276 1.8966 0.0000
0.8276 1.9310 0.0000
0.8276 1.9655 0.0000
0.8276 2.0000 0.0000
0.8966 1.0000 0.0000
0.8966 1.0345 0.0000
0.8966 1.0690 0.0000
0.8966 1.1034 0.0000
0.8966 1.1379 0.0000
0.8966 1.1724 0.0000
0.8966 1.2069 0.0000
0.8966 1.2414 0.0000
0.8966 1.2759 0.0000
0.8966 1.3103 0.0000
0.8966 1.3448 0.0000
0.8966 1.3793 0.0000
0.8966 1.4138 0.0000
0.8966 1.4483 0.0000
0.8966 1.4828 0.0000
0.8966 1.5172 0.0000
0.8966 1.5517 0.0000
0.8966 1.5862 0.0000
0.8966 1.6207 0.0000
0.8966 1.6552 0.0000
0.8966 1.6897 0.0000
0.8966 1.7241 0.0000
0.8966 1.7586 0.0000
0.8966 1.7931 0.0000
0.8966 1.8276 0.0000
0.8966 1.8621 0.0000
0.8966 1.8966 0.0000
0.8966 1.9310 0.0000
0.8966 1.9655 0.0000
0.8966 2.0000 0.0000
0.9655 1.0000 0.0000
0.9655 1.0345 0.0000
0.9655 1.0690 0.0000
0.9655 1.1034 0.0000
0.9655 1.1379 0.0000
0.9655 1.1724 0.0000
0.9655 1.2069 0.0000
0.9655 1.2414 0.0000
0.9655 1.2759 0.0000
0.9655 1.3103 0.0000
0.9655 1.3448 0.0000
0.9655 1.3793 0.0000
0.9655 1.4138 0.0000
0.9655 1.4483 0.0000
0.9655 1.4828 0.0000
0.9655 1.5172 0.0000
0.9655 1.5517 0.0000
0.9655 1.5862 0.0000
0.9655 1.6207 0.0000
0.9655 1.6552 0.0000
0.9655 1.6897 0.0000
0.9655 1.7241 0.0000
0.9655 1.7586 0.0000
0.9655 1.7931 0.0000
0.9655 1.8276 0.0000
0.9655 1.8621 0.0000
0.9655 1.8966 0.0000
0.9655 1.9310 0.0000
0.9655 1.9655 0.0000
0.9655 2.0000 0.0000
1.0345 1.0000 0.0000
1.0345 1.0345 0.0000
1.0345 1.0690 0.0000
1.0345 1.1034 0.0000
1.0345 1.1379 0.0000
1.0345 1.1724 0.0000
1.0345 1.2069 0.0000
1.0345 1.2414 0.0000
1.0345 1.2759 0.0000
1.0345 1.3103 0.0000
1.0345 1.3448 0.0000
[...]
         <PointData>
            <DataArray Name="fValues" NumberOfComponents="3" format="ascii" type="Float64">
-1.82592e-18 -1.47185e-18        00000 
 4.41554e-18  5.88739e-18        00000 
-2.91095e-18 -1.30993e-17        00000 
 4.43459e-18  1.57268e-17        00000 
 1.30993e-17 -7.27738e-18        00000 
-1.59805e-17  4.57112e-17        00000 
 9.46059e-18 -3.05650e-17        00000 
 4.61746e-18  1.69155e-17        00000 
 2.91095e-18  1.45548e-17        00000 
 4.84635e-19  2.36697e-17        00000 
-1.09161e-18  8.73285e-18        00000 
 5.46324e-18  2.08472e-17        00000 
-3.27482e-18  1.16438e-17        00000 
 2.73699e-19 -5.45816e-17        00000 
-1.81934e-19  3.78424e-17        00000 
 6.05756e-19 -1.59097e-17        00000 
 2.54708e-18  8.73285e-18        00000 
-2.41386e-18  2.00866e-17        00000 
-1.09161e-18  8.73285e-18        00000 
 2.97163e-18  9.87497e-18        00000 
 5.09416e-18  1.45548e-18        00000 
-1.01160e-17  9.60054e-18        00000 
 3.63869e-18  5.82190e-18        00000 
-1.37152e-19  3.84027e-18        00000 
 2.91095e-18  2.47431e-17        00000 
 9.56581e-18  2.62822e-18        00000 
-1.09161e-17  2.32876e-17        00000 
 6.27498e-18  4.58027e-19        00000 
 1.01840e-17 -3.85339e-18        00000 
-6.39682e-18  1.05904e-17        00000 
 2.94738e-03  7.47097e-02        00000 
-3.34897e-02  8.28294e-02        00000 
-5.05029e-02  9.67216e-02        00000 
-5.88158e-02  1.12646e-01        00000 
-6.20173e-02  1.28768e-01        00000 
-6.18378e-02  1.44196e-01        00000 
-5.92503e-02  1.58474e-01        00000 
-5.48645e-02  1.71361e-01        00000 
-4.90963e-02  1.82722e-01        00000 
-4.22502e-02  1.92480e-01        00000 
-3.45629e-02  2.00588e-01        00000 
-2.62281e-02  2.07019e-01        00000 
-1.74118e-02  2.11754e-01        00000 
-8.26152e-03  2.14783e-01        00000 
 1.08652e-03  2.16098e-01        00000 
 1.05026e-02  2.15693e-01        00000 
 1.98595e-02  2.13567e-01        00000 
 2.90280e-02  2.09718e-01        00000 
 3.78736e-02  2.04146e-01        00000 
 4.62514e-02  1.96857e-01        00000 
 5.39996e-02  1.87859e-01        00000 
 6.09310e-02  1.77168e-01        00000 
 6.68196e-02  1.64813e-01        00000 
 7.13780e-02  1.50848e-01        00000 
 7.42201e-02  1.35371e-01        00000 
 7.47896e-02  1.18565e-01        00000 
 7.22183e-02  1.00785e-01        00000 
 6.50062e-02  8.27331e-02        00000 
 5.01729e-02  6.58703e-02        00000 
 1.97199e-02  5.32512e-02        00000 
-4.69944e-02  1.90216e-01        00000 
-9.56079e-02  2.07613e-01        00000 
-1.24394e-01  2.26848e-01        00000 
-1.38960e-01  2.48087e-01        00000 
-1.43929e-01  2.70221e-01        00000 
-1.42130e-01  2.92193e-01        00000 
-1.35368e-01  3.13199e-01        00000 
-1.24852e-01  3.32662e-01        00000 
-1.11438e-01  3.50177e-01        00000 
-9.57647e-02  3.65454e-01        00000 
-7.83315e-02  3.78293e-01        00000 
-5.95463e-02  3.88548e-01        00000 
-3.97572e-02  3.96121e-01        00000 
-1.92723e-02  4.00943e-01        00000 
 1.62526e-03  4.02969e-01        00000 
 2.26670e-02  4.02175e-01        00000 
 4.35893e-02  3.98557e-01        00000 
 6.41254e-02  3.92126e-01        00000 
 8.39961e-02  3.82915e-01        00000 
 1.02899e-01  3.70978e-01        00000 
 1.20497e-01  3.56398e-01        00000 
 1.36396e-01  3.39299e-01        00000 
 1.50121e-01  3.19856e-01        00000 
 1.61069e-01  2.98322e-01        00000 
 1.68442e-01  2.75061e-01        00000 
 1.71123e-01  2.50589e-01        00000 
 1.67470e-01  2.25640e-01        00000 
 1.54932e-01  2.01209e-01        00000 
 1.29364e-01  1.78448e-01        00000 
 8.49326e-02  1.57810e-01        00000 
-1.40545e-01  3.11496e-01        00000 
-1.89528e-01  3.36676e-01        00000 
-2.20381e-01  3.61936e-01        00000 
-2.36342e-01  3.87543e-01        00000 
-2.40469e-01  4.13307e-01        00000 
-2.35394e-01  4.38670e-01        00000 
-2.23148e-01  4.62998e-01        00000 
-2.05275e-01  4.85710e-01        00000 
-1.82959e-01  5.06318e-01        00000 
-1.57134e-01  5.24429e-01        00000 
-1.28554e-01  5.39738e-01        00000 
-9.78491e-02  5.52011e-01        00000 
-6.55632e-02  5.61074e-01        00000 
-3.21799e-02  5.66804e-01        00000 
 1.85572e-03  5.69120e-01        00000 
 3.61209e-02  5.67982e-01        00000 
 7.02008e-02  5.63381e-01        00000 
 1.03675e-01  5.55346e-01        00000 
 1.36105e-01  5.43945e-01        00000 
 1.67015e-01  5.29283e-01        00000 
 1.95876e-01  5.11519e-01        00000 
 2.22077e-01  4.90866e-01        00000 
 2.44892e-01  4.67609e-01        00000 
 2.63429e-01  4.42118e-01        00000 
 2.76560e-01  4.14860e-01        00000 
 2.82821e-01  3.86401e-01        00000 
 2.80281e-01  3.57381e-01        00000 
 2.66409e-01  3.28419e-01        00000 
 2.38114e-01  2.99861e-01        00000 
 1.92068e-01  2.71539e-01        00000 
-2.70163e-01  4.24428e-01        00000 
-3.13966e-01  4.56763e-01        00000 
-3.40832e-01  4.88010e-01        00000 
-3.52907e-01  5.18401e-01        00000 
-3.52385e-01  5.47888e-01        00000 
-3.41335e-01  5.76224e-01        00000 
-3.21606e-01  6.03027e-01        00000 
-2.94777e-01  6.27870e-01        00000 
-2.62176e-01  6.50336e-01        00000 
-2.24919e-01  6.70056e-01        00000 
-1.83955e-01  6.86714e-01        00000 
-1.40104e-01  7.00053e-01        00000 
-9.40905e-02  7.09874e-01        00000 
-4.65698e-02  7.16030e-01        00000 
 1.84922e-03  7.18422e-01        00000 
 5.05849e-02  7.17001e-01        00000 
 9.90653e-02  7.11761e-01        00000 
 1.46712e-01  7.02740e-01        00000 
 1.92921e-01  6.90024e-01        00000 
 2.37048e-01  6.73749e-01        00000 
 2.78380e-01  6.54101e-01        00000 
 3.16116e-01  6.31327e-01        00000 
 3.49330e-01  6.05732e-01        00000 
 3.76936e-01  5.77682e-01        00000 
 3.97640e-01  5.47594e-01        00000 
 4.09898e-01  5.15912e-01        00000 
 4.11885e-01  4.83055e-01        00000 
 4.01522e-01  4.49332e-01        00000 
 3.76568e-01  4.14860e-01        00000 
 3.34775e-01  3.79493e-01        00000 
-4.32410e-01  5.21904e-01        00000 
-4.67601e-01  5.61041e-01        00000 
-4.86428e-01  5.98284e-01        00000 
-4.90552e-01  6.33724e-01        00000 
-4.81708e-01  6.67329e-01        00000 
-4.61611e-01  6.98954e-01        00000 
-4.31891e-01  7.28365e-01        00000 
-3.94043e-01  7.55279e-01        00000 
-3.49416e-01  7.79393e-01        00000 
-2.99208e-01  8.00415e-01        00000 
-2.44489e-01  8.18081e-01        00000 
-1.86218e-01  8.32164e-01        00000 
-1.25262e-01  8.42482e-01        00000 
-6.24273e-02  8.48895e-01        00000 
 1.53140e-03  8.51310e-01        00000 
 6.58851e-02  8.49678e-01        00000 
 1.29915e-01  8.43996e-01        00000 
 1.92896e-01  8.34305e-01        00000 
 2.54074e-01  8.20691e-01        00000 
 3.12655e-01  8.03286e-01        00000 
 3.67778e-01  7.82269e-01        00000 
 4.18495e-01  7.57864e-01        00000 
 4.63751e-01  7.30336e-01        00000 
 5.02360e-01  6.99983e-01        00000 
 5.32984e-01  6.67122e-01        00000 
 5.54130e-01  6.32061e-01        00000 
 5.64157e-01  5.95065e-01        00000 
 5.61316e-01  5.56321e-01        00000 
 5.43817e-01  5.15907e-01        00000 
 5.09916e-01  4.73771e-01        00000 
-6.26069e-01  5.98909e-01        00000 
-6.50005e-01  6.44806e-01        00000 
-6.57672e-01  6.88118e-01        00000 
-6.50547e-01  7.28834e-01        00000 
-6.30157e-01  7.66895e-01        00000 
-5.98034e-01  8.02192e-01        00000 
-5.55671e-01  8.34569e-01        00000 
-5.04486e-01  8.63840e-01        00000 
-4.45809e-01  8.89800e-01        00000 
-3.80870e-01  9.12243e-01        00000 
-3.10806e-01  9.30976e-01        00000 
-2.36664e-01  9.45827e-01        00000 
-1.59420e-01  9.56652e-01        00000 
-7.99932e-02  9.63340e-01        00000 
 7.41316e-04  9.65817e-01        00000 
 8.19328e-02  9.64044e-01        00000 
 1.62740e-01  9.58019e-01        00000 
 2.42312e-01  9.47779e-01        00000 
 3.19777e-01  9.33396e-01        00000 
 3.94221e-01  9.14982e-01        00000 
 4.64671e-01  8.92681e-01        00000 
 5.30082e-01  8.66668e-01        00000 
 5.89323e-01  8.37145e-01        00000 
 6.41163e-01  8.04327e-01        00000 
 6.84267e-01  7.68437e-01        00000 
 7.17203e-01  7.29682e-01        00000 
 7.38455e-01  6.88243e-01        00000 
 7.46455e-01  6.44256e-01        00000 
 7.39621e-01  5.97807e-01        00000 
 7.16413e-01  5.48933e-01        00000 
-8.51322e-01  6.50978e-01        00000 
-8.61532e-01  7.03774e-01        00000 
-8.55262e-01  7.53310e-01        00000 
-8.33958e-01  7.99511e-01        00000 
-7.99089e-01  8.42297e-01        00000 
-7.52116e-01  8.81580e-01        00000 
-6.94472e-01  9.17254e-01        00000 
-6.27535e-01  9.49201e-01        00000 
-5.52623e-01  9.77292e-01        00000 
-4.70979e-01  1.00140e+00        00000 
-3.83779e-01  1.02139e+00        00000 
-2.92127e-01  1.03716e+00        00000 
-1.97072e-01  1.04862e+00        00000 
-9.96113e-02  1.05568e+00        00000 
-7.09299e-04  1.05829e+00        00000 
 9.86922e-02  1.05644e+00        00000 
 1.97659e-01  1.05011e+00        00000 
 2.95248e-01  1.03935e+00        00000 
 3.90498e-01  1.02419e+00        00000 
 4.82409e-01  1.00473e+00        00000 
 5.69934e-01  9.81060e-01        00000 
 6.51965e-01  9.53302e-01        00000 
 7.27325e-01  9.21590e-01        00000 
 7.94761e-01  8.86067e-01        00000 
 8.52944e-01  8.46875e-01        00000 
 9.00475e-01  8.04151e-01        00000 
 9.35897e-01  7.58019e-01        00000 
 9.57711e-01  7.08586e-01        00000 
 9.64406e-01  6.55946e-01        00000 
 9.54480e-01  6.00189e-01        00000 
-1.10919e+00  6.73403e-01        00000 
-1.10307e+00  7.33352e-01        00000 
-1.08011e+00  7.89314e-01        00000 
-1.04180e+00  8.41191e-01        00000 
-9.89621e-01  8.88910e-01        00000 
-9.25051e-01  9.32406e-01        00000 
-8.49509e-01  9.71619e-01        00000 
-7.64369e-01  1.00648e+00        00000 
-6.70947e-01  1.03694e+00        00000 
-5.70502e-01  1.06292e+00        00000 
-4.64230e-01  1.08437e+00        00000 
-3.53271e-01  1.10123e+00        00000 
-2.38717e-01  1.11344e+00        00000 
-1.21618e-01  1.12097e+00        00000 
-2.99482e-03  1.12380e+00        00000 
 1.16152e-01  1.12191e+00        00000 
 2.34825e-01  1.11531e+00        00000 
 3.52024e-01  1.10401e+00        00000 
 4.66727e-01  1.08805e+00        00000 
 5.77880e-01  1.06746e+00        00000 
 6.84391e-01  1.04231e+00        00000 
 7.85112e-01  1.01267e+00        00000 
 8.78840e-01  9.78597e-01        00000 
 9.64305e-01  9.40176e-01        00000 
 1.04018e+00  8.97481e-01        00000 
 1.10506e+00  8.50588e-01        00000 
 1.15750e+00  7.99572e-01        00000 
 1.19601e+00  7.44508e-01        00000 
 1.21907e+00  6.85481e-01        00000 
 1.22512e+00  6.22594e-01        00000 
-1.40113e+00  6.60859e-01        00000 
-1.37581e+00  7.28264e-01        00000 
-1.33324e+00  7.90866e-01        00000 
-1.27501e+00  8.48586e-01        00000 
-1.20268e+00  9.01381e-01        00000 
-1.11776e+00  9.49230e-01        00000 
-1.02168e+00  9.92120e-01        00000 
-9.15855e-01  1.03005e+00        00000 
-8.01594e-01  1.06301e+00        00000 
-6.80169e-01  1.09101e+00        00000 
-5.52790e-01  1.11404e+00        00000 
-4.20614e-01  1.13209e+00        00000 
-2.84754e-01  1.14516e+00        00000 
-1.46285e-01  1.15324e+00        00000 
-6.25478e-03  1.15635e+00        00000 
 1.34305e-01  1.15446e+00        00000 
 2.74367e-01  1.14760e+00        00000 
 4.12900e-01  1.13576e+00        00000 
 5.48853e-01  1.11896e+00        00000 
 6.81148e-01  1.09720e+00        00000 
 8.08667e-01  1.07051e+00        00000 
 9.30246e-01  1.03889e+00        00000 
 1.04467e+00  1.00236e+00        00000 
 1.15065e+00  9.60935e-01        00000 
 1.24684e+00  9.14625e-01        00000 
 1.33185e+00  8.63445e-01        00000 
 1.40421e+00  8.07416e-01        00000 
 1.46237e+00  7.46566e-01        00000 
 1.50476e+00  6.80948e-01        00000 
 1.52975e+00  6.10639e-01        00000 
-1.72880e+00  6.07203e-01        00000 
-1.68101e+00  6.82366e-01        00000 
-1.61564e+00  7.51800e-01        00000 
-1.53442e+00  8.15483e-01        00000 
-1.43898e+00  8.73431e-01        00000 
-1.33088e+00  9.25684e-01        00000 
-1.21160e+00  9.72296e-01        00000 
-1.08255e+00  1.01333e+00        00000 
-9.45076e-01  1.04884e+00        00000 
-8.00443e-01  1.07890e+00        00000 
-6.49862e-01  1.10356e+00        00000 
-4.94492e-01  1.12285e+00        00000 
-3.35444e-01  1.13682e+00        00000 
-1.73793e-01  1.14550e+00        00000 
-1.05874e-02  1.14891e+00        00000 
 1.53138e-01  1.14706e+00        00000 
 3.16357e-01  1.13995e+00        00000 
 4.78033e-01  1.12759e+00        00000 
 6.37116e-01  1.10996e+00        00000 
 7.92526e-01  1.08703e+00        00000 
 9.43146e-01  1.05879e+00        00000 
 1.08781e+00  1.02519e+00        00000 
 1.22530e+00  9.86191e-01        00000 
 1.35434e+00  9.41746e-01        00000 
 1.47356e+00  8.91799e-01        00000 
 1.58155e+00  8.36297e-01        00000 
 1.67681e+00  7.75193e-01        00000 
 1.75774e+00  7.08451e-01        00000 
 1.82270e+00  6.36060e-01        00000 
 1.86995e+00  5.58042e-01        00000 
-2.09374e+00  5.05379e-01        00000 
-2.01981e+00  5.88558e-01        00000 
-1.92817e+00  6.64962e-01        00000 
-1.82066e+00  7.34661e-01        00000 
-1.69899e+00  7.97757e-01        00000 
-1.56477e+00  8.54378e-01        00000 
-1.41954e+00  9.04661e-01        00000 
-1.26471e+00  9.48745e-01        00000 
-1.10161e+00  9.86764e-01        00000 
-9.31520e-01  1.01884e+00        00000 
-7.55621e-01  1.04510e+00        00000 
-5.75055e-01  1.06562e+00        00000 
-3.90909e-01  1.08049e+00        00000 
-2.04233e-01  1.08977e+00        00000 
-1.60513e-02  1.09350e+00        00000 
 1.72629e-01  1.09170e+00        00000 
 3.60804e-01  1.08438e+00        00000 
 5.47467e-01  1.07152e+00        00000 
 7.31590e-01  1.05310e+00        00000 
 9.12120e-01  1.02905e+00        00000 
 1.08796e+00  9.99317e-01        00000 
 1.25797e+00  9.63804e-01        00000 
 1.42095e+00  9.22411e-01        00000 
 1.57563e+00  8.75021e-01        00000 
 1.72065e+00  8.21506e-01        00000 
 1.85457e+00  7.61733e-01        00000 
 1.97588e+00  6.95571e-01        00000 
 2.08293e+00  6.22898e-01        00000 
 2.17398e+00  5.43611e-01        00000 
 2.24720e+00  4.57640e-01        00000 
-2.49724e+00  3.47385e-01        00000 
-2.39308e+00  4.38753e-01        00000 
-2.27136e+00  5.22176e-01        00000 
-2.13401e+00  5.97851e-01        00000 
-1.98284e+00  6.66001e-01        00000 
-1.81948e+00  7.26863e-01        00000 
-1.64549e+00  7.80676e-01        00000 
-1.46227e+00  8.27672e-01        00000 
-1.27114e+00  8.68068e-01        00000 
-1.07334e+00  9.02062e-01        00000 
-8.70023e-01  9.29828e-01        00000 
-6.62276e-01  9.51512e-01        00000 
-4.51140e-01  9.67236e-01        00000 
-2.37614e-01  9.77088e-01        00000 
-2.26702e-02  9.81132e-01        00000 
 1.92737e-01  9.79401e-01        00000 
 4.07657e-01  9.71900e-01        00000 
 6.21133e-01  9.58603e-01        00000 
 8.32193e-01  9.39458e-01        00000 
 1.03983e+00  9.14383e-01        00000 
 1.24301e+00  8.83266e-01        00000 
 1.44062e+00  8.45969e-01        00000 
 1.63152e+00  8.02326e-01        00000 
 1.81445e+00  7.52146e-01        00000 
 1.98809e+00  6.95218e-01        00000 
 2.15102e+00  6.31316e-01        00000 
 2.30168e+00  5.60205e-01        00000 
 2.43841e+00  4.81651e-01        00000 
 2.55940e+00  3.95431e-01        00000 
 2.66272e+00  3.01351e-01        00000 
-2.94012e+00  1.24272e-01        00000 
-2.80123e+00  2.23877e-01        00000 
-2.64531e+00  3.14249e-01        00000 
-2.47437e+00  3.95749e-01        00000 
-2.29027e+00  4.68750e-01        00000 
-2.09465e+00  5.33628e-01        00000 
-1.88905e+00  5.90745e-01        00000 
-1.67485e+00  6.40439e-01        00000 
-1.45332e+00  6.83022e-01        00000 
-1.22561e+00  7.18768e-01        00000 
-9.92826e-01  7.47916e-01        00000 
-7.55973e-01  7.70664e-01        00000 
-5.16015e-01  7.87171e-01        00000 
-2.73873e-01  7.97557e-01        00000 
-3.04392e-02  8.01901e-01        00000 
 2.13410e-01  8.00248e-01        00000 
 4.56804e-01  7.92600e-01        00000 
 6.98865e-01  7.78924e-01        00000 
 9.38699e-01  7.59147e-01        00000 
 1.17538e+00  7.33159e-01        00000 
 1.40795e+00  7.00808e-01        00000 
 1.63538e+00  6.61903e-01        00000 
 1.85658e+00  6.16214e-01        00000 
 2.07038e+00  5.63471e-01        00000 
 2.27551e+00  5.03370e-01        00000 
 2.47057e+00  4.35575e-01        00000 
 2.65404e+00  3.59729e-01        00000 
 2.82423e+00  2.75459e-01        00000 
 2.97931e+00  1.82392e-01        00000 
 3.11726e+00  8.01671e-02        00000 
-3.42255e+00 -1.73812e-01        00000 
-3.24404e+00 -6.60887e-02        00000 
-3.04952e+00  3.10066e-02        00000 
-2.84107e+00  1.18039e-01        00000 
-2.62052e+00  1.95571e-01        00000 
-2.38951e+00  2.64142e-01        00000 
-2.14949e+00  3.24257e-01        00000 
-1.90177e+00  3.76378e-01        00000 
-1.64753e+00  4.20915e-01        00000 
-1.38782e+00  4.58226e-01        00000 
-1.12362e+00  4.88610e-01        00000 
-8.55839e-01  5.12315e-01        00000 
-5.85325e-01  5.29534e-01        00000 
-3.12894e-01  5.40410e-01        00000 
-3.93326e-02  5.45039e-01        00000 
 2.34586e-01  5.43470e-01        00000 
 5.08093e-01  5.35706e-01        00000 
 7.80415e-01  5.21707e-01        00000 
 1.05076e+00  5.01384e-01        00000 
 1.31832e+00  4.74603e-01        00000 
 1.58223e+00  4.41176e-01        00000 
 1.84159e+00  4.00863e-01        00000 
 2.09541e+00  3.53371e-01        00000 
 2.34264e+00  2.98348e-01        00000 
 2.58208e+00  2.35389e-01        00000 
 2.81244e+00  1.64036e-01        00000 
 3.03225e+00  8.37875e-02        00000 
 3.23986e+00 -5.89521e-03        00000 
 3.43344e+00 -1.05572e-01        00000 
 3.61091e+00 -2.15809e-01        00000 
-3.94382e+00 -5.57562e-01        00000 
-3.72047e+00 -4.42052e-01        00000 
-3.48277e+00 -3.38651e-01        00000 
-3.23277e+00 -2.46540e-01        00000 
-2.97226e+00 -1.64931e-01        00000 
-2.70277e+00 -9.30884e-02        00000 
-2.42564e+00 -3.03431e-02        00000 
-2.14202e+00  2.38990e-02        00000 
-1.85293e+00  7.01519e-02        00000 
-1.55928e+00  1.08849e-01        00000 
-1.26188e+00  1.40347e-01        00000 
-9.61482e-01  1.64930e-01        00000 
-6.58808e-01  1.82815e-01        00000 
-3.54531e-01  1.94159e-01        00000 
-4.93134e-02  1.99065e-01        00000 
 2.56195e-01  1.97586e-01        00000 
 5.61346e-01  1.89723e-01        00000 
 8.65489e-01  1.75434e-01        00000 
 1.16796e+00  1.54621e-01        00000 
 1.46808e+00  1.27135e-01        00000 
 1.76514e+00  9.27640e-02        00000 
 2.05838e+00  5.12308e-02        00000 
 2.34698e+00  2.18464e-03        00000 
 2.63002e+00 -5.48032e-02        00000 
 2.90650e+00 -1.20242e-01        00000 
 3.17525e+00 -1.94723e-01        00000 
 3.43493e+00 -2.78911e-01        00000 
 3.68400e+00 -3.73540e-01        00000 
 3.92068e+00 -4.79398e-01        00000 
 4.14291e+00 -5.97303e-01        00000 
-4.50210e+00 -1.03841e+00        00000 
-4.22846e+00 -9.15711e-01        00000 
-3.94289e+00 -8.06657e-01        00000 
-3.64736e+00 -7.10113e-01        00000 
-3.34351e+00 -6.25019e-01        00000 
-3.03267e+00 -5.50412e-01        00000 
-2.71597e+00 -4.85442e-01        00000 
-2.39432e+00 -4.29378e-01        00000 
-2.06850e+00 -3.81610e-01        00000 
-1.73920e+00 -3.41640e-01        00000 
-1.40701e+00 -3.09075e-01        00000 
-1.07250e+00 -2.83618e-01        00000 
-7.36208e-01 -2.65046e-01        00000 
-3.98648e-01 -2.53207e-01        00000 
-6.03469e-02 -2.48005e-01        00000 
 2.78176e-01 -2.49392e-01        00000 
 6.16401e-01 -2.57364e-01        00000 