<?xml version="1.0" encoding="utf-8"?>
<VTKFile byte_order="LittleEndian" type="UnstructuredGrid" version="0.1">
   <UnstructuredGrid>
      <Piece NumberOfCells="3364" NumberOfPoints="1741">
         <Points>
            <DataArray Name="Points" NumberOfComponents="3" format="ascii" type="Float32">
0.0000 1.0000 0.0000
0.0000 1.0345 0.0000
0.0000 1.0690 0.0000
0.0000 1.1034 0.0000
0.0000 1.1379 0.0000
0.0000 1.1724 0.0000
0.0000 1.2069 0.0000
0.0000 1.2414 0.0000
0.0000 1.2759 0.0000
0.0000 1.3103 0.0000
0.0000 1.3448 0.0000
0.0000 1.3793 0.0000
0.0000 1.4138 0.0000
0.0000 1.4483 0.0000
0.0000 1.4828 0.0000
0.0000 1.5172 0.0000
0.0000 1.5517 0.0000
0.0000 1.5862 0.0000
0.0000 1.6207 0.0000
0.0000 1.6552 0.0000
0.0000 1.6897 0.0000
0.0000 1.7241 0.0000
0.0000 1.7586 0.0000
0.0000 1.7931 0.0000
0.0000 1.8276 0.0000
0.0000 1.8621 0.0000
0.0000 1.8966 0.0000
0.0000 1.9310 0.0000
0.0000 1.9655 0.0000
0.0000 2.0000 0.0000
0.0690 1.0000 0.0000
0.0690 1.0345 0.0000
0.0690 1.0690 0.0000
0.0690 1.1034 0.0000
0.0690 1.1379 0.0000
0.0690 1.1724 0.0000
0.0690 1.2069 0.0000
0.0690 1.2414 0.0000
0.0690 1.2759 0.0000
0.0690 1.3103 0.0000
0.0690 1.3448 0.0000
0.0690 1.3793 0.0000
0.0690 1.4138 0.0000
0.0690 1.4483 0.0000
0.0690 1.4828 0.0000
0.0690 1.5172 0.0000
0.0690 1.5517 0.0000
0.0690 1.5862 0.0000
0.0690 1.6207 0.0000
0.0690 1.6552 0.0000
0.0690 1.6897 0.0000
0.0690 1.7241 0.0000
0.0690 1.7586 0.0000
0.0690 1.7931 0.0000
0.0690 1.8276 0.0000
0.0690 1.8621 0.0000
0.0690 1.8966 0.0000
0.0690 1.9310 0.0000
0.0690 1.9655 0.0000
0.0690 2.0000 0.0000
0.1379 1.0000 0.0000
0.1379 1.0345 0.0000
0.1379 1.0690 0.0000
0.1379 1.1034 0.0000
0.1379 1.1379 0.0000
0.1379 1.1724 0.0000
0.1379 1.2069 0.0000
0.1379 1.2414 0.0000
0.1379 1.2759 0.0000
0.1379 1.3103 0.0000
0.1379 1.3448 0.0000
0.1379 1.3793 0.0000
0.1379 1.4138 0.0000
0.1379 1.4483 0.0000
0.1379 1.4828 0.0000
0.1379 1.5172 0.0000
0.1379 1.5517 0.0000
0.1379 1.5862 0.0000
0.1379 1.6207 0.0000
0.1379 1.6552 0.0000
0.1379 1.6897 0.0000
0.1379 1.7241 0.0000
0.1379 1.7586 0.0000
0.1379 1.7931 0.0000
0.1379 1.8276 0.0000
0.1379 1.8621 0.0000
0.1379 1.8966 0.0000
0.1379 1.9310 0.0000
0.1379 1.9655 0.0000
0.1379 2.0000 0.0000
0.2069 1.0000 0.0000
0.2069 1.0345 0.0000
0.2069 1.0690 0.0000
0.2069 1.1034 0.0000
0.2069 1.1379 0.0000
0.2069 1.1724 0.0000
0.2069 1.2069 0.0000
0.2069 1.2414 0.0000
0.2069 1.2759 0.0000
0.2069 1.3103 0.0000
0.2069 1.3448 0.0000
0.2069 1.3793 0.0000
0.2069 1.4138 0.0000
0.2069 1.4483 0.0000
0.2069 1.4828 0.0000
0.2069 1.5172 0.0000
0.2069 1.5517 0.0000
0.2069 1.5862 0.0000
0.2069 1.6207 0.0000
0.2069 1.6552 0.0000
0.2069 1.6897 0.0000
0.2069 1.7241 0.0000
0.2069 1.7586 0.0000
0.2069 1.7931 0.0000
0.2069 1.8276 0.0000
0.2069 1.8621 0.0000
0.2069 1.8966 0.0000
0.2069 1.9310 0.0000
0.2069 1.9655 0.0000
0.2069 2.0000 0.0000
0.2759 1.0000 0.0000
0.2759 1.0345 0.0000
0.2759 1.0690 0.0000
0.2759 1.1034 0.0000
0.2759 1.1379 0.0000
0.2759 1.1724 0.0000
0.2759 1.2069 0.0000
0.2759 1.2414 0.0000
0.2759 1.2759 0.0000
0.2759 1.3103 0.0000
0.2759 1.3448 0.0000
0.2759 1.3793 0.0000
0.2759 1.4138 0.0000
0.2759 1.4483 0.0000
0.2759 1.4828 0.0000
0.2759 1.5172 0.0000
0.2759 1.5517 0.0000
0.2759 1.5862 0.0000
0.2759 1.6207 0.0000
0.2759 1.6552 0.0000
0.2759 1.6897 0.0000
0.2759 1.7241 0.0000
0.2759 1.7586 0.0000
0.2759 1.7931 0.0000
0.2759 1.8276 0.0000
0.2759 1.8621 0.0000
0.2759 1.8966 0.0000
0.2759 1.9310 0.0000
0.2759 1.9655 0.0000
0.2759 2.0000 0.0000
0.3448 1.0000 0.0000
0.3448 1.0345 0.0000
0.3448 1.0690 0.0000
0.3448 1.1034 0.0000
0.3448 1.1379 0.0000
0.3448 1.1724 0.0000
0.3448 1.2069 0.0000
0.3448 1.2414 0.0000
0.3448 1.2759 0.0000
0.3448 1.3103 0.0000
0.3448 1.3448 0.0000
0.3448 1.3793 0.0000
0.3448 1.4138 0.0000
0.3448 1.4483 0.0000
0.3448 1.4828 0.0000
0.3448 1.5172 0.0000
0.3448 1.5517 0.0000
0.3448 1.5862 0.0000
0.3448 1.6207 0.0000
0.3448 1.6552 0.0000
0.3448 1.6897 0.0000
0.3448 1.7241 0.0000
0.3448 1.7586 0.0000
0.3448 1.7931 0.0000
0.3448 1.8276 0.0000
0.3448 1.8621 0.0000
0.3448 1.8966 0.0000
0.3448 1.9310 0.0000
0.3448 1.9655 0.0000
0.3448 2.0000 0.0000
0.4138 1.0000 0.0000
0.4138 1.0345 0.0000
0.4138 1.0690 0.0000
0.4138 1.1034 0.0000
0.4138 1.1379 0.0000
0.4138 1.1724 0.0000
0.4138 1.2069 0.0000
0.4138 1.2414 0.0000
0.4138 1.2759 0.0000
0.4138 1.3103 0.0000
0.4138 1.3448 0.0000
0.4138 1.3793 0.0000
0.4138 1.4138 0.0000
0.4138 1.4483 0.0000
0.4138 1.4828 0.0000
0.4138 1.5172 0.0000
0.4138 1.5517 0.0000
0.4138 1.5862 0.0000
0.4138 1.6207 0.0000
0.4138 1.6552 0.0000
0.4138 1.6897 0.0000
0.4138 1.7241 0.0000
0.4138 1.7586 0.0000
0.4138 1.7931 0.0000
0.4138 1.8276 0.0000
0.4138 1.8621 0.0000
0.4138 1.8966 0.0000
0.4138 1.9310 0.0000
0.4138 1.9655 0.0000
0.4138 2.0000 0.0000
0.4828 1.0000 0.0000
0.4828 1.0345 0.0000
0.4828 1.0690 0.0000
0.4828 1.1034 0.0000
0.4828 1.1379 0.0000
0.4828 1.1724 0.0000
0.4828 1.2069 0.0000
0.4828 1.2414 0.0000
0.4828 1.2759 0.0000
0.4828 1.3103 0.0000
0.4828 1.3448 0.0000
0.4828 1.3793 0.0000
0.4828 1.4138 0.0000
0.4828 1.4483 0.0000
0.4828 1.4828 0.0000
0.4828 1.5172 0.0000
0.4828 1.5517 0.0000
0.4828 1.5862 0.0000
0.4828 1.6207 0.0000
0.4828 1.6552 0.0000
0.4828 1.6897 0.0000
0.4828 1.7241 0.0000
0.4828 1.7586 0.0000
0.4828 1.7931 0.0000
0.4828 1.8276 0.0000
0.4828 1.8621 0.0000
0.4828 1.8966 0.0000
0.4828 1.9310 0.0000
0.4828 1.9655 0.0000
0.4828 2.0000 0.0000
0.5517 1.0000 0.0000
0.5517 1.0345 0.0000
0.5517 1.0690 0.0000
0.5517 1.1034 0.0000
0.5517 1.1379 0.0000
0.5517 1.1724 0.0000
0.5517 1.2069 0.0000
0.5517 1.2414 0.0000
0.5517 1.2759 0.0000
0.5517 1.3103 0.0000
0.5517 1.3448 0.0000
0.5517 1.3793 0.0000
0.5517 1.4138 0.0000
0.5517 1.4483 0.0000
0.5517 1.4828 0.0000
0.5517 1.5172 0.0000
0.5517 1.5517 0.0000
0.5517 1.5862 0.0000
0.5517 1.6207 0.0000
0.5517 1.6552 0.0000
0.5517 1.6897 0.0000
0.5517 1.7241 0.0000
0.5517 1.7586 0.0000
0.5517 1.7931 0.0000
0.5517 1.8276 0.0000
0.5517 1.8621 0.0000
0.5517 1.8966 0.0000
0.5517 1.9310 0.0000
0.5517 1.9655 0.0000
0.5517 2.0000 0.0000
0.6207 1.0000 0.0000
0.6207 1.0345 0.0000
0.6207 1.0690 0.0000
0.6207 1.1034 0.0000
0.6207 1.1379 0.0000
0.6207 1.1724 0.0000
0.6207 1.2069 0.0000
0.6207 1.2414 0.0000
0.6207 1.2759 0.0000
0.6207 1.3103 0.0000
0.6207 1.3448 0.0000
0.6207 1.3793 0.0000
0.6207 1.4138 0.0000
0.6207 1.4483 0.0000
0.6207 1.4828 0.0000
0.6207 1.5172 0.0000
0.6207 1.5517 0.0000
0.6207 1.5862 0.0000
0.6207 1.6207 0.0000
0.6207 1.6552 0.0000
0.6207 1.6897 0.0000
0.6207 1.7241 0.0000
0.6207 1.7586 0.0000
0.6207 1.7931 0.0000
0.6207 1.8276 0.0000
0.6207 1.8621 0.0000
0.6207 1.8966 0.0000
0.6207 1.9310 0.0000
0.6207 1.9655 0.0000
0.6207 2.0000 0.0000
0.6897 1.0000 0.0000
0.6897 1.0345 0.0000
0.6897 1.0690 0.0000
0.6897 1.1034 0.0000
0.6897 1.1379 0.0000
0.6897 1.1724 0.0000
0.6897 1.2069 0.0000
0.6897 1.2414 0.0000
0.6897 1.2759 0.0000
0.6897 1.3103 0.0000
0.6897 1.3448 0.0000
0.6897 1.3793 0.0000
0.6897 1.4138 0.0000
0.6897 1.4483 0.0000
0.6897 1.4828 0.0000
0.6897 1.5172 0.0000
0.6897 1.5517 0.0000
0.6897 1.5862 0.0000
0.6897 1.6207 0.0000
0.6897 1.6552 0.0000
0.6897 1.6897 0.0000
0.6897 1.7241 0.0000
0.6897 1.7586 0.0000
0.6897 1.7931 0.0000
0.6897 1.8276 0.0000
0.6897 1.8621 0.0000
0.6897 1.8966 0.0000
0.6897 1.9310 0.0000
0.6897 1.9655 0.0000
0.6897 2.0000 0.0000
0.7586 1.0000 0.0000
0.7586 1.0345 0.0000
0.7586 1.0690 0.0000
0.7586 1.1034 0.0000
0.7586 1.1379 0.0000
0.7586 1.1724 0.0000
0.7586 1.2069 0.0000
0.7586 1.2414 0.0000
0.7586 1.2759 0.0000
0.7586 1.3103 0.0000
0.7586 1.3448 0.0000
0.7586 1.3793 0.0000
0.7586 1.4138 0.0000
0.7586 1.4483 0.0000
0.7586 1.4828 0.0000
0.7586 1.5172 0.0000
0.7586 1.5517 0.0000
0.7586 1.5862 0.0000
0.7586 1.6207 0.0000
0.7586 1.6552 0.0000
0.7586 1.6897 0.0000
0.7586 1.7241 0.0000
0.7586 1.7586 0.0000
0.7586 1.7931 0.0000
0.7586 1.8276 0.0000
0.7586 1.8621 0.0000
0.7586 1.8966 0.0000
0.7586 1.9310 0.0000
0.7586 1.9655 0.0000
0.7586 2.0000 0.0000
0.8276 1.0000 0.0000
0.8276 1.0345 0.0000
0.8276 1.0690 0.0000
0.8276 1.1034 0.0000
0.8276 1.1379 0.0000
0.8276 1.1724 0.0000
0.8276 1.2069 0.0000
0.8276 1.2414 0.0000
0.8276 1.2759 0.0000
0.8276 1.3103 0.0000
0.8276 1.3448 0.0000
0.8276 1.3793 0.0000
0.8276 1.4138 0.0000
0.8276 1.4483 0.0000
0.8276 1.4828 0.0000
0.8276 1.5172 0.0000
0.8276 1.5517 0.0000
0.8276 1.5862 0.0000
0.8276 1.6207 0.0000
0.8276 1.6552 0.0000
0.8276 1.6897 0.0000
0.8276 1.7241 0.0000
0.8276 1.7586 0.0000
0.8276 1.7931 0.0000
0.8276 1.8276 0.0000
0.8276 1.8621 0.0000
0.8276 1.8966 0.0000
0.8276 1.9310 0.0000
0.8276 1.9655 0.0000
0.8276 2.0000 0.0000
0.8966 1.0000 0.0000
0.8966 1.0345 0.0000
0.8966 1.0690 0.0000
0.8966 1.1034 0.0000
0.8966 1.1379 0.0000
0.8966 1.1724 0.0000
0.8966 1.2069 0.0000
0.8966 1.2414 0.0000
0.8966 1.2759 0.0000
0.8966 1.3103 0.0000
0.8966 1.3448 0.0000
0.8966 1.3793 0.0000
0.8966 1.4138 0.0000
0.8966 1.4483 0.0000
0.8966 1.4828 0.0000
0.8966 1.5172 0.0000
0.8966 1.5517 0.0000
0.8966 1.5862 0.0000
0.8966 1.6207 0.0000
0.8966 1.6552 0.0000
0.8966 1.6897 0.0000
0.8966 1.7241 0.0000
0.8966 1.7586 0.0000
0.8966 1.7931 0.0000
0.8966 1.8276 0.0000
0.8966 1.8621 0.0000
0.8966 1.8966 0.0000
0.8966 1.9310 0.0000
0.8966 1.9655 0.0000
0.8966 2.0000 0.0000
0.9655 1.0000 0.0000
0.9655 1.0345 0.0000
0.9655 1.0690 0.0000
0.9655 1.1034 0.0000
0.9655 1.1379 0.0000
0.9655 1.1724 0.0000
0.9655 1.2069 0.0000
0.9655 1.2414 0.0000
0.9655 1.2759 0.0000
0.9655 1.3103 0.0000
0.9655 1.3448 0.0000
0.9655 1.3793 0.0000
0.9655 1.4138 0.0000
0.9655 1.4483 0.0000
0.9655 1.4828 0.0000
0.9655 1.5172 0.0000
0.9655 1.5517 0.0000
0.9655 1.5862 0.0000
0.9655 1.6207 0.0000
0.9655 1.6552 0.0000
0.9655 1.6897 0.0000
0.9655 1.7241 0.0000
0.9655 1.7586 0.0000
0.9655 1.7931 0.0000
0.9655 1.8276 0.0000
0.9655 1.8621 0.0000
0.9655 1.8966 0.0000
0.9655 1.9310 0.0000
0.9655 1.9655 0.0000
0.9655 2.0000 0.0000
1.0345 1.0000 0.0000
1.0345 1.0345 0.0000
1.0345 1.0690 0.0000
1.0345 1.1034 0.0000
1.0345 1.1379 0.0000
1.0345 1.1724 0.0000
1.0345 1.2069 0.0000
1.0345 1.2414 0.0000
1.0345 1.2759 0.0000
1.0345 1.3103 0.0000
1.0345 1.3448 0.0000
[...]
         <PointData>
            <DataArray Name="fValues" NumberOfComponents="3" format="ascii" type="Float64">
 4.46618e-19  1.64305e-18        00000 
 7.35924e-18  8.83109e-18        00000 
 5.09416e-18  1.45548e-18        00000 
-2.24016e-18 -1.46296e-18        00000 
-2.18321e-18  3.49314e-17        00000 
-1.43815e-18 -4.40315e-18        00000 
-6.54964e-18  4.65752e-17        00000 
 6.40044e-19 -3.09050e-17        00000 
-1.45548e-18  5.82190e-18        00000 
 1.30766e-18  1.72633e-17        00000 
-7.27738e-19  1.45548e-17        00000 
-2.51446e-18 -1.02407e-17        00000 
-7.27738e-19  2.32876e-17        00000 
-1.20111e-18  2.40444e-18        00000 
 2.72902e-19  1.74657e-17        00000 
 1.68012e-18  1.06065e-17        00000 
 1.45548e-18 -3.49314e-17        00000 
-7.25734e-18  3.95408e-17        00000 
 6.54964e-18 -2.32876e-17        00000 
-4.16029e-18  1.11551e-17        00000 
 6.54964e-18 -5.82190e-18        00000 
-1.37486e-17 -6.99951e-18        00000 
 3.63869e-18 -2.03767e-17        00000 
 5.30323e-18  5.50438e-17        00000 
 2.91095e-18 -1.74657e-17        00000 
-9.41096e-18  5.52312e-18        00000 
-2.18321e-18 -1.01883e-17        00000 
 1.26416e-17  1.38324e-17        00000 
 3.21116e-18 -1.19272e-17        00000 
 4.01074e-18  8.75803e-18        00000 
-2.40581e-03  7.47699e-02        00000 
-3.96928e-02  8.45480e-02        00000 
-5.70923e-02  1.00065e-01        00000 
-6.54639e-02  1.17498e-01        00000 
-6.85091e-02  1.34988e-01        00000 
-6.80253e-02  1.51638e-01        00000 
-6.50273e-02  1.66997e-01        00000 
-6.01525e-02  1.80826e-01        00000 
-5.38360e-02  1.93000e-01        00000 
-4.63965e-02  2.03446e-01        00000 
-3.80814e-02  2.12125e-01        00000 
-2.90931e-02  2.19013e-01        00000 
-1.96045e-02  2.24097e-01        00000 
-9.76934e-03  2.27366e-01        00000 
 2.70825e-04  2.28818e-01        00000 
 1.03812e-02  2.28446e-01        00000 
 2.04295e-02  2.26249e-01        00000 
 3.02814e-02  2.22225e-01        00000 
 3.97970e-02  2.16373e-01        00000 
 4.88248e-02  2.08697e-01        00000 
 5.71958e-02  1.99199e-01        00000 
 6.47138e-02  1.87895e-01        00000 
 7.11409e-02  1.74808e-01        00000 
 7.61745e-02  1.59987e-01        00000 
 7.94065e-02  1.43528e-01        00000 
 8.02487e-02  1.25611e-01        00000 
 7.77827e-02  1.06597e-01        00000 
 7.04228e-02  8.72084e-02        00000 
 5.50268e-02  6.89609e-02        00000 
 2.32397e-02  5.50473e-02        00000 
-5.97693e-02  1.94698e-01        00000 
-1.10041e-01  2.14074e-01        00000 
-1.39412e-01  2.35368e-01        00000 
-1.53933e-01  2.58640e-01        00000 
-1.58433e-01  2.82712e-01        00000 
-1.55874e-01  3.06488e-01        00000 
-1.48140e-01  3.29140e-01        00000 
-1.36497e-01  3.50078e-01        00000 
-1.21841e-01  3.68890e-01        00000 
-1.04839e-01  3.85285e-01        00000 
-8.60112e-02  3.99062e-01        00000 
-6.57828e-02  4.10079e-01        00000 
-4.45154e-02  4.18236e-01        00000 
-2.25288e-02  4.23467e-01        00000 
-1.16273e-04  4.25729e-01        00000 
 2.24441e-02  4.25000e-01        00000 
 4.48794e-02  4.21274e-01        00000 
 6.69131e-02  4.14564e-01        00000 
 8.82555e-02  4.04901e-01        00000 
 1.08593e-01  3.92340e-01        00000 
 1.27572e-01  3.76962e-01        00000 
 1.44782e-01  3.58892e-01        00000 
 1.59723e-01  3.38308e-01        00000 
 1.71763e-01  3.15468e-01        00000 
 1.80057e-01  2.90743e-01        00000 
 1.83429e-01  2.64669e-01        00000 
 1.80137e-01  2.38009e-01        00000 
 1.67481e-01  2.11803e-01        00000 
 1.41067e-01  1.87269e-01        00000 
 9.46394e-02  1.64913e-01        00000 
-1.63260e-01  3.20529e-01        00000 
-2.13712e-01  3.48153e-01        00000 
-2.45020e-01  3.75760e-01        00000 
-2.60660e-01  4.03645e-01        00000 
-2.63899e-01  4.31589e-01        00000 
-2.57522e-01  4.59005e-01        00000 
-2.43666e-01  4.85234e-01        00000 
-2.23952e-01  5.09674e-01        00000 
-1.99622e-01  5.31821e-01        00000 
-1.71650e-01  5.51275e-01        00000 
-1.40825e-01  5.67723e-01        00000 
-1.07802e-01  5.80928e-01        00000 
-7.31450e-02  5.90714e-01        00000 
-3.73559e-02  5.96956e-01        00000 
-8.95090e-04  5.99575e-01        00000 
 3.58005e-02  5.98528e-01        00000 
 7.23021e-02  5.93810e-01        00000 
 1.08175e-01  5.85450e-01        00000 
 1.42964e-01  5.73514e-01        00000 
 1.76176e-01  5.58115e-01        00000 
 2.07259e-01  5.39410e-01        00000 
 2.35576e-01  5.17620e-01        00000 
 2.60366e-01  4.93038e-01        00000 
 2.80690e-01  4.66045e-01        00000 
 2.95360e-01  4.37123e-01        00000 
 3.02827e-01  4.06860e-01        00000 
 3.01045e-01  3.75924e-01        00000 
 2.87326e-01  3.44956e-01        00000 
 2.58369e-01  3.14317e-01        00000 
 2.10616e-01  2.83806e-01        00000 
-3.04941e-01  4.36915e-01        00000 
-3.49536e-01  4.72079e-01        00000 
-3.76279e-01  5.05972e-01        00000 
-3.87475e-01  5.38853e-01        00000 
-3.85467e-01  5.70684e-01        00000 
-3.72453e-01  6.01210e-01        00000 
-3.50387e-01  6.30035e-01        00000 
-3.20932e-01  6.56719e-01        00000 
-2.85483e-01  6.80833e-01        00000 
-2.45206e-01  7.01997e-01        00000 
-2.01092e-01  7.19887e-01        00000 
-1.53994e-01  7.34240e-01        00000 
-1.04663e-01  7.44853e-01        00000 
-5.37782e-02  7.51577e-01        00000 
-1.96942e-03  7.54311e-01        00000 
 5.01629e-02  7.53005e-01        00000 
 1.02028e-01  7.47654e-01        00000 
 1.53029e-01  7.38297e-01        00000 
 2.02540e-01  7.25024e-01        00000 
 2.49891e-01  7.07972e-01        00000 
 2.94344e-01  6.87334e-01        00000 
 3.35061e-01  6.63363e-01        00000 
 3.71074e-01  6.36373e-01        00000 
 4.01243e-01  6.06741e-01        00000 
 4.24205e-01  5.74896e-01        00000 
 4.38330e-01  5.41296e-01        00000 
 4.41685e-01  5.06368e-01        00000 
 4.32061e-01  4.70425e-01        00000 
 4.07075e-01  4.33567e-01        00000 
 3.64329e-01  3.95616e-01        00000 
-4.81045e-01  5.36010e-01        00000 
-5.16048e-01  5.78319e-01        00000 
-5.33872e-01  6.18481e-01        00000 
-5.36291e-01  6.56617e-01        00000 
-5.25152e-01  6.92716e-01        00000 
-5.02274e-01  7.26638e-01        00000 
-4.69375e-01  7.58151e-01        00000 
-4.28032e-01  7.86967e-01        00000 
-3.79655e-01  8.12779e-01        00000 
-3.25500e-01  8.35287e-01        00000 
-2.66680e-01  8.54222e-01        00000 
-2.04191e-01  8.69352e-01        00000 
-1.38935e-01  8.80491e-01        00000 
-7.17419e-02  8.87497e-01        00000 
-3.39375e-03  8.90275e-01        00000 
 6.53579e-02  8.88776e-01        00000 
 1.33772e-01  8.82995e-01        00000 
 2.01098e-01  8.72977e-01        00000 
 2.66560e-01  8.58808e-01        00000 
 3.29333e-01  8.40625e-01        00000 
 3.88524e-01  8.18610e-01        00000 
 4.43148e-01  7.92992e-01        00000 
 4.92103e-01  7.64043e-01        00000 
 5.34146e-01  7.32066e-01        00000 
 5.67876e-01  6.97382e-01        00000 
 5.91719e-01  6.60301e-01        00000 
 6.03944e-01  6.21086e-01        00000 
 6.02704e-01  5.79913e-01        00000 
 5.86101e-01  5.36836e-01        00000 
 5.52284e-01  4.91772e-01        00000 
-6.90112e-01  6.12321e-01        00000 
-7.12660e-01  6.61689e-01        00000 
-7.18218e-01  7.08166e-01        00000 
-7.08350e-01  7.51770e-01        00000 
-6.84671e-01  7.92466e-01        00000 
-6.48795e-01  8.30162e-01        00000 
-6.02288e-01  8.64710e-01        00000 
-5.46640e-01  8.95930e-01        00000 
-4.83237e-01  9.23617e-01        00000 
-4.13364e-01  9.47566e-01        00000 
-3.38200e-01  9.67581e-01        00000 
-2.58833e-01  9.83489e-01        00000 
-1.76272e-01  9.95145e-01        00000 
-9.14648e-02  1.00244e+00        00000 
-5.31457e-03  1.00529e+00        00000 
 8.13023e-02  1.00366e+00        00000 
 1.67519e-01  9.97545e-01        00000 
 2.52460e-01  9.86990e-01        00000 
 3.35225e-01  9.72065e-01        00000 
 4.14870e-01  9.52882e-01        00000 
 4.90388e-01  9.29587e-01        00000 
 5.60696e-01  9.02358e-01        00000 
 6.24616e-01  8.71395e-01        00000 
 6.80867e-01  8.36916e-01        00000 
 7.28055e-01  7.99139e-01        00000 
 7.64679e-01  7.58265e-01        00000 
 7.89151e-01  7.14463e-01        00000 
 7.99823e-01  6.67852e-01        00000 
 7.95031e-01  6.18493e-01        00000 
 7.73152e-01  5.66388e-01        00000 
-9.32123e-01  6.61009e-01        00000 
-9.39572e-01  7.17537e-01        00000 
-9.29910e-01  7.70453e-01        00000 
-9.04654e-01  8.19713e-01        00000 
-8.65344e-01  8.65266e-01        00000 
-8.13508e-01  9.07043e-01        00000 
-7.50639e-01  9.44954e-01        00000 
-6.78175e-01  9.78891e-01        00000 
-5.97485e-01  1.00873e+00        00000 
-5.09859e-01  1.03436e+00        00000 
-4.16513e-01  1.05564e+00        00000 
-3.18589e-01  1.07247e+00        00000 
-2.17168e-01  1.08475e+00        00000 
-1.13278e-01  1.09242e+00        00000 
-7.90971e-03  1.09541e+00        00000 
 9.79681e-02  1.09370e+00        00000 
 2.03395e-01  1.08730e+00        00000 
 3.07404e-01  1.07623e+00        00000 
 4.09004e-01  1.06055e+00        00000 
 5.07167e-01  1.04033e+00        00000 
 6.00811e-01  1.01567e+00        00000 
 6.88794e-01  9.86684e-01        00000 
 7.69896e-01  9.53514e-01        00000 
 8.42819e-01  9.16290e-01        00000 
 9.06183e-01  8.75146e-01        00000 
 9.58533e-01  8.30207e-01        00000 
 9.98351e-01  7.81579e-01        00000 
 1.02408e+00  7.29347e-01        00000 
 1.03413e+00  6.73578e-01        00000 
 1.02694e+00  6.14328e-01        00000 
-1.20791e+00  6.77051e-01        00000 
-1.19752e+00  7.40955e-01        00000 
-1.16973e+00  8.00481e-01        00000 
-1.12612e+00  8.55567e-01        00000 
-1.06822e+00  9.06166e-01        00000 
-9.97564e-01  9.52240e-01        00000 
-9.15615e-01  9.93748e-01        00000 
-8.23798e-01  1.03064e+00        00000 
-7.23474e-01  1.06287e+00        00000 
-6.15939e-01  1.09038e+00        00000 
-5.02427e-01  1.11312e+00        00000 
-3.84112e-01  1.13103e+00        00000 
-2.62113e-01  1.14408e+00        00000 
-1.37509e-01  1.15221e+00        00000 
-1.13456e-02  1.15542e+00        00000 
 1.15351e-01  1.15368e+00        00000 
 2.41560e-01  1.14701e+00        00000 
 3.66257e-01  1.13541e+00        00000 
 4.88392e-01  1.11892e+00        00000 
 6.06887e-01  1.09758e+00        00000 
 7.20618e-01  1.07144e+00        00000 
 8.28407e-01  1.04056e+00        00000 
 9.29013e-01  1.00501e+00        00000 
 1.02113e+00  9.64848e-01        00000 
 1.10338e+00  9.20140e-01        00000 
 1.17433e+00  8.70944e-01        00000 
 1.23247e+00  8.17314e-01        00000 
 1.27627e+00  7.59300e-01        00000 
 1.30413e+00  6.96956e-01        00000 
 1.31447e+00  6.30351e-01        00000 
-1.51877e+00  6.54850e-01        00000 
-1.48752e+00  7.26393e-01        00000 
-1.43857e+00  7.92710e-01        00000 
-1.37358e+00  8.53759e-01        00000 
-1.29414e+00  9.09528e-01        00000 
-1.20181e+00  9.60023e-01        00000 
-1.09807e+00  1.00526e+00        00000 
-9.84338e-01  1.04524e+00        00000 
-8.61988e-01  1.08000e+00        00000 
-7.32315e-01  1.10953e+00        00000 
-5.96560e-01  1.13385e+00        00000 
-4.55908e-01  1.15296e+00        00000 
-3.11495e-01  1.16685e+00        00000 
-1.64421e-01  1.17554e+00        00000 
-1.57551e-02  1.17902e+00        00000 
 1.33449e-01  1.17728e+00        00000 
 2.82145e-01  1.17035e+00        00000 
 4.29278e-01  1.15822e+00        00000 
 5.73776e-01  1.14089e+00        00000 
 7.14538e-01  1.11838e+00        00000 
 8.50422e-01  1.09069e+00        00000 
 9.80236e-01  1.05783e+00        00000 
 1.10273e+00  1.01980e+00        00000 
 1.21660e+00  9.76593e-01        00000 
 1.32046e+00  9.28216e-01        00000 
 1.41288e+00  8.74659e-01        00000 
 1.49233e+00  8.15917e-01        00000 
 1.55727e+00  7.51993e-01        00000 
 1.60604e+00  6.82902e-01        00000 
 1.63699e+00  6.08690e-01        00000 
-1.86613e+00  5.88023e-01        00000 
-1.81066e+00  6.67466e-01        00000 
-1.73727e+00  7.40729e-01        00000 
-1.64774e+00  8.07830e-01        00000 
-1.54372e+00  8.68820e-01        00000 
-1.42681e+00  9.23768e-01        00000 
-1.29852e+00  9.72756e-01        00000 
-1.16030e+00  1.01587e+00        00000 
-1.01350e+00  1.05318e+00        00000 
-8.59415e-01  1.08478e+00        00000 
-6.99289e-01  1.11073e+00        00000 
-5.34294e-01  1.13107e+00        00000 
-3.65561e-01  1.14586e+00        00000 
-1.94185e-01  1.15514e+00        00000 
-2.12300e-02  1.15891e+00        00000 
 1.52253e-01  1.15721e+00        00000 
 3.25220e-01  1.15004e+00        00000 
 4.96620e-01  1.13738e+00        00000 
 6.65384e-01  1.11922e+00        00000 
 8.30416e-01  1.09554e+00        00000 
 9.90579e-01  1.06629e+00        00000 
 1.14469e+00  1.03144e+00        00000 
 1.29151e+00  9.90924e-01        00000 
 1.42972e+00  9.44675e-01        00000 
 1.55796e+00  8.92622e-01        00000 
 1.67476e+00  8.34687e-01        00000 
 1.77861e+00  7.70796e-01        00000 
 1.86789e+00  7.00883e-01        00000 
 1.94090e+00  6.24902e-01        00000 
 1.99587e+00  5.42835e-01        00000 
-2.25135e+00  4.69315e-01        00000 
-2.16790e+00  5.56869e-01        00000 
-2.06652e+00  6.37176e-01        00000 
-1.94906e+00  7.10348e-01        00000 
-1.81728e+00  7.76526e-01        00000 
-1.67281e+00  8.35869e-01        00000 
-1.51719e+00  8.88543e-01        00000 
-1.35185e+00  9.34713e-01        00000 
-1.17816e+00  9.74533e-01        00000 
-9.97392e-01  1.00815e+00        00000 
-8.10752e-01  1.03568e+00        00000 
-6.19393e-01  1.05725e+00        00000 
-4.24415e-01  1.07293e+00        00000 
-2.26880e-01  1.08279e+00        00000 
-2.78226e-02  1.08689e+00        00000 
 1.71738e-01  1.08523e+00        00000 
 3.70790e-01  1.07784e+00        00000 
 5.68313e-01  1.06469e+00        00000 
 7.63271e-01  1.04574e+00        00000 
 9.54597e-01  1.02093e+00        00000 
 1.14119e+00  9.90198e-01        00000 
 1.32188e+00  9.53428e-01        00000 
 1.49547e+00  9.10507e-01        00000 
 1.66066e+00  8.61298e-01        00000 
 1.81608e+00  8.05652e-01        00000 
 1.96029e+00  7.43412e-01        00000 
 2.09174e+00  6.74416e-01        00000 
 2.20876e+00  5.98509e-01        00000 
 2.30961e+00  5.15552e-01        00000 
 2.39240e+00  4.25432e-01        00000 
-2.67548e+00  2.90563e-01        00000 
-2.55990e+00  3.86351e-01        00000 
-2.42666e+00  4.73709e-01        00000 
-2.27770e+00  5.52877e-01        00000 
-2.11484e+00  6.24118e-01        00000 
-1.93974e+00  6.87703e-01        00000 
-1.75394e+00  7.43903e-01        00000 
-1.55887e+00  7.92976e-01        00000 
-1.35586e+00  8.35161e-01        00000 
-1.14613e+00  8.70676e-01        00000 
-9.30865e-01  8.99710e-01        00000 
-7.11147e-01  9.22422e-01        00000 
-4.88024e-01  9.38943e-01        00000 
-2.62500e-01  9.49370e-01        00000 
-3.55501e-02  9.53770e-01        00000 
 1.91865e-01  9.52179e-01        00000 
 4.18793e-01  9.44600e-01        00000 
 6.44272e-01  9.31007e-01        00000 
 8.67326e-01  9.11341e-01        00000 
 1.08695e+00  8.85512e-01        00000 
 1.30208e+00  8.53398e-01        00000 
 1.51164e+00  8.14847e-01        00000 
 1.71444e+00  7.69676e-01        00000 
 1.90925e+00  7.17677e-01        00000 
 2.09472e+00  6.58613e-01        00000 
 2.26943e+00  5.92233e-01        00000 
 2.43182e+00  5.18270e-01        00000 
 2.58020e+00  4.36455e-01        00000 
 2.71278e+00  3.46528e-01        00000 
 2.82759e+00  2.48246e-01        00000 
-3.13911e+00  4.27148e-02        00000 
-2.98686e+00  1.46731e-01        00000 
-2.81760e+00  2.41023e-01        00000 
-2.63337e+00  3.25997e-01        00000 
-2.43598e+00  4.02067e-01        00000 
-2.22712e+00  4.69644e-01        00000 
-2.00829e+00  5.29122e-01        00000 
-1.78088e+00  5.80868e-01        00000 
-1.54616e+00  6.25214e-01        00000 
-1.30528e+00  6.62457e-01        00000 
-1.05934e+00  6.92851e-01        00000 
-8.09338e-01  7.16607e-01        00000 
-5.56241e-01  7.33894e-01        00000 
-3.00966e-01  7.44841e-01        00000 
-4.44013e-02  7.49532e-01        00000 
 2.12579e-01  7.48012e-01        00000 
 4.69107e-01  7.40284e-01        00000 
 7.24308e-01  7.26312e-01        00000 
 9.77291e-01  7.06019e-01        00000 
 1.22714e+00  6.79284e-01        00000 
 1.47288e+00  6.45946e-01        00000 
 1.71350e+00  6.05800e-01        00000 
 1.94792e+00  5.58597e-01        00000 
 2.17496e+00  5.04049e-01        00000 
 2.39336e+00  4.41827e-01        00000 
 2.60171e+00  3.71568e-01        00000 
 2.79851e+00  2.92883e-01        00000 
 2.98207e+00  2.05363e-01        00000 
 3.15055e+00  1.08594e-01        00000 
 3.30193e+00  2.16907e-03        00000 
-3.64213e+00 -2.84132e-01        00000 
-3.44831e+00 -1.72062e-01        00000 
-3.23866e+00 -7.11080e-02        00000 
-3.01521e+00  1.93404e-02        00000 
-2.77979e+00  9.98858e-02        00000 
-2.53403e+00  1.71105e-01        00000 
-2.27937e+00  2.33534e-01        00000 
-2.01710e+00  2.87663e-01        00000 
-1.74838e+00  3.33926e-01        00000 
-1.47426e+00  3.72699e-01        00000 
-1.19571e+00  4.04299e-01        00000 
-9.13619e-01  4.28986e-01        00000 
-6.28830e-01  4.46965e-01        00000 
-3.42145e-01  4.58386e-01        00000 
-5.43439e-02  4.63349e-01        00000 
 2.33812e-01  4.61906e-01        00000 
 5.21563e-01  4.54061e-01        00000 
 8.08147e-01  4.39769e-01        00000 
 1.09279e+00  4.18937e-01        00000 
 1.37467e+00  3.91421e-01        00000 
 1.65296e+00  3.57023e-01        00000 
 1.92676e+00  3.15491e-01        00000 
 2.19509e+00  2.66512e-01        00000 
 2.45691e+00  2.09715e-01        00000 
 2.71104e+00  1.44670e-01        00000 
 2.95620e+00  7.08939e-02        00000 
 3.19093e+00 -1.21494e-02        00000 
 3.41361e+00 -1.05034e-01        00000 
 3.62240e+00 -2.08360e-01        00000 
 3.81526e+00 -3.22742e-01        00000 
-4.18356e+00 -7.00653e-01        00000 
-3.94299e+00 -5.80917e-01        00000 
-3.68837e+00 -4.73767e-01        00000 
-3.42172e+00 -3.78338e-01        00000 
-3.14478e+00 -2.93803e-01        00000 
-2.85908e+00 -2.19389e-01        00000 
-2.56592e+00 -1.54398e-01        00000 
-2.26642e+00 -9.82071e-02        00000 
-1.96160e+00 -5.02808e-02        00000 
-1.65233e+00 -1.01658e-02        00000 
-1.33940e+00  2.25104e-02        00000 
-1.02356e+00  4.80445e-02        00000 
-7.05499e-01  6.66641e-02        00000 
-3.85876e-01  7.85340e-02        00000 
-6.53342e-02  8.37615e-02        00000 
 2.55492e-01  8.24008e-02        00000 
 5.75972e-01  7.44554e-02        00000 
 8.95473e-01  5.98774e-02        00000 
 1.21335e+00  3.85657e-02        00000 
 1.52894e+00  1.03621e-02        00000 
 1.84155e+00 -2.49553e-02        00000 
 2.15044e+00 -6.76777e-02        00000 
 2.45481e+00 -1.18172e-01        00000 
 2.75378e+00 -1.76887e-01        00000 
 3.04634e+00 -2.44355e-01        00000 
 3.33136e+00 -3.21194e-01        00000 
 3.60753e+00 -4.08100e-01        00000 
 3.87334e+00 -5.05844e-01        00000 
 4.12702e+00 -6.15253e-01        00000 
 4.36656e+00 -7.37190e-01        00000 
-4.76130e+00 -1.21819e+00        00000 
-4.46859e+00 -1.09144e+00        00000 
-4.16438e+00 -9.78794e-01        00000 
-3.85059e+00 -8.79069e-01        00000 
-3.52881e+00 -7.91167e-01        00000 
-3.20034e+00 -7.14091e-01        00000 
-2.86627e+00 -6.46963e-01        00000 
-2.52747e+00 -5.89027e-01        00000 
-2.18471e+00 -5.39649e-01        00000 
-1.83862e+00 -4.98315e-01        00000 
-1.48978e+00 -4.64618e-01        00000 
-1.13873e+00 -4.38245e-01        00000 
-7.85967e-01 -4.18967e-01        00000 
-4.32004e-01 -4.06624e-01        00000 
-7.73315e-02 -4.01115e-01        00000 
 2.77554e-01 -4.02390e-01        00000 
 6.32156e-01 -4.10446e-01        00000 