<?xml version="1.0" encoding="utf-8"?>
<VTKFile byte_order="LittleEndian" type="UnstructuredGrid" version="0.1">
   <UnstructuredGrid>
      <Piece NumberOfCells="3364" NumberOfPoints="1741">
         <Points>
            <DataArray Name="Points" NumberOfComponents="3" format="ascii" type="Float32">
0.0000 1.0000 0.0000
0.0000 1.0345 0.0000
0.0000 1.0690 0.0000
0.0000 1.1034 0.0000
0.0000 1.1379 0.0000
0.0000 1.1724 0.0000
0.0000 1.2069 0.0000
0.0000 1.2414 0.0000
0.0000 1.2759 0.0000
0.0000 1.3103 0.0000
0.0000 1.3448 0.0000
0.0000 1.3793 0.0000
0.0000 1.4138 0.0000
0.0000 1.4483 0.0000
0.0000 1.4828 0.0000
0.0000 1.5172 0.0000
0.0000 1.5517 0.0000
0.0000 1.5862 0.0000
0.0000 1.6207 0.0000
0.0000 1.6552 0.0000
0.0000 1.6897 0.0000
0.0000 1.7241 0.0000
0.0000 1.7586 0.0000
0.0000 1.7931 0.0000
0.0000 1.8276 0.0000
0.0000 1.8621 0.0000
0.0000 1.8966 0.0000
0.0000 1.9310 0.0000
0.0000 1.9655 0.0000
0.0000 2.0000 0.0000
0.0690 1.0000 0.0000
0.0690 1.0345 0.0000
0.0690 1.0690 0.0000
0.0690 1.1034 0.0000
0.0690 1.1379 0.0000
0.0690 1.1724 0.0000
0.0690 1.2069 0.0000
0.0690 1.2414 0.0000
0.0690 1.2759 0.0000
0.0690 1.3103 0.0000
0.0690 1.3448 0.0000
0.0690 1.3793 0.0000
0.0690 1.4138 0.0000
0.0690 1.4483 0.0000
0.0690 1.4828 0.0000
0.0690 1.5172 0.0000
0.0690 1.5517 0.0000
0.0690 1.5862 0.0000
0.0690 1.6207 0.0000
0.0690 1.6552 0.0000
0.0690 1.6897 0.0000
0.0690 1.7241 0.0000
0.0690 1.7586 0.0000
0.0690 1.7931 0.0000
0.0690 1.8276 0.0000
0.0690 1.8621 0.0000
0.0690 1.8966 0.0000
0.0690 1.9310 0.0000
0.0690 1.9655 0.0000
0.0690 2.0000 0.0000
0.1379 1.0000 0.0000
0.1379 1.0345 0.0000
0.1379 1.0690 0.0000
0.1379 1.1034 0.0000
0.1379 1.1379 0.0000
0.1379 1.1724 0.0000
0.1379 1.2069 0.0000
0.1379 1.2414 0.0000
0.1379 1.2759 0.0000
0.1379 1.3103 0.0000
0.1379 1.3448 0.0000
0.1379 1.3793 0.0000
0.1379 1.4138 0.0000
0.1379 1.4483 0.0000
0.1379 1.4828 0.0000
0.1379 1.5172 0.0000
0.1379 1.5517 0.0000
0.1379 1.5862 0.0000
0.1379 1.6207 0.0000
0.1379 1.6552 0.0000
0.1379 1.6897 0.0000
0.1379 1.7241 0.0000
0.1379 1.7586 0.0000
0.1379 1.7931 0.0000
0.1379 1.8276 0.0000
0.1379 1.8621 0.0000
0.1379 1.8966 0.0000
0.1379 1.9310 0.0000
0.1379 1.9655 0.0000
0.1379 2.0000 0.0000
0.2069 1.0000 0.0000
0.2069 1.0345 0.0000
0.2069 1.0690 0.0000
0.2069 1.1034 0.0000
0.2069 1.1379 0.0000
0.2069 1.1724 0.0000
0.2069 1.2069 0.0000
0.2069 1.2414 0.0000
0.2069 1.2759 0.0000
0.2069 1.3103 0.0000
0.2069 1.3448 0.0000
0.2069 1.3793 0.0000
0.2069 1.4138 0.0000
0.2069 1.4483 0.0000
0.2069 1.4828 0.0000
0.2069 1.5172 0.0000
0.2069 1.5517 0.0000
0.2069 1.5862 0.0000
0.2069 1.6207 0.0000
0.2069 1.6552 0.0000
0.2069 1.6897 0.0000
0.2069 1.7241 0.0000
0.2069 1.7586 0.0000
0.2069 1.7931 0.0000
0.2069 1.8276 0.0000
0.2069 1.8621 0.0000
0.2069 1.8966 0.0000
0.2069 1.9310 0.0000
0.2069 1.9655 0.0000
0.2069 2.0000 0.0000
0.2759 1.0000 0.0000
0.2759 1.0345 0.0000
0.2759 1.0690 0.0000
0.2759 1.1034 0.0000
0.2759 1.1379 0.0000
0.2759 1.1724 0.0000
0.2759 1.2069 0.0000
0.2759 1.2414 0.0000
0.2759 1.2759 0.0000
0.2759 1.3103 0.0000
0.2759 1.3448 0.0000
0.2759 1.3793 0.0000
0.2759 1.4138 0.0000
0.2759 1.4483 0.0000
0.2759 1.4828 0.0000
0.2759 1.5172 0.0000
0.2759 1.5517 0.0000
0.2759 1.5862 0.0000
0.2759 1.6207 0.0000
0.2759 1.6552 0.0000
0.2759 1.6897 0.0000
0.2759 1.7241 0.0000
0.2759 1.7586 0.0000
0.2759 1.7931 0.0000
0.2759 1.8276 0.0000
0.2759 1.8621 0.0000
0.2759 1.8966 0.0000
0.2759 1.9310 0.0000
0.2759 1.9655 0.0000
0.2759 2.0000 0.0000
0.3448 1.0000 0.0000
0.3448 1.0345 0.0000
0.3448 1.0690 0.0000
0.3448 1.1034 0.0000
0.3448 1.1379 0.0000
0.3448 1.1724 0.0000
0.3448 1.2069 0.0000
0.3448 1.2414 0.0000
0.3448 1.2759 0.0000
0.3448 1.3103 0.0000
0.3448 1.3448 0.0000
0.3448 1.3793 0.0000
0.3448 1.4138 0.0000
0.3448 1.4483 0.0000
0.3448 1.4828 0.0000
0.3448 1.5172 0.0000
0.3448 1.5517 0.0000
0.3448 1.5862 0.0000
0.3448 1.6207 0.0000
0.3448 1.6552 0.0000
0.3448 1.6897 0.0000
0.3448 1.7241 0.0000
0.3448 1.7586 0.0000
0.3448 1.7931 0.0000
0.3448 1.8276 0.0000
0.3448 1.8621 0.0000
0.3448 1.8966 0.0000
0.3448 1.9310 0.0000
0.3448 1.9655 0.0000
0.3448 2.0000 0.0000
0.4138 1.0000 0.0000
0.4138 1.0345 0.0000
0.4138 1.0690 0.0000
0.4138 1.1034 0.0000
0.4138 1.1379 0.0000
0.4138 1.1724 0.0000
0.4138 1.2069 0.0000
0.4138 1.2414 0.0000
0.4138 1.2759 0.0000
0.4138 1.3103 0.0000
0.4138 1.3448 0.0000
0.4138 1.3793 0.0000
0.4138 1.4138 0.0000
0.4138 1.4483 0.0000
0.4138 1.4828 0.0000
0.4138 1.5172 0.0000
0.4138 1.5517 0.0000
0.4138 1.5862 0.0000
0.4138 1.6207 0.0000
0.4138 1.6552 0.0000
0.4138 1.6897 0.0000
0.4138 1.7241 0.0000
0.4138 1.7586 0.0000
0.4138 1.7931 0.0000
0.4138 1.8276 0.0000
0.4138 1.8621 0.0000
0.4138 1.8966 0.0000
0.4138 1.9310 0.0000
0.4138 1.9655 0.0000
0.4138 2.0000 0.0000
0.4828 1.0000 0.0000
0.4828 1.0345 0.0000
0.4828 1.0690 0.0000
0.4828 1.1034 0.0000
0.4828 1.1379 0.0000
0.4828 1.1724 0.0000
0.4828 1.2069 0.0000
0.4828 1.2414 0.0000
0.4828 1.2759 0.0000
0.4828 1.3103 0.0000
0.4828 1.3448 0.0000
0.4828 1.3793 0.0000
0.4828 1.4138 0.0000
0.4828 1.4483 0.0000
0.4828 1.4828 0.0000
0.4828 1.5172 0.0000
0.4828 1.5517 0.0000
0.4828 1.5862 0.0000
0.4828 1.6207 0.0000
0.4828 1.6552 0.0000
0.4828 1.6897 0.0000
0.4828 1.7241 0.0000
0.4828 1.7586 0.0000
0.4828 1.7931 0.0000
0.4828 1.8276 0.0000
0.4828 1.8621 0.0000
0.4828 1.8966 0.0000
0.4828 1.9310 0.0000
0.4828 1.9655 0.0000
0.4828 2.0000 0.0000
0.5517 1.0000 0.0000
0.5517 1.0345 0.0000
0.5517 1.0690 0.0000
0.5517 1.1034 0.0000
0.5517 1.1379 0.0000
0.5517 1.1724 0.0000
0.5517 1.2069 0.0000
0.5517 1.2414 0.0000
0.5517 1.2759 0.0000
0.5517 1.3103 0.0000
0.5517 1.3448 0.0000
0.5517 1.3793 0.0000
0.5517 1.4138 0.0000
0.5517 1.4483 0.0000
0.5517 1.4828 0.0000
0.5517 1.5172 0.0000
0.5517 1.5517 0.0000
0.5517 1.5862 0.0000
0.5517 1.6207 0.0000
0.5517 1.6552 0.0000
0.5517 1.6897 0.0000
0.5517 1.7241 0.0000
0.5517 1.7586 0.0000
0.5517 1.7931 0.0000
0.5517 1.8276 0.0000
0.5517 1.8621 0.0000
0.5517 1.8966 0.0000
0.5517 1.9310 0.0000
0.5517 1.9655 0.0000
0.5517 2.0000 0.0000
0.6207 1.0000 0.0000
0.6207 1.0345 0.0000
0.6207 1.0690 0.0000
0.6207 1.1034 0.0000
0.6207 1.1379 0.0000
0.6207 1.1724 0.0000
0.6207 1.2069 0.0000
0.6207 1.2414 0.0000
0.6207 1.2759 0.0000
0.6207 1.3103 0.0000
0.6207 1.3448 0.0000
0.6207 1.3793 0.0000
0.6207 1.4138 0.0000
0.6207 1.4483 0.0000
0.6207 1.4828 0.0000
0.6207 1.5172 0.0000
0.6207 1.5517 0.0000
0.6207 1.5862 0.0000
0.6207 1.6207 0.0000
0.6207 1.6552 0.0000
0.6207 1.6897 0.0000
0.6207 1.7241 0.0000
0.6207 1.7586 0.0000
0.6207 1.7931 0.0000
0.6207 1.8276 0.0000
0.6207 1.8621 0.0000
0.6207 1.8966 0.0000
0.6207 1.9310 0.0000
0.6207 1.9655 0.0000
0.6207 2.0000 0.0000
0.6897 1.0000 0.0000
0.6897 1.0345 0.0000
0.6897 1.0690 0.0000
0.6897 1.1034 0.0000
0.6897 1.1379 0.0000
0.6897 1.1724 0.0000
0.6897 1.2069 0.0000
0.6897 1.2414 0.0000
0.6897 1.2759 0.0000
0.6897 1.3103 0.0000
0.6897 1.3448 0.0000
0.6897 1.3793 0.0000
0.6897 1.4138 0.0000
0.6897 1.4483 0.0000
0.6897 1.4828 0.0000
0.6897 1.5172 0.0000
0.6897 1.5517 0.0000
0.6897 1.5862 0.0000
0.6897 1.6207 0.0000
0.6897 1.6552 0.0000
0.6897 1.6897 0.0000
0.6897 1.7241 0.0000
0.6897 1.7586 0.0000
0.6897 1.7931 0.0000
0.6897 1.8276 0.0000
0.6897 1.8621 0.0000
0.6897 1.8966 0.0000
0.6897 1.9310 0.0000
0.6897 1.9655 0.0000
0.6897 2.0000 0.0000
0.7586 1.0000 0.0000
0.7586 1.0345 0.0000
0.7586 1.0690 0.0000
0.7586 1.1034 0.0000
0.7586 1.1379 0.0000
0.7586 1.1724 0.0000
0.7586 1.2069 0.0000
0.7586 1.2414 0.0000
0.7586 1.2759 0.0000
0.7586 1.3103 0.0000
0.7586 1.3448 0.0000
0.7586 1.3793 0.0000
0.7586 1.4138 0.0000
0.7586 1.4483 0.0000
0.7586 1.4828 0.0000
0.7586 1.5172 0.0000
0.7586 1.5517 0.0000
0.7586 1.5862 0.0000
0.7586 1.6207 0.0000
0.7586 1.6552 0.0000
0.7586 1.6897 0.0000
0.7586 1.7241 0.0000
0.7586 1.7586 0.0000
0.7586 1.7931 0.0000
0.7586 1.8276 0.0000
0.7586 1.8621 0.0000
0.7586 1.8966 0.0000
0.7586 1.9310 0.0000
0.7586 1.9655 0.0000
0.7586 2.0000 0.0000
0.8276 1.0000 0.0000
0.8276 1.0345 0.0000
0.8276 1.0690 0.0000
0.8276 1.1034 0.0000
0.8276 1.1379 0.0000
0.8276 1.1724 0.0000
0.8276 1.2069 0.0000
0.8276 1.2414 0.0000
0.8276 1.2759 0.0000
0.8276 1.3103 0.0000
0.8276 1.3448 0.0000
0.8276 1.3793 0.0000
0.8276 1.4138 0.0000
0.8276 1.4483 0.0000
0.8276 1.4828 0.0000
0.8276 1.5172 0.0000
0.8276 1.5517 0.0000
0.8276 1.5862 0.0000
0.8276 1.6207 0.0000
0.8276 1.6552 0.0000
0.8276 1.6897 0.0000
0.8276 1.7241 0.0000
0.8276 1.7586 0.0000
0.8276 1.7931 0.0000
0.8276 1.8276 0.0000
0.8276 1.8621 0.0000
0.8276 1.8966 0.0000
0.8276 1.9310 0.0000
0.8276 1.9655 0.0000
0.8276 2.0000 0.0000
0.8966 1.0000 0.0000
0.8966 1.0345 0.0000
0.8966 1.0690 0.0000
0.8966 1.1034 0.0000
0.8966 1.1379 0.0000
0.8966 1.1724 0.0000
0.8966 1.2069 0.0000
0.8966 1.2414 0.0000
0.8966 1.2759 0.0000
0.8966 1.3103 0.0000
0.8966 1.3448 0.0000
0.8966 1.3793 0.0000
0.8966 1.4138 0.0000
0.8966 1.4483 0.0000
0.8966 1.4828 0.0000
0.8966 1.5172 0.0000
0.8966 1.5517 0.0000
0.8966 1.5862 0.0000
0.8966 1.6207 0.0000
0.8966 1.6552 0.0000
0.8966 1.6897 0.0000
0.8966 1.7241 0.0000
0.8966 1.7586 0.0000
0.8966 1.7931 0.0000
0.8966 1.8276 0.0000
0.8966 1.8621 0.0000
0.8966 1.8966 0.0000
0.8966 1.9310 0.0000
0.8966 1.9655 0.0000
0.8966 2.0000 0.0000
0.9655 1.0000 0.0000
0.9655 1.0345 0.0000
0.9655 1.0690 0.0000
0.9655 1.1034 0.0000
0.9655 1.1379 0.0000
0.9655 1.1724 0.0000
0.9655 1.2069 0.0000
0.9655 1.2414 0.0000
0.9655 1.2759 0.0000
0.9655 1.3103 0.0000
0.9655 1.3448 0.0000
0.9655 1.3793 0.0000
0.9655 1.4138 0.0000
0.9655 1.4483 0.0000
0.9655 1.4828 0.0000
0.9655 1.5172 0.0000
0.9655 1.5517 0.0000
0.9655 1.5862 0.0000
0.9655 1.6207 0.0000
0.9655 1.6552 0.0000
0.9655 1.6897 0.0000
0.9655 1.7241 0.0000
0.9655 1.7586 0.0000
0.9655 1.7931 0.0000
0.9655 1.8276 0.0000
0.9655 1.8621 0.0000
0.9655 1.8966 0.0000
0.9655 1.9310 0.0000
0.9655 1.9655 0.0000
0.9655 2.0000 0.0000
1.0345 1.0000 0.0000
1.0345 1.0345 0.0000
1.0345 1.0690 0.0000
1.0345 1.1034 0.0000
1.0345 1.1379 0.0000
1.0345 1.1724 0.0000
1.0345 1.2069 0.0000
1.0345 1.2414 0.0000
1.0345 1.2759 0.0000
1.0345 1.3103 0.0000
1.0345 1.3448 0.0000
[...]
         <PointData>
            <DataArray Name="fValues" NumberOfComponents="3" format="ascii" type="Float64">
-6.57753e-16  2.93552e-16        00000 
 6.59388e-16 -1.88397e-16        00000 
 4.19177e-16  6.98628e-17        00000 
-5.72017e-16 -3.36480e-17        00000 
 4.42465e-16  4.65752e-17        00000 
-3.19333e-16  4.63013e-17        00000 
       00000  2.09588e-16        00000 
-2.23833e-16 -4.53517e-17        00000 
 6.98628e-17        00000        00000 
-9.79136e-17 -6.97416e-18        00000 
-8.15066e-17  1.28082e-16        00000 
 6.94905e-18 -8.77775e-17        00000 
-2.32876e-17  5.82190e-17        00000 
 3.60392e-17 -1.84399e-16        00000 
-2.91095e-17  9.89723e-17        00000 
 1.79212e-17  4.64489e-17        00000 
-2.91095e-17 -1.74657e-17        00000 
-9.80741e-18 -6.34786e-17        00000 
 5.82190e-17 -4.65752e-17        00000 
-9.21664e-17  4.68147e-17        00000 
 2.91095e-16 -1.16438e-16        00000 
-2.87131e-16  1.88695e-16        00000 
 2.32876e-16        00000        00000 
 1.66777e-16 -1.39713e-16        00000 
-3.72602e-16  2.79451e-16        00000 
 2.17690e-16 -2.54408e-16        00000 
-4.42465e-16  3.02739e-16        00000 
 3.78147e-16 -6.00932e-17        00000 
 1.87899e-16 -2.75976e-16        00000 
 6.92384e-16  3.15447e-16        00000 
-5.59482e+00 -4.68345e+00        00000 
-4.13088e+00 -3.51950e+00        00000 
-3.43444e+00 -2.74493e+00        00000 
-2.95704e+00 -2.20431e+00        00000 
-2.58002e+00 -1.80798e+00        00000 
-2.25807e+00 -1.50738e+00        00000 
-1.96996e+00 -1.27419e+00        00000 
-1.70425e+00 -1.09083e+00        00000 
-1.45417e+00 -9.45878e-01        00000 
-1.21536e+00 -8.31593e-01        00000 
-9.84824e-01 -7.42611e-01        00000 
-7.60348e-01 -6.75160e-01        00000 
-5.40217e-01 -6.26603e-01        00000 
-3.23015e-01 -5.95149e-01        00000 
-1.07507e-01 -5.79688e-01        00000 
 1.07448e-01 -5.79686e-01        00000 
 3.22956e-01 -5.95143e-01        00000 
 5.40158e-01 -6.26592e-01        00000 
 7.60289e-01 -6.75145e-01        00000 
 9.84766e-01 -7.42591e-01        00000 
 1.21531e+00 -8.31569e-01        00000 
 1.45411e+00 -9.45850e-01        00000 
 1.70419e+00 -1.09080e+00        00000 
 1.96990e+00 -1.27415e+00        00000 
 2.25802e+00 -1.50734e+00        00000 
 2.57997e+00 -1.80794e+00        00000 
 2.95699e+00 -2.20426e+00        00000 
 3.43439e+00 -2.74487e+00        00000 
 4.13082e+00 -3.51943e+00        00000 
 5.59474e+00 -4.68337e+00        00000 
-9.90901e+00 -7.57829e+00        00000 
-8.50916e+00 -6.67588e+00        00000 
-7.28831e+00 -5.78351e+00        00000 
-6.32033e+00 -5.02193e+00        00000 
-5.51451e+00 -4.39425e+00        00000 
-4.81510e+00 -3.88141e+00        00000 
-4.18828e+00 -3.46333e+00        00000 
-3.61277e+00 -3.12313e+00        00000 
-3.07454e+00 -2.84754e+00        00000 
-2.56387e+00 -2.62638e+00        00000 
-2.07371e+00 -2.45193e+00        00000 
-1.59873e+00 -2.31843e+00        00000 
-1.13467e+00 -2.22167e+00        00000 
-6.77984e-01 -2.15871e+00        00000 
-2.25570e-01 -2.12768e+00        00000 
 2.25446e-01 -2.12767e+00        00000 
 6.77860e-01 -2.15870e+00        00000 
 1.13454e+00 -2.22166e+00        00000 
 1.59861e+00 -2.31841e+00        00000 
 2.07359e+00 -2.45190e+00        00000 
 2.56375e+00 -2.62634e+00        00000 
 3.07442e+00 -2.84749e+00        00000 
 3.61266e+00 -3.12307e+00        00000 
 4.18816e+00 -3.46327e+00        00000 
 4.81498e+00 -3.88134e+00        00000 
 5.51440e+00 -4.39417e+00        00000 
 6.32022e+00 -5.02185e+00        00000 
 7.28820e+00 -5.78342e+00        00000 
 8.50905e+00 -6.67578e+00        00000 
 9.90890e+00 -7.57818e+00        00000 
-1.39739e+01 -1.06005e+01        00000 
-1.24440e+01 -9.71320e+00        00000 
-1.10226e+01 -8.88029e+00        00000 
-9.72576e+00 -8.10708e+00        00000 
-8.56204e+00 -7.41746e+00        00000 
-7.50984e+00 -6.81779e+00        00000 
-6.54598e+00 -6.30487e+00        00000 
-5.65105e+00 -5.87179e+00        00000 
-4.80973e+00 -5.51082e+00        00000 
-4.00995e+00 -5.21472e+00        00000 
-3.24217e+00 -4.97719e+00        00000 
-2.49860e+00 -4.79311e+00        00000 
-1.77275e+00 -4.65844e+00        00000 
-1.05900e+00 -4.57026e+00        00000 
-3.52292e-01 -4.52663e+00        00000 
 3.52099e-01 -4.52663e+00        00000 
 1.05881e+00 -4.57024e+00        00000 
 1.77256e+00 -4.65842e+00        00000 
 2.49841e+00 -4.79308e+00        00000 
 3.24198e+00 -4.97715e+00        00000 
 4.00977e+00 -5.21467e+00        00000 
 4.80954e+00 -5.51077e+00        00000 
 5.65087e+00 -5.87173e+00        00000 
 6.54580e+00 -6.30480e+00        00000 
 7.50966e+00 -6.81771e+00        00000 
 8.56187e+00 -7.41737e+00        00000 
 9.72559e+00 -8.10698e+00        00000 
 1.10224e+01 -8.88019e+00        00000 
 1.24438e+01 -9.71310e+00        00000 
 1.39738e+01 -1.06004e+01        00000 
-1.79229e+01 -1.39243e+01        00000 
-1.61939e+01 -1.30721e+01        00000 
-1.45499e+01 -1.22690e+01        00000 
-1.30018e+01 -1.15229e+01        00000 
-1.15515e+01 -1.08392e+01        00000 
-1.01960e+01 -1.02245e+01        00000 
-8.92529e+00 -9.68180e+00        00000 
-7.72698e+00 -9.21067e+00        00000 
-6.58893e+00 -8.80869e+00        00000 
-5.50004e+00 -8.47255e+00        00000 
-4.45045e+00 -8.19871e+00        00000 
-3.43148e+00 -7.98390e+00        00000 
-2.43536e+00 -7.82533e+00        00000 
-1.45507e+00 -7.72084e+00        00000 
-4.84090e-01 -7.66896e+00        00000 
 4.83827e-01 -7.66895e+00        00000 
 1.45481e+00 -7.72082e+00        00000 
 2.43510e+00 -7.82531e+00        00000 
 3.43122e+00 -7.98387e+00        00000 
 4.45020e+00 -8.19867e+00        00000 
 5.49979e+00 -8.47250e+00        00000 
 6.58868e+00 -8.80864e+00        00000 
 7.72674e+00 -9.21060e+00        00000 
 8.92506e+00 -9.68173e+00        00000 
 1.01958e+01 -1.02244e+01        00000 
 1.15513e+01 -1.08391e+01        00000 
 1.30016e+01 -1.15228e+01        00000 
 1.45497e+01 -1.22689e+01        00000 
 1.61937e+01 -1.30720e+01        00000 
 1.79228e+01 -1.39242e+01        00000 
-2.17545e+01 -1.76796e+01        00000 
-1.97997e+01 -1.68549e+01        00000 
-1.79249e+01 -1.60829e+01        00000 
-1.61335e+01 -1.53644e+01        00000 
-1.44265e+01 -1.47027e+01        00000 
-1.28014e+01 -1.41006e+01        00000 
-1.12528e+01 -1.35607e+01        00000 
-9.77341e+00 -1.30843e+01        00000 
-8.35428e+00 -1.26716e+01        00000 
-6.98635e+00 -1.23217e+01        00000 
-5.66070e+00 -1.20333e+01        00000 
-4.36882e+00 -1.18050e+01        00000 
-3.10266e+00 -1.16352e+01        00000 
-1.85453e+00 -1.15227e+01        00000 
-6.17107e-01 -1.14667e+01        00000 
 6.16774e-01 -1.14667e+01        00000 
 1.85420e+00 -1.15227e+01        00000 
 3.10233e+00 -1.16351e+01        00000 
 4.36850e+00 -1.18049e+01        00000 
 5.66038e+00 -1.20333e+01        00000 
 6.98603e+00 -1.23216e+01        00000 
 8.35397e+00 -1.26715e+01        00000 
 9.77311e+00 -1.30842e+01        00000 
 1.12525e+01 -1.35606e+01        00000 
 1.28011e+01 -1.41005e+01        00000 
 1.44262e+01 -1.47026e+01        00000 
 1.61332e+01 -1.53643e+01        00000 
 1.79246e+01 -1.60828e+01        00000 
 1.97995e+01 -1.68549e+01        00000 
 2.17543e+01 -1.76795e+01        00000 
-2.54643e+01 -2.19023e+01        00000 
-2.32736e+01 -2.11068e+01        00000 
-2.11631e+01 -2.03642e+01        00000 
-1.91324e+01 -1.96745e+01        00000 
-1.71799e+01 -1.90387e+01        00000 
-1.53026e+01 -1.84581e+01        00000 
-1.34960e+01 -1.79345e+01        00000 
-1.17542e+01 -1.74689e+01        00000 
-1.00703e+01 -1.70621e+01        00000 
-8.43667e+00 -1.67146e+01        00000 
-6.84553e+00 -1.64260e+01        00000 
-5.28892e+00 -1.61960e+01        00000 
-3.75897e+00 -1.60241e+01        00000 
-2.24793e+00 -1.59098e+01        00000 
-7.48193e-01 -1.58528e+01        00000 
 7.47792e-01 -1.58528e+01        00000 
 2.24753e+00 -1.59098e+01        00000 
 3.75857e+00 -1.60241e+01        00000 
 5.28853e+00 -1.61959e+01        00000 
 6.84515e+00 -1.64259e+01        00000 
 8.43629e+00 -1.67145e+01        00000 
 1.00699e+01 -1.70621e+01        00000 
 1.17538e+01 -1.74688e+01        00000 
 1.34956e+01 -1.79344e+01        00000 
 1.53023e+01 -1.84581e+01        00000 
 1.71796e+01 -1.90386e+01        00000 
 1.91321e+01 -1.96745e+01        00000 
 2.11628e+01 -2.03642e+01        00000 
 2.32733e+01 -2.11068e+01        00000 
 2.54641e+01 -2.19023e+01        00000 
-2.90435e+01 -2.66036e+01        00000 
-2.66159e+01 -2.58384e+01        00000 
-2.42704e+01 -2.51255e+01        00000 
-2.20042e+01 -2.44646e+01        00000 
-1.98138e+01 -2.38558e+01        00000 
-1.76953e+01 -2.32998e+01        00000 
-1.56438e+01 -2.27973e+01        00000 
-1.36539e+01 -2.23494e+01        00000 
-1.17194e+01 -2.19567e+01        00000 
-9.83340e+00 -2.16198e+01        00000 
-7.98883e+00 -2.13389e+01        00000 
-6.17826e+00 -2.11143e+01        00000 
-4.39418e+00 -2.09459e+01        00000 
-2.62903e+00 -2.08338e+01        00000 
-8.75238e-01 -2.07777e+01        00000 
 8.74773e-01 -2.07777e+01        00000 
 2.62857e+00 -2.08338e+01        00000 
 4.39372e+00 -2.09459e+01        00000 
 6.17780e+00 -2.11143e+01        00000 
 7.98838e+00 -2.13389e+01        00000 
 9.83296e+00 -2.16198e+01        00000 
 1.17190e+01 -2.19567e+01        00000 
 1.36535e+01 -2.23494e+01        00000 
 1.56434e+01 -2.27974e+01        00000 
 1.76949e+01 -2.32998e+01        00000 
 1.98134e+01 -2.38558e+01        00000 
 2.20039e+01 -2.44646e+01        00000 
 2.42701e+01 -2.51255e+01        00000 
 2.66156e+01 -2.58384e+01        00000 
 2.90432e+01 -2.66037e+01        00000 
-3.24842e+01 -3.17789e+01        00000 
-2.98240e+01 -3.10450e+01        00000 
-2.72480e+01 -3.03623e+01        00000 
-2.47517e+01 -2.97302e+01        00000 
-2.23306e+01 -2.91488e+01        00000 
-1.99797e+01 -2.86181e+01        00000 
-1.76940e+01 -2.81386e+01        00000 
-1.54677e+01 -2.77110e+01        00000 
-1.32947e+01 -2.73356e+01        00000 
-1.11687e+01 -2.70131e+01        00000 
-9.08274e+00 -2.67439e+01        00000 
-7.02988e+00 -2.65282e+01        00000 
-5.00287e+00 -2.63663e+01        00000 
-2.99439e+00 -2.62583e+01        00000 
-9.97067e-01 -2.62043e+01        00000 
 9.96543e-01 -2.62043e+01        00000 
 2.99387e+00 -2.62583e+01        00000 
 5.00235e+00 -2.63663e+01        00000 
 7.02936e+00 -2.65282e+01        00000 
 9.08224e+00 -2.67439e+01        00000 
 1.11682e+01 -2.70132e+01        00000 
 1.32942e+01 -2.73357e+01        00000 
 1.54672e+01 -2.77110e+01        00000 
 1.76935e+01 -2.81387e+01        00000 
 1.99793e+01 -2.86181e+01        00000 
 2.23301e+01 -2.91488e+01        00000 
 2.47513e+01 -2.97303e+01        00000 
 2.72476e+01 -3.03624e+01        00000 
 2.98237e+01 -3.10451e+01        00000 
 3.24840e+01 -3.17790e+01        00000 
-3.57806e+01 -3.74156e+01        00000 
-3.28948e+01 -3.67139e+01        00000 
-3.00950e+01 -3.60618e+01        00000 
-2.73758e+01 -3.54587e+01        00000 
-2.47317e+01 -3.49046e+01        00000 
-2.21573e+01 -3.43994e+01        00000 
-1.96469e+01 -3.39433e+01        00000 
-1.71947e+01 -3.35366e+01        00000 
-1.47945e+01 -3.31798e+01        00000 
-1.24400e+01 -3.28731e+01        00000 
-1.01244e+01 -3.26170e+01        00000 
-7.84098e+00 -3.24117e+01        00000 
-5.58272e+00 -3.22576e+01        00000 
-3.34250e+00 -3.21547e+01        00000 
-1.11315e+00 -3.21033e+01        00000 
 1.11257e+00 -3.21033e+01        00000 
 3.34193e+00 -3.21547e+01        00000 
 5.58215e+00 -3.22576e+01        00000 
 7.84041e+00 -3.24118e+01        00000 
 1.01238e+01 -3.26170e+01        00000 
 1.24394e+01 -3.28732e+01        00000 
 1.47940e+01 -3.31798e+01        00000 
 1.71942e+01 -3.35367e+01        00000 
 1.96464e+01 -3.39434e+01        00000 
 2.21568e+01 -3.43995e+01        00000 
 2.47312e+01 -3.49047e+01        00000 
 2.73753e+01 -3.54589e+01        00000 
 3.00946e+01 -3.60619e+01        00000 
 3.28945e+01 -3.67141e+01        00000 
 3.57803e+01 -3.74158e+01        00000 
-3.89281e+01 -4.34968e+01        00000 
-3.58256e+01 -4.28281e+01        00000 
-3.28104e+01 -4.22069e+01        00000 
-2.98765e+01 -4.16330e+01        00000 
-2.70180e+01 -4.11061e+01        00000 
-2.42291e+01 -4.06262e+01        00000 
-2.15038e+01 -4.01933e+01        00000 
-1.88359e+01 -3.98077e+01        00000 
-1.62191e+01 -3.94694e+01        00000 
-1.36472e+01 -3.91789e+01        00000 
-1.11133e+01 -3.89363e+01        00000 
-8.61096e+00 -3.87419e+01        00000 
-6.13314e+00 -3.85959e+01        00000 
-3.67294e+00 -3.84985e+01        00000 
-1.22334e+00 -3.84498e+01        00000 
 1.22272e+00 -3.84498e+01        00000 
 3.67232e+00 -3.84985e+01        00000 
 6.13252e+00 -3.85960e+01        00000 
 8.61035e+00 -3.87420e+01        00000 
 1.11127e+01 -3.89364e+01        00000 
 1.36466e+01 -3.91790e+01        00000 
 1.62186e+01 -3.94695e+01        00000 
 1.88353e+01 -3.98078e+01        00000 
 2.15032e+01 -4.01935e+01        00000 
 2.42286e+01 -4.06264e+01        00000 
 2.70175e+01 -4.11063e+01        00000 
 2.98760e+01 -4.16332e+01        00000 
 3.28099e+01 -4.22072e+01        00000 
 3.58252e+01 -4.28283e+01        00000 
 3.89278e+01 -4.34971e+01        00000 
-4.19238e+01 -5.00035e+01        00000 
-3.86142e+01 -4.93682e+01        00000 
-3.53929e+01 -4.87783e+01        00000 
-3.22536e+01 -4.82336e+01        00000 
-2.91900e+01 -4.77339e+01        00000 
-2.61962e+01 -4.72791e+01        00000 
-2.32657e+01 -4.68692e+01        00000 
-2.03923e+01 -4.65043e+01        00000 
-1.75695e+01 -4.61844e+01        00000 
-1.47910e+01 -4.59099e+01        00000 
-1.20501e+01 -4.56807e+01        00000 
-9.34016e+00 -4.54971e+01        00000 
-6.65433e+00 -4.53593e+01        00000 
-3.98580e+00 -4.52673e+01        00000 
-1.32767e+00 -4.52213e+01        00000 
 1.32700e+00 -4.52214e+01        00000 
 3.98513e+00 -4.52674e+01        00000 
 6.65367e+00 -4.53593e+01        00000 
 9.33951e+00 -4.54972e+01        00000 
 1.20495e+01 -4.56808e+01        00000 
 1.47904e+01 -4.59100e+01        00000 
 1.75689e+01 -4.61846e+01        00000 
 2.03917e+01 -4.65044e+01        00000 
 2.32651e+01 -4.68694e+01        00000 
 2.61956e+01 -4.72793e+01        00000 
 2.91895e+01 -4.77341e+01        00000 
 3.22531e+01 -4.82339e+01        00000 
 3.53924e+01 -4.87786e+01        00000 
 3.86138e+01 -4.93685e+01        00000 
 4.19235e+01 -5.00039e+01        00000 
-4.47656e+01 -5.69153e+01        00000 
-4.12591e+01 -5.63137e+01        00000 
-3.78415e+01 -5.57554e+01        00000 
-3.45066e+01 -5.52400e+01        00000 
-3.12479e+01 -5.47674e+01        00000 
-2.80589e+01 -5.43376e+01        00000 
-2.49334e+01 -5.39504e+01        00000 
-2.18648e+01 -5.36059e+01        00000 
-1.88467e+01 -5.33042e+01        00000 
-1.58725e+01 -5.30452e+01        00000 
-1.29356e+01 -5.28292e+01        00000 
-1.00292e+01 -5.26562e+01        00000 
-7.14675e+00 -5.25264e+01        00000 
-4.28135e+00 -5.24398e+01        00000 
-1.42621e+00 -5.23965e+01        00000 
 1.42551e+00 -5.23965e+01        00000 
 4.28065e+00 -5.24398e+01        00000 
 7.14606e+00 -5.25265e+01        00000 
 1.00285e+01 -5.26563e+01        00000 
 1.29349e+01 -5.28293e+01        00000 
 1.58718e+01 -5.30454e+01        00000 
 1.88461e+01 -5.33043e+01        00000 
 2.18642e+01 -5.36061e+01        00000 
 2.49328e+01 -5.39506e+01        00000 
 2.80584e+01 -5.43378e+01        00000 
 3.12473e+01 -5.47677e+01        00000 
 3.45061e+01 -5.52403e+01        00000 
 3.78411e+01 -5.57557e+01        00000 
 4.12586e+01 -5.63141e+01        00000 
 4.47652e+01 -5.69158e+01        00000 
-4.74520e+01 -6.42113e+01        00000 
-4.37589e+01 -6.36437e+01        00000 
-4.01555e+01 -6.31170e+01        00000 
-3.66352e+01 -6.26310e+01        00000 
-3.31915e+01 -6.21856e+01        00000 
-2.98178e+01 -6.17806e+01        00000 
-2.65076e+01 -6.14159e+01        00000 
-2.32544e+01 -6.10916e+01        00000 
-2.00515e+01 -6.08076e+01        00000 
-1.68924e+01 -6.05640e+01        00000 
-1.37704e+01 -6.03608e+01        00000 
-1.06788e+01 -6.01982e+01        00000 
-7.61088e+00 -6.00761e+01        00000 
-4.55990e+00 -5.99947e+01        00000 
-1.51908e+00 -5.99540e+01        00000 
 1.51835e+00 -5.99541e+01        00000 
 4.55917e+00 -5.99948e+01        00000 
 7.61016e+00 -6.00762e+01        00000 
 1.06781e+01 -6.01983e+01        00000 
 1.37697e+01 -6.03610e+01        00000 
 1.68917e+01 -6.05642e+01        00000 
 2.00508e+01 -6.08078e+01        00000 
 2.32537e+01 -6.10919e+01        00000 
 2.65070e+01 -6.14162e+01        00000 
 2.98172e+01 -6.17809e+01        00000 
 3.31909e+01 -6.21860e+01        00000 
 3.66347e+01 -6.26315e+01        00000 
 4.01551e+01 -6.31175e+01        00000 
 4.37585e+01 -6.36442e+01        00000 
 4.74516e+01 -6.42118e+01        00000 
-4.99818e+01 -7.18703e+01        00000 
-4.61129e+01 -7.13369e+01        00000 
-4.23341e+01 -7.08421e+01        00000 
-3.86389e+01 -7.03856e+01        00000 
-3.50207e+01 -6.99672e+01        00000 
-3.14727e+01 -6.95870e+01        00000 
-2.79885e+01 -6.92446e+01        00000 
-2.45613e+01 -6.89402e+01        00000 
-2.11845e+01 -6.86737e+01        00000 
-1.78514e+01 -6.84451e+01        00000 
-1.45553e+01 -6.82545e+01        00000 
-1.12895e+01 -6.81019e+01        00000 
-8.04718e+00 -6.79874e+01        00000 
-4.82173e+00 -6.79110e+01        00000 
-1.60637e+00 -6.78728e+01        00000 
 1.60562e+00 -6.78728e+01        00000 
 4.82098e+00 -6.79111e+01        00000 
 8.04644e+00 -6.79875e+01        00000 
 1.12887e+01 -6.81020e+01        00000 
 1.45546e+01 -6.82547e+01        00000 
 1.78507e+01 -6.84453e+01        00000 
 2.11839e+01 -6.86740e+01        00000 
 2.45607e+01 -6.89405e+01        00000 
 2.79879e+01 -6.92450e+01        00000 
 3.14721e+01 -6.95874e+01        00000 
 3.50201e+01 -6.99677e+01        00000 
 3.86384e+01 -7.03861e+01        00000 
 4.23336e+01 -7.08426e+01        00000 
 4.61124e+01 -7.13375e+01        00000 
 4.99814e+01 -7.18709e+01        00000 
-5.23542e+01 -7.98709e+01        00000 
-4.83200e+01 -7.93720e+01        00000 
-4.43766e+01 -7.89092e+01        00000 
-4.05172e+01 -7.84822e+01        00000 
-3.67352e+01 -7.80910e+01        00000 
-3.30239e+01 -7.77354e+01        00000 
-2.93764e+01 -7.74152e+01        00000 
-2.57862e+01 -7.71304e+01        00000 
-2.22464e+01 -7.68811e+01        00000 
-1.87502e+01 -7.66672e+01        00000 
-1.52909e+01 -7.64887e+01        00000 
-1.18618e+01 -7.63459e+01        00000 
-8.45608e+00 -7.62386e+01        00000 
-5.06711e+00 -7.61671e+01        00000 
-1.68818e+00 -7.61314e+01        00000 
 1.68741e+00 -7.61314e+01        00000 
 5.06635e+00 -7.61672e+01        00000 
 8.45532e+00 -7.62388e+01        00000 
 1.18610e+01 -7.63460e+01        00000 
 1.52902e+01 -7.64889e+01        00000 
 1.87495e+01 -7.66674e+01        00000 
 2.22457e+01 -7.68814e+01        00000 
 2.57855e+01 -7.71308e+01        00000 
 2.93758e+01 -7.74156e+01        00000 
 3.30232e+01 -7.77359e+01        00000 
 3.67346e+01 -7.80915e+01        00000 
 4.05167e+01 -7.84828e+01        00000 
 4.43761e+01 -7.89098e+01        00000 
 4.83196e+01 -7.93727e+01        00000 
 5.23538e+01 -7.98717e+01        00000 
-5.45682e+01 -8.81920e+01        00000 
-5.03795e+01 -8.77277e+01        00000 
-4.62821e+01 -8.72971e+01        00000 
-4.22695e+01 -8.68999e+01        00000 
-3.83348e+01 -8.65358e+01        00000 
-3.44711e+01 -8.62046e+01        00000 
-3.06716e+01 -8.59064e+01        00000 
-2.69294e+01 -8.56410e+01        00000 
-2.32376e+01 -8.54084e+01        00000 
-1.95894e+01 -8.52087e+01        00000 
-1.59779e+01 -8.50420e+01        00000 
-1.23963e+01 -8.49085e+01        00000 
-8.83806e+00 -8.48082e+01        00000 
-5.29637e+00 -8.47413e+01        00000 
-1.76461e+00 -8.47079e+01        00000 
 1.76384e+00 -8.47079e+01        00000 
 5.29560e+00 -8.47414e+01        00000 