<?xml version="1.0" encoding="utf-8"?>
<VTKFile byte_order="LittleEndian" type="UnstructuredGrid" version="0.1">
   <UnstructuredGrid>
      <Piece NumberOfCells="3364" NumberOfPoints="1741">
         <Points>
            <DataArray Name="Points" NumberOfComponents="3" format="ascii" type="Float32">
0.0000 1.0000 0.0000
0.0000 1.0345 0.0000
0.0000 1.0690 0.0000
0.0000 1.1034 0.0000
0.0000 1.1379 0.0000
0.0000 1.1724 0.0000
0.0000 1.2069 0.0000
0.0000 1.2414 0.0000
0.0000 1.2759 0.0000
0.0000 1.3103 0.0000
0.0000 1.3448 0.0000
0.0000 1.3793 0.0000
0.0000 1.4138 0.0000
0.0000 1.4483 0.0000
0.0000 1.4828 0.0000
0.0000 1.5172 0.0000
0.0000 1.5517 0.0000
0.0000 1.5862 0.0000
0.0000 1.6207 0.0000
0.0000 1.6552 0.0000
0.0000 1.6897 0.0000
0.0000 1.7241 0.0000
0.0000 1.7586 0.0000
0.0000 1.7931 0.0000
0.0000 1.8276 0.0000
0.0000 1.8621 0.0000
0.0000 1.8966 0.0000
0.0000 1.9310 0.0000
0.0000 1.9655 0.0000
0.0000 2.0000 0.0000
0.0690 1.0000 0.0000
0.0690 1.0345 0.0000
0.0690 1.0690 0.0000
0.0690 1.1034 0.0000
0.0690 1.1379 0.0000
0.0690 1.1724 0.0000
0.0690 1.2069 0.0000
0.0690 1.2414 0.0000
0.0690 1.2759 0.0000
0.0690 1.3103 0.0000
0.0690 1.3448 0.0000
0.0690 1.3793 0.0000
0.0690 1.4138 0.0000
0.0690 1.4483 0.0000
0.0690 1.4828 0.0000
0.0690 1.5172 0.0000
0.0690 1.5517 0.0000
0.0690 1.5862 0.0000
0.0690 1.6207 0.0000
0.0690 1.6552 0.0000
0.0690 1.6897 0.0000
0.0690 1.7241 0.0000
0.0690 1.7586 0.0000
0.0690 1.7931 0.0000
0.0690 1.8276 0.0000
0.0690 1.8621 0.0000
0.0690 1.8966 0.0000
0.0690 1.9310 0.0000
0.0690 1.9655 0.0000
0.0690 2.0000 0.0000
0.1379 1.0000 0.0000
0.1379 1.0345 0.0000
0.1379 1.0690 0.0000
0.1379 1.1034 0.0000
0.1379 1.1379 0.0000
0.1379 1.1724 0.0000
0.1379 1.2069 0.0000
0.1379 1.2414 0.0000
0.1379 1.2759 0.0000
0.1379 1.3103 0.0000
0.1379 1.3448 0.0000
0.1379 1.3793 0.0000
0.1379 1.4138 0.0000
0.1379 1.4483 0.0000
0.1379 1.4828 0.0000
0.1379 1.5172 0.0000
0.1379 1.5517 0.0000
0.1379 1.5862 0.0000
0.1379 1.6207 0.0000
0.1379 1.6552 0.0000
0.1379 1.6897 0.0000
0.1379 1.7241 0.0000
0.1379 1.7586 0.0000
0.1379 1.7931 0.0000
0.1379 1.8276 0.0000
0.1379 1.8621 0.0000
0.1379 1.8966 0.0000
0.1379 1.9310 0.0000
0.1379 1.9655 0.0000
0.1379 2.0000 0.0000
0.2069 1.0000 0.0000
0.2069 1.0345 0.0000
0.2069 1.0690 0.0000
0.2069 1.1034 0.0000
0.2069 1.1379 0.0000
0.2069 1.1724 0.0000
0.2069 1.2069 0.0000
0.2069 1.2414 0.0000
0.2069 1.2759 0.0000
0.2069 1.3103 0.0000
0.2069 1.3448 0.0000
0.2069 1.3793 0.0000
0.2069 1.4138 0.0000
0.2069 1.4483 0.0000
0.2069 1.4828 0.0000
0.2069 1.5172 0.0000
0.2069 1.5517 0.0000
0.2069 1.5862 0.0000
0.2069 1.6207 0.0000
0.2069 1.6552 0.0000
0.2069 1.6897 0.0000
0.2069 1.7241 0.0000
0.2069 1.7586 0.0000
0.2069 1.7931 0.0000
0.2069 1.8276 0.0000
0.2069 1.8621 0.0000
0.2069 1.8966 0.0000
0.2069 1.9310 0.0000
0.2069 1.9655 0.0000
0.2069 2.0000 0.0000
0.2759 1.0000 0.0000
0.2759 1.0345 0.0000
0.2759 1.0690 0.0000
0.2759 1.1034 0.0000
0.2759 1.1379 0.0000
0.2759 1.1724 0.0000
0.2759 1.2069 0.0000
0.2759 1.2414 0.0000
0.2759 1.2759 0.0000
0.2759 1.3103 0.0000
0.2759 1.3448 0.0000
0.2759 1.3793 0.0000
0.2759 1.4138 0.0000
0.2759 1.4483 0.0000
0.2759 1.4828 0.0000
0.2759 1.5172 0.0000
0.2759 1.5517 0.0000
0.2759 1.5862 0.0000
0.2759 1.6207 0.0000
0.2759 1.6552 0.0000
0.2759 1.6897 0.0000
0.2759 1.7241 0.0000
0.2759 1.7586 0.0000
0.2759 1.7931 0.0000
0.2759 1.8276 0.0000
0.2759 1.8621 0.0000
0.2759 1.8966 0.0000
0.2759 1.9310 0.0000
0.2759 1.9655 0.0000
0.2759 2.0000 0.0000
0.3448 1.0000 0.0000
0.3448 1.0345 0.0000
0.3448 1.0690 0.0000
0.3448 1.1034 0.0000
0.3448 1.1379 0.0000
0.3448 1.1724 0.0000
0.3448 1.2069 0.0000
0.3448 1.2414 0.0000
0.3448 1.2759 0.0000
0.3448 1.3103 0.0000
0.3448 1.3448 0.0000
0.3448 1.3793 0.0000
0.3448 1.4138 0.0000
0.3448 1.4483 0.0000
0.3448 1.4828 0.0000
0.3448 1.5172 0.0000
0.3448 1.5517 0.0000
0.3448 1.5862 0.0000
0.3448 1.6207 0.0000
0.3448 1.6552 0.0000
0.3448 1.6897 0.0000
0.3448 1.7241 0.0000
0.3448 1.7586 0.0000
0.3448 1.7931 0.0000
0.3448 1.8276 0.0000
0.3448 1.8621 0.0000
0.3448 1.8966 0.0000
0.3448 1.9310 0.0000
0.3448 1.9655 0.0000
0.3448 2.0000 0.0000
0.4138 1.0000 0.0000
0.4138 1.0345 0.0000
0.4138 1.0690 0.0000
0.4138 1.1034 0.0000
0.4138 1.1379 0.0000
0.4138 1.1724 0.0000
0.4138 1.2069 0.0000
0.4138 1.2414 0.0000
0.4138 1.2759 0.0000
0.4138 1.3103 0.0000
0.4138 1.3448 0.0000
0.4138 1.3793 0.0000
0.4138 1.4138 0.0000
0.4138 1.4483 0.0000
0.4138 1.4828 0.0000
0.4138 1.5172 0.0000
0.4138 1.5517 0.0000
0.4138 1.5862 0.0000
0.4138 1.6207 0.0000
0.4138 1.6552 0.0000
0.4138 1.6897 0.0000
0.4138 1.7241 0.0000
0.4138 1.7586 0.0000
0.4138 1.7931 0.0000
0.4138 1.8276 0.0000
0.4138 1.8621 0.0000
0.4138 1.8966 0.0000
0.4138 1.9310 0.0000
0.4138 1.9655 0.0000
0.4138 2.0000 0.0000
0.4828 1.0000 0.0000
0.4828 1.0345 0.0000
0.4828 1.0690 0.0000
0.4828 1.1034 0.0000
0.4828 1.1379 0.0000
0.4828 1.1724 0.0000
0.4828 1.2069 0.0000
0.4828 1.2414 0.0000
0.4828 1.2759 0.0000
0.4828 1.3103 0.0000
0.4828 1.3448 0.0000
0.4828 1.3793 0.0000
0.4828 1.4138 0.0000
0.4828 1.4483 0.0000
0.4828 1.4828 0.0000
0.4828 1.5172 0.0000
0.4828 1.5517 0.0000
0.4828 1.5862 0.0000
0.4828 1.6207 0.0000
0.4828 1.6552 0.0000
0.4828 1.6897 0.0000
0.4828 1.7241 0.0000
0.4828 1.7586 0.0000
0.4828 1.7931 0.0000
0.4828 1.8276 0.0000
0.4828 1.8621 0.0000
0.4828 1.8966 0.0000
0.4828 1.9310 0.0000
0.4828 1.9655 0.0000
0.4828 2.0000 0.0000
0.5517 1.0000 0.0000
0.5517 1.0345 0.0000
0.5517 1.0690 0.0000
0.5517 1.1034 0.0000
0.5517 1.1379 0.0000
0.5517 1.1724 0.0000
0.5517 1.2069 0.0000
0.5517 1.2414 0.0000
0.5517 1.2759 0.0000
0.5517 1.3103 0.0000
0.5517 1.3448 0.0000
0.5517 1.3793 0.0000
0.5517 1.4138 0.0000
0.5517 1.4483 0.0000
0.5517 1.4828 0.0000
0.5517 1.5172 0.0000
0.5517 1.5517 0.0000
0.5517 1.5862 0.0000
0.5517 1.6207 0.0000
0.5517 1.6552 0.0000
0.5517 1.6897 0.0000
0.5517 1.7241 0.0000
0.5517 1.7586 0.0000
0.5517 1.7931 0.0000
0.5517 1.8276 0.0000
0.5517 1.8621 0.0000
0.5517 1.8966 0.0000
0.5517 1.9310 0.0000
0.5517 1.9655 0.0000
0.5517 2.0000 0.0000
0.6207 1.0000 0.0000
0.6207 1.0345 0.0000
0.6207 1.0690 0.0000
0.6207 1.1034 0.0000
0.6207 1.1379 0.0000
0.6207 1.1724 0.0000
0.6207 1.2069 0.0000
0.6207 1.2414 0.0000
0.6207 1.2759 0.0000
0.6207 1.3103 0.0000
0.6207 1.3448 0.0000
0.6207 1.3793 0.0000
0.6207 1.4138 0.0000
0.6207 1.4483 0.0000
0.6207 1.4828 0.0000
0.6207 1.5172 0.0000
0.6207 1.5517 0.0000
0.6207 1.5862 0.0000
0.6207 1.6207 0.0000
0.6207 1.6552 0.0000
0.6207 1.6897 0.0000
0.6207 1.7241 0.0000
0.6207 1.7586 0.0000
0.6207 1.7931 0.0000
0.6207 1.8276 0.0000
0.6207 1.8621 0.0000
0.6207 1.8966 0.0000
0.6207 1.9310 0.0000
0.6207 1.9655 0.0000
0.6207 2.0000 0.0000
0.6897 1.0000 0.0000
0.6897 1.0345 0.0000
0.6897 1.0690 0.0000
0.6897 1.1034 0.0000
0.6897 1.1379 0.0000
0.6897 1.1724 0.0000
0.6897 1.2069 0.0000
0.6897 1.2414 0.0000
0.6897 1.2759 0.0000
0.6897 1.3103 0.0000
0.6897 1.3448 0.0000
0.6897 1.3793 0.0000
0.6897 1.4138 0.0000
0.6897 1.4483 0.0000
0.6897 1.4828 0.0000
0.6897 1.5172 0.0000
0.6897 1.5517 0.0000
0.6897 1.5862 0.0000
0.6897 1.6207 0.0000
0.6897 1.6552 0.0000
0.6897 1.6897 0.0000
0.6897 1.7241 0.0000
0.6897 1.7586 0.0000
0.6897 1.7931 0.0000
0.6897 1.8276 0.0000
0.6897 1.8621 0.0000
0.6897 1.8966 0.0000
0.6897 1.9310 0.0000
0.6897 1.9655 0.0000
0.6897 2.0000 0.0000
0.7586 1.0000 0.0000
0.7586 1.0345 0.0000
0.7586 1.0690 0.0000
0.7586 1.1034 0.0000
0.7586 1.1379 0.0000
0.7586 1.1724 0.0000
0.7586 1.2069 0.0000
0.7586 1.2414 0.0000
0.7586 1.2759 0.0000
0.7586 1.3103 0.0000
0.7586 1.3448 0.0000
0.7586 1.3793 0.0000
0.7586 1.4138 0.0000
0.7586 1.4483 0.0000
0.7586 1.4828 0.0000
0.7586 1.5172 0.0000
0.7586 1.5517 0.0000
0.7586 1.5862 0.0000
0.7586 1.6207 0.0000
0.7586 1.6552 0.0000
0.7586 1.6897 0.0000
0.7586 1.7241 0.0000
0.7586 1.7586 0.0000
0.7586 1.7931 0.0000
0.7586 1.8276 0.0000
0.7586 1.8621 0.0000
0.7586 1.8966 0.0000
0.7586 1.9310 0.0000
0.7586 1.9655 0.0000
0.7586 2.0000 0.0000
0.8276 1.0000 0.0000
0.8276 1.0345 0.0000
0.8276 1.0690 0.0000
0.8276 1.1034 0.0000
0.8276 1.1379 0.0000
0.8276 1.1724 0.0000
0.8276 1.2069 0.0000
0.8276 1.2414 0.0000
0.8276 1.2759 0.0000
0.8276 1.3103 0.0000
0.8276 1.3448 0.0000
0.8276 1.3793 0.0000
0.8276 1.4138 0.0000
0.8276 1.4483 0.0000
0.8276 1.4828 0.0000
0.8276 1.5172 0.0000
0.8276 1.5517 0.0000
0.8276 1.5862 0.0000
0.8276 1.6207 0.0000
0.8276 1.6552 0.0000
0.8276 1.6897 0.0000
0.8276 1.7241 0.0000
0.8276 1.7586 0.0000
0.8276 1.7931 0.0000
0.8276 1.8276 0.0000
0.8276 1.8621 0.0000
0.8276 1.8966 0.0000
0.8276 1.9310 0.0000
0.8276 1.9655 0.0000
0.8276 2.0000 0.0000
0.8966 1.0000 0.0000
0.8966 1.0345 0.0000
0.8966 1.0690 0.0000
0.8966 1.1034 0.0000
0.8966 1.1379 0.0000
0.8966 1.1724 0.0000
0.8966 1.2069 0.0000
0.8966 1.2414 0.0000
0.8966 1.2759 0.0000
0.8966 1.3103 0.0000
0.8966 1.3448 0.0000
0.8966 1.3793 0.0000
0.8966 1.4138 0.0000
0.8966 1.4483 0.0000
0.8966 1.4828 0.0000
0.8966 1.5172 0.0000
0.8966 1.5517 0.0000
0.8966 1.5862 0.0000
0.8966 1.6207 0.0000
0.8966 1.6552 0.0000
0.8966 1.6897 0.0000
0.8966 1.7241 0.0000
0.8966 1.7586 0.0000
0.8966 1.7931 0.0000
0.8966 1.8276 0.0000
0.8966 1.8621 0.0000
0.8966 1.8966 0.0000
0.8966 1.9310 0.0000
0.8966 1.9655 0.0000
0.8966 2.0000 0.0000
0.9655 1.0000 0.0000
0.9655 1.0345 0.0000
0.9655 1.0690 0.0000
0.9655 1.1034 0.0000
0.9655 1.1379 0.0000
0.9655 1.1724 0.0000
0.9655 1.2069 0.0000
0.9655 1.2414 0.0000
0.9655 1.2759 0.0000
0.9655 1.3103 0.0000
0.9655 1.3448 0.0000
0.9655 1.3793 0.0000
0.9655 1.4138 0.0000
0.9655 1.4483 0.0000
0.9655 1.4828 0.0000
0.9655 1.5172 0.0000
0.9655 1.5517 0.0000
0.9655 1.5862 0.0000
0.9655 1.6207 0.0000
0.9655 1.6552 0.0000
0.9655 1.6897 0.0000
0.9655 1.7241 0.0000
0.9655 1.7586 0.0000
0.9655 1.7931 0.0000
0.9655 1.8276 0.0000
0.9655 1.8621 0.0000
0.9655 1.8966 0.0000
0.9655 1.9310 0.0000
0.9655 1.9655 0.0000
0.9655 2.0000 0.0000
1.0345 1.0000 0.0000
1.0345 1.0345 0.0000
1.0345 1.0690 0.0000
1.0345 1.1034 0.0000
1.0345 1.1379 0.0000
1.0345 1.1724 0.0000
1.0345 1.2069 0.0000
1.0345 1.2414 0.0000
1.0345 1.2759 0.0000
1.0345 1.3103 0.0000
1.0345 1.3448 0.0000
[...]
         <PointData>
            <DataArray Name="fValues" NumberOfComponents="3" format="ascii" type="Float64">
-7.86458e-16 -5.63554e-16        00000 
 1.88397e-16  2.82595e-16        00000 
-4.65752e-17  4.65752e-17        00000 
-2.36999e-16 -2.42851e-16        00000 
 1.16438e-16  2.91095e-16        00000 
 2.60681e-16 -3.10570e-16        00000 
-1.63013e-16  2.32876e-17        00000 
-1.52148e-16 -7.75368e-17        00000 
 2.32876e-17        00000        00000 
 6.68051e-17 -1.91331e-16        00000 
 2.32876e-17  9.31504e-17        00000 
-2.87106e-17 -6.58331e-18        00000 
-2.61986e-17  2.91095e-17        00000 
 6.13790e-18 -6.83680e-17        00000 
-1.45548e-17 -1.16438e-17        00000 
-9.69210e-18  1.75555e-17        00000 
 7.56847e-17  3.49314e-17        00000 
 1.66439e-17 -7.11181e-19        00000 
 1.04794e-16 -1.51369e-16        00000 
-7.31479e-17  4.97406e-17        00000 
 3.02739e-16 -4.65752e-17        00000 
-2.66955e-16  3.43019e-17        00000 
 4.54108e-16 -8.15066e-17        00000 
-1.12648e-16  1.28740e-16        00000 
 5.12327e-16 -2.56164e-16        00000 
-4.47103e-16  2.76890e-16        00000 
-1.16438e-16 -2.32876e-17        00000 
 3.62025e-16 -5.56961e-16        00000 
-2.11386e-16  1.17437e-16        00000 
 7.92205e-16 -2.93592e-17        00000 
-5.46910e+00 -4.57418e+00        00000 
-4.04003e+00 -3.43591e+00        00000 
-3.36016e+00 -2.67796e+00        00000 
-2.89392e+00 -2.14861e+00        00000 
-2.52553e+00 -1.76031e+00        00000 
-2.21080e+00 -1.46564e+00        00000 
-1.92902e+00 -1.23692e+00        00000 
-1.66905e+00 -1.05701e+00        00000 
-1.42429e+00 -9.14714e-01        00000 
-1.19049e+00 -8.02487e-01        00000 
-9.64738e-01 -7.15081e-01        00000 
-7.44882e-01 -6.48807e-01        00000 
-5.29253e-01 -6.01088e-01        00000 
-3.16472e-01 -5.70173e-01        00000 
-1.05337e-01 -5.54974e-01        00000 
 1.05259e-01 -5.54972e-01        00000 
 3.16394e-01 -5.70164e-01        00000 
 5.29175e-01 -6.01074e-01        00000 
 7.44805e-01 -6.48788e-01        00000 
 9.64661e-01 -7.15055e-01        00000 
 1.19042e+00 -8.02456e-01        00000 
 1.42421e+00 -9.14677e-01        00000 
 1.66897e+00 -1.05696e+00        00000 
 1.92895e+00 -1.23687e+00        00000 
 2.21073e+00 -1.46558e+00        00000 
 2.52547e+00 -1.76025e+00        00000 
 2.89386e+00 -2.14854e+00        00000 
 3.36009e+00 -2.67788e+00        00000 
 4.03996e+00 -3.43582e+00        00000 
 5.46900e+00 -4.57408e+00        00000 
-9.68928e+00 -7.39767e+00        00000 
-8.32350e+00 -6.51456e+00        00000 
-7.13160e+00 -5.64118e+00        00000 
-6.18611e+00 -4.89555e+00        00000 
-5.39863e+00 -4.28078e+00        00000 
-4.71480e+00 -3.77831e+00        00000 
-4.10169e+00 -3.36851e+00        00000 
-3.53855e+00 -3.03494e+00        00000 
-3.01172e+00 -2.76463e+00        00000 
-2.51171e+00 -2.54765e+00        00000 
-2.03168e+00 -2.37645e+00        00000 
-1.56641e+00 -2.24541e+00        00000 
-1.11178e+00 -2.15042e+00        00000 
-6.64338e-01 -2.08860e+00        00000 
-2.21047e-01 -2.05812e+00        00000 
 2.20883e-01 -2.05812e+00        00000 
 6.64175e-01 -2.08858e+00        00000 
 1.11162e+00 -2.15039e+00        00000 
 1.56625e+00 -2.24538e+00        00000 
 2.03152e+00 -2.37640e+00        00000 
 2.51155e+00 -2.54759e+00        00000 
 3.01156e+00 -2.76457e+00        00000 
 3.53840e+00 -3.03487e+00        00000 
 4.10154e+00 -3.36843e+00        00000 
 4.71466e+00 -3.77821e+00        00000 
 5.39848e+00 -4.28068e+00        00000 
 6.18596e+00 -4.89544e+00        00000 
 7.13145e+00 -5.64105e+00        00000 
 8.32335e+00 -6.51442e+00        00000 
 9.68913e+00 -7.39754e+00        00000 
-1.36682e+01 -1.03455e+01        00000 
-1.21752e+01 -9.47673e+00        00000 
-1.07873e+01 -8.66116e+00        00000 
-9.52037e+00 -7.90395e+00        00000 
-8.38295e+00 -7.22847e+00        00000 
-7.35406e+00 -6.64096e+00        00000 
-6.41118e+00 -6.13831e+00        00000 
-5.53541e+00 -5.71379e+00        00000 
-4.71182e+00 -5.35988e+00        00000 
-3.92869e+00 -5.06950e+00        00000 
-3.17670e+00 -4.83652e+00        00000 
-2.44830e+00 -4.65593e+00        00000 
-1.73715e+00 -4.52381e+00        00000 
-1.03777e+00 -4.43728e+00        00000 
-3.45258e-01 -4.39447e+00        00000 
 3.45003e-01 -4.39447e+00        00000 
 1.03752e+00 -4.43726e+00        00000 
 1.73689e+00 -4.52378e+00        00000 
 2.44805e+00 -4.65589e+00        00000 
 3.17646e+00 -4.83647e+00        00000 
 3.92845e+00 -5.06943e+00        00000 
 4.71158e+00 -5.35980e+00        00000 
 5.53517e+00 -5.71371e+00        00000 
 6.41095e+00 -6.13821e+00        00000 
 7.35384e+00 -6.64085e+00        00000 
 8.38273e+00 -7.22835e+00        00000 
 9.52015e+00 -7.90382e+00        00000 
 1.07871e+01 -8.66102e+00        00000 
 1.21750e+01 -9.47659e+00        00000 
 1.36680e+01 -1.03453e+01        00000 
-1.75358e+01 -1.35888e+01        00000 
-1.58477e+01 -1.27540e+01        00000 
-1.42420e+01 -1.19673e+01        00000 
-1.27291e+01 -1.12364e+01        00000 
-1.13113e+01 -1.05665e+01        00000 
-9.98555e+00 -9.96418e+00        00000 
-8.74228e+00 -9.43232e+00        00000 
-7.56946e+00 -8.97052e+00        00000 
-6.45529e+00 -8.57646e+00        00000 
-5.38896e+00 -8.24688e+00        00000 
-4.36089e+00 -7.97835e+00        00000 
-3.36262e+00 -7.76768e+00        00000 
-2.38661e+00 -7.61216e+00        00000 
-1.42600e+00 -7.50966e+00        00000 
-4.74454e-01 -7.45877e+00        00000 
 4.74107e-01 -7.45877e+00        00000 
 1.42566e+00 -7.50964e+00        00000 
 2.38626e+00 -7.61213e+00        00000 
 3.36228e+00 -7.76764e+00        00000 
 4.36056e+00 -7.97830e+00        00000 
 5.38863e+00 -8.24681e+00        00000 
 6.45496e+00 -8.57638e+00        00000 
 7.56914e+00 -8.97044e+00        00000 
 8.74196e+00 -9.43222e+00        00000 
 9.98524e+00 -9.96408e+00        00000 
 1.13110e+01 -1.05664e+01        00000 
 1.27288e+01 -1.12363e+01        00000 
 1.42417e+01 -1.19672e+01        00000 
 1.58475e+01 -1.27539e+01        00000 
 1.75356e+01 -1.35887e+01        00000 
-2.12903e+01 -1.72552e+01        00000 
-1.93809e+01 -1.64469e+01        00000 
-1.75489e+01 -1.56903e+01        00000 
-1.57977e+01 -1.49861e+01        00000 
-1.41284e+01 -1.43376e+01        00000 
-1.25386e+01 -1.37474e+01        00000 
-1.10233e+01 -1.32182e+01        00000 
-9.57508e+00 -1.27512e+01        00000 
-8.18553e+00 -1.23466e+01        00000 
-6.84579e+00 -1.20036e+01        00000 
-5.54719e+00 -1.17208e+01        00000 
-4.28146e+00 -1.14969e+01        00000 
-3.04075e+00 -1.13304e+01        00000 
-1.81760e+00 -1.12201e+01        00000 
-6.04863e-01 -1.11651e+01        00000 
 6.04424e-01 -1.11651e+01        00000 
 1.81716e+00 -1.12200e+01        00000 
 3.04031e+00 -1.13303e+01        00000 
 4.28103e+00 -1.14969e+01        00000 
 5.54677e+00 -1.17208e+01        00000 
 6.84537e+00 -1.20035e+01        00000 
 8.18511e+00 -1.23466e+01        00000 
 9.57467e+00 -1.27512e+01        00000 
 1.10229e+01 -1.32181e+01        00000 
 1.25382e+01 -1.37474e+01        00000 
 1.41281e+01 -1.43375e+01        00000 
 1.57974e+01 -1.49860e+01        00000 
 1.75486e+01 -1.56902e+01        00000 
 1.93806e+01 -1.64469e+01        00000 
 2.12900e+01 -1.72551e+01        00000 
-2.49274e+01 -2.13800e+01        00000 
-2.27865e+01 -2.06000e+01        00000 
-2.07233e+01 -1.98718e+01        00000 
-1.87375e+01 -1.91956e+01        00000 
-1.68276e+01 -1.85721e+01        00000 
-1.49906e+01 -1.80030e+01        00000 
-1.32223e+01 -1.74895e+01        00000 
-1.15169e+01 -1.70330e+01        00000 
-9.86786e+00 -1.66342e+01        00000 
-8.26771e+00 -1.62934e+01        00000 
-6.70886e+00 -1.60103e+01        00000 
-5.18359e+00 -1.57848e+01        00000 
-3.68426e+00 -1.56162e+01        00000 
-2.20333e+00 -1.55042e+01        00000 
-7.33403e-01 -1.54482e+01        00000 
 7.32875e-01 -1.54482e+01        00000 
 2.20281e+00 -1.55042e+01        00000 
 3.68373e+00 -1.56162e+01        00000 
 5.18307e+00 -1.57848e+01        00000 
 6.70834e+00 -1.60103e+01        00000 
 8.26721e+00 -1.62933e+01        00000 
 9.86736e+00 -1.66342e+01        00000 
 1.15165e+01 -1.70330e+01        00000 
 1.32218e+01 -1.74895e+01        00000 
 1.49902e+01 -1.80029e+01        00000 
 1.68271e+01 -1.85721e+01        00000 
 1.87371e+01 -1.91956e+01        00000 
 2.07230e+01 -1.98718e+01        00000 
 2.27861e+01 -2.06000e+01        00000 
 2.49271e+01 -2.13800e+01        00000 
-2.84381e+01 -2.59745e+01        00000 
-2.60647e+01 -2.52237e+01        00000 
-2.37710e+01 -2.45244e+01        00000 
-2.15541e+01 -2.38761e+01        00000 
-1.94108e+01 -2.32789e+01        00000 
-1.73371e+01 -2.27335e+01        00000 
-1.53287e+01 -2.22408e+01        00000 
-1.33801e+01 -2.18015e+01        00000 
-1.14852e+01 -2.14163e+01        00000 
-9.63753e+00 -2.10858e+01        00000 
-7.83013e+00 -2.08104e+01        00000 
-6.05581e+00 -2.05901e+01        00000 
-4.30725e+00 -2.04249e+01        00000 
-2.57711e+00 -2.03149e+01        00000 
-8.58015e-01 -2.02599e+01        00000 
 8.57402e-01 -2.02599e+01        00000 
 2.57650e+00 -2.03149e+01        00000 
 4.30665e+00 -2.04249e+01        00000 
 6.05521e+00 -2.05901e+01        00000 
 7.82954e+00 -2.08104e+01        00000 
 9.63694e+00 -2.10858e+01        00000 
 1.14846e+01 -2.14163e+01        00000 
 1.33795e+01 -2.18015e+01        00000 
 1.53282e+01 -2.22408e+01        00000 
 1.73366e+01 -2.27336e+01        00000 
 1.94103e+01 -2.32789e+01        00000 
 2.15536e+01 -2.38761e+01        00000 
 2.37706e+01 -2.45245e+01        00000 
 2.60643e+01 -2.52238e+01        00000 
 2.84378e+01 -2.59746e+01        00000 
-3.18149e+01 -3.10344e+01        00000 
-2.92130e+01 -3.03140e+01        00000 
-2.66929e+01 -2.96439e+01        00000 
-2.42501e+01 -2.90236e+01        00000 
-2.18802e+01 -2.84530e+01        00000 
-1.95786e+01 -2.79323e+01        00000 
-1.73402e+01 -2.74618e+01        00000 
-1.51596e+01 -2.70422e+01        00000 
-1.30308e+01 -2.66740e+01        00000 
-1.09476e+01 -2.63576e+01        00000 
-8.90338e+00 -2.60934e+01        00000 
-6.89133e+00 -2.58818e+01        00000 
-4.90444e+00 -2.57230e+01        00000 
-2.93557e+00 -2.56170e+01        00000 
-9.77550e-01 -2.55640e+01        00000 
 9.76859e-01 -2.55640e+01        00000 
 2.93489e+00 -2.56170e+01        00000 
 4.90376e+00 -2.57230e+01        00000 
 6.89066e+00 -2.58818e+01        00000 
 8.90271e+00 -2.60935e+01        00000 
 1.09469e+01 -2.63576e+01        00000 
 1.30301e+01 -2.66740e+01        00000 
 1.51589e+01 -2.70423e+01        00000 
 1.73396e+01 -2.74619e+01        00000 
 1.95780e+01 -2.79323e+01        00000 
 2.18796e+01 -2.84531e+01        00000 
 2.42495e+01 -2.90237e+01        00000 
 2.66924e+01 -2.96440e+01        00000 
 2.92126e+01 -3.03142e+01        00000 
 3.18145e+01 -3.10346e+01        00000 
-3.50517e+01 -3.65477e+01        00000 
-3.22282e+01 -3.58586e+01        00000 
-2.94881e+01 -3.52181e+01        00000 
-2.68263e+01 -3.46260e+01        00000 
-2.42374e+01 -3.40819e+01        00000 
-2.17162e+01 -3.35860e+01        00000 
-1.92572e+01 -3.31382e+01        00000 
-1.68548e+01 -3.27391e+01        00000 
-1.45029e+01 -3.23888e+01        00000 
-1.21954e+01 -3.20878e+01        00000 
-9.92579e+00 -3.18365e+01        00000 
-7.68744e+00 -3.16350e+01        00000 
-5.47356e+00 -3.14838e+01        00000 
-3.27725e+00 -3.13828e+01        00000 
-1.09149e+00 -3.13323e+01        00000 
 1.09073e+00 -3.13323e+01        00000 
 3.27649e+00 -3.13828e+01        00000 
 5.47281e+00 -3.14838e+01        00000 
 7.68669e+00 -3.16351e+01        00000 
 9.92505e+00 -3.18365e+01        00000 
 1.21947e+01 -3.20879e+01        00000 
 1.45022e+01 -3.23889e+01        00000 
 1.68541e+01 -3.27392e+01        00000 
 1.92566e+01 -3.31383e+01        00000 
 2.17156e+01 -3.35861e+01        00000 
 2.42368e+01 -3.40821e+01        00000 
 2.68257e+01 -3.46262e+01        00000 
 2.94876e+01 -3.52183e+01        00000 
 3.22277e+01 -3.58588e+01        00000 
 3.50513e+01 -3.65480e+01        00000 
-3.81442e+01 -4.24982e+01        00000 
-3.51075e+01 -4.18410e+01        00000 
-3.21556e+01 -4.12306e+01        00000 
-2.92827e+01 -4.06668e+01        00000 
-2.64831e+01 -4.01492e+01        00000 
-2.37511e+01 -3.96778e+01        00000 
-2.10809e+01 -3.92527e+01        00000 
-1.84665e+01 -3.88739e+01        00000 
-1.59019e+01 -3.85418e+01        00000 
-1.33809e+01 -3.82566e+01        00000 
-1.08969e+01 -3.80184e+01        00000 
-8.44353e+00 -3.78275e+01        00000 
-6.01405e+00 -3.76842e+01        00000 
-3.60172e+00 -3.75886e+01        00000 
-1.19970e+00 -3.75408e+01        00000 
 1.19888e+00 -3.75408e+01        00000 
 3.60090e+00 -3.75886e+01        00000 
 6.01324e+00 -3.76843e+01        00000 
 8.44272e+00 -3.78276e+01        00000 
 1.08961e+01 -3.80185e+01        00000 
 1.33801e+01 -3.82567e+01        00000 
 1.59012e+01 -3.85420e+01        00000 
 1.84658e+01 -3.88741e+01        00000 
 2.10802e+01 -3.92529e+01        00000 
 2.37504e+01 -3.96780e+01        00000 
 2.64825e+01 -4.01494e+01        00000 
 2.92821e+01 -4.06670e+01        00000 
 3.21550e+01 -4.12309e+01        00000 
 3.51070e+01 -4.18413e+01        00000 
 3.81438e+01 -4.24985e+01        00000 
-4.10894e+01 -4.88673e+01        00000 
-3.78489e+01 -4.82425e+01        00000 
-3.46941e+01 -4.76626e+01        00000 
-3.16191e+01 -4.71271e+01        00000 
-2.86178e+01 -4.66360e+01        00000 
-2.56842e+01 -4.61890e+01        00000 
-2.28122e+01 -4.57863e+01        00000 
-1.99958e+01 -4.54277e+01        00000 
-1.72288e+01 -4.51135e+01        00000 
-1.45047e+01 -4.48438e+01        00000 
-1.18173e+01 -4.46187e+01        00000 
-9.15993e+00 -4.44384e+01        00000 
-6.52609e+00 -4.43031e+01        00000 
-3.90908e+00 -4.42128e+01        00000 
-1.30219e+00 -4.41676e+01        00000 
 1.30131e+00 -4.41676e+01        00000 
 3.90820e+00 -4.42128e+01        00000 
 6.52522e+00 -4.43032e+01        00000 
 9.15907e+00 -4.44385e+01        00000 
 1.18164e+01 -4.46189e+01        00000 
 1.45039e+01 -4.48440e+01        00000 
 1.72280e+01 -4.51137e+01        00000 
 1.99951e+01 -4.54280e+01        00000 
 2.28115e+01 -4.57865e+01        00000 
 2.56835e+01 -4.61893e+01        00000 
 2.86171e+01 -4.66363e+01        00000 
 3.16184e+01 -4.71275e+01        00000 
 3.46935e+01 -4.76629e+01        00000 
 3.78483e+01 -4.82429e+01        00000 
 4.10889e+01 -4.88678e+01        00000 
-4.38851e+01 -5.56355e+01        00000 
-4.04505e+01 -5.50435e+01        00000 
-3.71025e+01 -5.44941e+01        00000 
-3.38349e+01 -5.39872e+01        00000 
-3.06414e+01 -5.35225e+01        00000 
-2.75158e+01 -5.30998e+01        00000 
-2.44520e+01 -5.27192e+01        00000 
-2.14436e+01 -5.23806e+01        00000 
-1.84844e+01 -5.20840e+01        00000 
-1.55679e+01 -5.18296e+01        00000 
-1.26877e+01 -5.16173e+01        00000 
-9.83726e+00 -5.14473e+01        00000 
-7.01010e+00 -5.13198e+01        00000 
-4.19958e+00 -5.12347e+01        00000 
-1.39906e+00 -5.11921e+01        00000 
 1.39813e+00 -5.11922e+01        00000 
 4.19866e+00 -5.12347e+01        00000 
 7.00919e+00 -5.13199e+01        00000 
 9.83636e+00 -5.14475e+01        00000 
 1.26868e+01 -5.16175e+01        00000 
 1.55670e+01 -5.18298e+01        00000 
 1.84835e+01 -5.20843e+01        00000 
 2.14428e+01 -5.23809e+01        00000 
 2.44512e+01 -5.27195e+01        00000 
 2.75151e+01 -5.31002e+01        00000 
 3.06407e+01 -5.35229e+01        00000 
 3.38342e+01 -5.39877e+01        00000 
 3.71019e+01 -5.44946e+01        00000 
 4.04500e+01 -5.50440e+01        00000 
 4.38846e+01 -5.56360e+01        00000 
-4.65298e+01 -6.27824e+01        00000 
-4.29113e+01 -6.22235e+01        00000 
-3.93800e+01 -6.17050e+01        00000 
-3.59296e+01 -6.12267e+01        00000 
-3.25539e+01 -6.07884e+01        00000 
-2.92463e+01 -6.03899e+01        00000 
-2.60007e+01 -6.00312e+01        00000 
-2.28105e+01 -5.97123e+01        00000 
-1.96694e+01 -5.94330e+01        00000 
-1.65710e+01 -5.91935e+01        00000 
-1.35087e+01 -5.89938e+01        00000 
-1.04761e+01 -5.88339e+01        00000 
-7.46657e+00 -5.87139e+01        00000 
-4.47353e+00 -5.86339e+01        00000 
-1.49039e+00 -5.85939e+01        00000 
 1.48943e+00 -5.85939e+01        00000 
 4.47257e+00 -5.86340e+01        00000 
 7.46562e+00 -5.87140e+01        00000 
 1.04752e+01 -5.88341e+01        00000 
 1.35078e+01 -5.89940e+01        00000 
 1.65701e+01 -5.91938e+01        00000 
 1.96686e+01 -5.94333e+01        00000 
 2.28097e+01 -5.97126e+01        00000 
 2.59998e+01 -6.00316e+01        00000 
 2.92455e+01 -6.03904e+01        00000 
 3.25531e+01 -6.07889e+01        00000 
 3.59290e+01 -6.12272e+01        00000 
 3.93794e+01 -6.17056e+01        00000 
 4.29107e+01 -6.22242e+01        00000 
 4.65293e+01 -6.27831e+01        00000 
-4.90222e+01 -7.02876e+01        00000 
-4.52300e+01 -6.97620e+01        00000 
-4.15257e+01 -6.92746e+01        00000 
-3.79028e+01 -6.88250e+01        00000 
-3.43549e+01 -6.84131e+01        00000 
-3.08756e+01 -6.80387e+01        00000 
-2.74585e+01 -6.77018e+01        00000 
-2.40970e+01 -6.74023e+01        00000 
-2.07846e+01 -6.71401e+01        00000 
-1.75149e+01 -6.69152e+01        00000 
-1.42812e+01 -6.67277e+01        00000 
-1.10770e+01 -6.65777e+01        00000 
-7.89590e+00 -6.64651e+01        00000 
-4.73117e+00 -6.63900e+01        00000 
-1.57629e+00 -6.63524e+01        00000 
 1.57530e+00 -6.63525e+01        00000 
 4.73018e+00 -6.63901e+01        00000 
 7.89492e+00 -6.64652e+01        00000 
 1.10761e+01 -6.65779e+01        00000 
 1.42802e+01 -6.67280e+01        00000 
 1.75139e+01 -6.69155e+01        00000 
 2.07837e+01 -6.71405e+01        00000 
 2.40961e+01 -6.74027e+01        00000 
 2.74577e+01 -6.77023e+01        00000 
 3.08749e+01 -6.80393e+01        00000 
 3.43542e+01 -6.84137e+01        00000 
 3.79021e+01 -6.88256e+01        00000 
 4.15250e+01 -6.92753e+01        00000 
 4.52294e+01 -6.97628e+01        00000 
 4.90217e+01 -7.02885e+01        00000 
-5.13614e+01 -7.81305e+01        00000 
-4.74058e+01 -7.76385e+01        00000 
-4.35388e+01 -7.71822e+01        00000 
-3.97537e+01 -7.67615e+01        00000 
-3.60443e+01 -7.63760e+01        00000 
-3.24038e+01 -7.60257e+01        00000 
-2.88257e+01 -7.57105e+01        00000 
-2.53034e+01 -7.54301e+01        00000 
-2.18303e+01 -7.51847e+01        00000 
-1.83999e+01 -7.49741e+01        00000 
-1.50055e+01 -7.47985e+01        00000 
-1.16406e+01 -7.46580e+01        00000 
-8.29850e+00 -7.45525e+01        00000 
-4.97277e+00 -7.44821e+01        00000 
-1.65684e+00 -7.44469e+01        00000 
 1.65583e+00 -7.44470e+01        00000 
 4.97177e+00 -7.44822e+01        00000 
 8.29751e+00 -7.45526e+01        00000 
 1.16396e+01 -7.46582e+01        00000 
 1.50045e+01 -7.47988e+01        00000 
 1.83990e+01 -7.49745e+01        00000 
 2.18294e+01 -7.51851e+01        00000 
 2.53025e+01 -7.54306e+01        00000 
 2.88248e+01 -7.57110e+01        00000 
 3.24029e+01 -7.60264e+01        00000 
 3.60435e+01 -7.63767e+01        00000 
 3.97530e+01 -7.67622e+01        00000 
 4.35381e+01 -7.71830e+01        00000 
 4.74052e+01 -7.76394e+01        00000 
 5.13608e+01 -7.81315e+01        00000 
-5.35461e+01 -8.62905e+01        00000 
-4.94376e+01 -8.58322e+01        00000 
-4.54183e+01 -8.54074e+01        00000 
-4.14818e+01 -8.50156e+01        00000 
-3.76215e+01 -8.46567e+01        00000 
-3.38305e+01 -8.43303e+01        00000 
-3.01023e+01 -8.40365e+01        00000 
-2.64301e+01 -8.37750e+01        00000 
-2.28072e+01 -8.35459e+01        00000 
-1.92268e+01 -8.33493e+01        00000 
-1.56824e+01 -8.31852e+01        00000 
-1.21672e+01 -8.30538e+01        00000 
-8.67484e+00 -8.29551e+01        00000 
-5.19864e+00 -8.28892e+01        00000 
-1.73214e+00 -8.28563e+01        00000 
 1.73112e+00 -8.28563e+01        00000 
 5.19762e+00 -8.28893e+01        00000 