<?xml version="1.0" encoding="utf-8"?>
<VTKFile byte_order="LittleEndian" type="UnstructuredGrid" version="0.1">
   <UnstructuredGrid>
      <Piece NumberOfCells="3364" NumberOfPoints="1741">
         <Points>
            <DataArray Name="Points" NumberOfComponents="3" format="ascii" type="Float32">
0.0000 1.0000 0.0000
0.0000 1.0345 0.0000
0.0000 1.0690 0.0000
0.0000 1.1034 0.0000
0.0000 1.1379 0.0000
0.0000 1.1724 0.0000
0.0000 1.2069 0.0000
0.0000 1.2414 0.0000
0.0000 1.2759 0.0000
0.0000 1.3103 0.0000
0.0000 1.3448 0.0000
0.0000 1.3793 0.0000
0.0000 1.4138 0.0000
0.0000 1.4483 0.0000
0.0000 1.4828 0.0000
0.0000 1.5172 0.0000
0.0000 1.5517 0.0000
0.0000 1.5862 0.0000
0.0000 1.6207 0.0000
0.0000 1.6552 0.0000
0.0000 1.6897 0.0000
0.0000 1.7241 0.0000
0.0000 1.7586 0.0000
0.0000 1.7931 0.0000
0.0000 1.8276 0.0000
0.0000 1.8621 0.0000
0.0000 1.8966 0.0000
0.0000 1.9310 0.0000
0.0000 1.9655 0.0000
0.0000 2.0000 0.0000
0.0690 1.0000 0.0000
0.0690 1.0345 0.0000
0.0690 1.0690 0.0000
0.0690 1.1034 0.0000
0.0690 1.1379 0.0000
0.0690 1.1724 0.0000
0.0690 1.2069 0.0000
0.0690 1.2414 0.0000
0.0690 1.2759 0.0000
0.0690 1.3103 0.0000
0.0690 1.3448 0.0000
0.0690 1.3793 0.0000
0.0690 1.4138 0.0000
0.0690 1.4483 0.0000
0.0690 1.4828 0.0000
0.0690 1.5172 0.0000
0.0690 1.5517 0.0000
0.0690 1.5862 0.0000
0.0690 1.6207 0.0000
0.0690 1.6552 0.0000
0.0690 1.6897 0.0000
0.0690 1.7241 0.0000
0.0690 1.7586 0.0000
0.0690 1.7931 0.0000
0.0690 1.8276 0.0000
0.0690 1.8621 0.0000
0.0690 1.8966 0.0000
0.0690 1.9310 0.0000
0.0690 1.9655 0.0000
0.0690 2.0000 0.0000
0.1379 1.0000 0.0000
0.1379 1.0345 0.0000
0.1379 1.0690 0.0000
0.1379 1.1034 0.0000
0.1379 1.1379 0.0000
0.1379 1.1724 0.0000
0.1379 1.2069 0.0000
0.1379 1.2414 0.0000
0.1379 1.2759 0.0000
0.1379 1.3103 0.0000
0.1379 1.3448 0.0000
0.1379 1.3793 0.0000
0.1379 1.4138 0.0000
0.1379 1.4483 0.0000
0.1379 1.4828 0.0000
0.1379 1.5172 0.0000
0.1379 1.5517 0.0000
0.1379 1.5862 0.0000
0.1379 1.6207 0.0000
0.1379 1.6552 0.0000
0.1379 1.6897 0.0000
0.1379 1.7241 0.0000
0.1379 1.7586 0.0000
0.1379 1.7931 0.0000
0.1379 1.8276 0.0000
0.1379 1.8621 0.0000
0.1379 1.8966 0.0000
0.1379 1.9310 0.0000
0.1379 1.9655 0.0000
0.1379 2.0000 0.0000
0.2069 1.0000 0.0000
0.2069 1.0345 0.0000
0.2069 1.0690 0.0000
0.2069 1.1034 0.0000
0.2069 1.1379 0.0000
0.2069 1.1724 0.0000
0.2069 1.2069 0.0000
0.2069 1.2414 0.0000
0.2069 1.2759 0.0000
0.2069 1.3103 0.0000
0.2069 1.3448 0.0000
0.2069 1.3793 0.0000
0.2069 1.4138 0.0000
0.2069 1.4483 0.0000
0.2069 1.4828 0.0000
0.2069 1.5172 0.0000
0.2069 1.5517 0.0000
0.2069 1.5862 0.0000
0.2069 1.6207 0.0000
0.2069 1.6552 0.0000
0.2069 1.6897 0.0000
0.2069 1.7241 0.0000
0.2069 1.7586 0.0000
0.2069 1.7931 0.0000
0.2069 1.8276 0.0000
0.2069 1.8621 0.0000
0.2069 1.8966 0.0000
0.2069 1.9310 0.0000
0.2069 1.9655 0.0000
0.2069 2.0000 0.0000
0.2759 1.0000 0.0000
0.2759 1.0345 0.0000
0.2759 1.0690 0.0000
0.2759 1.1034 0.0000
0.2759 1.1379 0.0000
0.2759 1.1724 0.0000
0.2759 1.2069 0.0000
0.2759 1.2414 0.0000
0.2759 1.2759 0.0000
0.2759 1.3103 0.0000
0.2759 1.3448 0.0000
0.2759 1.3793 0.0000
0.2759 1.4138 0.0000
0.2759 1.4483 0.0000
0.2759 1.4828 0.0000
0.2759 1.5172 0.0000
0.2759 1.5517 0.0000
0.2759 1.5862 0.0000
0.2759 1.6207 0.0000
0.2759 1.6552 0.0000
0.2759 1.6897 0.0000
0.2759 1.7241 0.0000
0.2759 1.7586 0.0000
0.2759 1.7931 0.0000
0.2759 1.8276 0.0000
0.2759 1.8621 0.0000
0.2759 1.8966 0.0000
0.2759 1.9310 0.0000
0.2759 1.9655 0.0000
0.2759 2.0000 0.0000
0.3448 1.0000 0.0000
0.3448 1.0345 0.0000
0.3448 1.0690 0.0000
0.3448 1.1034 0.0000
0.3448 1.1379 0.0000
0.3448 1.1724 0.0000
0.3448 1.2069 0.0000
0.3448 1.2414 0.0000
0.3448 1.2759 0.0000
0.3448 1.3103 0.0000
0.3448 1.3448 0.0000
0.3448 1.3793 0.0000
0.3448 1.4138 0.0000
0.3448 1.4483 0.0000
0.3448 1.4828 0.0000
0.3448 1.5172 0.0000
0.3448 1.5517 0.0000
0.3448 1.5862 0.0000
0.3448 1.6207 0.0000
0.3448 1.6552 0.0000
0.3448 1.6897 0.0000
0.3448 1.7241 0.0000
0.3448 1.7586 0.0000
0.3448 1.7931 0.0000
0.3448 1.8276 0.0000
0.3448 1.8621 0.0000
0.3448 1.8966 0.0000
0.3448 1.9310 0.0000
0.3448 1.9655 0.0000
0.3448 2.0000 0.0000
0.4138 1.0000 0.0000
0.4138 1.0345 0.0000
0.4138 1.0690 0.0000
0.4138 1.1034 0.0000
0.4138 1.1379 0.0000
0.4138 1.1724 0.0000
0.4138 1.2069 0.0000
0.4138 1.2414 0.0000
0.4138 1.2759 0.0000
0.4138 1.3103 0.0000
0.4138 1.3448 0.0000
0.4138 1.3793 0.0000
0.4138 1.4138 0.0000
0.4138 1.4483 0.0000
0.4138 1.4828 0.0000
0.4138 1.5172 0.0000
0.4138 1.5517 0.0000
0.4138 1.5862 0.0000
0.4138 1.6207 0.0000
0.4138 1.6552 0.0000
0.4138 1.6897 0.0000
0.4138 1.7241 0.0000
0.4138 1.7586 0.0000
0.4138 1.7931 0.0000
0.4138 1.8276 0.0000
0.4138 1.8621 0.0000
0.4138 1.8966 0.0000
0.4138 1.9310 0.0000
0.4138 1.9655 0.0000
0.4138 2.0000 0.0000
0.4828 1.0000 0.0000
0.4828 1.0345 0.0000
0.4828 1.0690 0.0000
0.4828 1.1034 0.0000
0.4828 1.1379 0.0000
0.4828 1.1724 0.0000
0.4828 1.2069 0.0000
0.4828 1.2414 0.0000
0.4828 1.2759 0.0000
0.4828 1.3103 0.0000
0.4828 1.3448 0.0000
0.4828 1.3793 0.0000
0.4828 1.4138 0.0000
0.4828 1.4483 0.0000
0.4828 1.4828 0.0000
0.4828 1.5172 0.0000
0.4828 1.5517 0.0000
0.4828 1.5862 0.0000
0.4828 1.6207 0.0000
0.4828 1.6552 0.0000
0.4828 1.6897 0.0000
0.4828 1.7241 0.0000
0.4828 1.7586 0.0000
0.4828 1.7931 0.0000
0.4828 1.8276 0.0000
0.4828 1.8621 0.0000
0.4828 1.8966 0.0000
0.4828 1.9310 0.0000
0.4828 1.9655 0.0000
0.4828 2.0000 0.0000
0.5517 1.0000 0.0000
0.5517 1.0345 0.0000
0.5517 1.0690 0.0000
0.5517 1.1034 0.0000
0.5517 1.1379 0.0000
0.5517 1.1724 0.0000
0.5517 1.2069 0.0000
0.5517 1.2414 0.0000
0.5517 1.2759 0.0000
0.5517 1.3103 0.0000
0.5517 1.3448 0.0000
0.5517 1.3793 0.0000
0.5517 1.4138 0.0000
0.5517 1.4483 0.0000
0.5517 1.4828 0.0000
0.5517 1.5172 0.0000
0.5517 1.5517 0.0000
0.5517 1.5862 0.0000
0.5517 1.6207 0.0000
0.5517 1.6552 0.0000
0.5517 1.6897 0.0000
0.5517 1.7241 0.0000
0.5517 1.7586 0.0000
0.5517 1.7931 0.0000
0.5517 1.8276 0.0000
0.5517 1.8621 0.0000
0.5517 1.8966 0.0000
0.5517 1.9310 0.0000
0.5517 1.9655 0.0000
0.5517 2.0000 0.0000
0.6207 1.0000 0.0000
0.6207 1.0345 0.0000
0.6207 1.0690 0.0000
0.6207 1.1034 0.0000
0.6207 1.1379 0.0000
0.6207 1.1724 0.0000
0.6207 1.2069 0.0000
0.6207 1.2414 0.0000
0.6207 1.2759 0.0000
0.6207 1.3103 0.0000
0.6207 1.3448 0.0000
0.6207 1.3793 0.0000
0.6207 1.4138 0.0000
0.6207 1.4483 0.0000
0.6207 1.4828 0.0000
0.6207 1.5172 0.0000
0.6207 1.5517 0.0000
0.6207 1.5862 0.0000
0.6207 1.6207 0.0000
0.6207 1.6552 0.0000
0.6207 1.6897 0.0000
0.6207 1.7241 0.0000
0.6207 1.7586 0.0000
0.6207 1.7931 0.0000
0.6207 1.8276 0.0000
0.6207 1.8621 0.0000
0.6207 1.8966 0.0000
0.6207 1.9310 0.0000
0.6207 1.9655 0.0000
0.6207 2.0000 0.0000
0.6897 1.0000 0.0000
0.6897 1.0345 0.0000
0.6897 1.0690 0.0000
0.6897 1.1034 0.0000
0.6897 1.1379 0.0000
0.6897 1.1724 0.0000
0.6897 1.2069 0.0000
0.6897 1.2414 0.0000
0.6897 1.2759 0.0000
0.6897 1.3103 0.0000
0.6897 1.3448 0.0000
0.6897 1.3793 0.0000
0.6897 1.4138 0.0000
0.6897 1.4483 0.0000
0.6897 1.4828 0.0000
0.6897 1.5172 0.0000
0.6897 1.5517 0.0000
0.6897 1.5862 0.0000
0.6897 1.6207 0.0000
0.6897 1.6552 0.0000
0.6897 1.6897 0.0000
0.6897 1.7241 0.0000
0.6897 1.7586 0.0000
0.6897 1.7931 0.0000
0.6897 1.8276 0.0000
0.6897 1.8621 0.0000
0.6897 1.8966 0.0000
0.6897 1.9310 0.0000
0.6897 1.9655 0.0000
0.6897 2.0000 0.0000
0.7586 1.0000 0.0000
0.7586 1.0345 0.0000
0.7586 1.0690 0.0000
0.7586 1.1034 0.0000
0.7586 1.1379 0.0000
0.7586 1.1724 0.0000
0.7586 1.2069 0.0000
0.7586 1.2414 0.0000
0.7586 1.2759 0.0000
0.7586 1.3103 0.0000
0.7586 1.3448 0.0000
0.7586 1.3793 0.0000
0.7586 1.4138 0.0000
0.7586 1.4483 0.0000
0.7586 1.4828 0.0000
0.7586 1.5172 0.0000
0.7586 1.5517 0.0000
0.7586 1.5862 0.0000
0.7586 1.6207 0.0000
0.7586 1.6552 0.0000
0.7586 1.6897 0.0000
0.7586 1.7241 0.0000
0.7586 1.7586 0.0000
0.7586 1.7931 0.0000
0.7586 1.8276 0.0000
0.7586 1.8621 0.0000
0.7586 1.8966 0.0000
0.7586 1.9310 0.0000
0.7586 1.9655 0.0000
0.7586 2.0000 0.0000
0.8276 1.0000 0.0000
0.8276 1.0345 0.0000
0.8276 1.0690 0.0000
0.8276 1.1034 0.0000
0.8276 1.1379 0.0000
0.8276 1.1724 0.0000
0.8276 1.2069 0.0000
0.8276 1.2414 0.0000
0.8276 1.2759 0.0000
0.8276 1.3103 0.0000
0.8276 1.3448 0.0000
0.8276 1.3793 0.0000
0.8276 1.4138 0.0000
0.8276 1.4483 0.0000
0.8276 1.4828 0.0000
0.8276 1.5172 0.0000
0.8276 1.5517 0.0000
0.8276 1.5862 0.0000
0.8276 1.6207 0.0000
0.8276 1.6552 0.0000
0.8276 1.6897 0.0000
0.8276 1.7241 0.0000
0.8276 1.7586 0.0000
0.8276 1.7931 0.0000
0.8276 1.8276 0.0000
0.8276 1.8621 0.0000
0.8276 1.8966 0.0000
0.8276 1.9310 0.0000
0.8276 1.9655 0.0000
0.8276 2.0000 0.0000
0.8966 1.0000 0.0000
0.8966 1.0345 0.0000
0.8966 1.0690 0.0000
0.8966 1.1034 0.0000
0.8966 1.1379 0.0000
0.8966 1.1724 0.0000
0.8966 1.2069 0.0000
0.8966 1.2414 0.0000
0.8966 1.2759 0.0000
0.8966 1.3103 0.0000
0.8966 1.3448 0.0000
0.8966 1.3793 0.0000
0.8966 1.4138 0.0000
0.8966 1.4483 0.0000
0.8966 1.4828 0.0000
0.8966 1.5172 0.0000
0.8966 1.5517 0.0000
0.8966 1.5862 0.0000
0.8966 1.6207 0.0000
0.8966 1.6552 0.0000
0.8966 1.6897 0.0000
0.8966 1.7241 0.0000
0.8966 1.7586 0.0000
0.8966 1.7931 0.0000
0.8966 1.8276 0.0000
0.8966 1.8621 0.0000
0.8966 1.8966 0.0000
0.8966 1.9310 0.0000
0.8966 1.9655 0.0000
0.8966 2.0000 0.0000
0.9655 1.0000 0.0000
0.9655 1.0345 0.0000
0.9655 1.0690 0.0000
0.9655 1.1034 0.0000
0.9655 1.1379 0.0000
0.9655 1.1724 0.0000
0.9655 1.2069 0.0000
0.9655 1.2414 0.0000
0.9655 1.2759 0.0000
0.9655 1.3103 0.0000
0.9655 1.3448 0.0000
0.9655 1.3793 0.0000
0.9655 1.4138 0.0000
0.9655 1.4483 0.0000
0.9655 1.4828 0.0000
0.9655 1.5172 0.0000
0.9655 1.5517 0.0000
0.9655 1.5862 0.0000
0.9655 1.6207 0.0000
0.9655 1.6552 0.0000
0.9655 1.6897 0.0000
0.9655 1.7241 0.0000
0.9655 1.7586 0.0000
0.9655 1.7931 0.0000
0.9655 1.8276 0.0000
0.9655 1.8621 0.0000
0.9655 1.8966 0.0000
0.9655 1.9310 0.0000
0.9655 1.9655 0.0000
0.9655 2.0000 0.0000
1.0345 1.0000 0.0000
1.0345 1.0345 0.0000
1.0345 1.0690 0.0000
1.0345 1.1034 0.0000
1.0345 1.1379 0.0000
1.0345 1.1724 0.0000
1.0345 1.2069 0.0000
1.0345 1.2414 0.0000
1.0345 1.2759 0.0000
1.0345 1.3103 0.0000
1.0345 1.3448 0.0000
[...]
         <PointData>
            <DataArray Name="fValues" NumberOfComponents="3" format="ascii" type="Float64">
 7.33880e-17  7.92754e-17        00000 
-4.70991e-17 -7.06487e-17        00000 
-2.32876e-17  8.44176e-17        00000 
 4.75462e-17 -2.53275e-17        00000 
-1.92123e-16  2.91095e-18        00000 
 1.23125e-16 -3.78436e-17        00000 
-6.98628e-17  1.74657e-17        00000 
 2.85277e-17 -1.06065e-17        00000 
 7.56847e-17  5.82190e-18        00000 
-6.22857e-17  3.84955e-17        00000 
 2.32876e-17  2.91095e-18        00000 
 1.91099e-17  3.84027e-18        00000 
 1.01883e-17 -5.82190e-18        00000 
-1.71325e-17 -1.48161e-17        00000 
 7.27738e-18  3.49314e-17        00000 
-4.48031e-18  9.14349e-19        00000 
 2.76540e-17  3.78424e-17        00000 
-2.76443e-18  5.33386e-19        00000 
 1.89212e-17  3.20205e-17        00000 
 1.06065e-17 -1.65497e-17        00000 
 5.82190e-17 -1.45548e-18        00000 
 1.35504e-16  8.39655e-18        00000 
-5.23971e-17        00000        00000 
 4.46202e-17  6.49188e-18        00000 
 7.56847e-17 -2.91095e-18        00000 
 3.28893e-17 -3.31015e-17        00000 
-6.98628e-17  2.32876e-17        00000 
 1.31179e-16 -7.85975e-17        00000 
 5.28465e-17 -3.52310e-17        00000 
-1.32116e-17  7.04210e-17        00000 
-1.33416e+00 -9.81549e-01        00000 
-1.05144e+00 -6.87784e-01        00000 
-9.16033e-01 -4.76798e-01        00000 
-8.16879e-01 -3.18371e-01        00000 
-7.32388e-01 -1.94410e-01        00000 
-6.55010e-01 -9.48746e-02        00000 
-5.81510e-01 -1.37435e-02        00000 
-5.10302e-01  5.28288e-02        00000 
-4.40531e-01  1.07418e-01        00000 
-3.71704e-01  1.51813e-01        00000 
-3.03515e-01  1.87283e-01        00000 
-2.35766e-01  2.14740e-01        00000 
-1.68315e-01  2.34832e-01        00000 
-1.01059e-01  2.48004e-01        00000 
-3.39126e-02  2.54535e-01        00000 
 3.31994e-02  2.54561e-01        00000 
 1.00348e-01  2.48081e-01        00000 
 1.67608e-01  2.34961e-01        00000 
 2.35063e-01  2.14921e-01        00000 
 3.02820e-01  1.87516e-01        00000 
 3.71017e-01  1.52098e-01        00000 
 4.39855e-01  1.07757e-01        00000 
 5.09637e-01  5.32225e-02        00000 
 5.80857e-01 -1.32937e-02        00000 
 6.54368e-01 -9.43667e-02        00000 
 7.31754e-01 -1.93840e-01        00000 
 8.16248e-01 -3.17734e-01        00000 
 9.15386e-01 -4.76082e-01        00000 
 1.05073e+00 -6.86966e-01        00000 
 1.33323e+00 -9.80587e-01        00000 
-2.46126e+00 -1.46022e+00        00000 
-2.21520e+00 -1.21184e+00        00000 
-1.97502e+00 -9.63205e-01        00000 
-1.76915e+00 -7.42763e-01        00000 
-1.58473e+00 -5.53174e-01        00000 
-1.41379e+00 -3.91693e-01        00000 
-1.25166e+00 -2.54850e-01        00000 
-1.09551e+00 -1.39525e-01        00000 
-9.43539e-01 -4.31562e-02        00000 
-7.94571e-01  3.62905e-02        00000 
-6.47776e-01  1.00401e-01        00000 
-5.02555e-01  1.50387e-01        00000 
-3.58448e-01  1.87152e-01        00000 
-2.15084e-01  2.11337e-01        00000 
-7.21463e-02  2.23352e-01        00000 
 7.06536e-02  2.23396e-01        00000 
 2.13595e-01  2.11471e-01        00000 
 3.56966e-01  1.87375e-01        00000 
 5.01083e-01  1.50699e-01        00000 
 6.46319e-01  1.00803e-01        00000 
 7.93131e-01  3.67839e-02        00000 
 9.42119e-01 -4.25716e-02        00000 
 1.09411e+00 -1.38848e-01        00000 
 1.25028e+00 -2.54080e-01        00000 
 1.41244e+00 -3.90829e-01        00000 
 1.58340e+00 -5.52214e-01        00000 
 1.76783e+00 -7.41705e-01        00000 
 1.97369e+00 -9.62050e-01        00000 
 2.21383e+00 -1.21059e+00        00000 
 2.45981e+00 -1.45892e+00        00000 
-3.61058e+00 -1.96316e+00        00000 
-3.33126e+00 -1.70416e+00        00000 
-3.04475e+00 -1.45923e+00        00000 
-2.76123e+00 -1.22887e+00        00000 
-2.48866e+00 -1.01885e+00        00000 
-2.22685e+00 -8.31490e-01        00000 
-1.97409e+00 -6.66965e-01        00000 
-1.72858e+00 -5.24488e-01        00000 
-1.48878e+00 -4.02926e-01        00000 
-1.25344e+00 -3.01102e-01        00000 
-1.02155e+00 -2.17934e-01        00000 
-7.92290e-01 -1.52499e-01        00000 
-5.64950e-01 -1.04053e-01        00000 
-3.38924e-01 -7.20434e-02        00000 
-1.13664e-01 -5.61024e-02        00000 
 1.11346e-01 -5.60474e-02        00000 
 3.36612e-01 -7.18785e-02        00000 
 5.62649e-01 -1.03778e-01        00000 
 7.90005e-01 -1.52114e-01        00000 
 1.01929e+00 -2.17441e-01        00000 
 1.25120e+00 -3.00501e-01        00000 
 1.48657e+00 -4.02218e-01        00000 
 1.72641e+00 -5.23673e-01        00000 
 1.97197e+00 -6.66047e-01        00000 
 2.22477e+00 -8.30472e-01        00000 
 2.48662e+00 -1.01774e+00        00000 
 2.75924e+00 -1.22767e+00        00000 
 3.04279e+00 -1.45796e+00        00000 
 3.32934e+00 -1.70284e+00        00000 
 3.60871e+00 -1.96182e+00        00000 
-4.79859e+00 -2.56187e+00        00000 
-4.45770e+00 -2.29860e+00        00000 
-4.10736e+00 -2.05076e+00        00000 
-3.75435e+00 -1.81931e+00        00000 
-3.40332e+00 -1.60523e+00        00000 
-3.05744e+00 -1.41024e+00        00000 
-2.71769e+00 -1.23544e+00        00000 
-2.38397e+00 -1.08124e+00        00000 
-2.05568e+00 -9.47607e-01        00000 
-1.73206e+00 -8.34216e-01        00000 
-1.41233e+00 -7.40637e-01        00000 
-1.09571e+00 -6.66412e-01        00000 
-7.81449e-01 -6.11128e-01        00000 
-4.68849e-01 -5.74449e-01        00000 
-1.57230e-01 -5.56141e-01        00000 
 1.54066e-01 -5.56084e-01        00000 
 4.65692e-01 -5.74280e-01        00000 
 7.78308e-01 -6.10848e-01        00000 
 1.09259e+00 -6.66022e-01        00000 
 1.40925e+00 -7.40138e-01        00000 
 1.72902e+00 -8.33612e-01        00000 
 2.05268e+00 -9.46901e-01        00000 
 2.38103e+00 -1.08044e+00        00000 
 2.71482e+00 -1.23455e+00        00000 
 3.05464e+00 -1.40927e+00        00000 
 3.40060e+00 -1.60418e+00        00000 
 3.75172e+00 -1.81820e+00        00000 
 4.10484e+00 -2.04962e+00        00000 
 4.45531e+00 -2.29745e+00        00000 
 4.79634e+00 -2.56074e+00        00000 
-6.01597e+00 -3.30382e+00        00000 
-5.59961e+00 -3.03580e+00        00000 
-5.17515e+00 -2.78581e+00        00000 
-4.74657e+00 -2.55336e+00        00000 
-4.31729e+00 -2.33875e+00        00000 
-3.88977e+00 -2.14250e+00        00000 
-3.46562e+00 -1.96527e+00        00000 
-3.04561e+00 -1.80759e+00        00000 
-2.62987e+00 -1.66976e+00        00000 
-2.21820e+00 -1.55188e+00        00000 
-1.81014e+00 -1.45393e+00        00000 
-1.40512e+00 -1.37581e+00        00000 
-1.00250e+00 -1.31737e+00        00000 
-6.01608e-01 -1.27848e+00        00000 
-2.01758e-01 -1.25904e+00        00000 
 1.97749e-01 -1.25899e+00        00000 
 5.97610e-01 -1.27833e+00        00000 
 9.98522e-01 -1.31713e+00        00000 
 1.40117e+00 -1.37548e+00        00000 
 1.80624e+00 -1.45351e+00        00000 
 2.21435e+00 -1.55137e+00        00000 
 2.62610e+00 -1.66917e+00        00000 
 3.04191e+00 -1.80693e+00        00000 
 3.46202e+00 -1.96455e+00        00000 
 3.88628e+00 -2.14173e+00        00000 
 4.31393e+00 -2.33794e+00        00000 
 4.74335e+00 -2.55253e+00        00000 
 5.17210e+00 -2.78499e+00        00000 
 5.59676e+00 -3.03500e+00        00000 
 6.01335e+00 -3.30309e+00        00000 
-7.25597e+00 -4.20933e+00        00000 
-6.75600e+00 -3.93782e+00        00000 
-6.25010e+00 -3.68586e+00        00000 
-5.74068e+00 -3.45282e+00        00000 
-5.22998e+00 -3.23843e+00        00000 
-4.71981e+00 -3.04274e+00        00000 
-4.21154e+00 -2.86598e+00        00000 
-3.70604e+00 -2.70840e+00        00000 
-3.20373e+00 -2.57025e+00        00000 
-2.70468e+00 -2.45172e+00        00000 
-2.20871e+00 -2.35291e+00        00000 
-1.71544e+00 -2.27387e+00        00000 
-1.22438e+00 -2.21460e+00        00000 
-7.34935e-01 -2.17510e+00        00000 
-2.46479e-01 -2.15533e+00        00000 
 2.41650e-01 -2.15530e+00        00000 
 7.30121e-01 -2.17500e+00        00000 
 1.21959e+00 -2.21444e+00        00000 
 1.71070e+00 -2.27365e+00        00000 
 2.20403e+00 -2.35263e+00        00000 
 2.70007e+00 -2.45139e+00        00000 
 3.19920e+00 -2.56988e+00        00000 
 3.70162e+00 -2.70799e+00        00000 
 4.20726e+00 -2.86555e+00        00000 
 4.71567e+00 -3.04231e+00        00000 
 5.22601e+00 -3.23800e+00        00000 
 5.73692e+00 -3.45242e+00        00000 
 6.24656e+00 -3.68551e+00        00000 
 6.75273e+00 -3.93754e+00        00000 
 7.25299e+00 -4.20915e+00        00000 
-8.51243e+00 -5.29064e+00        00000 
-7.92394e+00 -5.01657e+00        00000 
-7.33170e+00 -4.76320e+00        00000 
-6.73724e+00 -4.52980e+00        00000 
-6.14199e+00 -4.31594e+00        00000 
-5.54720e+00 -4.12135e+00        00000 
-4.95386e+00 -3.94597e+00        00000 
-4.36268e+00 -3.78983e+00        00000 
-3.77406e+00 -3.65299e+00        00000 
-3.18815e+00 -3.53556e+00        00000 
-2.60487e+00 -3.43761e+00        00000 
-2.02396e+00 -3.35920e+00        00000 
-1.44501e+00 -3.30036e+00        00000 
-8.67527e-01 -3.26113e+00        00000 
-2.90945e-01 -3.24150e+00        00000 
 2.85338e-01 -3.24149e+00        00000 
 8.61939e-01 -3.26109e+00        00000 
 1.43946e+00 -3.30031e+00        00000 
 2.01846e+00 -3.35913e+00        00000 
 2.59945e+00 -3.43753e+00        00000 
 3.18282e+00 -3.53548e+00        00000 
 3.76884e+00 -3.65292e+00        00000 
 4.35759e+00 -3.78977e+00        00000 
 4.94893e+00 -3.94594e+00        00000 
 5.54246e+00 -4.12136e+00        00000 
 6.13746e+00 -4.31600e+00        00000 
 6.73296e+00 -4.52994e+00        00000 
 7.32770e+00 -4.76343e+00        00000 
 7.92025e+00 -5.01692e+00        00000 
 8.50911e+00 -5.29113e+00        00000 
-9.78048e+00 -6.55523e+00        00000 
-9.10018e+00 -6.27947e+00        00000 
-8.41825e+00 -6.02526e+00        00000 
-7.73564e+00 -5.79188e+00        00000 
-7.05328e+00 -5.57875e+00        00000 
-6.37196e+00 -5.38547e+00        00000 
-5.69233e+00 -5.21178e+00        00000 
-5.01488e+00 -5.05750e+00        00000 
-4.33987e+00 -4.92256e+00        00000 
-3.66739e+00 -4.80690e+00        00000 
-2.99733e+00 -4.71052e+00        00000 
-2.32947e+00 -4.63341e+00        00000 
-1.66344e+00 -4.57557e+00        00000 
-9.98768e-01 -4.53702e+00        00000 
-3.34940e-01 -4.51775e+00        00000 
 3.28610e-01 -4.51777e+00        00000 
 9.92459e-01 -4.53707e+00        00000 
 1.65717e+00 -4.57566e+00        00000 
 2.32327e+00 -4.63353e+00        00000 
 2.99122e+00 -4.71068e+00        00000 
 3.66138e+00 -4.80712e+00        00000 
 4.33401e+00 -4.92284e+00        00000 
 5.00918e+00 -5.05785e+00        00000 
 5.68682e+00 -5.21221e+00        00000 
 6.36666e+00 -5.38600e+00        00000 
 7.04823e+00 -5.57939e+00        00000 
 7.73089e+00 -5.79264e+00        00000 
 8.41382e+00 -6.02618e+00        00000 
 9.09611e+00 -6.28055e+00        00000 
 9.77683e+00 -6.55649e+00        00000 
-1.10560e+01 -8.00830e+00        00000 
-1.02816e+01 -7.73163e+00        00000 
-9.50755e+00 -7.47720e+00        00000 
-8.73455e+00 -7.24424e+00        00000 
-7.96312e+00 -7.03214e+00        00000 
-7.19373e+00 -6.84035e+00        00000 
-6.42676e+00 -6.66849e+00        00000 
-5.66243e+00 -6.51624e+00        00000 
-4.90086e+00 -6.38337e+00        00000 
-4.14199e+00 -6.26971e+00        00000 
-3.38565e+00 -6.17513e+00        00000 
-2.63155e+00 -6.09957e+00        00000 
-1.87930e+00 -6.04295e+00        00000 
-1.12842e+00 -6.00523e+00        00000 
-3.78376e-01 -5.98641e+00        00000 
 3.71387e-01 -5.98645e+00        00000 
 1.12145e+00 -6.00538e+00        00000 
 1.87238e+00 -6.04318e+00        00000 
 2.62471e+00 -6.09991e+00        00000 
 3.37891e+00 -6.17558e+00        00000 
 4.13538e+00 -6.27027e+00        00000 
 4.89441e+00 -6.38405e+00        00000 
 5.65617e+00 -6.51706e+00        00000 
 6.42071e+00 -6.66945e+00        00000 
 7.18794e+00 -6.84147e+00        00000 
 7.95761e+00 -7.03342e+00        00000 
 8.72936e+00 -7.24571e+00        00000 
 9.50273e+00 -7.47887e+00        00000 
 1.02772e+01 -7.73352e+00        00000 
 1.10521e+01 -8.01043e+00        00000 
-1.23354e+01 -9.65380e+00        00000 
-1.14650e+01 -9.37697e+00        00000 
-1.05971e+01 -9.12295e+00        00000 
-9.73210e+00 -8.89093e+00        00000 
-8.87020e+00 -8.68021e+00        00000 
-8.01164e+00 -8.49019e+00        00000 
-7.15654e+00 -8.32034e+00        00000 
-6.30494e+00 -8.17023e+00        00000 
-5.45673e+00 -8.03953e+00        00000 
-4.61172e+00 -7.92794e+00        00000 
-3.76961e+00 -7.83526e+00        00000 
-2.93001e+00 -7.76131e+00        00000 
-2.09244e+00 -7.70597e+00        00000 
-1.25637e+00 -7.66914e+00        00000 
-4.21217e-01 -7.65079e+00        00000 
 4.13641e-01 -7.65087e+00        00000 
 1.24883e+00 -7.66939e+00        00000 
 2.08495e+00 -7.70637e+00        00000 
 2.92260e+00 -7.76189e+00        00000 
 3.76232e+00 -7.83601e+00        00000 
 4.60457e+00 -7.92888e+00        00000 
 5.44976e+00 -8.04065e+00        00000 
 6.29818e+00 -8.17155e+00        00000 
 7.15003e+00 -8.32186e+00        00000 
 8.00540e+00 -8.49193e+00        00000 
 8.86427e+00 -8.68219e+00        00000 
 9.72653e+00 -8.89316e+00        00000 
 1.05920e+01 -9.12544e+00        00000 
 1.14603e+01 -9.37974e+00        00000 
 1.23312e+01 -9.65686e+00        00000 
-1.36151e+01 -1.14949e+01        00000 
-1.26474e+01 -1.12187e+01        00000 
-1.16843e+01 -1.09658e+01        00000 
-1.07260e+01 -1.07353e+01        00000 
-9.77271e+00 -1.05264e+01        00000 
-8.82427e+00 -1.03385e+01        00000 
-7.88062e+00 -1.01710e+01        00000 
-6.94159e+00 -1.00232e+01        00000 
-6.00688e+00 -9.89480e+00        00000 
-5.07613e+00 -9.78538e+00        00000 
-4.14888e+00 -9.69464e+00        00000 
-3.22461e+00 -9.62235e+00        00000 
-2.30271e+00 -9.56831e+00        00000 
-1.38255e+00 -9.53240e+00        00000 
-4.63431e-01 -9.51452e+00        00000 
 4.55342e-01 -9.51464e+00        00000 
 1.37449e+00 -9.53275e+00        00000 
 2.29472e+00 -9.56890e+00        00000 
 3.21671e+00 -9.62318e+00        00000 
 4.14111e+00 -9.69572e+00        00000 
 5.06852e+00 -9.78671e+00        00000 
 5.99946e+00 -9.89638e+00        00000 
 6.93440e+00 -1.00251e+01        00000 
 7.87370e+00 -1.01731e+01        00000 
 8.81764e+00 -1.03410e+01        00000 
 9.76642e+00 -1.05292e+01        00000 
 1.07201e+01 -1.07383e+01        00000 
 1.16788e+01 -1.09692e+01        00000 
 1.26424e+01 -1.12224e+01        00000 
 1.36106e+01 -1.14990e+01        00000 
-1.48916e+01 -1.35344e+01        00000 
-1.38252e+01 -1.32597e+01        00000 
-1.27660e+01 -1.30086e+01        00000 
-1.17137e+01 -1.27803e+01        00000 
-1.06684e+01 -1.25738e+01        00000 
-9.62975e+00 -1.23885e+01        00000 
-8.59748e+00 -1.22236e+01        00000 
-7.57119e+00 -1.20785e+01        00000 
-6.55039e+00 -1.19526e+01        00000 
-5.53452e+00 -1.18455e+01        00000 
-4.52294e+00 -1.17568e+01        00000 
-3.51496e+00 -1.16862e+01        00000 
-2.50984e+00 -1.16335e+01        00000 
-1.50678e+00 -1.15985e+01        00000 
-5.04967e-01 -1.15812e+01        00000 
 4.96444e-01 -1.15813e+01        00000 
 1.49829e+00 -1.15990e+01        00000 
 2.50142e+00 -1.16343e+01        00000 
 3.50665e+00 -1.16873e+01        00000 
 4.51476e+00 -1.17582e+01        00000 
 5.52651e+00 -1.18472e+01        00000 
 6.54259e+00 -1.19546e+01        00000 
 7.56364e+00 -1.20809e+01        00000 
 8.59021e+00 -1.22264e+01        00000 
 9.62281e+00 -1.23917e+01        00000 
 1.06618e+01 -1.25773e+01        00000 
 1.17075e+01 -1.27841e+01        00000 
 1.27602e+01 -1.30128e+01        00000 
 1.38200e+01 -1.32643e+01        00000 
 1.48869e+01 -1.35395e+01        00000 
-1.61607e+01 -1.57746e+01        00000 
-1.49949e+01 -1.55022e+01        00000 
-1.38388e+01 -1.52538e+01        00000 
-1.26921e+01 -1.50285e+01        00000 
-1.15546e+01 -1.48251e+01        00000 
-1.04258e+01 -1.46430e+01        00000 
-9.30518e+00 -1.44812e+01        00000 
-8.19214e+00 -1.43390e+01        00000 
-7.08595e+00 -1.42159e+01        00000 
-5.98585e+00 -1.41113e+01        00000 
-4.89100e+00 -1.40248e+01        00000 
-3.80051e+00 -1.39561e+01        00000 
-2.71345e+00 -1.39048e+01        00000 
-1.62886e+00 -1.38708e+01        00000 
-5.45751e-01 -1.38539e+01        00000 
 5.36874e-01 -1.38541e+01        00000 
 1.62002e+00 -1.38713e+01        00000 
 2.70468e+00 -1.39057e+01        00000 
 3.79185e+00 -1.39574e+01        00000 
 4.88249e+00 -1.40266e+01        00000 
 5.97752e+00 -1.41135e+01        00000 
 7.07785e+00 -1.42185e+01        00000 
 8.18429e+00 -1.43420e+01        00000 
 9.29764e+00 -1.44846e+01        00000 
 1.04186e+01 -1.46468e+01        00000 
 1.15478e+01 -1.48294e+01        00000 
 1.26857e+01 -1.50332e+01        00000 
 1.38328e+01 -1.52590e+01        00000 
 1.49895e+01 -1.55079e+01        00000 
 1.61559e+01 -1.57808e+01        00000 
-1.74183e+01 -1.82175e+01        00000 
-1.61523e+01 -1.79484e+01        00000 
-1.48989e+01 -1.77037e+01        00000 
-1.36577e+01 -1.74821e+01        00000 
-1.24282e+01 -1.72826e+01        00000 
-1.12097e+01 -1.71043e+01        00000 
-1.00014e+01 -1.69461e+01        00000 
-8.80252e+00 -1.68073e+01        00000 
-7.61201e+00 -1.66873e+01        00000 
-6.42889e+00 -1.65855e+01        00000 
-5.25211e+00 -1.65014e+01        00000 
-4.08054e+00 -1.64345e+01        00000 
-2.91305e+00 -1.63847e+01        00000 
-1.74850e+00 -1.63517e+01        00000 
-5.85691e-01 -1.63353e+01        00000 
 5.76542e-01 -1.63356e+01        00000 
 1.73939e+00 -1.63524e+01        00000 
 2.90402e+00 -1.63859e+01        00000 
 4.07162e+00 -1.64362e+01        00000 
 5.24334e+00 -1.65035e+01        00000 
 6.42033e+00 -1.65881e+01        00000 
 7.60367e+00 -1.66904e+01        00000 
 8.79446e+00 -1.68109e+01        00000 
 9.99369e+00 -1.69502e+01        00000 
 1.12023e+01 -1.71089e+01        00000 
 1.24212e+01 -1.72878e+01        00000 
 1.36512e+01 -1.74878e+01        00000 
 1.48928e+01 -1.77099e+01        00000 
 1.61468e+01 -1.79551e+01        00000 
 1.74134e+01 -1.82248e+01        00000 
-1.86595e+01 -2.08645e+01        00000 
-1.72928e+01 -2.05999e+01        00000 
-1.59421e+01 -2.03599e+01        00000 
-1.46067e+01 -2.01431e+01        00000 
-1.32858e+01 -1.99483e+01        00000 
-1.19785e+01 -1.97745e+01        00000 
-1.06836e+01 -1.96205e+01        00000 
-9.40017e+00 -1.94856e+01        00000 
-8.12681e+00 -1.93690e+01        00000 
-6.86226e+00 -1.92701e+01        00000 
-5.60520e+00 -1.91884e+01        00000 
-4.35428e+00 -1.91236e+01        00000 
-3.10813e+00 -1.90753e+01        00000 
-1.86539e+00 -1.90433e+01        00000 
-6.24689e-01 -1.90275e+01        00000 
 6.15348e-01 -1.90277e+01        00000 
 1.85609e+00 -1.90441e+01        00000 
 3.09891e+00 -1.90767e+01        00000 
 4.34518e+00 -1.91255e+01        00000 
 5.59626e+00 -1.91909e+01        00000 
 6.85353e+00 -1.92732e+01        00000 
 8.11832e+00 -1.93726e+01        00000 
 9.39197e+00 -1.94898e+01        00000 
 1.06758e+01 -1.96253e+01        00000 
 1.19709e+01 -1.97798e+01        00000 
 1.32787e+01 -1.99543e+01        00000 
 1.46000e+01 -2.01497e+01        00000 
 1.59359e+01 -2.03671e+01        00000 
 1.72872e+01 -2.06077e+01        00000 
 1.86544e+01 -2.08729e+01        00000 
-1.98784e+01 -2.37167e+01        00000 
-1.84110e+01 -2.34579e+01        00000 
-1.69633e+01 -2.32239e+01        00000 
-1.55345e+01 -2.30129e+01        00000 
-1.41234e+01 -2.28238e+01        00000 
-1.27287e+01 -2.26551e+01        00000 
-1.13490e+01 -2.25059e+01        00000 
-9.98281e+00 -2.23752e+01        00000 
-8.62853e+00 -2.22623e+01        00000 
-7.28454e+00 -2.21665e+01        00000 
-5.94923e+00 -2.20874e+01        00000 
-4.62098e+00 -2.20245e+01        00000 
-3.29819e+00 -2.19777e+01        00000 
-1.97927e+00 -2.19467e+01        00000 
-6.62655e-01 -2.19313e+01        00000 
 6.53203e-01 -2.19317e+01        00000 
 1.96986e+00 -2.19476e+01        00000 