<?xml version="1.0" encoding="utf-8"?>
<VTKFile byte_order="LittleEndian" type="UnstructuredGrid" version="0.1">
   <UnstructuredGrid>
      <Piece NumberOfCells="3364" NumberOfPoints="1741">
         <Points>
            <DataArray Name="Points" NumberOfComponents="3" format="ascii" type="Float32">
0.0000 1.0000 0.0000
0.0000 1.0345 0.0000
0.0000 1.0690 0.0000
0.0000 1.1034 0.0000
0.0000 1.1379 0.0000
0.0000 1.1724 0.0000
0.0000 1.2069 0.0000
0.0000 1.2414 0.0000
0.0000 1.2759 0.0000
0.0000 1.3103 0.0000
0.0000 1.3448 0.0000
0.0000 1.3793 0.0000
0.0000 1.4138 0.0000
0.0000 1.4483 0.0000
0.0000 1.4828 0.0000
0.0000 1.5172 0.0000
0.0000 1.5517 0.0000
0.0000 1.5862 0.0000
0.0000 1.6207 0.0000
0.0000 1.6552 0.0000
0.0000 1.6897 0.0000
0.0000 1.7241 0.0000
0.0000 1.7586 0.0000
0.0000 1.7931 0.0000
0.0000 1.8276 0.0000
0.0000 1.8621 0.0000
0.0000 1.8966 0.0000
0.0000 1.9310 0.0000
0.0000 1.9655 0.0000
0.0000 2.0000 0.0000
0.0690 1.0000 0.0000
0.0690 1.0345 0.0000
0.0690 1.0690 0.0000
0.0690 1.1034 0.0000
0.0690 1.1379 0.0000
0.0690 1.1724 0.0000
0.0690 1.2069 0.0000
0.0690 1.2414 0.0000
0.0690 1.2759 0.0000
0.0690 1.3103 0.0000
0.0690 1.3448 0.0000
0.0690 1.3793 0.0000
0.0690 1.4138 0.0000
0.0690 1.4483 0.0000
0.0690 1.4828 0.0000
0.0690 1.5172 0.0000
0.0690 1.5517 0.0000
0.0690 1.5862 0.0000
0.0690 1.6207 0.0000
0.0690 1.6552 0.0000
0.0690 1.6897 0.0000
0.0690 1.7241 0.0000
0.0690 1.7586 0.0000
0.0690 1.7931 0.0000
0.0690 1.8276 0.0000
0.0690 1.8621 0.0000
0.0690 1.8966 0.0000
0.0690 1.9310 0.0000
0.0690 1.9655 0.0000
0.0690 2.0000 0.0000
0.1379 1.0000 0.0000
0.1379 1.0345 0.0000
0.1379 1.0690 0.0000
0.1379 1.1034 0.0000
0.1379 1.1379 0.0000
0.1379 1.1724 0.0000
0.1379 1.2069 0.0000
0.1379 1.2414 0.0000
0.1379 1.2759 0.0000
0.1379 1.3103 0.0000
0.1379 1.3448 0.0000
0.1379 1.3793 0.0000
0.1379 1.4138 0.0000
0.1379 1.4483 0.0000
0.1379 1.4828 0.0000
0.1379 1.5172 0.0000
0.1379 1.5517 0.0000
0.1379 1.5862 0.0000
0.1379 1.6207 0.0000
0.1379 1.6552 0.0000
0.1379 1.6897 0.0000
0.1379 1.7241 0.0000
0.1379 1.7586 0.0000
0.1379 1.7931 0.0000
0.1379 1.8276 0.0000
0.1379 1.8621 0.0000
0.1379 1.8966 0.0000
0.1379 1.9310 0.0000
0.1379 1.9655 0.0000
0.1379 2.0000 0.0000
0.2069 1.0000 0.0000
0.2069 1.0345 0.0000
0.2069 1.0690 0.0000
0.2069 1.1034 0.0000
0.2069 1.1379 0.0000
0.2069 1.1724 0.0000
0.2069 1.2069 0.0000
0.2069 1.2414 0.0000
0.2069 1.2759 0.0000
0.2069 1.3103 0.0000
0.2069 1.3448 0.0000
0.2069 1.3793 0.0000
0.2069 1.4138 0.0000
0.2069 1.4483 0.0000
0.2069 1.4828 0.0000
0.2069 1.5172 0.0000
0.2069 1.5517 0.0000
0.2069 1.5862 0.0000
0.2069 1.6207 0.0000
0.2069 1.6552 0.0000
0.2069 1.6897 0.0000
0.2069 1.7241 0.0000
0.2069 1.7586 0.0000
0.2069 1.7931 0.0000
0.2069 1.8276 0.0000
0.2069 1.8621 0.0000
0.2069 1.8966 0.0000
0.2069 1.9310 0.0000
0.2069 1.9655 0.0000
0.2069 2.0000 0.0000
0.2759 1.0000 0.0000
0.2759 1.0345 0.0000
0.2759 1.0690 0.0000
0.2759 1.1034 0.0000
0.2759 1.1379 0.0000
0.2759 1.1724 0.0000
0.2759 1.2069 0.0000
0.2759 1.2414 0.0000
0.2759 1.2759 0.0000
0.2759 1.3103 0.0000
0.2759 1.3448 0.0000
0.2759 1.3793 0.0000
0.2759 1.4138 0.0000
0.2759 1.4483 0.0000
0.2759 1.4828 0.0000
0.2759 1.5172 0.0000
0.2759 1.5517 0.0000
0.2759 1.5862 0.0000
0.2759 1.6207 0.0000
0.2759 1.6552 0.0000
0.2759 1.6897 0.0000
0.2759 1.7241 0.0000
0.2759 1.7586 0.0000
0.2759 1.7931 0.0000
0.2759 1.8276 0.0000
0.2759 1.8621 0.0000
0.2759 1.8966 0.0000
0.2759 1.9310 0.0000
0.2759 1.9655 0.0000
0.2759 2.0000 0.0000
0.3448 1.0000 0.0000
0.3448 1.0345 0.0000
0.3448 1.0690 0.0000
0.3448 1.1034 0.0000
0.3448 1.1379 0.0000
0.3448 1.1724 0.0000
0.3448 1.2069 0.0000
0.3448 1.2414 0.0000
0.3448 1.2759 0.0000
0.3448 1.3103 0.0000
0.3448 1.3448 0.0000
0.3448 1.3793 0.0000
0.3448 1.4138 0.0000
0.3448 1.4483 0.0000
0.3448 1.4828 0.0000
0.3448 1.5172 0.0000
0.3448 1.5517 0.0000
0.3448 1.5862 0.0000
0.3448 1.6207 0.0000
0.3448 1.6552 0.0000
0.3448 1.6897 0.0000
0.3448 1.7241 0.0000
0.3448 1.7586 0.0000
0.3448 1.7931 0.0000
0.3448 1.8276 0.0000
0.3448 1.8621 0.0000
0.3448 1.8966 0.0000
0.3448 1.9310 0.0000
0.3448 1.9655 0.0000
0.3448 2.0000 0.0000
0.4138 1.0000 0.0000
0.4138 1.0345 0.0000
0.4138 1.0690 0.0000
0.4138 1.1034 0.0000
0.4138 1.1379 0.0000
0.4138 1.1724 0.0000
0.4138 1.2069 0.0000
0.4138 1.2414 0.0000
0.4138 1.2759 0.0000
0.4138 1.3103 0.0000
0.4138 1.3448 0.0000
0.4138 1.3793 0.0000
0.4138 1.4138 0.0000
0.4138 1.4483 0.0000
0.4138 1.4828 0.0000
0.4138 1.5172 0.0000
0.4138 1.5517 0.0000
0.4138 1.5862 0.0000
0.4138 1.6207 0.0000
0.4138 1.6552 0.0000
0.4138 1.6897 0.0000
0.4138 1.7241 0.0000
0.4138 1.7586 0.0000
0.4138 1.7931 0.0000
0.4138 1.8276 0.0000
0.4138 1.8621 0.0000
0.4138 1.8966 0.0000
0.4138 1.9310 0.0000
0.4138 1.9655 0.0000
0.4138 2.0000 0.0000
0.4828 1.0000 0.0000
0.4828 1.0345 0.0000
0.4828 1.0690 0.0000
0.4828 1.1034 0.0000
0.4828 1.1379 0.0000
0.4828 1.1724 0.0000
0.4828 1.2069 0.0000
0.4828 1.2414 0.0000
0.4828 1.2759 0.0000
0.4828 1.3103 0.0000
0.4828 1.3448 0.0000
0.4828 1.3793 0.0000
0.4828 1.4138 0.0000
0.4828 1.4483 0.0000
0.4828 1.4828 0.0000
0.4828 1.5172 0.0000
0.4828 1.5517 0.0000
0.4828 1.5862 0.0000
0.4828 1.6207 0.0000
0.4828 1.6552 0.0000
0.4828 1.6897 0.0000
0.4828 1.7241 0.0000
0.4828 1.7586 0.0000
0.4828 1.7931 0.0000
0.4828 1.8276 0.0000
0.4828 1.8621 0.0000
0.4828 1.8966 0.0000
0.4828 1.9310 0.0000
0.4828 1.9655 0.0000
0.4828 2.0000 0.0000
0.5517 1.0000 0.0000
0.5517 1.0345 0.0000
0.5517 1.0690 0.0000
0.5517 1.1034 0.0000
0.5517 1.1379 0.0000
0.5517 1.1724 0.0000
0.5517 1.2069 0.0000
0.5517 1.2414 0.0000
0.5517 1.2759 0.0000
0.5517 1.3103 0.0000
0.5517 1.3448 0.0000
0.5517 1.3793 0.0000
0.5517 1.4138 0.0000
0.5517 1.4483 0.0000
0.5517 1.4828 0.0000
0.5517 1.5172 0.0000
0.5517 1.5517 0.0000
0.5517 1.5862 0.0000
0.5517 1.6207 0.0000
0.5517 1.6552 0.0000
0.5517 1.6897 0.0000
0.5517 1.7241 0.0000
0.5517 1.7586 0.0000
0.5517 1.7931 0.0000
0.5517 1.8276 0.0000
0.5517 1.8621 0.0000
0.5517 1.8966 0.0000
0.5517 1.9310 0.0000
0.5517 1.9655 0.0000
0.5517 2.0000 0.0000
0.6207 1.0000 0.0000
0.6207 1.0345 0.0000
0.6207 1.0690 0.0000
0.6207 1.1034 0.0000
0.6207 1.1379 0.0000
0.6207 1.1724 0.0000
0.6207 1.2069 0.0000
0.6207 1.2414 0.0000
0.6207 1.2759 0.0000
0.6207 1.3103 0.0000
0.6207 1.3448 0.0000
0.6207 1.3793 0.0000
0.6207 1.4138 0.0000
0.6207 1.4483 0.0000
0.6207 1.4828 0.0000
0.6207 1.5172 0.0000
0.6207 1.5517 0.0000
0.6207 1.5862 0.0000
0.6207 1.6207 0.0000
0.6207 1.6552 0.0000
0.6207 1.6897 0.0000
0.6207 1.7241 0.0000
0.6207 1.7586 0.0000
0.6207 1.7931 0.0000
0.6207 1.8276 0.0000
0.6207 1.8621 0.0000
0.6207 1.8966 0.0000
0.6207 1.9310 0.0000
0.6207 1.9655 0.0000
0.6207 2.0000 0.0000
0.6897 1.0000 0.0000
0.6897 1.0345 0.0000
0.6897 1.0690 0.0000
0.6897 1.1034 0.0000
0.6897 1.1379 0.0000
0.6897 1.1724 0.0000
0.6897 1.2069 0.0000
0.6897 1.2414 0.0000
0.6897 1.2759 0.0000
0.6897 1.3103 0.0000
0.6897 1.3448 0.0000
0.6897 1.3793 0.0000
0.6897 1.4138 0.0000
0.6897 1.4483 0.0000
0.6897 1.4828 0.0000
0.6897 1.5172 0.0000
0.6897 1.5517 0.0000
0.6897 1.5862 0.0000
0.6897 1.6207 0.0000
0.6897 1.6552 0.0000
0.6897 1.6897 0.0000
0.6897 1.7241 0.0000
0.6897 1.7586 0.0000
0.6897 1.7931 0.0000
0.6897 1.8276 0.0000
0.6897 1.8621 0.0000
0.6897 1.8966 0.0000
0.6897 1.9310 0.0000
0.6897 1.9655 0.0000
0.6897 2.0000 0.0000
0.7586 1.0000 0.0000
0.7586 1.0345 0.0000
0.7586 1.0690 0.0000
0.7586 1.1034 0.0000
0.7586 1.1379 0.0000
0.7586 1.1724 0.0000
0.7586 1.2069 0.0000
0.7586 1.2414 0.0000
0.7586 1.2759 0.0000
0.7586 1.3103 0.0000
0.7586 1.3448 0.0000
0.7586 1.3793 0.0000
0.7586 1.4138 0.0000
0.7586 1.4483 0.0000
0.7586 1.4828 0.0000
0.7586 1.5172 0.0000
0.7586 1.5517 0.0000
0.7586 1.5862 0.0000
0.7586 1.6207 0.0000
0.7586 1.6552 0.0000
0.7586 1.6897 0.0000
0.7586 1.7241 0.0000
0.7586 1.7586 0.0000
0.7586 1.7931 0.0000
0.7586 1.8276 0.0000
0.7586 1.8621 0.0000
0.7586 1.8966 0.0000
0.7586 1.9310 0.0000
0.7586 1.9655 0.0000
0.7586 2.0000 0.0000
0.8276 1.0000 0.0000
0.8276 1.0345 0.0000
0.8276 1.0690 0.0000
0.8276 1.1034 0.0000
0.8276 1.1379 0.0000
0.8276 1.1724 0.0000
0.8276 1.2069 0.0000
0.8276 1.2414 0.0000
0.8276 1.2759 0.0000
0.8276 1.3103 0.0000
0.8276 1.3448 0.0000
0.8276 1.3793 0.0000
0.8276 1.4138 0.0000
0.8276 1.4483 0.0000
0.8276 1.4828 0.0000
0.8276 1.5172 0.0000
0.8276 1.5517 0.0000
0.8276 1.5862 0.0000
0.8276 1.6207 0.0000
0.8276 1.6552 0.0000
0.8276 1.6897 0.0000
0.8276 1.7241 0.0000
0.8276 1.7586 0.0000
0.8276 1.7931 0.0000
0.8276 1.8276 0.0000
0.8276 1.8621 0.0000
0.8276 1.8966 0.0000
0.8276 1.9310 0.0000
0.8276 1.9655 0.0000
0.8276 2.0000 0.0000
0.8966 1.0000 0.0000
0.8966 1.0345 0.0000
0.8966 1.0690 0.0000
0.8966 1.1034 0.0000
0.8966 1.1379 0.0000
0.8966 1.1724 0.0000
0.8966 1.2069 0.0000
0.8966 1.2414 0.0000
0.8966 1.2759 0.0000
0.8966 1.3103 0.0000
0.8966 1.3448 0.0000
0.8966 1.3793 0.0000
0.8966 1.4138 0.0000
0.8966 1.4483 0.0000
0.8966 1.4828 0.0000
0.8966 1.5172 0.0000
0.8966 1.5517 0.0000
0.8966 1.5862 0.0000
0.8966 1.6207 0.0000
0.8966 1.6552 0.0000
0.8966 1.6897 0.0000
0.8966 1.7241 0.0000
0.8966 1.7586 0.0000
0.8966 1.7931 0.0000
0.8966 1.8276 0.0000
0.8966 1.8621 0.0000
0.8966 1.8966 0.0000
0.8966 1.9310 0.0000
0.8966 1.9655 0.0000
0.8966 2.0000 0.0000
0.9655 1.0000 0.0000
0.9655 1.0345 0.0000
0.9655 1.0690 0.0000
0.9655 1.1034 0.0000
0.9655 1.1379 0.0000
0.9655 1.1724 0.0000
0.9655 1.2069 0.0000
0.9655 1.2414 0.0000
0.9655 1.2759 0.0000
0.9655 1.3103 0.0000
0.9655 1.3448 0.0000
0.9655 1.3793 0.0000
0.9655 1.4138 0.0000
0.9655 1.4483 0.0000
0.9655 1.4828 0.0000
0.9655 1.5172 0.0000
0.9655 1.5517 0.0000
0.9655 1.5862 0.0000
0.9655 1.6207 0.0000
0.9655 1.6552 0.0000
0.9655 1.6897 0.0000
0.9655 1.7241 0.0000
0.9655 1.7586 0.0000
0.9655 1.7931 0.0000
0.9655 1.8276 0.0000
0.9655 1.8621 0.0000
0.9655 1.8966 0.0000
0.9655 1.9310 0.0000
0.9655 1.9655 0.0000
0.9655 2.0000 0.0000
1.0345 1.0000 0.0000
1.0345 1.0345 0.0000
1.0345 1.0690 0.0000
1.0345 1.1034 0.0000
1.0345 1.1379 0.0000
1.0345 1.1724 0.0000
1.0345 1.2069 0.0000
1.0345 1.2414 0.0000
1.0345 1.2759 0.0000
1.0345 1.3103 0.0000
1.0345 1.3448 0.0000
[...]
         <PointData>
            <DataArray Name="fValues" NumberOfComponents="3" format="ascii" type="Float64">
-5.63554e-16  3.51608e-16        00000 
 2.82595e-16  5.65190e-16        00000 
 1.86301e-16 -1.39726e-16        00000 
-1.02407e-17  2.04814e-17        00000 
 2.79451e-16        00000        00000 
-3.00129e-16 -1.61400e-16        00000 
-3.26026e-16  2.32876e-17        00000 
 2.16518e-16  8.19257e-17        00000 
-6.98628e-17 -2.44520e-16        00000 
 5.28568e-17  4.23956e-17        00000 
       00000 -8.15066e-17        00000 
-9.87497e-17  7.31479e-18        00000 
 6.11300e-17 -1.16438e-17        00000 
-1.32315e-16 -2.14480e-17        00000 
 2.91095e-17  4.07533e-17        00000 
 6.94905e-18 -1.71898e-17        00000 
 1.16438e-17  4.07533e-17        00000 
-3.00531e-18 -1.18790e-16        00000 
 2.91095e-17  1.28082e-16        00000 
-1.52148e-16 -7.53424e-17        00000 
 2.79451e-16  1.97945e-16        00000 
-2.93063e-16 -2.17151e-16        00000 
 4.65752e-17  3.37670e-16        00000 
 8.77775e-17 -5.13498e-16        00000 
-3.26026e-16  4.19177e-16        00000 
 8.04678e-16 -3.01805e-16        00000 
-7.68491e-16  2.56164e-16        00000 
 5.27648e-17 -3.64956e-16        00000 
-2.93592e-16  9.39494e-17        00000 
 5.66304e-16 -2.34874e-17        00000 
-5.68626e+00 -4.76293e+00        00000 
-4.19696e+00 -3.58030e+00        00000 
-3.48847e+00 -2.79364e+00        00000 
-3.00296e+00 -2.24483e+00        00000 
-2.61965e+00 -1.84266e+00        00000 
-2.29246e+00 -1.53775e+00        00000 
-1.99974e+00 -1.30129e+00        00000 
-1.72986e+00 -1.11544e+00        00000 
-1.47591e+00 -9.68546e-01        00000 
-1.23346e+00 -8.52764e-01        00000 
-9.99434e-01 -7.62636e-01        00000 
-7.71597e-01 -6.94329e-01        00000 
-5.48192e-01 -6.45162e-01        00000 
-3.27775e-01 -6.13317e-01        00000 
-1.09085e-01 -5.97665e-01        00000 
 1.09040e-01 -5.97663e-01        00000 
 3.27730e-01 -6.13312e-01        00000 
 5.48147e-01 -6.45154e-01        00000 
 7.71552e-01 -6.94317e-01        00000 
 9.99390e-01 -7.62621e-01        00000 
 1.23341e+00 -8.52746e-01        00000 
 1.47587e+00 -9.68524e-01        00000 
 1.72981e+00 -1.11541e+00        00000 
 1.99969e+00 -1.30126e+00        00000 
 2.29242e+00 -1.53772e+00        00000 
 2.61961e+00 -1.84262e+00        00000 
 3.00292e+00 -2.24479e+00        00000 
 3.48843e+00 -2.79360e+00        00000 
 4.19691e+00 -3.58025e+00        00000 
 5.68621e+00 -4.76286e+00        00000 
-1.00688e+01 -7.70966e+00        00000 
-8.64421e+00 -6.79322e+00        00000 
-7.40230e+00 -5.88705e+00        00000 
-6.41796e+00 -5.11386e+00        00000 
-5.59881e+00 -4.47678e+00        00000 
-4.88805e+00 -3.95641e+00        00000 
-4.25126e+00 -3.53230e+00        00000 
-3.66676e+00 -3.18728e+00        00000 
-3.12024e+00 -2.90785e+00        00000 
-2.60181e+00 -2.68365e+00        00000 
-2.10429e+00 -2.50684e+00        00000 
-1.62223e+00 -2.37155e+00        00000 
-1.15131e+00 -2.27350e+00        00000 
-6.87910e-01 -2.20971e+00        00000 
-2.28860e-01 -2.17827e+00        00000 
 2.28765e-01 -2.17827e+00        00000 
 6.87815e-01 -2.20970e+00        00000 
 1.15122e+00 -2.27349e+00        00000 
 1.62214e+00 -2.37153e+00        00000 
 2.10420e+00 -2.50681e+00        00000 
 2.60172e+00 -2.68362e+00        00000 
 3.12015e+00 -2.90781e+00        00000 
 3.66667e+00 -3.18723e+00        00000 
 4.25117e+00 -3.53225e+00        00000 
 4.88796e+00 -3.95635e+00        00000 
 5.59872e+00 -4.47672e+00        00000 
 6.41788e+00 -5.11379e+00        00000 
 7.40222e+00 -5.88697e+00        00000 
 8.64412e+00 -6.79314e+00        00000 
 1.00688e+01 -7.70958e+00        00000 
-1.41963e+01 -1.07859e+01        00000 
-1.26395e+01 -9.88521e+00        00000 
-1.11937e+01 -9.03969e+00        00000 
-9.87515e+00 -8.25483e+00        00000 
-8.69231e+00 -7.55492e+00        00000 
-7.62314e+00 -6.94642e+00        00000 
-6.64402e+00 -6.42603e+00        00000 
-5.73517e+00 -5.98672e+00        00000 
-4.88094e+00 -5.62062e+00        00000 
-4.06906e+00 -5.32035e+00        00000 
-3.28978e+00 -5.07952e+00        00000 
-2.53519e+00 -4.89289e+00        00000 
-1.79865e+00 -4.75637e+00        00000 
-1.07444e+00 -4.66698e+00        00000 
-3.57409e-01 -4.62277e+00        00000 
 3.57261e-01 -4.62276e+00        00000 
 1.07429e+00 -4.66697e+00        00000 
 1.79850e+00 -4.75635e+00        00000 
 2.53504e+00 -4.89286e+00        00000 
 3.28964e+00 -5.07948e+00        00000 
 4.06892e+00 -5.32031e+00        00000 
 4.88080e+00 -5.62057e+00        00000 
 5.73503e+00 -5.98667e+00        00000 
 6.64389e+00 -6.42597e+00        00000 
 7.62301e+00 -6.94635e+00        00000 
 8.69218e+00 -7.55486e+00        00000 
 9.87502e+00 -8.25476e+00        00000 
 1.11936e+01 -9.03961e+00        00000 
 1.26394e+01 -9.88513e+00        00000 
 1.41962e+01 -1.07859e+01        00000 
-1.82045e+01 -1.41683e+01        00000 
-1.64456e+01 -1.33034e+01        00000 
-1.47739e+01 -1.24885e+01        00000 
-1.32002e+01 -1.17314e+01        00000 
-1.17263e+01 -1.10376e+01        00000 
-1.03491e+01 -1.04139e+01        00000 
-9.05842e+00 -9.86328e+00        00000 
-7.84156e+00 -9.38535e+00        00000 
-6.68614e+00 -8.97762e+00        00000 
-5.58083e+00 -8.63670e+00        00000 
-4.51560e+00 -8.35900e+00        00000 
-3.48156e+00 -8.14117e+00        00000 
-2.47082e+00 -7.98039e+00        00000 
-1.47622e+00 -7.87444e+00        00000 
-4.91099e-01 -7.82184e+00        00000 
 4.90897e-01 -7.82184e+00        00000 
 1.47602e+00 -7.87443e+00        00000 
 2.47062e+00 -7.98037e+00        00000 
 3.48136e+00 -8.14115e+00        00000 
 4.51540e+00 -8.35897e+00        00000 
 5.58064e+00 -8.63666e+00        00000 
 6.68595e+00 -8.97758e+00        00000 
 7.84137e+00 -9.38530e+00        00000 
 9.05824e+00 -9.86322e+00        00000 
 1.03489e+01 -1.04138e+01        00000 
 1.17261e+01 -1.10375e+01        00000 
 1.32000e+01 -1.17313e+01        00000 
 1.47738e+01 -1.24884e+01        00000 
 1.64455e+01 -1.33034e+01        00000 
 1.82044e+01 -1.41682e+01        00000 
-2.20921e+01 -1.79883e+01        00000 
-2.01043e+01 -1.71517e+01        00000 
-1.81983e+01 -1.63684e+01        00000 
-1.63777e+01 -1.56395e+01        00000 
-1.46433e+01 -1.49682e+01        00000 
-1.29925e+01 -1.43574e+01        00000 
-1.14198e+01 -1.38098e+01        00000 
-9.91768e+00 -1.33265e+01        00000 
-8.47703e+00 -1.29079e+01        00000 
-7.08859e+00 -1.25531e+01        00000 
-5.74326e+00 -1.22606e+01        00000 
-4.43237e+00 -1.20291e+01        00000 
-3.14769e+00 -1.18569e+01        00000 
-1.88140e+00 -1.17428e+01        00000 
-6.26013e-01 -1.16860e+01        00000 
 6.25758e-01 -1.16860e+01        00000 
 1.88114e+00 -1.17428e+01        00000 
 3.14743e+00 -1.18568e+01        00000 
 4.43212e+00 -1.20290e+01        00000 
 5.74301e+00 -1.22606e+01        00000 
 7.08834e+00 -1.25530e+01        00000 
 8.47679e+00 -1.29079e+01        00000 
 9.91745e+00 -1.33265e+01        00000 
 1.14196e+01 -1.38097e+01        00000 
 1.29922e+01 -1.43574e+01        00000 
 1.46431e+01 -1.49682e+01        00000 
 1.63775e+01 -1.56395e+01        00000 
 1.81981e+01 -1.63684e+01        00000 
 2.01041e+01 -1.71517e+01        00000 
 2.20919e+01 -1.79882e+01        00000 
-2.58549e+01 -2.22822e+01        00000 
-2.36278e+01 -2.14755e+01        00000 
-2.14829e+01 -2.07224e+01        00000 
-1.94196e+01 -2.00229e+01        00000 
-1.74362e+01 -1.93780e+01        00000 
-1.55296e+01 -1.87892e+01        00000 
-1.36951e+01 -1.82581e+01        00000 
-1.19268e+01 -1.77859e+01        00000 
-1.02175e+01 -1.73734e+01        00000 
-8.55958e+00 -1.70209e+01        00000 
-6.94495e+00 -1.67283e+01        00000 
-5.36554e+00 -1.64950e+01        00000 
-3.81331e+00 -1.63207e+01        00000 
-2.28037e+00 -1.62048e+01        00000 
-7.58950e-01 -1.61470e+01        00000 
 7.58643e-01 -1.61470e+01        00000 
 2.28007e+00 -1.62048e+01        00000 
 3.81300e+00 -1.63207e+01        00000 
 5.36524e+00 -1.64950e+01        00000 
 6.94466e+00 -1.67282e+01        00000 
 8.55928e+00 -1.70209e+01        00000 
 1.02172e+01 -1.73734e+01        00000 
 1.19265e+01 -1.77859e+01        00000 
 1.36948e+01 -1.82581e+01        00000 
 1.55293e+01 -1.87892e+01        00000 
 1.74359e+01 -1.93780e+01        00000 
 1.94193e+01 -2.00229e+01        00000 
 2.14827e+01 -2.07224e+01        00000 
 2.36276e+01 -2.14755e+01        00000 
 2.58547e+01 -2.22822e+01        00000 
-2.94838e+01 -2.70612e+01        00000 
-2.70168e+01 -2.62855e+01        00000 
-2.46337e+01 -2.55627e+01        00000 
-2.23316e+01 -2.48926e+01        00000 
-2.01070e+01 -2.42754e+01        00000 
-1.79558e+01 -2.37116e+01        00000 
-1.58730e+01 -2.32022e+01        00000 
-1.38532e+01 -2.27480e+01        00000 
-1.18897e+01 -2.23498e+01        00000 
-9.97588e+00 -2.20082e+01        00000 
-8.10426e+00 -2.17234e+01        00000 
-6.26732e+00 -2.14957e+01        00000 
-4.45741e+00 -2.13249e+01        00000 
-2.66680e+00 -2.12112e+01        00000 
-8.87766e-01 -2.11543e+01        00000 
 8.87409e-01 -2.11543e+01        00000 
 2.66644e+00 -2.12112e+01        00000 
 4.45706e+00 -2.13249e+01        00000 
 6.26697e+00 -2.14957e+01        00000 
 8.10391e+00 -2.17234e+01        00000 
 9.97555e+00 -2.20082e+01        00000 
 1.18894e+01 -2.23498e+01        00000 
 1.38528e+01 -2.27480e+01        00000 
 1.58727e+01 -2.32022e+01        00000 
 1.79555e+01 -2.37116e+01        00000 
 2.01067e+01 -2.42754e+01        00000 
 2.23313e+01 -2.48927e+01        00000 
 2.46335e+01 -2.55628e+01        00000 
 2.70165e+01 -2.62855e+01        00000 
 2.94836e+01 -2.70613e+01        00000 
-3.29711e+01 -3.23204e+01        00000 
-3.02684e+01 -3.15767e+01        00000 
-2.76518e+01 -3.08848e+01        00000 
-2.51166e+01 -3.02442e+01        00000 
-2.26581e+01 -2.96548e+01        00000 
-2.02715e+01 -2.91169e+01        00000 
-1.79513e+01 -2.86309e+01        00000 
-1.56918e+01 -2.81974e+01        00000 
-1.34867e+01 -2.78169e+01        00000 
-1.13295e+01 -2.74900e+01        00000 
-9.21321e+00 -2.72170e+01        00000 
-7.13065e+00 -2.69984e+01        00000 
-5.07446e+00 -2.68342e+01        00000 
-3.03718e+00 -2.67248e+01        00000 
-1.01126e+00 -2.66700e+01        00000 
 1.01086e+00 -2.66700e+01        00000 
 3.03678e+00 -2.67248e+01        00000 
 5.07406e+00 -2.68343e+01        00000 
 7.13026e+00 -2.69984e+01        00000 
 9.21283e+00 -2.72171e+01        00000 
 1.13291e+01 -2.74900e+01        00000 
 1.34863e+01 -2.78169e+01        00000 
 1.56914e+01 -2.81974e+01        00000 
 1.79509e+01 -2.86310e+01        00000 
 2.02712e+01 -2.91170e+01        00000 
 2.26578e+01 -2.96549e+01        00000 
 2.51163e+01 -3.02443e+01        00000 
 2.76515e+01 -3.08848e+01        00000 
 3.02682e+01 -3.15768e+01        00000 
 3.29709e+01 -3.23205e+01        00000 
-3.63108e+01 -3.80469e+01        00000 
-3.33797e+01 -3.73361e+01        00000 
-3.05365e+01 -3.66754e+01        00000 
-2.77755e+01 -3.60645e+01        00000 
-2.50912e+01 -3.55030e+01        00000 
-2.24781e+01 -3.49911e+01        00000 
-1.99303e+01 -3.45289e+01        00000 
-1.74420e+01 -3.41167e+01        00000 
-1.50066e+01 -3.37551e+01        00000 
-1.26179e+01 -3.34443e+01        00000 
-1.02689e+01 -3.31847e+01        00000 
-7.95266e+00 -3.29767e+01        00000 
-5.66211e+00 -3.28204e+01        00000 
-3.38997e+00 -3.27162e+01        00000 
-1.12891e+00 -3.26640e+01        00000 
 1.12846e+00 -3.26640e+01        00000 
 3.38953e+00 -3.27162e+01        00000 
 5.66167e+00 -3.28205e+01        00000 
 7.95223e+00 -3.29767e+01        00000 
 1.02684e+01 -3.31847e+01        00000 
 1.26175e+01 -3.34443e+01        00000 
 1.50062e+01 -3.37551e+01        00000 
 1.74416e+01 -3.41168e+01        00000 
 1.99300e+01 -3.45289e+01        00000 
 2.24777e+01 -3.49911e+01        00000 
 2.50908e+01 -3.55031e+01        00000 
 2.77751e+01 -3.60646e+01        00000 
 3.05362e+01 -3.66755e+01        00000 
 3.33794e+01 -3.73362e+01        00000 
 3.63105e+01 -3.80470e+01        00000 
-3.94983e+01 -4.42233e+01        00000 
-3.63479e+01 -4.35461e+01        00000 
-3.32866e+01 -4.29171e+01        00000 
-3.03084e+01 -4.23358e+01        00000 
-2.74071e+01 -4.18022e+01        00000 
-2.45768e+01 -4.13161e+01        00000 
-2.18114e+01 -4.08776e+01        00000 
-1.91045e+01 -4.04868e+01        00000 
-1.64499e+01 -4.01442e+01        00000 
-1.38409e+01 -3.98498e+01        00000 
-1.12708e+01 -3.96040e+01        00000 
-8.73274e+00 -3.94070e+01        00000 
-6.21976e+00 -3.92591e+01        00000 
-3.72475e+00 -3.91604e+01        00000 
-1.24054e+00 -3.91110e+01        00000 
 1.24006e+00 -3.91110e+01        00000 
 3.72427e+00 -3.91604e+01        00000 
 6.21929e+00 -3.92591e+01        00000 
 8.73227e+00 -3.94070e+01        00000 
 1.12703e+01 -3.96040e+01        00000 
 1.38404e+01 -3.98498e+01        00000 
 1.64494e+01 -4.01442e+01        00000 
 1.91041e+01 -4.04869e+01        00000 
 2.18109e+01 -4.08777e+01        00000 
 2.45764e+01 -4.13162e+01        00000 
 2.74067e+01 -4.18023e+01        00000 
 3.03080e+01 -4.23360e+01        00000 
 3.32863e+01 -4.29173e+01        00000 
 3.63476e+01 -4.35463e+01        00000 
 3.94980e+01 -4.42235e+01        00000 
-4.25308e+01 -5.08300e+01        00000 
-3.91709e+01 -5.01870e+01        00000 
-3.59012e+01 -4.95899e+01        00000 
-3.27151e+01 -4.90385e+01        00000 
-2.96063e+01 -4.85325e+01        00000 
-2.65686e+01 -4.80720e+01        00000 
-2.35955e+01 -4.76569e+01        00000 
-2.06806e+01 -4.72873e+01        00000 
-1.78174e+01 -4.69634e+01        00000 
-1.49993e+01 -4.66853e+01        00000 
-1.22195e+01 -4.64531e+01        00000 
-9.47126e+00 -4.62672e+01        00000 
-6.74761e+00 -4.61276e+01        00000 
-4.04160e+00 -4.60344e+01        00000 
-1.34619e+00 -4.59878e+01        00000 
 1.34568e+00 -4.59878e+01        00000 
 4.04109e+00 -4.60344e+01        00000 
 6.74711e+00 -4.61276e+01        00000 
 9.47076e+00 -4.62672e+01        00000 
 1.22190e+01 -4.64532e+01        00000 
 1.49988e+01 -4.66854e+01        00000 
 1.78169e+01 -4.69635e+01        00000 
 2.06801e+01 -4.72875e+01        00000 
 2.35950e+01 -4.76571e+01        00000 
 2.65682e+01 -4.80722e+01        00000 
 2.96059e+01 -4.85327e+01        00000 
 3.27147e+01 -4.90387e+01        00000 
 3.59008e+01 -4.95901e+01        00000 
 3.91706e+01 -5.01872e+01        00000 
 4.25305e+01 -5.08303e+01        00000 
-4.54060e+01 -5.78463e+01        00000 
-4.18472e+01 -5.72377e+01        00000 
-3.83791e+01 -5.66727e+01        00000 
-3.49952e+01 -5.61512e+01        00000 
-3.16890e+01 -5.56730e+01        00000 
-2.84540e+01 -5.52379e+01        00000 
-2.52836e+01 -5.48459e+01        00000 
-2.21712e+01 -5.44972e+01        00000 
-1.91103e+01 -5.41917e+01        00000 
-1.60941e+01 -5.39295e+01        00000 
-1.31159e+01 -5.37107e+01        00000 
-1.01689e+01 -5.35356e+01        00000 
-7.24614e+00 -5.34041e+01        00000 
-4.34082e+00 -5.33164e+01        00000 
-1.44596e+00 -5.32725e+01        00000 
 1.44542e+00 -5.32725e+01        00000 
 4.34029e+00 -5.33164e+01        00000 
 7.24561e+00 -5.34041e+01        00000 
 1.01683e+01 -5.35356e+01        00000 
 1.31154e+01 -5.37108e+01        00000 
 1.60936e+01 -5.39296e+01        00000 
 1.91098e+01 -5.41918e+01        00000 
 2.21708e+01 -5.44973e+01        00000 
 2.52831e+01 -5.48461e+01        00000 
 2.84536e+01 -5.52381e+01        00000 
 3.16886e+01 -5.56732e+01        00000 
 3.49948e+01 -5.61515e+01        00000 
 3.83787e+01 -5.66730e+01        00000 
 4.18469e+01 -5.72380e+01        00000 
 4.54058e+01 -5.78466e+01        00000 
-4.81227e+01 -6.52507e+01        00000 
-4.43755e+01 -6.46768e+01        00000 
-4.07197e+01 -6.41441e+01        00000 
-3.71485e+01 -6.36526e+01        00000 
-3.36553e+01 -6.32019e+01        00000 
-3.02334e+01 -6.27922e+01        00000 
-2.68763e+01 -6.24232e+01        00000 
-2.35772e+01 -6.20949e+01        00000 
-2.03294e+01 -6.18075e+01        00000 
-1.71262e+01 -6.15609e+01        00000 
-1.39607e+01 -6.13552e+01        00000 
-1.08262e+01 -6.11906e+01        00000 
-7.71586e+00 -6.10670e+01        00000 
-4.62272e+00 -6.09846e+01        00000 
-1.53994e+00 -6.09434e+01        00000 
 1.53938e+00 -6.09434e+01        00000 
 4.62217e+00 -6.09846e+01        00000 
 7.71531e+00 -6.10671e+01        00000 
 1.08257e+01 -6.11907e+01        00000 
 1.39602e+01 -6.13554e+01        00000 
 1.71257e+01 -6.15610e+01        00000 
 2.03289e+01 -6.18077e+01        00000 
 2.35767e+01 -6.20951e+01        00000 
 2.68758e+01 -6.24234e+01        00000 
 3.02330e+01 -6.27924e+01        00000 
 3.36548e+01 -6.32022e+01        00000 
 3.71481e+01 -6.36529e+01        00000 
 4.07193e+01 -6.41445e+01        00000 
 4.43752e+01 -6.46771e+01        00000 
 4.81224e+01 -6.52511e+01        00000 
-5.06798e+01 -7.30215e+01        00000 
-4.67551e+01 -7.24824e+01        00000 
-4.29222e+01 -7.19822e+01        00000 
-3.91744e+01 -7.15207e+01        00000 
-3.55049e+01 -7.10977e+01        00000 
-3.19070e+01 -7.07131e+01        00000 
-2.83740e+01 -7.03668e+01        00000 
-2.48991e+01 -7.00589e+01        00000 
-2.14754e+01 -6.97892e+01        00000 
-1.80963e+01 -6.95579e+01        00000 
-1.47547e+01 -6.93650e+01        00000 
-1.14440e+01 -6.92106e+01        00000 
-8.15722e+00 -6.90947e+01        00000 
-4.88760e+00 -6.90174e+01        00000 
-1.62825e+00 -6.89787e+01        00000 
 1.62767e+00 -6.89787e+01        00000 
 4.88702e+00 -6.90174e+01        00000 
 8.15666e+00 -6.90947e+01        00000 
 1.14434e+01 -6.92107e+01        00000 
 1.47542e+01 -6.93651e+01        00000 
 1.80957e+01 -6.95581e+01        00000 
 2.14749e+01 -6.97894e+01        00000 
 2.48986e+01 -7.00591e+01        00000 
 2.83736e+01 -7.03671e+01        00000 
 3.19066e+01 -7.07134e+01        00000 
 3.55045e+01 -7.10980e+01        00000 
 3.91739e+01 -7.15211e+01        00000 
 4.29218e+01 -7.19827e+01        00000 
 4.67547e+01 -7.24829e+01        00000 
 5.06795e+01 -7.30219e+01        00000 
-5.30764e+01 -8.11369e+01        00000 
-4.89850e+01 -8.06329e+01        00000 
-4.49860e+01 -8.01653e+01        00000 
-4.10725e+01 -7.97339e+01        00000 
-3.72378e+01 -7.93385e+01        00000 
-3.34749e+01 -7.89790e+01        00000 
-2.97771e+01 -7.86552e+01        00000 
-2.61374e+01 -7.83673e+01        00000 
-2.25490e+01 -7.81151e+01        00000 
-1.90050e+01 -7.78987e+01        00000 
-1.54985e+01 -7.77182e+01        00000 
-1.20227e+01 -7.75736e+01        00000 
-8.57070e+00 -7.74651e+01        00000 
-5.13573e+00 -7.73928e+01        00000 
-1.71097e+00 -7.73566e+01        00000 
 1.71039e+00 -7.73566e+01        00000 
 5.13515e+00 -7.73928e+01        00000 
 8.57012e+00 -7.74652e+01        00000 
 1.20221e+01 -7.75738e+01        00000 
 1.54979e+01 -7.77183e+01        00000 
 1.90044e+01 -7.78989e+01        00000 
 2.25485e+01 -7.81153e+01        00000 
 2.61369e+01 -7.83675e+01        00000 
 2.97766e+01 -7.86555e+01        00000 
 3.34744e+01 -7.89793e+01        00000 
 3.72373e+01 -7.93389e+01        00000 
 4.10721e+01 -7.97343e+01        00000 
 4.49856e+01 -8.01658e+01        00000 
 4.89847e+01 -8.06334e+01        00000 
 5.30761e+01 -8.11374e+01        00000 
-5.53116e+01 -8.95752e+01        00000 
-5.10646e+01 -8.91065e+01        00000 
-4.69105e+01 -8.86717e+01        00000 
-4.28425e+01 -8.82704e+01        00000 
-3.88537e+01 -8.79026e+01        00000 
-3.49371e+01 -8.75680e+01        00000 
-3.10857e+01 -8.72666e+01        00000 
-2.72926e+01 -8.69982e+01        00000 
-2.35507e+01 -8.67631e+01        00000 
-1.98531e+01 -8.65612e+01        00000 
-1.61928e+01 -8.63926e+01        00000 
-1.25630e+01 -8.62576e+01        00000 
-8.95679e+00 -8.61562e+01        00000 
-5.36746e+00 -8.60885e+01        00000 
-1.78823e+00 -8.60547e+01        00000 
 1.78764e+00 -8.60547e+01        00000 
 5.36687e+00 -8.60886e+01        00000 