<?xml version="1.0" encoding="utf-8"?>
<VTKFile byte_order="LittleEndian" type="UnstructuredGrid" version="0.1">
   <UnstructuredGrid>
      <Piece NumberOfCells="3364" NumberOfPoints="1741">
         <Points>
            <DataArray Name="Points" NumberOfComponents="3" format="ascii" type="Float32">
0.0000 1.0000 0.0000
0.0000 1.0345 0.0000
0.0000 1.0690 0.0000
0.0000 1.1034 0.0000
0.0000 1.1379 0.0000
0.0000 1.1724 0.0000
0.0000 1.2069 0.0000
0.0000 1.2414 0.0000
0.0000 1.2759 0.0000
0.0000 1.3103 0.0000
0.0000 1.3448 0.0000
0.0000 1.3793 0.0000
0.0000 1.4138 0.0000
0.0000 1.4483 0.0000
0.0000 1.4828 0.0000
0.0000 1.5172 0.0000
0.0000 1.5517 0.0000
0.0000 1.5862 0.0000
0.0000 1.6207 0.0000
0.0000 1.6552 0.0000
0.0000 1.6897 0.0000
0.0000 1.7241 0.0000
0.0000 1.7586 0.0000
0.0000 1.7931 0.0000
0.0000 1.8276 0.0000
0.0000 1.8621 0.0000
0.0000 1.8966 0.0000
0.0000 1.9310 0.0000
0.0000 1.9655 0.0000
0.0000 2.0000 0.0000
0.0690 1.0000 0.0000
0.0690 1.0345 0.0000
0.0690 1.0690 0.0000
0.0690 1.1034 0.0000
0.0690 1.1379 0.0000
0.0690 1.1724 0.0000
0.0690 1.2069 0.0000
0.0690 1.2414 0.0000
0.0690 1.2759 0.0000
0.0690 1.3103 0.0000
0.0690 1.3448 0.0000
0.0690 1.3793 0.0000
0.0690 1.4138 0.0000
0.0690 1.4483 0.0000
0.0690 1.4828 0.0000
0.0690 1.5172 0.0000
0.0690 1.5517 0.0000
0.0690 1.5862 0.0000
0.0690 1.6207 0.0000
0.0690 1.6552 0.0000
0.0690 1.6897 0.0000
0.0690 1.7241 0.0000
0.0690 1.7586 0.0000
0.0690 1.7931 0.0000
0.0690 1.8276 0.0000
0.0690 1.8621 0.0000
0.0690 1.8966 0.0000
0.0690 1.9310 0.0000
0.0690 1.9655 0.0000
0.0690 2.0000 0.0000
0.1379 1.0000 0.0000
0.1379 1.0345 0.0000
0.1379 1.0690 0.0000
0.1379 1.1034 0.0000
0.1379 1.1379 0.0000
0.1379 1.1724 0.0000
0.1379 1.2069 0.0000
0.1379 1.2414 0.0000
0.1379 1.2759 0.0000
0.1379 1.3103 0.0000
0.1379 1.3448 0.0000
0.1379 1.3793 0.0000
0.1379 1.4138 0.0000
0.1379 1.4483 0.0000
0.1379 1.4828 0.0000
0.1379 1.5172 0.0000
0.1379 1.5517 0.0000
0.1379 1.5862 0.0000
0.1379 1.6207 0.0000
0.1379 1.6552 0.0000
0.1379 1.6897 0.0000
0.1379 1.7241 0.0000
0.1379 1.7586 0.0000
0.1379 1.7931 0.0000
0.1379 1.8276 0.0000
0.1379 1.8621 0.0000
0.1379 1.8966 0.0000
0.1379 1.9310 0.0000
0.1379 1.9655 0.0000
0.1379 2.0000 0.0000
0.2069 1.0000 0.0000
0.2069 1.0345 0.0000
0.2069 1.0690 0.0000
0.2069 1.1034 0.0000
0.2069 1.1379 0.0000
0.2069 1.1724 0.0000
0.2069 1.2069 0.0000
0.2069 1.2414 0.0000
0.2069 1.2759 0.0000
0.2069 1.3103 0.0000
0.2069 1.3448 0.0000
0.2069 1.3793 0.0000
0.2069 1.4138 0.0000
0.2069 1.4483 0.0000
0.2069 1.4828 0.0000
0.2069 1.5172 0.0000
0.2069 1.5517 0.0000
0.2069 1.5862 0.0000
0.2069 1.6207 0.0000
0.2069 1.6552 0.0000
0.2069 1.6897 0.0000
0.2069 1.7241 0.0000
0.2069 1.7586 0.0000
0.2069 1.7931 0.0000
0.2069 1.8276 0.0000
0.2069 1.8621 0.0000
0.2069 1.8966 0.0000
0.2069 1.9310 0.0000
0.2069 1.9655 0.0000
0.2069 2.0000 0.0000
0.2759 1.0000 0.0000
0.2759 1.0345 0.0000
0.2759 1.0690 0.0000
0.2759 1.1034 0.0000
0.2759 1.1379 0.0000
0.2759 1.1724 0.0000
0.2759 1.2069 0.0000
0.2759 1.2414 0.0000
0.2759 1.2759 0.0000
0.2759 1.3103 0.0000
0.2759 1.3448 0.0000
0.2759 1.3793 0.0000
0.2759 1.4138 0.0000
0.2759 1.4483 0.0000
0.2759 1.4828 0.0000
0.2759 1.5172 0.0000
0.2759 1.5517 0.0000
0.2759 1.5862 0.0000
0.2759 1.6207 0.0000
0.2759 1.6552 0.0000
0.2759 1.6897 0.0000
0.2759 1.7241 0.0000
0.2759 1.7586 0.0000
0.2759 1.7931 0.0000
0.2759 1.8276 0.0000
0.2759 1.8621 0.0000
0.2759 1.8966 0.0000
0.2759 1.9310 0.0000
0.2759 1.9655 0.0000
0.2759 2.0000 0.0000
0.3448 1.0000 0.0000
0.3448 1.0345 0.0000
0.3448 1.0690 0.0000
0.3448 1.1034 0.0000
0.3448 1.1379 0.0000
0.3448 1.1724 0.0000
0.3448 1.2069 0.0000
0.3448 1.2414 0.0000
0.3448 1.2759 0.0000
0.3448 1.3103 0.0000
0.3448 1.3448 0.0000
0.3448 1.3793 0.0000
0.3448 1.4138 0.0000
0.3448 1.4483 0.0000
0.3448 1.4828 0.0000
0.3448 1.5172 0.0000
0.3448 1.5517 0.0000
0.3448 1.5862 0.0000
0.3448 1.6207 0.0000
0.3448 1.6552 0.0000
0.3448 1.6897 0.0000
0.3448 1.7241 0.0000
0.3448 1.7586 0.0000
0.3448 1.7931 0.0000
0.3448 1.8276 0.0000
0.3448 1.8621 0.0000
0.3448 1.8966 0.0000
0.3448 1.9310 0.0000
0.3448 1.9655 0.0000
0.3448 2.0000 0.0000
0.4138 1.0000 0.0000
0.4138 1.0345 0.0000
0.4138 1.0690 0.0000
0.4138 1.1034 0.0000
0.4138 1.1379 0.0000
0.4138 1.1724 0.0000
0.4138 1.2069 0.0000
0.4138 1.2414 0.0000
0.4138 1.2759 0.0000
0.4138 1.3103 0.0000
0.4138 1.3448 0.0000
0.4138 1.3793 0.0000
0.4138 1.4138 0.0000
0.4138 1.4483 0.0000
0.4138 1.4828 0.0000
0.4138 1.5172 0.0000
0.4138 1.5517 0.0000
0.4138 1.5862 0.0000
0.4138 1.6207 0.0000
0.4138 1.6552 0.0000
0.4138 1.6897 0.0000
0.4138 1.7241 0.0000
0.4138 1.7586 0.0000
0.4138 1.7931 0.0000
0.4138 1.8276 0.0000
0.4138 1.8621 0.0000
0.4138 1.8966 0.0000
0.4138 1.9310 0.0000
0.4138 1.9655 0.0000
0.4138 2.0000 0.0000
0.4828 1.0000 0.0000
0.4828 1.0345 0.0000
0.4828 1.0690 0.0000
0.4828 1.1034 0.0000
0.4828 1.1379 0.0000
0.4828 1.1724 0.0000
0.4828 1.2069 0.0000
0.4828 1.2414 0.0000
0.4828 1.2759 0.0000
0.4828 1.3103 0.0000
0.4828 1.3448 0.0000
0.4828 1.3793 0.0000
0.4828 1.4138 0.0000
0.4828 1.4483 0.0000
0.4828 1.4828 0.0000
0.4828 1.5172 0.0000
0.4828 1.5517 0.0000
0.4828 1.5862 0.0000
0.4828 1.6207 0.0000
0.4828 1.6552 0.0000
0.4828 1.6897 0.0000
0.4828 1.7241 0.0000
0.4828 1.7586 0.0000
0.4828 1.7931 0.0000
0.4828 1.8276 0.0000
0.4828 1.8621 0.0000
0.4828 1.8966 0.0000
0.4828 1.9310 0.0000
0.4828 1.9655 0.0000
0.4828 2.0000 0.0000
0.5517 1.0000 0.0000
0.5517 1.0345 0.0000
0.5517 1.0690 0.0000
0.5517 1.1034 0.0000
0.5517 1.1379 0.0000
0.5517 1.1724 0.0000
0.5517 1.2069 0.0000
0.5517 1.2414 0.0000
0.5517 1.2759 0.0000
0.5517 1.3103 0.0000
0.5517 1.3448 0.0000
0.5517 1.3793 0.0000
0.5517 1.4138 0.0000
0.5517 1.4483 0.0000
0.5517 1.4828 0.0000
0.5517 1.5172 0.0000
0.5517 1.5517 0.0000
0.5517 1.5862 0.0000
0.5517 1.6207 0.0000
0.5517 1.6552 0.0000
0.5517 1.6897 0.0000
0.5517 1.7241 0.0000
0.5517 1.7586 0.0000
0.5517 1.7931 0.0000
0.5517 1.8276 0.0000
0.5517 1.8621 0.0000
0.5517 1.8966 0.0000
0.5517 1.9310 0.0000
0.5517 1.9655 0.0000
0.5517 2.0000 0.0000
0.6207 1.0000 0.0000
0.6207 1.0345 0.0000
0.6207 1.0690 0.0000
0.6207 1.1034 0.0000
0.6207 1.1379 0.0000
0.6207 1.1724 0.0000
0.6207 1.2069 0.0000
0.6207 1.2414 0.0000
0.6207 1.2759 0.0000
0.6207 1.3103 0.0000
0.6207 1.3448 0.0000
0.6207 1.3793 0.0000
0.6207 1.4138 0.0000
0.6207 1.4483 0.0000
0.6207 1.4828 0.0000
0.6207 1.5172 0.0000
0.6207 1.5517 0.0000
0.6207 1.5862 0.0000
0.6207 1.6207 0.0000
0.6207 1.6552 0.0000
0.6207 1.6897 0.0000
0.6207 1.7241 0.0000
0.6207 1.7586 0.0000
0.6207 1.7931 0.0000
0.6207 1.8276 0.0000
0.6207 1.8621 0.0000
0.6207 1.8966 0.0000
0.6207 1.9310 0.0000
0.6207 1.9655 0.0000
0.6207 2.0000 0.0000
0.6897 1.0000 0.0000
0.6897 1.0345 0.0000
0.6897 1.0690 0.0000
0.6897 1.1034 0.0000
0.6897 1.1379 0.0000
0.6897 1.1724 0.0000
0.6897 1.2069 0.0000
0.6897 1.2414 0.0000
0.6897 1.2759 0.0000
0.6897 1.3103 0.0000
0.6897 1.3448 0.0000
0.6897 1.3793 0.0000
0.6897 1.4138 0.0000
0.6897 1.4483 0.0000
0.6897 1.4828 0.0000
0.6897 1.5172 0.0000
0.6897 1.5517 0.0000
0.6897 1.5862 0.0000
0.6897 1.6207 0.0000
0.6897 1.6552 0.0000
0.6897 1.6897 0.0000
0.6897 1.7241 0.0000
0.6897 1.7586 0.0000
0.6897 1.7931 0.0000
0.6897 1.8276 0.0000
0.6897 1.8621 0.0000
0.6897 1.8966 0.0000
0.6897 1.9310 0.0000
0.6897 1.9655 0.0000
0.6897 2.0000 0.0000
0.7586 1.0000 0.0000
0.7586 1.0345 0.0000
0.7586 1.0690 0.0000
0.7586 1.1034 0.0000
0.7586 1.1379 0.0000
0.7586 1.1724 0.0000
0.7586 1.2069 0.0000
0.7586 1.2414 0.0000
0.7586 1.2759 0.0000
0.7586 1.3103 0.0000
0.7586 1.3448 0.0000
0.7586 1.3793 0.0000
0.7586 1.4138 0.0000
0.7586 1.4483 0.0000
0.7586 1.4828 0.0000
0.7586 1.5172 0.0000
0.7586 1.5517 0.0000
0.7586 1.5862 0.0000
0.7586 1.6207 0.0000
0.7586 1.6552 0.0000
0.7586 1.6897 0.0000
0.7586 1.7241 0.0000
0.7586 1.7586 0.0000
0.7586 1.7931 0.0000
0.7586 1.8276 0.0000
0.7586 1.8621 0.0000
0.7586 1.8966 0.0000
0.7586 1.9310 0.0000
0.7586 1.9655 0.0000
0.7586 2.0000 0.0000
0.8276 1.0000 0.0000
0.8276 1.0345 0.0000
0.8276 1.0690 0.0000
0.8276 1.1034 0.0000
0.8276 1.1379 0.0000
0.8276 1.1724 0.0000
0.8276 1.2069 0.0000
0.8276 1.2414 0.0000
0.8276 1.2759 0.0000
0.8276 1.3103 0.0000
0.8276 1.3448 0.0000
0.8276 1.3793 0.0000
0.8276 1.4138 0.0000
0.8276 1.4483 0.0000
0.8276 1.4828 0.0000
0.8276 1.5172 0.0000
0.8276 1.5517 0.0000
0.8276 1.5862 0.0000
0.8276 1.6207 0.0000
0.8276 1.6552 0.0000
0.8276 1.6897 0.0000
0.8276 1.7241 0.0000
0.8276 1.7586 0.0000
0.8276 1.7931 0.0000
0.8276 1.8276 0.0000
0.8276 1.8621 0.0000
0.8276 1.8966 0.0000
0.8276 1.9310 0.0000
0.8276 1.9655 0.0000
0.8276 2.0000 0.0000
0.8966 1.0000 0.0000
0.8966 1.0345 0.0000
0.8966 1.0690 0.0000
0.8966 1.1034 0.0000
0.8966 1.1379 0.0000
0.8966 1.1724 0.0000
0.8966 1.2069 0.0000
0.8966 1.2414 0.0000
0.8966 1.2759 0.0000
0.8966 1.3103 0.0000
0.8966 1.3448 0.0000
0.8966 1.3793 0.0000
0.8966 1.4138 0.0000
0.8966 1.4483 0.0000
0.8966 1.4828 0.0000
0.8966 1.5172 0.0000
0.8966 1.5517 0.0000
0.8966 1.5862 0.0000
0.8966 1.6207 0.0000
0.8966 1.6552 0.0000
0.8966 1.6897 0.0000
0.8966 1.7241 0.0000
0.8966 1.7586 0.0000
0.8966 1.7931 0.0000
0.8966 1.8276 0.0000
0.8966 1.8621 0.0000
0.8966 1.8966 0.0000
0.8966 1.9310 0.0000
0.8966 1.9655 0.0000
0.8966 2.0000 0.0000
0.9655 1.0000 0.0000
0.9655 1.0345 0.0000
0.9655 1.0690 0.0000
0.9655 1.1034 0.0000
0.9655 1.1379 0.0000
0.9655 1.1724 0.0000
0.9655 1.2069 0.0000
0.9655 1.2414 0.0000
0.9655 1.2759 0.0000
0.9655 1.3103 0.0000
0.9655 1.3448 0.0000
0.9655 1.3793 0.0000
0.9655 1.4138 0.0000
0.9655 1.4483 0.0000
0.9655 1.4828 0.0000
0.9655 1.5172 0.0000
0.9655 1.5517 0.0000
0.9655 1.5862 0.0000
0.9655 1.6207 0.0000
0.9655 1.6552 0.0000
0.9655 1.6897 0.0000
0.9655 1.7241 0.0000
0.9655 1.7586 0.0000
0.9655 1.7931 0.0000
0.9655 1.8276 0.0000
0.9655 1.8621 0.0000
0.9655 1.8966 0.0000
0.9655 1.9310 0.0000
0.9655 1.9655 0.0000
0.9655 2.0000 0.0000
1.0345 1.0000 0.0000
1.0345 1.0345 0.0000
1.0345 1.0690 0.0000
1.0345 1.1034 0.0000
1.0345 1.1379 0.0000
1.0345 1.1724 0.0000
1.0345 1.2069 0.0000
1.0345 1.2414 0.0000
1.0345 1.2759 0.0000
1.0345 1.3103 0.0000
1.0345 1.3448 0.0000
[...]
         <PointData>
            <DataArray Name="fValues" NumberOfComponents="3" format="ascii" type="Float64">
 7.06487e-17 -4.69356e-16        00000 
-2.82595e-16 -9.41983e-17        00000 
-4.65752e-17  3.72602e-16        00000 
-4.94480e-16 -1.15574e-16        00000 
 4.42465e-16  2.32876e-16        00000 
-5.65408e-16 -7.91896e-17        00000 
 3.49314e-16  1.39726e-16        00000 
-1.34592e-16  4.09628e-17        00000 
 9.31504e-17  3.49314e-17        00000 
-2.21797e-16  5.51509e-17        00000 
 2.79451e-16  9.31504e-17        00000 
-1.34958e-16 -5.26665e-17        00000 
 4.07533e-17  6.40409e-17        00000 
-2.70519e-17  7.00260e-17        00000 
 8.73285e-18 -7.56847e-17        00000 
 1.46296e-18  3.98656e-17        00000 
-2.91095e-17 -2.91095e-17        00000 
 6.24348e-17 -7.03266e-17        00000 
 2.32876e-17  2.32876e-17        00000 
-1.75555e-17 -6.29072e-17        00000 
 2.91095e-16  6.98628e-17        00000 
-2.64713e-16  4.44450e-17        00000 
 1.63013e-16  1.97945e-16        00000 
 7.46109e-17 -1.08259e-16        00000 
 5.12327e-16  4.65752e-17        00000 
 7.78628e-17 -1.91927e-16        00000 
-4.65752e-17  1.63013e-16        00000 
 5.27648e-17 -4.69020e-16        00000 
 2.46617e-16  1.23309e-16        00000 
 1.66352e-15 -2.77280e-16        00000 
-5.62312e+00 -4.70805e+00        00000 
-4.15133e+00 -3.53832e+00        00000 
-3.45116e+00 -2.76001e+00        00000 
-2.97125e+00 -2.21686e+00        00000 
-2.59229e+00 -1.81872e+00        00000 
-2.26872e+00 -1.51678e+00        00000 
-1.97917e+00 -1.28258e+00        00000 
-1.71218e+00 -1.09845e+00        00000 
-1.46090e+00 -9.52894e-01        00000 
-1.22096e+00 -8.38146e-01        00000 
-9.89346e-01 -7.48809e-01        00000 
-7.63829e-01 -6.81093e-01        00000 
-5.42685e-01 -6.32347e-01        00000 
-3.24489e-01 -6.00773e-01        00000 
-1.07995e-01 -5.85252e-01        00000 
 1.07940e-01 -5.85250e-01        00000 
 3.24434e-01 -6.00767e-01        00000 
 5.42631e-01 -6.32337e-01        00000 
 7.63775e-01 -6.81079e-01        00000 
 9.89292e-01 -7.48791e-01        00000 
 1.22091e+00 -8.38124e-01        00000 
 1.46085e+00 -9.52868e-01        00000 
 1.71212e+00 -1.09842e+00        00000 
 1.97912e+00 -1.28254e+00        00000 
 2.26867e+00 -1.51674e+00        00000 
 2.59224e+00 -1.81867e+00        00000 
 2.97121e+00 -2.21681e+00        00000 
 3.45111e+00 -2.75995e+00        00000 
 4.15128e+00 -3.53826e+00        00000 
 5.62305e+00 -4.70797e+00        00000 
-9.95848e+00 -7.61895e+00        00000 
-8.55096e+00 -6.71220e+00        00000 
-7.32359e+00 -5.81556e+00        00000 
-6.35055e+00 -5.05039e+00        00000 
-5.54060e+00 -4.41979e+00        00000 
-4.83768e+00 -3.90462e+00        00000 
-4.20777e+00 -3.48468e+00        00000 
-3.62948e+00 -3.14298e+00        00000 
-3.08869e+00 -2.86621e+00        00000 
-2.57561e+00 -2.64410e+00        00000 
-2.08318e+00 -2.46893e+00        00000 
-1.60600e+00 -2.33487e+00        00000 
-1.13982e+00 -2.23772e+00        00000 
-6.81056e-01 -2.17449e+00        00000 
-2.26588e-01 -2.14334e+00        00000 
 2.26473e-01 -2.14333e+00        00000 
 6.80941e-01 -2.17448e+00        00000 
 1.13970e+00 -2.23770e+00        00000 
 1.60589e+00 -2.33485e+00        00000 
 2.08307e+00 -2.46889e+00        00000 
 2.57550e+00 -2.64407e+00        00000 
 3.08858e+00 -2.86616e+00        00000 
 3.62937e+00 -3.14293e+00        00000 
 4.20766e+00 -3.48462e+00        00000 
 4.83757e+00 -3.90456e+00        00000 
 5.54050e+00 -4.41972e+00        00000 
 6.35045e+00 -5.05031e+00        00000 
 7.32349e+00 -5.81547e+00        00000 
 8.55086e+00 -6.71210e+00        00000 
 9.95837e+00 -7.61885e+00        00000 
-1.40427e+01 -1.06579e+01        00000 
-1.25045e+01 -9.76644e+00        00000 
-1.10756e+01 -8.92963e+00        00000 
-9.77200e+00 -8.15281e+00        00000 
-8.60236e+00 -7.46001e+00        00000 
-7.54491e+00 -6.85760e+00        00000 
-6.57632e+00 -6.34237e+00        00000 
-5.67709e+00 -5.90736e+00        00000 
-4.83177e+00 -5.54481e+00        00000 
-4.02825e+00 -5.24741e+00        00000 
-3.25690e+00 -5.00886e+00        00000 
-2.50992e+00 -4.82399e+00        00000 
-1.78076e+00 -4.68875e+00        00000 
-1.06378e+00 -4.60019e+00        00000 
-3.53876e-01 -4.55639e+00        00000 
 3.53697e-01 -4.55638e+00        00000 
 1.06360e+00 -4.60018e+00        00000 
 1.78059e+00 -4.68873e+00        00000 
 2.50975e+00 -4.82396e+00        00000 
 3.25673e+00 -5.00883e+00        00000 
 4.02807e+00 -5.24737e+00        00000 
 4.83160e+00 -5.54475e+00        00000 
 5.67692e+00 -5.90730e+00        00000 
 6.57616e+00 -6.34230e+00        00000 
 7.54475e+00 -6.85753e+00        00000 
 8.60220e+00 -7.45992e+00        00000 
 9.77184e+00 -8.15272e+00        00000 
 1.10754e+01 -8.92953e+00        00000 
 1.25044e+01 -9.76634e+00        00000 
 1.40426e+01 -1.06578e+01        00000 
-1.80101e+01 -1.39998e+01        00000 
-1.62718e+01 -1.31437e+01        00000 
-1.46192e+01 -1.23370e+01        00000 
-1.30632e+01 -1.15874e+01        00000 
-1.16056e+01 -1.09006e+01        00000 
-1.02434e+01 -1.02831e+01        00000 
-8.96650e+00 -9.73797e+00        00000 
-7.76245e+00 -9.26473e+00        00000 
-6.61902e+00 -8.86098e+00        00000 
-5.52505e+00 -8.52336e+00        00000 
-4.47062e+00 -8.24832e+00        00000 
-3.44698e+00 -8.03258e+00        00000 
-2.44634e+00 -7.87332e+00        00000 
-1.46162e+00 -7.76838e+00        00000 
-4.86259e-01 -7.71628e+00        00000 
 4.86015e-01 -7.71627e+00        00000 
 1.46138e+00 -7.76837e+00        00000 
 2.44610e+00 -7.87330e+00        00000 
 3.44674e+00 -8.03255e+00        00000 
 4.47038e+00 -8.24828e+00        00000 
 5.52481e+00 -8.52331e+00        00000 
 6.61879e+00 -8.86093e+00        00000 
 7.76222e+00 -9.26467e+00        00000 
 8.96628e+00 -9.73790e+00        00000 
 1.02432e+01 -1.02830e+01        00000 
 1.16054e+01 -1.09005e+01        00000 
 1.30630e+01 -1.15874e+01        00000 
 1.46191e+01 -1.23369e+01        00000 
 1.62716e+01 -1.31436e+01        00000 
 1.80099e+01 -1.39997e+01        00000 
-2.18590e+01 -1.77751e+01        00000 
-1.98940e+01 -1.69468e+01        00000 
-1.80095e+01 -1.61713e+01        00000 
-1.62091e+01 -1.54496e+01        00000 
-1.44936e+01 -1.47849e+01        00000 
-1.28605e+01 -1.41801e+01        00000 
-1.13045e+01 -1.36378e+01        00000 
-9.81807e+00 -1.31593e+01        00000 
-8.39227e+00 -1.27447e+01        00000 
-7.01799e+00 -1.23933e+01        00000 
-5.68625e+00 -1.21037e+01        00000 
-4.38849e+00 -1.18743e+01        00000 
-3.11659e+00 -1.17038e+01        00000 
-1.86285e+00 -1.15908e+01        00000 
-6.19864e-01 -1.15346e+01        00000 
 6.19555e-01 -1.15345e+01        00000 
 1.86254e+00 -1.15908e+01        00000 
 3.11629e+00 -1.17038e+01        00000 
 4.38819e+00 -1.18743e+01        00000 
 5.68595e+00 -1.21036e+01        00000 
 7.01770e+00 -1.23933e+01        00000 
 8.39198e+00 -1.27447e+01        00000 
 9.81778e+00 -1.31592e+01        00000 
 1.13043e+01 -1.36377e+01        00000 
 1.28602e+01 -1.41800e+01        00000 
 1.44933e+01 -1.47848e+01        00000 
 1.62088e+01 -1.54495e+01        00000 
 1.80093e+01 -1.61712e+01        00000 
 1.98938e+01 -1.69467e+01        00000 
 2.18588e+01 -1.77751e+01        00000 
-2.55852e+01 -2.20199e+01        00000 
-2.33832e+01 -2.12210e+01        00000 
-2.12621e+01 -2.04751e+01        00000 
-1.92213e+01 -1.97824e+01        00000 
-1.72592e+01 -1.91437e+01        00000 
-1.53729e+01 -1.85606e+01        00000 
-1.35576e+01 -1.80346e+01        00000 
-1.18076e+01 -1.75670e+01        00000 
-1.01158e+01 -1.71585e+01        00000 
-8.47472e+00 -1.68094e+01        00000 
-6.87631e+00 -1.65195e+01        00000 
-5.31263e+00 -1.62885e+01        00000 
-3.77579e+00 -1.61159e+01        00000 
-2.25797e+00 -1.60011e+01        00000 
-7.51522e-01 -1.59438e+01        00000 
 7.51151e-01 -1.59438e+01        00000 
 2.25760e+00 -1.60011e+01        00000 
 3.77542e+00 -1.61159e+01        00000 
 5.31227e+00 -1.62885e+01        00000 
 6.87595e+00 -1.65195e+01        00000 
 8.47436e+00 -1.68094e+01        00000 
 1.01155e+01 -1.71585e+01        00000 
 1.18073e+01 -1.75670e+01        00000 
 1.35573e+01 -1.80346e+01        00000 
 1.53725e+01 -1.85606e+01        00000 
 1.72589e+01 -1.91437e+01        00000 
 1.92210e+01 -1.97823e+01        00000 
 2.12618e+01 -2.04751e+01        00000 
 2.33830e+01 -2.12209e+01        00000 
 2.55850e+01 -2.20199e+01        00000 
-2.91798e+01 -2.67453e+01        00000 
-2.67400e+01 -2.59768e+01        00000 
-2.43829e+01 -2.52608e+01        00000 
-2.21055e+01 -2.45971e+01        00000 
-1.99046e+01 -2.39857e+01        00000 
-1.77759e+01 -2.34272e+01        00000 
-1.57148e+01 -2.29227e+01        00000 
-1.37156e+01 -2.24728e+01        00000 
-1.17721e+01 -2.20784e+01        00000 
-9.87750e+00 -2.17400e+01        00000 
-8.02455e+00 -2.14579e+01        00000 
-6.20582e+00 -2.12323e+01        00000 
-4.41375e+00 -2.10632e+01        00000 
-2.64072e+00 -2.09506e+01        00000 
-8.79116e-01 -2.08943e+01        00000 
 8.78685e-01 -2.08943e+01        00000 
 2.64029e+00 -2.09506e+01        00000 
 4.41332e+00 -2.10632e+01        00000 
 6.20540e+00 -2.12323e+01        00000 
 8.02414e+00 -2.14579e+01        00000 
 9.87710e+00 -2.17400e+01        00000 
 1.17717e+01 -2.20784e+01        00000 
 1.37152e+01 -2.24728e+01        00000 
 1.57144e+01 -2.29227e+01        00000 
 1.77755e+01 -2.34272e+01        00000 
 1.99042e+01 -2.39857e+01        00000 
 2.21052e+01 -2.45971e+01        00000 
 2.43826e+01 -2.52609e+01        00000 
 2.67397e+01 -2.59768e+01        00000 
 2.91795e+01 -2.67453e+01        00000 
-3.26350e+01 -3.19465e+01        00000 
-2.99616e+01 -3.12096e+01        00000 
-2.73730e+01 -3.05240e+01        00000 
-2.48646e+01 -2.98893e+01        00000 
-2.24319e+01 -2.93054e+01        00000 
-2.00700e+01 -2.87725e+01        00000 
-1.77736e+01 -2.82910e+01        00000 
-1.55370e+01 -2.78615e+01        00000 
-1.33542e+01 -2.74846e+01        00000 
-1.12185e+01 -2.71607e+01        00000 
-9.12313e+00 -2.68903e+01        00000 
-7.06107e+00 -2.66737e+01        00000 
-5.02503e+00 -2.65111e+01        00000 
-3.00764e+00 -2.64027e+01        00000 
-1.00146e+00 -2.63484e+01        00000 
 1.00097e+00 -2.63484e+01        00000 
 3.00715e+00 -2.64027e+01        00000 
 5.02455e+00 -2.65111e+01        00000 
 7.06059e+00 -2.66738e+01        00000 
 9.12266e+00 -2.68904e+01        00000 
 1.12180e+01 -2.71608e+01        00000 
 1.33537e+01 -2.74846e+01        00000 
 1.55366e+01 -2.78616e+01        00000 
 1.77732e+01 -2.82911e+01        00000 
 2.00696e+01 -2.87725e+01        00000 
 2.24316e+01 -2.93055e+01        00000 
 2.48643e+01 -2.98894e+01        00000 
 2.73726e+01 -3.05241e+01        00000 
 2.99613e+01 -3.12097e+01        00000 
 3.26347e+01 -3.19466e+01        00000 
-3.59447e+01 -3.76110e+01        00000 
-3.30449e+01 -3.69065e+01        00000 
-3.02317e+01 -3.62517e+01        00000 
-2.74995e+01 -3.56462e+01        00000 
-2.48429e+01 -3.50898e+01        00000 
-2.22566e+01 -3.45825e+01        00000 
-1.97346e+01 -3.41245e+01        00000 
-1.72712e+01 -3.37162e+01        00000 
-1.48602e+01 -3.33578e+01        00000 
-1.24950e+01 -3.30499e+01        00000 
-1.01691e+01 -3.27927e+01        00000 
-7.87555e+00 -3.25866e+01        00000 
-5.60729e+00 -3.24318e+01        00000 
-3.35720e+00 -3.23285e+01        00000 
-1.11803e+00 -3.22768e+01        00000 
 1.11749e+00 -3.22768e+01        00000 
 3.35666e+00 -3.23285e+01        00000 
 5.60676e+00 -3.24318e+01        00000 
 7.87502e+00 -3.25866e+01        00000 
 1.01686e+01 -3.27927e+01        00000 
 1.24945e+01 -3.30499e+01        00000 
 1.48597e+01 -3.33579e+01        00000 
 1.72708e+01 -3.37162e+01        00000 
 1.97342e+01 -3.41246e+01        00000 
 2.22561e+01 -3.45826e+01        00000 
 2.48425e+01 -3.50899e+01        00000 
 2.74991e+01 -3.56463e+01        00000 
 3.02313e+01 -3.62519e+01        00000 
 3.30446e+01 -3.69066e+01        00000 
 3.59444e+01 -3.76112e+01        00000 
-3.91046e+01 -4.37217e+01        00000 
-3.59873e+01 -4.30503e+01        00000 
-3.29578e+01 -4.24267e+01        00000 
-3.00101e+01 -4.18506e+01        00000 
-2.71384e+01 -4.13216e+01        00000 
-2.43367e+01 -4.08397e+01        00000 
-2.15990e+01 -4.04051e+01        00000 
-1.89190e+01 -4.00179e+01        00000 
-1.62906e+01 -3.96783e+01        00000 
-1.37071e+01 -3.93865e+01        00000 
-1.11621e+01 -3.91430e+01        00000 
-8.64865e+00 -3.89478e+01        00000 
-6.15995e+00 -3.88012e+01        00000 
-3.68898e+00 -3.87034e+01        00000 
-1.22867e+00 -3.86544e+01        00000 
 1.22809e+00 -3.86544e+01        00000 
 3.68840e+00 -3.87034e+01        00000 
 6.15938e+00 -3.88012e+01        00000 
 8.64809e+00 -3.89478e+01        00000 
 1.11615e+01 -3.91430e+01        00000 
 1.37066e+01 -3.93866e+01        00000 
 1.62900e+01 -3.96784e+01        00000 
 1.89185e+01 -4.00180e+01        00000 
 2.15985e+01 -4.04052e+01        00000 
 2.43363e+01 -4.08399e+01        00000 
 2.71380e+01 -4.13217e+01        00000 
 3.00097e+01 -4.18507e+01        00000 
 3.29574e+01 -4.24269e+01        00000 
 3.59869e+01 -4.30506e+01        00000 
 3.91043e+01 -4.37219e+01        00000 
-4.21117e+01 -5.02593e+01        00000 
-3.87865e+01 -4.96216e+01        00000 
-3.55502e+01 -4.90295e+01        00000 
-3.23964e+01 -4.84827e+01        00000 
-2.93189e+01 -4.79811e+01        00000 
-2.63114e+01 -4.75245e+01        00000 
-2.33677e+01 -4.71130e+01        00000 
-2.04815e+01 -4.67466e+01        00000 
-1.76463e+01 -4.64255e+01        00000 
-1.48555e+01 -4.61499e+01        00000 
-1.21026e+01 -4.59198e+01        00000 
-9.38074e+00 -4.57355e+01        00000 
-6.68320e+00 -4.55971e+01        00000 
-4.00307e+00 -4.55048e+01        00000 
-1.33340e+00 -4.54586e+01        00000 
 1.33278e+00 -4.54586e+01        00000 
 4.00246e+00 -4.55048e+01        00000 
 6.68259e+00 -4.55971e+01        00000 
 9.38013e+00 -4.57355e+01        00000 
 1.21020e+01 -4.59199e+01        00000 
 1.48549e+01 -4.61500e+01        00000 
 1.76457e+01 -4.64257e+01        00000 
 2.04810e+01 -4.67468e+01        00000 
 2.33672e+01 -4.71132e+01        00000 
 2.63109e+01 -4.75247e+01        00000 
 2.93184e+01 -4.79813e+01        00000 
 3.23960e+01 -4.84830e+01        00000 
 3.55498e+01 -4.90298e+01        00000 
 3.87862e+01 -4.96219e+01        00000 
 4.21113e+01 -5.02597e+01        00000 
-4.49638e+01 -5.72035e+01        00000 
-4.14411e+01 -5.65997e+01        00000 
-3.80079e+01 -5.60393e+01        00000 
-3.46579e+01 -5.55220e+01        00000 
-3.13844e+01 -5.50477e+01        00000 
-2.81812e+01 -5.46162e+01        00000 
-2.50418e+01 -5.42276e+01        00000 
-2.19597e+01 -5.38818e+01        00000 
-1.89283e+01 -5.35788e+01        00000 
-1.59411e+01 -5.33189e+01        00000 
-1.29914e+01 -5.31021e+01        00000 
-1.00724e+01 -5.29284e+01        00000 
-7.17751e+00 -5.27981e+01        00000 
-4.29976e+00 -5.27111e+01        00000 
-1.43232e+00 -5.26676e+01        00000 
 1.43167e+00 -5.26676e+01        00000 
 4.29911e+00 -5.27111e+01        00000 
 7.17687e+00 -5.27981e+01        00000 
 1.00718e+01 -5.29285e+01        00000 
 1.29908e+01 -5.31022e+01        00000 
 1.59405e+01 -5.33190e+01        00000 
 1.89277e+01 -5.35790e+01        00000 
 2.19591e+01 -5.38820e+01        00000 
 2.50413e+01 -5.42278e+01        00000 
 2.81807e+01 -5.46165e+01        00000 
 3.13839e+01 -5.50480e+01        00000 
 3.46574e+01 -5.55223e+01        00000 
 3.80075e+01 -5.60397e+01        00000 
 4.14407e+01 -5.66001e+01        00000 
 4.49635e+01 -5.72039e+01        00000 
-4.76596e+01 -6.45330e+01        00000 
-4.39498e+01 -6.39635e+01        00000 
-4.03301e+01 -6.34349e+01        00000 
-3.67941e+01 -6.29472e+01        00000 
-3.33350e+01 -6.25002e+01        00000 
-2.99464e+01 -6.20937e+01        00000 
-2.66217e+01 -6.17277e+01        00000 
-2.33543e+01 -6.14022e+01        00000 
-2.01375e+01 -6.11171e+01        00000 
-1.69648e+01 -6.08726e+01        00000 
-1.38293e+01 -6.06686e+01        00000 
-1.07244e+01 -6.05054e+01        00000 
-7.64338e+00 -6.03828e+01        00000 
-4.57934e+00 -6.03011e+01        00000 
-1.52554e+00 -6.02603e+01        00000 
 1.52486e+00 -6.02603e+01        00000 
 4.57867e+00 -6.03012e+01        00000 
 7.64271e+00 -6.03829e+01        00000 
 1.07238e+01 -6.05055e+01        00000 
 1.38287e+01 -6.06688e+01        00000 
 1.69641e+01 -6.08727e+01        00000 
 2.01369e+01 -6.11173e+01        00000 
 2.33537e+01 -6.14024e+01        00000 
 2.66211e+01 -6.17280e+01        00000 
 2.99459e+01 -6.20940e+01        00000 
 3.33345e+01 -6.25005e+01        00000 
 3.67936e+01 -6.29476e+01        00000 
 4.03297e+01 -6.34354e+01        00000 
 4.39494e+01 -6.39639e+01        00000 
 4.76592e+01 -6.45335e+01        00000 
-5.01978e+01 -7.22266e+01        00000 
-4.63117e+01 -7.16915e+01        00000 
-4.25161e+01 -7.11950e+01        00000 
-3.88046e+01 -7.07369e+01        00000 
-3.51705e+01 -7.03171e+01        00000 
-3.16072e+01 -6.99355e+01        00000 
-2.81078e+01 -6.95920e+01        00000 
-2.46659e+01 -6.92865e+01        00000 
-2.12746e+01 -6.90190e+01        00000 
-1.79272e+01 -6.87895e+01        00000 
-1.46170e+01 -6.85982e+01        00000 
-1.13373e+01 -6.84450e+01        00000 
-8.08124e+00 -6.83301e+01        00000 
-4.84212e+00 -6.82534e+01        00000 
-1.61314e+00 -6.82151e+01        00000 
 1.61245e+00 -6.82151e+01        00000 
 4.84142e+00 -6.82535e+01        00000 
 8.08056e+00 -6.83302e+01        00000 
 1.13366e+01 -6.84452e+01        00000 
 1.46164e+01 -6.85984e+01        00000 
 1.79266e+01 -6.87897e+01        00000 
 2.12739e+01 -6.90192e+01        00000 
 2.46653e+01 -6.92867e+01        00000 
 2.81072e+01 -6.95923e+01        00000 
 3.16066e+01 -6.99359e+01        00000 
 3.51700e+01 -7.03175e+01        00000 
 3.88041e+01 -7.07374e+01        00000 
 4.25157e+01 -7.11955e+01        00000 
 4.63112e+01 -7.16920e+01        00000 
 5.01975e+01 -7.22272e+01        00000 
-5.25777e+01 -8.02628e+01        00000 
-4.85259e+01 -7.97623e+01        00000 
-4.45652e+01 -7.92980e+01        00000 
-4.06891e+01 -7.88696e+01        00000 
-3.68907e+01 -7.84771e+01        00000 
-3.31635e+01 -7.81203e+01        00000 
-2.95004e+01 -7.77990e+01        00000 
-2.58949e+01 -7.75133e+01        00000 
-2.23400e+01 -7.72630e+01        00000 
-1.88290e+01 -7.70483e+01        00000 
-1.53551e+01 -7.68693e+01        00000 
-1.19116e+01 -7.67259e+01        00000 
-8.49155e+00 -7.66183e+01        00000 
-5.08835e+00 -7.65465e+01        00000 
-1.69523e+00 -7.65106e+01        00000 
 1.69452e+00 -7.65106e+01        00000 
 5.08765e+00 -7.65465e+01        00000 
 8.49085e+00 -7.66184e+01        00000 
 1.19109e+01 -7.67260e+01        00000 
 1.53545e+01 -7.68695e+01        00000 
 1.88284e+01 -7.70486e+01        00000 
 2.23394e+01 -7.72633e+01        00000 
 2.58943e+01 -7.75136e+01        00000 
 2.94998e+01 -7.77994e+01        00000 
 3.31629e+01 -7.81207e+01        00000 
 3.68902e+01 -7.84776e+01        00000 
 4.06886e+01 -7.88702e+01        00000 
 4.45648e+01 -7.92985e+01        00000 
 4.85254e+01 -7.97629e+01        00000 
 5.25773e+01 -8.02634e+01        00000 
-5.47983e+01 -8.86202e+01        00000 
-5.05915e+01 -8.81545e+01        00000 
-4.64766e+01 -8.77225e+01        00000 
-4.24469e+01 -8.73241e+01        00000 
-3.84954e+01 -8.69588e+01        00000 
-3.46154e+01 -8.66266e+01        00000 
-3.07998e+01 -8.63274e+01        00000 
-2.70418e+01 -8.60611e+01        00000 
-2.33345e+01 -8.58277e+01        00000 
-1.96710e+01 -8.56273e+01        00000 
-1.60444e+01 -8.54601e+01        00000 
-1.24479e+01 -8.53261e+01        00000 
-8.87481e+00 -8.52254e+01        00000 
-5.31838e+00 -8.51583e+01        00000 
-1.77192e+00 -8.51247e+01        00000 
 1.77121e+00 -8.51247e+01        00000 
 5.31766e+00 -8.51584e+01        00000 