<?xml version="1.0" encoding="utf-8"?>
<VTKFile byte_order="LittleEndian" type="UnstructuredGrid" version="0.1">
   <UnstructuredGrid>
      <Piece NumberOfCells="3364" NumberOfPoints="1741">
         <Points>
            <DataArray Name="Points" NumberOfComponents="3" format="ascii" type="Float32">
0.0000 1.0000 0.0000
0.0000 1.0345 0.0000
0.0000 1.0690 0.0000
0.0000 1.1034 0.0000
0.0000 1.1379 0.0000
0.0000 1.1724 0.0000
0.0000 1.2069 0.0000
0.0000 1.2414 0.0000
0.0000 1.2759 0.0000
0.0000 1.3103 0.0000
0.0000 1.3448 0.0000
0.0000 1.3793 0.0000
0.0000 1.4138 0.0000
0.0000 1.4483 0.0000
0.0000 1.4828 0.0000
0.0000 1.5172 0.0000
0.0000 1.5517 0.0000
0.0000 1.5862 0.0000
0.0000 1.6207 0.0000
0.0000 1.6552 0.0000
0.0000 1.6897 0.0000
0.0000 1.7241 0.0000
0.0000 1.7586 0.0000
0.0000 1.7931 0.0000
0.0000 1.8276 0.0000
0.0000 1.8621 0.0000
0.0000 1.8966 0.0000
0.0000 1.9310 0.0000
0.0000 1.9655 0.0000
0.0000 2.0000 0.0000
0.0690 1.0000 0.0000
0.0690 1.0345 0.0000
0.0690 1.0690 0.0000
0.0690 1.1034 0.0000
0.0690 1.1379 0.0000
0.0690 1.1724 0.0000
0.0690 1.2069 0.0000
0.0690 1.2414 0.0000
0.0690 1.2759 0.0000
0.0690 1.3103 0.0000
0.0690 1.3448 0.0000
0.0690 1.3793 0.0000
0.0690 1.4138 0.0000
0.0690 1.4483 0.0000
0.0690 1.4828 0.0000
0.0690 1.5172 0.0000
0.0690 1.5517 0.0000
0.0690 1.5862 0.0000
0.0690 1.6207 0.0000
0.0690 1.6552 0.0000
0.0690 1.6897 0.0000
0.0690 1.7241 0.0000
0.0690 1.7586 0.0000
0.0690 1.7931 0.0000
0.0690 1.8276 0.0000
0.0690 1.8621 0.0000
0.0690 1.8966 0.0000
0.0690 1.9310 0.0000
0.0690 1.9655 0.0000
0.0690 2.0000 0.0000
0.1379 1.0000 0.0000
0.1379 1.0345 0.0000
0.1379 1.0690 0.0000
0.1379 1.1034 0.0000
0.1379 1.1379 0.0000
0.1379 1.1724 0.0000
0.1379 1.2069 0.0000
0.1379 1.2414 0.0000
0.1379 1.2759 0.0000
0.1379 1.3103 0.0000
0.1379 1.3448 0.0000
0.1379 1.3793 0.0000
0.1379 1.4138 0.0000
0.1379 1.4483 0.0000
0.1379 1.4828 0.0000
0.1379 1.5172 0.0000
0.1379 1.5517 0.0000
0.1379 1.5862 0.0000
0.1379 1.6207 0.0000
0.1379 1.6552 0.0000
0.1379 1.6897 0.0000
0.1379 1.7241 0.0000
0.1379 1.7586 0.0000
0.1379 1.7931 0.0000
0.1379 1.8276 0.0000
0.1379 1.8621 0.0000
0.1379 1.8966 0.0000
0.1379 1.9310 0.0000
0.1379 1.9655 0.0000
0.1379 2.0000 0.0000
0.2069 1.0000 0.0000
0.2069 1.0345 0.0000
0.2069 1.0690 0.0000
0.2069 1.1034 0.0000
0.2069 1.1379 0.0000
0.2069 1.1724 0.0000
0.2069 1.2069 0.0000
0.2069 1.2414 0.0000
0.2069 1.2759 0.0000
0.2069 1.3103 0.0000
0.2069 1.3448 0.0000
0.2069 1.3793 0.0000
0.2069 1.4138 0.0000
0.2069 1.4483 0.0000
0.2069 1.4828 0.0000
0.2069 1.5172 0.0000
0.2069 1.5517 0.0000
0.2069 1.5862 0.0000
0.2069 1.6207 0.0000
0.2069 1.6552 0.0000
0.2069 1.6897 0.0000
0.2069 1.7241 0.0000
0.2069 1.7586 0.0000
0.2069 1.7931 0.0000
0.2069 1.8276 0.0000
0.2069 1.8621 0.0000
0.2069 1.8966 0.0000
0.2069 1.9310 0.0000
0.2069 1.9655 0.0000
0.2069 2.0000 0.0000
0.2759 1.0000 0.0000
0.2759 1.0345 0.0000
0.2759 1.0690 0.0000
0.2759 1.1034 0.0000
0.2759 1.1379 0.0000
0.2759 1.1724 0.0000
0.2759 1.2069 0.0000
0.2759 1.2414 0.0000
0.2759 1.2759 0.0000
0.2759 1.3103 0.0000
0.2759 1.3448 0.0000
0.2759 1.3793 0.0000
0.2759 1.4138 0.0000
0.2759 1.4483 0.0000
0.2759 1.4828 0.0000
0.2759 1.5172 0.0000
0.2759 1.5517 0.0000
0.2759 1.5862 0.0000
0.2759 1.6207 0.0000
0.2759 1.6552 0.0000
0.2759 1.6897 0.0000
0.2759 1.7241 0.0000
0.2759 1.7586 0.0000
0.2759 1.7931 0.0000
0.2759 1.8276 0.0000
0.2759 1.8621 0.0000
0.2759 1.8966 0.0000
0.2759 1.9310 0.0000
0.2759 1.9655 0.0000
0.2759 2.0000 0.0000
0.3448 1.0000 0.0000
0.3448 1.0345 0.0000
0.3448 1.0690 0.0000
0.3448 1.1034 0.0000
0.3448 1.1379 0.0000
0.3448 1.1724 0.0000
0.3448 1.2069 0.0000
0.3448 1.2414 0.0000
0.3448 1.2759 0.0000
0.3448 1.3103 0.0000
0.3448 1.3448 0.0000
0.3448 1.3793 0.0000
0.3448 1.4138 0.0000
0.3448 1.4483 0.0000
0.3448 1.4828 0.0000
0.3448 1.5172 0.0000
0.3448 1.5517 0.0000
0.3448 1.5862 0.0000
0.3448 1.6207 0.0000
0.3448 1.6552 0.0000
0.3448 1.6897 0.0000
0.3448 1.7241 0.0000
0.3448 1.7586 0.0000
0.3448 1.7931 0.0000
0.3448 1.8276 0.0000
0.3448 1.8621 0.0000
0.3448 1.8966 0.0000
0.3448 1.9310 0.0000
0.3448 1.9655 0.0000
0.3448 2.0000 0.0000
0.4138 1.0000 0.0000
0.4138 1.0345 0.0000
0.4138 1.0690 0.0000
0.4138 1.1034 0.0000
0.4138 1.1379 0.0000
0.4138 1.1724 0.0000
0.4138 1.2069 0.0000
0.4138 1.2414 0.0000
0.4138 1.2759 0.0000
0.4138 1.3103 0.0000
0.4138 1.3448 0.0000
0.4138 1.3793 0.0000
0.4138 1.4138 0.0000
0.4138 1.4483 0.0000
0.4138 1.4828 0.0000
0.4138 1.5172 0.0000
0.4138 1.5517 0.0000
0.4138 1.5862 0.0000
0.4138 1.6207 0.0000
0.4138 1.6552 0.0000
0.4138 1.6897 0.0000
0.4138 1.7241 0.0000
0.4138 1.7586 0.0000
0.4138 1.7931 0.0000
0.4138 1.8276 0.0000
0.4138 1.8621 0.0000
0.4138 1.8966 0.0000
0.4138 1.9310 0.0000
0.4138 1.9655 0.0000
0.4138 2.0000 0.0000
0.4828 1.0000 0.0000
0.4828 1.0345 0.0000
0.4828 1.0690 0.0000
0.4828 1.1034 0.0000
0.4828 1.1379 0.0000
0.4828 1.1724 0.0000
0.4828 1.2069 0.0000
0.4828 1.2414 0.0000
0.4828 1.2759 0.0000
0.4828 1.3103 0.0000
0.4828 1.3448 0.0000
0.4828 1.3793 0.0000
0.4828 1.4138 0.0000
0.4828 1.4483 0.0000
0.4828 1.4828 0.0000
0.4828 1.5172 0.0000
0.4828 1.5517 0.0000
0.4828 1.5862 0.0000
0.4828 1.6207 0.0000
0.4828 1.6552 0.0000
0.4828 1.6897 0.0000
0.4828 1.7241 0.0000
0.4828 1.7586 0.0000
0.4828 1.7931 0.0000
0.4828 1.8276 0.0000
0.4828 1.8621 0.0000
0.4828 1.8966 0.0000
0.4828 1.9310 0.0000
0.4828 1.9655 0.0000
0.4828 2.0000 0.0000
0.5517 1.0000 0.0000
0.5517 1.0345 0.0000
0.5517 1.0690 0.0000
0.5517 1.1034 0.0000
0.5517 1.1379 0.0000
0.5517 1.1724 0.0000
0.5517 1.2069 0.0000
0.5517 1.2414 0.0000
0.5517 1.2759 0.0000
0.5517 1.3103 0.0000
0.5517 1.3448 0.0000
0.5517 1.3793 0.0000
0.5517 1.4138 0.0000
0.5517 1.4483 0.0000
0.5517 1.4828 0.0000
0.5517 1.5172 0.0000
0.5517 1.5517 0.0000
0.5517 1.5862 0.0000
0.5517 1.6207 0.0000
0.5517 1.6552 0.0000
0.5517 1.6897 0.0000
0.5517 1.7241 0.0000
0.5517 1.7586 0.0000
0.5517 1.7931 0.0000
0.5517 1.8276 0.0000
0.5517 1.8621 0.0000
0.5517 1.8966 0.0000
0.5517 1.9310 0.0000
0.5517 1.9655 0.0000
0.5517 2.0000 0.0000
0.6207 1.0000 0.0000
0.6207 1.0345 0.0000
0.6207 1.0690 0.0000
0.6207 1.1034 0.0000
0.6207 1.1379 0.0000
0.6207 1.1724 0.0000
0.6207 1.2069 0.0000
0.6207 1.2414 0.0000
0.6207 1.2759 0.0000
0.6207 1.3103 0.0000
0.6207 1.3448 0.0000
0.6207 1.3793 0.0000
0.6207 1.4138 0.0000
0.6207 1.4483 0.0000
0.6207 1.4828 0.0000
0.6207 1.5172 0.0000
0.6207 1.5517 0.0000
0.6207 1.5862 0.0000
0.6207 1.6207 0.0000
0.6207 1.6552 0.0000
0.6207 1.6897 0.0000
0.6207 1.7241 0.0000
0.6207 1.7586 0.0000
0.6207 1.7931 0.0000
0.6207 1.8276 0.0000
0.6207 1.8621 0.0000
0.6207 1.8966 0.0000
0.6207 1.9310 0.0000
0.6207 1.9655 0.0000
0.6207 2.0000 0.0000
0.6897 1.0000 0.0000
0.6897 1.0345 0.0000
0.6897 1.0690 0.0000
0.6897 1.1034 0.0000
0.6897 1.1379 0.0000
0.6897 1.1724 0.0000
0.6897 1.2069 0.0000
0.6897 1.2414 0.0000
0.6897 1.2759 0.0000
0.6897 1.3103 0.0000
0.6897 1.3448 0.0000
0.6897 1.3793 0.0000
0.6897 1.4138 0.0000
0.6897 1.4483 0.0000
0.6897 1.4828 0.0000
0.6897 1.5172 0.0000
0.6897 1.5517 0.0000
0.6897 1.5862 0.0000
0.6897 1.6207 0.0000
0.6897 1.6552 0.0000
0.6897 1.6897 0.0000
0.6897 1.7241 0.0000
0.6897 1.7586 0.0000
0.6897 1.7931 0.0000
0.6897 1.8276 0.0000
0.6897 1.8621 0.0000
0.6897 1.8966 0.0000
0.6897 1.9310 0.0000
0.6897 1.9655 0.0000
0.6897 2.0000 0.0000
0.7586 1.0000 0.0000
0.7586 1.0345 0.0000
0.7586 1.0690 0.0000
0.7586 1.1034 0.0000
0.7586 1.1379 0.0000
0.7586 1.1724 0.0000
0.7586 1.2069 0.0000
0.7586 1.2414 0.0000
0.7586 1.2759 0.0000
0.7586 1.3103 0.0000
0.7586 1.3448 0.0000
0.7586 1.3793 0.0000
0.7586 1.4138 0.0000
0.7586 1.4483 0.0000
0.7586 1.4828 0.0000
0.7586 1.5172 0.0000
0.7586 1.5517 0.0000
0.7586 1.5862 0.0000
0.7586 1.6207 0.0000
0.7586 1.6552 0.0000
0.7586 1.6897 0.0000
0.7586 1.7241 0.0000
0.7586 1.7586 0.0000
0.7586 1.7931 0.0000
0.7586 1.8276 0.0000
0.7586 1.8621 0.0000
0.7586 1.8966 0.0000
0.7586 1.9310 0.0000
0.7586 1.9655 0.0000
0.7586 2.0000 0.0000
0.8276 1.0000 0.0000
0.8276 1.0345 0.0000
0.8276 1.0690 0.0000
0.8276 1.1034 0.0000
0.8276 1.1379 0.0000
0.8276 1.1724 0.0000
0.8276 1.2069 0.0000
0.8276 1.2414 0.0000
0.8276 1.2759 0.0000
0.8276 1.3103 0.0000
0.8276 1.3448 0.0000
0.8276 1.3793 0.0000
0.8276 1.4138 0.0000
0.8276 1.4483 0.0000
0.8276 1.4828 0.0000
0.8276 1.5172 0.0000
0.8276 1.5517 0.0000
0.8276 1.5862 0.0000
0.8276 1.6207 0.0000
0.8276 1.6552 0.0000
0.8276 1.6897 0.0000
0.8276 1.7241 0.0000
0.8276 1.7586 0.0000
0.8276 1.7931 0.0000
0.8276 1.8276 0.0000
0.8276 1.8621 0.0000
0.8276 1.8966 0.0000
0.8276 1.9310 0.0000
0.8276 1.9655 0.0000
0.8276 2.0000 0.0000
0.8966 1.0000 0.0000
0.8966 1.0345 0.0000
0.8966 1.0690 0.0000
0.8966 1.1034 0.0000
0.8966 1.1379 0.0000
0.8966 1.1724 0.0000
0.8966 1.2069 0.0000
0.8966 1.2414 0.0000
0.8966 1.2759 0.0000
0.8966 1.3103 0.0000
0.8966 1.3448 0.0000
0.8966 1.3793 0.0000
0.8966 1.4138 0.0000
0.8966 1.4483 0.0000
0.8966 1.4828 0.0000
0.8966 1.5172 0.0000
0.8966 1.5517 0.0000
0.8966 1.5862 0.0000
0.8966 1.6207 0.0000
0.8966 1.6552 0.0000
0.8966 1.6897 0.0000
0.8966 1.7241 0.0000
0.8966 1.7586 0.0000
0.8966 1.7931 0.0000
0.8966 1.8276 0.0000
0.8966 1.8621 0.0000
0.8966 1.8966 0.0000
0.8966 1.9310 0.0000
0.8966 1.9655 0.0000
0.8966 2.0000 0.0000
0.9655 1.0000 0.0000
0.9655 1.0345 0.0000
0.9655 1.0690 0.0000
0.9655 1.1034 0.0000
0.9655 1.1379 0.0000
0.9655 1.1724 0.0000
0.9655 1.2069 0.0000
0.9655 1.2414 0.0000
0.9655 1.2759 0.0000
0.9655 1.3103 0.0000
0.9655 1.3448 0.0000
0.9655 1.3793 0.0000
0.9655 1.4138 0.0000
0.9655 1.4483 0.0000
0.9655 1.4828 0.0000
0.9655 1.5172 0.0000
0.9655 1.5517 0.0000
0.9655 1.5862 0.0000
0.9655 1.6207 0.0000
0.9655 1.6552 0.0000
0.9655 1.6897 0.0000
0.9655 1.7241 0.0000
0.9655 1.7586 0.0000
0.9655 1.7931 0.0000
0.9655 1.8276 0.0000
0.9655 1.8621 0.0000
0.9655 1.8966 0.0000
0.9655 1.9310 0.0000
0.9655 1.9655 0.0000
0.9655 2.0000 0.0000
1.0345 1.0000 0.0000
1.0345 1.0345 0.0000
1.0345 1.0690 0.0000
1.0345 1.1034 0.0000
1.0345 1.1379 0.0000
1.0345 1.1724 0.0000
1.0345 1.2069 0.0000
1.0345 1.2414 0.0000
1.0345 1.2759 0.0000
1.0345 1.3103 0.0000
1.0345 1.3448 0.0000
[...]
         <PointData>
            <DataArray Name="fValues" NumberOfComponents="3" format="ascii" type="Float64">
 3.17102e-16  2.17425e-16        00000 
-2.82595e-16 -3.76793e-16        00000 
 1.63013e-16 -1.63013e-16        00000 
 2.66990e-16 -2.04814e-17        00000 
-1.86301e-16 -4.07533e-17        00000 
 1.40576e-17  3.67503e-17        00000 
-5.82190e-17 -4.07533e-17        00000 
 1.92379e-16  4.20601e-17        00000 
 1.74657e-17 -2.91095e-17        00000 
-1.23608e-16 -3.35402e-17        00000 
 1.16438e-17  2.61986e-17        00000 
-1.60925e-17  2.10300e-18        00000 
-2.76540e-17 -8.73285e-18        00000 
 1.20246e-18 -8.73125e-18        00000 
-8.73285e-18 -9.46059e-18        00000 
 1.77384e-17  2.22644e-17        00000 
-1.74657e-17 -2.18321e-17        00000 
 1.25661e-17  1.15280e-18        00000 
-5.82190e-18 -5.82190e-18        00000 
-7.68053e-17  9.87497e-18        00000 
 3.49314e-17 -4.36643e-17        00000 
-6.66372e-17  7.56501e-17        00000 
-4.65752e-17 -1.16438e-17        00000 
 5.41295e-17 -6.18100e-17        00000 
 3.49314e-17  1.63013e-16        00000 
 7.24430e-17 -9.68353e-17        00000 
-4.65752e-17  1.63013e-16        00000 
 1.74417e-16 -5.12991e-17        00000 
-1.52668e-16        00000        00000 
 1.61393e-16 -2.46453e-16        00000 
-2.89508e+00 -2.33700e+00        00000 
-2.17998e+00 -1.72435e+00        00000 
-1.83920e+00 -1.30675e+00        00000 
-1.60155e+00 -1.00814e+00        00000 
-1.40991e+00 -7.84239e-01        00000 
-1.24293e+00 -6.10894e-01        00000 
-1.09077e+00 -4.73919e-01        00000 
-9.48266e-01 -3.64443e-01        00000 
-8.12381e-01 -2.76644e-01        00000 
-6.81216e-01 -2.06557e-01        00000 
-5.53477e-01 -1.51410e-01        00000 
-4.28233e-01 -1.09244e-01        00000 
-3.04768e-01 -7.86808e-02        00000 
-1.82496e-01 -5.87832e-02        00000 
-6.09129e-02 -4.89666e-02        00000 
 6.04460e-02 -4.89499e-02        00000 
 1.82031e-01 -5.87333e-02        00000 
 3.04305e-01 -7.85975e-02        00000 
 4.27774e-01 -1.09127e-01        00000 
 5.53022e-01 -1.51259e-01        00000 
 6.80767e-01 -2.06372e-01        00000 
 8.11939e-01 -2.76425e-01        00000 
 9.47831e-01 -3.64188e-01        00000 
 1.09035e+00 -4.73628e-01        00000 
 1.24251e+00 -6.10566e-01        00000 
 1.40950e+00 -7.83871e-01        00000 
 1.60114e+00 -1.00773e+00        00000 
 1.83878e+00 -1.30629e+00        00000 
 2.17953e+00 -1.72383e+00        00000 
 2.89448e+00 -2.33639e+00        00000 
-5.19035e+00 -3.69969e+00        00000 
-4.52207e+00 -3.21152e+00        00000 
-3.92288e+00 -2.72685e+00        00000 
-3.43793e+00 -2.30795e+00        00000 
-3.02589e+00 -1.95765e+00        00000 
-2.66130e+00 -1.66725e+00        00000 
-2.32885e+00 -1.42718e+00        00000 
-2.01896e+00 -1.22929e+00        00000 
-1.72536e+00 -1.06711e+00        00000 
-1.44373e+00 -9.35606e-01        00000 
-1.17098e+00 -8.30960e-01        00000 
-9.04774e-01 -7.50288e-01        00000 
-6.43272e-01 -6.91476e-01        00000 
-3.84940e-01 -6.53039e-01        00000 
-1.28439e-01 -6.34035e-01        00000 
 1.27463e-01 -6.34006e-01        00000 
 3.83966e-01 -6.52953e-01        00000 
 6.42303e-01 -6.91332e-01        00000 
 9.03812e-01 -7.50087e-01        00000 
 1.17002e+00 -8.30701e-01        00000 
 1.44278e+00 -9.35288e-01        00000 
 1.72443e+00 -1.06673e+00        00000 
 2.01805e+00 -1.22886e+00        00000 
 2.32796e+00 -1.42668e+00        00000 
 2.66043e+00 -1.66669e+00        00000 
 3.02502e+00 -1.95704e+00        00000 
 3.43708e+00 -2.30728e+00        00000 
 3.92202e+00 -2.72611e+00        00000 
 4.52118e+00 -3.21072e+00        00000 
 5.18942e+00 -3.69886e+00        00000 
-7.40882e+00 -5.12441e+00        00000 
-6.67178e+00 -4.63497e+00        00000 
-5.96976e+00 -4.17439e+00        00000 
-5.31512e+00 -3.74490e+00        00000 
-4.71608e+00 -3.35894e+00        00000 
-4.16463e+00 -3.02030e+00        00000 
-3.65122e+00 -2.72793e+00        00000 
-3.16761e+00 -2.47879e+00        00000 
-2.70722e+00 -2.26934e+00        00000 
-2.26485e+00 -2.09618e+00        00000 
-1.83638e+00 -1.95634e+00        00000 
-1.41842e+00 -1.84733e+00        00000 
-1.00816e+00 -1.76721e+00        00000 
-6.03161e-01 -1.71457e+00        00000 
-2.01224e-01 -1.68846e+00        00000 
 1.99709e-01 -1.68843e+00        00000 
 6.01650e-01 -1.71447e+00        00000 
 1.00666e+00 -1.76704e+00        00000 
 1.41693e+00 -1.84708e+00        00000 
 1.83490e+00 -1.95602e+00        00000 
 2.26340e+00 -2.09580e+00        00000 
 2.70578e+00 -2.26889e+00        00000 
 3.16620e+00 -2.47827e+00        00000 
 3.64984e+00 -2.72734e+00        00000 
 4.16328e+00 -3.01965e+00        00000 
 4.71476e+00 -3.35823e+00        00000 
 5.31383e+00 -3.74414e+00        00000 
 5.96850e+00 -4.17358e+00        00000 
 6.67055e+00 -4.63414e+00        00000 
 7.40763e+00 -5.12357e+00        00000 
-9.60973e+00 -6.72049e+00        00000 
-8.76062e+00 -6.24113e+00        00000 
-7.93653e+00 -5.78959e+00        00000 
-7.14574e+00 -5.36931e+00        00000 
-6.39193e+00 -4.98291e+00        00000 
-5.67603e+00 -4.63392e+00        00000 
-4.99499e+00 -4.32411e+00        00000 
-4.34425e+00 -4.05359e+00        00000 
-3.71898e+00 -3.82147e+00        00000 
-3.11466e+00 -3.62631e+00        00000 
-2.52717e+00 -3.46655e+00        00000 
-1.95285e+00 -3.34071e+00        00000 
-1.38839e+00 -3.24751e+00        00000 
-8.30765e-01 -3.18593e+00        00000 
-2.77168e-01 -3.15530e+00        00000 
 2.75102e-01 -3.15526e+00        00000 
 8.28704e-01 -3.18582e+00        00000 
 1.38634e+00 -3.24733e+00        00000 
 1.95082e+00 -3.34047e+00        00000 
 2.52516e+00 -3.46624e+00        00000 
 3.11267e+00 -3.62593e+00        00000 
 3.71703e+00 -3.82102e+00        00000 
 4.34233e+00 -4.05309e+00        00000 
 4.99312e+00 -4.32355e+00        00000 
 5.67421e+00 -4.63331e+00        00000 
 6.39017e+00 -4.98226e+00        00000 
 7.14404e+00 -5.36862e+00        00000 
 7.93491e+00 -5.78888e+00        00000 
 8.75908e+00 -6.24042e+00        00000 
 9.60830e+00 -6.71980e+00        00000 
-1.17865e+01 -8.56570e+00        00000 
-1.08067e+01 -8.09337e+00        00000 
-9.85097e+00 -7.65176e+00        00000 
-8.92305e+00 -7.24094e+00        00000 
-8.02552e+00 -6.86224e+00        00000 
-7.15899e+00 -6.51705e+00        00000 
-6.32261e+00 -6.20672e+00        00000 
-5.51409e+00 -5.93207e+00        00000 
-4.73033e+00 -5.69334e+00        00000 
-3.96787e+00 -5.49031e+00        00000 
-3.22316e+00 -5.32247e+00        00000 
-2.49273e+00 -5.18920e+00        00000 
-1.77322e+00 -5.08988e+00        00000 
-1.06141e+00 -5.02397e+00        00000 
-3.54170e-01 -4.99110e+00        00000 
 3.51555e-01 -4.99108e+00        00000 
 1.05880e+00 -5.02388e+00        00000 
 1.77063e+00 -5.08973e+00        00000 
 2.49016e+00 -5.18899e+00        00000 
 3.22062e+00 -5.32221e+00        00000 
 3.96537e+00 -5.49000e+00        00000 
 4.72788e+00 -5.69299e+00        00000 
 5.51169e+00 -5.93167e+00        00000 
 6.32027e+00 -6.20628e+00        00000 
 7.15673e+00 -6.51659e+00        00000 
 8.02334e+00 -6.86176e+00        00000 
 8.92097e+00 -7.24045e+00        00000 
 9.84901e+00 -7.65128e+00        00000 
 1.08049e+01 -8.09291e+00        00000 
 1.17848e+01 -8.56528e+00        00000 
-1.39333e+01 -1.06861e+01        00000 
-1.28139e+01 -1.02223e+01        00000 
-1.17200e+01 -9.79015e+00        00000 
-1.06531e+01 -9.38946e+00        00000 
-9.61386e+00 -9.02035e+00        00000 
-8.60247e+00 -8.68340e+00        00000 
-7.61810e+00 -8.37930e+00        00000 
-6.65917e+00 -8.10866e+00        00000 
-5.72343e+00 -7.87193e+00        00000 
-4.80815e+00 -7.66932e+00        00000 
-3.91035e+00 -7.50085e+00        00000 
-3.02689e+00 -7.36640e+00        00000 
-2.15457e+00 -7.26579e+00        00000 
-1.29020e+00 -7.19884e+00        00000 
-4.30589e-01 -7.16540e+00        00000 
 4.27442e-01 -7.16538e+00        00000 
 1.28706e+00 -7.19878e+00        00000 
 2.15145e+00 -7.26570e+00        00000 
 3.02380e+00 -7.36627e+00        00000 
 3.90730e+00 -7.50069e+00        00000 
 4.80515e+00 -7.66913e+00        00000 
 5.72049e+00 -7.87172e+00        00000 
 6.65631e+00 -8.10844e+00        00000 
 7.61532e+00 -8.37906e+00        00000 
 8.59979e+00 -8.68317e+00        00000 
 9.61130e+00 -9.02013e+00        00000 
 1.06507e+01 -9.38926e+00        00000 
 1.17178e+01 -9.78998e+00        00000 
 1.28118e+01 -1.02221e+01        00000 
 1.39314e+01 -1.06861e+01        00000 
-1.60428e+01 -1.30937e+01        00000 
-1.47804e+01 -1.26392e+01        00000 
-1.35455e+01 -1.22171e+01        00000 
-1.23382e+01 -1.18267e+01        00000 
-1.11581e+01 -1.14678e+01        00000 
-1.00046e+01 -1.11405e+01        00000 
-8.87646e+00 -1.08451e+01        00000 
-7.77221e+00 -1.05818e+01        00000 
-6.68983e+00 -1.03511e+01        00000 
-5.62692e+00 -1.01531e+01        00000 
-4.58081e+00 -9.98797e+00        00000 
-3.54864e+00 -9.85589e+00        00000 
-2.52741e+00 -9.75685e+00        00000 
-1.51402e+00 -9.69083e+00        00000 
-5.05367e-01 -9.65783e+00        00000 
 5.01718e-01 -9.65783e+00        00000 
 1.51039e+00 -9.69082e+00        00000 
 2.52379e+00 -9.75683e+00        00000 
 3.54506e+00 -9.85587e+00        00000 
 4.57728e+00 -9.98795e+00        00000 
 5.62345e+00 -1.01530e+01        00000 
 6.68644e+00 -1.03511e+01        00000 
 7.76892e+00 -1.05818e+01        00000 
 8.87327e+00 -1.08451e+01        00000 
 1.00015e+01 -1.11406e+01        00000 
 1.11552e+01 -1.14679e+01        00000 
 1.23355e+01 -1.18269e+01        00000 
 1.35430e+01 -1.22173e+01        00000 
 1.47780e+01 -1.26396e+01        00000 
 1.60407e+01 -1.30942e+01        00000 
-1.81092e+01 -1.57916e+01        00000 
-1.67031e+01 -1.53474e+01        00000 
-1.53268e+01 -1.49358e+01        00000 
-1.39791e+01 -1.45560e+01        00000 
-1.26591e+01 -1.42075e+01        00000 
-1.13654e+01 -1.38904e+01        00000 
-1.00967e+01 -1.36044e+01        00000 
-8.85099e+00 -1.33497e+01        00000 
-7.62637e+00 -1.31265e+01        00000 
-6.42051e+00 -1.29349e+01        00000 
-5.23086e+00 -1.27751e+01        00000 
-4.05469e+00 -1.26471e+01        00000 
-2.88914e+00 -1.25510e+01        00000 
-1.73123e+00 -1.24870e+01        00000 
-5.77937e-01 -1.24550e+01        00000 
 5.73822e-01 -1.24550e+01        00000 
 1.72713e+00 -1.24870e+01        00000 
 2.88506e+00 -1.25511e+01        00000 
 4.05066e+00 -1.26472e+01        00000 
 5.22689e+00 -1.27752e+01        00000 
 6.41661e+00 -1.29351e+01        00000 
 7.62257e+00 -1.31267e+01        00000 
 8.84729e+00 -1.33500e+01        00000 
 1.00931e+01 -1.36047e+01        00000 
 1.13620e+01 -1.38908e+01        00000 
 1.26559e+01 -1.42080e+01        00000 
 1.39761e+01 -1.45566e+01        00000 
 1.53239e+01 -1.49365e+01        00000 
 1.67005e+01 -1.53483e+01        00000 
 1.81069e+01 -1.57925e+01        00000 
-2.01276e+01 -1.87784e+01        00000 
-1.85790e+01 -1.83454e+01        00000 
-1.70620e+01 -1.79448e+01        00000 
-1.55752e+01 -1.75759e+01        00000 
-1.41169e+01 -1.72381e+01        00000 
-1.26853e+01 -1.69312e+01        00000 
-1.12787e+01 -1.66549e+01        00000 
-9.89510e+00 -1.64092e+01        00000 
-8.53222e+00 -1.61941e+01        00000 
-7.18775e+00 -1.60096e+01        00000 
-5.85915e+00 -1.58557e+01        00000 
-4.54373e+00 -1.57325e+01        00000 
-3.23869e+00 -1.56401e+01        00000 
-1.94111e+00 -1.55784e+01        00000 
-6.48051e-01 -1.55476e+01        00000 
 6.43513e-01 -1.55477e+01        00000 
 1.93659e+00 -1.55785e+01        00000 
 3.23420e+00 -1.56402e+01        00000 
 4.53929e+00 -1.57327e+01        00000 
 5.85478e+00 -1.58560e+01        00000 
 7.18347e+00 -1.60100e+01        00000 
 8.52805e+00 -1.61946e+01        00000 
 9.89104e+00 -1.64098e+01        00000 
 1.12748e+01 -1.66556e+01        00000 
 1.26816e+01 -1.69320e+01        00000 
 1.41133e+01 -1.72390e+01        00000 
 1.55719e+01 -1.75769e+01        00000 
 1.70589e+01 -1.79460e+01        00000 
 1.85761e+01 -1.83468e+01        00000 
 2.01251e+01 -1.87799e+01        00000 
-2.20940e+01 -2.20505e+01        00000 
-2.04049e+01 -2.16295e+01        00000 
-1.87493e+01 -2.12405e+01        00000 
-1.71253e+01 -2.08828e+01        00000 
-1.55309e+01 -2.05559e+01        00000 
-1.39641e+01 -2.02593e+01        00000 
-1.24227e+01 -1.99928e+01        00000 
-1.09046e+01 -1.97562e+01        00000 
-9.40731e+00 -1.95492e+01        00000 
-7.92845e+00 -1.93719e+01        00000 
-6.46539e+00 -1.92242e+01        00000 
-5.01543e+00 -1.91060e+01        00000 
-3.57574e+00 -1.90174e+01        00000 
-2.14346e+00 -1.89583e+01        00000 
-7.15629e-01 -1.89288e+01        00000 
 7.10716e-01 -1.89289e+01        00000 
 2.13856e+00 -1.89585e+01        00000 
 3.57089e+00 -1.90177e+01        00000 
 5.01063e+00 -1.91064e+01        00000 
 6.46067e+00 -1.92247e+01        00000 
 7.92383e+00 -1.93726e+01        00000 
 9.40280e+00 -1.95500e+01        00000 
 1.09002e+01 -1.97571e+01        00000 
 1.24185e+01 -1.99939e+01        00000 
 1.39601e+01 -2.02605e+01        00000 
 1.55271e+01 -2.05573e+01        00000 
 1.71218e+01 -2.08844e+01        00000 
 1.87460e+01 -2.12422e+01        00000 
 2.04019e+01 -2.16314e+01        00000 
 2.20913e+01 -2.20526e+01        00000 
-2.40050e+01 -2.56030e+01        00000 
-2.21781e+01 -2.51946e+01        00000 
-2.03865e+01 -2.48177e+01        00000 
-1.86279e+01 -2.44717e+01        00000 
-1.69002e+01 -2.41559e+01        00000 
-1.52012e+01 -2.38699e+01        00000 
-1.35283e+01 -2.36133e+01        00000 
-1.18793e+01 -2.33857e+01        00000 
-1.02516e+01 -2.31870e+01        00000 
-8.64260e+00 -2.30169e+01        00000 
-7.04957e+00 -2.28753e+01        00000 
-5.46975e+00 -2.27621e+01        00000 
-3.90027e+00 -2.26773e+01        00000 
-2.33823e+00 -2.26208e+01        00000 
-7.80660e-01 -2.25926e+01        00000 
 7.75423e-01 -2.25927e+01        00000 
 2.33301e+00 -2.26210e+01        00000 
 3.89510e+00 -2.26777e+01        00000 
 5.46464e+00 -2.27627e+01        00000 
 7.04454e+00 -2.28760e+01        00000 
 8.63768e+00 -2.30178e+01        00000 
 1.02468e+01 -2.31881e+01        00000 
 1.18747e+01 -2.33870e+01        00000 
 1.35239e+01 -2.36147e+01        00000 
 1.51969e+01 -2.38716e+01        00000 
 1.68962e+01 -2.41578e+01        00000 
 1.86241e+01 -2.44738e+01        00000 
 2.03830e+01 -2.48201e+01        00000 
 2.21749e+01 -2.51972e+01        00000 
 2.40022e+01 -2.56058e+01        00000 
-2.58576e+01 -2.94301e+01        00000 
-2.38958e+01 -2.90350e+01        00000 
-2.19711e+01 -2.86709e+01        00000 
-2.00811e+01 -2.83369e+01        00000 
-1.82234e+01 -2.80326e+01        00000 
-1.63955e+01 -2.77574e+01        00000 
-1.45949e+01 -2.75108e+01        00000 
-1.28189e+01 -2.72924e+01        00000 
-1.10649e+01 -2.71018e+01        00000 
-9.33007e+00 -2.69389e+01        00000 
-7.61163e+00 -2.68035e+01        00000 
-5.90668e+00 -2.66953e+01        00000 
-4.21228e+00 -2.66142e+01        00000 
-2.52544e+00 -2.65603e+01        00000 
-8.43146e-01 -2.65334e+01        00000 
 8.37637e-01 -2.65335e+01        00000 
 2.51995e+00 -2.65606e+01        00000 
 4.20684e+00 -2.66148e+01        00000 
 5.90130e+00 -2.66960e+01        00000 
 7.60634e+00 -2.68044e+01        00000 
 9.32490e+00 -2.69401e+01        00000 
 1.10599e+01 -2.71033e+01        00000 
 1.28140e+01 -2.72940e+01        00000 
 1.45902e+01 -2.75127e+01        00000 
 1.63911e+01 -2.77596e+01        00000 
 1.82192e+01 -2.80350e+01        00000 
 2.00772e+01 -2.83396e+01        00000 
 2.19674e+01 -2.86738e+01        00000 
 2.38925e+01 -2.90382e+01        00000 
 2.58546e+01 -2.94336e+01        00000 
-2.76486e+01 -3.35257e+01        00000 
-2.55552e+01 -3.31446e+01        00000 
-2.35008e+01 -3.27938e+01        00000 
-2.14828e+01 -3.24725e+01        00000 
-1.94987e+01 -3.21801e+01        00000 
-1.75458e+01 -3.19159e+01        00000 
-1.56214e+01 -3.16795e+01        00000 
-1.37226e+01 -3.14704e+01        00000 
-1.18466e+01 -3.12881e+01        00000 
-9.99051e+00 -3.11325e+01        00000 
-8.15135e+00 -3.10031e+01        00000 
-6.32609e+00 -3.08998e+01        00000 
-4.51169e+00 -3.08225e+01        00000 
-2.70505e+00 -3.07711e+01        00000 
-9.03076e-01 -3.07455e+01        00000 
 8.97347e-01 -3.07456e+01        00000 
 2.69934e+00 -3.07715e+01        00000 
 4.50603e+00 -3.08232e+01        00000 
 6.32051e+00 -3.09008e+01        00000 
 8.14586e+00 -3.10043e+01        00000 
 9.98515e+00 -3.11339e+01        00000 
 1.18414e+01 -3.12899e+01        00000 
 1.37175e+01 -3.14725e+01        00000 
 1.56165e+01 -3.16819e+01        00000 
 1.75412e+01 -3.19186e+01        00000 
 1.94943e+01 -3.21830e+01        00000 
 2.14787e+01 -3.24757e+01        00000 
 2.34970e+01 -3.27973e+01        00000 
 2.55518e+01 -3.31485e+01        00000 
 2.76456e+01 -3.35299e+01        00000 
-2.93750e+01 -3.78833e+01        00000 
-2.71534e+01 -3.75168e+01        00000 
-2.49728e+01 -3.71800e+01        00000 
-2.28307e+01 -3.68719e+01        00000 
-2.07241e+01 -3.65919e+01        00000 
-1.86503e+01 -3.63392e+01        00000 
-1.66064e+01 -3.61133e+01        00000 
-1.45893e+01 -3.59137e+01        00000 
-1.25960e+01 -3.57398e+01        00000 
-1.06234e+01 -3.55913e+01        00000 
-8.66836e+00 -3.54680e+01        00000 
-6.72775e+00 -3.53697e+01        00000 
-4.79835e+00 -3.52961e+01        00000 
-2.87698e+00 -3.52471e+01        00000 
-9.60427e-01 -3.52228e+01        00000 
 9.54533e-01 -3.52229e+01        00000 
 2.87111e+00 -3.52476e+01        00000 
 4.79254e+00 -3.52969e+01        00000 
 6.72201e+00 -3.53708e+01        00000 
 8.66273e+00 -3.54695e+01        00000 
 1.06179e+01 -3.55931e+01        00000 
 1.25906e+01 -3.57419e+01        00000 
 1.45841e+01 -3.59161e+01        00000 
 1.66014e+01 -3.61161e+01        00000 
 1.86456e+01 -3.63424e+01        00000 
 2.07196e+01 -3.65954e+01        00000 
 2.28265e+01 -3.68758e+01        00000 
 2.49690e+01 -3.71842e+01        00000 
 2.71499e+01 -3.75214e+01        00000 
 2.93718e+01 -3.78882e+01        00000 
-3.10331e+01 -4.24959e+01        00000 
-2.86869e+01 -4.21450e+01        00000 
-2.63841e+01 -4.18228e+01        00000 
-2.41219e+01 -4.15287e+01        00000 
-2.18973e+01 -4.12616e+01        00000 
-1.97072e+01 -4.10208e+01        00000 
-1.75484e+01 -4.08057e+01        00000 
-1.54178e+01 -4.06156e+01        00000 
-1.33121e+01 -4.04502e+01        00000 
-1.12280e+01 -4.03090e+01        00000 
-9.16222e+00 -4.01918e+01        00000 
-7.11135e+00 -4.00982e+01        00000 
-5.07210e+00 -4.00283e+01        00000 
-3.04115e+00 -3.99817e+01        00000 
-1.01517e+00 -3.99586e+01        00000 
 1.00916e+00 -3.99588e+01        00000 
 3.03517e+00 -3.99823e+01        00000 
 5.06618e+00 -4.00292e+01        00000 
 7.10550e+00 -4.00995e+01        00000 
 9.15648e+00 -4.01934e+01        00000 
 1.12224e+01 -4.03111e+01        00000 
 1.33067e+01 -4.04526e+01        00000 
 1.54126e+01 -4.06185e+01        00000 
 1.75434e+01 -4.08089e+01        00000 
 1.97024e+01 -4.10244e+01        00000 
 2.18927e+01 -4.12656e+01        00000 
 2.41177e+01 -4.15331e+01        00000 
 2.63802e+01 -4.18277e+01        00000 
 2.86834e+01 -4.21502e+01        00000 
 3.10299e+01 -4.25016e+01        00000 
-3.26190e+01 -4.73565e+01        00000 
-3.01521e+01 -4.70219e+01        00000 
-2.77313e+01 -4.67154e+01        00000 
-2.53536e+01 -4.64358e+01        00000 
-2.30156e+01 -4.61822e+01        00000 
-2.07141e+01 -4.59538e+01        00000 
-1.84457e+01 -4.57497e+01        00000 
-1.62069e+01 -4.55694e+01        00000 
-1.39941e+01 -4.54124e+01        00000 
-1.18038e+01 -4.52784e+01        00000 
-9.63249e+00 -4.51671e+01        00000 
-7.47665e+00 -4.50783e+01        00000 
-5.33281e+00 -4.50118e+01        00000 
-3.19749e+00 -4.49676e+01        00000 
-1.06729e+00 -4.49456e+01        00000 
 1.06122e+00 -4.49458e+01        00000 
 3.19145e+00 -4.49682e+01        00000 