<?xml version="1.0" encoding="utf-8"?>
<VTKFile byte_order="LittleEndian" type="UnstructuredGrid" version="0.1">
   <UnstructuredGrid>
      <Piece NumberOfCells="3364" NumberOfPoints="1741">
         <Points>
            <DataArray Name="Points" NumberOfComponents="3" format="ascii" type="Float32">
0.0000 1.0000 0.0000
0.0000 1.0345 0.0000
0.0000 1.0690 0.0000
0.0000 1.1034 0.0000
0.0000 1.1379 0.0000
0.0000 1.1724 0.0000
0.0000 1.2069 0.0000
0.0000 1.2414 0.0000
0.0000 1.2759 0.0000
0.0000 1.3103 0.0000
0.0000 1.3448 0.0000
0.0000 1.3793 0.0000
0.0000 1.4138 0.0000
0.0000 1.4483 0.0000
0.0000 1.4828 0.0000
0.0000 1.5172 0.0000
0.0000 1.5517 0.0000
0.0000 1.5862 0.0000
0.0000 1.6207 0.0000
0.0000 1.6552 0.0000
0.0000 1.6897 0.0000
0.0000 1.7241 0.0000
0.0000 1.7586 0.0000
0.0000 1.7931 0.0000
0.0000 1.8276 0.0000
0.0000 1.8621 0.0000
0.0000 1.8966 0.0000
0.0000 1.9310 0.0000
0.0000 1.9655 0.0000
0.0000 2.0000 0.0000
0.0690 1.0000 0.0000
0.0690 1.0345 0.0000
0.0690 1.0690 0.0000
0.0690 1.1034 0.0000
0.0690 1.1379 0.0000
0.0690 1.1724 0.0000
0.0690 1.2069 0.0000
0.0690 1.2414 0.0000
0.0690 1.2759 0.0000
0.0690 1.3103 0.0000
0.0690 1.3448 0.0000
0.0690 1.3793 0.0000
0.0690 1.4138 0.0000
0.0690 1.4483 0.0000
0.0690 1.4828 0.0000
0.0690 1.5172 0.0000
0.0690 1.5517 0.0000
0.0690 1.5862 0.0000
0.0690 1.6207 0.0000
0.0690 1.6552 0.0000
0.0690 1.6897 0.0000
0.0690 1.7241 0.0000
0.0690 1.7586 0.0000
0.0690 1.7931 0.0000
0.0690 1.8276 0.0000
0.0690 1.8621 0.0000
0.0690 1.8966 0.0000
0.0690 1.9310 0.0000
0.0690 1.9655 0.0000
0.0690 2.0000 0.0000
0.1379 1.0000 0.0000
0.1379 1.0345 0.0000
0.1379 1.0690 0.0000
0.1379 1.1034 0.0000
0.1379 1.1379 0.0000
0.1379 1.1724 0.0000
0.1379 1.2069 0.0000
0.1379 1.2414 0.0000
0.1379 1.2759 0.0000
0.1379 1.3103 0.0000
0.1379 1.3448 0.0000
0.1379 1.3793 0.0000
0.1379 1.4138 0.0000
0.1379 1.4483 0.0000
0.1379 1.4828 0.0000
0.1379 1.5172 0.0000
0.1379 1.5517 0.0000
0.1379 1.5862 0.0000
0.1379 1.6207 0.0000
0.1379 1.6552 0.0000
0.1379 1.6897 0.0000
0.1379 1.7241 0.0000
0.1379 1.7586 0.0000
0.1379 1.7931 0.0000
0.1379 1.8276 0.0000
0.1379 1.8621 0.0000
0.1379 1.8966 0.0000
0.1379 1.9310 0.0000
0.1379 1.9655 0.0000
0.1379 2.0000 0.0000
0.2069 1.0000 0.0000
0.2069 1.0345 0.0000
0.2069 1.0690 0.0000
0.2069 1.1034 0.0000
0.2069 1.1379 0.0000
0.2069 1.1724 0.0000
0.2069 1.2069 0.0000
0.2069 1.2414 0.0000
0.2069 1.2759 0.0000
0.2069 1.3103 0.0000
0.2069 1.3448 0.0000
0.2069 1.3793 0.0000
0.2069 1.4138 0.0000
0.2069 1.4483 0.0000
0.2069 1.4828 0.0000
0.2069 1.5172 0.0000
0.2069 1.5517 0.0000
0.2069 1.5862 0.0000
0.2069 1.6207 0.0000
0.2069 1.6552 0.0000
0.2069 1.6897 0.0000
0.2069 1.7241 0.0000
0.2069 1.7586 0.0000
0.2069 1.7931 0.0000
0.2069 1.8276 0.0000
0.2069 1.8621 0.0000
0.2069 1.8966 0.0000
0.2069 1.9310 0.0000
0.2069 1.9655 0.0000
0.2069 2.0000 0.0000
0.2759 1.0000 0.0000
0.2759 1.0345 0.0000
0.2759 1.0690 0.0000
0.2759 1.1034 0.0000
0.2759 1.1379 0.0000
0.2759 1.1724 0.0000
0.2759 1.2069 0.0000
0.2759 1.2414 0.0000
0.2759 1.2759 0.0000
0.2759 1.3103 0.0000
0.2759 1.3448 0.0000
0.2759 1.3793 0.0000
0.2759 1.4138 0.0000
0.2759 1.4483 0.0000
0.2759 1.4828 0.0000
0.2759 1.5172 0.0000
0.2759 1.5517 0.0000
0.2759 1.5862 0.0000
0.2759 1.6207 0.0000
0.2759 1.6552 0.0000
0.2759 1.6897 0.0000
0.2759 1.7241 0.0000
0.2759 1.7586 0.0000
0.2759 1.7931 0.0000
0.2759 1.8276 0.0000
0.2759 1.8621 0.0000
0.2759 1.8966 0.0000
0.2759 1.9310 0.0000
0.2759 1.9655 0.0000
0.2759 2.0000 0.0000
0.3448 1.0000 0.0000
0.3448 1.0345 0.0000
0.3448 1.0690 0.0000
0.3448 1.1034 0.0000
0.3448 1.1379 0.0000
0.3448 1.1724 0.0000
0.3448 1.2069 0.0000
0.3448 1.2414 0.0000
0.3448 1.2759 0.0000
0.3448 1.3103 0.0000
0.3448 1.3448 0.0000
0.3448 1.3793 0.0000
0.3448 1.4138 0.0000
0.3448 1.4483 0.0000
0.3448 1.4828 0.0000
0.3448 1.5172 0.0000
0.3448 1.5517 0.0000
0.3448 1.5862 0.0000
0.3448 1.6207 0.0000
0.3448 1.6552 0.0000
0.3448 1.6897 0.0000
0.3448 1.7241 0.0000
0.3448 1.7586 0.0000
0.3448 1.7931 0.0000
0.3448 1.8276 0.0000
0.3448 1.8621 0.0000
0.3448 1.8966 0.0000
0.3448 1.9310 0.0000
0.3448 1.9655 0.0000
0.3448 2.0000 0.0000
0.4138 1.0000 0.0000
0.4138 1.0345 0.0000
0.4138 1.0690 0.0000
0.4138 1.1034 0.0000
0.4138 1.1379 0.0000
0.4138 1.1724 0.0000
0.4138 1.2069 0.0000
0.4138 1.2414 0.0000
0.4138 1.2759 0.0000
0.4138 1.3103 0.0000
0.4138 1.3448 0.0000
0.4138 1.3793 0.0000
0.4138 1.4138 0.0000
0.4138 1.4483 0.0000
0.4138 1.4828 0.0000
0.4138 1.5172 0.0000
0.4138 1.5517 0.0000
0.4138 1.5862 0.0000
0.4138 1.6207 0.0000
0.4138 1.6552 0.0000
0.4138 1.6897 0.0000
0.4138 1.7241 0.0000
0.4138 1.7586 0.0000
0.4138 1.7931 0.0000
0.4138 1.8276 0.0000
0.4138 1.8621 0.0000
0.4138 1.8966 0.0000
0.4138 1.9310 0.0000
0.4138 1.9655 0.0000
0.4138 2.0000 0.0000
0.4828 1.0000 0.0000
0.4828 1.0345 0.0000
0.4828 1.0690 0.0000
0.4828 1.1034 0.0000
0.4828 1.1379 0.0000
0.4828 1.1724 0.0000
0.4828 1.2069 0.0000
0.4828 1.2414 0.0000
0.4828 1.2759 0.0000
0.4828 1.3103 0.0000
0.4828 1.3448 0.0000
0.4828 1.3793 0.0000
0.4828 1.4138 0.0000
0.4828 1.4483 0.0000
0.4828 1.4828 0.0000
0.4828 1.5172 0.0000
0.4828 1.5517 0.0000
0.4828 1.5862 0.0000
0.4828 1.6207 0.0000
0.4828 1.6552 0.0000
0.4828 1.6897 0.0000
0.4828 1.7241 0.0000
0.4828 1.7586 0.0000
0.4828 1.7931 0.0000
0.4828 1.8276 0.0000
0.4828 1.8621 0.0000
0.4828 1.8966 0.0000
0.4828 1.9310 0.0000
0.4828 1.9655 0.0000
0.4828 2.0000 0.0000
0.5517 1.0000 0.0000
0.5517 1.0345 0.0000
0.5517 1.0690 0.0000
0.5517 1.1034 0.0000
0.5517 1.1379 0.0000
0.5517 1.1724 0.0000
0.5517 1.2069 0.0000
0.5517 1.2414 0.0000
0.5517 1.2759 0.0000
0.5517 1.3103 0.0000
0.5517 1.3448 0.0000
0.5517 1.3793 0.0000
0.5517 1.4138 0.0000
0.5517 1.4483 0.0000
0.5517 1.4828 0.0000
0.5517 1.5172 0.0000
0.5517 1.5517 0.0000
0.5517 1.5862 0.0000
0.5517 1.6207 0.0000
0.5517 1.6552 0.0000
0.5517 1.6897 0.0000
0.5517 1.7241 0.0000
0.5517 1.7586 0.0000
0.5517 1.7931 0.0000
0.5517 1.8276 0.0000
0.5517 1.8621 0.0000
0.5517 1.8966 0.0000
0.5517 1.9310 0.0000
0.5517 1.9655 0.0000
0.5517 2.0000 0.0000
0.6207 1.0000 0.0000
0.6207 1.0345 0.0000
0.6207 1.0690 0.0000
0.6207 1.1034 0.0000
0.6207 1.1379 0.0000
0.6207 1.1724 0.0000
0.6207 1.2069 0.0000
0.6207 1.2414 0.0000
0.6207 1.2759 0.0000
0.6207 1.3103 0.0000
0.6207 1.3448 0.0000
0.6207 1.3793 0.0000
0.6207 1.4138 0.0000
0.6207 1.4483 0.0000
0.6207 1.4828 0.0000
0.6207 1.5172 0.0000
0.6207 1.5517 0.0000
0.6207 1.5862 0.0000
0.6207 1.6207 0.0000
0.6207 1.6552 0.0000
0.6207 1.6897 0.0000
0.6207 1.7241 0.0000
0.6207 1.7586 0.0000
0.6207 1.7931 0.0000
0.6207 1.8276 0.0000
0.6207 1.8621 0.0000
0.6207 1.8966 0.0000
0.6207 1.9310 0.0000
0.6207 1.9655 0.0000
0.6207 2.0000 0.0000
0.6897 1.0000 0.0000
0.6897 1.0345 0.0000
0.6897 1.0690 0.0000
0.6897 1.1034 0.0000
0.6897 1.1379 0.0000
0.6897 1.1724 0.0000
0.6897 1.2069 0.0000
0.6897 1.2414 0.0000
0.6897 1.2759 0.0000
0.6897 1.3103 0.0000
0.6897 1.3448 0.0000
0.6897 1.3793 0.0000
0.6897 1.4138 0.0000
0.6897 1.4483 0.0000
0.6897 1.4828 0.0000
0.6897 1.5172 0.0000
0.6897 1.5517 0.0000
0.6897 1.5862 0.0000
0.6897 1.6207 0.0000
0.6897 1.6552 0.0000
0.6897 1.6897 0.0000
0.6897 1.7241 0.0000
0.6897 1.7586 0.0000
0.6897 1.7931 0.0000
0.6897 1.8276 0.0000
0.6897 1.8621 0.0000
0.6897 1.8966 0.0000
0.6897 1.9310 0.0000
0.6897 1.9655 0.0000
0.6897 2.0000 0.0000
0.7586 1.0000 0.0000
0.7586 1.0345 0.0000
0.7586 1.0690 0.0000
0.7586 1.1034 0.0000
0.7586 1.1379 0.0000
0.7586 1.1724 0.0000
0.7586 1.2069 0.0000
0.7586 1.2414 0.0000
0.7586 1.2759 0.0000
0.7586 1.3103 0.0000
0.7586 1.3448 0.0000
0.7586 1.3793 0.0000
0.7586 1.4138 0.0000
0.7586 1.4483 0.0000
0.7586 1.4828 0.0000
0.7586 1.5172 0.0000
0.7586 1.5517 0.0000
0.7586 1.5862 0.0000
0.7586 1.6207 0.0000
0.7586 1.6552 0.0000
0.7586 1.6897 0.0000
0.7586 1.7241 0.0000
0.7586 1.7586 0.0000
0.7586 1.7931 0.0000
0.7586 1.8276 0.0000
0.7586 1.8621 0.0000
0.7586 1.8966 0.0000
0.7586 1.9310 0.0000
0.7586 1.9655 0.0000
0.7586 2.0000 0.0000
0.8276 1.0000 0.0000
0.8276 1.0345 0.0000
0.8276 1.0690 0.0000
0.8276 1.1034 0.0000
0.8276 1.1379 0.0000
0.8276 1.1724 0.0000
0.8276 1.2069 0.0000
0.8276 1.2414 0.0000
0.8276 1.2759 0.0000
0.8276 1.3103 0.0000
0.8276 1.3448 0.0000
0.8276 1.3793 0.0000
0.8276 1.4138 0.0000
0.8276 1.4483 0.0000
0.8276 1.4828 0.0000
0.8276 1.5172 0.0000
0.8276 1.5517 0.0000
0.8276 1.5862 0.0000
0.8276 1.6207 0.0000
0.8276 1.6552 0.0000
0.8276 1.6897 0.0000
0.8276 1.7241 0.0000
0.8276 1.7586 0.0000
0.8276 1.7931 0.0000
0.8276 1.8276 0.0000
0.8276 1.8621 0.0000
0.8276 1.8966 0.0000
0.8276 1.9310 0.0000
0.8276 1.9655 0.0000
0.8276 2.0000 0.0000
0.8966 1.0000 0.0000
0.8966 1.0345 0.0000
0.8966 1.0690 0.0000
0.8966 1.1034 0.0000
0.8966 1.1379 0.0000
0.8966 1.1724 0.0000
0.8966 1.2069 0.0000
0.8966 1.2414 0.0000
0.8966 1.2759 0.0000
0.8966 1.3103 0.0000
0.8966 1.3448 0.0000
0.8966 1.3793 0.0000
0.8966 1.4138 0.0000
0.8966 1.4483 0.0000
0.8966 1.4828 0.0000
0.8966 1.5172 0.0000
0.8966 1.5517 0.0000
0.8966 1.5862 0.0000
0.8966 1.6207 0.0000
0.8966 1.6552 0.0000
0.8966 1.6897 0.0000
0.8966 1.7241 0.0000
0.8966 1.7586 0.0000
0.8966 1.7931 0.0000
0.8966 1.8276 0.0000
0.8966 1.8621 0.0000
0.8966 1.8966 0.0000
0.8966 1.9310 0.0000
0.8966 1.9655 0.0000
0.8966 2.0000 0.0000
0.9655 1.0000 0.0000
0.9655 1.0345 0.0000
0.9655 1.0690 0.0000
0.9655 1.1034 0.0000
0.9655 1.1379 0.0000
0.9655 1.1724 0.0000
0.9655 1.2069 0.0000
0.9655 1.2414 0.0000
0.9655 1.2759 0.0000
0.9655 1.3103 0.0000
0.9655 1.3448 0.0000
0.9655 1.3793 0.0000
0.9655 1.4138 0.0000
0.9655 1.4483 0.0000
0.9655 1.4828 0.0000
0.9655 1.5172 0.0000
0.9655 1.5517 0.0000
0.9655 1.5862 0.0000
0.9655 1.6207 0.0000
0.9655 1.6552 0.0000
0.9655 1.6897 0.0000
0.9655 1.7241 0.0000
0.9655 1.7586 0.0000
0.9655 1.7931 0.0000
0.9655 1.8276 0.0000
0.9655 1.8621 0.0000
0.9655 1.8966 0.0000
0.9655 1.9310 0.0000
0.9655 1.9655 0.0000
0.9655 2.0000 0.0000
1.0345 1.0000 0.0000
1.0345 1.0345 0.0000
1.0345 1.0690 0.0000
1.0345 1.1034 0.0000
1.0345 1.1379 0.0000
1.0345 1.1724 0.0000
1.0345 1.2069 0.0000
1.0345 1.2414 0.0000
1.0345 1.2759 0.0000
1.0345 1.3103 0.0000
1.0345 1.3448 0.0000
[...]
         <PointData>
            <DataArray Name="fValues" NumberOfComponents="3" format="ascii" type="Float64">
-6.43525e-17  4.87427e-16        00000 
-2.35496e-16 -4.70991e-16        00000 
-6.98628e-17  2.09588e-16        00000 
-3.94999e-17 -7.86340e-17        00000 
 1.63013e-16 -1.16438e-17        00000 
-4.80182e-16 -7.50839e-17        00000 
 1.97945e-16 -4.07533e-17        00000 
 1.48490e-16  1.35324e-17        00000 
-1.51369e-16  2.03767e-17        00000 
 1.01584e-16 -2.17484e-17        00000 
-6.40409e-17  6.11300e-17        00000 
-1.64583e-18 -4.96949e-17        00000 
 2.91095e-18  1.60102e-17        00000 
-4.91212e-18 -8.94911e-18        00000 
 1.74657e-17  9.46059e-18        00000 
 1.64583e-18 -7.31479e-18        00000 
 1.45548e-17  7.27738e-19        00000 
-2.63022e-17 -1.29618e-17        00000 
 2.32876e-17  1.81934e-17        00000 
-2.04814e-17 -1.11551e-17        00000 
-2.32876e-17  1.16438e-17        00000 
 7.97582e-17 -6.67090e-17        00000 
-1.63013e-16  4.94862e-17        00000 
 4.16943e-17  4.48031e-17        00000 
 8.15066e-17 -1.51369e-16        00000 
 1.65866e-17 -4.86930e-17        00000 
 1.63013e-16  1.04794e-16        00000 
-1.20186e-16 -1.89074e-16        00000 
 3.40567e-16 -4.19836e-16        00000 
 3.80848e-17  3.51412e-16        00000 
-2.86193e+00 -2.30819e+00        00000 
-2.15602e+00 -1.70231e+00        00000 
-1.81961e+00 -1.28909e+00        00000 
-1.58491e+00 -9.93457e-01        00000 
-1.39555e+00 -7.71670e-01        00000 
-1.23046e+00 -5.99887e-01        00000 
-1.07998e+00 -4.64093e-01        00000 
-9.38983e-01 -3.55525e-01        00000 
-8.04501e-01 -2.68428e-01        00000 
-6.74657e-01 -1.98883e-01        00000 
-5.48181e-01 -1.44152e-01        00000 
-4.24155e-01 -1.02296e-01        00000 
-3.01877e-01 -7.19540e-02        00000 
-1.80771e-01 -5.21984e-02        00000 
-6.03408e-02 -4.24510e-02        00000 
 5.98688e-02 -4.24342e-02        00000 
 1.80300e-01 -5.21479e-02        00000 
 3.01409e-01 -7.18699e-02        00000 
 4.23691e-01 -1.02178e-01        00000 
 5.47721e-01 -1.43999e-01        00000 
 6.74203e-01 -1.98697e-01        00000 
 8.04054e-01 -2.68206e-01        00000 
 9.38544e-01 -3.55267e-01        00000 
 1.07955e+00 -4.63799e-01        00000 
 1.23004e+00 -5.99555e-01        00000 
 1.39513e+00 -7.71298e-01        00000 
 1.58449e+00 -9.93041e-01        00000 
 1.81919e+00 -1.28862e+00        00000 
 2.15557e+00 -1.70178e+00        00000 
 2.86133e+00 -2.30757e+00        00000 
-5.13241e+00 -3.65207e+00        00000 
-4.47311e+00 -3.16898e+00        00000 
-3.88155e+00 -2.68932e+00        00000 
-3.40254e+00 -2.27463e+00        00000 
-2.99533e+00 -1.92774e+00        00000 
-2.63486e+00 -1.64006e+00        00000 
-2.30602e+00 -1.40218e+00        00000 
-1.99939e+00 -1.20604e+00        00000 
-1.70879e+00 -1.04525e+00        00000 
-1.42997e+00 -9.14847e-01        00000 
-1.15989e+00 -8.11058e-01        00000 
-8.96253e-01 -7.31035e-01        00000 
-6.37238e-01 -6.72689e-01        00000 
-3.81342e-01 -6.34553e-01        00000 
-1.27247e-01 -6.15697e-01        00000 
 1.26260e-01 -6.15668e-01        00000 
 3.80357e-01 -6.34466e-01        00000 
 6.36259e-01 -6.72543e-01        00000 
 8.95280e-01 -7.30832e-01        00000 
 1.15893e+00 -8.10796e-01        00000 
 1.42902e+00 -9.14526e-01        00000 
 1.70785e+00 -1.04487e+00        00000 
 1.99847e+00 -1.20560e+00        00000 
 2.30512e+00 -1.40168e+00        00000 
 2.63397e+00 -1.63950e+00        00000 
 2.99446e+00 -1.92711e+00        00000 
 3.40167e+00 -2.27395e+00        00000 
 3.88068e+00 -2.68857e+00        00000 
 4.47222e+00 -3.16818e+00        00000 
 5.13147e+00 -3.65123e+00        00000 
-7.32821e+00 -5.05717e+00        00000 
-6.60090e+00 -4.57262e+00        00000 
-5.90772e+00 -4.11661e+00        00000 
-5.26097e+00 -3.69134e+00        00000 
-4.66886e+00 -3.30911e+00        00000 
-4.12356e+00 -2.97367e+00        00000 
-3.61568e+00 -2.68401e+00        00000 
-3.13712e+00 -2.43713e+00        00000 
-2.68140e+00 -2.22954e+00        00000 
-2.24343e+00 -2.05789e+00        00000 
-1.81911e+00 -1.91925e+00        00000 
-1.40516e+00 -1.81116e+00        00000 
-9.98772e-01 -1.73172e+00        00000 
-5.97564e-01 -1.67951e+00        00000 
-1.99369e-01 -1.65362e+00        00000 
 1.97838e-01 -1.65358e+00        00000 
 5.96036e-01 -1.67940e+00        00000 
 9.97252e-01 -1.73154e+00        00000 
 1.40365e+00 -1.81091e+00        00000 
 1.81762e+00 -1.91893e+00        00000 
 2.24195e+00 -2.05751e+00        00000 
 2.67995e+00 -2.22908e+00        00000 
 3.13569e+00 -2.43660e+00        00000 
 3.61428e+00 -2.68342e+00        00000 
 4.12219e+00 -2.97302e+00        00000 
 4.66752e+00 -3.30839e+00        00000 
 5.25966e+00 -3.69057e+00        00000 
 5.90645e+00 -4.11579e+00        00000 
 6.59966e+00 -4.57178e+00        00000 
 7.32701e+00 -5.05632e+00        00000 
-9.50766e+00 -6.63204e+00        00000 
-8.66934e+00 -6.15726e+00        00000 
-7.85533e+00 -5.71003e+00        00000 
-7.07383e+00 -5.29375e+00        00000 
-6.32857e+00 -4.91101e+00        00000 
-5.62053e+00 -4.56528e+00        00000 
-4.94673e+00 -4.25832e+00        00000 
-4.30271e+00 -3.99027e+00        00000 
-3.68374e+00 -3.76023e+00        00000 
-3.08537e+00 -3.56680e+00        00000 
-2.50356e+00 -3.40845e+00        00000 
-1.93469e+00 -3.28370e+00        00000 
-1.37553e+00 -3.19130e+00        00000 
-8.23099e-01 -3.13025e+00        00000 
-2.74628e-01 -3.09988e+00        00000 
 2.72539e-01 -3.09984e+00        00000 
 8.21016e-01 -3.13014e+00        00000 
 1.37346e+00 -3.19112e+00        00000 
 1.93264e+00 -3.28346e+00        00000 
 2.50152e+00 -3.40813e+00        00000 
 3.08336e+00 -3.56642e+00        00000 
 3.68177e+00 -3.75978e+00        00000 
 4.30077e+00 -3.98976e+00        00000 
 4.94484e+00 -4.25776e+00        00000 
 5.61869e+00 -4.56466e+00        00000 
 6.32679e+00 -4.91035e+00        00000 
 7.07212e+00 -5.29306e+00        00000 
 7.85369e+00 -5.70932e+00        00000 
 8.66779e+00 -6.15654e+00        00000 
 9.50621e+00 -6.63134e+00        00000 
-1.16641e+01 -8.45379e+00        00000 
-1.06963e+01 -7.98579e+00        00000 
-9.75183e+00 -7.54824e+00        00000 
-8.83451e+00 -7.14120e+00        00000 
-7.94692e+00 -6.76598e+00        00000 
-7.08971e+00 -6.42394e+00        00000 
-6.26207e+00 -6.11643e+00        00000 
-5.46179e+00 -5.84426e+00        00000 
-4.68583e+00 -5.60766e+00        00000 
-3.93081e+00 -5.40643e+00        00000 
-3.19323e+00 -5.24007e+00        00000 
-2.46969e+00 -5.10797e+00        00000 
-1.75690e+00 -5.00951e+00        00000 
-1.05167e+00 -4.94418e+00        00000 
-3.50942e-01 -4.91160e+00        00000 
 3.48299e-01 -4.91157e+00        00000 
 1.04904e+00 -4.94409e+00        00000 
 1.75428e+00 -5.00936e+00        00000 
 2.46709e+00 -5.10776e+00        00000 
 3.19066e+00 -5.23981e+00        00000 
 3.92828e+00 -5.40612e+00        00000 
 4.68335e+00 -5.60730e+00        00000 
 5.45936e+00 -5.84385e+00        00000 
 6.25970e+00 -6.11599e+00        00000 
 7.08742e+00 -6.42347e+00        00000 
 7.94472e+00 -6.76549e+00        00000 
 8.83241e+00 -7.14070e+00        00000 
 9.74985e+00 -7.54775e+00        00000 
 1.06945e+01 -7.98532e+00        00000 
 1.16624e+01 -8.45337e+00        00000 
-1.37917e+01 -1.05484e+01        00000 
-1.26855e+01 -1.00886e+01        00000 
-1.16041e+01 -9.66032e+00        00000 
-1.05490e+01 -9.26318e+00        00000 
-9.52096e+00 -8.89734e+00        00000 
-8.52020e+00 -8.56338e+00        00000 
-7.54593e+00 -8.26198e+00        00000 
-6.59661e+00 -7.99373e+00        00000 
-5.67005e+00 -7.75909e+00        00000 
-4.76359e+00 -7.55826e+00        00000 
-3.87431e+00 -7.39126e+00        00000 
-2.99911e+00 -7.25799e+00        00000 
-2.13487e+00 -7.15825e+00        00000 
-1.27844e+00 -7.09189e+00        00000 
-4.26689e-01 -7.05873e+00        00000 
 4.23508e-01 -7.05871e+00        00000 
 1.27527e+00 -7.09183e+00        00000 
 2.13172e+00 -7.15816e+00        00000 
 2.99599e+00 -7.25786e+00        00000 
 3.87122e+00 -7.39110e+00        00000 
 4.76056e+00 -7.55807e+00        00000 
 5.66708e+00 -7.75888e+00        00000 
 6.59371e+00 -7.99350e+00        00000 
 7.54312e+00 -8.26174e+00        00000 
 8.51749e+00 -8.56315e+00        00000 
 9.51837e+00 -8.89712e+00        00000 
 1.05465e+01 -9.26297e+00        00000 
 1.16018e+01 -9.66015e+00        00000 
 1.26833e+01 -1.00885e+01        00000 
 1.37898e+01 -1.05484e+01        00000 
-1.58832e+01 -1.29279e+01        00000 
-1.46350e+01 -1.24772e+01        00000 
-1.34139e+01 -1.20586e+01        00000 
-1.22195e+01 -1.16715e+01        00000 
-1.10518e+01 -1.13157e+01        00000 
-9.91014e+00 -1.09912e+01        00000 
-8.79336e+00 -1.06983e+01        00000 
-7.69999e+00 -1.04374e+01        00000 
-6.62807e+00 -1.02086e+01        00000 
-5.57526e+00 -1.00123e+01        00000 
-4.53896e+00 -9.84860e+00        00000 
-3.51635e+00 -9.71766e+00        00000 
-2.50448e+00 -9.61946e+00        00000 
-1.50033e+00 -9.55402e+00        00000 
-5.00825e-01 -9.52130e+00        00000 
 4.97137e-01 -9.52129e+00        00000 
 1.49666e+00 -9.55400e+00        00000 
 2.50083e+00 -9.61944e+00        00000 
 3.51273e+00 -9.71763e+00        00000 
 4.53539e+00 -9.84858e+00        00000 
 5.57176e+00 -1.00122e+01        00000 
 6.62464e+00 -1.02086e+01        00000 
 7.69666e+00 -1.04374e+01        00000 
 8.79014e+00 -1.06984e+01        00000 
 9.90704e+00 -1.09913e+01        00000 
 1.10489e+01 -1.13158e+01        00000 
 1.22168e+01 -1.16717e+01        00000 
 1.34113e+01 -1.20589e+01        00000 
 1.46327e+01 -1.24775e+01        00000 
 1.58811e+01 -1.29283e+01        00000 
-1.79327e+01 -1.55953e+01        00000 
-1.65420e+01 -1.51547e+01        00000 
-1.51804e+01 -1.47464e+01        00000 
-1.38469e+01 -1.43696e+01        00000 
-1.25403e+01 -1.40241e+01        00000 
-1.12597e+01 -1.37095e+01        00000 
-1.00034e+01 -1.34259e+01        00000 
-8.76974e+00 -1.31734e+01        00000 
-7.55677e+00 -1.29521e+01        00000 
-6.36220e+00 -1.27621e+01        00000 
-5.18356e+00 -1.26036e+01        00000 
-4.01816e+00 -1.24767e+01        00000 
-2.86318e+00 -1.23814e+01        00000 
-1.71572e+00 -1.23179e+01        00000 
-5.72791e-01 -1.22862e+01        00000 
 5.68631e-01 -1.22862e+01        00000 
 1.71158e+00 -1.23180e+01        00000 
 2.85907e+00 -1.23815e+01        00000 
 4.01408e+00 -1.24768e+01        00000 
 5.17955e+00 -1.26037e+01        00000 
 6.35827e+00 -1.27622e+01        00000 
 7.55292e+00 -1.29523e+01        00000 
 8.76600e+00 -1.31737e+01        00000 
 9.99977e+00 -1.34263e+01        00000 
 1.12562e+01 -1.37099e+01        00000 
 1.25371e+01 -1.40246e+01        00000 
 1.38438e+01 -1.43702e+01        00000 
 1.51775e+01 -1.47471e+01        00000 
 1.65394e+01 -1.51555e+01        00000 
 1.79304e+01 -1.55962e+01        00000 
-1.99354e+01 -1.85495e+01        00000 
-1.84032e+01 -1.81199e+01        00000 
-1.69020e+01 -1.77224e+01        00000 
-1.54303e+01 -1.73563e+01        00000 
-1.39865e+01 -1.70212e+01        00000 
-1.25690e+01 -1.67167e+01        00000 
-1.11760e+01 -1.64426e+01        00000 
-9.80546e+00 -1.61989e+01        00000 
-8.45533e+00 -1.59855e+01        00000 
-7.12326e+00 -1.58025e+01        00000 
-5.80678e+00 -1.56499e+01        00000 
-4.50324e+00 -1.55277e+01        00000 
-3.20990e+00 -1.54360e+01        00000 
-1.92391e+00 -1.53749e+01        00000 
-6.42339e-01 -1.53443e+01        00000 
 6.37753e-01 -1.53444e+01        00000 
 1.91934e+00 -1.53750e+01        00000 
 3.20537e+00 -1.54362e+01        00000 
 4.49876e+00 -1.55279e+01        00000 
 5.80236e+00 -1.56502e+01        00000 
 7.11893e+00 -1.58029e+01        00000 
 8.45110e+00 -1.59860e+01        00000 
 9.80137e+00 -1.61995e+01        00000 
 1.11720e+01 -1.64433e+01        00000 
 1.25652e+01 -1.67175e+01        00000 
 1.39830e+01 -1.70221e+01        00000 
 1.54269e+01 -1.73574e+01        00000 
 1.68989e+01 -1.77236e+01        00000 
 1.84003e+01 -1.81213e+01        00000 
 1.99328e+01 -1.85510e+01        00000 
-2.18872e+01 -2.17871e+01        00000 
-2.02155e+01 -2.13692e+01        00000 
-1.85767e+01 -2.09830e+01        00000 
-1.69688e+01 -2.06280e+01        00000 
-1.53899e+01 -2.03035e+01        00000 
-1.38381e+01 -2.00092e+01        00000 
-1.23112e+01 -1.97448e+01        00000 
-1.08072e+01 -1.95100e+01        00000 
-9.32367e+00 -1.93046e+01        00000 
-7.85823e+00 -1.91287e+01        00000 
-6.40832e+00 -1.89821e+01        00000 
-4.97127e+00 -1.88649e+01        00000 
-3.54434e+00 -1.87770e+01        00000 
-2.12468e+00 -1.87184e+01        00000 
-7.09394e-01 -1.86891e+01        00000 
 7.04429e-01 -1.86892e+01        00000 
 2.11973e+00 -1.87186e+01        00000 
 3.53943e+00 -1.87773e+01        00000 
 4.96642e+00 -1.88653e+01        00000 
 6.40355e+00 -1.89827e+01        00000 
 7.85355e+00 -1.91294e+01        00000 
 9.31911e+00 -1.93054e+01        00000 
 1.08028e+01 -1.95109e+01        00000 
 1.23070e+01 -1.97459e+01        00000 
 1.38340e+01 -2.00105e+01        00000 
 1.53860e+01 -2.03049e+01        00000 
 1.69651e+01 -2.06296e+01        00000 
 1.85733e+01 -2.09848e+01        00000 
 2.02125e+01 -2.13712e+01        00000 
 2.18845e+01 -2.17893e+01        00000 
-2.37850e+01 -2.53033e+01        00000 
-2.19763e+01 -2.48978e+01        00000 
-2.02022e+01 -2.45235e+01        00000 
-1.84606e+01 -2.41799e+01        00000 
-1.67493e+01 -2.38664e+01        00000 
-1.50662e+01 -2.35825e+01        00000 
-1.34088e+01 -2.33277e+01        00000 
-1.17748e+01 -2.31018e+01        00000 
-1.01618e+01 -2.29046e+01        00000 
-8.56710e+00 -2.27358e+01        00000 
-6.98817e+00 -2.25952e+01        00000 
-5.42222e+00 -2.24829e+01        00000 
-3.86645e+00 -2.23988e+01        00000 
-2.31800e+00 -2.23427e+01        00000 
-7.73943e-01 -2.23147e+01        00000 
 7.68650e-01 -2.23148e+01        00000 
 2.31273e+00 -2.23430e+01        00000 
 3.86122e+00 -2.23992e+01        00000 
 5.41705e+00 -2.24835e+01        00000 
 6.98308e+00 -2.25960e+01        00000 
 8.56212e+00 -2.27367e+01        00000 
 1.01569e+01 -2.29057e+01        00000 
 1.17701e+01 -2.31031e+01        00000 
 1.34043e+01 -2.33292e+01        00000 
 1.50618e+01 -2.35842e+01        00000 
 1.67453e+01 -2.38683e+01        00000 
 1.84568e+01 -2.41820e+01        00000 
 2.01986e+01 -2.45259e+01        00000 
 2.19730e+01 -2.49004e+01        00000 
 2.37821e+01 -2.53062e+01        00000 
-2.56254e+01 -2.90926e+01        00000 
-2.36826e+01 -2.87001e+01        00000 
-2.17762e+01 -2.83383e+01        00000 
-1.99040e+01 -2.80066e+01        00000 
-1.80635e+01 -2.77044e+01        00000 
-1.62523e+01 -2.74310e+01        00000 
-1.44679e+01 -2.71861e+01        00000 
-1.27078e+01 -2.69693e+01        00000 
-1.09693e+01 -2.67801e+01        00000 
-9.24973e+00 -2.66184e+01        00000 
-7.54625e+00 -2.64839e+01        00000 
-5.85606e+00 -2.63765e+01        00000 
-4.17624e+00 -2.62961e+01        00000 
-2.50388e+00 -2.62425e+01        00000 
-8.35986e-01 -2.62158e+01        00000 
 8.30418e-01 -2.62159e+01        00000 
 2.49833e+00 -2.62429e+01        00000 
 4.17074e+00 -2.62966e+01        00000 
 5.85062e+00 -2.63773e+01        00000 
 7.54091e+00 -2.64849e+01        00000 
 9.24451e+00 -2.66196e+01        00000 
 1.09642e+01 -2.67816e+01        00000 
 1.27029e+01 -2.69709e+01        00000 
 1.44632e+01 -2.71881e+01        00000 
 1.62478e+01 -2.74332e+01        00000 
 1.80592e+01 -2.77068e+01        00000 
 1.99000e+01 -2.80093e+01        00000 
 2.17725e+01 -2.83413e+01        00000 
 2.36792e+01 -2.87033e+01        00000 
 2.56224e+01 -2.90961e+01        00000 
-2.74055e+01 -3.31489e+01        00000 
-2.53317e+01 -3.27701e+01        00000 
-2.32963e+01 -3.24214e+01        00000 
-2.12968e+01 -3.21022e+01        00000 
-1.93306e+01 -3.18116e+01        00000 
-1.73951e+01 -3.15492e+01        00000 
-1.54877e+01 -3.13144e+01        00000 
-1.36055e+01 -3.11067e+01        00000 
-1.17458e+01 -3.09257e+01        00000 
-9.90576e+00 -3.07711e+01        00000 
-8.08235e+00 -3.06426e+01        00000 
-6.27264e+00 -3.05401e+01        00000 
-4.47363e+00 -3.04633e+01        00000 
-2.68227e+00 -3.04123e+01        00000 
-8.95512e-01 -3.03868e+01        00000 
 8.89722e-01 -3.03870e+01        00000 
 2.67651e+00 -3.04127e+01        00000 
 4.46791e+00 -3.04640e+01        00000 
 6.26700e+00 -3.05410e+01        00000 
 8.07681e+00 -3.06438e+01        00000 
 9.90034e+00 -3.07726e+01        00000 
 1.17406e+01 -3.09275e+01        00000 
 1.36004e+01 -3.11088e+01        00000 
 1.54828e+01 -3.13168e+01        00000 
 1.73904e+01 -3.15519e+01        00000 
 1.93262e+01 -3.18146e+01        00000 
 2.12926e+01 -3.21054e+01        00000 
 2.32925e+01 -3.24250e+01        00000 
 2.53282e+01 -3.27740e+01        00000 
 2.74024e+01 -3.31532e+01        00000 
-2.91219e+01 -3.74660e+01        00000 
-2.69206e+01 -3.71016e+01        00000 
-2.47596e+01 -3.67666e+01        00000 
-2.26365e+01 -3.64604e+01        00000 
-2.05486e+01 -3.61821e+01        00000 
-1.84929e+01 -3.59310e+01        00000 
-1.64666e+01 -3.57065e+01        00000 
-1.44668e+01 -3.55081e+01        00000 
-1.24905e+01 -3.53354e+01        00000 
-1.05346e+01 -3.51879e+01        00000 
-8.59608e+00 -3.50655e+01        00000 
-6.67173e+00 -3.49678e+01        00000 
-4.75846e+00 -3.48947e+01        00000 
-2.85310e+00 -3.48461e+01        00000 
-9.52496e-01 -3.48218e+01        00000 
 9.46537e-01 -3.48220e+01        00000 
 2.84717e+00 -3.48465e+01        00000 
 4.75258e+00 -3.48955e+01        00000 
 6.66593e+00 -3.49689e+01        00000 
 8.59038e+00 -3.50669e+01        00000 
 1.05291e+01 -3.51897e+01        00000 
 1.24851e+01 -3.53375e+01        00000 
 1.44616e+01 -3.55106e+01        00000 
 1.64616e+01 -3.57093e+01        00000 
 1.84881e+01 -3.59342e+01        00000 
 2.05440e+01 -3.61856e+01        00000 
 2.26323e+01 -3.64643e+01        00000 
 2.47557e+01 -3.67709e+01        00000 
 2.69170e+01 -3.71062e+01        00000 
 2.91188e+01 -3.74710e+01        00000 
-3.07713e+01 -4.20370e+01        00000 
-2.84458e+01 -4.16878e+01        00000 
-2.61632e+01 -4.13675e+01        00000 
-2.39206e+01 -4.10749e+01        00000 
-2.17151e+01 -4.08093e+01        00000 
-1.95436e+01 -4.05700e+01        00000 
-1.74032e+01 -4.03561e+01        00000 
-1.52905e+01 -4.01673e+01        00000 
-1.32024e+01 -4.00029e+01        00000 
-1.11357e+01 -3.98626e+01        00000 
-9.08696e+00 -3.97461e+01        00000 
-7.05302e+00 -3.96531e+01        00000 
-5.03055e+00 -3.95836e+01        00000 
-3.01628e+00 -3.95374e+01        00000 
-1.00691e+00 -3.95144e+01        00000 
 1.00083e+00 -3.95146e+01        00000 
 3.01023e+00 -3.95380e+01        00000 
 5.02456e+00 -3.95846e+01        00000 
 7.04711e+00 -3.96545e+01        00000 
 9.08116e+00 -3.97478e+01        00000 
 1.11300e+01 -3.98646e+01        00000 
 1.31969e+01 -4.00053e+01        00000 
 1.52852e+01 -4.01701e+01        00000 
 1.73981e+01 -4.03594e+01        00000 
 1.95388e+01 -4.05736e+01        00000 
 2.17105e+01 -4.08134e+01        00000 
 2.39163e+01 -4.10794e+01        00000 
 2.61593e+01 -4.13724e+01        00000 
 2.84423e+01 -4.16932e+01        00000 
 3.07681e+01 -4.20428e+01        00000 
-3.23495e+01 -4.68551e+01        00000 
-2.99038e+01 -4.65221e+01        00000 
-2.75035e+01 -4.62171e+01        00000 
-2.51459e+01 -4.59390e+01        00000 
-2.28275e+01 -4.56867e+01        00000 
-2.05452e+01 -4.54595e+01        00000 
-1.82956e+01 -4.52566e+01        00000 
-1.60752e+01 -4.50774e+01        00000 
-1.38806e+01 -4.49213e+01        00000 
-1.17082e+01 -4.47881e+01        00000 
-9.55457e+00 -4.46775e+01        00000 
-7.41624e+00 -4.45892e+01        00000 
-5.28976e+00 -4.45231e+01        00000 
-3.17172e+00 -4.44792e+01        00000 
-1.05873e+00 -4.44573e+01        00000 
 1.05259e+00 -4.44576e+01        00000 
 3.16562e+00 -4.44798e+01        00000 