<?xml version="1.0" encoding="utf-8"?>
<VTKFile byte_order="LittleEndian" type="UnstructuredGrid" version="0.1">
   <UnstructuredGrid>
      <Piece NumberOfCells="3364" NumberOfPoints="1741">
         <Points>
            <DataArray Name="Points" NumberOfComponents="3" format="ascii" type="Float32">
0.0000 1.0000 0.0000
0.0000 1.0345 0.0000
0.0000 1.0690 0.0000
0.0000 1.1034 0.0000
0.0000 1.1379 0.0000
0.0000 1.1724 0.0000
0.0000 1.2069 0.0000
0.0000 1.2414 0.0000
0.0000 1.2759 0.0000
0.0000 1.3103 0.0000
0.0000 1.3448 0.0000
0.0000 1.3793 0.0000
0.0000 1.4138 0.0000
0.0000 1.4483 0.0000
0.0000 1.4828 0.0000
0.0000 1.5172 0.0000
0.0000 1.5517 0.0000
0.0000 1.5862 0.0000
0.0000 1.6207 0.0000
0.0000 1.6552 0.0000
0.0000 1.6897 0.0000
0.0000 1.7241 0.0000
0.0000 1.7586 0.0000
0.0000 1.7931 0.0000
0.0000 1.8276 0.0000
0.0000 1.8621 0.0000
0.0000 1.8966 0.0000
0.0000 1.9310 0.0000
0.0000 1.9655 0.0000
0.0000 2.0000 0.0000
0.0690 1.0000 0.0000
0.0690 1.0345 0.0000
0.0690 1.0690 0.0000
0.0690 1.1034 0.0000
0.0690 1.1379 0.0000
0.0690 1.1724 0.0000
0.0690 1.2069 0.0000
0.0690 1.2414 0.0000
0.0690 1.2759 0.0000
0.0690 1.3103 0.0000
0.0690 1.3448 0.0000
0.0690 1.3793 0.0000
0.0690 1.4138 0.0000
0.0690 1.4483 0.0000
0.0690 1.4828 0.0000
0.0690 1.5172 0.0000
0.0690 1.5517 0.0000
0.0690 1.5862 0.0000
0.0690 1.6207 0.0000
0.0690 1.6552 0.0000
0.0690 1.6897 0.0000
0.0690 1.7241 0.0000
0.0690 1.7586 0.0000
0.0690 1.7931 0.0000
0.0690 1.8276 0.0000
0.0690 1.8621 0.0000
0.0690 1.8966 0.0000
0.0690 1.9310 0.0000
0.0690 1.9655 0.0000
0.0690 2.0000 0.0000
0.1379 1.0000 0.0000
0.1379 1.0345 0.0000
0.1379 1.0690 0.0000
0.1379 1.1034 0.0000
0.1379 1.1379 0.0000
0.1379 1.1724 0.0000
0.1379 1.2069 0.0000
0.1379 1.2414 0.0000
0.1379 1.2759 0.0000
0.1379 1.3103 0.0000
0.1379 1.3448 0.0000
0.1379 1.3793 0.0000
0.1379 1.4138 0.0000
0.1379 1.4483 0.0000
0.1379 1.4828 0.0000
0.1379 1.5172 0.0000
0.1379 1.5517 0.0000
0.1379 1.5862 0.0000
0.1379 1.6207 0.0000
0.1379 1.6552 0.0000
0.1379 1.6897 0.0000
0.1379 1.7241 0.0000
0.1379 1.7586 0.0000
0.1379 1.7931 0.0000
0.1379 1.8276 0.0000
0.1379 1.8621 0.0000
0.1379 1.8966 0.0000
0.1379 1.9310 0.0000
0.1379 1.9655 0.0000
0.1379 2.0000 0.0000
0.2069 1.0000 0.0000
0.2069 1.0345 0.0000
0.2069 1.0690 0.0000
0.2069 1.1034 0.0000
0.2069 1.1379 0.0000
0.2069 1.1724 0.0000
0.2069 1.2069 0.0000
0.2069 1.2414 0.0000
0.2069 1.2759 0.0000
0.2069 1.3103 0.0000
0.2069 1.3448 0.0000
0.2069 1.3793 0.0000
0.2069 1.4138 0.0000
0.2069 1.4483 0.0000
0.2069 1.4828 0.0000
0.2069 1.5172 0.0000
0.2069 1.5517 0.0000
0.2069 1.5862 0.0000
0.2069 1.6207 0.0000
0.2069 1.6552 0.0000
0.2069 1.6897 0.0000
0.2069 1.7241 0.0000
0.2069 1.7586 0.0000
0.2069 1.7931 0.0000
0.2069 1.8276 0.0000
0.2069 1.8621 0.0000
0.2069 1.8966 0.0000
0.2069 1.9310 0.0000
0.2069 1.9655 0.0000
0.2069 2.0000 0.0000
0.2759 1.0000 0.0000
0.2759 1.0345 0.0000
0.2759 1.0690 0.0000
0.2759 1.1034 0.0000
0.2759 1.1379 0.0000
0.2759 1.1724 0.0000
0.2759 1.2069 0.0000
0.2759 1.2414 0.0000
0.2759 1.2759 0.0000
0.2759 1.3103 0.0000
0.2759 1.3448 0.0000
0.2759 1.3793 0.0000
0.2759 1.4138 0.0000
0.2759 1.4483 0.0000
0.2759 1.4828 0.0000
0.2759 1.5172 0.0000
0.2759 1.5517 0.0000
0.2759 1.5862 0.0000
0.2759 1.6207 0.0000
0.2759 1.6552 0.0000
0.2759 1.6897 0.0000
0.2759 1.7241 0.0000
0.2759 1.7586 0.0000
0.2759 1.7931 0.0000
0.2759 1.8276 0.0000
0.2759 1.8621 0.0000
0.2759 1.8966 0.0000
0.2759 1.9310 0.0000
0.2759 1.9655 0.0000
0.2759 2.0000 0.0000
0.3448 1.0000 0.0000
0.3448 1.0345 0.0000
0.3448 1.0690 0.0000
0.3448 1.1034 0.0000
0.3448 1.1379 0.0000
0.3448 1.1724 0.0000
0.3448 1.2069 0.0000
0.3448 1.2414 0.0000
0.3448 1.2759 0.0000
0.3448 1.3103 0.0000
0.3448 1.3448 0.0000
0.3448 1.3793 0.0000
0.3448 1.4138 0.0000
0.3448 1.4483 0.0000
0.3448 1.4828 0.0000
0.3448 1.5172 0.0000
0.3448 1.5517 0.0000
0.3448 1.5862 0.0000
0.3448 1.6207 0.0000
0.3448 1.6552 0.0000
0.3448 1.6897 0.0000
0.3448 1.7241 0.0000
0.3448 1.7586 0.0000
0.3448 1.7931 0.0000
0.3448 1.8276 0.0000
0.3448 1.8621 0.0000
0.3448 1.8966 0.0000
0.3448 1.9310 0.0000
0.3448 1.9655 0.0000
0.3448 2.0000 0.0000
0.4138 1.0000 0.0000
0.4138 1.0345 0.0000
0.4138 1.0690 0.0000
0.4138 1.1034 0.0000
0.4138 1.1379 0.0000
0.4138 1.1724 0.0000
0.4138 1.2069 0.0000
0.4138 1.2414 0.0000
0.4138 1.2759 0.0000
0.4138 1.3103 0.0000
0.4138 1.3448 0.0000
0.4138 1.3793 0.0000
0.4138 1.4138 0.0000
0.4138 1.4483 0.0000
0.4138 1.4828 0.0000
0.4138 1.5172 0.0000
0.4138 1.5517 0.0000
0.4138 1.5862 0.0000
0.4138 1.6207 0.0000
0.4138 1.6552 0.0000
0.4138 1.6897 0.0000
0.4138 1.7241 0.0000
0.4138 1.7586 0.0000
0.4138 1.7931 0.0000
0.4138 1.8276 0.0000
0.4138 1.8621 0.0000
0.4138 1.8966 0.0000
0.4138 1.9310 0.0000
0.4138 1.9655 0.0000
0.4138 2.0000 0.0000
0.4828 1.0000 0.0000
0.4828 1.0345 0.0000
0.4828 1.0690 0.0000
0.4828 1.1034 0.0000
0.4828 1.1379 0.0000
0.4828 1.1724 0.0000
0.4828 1.2069 0.0000
0.4828 1.2414 0.0000
0.4828 1.2759 0.0000
0.4828 1.3103 0.0000
0.4828 1.3448 0.0000
0.4828 1.3793 0.0000
0.4828 1.4138 0.0000
0.4828 1.4483 0.0000
0.4828 1.4828 0.0000
0.4828 1.5172 0.0000
0.4828 1.5517 0.0000
0.4828 1.5862 0.0000
0.4828 1.6207 0.0000
0.4828 1.6552 0.0000
0.4828 1.6897 0.0000
0.4828 1.7241 0.0000
0.4828 1.7586 0.0000
0.4828 1.7931 0.0000
0.4828 1.8276 0.0000
0.4828 1.8621 0.0000
0.4828 1.8966 0.0000
0.4828 1.9310 0.0000
0.4828 1.9655 0.0000
0.4828 2.0000 0.0000
0.5517 1.0000 0.0000
0.5517 1.0345 0.0000
0.5517 1.0690 0.0000
0.5517 1.1034 0.0000
0.5517 1.1379 0.0000
0.5517 1.1724 0.0000
0.5517 1.2069 0.0000
0.5517 1.2414 0.0000
0.5517 1.2759 0.0000
0.5517 1.3103 0.0000
0.5517 1.3448 0.0000
0.5517 1.3793 0.0000
0.5517 1.4138 0.0000
0.5517 1.4483 0.0000
0.5517 1.4828 0.0000
0.5517 1.5172 0.0000
0.5517 1.5517 0.0000
0.5517 1.5862 0.0000
0.5517 1.6207 0.0000
0.5517 1.6552 0.0000
0.5517 1.6897 0.0000
0.5517 1.7241 0.0000
0.5517 1.7586 0.0000
0.5517 1.7931 0.0000
0.5517 1.8276 0.0000
0.5517 1.8621 0.0000
0.5517 1.8966 0.0000
0.5517 1.9310 0.0000
0.5517 1.9655 0.0000
0.5517 2.0000 0.0000
0.6207 1.0000 0.0000
0.6207 1.0345 0.0000
0.6207 1.0690 0.0000
0.6207 1.1034 0.0000
0.6207 1.1379 0.0000
0.6207 1.1724 0.0000
0.6207 1.2069 0.0000
0.6207 1.2414 0.0000
0.6207 1.2759 0.0000
0.6207 1.3103 0.0000
0.6207 1.3448 0.0000
0.6207 1.3793 0.0000
0.6207 1.4138 0.0000
0.6207 1.4483 0.0000
0.6207 1.4828 0.0000
0.6207 1.5172 0.0000
0.6207 1.5517 0.0000
0.6207 1.5862 0.0000
0.6207 1.6207 0.0000
0.6207 1.6552 0.0000
0.6207 1.6897 0.0000
0.6207 1.7241 0.0000
0.6207 1.7586 0.0000
0.6207 1.7931 0.0000
0.6207 1.8276 0.0000
0.6207 1.8621 0.0000
0.6207 1.8966 0.0000
0.6207 1.9310 0.0000
0.6207 1.9655 0.0000
0.6207 2.0000 0.0000
0.6897 1.0000 0.0000
0.6897 1.0345 0.0000
0.6897 1.0690 0.0000
0.6897 1.1034 0.0000
0.6897 1.1379 0.0000
0.6897 1.1724 0.0000
0.6897 1.2069 0.0000
0.6897 1.2414 0.0000
0.6897 1.2759 0.0000
0.6897 1.3103 0.0000
0.6897 1.3448 0.0000
0.6897 1.3793 0.0000
0.6897 1.4138 0.0000
0.6897 1.4483 0.0000
0.6897 1.4828 0.0000
0.6897 1.5172 0.0000
0.6897 1.5517 0.0000
0.6897 1.5862 0.0000
0.6897 1.6207 0.0000
0.6897 1.6552 0.0000
0.6897 1.6897 0.0000
0.6897 1.7241 0.0000
0.6897 1.7586 0.0000
0.6897 1.7931 0.0000
0.6897 1.8276 0.0000
0.6897 1.8621 0.0000
0.6897 1.8966 0.0000
0.6897 1.9310 0.0000
0.6897 1.9655 0.0000
0.6897 2.0000 0.0000
0.7586 1.0000 0.0000
0.7586 1.0345 0.0000
0.7586 1.0690 0.0000
0.7586 1.1034 0.0000
0.7586 1.1379 0.0000
0.7586 1.1724 0.0000
0.7586 1.2069 0.0000
0.7586 1.2414 0.0000
0.7586 1.2759 0.0000
0.7586 1.3103 0.0000
0.7586 1.3448 0.0000
0.7586 1.3793 0.0000
0.7586 1.4138 0.0000
0.7586 1.4483 0.0000
0.7586 1.4828 0.0000
0.7586 1.5172 0.0000
0.7586 1.5517 0.0000
0.7586 1.5862 0.0000
0.7586 1.6207 0.0000
0.7586 1.6552 0.0000
0.7586 1.6897 0.0000
0.7586 1.7241 0.0000
0.7586 1.7586 0.0000
0.7586 1.7931 0.0000
0.7586 1.8276 0.0000
0.7586 1.8621 0.0000
0.7586 1.8966 0.0000
0.7586 1.9310 0.0000
0.7586 1.9655 0.0000
0.7586 2.0000 0.0000
0.8276 1.0000 0.0000
0.8276 1.0345 0.0000
0.8276 1.0690 0.0000
0.8276 1.1034 0.0000
0.8276 1.1379 0.0000
0.8276 1.1724 0.0000
0.8276 1.2069 0.0000
0.8276 1.2414 0.0000
0.8276 1.2759 0.0000
0.8276 1.3103 0.0000
0.8276 1.3448 0.0000
0.8276 1.3793 0.0000
0.8276 1.4138 0.0000
0.8276 1.4483 0.0000
0.8276 1.4828 0.0000
0.8276 1.5172 0.0000
0.8276 1.5517 0.0000
0.8276 1.5862 0.0000
0.8276 1.6207 0.0000
0.8276 1.6552 0.0000
0.8276 1.6897 0.0000
0.8276 1.7241 0.0000
0.8276 1.7586 0.0000
0.8276 1.7931 0.0000
0.8276 1.8276 0.0000
0.8276 1.8621 0.0000
0.8276 1.8966 0.0000
0.8276 1.9310 0.0000
0.8276 1.9655 0.0000
0.8276 2.0000 0.0000
0.8966 1.0000 0.0000
0.8966 1.0345 0.0000
0.8966 1.0690 0.0000
0.8966 1.1034 0.0000
0.8966 1.1379 0.0000
0.8966 1.1724 0.0000
0.8966 1.2069 0.0000
0.8966 1.2414 0.0000
0.8966 1.2759 0.0000
0.8966 1.3103 0.0000
0.8966 1.3448 0.0000
0.8966 1.3793 0.0000
0.8966 1.4138 0.0000
0.8966 1.4483 0.0000
0.8966 1.4828 0.0000
0.8966 1.5172 0.0000
0.8966 1.5517 0.0000
0.8966 1.5862 0.0000
0.8966 1.6207 0.0000
0.8966 1.6552 0.0000
0.8966 1.6897 0.0000
0.8966 1.7241 0.0000
0.8966 1.7586 0.0000
0.8966 1.7931 0.0000
0.8966 1.8276 0.0000
0.8966 1.8621 0.0000
0.8966 1.8966 0.0000
0.8966 1.9310 0.0000
0.8966 1.9655 0.0000
0.8966 2.0000 0.0000
0.9655 1.0000 0.0000
0.9655 1.0345 0.0000
0.9655 1.0690 0.0000
0.9655 1.1034 0.0000
0.9655 1.1379 0.0000
0.9655 1.1724 0.0000
0.9655 1.2069 0.0000
0.9655 1.2414 0.0000
0.9655 1.2759 0.0000
0.9655 1.3103 0.0000
0.9655 1.3448 0.0000
0.9655 1.3793 0.0000
0.9655 1.4138 0.0000
0.9655 1.4483 0.0000
0.9655 1.4828 0.0000
0.9655 1.5172 0.0000
0.9655 1.5517 0.0000
0.9655 1.5862 0.0000
0.9655 1.6207 0.0000
0.9655 1.6552 0.0000
0.9655 1.6897 0.0000
0.9655 1.7241 0.0000
0.9655 1.7586 0.0000
0.9655 1.7931 0.0000
0.9655 1.8276 0.0000
0.9655 1.8621 0.0000
0.9655 1.8966 0.0000
0.9655 1.9310 0.0000
0.9655 1.9655 0.0000
0.9655 2.0000 0.0000
1.0345 1.0000 0.0000
1.0345 1.0345 0.0000
1.0345 1.0690 0.0000
1.0345 1.1034 0.0000
1.0345 1.1379 0.0000
1.0345 1.1724 0.0000
1.0345 1.2069 0.0000
1.0345 1.2414 0.0000
1.0345 1.2759 0.0000
1.0345 1.3103 0.0000
1.0345 1.3448 0.0000
[...]
         <PointData>
            <DataArray Name="fValues" NumberOfComponents="3" format="ascii" type="Float64">
-3.87750e-16 -7.86458e-16        00000 
 5.65190e-16  1.88397e-16        00000 
-5.35615e-16 -4.65752e-17        00000 
 2.41388e-16 -4.97406e-16        00000 
 3.72602e-16  3.49314e-16        00000 
-6.62560e-16 -4.12496e-16        00000 
       00000  2.09588e-16        00000 
 2.51629e-16 -6.72961e-17        00000 
-1.51369e-16  5.82190e-17        00000 
-1.94909e-16 -6.79063e-17        00000 
 8.15066e-17  2.91095e-17        00000 
-1.17585e-16 -2.23101e-17        00000 
 6.40409e-17        00000        00000 
-3.98394e-17 -3.62047e-17        00000 
-1.45548e-17  3.49314e-17        00000 
-4.57175e-18  5.33980e-17        00000 
 5.82190e-18  3.49314e-17        00000 
 1.39827e-17 -2.85619e-18        00000 
-5.82190e-18 -1.16438e-17        00000 
-4.09628e-17  2.19444e-17        00000 
 2.09588e-16 -2.32876e-17        00000 
-1.39873e-16  1.97431e-16        00000 
 2.32876e-16 -1.63013e-16        00000 
-4.38888e-17  2.63333e-17        00000 
 4.65752e-17 -1.39726e-16        00000 
 2.26121e-16  4.66971e-17        00000 
-4.89040e-16  6.98628e-17        00000 
 6.00932e-17 -2.15456e-16        00000 
 2.93592e-16  5.51953e-16        00000 
-3.19851e-16 -1.24703e-15        00000 
-5.04099e+00 -4.20209e+00        00000 
-3.73067e+00 -3.15124e+00        00000 
-3.10719e+00 -2.44990e+00        00000 
-2.67898e+00 -1.95893e+00        00000 
-2.33998e+00 -1.59797e+00        00000 
-2.04982e+00 -1.32347e+00        00000 
-1.78960e+00 -1.11002e+00        00000 
-1.54917e+00 -9.41817e-01        00000 
-1.32251e+00 -8.08588e-01        00000 
-1.10579e+00 -7.03370e-01        00000 
-8.96337e-01 -6.21329e-01        00000 
-6.92217e-01 -5.59065e-01        00000 
-4.91917e-01 -5.14199e-01        00000 
-2.94189e-01 -4.85117e-01        00000 
-9.79486e-02 -4.70813e-01        00000 
 9.78055e-02 -4.70808e-01        00000 
 2.94047e-01 -4.85101e-01        00000 
 4.91775e-01 -5.14174e-01        00000 
 6.92076e-01 -5.59030e-01        00000 
 8.96197e-01 -6.21283e-01        00000 
 1.10565e+00 -7.03314e-01        00000 
 1.32238e+00 -8.08521e-01        00000 
 1.54903e+00 -9.41739e-01        00000 
 1.78947e+00 -1.10993e+00        00000 
 2.04970e+00 -1.32337e+00        00000 
 2.33986e+00 -1.59786e+00        00000 
 2.67885e+00 -1.95880e+00        00000 
 3.10706e+00 -2.44976e+00        00000 
 3.73053e+00 -3.15108e+00        00000 
 5.04081e+00 -4.20190e+00        00000 
-8.94102e+00 -6.78262e+00        00000 
-7.69124e+00 -5.96519e+00        00000 
-6.59792e+00 -5.15646e+00        00000 
-5.72903e+00 -4.46518e+00        00000 
-5.00399e+00 -3.89440e+00        00000 
-4.37326e+00 -3.42719e+00        00000 
-3.80683e+00 -3.04563e+00        00000 
-3.28581e+00 -2.73462e+00        00000 
-2.79777e+00 -2.48230e+00        00000 
-2.33408e+00 -2.27953e+00        00000 
-1.88852e+00 -2.11940e+00        00000 
-1.45637e+00 -1.99674e+00        00000 
-1.03386e+00 -1.90776e+00        00000 
-6.17869e-01 -1.84983e+00        00000 
-2.05645e-01 -1.82127e+00        00000 
 2.05346e-01 -1.82126e+00        00000 
 6.17570e-01 -1.84980e+00        00000 
 1.03356e+00 -1.90772e+00        00000 
 1.45607e+00 -1.99668e+00        00000 
 1.88823e+00 -2.11932e+00        00000 
 2.33379e+00 -2.27943e+00        00000 
 2.79748e+00 -2.48218e+00        00000 
 3.28554e+00 -2.73449e+00        00000 
 3.80656e+00 -3.04547e+00        00000 
 4.37299e+00 -3.42702e+00        00000 
 5.00373e+00 -3.89421e+00        00000 
 5.72877e+00 -4.46497e+00        00000 
 6.59765e+00 -5.15623e+00        00000 
 7.69097e+00 -5.96495e+00        00000 
 8.94073e+00 -6.78237e+00        00000 
-1.26271e+01 -9.47709e+00        00000 
-1.12599e+01 -8.67144e+00        00000 
-9.98605e+00 -7.91491e+00        00000 
-8.82095e+00 -7.21221e+00        00000 
-7.77307e+00 -6.58488e+00        00000 
-6.82359e+00 -6.03876e+00        00000 
-5.95214e+00 -5.57109e+00        00000 
-5.14160e+00 -5.17574e+00        00000 
-4.37841e+00 -4.84586e+00        00000 
-3.65196e+00 -4.57497e+00        00000 
-2.95378e+00 -4.35748e+00        00000 
-2.27701e+00 -4.18880e+00        00000 
-1.61590e+00 -4.06532e+00        00000 
-9.65487e-01 -3.98443e+00        00000 
-3.21302e-01 -3.94440e+00        00000 
 3.20838e-01 -3.94439e+00        00000 
 9.65024e-01 -3.98440e+00        00000 
 1.61544e+00 -4.06527e+00        00000 
 2.27655e+00 -4.18872e+00        00000 
 2.95333e+00 -4.35739e+00        00000 
 3.65151e+00 -4.57485e+00        00000 
 4.37797e+00 -4.84572e+00        00000 
 5.14116e+00 -5.17558e+00        00000 
 5.95172e+00 -5.57091e+00        00000 
 6.82318e+00 -6.03856e+00        00000 
 7.77267e+00 -6.58466e+00        00000 
 8.82055e+00 -7.21198e+00        00000 
 9.98566e+00 -7.91466e+00        00000 
 1.12595e+01 -8.67119e+00        00000 
 1.26268e+01 -9.47684e+00        00000 
-1.62176e+01 -1.24465e+01        00000 
-1.46690e+01 -1.16707e+01        00000 
-1.31932e+01 -1.09398e+01        00000 
-1.18005e+01 -1.02606e+01        00000 
-1.04931e+01 -9.63782e+00        00000 
-9.26879e+00 -9.07764e+00        00000 
-8.11902e+00 -8.58271e+00        00000 
-7.03304e+00 -8.15273e+00        00000 
-6.00019e+00 -7.78560e+00        00000 
-5.01070e+00 -7.47838e+00        00000 
-4.05591e+00 -7.22794e+00        00000 
-3.12815e+00 -7.03138e+00        00000 
-2.22058e+00 -6.88622e+00        00000 
-1.32700e+00 -6.79053e+00        00000 
-4.41642e-01 -6.74301e+00        00000 
 4.41009e-01 -6.74300e+00        00000 
 1.32637e+00 -6.79050e+00        00000 
 2.21996e+00 -6.88616e+00        00000 
 3.12753e+00 -7.03131e+00        00000 
 4.05529e+00 -7.22784e+00        00000 
 5.01009e+00 -7.47826e+00        00000 
 5.99959e+00 -7.78546e+00        00000 
 7.03246e+00 -8.15258e+00        00000 
 8.11845e+00 -8.58254e+00        00000 
 9.26823e+00 -9.07745e+00        00000 
 1.04925e+01 -9.63762e+00        00000 
 1.18000e+01 -1.02603e+01        00000 
 1.31927e+01 -1.09396e+01        00000 
 1.46685e+01 -1.16705e+01        00000 
 1.62171e+01 -1.24463e+01        00000 
-1.97096e+01 -1.58099e+01        00000 
-1.79549e+01 -1.50576e+01        00000 
-1.62686e+01 -1.43533e+01        00000 
-1.46543e+01 -1.36979e+01        00000 
-1.31134e+01 -1.30943e+01        00000 
-1.16439e+01 -1.25449e+01        00000 
-1.02414e+01 -1.20521e+01        00000 
-8.89965e+00 -1.16171e+01        00000 
-7.61086e+00 -1.12400e+01        00000 
-6.36713e+00 -1.09203e+01        00000 
-5.16066e+00 -1.06566e+01        00000 
-3.98396e+00 -1.04478e+01        00000 
-2.82993e+00 -1.02924e+01        00000 
-1.69183e+00 -1.01895e+01        00000 
-5.63168e-01 -1.01382e+01        00000 
 5.62367e-01 -1.01382e+01        00000 
 1.69103e+00 -1.01895e+01        00000 
 2.82914e+00 -1.02924e+01        00000 
 3.98317e+00 -1.04477e+01        00000 
 5.15988e+00 -1.06566e+01        00000 
 6.36636e+00 -1.09202e+01        00000 
 7.61010e+00 -1.12399e+01        00000 
 8.89891e+00 -1.16169e+01        00000 
 1.02407e+01 -1.20519e+01        00000 
 1.16432e+01 -1.25447e+01        00000 
 1.31127e+01 -1.30941e+01        00000 
 1.46537e+01 -1.36978e+01        00000 
 1.62680e+01 -1.43531e+01        00000 
 1.79543e+01 -1.50574e+01        00000 
 1.97091e+01 -1.58098e+01        00000 
-2.30988e+01 -1.96014e+01        00000 
-2.11278e+01 -1.88740e+01        00000 
-1.92259e+01 -1.81950e+01        00000 
-1.73929e+01 -1.75646e+01        00000 
-1.56278e+01 -1.69835e+01        00000 
-1.39281e+01 -1.64529e+01        00000 
-1.22902e+01 -1.59743e+01        00000 
-1.07090e+01 -1.55487e+01        00000 
-9.17855e+00 -1.51768e+01        00000 
-7.69231e+00 -1.48590e+01        00000 
-6.24341e+00 -1.45950e+01        00000 
-4.82488e+00 -1.43846e+01        00000 
-3.42984e+00 -1.42274e+01        00000 
-2.05146e+00 -1.41228e+01        00000 
-6.83039e-01 -1.40706e+01        00000 
 6.82075e-01 -1.40706e+01        00000 
 2.05050e+00 -1.41228e+01        00000 
 3.42888e+00 -1.42273e+01        00000 
 4.82394e+00 -1.43846e+01        00000 
 6.24247e+00 -1.45950e+01        00000 
 7.69139e+00 -1.48589e+01        00000 
 9.17765e+00 -1.51768e+01        00000 
 1.07081e+01 -1.55486e+01        00000 
 1.22893e+01 -1.59742e+01        00000 
 1.39273e+01 -1.64528e+01        00000 
 1.56270e+01 -1.69834e+01        00000 
 1.73922e+01 -1.75646e+01        00000 
 1.92252e+01 -1.81950e+01        00000 
 2.11272e+01 -1.88739e+01        00000 
 2.30983e+01 -1.96014e+01        00000 
-2.63765e+01 -2.38322e+01        00000 
-2.41879e+01 -2.31307e+01        00000 
-2.20703e+01 -2.24774e+01        00000 
-2.00213e+01 -2.18720e+01        00000 
-1.80382e+01 -2.13145e+01        00000 
-1.61176e+01 -2.08054e+01        00000 
-1.42556e+01 -2.03454e+01        00000 
-1.24474e+01 -1.99354e+01        00000 
-1.06876e+01 -1.95759e+01        00000 
-8.97048e+00 -1.92675e+01        00000 
-7.28970e+00 -1.90104e+01        00000 
-5.63881e+00 -1.88047e+01        00000 
-4.01123e+00 -1.86506e+01        00000 
-2.40030e+00 -1.85479e+01        00000 
-7.99362e-01 -1.84965e+01        00000 
 7.98244e-01 -1.84965e+01        00000 
 2.39918e+00 -1.85479e+01        00000 
 4.01012e+00 -1.86506e+01        00000 
 5.63772e+00 -1.88047e+01        00000 
 7.28862e+00 -1.90104e+01        00000 
 8.96942e+00 -1.92675e+01        00000 
 1.06866e+01 -1.95759e+01        00000 
 1.24463e+01 -1.99354e+01        00000 
 1.42546e+01 -2.03454e+01        00000 
 1.61166e+01 -2.08054e+01        00000 
 1.80373e+01 -2.13145e+01        00000 
 2.00205e+01 -2.18721e+01        00000 
 2.20695e+01 -2.24775e+01        00000 
 2.41872e+01 -2.31308e+01        00000 
 2.63759e+01 -2.38323e+01        00000 
-2.95353e+01 -2.84992e+01        00000 
-2.71324e+01 -2.78248e+01        00000 
-2.48024e+01 -2.71976e+01        00000 
-2.25418e+01 -2.66173e+01        00000 
-2.03465e+01 -2.60837e+01        00000 
-1.82126e+01 -2.55968e+01        00000 
-1.61354e+01 -2.51570e+01        00000 
-1.41103e+01 -2.47649e+01        00000 
-1.21319e+01 -2.44207e+01        00000 
-1.01946e+01 -2.41251e+01        00000 
-8.29256e+00 -2.38783e+01        00000 
-6.41954e+00 -2.36806e+01        00000 
-4.56925e+00 -2.35322e+01        00000 
-2.73527e+00 -2.34332e+01        00000 
-9.11086e-01 -2.33837e+01        00000 
 9.09825e-01 -2.33837e+01        00000 
 2.73401e+00 -2.34332e+01        00000 
 4.56801e+00 -2.35322e+01        00000 
 6.41831e+00 -2.36806e+01        00000 
 8.29135e+00 -2.38783e+01        00000 
 1.01934e+01 -2.41252e+01        00000 
 1.21307e+01 -2.44208e+01        00000 
 1.41092e+01 -2.47650e+01        00000 
 1.61343e+01 -2.51572e+01        00000 
 1.82115e+01 -2.55969e+01        00000 
 2.03455e+01 -2.60838e+01        00000 
 2.25409e+01 -2.66175e+01        00000 
 2.48016e+01 -2.71978e+01        00000 
 2.71316e+01 -2.78250e+01        00000 
 2.95346e+01 -2.84995e+01        00000 
-3.25695e+01 -3.35923e+01        00000 
-2.99580e+01 -3.29458e+01        00000 
-2.74214e+01 -3.23452e+01        00000 
-2.49550e+01 -3.17902e+01        00000 
-2.25541e+01 -3.12804e+01        00000 
-2.02142e+01 -3.08159e+01        00000 
-1.79302e+01 -3.03967e+01        00000 
-1.56973e+01 -3.00231e+01        00000 
-1.35099e+01 -2.96953e+01        00000 
-1.13625e+01 -2.94137e+01        00000 
-9.24942e+00 -2.91785e+01        00000 
-7.16458e+00 -2.89901e+01        00000 
-5.10186e+00 -2.88486e+01        00000 
-3.05502e+00 -2.87542e+01        00000 
-1.01774e+00 -2.87070e+01        00000 
 1.01635e+00 -2.87070e+01        00000 
 3.05364e+00 -2.87542e+01        00000 
 5.10048e+00 -2.88487e+01        00000 
 7.16322e+00 -2.89902e+01        00000 
 9.24808e+00 -2.91786e+01        00000 
 1.13612e+01 -2.94138e+01        00000 
 1.35086e+01 -2.96954e+01        00000 
 1.56960e+01 -3.00232e+01        00000 
 1.79290e+01 -3.03969e+01        00000 
 2.02130e+01 -3.08162e+01        00000 
 2.25530e+01 -3.12807e+01        00000 
 2.49540e+01 -3.17905e+01        00000 
 2.74205e+01 -3.23456e+01        00000 
 2.99572e+01 -3.29462e+01        00000 
 3.25687e+01 -3.35928e+01        00000 
-3.54747e+01 -3.90973e+01        00000 
-3.26622e+01 -3.84794e+01        00000 
-2.99259e+01 -3.79058e+01        00000 
-2.72607e+01 -3.73763e+01        00000 
-2.46615e+01 -3.68904e+01        00000 
-2.21233e+01 -3.64481e+01        00000 
-1.96409e+01 -3.60493e+01        00000 
-1.72088e+01 -3.56943e+01        00000 
-1.48218e+01 -3.53830e+01        00000 
-1.24740e+01 -3.51156e+01        00000 
-1.01599e+01 -3.48925e+01        00000 
-7.87336e+00 -3.47137e+01        00000 
-5.60851e+00 -3.45795e+01        00000 
-3.35918e+00 -3.44900e+01        00000 
-1.11919e+00 -3.44452e+01        00000 
 1.11769e+00 -3.44452e+01        00000 
 3.35768e+00 -3.44900e+01        00000 
 5.60702e+00 -3.45796e+01        00000 
 7.87189e+00 -3.47139e+01        00000 
 1.01584e+01 -3.48927e+01        00000 
 1.24726e+01 -3.51158e+01        00000 
 1.48204e+01 -3.53832e+01        00000 
 1.72075e+01 -3.56945e+01        00000 
 1.96396e+01 -3.60497e+01        00000 
 2.21221e+01 -3.64485e+01        00000 
 2.46604e+01 -3.68908e+01        00000 
 2.72596e+01 -3.73767e+01        00000 
 2.99248e+01 -3.79064e+01        00000 
 3.26612e+01 -3.84799e+01        00000 
 3.54739e+01 -3.90979e+01        00000 
-3.82479e+01 -4.49979e+01        00000 
-3.52425e+01 -4.44092e+01        00000 
-3.23144e+01 -4.38630e+01        00000 
-2.94584e+01 -4.33590e+01        00000 
-2.66689e+01 -4.28971e+01        00000 
-2.39406e+01 -4.24769e+01        00000 
-2.12681e+01 -4.20984e+01        00000 
-1.86459e+01 -4.17617e+01        00000 
-1.60683e+01 -4.14667e+01        00000 
-1.35297e+01 -4.12135e+01        00000 
-1.10243e+01 -4.10023e+01        00000 
-8.54618e+00 -4.08332e+01        00000 
-6.08936e+00 -4.07062e+01        00000 
-3.64781e+00 -4.06216e+01        00000 
-1.21545e+00 -4.05792e+01        00000 
 1.21385e+00 -4.05793e+01        00000 
 3.64622e+00 -4.06216e+01        00000 
 6.08777e+00 -4.07064e+01        00000 
 8.54461e+00 -4.08334e+01        00000 
 1.10228e+01 -4.10026e+01        00000 
 1.35282e+01 -4.12138e+01        00000 
 1.60669e+01 -4.14670e+01        00000 
 1.86445e+01 -4.17621e+01        00000 
 2.12668e+01 -4.20989e+01        00000 
 2.39393e+01 -4.24774e+01        00000 
 2.66677e+01 -4.28976e+01        00000 
 2.94572e+01 -4.33597e+01        00000 
 3.23134e+01 -4.38637e+01        00000 
 3.52415e+01 -4.44099e+01        00000 
 3.82471e+01 -4.49988e+01        00000 
-4.08868e+01 -5.12770e+01        00000 
-3.76971e+01 -5.07177e+01        00000 
-3.45859e+01 -5.01992e+01        00000 
-3.15473e+01 -4.97210e+01        00000 
-2.85760e+01 -4.92830e+01        00000 
-2.56663e+01 -4.88849e+01        00000 
-2.28126e+01 -4.85265e+01        00000 
-2.00091e+01 -4.82079e+01        00000 
-1.72503e+01 -4.79289e+01        00000 
-1.45304e+01 -4.76897e+01        00000 
-1.18434e+01 -4.74902e+01        00000 
-9.18352e+00 -4.73305e+01        00000 
-6.54477e+00 -4.72107e+01        00000 
-3.92114e+00 -4.71308e+01        00000 
-1.30660e+00 -4.70909e+01        00000 
 1.30491e+00 -4.70909e+01        00000 
 3.91946e+00 -4.71309e+01        00000 
 6.54310e+00 -4.72109e+01        00000 
 9.18188e+00 -4.73308e+01        00000 
 1.18418e+01 -4.74905e+01        00000 
 1.45288e+01 -4.76901e+01        00000 
 1.72488e+01 -4.79294e+01        00000 
 2.00077e+01 -4.82084e+01        00000 
 2.28111e+01 -4.85271e+01        00000 
 2.56649e+01 -4.88855e+01        00000 
 2.85747e+01 -4.92837e+01        00000 
 3.15461e+01 -4.97218e+01        00000 
 3.45847e+01 -5.02001e+01        00000 
 3.76961e+01 -5.07187e+01        00000 
 4.08859e+01 -5.12780e+01        00000 
-4.33895e+01 -5.79164e+01        00000 
-4.00246e+01 -5.73871e+01        00000 
-3.67390e+01 -5.68964e+01        00000 
-3.35268e+01 -5.64443e+01        00000 
-3.03825e+01 -5.60302e+01        00000 
-2.73003e+01 -5.56541e+01        00000 
-2.42744e+01 -5.53157e+01        00000 
-2.12990e+01 -5.50150e+01        00000 
-1.83683e+01 -5.47519e+01        00000 
-1.54765e+01 -5.45264e+01        00000 
-1.26177e+01 -5.43383e+01        00000 
-9.78588e+00 -5.41879e+01        00000 
-6.97511e+00 -5.40750e+01        00000 
-4.17939e+00 -5.39997e+01        00000 
-1.39271e+00 -5.39621e+01        00000 
 1.39096e+00 -5.39622e+01        00000 
 4.17764e+00 -5.39999e+01        00000 
 6.97338e+00 -5.40752e+01        00000 
 9.78417e+00 -5.41882e+01        00000 
 1.26160e+01 -5.43387e+01        00000 
 1.54749e+01 -5.45268e+01        00000 
 1.83667e+01 -5.47525e+01        00000 
 2.12974e+01 -5.50157e+01        00000 
 2.42729e+01 -5.53165e+01        00000 
 2.72989e+01 -5.56549e+01        00000 
 3.03812e+01 -5.60311e+01        00000 
 3.35256e+01 -5.64452e+01        00000 
 3.67378e+01 -5.68975e+01        00000 
 4.00236e+01 -5.73882e+01        00000 
 4.33885e+01 -5.79177e+01        00000 
-4.57545e+01 -6.48981e+01        00000 
-4.22235e+01 -6.43990e+01        00000 
-3.87726e+01 -6.39365e+01        00000 
-3.53960e+01 -6.35105e+01        00000 
-3.20878e+01 -6.31206e+01        00000 
-2.88423e+01 -6.27664e+01        00000 
-2.56536e+01 -6.24480e+01        00000 
-2.25157e+01 -6.21651e+01        00000 
-1.94227e+01 -6.19176e+01        00000 
-1.63687e+01 -6.17054e+01        00000 
-1.33477e+01 -6.15286e+01        00000 
-1.03537e+01 -6.13871e+01        00000 
-7.38071e+00 -6.12810e+01        00000 
-4.42278e+00 -6.12103e+01        00000 
-1.47386e+00 -6.11749e+01        00000 
 1.47206e+00 -6.11750e+01        00000 
 4.42098e+00 -6.12104e+01        00000 
 7.37893e+00 -6.12812e+01        00000 
 1.03519e+01 -6.13875e+01        00000 
 1.33459e+01 -6.15290e+01        00000 
 1.63670e+01 -6.17059e+01        00000 
 1.94210e+01 -6.19182e+01        00000 
 2.25141e+01 -6.21658e+01        00000 
 2.56520e+01 -6.24489e+01        00000 
 2.88409e+01 -6.27674e+01        00000 
 3.20865e+01 -6.31216e+01        00000 
 3.53947e+01 -6.35117e+01        00000 
 3.87714e+01 -6.39378e+01        00000 
 4.22224e+01 -6.44004e+01        00000 
 4.57535e+01 -6.48996e+01        00000 
-4.79803e+01 -7.22038e+01        00000 
-4.42925e+01 -7.17351e+01        00000 
-4.06856e+01 -7.13012e+01        00000 
-3.71538e+01 -7.09015e+01        00000 
-3.36913e+01 -7.05358e+01        00000 
-3.02920e+01 -7.02037e+01        00000 
-2.69500e+01 -6.99051e+01        00000 
-2.36592e+01 -6.96397e+01        00000 
-2.04136e+01 -6.94076e+01        00000 
-1.72071e+01 -6.92086e+01        00000 
-1.40337e+01 -6.90427e+01        00000 
-1.08873e+01 -6.89099e+01        00000 
-7.76188e+00 -6.88104e+01        00000 
-4.65150e+00 -6.87440e+01        00000 
-1.55012e+00 -6.87108e+01        00000 
 1.54828e+00 -6.87108e+01        00000 
 4.64967e+00 -6.87441e+01        00000 
 7.76007e+00 -6.88106e+01        00000 
 1.08855e+01 -6.89103e+01        00000 
 1.40319e+01 -6.90432e+01        00000 
 1.72054e+01 -6.92092e+01        00000 
 2.04119e+01 -6.94083e+01        00000 
 2.36576e+01 -6.96406e+01        00000 
 2.69485e+01 -6.99060e+01        00000 
 3.02906e+01 -7.02048e+01        00000 
 3.36899e+01 -7.05370e+01        00000 
 3.71525e+01 -7.09029e+01        00000 
 4.06844e+01 -7.13027e+01        00000 
 4.42914e+01 -7.17368e+01        00000 
 4.79794e+01 -7.22055e+01        00000 
-5.00655e+01 -7.98150e+01        00000 
-4.62300e+01 -7.93773e+01        00000 
-4.24766e+01 -7.89721e+01        00000 
-3.87994e+01 -7.85990e+01        00000 
-3.51922e+01 -7.82576e+01        00000 
-3.16490e+01 -7.79475e+01        00000 
-2.81636e+01 -7.76686e+01        00000 
-2.47298e+01 -7.74206e+01        00000 
-2.13414e+01 -7.72035e+01        00000 
-1.79922e+01 -7.70173e+01        00000 
-1.46762e+01 -7.68620e+01        00000 
-1.13871e+01 -7.67376e+01        00000 
-8.11899e+00 -7.66443e+01        00000 
-4.86580e+00 -7.65821e+01        00000 
-1.62156e+00 -7.65509e+01        00000 
 1.61970e+00 -7.65510e+01        00000 
 4.86395e+00 -7.65822e+01        00000 