<?xml version="1.0" encoding="utf-8"?>
<VTKFile byte_order="LittleEndian" type="UnstructuredGrid" version="0.1">
   <UnstructuredGrid>
      <Piece NumberOfCells="3364" NumberOfPoints="1741">
         <Points>
            <DataArray Name="Points" NumberOfComponents="3" format="ascii" type="Float32">
0.0000 1.0000 0.0000
0.0000 1.0345 0.0000
0.0000 1.0690 0.0000
0.0000 1.1034 0.0000
0.0000 1.1379 0.0000
0.0000 1.1724 0.0000
0.0000 1.2069 0.0000
0.0000 1.2414 0.0000
0.0000 1.2759 0.0000
0.0000 1.3103 0.0000
0.0000 1.3448 0.0000
0.0000 1.3793 0.0000
0.0000 1.4138 0.0000
0.0000 1.4483 0.0000
0.0000 1.4828 0.0000
0.0000 1.5172 0.0000
0.0000 1.5517 0.0000
0.0000 1.5862 0.0000
0.0000 1.6207 0.0000
0.0000 1.6552 0.0000
0.0000 1.6897 0.0000
0.0000 1.7241 0.0000
0.0000 1.7586 0.0000
0.0000 1.7931 0.0000
0.0000 1.8276 0.0000
0.0000 1.8621 0.0000
0.0000 1.8966 0.0000
0.0000 1.9310 0.0000
0.0000 1.9655 0.0000
0.0000 2.0000 0.0000
0.0690 1.0000 0.0000
0.0690 1.0345 0.0000
0.0690 1.0690 0.0000
0.0690 1.1034 0.0000
0.0690 1.1379 0.0000
0.0690 1.1724 0.0000
0.0690 1.2069 0.0000
0.0690 1.2414 0.0000
0.0690 1.2759 0.0000
0.0690 1.3103 0.0000
0.0690 1.3448 0.0000
0.0690 1.3793 0.0000
0.0690 1.4138 0.0000
0.0690 1.4483 0.0000
0.0690 1.4828 0.0000
0.0690 1.5172 0.0000
0.0690 1.5517 0.0000
0.0690 1.5862 0.0000
0.0690 1.6207 0.0000
0.0690 1.6552 0.0000
0.0690 1.6897 0.0000
0.0690 1.7241 0.0000
0.0690 1.7586 0.0000
0.0690 1.7931 0.0000
0.0690 1.8276 0.0000
0.0690 1.8621 0.0000
0.0690 1.8966 0.0000
0.0690 1.9310 0.0000
0.0690 1.9655 0.0000
0.0690 2.0000 0.0000
0.1379 1.0000 0.0000
0.1379 1.0345 0.0000
0.1379 1.0690 0.0000
0.1379 1.1034 0.0000
0.1379 1.1379 0.0000
0.1379 1.1724 0.0000
0.1379 1.2069 0.0000
0.1379 1.2414 0.0000
0.1379 1.2759 0.0000
0.1379 1.3103 0.0000
0.1379 1.3448 0.0000
0.1379 1.3793 0.0000
0.1379 1.4138 0.0000
0.1379 1.4483 0.0000
0.1379 1.4828 0.0000
0.1379 1.5172 0.0000
0.1379 1.5517 0.0000
0.1379 1.5862 0.0000
0.1379 1.6207 0.0000
0.1379 1.6552 0.0000
0.1379 1.6897 0.0000
0.1379 1.7241 0.0000
0.1379 1.7586 0.0000
0.1379 1.7931 0.0000
0.1379 1.8276 0.0000
0.1379 1.8621 0.0000
0.1379 1.8966 0.0000
0.1379 1.9310 0.0000
0.1379 1.9655 0.0000
0.1379 2.0000 0.0000
0.2069 1.0000 0.0000
0.2069 1.0345 0.0000
0.2069 1.0690 0.0000
0.2069 1.1034 0.0000
0.2069 1.1379 0.0000
0.2069 1.1724 0.0000
0.2069 1.2069 0.0000
0.2069 1.2414 0.0000
0.2069 1.2759 0.0000
0.2069 1.3103 0.0000
0.2069 1.3448 0.0000
0.2069 1.3793 0.0000
0.2069 1.4138 0.0000
0.2069 1.4483 0.0000
0.2069 1.4828 0.0000
0.2069 1.5172 0.0000
0.2069 1.5517 0.0000
0.2069 1.5862 0.0000
0.2069 1.6207 0.0000
0.2069 1.6552 0.0000
0.2069 1.6897 0.0000
0.2069 1.7241 0.0000
0.2069 1.7586 0.0000
0.2069 1.7931 0.0000
0.2069 1.8276 0.0000
0.2069 1.8621 0.0000
0.2069 1.8966 0.0000
0.2069 1.9310 0.0000
0.2069 1.9655 0.0000
0.2069 2.0000 0.0000
0.2759 1.0000 0.0000
0.2759 1.0345 0.0000
0.2759 1.0690 0.0000
0.2759 1.1034 0.0000
0.2759 1.1379 0.0000
0.2759 1.1724 0.0000
0.2759 1.2069 0.0000
0.2759 1.2414 0.0000
0.2759 1.2759 0.0000
0.2759 1.3103 0.0000
0.2759 1.3448 0.0000
0.2759 1.3793 0.0000
0.2759 1.4138 0.0000
0.2759 1.4483 0.0000
0.2759 1.4828 0.0000
0.2759 1.5172 0.0000
0.2759 1.5517 0.0000
0.2759 1.5862 0.0000
0.2759 1.6207 0.0000
0.2759 1.6552 0.0000
0.2759 1.6897 0.0000
0.2759 1.7241 0.0000
0.2759 1.7586 0.0000
0.2759 1.7931 0.0000
0.2759 1.8276 0.0000
0.2759 1.8621 0.0000
0.2759 1.8966 0.0000
0.2759 1.9310 0.0000
0.2759 1.9655 0.0000
0.2759 2.0000 0.0000
0.3448 1.0000 0.0000
0.3448 1.0345 0.0000
0.3448 1.0690 0.0000
0.3448 1.1034 0.0000
0.3448 1.1379 0.0000
0.3448 1.1724 0.0000
0.3448 1.2069 0.0000
0.3448 1.2414 0.0000
0.3448 1.2759 0.0000
0.3448 1.3103 0.0000
0.3448 1.3448 0.0000
0.3448 1.3793 0.0000
0.3448 1.4138 0.0000
0.3448 1.4483 0.0000
0.3448 1.4828 0.0000
0.3448 1.5172 0.0000
0.3448 1.5517 0.0000
0.3448 1.5862 0.0000
0.3448 1.6207 0.0000
0.3448 1.6552 0.0000
0.3448 1.6897 0.0000
0.3448 1.7241 0.0000
0.3448 1.7586 0.0000
0.3448 1.7931 0.0000
0.3448 1.8276 0.0000
0.3448 1.8621 0.0000
0.3448 1.8966 0.0000
0.3448 1.9310 0.0000
0.3448 1.9655 0.0000
0.3448 2.0000 0.0000
0.4138 1.0000 0.0000
0.4138 1.0345 0.0000
0.4138 1.0690 0.0000
0.4138 1.1034 0.0000
0.4138 1.1379 0.0000
0.4138 1.1724 0.0000
0.4138 1.2069 0.0000
0.4138 1.2414 0.0000
0.4138 1.2759 0.0000
0.4138 1.3103 0.0000
0.4138 1.3448 0.0000
0.4138 1.3793 0.0000
0.4138 1.4138 0.0000
0.4138 1.4483 0.0000
0.4138 1.4828 0.0000
0.4138 1.5172 0.0000
0.4138 1.5517 0.0000
0.4138 1.5862 0.0000
0.4138 1.6207 0.0000
0.4138 1.6552 0.0000
0.4138 1.6897 0.0000
0.4138 1.7241 0.0000
0.4138 1.7586 0.0000
0.4138 1.7931 0.0000
0.4138 1.8276 0.0000
0.4138 1.8621 0.0000
0.4138 1.8966 0.0000
0.4138 1.9310 0.0000
0.4138 1.9655 0.0000
0.4138 2.0000 0.0000
0.4828 1.0000 0.0000
0.4828 1.0345 0.0000
0.4828 1.0690 0.0000
0.4828 1.1034 0.0000
0.4828 1.1379 0.0000
0.4828 1.1724 0.0000
0.4828 1.2069 0.0000
0.4828 1.2414 0.0000
0.4828 1.2759 0.0000
0.4828 1.3103 0.0000
0.4828 1.3448 0.0000
0.4828 1.3793 0.0000
0.4828 1.4138 0.0000
0.4828 1.4483 0.0000
0.4828 1.4828 0.0000
0.4828 1.5172 0.0000
0.4828 1.5517 0.0000
0.4828 1.5862 0.0000
0.4828 1.6207 0.0000
0.4828 1.6552 0.0000
0.4828 1.6897 0.0000
0.4828 1.7241 0.0000
0.4828 1.7586 0.0000
0.4828 1.7931 0.0000
0.4828 1.8276 0.0000
0.4828 1.8621 0.0000
0.4828 1.8966 0.0000
0.4828 1.9310 0.0000
0.4828 1.9655 0.0000
0.4828 2.0000 0.0000
0.5517 1.0000 0.0000
0.5517 1.0345 0.0000
0.5517 1.0690 0.0000
0.5517 1.1034 0.0000
0.5517 1.1379 0.0000
0.5517 1.1724 0.0000
0.5517 1.2069 0.0000
0.5517 1.2414 0.0000
0.5517 1.2759 0.0000
0.5517 1.3103 0.0000
0.5517 1.3448 0.0000
0.5517 1.3793 0.0000
0.5517 1.4138 0.0000
0.5517 1.4483 0.0000
0.5517 1.4828 0.0000
0.5517 1.5172 0.0000
0.5517 1.5517 0.0000
0.5517 1.5862 0.0000
0.5517 1.6207 0.0000
0.5517 1.6552 0.0000
0.5517 1.6897 0.0000
0.5517 1.7241 0.0000
0.5517 1.7586 0.0000
0.5517 1.7931 0.0000
0.5517 1.8276 0.0000
0.5517 1.8621 0.0000
0.5517 1.8966 0.0000
0.5517 1.9310 0.0000
0.5517 1.9655 0.0000
0.5517 2.0000 0.0000
0.6207 1.0000 0.0000
0.6207 1.0345 0.0000
0.6207 1.0690 0.0000
0.6207 1.1034 0.0000
0.6207 1.1379 0.0000
0.6207 1.1724 0.0000
0.6207 1.2069 0.0000
0.6207 1.2414 0.0000
0.6207 1.2759 0.0000
0.6207 1.3103 0.0000
0.6207 1.3448 0.0000
0.6207 1.3793 0.0000
0.6207 1.4138 0.0000
0.6207 1.4483 0.0000
0.6207 1.4828 0.0000
0.6207 1.5172 0.0000
0.6207 1.5517 0.0000
0.6207 1.5862 0.0000
0.6207 1.6207 0.0000
0.6207 1.6552 0.0000
0.6207 1.6897 0.0000
0.6207 1.7241 0.0000
0.6207 1.7586 0.0000
0.6207 1.7931 0.0000
0.6207 1.8276 0.0000
0.6207 1.8621 0.0000
0.6207 1.8966 0.0000
0.6207 1.9310 0.0000
0.6207 1.9655 0.0000
0.6207 2.0000 0.0000
0.6897 1.0000 0.0000
0.6897 1.0345 0.0000
0.6897 1.0690 0.0000
0.6897 1.1034 0.0000
0.6897 1.1379 0.0000
0.6897 1.1724 0.0000
0.6897 1.2069 0.0000
0.6897 1.2414 0.0000
0.6897 1.2759 0.0000
0.6897 1.3103 0.0000
0.6897 1.3448 0.0000
0.6897 1.3793 0.0000
0.6897 1.4138 0.0000
0.6897 1.4483 0.0000
0.6897 1.4828 0.0000
0.6897 1.5172 0.0000
0.6897 1.5517 0.0000
0.6897 1.5862 0.0000
0.6897 1.6207 0.0000
0.6897 1.6552 0.0000
0.6897 1.6897 0.0000
0.6897 1.7241 0.0000
0.6897 1.7586 0.0000
0.6897 1.7931 0.0000
0.6897 1.8276 0.0000
0.6897 1.8621 0.0000
0.6897 1.8966 0.0000
0.6897 1.9310 0.0000
0.6897 1.9655 0.0000
0.6897 2.0000 0.0000
0.7586 1.0000 0.0000
0.7586 1.0345 0.0000
0.7586 1.0690 0.0000
0.7586 1.1034 0.0000
0.7586 1.1379 0.0000
0.7586 1.1724 0.0000
0.7586 1.2069 0.0000
0.7586 1.2414 0.0000
0.7586 1.2759 0.0000
0.7586 1.3103 0.0000
0.7586 1.3448 0.0000
0.7586 1.3793 0.0000
0.7586 1.4138 0.0000
0.7586 1.4483 0.0000
0.7586 1.4828 0.0000
0.7586 1.5172 0.0000
0.7586 1.5517 0.0000
0.7586 1.5862 0.0000
0.7586 1.6207 0.0000
0.7586 1.6552 0.0000
0.7586 1.6897 0.0000
0.7586 1.7241 0.0000
0.7586 1.7586 0.0000
0.7586 1.7931 0.0000
0.7586 1.8276 0.0000
0.7586 1.8621 0.0000
0.7586 1.8966 0.0000
0.7586 1.9310 0.0000
0.7586 1.9655 0.0000
0.7586 2.0000 0.0000
0.8276 1.0000 0.0000
0.8276 1.0345 0.0000
0.8276 1.0690 0.0000
0.8276 1.1034 0.0000
0.8276 1.1379 0.0000
0.8276 1.1724 0.0000
0.8276 1.2069 0.0000
0.8276 1.2414 0.0000
0.8276 1.2759 0.0000
0.8276 1.3103 0.0000
0.8276 1.3448 0.0000
0.8276 1.3793 0.0000
0.8276 1.4138 0.0000
0.8276 1.4483 0.0000
0.8276 1.4828 0.0000
0.8276 1.5172 0.0000
0.8276 1.5517 0.0000
0.8276 1.5862 0.0000
0.8276 1.6207 0.0000
0.8276 1.6552 0.0000
0.8276 1.6897 0.0000
0.8276 1.7241 0.0000
0.8276 1.7586 0.0000
0.8276 1.7931 0.0000
0.8276 1.8276 0.0000
0.8276 1.8621 0.0000
0.8276 1.8966 0.0000
0.8276 1.9310 0.0000
0.8276 1.9655 0.0000
0.8276 2.0000 0.0000
0.8966 1.0000 0.0000
0.8966 1.0345 0.0000
0.8966 1.0690 0.0000
0.8966 1.1034 0.0000
0.8966 1.1379 0.0000
0.8966 1.1724 0.0000
0.8966 1.2069 0.0000
0.8966 1.2414 0.0000
0.8966 1.2759 0.0000
0.8966 1.3103 0.0000
0.8966 1.3448 0.0000
0.8966 1.3793 0.0000
0.8966 1.4138 0.0000
0.8966 1.4483 0.0000
0.8966 1.4828 0.0000
0.8966 1.5172 0.0000
0.8966 1.5517 0.0000
0.8966 1.5862 0.0000
0.8966 1.6207 0.0000
0.8966 1.6552 0.0000
0.8966 1.6897 0.0000
0.8966 1.7241 0.0000
0.8966 1.7586 0.0000
0.8966 1.7931 0.0000
0.8966 1.8276 0.0000
0.8966 1.8621 0.0000
0.8966 1.8966 0.0000
0.8966 1.9310 0.0000
0.8966 1.9655 0.0000
0.8966 2.0000 0.0000
0.9655 1.0000 0.0000
0.9655 1.0345 0.0000
0.9655 1.0690 0.0000
0.9655 1.1034 0.0000
0.9655 1.1379 0.0000
0.9655 1.1724 0.0000
0.9655 1.2069 0.0000
0.9655 1.2414 0.0000
0.9655 1.2759 0.0000
0.9655 1.3103 0.0000
0.9655 1.3448 0.0000
0.9655 1.3793 0.0000
0.9655 1.4138 0.0000
0.9655 1.4483 0.0000
0.9655 1.4828 0.0000
0.9655 1.5172 0.0000
0.9655 1.5517 0.0000
0.9655 1.5862 0.0000
0.9655 1.6207 0.0000
0.9655 1.6552 0.0000
0.9655 1.6897 0.0000
0.9655 1.7241 0.0000
0.9655 1.7586 0.0000
0.9655 1.7931 0.0000
0.9655 1.8276 0.0000
0.9655 1.8621 0.0000
0.9655 1.8966 0.0000
0.9655 1.9310 0.0000
0.9655 1.9655 0.0000
0.9655 2.0000 0.0000
1.0345 1.0000 0.0000
1.0345 1.0345 0.0000
1.0345 1.0690 0.0000
1.0345 1.1034 0.0000
1.0345 1.1379 0.0000
1.0345 1.1724 0.0000
1.0345 1.2069 0.0000
1.0345 1.2414 0.0000
1.0345 1.2759 0.0000
1.0345 1.3103 0.0000
1.0345 1.3448 0.0000
[...]
         <PointData>
            <DataArray Name="fValues" NumberOfComponents="3" format="ascii" type="Float64">
 1.99354e-16 -2.88073e-16        00000 
 1.88397e-16  6.59388e-16        00000 
 3.26026e-16  1.86301e-16        00000 
-2.12129e-16 -2.77962e-17        00000 
       00000  4.30821e-16        00000 
-7.45136e-16 -4.06066e-16        00000 
 2.09588e-16  4.65752e-17        00000 
-5.70554e-17  2.36999e-16        00000 
 1.97945e-16 -2.56164e-16        00000 
-2.37489e-16  8.46076e-17        00000 
-3.49314e-17 -1.39726e-16        00000 
 5.30323e-18  1.82870e-17        00000 
-6.11300e-17 -3.49314e-17        00000 
 1.93464e-18 -1.10132e-17        00000 
-1.45548e-17 -5.82190e-17        00000 
 1.29838e-17  3.36480e-17        00000 
 1.74657e-17 -2.91095e-17        00000 
 7.05331e-17 -3.82547e-17        00000 
-1.39726e-16 -1.39726e-16        00000 
 1.18500e-16  1.28740e-16        00000 
-5.82190e-17 -1.04794e-16        00000 
 1.91655e-17 -3.63014e-18        00000 
 1.28082e-16 -1.04794e-16        00000 
 8.48516e-17  3.07221e-17        00000 
 3.26026e-16 -1.16438e-16        00000 
 2.71465e-16 -2.78909e-16        00000 
-5.12327e-16  7.68491e-16        00000 
 6.14123e-16 -6.31711e-16        00000 
-1.87899e-16  2.23130e-16        00000 
 2.93428e-16 -6.71915e-16        00000 
-5.10347e+00 -4.25640e+00        00000 
-3.77582e+00 -3.19279e+00        00000 
-3.14411e+00 -2.48318e+00        00000 
-2.71035e+00 -1.98661e+00        00000 
-2.36706e+00 -1.62166e+00        00000 
-2.07332e+00 -1.34422e+00        00000 
-1.80995e+00 -1.12854e+00        00000 
-1.56666e+00 -9.58629e-01        00000 
-1.33737e+00 -8.24077e-01        00000 
-1.11815e+00 -7.17836e-01        00000 
-9.06320e-01 -6.35012e-01        00000 
-6.99903e-01 -5.72163e-01        00000 
-4.97366e-01 -5.26881e-01        00000 
-2.97441e-01 -4.97530e-01        00000 
-9.90269e-02 -4.83097e-01        00000 
 9.88933e-02 -4.83092e-01        00000 
 2.97308e-01 -4.97516e-01        00000 
 4.97233e-01 -5.26857e-01        00000 
 6.99772e-01 -5.72130e-01        00000 
 9.06190e-01 -6.34969e-01        00000 
 1.11802e+00 -7.17783e-01        00000 
 1.33724e+00 -8.24014e-01        00000 
 1.56654e+00 -9.58556e-01        00000 
 1.80983e+00 -1.12846e+00        00000 
 2.07320e+00 -1.34413e+00        00000 
 2.36695e+00 -1.62156e+00        00000 
 2.71023e+00 -1.98650e+00        00000 
 3.14399e+00 -2.48305e+00        00000 
 3.77569e+00 -3.19264e+00        00000 
 5.10330e+00 -4.25622e+00        00000 
-9.05023e+00 -6.87239e+00        00000 
-7.78352e+00 -6.04537e+00        00000 
-6.67581e+00 -5.22720e+00        00000 
-5.79574e+00 -4.52799e+00        00000 
-5.06159e+00 -3.95079e+00        00000 
-4.42311e+00 -3.47844e+00        00000 
-3.84986e+00 -3.09275e+00        00000 
-3.32270e+00 -2.77845e+00        00000 
-2.82899e+00 -2.52350e+00        00000 
-2.36001e+00 -2.31866e+00        00000 
-1.90942e+00 -2.15691e+00        00000 
-1.47243e+00 -2.03303e+00        00000 
-1.04523e+00 -1.94318e+00        00000 
-6.24651e-01 -1.88468e+00        00000 
-2.07893e-01 -1.85583e+00        00000 
 2.07613e-01 -1.85583e+00        00000 
 6.24372e-01 -1.88465e+00        00000 
 1.04496e+00 -1.94314e+00        00000 
 1.47216e+00 -2.03297e+00        00000 
 1.90914e+00 -2.15684e+00        00000 
 2.35974e+00 -2.31857e+00        00000 
 2.82873e+00 -2.52339e+00        00000 
 3.32244e+00 -2.77833e+00        00000 
 3.84961e+00 -3.09261e+00        00000 
 4.42286e+00 -3.47828e+00        00000 
 5.06134e+00 -3.95061e+00        00000 
 5.79549e+00 -4.52780e+00        00000 
 6.67556e+00 -5.22699e+00        00000 
 7.78326e+00 -6.04514e+00        00000 
 9.04996e+00 -6.87215e+00        00000 
-1.27791e+01 -9.60383e+00        00000 
-1.13935e+01 -8.78897e+00        00000 
-1.01030e+01 -8.02382e+00        00000 
-8.92303e+00 -7.31317e+00        00000 
-7.86208e+00 -6.67881e+00        00000 
-6.90102e+00 -6.12665e+00        00000 
-6.01914e+00 -5.65387e+00        00000 
-5.19907e+00 -5.25427e+00        00000 
-4.42707e+00 -4.92088e+00        00000 
-3.69235e+00 -4.64715e+00        00000 
-2.98632e+00 -4.42740e+00        00000 
-2.30201e+00 -4.25698e+00        00000 
-1.63360e+00 -4.13224e+00        00000 
-9.76036e-01 -4.05052e+00        00000 
-3.24798e-01 -4.01009e+00        00000 
 3.24365e-01 -4.01008e+00        00000 
 9.75604e-01 -4.05049e+00        00000 
 1.63317e+00 -4.13219e+00        00000 
 2.30158e+00 -4.25691e+00        00000 
 2.98589e+00 -4.42731e+00        00000 
 3.69193e+00 -4.64704e+00        00000 
 4.42666e+00 -4.92075e+00        00000 
 5.19867e+00 -5.25412e+00        00000 
 6.01874e+00 -5.65370e+00        00000 
 6.90063e+00 -6.12647e+00        00000 
 7.86171e+00 -6.67861e+00        00000 
 8.92266e+00 -7.31295e+00        00000 
 1.01026e+01 -8.02359e+00        00000 
 1.13931e+01 -8.78873e+00        00000 
 1.27787e+01 -9.60359e+00        00000 
-1.64100e+01 -1.26132e+01        00000 
-1.48410e+01 -1.18288e+01        00000 
-1.33463e+01 -1.10898e+01        00000 
-1.19360e+01 -1.04030e+01        00000 
-1.06125e+01 -9.77336e+00        00000 
-9.37340e+00 -9.20703e+00        00000 
-8.20999e+00 -8.70671e+00        00000 
-7.11133e+00 -8.27209e+00        00000 
-6.06661e+00 -7.90102e+00        00000 
-5.06590e+00 -7.59054e+00        00000 
-4.10042e+00 -7.33746e+00        00000 
-3.16237e+00 -7.13884e+00        00000 
-2.24481e+00 -6.99217e+00        00000 
-1.34145e+00 -6.89549e+00        00000 
-4.46431e-01 -6.84747e+00        00000 
 4.45839e-01 -6.84746e+00        00000 
 1.34086e+00 -6.89546e+00        00000 
 2.24423e+00 -6.99212e+00        00000 
 3.16179e+00 -7.13877e+00        00000 
 4.09985e+00 -7.33737e+00        00000 
 5.06534e+00 -7.59043e+00        00000 
 6.06605e+00 -7.90090e+00        00000 
 7.11078e+00 -8.27194e+00        00000 
 8.20945e+00 -8.70655e+00        00000 
 9.37288e+00 -9.20685e+00        00000 
 1.06120e+01 -9.77317e+00        00000 
 1.19355e+01 -1.04028e+01        00000 
 1.33458e+01 -1.10896e+01        00000 
 1.48406e+01 -1.18286e+01        00000 
 1.64095e+01 -1.26130e+01        00000 
-1.99403e+01 -1.60209e+01        00000 
-1.81630e+01 -1.52603e+01        00000 
-1.64554e+01 -1.45484e+01        00000 
-1.48212e+01 -1.38859e+01        00000 
-1.32615e+01 -1.32757e+01        00000 
-1.17745e+01 -1.27204e+01        00000 
-1.03556e+01 -1.22223e+01        00000 
-8.99823e+00 -1.17826e+01        00000 
-7.69473e+00 -1.14015e+01        00000 
-6.43699e+00 -1.10784e+01        00000 
-5.21707e+00 -1.08120e+01        00000 
-4.02738e+00 -1.06009e+01        00000 
-2.86070e+00 -1.04439e+01        00000 
-1.71019e+00 -1.03399e+01        00000 
-5.69253e-01 -1.02881e+01        00000 
 5.68505e-01 -1.02881e+01        00000 
 1.70944e+00 -1.03399e+01        00000 
 2.85996e+00 -1.04439e+01        00000 
 4.02664e+00 -1.06008e+01        00000 
 5.21635e+00 -1.08119e+01        00000 
 6.43627e+00 -1.10783e+01        00000 
 7.69403e+00 -1.14014e+01        00000 
 8.99754e+00 -1.17825e+01        00000 
 1.03549e+01 -1.22221e+01        00000 
 1.17738e+01 -1.27203e+01        00000 
 1.32609e+01 -1.32756e+01        00000 
 1.48206e+01 -1.38858e+01        00000 
 1.64549e+01 -1.45483e+01        00000 
 1.81625e+01 -1.52602e+01        00000 
 1.99398e+01 -1.60207e+01        00000 
-2.33657e+01 -1.98610e+01        00000 
-2.13699e+01 -1.91259e+01        00000 
-1.94445e+01 -1.84398e+01        00000 
-1.75892e+01 -1.78027e+01        00000 
-1.58029e+01 -1.72153e+01        00000 
-1.40832e+01 -1.66791e+01        00000 
-1.24262e+01 -1.61954e+01        00000 
-1.08269e+01 -1.57653e+01        00000 
-9.27916e+00 -1.53895e+01        00000 
-7.77629e+00 -1.50683e+01        00000 
-6.31134e+00 -1.48016e+01        00000 
-4.87723e+00 -1.45890e+01        00000 
-3.46697e+00 -1.44301e+01        00000 
-2.07363e+00 -1.43244e+01        00000 
-6.90389e-01 -1.42717e+01        00000 
 6.89489e-01 -1.42717e+01        00000 
 2.07273e+00 -1.43244e+01        00000 
 3.46608e+00 -1.44300e+01        00000 
 4.87635e+00 -1.45890e+01        00000 
 6.31046e+00 -1.48016e+01        00000 
 7.77543e+00 -1.50683e+01        00000 
 9.27832e+00 -1.53895e+01        00000 
 1.08261e+01 -1.57653e+01        00000 
 1.24254e+01 -1.61954e+01        00000 
 1.40824e+01 -1.66791e+01        00000 
 1.58021e+01 -1.72153e+01        00000 
 1.75885e+01 -1.78026e+01        00000 
 1.94438e+01 -1.84397e+01        00000 
 2.13693e+01 -1.91258e+01        00000 
 2.33652e+01 -1.98610e+01        00000 
-2.66774e+01 -2.41449e+01        00000 
-2.44618e+01 -2.34362e+01        00000 
-2.23185e+01 -2.27762e+01        00000 
-2.02450e+01 -2.21645e+01        00000 
-1.82385e+01 -2.16012e+01        00000 
-1.62956e+01 -2.10868e+01        00000 
-1.44122e+01 -2.06221e+01        00000 
-1.25835e+01 -2.02077e+01        00000 
-1.08040e+01 -1.98445e+01        00000 
-9.06783e+00 -1.95329e+01        00000 
-7.36857e+00 -1.92731e+01        00000 
-5.69967e+00 -1.90653e+01        00000 
-4.05443e+00 -1.89095e+01        00000 
-2.42610e+00 -1.88058e+01        00000 
-8.07922e-01 -1.87539e+01        00000 
 8.06878e-01 -1.87539e+01        00000 
 2.42506e+00 -1.88058e+01        00000 
 4.05340e+00 -1.89095e+01        00000 
 5.69865e+00 -1.90653e+01        00000 
 7.36756e+00 -1.92731e+01        00000 
 9.06684e+00 -1.95328e+01        00000 
 1.08031e+01 -1.98445e+01        00000 
 1.25825e+01 -2.02077e+01        00000 
 1.44113e+01 -2.06221e+01        00000 
 1.62947e+01 -2.10868e+01        00000 
 1.82377e+01 -2.16012e+01        00000 
 2.02442e+01 -2.21645e+01        00000 
 2.23178e+01 -2.27763e+01        00000 
 2.44612e+01 -2.34362e+01        00000 
 2.66768e+01 -2.41450e+01        00000 
-2.98680e+01 -2.88692e+01        00000 
-2.74360e+01 -2.81881e+01        00000 
-2.50784e+01 -2.75547e+01        00000 
-2.27911e+01 -2.69685e+01        00000 
-2.05704e+01 -2.64295e+01        00000 
-1.84119e+01 -2.59377e+01        00000 
-1.63113e+01 -2.54934e+01        00000 
-1.42634e+01 -2.50972e+01        00000 
-1.22631e+01 -2.47496e+01        00000 
-1.03045e+01 -2.44509e+01        00000 
-8.38171e+00 -2.42016e+01        00000 
-6.48840e+00 -2.40019e+01        00000 
-4.61817e+00 -2.38519e+01        00000 
-2.76450e+00 -2.37519e+01        00000 
-9.20786e-01 -2.37019e+01        00000 
 9.19609e-01 -2.37019e+01        00000 
 2.76333e+00 -2.37520e+01        00000 
 4.61701e+00 -2.38520e+01        00000 
 6.48725e+00 -2.40019e+01        00000 
 8.38057e+00 -2.42016e+01        00000 
 1.03034e+01 -2.44510e+01        00000 
 1.22620e+01 -2.47497e+01        00000 
 1.42624e+01 -2.50973e+01        00000 
 1.63103e+01 -2.54935e+01        00000 
 1.84110e+01 -2.59378e+01        00000 
 2.05694e+01 -2.64296e+01        00000 
 2.27902e+01 -2.69687e+01        00000 
 2.50775e+01 -2.75549e+01        00000 
 2.74353e+01 -2.81883e+01        00000 
 2.98674e+01 -2.88695e+01        00000 
-3.29318e+01 -3.40236e+01        00000 
-3.02894e+01 -3.33709e+01        00000 
-2.77230e+01 -3.27645e+01        00000 
-2.52281e+01 -3.22041e+01        00000 
-2.27998e+01 -3.16893e+01        00000 
-2.04334e+01 -3.12202e+01        00000 
-1.81239e+01 -3.07968e+01        00000 
-1.58662e+01 -3.04195e+01        00000 
-1.36548e+01 -3.00884e+01        00000 
-1.14841e+01 -2.98040e+01        00000 
-9.34813e+00 -2.95664e+01        00000 
-7.24089e+00 -2.93761e+01        00000 
-5.15611e+00 -2.92332e+01        00000 
-3.08745e+00 -2.91379e+01        00000 
-1.02850e+00 -2.90902e+01        00000 
 1.02721e+00 -2.90902e+01        00000 
 3.08616e+00 -2.91379e+01        00000 
 5.15482e+00 -2.92333e+01        00000 
 7.23962e+00 -2.93762e+01        00000 
 9.34688e+00 -2.95665e+01        00000 
 1.14829e+01 -2.98041e+01        00000 
 1.36536e+01 -3.00885e+01        00000 
 1.58650e+01 -3.04196e+01        00000 
 1.81228e+01 -3.07970e+01        00000 
 2.04323e+01 -3.12204e+01        00000 
 2.27988e+01 -3.16896e+01        00000 
 2.52271e+01 -3.22044e+01        00000 
 2.77222e+01 -3.27649e+01        00000 
 3.02886e+01 -3.33713e+01        00000 
 3.29310e+01 -3.40241e+01        00000 
-3.58643e+01 -3.95936e+01        00000 
-3.30191e+01 -3.89700e+01        00000 
-3.02513e+01 -3.83911e+01        00000 
-2.75558e+01 -3.78565e+01        00000 
-2.49274e+01 -3.73660e+01        00000 
-2.23609e+01 -3.69195e+01        00000 
-1.98510e+01 -3.65169e+01        00000 
-1.73924e+01 -3.61583e+01        00000 
-1.49794e+01 -3.58440e+01        00000 
-1.26064e+01 -3.55740e+01        00000 
-1.02674e+01 -3.53487e+01        00000 
-7.95658e+00 -3.51682e+01        00000 
-5.66770e+00 -3.50327e+01        00000 
-3.39458e+00 -3.49422e+01        00000 
-1.13094e+00 -3.48970e+01        00000 
 1.12953e+00 -3.48970e+01        00000 
 3.39318e+00 -3.49423e+01        00000 
 5.66631e+00 -3.50327e+01        00000 
 7.95521e+00 -3.51683e+01        00000 
 1.02661e+01 -3.53489e+01        00000 
 1.26051e+01 -3.55742e+01        00000 
 1.49781e+01 -3.58442e+01        00000 
 1.73911e+01 -3.61586e+01        00000 
 1.98498e+01 -3.65172e+01        00000 
 2.23598e+01 -3.69198e+01        00000 
 2.49263e+01 -3.73664e+01        00000 
 2.75548e+01 -3.78569e+01        00000 
 3.02503e+01 -3.83916e+01        00000 
 3.30182e+01 -3.89705e+01        00000 
 3.58636e+01 -3.95942e+01        00000 
-3.86626e+01 -4.55627e+01        00000 
-3.56229e+01 -4.49686e+01        00000 
-3.26617e+01 -4.44175e+01        00000 
-2.97737e+01 -4.39090e+01        00000 
-2.69533e+01 -4.34427e+01        00000 
-2.41951e+01 -4.30187e+01        00000 
-2.14935e+01 -4.26367e+01        00000 
-1.88429e+01 -4.22967e+01        00000 
-1.62377e+01 -4.19989e+01        00000 
-1.36720e+01 -4.17434e+01        00000 
-1.11400e+01 -4.15301e+01        00000 
-8.63576e+00 -4.13594e+01        00000 
-6.15310e+00 -4.12312e+01        00000 
-3.68594e+00 -4.11457e+01        00000 
-1.22811e+00 -4.11029e+01        00000 
 1.22661e+00 -4.11030e+01        00000 
 3.68445e+00 -4.11458e+01        00000 
 6.15162e+00 -4.12313e+01        00000 
 8.63429e+00 -4.13595e+01        00000 
 1.11386e+01 -4.15304e+01        00000 
 1.36706e+01 -4.17436e+01        00000 
 1.62363e+01 -4.19992e+01        00000 
 1.88416e+01 -4.22971e+01        00000 
 2.14922e+01 -4.26371e+01        00000 
 2.41939e+01 -4.30191e+01        00000 
 2.69522e+01 -4.34433e+01        00000 
 2.97726e+01 -4.39096e+01        00000 
 3.26607e+01 -4.44182e+01        00000 
 3.56220e+01 -4.49694e+01        00000 
 3.86618e+01 -4.55635e+01        00000 
-4.13244e+01 -5.19131e+01        00000 
-3.80990e+01 -5.13491e+01        00000 
-3.49532e+01 -5.08260e+01        00000 
-3.18812e+01 -5.03437e+01        00000 
-2.88775e+01 -4.99017e+01        00000 
-2.59362e+01 -4.95000e+01        00000 
-2.30518e+01 -4.91384e+01        00000 
-2.02185e+01 -4.88169e+01        00000 
-1.74304e+01 -4.85354e+01        00000 
-1.46818e+01 -4.82939e+01        00000 
-1.19666e+01 -4.80926e+01        00000 
-9.27893e+00 -4.79314e+01        00000 
-6.61268e+00 -4.78104e+01        00000 
-3.96178e+00 -4.77298e+01        00000 
-1.32009e+00 -4.76894e+01        00000 
 1.31852e+00 -4.76895e+01        00000 
 3.96021e+00 -4.77299e+01        00000 
 6.61113e+00 -4.78106e+01        00000 
 9.27740e+00 -4.79316e+01        00000 
 1.19651e+01 -4.80928e+01        00000 
 1.46803e+01 -4.82943e+01        00000 
 1.74290e+01 -4.85358e+01        00000 
 2.02171e+01 -4.88174e+01        00000 
 2.30505e+01 -4.91390e+01        00000 
 2.59350e+01 -4.95006e+01        00000 
 2.88762e+01 -4.99024e+01        00000 
 3.18801e+01 -5.03444e+01        00000 
 3.49521e+01 -5.08269e+01        00000 
 3.80980e+01 -5.13500e+01        00000 
 4.13235e+01 -5.19141e+01        00000 
-4.38478e+01 -5.86266e+01        00000 
-4.04459e+01 -5.80929e+01        00000 
-3.71244e+01 -5.75982e+01        00000 
-3.38775e+01 -5.71422e+01        00000 
-3.06994e+01 -5.67247e+01        00000 
-2.75843e+01 -5.63453e+01        00000 
-2.45263e+01 -5.60040e+01        00000 
-2.15196e+01 -5.57006e+01        00000 
-1.85582e+01 -5.54351e+01        00000 
-1.56363e+01 -5.52075e+01        00000 
-1.27478e+01 -5.50178e+01        00000 
-9.88662e+00 -5.48659e+01        00000 
-7.04684e+00 -5.47520e+01        00000 
-4.22232e+00 -5.46761e+01        00000 
-1.40697e+00 -5.46381e+01        00000 
 1.40533e+00 -5.46382e+01        00000 
 4.22069e+00 -5.46762e+01        00000 
 7.04522e+00 -5.47522e+01        00000 
 9.88502e+00 -5.48662e+01        00000 
 1.27462e+01 -5.50181e+01        00000 
 1.56347e+01 -5.52079e+01        00000 
 1.85567e+01 -5.54356e+01        00000 
 2.15182e+01 -5.57012e+01        00000 
 2.45249e+01 -5.60046e+01        00000 
 2.75830e+01 -5.63460e+01        00000 
 3.06982e+01 -5.67255e+01        00000 
 3.38764e+01 -5.71432e+01        00000 
 3.71233e+01 -5.75993e+01        00000 
 4.04449e+01 -5.80940e+01        00000 
 4.38469e+01 -5.86278e+01        00000 
-4.62314e+01 -6.56847e+01        00000 
-4.26623e+01 -6.51817e+01        00000 
-3.91744e+01 -6.47156e+01        00000 
-3.57618e+01 -6.42861e+01        00000 
-3.24187e+01 -6.38930e+01        00000 
-2.91391e+01 -6.35359e+01        00000 
-2.59170e+01 -6.32148e+01        00000 
-2.27464e+01 -6.29294e+01        00000 
-1.96214e+01 -6.26798e+01        00000 
-1.65359e+01 -6.24658e+01        00000 
-1.34839e+01 -6.22874e+01        00000 
-1.04592e+01 -6.21447e+01        00000 
-7.45590e+00 -6.20376e+01        00000 
-4.46779e+00 -6.19662e+01        00000 
-1.48881e+00 -6.19306e+01        00000 
 1.48712e+00 -6.19306e+01        00000 
 4.46611e+00 -6.19664e+01        00000 
 7.45424e+00 -6.20378e+01        00000 
 1.04576e+01 -6.21450e+01        00000 
 1.34823e+01 -6.22878e+01        00000 
 1.65344e+01 -6.24663e+01        00000 
 1.96199e+01 -6.26804e+01        00000 
 2.27450e+01 -6.29301e+01        00000 
 2.59156e+01 -6.32156e+01        00000 
 2.91377e+01 -6.35368e+01        00000 
 3.24174e+01 -6.38940e+01        00000 
 3.57607e+01 -6.42872e+01        00000 
 3.91733e+01 -6.47168e+01        00000 
 4.26613e+01 -6.51830e+01        00000 
 4.62305e+01 -6.56861e+01        00000 
-4.84738e+01 -7.30688e+01        00000 
-4.47469e+01 -7.25967e+01        00000 
-4.11020e+01 -7.21595e+01        00000 
-3.75333e+01 -7.17568e+01        00000 
-3.40347e+01 -7.13881e+01        00000 
-3.06002e+01 -7.10534e+01        00000 
-2.72238e+01 -7.07523e+01        00000 
-2.38992e+01 -7.04848e+01        00000 
-2.06204e+01 -7.02507e+01        00000 
-1.73812e+01 -7.00500e+01        00000 
-1.41755e+01 -6.98827e+01        00000 
-1.09972e+01 -6.97489e+01        00000 
-7.84020e+00 -6.96484e+01        00000 
-4.69839e+00 -6.95814e+01        00000 
-1.56569e+00 -6.95480e+01        00000 
 1.56397e+00 -6.95480e+01        00000 
 4.69668e+00 -6.95816e+01        00000 
 7.83851e+00 -6.96487e+01        00000 
 1.09955e+01 -6.97492e+01        00000 
 1.41739e+01 -6.98832e+01        00000 
 1.73796e+01 -7.00506e+01        00000 
 2.06188e+01 -7.02514e+01        00000 
 2.38977e+01 -7.04856e+01        00000 
 2.72223e+01 -7.07533e+01        00000 
 3.05989e+01 -7.10544e+01        00000 
 3.40334e+01 -7.13893e+01        00000 
 3.75321e+01 -7.17580e+01        00000 
 4.11009e+01 -7.21609e+01        00000 
 4.47458e+01 -7.25982e+01        00000 
 4.84729e+01 -7.30704e+01        00000 
-5.05735e+01 -8.07601e+01        00000 
-4.66981e+01 -8.03194e+01        00000 
-4.29059e+01 -7.99113e+01        00000 
-3.91909e+01 -7.95355e+01        00000 
-3.55467e+01 -7.91915e+01        00000 
-3.19674e+01 -7.88791e+01        00000 
-2.84465e+01 -7.85979e+01        00000 
-2.49779e+01 -7.83480e+01        00000 
-2.15553e+01 -7.81292e+01        00000 
-1.81724e+01 -7.79415e+01        00000 
-1.48230e+01 -7.77849e+01        00000 
-1.15010e+01 -7.76595e+01        00000 
-8.20011e+00 -7.75654e+01        00000 
-4.91438e+00 -7.75026e+01        00000 
-1.63770e+00 -7.74712e+01        00000 
 1.63597e+00 -7.74713e+01        00000 
 4.91265e+00 -7.75028e+01        00000 