<?xml version="1.0" encoding="utf-8"?>
<VTKFile byte_order="LittleEndian" type="UnstructuredGrid" version="0.1">
   <UnstructuredGrid>
      <Piece NumberOfCells="1444" NumberOfPoints="761">
         <Points>
            <DataArray Name="Points" NumberOfComponents="3" format="ascii" type="Float32">
-1.0000 -1.0000 0.0000
-1.0000 -0.8947 0.0000
-1.0000 -0.7895 0.0000
-1.0000 -0.6842 0.0000
-1.0000 -0.5789 0.0000
-1.0000 -0.4737 0.0000
-1.0000 -0.3684 0.0000
-1.0000 -0.2632 0.0000
-1.0000 -0.1579 0.0000
-1.0000 -0.0526 0.0000
-1.0000 0.0526 0.0000
-1.0000 0.1579 0.0000
-1.0000 0.2632 0.0000
-1.0000 0.3684 0.0000
-1.0000 0.4737 0.0000
-1.0000 0.5789 0.0000
-1.0000 0.6842 0.0000
-1.0000 0.7895 0.0000
-1.0000 0.8947 0.0000
-1.0000 1.0000 0.0000
-0.8947 -1.0000 0.0000
-0.8947 -0.8947 0.0000
-0.8947 -0.7895 0.0000
-0.8947 -0.6842 0.0000
-0.8947 -0.5789 0.0000
-0.8947 -0.4737 0.0000
-0.8947 -0.3684 0.0000
-0.8947 -0.2632 0.0000
-0.8947 -0.1579 0.0000
-0.8947 -0.0526 0.0000
-0.8947 0.0526 0.0000
-0.8947 0.1579 0.0000
-0.8947 0.2632 0.0000
-0.8947 0.3684 0.0000
-0.8947 0.4737 0.0000
-0.8947 0.5789 0.0000
-0.8947 0.6842 0.0000
-0.8947 0.7895 0.0000
-0.8947 0.8947 0.0000
-0.8947 1.0000 0.0000
-0.7895 -1.0000 0.0000
-0.7895 -0.8947 0.0000
-0.7895 -0.7895 0.0000
-0.7895 -0.6842 0.0000
-0.7895 -0.5789 0.0000
-0.7895 -0.4737 0.0000
-0.7895 -0.3684 0.0000
-0.7895 -0.2632 0.0000
-0.7895 -0.1579 0.0000
-0.7895 -0.0526 0.0000
-0.7895 0.0526 0.0000
-0.7895 0.1579 0.0000
-0.7895 0.2632 0.0000
-0.7895 0.3684 0.0000
-0.7895 0.4737 0.0000
-0.7895 0.5789 0.0000
-0.7895 0.6842 0.0000
-0.7895 0.7895 0.0000
-0.7895 0.8947 0.0000
-0.7895 1.0000 0.0000
-0.6842 -1.0000 0.0000
-0.6842 -0.8947 0.0000
-0.6842 -0.7895 0.0000
-0.6842 -0.6842 0.0000
-0.6842 -0.5789 0.0000
-0.6842 -0.4737 0.0000
-0.6842 -0.3684 0.0000
-0.6842 -0.2632 0.0000
-0.6842 -0.1579 0.0000
-0.6842 -0.0526 0.0000
-0.6842 0.0526 0.0000
-0.6842 0.1579 0.0000
-0.6842 0.2632 0.0000
-0.6842 0.3684 0.0000
-0.6842 0.4737 0.0000
-0.6842 0.5789 0.0000
-0.6842 0.6842 0.0000
-0.6842 0.7895 0.0000
-0.6842 0.8947 0.0000
-0.6842 1.0000 0.0000
-0.5789 -1.0000 0.0000
-0.5789 -0.8947 0.0000
-0.5789 -0.7895 0.0000
-0.5789 -0.6842 0.0000
-0.5789 -0.5789 0.0000
-0.5789 -0.4737 0.0000
-0.5789 -0.3684 0.0000
-0.5789 -0.2632 0.0000
-0.5789 -0.1579 0.0000
-0.5789 -0.0526 0.0000
-0.5789 0.0526 0.0000
-0.5789 0.1579 0.0000
-0.5789 0.2632 0.0000
-0.5789 0.3684 0.0000
-0.5789 0.4737 0.0000
-0.5789 0.5789 0.0000
-0.5789 0.6842 0.0000
-0.5789 0.7895 0.0000
-0.5789 0.8947 0.0000
-0.5789 1.0000 0.0000
-0.4737 -1.0000 0.0000
-0.4737 -0.8947 0.0000
-0.4737 -0.7895 0.0000
-0.4737 -0.6842 0.0000
-0.4737 -0.5789 0.0000
-0.4737 -0.4737 0.0000
-0.4737 -0.3684 0.0000
-0.4737 -0.2632 0.0000
-0.4737 -0.1579 0.0000
-0.4737 -0.0526 0.0000
-0.4737 0.0526 0.0000
-0.4737 0.1579 0.0000
-0.4737 0.2632 0.0000
-0.4737 0.3684 0.0000
-0.4737 0.4737 0.0000
-0.4737 0.5789 0.0000
-0.4737 0.6842 0.0000
-0.4737 0.7895 0.0000
-0.4737 0.8947 0.0000
-0.4737 1.0000 0.0000
-0.3684 -1.0000 0.0000
-0.3684 -0.8947 0.0000
-0.3684 -0.7895 0.0000
-0.3684 -0.6842 0.0000
-0.3684 -0.5789 0.0000
-0.3684 -0.4737 0.0000
-0.3684 -0.3684 0.0000
-0.3684 -0.2632 0.0000
-0.3684 -0.1579 0.0000
-0.3684 -0.0526 0.0000
-0.3684 0.0526 0.0000
-0.3684 0.1579 0.0000
-0.3684 0.2632 0.0000
-0.3684 0.3684 0.0000
-0.3684 0.4737 0.0000
-0.3684 0.5789 0.0000
-0.3684 0.6842 0.0000
-0.3684 0.7895 0.0000
-0.3684 0.8947 0.0000
-0.3684 1.0000 0.0000
-0.2632 -1.0000 0.0000
-0.2632 -0.8947 0.0000
-0.2632 -0.7895 0.0000
-0.2632 -0.6842 0.0000
-0.2632 -0.5789 0.0000
-0.2632 -0.4737 0.0000
-0.2632 -0.3684 0.0000
-0.2632 -0.2632 0.0000
-0.2632 -0.1579 0.0000
-0.2632 -0.0526 0.0000
-0.2632 0.0526 0.0000
-0.2632 0.1579 0.0000
-0.2632 0.2632 0.0000
-0.2632 0.3684 0.0000
-0.2632 0.4737 0.0000
-0.2632 0.5789 0.0000
-0.2632 0.6842 0.0000
-0.2632 0.7895 0.0000
-0.2632 0.8947 0.0000
-0.2632 1.0000 0.0000
-0.1579 -1.0000 0.0000
-0.1579 -0.8947 0.0000
-0.1579 -0.7895 0.0000
-0.1579 -0.6842 0.0000
-0.1579 -0.5789 0.0000
-0.1579 -0.4737 0.0000
-0.1579 -0.3684 0.0000
-0.1579 -0.2632 0.0000
-0.1579 -0.1579 0.0000
-0.1579 -0.0526 0.0000
-0.1579 0.0526 0.0000
-0.1579 0.1579 0.0000
-0.1579 0.2632 0.0000
-0.1579 0.3684 0.0000
-0.1579 0.4737 0.0000
-0.1579 0.5789 0.0000
-0.1579 0.6842 0.0000
-0.1579 0.7895 0.0000
-0.1579 0.8947 0.0000
-0.1579 1.0000 0.0000
-0.0526 -1.0000 0.0000
-0.0526 -0.8947 0.0000
-0.0526 -0.7895 0.0000
-0.0526 -0.6842 0.0000
-0.0526 -0.5789 0.0000
-0.0526 -0.4737 0.0000
-0.0526 -0.3684 0.0000
-0.0526 -0.2632 0.0000
-0.0526 -0.1579 0.0000
-0.0526 -0.0526 0.0000
-0.0526 0.0526 0.0000
-0.0526 0.1579 0.0000
-0.0526 0.2632 0.0000
-0.0526 0.3684 0.0000
-0.0526 0.4737 0.0000
-0.0526 0.5789 0.0000
-0.0526 0.6842 0.0000
-0.0526 0.7895 0.0000
-0.0526 0.8947 0.0000
-0.0526 1.0000 0.0000
0.0526 -1.0000 0.0000
0.0526 -0.8947 0.0000
0.0526 -0.7895 0.0000
0.0526 -0.6842 0.0000
0.0526 -0.5789 0.0000
0.0526 -0.4737 0.0000
0.0526 -0.3684 0.0000
0.0526 -0.2632 0.0000
0.0526 -0.1579 0.0000
0.0526 -0.0526 0.0000
0.0526 0.0526 0.0000
0.0526 0.1579 0.0000
0.0526 0.2632 0.0000
0.0526 0.3684 0.0000
0.0526 0.4737 0.0000
0.0526 0.5789 0.0000
0.0526 0.6842 0.0000
0.0526 0.7895 0.0000
0.0526 0.8947 0.0000
0.0526 1.0000 0.0000
0.1579 -1.0000 0.0000
0.1579 -0.8947 0.0000
0.1579 -0.7895 0.0000
0.1579 -0.6842 0.0000
0.1579 -0.5789 0.0000
0.1579 -0.4737 0.0000
0.1579 -0.3684 0.0000
0.1579 -0.2632 0.0000
0.1579 -0.1579 0.0000
0.1579 -0.0526 0.0000
0.1579 0.0526 0.0000
0.1579 0.1579 0.0000
0.1579 0.2632 0.0000
0.1579 0.3684 0.0000
0.1579 0.4737 0.0000
0.1579 0.5789 0.0000
0.1579 0.6842 0.0000
0.1579 0.7895 0.0000
0.1579 0.8947 0.0000
0.1579 1.0000 0.0000
0.2632 -1.0000 0.0000
0.2632 -0.8947 0.0000
0.2632 -0.7895 0.0000
0.2632 -0.6842 0.0000
0.2632 -0.5789 0.0000
0.2632 -0.4737 0.0000
0.2632 -0.3684 0.0000
0.2632 -0.2632 0.0000
0.2632 -0.1579 0.0000
0.2632 -0.0526 0.0000
0.2632 0.0526 0.0000
0.2632 0.1579 0.0000
0.2632 0.2632 0.0000
0.2632 0.3684 0.0000
0.2632 0.4737 0.0000
0.2632 0.5789 0.0000
0.2632 0.6842 0.0000
0.2632 0.7895 0.0000
0.2632 0.8947 0.0000
0.2632 1.0000 0.0000
0.3684 -1.0000 0.0000
0.3684 -0.8947 0.0000
0.3684 -0.7895 0.0000
0.3684 -0.6842 0.0000
0.3684 -0.5789 0.0000
0.3684 -0.4737 0.0000
0.3684 -0.3684 0.0000
0.3684 -0.2632 0.0000
0.3684 -0.1579 0.0000
0.3684 -0.0526 0.0000
0.3684 0.0526 0.0000
0.3684 0.1579 0.0000
0.3684 0.2632 0.0000
0.3684 0.3684 0.0000
0.3684 0.4737 0.0000
0.3684 0.5789 0.0000
0.3684 0.6842 0.0000
0.3684 0.7895 0.0000
0.3684 0.8947 0.0000
0.3684 1.0000 0.0000
0.4737 -1.0000 0.0000
0.4737 -0.8947 0.0000
0.4737 -0.7895 0.0000
0.4737 -0.6842 0.0000
0.4737 -0.5789 0.0000
0.4737 -0.4737 0.0000
0.4737 -0.3684 0.0000
0.4737 -0.2632 0.0000
0.4737 -0.1579 0.0000
0.4737 -0.0526 0.0000
0.4737 0.0526 0.0000
0.4737 0.1579 0.0000
0.4737 0.2632 0.0000
0.4737 0.3684 0.0000
0.4737 0.4737 0.0000
0.4737 0.5789 0.0000
0.4737 0.6842 0.0000
0.4737 0.7895 0.0000
0.4737 0.8947 0.0000
0.4737 1.0000 0.0000
0.5789 -1.0000 0.0000
0.5789 -0.8947 0.0000
0.5789 -0.7895 0.0000
0.5789 -0.6842 0.0000
0.5789 -0.5789 0.0000
0.5789 -0.4737 0.0000
0.5789 -0.3684 0.0000
0.5789 -0.2632 0.0000
0.5789 -0.1579 0.0000
0.5789 -0.0526 0.0000
0.5789 0.0526 0.0000
0.5789 0.1579 0.0000
0.5789 0.2632 0.0000
0.5789 0.3684 0.0000
0.5789 0.4737 0.0000
0.5789 0.5789 0.0000
0.5789 0.6842 0.0000
0.5789 0.7895 0.0000
0.5789 0.8947 0.0000
0.5789 1.0000 0.0000
0.6842 -1.0000 0.0000
0.6842 -0.8947 0.0000
0.6842 -0.7895 0.0000
0.6842 -0.6842 0.0000
0.6842 -0.5789 0.0000
0.6842 -0.4737 0.0000
0.6842 -0.3684 0.0000
0.6842 -0.2632 0.0000
0.6842 -0.1579 0.0000
0.6842 -0.0526 0.0000
0.6842 0.0526 0.0000
0.6842 0.1579 0.0000
0.6842 0.2632 0.0000
0.6842 0.3684 0.0000
0.6842 0.4737 0.0000
0.6842 0.5789 0.0000
0.6842 0.6842 0.0000
0.6842 0.7895 0.0000
0.6842 0.8947 0.0000
0.6842 1.0000 0.0000
0.7895 -1.0000 0.0000
0.7895 -0.8947 0.0000
0.7895 -0.7895 0.0000
0.7895 -0.6842 0.0000
0.7895 -0.5789 0.0000
0.7895 -0.4737 0.0000
0.7895 -0.3684 0.0000
0.7895 -0.2632 0.0000
0.7895 -0.1579 0.0000
0.7895 -0.0526 0.0000
0.7895 0.0526 0.0000
0.7895 0.1579 0.0000
0.7895 0.2632 0.0000
0.7895 0.3684 0.0000
0.7895 0.4737 0.0000
0.7895 0.5789 0.0000
0.7895 0.6842 0.0000
0.7895 0.7895 0.0000
0.7895 0.8947 0.0000
0.7895 1.0000 0.0000
0.8947 -1.0000 0.0000
0.8947 -0.8947 0.0000
0.8947 -0.7895 0.0000
0.8947 -0.6842 0.0000
0.8947 -0.5789 0.0000
0.8947 -0.4737 0.0000
0.8947 -0.3684 0.0000
0.8947 -0.2632 0.0000
0.8947 -0.1579 0.0000
0.8947 -0.0526 0.0000
0.8947 0.0526 0.0000
0.8947 0.1579 0.0000
0.8947 0.2632 0.0000
0.8947 0.3684 0.0000
0.8947 0.4737 0.0000
0.8947 0.5789 0.0000
0.8947 0.6842 0.0000
0.8947 0.7895 0.0000
0.8947 0.8947 0.0000
0.8947 1.0000 0.0000
1.0000 -1.0000 0.0000
1.0000 -0.8947 0.0000
1.0000 -0.7895 0.0000
1.0000 -0.6842 0.0000
1.0000 -0.5789 0.0000
1.0000 -0.4737 0.0000
1.0000 -0.3684 0.0000
1.0000 -0.2632 0.0000
1.0000 -0.1579 0.0000
1.0000 -0.0526 0.0000
1.0000 0.0526 0.0000
1.0000 0.1579 0.0000
1.0000 0.2632 0.0000
1.0000 0.3684 0.0000
1.0000 0.4737 0.0000
1.0000 0.5789 0.0000
1.0000 0.6842 0.0000
1.0000 0.7895 0.0000
1.0000 0.8947 0.0000
1.0000 1.0000 0.0000
-0.9474 -0.9474 0.0000
-0.9474 -0.8421 0.0000
-0.9474 -0.7368 0.0000
-0.9474 -0.6316 0.0000
-0.9474 -0.5263 0.0000
-0.9474 -0.4211 0.0000
-0.9474 -0.3158 0.0000
-0.9474 -0.2105 0.0000
-0.9474 -0.1053 0.0000
-0.9474 0.0000 0.0000
-0.9474 0.1053 0.0000
-0.9474 0.2105 0.0000
-0.9474 0.3158 0.0000
-0.9474 0.4211 0.0000
-0.9474 0.5263 0.0000
-0.9474 0.6316 0.0000
-0.9474 0.7368 0.0000
-0.9474 0.8421 0.0000
-0.9474 0.9474 0.0000
-0.8421 -0.9474 0.0000
-0.8421 -0.8421 0.0000
-0.8421 -0.7368 0.0000
-0.8421 -0.6316 0.0000
-0.8421 -0.5263 0.0000
-0.8421 -0.4211 0.0000
-0.8421 -0.3158 0.0000
-0.8421 -0.2105 0.0000
-0.8421 -0.1053 0.0000
-0.8421 0.0000 0.0000
-0.8421 0.1053 0.0000
-0.8421 0.2105 0.0000
-0.8421 0.3158 0.0000
-0.8421 0.4211 0.0000
-0.8421 0.5263 0.0000
-0.8421 0.6316 0.0000
-0.8421 0.7368 0.0000
-0.8421 0.8421 0.0000
-0.8421 0.9474 0.0000
-0.7368 -0.9474 0.0000
-0.7368 -0.8421 0.0000
[...]
         <PointData>
            <DataArray Name="fValues" NumberOfComponents="3" format="ascii" type="Float64">
-1.92794e-03  2.31757e-04        00000 
-4.73546e-03  2.98414e-04        00000 
-4.70437e-03  1.57698e-03        00000 
-3.32455e-03  2.87415e-03        00000 
-1.72872e-03  3.30798e-03        00000 
 1.83881e-03 -3.20614e-04        00000 
 6.86854e-04 -2.06611e-03        00000 
-6.82383e-05 -6.35607e-04        00000 
-1.61803e-03  3.36029e-03        00000 
-1.20928e-03  2.99904e-03        00000 
-2.75024e-04  2.96805e-03        00000 
 2.84048e-04  1.88217e-03        00000 
 4.30433e-04  1.15494e-03        00000 
-4.59779e-04  2.05405e-03        00000 
-2.41818e-03  4.92314e-03        00000 
-2.64287e-03  4.14382e-03        00000 
-3.40610e-03  3.47374e-03        00000 
-4.33295e-03  2.92010e-03        00000 
-3.59282e-03  4.55778e-03        00000 
-4.62031e-03  4.32871e-03        00000 
-9.75867e-04  5.36119e-02        00000 
-5.44976e-03  4.91921e-02        00000 
-9.92323e-03  4.37638e-02        00000 
-1.41568e-02  4.09732e-02        00000 
-1.39761e-02  4.05563e-02        00000 
-1.19416e-02  3.41273e-02        00000 
-1.74136e-02  3.60202e-02        00000 
-1.90404e-02  3.19618e-02        00000 
-1.83317e-02  2.92108e-02        00000 
-1.66640e-02  2.68142e-02        00000 
-1.58639e-02  2.40549e-02        00000 
-1.42418e-02  2.08214e-02        00000 
-1.33150e-02  1.86027e-02        00000 
-1.25111e-02  2.02353e-02        00000 
-1.20919e-02  1.66436e-02        00000 
-9.31595e-03  1.16216e-02        00000 
-9.46457e-03  9.74230e-03        00000 
-7.89909e-03  1.16695e-02        00000 
-5.60525e-03  6.21994e-03        00000 
-2.93020e-03  3.31054e-03        00000 
-2.49952e-03  1.09194e-01        00000 
-5.85625e-03  9.46897e-02        00000 
-1.44205e-02  8.73427e-02        00000 
-1.85273e-02  8.25942e-02        00000 
-2.36269e-02  7.62411e-02        00000 
-2.82517e-02  6.88235e-02        00000 
-3.42732e-02  6.35101e-02        00000 
-3.71789e-02  5.81042e-02        00000 
-3.42417e-02  5.50114e-02        00000 
-3.03865e-02  4.88904e-02        00000 
-2.70200e-02  4.30070e-02        00000 
-2.40510e-02  3.73722e-02        00000 
-2.06351e-02  3.54647e-02        00000 
-1.83409e-02  3.35010e-02        00000 
-1.54968e-02  2.83175e-02        00000 
-1.25596e-02  2.33728e-02        00000 
-9.46227e-03  1.66544e-02        00000 
-8.11914e-03  1.64794e-02        00000 
-7.67346e-03  2.97141e-03        00000 
-1.77305e-03  1.86601e-03        00000 
 1.40142e-04  1.59202e-01        00000 
-8.29913e-03  1.46792e-01        00000 
-1.81532e-02  1.36993e-01        00000 
-2.30697e-02  1.30361e-01        00000 
-3.06461e-02  1.21204e-01        00000 
-4.00524e-02  1.09899e-01        00000 
-4.85304e-02  9.82889e-02        00000 
-5.15874e-02  8.97821e-02        00000 
-4.85892e-02  7.91460e-02        00000 
-4.40972e-02  6.94916e-02        00000 
-3.83812e-02  6.27352e-02        00000 
-2.91975e-02  5.52988e-02        00000 
-2.49463e-02  4.87698e-02        00000 
-2.35889e-02  4.42580e-02        00000 
-2.09244e-02  3.98921e-02        00000 
-1.86576e-02  3.22216e-02        00000 
-1.60041e-02  2.40027e-02        00000 
-1.28329e-02  1.86651e-02        00000 
-8.69126e-03  9.12577e-03        00000 
-1.07297e-03  4.48179e-03        00000 
 2.18560e-03  2.13865e-01        00000 
-1.32372e-02  1.99163e-01        00000 
-2.39076e-02  1.87008e-01        00000 
-2.80636e-02  1.76694e-01        00000 
-3.71508e-02  1.63543e-01        00000 
-5.09598e-02  1.52946e-01        00000 
-5.98763e-02  1.38592e-01        00000 
-6.18208e-02  1.21940e-01        00000 
-6.14234e-02  1.06218e-01        00000 
-5.57013e-02  9.37352e-02        00000 
-4.59428e-02  8.18332e-02        00000 
-3.40137e-02  6.89107e-02        00000 
-2.66190e-02  5.79821e-02        00000 
-2.44983e-02  5.07486e-02        00000 
-2.21013e-02  4.35228e-02        00000 
-2.03543e-02  3.71937e-02        00000 
-2.03192e-02  2.99688e-02        00000 
-1.43047e-02  2.00881e-02        00000 
-8.12069e-03  1.01587e-02        00000 
-3.15235e-03  3.09165e-03        00000 
 1.70755e-03  2.67999e-01        00000 
-1.31987e-02  2.51413e-01        00000 
-2.40053e-02  2.39052e-01        00000 
-3.02326e-02  2.25817e-01        00000 
-4.30789e-02  2.07946e-01        00000 
-5.83385e-02  1.97824e-01        00000 
-6.63737e-02  1.78437e-01        00000 
-6.84426e-02  1.58696e-01        00000 
-6.69546e-02  1.35519e-01        00000 
-6.05403e-02  1.13169e-01        00000 
-4.84067e-02  9.30615e-02        00000 
-3.43620e-02  7.55558e-02        00000 
-2.78782e-02  6.80259e-02        00000 
-2.38342e-02  5.73871e-02        00000 
-2.10671e-02  4.98859e-02        00000 
-2.05591e-02  4.22743e-02        00000 
-2.06902e-02  3.27079e-02        00000 
-1.58048e-02  1.92766e-02        00000 
-8.25241e-03  8.23191e-03        00000 
-1.70949e-03  2.14775e-03        00000 
 3.90151e-03  3.23566e-01        00000 
-1.39199e-02  3.02882e-01        00000 
-2.38786e-02  2.88390e-01        00000 
-3.25202e-02  2.76585e-01        00000 
-4.85945e-02  2.57261e-01        00000 
-6.44090e-02  2.40940e-01        00000 
-7.32101e-02  2.22961e-01        00000 
-7.66119e-02  2.01300e-01        00000 
-7.36080e-02  1.71035e-01        00000 
-6.00316e-02  1.32664e-01        00000 
-4.48429e-02  1.00755e-01        00000 
-2.94838e-02  7.81040e-02        00000 
-2.42760e-02  6.99313e-02        00000 
-2.45060e-02  6.39068e-02        00000 
-2.12634e-02  5.32699e-02        00000 
-2.25500e-02  4.44436e-02        00000 
-2.32193e-02  3.47455e-02        00000 
-1.67344e-02  2.28137e-02        00000 
-1.09636e-02  1.23057e-02        00000 
-2.16184e-03  2.63102e-03        00000 
 3.74875e-03  3.74294e-01        00000 
-1.42975e-02  3.56433e-01        00000 
-2.64024e-02  3.40701e-01        00000 
-3.57242e-02  3.29017e-01        00000 
-5.17297e-02  3.10215e-01        00000 
-6.89611e-02  3.00574e-01        00000 
-7.97165e-02  2.77129e-01        00000 
-8.64090e-02  2.50357e-01        00000 
-8.10573e-02  2.13262e-01        00000 
-6.24580e-02  1.61137e-01        00000 
-4.34988e-02  1.13467e-01        00000 
-2.91063e-02  7.66358e-02        00000 
-2.36552e-02  6.50651e-02        00000 
-2.41656e-02  5.80506e-02        00000 
-2.61060e-02  5.38525e-02        00000 
-2.98882e-02  4.88033e-02        00000 
-2.82146e-02  3.98083e-02        00000 
-1.83966e-02  2.37035e-02        00000 
-1.48229e-02  1.51044e-02        00000 
-1.63715e-03  1.79512e-03        00000 
 1.35278e-03  4.25393e-01        00000 
-1.79608e-02  4.12645e-01        00000 
-3.07328e-02  3.93116e-01        00000 
-3.83413e-02  3.79255e-01        00000 
-5.34860e-02  3.60105e-01        00000 
-7.52484e-02  3.54909e-01        00000 
-9.33099e-02  3.43493e-01        00000 
-1.02157e-01  3.11977e-01        00000 
-9.66151e-02  2.66658e-01        00000 
-7.97041e-02  2.08240e-01        00000 
-5.76075e-02  1.46165e-01        00000 
-3.67930e-02  9.20069e-02        00000 
-2.55585e-02  5.98698e-02        00000 
-2.55717e-02  5.22439e-02        00000 
-3.32245e-02  5.54899e-02        00000 
-3.83132e-02  5.45910e-02        00000 
-3.51096e-02  4.40073e-02        00000 
-2.44041e-02  2.81986e-02        00000 
-1.56320e-02  1.65765e-02        00000 
-1.21180e-03  9.78917e-04        00000 
-1.46749e-04  4.72167e-01        00000 
-1.85255e-02  4.65366e-01        00000 
-3.66540e-02  4.46326e-01        00000 
-4.62867e-02  4.32462e-01        00000 
-6.25760e-02  4.14354e-01        00000 
-8.68493e-02  4.10832e-01        00000 
-1.08368e-01  4.07501e-01        00000 
-1.19253e-01  3.85010e-01        00000 
-1.12005e-01  3.33404e-01        00000 
-9.38452e-02  2.67187e-01        00000 
-6.80821e-02  1.91265e-01        00000 
-4.66107e-02  1.15494e-01        00000 
-3.08997e-02  6.69621e-02        00000 
-3.56423e-02  5.89911e-02        00000 
-4.31672e-02  6.29497e-02        00000 
-4.50546e-02  6.08727e-02        00000 
-4.00860e-02  5.07664e-02        00000 
-3.22287e-02  3.45873e-02        00000 
-1.91561e-02  1.96686e-02        00000 
-1.45585e-03  3.90019e-03        00000 
 3.21194e-04  5.26827e-01        00000 
-1.83504e-02  5.14343e-01        00000 
-3.83145e-02  4.95021e-01        00000 
-5.57781e-02  4.81040e-01        00000 
-7.51309e-02  4.70788e-01        00000 
-9.35001e-02  4.59605e-01        00000 
-1.09577e-01  4.64601e-01        00000 
-1.20640e-01  4.49892e-01        00000 
-1.15945e-01  3.96852e-01        00000 
-1.00091e-01  3.21227e-01        00000 
-7.30913e-02  2.42003e-01        00000 
-4.87291e-02  1.59641e-01        00000 
-3.45369e-02  9.29879e-02        00000 
-4.36929e-02  7.89932e-02        00000 
-5.30286e-02  7.76624e-02        00000 
-5.38412e-02  6.71070e-02        00000 
-5.08139e-02  5.97745e-02        00000 
-3.51573e-02  4.03775e-02        00000 
-1.91302e-02  2.34010e-02        00000 
 1.30796e-03 -1.58775e-04        00000 
 4.72728e-05  5.80889e-01        00000 
-1.95804e-02  5.62326e-01        00000 
-4.23708e-02  5.39948e-01        00000 
-6.48661e-02  5.26900e-01        00000 
-8.04937e-02  5.08858e-01        00000 
-9.69027e-02  5.01729e-01        00000 
-1.11718e-01  5.00947e-01        00000 
-1.19352e-01  4.92700e-01        00000 
-1.11844e-01  4.53272e-01        00000 
-9.17963e-02  3.80174e-01        00000 
-7.17839e-02  2.88680e-01        00000 
-4.74433e-02  1.94232e-01        00000 
-4.08889e-02  1.38616e-01        00000 
-4.93992e-02  1.15357e-01        00000 
-5.69169e-02  1.04894e-01        00000 
-5.77673e-02  8.28946e-02        00000 
-5.34159e-02  6.95186e-02        00000 
-3.72179e-02  4.73296e-02        00000 
-2.09669e-02  2.62404e-02        00000 
 3.01965e-03 -6.00884e-04        00000 
-3.25556e-03  6.34035e-01        00000 
-2.32091e-02  6.13398e-01        00000 
-4.74634e-02  5.88334e-01        00000 
-6.61087e-02  5.65199e-01        00000 
-8.26774e-02  5.45999e-01        00000 
-9.85592e-02  5.31209e-01        00000 
-1.09553e-01  5.18770e-01        00000 
-1.13366e-01  5.09821e-01        00000 
-1.02858e-01  4.79420e-01        00000 
-8.10836e-02  4.16045e-01        00000 
-6.33336e-02  3.29473e-01        00000 
-4.95843e-02  2.42928e-01        00000 
-4.66078e-02  1.87973e-01        00000 
-5.46304e-02  1.59435e-01        00000 
-6.22639e-02  1.30011e-01        00000 
-5.90050e-02  1.05768e-01        00000 
-5.35481e-02  8.39259e-02        00000 
-4.06752e-02  5.37764e-02        00000 
-2.31723e-02  2.87881e-02        00000 
 3.75022e-03  9.61947e-04        00000 
-2.48536e-03  6.88482e-01        00000 
-2.55055e-02  6.61564e-01        00000 
-4.89923e-02  6.31704e-01        00000 
-6.32525e-02  6.03143e-01        00000 
-7.95227e-02  5.76969e-01        00000 
-9.25545e-02  5.50257e-01        00000 
-1.01474e-01  5.29727e-01        00000 
-1.00289e-01  5.11780e-01        00000 
-8.64850e-02  4.76773e-01        00000 
-6.85876e-02  4.19199e-01        00000 
-5.42603e-02  3.55997e-01        00000 
-4.58960e-02  2.87707e-01        00000 
-4.78532e-02  2.31532e-01        00000 
-5.52787e-02  1.92104e-01        00000 
-6.05270e-02  1.58318e-01        00000 
-5.83144e-02  1.24737e-01        00000 
-5.16537e-02  9.48371e-02        00000 
-4.02313e-02  6.32085e-02        00000 
-2.33142e-02  2.92002e-02        00000 
 2.58218e-03  3.53861e-03        00000 
-6.06311e-04  7.40503e-01        00000 
-2.62580e-02  7.09872e-01        00000 
-4.56354e-02  6.77500e-01        00000 
-5.99288e-02  6.42730e-01        00000 
-7.12808e-02  6.13567e-01        00000 
-8.28803e-02  5.77356e-01        00000 
-8.80935e-02  5.47986e-01        00000 
-8.19231e-02  5.16398e-01        00000 
-7.07920e-02  4.75292e-01        00000 
-5.79067e-02  4.28689e-01        00000 
-4.62570e-02  3.72511e-01        00000 
-4.00522e-02  3.17703e-01        00000 
-4.23755e-02  2.65908e-01        00000 
-5.03956e-02  2.25376e-01        00000 
-5.49628e-02  1.86297e-01        00000 
-5.44073e-02  1.44008e-01        00000 
-4.80574e-02  1.04338e-01        00000 
-3.70085e-02  6.95353e-02        00000 
-2.06111e-02  3.44654e-02        00000 
 1.51564e-03  5.70604e-04        00000 
-9.36209e-04  7.94454e-01        00000 
-2.27898e-02  7.60581e-01        00000 
-3.94381e-02  7.22970e-01        00000 
-5.32613e-02  6.86957e-01        00000 
-6.25733e-02  6.48856e-01        00000 
-6.71563e-02  6.09392e-01        00000 
-6.81878e-02  5.72088e-01        00000 
-6.29911e-02  5.29915e-01        00000 
-5.51124e-02  4.87450e-01        00000 
-4.69674e-02  4.43141e-01        00000 
-3.74550e-02  3.92969e-01        00000 
-3.35730e-02  3.45835e-01        00000 
-3.61006e-02  2.98235e-01        00000 
-4.39292e-02  2.53617e-01        00000 
-4.62244e-02  2.09886e-01        00000 
-4.54696e-02  1.59565e-01        00000 
-4.29359e-02  1.13546e-01        00000 
-3.37973e-02  8.05521e-02        00000 
-2.03662e-02  4.41901e-02        00000 
-1.72410e-03  3.27591e-03        00000 
-6.07644e-04  8.43204e-01        00000 
-2.16240e-02  8.05680e-01        00000 
-3.46633e-02  7.68475e-01        00000 
-4.13961e-02  7.26487e-01        00000 
-4.96011e-02  6.84377e-01        00000 
-4.98046e-02  6.42233e-01        00000 
-4.76106e-02  5.99644e-01        00000 
-4.54218e-02  5.49912e-01        00000 
-4.22007e-02  5.00554e-01        00000 
-3.47323e-02  4.58883e-01        00000 
-2.80426e-02  4.14896e-01        00000 
-2.78853e-02  3.67618e-01        00000 
-3.14854e-02  3.18754e-01        00000 
-3.54874e-02  2.71171e-01        00000 
-3.70048e-02  2.25053e-01        00000 
-3.64269e-02  1.75976e-01        00000 
-3.33418e-02  1.26407e-01        00000 
-2.47039e-02  8.25118e-02        00000 
-1.40947e-02  4.06136e-02        00000 
 1.97441e-03 -1.44891e-03        00000 
-3.50516e-03  8.96362e-01        00000 
-1.74350e-02  8.56083e-01        00000 
-2.50340e-02  8.14178e-01        00000 
-2.88040e-02  7.67692e-01        00000 
-3.41299e-02  7.17417e-01        00000 
-3.44129e-02  6.70815e-01        00000 
-3.23857e-02  6.25623e-01        00000 
-2.94124e-02  5.76922e-01        00000 
-2.76114e-02  5.31182e-01        00000 
-2.28505e-02  4.87527e-01        00000 
-1.92270e-02  4.35131e-01        00000 
-2.04248e-02  3.85758e-01        00000 
-2.26843e-02  3.37115e-01        00000 
-2.39853e-02  2.88374e-01        00000 
-2.55205e-02  2.34593e-01        00000 
-2.50944e-02  1.87338e-01        00000 
-2.24990e-02  1.40268e-01        00000 
-1.92738e-02  9.02383e-02        00000 
-1.27143e-02  4.50550e-02        00000 
 1.08534e-03  6.94630e-04        00000 
-3.06156e-04  9.57268e-01        00000 
-5.46002e-03  9.05426e-01        00000 
-1.36839e-02  8.53959e-01        00000 
-1.57677e-02  8.06084e-01        00000 
-1.62954e-02  7.53442e-01        00000 
-1.71940e-02  7.06999e-01        00000 
-1.71375e-02  6.55771e-01        00000 
-1.62408e-02  6.06742e-01        00000 
-1.37800e-02  5.56098e-01        00000 
-1.24798e-02  5.06933e-01        00000 
-1.06549e-02  4.53842e-01        00000 
-1.23969e-02  4.04975e-01        00000 
-1.23508e-02  3.53195e-01        00000 
-1.18874e-02  3.04881e-01        00000 
-9.87030e-03  2.51855e-01        00000 
-1.41635e-02  1.94771e-01        00000 
-1.08194e-02  1.45786e-01        00000 
-1.06407e-02  9.93829e-02        00000 
-7.58164e-03  5.01322e-02        00000 
-3.31786e-03  3.91030e-03        00000 
-2.57495e-03  1.00519e+00        00000 
-3.82858e-04  9.49110e-01        00000 
-2.91125e-03  8.95423e-01        00000 
-1.86740e-03  8.44224e-01        00000 
-3.96818e-04  7.91222e-01        00000 
-1.34257e-03  7.39208e-01        00000 
-4.23010e-04  6.90565e-01        00000 
-9.84382e-04  6.34988e-01        00000 
-2.29742e-04  5.83943e-01        00000 
-1.82747e-03  5.31499e-01        00000 
-2.19249e-03  4.78980e-01        00000 
-1.85908e-03  4.24148e-01        00000 
-2.78243e-03  3.72969e-01        00000 
-2.95148e-03  3.16931e-01        00000 
 4.70503e-04  2.63892e-01        00000 
 6.49145e-05  2.13121e-01        00000 
 7.12228e-04  1.60075e-01        00000 
 3.35047e-03  1.02941e-01        00000 
-1.04471e-03  5.66385e-02        00000 
-2.42955e-03  4.09215e-03        00000 
-4.94910e-03  2.35719e-02        00000 
-4.24613e-03  2.21323e-02        00000 
-9.75385e-03  2.35510e-02        00000 
-9.85336e-03  2.17834e-02        00000 
-5.10931e-03  1.77041e-02        00000 
-4.46191e-03  1.36006e-02        00000 
-7.40287e-03  1.50910e-02        00000 
-9.73237e-03  1.81689e-02        00000 
-8.37391e-03  1.55870e-02        00000 
-8.41648e-03  1.46587e-02        00000 
-8.80644e-03  1.38738e-02        00000 
-5.55043e-03  1.09393e-02        00000 
-6.18244e-03  1.17091e-02        00000 
-8.26939e-03  1.34133e-02        00000 
-7.65609e-03  8.10062e-03        00000 
-8.13915e-03  7.57546e-03        00000 
-6.75862e-03  5.71465e-03        00000 
-4.93722e-03  6.24573e-03        00000 
-9.18925e-04  4.54262e-03        00000 
-1.07316e-03  8.05696e-02        00000 
-8.51433e-03  6.95604e-02        00000 
-1.53653e-02  6.21952e-02        00000 
-1.71971e-02  6.04209e-02        00000 
-2.02080e-02  5.52046e-02        00000 
-2.32354e-02  5.19266e-02        00000 
-2.80972e-02  4.72912e-02        00000 
-2.73071e-02  4.29306e-02        00000 
-2.39816e-02  3.94848e-02        00000 
-2.21711e-02  3.60318e-02        00000 
-2.04747e-02  3.18888e-02        00000 
-1.87775e-02  2.84963e-02        00000 
-1.61102e-02  2.93414e-02        00000 
-1.42244e-02  2.60855e-02        00000 
-1.13283e-02  1.82091e-02        00000 
-1.03668e-02  1.58405e-02        00000 
-9.47835e-03  1.59043e-02        00000 
-7.36340e-03  1.14344e-02        00000 
-5.46356e-03  2.22571e-03        00000 
-2.61734e-03  1.26586e-01        00000 
-1.30562e-02  1.13900e-01        00000 
-1.83086e-02  1.10433e-01        00000 
-2.38439e-02  1.04778e-01        00000 
-2.99516e-02  9.41302e-02        00000 
-3.85889e-02  8.43393e-02        00000 
-4.34234e-02  7.70019e-02        00000 
-4.48265e-02  7.20276e-02        00000 
-3.88799e-02  6.26826e-02        00000 
-3.63330e-02  5.70087e-02        00000 
-3.02946e-02  5.16814e-02        00000 
-2.43421e-02  4.44282e-02        00000 
-2.19547e-02  4.04213e-02        00000 
-1.99787e-02  3.74996e-02        00000 
-1.72850e-02  3.16069e-02        00000 
-1.41172e-02  2.45018e-02        00000 
-1.13235e-02  1.69312e-02        00000 
-9.77121e-03  1.33327e-02        00000 
-5.02808e-03  2.63885e-03        00000 
-4.54215e-03  1.79621e-01        00000 
-1.83582e-02  1.67419e-01        00000 
-2.26912e-02  1.57672e-01        00000 
-2.93236e-02  1.47290e-01        00000 
-3.97207e-02  1.35785e-01        00000 
-5.17859e-02  1.25222e-01        00000 
-5.79253e-02  1.11652e-01        00000 
-5.66767e-02  9.92666e-02        00000 
-5.22912e-02  8.52160e-02        00000 
-4.68615e-02  7.84688e-02        00000 
-3.74577e-02  6.74675e-02        00000 
-2.90091e-02  5.73839e-02        00000 
-2.55963e-02  5.04482e-02        00000 
-2.37933e-02  4.49076e-02        00000 
-2.14722e-02  3.90325e-02        00000 
-1.92286e-02  3.15704e-02        00000 
-1.56873e-02  2.35869e-02        00000 
-1.13502e-02  1.50895e-02        00000 
-5.19971e-03  6.39829e-03        00000 
-5.37346e-03  2.31067e-01        00000 
-2.07362e-02  2.18909e-01        00000 
-2.49560e-02  2.06847e-01        00000 
-3.53382e-02  1.92729e-01        00000 
-4.65246e-02  1.79921e-01        00000 
-6.05392e-02  1.68174e-01        00000 
-6.50883e-02  1.49217e-01        00000 
-6.52488e-02  1.30582e-01        00000 
-6.44600e-02  1.13221e-01        00000 
-5.45538e-02  9.68142e-02        00000 
-4.14664e-02  7.98531e-02        00000 
-3.00607e-02  6.86214e-02        00000 
-2.51175e-02  5.88733e-02        00000 
-2.20056e-02  4.98488e-02        00000 
-2.06431e-02  4.39210e-02        00000 
-2.14264e-02  3.65502e-02        00000 
-1.81634e-02  2.62587e-02        00000 
-1.15906e-02  1.39450e-02        00000 
-6.05967e-03  6.28767e-03        00000 
-4.07975e-03  2.85610e-01        00000 
-2.08764e-02  2.69971e-01        00000 