<?xml version="1.0" encoding="utf-8"?>
<VTKFile byte_order="LittleEndian" type="UnstructuredGrid" version="0.1">
   <UnstructuredGrid>
      <Piece NumberOfCells="1444" NumberOfPoints="761">
         <Points>
            <DataArray Name="Points" NumberOfComponents="3" format="ascii" type="Float32">
-1.0000 -1.0000 0.0000
-1.0000 -0.8947 0.0000
-1.0000 -0.7895 0.0000
-1.0000 -0.6842 0.0000
-1.0000 -0.5789 0.0000
-1.0000 -0.4737 0.0000
-1.0000 -0.3684 0.0000
-1.0000 -0.2632 0.0000
-1.0000 -0.1579 0.0000
-1.0000 -0.0526 0.0000
-1.0000 0.0526 0.0000
-1.0000 0.1579 0.0000
-1.0000 0.2632 0.0000
-1.0000 0.3684 0.0000
-1.0000 0.4737 0.0000
-1.0000 0.5789 0.0000
-1.0000 0.6842 0.0000
-1.0000 0.7895 0.0000
-1.0000 0.8947 0.0000
-1.0000 1.0000 0.0000
-0.8947 -1.0000 0.0000
-0.8947 -0.8947 0.0000
-0.8947 -0.7895 0.0000
-0.8947 -0.6842 0.0000
-0.8947 -0.5789 0.0000
-0.8947 -0.4737 0.0000
-0.8947 -0.3684 0.0000
-0.8947 -0.2632 0.0000
-0.8947 -0.1579 0.0000
-0.8947 -0.0526 0.0000
-0.8947 0.0526 0.0000
-0.8947 0.1579 0.0000
-0.8947 0.2632 0.0000
-0.8947 0.3684 0.0000
-0.8947 0.4737 0.0000
-0.8947 0.5789 0.0000
-0.8947 0.6842 0.0000
-0.8947 0.7895 0.0000
-0.8947 0.8947 0.0000
-0.8947 1.0000 0.0000
-0.7895 -1.0000 0.0000
-0.7895 -0.8947 0.0000
-0.7895 -0.7895 0.0000
-0.7895 -0.6842 0.0000
-0.7895 -0.5789 0.0000
-0.7895 -0.4737 0.0000
-0.7895 -0.3684 0.0000
-0.7895 -0.2632 0.0000
-0.7895 -0.1579 0.0000
-0.7895 -0.0526 0.0000
-0.7895 0.0526 0.0000
-0.7895 0.1579 0.0000
-0.7895 0.2632 0.0000
-0.7895 0.3684 0.0000
-0.7895 0.4737 0.0000
-0.7895 0.5789 0.0000
-0.7895 0.6842 0.0000
-0.7895 0.7895 0.0000
-0.7895 0.8947 0.0000
-0.7895 1.0000 0.0000
-0.6842 -1.0000 0.0000
-0.6842 -0.8947 0.0000
-0.6842 -0.7895 0.0000
-0.6842 -0.6842 0.0000
-0.6842 -0.5789 0.0000
-0.6842 -0.4737 0.0000
-0.6842 -0.3684 0.0000
-0.6842 -0.2632 0.0000
-0.6842 -0.1579 0.0000
-0.6842 -0.0526 0.0000
-0.6842 0.0526 0.0000
-0.6842 0.1579 0.0000
-0.6842 0.2632 0.0000
-0.6842 0.3684 0.0000
-0.6842 0.4737 0.0000
-0.6842 0.5789 0.0000
-0.6842 0.6842 0.0000
-0.6842 0.7895 0.0000
-0.6842 0.8947 0.0000
-0.6842 1.0000 0.0000
-0.5789 -1.0000 0.0000
-0.5789 -0.8947 0.0000
-0.5789 -0.7895 0.0000
-0.5789 -0.6842 0.0000
-0.5789 -0.5789 0.0000
-0.5789 -0.4737 0.0000
-0.5789 -0.3684 0.0000
-0.5789 -0.2632 0.0000
-0.5789 -0.1579 0.0000
-0.5789 -0.0526 0.0000
-0.5789 0.0526 0.0000
-0.5789 0.1579 0.0000
-0.5789 0.2632 0.0000
-0.5789 0.3684 0.0000
-0.5789 0.4737 0.0000
-0.5789 0.5789 0.0000
-0.5789 0.6842 0.0000
-0.5789 0.7895 0.0000
-0.5789 0.8947 0.0000
-0.5789 1.0000 0.0000
-0.4737 -1.0000 0.0000
-0.4737 -0.8947 0.0000
-0.4737 -0.7895 0.0000
-0.4737 -0.6842 0.0000
-0.4737 -0.5789 0.0000
-0.4737 -0.4737 0.0000
-0.4737 -0.3684 0.0000
-0.4737 -0.2632 0.0000
-0.4737 -0.1579 0.0000
-0.4737 -0.0526 0.0000
-0.4737 0.0526 0.0000
-0.4737 0.1579 0.0000
-0.4737 0.2632 0.0000
-0.4737 0.3684 0.0000
-0.4737 0.4737 0.0000
-0.4737 0.5789 0.0000
-0.4737 0.6842 0.0000
-0.4737 0.7895 0.0000
-0.4737 0.8947 0.0000
-0.4737 1.0000 0.0000
-0.3684 -1.0000 0.0000
-0.3684 -0.8947 0.0000
-0.3684 -0.7895 0.0000
-0.3684 -0.6842 0.0000
-0.3684 -0.5789 0.0000
-0.3684 -0.4737 0.0000
-0.3684 -0.3684 0.0000
-0.3684 -0.2632 0.0000
-0.3684 -0.1579 0.0000
-0.3684 -0.0526 0.0000
-0.3684 0.0526 0.0000
-0.3684 0.1579 0.0000
-0.3684 0.2632 0.0000
-0.3684 0.3684 0.0000
-0.3684 0.4737 0.0000
-0.3684 0.5789 0.0000
-0.3684 0.6842 0.0000
-0.3684 0.7895 0.0000
-0.3684 0.8947 0.0000
-0.3684 1.0000 0.0000
-0.2632 -1.0000 0.0000
-0.2632 -0.8947 0.0000
-0.2632 -0.7895 0.0000
-0.2632 -0.6842 0.0000
-0.2632 -0.5789 0.0000
-0.2632 -0.4737 0.0000
-0.2632 -0.3684 0.0000
-0.2632 -0.2632 0.0000
-0.2632 -0.1579 0.0000
-0.2632 -0.0526 0.0000
-0.2632 0.0526 0.0000
-0.2632 0.1579 0.0000
-0.2632 0.2632 0.0000
-0.2632 0.3684 0.0000
-0.2632 0.4737 0.0000
-0.2632 0.5789 0.0000
-0.2632 0.6842 0.0000
-0.2632 0.7895 0.0000
-0.2632 0.8947 0.0000
-0.2632 1.0000 0.0000
-0.1579 -1.0000 0.0000
-0.1579 -0.8947 0.0000
-0.1579 -0.7895 0.0000
-0.1579 -0.6842 0.0000
-0.1579 -0.5789 0.0000
-0.1579 -0.4737 0.0000
-0.1579 -0.3684 0.0000
-0.1579 -0.2632 0.0000
-0.1579 -0.1579 0.0000
-0.1579 -0.0526 0.0000
-0.1579 0.0526 0.0000
-0.1579 0.1579 0.0000
-0.1579 0.2632 0.0000
-0.1579 0.3684 0.0000
-0.1579 0.4737 0.0000
-0.1579 0.5789 0.0000
-0.1579 0.6842 0.0000
-0.1579 0.7895 0.0000
-0.1579 0.8947 0.0000
-0.1579 1.0000 0.0000
-0.0526 -1.0000 0.0000
-0.0526 -0.8947 0.0000
-0.0526 -0.7895 0.0000
-0.0526 -0.6842 0.0000
-0.0526 -0.5789 0.0000
-0.0526 -0.4737 0.0000
-0.0526 -0.3684 0.0000
-0.0526 -0.2632 0.0000
-0.0526 -0.1579 0.0000
-0.0526 -0.0526 0.0000
-0.0526 0.0526 0.0000
-0.0526 0.1579 0.0000
-0.0526 0.2632 0.0000
-0.0526 0.3684 0.0000
-0.0526 0.4737 0.0000
-0.0526 0.5789 0.0000
-0.0526 0.6842 0.0000
-0.0526 0.7895 0.0000
-0.0526 0.8947 0.0000
-0.0526 1.0000 0.0000
0.0526 -1.0000 0.0000
0.0526 -0.8947 0.0000
0.0526 -0.7895 0.0000
0.0526 -0.6842 0.0000
0.0526 -0.5789 0.0000
0.0526 -0.4737 0.0000
0.0526 -0.3684 0.0000
0.0526 -0.2632 0.0000
0.0526 -0.1579 0.0000
0.0526 -0.0526 0.0000
0.0526 0.0526 0.0000
0.0526 0.1579 0.0000
0.0526 0.2632 0.0000
0.0526 0.3684 0.0000
0.0526 0.4737 0.0000
0.0526 0.5789 0.0000
0.0526 0.6842 0.0000
0.0526 0.7895 0.0000
0.0526 0.8947 0.0000
0.0526 1.0000 0.0000
0.1579 -1.0000 0.0000
0.1579 -0.8947 0.0000
0.1579 -0.7895 0.0000
0.1579 -0.6842 0.0000
0.1579 -0.5789 0.0000
0.1579 -0.4737 0.0000
0.1579 -0.3684 0.0000
0.1579 -0.2632 0.0000
0.1579 -0.1579 0.0000
0.1579 -0.0526 0.0000
0.1579 0.0526 0.0000
0.1579 0.1579 0.0000
0.1579 0.2632 0.0000
0.1579 0.3684 0.0000
0.1579 0.4737 0.0000
0.1579 0.5789 0.0000
0.1579 0.6842 0.0000
0.1579 0.7895 0.0000
0.1579 0.8947 0.0000
0.1579 1.0000 0.0000
0.2632 -1.0000 0.0000
0.2632 -0.8947 0.0000
0.2632 -0.7895 0.0000
0.2632 -0.6842 0.0000
0.2632 -0.5789 0.0000
0.2632 -0.4737 0.0000
0.2632 -0.3684 0.0000
0.2632 -0.2632 0.0000
0.2632 -0.1579 0.0000
0.2632 -0.0526 0.0000
0.2632 0.0526 0.0000
0.2632 0.1579 0.0000
0.2632 0.2632 0.0000
0.2632 0.3684 0.0000
0.2632 0.4737 0.0000
0.2632 0.5789 0.0000
0.2632 0.6842 0.0000
0.2632 0.7895 0.0000
0.2632 0.8947 0.0000
0.2632 1.0000 0.0000
0.3684 -1.0000 0.0000
0.3684 -0.8947 0.0000
0.3684 -0.7895 0.0000
0.3684 -0.6842 0.0000
0.3684 -0.5789 0.0000
0.3684 -0.4737 0.0000
0.3684 -0.3684 0.0000
0.3684 -0.2632 0.0000
0.3684 -0.1579 0.0000
0.3684 -0.0526 0.0000
0.3684 0.0526 0.0000
0.3684 0.1579 0.0000
0.3684 0.2632 0.0000
0.3684 0.3684 0.0000
0.3684 0.4737 0.0000
0.3684 0.5789 0.0000
0.3684 0.6842 0.0000
0.3684 0.7895 0.0000
0.3684 0.8947 0.0000
0.3684 1.0000 0.0000
0.4737 -1.0000 0.0000
0.4737 -0.8947 0.0000
0.4737 -0.7895 0.0000
0.4737 -0.6842 0.0000
0.4737 -0.5789 0.0000
0.4737 -0.4737 0.0000
0.4737 -0.3684 0.0000
0.4737 -0.2632 0.0000
0.4737 -0.1579 0.0000
0.4737 -0.0526 0.0000
0.4737 0.0526 0.0000
0.4737 0.1579 0.0000
0.4737 0.2632 0.0000
0.4737 0.3684 0.0000
0.4737 0.4737 0.0000
0.4737 0.5789 0.0000
0.4737 0.6842 0.0000
0.4737 0.7895 0.0000
0.4737 0.8947 0.0000
0.4737 1.0000 0.0000
0.5789 -1.0000 0.0000
0.5789 -0.8947 0.0000
0.5789 -0.7895 0.0000
0.5789 -0.6842 0.0000
0.5789 -0.5789 0.0000
0.5789 -0.4737 0.0000
0.5789 -0.3684 0.0000
0.5789 -0.2632 0.0000
0.5789 -0.1579 0.0000
0.5789 -0.0526 0.0000
0.5789 0.0526 0.0000
0.5789 0.1579 0.0000
0.5789 0.2632 0.0000
0.5789 0.3684 0.0000
0.5789 0.4737 0.0000
0.5789 0.5789 0.0000
0.5789 0.6842 0.0000
0.5789 0.7895 0.0000
0.5789 0.8947 0.0000
0.5789 1.0000 0.0000
0.6842 -1.0000 0.0000
0.6842 -0.8947 0.0000
0.6842 -0.7895 0.0000
0.6842 -0.6842 0.0000
0.6842 -0.5789 0.0000
0.6842 -0.4737 0.0000
0.6842 -0.3684 0.0000
0.6842 -0.2632 0.0000
0.6842 -0.1579 0.0000
0.6842 -0.0526 0.0000
0.6842 0.0526 0.0000
0.6842 0.1579 0.0000
0.6842 0.2632 0.0000
0.6842 0.3684 0.0000
0.6842 0.4737 0.0000
0.6842 0.5789 0.0000
0.6842 0.6842 0.0000
0.6842 0.7895 0.0000
0.6842 0.8947 0.0000
0.6842 1.0000 0.0000
0.7895 -1.0000 0.0000
0.7895 -0.8947 0.0000
0.7895 -0.7895 0.0000
0.7895 -0.6842 0.0000
0.7895 -0.5789 0.0000
0.7895 -0.4737 0.0000
0.7895 -0.3684 0.0000
0.7895 -0.2632 0.0000
0.7895 -0.1579 0.0000
0.7895 -0.0526 0.0000
0.7895 0.0526 0.0000
0.7895 0.1579 0.0000
0.7895 0.2632 0.0000
0.7895 0.3684 0.0000
0.7895 0.4737 0.0000
0.7895 0.5789 0.0000
0.7895 0.6842 0.0000
0.7895 0.7895 0.0000
0.7895 0.8947 0.0000
0.7895 1.0000 0.0000
0.8947 -1.0000 0.0000
0.8947 -0.8947 0.0000
0.8947 -0.7895 0.0000
0.8947 -0.6842 0.0000
0.8947 -0.5789 0.0000
0.8947 -0.4737 0.0000
0.8947 -0.3684 0.0000
0.8947 -0.2632 0.0000
0.8947 -0.1579 0.0000
0.8947 -0.0526 0.0000
0.8947 0.0526 0.0000
0.8947 0.1579 0.0000
0.8947 0.2632 0.0000
0.8947 0.3684 0.0000
0.8947 0.4737 0.0000
0.8947 0.5789 0.0000
0.8947 0.6842 0.0000
0.8947 0.7895 0.0000
0.8947 0.8947 0.0000
0.8947 1.0000 0.0000
1.0000 -1.0000 0.0000
1.0000 -0.8947 0.0000
1.0000 -0.7895 0.0000
1.0000 -0.6842 0.0000
1.0000 -0.5789 0.0000
1.0000 -0.4737 0.0000
1.0000 -0.3684 0.0000
1.0000 -0.2632 0.0000
1.0000 -0.1579 0.0000
1.0000 -0.0526 0.0000
1.0000 0.0526 0.0000
1.0000 0.1579 0.0000
1.0000 0.2632 0.0000
1.0000 0.3684 0.0000
1.0000 0.4737 0.0000
1.0000 0.5789 0.0000
1.0000 0.6842 0.0000
1.0000 0.7895 0.0000
1.0000 0.8947 0.0000
1.0000 1.0000 0.0000
-0.9474 -0.9474 0.0000
-0.9474 -0.8421 0.0000
-0.9474 -0.7368 0.0000
-0.9474 -0.6316 0.0000
-0.9474 -0.5263 0.0000
-0.9474 -0.4211 0.0000
-0.9474 -0.3158 0.0000
-0.9474 -0.2105 0.0000
-0.9474 -0.1053 0.0000
-0.9474 0.0000 0.0000
-0.9474 0.1053 0.0000
-0.9474 0.2105 0.0000
-0.9474 0.3158 0.0000
-0.9474 0.4211 0.0000
-0.9474 0.5263 0.0000
-0.9474 0.6316 0.0000
-0.9474 0.7368 0.0000
-0.9474 0.8421 0.0000
-0.9474 0.9474 0.0000
-0.8421 -0.9474 0.0000
-0.8421 -0.8421 0.0000
-0.8421 -0.7368 0.0000
-0.8421 -0.6316 0.0000
-0.8421 -0.5263 0.0000
-0.8421 -0.4211 0.0000
-0.8421 -0.3158 0.0000
-0.8421 -0.2105 0.0000
-0.8421 -0.1053 0.0000
-0.8421 0.0000 0.0000
-0.8421 0.1053 0.0000
-0.8421 0.2105 0.0000
-0.8421 0.3158 0.0000
-0.8421 0.4211 0.0000
-0.8421 0.5263 0.0000
-0.8421 0.6316 0.0000
-0.8421 0.7368 0.0000
-0.8421 0.8421 0.0000
-0.8421 0.9474 0.0000
-0.7368 -0.9474 0.0000
-0.7368 -0.8421 0.0000
[...]
         <PointData>
            <DataArray Name="fValues" NumberOfComponents="3" format="ascii" type="Float64">
-2.50647e-03 -3.79522e-04        00000 
-3.44955e-03  4.81647e-04        00000 
 4.22514e-04  1.13712e-03        00000 
 3.70994e-03 -1.33367e-03        00000 
 2.71240e-03 -3.37641e-03        00000 
 1.02542e-03 -8.15196e-04        00000 
-1.28558e-04  7.52879e-04        00000 
-8.92569e-04  6.15968e-04        00000 
 9.11292e-05 -5.29133e-05        00000 
 7.18788e-04  2.66958e-03        00000 
-7.58290e-04  4.08982e-03        00000 
-3.42134e-03 -9.79061e-04        00000 
-3.76229e-03 -4.21167e-03        00000 
-2.44158e-03 -2.94949e-03        00000 
-3.74126e-03 -5.28582e-03        00000 
-2.91307e-03 -4.27678e-03        00000 
-3.95622e-04 -1.09850e-03        00000 
 1.60341e-04 -3.31371e-03        00000 
-1.39115e-03 -4.31882e-03        00000 
-5.51020e-03 -1.31583e-03        00000 
-1.76234e-03 -1.67744e-03        00000 
 3.81530e-03  4.22132e-03        00000 
 8.27395e-03  5.48070e-03        00000 
 8.45639e-03  7.65227e-03        00000 
 9.62428e-03  1.20012e-02        00000 
 9.50939e-03  1.57032e-02        00000 
 9.02432e-03  1.70315e-02        00000 
 8.49623e-03  1.98626e-02        00000 
 9.45596e-03  2.24550e-02        00000 
 9.79699e-03  2.43760e-02        00000 
 1.26226e-02  2.84477e-02        00000 
 1.38490e-02  3.00000e-02        00000 
 1.57937e-02  2.95982e-02        00000 
 1.62974e-02  2.93292e-02        00000 
 1.50996e-02  3.40857e-02        00000 
 1.23391e-02  3.56543e-02        00000 
 1.21724e-02  3.73084e-02        00000 
 8.38750e-03  3.78280e-02        00000 
 7.54910e-03  4.62069e-02        00000 
-3.61188e-04  5.39895e-02        00000 
-8.94473e-04 -7.38395e-04        00000 
 7.78394e-03  6.08407e-03        00000 
 1.12702e-02  8.53440e-03        00000 
 1.27169e-02  1.29969e-02        00000 
 1.30405e-02  1.67834e-02        00000 
 1.16509e-02  2.53747e-02        00000 
 1.40280e-02  3.11808e-02        00000 
 1.74371e-02  3.76411e-02        00000 
 2.04386e-02  4.21859e-02        00000 
 2.55802e-02  4.54887e-02        00000 
 3.06732e-02  5.15484e-02        00000 
 3.28065e-02  5.77302e-02        00000 
 3.21803e-02  6.05937e-02        00000 
 3.44175e-02  6.60711e-02        00000 
 3.25177e-02  7.23923e-02        00000 
 2.67771e-02  7.50036e-02        00000 
 2.10248e-02  7.68915e-02        00000 
 1.69766e-02  8.56919e-02        00000 
 1.08240e-02  9.92859e-02        00000 
-4.41694e-03  1.08806e-01        00000 
 2.05357e-04  3.26292e-03        00000 
 6.63814e-03  8.92985e-03        00000 
 1.28091e-02  1.46062e-02        00000 
 1.58723e-02  2.03780e-02        00000 
 1.76350e-02  2.52223e-02        00000 
 1.71842e-02  3.24843e-02        00000 
 1.91007e-02  4.26831e-02        00000 
 2.28476e-02  5.18403e-02        00000 
 3.01316e-02  5.78547e-02        00000 
 3.76195e-02  6.64751e-02        00000 
 4.25187e-02  7.55213e-02        00000 
 4.34985e-02  8.31133e-02        00000 
 4.37764e-02  9.12477e-02        00000 
 4.48408e-02  1.00182e-01        00000 
 4.17594e-02  1.07748e-01        00000 
 3.75307e-02  1.18232e-01        00000 
 3.01035e-02  1.19970e-01        00000 
 2.30918e-02  1.32463e-01        00000 
 1.15255e-02  1.45626e-01        00000 
-4.73623e-03  1.58510e-01        00000 
-2.76383e-03  2.01123e-03        00000 
 7.80949e-03  7.73106e-03        00000 
 1.70328e-02  1.70364e-02        00000 
 2.02964e-02  2.25824e-02        00000 
 2.24633e-02  3.17412e-02        00000 
 2.27624e-02  3.84322e-02        00000 
 2.20031e-02  4.87074e-02        00000 
 2.69506e-02  6.04477e-02        00000 
 3.45380e-02  7.19004e-02        00000 
 4.07433e-02  8.35044e-02        00000 
 4.74286e-02  9.69433e-02        00000 
 5.11984e-02  1.11452e-01        00000 
 5.32910e-02  1.24279e-01        00000 
 5.28560e-02  1.36536e-01        00000 
 5.10356e-02  1.47348e-01        00000 
 4.34919e-02  1.59158e-01        00000 
 3.56465e-02  1.70217e-01        00000 
 2.56645e-02  1.84735e-01        00000 
 1.46724e-02  1.95009e-01        00000 
-2.09056e-03  2.08528e-01        00000 
-3.11165e-03 -9.08546e-04        00000 
 1.10772e-02  1.04411e-02        00000 
 1.95978e-02  1.78723e-02        00000 
 2.42584e-02  2.63629e-02        00000 
 2.49872e-02  3.58808e-02        00000 
 2.58979e-02  4.17616e-02        00000 
 2.71516e-02  5.38370e-02        00000 
 2.78134e-02  6.36991e-02        00000 
 3.29839e-02  7.81908e-02        00000 
 4.23230e-02  9.60853e-02        00000 
 5.17289e-02  1.16169e-01        00000 
 5.92151e-02  1.41018e-01        00000 
 5.92617e-02  1.55071e-01        00000 
 5.92949e-02  1.74869e-01        00000 
 5.64174e-02  1.91435e-01        00000 
 5.05246e-02  2.05027e-01        00000 
 3.77677e-02  2.18588e-01        00000 
 2.75689e-02  2.35295e-01        00000 
 1.59736e-02  2.44868e-01        00000 
-1.25603e-03  2.62152e-01        00000 
-4.37441e-03 -3.35189e-03        00000 
 1.21505e-02  9.18536e-03        00000 
 2.43616e-02  2.21834e-02        00000 
 2.64133e-02  2.80691e-02        00000 
 2.87790e-02  3.69487e-02        00000 
 2.71068e-02  4.19353e-02        00000 
 2.84294e-02  4.99055e-02        00000 
 2.65957e-02  5.74401e-02        00000 
 3.03293e-02  7.45537e-02        00000 
 4.29713e-02  1.03674e-01        00000 
 5.94745e-02  1.38708e-01        00000 
 7.14532e-02  1.74874e-01        00000 
 7.23644e-02  2.00397e-01        00000 
 6.74536e-02  2.20812e-01        00000 
 6.24268e-02  2.38862e-01        00000 
 5.40571e-02  2.52839e-01        00000 
 4.05854e-02  2.68402e-01        00000 
 2.63124e-02  2.83734e-01        00000 
 1.35939e-02  2.95680e-01        00000 
 1.91284e-04  3.13265e-01        00000 
-5.69331e-03 -3.58280e-03        00000 
 1.26796e-02  1.04557e-02        00000 
 2.57523e-02  2.47065e-02        00000 
 2.98220e-02  3.09128e-02        00000 
 3.42119e-02  3.89807e-02        00000 
 3.31166e-02  4.29293e-02        00000 
 2.99458e-02  4.61689e-02        00000 
 2.54774e-02  5.26957e-02        00000 
 3.07994e-02  7.51473e-02        00000 
 4.74023e-02  1.15404e-01        00000 
 6.64334e-02  1.61349e-01        00000 
 8.65187e-02  2.17515e-01        00000 
 8.83514e-02  2.50450e-01        00000 
 8.07238e-02  2.75452e-01        00000 
 6.93545e-02  2.90842e-01        00000 
 5.73137e-02  3.03559e-01        00000 
 4.32180e-02  3.16925e-01        00000 
 2.67643e-02  3.35464e-01        00000 
 1.39602e-02  3.50713e-01        00000 
-6.08839e-04  3.65636e-01        00000 
-4.11119e-03 -3.68317e-03        00000 
 1.45595e-02  1.19838e-02        00000 
 2.78214e-02  2.82955e-02        00000 
 3.41290e-02  3.55994e-02        00000 
 3.99757e-02  4.41848e-02        00000 
 3.88726e-02  4.76806e-02        00000 
 3.30586e-02  4.65280e-02        00000 
 3.01462e-02  5.57742e-02        00000 
 3.73957e-02  8.65700e-02        00000 
 5.69541e-02  1.44427e-01        00000 
 8.01639e-02  2.06085e-01        00000 
 9.91606e-02  2.66965e-01        00000 
 1.07734e-01  3.12234e-01        00000 
 9.64357e-02  3.36576e-01        00000 
 7.83098e-02  3.48135e-01        00000 
 6.09194e-02  3.60382e-01        00000 
 4.55405e-02  3.71462e-01        00000 
 2.82179e-02  3.89281e-01        00000 
 1.49816e-02  4.01298e-01        00000 
-1.25409e-03  4.20216e-01        00000 
-2.53182e-03 -1.01464e-03        00000 
 1.54892e-02  1.50386e-02        00000 
 3.10047e-02  3.09688e-02        00000 
 3.84062e-02  4.17992e-02        00000 
 4.64795e-02  5.40740e-02        00000 
 4.44379e-02  5.92003e-02        00000 
 3.94021e-02  5.98664e-02        00000 
 3.54421e-02  6.90900e-02        00000 
 4.88541e-02  1.16898e-01        00000 
 6.86506e-02  1.84681e-01        00000 
 8.96908e-02  2.59104e-01        00000 
 1.10742e-01  3.29986e-01        00000 
 1.22346e-01  3.88152e-01        00000 
 1.07270e-01  4.02890e-01        00000 
 8.53418e-02  4.08349e-01        00000 
 6.68277e-02  4.13754e-01        00000 
 4.83096e-02  4.22740e-01        00000 
 3.12721e-02  4.39728e-01        00000 
 1.75588e-02  4.53674e-01        00000 
-4.43535e-03  4.74157e-01        00000 
-7.55126e-04 -3.36020e-05        00000 
 1.76891e-02  1.86238e-02        00000 
 3.17360e-02  3.53558e-02        00000 
 4.32536e-02  5.16017e-02        00000 
 5.10680e-02  6.77565e-02        00000 
 4.81159e-02  7.69370e-02        00000 
 4.05740e-02  8.02814e-02        00000 
 3.70493e-02  9.93663e-02        00000 
 4.85623e-02  1.52928e-01        00000 
 6.83202e-02  2.30510e-01        00000 
 9.16025e-02  3.16824e-01        00000 
 1.14823e-01  3.96518e-01        00000 
 1.24344e-01  4.52933e-01        00000 
 1.12165e-01  4.55950e-01        00000 
 9.23509e-02  4.53300e-01        00000 
 7.49916e-02  4.61432e-01        00000 
 5.55394e-02  4.72253e-01        00000 
 3.51332e-02  4.89703e-01        00000 
 1.99496e-02  5.08225e-01        00000 
-3.25492e-03  5.25321e-01        00000 
 6.77970e-04 -1.57818e-04        00000 
 2.03120e-02  2.14026e-02        00000 
 3.37771e-02  4.13937e-02        00000 
 4.60328e-02  6.33833e-02        00000 
 5.20687e-02  8.53716e-02        00000 
 5.03782e-02  9.73787e-02        00000 
 4.45635e-02  1.14490e-01        00000 
 4.10346e-02  1.41993e-01        00000 
 4.87112e-02  1.93570e-01        00000 
 6.52861e-02  2.77535e-01        00000 
 8.84923e-02  3.66128e-01        00000 
 1.11502e-01  4.50481e-01        00000 
 1.19091e-01  4.89822e-01        00000 
 1.11386e-01  4.90460e-01        00000 
 9.42066e-02  4.90796e-01        00000 
 7.81179e-02  5.05571e-01        00000 
 5.57843e-02  5.18065e-01        00000 
 3.66874e-02  5.38687e-01        00000 
 2.10006e-02  5.63052e-01        00000 
-2.55198e-03  5.79656e-01        00000 
-1.48313e-05 -3.07891e-03        00000 
 2.00767e-02  2.28948e-02        00000 
 3.58311e-02  5.27878e-02        00000 
 4.71874e-02  7.86625e-02        00000 
 5.32153e-02  1.02027e-01        00000 
 5.51340e-02  1.26129e-01        00000 
 5.16446e-02  1.56762e-01        00000 
 4.61339e-02  1.89228e-01        00000 
 4.94803e-02  2.43339e-01        00000 
 6.02635e-02  3.20154e-01        00000 
 8.13226e-02  4.04053e-01        00000 
 1.00818e-01  4.71633e-01        00000 
 1.09056e-01  5.02877e-01        00000 
 1.04802e-01  5.10911e-01        00000 
 9.48434e-02  5.25737e-01        00000 
 7.67000e-02  5.45362e-01        00000 
 5.74081e-02  5.65511e-01        00000 
 4.01397e-02  5.85293e-01        00000 
 2.44502e-02  6.08720e-01        00000 
-1.08176e-03  6.33143e-01        00000 
 7.97781e-04 -1.79953e-03        00000 
 1.84109e-02  2.83950e-02        00000 
 3.32062e-02  6.02654e-02        00000 
 4.55535e-02  9.58400e-02        00000 
 5.05411e-02  1.23253e-01        00000 
 5.55876e-02  1.56569e-01        00000 
 5.55374e-02  1.90900e-01        00000 
 5.08969e-02  2.27425e-01        00000 
 5.15260e-02  2.81691e-01        00000 
 5.86502e-02  3.48039e-01        00000 
 7.10294e-02  4.10787e-01        00000 
 8.64811e-02  4.68452e-01        00000 
 9.78495e-02  5.05090e-01        00000 
 9.67934e-02  5.28483e-01        00000 
 8.88355e-02  5.54912e-01        00000 
 7.39173e-02  5.82131e-01        00000 
 5.71175e-02  6.04512e-01        00000 
 4.06347e-02  6.33453e-01        00000 
 2.44974e-02  6.56465e-01        00000 
-9.13849e-04  6.84103e-01        00000 
 6.90380e-04 -2.22922e-05        00000 
 1.69036e-02  3.29736e-02        00000 
 3.09601e-02  6.85759e-02        00000 
 4.11438e-02  1.05037e-01        00000 
 4.48566e-02  1.43077e-01        00000 
 5.01635e-02  1.81142e-01        00000 
 5.17623e-02  2.22180e-01        00000 
 5.04439e-02  2.67267e-01        00000 
 5.03414e-02  3.14236e-01        00000 
 5.36579e-02  3.63606e-01        00000 
 6.30439e-02  4.17260e-01        00000 
 7.36074e-02  4.66666e-01        00000 
 8.33347e-02  5.12155e-01        00000 
 8.44842e-02  5.45146e-01        00000 
 7.73603e-02  5.77981e-01        00000 
 6.88644e-02  6.16702e-01        00000 
 5.70402e-02  6.45193e-01        00000 
 4.03444e-02  6.77595e-01        00000 
 2.28790e-02  7.05388e-01        00000 
-1.69427e-03  7.33180e-01        00000 
-3.68042e-04 -1.64502e-03        00000 
 1.74235e-02  3.75107e-02        00000 
 2.78078e-02  7.54833e-02        00000 
 3.22080e-02  1.16716e-01        00000 
 3.73908e-02  1.57325e-01        00000 
 3.98874e-02  2.01731e-01        00000 
 4.08155e-02  2.44237e-01        00000 
 4.04238e-02  2.93595e-01        00000 
 4.31280e-02  3.37006e-01        00000 
 4.63131e-02  3.82227e-01        00000 
 5.26230e-02  4.32785e-01        00000 
 6.03233e-02  4.78219e-01        00000 
 6.53725e-02  5.24975e-01        00000 
 6.73319e-02  5.65453e-01        00000 
 6.35088e-02  6.04521e-01        00000 
 5.99901e-02  6.50493e-01        00000 
 5.33153e-02  6.87972e-01        00000 
 3.77611e-02  7.21542e-01        00000 
 2.07298e-02  7.54134e-01        00000 
-6.97874e-04  7.86993e-01        00000 
 2.31192e-03 -4.24866e-05        00000 
 1.72252e-02  3.99456e-02        00000 
 2.38146e-02  8.24641e-02        00000 
 2.50241e-02  1.24825e-01        00000 
 2.83581e-02  1.71804e-01        00000 
 2.65565e-02  2.16800e-01        00000 
 2.66337e-02  2.62520e-01        00000 
 2.98266e-02  3.10729e-01        00000 
 3.48887e-02  3.58784e-01        00000 
 3.66657e-02  4.03445e-01        00000 
 4.09114e-02  4.49626e-01        00000 
 4.61098e-02  4.98513e-01        00000 
 5.17566e-02  5.47858e-01        00000 
 5.42761e-02  5.92117e-01        00000 
 5.33562e-02  6.37617e-01        00000 
 4.71068e-02  6.81543e-01        00000 
 4.15263e-02  7.26685e-01        00000 
 3.17636e-02  7.68930e-01        00000 
 1.79538e-02  8.08126e-01        00000 
-1.47251e-05  8.46501e-01        00000 
 2.23079e-03 -9.35792e-04        00000 
 1.33806e-02  4.27626e-02        00000 
 1.77605e-02  8.85315e-02        00000 
 1.80609e-02  1.33018e-01        00000 
 2.12439e-02  1.86103e-01        00000 
 2.16549e-02  2.30551e-01        00000 
 2.02102e-02  2.77653e-01        00000 
 2.26659e-02  3.30400e-01        00000 
 2.36364e-02  3.74036e-01        00000 
 2.25624e-02  4.19732e-01        00000 
 2.73652e-02  4.72445e-01        00000 
 2.94141e-02  5.22390e-01        00000 
 3.35696e-02  5.72748e-01        00000 
 3.58277e-02  6.19212e-01        00000 
 3.70938e-02  6.70547e-01        00000 
 3.28054e-02  7.17717e-01        00000 
 2.83352e-02  7.62704e-01        00000 
 2.51773e-02  8.12065e-01        00000 
 1.47438e-02  8.54597e-01        00000 
-2.34599e-03  8.97085e-01        00000 
-3.27156e-03 -3.44491e-03        00000 
 4.38886e-03  4.66423e-02        00000 
 1.10454e-02  9.58818e-02        00000 
 1.01786e-02  1.48905e-01        00000 
 1.06476e-02  2.00077e-01        00000 
 1.15604e-02  2.43992e-01        00000 
 9.89940e-03  2.98397e-01        00000 
 1.02813e-02  3.50313e-01        00000 
 1.14377e-02  3.97990e-01        00000 
 1.37775e-02  4.45501e-01        00000 
 1.53770e-02  4.97967e-01        00000 
 1.64199e-02  5.47056e-01        00000 
 1.72520e-02  6.02915e-01        00000 
 1.57089e-02  6.49823e-01        00000 
 1.68956e-02  6.99908e-01        00000 
 1.85477e-02  7.57362e-01        00000 
 1.48255e-02  8.07124e-01        00000 
 1.33969e-02  8.52998e-01        00000 
 6.27007e-03  8.99986e-01        00000 
-3.51213e-03  9.49009e-01        00000 
 1.25438e-03  1.99787e-03        00000 
 5.64078e-03  4.93746e-02        00000 
 4.27661e-03  1.03558e-01        00000 
 4.65720e-03  1.55976e-01        00000 
 2.28342e-03  2.11256e-01        00000 
 4.32204e-03  2.62161e-01        00000 
 1.91647e-03  3.12625e-01        00000 
 1.99223e-03  3.67422e-01        00000 
 2.44300e-03  4.21268e-01        00000 
-8.59645e-04  4.69962e-01        00000 
-2.35222e-03  5.24376e-01        00000 
-6.91012e-04  5.78872e-01        00000 
-7.51176e-04  6.28662e-01        00000 
-8.55681e-04  6.83556e-01        00000 
-1.37591e-03  7.34029e-01        00000 
-4.96273e-04  7.86309e-01        00000 
-1.90953e-03  8.42111e-01        00000 
-2.78098e-03  8.94546e-01        00000 
-4.57699e-03  9.43339e-01        00000 
-1.52956e-03  1.00005e+00        00000 
 5.58455e-04  3.10561e-03        00000 
 3.93783e-03  4.67153e-03        00000 
 5.81139e-03  4.43468e-03        00000 
 7.65991e-03  4.65162e-03        00000 
 5.54494e-03  5.76761e-03        00000 
 3.05112e-03  7.65506e-03        00000 
 1.81149e-03  7.66853e-03        00000 
 2.73243e-03  7.42053e-03        00000 
 4.13988e-03  1.10607e-02        00000 
 4.36561e-03  1.25373e-02        00000 
 5.54781e-03  1.43925e-02        00000 
 5.00470e-03  1.15890e-02        00000 
 5.39877e-03  1.11494e-02        00000 
 6.17265e-03  1.41732e-02        00000 
 5.93974e-03  1.65554e-02        00000 
 5.61195e-03  1.66038e-02        00000 
 5.88494e-03  1.86803e-02        00000 
 1.72426e-03  2.03095e-02        00000 
 3.56400e-03  2.14406e-02        00000 
 1.83859e-03  1.29259e-03        00000 
 8.85320e-03  4.95217e-03        00000 
 9.22444e-03  7.60428e-03        00000 
 1.09445e-02  1.31319e-02        00000 
 1.09042e-02  1.74172e-02        00000 
 1.17160e-02  2.25504e-02        00000 
 1.23169e-02  2.65525e-02        00000 
 1.45013e-02  3.14823e-02        00000 
 1.64302e-02  3.38968e-02        00000 
 1.98511e-02  3.70131e-02        00000 
 2.12089e-02  4.00897e-02        00000 
 2.28675e-02  4.26500e-02        00000 
 2.39085e-02  4.29044e-02        00000 
 2.46044e-02  4.92472e-02        00000 
 2.23344e-02  5.65165e-02        00000 
 1.84925e-02  5.71436e-02        00000 
 1.30508e-02  5.60187e-02        00000 
 1.13179e-02  6.59801e-02        00000 
 4.72395e-03  7.49764e-02        00000 
 3.74629e-03  5.40187e-03        00000 
 1.00722e-02  9.67448e-03        00000 
 1.27895e-02  1.44239e-02        00000 
 1.40812e-02  1.76037e-02        00000 
 1.40887e-02  2.40761e-02        00000 
 1.53577e-02  3.45282e-02        00000 
 1.87690e-02  4.22147e-02        00000 
 2.23657e-02  4.66221e-02        00000 
 2.90986e-02  5.28258e-02        00000 
 3.61402e-02  5.94378e-02        00000 
 3.80326e-02  6.61341e-02        00000 
 3.94329e-02  7.45659e-02        00000 
 4.01915e-02  7.99767e-02        00000 
 3.92939e-02  8.69843e-02        00000 
 3.63081e-02  9.51155e-02        00000 
 2.88013e-02  9.60038e-02        00000 
 2.42745e-02  1.03219e-01        00000 
 1.65082e-02  1.13506e-01        00000 
 6.06926e-03  1.27588e-01        00000 
 1.49682e-03  5.35512e-03        00000 
 1.24069e-02  1.31770e-02        00000 
 1.75898e-02  1.87149e-02        00000 
 1.93390e-02  2.56293e-02        00000 
 2.05309e-02  3.23901e-02        00000 
 1.97309e-02  4.00395e-02        00000 
 2.18166e-02  5.19744e-02        00000 
 2.91753e-02  6.04090e-02        00000 
 3.69908e-02  7.04809e-02        00000 
 4.25249e-02  7.98071e-02        00000 
 4.64841e-02  9.07239e-02        00000 
 4.77802e-02  1.01185e-01        00000 
 4.82780e-02  1.12552e-01        00000 
 4.83814e-02  1.23114e-01        00000 
 4.38327e-02  1.32697e-01        00000 
 3.64077e-02  1.42512e-01        00000 
 2.88812e-02  1.50490e-01        00000 
 1.88213e-02  1.62334e-01        00000 
 5.72782e-03  1.78372e-01        00000 
 2.24748e-03  4.34274e-03        00000 
 1.45117e-02  1.33030e-02        00000 
 2.14268e-02  1.93144e-02        00000 
 2.30763e-02  3.00378e-02        00000 
 2.42724e-02  3.70019e-02        00000 
 2.38254e-02  4.58007e-02        00000 
 2.64147e-02  5.87543e-02        00000 
 2.98647e-02  6.92892e-02        00000 
 3.81344e-02  8.40009e-02        00000 
 4.44458e-02  9.78172e-02        00000 
 5.32140e-02  1.17730e-01        00000 
 5.52435e-02  1.31677e-01        00000 
 5.60100e-02  1.46722e-01        00000 
 5.60654e-02  1.63465e-01        00000 
 5.10389e-02  1.75561e-01        00000 
 4.26059e-02  1.86774e-01        00000 
 3.16580e-02  2.03220e-01        00000 
 2.11620e-02  2.15820e-01        00000 
 8.43014e-03  2.22690e-01        00000 
 3.70855e-03  4.05558e-03        00000 
 1.85211e-02  1.54925e-02        00000 