<?xml version="1.0" encoding="utf-8"?>
<VTKFile byte_order="LittleEndian" type="UnstructuredGrid" version="0.1">
   <UnstructuredGrid>
      <Piece NumberOfCells="1444" NumberOfPoints="761">
         <Points>
            <DataArray Name="Points" NumberOfComponents="3" format="ascii" type="Float32">
-1.0000 -1.0000 0.0000
-1.0000 -0.8947 0.0000
-1.0000 -0.7895 0.0000
-1.0000 -0.6842 0.0000
-1.0000 -0.5789 0.0000
-1.0000 -0.4737 0.0000
-1.0000 -0.3684 0.0000
-1.0000 -0.2632 0.0000
-1.0000 -0.1579 0.0000
-1.0000 -0.0526 0.0000
-1.0000 0.0526 0.0000
-1.0000 0.1579 0.0000
-1.0000 0.2632 0.0000
-1.0000 0.3684 0.0000
-1.0000 0.4737 0.0000
-1.0000 0.5789 0.0000
-1.0000 0.6842 0.0000
-1.0000 0.7895 0.0000
-1.0000 0.8947 0.0000
-1.0000 1.0000 0.0000
-0.8947 -1.0000 0.0000
-0.8947 -0.8947 0.0000
-0.8947 -0.7895 0.0000
-0.8947 -0.6842 0.0000
-0.8947 -0.5789 0.0000
-0.8947 -0.4737 0.0000
-0.8947 -0.3684 0.0000
-0.8947 -0.2632 0.0000
-0.8947 -0.1579 0.0000
-0.8947 -0.0526 0.0000
-0.8947 0.0526 0.0000
-0.8947 0.1579 0.0000
-0.8947 0.2632 0.0000
-0.8947 0.3684 0.0000
-0.8947 0.4737 0.0000
-0.8947 0.5789 0.0000
-0.8947 0.6842 0.0000
-0.8947 0.7895 0.0000
-0.8947 0.8947 0.0000
-0.8947 1.0000 0.0000
-0.7895 -1.0000 0.0000
-0.7895 -0.8947 0.0000
-0.7895 -0.7895 0.0000
-0.7895 -0.6842 0.0000
-0.7895 -0.5789 0.0000
-0.7895 -0.4737 0.0000
-0.7895 -0.3684 0.0000
-0.7895 -0.2632 0.0000
-0.7895 -0.1579 0.0000
-0.7895 -0.0526 0.0000
-0.7895 0.0526 0.0000
-0.7895 0.1579 0.0000
-0.7895 0.2632 0.0000
-0.7895 0.3684 0.0000
-0.7895 0.4737 0.0000
-0.7895 0.5789 0.0000
-0.7895 0.6842 0.0000
-0.7895 0.7895 0.0000
-0.7895 0.8947 0.0000
-0.7895 1.0000 0.0000
-0.6842 -1.0000 0.0000
-0.6842 -0.8947 0.0000
-0.6842 -0.7895 0.0000
-0.6842 -0.6842 0.0000
-0.6842 -0.5789 0.0000
-0.6842 -0.4737 0.0000
-0.6842 -0.3684 0.0000
-0.6842 -0.2632 0.0000
-0.6842 -0.1579 0.0000
-0.6842 -0.0526 0.0000
-0.6842 0.0526 0.0000
-0.6842 0.1579 0.0000
-0.6842 0.2632 0.0000
-0.6842 0.3684 0.0000
-0.6842 0.4737 0.0000
-0.6842 0.5789 0.0000
-0.6842 0.6842 0.0000
-0.6842 0.7895 0.0000
-0.6842 0.8947 0.0000
-0.6842 1.0000 0.0000
-0.5789 -1.0000 0.0000
-0.5789 -0.8947 0.0000
-0.5789 -0.7895 0.0000
-0.5789 -0.6842 0.0000
-0.5789 -0.5789 0.0000
-0.5789 -0.4737 0.0000
-0.5789 -0.3684 0.0000
-0.5789 -0.2632 0.0000
-0.5789 -0.1579 0.0000
-0.5789 -0.0526 0.0000
-0.5789 0.0526 0.0000
-0.5789 0.1579 0.0000
-0.5789 0.2632 0.0000
-0.5789 0.3684 0.0000
-0.5789 0.4737 0.0000
-0.5789 0.5789 0.0000
-0.5789 0.6842 0.0000
-0.5789 0.7895 0.0000
-0.5789 0.8947 0.0000
-0.5789 1.0000 0.0000
-0.4737 -1.0000 0.0000
-0.4737 -0.8947 0.0000
-0.4737 -0.7895 0.0000
-0.4737 -0.6842 0.0000
-0.4737 -0.5789 0.0000
-0.4737 -0.4737 0.0000
-0.4737 -0.3684 0.0000
-0.4737 -0.2632 0.0000
-0.4737 -0.1579 0.0000
-0.4737 -0.0526 0.0000
-0.4737 0.0526 0.0000
-0.4737 0.1579 0.0000
-0.4737 0.2632 0.0000
-0.4737 0.3684 0.0000
-0.4737 0.4737 0.0000
-0.4737 0.5789 0.0000
-0.4737 0.6842 0.0000
-0.4737 0.7895 0.0000
-0.4737 0.8947 0.0000
-0.4737 1.0000 0.0000
-0.3684 -1.0000 0.0000
-0.3684 -0.8947 0.0000
-0.3684 -0.7895 0.0000
-0.3684 -0.6842 0.0000
-0.3684 -0.5789 0.0000
-0.3684 -0.4737 0.0000
-0.3684 -0.3684 0.0000
-0.3684 -0.2632 0.0000
-0.3684 -0.1579 0.0000
-0.3684 -0.0526 0.0000
-0.3684 0.0526 0.0000
-0.3684 0.1579 0.0000
-0.3684 0.2632 0.0000
-0.3684 0.3684 0.0000
-0.3684 0.4737 0.0000
-0.3684 0.5789 0.0000
-0.3684 0.6842 0.0000
-0.3684 0.7895 0.0000
-0.3684 0.8947 0.0000
-0.3684 1.0000 0.0000
-0.2632 -1.0000 0.0000
-0.2632 -0.8947 0.0000
-0.2632 -0.7895 0.0000
-0.2632 -0.6842 0.0000
-0.2632 -0.5789 0.0000
-0.2632 -0.4737 0.0000
-0.2632 -0.3684 0.0000
-0.2632 -0.2632 0.0000
-0.2632 -0.1579 0.0000
-0.2632 -0.0526 0.0000
-0.2632 0.0526 0.0000
-0.2632 0.1579 0.0000
-0.2632 0.2632 0.0000
-0.2632 0.3684 0.0000
-0.2632 0.4737 0.0000
-0.2632 0.5789 0.0000
-0.2632 0.6842 0.0000
-0.2632 0.7895 0.0000
-0.2632 0.8947 0.0000
-0.2632 1.0000 0.0000
-0.1579 -1.0000 0.0000
-0.1579 -0.8947 0.0000
-0.1579 -0.7895 0.0000
-0.1579 -0.6842 0.0000
-0.1579 -0.5789 0.0000
-0.1579 -0.4737 0.0000
-0.1579 -0.3684 0.0000
-0.1579 -0.2632 0.0000
-0.1579 -0.1579 0.0000
-0.1579 -0.0526 0.0000
-0.1579 0.0526 0.0000
-0.1579 0.1579 0.0000
-0.1579 0.2632 0.0000
-0.1579 0.3684 0.0000
-0.1579 0.4737 0.0000
-0.1579 0.5789 0.0000
-0.1579 0.6842 0.0000
-0.1579 0.7895 0.0000
-0.1579 0.8947 0.0000
-0.1579 1.0000 0.0000
-0.0526 -1.0000 0.0000
-0.0526 -0.8947 0.0000
-0.0526 -0.7895 0.0000
-0.0526 -0.6842 0.0000
-0.0526 -0.5789 0.0000
-0.0526 -0.4737 0.0000
-0.0526 -0.3684 0.0000
-0.0526 -0.2632 0.0000
-0.0526 -0.1579 0.0000
-0.0526 -0.0526 0.0000
-0.0526 0.0526 0.0000
-0.0526 0.1579 0.0000
-0.0526 0.2632 0.0000
-0.0526 0.3684 0.0000
-0.0526 0.4737 0.0000
-0.0526 0.5789 0.0000
-0.0526 0.6842 0.0000
-0.0526 0.7895 0.0000
-0.0526 0.8947 0.0000
-0.0526 1.0000 0.0000
0.0526 -1.0000 0.0000
0.0526 -0.8947 0.0000
0.0526 -0.7895 0.0000
0.0526 -0.6842 0.0000
0.0526 -0.5789 0.0000
0.0526 -0.4737 0.0000
0.0526 -0.3684 0.0000
0.0526 -0.2632 0.0000
0.0526 -0.1579 0.0000
0.0526 -0.0526 0.0000
0.0526 0.0526 0.0000
0.0526 0.1579 0.0000
0.0526 0.2632 0.0000
0.0526 0.3684 0.0000
0.0526 0.4737 0.0000
0.0526 0.5789 0.0000
0.0526 0.6842 0.0000
0.0526 0.7895 0.0000
0.0526 0.8947 0.0000
0.0526 1.0000 0.0000
0.1579 -1.0000 0.0000
0.1579 -0.8947 0.0000
0.1579 -0.7895 0.0000
0.1579 -0.6842 0.0000
0.1579 -0.5789 0.0000
0.1579 -0.4737 0.0000
0.1579 -0.3684 0.0000
0.1579 -0.2632 0.0000
0.1579 -0.1579 0.0000
0.1579 -0.0526 0.0000
0.1579 0.0526 0.0000
0.1579 0.1579 0.0000
0.1579 0.2632 0.0000
0.1579 0.3684 0.0000
0.1579 0.4737 0.0000
0.1579 0.5789 0.0000
0.1579 0.6842 0.0000
0.1579 0.7895 0.0000
0.1579 0.8947 0.0000
0.1579 1.0000 0.0000
0.2632 -1.0000 0.0000
0.2632 -0.8947 0.0000
0.2632 -0.7895 0.0000
0.2632 -0.6842 0.0000
0.2632 -0.5789 0.0000
0.2632 -0.4737 0.0000
0.2632 -0.3684 0.0000
0.2632 -0.2632 0.0000
0.2632 -0.1579 0.0000
0.2632 -0.0526 0.0000
0.2632 0.0526 0.0000
0.2632 0.1579 0.0000
0.2632 0.2632 0.0000
0.2632 0.3684 0.0000
0.2632 0.4737 0.0000
0.2632 0.5789 0.0000
0.2632 0.6842 0.0000
0.2632 0.7895 0.0000
0.2632 0.8947 0.0000
0.2632 1.0000 0.0000
0.3684 -1.0000 0.0000
0.3684 -0.8947 0.0000
0.3684 -0.7895 0.0000
0.3684 -0.6842 0.0000
0.3684 -0.5789 0.0000
0.3684 -0.4737 0.0000
0.3684 -0.3684 0.0000
0.3684 -0.2632 0.0000
0.3684 -0.1579 0.0000
0.3684 -0.0526 0.0000
0.3684 0.0526 0.0000
0.3684 0.1579 0.0000
0.3684 0.2632 0.0000
0.3684 0.3684 0.0000
0.3684 0.4737 0.0000
0.3684 0.5789 0.0000
0.3684 0.6842 0.0000
0.3684 0.7895 0.0000
0.3684 0.8947 0.0000
0.3684 1.0000 0.0000
0.4737 -1.0000 0.0000
0.4737 -0.8947 0.0000
0.4737 -0.7895 0.0000
0.4737 -0.6842 0.0000
0.4737 -0.5789 0.0000
0.4737 -0.4737 0.0000
0.4737 -0.3684 0.0000
0.4737 -0.2632 0.0000
0.4737 -0.1579 0.0000
0.4737 -0.0526 0.0000
0.4737 0.0526 0.0000
0.4737 0.1579 0.0000
0.4737 0.2632 0.0000
0.4737 0.3684 0.0000
0.4737 0.4737 0.0000
0.4737 0.5789 0.0000
0.4737 0.6842 0.0000
0.4737 0.7895 0.0000
0.4737 0.8947 0.0000
0.4737 1.0000 0.0000
0.5789 -1.0000 0.0000
0.5789 -0.8947 0.0000
0.5789 -0.7895 0.0000
0.5789 -0.6842 0.0000
0.5789 -0.5789 0.0000
0.5789 -0.4737 0.0000
0.5789 -0.3684 0.0000
0.5789 -0.2632 0.0000
0.5789 -0.1579 0.0000
0.5789 -0.0526 0.0000
0.5789 0.0526 0.0000
0.5789 0.1579 0.0000
0.5789 0.2632 0.0000
0.5789 0.3684 0.0000
0.5789 0.4737 0.0000
0.5789 0.5789 0.0000
0.5789 0.6842 0.0000
0.5789 0.7895 0.0000
0.5789 0.8947 0.0000
0.5789 1.0000 0.0000
0.6842 -1.0000 0.0000
0.6842 -0.8947 0.0000
0.6842 -0.7895 0.0000
0.6842 -0.6842 0.0000
0.6842 -0.5789 0.0000
0.6842 -0.4737 0.0000
0.6842 -0.3684 0.0000
0.6842 -0.2632 0.0000
0.6842 -0.1579 0.0000
0.6842 -0.0526 0.0000
0.6842 0.0526 0.0000
0.6842 0.1579 0.0000
0.6842 0.2632 0.0000
0.6842 0.3684 0.0000
0.6842 0.4737 0.0000
0.6842 0.5789 0.0000
0.6842 0.6842 0.0000
0.6842 0.7895 0.0000
0.6842 0.8947 0.0000
0.6842 1.0000 0.0000
0.7895 -1.0000 0.0000
0.7895 -0.8947 0.0000
0.7895 -0.7895 0.0000
0.7895 -0.6842 0.0000
0.7895 -0.5789 0.0000
0.7895 -0.4737 0.0000
0.7895 -0.3684 0.0000
0.7895 -0.2632 0.0000
0.7895 -0.1579 0.0000
0.7895 -0.0526 0.0000
0.7895 0.0526 0.0000
0.7895 0.1579 0.0000
0.7895 0.2632 0.0000
0.7895 0.3684 0.0000
0.7895 0.4737 0.0000
0.7895 0.5789 0.0000
0.7895 0.6842 0.0000
0.7895 0.7895 0.0000
0.7895 0.8947 0.0000
0.7895 1.0000 0.0000
0.8947 -1.0000 0.0000
0.8947 -0.8947 0.0000
0.8947 -0.7895 0.0000
0.8947 -0.6842 0.0000
0.8947 -0.5789 0.0000
0.8947 -0.4737 0.0000
0.8947 -0.3684 0.0000
0.8947 -0.2632 0.0000
0.8947 -0.1579 0.0000
0.8947 -0.0526 0.0000
0.8947 0.0526 0.0000
0.8947 0.1579 0.0000
0.8947 0.2632 0.0000
0.8947 0.3684 0.0000
0.8947 0.4737 0.0000
0.8947 0.5789 0.0000
0.8947 0.6842 0.0000
0.8947 0.7895 0.0000
0.8947 0.8947 0.0000
0.8947 1.0000 0.0000
1.0000 -1.0000 0.0000
1.0000 -0.8947 0.0000
1.0000 -0.7895 0.0000
1.0000 -0.6842 0.0000
1.0000 -0.5789 0.0000
1.0000 -0.4737 0.0000
1.0000 -0.3684 0.0000
1.0000 -0.2632 0.0000
1.0000 -0.1579 0.0000
1.0000 -0.0526 0.0000
1.0000 0.0526 0.0000
1.0000 0.1579 0.0000
1.0000 0.2632 0.0000
1.0000 0.3684 0.0000
1.0000 0.4737 0.0000
1.0000 0.5789 0.0000
1.0000 0.6842 0.0000
1.0000 0.7895 0.0000
1.0000 0.8947 0.0000
1.0000 1.0000 0.0000
-0.9474 -0.9474 0.0000
-0.9474 -0.8421 0.0000
-0.9474 -0.7368 0.0000
-0.9474 -0.6316 0.0000
-0.9474 -0.5263 0.0000
-0.9474 -0.4211 0.0000
-0.9474 -0.3158 0.0000
-0.9474 -0.2105 0.0000
-0.9474 -0.1053 0.0000
-0.9474 0.0000 0.0000
-0.9474 0.1053 0.0000
-0.9474 0.2105 0.0000
-0.9474 0.3158 0.0000
-0.9474 0.4211 0.0000
-0.9474 0.5263 0.0000
-0.9474 0.6316 0.0000
-0.9474 0.7368 0.0000
-0.9474 0.8421 0.0000
-0.9474 0.9474 0.0000
-0.8421 -0.9474 0.0000
-0.8421 -0.8421 0.0000
-0.8421 -0.7368 0.0000
-0.8421 -0.6316 0.0000
-0.8421 -0.5263 0.0000
-0.8421 -0.4211 0.0000
-0.8421 -0.3158 0.0000
-0.8421 -0.2105 0.0000
-0.8421 -0.1053 0.0000
-0.8421 0.0000 0.0000
-0.8421 0.1053 0.0000
-0.8421 0.2105 0.0000
-0.8421 0.3158 0.0000
-0.8421 0.4211 0.0000
-0.8421 0.5263 0.0000
-0.8421 0.6316 0.0000
-0.8421 0.7368 0.0000
-0.8421 0.8421 0.0000
-0.8421 0.9474 0.0000
-0.7368 -0.9474 0.0000
-0.7368 -0.8421 0.0000
[...]
         <PointData>
            <DataArray Name="fValues" NumberOfComponents="3" format="ascii" type="Float64">
-1.02213e-03  9.95636e-01        00000 
 2.24840e-03  9.50187e-01        00000 
 8.65839e-04  8.97674e-01        00000 
-1.09176e-03  8.45988e-01        00000 
-1.12023e-03  7.94828e-01        00000 
-4.78786e-04  7.40248e-01        00000 
-8.82007e-04  6.84647e-01        00000 
-2.25892e-03  6.33195e-01        00000 
-2.81271e-03  5.80517e-01        00000 
-8.98191e-04  5.28246e-01        00000 
-4.80962e-04  4.73113e-01        00000 
-1.20610e-03  4.26063e-01        00000 
 5.00909e-04  3.70833e-01        00000 
 4.19407e-04  3.16031e-01        00000 
 2.27956e-03  2.65218e-01        00000 
 3.45775e-03  2.09706e-01        00000 
 2.67715e-03  1.56864e-01        00000 
 1.60070e-03  1.01414e-01        00000 
 4.90585e-03  5.20278e-02        00000 
 2.02535e-03 -1.83624e-03        00000 
-3.79141e-04  9.49522e-01        00000 
 9.37857e-03  9.02456e-01        00000 
 1.16482e-02  8.56497e-01        00000 
 1.85665e-02  8.09640e-01        00000 
 1.73138e-02  7.54108e-01        00000 
 1.61781e-02  7.04429e-01        00000 
 2.01692e-02  6.53462e-01        00000 
 1.78487e-02  6.02774e-01        00000 
 1.61335e-02  5.56147e-01        00000 
 1.68381e-02  5.05242e-01        00000 
 1.59304e-02  4.53791e-01        00000 
 1.63259e-02  4.01902e-01        00000 
 1.60188e-02  3.51747e-01        00000 
 1.55115e-02  3.04706e-01        00000 
 1.58166e-02  2.50481e-01        00000 
 1.45797e-02  2.01131e-01        00000 
 1.44030e-02  1.48632e-01        00000 
 1.19402e-02  1.01526e-01        00000 
 7.20610e-03  4.86314e-02        00000 
 1.98895e-03  2.38946e-03        00000 
-5.82433e-04  8.99893e-01        00000 
 1.25793e-02  8.52529e-01        00000 
 2.32669e-02  8.11030e-01        00000 
 2.79723e-02  7.63882e-01        00000 
 3.26887e-02  7.18492e-01        00000 
 3.61892e-02  6.67402e-01        00000 
 3.60425e-02  6.18105e-01        00000 
 3.36008e-02  5.72221e-01        00000 
 2.94744e-02  5.25951e-01        00000 
 2.63267e-02  4.78274e-01        00000 
 2.42357e-02  4.29329e-01        00000 
 2.15497e-02  3.77894e-01        00000 
 2.16126e-02  3.31853e-01        00000 
 2.11184e-02  2.84207e-01        00000 
 2.29305e-02  2.34951e-01        00000 
 2.50330e-02  1.88878e-01        00000 
 2.34291e-02  1.41451e-01        00000 
 2.01051e-02  8.75472e-02        00000 
 1.10930e-02  4.20907e-02        00000 
 1.99985e-03  1.55107e-03        00000 
-2.14210e-03  8.42522e-01        00000 
 1.95663e-02  8.07229e-01        00000 
 3.22688e-02  7.68358e-01        00000 
 3.84696e-02  7.24002e-01        00000 
 4.79074e-02  6.82164e-01        00000 
 5.32507e-02  6.39278e-01        00000 
 5.41220e-02  5.91566e-01        00000 
 5.00614e-02  5.43989e-01        00000 
 4.22098e-02  4.96082e-01        00000 
 3.84792e-02  4.52156e-01        00000 
 3.49827e-02  4.04979e-01        00000 
 3.13165e-02  3.60022e-01        00000 
 3.09041e-02  3.14238e-01        00000 
 3.14109e-02  2.65004e-01        00000 
 3.31134e-02  2.18894e-01        00000 
 3.44185e-02  1.70524e-01        00000 
 3.24580e-02  1.30877e-01        00000 
 2.61486e-02  7.93198e-02        00000 
 1.39057e-02  3.93248e-02        00000 
 1.34098e-03  3.23475e-03        00000 
-1.52060e-04  7.90208e-01        00000 
 2.53242e-02  7.57553e-01        00000 
 3.84986e-02  7.22106e-01        00000 
 4.80259e-02  6.86008e-01        00000 
 6.06349e-02  6.47153e-01        00000 
 6.89299e-02  6.07296e-01        00000 
 7.19677e-02  5.63350e-01        00000 
 6.49541e-02  5.17827e-01        00000 
 5.74588e-02  4.75753e-01        00000 
 5.10360e-02  4.32223e-01        00000 
 4.51834e-02  3.85445e-01        00000 
 4.16723e-02  3.39837e-01        00000 
 3.94296e-02  2.93648e-01        00000 
 4.03353e-02  2.48277e-01        00000 
 4.15087e-02  2.06548e-01        00000 
 4.32105e-02  1.62622e-01        00000 
 3.99561e-02  1.17502e-01        00000 
 3.02732e-02  7.45308e-02        00000 
 1.61258e-02  3.83403e-02        00000 
 1.46532e-03  6.93155e-03        00000 
 1.52133e-03  7.39584e-01        00000 
 2.45063e-02  7.05418e-01        00000 
 4.13319e-02  6.79289e-01        00000 
 5.42979e-02  6.44960e-01        00000 
 7.09884e-02  6.14790e-01        00000 
 8.04988e-02  5.76625e-01        00000 
 8.29872e-02  5.38462e-01        00000 
 7.91339e-02  5.04822e-01        00000 
 7.24424e-02  4.67709e-01        00000 
 6.22740e-02  4.20164e-01        00000 
 5.29459e-02  3.70200e-01        00000 
 4.76542e-02  3.13570e-01        00000 
 4.55071e-02  2.69601e-01        00000 
 4.53272e-02  2.27543e-01        00000 
 4.68199e-02  1.88366e-01        00000 
 4.66734e-02  1.48545e-01        00000 
 4.42275e-02  1.04201e-01        00000 
 3.32246e-02  6.69275e-02        00000 
 1.89852e-02  3.42140e-02        00000 
 2.73240e-04  1.81401e-03        00000 
-6.70335e-04  6.88316e-01        00000 
 2.44696e-02  6.61955e-01        00000 
 4.13777e-02  6.35067e-01        00000 
 5.91316e-02  6.07766e-01        00000 
 7.70412e-02  5.78971e-01        00000 
 9.01738e-02  5.53828e-01        00000 
 9.53790e-02  5.26045e-01        00000 
 9.53772e-02  5.02616e-01        00000 
 8.79504e-02  4.66009e-01        00000 
 7.19881e-02  4.10732e-01        00000 
 5.77921e-02  3.46337e-01        00000 
 5.00645e-02  2.83615e-01        00000 
 4.85221e-02  2.37882e-01        00000 
 4.99488e-02  1.99753e-01        00000 
 4.84829e-02  1.64354e-01        00000 
 4.95671e-02  1.27088e-01        00000 
 4.64015e-02  9.05500e-02        00000 
 3.59280e-02  5.95700e-02        00000 
 2.15828e-02  2.94337e-02        00000 
-3.61075e-04 -1.08624e-03        00000 
-1.81725e-03  6.35526e-01        00000 
 2.28353e-02  6.13615e-01        00000 
 4.32455e-02  5.88317e-01        00000 
 6.11634e-02  5.68132e-01        00000 
 7.72188e-02  5.45903e-01        00000 
 9.22701e-02  5.27239e-01        00000 
 1.04897e-01  5.15570e-01        00000 
 1.10635e-01  5.03045e-01        00000 
 1.01962e-01  4.64213e-01        00000 
 8.18307e-02  4.00086e-01        00000 
 6.50744e-02  3.22196e-01        00000 
 5.02735e-02  2.44121e-01        00000 
 4.76813e-02  1.95134e-01        00000 
 5.02284e-02  1.63920e-01        00000 
 5.22338e-02  1.35051e-01        00000 
 5.29952e-02  1.04355e-01        00000 
 4.77770e-02  7.74383e-02        00000 
 3.61542e-02  5.16069e-02        00000 
 2.31103e-02  2.44831e-02        00000 
-5.29437e-05 -1.37200e-03        00000 
-1.31427e-03  5.77584e-01        00000 
 2.22490e-02  5.58973e-01        00000 
 4.25428e-02  5.40757e-01        00000 
 5.93035e-02  5.27182e-01        00000 
 7.51003e-02  5.13790e-01        00000 
 9.23919e-02  4.97398e-01        00000 
 1.09960e-01  4.98288e-01        00000 
 1.17947e-01  4.84542e-01        00000 
 1.11196e-01  4.40263e-01        00000 
 9.21512e-02  3.67927e-01        00000 
 7.20154e-02  2.83079e-01        00000 
 5.42612e-02  2.01025e-01        00000 
 4.32674e-02  1.46580e-01        00000 
 4.62182e-02  1.20960e-01        00000 
 5.09960e-02  1.03811e-01        00000 
 5.19859e-02  8.16233e-02        00000 
 4.60471e-02  6.31730e-02        00000 
 3.48566e-02  3.95705e-02        00000 
 2.19533e-02  2.21371e-02        00000 
-1.87158e-03 -1.88815e-03        00000 
 1.49298e-03  5.22504e-01        00000 
 2.36440e-02  5.07259e-01        00000 
 4.07798e-02  4.92414e-01        00000 
 5.39297e-02  4.80982e-01        00000 
 6.94033e-02  4.68851e-01        00000 
 8.98321e-02  4.61339e-01        00000 
 1.08262e-01  4.59899e-01        00000 
 1.19926e-01  4.47082e-01        00000 
 1.12548e-01  3.93509e-01        00000 
 9.30247e-02  3.18845e-01        00000 
 7.15043e-02  2.39054e-01        00000 
 5.22650e-02  1.61232e-01        00000 
 3.73222e-02  9.64983e-02        00000 
 4.21703e-02  7.95869e-02        00000 
 4.70375e-02  7.38098e-02        00000 
 4.61221e-02  6.33877e-02        00000 
 4.16846e-02  5.19451e-02        00000 
 3.29260e-02  2.96925e-02        00000 
 1.93583e-02  1.81696e-02        00000 
-7.96382e-04 -1.55791e-03        00000 
 8.90927e-04  4.67998e-01        00000 
 1.89741e-02  4.59109e-01        00000 
 3.64262e-02  4.45321e-01        00000 
 4.89562e-02  4.32128e-01        00000 
 6.43527e-02  4.15260e-01        00000 
 8.37272e-02  4.13256e-01        00000 
 1.00732e-01  4.02539e-01        00000 
 1.11975e-01  3.82802e-01        00000 
 1.07855e-01  3.31593e-01        00000 
 9.31036e-02  2.60771e-01        00000 
 7.00024e-02  1.84102e-01        00000 
 4.55338e-02  1.10268e-01        00000 
 3.26899e-02  6.59442e-02        00000 
 3.54538e-02  5.93334e-02        00000 
 4.03993e-02  5.84261e-02        00000 
 3.97746e-02  5.03717e-02        00000 
 3.61939e-02  4.27471e-02        00000 
 2.94344e-02  2.85356e-02        00000 
 1.59754e-02  1.54778e-02        00000 
 4.41975e-04 -1.73725e-03        00000 
 7.20420e-04  4.19239e-01        00000 
 1.29139e-02  4.06924e-01        00000 
 3.21228e-02  3.97058e-01        00000 
 4.67815e-02  3.75051e-01        00000 
 6.05046e-02  3.63432e-01        00000 
 7.69961e-02  3.56920e-01        00000 
 9.16403e-02  3.38549e-01        00000 
 1.00066e-01  3.10170e-01        00000 
 9.38837e-02  2.66585e-01        00000 
 7.81796e-02  2.02658e-01        00000 
 5.56885e-02  1.41666e-01        00000 
 3.49359e-02  8.35895e-02        00000 
 2.66659e-02  5.76148e-02        00000 
 2.94294e-02  5.61498e-02        00000 
 3.48571e-02  5.27723e-02        00000 
 3.75758e-02  4.29434e-02        00000 
 3.36950e-02  4.12892e-02        00000 
 2.58554e-02  2.68140e-02        00000 
 1.36435e-02  1.04225e-02        00000 
 6.56665e-04 -2.30634e-03        00000 
 2.20229e-03  3.67498e-01        00000 
 8.99514e-03  3.52212e-01        00000 
 2.83962e-02  3.38204e-01        00000 
 4.27965e-02  3.19888e-01        00000 
 5.72016e-02  3.07926e-01        00000 
 6.96288e-02  2.93935e-01        00000 
 8.20027e-02  2.74305e-01        00000 
 8.83147e-02  2.48017e-01        00000 
 7.97053e-02  2.06249e-01        00000 
 6.01536e-02  1.56176e-01        00000 
 4.27937e-02  1.11145e-01        00000 
 3.18615e-02  7.70286e-02        00000 
 2.85382e-02  6.19451e-02        00000 
 2.89733e-02  5.74245e-02        00000 
 3.23439e-02  5.00774e-02        00000 
 3.31768e-02  4.17676e-02        00000 
 2.90265e-02  3.58958e-02        00000 
 2.10714e-02  2.34904e-02        00000 
 1.17389e-02  1.01640e-02        00000 
-5.21693e-04 -1.70689e-03        00000 
-1.42306e-03  3.11522e-01        00000 
 9.68272e-03  2.99815e-01        00000 
 2.73116e-02  2.86645e-01        00000 
 3.96259e-02  2.66945e-01        00000 
 5.45274e-02  2.54279e-01        00000 
 6.40694e-02  2.37674e-01        00000 
 7.38091e-02  2.20773e-01        00000 
 7.74104e-02  1.99853e-01        00000 
 6.79043e-02  1.68241e-01        00000 
 5.28385e-02  1.33479e-01        00000 
 4.06092e-02  1.05401e-01        00000 
 3.25099e-02  8.07437e-02        00000 
 2.92205e-02  6.92151e-02        00000 
 2.91658e-02  5.90382e-02        00000 
 2.83628e-02  4.90941e-02        00000 
 2.91104e-02  3.97706e-02        00000 
 2.65661e-02  3.25803e-02        00000 
 1.68345e-02  2.05756e-02        00000 
 1.04205e-02  1.10467e-02        00000 
-3.32894e-04 -2.53111e-03        00000 
-4.30718e-03  2.61614e-01        00000 
 1.31843e-02  2.50512e-01        00000 
 2.54850e-02  2.32412e-01        00000 
 3.61847e-02  2.19311e-01        00000 
 4.69516e-02  2.01755e-01        00000 
 5.95040e-02  1.87559e-01        00000 
 6.58361e-02  1.71813e-01        00000 
 6.51234e-02  1.50467e-01        00000 
 5.88888e-02  1.35353e-01        00000 
 4.92075e-02  1.17534e-01        00000 
 3.96076e-02  1.00756e-01        00000 
 3.32145e-02  8.56806e-02        00000 
 2.89284e-02  7.19946e-02        00000 
 2.65449e-02  5.79476e-02        00000 
 2.74264e-02  4.73535e-02        00000 
 2.46289e-02  3.61471e-02        00000 
 2.18658e-02  2.92887e-02        00000 
 1.49201e-02  1.94222e-02        00000 
 8.95313e-03  1.00615e-02        00000 
-1.03936e-04 -1.45410e-03        00000 
-3.07090e-03  2.10868e-01        00000 
 1.09818e-02  1.94885e-01        00000 
 2.33072e-02  1.84750e-01        00000 
 3.38349e-02  1.71457e-01        00000 
 4.01131e-02  1.57399e-01        00000 
 4.79186e-02  1.44364e-01        00000 
 5.59098e-02  1.31108e-01        00000 
 5.68418e-02  1.15047e-01        00000 
 5.13800e-02  1.06180e-01        00000 
 4.52384e-02  9.74633e-02        00000 
 3.72302e-02  8.60772e-02        00000 
 3.09154e-02  7.72394e-02        00000 
 2.72850e-02  6.74345e-02        00000 
 2.51241e-02  5.52290e-02        00000 
 2.44949e-02  4.66067e-02        00000 
 2.14416e-02  3.27794e-02        00000 
 2.00254e-02  2.48270e-02        00000 
 1.65044e-02  1.91436e-02        00000 
 9.41065e-03  1.17601e-02        00000 
 1.86532e-03  2.39731e-03        00000 
-2.78105e-03  1.54756e-01        00000 
 9.34865e-03  1.44725e-01        00000 
 1.86996e-02  1.34993e-01        00000 
 2.61183e-02  1.30993e-01        00000 
 3.28986e-02  1.17094e-01        00000 
 4.10882e-02  1.04787e-01        00000 
 4.73908e-02  9.63844e-02        00000 
 4.77786e-02  8.48732e-02        00000 
 4.45896e-02  7.78862e-02        00000 
 3.88252e-02  7.50762e-02        00000 
 3.18536e-02  6.84355e-02        00000 
 2.59718e-02  6.29551e-02        00000 
 2.08398e-02  5.30841e-02        00000 
 1.80664e-02  4.64485e-02        00000 
 1.54837e-02  3.59318e-02        00000 
 1.57492e-02  2.81729e-02        00000 
 1.52450e-02  1.86838e-02        00000 
 1.32546e-02  1.40705e-02        00000 
 8.95325e-03  1.08993e-02        00000 
 1.33119e-03  2.23252e-03        00000 
-3.44516e-03  1.02329e-01        00000 
 1.01028e-02  9.39285e-02        00000 
 1.42357e-02  8.70553e-02        00000 
 1.89142e-02  8.18379e-02        00000 
 2.55399e-02  7.28204e-02        00000 
 2.93851e-02  6.77987e-02        00000 
 3.31463e-02  6.18125e-02        00000 
 3.27032e-02  5.85466e-02        00000 
 3.09704e-02  5.68079e-02        00000 
 2.64668e-02  5.17492e-02        00000 
 2.31542e-02  4.56114e-02        00000 
 1.98264e-02  4.23493e-02        00000 
 1.55314e-02  3.50657e-02        00000 
 1.26155e-02  3.29905e-02        00000 
 9.86131e-03  2.60302e-02        00000 
 8.99526e-03  2.29218e-02        00000 
 1.16633e-02  1.67733e-02        00000 
 1.17693e-02  1.19255e-02        00000 
 7.01113e-03  9.25294e-03        00000 
 8.45981e-04 -4.46965e-04        00000 
-2.23100e-03  5.02805e-02        00000 
 5.10951e-03  4.41295e-02        00000 
 6.80865e-03  4.66006e-02        00000 
 9.99133e-03  3.86543e-02        00000 
 1.37520e-02  3.39674e-02        00000 
 1.56798e-02  3.36272e-02        00000 
 1.60256e-02  2.87706e-02        00000 
 1.64019e-02  2.75895e-02        00000 
 1.48924e-02  2.87927e-02        00000 
 1.17513e-02  2.70437e-02        00000 
 1.04988e-02  2.00820e-02        00000 
 1.10341e-02  1.82447e-02        00000 
 1.13040e-02  1.56377e-02        00000 
 1.00650e-02  1.53207e-02        00000 
 7.83684e-03  1.26675e-02        00000 
 5.56769e-03  8.74751e-03        00000 
 6.11119e-03  7.11816e-03        00000 
 6.48869e-03  6.77954e-03        00000 
 6.00075e-03  6.12087e-03        00000 
 2.18993e-03  2.53541e-04        00000 
-1.19813e-03  3.22843e-03        00000 
-1.15318e-03  2.44866e-03        00000 
 3.02348e-03 -4.61725e-05        00000 
-1.15809e-03  1.23001e-03        00000 
-1.39862e-03  2.66298e-03        00000 
 7.29503e-04  6.67106e-04        00000 
 1.58435e-03  1.76586e-04        00000 
 1.41200e-03  1.82214e-03        00000 
-6.03501e-04  7.08234e-04        00000 
 2.47570e-03 -5.52792e-04        00000 
 2.01688e-03  2.60939e-04        00000 
 2.83908e-04 -1.97669e-03        00000 
 1.30917e-03  1.04462e-03        00000 
 1.38191e-03  6.87101e-04        00000 
 2.29651e-03  8.06626e-04        00000 
 2.61483e-03  1.21037e-03        00000 
 2.26112e-03 -6.53423e-04        00000 
 3.86038e-03  4.76081e-04        00000 
 6.38265e-03 -8.67453e-04        00000 
 7.76232e-03  7.07141e-04        00000 
 4.10826e-03  9.47367e-01        00000 
 4.23441e-03  9.03438e-01        00000 
 6.83238e-03  8.50357e-01        00000 
 9.77145e-03  7.98544e-01        00000 
 7.55330e-03  7.47581e-01        00000 
 8.94148e-03  6.99609e-01        00000 
 9.33037e-03  6.47840e-01        00000 
 9.50604e-03  5.95832e-01        00000 
 8.87871e-03  5.44451e-01        00000 
 9.55033e-03  4.92893e-01        00000 
 7.88235e-03  4.41943e-01        00000 
 8.56186e-03  3.89745e-01        00000 
 1.03445e-02  3.38397e-01        00000 
 1.07558e-02  2.81134e-01        00000 
 9.58701e-03  2.29488e-01        00000 
 1.00320e-02  1.78503e-01        00000 
 7.68765e-03  1.25857e-01        00000 
 7.02838e-03  7.52474e-02        00000 
 3.82452e-03  2.50443e-02        00000 
 4.49321e-03  9.01484e-01        00000 
 1.52811e-02  8.58153e-01        00000 
 2.22383e-02  8.12782e-01        00000 
 2.47322e-02  7.62589e-01        00000 
 2.60128e-02  7.09930e-01        00000 
 2.78963e-02  6.61121e-01        00000 
 2.64113e-02  6.12700e-01        00000 
 2.37569e-02  5.62422e-01        00000 
 2.11397e-02  5.15246e-01        00000 
 2.00491e-02  4.64672e-01        00000 
 1.98602e-02  4.18117e-01        00000 
 1.92276e-02  3.67628e-01        00000 
 1.90481e-02  3.19738e-01        00000 
 1.98780e-02  2.69457e-01        00000 
 1.89014e-02  2.15651e-01        00000 
 1.95564e-02  1.70201e-01        00000 
 1.85774e-02  1.22568e-01        00000 
 1.35795e-02  6.90958e-02        00000 
 5.42071e-03  2.39474e-02        00000 
 6.56817e-03  8.50445e-01        00000 
 2.35837e-02  8.08038e-01        00000 
 3.00774e-02  7.66420e-01        00000 
 3.79242e-02  7.21182e-01        00000 
 4.33395e-02  6.75264e-01        00000 
 4.55821e-02  6.27506e-01        00000 
 4.34979e-02  5.79747e-01        00000 
 3.90948e-02  5.34881e-01        00000 
 3.31966e-02  4.89398e-01        00000 
 3.13083e-02  4.41401e-01        00000 
 2.82130e-02  3.92424e-01        00000 
 2.51712e-02  3.43594e-01        00000 
 2.46142e-02  2.97998e-01        00000 
 2.70327e-02  2.49174e-01        00000 
 2.88243e-02  2.00848e-01        00000 
 2.92598e-02  1.59599e-01        00000 
 2.59494e-02  1.09257e-01        00000 
 1.82908e-02  6.11041e-02        00000 
 5.65152e-03  1.98701e-02        00000 
 1.17300e-02  8.01628e-01        00000 
 3.14004e-02  7.62760e-01        00000 
 3.82366e-02  7.25102e-01        00000 
 4.88404e-02  6.84144e-01        00000 
 5.81513e-02  6.47207e-01        00000 
 6.42475e-02  6.01051e-01        00000 
 6.22679e-02  5.56545e-01        00000 
 5.29390e-02  5.07165e-01        00000 
 4.61351e-02  4.63487e-01        00000 
 4.27040e-02  4.20185e-01        00000 
 3.86517e-02  3.74409e-01        00000 
 3.67728e-02  3.29077e-01        00000 
 3.66190e-02  2.81052e-01        00000 
 3.68444e-02  2.33628e-01        00000 
 3.87321e-02  1.89143e-01        00000 
 3.92070e-02  1.44913e-01        00000 
 3.31088e-02  1.00024e-01        00000 
 2.15438e-02  5.99018e-02        00000 
 7.81752e-03  2.17271e-02        00000 
 1.35420e-02  7.52045e-01        00000 
 3.49769e-02  7.14160e-01        00000 
 4.41368e-02  6.83397e-01        00000 
 5.98496e-02  6.46981e-01        00000 
 7.07457e-02  6.11133e-01        00000 
 7.80023e-02  5.69221e-01        00000 
 7.48735e-02  5.28313e-01        00000 
 6.93611e-02  4.89340e-01        00000 
 6.12248e-02  4.48153e-01        00000 
 5.36025e-02  4.02175e-01        00000 
 4.65148e-02  3.50835e-01        00000 
 4.35446e-02  3.05392e-01        00000 
 4.28372e-02  2.61285e-01        00000 
 4.34129e-02  2.17353e-01        00000 
 4.53539e-02  1.77584e-01        00000 
 4.50016e-02  1.34066e-01        00000 
 3.82857e-02  8.92349e-02        00000 
 2.45299e-02  5.35179e-02        00000 
 1.04344e-02  2.19410e-02        00000 
 1.15620e-02  6.97411e-01        00000 
 3.38901e-02  6.71348e-01        00000 