<?xml version="1.0" encoding="utf-8"?>
<VTKFile byte_order="LittleEndian" type="UnstructuredGrid" version="0.1">
   <UnstructuredGrid>
      <Piece NumberOfCells="10000" NumberOfPoints="10201">
         <Points>
            <DataArray Name="Points" NumberOfComponents="3" format="ascii" type="Float32">
0.0000 0.0000 0.0000
0.0000 0.0200 0.0000
0.0000 0.0400 0.0000
0.0000 0.0600 0.0000
0.0000 0.0800 0.0000
0.0000 0.1000 0.0000
0.0000 0.1200 0.0000
0.0000 0.1400 0.0000
0.0000 0.1600 0.0000
0.0000 0.1800 0.0000
0.0000 0.2000 0.0000
0.0000 0.2200 0.0000
0.0000 0.2400 0.0000
0.0000 0.2600 0.0000
0.0000 0.2800 0.0000
0.0000 0.3000 0.0000
0.0000 0.3200 0.0000
0.0000 0.3400 0.0000
0.0000 0.3600 0.0000
0.0000 0.3800 0.0000
0.0000 0.4000 0.0000
0.0000 0.4200 0.0000
0.0000 0.4400 0.0000
0.0000 0.4600 0.0000
0.0000 0.4800 0.0000
0.0000 0.5000 0.0000
0.0000 0.5200 0.0000
0.0000 0.5400 0.0000
0.0000 0.5600 0.0000
0.0000 0.5800 0.0000
0.0000 0.6000 0.0000
0.0000 0.6200 0.0000
0.0000 0.6400 0.0000
0.0000 0.6600 0.0000
0.0000 0.6800 0.0000
0.0000 0.7000 0.0000
0.0000 0.7200 0.0000
0.0000 0.7400 0.0000
0.0000 0.7600 0.0000
0.0000 0.7800 0.0000
0.0000 0.8000 0.0000
0.0000 0.8200 0.0000
0.0000 0.8400 0.0000
0.0000 0.8600 0.0000
0.0000 0.8800 0.0000
0.0000 0.9000 0.0000
0.0000 0.9200 0.0000
0.0000 0.9400 0.0000
0.0000 0.9600 0.0000
0.0000 0.9800 0.0000
0.0000 1.0000 0.0000
0.0000 1.0200 0.0000
0.0000 1.0400 0.0000
0.0000 1.0600 0.0000
0.0000 1.0800 0.0000
0.0000 1.1000 0.0000
0.0000 1.1200 0.0000
0.0000 1.1400 0.0000
0.0000 1.1600 0.0000
0.0000 1.1800 0.0000
0.0000 1.2000 0.0000
0.0000 1.2200 0.0000
0.0000 1.2400 0.0000
0.0000 1.2600 0.0000
0.0000 1.2800 0.0000
0.0000 1.3000 0.0000
0.0000 1.3200 0.0000
0.0000 1.3400 0.0000
0.0000 1.3600 0.0000
0.0000 1.3800 0.0000
0.0000 1.4000 0.0000
0.0000 1.4200 0.0000
0.0000 1.4400 0.0000
0.0000 1.4600 0.0000
0.0000 1.4800 0.0000
0.0000 1.5000 0.0000
0.0000 1.5200 0.0000
0.0000 1.5400 0.0000
0.0000 1.5600 0.0000
0.0000 1.5800 0.0000
0.0000 1.6000 0.0000
0.0000 1.6200 0.0000
0.0000 1.6400 0.0000
0.0000 1.6600 0.0000
0.0000 1.6800 0.0000
0.0000 1.7000 0.0000
0.0000 1.7200 0.0000
0.0000 1.7400 0.0000
0.0000 1.7600 0.0000
0.0000 1.7800 0.0000
0.0000 1.8000 0.0000
0.0000 1.8200 0.0000
0.0000 1.8400 0.0000
0.0000 1.8600 0.0000
0.0000 1.8800 0.0000
0.0000 1.9000 0.0000
0.0000 1.9200 0.0000
0.0000 1.9400 0.0000
0.0000 1.9600 0.0000
0.0000 1.9800 0.0000
0.0000 2.0000 0.0000
0.0200 0.0000 0.0000
0.0200 0.0200 0.0000
0.0200 0.0400 0.0000
0.0200 0.0600 0.0000
0.0200 0.0800 0.0000
0.0200 0.1000 0.0000
0.0200 0.1200 0.0000
0.0200 0.1400 0.0000
0.0200 0.1600 0.0000
0.0200 0.1800 0.0000
0.0200 0.2000 0.0000
0.0200 0.2200 0.0000
0.0200 0.2400 0.0000
0.0200 0.2600 0.0000
0.0200 0.2800 0.0000
0.0200 0.3000 0.0000
0.0200 0.3200 0.0000
0.0200 0.3400 0.0000
0.0200 0.3600 0.0000
0.0200 0.3800 0.0000
0.0200 0.4000 0.0000
0.0200 0.4200 0.0000
0.0200 0.4400 0.0000
0.0200 0.4600 0.0000
0.0200 0.4800 0.0000
0.0200 0.5000 0.0000
0.0200 0.5200 0.0000
0.0200 0.5400 0.0000
0.0200 0.5600 0.0000
0.0200 0.5800 0.0000
0.0200 0.6000 0.0000
0.0200 0.6200 0.0000
0.0200 0.6400 0.0000
0.0200 0.6600 0.0000
0.0200 0.6800 0.0000
0.0200 0.7000 0.0000
0.0200 0.7200 0.0000
0.0200 0.7400 0.0000
0.0200 0.7600 0.0000
0.0200 0.7800 0.0000
0.0200 0.8000 0.0000
0.0200 0.8200 0.0000
0.0200 0.8400 0.0000
0.0200 0.8600 0.0000
0.0200 0.8800 0.0000
0.0200 0.9000 0.0000
0.0200 0.9200 0.0000
0.0200 0.9400 0.0000
0.0200 0.9600 0.0000
0.0200 0.9800 0.0000
0.0200 1.0000 0.0000
0.0200 1.0200 0.0000
0.0200 1.0400 0.0000
0.0200 1.0600 0.0000
0.0200 1.0800 0.0000
0.0200 1.1000 0.0000
0.0200 1.1200 0.0000
0.0200 1.1400 0.0000
0.0200 1.1600 0.0000
0.0200 1.1800 0.0000
0.0200 1.2000 0.0000
0.0200 1.2200 0.0000
0.0200 1.2400 0.0000
0.0200 1.2600 0.0000
0.0200 1.2800 0.0000
0.0200 1.3000 0.0000
0.0200 1.3200 0.0000
0.0200 1.3400 0.0000
0.0200 1.3600 0.0000
0.0200 1.3800 0.0000
0.0200 1.4000 0.0000
0.0200 1.4200 0.0000
0.0200 1.4400 0.0000
0.0200 1.4600 0.0000
0.0200 1.4800 0.0000
0.0200 1.5000 0.0000
0.0200 1.5200 0.0000
0.0200 1.5400 0.0000
0.0200 1.5600 0.0000
0.0200 1.5800 0.0000
0.0200 1.6000 0.0000
0.0200 1.6200 0.0000
0.0200 1.6400 0.0000
0.0200 1.6600 0.0000
0.0200 1.6800 0.0000
0.0200 1.7000 0.0000
0.0200 1.7200 0.0000
0.0200 1.7400 0.0000
0.0200 1.7600 0.0000
0.0200 1.7800 0.0000
0.0200 1.8000 0.0000
0.0200 1.8200 0.0000
0.0200 1.8400 0.0000
0.0200 1.8600 0.0000
0.0200 1.8800 0.0000
0.0200 1.9000 0.0000
0.0200 1.9200 0.0000
0.0200 1.9400 0.0000
0.0200 1.9600 0.0000
0.0200 1.9800 0.0000
0.0200 2.0000 0.0000
0.0400 0.0000 0.0000
0.0400 0.0200 0.0000
0.0400 0.0400 0.0000
0.0400 0.0600 0.0000
0.0400 0.0800 0.0000
0.0400 0.1000 0.0000
0.0400 0.1200 0.0000
0.0400 0.1400 0.0000
0.0400 0.1600 0.0000
0.0400 0.1800 0.0000
0.0400 0.2000 0.0000
0.0400 0.2200 0.0000
0.0400 0.2400 0.0000
0.0400 0.2600 0.0000
0.0400 0.2800 0.0000
0.0400 0.3000 0.0000
0.0400 0.3200 0.0000
0.0400 0.3400 0.0000
0.0400 0.3600 0.0000
0.0400 0.3800 0.0000
0.0400 0.4000 0.0000
0.0400 0.4200 0.0000
0.0400 0.4400 0.0000
0.0400 0.4600 0.0000
0.0400 0.4800 0.0000
0.0400 0.5000 0.0000
0.0400 0.5200 0.0000
0.0400 0.5400 0.0000
0.0400 0.5600 0.0000
0.0400 0.5800 0.0000
0.0400 0.6000 0.0000
0.0400 0.6200 0.0000
0.0400 0.6400 0.0000
0.0400 0.6600 0.0000
0.0400 0.6800 0.0000
0.0400 0.7000 0.0000
0.0400 0.7200 0.0000
0.0400 0.7400 0.0000
0.0400 0.7600 0.0000
0.0400 0.7800 0.0000
0.0400 0.8000 0.0000
0.0400 0.8200 0.0000
0.0400 0.8400 0.0000
0.0400 0.8600 0.0000
0.0400 0.8800 0.0000
0.0400 0.9000 0.0000
0.0400 0.9200 0.0000
0.0400 0.9400 0.0000
0.0400 0.9600 0.0000
0.0400 0.9800 0.0000
0.0400 1.0000 0.0000
0.0400 1.0200 0.0000
0.0400 1.0400 0.0000
0.0400 1.0600 0.0000
0.0400 1.0800 0.0000
0.0400 1.1000 0.0000
0.0400 1.1200 0.0000
0.0400 1.1400 0.0000
0.0400 1.1600 0.0000
0.0400 1.1800 0.0000
0.0400 1.2000 0.0000
0.0400 1.2200 0.0000
0.0400 1.2400 0.0000
0.0400 1.2600 0.0000
0.0400 1.2800 0.0000
0.0400 1.3000 0.0000
0.0400 1.3200 0.0000
0.0400 1.3400 0.0000
0.0400 1.3600 0.0000
0.0400 1.3800 0.0000
0.0400 1.4000 0.0000
0.0400 1.4200 0.0000
0.0400 1.4400 0.0000
0.0400 1.4600 0.0000
0.0400 1.4800 0.0000
0.0400 1.5000 0.0000
0.0400 1.5200 0.0000
0.0400 1.5400 0.0000
0.0400 1.5600 0.0000
0.0400 1.5800 0.0000
0.0400 1.6000 0.0000
0.0400 1.6200 0.0000
0.0400 1.6400 0.0000
0.0400 1.6600 0.0000
0.0400 1.6800 0.0000
0.0400 1.7000 0.0000
0.0400 1.7200 0.0000
0.0400 1.7400 0.0000
0.0400 1.7600 0.0000
0.0400 1.7800 0.0000
0.0400 1.8000 0.0000
0.0400 1.8200 0.0000
0.0400 1.8400 0.0000
0.0400 1.8600 0.0000
0.0400 1.8800 0.0000
0.0400 1.9000 0.0000
0.0400 1.9200 0.0000
0.0400 1.9400 0.0000
0.0400 1.9600 0.0000
0.0400 1.9800 0.0000
0.0400 2.0000 0.0000
0.0600 0.0000 0.0000
0.0600 0.0200 0.0000
0.0600 0.0400 0.0000
0.0600 0.0600 0.0000
0.0600 0.0800 0.0000
0.0600 0.1000 0.0000
0.0600 0.1200 0.0000
0.0600 0.1400 0.0000
0.0600 0.1600 0.0000
0.0600 0.1800 0.0000
0.0600 0.2000 0.0000
0.0600 0.2200 0.0000
0.0600 0.2400 0.0000
0.0600 0.2600 0.0000
0.0600 0.2800 0.0000
0.0600 0.3000 0.0000
0.0600 0.3200 0.0000
0.0600 0.3400 0.0000
0.0600 0.3600 0.0000
0.0600 0.3800 0.0000
0.0600 0.4000 0.0000
0.0600 0.4200 0.0000
0.0600 0.4400 0.0000
0.0600 0.4600 0.0000
0.0600 0.4800 0.0000
0.0600 0.5000 0.0000
0.0600 0.5200 0.0000
0.0600 0.5400 0.0000
0.0600 0.5600 0.0000
0.0600 0.5800 0.0000
0.0600 0.6000 0.0000
0.0600 0.6200 0.0000
0.0600 0.6400 0.0000
0.0600 0.6600 0.0000
0.0600 0.6800 0.0000
0.0600 0.7000 0.0000
0.0600 0.7200 0.0000
0.0600 0.7400 0.0000
0.0600 0.7600 0.0000
0.0600 0.7800 0.0000
0.0600 0.8000 0.0000
0.0600 0.8200 0.0000
0.0600 0.8400 0.0000
0.0600 0.8600 0.0000
0.0600 0.8800 0.0000
0.0600 0.9000 0.0000
0.0600 0.9200 0.0000
0.0600 0.9400 0.0000
0.0600 0.9600 0.0000
0.0600 0.9800 0.0000
0.0600 1.0000 0.0000
0.0600 1.0200 0.0000
0.0600 1.0400 0.0000
0.0600 1.0600 0.0000
0.0600 1.0800 0.0000
0.0600 1.1000 0.0000
0.0600 1.1200 0.0000
0.0600 1.1400 0.0000
0.0600 1.1600 0.0000
0.0600 1.1800 0.0000
0.0600 1.2000 0.0000
0.0600 1.2200 0.0000
0.0600 1.2400 0.0000
0.0600 1.2600 0.0000
0.0600 1.2800 0.0000
0.0600 1.3000 0.0000
0.0600 1.3200 0.0000
0.0600 1.3400 0.0000
0.0600 1.3600 0.0000
0.0600 1.3800 0.0000
0.0600 1.4000 0.0000
0.0600 1.4200 0.0000
0.0600 1.4400 0.0000
0.0600 1.4600 0.0000
0.0600 1.4800 0.0000
0.0600 1.5000 0.0000
0.0600 1.5200 0.0000
0.0600 1.5400 0.0000
0.0600 1.5600 0.0000
0.0600 1.5800 0.0000
0.0600 1.6000 0.0000
0.0600 1.6200 0.0000
0.0600 1.6400 0.0000
0.0600 1.6600 0.0000
0.0600 1.6800 0.0000
0.0600 1.7000 0.0000
0.0600 1.7200 0.0000
0.0600 1.7400 0.0000
0.0600 1.7600 0.0000
0.0600 1.7800 0.0000
0.0600 1.8000 0.0000
0.0600 1.8200 0.0000
0.0600 1.8400 0.0000
0.0600 1.8600 0.0000
0.0600 1.8800 0.0000
0.0600 1.9000 0.0000
0.0600 1.9200 0.0000
0.0600 1.9400 0.0000
0.0600 1.9600 0.0000
0.0600 1.9800 0.0000
0.0600 2.0000 0.0000
0.0800 0.0000 0.0000
0.0800 0.0200 0.0000
0.0800 0.0400 0.0000
0.0800 0.0600 0.0000
0.0800 0.0800 0.0000
0.0800 0.1000 0.0000
0.0800 0.1200 0.0000
0.0800 0.1400 0.0000
0.0800 0.1600 0.0000
0.0800 0.1800 0.0000
0.0800 0.2000 0.0000
0.0800 0.2200 0.0000
0.0800 0.2400 0.0000
0.0800 0.2600 0.0000
0.0800 0.2800 0.0000
0.0800 0.3000 0.0000
0.0800 0.3200 0.0000
0.0800 0.3400 0.0000
0.0800 0.3600 0.0000
0.0800 0.3800 0.0000
0.0800 0.4000 0.0000
0.0800 0.4200 0.0000
0.0800 0.4400 0.0000
0.0800 0.4600 0.0000
0.0800 0.4800 0.0000
0.0800 0.5000 0.0000
0.0800 0.5200 0.0000
0.0800 0.5400 0.0000
0.0800 0.5600 0.0000
0.0800 0.5800 0.0000
0.0800 0.6000 0.0000
0.0800 0.6200 0.0000
0.0800 0.6400 0.0000
0.0800 0.6600 0.0000
0.0800 0.6800 0.0000
0.0800 0.7000 0.0000
0.0800 0.7200 0.0000
0.0800 0.7400 0.0000
0.0800 0.7600 0.0000
0.0800 0.7800 0.0000
0.0800 0.8000 0.0000
0.0800 0.8200 0.0000
0.0800 0.8400 0.0000
0.0800 0.8600 0.0000
0.0800 0.8800 0.0000
0.0800 0.9000 0.0000
0.0800 0.9200 0.0000
0.0800 0.9400 0.0000
0.0800 0.9600 0.0000
0.0800 0.9800 0.0000
0.0800 1.0000 0.0000
0.0800 1.0200 0.0000
0.0800 1.0400 0.0000
0.0800 1.0600 0.0000
0.0800 1.0800 0.0000
0.0800 1.1000 0.0000
0.0800 1.1200 0.0000
[...]
         <PointData>
            <DataArray Name="fValues" NumberOfComponents="1" format="ascii" type="Float64">
-7.50318e-01 
-1.05108e+00 
-7.44781e-01 
 1.14743e-04 
 7.44322e-01 
 1.05268e+00 
 7.44351e-01 
 5.91473e-07 
-7.44353e-01 
-1.05267e+00 
-7.44353e-01 
 3.04891e-09 
 7.44353e-01 
 1.05267e+00 
 7.44353e-01 
 1.57180e-11 
-7.44353e-01 
-1.05267e+00 
-7.44353e-01 
 8.06203e-14 
 7.44353e-01 
 1.05267e+00 
 7.44353e-01 
 3.82749e-15 
-7.44353e-01 
-1.05267e+00 
-7.44353e-01 
-1.59183e-15 
 7.44353e-01 
 1.05267e+00 
 7.44353e-01 
 2.98631e-16 
-7.44353e-01 
-1.05267e+00 
-7.44353e-01 
-1.48517e-16 
 7.44353e-01 
 1.05267e+00 
 7.44353e-01 
 1.53671e-15 
-7.44353e-01 
-1.05267e+00 
-7.44353e-01 
-4.66829e-15 
 7.44353e-01 
 1.05267e+00 
 7.44353e-01 
 5.80662e-15 
-7.44353e-01 
-1.05267e+00 
-7.44353e-01 
-1.63940e-15 
 7.44353e-01 
 1.05267e+00 
 7.44353e-01 
 1.39877e-15 
-7.44353e-01 
-1.05267e+00 
-7.44353e-01 
-8.07666e-15 
 7.44353e-01 
 1.05267e+00 
 7.44353e-01 
 9.19630e-15 
-7.44353e-01 
-1.05267e+00 
-7.44353e-01 
-6.67622e-15 
 7.44353e-01 
 1.05267e+00 
 7.44353e-01 
 9.58742e-15 
-7.44353e-01 
-1.05267e+00 
-7.44353e-01 
-9.78245e-15 
 7.44353e-01 
 1.05267e+00 
 7.44353e-01 
 6.78042e-15 
-7.44353e-01 
-1.05267e+00 
-7.44353e-01 
 1.11064e-12 
 7.44353e-01 
 1.05267e+00 
 7.44353e-01 
 2.18916e-10 
-7.44353e-01 
-1.05267e+00 
-7.44353e-01 
 4.24658e-08 
 7.44353e-01 
 1.05267e+00 
 7.44351e-01 
 8.23816e-06 
-7.44384e-01 
-1.05256e+00 
-7.44781e-01 
 1.59816e-03 
 7.38389e-01 
-7.50318e-01 
-1.05108e+00 
-7.44781e-01 
 1.14743e-04 
 7.44322e-01 
 1.05268e+00 
 7.44351e-01 
 5.91473e-07 
-7.44353e-01 
-1.05267e+00 
-7.44353e-01 
 3.04891e-09 
 7.44353e-01 
 1.05267e+00 
 7.44353e-01 
 1.57175e-11 
-7.44353e-01 
-1.05267e+00 
-7.44353e-01 
 8.06674e-14 
 7.44353e-01 
 1.05267e+00 
 7.44353e-01 
 3.65562e-15 
-7.44353e-01 
-1.05267e+00 
-7.44353e-01 
-9.96884e-16 
 7.44353e-01 
 1.05267e+00 
 7.44353e-01 
-2.99623e-17 
-7.44353e-01 
-1.05267e+00 
-7.44353e-01 
-3.55230e-15 
 7.44353e-01 
 1.05267e+00 
 7.44353e-01 
 8.81736e-16 
-7.44353e-01 
-1.05267e+00 
-7.44353e-01 
-4.90344e-15 
 7.44353e-01 
 1.05267e+00 
 7.44353e-01 
 6.04170e-15 
-7.44353e-01 
-1.05267e+00 
-7.44353e-01 
 1.22823e-15 
 7.44353e-01 
 1.05267e+00 
 7.44353e-01 
-2.12463e-15 
-7.44353e-01 
-1.05267e+00 
-7.44353e-01 
-8.44033e-15 
 7.44353e-01 
 1.05267e+00 
 7.44353e-01 
 9.77511e-15 
-7.44353e-01 
-1.05267e+00 
-7.44353e-01 
-6.27310e-15 
 7.44353e-01 
 1.05267e+00 
 7.44353e-01 
 1.11587e-14 
-7.44353e-01 
-1.05267e+00 
-7.44353e-01 
-1.01768e-14 
 7.44353e-01 
 1.05267e+00 
 7.44353e-01 
 7.17766e-15 
-7.44353e-01 
-1.05267e+00 
-7.44353e-01 
 1.11379e-12 
 7.44353e-01 
 1.05267e+00 
 7.44353e-01 
 2.18916e-10 
-7.44353e-01 
-1.05267e+00 
-7.44353e-01 
 4.24658e-08 
 7.44353e-01 
 1.05267e+00 
 7.44351e-01 
 8.23816e-06 
-7.44384e-01 
-1.05256e+00 
-7.44781e-01 
 1.59816e-03 
 7.38389e-01 
-7.50318e-01 
-1.05108e+00 
-7.44781e-01 
 1.14743e-04 
 7.44322e-01 
 1.05268e+00 
 7.44351e-01 
 5.91473e-07 
-7.44353e-01 
-1.05267e+00 
-7.44353e-01 
 3.04891e-09 
 7.44353e-01 
 1.05267e+00 
 7.44353e-01 
 1.57178e-11 
-7.44353e-01 
-1.05267e+00 
-7.44353e-01 
 8.10345e-14 
 7.44353e-01 
 1.05267e+00 
 7.44353e-01 
 3.84535e-15 
-7.44353e-01 
-1.05267e+00 
-7.44353e-01 
-1.21316e-15 
 7.44353e-01 
 1.05267e+00 
 7.44353e-01 
 6.45199e-16 
-7.44353e-01 
-1.05267e+00 
-7.44353e-01 
-2.17705e-15 
 7.44353e-01 
 1.05267e+00 
 7.44353e-01 
 1.47699e-15 
-7.44353e-01 
-1.05267e+00 
-7.44353e-01 
-5.03467e-15 
 7.44353e-01 
 1.05267e+00 
 7.44353e-01 
 5.86587e-15 
-7.44353e-01 
-1.05267e+00 
-7.44353e-01 
 7.08259e-16 
 7.44353e-01 
 1.05267e+00 
 7.44353e-01 
-7.89409e-16 
-7.44353e-01 
-1.05267e+00 
-7.44353e-01 
-8.54678e-15 
 7.44353e-01 
 1.05267e+00 
 7.44353e-01 
 9.23934e-15 
-7.44353e-01 
-1.05267e+00 
-7.44353e-01 
-6.67769e-15 
 7.44353e-01 
 1.05267e+00 
 7.44353e-01 
 1.07463e-14 
-7.44353e-01 
-1.05267e+00 
-7.44353e-01 
-9.52521e-15 
 7.44353e-01 
 1.05267e+00 
 7.44353e-01 
 6.95472e-15 
-7.44353e-01 
-1.05267e+00 
-7.44353e-01 
 1.11293e-12 
 7.44353e-01 
 1.05267e+00 
 7.44353e-01 
 2.18916e-10 
-7.44353e-01 
-1.05267e+00 
-7.44353e-01 
 4.24658e-08 
 7.44353e-01 
 1.05267e+00 
 7.44351e-01 
 8.23816e-06 
-7.44384e-01 
-1.05256e+00 
-7.44781e-01 
 1.59816e-03 
 7.38389e-01 
-7.50318e-01 
-1.05108e+00 
-7.44781e-01 
 1.14743e-04 
 7.44322e-01 
 1.05268e+00 
 7.44351e-01 
 5.91473e-07 
-7.44353e-01 
-1.05267e+00 
-7.44353e-01 
 3.04891e-09 
 7.44353e-01 
 1.05267e+00 
 7.44353e-01 
 1.57179e-11 
-7.44353e-01 
-1.05267e+00 
-7.44353e-01 
 8.03103e-14 
 7.44353e-01 
 1.05267e+00 
 7.44353e-01 
 3.66923e-15 
-7.44353e-01 
-1.05267e+00 
-7.44353e-01 
-1.08367e-15 
 7.44353e-01 
 1.05267e+00 
 7.44353e-01 
 1.80428e-16 
-7.44353e-01 
-1.05267e+00 
-7.44353e-01 
-2.81397e-15 
 7.44353e-01 
 1.05267e+00 
 7.44353e-01 
 1.17070e-15 
-7.44353e-01 
-1.05267e+00 
-7.44353e-01 
-4.82408e-15 
 7.44353e-01 
 1.05267e+00 
 7.44353e-01 
 5.94763e-15 
-7.44353e-01 
-1.05267e+00 
-7.44353e-01 
 4.10783e-16 
 7.44353e-01 
 1.05267e+00 
 7.44353e-01 
-1.41639e-15 
-7.44353e-01 
-1.05267e+00 
-7.44353e-01 
-8.17995e-15 
 7.44353e-01 
 1.05267e+00 
 7.44353e-01 
 9.47530e-15 
-7.44353e-01 
-1.05267e+00 
-7.44353e-01 
-6.34112e-15 
 7.44353e-01 
 1.05267e+00 
 7.44353e-01 
 1.12854e-14 
-7.44353e-01 
-1.05267e+00 
-7.44353e-01 
-1.01026e-14 
 7.44353e-01 
 1.05267e+00 
 7.44353e-01 
 6.87152e-15 
-7.44353e-01 
-1.05267e+00 
-7.44353e-01 
 1.11313e-12 
 7.44353e-01 
 1.05267e+00 
 7.44353e-01 
 2.18916e-10 
-7.44353e-01 
-1.05267e+00 
-7.44353e-01 
 4.24658e-08 
 7.44353e-01 
 1.05267e+00 
 7.44351e-01 
 8.23816e-06 
-7.44384e-01 
-1.05256e+00 
-7.44781e-01 
 1.59816e-03 
 7.38389e-01 
-7.50318e-01 
-1.05108e+00 
-7.44781e-01 
 1.14743e-04 
 7.44322e-01 
 1.05268e+00 
 7.44351e-01 
 5.91473e-07 
-7.44353e-01 
-1.05267e+00 
-7.44353e-01 
 3.04891e-09 
 7.44353e-01 
 1.05267e+00 
 7.44353e-01 
 1.57180e-11 
-7.44353e-01 
-1.05267e+00 
-7.44353e-01 
 8.10330e-14 
 7.44353e-01 
 1.05267e+00 
 7.44353e-01 
 3.75087e-15 
-7.44353e-01 
-1.05267e+00 
-7.44353e-01 
-1.51666e-15 
 7.44353e-01 
 1.05267e+00 
 7.44353e-01 
 3.07715e-17 
-7.44353e-01 
-1.05267e+00 
-7.44353e-01 
-2.30066e-15 
 7.44353e-01 
 1.05267e+00 
 7.44353e-01 
 1.36057e-15 
-7.44353e-01 
-1.05267e+00 
-7.44353e-01 
-5.04968e-15 
 7.44353e-01 
 1.05267e+00 
 7.44353e-01 
 5.84811e-15 
-7.44353e-01 
-1.05267e+00 
-7.44353e-01 
 1.01950e-15 
 7.44353e-01 
 1.05267e+00 
 7.44353e-01 
-1.08080e-15 
-7.44353e-01 
-1.05267e+00 
-7.44353e-01 
-8.51098e-15 
 7.44353e-01 
 1.05267e+00 
 7.44353e-01 
 8.96865e-15 
-7.44353e-01 
-1.05267e+00 
-7.44353e-01 
-6.28501e-15 
 7.44353e-01 
 1.05267e+00 
 7.44353e-01 
 1.09176e-14 
-7.44353e-01 
-1.05267e+00 
-7.44353e-01 
-9.51235e-15 
 7.44353e-01 
 1.05267e+00 
 7.44353e-01 
 7.19327e-15 
-7.44353e-01 
-1.05267e+00 
-7.44353e-01 
 1.11311e-12 
 7.44353e-01 
 1.05267e+00 
 7.44353e-01 
 2.18916e-10 
-7.44353e-01 
-1.05267e+00 
-7.44353e-01 
 4.24658e-08 
 7.44353e-01 
 1.05267e+00 
 7.44351e-01 
 8.23816e-06 
-7.44384e-01 
-1.05256e+00 
-7.44781e-01 
 1.59816e-03 
 7.38389e-01 
-7.50318e-01 
-1.05108e+00 
-7.44781e-01 
 1.14743e-04 
 7.44322e-01 
 1.05268e+00 
 7.44351e-01 
 5.91473e-07 
-7.44353e-01 
-1.05267e+00 
-7.44353e-01 
 3.04891e-09 
 7.44353e-01 
 1.05267e+00 
 7.44353e-01 
 1.57173e-11 
-7.44353e-01 
-1.05267e+00 
-7.44353e-01 
 8.04416e-14 
 7.44353e-01 
 1.05267e+00 
 7.44353e-01 
 3.48255e-15 
-7.44353e-01 
-1.05267e+00 
-7.44353e-01 
-1.04688e-15 
 7.44353e-01 
 1.05267e+00 
 7.44353e-01 
 3.84725e-16 
-7.44353e-01 
-1.05267e+00 
-7.44353e-01 
-2.60443e-15 
 7.44353e-01 
 1.05267e+00 
 7.44353e-01 
 1.03825e-15 
-7.44353e-01 
-1.05267e+00 
-7.44353e-01 
-4.58322e-15 
 7.44353e-01 
 1.05267e+00 
 7.44353e-01 
 5.98692e-15 
-7.44353e-01 
-1.05267e+00 
-7.44353e-01 
 5.54020e-16 
 7.44353e-01 
 1.05267e+00 
 7.44353e-01 
-1.24975e-15 
-7.44353e-01 
-1.05267e+00 
-7.44353e-01 
-8.32079e-15 
 7.44353e-01 
 1.05267e+00 
 7.44353e-01 
 9.52407e-15 
-7.44353e-01 
-1.05267e+00 
-7.44353e-01 
-6.65903e-15 
 7.44353e-01 
 1.05267e+00 
 7.44353e-01 
 1.11746e-14 
-7.44353e-01 
-1.05267e+00 
-7.44353e-01 
-9.87868e-15 
 7.44353e-01 
 1.05267e+00 
 7.44353e-01 
 6.84526e-15 
-7.44353e-01 
-1.05267e+00 
-7.44353e-01 
 1.11323e-12 
 7.44353e-01 
 1.05267e+00 
 7.44353e-01 
 2.18916e-10 
-7.44353e-01 
-1.05267e+00 
-7.44353e-01 
 4.24658e-08 
 7.44353e-01 
 1.05267e+00 
 7.44351e-01 
 8.23816e-06 
-7.44384e-01 
-1.05256e+00 
-7.44781e-01 
 1.59816e-03 
 7.38389e-01 
-7.50318e-01 
-1.05108e+00 
-7.44781e-01 
 1.14743e-04 
 7.44322e-01 
 1.05268e+00 
 7.44351e-01 
 5.91473e-07 
-7.44353e-01 
-1.05267e+00 
-7.44353e-01 
 3.04891e-09 
 7.44353e-01 
 1.05267e+00 
 7.44353e-01 
 1.57179e-11 
-7.44353e-01 
-1.05267e+00 
-7.44353e-01 
 8.06907e-14 
 7.44353e-01 
 1.05267e+00 
 7.44353e-01 
 3.96057e-15 
-7.44353e-01 
-1.05267e+00 
-7.44353e-01 
-1.03086e-15 
 7.44353e-01 
 1.05267e+00 
 7.44353e-01 
-1.55856e-16 
-7.44353e-01 
-1.05267e+00 
-7.44353e-01 
-2.45956e-15 
 7.44353e-01 
 1.05267e+00 
 7.44353e-01 
 9.67627e-16 
-7.44353e-01 
-1.05267e+00 
-7.44353e-01 
-5.14726e-15 
 7.44353e-01 
 1.05267e+00 
 7.44353e-01 
 5.50185e-15 
-7.44353e-01 
-1.05267e+00 
-7.44353e-01 
 8.01247e-16 
 7.44353e-01 
 1.05267e+00 
 7.44353e-01 
-1.23798e-15 
-7.44353e-01 
-1.05267e+00 
-7.44353e-01 
-8.37983e-15 
 7.44353e-01 
 1.05267e+00 
 7.44353e-01 
 9.38896e-15 
-7.44353e-01 
-1.05267e+00 
-7.44353e-01 
-6.43736e-15 
 7.44353e-01 
 1.05267e+00 
 7.44353e-01 
 1.08634e-14 
-7.44353e-01 
-1.05267e+00 
-7.44353e-01 
-9.79161e-15 
 7.44353e-01 
 1.05267e+00 
 7.44353e-01 
 7.14058e-15 
-7.44353e-01 
-1.05267e+00 
-7.44353e-01 
 1.11319e-12 
 7.44353e-01 
 1.05267e+00 
 7.44353e-01 
 2.18916e-10 
-7.44353e-01 
-1.05267e+00 
-7.44353e-01 
 4.24658e-08 
 7.44353e-01 
 1.05267e+00 
 7.44351e-01 
 8.23816e-06 
-7.44384e-01 
-1.05256e+00 
-7.44781e-01 
 1.59816e-03 
 7.38389e-01 
-7.50318e-01 
-1.05108e+00 
-7.44781e-01 
 1.14743e-04 
 7.44322e-01 
 1.05268e+00 
 7.44351e-01 
 5.91473e-07 
-7.44353e-01 
-1.05267e+00 
-7.44353e-01 
 3.04891e-09 
 7.44353e-01 
 1.05267e+00 
 7.44353e-01 
 1.57175e-11 
-7.44353e-01 
-1.05267e+00 
-7.44353e-01 
 8.05722e-14 
 7.44353e-01 
 1.05267e+00 
 7.44353e-01 
 3.81891e-15 
-7.44353e-01 
-1.05267e+00 
-7.44353e-01 
-1.49965e-15 
 7.44353e-01 
 1.05267e+00 
 7.44353e-01 
 3.14564e-16 
-7.44353e-01 
-1.05267e+00 
-7.44353e-01 
-2.92472e-15 
 7.44353e-01 
 1.05267e+00 
 7.44353e-01 
 1.34629e-15 
-7.44353e-01 
-1.05267e+00 
-7.44353e-01 
-4.94659e-15 
 7.44353e-01 
 1.05267e+00 
 7.44353e-01 
 5.97671e-15 
-7.44353e-01 
-1.05267e+00 
-7.44353e-01 
 6.64911e-16 
 7.44353e-01 
 1.05267e+00 
 7.44353e-01 
-1.10826e-15 
-7.44353e-01 
-1.05267e+00 
-7.44353e-01 
-8.44679e-15 
 7.44353e-01 
 1.05267e+00 
 7.44353e-01 
 9.40196e-15 
-7.44353e-01 
-1.05267e+00 
-7.44353e-01 
-6.14948e-15 
 7.44353e-01 
 1.05267e+00 
 7.44353e-01 
 1.15728e-14 
-7.44353e-01 
-1.05267e+00 
-7.44353e-01 
-9.67542e-15 
 7.44353e-01 
 1.05267e+00 
 7.44353e-01 
 7.16506e-15 
-7.44353e-01 
-1.05267e+00 
-7.44353e-01 
 1.11311e-12 
 7.44353e-01 
 1.05267e+00 
 7.44353e-01 
 2.18916e-10 
-7.44353e-01 
-1.05267e+00 
-7.44353e-01 
 4.24658e-08 
 7.44353e-01 
 1.05267e+00 
 7.44351e-01 
 8.23816e-06 
-7.44384e-01 
-1.05256e+00 
-7.44781e-01 
 1.59816e-03 
 7.38389e-01 
-7.50318e-01 
-1.05108e+00 
-7.44781e-01 
 1.14743e-04 
 7.44322e-01 
 1.05268e+00 
 7.44351e-01 
 5.91473e-07 
-7.44353e-01 
-1.05267e+00 
-7.44353e-01 
 3.04891e-09 
 7.44353e-01 
 1.05267e+00 
 7.44353e-01 
 1.57180e-11 
-7.44353e-01 
-1.05267e+00 
-7.44353e-01 
 8.06254e-14 
 7.44353e-01 
 1.05267e+00 
 7.44353e-01 
 3.46204e-15 
-7.44353e-01 
-1.05267e+00 
-7.44353e-01 
-7.57282e-16 
 7.44353e-01 
 1.05267e+00 
 7.44353e-01 
 4.61915e-16 
-7.44353e-01 
-1.05267e+00 
-7.44353e-01 
-2.49685e-15 
 7.44353e-01 
 1.05267e+00 
 7.44353e-01 
 1.44483e-15 
-7.44353e-01 
-1.05267e+00 
-7.44353e-01 
-4.82143e-15 
 7.44353e-01 
 1.05267e+00 
 7.44353e-01 
 5.73546e-15 
-7.44353e-01 
-1.05267e+00 
-7.44353e-01 
 9.04854e-16 
 7.44353e-01 
 1.05267e+00 
 7.44353e-01 
-1.04991e-15 
-7.44353e-01 
-1.05267e+00 
-7.44353e-01 
-8.18029e-15 
 7.44353e-01 
 1.05267e+00 
 7.44353e-01 
 9.26089e-15 
-7.44353e-01 
-1.05267e+00 
-7.44353e-01 
-6.47453e-15 
 7.44353e-01 
 1.05267e+00 
 7.44353e-01 
 1.08210e-14 
-7.44353e-01 
-1.05267e+00 
-7.44353e-01 
-9.60515e-15 
 7.44353e-01 
 1.05267e+00 
 7.44353e-01 
 6.69622e-15 
-7.44353e-01 
-1.05267e+00 
-7.44353e-01 
 1.11329e-12 
 7.44353e-01 
 1.05267e+00 
 7.44353e-01 
 2.18916e-10 
-7.44353e-01 
-1.05267e+00 
-7.44353e-01 
 4.24658e-08 
 7.44353e-01 
 1.05267e+00 
 7.44351e-01 
 8.23816e-06 
-7.44384e-01 
-1.05256e+00 
-7.44781e-01 
 1.59816e-03 
 7.38389e-01 
-7.50318e-01 
-1.05108e+00 
-7.44781e-01 
 1.14743e-04 
 7.44322e-01 
 1.05268e+00 
 7.44351e-01 
 5.91473e-07 
-7.44353e-01 
-1.05267e+00 
-7.44353e-01 
 3.04891e-09 
 7.44353e-01 
 1.05267e+00 
 7.44353e-01 
 1.57174e-11 
-7.44353e-01 
-1.05267e+00 
-7.44353e-01 
 8.07186e-14 
 7.44353e-01 
 1.05267e+00 
 7.44353e-01 
 3.77920e-15 
-7.44353e-01 
-1.05267e+00 
-7.44353e-01 
-1.16297e-15 
 7.44353e-01 
 1.05267e+00 
 7.44353e-01 
 2.30636e-16 
-7.44353e-01 
-1.05267e+00 
-7.44353e-01 
-2.98102e-15 
 7.44353e-01 
 1.05267e+00 
 7.44353e-01 
 1.17445e-15 
-7.44353e-01 
-1.05267e+00 
-7.44353e-01 
-5.05811e-15 
 7.44353e-01 
 1.05267e+00 
 7.44353e-01 
 5.86992e-15 
-7.44353e-01 
-1.05267e+00 
-7.44353e-01 
 6.04721e-16 
 7.44353e-01 
 1.05267e+00 
 7.44353e-01 
-1.19084e-15 
-7.44353e-01 
-1.05267e+00 
-7.44353e-01 
-8.53179e-15 
 7.44353e-01 
 1.05267e+00 
 7.44353e-01 
 9.13049e-15 
-7.44353e-01 
-1.05267e+00 
-7.44353e-01 
-6.64234e-15 
 7.44353e-01 
 1.05267e+00 
 7.44353e-01 
 1.12628e-14 
-7.44353e-01 
-1.05267e+00 
-7.44353e-01 
-1.00200e-14 
 7.44353e-01 
 1.05267e+00 
 7.44353e-01 
 6.97110e-15 
-7.44353e-01 
-1.05267e+00 
-7.44353e-01 
 1.11288e-12 
 7.44353e-01 
 1.05267e+00 
 7.44353e-01 
 2.18916e-10 
-7.44353e-01 
-1.05267e+00 
-7.44353e-01 
 4.24658e-08 
 7.44353e-01 
 1.05267e+00 
 7.44351e-01 
 8.23816e-06 
-7.44384e-01 
-1.05256e+00 
-7.44781e-01 
 1.59816e-03 
 7.38389e-01 
-7.50318e-01 
-1.05108e+00 
-7.44781e-01 
 1.14743e-04 
 7.44322e-01 
 1.05268e+00 
 7.44351e-01 
 5.91473e-07 
-7.44353e-01 
-1.05267e+00 
-7.44353e-01 
 3.04891e-09 
 7.44353e-01 
 1.05267e+00 
 7.44353e-01 
 1.57182e-11 
-7.44353e-01 
-1.05267e+00 
-7.44353e-01 
 8.03794e-14 
 7.44353e-01 
 1.05267e+00 
 7.44353e-01 
 3.22085e-15 
-7.44353e-01 
-1.05267e+00 
-7.44353e-01 
-1.12698e-15 
 7.44353e-01 
 1.05267e+00 
 7.44353e-01 
 9.31073e-17 
-7.44353e-01 
-1.05267e+00 
-7.44353e-01 
-2.56173e-15 
 7.44353e-01 
 1.05267e+00 
 7.44353e-01 
 1.26286e-15 
-7.44353e-01 
-1.05267e+00 
-7.44353e-01 
-5.08565e-15 
 7.44353e-01 
 1.05267e+00 
 7.44353e-01 
 5.99009e-15 
-7.44353e-01 
-1.05267e+00 
-7.44353e-01 
 7.88889e-16 
 7.44353e-01 
 1.05267e+00 
 7.44353e-01 
-1.27817e-15 
-7.44353e-01 
-1.05267e+00 
-7.44353e-01 
-8.70914e-15 
 7.44353e-01 
 1.05267e+00 
 7.44353e-01 
 9.61863e-15 
-7.44353e-01 
-1.05267e+00 
-7.44353e-01 
-6.37490e-15 
 7.44353e-01 
 1.05267e+00 
 7.44353e-01 
 1.06708e-14 
-7.44353e-01 
-1.05267e+00 
-7.44353e-01 
-9.41979e-15 
 7.44353e-01 
 1.05267e+00 
 7.44353e-01 
 7.05337e-15 
-7.44353e-01 
-1.05267e+00 
-7.44353e-01 
 1.11330e-12 
 7.44353e-01 
 1.05267e+00 
 7.44353e-01 
 2.18916e-10 
-7.44353e-01 
-1.05267e+00 
-7.44353e-01 
 4.24658e-08 
 7.44353e-01 
 1.05267e+00 
 7.44351e-01 
 8.23816e-06 
-7.44384e-01 
-1.05256e+00 
-7.44781e-01 
 1.59816e-03 
 7.38389e-01 
-7.50318e-01 
-1.05108e+00 
-7.44781e-01 
 1.14743e-04 
 7.44322e-01 
 1.05268e+00 
 7.44351e-01 
 5.91473e-07 
-7.44353e-01 
-1.05267e+00 
-7.44353e-01 
 3.04891e-09 
 7.44353e-01 
 1.05267e+00 
 7.44353e-01 
 1.57174e-11 
-7.44353e-01 
-1.05267e+00 
-7.44353e-01 
 8.08283e-14 
 7.44353e-01 
 1.05267e+00 
 7.44353e-01 
 4.12795e-15 
-7.44353e-01 
-1.05267e+00 
-7.44353e-01 
-1.32182e-15 
 7.44353e-01 
 1.05267e+00 
 7.44353e-01 
 3.76262e-16 
-7.44353e-01 
-1.05267e+00 
-7.44353e-01 
-2.44828e-15 
 7.44353e-01 
 1.05267e+00 
 7.44353e-01 
 1.22436e-15 
-7.44353e-01 
-1.05267e+00 
-7.44353e-01 
-5.13355e-15 
 7.44353e-01 
 1.05267e+00 
 7.44353e-01 
 5.53495e-15 
-7.44353e-01 
-1.05267e+00 
-7.44353e-01 
 2.67021e-16 
 7.44353e-01 
 1.05267e+00 
 7.44353e-01 
-1.07156e-15 
-7.44353e-01 
-1.05267e+00 
-7.44353e-01 
-8.28628e-15 
 7.44353e-01 
 1.05267e+00 
 7.44353e-01 
 9.72146e-15 
-7.44353e-01 
-1.05267e+00 
-7.44353e-01 
-5.96260e-15 
 7.44353e-01 
 1.05267e+00 
 7.44353e-01 
 1.17377e-14 
-7.44353e-01 
-1.05267e+00 
-7.44353e-01 
-1.00001e-14 
 7.44353e-01 
 1.05267e+00 
 7.44353e-01 
 6.74049e-15 
-7.44353e-01 
-1.05267e+00 
-7.44353e-01 
 1.11291e-12 
 7.44353e-01 
 1.05267e+00 
 7.44353e-01 
 2.18916e-10 
-7.44353e-01 
-1.05267e+00 
-7.44353e-01 
 4.24658e-08 
 7.44353e-01 
 1.05267e+00 
 7.44351e-01 
 8.23816e-06 
-7.44384e-01 
-1.05256e+00 
-7.44781e-01 
 1.59816e-03 
 7.38389e-01 
-7.50318e-01 
-1.05108e+00 
-7.44781e-01 
 1.14743e-04 
 7.44322e-01 
 1.05268e+00 
 7.44351e-01 
 5.91473e-07 
-7.44353e-01 
-1.05267e+00 
-7.44353e-01 
 3.04891e-09 
 7.44353e-01 
 1.05267e+00 
 7.44353e-01 
 1.57181e-11 
-7.44353e-01 
-1.05267e+00 
-7.44353e-01 
 8.05606e-14 
 7.44353e-01 
 1.05267e+00 
 7.44353e-01 
 3.54886e-15 
-7.44353e-01 
-1.05267e+00 
-7.44353e-01 
-1.08094e-15 
 7.44353e-01 
 1.05267e+00 
 7.44353e-01 
-6.60187e-17 
-7.44353e-01 
-1.05267e+00 
-7.44353e-01 
-2.56712e-15 
 7.44353e-01 
 1.05267e+00 
 7.44353e-01 
 1.55030e-15 
-7.44353e-01 
-1.05267e+00 
-7.44353e-01 
-4.88443e-15 
 7.44353e-01 
 1.05267e+00 
 7.44353e-01 
 5.96945e-15 
-7.44353e-01 
-1.05267e+00 
-7.44353e-01 
 7.01190e-16 
 7.44353e-01 
 1.05267e+00 
 7.44353e-01 
-1.02684e-15 
-7.44353e-01 
-1.05267e+00 
-7.44353e-01 
-8.42459e-15 
 7.44353e-01 
 1.05267e+00 
 7.44353e-01 
 9.27857e-15 
-7.44353e-01 
-1.05267e+00 
-7.44353e-01 
-6.84815e-15 
 7.44353e-01 
 1.05267e+00 
 7.44353e-01 
 1.06688e-14 
-7.44353e-01 
-1.05267e+00 
-7.44353e-01 
-9.46417e-15 
 7.44353e-01 
 1.05267e+00 
 7.44353e-01 
 6.72258e-15 
-7.44353e-01 
-1.05267e+00 
-7.44353e-01 
 1.11342e-12 
 7.44353e-01 
 1.05267e+00 
 7.44353e-01 
 2.18916e-10 
-7.44353e-01 
-1.05267e+00 
-7.44353e-01 
 4.24658e-08 
 7.44353e-01 
 1.05267e+00 
 7.44351e-01 
 8.23816e-06 
-7.44384e-01 
-1.05256e+00 
-7.44781e-01 
 1.59816e-03 
 7.38389e-01 
-7.50318e-01 
-1.05108e+00 
-7.44781e-01 
 1.14743e-04 
 7.44322e-01 
 1.05268e+00 
 7.44351e-01 
 5.91473e-07 
-7.44353e-01 
-1.05267e+00 
-7.44353e-01 
 3.04891e-09 
 7.44353e-01 
 1.05267e+00 
 7.44353e-01 
 1.57173e-11 
-7.44353e-01 
-1.05267e+00 
-7.44353e-01 
 8.07466e-14 
 7.44353e-01 
 1.05267e+00 
 7.44353e-01 
 3.66377e-15 
-7.44353e-01 
-1.05267e+00 
-7.44353e-01 
-1.18783e-15 
 7.44353e-01 
 1.05267e+00 
 7.44353e-01 
 2.57859e-16 
-7.44353e-01 
-1.05267e+00 
-7.44353e-01 
-2.84489e-15 
 7.44353e-01 
 1.05267e+00 
 7.44353e-01 
 1.45828e-15 
-7.44353e-01 
-1.05267e+00 
-7.44353e-01 
-4.93487e-15 
 7.44353e-01 
 1.05267e+00 
 7.44353e-01 
 5.91165e-15 
-7.44353e-01 
-1.05267e+00 
-7.44353e-01 
 1.03280e-15 
 7.44353e-01 
 1.05267e+00 
 7.44353e-01 
-1.03938e-15 
-7.44353e-01 
-1.05267e+00 
-7.44353e-01 
-8.52756e-15 
 7.44353e-01 
 1.05267e+00 
 7.44353e-01 
 9.26434e-15 
-7.44353e-01 
-1.05267e+00 
-7.44353e-01 
-6.29043e-15 
 7.44353e-01 
 1.05267e+00 
 7.44353e-01 
 1.11687e-14 
-7.44353e-01 
-1.05267e+00 
-7.44353e-01 
-9.62248e-15 
 7.44353e-01 
 1.05267e+00 
 7.44353e-01 
 7.01322e-15 
-7.44353e-01 
-1.05267e+00 
-7.44353e-01 
 1.11315e-12 
 7.44353e-01 
 1.05267e+00 
 7.44353e-01 
 2.18916e-10 
-7.44353e-01 
-1.05267e+00 
-7.44353e-01 
 4.24658e-08 
 7.44353e-01 
 1.05267e+00 
 7.44351e-01 
 8.23816e-06 
-7.44384e-01 
-1.05256e+00 
-7.44781e-01 
 1.59816e-03 
 7.38389e-01 
-7.50318e-01 
-1.05108e+00 
-7.44781e-01 
 1.14743e-04 
 7.44322e-01 
 1.05268e+00 