<?xml version="1.0" encoding="utf-8"?>
<VTKFile byte_order="LittleEndian" type="UnstructuredGrid" version="0.1">
   <UnstructuredGrid>
      <Piece NumberOfCells="1296" NumberOfPoints="685">
         <Points>
            <DataArray Name="Points" NumberOfComponents="3" format="ascii" type="Float32">
0.0000 0.0000 0.0000
0.0000 0.1111 0.0000
0.0000 0.2222 0.0000
0.0000 0.3333 0.0000
0.0000 0.4444 0.0000
0.0000 0.5556 0.0000
0.0000 0.6667 0.0000
0.0000 0.7778 0.0000
0.0000 0.8889 0.0000
0.0000 1.0000 0.0000
0.2222 0.0000 0.0000
0.2222 0.1111 0.0000
0.2222 0.2222 0.0000
0.2222 0.3333 0.0000
0.2222 0.4444 0.0000
0.2222 0.5556 0.0000
0.2222 0.6667 0.0000
0.2222 0.7778 0.0000
0.2222 0.8889 0.0000
0.2222 1.0000 0.0000
0.4444 0.0000 0.0000
0.4444 0.1111 0.0000
0.4444 0.2222 0.0000
0.4444 0.3333 0.0000
0.4444 0.4444 0.0000
0.4444 0.5556 0.0000
0.4444 0.6667 0.0000
0.4444 0.7778 0.0000
0.4444 0.8889 0.0000
0.4444 1.0000 0.0000
0.6667 0.0000 0.0000
0.6667 0.1111 0.0000
0.6667 0.2222 0.0000
0.6667 0.3333 0.0000
0.6667 0.4444 0.0000
0.6667 0.5556 0.0000
0.6667 0.6667 0.0000
0.6667 0.7778 0.0000
0.6667 0.8889 0.0000
0.6667 1.0000 0.0000
0.8889 0.0000 0.0000
0.8889 0.1111 0.0000
0.8889 0.2222 0.0000
0.8889 0.3333 0.0000
0.8889 0.4444 0.0000
0.8889 0.5556 0.0000
0.8889 0.6667 0.0000
0.8889 0.7778 0.0000
0.8889 0.8889 0.0000
0.8889 1.0000 0.0000
1.1111 0.0000 0.0000
1.1111 0.1111 0.0000
1.1111 0.2222 0.0000
1.1111 0.3333 0.0000
1.1111 0.4444 0.0000
1.1111 0.5556 0.0000
1.1111 0.6667 0.0000
1.1111 0.7778 0.0000
1.1111 0.8889 0.0000
1.1111 1.0000 0.0000
1.3333 0.0000 0.0000
1.3333 0.1111 0.0000
1.3333 0.2222 0.0000
1.3333 0.3333 0.0000
1.3333 0.4444 0.0000
1.3333 0.5556 0.0000
1.3333 0.6667 0.0000
1.3333 0.7778 0.0000
1.3333 0.8889 0.0000
1.3333 1.0000 0.0000
1.5556 0.0000 0.0000
1.5556 0.1111 0.0000
1.5556 0.2222 0.0000
1.5556 0.3333 0.0000
1.5556 0.4444 0.0000
1.5556 0.5556 0.0000
1.5556 0.6667 0.0000
1.5556 0.7778 0.0000
1.5556 0.8889 0.0000
1.5556 1.0000 0.0000
1.7778 0.0000 0.0000
1.7778 0.1111 0.0000
1.7778 0.2222 0.0000
1.7778 0.3333 0.0000
1.7778 0.4444 0.0000
1.7778 0.5556 0.0000
1.7778 0.6667 0.0000
1.7778 0.7778 0.0000
1.7778 0.8889 0.0000
1.7778 1.0000 0.0000
2.0000 0.0000 0.0000
2.0000 0.1111 0.0000
2.0000 0.2222 0.0000
2.0000 0.3333 0.0000
2.0000 0.4444 0.0000
2.0000 0.5556 0.0000
2.0000 0.6667 0.0000
2.0000 0.7778 0.0000
2.0000 0.8889 0.0000
2.0000 1.0000 0.0000
0.1111 0.0556 0.0000
0.1111 0.1667 0.0000
0.1111 0.2778 0.0000
0.1111 0.3889 0.0000
0.1111 0.5000 0.0000
0.1111 0.6111 0.0000
0.1111 0.7222 0.0000
0.1111 0.8333 0.0000
0.1111 0.9444 0.0000
0.3333 0.0556 0.0000
0.3333 0.1667 0.0000
0.3333 0.2778 0.0000
0.3333 0.3889 0.0000
0.3333 0.5000 0.0000
0.3333 0.6111 0.0000
0.3333 0.7222 0.0000
0.3333 0.8333 0.0000
0.3333 0.9444 0.0000
0.5556 0.0556 0.0000
0.5556 0.1667 0.0000
0.5556 0.2778 0.0000
0.5556 0.3889 0.0000
0.5556 0.5000 0.0000
0.5556 0.6111 0.0000
0.5556 0.7222 0.0000
0.5556 0.8333 0.0000
0.5556 0.9444 0.0000
0.7778 0.0556 0.0000
0.7778 0.1667 0.0000
0.7778 0.2778 0.0000
0.7778 0.3889 0.0000
0.7778 0.5000 0.0000
0.7778 0.6111 0.0000
0.7778 0.7222 0.0000
0.7778 0.8333 0.0000
0.7778 0.9444 0.0000
1.0000 0.0556 0.0000
1.0000 0.1667 0.0000
1.0000 0.2778 0.0000
1.0000 0.3889 0.0000
1.0000 0.5000 0.0000
1.0000 0.6111 0.0000
1.0000 0.7222 0.0000
1.0000 0.8333 0.0000
1.0000 0.9444 0.0000
1.2222 0.0556 0.0000
1.2222 0.1667 0.0000
1.2222 0.2778 0.0000
1.2222 0.3889 0.0000
1.2222 0.5000 0.0000
1.2222 0.6111 0.0000
1.2222 0.7222 0.0000
1.2222 0.8333 0.0000
1.2222 0.9444 0.0000
1.4444 0.0556 0.0000
1.4444 0.1667 0.0000
1.4444 0.2778 0.0000
1.4444 0.3889 0.0000
1.4444 0.5000 0.0000
1.4444 0.6111 0.0000
1.4444 0.7222 0.0000
1.4444 0.8333 0.0000
1.4444 0.9444 0.0000
1.6667 0.0556 0.0000
1.6667 0.1667 0.0000
1.6667 0.2778 0.0000
1.6667 0.3889 0.0000
1.6667 0.5000 0.0000
1.6667 0.6111 0.0000
1.6667 0.7222 0.0000
1.6667 0.8333 0.0000
1.6667 0.9444 0.0000
1.8889 0.0556 0.0000
1.8889 0.1667 0.0000
1.8889 0.2778 0.0000
1.8889 0.3889 0.0000
1.8889 0.5000 0.0000
1.8889 0.6111 0.0000
1.8889 0.7222 0.0000
1.8889 0.8333 0.0000
1.8889 0.9444 0.0000
0.0000 0.0556 0.0000
0.0556 0.0278 0.0000
0.0556 0.0833 0.0000
0.0000 0.1667 0.0000
0.0556 0.1389 0.0000
0.0556 0.1944 0.0000
0.0000 0.2778 0.0000
0.0556 0.2500 0.0000
0.0556 0.3056 0.0000
0.0000 0.3889 0.0000
0.0556 0.3611 0.0000
0.0556 0.4167 0.0000
0.0000 0.5000 0.0000
0.0556 0.4722 0.0000
0.0556 0.5278 0.0000
0.0000 0.6111 0.0000
0.0556 0.5833 0.0000
0.0556 0.6389 0.0000
0.0000 0.7222 0.0000
0.0556 0.6944 0.0000
0.0556 0.7500 0.0000
0.0000 0.8333 0.0000
0.0556 0.8056 0.0000
0.0556 0.8611 0.0000
0.0000 0.9444 0.0000
0.0556 0.9167 0.0000
0.0556 0.9722 0.0000
0.2222 0.0556 0.0000
0.2778 0.0278 0.0000
0.2778 0.0833 0.0000
0.2222 0.1667 0.0000
0.2778 0.1389 0.0000
0.2778 0.1944 0.0000
0.2222 0.2778 0.0000
0.2778 0.2500 0.0000
0.2778 0.3056 0.0000
0.2222 0.3889 0.0000
0.2778 0.3611 0.0000
0.2778 0.4167 0.0000
0.2222 0.5000 0.0000
0.2778 0.4722 0.0000
0.2778 0.5278 0.0000
0.2222 0.6111 0.0000
0.2778 0.5833 0.0000
0.2778 0.6389 0.0000
0.2222 0.7222 0.0000
0.2778 0.6944 0.0000
0.2778 0.7500 0.0000
0.2222 0.8333 0.0000
0.2778 0.8056 0.0000
0.2778 0.8611 0.0000
0.2222 0.9444 0.0000
0.2778 0.9167 0.0000
0.2778 0.9722 0.0000
0.4444 0.0556 0.0000
0.5000 0.0278 0.0000
0.5000 0.0833 0.0000
0.4444 0.1667 0.0000
0.5000 0.1389 0.0000
0.5000 0.1944 0.0000
0.4444 0.2778 0.0000
0.5000 0.2500 0.0000
0.5000 0.3056 0.0000
0.4444 0.3889 0.0000
0.5000 0.3611 0.0000
0.5000 0.4167 0.0000
0.4444 0.5000 0.0000
0.5000 0.4722 0.0000
0.5000 0.5278 0.0000
0.4444 0.6111 0.0000
0.5000 0.5833 0.0000
0.5000 0.6389 0.0000
0.4444 0.7222 0.0000
0.5000 0.6944 0.0000
0.5000 0.7500 0.0000
0.4444 0.8333 0.0000
0.5000 0.8056 0.0000
0.5000 0.8611 0.0000
0.4444 0.9444 0.0000
0.5000 0.9167 0.0000
0.5000 0.9722 0.0000
0.6667 0.0556 0.0000
0.7222 0.0278 0.0000
0.7222 0.0833 0.0000
0.6667 0.1667 0.0000
0.7222 0.1389 0.0000
0.7222 0.1944 0.0000
0.6667 0.2778 0.0000
0.7222 0.2500 0.0000
0.7222 0.3056 0.0000
0.6667 0.3889 0.0000
0.7222 0.3611 0.0000
0.7222 0.4167 0.0000
0.6667 0.5000 0.0000
0.7222 0.4722 0.0000
0.7222 0.5278 0.0000
0.6667 0.6111 0.0000
0.7222 0.5833 0.0000
0.7222 0.6389 0.0000
0.6667 0.7222 0.0000
0.7222 0.6944 0.0000
0.7222 0.7500 0.0000
0.6667 0.8333 0.0000
0.7222 0.8056 0.0000
0.7222 0.8611 0.0000
0.6667 0.9444 0.0000
0.7222 0.9167 0.0000
0.7222 0.9722 0.0000
0.8889 0.0556 0.0000
0.9444 0.0278 0.0000
0.9444 0.0833 0.0000
0.8889 0.1667 0.0000
0.9444 0.1389 0.0000
0.9444 0.1944 0.0000
0.8889 0.2778 0.0000
0.9444 0.2500 0.0000
0.9444 0.3056 0.0000
0.8889 0.3889 0.0000
0.9444 0.3611 0.0000
0.9444 0.4167 0.0000
0.8889 0.5000 0.0000
0.9444 0.4722 0.0000
0.9444 0.5278 0.0000
0.8889 0.6111 0.0000
0.9444 0.5833 0.0000
0.9444 0.6389 0.0000
0.8889 0.7222 0.0000
0.9444 0.6944 0.0000
0.9444 0.7500 0.0000
0.8889 0.8333 0.0000
0.9444 0.8056 0.0000
0.9444 0.8611 0.0000
0.8889 0.9444 0.0000
0.9444 0.9167 0.0000
0.9444 0.9722 0.0000
1.1111 0.0556 0.0000
1.1667 0.0278 0.0000
1.1667 0.0833 0.0000
1.1111 0.1667 0.0000
1.1667 0.1389 0.0000
1.1667 0.1944 0.0000
1.1111 0.2778 0.0000
1.1667 0.2500 0.0000
1.1667 0.3056 0.0000
1.1111 0.3889 0.0000
1.1667 0.3611 0.0000
1.1667 0.4167 0.0000
1.1111 0.5000 0.0000
1.1667 0.4722 0.0000
1.1667 0.5278 0.0000
1.1111 0.6111 0.0000
1.1667 0.5833 0.0000
1.1667 0.6389 0.0000
1.1111 0.7222 0.0000
1.1667 0.6944 0.0000
1.1667 0.7500 0.0000
1.1111 0.8333 0.0000
1.1667 0.8056 0.0000
1.1667 0.8611 0.0000
1.1111 0.9444 0.0000
1.1667 0.9167 0.0000
1.1667 0.9722 0.0000
1.3333 0.0556 0.0000
1.3889 0.0278 0.0000
1.3889 0.0833 0.0000
1.3333 0.1667 0.0000
1.3889 0.1389 0.0000
1.3889 0.1944 0.0000
1.3333 0.2778 0.0000
1.3889 0.2500 0.0000
1.3889 0.3056 0.0000
1.3333 0.3889 0.0000
1.3889 0.3611 0.0000
1.3889 0.4167 0.0000
1.3333 0.5000 0.0000
1.3889 0.4722 0.0000
1.3889 0.5278 0.0000
1.3333 0.6111 0.0000
1.3889 0.5833 0.0000
1.3889 0.6389 0.0000
1.3333 0.7222 0.0000
1.3889 0.6944 0.0000
1.3889 0.7500 0.0000
1.3333 0.8333 0.0000
1.3889 0.8056 0.0000
1.3889 0.8611 0.0000
1.3333 0.9444 0.0000
1.3889 0.9167 0.0000
1.3889 0.9722 0.0000
1.5556 0.0556 0.0000
1.6111 0.0278 0.0000
1.6111 0.0833 0.0000
1.5556 0.1667 0.0000
1.6111 0.1389 0.0000
1.6111 0.1944 0.0000
1.5556 0.2778 0.0000
1.6111 0.2500 0.0000
1.6111 0.3056 0.0000
1.5556 0.3889 0.0000
1.6111 0.3611 0.0000
1.6111 0.4167 0.0000
1.5556 0.5000 0.0000
1.6111 0.4722 0.0000
1.6111 0.5278 0.0000
1.5556 0.6111 0.0000
1.6111 0.5833 0.0000
1.6111 0.6389 0.0000
1.5556 0.7222 0.0000
1.6111 0.6944 0.0000
1.6111 0.7500 0.0000
1.5556 0.8333 0.0000
1.6111 0.8056 0.0000
1.6111 0.8611 0.0000
1.5556 0.9444 0.0000
1.6111 0.9167 0.0000
1.6111 0.9722 0.0000
1.7778 0.0556 0.0000
1.8333 0.0278 0.0000
1.8333 0.0833 0.0000
1.7778 0.1667 0.0000
1.8333 0.1389 0.0000
1.8333 0.1944 0.0000
1.7778 0.2778 0.0000
1.8333 0.2500 0.0000
1.8333 0.3056 0.0000
1.7778 0.3889 0.0000
1.8333 0.3611 0.0000
1.8333 0.4167 0.0000
1.7778 0.5000 0.0000
1.8333 0.4722 0.0000
1.8333 0.5278 0.0000
1.7778 0.6111 0.0000
1.8333 0.5833 0.0000
1.8333 0.6389 0.0000
1.7778 0.7222 0.0000
1.8333 0.6944 0.0000
1.8333 0.7500 0.0000
1.7778 0.8333 0.0000
1.8333 0.8056 0.0000
1.8333 0.8611 0.0000
1.7778 0.9444 0.0000
1.8333 0.9167 0.0000
1.8333 0.9722 0.0000
0.1111 0.1111 0.0000
0.1667 0.0833 0.0000
0.1111 0.2222 0.0000
0.1667 0.1944 0.0000
0.1111 0.3333 0.0000
0.1667 0.3056 0.0000
0.1111 0.4444 0.0000
0.1667 0.4167 0.0000
0.1111 0.5556 0.0000
0.1667 0.5278 0.0000
0.1111 0.6667 0.0000
0.1667 0.6389 0.0000
0.1111 0.7778 0.0000
0.1667 0.7500 0.0000
0.1111 0.8889 0.0000
0.1667 0.8611 0.0000
0.1111 1.0000 0.0000
0.1667 0.9722 0.0000
0.3333 0.1111 0.0000
0.3889 0.0833 0.0000
0.3333 0.2222 0.0000
0.3889 0.1944 0.0000
0.3333 0.3333 0.0000
0.3889 0.3056 0.0000
0.3333 0.4444 0.0000
0.3889 0.4167 0.0000
0.3333 0.5556 0.0000
0.3889 0.5278 0.0000
0.3333 0.6667 0.0000
0.3889 0.6389 0.0000
0.3333 0.7778 0.0000
0.3889 0.7500 0.0000
0.3333 0.8889 0.0000
0.3889 0.8611 0.0000
0.3333 1.0000 0.0000
0.3889 0.9722 0.0000
0.5556 0.1111 0.0000
[...]
         <PointData>
            <DataArray Name="fValues" NumberOfComponents="3" format="ascii" type="Float64">
-3.67130e-15  9.17824e-16        00000 
-8.08834e-16  2.55856e-16        00000 
 3.87861e-16  4.93731e-17        00000 
-6.57565e-17 -2.48513e-17        00000 
-1.86147e-16 -7.37497e-17        00000 
 2.05489e-17 -9.86348e-17        00000 
-7.45220e-17 -8.04528e-17        00000 
-6.56971e-17  2.05303e-17        00000 
 1.05669e-15 -1.98129e-16        00000 
-6.11883e-16        00000        00000 
-2.45674e+01 -1.65400e+01        00000 
-1.78029e+01 -1.18520e+01        00000 
-1.20295e+01 -8.32047e+00        00000 
-6.88536e+00 -6.38073e+00        00000 
-2.83407e+00 -5.44449e+00        00000 
 2.69707e-01 -5.52671e+00        00000 
 3.93525e+00 -6.46384e+00        00000 
 8.16029e+00 -8.04996e+00        00000 
 1.34959e+01 -1.08721e+01        00000 
 2.03232e+01 -1.47525e+01        00000 
-4.54289e+01 -3.36077e+01        00000 
-3.45608e+01 -3.00788e+01        00000 
-2.40214e+01 -2.74785e+01        00000 
-1.46493e+01 -2.52599e+01        00000 
-6.34302e+00 -2.38939e+01        00000 
 2.30670e+00 -2.37482e+01        00000 
 9.99338e+00 -2.51462e+01        00000 
 1.83735e+01 -2.73686e+01        00000 
 2.80455e+01 -3.02749e+01        00000 
 3.90061e+01 -3.41827e+01        00000 
-6.36754e+01 -6.15179e+01        00000 
-4.82207e+01 -5.83126e+01        00000 
-3.45701e+01 -5.54556e+01        00000 
-2.20677e+01 -5.32568e+01        00000 
-9.39501e+00 -5.17935e+01        00000 
 3.30585e+00 -5.09934e+01        00000 
 1.53481e+01 -5.16292e+01        00000 
 2.78203e+01 -5.34789e+01        00000 
 4.20494e+01 -5.62386e+01        00000 
 5.71719e+01 -5.96796e+01        00000 
-7.86053e+01 -9.65658e+01        00000 
-6.08122e+01 -9.35302e+01        00000 
-4.41113e+01 -9.13174e+01        00000 
-2.80292e+01 -8.97603e+01        00000 
-1.25364e+01 -8.86868e+01        00000 
 3.95685e+00 -8.82049e+01        00000 
 2.10808e+01 -8.87572e+01        00000 
 3.81416e+01 -9.07166e+01        00000 
 5.63167e+01 -9.35264e+01        00000 
 7.55368e+01 -9.72626e+01        00000 
-9.30660e+01 -1.37842e+02        00000 
-7.13249e+01 -1.35290e+02        00000 
-5.09880e+01 -1.33278e+02        00000 
-3.15452e+01 -1.31952e+02        00000 
-1.25492e+01 -1.32056e+02        00000 
 6.62216e+00 -1.32805e+02        00000 
 2.66461e+01 -1.33922e+02        00000 
 4.73693e+01 -1.35389e+02        00000 
 6.91709e+01 -1.37514e+02        00000 
 9.19340e+01 -1.40600e+02        00000 
-1.06737e+02 -1.87741e+02        00000 
-8.10060e+01 -1.85415e+02        00000 
-5.70201e+01 -1.84011e+02        00000 
-3.41911e+01 -1.83403e+02        00000 
-1.20194e+01 -1.83340e+02        00000 
 9.18599e+00 -1.84026e+02        00000 
 3.09841e+01 -1.84956e+02        00000 
 5.46050e+01 -1.86379e+02        00000 
 7.94968e+01 -1.87858e+02        00000 
 1.06103e+02 -1.90091e+02        00000 
-1.18757e+02 -2.45600e+02        00000 
-8.94020e+01 -2.43577e+02        00000 
-6.21896e+01 -2.42251e+02        00000 
-3.67897e+01 -2.41691e+02        00000 
-1.26861e+01 -2.41532e+02        00000 
 1.11611e+01 -2.42073e+02        00000 
 3.50712e+01 -2.43370e+02        00000 
 5.99718e+01 -2.44737e+02        00000 
 8.69261e+01 -2.46009e+02        00000 
 1.15801e+02 -2.47492e+02        00000 
-1.28502e+02 -3.08942e+02        00000 
-9.59101e+01 -3.07790e+02        00000 
-6.60872e+01 -3.07378e+02        00000 
-3.89701e+01 -3.07178e+02        00000 
-1.32729e+01 -3.07415e+02        00000 
 1.20947e+01 -3.07939e+02        00000 
 3.68164e+01 -3.08178e+02        00000 
 6.24796e+01 -3.08505e+02        00000 
 9.06744e+01 -3.08974e+02        00000 
 1.21754e+02 -3.09258e+02        00000 
-1.35639e+02 -3.84159e+02        00000 
-9.87397e+01 -3.81291e+02        00000 
-6.74968e+01 -3.77978e+02        00000 
-3.97840e+01 -3.74973e+02        00000 
-1.32039e+01 -3.73385e+02        00000 
 1.28105e+01 -3.72791e+02        00000 
 3.72536e+01 -3.73588e+02        00000 
 6.42880e+01 -3.76273e+02        00000 
 9.24778e+01 -3.79773e+02        00000 
 1.26670e+02 -3.83416e+02        00000 
-1.01181e+01 -6.89221e+00        00000 
-6.86154e+00 -3.39098e+00        00000 
-4.38109e+00 -1.58631e+00        00000 
-2.14337e+00 -1.08267e+00        00000 
-4.51168e-01 -1.18033e+00        00000 
 8.10562e-01 -1.19831e+00        00000 
 2.75212e+00 -1.86012e+00        00000 
 4.88957e+00 -3.08620e+00        00000 
 8.09925e+00 -5.64881e+00        00000 
-3.09490e+01 -2.17518e+01        00000 
-2.25858e+01 -1.80955e+01        00000 
-1.43284e+01 -1.54088e+01        00000 
-7.48879e+00 -1.35188e+01        00000 
-1.58577e+00 -1.27714e+01        00000 
 3.99201e+00 -1.36564e+01        00000 
 1.00245e+01 -1.54891e+01        00000 
 1.70539e+01 -1.80028e+01        00000 
 2.50161e+01 -2.11930e+01        00000 
-4.80678e+01 -4.45441e+01        00000 
-3.53454e+01 -4.14752e+01        00000 
-2.37664e+01 -3.89397e+01        00000 
-1.31294e+01 -3.68980e+01        00000 
-2.43946e+00 -3.62133e+01        00000 
 7.92485e+00 -3.65098e+01        00000 
 1.78850e+01 -3.79995e+01        00000 
 2.90324e+01 -4.03899e+01        00000 
 4.14544e+01 -4.37386e+01        00000 
-6.26838e+01 -7.71598e+01        00000 
-4.70645e+01 -7.39543e+01        00000 
-3.24181e+01 -7.13930e+01        00000 
-1.82790e+01 -6.97802e+01        00000 
-3.77067e+00 -6.86069e+01        00000 
 1.09574e+01 -6.83319e+01        00000 
 2.55371e+01 -6.96568e+01        00000 
 4.09634e+01 -7.23577e+01        00000 
 5.76867e+01 -7.56795e+01        00000 
-7.61038e+01 -1.14519e+02        00000 
-5.67591e+01 -1.12245e+02        00000 
-3.87156e+01 -1.10603e+02        00000 
-2.15780e+01 -1.09682e+02        00000 
-4.13715e+00 -1.09678e+02        00000 
 1.44227e+01 -1.10160e+02        00000 
 3.34207e+01 -1.11171e+02        00000 
 5.28745e+01 -1.13275e+02        00000 
 7.32798e+01 -1.16154e+02        00000 
-8.79252e+01 -1.60427e+02        00000 
-6.49779e+01 -1.58300e+02        00000 
-4.35196e+01 -1.57000e+02        00000 
-2.22998e+01 -1.56464e+02        00000 
-2.12327e+00 -1.56915e+02        00000 
 1.83944e+01 -1.57829e+02        00000 
 4.00671e+01 -1.58878e+02        00000 
 6.27688e+01 -1.60632e+02        00000 
 8.68484e+01 -1.62870e+02        00000 
-9.88223e+01 -2.14698e+02        00000 
-7.23627e+01 -2.12935e+02        00000 
-4.74268e+01 -2.11944e+02        00000 
-2.37467e+01 -2.11580e+02        00000 
-8.48366e-01 -2.11561e+02        00000 
 2.15665e+01 -2.12459e+02        00000 
 4.51895e+01 -2.13970e+02        00000 
 7.03111e+01 -2.15385e+02        00000 
 9.71827e+01 -2.17299e+02        00000 
-1.08354e+02 -2.76012e+02        00000 
-7.85180e+01 -2.74633e+02        00000 
-5.10388e+01 -2.73933e+02        00000 
-2.57018e+01 -2.73689e+02        00000 
-6.55521e-01 -2.73925e+02        00000 
 2.41139e+01 -2.74681e+02        00000 
 4.86361e+01 -2.75491e+02        00000 
 7.49105e+01 -2.76471e+02        00000 
 1.03906e+02 -2.77617e+02        00000 
-1.14430e+02 -3.43250e+02        00000 
-8.15340e+01 -3.42415e+02        00000 
-5.25483e+01 -3.41496e+02        00000 
-2.59746e+01 -3.40758e+02        00000 
-3.93618e-02 -3.40678e+02        00000 
 2.46311e+01 -3.41124e+02        00000 
 4.97366e+01 -3.41714e+02        00000 
 7.69344e+01 -3.42864e+02        00000 
 1.07192e+02 -3.43618e+02        00000 
 1.47061e-16 -1.35106e-15        00000 
-5.51690e+00 -3.80046e+00        00000 
-4.37380e+00 -2.38689e+00        00000 
 6.84757e-16  1.16671e-16        00000 
-3.54660e+00 -1.42333e+00        00000 
-2.99349e+00 -7.12219e-01        00000 
 2.49800e-16  1.56125e-16        00000 
-2.45670e+00 -3.03405e-01        00000 
-1.82122e+00 -1.24034e-02        00000 
-3.43676e-16 -4.14984e-17        00000 
-1.34376e+00  1.93849e-03        00000 
-9.84333e-01  5.70076e-02        00000 
-1.87350e-16 -4.68375e-17        00000 
-5.55225e-01 -1.40881e-01        00000 
-2.45058e-01 -2.38524e-01        00000 
 3.97422e-17 -4.90412e-17        00000 
 6.53787e-02 -2.41252e-01        00000 
 4.85500e-01 -2.09395e-01        00000 
-6.24500e-17 -1.09288e-16        00000 
 9.48338e-01 -2.16407e-01        00000 
 1.51675e+00 -3.91927e-01        00000 
 9.99201e-16 -1.87350e-16        00000 
 1.95455e+00 -6.54845e-01        00000 
 2.46320e+00 -1.14706e+00        00000 
-9.74849e-16  9.49201e-16        00000 
 3.20677e+00 -1.80975e+00        00000 
 4.38758e+00 -2.91988e+00        00000 
-2.10807e+01 -1.41701e+01        00000 
-2.81372e+01 -1.90753e+01        00000 
-2.43087e+01 -1.67519e+01        00000 
-1.49911e+01 -9.98757e+00        00000 
-2.06032e+01 -1.45884e+01        00000 
-1.70557e+01 -1.29035e+01        00000 
-9.32133e+00 -7.18950e+00        00000 
-1.34582e+01 -1.15434e+01        00000 
-1.02352e+01 -1.04486e+01        00000 
-4.65707e+00 -5.68022e+00        00000 
-7.29479e+00 -9.64765e+00        00000 
-4.73307e+00 -9.04357e+00        00000 
-1.24310e+00 -5.35911e+00        00000 
-2.43364e+00 -8.80218e+00        00000 
-3.88566e-01 -8.80247e+00        00000 
 1.89692e+00 -5.94012e+00        00000 
 1.77432e+00 -9.20224e+00        00000 
 4.10165e+00 -9.85672e+00        00000 
 5.94309e+00 -7.13264e+00        00000 
 6.56422e+00 -1.05180e+01        00000 
 9.31487e+00 -1.15066e+01        00000 
 1.07076e+01 -9.33395e+00        00000 
 1.23028e+01 -1.26090e+01        00000 
 1.55813e+01 -1.41564e+01        00000 
 1.67467e+01 -1.26276e+01        00000 
 1.90419e+01 -1.58948e+01        00000 
 2.29471e+01 -1.76845e+01        00000 
-3.99798e+01 -3.17741e+01        00000 
-4.72407e+01 -3.88802e+01        00000 
-4.11345e+01 -3.69822e+01        00000 
-2.93735e+01 -2.86999e+01        00000 
-3.52235e+01 -3.53995e+01        00000 
-2.94447e+01 -3.40460e+01        00000 
-1.93690e+01 -2.61817e+01        00000 
-2.41809e+01 -3.27772e+01        00000 
-1.90977e+01 -3.17676e+01        00000 
-1.05328e+01 -2.43314e+01        00000 
-1.42125e+01 -3.06731e+01        00000 
-9.55387e+00 -3.00086e+01        00000 
-2.04543e+00 -2.35958e+01        00000 
-4.57720e+00 -2.95925e+01        00000 
 1.80611e-01 -2.96374e+01        00000 
 6.03416e+00 -2.43096e+01        00000 
 4.82352e+00 -2.98383e+01        00000 
 9.11236e+00 -3.04550e+01        00000 
 1.40104e+01 -2.61803e+01        00000 
 1.36334e+01 -3.12555e+01        00000 
 1.82961e+01 -3.22928e+01        00000 
 2.30459e+01 -2.86774e+01        00000 
 2.34689e+01 -3.35102e+01        00000 
 2.87891e+01 -3.50693e+01        00000 
 3.32924e+01 -3.20942e+01        00000 
 3.44621e+01 -3.68599e+01        00000 
 4.03313e+01 -3.88726e+01        00000 
-5.57493e+01 -6.00530e+01        00000 
-6.33813e+01 -6.94754e+01        00000 
-5.53935e+01 -6.76209e+01        00000 
-4.12334e+01 -5.68383e+01        00000 
-4.77604e+01 -6.59940e+01        00000 
-4.06588e+01 -6.44858e+01        00000 
-2.81624e+01 -5.41822e+01        00000 
-3.37942e+01 -6.31575e+01        00000 
-2.69983e+01 -6.20774e+01        00000 
-1.58166e+01 -5.24517e+01        00000 
-2.03433e+01 -6.12349e+01        00000 
-1.36648e+01 -6.04949e+01        00000 
-3.01268e+00 -5.12862e+01        00000 
-6.87440e+00 -5.96954e+01        00000 
-5.07417e-02 -5.92856e+01        00000 
 9.43631e+00 -5.11778e+01        00000 
 6.81532e+00 -5.91888e+01        00000 
 1.34543e+01 -5.94091e+01        00000 
 2.13670e+01 -5.23612e+01        00000 
 2.00064e+01 -5.99738e+01        00000 
 2.67643e+01 -6.10452e+01        00000 
 3.48489e+01 -5.47839e+01        00000 
 3.41159e+01 -6.22887e+01        00000 
 4.17089e+01 -6.38463e+01        00000 
 4.93774e+01 -5.78789e+01        00000 
 4.94615e+01 -6.54667e+01        00000 
 5.77141e+01 -6.75003e+01        00000 
-6.95375e+01 -9.51013e+01        00000 
-7.76554e+01 -1.05371e+02        00000 
-6.82362e+01 -1.03806e+02        00000 
-5.23360e+01 -9.23186e+01        00000 
-5.90092e+01 -1.02477e+02        00000 
-5.01619e+01 -1.01493e+02        00000 
-3.58658e+01 -9.04239e+01        00000 
-4.15675e+01 -1.00740e+02        00000 
-3.32671e+01 -1.00072e+02        00000 
-2.02440e+01 -8.90535e+01        00000 
-2.50883e+01 -9.94261e+01        00000 
-1.68784e+01 -9.90570e+01        00000 
-4.45033e+00 -8.83209e+01        00000 
-8.58818e+00 -9.87575e+01        00000 
-6.22271e-02 -9.87461e+01        00000 
 1.24529e+01 -8.84028e+01        00000 
 8.88966e+00 -9.88714e+01        00000 
 1.79634e+01 -9.91532e+01        00000 
 2.95322e+01 -8.95896e+01        00000 
 2.70489e+01 -9.97633e+01        00000 
 3.60649e+01 -1.00629e+02        00000 
 4.71136e+01 -9.20596e+01        00000 
 4.54627e+01 -1.01699e+02        00000 
 5.49514e+01 -1.03085e+02        00000 
 6.56496e+01 -9.53179e+01        00000 
 6.45802e+01 -1.04792e+02        00000 
 7.45277e+01 -1.06472e+02        00000 
-8.21854e+01 -1.36610e+02        00000 
-9.07540e+01 -1.49024e+02        00000 
-7.95081e+01 -1.47679e+02        00000 
-6.10225e+01 -1.34281e+02        00000 
-6.83084e+01 -1.46482e+02        00000 
-5.78352e+01 -1.45454e+02        00000 
-4.12867e+01 -1.32577e+02        00000 
-4.76199e+01 -1.44709e+02        00000 
-3.74863e+01 -1.44069e+02        00000 
-2.20211e+01 -1.31988e+02        00000 
-2.72201e+01 -1.43787e+02        00000 
-1.73486e+01 -1.43824e+02        00000 
-3.13908e+00 -1.32426e+02        00000 
-7.49499e+00 -1.43993e+02        00000 
 2.30579e+00 -1.44508e+02        00000 
 1.64550e+01 -1.33439e+02        00000 
 1.23732e+01 -1.45117e+02        00000 
 2.25892e+01 -1.45644e+02        00000 
 3.69312e+01 -1.34645e+02        00000 
 3.31318e+01 -1.46279e+02        00000 
 4.39929e+01 -1.46892e+02        00000 
 5.80876e+01 -1.36376e+02        00000 
 5.49893e+01 -1.47761e+02        00000 
 6.62794e+01 -1.48771e+02        00000 
 8.04774e+01 -1.38907e+02        00000 
 7.78629e+01 -1.50052e+02        00000 
 8.98006e+01 -1.51512e+02        00000 
-9.33983e+01 -1.86477e+02        00000 
-1.02775e+02 -2.00986e+02        00000 
-8.95643e+01 -1.99813e+02        00000 
-6.88067e+01 -1.84478e+02        00000 
-7.68462e+01 -1.98893e+02        00000 
-6.44118e+01 -1.98180e+02        00000 
-4.54835e+01 -1.83662e+02        00000 
-5.23496e+01 -1.97731e+02        00000 
-4.05484e+01 -1.97417e+02        00000 
-2.29647e+01 -1.83405e+02        00000 
-2.90670e+01 -1.97335e+02        00000 
-1.77715e+01 -1.97260e+02        00000 
-1.30212e+00 -1.83713e+02        00000 
-6.50616e+00 -1.97367e+02        00000 
 4.34217e+00 -1.97655e+02        00000 
 1.99254e+01 -1.84416e+02        00000 
 1.51408e+01 -1.98109e+02        00000 
 2.63209e+01 -1.98662e+02        00000 
 4.26660e+01 -1.85569e+02        00000 
 3.79730e+01 -1.99379e+02        00000 
 5.00606e+01 -2.00026e+02        00000 
 6.69873e+01 -1.86977e+02        00000 
 6.24538e+01 -2.00714e+02        00000 
 7.51097e+01 -2.01447e+02        00000 
 9.26589e+01 -1.88830e+02        00000 
 8.81603e+01 -2.02520e+02        00000 
 1.01913e+02 -2.03360e+02        00000 
-1.03720e+02 -2.44389e+02        00000 
-1.13690e+02 -2.60641e+02        00000 
-9.86128e+01 -2.59597e+02        00000 
-7.55582e+01 -2.42728e+02        00000 
-8.41465e+01 -2.58825e+02        00000 
-7.00831e+01 -2.58260e+02        00000 
-4.92448e+01 -2.41924e+02        00000 
-5.66615e+01 -2.57897e+02        00000 
-4.37456e+01 -2.57598e+02        00000 
-2.46444e+01 -2.41569e+02        00000 
-3.13030e+01 -2.57427e+02        00000 
-1.89227e+01 -2.57339e+02        00000 
-7.42067e-01 -2.41598e+02        00000 
-6.66439e+00 -2.57389e+02        00000 
 5.65353e+00 -2.57646e+02        00000 
 2.31459e+01 -2.42614e+02        00000 
 1.77851e+01 -2.58150e+02        00000 
 2.98996e+01 -2.58654e+02        00000 
 4.72892e+01 -2.44093e+02        00000 
 4.21013e+01 -2.59282e+02        00000 
 5.44105e+01 -2.59938e+02        00000 
 7.32034e+01 -2.45287e+02        00000 
 6.74511e+01 -2.60557e+02        00000 
 8.11273e+01 -2.61088e+02        00000 
 1.01156e+02 -2.46653e+02        00000 
 9.54330e+01 -2.61736e+02        00000 
 1.10071e+02 -2.62413e+02        00000 
-1.11922e+02 -3.08293e+02        00000 
-1.21967e+02 -3.25660e+02        00000 
-1.04883e+02 -3.25161e+02        00000 
-8.05706e+01 -3.07578e+02        00000 
-8.88278e+01 -3.24775e+02        00000 
-7.36305e+01 -3.24534e+02        00000 
-5.21579e+01 -3.07266e+02        00000 
-5.92651e+01 -3.24304e+02        00000 
-4.55462e+01 -3.24105e+02        00000 
-2.60134e+01 -3.07206e+02        00000 
-3.23654e+01 -3.24080e+02        00000 
-1.95347e+01 -3.24003e+02        00000 
-4.87189e-01 -3.07559e+02        00000 
-6.57793e+00 -3.24179e+02        00000 
 6.08545e+00 -3.24375e+02        00000 
 2.45192e+01 -3.07973e+02        00000 
 1.84770e+01 -3.24621e+02        00000 
 3.06973e+01 -3.24756e+02        00000 
 4.94277e+01 -3.08248e+02        00000 
 4.31568e+01 -3.24849e+02        00000 
 5.61442e+01 -3.25055e+02        00000 
 7.62849e+01 -3.08780e+02        00000 
 6.97040e+01 -3.25320e+02        00000 
 8.37700e+01 -3.25617e+02        00000 
 1.06034e+02 -3.09123e+02        00000 
 9.88051e+01 -3.25772e+02        00000 
 1.14906e+02 -3.26155e+02        00000 
-8.38167e+00 -4.96031e+00        00000 
-1.43425e+01 -9.42240e+00        00000 
-5.63926e+00 -2.41094e+00        00000 
-9.87150e+00 -5.78962e+00        00000 
-3.12269e+00 -1.26406e+00        00000 
-5.85844e+00 -3.84285e+00        00000 
-1.20779e+00 -1.19205e+00        00000 
-2.66469e+00 -3.05573e+00        00000 
 8.07584e-03 -1.20410e+00        00000 
-4.11051e-01 -2.90596e+00        00000 
 1.65210e+00 -1.40359e+00        00000 
 1.98015e+00 -3.44814e+00        00000 
 3.81088e+00 -2.34286e+00        00000 
 5.05418e+00 -4.55286e+00        00000 
 6.22825e+00 -4.07943e+00        00000 
 8.69429e+00 -6.55290e+00        00000 
 1.11947e+01 -7.83052e+00        00000 
 1.40719e+01 -1.01068e+01        00000 
-2.67552e+01 -1.98124e+01        00000 
-3.31237e+01 -2.55261e+01        00000 
-1.83664e+01 -1.66863e+01        00000 
-2.35763e+01 -2.23880e+01        00000 
-1.06974e+01 -1.44362e+01        00000 
-1.47856e+01 -1.99732e+01        00000 
-4.41784e+00 -1.30893e+01        00000 
-7.13501e+00 -1.83037e+01        00000 
 1.22819e+00 -1.30821e+01        00000 
 3.32800e-03 -1.77133e+01        00000 
 6.77082e+00 -1.45095e+01        00000 
 6.68052e+00 -1.90820e+01        00000 
 1.33841e+01 -1.67473e+01        00000 
 1.39086e+01 -2.11668e+01        00000 
 2.08447e+01 -1.95704e+01        00000 
 2.22160e+01 -2.38771e+01        00000 
 2.96861e+01 -2.32567e+01        00000 
 3.16972e+01 -2.75112e+01        00000 
-4.16133e+01 -4.29584e+01        00000 
-4.84156e+01 -5.12592e+01        00000 
-2.94441e+01 -4.02305e+01        00000 
-3.51427e+01 -4.83596e+01        00000 
-1.84783e+01 -3.78896e+01        00000 
-2.31927e+01 -4.59898e+01        00000 
-7.82948e+00 -3.64887e+01        00000 
-1.15442e+01 -4.44362e+01        00000 
 2.78892e+00 -3.62942e+01        00000 
 1.44065e-01 -4.36829e+01        00000 
 1.27914e+01 -3.72274e+01        00000 
 1.14387e+01 -4.40252e+01        00000 
 2.32036e+01 -3.91305e+01        00000 
 2.24697e+01 -4.56451e+01        00000 
 3.51470e+01 -4.20019e+01        00000 
 3.53065e+01 -4.80481e+01        00000 
 4.77178e+01 -4.55977e+01        00000 
 4.89147e+01 -5.15621e+01        00000 
-5.47095e+01 -7.55267e+01        00000 
-6.19509e+01 -8.52118e+01        00000 
-3.98152e+01 -7.26425e+01        00000 
-4.59556e+01 -8.22993e+01        00000 
-2.52439e+01 -7.04656e+01        00000 
-3.04542e+01 -8.03355e+01        00000 
-1.11460e+01 -6.91332e+01        00000 
-1.56577e+01 -7.89962e+01        00000 
 3.49797e+00 -6.83157e+01        00000 
-4.28135e-01 -7.81213e+01        00000 
 1.82235e+01 -6.87572e+01        00000 
 1.57047e+01 -7.83427e+01        00000 
 3.30358e+01 -7.08927e+01        00000 
 3.14786e+01 -8.00378e+01        00000 
 4.91947e+01 -7.38528e+01        00000 
 4.84584e+01 -8.27296e+01        00000 
 6.69417e+01 -7.75955e+01        00000 
 6.65671e+01 -8.62814e+01        00000 
-6.62632e+01 -1.13189e+02        00000 